/*--------------------------------*- C++ -*----------------------------------*\
  =========                 |
  \\      /  F ield         | OpenFOAM: The Open Source CFD Toolbox
   \\    /   O peration     | Website:  https://openfoam.org
    \\  /    A nd           | Version:  8
     \\/     M anipulation  |
\*---------------------------------------------------------------------------*/
FoamFile
{
    version     2.0;
    format      ascii;
    class       volScalarField;
    location    "700";
    object      epsilon;
}
// * * * * * * * * * * * * * * * * * * * * * * * * * * * * * * * * * * * * * //

dimensions      [0 2 -3 0 0 0 0];

internalField   nonuniform List<scalar> 
15677
(
1182.95
450.741
1558.78
85.8083
451.648
1455.64
19.8101
116.597
388.109
1275.56
7.2126
35.9266
104.772
360.514
1158.58
3.82901
14.3045
37.2934
92.6183
361.006
1085.53
2.64035
7.18077
17.1138
35.2361
94.1223
365.878
1041.58
2.1617
4.33783
9.17365
17.2863
33.6982
99.4743
372.526
1010.87
1.97289
3.0344
5.58356
9.92128
17.0568
33.9561
109.116
372.992
990.965
1.90448
2.3828
3.79252
6.27466
10.1572
16.6792
35.4153
119.145
372.097
974.887
1.87844
2.06059
2.83784
4.30803
6.63554
10.1328
16.7258
38.3672
129.226
368.207
963.866
1.86721
1.92147
2.31397
3.19108
4.63783
6.78571
10.0802
17.024
42.3009
137.119
363.493
957.322
1.86735
1.86801
2.02991
2.53931
3.44689
4.83126
6.8329
10.0847
17.7036
46.4615
143.436
358.902
955.017
1.86899
1.84318
1.89333
2.15982
2.71937
3.62233
4.93511
6.84693
10.1422
18.7196
50.7399
148.027
354.909
955.976
1.86963
1.83738
1.83764
1.9488
2.27426
2.85597
3.73615
4.98927
6.8519
10.2856
19.9522
54.5988
151.487
351.734
959.498
1.86973
1.83717
1.81462
1.84527
2.00981
2.36884
2.95493
3.80813
5.01489
6.86537
10.5495
21.2057
58.2072
153.577
349.353
966.827
1.8697
1.83752
1.8089
1.80066
1.86356
2.06602
2.44315
3.02481
3.85155
5.02567
6.89999
10.8405
22.5515
61.1507
154.961
347.649
978.167
1.86967
1.83768
1.80791
1.78609
1.79397
1.88814
2.11372
2.49986
3.07253
3.8759
5.03216
6.95279
11.1859
23.778
63.6791
155.462
346.623
993.03
1.86966
1.83771
1.80789
1.78199
1.76781
1.79444
1.91113
2.15266
2.54181
3.1039
3.88825
5.03753
7.02434
11.5199
24.9773
65.4989
155.459
346.196
1011.5
1.86965
1.8377
1.80793
1.78101
1.75908
1.75495
1.79654
1.93165
2.18332
2.57203
3.12309
3.89319
5.04557
7.09754
11.8697
25.995
66.8666
155.187
346.295
1033.64
1.86965
1.83768
1.80794
1.78083
1.75638
1.74002
1.74514
1.80068
1.94892
2.20686
2.59274
3.13389
3.89282
5.05306
7.17794
12.1866
26.875
67.6732
154.593
346.759
1059.45
1.86965
1.83767
1.80791
1.78079
1.75563
1.73471
1.72373
1.73808
1.80498
1.96296
2.2242
2.60636
3.13806
3.89049
5.06186
7.25225
12.4782
27.5341
68.1237
153.602
347.749
1088.92
1.86965
1.83766
1.80789
1.78077
1.75542
1.73299
1.71522
1.71029
1.73262
1.8089
1.97387
2.23663
2.61421
3.1375
3.88578
5.06849
7.32123
12.7136
28.0238
68.0728
152.479
349.236
1121.99
1.86965
1.83765
1.80787
1.78073
1.75534
1.73246
1.71206
1.69839
1.6987
1.72845
1.81211
1.98213
2.24497
2.61806
3.13502
3.87875
5.07408
7.37713
12.9052
28.3112
67.8413
151.301
351.14
1158.53
1.86965
1.83764
1.80786
1.7807
1.75528
1.73227
1.71095
1.69361
1.68321
1.68917
1.72495
1.81464
1.9882
2.25043
2.6185
3.12984
3.87093
5.07513
7.41979
13.0272
28.4168
67.3279
149.999
353.431
1198.46
1.86966
1.83764
1.80785
1.78068
1.75523
1.73217
1.71054
1.69179
1.67653
1.67041
1.68079
1.72219
1.8167
1.99271
2.25364
2.61782
3.12366
3.86141
5.07367
7.44713
13.1101
28.3701
66.5616
148.612
356.119
1241.55
1.86966
1.83763
1.80784
1.78065
1.7552
1.7321
1.71036
1.69109
1.67379
1.66191
1.65876
1.67412
1.72004
1.8185
1.99626
2.25578
2.61639
3.11654
3.85216
5.06953
7.4581
13.1098
28.2327
65.6533
147.204
359.153
1287.7
1.86966
1.83763
1.80784
1.78063
1.75517
1.73204
1.71025
1.69078
1.67268
1.65823
1.64829
1.64949
1.66849
1.71874
1.82068
1.99971
2.25794
2.61448
3.11092
3.84216
5.06196
7.45326
13.0871
27.9665
64.6261
145.765
362.533
1336.54
1.86966
1.83762
1.80784
1.78062
1.75515
1.73199
1.71017
1.6906
1.67219
1.65664
1.64353
1.6374
1.64111
1.66463
1.71906
1.82372
2.00377
2.26068
2.6148
3.10569
3.83455
5.05164
7.44011
13.0318
27.608
63.5075
144.351
366.208
1388.04
1.86967
1.83762
1.80784
1.7806
1.75513
1.73194
1.71011
1.69048
1.67194
1.65591
1.64142
1.63166
1.62721
1.63567
1.66258
1.72066
1.82822
2.00947
2.26552
2.61682
3.1052
3.82823
5.04096
7.4153
12.9317
27.1884
62.339
142.94
370.168
1441.37
1.86967
1.83761
1.80784
1.78059
1.75512
1.73191
1.71006
1.69038
1.67178
1.65554
1.64045
1.62897
1.62047
1.62065
1.63117
1.6634
1.72438
1.83522
2.0178
2.27352
2.62198
3.10723
3.82585
5.03115
7.38334
12.8083
26.7262
61.1386
141.588
374.372
1502.74
1.86967
1.83761
1.80784
1.78058
1.75511
1.73188
1.71001
1.6903
1.67165
1.6553
1.63995
1.62766
1.61727
1.61302
1.61458
1.63146
1.66637
1.73151
1.84561
2.02998
2.28549
2.63219
3.11328
3.82763
5.02307
7.34689
12.6692
26.2383
59.9381
140.263
379.319
1572.98
1.86968
1.8376
1.80784
1.78057
1.7551
1.73185
1.70998
1.69024
1.67155
1.65512
1.63964
1.62698
1.6157
1.60921
1.60625
1.61415
1.63384
1.67275
1.7428
1.86059
2.04698
2.30302
2.64838
3.12567
3.83358
5.01823
7.30961
12.5213
25.7384
58.7455
138.888
385.187
1644.54
1.86968
1.8376
1.80784
1.78056
1.7551
1.73182
1.70995
1.69018
1.67146
1.65498
1.63942
1.62657
1.61488
1.60726
1.60211
1.60497
1.61616
1.63971
1.68435
1.75943
1.88126
2.07035
2.32712
2.67168
3.14577
3.84599
5.01951
7.27386
12.3704
25.2385
57.4583
137.438
391.244
1717.06
1.86968
1.8376
1.80785
1.78055
1.75509
1.7318
1.70993
1.69012
1.6714
1.65486
1.63924
1.62627
1.61437
1.60622
1.59998
1.60025
1.60683
1.62177
1.65115
1.70193
1.78251
1.90914
2.10109
2.35937
2.70299
3.17398
3.86721
5.02504
7.24083
12.2212
24.6953
56.0781
136.118
397.535
1789.81
1.83759
1.86972
1.80785
1.78054
1.75509
1.73178
1.70992
1.69008
1.67134
1.65476
1.63909
1.62604
1.614
1.60559
1.59882
1.59779
1.60203
1.61236
1.63303
1.6694
1.72666
1.81364
1.94534
2.14093
2.40051
2.74372
3.21095
3.89717
5.03702
7.21373
12.0622
24.1172
54.7931
134.896
403.904
1862.32
1.80785
1.83769
1.86979
1.78053
1.75509
1.73176
1.7099
1.69003
1.67129
1.65467
1.63896
1.62585
1.61371
1.60515
1.5981
1.59646
1.59954
1.60756
1.62361
1.65185
1.6954
1.76018
1.85403
1.99165
2.19064
2.45219
2.79434
3.25799
3.93569
5.05849
7.19144
11.8969
23.5809
53.5911
133.805
410.387
1934.06
1.78053
1.80801
1.83788
1.86987
1.75509
1.73175
1.70989
1.69
1.67126
1.65459
1.63886
1.62569
1.61347
1.60481
1.59759
1.59566
1.59823
1.60513
1.61891
1.64298
1.67894
1.73087
1.80386
1.90561
2.04908
2.25217
2.51484
2.85609
3.31501
3.9841
5.09188
7.17817
11.7516
23.0868
52.4917
132.814
416.894
2004.6
1.75509
1.78073
1.80833
1.83808
1.86994
1.73173
1.70988
1.68996
1.67123
1.65452
1.63877
1.62554
1.61327
1.60453
1.59719
1.59511
1.59745
1.6039
1.61665
1.63885
1.67113
1.71631
1.77741
1.85955
1.96932
2.11957
2.32579
2.59
2.92917
3.38301
4.04878
5.14126
7.18115
11.6248
22.6404
51.4793
131.945
423.35
2073.56
1.73172
1.75534
1.78114
1.80866
1.83829
1.87002
1.70988
1.68993
1.6712
1.65445
1.6387
1.62542
1.6131
1.6043
1.59685
1.59469
1.59692
1.60322
1.61563
1.63721
1.66811
1.71036
1.76566
1.83736
1.92914
2.04759
2.20344
2.41334
2.67766
3.01428
3.47054
4.13494
5.20455
7.19268
11.5172
22.2382
50.5645
131.177
429.714
2140.64
1.70987
1.732
1.75586
1.78157
1.809
1.83851
1.8701
1.6899
1.67118
1.65439
1.63865
1.6253
1.61295
1.60409
1.59657
1.59435
1.59653
1.6028
1.61518
1.63681
1.6675
1.70911
1.76255
1.83004
1.91296
2.0153
2.14179
2.30366
2.51416
2.77894
3.12277
3.58386
4.23561
5.28021
7.21666
11.4293
21.8812
49.7316
130.52
435.952
2205.57
1.68988
1.7102
1.73259
1.7564
1.78201
1.80935
1.83873
1.87019
1.67117
1.65434
1.6386
1.6252
1.61284
1.60392
1.59633
1.59407
1.59621
1.6025
1.61498
1.63689
1.66807
1.71021
1.76373
1.83036
1.91063
2.00679
2.12024
2.25534
2.42063
2.63162
2.90533
3.25968
3.71214
4.34885
5.36641
7.25479
11.3603
21.5645
48.9866
129.952
442.048
2268.17
1.67116
1.69022
1.71088
1.7332
1.75695
1.78246
1.8097
1.83895
1.87027
1.65429
1.63857
1.6251
1.61275
1.60376
1.59612
1.59383
1.59596
1.60227
1.61489
1.63719
1.6691
1.71252
1.76749
1.83551
1.91626
2.01119
2.11986
2.24553
2.38895
2.55784
2.78038
3.06738
3.41399
3.85458
4.47282
5.46257
7.30319
11.3086
21.2868
48.3136
129.476
447.974
2328.3
1.65425
1.67154
1.69093
1.71158
1.73382
1.75751
1.78293
1.81007
1.83918
1.87036
1.63854
1.62502
1.61268
1.60362
1.59595
1.59364
1.59575
1.6021
1.61487
1.63755
1.67027
1.71518
1.77243
1.8434
1.92703
2.02446
2.13397
2.25686
2.39207
2.54395
2.73255
2.97333
3.25237
3.58604
4.00976
4.60687
5.56696
7.36078
11.2722
21.0435
47.7148
129.072
453.73
2385.88
1.63852
1.65461
1.67233
1.69167
1.71229
1.73446
1.75809
1.7834
1.81044
1.83942
1.87045
1.62494
1.61262
1.60349
1.59582
1.59348
1.59558
1.60197
1.61488
1.63794
1.67146
1.71785
1.77756
1.85251
1.94081
2.04333
2.15758
2.28399
2.41905
2.56494
2.7403
2.95506
3.19333
3.46047
3.77531
4.17743
4.74919
5.67838
7.4258
11.2496
20.832
47.1771
128.743
459.284
2440.82
1.62487
1.63892
1.6554
1.67314
1.69243
1.71303
1.73512
1.75868
1.7839
1.81083
1.83967
1.87054
1.61258
1.60337
1.59571
1.59335
1.59544
1.60188
1.61493
1.63834
1.67262
1.72042
1.78258
1.86164
1.95589
2.06583
2.1876
2.32184
2.46311
2.61211
2.7867
2.9955
3.20824
3.43636
3.68928
3.98105
4.35583
4.89897
5.79514
7.49727
11.2387
20.6485
46.7021
128.471
464.653
2493.14
1.61255
1.62521
1.63977
1.65622
1.67398
1.69322
1.71378
1.7358
1.75929
1.7844
1.81122
1.83992
1.87063
1.60325
1.59563
1.59324
1.59533
1.60181
1.615
1.63874
1.67374
1.72285
1.78737
1.87043
1.97079
2.09002
2.22227
2.36759
2.5198
2.67877
2.86205
3.07811
3.29045
3.49341
3.70206
3.9336
4.20183
4.54475
5.05511
5.91652
7.57352
11.2404
20.4899
46.2783
128.26
469.8
2542.81
1.60314
1.61292
1.62598
1.64064
1.65706
1.67484
1.69403
1.71456
1.7365
1.75992
1.78492
1.81163
1.84018
1.87072
1.59557
1.59313
1.59524
1.60177
1.61509
1.63913
1.67481
1.72513
1.7919
1.87876
1.98514
2.11396
2.25923
2.41984
2.58681
2.76128
2.96092
3.19497
3.41923
3.62641
3.81004
3.99079
4.19203
4.4319
4.7423
5.21625
6.04066
7.65376
11.2471
20.3522
45.9041
128.089
474.756
2589.9
1.59555
1.60337
1.61372
1.62677
1.64154
1.65794
1.67573
1.69486
1.71535
1.73722
1.76056
1.78546
1.81204
1.84044
1.87081
1.59302
1.59515
1.60173
1.61518
1.63952
1.67583
1.72728
1.79617
1.88659
1.99882
2.13711
2.29586
2.47587
2.66334
2.85819
3.08098
3.34279
3.59076
3.8135
4.00448
4.15763
4.30077
4.46408
4.66859
4.94537
5.38031
6.16704
7.73666
11.2609
20.2338
45.5724
127.969
479.481
2634.43
1.59292
1.59581
1.60393
1.61453
1.6276
1.64247
1.65884
1.67664
1.69573
1.71617
1.73796
1.76122
1.78601
1.81245
1.84069
1.8709
1.59505
1.6017
1.61528
1.63989
1.6768
1.72929
1.80018
1.89392
2.01181
2.15925
2.33148
2.53218
2.74605
2.96959
3.22237
3.52197
3.80542
4.05663
4.26477
4.42594
4.53535
4.63008
4.74798
4.91063
5.15298
5.54764
6.29469
7.82128
11.2819
20.1321
45.2786
127.877
484.013
2676.49
1.595
1.59285
1.59633
1.60449
1.61539
1.62847
1.64343
1.65978
1.67758
1.69662
1.71701
1.73873
1.76189
1.78655
1.81285
1.84093
1.87098
1.60166
1.61538
1.64026
1.6777
1.73117
1.80392
1.90077
2.02409
2.18027
2.36588
2.58775
2.82983
3.09167
3.38736
3.73633
4.06881
4.36298
4.60221
4.77841
4.89236
4.94231
4.97681
5.04153
5.15622
5.35996
5.7161
6.42262
7.90687
11.3075
20.0449
45.0183
127.823
488.314
2716.14
1.60167
1.59479
1.5927
1.59688
1.6051
1.61629
1.62939
1.64442
1.66076
1.67855
1.69754
1.71788
1.73951
1.76256
1.78708
1.81324
1.84117
1.87106
1.61545
1.64059
1.67855
1.73292
1.8074
1.90715
2.03564
2.2001
2.39897
2.64201
2.91299
3.21788
3.57257
3.99315
4.39229
4.74878
5.03697
5.24187
5.36171
5.40594
5.37775
5.3391
5.34262
5.40495
5.56562
5.88401
6.54982
7.9927
11.3369
19.9706
44.7879
127.789
492.426
2753.48
1.61559
1.60122
1.5943
1.5925
1.59749
1.60576
1.61721
1.63034
1.64544
1.66177
1.67954
1.69849
1.71876
1.74029
1.76321
1.78759
1.81361
1.8414
1.87114
1.64086
1.67931
1.73454
1.81062
1.91308
2.04645
2.21874
2.43064
2.69446
2.99492
3.34658
3.7689
4.29021
4.79449
5.24283
5.60722
5.86025
5.99512
6.02385
5.96938
5.84103
5.71517
5.64938
5.65501
5.76919
6.05021
6.67554
8.07809
11.3691
19.9072
44.5839
127.788
496.314
2788.6
1.64122
1.61474
1.60005
1.59374
1.59241
1.59815
1.60649
1.61817
1.63135
1.64648
1.66281
1.68055
1.69946
1.71963
1.74105
1.76384
1.78809
1.81398
1.84162
1.87122
1.67996
1.736
1.81359
1.91857
2.05652
2.2362
2.4608
2.74475
3.07531
3.47694
3.97247
4.6145
5.28271
5.89208
6.37737
6.71033
6.87417
6.88383
6.77416
6.58514
6.33137
6.10327
5.96006
5.90487
5.96986
6.21354
6.79887
8.16242
11.4034
19.8536
44.4029
127.801
500.021
2817.31
1.68069
1.63975
1.6124
1.59876
1.5933
1.59242
1.59882
1.6073
1.61914
1.6324
1.64755
1.6639
1.68159
1.70043
1.72048
1.74178
1.76445
1.78858
1.81433
1.84184
1.87129
1.73728
1.81626
1.92363
2.06585
2.2525
2.48935
2.79265
3.15396
3.60756
4.18041
4.96317
5.84811
6.73041
7.4446
7.91084
8.12993
8.11793
7.92639
7.61936
7.25424
6.8475
6.50158
6.27304
6.15318
6.16692
6.37361
6.91971
8.24545
11.4392
19.8082
44.2428
127.821
503.058
2841.59
1.73863
1.67848
1.63562
1.60992
1.59765
1.59296
1.59255
1.5995
1.60818
1.62014
1.63351
1.64866
1.66501
1.68263
1.70137
1.72131
1.7425
1.76505
1.78905
1.81468
1.84205
1.87137
1.81864
1.92823
2.07446
2.26768
2.51623
2.83808
3.23057
3.73682
4.39077
5.33761
6.49467
7.75077
8.8742
9.62128
9.94587
9.9208
9.6168
9.13205
8.56115
7.9754
7.38733
6.90817
6.58677
6.39878
6.35964
6.52895
7.03791
8.32667
11.4759
19.7701
44.1003
127.847
505.65
2867.99
1.82102
1.73544
1.6719
1.63122
1.60773
1.59665
1.59268
1.59288
1.60017
1.60915
1.62117
1.63466
1.64979
1.66612
1.68364
1.70228
1.72212
1.7432
1.76563
1.78951
1.81501
1.84225
1.87144
1.93238
2.08233
2.28177
2.54142
2.88104
3.30479
3.86326
4.60309
5.73962
7.22469
8.94974
10.6373
11.9313
12.5504
12.5466
12.1084
11.3765
10.4986
9.59528
8.74465
7.9479
7.32093
6.89979
6.64067
6.54775
6.67863
7.15273
8.40596
11.5131
19.7381
43.99
127.881
508.475
2896.72
1.93638
1.81662
1.72536
1.66498
1.62721
1.60569
1.59571
1.59234
1.5934
1.60085
1.61018
1.62224
1.63584
1.65092
1.6672
1.68462
1.70317
1.72291
1.74387
1.76619
1.78996
1.81534
1.84245
1.87147
2.08949
2.29476
2.56493
2.92156
3.37625
3.98593
4.81788
6.16927
8.03303
10.3141
12.7066
14.7716
16.0608
16.309
15.7375
14.6901
13.3848
12.0134
10.7121
9.55564
8.52538
7.73756
7.21069
6.87799
6.73094
6.82262
7.26391
8.4828
11.5504
19.7149
43.8999
127.92
511.585
2927.99
2.09617
1.93042
1.80157
1.71489
1.65863
1.62342
1.60377
1.59486
1.59199
1.59404
1.60156
1.61127
1.62335
1.63703
1.65203
1.66825
1.68558
1.70404
1.72367
1.74453
1.76674
1.79039
1.81565
1.84255
1.87147
2.30673
2.58674
2.95971
3.44463
4.10442
5.03597
6.6243
8.90892
11.8205
15.0462
18.0875
20.3634
21.3732
20.9332
19.5121
17.6427
15.617
13.6567
11.8981
10.4002
9.11532
8.15569
7.51817
7.11002
6.90868
6.96099
7.37088
8.55729
11.5828
19.6968
43.8069
127.979
514.986
2962.06
2.31763
2.08837
1.90829
1.78614
1.70524
1.65259
1.61983
1.60199
1.59408
1.5917
1.59478
1.60233
1.61241
1.62447
1.63818
1.65312
1.66928
1.68652
1.70488
1.72442
1.74517
1.76728
1.79081
1.81581
1.84255
1.87147
2.607
2.99549
3.5097
4.21879
5.25798
7.10055
9.83877
13.4413
17.6108
21.8176
25.3742
27.5805
27.9382
26.4259
23.8412
20.9292
18.0406
15.405
13.1385
11.2697
9.71308
8.57295
7.821
7.3361
7.08063
7.09358
7.47392
8.61972
11.6111
19.6794
43.7098
128.048
518.733
2999.18
2.62502
2.30741
2.05611
1.88589
1.77187
1.69601
1.64679
1.61643
1.60035
1.59338
1.59152
1.59557
1.60317
1.61354
1.62559
1.63931
1.65419
1.67027
1.68743
1.7057
1.72514
1.74579
1.7678
1.79102
1.81581
1.84255
1.87147
3.02909
3.57137
4.32939
5.48398
7.59255
10.8083
15.1485
20.352
25.8876
30.9977
34.81
36.5447
35.7827
32.7588
28.6772
24.5036
20.6196
17.2331
14.4171
12.155
10.3143
8.98716
8.11804
7.55577
7.24645
7.2208
7.55957
8.67342
11.6432
19.6625
43.6115
128.144
522.846
3039.65
3.0586
2.61182
2.26048
2.02394
1.86515
1.75818
1.68712
1.64125
1.61324
1.59883
1.59279
1.59145
1.59641
1.60408
1.61465
1.6267
1.6404
1.65523
1.67124
1.68833
1.7065
1.72585
1.7464
1.76805
1.79102
1.81581
1.84255
1.87147
3.62993
4.43677
5.71345
8.09401
11.8032
16.9149
23.2219
30.2178
37.1146
42.9154
46.5833
47.3214
44.8882
39.8751
33.9585
28.3149
23.3169
19.1162
15.7186
13.0473
10.9144
9.39641
8.40844
7.76856
7.40615
7.32624
7.63304
8.73295
11.6795
19.6475
43.5093
128.258
527.381
3083.8
3.6809
3.04117
2.54343
2.21443
1.99412
1.84523
1.74496
1.67857
1.63597
1.61025
1.59744
1.59232
1.59151
1.59724
1.60502
1.61572
1.6278
1.64147
1.65626
1.67218
1.68919
1.70728
1.72653
1.7467
1.76805
1.79102
1.81581
1.84255
1.87147
4.54157
5.94338
8.59843
12.8099
18.7147
26.1745
34.7288
43.5954
51.7081
57.8335
60.8099
59.9118
55.1903
47.6924
39.6134
32.3099
26.0963
21.0314
17.0293
13.9387
11.5094
9.79888
8.69165
7.97433
7.53962
7.41669
7.71417
8.79903
11.7209
19.6336
43.4085
128.407
532.386
3131.96
4.63396
3.65831
2.93993
2.47748
2.17173
1.96544
1.82596
1.7322
1.67035
1.63094
1.60746
1.59619
1.59197
1.59174
1.59802
1.60601
1.61677
1.62889
1.64251
1.65726
1.6731
1.69004
1.70803
1.72687
1.7467
1.76805
1.79102
1.81581
1.84255
1.87143
6.17138
9.10146
13.8158
20.5238
29.1663
39.3447
50.3107
60.9815
70.0045
75.9255
77.5207
74.2487
66.5812
56.1086
45.5639
36.4353
28.924
22.9579
18.3367
14.8223
12.0958
10.1931
8.9674
8.14807
7.65432
7.51651
7.80387
8.87254
11.7679
19.6235
43.3048
128.589
537.908
3184.55
4.60387
6.37311
3.50323
2.84469
2.41632
2.13068
1.93769
1.80732
1.7199
1.66248
1.62615
1.60492
1.59508
1.59172
1.59222
1.59876
1.60701
1.61779
1.62996
1.64352
1.65823
1.674
1.69086
1.7084
1.72688
1.74669
1.76805
1.79102
1.81581
1.84245
1.87136
9.59882
14.8102
22.3203
32.1573
43.9955
57.1399
70.5313
82.776
92.2343
97.2605
96.6547
90.1985
78.9167
65.0069
51.7294
40.6404
31.7696
24.8777
19.6304
15.6923
12.671
10.5783
9.20119
8.29763
7.78111
7.62685
7.90322
8.95442
11.8217
19.6156
43.2068
128.816
544.036
3241.95
4.34869
6.34434
10.0383
3.36252
2.75645
2.35753
2.09095
1.91083
1.78932
1.70807
1.65495
1.6216
1.60263
1.59412
1.59139
1.59285
1.59949
1.60803
1.61879
1.63101
1.64451
1.65919
1.67487
1.69127
1.7084
1.72688
1.74669
1.76805
1.79102
1.81565
1.84225
1.87129
15.7832
24.0856
35.1125
48.619
63.9756
80.1725
95.836
109.257
118.508
121.794
118.058
107.569
92.0248
74.2629
58.0312
44.8786
34.6059
26.7754
20.9019
16.5444
13.2333
10.9054
9.40272
8.46325
7.92173
7.74905
8.01343
9.04584
11.8831
19.6158
43.1078
129.099
550.808
3304.65
4.12522
5.89447
10.0291
16.6441
3.23342
2.67172
2.30072
2.05251
1.88489
1.77199
1.69674
1.64779
1.61734
1.6006
1.59333
1.59113
1.59355
1.60023
1.60904
1.61978
1.63204
1.64548
1.66012
1.6753
1.69127
1.7084
1.72688
1.7467
1.76805
1.79081
1.81533
1.84204
1.87122
25.8038
38.0031
53.1628
70.7267
89.7476
108.91
126.529
140.567
148.805
149.365
141.493
126.119
105.716
83.7517
64.395
49.1074
37.4095
28.6386
22.1448
17.3757
13.7099
11.1873
9.62624
8.64708
8.07796
7.88464
8.13591
9.14807
11.9537
19.6195
43.0213
129.44
558.368
3373.06
3.92425
5.50257
9.2105
16.6994
27.3331
3.11018
2.58999
2.24583
2.01541
1.85991
1.75536
1.68591
1.64105
1.61353
1.59889
1.59266
1.59098
1.59428
1.60098
1.61003
1.62075
1.63304
1.64643
1.66058
1.67529
1.69127
1.7084
1.72688
1.7467
1.76779
1.79039
1.815
1.84183
1.87114
40.8053
57.5863
77.3203
99.1303
121.775
143.656
162.772
176.716
182.976
179.702
166.645
145.575
119.793
93.3531
70.7528
53.2899
40.1614
30.4574
23.3546
18.0779
14.1203
11.5001
9.87469
8.85153
8.25182
8.0354
8.27235
9.26276
12.0348
19.6298
42.9361
129.875
566.745
3447.8
3.73598
5.15077
8.48048
15.3294
27.5539
43.3083
2.99182
2.51119
2.19292
1.97968
1.83592
1.73946
1.6757
1.63492
1.6102
1.59742
1.59213
1.59094
1.59502
1.60176
1.61101
1.62172
1.63404
1.64689
1.66057
1.67529
1.69127
1.7084
1.72688
1.74639
1.76727
1.78995
1.81467
1.84161
1.87106
61.857
83.7042
108.226
134.264
160.33
184.56
204.59
217.576
220.737
212.428
193.143
165.645
134.066
102.956
77.0442
57.3952
42.8461
32.2247
24.3732
18.6814
14.5751
11.8479
10.1513
9.07936
8.44569
8.20341
8.42456
9.39143
12.1284
19.6511
42.8751
130.393
576.156
3529.24
3.55821
4.82398
7.81683
14.0611
25.4577
43.8387
65.6755
2.87814
2.4354
2.14207
1.94542
1.81299
1.72444
1.66638
1.62949
1.6073
1.59617
1.59174
1.59101
1.59576
1.60256
1.61197
1.62269
1.63453
1.64687
1.66058
1.67529
1.69127
1.7084
1.72653
1.74578
1.76673
1.7895
1.81432
1.84139
1.87098
89.8378
116.974
146.262
176.337
205.516
231.643
251.884
262.887
261.682
247.081
220.58
186.036
148.354
112.46
83.2186
61.3984
45.4517
33.7096
25.2476
19.3492
15.08
12.235
10.4599
9.33379
8.66232
8.39108
8.59505
9.5373
12.2366
19.6865
42.8181
131.051
586.621
3618.06
3.39021
4.51858
7.19698
12.8715
23.4821
40.8417
66.6943
95.313
2.76912
2.36277
2.09337
1.91269
1.79132
1.71068
1.65803
1.62466
1.60476
1.59511
1.59148
1.5912
1.59646
1.60338
1.61294
1.62315
1.63451
1.64687
1.66058
1.67529
1.69127
1.70803
1.72584
1.74515
1.76618
1.78904
1.81396
1.84116
1.8709
125.33
157.708
191.55
225.373
257.314
284.823
304.442
312.255
305.287
283.134
248.539
206.471
162.493
121.781
89.2346
65.2796
47.6374
34.9835
26.2145
20.0894
15.6411
12.6665
10.8046
9.6187
8.90489
8.60117
8.78476
9.70275
12.3625
19.7366
42.8022
131.842
598.455
3732.54
3.23159
4.23402
6.61496
11.7397
21.5908
37.9891
62.6337
97.0097
132.756
2.66485
2.29346
2.04693
1.88179
1.77146
1.69834
1.65057
1.62037
1.60255
1.59422
1.5913
1.59155
1.59715
1.60427
1.6134
1.62311
1.63451
1.64687
1.66058
1.6753
1.69086
1.70726
1.72512
1.74451
1.76561
1.78856
1.8136
1.84092
1.87081
168.564
205.919
243.996
281.27
315.63
343.943
361.941
365.161
350.932
320.028
276.609
226.694
176.346
130.851
95.0587
68.5303
49.5125
36.3922
27.2852
20.9105
16.2653
13.148
11.1903
9.93824
9.17703
8.83748
8.99679
9.89062
12.5091
19.8086
42.8134
132.847
614.141
3871.38
3.08194
3.9704
6.07108
10.6597
19.7542
35.2198
58.7621
91.7329
135.294
178.136
2.56555
2.22762
2.00317
1.8535
1.75362
1.68727
1.6439
1.61655
1.60069
1.59348
1.5911
1.59202
1.59792
1.60467
1.61334
1.62311
1.63451
1.64687
1.66058
1.67487
1.69003
1.70648
1.72439
1.74385
1.76503
1.78808
1.81323
1.84068
1.87072
219.427
261.372
303.383
343.884
380.347
408.791
423.946
420.961
397.933
357.198
304.411
246.489
189.8
139.613
99.9272
71.3185
51.5864
37.9519
28.4721
21.8225
16.9605
13.686
11.6225
10.2971
9.48298
9.10379
9.23464
10.1043
12.6809
19.9048
42.8543
134.277
634.394
4013.94
2.94054
3.72831
5.56706
9.63548
17.9623
32.4922
54.9734
86.7341
128.643
181.61
231.194
2.47149
2.1658
1.96317
1.82812
1.73761
1.67734
1.63793
1.61314
1.59909
1.59285
1.59094
1.59269
1.59822
1.6046
1.61334
1.62311
1.63451
1.64689
1.66011
1.67398
1.68917
1.70568
1.72365
1.74317
1.76443
1.78758
1.81284
1.84043
1.87063
277.53
323.704
369.469
413.099
451.378
479.114
489.917
478.914
445.565
394.104
331.617
265.676
202.764
146.919
104.1
74.4025
53.8829
39.6806
29.789
22.836
17.7351
14.2874
12.1071
10.7007
9.82756
9.40441
9.50265
10.3479
12.8816
20.0353
42.9642
136.395
656.305
4159.52
2.80685
3.51012
5.10388
8.67644
16.2166
29.7878
51.2093
81.8339
122.436
173.39
235.586
291.359
2.38357
2.10949
1.92737
1.80535
1.72324
1.66843
1.63259
1.61014
1.59772
1.59236
1.59105
1.59297
1.59806
1.60462
1.61335
1.62311
1.63453
1.64643
1.65917
1.67308
1.6883
1.70486
1.72288
1.74248
1.76382
1.78707
1.81245
1.84018
1.87054
342.343
392.546
442.118
488.987
528.768
554.644
559.202
538.189
493.109
430.272
357.957
284.114
213.537
153.172
108.714
77.8166
56.428
41.5981
31.2513
23.9632
18.5987
14.9601
12.6511
11.1549
10.2162
9.74446
9.80551
10.6263
13.119
20.2337
43.2263
138.901
680.447
4306.96
2.68187
3.31164
4.68113
7.78514
14.5248
27.1039
47.4349
76.951
116.382
165.898
225.526
296.503
357.901
2.30394
2.05922
1.89531
1.78493
1.71034
1.66046
1.62784
1.6075
1.59658
1.59222
1.59096
1.59283
1.59806
1.60462
1.61335
1.62315
1.63404
1.64547
1.65821
1.67216
1.68741
1.70401
1.72209
1.74176
1.76319
1.78654
1.81204
1.83992
1.87045
413.356
467.697
521.495
571.919
612.725
635.082
631.028
597.916
539.912
465.306
383.215
299.384
222.741
160.076
113.816
81.5987
59.2507
43.7267
32.876
25.2172
19.5617
15.7126
13.2621
11.6665
10.6551
10.1293
10.1494
10.9455
13.4484
20.5447
43.609
141.973
706.654
4455.24
2.56862
3.13106
4.3005
6.96335
12.9046
24.4497
43.636
72.0252
110.371
158.68
216.642
284.206
363.459
430.119
2.23329
2.01435
1.86662
1.76661
1.69877
1.65332
1.6236
1.60522
1.59596
1.59197
1.59064
1.59287
1.59806
1.60461
1.61341
1.62269
1.63304
1.64449
1.65723
1.67121
1.68649
1.70315
1.72129
1.74103
1.76255
1.786
1.81163
1.83966
1.87036
490.257
549.315
608.172
662.579
703.555
720.011
704.509
657.262
585.416
498.89
404.077
312.403
232.88
167.697
119.46
85.7897
62.3826
46.0907
34.6818
26.6126
20.6354
16.554
13.9479
12.2424
11.1506
10.5659
10.5402
11.3785
13.8995
20.9384
44.1695
145.589
735.515
4602.96
2.46823
2.97012
3.96362
6.21707
11.3747
21.843
39.8139
67.0213
104.309
151.596
208.253
273.757
348.34
435.601
507.565
2.17059
1.97428
1.84093
1.75019
1.68841
1.64691
1.61987
1.60373
1.5954
1.59158
1.59067
1.59288
1.59807
1.60469
1.61295
1.62171
1.63202
1.6435
1.65623
1.67024
1.68555
1.70226
1.72047
1.74028
1.76189
1.78546
1.81122
1.83942
1.87027
573.176
638.152
703.365
762.097
801.565
808.841
778.728
715.501
629.176
526.602
421.828
326.705
244.04
176.106
125.704
90.4343
65.8584
48.7167
36.6892
28.165
21.8318
17.4943
14.717
12.8902
11.7103
11.0598
11.067
11.948
14.4205
21.4395
44.9139
149.939
766.98
4748.72
2.3795
2.82778
3.6761
5.55525
9.95424
19.3075
35.9811
61.9211
98.1278
144.504
200.184
264.156
336.053
416.797
512.386
590.331
2.1149
1.93851
1.81795
1.73548
1.67909
1.64124
1.61721
1.60264
1.59488
1.59162
1.59067
1.59284
1.59823
1.60428
1.61197
1.62074
1.63099
1.64248
1.65521
1.66925
1.6846
1.70135
1.71962
1.73951
1.76122
1.78491
1.81082
1.83918
1.87019
663.029
735.943
809.267
872.071
907.09
900.894
852.906
772.042
665.39
550.168
441.287
342.398
256.312
185.379
132.606
95.5801
69.7152
51.6331
38.9199
29.8913
23.1638
18.544
15.578
13.6182
12.3402
11.7223
11.7499
12.5821
15.0237
22.0602
45.9164
155.08
801.609
4891.09
2.30122
2.70094
3.4394
4.99132
8.67449
16.8704
32.1604
56.7193
91.779
137.3
192.239
255.189
325.133
402.274
488.632
593.871
679.482
2.06538
1.9066
1.79739
1.72225
1.6708
1.63703
1.61544
1.60189
1.59496
1.59163
1.59066
1.59298
1.59793
1.60339
1.611
1.61977
1.62994
1.64144
1.65416
1.66823
1.68362
1.70042
1.71876
1.73873
1.76055
1.78439
1.81043
1.83894
1.8701
761.994
845.965
929.279
994.834
1020.37
995.954
926.425
819.298
696.249
575.982
462.582
359.59
269.786
195.59
140.229
101.277
73.9922
54.8707
41.3973
31.809
24.6448
19.7138
16.54
14.4324
13.1799
12.5691
12.4976
13.2852
15.7181
22.8323
47.2143
161.206
839.614
5028.44
2.23219
2.588
3.24035
4.5222
7.56577
14.5759
28.3846
51.4236
85.2228
129.892
184.269
246.594
315.317
389.836
471.347
563.359
681.31
777.793
2.02135
1.87813
1.77893
1.71049
1.66448
1.63434
1.61446
1.60201
1.59496
1.59159
1.59099
1.59271
1.59717
1.60256
1.61002
1.61878
1.62887
1.64038
1.6531
1.66718
1.68262
1.69946
1.71788
1.73795
1.7599
1.78388
1.81006
1.83872
1.87002
874.375
973.86
1069.1
1132.56
1143.87
1093.99
989.208
859.855
730.147
604.217
485.843
378.383
284.549
206.815
148.636
107.577
78.7305
58.461
44.1457
33.9364
26.2883
21.0142
17.6099
15.5105
14.2401
13.4807
13.3097
14.054
16.513
23.7736
48.9023
168.529
881.44
5159.64
2.1713
2.48782
3.06956
4.13518
6.63307
12.5171
24.7216
46.0566
78.4311
122.191
176.135
238.178
306.261
379.156
457.094
542.698
641.364
778.172
891.07
1.9822
1.85266
1.7625
1.70135
1.66053
1.63307
1.61463
1.60202
1.5949
1.592
1.59109
1.59205
1.59647
1.60177
1.60903
1.61777
1.62778
1.63929
1.65202
1.66611
1.6816
1.69849
1.717
1.73721
1.75928
1.78339
1.80969
1.8385
1.86994
1008.22
1130.06
1234.37
1296.75
1280.26
1180.79
1043.89
904.798
767.367
635.053
511.19
398.871
300.684
219.125
157.889
114.53
83.9709
62.4361
47.1894
36.2919
28.1084
22.454
19.018
16.8567
15.3661
14.4516
14.1838
14.8933
17.4129
24.918
51.0654
177.277
927.966
5283.26
2.11752
2.3994
2.92042
3.817
5.85859
10.7379
21.3156
40.6968
71.3923
114.111
167.688
229.751
297.728
369.78
445.457
526.248
616.688
724.704
891.908
1031.75
1.94729
1.83003
1.74953
1.69578
1.65887
1.63331
1.61464
1.60192
1.59544
1.59227
1.59099
1.59158
1.59577
1.601
1.60802
1.61676
1.62669
1.63817
1.65092
1.66502
1.68056
1.69753
1.71616
1.73648
1.75866
1.78291
1.80933
1.83828
1.86987
1179.26
1328.07
1461.46
1498.75
1406.67
1258.04
1105.56
954.706
808.249
668.685
538.745
421.141
318.259
232.583
168.042
122.185
89.7533
66.8276
50.5526
38.8934
30.117
24.3398
20.7604
18.2708
16.5483
15.4745
15.1142
15.8038
18.4279
26.2929
53.8114
187.838
979.392
5398.76
2.06986
2.32172
2.78843
3.55809
5.22208
9.22938
18.2586
35.5464
64.1667
105.578
158.772
221.105
289.477
361.421
435.834
513.48
597.611
695.283
819.075
1040.06
1224
1.91631
1.812
1.74172
1.69366
1.6592
1.63332
1.61449
1.60268
1.59602
1.59242
1.59116
1.59125
1.59504
1.60025
1.60701
1.61572
1.62559
1.63703
1.6498
1.66391
1.67953
1.69661
1.71534
1.73578
1.75807
1.78245
1.80899
1.83808
1.86979
1423.24
1656.25
1778.91
1692.6
1521.59
1347.22
1175.59
1010.43
853.246
705.353
568.634
445.265
337.33
247.239
179.145
130.585
96.1138
71.6645
54.2577
41.7566
32.7392
26.6581
22.5758
19.74
17.7758
16.541
16.0947
16.7866
19.5664
27.9319
57.2721
200.526
1036.89
5505.41
2.02775
2.25347
2.67106
3.34533
4.70166
7.96906
15.5571
30.7626
56.9975
96.5932
149.223
212.01
281.253
353.788
427.87
503.609
583.451
673.16
783.604
937.663
1270.02
1539.95
1.89133
1.80135
1.73902
1.69412
1.65921
1.6331
1.61549
1.60381
1.59667
1.59293
1.59137
1.59107
1.59431
1.59952
1.60602
1.61466
1.62449
1.63586
1.64867
1.66281
1.67853
1.69571
1.71454
1.7351
1.75749
1.782
1.80865
1.83788
1.86972
1893.53
2142.56
2079.83
1870.05
1657.92
1451.69
1256.47
1073.29
903.038
745.381
600.999
471.308
357.934
263.128
191.232
139.762
103.082
76.9716
58.3225
45.4843
35.9474
29.0596
24.448
21.2504
19.0373
17.6423
17.1206
17.8425
20.8391
29.8792
61.5363
216.028
1100.53
5603.68
1.99357
2.19384
2.56668
3.16616
4.27906
6.92598
13.213
26.3887
50.1044
87.3951
138.942
202.203
272.762
346.592
421.223
496.167
573.26
657.229
758.108
893.879
1114.21
1731.43
2223.7
1.87669
1.79801
1.73962
1.69413
1.65891
1.6344
1.61732
1.60534
1.59784
1.59358
1.59156
1.59102
1.59358
1.5988
1.60505
1.61356
1.62338
1.63468
1.64756
1.66176
1.67757
1.69484
1.71376
1.73444
1.75693
1.78156
1.80833
1.83768
1.86968
2598.15
2636.45
2374.62
2098.32