/*--------------------------------*- C++ -*----------------------------------*\
  =========                 |
  \\      /  F ield         | OpenFOAM: The Open Source CFD Toolbox
   \\    /   O peration     | Website:  https://openfoam.org
    \\  /    A nd           | Version:  8
     \\/     M anipulation  |
\*---------------------------------------------------------------------------*/
FoamFile
{
    version     2.0;
    format      ascii;
    class       volVectorField;
    location    "700";
    object      U;
}
// * * * * * * * * * * * * * * * * * * * * * * * * * * * * * * * * * * * * * //

dimensions      [0 1 -1 0 0 0 0];

internalField   nonuniform List<vector> 
15677
(
(-2.53854 9.06392 0)
(0.792668 10.3668 0)
(-1.33223 8.26477 0)
(0.128822 10.0152 0)
(0.667035 10.1117 0)
(-0.415133 7.73384 0)
(0.00638138 10.0051 0)
(-0.0361256 10.0874 0)
(0.294848 9.67997 0)
(-0.0847314 7.35003 0)
(0.0282794 10.0104 0)
(0.0130715 10.0516 0)
(-0.0470465 10.0467 0)
(0.0986672 9.29123 0)
(-0.00293497 7.07892 0)
(0.0300783 10.0104 0)
(0.0455398 10.0449 0)
(0.0452367 10.0706 0)
(-0.00450779 9.94004 0)
(0.0303695 8.97529 0)
(0.00795861 6.89056 0)
(0.027517 10.0096 0)
(0.0398458 10.0407 0)
(0.0439975 10.0629 0)
(0.0508468 10.0623 0)
(0.0200024 9.80205 0)
(0.0126081 8.71931 0)
(0.00557383 6.75826 0)
(0.0251607 10.0086 0)
(0.0369723 10.0374 0)
(0.0376874 10.0571 0)
(0.0384169 10.0711 0)
(0.0421543 10.0339 0)
(0.0253301 9.65263 0)
(0.00875066 8.51497 0)
(0.00296908 6.66221 0)
(0.0229604 10.0075 0)
(0.0352812 10.0344 0)
(0.0368908 10.053 0)
(0.0372062 10.068 0)
(0.0346893 10.0731 0)
(0.0339353 9.99181 0)
(0.0229217 9.50725 0)
(0.00730451 8.35671 0)
(0.00158284 6.59396 0)
(0.0206821 10.0065 0)
(0.0333892 10.0313 0)
(0.0358353 10.0495 0)
(0.0369265 10.0642 0)
(0.0357546 10.077 0)
(0.0323395 10.0686 0)
(0.0285976 9.94093 0)
(0.0188541 9.37392 0)
(0.00592496 8.23627 0)
(0.000848897 6.54487 0)
(0.0183401 10.0054 0)
(0.0312521 10.0282 0)
(0.0343669 10.0461 0)
(0.0357276 10.0606 0)
(0.0350355 10.0748 0)
(0.0332103 10.0831 0)
(0.02992 10.0593 0)
(0.0246863 9.88656 0)
(0.0149655 9.25687 0)
(0.00443295 8.14655 0)
(0.000258732 6.5146 0)
(0.0159954 10.0044 0)
(0.0289434 10.025 0)
(0.0327002 10.0427 0)
(0.0343265 10.0572 0)
(0.0338 10.0716 0)
(0.0322576 10.0842 0)
(0.0302083 10.0874 0)
(0.0269712 10.0478 0)
(0.021102 9.83204 0)
(0.0114748 9.16074 0)
(0.00283723 8.08204 0)
(-0.000271295 6.50173 0)
(0.0137012 10.0036 0)
(0.0264846 10.0217 0)
(0.0308316 10.0392 0)
(0.0327729 10.0537 0)
(0.0324371 10.0682 0)
(0.0310458 10.0821 0)
(0.0292452 10.0932 0)
(0.02691 10.0914 0)
(0.0235223 10.0362 0)
(0.0173647 9.78108 0)
(0.00816292 9.08559 0)
(0.00120935 8.03903 0)
(-0.000730569 6.50293 0)
(0.0115202 10.0028 0)
(0.0239043 10.0184 0)
(0.0287309 10.0354 0)
(0.0310008 10.0502 0)
(0.0308735 10.0647 0)
(0.0295967 10.079 0)
(0.0279269 10.0928 0)
(0.0258775 10.1029 0)
(0.0232465 10.0964 0)
(0.0196108 10.0261 0)
(0.0133296 9.73654 0)
(0.00491305 9.03085 0)
(-0.000402932 8.01698 0)
(-0.00120738 6.51636 0)
(0.00966647 10.0022 0)
(0.0212393 10.0153 0)
(0.0263977 10.0314 0)
(0.028974 10.0464 0)
(0.0290734 10.0611 0)
(0.0278841 10.0756 0)
(0.0262373 10.0904 0)
(0.0242856 10.1049 0)
(0.0219611 10.1144 0)
(0.0190664 10.1036 0)
(0.0152069 10.0193 0)
(0.00898061 9.70144 0)
(0.0016099 8.99611 0)
(-0.00209896 8.01452 0)
(-0.00177287 6.54278 0)
(0.00817597 10.0017 0)
(0.0187717 10.0128 0)
(0.0238603 10.0274 0)
(0.0266704 10.0422 0)
(0.0270135 10.0572 0)
(0.0259062 10.072 0)
(0.0242216 10.0872 0)
(0.0222132 10.1034 0)
(0.0199367 10.1191 0)
(0.0173242 10.1286 0)
(0.0142079 10.1142 0)
(0.0102424 10.0174 0)
(0.00427973 9.6778 0)
(-0.00187329 8.981 0)
(-0.00397986 8.03051 0)
(-0.00242665 6.58259 0)
(0.00694557 10.0014 0)
(0.0166134 10.0107 0)
(0.0214081 10.0238 0)
(0.0240898 10.0378 0)
(0.0246666 10.0529 0)
(0.0236439 10.068 0)
(0.0218892 10.0836 0)
(0.0197342 10.1005 0)
(0.017325 10.1187 0)
(0.014698 10.1362 0)
(0.0118051 10.1464 0)
(0.00855848 10.1295 0)
(0.00463175 10.0221 0)
(-0.00085146 9.66757 0)
(-0.00562257 8.98497 0)
(-0.00608052 8.06353 0)
(-0.00316196 6.63612 0)
(0.00592154 10.0011 0)
(0.0146804 10.0091 0)
(0.0191897 10.0208 0)
(0.0215297 10.0337 0)
(0.0220139 10.0481 0)
(0.0210704 10.0636 0)
(0.0192236 10.0796 0)
(0.0168607 10.0969 0)
(0.0142013 10.1163 0)
(0.0113621 10.1371 0)
(0.00838188 10.1571 0)
(0.00528264 10.1688 0)
(0.00201428 10.1506 0)
(-0.0017205 10.0349 0)
(-0.00647732 9.67168 0)
(-0.00967703 9.00727 0)
(-0.0084009 8.11337 0)
(-0.0039668 6.70325 0)
(0.00506313 10.0009 0)
(0.0129496 10.0077 0)
(0.0171408 10.0183 0)
(0.0191801 10.0301 0)
(0.019342 10.0435 0)
(0.0181653 10.0586 0)
(0.0162026 10.075 0)
(0.0135817 10.0928 0)
(0.0105797 10.1127 0)
(0.00738366 10.1352 0)
(0.00410265 10.1594 0)
(0.000830787 10.1827 0)
(-0.00237575 10.1969 0)
(-0.00554059 10.1785 0)
(-0.00888556 10.0571 0)
(-0.0126365 9.69115 0)
(-0.0140708 9.04732 0)
(-0.0109156 8.17911 0)
(-0.00483174 6.78365 0)
(0.00433971 10.0007 0)
(0.0114003 10.0066 0)
(0.015255 10.0161 0)
(0.016984 10.0269 0)
(0.01686 10.0394 0)
(0.0152334 10.0536 0)
(0.012811 10.0697 0)
(0.00988167 10.0879 0)
(0.00645413 10.1083 0)
(0.00277737 10.1316 0)
(-0.000974315 10.1579 0)
(-0.00464884 10.1864 0)
(-0.00812048 10.2139 0)
(-0.011311 10.2315 0)
(-0.0141995 10.2144 0)
(-0.0169006 10.0899 0)
(-0.0193444 9.72616 0)
(-0.0188035 9.1045 0)
(-0.0136223 8.26037 0)
(-0.00574604 6.87692 0)
(0.0037284 10.0006 0)
(0.0100139 10.0056 0)
(0.0135246 10.0142 0)
(0.0149442 10.0241 0)
(0.0145208 10.0356 0)
(0.0125043 10.049 0)
(0.00940378 10.0643 0)
(0.00575419 10.0823 0)
(0.00181484 10.1031 0)
(-0.0024616 10.127 0)
(-0.00683918 10.1544 0)
(-0.0111093 10.1854 0)
(-0.0150904 10.2189 0)
(-0.0186367 10.2515 0)
(-0.0216379 10.2736 0)
(-0.0240114 10.2591 0)
(-0.025772 10.1342 0)
(-0.0265924 9.777 0)
(-0.0238737 9.17824 0)
(-0.0165042 8.35638 0)
(-0.0066922 6.98238 0)
(0.0032286 10.0005 0)
(0.00877532 10.0049 0)
(0.0119424 10.0125 0)
(0.0130604 10.0216 0)
(0.0123384 10.0322 0)
(0.00993294 10.0446 0)
(0.0062447 10.0591 0)
(0.00163439 10.0763 0)
(-0.00333321 10.0969 0)
(-0.00833836 10.1212 0)
(-0.0134994 10.1494 0)
(-0.0185514 10.1818 0)
(-0.0232565 10.2183 0)
(-0.0274147 10.2578 0)
(-0.0308529 10.2963 0)
(-0.0334205 10.3239 0)
(-0.0349851 10.3133 0)
(-0.0354812 10.1907 0)
(-0.0343653 9.84341 0)
(-0.0292631 9.2677 0)
(-0.0195448 8.46647 0)
(-0.00765621 7.0992 0)
(0.00283321 10.0004 0)
(0.00771736 10.0042 0)
(0.0105016 10.0111 0)
(0.0113304 10.0193 0)
(0.010321 10.0291 0)
(0.00754122 10.0405 0)
(0.00328401 10.0541 0)
(-0.00216291 10.0704 0)
(-0.00844029 10.0902 0)
(-0.0148351 10.1143 0)
(-0.0209576 10.143 0)
(-0.0269902 10.1762 0)
(-0.0326374 10.2145 0)
(-0.0376411 10.2575 0)
(-0.0417799 10.3037 0)
(-0.0448501 10.349 0)
(-0.0466765 10.3831 0)
(-0.0471016 10.3777 0)
(-0.0459801 10.2597 0)
(-0.0426234 9.92499 0)
(-0.0349296 9.37207 0)
(-0.0227074 8.58971 0)
(-0.00862737 7.22638 0)
(0.00251873 10.0003 0)
(0.00685445 10.0037 0)
(0.00924956 10.0098 0)
(0.00975154 10.0173 0)
(0.00847319 10.0262 0)
(0.00534414 10.0367 0)
(0.000550228 10.0493 0)
(-0.00569756 10.0646 0)
(-0.0131197 10.0834 0)
(-0.0212495 10.1065 0)
(-0.029182 10.135 0)
(-0.0364279 10.169 0)
(-0.0432596 10.2084 0)
(-0.0493592 10.2534 0)
(-0.0544507 10.3037 0)
(-0.0582888 10.3574 0)
(-0.0606587 10.4103 0)
(-0.0613861 10.4516 0)
(-0.0602993 10.4526 0)
(-0.0571991 10.3413 0)
(-0.0513121 10.021 0)
(-0.0408219 9.49016 0)
(-0.0259513 8.72492 0)
(-0.00959538 7.36281 0)
(0.00226517 10.0003 0)
(0.00615124 10.0034 0)
(0.00821202 10.0088 0)
(0.00838148 10.0155 0)
(0.00679721 10.0235 0)
(0.00335189 10.0331 0)
(-0.00193468 10.0446 0)
(-0.00893339 10.0588 0)
(-0.0174465 10.0765 0)
(-0.0270983 10.0986 0)
(-0.0372756 10.126 0)
(-0.0468188 10.1598 0)
(-0.0551291 10.2001 0)
(-0.062614 10.2465 0)
(-0.0689386 10.2992 0)
(-0.0738127 10.3575 0)
(-0.076988 10.4195 0)
(-0.0782636 10.4806 0)
(-0.0774844 10.5298 0)
(-0.0744917 10.5381 0)
(-0.0690379 10.4352 0)
(-0.0603348 10.1306 0)
(-0.0468952 9.62093 0)
(-0.0292439 8.87087 0)
(-0.0105494 7.50726 0)
(0.00205804 10.0003 0)
(0.00557352 10.003 0)
(0.00735462 10.008 0)
(0.00725236 10.0141 0)
(0.00535819 10.0211 0)
(0.00157111 10.0297 0)
(-0.00415468 10.0402 0)
(-0.0118405 10.0532 0)
(-0.0213754 10.0696 0)
(-0.0324766 10.0904 0)
(-0.0446295 10.1167 0)
(-0.0570227 10.1492 0)
(-0.068186 10.1894 0)
(-0.0774183 10.2369 0)
(-0.085314 10.2913 0)
(-0.0915346 10.3524 0)
(-0.0957933 10.4194 0)
(-0.0978668 10.4903 0)
(-0.0975946 10.5601 0)
(-0.0948647 10.6178 0)
(-0.089555 10.6342 0)
(-0.0813948 10.5409 0)
(-0.0696078 10.2526 0)
(-0.0530755 9.76314 0)
(-0.0325522 9.02625 0)
(-0.0114763 7.65845 0)
(0.00188694 10.0002 0)
(0.0050952 10.0028 0)
(0.0066423 10.0074 0)
(0.00632637 10.0128 0)
(0.00418955 10.0192 0)
(7.23202e-05 10.0267 0)
(-0.00609852 10.036 0)
(-0.014396 10.0477 0)
(-0.024867 10.0627 0)
(-0.0373277 10.0821 0)
(-0.0513651 10.1069 0)
(-0.066273 10.1381 0)
(-0.0809938 10.1769 0)
(-0.0937004 10.2244 0)
(-0.103604 10.2802 0)
(-0.111556 10.3434 0)
(-0.117235 10.4137 0)
(-0.120388 10.49 0)
(-0.120852 10.5701 0)
(-0.118535 10.6491 0)
(-0.113388 10.7155 0)
(-0.105339 10.7404 0)
(-0.0941379 10.6578 0)
(-0.0790505 10.3859 0)
(-0.0592914 9.91533 0)
(-0.0358391 9.1896 0)
(-0.0123673 7.81506 0)
(0.00174425 10.0002 0)
(0.00469632 10.0026 0)
(0.00604735 10.0068 0)
(0.00556404 10.0118 0)
(0.00324782 10.0175 0)
(-0.00111498 10.0241 0)
(-0.00768876 10.0321 0)
(-0.0165829 10.0424 0)
(-0.0278899 10.0559 0)
(-0.0416005 10.0736 0)
(-0.0574107 10.0967 0)
(-0.074724 10.1263 0)
(-0.092591 10.1636 0)
(-0.109668 10.2096 0)
(-0.123725 10.2655 0)
(-0.133925 10.3306 0)
(-0.141457 10.4034 0)
(-0.146051 10.4835 0)
(-0.147531 10.5696 0)
(-0.145819 10.6593 0)
(-0.140917 10.7475 0)
(-0.132868 10.8227 0)
(-0.12168 10.8565 0)
(-0.107125 10.7848 0)
(-0.0885542 10.5292 0)
(-0.0654769 10.076 0)
(-0.0390703 9.35951 0)
(-0.0132087 7.97572 0)
(0.00162427 10.0002 0)
(0.00436146 10.0024 0)
(0.00554782 10.0064 0)
(0.0049339 10.0109 0)
(0.00248786 10.016 0)
(-0.00204366 10.0218 0)
(-0.00890335 10.0287 0)
(-0.0183141 10.0374 0)
(-0.0304199 10.0492 0)
(-0.0452525 10.0651 0)
(-0.0627 10.0862 0)
(-0.0822853 10.1139 0)
(-0.103173 10.1493 0)
(-0.124122 10.1937 0)
(-0.143469 10.2481 0)
(-0.158558 10.3135 0)
(-0.168542 10.3887 0)
(-0.17505 10.4718 0)
(-0.177915 10.5621 0)
(-0.17707 10.6583 0)
(-0.172567 10.7576 0)
(-0.16453 10.855 0)
(-0.153103 10.9389 0)
(-0.138396 10.9815 0)
(-0.120222 10.9209 0)
(-0.0980169 10.681 0)
(-0.07157 10.2438 0)
(-0.0422086 9.53445 0)
(-0.0140086 8.13923 0)
(0.00152265 10.0002 0)
(0.00407858 10.0023 0)
(0.00512629 10.006 0)
(0.00441085 10.0102 0)
(0.00187342 10.0148 0)
(-0.00276717 10.0199 0)
(-0.00981062 10.0257 0)
(-0.019578 10.033 0)
(-0.0323563 10.0429 0)
(-0.0482505 10.0567 0)
(-0.0671771 10.0757 0)
(-0.0888717 10.101 0)
(-0.112626 10.1342 0)
(-0.137309 10.1766 0)
(-0.161354 10.2292 0)
(-0.182757 10.2929 0)
(-0.1984 10.3688 0)
(-0.207498 10.4549 0)
(-0.212259 10.5489 0)
(-0.212659 10.6498 0)
(-0.208791 10.7561 0)
(-0.200858 10.865 0)
(-0.189133 10.9713 0)
(-0.173876 11.0636 0)
(-0.155305 11.1148 0)
(-0.133288 11.065 0)
(-0.107342 10.84 0)
(-0.0775054 10.4171 0)
(-0.0452385 9.71313 0)
(-0.0147214 8.30412 0)
(0.00143603 10.0002 0)
(0.00383823 10.0021 0)
(0.00476885 10.0056 0)
(0.00397483 10.0095 0)
(0.00137551 10.0137 0)
(-0.0033286 10.0182 0)
(-0.0104775 10.0232 0)
(-0.0204651 10.0292 0)
(-0.0337013 10.0373 0)
(-0.0504748 10.0486 0)
(-0.0707965 10.065 0)
(-0.09441 10.0879 0)
(-0.120841 10.1184 0)
(-0.149088 10.1582 0)
(-0.177687 10.2086 0)
(-0.204705 10.2706 0)
(-0.227775 10.3447 0)
(-0.243326 10.4319 0)
(-0.250736 10.5297 0)
(-0.25292 10.6349 0)
(-0.250057 10.7465 0)
(-0.242428 10.8628 0)
(-0.23042 10.981 0)
(-0.214464 11.0958 0)
(-0.194957 11.196 0)
(-0.172224 11.2552 0)
(-0.146191 11.2158 0)
(-0.116437 11.0047 0)
(-0.0832427 10.5945 0)
(-0.0480788 9.89382 0)
(-0.0155674 8.48829 0)
(0.00136178 10.0002 0)
(0.00363294 10.002 0)
(0.00446434 10.0053 0)
(0.00360977 10.009 0)
(0.000971002 10.0128 0)
(-0.00376238 10.0168 0)
(-0.0109577 10.021 0)
(-0.0210615 10.0259 0)
(-0.034575 10.0323 0)
(-0.0519441 10.0414 0)
(-0.073413 10.0548 0)
(-0.0988388 10.0745 0)
(-0.127723 10.1021 0)
(-0.159319 10.1389 0)
(-0.192288 10.1865 0)
(-0.224783 10.246 0)
(-0.254474 10.3185 0)
(-0.278655 10.4041 0)
(-0.293308 10.5034 0)
(-0.298099 10.6132 0)
(-0.296788 10.7299 0)
(-0.289807 10.8522 0)
(-0.277659 10.9782 0)
(-0.260939 11.1052 0)
(-0.240246 11.2278 0)
(-0.216114 11.3352 0)
(-0.188973 11.4019 0)
(-0.158801 11.3719 0)
(-0.12523 11.1737 0)
(-0.0886867 10.7744 0)
(-0.0511598 10.0964 0)
(-0.0163975 8.69049 0)
(0.0012978 10.0001 0)
(0.00345674 10.0019 0)
(0.00420379 10.0051 0)
(0.0033028 10.0085 0)
(0.000641427 10.012 0)
(-0.00409594 10.0155 0)
(-0.0112942 10.019 0)
(-0.0214362 10.023 0)
(-0.0350892 10.028 0)
(-0.0528171 10.0351 0)
(-0.0750643 10.0456 0)
(-0.101979 10.0616 0)
(-0.13319 10.0855 0)
(-0.167881 10.1189 0)
(-0.204986 10.163 0)
(-0.24277 10.2195 0)
(-0.278959 10.2895 0)
(-0.310844 10.3734 0)
(-0.335399 10.4713 0)
(-0.348196 10.5834 0)
(-0.349315 10.7057 0)
(-0.343517 10.8338 0)
(-0.331532 10.9665 0)
(-0.314115 11.1018 0)
(-0.29208 11.2368 0)
(-0.2662 11.3665 0)
(-0.237122 11.4804 0)
(-0.205384 11.5535 0)
(-0.171014 11.5324 0)
(-0.133614 11.3453 0)
(-0.0944379 10.9766 0)
(-0.0543058 10.3196 0)
(-0.0170757 8.88952 0)
(0.00124232 10.0001 0)
(0.00330482 10.0019 0)
(0.00397999 10.0049 0)
(0.00304356 10.0081 0)
(0.000372087 10.0113 0)
(-0.00435101 10.0144 0)
(-0.0115207 10.0173 0)
(-0.0216439 10.0204 0)
(-0.0353333 10.0242 0)
(-0.0532392 10.0294 0)
(-0.0759579 10.0374 0)
(-0.103889 10.05 0)
(-0.137018 10.0693 0)
(-0.174665 10.0983 0)
(-0.215624 10.1386 0)
(-0.25845 10.1913 0)
(-0.300961 10.258 0)
(-0.340459 10.3395 0)
(-0.373864 10.436 0)
(-0.397872 10.547 0)
(-0.407702 10.6723 0)
(-0.404003 10.8071 0)
(-0.392688 10.9464 0)
(-0.374812 11.089 0)
(-0.351409 11.2328 0)
(-0.323508 11.3751 0)
(-0.292046 11.511 0)
(-0.257773 11.6303 0)
(-0.221316 11.7091 0)
(-0.182699 11.6955 0)
(-0.142471 11.5387 0)
(-0.100403 11.1998 0)
(-0.0570888 10.5397 0)
(-0.0176328 9.0834 0)
(0.00119444 10.0001 0)
(0.00317299 10.0018 0)
(0.00378708 10.0047 0)
(0.00282378 10.0078 0)
(0.000151258 10.0108 0)
(-0.00454476 10.0135 0)
(-0.011664 10.0159 0)
(-0.0217274 10.0182 0)
(-0.035378 10.0208 0)
(-0.0533265 10.0245 0)
(-0.0762817 10.0302 0)
(-0.104836 10.0396 0)
(-0.139288 10.0547 0)
(-0.179388 10.0782 0)
(-0.224061 10.1133 0)
(-0.271626 10.1617 0)
(-0.320212 10.2244 0)
(-0.367173 10.3025 0)
(-0.409385 10.3966 0)
(-0.443426 10.5065 0)
(-0.46579 10.6312 0)
(-0.471419 10.77 0)
(-0.461697 10.9172 0)
(-0.443819 11.0673 0)
(-0.419197 11.2191 0)
(-0.38914 11.3706 0)
(-0.354891 11.5193 0)
(-0.317527 11.6604 0)
(-0.277882 11.7841 0)
(-0.236613 11.8674 0)
(-0.195086 11.8795 0)
(-0.151658 11.7527 0)
(-0.105784 11.4204 0)
(-0.0595418 10.7547 0)
(-0.0180905 9.27049 0)
(0.00305835 10.0017 0)
(0.00113612 10.0001 0)
(0.00361963 10.0045 0)
(0.00263689 10.0075 0)
(-3.02984e-05 10.0102 0)
(-0.00469075 10.0126 0)
(-0.0117448 10.0146 0)
(-0.0217205 10.0162 0)
(-0.0352787 10.0179 0)
(-0.0531708 10.0201 0)
(-0.0761861 10.0238 0)
(-0.105062 10.0303 0)
(-0.140339 10.0415 0)
(-0.182151 10.0599 0)
(-0.229935 10.0886 0)
(-0.282116 10.131 0)
(-0.336465 10.1889 0)
(-0.390657 10.2627 0)
(-0.44157 10.3535 0)
(-0.485671 10.4613 0)
(-0.519263 10.5854 0)
(-0.538733 10.7242 0)
(-0.538835 10.8764 0)
(-0.521851 11.0357 0)
(-0.496386 11.196 0)
(-0.464215 11.3561 0)
(-0.426912 11.5144 0)
(-0.385912 11.6683 0)
(-0.342406 11.8136 0)
(-0.297257 11.9405 0)
(-0.252888 12.0458 0)
(-0.207899 12.0832 0)
(-0.15999 11.9645 0)
(-0.110583 11.6364 0)
(-0.0616886 10.9629 0)
(-0.0184585 9.44994 0)
(0.00347182 10.0044 0)
(0.002922 10.0017 0)
(0.00106479 10.0001 0)
(0.00247682 10.0072 0)
(-0.000179676 10.0098 0)
(-0.00479951 10.0119 0)
(-0.0117793 10.0135 0)
(-0.0216488 10.0145 0)
(-0.035078 10.0153 0)
(-0.0528434 10.0162 0)
(-0.0757897 10.0181 0)
(-0.10476 10.0221 0)
(-0.140479 10.0298 0)
(-0.183382 10.0435 0)
(-0.233367 10.066 0)
(-0.289459 10.1009 0)
(-0.349485 10.1519 0)
(-0.410605 10.2206 0)
(-0.470022 10.307 0)
(-0.524144 10.4115 0)
(-0.569082 10.534 0)
(-0.600955 10.6728 0)
(-0.616153 10.8258 0)
(-0.609343 10.9914 0)
(-0.583867 11.1621 0)
(-0.54984 11.3317 0)
(-0.509395 11.4992 0)
(-0.464346 11.6631 0)
(-0.416279 11.8213 0)
(-0.366456 11.9694 0)
(-0.317921 12.1169 0)
(-0.269728 12.2437 0)
(-0.219557 12.2853 0)
(-0.167465 12.1723 0)
(-0.11482 11.8461 0)
(-0.0635366 11.1632 0)
(-0.0187407 9.62116 0)
(0.00233358 10.007 0)
(0.00330721 10.0042 0)
(0.00275104 10.0016 0)
(0.000996086 10.0001 2.67186e-19)
(-0.000303285 10.0094 0)
(-0.00487875 10.0113 0)
(-0.0117799 10.0125 0)
(-0.0215326 10.013 0)
(-0.034809 10.013 0)
(-0.0523995 10.0128 0)
(-0.0751847 10.0131 0)
(-0.104081 10.0148 0)
(-0.139953 10.0193 0)
(-0.183464 10.0287 0)
(-0.234884 10.0455 0)
(-0.293786 10.0732 0)
(-0.358687 10.1155 0)
(-0.426719 10.1766 0)
(-0.494365 10.2575 0)
(-0.558369 10.3577 0)
(-0.614707 10.4772 0)
(-0.659218 10.615 0)
(-0.687941 10.769 0)
(-0.697395 10.9361 0)
(-0.682266 11.1145 0)
(-0.647111 11.2958 0)
(-0.60363 11.4738 0)
(-0.554283 11.6475 0)
(-0.501084 11.816 0)
(-0.445718 11.977 0)
(-0.392157 12.1452 0)
(-0.339369 12.3125 0)
(-0.285109 12.4401 0)
(-0.230052 12.4837 0)
(-0.174107 12.3743 0)
(-0.118507 12.0484 0)
(-0.0651036 11.355 0)
(-0.0189448 9.78372 0)
(-0.000417029 10.009 0)
(0.00219282 10.0067 0)
(0.0031073 10.004 1.1561e-18)
(0.00258592 10.0015 -8.45943e-19)
(0.000929461 10.0001 -5.48165e-19)
(-0.00493496 10.0107 0)
(-0.0117552 10.0116 0)
(-0.0213867 10.0117 0)
(-0.0344967 10.011 0)
(-0.0518812 10.0098 0)
(-0.074442 10.0087 0)
(-0.103146 10.0084 0)
(-0.138954 10.0101 0)
(-0.182707 10.0156 0)
(-0.234962 10.0272 0)
(-0.295738 10.0481 0)
(-0.364198 10.0819 0)
(-0.438253 10.133 0)
(-0.514224 10.2055 0)
(-0.587889 10.3002 0)
(-0.655576 10.4154 0)
(-0.712897 10.5508 0)
(-0.755518 10.7045 0)
(-0.77953 10.8737 0)
(-0.781714 11.0548 0)
(-0.756885 11.2452 0)
(-0.710942 11.4362 0)
(-0.657216 11.6213 0)
(-0.598449 11.8002 0)
(-0.536797 11.9718 0)
(-0.477244 12.1528 0)
(-0.418917 12.3404 0)
(-0.359054 12.507 0)
(-0.299024 12.6333 0)
(-0.239408 12.6769 0)
(-0.179935 12.5694 0)
(-0.121669 12.2424 0)
(-0.0664109 11.5378 0)
(-0.0190811 9.93739 0)
(-0.00499241 10.0102 0)
(-0.000493559 10.0086 -2.26887e-18)
(0.00203768 10.0063 -1.21603e-18)
(0.00291509 10.0038 5.93103e-19)
(0.00242493 10.0014 -5.78244e-19)
(0.000865028 10.0001 0)
(-0.0117116 10.0108 0)
(-0.021221 10.0105 0)
(-0.0341598 10.0092 0)
(-0.0513205 10.0072 0)
(-0.0736158 10.0048 0)
(-0.102044 10.0027 0)
(-0.137634 10.0019 0)
(-0.181355 10.0039 0)
(-0.233987 10.0108 0)
(-0.2959 10.0255 0)
(-0.36679 10.0513 0)
(-0.445316 10.0926 0)
(-0.528656 10.1539 0)
(-0.612241 10.2395 0)
(-0.691139 10.3492 0)
(-0.761335 10.4808 0)
(-0.818172 10.6328 0)
(-0.857271 10.8027 0)
(-0.874921 10.987 0)
(-0.868303 11.1813 0)
(-0.832451 11.3829 0)
(-0.774724 11.5824 0)
(-0.710092 11.7735 0)
(-0.641495 11.9559 0)
(-0.575126 12.1478 0)
(-0.510178 12.3483 0)
(-0.443579 12.5345 0)
(-0.376937 12.6984 0)
(-0.311484 12.8216 0)
(-0.247647 12.8638 0)
(-0.184987 12.7568 0)
(-0.124348 12.4277 0)
(-0.0674819 11.7111 0)
(-0.0191596 10.0821 0)
(-0.0116851 10.0102 0)
(-0.00496053 10.0096 4.77055e-18)
(-0.000536871 10.0081 0)
(0.00188818 10.0059 1.24639e-18)
(0.00272906 10.0036 4.65182e-22)
(0.00226794 10.0013 0)
(0.000802795 10.0001 0)
(-0.0210415 10.0095 0)
(-0.0338099 10.0077 0)
(-0.0507409 10.0049 0)
(-0.0727469 10.0014 0)
(-0.100845 9.99764 0)
(-0.136109 9.99459 0)
(-0.179601 9.99351 0)
(-0.232264 9.99623 0)
(-0.294746 10.0052 0)
(-0.367169 10.0238 0)
(-0.448818 10.0558 0)
(-0.537722 10.1058 0)
(-0.630238 10.1789 0)
(-0.72083 10.279 0)
(-0.803885 10.4053 0)
(-0.875152 10.5541 0)
(-0.929832 10.7233 0)
(-0.963649 10.9095 0)
(-0.973232 11.1085 0)
(-0.956303 11.3153 0)
(-0.908211 11.5269 0)
(-0.837846 11.7337 0)
(-0.761773 11.9291 0)
(-0.687824 12.1323 0)
(-0.615293 12.3438 0)
(-0.540645 12.5429 0)
(-0.466062 12.7258 0)
(-0.393014 12.8851 0)
(-0.322509 13.004 0)
(-0.254821 13.0436 0)
(-0.189319 12.936 0)
(-0.126586 12.6039 0)
(-0.0683407 11.875 0)
(-0.01919 10.218 0)
(-0.0209008 10.0085 0)
(-0.0114953 10.0094 4.42848e-22)
(-0.00481485 10.0089 0)
(-0.000579279 10.0075 -1.30998e-18)
(0.00174744 10.0056 3.81095e-22)
(0.00254895 10.0034 0)
(0.00211514 10.0012 0)
(0.00074277 10.0001 0)
(-0.0334523 10.0063 0)
(-0.0501564 10.0028 0)
(-0.0718653 9.99832 0)
(-0.0996009 9.99319 0)
(-0.134468 9.98816 0)
(-0.17759 9.98431 0)
(-0.230032 9.98325 0)
(-0.292654 9.98719 0)
(-0.365913 9.99906 0)
(-0.449606 10.0225 0)
(-0.542485 10.062 0)
(-0.64186 10.1223 0)
(-0.743168 10.2087 0)
(-0.839858 10.3249 0)
(-0.9257 10.4689 0)
(-0.996358 10.6357 0)
(-1.04704 10.8224 0)
(-1.07373 11.0248 0)
(-1.07354 11.2378 0)
(-1.04486 11.456 0)
(-0.983432 11.6764 0)
(-0.899718 11.8888 0)
(-0.817554 12.1057 0)
(-0.736522 12.329 0)
(-0.652588 12.5392 0)
(-0.568522 12.7347 0)
(-0.486343 12.9126 0)
(-0.407306 13.0662 0)
(-0.332162 13.1798 0)
(-0.261003 13.2158 0)
(-0.19299 13.1066 0)
(-0.128427 12.7707 0)
(-0.0690116 12.0295 0)
(-0.0191809 10.3452 0)
(-0.0331627 10.0051 0)
(-0.0204943 10.0075 -2.63199e-18)
(-0.0110688 10.0084 0)
(-0.00467702 10.0082 0)
(-0.000608416 10.007 4.02679e-18)
(0.00161501 10.0052 0)
(0.00237498 10.0032 0)
(0.00196663 10.0012 1.24723e-18)
(0.000684998 10.0001 0)
(-0.0495712 10.001 0)
(-0.0709879 9.99562 0)
(-0.0983505 9.98926 0)
(-0.132777 9.98246 0)
(-0.175435 9.97616 0)
(-0.227477 9.97173 0)
(-0.289919 9.97112 0)
(-0.363483 9.97695 0)
(-0.448374 9.99258 0)
(-0.543945 10.0222 0)
(-0.648326 10.0705 0)
(-0.758004 10.1427 0)
(-0.867424 10.244 0)
(-0.96899 10.3777 0)
(-1.05597 10.5405 0)
(-1.12412 10.726 0)
(-1.16883 10.9303 0)
(-1.18651 11.1483 0)
(-1.17491 11.3743 0)
(-1.13316 11.6028 0)
(-1.05741 11.8302 0)
(-0.966682 12.0652 0)
(-0.876339 12.303 0)
(-0.781875 12.5255 0)
(-0.686821 12.7322 0)
(-0.593759 12.9223 0)
(-0.504446 13.0939 0)
(-0.419885 13.2409 0)
(-0.340533 13.3482 0)
(-0.266272 13.3798 0)
(-0.196062 13.2683 0)
(-0.129915 12.9283 0)
(-0.0695178 12.1746 0)
(-0.0191398 10.4641 0)
(-0.0490926 9.99938 0)
(-0.0324674 10.0037 0)
(-0.0196738 10.0063 -2.95743e-18)
(-0.0106653 10.0075 -2.88682e-18)
(-0.00451929 10.0075 -5.63548e-18)
(-0.000624854 10.0065 0)
(0.00149099 10.0049 -2.68387e-18)
(0.0022074 10.003 -2.61974e-18)
(0.00182242 10.0011 1.27846e-18)
(0.000629377 10.0001 0)
(-0.0701176 9.99324 0)
(-0.0971144 9.98577 0)
(-0.131084 9.97742 0)
(-0.17322 9.96893 0)
(-0.224739 9.9615 0)
(-0.286773 9.95682 0)
(-0.360243 9.95721 0)
(-0.445679 9.96575 0)
(-0.542925 9.98625 0)
(-0.650802 10.0233 0)
(-0.76672 10.082 0)
(-0.886251 10.1678 0)
(-1.00278 10.2856 0)
(-1.10769 10.4382 0)
(-1.19389 10.6207 0)
(-1.25747 10.8252 0)
(-1.29416 11.0467 0)
(-1.30096 11.2796 0)
(-1.27639 11.5176 0)
(-1.22037 11.7548 0)
(-1.13784 12.006 0)
(-1.03751 12.2631 0)
(-0.931241 12.5007 0)
(-0.823611 12.7198 0)
(-0.717901 12.921 0)
(-0.616369 13.1046 0)
(-0.520449 13.2689 0)
(-0.430852 13.4085 0)
(-0.347721 13.509 0)
(-0.270714 13.5356 0)
(-0.198598 13.4211 0)
(-0.131093 13.0767 0)
(-0.0698816 12.3107 0)
(-0.0190738 10.5749 0)
(-0.0694046 9.99112 0)
(-0.0480209 9.9976 -2.90311e-18)
(-0.0311098 10.0022 3.1e-18)
(-0.0189005 10.0051 -1.70099e-21)
(-0.0102327 10.0066 2.95561e-18)
(-0.00434243 10.0068 2.88599e-18)
(-0.000628878 10.0061 5.63506e-18)
(0.00137553 10.0046 4.12483e-18)
(0.00204604 10.0028 -1.34237e-18)
(0.00168251 10.001 0)
(0.000575912 10.0001 0)
(-0.0958939 9.98268 0)
(-0.129417 9.97294 0)
(-0.171009 9.96253 0)
(-0.221926 9.95243 0)
(-0.283392 9.94411 0)
(-0.356478 9.93964 0)
(-0.441967 9.94175 0)
(-0.540094 9.95399 0)
(-0.650259 9.98062 0)
(-0.770658 10.0266 0)
(-0.897876 10.0975 0)
(-1.02649 10.1984 0)
(-1.14881 10.3342 0)
(-1.25524 10.5069 0)
(-1.33855 10.7097 0)
(-1.39535 10.9332 0)
(-1.42194 11.1715 0)
(-1.41605 11.4182 0)
(-1.37705 11.6667 0)
(-1.3156 11.9291 0)
(-1.22329 12.2041 0)
(-1.10394 12.4619 0)
(-0.981941 12.6965 0)
(-0.861599 12.9103 0)
(-0.745825 13.1047 0)
(-0.636431 13.2807 0)
(-0.534466 13.4369 0)
(-0.440327 13.5685 0)
(-0.353831 13.6619 0)
(-0.274415 13.683 0)
(-0.200658 13.5652 0)
(-0.132004 13.2161 0)
(-0.0701235 12.4381 0)
(-0.0189886 10.6781 0)
(-0.094896 9.97993 0)
(-0.0678505 9.98884 -5.16653e-21)
(-0.0459491 9.99566 0)
(-0.0298372 10.0007 -2.96019e-21)
(-0.0180856 10.004 0)
(-0.00977162 10.0058 -3.02614e-18)
(-0.00414715 10.0062 -5.91028e-18)
(-0.000620598 10.0056 -2.76016e-22)
(0.00126842 10.0043 2.81642e-18)
(0.00189112 10.0026 -1.37474e-18)
(0.00154687 10.001 1.34234e-18)
(0.000524593 10 0)
(-0.127773 9.96897 0)
(-0.168831 9.95684 0)
(-0.219117 9.94438 0)
(-0.279909 9.93282 0)
(-0.352406 9.92399 0)
(-0.437583 9.92035 0)
(-0.535987 9.92508 0)
(-0.647487 9.94218 0)
(-0.770945 9.97638 0)
(-0.903829 10.033 0)
(-1.04181 10.1176 0)
(-1.17842 10.2354 0)
(-1.30489 10.3907 0)
(-1.41076 10.5843 0)
(-1.48885 10.8078 0)
(-1.53662 11.0499 0)
(-1.55105 11.3042 0)
(-1.53074 11.5635 0)
(-1.48747 11.8388 0)
(-1.41726 12.1267 0)
(-1.30381 12.4041 0)
(-1.16555 12.6597 0)
(-1.02828 12.889 0)
(-0.895842 13.0958 0)
(-0.770664 13.2824 0)
(-0.654066 13.4499 0)
(-0.546633 13.5976 0)
(-0.448436 13.7209 0)
(-0.358973 13.8067 0)
(-0.27746 13.8221 0)
(-0.202303 13.7006 0)
(-0.132684 13.3468 0)
(-0.0702623 12.5571 0)
(-0.0188894 10.774 0)
(-0.126436 9.96545 0)
(-0.0927327 9.97702 3.18809e-18)
(-0.0648466 9.9864 -3.41013e-18)
(-0.0440171 9.99379 3.32491e-18)
(-0.0285067 9.99925 0)
(-0.0172297 10.0029 0)
(-0.009284 10.0049 3.09745e-18)
(-0.00393396 10.0056 -3.02507e-18)
(-0.000600221 10.0052 -2.15287e-22)
(0.00116978 10.004 1.44235e-18)
(0.00174244 10.0024 -1.40838e-18)
(0.00141544 10.0009 -1.37081e-18)
(0.000475674 10 0)
(-0.166686 9.95179 0)
(-0.216348 9.93722 0)
(-0.276425 9.92279 0)
(-0.348194 9.91008 0)
(-0.432796 9.90127 0)
(-0.531024 9.89924 0)
(-0.643123 9.90767 0)
(-0.768507 9.93099 0)
(-0.905401 9.97434 0)
(-1.05044 10.0433 0)
(-1.19832 10.1434 0)
(-1.34151 10.2797 0)
(-1.47021 10.4556 0)
(-1.5732 10.6709 0)
(-1.64365 10.9151 0)
(-1.6801 11.1754 0)
(-1.68036 11.4443 0)
(-1.65721 11.7322 0)
(-1.60596 12.0352 0)
(-1.51352 12.3275 0)
(-1.3788 12.6038 0)
(-1.22208 12.8546 0)
(-1.07021 13.077 0)
(-0.92643 13.2755 0)
(-0.792568 13.4533 0)
(-0.66943 13.6118 0)
(-0.557103 13.7505 0)
(-0.455313 13.8653 0)
(-0.363254 13.9435 0)
(-0.27993 13.953 0)
(-0.203589 13.8277 0)
(-0.133169 13.4691 0)
(-0.0703159 12.6681 0)
(-0.0187802 10.8631 0)
(-0.164951 9.94731 0)
(-0.123514 9.96176 0)
(-0.0885319 9.97398 3.5639e-18)
(-0.0620587 9.98407 -6.97796e-18)
(-0.0420057 9.99201 6.81283e-18)
(-0.0271186 9.99788 -6.65214e-18)
(-0.0163363 10.0019 0)
(-0.00877073 10.0042 3.17091e-18)
(-0.00370328 10.005 -3.096e-18)
(-0.00056793 10.0048 -3.02402e-18)
(0.00107932 10.0037 0)
(0.00159995 10.0023 1.43772e-18)
(0.00128904 10.0008 0)
(0.000430159 10 0)
(-0.213619 9.93087 0)
(-0.272984 9.91388 0)
(-0.343966 9.89771 0)
(-0.427813 9.88427 0)
(-0.525531 9.87617 0)
(-0.63767 9.87675 0)
(-0.764094 9.89013 0)
(-0.903665 9.9212 0)
(-1.05387 9.97541 0)
(-1.21044 10.0585 0)
(-1.36703 10.1759 0)
(-1.51508 10.332 0)
(-1.64382 10.5296 0)
(-1.74144 10.767 0)
(-1.80176 11.0316 0)
(-1.8246 11.309 0)
(-1.82377 11.6085 0)
(-1.7937 11.9262 0)
(-1.7188 12.2359 0)
(-1.60366 12.5291 0)
(-1.4479 12.8016 0)
(-1.27342 13.0455 0)
(-1.10781 13.2594 0)
(-0.953521 13.4487 0)
(-0.811731 13.6169 0)
(-0.682703 13.766 0)
(-0.566035 13.8956 0)
(-0.461092 14.0018 0)
(-0.366779 14.0723 0)
(-0.281903 14.0759 0)
(-0.204568 13.9467 0)
(-0.133488 13.5834 0)
(-0.0702995 12.7715 0)
(-0.0186646 10.9458 0)
(-0.21143 9.92522 0)
(-0.161102 9.94268 0)
(-0.117802 9.95799 0)
(-0.0846543 9.97108 7.28908e-18)
(-0.0591661 9.98185 -7.12275e-18)
(-0.0399171 9.99031 6.95759e-18)
(-0.0256801 9.99659 0)
(-0.0154074 10.0009 -3.31938e-18)
(-0.00823249 10.0034 0)
(-0.00345571 10.0045 3.16762e-18)
(-0.000524253 10.0044 0)
(0.000996812 10.0035 0)
(0.00146432 10.0021 0)
(0.00117072 10.0008 1.37168e-18)
(0.000388457 10 6.39532e-19)
(-0.269588 9.90595 0)
(-0.339779 9.8867 0)
(-0.422788 9.86914 0)
(-0.519764 9.8556 0)
(-0.631524 9.8491 0)
(-0.758306 9.85345 0)
(-0.899499 9.87324 0)
(-1.05331 9.91374 0)
(-1.2164 9.98064 0)
(-1.38353 10.0796 0)
(-1.54735 10.2159 0)
(-1.69824 10.3933 0)
(-1.82462 10.6132 0)
(-1.91429 10.8728 0)
(-1.96193 11.157 0)
(-1.98584 11.467 0)
(-1.97954 11.7989 0)
(-1.92454 12.1262 0)
(-1.82513 12.4389 0)
(-1.68722 12.7297 0)
(-1.51096 12.996 0)
(-1.31961 13.2313 0)
(-1.14123 13.4355 0)
(-0.977317 13.6147 0)
(-0.828367 13.773 0)
(-0.694074 13.9124 0)
(-0.573587 14.0329 0)
(-0.465898 14.1305 0)
(-0.369645 14.1935 0)
(-0.283447 14.1912 0)
(-0.205287 14.0581 0)
(-0.133671 13.6901 0)
(-0.0702264 12.8678 0)
(-0.0185453 11.0225 0)
(-0.266892 9.89891 0)
(-0.20646 9.91945 0)
(-0.153513 9.93802 7.82464e-18)
(-0.112558 9.9544 7.649e-18)
(-0.0806389 9.96833 7.47091e-18)
(-0.0561725 9.97975 -7.29645e-18)
(-0.0377619 9.98871 0)
(-0.0241932 9.99536 0)
(-0.0144441 9.99994 0)
(-0.00767082 10.0027 6.63543e-18)
(-0.00319218 10.004 3.24053e-18)
(-0.000469784 10.004 3.15631e-18)
(0.000922286 10.0032 0)
(0.00133848 10.002 -1.4387e-18)
(0.00106192 10.0007 -6.74714e-19)
(0.000350129 10 0)
(-0.335636 9.8769 0)
(-0.417789 9.85567 0)
(-0.513911 9.83725 0)
(-0.624996 9.82439 0)
(-0.751616 9.82058 0)
(-0.893606 9.83009 0)
(-1.04978 9.85793 0)
(-1.21761 9.90966 0)
(-1.39285 9.9911 0)
(-1.56929 10.1078 0)
(-1.73852 10.2645 0)
(-1.89001 10.464 0)
(-2.0115 10.7069 0)
(-2.09051 10.9883 0)
(-2.14189 11.3071 0)
(-2.16228 11.6522 0)
(-2.13001 11.9971 0)
(-2.04873 12.3301 0)
(-1.92436 12.6424 0)
(-1.76395 12.9282 0)
(-1.568 13.186 0)
(-1.36082 13.411 0)
(-1.17068 13.6047 0)
(-0.998057 13.7733 0)
(-0.842702 13.9213 0)
(-0.703743 14.051 0)
(-0.579914 14.1624 0)
(-0.469852 14.2517 0)
(-0.371943 14.3073 0)
(-0.284627 14.2992 0)
(-0.205789 14.162 0)
(-0.13374 13.7896 0)
(-0.0701084 12.9574 0)
(-0.018425 11.0936 0)
(-0.332388 9.8682 0)
(-0.260582 9.89175 0)
(-0.196569 9.91372 -1.63299e-17)
(-0.146576 9.93361 2.93908e-20)
(-0.107132 9.95102 -1.56127e-17)
(-0.0764925 9.96575 1.52521e-17)
(-0.0530913 9.97778 -7.45784e-18)
(-0.0355428 9.98721 0)