/*--------------------------------*- C++ -*----------------------------------*\
  =========                 |
  \\      /  F ield         | OpenFOAM: The Open Source CFD Toolbox
   \\    /   O peration     | Website:  https://openfoam.org
    \\  /    A nd           | Version:  8
     \\/     M anipulation  |
\*---------------------------------------------------------------------------*/
FoamFile
{
    version     2.0;
    format      ascii;
    class       volScalarField;
    location    "100";
    object      nut;
}
// * * * * * * * * * * * * * * * * * * * * * * * * * * * * * * * * * * * * * //

dimensions      [0 2 -1 0 0 0 0];

internalField   nonuniform List<scalar> 
15677
(
7.4799e-05
0.000154173
8.20041e-05
0.000258016
0.000137612
8.01542e-05
0.000722426
0.000177813
0.000111478
7.67039e-05
0.00180608
0.00037485
0.000147538
0.000108616
7.42802e-05
0.00331847
0.0008735
0.00031029
0.000125447
0.000111445
7.27025e-05
0.00477668
0.00171986
0.000665289
0.000257544
0.000122941
0.000117833
7.16764e-05
0.00581868
0.00284066
0.00126579
0.000566655
0.000234012
0.000122956
0.000123956
7.09993e-05
0.00636617
0.00405881
0.00211273
0.00106494
0.000504597
0.0002125
0.000127024
0.00012974
7.05121e-05
0.00658915
0.00517074
0.00314429
0.00176653
0.000946983
0.000461387
0.000205284
0.000135798
0.000133735
7.01321e-05
0.00667721
0.00598114
0.00423159
0.00264955
0.00156231
0.000868408
0.000427942
0.000196405
0.000144969
0.000136616
6.98731e-05
0.00671566
0.00641453
0.0052123
0.00364244
0.00234418
0.00142917
0.0008081
0.000401359
0.000192072
0.00015359
0.000139329
6.97198e-05
0.00671445
0.00659687
0.0059566
0.00462944
0.00325108
0.00214061
0.00133247
0.000758866
0.00037724
0.00019265
0.000161902
0.000141468
6.96689e-05
0.00670833
0.00668402
0.00639421
0.00548086
0.00420169
0.00297796
0.00199443
0.00125716
0.000717573
0.000357973
0.000195395
0.000169083
0.000143087
6.9695e-05
0.00670604
0.00670369
0.00659082
0.006099
0.00508677
0.0038834
0.0027779
0.00188359
0.0011952
0.000682955
0.000340146
0.000199154
0.000175671
0.000144305
6.9785e-05
0.0067057
0.00670359
0.00667451
0.00645439
0.00580043
0.00476825
0.00364075
0.00262581
0.00179535
0.00114391
0.000649128
0.000328067
0.000204219
0.000180978
0.000145255
6.99689e-05
0.00670579
0.0067019
0.00669485
0.00661941
0.00628306
0.00553177
0.00451138
0.00345192
0.002506
0.00172402
0.00109886
0.000620558
0.000319711
0.000209269
0.000185646
0.000145904
7.02479e-05
0.00670588
0.00670111
0.00669777
0.00667427
0.0065408
0.00609642
0.00529894
0.0043035
0.0033017
0.00241001
0.00166393
0.00105881
0.000595751
0.000314126
0.000214403
0.000189285
0.000146346
7.06081e-05
0.00670593
0.00670089
0.00669738
0.00668917
0.00664241
0.00643996
0.00592085
0.00510015
0.00413391
0.00318048
0.00233104
0.00161281
0.00102341
0.000575739
0.000310918
0.000218997
0.000192681
0.000146493
7.105e-05
0.00670596
0.00670085
0.00669689
0.00669226
0.0066764
0.00659546
0.00633637
0.00575996
0.00493155
0.00399436
0.00308126
0.00226541
0.00156861
0.000993395
0.000559621
0.000309076
0.000223495
0.000194791
0.00014644
7.15729e-05
0.006706
0.00670082
0.00669667
0.00669246
0.00668639
0.00665559
0.00654093
0.00622966
0.00561606
0.00478863
0.00387896
0.00299918
0.00221097
0.00153159
0.000967358
0.000546379
0.000308947
0.000227187
0.00019682
0.000146265
7.21746e-05
0.00670605
0.00670075
0.00669661
0.00669225
0.00668873
0.00667659
0.00662942
0.00648036
0.00612736
0.0054891
0.00466776
0.00378291
0.00293204
0.00216552
0.00149921
0.000946306
0.000537042
0.000309175
0.000230907
0.000198035
0.000145863
7.28486e-05
0.00670609
0.00670065
0.00669662
0.0066921
0.00668902
0.00668285
0.00666474
0.00659756
0.00641797
0.00603253
0.00537808
0.00456565
0.00370422
0.00287734
0.00212672
0.00147432
0.000929866
0.000530423
0.00031108
0.000234067
0.000199175
0.000145287
7.35912e-05
0.00670613
0.00670054
0.00669667
0.00669201
0.00668889
0.0066843
0.00667735
0.00664847
0.00656305
0.00635689
0.00594568
0.00528217
0.00448113
0.00363897
0.0028309
0.00209844
0.00145452
0.000916919
0.000527104
0.000312943
0.000237269
0.000199933
0.000144563
7.43929e-05
0.00670613
0.00670042
0.00669673
0.00669188
0.00668869
0.00668444
0.00668123
0.00666838
0.00663106
0.00652717
0.00629788
0.00586874
0.00520141
0.00440984
0.00358695
0.00279751
0.00207612
0.00143939
0.000909214
0.000526497
0.000316924
0.000239091
0.000200244
0.000143663
7.5249e-05
0.00670609
0.00670029
0.00669675
0.00669164
0.0066885
0.00668433
0.0066821
0.00667527
0.00666032
0.00661109
0.00649105
0.00624473
0.00580199
0.00513179
0.00435331
0.00354764
0.00277215
0.00206118
0.00143177
0.000906446
0.000528072
0.000320262
0.000241346
0.000200085
0.000142683
7.61525e-05
0.00670597
0.00670013
0.00669669
0.00669134
0.00668838
0.00668421
0.00668203
0.00667732
0.00667183
0.00664894
0.00659148
0.00645807
0.00619623
0.00574369
0.00507731
0.00431057
0.00351869
0.00275593
0.00205408
0.0014303
0.000907419
0.000532559
0.000323911
0.000243464
0.000199951
0.000141527
7.70928e-05
0.00670578
0.00669996
0.0066966
0.00669107
0.00668845
0.00668419
0.00668185
0.00667792
0.00667587
0.00666456
0.00664002
0.00657221
0.00642626
0.00615542
0.00569824
0.00503334
0.00427796
0.00349936
0.00275035
0.00205755
0.001434
0.000912176
0.000537711
0.000327697
0.000245067
0.000199055
0.000140322
7.80652e-05
0.00670552
0.00669981
0.00669652
0.006691
0.00668885
0.00668439
0.00668199
0.00667837
0.00667706
0.00667052
0.00666188
0.00662852
0.00655494
0.00640238
0.00611918
0.00565817
0.005004
0.00426313
0.00349824
0.00275718
0.002065
0.00144139
0.000919564
0.000543542
0.000331339
0.000245626
0.000198099
0.000139044
7.90566e-05
0.00670522
0.00669972
0.00669656
0.00669128
0.00668965
0.00668489
0.00668259
0.00667898
0.00667738
0.00667288
0.006671
0.00665427
0.00662239
0.00654153
0.00637622
0.00609513
0.00564179
0.0049928
0.00426012
0.00350347
0.00276717
0.00207801
0.00145418
0.000929086
0.000550365
0.00033588
0.00024651
0.000197217
0.00013779
8.00624e-05
0.00670491
0.00669971
0.00669676
0.00669195
0.00669077
0.00668558
0.00668343
0.00667952
0.00667746
0.00667405
0.00667436
0.00666531
0.00665549
0.00661412
0.00652857
0.00636638
0.00608631
0.00563051
0.00498787
0.00426436
0.0035172
0.00278679
0.00209814
0.00147019
0.000940726
0.00056052
0.000340062
0.000247227
0.000195925
0.000136621
8.11869e-05
0.00670465
0.00669979
0.00669711
0.00669292
0.006692
0.00668619
0.00668404
0.00667939
0.00667702
0.0066744
0.00667492
0.00666983
0.00667058
0.00664964
0.0066138
0.00652757
0.00636377
0.00608055
0.00562789
0.00499344
0.00428189
0.00354408
0.00281641
0.00212357
0.00149041
0.000956911
0.000569865
0.000344952
0.000247372
0.00019531
0.000135489
8.24514e-05
0.00670447
0.00669993
0.00669755
0.00669404
0.00669307
0.00668634
0.00668378
0.00667783
0.00667524
0.00667315
0.00667357
0.00667148
0.00667667
0.00666568
0.00665785
0.00661665
0.00653047
0.00636641
0.00608457
0.00564082
0.00501795
0.00431498
0.00358107
0.00285173
0.00215532
0.00151529
0.000973162
0.000583347
0.000350801
0.00024918
0.000194109
0.000134294
8.36947e-05
0.0067044
0.00670008
0.00669797
0.00669512
0.00669373
0.00668573
0.00668213
0.00667418
0.00667122
0.00666925
0.00667
0.00667075
0.00667737
0.00667214
0.00667911
0.00666332
0.00662462
0.00654043
0.00637868
0.00610631
0.00567145
0.00505694
0.00436041
0.00362719
0.00289474
0.00219146
0.00154151
0.000994732
0.00059615
0.000358961
0.000249467
0.000192907
0.00013322
8.49315e-05
0.00670446
0.00670019
0.00669826
0.00669598
0.00669389
0.00668431
0.00667895
0.00666822
0.00666438
0.00666188
0.00666339
0.00666671
0.0066737
0.00667316
0.00668821
0.00668554
0.0066744
0.00664005
0.00656126
0.00640743
0.0061437
0.00571772
0.00511077
0.00441746
0.00368291
0.00294453
0.00223358
0.00157501
0.0010206
0.00061741
0.000368559
0.000251059
0.000192015
0.000132212
8.61236e-05
0.00670022
0.00670466
0.00669833
0.00669654
0.00669363
0.00668231
0.00667455
0.00666031
0.00665477
0.00665081
0.00665312
0.00665833
0.00666566
0.00667
0.00668944
0.00669541
0.00669856
0.00669342
0.00666852
0.00659657
0.00645183
0.00619734
0.0057805
0.0051788
0.00448665
0.00374781
0.00300275
0.00228353
0.00161693
0.00105291
0.000638946
0.000381474
0.000255047
0.000191386
0.000131381
8.72975e-05
0.00669812
0.00670017
0.00670492
0.00669676
0.00669315
0.00668021
0.0066696
0.00665132
0.00664306
0.00663653
0.00663938
0.00664588
0.00665426
0.00666502
0.0066848
0.00669655
0.00670946
0.00672033
0.00672696
0.00670855
0.00664739
0.00651272
0.00626895
0.00585993
0.00526186
0.00456748
0.00382318
0.00307081
0.00234338
0.00166844
0.00109136
0.000671383
0.000396
0.000261134
0.000191052
0.000130634
8.84209e-05
0.00669665
0.00669755
0.00670023
0.00670513
0.00669273
0.00667856
0.00666496
0.00664258
0.00663055
0.00662032
0.00662323
0.00663068
0.00663996
0.00665581
0.00667345
0.00669117
0.00671049
0.00673311
0.00675667
0.00676994
0.0067637
0.00671456
0.00659322
0.00635895
0.00595679
0.00535914
0.00466136
0.00391048
0.00315031
0.00241333
0.00172956
0.0011412
0.000698597
0.000413077
0.000267054
0.000191049
0.000129743
8.9495e-05
0.00669258
0.00669616
0.0066969
0.00670041
0.00670527
0.0066779
0.00666153
0.00663558
0.00661889
0.00660392
0.00660616
0.00661418
0.00662254
0.00663966
0.00665834
0.00668014
0.00670435
0.00673496
0.00677017
0.00680253
0.00682836
0.00683514
0.00680085
0.00669254
0.0064705
0.00607211
0.00547311
0.00476924
0.00401063
0.0032419
0.00249983
0.00180562
0.0011951
0.000732044
0.000430611
0.000273301
0.000189569
0.00012896
9.05288e-05
0.00667857
0.00669279
0.00669536
0.00669641
0.00670069
0.00670534
0.00666003
0.00663161
0.00660722
0.00658913
0.00658865
0.00659272
0.00660171
0.00661971
0.00664015
0.00666403
0.00669254
0.00672825
0.00677076
0.0068171
0.00686461
0.00690417
0.00692552
0.00690644
0.00681331
0.00660128
0.00620759
0.00560438
0.00489253
0.00412581
0.00335578
0.0026068
0.0018892
0.00125455
0.000768603
0.000454785
0.000280121
0.00019008
0.000128224
9.14953e-05
0.00666094
0.00668115
0.00669263
0.00669451
0.00669612
0.00670102
0.00670534
0.00663172
0.00659839
0.00657559
0.00656974
0.00657055
0.00658143
0.00659836
0.00661886
0.00664404
0.00667528
0.00671479
0.00676247
0.0068177
0.00688066
0.00694388
0.007002
0.00703854
0.00703397
0.00695411
0.00675334
0.00636145
0.0057551
0.00503378
0.00426816
0.00349709
0.00272462
0.00198048
0.00131864
0.000809045
0.000474906
0.00028709
0.000189799
0.000127226
9.24168e-05
0.00663548
0.00666523
0.00668395
0.00669195
0.00669372
0.00669603
0.00670138
0.00670528
0.0065941
0.00656685
0.00655419
0.00655394
0.00656313
0.00657701
0.00659649
0.00662137
0.00665417
0.00669583
0.00674751
0.00680861
0.00688173
0.00696187
0.00704581
0.00712233
0.00717873
0.00718812
0.0071186
0.00692386
0.00653444
0.00592366
0.00521056
0.00444854
0.00365469
0.00285359
0.00207903
0.00138845
0.000850997
0.0004985
0.000295199
0.000190464
0.000126698
9.32803e-05
0.00659638
0.00664575
0.00667047
0.00668581
0.00669088
0.0066931
0.00669613
0.00670173
0.00670517
0.00656324
0.00654338
0.00654128
0.00654662
0.00655765
0.006575
0.00659937
0.00663228
0.00667414
0.00672765
0.00679263
0.00687235
0.00696377
0.00706709
0.00717147
0.00727081
0.00734557
0.0073722
0.00731103
0.00711746
0.00672447
0.00612909
0.00542885
0.00464805
0.00382667
0.00299333
0.00218567
0.00146241
0.000896954
0.000521905
0.000303105
0.000192137
0.000125945
9.4089e-05
0.00656535
0.00660793
0.00665698
0.00667464
0.00668675
0.00668959
0.00669271
0.00669637
0.00670205
0.00670504
0.00653846
0.00653243
0.00653341
0.0065414
0.00655642
0.00657922
0.00661064
0.0066518
0.0067054
0.00677215
0.00685586
0.00695455
0.00707119
0.00719689
0.0073275
0.00744812
0.00754394
0.00758417
0.00753227
0.00733813
0.00695759
0.00637659
0.0056645
0.00486327
0.00401227
0.00314376
0.00229962
0.00154311
0.00094598
0.000549724
0.000313026
0.000192364
0.000125316
9.48454e-05
0.00653893
0.00657568
0.00662562
0.00666703
0.00667761
0.00668687
0.00668825
0.00669258
0.00669671
0.00670233
0.00670491
0.00652768
0.00652419
0.00652878
0.0065411
0.00656143
0.00659078
0.00663033
0.00668287
0.00674974
0.00683514
0.00693813
0.00706333
0.00720391
0.0073595
0.00751408
0.00765999
0.00777321
0.00782709
0.0077801
0.00761154
0.00725045
0.00664696
0.00591523
0.0050917
0.00420915
0.00330386
0.00242251
0.00162919
0.000999388
0.000575581
0.000323257
0.000193955
0.000125094
9.55634e-05
0.00652753
0.00654623
0.00659197
0.00664255
0.00667517
0.00667934
0.00668636
0.00668699
0.0066927
0.00669709
0.00670255
0.00670479
0.00651934
0.00652003
0.00652916
0.00654676
0.0065736
0.00661098
0.00666168
0.0067275
0.00681286
0.00691777
0.00704798
0.00719817
0.00737192
0.00755404
0.00773842
0.0079055
0.00803708
0.00809986
0.00808561
0.00794835
0.00757274
0.00694181
0.00617846
0.00532892
0.00441563
0.00347382
0.00255331
0.00172294
0.0010558
0.000606833
0.00033556
0.000195966
0.000124415
9.62254e-05
0.00651883
0.00653299
0.00655931
0.00660966
0.00665784
0.00668126
0.00667994
0.00668543
0.00668594
0.00669299
0.00669748
0.00670275
0.0067047
0.00651541
0.00652088
0.00653552
0.00655966
0.00659456
0.00664296
0.00670701
0.00679119
0.00689632
0.00702884
0.00718485
0.00737068
0.00757298
0.00778998
0.00799911
0.00818952
0.00833419
0.00843736
0.0084628
0.00831546
0.00791738
0.00725739
0.00645848
0.00557497
0.00463054
0.00365205
0.00269283
0.00182207
0.00112114
0.000639519
0.000348592
0.000197568
0.000124446
9.68462e-05
0.00651478
0.00652329
0.00654247
0.00657541
0.00662886
0.00666947
0.00668525
0.00667963
0.0066843
0.00668513
0.00669336
0.00669783
0.00670295
0.00670466
0.00651655
0.00652784
0.00654917
0.00658145
0.00662737
0.00668932
0.00677168
0.00687599
0.00700905
0.00716823
0.00736166
0.00757751
0.00781981
0.00806504
0.00830275
0.00851078
0.00870401
0.00885569
0.00887458
0.00870788
0.00827997
0.00758549
0.00675042
0.00582615
0.00485087
0.00383756
0.0028392
0.00193009
0.00119024
0.000675439
0.000363335
0.000200412
0.000123917
9.74405e-05
0.00651594
0.00651848
0.00653132
0.00655335
0.00659263
0.00664856
0.00667938
0.00668738
0.00667869
0.00668314
0.00668457
0.00669371
0.00669812
0.00670315
0.00670466
0.00652397
0.00654212
0.00657178
0.0066152
0.00667495
0.00675527
0.00685829
0.00699095
0.0071517
0.00734976
0.00757473
0.00783528
0.00810869
0.00838861
0.00864876
0.00891414
0.00916568
0.00931493
0.00931611
0.00912055
0.00865548
0.00792171
0.00705021
0.00608569
0.0050753
0.0040283
0.00299256
0.00204425
0.00126309
0.000715641
0.000378562
0.000202206
0.000124342
9.80067e-05
0.0065235
0.00651898
0.00652501
0.00654086
0.00656603
0.00661098
0.00666635
0.00668678
0.00668801
0.00667744
0.00668209
0.0066842
0.00669391
0.00669835
0.00670335
0.00670471
0.00653874
0.0065655
0.00660645
0.00666405
0.00674236
0.00684405
0.006976
0.00713767
0.00733878
0.00757048
0.00784461
0.00813859
0.00845389
0.00876184
0.00908846
0.00942334
0.00967793
0.00981189
0.00978331
0.00954878
0.00903901
0.00826175
0.00735218
0.00634881
0.00530165
0.0042225
0.00315089
0.00216236
0.00134372
0.000757084
0.000395326
0.000205387
0.000123846
9.85412e-05
0.00653854
0.00652596
0.00652425
0.00653274
0.00655185
0.00658001
0.00662976
0.0066816
0.00669181
0.00668761
0.00667619
0.00668122
0.00668392
0.00669387
0.00669851
0.00670353
0.00670481
0.00656273
0.00660106
0.0066565
0.00673299
0.00683354
0.00696491
0.00712747
0.00733125
0.00756896
0.00785427
0.00816464
0.00850906
0.00885892
0.00924375
0.00965317
0.00999871
0.010242
0.0103456
0.0102732
0.00998843
0.00942617
0.00860148
0.00765217
0.00661148
0.00552741
0.0044178
0.00331149
0.00228663
0.00142398
0.000801795
0.000412217
0.000207992
0.00012407
9.90456e-05
0.00656293
0.00654052
0.00652992
0.00653049
0.00654164
0.00656398
0.00659495
0.0066488
0.00669256
0.0066948
0.00668673
0.00667522
0.00668053
0.00668365
0.0066936
0.00669861
0.00670367
0.00670496
0.00659899
0.00665231
0.00672691
0.0068266
0.00695772
0.0071216
0.00732847
0.00757261
0.00786853
0.00819439
0.00856578
0.00895191
0.00939223
0.00987955
0.0103103
0.0106505
0.0108631
0.0109166
0.0107836
0.010436
0.00981313
0.00893719
0.00794678
0.00687011
0.00574992
0.00461147
0.00347354
0.00241032
0.00150504
0.000846572
0.000430582
0.000211326
0.000123951
9.95339e-05
0.00659973
0.00656441
0.00654315
0.00653467
0.0065377
0.00655158
0.00657671
0.00661087
0.00666738
0.00670115
0.00669637
0.00668592
0.00667476
0.00668004
0.00668337
0.00669315
0.00669868
0.00670376
0.00670513
0.00665117
0.00672425
0.00682284
0.00695406
0.00711987
0.00733068
0.00758224
0.00788943
0.00823221
0.0086317
0.00905318
0.00954853
0.0101239
0.0106515
0.011084
0.0113919
0.0115455
0.0115243
0.0113115
0.010888
0.0101966
0.00926567
0.008233
0.00712156
0.00596648
0.00480134
0.00363301
0.00253565
0.00158609
0.000894682
0.000449148
0.000214823
0.000123755
9.99896e-05
0.00665263
0.00660052
0.00656552
0.00654635
0.00654022
0.00654572
0.00656233
0.00658929
0.00662664
0.00668304
0.0067069
0.00669718
0.00668572
0.00667492
0.00667971
0.0066831
0.00669258
0.00669873
0.00670379
0.00670533
0.00672429
0.00682252
0.00695334
0.00712166
0.00733729
0.00759736
0.00791706
0.00827937
0.00870977
0.00916972
0.00972738
0.0104041
0.0110531
0.0115951
0.0119899
0.0122257
0.0122862
0.0121638
0.0118526
0.0113409
0.0105735
0.00958418
0.0085083
0.00736315
0.00617483
0.00498441
0.00378891
0.00265634
0.00167439
0.000940382
0.000468674
0.000218819
0.000123817
0.000100389
0.00672671
0.00665249
0.00659962
0.006567
0.00655023
0.00654648
0.0065543
0.00657355
0.00660151
0.00664115
0.00669558
0.00671053
0.00669796
0.00668646
0.00667566
0.00667953
0.00668285
0.00669196
0.00669879
0.00670376
0.00670552
0.00682433
0.006956
0.00712614
0.00734719
0.00761661
0.00795009
0.00833461
0.00879894
0.00930256
0.0099344
0.0107292
0.0115179
0.0122035
0.0127063
0.0130122
0.0131343
0.0130705
0.0128246
0.0123997
0.0117901
0.0109408
0.00989035
0.00877057
0.00759233
0.00637335
0.00515893
0.0039378
0.00277605
0.00175027
0.000989709
0.000488027
0.000223177
0.000123074
0.000100718
0.00682817
0.00672522
0.00664884
0.00659891
0.00656903
0.00655468
0.00655325
0.00656318
0.00658471
0.00661282
0.0066536
0.00670441
0.00671274
0.00669928
0.00668799
0.00667682
0.00667948
0.00668264
0.00669136
0.00669889
0.00670366
0.00670569
0.00696002
0.0071339
0.00735904
0.00763821
0.00798638
0.00839511
0.00889561
0.00944811
0.0101651
0.0110893
0.0120254
0.0128648
0.0135178
0.0139257
0.0141015
0.0140812
0.0138734
0.013491
0.0129436
0.0122302
0.0112954
0.0101821
0.00901811
0.00780737
0.00656024
0.00532314
0.00407961
0.00288665
0.0018384
0.00103551
0.000508295
0.000228398
0.00012225
0.000101077
0.00696562
0.0068248
0.00671774
0.00664523
0.00659868
0.00657155
0.00655958
0.00656028
0.00657206
0.00659515
0.00662249
0.00666304
0.00670914
0.00671409
0.00670117
0.00669009
0.00667828
0.00667952
0.00668249
0.00669083
0.00669906
0.00670351
0.00670583
0.00714214
0.00737242
0.00766033
0.00802354
0.00845743
0.00899505
0.00960032
0.0104088
0.0114626
0.0125378
0.0135191
0.0143209
0.0148828
0.0151643
0.0151931
0.0150209
0.0146642
0.0141425
0.0134711
0.012653
0.0116327
0.0104567
0.00924936
0.00800722
0.00673429
0.00547618
0.00421157
0.00298359
0.00190632
0.00108545
0.000530085
0.000234429
0.000122133
0.000101465
0.00715046
0.00695943
0.00681201
0.00671017
0.00664207
0.0065989
0.00657444
0.00656468
0.00656723
0.00658043
0.00660412
0.00662968
0.00666842
0.00670991
0.0067149
0.00670345
0.00669249
0.00667985
0.0066796
0.0066824
0.00669045
0.00669933
0.00670329
0.00670594
0.00738647
0.00768143
0.00805935
0.00851817
0.00909263
0.00975274
0.0106534
0.0118268
0.0130202
0.0141157
0.0150392
0.0157436
0.0161882
0.016338
0.0162223
0.0159036
0.0154041
0.0147487
0.0139584
0.013041
0.0119423
0.0107101
0.00946272
0.00819109
0.00689489
0.0056172
0.00433289
0.00307716
0.00199294
0.00113225
0.000549015
0.000238646
0.000121048
0.000101865
0.00739767
0.00714003
0.00693924
0.00679906
0.00670308
0.00663935
0.00659946
0.0065775
0.00656969
0.00657366
0.00658766
0.00661077
0.00663359
0.00666938
0.00670763
0.00671538
0.00670592
0.00669494
0.00668135
0.00667967
0.00668237
0.00669028
0.00669972
0.00670298
0.00670608
0.00770157
0.00809191
0.00857445
0.00918449
0.00989982
0.0108889
0.0121663
0.0134512
0.0146274
0.0156353
0.0164448
0.0170282
0.0173521
0.0173812
0.0171384
0.0166908
0.0160646
0.0152896
0.014392
0.0133847
0.0122161
0.0109353
0.00965539
0.00835872
0.00704187
0.00574634
0.00444708
0.0031918
0.0020626
0.00117366
0.000569263
0.000244738
0.000118602
0.000102286
0.0077171
0.00738178
0.00710879
0.00691896
0.00678665
0.00669647
0.00663698
0.00660017
0.00658045
0.00657423
0.00657899
0.00659299
0.00661427
0.00663395
0.00666681
0.00670324
0.00671558
0.0067084
0.0066972
0.00668258
0.00667966
0.00668238
0.00669038
0.00670022
0.00670266
0.00670623
0.00811985
0.00862405
0.00926775
0.0100374
0.0111086
0.0124726
0.0138232
0.0150484
0.0161038
0.0169755
0.0176531
0.0181177
0.0183351
0.0182642
0.0179172
0.0173628
0.0166308
0.0157545
0.0147649
0.0136797
0.0124519
0.0111315
0.00982597
0.00851036
0.00717597
0.00586408
0.00454772
0.00326553
0.0021244
0.00121608
0.000589988
0.00024944
0.000116415
0.000102725
0.00814103
0.00769582
0.00733479
0.00707827
0.0068994
0.00677486
0.00669028
0.00663479
0.00660079
0.00658295
0.0065778
0.00658259
0.00659561
0.00661436
0.00663143
0.00666196
0.00669756
0.00671561
0.00671072
0.00669901
0.00668332
0.00667952
0.00668246
0.00669071
0.00670065
0.00670238
0.00670639
0.00866545
0.00934045
0.0101628
0.0113085
0.0127432
0.0141375
0.0153852
0.0164563
0.0173522
0.01808
0.0186362
0.0189995
0.0191312
0.0189832
0.018556
0.0179183
0.0171026
0.0161455
0.0150818
0.0139337
0.0126566
0.0113022
0.00997714
0.00864801
0.00729988
0.00597305
0.00464825
0.00334406
0.00218719
0.00125954
0.000609951
0.000251299
0.00011526
0.000103187
0.00869644
0.00810942
0.0076298
0.00728953
0.00704907
0.00688061
0.0067636
0.00668434
0.00663256
0.00660101
0.00658459
0.00657984
0.00658394
0.00659524
0.00661164
0.00662698
0.00665589
0.00669136
0.00671562
0.00671272
0.00670013
0.00668339
0.00667921
0.00668255
0.00669094
0.00670097
0.00670217
0.00670656
0.00940155
0.0102743
0.0114871
0.0129796
0.0144003
0.0156494
0.0167105
0.0175998
0.0183402
0.0189431
0.0194005
0.0196857
0.0197536
0.0195485
0.0190609
0.0183604
0.0174819
0.0164642
0.0153449
0.01415
0.0128371
0.0114589
0.0101177
0.00877606
0.00741728
0.00607023
0.00472543
0.00341814
0.00225028
0.00130226
0.000632754
0.000253668
0.000114263
0.000103685
0.00944842
0.0086518
0.00801592
0.00756572
0.00724674
0.00702102
0.00686255
0.00675271
0.00667843
0.00662999
0.00660045
0.00658486
0.0065798
0.00658282
0.00659233
0.00660707
0.00662145
0.00664951
0.00668544
0.00671583
0.00671428
0.00670034
0.00668263
0.00667873
0.00668254
0.00669104
0.0067012
0.006702
0.00670674
0.0103714
0.0116446
0.0131855
0.0146198
0.0158544
0.0168852
0.017743
0.0184652
0.019077
0.0195835
0.0199693
0.0201992
0.0202215
0.0199748
0.0194428
0.0186967
0.0177742
0.0167149
0.0155581
0.0143323
0.0129975
0.0116063
0.0102563
0.00890496
0.00753653
0.00615779
0.00480455
0.00349282
0.0023133
0.00134491
0.000653353
0.000258467
0.000114593
0.00010422
0.0104497
0.00938843
0.00851857
0.00792623
0.00750497
0.00720597
0.00699396
0.00684506
0.00674199
0.00667229
0.00662674
0.00659868
0.00658328
0.0065778
0.00657942
0.00658774
0.00660148
0.00661561
0.00664361
0.00668066
0.00671608
0.00671517
0.00669941
0.00668118
0.00667838
0.00668246
0.00669101
0.00670132
0.0067019
0.0067069
0.0117825
0.0133657
0.0148052
0.0160133
0.0169983
0.0178049
0.0184835
0.0190726
0.0195903
0.0200316
0.020371
0.0205652
0.0205561
0.020279
0.0197142
0.0189367
0.0179864
0.0169025
0.0157246
0.0144829
0.0131399
0.0117464
0.0103959
0.0090387
0.00764179
0.00624612
0.00488605
0.00356835
0.00237548
0.00138965
0.000661701
0.000257735
0.000113105
0.000104784
0.0103866
0.0118976
0.00919606
0.00839282
0.00784152
0.00744721
0.00716682
0.00696774
0.00682794
0.00673117
0.00666559
0.00662243
0.00659528
0.00658026
0.00657395
0.00657467
0.00658224
0.0065956
0.00661017
0.00663892
0.00667829
0.00671722
0.00671514
0.00669755
0.00667998
0.00667825
0.00668232
0.00669084
0.00670135
0.00670182
0.00670701
0.0135258
0.0149656
0.0161388
0.0170666
0.0178065
0.0184211
0.0189612
0.0194571
0.0199151
0.0203192
0.020634
0.0208082
0.0207782
0.0204776
0.019888
0.0190903
0.0181255
0.0170309
0.0158453
0.0146001
0.0132604
0.0118751
0.0105256
0.00915257
0.00774579
0.00633587
0.00496914
0.00364496
0.0024368
0.00142301
0.000671088
0.00025638
0.000110636
0.000105415
0.010128
0.0118379
0.0136673
0.00901322
0.00827582
0.00776108
0.00739191
0.00712895
0.00694214
0.00681092
0.00671995
0.00665798
0.0066167
0.00659069
0.00657566
0.00656888
0.0065692
0.0065765
0.00659011
0.00660579
0.00663616
0.00667874
0.00671943
0.00671422
0.00669623
0.0066792
0.0066783
0.00668213
0.00669052
0.00670127
0.0067017
0.00670707
0.0151095
0.0162427
0.0171051
0.0177671
0.0183015
0.0187707
0.0192164
0.0196563
0.0200851
0.0204763
0.0207845
0.020951
0.0209065
0.0205856
0.0199761
0.0191662
0.0181964
0.0171007
0.0159165
0.014675
0.0133464
0.0119717
0.01063
0.00926314
0.00784848
0.00642679
0.00505574
0.00372079
0.00249995
0.00145349
0.000683282
0.000254978
0.000111539
0.000106081
0.00986648
0.0115432
0.0136331
0.015245
0.0088456
0.00816568
0.00768418
0.00733861
0.00709211
0.00691691
0.00679372
0.00670801
0.00664919
0.00660971
0.00658532
0.00656986
0.00656319
0.00656356
0.00657115
0.00658562
0.00660302
0.00663601
0.00668262
0.00672164
0.00671344
0.00669561
0.00667882
0.00667851
0.0066819
0.00669006
0.00670122
0.00670153
0.0067071
0.0163354
0.0171275
0.0177039
0.0181463
0.0185267
0.0188977
0.0192881
0.0197045
0.0201312
0.0205292
0.0208455
0.0210135
0.0209577
0.0206162
0.0199887
0.0191707
0.0182004
0.0171075
0.0159272
0.0146903
0.0133784
0.0120426
0.0107279
0.00936922
0.0079491
0.00651841
0.00514134
0.00379792
0.00254756
0.00147316
0.00069491
0.000253733
0.000112261
0.000106802
0.00962092
0.0112067
0.0133815
0.0152268
0.0164322
0.00869113
0.00806073
0.00761023
0.00728693
0.00705602
0.0068918
0.00677604
0.00669513
0.00663937
0.00660238
0.00657862
0.0065637
0.0065574
0.00655828
0.00656672
0.00658271
0.00660242
0.00663909
0.00668915
0.00672301
0.00671292
0.00669565
0.00667888
0.00667889
0.00668163
0.00668981
0.00670125
0.00670133
0.0067071
0.0171456
0.0176323
0.0179743
0.018252
0.0185282
0.0188416
0.0192101
0.019634
0.0200794
0.0204996
0.0208369
0.0210133
0.0209459
0.0205804
0.0199331
0.0191062
0.0181331
0.0170398
0.0158596
0.0146379
0.0133923
0.0121048
0.0108175
0.00946931
0.00804809
0.00661179
0.00523476
0.00385744
0.00259449
0.00150043
0.000691687
0.000251276
0.000111793
0.000107584
0.00939482
0.0108652
0.0130508
0.0150535
0.0164056
0.0171781
0.00854653
0.00795989
0.00753878
0.00723653
0.00702042
0.00686649
0.00675772
0.0066816
0.00662914
0.00659477
0.00657143
0.00655757
0.006552
0.00655384
0.00656376
0.00658196
0.00660448
0.00664431
0.00669368
0.00672386
0.00671269
0.00669636
0.00667939
0.00667934
0.00668144
0.00668986
0.00670133
0.00670109
0.00670709
0.0175656
0.0178019
0.0179667
0.0181321
0.0183457
0.018633
0.0190177
0.019471
0.0199481
0.0204063
0.0207759
0.0209655
0.0208826
0.0204861
0.019813
0.0189695
0.0179832
0.0168805
0.015722
0.0145823
0.013398
0.0121567
0.0108976
0.00956229
0.00814446
0.00670619
0.00530932
0.00393254
0.00262563
0.00151897
0.000696509
0.00024781
0.000110126
0.000108433
0.00918599
0.010535
0.0126806
0.0147908
0.0162958
0.0171204
0.017518
0.00840928
0.00786252
0.00746942
0.00718714
0.00698504
0.00684093
0.00673919
0.00666803
0.00661882
0.0065866
0.00656448
0.00655183
0.00654739
0.00655072
0.00656279
0.00658386
0.00660821
0.00664775
0.00669627
0.00672405
0.00671279
0.00669769
0.00668036
0.00667961
0.00668135
0.00669014
0.00670143
0.00670082
0.00670708
0.0176426
0.0176878
0.0177302
0.0178269
0.0180027
0.0183007
0.0187203
0.019227
0.0197559
0.0202641
0.0206785
0.0208834
0.0207765
0.0203376
0.0196268
0.0187503
0.017734
0.0166558
0.0155997
0.0145218
0.0133945
0.0121979
0.0109675
0.00964742
0.00823677
0.00679979
0.00540022
0.00400047
0.00266703
0.00152329
0.000695727
0.000245038
0.000109685
0.000109233
0.0089914
0.0102213
0.0122937
0.0144736
0.0161031
0.0170549
0.0174179
0.0175076
0.00827777
0.00776819
0.00740184
0.00713849
0.00694988
0.00681572
0.0067211
0.00665472
0.00660885
0.00657844
0.00655809
0.00654681
0.00654396
0.00654938
0.00656429
0.00658764
0.00661092
0.00664955
0.0066971
0.00672361
0.0067132
0.00669959
0.0066809
0.00667968
0.00668135
0.00669058
0.00670154
0.00670053
0.00670707
0.0174295
0.0173404
0.0173075
0.0173577
0.0175415
0.0178717
0.0183375
0.0189065
0.0195123
0.0200879
0.0205608
0.020778
0.0206327
0.0201345
0.0193667
0.0184332
0.0174289
0.0164672
0.0154774
0.0144558
0.0133821
0.0122283
0.0110269
0.00972433
0.00832407
0.00689183
0.00548417
0.00405449
0.00270521
0.00154016
0.000689471
0.000239331
0.000108482
0.000110266
0.00880857
0.00992498
0.0119012
0.0141231
0.0158595
0.01691
0.0173707
0.0173552
0.0172014
0.00815102
0.00767657
0.00733575
0.00709071
0.00691583
0.00679161
0.00670373
0.00664199
0.00659928
0.0065707
0.00655237
0.00654288
0.00654211
0.00655027
0.00656754
0.00659034
0.00661249
0.00664972
0.00669616
0.00672263
0.00671393
0.00670062
0.00668075
0.0066796
0.00668145
0.00669113
0.00670162
0.00670024
0.00670706
0.0169778
0.0168055
0.0167267
0.0168057
0.0170369
0.017399
0.0178885
0.0185263
0.0192239
0.0198967
0.0204378
0.0206571
0.020451
0.0198707
0.0190195
0.0180718
0.0171825
0.0162861
0.0153551
0.0143857
0.0133614
0.0122486
0.0110759
0.00979273
0.00840686
0.00698031
0.00556076
0.00412363
0.00274433
0.00154871
0.000685578
0.000235048
0.000107302
0.000111269
0.00863555
0.00964582
0.0115078
0.0137499
0.015584
0.0167221
0.0172524
0.0173142
0.0169929
0.0166527
0.00802836
0.00758743
0.0072714
0.007045
0.00688372
0.00676878
0.00668729
0.00662997
0.00659028
0.00656384
0.00654773
0.00654042
0.00654224
0.00655284
0.00656982
0.00659182
0.00661285
0.00664832
0.00669333
0.00672051
0.00671393
0.00670046
0.00668007
0.00667941
0.00668165
0.00669171
0.00670165
0.00669997
0.00670706
0.016336
0.0161187
0.016067
0.0161964
0.0164711
0.0168722
0.0174026
0.0181002
0.0189011
0.0197038
0.0203252
0.0205227
0.020225
0.0195339
0.0186409
0.0177857
0.0169546
0.0161137
0.0152344
0.014313
0.0133338
0.0122594
0.0111151
0.00985263
0.00848345
0.00706284
0.0056308
0.00417565
0.00276673
0.0015565