/*--------------------------------*- C++ -*----------------------------------*\
  =========                 |
  \\      /  F ield         | OpenFOAM: The Open Source CFD Toolbox
   \\    /   O peration     | Website:  https://openfoam.org
    \\  /    A nd           | Version:  8
     \\/     M anipulation  |
\*---------------------------------------------------------------------------*/
FoamFile
{
    version     2.0;
    format      ascii;
    class       volVectorField;
    location    "100";
    object      U;
}
// * * * * * * * * * * * * * * * * * * * * * * * * * * * * * * * * * * * * * //

dimensions      [0 1 -1 0 0 0 0];

internalField   nonuniform List<vector> 
15677
(
(-2.53854 9.06393 0)
(0.792668 10.3668 0)
(-1.33223 8.2648 0)
(0.12882 10.0152 0)
(0.667037 10.1117 0)
(-0.415141 7.73395 0)
(0.00638053 10.0051 0)
(-0.0361309 10.0874 0)
(0.294851 9.68004 0)
(-0.0847397 7.35022 0)
(0.0282775 10.0104 0)
(0.0130669 10.0516 0)
(-0.0470573 10.0468 0)
(0.098665 9.29138 0)
(-0.00294651 7.07927 0)
(0.0300756 10.0104 0)
(0.0455326 10.0449 0)
(0.0452281 10.0707 0)
(-0.00452251 9.94018 0)
(0.0303595 8.97559 0)
(0.00796596 6.89134 0)
(0.0275135 10.0096 0)
(0.0398364 10.0408 0)
(0.0439838 10.063 0)
(0.05083 10.0624 0)
(0.01998 9.80233 0)
(0.0126096 8.71956 0)
(0.00556112 6.75829 0)
(0.0251562 10.0086 0)
(0.0369603 10.0374 0)
(0.0376697 10.0572 0)
(0.0383936 10.0713 0)
(0.0421324 10.0341 0)
(0.0253229 9.6529 0)
(0.00872778 8.5155 0)
(0.00296185 6.66359 0)
(0.0229548 10.0075 0)
(0.0352661 10.0344 0)
(0.0368684 10.0531 0)
(0.0371772 10.0681 0)
(0.0346574 10.0733 0)
(0.0339107 9.99216 0)
(0.0228909 9.50812 0)
(0.0072734 8.3575 0)
(0.00158813 6.59477 0)
(0.0206751 10.0065 0)
(0.0333705 10.0314 0)
(0.0358074 10.0496 0)
(0.0368905 10.0643 0)
(0.0357142 10.0772 0)
(0.0322983 10.069 0)
(0.0285471 9.94157 0)
(0.0188085 9.37452 0)
(0.00590832 8.23752 0)
(0.000823347 6.54622 0)
(0.0183315 10.0054 0)
(0.0312293 10.0282 0)
(0.0343327 10.0462 0)
(0.0356834 10.0607 0)
(0.034985 10.075 0)
(0.0331577 10.0835 0)
(0.0298591 10.0598 0)
(0.0246271 9.88727 0)
(0.0149253 9.25808 0)
(0.00439147 8.14806 0)
(0.000224482 6.51667 0)
(0.015985 10.0044 0)
(0.0289159 10.025 0)
(0.0326588 10.0428 0)
(0.034273 10.0573 0)
(0.0337381 10.0718 0)
(0.0321914 10.0846 0)
(0.0301319 10.0879 0)
(0.0268956 10.0485 0)
(0.0210238 9.83305 0)
(0.0113949 9.16235 0)
(0.00277198 8.08394 0)
(-0.000295237 6.50453 0)
(0.0136888 10.0036 0)
(0.0264517 10.0217 0)
(0.0307819 10.0392 0)
(0.0327087 10.0539 0)
(0.0323621 10.0684 0)
(0.0309641 10.0824 0)
(0.0291512 10.0937 0)
(0.0268125 10.092 0)
(0.0234166 10.0372 0)
(0.0172509 9.78248 0)
(0.00805963 9.08763 0)
(0.0011431 8.04152 0)
(-0.000753015 6.50631 0)
(0.0115054 10.0028 0)
(0.0238653 10.0185 0)
(0.0286719 10.0355 0)
(0.0309244 10.0503 0)
(0.0307836 10.065 0)
(0.0294973 10.0794 0)
(0.0278132 10.0933 0)
(0.0257569 10.1036 0)
(0.0231139 10.0973 0)
(0.0194626 10.0274 0)
(0.0131813 9.73838 0)
(0.00479682 9.03343 0)
(-0.000485416 8.0203 0)
(-0.00123263 6.52046 0)
(0.00964951 10.0022 0)
(0.0211934 10.0154 0)
(0.0263279 10.0315 0)
(0.0288836 10.0465 0)
(0.0289664 10.0613 0)
(0.0277647 10.076 0)
(0.0261013 10.0909 0)
(0.0241388 10.1055 0)
(0.021798 10.1153 0)
(0.018883 10.1048 0)
(0.0150103 10.0209 0)
(0.00880382 9.70383 0)
(0.00145517 8.99945 0)
(-0.00219158 8.01884 0)
(-0.00180943 6.54773 0)
(0.00815697 10.0017 0)
(0.0187189 10.0128 0)
(0.0237784 10.0275 0)
(0.0265642 10.0424 0)
(0.0268872 10.0574 0)
(0.0257641 10.0723 0)
(0.0240601 10.0877 0)
(0.0220366 10.104 0)
(0.0197393 10.1199 0)
(0.0171016 10.1297 0)
(0.013964 10.1158 0)
(0.0100028 10.0196 0)
(0.00404507 9.6809 0)
(-0.00205577 8.98526 0)
(-0.00410258 8.03584 0)
(-0.00247159 6.58855 0)
(0.00692464 10.0014 0)
(0.0165542 10.0107 0)
(0.021314 10.0239 0)
(0.0239656 10.0379 0)
(0.0245183 10.0531 0)
(0.023476 10.0683 0)
(0.0216988 10.0841 0)
(0.019524 10.1012 0)
(0.0170888 10.1196 0)
(0.0144311 10.1373 0)
(0.0115098 10.1479 0)
(0.00825531 10.1315 0)
(0.0043164 10.0248 0)
(-0.00113271 9.67146 0)
(-0.00585342 8.99028 0)
(-0.00622629 8.07012 0)
(-0.00321515 6.64323 0)
(0.00589884 10.0011 0)
(0.014615 10.0091 0)
(0.0190842 10.0209 0)
(0.0213871 10.0338 0)
(0.0218409 10.0483 0)
(0.0208734 10.0639 0)
(0.0190006 10.08 0)
(0.0166126 10.0976 0)
(0.0139214 10.1171 0)
(0.0110449 10.1383 0)
(0.00802829 10.1586 0)
(0.00491064 10.1707 0)
(0.00161815 10.1532 0)
(-0.00210462 10.0383 0)
(-0.00683064 9.6766 0)
(-0.00994821 9.0138 0)
(-0.00856851 8.12121 0)
(-0.00403047 6.71159 0)
(0.00503882 10.0009 0)
(0.0128784 10.0077 0)
(0.0170243 10.0183 0)
(0.0190201 10.0302 0)
(0.0191437 10.0437 0)
(0.0179358 10.0589 0)
(0.0159429 10.0754 0)
(0.0132912 10.0934 0)
(0.0102506 10.1136 0)
(0.00700964 10.1363 0)
(0.0036829 10.1609 0)
(0.00038065 10.1846 0)
(-0.00285961 10.1993 0)
(-0.00603017 10.1818 0)
(-0.00936662 10.0614 0)
(-0.0130543 9.69715 0)
(-0.0143881 9.05519 0)
(-0.0111125 8.18834 0)
(-0.00491071 6.79338 0)
(0.00431397 10.0007 0)
(0.0113238 10.0066 0)
(0.015128 10.0161 0)
(0.0168073 10.027 0)
(0.0166378 10.0396 0)
(0.0149711 10.0539 0)
(0.0125107 10.0702 0)
(0.00954396 10.0885 0)
(0.00607025 10.1092 0)
(0.00233927 10.1327 0)
(-0.001469 10.1594 0)
(-0.0051877 10.1883 0)
(-0.00870444 10.2163 0)
(-0.0119151 10.2346 0)
(-0.0148107 10.2184 0)
(-0.0174755 10.0952 0)
(-0.0198338 9.73349 0)
(-0.0191734 9.11384 0)
(-0.0138591 8.27118 0)
(-0.00583148 6.88823 0)
(0.00370143 10.0006 0)
(0.00993255 10.0057 0)
(0.0133877 10.0142 0)
(0.0147514 10.0242 0)
(0.0142755 10.0358 0)
(0.0122113 10.0493 0)
(0.00906297 10.0647 0)
(0.00536484 10.0829 0)
(0.00137027 10.1039 0)
(-0.00297123 10.1281 0)
(-0.00741841 10.1558 0)
(-0.0117485 10.1873 0)
(-0.0157882 10.2214 0)
(-0.0193695 10.2545 0)
(-0.0223902 10.2775 0)
(-0.0247478 10.2641 0)
(-0.0264516 10.1407 0)
(-0.027165 9.78578 0)
(-0.0243144 9.18917 0)
(-0.0167702 8.36891 0)
(-0.00678802 6.9954 0)
(0.00320067 10.0005 0)
(0.00868954 10.0049 0)
(0.0117962 10.0125 0)
(0.0128521 10.0217 0)
(0.0120709 10.0324 0)
(0.00961053 10.0449 0)
(0.00586646 10.0595 0)
(0.00119462 10.0769 0)
(-0.00384353 10.0977 0)
(-0.00892713 10.1223 0)
(-0.0141732 10.1507 0)
(-0.0193036 10.1836 0)
(-0.0240833 10.2207 0)
(-0.0282934 10.2608 0)
(-0.0317641 10.3001 0)
(-0.0343305 10.3288 0)
(-0.0358602 10.3194 0)
(-0.0362745 10.1986 0)
(-0.0350399 9.85379 0)
(-0.0297642 9.28038 0)
(-0.0198534 8.48091 0)
(-0.00775927 7.11403 0)
(0.00280458 10.0004 0)
(0.00762787 10.0042 0)
(0.0103468 10.0111 0)
(0.0111074 10.0194 0)
(0.0100322 10.0292 0)
(0.00719078 10.0408 0)
(0.0028706 10.0545 0)
(-0.00264815 10.071 0)
(-0.00901403 10.0909 0)
(-0.0155093 10.1153 0)
(-0.021736 10.1443 0)
(-0.0278684 10.178 0)
(-0.0336099 10.2169 0)
(-0.0386849 10.2605 0)
(-0.0428722 10.3075 0)
(-0.0459559 10.3538 0)
(-0.0477613 10.389 0)
(-0.0481265 10.385 0)
(-0.0469098 10.2691 0)
(-0.0433911 9.93706 0)
(-0.0355058 9.38671 0)
(-0.023048 8.6062 0)
(-0.00874257 7.24312 0)
(0.00248966 10.0003 0)
(0.00676201 10.0037 0)
(0.00908718 10.0099 0)
(0.00951451 10.0174 0)
(0.00816381 10.0263 0)
(0.00496701 10.037 0)
(0.000104097 10.0497 0)
(-0.00622424 10.0651 0)
(-0.0137495 10.0841 0)
(-0.0220058 10.1075 0)
(-0.0300734 10.1363 0)
(-0.0374455 10.1707 0)
(-0.0443953 10.2106 0)
(-0.0505896 10.2564 0)
(-0.0557489 10.3074 0)
(-0.059617 10.3621 0)
(-0.0619788 10.4161 0)
(-0.0626577 10.4587 0)
(-0.0614924 10.4613 0)
(-0.0582583 10.3523 0)
(-0.0521961 10.035 0)
(-0.0414597 9.50688 0)
(-0.0263337 8.74358 0)
(-0.00971705 7.38147 0)
(0.00223581 10.0003 0)
(0.00605651 10.0034 0)
(0.00804322 10.0089 0)
(0.0081315 10.0156 0)
(0.00646794 10.0237 0)
(0.00294934 10.0334 0)
(-0.00241103 10.045 0)
(-0.00949711 10.0593 0)
(-0.0181261 10.0772 0)
(-0.0279264 10.0995 0)
(-0.0382759 10.1272 0)
(-0.0479872 10.1614 0)
(-0.0564459 10.2023 0)
(-0.064054 10.2494 0)
(-0.0704699 10.3028 0)
(-0.0753935 10.3621 0)
(-0.078575 10.4252 0)
(-0.0798141 10.4875 0)
(-0.0789637 10.5382 0)
(-0.075853 10.5483 0)
(-0.0702458 10.4479 0)
(-0.0613185 10.1465 0)
(-0.0476027 9.63985 0)
(-0.0296525 8.89172 0)
(-0.0106756 7.5279 0)
(0.00202853 10.0003 0)
(0.00547699 10.003 0)
(0.00718042 10.0081 0)
(0.00699096 10.0141 0)
(0.00501025 10.0213 0)
(0.00114417 10.03 0)
(-0.0046587 10.0405 0)
(-0.0124366 10.0537 0)
(-0.0220976 10.0702 0)
(-0.0333677 10.0913 0)
(-0.0457255 10.1178 0)
(-0.0583375 10.1508 0)
(-0.0697 10.1914 0)
(-0.0790912 10.2397 0)
(-0.0871077 10.2949 0)
(-0.0934013 10.3569 0)
(-0.0976848 10.4251 0)
(-0.0997357 10.4971 0)
(-0.0993979 10.5683 0)
(-0.0965558 10.6276 0)
(-0.0911007 10.6459 0)
(-0.0827392 10.5554 0)
(-0.0706906 10.2707 0)
(-0.0538273 9.7843 0)
(-0.032983 9.04934 0)
(-0.0115992 7.68096 0)
(0.00185736 10.0002 0)
(0.00499723 10.0028 0)
(0.00646346 10.0074 0)
(0.00605491 10.0129 0)
(0.00382485 10.0193 0)
(-0.00037714 10.0269 0)
(-0.00662775 10.0363 0)
(-0.0150193 10.0481 0)
(-0.025624 10.0633 0)
(-0.0382713 10.0828 0)
(-0.052545 10.1079 0)
(-0.0677173 10.1395 0)
(-0.0827014 10.1788 0)
(-0.0956281 10.227 0)
(-0.105691 10.2837 0)
(-0.113745 10.3478 0)
(-0.119471 10.4192 0)
(-0.122618 10.4968 0)
(-0.123026 10.5783 0)
(-0.120598 10.6587 0)
(-0.115305 10.7268 0)
(-0.107063 10.7538 0)
(-0.0956171 10.6741 0)
(-0.0801965 10.4061 0)
(-0.060073 9.93873 0)
(-0.0362687 9.21474 0)
(-0.0124861 7.83932 0)
(0.00171467 10.0002 0)
(0.00459718 10.0026 0)
(0.00586451 10.0068 0)
(0.00528368 10.0119 0)
(0.00286823 10.0176 0)
(-0.00158409 10.0243 0)
(-0.00823938 10.0324 0)
(-0.0172278 10.0428 0)
(-0.0286728 10.0564 0)
(-0.0425848 10.0743 0)
(-0.0586606 10.0976 0)
(-0.0762834 10.1275 0)
(-0.0944723 10.1654 0)
(-0.111847 10.212 0)
(-0.126133 10.2688 0)
(-0.136476 10.3349 0)
(-0.144085 10.4088 0)
(-0.148694 10.4901 0)
(-0.150126 10.5776 0)
(-0.148303 10.6688 0)
(-0.143252 10.7586 0)
(-0.135006 10.8356 0)
(-0.123578 10.8716 0)
(-0.108711 10.8031 0)
(-0.0897437 10.5514 0)
(-0.0662638 10.1015 0)
(-0.0394951 9.38653 0)
(-0.0133262 8.00157 0)
(0.00159471 10.0002 0)
(0.00426135 10.0024 0)
(0.00536153 10.0064 0)
(0.00464575 10.011 0)
(0.0020953 10.0162 0)
(-0.00252924 10.022 0)
(-0.00947019 10.029 0)
(-0.0189728 10.0378 0)
(-0.0312182 10.0497 0)
(-0.0462639 10.0657 0)
(-0.0640038 10.087 0)
(-0.0839424 10.115 0)
(-0.105211 10.1509 0)
(-0.12653 10.196 0)
(-0.146198 10.2511 0)
(-0.161509 10.3175 0)
(-0.171608 10.3939 0)
(-0.178158 10.4783 0)
(-0.18099 10.57 0)
(-0.180038 10.6677 0)
(-0.175379 10.7687 0)
(-0.167141 10.8677 0)
(-0.155466 10.9536 0)
(-0.140447 10.9985 0)
(-0.12188 10.9412 0)
(-0.0992302 10.7054 0)
(-0.0723497 10.2713 0)
(-0.0426286 9.56327 0)
(-0.0141292 8.16653 0)
(0.00149311 10.0002 0)
(0.00397767 10.0023 0)
(0.00493707 10.006 0)
(0.00411611 10.0102 0)
(0.00147009 10.0149 0)
(-0.00326562 10.0201 0)
(-0.0103879 10.026 0)
(-0.0202413 10.0334 0)
(-0.0331563 10.0433 0)
(-0.0492722 10.0571 0)
(-0.0685162 10.0763 0)
(-0.0906065 10.1019 0)
(-0.114801 10.1356 0)
(-0.139927 10.1786 0)
(-0.164378 10.232 0)
(-0.186108 10.2967 0)
(-0.201952 10.3737 0)
(-0.211127 10.4612 0)
(-0.215878 10.5566 0)
(-0.216184 10.6591 0)
(-0.212156 10.767 0)
(-0.204015 10.8776 0)
(-0.192028 10.9857 0)
(-0.176449 11.0801 0)
(-0.157488 11.1338 0)
(-0.13501 11.0874 0)
(-0.108554 10.8665 0)
(-0.0782745 10.4465 0)
(-0.0456539 9.74357 0)
(-0.0148533 8.33283 0)
(0.00140653 10.0002 0)
(0.00373667 10.0021 0)
(0.00457722 10.0056 0)
(0.00367483 10.0096 0)
(0.000963995 10.0138 0)
(-0.00383565 10.0184 0)
(-0.0110588 10.0234 0)
(-0.0211233 10.0295 0)
(-0.034488 10.0376 0)
(-0.0514863 10.049 0)
(-0.0721478 10.0655 0)
(-0.096199 10.0886 0)
(-0.123129 10.1195 0)
(-0.151893 10.1599 0)
(-0.180984 10.2111 0)
(-0.208425 10.2741 0)
(-0.231817 10.3494 0)
(-0.247535 10.4379 0)
(-0.254968 10.5371 0)
(-0.257078 10.6439 0)
(-0.254056 10.7573 0)
(-0.246207 10.8754 0)
(-0.233927 10.9954 0)
(-0.217635 11.1121 0)
(-0.197728 11.2145 0)
(-0.174514 11.2763 0)
(-0.147947 11.2404 0)
(-0.117638 11.0332 0)
(-0.0840066 10.6257 0)
(-0.0485054 9.92588 0)
(-0.015709 8.51865 0)
(0.00133232 10.0002 0)
(0.00353087 10.002 0)
(0.00427087 10.0054 0)
(0.003306 10.009 0)
(0.000554209 10.0129 0)
(-0.00427325 10.0169 0)
(-0.011536 10.0212 0)
(-0.0217046 10.0261 0)
(-0.0353342 10.0325 0)
(-0.0529243 10.0416 0)
(-0.074749 10.0551 0)
(-0.100653 10.075 0)
(-0.130096 10.103 0)
(-0.162286 10.1403 0)
(-0.195835 10.1886 0)
(-0.22885 10.2492 0)
(-0.25897 10.3228 0)
(-0.283451 10.4097 0)
(-0.298225 10.5105 0)
(-0.30297 10.622 0)
(-0.301509 10.7404 0)
(-0.294295 10.8646 0)
(-0.281858 10.9925 0)
(-0.26479 11.1214 0)
(-0.24368 11.246 0)
(-0.219046 11.3557 0)
(-0.191335 11.4251 0)
(-0.160564 11.3987 0)
(-0.126432 11.2043 0)
(-0.0894601 10.8073 0)
(-0.0516032 10.1302 0)
(-0.0165401 8.72265 0)
(0.00126838 10.0001 0)
(0.0033543 10.002 0)
(0.00400907 10.0051 0)
(0.00299681 10.0086 0)
(0.000222422 10.0121 0)
(-0.00460565 10.0156 0)
(-0.0118622 10.0192 0)
(-0.0220544 10.0231 0)
(-0.0358077 10.028 0)
(-0.0537479 10.0351 0)
(-0.0763591 10.0456 0)
(-0.103786 10.0618 0)
(-0.135617 10.086 0)
(-0.170979 10.1199 0)
(-0.208753 10.1648 0)
(-0.247158 10.2223 0)
(-0.283885 10.2934 0)
(-0.316189 10.3787 0)
(-0.341011 10.4781 0)
(-0.353867 10.5919 0)
(-0.354855 10.716 0)
(-0.348822 10.846 0)
(-0.336522 10.9806 0)
(-0.318735 11.1178 0)
(-0.296259 11.2549 0)
(-0.269852 11.3867 0)
(-0.240167 11.5029 0)
(-0.207791 11.5788 0)
(-0.17277 11.5613 0)
(-0.134825 11.3778 0)
(-0.095216 11.0111 0)
(-0.0547518 10.3551 0)
(-0.0172108 8.92337 0)
(0.00121289 10.0001 0)
(0.00320214 10.0019 0)
(0.00378459 10.0049 0)
(0.00273683 10.0082 0)
(-4.62058e-05 10.0114 0)
(-0.00485487 10.0145 0)
(-0.0120721 10.0174 0)
(-0.0222289 10.0204 0)
(-0.0360002 10.024 0)
(-0.054106 10.0292 0)
(-0.0771911 10.0372 0)
(-0.10566 10.0498 0)
(-0.139463 10.0695 0)
(-0.177861 10.0989 0)
(-0.21958 10.14 0)
(-0.263129 10.1937 0)
(-0.306289 10.2615 0)
(-0.346326 10.3443 0)
(-0.380128 10.4423 0)
(-0.404356 10.555 0)
(-0.414166 10.6822 0)
(-0.41024 10.8189 0)
(-0.398594 10.9603 0)
(-0.380314 11.1049 0)
(-0.356438 11.2508 0)
(-0.32798 11.3952 0)
(-0.295872 11.5333 0)
(-0.260874 11.655 0)
(-0.223727 11.7366 0)
(-0.184461 11.7264 0)
(-0.143702 11.5733 0)
(-0.101212 11.2362 0)
(-0.0575148 10.5769 0)
(-0.0177547 9.11871 0)
(0.00116491 10.0001 0)
(0.0030701 10.0018 0)
(0.00359144 10.0047 0)
(0.00251759 10.0078 0)
(-0.000263799 10.0108 0)
(-0.00503885 10.0135 0)
(-0.0121936 10.0158 0)
(-0.0222731 10.018 0)
(-0.0359859 10.0205 0)
(-0.0541195 10.024 0)
(-0.0774397 10.0296 0)
(-0.106551 10.0391 0)
(-0.141721 10.0544 0)
(-0.182645 10.0784 0)
(-0.228172 10.1142 0)
(-0.276564 10.1636 0)
(-0.325911 10.2273 0)
(-0.373532 10.3068 0)
(-0.416271 10.4024 0)
(-0.450674 10.5141 0)
(-0.473197 10.6406 0)
(-0.478713 10.7814 0)
(-0.468653 10.9308 0)
(-0.450338 11.083 0)
(-0.425204 11.2369 0)
(-0.394555 11.3906 0)
(-0.359616 11.5415 0)
(-0.321462 11.6848 0)
(-0.281005 11.8109 0)
(-0.238984 11.8967 0)
(-0.196853 11.9123 0)
(-0.152899 11.7893 0)
(-0.106576 11.4585 0)
(-0.0599202 10.7935 0)
(-0.0181887 9.30706 0)
(0.00295514 10.0018 0)
(0.00110667 10.0001 0)
(0.00342397 10.0045 0)
(0.00233214 10.0075 0)
(-0.000440279 10.0102 0)
(-0.00517226 10.0126 0)
(-0.0122491 10.0144 0)
(-0.0222232 10.0159 0)
(-0.0358238 10.0173 0)
(-0.0538854 10.0194 0)
(-0.077262 10.0229 0)
(-0.106709 10.0294 0)
(-0.142743 10.0408 0)
(-0.185442 10.0596 0)
(-0.234169 10.089 0)
(-0.287282 10.1323 0)
(-0.342505 10.1913 0)
(-0.397476 10.2665 0)
(-0.449046 10.3588 0)
(-0.493652 10.4683 0)
(-0.527557 10.5943 0)
(-0.547108 10.7351 0)
(-0.546989 10.8896 0)
(-0.529543 11.0511 0)
(-0.503521 11.2136 0)
(-0.470713 11.3759 0)
(-0.432673 11.5364 0)
(-0.390826 11.6926 0)
(-0.346377 11.8401 0)
(-0.300327 11.9692 0)
(-0.255175 12.077 0)
(-0.209606 12.1179 0)
(-0.161194 12.0028 0)
(-0.111329 11.6762 0)
(-0.0619966 11.003 0)
(-0.0185153 9.48748 0)
(0.00327615 10.0044 0)
(0.00281934 10.0017 0)
(0.00103536 10.0001 0)
(0.00217393 10.0072 0)
(-0.000583606 10.0097 0)
(-0.00526698 10.0118 0)
(-0.0122569 10.0132 0)
(-0.0221078 10.014 0)
(-0.0355604 10.0145 0)
(-0.0534799 10.0152 0)
(-0.0767829 10.0169 0)
(-0.106337 10.0209 0)
(-0.142845 10.0287 0)
(-0.18669 10.0427 0)
(-0.237697 10.0659 0)
(-0.294824 10.1016 0)
(-0.355838 10.1538 0)
(-0.417854 10.2237 0)
(-0.478053 10.3116 0)
(-0.53282 10.4179 0)
(-0.57823 10.5423 0)
(-0.610355 10.6832 0)
(-0.625539 10.8384 0)
(-0.61838 11.0063 0)
(-0.592304 11.1794 0)
(-0.557585 11.3513 0)
(-0.516349 11.5211 0)
(-0.470383 11.6873 0)
(-0.421283 11.8478 0)
(-0.370382 11.998 0)
(-0.320868 12.1475 0)
(-0.271823 12.2765 0)
(-0.221082 12.3212 0)
(-0.168559 12.2117 0)
(-0.115474 11.8872 0)
(-0.0637614 11.2045 0)
(-0.0187494 9.6593 0)
(0.00203274 10.0069 0)
(0.00311324 10.0042 0)
(0.00264876 10.0016 0)
(0.000966735 10.0001 2.05345e-19)
(-0.000700748 10.0093 0)
(-0.00533206 10.0111 0)
(-0.0122312 10.0121 0)
(-0.0219494 10.0124 0)
(-0.0352316 10.0121 0)
(-0.0529621 10.0116 0)
(-0.0760994 10.0117 0)
(-0.105591 10.0133 0)
(-0.142281 10.0179 0)
(-0.186785 10.0276 0)
(-0.239297 10.045 0)
(-0.299326 10.0734 0)
(-0.365327 10.1168 0)
(-0.434372 10.1791 0)
(-0.502921 10.2615 0)
(-0.567703 10.3634 0)
(-0.624667 10.4848 0)
(-0.669605 10.6247 0)
(-0.698503 10.7809 0)
(-0.707831 10.9505 0)
(-0.69221 11.1313 0)
(-0.656298 11.3152 0)
(-0.611959 11.4955 0)
(-0.561627 11.6715 0)
(-0.507291 11.8424 0)
(-0.450687 12.0056 0)
(-0.39594 12.1759 0)
(-0.342027 12.3451 0)
(-0.286881 12.4742 0)
(-0.231291 12.5202 0)
(-0.175018 12.4143 0)
(-0.119029 12.0905 0)
(-0.0652188 11.3971 0)
(-0.018898 9.82207 0)
(-0.000807808 10.009 0)
(0.00189645 10.0066 0)
(0.00291509 10.004 8.8768e-19)
(0.00248424 10.0015 -6.49735e-19)
(0.000900234 10.0001 -4.2129e-19)
(-0.00537429 10.0105 0)
(-0.012182 10.0112 0)
(-0.0217648 10.011 0)
(-0.0348648 10.01 0)
(-0.0523763 10.0085 0)
(-0.0752847 10.007 0)
(-0.104593 10.0065 0)
(-0.141247 10.0083 0)
(-0.186039 10.0141 0)
(-0.239453 10.0262 0)
(-0.301439 10.0478 0)
(-0.371101 10.0826 0)
(-0.446288 10.1349 0)
(-0.523282 10.2089 0)
(-0.597851 10.3051 0)
(-0.666307 10.4223 0)
(-0.724224 10.5598 0)
(-0.767215 10.7158 0)
(-0.791308 10.8874 0)
(-0.793239 11.0711 0)
(-0.767753 11.2641 0)
(-0.720868 11.4577 0)
(-0.666075 11.6452 0)
(-0.606077 11.8264 0)
(-0.543037 12.0004 0)
(-0.482062 12.1837 0)
(-0.422355 12.3733 0)
(-0.36127 12.5411 0)
(-0.300326 12.6681 0)
(-0.240248 12.7133 0)
(-0.180583 12.6094 0)
(-0.122001 12.2852 0)
(-0.0663949 11.5804 0)
(-0.0189858 9.9756 0)
(-0.005418 10.01 0)
(-0.000875719 10.0085 -1.74083e-18)
(0.00174645 10.0063 -9.33348e-19)
(0.00272484 10.0038 4.55495e-19)
(0.00232401 10.0014 -4.44061e-19)
(0.000835927 10.0001 0)
(-0.0121154 10.0104 0)
(-0.0215647 10.0097 0)
(-0.0344798 10.0081 0)
(-0.0517558 10.0057 0)
(-0.0743937 10.0029 0)
(-0.103434 10.0006 0)
(-0.139895 9.99979 0)
(-0.184697 10.002 0)
(-0.238548 10.0095 0)
(-0.301749 10.0248 0)
(-0.373934 10.0516 0)
(-0.453701 10.094 0)
(-0.538192 10.1567 0)
(-0.622806 10.2438 0)
(-0.702609 10.3553 0)
(-0.773563 10.4889 0)
(-0.830961 10.6432 0)
(-0.870357 10.8156 0)
(-0.887973 11.0026 0)
(-0.880949 11.1997 0)
(-0.844249 11.404 0)
(-0.785352 11.6061 0)
(-0.719388 11.7996 0)
(-0.649262 11.9845 0)
(-0.581257 12.1789 0)
(-0.514611 12.3816 0)
(-0.44645 12.5693 0)
(-0.378514 12.7336 0)
(-0.31216 12.8566 0)
(-0.247982 12.8996 0)
(-0.185303 12.7964 0)
(-0.124476 12.4707 0)
(-0.0673265 11.7539 0)
(-0.0190118 10.1198 0)
(-0.0120673 10.0097 0)
(-0.005373 10.0094 3.66464e-18)
(-0.000908485 10.008 0)
(0.00160181 10.0059 9.56689e-19)
(0.00254106 10.0036 4.6502e-22)
(0.00216785 10.0013 0)
(0.000773829 10.0001 0)
(-0.021354 10.0087 0)
(-0.0340882 10.0065 0)
(-0.0511239 10.0033 0)
(-0.0734672 9.99939 0)
(-0.102182 9.9954 0)
(-0.138337 9.99228 0)
(-0.182946 9.99136 0)
(-0.236882 9.99451 0)
(-0.300723 10.0042 0)
(-0.374529 10.0237 0)
(-0.45752 10.0568 0)
(-0.547692 10.1081 0)
(-0.641375 10.1826 0)
(-0.733006 10.2844 0)
(-0.81697 10.4126 0)
(-0.888988 10.5636 0)
(-0.944189 10.7353 0)
(-0.978213 10.9243 0)
(-0.987624 11.1261 0)
(-0.9701 11.3358 0)
(-0.92092 11.5502 0)
(-0.8491 11.7596 0)
(-0.771362 11.9576 0)
(-0.695581 12.1635 0)
(-0.621053 12.3775 0)
(-0.544439 12.5784 0)
(-0.468126 12.762 0)
(-0.39374 12.9209 0)
(-0.322404 13.0385 0)
(-0.254536 13.0781 0)
(-0.189261 12.9746 0)
(-0.126509 12.6468 0)
(-0.068061 11.9177 0)
(-0.0189961 10.255 0)
(-0.0211856 10.0078 0)
(-0.0118606 10.0089 4.47364e-22)
(-0.00521043 10.0087 0)
(-0.00094196 10.0075 -1.00531e-18)
(0.00146601 10.0056 3.80127e-22)
(0.00236335 10.0034 0)
(0.00201594 10.0012 0)
(0.000713955 10.0001 0)
(-0.0336935 10.0051 0)
(-0.0504937 10.0012 0)
(-0.0725339 9.99629 0)
(-0.100889 9.99083 0)
(-0.136659 9.98564 0)
(-0.180928 9.98187 0)
(-0.234689 9.98118 0)
(-0.298732 9.98576 0)
(-0.373452 9.99852 0)
(-0.45858 10.0231 0)
(-0.552834 10.0638 0)
(-0.653502 10.1255 0)
(-0.756002 10.2134 0)
(-0.853756 10.3314 0)
(-0.940522 10.4775 0)
(-1.01192 10.6468 0)
(-1.06308 10.8362 0)
(-1.08986 11.0416 0)
(-1.08933 11.2576 0)
(-1.05982 11.4789 0)
(-0.996997 11.7021 0)
(-0.911455 11.9172 0)
(-0.827284 12.1369 0)
(-0.74398 12.363 0)
(-0.657673 12.5755 0)
(-0.571384 12.7721 0)
(-0.487344 12.9498 0)
(-0.406969 13.1021 0)
(-0.33114 13.2132 0)
(-0.26005 13.2484 0)
(-0.192564 13.1437 0)
(-0.128155 12.8133 0)
(-0.0686538 12.0721 0)
(-0.0189744 10.3814 0)
(-0.0333726 10.004 0)
(-0.0207591 10.0068 -2.03081e-18)
(-0.0114113 10.0081 0)
(-0.0050594 10.008 0)
(-0.000962943 10.007 3.09061e-18)
(0.00133856 10.0052 0)
(0.00219186 10.0032 0)
(0.00186838 10.0012 9.57775e-19)
(0.000656351 10.0001 0)
(-0.0498682 9.99943 0)
(-0.0716095 9.9936 0)
(-0.0995903 9.98683 0)
(-0.134928 9.97978 0)
(-0.178753 9.97345 0)
(-0.232149 9.96928 0)
(-0.296063 9.96922 0)
(-0.371154 9.97589 0)
(-0.457562 9.99261 0)
(-0.554603 10.0235 0)
(-0.66039 10.0732 0)
(-0.771397 10.1469 0)
(-0.882055 10.2499 0)
(-0.984736 10.3855 0)
(-1.07267 10.5506 0)
(-1.14156 10.7388 0)
(-1.18668 10.946 0)
(-1.20431 11.1672 0)
(-1.19213 11.3966 0)
(-1.14925 11.6282 0)
(-1.07171 11.8585 0)
(-0.978766 12.0964 0)
(-0.885898 12.3373 0)
(-0.788673 12.5623 0)
(-0.690881 12.7707 0)
(-0.595373 12.9612 0)
(-0.504123 13.1317 0)
(-0.418307 13.2762 0)
(-0.338504 13.3801 0)
(-0.264669 13.4101 0)
(-0.195332 13.3035 0)
(-0.129593 12.9703 0)
(-0.069185 12.2171 0)
(-0.0189736 10.4996 0)
(-0.0493578 9.9979 0)
(-0.0326525 10.0027 0)
(-0.0199102 10.0057 -2.27834e-18)
(-0.0109907 10.0072 -2.21883e-18)
(-0.0048909 10.0074 -4.32583e-18)
(-0.000971706 10.0065 0)
(0.00121951 10.0049 -2.06077e-18)
(0.00202687 10.003 -2.01194e-18)
(0.00172516 10.0011 9.81725e-19)
(0.000600923 10.0001 0)
(-0.0706973 9.99127 0)
(-0.0983069 9.98333 0)
(-0.133191 9.97463 0)
(-0.176505 9.96599 0)
(-0.229401 9.95867 0)
(-0.292944 9.95441 0)
(-0.367994 9.95555 0)
(-0.455013 9.9651 0)
(-0.553809 9.98685 0)
(-0.663188 10.0253 0)
(-0.780549 10.0856 0)
(-0.901468 10.173 0)
(-1.01932 10.2926 0)
(-1.12544 10.4473 0)
(-1.21265 10.6323 0)
(-1.27695 10.8397 0)
(-1.31394 11.0646 0)
(-1.32048 11.3009 0)
(-1.29504 11.5425 0)
(-1.23748 11.7828 0)
(-1.15276 12.0372 0)
(-1.04962 12.2975 0)
(-0.940215 12.538 0)
(-0.829333 12.7592 0)
(-0.720549 12.9614 0)
(-0.616408 13.1445 0)
(-0.51857 13.3067 0)
(-0.427914 13.4427 0)
(-0.34469 13.5387 0)
(-0.268549 13.563 0)
(-0.197723 13.4542 0)
(-0.13092 13.1182 0)
(-0.0696776 12.3534 0)
(-0.0189778 10.6102 0)
(-0.0699531 9.98926 0)
(-0.0482519 9.99628 -2.2615e-18)
(-0.031259 10.0013 2.39798e-18)
(-0.0191159 10.0046 -1.71639e-21)
(-0.0105457 10.0063 2.27057e-18)
(-0.00470484 10.0067 2.21533e-18)
(-0.000968512 10.006 4.32672e-18)
(0.00110899 10.0046 3.16743e-18)
(0.00186814 10.0028 -1.03094e-18)
(0.00158631 10.001 0)
(0.000547678 10.0001 0)
(-0.0970426 9.98029 0)
(-0.131473 9.9701 0)
(-0.174248 9.95939 0)
(-0.226555 9.94923 0)
(-0.289553 9.94117 0)
(-0.364255 9.93728 0)
(-0.451375 9.9403 0)
(-0.551113 9.9537 0)
(-0.662852 9.98172 0)
(-0.784784 10.0293 0)
(-0.913507 10.1017 0)
(-1.04361 10.2045 0)
(-1.16739 10.3423 0)
(-1.27516 10.5173 0)
(-1.35953 10.723 0)
(-1.41703 10.9497 0)
(-1.44374 11.1917 0)
(-1.43731 11.4422 0)
(-1.39702 11.6943 0)
(-1.33364 11.9603 0)
(-1.23851 12.2387 0)
(-1.11559 12.4996 0)
(-0.98982 12.7367 0)
(-0.865761 12.952 0)
(-0.746647 13.1467 0)
(-0.634588 13.3212 0)
(-0.530853 13.4743 0)
(-0.43599 13.6011 0)
(-0.349893 13.6888 0)
(-0.271852 13.7072 0)
(-0.199883 13.596 0)
(-0.132181 13.2574 0)
(-0.0701796 12.4814 0)
(-0.0189892 10.7135 0)
(-0.0960134 9.97766 0)
(-0.0683491 9.98717 -5.28434e-21)
(-0.0461307 9.99456 0)
(-0.0299587 10 -2.98943e-21)
(-0.0182864 10.0036 0)
(-0.0100753 10.0055 -2.32418e-18)
(-0.0045017 10.0061 -4.53716e-18)
(-0.000953365 10.0055 -2.68581e-22)
(0.00100682 10.0043 2.1627e-18)
(0.00171589 10.0026 -1.05567e-18)
(0.00145177 10.001 1.03071e-18)
(0.000496615 10 0)
(-0.129782 9.96615 0)
(-0.172015 9.95358 0)
(-0.223693 9.94086 0)
(-0.28603 9.92934 0)
(-0.360163 9.92089 0)
(-0.447 9.91797 0)
(-0.547054 9.92374 0)
(-0.660176 9.94214 0)
(-0.785226 9.97784 0)
(-0.919693 10.0361 0)
(-1.05928 10.1225 0)
(-1.19754 10.2422 0)
(-1.32567 10.3997 0)
(-1.43303 10.5961 0)
(-1.51226 10.8228 0)
(-1.56062 11.0687 0)
(-1.57493 11.327 0)
(-1.55366 11.5902 0)
(-1.50872 11.8696 0)
(-1.43592 12.1615 0)
(-1.31875 12.4421 0)
(-1.17613 12.7004 0)
(-1.03446 12.9318 0)
(-0.897915 13.1394 0)
(-0.769264 13.3253 0)
(-0.650093 13.4904 0)
(-0.541207 13.6338 0)
(-0.44278 13.7513 0)
(-0.354307 13.8306 0)
(-0.274802 13.843 0)
(-0.201923 13.7292 0)
(-0.133456 13.3882 0)
(-0.0706903 12.6016 0)
(-0.0190349 10.8102 0)
(-0.12841 9.96273 0)
(-0.0937779 9.97497 2.49741e-18)
(-0.0652728 9.98501 -2.66216e-18)
(-0.0441581 9.9929 2.57724e-18)
(-0.0286083 9.9987 0)
(-0.0174208 10.0026 0)
(-0.00958114 10.0047 2.37874e-18)
(-0.00428169 10.0055 -2.32257e-18)
(-0.000926362 10.0051 -2.07134e-22)
(0.000913087 10.004 1.10763e-18)
(0.00156993 10.0024 -1.08155e-18)
(0.0013215 10.0009 -1.05255e-18)
(0.000447994 10 0)
(-0.169813 9.94849 0)
(-0.220858 9.93347 0)
(-0.28248 9.91884 0)
(-0.355893 9.90625 0)
(-0.442169 9.89792 0)
(-0.542066 9.89672 0)
(-0.655809 9.90628 0)
(-0.782814 9.93099 0)
(-0.921326 9.97592 0)
(-1.06803 10.0466 0)
(-1.21768 10.1486 0)
(-1.36275 10.287 0)
(-1.49337 10.4655 0)
(-1.59804 10.684 0)
(-1.66965 10.932 0)
(-1.70651 11.1965 0)
(-1.70628 11.4699 0)
(-1.68181 11.7623 0)
(-1.62821 12.0698 0)
(-1.53217 12.3659 0)
(-1.39275 12.6453 0)
(-1.23084 12.8982 0)
(-1.07402 13.1219 0)
(-0.925871 13.3205 0)
(-0.788581 13.4967 0)
(-0.663182 13.6517 0)
(-0.549925 13.7852 0)
(-0.448573 13.8931 0)
(-0.358216 13.9641 0)
(-0.277571 13.9705 0)
(-0.203969 13.8544 0)
(-0.134826 13.5114 0)
(-0.0712731 12.7147 0)
(-0.0191034 10.9008 0)
(-0.168038 9.94407 0)
(-0.125389 9.95927 0)
(-0.089472 9.97225 2.78773e-18)
(-0.0624224 9.98294 -5.43666e-18)
(-0.042114 9.99131 5.27032e-18)
(-0.0272068 9.99746 -5.1166e-18)
(-0.0165222 10.0016 0)
(-0.00906344 10.004 2.43556e-18)
(-0.0040449 10.0049 -2.37744e-18)
(-0.000887606 10.0047 -2.32308e-18)
(0.000827495 10.0037 0)
(0.0014302 10.0023 1.10404e-18)
(0.00119634 10.0008 0)
(0.000402806 10 0)
(-0.21806 9.92699 0)
(-0.278959 9.90956 0)
(-0.351581 9.89323 0)
(-0.437103 9.87998 0)
(-0.536491 9.87244 0)
(-0.650278 9.87391 0)
(-0.778322 9.88849 0)
(-0.919509 9.92098 0)
(-1.07138 9.97681 0)
(-1.22976 10.0617 0)
(-1.38835 10.1811 0)
(-1.5386 10.3397 0)
(-1.66955 10.5403 0)
(-1.76903 10.7815 0)
(-1.83047 11.0505 0)
(-1.85342 11.3327 0)
(-1.8518 11.6373 0)
(-1.81976 11.9602 0)
(-1.74139 12.2745 0)
(-1.62149 12.5712 0)
(-1.45997 12.8462 0)
(-1.27951 13.0916 0)
(-1.10853 13.3061 0)
(-0.949815 13.4945 0)
(-0.804892 13.6601 0)
(-0.674182 13.8048 0)
(-0.557346 13.9282 0)
(-0.453663 14.0268 0)
(-0.361893 14.0895 0)
(-0.280354 14.0902 0)
(-0.206177 13.9719 0)
(-0.136371 13.6274 0)
(-0.0719412 12.8212 0)
(-0.0191636 10.9858 0)
(-0.21582 9.92137 0)
(-0.164059 9.93967 0)
(-0.119529 9.95584 0)
(-0.0855002 9.96966 5.69374e-18)
(-0.0594746 9.98097 -5.53408e-18)
(-0.0400007 9.98978 5.36671e-18)
(-0.0257608 9.99625 0)
(-0.0155915 10.0006 -2.54613e-18)
(-0.0085223 10.0032 0)
(-0.00379166 10.0044 2.43287e-18)
(-0.000837589 10.0043 0)
(0.000749828 10.0034 0)
(0.00129734 10.0021 0)
(0.00107926 10.0008 1.05317e-18)
(0.000361458 10 4.91615e-19)
(-0.275479 9.90141 0)
(-0.347293 9.8817 0)
(-0.431969 9.86402 0)
(-0.530606 9.85071 0)
(-0.644 9.84481 0)
(-0.772382 9.85009 0)
(-0.915158 9.87108 0)
(-1.07059 9.91298 0)
(-1.23546 9.98147 0)
(-1.40461 10.0823 0)
(-1.57077 10.2208 0)
(-1.72424 10.401 0)
(-1.85316 10.6246 0)
(-1.94481 10.8888 0)
(-1.9934 11.1782 0)
(-2.01725 11.4938 0)
(-2.00956 11.8317 0)
(-1.95139 12.1645 0)
(-1.84717 12.4816 0)
(-1.70317 12.7755 0)
(-1.52007 13.0435 0)
(-1.32209 13.2794 0)
(-1.13813 13.4832 0)
(-0.970032 13.6606 0)
(-0.818554 13.8153 0)
(-0.683467 13.9494 0)
(-0.563808 14.0629 0)
(-0.458378 14.1524 0)
(-0.365558 14.2073 0)
(-0.283338 14.2025 0)
(-0.208618 14.0823 0)
(-0.138122 13.7367 0)
(-0.0727243 12.9216 0)
(-0.0191956 11.0655 0)
(-0.272717 9.89433 0)
(-0.21069 9.9158 0)
(-0.156273 9.93537 6.15144e-18)
(-0.11415 9.95262 5.99305e-18)
(-0.0813962 9.96722 5.8311e-18)
(-0.0564349 9.97909 -5.65944e-18)
(-0.0378286 9.98831 0)
(-0.0242717 9.9951 0)
(-0.0146293 9.99974 0)
(-0.00795873 10.0025 5.09832e-18)
(-0.00352275 10.0038 2.48945e-18)
(-0.000776908 10.0039 2.42518e-18)
(0.000680039 10.0032 0)
(0.00117421 10.002 -1.10474e-18)
(0.00097174 10.0007 -5.18056e-19)
(0.000323501 10 0)
(-0.343048 9.87159 0)
(-0.426846 9.84989 0)
(-0.524613 9.83136 0)
(-0.63731 9.81876 0)
(-0.765495 9.81555 0)
(-0.909017 9.82595 0)
(-1.06674 9.85491 0)
(-1.23625 9.90796 0)
(-1.41343 9.99094 0)
(-1.59222 10.1096 0)
(-1.76421 10.2687 0)
(-1.91875 10.4717 0)
(-2.04307 10.719 0)
(-2.12408 11.0058 0)
(-2.1764 11.331 0)
(-2.19625 11.6829 0)
(-2.16137 12.0343 0)
(-2.07543 12.3727 0)
(-1.94469 12.689 0)
(-1.77678 12.9772 0)
(-1.57298 13.2359 0)
(-1.35871 13.4605 0)
(-1.1631 13.6526 0)
(-0.986882 13.8184 0)
(-0.829966 13.962 0)
(-0.691412 14.0857 0)
(-0.569641 14.1895 0)
(-0.462967 14.2703 0)
(-0.3694 14.3178 0)
(-0.286589 14.3079 0)
(-0.211344 14.1862 0)
(-0.14006 13.8398 0)
(-0.0735737 13.0163 0)
(-0.0191848 11.1403 0)
(-0.339717 9.86278 0)
(-0.266219 9.88737 0)
(-0.200551 9.91045 -1.28507e-17)
(-0.149154 9.93135 3.0108e-20)
(-0.108593 9.94959 -1.22101e-17)
(-0.077171 9.96492 1.18794e-17)
(-0.0533167 9.97731 -5.77123e-18)
(-0.0355997 9.98693 0)