/*--------------------------------*- C++ -*----------------------------------*\
  =========                 |
  \\      /  F ield         | OpenFOAM: The Open Source CFD Toolbox
   \\    /   O peration     | Website:  https://openfoam.org
    \\  /    A nd           | Version:  8
     \\/     M anipulation  |
\*---------------------------------------------------------------------------*/
FoamFile
{
    version     2.0;
    format      ascii;
    class       volScalarField;
    location    "0.11";
    object      nut;
}
// * * * * * * * * * * * * * * * * * * * * * * * * * * * * * * * * * * * * * //

dimensions      [0 2 -1 0 0 0 0];

internalField   nonuniform List<scalar> 
15677
(
0.000168168
0.000652158
0.000148202
0.00151204
0.000443119
0.0001413
0.00267195
0.000878265
0.000381094
0.0001422
0.00391618
0.00152281
0.000687424
0.00035437
0.000145345
0.0050189
0.00236051
0.00114814
0.000586175
0.000340355
0.000151132
0.00583665
0.00332123
0.00178315
0.000948898
0.000529657
0.000332083
0.000156949
0.00633334
0.00430115
0.00257015
0.00146494
0.000821675
0.000492734
0.000327042
0.000162397
0.00656224
0.00518819
0.00345502
0.00213346
0.00125843
0.000737783
0.000467641
0.000324148
0.000167184
0.00665816
0.00589321
0.00435671
0.00292391
0.00184304
0.00111317
0.000677786
0.000450587
0.000322582
0.000171406
0.00670537
0.00633807
0.00518148
0.00378037
0.00255856
0.00163295
0.00100529
0.000634426
0.000438835
0.000322008
0.000174973
0.00671433
0.00655338
0.00584544
0.00462615
0.0033642
0.0022878
0.00147362
0.000924783
0.000602486
0.000430874
0.000321962
0.000178103
0.00670988
0.00666151
0.00629553
0.0053775
0.00419807
0.00304655
0.00207895
0.00134986
0.000862756
0.000578833
0.000425427
0.000322428
0.000180712
0.00670626
0.00669877
0.00652943
0.00596452
0.0049849
0.00385837
0.00279695
0.00191277
0.00125202
0.000814586
0.000561115
0.000421924
0.000323075
0.00018306
0.0067054
0.00670439
0.00664668
0.00635687
0.00565041
0.00465661
0.00358448
0.00259471
0.00177884
0.00117375
0.000776836
0.000547923
0.000419608
0.000323977
0.000185105
0.00670547
0.00670284
0.00668781
0.0065629
0.00614214
0.0053689
0.00438223
0.00335809
0.0024291
0.0016691
0.00111041
0.000747059
0.000537891
0.000418361
0.000324823
0.000186915
0.00670567
0.00670158
0.00669637
0.00665652
0.00644671
0.00593384
0.00512167
0.00414964
0.00316973
0.00229114
0.0015789
0.00105874
0.000723474
0.000530614
0.000417491
0.000325869
0.000188571
0.00670579
0.00670107
0.00669715
0.00668484
0.0066048
0.00632182
0.00573784
0.00490468
0.00395215
0.00301066
0.00217618
0.00150387
0.00101696
0.000705012
0.000524959
0.000417362
0.0003268
0.000189982
0.00670585
0.00670092
0.00669682
0.00669155
0.0066637
0.00654125
0.00618841
0.00555753
0.00471543
0.00378279
0.00287641
0.00207939
0.00144193
0.000982976
0.0006903
0.000521089
0.000417304
0.000327885
0.000191413
0.00670587
0.00670088
0.00669659
0.00669255
0.00668235
0.00663451
0.00646783
0.00605836
0.00539454
0.00454989
0.00363788
0.00276226
0.00199844
0.00139059
0.000955425
0.000678964
0.000518062
0.000417837
0.000328857
0.000192526
0.00670589
0.00670086
0.00669651
0.00669242
0.00668742
0.00666903
0.00659803
0.00638971
0.00593535
0.00524812
0.00440581
0.00351342
0.00266574
0.00193066
0.00134847
0.00093328
0.00067007
0.000516342
0.000418251
0.000329939
0.000193859
0.00670589
0.00670085
0.0066965
0.00669223
0.00668845
0.0066806
0.00665148
0.00655631
0.00631118
0.00582075
0.00511783
0.00428051
0.00340714
0.00258439
0.00187457
0.00131409
0.000915784
0.000663517
0.000514991
0.000419204
0.000330969
0.000194743
0.00670589
0.00670083
0.0066965
0.00669213
0.00668851
0.0066839
0.00667189
0.00663039
0.00651137
0.00623389
0.00571573
0.00500263
0.00417242
0.00331709
0.00251654
0.00182857
0.00128665
0.000902117
0.000658681
0.00051475
0.000419919
0.000332015
0.000196068
0.00670589
0.00670083
0.0066965
0.00669207
0.00668844
0.0066846
0.00667887
0.00666126
0.00660621
0.00646573
0.00616082
0.00562106
0.00490213
0.00408019
0.00324138
0.00246084
0.00179168
0.00126518
0.000892176
0.000655558
0.000514509
0.000421166
0.000333179
0.000196789
0.00670589
0.00670082
0.0066965
0.00669203
0.00668839
0.00668463
0.00668095
0.00667295
0.00664875
0.00658105
0.00641964
0.00609378
0.00553714
0.00481526
0.00400209
0.00317948
0.00241627
0.00176328
0.00124931
0.000884839
0.000653675
0.000515408
0.000422095
0.000334097
0.000198117
0.00670588
0.00670083
0.00669649
0.00669201
0.00668835
0.00668453
0.00668143
0.00667689
0.00666632
0.00663547
0.00655425
0.00637751
0.00603202
0.00546326
0.0047419
0.00393895
0.00312996
0.00238189
0.00174183
0.00123795
0.000880864
0.000653182
0.000515892
0.000423602
0.000335581
0.000198818
0.00670588
0.00670083
0.00669649
0.00669199
0.00668833
0.00668444
0.00668148
0.006678
0.00667296
0.00665925
0.00662103
0.00652981
0.00633608
0.00597792
0.00540223
0.00468236
0.00388706
0.00309141
0.00235665
0.00172864
0.00123237
0.000878804
0.000653683
0.000517853
0.000424638
0.000336369
5.33911e-05
0.00670587
0.00670084
0.00669647
0.00669198
0.00668832
0.00668438
0.00668143
0.00667819
0.0066752
0.00666881
0.00665186
0.00660789
0.00650476
0.00630324
0.005933
0.00534946
0.00463287
0.00385046
0.00306748
0.00234342
0.00172231
0.00122973
0.000879664
0.000655517
0.000519018
0.000427124
0.000283994
6.34628e-05
0.00670586
0.00670085
0.00669646
0.00669198
0.0066883
0.00668433
0.00668138
0.00667812
0.00667583
0.00667229
0.00666506
0.00664527
0.00659449
0.00648631
0.00626973
0.00589278
0.00531342
0.0046049
0.00382855
0.00305301
0.00233617
0.00172067
0.00123138
0.000882191
0.000657561
0.000521547
0.000420818
0.000219936
7.09695e-05
0.00670585
0.00670086
0.00669645
0.00669199
0.00668828
0.0066843
0.00668134
0.00667802
0.00667592
0.00667334
0.00667028
0.00666195
0.00663913
0.00658556
0.00646685
0.00624867
0.00587374
0.00529028
0.00458366
0.00381422
0.00304658
0.00233579
0.0017248
0.00123688
0.00088635
0.00066076
0.000522862
0.000401336
0.00017828
7.65399e-05
0.00670585
0.00670087
0.00669644
0.006692
0.00668825
0.00668429
0.0066813
0.00667793
0.00667588
0.0066735
0.00667213
0.00666882
0.0066599
0.00663616
0.00657675
0.00645814
0.00624091
0.00585799
0.0052746
0.00457229
0.00381086
0.00305061
0.00234455
0.00173531
0.00124556
0.000892642
0.000664844
0.000521155
0.000368767
0.000152641
8.10942e-05
0.00670584
0.00670088
0.00669642
0.006692
0.00668823
0.00668428
0.00668125
0.00667786
0.00667581
0.00667342
0.00667263
0.00667131
0.00666895
0.00666035
0.00663442
0.00657784
0.00645744
0.00623547
0.00585041
0.00527106
0.00457659
0.00382225
0.00306622
0.0023616
0.0017508
0.00125801
0.000900629
0.000668693
0.000515717
0.000337643
0.000134174
8.46472e-05
0.00670583
0.00670088
0.00669641
0.00669201
0.00668821
0.00668428
0.00668121
0.00667781
0.00667574
0.00667328
0.0066727
0.00667198
0.00667257
0.00667113
0.0066629
0.006642
0.00658197
0.00646199
0.00623791
0.00585841
0.00528494
0.00459591
0.00384595
0.00309184
0.00238608
0.00177153
0.0012734
0.000910075
0.000672588
0.000505096
0.00030759
0.000121083
8.72065e-05
0.00670583
0.00670089
0.0066964
0.00669203
0.00668818
0.00668429
0.00668117
0.00667778
0.00667567
0.00667316
0.00667263
0.00667201
0.00667377
0.00667549
0.00667614
0.00667451
0.00664972
0.0065928
0.00647421
0.00625677
0.00588243
0.00531349
0.00462929
0.00388188
0.00312736
0.00241793
0.0017968
0.00129213
0.000920866
0.000675119
0.000490517
0.000281566
0.000112478
8.91317e-05
0.00670582
0.0067009
0.00669639
0.00669204
0.00668816
0.0066843
0.00668113
0.00667776
0.00667559
0.00667305
0.00667253
0.00667186
0.00667407
0.0066769
0.00668192
0.00669003
0.00668451
0.00666495
0.0066142
0.00650141
0.00629019
0.00592158
0.00535775
0.00467692
0.00393009
0.00317261
0.00245682
0.00182686
0.00131328
0.000932783
0.000676643
0.000474403
0.000261871
0.00010662
9.06508e-05
0.0067009
0.00670582
0.00669638
0.00669205
0.00668814
0.00668431
0.00668108
0.00667776
0.00667552
0.00667298
0.00667243
0.00667168
0.00667406
0.00667719
0.0066841
0.00669699
0.00670144
0.00670267
0.00669289
0.00664799
0.006543
0.00633899
0.00597748
0.00541783
0.00473903
0.00399058
0.00322752
0.00250269
0.0018611
0.00133758
0.000947413
0.000677541
0.000460347
0.00024676
0.000102482
9.19047e-05
0.00669638
0.00670093
0.00670583
0.00669205
0.00668812
0.00668432
0.00668104
0.00667777
0.00667544
0.00667294
0.00667231
0.0066715
0.00667396
0.00667709
0.00668479
0.0066997
0.00670924
0.00672148
0.00673509
0.0067315
0.0066961
0.00660039
0.0064058
0.0060508
0.00549493
0.00481611
0.00406331
0.00329184
0.00255522
0.00189971
0.00136692
0.000964924
0.00067843
0.000448368
0.000235105
9.9524e-05
9.29833e-05
0.00669206
0.00669639
0.00670097
0.00670583
0.00668811
0.00668433
0.00668101
0.00667777
0.00667537
0.00667291
0.0066722
0.00667136
0.00667383
0.00667687
0.00668494
0.00670062
0.00671248
0.00673048
0.00675689
0.00677727
0.00678478
0.00676027
0.00667631
0.00649141
0.00614332
0.00558961
0.00490785
0.00414819
0.00336545
0.00261423
0.00194741
0.00140233
0.000983948
0.000679681
0.000438654
0.000225889
9.73295e-05
9.39382e-05
0.00668809
0.0066921
0.00669643
0.00670101
0.00670583
0.00668434
0.00668097
0.00667779
0.00667529
0.00667291
0.00667207
0.00667126
0.0066737
0.00667663
0.0066849
0.00670085
0.00671371
0.00673449
0.0067679
0.00680165
0.00683459
0.00685442
0.00684351
0.00677139
0.00659777
0.00625513
0.00570252
0.00501529
0.00424508
0.00344783
0.00268671
0.00200649
0.00144029
0.00100389
0.000682522
0.000430745
0.000218594
9.57227e-05
9.48061e-05
0.00668435
0.00668812
0.00669218
0.00669647
0.00670105
0.00670584
0.00668094
0.0066778
0.00667523
0.00667291
0.00667195
0.0066712
0.00667355
0.0066764
0.0066848
0.00670082
0.00671415
0.00673624
0.0067732
0.00681453
0.00686208
0.00690815
0.0069429
0.00694596
0.00688811
0.00672442
0.00638719
0.00583377
0.00513774
0.00435352
0.00354915
0.0027759
0.00207067
0.00148087
0.00102572
0.000686258
0.000424591
0.000212622
9.44788e-05
9.56031e-05
0.00668092
0.00668441
0.00668818
0.00669226
0.00669651
0.00670109
0.00670584
0.00667781
0.00667516
0.00667293
0.00667182
0.00667117
0.0066734
0.00667621
0.0066847
0.0067007
0.00671429
0.00673708
0.0067759
0.00682145
0.00687806
0.00694021
0.00700358
0.00705333
0.00707106
0.00702493
0.00687235
0.00653883
0.00598184
0.00527626
0.00448712
0.00367316
0.00287311
0.00213973
0.00152332
0.00104798
0.000691237
0.000419797
0.000207678
9.3557e-05
9.63476e-05
0.00667782
0.00668094
0.00668452
0.00668825
0.00669234
0.00669655
0.00670113
0.00670585
0.00667511
0.00667294
0.0066717
0.00667117
0.00667323
0.00667607
0.0066846
0.00670055
0.00671431
0.00673753
0.00677747
0.00682539
0.00688743
0.00695972
0.00704107
0.00712164
0.00719009
0.00722198
0.00718657
0.00703932
0.00670855
0.00614675
0.00544478
0.00465262
0.00380958
0.00297735
0.0022129
0.00156835
0.00107029
0.000697569
0.000416227
0.000203544
9.28153e-05
9.7041e-05
0.00667506
0.00667789
0.00668101
0.00668463
0.00668831
0.00669242
0.0066966
0.00670116
0.00670586
0.00667296
0.00667159
0.0066712
0.00667304
0.00667598
0.0066845
0.0067004
0.00671428
0.00673781
0.00677849
0.00682802
0.00689349
0.00697223
0.00706582
0.00716596
0.00726761
0.00735301
0.00740119
0.00737531
0.00722976
0.00689497
0.00634531
0.00564971
0.00483201
0.0039557
0.00308789
0.00228968
0.00161531
0.00109347
0.00070479
0.000413742
0.000200055
9.22671e-05
9.76962e-05
0.00667298
0.00667506
0.00667802
0.00668108
0.00668474
0.00668839
0.0066925
0.00669665
0.0067012
0.00670587
0.00667148
0.00667124
0.00667284
0.00667596
0.00668439
0.00670026
0.00671423
0.00673801
0.00677925
0.00683004
0.00689794
0.00698109
0.00708339
0.00719744
0.00732127
0.00744207
0.0075468
0.00760791
0.00759118
0.00744594
0.00712198
0.00658371
0.00586863
0.00502133
0.00410956
0.00320363
0.0023695
0.00166381
0.00111729
0.000712752
0.000412195
0.000197107
9.18094e-05
9.83081e-05
0.00667139
0.00667305
0.0066751
0.00667816
0.00668117
0.00668486
0.00668847
0.00669258
0.0066967
0.00670124
0.00670588
0.00667128
0.00667264
0.006676
0.00668426
0.00670013
0.00671419
0.00673818
0.00677987
0.00683172
0.00690154
0.00698814
0.00709697
0.00722148
0.00736246
0.00750768
0.00765099
0.00777123
0.00784485
0.00783335
0.00771345
0.00740539
0.00683667
0.00609632
0.00521838
0.00426905
0.00332329
0.00245157
0.00171353
0.00114137
0.000720877
0.000411387
0.000194583
9.1478e-05
9.88888e-05
0.00667133
0.00667131
0.00667318
0.00667514
0.00667829
0.00668126
0.00668497
0.00668855
0.00669266
0.00669676
0.00670128
0.00670589
0.00667244
0.00667609
0.00668408
0.00670002
0.00671415
0.00673832
0.00678041
0.0068332
0.0069046
0.0069942
0.00710834
0.00724109
0.00739647
0.00756149
0.00773267
0.00789409
0.00803033
0.00811225
0.0081325
0.0080425
0.00771719
0.00711132
0.00633038
0.00541917
0.00443169
0.00344549
0.00253529
0.00176403
0.00116604
0.000729137
0.000411103
0.000192426
9.11905e-05
9.94298e-05
0.00667226
0.00667138
0.00667122
0.00667331
0.0066752
0.00667843
0.00668135
0.00668508
0.00668865
0.00669274
0.00669682
0.00670132
0.0067059
0.00667622
0.00668385
0.00669993
0.00671413
0.00673847
0.0067809
0.00683453
0.00690729
0.00699962
0.0071183
0.00725817
0.00742586
0.00760831
0.00780384
0.00799609
0.00817732
0.00832463
0.00844475
0.00850355
0.00840171
0.00804934
0.00740384
0.00657386
0.00562161
0.00459598
0.00356922
0.00261991
0.00181498
0.00119104
0.000737552
0.000411281
0.000190555
9.09906e-05
9.99444e-05
0.00667637
0.00667194
0.00667144
0.00667114
0.00667344
0.00667528
0.00667856
0.00668146
0.00668519
0.00668874
0.00669282
0.00669688
0.00670135
0.00670591
0.00668356
0.00669988
0.00671414
0.00673862
0.00678136
0.00683573
0.0069097
0.00700453
0.0071272
0.00727364
0.00745232
0.00764992
0.007869
0.00808996
0.00830626
0.00850137
0.00869367
0.008861
0.00891189
0.00878785
0.0083991
0.00770846
0.00682725
0.00582505
0.00476021
0.00369291
0.00270475
0.00186606
0.0012162
0.000746023
0.000411836
0.000188949
9.081e-05
0.000100421
0.00668322
0.0066764
0.00667145
0.00667151
0.00667109
0.00667357
0.00667537
0.00667868
0.00668158
0.0066853
0.00668885
0.0066929
0.00669695
0.00670139
0.00670593
0.00669991
0.00671418
0.00673879
0.00678179
0.00683683
0.00691189
0.00700902
0.00713524
0.00728789
0.00747655
0.00768799
0.00792934
0.00817959
0.00843025
0.00866392
0.0089122
0.00916137
0.00932426
0.00935524
0.00919817
0.00876377
0.00802085
0.00708716
0.00602898
0.00492211
0.00381558
0.00278915
0.00191693
0.00124132
0.000754571
0.000412486
0.000187549
9.06938e-05
0.000100876
0.00670003
0.00668214
0.00667635
0.00667096
0.00667158
0.00667106
0.00667368
0.00667548
0.0066788
0.00668172
0.00668541
0.00668896
0.00669298
0.00669701
0.00670142
0.00670594
0.00671425
0.00673896
0.00678218
0.00683782
0.00691387
0.00701312
0.00714255
0.0073011
0.00749881
0.00772348
0.00798631
0.00826421
0.00855193
0.00882699
0.00912435
0.00944078
0.00968937
0.00983449
0.00983282
0.00963107
0.00914102
0.00833894
0.00735047
0.00623589
0.00508157
0.00393643
0.00287261
0.00196733
0.00126628
0.000763067
0.000413301
0.000186363
9.05834e-05
0.000101295
0.00671434
0.00669965
0.00668015
0.00667634
0.00667052
0.00667163
0.00667107
0.00667378
0.00667561
0.00667892
0.00668186
0.00668552
0.00668907
0.00669306
0.00669708
0.00670146
0.00670595
0.00673913
0.00678253
0.00683872
0.00691568
0.00701685
0.00714922
0.00731331
0.00751927
0.00775685
0.00804029
0.00834424
0.00866939
0.0089942
0.0093473
0.00972593
0.0100482
0.0102836
0.0103967
0.0103471
0.0100866
0.00952946
0.00866112
0.00761358
0.00644343
0.00523845
0.00405505
0.00295466
0.00201698
0.00129091
0.000771607
0.000414224
0.000185306
9.05216e-05
0.000101696
0.00673931
0.00671335
0.00669884
0.00667816
0.00667628
0.00667016
0.00667163
0.00667114
0.00667386
0.00667577
0.00667903
0.00668201
0.00668562
0.00668918
0.00669313
0.00669714
0.00670149
0.00670596
0.00678281
0.00683951
0.00691732
0.00702025
0.00715532
0.00732457
0.00753809
0.00778829
0.00809111
0.00842018
0.00878417
0.00916219
0.0095815
0.0100362
0.0104358
0.0107571
0.0109636
0.0110231
0.0109036
0.010566
0.00992841
0.00898603
0.00787545
0.0066498
0.00539186
0.00417055
0.00303478
0.00206565
0.00131513
0.000780032
0.000415188
0.000184413
9.04579e-05
0.000102062
0.00678305
0.0067376
0.00671117
0.00669801
0.00667652
0.00667607
0.00666993
0.00667157
0.00667125
0.00667392
0.00667594
0.00667914
0.00668217
0.00668573
0.00668929
0.00669321
0.0066972
0.00670152
0.00670598
0.00684022
0.00691882
0.00702334
0.0071609
0.00733492
0.0075554
0.00781779
0.00813858
0.0084926
0.00889716
0.00932922
0.00981505
0.0103744
0.0108911
0.0113157
0.0116147
0.0117575
0.0117272
0.0115076
0.0110707
0.0103373
0.00931259
0.00813516
0.00685386
0.00554248
0.00428225
0.00311265
0.00211314
0.00133882
0.000788407
0.000416219
0.000183626
9.0432e-05
0.000102414
0.0068409
0.00678008
0.00673379
0.0067089
0.00669678
0.00667541
0.00667567
0.00666984
0.00667146
0.00667141
0.00667397
0.00667613
0.00667926
0.00668232
0.00668584
0.0066894
0.00669328
0.00669726
0.00670155
0.00670599
0.00692017
0.00702613
0.00716599
0.00734438
0.00757133
0.00784532
0.00818274
0.00856194
0.00900759
0.00949209
0.0100458
0.010741
0.0114468
0.012037
0.0124433
0.0126588
0.0126798
0.0125133
0.0121594
0.0115996
0.0107551
0.00963976
0.0083919
0.00705408
0.00569086
0.00439022
0.00318804
0.00215928
0.00136192
0.000796542
0.000417249
0.000182901
9.03997e-05
0.000102695
0.00692146
0.006837
0.00677362
0.00673
0.00670667
0.00669502
0.00667479
0.00667505
0.00666989
0.0066713
0.00667161
0.00667402
0.00667633
0.00667937
0.00668247
0.00668595
0.0066895
0.00669336
0.00669731
0.00670159
0.006706
0.00702866
0.00717063
0.00735302
0.00758596
0.00787085
0.00822375
0.0086283
0.00911378
0.00964863
0.0102796
0.0111542
0.0121123
0.0129606
0.0135339
0.0138209
0.0138717
0.0137122
0.0133681
0.0128509
0.0121484
0.0111795
0.00996627
0.00864489
0.00724931
0.0058361
0.00449444
0.0032608
0.00220396
0.00138434
0.00080453
0.000418308
0.000182288
9.03948e-05
0.000102931
0.00703101
0.00691604
0.00682809
0.00676703
0.0067264
0.00670444
0.00669288
0.00667461
0.00667424
0.00667006
0.00667112
0.00667183
0.00667408
0.00667652
0.00667949
0.00668262
0.00668605
0.00668959
0.00669343
0.00669736
0.00670162
0.00670601
0.00717484
0.00736086
0.00759938
0.0078944
0.00826181
0.0086914
0.00921426
0.00979929
0.0105256
0.0116245
0.0128755
0.0140176
0.0148449
0.0152656
0.015345
0.0151782
0.0148059
0.0142628
0.0135669
0.0127096
0.0116073
0.0102906
0.00889327
0.00743922
0.00597751
0.00459488
0.00333084
0.00224706
0.00140604
0.000812323
0.000419389
0.000181801
9.03868e-05
0.000103186
0.00717871
0.00702366
0.00690314
0.00681931
0.00676067
0.00672303
0.00670226
0.00669018
0.00667476
0.00667333
0.00667029
0.00667093
0.00667205
0.00667416
0.0066767
0.00667961
0.00668275
0.00668616
0.00668968
0.0066935
0.00669742
0.00670165
0.00670602
0.00736796
0.00761163
0.00791602
0.00829707
0.00875083
0.00930835
0.00994634
0.010789
0.0121422
0.0136881
0.015102
0.0161762
0.0168228
0.0170219
0.0168712
0.0164833
0.0159013
0.0151623
0.0142879
0.0132733
0.0120341
0.0106109
0.00913621
0.00762347
0.00611462
0.00469147
0.00339807
0.00228853
0.00142697
0.000819845
0.000420303
0.000181421
9.03904e-05
0.000103463
0.00737441
0.0071688
0.00700532
0.00689028
0.00681082
0.00675464
0.00671987
0.00670073
0.00668714
0.00667511
0.00667239
0.00667054
0.00667079
0.00667226
0.00667425
0.00667687
0.00667974
0.00668288
0.00668627
0.00668977
0.00669357
0.00669746
0.00670168
0.00670602
0.00762278
0.00793577
0.00832965
0.00880625
0.00939627
0.0100921
0.0110685
0.0126818
0.0144874
0.0161126
0.0173734
0.0182203
0.018641
0.0186326
0.0182845
0.0177094
0.0169472
0.0160343
0.0149949
0.0138297
0.0124553
0.0109253
0.00937287
0.00780175
0.00624709
0.00478417
0.00346247
0.00232833
0.00144711
0.000826147
0.000421115
0.00018101
9.03918e-05
0.000103763
0.00763289
0.00736152
0.00714299
0.00698697
0.00687779
0.00680258
0.00674892
0.00671682
0.00669959
0.00668401
0.0066755
0.00667153
0.00667074
0.0066707
0.00667243
0.00667436
0.00667701
0.00667988
0.00668299
0.00668637
0.00668986
0.00669364
0.00669751
0.00670169
0.00670602
0.00795376
0.00835962
0.00885751
0.0094787
0.0102376
0.0113567
0.0132147
0.0152232
0.016985
0.0183572
0.0193367
0.0199432
0.0201742
0.0200127
0.0195229
0.0188101
0.0179089
0.0168542
0.0156723
0.0143695
0.0128666
0.0112318
0.00960247
0.00797377
0.00637464
0.00487298
0.00352405
0.00236642
0.00146388
0.000831573
0.000422024
0.000180606
9.04087e-05
0.000104092
0.00796991
0.00761617
0.00732585
0.00711716
0.00696907
0.00686564
0.00679455
0.00674335
0.00671398
0.00669858
0.00668102
0.00667577
0.00667084
0.00667086
0.00667069
0.00667256
0.0066745
0.00667715
0.00668001
0.0066831
0.00668648
0.00668994
0.0066937
0.00669754
0.00670169
0.00670602
0.00838708
0.00890465
0.00955641
0.0103825
0.0116438
0.0137171
0.0158669
0.017696
0.0191105
0.0201528
0.0208752
0.0212966
0.0213982
0.0211432
0.0205676
0.0197665
0.0187691
0.0176072
0.0163086
0.0148853
0.0132639
0.0115286
0.00982429
0.00813927
0.00649712
0.00495786
0.00358277
0.00239799
0.00147825
0.000837601
0.000423074
0.000180165
9.04215e-05
0.000104448
0.00841169
0.00794877
0.00756723
0.0072901
0.00709194
0.00695164
0.00685379
0.00678663
0.00673806
0.0067113
0.00669759
0.0066784
0.00667577
0.00667039
0.00667089
0.00667075
0.00667267
0.00667465
0.00667727
0.00668015
0.00668321
0.00668658
0.00669001
0.00669374
0.00669753
0.00670169
0.00670602
0.0089479
0.00962999
0.010525
0.0119203
0.0141745
0.0164097
0.0182508
0.0196538
0.0207011
0.0214731
0.0220107
0.0223119
0.0223397
0.0220406
0.0214256
0.0205785
0.0195229
0.0182865
0.0168972
0.0153721
0.0136442
0.0118143
0.0100377
0.00829807
0.00661443
0.00503894
0.00363117
0.00242496
0.00149415
0.000844319
0.00042425
0.00017974
9.0455e-05
0.000104839
0.00898649
0.00838481
0.00788258
0.00751822
0.00725513
0.00706734
0.00693462
0.00684221
0.00677879
0.00673319
0.00670866
0.00669649
0.00667662
0.00667542
0.00667018
0.00667083
0.00667087
0.00667276
0.00667481
0.00667739
0.00668029
0.00668331
0.00668668
0.00669005
0.00669374
0.00669753
0.00670169
0.00670602
0.00969982
0.0106629
0.0121791
0.0145805
0.0168552
0.0186687
0.0200229
0.0210327
0.0218017
0.0223898
0.0228121
0.0230463
0.0230423
0.0227356
0.0221161
0.0212565
0.0201739
0.0188912
0.0174351
0.0158266
0.0140051
0.0120876
0.0102421
0.00845
0.00672644
0.00510638
0.00367236
0.00245468
0.00151178
0.000851811
0.000425619
0.000179272
9.04838e-05
0.000105261
0.00976365
0.00895293
0.00829528
0.00781618
0.00747023
0.00722097
0.00704334
0.00691802
0.00683087
0.00677098
0.00672859
0.00670597
0.00669465
0.00667568
0.0066748
0.00667014
0.00667072
0.00667101
0.00667283
0.00667497
0.0066775
0.00668043
0.00668341
0.00668674
0.00669005
0.00669374
0.00669753
0.00670169
0.00670602
0.0107945
0.0124197
0.0149347
0.0172141
0.0189741
0.0202557
0.0211998
0.0219278
0.0225151
0.0229922
0.0233516
0.0235571
0.0235508
0.0232619
0.0226629
0.0218155
0.0207301
0.0194242
0.0179222
0.0162474
0.0143452
0.0123477
0.0104373
0.00859498
0.00681894
0.00516409
0.00371765
0.00248749
0.00153135
0.0008602
0.000427154
0.000178834
9.05414e-05
0.000105726
0.0109129
0.00972122
0.00883084
0.00820574
0.00775104
0.00742332
0.00718761
0.00701992
0.00690184
0.00681981
0.00676332
0.00672416
0.00670331
0.00669218
0.00667538
0.00667401
0.00667023
0.00667059
0.00667118
0.00667289
0.00667514
0.0066776
0.00668056
0.00668346
0.00668674
0.00669005
0.00669374
0.00669753
0.00670169
0.00670602
0.0126424
0.015238
0.0174993
0.0191904
0.0203862
0.0212475
0.0219089
0.0224581
0.022939
0.0233578
0.023691
0.0238936
0.0239049
0.0236507
0.0230892
0.0222717
0.0212018
0.0198909
0.0183603
0.0166345
0.0146637
0.012594
0.0106229
0.00871474
0.00689775
0.00522783
0.00376751
0.00252378
0.00155314
0.000869596
0.000428952
0.000178334
9.05937e-05
0.000106225
0.0108652
0.012838
0.00954175
0.0087109
0.00811769
0.00768731
0.00737746
0.00715504
0.0069971
0.0068861
0.00680911
0.0067558
0.00672007
0.00670086
0.00668912
0.00667545
0.00667317
0.00667037
0.00667046
0.00667136
0.00667296
0.0066753
0.0066777
0.00668064
0.00668345
0.00668674
0.00669005
0.00669374
0.00669754
0.00670168
0.00670601
0.0154938
0.0177237
0.0193383
0.0204423
0.0212117
0.0217907
0.0222762
0.0227233
0.0231507
0.0235471
0.0238783
0.0240955
0.0241376
0.0239292
0.0234165
0.0226409
0.0215995
0.0202976
0.0187525
0.0169887
0.0149607
0.0128262
0.0107757
0.00881679
0.00698444
0.00529833
0.00382253
0.00256397
0.00157743
0.000880174
0.000430974
0.000177872
9.06855e-05
0.000106776
0.0105924
0.0127861
0.0157049
0.00936988
0.00859377
0.00803133
0.00762498
0.00733266
0.00712331
0.00697493
0.00687087
0.00679896
0.00674863
0.00671645
0.00669938
0.00668598
0.00667567
0.00667237
0.00667052
0.00667035
0.00667153
0.00667302
0.00667546
0.00667774
0.00668065
0.00668345
0.00668674
0.00669005
0.00669374
0.00669751
0.00670165
0.006706
0.017899
0.0194346
0.0204455
0.0211197
0.0216076
0.0220129
0.0223993
0.0227972
0.0232069
0.0236045
0.02395
0.0241934
0.0242754
0.0241201
0.0236633
0.0229375
0.0219335
0.0206508
0.0191024
0.0173117
0.0152364
0.0130156
0.0109055
0.00892897
0.0070799
0.00537641
0.00388336
0.00260857
0.00160459
0.000892082
0.00043336
0.000177339
9.07721e-05
0.000107364
0.0103219
0.0124104
0.0156269
0.0180333
0.0092075
0.00847875
0.00794678
0.00756407
0.00728897
0.00709245
0.00695344
0.00685622
0.00678939
0.0067421
0.0067132
0.00669822
0.00668303
0.00667587
0.00667168
0.00667065
0.00667026
0.00667169
0.0066731
0.00667556
0.00667773
0.00668065
0.00668345
0.00668674
0.00669005
0.0066937
0.00669746
0.00670162
0.00670599
0.0194927
0.0204123
0.0209915
0.0213849
0.0217001
0.0220076
0.0223475
0.0227321
0.0231479
0.0235626
0.0239332
0.0242113
0.0243395
0.024242
0.0238453
0.0231739
0.0222132
0.020957
0.0194138
0.0176053
0.0154577
0.0131755
0.0110476
0.00905238
0.00718519
0.005463
0.00395076
0.00265818
0.00163502
0.00090557
0.00043606
0.00017687
9.09133e-05
0.000108014
0.0100679
0.0119973
0.0152766
0.0179198
0.019516
0.00905196
0.00836557
0.00786413
0.0075046
0.00724647
0.00706254
0.00693272
0.00684229
0.00678048
0.00673612
0.00671036
0.00669718
0.00668045
0.00667594
0.00667113
0.00667075
0.00667021
0.00667185
0.00667311
0.00667558
0.00667772
0.00668065
0.00668345
0.00668674
0.00669001
0.00669363
0.00669741
0.00670158
0.00670597
0.0203548
0.0208418
0.0211404
0.021361
0.0215779
0.0218396
0.0221691
0.0225646
0.0230023
0.0234446
0.0238484
0.0241676
0.0243469
0.0243099
0.0239753
0.0233607
0.0224468
0.0212221
0.0196906
0.0178362
0.0156428
0.0133494
0.0112034
0.00918824
0.00730146
0.00555916
0.00402562
0.00271349
0.00166921
0.000920845
0.000439269
0.000176319
9.10514e-05
0.000108703
0.00983123
0.0115846
0.014836
0.0176801
0.0193503
0.0202729
0.00890106
0.00825442
0.00778353
0.0074467
0.00720525
0.00703363
0.00691293
0.00682935
0.00677223
0.0067308
0.00670779
0.00669617
0.00667842
0.00667583
0.00667072
0.00667081
0.0066702
0.00667195
0.00667308
0.00667559
0.00667772
0.00668065
0.00668346
0.00668668
0.00668993
0.00669357
0.00669736
0.00670155
0.00670596
0.0206809
0.0208872
0.021012
0.0211317
0.0213013
0.0215533
0.0218973
0.0223201
0.0227902
0.0232676
0.023711
0.0240768
0.0243108
0.0243361
0.0240641
0.023507
0.0226416
0.0214516
0.0199033
0.018027
0.0158417
0.0135383
0.0113739
0.00933789
0.00743
0.00566612
0.00410896
0.00277532
0.00170773
0.000938269
0.00044293
0.000175869
9.12657e-05
0.000109464
0.00960903
0.0111889
0.0143396
0.0173628
0.0191859
0.0200544
0.0205043
0.00875381
0.00814562
0.00770511
0.00739049
0.00716541
0.00700601
0.00689456
0.0068175
0.00676459
0.00672615
0.00670536
0.00669497
0.00667713
0.00667552
0.00667045
0.00667085
0.00667017
0.00667197
0.00667306
0.00667559
0.00667773
0.00668064
0.00668341
0.00668658
0.00668985
0.0066935
0.00669731
0.00670152
0.00670595
0.0206341
0.0206646
0.0206846
0.0207537
0.0209116
0.0211793
0.0215552
0.0220161
0.0225258
0.0230443
0.023533
0.0239502
0.024242
0.0243302
0.0241205
0.0236204
0.0228038
0.0216229
0.020077
0.018229
0.016055
0.0137431
0.0115605
0.00950276
0.0075723
0.00578526
0.00420198
0.0028446
0.0017513
0.000958147
0.000447319
0.000175333
9.14835e-05
0.000110261
0.0093987
0.0108164
0.0138118
0.01699
0.0189567
0.0199242
0.0202337
0.020371
0.00861003
0.0080395
0.00762908
0.00733612
0.00712733
0.00698036
0.00687782
0.00680664
0.00675749
0.00672207
0.00670304
0.00669312
0.0066764
0.00667509
0.00667028
0.00667086
0.00667013
0.00667199
0.00667306
0.00667558
0.00667774
0.00668056
0.00668331
0.00668648
0.00668977
0.00669342
0.00669725
0.00670149
0.00670594
0.0203267
0.0202474
0.0202117
0.0202648
0.0204371
0.0207393
0.0211585
0.0216647
0.0222192
0.0227841
0.0233238
0.023797
0.0241489
0.0243
0.0241513
0.0237069
0.0229194
0.021761
0.0202581
0.0184423
0.016283
0.0139648
0.0117646
0.00968441
0.00772997
0.00591815
0.00430609
0.00292254
0.00180067
0.000981011
0.000452378
0.000174955
9.18069e-05
0.000111294
0.00919832
0.0104697
0.0132648
0.0165701
0.0186875
0.0197419
0.0201091
0.0200483
0.0199834
0.00846989
0.00793641
0.00755564
0.00728412
0.007092
0.00695702
0.00686254
0.00679671
0.00675088
0.00671843
0.00670097
0.00669083
0.00667602
0.00667461
0.00667023
0.00667084
0.00667012
0.00667199
0.00667308
0.00667556
0.0066777
0.00668043
0.00668321
0.00668637
0.00668968
0.00669335
0.0066972
0.00670146
0.00670593
0.0198273
0.0196864
0.0196284
0.0196919
0.0198988
0.0202474
0.0207178
0.0212741
0.0218777
0.0224947
0.0230912
0.0236247
0.0240384
0.0242518
0.0241623
0.0237614
0.0230107
0.021902
0.0204459
0.0186664
0.0165261
0.0142043
0.0119874
0.00988446
0.00790479
0.00606657
0.00442284
0.00301037
0.00185696
0.00100733
0.000458499
0.00017449
9.222e-05
0.00011253
0.00900656
0.0101498
0.0127064
0.0161042
0.0183894
0.0195343
0.019941
0.0199118
0.019609
0.0194139
0.00833359
0.0078368
0.00748545
0.00723589
0.00705989
0.00693577
0.00684862
0.0067877
0.00674473
0.0067153
0.00669946
0.00668841
0.00667584
0.00667423
0.00667027
0.00667083
0.00667012
0.00667197
0.00667311
0.00667546
0.0066776
0.00668029
0.0066831
0.00668626
0.00668959
0.00669328
0.00669714
0.00670142
0.00670591
0.019185
0.0190139
0.01896
0.0190559
0.0193094
0.0197135
0.02024
0.0208495
0.0215068
0.0221825
0.0228418
0.0234393
0.0239158
0.0241905
0.0241564
0.0238022
0.0231007
0.0220449
0.0206395
0.0189008
0.0167841
0.0144621
0.0122301
0.0101046
0.00809867
0.00623249
0.00455429
0.00310997
0.00192126
0.00103791
0.000465652
0.000174268
9.28521e-05
0.000113764