# Region type : patch inlet
# Faces  :    120
# Area   :    4.800000e-04
# Time        	average(p)
0             	1.015050e+05
1.19904e-05   	1.015063e+05
2.62999e-05   	1.015320e+05
4.29227e-05   	1.015559e+05
6.18525e-05   	1.015750e+05
8.30879e-05   	1.015875e+05
0.00010615    	1.015935e+05
0.000129106   	1.015948e+05
0.000151955   	1.015937e+05
0.000174752   	1.015919e+05
0.000197443   	1.015901e+05
0.000220082   	1.015885e+05
0.000242668   	1.015872e+05
0.000265202   	1.015862e+05
0.000287736   	1.015852e+05
0.000310271   	1.015843e+05
0.000332753   	1.015834e+05
0.000355235   	1.015824e+05
0.000377717   	1.015815e+05
0.000400199   	1.015806e+05
0.000422681   	1.015798e+05
0.000445163   	1.015789e+05
0.000467592   	1.015781e+05
0.000490021   	1.015773e+05
0.00051245    	1.015766e+05
0.000534879   	1.015759e+05
0.000557309   	1.015751e+05
0.000579738   	1.015744e+05
0.000602114   	1.015738e+05
0.00062449    	1.015731e+05
0.000646865   	1.015725e+05
0.000669241   	1.015718e+05
0.000691617   	1.015712e+05
0.00071394    	1.015706e+05
0.000736262   	1.015700e+05
0.000758584   	1.015694e+05
0.000780853   	1.015688e+05
0.000803067   	1.015682e+05
0.000825282   	1.015676e+05
0.000847443   	1.015670e+05
0.000869551   	1.015664e+05
0.000891605   	1.015658e+05
0.000913606   	1.015652e+05
0.000935554   	1.015646e+05
0.000957396   	1.015640e+05
0.000979185   	1.015635e+05
0.00100092    	1.015629e+05
0.00102261    	1.015624e+05
0.00104424    	1.015618e+05
0.00106582    	1.015613e+05
0.00108735    	1.015607e+05
0.00110882    	1.015602e+05
0.0011303     	1.015597e+05
0.00115172    	1.015591e+05
0.00117315    	1.015586e+05
0.00119457    	1.015581e+05
0.001216      	1.015576e+05
0.00123742    	1.015571e+05
0.00125885    	1.015566e+05
0.00128027    	1.015562e+05
0.0013017     	1.015557e+05
0.00132312    	1.015553e+05
0.00134454    	1.015550e+05
0.00136597    	1.015546e+05
0.00138739    	1.015543e+05
0.00140887    	1.015541e+05
0.00143035    	1.015540e+05
0.00145183    	1.015539e+05
0.0014733     	1.015538e+05
0.00149478    	1.015539e+05
0.00151626    	1.015541e+05
0.00153774    	1.015543e+05
0.00155922    	1.015546e+05
0.00158069    	1.015550e+05
0.00160217    	1.015555e+05
0.00162365    	1.015561e+05
0.00164513    	1.015567e+05
0.0016666     	1.015573e+05
0.00168808    	1.015580e+05
0.00170956    	1.015587e+05
0.00173109    	1.015593e+05
0.00175263    	1.015599e+05
0.00177416    	1.015604e+05
0.00179569    	1.015608e+05
0.00181723    	1.015610e+05
0.00183876    	1.015611e+05
0.00186035    	1.015610e+05
0.00188194    	1.015606e+05
0.00190353    	1.015601e+05
0.00192512    	1.015593e+05
0.00194677    	1.015582e+05
0.00196842    	1.015569e+05
0.00199007    	1.015553e+05
0.00201172    	1.015535e+05
0.00203343    	1.015514e+05
0.00205513    	1.015491e+05
0.00207684    	1.015465e+05
0.00209855    	1.015438e+05
0.00212025    	1.015409e+05
0.00214202    	1.015379e+05
0.00216379    	1.015347e+05
0.00218556    	1.015314e+05
0.00220732    	1.015280e+05
0.00222909    	1.015245e+05
0.00225086    	1.015210e+05
0.00227263    	1.015175e+05
0.00229439    	1.015140e+05
0.00231616    	1.015105e+05
0.00233793    	1.015070e+05
0.00235976    	1.015036e+05
0.00238159    	1.015003e+05
0.00240341    	1.014970e+05
0.00242524    	1.014938e+05
0.00244707    	1.014907e+05
0.0024689     	1.014877e+05
0.00249073    	1.014848e+05
0.00251256    	1.014820e+05
0.00253439    	1.014794e+05
0.00255622    	1.014769e+05
0.00257805    	1.014745e+05
0.00259988    	1.014722e+05
0.00262171    	1.014702e+05
0.00264354    	1.014683e+05
0.00266537    	1.014665e+05
0.0026872     	1.014649e+05
0.00270902    	1.014634e+05
0.00273085    	1.014620e+05
0.00275268    	1.014607e+05
0.00277451    	1.014596e+05
0.00279634    	1.014587e+05
0.00281817    	1.014578e+05
0.00284       	1.014570e+05
0.00286183    	1.014563e+05
0.00288366    	1.014558e+05
0.00290555    	1.014553e+05
0.00292745    	1.014549e+05
0.00294935    	1.014545e+05
0.00297124    	1.014543e+05
0.00299314    	1.014540e+05
0.00301504    	1.014539e+05
0.003037      	1.014537e+05
0.00305897    	1.014536e+05
0.00308093    	1.014535e+05
0.0031029     	1.014535e+05
0.00312486    	1.014535e+05
0.0031469     	1.014534e+05
0.00316893    	1.014534e+05
0.00319097    	1.014535e+05
0.00321301    	1.014535e+05
0.00323504    	1.014535e+05
0.00325715    	1.014535e+05
0.00327926    	1.014536e+05
0.00330137    	1.014536e+05
0.00332347    	1.014535e+05
0.00334558    	1.014535e+05
0.00336776    	1.014534e+05
0.00338994    	1.014534e+05
0.00341212    	1.014535e+05
0.00343431    	1.014534e+05
0.00345649    	1.014534e+05
0.00347867    	1.014534e+05
0.00350085    	1.014533e+05
0.00352303    	1.014533e+05
0.00354521    	1.014532e+05
0.00356739    	1.014531e+05
0.00358965    	1.014529e+05
0.00361191    	1.014527e+05
0.00363417    	1.014526e+05
0.00365643    	1.014523e+05
0.00367869    	1.014521e+05
0.00370094    	1.014518e+05
0.0037232     	1.014515e+05
0.00374546    	1.014512e+05
0.00376772    	1.014509e+05
0.00378998    	1.014505e+05
0.00381223    	1.014501e+05
0.00383449    	1.014498e+05
0.00385675    	1.014494e+05
0.00387901    	1.014490e+05
0.00390127    	1.014486e+05
0.00392352    	1.014483e+05
0.00394578    	1.014479e+05
0.00396804    	1.014476e+05
0.0039903     	1.014472e+05
0.00401256    	1.014468e+05
0.00403473    	1.014464e+05
0.00405691    	1.014460e+05
0.00407908    	1.014456e+05
0.00410126    	1.014452e+05
0.00412344    	1.014447e+05
0.00414561    	1.014444e+05
0.00416779    	1.014440e+05
0.00418996    	1.014436e+05
0.00421214    	1.014432e+05
0.00423431    	1.014429e+05
0.00425649    	1.014426e+05
0.00427867    	1.014423e+05
0.00430084    	1.014420e+05
0.00432302    	1.014417e+05
0.00434519    	1.014414e+05
0.00436737    	1.014412e+05
0.00438954    	1.014409e+05
0.00441172    	1.014407e+05
0.0044339     	1.014405e+05
0.00445607    	1.014403e+05
0.00447825    	1.014402e+05
0.00450042    	1.014400e+05
0.0045226     	1.014398e+05
0.00454477    	1.014397e+05
0.00456695    	1.014395e+05
0.00458913    	1.014394e+05
0.0046113     	1.014393e+05
0.00463348    	1.014392e+05
0.00465565    	1.014391e+05
0.00467783    	1.014390e+05
0.0047        	1.014390e+05
0.00472218    	1.014390e+05
0.00474436    	1.014389e+05
0.00476653    	1.014389e+05
0.00478871    	1.014389e+05
0.00481088    	1.014389e+05
0.00483306    	1.014388e+05
0.00485523    	1.014388e+05
0.00487741    	1.014388e+05
0.00489959    	1.014388e+05
0.00492176    	1.014388e+05
0.00494394    	1.014387e+05
0.00496611    	1.014387e+05
0.00498829    	1.014387e+05
0.00501046    	1.014386e+05
0.00503264    	1.014386e+05
0.00505482    	1.014385e+05
0.00507699    	1.014384e+05
0.00509917    	1.014383e+05
0.00512134    	1.014382e+05
0.00514352    	1.014381e+05
0.00516569    	1.014379e+05
0.00518787    	1.014378e+05
0.00521005    	1.014376e+05
0.00523222    	1.014374e+05
0.0052544     	1.014372e+05
0.00527657    	1.014370e+05
0.00529875    	1.014367e+05
0.00532092    	1.014365e+05
0.0053431     	1.014362e+05
0.00536528    	1.014360e+05
0.00538745    	1.014357e+05
0.00540963    	1.014354e+05
0.0054317     	1.014351e+05
0.00545377    	1.014348e+05
0.00547583    	1.014345e+05
0.0054979     	1.014342e+05
0.00551997    	1.014339e+05
0.00554204    	1.014335e+05
0.00556411    	1.014332e+05
0.00558618    	1.014328e+05
0.00560825    	1.014325e+05
0.00563032    	1.014322e+05
0.00565239    	1.014318e+05
0.00567446    	1.014315e+05
0.00569653    	1.014311e+05
0.00571859    	1.014308e+05
0.00574066    	1.014305e+05
0.00576273    	1.014301e+05
0.0057848     	1.014297e+05
0.00580687    	1.014293e+05
0.00582894    	1.014289e+05
0.00585101    	1.014286e+05
0.00587308    	1.014282e+05
0.00589515    	1.014278e+05
0.00591722    	1.014274e+05
0.00593929    	1.014270e+05
0.00596135    	1.014267e+05
0.00598342    	1.014264e+05
0.00600549    	1.014259e+05
0.00602756    	1.014256e+05
0.00604963    	1.014253e+05
0.0060717     	1.014249e+05
0.00609377    	1.014246e+05
0.00611584    	1.014242e+05
0.00613791    	1.014239e+05
0.00615998    	1.014237e+05
0.00618205    	1.014235e+05
0.00620412    	1.014233e+05
0.00622618    	1.014231e+05
0.00624825    	1.014229e+05
0.00627032    	1.014227e+05
0.00629239    	1.014224e+05
0.00631446    	1.014221e+05
0.00633653    	1.014218e+05
0.0063586     	1.014215e+05
0.00638067    	1.014213e+05
0.00640274    	1.014210e+05
0.00642481    	1.014207e+05
0.00644688    	1.014205e+05
0.00646894    	1.014202e+05
0.00649101    	1.014200e+05
0.00651308    	1.014197e+05
0.00653515    	1.014195e+05
0.00655722    	1.014192e+05
0.00657929    	1.014189e+05
0.00660136    	1.014186e+05
0.00662343    	1.014184e+05
0.0066455     	1.014182e+05
0.00666757    	1.014179e+05
0.00668964    	1.014176e+05
0.0067117     	1.014173e+05
0.00673377    	1.014172e+05
0.00675584    	1.014169e+05
0.00677791    	1.014167e+05
0.00679998    	1.014165e+05
0.00682205    	1.014162e+05
0.00684412    	1.014160e+05
0.00686619    	1.014157e+05
0.00688826    	1.014155e+05
0.00691033    	1.014153e+05
0.0069324     	1.014150e+05
0.00695446    	1.014148e+05
0.00697653    	1.014145e+05
0.0069986     	1.014142e+05
0.00702067    	1.014139e+05
0.00704274    	1.014136e+05
0.00706481    	1.014133e+05
0.00708688    	1.014130e+05
0.00710895    	1.014127e+05
0.00713102    	1.014123e+05
0.00715309    	1.014120e+05
0.00717516    	1.014116e+05
0.00719722    	1.014113e+05
0.00721929    	1.014110e+05
0.00724136    	1.014108e+05
0.00726343    	1.014104e+05
0.0072855     	1.014102e+05
0.00730757    	1.014098e+05
0.00732964    	1.014095e+05
0.00735171    	1.014092e+05
0.00737378    	1.014089e+05
0.00739585    	1.014084e+05
0.00741792    	1.014080e+05
0.00743998    	1.014076e+05
0.00746205    	1.014074e+05
0.00748412    	1.014072e+05
0.00750619    	1.014069e+05
0.00752826    	1.014066e+05
0.00755033    	1.014063e+05
0.0075724     	1.014061e+05
0.00759447    	1.014058e+05
0.00761654    	1.014056e+05
0.00763861    	1.014054e+05
0.00766068    	1.014052e+05
0.00768274    	1.014050e+05
0.00770481    	1.014048e+05
0.00772688    	1.014047e+05
0.00774895    	1.014045e+05
0.00777102    	1.014043e+05
0.00779309    	1.014043e+05
0.00781516    	1.014042e+05
0.00783723    	1.014041e+05
0.0078593     	1.014039e+05
0.00788137    	1.014037e+05
0.00790344    	1.014035e+05
0.0079255     	1.014033e+05
0.00794757    	1.014031e+05
0.00796964    	1.014029e+05
0.00799171    	1.014027e+05
0.00801378    	1.014025e+05
0.00803585    	1.014023e+05
0.00805792    	1.014022e+05
0.00807999    	1.014021e+05
0.00810206    	1.014020e+05
0.00812413    	1.014019e+05
0.0081462     	1.014018e+05
0.00816826    	1.014016e+05
0.00819033    	1.014015e+05
0.0082124     	1.014014e+05
0.00823447    	1.014011e+05
0.00825654    	1.014009e+05
0.00827861    	1.014005e+05
0.00830068    	1.014003e+05
0.00832275    	1.014001e+05
0.00834482    	1.014000e+05
0.00836689    	1.013999e+05
0.00838896    	1.013999e+05
0.00841102    	1.013998e+05
0.00843309    	1.013997e+05
0.00845516    	1.013996e+05
0.00847723    	1.013995e+05
0.0084993     	1.013995e+05
0.00852137    	1.013995e+05
0.00854344    	1.013994e+05
0.00856551    	1.013993e+05
0.00858758    	1.013992e+05
0.00860965    	1.013990e+05
0.00863172    	1.013990e+05
0.00865378    	1.013988e+05
0.00867585    	1.013987e+05
0.00869792    	1.013987e+05
0.00871999    	1.013987e+05
0.00874206    	1.013985e+05
0.00876413    	1.013985e+05
0.0087862     	1.013985e+05
0.00880827    	1.013984e+05
0.00883034    	1.013984e+05
0.00885241    	1.013984e+05
0.00887448    	1.013983e+05
0.00889655    	1.013982e+05
0.00891861    	1.013981e+05
0.00894068    	1.013981e+05
0.00896275    	1.013980e+05
0.00898482    	1.013980e+05
0.00900689    	1.013980e+05
0.00902896    	1.013980e+05
0.00905103    	1.013981e+05
0.0090731     	1.013981e+05
0.00909517    	1.013982e+05
0.00911724    	1.013982e+05
0.00913931    	1.013983e+05
0.00916137    	1.013983e+05
0.00918344    	1.013984e+05
0.00920551    	1.013985e+05
0.00922758    	1.013985e+05
0.00924965    	1.013986e+05
0.00927172    	1.013985e+05
0.00929379    	1.013986e+05
0.00931586    	1.013985e+05
0.00933793    	1.013985e+05
0.00936       	1.013985e+05
0.00938207    	1.013985e+05
0.00940413    	1.013982e+05
0.0094262     	1.013981e+05
0.00944827    	1.013982e+05
0.00947034    	1.013984e+05
0.00949241    	1.013982e+05
0.00951448    	1.013983e+05
0.00953655    	1.013984e+05
0.00955862    	1.013985e+05
0.00958069    	1.013986e+05
0.00960276    	1.013988e+05
0.00962483    	1.013988e+05
0.00964689    	1.013990e+05
0.00966896    	1.013991e+05
0.00969103    	1.013993e+05
0.0097131     	1.013995e+05
0.00973517    	1.013997e+05
0.00975724    	1.013998e+05
0.00977931    	1.013999e+05
0.00980138    	1.014001e+05
0.00982345    	1.014003e+05
0.00984552    	1.014004e+05
0.00986759    	1.014006e+05
0.00988965    	1.014008e+05
0.00991172    	1.014008e+05
0.00993379    	1.014010e+05
0.00995586    	1.014011e+05
0.00997793    	1.014013e+05
0.01          	1.014015e+05
0.0100224     	1.014017e+05
0.0100447     	1.014017e+05
0.0100671     	1.014018e+05
0.0100895     	1.014020e+05
0.0101119     	1.014022e+05
0.0101342     	1.014023e+05
0.0101566     	1.014025e+05
0.010179      	1.014027e+05
0.0102013     	1.014030e+05
0.0102237     	1.014031e+05
0.0102461     	1.014033e+05
0.0102685     	1.014033e+05
0.0102908     	1.014035e+05
0.0103132     	1.014037e+05
0.0103356     	1.014039e+05
0.010358      	1.014042e+05
0.0103804     	1.014044e+05
0.0104028     	1.014047e+05
0.0104253     	1.014048e+05
0.0104477     	1.014050e+05
0.0104701     	1.014052e+05
0.0104925     	1.014053e+05
0.010515      	1.014055e+05
0.0105374     	1.014057e+05
0.0105598     	1.014059e+05
0.0105822     	1.014054e+05
0.0106046     	1.014055e+05
0.0106271     	1.014058e+05
0.0106495     	1.014060e+05
0.0106719     	1.014063e+05
0.0106943     	1.014065e+05
0.0107168     	1.014067e+05
0.0107392     	1.014069e+05
0.0107616     	1.014072e+05
0.010784      	1.014074e+05
0.0108065     	1.014075e+05
0.0108289     	1.014075e+05
0.0108513     	1.014076e+05
0.0108737     	1.014078e+05
0.0108962     	1.014081e+05
0.0109186     	1.014084e+05
0.010941      	1.014087e+05
0.0109634     	1.014088e+05
0.0109858     	1.014089e+05
0.0110083     	1.014091e+05
0.0110307     	1.014092e+05
0.0110532     	1.014094e+05
0.0110757     	1.014096e+05
0.0110981     	1.014098e+05
0.0111206     	1.014101e+05
0.0111431     	1.014102e+05
0.0111656     	1.014103e+05
0.011188      	1.014106e+05
0.0112105     	1.014107e+05
0.011233      	1.014110e+05
0.0112555     	1.014113e+05
0.011278      	1.014115e+05
0.0113004     	1.014117e+05
0.0113229     	1.014120e+05
0.0113454     	1.014123e+05
0.0113679     	1.014126e+05
0.0113904     	1.014130e+05
0.0114128     	1.014132e+05
0.0114353     	1.014133e+05
0.0114578     	1.014136e+05
0.0114803     	1.014137e+05
0.0115028     	1.014139e+05
0.0115252     	1.014140e+05
0.0115477     	1.014142e+05
0.0115702     	1.014143e+05
0.0115927     	1.014144e+05
0.0116152     	1.014144e+05
0.0116376     	1.014145e+05
0.0116601     	1.014145e+05
0.0116826     	1.014147e+05
0.0117051     	1.014149e+05
0.0117276     	1.014152e+05
0.0117502     	1.014154e+05
0.0117727     	1.014156e+05
0.0117952     	1.014158e+05
0.0118178     	1.014160e+05
0.0118403     	1.014161e+05
0.0118629     	1.014161e+05
0.0118854     	1.014161e+05
0.0119079     	1.014162e+05
0.0119305     	1.014164e+05
0.011953      	1.014166e+05
0.0119756     	1.014168e+05
0.0119981     	1.014169e+05
0.0120206     	1.014171e+05
0.0120432     	1.014174e+05
0.0120657     	1.014176e+05
0.0120883     	1.014177e+05
0.0121108     	1.014178e+05
0.0121333     	1.014178e+05
0.0121559     	1.014178e+05
0.0121784     	1.014179e+05
0.012201      	1.014181e+05
0.0122235     	1.014182e+05
0.012246      	1.014183e+05
0.0122686     	1.014184e+05
0.0122911     	1.014185e+05
0.0123137     	1.014186e+05
0.0123362     	1.014186e+05
0.0123588     	1.014186e+05
0.0123813     	1.014188e+05
0.0124038     	1.014189e+05
0.0124264     	1.014191e+05
0.0124489     	1.014192e+05
0.0124715     	1.014191e+05
0.012494      	1.014192e+05
0.0125165     	1.014193e+05
0.0125391     	1.014193e+05
0.0125618     	1.014194e+05
0.0125844     	1.014197e+05
0.012607      	1.014200e+05
0.0126296     	1.014202e+05
0.0126522     	1.014203e+05
0.0126748     	1.014205e+05
0.0126974     	1.014207e+05
0.01272       	1.014208e+05
0.0127426     	1.014208e+05
0.0127652     	1.014207e+05
0.0127878     	1.014207e+05
0.0128104     	1.014206e+05
0.0128331     	1.014207e+05
0.0128557     	1.014209e+05
0.0128783     	1.014211e+05
0.0129009     	1.014213e+05
0.0129235     	1.014215e+05
0.0129461     	1.014216e+05
0.0129687     	1.014216e+05
0.0129913     	1.014217e+05
0.0130139     	1.014218e+05
0.0130365     	1.014218e+05
0.0130591     	1.014217e+05
0.0130818     	1.014218e+05
0.0131044     	1.014219e+05
0.013127      	1.014218e+05
0.0131496     	1.014218e+05
0.0131722     	1.014219e+05
0.0131948     	1.014219e+05
0.0132174     	1.014219e+05
0.01324       	1.014219e+05
0.0132626     	1.014220e+05
0.0132852     	1.014222e+05
0.0133078     	1.014222e+05
0.0133305     	1.014224e+05
0.0133532     	1.014224e+05
0.0133759     	1.014225e+05
0.0133986     	1.014224e+05
0.0134213     	1.014224e+05
0.013444      	1.014225e+05
0.0134666     	1.014225e+05
0.0134893     	1.014226e+05
0.013512      	1.014227e+05
0.0135347     	1.014227e+05
0.0135574     	1.014227e+05
0.0135801     	1.014227e+05
0.0136027     	1.014227e+05
0.0136254     	1.014226e+05
0.0136481     	1.014225e+05
0.0136708     	1.014224e+05
0.0136935     	1.014223e+05
0.0137162     	1.014223e+05
0.0137389     	1.014224e+05
0.0137615     	1.014226e+05
0.0137842     	1.014228e+05
0.0138069     	1.014229e+05
0.0138296     	1.014230e+05
0.0138523     	1.014231e+05
0.013875      	1.014231e+05
0.0138977     	1.014231e+05
0.0139203     	1.014229e+05
0.013943      	1.014223e+05
0.0139657     	1.014219e+05
0.0139884     	1.014219e+05
0.0140111     	1.014220e+05
0.0140338     	1.014222e+05
0.0140565     	1.014222e+05
0.0140791     	1.014223e+05
0.0141018     	1.014223e+05
0.0141245     	1.014223e+05
0.0141472     	1.014220e+05
0.0141699     	1.014220e+05
0.0141926     	1.014220e+05
0.0142153     	1.014221e+05
0.0142379     	1.014222e+05
0.0142606     	1.014222e+05
0.0142833     	1.014221e+05
0.014306      	1.014222e+05
0.0143287     	1.014222e+05
0.0143514     	1.014221e+05
0.014374      	1.014221e+05
0.0143967     	1.014223e+05
0.0144194     	1.014224e+05
0.0144421     	1.014224e+05
0.0144648     	1.014224e+05
0.0144875     	1.014222e+05
0.0145102     	1.014220e+05
0.0145328     	1.014216e+05
0.0145555     	1.014214e+05
0.0145782     	1.014214e+05
0.0146009     	1.014212e+05
0.0146236     	1.014211e+05
0.0146463     	1.014210e+05
0.014669      	1.014208e+05
0.0146916     	1.014206e+05
0.0147143     	1.014204e+05
0.014737      	1.014203e+05
0.0147597     	1.014200e+05
0.0147824     	1.014199e+05
0.0148051     	1.014198e+05
0.0148278     	1.014197e+05
0.0148504     	1.014197e+05
0.0148731     	1.014196e+05
0.0148958     	1.014193e+05
0.0149185     	1.014192e+05
0.0149412     	1.014191e+05
0.0149639     	1.014188e+05
0.0149866     	1.014186e+05
0.0150092     	1.014184e+05
0.0150319     	1.014183e+05
0.0150546     	1.014183e+05
0.0150773     	1.014175e+05
0.0151        	1.014173e+05
0.0151227     	1.014172e+05
0.0151453     	1.014171e+05
0.015168      	1.014171e+05
0.0151907     	1.014171e+05
0.0152134     	1.014170e+05
0.0152361     	1.014170e+05
0.0152588     	1.014168e+05
0.0152815     	1.014164e+05
0.0153041     	1.014162e+05
0.0153268     	1.014159e+05
0.0153495     	1.014157e+05
0.0153722     	1.014154e+05
0.0153949     	1.014151e+05
0.0154176     	1.014146e+05
0.0154403     	1.014143e+05
0.0154629     	1.014139e+05
0.0154856     	1.014138e+05
0.0155083     	1.014136e+05
0.015531      	1.014136e+05
0.0155537     	1.014136e+05
0.0155764     	1.014135e+05
0.0155991     	1.014132e+05
0.0156217     	1.014129e+05
0.0156444     	1.014125e+05
0.0156671     	1.014119e+05
0.0156898     	1.014115e+05
0.0157125     	1.014111e+05
0.0157352     	1.014109e+05
0.0157579     	1.014106e+05
0.0157805     	1.014105e+05
0.0158032     	1.014103e+05
0.0158259     	1.014100e+05
0.0158486     	1.014097e+05
0.0158713     	1.014096e+05
0.015894      	1.014093e+05
0.0159166     	1.014090e+05
0.0159393     	1.014087e+05
0.015962      	1.014084e+05
0.0159847     	1.014081e+05
0.0160074     	1.014079e+05
0.0160301     	1.014075e+05
0.0160528     	1.014070e+05
0.0160754     	1.014067e+05
0.0160981     	1.014065e+05
0.0161208     	1.014063e+05
0.0161435     	1.014060e+05
0.0161662     	1.014057e+05
0.0161889     	1.014055e+05
0.0162116     	1.014051e+05
0.0162342     	1.014044e+05
0.0162569     	1.014040e+05
0.0162796     	1.014035e+05
0.0163023     	1.014031e+05
0.016325      	1.014028e+05
0.0163477     	1.014025e+05
0.0163704     	1.014022e+05
0.016393      	1.014018e+05
0.0164157     	1.014014e+05
0.0164384     	1.014009e+05
0.0164611     	1.014007e+05
0.0164838     	1.014004e+05
0.0165065     	1.014001e+05
0.0165292     	1.013999e+05
0.0165518     	1.013994e+05
0.0165745     	1.013989e+05
0.0165972     	1.013986e+05
0.0166199     	1.013983e+05
0.0166426     	1.013980e+05
0.0166653     	1.013975e+05
0.0166879     	1.013972e+05
0.0167106     	1.013968e+05
0.0167333     	1.013964e+05
0.016756      	1.013959e+05
0.0167787     	1.013955e+05
0.0168014     	1.013950e+05
0.0168241     	1.013945e+05
0.0168467     	1.013941e+05
0.0168694     	1.013940e+05
0.0168921     	1.013936e+05
0.0169148     	1.013930e+05
0.0169375     	1.013926e+05
0.0169602     	1.013923e+05
0.0169829     	1.013920e+05
0.0170055     	1.013915e+05
0.0170282     	1.013910e+05
0.0170509     	1.013906e+05
0.0170736     	1.013903e+05
0.0170963     	1.013900e+05
0.017119      	1.013895e+05
0.0171417     	1.013891e+05
0.0171643     	1.013886e+05
0.017187      	1.013880e+05
0.0172097     	1.013873e+05
0.0172324     	1.013868e+05
0.0172551     	1.013864e+05
0.0172778     	1.013861e+05
0.0173005     	1.013856e+05
0.0173231     	1.013853e+05
0.0173458     	1.013848e+05
0.0173685     	1.013844e+05
0.0173912     	1.013839e+05
0.0174139     	1.013834e+05
0.0174366     	1.013830e+05
0.0174592     	1.013826e+05
0.0174819     	1.013821e+05
0.0175046     	1.013817e+05
0.0175273     	1.013813e+05
0.01755       	1.013808e+05
0.0175727     	1.013803e+05
0.0175954     	1.013798e+05
0.017618      	1.013792e+05
0.0176407     	1.013786e+05
0.0176634     	1.013780e+05
0.0176861     	1.013776e+05
0.0177088     	1.013771e+05
0.0177315     	1.013765e+05
0.0177542     	1.013760e+05
0.0177768     	1.013754e+05
0.0177995     	1.013747e+05
0.0178222     	1.013741e+05
0.0178449     	1.013736e+05
0.0178676     	1.013730e+05
0.0178903     	1.013726e+05
0.017913      	1.013722e+05
0.0179356     	1.013716e+05
0.0179583     	1.013711e+05
0.017981      	1.013703e+05
0.0180037     	1.013697e+05
0.0180264     	1.013690e+05
0.0180491     	1.013683e+05
0.0180718     	1.013680e+05
0.0180944     	1.013674e+05
0.0181171     	1.013669e+05
0.0181398     	1.013664e+05
0.0181625     	1.013658e+05
0.0181852     	1.013653e+05
0.0182079     	1.013642e+05
0.0182305     	1.013635e+05
0.0182532     	1.013631e+05
0.0182759     	1.013623e+05
0.0182986     	1.013616e+05
0.0183213     	1.013610e+05
0.018344      	1.013605e+05
0.0183667     	1.013601e+05
0.0183893     	1.013594e+05
0.018412      	1.013588e+05
0.0184347     	1.013582e+05
0.0184574     	1.013576e+05
0.0184801     	1.013572e+05
0.0185028     	1.013567e+05
0.0185255     	1.013562e+05
0.0185481     	1.013557e+05
0.0185708     	1.013552e+05
0.0185935     	1.013546e+05
0.0186162     	1.013539e+05
0.0186389     	1.013533e+05
0.0186616     	1.013527e+05
0.0186843     	1.013520e+05
0.0187069     	1.013514e+05
0.0187296     	1.013508e+05
0.0187523     	1.013499e+05
0.018775      	1.013484e+05
0.0187977     	1.013476e+05
0.0188204     	1.013468e+05
0.0188431     	1.013462e+05
0.0188657     	1.013458e+05
0.0188884     	1.013454e+05
0.0189111     	1.013449e+05
0.0189338     	1.013446e+05
0.0189565     	1.013441e+05
0.0189792     	1.013436e+05
0.0190018     	1.013431e+05
0.0190245     	1.013425e+05
0.0190472     	1.013420e+05
0.0190699     	1.013414e+05
0.0190926     	1.013407e+05
0.0191153     	1.013401e+05
0.019138      	1.013393e+05
0.0191606     	1.013385e+05
0.0191833     	1.013377e+05
0.019206      	1.013370e+05
0.0192287     	1.013358e+05
0.0192514     	1.013350e+05
0.0192741     	1.013344e+05
0.0192968     	1.013340e+05
0.0193194     	1.013337e+05
0.0193421     	1.013335e+05
0.0193648     	1.013332e+05
0.0193875     	1.013328e+05
0.0194102     	1.013316e+05
0.0194329     	1.013310e+05
0.0194556     	1.013304e+05
0.0194782     	1.013299e+05
0.0195009     	1.013294e+05
0.0195236     	1.013289e+05
0.0195463     	1.013286e+05
0.019569      	1.013282e+05
0.0195917     	1.013277e+05
0.0196144     	1.013271e+05
0.019637      	1.013265e+05
0.0196597     	1.013259e+05
0.0196824     	1.013253e+05
0.0197051     	1.013246e+05
0.0197278     	1.013238e+05
0.0197505     	1.013228e+05
0.0197731     	1.013222e+05
0.0197958     	1.013218e+05
0.0198185     	1.013211e+05
0.0198412     	1.013207e+05
0.0198639     	1.013201e+05
0.0198866     	1.013197e+05
0.0199093     	1.013195e+05
0.0199319     	1.013191e+05
0.0199546     	1.013187e+05
0.0199773     	1.013183e+05
0.02          	1.013175e+05
0.0200229     	1.013166e+05
0.0200458     	1.013159e+05
0.0200686     	1.013153e+05
0.0200915     	1.013148e+05
0.0201144     	1.013143e+05
0.0201373     	1.013138e+05
0.0201602     	1.013133e+05
0.0201831     	1.013126e+05
0.0202061     	1.013115e+05
0.020229      	1.013104e+05
0.0202519     	1.013098e+05
0.0202749     	1.013095e+05
0.0202978     	1.013091e+05
0.0203207     	1.013085e+05
0.0203437     	1.013078e+05
0.0203666     	1.013072e+05
0.0203895     	1.013067e+05
0.0204125     	1.013059e+05
0.0204354     	1.013051e+05
0.0204584     	1.013046e+05
0.0204813     	1.013043e+05
0.0205042     	1.013038e+05
0.0205272     	1.013035e+05
0.0205501     	1.013030e+05
0.020573      	1.013026e+05
0.020596      	1.013024e+05
0.0206189     	1.013023e+05
0.0206419     	1.013019e+05
0.0206648     	1.013015e+05
0.0206877     	1.013012e+05
0.0207107     	1.013007e+05
0.0207336     	1.013004e+05
0.0207565     	1.013001e+05
0.0207795     	1.012998e+05
0.0208024     	1.012992e+05
0.0208254     	1.012985e+05
0.0208484     	1.012977e+05
0.0208714     	1.012969e+05
0.0208944     	1.012961e+05
0.0209174     	1.012955e+05
0.0209404     	1.012953e+05
0.0209634     	1.012951e+05
0.0209864     	1.012950e+05
0.0210094     	1.012947e+05
0.0210323     	1.012944e+05
0.0210553     	1.012940e+05
0.0210783     	1.012938e+05
0.0211013     	1.012933e+05
0.0211243     	1.012930e+05
0.0211473     	1.012929e+05
0.0211703     	1.012924e+05
0.0211933     	1.012921e+05
0.0212163     	1.012919e+05
0.0212393     	1.012918e+05
0.0212623     	1.012915e+05
0.0212853     	1.012914e+05
0.0213083     	1.012913e+05
0.0213313     	1.012910e+05
0.0213544     	1.012904e+05
0.0213774     	1.012898e+05
0.0214005     	1.012891e+05
0.0214236     	1.012885e+05
0.0214466     	1.012881e+05
0.0214697     	1.012879e+05
0.0214927     	1.012875e+05
0.0215158     	1.012873e+05
0.0215388     	1.012871e+05
0.0215619     	1.012870e+05
0.0215849     	1.012866e+05
0.021608      	1.012862e+05
0.021631      	1.012862e+05
0.0216541     	1.012861e+05
0.0216772     	1.012860e+05
0.0217002     	1.012858e+05
0.0217233     	1.012854e+05
0.0217463     	1.012852e+05
0.0217694     	1.012849e+05
0.0217924     	1.012846e+05
0.0218155     	1.012844e+05
0.0218385     	1.012840e+05
0.0218616     	1.012836e+05
0.0218847     	1.012833e+05
0.0219077     	1.012826e+05
0.0219308     	1.012822e+05
0.0219538     	1.012821e+05
0.0219769     	1.012819e+05
0.0219999     	1.012817e+05
0.022023      	1.012814e+05
0.022046      	1.012811e+05
0.0220691     	1.012809e+05
0.0220921     	1.012810e+05
0.0221152     	1.012810e+05
0.0221383     	1.012809e+05
0.0221613     	1.012811e+05
0.0221844     	1.012811e+05
0.0222074     	1.012810e+05
0.0222305     	1.012810e+05
0.0222535     	1.012807e+05
0.0222766     	1.012806e+05
0.0222996     	1.012804e+05
0.0223227     	1.012801e+05
0.0223458     	1.012800e+05
0.0223688     	1.012799e+05
0.0223919     	1.012798e+05
0.0224149     	1.012800e+05
0.022438      	1.012803e+05
0.022461      	1.012798e+05
0.0224841     	1.012795e+05
0.0225071     	1.012792e+05
0.0225302     	1.012789e+05
0.0225532     	1.012785e+05
0.0225763     	1.012783e+05
0.0225994     	1.012781e+05
0.0226224     	1.012780e+05
0.0226455     	1.012779e+05
0.0226685     	1.012780e+05
0.0226916     	1.012781e+05
0.0227146     	1.012787e+05
0.0227377     	1.012791e+05
0.0227607     	1.012795e+05
0.0227838     	1.012794e+05
0.0228068     	1.012796e+05
0.0228299     	1.012798e+05
0.022853      	1.012794e+05
0.022876      	1.012793e+05
0.0228991     	1.012792e+05
0.0229221     	1.012793e+05
0.0229452     	1.012795e+05
0.0229682     	1.012795e+05
0.0229913     	1.012798e+05
0.0230143     	1.012802e+05
0.0230374     	1.012801e+05
0.0230605     	1.012803e+05
0.0230835     	1.012803e+05
0.0231066     	1.012804e+05
0.0231296     	1.012806e+05
0.0231527     	1.012809e+05
0.0231757     	1.012813e+05
0.0231988     	1.012814e+05
0.0232218     	1.012817e+05
0.0232449     	1.012817e+05
0.0232679     	1.012811e+05
0.023291      	1.012809e+05
0.0233141     	1.012808e+05
0.0233371     	1.012807e+05
0.0233602     	1.012806e+05
0.0233832     	1.012807e+05
0.0234063     	1.012806e+05
0.0234293     	1.012807e+05
0.0234524     	1.012812e+05
0.0234754     	1.012816e+05
0.0234985     	1.012819e+05
0.0235216     	1.012823e+05
0.0235446     	1.012826e+05
0.0235677     	1.012828e+05
0.0235907     	1.012829e+05
0.0236138     	1.012831e+05
0.0236368     	1.012834e+05
0.0236599     	1.012833e+05
0.0236829     	1.012833e+05
0.023706      	1.012837e+05
0.023729      	1.012839e+05
0.0237519     	1.012844e+05
0.0237749     	1.012848e+05
0.0237979     	1.012848e+05
0.0238208     	1.012848e+05
0.0238438     	1.012847e+05
0.0238668     	1.012846e+05
0.0238898     	1.012844e+05