/*--------------------------------*- C++ -*----------------------------------*\
  =========                 |
  \\      /  F ield         | OpenFOAM: The Open Source CFD Toolbox
   \\    /   O peration     | Website:  https://openfoam.org
    \\  /    A nd           | Version:  8
     \\/     M anipulation  |
\*---------------------------------------------------------------------------*/
FoamFile
{
    version     2.0;
    format      ascii;
    class       volScalarField;
    location    "0.09";
    object      epsilon;
}
// * * * * * * * * * * * * * * * * * * * * * * * * * * * * * * * * * * * * * //

dimensions      [0 2 -3 0 0 0 0];

internalField   nonuniform List<scalar> 
15677
(
59.7004
18.3536
52.6125
8.0876
25.8894
50.1625
4.62719
13.2622
31.5749
50.4824
3.17782
7.72282
17.0792
37.2638
51.5981
2.48948
5.0425
10.0237
20.807
42.636
53.6552
2.1457
3.62252
6.4606
12.1583
24.5349
47.6495
55.7184
1.97986
2.82081
4.5237
7.72169
14.2705
28.2449
52.0081
57.6558
1.91169
2.35295
3.40103
5.30842
8.91244
16.418
31.7455
55.6906
59.3537
1.88417
2.08027
2.72285
3.90795
6.01946
10.1018
18.5284
34.9443
58.7089
60.8558
1.87055
1.9394
2.30691
3.05468
4.35638
6.70452
11.2689
20.5608
37.7645
61.1848
62.1217
1.86765
1.87831
2.05637
2.52061
3.347
4.77449
7.36055
12.4129
22.4523
40.2277
63.1772
63.2355
1.86863
1.84884
1.91654
2.1858
2.71186
3.61393
5.16376
7.99807
13.5009
24.1972
42.3244
64.8031
64.1633
1.86954
1.83869
1.85192
1.98252
2.30651
2.88557
3.85714
5.53407
8.60266
14.5323
25.7611
44.115
66.1075
64.9954
1.86978
1.83697
1.82112
1.86771
2.0512
2.41765
3.04221
4.08348
5.88021
9.17791
15.483
27.1614
45.6106
67.1668
65.7207
1.86978
1.83723
1.81049
1.81332
1.89811
2.11721
2.51825
3.18569
4.29158
6.20608
9.71116
16.3589
28.383
46.8674
68.0307
66.3627
1.86974
1.8375
1.8082
1.78976
1.81538
1.93019
2.17847
2.60991
3.31595
4.48438
6.50612
10.2059
17.1435
29.4468
47.9126
68.7332
66.9508
1.86972
1.8376
1.8079
1.78273
1.77569
1.82144
1.96222
2.23487
2.69267
3.43482
4.65997
6.78249
10.653
17.8447
30.3536
48.7683
69.3358
67.451
1.86971
1.83761
1.80792
1.78101
1.76145
1.7661
1.83167
1.99293
2.28606
2.76747
3.54198
4.81967
7.03128
11.056
18.4543
31.1174
49.4769
69.8127
67.9581
1.8697
1.83761
1.80794
1.78068
1.75696
1.74389
1.76035
1.84304
2.02144
2.33228
2.83443
3.63821
4.96219
7.2542
11.4089
18.9796
31.7509
50.0312
70.2626
68.3524
1.8697
1.83759
1.80794
1.78064
1.7557
1.73586
1.72948
1.75735
1.85443
2.04756
2.37362
2.89402
3.72337
5.08829
7.4489
11.7148
19.4187
32.2594
50.4942
70.5967
68.8231
1.8697
1.83758
1.80793
1.78063
1.75539
1.73314
1.71726
1.71796
1.7558
1.86556
2.07118
2.41031
2.94646
3.79787
5.19768
7.61633
11.9713
19.7785
32.6655
50.8299
70.9691
69.136
1.8697
1.83757
1.80792
1.7806
1.75531
1.7323
1.71265
1.70126
1.7084
1.75569
1.87602
2.09226
2.44258
2.99205
3.86208
5.29058
7.75658
12.1814
20.0625
32.9684
51.1171
71.2181
69.6024
1.8697
1.83757
1.80791
1.78057
1.75528
1.73205
1.71104
1.69443
1.68719
1.70079
1.756
1.88562
2.11097
2.47069
3.0313
3.9163
5.3681
7.86988
12.3466
20.2766
33.1932
51.3063
71.5693
69.8556
1.86971
1.83756
1.8079
1.78055
1.75525
1.73194
1.71051
1.69181
1.67796
1.67523
1.69446
1.75676
1.89447
2.12754
2.4951
3.06461
3.96149
5.43004
7.95923
12.4697
20.4306
33.3414
51.4676
71.7727
70.3225
1.86971
1.83756
1.80789
1.78053
1.75522
1.73188
1.71031
1.69083
1.67418
1.66357
1.66473
1.68943
1.75813
1.9027
2.14227
2.51623
3.09276
3.99817
5.47931
8.02432
12.5563
20.5246
33.4295
51.5815
72.1662
70.5665
1.86971
1.83756
1.80789
1.78052
1.7552
1.73183
1.71022
1.69045
1.6727
1.6585
1.65063
1.65614
1.68558
1.75995
1.91054
2.15566
2.53485
3.11661
4.02787
5.51526
8.07057
12.6068
20.5811
33.4727
51.6537
72.461
429.272
1.86971
1.83756
1.80789
1.78051
1.75518
1.73179
1.71015
1.69027
1.67212
1.65636
1.64426
1.63981
1.64872
1.68294
1.7626
1.9185
2.1683
2.55159
3.1369
4.05124
5.54198
8.09702
12.6329
20.5813
33.4666
51.7741
88.7965
717.321
1.86971
1.83755
1.80788
1.7805
1.75516
1.73175
1.7101
1.69015
1.67185
1.65545
1.6415
1.63209
1.63023
1.64363
1.68224
1.76647
1.927
2.18087
2.56739
3.15511
4.07058
5.55984
8.11261
12.6294
20.5675
33.4685
52.693
122.131
998.104
1.86971
1.83755
1.80788
1.78049
1.75515
1.73173
1.71005
1.69007
1.6717
1.65502
1.64031
1.62855
1.62136
1.62334
1.63956
1.68329
1.77188
1.93683
2.19427
2.5835
3.17239
4.08709
5.57247
8.11226
12.6167
20.5367
33.4922
55.2442
157.699
1246.48
1.86971
1.83755
1.80788
1.78048
1.75514
1.7317
1.71002
1.69001
1.67159
1.65479
1.63975
1.62692
1.61724
1.61318
1.61766
1.63962
1.68632
1.77961
1.94872
2.20955
2.60074
3.19006
4.10222
5.58059
8.10893
12.5915
20.4975
33.5894
59.8087
190.316
1475.4
1.86971
1.83755
1.80788
1.78048
1.75513
1.73168
1.70998
1.68995
1.67149
1.65463
1.63943
1.62613
1.61532
1.60824
1.60678
1.61606
1.64143
1.69243
1.79041
1.96367
2.22748
2.62047
3.20919
4.11789
5.58749
8.10168
12.5619
20.4525
33.8398
64.5254
221.265
1669.66
1.86971
1.83755
1.80788
1.78047
1.75512
1.73167
1.70996
1.68991
1.67142
1.65451
1.63922
1.62571
1.61437
1.60586
1.60148
1.60391
1.61746
1.64624
1.70257
1.80528
1.98254
2.24944
2.64363
3.23153
4.13545
5.5956
8.09385
12.5302
20.4025
34.3046
69.322
248.494
1817.4
1.86971
1.83755
1.80788
1.78047
1.75512
1.73165
1.70994
1.68987
1.67136
1.65442
1.63906
1.62544
1.61384
1.60466
1.59889
1.59785
1.60508
1.62181
1.65569
1.71756
1.82512
2.00661
2.27627
2.67176
3.25796
4.15695
5.60688
8.08779
12.4971
20.3568
34.8603
73.6746
269.658
1932.14
1.86971
1.83755
1.80788
1.78046
1.75511
1.73164
1.70992
1.68983
1.6713
1.65433
1.63892
1.62523
1.61349
1.604
1.59756
1.59486
1.59891
1.60924
1.63076
1.67092
1.73835
1.85119
2.03675
2.30939
2.70553
3.29018
4.18347
5.62292
8.08509
12.4627
20.3197
35.3971
77.0462
286.401
2024.38
1.83755
1.86975
1.80788
1.78046
1.75511
1.73163
1.70991
1.68981
1.67126
1.65426
1.63881
1.62507
1.61322
1.60359
1.59681
1.59334
1.59588
1.60301
1.618
1.64627
1.6926
1.76624
1.8844
2.07434
2.34949
2.74655
3.32885
4.21639
5.64412
8.08616
12.4255
20.2781
35.8042
79.6325
299.985
2101.4
1.80788
1.83765
1.86982
1.78046
1.75511
1.73162
1.70989
1.68978
1.67122
1.6542
1.63871
1.62494
1.61301
1.60329
1.59632
1.59253
1.59437
1.60002
1.61181
1.63396
1.66884
1.72204
1.80221
1.92624
2.12016
2.39806
2.79516
3.37522
4.25583
5.67112
8.09068
12.3859
20.2282
36.0855
81.6103
311.457
2168.18
1.78045
1.80804
1.83785
1.86989
1.7551
1.73161
1.70988
1.68976
1.67119
1.65414
1.63863
1.62482
1.61282
1.60306
1.59595
1.59203
1.59358
1.5986
1.609
1.62828
1.65744
1.69988
1.76047
1.84767
1.97734
2.17541
2.45531
2.85274
3.42926
4.30226
5.70768
8.1012
12.3502
20.1664
36.2574
83.1656
321.415
2227.72
1.7551
1.78066
1.80835
1.83805
1.86997
1.7316
1.70987
1.68973
1.67117
1.65409
1.63857
1.62472
1.61267
1.60286
1.59566
1.59167
1.59312
1.59794
1.60785
1.62601
1.65272
1.69011
1.74078
1.80954
1.90375
2.03934
2.24056
2.52281
2.91895
3.49139
4.36166
5.7566
8.11964
12.318
20.0956
36.3528
84.4102
330.384
2282.18
1.7316
1.75535
1.78108
1.80868
1.83826
1.87004
1.70987
1.68972
1.67114
1.65405
1.63851
1.62463
1.61254
1.60269
1.59541
1.5914
1.5928
1.5976
1.60747
1.62544
1.65152
1.68718
1.73363
1.79352
1.87055
1.97227
2.11286
2.31687
2.59964
2.9945
3.56941
4.43738
5.81406
8.14448
12.2903
20.018
36.3846
85.4507
338.565
2332.59
1.70986
1.73189
1.75587
1.78151
1.80902
1.83848
1.87012
1.6897
1.67113
1.65401
1.63846
1.62454
1.61243
1.60255
1.5952
1.59118
1.59257
1.5974
1.60741
1.62563
1.6519
1.68747
1.73291
1.7899
1.85976
1.94585
2.05422
2.19955
2.40443
2.68708
3.08839
3.66701
4.52275
5.87931
8.17532
12.2667
19.9385
36.377
86.3406
346.233
2379.96
1.68969
1.71019
1.73249
1.7564
1.78196
1.80936
1.8387
1.8702
1.67111
1.65398
1.63842
1.62447
1.61233
1.60242
1.59501
1.59099
1.59238
1.59728
1.60747
1.62612
1.65309
1.68957
1.73565
1.79254
1.86032
1.94109
2.03639
2.15185
2.29977
2.50476
2.79496
3.20477
3.7754
4.61634
5.95079
8.21136
12.2486
19.859
36.3554
87.1351
353.401
2424.46
1.6711
1.69004
1.71086
1.7331
1.75695
1.78242
1.80972
1.83893
1.87029
1.65395
1.63839
1.6244
1.61226
1.6023
1.59486
1.59084
1.59223
1.5972
1.60759
1.62669
1.65452
1.69247
1.74031
1.799
1.86794
1.94796
2.03879
2.1436
2.26547
2.41533
2.62966
2.9305
3.33275
3.89203
4.71674
6.02742
8.25219
12.2347
19.7839
36.3147
87.8491
360.246
2466.76
1.65392
1.67148
1.69077
1.71156
1.73373
1.75751
1.78289
1.81008
1.83917
1.87037
1.63836
1.62434
1.61219
1.6022
1.59473
1.59071
1.5921
1.59714
1.60773
1.62728
1.65598
1.69551
1.74576
1.80758
1.87964
1.96251
2.05434
2.15619
2.26793
2.39571
2.56127
2.78836
3.08118
3.47154
4.01585
4.82247
6.10814
8.29669
12.2262
19.7133
36.2679
88.518
366.7
2506.59
1.63834
1.65431
1.67227
1.69153
1.71227
1.73438
1.75809
1.78337
1.81045
1.83941
1.87046
1.62428
1.61214
1.6021
1.59462
1.5906
1.592
1.5971
1.60788
1.62784
1.65739
1.69847
1.75122
1.81703
1.8938
1.98171
2.07824
2.18325
2.29396
2.41278
2.55854
2.74441
2.96626
3.24585
3.62021
4.14628
4.93216
6.19184
8.34435
12.221
19.649
36.2208
89.1388
372.909
2544.6
1.62424
1.63874
1.65513
1.67308
1.6923
1.713
1.73505
1.75868
1.78387
1.81083
1.83966
1.87055
1.6121
1.60201
1.59453
1.5905
1.59191
1.59708
1.60803
1.62838
1.65874
1.70126
1.75648
1.82638
1.90898
2.00406
2.10771
2.21993
2.33586
2.45592
2.59646
2.7665
2.94823
3.1613
3.42399
3.77728
4.28143
5.04467
6.27746
8.39407
12.2215
19.5912
36.1761
89.7362
378.763
2580.29
1.61206
1.62462
1.63959
1.65597
1.67392
1.69311
1.71376
1.73574
1.75928
1.78438
1.81123
1.83991
1.87064
1.60192
1.59446
1.59041
1.59183
1.59706
1.60817
1.62888
1.65999
1.70387
1.76145
1.83532
1.9239
2.02787
2.14143
2.26377
2.38931
2.51735
2.66323
2.83378
3.00218
3.17186
3.369
3.61279
3.94094
4.42045
5.15879
6.36408
8.44544
12.2239
19.5396
36.1372
90.2994
384.411
2614.39
1.60185
1.61245
1.62544
1.64047
1.65684
1.67478
1.69393
1.71453
1.73645
1.75991
1.7849
1.81163
1.84017
1.87073
1.59441
1.59032
1.59176
1.59705
1.60831
1.62934
1.66116
1.70628
1.76612
1.84377
1.93822
2.05142
2.17732
2.31373
2.45237
2.59349
2.7522
2.9348
3.10607
3.26483
3.41488
3.58813
3.81048
4.11066
4.56198
5.27365
6.45085
8.49765
12.2291
19.4942
36.1038
90.8485
389.716
2646.24
1.59438
1.60213
1.61326
1.62628
1.64138
1.65774
1.67567
1.69478
1.71533
1.73718
1.76055
1.78544
1.81204
1.84043
1.87082
1.59023
1.59169
1.59703
1.60844
1.62977
1.66223
1.70849
1.77046
1.85166
1.95183
2.07421
2.21297
2.36739
2.52455
2.68324
2.86098
3.06484
3.25121
3.41389
3.55362
3.67549
3.81689
4.01195
4.28402
4.70469
5.38804
6.53699
8.55008
12.2377
19.4546
36.0774
91.3686
394.843
2676.7
1.59015
1.59465
1.60278
1.61409
1.62717
1.64231
1.65868
1.67658
1.69566
1.71614
1.73793
1.76121
1.78599
1.81245
1.84068
1.8709
1.59162
1.59702
1.60855
1.63016
1.66322
1.71053
1.77449
1.85899
1.9647
2.09599
2.24765
2.42146
2.60296
2.78701
2.98992
3.22391
3.43597
3.61525
3.75775
3.86753
3.95163
4.05431
4.21592
4.45869
4.84694
5.50129
6.62189
8.60233
12.2483
19.4204
36.0569
91.8778
399.627
2704.96
1.59159
1.59016
1.59523
1.60343
1.61496
1.62809
1.64327
1.65964
1.67752
1.69656
1.71698
1.7387
1.76188
1.78654
1.81285
1.84093
1.87098
1.597
1.60866
1.63052
1.66411
1.71239
1.77819
1.86577
1.97679
2.11662
2.28112
2.47495
2.68283
2.90138
3.14132
3.41563
3.66475
3.87266
4.03051
4.13846
4.20542
4.24128
4.29815
4.42103
4.63364
4.9885
5.61279
6.70505
8.65397
12.2606
19.391
36.0427
92.36
404.262
2732.04
1.59703
1.59147
1.59017
1.59582
1.60414
1.61587
1.62905
1.64426
1.66064
1.67848
1.69749
1.71785
1.73949
1.76254
1.78707
1.81323
1.84117
1.87106
1.60874
1.63084
1.66493
1.71409
1.78159
1.87201
1.98809
2.13601
2.31322
2.52727
2.76236
3.01998
3.31212
3.64686
3.94761
4.19893
4.38531
4.50242
4.5574
4.5663
4.54249
4.54639
4.62574
4.80581
5.12831
5.72193
6.78606
8.70466
12.2742
19.3661
36.0336
92.8318
408.553
2757
1.60889
1.59668
1.59115
1.59015
1.59646
1.60491
1.6168
1.63006
1.64528
1.66167
1.67947
1.69845
1.71873
1.74027
1.76319
1.78759
1.81361
1.8414
1.87114
1.63112
1.66565
1.71564
1.7847
1.87776
1.99859
2.15412
2.34385
2.57785
2.8407
3.14103
3.49413
3.91613
4.3011
4.61808
4.85176
4.99021
5.03891
5.01683
4.94949
4.85353
4.79718
4.82934
4.97387
5.26519
5.82814
6.86458
8.75412
12.2888
19.3451
36.0296
93.2772
412.727
2780.95
1.63146
1.6082
1.59574
1.59078
1.59025
1.59712
1.60575
1.61775
1.63111
1.64633
1.66273
1.68049
1.69943
1.7196
1.74103
1.76382
1.78809
1.81397
1.84162
1.87122
1.66628
1.71703
1.78753
1.88304
2.0083
2.17098
2.37291
2.62626
2.91737
3.26373
3.68401
4.21165
4.73159
5.17038
5.48336
5.66227
5.7093
5.64968
5.51942
5.35444
5.17277
5.04895
5.03074
5.13735
5.3983
5.93094
6.94035
8.80213
12.3041
19.3276
36.0305
93.7121
416.562
2800.2
1.66699
1.63017
1.60625
1.59469
1.59052
1.59052
1.59778
1.60667
1.61874
1.6322
1.64741
1.66383
1.68154
1.7004
1.72046
1.74177
1.76444
1.78858
1.81433
1.84184
1.87129
1.71827
1.79009
1.88787
2.01726
2.18664
2.40034
2.67223
2.99215
3.38693
3.87879
4.52963
5.231
5.88809
6.36761
6.62232
6.6767
6.5654
6.34366
6.06719
5.78033
5.49866
5.30032
5.22882
5.29581
5.52702
6.02998
7.01318
8.84852
12.3199
19.313
36.0336
94.1211
419.808
2816.42
1.71957
1.66504
1.62652
1.60416
1.5938
1.59025
1.59097
1.59845
1.60764
1.61975
1.63334
1.64853
1.66495
1.68258
1.70134
1.72129
1.74248
1.76503
1.78905
1.81467
1.84205
1.87136
1.79239
1.89227
2.02549
2.20119
2.4261
2.71568
3.06487
3.50911
4.07581
4.87006
5.80403
6.77352
7.5781
8.0258
8.11253
7.93417
7.57506
7.12594
6.66029
6.22571
5.8296
5.55003
5.42268
5.44887
5.65095
6.12505
7.08293
8.89315
12.3358
19.3013
36.0394
94.4665
422.487
2833.96
1.79469
1.71675
1.65918
1.62267
1.6023
1.59299
1.58994
1.59157
1.59913
1.60868
1.62081
1.63451
1.64967
1.66607
1.68359
1.70226
1.7221
1.74318
1.76562
1.78951
1.81501
1.84225
1.87143
1.89629
2.03303
2.21467
2.4502
2.75667
3.13529
3.62873
4.2738
5.23448
6.45584
7.83304
9.11307
9.98889
10.2524
10.0062
9.45521
8.7435
7.99578
7.29636
6.68829
6.16389
5.79696
5.61157
5.59626
5.76979
6.21588
7.1495
8.93594
12.3518
19.2916
36.0475
94.7546
425.422
2853.11
1.90015
1.79079
1.70772
1.65305
1.61917
1.60059
1.59225
1.58967
1.59226
1.59986
1.60977
1.62191
1.63571
1.65082
1.66716
1.68458
1.70315
1.72288
1.74386
1.76618
1.78996
1.81533
1.84245
1.87147
2.03998
2.22713
2.47268
2.79528
3.20313
3.74466
4.47287
5.62399
7.18516
9.06187
10.9633
12.4877
13.2589
13.1117
12.3233
11.2395
10.0641
8.94649
7.97049
7.16495
6.49968
6.04008
5.79493
5.73779
5.88347
6.30262
7.21294
8.97684
12.3677
19.2851
36.0547
95.0777
428.598
2873.93
2.04642
1.89491
1.77729
1.69838
1.64742
1.6159
1.59901
1.59158
1.58948
1.59302
1.60065
1.6109
1.62305
1.6369
1.65194
1.66821
1.68555
1.70402
1.72365
1.74452
1.76673
1.79039
1.81565
1.84255
1.87147
2.23872
2.49359
2.83165
3.2681
3.85632
4.67397
6.03787
7.98444
10.4422
13.1044
15.4938
17.085
17.4812
16.6308
15.0576
13.2702
11.521
9.96677
8.67582
7.65187
6.83504
6.27844
5.9723
5.87329
5.99155
6.38541
7.27325
9.01581
12.3812
19.2799
36.0648
95.4273
432.103
2896.78
2.24923
2.0396
1.87502
1.76346
1.68974
1.64209
1.61282
1.59754
1.591
1.58938
1.59383
1.60151
1.61205
1.62422
1.63806
1.65305
1.66924
1.68649
1.70487
1.7244
1.74516
1.76726
1.79081
1.8158
1.84255
1.87147
2.51316
2.86588
3.32997
3.96368
4.87818
6.47339
8.84211
11.9494
15.4973
18.9627
21.6883
23.0556
22.7133
20.8087
18.1843
15.5198
13.0925
11.0426
9.4043
8.14488
7.16804
6.5112
6.14333
6.00283
6.09377
6.46414
7.33046
9.04799
12.393
19.2755
36.0764
95.8238
435.892
2921.63
2.53048
2.24031
2.01063
1.8549
1.75063
1.68151
1.63699
1.60992
1.59618
1.59051
1.58939
1.59467
1.60245
1.6132
1.62537
1.63919
1.65413
1.67024
1.68741
1.70569
1.72512
1.74578
1.76778
1.79102
1.8158
1.84255
1.87147
2.89826
3.38871
4.06717
5.08616
6.9262
9.74488
13.5563
18.0962
22.8288
27.0012
29.7831
30.5142
28.9788
25.6209
21.6654
17.9543
14.7544
12.1588
10.1475
8.63972
7.49681
6.7376
6.30775
6.12648
6.19036
6.53878
7.3775
9.07538
12.4063
19.271
36.093
96.2539
440.088
2948.96
2.9265
2.51913
2.19826
1.98173
1.8362
1.73833
1.67358
1.63212
1.60719
1.59494
1.59014
1.58952
1.59551
1.60346
1.61431
1.62652
1.64029
1.65518
1.67121
1.6883
1.70649
1.72583
1.74639
1.76804
1.79102
1.8158
1.84255
1.87147
3.44464
4.16762
5.29805
7.39072
10.6789
15.2356
20.8524
27.0143
32.9176
37.563
39.9742
39.5297
36.2651
31.0215
25.4536
20.5372
16.4822
13.3005
10.8971
9.13235
7.81959
6.95698
6.46541
6.24423
6.28154
6.60007
7.41743
9.10549
12.4213
19.268
36.1124
96.7443
444.636
2978.64
3.49288
2.91184
2.45802
2.15693
1.9548
1.81823
1.72645
1.66594
1.62746
1.60465
1.59382
1.58986
1.58985
1.59633
1.6045
1.61539
1.62764
1.64137
1.65621
1.67216
1.68917
1.70726
1.72651
1.74669
1.76804
1.79102
1.8158
1.84255
1.87147
4.26586
5.51206
7.86103
11.6306
16.961
23.7179
31.4361
39.3077
46.2263
50.9454
52.3977
50.1165
44.5219
36.9458
29.4952
23.2311
18.2523
14.4539
11.6458
9.61903
8.1348
7.16881
6.61621
6.35611
6.35618
6.65206
7.46117
9.1386
12.4382
19.2651
36.1391
97.2781
449.699
3011.34
4.35191
3.4744
2.82176
2.39894
2.11838
1.92889
1.80083
1.71496
1.6586
1.623
1.60234
1.59282
1.58961
1.59042
1.5971
1.60556
1.61645
1.62875
1.64242
1.65721
1.67308
1.69001
1.70802
1.72685
1.74669
1.76804
1.79102
1.8158
1.84255
1.87143
5.72523
8.33279
12.5875
18.7071
26.6463
36.0116
46.0315
55.5602
63.1646
67.3718
67.1143
62.2285
53.6632
43.3143
33.7333
25.9999
20.0431
15.6067
12.3868
10.0965
8.44114
7.37268
6.7601
6.44822
6.4194
6.70896
7.50913
9.17507
12.4573
19.2651
36.1703
97.8908
455.2
3046.74
4.32812
5.91304
3.33744
2.73663
2.34378
2.08126
1.90376
1.78397
1.70387
1.65155
1.61874
1.60021
1.59192
1.58931
1.59112
1.59787
1.60661
1.61749
1.62983
1.64344
1.65819
1.67398
1.69084
1.70839
1.72685
1.74669
1.76804
1.79102
1.8158
1.84245
1.87136
8.80197
13.5388
20.4515
29.5942
40.6626
52.9513
65.3352
76.2943
84.0569
86.9704
84.0979
75.7592
63.572
50.0374
38.1102
28.8095
21.8356
16.7485
13.1147
10.5621
8.73751
7.56826
6.87903
6.52651
6.48849
6.77126
7.56175
9.21529
12.4791
19.2661
36.2121
98.5602
461.36
3085.82
4.10416
5.89452
9.21856
3.21242
2.65718
2.29064
2.04524
1.8794
1.76766
1.6932
1.6448
1.61472
1.59827
1.59116
1.58909
1.59187
1.59865
1.60766
1.61852
1.63088
1.64444
1.65914
1.67485
1.69124
1.70839
1.72685
1.74669
1.76804
1.79102
1.81565
1.84225
1.87129
14.4738
22.175
32.5238
45.3179
59.9403
75.3297
89.9708
101.937
109.118
109.758
103.231
90.5468
74.1081
57.02
42.5701
31.6292
23.6131
17.8703
13.8248
11.0135
9.02304
7.73068
6.9804
6.6124
6.56406
6.83952
7.61952
9.25969
12.5038
19.2692
36.2609
99.3333
468.067
3127.9
3.90755
5.49833
9.22964
15.3064
3.09663
2.58066
2.23913
2.01031
1.85582
1.75194
1.68296
1.63838
1.61101
1.5966
1.59053
1.58899
1.59264
1.59946
1.60868
1.61954
1.63191
1.64542
1.66007
1.67528
1.69124
1.70839
1.72685
1.74669
1.76804
1.79081
1.81533
1.84204
1.87122
23.8594
35.4038
49.9177
66.8879
85.3462
103.849
120.456
132.799
138.432
135.63
124.311
106.384
85.1158
64.1673
47.061
34.4317
25.3614
18.965
14.5135
11.4492
9.26096
7.86952
7.09193
6.70671
6.6468
6.91435
7.683
9.30877
12.5321
19.2755
36.3252
100.182
475.631
3174.44
3.72911
5.1534
8.5048
15.3916
25.3682
2.98555
2.50657
2.18921
1.97651
1.83307
1.73683
1.67318
1.63237
1.60771
1.59516
1.59005
1.589
1.59342
1.60028
1.60969
1.62054
1.63292
1.64638
1.66053
1.67528
1.69124
1.70839
1.72685
1.74669
1.76778
1.79038
1.815
1.84183
1.87114
38.2054
54.4154
73.7055
95.2205
117.631
139.091
157.19
169.056
171.944
164.361
147.055
123.03
96.4346
71.3887
51.5361
37.1933
27.0693
20.0271
15.1782
11.8127
9.46477
8.02274
7.21477
6.81037
6.73747
6.99644
7.7528
9.36309
12.5644
19.2865
36.4006
101.169
483.876
3224.14
3.56095
4.84165
7.85982
14.1442
25.6365
40.7211
2.87834
2.4349
2.14096
1.9439
1.81119
1.72238
1.66396
1.62692
1.60483
1.59393
1.5897
1.58913
1.59417
1.60114
1.61066
1.62153
1.63391
1.64685
1.66052
1.67528
1.69124
1.70839
1.72685
1.74638
1.76725
1.78994
1.81466
1.84161
1.87106
58.7685
80.3289
104.829
131.082
157.405
181.521
200.449
210.739
209.447
195.606
171.118
140.227
107.908
78.6011
55.9541
39.895
28.7277
21.0522
15.7327
12.1242
9.69012
8.19201
7.35024
6.92443
6.83693
7.08654
7.82961
9.4233
12.6016
19.3018
36.4982
102.26
493.265
3279.22
3.40114
4.55069
7.26895
12.9959
23.6971
41.3244
62.6748
2.77492
2.36578
2.09447
1.91257
1.79025
1.70871
1.65553
1.62207
1.60231
1.5929
1.58947
1.58939
1.59489
1.60201
1.61162
1.62253
1.63439
1.64684
1.66052
1.67528
1.69124
1.70839
1.72651
1.74577
1.76671
1.78949
1.81431
1.84139
1.87098
86.701
114.091
144.039
175.071
205.16
231.502
250.386
257.724
250.58
228.918
196.117
157.717
119.388
85.7304
60.281
42.5211
30.3295
21.9074
16.2079
12.4688
9.93954
8.37926
7.4998
7.05006
6.94614
7.1855
7.9142
9.4901
12.6441
19.3242
36.6132
103.507
503.476
3337.32
3.24924
4.27747
6.71446
11.919
21.8751
38.499
63.8024
92.3966
2.67538
2.29935
2.04985
1.88258
1.77043
1.69618
1.64799
1.61776
1.60014
1.59204
1.5893
1.58984
1.59558
1.6029
1.61258
1.62301
1.63437
1.64684
1.66052
1.67528
1.69124
1.70801
1.72581
1.74514
1.76616
1.78903
1.81396
1.84116
1.8709
122.935
156.407
191.879
227.653
261.307
289.317
307.023
309.716
294.833
263.772
221.652
175.254
130.744
92.7151
64.489
45.0592
31.6664
22.6404
16.7334
12.8503
10.2159
8.5866
7.66512
7.18859
7.06619
7.29426
8.00738
9.56431
12.6931
19.3535
36.76
104.855
515.248
3412.97
3.10505
4.02176
6.19199
10.8927
20.1275
35.8172
59.8892
94.2475
130.781
2.57988
2.2358
2.00721
1.85423
1.75224
1.68493
1.64125
1.61392
1.5983
1.59131
1.58908
1.59039
1.59626
1.60385
1.61303
1.62299
1.63437
1.64684
1.66052
1.67528
1.69083
1.70725
1.7251
1.7445
1.76559
1.78856
1.81359
1.84092
1.87081
168.112
207.736
248.741
289.235
326.238
355.184
370.237
366.234
341.562
299.593
247.328
192.611
141.866
99.505
68.5559
47.1785
32.8127
23.4512
17.3151
13.2731
10.5224
8.81645
7.84807
7.3415
7.19829
7.41391
8.11017
9.64682
12.7495
19.3936
36.9319
106.412
530.224
3503.75
2.96825
3.78401
5.70228
9.91256
18.4273
33.2072
56.1695
89.0271
133.521
178.37
2.48869
2.17528
1.96695
1.82823
1.73589
1.67484
1.63521
1.61048
1.59672
1.59071
1.58891
1.591
1.59702
1.6043
1.61296
1.623
1.63437
1.64684
1.66053
1.67485
1.69
1.70647
1.72437
1.74384
1.76501
1.78807
1.81322
1.84068
1.87073
222.572
268.345
314.959
360.259
400.372
429.258
439.733
426.614
390.022
335.794
272.781
209.6
152.663
106.06
71.9502
48.9956
34.0809
24.3487
17.9597
13.742
10.8626
9.07149
8.05074
7.51046
7.34379
7.5455
8.22338
9.73866
12.8148
19.4443
37.1471
108.444
549.738
3594.83
2.83831
3.56541
5.24681
8.98446
16.7644
30.6323
52.5211
84.1006
126.731
182.074
235.341
2.40214
2.11832
1.93008
1.80488
1.72121
1.66578
1.6298
1.60747
1.59539
1.59021
1.58885
1.59175
1.59732
1.60425
1.61296
1.623
1.63437
1.64685
1.66006
1.67396
1.68914
1.70566
1.72362
1.74316
1.76442
1.78757
1.81284
1.84043
1.87064
286.426
338.44
390.949
441.297
484.205
511.615
515.022
490.02
439.401
371.807
297.696
226.064
163.064
111.522
74.8591
51.0058
35.485
25.3431
18.6743
14.2624
11.2405
9.35471
8.27546
7.69731
7.50424
7.69066
8.34884
9.84122
12.89
19.5114
37.4462
111.13
571.034
3685.07
2.71498
3.36739
4.82684
8.11219
15.1402
28.0752
48.8923
79.2631
120.424
173.363
239.935
301.579
2.32107
2.06632
1.89704
1.78391
1.70802
1.65766
1.62499
1.60485
1.59423
1.58984
1.58906
1.59209
1.59716
1.60427
1.61296
1.62299
1.63439
1.64637
1.65912
1.67305
1.68827
1.70484
1.72285
1.74246
1.7638
1.78706
1.81244
1.84017
1.87055
359.7
418.332
477.356
533.179
578.353
602.238
595.395
555.458
488.874
407.129
321.813
241.885
171.708
116.197
78.0743
53.2309
37.0407
26.4457
19.4671
14.8402
11.6604
9.66941
8.52481
7.90413
7.68124
7.84984
8.48799
9.95582
12.9779
19.6097
37.8799
114.128
594.14
3773.61
2.59937
3.18595
4.44282
7.29764
13.5675
25.5346
45.2512
74.4423
114.268
165.465
228.801
306.776
376.836
2.2475
2.01983
1.86743
1.76509
1.69618
1.65039
1.62072
1.60253
1.59327
1.5898
1.58903
1.59197
1.59716
1.60427
1.61296
1.62301
1.6339
1.6454
1.65816
1.67212
1.68737
1.70399
1.72207
1.74174
1.76318
1.78653
1.81204
1.83991
1.87046
442.547
508.681
575.319
637.182
683.627
700.951
679.879
621.837
537.671
441.34
344.934
254.988
179.089
121.355
81.6293
55.6952
38.7655
27.6688
20.3471
15.4821
12.1271
10.0192
8.80163
8.13317
7.877
8.02411
8.64214
10.0843
13.0979
19.7607
38.3904
117.515
619.191
3859.61
2.49441
3.01976
4.09628
6.54568
12.0637
23.0218
41.5861
69.5832
108.167
157.862
219.016
292.487
382.072
460.965
2.18211
1.97827
1.84091
1.7482
1.68557
1.64389
1.61691
1.60054
1.59279
1.58963
1.58874
1.59202
1.59716
1.60425
1.61303
1.62252
1.6329
1.64441
1.65718
1.67117
1.68645
1.70312
1.72126
1.74101
1.76253
1.78599
1.81163
1.83965
1.87037
535.526
610.75
686.694
755.266
801.001
807.295
767.265
688.059
585.119
474.107
364.021
266.146
187.21
127.044
85.5603
58.4251
40.6784
29.0262
21.3242
16.195
12.6459
10.408
9.10898
8.38691
8.09362
8.21539
8.81275
10.2547
13.2603
19.9455
39.0022
121.334
646.287
3942.2
2.40127
2.87075
3.78868
5.86262
10.6456
20.5553
37.9006
64.6538
102.031
150.428
209.797
280.382
363.564
465.37
554.24
2.12399
1.94113
1.81715
1.73306
1.67607
1.63806
1.61358
1.59928
1.59234
1.58928
1.58876
1.59202
1.59716
1.6043
1.61257
1.62152
1.63189
1.64341
1.65617
1.6702
1.68551
1.70223
1.72043
1.74026
1.76187
1.78544
1.81122
1.8394
1.87028
639.814
726.649
814.603
890.192
931.377
920.432
856.201
753.099
630.669
501.103
380.231
278.382
196.137
133.317
89.9061
61.449
42.8003
30.5329
22.4091
16.987
13.2224
10.8401
9.45017
8.66796
8.33335
8.42556
9.03624
10.4716
13.444
20.1732
39.7157
125.69
675.622
4020.46
2.31891
2.73831
3.52581
5.25613
9.33442
18.1577
34.2089
59.6391
95.7966
143.028
200.983
269.291
348.511
441.071
556.646
657.831
2.07229
1.90795
1.79588
1.71949
1.66752
1.63292
1.61125
1.59835
1.59187
1.58932
1.58876
1.59197
1.59732
1.60384
1.6116
1.62052
1.63085
1.64238
1.65514
1.6692
1.68455
1.70132
1.71959
1.73948
1.7612
1.7849
1.81082
1.83916
1.8702
757.51
860.657
964.142
1045.29
1075.35
1039.25
945.317
816.051
668.222
523.984
397.947
291.777
205.939
140.227
94.7076
64.798
45.1536
32.2053
23.6136
17.8663
13.8625
11.3198
9.82857
8.97926
8.59816
8.6996
9.31442
10.7052
13.6527
20.4439
40.5672
130.638
707.329
4093.53
2.24619
2.61995
3.30893
4.73882
8.15108
15.8535
30.534
54.5364
89.4182
135.559
192.382
259.018
335.167
422.204
524.166
656.849
774.39
2.02628
1.87833
1.77685
1.70729
1.65993
1.62915
1.60968
1.59769
1.59194
1.58932
1.58874
1.59209
1.59702
1.60289
1.61064
1.6195
1.62979
1.64133
1.65409
1.66818
1.68357
1.70038
1.71872
1.7387
1.76054
1.78437
1.81044
1.83892
1.87012
893.792
1020.64
1142.28
1224.41
1233.48
1162.63
1033.21
868.243
700.04
548.921
417.258
306.41
216.681
147.827
100.008
68.5042
47.7624
34.0606
24.9501
18.8419
14.5727
11.8518
10.2479
9.32331
8.94494
9.03853
9.60777
10.9568
13.8875
20.7711
41.5593
136.314
741.671
4160.58
2.18203
2.51446
3.12529
4.3082
7.12467
13.6917
26.9081
49.3546
82.8589
127.93
183.84
249.286
323.279
406.057
500.362
612.425
768.616
908.884
1.98533
1.85191
1.75974
1.69645
1.65422
1.62675
1.60877
1.59779
1.59194
1.58928
1.58904
1.59175
1.59625
1.60199
1.60965
1.61848
1.62871
1.64026
1.65301
1.66713
1.68256
1.69942
1.71784
1.73792
1.75989
1.78385
1.81007
1.83869
1.87004
1057.68
1217.94
1358.69
1432.98
1407.65
1289.06
1107.06
912.569
734.672
576.003
438.243
322.349
228.424
156.173
105.849
72.6012
50.6519
36.1174
26.4318
19.923
15.3592
12.4406
10.7111
9.77398
9.37408
9.3939
9.91646
11.2272
14.1535
21.1559
42.7409
142.809
778.798
4220.9
2.12537
2.42091
2.96675
3.9527
6.26221
11.7581
23.3989
44.1173
76.0926
120.052
175.21
239.885
312.453
392.301
480.675
582.316
706.316
896.377
1071.9
1.94888
1.82823
1.74455
1.68814
1.65066
1.62557
1.60891
1.59779
1.59187
1.58963
1.58906
1.59099
1.59556
1.60111
1.60865
1.61745
1.6276
1.63916
1.65192
1.66605
1.68153
1.69844
1.71697
1.73716
1.75926
1.78335
1.8097
1.83847
1.86996
1264.48
1470.98
1630.16
1684.43
1599.91
1397.74
1170.13
960.858
772.194
605.292
460.956
339.651
241.225
165.312
112.273
77.1227
53.8478
38.3947
28.0724
21.1193
16.2287
13.0906
11.3175
10.3307
9.82281
9.76518
10.2401
11.5178
14.4526
21.6163
44.1199
150.306
818.998
4273.95
2.07528
2.33841
2.82752
3.66004
5.54709
10.0935
20.1442
38.9022
69.1091
111.843
166.341
230.603
302.412
380.349
464.696
558.159
668.301
807.944
1048.84
1279.21
1.91634
1.80725
1.73268
1.68308
1.64911
1.62577
1.60891
1.59768
1.59235
1.58981
1.58885
1.59037
1.59486
1.60025
1.60762
1.61641
1.62648
1.63803
1.6508
1.66495
1.68049
1.69747
1.71612
1.73643
1.75866
1.78287
1.80935
1.83825
1.86989
1547.35
1822.49
2001.83
2002.74
1769.51
1491.08
1238.96
1013.11
812.615
636.802
485.423
358.349
255.122
175.287
119.321
82.1013
57.3758
40.9117
29.8857
22.4403
17.1872
13.94
12.0645
10.9111
10.289
10.1513
10.579
11.8303
14.7917
22.1556
45.7641
158.949
862.464
4319.38
2.03079
2.26597
2.70382
3.42211
4.95957
8.6891
17.2298
33.906
61.9694
103.226
157.073
221.22
292.866
369.847
451.5
539.522
638.548
760.204
923.299
1249.52
1574.48
1.88754
1.79068
1.72556
1.6811
1.64939
1.62577
1.60877
1.59835
1.5928
1.58985
1.58892
1.58982
1.59414
1.59942
1.60658
1.61536
1.62534
1.63688
1.64967
1.66383
1.67946
1.69654
1.7153
1.73572
1.75806
1.7824
1.80901
1.83804
1.86982
2006.56
2391.84
2584.96
2284.79
1914.25
1592.51
1313.2
1069.18
855.854
670.49
511.629
378.451
270.142
186.132
127.024
87.567
61.2602
43.687
31.8853
23.895
18.4383
14.9839
12.841
11.5117
10.7703
10.5508
10.9316
12.167
15.1736
22.7974
47.6902
169.001
909.319
4355.96
1.99155
2.20228
2.59362
3.22555
4.47931
7.51477
14.6605
29.2789
54.9129
94.2056
147.237
211.492
283.529
360.406
440.646
524.881
616.771
723.545
863.186
1065.57
1552
2120.06
1.86453
1.78093
1.72301
1.68149
1.64939
1.62556
1.60969
1.5993
1.59328
1.59022
1.58908
1.58938
1.59339
1.59863
1.60552
1.61428
1.6242
1.6357
1.64852
1.66272
1.67846
1.69563
1.7145
1.73503
1.75749
1.78194
1.80867
1.83784
1.86975
2856.13
3539
3060.73
2515.01
2067.49
1700.33
1392.14
1128.72
901.727
706.246
539.509
399.929
286.283
197.864
135.409
93.5448
65.5227
46.7378
34.0832
25.7915
19.9725
16.0663
13.6417
12.1286
11.2637
10.9627
11.2976
12.5285
15.6064
23.5486
49.994
180.691
961.212
4384.13
1.95997
2.14673
2.49559
3.059
4.08963
6.5443
12.4425
25.0607
48.153
85.0194
136.737
201.144
274.076
351.674
431.613
513.698
600.42
698.084
818.167
989.523
1268.51
2153.21
3300.88
1.85106
1.77774
1.72353
1.68149
1.6491
1.62676
1.61128
1.60058
1.59426
1.59073
1.58931
1.58912
1.59262
1.59785
1.60447
1.61318
1.62305
1.6345
1.64739
1.66164
1.67749
1.69475
1.71373
1.73436
1.75693
1.7815
1.80835
1.83764
1.86971
4974
4256.09
3397.32
2739.92
2224.12
1812.61