/*--------------------------------*- C++ -*----------------------------------*\
  =========                 |
  \\      /  F ield         | OpenFOAM: The Open Source CFD Toolbox
   \\    /   O peration     | Website:  https://openfoam.org
    \\  /    A nd           | Version:  8
     \\/     M anipulation  |
\*---------------------------------------------------------------------------*/
FoamFile
{
    version     2.0;
    format      ascii;
    class       volScalarField;
    location    "0.45";
    object      nut;
}
// * * * * * * * * * * * * * * * * * * * * * * * * * * * * * * * * * * * * * //

dimensions      [0 2 -1 0 0 0 0];

internalField   nonuniform List<scalar> 
15677
(
0.000168174
0.000652147
0.000148204
0.00151196
0.000443094
0.000141298
0.00267183
0.000878189
0.000381089
0.000142194
0.00391605
0.00152268
0.000687404
0.00035436
0.00014533
0.0050188
0.00236032
0.00114808
0.00058617
0.000340352
0.000151118
0.0058366
0.00332101
0.00178305
0.000948895
0.000529685
0.000332091
0.000156931
0.00633334
0.00430092
0.00257001
0.00146492
0.000821748
0.000492785
0.000327048
0.000162389
0.00656227
0.00518797
0.00345482
0.00213343
0.00125852
0.000737894
0.000467694
0.000324169
0.000167183
0.0066582
0.00589305
0.00435647
0.00292387
0.00184315
0.00111337
0.000677921
0.000450658
0.000322601
0.000171422
0.00670541
0.00633795
0.00518123
0.00378034
0.00255866
0.00163324
0.00100553
0.00063459
0.000438891
0.000322043
0.000175005
0.00671436
0.00655328
0.00584524
0.00462612
0.00336427
0.00228819
0.00147399
0.00092509
0.000602624
0.000430938
0.000321994
0.000178156
0.0067099
0.00666143
0.00629542
0.00537747
0.00419811
0.00304701
0.00207943
0.00135034
0.000863032
0.000578974
0.000425463
0.000322475
0.000180786
0.00670625
0.00669873
0.00652943
0.00596447
0.00498492
0.00385887
0.00279752
0.00191346
0.00125248
0.000814866
0.00056119
0.000421964
0.000323121
0.000183148
0.00670535
0.00670438
0.00664669
0.00635675
0.00565042
0.00465709
0.0035851
0.00259559
0.0017795
0.00117423
0.000776996
0.000547983
0.000419608
0.000324041
0.00018521
0.00670538
0.00670289
0.0066878
0.0065628
0.00614219
0.00536931
0.00438287
0.00335911
0.00242996
0.00166982
0.00111071
0.00074718
0.000537861
0.000418373
0.000324894
0.000187034
0.00670552
0.00670169
0.00669631
0.00665647
0.00644683
0.00593413
0.00512227
0.00415071
0.00317076
0.00229211
0.00157941
0.00105898
0.000723422
0.000530565
0.000417485
0.000325949
0.000188707
0.00670559
0.00670126
0.00669703
0.00668487
0.00660485
0.00632195
0.00573837
0.00490569
0.00395329
0.00301184
0.00217692
0.00150429
0.00101692
0.000704896
0.000524815
0.000417354
0.000326891
0.000190131
0.0067056
0.0067012
0.00669661
0.00669166
0.0066637
0.00654132
0.00618884
0.00555834
0.0047166
0.0037841
0.00287739
0.00207999
0.00144194
0.0009828
0.000689953
0.000520923
0.000417279
0.000327977
0.000191573
0.00670557
0.00670124
0.00669629
0.00669277
0.00668226
0.00663458
0.00646816
0.00605892
0.00539563
0.00455119
0.00363904
0.00276304
0.00199856
0.00139036
0.000954836
0.000678547
0.000517786
0.000417794
0.00032896
0.000192696
0.00670555
0.0067013
0.00669613
0.00669276
0.00668722
0.00666916
0.00659823
0.00639003
0.0059363
0.00524928
0.00440707
0.00351432
0.00266604
0.0019304
0.00134764
0.000932505
0.00066935
0.000516028
0.000418197
0.000330036
0.000194034
0.00670553
0.00670135
0.00669604
0.00669269
0.00668811
0.00668087
0.00665153
0.0065565
0.00631193
0.00582164
0.00511906
0.00428146
0.0034076
0.0025841
0.00187354
0.00131286
0.000914457
0.000662736
0.000514557
0.000419105
0.000331069
0.000194926
0.00670552
0.00670138
0.00669598
0.00669268
0.00668804
0.00668432
0.00667175
0.0066306
0.00651191
0.00623444
0.00571686
0.00500352
0.00417298
0.00331675
0.00251543
0.00182687
0.00128463
0.000900566
0.000657479
0.000514231
0.000419813
0.00033211
0.000196251
0.00670552
0.00670139
0.00669594
0.00669271
0.00668786
0.00668517
0.00667853
0.00666161
0.0066065
0.00646601
0.0061618
0.00562176
0.0049027
0.00407983
0.0032403
0.00245873
0.00178893
0.00126253
0.000889848
0.000654318
0.000513888
0.000420985
0.000333254
0.000196972
0.00670552
0.00670139
0.00669592
0.00669272
0.00668772
0.00668532
0.00668043
0.00667348
0.00664872
0.00658128
0.00642046
0.00609413
0.00553769
0.00481497
0.00400105
0.0031769
0.00241286
0.00175942
0.00124569
0.00088233
0.000651853
0.000514581
0.00042189
0.000334173
0.0001983
0.00670552
0.00670138
0.00669592
0.00669272
0.00668764
0.00668532
0.00668077
0.00667761
0.00666598
0.00663588
0.00655475
0.00637743
0.00603268
0.00546298
0.00474069
0.00393593
0.00312615
0.00237714
0.00173681
0.00123341
0.000877142
0.000651322
0.000515047
0.00042332
0.000335617
0.000198993
0.00670553
0.00670137
0.00669592
0.00669271
0.0066876
0.00668529
0.00668071
0.00667887
0.00667236
0.00665992
0.00662103
0.00652971
0.00633694
0.00597718
0.00540078
0.00467949
0.00388351
0.00308582
0.00234995
0.00172145
0.0012262
0.000874946
0.000651004
0.000516545
0.000424241
0.000336378
5.3379e-05
0.00670554
0.00670136
0.00669593
0.00669269
0.00668758
0.00668524
0.00668061
0.00667915
0.00667441
0.00666972
0.00665135
0.00660817
0.00650535
0.00630174
0.00593213
0.00534743
0.00462892
0.00384264
0.00305831
0.00233387
0.0017134
0.00122288
0.000874228
0.000652566
0.000517663
0.000426682
0.000283732
6.33409e-05
0.00670555
0.00670134
0.00669594
0.00669266
0.00668758
0.0066852
0.00668054
0.00667913
0.00667493
0.00667335
0.00666418
0.00664603
0.00659423
0.00648477
0.00627025
0.00589012
0.00530728
0.00459611
0.00381917
0.00304229
0.00232484
0.00171014
0.00122226
0.000876071
0.000654244
0.000519772
0.000420226
0.000219576
7.0715e-05
0.00670556
0.00670132
0.00669595
0.00669264
0.00668758
0.00668515
0.0066805
0.00667904
0.00667497
0.00667448
0.00666917
0.00666305
0.00663796
0.00658508
0.00646757
0.00624466
0.00586803
0.00528311
0.00457373
0.00380233
0.0030331
0.00232196
0.00171147
0.00122607
0.00087919
0.000656587
0.000521056
0.000400322
0.000178119
7.61543e-05
0.00670557
0.0067013
0.00669597
0.00669261
0.00668759
0.00668511
0.00668047
0.00667895
0.00667491
0.00667468
0.00667089
0.00667009
0.00665816
0.00663684
0.00657565
0.00645387
0.00623622
0.00585129
0.00526509
0.00455962
0.003795
0.00303281
0.00232669
0.00171903
0.00123268
0.000883909
0.000659969
0.000518926
0.00036754
0.000152627
8.05595e-05
0.00670558
0.00670129
0.00669598
0.00669259
0.0066876
0.00668506
0.00668046
0.00667886
0.00667484
0.0066746
0.00667135
0.00667265
0.00666693
0.00666162
0.00663128
0.00657493
0.00645293
0.00622937
0.00584129
0.00525704
0.00455872
0.00380111
0.00304374
0.00233954
0.0017312
0.00124231
0.000890276
0.000663025
0.000512927
0.00033635
0.000134278
8.39529e-05
0.00670558
0.00670127
0.006696
0.00669256
0.00668762
0.00668502
0.00668045
0.00667878
0.00667478
0.00667445
0.00667138
0.00667332
0.00667043
0.00667259
0.0066589
0.00664059
0.00657813
0.006456
0.00622844
0.00584422
0.00526595
0.00457243
0.00381917
0.00306385
0.00235909
0.00174796
0.00125471
0.000897831
0.000665896
0.00050162
0.000306229
0.000121309
8.63609e-05
0.00670559
0.00670126
0.00669602
0.00669254
0.00668764
0.00668499
0.00668045
0.00667871
0.00667472
0.00667431
0.0066713
0.00667335
0.00667157
0.00667698
0.00667192
0.00667352
0.00664649
0.00658713
0.00646521
0.00624301
0.00586304
0.00528836
0.0045991
0.00384825
0.00309281
0.00238524
0.00176868
0.00126986
0.000906506
0.000667187
0.000486338
0.000280163
0.000112807
8.81421e-05
0.0067056
0.00670124
0.00669603
0.00669252
0.00668765
0.00668495
0.00668045
0.00667865
0.00667468
0.00667418
0.0066712
0.00667319
0.00667183
0.00667838
0.00667761
0.006689
0.00668151
0.00665948
0.00660525
0.00648825
0.00627105
0.00589562
0.00532502
0.00463853
0.00388834
0.00313044
0.0024174
0.00179344
0.00128715
0.000915951
0.000667414
0.000469544
0.000260368
0.000107035
8.95225e-05
0.00670123
0.00670561
0.00669604
0.00669249
0.00668767
0.00668492
0.00668045
0.00667859
0.00667464
0.00667407
0.00667109
0.00667299
0.00667179
0.00667864
0.0066797
0.00669593
0.00669843
0.00669735
0.0066839
0.00663501
0.00652427
0.0063131
0.00594337
0.00537593
0.00469101
0.00393911
0.00317629
0.00245559
0.00182172
0.00130678
0.000927104
0.000666532
0.000454626
0.000245167
0.000102985
9.06429e-05
0.00669605
0.00670123
0.00670563
0.00669248
0.00668768
0.00668489
0.00668046
0.00667855
0.00667461
0.00667398
0.00667099
0.0066728
0.00667166
0.00667853
0.00668033
0.0066986
0.0067062
0.00671618
0.00672614
0.00671854
0.00667763
0.00657478
0.00637112
0.00600642
0.00544167
0.00475619
0.00400049
0.00323027
0.00249913
0.00185346
0.00133099
0.000940584
0.000665189
0.000441832
0.000233368
0.000100104
9.15916e-05
0.00669246
0.00669609
0.00670124
0.00670565
0.0066877
0.00668486
0.00668047
0.0066785
0.00667458
0.00667391
0.0066709
0.00667263
0.0066715
0.0066783
0.00668042
0.00669948
0.00670938
0.00672513
0.00674791
0.00676435
0.00676642
0.00673488
0.00664167
0.00644605
0.00608649
0.0055227
0.00483449
0.00407206
0.00329162
0.00254804
0.0018922
0.00135983
0.000954773
0.000664259
0.000431328
0.00022404
9.80009e-05
9.24208e-05
0.00668771
0.00669247
0.00669616
0.00670125
0.00670568
0.00668483
0.00668048
0.00667846
0.00667456
0.00667384
0.00667082
0.0066725
0.00667135
0.00667805
0.00668032
0.00669967
0.00671056
0.00672905
0.00675871
0.00678879
0.00681631
0.00682911
0.00680899
0.00672582
0.0065391
0.00618334
0.00561926
0.00492501
0.00415336
0.00336038
0.00260755
0.0019399
0.00139025
0.000969771
0.000664086
0.000422555
0.00021657
9.64702e-05
9.31658e-05
0.00668481
0.00668777
0.00669251
0.00669623
0.00670126
0.0067057
0.00668049
0.00667842
0.00667455
0.00667378
0.00667074
0.00667238
0.00667121
0.00667782
0.00668018
0.00669961
0.00671095
0.00673074
0.00676381
0.0068016
0.00684369
0.00688281
0.00690867
0.0069006
0.0068289
0.00665
0.00629742
0.00573134
0.00502862
0.00424415
0.00344381
0.00268031
0.00199144
0.0014221
0.000985422
0.000664703
0.000415384
0.000210476
9.53232e-05
9.38447e-05
0.0066805
0.00668483
0.00668787
0.00669255
0.0066963
0.00670128
0.00670572
0.00667839
0.00667454
0.00667373
0.00667068
0.00667229
0.00667107
0.00667761
0.00668002
0.00669946
0.00671104
0.0067315
0.00676633
0.00680843
0.00685956
0.00691476
0.00696886
0.00700737
0.00701122
0.0069498
0.00677901
0.00642819
0.00585778
0.00514411
0.00435453
0.0035458
0.00275861
0.00204598
0.00145521
0.00100191
0.000666532
0.000409539
0.000205446
9.44845e-05
9.44734e-05
0.00667836
0.00668056
0.00668489
0.00668798
0.00669259
0.00669638
0.00670129
0.00670575
0.00667453
0.00667368
0.00667063
0.00667222
0.00667093
0.00667745
0.00667988
0.00669929
0.00671101
0.00673189
0.00676773
0.00681224
0.00686878
0.00693411
0.00700616
0.00707528
0.00712949
0.00714437
0.00709041
0.00692466
0.00657411
0.00599717
0.00528562
0.00449004
0.00365527
0.00284152
0.00210308
0.00148919
0.00101874
0.0006694
0.000404789
0.000201159
9.38414e-05
9.50565e-05
0.00667453
0.00667837
0.00668069
0.00668495
0.00668809
0.00669263
0.00669645
0.0067013
0.00670577
0.00667363
0.00667058
0.00667215
0.00667081
0.00667732
0.00667974
0.00669912
0.00671095
0.00673211
0.00676862
0.00681474
0.00687466
0.00694642
0.0070306
0.00711924
0.00720627
0.00727448
0.00730222
0.00725388
0.00708691
0.00673408
0.00616583
0.00545584
0.00463614
0.00377194
0.00292816
0.00216212
0.00152405
0.00103552
0.000672731
0.000400966
0.000197564
9.33796e-05
9.56037e-05
0.00667358
0.00667459
0.00667844
0.00668082
0.00668501
0.00668821
0.00669268
0.00669653
0.00670131
0.0067058
0.00667055
0.00667209
0.00667069
0.00667724
0.0066796
0.00669896
0.00671087
0.00673226
0.00676928
0.00681663
0.00687896
0.00695506
0.00704782
0.00715028
0.00725925
0.00736242
0.00744597
0.00748332
0.00744078
0.00727004
0.00692361
0.00636529
0.00563633
0.0047897
0.00389379
0.00301765
0.00222254
0.00155965
0.00105229
0.000676754
0.000398016
0.000194427
9.30186e-05
9.61135e-05
0.00667053
0.00667358
0.0066747
0.0066785
0.00668095
0.00668508
0.00668833
0.00669272
0.00669661
0.00670133
0.00670582
0.00667204
0.00667059
0.00667718
0.00667946
0.00669882
0.0067108
0.00673238
0.00676981
0.00681819
0.00688241
0.00696188
0.00706105
0.00717389
0.00729969
0.00742692
0.00754835
0.00764379
0.00768945
0.00764881
0.00749642
0.00715753
0.00657479
0.00582353
0.00494755
0.00401856
0.0031091
0.00228379
0.00159563
0.00106898
0.000681256
0.000395591
0.00019176
9.27722e-05
9.65947e-05
0.00667198
0.00667053
0.00667362
0.00667482
0.00667857
0.00668109
0.00668514
0.00668845
0.00669277
0.00669669
0.00670134
0.00670585
0.0066705
0.00667715
0.00667929
0.00669871
0.00671075
0.00673248
0.00677027
0.00681955
0.00688532
0.0069677
0.00707211
0.00719307
0.0073329
0.00747962
0.00762827
0.0077639
0.00787051
0.00792054
0.0079036
0.00777244
0.00741224
0.00679302
0.00601301
0.00510765
0.00414517
0.00320143
0.00234539
0.00163168
0.00108557
0.000686171
0.000393821
0.000189397
9.25761e-05
9.70422e-05
0.00667044
0.00667192
0.00667056
0.00667366
0.00667496
0.00667865
0.00668124
0.00668521
0.00668857
0.00669282
0.00669677
0.00670136
0.00670587
0.00667713
0.00667911
0.00669863
0.00671072
0.00673259
0.00677068
0.00682076
0.00688787
0.00697288
0.00708178
0.0072097
0.00736152
0.00752542
0.00769772
0.0078632
0.00801325
0.00812647
0.00820549
0.00821638
0.00806988
0.00768315
0.00702344
0.00620453
0.00526823
0.0042716
0.00329379
0.0024068
0.00166751
0.00110207
0.000691074
0.000392437
0.000187372
9.24574e-05
9.74657e-05
0.00667711
0.00667028
0.00667184
0.0066706
0.00667369
0.0066751
0.00667872
0.00668139
0.00668529
0.00668869
0.00669288
0.00669685
0.00670138
0.00670589
0.00667891
0.00669861
0.00671071
0.0067327
0.00677105
0.00682185
0.00689014
0.00697757
0.00709041
0.00722472
0.00738729
0.00756615
0.00776115
0.00795434
0.00813807
0.00829704
0.00844478
0.00855849
0.00855645
0.00838557
0.00796427
0.007262
0.00639606
0.00542614
0.00439659
0.00338521
0.00246758
0.0017029
0.00111851
0.000695917
0.000391469
0.000185552
9.23612e-05
9.78581e-05
0.0066787
0.00667694
0.00667001
0.00667176
0.00667067
0.00667373
0.00667525
0.00667879
0.00668155
0.00668536
0.00668882
0.00669294
0.00669693
0.00670141
0.00670591
0.00669864
0.00671072
0.0067328
0.00677137
0.00682284
0.00689219
0.00698185
0.00709819
0.00723853
0.00741092
0.00760339
0.00781977
0.00804142
0.00825815
0.00845353
0.0086537
0.00884392
0.00894657
0.00892072
0.0087163
0.00825291
0.00750561
0.00659115
0.00558109
0.00451912
0.00347517
0.00252735
0.00173768
0.0011347
0.000700728
0.000390708
0.000183982
9.23197e-05
9.82303e-05
0.00669876
0.00667793
0.00667662
0.00666977
0.00667168
0.00667076
0.00667376
0.00667542
0.00667887
0.00668171
0.00668545
0.00668895
0.006693
0.00669701
0.00670143
0.00670593
0.00671073
0.00673289
0.00677165
0.00682372
0.00689404
0.00698575
0.00710526
0.00725132
0.00743266
0.00763804
0.00787511
0.008124
0.0083763
0.00861029
0.0088558
0.00910796
0.00928903
0.00936776
0.00930679
0.00905944
0.00854674
0.00774952
0.00678704
0.00573306
0.00463885
0.00356295
0.00258576
0.00177166
0.00115059
0.000705456
0.000390226
0.000182552
9.2285e-05
9.85731e-05
0.00671071
0.00669829
0.00667652
0.00667627
0.00666959
0.00667156
0.00667088
0.00667379
0.0066756
0.00667895
0.00668187
0.00668553
0.00668907
0.00669306
0.00669708
0.00670146
0.00670595
0.00673296
0.00677189
0.00682451
0.00689573
0.00698931
0.0071117
0.00726315
0.00745265
0.00767056
0.00792771
0.00820248
0.00849029
0.00877071
0.00906832
0.0093772
0.00962336
0.00978127
0.00982257
0.00971393
0.00941331
0.00884374
0.00799226
0.00698155
0.00588058
0.0047543
0.00364799
0.00264252
0.00180471
0.0011661
0.000710105
0.000389846
0.000181313
9.22904e-05
9.88993e-05
0.00673303
0.00670966
0.0066972
0.00667542
0.00667582
0.00666951
0.00667142
0.00667104
0.00667381
0.0066758
0.00667903
0.00668204
0.00668563
0.0066892
0.00669313
0.00669715
0.00670148
0.00670597
0.00677207
0.00682523
0.00689728
0.00699255
0.00711759
0.00727406
0.00747102
0.00770117
0.00797741
0.00827701
0.00860119
0.00893212
0.00929344
0.00967111
0.0099822
0.0102105
0.0103297
0.010316
0.0101436
0.00977731
0.00914259
0.00823262
0.00717346
0.00602546
0.00486517
0.00372996
0.0026974
0.00183672
0.00118116
0.00071464
0.000389662
0.000180171
9.22934e-05
9.9198e-05
0.00677223
0.00673136
0.00670744
0.0066956
0.00667468
0.00667523
0.00666952
0.00667124
0.00667123
0.00667383
0.00667599
0.00667912
0.00668221
0.00668573
0.00668931
0.0066932
0.00669721
0.00670151
0.00670598
0.00682588
0.00689869
0.0069955
0.00712297
0.00728408
0.00748791
0.00772992
0.00802395
0.00834786
0.00871015
0.00909408
0.00952051
0.00999069
0.0103983
0.0107081
0.0108994
0.0109522
0.0108563
0.0105984
0.0101515
0.00944241
0.00846975
0.00736072
0.0061674
0.00497158
0.00380865
0.00275023
0.0018676
0.00119573
0.000719053
0.000389515
0.00017918
9.23268e-05
9.94829e-05
0.00682653
0.00676941
0.00672783
0.00670524
0.00669366
0.00667431
0.00667449
0.00666964
0.00667104
0.00667144
0.00667385
0.00667619
0.00667923
0.00668237
0.00668583
0.00668942
0.00669327
0.00669727
0.00670154
0.006706
0.00689998
0.00699819
0.00712788
0.00729326
0.00750345
0.00775677
0.00806728
0.0084155
0.00881701
0.00925386
0.00974448
0.0103304
0.0108976
0.0113446
0.0116197
0.0117247
0.0116642
0.011449
0.0110796
0.0105356
0.00974248
0.00870289
0.0075425
0.00630549
0.00507354
0.00388395
0.00280092
0.00189728
0.00120977
0.000723332
0.000389511
0.000178257
9.23535e-05
9.97107e-05
0.00690121
0.006823
0.00676336
0.00672442
0.00670307
0.00669134
0.00667429
0.00667363
0.00666984
0.00667083
0.00667166
0.0066739
0.00667639
0.00667934
0.00668252
0.00668593
0.00668952
0.00669334
0.00669733
0.00670157
0.00670601
0.00700062
0.00713236
0.00730163
0.00751772
0.0077817
0.00810748
0.00848015
0.00892048
0.00940829
0.00996694
0.0107056
0.0114963
0.0121753
0.0125936
0.0127471
0.0126925
0.0124641
0.0120915
0.0115853
0.0109283
0.0100419
0.00893145
0.00771852
0.0064391
0.00517105
0.00395581
0.00284937
0.00192572
0.00122325
0.000727452
0.000389522
0.000177467
9.23946e-05
9.99019e-05
0.00700287
0.00689623
0.00681489
0.00675736
0.00672123
0.0067012
0.00668854
0.00667452
0.0066727
0.00667008
0.00667064
0.00667188
0.00667396
0.00667657
0.00667946
0.00668266
0.00668603
0.00668962
0.00669341
0.00669738
0.0067016
0.00670602
0.00713643
0.00730924
0.00753081
0.0078047
0.00814476
0.00854168
0.00901897
0.00955629
0.0101951
0.0111329
0.012203
0.0131718
0.0138335
0.0140963
0.0140371
0.0137631
0.0133274
0.0127706
0.0121091
0.0113267
0.0103395
0.00915484
0.00788857
0.00656784
0.00526411
0.00402422
0.00289558
0.00195289
0.00123616
0.000731433
0.000389552
0.000176826
9.24269e-05
0.000100108
0.00714017
0.00699611
0.00688435
0.00680683
0.00675165
0.00671821
0.00669992
0.00668552
0.00667488
0.00667179
0.00667031
0.0066705
0.00667208
0.00667405
0.00667674
0.00667959
0.00668279
0.00668614
0.00668971
0.00669347
0.00669744
0.00670163
0.00670603
0.00731613
0.00754277
0.00782581
0.0081793
0.00859976
0.00911147
0.00969906
0.0104362
0.0116126
0.0129866
0.0142503
0.0151765
0.0156609
0.0156868
0.0153778
0.0148671
0.0142144
0.0134656
0.012641
0.0117265
0.0106337
0.0093725
0.00805245
0.00669145
0.0053528
0.00408924
0.00293953
0.00197879
0.00124848
0.000735269
0.000389606
0.000176303
9.24728e-05
0.000100332
0.00732238
0.00713107
0.00697916
0.00687246
0.00679897
0.00674618
0.00671533
0.00669888
0.00668249
0.00667524
0.00667098
0.00667049
0.00667042
0.00667225
0.00667417
0.00667689
0.00667972
0.00668291
0.00668624
0.0066898
0.00669354
0.00669749
0.00670165
0.00670604
0.00755366
0.0078451
0.00821122
0.00865403
0.00919781
0.00983873
0.010692
0.0121268
0.0137885
0.0153036
0.0164526
0.0171598
0.0174044
0.0171952
0.0166586
0.015935
0.0150838
0.0141536
0.0131698
0.0121229
0.0109227
0.00958382
0.00821004
0.00680979
0.00543706
0.0041508
0.00298121
0.00200341
0.00126023
0.000738458
0.000389663
0.000175755
9.25223e-05
0.000100574
0.00756351
0.00731061
0.00710719
0.00696217
0.00686088
0.00679125
0.00674091
0.00671265
0.00669792
0.00667966
0.00667544
0.00667034
0.00667058
0.00667042
0.00667238
0.0066743
0.00667703
0.00667985
0.00668303
0.00668635
0.00668989
0.00669361
0.00669753
0.00670167
0.00670604
0.00786267
0.0082406
0.00870428
0.00927845
0.00997677
0.0109584
0.0126487
0.0145515
0.0162475
0.017549
0.0184237
0.0188783
0.0189098
0.0185171
0.0178068
0.0169163
0.0159022
0.0148146
0.0136847
0.0125107
0.0112045
0.00978822
0.00836122
0.00692283
0.00551732
0.00420886
0.00302066
0.00202677
0.00126991
0.000741195
0.000389741
0.00017518
9.25894e-05
0.000100838
0.00787841
0.00754823
0.00727762
0.00708327
0.00694557
0.00684954
0.0067836
0.00673597
0.00671008
0.00669694
0.00667727
0.00667534
0.00666993
0.00667058
0.00667048
0.00667249
0.00667444
0.00667716
0.00667999
0.00668314
0.00668645
0.00668997
0.00669367
0.00669756
0.00670167
0.00670604
0.00826756
0.00875051
0.00935409
0.0101133
0.0112273
0.0131526
0.0152369
0.0170406
0.0184216
0.0193952
0.02
0.0202494
0.0201276
0.0196144
0.0187901
0.0177842
0.0166486
0.0154337
0.0141768
0.0128855
0.0114775
0.00998516
0.00850592
0.0070304
0.00559393
0.00426362
0.00305793
0.00204597
0.00127817
0.000744212
0.000389843
0.000174575
9.26607e-05
0.000101124
0.00829169
0.0078593
0.00750302
0.00724452
0.00705987
0.00692934
0.00683843
0.00677599
0.00673139
0.0067075
0.00669574
0.00667578
0.0066749
0.00666976
0.0066705
0.0066706
0.00667258
0.0066746
0.00667729
0.00668012
0.00668325
0.00668655
0.00669005
0.00669371
0.00669756
0.00670167
0.00670604
0.0087929
0.00942535
0.0102472
0.0114898
0.0136203
0.0158271
0.0176758
0.0190757
0.020086
0.0207756
0.0211773
0.0212864
0.0210699
0.0204911
0.019605
0.0185302
0.0173129
0.0160019
0.0146396
0.0132435
0.01174
0.0101742
0.00864406
0.00713246
0.00566684
0.00431523
0.00308845
0.00206228
0.00128724
0.000747565
0.000389976
0.00017394
9.27545e-05
0.000101437
0.00883058
0.00826765
0.00779814
0.00745767
0.00721208
0.00703701
0.00691347
0.00682754
0.00676845
0.00672698
0.00670486
0.00669363
0.00667503
0.00667418
0.00666975
0.00667038
0.00667074
0.00667266
0.00667475
0.00667741
0.00668025
0.00668336
0.00668665
0.00669009
0.00669371
0.00669756
0.00670167
0.00670604
0.00949266
0.0103768
0.0117384
0.014042
0.0163204
0.0181667
0.0195408
0.02054
0.0212582
0.0217473
0.0220156
0.0220394
0.0217739
0.0211712
0.0202638
0.0191584
0.0178936
0.0165154
0.0150691
0.0135822
0.0119907
0.0103548
0.00877563
0.00722917
0.00573605
0.00435744
0.0031143
0.00208015
0.00129721
0.000751264
0.000390141
0.000173274
9.28554e-05
0.000101774
0.00955387
0.00880093
0.00818499
0.00773672
0.00741317
0.00718033
0.00701465
0.00689797
0.00681692
0.00676106
0.00672273
0.00670229
0.00669088
0.00667486
0.00667333
0.00666985
0.00667025
0.0066709
0.00667274
0.0066749
0.00667753
0.00668038
0.00668346
0.0066867
0.00669009
0.00669371
0.00669756
0.00670167
0.00670604
0.0105002
0.0119715
0.0144148
0.0167241
0.0185352
0.0198538
0.0208081
0.0215125
0.022035
0.0223973
0.0225859
0.0225645
0.0222823
0.0216851
0.0207859
0.0196789
0.0183945
0.0169737
0.0154636
0.0138998
0.0122288
0.0105269
0.00890067
0.00732068
0.00579295
0.00439317
0.00314256
0.00209975
0.0013082
0.000755394
0.000390352
0.000172576
9.29857e-05
0.000102143
0.0106112
0.00951668
0.00868879
0.00810214
0.00767634
0.00736957
0.00714928
0.00699283
0.00688288
0.00680668
0.00675374
0.00671884
0.00670003
0.00668762
0.00667501
0.00667245
0.00666999
0.00667014
0.00667105
0.00667283
0.00667505
0.00667764
0.0066805
0.00668351
0.0066867
0.00669008
0.00669371
0.00669756
0.00670167
0.00670603
0.0121902
0.0147381
0.0170498
0.0188048
0.0200498
0.0209374
0.021598
0.0221128
0.0225162
0.0228053
0.0229515
0.022912
0.0226349
0.0220628
0.0211925
0.0201051
0.0188224
0.0173794
0.015823
0.0141955
0.0124537
0.0106902
0.00901921
0.00739574
0.00584128
0.0044322
0.00317346
0.00212127
0.00132032
0.000759941
0.000390605
0.000171845
9.31276e-05
0.000102539
0.0105691
0.0123847
0.00935374
0.00857802
0.00802048
0.00761712
0.00732687
0.00711893
0.00697156
0.00686825
0.006797
0.00674681
0.00671523
0.00669857
0.00668438
0.00667523
0.00667167
0.00667011
0.00667007
0.00667119
0.00667293
0.00667519
0.00667776
0.00668056
0.00668351
0.0066867
0.00669008
0.00669371
0.00669756
0.00670165
0.00670602
0.0150132
0.0173101
0.0189969
0.0201587
0.0209669
0.0215635
0.0220407
0.0224445
0.0227826
0.0230343
0.0231624
0.0231228
0.0228653
0.0223314
0.0215035
0.0204505
0.0191852
0.0177362
0.0161484
0.0144693
0.0126651
0.0108447
0.00911656
0.00745942
0.00589425
0.00447487
0.00320729
0.00214491
0.0013337
0.000765029
0.000390922
0.000171083
9.33088e-05
0.000102973
0.0103201
0.0123445
0.0152378
0.00919732
0.00846926
0.00794022
0.00755908
0.0072851
0.00708934
0.00695091
0.00685417
0.00678769
0.00674028
0.00671195
0.00669741
0.00668142
0.00667538
0.00667103
0.00667018
0.00667004
0.00667131
0.00667303
0.00667533
0.00667781
0.00668057
0.0066835
0.0066867
0.00669009
0.00669371
0.00669753
0.00670162
0.00670601
0.0175167
0.0191296
0.0202044
0.0209266
0.0214469
0.0218657
0.022239
0.0225855
0.0228935
0.0231308
0.0232566
0.023229
0.023001
0.0225136
0.0217369
0.020728
0.0194913
0.0180485
0.0164417
0.0147217
0.0128631
0.0109712
0.0091992
0.00752911
0.00595234
0.00452158
0.00324435
0.00217091
0.00134849
0.000770717
0.000391298
0.000170288
9.35087e-05
0.000103436
0.0100755
0.0119895
0.0151708
0.0176709
0.00904837
0.00836203
0.00786148
0.00750223
0.00724433
0.00706055
0.00693092
0.00684061
0.00677873
0.00673422
0.00670907
0.00669633
0.00667895
0.00667533
0.00667057
0.0066702
0.00667005
0.00667142
0.00667314
0.00667539
0.00667781
0.00668057
0.0066835
0.00668669
0.00669009
0.00669367
0.00669748
0.0067016
0.006706
0.0192175
0.0202052
0.0208395
0.0212766
0.0216231
0.021943
0.0222659
0.0225904
0.0228909
0.0231283
0.0232625
0.0232555
0.023064
0.0226284
0.0219078
0.0209491
0.0197486
0.0183211
0.0167052
0.0149535
0.0130235
0.0110783
0.00928967
0.00760545
0.00601611
0.00457277
0.00328499
0.00219953
0.00136486
0.000777033
0.00039176
0.000169463
9.37623e-05
0.000103943
0.00984631
0.0116054
0.0148141
0.0175711
0.0192628
0.00890442
0.00825627
0.00778437
0.00744666
0.00720462
0.00703264
0.00691163
0.00682761
0.00677025
0.00672887
0.00670642
0.00669521
0.00667723
0.00667504
0.00667029
0.00667017
0.0066701
0.00667152
0.0066732
0.00667539
0.0066778
0.00668056
0.0066835
0.00668669
0.00669005
0.00669361
0.00669743
0.00670157
0.00670598
0.0201751
0.0207224
0.0210735
0.0213391
0.0215894
0.0218634
0.0221715
0.0224969
0.0228038
0.0230508
0.0232011
0.0232215
0.0230716
0.022691
0.0220292
0.0211238
0.0199642
0.0185587
0.0169414
0.0151375
0.0131583
0.0111951
0.00938875
0.00768916
0.00608617
0.00462891
0.00332961
0.00223107
0.00138299
0.000784094
0.000392305
0.000168604
9.40453e-05
0.000104478
0.00963168
0.0112272
0.0143706
0.0173379
0.0191099
0.020114
0.00876376
0.00815224
0.00770903
0.00739248
0.00716609
0.00700566
0.00689316
0.00681546
0.00676241
0.00672427
0.00670389
0.00669356
0.00667624
0.00667455
0.00667015
0.0066701
0.00667019
0.00667155
0.00667319
0.00667539
0.0066778
0.00668056
0.00668351
0.00668664
0.00668997
0.00669354
0.00669738
0.00670154
0.00670597
0.0205875
0.0208526
0.0210329
0.0212027
0.0214087
0.0216728
0.0219897
0.0223301
0.0226521
0.0229154
0.0230882
0.0231418
0.0230376
0.0227136
0.0221114
0.0212606
0.0201447
0.0187654
0.0171245
0.0152904
0.0133041
0.0113226
0.00949732
0.00778102
0.00616322
0.00469058
0.00337864
0.00226587
0.00140312
0.000791982
0.000392961
0.00016772
9.44042e-05
0.000105066
0.00942862
0.0108678
0.0138806
0.0170184
0.0189501
0.0199063
0.0204302
0.00862581
0.00805027
0.00763561
0.00733983
0.00712883
0.00697984
0.00687598
0.00680434
0.00675504
0.00672017
0.00670154
0.00669133
0.00667579
0.00667391
0.00667013
0.00667001
0.00667025
0.00667152
0.00667319
0.00667539
0.0066778
0.00668056
0.00668345
0.00668654
0.00668988
0.00669347
0.00669733
0.00670151
0.00670595
0.0206248
0.0207186
0.0208011
0.0209253
0.0211231
0.0214021
0.0217432
0.0221071
0.0224496
0.0227345
0.0229359
0.0230283
0.0229727
0.0227061
0.022163
0.0213667
0.0202954
0.0189208
0.0172743
0.0154533
0.0134616
0.0114616
0.00961631
0.0078819
0.00624802
0.0047584
0.00343258
0.0023043
0.00142548
0.000800817
0.00039374
0.000166786
9.48068e-05
0.000105677
0.0092347
0.0105313
0.0133655
0.0166373
0.0187201
0.0197798
0.0201672
0.0203799
0.00849067
0.00795069
0.00756432
0.00728886
0.00709319
0.00695584
0.00686031
0.00679419
0.00674824
0.00671658
0.00669957
0.00668869
0.00667567
0.00667321
0.00667019
0.00666989
0.00667028
0.00667151
0.00667319
0.00667539
0.0066778
0.00668049
0.00668335
0.00668644
0.00668979
0.0066934
0.00669727
0.00670148
0.00670594
0.020406
0.0203983
0.0204313
0.0205458
0.0207615
0.0210725
0.0214467
0.0218387
0.0222055
0.0225176
0.0227539
0.0228899
0.0228856
0.0226763
0.0221908
0.0214477
0.0204033
0.0190459
0.0174313
0.0156264
0.0136313
0.011613
0.0097467
0.00799277
0.00634145
0.00483308
0.00349202
0.0023468
0.00145035
0.000810721
0.000394656
0.000165806
9.53161e-05
0.000106463
0.00904828
0.0102191
0.0128361
0.0162065
0.0184464
0.0195962
0.0200435
0.0200612
0.020079
0.00835865
0.00785386
0.00749536
0.00724008
0.00706009
0.006934
0.00684606
0.00678506
0.00674201
0.00671345
0.00669824
0.00668601
0.00667572
0.00667252
0.00667033
0.00666977
0.00667031
0.00667151
0.00667318
0.00667538
0.00667774
0.00668036
0.00668324
0.00668633
0.0066897
0.00669333
0.00669721
0.00670145
0.00670592
0.020004
0.0199408
0.0199595
0.0200913
0.0203444
0.0206976
0.0211093
0.0215315
0.0219267
0.0222721
0.02255
0.0227343
0.022783
0.0226301
0.0222003
0.0214989
0.0204882
0.0191741
0.0175949
0.0158097
0.0138137
0.0117777
0.00988957
0.00811469
0.00644447
0.00491543
0.00355758
0.00239386
0.00147806
0.000821823
0.00039576
0.000164773
9.60015e-05
0.000107388
0.00886869
0.00993083
0.0123007
0.015727
0.0181412
0.0193843
0.0198713
0.0199209
0.0197037
0.0196029
0.00823002
0.00776024
0.0074294
0.00719481
0.00703
0.00691414
0.00683313
0.00677689
0.00673639
0.00671063
0.00669713
0.0066835
0.00667585
0.00667195
0.00667049
0.00666971
0.0066703
0.00667152
0.00667317
0.00667531
0.00667762
0.00668023
0.00668313
0.00668623
0.00668961
0.00669326
0.00669714
0.00670142
0.0067059
0.0194638
0.0193795
0.0194113
0.0195827
0.0198845
0.0202851
0.0207354
0.0211895
0.0216182
0.0220044
0.0223305
0.0225672
0.02267
0.0225722
0.0221943
0.0215369
0.0205721
0.0193045
0.0177645
0.0160028
0.0140091
0.0119565
0.010046
0.0082488
0.00655816
0.00500641
0.00363008
0.00244603
0.00150896
0.000834327