/*--------------------------------*- C++ -*----------------------------------*\
  =========                 |
  \\      /  F ield         | OpenFOAM: The Open Source CFD Toolbox
   \\    /   O peration     | Website:  https://openfoam.org
    \\  /    A nd           | Version:  8
     \\/     M anipulation  |
\*---------------------------------------------------------------------------*/
FoamFile
{
    version     2.0;
    format      ascii;
    class       volScalarField;
    location    "0.43";
    object      p;
}
// * * * * * * * * * * * * * * * * * * * * * * * * * * * * * * * * * * * * * //

dimensions      [0 2 -2 0 0 0 0];

internalField   nonuniform List<scalar> 
15677
(
74.5998
74.2432
73.8305
74.3077
73.8187
73.8324
74.2828
73.8459
73.8417
73.726
74.2574
73.8472
73.842
73.735
73.6345
74.2356
73.8495
73.8419
73.7342
73.6421
73.5384
74.2122
73.8518
73.8415
73.7353
73.642
73.5451
73.424
74.187
73.8544
73.8407
73.7357
73.643
73.5451
73.4298
73.2873
74.1609
73.8574
73.8392
73.7357
73.6435
73.546
73.4299
73.2924
73.1212
74.1336
73.8595
73.8373
73.7356
73.644
73.5466
73.4309
73.2926
73.1255
72.9179
74.105
73.861
73.8346
73.7351
73.6444
73.5472
73.4316
73.2937
73.1259
72.9216
72.6699
74.0755
73.8626
73.8314
73.7349
73.6448
73.5479
73.4324
73.2945
73.1271
72.9221
72.6728
72.3687
74.0455
73.8637
73.828
73.735
73.6454
73.5487
73.4335
73.2957
73.1282
72.9235
72.6735
72.3709
72.0061
74.0158
73.8638
73.8245
73.7354
73.6464
73.55
73.4349
73.2972
73.1297
72.9249
72.6751
72.3717
72.0074
71.5736
73.9891
73.8625
73.821
73.7362
73.648
73.552
73.437
73.2993
73.1318
72.927
72.677
72.3737
72.0085
71.5739
71.0631
73.9663
73.8604
73.8175
73.7376
73.6507
73.555
73.4402
73.3025
73.1348
72.9298
72.6797
72.3761
72.0108
71.5753
71.0624
70.4671
73.9463
73.8584
73.8146
73.7396
73.6546
73.5596
73.4451
73.3072
73.1393
72.9339
72.6835
72.3796
72.0138
71.5779
71.064
70.4652
69.7787
73.9289
73.8563
73.8124
73.7422
73.66
73.5661
73.4521
73.3142
73.1459
72.9401
72.689
72.3846
72.0183
71.5818
71.0671
70.467
69.7755
68.9924
73.9138
73.8544
73.8108
73.7451
73.6667
73.5752
73.4621
73.3243
73.1557
72.9491
72.6972
72.3919
72.0247
71.5874
71.0718
70.4706
69.7777
68.9878
68.1036
73.9007
73.8525
73.8098
73.7485
73.674
73.5862
73.4758
73.3386
73.1697
72.9624
72.7093
72.4026
72.0341
71.5955
71.0788
70.4763
69.7818
68.9902
68.0975
67.1097
73.8895
73.8508
73.8093
73.7524
73.682
73.5982
73.4924
73.3581
73.1895
72.9814
72.7269
72.4184
72.0479
71.6074
71.0889
70.4848
69.7886
68.9948
68.1002
67.1018
66.0094
73.8806
73.8493
73.8093
73.7566
73.6907
73.6113
73.5105
73.3819
73.2165
73.0081
72.7521
72.4413
72.0681
71.6247
71.1035
70.4971
69.7987
69.0027
68.1054
67.1049
65.9997
64.8035
73.8737
73.8478
73.8097
73.7613
73.7
73.6255
73.5303
73.4077
73.2494
73.0446
72.7874
72.4741
72.0974
71.6502
71.125
70.5149
69.8133
69.0146
68.1145
67.1105
66.003
64.7917
63.495
73.8684
73.8464
73.8105
73.7662
73.7098
73.6405
73.5516
73.436
73.2851
73.0889
72.8356
72.5198
72.1392
71.687
71.1565
70.5411
69.8346
69.0318
68.1281
67.1207
66.0091
64.7954
63.4811
62.0886
73.8643
73.8453
73.8116
73.7712
73.72
73.6563
73.5741
73.4664
73.3243
73.1373
72.8944
72.5826
72.1977
71.7395
71.2019
70.5792
69.8658
69.0568
68.1479
67.1361
66.0204
64.8018
63.4849
62.0725
60.5965
73.8611
73.8443
73.8127
73.776
73.73
73.6726
73.5977
73.4986
73.3664
73.1903
72.9586
72.659
72.2778
71.8129
71.2667
70.6345
69.9114
69.0934
68.1766
67.1585
66.0374
64.814
63.4915
62.0763
60.5775
59.0489
73.8584
73.8435
73.8138
73.7803
73.7392
73.6887
73.6221
73.5323
73.411
73.2473
73.0289
72.7425
72.3755
71.9135
71.3574
70.7132
69.9774
69.1469
68.2188
67.191
66.0622
64.8324
63.5043
62.0824
60.5787
58.9933
57.3853
73.8563
73.8429
73.8149
73.7842
73.7476
73.7034
73.646
73.5671
73.4577
73.3078
73.1046
72.8342
72.4825
72.0365
71.4819
70.8235
70.0716
69.2245
68.2806
67.2387
66.0982
64.8593
63.5237
62.0955
60.5834
58.996
57.3182
55.591
73.8546
73.8424
73.816
73.7878
73.7551
73.7167
73.6679
73.6012
73.506
73.3711
73.1849
72.9329
72.5999
72.1712
71.6342
70.9751
70.2036
69.3353
68.3703
67.3088
66.1513
64.8984
63.552
62.1151
60.5948
58.9969
57.3208
55.5608
53.7392
73.8532
73.842
73.8169
73.7911
73.7618
73.7287
73.6877
73.6325
73.5534
73.4367
73.2691
73.0379
72.7267
72.3195
71.8014
71.161
70.3855
69.491
68.4988
67.411
66.2296
64.9564
63.5935
62.144
60.613
59.0054
57.3151
55.553
53.7277
51.8356
73.852
73.8416
73.8176
73.7941
73.7678
73.7394
73.7054
73.6608
73.5968
73.5009
73.3564
73.148
72.8616
72.4797
71.9857
71.3653
70.609
69.7061
68.6799
67.5579
66.3442
65.0423
63.6554
62.1868
60.6408
59.0209
57.3229
55.5436
53.7108
51.83
49.6891
73.851
73.8413
73.8183
73.7969
73.7732
73.7489
73.7213
73.6861
73.636
73.5599
73.442
73.2622
73.0032
72.6503
72.1851
71.591
70.8552
69.971
68.9306
67.7652
66.5093
65.1685
63.7479
62.2514
60.6831
59.0461
57.3368
55.5529
53.7022
51.8114
49.6869
47.2707
73.8502
73.8411
73.8189
73.7993
73.7779
73.7573
73.7354
73.7087
73.6712
73.6132
73.5206
73.3743
73.1503
72.8298
72.3979
71.8358
71.1278
70.2636
69.2401
68.0532
66.7433
65.3515
63.8848
62.349
60.7485
59.0863
57.3603
55.5663
53.712
51.8048
49.669
47.2704
44.8248
73.8495
73.8409
73.8195
73.8015
73.7821
73.7648
73.7479
73.7289
73.7026
73.661
73.5917
73.4774
73.2949
73.0165
72.6221
72.0974
71.424
70.5882
69.583
68.4101
67.0696
65.6119
64.0844
62.4949
60.8493
59.151
57.3989
55.5895
53.7255
51.8131
49.6625
47.2538
44.8262
42.3938
73.8489
73.8408
73.82
73.8034
73.7858
73.7715
73.759
73.7468
73.7306
73.7037
73.6555
73.5707
73.4281
73.2003
72.8558
72.3736
71.7413
70.9419
69.9645
68.8065
67.4755
65.9766
64.3701
62.7093
61.0021
59.2532
57.4627
55.6274
53.7487
51.8266
49.6675
47.2467
44.8117
42.3955
39.9982
73.8406
73.8482
73.8206
73.8051
73.7891
73.7774
73.7689
73.7626
73.7555
73.7418
73.7126
73.6545
73.5486
73.3698
73.0862
72.662
72.0771
71.3217
70.3812
69.2489
67.9279
66.4321
64.7722
63.0185
61.2292
59.4109
57.5655
55.6905
53.7857
51.8491
49.6796
47.2484
44.8045
42.382
39.9997
37.6504
73.821
73.8405
73.8475
73.8066
73.7921
73.7826
73.7776
73.7767
73.7775
73.7756
73.7634
73.7295
73.6571
73.5235
73.299
72.9471
72.4285
71.7246
70.83
69.7336
68.4344
66.9419
65.277
63.4562
61.5593
59.6481
57.7265
55.7934
53.8475
51.8843
49.6994
47.2578
44.8032
42.3737
39.9869
37.6512
35.3628
73.8078
73.8217
73.8404
73.8467
73.7947
73.7873
73.7854
73.7891
73.7971
73.8056
73.8087
73.7963
73.7542
73.6618
73.4922
73.2108
72.7766
72.1474
71.3074
70.2573
68.9912
67.5145
65.8441
64.0085
62.0296
59.9961
57.9716
55.9565
53.9492
51.9434
49.7307
47.2729
44.8091
42.3689
39.9771
37.639
35.3626
33.1464
73.7969
73.8096
73.8226
73.8403
73.846
73.7913
73.7922
73.8002
73.8144
73.8322
73.8488
73.8558
73.8408
73.7858
73.6664
73.4507
73.0995
72.5674
71.8098
70.8162
69.5949
68.1464
66.4837
64.6318
62.6266
60.4954
58.3342
56.207
54.1122
52.042
49.7848
47.298
44.8187
42.3702
39.9683
37.6273
35.3508
33.1451
31.0095
73.7948
73.8
73.8117
73.8235
73.8403
73.8454
73.7983
73.81
73.8297
73.8558
73.8844
73.9087
73.918
73.8966
73.8227
73.6673
73.3937
72.9579
72.3105
71.4062
70.2412
68.8339
67.1923
65.3378
63.3036
61.1331
58.8582
56.5805
54.365
52.2023
49.8774
47.3437
44.8359
42.3726
39.9639
37.6144
35.3369
33.1336
31.0072
28.9582
73.8034
73.7996
73.8033
73.8137
73.8245
73.8402
73.8448
73.8186
73.8434
73.8767
73.916
73.9556
73.9865
73.9953
73.9625
73.862
73.6599
73.3145
72.7774
71.9963
70.9262
69.5728
67.9662
66.123
64.0737
61.8599
59.5317
57.1243
54.7452
52.4537
50.0313
47.4259
44.8707
42.38
39.958
37.6036
35.3197
33.1172
30.9957
28.955
26.9969
73.826
73.8104
73.8045
73.8068
73.8157
73.8254
73.8402
73.8442
73.8554
73.8953
73.944
73.9971
74.0474
74.0831
74.0872
74.0363
73.8996
73.6379
73.2049
72.5482
71.6137
70.3589
68.8012
66.984
64.9338
62.6902
60.303
57.8274
55.3029
52.8358
50.2769
47.568
44.9392
42.4016
39.954
37.5885
35.3021
33.0956
30.9767
28.9435
26.9927
25.1281
73.8656
73.8357
73.8172
73.8096
73.8101
73.8177
73.8263
73.8401
73.8437
73.9118
73.9688
74.034
74.1014
74.161
74.1982
74.192
74.1144
73.9296
73.5935
73.055
72.259
71.1511
69.6933
67.9171
65.881
63.6216
61.188
58.6364
56.0283
53.4008
50.6555
47.8011
45.0647
42.4531
39.9599
37.5717
35.2771
33.0708
30.9507
28.9218
26.9811
25.123
23.3528
73.9255
73.879
73.845
73.8243
73.8145
73.8134
73.8196
73.8272
73.84
73.8432
73.9908
74.0668
74.1493
74.2303
74.2968
74.3306
74.3065
74.1916
73.9447
73.5169
72.8535
71.8975
70.5962
68.9184
66.9122
64.6522
62.1854
59.5691
56.8671
54.14
51.2205
48.1678
45.2794
42.5582
39.9918
37.5604
35.2464
33.0354
30.9187
28.8914
26.9567
25.1112
23.3469
21.6711
74.0092
73.9437
73.8911
73.8544
73.8311
73.8193
73.8165
73.8214
73.8281
73.84
73.8428
74.0959
74.192
74.2917
74.3845
74.454
74.4779
74.4261
74.2607
73.9354
73.3969
72.5875
71.4504
69.9366
68.0239
65.7793
63.2943
60.6254
57.839
54.9995
51.9655
48.7214
45.6253
42.7489
40.073
37.5704
35.2167
32.9902
30.8725
28.8519
26.922
25.0841
23.335
21.6645
20.0817
74.1199
74.0334
73.9593
73.9036
73.8637
73.8378
73.8239
73.8196
73.8232
73.8289
73.84
73.8424
74.2297
74.3465
74.4624
74.5637
74.6305
74.6357
74.5442
74.3128
73.8905
73.2203
72.2431
70.904
69.1599
67.0004
64.5129
61.8054
58.9452
56.0006
52.8374
49.4587
46.1553
43.0657
40.2345
37.6248
35.2034
32.9411
30.8123
28.7949
26.8751
25.0452
23.3053
21.6523
20.0744
18.5828
74.2609
74.1518
74.0534
73.9756
73.9158
73.8725
73.8441
73.8284
73.8225
73.8249
73.8298
73.8399
73.842
74.3949
74.5318
74.6613
74.7664
74.8225
74.7978
74.652
74.3367
73.7967
72.9725
71.8054
70.2443
68.2547
65.8401
63.1089
60.1872
57.1461
53.8593
50.3289
46.8694
43.5607
40.515
37.7527
35.2287
32.9034
30.7434
28.7196
26.8073
24.991
23.2623
21.62
20.0619
18.5749
17.1718
74.4348
74.3023
74.177
74.0742
73.9914
73.9274
73.881
73.8502
73.8326
73.8253
73.8266
73.8306
73.8399
73.8417
74.5932
74.7483
74.8873
74.989
75.0243
74.956
74.7386
74.3192
73.6391
72.6379
71.2589
69.4577
67.2105
64.5359
61.5663
58.4388
55.0351
51.3561
47.7207
44.2376
40.9648
37.9905
35.3192
32.8978
30.6808
28.6308
26.7168
24.9124
23.2009
21.5731
20.0272
18.5622
17.1634
15.8456
74.6435
74.4881
74.3339
74.2035
74.0944
74.0063
73.9384
73.889
73.856
73.8366
73.8279
73.8281
73.8314
73.8399
73.8414
74.8253
74.9953
75.1374
75.2264
75.2279
75.0995
74.7909
74.245
73.4012
72.1996
70.5884
68.5315
66.0176
63.0846
59.8822
56.3701
52.5458
48.7327
45.0532
41.5915
38.3863
35.5092
32.9482
30.6429
28.5429
26.6083
24.807
23.1119
21.5047
19.9766
18.5251
17.1504
15.8368
14.601
74.8881
74.7114
74.5273
74.3674
74.2291
74.1134
74.0204
73.9487
73.8966
73.8614
73.8404
73.8304
73.8295
73.8321
73.8399
73.8412
75.0908
75.27
75.4066
75.4708
75.423
75.2154
74.7935
74.0971
73.0653
71.6409
69.7789
67.4535
64.6703
61.4802
57.8696
53.9058
49.9134
46.0304
42.3554
38.9505
35.8434
33.0862
30.6513
28.472
26.4951
24.6792
22.9919
21.4056
19.9015
18.471
17.1112
15.8235
14.5917
13.4344
75.1683
74.974
74.76
74.5693
74.3995
74.2531
74.1312
74.0335
73.9584
73.9036
73.8664
73.8439
73.8327
73.8308
73.8327
73.8399
73.841
75.3872
75.568
75.6878
75.7123
75.5966
75.2882
74.7288
73.8571
72.6131
70.945
68.816
66.2155
63.1592
59.5404
55.4444
51.2727
47.1787
43.2781
39.6475
36.3341
33.3527
30.7343
28.4371
26.3911
24.5412
22.8454
21.2716
19.7926
18.3894
17.0538
15.7822
14.5782
13.4246
12.3422
75.4819
75.2759
75.0337
74.8122
74.6094
74.4294
74.2753
74.1476
74.0456
73.9672
73.91
73.871
73.8471
73.8347
73.8319
73.8332
73.8399
73.8409
75.7105
75.8823
75.9712
75.9382
75.7334
75.3001
74.5779
73.5053
72.0262
70.0953
67.6889
64.8041
61.3079
57.1722
52.8223
48.51
44.3698
40.4962
36.9502
33.7604
30.928
28.4631
26.3123
24.4041
22.6828
21.107
19.6452
18.2713
16.966
15.7217
14.5349
13.4109
12.3318
11.3201
75.8249
75.6159
75.3492
75.0985
74.862
74.6465
74.457
74.2957
74.1627
74.0566
73.9753
73.9158
73.8752
73.8499
73.8365
73.8328
73.8337
73.8399
73.8407
76.0539
76.2037
76.2444
76.1331
75.8154
75.2316
74.32
73.022
71.2862
69.0783
66.3805
63.0517
59.0151
54.5746
50.0367
45.642
41.5058
37.7059
34.2826
31.2447
28.5802
26.2803
24.2814
22.5133
20.9206
19.4633
18.111
16.839
15.628
14.4716
13.3657
12.3178
11.3087
10.3689
76.191
75.9908
75.7057
75.4293
75.1601
74.9078
74.6805
74.4821
74.3141
74.1762
74.0665
73.9825
73.921
73.8787
73.8523
73.838
73.8336
73.8341
73.8399
73.8406
76.4085
76.5199
76.4921
76.2789
75.8225
75.061
73.9343
72.3869
70.3768
67.8743
64.7336
60.846
56.4547
51.7705
47.1059
42.6858
38.6083
34.928
31.6621
28.7996
26.3181
24.191
22.3472
20.7194
19.254
17.9126
16.6666
15.4927
14.3723
13.2999
12.2709
11.2947
10.3517
9.57524
76.571
76.395
76.1006
75.8044
75.5052
75.2165
74.9496
74.7113
74.5046
74.3306
74.1881
74.0751
73.9887
73.9253
73.8816
73.8542
73.8392
73.8343
73.8344
73.8399
73.8405
76.762
76.8158
76.6961
76.3552
75.7325
74.7663
73.3984
71.5812
69.2765
66.3356
62.6192
58.3283
53.6372
48.7732
44.0475
39.6657
35.7015
32.1828
29.1039
26.4359
24.1481
22.1987
20.5109
19.022
17.6812
16.4525
15.3089
14.2292
13.1954
12.2028
11.2465
10.3385
9.56915
8.90642
76.9529
76.8206
76.5291
76.222
75.8977
75.5744
75.2676
74.9871
74.7386
74.5244
74.3448
74.1984
74.0824
73.9937
73.9288
73.884
73.8559
73.8402
73.8349
73.8347
73.8399
73.8405
77.0995
77.0732
76.836
76.3391
75.5222
74.3236
72.6918
70.5823
67.8443
64.3107
60.1459
55.5056
50.5813
45.6087
40.8933
36.6123
32.8108
29.4896
26.6215
24.1621
22.0747
20.3051
18.7724
17.4198
16.2001
15.08
14.0347
13.045
12.0934
11.1765
10.2889
9.56227
8.9135
8.21127
77.3213
77.2567
76.9842
76.6782
76.3364
75.9825
75.6368
75.3132
75.0202
74.7623
74.5413
74.3568
74.2068
74.0882
73.9976
73.9315
73.8859
73.8572
73.841
73.8354
73.835
73.8399
73.8404
77.4027
77.2715
76.888
76.2067
75.1663
73.7107
71.7898
69.2515
65.9044
61.8855
57.3342
52.4155
47.3288
42.3203
37.6823
33.5576
29.9607
26.8656
24.226
21.9846
20.1009
18.5106
17.1306
15.9104
14.8076
13.7918
12.8404
11.9363
11.0626
10.2175
9.51196
8.90793
8.2117
7.45932
77.6576
77.6895
77.456
77.1669
76.8183
76.4401
76.0586
75.6923
75.3531
75.0485
74.7822
74.5552
74.3663
74.2131
74.0924
74.0005
73.9335
73.8873
73.8582
73.8417
73.8357
73.8352
73.8399
73.8404
77.6505
77.3867
76.8277
75.9312
74.6411
72.9002
70.5536
67.3929
63.5359
59.1094
54.2464
49.1144
43.9316
38.9537
34.4524
30.5311
27.1728
24.3257
21.9265
19.9079
18.228
16.8145
15.5832
14.491
13.5004
12.5844
11.7222
10.8992
10.0993
9.44021
8.8588
8.20083
7.45224
6.6352
77.9401
78.1018
77.9317
77.6796
77.3384
76.9452
76.5331
76.126
75.7403
75.3869
75.0719
74.7982
74.5659
74.3732
74.2175
74.0953
74.0025
73.9349
73.8883
73.8589
73.8422
73.836
73.8353
73.8399
73.8403
77.8184
77.3935
76.6272
75.4874
73.9157
71.7514
68.7744
65.0926
60.8224
56.0629
50.9432
45.6535
40.4348
35.5487
31.237
27.559
24.4656
21.8815
19.7293
17.9347
16.4559
15.2151
14.1277
13.1584
12.275
11.4538
10.6763
9.93014
9.31841
8.78599
8.15174
7.43682
6.62516
5.73749
78.1432
78.4736
78.3955
78.2048
77.8891
77.4934
77.0587
76.615
76.1841
75.7808
75.4144
75.0903
74.81
74.5731
74.3775
74.2202
74.097
74.0037
73.9358
73.889
73.8594
73.8425
73.8363
73.8355
73.8399
73.8403
77.88
77.2634
76.2597
74.8406
72.8473
70.0512
66.554
62.465
57.8499
52.7986
47.4649
42.0697
36.8749
32.1396
28.0649
24.6628
21.8537
19.5418
17.6386
16.066
14.7837
13.7098
12.7608
11.9091
11.1276
10.3963
9.69895
9.14463
8.66144
8.0768
7.38619
6.60841
5.72622
4.76324
78.2391
78.7816
78.8283
78.728
78.4603
78.0786
77.6321
77.1585
76.6854
76.2325
75.8132
75.4354
75.1032
74.8173
74.577
74.3796
74.2212
74.0976
74.0041
73.9361
73.8893
73.8597
73.8427
73.8365
73.8355
73.8399
73.8403
77.8058
76.9676
75.687
73.8464
71.2261
67.9198
64.0286
59.5896
54.6562
49.3426
43.8372
38.3924
33.2838
28.7564
24.9607
21.8604
19.3484
17.3123
15.6567
14.3014
13.2092
12.2956
11.4791
10.7391
10.0543
9.4081
8.90661
8.4836
7.94921
7.30806
6.55604
5.70906
4.75108
3.70604
78.1955
79
79.2077
79.232
79.0392
78.6917
78.2481
77.7539
77.244
76.7437
76.271
75.8374
75.4496
75.1105
74.8206
74.5781
74.3797
74.221
74.0973
74.0039
73.936
73.8893
73.8597
73.843
73.8366
73.8356
73.8399
73.8403
77.564
76.4654
74.7636
72.3039
69.1889
65.506
61.2646
56.4884
51.254
45.7095
40.0811
34.6488
29.6907
25.4252
21.9445
19.1652
16.9573
15.1967
13.7838
12.6391
11.7296
10.9693
10.2787
9.64455
9.05122
8.60693
8.23997
7.76683
7.17691
6.47442
5.65505
4.733
3.6933
2.55882
77.976
79.101
79.5084
79.6959
79.6099
79.3214
78.899
78.397
77.8581
77.3145
76.7895
76.299
75.853
75.4568
75.1128
74.8203
74.5767
74.378
74.2195
74.0961
74.0031
73.9355
73.889
73.86
73.8433
73.8367
73.8356
73.8399
73.8403
77.1108
75.6093
73.3017
70.3631
66.8898
62.8601
58.2699
53.1639
47.6489
41.9124
36.2184
30.8662
26.1231
22.1692
19.0327
16.5873
14.6856
13.1962
12.0189
11.0767
10.3417
9.72702
9.1556
8.62162
8.23798
7.93278
7.51713
6.98943
6.33927
5.57013
4.67735
3.67407
2.54582
1.31444
77.5304
79.0533
79.702
80.0959
80.1532
79.9534
79.5747
79.0812
78.5243
77.9438
77.3696
76.8225
76.3164
75.8599
75.4576
75.1106
74.8169
74.5732
74.3749
74.2169
74.0943
74.0017
73.9345
73.8892
73.8606
73.8435
73.8367
73.8355
73.8399
73.8404
76.2949
74.2288
71.4593
68.1773
64.3633
59.9793
55.0399
49.6147
43.847
37.9671
32.2732
27.0725
22.607
19.0077
16.2379
14.1334
12.5355
11.3102
10.3597
9.61102
9.04174
8.56469
8.10596
7.79227
7.55366
7.20178
6.73309
6.1461
5.43067
4.58921
3.61676
2.52581
1.30131
-0.0346922
78.8147
76.7074
79.7556
80.4055
80.6472
80.5703
80.2625
79.7978
79.2372
78.6292
78.0107
77.4088
76.8422
76.323
75.8589
75.4529
75.1045
74.8108
74.5678
74.3704
74.2135
74.0915
73.9997
73.9346
73.8901
73.8608
73.8435
73.8366
73.8354
73.8399
73.8404
74.9658
72.4848
69.3853
65.7679
61.5989
56.8549
51.5687
45.8412
39.858
33.8935
28.2727
23.2963
19.1662
15.9573
13.5692
11.8073
10.5073
9.53709
8.80334
8.23829
7.82558
7.47842
7.25497
7.09441
6.81167
6.40886
5.88248
5.23128
4.44511
3.52525
2.46659
1.28075
-0.0479738
-1.49663
79.6305
78.242
75.3625
80.5926
81.0671
81.1516
80.9468
80.5357
79.9895
79.3661
78.7109
78.0581
77.4318
76.8486
76.3199
75.8511
75.4435
75.0951
74.8024
74.5607
74.3648
74.2089
74.0881
73.9994
73.9358
73.8904
73.8608
73.8433
73.8364
73.8353
73.8399
73.8405
73.2888
70.5196
67.0911
63.1185
58.5856
53.4781
47.8525
41.8474
35.6961
29.7157
24.2468
19.5659
15.8221
13.0311
11.0329
9.61034
8.59957
7.87387
7.34589
6.9543
6.68921
6.59784
6.53894
6.33779
6.00681
5.54856
4.95973
4.23896
3.37609
2.37144
1.21944
-0.0691722
-1.51005
-3.07968
80.6207
79.2056
77.223
73.6862
81.3827
81.6747
81.6088
81.2809
80.7712
80.1484
79.467
78.7691
78.0856
77.4384
76.8433
76.3086
75.8376
75.43
75.0828
74.792
74.5523
74.3578
74.2035
74.0874
74.0012
73.9364
73.8904
73.8606
73.843
73.8362
73.8351
73.8398
73.8406
71.3997
68.3386
64.5561
60.2174
55.3135
49.8425
43.8906
37.6414
31.3805
25.4625
20.2268
15.9083
12.5936
10.2388
8.63216
7.54199
6.80977
6.31662
5.98306
5.75487
5.76832
5.85703
5.76265
5.51708
5.13357
4.61526
3.95881
3.16265
2.21677
1.12045
-0.132524
-1.53195
-3.09318
-4.79238
81.5612
80.3842
78.3387
75.8847
71.8107
82.111
82.2279
82.0164
81.5703
80.9676
80.2735
79.5392
78.8029
78.0932
77.4308
76.8278
76.2902
75.8191
75.413
75.0682
74.7799
74.5421
74.3496
74.202
74.0898
74.002
73.9364
73.89
73.86
73.8427
73.836
73.8349
73.8398
73.8407
69.2995
65.917
61.7686
57.0548
51.7752
45.9441
39.6848
33.2354
26.9356
21.166
16.2449
12.3486
9.49562
7.58691
6.3681
5.60023
5.13395
4.8609
4.71045
4.7833
4.99379
5.05392
4.92068
4.62671
4.18626
3.60288
2.8732
1.99547
0.959829
-0.235483
-1.59733
-3.11582
-4.80586
-6.64343
82.4321
81.5165
79.7442
77.1553
74.3356
69.7327
82.7772
82.7234
82.3716
81.8131
81.1234
80.3641
79.582
78.8128
78.0834
77.4109
76.8038
76.2658
75.7964
75.3932
75.0516
74.7656
74.5304
74.3472
74.2053
74.0908
74.002
73.9358
73.8892
73.8597
73.8425
73.8357
73.8347
73.8398
73.8408
66.9584
63.2444
58.7198
53.6235
47.9651
41.7801
35.24
28.6464
22.3905
16.861
12.3325
8.90888
6.5399
5.07939
4.23991
3.78144
3.56757
3.50202
3.6801
3.96641
4.15421
4.18301
4.00733
3.66089
3.15874
2.50483
1.69597
0.730105
-0.402487
-1.70444
-3.18321
-4.82922
-6.65682
-8.64129
83.2328
82.5728
81.1086
78.7937
75.7669
72.5869
67.4161
83.3773
83.1579
82.6717
82.0077
81.2379
80.4192
79.5956
78.8014
78.0588
77.3806
76.7726
76.2363
75.7703
75.371
75.0322
74.7494
74.5266
74.3516
74.2067
74.0908
74.0012
73.9345
73.8889
73.8596
73.8421
73.8353
73.8344
73.8398
73.841
64.3672
60.3136
55.4042
49.9181
43.8774
37.3484
30.5638
23.8965
17.7793
12.5842
8.51922
5.60736
3.73471
2.71762
2.24477
2.08116
2.10574
2.40228
2.81415
3.08104
3.24399
3.2385
3.01675
2.61342
2.04436
1.31415
0.419755
-0.641222
-1.87827
-3.29472
-4.89863
-6.68083
-8.65411
-10.7981
83.9579
83.5534
82.3905
80.3978
77.6393
74.2072
70.6022
64.851
83.9068
83.528
82.9148
82.153
81.3099
80.4392
79.5837
78.7721
78.0217
77.3416
76.7352
76.2028
75.7413
75.3454
75.0105
74.7441
74.5324
74.3534
74.2067
74.0898
73.9994
73.9345
73.8892
73.8593
73.8416
73.8348
73.834
73.8398
73.8412
61.5212
57.1219
51.8174
45.9317
39.5054
32.6468
25.6673
19.0142
13.1408
8.37233
4.8314
2.45858
1.08517
0.500399
0.378732
0.494394
0.922964
1.4784
1.87588
2.12155
2.25725
2.21444
1.94265
1.47761
0.836144
0.0234624
-0.963215
-2.1266
-3.47583
-5.01479
-6.75208
-8.67823
-10.8069
-13.5189
84.6015
84.4515
83.5922
81.9144
79.4802
76.3357
72.4389
68.3739
62.0337
84.3617
83.8312
83.0994
82.2475
81.3395
80.4284
79.5502
78.7278
77.9741
77.2953
76.693
76.1658
75.7084
75.3169
75.003
74.7514
74.5347
74.3534
74.2053
74.0873
73.9997
73.9354
73.8892
73.8588
73.8409
73.8342
73.8336
73.8398
73.8414
58.4197
53.6673
47.9536
41.6552
34.8384
27.6733
20.5674
14.0344
8.51626
4.26048
1.29179
-0.526809
-1.40708
-1.57516
-1.36307
-0.789368
-0.0702863
0.477775
0.859547
1.08193
1.18789
1.10446
0.778279
0.246421
-0.473329
-1.37503
-2.46104
-3.73436
-5.20364
-6.87306
-8.75143
-10.831
-13.5327
-16.7649
85.1584
85.2588
84.7077
83.3474
81.2289
78.4281
74.8466
70.4493
65.9035
58.9647
84.7388
84.0654
83.2236
82.2912
81.332
80.3914
79.4985
78.6708
77.9178
77.2432
76.6468
76.124
75.6718
75.3069
75.0124
74.7543
74.5347
74.3515
74.202
74.0881
74.0016
73.936
73.8889
73.8581
73.8401
73.8335
73.8331
73.8398
73.8416
55.0633
49.9466
43.8041
37.0728
29.8623
22.4297
15.2891
8.99875
3.9489
0.281318
-2.08119
-3.34267
-3.74288
-3.51332
-2.77239
-1.86704
-1.14557
-0.60558
-0.24099
-0.0440454
0.0294572
-0.0982414
-0.483406
-1.08755
-1.89183
-2.88941
-4.08206
-5.47298
-7.07005
-8.87753
-10.9042
-13.5633
-16.7829
-20.0796
85.6246
85.9672
85.7276
84.6914
82.8899
80.4224
77.2086
73.156
68.2399
63.1981
55.6463
85.0353
84.2282
83.2871
82.2901
81.293
80.3326
79.4317
78.6035
77.8546
77.1863
76.5949
76.0779
75.6587
75.3186
75.016
74.7543
74.5323
74.3471
74.2034
74.0915
74.003
73.936
73.8882
73.857
73.8391
73.8327
73.8326
73.8398
73.8419
51.4516
45.9536
39.3527
32.1643
24.568
16.9294
9.86904
3.95515
-0.517956
-3.53636
-5.27459
-5.98634
-5.92523
-5.08176
-3.95503
-3.03319
-2.30921
-1.77799
-1.4321
-1.26293
-1.22489
-1.40071
-1.84979
-2.53203
-3.4274
-4.52794
-5.83474
-7.35082
-9.0832
-11.0351
-13.6425
-16.8161
-20.0923
-23.3984
85.9971
86.5695
86.642
85.9358
84.4581
82.3229
79.4672
75.8002
71.2653
65.82
60.2684
52.0797
85.2477
84.3187
83.2968
82.2513
81.2278
80.2556
79.3524
78.5279
77.7857
77.1227
76.5376
76.061
75.6733
75.3231
75.016
74.7514
74.5266
74.3496
74.2089
74.0942
74.0038
73.9356
73.8872
73.8557
73.8378
73.8318
73.832
73.8398
73.8423
47.5816
41.6773
34.5758
26.9041
18.9442
11.1936
4.3551
-1.04335
-4.84275
-7.16966
-8.28005
-8.45836
-7.69157
-6.39755
-5.23418
-4.29459
-3.56776
-3.04597
-2.72042
-2.5816
-2.5822
-2.81028
-3.32852
-4.09496
-5.08819
-6.29897
-7.72737
-9.37607
-11.2498
-13.7838
-16.9031
-20.1215
-23.4093
-26.7043
86.2714
87.0601
87.4411
87.0696
85.9229
84.1233
81.6274
78.3351
74.2034
69.1849
63.2056
57.1255
48.2645
85.3743
84.3448
83.2611
82.1809
81.1408
80.1638
79.2634
78.4457
77.7089
77.0527
76.5164
76.079
75.6788
75.3231
75.0123
74.744
74.5303
74.3578
74.2135
74.0961
74.004
73.9347
73.8857
73.8541
73.8363
73.8307
73.8312
73.8398
73.8427
43.4457
37.0907
29.4309
21.2512
12.9769
5.24954
-1.19623
-5.94131
-8.98896
-10.6013
-11.0938
-10.4596
-9.17252
-7.82001
-6.61711
-5.65806
-4.9279
-4.41626
-4.11285
-4.00703
-4.0497
-4.33446
-4.92738
-5.78432
-6.8824
-8.21066
-9.76806
-11.5554
-14.0113
-17.0565
-20.2078
-23.4388
-26.7143
-29.9861
86.4445
87.4324
88.1153
88.0816
87.2734
85.8125
83.6822
80.7669
77.0237
72.4284
66.9332
60.4155
53.7806
44.1997
85.4238
84.3164
83.1876
82.0845
81.0361
80.0603
79.1665
78.3541
77.6244
77.0265
76.5383
76.0856
75.6787
75.3186
75.0029
74.7494
74.5421
74.3648
74.2169
74.0972
74.0035
73.9333
73.8838
73.8521
73.8346
73.8294
73.8305
73.8399
73.8431
39.0234
32.1519
23.8614
15.1609
6.66463
-0.859424
-6.72019
-10.6845
-12.9258
-13.8202
-13.3727
-12.1366
-10.7724
-9.35691
-8.11086
-7.13038
-6.39642
-5.89576
-5.61631
-5.54633
-5.63472
-5.98081
-6.65408
-7.60804
-8.81791
-10.2709
-11.9633
-14.3335
-17.3005
-20.366
-23.5262
-26.7452
-29.995
-33.2235
86.5261
87.681
88.6521
88.9605
88.4977
87.3789
85.619
83.0891
79.7338
75.5421
70.4945
64.5334
57.4694
50.2474
39.8763
85.4083
84.2426
83.0828
81.9667
80.9173
79.9475
79.0586
78.2534
77.5924
77.0529
76.5462
76.0856
75.6732
75.3067
75.0105
74.7657
74.5524
74.3704
74.2194
74.0974
74.0023
73.9313
73.8814
73.8497
73.8326
73.828
73.8296
73.8399
73.8436
34.2845
26.8083
17.8019
8.59567
0.0262881
-7.06835
-12.1464
-15.2216
-16.6298
-16.429
-15.2809
-13.9469
-12.4995
-11.0154
-9.72226
-8.71835
-7.98018
-7.49126
-7.2377
-7.20657
-7.3445
-7.75671
-8.51619
-9.57363
-10.9022
-12.4859
-14.7613
-17.6424
-20.6204
-23.6898
-26.8345
-30.0267
-33.2312
-36.3943
86.5302
87.8172
89.0383
89.6896
89.5837
88.81
87.4246
85.2895
82.3289
78.5347
73.9094
68.4262
62.0098
54.3868
46.5344
35.274
85.3382
84.1313
82.9525
81.8322
80.7875
79.8219
78.9399
78.215
77.6241
77.0623
76.5462
76.0789
75.6585
75.317
75.0324
74.7801
74.5608
74.3748
74.2208
74.0968
74.0003
73.9285
73.8785
73.8469
73.8302
73.8264
73.8288
73.8399
73.8441
29.1834
20.9794
11.168
1.53161
-6.89596
-13.2941
-17.4016
-19.5079
-19.6351
-18.6118
-17.3387
-15.8987
-14.3605
-12.8021
-11.4579
-10.4286
-9.68574
-9.20941
-8.98375
-8.99455
-9.18596
-9.66923
-10.5207
-11.688
-13.1409
-15.3072
-18.092
-20.9764
-23.9539
-27.005
-30.1172
-33.2632
-36.4008
-39.4769
86.4692
87.8582
89.2818
90.2482
90.5108
90.0936
89.084
87.3545
84.7987
81.4043
77.187
72.1508
66.2509
59.387
51.1882
42.6437
30.3632
85.2232
83.9895
82.8021
81.6847
80.6429
79.6835
78.8943
78.2527
77.6352
77.0623
76.5382
76.0609
75.6719
75.3457
75.0518
74.7922
74.5678
74.3779
74.221
74.095
73.9974
73.9251
73.8749
73.8437
73.8277
73.8247
73.8279
73.84
73.8447
23.6488
14.5423
3.86123
-6.04062
-14.0288
-19.4363
-22.4109
-22.9903
-22.1467
-20.9626
-19.5537
-17.9981
-16.3615
-14.723
-13.324
-12.2673
-11.5193
-11.0565
-10.8608
-10.9166
-11.1655
-11.7247
-12.6739
-13.9563
-15.9897
-18.6619
-21.4419
-24.3209
-27.2786
-30.2934
-33.3544
-36.4329
-39.4821
-42.4502
86.3543
87.8195
89.4017
90.6397
91.251
91.2075
90.5821
89.2681
87.1312
84.1435
80.3296
75.7153
70.2947
63.9962
56.6902
47.8967
38.579
25.1034
85.0714
83.8235
82.6361
81.5197
80.483
79.63
78.9389
78.2657
77.6352
77.0528
76.5162
76.078
75.7088
75.3714
75.0685
74.8025
74.5731
74.3795
74.2199
74.0921
73.9934
73.9208
73.8708
73.8401
73.8251
73.823
73.827
73.84
73.8453
17.5692
7.31141
-4.23526
-14.0879
-21.27
-25.3602
-26.5025
-25.8955
-24.8451
-23.4876
-21.9304
-20.2495
-18.5073
-16.7834
-15.3258
-14.2399
-13.4864
-13.038
-12.8743
-12.9782
-13.2886
-13.9285
-14.98
-16.8392
-19.3716
-22.0287
-24.7973
-27.6545
-30.5743
-33.5351
-36.5241
-39.514
-42.4541
-45.2931
86.1956
87.7148
89.417
90.8818
91.8039
92.1187
91.8927
91.0122
89.3109
86.7436
83.334
79.1279
74.1479
68.3706
61.6901
53.9474
44.5354
34.3429
19.4369
84.8908
83.6389
82.4498
81.337
80.4208
79.6823
78.9539
78.2656
77.624
77.0262
76.5378
76.1246
75.742
75.3937
75.0831
74.8108
74.5766
74.3793
74.2172
74.0878
73.9884
73.9156
73.8661
73.8363
73.8222
73.8212
73.8261
73.8401
73.8459
10.7563
-1.02739
-13.1601
-22.5718
-28.3791
-30.2261
-29.916
-29.0101
-27.7323
-26.1876
-24.4704
-22.6552
-20.801
-18.9868
-17.4674
-16.3507
-15.5916
-15.1586
-15.0288
-15.1839
-15.5596
-16.2839
-17.906
-20.2539
-22.757
-25.3943
-28.1378
-30.9555
-33.8203
-36.7077
-39.6046
-42.4853
-45.2955
-47.9856
86.0021
87.5563
89.3452
90.9925
92.1875
92.8244
92.9752
92.5549
91.3197
89.1915
86.1959
82.3904
77.8268
72.5143
66.4076
59.3618
51.1861
41.1259
29.9482
13.2996
84.6877
83.4307
82.2428
81.2653
80.4819
79.6996
78.9539
78.2526
77.5922
77.0529
76.5956
76.1666
75.771
75.4134
75.0952
74.8168
74.5778
74.3771
74.2128
74.0821
73.9822
73.9097
73.861
73.8323
73.8193
73.8193
73.8252
73.8401
73.8466
2.86193
-10.8158
-23.0702
-31.0597
-34.2814
-34.2789
-33.5621
-32.335
-30.8033
-29.0587
-27.1722
-25.2153
-23.2435
-21.3352
-19.7514
-18.6027
-17.8378
-17.4213
-17.3276
-17.5364
-17.9804
-19.2661
-21.3621
-23.6622
-26.1334
-28.7394
-31.4406
-34.2024
-36.9939
-39.7889
-42.5742
-45.3257
-47.9868
-50.509
85.7817
87.3552
89.2024
90.9895
92.4195
93.3436
93.8251
93.8438
93.1211
91.471
88.9063
85.5041
81.339
76.4558
70.8441
64.4353
57.0379
48.4363
37.7048
25.4549
6.61583
84.4573
83.1984
82.161
81.3362
80.5017
79.6996
78.9388
78.2147
77.6247
77.1237
76.6479
76.2037
75.797
75.4303
75.1045
74.8201
74.5766
74.3728
74.2064
74.0748
73.9749
73.9031
73.8555
73.828
73.8162
73.8174
73.8243
73.8402
73.8473
-6.68831
-23.2359
-33.1467
-38.3897
-39.14
-38.5661
-37.4229
-35.8563
-34.0478
-32.0918
-30.0301
-27.926
-25.8327
-23.8278
-22.178
-20.9967
-20.2265
-19.8276
-19.7716
-20.0361
-21.0368
-22.7763
-24.7998
-27.0519
-29.4821
-32.0406
-34.6837
-37.3725
-40.0728
-42.757
-45.4121
-48.0152
-50.5088
-52.8463
85.5294
87.1202
89.0033
90.8905
92.5178
93.695
94.4648
94.8669
94.6515
93.5439
91.4531
88.4658
84.6925
80.2086
75.0438
69.1662
62.4793
54.7473
45.7434
34.3201
20.9751
-0.689195
84.1986
83.106
82.2428
81.3589
80.5017
79.6822
78.894
78.2538
77.7101
77.1877
76.6942
76.2372
75.8195
75.4436
75.1103
74.8202
74.5726
74.3659
74.198
74.066
73.9667
73.896
73.8497
73.8235
73.813
73.8155
73.8233
73.8403
73.8481
-20.3777
-36.8293
-43.1608
-44.5343
-44.2374
-43.0363
-41.451
-39.5452
-37.451
-35.2723
-33.0333
-30.7795
-28.5634
-26.4612
-24.745
-23.5312
-22.7564
-22.3763
-22.3591
-23.1814
-24.6181
-26.253
-28.2076
-30.4053
-32.7798
-35.2759
-37.8449
-40.4436
-43.0347
-45.5907
-48.098
-50.5347
-52.8444
-54.9793