/*--------------------------------*- C++ -*----------------------------------*\
  =========                 |
  \\      /  F ield         | OpenFOAM: The Open Source CFD Toolbox
   \\    /   O peration     | Website:  https://openfoam.org
    \\  /    A nd           | Version:  8
     \\/     M anipulation  |
\*---------------------------------------------------------------------------*/
FoamFile
{
    version     2.0;
    format      ascii;
    class       volScalarField;
    location    "1300";
    object      p;
}
// * * * * * * * * * * * * * * * * * * * * * * * * * * * * * * * * * * * * * //

dimensions      [0 2 -2 0 0 0 0];

internalField   nonuniform List<scalar> 
15677
(
84.9482
81.9334
81.9115
82.1372
82.1009
82.0391
81.998
81.9599
81.9194
81.8774
81.8343
81.7905
81.7466
81.7032
81.6648
81.6329
81.6054
81.5816
81.5611
81.5433
81.5278
81.5149
81.5046
81.4964
81.4897
81.4842
81.4797
81.4759
81.4727
81.4701
81.4678
81.4659
81.4642
81.4628
81.4616
82.0241
81.0658
81.584
81.6375
81.5805
81.5795
81.5863
81.5873
81.5864
81.5851
81.5826
81.5783
81.5716
81.5623
81.5514
81.5404
81.5295
81.5189
81.5089
81.4996
81.491
81.4836
81.4774
81.4724
81.4683
81.4648
81.4619
81.4595
81.4574
81.4557
81.4542
81.453
81.4519
81.4509
81.4501
81.489
81.3024
81.504
81.4316
81.4179
81.4301
81.4325
81.4324
81.4328
81.4333
81.4335
81.4336
81.4335
81.4328
81.4317
81.4303
81.4288
81.4273
81.4258
81.4243
81.4231
81.422
81.4211
81.4205
81.4201
81.4197
81.4195
81.4194
81.4193
81.4193
81.4193
81.4193
81.4193
81.4194
81.4194
81.3428
81.3248
81.3658
81.3262
81.3386
81.3423
81.3404
81.3396
81.3393
81.339
81.3389
81.3394
81.3403
81.3418
81.3439
81.3462
81.3489
81.3519
81.3552
81.3588
81.3626
81.3665
81.3701
81.3735
81.3765
81.3792
81.3816
81.3838
81.3858
81.3875
81.389
81.3904
81.3916
81.3927
81.3936
81.205
81.2116
81.2147
81.2067
81.2175
81.2178
81.2186
81.2205
81.2225
81.2249
81.228
81.2322
81.2376
81.2444
81.252
81.2598
81.2681
81.2767
81.2856
81.2948
81.3042
81.3133
81.3217
81.3292
81.3359
81.3418
81.3471
81.3518
81.3559
81.3596
81.3628
81.3657
81.3682
81.3705
81.3723
81.0899
81.0961
81.0955
81.0973
81.1022
81.103
81.1053
81.1077
81.1105
81.1141
81.1189
81.1252
81.1335
81.1444
81.1569
81.17
81.1839
81.1986
81.2137
81.2294
81.2454
81.2609
81.275
81.2876
81.2988
81.3088
81.3177
81.3255
81.3325
81.3386
81.344
81.3488
81.353
81.3567
81.3598
80.9734
80.9773
80.9783
80.9813
80.9839
80.9858
80.9884
80.9911
80.9944
80.9989
81.005
81.0133
81.0246
81.0396
81.0572
81.076
81.0963
81.1178
81.1402
81.1635
81.1874
81.2106
81.2317
81.2507
81.2677
81.2827
81.2961
81.3079
81.3183
81.3276
81.3357
81.3429
81.3492
81.3548
81.3595
80.8365
80.8391
80.8414
80.8441
80.8462
80.849
80.8519
80.8552
80.8595
80.8654
80.8735
80.8847
80.8999
80.9203
80.9447
80.9709
80.9993
81.0294
81.0612
81.0941
81.128
81.1611
81.1912
81.2183
81.2426
81.2641
81.2832
81.3002
81.3152
81.3284
81.3401
81.3504
81.3595
81.3675
81.3741
80.6726
80.6745
80.6772
80.6798
80.6823
80.6856
80.689
80.6933
80.699
80.7067
80.7174
80.7323
80.7527
80.7802
80.8132
80.8488
80.8876
80.929
80.9726
81.018
81.0648
81.1105
81.1523
81.1899
81.2235
81.2535
81.2801
81.3037
81.3245
81.343
81.3592
81.3736
81.3863
81.3975
81.4067
80.4748
80.4763
80.4791
80.482
80.485
80.4887
80.493
80.4985
80.5059
80.516
80.5301
80.5497
80.5767
80.6131
80.657
80.7047
80.7566
80.8122
80.8709
80.9322
80.9955
81.0573
81.1139
81.1649
81.2106
81.2514
81.2876
81.3197
81.3481
81.3733
81.3955
81.4151
81.4324
81.4477
81.4602
80.2354
80.2367
80.2394
80.2428
80.2463
80.2507
80.2561
80.2631
80.2725
80.2857
80.3041
80.3296
80.3648
80.4124
80.47
80.5326
80.601
80.6744
80.7521
80.8333
80.9172
80.9994
81.0748
81.1428
81.2038
81.2582
81.3066
81.3495
81.3876
81.4212
81.451
81.4773
81.5006
81.5211
81.5378
79.9468
79.9479
79.9506
79.9544
79.9586
79.9638
79.9704
79.9792
79.9912
80.0081
80.0316
80.0644
80.1096
80.171
80.2453
80.3263
80.415
80.5103
80.6114
80.7173
80.8269
80.9344
81.0331
81.1223
81.2023
81.2738
81.3375
81.394
81.4442
81.4886
81.5278
81.5626
81.5933
81.6204
81.6424
79.6009
79.6017
79.6042
79.6086
79.6135
79.6198
79.6278
79.6387
79.6538
79.6751
79.7049
79.7464
79.8036
79.8816
79.976
80.0792
80.1925
80.3144
80.444
80.5799
80.7209
80.8593
80.9867
81.1019
81.2054
81.298
81.3805
81.4539
81.519
81.5767
81.6278
81.673
81.7131
81.7484
81.777
79.189
79.1895
79.192
79.1969
79.2028
79.2104
79.2202
79.2335
79.2522
79.2786
79.3158
79.3676
79.4391
79.5365
79.6549
79.7844
79.9268
80.0805
80.244
80.4159
80.5946
80.7704
80.9324
81.0792
81.2113
81.3296
81.4351
81.5291
81.6125
81.6866
81.7521
81.8102
81.8618
81.9073
81.9439
78.7037
78.704
78.7066
78.712
78.7191
78.7281
78.7398
78.756
78.7789
78.8112
78.8569
78.9205
79.0085
79.1284
79.2745
79.4347
79.6111
79.802
80.0055
80.2199
80.4432
80.6633
80.8666
81.0511
81.2174
81.3666
81.4999
81.6187
81.7244
81.8181
81.9013
81.975
82.0406
82.0985
82.1448
78.1386
78.1386
78.1413
78.1473
78.1555
78.1662
78.1801
78.1994
78.2269
78.2659
78.3209
78.3979
78.5044
78.65
78.8275
79.0227
79.2382
79.4718
79.7216
79.9852
80.2605
80.5326
80.7844
81.0135
81.2203
81.4062
81.5725
81.7209
81.853
81.9705
82.0748
82.1673
82.2497
82.3225
82.3804
77.4876
77.4874
77.4901
77.4967
77.5062
77.5186
77.535
77.5576
77.5899
77.6361
77.7015
77.7931
77.9201
78.094
78.3067
78.5412
78.8006
79.0826
79.3849
79.7048
80.0398
80.3719
80.6799
80.9608
81.215
81.4438
81.649
81.8323
81.9958
82.1414
82.2707
82.3856
82.488
82.5786
82.6503
76.7459
76.7454
76.7481
76.7553
76.7661
76.7804
76.7991
76.8252
76.8627
76.9164
76.9929
77.1002
77.2493
77.454
77.7052
77.9829
78.2909
78.6267
78.9877
79.3709
79.7734
80.1735
80.5459
80.8862
81.1951
81.4737
81.724
81.9481
82.1482
82.3266
82.4854
82.6267
82.7527
82.8643
82.952
75.9096
75.9088
75.9114
75.9192
75.9314
75.9475
75.9687
75.9983
76.041
76.1025
76.1903
76.3141
76.4866
76.7243
77.0167
77.3409
77.7016
78.0962
78.5216
78.9748
79.4523
79.9288
80.3736
80.7814
81.1525
81.488
81.7902
82.0613
82.3038
82.5204
82.7134
82.8853
83.0391
83.1751
83.2813
74.9765
74.9753
74.978
74.9864
74.9998
75.0177
75.0413
75.0742
75.122
75.1913
75.2906
75.4313
75.628
75.8998
76.2354
76.6087
77.0255
77.4831
77.9781
78.5073
79.0671
79.6278
80.1532
80.6364
81.0774
81.4773
81.8383
82.1629
82.454
82.7143
82.9468
83.1542
83.34
83.5043
83.6316
73.9461
73.9445
73.9472
73.9561
73.9707
73.9902
74.0159
74.0519
74.1045
74.1812
74.292
74.4494
74.6703
74.9767
75.3566
75.7807
76.2561
76.7798
77.3485
77.959
78.6074
79.2596
79.8732
80.4396
80.9582
81.43
81.8571
82.242
82.5879
82.898
83.1753
83.4232
83.6458
83.8425
83.9935
72.8193
72.8174
72.82
72.8293
72.8449
72.8658
72.8933
72.932
72.9889
73.0726
73.194
73.3675
73.612
73.9526
74.3769
74.8523
75.3874
75.9792
76.6246
77.3202
78.0625
78.8125
79.5212
80.1781
80.7817
81.3327
81.8328
82.2849
82.6922
83.0581
83.3861
83.6798
83.9441
84.1774
84.3547
71.5989
71.5967
71.5991
71.6087
71.6251
71.6471
71.676
71.7169
71.7773
71.867
71.9981
72.1864
72.4533
72.8267
73.294
73.8201
74.4145
75.0749
75.7984
76.5816
77.4214
78.2743
79.084
79.8377
80.533
81.17
81.7501
82.276
82.7511
83.179
83.5633
83.9082
84.2195
84.4938
84.6996
70.2893
70.2866
70.2889
70.2987
70.3157
70.3384
70.3681
70.4104
70.4734
70.568
70.7072
70.9087
71.1957
71.5994
72.1074
72.6818
73.3339
74.0618
74.8628
75.7343
76.6735
77.6326
78.5476
79.4033
80.1961
80.9251
81.5914
82.1974
82.7464
83.2422
83.6884
84.0899
84.4533
84.773
85.0092
68.8963
68.8932
68.8953
68.9051
68.9223
68.9453
68.9753
69.0181
69.0826
69.1805
69.3262
69.5384
69.8427
70.2733
70.8181
71.4372
72.1436
72.9358
73.812
74.7703
75.8087
76.8751
77.8979
78.8592
79.7539
80.5801
81.338
82.0296
82.6581
83.2272
83.7408
84.204
84.6246
84.9936
85.261
67.4272
67.4238
67.4255
67.4351
67.4524
67.4752
67.5047
67.547
67.6117
67.7113
67.8611
68.0814
68.3994
68.8522
69.4287
70.0876
70.8431
71.6946
72.6415
73.6828
74.8178
75.9903
77.1215
78.1901
79.1894
80.1162
80.9697
81.7514
82.4641
83.1112
83.6967
84.2262
84.7088
85.1306
85.4291
65.8905
65.8867
65.8881
65.8974
65.9143
65.9363
65.9646
66.0054
66.0689
66.1683
66.3198
66.5448
66.8722
67.3418
67.944
68.636
69.4338
70.3378
71.3488
72.467
73.6932
74.9682
76.2054
77.3808
78.4854
79.5145
80.4663
81.3412
82.1416
82.8705
83.5317
84.1313
84.6799
85.1573
85.4846
64.2956
64.2914
64.2923
64.3011
64.3173
64.338
64.3642
64.4024
64.4631
64.5603
64.7108
64.9369
65.2691
65.7493
66.3698
67.0872
67.9188
68.8666
69.9328
71.1194
72.4288
73.7994
75.1378
76.4167
77.6251
78.7563
79.8068
80.7762
81.666
82.4789
83.2182
83.8906
84.5088
85.0434
85.3946
62.6529
62.6484
62.6488
62.6569
62.672
62.6908
62.7142
62.7486
62.805
62.8978
63.0444
63.2678
63.5996
64.0837
64.7143
65.4481
66.3037
67.285
68.3956
69.6395
71.0214
72.4781
73.9102
75.2869
76.5948
77.8249
78.9723
80.0353
81.0146
81.912
82.7302
83.4765
84.1657
84.7568
85.1214
60.9719
60.967
60.9668
60.9739
60.9875
61.0038
61.0235
61.0529
61.1034
61.1897
61.3295
61.5462
61.8723
62.3533
62.9849
63.7251
64.5937
65.5964
66.7387
68.0265
69.4672
70.9969
72.511
73.9755
75.3747
76.698
77.9383
79.0921
80.1585
81.1384
82.0334
82.852
83.6122
84.257
84.6174
81.4601
81.4584
81.4567
81.455
81.4535
81.4519
81.4504
81.449
81.4476
81.4463
81.445
81.4438
81.4427
81.4418
81.4409
81.4401
81.4394
81.4387
81.4382
81.4377
81.4372
81.4368
81.4492
81.4482
81.4472
81.4462
81.4452
81.4442
81.4432
81.4423
81.4414
81.4405
81.4397
81.4389
81.4381
81.4374
81.4368
81.4362
81.4357
81.4352
81.4348
81.4344
81.4341
81.4338
81.4197
81.4201
81.4204
81.4207
81.4211
81.4214
81.4216
81.4219
81.4221
81.4223
81.4225
81.4226
81.4227
81.4228
81.4228
81.4228
81.4228
81.4228
81.4227
81.4227
81.4226
81.4225
81.395
81.3967
81.3984
81.4
81.4016
81.4031
81.4046
81.406
81.4073
81.4085
81.4097
81.4107
81.4116
81.4124
81.413
81.4135
81.414
81.4143
81.4145
81.4147
81.4148
81.4148
81.3751
81.3782
81.3814
81.3844
81.3874
81.3902
81.393
81.3956
81.3981
81.4004
81.4026
81.4046
81.4063
81.4077
81.409
81.41
81.4108
81.4114
81.4119
81.4122
81.4124
81.4124
81.3642
81.369
81.3737
81.3784
81.3829
81.3873
81.3914
81.3954
81.3991
81.4026
81.4058
81.4087
81.4113
81.4134
81.4151
81.4165
81.4176
81.4184
81.4189
81.4193
81.4194
81.4193
81.366
81.3726
81.3793
81.3858
81.3921
81.3981
81.4039
81.4093
81.4144
81.4191
81.4234
81.4273
81.4305
81.4332
81.4354
81.437
81.4382
81.4391
81.4395
81.4397
81.4395
81.4391
81.3833
81.3921
81.4011
81.4099
81.4183
81.4263
81.4339
81.441
81.4476
81.4536
81.4591
81.4639
81.4679
81.471
81.4735
81.4752
81.4764
81.477
81.4772
81.4769
81.4762
81.4751
81.4194
81.4308
81.4426
81.4541
81.4651
81.4755
81.4852
81.4942
81.5026
81.5101
81.5168
81.5225
81.5272
81.5307
81.5332
81.5349
81.5357
81.5359
81.5354
81.5344
81.5328
81.5307
81.4774
81.492
81.5074
81.5222
81.5363
81.5495
81.5618
81.5731
81.5834
81.5926
81.6006
81.6073
81.6125
81.6162
81.6187
81.62
81.6202
81.6196
81.6181
81.616
81.613
81.6094
81.5607
81.5793
81.5989
81.6179
81.6357
81.6523
81.6677
81.6817
81.6942
81.7053
81.7147
81.7224
81.728
81.7318
81.7339
81.7345
81.7338
81.7319
81.7291
81.7253
81.7205
81.7148
81.6727
81.696
81.721
81.745
81.7674
81.7881
81.8071
81.8243
81.8395
81.8527
81.8636
81.8722
81.8783
81.8818
81.8833
81.8828
81.8806
81.877
81.8722
81.8662
81.859
81.8506
81.8164
81.8456
81.8771
81.9072
81.9352
81.9609
81.9844
82.0053
82.0236
82.0391
82.0518
82.0613
82.0675
82.0707
82.071
82.069
82.0649
82.0589
82.0515
82.0426
82.0322
82.0203
81.9948
82.031
82.0705
82.1082
82.143
82.1748
82.2035
82.2289
82.2508
82.2691
82.2836
82.2941
82.3003
82.3026
82.3015
82.2973
82.2906
82.2817
82.2708
82.2584
82.2438
82.2275
82.2099
82.2547
82.304
82.3509
82.394
82.4331
82.4681
82.4989
82.5252
82.5467
82.5633
82.5748
82.5809
82.582
82.5789
82.572
82.562
82.5492
82.5341
82.5171
82.4975
82.4757
82.463
82.5183
82.5797
82.6378
82.6909
82.7389
82.7817
82.8189
82.8503
82.8757
82.8948
82.9073
82.9131
82.9128
82.9071
82.8969
82.8827
82.8652
82.845
82.8224
82.7967
82.7683
82.7543
82.8223
82.8984
82.9703
83.0356
83.0945
83.1467
83.1918
83.2296
83.2596
83.2816
83.2954
83.3008
83.2986
83.2898
83.2755
83.2564
83.2332
83.2068
83.1775
83.1446
83.1081
83.082
83.1655
83.2598
83.3485
83.4289
83.5011
83.5649
83.6196
83.6651
83.7008
83.7266
83.742
83.747
83.7427
83.7304
83.7112
83.6862
83.6563
83.6225
83.5854
83.5438
83.4979
83.4429
83.5453
83.6618
83.7711
83.87
83.9586
84.0366
84.1033
84.1583
84.2013
84.2318
84.2495
84.2543
84.2477
84.2313
84.2065
84.1748
84.1371
84.0948
84.0485
83.9969
83.9401
83.8312
83.9568
84.1006
84.2351
84.3567
84.4654
84.5609
84.6425
84.7095
84.7616
84.7984
84.8192
84.8243
84.8154
84.7946
84.7636
84.7243
84.6778
84.6257
84.569
84.506
84.4366
84.2388
84.3926
84.5698
84.7352
84.8846
85.0183
85.1355
85.2355
85.3177
85.3815
85.4264
85.4518
85.4579
85.447
85.4215
85.3839
85.3361
85.2798
85.2167
85.1482
85.0722
84.9886
84.6547
84.8428
85.0609
85.2639
85.4475
85.6118
85.756
85.8791
85.9804
86.0591
86.1147
86.1466
86.155
86.1427
86.1128
86.0681
86.0111
85.9439
85.8687
85.7871
85.6966
85.5969
85.0647
85.2943
85.5621
85.8111
86.0364
86.2384
86.4159
86.5679
86.6933
86.7912
86.8611
86.9021
86.9146
86.9019
86.8679
86.8161
86.7494
86.6706
86.5821
86.486
86.3796
86.262
85.4517
85.731
86.059
86.3635
86.6399
86.888
87.1068
87.2946
87.4503
87.5728
87.6613
87.715
87.7341
87.7227
87.6856
87.6269
87.5503
87.4592
87.3564
87.2446
87.1208
86.9837
85.7951
86.1336
86.5339
86.9054
87.2435
87.548
87.8173
88.0495
88.2432
88.397
88.5099
88.5808
88.61
88.6023
88.5635
88.4986
88.4123
88.3084
88.1906
88.0621
87.9195
87.7611
86.0713
86.4791
86.9658
87.4175
87.8299
88.2027
88.5338
88.8207
89.0617
89.255
89.3994
89.4934
89.5372
89.5365
89.4981
89.4285
89.3329
89.2163
89.0829
88.9367
88.7742
88.5929
86.2542
86.7416
87.3305
87.8772
88.3783
88.8332
89.2391
89.593
89.8924
90.1353
90.32
90.4447
90.509
90.5195
90.4848
90.4123
90.3087
90.1797
90.0306
89.8662
89.6827
89.477
86.3154
86.8922
87.6014
88.26
88.8661
89.4189
89.9147
90.3497
90.7207
91.0251
91.2607
91.425
91.5172
91.5447
91.5178
91.4455
91.3357
91.1954
91.0308
90.8479
90.6429
90.4117
86.2236
86.8967
87.7452
88.5343
89.2636
89.932
90.5348
91.0673
91.5256
91.906
92.2057
92.4211
92.5505
92.6024
92.5888
92.5206
92.4073
92.2572
92.078
91.8767
91.6497
91.392
85.9413
86.7206
87.7296
88.6718
89.5463
90.3518
91.082
91.7307
92.2931
92.7648
93.1426
93.4219
93.5994
93.6845
93.6914
93.6328
93.5201
93.3631
93.1711
92.9522
92.7036
92.4202
81.4364
81.436
81.4357
81.4354
81.4352
81.435
81.4335
81.4331
81.4328
81.4325
81.4322
81.432
81.4223
81.422
81.4217
81.4214
81.4211
81.4207
81.4148
81.4145
81.4143
81.4139
81.4135
81.413
81.4124
81.4123
81.4121
81.4117
81.4111
81.4104
81.4193
81.4194
81.4192
81.4187
81.418
81.417
81.439
81.4393
81.4391
81.4386
81.4377
81.4364
81.4747
81.4753
81.4753
81.4747
81.4736
81.4718
81.53
81.531
81.5311
81.5304
81.529
81.5266
81.6082
81.6097
81.61
81.6093
81.6075
81.6044
81.7128
81.7151
81.7156
81.7148
81.7125
81.7085
81.8475
81.8507
81.8515
81.8506
81.8478
81.8427
82.0158
82.0202
82.0214
82.0204
82.017
82.0104
82.2213
82.2271
82.2289
82.2277
82.2236
82.2153
82.4673
82.475
82.4773
82.476
82.4711
82.4608
82.7572
82.767
82.7701
82.7687
82.7627
82.75
83.0938
83.1063
83.1103
83.1087
83.1017
83.086
83.4799
83.4955
83.5004
83.4987
83.4904
83.4713
83.9176
83.937
83.9431
83.9412
83.9315
83.9084
84.4089
84.4327
84.4401
84.4381
84.4268
84.399
84.9551
84.984
84.9928
84.9907
84.9776
84.9444
85.5569
85.5916
85.6022
85.5999
85.5848
85.5454
86.2147
86.2562
86.2686
86.2662
86.249
86.2024
86.9282
86.9776
86.992
86.9895
86.9699
86.9152
87.6967
87.7549
87.7716
87.7689
87.7467
87.683
88.5189
88.5871
88.6063
88.6035
88.5785
88.5044
89.3925
89.472
89.494
89.491
89.463
89.3773
90.316
90.4082
90.4331
90.4299
90.3988
90.3001
91.2842
91.3905
91.4184
91.4151
91.3806
91.2677
92.3005
92.4206
92.4522
92.4488
92.4104
92.2834
81.4349
81.4348
81.4348
81.4348
81.4349
81.435
81.4352
81.4355
81.4358
81.4362
81.4367
81.4373
81.438
81.4388
81.4396
81.4406
81.4416
81.4426
81.4438
81.4449
81.4462
81.4475
81.4318
81.4317
81.4315
81.4314
81.4313
81.4313
81.4312
81.4312
81.4313
81.4314
81.4315
81.4317
81.4319
81.4322
81.4326
81.433
81.4334
81.4339
81.4344
81.435
81.4355
81.4362
81.4203
81.4199
81.4195
81.419
81.4185
81.4179
81.4173
81.4167
81.416
81.4153
81.4145
81.4137
81.4128
81.4119
81.4111
81.4102
81.4093
81.4084
81.4076
81.4067
81.4059
81.4051
81.4125
81.4118
81.4111
81.4103
81.4094
81.4084
81.4073
81.4061
81.4047
81.4032
81.4015
81.3997
81.3977
81.3957
81.3937
81.3916
81.3894
81.3873
81.3851
81.3828
81.3806
81.3783
81.4097
81.409
81.4081
81.407
81.4058
81.4044
81.4028
81.401
81.3989
81.3966
81.394
81.3911
81.388
81.3848
81.3814
81.378
81.3744
81.3708
81.3671
81.3633
81.3595
81.3557
81.4163
81.4155
81.4145
81.4134
81.4119
81.4102
81.4082
81.4058
81.4031
81.4
81.3965
81.3925
81.3882
81.3837
81.3789
81.374
81.3688
81.3636
81.3581
81.3526
81.347
81.3415
81.4356
81.435
81.4342
81.4331
81.4316
81.4297
81.4274
81.4246
81.4213
81.4175
81.4131
81.408
81.4024
81.3964
81.3901
81.3835
81.3766
81.3695
81.3621
81.3545
81.3468
81.3393
81.471
81.471
81.4706
81.4697
81.4683
81.4665
81.4641
81.461
81.4573
81.4528
81.4474
81.4412
81.4343
81.4268
81.4187
81.4102
81.4013
81.3919
81.3823
81.3722
81.362
81.3522
81.5261
81.5269
81.5272
81.5269
81.5259
81.5244
81.522
81.5189
81.5148
81.5097
81.5035
81.4962
81.4878
81.4785
81.4685
81.4578
81.4465
81.4346
81.4221
81.4091
81.3958
81.3831
81.6042
81.6063
81.6078
81.6084
81.6082
81.6072
81.6052
81.6022
81.598
81.5925
81.5855
81.5769
81.567
81.5558
81.5436
81.5303
81.5161
81.5011
81.4852
81.4686
81.4516
81.4354
81.709
81.713
81.716
81.718
81.719
81.719
81.7178
81.7152
81.7111
81.7053
81.6976
81.6878
81.6761
81.6628
81.648
81.6317
81.6142
81.5954
81.5755
81.5545
81.5329
81.5125
81.844
81.8505
81.8558
81.8597
81.8625
81.864
81.8639
81.8621
81.8584
81.8525
81.8442
81.8332
81.8196
81.8039
81.7861
81.7663
81.7448
81.7215
81.6967
81.6704
81.6432
81.6177
82.013
82.0227
82.031
82.0376
82.0427
82.0462
82.0478
82.0473
82.0443
82.0386
82.0298
82.0175
82.002
81.9835
81.9622
81.9383
81.912
81.8834
81.8527
81.8198
81.7858
81.7542
82.2194
82.2334
82.2455
82.2554
82.2636
82.2699
82.2738
82.275
82.2732
82.268
82.2588
82.2453
82.2275
82.2059
82.1806
82.1518
82.1198
82.0848
82.0469
82.0062
81.9638
81.9248
82.4668
82.486
82.5029
82.5172
82.5293
82.539
82.546
82.5496
82.5494
82.545
82.5356
82.5208
82.5005
82.4752
82.4451
82.4106
82.3717
82.329
82.2824
82.2321
82.1796
82.1317
82.7585
82.7842
82.8069
82.8264
82.8435
82.8576
82.8682
82.8749
82.8768
82.8735
82.864
82.8478
82.8246
82.795
82.7593
82.7178
82.6708
82.6187
82.5616
82.4996
82.4347
82.3761
83.0974
83.1309
83.1607
83.1866
83.2095
83.2289
83.2441
83.2545
83.2592
83.2573
83.2478
83.2299
83.2033
83.1686
83.1261
83.0762
83.0193
82.9558
82.8859
82.8098
82.7298
82.6581
83.4864
83.529
83.5672
83.6006
83.6306
83.6563
83.677
83.6918
83.6996
83.6994
83.6899
83.6699
83.6391
83.5981
83.5474
83.4873
83.4183
83.3409
83.2555
83.1621
83.0636
82.9761
83.9276
83.981
84.0289
84.0712
84.1093
84.1425
84.1695
84.1894
84.2008
84.2025
84.1927
84.17
84.1339
84.0852
84.0242
83.9515
83.8677
83.7734
83.6691
83.5546
83.4335
83.3267
84.4231
84.4889
84.548
84.6004
84.6479
84.6895
84.7237
84.7493
84.7646
84.768
84.7576
84.7312
84.6884
84.6299
84.5562
84.4681
84.3661
84.251
84.1234
83.9833
83.8345
83.7043
84.9741
85.054
85.1258
85.1897
85.2478
85.2988
85.341
85.3728
85.3922
85.3971
85.3851
85.3537
85.3021
85.2312
85.1417
85.0344
84.9099
84.7694
84.6134
84.4419
84.2593
84.1006
85.5815
85.6773
85.7632
85.8399
85.9098
85.9712
86.0221
86.0604
86.0838
86.0896
86.0748
86.0364
85.9734
85.8868
85.7774
85.6462
85.494
85.3221
85.1314
84.9217
84.698
84.5047
86.2457
86.3591
86.4607
86.5516
86.6343
86.7069
86.767
86.8118
86.8387
86.8443
86.8249
86.7769
86.6989
86.5923
86.458
86.297
86.1107
85.9004
85.6672
85.4112
85.1375
84.9025
86.9664
87.0992
87.218
87.3242
87.4208
87.5052
87.5746
87.6258
87.6552
87.6589
87.6324
87.5712
87.4737
87.3416
87.176
86.9783
86.7499
86.4925
86.2078
85.8957
85.5616
85.2766
87.7427
87.8968
88.034
88.1566
88.2679
88.3645
88.4431
88.4998
88.5302
88.5297
88.4926
88.4136
88.2908
88.1265
87.9219
87.6787
87.3988
87.0843
86.7371
86.3576
85.951
85.6068
88.5736
88.7504
88.9074
89.0473
89.1736
89.2825
89.3697
89.4305
89.4598
89.4517
89.3996
89.2969
89.1416
88.9366
88.6836
88.3846
88.0419
87.6582
87.2361
86.776
86.2829
85.8694
89.4568
89.6579
89.8355
89.9933
90.1349
90.2556
90.3502
90.4131
90.4381
90.4181
90.3451
90.2113
90.0145
89.7587
89.4459
89.0788
88.6602
88.1936
87.6821
87.1267
86.5315
86.0383
90.3906
90.6171
90.816
90.992
91.1485
91.2799
91.38
91.4421
91.4585
91.4209
91.3196
91.1456
90.8966
90.578
90.1922
89.7427
89.2331
88.6678
88.0507
87.3831
86.6679
86.0853
91.37
91.6231
91.8437
92.0376
92.2083
92.3487
92.4516
92.5088
92.5112
92.4486
92.3098
92.0841
91.7697
91.3735
90.899
90.3506
89.7329
89.051
88.3102
87.5121
86.658
85.9793
92.3976
92.6764
92.9184
93.1293
93.3122
93.4589
93.5604
93.6071
93.5883
93.4919
93.3047
93.0146
92.6206
92.1314
91.5514
90.8854
90.1392
89.3197
88.4334
87.4823
86.4684
85.6838
81.4487
81.4497
81.4508
81.4522
81.4538
81.4557
81.4579
81.4606
81.4639
81.4679
81.4727
81.4787
81.4862
81.4957
81.5078
81.5225
81.5395
81.5594
81.5825
81.6094
81.6409
81.6787
81.7217
81.7654
81.809
81.8519
81.8938
81.9343
81.9724
82.0135
82.0752
82.1115
81.8858
81.9078
84.9226
81.4368
81.4374
81.4381
81.4389
81.4398
81.4409
81.4422
81.4437
81.4456
81.4479
81.4507
81.4541
81.4584
81.4637
81.4703
81.478
81.4865
81.4958
81.5057
81.516
81.5264
81.5368
81.5457
81.5521
81.5562
81.5585
81.5598
81.5606
81.5595
81.5527
81.5537
81.6107
81.5572
81.039
81.9972
81.4045
81.4042
81.4039
81.4035
81.4031
81.4027
81.4023
81.4018
81.4013
81.4009
81.4005
81.4001
81.3999
81.3998
81.3999
81.4003
81.4008
81.4015
81.4023
81.4032
81.4039
81.4045
81.4047
81.4045
81.4042
81.4038
81.4032
81.4028
81.4029
81.4004
81.3883
81.4019
81.4743
81.2727
81.4592
81.3765
81.3753
81.3739
81.3723
81.3705
81.3684
81.3661
81.3636
81.3607
81.3575
81.3539
81.35
81.3457
81.341
81.3361
81.3312
81.3266
81.3224
81.3186
81.3151
81.3121
81.3094
81.3074
81.3061
81.3055
81.3053
81.3055
81.3058
81.3066
81.3085
81.3048
81.2923
81.332
81.2909
81.3089
81.3524
81.3501
81.3475
81.3444
81.341
81.3372
81.3328
81.328
81.3225
81.3163
81.3094
81.3017
81.2931
81.2836
81.2733
81.2626
81.2523
81.2424
81.2329
81.2238
81.2152
81.2069
81.1995
81.1938
81.1893
81.186
81.1835
81.1814
81.1795
81.1787
81.1784
81.1676
81.1755
81.1725
81.1658
81.3364
81.3328
81.3285
81.3236
81.3182
81.312
81.3051
81.2973
81.2886
81.2787
81.2676
81.2552
81.2413
81.2259
81.209
81.1917
81.1748
81.1584
81.1427
81.1279
81.1139
81.1006
81.0892
81.0804
81.0738
81.0688
81.0651
81.0623
81.0598
81.0575
81.0567
81.0517
81.0499
81.0506
81.0444
81.3319
81.3266
81.3203
81.3131
81.3051
81.2961
81.2859
81.2744
81.2615
81.247
81.2307
81.2124
81.192
81.1694
81.1446
81.1192
81.0945
81.0708
81.0481
81.0268
81.007
80.9885
80.9728
80.9611
80.9524
80.9461
80.9415
80.9381
80.9354
80.9328
80.9308
80.9283
80.9253
80.9242
80.9203
81.3418
81.3343
81.3253
81.3152
81.3039
81.2912
81.2768
81.2606
81.2424
81.222
81.199
81.1732
81.1445
81.1127
81.0779
81.0423
81.0078
80.9746
80.9431
80.9135
80.8862
80.8609
80.8397
80.824
80.8125
80.8042
80.7981
80.7937
80.7903
80.7874
80.7847
80.7825
80.7798
80.7775
80.7749
81.369
81.3587
81.3463
81.3324
81.3168
81.2993
81.2795
81.2573
81.2322
81.2041
81.1725
81.1371
81.0977
81.0541
81.0065
80.9577
80.9106
80.8653
80.8224
80.7824
80.7455
80.7115
80.6831
80.6622
80.6469
80.6359
80.6281
80.6223
80.618
80.6145
80.6112
80.6087
80.606
80.6033
80.6015
81.4166
81.4027
81.3859
81.3671
81.3461
81.3224
81.2957
81.2657
81.2319
81.1939
81.1514
81.1037
81.0507
80.992
80.928
80.8626
80.7994
80.7388
80.6816
80.6282
80.5792
80.5342
80.4968
80.4692
80.4492
80.4348
80.4245
80.417
80.4115
80.4072
80.4034
80.4004
80.3974
80.3947
80.3932
81.4877
81.4692
81.4469
81.4219
81.3939
81.3624
81.327
81.2871
81.2423
81.1919
81.1354
81.0723
81.0021
80.9244
80.8398
80.7535
80.6701
80.5905
80.5152
80.4452
80.3812
80.3223
80.2737
80.2379
80.2119
80.1932
80.1798
80.1702
80.1632
80.1578
80.1533
80.1498
80.1464
80.1437
80.1424
81.5853
81.5612
81.532
81.4992
81.4625
81.4212
81.3748
81.3226
81.2639
81.1981
81.1243
81.0418
80.9502
80.8489
80.7388
80.6266
80.5183
80.415
80.3177
80.2272
80.1446
80.0689
80.0064
79.9605
79.9272
79.9033
79.8862
79.874
79.8652
79.8586
79.8533
79.8492
79.8453
79.8426
79.8416
81.7122
81.6813
81.6434
81.601
81.5536
81.5002
81.4402
81.3728
81.297
81.212
81.1168
81.0107
80.8927
80.7625
80.6212
80.4774
80.3389
80.2069
80.0827
79.9676
79.8626
79.7666
79.6875
79.6294
79.5873
79.5572
79.5357
79.5204
79.5095
79.5014
79.4951
79.4902
79.4858
79.4832
79.4825
81.871
81.8316
81.7833
81.7291
81.6684
81.6003
81.5237
81.4376
81.341
81.2327
81.1116
80.9766
80.8268
80.6617
80.4827
80.301
80.1262
79.96
79.8039
79.6594
79.5279
79.4079
79.3092
79.2368
79.1844
79.1468
79.1201
79.1013
79.0879
79.0781
79.0705
79.0645
79.0596
79.057
79.0566
82.0633
82.0138
81.9527
81.8842
81.8075
81.7215
81.6248
81.5163
81.3945
81.2582
81.1059
80.9364
80.7486
80.5419
80.3183
80.0917
79.8742
79.6678
79.4743
79.2955
79.1332
78.9854
78.864
78.7751
78.7108
78.6648
78.6321
78.6091
78.5928
78.581
78.572
78.5649
78.5595
78.5568
78.5566
82.2898
82.2283
82.1519
82.0662
81.9704
81.8629
81.7422
81.6069
81.4552
81.2856
81.0964
80.886
80.6534
80.3979
80.122
79.8431
79.5761
79.3232
79.0867
78.8687
78.6712
78.4917
78.3447
78.2371
78.1594
78.1039
78.0646
78.037
78.0176
78.0036
77.9929
77.9847
77.9786
77.976
77.976
82.5501
82.4744
82.3798
82.2736
82.1551
82.0222
81.8732
81.7062
81.5193
81.3105
81.078
80.82
80.5352
80.2232
79.8871
79.5481
79.2245
78.9189
78.6337
78.3715
78.1347
77.9199
77.7443
77.6162
77.5238
77.4579
77.4114
77.3789
77.3562
77.3398
77.3274
77.3178
77.3112
77.3085
77.3088
82.8417
82.7495
82.6336
82.5033
82.3581
82.1954
82.0131
81.8091
81.5812
81.327
81.0444
80.7315
80.3869
80.0102
79.6056
79.1989
78.8118
78.4472
78.108
77.797
77.5167
77.2632
77.0567
76.9064
76.7982
76.7213
76.6672
76.6296
76.6034
76.5846
76.5703
76.5594
76.5522
76.5495
76.55
83.1605
83.0493
82.9084
82.7501
82.5737
82.3764
82.1557
81.909
81.6338
81.3274
80.9875
80.6121
80.1997
79.7502
79.269
78.7869
78.3295
77.9001
77.502
77.138
76.811
76.5161
76.2765
76.1027
75.978
75.8896
75.8277
75.7849
75.7552
75.7339
75.7178
75.7056
75.6978
75.6951
75.6959
83.4997
83.3669
83.1972
83.0064
82.7942
82.5572
82.2923
81.9967
81.6677
81.3021
80.8976
80.4518
79.9637
79.4334
78.8676
78.3029
77.7691
77.2699
76.8085
76.3882
76.0118
75.6735
75.3997
75.2016
75.0599
74.9599
74.8903
74.8423
74.8092
74.7856
74.7677
74.7542
74.7459
74.7432
74.7443
83.8501
83.693
83.4905
83.2624
83.0093
82.727
82.412
82.0613
81.6715
81.2396
80.7629
80.2392
79.6676
79.0487
78.3911
77.7375
77.1221
76.5488
76.021
75.5419
75.1145
74.7317
74.4231
74.2006
74.0421
73.9307
73.8535
73.8007
73.7646
73.7388
73.7193
73.7047
73.6958
73.6931
73.6946
84.1992
84.0153
83.7756
83.5053
83.206
82.8726
82.5015
82.089
81.6318
81.1265
80.5703
79.9613
79.2989
78.5846
77.8288
77.081
76.3801
75.7298
75.1336
74.5946
74.1156
73.6882
73.3452
73.099
72.9243
72.8021
72.718
72.6609
72.622
72.5945
72.5735
72.5579
72.5486
72.546
72.5479
84.5317
84.3186
84.0372
83.7195
83.3685
82.9784
82.5449
82.0643
81.5329
80.9473
80.3048
79.6038
78.8444
78.0288
77.1698
76.3241
75.5353
74.8067
74.1415
73.5427
73.0129
72.5421
72.1661
71.8975
71.7078
71.5759
71.4857
71.425
71.384
71.355
71.333
71.3166
71.3069
71.3045
71.3068
84.8283
84.5841
84.2569
83.8865
83.4785
83.0259
82.5242
81.9693
81.3575
80.6854
79.9506
79.1518
78.2901
77.3688
76.4035
75.458
74.5806
73.774
73.0411
72.3843
71.8058
71.2942
70.8876
70.5986
70.3957
70.2555
70.1604
70.097
70.0547
70.0248
70.0021
69.985
69.9752
69.9729
69.9756
85.0669
84.7906
84.4134
83.9852
83.515
82.9947
82.4192
81.7845
81.0867
80.3228
79.4905
78.5896
77.622
76.5926
75.5196
74.4747
73.5101
72.6281
71.8304
71.119
70.4954
69.9467
69.5131
69.2065
68.9927
68.846
68.7475
68.6826
68.6396
68.6096
68.5865
68.5692
68.5593
68.5573
68.5603
85.2214
84.9133
84.4825
83.9917
83.4546
82.8619
82.2079
81.4887
80.7006
79.8407
78.9076
77.9019
76.8266
75.6888
74.5093
73.3675
72.3196
71.3665
70.5091
69.7482
69.0845
68.5037
68.0475
67.727
67.5051
67.3541
67.2537
67.1886
67.1461
67.1164
67.0936
67.0763
67.0666
67.0648
67.0682
85.2632
84.9252
84.438
83.8805
83.2728
82.6039
81.8678
81.0605
80.1789
79.2205
78.1848
77.0735
75.8913
74.6471
73.3649
72.1316
71.0063
69.9888
69.0785
68.2749
67.5777
66.9709
66.4976
66.1674
65.9405
65.7876
65.6874
65.6234
65.5823
65.5539
65.5318
65.5149
65.5055
65.5041
65.5079
85.1596
84.7964
84.2511
83.6234
82.9422
82.1947
81.3741
80.4771
79.5007
78.4433
77.3054
76.0901
74.8042
73.4585
72.0804
70.7635
69.5696
68.4963
67.5418
66.704
65.9809
65.3554
64.8711
64.5358
64.3076
64.1556
64.0574
63.9961
63.9576
63.9312
63.9104
63.8942
63.8853
63.8843
63.8884
84.8731
84.495
83.8921
83.1927
82.437
81.6102
80.7047
79.7179
78.6476
77.4931
76.2559
74.941
73.5569
72.1172
70.6528
69.263
68.0113
66.8931
65.9047
65.0424
64.3025
63.6663
63.1777
62.8426
62.6167
62.4685
62.3745
62.3174
62.2826
62.259
62.2401
62.2249
62.2167
62.2162
62.2207
84.3571
83.9812
83.3233
82.5519
81.7231
80.8189
79.8305
78.7562
77.5949
76.3472
75.0167
73.6101
72.1379
70.6159
69.0781
67.629
66.3329
65.1826
64.1722
63.2963
62.5495
61.9117
61.4258
61.096
60.8766
60.7349
60.6473
60.596
60.5661
60.5461
60.5297
60.516
60.5087
60.5089
60.5137
59.0756
59.0708
59.0699
59.0759
59.0876
59.1008
59.1158
59.1389
59.1814
59.2582
59.3872
59.592
59.9058
60.3751
60.998
61.7339
62.6044
63.6165
64.7781
66.0976
67.5856
69.1788
70.7692
72.3199
73.812
75.2307
76.565
77.8087
78.9593
80.0174
80.9845
81.8711
82.6986
83.3877
83.7226
56.9561
56.9508
56.9491
56.9538
56.9631
56.9719
56.9803
56.9945
57.0257
57.089
57.202
57.388
57.6808
58.1263
58.7255
59.4411
60.2954
61.2974
62.4571
63.7863
65.2994
66.9362
68.586
70.2064
71.772
73.2634
74.6684
75.9816
77.2019
78.3305
79.3682
80.3271
81.2327
81.9771
82.2626
54.8306
54.8249
54.8222
54.825
54.8311
54.8346
54.8354
54.839
54.8568
54.9036
54.9961
55.1577
55.4213
55.8312
56.3915
57.0693
57.8868
58.8545
59.9849
61.293
62.7964
64.4373
66.1018
67.7419
69.3316
70.8553
72.3047
73.6758
74.9664
76.1741
77.2961
78.3429
79.3431
80.1582
80.4092
52.7257
52.7197
52.7159
52.7168
52.7194
52.7174
52.7098
52.702
52.7049