/*--------------------------------*- C++ -*----------------------------------*\
  =========                 |
  \\      /  F ield         | OpenFOAM: The Open Source CFD Toolbox
   \\    /   O peration     | Website:  https://openfoam.org
    \\  /    A nd           | Version:  8
     \\/     M anipulation  |
\*---------------------------------------------------------------------------*/
FoamFile
{
    version     2.0;
    format      ascii;
    class       surfaceScalarField;
    location    "1300";
    object      phi;
}
// * * * * * * * * * * * * * * * * * * * * * * * * * * * * * * * * * * * * * //

dimensions      [0 3 -1 0 0 0 0];

internalField   nonuniform List<scalar> 
31053
(
1.74442e-06
1.16443e-05
1.3638e-06
1.57479e-05
1.26637e-06
1.77356e-05
1.20195e-06
2.03091e-05
1.13138e-06
2.3307e-05
1.05797e-06
2.67437e-05
9.81273e-07
3.06882e-05
9.00983e-07
3.52155e-05
8.17469e-07
4.04109e-05
7.31569e-07
4.63728e-05
6.44583e-07
5.32141e-05
5.58245e-07
6.10644e-05
4.74489e-07
7.00731e-05
3.95374e-07
8.04113e-05
3.34379e-07
7.62515e-05
2.84152e-07
7.62407e-05
2.42495e-07
7.62321e-05
2.07723e-07
7.62252e-05
1.78514e-07
7.62197e-05
1.53833e-07
7.62152e-05
1.32869e-07
7.62114e-05
1.16403e-07
6.95986e-05
1.03434e-07
6.25569e-05
9.30463e-08
5.62281e-05
8.46064e-08
5.05398e-05
7.7668e-08
4.54271e-05
7.19041e-08
4.08317e-05
6.7075e-08
3.67013e-05
6.29965e-08
3.29887e-05
5.95301e-08
2.96517e-05
5.6565e-08
2.66523e-05
5.40166e-08
2.39564e-05
5.18146e-08
2.15331e-05
4.99049e-08
1.9355e-05
1.73972e-05
4.82423e-08
9.63763e-07
1.06805e-05
1.52683e-06
1.51848e-05
1.51044e-06
1.7752e-05
1.45248e-06
2.03671e-05
1.39953e-06
2.336e-05
1.34387e-06
2.67993e-05
1.28319e-06
3.07489e-05
1.21701e-06
3.52817e-05
1.1451e-06
4.04829e-05
1.06745e-06
4.64505e-05
9.84431e-07
5.32971e-05
8.9674e-07
6.11521e-05
8.0542e-07
7.01644e-05
7.11577e-07
8.05051e-05
6.31814e-07
7.63312e-05
5.60369e-07
7.63121e-05
4.96438e-07
7.62961e-05
4.39248e-07
7.62824e-05
3.88096e-07
7.62708e-05
3.42355e-07
7.62609e-05
3.01478e-07
7.62523e-05
2.6806e-07
6.9632e-05
2.40956e-07
6.2584e-05
2.18782e-07
5.62503e-05
2.0049e-07
5.05581e-05
1.85289e-07
4.54423e-05
1.72565e-07
4.08444e-05
1.61846e-07
3.6712e-05
1.5276e-07
3.29978e-05
1.45016e-07
2.96595e-05
1.38379e-07
2.6659e-05
1.32666e-07
2.39621e-05
1.27724e-07
2.15381e-05
1.23434e-07
1.93593e-05
1.74009e-05
1.19691e-07
5.93704e-07
1.00868e-05
1.21001e-06
1.45685e-05
1.33836e-06
1.76236e-05
1.32852e-06
2.03769e-05
1.29821e-06
2.33903e-05
1.26206e-06
2.68355e-05
1.22167e-06
3.07893e-05
1.17651e-06
3.53269e-05
1.12558e-06
4.05338e-05
1.06798e-06
4.65081e-05
1.00303e-06
5.33621e-05
9.30534e-07
6.12246e-05
8.50952e-07
7.0244e-05
7.65355e-07
8.05907e-05
6.89873e-07
7.64067e-05
6.20009e-07
7.6382e-05
5.55611e-07
7.63605e-05
4.96443e-07
7.63416e-05
4.42251e-07
7.6325e-05
3.92793e-07
7.63104e-05
3.47817e-07
7.62973e-05
3.10371e-07
6.96695e-05
2.79511e-07
6.26149e-05
2.53937e-07
5.62758e-05
2.32625e-07
5.05794e-05
2.14769e-07
4.54601e-05
1.99729e-07
4.08595e-05
1.86996e-07
3.67247e-05
1.76162e-07
3.30086e-05
1.66901e-07
2.96687e-05
1.58949e-07
2.66669e-05
1.52093e-07
2.39689e-05
1.46159e-07
2.1544e-05
1.41007e-07
1.93644e-05
1.74054e-05
1.3652e-07
4.32149e-07
9.65463e-06
9.71597e-07
1.4029e-05
1.18865e-06
1.74066e-05
1.2254e-06
2.03402e-05
1.21262e-06
2.3403e-05
1.18546e-06
2.68626e-05
1.15169e-06
3.0823e-05
1.11262e-06
3.53659e-05
1.06796e-06
4.05784e-05
1.01698e-06
4.65591e-05
9.58757e-07
5.34203e-05
8.92453e-07
6.12909e-05
8.17658e-07
7.03188e-05
7.34791e-07
8.06736e-05
6.60396e-07
7.64811e-05
5.90559e-07
7.64518e-05
5.25487e-07
7.64255e-05
4.65224e-07
7.64019e-05
4.09723e-07
7.63805e-05
3.58898e-07
7.63612e-05
3.12638e-07
7.63435e-05
2.74271e-07
6.97078e-05
2.42855e-07
6.26463e-05
2.17028e-07
5.63017e-05
1.95705e-07
5.06007e-05
1.78025e-07
4.54778e-05
1.63298e-07
4.08742e-05
1.50974e-07
3.6737e-05
1.40611e-07
3.3019e-05
1.31857e-07
2.96775e-05
1.24426e-07
2.66744e-05
1.18093e-07
2.39753e-05
1.12673e-07
2.15494e-05
1.08018e-07
1.93691e-05
1.74094e-05
1.04007e-07
3.07449e-07
9.34717e-06
7.48013e-07
1.35885e-05
1.00374e-06
1.71508e-05
1.07686e-06
2.0267e-05
1.08163e-06
2.33983e-05
1.06331e-06
2.6881e-05
1.03448e-06
3.08519e-05
9.98679e-07
3.54017e-05
9.56718e-07
4.06204e-05
9.08386e-07
4.66074e-05
8.5302e-07
5.34756e-05
7.89808e-07
6.13541e-05
7.18073e-07
7.03905e-05
6.37684e-07
8.0754e-05
5.64447e-07
7.65543e-05
4.94973e-07
7.65213e-05
4.29812e-07
7.64907e-05
3.69292e-07
7.64624e-05
3.13594e-07
7.64362e-05
2.62808e-07
7.6412e-05
2.1697e-07
7.63894e-05
1.7943e-07
6.97454e-05
1.49177e-07
6.26766e-05
1.24763e-07
5.63261e-05
1.0502e-07
5.06204e-05
8.90135e-08
4.54938e-05
7.59945e-08
4.08872e-05
6.53688e-08
3.67477e-05
5.66614e-08
3.30277e-05
4.94985e-08
2.96847e-05
4.35813e-08
2.66803e-05
3.86756e-08
2.39802e-05
3.45934e-08
2.15535e-05
3.11871e-08
1.93725e-05
1.74123e-05
2.83364e-08
2.14848e-07
9.13232e-06
5.68765e-07
1.32345e-05
8.29738e-07
1.68899e-05
9.25254e-07
2.01715e-05
9.42827e-07
2.33807e-05
9.30571e-07
2.68932e-05
9.04164e-07
3.08783e-05
8.68825e-07
3.54371e-05
8.26233e-07
4.0663e-05
7.76634e-07
4.6657e-05
7.1963e-07
5.35326e-05
6.54553e-07
6.14192e-05
5.80765e-07
7.04643e-05
4.9805e-07
8.08367e-05
4.22566e-07
7.66298e-05
3.50902e-07
7.6593e-05
2.83785e-07
7.65578e-05
2.2173e-07
7.65244e-05
1.65083e-07
7.64929e-05
1.14068e-07
7.6463e-05
6.88224e-08
7.64346e-05
3.25971e-08
6.97816e-05
4.19418e-09
6.2705e-05
-1.79947e-08
5.63483e-05
-3.52731e-08
5.06377e-05
-4.86856e-08
4.55072e-05
-5.90672e-08
4.08976e-05
-6.7077e-08
3.67557e-05
-7.32365e-08
3.30339e-05
-7.79518e-08
2.96894e-05
-8.15422e-08
2.66839e-05
-8.42539e-08
2.39829e-05
-8.62805e-08
2.15555e-05
-8.77706e-08
1.9374e-05
1.74134e-05
-8.88421e-08
1.53193e-07
8.97912e-06
4.32024e-07
1.29557e-05
6.7903e-07
1.66429e-05
7.87149e-07
2.00634e-05
8.12884e-07
2.3355e-05
8.03565e-07
2.69025e-05
7.76762e-07
3.09051e-05
7.38833e-07
3.5475e-05
6.92101e-07
4.07097e-05
6.37211e-07
4.67119e-05
5.74022e-07
5.35958e-05
5.02052e-07
6.14912e-05
4.20799e-07
7.05455e-05
3.30153e-07
8.09273e-05
2.47825e-07
7.67121e-05
1.70031e-07
7.66708e-05
9.76274e-08
7.66302e-05
3.12869e-08
7.65908e-05
-2.84992e-08
7.65527e-05
-8.13849e-08
7.65159e-05
-1.27141e-07
7.64804e-05
-1.6258e-07
6.9817e-05
-1.89229e-07
6.27316e-05
-2.08986e-07
5.6368e-05
-2.23386e-07
5.06521e-05
-2.33656e-07
4.55175e-05
-2.40769e-07
4.09047e-05
-2.45487e-07
3.67604e-05
-2.48407e-07
3.30368e-05
-2.49985e-07
2.96909e-05
-2.50576e-07
2.66845e-05
-2.50446e-07
2.39828e-05
-2.49801e-07
2.15549e-05
-2.48794e-07
1.9373e-05
1.74121e-05
-2.47543e-07
1.11017e-07
8.8681e-06
3.25973e-07
1.27407e-05
5.48447e-07
1.64204e-05
6.60754e-07
1.99511e-05
6.89667e-07
2.3326e-05
6.79887e-07
2.69123e-05
6.4983e-07
3.09351e-05
6.06447e-07
3.55184e-05
5.52443e-07
4.07637e-05
4.88735e-07
4.67756e-05
4.15387e-07
5.36692e-05
3.32098e-07
6.15745e-05
2.38555e-07
7.06391e-05
1.34879e-07
8.1031e-05
4.1324e-08
7.68057e-05
-4.65059e-08
7.67586e-05
-1.27618e-07
7.67113e-05
-2.0118e-07
7.66643e-05
-2.66546e-07
7.6618e-05
-3.2324e-07
7.65726e-05
-3.70927e-07
7.65281e-05
-4.06428e-07
6.98525e-05
-4.31716e-07
6.27569e-05
-4.49097e-07
5.63854e-05
-4.60432e-07
5.06635e-05
-4.67202e-07
4.55243e-05
-4.70575e-07
4.09081e-05
-4.71457e-07
3.67613e-05
-4.70548e-07
3.30359e-05
-4.68383e-07
2.96888e-05
-4.65364e-07
2.66814e-05
-4.61795e-07
2.39792e-05
-4.57901e-07
2.1551e-05
-4.53847e-07
1.93689e-05
1.7408e-05
-4.49754e-07
8.03106e-08
8.78778e-06
2.43154e-07
1.25779e-05
4.32967e-07
1.62306e-05
5.42231e-07
1.98418e-05
5.7001e-07
2.32983e-05
5.5644e-07
2.69259e-05
5.20248e-07
3.09713e-05
4.686e-07
3.557e-05
4.04343e-07
4.0828e-05
3.28509e-07
4.68514e-05
2.41275e-07
5.37564e-05
1.42469e-07
6.16733e-05
3.19713e-08
7.07496e-05
-8.97943e-08
8.11528e-05
-1.9899e-07
7.69149e-05
-3.00845e-07
7.68605e-05
-3.94212e-07
7.68047e-05
-4.78084e-07
7.67482e-05
-5.51644e-07
7.66916e-05
-6.14262e-07
7.66352e-05
-6.65485e-07
7.65793e-05
-7.02053e-07
6.98891e-05
-7.26505e-07
6.27814e-05
-7.41673e-07
5.64006e-05
-7.49837e-07
5.06716e-05
-7.52807e-07
4.55272e-05
-7.52003e-07
4.09073e-05
-7.4852e-07
3.67578e-05
-7.43201e-07
3.30305e-05
-7.3668e-07
2.96823e-05
-7.29433e-07
2.66742e-05
-7.21812e-07
2.39716e-05
-7.14073e-07
2.15432e-05
-7.06399e-07
1.93612e-05
1.74005e-05
-6.98922e-07
5.49206e-08
8.73286e-06
1.75412e-07
1.24574e-05
3.28969e-07
1.6077e-05
4.28653e-07
1.97421e-05
4.51399e-07
2.32755e-05
4.30842e-07
2.69464e-05
3.85628e-07
3.10165e-05
3.22882e-07
3.56328e-05
2.45387e-07
4.09055e-05
1.54142e-07
4.69427e-05
4.93318e-08
5.38612e-05
-6.91474e-08
6.17918e-05
-2.01242e-07
7.08817e-05
-3.46194e-07
8.12977e-05
-4.75551e-07
7.70443e-05
-5.95589e-07
7.69805e-05
-7.04959e-07
7.6914e-05
-8.02449e-07
7.68457e-05
-8.87038e-07
7.67762e-05
-9.57919e-07
7.6706e-05
-1.01449e-06
7.66359e-05
-1.0533e-06
6.99279e-05
-1.07757e-06
6.28056e-05
-1.09078e-06
5.64138e-05
-1.09573e-06
5.06766e-05
-1.09463e-06
4.55262e-05
-1.08923e-06
4.09019e-05
-1.08086e-06
3.67494e-05
-1.07054e-06
3.30202e-05
-1.05904e-06
2.96708e-05
-1.04692e-06
2.66621e-05
-1.03461e-06
2.39593e-05
-1.0224e-06
2.1531e-05
-1.01051e-06
1.93494e-05
1.73891e-05
-9.99075e-07
3.12294e-08
8.70163e-06
1.16366e-07
1.23723e-05
2.34023e-07
1.59593e-05
3.18283e-07
1.96579e-05
3.32167e-07
2.32616e-05
3.01528e-07
2.69771e-05
2.44365e-07
3.10737e-05
1.67602e-07
3.57095e-05
7.37932e-08
4.09993e-05
-3.62316e-08
4.70527e-05
-1.62374e-07
5.39874e-05
-3.04736e-07
6.19341e-05
-4.63136e-07
7.10401e-05
-6.36468e-07
8.14711e-05
-7.90638e-07
7.71984e-05
-9.33181e-07
7.7123e-05
-1.0625e-06
7.70434e-05
-1.17712e-06
7.69603e-05
-1.2758e-06
7.68748e-05
-1.35751e-06
7.67878e-05
-1.42146e-06
7.66998e-05
-1.46388e-06
6.99703e-05
-1.48877e-06
6.28305e-05
-1.50039e-06
5.64254e-05
-1.50216e-06
5.06783e-05
-1.4968e-06
4.55208e-05
-1.48642e-06
4.08915e-05
-1.47266e-06
3.67357e-05
-1.45676e-06
3.30043e-05
-1.43964e-06
2.96536e-05
-1.42201e-06
2.66444e-05
-1.40435e-06
2.39416e-05
-1.38703e-06
2.15137e-05
-1.3703e-06
1.93326e-05
1.73731e-05
-1.35432e-06
1.03367e-08
8.69129e-06
6.37077e-08
1.23189e-05
1.46455e-07
1.58766e-05
2.10319e-07
1.9594e-05
2.11641e-07
2.32603e-05
1.67944e-07
2.70208e-05
9.59195e-08
3.11457e-05
2.13102e-09
3.58033e-05
-1.11187e-07
4.11126e-05
-2.43469e-07
4.7185e-05
-3.94802e-07
5.41387e-05
-5.65364e-07
6.21047e-05
-7.54884e-07
7.12296e-05
-9.61917e-07
8.16781e-05
-1.14569e-06
7.73822e-05
-1.31523e-06
7.72926e-05
-1.46863e-06
7.71968e-05
-1.60414e-06
7.70958e-05
-1.7202e-06
7.69909e-05
-1.81555e-06
7.68831e-05
-1.88916e-06
7.67734e-05
-1.93677e-06
7.00179e-05
-1.96327e-06
6.2857e-05
-1.97383e-06
5.6436e-05
-1.9726e-06
5.06771e-05
-1.96287e-06
4.55111e-05
-1.94721e-06
4.08758e-05
-1.92762e-06
3.67161e-05
-1.90559e-06
3.29823e-05
-1.88227e-06
2.96303e-05
-1.85848e-06
2.66206e-05
-1.83484e-06
2.3918e-05
-1.81178e-06
2.14906e-05
-1.78959e-06
1.93104e-05
1.7352e-05
-1.76846e-06
-7.03764e-09
8.69832e-06
1.60648e-08
1.22958e-05
6.47152e-08
1.58279e-05
1.04215e-07
1.95545e-05
8.94256e-08
2.32751e-05
2.98078e-08
2.70804e-05
-5.99193e-08
3.12355e-05
-1.73688e-07
3.59171e-05
-3.09678e-07
4.12486e-05
-4.67684e-07
4.7343e-05
-6.48062e-07
5.43191e-05
-8.51133e-07
6.23078e-05
-1.0766e-06
7.1455e-05
-1.32269e-06
8.19242e-05
-1.54094e-06
7.76004e-05
-1.74209e-06
7.74937e-05
-1.92389e-06
7.73786e-05
-2.08424e-06
7.72562e-05
-2.22125e-06
7.71279e-05
-2.33333e-06
7.69952e-05
-2.41919e-06
7.68593e-05
-2.47385e-06
7.00726e-05
-2.50322e-06
6.28864e-05
-2.51346e-06
5.64462e-05
-2.50957e-06
5.06732e-05
-2.49552e-06
4.5497e-05
-2.47442e-06
4.08547e-05
-2.44865e-06
3.66903e-05
-2.42004e-06
3.29537e-05
-2.38997e-06
2.96002e-05
-2.35946e-06
2.65901e-05
-2.32923e-06
2.38877e-05
-2.29981e-06
2.14612e-05
-2.27156e-06
1.92822e-05
1.73252e-05
-2.24471e-06
-2.31534e-08
8.72147e-06
-2.86023e-08
1.23012e-05
-1.31349e-08
1.58125e-05
-7.59839e-10
1.95421e-05
-3.49139e-08
2.33092e-05
-1.13183e-07
2.71587e-05
-2.23237e-07
3.13455e-05
-3.59733e-07
3.60536e-05
-5.21364e-07
4.14102e-05
-7.08364e-07
4.753e-05
-9.21447e-07
5.45322e-05
-1.16116e-06
6.25475e-05
-1.42724e-06
7.17211e-05
-1.71765e-06
8.22146e-05
-1.97521e-06
7.7858e-05
-2.21263e-06
7.77311e-05
-2.42725e-06
7.75932e-05
-2.61656e-06
7.74455e-05
-2.7783e-06
7.72897e-05
-2.91049e-06
7.71274e-05
-3.01151e-06
7.69603e-05
-3.07543e-06
7.01365e-05
-3.10921e-06
6.29202e-05
-3.12017e-06
5.64572e-05
-3.11424e-06
5.06673e-05
-3.09615e-06
4.54789e-05
-3.06961e-06
4.08282e-05
-3.03749e-06
3.66582e-05
-3.00199e-06
3.29182e-05
-2.96477e-06
2.9563e-05
-2.92704e-06
2.65524e-05
-2.88971e-06
2.38504e-05
-2.8534e-06
2.14249e-05
-2.81855e-06
1.92473e-05
1.7292e-05
-2.78545e-06
-3.99348e-08
8.7614e-06
-7.18465e-08
1.23331e-05
-8.84047e-08
1.5829e-05
-1.05009e-07
1.95587e-05
-1.61301e-07
2.33655e-05
-2.60701e-07
2.7258e-05
-3.93423e-07
3.14782e-05
-5.5509e-07
3.62153e-05
-7.45028e-07
4.16002e-05
-9.63996e-07
4.77489e-05
-1.21314e-06
5.47813e-05
-1.49332e-06
6.28277e-05
-1.8044e-06
7.20322e-05
-2.14413e-06
8.25543e-05
-2.44571e-06
7.81596e-05
-2.72401e-06
7.80094e-05
-2.97592e-06
7.78451e-05
-3.1985e-06
7.76681e-05
-3.389e-06
7.74802e-05
-3.54502e-06
7.72834e-05
-3.66451e-06
7.70798e-05
-3.74029e-06
7.02123e-05
-3.78044e-06
6.29603e-05
-3.79351e-06
5.64702e-05
-3.78647e-06
5.06603e-05
-3.76491e-06
4.54574e-05
-3.73321e-06
4.07965e-05
-3.69479e-06
3.66198e-05
-3.65228e-06
3.28757e-05
-3.60765e-06
2.95184e-05
-3.56238e-06
2.65071e-05
-3.51755e-06
2.38056e-05
-3.47392e-06
2.13813e-05
-3.43203e-06
1.92054e-05
1.72522e-05
-3.39221e-06
-5.72094e-08
8.81861e-06
-1.14215e-07
1.23901e-05
-1.61532e-07
1.58763e-05
-2.08211e-07
1.96054e-05
-2.8895e-07
2.34463e-05
-4.11541e-07
2.73806e-05
-5.68924e-07
3.16356e-05
-7.5786e-07
3.64042e-05
-9.78413e-07
4.18207e-05
-1.23195e-06
4.80025e-05
-1.52012e-06
5.50695e-05
-1.84418e-06
6.31517e-05
-2.20424e-06
7.23922e-05
-2.59796e-06
8.2948e-05
-2.94807e-06
7.85097e-05
-3.27177e-06
7.83331e-05
-3.56543e-06
7.81388e-05
-3.82561e-06
7.79282e-05
-4.04908e-06
7.77036e-05
-4.2329e-06
7.74672e-05
-4.37454e-06
7.72214e-05
-4.46521e-06
7.0303e-05
-4.5141e-06
6.30092e-05
-4.5311e-06
5.64872e-05
-4.5243e-06
5.06535e-05
-4.50021e-06
4.54333e-05
-4.46397e-06
4.07603e-05
-4.41961e-06
3.65754e-05
-4.37024e-06
3.28263e-05
-4.3182e-06
2.94664e-05
-4.26526e-06
2.64542e-05
-4.21272e-06
2.3753e-05
-4.1615e-06
2.13301e-05
-4.11225e-06
1.91562e-05
1.72054e-05
-4.0654e-06
-7.4602e-08
8.89321e-06
-1.55667e-07
1.24712e-05
-2.32566e-07
1.59532e-05
-3.09719e-07
1.96826e-05
-4.16579e-07
2.35531e-05
-5.63936e-07
2.7528e-05
-7.47534e-07
3.18192e-05
-9.65418e-07
3.66221e-05
-1.21845e-06
4.20737e-05
-1.50868e-06
4.82927e-05
-1.83835e-06
5.53991e-05
-2.20923e-06
6.35226e-05
-2.62175e-06
7.28048e-05
-3.07359e-06
8.33999e-05
-3.47623e-06
7.89123e-05
-3.8495e-06
7.87064e-05
-4.18923e-06
7.84785e-05
-4.4914e-06
7.82304e-05
-4.75219e-06
7.79644e-05
-4.96811e-06
7.76831e-05
-5.13602e-06
7.73893e-05
-5.24508e-06
7.0412e-05
-5.30561e-06
6.30697e-05
-5.32886e-06
5.65105e-05
-5.32411e-06
5.06487e-05
-5.29887e-06
4.5408e-05
-5.25912e-06
4.07205e-05
-5.20955e-06
3.65258e-05
-5.1538e-06
3.27705e-05
-5.09465e-06
2.94072e-05
-5.03418e-06
2.63937e-05
-4.97396e-06
2.36928e-05
-4.91508e-06
2.12712e-05
-4.85835e-06
1.90995e-05
1.71513e-05
-4.80429e-06
-9.16569e-08
8.98486e-06
-1.9576e-07
1.25753e-05
-3.01066e-07
1.60585e-05
-4.08587e-07
1.97901e-05
-5.42605e-07
2.36872e-05
-7.15814e-07
2.77012e-05
-9.26707e-07
3.20301e-05
-1.17471e-06
3.68701e-05
-1.46155e-06
4.23606e-05
-1.79002e-06
4.86212e-05
-2.16305e-06
5.57722e-05
-2.583e-06
6.39425e-05
-3.0507e-06
7.32725e-05
-3.56407e-06
8.39132e-05
-4.02281e-06
7.93711e-05
-4.44949e-06
7.91331e-05
-4.83939e-06
7.88684e-05
-5.18789e-06
7.85789e-05
-5.49051e-06
7.8267e-05
-5.74309e-06
7.79357e-05
-5.94181e-06
7.7588e-05
-6.0733e-06
7.05435e-05
-6.14889e-06
6.31453e-05
-6.18127e-06
5.65429e-05
-6.18094e-06
5.06484e-05
-6.15646e-06
4.53835e-05
-6.1147e-06
4.06787e-05
-6.06108e-06
3.64722e-05
-5.99983e-06
3.27093e-05
-5.93421e-06
2.93416e-05
-5.86667e-06
2.63262e-05
-5.79907e-06
2.36252e-05
-5.73273e-06
2.12049e-05
-5.66861e-06
1.90353e-05
1.70901e-05
-5.60737e-06
-1.08122e-07
9.09298e-06
-2.34246e-07
1.27014e-05
-3.66623e-07
1.61909e-05
-5.03767e-07
1.99272e-05
-6.65289e-07
2.38487e-05
-8.64904e-07
2.79008e-05
-1.10363e-06
3.22688e-05
-1.38233e-06
3.71488e-05
-1.7037e-06
4.2682e-05
-2.07131e-06
4.89888e-05
-2.4888e-06
5.61896e-05
-2.95921e-06
6.4413e-05
-3.48403e-06
7.37973e-05
-4.06158e-06
8.44908e-05
-4.5794e-06
7.98889e-05
-5.06287e-06
7.96165e-05
-5.50672e-06
7.93122e-05
-5.90568e-06
7.89779e-05
-6.25459e-06
7.8616e-05
-6.54855e-06
7.82297e-05
-6.78296e-06
7.78224e-05
-6.94138e-06
7.0702e-05
-7.03603e-06
6.324e-05
-7.08099e-06
5.65878e-05
-7.08802e-06
5.06554e-05
-7.06677e-06
4.53623e-05
-7.02504e-06
4.0637e-05
-6.96904e-06
3.64162e-05
-6.90364e-06
3.26439e-05
-6.83261e-06
2.92706e-05
-6.75885e-06
2.62524e-05
-6.68453e-06
2.35509e-05
-6.61122e-06
2.11316e-05
-6.54009e-06
1.89642e-05
1.70219e-05
-6.47194e-06
-1.23823e-07
9.21681e-06
-2.70785e-07
1.28484e-05
-4.28737e-07
1.63489e-05
-5.94224e-07
2.00927e-05
-7.82865e-07
2.40373e-05
-1.00882e-06
2.81268e-05
-1.27534e-06
3.25353e-05
-1.58476e-06
3.74582e-05
-1.94071e-06
4.30379e-05
-2.34757e-06
4.93956e-05
-2.80981e-06
5.66519e-05
-3.33129e-06
6.49344e-05
-3.91429e-06
7.43803e-05
-4.55776e-06
8.51343e-05
-5.13683e-06
8.0468e-05
-5.6798e-06
8.01595e-05
-6.18086e-06
7.98133e-05
-6.6341e-06
7.94311e-05
-7.03365e-06
7.90155e-05
-7.37379e-06
7.85698e-05
-7.64906e-06
7.80977e-05
-7.83934e-06
7.08922e-05
-7.95755e-06
6.33582e-05
-8.01912e-06
5.66494e-05
-8.03705e-06
5.06733e-05
-8.0221e-06
4.53473e-05
-7.98302e-06
4.05979e-05
-7.92684e-06
3.636e-05
-7.85914e-06
3.25762e-05
-7.78425e-06
2.91957e-05
-7.70553e-06
2.61737e-05
-7.62552e-06
2.34708e-05
-7.5461e-06
2.10521e-05
-7.46864e-06
1.88867e-05
1.69474e-05
-7.39413e-06
-1.38467e-07
9.35527e-06
-3.04947e-07
1.30149e-05
-4.8659e-07
1.65305e-05
-6.78741e-07
2.02849e-05
-8.93619e-07
2.42522e-05
-1.14528e-06
2.83784e-05
-1.43899e-06
3.2829e-05
-1.77846e-06
3.77977e-05
-2.16832e-06
4.34278e-05
-2.61382e-06
4.98411e-05
-3.12031e-06
5.71584e-05
-3.6926e-06
6.55067e-05
-4.33385e-06
7.50215e-05
-5.04387e-06
8.58443e-05
-5.68544e-06
8.11095e-05
-6.28987e-06
8.0764e-05
-6.85081e-06
8.03743e-05
-7.36173e-06
7.9942e-05
-7.81601e-06
7.94698e-05
-8.20709e-06
7.89609e-05
-8.52856e-06
7.84192e-05
-8.75599e-06
7.11197e-05
-8.90275e-06
6.35049e-05
-8.98552e-06
5.67322e-05
-9.01849e-06
5.07063e-05
-9.01349e-06
4.53423e-05
-8.98027e-06
4.05647e-05
-8.92671e-06
3.63065e-05
-8.85909e-06
3.25086e-05
-8.78239e-06
2.9119e-05
-8.70044e-06
2.60918e-05
-8.61621e-06
2.33866e-05
-8.53191e-06
2.09678e-05
-8.44917e-06
1.8804e-05
1.68675e-05
-8.3692e-06
-1.51817e-07
9.50709e-06
-3.3616e-07
1.31992e-05
-5.39493e-07
1.67338e-05
-7.56275e-07
2.05016e-05
-9.95927e-07
2.44918e-05
-1.27209e-06
2.86546e-05
-1.5918e-06
3.31487e-05
-1.96009e-06
3.81659e-05
-2.38257e-06
4.38502e-05
-2.86539e-06
5.0324e-05
-3.41482e-06
5.77078e-05
-4.03665e-06
6.61286e-05
-4.73514e-06
7.572e-05
-5.51124e-06
8.66204e-05
-6.21559e-06
8.18139e-05
-6.88258e-06
8.14309e-05
-7.50536e-06
8.0997e-05
-8.07678e-06
8.05134e-05
-8.5895e-06
7.99825e-05
-9.0361e-06
7.94075e-05
-9.40914e-06
7.87922e-05
-9.67925e-06
7.13898e-05
-9.85995e-06
6.36856e-05
-9.969e-06
5.68412e-05
-1.00217e-05
5.0759e-05
-1.00309e-05
4.53516e-05
-1.00073e-05
4.05411e-05
-9.95972e-06
3.62589e-05
-9.89515e-06
3.2444e-05
-9.81919e-06
2.9043e-05
-9.73626e-06
2.60088e-05
-9.64975e-06
2.33001e-05
-9.56223e-06
2.08803e-05
-9.47566e-06
1.87174e-05
1.67832e-05
-9.39144e-06
-1.63715e-07
9.6708e-06
-3.64034e-07
1.33995e-05
-5.86932e-07
1.69567e-05
-8.25936e-07
2.07406e-05
-1.08836e-06
2.47543e-05
-1.38737e-06
2.89536e-05
-1.73137e-06
3.34928e-05
-2.1267e-06
3.85613e-05
-2.57989e-06
4.43034e-05
-3.09798e-06
5.0842e-05
-3.68819e-06
5.8298e-05
-4.35737e-06
6.67977e-05
-5.11107e-06
7.64737e-05
-5.95161e-06
8.74609e-05
-6.71804e-06
8.25803e-05
-7.44775e-06
8.21606e-05
-8.13346e-06
8.16827e-05
-8.76749e-06
8.11475e-05
-9.34182e-06
8.05568e-05
-9.84817e-06
7.99138e-05
-1.0278e-05
7.92221e-05
-1.05964e-05
7.17082e-05
-1.08167e-05
6.39059e-05
-1.09575e-05
5.6982e-05
-1.1035e-05
5.08365e-05
-1.10632e-05
4.53797e-05
-1.10536e-05
4.05316e-05
-1.10159e-05
3.62212e-05
-1.09579e-05
3.2386e-05
-1.08858e-05
2.89709e-05
-1.08046e-05
2.59277e-05
-1.07182e-05
2.32137e-05
-1.06296e-05
2.07917e-05
-1.0541e-05
1.86289e-05
1.66964e-05
-1.04542e-05
-1.74017e-07
9.84481e-06
-3.88295e-07
1.36138e-05
-6.28384e-07
1.71968e-05
-8.87023e-07
2.09993e-05
-1.16985e-06
2.50371e-05
-1.48958e-06
2.92733e-05
-1.85575e-06
3.38589e-05
-2.27581e-06
3.89813e-05
-2.7572e-06
4.47848e-05
-3.30783e-06
5.13927e-05
-3.93588e-06
5.89261e-05
-4.6494e-06
6.75113e-05
-5.45528e-06
7.72796e-05
-6.35754e-06
8.83632e-05
-7.18428e-06
8.34071e-05
-7.97585e-06
8.29522e-05
-8.72466e-06
8.24315e-05
-9.42261e-06
8.18454e-05
-1.00611e-05
8.11953e-05
-1.06309e-05
8.04836e-05
-1.11225e-05
7.97137e-05
-1.14947e-05
7.20804e-05
-1.17603e-05
6.41715e-05
-1.19385e-05
5.71602e-05
-1.20464e-05
5.09444e-05
-1.20988e-05
4.54321e-05
-1.2108e-05
4.05408e-05
-1.20846e-05
3.61977e-05
-1.20371e-05
3.23384e-05
-1.19724e-05
2.89063e-05
-1.18962e-05
2.58514e-05
-1.18128e-05
2.31303e-05
-1.17256e-05
2.07045e-05
-1.16373e-05
1.85405e-05
1.66089e-05
-1.15498e-05
-1.82627e-07
1.00274e-05
-4.08737e-07
1.38399e-05
-6.63457e-07
1.74515e-05
-9.38994e-07
2.12748e-05
-1.23962e-06
2.53377e-05
-1.5776e-06
2.96113e-05
-1.9634e-06
3.42447e-05
-2.40546e-06
3.94234e-05
-2.91206e-06
4.52914e-05
-3.49193e-06
5.19725e-05
-4.15425e-06
5.95884e-05
-4.90827e-06
6.82653e-05
-5.7624e-06
7.81337e-05
-6.72257e-06
8.93234e-05
-7.60684e-06
8.42913e-05
-8.45838e-06
8.38037e-05
-9.26949e-06
8.32427e-05
-1.00318e-05
8.26077e-05
-1.0736e-05
8.18995e-05
-1.13723e-05
8.11199e-05
-1.19301e-05
8.02715e-05
-1.23614e-05
7.25117e-05
-1.26779e-05
6.4488e-05
-1.28993e-05
5.73816e-05
-1.30433e-05
5.10884e-05
-1.31253e-05
4.55141e-05
-1.31586e-05
4.05741e-05
-1.31543e-05
3.61935e-05
-1.31218e-05
3.23059e-05
-1.30686e-05
2.88531e-05
-1.3001e-05
2.57838e-05
-1.29239e-05
2.30532e-05
-1.28412e-05
2.06218e-05
-1.27558e-05
1.84551e-05
1.65232e-05
-1.267e-05
-1.89488e-07
1.02169e-05
-4.25225e-07
1.40756e-05
-6.91969e-07
1.77183e-05
-9.81568e-07
2.15644e-05
-1.29721e-06
2.56534e-05
-1.6507e-06
2.99648e-05
-2.05331e-06
3.46473e-05
-2.5143e-06
3.98844e-05
-3.0427e-06
4.58198e-05
-3.64806e-06
5.25779e-05
-4.34053e-06
6.02809e-05
-5.13057e-06
6.90553e-05
-6.02821e-06
7.90314e-05
-7.0415e-06
9.03366e-05
-7.97949e-06
8.52293e-05
-8.88814e-06
8.47124e-05
-9.75979e-06
8.41143e-05
-1.05858e-05
8.34337e-05
-1.13566e-05
8.26703e-05
-1.20616e-05
8.18249e-05
-1.26893e-05
8.08992e-05
-1.31844e-05
7.30068e-05
-1.35573e-05
6.48609e-05
-1.38277e-05
5.7652e-05
-1.40136e-05
5.12743e-05
-1.41309e-05
4.56314e-05
-1.41936e-05
4.06368e-05
-1.42136e-05
3.62134e-05
-1.42009e-05
3.22931e-05
-1.41636e-05
2.88159e-05
-1.41087e-05
2.5729e-05
-1.40416e-05
2.29861e-05
-1.39666e-05
2.05468e-05
-1.38872e-05
1.83757e-05
1.64419e-05
-1.38059e-05
-1.94596e-07
1.04115e-05
-4.37745e-07
1.43188e-05
-7.13915e-07
1.79945e-05
-1.0147e-06
2.18652e-05
-1.34244e-06
2.59811e-05
-1.70859e-06
3.03309e-05
-2.12498e-06
3.50637e-05
-2.60159e-06
4.0361e-05
-3.14812e-06
4.63663e-05
-3.77486e-06
5.32046e-05
-4.49291e-06
6.09989e-05
-5.31396e-06
6.98764e-05
-6.24973e-06
7.99671e-05
-7.31047e-06
9.13974e-05
-8.29749e-06
8.62163e-05
-9.25947e-06
8.56744e-05
-1.01889e-05
8.50437e-05
-1.10771e-05
8.43219e-05
-1.19142e-05
8.35074e-05
-1.26891e-05
8.25999e-05
-1.33897e-05
8.15998e-05
-1.39529e-05
7.35699e-05
-1.43871e-05
6.52951e-05
-1.47119e-05
5.79768e-05
-1.49453e-05
5.15077e-05
-1.51037e-05
4.57898e-05
-1.52014e-05
4.07345e-05
-1.5251e-05
3.6263e-05
-1.52631e-05
3.23052e-05
-1.52465e-05
2.87993e-05
-1.52087e-05
2.56911e-05
-1.51556e-05
2.2933e-05
-1.50921e-05
2.04832e-05
-1.50219e-05
1.83056e-05
1.63681e-05
-1.49481e-05
-1.97957e-07
1.06095e-05
-4.46336e-07
1.45672e-05
-7.29384e-07
1.82775e-05
-1.03851e-06
2.21743e-05
-1.37546e-06
2.63181e-05
-1.75132e-06
3.07068e-05
-2.17838e-06
3.54908e-05
-2.66719e-06
4.08498e-05
-3.228e-06
4.69272e-05
-3.8718e-06
5.38484e-05
-4.61058e-06
6.17377e-05
-5.45724e-06
7.0723e-05
-6.4252e-06
8.09351e-05
-7.52699e-06
9.24992e-05
-8.55761e-06
8.7247e-05
-9.5683e-06
8.66851e-05
-1.05518e-05
8.60272e-05
-1.14995e-05
8.52696e-05
-1.24017e-05
8.44096e-05
-1.32469e-05
8.34452e-05
-1.40223e-05
8.23752e-05
-1.46569e-05
7.42045e-05
-1.51569e-05
6.57951e-05
-1.55412e-05
5.83612e-05
-1.58278e-05
5.17943e-05
-1.6033e-05
4.5995e-05
-1.61714e-05
4.0873e-05
-1.62562e-05
3.63478e-05
-1.62985e-05
3.23475e-05
-1.63077e-05
2.88085e-05
-1.62918e-05
2.56752e-05
-1.62572e-05
2.28984e-05
-1.62093e-05
2.04353e-05
-1.61523e-05
1.82486e-05
1.63053e-05
-1.60895e-05
-1.99725e-07
1.08092e-05
-4.51244e-07
1.48187e-05
-7.38705e-07
1.8565e-05
-1.05343e-06
2.2489e-05
-1.39673e-06
2.66614e-05
-1.77939e-06
3.10895e-05
-2.21397e-06
3.59254e-05
-2.71148e-06
4.13473e-05
-3.28266e-06
4.74983e-05
-3.9391e-06
5.45049e-05
-4.6936e-06
6.24922e-05
-5.56026e-06
7.15897e-05
-6.5541e-06
8.19289e-05
-7.69002e-06
9.36351e-05
-8.75829e-06
8.83152e-05
-9.8123e-06
8.77391e-05
-1.08452e-05
8.70602e-05
-1.1849e-05
8.62734e-05
-1.2814e-05
8.53746e-05
-1.37288e-05
8.436e-05
-1.45801e-05
8.32264e-05
-1.52888e-05
7.49133e-05
-1.58587e-05
6.6365e-05
-1.63075e-05
5.881e-05
-1.66526e-05
5.21394e-05
-1.69102e-05
4.62526e-05
-1.70953e-05
4.10582e-05
-1.72213e-05
3.64738e-05
-1.72998e-05
3.24259e-05
-1.73407e-05
2.88494e-05
-1.73524e-05
2.56869e-05
-1.73419e-05
2.28879e-05
-1.73148e-05
2.04083e-05
-1.7276e-05
1.82097e-05
1.62582e-05
-1.72288e-05
-1.99701e-07
1.10089e-05
-4.52354e-07
1.50713e-05
-7.41978e-07
1.88546e-05
-1.05979e-06
2.28069e-05
-1.40677e-06
2.70083e-05
-1.79342e-06
3.14761e-05
-2.2325e-06
3.63645e-05
-2.73531e-06
4.18501e-05
-3.313e-06
4.8076e-05
-3.97766e-06
5.51695e-05
-4.74287e-06
6.32574e-05
-5.62379e-06
7.24706e-05
-6.63694e-06
8.29421e-05
-7.79971e-06
9.47979e-05
-8.89916e-06
8.94147e-05
-9.99046e-06
8.88304e-05
-1.10676e-05
8.81372e-05
-1.2123e-05
8.73288e-05
-1.31476e-05
8.63992e-05
-1.41303e-05
8.53426e-05
-1.50575e-05
8.41537e-05
-1.58424e-05
7.56981e-05
-1.64853e-05
6.70079e-05
-1.70031e-05
5.93278e-05
-1.74126e-05
5.25488e-05
-1.77297e-05
4.65698e-05
-1.79696e-05
4.1298e-05
-1.81453e-05
3.66495e-05
-1.82686e-05
3.25492e-05
-1.83495e-05
2.89303e-05
-1.83966e-05
2.5734e-05
-1.8417e-05
2.29083e-05
-1.8417e-05
2.04082e-05
-1.84014e-05
1.81942e-05
-1.83742e-05
1.62309e-05
4.53573e-08
2.78135e-05
4.25657e-08
2.85527e-05
3.98676e-08
2.93115e-05
3.72624e-08
3.00906e-05
3.47519e-08
3.08903e-05
3.23347e-08
3.17114e-05
3.00117e-08
3.25542e-05
2.77806e-08
3.34195e-05
2.56412e-08
3.43077e-05
2.35901e-08
3.52196e-05
2.16263e-08
3.61557e-05
1.97696e-08
3.65907e-05
1.80796e-08
3.5553e-05
1.65335e-08
3.45446e-05
1.5115e-08
3.35649e-05
1.3807e-08
3.2613e-05
1.25976e-08
3.16881e-05
1.14736e-08
3.07894e-05
1.04263e-08
2.99163e-05
9.44529e-09
2.90678e-05
8.5244e-09
2.82435e-05
2.74425e-05
7.65622e-09
1.13166e-07
2.782e-05
1.06792e-07
2.8559e-05
1.00582e-07
2.93177e-05
9.45393e-08
3.00966e-05
8.86683e-08
3.08962e-05
8.29701e-08
3.1717e-05
7.74478e-08
3.25597e-05
7.21001e-08
3.34248e-05
6.69275e-08
3.43129e-05
6.1926e-08
3.52246e-05
5.70936e-08
3.61605e-05
5.24905e-08
3.65953e-05
4.82786e-08
3.55572e-05
4.44094e-08
3.45485e-05
4.08425e-08
3.35685e-05
3.75396e-08
3.26163e-05
3.44702e-08
3.16912e-05
3.16048e-08
3.07923e-05
2.89204e-08
2.99189e-05
2.63946e-08
2.90704e-05
2.40102e-08
2.82459e-05
2.74448e-05
2.17472e-08
1.29201e-07
2.78273e-05
1.22094e-07
2.85662e-05
1.15201e-07
2.93246e-05
1.08527e-07
3.01033e-05
1.02077e-07
3.09027e-05
9.58528e-08
3.17233e-05
8.98573e-08
3.25657e-05
8.40888e-08
3.34306e-05
7.85467e-08
3.43184e-05
7.32251e-08
3.52299e-05
6.81186e-08
3.61657e-05
6.32814e-08
3.66002e-05
5.88663e-08
3.55616e-05
5.48153e-08
3.45526e-05
5.10813e-08
3.35722e-05
4.76203e-08
3.26198e-05
4.43968e-08
3.16944e-05
4.13772e-08
3.07953e-05
3.85352e-08
2.99218e-05
3.58455e-08
2.90731e-05
3.32889e-08
2.82484e-05
2.74472e-05
3.08478e-08
9.8346e-08
2.7833e-05
9.29319e-08
2.85716e-05
8.77759e-08
2.93298e-05
8.28805e-08
3.01082e-05
7.82493e-08
3.09073e-05
7.38813e-08
3.17276e-05
6.97762e-08
3.25698e-05
6.59283e-08
3.34344e-05
6.23325e-08
3.4322e-05
5.89776e-08
3.52333e-05
5.58522e-08
3.61688e-05
5.2978e-08
3.6603e-05
5.04292e-08
3.55641e-05
4.81484e-08
3.45548e-05
4.60886e-08
3.35743e-05
4.42073e-08
3.26217e-05
4.24706e-08
3.16961e-05
4.08473e-08
3.07969e-05
3.93137e-08
2.99233e-05
3.78475e-08
2.90745e-05
3.64329e-08
2.82498e-05
2.74486e-05
3.50541e-08
2.61271e-08
2.78352e-05
2.42475e-08
2.85734e-05
2.27097e-08
2.93313e-05
2.1512e-08
3.01094e-05
2.06525e-08
3.09081e-05
2.0124e-08
3.17282e-05
1.99192e-08
3.257e-05
2.00246e-08
3.34343e-05
2.04256e-08
3.43216e-05
2.11012e-08
3.52326e-05
2.20287e-08
3.61678e-05
2.31604e-08
3.66019e-05
2.4403e-08
3.55629e-05
2.57046e-08
3.45535e-05
2.70248e-08
3.3573e-05
2.8328e-08
3.26204e-05
2.95877e-08
3.16949e-05
3.07807e-08
3.07957e-05
3.18911e-08
2.99222e-05
3.29044e-08
2.90735e-05
3.38131e-08
2.82489e-05
2.74478e-05
3.4611e-08
-8.58674e-08
2.78322e-05
-8.2444e-08
2.857e-05
-7.85568e-08
2.93274e-05
-7.42148e-08
3.0105e-05
-6.94285e-08
3.09034e-05
-6.42144e-08
3.1723e-05
-5.85912e-08
3.25644e-05
-5.25844e-08
3.34283e-05
-4.62222e-08
3.43153e-05
-3.95407e-08
3.52259e-05
-3.25791e-08
3.61609e-05
-2.54875e-08
3.65948e-05
-1.86056e-08
3.5556e-05
-1.19759e-08
3.45469e-05
-5.62863e-09
3.35666e-05
4.12067e-10
3.26143e-05
6.13149e-09
3.16892e-05
1.15186e-08
3.07904e-05
1.65696e-08
2.99171e-05
2.12825e-08
2.90688e-05
2.56621e-08
2.82446e-05
2.74438e-05
2.97171e-08
-2.37633e-07
2.78223e-05
-2.27118e-07
2.85595e-05
-2.15977e-07
2.93163e-05
-2.0423e-07
3.00933e-05
-1.919e-07
3.0891e-05
-1.79016e-07
3.17101e-05
-1.65612e-07
3.2551e-05
-1.51731e-07
3.34144e-05
-1.3742e-07
3.43009e-05
-1.22736e-07
3.52112e-05
-1.0774e-07
3.61459e-05
-9.27187e-08
3.65798e-05
-7.83398e-08
3.55416e-05
-6.46324e-08
3.45332e-05
-5.16121e-08
3.35536e-05
-3.92872e-08
3.2602e-05
-2.7656e-08
3.16775e-05