/*--------------------------------*- C++ -*----------------------------------*\
  =========                 |
  \\      /  F ield         | OpenFOAM: The Open Source CFD Toolbox
   \\    /   O peration     | Website:  https://openfoam.org
    \\  /    A nd           | Version:  8
     \\/     M anipulation  |
\*---------------------------------------------------------------------------*/
FoamFile
{
    version     2.0;
    format      ascii;
    class       volVectorField;
    location    "1300";
    object      U;
}
// * * * * * * * * * * * * * * * * * * * * * * * * * * * * * * * * * * * * * //

dimensions      [0 1 -1 0 0 0 0];

internalField   nonuniform List<vector> 
15677
(
(-2.53765 9.06505 0)
(0.791326 10.3666 0)
(0.128846 10.0153 0)
(0.00641474 10.0051 0)
(0.0282817 10.0104 0)
(0.0300834 10.0104 0)
(0.0275259 10.0096 0)
(0.0251743 10.0086 0)
(0.0229788 10.0075 0)
(0.0207059 10.0064 0)
(0.0183707 10.0054 0)
(0.0160337 10.0044 0)
(0.0137476 10.0036 0)
(0.0115752 10.0028 0)
(0.00973021 10.0022 0)
(0.00824773 10.0017 0)
(0.00702482 10.0014 0)
(0.00600773 10.0011 0)
(0.00515568 10.0009 0)
(0.004438 10.0007 0)
(0.00383175 10.0006 0)
(0.00333617 10.0005 0)
(0.00294409 10.0004 0)
(0.00263218 10.0003 0)
(0.00238058 10.0003 0)
(0.00217496 10.0003 0)
(0.00200503 10.0002 0)
(0.00186325 10.0002 0)
(0.00174399 10.0002 0)
(0.00164295 10.0002 0)
(0.00155679 10.0002 0)
(0.00148292 10.0002 0)
(0.00141925 10.0001 0)
(0.00136409 10.0001 0)
(0.00131665 10.0001 0)
(-1.33218 8.26608 0)
(0.665858 10.1116 0)
(-0.0358242 10.0874 0)
(0.0131072 10.0515 0)
(0.0455505 10.0448 0)
(0.0398795 10.0407 0)
(0.0370169 10.0373 0)
(0.0353371 10.0343 0)
(0.0334584 10.0312 0)
(0.0313365 10.0281 0)
(0.0290458 10.0249 0)
(0.0266078 10.0216 0)
(0.0240507 10.0184 0)
(0.0214114 10.0153 0)
(0.0189698 10.0127 0)
(0.0168355 10.0106 0)
(0.0149251 10.009 0)
(0.0132156 10.0076 0)
(0.0116859 10.0065 0)
(0.0103176 10.0056 0)
(0.00909527 10.0048 0)
(0.00805124 10.0042 0)
(0.00719954 10.0037 0)
(0.00650531 10.0033 0)
(0.00593478 10.003 0)
(0.00546225 10.0028 0)
(0.00506804 10.0026 0)
(0.00473696 10.0024 0)
(0.00445715 10.0022 0)
(0.00421928 10.0021 0)
(0.00401596 10.002 0)
(0.00384131 10.0019 0)
(0.00369061 10.0019 0)
(0.00355986 10.0018 0)
(0.00344638 10.0017 0)
(-0.415249 7.73483 0)
(0.294355 9.67977 0)
(-0.0467891 10.0465 0)
(0.0452479 10.0704 0)
(0.0440449 10.0627 0)
(0.0377598 10.0569 0)
(0.0369798 10.0528 0)
(0.0359444 10.0492 0)
(0.0344993 10.0459 0)
(0.0328591 10.0425 0)
(0.0310211 10.0389 0)
(0.0289556 10.0352 0)
(0.0266617 10.0312 0)
(0.0241682 10.0272 0)
(0.0217604 10.0236 0)
(0.0195833 10.0206 0)
(0.0175735 10.0181 0)
(0.0157244 10.0159 0)
(0.0140282 10.014 0)
(0.0124775 10.0123 0)
(0.0110652 10.0109 0)
(0.00983779 10.0097 0)
(0.00882037 10.0087 0)
(0.00797924 10.0079 0)
(0.00728008 10.0073 0)
(0.00669579 10.0067 0)
(0.00620488 10.0063 0)
(0.00579027 10.0059 0)
(0.00543834 10.0056 0)
(0.00513816 10.0053 0)
(0.00488095 10.0051 0)
(0.00465965 10.0048 0)
(0.0044686 10.0047 0)
(0.00430264 10.0045 0)
(0.00415639 10.0044 0)
(-0.0847744 7.35049 0)
(0.0985469 9.29075 0)
(-0.00436151 9.93948 0)
(0.0508826 10.0618 0)
(0.0385072 10.0706 0)
(0.037318 10.0675 0)
(0.0370645 10.0637 0)
(0.035897 10.0601 0)
(0.0345312 10.0567 0)
(0.0330177 10.0532 0)
(0.0312917 10.0497 0)
(0.0293173 10.0459 0)
(0.0270726 10.0417 0)
(0.024558 10.0373 0)
(0.0220643 10.0332 0)
(0.0197766 10.0297 0)
(0.0176391 10.0265 0)
(0.0156542 10.0237 0)
(0.0138214 10.0212 0)
(0.0121383 10.019 0)
(0.0106021 10.017 0)
(0.00926869 10.0153 0)
(0.00816941 10.0138 0)
(0.00726742 10.0126 0)
(0.00652435 10.0116 0)
(0.00590957 10.0108 0)
(0.00539866 10.01 0)
(0.0049721 10.0094 0)
(0.00461427 10.0089 0)
(0.00431266 10.0084 0)
(0.00405721 10.008 0)
(0.00383999 10.0077 0)
(0.00365471 10.0074 0)
(0.00349565 10.0071 0)
(0.00335358 10.0069 0)
(-0.00292744 7.07876 0)
(0.0303827 8.97439 0)
(0.0200966 9.80105 0)
(0.042239 10.033 0)
(0.034823 10.0722 0)
(0.0359168 10.0762 0)
(0.0352362 10.074 0)
(0.034045 10.0707 0)
(0.032732 10.0674 0)
(0.0312249 10.0639 0)
(0.0294895 10.0603 0)
(0.0275031 10.0563 0)
(0.0252387 10.0521 0)
(0.0226782 10.0474 0)
(0.0200992 10.0428 0)
(0.0177036 10.0387 0)
(0.015446 10.035 0)
(0.01334 10.0316 0)
(0.0113934 10.0285 0)
(0.00961029 10.0256 0)
(0.00799279 10.023 0)
(0.00660379 10.0207 0)
(0.00547545 10.0188 0)
(0.00456569 10.0171 0)
(0.00383089 10.0157 0)
(0.00323602 10.0145 0)
(0.00275303 10.0135 0)
(0.00235955 10.0126 0)
(0.00203778 10.0119 0)
(0.00177359 10.0112 0)
(0.00155575 10.0106 0)
(0.00137553 10.0101 0)
(0.00122629 10.0097 0)
(0.00110201 10.0093 0)
(0.000987982 10.009 0)
(0.00798875 6.88979 0)
(0.0126698 8.71772 0)
(0.025431 9.65096 0)
(0.0340716 9.99044 0)
(0.0325223 10.0673 0)
(0.0334366 10.0818 0)
(0.0325369 10.0829 0)
(0.0313851 10.0808 0)
(0.030004 10.0777 0)
(0.0283685 10.0743 0)
(0.0264785 10.0707 0)
(0.0243158 10.0667 0)
(0.0218539 10.0623 0)
(0.0190734 10.0574 0)
(0.0162665 10.0525 0)
(0.0136535 10.0479 0)
(0.0111915 10.0436 0)
(0.00890171 10.0396 0)
(0.0067986 10.0358 0)
(0.00489179 10.0323 0)
(0.00318762 10.029 0)
(0.00175359 10.026 0)
(0.000617674 10.0235 0)
(-0.000271037 10.0213 0)
(-0.000963957 10.0194 0)
(-0.00150251 10.0178 0)
(-0.00191983 10.0164 0)
(-0.00224224 10.0152 0)
(-0.00249053 10.0142 0)
(-0.00268101 10.0133 0)
(-0.0028265 10.0125 0)
(-0.00293677 10.0118 0)
(-0.0030189 10.0112 0)
(-0.00307897 10.0107 0)
(-0.00313949 10.0102 0)
(0.00560091 6.75624 0)
(0.0088236 8.51263 0)
(0.0230398 9.50496 0)
(0.0287788 9.93894 0)
(0.0301625 10.0574 0)
(0.0305125 10.0855 0)
(0.02962 10.0913 0)
(0.0283821 10.0909 0)
(0.0267836 10.0885 0)
(0.024871 10.0854 0)
(0.0226557 10.0818 0)
(0.0201225 10.0778 0)
(0.0172497 10.0732 0)
(0.014023 10.068 0)
(0.0107805 10.0627 0)
(0.00777392 10.0576 0)
(0.00495626 10.0526 0)
(0.00235519 10.0479 0)
(-8.18239e-06 10.0434 0)
(-0.00211855 10.0391 0)
(-0.0039651 10.0349 0)
(-0.00547436 10.0312 0)
(-0.00662596 10.0279 0)
(-0.00748557 10.025 0)
(-0.00811734 10.0226 0)
(-0.00857282 10.0205 0)
(-0.00889304 10.0186 0)
(-0.00911032 10.017 0)
(-0.00924992 10.0156 0)
(-0.00933144 10.0144 0)
(-0.00937001 10.0134 0)
(-0.00937698 10.0124 0)
(-0.0093601 10.0116 0)
(-0.00932533 10.0109 0)
(-0.00930619 10.0103 0)
(0.00300701 6.65968 0)
(0.00739697 8.35342 0)
(0.0190081 9.37036 0)
(0.0249306 9.88362 0)
(0.0272954 10.0451 0)
(0.0273167 10.0887 0)
(0.026377 10.1003 0)
(0.0248907 10.1023 0)
(0.0229376 10.1008 0)
(0.0205935 10.098 0)
(0.0178732 10.0944 0)
(0.0147672 10.0903 0)
(0.0112604 10.0855 0)
(0.00734734 10.0799 0)
(0.00344106 10.074 0)
(-0.000159322 10.0683 0)
(-0.00351012 10.0626 0)
(-0.00657634 10.057 0)
(-0.00932925 10.0515 0)
(-0.0117469 10.0462 0)
(-0.013813 10.041 0)
(-0.0154454 10.0362 0)
(-0.0166344 10.032 0)
(-0.0174669 10.0283 0)
(-0.0180252 10.0251 0)
(-0.0183753 10.0224 0)
(-0.0185692 10.0199 0)
(-0.0186479 10.0178 0)
(-0.018643 10.016 0)
(-0.0185787 10.0144 0)
(-0.0184735 10.013 0)
(-0.018341 10.0117 0)
(-0.0181902 10.0107 0)
(-0.0180266 10.0097 0)
(-0.0178994 10.0088 0)
(0.00163634 6.58969 0)
(0.00605223 8.23185 0)
(0.0151758 9.25224 0)
(0.0214223 9.82803 0)
(0.0239477 10.0325 0)
(0.0237825 10.0928 0)
(0.0226176 10.1109 0)
(0.0207303 10.1156 0)
(0.0182734 10.1153 0)
(0.0153245 10.1129 0)
(0.0119013 10.1093 0)
(0.00799922 10.105 0)
(0.00360916 10.0999 0)
(-0.00126299 10.0938 0)
(-0.00609652 10.0872 0)
(-0.0105247 10.0806 0)
(-0.0146181 10.0739 0)
(-0.018333 10.0672 0)
(-0.0216316 10.0605 0)
(-0.0244837 10.0539 0)
(-0.0268662 10.0475 0)
(-0.0286847 10.0414 0)
(-0.029943 10.036 0)
(-0.0307562 10.0312 0)
(-0.0312312 10.0271 0)
(-0.0314533 10.0235 0)
(-0.0314898 10.0203 0)
(-0.0313929 10.0175 0)
(-0.0312031 10.0151 0)
(-0.0309508 10.013 0)
(-0.0306595 10.0111 0)
(-0.0303458 10.0095 0)
(-0.0300204 10.008 0)
(-0.029688 10.0068 0)
(-0.02942 10.0056 0)
(0.000904578 6.53922 0)
(0.0045892 8.14068 0)
(0.0117367 9.15459 0)
(0.0177725 9.77563 0)
(0.0201608 10.0212 0)
(0.0197593 10.0989 0)
(0.0181731 10.124 0)
(0.015724 10.1316 0)
(0.0125874 10.1326 0)
(0.00883387 10.1307 0)
(0.00448238 10.1272 0)
(-0.000469936 10.1226 0)
(-0.00602783 10.117 0)
(-0.0121726 10.1102 0)
(-0.0182396 10.1027 0)
(-0.0237706 10.095 0)
(-0.0288554 10.0871 0)
(-0.0334392 10.079 0)
(-0.0374729 10.0708 0)
(-0.0409159 10.0626 0)
(-0.0437362 10.0545 0)
(-0.0458219 10.0467 0)
(-0.047193 10.0398 0)
(-0.0480014 10.0338 0)
(-0.0483858 10.0284 0)
(-0.0484569 10.0237 0)
(-0.0483018 10.0196 0)
(-0.047988 10.016 0)
(-0.0475672 10.0128 0)
(-0.0470787 10.01 0)
(-0.0465519 10.0076 0)
(-0.0460085 10.0054 0)
(-0.0454607 10.0035 0)
(-0.0449129 10.0018 0)
(-0.0444663 10.0003 0)
(0.000331871 6.50717 0)
(0.00303128 8.07437 0)
(0.00849795 9.07757 0)
(0.0138494 9.72941 0)
(0.0159104 10.0129 0)
(0.0150969 10.1082 0)
(0.0128946 10.1404 0)
(0.00969747 10.1512 0)
(0.00567259 10.1536 0)
(0.00088228 10.1522 0)
(-0.00465831 10.1487 0)
(-0.0109543 10.1438 0)
(-0.018008 10.1376 0)
(-0.0257873 10.1298 0)
(-0.0334432 10.1211 0)
(-0.0403988 10.112 0)
(-0.0467684 10.1026 0)
(-0.052483 10.0927 0)
(-0.057479 10.0827 0)
(-0.061703 10.0725 0)
(-0.0651108 10.0623 0)
(-0.0675668 10.0525 0)
(-0.0691092 10.0437 0)
(-0.0699362 10.0359 0)
(-0.0702271 10.0291 0)
(-0.0701249 10.023 0)
(-0.0697422 10.0177 0)
(-0.0691659 10.013 0)
(-0.0684629 10.0089 0)
(-0.0676834 10.0053 0)
(-0.0668654 10.0021 0)
(-0.0660364 9.99927 0)
(-0.0652116 9.99677 0)
(-0.0643941 9.99453 0)
(-0.0637261 9.99252 0)
(-0.000192713 6.49215 0)
(0.00144069 8.02933 0)
(0.00533505 9.02066 0)
(0.00963443 9.69217 0)
(0.0111325 10.0092 0)
(0.00968643 10.1218 0)
(0.00666507 10.1612 0)
(0.00250023 10.1752 0)
(-0.00265677 10.1791 0)
(-0.00875414 10.1781 0)
(-0.0157861 10.1746 0)
(-0.0237649 10.1692 0)
(-0.0326931 10.1622 0)
(-0.0425249 10.1533 0)
(-0.0521813 10.1431 0)
(-0.0609358 10.1323 0)
(-0.068934 10.1209 0)
(-0.0760886 10.109 0)
(-0.082318 10.0967 0)
(-0.087552 10.084 0)
(-0.0917315 10.0712 0)
(-0.0946881 10.0589 0)
(-0.0964796 10.0478 0)
(-0.0973616 10.0379 0)
(-0.0975636 10.0291 0)
(-0.0972693 10.0214 0)
(-0.0966229 10.0145 0)
(-0.0957365 10.0085 0)
(-0.0946957 10.0032 0)
(-0.0935652 9.99853 0)
(-0.0923939 9.9944 0)
(-0.0912169 9.99075 0)
(-0.0900531 9.9875 0)
(-0.0889044 9.98459 0)
(-0.0879676 9.98199 0)
(-0.000647051 6.49137 0)
(-0.000126402 8.00438 0)
(0.00214028 8.98323 0)
(0.0050982 9.66604 0)
(0.00574952 10.0116 0)
(0.0034343 10.1408 0)
(-0.000633054 10.1873 0)
(-0.00601614 10.2045 0)
(-0.0125803 10.2097 0)
(-0.0202906 10.2092 0)
(-0.029157 10.2056 0)
(-0.0392031 10.1996 0)
(-0.0504356 10.1916 0)
(-0.0627954 10.1813 0)
(-0.0749235 10.1692 0)
(-0.0859079 10.1565 0)
(-0.0959334 10.1428 0)
(-0.10489 10.1283 0)
(-0.112674 10.1131 0)
(-0.119194 10.0975 0)
(-0.124371 10.0816 0)
(-0.127993 10.0662 0)
(-0.130138 10.0522 0)
(-0.131129 10.0397 0)
(-0.131259 10.0286 0)
(-0.130761 10.0187 0)
(-0.129819 10.01 0)
(-0.128575 10.0024 0)
(-0.127138 9.99558 0)
(-0.125593 9.98959 0)
(-0.124002 9.9843 0)
(-0.122409 9.9796 0)
(-0.120838 9.97542 0)
(-0.11929 9.97168 0)
(-0.118033 9.96832 0)
(-0.00109667 6.50234 0)
(-0.00174916 7.99873 0)
(-0.00120652 8.96497 0)
(0.000170577 9.6528 0)
(-0.000324625 10.0217 0)
(-0.00376491 10.1663 0)
(-0.00913063 10.2197 0)
(-0.0160044 10.2398 0)
(-0.0242765 10.2464 0)
(-0.0339349 10.2463 0)
(-0.0450127 10.2424 0)
(-0.0575514 10.2357 0)
(-0.0715652 10.2265 0)
(-0.0869845 10.2144 0)
(-0.102113 10.2002 0)
(-0.115816 10.185 0)
(-0.128326 10.1686 0)
(-0.139504 10.151 0)
(-0.149219 10.1326 0)
(-0.157353 10.1134 0)
(-0.163802 10.0937 0)
(-0.168296 10.0746 0)
(-0.17093 10.0572 0)
(-0.172112 10.0416 0)
(-0.172206 10.0276 0)
(-0.171505 10.0152 0)
(-0.170242 10.0042 0)
(-0.168598 9.9945 0)
(-0.166711 9.98591 0)
(-0.164687 9.97831 0)
(-0.162606 9.97157 0)
(-0.160526 9.96559 0)
(-0.158476 9.96026 0)
(-0.156455 9.95549 0)
(-0.154826 9.95122 0)
(-0.00162698 6.52563 0)
(-0.00353519 8.01098 0)
(-0.00479254 8.96518 0)
(-0.00521141 9.65342 0)
(-0.0071566 10.0408 0)
(-0.0119977 10.1993 0)
(-0.0189329 10.2591 0)
(-0.0275878 10.282 0)
(-0.0378887 10.2897 0)
(-0.049857 10.2899 0)
(-0.0635537 10.2856 0)
(-0.0790452 10.2781 0)
(-0.0963615 10.2675 0)
(-0.115423 10.2534 0)
(-0.13414 10.2367 0)
(-0.151108 10.2187 0)
(-0.166617 10.199 0)
(-0.180498 10.1779 0)
(-0.192583 10.1555 0)
(-0.202722 10.1322 0)
(-0.210777 10.1081 0)
(-0.216402 10.0845 0)
(-0.219709 10.063 0)
(-0.221196 10.0436 0)
(-0.221316 10.0263 0)
(-0.220435 10.0108 0)
(-0.218842 9.99708 0)
(-0.216765 9.98491 0)
(-0.214378 9.97412 0)
(-0.211815 9.96455 0)
(-0.209176 9.95607 0)
(-0.206537 9.94852 0)
(-0.203933 9.94179 0)
(-0.201363 9.93577 0)
(-0.199309 9.93037 0)
(-0.0022414 6.56165 0)
(-0.0055253 8.03981 0)
(-0.00865559 8.98326 0)
(-0.0110836 9.66881 0)
(-0.0147781 10.0699 0)
(-0.0213059 10.2406 0)
(-0.0300952 10.3062 0)
(-0.0408358 10.3317 0)
(-0.0535048 10.3404 0)
(-0.0681653 10.3407 0)
(-0.0849152 10.336 0)
(-0.103853 10.3274 0)
(-0.125029 10.3152 0)
(-0.148365 10.2988 0)
(-0.171315 10.2792 0)
(-0.192155 10.258 0)
(-0.211244 10.2346 0)
(-0.228371 10.2093 0)
(-0.243329 10.1825 0)
(-0.255927 10.1543 0)
(-0.265988 10.1251 0)
(-0.273067 10.0964 0)
(-0.277279 10.07 0)
(-0.279231 10.0462 0)
(-0.279478 10.0248 0)
(-0.278468 10.0057 0)
(-0.27656 9.98874 0)
(-0.274035 9.97362 0)
(-0.271112 9.9602 0)
(-0.267959 9.94828 0)
(-0.264702 9.93768 0)
(-0.261436 9.92825 0)
(-0.258205 9.91983 0)
(-0.25501 9.9123 0)
(-0.252485 9.90556 0)
(-0.00293411 6.61072 0)
(-0.00771896 8.08473 0)
(-0.0128261 9.01836 0)
(-0.0174553 9.69912 0)
(-0.0231921 10.11 0)
(-0.0316923 10.291 0)
(-0.0426257 10.3617 0)
(-0.0557653 10.3893 0)
(-0.0711534 10.3989 0)
(-0.088904 10.3992 0)
(-0.10916 10.3939 0)
(-0.13206 10.3842 0)
(-0.157691 10.3702 0)
(-0.185978 10.3512 0)
(-0.213845 10.3284 0)
(-0.23921 10.3035 0)
(-0.262514 10.2759 0)
(-0.283498 10.246 0)
(-0.301903 10.2141 0)
(-0.317492 10.1803 0)
(-0.330036 10.1452 0)
(-0.338966 10.1106 0)
(-0.344385 10.0786 0)
(-0.34702 10.0497 0)
(-0.347542 10.0236 0)
(-0.346495 10.0002 0)
(-0.344319 9.97937 0)
(-0.341359 9.96079 0)
(-0.337887 9.94425 0)
(-0.334109 9.92953 0)
(-0.330185 9.91643 0)
(-0.326235 9.90474 0)
(-0.322312 9.89431 0)
(-0.318422 9.88498 0)
(-0.315387 9.87662 0)
(-0.00369205 6.67272 0)
(-0.0100921 8.14489 0)
(-0.017299 9.06999 0)
(-0.0243153 9.7446 0)
(-0.0323692 10.1615 0)
(-0.043126 10.3509 0)
(-0.0564902 10.4259 0)
(-0.0723456 10.4555 0)
(-0.0908083 10.4656 0)
(-0.112051 10.4659 0)
(-0.136274 10.4598 0)
(-0.163672 10.4488 0)
(-0.194367 10.4329 0)
(-0.228299 10.4111 0)
(-0.261813 10.3848 0)
(-0.292408 10.3558 0)
(-0.32062 10.3236 0)
(-0.346136 10.2885 0)
(-0.368639 10.2508 0)
(-0.387834 10.2109 0)
(-0.403428 10.1691 0)
(-0.414692 10.1277 0)
(-0.4217 10.0893 0)
(-0.425308 10.0545 0)
(-0.426314 10.023 0)
(-0.425377 9.99465 0)
(-0.423025 9.9693 0)
(-0.419681 9.94666 0)
(-0.415675 9.92646 0)
(-0.411264 9.90845 0)
(-0.406647 9.89239 0)
(-0.40197 9.87806 0)
(-0.397301 9.86525 0)
(-0.392656 9.85378 0)
(-0.389089 9.84352 0)
(-0.00450207 6.74725 0)
(-0.0126341 8.21979 0)
(-0.0220666 9.13732 0)
(-0.0316381 9.80492 0)
(-0.0422566 10.225 0)
(-0.0555401 10.4206 0)
(-0.0716165 10.4992 0)
(-0.0904952 10.5303 0)
(-0.112376 10.5409 0)
(-0.137512 10.5409 0)
(-0.166166 10.5341 0)
(-0.198585 10.5217 0)
(-0.234954 10.5036 0)
(-0.275252 10.4788 0)
(-0.315175 10.4486 0)
(-0.351745 10.4153 0)
(-0.385609 10.3781 0)
(-0.416395 10.3373 0)
(-0.443718 10.2934 0)
(-0.467215 10.2465 0)
(-0.486517 10.1973 0)
(-0.500697 10.1483 0)
(-0.509768 10.1028 0)
(-0.514722 10.0612 0)
(-0.516502 10.0235 0)
(-0.515886 9.98947 0)
(-0.51351 9.95895 0)
(-0.509882 9.93161 0)
(-0.505403 9.90717 0)
(-0.500386 9.88533 0)
(-0.495078 9.86583 0)
(-0.48966 9.84839 0)
(-0.484212 9.83279 0)
(-0.478769 9.81883 0)
(-0.474671 9.80633 0)
(-0.00535677 6.83386 0)
(-0.0153273 8.30862 0)
(-0.0271157 9.21966 0)
(-0.0393843 9.87966 0)
(-0.0527795 10.3002 0)
(-0.0688347 10.5003 0)
(-0.0878829 10.5816 0)
(-0.110077 10.6138 0)
(-0.135716 10.6247 0)
(-0.165123 10.6245 0)
(-0.198642 10.6168 0)
(-0.2366 10.6029 0)
(-0.279257 10.5826 0)
(-0.326644 10.5547 0)
(-0.373746 10.5205 0)
(-0.41706 10.4825 0)
(-0.457361 10.4399 0)
(-0.494208 10.3931 0)
(-0.527144 10.3422 0)
(-0.555724 10.2879 0)
(-0.579493 10.2305 0)
(-0.597276 10.1731 0)
(-0.608988 10.1195 0)
(-0.615761 10.0704 0)
(-0.61869 10.0257 0)
(-0.618691 9.9853 0)
(-0.616514 9.94888 0)
(-0.612766 9.91617 0)
(-0.607928 9.88685 0)
(-0.602382 9.8606 0)
(-0.596427 9.83711 0)
(-0.590287 9.81608 0)
(-0.584055 9.79725 0)
(-0.577798 9.78038 0)
(-0.573202 9.76528 0)
(-0.00623768 6.93186 0)
(-0.0181535 8.41066 0)
(-0.0323927 9.31601 0)
(-0.0474897 9.968 0)
(-0.0638285 10.387 0)
(-0.0828817 10.5897 0)
(-0.105141 10.673 0)
(-0.130919 10.7061 0)
(-0.160612 10.7171 0)
(-0.194642 10.7165 0)
(-0.233444 10.7079 0)
(-0.277438 10.6925 0)
(-0.326972 10.67 0)
(-0.382147 10.6388 0)
(-0.437194 10.6004 0)
(-0.488033 10.5576 0)
(-0.535583 10.5094 0)
(-0.57933 10.4561 0)
(-0.618735 10.3981 0)
(-0.653265 10.3356 0)
(-0.68236 10.2694 0)
(-0.704548 10.2029 0)
(-0.719593 10.1405 0)
(-0.728767 10.083 0)
(-0.733328 10.0305 0)
(-0.734336 9.98287 0)
(-0.73267 9.9398 0)
(-0.729043 9.90101 0)
(-0.724032 9.86615 0)
(-0.718091 9.83487 0)
(-0.711586 9.80681 0)
(-0.70479 9.78166 0)
(-0.69781 9.7591 0)
(-0.690758 9.73888 0)
(-0.685736 9.72078 0)
(-0.00712767 7.04036 0)
(-0.021075 8.52492 0)
(-0.0378456 9.42523 0)
(-0.055862 10.0691 0)
(-0.0752939 10.4848 0)
(-0.0975243 10.6887 0)
(-0.123199 10.7732 0)
(-0.152792 10.8068 0)
(-0.186809 10.8178 0)
(-0.225784 10.8167 0)
(-0.270251 10.8072 0)
(-0.320728 10.7903 0)
(-0.377682 10.7656 0)
(-0.441313 10.7312 0)
(-0.505051 10.6886 0)
(-0.564192 10.6409 0)
(-0.619817 10.5869 0)
(-0.671336 10.527 0)
(-0.718122 10.4613 0)
(-0.759545 10.3904 0)
(-0.794928 10.3147 0)
(-0.822439 10.2384 0)
(-0.841633 10.1664 0)
(-0.853913 10.0998 0)
(-0.860704 10.0387 0)
(-0.86322 9.98305 0)
(-0.862475 9.93258 0)
(-0.859305 9.88697 0)
(-0.854387 9.84587 0)
(-0.848263 9.80889 0)
(-0.841372 9.77566 0)
(-0.834044 9.74581 0)
(-0.8264 9.71901 0)
(-0.81862 9.69496 0)
(-0.813299 9.67342 0)
(-0.00801693 7.15833 0)
(-0.0240513 8.65023 0)
(-0.0434249 9.54621 0)
(-0.0644064 10.1818 0)
(-0.0870461 10.5929 0)
(-0.112589 10.7966 0)
(-0.141842 10.8817 0)
(-0.175446 10.9155 0)
(-0.214019 10.9264 0)
(-0.258212 10.9248 0)
(-0.308667 10.9144 0)
(-0.366026 10.8962 0)
(-0.430889 10.8693 0)
(-0.503589 10.8318 0)
(-0.576725 10.7851 0)
(-0.644923 10.7324 0)
(-0.709445 10.6727 0)
(-0.769625 10.6059 0)
(-0.824746 10.5324 0)
(-0.874075 10.4527 0)
(-0.916798 10.3671 0)
(-0.950667 10.2804 0)
(-0.97495 10.1981 0)
(-0.991169 10.1217 0)
(-1.00091 10.0513 0)
(-1.00556 9.98685 0)
(-1.00626 9.92821 0)
(-1.00399 9.87504 0)
(-0.99953 9.82698 0)
(-0.993521 9.78364 0)
(-0.986488 9.74459 0)
(-0.978822 9.70946 0)
(-0.97066 9.67786 0)
(-0.962276 9.64946 0)
(-0.956844 9.62403 0)
(-0.00889463 7.28463 0)
(-0.0270466 8.78531 0)
(-0.0490609 9.67765 0)
(-0.0730375 10.3049 0)
(-0.0989383 10.7104 0)
(-0.127894 10.9127 0)
(-0.16085 10.9977 0)
(-0.198613 11.0316 0)
(-0.241923 11.0424 0)
(-0.291547 11.0403 0)
(-0.348255 11.0291 0)
(-0.412829 11.0096 0)
(-0.486023 10.9807 0)
(-0.568337 10.9402 0)
(-0.651519 10.8896 0)
(-0.729486 10.8322 0)
(-0.803703 10.7667 0)
(-0.873435 10.6931 0)
(-0.937874 10.6118 0)
(-0.996171 10.5231 0)
(-1.04738 10.4273 0)
(-1.08875 10.3297 0)
(-1.11919 10.2366 0)
(-1.14031 10.1497 0)
(-1.15387 10.0693 0)
(-1.16139 9.99536 0)
(-1.16419 9.92781 0)
(-1.16337 9.86636 0)
(-1.15984 9.81063 0)
(-1.15435 9.76022 0)
(-1.14751 9.71471 0)
(-1.13978 9.67368 0)
(-1.13133 9.63671 0)
(-1.12253 9.60345 0)
(-1.11725 9.57362 0)
(-0.00974991 7.41802 0)
(-0.0300263 8.92883 0)
(-0.05468 9.81816 0)
(-0.0816533 10.437 0)
(-0.11083 10.8361 0)
(-0.143252 11.0361 0)
(-0.17999 11.1207 0)
(-0.22201 11.1544 0)
(-0.270181 11.165 0)
(-0.325392 11.1625 0)
(-0.388553 11.1507 0)
(-0.460599 11.13 0)
(-0.542464 11.0994 0)
(-0.634853 11.0562 0)
(-0.728653 11.0018 0)
(-0.817041 10.94 0)
(-0.901709 10.869 0)
(-0.981867 10.7888 0)
(-1.05661 10.6998 0)
(-1.12498 10.602 0)
(-1.18587 10.4959 0)
(-1.23599 10.3871 0)
(-1.27376 10.2828 0)
(-1.30088 10.1849 0)
(-1.31924 10.0938 0)
(-1.33053 10.0098 0)
(-1.33622 9.93262 0)
(-1.33754 9.86218 0)
(-1.33553 9.7981 0)
(-1.33106 9.73996 0)
(-1.32485 9.68734 0)
(-1.31744 9.63979 0)
(-1.30899 9.59686 0)
(-1.30006 9.55819 0)
(-1.29528 9.52346 0)
(-0.0105705 7.55722 0)
(-0.0329553 9.07935 0)
(-0.0602148 9.96623 0)
(-0.0901504 10.5769 0)
(-0.122585 10.9689 0)
(-0.158482 11.1659 0)
(-0.199031 11.2496 0)
(-0.24536 11.2831 0)
(-0.298454 11.2934 0)
(-0.359344 11.2907 0)
(-0.429087 11.2783 0)
(-0.508781 11.2567 0)
(-0.599567 11.2246 0)
(-0.702397 11.1791 0)
(-0.807294 11.1215 0)
(-0.906669 11.0555 0)
(-1.00249 10.9793 0)
(-1.09391 10.893 0)
(-1.17992 10.7964 0)
(-1.25948 10.6898 0)
(-1.33132 10.5735 0)
(-1.39151 10.4534 0)
(-1.43792 10.3376 0)
(-1.47225 10.2283 0)
(-1.49655 10.1261 0)
(-1.51263 10.0313 0)
(-1.52212 9.94394 0)
(-1.52639 9.86387 0)
(-1.52663 9.79077 0)
(-1.52382 9.72426 0)
(-1.51879 9.6639 0)
(-1.51217 9.60922 0)
(-1.50413 9.55977 0)
(-1.49542 9.51515 0)
(-1.49158 9.475 0)
(-0.0113473 7.70092 0)
(-0.0357997 9.23545 0)
(-0.0656049 10.1204 0)
(-0.0984351 10.7229 0)
(-0.134074 11.1076 0)
(-0.173409 11.301 0)
(-0.217752 11.3836 0)
(-0.268388 11.4167 0)
(-0.326416 11.4269 0)
(-0.393011 11.4239 0)
(-0.469387 11.4112 0)
(-0.556821 11.3889 0)
(-0.656686 11.3557 0)
(-0.770215 11.3082 0)
(-0.886572 11.2479 0)
(-0.997419 11.1783 0)
(-1.10502 11.0975 0)
(-1.20846 11.0054 0)
(-1.30669 10.9018 0)
(-1.39854 10.7868 0)
(-1.48262 10.6604 0)
(-1.55428 10.5292 0)
(-1.61071 10.4018 0)
(-1.6536 10.2808 0)
(-1.68508 10.1672 0)
(-1.70711 10.0612 0)
(-1.72146 9.96314 0)
(-1.72965 9.87288 0)
(-1.73299 9.79019 0)
(-1.73259 9.71471 0)
(-1.72941 9.64601 0)
(-1.72418 9.58363 0)
(-1.71705 9.52709 0)
(-1.70903 9.47599 0)
(-1.70669 9.42991 0)
(-0.0120685 7.84776 0)
(-0.0385247 9.39564 0)
(-0.0707891 10.2792 0)
(-0.106417 10.8738 0)
(-0.145173 11.2509 0)
(-0.187871 11.4403 0)
(-0.235951 11.5215 0)
(-0.290843 11.5542 0)
(-0.35376 11.5643 0)
(-0.426025 11.5613 0)
(-0.509011 11.5484 0)
(-0.604192 11.5258 0)
(-0.713195 11.4918 0)
(-0.83756 11.4429 0)
(-0.965623 11.3803 0)
(-1.08833 11.3078 0)
(-1.20824 11.2231 0)
(-1.32439 11.1259 0)
(-1.43571 11.0159 0)
(-1.54094 10.893 0)
(-1.63855 10.7571 0)
(-1.72312 10.6149 0)
(-1.79104 10.4761 0)
(-1.84392 10.3435 0)
(-1.88398 10.2182 0)
(-1.91328 10.1007 0)
(-1.9337 9.99156 0)
(-1.94692 9.89065 0)
(-1.95437 9.79785 0)
(-1.9573 9.71287 0)
(-1.95681 9.63531 0)
(-1.9537 9.56471 0)
(-1.94813 9.50058 0)
(-1.9414 9.44252 0)
(-1.94124 9.39004 0)
(-0.0127372 7.99658 0)
(-0.0411141 9.55864 0)
(-0.0757267 10.4413 0)
(-0.11403 11.0282 0)
(-0.155781 11.3975 0)
(-0.201734 11.5828 0)
(-0.253454 11.6625 0)
(-0.312502 11.6948 0)
(-0.380209 11.7049 0)
(-0.458044 11.702 0)
(-0.547546 11.6892 0)
(-0.650401 11.6665 0)
(-0.768501 11.6322 0)
(-0.903713 11.5824 0)
(-1.04363 11.5182 0)
(-1.17847 11.4434 0)
(-1.31108 11.3555 0)
(-1.44055 11.254 0)
(-1.56576 11.1384 0)
(-1.6854 11.0084 0)
(-1.79782 10.8637 0)
(-1.89679 10.7113 0)
(-1.97778 10.5614 0)
(-2.04224 10.4173 0)
(-2.09241 10.2803 0)
(-2.13044 10.1513 0)
(-2.15832 10.0307 0)
(-2.17786 9.91883 0)
(-2.19065 9.81556 0)
(-2.19805 9.72068 0)
(-2.20131 9.63383 0)
(-2.2013 9.55455 0)
(-2.19816 9.48238 0)
(-2.19353 9.41692 0)
(-2.19654 9.35757 0)
(-0.0133141 8.14599 0)
(-0.043499 9.72286 0)
(-0.0803379 10.605 0)
(-0.121181 11.1846 0)
(-0.165792 11.5462 0)
(-0.214864 11.7271 0)
(-0.270098 11.8053 0)
(-0.333168 11.8373 0)
(-0.405519 11.8474 0)
(-0.488774 11.8448 0)
(-0.584631 11.8323 0)
(-0.695008 11.8099 0)
(-0.822058 11.7757 0)
(-0.968006 11.7256 0)
(-1.1198 11.6606 0)
(-1.2669 11.5842 0)
(-1.41251 11.494 0)
(-1.55578 11.3891 0)
(-1.69558 11.2689 0)
(-1.83059 11.1327 0)
(-1.95909 10.9801 0)
(-2.07396 10.8182 0)
(-2.16964 10.6579 0)
(-2.24734 10.5027 0)
(-2.30934 10.3542 0)
(-2.35786 10.2137 0)
(-2.39502 10.0818 0)
(-2.4227 9.95888 0)
(-2.44258 9.84505 0)
(-2.45611 9.74013 0)
(-2.46462 9.6438 0)
(-2.46906 9.55564 0)
(-2.46953 9.47522 0)
(-2.46801 9.40213 0)
(-2.47528 9.33558 0)
(0.00125803 10.0001 0)
(0.0011865 10.0001 0)
(0.00111744 10.0001 0)
(0.00105027 10.0001 -7.45672e-19)
(0.000985163 10.0001 0)
(0.000922163 10.0001 0)
(0.000861265 10.0001 0)
(0.000802458 10.0001 0)
(0.000745717 10.0001 8.44957e-19)
(0.000691008 10.0001 0)
(0.000638287 10 0)
(0.000587831 10 -8.91375e-19)
(0.000540688 10 0)
(0.000497288 10 -8.70084e-19)
(0.000457232 10 0)
(0.000420126 10 0)
(0.000385613 10 0)
(0.000353379 10 8.10734e-19)
(0.000323154 10 0)
(0.000294709 10 3.90446e-19)
(0.000267866 10 0)
(0.000242271 10 0)
(0.00330915 10.0017 0)
(0.00313698 10.0016 0)
(0.00297042 10.0015 0)
(0.00280747 10.0014 7.86698e-19)
(0.0026482 10.0013 0)
(0.00249276 10.0012 0)
(0.00234123 10.0012 -1.69597e-18)
(0.00219366 10.0011 0)
(0.00205002 10.001 -2.67243e-18)
(0.00191028 10.001 1.82532e-18)
(0.00177434 10.0009 1.86404e-18)
(0.00164307 10.0008 9.39564e-19)
(0.00151971 10.0008 0)
(0.00140576 10.0008 9.17418e-19)
(0.00130014 10.0007 0)
(0.00120185 10.0007 0)
(0.00111 10.0007 0)
(0.0010238 10.0006 -2.56591e-18)
(0.000942551 10.0006 0)
(0.000865683 10.0006 -4.12045e-19)
(0.000792908 10.0006 0)
(0.000723646 10.0006 -8.35236e-19)
(0.00399009 10.0042 0)
(0.00378701 10.004 0)
(0.00359137 10.0038 0)
(0.00340117 10.0036 0)
(0.00321628 10.0034 0)
(0.00303696 10.0032 1.73781e-18)
(0.00286332 10.003 1.78145e-18)
(0.00269541 10.0028 0)
(0.00253321 10.0026 1.86989e-18)
(0.00237665 10.0025 -1.91508e-18)
(0.0022256 10.0023 -1.95491e-18)
(0.00208084 10.0022 0)
(0.0019456 10.0021 0)
(0.00182106 10.002 0)
(0.00170579 10.0019 1.89306e-18)
(0.00159852 10.0018 0)
(0.00149818 10.0017 0)
(0.00140378 10.0016 1.79717e-18)
(0.00131446 10.0016 0)
(0.00122947 10.0015 0)
(0.00114855 10.0015 0)
(0.00107183 10.0015 8.78268e-19)
(0.00320937 10.0066 0)
(0.0030472 10.0063 0)
(0.00289071 10.0059 0)
(0.00274201 10.0056 -1.73758e-18)
(0.00260076 10.0053 0)
(0.00246705 10.005 1.82457e-18)
(0.00234096 10.0046 0)
(0.00222247 10.0044 0)
(0.00211147 10.0041 0)
(0.00200776 10.0038 0)
(0.00191103 10.0036 -4.097e-18)
(0.00182155 10.0033 0)
(0.00174094 10.0031 0)
(0.0016692 10.0029 0)
(0.00160467 10.0028 1.98566e-18)
(0.001546 10.0026 3.9062e-18)
(0.00149199 10.0025 0)
(0.00144165 10.0024 0)
(0.00139407 10.0024 0)
(0.00134851 10.0023 0)
(0.00130466 10.0022 1.78672e-18)
(0.00126268 10.0022 0)
(0.000904876 10.0086 -3.08634e-18)
(0.000847941 10.0081 0)
(0.000792666 10.0076 -3.56292e-18)
(0.000749483 10.0071 1.82585e-18)
(0.000717837 10.0066 0)
(0.00069748 10.0062 -3.83235e-18)
(0.000688309 10.0057 -3.92434e-18)
(0.000690144 10.0053 -4.01792e-18)
(0.00070267 10.0049 0)
(0.000725437 10.0045 0)
(0.000757817 10.0042 4.29238e-18)
(0.000798772 10.0039 0)
(0.00084602 10.0036 0)
(0.000896768 10.0033 0)
(0.000949266 10.0031 -8.32921e-18)
(0.00100214 10.0029 -4.09741e-18)
(0.00105427 10.0028 0)
(0.00110472 10.0026 -3.96144e-18)
(0.00115274 10.0025 0)
(0.00119772 10.0024 3.82376e-18)
(0.00123908 10.0024 -1.87723e-18)
(0.0012764 10.0023 0)
(-0.0031192 10.0096 3.24512e-18)
(-0.00299701 10.009 -3.65152e-18)
(-0.00288129 10.0083 7.48315e-18)
(-0.00274696 10.0076 3.83301e-18)
(-0.00259476 10.007 0)
(-0.00242557 10.0064 0)
(-0.00223982 10.0058 4.11497e-18)
(-0.00203796 10.0053 4.21136e-18)
(-0.00182065 10.0047 0)
(-0.00158876 10.0042 0)
(-0.00134341 10.0038 0)
(-0.00108776 10.0033 0)
(-0.000830444 10.003 0)
(-0.000578708 10.0027 4.4326e-18)
(-0.000334363 10.0024 4.36428e-18)
(-9.87004e-05 10.0022 -4.29646e-18)
(0.000127304 10.002 0)
(0.000342912 10.0018 4.15615e-18)
(0.000547673 10.0017 0)
(0.000741299 10.0017 6.87205e-22)
(0.000922508 10.0016 3.94365e-18)
(0.00108884 10.0016 -4.07398e-18)
(-0.00913534 10.0095 -3.41027e-18)
(-0.00874669 10.0086 3.83336e-18)
(-0.00837856 10.0077 -3.92649e-18)
(-0.00798263 10.0069 7.88597e-22)
(-0.00755981 10.006 4.11765e-18)
(-0.00711202 10.0053 0)
(-0.00664018 10.0045 0)
(-0.00614517 10.0038 0)
(-0.00562817 10.0031 0)
(-0.0050907 10.0025 9.22648e-18)
(-0.0045346 10.0019 0)
(-0.00396611 10.0014 0)
(-0.00340316 10.001 0)
(-0.00285938 10.0006 -4.6388e-18)
(-0.00233659 10.0003 0)
(-0.00183591 10 9.00244e-18)
(-0.00135803 9.99984 0)
(-0.000903357 9.99969 0)
(-0.00047185 9.99959 0)
(-6.32396e-05 9.99953 -4.21303e-18)
(0.000319965 9.9995 -4.13957e-18)
(0.000671156 9.9995 4.27614e-18)
(-0.0175221 10.0078 3.58075e-18)
(-0.016759 10.0066 0)
(-0.0160391 10.0055 0)
(-0.0152791 10.0044 -8.4325e-18)
(-0.0144801 10.0034 1.94907e-21)
(-0.0136456 10.0024 -4.4162e-18)
(-0.0127773 10.0015 -9.03459e-18)
(-0.0118767 10.0006 0)
(-0.0109457 9.99974 -9.44403e-18)
(-0.00998674 9.99898 5.42332e-21)
(-0.00900274 9.99828 -9.83e-18)
(-0.00800422 9.99767 9.89763e-18)
(-0.00702183 9.99715 0)
(-0.00607796 9.99672 0)
(-0.00517431 9.99639 0)
(-0.00431167 9.99613 4.71813e-18)
(-0.00349028 9.99594 0)
(-0.00271003 9.99581 0)
(-0.0019701 9.99574 0)
(-0.00126936 9.99572 0)
(-0.000612207 9.99574 0)
(-1.21346e-05 9.9958 0)
(-0.0287678 10.0043 0)
(-0.0274945 10.0028 0)
(-0.0262992 10.0014 4.31957e-18)
(-0.0250478 10 -3.06436e-21)
(-0.0237419 9.99869 4.52581e-18)
(-0.0223873 9.99744 1.3873e-17)
(-0.0209868 9.99627 9.45128e-18)
(-0.0195426 9.99518 0)
(-0.0180579 9.99417 9.86995e-18)
(-0.0165364 9.99325 -1.00807e-17)
(-0.0149823 9.99243 1.02628e-17)
(-0.0134121 9.99172 9.13285e-21)
(-0.0118732 9.99113 0)
(-0.0103995 9.99067 0)
(-0.00899249 9.99032 0)
(-0.00765235 9.99007 8.80078e-21)
(-0.00637862 9.98991 0)
(-0.00517039 9.98983 0)
(-0.00402572 9.98982 0)
(-0.00294216 9.98987 0)
(-0.00192683 9.98998 0)
(-0.00100358 9.99014 0)
(-0.0434555 9.99857 0)
(-0.0415023 9.9967 4.42299e-18)
(-0.0396786 9.9949 -9.04764e-18)
(-0.0377785 9.99318 4.62545e-18)
(-0.0358046 9.99154 -9.46049e-18)
(-0.0337659 9.98999 1.05383e-20)
(-0.0316666 9.98855 -9.89567e-18)
(-0.0295103 9.98722 0)
(-0.0273016 9.98601 0)
(-0.0250459 9.98491 0)
(-0.0227497 9.98396 0)
(-0.0204366 9.98314 -1.07833e-17)
(-0.0181762 9.98249 0)
(-0.0160172 9.98201 0)
(-0.0139604 9.98167 0)
(-0.0120051 9.98146 -1.03181e-17)
(-0.0101499 9.98136 0)
(-0.00839251 9.98136 -1.00329e-17)
(-0.00672951 9.98145 -9.87977e-18)
(-0.00515657 9.98161 4.86216e-18)
(-0.00368438 9.98185 0)
(-0.00235156 9.98214 4.94106e-18)