# Time currentProc (coordinatesa coordinatesb coordinatesc coordinatesd) celli tetFacei tetPti facei stepFraction behind nBehind origProc origId active typeId nParticle d dTarget  (Ux Uy Uz) rho age tTurb (UTurbx UTurby UTurbz) T Cp mass0 nPhases(Y1..YN)
0.0320932 3 (0 0.410698 0.5 0.0893023) 245 15554 2 15554 0.607006 0 0 0 17499 1 -1 0.0442441 0.00023262 0 (-10.7502 4.65316 0) 677.768 0.0233548 0 (0 0 0) 302.6 2255.48 1.15834e-09 1(1) 0.000149455 (-6.11842e-05 -0.295 1.35525e-19) 0.0193744 0.000367034 0 1 0 0 -4.5036e+15 0 1 0.0179062 0
0.0321244 3 (0 0.0368946 0.5 0.463105) 245 15554 2 15554 0.90966 0 0 0 16457 1 -1 0.0357226 0.000245181 0 (-10.8703 4.44683 0) 677.197 0.0239115 0 (0 0 0) 303.268 2257.97 1.16736e-09 1(1) 0.000149842 (-6.36377e-05 -0.295 8.13152e-20) 0.0193063 0.000364572 0 1 0 0 -4.5036e+15 0 1 0.0192852 0
0.03214 1 (0 0.404312 0.0956884 0.5) 2791 15702 1 15702 0.483356 0 0 0 18288 1 -1 0.0533189 0.00022142 0 (10.6725 5.39042 0) 678.337 0.0230066 0 (0 0 0) 301.932 2253 1.12084e-09 1(1) 0.000147824 (6.795e-05 -0.295 0) 0.0194426 0.000369527 0 1 0 0 -4.5036e+15 0 1 0.0164867 0
0.03214 1 (0 0.163358 0.336642 0.5) 2791 15702 1 15702 0.48089 0 0 0 18609 1 -1 0.056263 0.000218588 0 (10.6541 5.47095 0) 678.469 0.0228435 0 (0 0 0) 301.778 2252.42 1.13448e-09 1(1) 0.000148421 (6.79495e-05 -0.295 -5.42101e-20) 0.0194583 0.000370107 0 1 0 0 -4.5036e+15 0 1 0.0161686 0
0.0321555 1 (0 0.5 0.159644 0.340356) 2811 15703 2 15703 0.756942 0 0 0 16036 1 -1 0.0335483 0.000248474 0 (10.9446 4.92366 0) 677.079 0.0241535 0 (0 0 0) 303.407 2258.49 1.15593e-09 1(1) 0.000149351 (7.36625e-05 -0.295 5.42101e-20) 0.0192922 0.000364065 0 1 0 0 -4.5036e+15 0 1 0.0194225 0
0.0321555 1 (0 0.0779763 0.422024 0.5) 2530 15692 1 15692 0.914429 0 0 0 17231 1 -1 0.0422492 0.00023512 0 (10.7548 4.39396 0) 677.655 0.0235564 0 (0 0 0) 302.732 2255.97 1.13726e-09 1(1) 0.000148542 (5.551e-05 -0.295 5.42101e-20) 0.019361 0.000366546 0 1 0 0 -4.5036e+15 0 1 0.0182669 0
0.0321555 1 (0 0.0526595 0.447341 0.5) 2437 15729 1 15729 0.139492 0 0 0 17797 1 -1 0.0465791 0.000229875 0 (10.6875 4.3582 0) 677.888 0.0232647 0 (0 0 0) 302.459 2254.95 1.16266e-09 1(1) 0.00014964 (5.19677e-05 -0.295 0) 0.0193888 0.000367558 0 1 0 0 -4.5036e+15 0 1 0.0177449 0
0.0321555 3 (0 0.248254 0.5 0.251746) 490 15561 2 15561 0.533896 0 0 0 17821 1 -1 0.0493793 0.000225305 0 (-10.6415 5.48995 0) 678.172 0.0232544 0 (0 0 0) 302.127 2253.72 1.11379e-09 1(1) 0.000147513 (-7.3888e-05 -0.295 5.42101e-20) 0.0194228 0.000368798 0 1 0 0 -4.5036e+15 0 1 0.0168926 0
0.0321711 1 (0 0.5 0.479651 0.020349) 2811 15703 2 15703 0.207655 0 0 0 18308 1 -1 0.0541394 0.000220255 0 (10.6483 5.51777 0) 678.406 0.0230216 0 (0 0 0) 301.851 2252.7 1.108e-09 1(1) 0.000147257 (6.96416e-05 -0.295 5.42101e-20) 0.0194508 0.000369831 0 1 0 0 -4.5036e+15 0 1 0.016334 0
0.0321711 1 (0 0.380211 0.119789 0.5) 2676 15697 1 15697 0.337554 0 0 0 16972 1 -1 0.0409473 0.000236431 0 (10.7904 4.65444 0) 677.612 0.0236917 0 (0 0 0) 302.782 2256.16 1.11455e-09 1(1) 0.000147547 (6.14828e-05 -0.295 5.42101e-20) 0.0193558 0.000366359 0 1 0 0 -4.5036e+15 0 1 0.0182959 0
0.0321711 1 (0 0.5 0.0204808 0.479519) 2701 15698 2 15698 0.264058 0 0 0 17892 1 -1 0.0493397 0.000225735 0 (10.6804 4.88016 0) 678.114 0.0232319 0 (0 0 0) 302.194 2253.97 1.10865e-09 1(1) 0.000147286 (6.02492e-05 -0.295 0) 0.0194158 0.000368545 0 1 0 0 -4.5036e+15 0 1 0.0171222 0
0.0321711 1 (0 0.5 0.420473 0.0795265) 2676 15697 2 15697 0.461568 0 0 0 19002 1 -1 0.0594023 0.000216062 0 (10.5953 5.03314 0) 678.556 0.0226781 0 (0 0 0) 301.675 2252.04 1.16334e-09 1(1) 0.000149669 (5.76313e-05 -0.295 0) 0.0194689 0.000370496 0 1 0 0 -4.5036e+15 0 1 0.0160827 0
0.0321711 3 (0 0.5 0.0762648 0.423735) 385 15558 1 15558 0.816585 0 0 0 19354 1 -1 0.063544 0.000212412 0 (-10.5343 5.38193 0) 678.749 0.0225079 0 (0 0 0) 301.448 2251.2 1.16589e-09 1(1) 0.000149779 (-6.38647e-05 -0.295 2.71051e-20) 0.019492 0.000371353 0 1 0 0 -4.5036e+15 0 1 0.0156193 0
0.0321866 1 (0 0.5 0.138875 0.361125) 2791 15702 2 15702 0.683631 0 0 0 16616 1 -1 0.0389156 0.000238909 0 (10.8231 4.99204 0) 677.525 0.0238911 0 (0 0 0) 302.885 2256.54 1.10044e-09 1(1) 0.000146922 (6.98648e-05 -0.295 5.42101e-20) 0.0193454 0.000365981 0 1 0 0 -4.5036e+15 0 1 0.0184272 0
0.0321866 1 (0 0.220855 0.279145 0.5) 2811 15703 1 15703 0.427132 0 0 0 19366 1 -1 0.0643376 0.000211505 0 (10.5839 5.73866 0) 678.817 0.0225114 0 (0 0 0) 301.369 2250.91 1.15828e-09 1(1) 0.000149452 (6.86045e-05 -0.295 5.42101e-20) 0.0195001 0.000371653 0 1 0 0 -4.5036e+15 0 1 0.0153722 0
0.0321866 3 (0 0.446012 0.5 0.0539884) 420 15559 2 15559 0.239491 0 0 0 17296 1 -1 0.0437269 0.000230761 0 (-10.683 5.1341 0) 677.907 0.023544 0 (0 0 0) 302.436 2254.87 1.09603e-09 1(1) 0.000146725 (-6.95204e-05 -0.295 2.71051e-20) 0.0193911 0.000367643 0 1 0 0 -4.5036e+15 0 1 0.0175842 0
0.0321866 3 (0 0.178282 0.5 0.321718) 350 15557 2 15557 0.94752 0 0 0 19394 1 -1 0.0641853 0.000211837 0 (-10.5158 5.337 0) 678.778 0.0225061 0 (0 0 0) 301.415 2251.08 1.16164e-09 1(1) 0.000149596 (-6.25496e-05 -0.295 1.0842e-19) 0.0194954 0.000371479 0 1 0 0 -4.5036e+15 0 1 0.0155851 0
0.0321866 3 (0 0.424065 0.5 0.0759346) 350 15557 2 15557 0.857378 0 0 0 19313 1 -1 0.0632603 0.000212574 0 (-10.5183 5.30033 0) 678.742 0.0225443 0 (0 0 0) 301.457 2251.24 1.15952e-09 1(1) 0.000149505 (-6.22572e-05 -0.295 5.42101e-20) 0.0194911 0.000371319 0 1 0 0 -4.5036e+15 0 1 0.0156747 0
0.0321866 3 (0 0.5 0.269758 0.230242) 105 15550 1 15550 0.265985 0 0 0 18180 1 -1 0.0497425 0.000224475 0 (-10.5896 4.54803 0) 678.153 0.0231028 0 (0 0 0) 302.148 2253.8 1.14792e-09 1(1) 0.000149005 (-5.41388e-05 -0.295 8.13152e-20) 0.0194206 0.000368719 0 1 0 0 -4.5036e+15 0 1 0.0171624 0
0.0322021 1 (0 0.334707 0.165293 0.5) 2851 15705 1 15705 0.815071 0 0 0 18474 1 -1 0.0567906 0.000217353 0 (10.5955 5.86216 0) 678.573 0.0229787 0 (0 0 0) 301.655 2251.97 1.09703e-09 1(1) 0.00014677 (7.46732e-05 -0.295 5.42101e-20) 0.0194709 0.000370569 0 1 0 0 -4.5036e+15 0 1 0.01594 0
0.0322021 3 (0 0.352299 0.5 0.147701) 140 15551 2 15551 0.826674 0 0 0 16351 1 -1 0.034444 0.000245901 0 (-10.8213 4.23632 0) 677.173 0.0240413 0 (0 0 0) 303.297 2258.08 1.14868e-09 1(1) 0.000149038 (-5.92045e-05 -0.295 5.42101e-20) 0.0193034 0.000364468 0 1 0 0 -4.5036e+15 0 1 0.0194815 0
0.0322176 1 (0 0.5 0.303437 0.196563) 2748 15700 2 15700 0.568703 0 0 0 16804 1 -1 0.0407353 0.000236013 0 (10.768 4.87712 0) 677.657 0.023825 0 (0 0 0) 302.73 2255.96 1.08002e-09 1(1) 0.000146007 (6.56933e-05 -0.295 5.42101e-20) 0.0193612 0.000366553 0 1 0 0 -4.5036e+15 0 1 0.0181901 0
0.0322176 1 (0 0.5 0.190245 0.309755) 2367 15727 2 15727 0.958258 0 0 0 18063 1 -1 0.0493917 0.000226389 0 (10.5796 4.24821 0) 678.06 0.0232053 0 (0 0 0) 302.258 2254.2 1.15249e-09 1(1) 0.000149203 (4.75096e-05 -0.295 -5.42101e-20) 0.0194094 0.000368308 0 1 0 0 -4.5036e+15 0 1 0.0174778 0
0.0322176 3 (0 0.5 0.431198 0.0688016) 140 15551 1 15551 0.124369 0 0 0 16424 1 -1 0.0358248 0.000244703 0 (-10.8008 4.21937 0) 677.227 0.0240122 0 (0 0 0) 303.234 2257.84 1.14475e-09 1(1) 0.000148868 (-5.83314e-05 -0.295 8.13152e-20) 0.0193098 0.000364697 0 1 0 0 -4.5036e+15 0 1 0.0193679 0
0.0322176 3 (0 0.416066 0.5 0.0839337) 35 15548 2 15548 0.303176 0 0 0 16340 1 -1 0.0340189 0.000246951 0 (-10.8145 4.06952 0) 677.122 0.0240579 0 (0 0 0) 303.357 2258.3 1.15983e-09 1(1) 0.000149519 (-5.61715e-05 -0.295 1.35525e-19) 0.0192972 0.000364248 0 1 0 0 -4.5036e+15 0 1 0.0196634 0
0.0322331 1 (0 0.148574 0.351426 0.5) 2791 15702 1 15702 0.352554 0 0 0 19520 1 -1 0.0654227 0.000209295 0 (10.536 5.68245 0) 678.929 0.0224821 0 (0 0 0) 301.237 2250.43 1.14015e-09 1(1) 0.000148668 (6.58309e-05 -0.295 5.42101e-20) 0.0195136 0.000372154 0 1 0 0 -4.5036e+15 0 1 0.0151878 0
0.0322331 3 (0 0.5 0.12307 0.37693) 455 15560 1 15560 0.798396 0 0 0 19739 1 -1 0.0688451 0.000208031 0 (-10.4693 5.69356 0) 678.989 0.0223805 0 (0 0 0) 301.167 2250.17 1.15844e-09 1(1) 0.000149459 (-6.69275e-05 -0.295 -2.71051e-20) 0.0195208 0.000372423 0 1 0 0 -4.5036e+15 0 1 0.015094 0
0.0322331 3 (0 0.5 0.279806 0.220194) 315 15556 1 15556 0.999595 0 0 0 19090 1 -1 0.0605206 0.000213341 0 (-10.4845 5.16349 0) 678.716 0.0227046 0 (0 0 0) 301.487 2251.35 1.12383e-09 1(1) 0.000147955 (-5.98302e-05 -0.295 1.35525e-19) 0.0194881 0.000371207 0 1 0 0 -4.5036e+15 0 1 0.0158235 0
0.0322485 1 (0 0.304055 0.195945 0.5) 2831 15704 1 15704 0.736121 0 0 0 19905 1 -1 0.0710279 0.000206268 0 (10.5123 5.9789 0) 679.088 0.022311 0 (0 0 0) 301.05 2249.74 1.16939e-09 1(1) 0.000149928 (6.96324e-05 -0.295 0) 0.0195327 0.000372868 0 1 0 0 -4.5036e+15 0 1 0.0147886 0
0.0322485 3 (0 0.419157 0.5 0.0808427) 350 15557 2 15557 0.951255 0 0 0 16045 1 -1 0.0342256 0.000246755 0 (-10.8259 4.64885 0) 677.166 0.0242424 0 (0 0 0) 303.305 2258.11 1.11294e-09 1(1) 0.000147476 (-6.79729e-05 -0.295 -2.71051e-20) 0.0193025 0.000364436 0 1 0 0 -4.5036e+15 0 1 0.0194289 0
0.0322485 3 (0 0.263996 0.5 0.236004) 385 15558 2 15558 0.927417 0 0 0 19674 1 -1 0.0683508 0.000208233 0 (-10.4509 5.51268 0) 678.971 0.0224271 0 (0 0 0) 301.187 2250.24 1.14876e-09 1(1) 0.000149041 (-6.3403e-05 -0.295 2.71051e-20) 0.0195187 0.000372344 0 1 0 0 -4.5036e+15 0 1 0.0151859 0
0.0322485 3 (0 0.0534516 0.5 0.446548) 0 15547 2 15547 0.906156 0 0 0 18970 1 -1 0.0589576 0.000216437 0 (-10.4529 4.6101 0) 678.539 0.0227788 0 (0 0 0) 301.695 2252.12 1.15966e-09 1(1) 0.000149511 (-5.03789e-05 -0.295 2.71051e-20) 0.0194668 0.000370421 0 1 0 0 -4.5036e+15 0 1 0.016361 0
0.0322639 1 (0 0.00367334 0.496327 0.5) 2770 15701 1 15701 0.868078 0 0 0 18080 1 -1 0.0538129 0.000219794 0 (10.5712 5.36722 0) 678.451 0.023238 0 (0 0 0) 301.799 2252.5 1.04437e-09 1(1) 0.000144383 (6.58868e-05 -0.295 5.42101e-20) 0.0194562 0.000370028 0 1 0 0 -4.5036e+15 0 1 0.0163891 0
0.0322639 1 (0 0.5 0.0240089 0.475991) 2650 15696 2 15696 0.808639 0 0 0 17347 1 -1 0.0455257 0.000229528 0 (10.6407 4.67633 0) 677.956 0.0236065 0 (0 0 0) 302.38 2254.66 1.06564e-09 1(1) 0.000145357 (5.78557e-05 -0.295 5.42101e-20) 0.0193969 0.000367853 0 1 0 0 -4.5036e+15 0 1 0.0176389 0
0.0322639 3 (0 0.219215 0.5 0.280785) 525 15562 2 15562 0.989634 0 0 0 18173 1 -1 0.0536211 0.000218731 0 (-10.4978 5.77003 0) 678.527 0.0231937 0 (0 0 0) 301.709 2252.17 1.0637e-09 1(1) 0.000145268 (-7.52307e-05 -0.295 2.71051e-20) 0.0194653 0.000370366 0 1 0 0 -4.5036e+15 0 1 0.0161829 0
0.0322639 3 (0 0.5 0.469555 0.0304453) 315 15556 1 15556 0.626778 0 0 0 15588 1 -1 0.0302007 0.000254953 0 (-10.923 4.37064 0) 676.785 0.0244851 0 (0 0 0) 303.751 2259.78 1.15225e-09 1(1) 0.000149193 (-6.63529e-05 -0.295 8.13152e-20) 0.0192571 0.000362811 0 1 0 0 -4.5036e+15 0 1 0.0203787 0
0.0322639 3 (0 0.162967 0.5 0.337033) 210 15553 2 15553 0.785232 0 0 0 19274 1 -1 0.063463 0.000212162 0 (-10.441 5.01787 0) 678.765 0.02264 0 (0 0 0) 301.429 2251.14 1.13895e-09 1(1) 0.000148616 (-5.59633e-05 -0.295 5.42101e-20) 0.0194939 0.000371424 0 1 0 0 -4.5036e+15 0 1 0.0157733 0
0.0322639 3 (0 0.5 0.351731 0.148269) 35 15548 1 15548 0.468774 0 0 0 18360 1 -1 0.053517 0.000221296 0 (-10.4903 4.52084 0) 678.321 0.0230943 0 (0 0 0) 301.951 2253.07 1.12456e-09 1(1) 0.000147987 (-5.13667e-05 -0.295 5.42101e-20) 0.0194406 0.000369455 0 1 0 0 -4.5036e+15 0 1 0.0168952 0
0.0322793 0 (0 0.5 0.420769 0.0792309) 2885 15723 1 15723 0.266039 0 0 0 17796 1 -1 0.0471434 0.000228901 0 (-10.522 4.07155 0) 677.954 0.0233915 0 (0 0 0) 302.382 2254.67 1.14108e-09 1(1) 0.000148709 (-4.63451e-05 -0.295 5.42101e-20) 0.0193967 0.000367845 0 1 0 0 -4.5036e+15 0 1 0.0178616 0
0.0322793 1 (0 0.5 0.0633965 0.436604) 2871 15706 2 15706 0.657489 0 0 0 18974 1 -1 0.0629925 0.000211553 0 (10.5012 6.042 0) 678.875 0.0228046 0 (0 0 0) 301.301 2250.66 1.08555e-09 1(1) 0.000146256 (7.4345e-05 -0.295 5.42101e-20) 0.019507 0.000371912 0 1 0 0 -4.5036e+15 0 1 0.0153253 0
0.0322793 1 (0 0.294793 0.205207 0.5) 2811 15703 1 15703 0.71723 0 0 0 19893 1 -1 0.0716044 0.000205687 0 (10.4829 5.87044 0) 679.117 0.0223448 0 (0 0 0) 301.016 2249.61 1.14767e-09 1(1) 0.000148994 (6.6914e-05 -0.295 5.42101e-20) 0.0195361 0.000372997 0 1 0 0 -4.5036e+15 0 1 0.0147805 0
0.0322793 1 (0 0.5 0.298254 0.201746) 2748 15700 2 15700 0.932557 0 0 0 18836 1 -1 0.0608939 0.00021353 0 (10.5016 5.33195 0) 678.735 0.0228769 0 (0 0 0) 301.465 2251.27 1.079e-09 1(1) 0.000145961 (6.13727e-05 -0.295 5.42101e-20) 0.0194903 0.000371291 0 1 0 0 -4.5036e+15 0 1 0.0157757 0
0.0322793 1 (0 0.5 0.498347 0.0016532) 2499 15691 2 15691 0.0528792 0 0 0 16072 1 -1 0.0334204 0.00024878 0 (10.8481 4.09007 0) 677.047 0.0242492 0 (0 0 0) 303.445 2258.63 1.13643e-09 1(1) 0.000148506 (5.60376e-05 -0.295 0) 0.0192883 0.000363927 0 1 0 0 -4.5036e+15 0 1 0.0198346 0
0.0322793 1 (0 0.2602 0.2398 0.5) 2227 15723 1 15723 0.184802 0 0 0 17364 1 -1 0.0425747 0.000235084 0 (10.5993 3.82826 0) 677.656 0.0236028 0 (0 0 0) 302.731 2255.96 1.15968e-09 1(1) 0.000149512 (4.31273e-05 -0.295 -5.42101e-20) 0.0193611 0.000366549 0 1 0 0 -4.5036e+15 0 1 0.018572 0
0.0322793 3 (0 0.309795 0.5 0.190205) 350 15557 2 15557 0.398696 0 0 0 18162 1 -1 0.0529249 0.000219712 0 (-10.5075 5.17615 0) 678.446 0.0232059 0 (0 0 0) 301.805 2252.52 1.05594e-09 1(1) 0.000144914 (-6.34995e-05 -0.295 8.13152e-20) 0.0194556 0.000370006 0 1 0 0 -4.5036e+15 0 1 0.0164899 0
0.0322947 1 (0 0.5 0.0877474 0.412253) 2725 15699 2 15699 0.832321 0 0 0 19760 1 -1 0.0697436 0.000207093 0 (10.454 5.35452 0) 679.022 0.0224285 0 (0 0 0) 301.128 2250.02 1.14256e-09 1(1) 0.000148773 (5.80543e-05 -0.295 0) 0.0195247 0.00037257 0 1 0 0 -4.5036e+15 0 1 0.0151153 0
0.0322947 1 (0 0.5 0.00789166 0.492108) 2402 15728 2 15728 0.177443 0 0 0 15810 1 -1 0.0308389 0.000254559 0 (10.8895 3.80504 0) 676.784 0.0243987 0 (0 0 0) 303.752 2259.78 1.17071e-09 1(1) 0.000149985 (5.30114e-05 -0.295 5.42101e-20) 0.0192569 0.000362807 0 1 0 0 -4.5036e+15 0 1 0.0205581 0
0.0322947 1 (0 0.5 0.0735697 0.42643) 2402 15728 2 15728 0.674103 0 0 0 15859 1 -1 0.0313443 0.000253377 0 (10.8732 3.82733 0) 676.837 0.0243796 0 (0 0 0) 303.69 2259.55 1.16103e-09 1(1) 0.00014957 (5.29154e-05 -0.295 5.42101e-20) 0.0192633 0.000363035 0 1 0 0 -4.5036e+15 0 1 0.0204299 0
0.03231 0 (0 0.5 0.30843 0.19157) 2920 15724 1 15724 0.434956 0 0 0 18644 1 -1 0.0546255 0.000219263 0 (-10.4155 4.33458 0) 678.413 0.0229967 0 (0 0 0) 301.843 2252.67 1.14034e-09 1(1) 0.000148676 (-4.62606e-05 -0.295 5.42101e-20) 0.0194517 0.000369861 0 1 0 0 -4.5036e+15 0 1 0.0167851 0
0.03231 1 (0 0.487608 0.012392 0.5) 2725 15699 1 15699 0.646085 0 0 0 16723 1 -1 0.0412519 0.000234558 0 (10.6912 4.84818 0) 677.745 0.0239602 0 (0 0 0) 302.627 2255.58 1.03793e-09 1(1) 0.000144085 (6.38167e-05 -0.295 5.42101e-20) 0.0193717 0.000366934 0 1 0 0 -4.5036e+15 0 1 0.0180981 0
0.03231 1 (0 0.460157 0.0398428 0.5) 2262 15724 1 15724 0.038901 0 0 0 18523 1 -1 0.0538125 0.000221582 0 (10.4499 4.14869 0) 678.29 0.0230499 0 (0 0 0) 301.988 2253.2 1.15829e-09 1(1) 0.000149453 (4.21822e-05 -0.295 5.42101e-20) 0.0194369 0.000369318 0 1 0 0 -4.5036e+15 0 1 0.017073 0
0.03231 3 (0 0.132405 0.5 0.367595) 350 15557 2 15557 0.566712 0 0 0 17692 1 -1 0.050284 0.000223307 0 (-10.5199 5.12029 0) 678.287 0.0234742 0 (0 0 0) 301.992 2253.22 1.03125e-09 1(1) 0.000143776 (-6.43931e-05 -0.295 2.71051e-20) 0.0194365 0.000369304 0 1 0 0 -4.5036e+15 0 1 0.0168911 0
0.03231 3 (0 0.5 0.0475255 0.452475) 385 15558 1 15558 0.836597 0 0 0 19843 1 -1 0.0712426 0.000205886 0 (-10.3919 5.53784 0) 679.098 0.0224023 0 (0 0 0) 301.038 2249.69 1.13375e-09 1(1) 0.00014839 (-6.22093e-05 -0.295 5.42101e-20) 0.0195339 0.000372914 0 1 0 0 -4.5036e+15 0 1 0.0149659 0
0.03231 3 (0 0.468758 0.5 0.0312421) 175 15552 2 15552 0.911684 0 0 0 18615 1 -1 0.0578623 0.000216455 0 (-10.433 4.85301 0) 678.58 0.0230175 0 (0 0 0) 301.647 2251.94 1.0857e-09 1(1) 0.000146263 (-5.48801e-05 -0.295 1.0842e-19) 0.0194717 0.000370602 0 1 0 0 -4.5036e+15 0 1 0.0162974 0
0.03231 3 (0 0.5 0.00923171 0.490768) 35 15548 1 15548 0.0926212 0 0 0 16369 1 -1 0.035383 0.00024362 0 (-10.7301 4.12788 0) 677.291 0.0241286 0 (0 0 0) 303.159 2257.56 1.10906e-09 1(1) 0.000147304 (-5.53388e-05 -0.295 5.42101e-20) 0.0193174 0.000364973 0 1 0 0 -4.5036e+15 0 1 0.0193359 0
0.0323254 0 (0 0.218293 0.5 0.281707) 2885 15723 2 15723 0.301458 0 0 0 17122 1 -1 0.0420846 0.000234799 0 (-10.5753 4.02445 0) 677.692 0.0237712 0 (0 0 0) 302.688 2255.81 1.10755e-09 1(1) 0.000147237 (-4.8253e-05 -0.295 5.42101e-20) 0.0193654 0.000366707 0 1 0 0 -4.5036e+15 0 1 0.0184988 0
0.0323254 0 (0 0.398615 0.5 0.101385) 2815 15721 2 15721 0.930606 0 0 0 17709 1 -1 0.0455799 0.000229396 0 (-10.4722 3.95735 0) 677.941 0.02349 0 (0 0 0) 302.397 2254.72 1.13035e-09 1(1) 0.000148241 (-4.38377e-05 -0.295 1.35525e-19) 0.0193951 0.000367789 0 1 0 0 -4.5036e+15 0 1 0.0179951 0
0.0323254 1 (0 0.459781 0.0402187 0.5) 2530 15692 1 15692 0.865485 0 0 0 16637 1 -1 0.0393948 0.000237879 0 (10.6906 4.33572 0) 677.566 0.0240224 0 (0 0 0) 302.836 2256.36 1.06541e-09 1(1) 0.000145346 (5.5166e-05 -0.295 -5.42101e-20) 0.0193503 0.00036616 0 1 0 0 -4.5036e+15 0 1 0.0186474 0
0.0323254 3 (0 0.5 0.307485 0.192515) 420 15559 1 15559 0.291392 0 0 0 19552 1 -1 0.0672578 0.000207293 0 (-10.3878 5.57915 0) 679.047 0.0225576 0 (0 0 0) 301.098 2249.91 1.10334e-09 1(1) 0.000147051 (-6.38832e-05 -0.295 8.13152e-20) 0.0195278 0.000372684 0 1 0 0 -4.5036e+15 0 1 0.015103 0
0.0323407 0 (0 0.374126 0.5 0.125874) 2815 15721 2 15721 0.135892 0 0 0 16092 1 -1 0.0325891 0.000251165 0 (-10.7494 3.57684 0) 676.936 0.0242981 0 (0 0 0) 303.574 2259.11 1.16765e-09 1(1) 0.000149854 (-4.73115e-05 -0.295 0) 0.0192751 0.000363455 0 1 0 0 -4.5036e+15 0 1 0.0203704 0
0.0323407 1 (0 0.5 0.133721 0.366279) 2831 15704 2 15704 0.851561 0 0 0 17295 1 -1 0.0470325 0.000225012 0 (10.58 5.51203 0) 678.24 0.0237079 0 (0 0 0) 302.046 2253.42 9.97845e-10 1(1) 0.000142206 (7.14822e-05 -0.295 0) 0.019431 0.000369099 0 1 0 0 -4.5036e+15 0 1 0.0168939 0
0.0323407 1 (0 0.5 0.456013 0.0439866) 2770 15701 2 15701 0.417753 0 0 0 19148 1 -1 0.0652556 0.000209634 0 (10.4358 5.53624 0) 678.945 0.022775 0 (0 0 0) 301.219 2250.36 1.06736e-09 1(1) 0.000145435 (6.26646e-05 -0.295 5.42101e-20) 0.0195155 0.000372225 0 1 0 0 -4.5036e+15 0 1 0.0153352 0
0.0323407 1 (0 0.5 0.483866 0.0161336) 2701 15698 2 15698 0.637381 0 0 0 17244 1 -1 0.046398 0.000227627 0 (10.5938 4.90041 0) 678.077 0.0237292 0 (0 0 0) 302.238 2254.13 1.01501e-09 1(1) 0.000143017 (6.08183e-05 -0.295 0) 0.0194114 0.000368383 0 1 0 0 -4.5036e+15 0 1 0.0173862 0
0.0323407 1 (0 0.5 0.209941 0.290059) 2676 15697 2 15697 0.630608 0 0 0 18374 1 -1 0.0567533 0.000217023 0 (10.4711 5.00652 0) 678.574 0.0231673 0 (0 0 0) 301.654 2251.96 1.04445e-09 1(1) 0.000144387 (5.6986e-05 -0.295 -5.42101e-20) 0.019471 0.000370576 0 1 0 0 -4.5036e+15 0 1 0.0162806 0
0.0323407 1 (0 0.23799 0.26201 0.5) 2561 15693 1 15693 0.105375 0 0 0 18620 1 -1 0.0580923 0.000216156 0 (10.4495 4.81927 0) 678.594 0.0230342 0 (0 0 0) 301.63 2251.88 1.08123e-09 1(1) 0.000146062 (5.25511e-05 -0.295 0) 0.0194734 0.000370665 0 1 0 0 -4.5036e+15 0 1 0.0162633 0
0.0323407 1 (0 0.432437 0.0675627 0.5) 2332 15726 1 15726 0.0585049 0 0 0 16325 1 -1 0.0353973 0.000245246 0 (10.7357 3.87444 0) 677.21 0.0241806 0 (0 0 0) 303.254 2257.92 1.11902e-09 1(1) 0.000147744 (4.93895e-05 -0.295 -5.42101e-20) 0.0193078 0.000364625 0 1 0 0 -4.5036e+15 0 1 0.0196011 0
0.0323407 1 (0 0.5 0.0865155 0.413484) 2437 15729 2 15729 0.363236 0 0 0 18998 1 -1 0.0607915 0.000214316 0 (10.4103 4.6158 0) 678.662 0.022849 0 (0 0 0) 301.551 2251.58 1.11929e-09 1(1) 0.000147756 (4.758e-05 -0.295 5.42101e-20) 0.0194815 0.000370965 0 1 0 0 -4.5036e+15 0 1 0.0161548 0
0.0323407 3 (0 0.124011 0.5 0.375989) 420 15559 2 15559 0.937368 0 0 0 15862 1 -1 0.0342755 0.000245698 0 (-10.7671 4.90615 0) 677.246 0.0244271 0 (0 0 0) 303.211 2257.76 1.06949e-09 1(1) 0.000145531 (-7.21175e-05 -0.295 1.0842e-19) 0.0193121 0.00036478 0 1 0 0 -4.5036e+15 0 1 0.0192619 0
0.0323407 3 (0 0.0355679 0.5 0.464432) 210 15553 2 15553 0.817196 0 0 0 19764 1 -1 0.0699607 0.000206863 0 (-10.3562 5.14088 0) 679.035 0.0224727 0 (0 0 0) 301.112 2249.96 1.13511e-09 1(1) 0.000148449 (-5.48225e-05 -0.295 1.0842e-19) 0.0195263 0.00037263 0 1 0 0 -4.5036e+15 0 1 0.0152212 0
0.032356 0 (0 0.386519 0.5 0.113481) 2745 15719 2 15719 0.702619 0 0 0 16845 1 -1 0.0376801 0.000240751 0 (-10.5713 3.58433 0) 677.411 0.0239452 0 (0 0 0) 303.018 2257.04 1.14754e-09 1(1) 0.000148989 (-4.18175e-05 -0.295 1.35525e-19) 0.0193318 0.000365489 0 1 0 0 -4.5036e+15 0 1 0.019325 0
0.032356 1 (0 0.5 0.358659 0.141341) 2831 15704 2 15704 0.304843 0 0 0 18565 1 -1 0.0604004 0.000213098 0 (10.4592 5.79649 0) 678.815 0.023079 0 (0 0 0) 301.371 2250.92 1.02081e-09 1(1) 0.000143289 (6.97767e-05 -0.295 5.42101e-20) 0.0194999 0.000371645 0 1 0 0 -4.5036e+15 0 1 0.0155972 0
0.032356 1 (0 0.195465 0.304535 0.5) 2831 15704 1 15704 0.317463 0 0 0 19806 1 -1 0.0724704 0.000204517 0 (10.4202 6.04365 0) 679.211 0.0224591 0 (0 0 0) 300.906 2249.2 1.10458e-09 1(1) 0.000147106 (6.91609e-05 -0.295 -5.42101e-20) 0.0195475 0.000373421 0 1 0 0 -4.5036e+15 0 1 0.0146379 0
0.032356 1 (0 0.5 0.446271 0.0537294) 2561 15693 2 15693 0.370619 0 0 0 18334 1 -1 0.0556762 0.000218282 0 (10.4557 4.75618 0) 678.501 0.0231974 0 (0 0 0) 301.739 2252.28 1.05909e-09 1(1) 0.000145058 (5.25694e-05 -0.295 0) 0.0194623 0.000370252 0 1 0 0 -4.5036e+15 0 1 0.0165106 0
0.032356 1 (0 0.191608 0.308392 0.5) 2530 15692 1 15692 0.950722 0 0 0 19738 1 -1 0.0693777 0.000207455 0 (10.3661 4.94717 0) 678.998 0.0225067 0 (0 0 0) 301.156 2250.13 1.13713e-09 1(1) 0.000148537 (4.98511e-05 -0.295 5.42101e-20) 0.0195219 0.000372464 0 1 0 0 -4.5036e+15 0 1 0.0153394 0
0.032356 1 (0 0.5 0.37805 0.12195) 2332 15726 2 15726 0.112689 0 0 0 17368 1 -1 0.0447828 0.000231014 0 (10.5442 4.11375 0) 677.876 0.0236756 0 (0 0 0) 302.473 2255 1.08746e-09 1(1) 0.000146342 (4.67714e-05 -0.295 5.42101e-20) 0.0193874 0.000367506 0 1 0 0 -4.5036e+15 0 1 0.0180667 0
0.032356 1 (0 0.411824 0.088176 0.5) 2192 15722 1 15722 0.36277 0 0 0 18340 1 -1 0.0518789 0.00022366 0 (10.4043 3.93634 0) 678.2 0.023193 0 (0 0 0) 302.093 2253.59 1.14987e-09 1(1) 0.00014909 (3.8759e-05 -0.295 -5.42101e-20) 0.0194262 0.000368924 0 1 0 0 -4.5036e+15 0 1 0.0174073 0
0.032356 1 (0 0.0822458 0.417754 0.5) 2262 15724 1 15724 0.538123 0 0 0 18856 1 -1 0.058149 0.000217107 0 (10.3774 4.26421 0) 678.518 0.0229413 0 (0 0 0) 301.72 2252.21 1.13558e-09 1(1) 0.000148469 (4.18996e-05 -0.295 0) 0.0194642 0.000370325 0 1 0 0 -4.5036e+15 0 1 0.0165962 0
0.032356 3 (0 0.5 0.388522 0.111478) 525 15562 1 15562 0.426189 0 0 0 20330 1 -1 0.0773834 0.000201811 0 (-10.3633 6.05157 0) 679.327 0.0221987 0 (0 0 0) 300.769 2248.7 1.15737e-09 1(1) 0.000149413 (-6.95278e-05 -0.295 8.13152e-20) 0.0195615 0.000373946 0 1 0 0 -4.5036e+15 0 1 0.0143888 0
0.0323712 0 (0 0.489063 0.5 0.0109372) 2780 15720 2 15720 0.195667 0 0 0 18527 1 -1 0.0540168 0.000221281 0 (-10.3487 4.01579 0) 678.319 0.0231119 0 (0 0 0) 301.954 2253.08 1.14769e-09 1(1) 0.000148995 (-4.0374e-05 -0.295 2.71051e-20) 0.0194404 0.000369446 0 1 0 0 -4.5036e+15 0 1 0.0171609 0
0.0323712 0 (0 0.5 0.40738 0.0926204) 2990 15726 1 15726 0.771924 0 0 0 19171 1 -1 0.0628893 0.000212478 0 (-10.3262 4.59832 0) 678.758 0.0228006 0 (0 0 0) 301.438 2251.17 1.11713e-09 1(1) 0.000147661 (-4.73812e-05 -0.295 8.13152e-20) 0.0194931 0.000371393 0 1 0 0 -4.5036e+15 0 1 0.0160215 0
0.0323712 0 (0 0.127255 0.5 0.372745) 2955 15725 2 15725 0.700531 0 0 0 19617 1 -1 0.0670552 0.00020943 0 (-10.3061 4.64969 0) 678.892 0.0225754 0 (0 0 0) 301.28 2250.58 1.14974e-09 1(1) 0.000149084 (-4.65817e-05 -0.295 5.42101e-20) 0.0195092 0.00037199 0 1 0 0 -4.5036e+15 0 1 0.0156869 0
0.0323712 1 (0 0.496866 0.00313401 0.5) 2650 15696 1 15696 0.589835 0 0 0 15646 1 -1 0.0318025 0.000250918 0 (10.8566 4.32645 0) 676.98 0.0245595 0 (0 0 0) 303.522 2258.92 1.08899e-09 1(1) 0.00014641 (6.17076e-05 -0.295 -5.42101e-20) 0.0192804 0.000363643 0 1 0 0 -4.5036e+15 0 1 0.01999 0
0.0323712 1 (0 0.5 0.155701 0.344299) 2701 15698 2 15698 0.922211 0 0 0 17377 1 -1 0.0480632 0.000225453 0 (10.5434 4.90822 0) 678.188 0.023698 0 (0 0 0) 302.107 2253.65 1.00198e-09 1(1) 0.000142402 (5.9871e-05 -0.295 5.42101e-20) 0.0194247 0.000368871 0 1 0 0 -4.5036e+15 0 1 0.0171819 0
0.0323712 1 (0 0.5 0.440528 0.0594722) 2227 15723 2 15723 0.160895 0 0 0 18549 1 -1 0.0545297 0.000220736 0 (10.3787 4.06831 0) 678.346 0.0231034 0 (0 0 0) 301.922 2252.96 1.13912e-09 1(1) 0.000148623 (3.99082e-05 -0.295 5.42101e-20) 0.0194436 0.000369564 0 1 0 0 -4.5036e+15 0 1 0.0170583 0
0.0323712 3 (0 0.435647 0.5 0.0643527) 350 15557 2 15557 0.0657309 0 0 0 15990 1 -1 0.0353067 0.000243881 0 (-10.7366 4.71038 0) 677.323 0.0243826 0 (0 0 0) 303.121 2257.42 1.05221e-09 1(1) 0.000144743 (-6.72003e-05 -0.295 2.71051e-20) 0.0193213 0.000365113 0 1 0 0 -4.5036e+15 0 1 0.0191544 0
0.0323712 3 (0 0.5 0.295428 0.204572) 315 15556 1 15556 0.679242 0 0 0 16557 1 -1 0.0403551 0.000235486 0 (-10.6203 4.73735 0) 677.713 0.0241083 0 (0 0 0) 302.665 2255.72 1.02265e-09 1(1) 0.000143375 (-6.34461e-05 -0.295 -2.71051e-20) 0.0193678 0.000366795 0 1 0 0 -4.5036e+15 0 1 0.0182967 0
0.0323712 3 (0 0.5 0.135065 0.364935) 140 15551 1 15551 0.50105 0 0 0 16019 1 -1 0.0344401 0.000245977 0 (-10.7373 4.22521 0) 677.202 0.0243717 0 (0 0 0) 303.263 2257.95 1.08136e-09 1(1) 0.000146068 (-5.84981e-05 -0.295 0) 0.0193069 0.000364593 0 1 0 0 -4.5036e+15 0 1 0.0195664 0
0.0323865 0 (0 0.348074 0.5 0.151926) 2745 15719 2 15719 0.873476 0 0 0 16772 1 -1 0.0383786 0.00024066 0 (-10.551 3.59014 0) 677.423 0.0240169 0 (0 0 0) 303.004 2256.98 1.13295e-09 1(1) 0.000148355 (-4.18028e-05 -0.295 1.35525e-19) 0.0193332 0.000365541 0 1 0 0 -4.5036e+15 0 1 0.0193303 0
0.0323865 1 (0 0.177612 0.322388 0.5) 2770 15701 1 15701 0.915801 0 0 0 15685 1 -1 0.0333376 0.000247112 0 (10.8144 4.83389 0) 677.183 0.0245615 0 (0 0 0) 303.285 2258.03 1.05212e-09 1(1) 0.000144739 (7.00019e-05 -0.295 5.42101e-20) 0.0193046 0.000364511 0 1 0 0 -4.5036e+15 0 1 0.0194085 0
0.0323865 1 (0 0.484557 0.0154426 0.5) 2851 15705 1 15705 0.945086 0 0 0 20275 1 -1 0.0764502 0.000200937 0 (10.3862 6.23099 0) 679.394 0.0222658 0 (0 0 0) 300.691 2248.41 1.12651e-09 1(1) 0.000148073 (7.01869e-05 -0.295 5.42101e-20) 0.0195694 0.000374246 0 1 0 0 -4.5036e+15 0 1 0.0142256 0
0.0323865 1 (0 0.300042 0.199958 0.5) 2770 15701 1 15701 0.0368818 0 0 0 16935 1 -1 0.0447853 0.000229011 0 (10.6005 5.16887 0) 678.039 0.0239207 0 (0 0 0) 302.282 2254.29 9.88005e-10 1(1) 0.000141737 (6.67032e-05 -0.295 5.42101e-20) 0.0194069 0.000368218 0 1 0 0 -4.5036e+15 0 1 0.0174385 0
0.0323865 1 (0 0.169679 0.330321 0.5) 2367 15727 1 15727 0.438414 0 0 0 18495 1 -1 0.056383 0.000217858 0 (10.3903 4.47278 0) 678.509 0.0231499 0 (0 0 0) 301.73 2252.25 1.08551e-09 1(1) 0.000146255 (4.64341e-05 -0.295 5.42101e-20) 0.0194632 0.000370287 0 1 0 0 -4.5036e+15 0 1 0.0166031 0
0.0323865 3 (0 0.5 0.0294624 0.470538) 560 15563 1 15563 0.305851 0 0 0 19125 1 -1 0.0663339 0.000208446 0 (-10.3384 6.11198 0) 679.06 0.0228325 0 (0 0 0) 301.083 2249.86 1.04768e-09 1(1) 0.000144535 (-7.46936e-05 -0.295 5.42101e-20) 0.0195293 0.000372743 0 1 0 0 -4.5036e+15 0 1 0.0150731 0
0.0323865 3 (0 0.494058 0.5 0.00594239) 490 15561 2 15561 0.384586 0 0 0 18462 1 -1 0.0597944 0.00021349 0 (-10.3801 5.73838 0) 678.809 0.0231652 0 (0 0 0) 301.378 2250.95 1.00781e-09 1(1) 0.000142678 (-7.02354e-05 -0.295 8.13152e-20) 0.0194991 0.000371618 0 1 0 0 -4.5036e+15 0 1 0.0157093 0
0.0323865 3 (0 0.5 0.271464 0.228536) 455 15560 1 15560 0.351305 0 0 0 16343 1 -1 0.038486 0.000236657 0 (-10.6413 5.11082 0) 677.684 0.0242249 0 (0 0 0) 302.699 2255.84 1.01331e-09 1(1) 0.000142937 (-7.14238e-05 -0.295 1.0842e-19) 0.0193644 0.000366669 0 1 0 0 -4.5036e+15 0 1 0.0182738 0
0.0324017 0 (0 0.328725 0.5 0.171275) 2885 15723 2 15723 0.289174 0 0 0 17987 1 -1 0.0510938 0.000223365 0 (-10.3926 4.2321 0) 678.249 0.023414 0 (0 0 0) 302.036 2253.38 1.07947e-09 1(1) 0.000145983 (-4.59639e-05 -0.295 8.13152e-20) 0.019432 0.000369139 0 1 0 0 -4.5036e+15 0 1 0.0172905 0
0.0324017 0 (0 0.345608 0.5 0.154392) 2710 15718 2 15718 0.832636 0 0 0 18768 1 -1 0.0557805 0.000219883 0 (-10.274 3.87029 0) 678.386 0.0230356 0 (0 0 0) 301.875 2252.78 1.15854e-09 1(1) 0.000149464 (-3.62857e-05 -0.295 8.13152e-20) 0.0194485 0.000369744 0 1 0 0 -4.5036e+15 0 1 0.0171075 0
0.0324017 0 (0 0.164012 0.5 0.335988) 2780 15720 2 15720 0.668415 0 0 0 19331 1 -1 0.0624932 0.00021343 0 (-10.2573 4.19347 0) 678.692 0.02275 0 (0 0 0) 301.516 2251.46 1.16075e-09 1(1) 0.000149558 (-3.94896e-05 -0.295 2.71051e-20) 0.0194851 0.000371096 0 1 0 0 -4.5036e+15 0 1 0.0163026 0
0.0324017 0 (0 0.400949 0.5 0.0990506) 2885 15723 2 15723 0.356477 0 0 0 19457 1 -1 0.0650656 0.000210969 0 (-10.2751 4.46635 0) 678.82 0.0226804 0 (0 0 0) 301.366 2250.9 1.1439e-09 1(1) 0.000148831 (-4.36412e-05 -0.295 5.42101e-20) 0.0195005 0.000371667 0 1 0 0 -4.5036e+15 0 1 0.0159329 0
0.0324017 1 (0 0.5 0.476467 0.0235328) 2831 15704 2 15704 0.588136 0 0 0 16763 1 -1 0.0439095 0.000229757 0 (10.5865 5.47823 0) 678.029 0.0240303 0 (0 0 0) 302.294 2254.34 9.83252e-10 1(1) 0.00014151 (7.3037e-05 -0.295 0) 0.0194057 0.000368174 0 1 0 0 -4.5036e+15 0 1 0.0174166 0
0.0324017 1 (0 0.0869177 0.413082 0.5) 2770 15701 1 15701 0.99549 0 0 0 19664 1 -1 0.072027 0.000204476 0 (10.3596 5.69719 0) 679.21 0.0225863 0 (0 0 0) 300.907 2249.21 1.06706e-09 1(1) 0.000145421 (6.23136e-05 -0.295 0) 0.0195474 0.000373417 0 1 0 0 -4.5036e+15 0 1 0.0147846 0
0.0324017 1 (0 0.5 0.447856 0.0521441) 2791 15702 2 15702 0.525532 0 0 0 20259 1 -1 0.0780845 0.00020088 0 (10.3605 5.83893 0) 679.371 0.0222844 0 (0 0 0) 300.718 2248.51 1.1214e-09 1(1) 0.000147849 (6.27172e-05 -0.295 5.42101e-20) 0.0195667 0.000374141 0 1 0 0 -4.5036e+15 0 1 0.0143629 0
0.0324017 1 (0 0.195998 0.304002 0.5) 2701 15698 1 15698 0.488665 0 0 0 17855 1 -1 0.0532396 0.000219672 0 (10.4671 5.08717 0) 678.476 0.0234832 0 (0 0 0) 301.77 2252.39 9.93452e-10 1(1) 0.000141997 (5.97346e-05 -0.295 0) 0.0194592 0.000370139 0 1 0 0 -4.5036e+15 0 1 0.0165419 0