/*--------------------------------*- C++ -*----------------------------------*\
  =========                 |
  \\      /  F ield         | OpenFOAM: The Open Source CFD Toolbox
   \\    /   O peration     | Website:  https://openfoam.org
    \\  /    A nd           | Version:  8
     \\/     M anipulation  |
\*---------------------------------------------------------------------------*/
FoamFile
{
    version     2.0;
    format      ascii;
    class       volScalarField;
    location    "0.5";
    object      nut;
}
// * * * * * * * * * * * * * * * * * * * * * * * * * * * * * * * * * * * * * //

dimensions      [0 2 -1 0 0 0 0];

internalField   nonuniform List<scalar> 
15677
(
0.000168168
0.000652158
0.000148202
0.00151204
0.000443119
0.0001413
0.00267195
0.000878265
0.000381094
0.0001422
0.00391618
0.00152281
0.000687424
0.00035437
0.000145345
0.0050189
0.00236051
0.00114814
0.000586175
0.000340355
0.000151132
0.00583665
0.00332123
0.00178315
0.000948898
0.000529657
0.000332083
0.000156949
0.00633334
0.00430115
0.00257015
0.00146494
0.000821675
0.000492734
0.000327042
0.000162397
0.00656224
0.00518819
0.00345502
0.00213346
0.00125843
0.000737783
0.000467641
0.000324148
0.000167184
0.00665816
0.00589321
0.00435671
0.00292391
0.00184304
0.00111317
0.000677786
0.000450587
0.000322582
0.000171406
0.00670537
0.00633807
0.00518148
0.00378037
0.00255856
0.00163295
0.00100529
0.000634426
0.000438835
0.000322008
0.000174973
0.00671433
0.00655338
0.00584544
0.00462615
0.0033642
0.0022878
0.00147362
0.000924783
0.000602486
0.000430874
0.000321962
0.000178103
0.00670988
0.00666151
0.00629553
0.0053775
0.00419807
0.00304655
0.00207895
0.00134986
0.000862757
0.000578833
0.000425427
0.000322428
0.000180712
0.00670626
0.00669877
0.00652943
0.00596452
0.0049849
0.00385837
0.00279696
0.00191277
0.00125202
0.000814586
0.000561115
0.000421924
0.000323075
0.00018306
0.0067054
0.00670439
0.00664668
0.00635687
0.00565041
0.00465661
0.00358448
0.00259471
0.00177884
0.00117375
0.000776837
0.000547923
0.000419608
0.000323978
0.000185105
0.00670547
0.00670284
0.00668781
0.0065629
0.00614214
0.0053689
0.00438223
0.00335809
0.0024291
0.0016691
0.00111041
0.000747059
0.000537891
0.000418361
0.000324823
0.000186915
0.00670567
0.00670158
0.00669637
0.00665652
0.00644671
0.00593384
0.00512167
0.00414964
0.00316973
0.00229114
0.0015789
0.00105874
0.000723475
0.000530614
0.000417491
0.000325869
0.000188571
0.00670579
0.00670107
0.00669715
0.00668484
0.0066048
0.00632182
0.00573784
0.00490468
0.00395215
0.00301066
0.00217618
0.00150387
0.00101696
0.000705012
0.000524959
0.000417362
0.0003268
0.000189983
0.00670585
0.00670092
0.00669682
0.00669155
0.0066637
0.00654125
0.00618841
0.00555753
0.00471543
0.00378279
0.00287642
0.00207939
0.00144193
0.000982977
0.0006903
0.000521089
0.000417304
0.000327886
0.000191413
0.00670587
0.00670088
0.00669659
0.00669255
0.00668235
0.00663451
0.00646783
0.00605836
0.00539454
0.00454989
0.00363788
0.00276226
0.00199844
0.00139059
0.000955425
0.000678964
0.000518062
0.000417837
0.000328857
0.000192526
0.00670589
0.00670086
0.00669651
0.00669242
0.00668742
0.00666903
0.00659803
0.00638971
0.00593536
0.00524812
0.00440582
0.00351342
0.00266575
0.00193066
0.00134848
0.000933281
0.000670071
0.000516342
0.000418251
0.000329939
0.000193859
0.00670589
0.00670085
0.0066965
0.00669223
0.00668845
0.0066806
0.00665148
0.00655631
0.00631118
0.00582075
0.00511783
0.00428051
0.00340714
0.00258439
0.00187457
0.00131409
0.000915785
0.000663518
0.000514991
0.000419204
0.000330969
0.000194743
0.00670589
0.00670083
0.0066965
0.00669212
0.00668851
0.0066839
0.00667189
0.00663039
0.00651137
0.00623389
0.00571573
0.00500263
0.00417242
0.0033171
0.00251655
0.00182857
0.00128665
0.000902118
0.000658682
0.00051475
0.00041992
0.000332015
0.000196068
0.00670589
0.00670083
0.0066965
0.00669207
0.00668844
0.0066846
0.00667887
0.00666126
0.00660622
0.00646573
0.00616082
0.00562106
0.00490214
0.00408019
0.00324139
0.00246084
0.00179169
0.00126518
0.000892178
0.000655559
0.000514509
0.000421166
0.00033318
0.00019679
0.00670589
0.00670082
0.0066965
0.00669203
0.00668839
0.00668463
0.00668095
0.00667295
0.00664875
0.00658105
0.00641964
0.00609378
0.00553715
0.00481526
0.00400209
0.00317948
0.00241628
0.00176328
0.00124931
0.000884841
0.000653676
0.000515409
0.000422095
0.000334097
0.000198118
0.00670588
0.00670083
0.0066965
0.00669201
0.00668836
0.00668453
0.00668143
0.00667689
0.00666633
0.00663547
0.00655425
0.00637752
0.00603203
0.00546326
0.0047419
0.00393896
0.00312996
0.0023819
0.00174183
0.00123796
0.000880867
0.000653183
0.000515893
0.000423602
0.000335581
0.000198819
0.00670588
0.00670083
0.00669649
0.00669199
0.00668833
0.00668444
0.00668148
0.006678
0.00667296
0.00665925
0.00662103
0.00652982
0.00633608
0.00597793
0.00540224
0.00468237
0.00388707
0.00309142
0.00235666
0.00172865
0.00123238
0.000878807
0.000653685
0.000517854
0.000424639
0.00033637
5.33911e-05
0.00670587
0.00670084
0.00669648
0.00669198
0.00668832
0.00668438
0.00668143
0.00667819
0.0066752
0.00666881
0.00665186
0.00660789
0.00650476
0.00630325
0.005933
0.00534946
0.00463287
0.00385047
0.00306749
0.00234343
0.00172232
0.00122973
0.000879669
0.00065552
0.000519019
0.000427124
0.000283994
6.34628e-05
0.00670586
0.00670085
0.00669646
0.00669198
0.0066883
0.00668433
0.00668138
0.00667812
0.00667583
0.00667229
0.00666506
0.00664527
0.0065945
0.00648631
0.00626973
0.00589279
0.00531343
0.00460491
0.00382857
0.00305303
0.00233618
0.00172069
0.00123139
0.000882197
0.000657563
0.000521549
0.000420818
0.000219936
7.09697e-05
0.00670585
0.00670086
0.00669645
0.00669199
0.00668828
0.0066843
0.00668134
0.00667802
0.00667592
0.00667334
0.00667028
0.00666195
0.00663913
0.00658557
0.00646685
0.00624868
0.00587375
0.00529029
0.00458368
0.00381423
0.0030466
0.00233581
0.00172481
0.00123689
0.000886356
0.000660763
0.000522863
0.000401336
0.000178279
7.65402e-05
0.00670585
0.00670087
0.00669644
0.00669199
0.00668825
0.00668429
0.0066813
0.00667793
0.00667588
0.0066735
0.00667213
0.00666882
0.00665991
0.00663616
0.00657675
0.00645815
0.00624092
0.005858
0.00527462
0.00457231
0.00381088
0.00305063
0.00234457
0.00173532
0.00124557
0.00089265
0.000664848
0.000521157
0.000368768
0.000152642
8.10947e-05
0.00670584
0.00670088
0.00669643
0.006692
0.00668823
0.00668428
0.00668126
0.00667786
0.00667581
0.00667342
0.00667263
0.00667131
0.00666895
0.00666034
0.00663442
0.00657785
0.00645745
0.00623548
0.00585043
0.00527108
0.00457661
0.00382227
0.00306624
0.00236162
0.00175082
0.00125803
0.000900639
0.000668698
0.000515719
0.000337645
0.000134174
8.46478e-05
0.00670584
0.00670088
0.00669641
0.00669201
0.00668821
0.00668428
0.00668121
0.00667781
0.00667574
0.00667328
0.0066727
0.00667198
0.00667257
0.00667113
0.0066629
0.00664201
0.00658198
0.006462
0.00623793
0.00585843
0.00528496
0.00459594
0.00384598
0.00309187
0.0023861
0.00177156
0.00127342
0.000910087
0.000672594
0.0005051
0.00030759
0.000121083
8.72073e-05
0.00670583
0.00670089
0.0066964
0.00669202
0.00668818
0.00668429
0.00668117
0.00667778
0.00667567
0.00667315
0.00667263
0.00667201
0.00667377
0.00667549
0.00667615
0.00667452
0.00664973
0.00659281
0.00647423
0.00625679
0.00588246
0.00531352
0.00462933
0.00388192
0.0031274
0.00241796
0.00179683
0.00129215
0.000920879
0.000675126
0.000490519
0.000281568
0.000112477
8.91326e-05
0.00670582
0.0067009
0.00669639
0.00669203
0.00668816
0.0066843
0.00668113
0.00667776
0.00667559
0.00667305
0.00667253
0.00667186
0.00667407
0.0066769
0.00668193
0.00669004
0.00668452
0.00666496
0.00661422
0.00650143
0.00629022
0.00592161
0.00535779
0.00467696
0.00393014
0.00317265
0.00245686
0.00182689
0.00131331
0.000932801
0.000676653
0.000474408
0.000261871
0.00010662
9.06519e-05
0.0067009
0.00670582
0.00669638
0.00669204
0.00668814
0.00668431
0.00668108
0.00667776
0.00667552
0.00667298
0.00667243
0.00667168
0.00667406
0.00667719
0.0066841
0.006697
0.00670145
0.00670268
0.00669291
0.00664801
0.00654303
0.00633903
0.00597752
0.00541789
0.00473909
0.00399064
0.00322758
0.00250274
0.00186114
0.00133761
0.000947434
0.000677553
0.000460352
0.000246763
0.000102481
9.19059e-05
0.00669638
0.00670093
0.00670583
0.00669205
0.00668812
0.00668432
0.00668104
0.00667777
0.00667544
0.00667294
0.00667231
0.0066715
0.00667396
0.00667709
0.0066848
0.00669971
0.00670924
0.00672149
0.0067351
0.00673152
0.00669613
0.00660043
0.00640585
0.00605085
0.005495
0.00481618
0.00406338
0.00329191
0.00255528
0.00189976
0.00136696
0.00096495
0.000678442
0.000448376
0.000235106
9.95234e-05
9.29848e-05
0.00669206
0.00669639
0.00670097
0.00670583
0.00668811
0.00668433
0.00668101
0.00667777
0.00667537
0.00667291
0.0066722
0.00667136
0.00667383
0.00667687
0.00668495
0.00670062
0.00671248
0.00673049
0.00675691
0.00677729
0.00678481
0.00676031
0.00667635
0.00649147
0.00614339
0.00558969
0.00490793
0.00414827
0.00336553
0.0026143
0.00194747
0.00140237
0.000983979
0.0006797
0.00043866
0.000225892
9.73288e-05
9.39397e-05
0.00668809
0.0066921
0.00669643
0.00670101
0.00670583
0.00668434
0.00668097
0.00667779
0.00667529
0.00667291
0.00667207
0.00667126
0.0066737
0.00667663
0.00668491
0.00670085
0.00671372
0.0067345
0.00676791
0.00680167
0.00683462
0.00685446
0.00684355
0.00677145
0.00659784
0.00625522
0.00570261
0.00501539
0.00424518
0.00344793
0.0026868
0.00200656
0.00144035
0.00100393
0.000682543
0.000430755
0.000218595
9.57219e-05
9.48078e-05
0.00668435
0.00668812
0.00669218
0.00669647
0.00670105
0.00670584
0.00668095
0.0066778
0.00667523
0.00667291
0.00667195
0.0066712
0.00667356
0.0066764
0.00668481
0.00670082
0.00671416
0.00673625
0.00677322
0.00681456
0.00686211
0.00690818
0.00694295
0.00694602
0.00688818
0.00672451
0.00638729
0.00583389
0.00513786
0.00435365
0.00354927
0.002776
0.00207076
0.00148094
0.00102577
0.000686282
0.0004246
0.000212625
9.4478e-05
9.5605e-05
0.00668092
0.00668441
0.00668818
0.00669226
0.00669651
0.00670109
0.00670584
0.00667781
0.00667516
0.00667293
0.00667182
0.00667117
0.0066734
0.00667621
0.0066847
0.0067007
0.0067143
0.00673709
0.00677592
0.00682148
0.00687809
0.00694025
0.00700363
0.00705339
0.00707113
0.00702502
0.00687246
0.00653896
0.00598198
0.00527641
0.00448727
0.00367331
0.00287324
0.00213984
0.0015234
0.00104803
0.000691267
0.00041981
0.000207679
9.35559e-05
9.63497e-05
0.00667782
0.00668094
0.00668452
0.00668825
0.00669234
0.00669656
0.00670113
0.00670585
0.00667511
0.00667294
0.0066717
0.00667117
0.00667323
0.00667607
0.0066846
0.00670055
0.00671431
0.00673754
0.00677748
0.00682541
0.00688746
0.00695976
0.00704112
0.0071217
0.00719017
0.00722208
0.00718668
0.00703945
0.00670871
0.00614692
0.00544496
0.00465281
0.00380975
0.00297751
0.00221303
0.00156845
0.00107036
0.000697605
0.00041624
0.000203548
9.28143e-05
9.70432e-05
0.00667506
0.00667789
0.00668101
0.00668463
0.00668832
0.00669242
0.0066966
0.00670116
0.00670586
0.00667296
0.00667159
0.0066712
0.00667304
0.00667598
0.00668451
0.00670041
0.00671428
0.00673782
0.00677851
0.00682805
0.00689352
0.00697227
0.00706586
0.00716602
0.00726768
0.0073531
0.00740131
0.00737545
0.00722992
0.00689516
0.00634552
0.00564993
0.00483223
0.00395591
0.00308808
0.00228984
0.00161542
0.00109355
0.000704831
0.00041376
0.000200058
9.22657e-05
9.76986e-05
0.00667298
0.00667506
0.00667803
0.00668108
0.00668474
0.00668839
0.0066925
0.00669665
0.0067012
0.00670587
0.00667149
0.00667124
0.00667285
0.00667596
0.0066844
0.00670027
0.00671424
0.00673802
0.00677927
0.00683006
0.00689797
0.00698113
0.00708343
0.00719749
0.00732135
0.00744216
0.00754691
0.00760805
0.00759135
0.00744614
0.00712221
0.00658396
0.00586889
0.0050216
0.00410982
0.00320385
0.00236968
0.00166394
0.00111737
0.0007128
0.000412214
0.000197112
9.18082e-05
9.83106e-05
0.00667139
0.00667305
0.0066751
0.00667816
0.00668117
0.00668486
0.00668847
0.00669258
0.0066967
0.00670124
0.00670588
0.00667128
0.00667264
0.006676
0.00668427
0.00670014
0.0067142
0.00673818
0.00677988
0.00683174
0.00690156
0.00698818
0.00709701
0.00722154
0.00736253
0.00750777
0.0076511
0.00777137
0.00784502
0.00783356
0.00771369
0.00740567
0.00683698
0.00609664
0.0052187
0.00426935
0.00332355
0.00245179
0.00171369
0.00114146
0.000720929
0.000411411
0.000194586
9.14763e-05
9.88916e-05
0.00667132
0.00667131
0.00667318
0.00667514
0.00667829
0.00668126
0.00668497
0.00668855
0.00669266
0.00669676
0.00670128
0.00670589
0.00667245
0.00667609
0.00668409
0.00670002
0.00671416
0.00673833
0.00678042
0.00683322
0.00690462
0.00699423
0.00710838
0.00724115
0.00739654
0.00756158
0.00773278
0.00789422
0.0080305
0.00811245
0.00813274
0.00804279
0.00771753
0.0071117
0.00633076
0.00541955
0.00443204
0.0034458
0.00253554
0.0017642
0.00116614
0.000729197
0.000411127
0.000192432
9.1189e-05
9.94326e-05
0.00667226
0.00667138
0.00667122
0.00667331
0.0066752
0.00667843
0.00668136
0.00668508
0.00668865
0.00669274
0.00669682
0.00670132
0.0067059
0.00667622
0.00668386
0.00669993
0.00671414
0.00673848
0.00678091
0.00683454
0.00690731
0.00699965
0.00711834
0.00725823
0.00742593
0.0076084
0.00780395
0.00799623
0.00817749
0.00832483
0.008445
0.00850385
0.00840207
0.00804975
0.00740429
0.00657431
0.00562205
0.00459639
0.00356957
0.00262019
0.00181518
0.00119116
0.000737618
0.000411311
0.00019056
9.09885e-05
9.99475e-05
0.00667637
0.00667194
0.00667144
0.00667114
0.00667344
0.00667528
0.00667856
0.00668146
0.00668519
0.00668874
0.00669282
0.00669688
0.00670135
0.00670591
0.00668357
0.00669989
0.00671415
0.00673863
0.00678137
0.00683575
0.00690973
0.00700456
0.00712724
0.00727369
0.00745239
0.00765001
0.00786911
0.0080901
0.00830643
0.00850157
0.00869392
0.0088613
0.00891225
0.00878827
0.00839959
0.00770898
0.00682778
0.00582555
0.00476067
0.00369332
0.00270508
0.00186629
0.00121634
0.000746096
0.000411867
0.000188956
9.08083e-05
0.000100425
0.00668322
0.0066764
0.00667145
0.00667151
0.00667109
0.00667357
0.00667537
0.00667868
0.00668159
0.0066853
0.00668885
0.0066929
0.00669695
0.00670139
0.00670593
0.00669991
0.00671419
0.0067388
0.0067818
0.00683685
0.00691191
0.00700905
0.00713528
0.00728795
0.00747661
0.00768808
0.00792945
0.00817973
0.00843041
0.00866412
0.00891245
0.00916167
0.00932462
0.00935567
0.00919868
0.00876433
0.00802146
0.00708777
0.00602956
0.00492264
0.00381604
0.00278952
0.00191719
0.00124147
0.000754651
0.00041252
0.000187554
9.06914e-05
0.00010088
0.00670004
0.00668215
0.00667635
0.00667096
0.00667158
0.00667106
0.00667368
0.00667548
0.00667881
0.00668172
0.00668541
0.00668896
0.00669298
0.00669701
0.00670142
0.00670594
0.00671426
0.00673897
0.0067822
0.00683784
0.00691389
0.00701315
0.00714259
0.00730115
0.00749887
0.00772357
0.00798642
0.00826434
0.00855209
0.00882718
0.00912459
0.00944108
0.00968973
0.00983492
0.00983333
0.00963167
0.00914168
0.00833964
0.00735118
0.00623655
0.00508217
0.00393694
0.00287302
0.00196762
0.00126645
0.000763156
0.000413337
0.000186371
9.05814e-05
0.000101299
0.00671434
0.00669965
0.00668016
0.00667634
0.00667052
0.00667163
0.00667107
0.00667378
0.00667561
0.00667892
0.00668186
0.00668552
0.00668907
0.00669306
0.00669708
0.00670146
0.00670595
0.00673914
0.00678254
0.00683873
0.0069157
0.00701688
0.00714926
0.00731336
0.00751933
0.00775694
0.0080404
0.00834437
0.00866955
0.00899439
0.00934754
0.00972622
0.0100486
0.0102841
0.0103972
0.0103477
0.0100872
0.00953022
0.00866191
0.00761438
0.00644418
0.00523911
0.00405563
0.00295511
0.0020173
0.0012911
0.000771705
0.000414264
0.000185313
9.05189e-05
0.000101699
0.00673932
0.00671336
0.00669884
0.00667816
0.00667628
0.00667016
0.00667163
0.00667114
0.00667386
0.00667577
0.00667903
0.00668201
0.00668562
0.00668918
0.00669313
0.00669714
0.00670149
0.00670596
0.00678282
0.00683953
0.00691734
0.00702027
0.00715536
0.00732462
0.00753815
0.00778837
0.00809121
0.00842031
0.00878433
0.00916239
0.00958173
0.0100364
0.0104362
0.0107575
0.0109641
0.0110237
0.0109043
0.0105668
0.00992928
0.00898693
0.00787635
0.00665065
0.0053926
0.00417118
0.00303528
0.002066
0.00131534
0.000780137
0.00041523
0.000184422
9.04556e-05
0.000102066
0.00678306
0.00673761
0.00671117
0.00669801
0.00667653
0.00667608
0.00666993
0.00667157
0.00667125
0.00667392
0.00667594
0.00667914
0.00668217
0.00668573
0.00668929
0.00669321
0.0066972
0.00670152
0.00670598
0.00684024
0.00691884
0.00702336
0.00716093
0.00733496
0.00755546
0.00781787
0.00813868
0.00849272
0.00889732
0.00932941
0.00981528
0.0103747
0.0108915
0.0113162
0.0116152
0.0117581
0.0117279
0.0115084
0.0110716
0.0103383
0.00931361
0.00813616
0.0068548
0.0055433
0.00428294
0.0031132
0.00211352
0.00133905
0.000788522
0.000416265
0.000183635
9.04291e-05
0.000102418
0.00684091
0.00678009
0.0067338
0.00670891
0.00669678
0.00667542
0.00667567
0.00666984
0.00667146
0.00667141
0.00667398
0.00667613
0.00667926
0.00668232
0.00668584
0.0066894
0.00669328
0.00669726
0.00670155
0.00670599
0.00692019
0.00702616
0.00716603
0.00734443
0.00757139
0.00784539
0.00818284
0.00856206
0.00900774
0.00949228
0.010046
0.0107413
0.0114471
0.0120374
0.0124438
0.0126593
0.0126805
0.0125141
0.0121603
0.0116006
0.0107562
0.00964089
0.00839301
0.00705511
0.00569177
0.00439097
0.00318863
0.0021597
0.00136217
0.000796666
0.000417296
0.000182912
9.03971e-05
0.000102699
0.00692148
0.00683702
0.00677363
0.00673
0.00670668
0.00669502
0.00667479
0.00667505
0.00666989
0.0066713
0.00667161
0.00667403
0.00667633
0.00667937
0.00668247
0.00668595
0.0066895
0.00669336
0.00669731
0.00670159
0.006706
0.00702869
0.00717066
0.00735306
0.00758602
0.00787092
0.00822385
0.00862842
0.00911394
0.00964881
0.0102799
0.0111545
0.0121126
0.012961
0.0135344
0.0138214
0.0138724
0.013713
0.0133689
0.012852
0.0121495
0.0111808
0.00996752
0.0086461
0.00725044
0.00583709
0.00449526
0.00326145
0.00220441
0.00138461
0.000804663
0.00041836
0.000182298
9.03917e-05
0.000102935
0.00703103
0.00691606
0.00682811
0.00676704
0.00672641
0.00670444
0.00669288
0.00667461
0.00667425
0.00667006
0.00667112
0.00667183
0.00667408
0.00667652
0.00667949
0.00668262
0.00668605
0.00668959
0.00669343
0.00669736
0.00670162
0.00670601
0.00717487
0.0073609
0.00759944
0.00789447
0.0082619
0.00869152
0.00921441
0.00979947
0.0105258
0.0116249
0.0128759
0.014018
0.0148454
0.0152661
0.0153456
0.0151789
0.0148067
0.0142637
0.013568
0.0127108
0.0116086
0.0102919
0.00889459
0.00744045
0.00597858
0.00459576
0.00333153
0.00224755
0.00140633
0.000812465
0.000419442
0.000181813
9.03841e-05
0.00010319
0.00717875
0.00702369
0.00690316
0.00681932
0.00676068
0.00672304
0.00670227
0.00669018
0.00667476
0.00667333
0.00667029
0.00667093
0.00667205
0.00667416
0.0066767
0.00667961
0.00668275
0.00668616
0.00668968
0.0066935
0.00669742
0.00670165
0.00670602
0.007368
0.00761169
0.00791609
0.00829716
0.00875095
0.0093085
0.00994651
0.0107893
0.0121425
0.0136884
0.0151024
0.0161766
0.0168232
0.0170224
0.0168717
0.016484
0.0159021
0.0151634
0.0142891
0.0132747
0.0120355
0.0106124
0.00913764
0.00762479
0.00611578
0.00469241
0.00339881
0.00228905
0.00142728
0.000819995
0.000420361
0.000181431
9.0387e-05
0.000103467
0.00737445
0.00716883
0.00700535
0.0068903
0.00681083
0.00675465
0.00671987
0.00670074
0.00668714
0.00667511
0.00667239
0.00667054
0.00667079
0.00667226
0.00667425
0.00667687
0.00667974
0.00668288
0.00668627
0.00668977
0.00669357
0.00669746
0.00670168
0.00670602
0.00762284
0.00793585
0.00832974
0.00880637
0.00939642
0.0100923
0.0110687
0.0126822
0.0144877
0.0161129
0.0173737
0.0182206
0.0186413
0.018633
0.018285
0.0177101
0.016948
0.0160353
0.0149962
0.0138311
0.0124569
0.0109269
0.00937441
0.00780317
0.00624833
0.00478518
0.00346326
0.00232888
0.00144744
0.000826306
0.000421173
0.000181023
9.03889e-05
0.000103768
0.00763295
0.00736156
0.00714302
0.00698699
0.0068778
0.0068026
0.00674892
0.00671683
0.00669959
0.00668401
0.0066755
0.00667153
0.00667074
0.0066707
0.00667243
0.00667436
0.00667701
0.00667988
0.00668299
0.00668637
0.00668986
0.00669364
0.00669751
0.00670169
0.00670602
0.00795384
0.00835971
0.00885762
0.00947884
0.0102378
0.0113569
0.013215
0.0152235
0.0169853
0.0183575
0.0193369
0.0199434
0.0201744
0.020013
0.0195233
0.0188106
0.0179097
0.0168553
0.0156736
0.014371
0.0128683
0.0112335
0.00960412
0.00797529
0.00637597
0.00487405
0.00352488
0.002367
0.00146422
0.000831738
0.000422087
0.000180617
9.04049e-05
0.000104097
0.00796998
0.00761622
0.00732589
0.00711719
0.0069691
0.00686566
0.00679456
0.00674336
0.00671399
0.00669858
0.00668102
0.00667577
0.00667084
0.00667086
0.00667069
0.00667256
0.0066745
0.00667715
0.00668001
0.0066831
0.00668648
0.00668994
0.0066937
0.00669754
0.00670169
0.00670602
0.00838717
0.00890476
0.00955655
0.0103827
0.011644
0.0137175
0.0158673
0.0176963
0.0191108
0.020153
0.0208753
0.0212966
0.0213983
0.0211434
0.0205679
0.019767
0.0187698
0.0176083
0.0163099
0.0148869
0.0132657
0.0115305
0.00982604
0.00814088
0.00649853
0.00495898
0.00358365
0.0023986
0.00147861
0.000837774
0.000423136
0.00018018
9.04184e-05
0.000104453
0.00841178
0.00794884
0.00756728
0.00729014
0.00709197
0.00695166
0.00685381
0.00678665
0.00673807
0.00671131
0.0066976
0.00667841
0.00667577
0.00667039
0.00667089
0.00667075
0.00667267
0.00667465
0.00667727
0.00668015
0.00668321
0.00668658
0.00669001
0.00669374
0.00669753
0.00670169
0.00670602
0.00894802
0.00963014
0.0105251
0.0119206
0.0141748
0.0164099
0.018251
0.019654
0.0207012
0.0214731
0.0220107
0.0223119
0.0223397
0.0220406
0.0214258
0.020579
0.0195236
0.0182876
0.0168986
0.0153737
0.013646
0.0118162
0.0100395
0.00829977
0.00661592
0.00504013
0.00363208
0.00242559
0.00149453
0.000844499
0.00042432
0.000179752
9.04506e-05
0.000104844
0.0089866
0.0083849
0.00788265
0.00751826
0.00725516
0.00706737
0.00693464
0.00684222
0.00677881
0.0067332
0.00670867
0.00669649
0.00667662
0.00667542
0.00667018
0.00667083
0.00667087
0.00667276
0.00667481
0.00667739
0.00668029
0.00668331
0.00668668
0.00669005
0.00669374
0.00669753
0.00670169
0.00670602
0.00969996
0.0106631
0.0121794
0.0145808
0.0168555
0.0186689
0.020023
0.0210328
0.0218017
0.0223898
0.0228119
0.0230461
0.0230421
0.0227355
0.0221162
0.0212569
0.0201745
0.0188922
0.0174365
0.0158283
0.014007
0.0120896
0.0102441
0.00845179
0.006728
0.00510763
0.00367331
0.00245534
0.00151217
0.000852003
0.000425686
0.000179289
9.04805e-05
0.000105267
0.0097638
0.00895304
0.00829537
0.00781624
0.00747027
0.007221
0.00704336
0.00691804
0.00683089
0.00677099
0.0067286
0.00670597
0.00669465
0.00667568
0.0066748
0.00667014
0.00667072
0.00667101
0.00667283
0.00667497
0.0066775
0.00668043
0.00668341
0.00668674
0.00669005
0.00669374
0.00669753
0.00670169
0.00670602
0.0107947
0.01242
0.014935
0.0172143
0.0189743
0.0202558
0.0211999
0.0219278
0.022515
0.022992
0.0233514
0.0235568
0.0235505
0.0232617
0.0226629
0.0218158
0.0207307
0.0194252
0.0179236
0.0162492
0.0143472
0.0123498
0.0104393
0.00859685
0.00682056
0.00516539
0.00371863
0.00248818
0.00153177
0.0008604
0.000427233
0.000178846
9.05363e-05
0.000105731
0.0109131
0.00972136
0.00883095
0.00820582
0.00775109
0.00742336
0.00718764
0.00701994
0.00690185
0.00681982
0.00676333
0.00672416
0.00670331
0.00669219
0.00667538
0.00667401
0.00667023
0.00667059
0.00667118
0.00667289
0.00667514
0.0066776
0.00668056
0.00668346
0.00668674
0.00669005
0.00669374
0.00669753
0.00670169
0.00670602
0.0126427
0.0152383
0.0174995
0.0191906
0.0203863
0.0212476
0.0219088
0.022458
0.0229388
0.0233575
0.0236906
0.0238932
0.0239045
0.0236504
0.0230891
0.0222719
0.0212024
0.0198919
0.0183618
0.0166363
0.0146658
0.0125962
0.0106251
0.00871667
0.00689942
0.00522918
0.00376854
0.0025245
0.00155358
0.000869814
0.000429026
0.000178353
9.05902e-05
0.000106231
0.0108654
0.0128382
0.00954188
0.00871099
0.00811776
0.00768736
0.0073775
0.00715507
0.00699712
0.00688611
0.00680913
0.00675581
0.00672007
0.00670087
0.00668913
0.00667545
0.00667317
0.00667037
0.00667046
0.00667136
0.00667296
0.0066753
0.0066777
0.00668064
0.00668345
0.00668674
0.00669005
0.00669374
0.00669754
0.00670168
0.00670601
0.015494
0.0177239
0.0193385
0.0204423
0.0212117
0.0217906
0.0222761
0.0227231
0.0231504
0.0235467
0.0238778
0.0240949
0.024137
0.0239288
0.0234164
0.0226411
0.0216001
0.0202986
0.018754
0.0169906
0.0149629
0.0128285
0.0107779
0.00881877
0.00698616
0.00529974
0.00382361
0.00256473
0.0015779
0.000880401
0.000431064
0.000177886
9.06794e-05
0.000106782
0.0105926
0.0127864
0.0157051
0.00937
0.00859387
0.0080314
0.00762504
0.0073327
0.00712334
0.00697495
0.00687088
0.00679897
0.00674864
0.00671645
0.00669938
0.00668598
0.00667567
0.00667237
0.00667052
0.00667035
0.00667153
0.00667302
0.00667546
0.00667774
0.00668065
0.00668345
0.00668674
0.00669005
0.00669374
0.00669751
0.00670165
0.006706
0.0178992
0.0194348
0.0204455
0.0211197
0.0216075
0.0220127
0.022399
0.0227968
0.0232064
0.023604
0.0239493
0.0241927
0.0242747
0.0241196
0.0236631
0.0229376
0.021934
0.0206518
0.0191038
0.0173136
0.0152386
0.0130179
0.0109077
0.00893101
0.00708169
0.00537788
0.00388449
0.00260938
0.00160509
0.000892334
0.000433444
0.000177361
9.07684e-05
0.000107371
0.0103221
0.0124107
0.0156272
0.0180335
0.00920761
0.00847883
0.00794684
0.00756411
0.007289
0.00709248
0.00695346
0.00685624
0.0067894
0.00674211
0.0067132
0.00669822
0.00668303
0.00667587
0.00667168
0.00667065
0.00667026
0.00667169
0.0066731
0.00667556
0.00667773
0.00668065
0.00668345
0.00668674
0.00669005
0.0066937
0.00669746
0.00670162
0.00670599
0.0194928
0.0204123
0.0209915
0.0213848
0.0217
0.0220073
0.0223472
0.0227316
0.0231473
0.0235619
0.0239325
0.0242105
0.0243387
0.0242413
0.0238449
0.0231739
0.0222136
0.0209579
0.0194152
0.0176072
0.0154599
0.0131779
0.0110499
0.00905449
0.00718705
0.00546455
0.00395195
0.00265905
0.00163555
0.000905833
0.000436166
0.000176886
9.09059e-05
0.000108021
0.0100681
0.0119975
0.0152769
0.01792
0.0195161
0.00905207
0.00836565
0.00786419
0.00750465
0.0072465
0.00706256
0.00693273
0.0068423
0.00678049
0.00673613
0.00671036
0.00669718
0.00668045
0.00667594
0.00667113
0.00667075
0.00667021
0.00667185
0.00667311
0.00667558
0.00667772
0.00668065
0.00668345
0.00668674
0.00669001
0.00669363
0.00669741
0.00670158
0.00670597
0.0203549
0.0208418
0.0211403
0.0213608
0.0215776
0.0218392
0.0221687
0.0225641
0.0230016
0.0234438
0.0238475
0.0241667
0.0243459
0.0243092
0.0239748
0.0233606
0.0224472
0.021223
0.019692
0.0178381
0.0156451
0.0133518
0.0112057
0.00919043
0.0073034
0.0055608
0.00402688
0.00271441
0.00166979
0.000921144
0.000439367
0.000176345
9.10473e-05
0.00010871
0.00983136
0.0115848
0.0148363
0.0176803
0.0193504
0.0202729
0.00890116
0.0082545
0.00778358
0.00744675
0.00720528
0.00703366
0.00691295
0.00682936
0.00677224
0.0067308
0.00670779
0.00669617
0.00667842
0.00667583
0.00667072
0.00667081
0.0066702
0.00667195
0.00667308
0.00667559
0.00667772
0.00668065
0.00668346
0.00668668
0.00668993
0.00669357
0.00669736
0.00670155
0.00670596
0.0206809
0.0208871
0.0210118
0.0211315
0.021301
0.0215528
0.0218968
0.0223195
0.0227894
0.0232667
0.02371
0.0240757
0.0243098
0.0243352
0.0240636
0.0235069
0.0226419
0.0214525
0.0199048
0.0180289
0.015844
0.0135407
0.0113763
0.00934017
0.00743204
0.00566785
0.00411031
0.00277631
0.00170836
0.000938582
0.000443059
0.000175889
9.12564e-05
0.000109472
0.00960915
0.0111891
0.0143399
0.017363
0.019186
0.0200544
0.0205043
0.00875391
0.00814569
0.00770517
0.00739053
0.00716544
0.00700603
0.00689457
0.00681751
0.0067646
0.00672616
0.00670537
0.00669497
0.00667714
0.00667552
0.00667045
0.00667085
0.00667017
0.00667197
0.00667306
0.00667559
0.00667773
0.00668064
0.00668341
0.00668658
0.00668985
0.0066935
0.00669731
0.00670152
0.00670595
0.020634
0.0206644
0.0206844
0.0207534
0.0209112
0.0211788
0.0215546
0.0220154
0.0225249
0.0230432
0.0235319
0.023949
0.0242408
0.0243292
0.0241198
0.0236201
0.0228041
0.0216238
0.0200785
0.018231
0.0160573
0.0137456
0.011563
0.00950514
0.00757445
0.0057871
0.00420342
0.00284568
0.00175198
0.000958513
0.000447436
0.000175364
9.14787e-05
0.00011027
0.00939882
0.0108166
0.0138121
0.0169902
0.0189568
0.0199242
0.0202337
0.0203709
0.00861011
0.00803956
0.00762913
0.00733616
0.00712736
0.00698038
0.00687783
0.00680665
0.0067575
0.00672207
0.00670304
0.00669312
0.0066764
0.00667509
0.00667028
0.00667086
0.00667013
0.00667199
0.00667306
0.00667558
0.00667774
0.00668056
0.00668331
0.00668648
0.00668977
0.00669342
0.00669725
0.00670149
0.00670594
0.0203265
0.0202472
0.0202115
0.0202644
0.0204367
0.0207387
0.0211578
0.0216639
0.0222182
0.022783
0.0233226
0.0237957
0.0241477
0.0242989
0.0241505
0.0237066
0.0229196
0.0217618
0.0202596
0.0184443
0.0162854
0.0139674
0.0117672
0.00968691
0.00773224
0.00592011
0.00430763
0.00292371
0.00180144
0.000981395
0.00045254
0.000174979
9.17951e-05
0.000111304
0.00919843
0.0104698
0.0132651
0.0165703
0.0186876
0.019742
0.0201091
0.0200482
0.0199833
0.00846997
0.00793647
0.00755568
0.00728416
0.00709203
0.00695704
0.00686255
0.00679672
0.00675088
0.00671843
0.00670098
0.00669083
0.00667602
0.00667461
0.00667023
0.00667084
0.00667012
0.00667199
0.00667308
0.00667556
0.0066777
0.00668043
0.00668321
0.00668637
0.00668968
0.00669335
0.0066972
0.00670146
0.00670593
0.0198271
0.0196862
0.019628
0.0196915
0.0198983
0.0202468
0.020717
0.0212732
0.0218767
0.0224935
0.0230899
0.0236233
0.024037
0.0242507
0.0241615
0.023761
0.0230109
0.0219028
0.0204474
0.0186684
0.0165285
0.014207
0.0119901
0.00988709
0.0079072
0.00606867
0.00442451
0.00301165
0.0018578
0.00100779
0.000458646
0.000174529
9.22153e-05
0.000112541
0.00900666
0.01015
0.0127067
0.0161045
0.0183895
0.0195344
0.019941
0.0199117
0.0196089
0.0194137
0.00833366
0.00783686
0.00748549
0.00723592
0.00705991
0.00693579
0.00684864
0.00678771
0.00674473
0.0067153
0.00669946
0.00668842
0.00667584
0.00667424
0.00667027
0.00667083
0.00667012
0.00667197
0.00667311
0.00667546
0.0066776
0.00668029
0.0066831
0.00668626
0.00668959
0.00669328
0.00669714
0.00670142
0.00670591
0.0191848
0.0190136
0.0189597
0.0190555
0.0193089
0.0197129
0.0202392
0.0208485
0.0215057
0.0221812
0.0228404
0.0234378
0.0239144
0.0241893
0.0241555
0.0238018
0.0231009
0.0220458
0.020641
0.0189029
0.0167866
0.0144649
0.012233
0.0101073
0.00810124
0.00623476
0.00455612
0.00311138
0.00192222
0.0010384
0.000465861
0.000174298
9.28341e-05
0.000113777
0.0088238
0.00985507