/*--------------------------------*- C++ -*----------------------------------*\
  =========                 |
  \\      /  F ield         | OpenFOAM: The Open Source CFD Toolbox
   \\    /   O peration     | Website:  https://openfoam.org
    \\  /    A nd           | Version:  8
     \\/     M anipulation  |
\*---------------------------------------------------------------------------*/
FoamFile
{
    version     2.0;
    format      ascii;
    class       surfaceScalarField;
    location    "0.29";
    object      phi;
}
// * * * * * * * * * * * * * * * * * * * * * * * * * * * * * * * * * * * * * //

dimensions      [0 3 -1 0 0 0 0];

internalField   nonuniform List<scalar> 
31053
(
6.27789e-07
1.27522e-05
8.4973e-07
1.51581e-05
3.76941e-07
1.23753e-05
9.32477e-07
1.75573e-05
5.90099e-07
1.49449e-05
2.70535e-07
1.21047e-05
9.56176e-07
2.02163e-05
7.08899e-07
1.74385e-05
4.6678e-07
1.47487e-05
2.17489e-07
1.18872e-05
9.47228e-07
2.32489e-05
7.69086e-07
2.01561e-05
5.93434e-07
1.73118e-05
3.99377e-07
1.45668e-05
1.7446e-07
1.17128e-05
9.1731e-07
2.66899e-05
7.94883e-07
2.32232e-05
6.69852e-07
2.00797e-05
5.28843e-07
1.71823e-05
3.37536e-07
1.44037e-05
1.40256e-07
1.15725e-05
8.71898e-07
3.06654e-05
7.98497e-07
2.66863e-05
7.13412e-07
2.31796e-05
6.12281e-07
1.99963e-05
4.62529e-07
1.70573e-05
2.83612e-07
1.42603e-05
1.13433e-07
1.14591e-05
8.14192e-07
3.51977e-05
7.86854e-07
3.06771e-05
7.35038e-07
2.66647e-05
6.63179e-07
2.31287e-05
5.46704e-07
1.99121e-05
3.99764e-07
1.69412e-05
2.37258e-07
1.41365e-05
9.13031e-08
1.13678e-05
7.47289e-07
4.03869e-05
7.63996e-07
3.52206e-05
7.41121e-07
3.0671e-05
6.91636e-07
2.66362e-05
5.99124e-07
2.30763e-05
4.80588e-07
1.98313e-05
3.42117e-07
1.68363e-05
1.95888e-07
1.40319e-05
7.19561e-08
1.12958e-05
6.72825e-07
4.63545e-05
7.31636e-07
4.04193e-05
7.35154e-07
3.52265e-05
7.03689e-07
3.06589e-05
6.28866e-07
2.66065e-05
5.30981e-07
2.30259e-05
4.16745e-07
1.97566e-05
2.87497e-07
1.67447e-05
1.57618e-07
1.39463e-05
5.42618e-08
1.12416e-05
5.92365e-07
5.32205e-05
6.9198e-07
4.63941e-05
7.18065e-07
4.04364e-05
7.02727e-07
3.52275e-05
6.4197e-07
3.06458e-05
5.58636e-07
2.65788e-05
4.62501e-07
2.29801e-05
3.53421e-07
1.96907e-05
2.34411e-07
1.66679e-05
1.21226e-07
1.38793e-05
3.74749e-08
1.12041e-05
5.07969e-07
6.10644e-05
6.46884e-07
5.32656e-05
6.9118e-07
4.6421e-05
6.9141e-07
4.04477e-05
6.41988e-07
3.52275e-05
5.69414e-07
3.0635e-05
4.8552e-07
2.65558e-05
3.92133e-07
2.29414e-05
2.89367e-07
1.96358e-05
1.81888e-07
1.66073e-05
8.5827e-08
1.38309e-05
2.10972e-08
1.1183e-05
4.22533e-07
7.00674e-05
5.97905e-07
6.11134e-05
6.55671e-07
5.33011e-05
6.7041e-07
4.6442e-05
6.31202e-07
4.04585e-05
5.66886e-07
3.523e-05
4.91267e-07
3.06293e-05
4.08117e-07
2.65398e-05
3.18708e-07
2.29121e-05
2.23759e-07
1.95939e-05
1.29222e-07
1.65639e-05
5.07621e-08
1.38013e-05
4.93518e-09
1.11781e-05
3.40105e-07
8.04144e-05
5.45998e-07
7.01193e-05
6.12774e-07
6.11563e-05
6.40113e-07
5.33314e-05
6.10722e-07
4.64625e-05
5.53112e-07
4.04722e-05
4.83208e-07
3.52381e-05
4.06262e-07
3.06311e-05
3.25304e-07
2.65332e-05
2.41457e-07
2.28944e-05
1.56048e-07
1.95671e-05
7.58442e-08
1.65388e-05
1.56613e-08
1.37906e-05
-1.11956e-08
1.11893e-05
2.78004e-07
7.62521e-05
4.91193e-07
8.04692e-05
5.63813e-07
7.01683e-05
6.00933e-07
6.11955e-05
5.80981e-07
5.33611e-05
5.29172e-07
4.64864e-05
4.63301e-07
4.04921e-05
3.89865e-07
3.52545e-05
3.13348e-07
3.06431e-05
2.36327e-07
2.65384e-05
1.59877e-07
2.28905e-05
8.57774e-08
1.95571e-05
2.14649e-08
1.6533e-05
-1.96451e-08
1.3799e-05
-2.74264e-08
1.12167e-05
2.28931e-07
7.62391e-05
4.41501e-07
7.63018e-05
5.10124e-07
8.05229e-05
5.53483e-07
7.02158e-05
5.42204e-07
6.12342e-05
4.95525e-07
5.33948e-05
4.32526e-07
4.65172e-05
3.60779e-07
4.05212e-05
2.85875e-07
3.52819e-05
2.1178e-07
3.06677e-05
1.40679e-07
2.65576e-05
7.35456e-08
2.29028e-05
1.28103e-08
1.95658e-05
-3.40343e-08
1.65474e-05
-5.53036e-08
1.38269e-05
-4.38071e-08
1.12605e-05
1.89939e-07
7.6229e-05
3.94577e-07
7.6286e-05
4.62319e-07
7.63496e-05
4.98836e-07
8.05776e-05
4.94688e-07
7.02633e-05
4.52382e-07
6.12774e-05
3.91285e-07
5.3436e-05
3.19875e-07
4.65581e-05
2.44584e-07
4.05625e-05
1.70507e-07
3.53232e-05
1.01029e-07
3.07073e-05
3.79602e-08
2.65931e-05
-1.75461e-08
2.29331e-05
-6.27793e-08
1.95945e-05
-9.05808e-08
1.65827e-05
-9.1208e-08
1.38743e-05
-6.01564e-08
1.13207e-05
1.58628e-07
7.62233e-05
3.51035e-07
7.62725e-05
4.1785e-07
7.63305e-05
4.49061e-07
7.63994e-05
4.39103e-07
8.06332e-05
3.99997e-07
7.03157e-05
3.39757e-07
6.13289e-05
2.67464e-07
5.34884e-05
1.90203e-07
4.66125e-05
1.13985e-07
4.0619e-05
4.31996e-08
3.5381e-05
-1.92809e-08
3.07645e-05
-7.17596e-08
2.66473e-05
-1.13152e-07
2.29835e-05
-1.40696e-07
1.96446e-05
-1.47869e-07
1.66393e-05
-1.27103e-07
1.39412e-05
-7.63504e-08
1.1397e-05
1.33262e-07
7.62154e-05
3.11153e-07
7.62632e-05
3.76834e-07
7.63135e-05
4.02105e-07
7.63774e-05
3.87503e-07
7.6451e-05
3.39022e-07
8.06941e-05
2.78162e-07
7.03772e-05
2.03687e-07
6.13927e-05
1.22927e-07
5.35557e-05
4.27561e-08
4.66837e-05
-3.1617e-08
4.06939e-05
-9.63953e-08
3.54581e-05
-1.49017e-07
3.08418e-05
-1.88092e-07
2.67223e-05
-2.12742e-07
2.30556e-05
-2.20335e-07
1.97171e-05
-2.05406e-07
1.67176e-05
-1.62637e-07
1.40275e-05
-9.21349e-08
1.14891e-05
1.12557e-07
7.62107e-05
2.75018e-07
7.62515e-05
3.39237e-07
7.63008e-05
3.58468e-07
7.63572e-05
3.38295e-07
7.64266e-05
2.82534e-07
7.65075e-05
2.0718e-07
8.07651e-05
1.2877e-07
7.04522e-05
4.2847e-08
6.14728e-05
-4.31433e-08
5.36416e-05
-1.23121e-07
4.67752e-05
-1.92549e-07
4.079e-05
-2.48098e-07
3.55572e-05
-2.87633e-07
3.09413e-05
-3.10269e-07
2.68198e-05
-3.15405e-07
2.31506e-05
-3.00846e-07
1.98125e-05
-2.62547e-07
1.68175e-05
-1.97338e-07
1.41327e-05
-1.07325e-07
1.15965e-05
9.55501e-08
7.6207e-05
2.42562e-07
7.62432e-05
3.04865e-07
7.62859e-05
3.18394e-07
7.63409e-05
2.92299e-07
7.64032e-05
2.28797e-07
7.64804e-05
1.41914e-07
7.65727e-05
4.34793e-08
8.08504e-05
-4.97906e-08
7.05448e-05
-1.43701e-07
6.15733e-05
-2.31479e-07
5.37499e-05
-3.07741e-07
4.68904e-05
-3.68574e-07
4.09105e-05
-4.11157e-07
3.56808e-05
-4.3413e-07
3.10652e-05
-4.37073e-07
2.69415e-05
-4.19884e-07
2.32697e-05
-3.81211e-07
1.99312e-05
-3.18511e-07
1.69387e-05
-2.30719e-07
1.42561e-05
-1.21607e-07
1.17181e-05
8.25959e-08
6.9595e-05
2.13602e-07
7.6236e-05
2.73556e-07
7.62745e-05
2.81928e-07
7.63223e-05
2.50022e-07
7.63831e-05
1.78786e-07
7.64532e-05
8.02068e-08
7.65421e-05
-3.43172e-08
7.66505e-05
-1.54073e-07
8.09547e-05
-2.58642e-07
7.06597e-05
-3.56782e-07
6.16986e-05
-4.42384e-07
5.38846e-05
-5.10802e-07
4.70326e-05
-5.58721e-07
4.1058e-05
-5.84353e-07
3.5831e-05
-5.8697e-07
3.12151e-05
-5.6683e-07
2.70884e-05
-5.24742e-07
2.34132e-05
-4.60244e-07
2.00729e-05
-3.72457e-07
1.70804e-05
-2.62183e-07
1.43967e-05
-1.34783e-07
1.18529e-05
7.26533e-08
6.25539e-05
1.9011e-07
6.96184e-05
2.4521e-07
7.62643e-05
2.49003e-07
7.63074e-05
2.11752e-07
7.63606e-05
1.33151e-07
7.64288e-05
2.31859e-08
7.65102e-05
-1.07401e-07
7.66152e-05
-2.48422e-07
7.67449e-05
-3.8684e-07
8.10829e-05
-4.98747e-07
7.08017e-05
-5.96713e-07
6.18529e-05
-6.75502e-07
5.40493e-05
-7.31111e-07
4.7205e-05
-7.61542e-07
4.12352e-05
-7.65804e-07
3.60098e-05
-7.44048e-07
3.13923e-05
-6.97667e-07
2.72614e-05
-6.28312e-07
2.35813e-05
-5.36672e-07
2.02372e-05
-4.23428e-07
1.72417e-05
-2.91239e-07
1.45531e-05
-1.46475e-07
1.19993e-05
6.48622e-08
5.62258e-05
1.71282e-07
6.25728e-05
2.21741e-07
6.96419e-05
2.19509e-07
7.62938e-05
1.77625e-07
7.63415e-05
9.23128e-08
7.64014e-05
-2.83553e-08
7.64803e-05
-1.74466e-07
7.65773e-05
-3.36485e-07
7.67032e-05
-5.02063e-07
7.68601e-05
-6.56029e-07
8.12402e-05
-7.70457e-07
7.09755e-05
-8.63099e-07
6.20405e-05
-9.29415e-07
5.42476e-05
-9.66976e-07
4.74105e-05
-9.74783e-07
4.14442e-05
-9.52941e-07
3.62187e-05
-9.03022e-07
3.15977e-05
-8.27392e-07
2.74604e-05
-7.28829e-07
2.37734e-05
-6.09098e-07
2.04228e-05
-4.70582e-07
1.7421e-05
-3.17036e-07
1.47237e-05
-1.56084e-07
1.21554e-05
5.86516e-08
5.05382e-05
1.56092e-07
5.6241e-05
2.02552e-07
6.2592e-05
1.95458e-07
6.9666e-05
1.47703e-07
7.63237e-05
5.6528e-08
7.63773e-05
-7.38586e-08
7.6447e-05
-2.34539e-07
7.65404e-05
-4.16784e-07
7.66576e-05
-6.09058e-07
7.68102e-05
-7.9671e-07
7.70008e-05
-9.6204e-07
8.14317e-05
-1.07337e-06
7.11857e-05
-1.1543e-06
6.22654e-05
-1.20218e-06
5.44828e-05
-1.21574e-06
4.76514e-05
-1.19537e-06
4.16866e-05
-1.14292e-06
3.64586e-05
-1.06115e-06
3.18314e-05
-9.53718e-07
2.76853e-05
-8.24395e-07
2.39887e-05
-6.76263e-07
2.06285e-05
-5.12611e-07
1.76166e-05
-3.3885e-07
1.49065e-05
-1.61432e-07
1.23168e-05
5.36293e-08
4.5425e-05
1.43748e-07
5.05506e-05
1.86824e-07
5.62567e-05
1.76113e-07
6.26113e-05
1.24086e-07
6.96896e-05
2.59384e-08
7.63543e-05
-1.12948e-07
7.64164e-05
-2.86907e-07
7.64993e-05
-4.88163e-07
7.66118e-05
-7.06135e-07
7.67547e-05
-9.26865e-07
7.69404e-05
-1.13285e-06
7.71716e-05
-1.30451e-06
8.16629e-05
-1.40565e-06
7.14371e-05
-1.46813e-06
6.25314e-05
-1.49072e-06
5.47578e-05
-1.47379e-06
4.79298e-05
-1.41992e-06
4.19636e-05
-1.33242e-06
3.67299e-05
-1.2156e-06
3.20933e-05
-1.07419e-06
2.79351e-05
-9.13258e-07
2.42257e-05
-7.36419e-07
2.08523e-05
-5.48639e-07
1.78264e-05
-3.52555e-07
1.50976e-05
-1.29507e-07
1.24464e-05
4.9518e-08
4.08301e-05
1.33646e-07
4.54351e-05
1.73895e-07
5.05635e-05
1.60563e-07
5.62723e-05
1.05871e-07
6.26295e-05
2.59115e-09
6.97129e-05
-1.45388e-07
7.63868e-05
-3.31068e-07
7.64606e-05
-5.49731e-07
7.65609e-05
-7.91919e-07
7.66976e-05
-1.04456e-06
7.68723e-05
-1.29053e-06
7.7098e-05
-1.51022e-06
7.73773e-05
-1.68146e-06
8.19387e-05
-1.76486e-06
7.17338e-05
-1.80106e-06
6.28417e-05
-1.79083e-06
5.50748e-05
-1.73719e-06
4.82471e-05
-1.6445e-06
4.22757e-05
-1.518e-06
3.70323e-05
-1.36327e-06
3.23824e-05
-1.18651e-06
2.82084e-05
-9.93226e-07
2.44825e-05
-7.88217e-07
2.10919e-05
-5.73314e-07
1.80471e-05
-3.44794e-07
1.53129e-05
-8.01181e-08
1.25265e-05
4.61178e-08
3.66994e-05
1.25326e-07
4.08384e-05
1.63219e-07
4.54458e-05
1.4809e-07
5.0576e-05
9.18509e-08
5.62863e-05
-1.46496e-08
6.26468e-05
-1.69094e-07
6.97366e-05
-3.66677e-07
7.64224e-05
-6.00833e-07
7.65117e-05
-8.65316e-07
7.66343e-05
-1.14816e-06
7.68012e-05
-1.43285e-06
7.70147e-05
-1.69992e-06
7.72878e-05
-1.92675e-06
7.76226e-05
-2.09026e-06
8.22641e-05
-2.14708e-06
7.20798e-05
-2.14833e-06
6.31992e-05
-2.098e-06
5.54356e-05
-2.00128e-06
4.86039e-05
-1.86496e-06
4.26227e-05
-1.69586e-06
3.73649e-05
-1.50131e-06
3.26972e-05
-1.28803e-06
2.85032e-05
-1.0624e-06
2.47567e-05
-8.26635e-07
2.13452e-05
-5.81198e-07
1.82835e-05
-3.17843e-07
1.55506e-05
-5.62966e-08
1.25828e-05
4.32806e-08
3.29888e-05
1.18432e-07
3.67063e-05
1.5436e-07
4.08473e-05
1.38074e-07
4.54558e-05
8.10706e-08
5.05867e-05
-2.71431e-08
5.62988e-05
-1.85548e-07
6.26632e-05
-3.91541e-07
6.97615e-05
-6.40998e-07
7.64625e-05
-9.25493e-07
7.65718e-05
-1.23635e-06
7.67225e-05
-1.55789e-06
7.69262e-05
-1.87107e-06
7.71858e-05
-2.15298e-06
7.7514e-05
-2.37974e-06
7.79121e-05
-2.52665e-06
8.26437e-05
-2.54696e-06
7.24785e-05
-2.50474e-06
6.3606e-05
-2.40673e-06
5.58411e-05
-2.26114e-06
4.90001e-05
-2.07678e-06
4.30036e-05
-1.86258e-06
3.77261e-05
-1.62661e-06
3.30358e-05
-1.37637e-06
2.88171e-05
-1.11655e-06
2.50466e-05
-8.48409e-07
2.16124e-05
-5.76552e-07
1.85423e-05
-2.92518e-07
1.57868e-05
-5.08769e-08
1.26336e-05
4.08959e-08
2.96504e-05
1.12685e-07
3.29946e-05
1.46978e-07
3.67137e-05
1.30004e-07
4.08554e-05
7.28276e-08
4.54641e-05
-3.59812e-08
5.05956e-05
-1.9642e-07
5.63096e-05
-4.07578e-07
6.26793e-05
-6.67851e-07
6.97884e-05
-9.71829e-07
7.65089e-05
-1.30806e-06
7.66435e-05
-1.66403e-06
7.68286e-05
-2.0214e-06
7.70765e-05
-2.35721e-06
7.739e-05
-2.647e-06
7.77812e-05
-2.86473e-06
7.82501e-05
-2.98462e-06
8.30813e-05
-2.95853e-06
7.29322e-05
-2.86394e-06
6.40632e-05
-2.71135e-06
5.62913e-05
-2.51153e-06
4.94348e-05
-2.27595e-06
4.3417e-05
-2.01457e-06
3.81141e-05
-1.73638e-06
3.33958e-05
-1.44797e-06
2.91486e-05
-1.15318e-06
2.53514e-05
-8.58282e-07
2.18942e-05
-5.66743e-07
1.88165e-05
-2.78349e-07
1.60143e-05
-5.4855e-08
1.26885e-05
3.88788e-08
2.665e-05
1.07868e-07
2.96552e-05
1.40796e-07
3.30008e-05
1.23483e-07
3.67202e-05
6.65731e-08
4.08616e-05
-4.20192e-08
4.54701e-05
-2.03048e-07
5.06022e-05
-4.16877e-07
5.63189e-05
-6.83861e-07
6.26953e-05
-1.00168e-06
6.98182e-05
-1.36249e-06
7.65633e-05
-1.74997e-06
7.67295e-05
-2.14896e-06
7.69562e-05
-2.5368e-06
7.72561e-05
-2.88869e-06
7.76317e-05
-3.17745e-06
7.8094e-05
-3.37517e-06
7.86407e-05
-3.45756e-06
8.35804e-05
-3.37467e-06
7.3443e-05
-3.21948e-06
6.45713e-05
-3.00582e-06
5.67856e-05
-2.74777e-06
4.99066e-05
-2.45831e-06
4.38607e-05
-2.14863e-06
3.85263e-05
-1.82746e-06
3.37753e-05
-1.50079e-06
2.94962e-05
-1.17615e-06
2.56693e-05
-8.61691e-07
2.21891e-05
-5.5905e-07
1.90972e-05
-2.74282e-07
1.62337e-05
-7.5784e-08
1.27643e-05
3.71634e-08
2.39557e-05
1.03809e-07
2.66541e-05
1.35597e-07
2.96604e-05
1.18194e-07
3.30061e-05
6.18681e-08
3.67249e-05
-4.5928e-08
4.08655e-05
-2.06487e-07
4.54735e-05
-4.21114e-07
5.06064e-05
-6.91647e-07
5.63267e-05
-1.01819e-06
6.27118e-05
-1.3966e-06
6.98523e-05
-1.81468e-06
7.6628e-05
-2.25212e-06
7.68326e-05
-2.6894e-06
7.71088e-05
-3.10173e-06
7.74692e-05
-3.46096e-06
7.79152e-05
-3.73736e-06
7.84561e-05
-3.90401e-06
7.90871e-05
-3.93758e-06
8.41433e-05
-3.7881e-06
7.40116e-05
-3.56442e-06
6.51299e-05
-3.28469e-06
5.73225e-05
-2.96505e-06
5.04134e-05
-2.62024e-06
4.43323e-05
-2.2618e-06
3.89607e-05
-1.89813e-06
3.41726e-05
-1.53771e-06
2.98577e-05
-1.19053e-06
2.59981e-05
-8.63571e-07
2.24936e-05
-5.55161e-07
1.93781e-05
-3.38011e-07
1.6496e-05
-8.43782e-08
1.28487e-05
3.56973e-08
2.15335e-05
1.00369e-07
2.39592e-05
1.31203e-07
2.66585e-05
1.13891e-07
2.96647e-05
5.83648e-08
3.30096e-05
-4.82329e-08
3.67272e-05
-2.07568e-07
4.08666e-05
-4.21616e-07
4.5474e-05
-6.93315e-07
5.06081e-05
-1.02461e-06
5.63332e-05
-1.41432e-06
6.27295e-05
-1.85455e-06
6.98922e-05
-2.32958e-06
7.67055e-05
-2.81302e-06
7.69563e-05
-3.28332e-06
7.72904e-05
-3.7117e-06
7.77199e-05
-4.06687e-06
7.82448e-05
-4.31943e-06
7.88716e-05
-4.44279e-06
7.95924e-05
-4.41653e-06
8.47717e-05
-4.19083e-06
7.4638e-05
-3.89241e-06
6.57376e-05
-3.54237e-06
5.78998e-05
-3.15925e-06
5.09524e-05
-2.75876e-06
4.48293e-05
-2.35244e-06
3.9415e-05
-1.95038e-06
3.45853e-05
-1.56313e-06
3.02303e-05
-1.20025e-06
2.63348e-05
-8.64583e-07
2.2803e-05
-6.8177e-07
1.97218e-05
-3.37272e-07
1.67489e-05
-9.32523e-08
1.29419e-05
3.44391e-08
1.93533e-05
9.74382e-08
2.15364e-05
1.27471e-07
2.39629e-05
1.10378e-07
2.6662e-05
5.57909e-08
2.96673e-05
-4.93436e-08
3.30107e-05
-2.06936e-07
3.67266e-05
-4.19425e-07
4.08644e-05
-6.90534e-07
4.54713e-05
-1.02359e-06
5.06071e-05
-1.41968e-06
5.63385e-05
-1.87439e-06
6.27493e-05
-2.37698e-06
6.99396e-05
-2.90601e-06
7.67984e-05
-3.43102e-06
7.7104e-05
-3.92638e-06
7.7505e-05
-4.35957e-06
7.80126e-05
-4.69897e-06
7.86243e-05
-4.91472e-06
7.93435e-05
-4.98259e-06
8.01584e-05
-4.88527e-06
8.54662e-05
-4.57556e-06
7.53211e-05
-4.19705e-06
6.63923e-05
-3.77418e-06
5.85147e-05
-3.32716e-06
5.15208e-05
-2.87214e-06
4.5349e-05
-2.42179e-06
3.98864e-05
-1.98776e-06
3.50099e-05
-1.58022e-06
3.06103e-05
-1.20581e-06
2.6676e-05
-1.06597e-06
2.31872e-05
-6.72526e-07
2.00571e-05
-3.3651e-07
1.69921e-05
-1.0012e-07
1.3042e-05
1.73971e-05
3.33564e-08
9.49274e-08
1.93558e-05
1.24287e-07
2.15396e-05
1.07501e-07
2.39658e-05
5.3934e-08
2.66638e-05
-4.95778e-08
2.96675e-05
-2.05093e-07
3.30088e-05
-4.15348e-07
3.67225e-05
-6.84607e-07
4.08585e-05
-1.01721e-06
4.54649e-05
-1.41595e-06
5.06034e-05
-1.87915e-06
5.63433e-05
-2.40011e-06
6.27725e-05
-2.96303e-06
6.99966e-05
-3.54276e-06
7.69102e-05
-4.10205e-06
7.72796e-05
-4.61159e-06
7.77571e-05
-5.03789e-06
7.83515e-05
-5.34796e-06
7.90575e-05
-5.51369e-06
7.98746e-05
-5.51337e-06
8.07865e-05
-5.33555e-06
8.62261e-05
-4.93493e-06
7.6059e-05
-4.47291e-06
6.7091e-05
-3.97649e-06
5.91641e-05
-3.46678e-06
5.21154e-05
-2.96088e-06
4.58881e-05
-2.47251e-06
4.03711e-05
-2.01277e-06
3.54425e-05
-1.58959e-06
3.09941e-05
-1.48997e-06
2.71e-05
-1.0514e-06
2.35661e-05
-6.60758e-07
2.03813e-05
-3.33778e-07
1.72258e-05
-1.04547e-07
1.31466e-05
1.73993e-05
9.27593e-08
2.78119e-05
3.14786e-08
1.21558e-07
1.93585e-05
1.05139e-07
2.15419e-05
5.26285e-08
2.39671e-05
-4.91812e-08
2.66634e-05
-2.02421e-07
2.96648e-05
-4.10004e-07
3.30035e-05
-6.76545e-07
3.67144e-05
-1.00709e-06
4.08484e-05
-1.40571e-06
4.54546e-05
-1.87282e-06
5.0597e-05
-2.40494e-06
5.63481e-05
-2.99092e-06
6.28003e-05
-3.61192e-06
7.00658e-05
-4.23614e-06
7.70443e-05
-4.81942e-06
7.74875e-05
-5.3317e-06
7.80509e-05
-5.73719e-06
7.87408e-05
-6.00388e-06
7.95477e-05
-6.10552e-06
8.04667e-05
-6.02598e-06
8.14769e-05
-5.75886e-06
8.70501e-05
-5.26264e-06
7.68488e-05
-4.71575e-06
6.78303e-05
-4.1468e-06
5.98441e-05
-3.57791e-06
5.27325e-05
-3.02683e-06
4.64424e-05
-2.50653e-06
4.08649e-05
-2.02618e-06
3.58791e-05
-1.96556e-06
3.14697e-05
-1.471e-06
2.75196e-05
-1.03016e-06
2.39355e-05
-6.45462e-07
2.0693e-05
-3.28315e-07
1.74495e-05
-1.06662e-07
1.32532e-05
1.74016e-05
1.19216e-07
2.78159e-05
8.87575e-08
2.85518e-05
2.96895e-08
1.03194e-07
1.93604e-05
5.17454e-08
2.15428e-05
-4.83425e-08
2.39662e-05
-1.99215e-07
2.66602e-05
-4.03865e-07
2.96587e-05
-6.67116e-07
3.29941e-05
-9.94493e-07
3.67018e-05
-1.39098e-06
4.08336e-05
-1.85857e-06
4.54404e-05
-2.3963e-06
5.05884e-05
-2.99677e-06
5.6354e-05
-3.64643e-06
6.28348e-05
-4.32038e-06
7.015e-05
-4.97988e-06
7.72047e-05
-5.57621e-06
7.7732e-05
-6.07721e-06
7.83909e-05
-6.44722e-06
7.91841e-05
-6.65529e-06
8.00975e-05
-6.68031e-06
8.11211e-05
-6.51094e-06
8.2229e-05
-6.14788e-06
8.79353e-05
-5.55361e-06
7.76866e-05
-4.92238e-06
6.86059e-05
-4.2842e-06
6.05504e-05
-3.66162e-06
5.33673e-05
-3.07141e-06
4.70073e-05
-2.52473e-06
4.13635e-05
-2.5061e-06
3.64196e-05
-1.94117e-06
3.19398e-05
-1.44091e-06
2.79303e-05
-1.0025e-06
2.42926e-05
-6.26326e-07
2.0991e-05
-3.20156e-07
1.7663e-05
-1.06717e-07
1.336e-05
1.74032e-05
1.01588e-07
2.78199e-05
1.15188e-07
2.85557e-05
8.48758e-08
2.93117e-05
2.7989e-08
5.11836e-08
1.9361e-05
-4.72059e-08
2.15417e-05
-1.95694e-07
2.39627e-05
-3.97285e-07
2.66537e-05
-6.56904e-07
2.96485e-05
-9.80372e-07
3.29799e-05
-1.3733e-06
3.66842e-05
-1.83888e-06
4.08139e-05
-2.37803e-06
4.54221e-05
-2.98636e-06
5.0578e-05
-3.65463e-06
5.63622e-05
-4.36383e-06
6.28783e-05
-5.08265e-06
7.02528e-05
-5.76754e-06
7.73961e-05
-6.36309e-06
7.80178e-05
-6.83779e-06
7.87815e-05
-7.15611e-06
7.96849e-05
-7.29164e-06
8.07088e-05
-7.22761e-06
8.18377e-05
-6.95987e-06
8.3041e-05
-6.49646e-06
8.88781e-05
-5.8038e-06
7.85681e-05
-5.09114e-06
6.94128e-05
-4.38906e-06
6.12778e-05
-3.71889e-06
5.40147e-05
-3.09558e-06
4.75781e-05
-3.12365e-06
4.1981e-05
-2.47522e-06
3.69537e-05
-1.90118e-06
3.24001e-05
-1.40096e-06
2.83288e-05
-9.68984e-07
2.46352e-05
-6.0372e-07
2.12746e-05
-3.09602e-07
1.78659e-05
-1.0513e-07
1.34651e-05
1.74035e-05
5.08635e-08
2.78221e-05
9.93581e-08
2.85595e-05
1.11343e-07
2.93154e-05
8.11277e-08
3.00896e-05
2.63774e-08
-4.58812e-08
1.93597e-05
-1.92022e-07
2.1538e-05
-3.90525e-07
2.39559e-05
-6.46342e-07
2.66431e-05
-9.6545e-07
2.96336e-05
-1.35388e-06
3.29605e-05
-1.81566e-06
3.66609e-05
-2.35315e-06
4.07891e-05
-2.9643e-06
4.54001e-05
-3.64333e-06
5.05667e-05
-4.37613e-06
5.63745e-05
-5.13786e-06
6.29335e-05
-5.89283e-06
7.03781e-05
-6.59017e-06
7.76232e-05
-7.16985e-06
7.83499e-05
-7.60131e-06
7.92267e-05
-7.85278e-06
8.02461e-05
-7.90159e-06
8.13828e-05
-7.73805e-06
8.26159e-05
-7.36562e-06
8.39102e-05
-6.79952e-06
8.98739e-05
-6.01067e-06
7.94876e-05
-5.22174e-06
7.02455e-05
-4.46194e-06
6.20209e-05
-3.75068e-06
5.46698e-05
-3.83149e-06
4.8286e-05
-3.08564e-06
4.25914e-05
-2.42395e-06
3.74764e-05
-1.84781e-06
3.2847e-05
-1.35261e-06
2.87124e-05
-9.30636e-07
2.49621e-05
-5.78264e-07
2.15432e-05
-2.97167e-07
1.8058e-05
-1.02268e-07
1.35674e-05
1.74021e-05
-4.44504e-08
2.7821e-05
5.2006e-08
2.85615e-05
9.73445e-08
2.93191e-05
1.07657e-07
3.00932e-05
7.75094e-08
3.08895e-05
2.48544e-08
-1.8832e-07
1.9356e-05
-3.83776e-07
2.15313e-05
-6.35746e-07
2.39454e-05
-9.5026e-07
2.66279e-05
-1.3336e-06
2.96133e-05
-1.79036e-06
3.29352e-05
-2.324e-06
3.66318e-05
-2.93422e-06
4.0759e-05
-3.61799e-06
4.53747e-05
-4.36523e-06
5.05558e-05
-5.15656e-06
5.63932e-05
-5.96323e-06
6.30039e-05
-6.74248e-06
7.05304e-05
-7.43786e-06
7.78912e-05
-7.98431e-06
7.87329e-05
-8.35638e-06
7.97302e-05
-8.52521e-06
8.08697e-05
-8.47487e-06
8.21196e-05
-8.20345e-06
8.34538e-05
-7.72203e-06
8.48327e-05
-7.05349e-06
9.09167e-05
-6.17319e-06
8.0439e-05
-5.31423e-06
7.10978e-05
-4.50372e-06
6.27739e-05
-4.64501e-06
5.54834e-05
-3.78607e-06
4.89864e-05
-3.02185e-06
4.31893e-05
-2.35543e-06
3.7984e-05
-1.7833e-06
3.32776e-05
-1.29761e-06
2.90794e-05
-8.88613e-07
2.52725e-05
-5.50735e-07
2.17968e-05
-2.83355e-07
1.8239e-05
-9.84799e-08
1.36658e-05
1.73984e-05
-1.84672e-07
2.78149e-05
-3.83424e-08
2.85601e-05
5.34452e-08
2.93209e-05
9.55668e-08
3.00967e-05
1.04144e-07
3.0893e-05
7.40263e-08
3.17094e-05
2.34169e-08
-3.77174e-07
1.93494e-05
-6.25344e-07
2.15209e-05
-9.35189e-07
2.39303e-05
-1.31311e-06
2.66074e-05
-1.7641e-06
2.9587e-05
-2.29234e-06
3.29036e-05
-2.89892e-06
3.65965e-05
-3.58293e-06
4.07239e-05
-4.33752e-06
4.5347e-05
-5.14785e-06
5.05471e-05
-5.99117e-06
5.64211e-05
-6.83204e-06
6.30934e-05
-7.62215e-06
7.07147e-05
-8.29861e-06
7.82055e-05
-8.79496e-06
7.91715e-05
-9.0904e-06
8.02954e-05
-9.16228e-06
8.15571e-05
-9.00235e-06
8.29185e-05
-8.61661e-06
8.43483e-05
-8.02458e-06
8.58038e-05
-7.25652e-06
9.2e-05
-6.29089e-06
8.14157e-05
-5.3694e-06
7.19635e-05
-5.58198e-06
6.37109e-05
-4.59234e-06
5.62896e-05
-3.70869e-06
4.96732e-05
-2.9364e-06
4.37703e-05
-2.27276e-06
3.84735e-05
-1.71012e-06
3.36901e-05
-1.23776e-06
2.94285e-05
-8.44107e-07
2.55659e-05
-5.21879e-07
2.20353e-05
-2.68656e-07
1.84092e-05
-9.40597e-08
1.37599e-05
1.73921e-05
-3.70812e-07
2.78022e-05
-1.71946e-07
2.85536e-05
-3.18102e-08
2.93192e-05
5.51825e-08
3.00983e-05
9.40236e-08
3.08964e-05
1.00795e-07
3.17128e-05
7.0679e-08
3.25533e-05
2.20697e-08
-6.15295e-07
1.93393e-05
-9.20513e-07
2.15062e-05
-1.2929e-06
2.39101e-05
-1.73766e-06
2.6581e-05
-2.25952e-06
2.95542e-05
-2.86055e-06
3.28652e-05
-3.5415e-06
3.65551e-05
-4.29807e-06
4.06845e-05
-5.11913e-06
4.53183e-05
-5.987e-06
5.05429e-05
-6.87269e-06
5.64618e-05
-7.73542e-06
6.32067e-05
-8.52021e-06
7.09363e-05
-9.16101e-06
7.85715e-05
-9.58884e-06
7.96699e-05
-9.79159e-06
8.09248e-05
-9.75396e-06
8.23087e-05
-9.47575e-06
8.37777e-05
-8.97203e-06
8.52958e-05
-8.2706e-06
8.68179e-05
-7.40746e-06
9.31166e-05
-6.36432e-06
8.24106e-05
-6.66176e-06
7.30432e-05
-5.52292e-06
6.46414e-05
-4.50057e-06
5.70815e-05
-3.60454e-06
5.03414e-05
-2.83334e-06
4.43309e-05
-2.17919e-06
3.89426e-05
-1.6307e-06
3.40831e-05
-1.17475e-06
2.97592e-05
-7.98196e-07
2.58422e-05
-4.92374e-07
2.22591e-05
-2.53506e-07
1.85687e-05
-8.92345e-08
1.38491e-05
1.73825e-05
-6.05706e-07
2.77809e-05
-3.49592e-07
2.85402e-05
-1.58625e-07
2.93122e-05
-2.48477e-08
3.00963e-05
5.72085e-08
3.08977e-05
9.27264e-08
3.1716e-05
9.76043e-08
3.25566e-05
6.74518e-08
3.34193e-05
2.08057e-08
-9.06423e-07
1.93252e-05
-1.2733e-06
2.14866e-05
-1.71165e-06
2.38841e-05
-2.22654e-06
2.6548e-05
-2.82076e-06
2.95144e-05
-3.49628e-06
3.282e-05
-4.25084e-06
3.65078e-05
-5.0763e-06
4.06416e-05
-5.95917e-06
4.52905e-05
-6.87601e-06
5.05462e-05
-7.79283e-06
5.65192e-05
-8.66221e-06
6.33487e-05
-9.42551e-06
7.12008e-05
-1.00119e-05
7.89946e-05
-1.03536e-05
8.0232e-05
-1.04491e-05
8.16199e-05
-1.0291e-05
8.31239e-05
-9.88854e-06
8.46942e-05
-9.26615e-06
8.62913e-05
-8.45832e-06
8.78687e-05
-7.50651e-06
9.42588e-05
-7.90691e-06
8.36558e-05
-6.59819e-06
7.41185e-05
-5.41631e-06
6.55572e-05
-4.37599e-06
5.7853e-05
-3.47869e-06
5.09867e-05
-2.71678e-06
4.48685e-05
-2.07783e-06
3.93897e-05
-1.5473e-06
3.44556e-05
-1.11007e-06
3.00711e-05
-7.51813e-07
2.61016e-05
-4.62818e-07
2.24684e-05
-2.38228e-07
1.87177e-05
-8.42e-08
1.39333e-05
1.73691e-05
-8.9304e-07
2.77491e-05
-5.73832e-07
2.85182e-05
-3.276e-07
2.92983e-05
-1.4473e-07
3.00889e-05
-1.74801e-08
3.08953e-05
5.95185e-08
3.1717e-05
9.16834e-08
3.25596e-05
9.45531e-08
3.34224e-05
6.43471e-08
3.43052e-05
1.9622e-08
-1.25453e-06
1.93065e-05
-1.68647e-06
2.14614e-05
-2.1941e-06
2.38516e-05
-2.78073e-06
2.6508e-05
-3.44923e-06
2.94674e-05
-4.19889e-06
3.2768e-05
-5.02399e-06
3.64555e-05
-5.91445e-06
4.05969e-05
-6.85154e-06
4.5266e-05
-7.80721e-06
5.05606e-05
-8.74102e-06
5.6598e-05
-9.60169e-06
6.35249e-05
-1.0325e-05
7.15139e-05
-1.08388e-05
7.94797e-05
-1.10778e-05
8.08607e-05
-1.10526e-05
8.23816e-05
-1.07657e-05
8.4001e-05
-1.02362e-05
8.56642e-05
-9.49635e-06
8.73294e-05
-8.58738e-06
8.89496e-05
-9.3433e-06
9.56952e-05
-7.84269e-06
8.49003e-05
-6.47709e-06
7.51793e-05
-5.26966e-06
6.64509e-05
-4.22479e-06
5.85991e-05
-3.33625e-06
5.16062e-05
-2.59061e-06
4.53812e-05
-1.97154e-06
3.9814e-05
-1.46187e-06
3.48074e-05
-1.045e-06
3.03642e-05
-7.05773e-07
2.63446e-05
-4.33633e-07
2.26638e-05
-2.23115e-07
1.88566e-05
-7.91026e-08
1.40124e-05
1.73513e-05
-1.23676e-06
2.77042e-05
-8.48203e-07
2.84854e-05
-5.40979e-07
2.92755e-05
-3.04826e-07
3.00744e-05
-1.30254e-07
3.08876e-05
-9.71853e-09
3.17144e-05
6.2102e-08
3.25604e-05
9.09254e-08
3.34253e-05
9.1639e-08
3.43082e-05
6.13597e-08
3.52191e-05
1.85166e-08
-1.6624e-06
1.92824e-05
-2.16272e-06
2.143e-05
-2.74134e-06
2.38122e-05
-3.40181e-06
2.64606e-05
-4.14457e-06
2.9413e-05
-4.9658e-06
3.27098e-05
-5.85822e-06
3.63993e-05
-6.80699e-06
4.05524e-05
-7.78919e-06
4.5248e-05
-8.77064e-06
5.05902e-05
-9.70705e-06
5.67033e-05
-1.05411e-05
6.3741e-05
-1.1206e-05
7.18811e-05
-1.16295e-05
8.00314e-05
-1.17503e-05
8.15583e-05
-1.15936e-05
8.32095e-05
-1.11726e-05
8.49374e-05
-1.05152e-05
8.66831e-05
-9.66165e-06
8.84036e-05
-1.07107e-05
9.0317e-05
-9.28602e-06
9.71385e-05
-7.70923e-06
8.61324e-05
-6.30736e-06
7.6217e-05
-5.0905e-06
6.73166e-05
-4.05323e-06
5.93161e-05
-3.18197e-06
5.21976e-05
-2.45837e-06
4.58681e-05
-1.86278e-06
4.02149e-05
-1.37607e-06
3.51385e-05
-9.80623e-07
3.06391e-05
-6.60633e-07
2.65716e-05
-4.05208e-07
2.28459e-05
-2.08382e-07
1.89858e-05
-7.40465e-08
1.40865e-05
1.73285e-05
-1.63962e-06
2.76436e-05
-1.17612e-06
2.84393e-05
-8.02139e-07
2.92418e-05
-5.07207e-07
3.00509e-05
-2.8132e-07
3.08726e-05
-1.15246e-07
3.17063e-05
-1.58673e-09
3.25575e-05
6.49408e-08
3.34258e-05
9.04399e-08
3.4311e-05
8.88395e-08
3.5222e-05
5.84938e-08
3.6155e-05
1.74825e-08
-2.13273e-06
1.92524e-05
-2.70321e-06
2.13919e-05
-3.35505e-06
2.37655e-05
-4.0896e-06
2.64056e-05
-4.90449e-06
2.93517e-05
-5.79467e-06
3.26463e-05
-6.74853e-06
3.63408e-05
-7.74746e-06
4.05106e-05
-8.76279e-06
4.52401e-05
-9.75665e-06
5.06398e-05
-1.06785e-05
5.68408e-05
-1.14678e-05
6.40028e-05
-1.20563e-05
7.23079e-05
-1.23722e-05
8.06534e-05
-1.23614e-05
8.23261e-05
-1.20655e-05
8.41025e-05
-1.15072e-05
8.59294e-05
-1.07238e-05
8.77453e-05
-1.20792e-05
8.97721e-05
-1.06689e-05
9.16999e-05
-9.14545e-06
9.85747e-05
-7.51697e-06
8.7342e-05
-6.098e-06
7.72245e-05
-4.88638e-06
6.81497e-05
-3.86709e-06
6.00012e-05
-3.0202e-06
5.27594e-05
-2.32309e-06
4.63284e-05
-1.7536e-06
4.05924e-05
-1.29129e-06
3.54492e-05
-9.17669e-07
3.08961e-05
-6.16903e-07
2.67833e-05
-3.77819e-07
2.30153e-05
-1.94165e-07
1.9106e-05
-6.91131e-08
1.41556e-05
1.73002e-05
-2.10435e-06
2.75642e-05
-1.5602e-06
2.83771e-05
-1.11387e-06
2.91943e-05
-7.54715e-07
3.00161e-05
-4.72401e-07
3.08483e-05
-2.57096e-07
3.16908e-05
-9.97445e-08
3.25491e-05
6.88606e-09
3.34227e-05
6.80223e-08
3.43112e-05
9.02068e-08
3.52247e-05
8.61594e-08
3.61578e-05
5.57564e-08
3.6589e-05
1.65282e-08
-2.66676e-06
1.9216e-05
-3.30972e-06
2.13466e-05
-4.03526e-06
2.37111e-05
-4.84212e-06
2.63432e-05
-5.72702e-06
2.92841e-05
-6.68097e-06
3.25787e-05
-7.68899e-06
3.62823e-05
-8.72713e-06
4.0475e-05
-9.76328e-06
4.52468e-05
-1.07533e-05
5.07147e-05
-1.16431e-05
5.70161e-05
-1.23695e-05
6.4316e-05
-1.28634e-05
7.27991e-05
-1.30566e-05
8.13486e-05
-1.29038e-05
8.31644e-05
-1.24628e-05
8.5058e-05
-1.17668e-05
8.69724e-05
-1.34433e-05
8.91094e-05
-1.20632e-05
9.11664e-05
-1.05301e-05
9.30845e-05
-8.93348e-06
9.99912e-05
-7.27634e-06
8.85204e-05
-5.85806e-06
7.81962e-05
-4.66426e-06
6.89469e-05
-3.67165e-06
6.06526e-05
-2.85462e-06
5.32909e-05
-2.18729e-06
4.67621e-05
-1.64578e-06
4.09469e-05
-1.20845e-06
3.574e-05
-8.56804e-07
3.1136e-05
-5.74937e-07
2.69804e-05
-3.51622e-07
2.31728e-05
-1.80574e-07
1.92174e-05
-6.43625e-08
1.422e-05
1.72657e-05
-2.63225e-06
2.74628e-05
-2.00294e-06
2.8296e-05
-1.47913e-06
2.91307e-05
-1.05023e-06
2.99676e-05
-7.06184e-07
3.08127e-05
-4.36774e-07
3.16659e-05
-2.32216e-07
3.25331e-05
-8.3766e-08
3.34139e-05
1.56724e-08
3.43079e-05
7.1351e-08
3.52247e-05
9.0165e-08
3.61603e-05
8.36005e-08
3.65915e-05
5.31719e-08
3.55529e-05
1.5677e-08
-3.26634e-06
1.91726e-05
-3.98246e-06
2.12938e-05
-4.78023e-06
2.36492e-05
-5.65772e-06
2.62739e-05
-6.60806e-06
2.92112e-05
-7.61929e-06
3.2509e-05
-8.67147e-06
3.62267e-05
-9.73754e-06
4.04492e-05
-1.07793e-05
4.52727e-05
-1.17488e-05
5.08203e-05
-1.25886e-05
5.72351e-05
-1.32336e-05
6.46863e-05
-1.36164e-05
7.33588e-05
-1.36742e-05
8.21191e-05
-1.33707e-05
8.40722e-05
-1.27818e-05
8.6073e-05
-1.47957e-05
8.83248e-05
-1.34655e-05
9.05116e-05
-1.19363e-05
9.25727e-05
-1.03073e-05
9.44583e-05
-8.66217e-06
0.000101377
-6.9979e-06
8.96602e-05
-5.59588e-06
7.91278e-05
-4.43054e-06
6.97058e-05
-3.47138e-06
6.12694e-05
-2.68834e-06
5.3792e-05
-2.05317e-06
4.71695e-05
-1.54044e-06
4.12789e-05
-1.12842e-06
3.60116e-05
-7.98483e-07
3.13596e-05
-5.34924e-07
2.71637e-05
-3.26746e-07
2.33189e-05
-1.67687e-07
1.93208e-05
-5.98322e-08
1.42798e-05
1.72245e-05
-3.22523e-06
2.73366e-05
-2.50614e-06
2.81927e-05
-1.89966e-06
2.90477e-05
-1.3961e-06
2.99025e-05
-9.85181e-07
3.07631e-05
-6.56538e-07
3.16295e-05
-4.00305e-07
3.25076e-05
-2.06768e-07
3.33975e-05
-6.73822e-08
3.42988e-05
2.47601e-08
3.52211e-05
7.49278e-08
3.61602e-05
9.02743e-08
3.65939e-05
8.1221e-08
3.55552e-05
5.08282e-08
3.45448e-05
1.49126e-08
-3.93183e-06
1.9122e-05
-4.7199e-06
2.12334e-05
-5.58857e-06
2.35801e-05
-6.53268e-06
2.61985e-05
-7.54269e-06