# Region type : patch inlet
# Faces  :      720
# Area   :      4.51098470e-02
# Time          	average(p)
0               	1.01325000e+05
1.2e-05         	1.01325032e+05
2.64e-05        	1.01325076e+05
4.368e-05       	1.01325121e+05
6.4416e-05      	1.01325168e+05
8.92992e-05     	1.01325221e+05
0.000119151     	1.01325286e+05
0.000154951     	1.01325375e+05
0.000197755     	1.01325579e+05
0.000249076     	1.01326362e+05
0.000310403     	1.01328898e+05
0.000383809     	1.01334127e+05
0.000471229     	1.01340262e+05
0.00057594      	1.01343171e+05
0.000701595     	1.01340999e+05
0.000851569     	1.01336400e+05
0.0010275       	1.01332807e+05
0.00122689      	1.01331195e+05
0.00145184      	1.01330874e+05
0.00170326      	1.01331128e+05
0.00197089      	1.01331587e+05
0.00224776      	1.01332106e+05
0.00252463      	1.01332623e+05
0.00280149      	1.01333126e+05
0.00307836      	1.01333613e+05
0.00335522      	1.01334089e+05
0.00363209      	1.01334556e+05
0.00390895      	1.01335016e+05
0.00418582      	1.01335470e+05
0.00446269      	1.01335917e+05
0.00473955      	1.01336357e+05
0.00501642      	1.01336790e+05
0.00529328      	1.01337214e+05
0.00557015      	1.01337631e+05
0.00584701      	1.01338039e+05
0.00612388      	1.01338439e+05
0.00640075      	1.01338831e+05
0.00667761      	1.01339214e+05
0.00695448      	1.01339589e+05
0.00723134      	1.01339956e+05
0.00750821      	1.01340315e+05
0.00778507      	1.01340665e+05
0.00806194      	1.01341008e+05
0.00833881      	1.01341342e+05
0.00861567      	1.01341669e+05
0.00889254      	1.01341988e+05
0.0091694       	1.01342299e+05
0.00944627      	1.01342603e+05
0.00972313      	1.01342900e+05
0.01            	1.01343190e+05
0.0102941       	1.01343489e+05
0.0105882       	1.01343782e+05
0.0108824       	1.01344066e+05
0.0111765       	1.01344344e+05
0.0114706       	1.01344614e+05
0.0117647       	1.01344878e+05
0.0120588       	1.01345135e+05
0.0123529       	1.01345386e+05
0.0126471       	1.01345630e+05
0.0129412       	1.01345869e+05
0.0132353       	1.01346101e+05
0.0135294       	1.01346328e+05
0.0138235       	1.01346549e+05
0.0141176       	1.01346765e+05
0.0144118       	1.01346975e+05
0.0147059       	1.01347181e+05
0.015           	1.01347381e+05
0.0152941       	1.01347577e+05
0.0155882       	1.01347768e+05
0.0158824       	1.01347954e+05
0.0161765       	1.01348135e+05
0.0164706       	1.01348312e+05
0.0167647       	1.01348485e+05
0.0170588       	1.01348653e+05
0.0173529       	1.01348817e+05
0.0176471       	1.01348977e+05
0.0179412       	1.01349132e+05
0.0182353       	1.01349284e+05
0.0185294       	1.01349431e+05
0.0188235       	1.01349575e+05
0.0191176       	1.01349715e+05
0.0194118       	1.01349852e+05
0.0197059       	1.01349985e+05
0.02            	1.01350115e+05
0.020303        	1.01350245e+05
0.0206061       	1.01350371e+05
0.0209091       	1.01350494e+05
0.0212121       	1.01350613e+05
0.0215152       	1.01350729e+05
0.0218182       	1.01350842e+05
0.0221212       	1.01350952e+05
0.0224242       	1.01351059e+05
0.0227273       	1.01351162e+05
0.0230303       	1.01351263e+05
0.0233333       	1.01351361e+05
0.0236364       	1.01351457e+05
0.0239394       	1.01351549e+05
0.0242424       	1.01351639e+05
0.0245455       	1.01351726e+05
0.0248485       	1.01351811e+05
0.0251515       	1.01351893e+05
0.0254545       	1.01351972e+05
0.0257576       	1.01352050e+05
0.0260606       	1.01352125e+05
0.0263636       	1.01352198e+05
0.0266667       	1.01352268e+05
0.0269697       	1.01352337e+05
0.0272727       	1.01352403e+05
0.0275758       	1.01352467e+05
0.0278788       	1.01352530e+05
0.0281818       	1.01352590e+05
0.0284848       	1.01352648e+05
0.0287879       	1.01352705e+05
0.0290909       	1.01352760e+05
0.0293939       	1.01352813e+05
0.029697        	1.01352864e+05
0.03            	1.01352914e+05
0.030303        	1.01352962e+05
0.0306061       	1.01353009e+05
0.0309091       	1.01353054e+05
0.0312121       	1.01353097e+05
0.0315152       	1.01353139e+05
0.0318182       	1.01353180e+05
0.0321212       	1.01353219e+05
0.0324242       	1.01353257e+05
0.0327273       	1.01353294e+05
0.0330303       	1.01353329e+05
0.0333333       	1.01353364e+05
0.0336364       	1.01353397e+05
0.0339394       	1.01353428e+05
0.0342424       	1.01353459e+05
0.0345455       	1.01353489e+05
0.0348485       	1.01353518e+05
0.0351515       	1.01353547e+05
0.0354545       	1.01353574e+05
0.0357576       	1.01353601e+05
0.0360606       	1.01353628e+05
0.0363636       	1.01353655e+05
0.0366667       	1.01353681e+05
0.0369697       	1.01353708e+05
0.0372727       	1.01353734e+05
0.0375758       	1.01353762e+05
0.0378788       	1.01353790e+05
0.0381818       	1.01353819e+05
0.0384848       	1.01353849e+05
0.0387879       	1.01353881e+05
0.0390909       	1.01353915e+05
0.0393939       	1.01353951e+05
0.039697        	1.01353991e+05
0.04            	1.01354034e+05
0.0403125       	1.01354082e+05
0.040625        	1.01354136e+05
0.0409375       	1.01354194e+05
0.04125         	1.01354257e+05
0.0415625       	1.01354327e+05
0.041875        	1.01354402e+05
0.0421875       	1.01354484e+05
0.0425          	1.01354573e+05
0.0428125       	1.01354668e+05
0.043125        	1.01354769e+05
0.0434375       	1.01354876e+05
0.04375         	1.01354988e+05
0.0440625       	1.01355106e+05
0.044375        	1.01355228e+05
0.0446875       	1.01355353e+05
0.045           	1.01355482e+05
0.0453125       	1.01355614e+05
0.045625        	1.01355747e+05
0.0459375       	1.01355881e+05
0.04625         	1.01356016e+05
0.0465625       	1.01356151e+05
0.046875        	1.01356286e+05
0.0471875       	1.01356419e+05
0.0475          	1.01356550e+05
0.0478125       	1.01356680e+05
0.048125        	1.01356807e+05
0.0484375       	1.01356931e+05
0.04875         	1.01357052e+05
0.0490625       	1.01357169e+05
0.049375        	1.01357283e+05
0.0496875       	1.01357393e+05
0.05            	1.01357499e+05
