/*--------------------------------*- C++ -*----------------------------------*\
  =========                 |
  \\      /  F ield         | OpenFOAM: The Open Source CFD Toolbox
   \\    /   O peration     | Website:  https://openfoam.org
    \\  /    A nd           | Version:  8
     \\/     M anipulation  |
\*---------------------------------------------------------------------------*/
FoamFile
{
    version     2.0;
    format      ascii;
    class       volScalarField;
    location    "0.09";
    object      nut;
}
// * * * * * * * * * * * * * * * * * * * * * * * * * * * * * * * * * * * * * //

dimensions      [0 2 -1 0 0 0 0];

internalField   nonuniform List<scalar> 
15677
(
0.000168252
0.000653022
0.000148416
0.00151374
0.000442451
0.000141507
0.00267552
0.000875785
0.000381135
0.000142376
0.00392132
0.00151887
0.000686592
0.000354237
0.000145458
0.00502432
0.00235604
0.00114629
0.000585593
0.000340247
0.000151204
0.00584083
0.00331724
0.00178058
0.000947656
0.000529263
0.000332008
0.000157
0.00633514
0.00429852
0.00256736
0.0014631
0.000820814
0.000492469
0.000326994
0.000162436
0.00656291
0.00518758
0.00345258
0.00213126
0.00125699
0.000737183
0.000467459
0.000324116
0.000167216
0.00665848
0.00589342
0.00435506
0.0029217
0.00184117
0.00111215
0.000677361
0.000450456
0.000322561
0.000171433
0.0067055
0.0063383
0.00518066
0.00377851
0.00255649
0.00163148
0.00100451
0.00063411
0.00043874
0.000321994
0.000174997
0.00671438
0.00655353
0.00584523
0.00462485
0.00336223
0.00228603
0.00147246
0.000924187
0.000602246
0.000430801
0.000321954
0.000178126
0.00670992
0.00666157
0.0062956
0.00537679
0.00419646
0.00304471
0.00207747
0.00134892
0.000862284
0.000578641
0.000425374
0.000322424
0.000180731
0.00670629
0.00669879
0.00652954
0.00596426
0.0049838
0.0038567
0.00279531
0.00191152
0.00125125
0.0008142
0.000560966
0.000421881
0.000323073
0.000183079
0.00670543
0.00670439
0.00664678
0.00635686
0.00564982
0.00465532
0.00358289
0.00259324
0.00177778
0.00117311
0.000776524
0.000547797
0.000419575
0.000323978
0.000185121
0.0067055
0.00670285
0.00668787
0.00656292
0.00614192
0.00536807
0.00438089
0.00335658
0.00242781
0.00166818
0.00110988
0.000746789
0.000537788
0.000418334
0.000324824
0.000186932
0.00670568
0.00670159
0.00669641
0.00665655
0.00644669
0.00593342
0.00512071
0.00414828
0.00316834
0.00228998
0.00157812
0.00105826
0.000723247
0.000530524
0.000417471
0.000325872
0.000188585
0.00670579
0.00670108
0.00669719
0.00668487
0.00660483
0.00632168
0.00573728
0.00490363
0.00395084
0.00300937
0.00217516
0.00150317
0.00101655
0.000704807
0.000524885
0.000417345
0.000326802
0.000189999
0.00670585
0.00670093
0.00669684
0.00669157
0.00666374
0.00654124
0.00618817
0.00555684
0.00471435
0.00378153
0.00287525
0.00207846
0.0014413
0.000982604
0.000690124
0.000521021
0.00041729
0.000327891
0.000191425
0.00670587
0.00670089
0.0066966
0.00669257
0.00668238
0.00663454
0.00646777
0.00605801
0.00539378
0.0045488
0.00363669
0.00276118
0.0019976
0.00139002
0.000955097
0.000678799
0.000518003
0.000417826
0.000328861
0.000192542
0.00670588
0.00670087
0.00669652
0.00669243
0.00668744
0.00666906
0.00659804
0.00638957
0.00593493
0.00524731
0.00440474
0.00351228
0.00266474
0.00192989
0.00134796
0.000932973
0.000669926
0.000516287
0.000418242
0.000329946
0.00019387
0.00670589
0.00670085
0.0066965
0.00669224
0.00668845
0.00668063
0.00665152
0.00655629
0.00631101
0.00582025
0.00511699
0.00427946
0.00340607
0.00258345
0.00187386
0.00131361
0.000915507
0.00066338
0.000514943
0.000419197
0.000330974
0.000194759
0.00670589
0.00670084
0.0066965
0.00669213
0.00668851
0.00668393
0.00667192
0.00663041
0.00651132
0.00623363
0.00571518
0.00500177
0.00417139
0.00331607
0.00251567
0.0018279
0.0012862
0.000901852
0.000658558
0.000514705
0.000419913
0.000332023
0.000196077
0.00670589
0.00670083
0.0066965
0.00669207
0.00668843
0.00668462
0.0066789
0.0066613
0.00660622
0.00646564
0.00616054
0.00562047
0.00490128
0.00407919
0.00324041
0.00246001
0.00179106
0.00126475
0.000891935
0.000655438
0.000514468
0.000421162
0.000333187
0.000196808
0.00670588
0.00670083
0.0066965
0.00669203
0.00668837
0.00668464
0.00668097
0.00667298
0.00664877
0.00658103
0.00641951
0.00609346
0.00553653
0.00481439
0.00400113
0.00317855
0.00241549
0.00176268
0.00124891
0.000884602
0.000653564
0.000515369
0.00042209
0.000334104
0.000198126
0.00670588
0.00670083
0.00669649
0.006692
0.00668834
0.00668454
0.00668145
0.00667692
0.00666634
0.00663548
0.0065542
0.00637736
0.00603166
0.00546262
0.00474105
0.00393801
0.00312906
0.00238115
0.00174126
0.00123756
0.000880642
0.000653071
0.000515854
0.000423604
0.000335596
0.000198831
0.00670587
0.00670084
0.00669648
0.00669199
0.00668832
0.00668445
0.00668149
0.00667803
0.00667297
0.00665926
0.00662101
0.00652975
0.0063359
0.00597752
0.00540158
0.00468152
0.00388616
0.00309056
0.00235592
0.00172809
0.001232
0.000878582
0.000653578
0.000517818
0.000424634
0.000336378
5.33934e-05
0.00670586
0.00670085
0.00669647
0.00669198
0.0066883
0.00668438
0.00668144
0.00667822
0.0066752
0.00666882
0.00665184
0.00660786
0.00650468
0.00630302
0.00593259
0.0053488
0.00463205
0.00384956
0.00306663
0.00234271
0.00172178
0.00122936
0.000879452
0.00065541
0.000518981
0.000427074
0.000284001
6.34637e-05
0.00670586
0.00670085
0.00669646
0.00669198
0.00668828
0.00668434
0.00668139
0.00667815
0.00667582
0.00667229
0.00666504
0.00664526
0.00659445
0.0064862
0.00626951
0.00589235
0.00531275
0.00460406
0.00382769
0.0030522
0.00233549
0.00172015
0.00123103
0.000881975
0.000657457
0.000521505
0.000420819
0.000219936
7.09701e-05
0.00670585
0.00670086
0.00669645
0.00669198
0.00668826
0.00668431
0.00668134
0.00667804
0.00667591
0.00667333
0.00667024
0.00666193
0.00663909
0.00658552
0.00646674
0.00624843
0.0058733
0.00528962
0.00458285
0.00381337
0.00304579
0.00233512
0.00172427
0.00123651
0.000886132
0.00066065
0.000522801
0.000401324
0.000178272
7.6538e-05
0.00670584
0.00670087
0.00669644
0.00669199
0.00668824
0.00668429
0.0066813
0.00667795
0.00667587
0.0066735
0.00667207
0.00666879
0.00665985
0.00663614
0.00657669
0.00645802
0.00624066
0.00585755
0.00527395
0.00457149
0.00381001
0.00304981
0.00234386
0.00173478
0.00124519
0.000892416
0.000664727
0.000521101
0.000368752
0.000152641
8.10915e-05
0.00670584
0.00670088
0.00669642
0.006692
0.00668821
0.00668429
0.00668126
0.00667788
0.0066758
0.00667341
0.00667257
0.00667128
0.00666888
0.00666033
0.00663437
0.00657778
0.00645731
0.00623521
0.00584996
0.00527039
0.00457578
0.00382139
0.00306541
0.0023609
0.00175025
0.00125762
0.000900396
0.000668586
0.000515663
0.000337636
0.000134174
8.46435e-05
0.00670583
0.00670089
0.00669641
0.00669201
0.00668819
0.00668429
0.00668122
0.00667783
0.00667573
0.00667327
0.00667263
0.00667194
0.00667248
0.00667111
0.00666283
0.00664198
0.00658191
0.00646185
0.00623763
0.00585793
0.00528425
0.00459507
0.00384507
0.00309101
0.00238535
0.00177096
0.00127299
0.000909843
0.000672467
0.000505043
0.000307579
0.000121084
8.72009e-05
0.00670583
0.0067009
0.0066964
0.00669202
0.00668817
0.00668429
0.00668117
0.0066778
0.00667565
0.00667315
0.00667257
0.00667197
0.00667367
0.00667547
0.00667605
0.0066745
0.00664969
0.00659273
0.00647405
0.00625647
0.00588193
0.00531277
0.00462843
0.00388097
0.0031265
0.00241717
0.0017962
0.00129171
0.000920619
0.000675007
0.000490459
0.000281548
0.000112482
8.91246e-05
0.00670582
0.0067009
0.00669639
0.00669203
0.00668815
0.0066843
0.00668113
0.00667779
0.00667558
0.00667305
0.00667247
0.00667182
0.00667396
0.00667687
0.00668182
0.00669001
0.00668448
0.0066649
0.0066141
0.00650122
0.00628986
0.00592103
0.005357
0.00467601
0.00392914
0.0031717
0.00245602
0.00182623
0.00131283
0.000932516
0.00067651
0.000474336
0.000261858
0.000106624
9.06425e-05
0.00670091
0.00670582
0.00669638
0.00669204
0.00668813
0.00668431
0.00668109
0.00667778
0.00667551
0.00667298
0.00667236
0.00667164
0.00667396
0.00667716
0.00668398
0.00669696
0.0067014
0.00670262
0.00669282
0.00664786
0.00654276
0.00633861
0.00597689
0.00541703
0.00473808
0.00398957
0.00322655
0.00250184
0.00186043
0.00133708
0.000947117
0.000677406
0.000460284
0.000246738
0.000102487
9.18956e-05
0.00669638
0.00670093
0.00670582
0.00669205
0.00668811
0.00668432
0.00668105
0.00667779
0.00667543
0.00667293
0.00667225
0.00667146
0.00667386
0.00667705
0.00668466
0.00669967
0.00670919
0.00672142
0.00673501
0.00673139
0.00669593
0.00660011
0.00640535
0.00605013
0.00549406
0.00481508
0.00406222
0.0032908
0.00255431
0.00189898
0.0013664
0.000964602
0.000678296
0.000448294
0.00023509
9.95302e-05
9.2973e-05
0.00669206
0.00669639
0.00670097
0.00670583
0.0066881
0.00668433
0.00668101
0.00667779
0.00667536
0.00667291
0.00667214
0.00667133
0.00667373
0.00667684
0.00668481
0.00670058
0.00671241
0.00673041
0.0067568
0.00677715
0.00678463
0.00676005
0.00667596
0.00649088
0.00614257
0.00558864
0.00490672
0.00414701
0.00336431
0.00261323
0.00194663
0.00140176
0.000983582
0.000679511
0.000438583
0.000225865
9.73367e-05
9.39271e-05
0.00668808
0.0066921
0.00669643
0.00670101
0.00670583
0.00668434
0.00668098
0.00667781
0.00667529
0.0066729
0.00667202
0.00667123
0.0066736
0.0066766
0.00668477
0.0067008
0.00671364
0.0067344
0.00676778
0.00680151
0.00683443
0.00685421
0.00684321
0.00677096
0.00659716
0.00625427
0.00570142
0.00501405
0.00424377
0.00344659
0.00268564
0.00200562
0.00143965
0.0010035
0.000682337
0.000430661
0.000218577
9.57308e-05
9.47939e-05
0.00668435
0.00668811
0.00669218
0.00669647
0.00670105
0.00670584
0.00668095
0.00667782
0.00667522
0.00667291
0.0066719
0.00667116
0.00667346
0.00667637
0.00668468
0.00670077
0.00671408
0.00673615
0.00677307
0.00681437
0.00686188
0.00690791
0.00694264
0.00694561
0.0068876
0.0067237
0.0063862
0.00583254
0.00513633
0.00435208
0.00354782
0.0027747
0.00206968
0.00148017
0.00102526
0.000686055
0.00042451
0.000212596
9.44874e-05
9.55903e-05
0.00668092
0.00668441
0.00668817
0.00669226
0.00669651
0.00670109
0.00670584
0.00667783
0.00667516
0.00667292
0.00667178
0.00667114
0.00667331
0.00667618
0.00668458
0.00670066
0.00671422
0.00673698
0.00677576
0.00682127
0.00687783
0.00693994
0.00700326
0.00705296
0.00707059
0.00702432
0.00687151
0.00653771
0.00598041
0.00527469
0.00448557
0.00367166
0.00287173
0.00213861
0.00152254
0.00104749
0.000690998
0.000419699
0.00020766
9.35668e-05
9.63338e-05
0.00667784
0.00668094
0.00668452
0.00668824
0.00669234
0.00669656
0.00670113
0.00670585
0.0066751
0.00667294
0.00667166
0.00667114
0.00667315
0.00667604
0.00668448
0.00670051
0.00671424
0.00673743
0.00677732
0.0068252
0.00688719
0.00695942
0.00704072
0.00712122
0.00718961
0.00722137
0.0071858
0.00703836
0.00670722
0.00614515
0.00544309
0.00465085
0.00380782
0.00297579
0.00221165
0.00156748
0.00106976
0.000697299
0.00041613
0.000203518
9.28252e-05
9.70267e-05
0.00667506
0.00667791
0.00668101
0.00668463
0.00668831
0.00669242
0.0066966
0.00670117
0.00670586
0.00667296
0.00667155
0.00667117
0.00667297
0.00667596
0.00668439
0.00670037
0.00671421
0.00673771
0.00677835
0.00682783
0.00689323
0.00697191
0.00706543
0.0071655
0.00726707
0.00735238
0.00740042
0.00737437
0.00722853
0.00689349
0.00634361
0.00564775
0.00482992
0.00395371
0.00308615
0.00228829
0.00161434
0.00109288
0.000704489
0.000413624
0.000200036
9.22785e-05
9.76809e-05
0.00667298
0.00667505
0.00667804
0.00668109
0.00668474
0.00668838
0.0066925
0.00669665
0.00670121
0.00670587
0.00667145
0.00667121
0.00667277
0.00667594
0.00668429
0.00670023
0.00671417
0.00673792
0.00677911
0.00682984
0.00689768
0.00698076
0.00708298
0.00719693
0.00732069
0.00744139
0.007546
0.00760697
0.00758997
0.00744452
0.00712038
0.0065817
0.0058663
0.00501896
0.00410733
0.00320167
0.00236793
0.00166273
0.00111664
0.000712423
0.000412075
0.000197079
9.18205e-05
9.82923e-05
0.00667136
0.00667305
0.0066751
0.00667817
0.00668117
0.00668486
0.00668846
0.00669258
0.00669671
0.00670124
0.00670588
0.00667125
0.00667258
0.00667597
0.00668417
0.0067001
0.00671413
0.00673809
0.00677974
0.00683152
0.00690128
0.0069878
0.00709654
0.00722096
0.00736184
0.00750694
0.00765014
0.00777026
0.00784362
0.00783195
0.0077119
0.0074034
0.00683423
0.00609367
0.00521571
0.00426654
0.0033211
0.00244983
0.00171233
0.00114065
0.000720522
0.000411245
0.000194562
9.14908e-05
9.88722e-05
0.0066713
0.00667128
0.00667318
0.00667515
0.00667831
0.00668126
0.00668497
0.00668855
0.00669266
0.00669676
0.00670128
0.00670589
0.00667238
0.00667606
0.006684
0.00669999
0.0067141
0.00673824
0.00678028
0.00683301
0.00690434
0.00699386
0.0071079
0.00724055
0.00739582
0.0075607
0.00773175
0.00789306
0.00802905
0.00811083
0.00813096
0.0080405
0.0077147
0.00710851
0.00632742
0.00541619
0.00442889
0.00344305
0.00253336
0.0017627
0.00116525
0.00072875
0.00041096
0.000192397
9.12026e-05
9.94127e-05
0.0066722
0.00667135
0.00667119
0.00667331
0.00667521
0.00667844
0.00668136
0.00668508
0.00668864
0.00669274
0.00669682
0.00670132
0.0067059
0.00667619
0.00668377
0.0066999
0.00671409
0.00673839
0.00678078
0.00683434
0.00690704
0.00699928
0.00711786
0.00725762
0.00742519
0.00760749
0.00780288
0.007995
0.00817597
0.00832316
0.0084432
0.00850153
0.00839915
0.00804641
0.00740062
0.00657048
0.00561828
0.00459286
0.00356652
0.00261778
0.00181352
0.00119018
0.000737135
0.000411114
0.000190532
9.10046e-05
9.99266e-05
0.00667635
0.00667189
0.00667142
0.00667112
0.00667344
0.00667528
0.00667857
0.00668147
0.00668519
0.00668874
0.00669282
0.00669688
0.00670135
0.00670591
0.00668349
0.00669986
0.0067141
0.00673855
0.00678125
0.00683556
0.00690947
0.0070042
0.00712677
0.00727309
0.00745164
0.00764908
0.00786801
0.0080888
0.00830481
0.00849982
0.00869208
0.00885893
0.00890926
0.00878478
0.00839569
0.00770476
0.00682343
0.00582137
0.0047568
0.00368996
0.00270242
0.00186446
0.00121527
0.000745573
0.000411664
0.000188917
9.08231e-05
0.000100403
0.00668315
0.00667638
0.0066714
0.00667149
0.00667107
0.00667357
0.00667537
0.00667869
0.00668159
0.0066853
0.00668884
0.0066929
0.00669695
0.00670139
0.00670593
0.00669988
0.00671414
0.00673872
0.00678168
0.00683667
0.00691166
0.0070087
0.00713483
0.00728735
0.00747586
0.00768715
0.00792833
0.00817835
0.00842871
0.00866229
0.00891055
0.00915922
0.00932152
0.00935205
0.00919455
0.00875977
0.00801662
0.00708286
0.00602489
0.00491839
0.00381236
0.00278662
0.0019152
0.00124031
0.000754087
0.000412304
0.000187521
9.07088e-05
0.000100857
0.00670001
0.00668207
0.00667633
0.00667092
0.00667156
0.00667104
0.00667368
0.00667548
0.00667881
0.00668172
0.00668541
0.00668895
0.00669298
0.00669702
0.00670142
0.00670594
0.00671421
0.0067389
0.00678208
0.00683767
0.00691366
0.00701281
0.00714216
0.00730056
0.00749813
0.00772264
0.00798526
0.0082629
0.00855034
0.0088253
0.0091226
0.00943848
0.00968646
0.00983112
0.00982898
0.00962677
0.0091364
0.00833416
0.0073457
0.00623137
0.00507753
0.00393294
0.00286986
0.00196545
0.00126519
0.00076255
0.000413108
0.000186327
9.05973e-05
0.000101276
0.0067143
0.00669963
0.0066801
0.00667632
0.00667048
0.0066716
0.00667106
0.00667378
0.00667562
0.00667893
0.00668186
0.00668551
0.00668907
0.00669306
0.00669708
0.00670146
0.00670595
0.00673907
0.00678243
0.00683857
0.00691548
0.00701656
0.00714885
0.0073128
0.00751862
0.00775603
0.00803922
0.00834292
0.00866782
0.00899243
0.00934536
0.00972337
0.010045
0.01028
0.0103925
0.0103424
0.0100815
0.00952416
0.00865574
0.00760831
0.00643847
0.00523406
0.00405128
0.00295169
0.00201495
0.00128974
0.000771051
0.000414019
0.000185275
9.05375e-05
0.000101676
0.00673926
0.00671331
0.00669882
0.00667812
0.00667625
0.00667013
0.00667161
0.00667113
0.00667386
0.00667577
0.00667904
0.00668201
0.00668562
0.00668918
0.00669313
0.00669714
0.00670149
0.00670596
0.00678272
0.00683938
0.00691714
0.00701998
0.00715497
0.00732409
0.00753747
0.00778748
0.00809004
0.00841889
0.0087826
0.00916027
0.00957924
0.0100333
0.0104323
0.010753
0.010959
0.0110179
0.010898
0.0105601
0.00992237
0.00898002
0.00786965
0.0066444
0.00538716
0.00416652
0.00303161
0.00206347
0.00131388
0.000779442
0.000414975
0.000184374
9.04726e-05
0.000102042
0.00678297
0.00673754
0.00671114
0.00669799
0.00667649
0.00667605
0.0066699
0.00667156
0.00667124
0.00667392
0.00667595
0.00667915
0.00668217
0.00668573
0.00668929
0.00669321
0.0066972
0.00670152
0.00670597
0.00684011
0.00691865
0.00702309
0.00716058
0.00733446
0.00755482
0.00781701
0.00813755
0.00849136
0.00889557
0.00932709
0.00981254
0.0103713
0.0108874
0.0113114
0.0116097
0.0117518
0.011721
0.011501
0.0110639
0.0103305
0.00930592
0.00812881
0.00684798
0.00553738
0.00427796
0.00310927
0.00211081
0.00133749
0.000787777
0.000415995
0.000183591
9.04488e-05
0.000102393
0.00684079
0.00678
0.00673376
0.00670889
0.00669676
0.00667539
0.00667564
0.00666982
0.00667145
0.0066714
0.00667398
0.00667614
0.00667926
0.00668232
0.00668584
0.00668939
0.00669328
0.00669726
0.00670155
0.00670599
0.00692003
0.00702591
0.0071657
0.00734396
0.0075708
0.00784459
0.00818177
0.00856077
0.00900595
0.00948981
0.0100432
0.0107381
0.0114431
0.0120326
0.012438
0.0126525
0.0126729
0.0125059
0.0121517
0.0115918
0.0107474
0.00963239
0.00838498
0.00704776
0.00568538
0.00438566
0.00318445
0.00215681
0.00136051
0.000795882
0.000417015
0.00018286
9.04148e-05
0.000102674
0.00692132
0.00683689
0.00677356
0.00672998
0.00670665
0.00669499
0.00667477
0.00667502
0.00666987
0.00667129
0.0066716
0.00667403
0.00667633
0.00667937
0.00668247
0.00668594
0.0066895
0.00669336
0.00669731
0.00670159
0.006706
0.00702847
0.00717037
0.00735264
0.00758549
0.00787018
0.00822287
0.0086272
0.00911212
0.0096463
0.0102773
0.0111517
0.012109
0.0129564
0.0135285
0.0138143
0.0138642
0.013704
0.0133594
0.012842
0.0121395
0.011171
0.00995818
0.00863738
0.00724254
0.00583022
0.00448962
0.00325701
0.00220134
0.00138285
0.000803831
0.000418065
0.000182249
9.04117e-05
0.00010291
0.00703084
0.00691589
0.00682802
0.006767
0.00672638
0.00670441
0.00669285
0.00667459
0.00667422
0.00667004
0.0066711
0.00667182
0.00667408
0.00667653
0.00667949
0.00668262
0.00668605
0.00668959
0.00669343
0.00669736
0.00670162
0.00670601
0.00717462
0.00736053
0.00759896
0.0078938
0.00826102
0.00869037
0.0092126
0.00979704
0.0105236
0.0116225
0.0128727
0.0140137
0.0148398
0.0152592
0.0153373
0.0151695
0.0147964
0.0142528
0.0135568
0.0126996
0.0115978
0.0102818
0.00888518
0.00743198
0.00597125
0.00458979
0.00332684
0.0022443
0.00140446
0.000811588
0.000419136
0.000181758
9.0403e-05
0.000103164
0.00717852
0.00702348
0.00690305
0.00681927
0.00676064
0.006723
0.00670224
0.00669015
0.00667474
0.0066733
0.00667028
0.00667092
0.00667205
0.00667416
0.0066767
0.00667962
0.00668275
0.00668616
0.00668968
0.0066935
0.00669742
0.00670165
0.00670602
0.00736769
0.00761127
0.0079155
0.00829639
0.00874987
0.00930675
0.00994425
0.0107875
0.0121406
0.0136857
0.0150986
0.0161716
0.0168168
0.0170145
0.0168625
0.0164735
0.0158906
0.0151512
0.0142766
0.0132624
0.0120237
0.0106013
0.00912752
0.00761576
0.00610798
0.00468612
0.00339388
0.00228563
0.00142532
0.000819078
0.00042004
0.000181379
9.04083e-05
0.000103441
0.00737418
0.00716859
0.00700521
0.00689023
0.00681078
0.0067546
0.00671984
0.00670072
0.0066871
0.0066751
0.00667237
0.00667053
0.00667078
0.00667225
0.00667425
0.00667687
0.00667975
0.00668287
0.00668627
0.00668977
0.00669357
0.00669746
0.00670168
0.00670602
0.00762251
0.00793534
0.00832906
0.00880536
0.00939476
0.0100902
0.0110674
0.0126808
0.0144855
0.0161097
0.0173694
0.0182151
0.0186344
0.0186244
0.0182749
0.0176986
0.0169354
0.0160221
0.0149826
0.0138177
0.012444
0.010915
0.00936359
0.00779358
0.00624008
0.00477856
0.00345809
0.00232529
0.00144537
0.000825349
0.000420849
0.000180963
9.0408e-05
0.000103741
0.00763268
0.00736129
0.00714286
0.00698691
0.00687773
0.00680254
0.00674888
0.0067168
0.00669957
0.00668397
0.00667548
0.00667151
0.00667073
0.0066707
0.00667242
0.00667436
0.00667702
0.00667988
0.00668299
0.00668637
0.00668985
0.00669364
0.00669751
0.00670169
0.00670602
0.00795344
0.00835913
0.00885669
0.00947731
0.010236
0.0113561
0.0132141
0.0152217
0.0169827
0.0183539
0.0193323
0.0199375
0.0201669
0.0200039
0.0195126
0.0187985
0.0178964
0.0168411
0.015659
0.0143565
0.0128545
0.0112207
0.00959261
0.00796514
0.00636727
0.0048671
0.00351946
0.00236325
0.00146207
0.000830752
0.000421745
0.000180562
9.04272e-05
0.000104069
0.00796966
0.00761589
0.00732572
0.00711709
0.006969
0.00686558
0.00679451
0.00674331
0.00671396
0.00669857
0.00668098
0.00667576
0.00667083
0.00667085
0.00667069
0.00667256
0.0066745
0.00667715
0.00668002
0.0066831
0.00668648
0.00668994
0.0066937
0.00669754
0.00670169
0.00670602
0.00838673
0.00890393
0.00955517
0.0103812
0.0116437
0.013717
0.015866
0.0176943
0.0191079
0.0201492
0.0208703
0.0212903
0.0213904
0.0211337
0.0205566
0.0197542
0.0187558
0.0175934
0.0162945
0.0148716
0.013251
0.0115169
0.00981385
0.00813019
0.00648939
0.00495174
0.00357802
0.00239471
0.00147639
0.000836748
0.000422792
0.000180115
9.04379e-05
0.000104425
0.00841144
0.00794854
0.00756707
0.00729004
0.00709185
0.00695155
0.00685373
0.00678659
0.00673802
0.00671128
0.00669758
0.00667838
0.00667575
0.00667038
0.00667088
0.00667075
0.00667267
0.00667465
0.00667727
0.00668015
0.00668321
0.00668658
0.00669001
0.00669374
0.00669753
0.00670169
0.00670602
0.00894735
0.00962895
0.010524
0.0119207
0.0141748
0.0164092
0.0182495
0.0196519
0.0206982
0.0214691
0.0220054
0.0223051
0.0223313
0.0220306
0.0214141
0.0205657
0.0195091
0.018272
0.0168824
0.0153575
0.0136305
0.0118019
0.0100267
0.00828854
0.00660635
0.00503253
0.00362627
0.00242158
0.00149223
0.000843438
0.000423951
0.000179693
9.04746e-05
0.000104815
0.00898604
0.00838458
0.00788245
0.00751814
0.00725503
0.00706723
0.00693454
0.00684215
0.00677875
0.00673316
0.00670864
0.00669648
0.00667659
0.00667541
0.00667017
0.00667082
0.00667086
0.00667275
0.00667481
0.00667739
0.00668029
0.00668331
0.00668668
0.00669005
0.00669374
0.00669753
0.00670169
0.00670602
0.00969904
0.0106623
0.01218
0.0145811
0.0168551
0.018668
0.0200215
0.0210306
0.0217986
0.0223855
0.0228063
0.0230389
0.0230333
0.0227251
0.0221041
0.0212433
0.0201596
0.0188761
0.0174197
0.0158114
0.0139907
0.0120746
0.0102306
0.00844006
0.00671804
0.00509974
0.00366734
0.00245119
0.00150978
0.000850889
0.000425318
0.000179218
9.05005e-05
0.000105237
0.00976309
0.00895252
0.00829516
0.00781612
0.00747011
0.00722085
0.00704323
0.00691794
0.00683081
0.00677094
0.00672856
0.00670595
0.00669463
0.00667566
0.00667479
0.00667013
0.00667071
0.00667101
0.00667283
0.00667497
0.0066775
0.00668043
0.00668341
0.00668674
0.00669005
0.00669374
0.00669753
0.00670169
0.00670602
0.0107943
0.0124212
0.0149358
0.0172145
0.0189739
0.020255
0.0211984
0.0219255
0.0225118
0.0229876
0.0233456
0.0235493
0.0235414
0.0232509
0.0226505
0.0218019
0.0207155
0.0194088
0.0179063
0.0162316
0.0143302
0.0123341
0.0104253
0.00858463
0.00681028
0.00515725
0.00371249
0.00248389
0.00152928
0.000859244
0.000426828
0.000178784
9.05624e-05
0.0001057
0.0109131
0.00972075
0.00883054
0.0082057
0.00775093
0.00742317
0.00718748
0.00701981
0.00690176
0.00681975
0.00676328
0.00672413
0.00670329
0.00669216
0.00667536
0.006674
0.00667022
0.00667058
0.00667118
0.00667289
0.00667514
0.0066776
0.00668056
0.00668346
0.00668674
0.00669005
0.00669374
0.00669753
0.00670169
0.00670602
0.0126444
0.0152395
0.0175002
0.0191908
0.0203861
0.0212468
0.0219075
0.0224559
0.0229357
0.0233531
0.0236846
0.0238855
0.0238951
0.0236394
0.0230766
0.0222578
0.0211868
0.0198751
0.0183441
0.0166182
0.0146482
0.0125798
0.0106104
0.00870405
0.00688886
0.00522078
0.00376219
0.00252004
0.00155097
0.000868585
0.000428625
0.000178275
9.06109e-05
0.000106199
0.0108656
0.0128403
0.00954135
0.00871065
0.00811759
0.00768716
0.0073773
0.00715491
0.006997
0.00688602
0.00680906
0.00675576
0.00672005
0.00670085
0.0066891
0.00667544
0.00667315
0.00667036
0.00667045
0.00667136
0.00667295
0.0066753
0.0066777
0.00668064
0.00668345
0.00668674
0.00669005
0.00669374
0.00669754
0.00670168
0.00670601
0.0154958
0.0177252
0.0193393
0.0204427
0.0212117
0.0217901
0.0222749
0.0227211
0.0231473
0.0235422
0.0238717
0.024087
0.0241274
0.0239176
0.0234036
0.0226268
0.0215843
0.0202815
0.0187359
0.016972
0.0149447
0.0128116
0.0107628
0.00880581
0.00697529
0.00529103
0.00381703
0.00256008
0.00157516
0.000879121
0.000430613
0.000177818
9.07084e-05
0.000106748
0.0105927
0.0127886
0.0157074
0.00936946
0.00859345
0.00803119
0.00762481
0.00733249
0.00712318
0.00697482
0.0068708
0.00679892
0.00674859
0.00671642
0.00669936
0.00668595
0.00667566
0.00667235
0.00667052
0.00667034
0.00667153
0.00667302
0.00667546
0.00667774
0.00668065
0.00668344
0.00668674
0.00669005
0.00669374
0.00669751
0.00670165
0.006706
0.017901
0.0194362
0.0204465
0.0211202
0.0216077
0.0220125
0.0223982
0.0227951
0.0232035
0.0235995
0.0239431
0.0241847
0.024265
0.0241083
0.0236502
0.0229232
0.0219181
0.0206345
0.0190854
0.0172946
0.0152199
0.0130005
0.0108923
0.00891767
0.00707047
0.00536884
0.00387765
0.00260452
0.0016022
0.000890953
0.000432999
0.000177275
9.079e-05
0.000107337
0.010322
0.0124128
0.0156298
0.0180357
0.00920693
0.00847839
0.00794663
0.00756388
0.00728881
0.00709233
0.00695335
0.00685616
0.00678935
0.00674207
0.00671318
0.00669821
0.006683
0.00667586
0.00667166
0.00667065
0.00667026
0.0066717
0.0066731
0.00667556
0.00667772
0.00668065
0.00668344
0.00668674
0.00669005
0.0066937
0.00669746
0.00670162
0.00670599
0.0194948
0.0204139
0.0209926
0.0213856
0.0217005
0.0220075
0.0223467
0.0227302
0.0231446
0.0235575
0.0239262
0.0242024
0.024329
0.02423
0.023832
0.0231594
0.0221976
0.0209405
0.0193966
0.0175879
0.0154409
0.0131601
0.0110341
0.00904073
0.00717544
0.00545512
0.00394481
0.00265394
0.00163248
0.000904387
0.000435651
0.00017681
9.09386e-05
0.000107985
0.0100677
0.0119991
0.01528
0.0179227
0.0195185
0.0090513
0.00836522
0.00786397
0.00750441
0.00724631
0.00706242
0.00693263
0.00684223
0.00678044
0.00673609
0.00671034
0.00669717
0.00668043
0.00667593
0.00667111
0.00667074
0.00667021
0.00667186
0.00667311
0.00667558
0.00667771
0.00668065
0.00668345
0.00668674
0.00669001
0.00669364
0.00669741
0.00670158
0.00670597
0.0203569
0.0208435
0.0211417
0.021362
0.0215786
0.0218399
0.0221687
0.022563
0.0229991
0.0234395
0.0238414
0.0241586
0.0243362
0.0242978
0.0239619
0.0233461
0.0224311
0.0212054
0.0196732
0.0178185
0.0156257
0.0133337
0.0111894
0.00917621
0.00729134
0.00555095
0.0040194
0.00270902
0.00166653
0.000919555
0.000438861
0.000176246
9.10701e-05
0.000108673
0.00983069
0.0115857
0.0148397
0.0176833
0.0193531
0.0202753
0.00890039
0.0082541
0.00778336
0.0074465
0.0072051
0.00703352
0.00691285
0.00682929
0.00677219
0.00673077
0.00670777
0.00669616
0.0066784
0.00667582
0.00667071
0.00667081
0.00667019
0.00667195
0.00667308
0.00667559
0.00667771
0.00668065
0.00668346
0.00668668
0.00668993
0.00669357
0.00669736
0.00670155
0.00670596
0.0206831
0.0208891
0.0210136
0.0211332
0.0213026
0.0215541
0.0218973
0.0223188
0.0227871
0.0232625
0.0237039
0.0240678
0.0243002
0.0243239
0.0240507
0.0234924
0.0226258
0.0214348
0.0198858
0.0180091
0.0158243
0.0135221
0.0113595
0.00932542
0.00741948
0.00565752
0.00410243
0.0027706
0.00170485
0.000936911
0.000442457
0.000175801
9.12942e-05
0.000109432
0.00960835
0.0111894
0.0143431
0.017366
0.019189
0.020057
0.0205067
0.00875317
0.00814533
0.00770495
0.0073903
0.00716528
0.0070059
0.00689449
0.00681744
0.00676455
0.00672612
0.00670534
0.00669495
0.00667711
0.00667551
0.00667044
0.00667085
0.00667016
0.00667198
0.00667306
0.00667559
0.00667772
0.00668064
0.00668341
0.00668658
0.00668985
0.0066935
0.00669731
0.00670152
0.00670595
0.0206364
0.0206669
0.0206867
0.0207557
0.0209135
0.0211807
0.0215556
0.022015
0.0225227
0.0230392
0.023526
0.0239413
0.0242314
0.024318
0.024107
0.0236057
0.0227879
0.0216061
0.0200593
0.018211
0.0160372
0.0137266
0.0115457
0.00948982
0.00756133
0.00577623
0.0041951
0.0028396
0.00174822
0.000956638
0.000446845
0.000175248
9.15033e-05
0.000110228
0.00939796
0.0108163
0.013815
0.0169931
0.0189599
0.019927
0.0202363
0.0203735
0.00860942
0.00803924
0.00762892
0.00733594
0.00712721
0.00698026
0.00687774
0.00680659
0.00675745
0.00672204
0.00670302
0.0066931
0.00667638
0.00667509
0.00667027
0.00667087
0.00667013
0.00667199
0.00667306
0.00667558
0.00667774
0.00668056
0.00668331
0.00668647
0.00668977
0.00669342
0.00669726
0.00670149
0.00670594
0.0203293
0.0202502
0.0202145
0.0202675
0.0204398
0.0207413
0.0211593
0.0216638
0.0222163
0.0227792
0.023317
0.0237883
0.0241384
0.0242879
0.0241378
0.0236922
0.0229035
0.021744
0.0202403
0.018424
0.016265
0.0139478
0.0117492
0.00967095
0.00771848
0.00590864
0.0042988
0.0029172
0.00179733
0.000979408
0.000451815
0.000174873
9.184e-05
0.000111259
0.00919758
0.0104691
0.0132677
0.0165731
0.0186905
0.0197448
0.0201117
0.0200509
0.0199863
0.00846934
0.00793619
0.00755547
0.00728395
0.00709188
0.00695693
0.00686247
0.00679666
0.00675084
0.0067184
0.00670095
0.0066908
0.00667601
0.00667463
0.00667023
0.00667085
0.00667011
0.00667199
0.00667308
0.00667556
0.0066777
0.00668043
0.00668321
0.00668637
0.00668968
0.00669335
0.0066972
0.00670146
0.00670593
0.0198305
0.01969
0.019632
0.0196955
0.0199022
0.0202501
0.0207189
0.0212734
0.021875
0.02249
0.0230846
0.0236162
0.0240281
0.0242398
0.0241488
0.0237466
0.0229947
0.0218849
0.020428
0.0186479
0.0165076
0.0141868
0.0119715
0.00987042
0.00789273
0.0060565
0.00441509
0.00300464
0.00185336
0.00100551
0.000457929
0.000174391
9.22397e-05
0.000112493
0.00900586
0.0101489
0.0127091
0.0161072
0.0183921
0.0195369
0.0199435
0.0199143
0.0196119
0.0194173
0.00833311
0.00783661
0.00748528
0.00723573
0.00705977
0.00693568
0.00684856
0.00678765
0.00674468
0.00671527
0.00669945
0.00668841
0.00667583
0.00667426
0.00667027
0.00667083
0.00667011
0.00667198
0.00667311
0.00667546
0.0066776
0.00668029
0.0066831
0.00668626
0.00668959
0.00669328
0.00669714
0.00670142
0.00670591
0.0191889
0.0190182
0.0189646
0.0190606
0.0193137
0.0197165
0.0202414
0.0208489
0.0215044
0.0221781
0.0228356
0.023431
0.0239057
0.0241786
0.024143
0.0237874
0.0230848
0.0220278
0.0206215
0.0188821
0.0167653
0.0144441
0.0122136
0.0100899
0.00808597
0.00622181
0.00454599
0.00310378
0.00191728
0.00103595
0.000464959
0.000174165
9.2893e-05
0.000113722