/*--------------------------------*- C++ -*----------------------------------*\
  =========                 |
  \\      /  F ield         | OpenFOAM: The Open Source CFD Toolbox
   \\    /   O peration     | Website:  https://openfoam.org
    \\  /    A nd           | Version:  8
     \\/     M anipulation  |
\*---------------------------------------------------------------------------*/
FoamFile
{
    version     2.0;
    format      ascii;
    class       surfaceScalarField;
    location    "0.09";
    object      phi;
}
// * * * * * * * * * * * * * * * * * * * * * * * * * * * * * * * * * * * * * //

dimensions      [0 3 -1 0 0 0 0];

internalField   nonuniform List<scalar> 
31053
(
6.27706e-07
1.27523e-05
8.49587e-07
1.51581e-05
3.7624e-07
1.23761e-05
9.32277e-07
1.75573e-05
5.88729e-07
1.49456e-05
2.6951e-07
1.21065e-05
9.55915e-07
2.02164e-05
7.06853e-07
1.74392e-05
4.64582e-07
1.47506e-05
2.16005e-07
1.18905e-05
9.46909e-07
2.3249e-05
7.66318e-07
2.01569e-05
5.89949e-07
1.73138e-05
3.96163e-07
1.45704e-05
1.72596e-07
1.17179e-05
9.1695e-07
2.669e-05
7.91326e-07
2.3224e-05
6.64947e-07
2.00819e-05
5.23692e-07
1.71863e-05
3.33474e-07
1.44095e-05
1.38035e-07
1.15799e-05
8.71534e-07
3.06654e-05
7.94073e-07
2.66872e-05
7.06909e-07
2.3182e-05
6.04971e-07
2.00006e-05
4.55971e-07
1.70638e-05
2.78761e-07
1.42688e-05
1.1089e-07
1.1469e-05
8.14059e-07
3.51975e-05
7.81459e-07
3.0678e-05
7.267e-07
2.66674e-05
6.53433e-07
2.31336e-05
5.37346e-07
1.99192e-05
3.91904e-07
1.69506e-05
2.31697e-07
1.4148e-05
8.84323e-08
1.13806e-05
7.47373e-07
4.03867e-05
7.57297e-07
3.52216e-05
7.30634e-07
3.06741e-05
6.79104e-07
2.66418e-05
5.86618e-07
2.30843e-05
4.69337e-07
1.98418e-05
3.33082e-07
1.68493e-05
1.8962e-07
1.40468e-05
6.8738e-08
1.13118e-05
6.73187e-07
4.63542e-05
7.23518e-07
4.04205e-05
7.2196e-07
3.52303e-05
6.87947e-07
3.06653e-05
6.12807e-07
2.66156e-05
5.15922e-07
2.30377e-05
4.03778e-07
1.97711e-05
2.77305e-07
1.67616e-05
1.50604e-07
1.39649e-05
5.06522e-08
1.12612e-05
5.93179e-07
5.322e-05
6.82179e-07
4.63955e-05
7.01889e-07
4.04405e-05
6.83482e-07
3.52348e-05
6.21887e-07
3.06562e-05
5.39293e-07
2.65922e-05
4.45112e-07
2.29964e-05
3.38771e-07
1.97096e-05
2.23007e-07
1.66892e-05
1.13372e-07
1.39022e-05
3.34055e-08
1.12278e-05
5.09282e-07
6.10639e-05
6.34943e-07
5.32672e-05
6.71705e-07
4.64257e-05
6.68063e-07
4.0456e-05
6.17367e-07
3.52393e-05
5.45233e-07
3.06502e-05
4.63161e-07
2.65741e-05
3.72458e-07
2.29627e-05
2.72963e-07
1.96597e-05
1.69133e-07
1.66334e-05
7.69906e-08
1.38586e-05
1.64884e-08
1.12113e-05
4.2402e-07
7.00673e-05
5.83325e-07
6.11155e-05
6.32506e-07
5.33064e-05
6.42347e-07
4.64514e-05
6.01378e-07
4.04719e-05
5.37231e-07
3.52473e-05
4.63292e-07
3.06501e-05
3.82789e-07
2.65638e-05
2.96658e-07
2.2939e-05
2.05416e-07
1.96234e-05
1.14891e-07
1.65955e-05
4.07681e-08
1.38344e-05
-2.54952e-10
1.12116e-05
3.41107e-07
8.04149e-05
5.28364e-07
7.01222e-05
5.85499e-07
6.11625e-05
6.06691e-07
5.33421e-05
5.74944e-07
4.64779e-05
5.17237e-07
4.04919e-05
4.48877e-07
3.52617e-05
3.74548e-07
3.06583e-05
2.96896e-07
2.65636e-05
2.16797e-07
2.29276e-05
1.35456e-07
1.96028e-05
5.96498e-08
1.65766e-05
4.33023e-09
1.38298e-05
-1.71048e-08
1.12287e-05
2.77586e-07
7.62535e-05
4.70118e-07
8.04732e-05
5.32048e-07
7.01757e-05
5.61486e-07
6.12077e-05
5.3843e-07
5.33786e-05
4.8622e-07
4.65089e-05
4.21761e-07
4.05191e-05
3.50925e-07
3.52853e-05
2.77757e-07
3.06775e-05
2.04553e-07
2.65758e-05
1.3221e-07
2.29309e-05
6.25488e-08
1.95999e-05
3.12569e-09
1.65778e-05
-3.25511e-08
1.38452e-05
-3.41929e-08
1.12629e-05
2.26746e-07
7.62408e-05
4.17795e-07
7.63058e-05
4.73539e-07
8.05317e-05
5.07357e-07
7.02298e-05
4.92018e-07
6.12541e-05
4.44536e-07
5.34203e-05
3.82807e-07
4.65478e-05
3.13653e-07
4.05563e-05
2.42161e-07
3.53209e-05
1.71971e-07
3.07101e-05
1.05049e-07
2.6603e-05
4.23664e-08
2.2951e-05
-1.35017e-08
1.96166e-05
-5.49549e-08
1.66002e-05
-7.00228e-08
1.3881e-05
-5.15326e-08
1.13144e-05
1.86261e-07
7.62305e-05
3.68742e-07
7.62899e-05
4.21383e-07
7.6358e-05
4.45411e-07
8.05936e-05
4.35978e-07
7.02858e-05
3.92325e-07
6.13063e-05
3.32298e-07
5.34708e-05
2.63473e-07
4.6598e-05
1.91671e-07
4.06068e-05
1.21612e-07
3.53713e-05
5.64082e-08
3.07587e-05
-2.16489e-09
2.66475e-05
-5.28298e-08
2.29904e-05
-9.27435e-08
1.96544e-05
-1.14405e-07
1.66446e-05
-1.07988e-07
1.39375e-05
-6.89419e-08
1.13833e-05
1.53702e-07
7.62246e-05
3.23242e-07
7.6276e-05
3.72577e-07
7.63387e-05
3.89057e-07
7.64144e-05
3.7098e-07
8.06586e-05
3.29781e-07
7.03484e-05
2.70316e-07
6.13683e-05
2.00565e-07
5.35337e-05
1.26877e-07
4.66628e-05
5.48056e-08
4.06736e-05
-1.15837e-08
3.54393e-05
-6.94845e-08
3.0826e-05
-1.17125e-07
2.67118e-05
-1.53283e-07
2.30509e-05
-1.74809e-07
1.97148e-05
-1.75003e-07
1.67116e-05
-1.46165e-07
1.40147e-05
-8.62887e-08
1.14696e-05
1.27256e-07
7.62164e-05
2.8163e-07
7.62662e-05
3.2718e-07
7.63214e-05
3.35759e-07
7.6392e-05
3.10815e-07
7.64745e-05
2.57516e-07
8.07309e-05
1.96997e-07
7.04217e-05
1.24959e-07
6.14439e-05
4.78291e-08
5.36128e-05
-2.80584e-08
4.67457e-05
-9.78916e-08
4.07599e-05
-1.57991e-07
3.55278e-05
-2.05752e-07
3.09146e-05
-2.39623e-07
2.67981e-05
-2.584e-07
2.31345e-05
-2.59154e-07
1.97989e-05
-2.36202e-07
1.68017e-05
-1.84189e-07
1.41126e-05
-1.03317e-07
1.15729e-05
1.056e-07
7.62117e-05
2.43919e-07
7.62542e-05
2.85224e-07
7.63081e-05
2.85948e-07
7.63712e-05
2.53348e-07
7.64495e-05
1.90708e-07
7.65413e-05
1.12978e-07
8.08149e-05
3.67849e-08
7.05099e-05
-4.55069e-08
6.15373e-05
-1.271e-07
5.37118e-05
-2.02393e-07
4.68502e-05
-2.67027e-07
4.0869e-05
-3.17658e-07
3.56397e-05
-3.51992e-07
3.1027e-05
-3.68842e-07
2.69086e-05
-3.67316e-07
2.32427e-05
-3.44873e-07
1.99076e-05
-2.97344e-07
1.69148e-05
-2.21577e-07
1.42309e-05
-1.19831e-07
1.16928e-05
8.77536e-08
7.62078e-05
2.09952e-07
7.62456e-05
2.46655e-07
7.62927e-05
2.39894e-07
7.63542e-05
1.99368e-07
7.64252e-05
1.27037e-07
7.65131e-05
3.57991e-08
7.66185e-05
-6.32655e-08
8.09149e-05
-1.5299e-07
7.06174e-05
-2.42436e-07
6.16526e-05
-3.2542e-07
5.38348e-05
-3.96775e-07
4.69799e-05
-4.52615e-07
4.10039e-05
-4.89975e-07
3.57777e-05
-5.07212e-07
3.11654e-05
-5.03607e-07
2.70449e-05
-4.78721e-07
2.33765e-05
-4.30937e-07
2.00412e-05
-3.5763e-07
1.70509e-05
-2.57815e-07
1.43689e-05
-1.35507e-07
1.18283e-05
7.41242e-08
6.95956e-05
1.79521e-07
7.62383e-05
2.11387e-07
7.62809e-05
1.97717e-07
7.63349e-05
1.49377e-07
7.64042e-05
6.74814e-08
7.64847e-05
-3.7344e-08
7.65863e-05
-1.54523e-07
7.67098e-05
-2.7375e-07
8.10357e-05
-3.73898e-07
7.07488e-05
-4.67201e-07
6.17944e-05
-5.47828e-07
5.39859e-05
-6.11193e-07
4.71385e-05
-6.53855e-07
4.11678e-05
-6.7377e-07
3.59442e-05
-6.69909e-07
3.13317e-05
-6.42196e-07
2.72084e-05
-5.91165e-07
2.35367e-05
-5.16117e-07
2.01997e-05
-4.16167e-07
1.72092e-05
-2.92293e-07
1.45257e-05
-1.50138e-07
1.19784e-05
6.36442e-08
6.25545e-05
1.54734e-07
6.96204e-05
1.79318e-07
7.62703e-05
1.59428e-07
7.63192e-05
1.03697e-07
7.63806e-05
1.26882e-08
7.6459e-05
-1.05291e-07
7.65527e-05
-2.40477e-07
7.66722e-05
-3.83104e-07
7.68191e-05
-5.20416e-07
8.11822e-05
-6.27558e-07
7.09092e-05
-7.20565e-07
6.19671e-05
-7.94309e-07
5.4169e-05
-8.44652e-07
4.73293e-05
-8.69375e-07
4.13634e-05
-8.67196e-07
3.61415e-05
-8.37931e-07
3.15274e-05
-7.82705e-07
2.73999e-05
-7.02914e-07
2.37235e-05
-5.99087e-07
2.03826e-05
-4.7199e-07
1.73889e-05
-3.24487e-07
1.47e-05
-1.63323e-07
1.21417e-05
5.54275e-08
5.62262e-05
1.34794e-07
6.25744e-05
1.52629e-07
6.96471e-05
1.2498e-07
7.63048e-05
6.25077e-08
7.63604e-05
-3.69061e-08
7.64302e-05
-1.67218e-07
7.65209e-05
-3.19776e-07
7.6632e-05
-4.85493e-07
7.67746e-05
-6.52281e-07
7.6951e-05
-8.05179e-07
8.13598e-05
-9.14816e-07
7.11034e-05
-1.00253e-06
6.21754e-05
-1.06367e-06
5.4388e-05
-1.09557e-06
4.75555e-05
-1.09696e-06
4.15932e-05
-1.06763e-06
3.63712e-05
-1.0089e-06
3.17536e-05
-9.22869e-07
2.76198e-05
-8.12157e-07
2.39366e-05
-6.78423e-07
2.0589e-05
-5.24182e-07
1.75886e-05
-3.53508e-07
1.48902e-05
-1.74459e-07
1.23162e-05
4.88824e-08
5.05385e-05
1.1865e-07
5.62424e-05
1.30688e-07
6.25964e-05
9.67966e-08
6.96753e-05
2.59009e-08
7.63414e-05
-8.10077e-08
7.64045e-05
-2.22544e-07
7.64855e-05
-3.91412e-07
7.65925e-05
-5.79366e-07
7.67258e-05
-7.75109e-07
7.68974e-05
-9.64275e-07
7.71101e-05
-1.12901e-06
8.1574e-05
-1.23574e-06
7.13366e-05
-1.31172e-06
6.24234e-05
-1.3541e-06
5.46465e-05
-1.36132e-06
4.78198e-05
-1.33348e-06
4.1859e-05
-1.2722e-06
3.66345e-05
-1.17999e-06
3.20107e-05
-1.06035e-06
2.7868e-05
-9.16927e-07
2.41751e-05
-7.52768e-07
2.08176e-05
-5.71408e-07
1.78065e-05
-3.78627e-07
1.50944e-05
-1.81308e-07
1.24975e-05
4.35972e-08
4.54253e-05
1.05479e-07
5.05517e-05
1.12578e-07
5.62605e-05
7.40688e-08
6.26191e-05
-3.47748e-09
6.97047e-05
-1.19432e-07
7.63798e-05
-2.70874e-07
7.64528e-05
-4.54637e-07
7.65487e-05
-6.63504e-07
7.66767e-05
-8.87126e-07
7.68379e-05
-1.11188e-06
7.70451e-05
-1.32022e-06
7.73013e-05
-1.49209e-06
8.18304e-05
-1.58877e-06
7.16137e-05
-1.6461e-06
6.27154e-05
-1.66257e-06
5.49478e-05
-1.63826e-06
4.81246e-05
-1.57554e-06
4.21624e-05
-1.47749e-06
3.6932e-05
-1.3483e-06
3.22987e-05
-1.19258e-06
2.81437e-05
-1.01537e-06
2.44377e-05
-8.2034e-07
2.10665e-05
-6.12745e-07
1.80406e-05
-3.95589e-07
1.53086e-05
-1.51106e-07
1.26486e-05
3.92764e-08
4.08303e-05
9.46512e-08
4.54361e-05
9.75694e-08
5.05667e-05
5.57025e-08
5.62788e-05
-2.65898e-08
6.26422e-05
-1.49474e-07
6.97347e-05
-3.11945e-07
7.64209e-05
-5.08916e-07
7.65071e-05
-7.36964e-07
7.66222e-05
-9.86881e-07
7.67764e-05
-1.24597e-06
7.69719e-05
-1.49714e-06
7.7222e-05
-1.72045e-06
7.75296e-05
-1.89275e-06
8.21344e-05
-1.97167e-06
7.19393e-05
-2.00222e-06
6.30551e-05
-1.98487e-06
5.52944e-05
-1.92241e-06
4.84715e-05
-1.81906e-06
4.25039e-05
-1.67995e-06
3.72637e-05
-1.51059e-06
3.26167e-05
-1.31716e-06
2.84455e-05
-1.10523e-06
2.47226e-05
-8.79682e-07
2.13335e-05
-6.42728e-07
1.82878e-05
-3.91206e-07
1.55487e-05
-1.03286e-07
1.27519e-05
3.57034e-08
3.66996e-05
8.56948e-08
4.08393e-05
8.50924e-08
4.54486e-05
4.08409e-08
5.05816e-05
-4.47194e-08
5.6297e-05
-1.7233e-07
6.26651e-05
-3.42978e-07
6.97657e-05
-5.53878e-07
7.64659e-05
-7.99052e-07
7.65692e-05
-1.07321e-06
7.67085e-05
-1.36481e-06
7.68953e-05
-1.65743e-06
7.71322e-05
-1.93142e-06
7.74329e-05
-2.16322e-06
7.78001e-05
-2.32858e-06
8.24913e-05
-2.38063e-06
7.23177e-05
-2.3753e-06
6.34455e-05
-2.31638e-06
5.56884e-05
-2.20895e-06
4.88614e-05
-2.05976e-06
4.28837e-05
-1.87563e-06
3.76287e-05
-1.6639e-06
3.29634e-05
-1.43133e-06
2.87716e-05
-1.18446e-06
2.50274e-05
-9.25679e-07
2.16164e-05
-6.55846e-07
1.85524e-05
-3.67528e-07
1.5813e-05
-8.03954e-08
1.28323e-05
3.27181e-08
3.2989e-05
7.82507e-08
3.6707e-05
7.47041e-08
4.08497e-05
2.87927e-08
4.54606e-05
-5.88988e-08
5.05958e-05
-1.89523e-07
5.63142e-05
-3.65542e-07
6.26876e-05
-5.8659e-07
6.97985e-05
-8.49263e-07
7.65161e-05
-1.14524e-06
7.66412e-05
-1.46699e-06
7.68107e-05
-1.79908e-06
7.70369e-05
-2.12231e-06
7.73231e-05
-2.41298e-06
7.76827e-05
-2.64613e-06
7.81177e-05
-2.79545e-06
8.29061e-05
-2.8102e-06
7.27526e-05
-2.75998e-06
6.38891e-05
-2.65147e-06
5.61309e-05
-2.49285e-06
4.92945e-05
-2.29302e-06
4.33011e-05
-2.06101e-06
3.80258e-05
-1.80496e-06
3.33371e-05
-1.53258e-06
2.91197e-05
-1.24874e-06
2.53504e-05
-9.54918e-07
2.19155e-05
-6.56173e-07
1.88411e-05
-3.45155e-07
1.60777e-05
-7.64788e-08
1.29088e-05
3.0202e-08
2.96505e-05
7.20333e-08
3.29952e-05
6.60478e-08
3.67157e-05
1.89845e-08
4.08595e-05
-6.99556e-08
4.54717e-05
-2.02284e-07
5.06085e-05
-3.81504e-07
5.63301e-05
-6.09101e-07
6.27101e-05
-8.84449e-07
6.98336e-05
-1.20229e-06
7.65731e-05
-1.5514e-06
7.67256e-05
-1.92035e-06
7.6932e-05
-2.29072e-06
7.72053e-05
-2.63892e-06
7.75491e-05
-2.93949e-06
7.79761e-05
-3.16479e-06
7.8487e-05
-3.28721e-06
8.33831e-05
-3.25432e-06
7.32469e-05
-3.14983e-06
6.43875e-05
-2.98436e-06
5.66224e-05
-2.76873e-06
4.97702e-05
-2.51466e-06
4.37548e-05
-2.23229e-06
3.84531e-05
-1.93085e-06
3.37353e-05
-1.61718e-06
2.94882e-05
-1.2954e-06
2.56909e-05
-9.71948e-07
2.22313e-05
-6.51266e-07
1.91472e-05
-3.34302e-07
1.63356e-05
-8.21938e-08
1.2991e-05
2.80664e-08
2.66501e-05
6.68104e-08
2.96557e-05
5.88196e-08
3.30024e-05
1.0959e-08
3.67237e-05
-7.85565e-08
4.08681e-05
-2.116e-07
4.5481e-05
-3.92374e-07
5.06194e-05
-6.23744e-07
5.63448e-05
-9.07249e-07
6.27329e-05
-1.24092e-06
6.98723e-05
-1.6172e-06
7.66389e-05
-2.01988e-06
7.68251e-05
-2.43462e-06
7.70759e-05
-2.83825e-06
7.74047e-05
-3.20509e-06
7.78147e-05
-3.50639e-06
7.83177e-05
-3.7125e-06
7.89123e-05
-3.7972e-06
8.3926e-05
-3.70576e-06
7.38028e-05
-3.53831e-06
6.49414e-05
-3.30883e-06
5.71625e-05
-3.03172e-06
5.02872e-05
-2.7203e-06
4.42428e-05
-2.38609e-06
3.89084e-05
-2.03819e-06
3.41564e-05
-1.68291e-06
2.98757e-05
-1.32809e-06
2.60471e-05
-9.82334e-07
2.25623e-05
-6.48669e-07
1.94615e-05
-3.3356e-07
1.65869e-05
-1.11178e-07
1.31021e-05
2.62425e-08
2.39558e-05
6.23955e-08
2.66546e-05
5.27612e-08
2.96618e-05
4.3652e-09
3.3009e-05
-8.52337e-08
3.67304e-05
-2.18259e-07
4.08747e-05
-3.99356e-07
4.5488e-05
-6.32396e-07
5.0628e-05
-9.2057e-07
5.63581e-05
-1.26448e-06
6.27565e-05
-1.66048e-06
6.99156e-05
-2.09657e-06
7.67156e-05
-2.55228e-06
7.69428e-05
-3.00852e-06
7.72461e-05
-3.43969e-06
7.76393e-05
-3.81619e-06
7.81245e-05
-4.10663e-06
7.87118e-05
-4.28221e-06
7.93973e-05
-4.31742e-06
8.45377e-05
-4.15712e-06
7.44216e-05
-3.91819e-06
6.55508e-05
-3.61919e-06
5.775e-05
-3.27673e-06
5.08437e-05
-2.90606e-06
4.47628e-05
-2.51921e-06
3.93894e-05
-2.12504e-06
3.45985e-05
-1.73243e-06
3.028e-05
-1.35188e-06
2.64166e-05
-9.91186e-07
2.29049e-05
-6.49803e-07
1.97778e-05
-4.15151e-07
1.68909e-05
-1.20227e-07
1.32224e-05
2.46769e-08
2.15336e-05
5.86427e-08
2.39596e-05
4.76575e-08
2.66597e-05
-1.06175e-09
2.96672e-05
-9.04061e-08
3.30142e-05
-2.22883e-07
3.6735e-05
-4.03403e-07
4.08788e-05
-6.36555e-07
4.54922e-05
-9.26752e-07
5.06342e-05
-1.27657e-06
5.63702e-05
-1.68545e-06
6.27815e-05
-2.14596e-06
6.9965e-05
-2.64234e-06
7.68057e-05
-3.14763e-06
7.70819e-05
-3.64036e-06
7.74468e-05
-4.09045e-06
7.79135e-05
-4.46502e-06
7.84829e-05
-4.73288e-06
7.91625e-05
-4.8653e-06
7.99452e-05
-4.83951e-06
8.52201e-05
-4.6001e-06
7.51036e-05
-4.2829e-06
6.62145e-05
-3.90957e-06
5.83828e-05
-3.49937e-06
5.1437e-05
-3.06871e-06
4.53123e-05
-2.62975e-06
3.98941e-05
-2.19316e-06
3.50592e-05
-1.77008e-06
3.06982e-05
-1.37079e-06
2.67962e-05
-9.98959e-07
2.3254e-05
-8.04921e-07
2.01676e-05
-4.16932e-07
1.71876e-05
-1.30142e-07
1.33525e-05
2.3327e-08
1.93533e-05
5.54366e-08
2.15368e-05
4.33358e-08
2.39639e-05
-5.53319e-09
2.66641e-05
-9.43998e-08
2.96712e-05
-2.25957e-07
3.30173e-05
-4.05262e-07
3.67369e-05
-6.37396e-07
4.08796e-05
-9.27654e-07
4.54931e-05
-1.28008e-06
5.06377e-05
-1.69652e-06
5.63812e-05
-2.17317e-06
6.28087e-05
-2.69958e-06
7.00222e-05
-3.25387e-06
7.69119e-05
-3.80457e-06
7.72461e-05
-4.32571e-06
7.76821e-05
-4.78332e-06
7.82318e-05
-5.14405e-06
7.8894e-05
-5.37599e-06
7.96732e-05
-5.45259e-06
8.05583e-05
-5.35405e-06
8.5974e-05
-5.02717e-06
7.58478e-05
-4.62571e-06
6.69306e-05
-4.17499e-06
5.90584e-05
-3.69615e-06
5.20644e-05
-3.20623e-06
4.58887e-05
-2.7187e-06
4.04197e-05
-2.24597e-06
3.55351e-05
-1.79899e-06
3.11264e-05
-1.38513e-06
2.71824e-05
-1.2406e-06
2.36897e-05
-8.00384e-07
2.0551e-05
-4.18599e-07
1.74761e-05
-1.3795e-07
1.34905e-05
1.73972e-05
2.21601e-08
5.26854e-08
1.93561e-05
3.96592e-08
2.15404e-05
-9.22506e-09
2.39676e-05
-9.74695e-08
2.66672e-05
-2.2786e-07
2.96731e-05
-4.05518e-07
3.30175e-05
-6.3584e-07
3.67353e-05
-9.24736e-07
4.08767e-05
-1.27733e-06
4.54903e-05
-1.69726e-06
5.06385e-05
-2.18361e-06
5.63917e-05
-2.73015e-06
6.28392e-05
-3.32101e-06
7.00893e-05
-3.93018e-06
7.70375e-05
-4.51894e-06
7.74393e-05
-5.0575e-06
7.79562e-05
-5.51075e-06
7.85985e-05
-5.84375e-06
7.93618e-05
-6.02616e-06
8.02467e-05
-6.03376e-06
8.1238e-05
-5.85252e-06
8.67994e-05
-5.43063e-06
7.66528e-05
-4.94088e-06
6.76965e-05
-4.41149e-06
5.97738e-05
-3.86472e-06
5.27229e-05
-3.31881e-06
4.64888e-05
-2.78851e-06
4.09622e-05
-2.28585e-06
3.6022e-05
-1.81955e-06
3.15608e-05
-1.72281e-06
2.76646e-05
-1.23299e-06
2.41223e-05
-7.92604e-07
2.0925e-05
-4.17889e-07
1.7756e-05
-1.42958e-07
1.36334e-05
1.73995e-05
5.03079e-08
2.78119e-05
2.02635e-08
3.6518e-08
1.93592e-05
-1.22814e-08
2.15435e-05
-9.98151e-08
2.39699e-05
-2.28887e-07
2.66682e-05
-4.04619e-07
2.96722e-05
-6.32596e-07
3.30143e-05
-9.19133e-07
3.67297e-05
-1.2701e-06
4.08695e-05
-1.6905e-06
4.54835e-05
-2.1816e-06
5.06365e-05
-2.74055e-06
5.64021e-05
-3.35636e-06
6.28746e-05
-4.00969e-06
7.01688e-05
-4.66749e-06
7.71861e-05
-5.28392e-06
7.76658e-05
-5.8283e-06
7.82738e-05
-6.26299e-06
7.90178e-05
-6.55389e-06
7.98895e-05
-6.67229e-06
8.08852e-05
-6.59944e-06
8.19849e-05
-6.32609e-06
8.76948e-05
-5.80382e-06
7.75157e-05
-5.22378e-06
6.85088e-05
-4.61616e-06
6.05252e-05
-4.00452e-06
5.34086e-05
-3.40804e-06
4.71084e-05
-2.84092e-06
4.15173e-05
-2.31327e-06
3.65157e-05
-2.26411e-06
3.21021e-05
-1.71326e-06
2.81449e-05
-1.21742e-06
2.45471e-05
-7.80473e-07
2.12876e-05
-4.13738e-07
1.80268e-05
-1.45348e-07
1.37788e-05
1.74022e-05
3.38275e-08
2.78158e-05
4.64334e-08
2.85518e-05
1.84595e-08
-1.48192e-08
1.93618e-05
-1.01594e-07
2.15453e-05
-2.29266e-07
2.39703e-05
-4.02914e-07
2.66665e-05
-6.28211e-07
2.96678e-05
-9.11717e-07
3.30069e-05
-1.25982e-06
3.67194e-05
-1.67847e-06
4.08575e-05
-2.17061e-06
4.54726e-05
-2.73602e-06
5.06319e-05
-3.36761e-06
5.64133e-05
-4.05159e-06
6.29165e-05
-4.76224e-06
7.02636e-05
-5.45937e-06
7.73615e-05
-6.09239e-06
7.79299e-05
-6.6283e-06
7.86391e-05
-7.02949e-06
7.94934e-05
-7.2627e-06
8.04799e-05
-7.30422e-06
8.159e-05
-7.13974e-06
8.27985e-05
-6.76701e-06
8.8658e-05
-6.14124e-06
7.84332e-05
-5.47081e-06
6.93634e-05
-4.78769e-06
6.13084e-05
-4.1163e-06
5.41169e-05
-3.47507e-06
4.77425e-05
-2.87645e-06
4.20804e-05
-2.87895e-06
3.71305e-05
-2.25196e-06
3.26408e-05
-1.69071e-06
2.86182e-05
-1.19413e-06
2.49608e-05
-7.63406e-07
2.16373e-05
-4.06203e-07
1.82876e-05
-1.45397e-07
1.39242e-05
1.74044e-05
-1.69354e-08
2.78195e-05
3.01125e-08
2.85555e-05
4.26973e-08
2.93117e-05
1.67478e-08
-1.0293e-07
1.93631e-05
-2.29173e-07
2.15452e-05
-4.00667e-07
2.39681e-05
-6.23099e-07
2.66614e-05
-9.03155e-07
2.96593e-05
-1.24754e-06
3.29946e-05
-1.66289e-06
3.67038e-05
-2.15335e-06
4.08402e-05
-2.72071e-06
4.54572e-05
-3.361e-06
5.06253e-05
-4.06493e-06
5.64267e-05
-4.81292e-06
6.29672e-05
-5.57268e-06
7.03769e-05
-6.29911e-06
7.75683e-05
-6.93462e-06
7.82362e-05
-7.44684e-06
7.90564e-05
-7.79806e-06
8.00287e-05
-7.95939e-06
8.11351e-05
-7.91111e-06
8.23614e-05
-7.64591e-06
8.36774e-05
-7.16876e-06
8.96855e-05
-6.43839e-06
7.94007e-05
-5.67982e-06
7.02556e-05
-4.92608e-06
6.21182e-05
-4.20068e-06
5.48425e-05
-3.52043e-06
4.83865e-05
-3.5807e-06
4.27822e-05
-2.86366e-06
3.77422e-05
-2.22176e-06
3.31719e-05
-1.65652e-06
2.90805e-05
-1.16349e-06
2.53609e-05
-7.41773e-07
2.19728e-05
-3.95626e-07
1.85379e-05
-1.43499e-07
1.40677e-05
1.74053e-05
-1.03922e-07
2.78213e-05
-1.87788e-08
2.8559e-05
2.66381e-08
2.93153e-05
3.91152e-08
3.00896e-05
1.51298e-08
-2.28744e-07
1.93627e-05
-3.98078e-07
2.15426e-05
-6.17571e-07
2.39625e-05
-8.93947e-07
2.66522e-05
-1.23409e-06
2.96458e-05
-1.64507e-06
3.29768e-05
-2.13191e-06
3.66824e-05
-2.69792e-06
4.08174e-05
-3.34152e-06
4.54378e-05
-4.05703e-06
5.06174e-05
-4.82998e-06
5.64437e-05
-5.63483e-06
6.30293e-05
-6.43481e-06
7.05126e-05
-7.17729e-06
7.78109e-05
-7.80006e-06
7.85894e-05
-8.27144e-06
7.95298e-05
-8.55735e-06
8.06267e-05
-8.63224e-06
8.18562e-05
-8.48322e-06
8.31987e-05
-8.11037e-06
8.46191e-05
-7.52569e-06
9.07728e-05
-6.69222e-06
8.04131e-05
-5.85008e-06
7.11796e-05
-5.03141e-06
6.29489e-05
-4.25816e-06
5.55802e-05
-4.38399e-06
4.91898e-05
-3.5622e-06
4.34807e-05
-2.82489e-06
3.83454e-05
-2.17579e-06
3.36912e-05
-1.61193e-06
2.9529e-05
-1.12649e-06
2.57456e-05
-7.16253e-07
2.22935e-05
-3.82536e-07
1.87769e-05
-1.40074e-07
1.42077e-05
1.74047e-05
-2.28083e-07
2.78197e-05
-1.02302e-07
2.85606e-05
-2.03369e-08
2.93185e-05
2.33966e-08
3.0093e-05
3.56895e-08
3.08895e-05
1.36058e-08
-3.95297e-07
1.93599e-05
-6.1186e-07
2.15369e-05
-8.84465e-07
2.39531e-05
-1.22007e-06
2.66382e-05
-1.626e-06
2.96268e-05
-2.1079e-06
3.29528e-05
-2.67017e-06
3.66546e-05
-3.31308e-06
4.0789e-05
-4.03379e-06
4.54145e-05
-4.82197e-06
5.06094e-05
-5.65774e-06
5.64666e-05
-6.51163e-06
6.31062e-05
-7.33964e-06
7.06749e-05
-8.08362e-06
7.80945e-05
-8.67615e-06
7.89941e-05
-9.09045e-06
8.00629e-05
-9.29497e-06
8.12894e-05
-9.27064e-06
8.26437e-05
-9.01197e-06
8.41003e-05
-8.52644e-06
8.56198e-05
-7.83373e-06
9.19143e-05
-6.90117e-06
8.14642e-05
-5.9811e-06
7.21292e-05
-5.10411e-06
6.37948e-05
-5.30556e-06
5.65018e-05
-4.36271e-06
4.99903e-05
-3.51418e-06
4.417e-05
-2.76582e-06
3.89354e-05
-2.11614e-06
3.41954e-05
-1.5587e-06
2.99612e-05
-1.08435e-06
2.61137e-05
-6.87692e-07
2.25986e-05
-3.67519e-07
1.90043e-05
-1.35501e-07
1.43432e-05
1.74018e-05
-3.92437e-07
2.7813e-05
-2.21412e-07
2.85585e-05
-1.00277e-07
2.93198e-05
-2.15963e-08
3.0096e-05
2.03923e-08
3.08928e-05
3.24254e-08
3.17094e-05
1.21746e-08
-6.06135e-07
1.93542e-05
-8.74981e-07
2.15274e-05
-1.20593e-06
2.39389e-05
-1.60643e-06
2.66186e-05
-2.08253e-06
2.96014e-05
-2.63941e-06
3.2922e-05
-3.27872e-06
3.66203e-05
-3.99985e-06
4.0755e-05
-4.79575e-06
4.53883e-05
-5.65124e-06
5.06029e-05
-6.54305e-06
5.6498e-05
-7.43487e-06
6.32014e-05
-8.27729e-06
7.08686e-05
-9.00569e-06
7.8424e-05
-9.55107e-06
7.94547e-05
-9.89088e-06
8.06588e-05
-9.99949e-06
8.20183e-05
-9.86505e-06
8.34967e-05
-9.48967e-06
8.50635e-05
-8.88907e-06
8.66751e-05
-8.09044e-06
9.31036e-05
-7.06417e-06
8.25473e-05
-6.0731e-06
7.30982e-05
-6.36425e-06
6.48535e-05
-5.28253e-06
5.74216e-05
-4.30503e-06
5.07812e-05
-3.44071e-06
4.48449e-05
-2.68944e-06
3.95087e-05
-2.04527e-06
3.46819e-05
-1.49866e-06
3.03755e-05
-1.03837e-06
2.64643e-05
-6.56936e-07
2.2888e-05
-3.51138e-07
1.922e-05
-1.30112e-07
1.44733e-05
1.73962e-05
-6.00517e-07
2.77995e-05
-3.78916e-07
2.85514e-05
-2.14216e-07
2.93174e-05
-9.78663e-08
3.0097e-05
-2.25549e-08
3.08956e-05
1.76239e-08
3.17125e-05
2.93271e-08
3.25533e-05
1.08382e-08
-8.65692e-07
1.93449e-05
-1.19199e-06
2.15135e-05
-1.5869e-06
2.39194e-05
-2.0567e-06
2.65928e-05
-2.6071e-06
2.95691e-05
-3.24079e-06
3.28841e-05
-3.95882e-06
3.65793e-05
-4.75676e-06
4.0716e-05
-5.62325e-06
4.53603e-05
-6.5402e-06
5.06001e-05
-7.47799e-06
5.65412e-05
-8.39516e-06
6.33193e-05
-9.23565e-06
7.10986e-05
-9.93173e-06
7.88047e-05
-1.04115e-05
7.99753e-05
-1.06607e-05
8.132e-05
-1.06605e-05
8.28137e-05
-1.04068e-05
8.44139e-05
-9.91029e-06
8.60848e-05
-9.19505e-06
8.77797e-05
-8.29408e-06
9.43335e-05
-7.1811e-06
8.36553e-05
-7.57967e-06
7.43137e-05
-6.34123e-06
6.59122e-05
-5.2151e-06
5.83317e-05
-4.21597e-06
5.15564e-05
-3.34576e-06
4.55012e-05
-2.59899e-06
4.00624e-05
-1.96572e-06
3.5149e-05
-1.4337e-06
3.07708e-05
-9.89772e-07
2.67972e-05
-6.24778e-07
2.31617e-05
-3.33907e-07
1.94238e-05
-1.24167e-07
1.45975e-05
1.73872e-05
-8.56732e-07
2.77771e-05
-5.78137e-07
2.85371e-05
-3.64675e-07
2.93096e-05
-2.06445e-07
3.00942e-05
-9.50373e-08
3.08962e-05
-2.32128e-08
3.17151e-05
1.50909e-08
3.25563e-05
2.63927e-08
3.34192e-05
9.59337e-09
-1.17848e-06
1.93314e-05
-1.5678e-06
2.14944e-05
-2.03106e-06
2.38937e-05
-2.57434e-06
2.656e-05
-3.20104e-06
2.95293e-05
-3.91348e-06
3.28387e-05
-4.70927e-06
3.65318e-05
-5.58009e-06
4.06729e-05
-6.51214e-06
4.53323e-05
-7.48149e-06
5.06036e-05
-8.45373e-06
5.65997e-05
-9.38083e-06
6.34644e-05
-1.02032e-05
7.13701e-05
-1.08482e-05
7.92414e-05
-1.12448e-05
8.05595e-05
-1.13886e-05
8.20481e-05
-1.12683e-05
8.36753e-05
-1.08888e-05
8.53923e-05
-1.02697e-05
8.71595e-05
-9.44194e-06
8.89276e-05
-8.44415e-06
9.55966e-05
-8.9737e-06
8.50493e-05
-7.55966e-06
7.55321e-05
-6.26449e-06
6.69616e-05
-5.10939e-06
5.92251e-05
-4.10051e-06
5.23112e-05
-3.23342e-06
4.61357e-05
-2.49769e-06
4.05944e-05
-1.87993e-06
3.55952e-05
-1.36547e-06
3.11465e-05
-9.39636e-07
2.7112e-05
-5.91936e-07
2.34197e-05
-3.16216e-07
1.96158e-05
-1.17894e-07
1.47154e-05
1.73743e-05
-1.16556e-06
2.77435e-05
-8.23133e-07
2.85138e-05
-5.54865e-07
2.92947e-05
-3.4977e-07
3.00859e-05
-1.98183e-07
3.0893e-05
-9.18149e-08
3.17154e-05
-2.35667e-08
3.25586e-05
1.2793e-08
3.3422e-05
2.36267e-08
3.43052e-05
8.43905e-09
-1.54939e-06
1.9313e-05
-2.00609e-06
2.14694e-05
-2.54192e-06
2.38613e-05
-3.16079e-06
2.65198e-05
-3.86594e-06
2.94818e-05
-4.65655e-06
3.2786e-05
-5.52672e-06
3.64784e-05
-6.46612e-06
4.06268e-05
-7.45561e-06
4.53064e-05
-8.46686e-06
5.06167e-05
-9.45912e-06
5.6678e-05
-1.03807e-05
6.36419e-05
-1.11665e-05
7.16883e-05
-1.17423e-05
7.97389e-05
-1.20392e-05
8.12101e-05
-1.20642e-05
8.28439e-05
-1.1815e-05
8.46015e-05
-1.13061e-05
8.64287e-05
-1.05648e-05
8.82823e-05
-9.62865e-06
9.01121e-05
-1.05699e-05
9.71928e-05
-8.96202e-06
8.64517e-05
-7.4751e-06
7.67427e-05
-6.14133e-06
6.79936e-05
-4.97141e-06
6.0096e-05
-3.96373e-06
5.30415e-05
-3.1077e-06
4.67457e-05
-2.38863e-06
4.11031e-05
-1.79006e-06
3.60198e-05
-1.29544e-06
3.15023e-05
-8.88945e-07
2.7409e-05
-5.58928e-07
2.36624e-05
-2.98427e-07
1.97964e-05
-1.11474e-07
1.48269e-05
1.73568e-05
-1.53186e-06
2.76963e-05
-1.11833e-06
2.84791e-05
-7.88422e-07
2.92705e-05
-5.30662e-07
3.00703e-05
-3.3414e-07
3.08842e-05
-1.89381e-07
3.17118e-05
-8.8193e-08
3.25586e-05
-2.36241e-08
3.34241e-05
1.07239e-08
3.43078e-05
2.10276e-08
3.52191e-05
7.37431e-09
-1.9821e-06
1.9289e-05
-2.5104e-06
2.14379e-05
-3.12098e-06
2.38215e-05
-3.81777e-06
2.64716e-05
-4.6011e-06
2.94263e-05
-5.46696e-06
3.27262e-05
-6.40786e-06
3.64201e-05
-7.40856e-06
4.05798e-05
-8.44596e-06
4.52855e-05
-9.48571e-06
5.06433e-05
-1.04835e-05
5.67808e-05
-1.13816e-05
6.38571e-05
-1.21126e-05
7.20586e-05
-1.26016e-05
8.03013e-05
-1.27833e-05
8.19292e-05
-1.26784e-05
8.37073e-05
-1.22946e-05
8.559e-05
-1.16546e-05
8.75185e-05
-1.07937e-05
8.94474e-05
-1.20748e-05
9.1617e-05
-1.05756e-05
9.88064e-05
-8.87342e-06
8.785e-05
-7.33467e-06
7.7936e-05
-5.979e-06
6.90012e-05
-4.80741e-06
6.09397e-05
-3.81054e-06
5.37443e-05
-2.97242e-06
4.73295e-05
-2.27453e-06
4.15876e-05
-1.69801e-06
3.64224e-05
-1.22491e-06
3.18383e-05
-8.38394e-07
2.76885e-05
-5.26259e-07
2.38903e-05
-2.80822e-07
1.99657e-05
-1.05037e-07
1.49319e-05
1.7334e-05
-1.95931e-06
2.76324e-05
-1.46794e-06
2.84305e-05
-1.06972e-06
2.92348e-05
-7.52674e-07
3.00452e-05
-5.05598e-07
3.08679e-05
-3.17857e-07
3.17025e-05
-1.80077e-07
3.25546e-05
-8.41875e-08
3.34238e-05
-2.33833e-08
3.43096e-05
8.88015e-09
3.52215e-05
1.85912e-08
3.6155e-05
6.39612e-09
-2.48016e-06
1.92588e-05
-3.08231e-06
2.13992e-05
-3.7701e-06
2.37739e-05
-4.54477e-06
2.64153e-05
-5.40377e-06
2.93631e-05
-6.3418e-06
3.26602e-05
-7.34689e-06
3.63585e-05
-8.40027e-06
4.05341e-05
-9.47316e-06
4.52729e-05
-1.05279e-05
5.06877e-05
-1.15139e-05
5.69131e-05
-1.23707e-05
6.41151e-05
-1.30288e-05
7.24858e-05
-1.34142e-05
8.09322e-05
-1.34674e-05
8.27183e-05
-1.32244e-05
8.46371e-05
-1.2702e-05
8.66374e-05
-1.19318e-05
8.86566e-05
-1.35642e-05
9.09367e-05
-1.21057e-05
9.31471e-05
-1.04896e-05
0.000100423
-8.71776e-06
8.92331e-05
-7.14703e-06
7.91041e-05
-5.78505e-06
6.99788e-05
-4.62335e-06
6.17525e-05
-3.64558e-06
5.44175e-05
-2.83089e-06
4.78858e-05
-2.15773e-06
4.20473e-05
-1.60546e-06
3.68029e-05
-1.15481e-06
3.21547e-05
-7.88661e-07
2.79509e-05
-4.94308e-07
2.41037e-05
-2.63596e-07
2.01243e-05
-9.86875e-08
1.50306e-05
1.73053e-05
-2.45147e-06
2.75486e-05
-1.87551e-06
2.83648e-05
-1.40222e-06
2.91846e-05
-1.01955e-06
3.00083e-05
-7.15706e-07
3.0842e-05
-4.79665e-07
3.16856e-05
-3.00948e-07
3.25448e-05
-1.70286e-07
3.34195e-05
-7.98064e-08
3.43091e-05
-2.28486e-08
3.52231e-05
7.25304e-09
3.61573e-05
1.63135e-08
3.65889e-05
5.51283e-09
-3.04523e-06
1.92217e-05
-3.72377e-06
2.13529e-05
-4.48895e-06
2.3718e-05
-5.33933e-06
2.63508e-05
-6.27138e-06
2.92927e-05
-7.27572e-06
3.2589e-05
-8.33719e-06
3.62954e-05
-9.43178e-06
4.04927e-05
-1.05276e-05
4.52727e-05
-1.15809e-05
5.07546e-05
-1.25378e-05
5.70802e-05
-1.33351e-05
6.44215e-05
-1.39028e-05
7.29743e-05
-1.41695e-05
8.16343e-05
-1.40836e-05
8.35775e-05
-1.36963e-05
8.56314e-05
-1.30341e-05
8.77397e-05
-1.50298e-05
9.01222e-05
-1.36303e-05
9.24614e-05
-1.20311e-05
9.46885e-05
-1.03233e-05
0.000102028
-8.50497e-06
9.0591e-05
-6.92106e-06
8.02401e-05
-5.56668e-06
7.09221e-05
-4.42484e-06
6.25318e-05
-3.47288e-06
5.50595e-05
-2.68602e-06
4.84141e-05
-2.04035e-06
4.24822e-05
-1.51355e-06
3.71617e-05
-1.086e-06
3.24521e-05
-7.40247e-07
2.81969e-05
-4.63319e-07
2.43035e-05
-2.46907e-07
2.02725e-05
-9.25068e-08
1.51231e-05
1.72701e-05
-3.01005e-06
2.74415e-05
-2.34437e-06
2.82792e-05
-1.78993e-06
2.91173e-05
-1.33497e-06
2.99568e-05
-9.68141e-07
3.08041e-05
-6.77794e-07
3.16588e-05
-4.52923e-07
3.25273e-05
-2.83393e-07
3.34092e-05
-1.60032e-07
3.43043e-05
-7.50683e-08
3.52223e-05
-2.20175e-08
3.61587e-05
5.83654e-09
3.6591e-05
1.42178e-08
3.55528e-05
4.74475e-09
-3.67933e-06
1.91772e-05
-4.4346e-06
2.12985e-05
-5.27528e-06
2.3654e-05
-6.19917e-06
2.62786e-05
-7.19899e-06
2.9216e-05
-8.26254e-06
3.25144e-05
-9.36985e-06
3.62334e-05
-1.04941e-05
4.04592e-05
-1.15973e-05
4.52891e-05
-1.26324e-05
5.08493e-05
-1.35424e-05
5.72875e-05
-1.42623e-05
6.4781e-05
-1.47233e-05
7.35281e-05
-1.4859e-05
8.24097e-05
-1.46252e-05
8.45064e-05
-1.40901e-05
8.66874e-05
-1.64616e-05
8.91715e-05
-1.51428e-05
9.16346e-05
-1.35774e-05
9.40076e-05
-1.18632e-05
9.62285e-05
-1.0088e-05
0.000103611
-8.24549e-06
9.19155e-05
-6.66517e-06
8.13386e-05
-5.33061e-06
7.18279e-05
-4.21677e-06
6.32756e-05
-3.29601e-06
5.56695e-05
-2.5404e-06
4.89142e-05
-1.92382e-06
4.28924e-05
-1.42342e-06
3.74991e-05
-1.01914e-06
3.2731e-05
-6.93461e-07
2.8427e-05
-4.33503e-07
2.44901e-05
-2.30883e-07
2.04109e-05
-8.65502e-08
1.52097e-05
1.72279e-05
-3.63714e-06
2.73082e-05
-2.87681e-06
2.81701e-05
-2.23527e-06
2.90296e-05
-1.70218e-06
2.9888e-05
-1.26614e-06
3.07514e-05
-9.15437e-07
3.16199e-05
-6.38871e-07
3.24998e-05
-4.2549e-07
3.33911e-05
-2.65313e-07
3.42937e-05
-1.4937e-07
3.52172e-05
-7.00007e-08
3.61576e-05
-2.09157e-08
3.65922e-05
4.63612e-09
3.55546e-05
1.23647e-08
3.45447e-05
4.075e-09
-4.38241e-06
1.91251e-05
-5.21277e-06