/*--------------------------------*- C++ -*----------------------------------*\
  =========                 |
  \\      /  F ield         | OpenFOAM: The Open Source CFD Toolbox
   \\    /   O peration     | Website:  https://openfoam.org
    \\  /    A nd           | Version:  8
     \\/     M anipulation  |
\*---------------------------------------------------------------------------*/
FoamFile
{
    version     2.0;
    format      ascii;
    class       volScalarField;
    location    "0.34";
    object      epsilon;
}
// * * * * * * * * * * * * * * * * * * * * * * * * * * * * * * * * * * * * * //

dimensions      [0 2 -3 0 0 0 0];

internalField   nonuniform List<scalar> 
15677
(
59.7284
18.3627
52.6898
8.08274
26.03
50.2391
4.62183
13.3259
31.6659
50.5485
3.17385
7.7499
17.1334
37.3523
51.6435
2.48683
5.05444
10.051
20.8636
42.7042
53.6832
2.14416
3.62776
6.47425
12.1892
24.5879
47.7015
55.7368
1.97928
2.82285
4.53056
7.73812
14.3032
28.2919
52.0502
57.6652
1.91148
2.35337
3.40443
5.31728
8.9313
16.4496
31.7893
55.7203
59.3554
1.88406
2.08027
2.72442
3.91276
6.03029
10.1213
18.56
34.9835
58.7258
60.85
1.8705
1.93936
2.30756
3.05727
4.36265
6.71631
11.2892
20.5917
37.7982
61.1889
62.1091
1.86764
1.87829
2.05659
2.52193
3.35063
4.78165
7.37317
12.4335
22.482
40.2549
63.1691
63.2167
1.86864
1.84884
1.91659
2.18643
2.71394
3.61829
5.17167
8.01126
13.5218
24.225
42.3448
64.7841
64.1405
1.86957
1.8387
1.85193
1.98279
2.30766
2.88821
3.86213
5.54251
8.61634
14.5532
25.7866
44.129
66.0786
64.9651
1.86981
1.83698
1.82112
1.8678
2.05179
2.41921
3.04534
4.08893
5.88906
9.19189
15.5036
27.1847
45.6194
67.1311
65.6845
1.86981
1.83724
1.8105
1.81335
1.89837
2.11808
2.52019
3.1892
4.29736
6.21521
9.72536
16.3793
28.4044
46.8708
67.987
66.3232
1.86976
1.8375
1.8082
1.78975
1.81545
1.93062
2.17962
2.61215
3.31973
4.49038
6.51548
10.2203
17.1638
29.4672
47.9121
68.6842
66.9071
1.86974
1.83759
1.8079
1.78271
1.77569
1.82161
1.96284
2.23624
2.69512
3.43878
4.66613
6.79201
10.6676
17.8654
30.3734
48.7665
69.2808
67.4056
1.86973
1.8376
1.80792
1.78099
1.76142
1.76613
1.83195
1.9937
2.28759
2.77006
3.54604
4.82591
7.04103
11.0711
18.4757
31.1384
49.4737
69.7549
67.9087
1.86972
1.83759
1.80793
1.78066
1.75692
1.74386
1.76042
1.84341
2.02234
2.33392
2.83708
3.64231
4.96854
7.26419
11.4248
19.0026
31.7732
50.0298
70.2
68.3024
1.86972
1.83758
1.80793
1.78061
1.75564
1.73581
1.72945
1.75746
1.85488
2.04853
2.3753
2.89668
3.7275
5.09471
7.4594
11.7319
19.4438
32.2854
50.4932
70.5334
68.7683
1.86972
1.83757
1.80792
1.7806
1.75533
1.73308
1.71718
1.71794
1.75595
1.86606
2.07216
2.41198
2.9491
3.80195
5.20432
7.62736
11.9899
19.8067
32.6942
50.8335
70.9013
69.081
1.86972
1.83756
1.80791
1.78058
1.75525
1.73224
1.71255
1.70117
1.70838
1.75585
1.87651
2.09323
2.4442
2.99459
3.86621
5.29738
7.76849
12.2019
20.0938
33.0033
51.1218
71.1501
69.5414
1.86972
1.83756
1.8079
1.78055
1.75521
1.73198
1.71093
1.69431
1.68707
1.70075
1.75614
1.88608
2.11187
2.47219
3.03378
3.92038
5.37529
7.88265
12.3694
20.3126
33.2313
51.3176
71.4974
69.7952
1.86972
1.83755
1.80789
1.78053
1.75519
1.73188
1.71038
1.69168
1.6778
1.67509
1.69438
1.75686
1.89484
2.1283
2.49647
3.06694
3.96564
5.43745
7.97319
12.4948
20.4702
33.3885
51.4807
71.7001
70.2545
1.86972
1.83755
1.80789
1.78051
1.75516
1.73183
1.71019
1.6907
1.67399
1.66337
1.66454
1.68931
1.75811
1.90294
2.14286
2.51739
3.09494
4.00218
5.48719
8.03931
12.5846
20.5704
33.4786
51.6015
72.094
70.4965
1.86972
1.83755
1.80788
1.7805
1.75514
1.73178
1.7101
1.69033
1.67251
1.65827
1.65038
1.65586
1.68531
1.75982
1.91057
2.156
2.53573
3.11852
4.03193
5.52339
8.08709
12.6371
20.6296
33.5339
51.679
72.3867
428.223
1.86972
1.83755
1.80788
1.78049
1.75513
1.73174
1.71004
1.69015
1.67192
1.65612
1.64399
1.63944
1.64835
1.68258
1.76221
1.91825
2.16831
2.55212
3.13852
4.05504
5.55043
8.11413
12.6675
20.6387
33.5337
51.8001
88.7497
713.491
1.86972
1.83755
1.80788
1.78048
1.75511
1.73171
1.70999
1.69004
1.67167
1.65521
1.64122
1.63167
1.62982
1.64306
1.68151
1.76578
1.92637
2.18042
2.56741
3.15621
4.07407
5.56826
8.13138
12.6655
20.6278
33.5386
52.7299
122.084
990.097
1.86972
1.83755
1.80788
1.78048
1.7551
1.73169
1.70995
1.68997
1.67152
1.65479
1.64003
1.62811
1.62093
1.62261
1.63882
1.68233
1.7708
1.93568
2.19321
2.58285
3.17284
4.09006
5.58089
8.1315
12.6551
20.6025
33.5675
55.3088
157.451
1233.53
1.86972
1.83755
1.80788
1.78047
1.7551
1.73167
1.70992
1.68991
1.67142
1.65457
1.63948
1.62648
1.6168
1.61237
1.61691
1.63834
1.68497
1.77797
1.9469
2.2077
2.59923
3.18963
4.10445
5.58872
8.12857
12.6335
20.5673
33.673
59.8939
189.76
1456.63
1.86972
1.83754
1.80788
1.78047
1.75509
1.73165
1.7099
1.68987
1.67134
1.65443
1.63919
1.6257
1.61489
1.60741
1.60601
1.6146
1.63985
1.69045
1.78804
1.96097
2.22463
2.61783
3.2076
4.11908
5.59486
8.12209
12.605
20.5275
33.9366
64.6147
220.336
1644.65
1.86972
1.83754
1.80788
1.78046
1.75509
1.73164
1.70988
1.68983
1.67128
1.65432
1.639
1.62529
1.61395
1.60502
1.60069
1.60238
1.61572
1.64412
1.69981
1.80196
1.97871
2.24528
2.63956
3.22845
4.13523
5.60211
8.11348
12.5757
20.4823
34.4128
69.4095
247.12
1786.58
1.86972
1.83754
1.80788
1.78046
1.75508
1.73163
1.70986
1.68979
1.67122
1.65423
1.63885
1.62504
1.61344
1.60384
1.5981
1.59629
1.60326
1.61955
1.65267
1.71379
1.82056
2.00133
2.27046
2.66587
3.25299
4.15493
5.6117
8.10755
12.5436
20.4415
34.9782
73.7484
267.895
1895.94
1.86972
1.83754
1.80788
1.78046
1.75508
1.73162
1.70985
1.68976
1.67118
1.65416
1.63873
1.62486
1.61312
1.60321
1.59678
1.59329
1.59705
1.60687
1.62757
1.66684
1.73328
1.84508
2.02967
2.30153
2.6974
3.28284
4.1791
5.62585
8.10279
12.5105
20.4082
35.5235
77.114
284.274
1983.22
1.83754
1.86976
1.80788
1.78045
1.75508
1.73161
1.70984
1.68973
1.67114
1.6541
1.63863
1.62471
1.61287
1.60283
1.59606
1.59179
1.59401
1.6006
1.61473
1.64199
1.68717
1.75951
1.87633
2.065
2.3391
2.73566
3.31862
4.20912
5.64446
8.10295
12.4735
20.3711
35.9393
79.6925
297.561
2055.53
1.80788
1.83764
1.86983
1.78045
1.75508
1.7316
1.70983
1.68971
1.67111
1.65404
1.63854
1.6246
1.61268
1.60255
1.5956
1.591
1.59251
1.5976
1.60855
1.62955
1.66315
1.71489
1.79342
1.91574
2.10806
2.3846
2.78093
3.36144
4.24514
5.6684
8.10556
12.4339
20.3233
36.2262
81.6739
308.758
2117.81
1.78045
1.80804
1.83784
1.8699
1.75508
1.73159
1.70982
1.68969
1.67109
1.654
1.63847
1.62449
1.61251
1.60234
1.59526
1.59053
1.59175
1.59619
1.60576
1.62375
1.65157
1.6924
1.75114
1.83632
1.96386
2.15996
2.43809
2.83445
3.41136
4.28747
5.70103
8.11275
12.3962
20.2638
36.4081
83.2329
318.493
2173
1.75508
1.78066
1.80835
1.83805
1.86997
1.73158
1.70981
1.68967
1.67107
1.65395
1.63841
1.6244
1.61237
1.60217
1.595
1.59022
1.59132
1.59555
1.60462
1.62143
1.64671
1.68238
1.73104
1.7975
1.88921
2.02222
2.22106
2.50118
2.89597
3.46858
4.3417
5.74458
8.12654
12.3619
20.1935
36.5061
84.4895
327.245
2223.22
1.73158
1.75533
1.78108
1.80868
1.83826
1.87005
1.70981
1.68965
1.67105
1.65391
1.63836
1.62433
1.61226
1.60203
1.59478
1.58998
1.59105
1.59526
1.60428
1.62086
1.64544
1.67928
1.72355
1.78091
1.85513
1.95378
2.09129
2.29251
2.57278
2.9659
3.54047
4.41052
5.79563
8.14644
12.3307
20.1166
36.5516
85.5451
335.247
2269.49
1.7098
1.73187
1.75585
1.78151
1.80902
1.83848
1.87013
1.68964
1.67103
1.65388
1.63832
1.62426
1.61216
1.6019
1.59459
1.5898
1.59085
1.5951
1.60425
1.62108
1.64581
1.67947
1.72263
1.77692
1.84367
1.92621
2.03093
2.17264
2.37421
2.6541
3.05291
3.62995
4.48791
5.85353
8.17143
12.3035
20.0368
36.5481
86.4538
342.734
2312.79
1.68963
1.71014
1.73247
1.75638
1.78196
1.80936
1.8387
1.87021
1.67102
1.65385
1.63829
1.62419
1.61208
1.60179
1.59443
1.58965
1.59071
1.59503
1.60437
1.62161
1.64702
1.68153
1.72523
1.77927
1.84372
1.92071
2.01177
2.12264
2.2663
2.46764
2.75414
3.16016
3.72899
4.57245
5.91708
8.20102
12.2805
19.9566
36.5327
87.2701
349.751
2353.34
1.67101
1.68998
1.71081
1.73308
1.75693
1.78241
1.80971
1.83893
1.87029
1.65382
1.63826
1.62414
1.61201
1.6017
1.59429
1.58952
1.59059
1.59499
1.60454
1.62224
1.64849
1.68444
1.72981
1.7855
1.85093
1.92686
2.01312
2.11292
2.22946
2.37421
2.58369
2.87914
3.2775
3.8354
4.66308
5.98496
8.2346
12.262
19.8798
36.5019
88.0088
356.444
2391.74
1.6538
1.6714
1.69072
1.71151
1.73372
1.75749
1.78288
1.81008
1.83917
1.87037
1.63823
1.62409
1.61195
1.60161
1.59418
1.58942
1.5905
1.59498
1.60473
1.62289
1.65
1.68751
1.73524
1.79395
1.86231
1.94084
2.02772
2.12405
2.22987
2.35153
2.51007
2.73038
3.0175
3.40395
3.94745
4.75796
6.0562
8.27149
12.2477
19.8079
36.4623
88.7037
362.762
2427.82
1.63821
1.65419
1.67219
1.69148
1.71223
1.73437
1.75807
1.78337
1.81045
1.83941
1.87046
1.62404
1.6119
1.60153
1.59408
1.58933
1.59043
1.59498
1.60493
1.62352
1.65148
1.69052
1.74072
1.80333
1.87625
1.95957
2.05081
2.14982
2.25398
2.36583
2.50387
2.68037
2.89371
3.16752
3.5387
4.06488
4.856
6.12976
8.3109
12.2374
19.7417
36.4232
89.3514
368.84
2462.11
1.624
1.63862
1.65502
1.67301
1.69226
1.71297
1.73504
1.75866
1.78387
1.81083
1.83966
1.87055
1.61186
1.60145
1.59401
1.58926
1.59037
1.59499
1.60513
1.62412
1.6529
1.69338
1.74601
1.81266
1.89129
1.98155
2.07959
2.18536
2.29412
2.40641
2.53796
2.69728
2.86894
3.07325
3.32939
3.6804
4.18599
4.95598
6.20475
8.35219
12.2309
19.6815
36.3859
89.9775
374.569
2494.28
1.61183
1.62439
1.63948
1.65587
1.67386
1.69306
1.71372
1.73573
1.75927
1.78438
1.81123
1.83991
1.87064
1.60138
1.59394
1.58919
1.59032
1.59501
1.60532
1.62468
1.65422
1.69606
1.75105
1.82162
1.90613
2.00509
2.11273
2.22818
2.34597
2.46544
2.60123
2.7594
2.91549
3.07447
3.26322
3.50008
3.82707
4.30969
5.05697
6.28027
8.39474
12.2275
19.628
36.3536
90.5681
380.103
2524.87
1.60132
1.61222
1.62523
1.64036
1.65675
1.67472
1.69389
1.7145
1.73644
1.7599
1.7849
1.81163
1.84018
1.87073
1.5939
1.58913
1.59028
1.59503
1.6055
1.6252
1.65546
1.69855
1.75578
1.83011
1.92041
2.02844
2.14816
2.27724
2.40753
2.53929
2.68684
2.85544
3.01233
3.15767
3.29674
3.46243
3.67813
3.97807
4.43497
5.15792
6.35561
8.4379
12.2279
19.5805
36.3272
91.1457
385.291
2553.44
1.59387
1.60163
1.61304
1.62609
1.64127
1.65766
1.67561
1.69474
1.7153
1.73717
1.76054
1.78544
1.81204
1.84043
1.87082
1.58906
1.59024
1.59506
1.60567
1.62568
1.6566
1.70085
1.76021
1.83807
1.93403
2.0511
2.18344
2.3301
2.4783
2.62681
2.7923
2.98051
3.15039
3.29713
3.42265
3.53379
3.669
3.8595
4.13171
4.56058
5.25816
6.43011
8.48134
12.2298
19.5388
36.3065
91.6926
390.316
2580.64
1.589
1.59415
1.60232
1.61389
1.62699
1.64221
1.6586
1.67653
1.69562
1.71612
1.73792
1.7612
1.78599
1.81245
1.84069
1.8709
1.5902
1.59507
1.60582
1.62613
1.65765
1.70296
1.76432
1.84547
1.94692
2.07281
2.21784
2.38348
2.5554
2.72839
2.91789
3.13448
3.32779
3.48849
3.61378
3.70911
3.78356
3.8818
4.04179
4.28607
4.68546
5.35677
6.50323
8.52452
12.2339
19.5023
36.2927
92.2287
394.993
2605.89
1.59018
1.58904
1.59476
1.60302
1.61476
1.62793
1.64318
1.65957
1.67747
1.69653
1.71696
1.73869
1.76187
1.78654
1.81285
1.84093
1.87098
1.59508
1.60596
1.62654
1.65861
1.7049
1.76811
1.85233
1.95906
2.0934
2.25109
2.43636
2.6341
2.84066
3.06585
3.32078
3.54865
3.735
3.8724
3.96249
4.0157
4.044
4.09915
4.22382
4.43938
4.80833
5.45324
6.57454
8.56711
12.24
19.4709
36.2834
92.7369
399.536
2629.95
1.59513
1.5901
1.58915
1.59537
1.60377
1.61567
1.62891
1.64418
1.66058
1.67844
1.69746
1.71783
1.73948
1.76254
1.78707
1.81323
1.84117
1.87106
1.60608
1.6269
1.65949
1.70668
1.7716
1.85867
1.97042
2.11278
2.28302
2.48818
2.71264
2.9573
3.2331
3.54607
3.8226
4.04882
4.21091
4.30638
4.34403
4.3412
4.31318
4.31912
4.40446
4.59086
4.92908
5.5472
6.64372
8.60884
12.2477
19.4436
36.2808
93.2331
403.727
2652.16
1.60625
1.59483
1.58989
1.58923
1.59601
1.60458
1.61661
1.62993
1.6452
1.66161
1.67944
1.69842
1.71871
1.74026
1.76319
1.78759
1.81361
1.8414
1.87114
1.62722
1.66027
1.7083
1.77479
1.86451
1.98099
2.13092
2.31352
2.53836
2.79012
3.07647
3.41154
3.80887
4.16572
4.45308
4.65753
4.76959
4.79697
4.75993
4.68468
4.58938
4.54003
4.58255
4.73829
5.04704
5.63826
6.71052
8.6495
12.2564
19.4206
36.2823
93.7039
407.818
2673.37
1.62759
1.60562
1.59402
1.58961
1.58943
1.59667
1.60547
1.61757
1.631
1.64625
1.66268
1.68046
1.6994
1.71959
1.74102
1.76382
1.78809
1.81397
1.84162
1.87122
1.66097
1.70976
1.77771
1.86988
1.9908
2.14783
2.3425
2.58645
2.86602
3.19734
3.59793
4.09779
4.58436
4.98693
5.26398
5.4101
5.43055
5.35243
5.21216
5.04534
4.87106
4.76046
4.75756
4.88069
5.1614
5.72608
6.77475
8.6889
12.266
19.4009
36.2865
94.1599
411.559
2690.42
1.6617
1.6264
1.60387
1.5931
1.58939
1.58984
1.59734
1.60641
1.61857
1.6321
1.64734
1.66379
1.68151
1.70038
1.72044
1.74176
1.76444
1.78858
1.81433
1.84184
1.87129
1.71109
1.78035
1.87481
1.99985
2.16357
2.3699
2.63217
2.94009
3.3188
3.78946
4.4092
5.07103
5.68272
6.11632
6.3293
6.34952
6.21458
5.98058
5.70225
5.42231
5.1568
4.97917
4.9288
5.01782
5.27161
5.8104
6.83629
8.72691
12.2762
19.3845
36.2942
94.5932
414.739
2704.74
1.71243
1.6599
1.62305
1.60196
1.59228
1.5891
1.5904
1.59802
1.60742
1.61959
1.63325
1.64846
1.66492
1.68255
1.70132
1.72128
1.74248
1.76503
1.78905
1.81467
1.84205
1.87136
1.78277
1.87931
2.00819
2.17819
2.39566
2.67544
3.01219
3.43939
3.98348
4.743
5.63066
6.54463
7.28998
7.68251
7.72395
7.51331
7.13731
6.6861
6.2303
5.81426
5.44518
5.19516
5.09552
5.14952
5.37732
5.89105
6.89506
8.76343
12.2868
19.3705
36.3058
94.9533
417.351
2720.25
1.78512
1.70981
1.65445
1.61948
1.60022
1.59156
1.58883
1.59107
1.59872
1.60849
1.62066
1.63443
1.64962
1.66604
1.68357
1.70225
1.72209
1.74318
1.76561
1.78951
1.81501
1.84225
1.87143
1.88349
2.01585
2.19177
2.41979
2.7163
3.08209
3.55761
4.17864
5.10059
6.26871
7.58057
8.78812
9.59154
9.79252
9.50016
8.92232
8.20441
7.46869
6.79434
6.21924
5.7348
5.40751
5.25715
5.27564
5.47834
5.96794
6.951
8.79841
12.2976
19.3592
36.3167
95.2593
420.238
2737.11
1.88742
1.7815
1.70134
1.6487
1.61617
1.59866
1.59091
1.58864
1.59181
1.59948
1.60959
1.62177
1.63564
1.65077
1.66713
1.68456
1.70314
1.72288
1.74386
1.76618
1.78996
1.81533
1.84245
1.87147
2.02299
2.20437
2.44233
2.75483
3.14951
3.67229
4.37498
5.48315
6.98457
8.7873
10.6048
12.0409
12.728
12.5125
11.6798
10.5779
9.41072
8.32278
7.39024
6.63465
6.02417
5.61545
5.41327
5.39613
5.57456
6.041
7.00413
8.83179
12.3086
19.3508
36.328
95.5959
423.325
2755.47
2.02954
1.88253
1.76875
1.69251
1.64332
1.61312
1.59722
1.59033
1.58853
1.59261
1.6003
1.61074
1.62294
1.63684
1.6519
1.66818
1.68553
1.70401
1.72364
1.74452
1.76673
1.79039
1.81565
1.84255
1.87147
2.2162
2.46338
2.79118
3.21411
3.78277
4.57343
5.89026
7.77145
10.1485
12.7184
15.0075
16.4958
16.7965
15.873
14.2595
12.4657
10.7423
9.2386
8.01219
7.05736
6.31176
5.81827
5.56357
5.51097
5.66594
6.11026
7.05446
8.86358
12.318
19.3446
36.3406
95.9679
426.778
2775.51
2.22683
2.02311
1.86366
1.7556
1.68422
1.63828
1.61026
1.59589
1.58985
1.58852
1.59345
1.6012
1.6119
1.62412
1.63801
1.65301
1.66921
1.68647
1.70486
1.72439
1.74516
1.76726
1.79081
1.81581
1.84255
1.87147
2.48321
2.82551
3.27571
3.88902
4.77514
6.31949
8.6184
11.6405
15.0915
18.4504
21.0617
22.3116
21.8609
19.8775
17.2175
14.5607
12.1798
10.2038
8.65335
7.48395
6.59608
6.01539
5.70785
5.62019
5.75255
6.17578
7.10205
8.88978
12.3264
19.3383
36.3578
96.38
430.461
2797.34
2.50065
2.21841
1.99555
1.84445
1.74323
1.67636
1.63347
1.60757
1.59466
1.58946
1.58862
1.59431
1.60219
1.61306
1.62528
1.63914
1.65409
1.67022
1.68739
1.70568
1.72512
1.74578
1.76778
1.79102
1.81581
1.84255
1.87147
2.85813
3.33433
3.99158
4.98095
6.76663
9.5124
13.2365
17.6789
22.3059
26.3629
29.018
29.6141
27.9526
24.5062
20.5193
16.8317
13.701
11.2049
9.30643
7.91092
6.87569
6.20629
5.84597
5.72386
5.83447
6.23764
7.14106
8.91206
12.3358
19.3327
36.3771
96.8376
434.604
2821.19
2.88646
2.48998
2.17826
1.96788
1.82638
1.73146
1.66883
1.62888
1.60504
1.59355
1.58918
1.58885
1.59516
1.60324
1.61417
1.62644
1.64025
1.65515
1.67119
1.68829
1.70648
1.72582
1.74639
1.76804
1.79102
1.81581
1.84255
1.87147
3.39027
4.09145
5.1913
7.2263
10.4396
14.909
20.4318
26.4959
32.2948
36.8213
39.0911
38.4863
35.0677
29.7187
24.1211
19.2446
15.2836
12.2286
9.96439
8.33497
7.14925
6.39052
5.97788
5.82211
5.91179
6.28843
7.17412
8.93653
12.3465
19.3272
36.4032
97.3475
439.014
2847.16
3.43834
2.87271
2.43147
2.13857
1.94182
1.80912
1.72011
1.66157
1.62447
1.60272
1.59255
1.58898
1.58933
1.59599
1.60431
1.61527
1.62758
1.64133
1.65618
1.67214
1.68916
1.70726
1.72651
1.74669
1.76804
1.79102
1.81581
1.84255
1.87147
4.18928
5.404
7.6928
11.3864
16.6313
23.3014
30.9362
38.7259
45.5527
50.1516
51.44
48.9577
43.1652
35.4554
27.9724
21.7646
16.9056
13.2625
10.6208
8.75304
7.41559
6.56778
6.10359
5.91508
5.97478
6.3315
7.21028
8.96341
12.3587
19.3233
36.4333
97.9127
444.021
2875.53
4.27488
3.42107
2.78625
2.3746
2.10123
1.91687
1.79243
1.70913
1.65458
1.62025
1.6006
1.59165
1.58873
1.58999
1.59679
1.60539
1.61634
1.62869
1.64238
1.65719
1.67307
1.69001
1.70802
1.72685
1.74669
1.76804
1.79102
1.81581
1.84255
1.87143
5.6159
8.16202
12.3405
18.3778
26.2401
35.5421
45.5126
54.9947
62.5299
66.6115
66.1499
60.9975
52.1671
41.6414
32.0193
24.3573
18.5471
14.2956
11.2698
9.16247
7.67374
6.73782
6.22313
5.99144
6.02798
6.37862
7.24987
8.993
12.3727
19.3197
36.472
98.5515
449.338
2906.32
4.25291
5.80247
3.28934
2.70413
2.32114
2.06543
1.89272
1.77626
1.69853
1.64788
1.61624
1.59863
1.59086
1.5885
1.59075
1.59758
1.60647
1.61739
1.62978
1.64341
1.65817
1.67397
1.69083
1.70839
1.72685
1.74669
1.76804
1.79102
1.81581
1.84245
1.87136
8.62891
13.2907
20.126
29.2037
40.2328
52.5127
64.9099
75.8776
83.5983
86.3666
83.2196
74.5127
61.9635
48.1908
36.2064
26.9907
20.1904
15.3184
11.9067
9.56107
7.92291
6.90048
6.32165
6.05625
6.08594
6.43018
7.29323
9.02558
12.3886
19.3188
36.5188
99.255
455.438
2939.98
4.03677
5.78646
9.0448
3.16857
2.62708
2.26984
2.03073
1.86928
1.76062
1.68833
1.64146
1.61248
1.59687
1.59019
1.58837
1.59155
1.59839
1.60753
1.61843
1.63084
1.64441
1.65912
1.67485
1.69124
1.70839
1.72686
1.74669
1.76804
1.79102
1.81565
1.84225
1.87129
14.2252
21.8561
32.1539
44.9352
59.5942
75.0671
89.8155
101.863
109.025
109.472
102.554
89.3527
72.4189
55.011
40.4796
29.6354
21.82
16.3228
12.5276
9.9471
8.16249
7.03525
6.40548
6.1272
6.14912
6.48661
7.34077
9.06153
12.407
19.3197
36.5755
100.065
461.892
2976.34
3.84657
5.40157
9.06127
15.059
3.05627
2.55312
2.22013
1.99706
1.8466
1.74553
1.67855
1.63538
1.60902
1.59533
1.58966
1.58834
1.59235
1.59922
1.60857
1.61946
1.63187
1.6454
1.66006
1.67528
1.69124
1.70839
1.72686
1.74669
1.76804
1.79081
1.81533
1.84204
1.87122
23.5474
35.0583
49.5886
66.6425
85.2593
103.981
120.822
133.331
138.949
135.857
123.968
105.317
83.3802
62.0086
44.7887
32.2655
23.4229
17.3025
13.1293
10.3192
8.36182
7.1503
6.49748
6.20494
6.21806
6.54839
7.39292
9.10122
12.4282
19.3228
36.6478
100.948
469.391
3016.07
3.67357
5.06607
8.35463
15.1509
25.0653
2.94884
2.48153
2.17191
1.96445
1.8247
1.73104
1.66921
1.62968
1.60593
1.59402
1.58926
1.58843
1.59314
1.60008
1.60958
1.62048
1.63288
1.64636
1.66052
1.67528
1.69124
1.7084
1.72686
1.74669
1.76778
1.79039
1.815
1.84183
1.87114
37.884
54.1437
73.5673
95.3154
118.059
139.921
158.412
170.53
173.369
165.327
147.191
122.167
94.6868
69.0938
49.0875
34.8584
24.9884
18.2525
13.7096
10.6293
8.53242
7.277
6.59858
6.29019
6.29334
6.61604
7.45018
9.14514
12.4525
19.33
36.7293
101.99
477.277
3058.64
3.51089
4.76261
7.72443
13.9217
25.3445
40.425
2.84511
2.41221
2.12528
1.93299
1.80364
1.71717
1.6604
1.62452
1.60323
1.59291
1.589
1.58863
1.5939
1.60096
1.61056
1.62148
1.63388
1.64684
1.66051
1.67528
1.69125
1.7084
1.72686
1.74639
1.76726
1.78995
1.81466
1.84161
1.87106
58.5515
80.2999
105.109
131.804
158.697
183.45
202.957
213.568
212.126
197.558
171.881
139.643
106.18
76.1828
53.3353
37.3955
26.5081
19.169
14.1934
10.895
8.72076
7.41669
6.70977
6.38374
6.37561
6.69016
7.51309
9.19372
12.4809
19.3403
36.8407
103.106
486.578
3105.17
3.35625
4.47992
7.14667
12.7917
23.423
41.0454
62.5101
2.74495
2.34531
2.08032
1.90275
1.78347
1.70405
1.65236
1.61992
1.60089
1.59198
1.58883
1.58899
1.59463
1.60186
1.61152
1.62249
1.63436
1.64683
1.66051
1.67528
1.69125
1.7084
1.72652
1.74578
1.76672
1.7895
1.81432
1.84139
1.87098
86.7726
114.552
145.05
176.804
207.768
235.041
254.708
262.393
254.894
232.109
197.647
157.48
117.71
83.2008
57.4986
39.8618
27.9756
19.9332
14.6078
11.1886
8.9289
7.57087
6.8322
6.4865
6.46561
6.77139
7.58224
9.24768
12.5132
19.3598
36.9571
104.465
496.275
3154.4
3.20909
4.21447
6.6051
11.7325
21.618
38.2293
63.6626
92.5586
2.64846
2.28098
2.03714
1.8738
1.76437
1.69202
1.64515
1.61583
1.59889
1.5912
1.58866
1.5895
1.59532
1.60277
1.61249
1.62298
1.63434
1.64684
1.66052
1.67529
1.69125
1.70802
1.72582
1.74515
1.76617
1.78904
1.81396
1.84116
1.8709
123.558
157.692
194.029
230.887
265.809
295.103
313.793
316.77
301.18
268.447
224.078
175.421
129.139
90.085
61.5494
42.2455
29.2001
20.588
15.0657
11.5133
9.15916
7.74122
6.96715
6.59947
6.56415
6.86045
7.65832
9.30744
12.5517
19.381
37.1277
105.889
507.896
3217.68
3.06928
3.96583
6.09499
10.7245
19.8877
35.5562
59.7375
94.4415
131.541
2.55581
2.2194
1.99587
1.84641
1.74684
1.68122
1.6387
1.61217
1.59718
1.59054
1.58848
1.59008
1.59602
1.60374
1.61295
1.62296
1.63434
1.64684
1.66052
1.6753
1.69084
1.70726
1.72511
1.74451
1.7656
1.78856
1.8136
1.84092
1.87081
169.631
210.267
252.543
294.589
333.355
363.99
380.183
376.259
350.339
305.976
250.757
193.228
140.352
96.7834
65.4657
44.2356
30.2496
21.3117
15.5722
11.8727
9.4141
7.92962
7.11605
6.72378
6.67214
6.95813
7.74201
9.37412
12.5949
19.419
37.2935
107.686
522.103
3293.17
2.93657
3.73448
5.6167
9.76272
18.2053
32.9565
56.0072
89.1695
134.313
180.073
2.46728
2.16071
1.95687
1.82127
1.73108
1.67151
1.63292
1.60892
1.59572
1.59
1.58835
1.59074
1.59682
1.60422
1.6129
1.62297
1.63434
1.64684
1.66053
1.67486
1.69001
1.70648
1.72438
1.74385
1.76502
1.78808
1.81322
1.84068
1.87073
225.414
272.646
321.055
368.511
410.993
441.994
453.661
440.211
401.596
344.072
277.293
210.697
151.253
103.255
68.7347
45.9418
31.4101
22.1123
16.1328
12.2708
9.69658
8.13817
7.2805
6.86067
6.79061
7.06532
7.83422
9.44798
12.6474
19.4571
37.5517
109.778
541.179
3368.03
2.81038
3.52146
5.17154
8.85356
16.5602
30.3929
52.3522
84.1964
127.404
183.795
238.402
2.3832
2.10543
1.92114
1.79868
1.71691
1.6628
1.62775
1.60607
1.59447
1.58954
1.58835
1.59154
1.59716
1.60419
1.6129
1.62298
1.63435
1.64686
1.66007
1.67397
1.68916
1.70568
1.72363
1.74317
1.76442
1.78758
1.81284
1.84043
1.87064
291.107
345.155
400.142
453.413
499.394
529.324
533.792
507.767
454.088
382.119
303.343
227.659
161.766
108.649
71.5363
47.8287
32.6943
22.9986
16.7536
12.712
10.0098
8.3692
7.46228
7.01155
6.92069
7.18297
7.93574
9.53085
12.7057
19.5234
37.8349
112.843
561.329
3441.71
2.69045
3.32889
4.76123
7.99731
14.9529
27.8477
48.7183
79.3217
120.991
174.856
242.967
306.481
2.30441
2.05492
1.8891
1.77838
1.70417
1.65498
1.62315
1.60357
1.59337
1.58925
1.58867
1.59194
1.59702
1.60422
1.6129
1.62298
1.63439
1.64639
1.65913
1.67307
1.68829
1.70485
1.72287
1.74247
1.76381
1.78706
1.81245
1.84017
1.87055
366.841
428.261
490.652
550.322
599.376
626.084
619.874
577.87
506.913
419.561
328.617
243.982
170.509
113.267
74.633
49.9166
34.1163
23.9803
17.4416
13.2011
10.3572
8.62527
7.66336
7.17798
7.06366
7.31223
8.04775
9.62269
12.7779
19.6006
38.3498
115.845
583.196
3513.83
2.5779
3.15248
4.38594
7.19736
13.3987
25.3196
45.0738
74.4666
114.749
166.759
231.438
311.547
384.142
2.23285
2.00972
1.86037
1.76015
1.69274
1.64798
1.61903
1.60134
1.5925
1.58933
1.58872
1.59184
1.59703
1.60422
1.61292
1.62302
1.6339
1.64541
1.65817
1.67214
1.68739
1.70401
1.72208
1.74176
1.76319
1.78654
1.81204
1.83991
1.87046
452.911
522.837
593.915
660.796
711.978
732.183
710.888
649.322
559.208
455.92
352.889
257.514
177.978
118.363
78.0564
52.2279
35.6915
25.0681
18.2042
13.7436
10.7425
8.90918
7.88589
7.36164
7.22096
7.45422
8.17118
9.7263
12.8722
19.75
38.8339
119.51
607.176
3582.95
2.47562
2.99079
4.0473
6.45893
11.9134
22.8202
41.4066
69.5769
108.568
158.995
221.316
296.612
389.059
471.345
2.1692
1.96929
1.83462
1.74379
1.68248
1.64169
1.61534
1.5995
1.59219
1.58927
1.58845
1.59189
1.59703
1.60422
1.61301
1.62253
1.6329
1.64442
1.65719
1.67119
1.68647
1.70314
1.72128
1.74102
1.76254
1.786
1.81163
1.83965
1.87037
550.081
630.263
712.155
787.157
838.38
847.171
805.497
720.88
610.197
490.811
372.951
269.044
186.199
123.985
81.841
54.7867
37.4368
26.2738
19.0495
14.3451
11.17
9.22397
8.13224
7.56443
7.39409
7.61047
8.30772
9.86276
13.0073
19.9071
39.5076
123.373
631.592
3650.56
2.38479
2.8457
3.74662
5.78834
10.514
20.368
37.7205
64.6194
102.359
151.414
211.826
283.967
369.527
475.118
568.543
2.11258
1.93315
1.81154
1.7291
1.67324
1.63601
1.6122
1.59849
1.59189
1.58893
1.58848
1.59189
1.59707
1.6043
1.61256
1.62152
1.63189
1.64342
1.65619
1.67022
1.68554
1.70225
1.72045
1.74027
1.76189
1.78545
1.81123
1.8394
1.87028
659.464
753.131
849.047
932.543
979.635
970.117
902.145
791.34
659.231
519.588
389.998
281.695
195.239
130.183
86.023
57.6188
39.3704
27.6101
19.9864
15.0119
11.644
9.57287
8.40491
7.78833
7.58489
7.78225
8.48741
10.0385
13.1578
20.122
40.2098
127.741
659.85
3713.64
2.30441
2.71656
3.48933
5.19285
9.22218
17.9853
34.0297
59.579
96.0585
143.884
202.771
272.452
353.648
449.221
569.844
677.134
2.06218
1.90085
1.79085
1.71587
1.66488
1.63113
1.61021
1.59776
1.59142
1.58898
1.5885
1.59189
1.59727
1.60384
1.61158
1.62052
1.63086
1.6424
1.65516
1.66923
1.68458
1.70134
1.71961
1.7395
1.76122
1.7849
1.81083
1.83916
1.8702
783.801
896.505
1010.23
1100.64
1136.36
1099.67
999.16
859.602
699.677
543.989
408.638
295.548
205.165
137.009
90.6405
60.752
41.5119
29.0905
21.0245
15.7507
12.169
9.95931
8.70654
8.03566
7.79516
8.00448
8.71225
10.2294
13.3321
20.3697
41.0591
132.8
687.243
3775.49
2.23343
2.60096
3.27744
4.68519
8.05522
15.696
30.3575
54.4527
89.6177
136.297
193.963
261.809
339.668
429.127
534.856
674.509
799.861
2.01729
1.87198
1.77226
1.70392
1.65764
1.62781
1.6089
1.5971
1.59149
1.589
1.58855
1.59206
1.59698
1.60287
1.61062
1.61951
1.62981
1.64135
1.65411
1.66821
1.68359
1.70041
1.71875
1.73872
1.76055
1.78437
1.81045
1.83892
1.87012
928.857
1068.86
1203.32
1295.57
1309
1234.24
1094.77
916.157
733.941
570.584
428.959
310.682
216.04
144.512
95.7323
64.2147
43.8816
30.7295
22.1736
16.5682
12.7501
10.3868
9.04005
8.30841
8.07058
8.27816
8.9513
10.4358
13.5346
20.6618
42.0583
138.128
719.536
3832.43
2.17074
2.49782
3.09805
4.26256
7.04329
13.5516
26.7362
49.2498
82.9992
128.558
185.238
251.771
327.238
412.065
509.263
626.09
791.45
942.742
1.9773
1.84613
1.75548
1.69354
1.65251
1.62574
1.60795
1.59719
1.59152
1.58904
1.58894
1.59172
1.59619
1.60197
1.60965
1.6185
1.62873
1.64028
1.65304
1.66716
1.68259
1.69945
1.71787
1.73794
1.75991
1.78386
1.81007
1.83869
1.87004
1104.19
1282.58
1438.7
1523.34
1498.66
1371.56
1174.87
964.124
771.208
599.456
451.035
327.161
227.921
152.742
101.337
68.0357
46.5006
32.5419
23.4441
17.4718
13.3921
10.8591
9.40789
8.66517
8.41217
8.5658
9.20397
10.664
13.7578
21.0277
43.1497
144.626
750.991
3888.31
2.11534
2.40627
2.94308
3.91372
6.19327
11.6359
23.2346
43.9943
76.1765
120.576
176.441
242.105
315.979
397.542
488.312
593.348
723.403
924.894
1116.31
1.94159
1.82288
1.74086
1.68598
1.64938
1.6245
1.60807
1.59722
1.59155
1.58952
1.58897
1.59093
1.5955
1.6011
1.60866
1.61747
1.62763
1.63919
1.65195
1.66609
1.68156
1.69848
1.717
1.73718
1.75929
1.78336
1.80971
1.83847
1.86996
1326.29
1557.42
1735.67
1795.64
1705.9
1488.88
1243.06
1016.26
811.518
630.644
474.906
345.03
240.857
161.742
107.489
72.2432
49.3897
34.5427
24.8465
18.4686
14.1
11.3793
9.88875
9.1065
8.77122
8.86777
9.47427
10.9079
14.0269
21.4281
44.5157
151.366
786.862
3940.62
2.06619
2.32547
2.80688
3.62655
5.48863
9.98971
19.9899
38.7649
69.1394
112.266
167.417
232.591
305.574
385
471.277
567.501
681.576
828.772
1085.01
1337.6
1.9096
1.80264
1.72998
1.68148
1.64774
1.62467
1.60812
1.59726
1.5922
1.5897
1.58872
1.59031
1.59483
1.60026
1.60764
1.61644
1.62652
1.63807
1.65084
1.66499
1.68052
1.69751
1.71615
1.73645
1.75868
1.78287
1.80936
1.83825
1.86989
1628.24
1942.31
2134.64
2133.56
1887.16
1589.09
1317.13
1072.46
854.822
664.123
500.572
364.307
254.875
171.545
114.221
76.8627
52.5687
36.7464
26.391
19.5659
14.8782
12.0581
10.4817
9.5686
9.14731
9.18649
9.75939
11.1825
14.3181
21.9391
45.9741
159.566
823.297
3992.08
2.0224
2.25431
2.68571
3.39295
4.91001
8.60043
17.0867
33.7594
61.9504
103.55
158
222.998
295.721
374.015
457.307
547.445
649.636
775.763
948.079
1295.69
1648.31
1.88175
1.78733
1.72355
1.67935
1.64796
1.62473
1.60817
1.59816
1.59265
1.58967
1.58877
1.58978
1.59413
1.59944
1.60661
1.61539
1.62539
1.63693
1.64971
1.66387
1.6795
1.69658
1.71534
1.73574
1.75809
1.7824
1.80902
1.83804
1.86982
2127.19
2542.89
2745.38
2430.98
2040.78
1697.18
1396.51
1132.44
900.942
699.79
527.98
384.975
269.982
182.169
121.556
81.9158
56.0552
39.1662
28.0874
20.7697
15.8914
12.8918
11.0999
10.0505
9.54095
9.52117
10.067
11.4761
14.6696
22.5022
47.7894
168.346
862.644
4042.82
1.98435
2.1916
2.57743
3.20011
4.43731
7.4393
14.5317
29.1284
54.8512
94.4352
148.018
213.072
286.115
364.18
445.827
531.819
625.987
736.393
880.962
1095.35
1611.04
2212.62
1.86034
1.77846
1.72079
1.67966
1.64804
1.62478
1.60941
1.5991
1.59305
1.59004
1.58898
1.58936
1.5934
1.59865
1.60557
1.61432
1.62425
1.63575
1.64856
1.66277
1.6785
1.69567
1.71454
1.73505
1.75752
1.78195
1.80868
1.83783
1.86975
3005.61
3736.57
3242.12
2672.28
2201.66
1810.96
1480.17
1195.66
949.558
737.445
557.006
406.966
286.152
193.616
129.505
87.4173
59.8631
41.8138
29.9434
22.3332
17.1308
13.7574
11.7414
10.5518
9.95178
9.87563
10.3927
11.8077
15.0593
23.1915
49.8208
178.53
905.181
4092.53
1.95476
2.13763
2.48091
3.03645
4.05374
6.48059
12.329
24.9121
48.0571
85.1601
137.373
202.534
276.419
355.116
436.302
519.848
608.421
708.519
832.772
1009.51
1303.9
2210.77
3413.5
1.84798
1.77497
1.7212
1.67977
1.64809
1.62638
1.61099
1.60024
1.59401
1.5906
1.58925
1.58912
1.59265
1.59789
1.60453
1.61323
1.6231
1.63456
1.64744
1.6617
1.67754
1.69479
1.71377
1.73438
1.75696
1.7815
1.80836
1.83764
1.86971
5181.02
4479.08
3589.15
2903.95
2363.89
1927.77
1566.74
1261.35
1000.19