/*--------------------------------*- C++ -*----------------------------------*\
  =========                 |
  \\      /  F ield         | OpenFOAM: The Open Source CFD Toolbox
   \\    /   O peration     | Website:  https://openfoam.org
    \\  /    A nd           | Version:  8
     \\/     M anipulation  |
\*---------------------------------------------------------------------------*/
FoamFile
{
    version     2.0;
    format      ascii;
    class       volScalarField;
    location    "0.1";
    object      nut;
}
// * * * * * * * * * * * * * * * * * * * * * * * * * * * * * * * * * * * * * //

dimensions      [0 2 -1 0 0 0 0];

internalField   nonuniform List<scalar> 
15677
(
0.000168168
0.000652158
0.000148202
0.00151204
0.000443119
0.0001413
0.00267195
0.000878265
0.000381094
0.0001422
0.00391618
0.00152281
0.000687424
0.00035437
0.000145345
0.0050189
0.00236051
0.00114814
0.000586175
0.000340355
0.000151132
0.00583665
0.00332123
0.00178315
0.000948898
0.000529657
0.000332083
0.000156949
0.00633334
0.00430115
0.00257015
0.00146494
0.000821675
0.000492735
0.000327042
0.000162397
0.00656224
0.00518819
0.00345502
0.00213346
0.00125843
0.000737784
0.000467641
0.000324148
0.000167184
0.00665816
0.00589321
0.00435671
0.00292391
0.00184304
0.00111317
0.000677786
0.000450587
0.000322582
0.000171406
0.00670537
0.00633807
0.00518148
0.00378037
0.00255856
0.00163295
0.00100529
0.000634426
0.000438835
0.000322008
0.000174973
0.00671433
0.00655338
0.00584544
0.00462615
0.0033642
0.0022878
0.00147362
0.000924784
0.000602486
0.000430874
0.000321962
0.000178103
0.00670988
0.00666151
0.00629553
0.0053775
0.00419807
0.00304655
0.00207895
0.00134986
0.000862757
0.000578833
0.000425427
0.000322428
0.000180712
0.00670626
0.00669877
0.00652943
0.00596452
0.0049849
0.00385837
0.00279696
0.00191277
0.00125202
0.000814587
0.000561116
0.000421924
0.000323075
0.00018306
0.0067054
0.00670439
0.00664668
0.00635687
0.00565041
0.00465661
0.00358448
0.00259471
0.00177884
0.00117375
0.000776837
0.000547923
0.000419608
0.000323977
0.000185105
0.00670547
0.00670284
0.00668781
0.0065629
0.00614214
0.0053689
0.00438223
0.00335809
0.0024291
0.0016691
0.00111041
0.000747059
0.000537891
0.000418361
0.000324823
0.000186915
0.00670567
0.00670158
0.00669637
0.00665652
0.00644671
0.00593384
0.00512167
0.00414964
0.00316973
0.00229114
0.0015789
0.00105874
0.000723475
0.000530614
0.000417491
0.000325869
0.000188571
0.00670579
0.00670107
0.00669715
0.00668484
0.0066048
0.00632182
0.00573784
0.00490469
0.00395215
0.00301066
0.00217618
0.00150387
0.00101696
0.000705012
0.000524959
0.000417362
0.0003268
0.000189983
0.00670585
0.00670092
0.00669682
0.00669155
0.0066637
0.00654125
0.00618841
0.00555753
0.00471543
0.00378279
0.00287642
0.00207939
0.00144193
0.000982977
0.0006903
0.000521089
0.000417304
0.000327885
0.000191413
0.00670587
0.00670088
0.00669659
0.00669255
0.00668235
0.00663451
0.00646783
0.00605836
0.00539454
0.00454989
0.00363788
0.00276226
0.00199844
0.00139059
0.000955425
0.000678964
0.000518062
0.000417837
0.000328857
0.000192526
0.00670589
0.00670086
0.00669651
0.00669242
0.00668742
0.00666903
0.00659803
0.00638971
0.00593536
0.00524812
0.00440582
0.00351342
0.00266575
0.00193066
0.00134847
0.00093328
0.00067007
0.000516342
0.000418251
0.000329939
0.000193859
0.00670589
0.00670085
0.0066965
0.00669223
0.00668845
0.00668061
0.00665148
0.00655631
0.00631118
0.00582075
0.00511783
0.00428051
0.00340714
0.00258439
0.00187457
0.00131409
0.000915784
0.000663517
0.000514991
0.000419204
0.000330969
0.000194743
0.00670589
0.00670084
0.0066965
0.00669212
0.00668851
0.0066839
0.00667189
0.00663039
0.00651137
0.00623389
0.00571573
0.00500263
0.00417242
0.0033171
0.00251654
0.00182857
0.00128665
0.000902117
0.000658681
0.00051475
0.00041992
0.000332015
0.000196068
0.00670589
0.00670083
0.0066965
0.00669207
0.00668844
0.0066846
0.00667887
0.00666126
0.00660621
0.00646573
0.00616082
0.00562106
0.00490214
0.00408019
0.00324139
0.00246084
0.00179168
0.00126518
0.000892176
0.000655558
0.000514509
0.000421166
0.00033318
0.00019679
0.00670589
0.00670083
0.0066965
0.00669203
0.00668838
0.00668463
0.00668095
0.00667295
0.00664875
0.00658105
0.00641964
0.00609378
0.00553714
0.00481526
0.00400209
0.00317948
0.00241627
0.00176328
0.00124931
0.000884838
0.000653675
0.000515408
0.000422095
0.000334097
0.000198118
0.00670588
0.00670083
0.00669649
0.00669201
0.00668835
0.00668453
0.00668143
0.00667689
0.00666632
0.00663547
0.00655425
0.00637751
0.00603202
0.00546326
0.0047419
0.00393895
0.00312996
0.00238189
0.00174183
0.00123795
0.000880864
0.000653182
0.000515892
0.000423602
0.000335581
0.000198819
0.00670588
0.00670083
0.00669648
0.00669199
0.00668833
0.00668444
0.00668148
0.006678
0.00667296
0.00665925
0.00662103
0.00652981
0.00633608
0.00597792
0.00540223
0.00468236
0.00388707
0.00309141
0.00235665
0.00172864
0.00123237
0.000878803
0.000653683
0.000517853
0.000424638
0.000336369
5.33911e-05
0.00670587
0.00670084
0.00669647
0.00669198
0.00668832
0.00668438
0.00668143
0.00667819
0.0066752
0.00666881
0.00665185
0.00660789
0.00650476
0.00630324
0.005933
0.00534946
0.00463287
0.00385046
0.00306748
0.00234342
0.00172231
0.00122973
0.000879663
0.000655516
0.000519017
0.000427124
0.000283994
6.34628e-05
0.00670586
0.00670085
0.00669646
0.00669198
0.0066883
0.00668433
0.00668138
0.00667813
0.00667583
0.00667229
0.00666506
0.00664527
0.00659449
0.00648631
0.00626973
0.00589278
0.00531342
0.0046049
0.00382855
0.00305301
0.00233617
0.00172067
0.00123138
0.000882189
0.00065756
0.000521547
0.000420817
0.000219936
7.09695e-05
0.00670585
0.00670086
0.00669645
0.00669199
0.00668828
0.00668431
0.00668134
0.00667802
0.00667592
0.00667334
0.00667028
0.00666194
0.00663913
0.00658556
0.00646685
0.00624867
0.00587374
0.00529028
0.00458366
0.00381422
0.00304658
0.00233579
0.00172479
0.00123688
0.000886348
0.000660758
0.000522861
0.000401336
0.00017828
7.65398e-05
0.00670585
0.00670087
0.00669644
0.00669199
0.00668825
0.00668429
0.0066813
0.00667793
0.00667588
0.0066735
0.00667212
0.00666881
0.0066599
0.00663616
0.00657675
0.00645814
0.00624091
0.00585799
0.0052746
0.00457229
0.00381086
0.00305061
0.00234454
0.0017353
0.00124556
0.00089264
0.000664842
0.000521155
0.000368766
0.000152642
8.10941e-05
0.00670584
0.00670088
0.00669642
0.006692
0.00668823
0.00668428
0.00668126
0.00667786
0.00667581
0.00667341
0.00667263
0.00667131
0.00666895
0.00666035
0.00663442
0.00657784
0.00645744
0.00623547
0.00585041
0.00527106
0.00457659
0.00382225
0.00306621
0.00236159
0.00175079
0.00125801
0.000900626
0.000668691
0.000515715
0.000337643
0.000134174
8.4647e-05
0.00670583
0.00670088
0.00669641
0.00669201
0.00668821
0.00668428
0.00668121
0.00667781
0.00667574
0.00667328
0.00667269
0.00667198
0.00667257
0.00667113
0.0066629
0.00664201
0.00658198
0.00646199
0.00623791
0.00585841
0.00528494
0.0045959
0.00384594
0.00309183
0.00238607
0.00177152
0.00127339
0.00091007
0.000672585
0.000505095
0.000307589
0.000121083
8.72062e-05
0.00670583
0.00670089
0.0066964
0.00669202
0.00668818
0.00668429
0.00668117
0.00667778
0.00667566
0.00667315
0.00667263
0.00667201
0.00667377
0.00667549
0.00667614
0.00667452
0.00664972
0.0065928
0.00647421
0.00625677
0.00588243
0.00531349
0.00462929
0.00388188
0.00312735
0.00241791
0.00179679
0.00129212
0.00092086
0.000675116
0.000490515
0.000281565
0.000112478
8.91313e-05
0.00670582
0.0067009
0.00669639
0.00669203
0.00668816
0.0066843
0.00668113
0.00667777
0.00667559
0.00667305
0.00667253
0.00667186
0.00667407
0.0066769
0.00668193
0.00669004
0.00668451
0.00666495
0.0066142
0.00650141
0.00629019
0.00592157
0.00535774
0.00467691
0.00393008
0.00317259
0.00245681
0.00182685
0.00131327
0.000932777
0.000676639
0.000474401
0.00026187
0.00010662
9.06504e-05
0.00670091
0.00670582
0.00669638
0.00669204
0.00668814
0.00668431
0.00668108
0.00667776
0.00667551
0.00667298
0.00667242
0.00667167
0.00667406
0.00667719
0.0066841
0.006697
0.00670144
0.00670267
0.00669289
0.00664799
0.006543
0.00633899
0.00597747
0.00541782
0.00473902
0.00399056
0.0032275
0.00250267
0.00186109
0.00133757
0.000947405
0.000677536
0.000460344
0.00024676
0.000102482
9.19042e-05
0.00669638
0.00670093
0.00670583
0.00669205
0.00668812
0.00668432
0.00668104
0.00667777
0.00667544
0.00667293
0.00667231
0.0066715
0.00667396
0.00667709
0.0066848
0.00669971
0.00670924
0.00672149
0.00673509
0.0067315
0.0066961
0.00660038
0.0064058
0.00605079
0.00549492
0.00481609
0.00406329
0.00329182
0.0025552
0.00189969
0.00136691
0.000964913
0.000678425
0.000448365
0.000235104
9.9524e-05
9.29828e-05
0.00669206
0.00669639
0.00670097
0.00670583
0.00668811
0.00668433
0.00668101
0.00667778
0.00667536
0.00667291
0.00667219
0.00667136
0.00667383
0.00667687
0.00668495
0.00670063
0.00671248
0.00673049
0.0067569
0.00677727
0.00678478
0.00676027
0.0066763
0.0064914
0.0061433
0.00558959
0.00490782
0.00414816
0.00336542
0.0026142
0.00194739
0.00140231
0.000983935
0.000679674
0.00043865
0.000225888
9.73299e-05
9.39376e-05
0.00668809
0.0066921
0.00669643
0.00670101
0.00670583
0.00668434
0.00668097
0.00667779
0.00667529
0.0066729
0.00667207
0.00667126
0.0066737
0.00667663
0.00668491
0.00670085
0.00671371
0.00673449
0.0067679
0.00680165
0.00683458
0.00685441
0.0068435
0.00677137
0.00659775
0.0062551
0.00570249
0.00501526
0.00424504
0.0034478
0.00268668
0.00200646
0.00144027
0.00100388
0.000682513
0.00043074
0.000218592
9.57228e-05
9.48054e-05
0.00668435
0.00668812
0.00669218
0.00669647
0.00670105
0.00670584
0.00668094
0.0066778
0.00667522
0.00667291
0.00667194
0.0066712
0.00667355
0.0066764
0.00668481
0.00670082
0.00671416
0.00673625
0.0067732
0.00681453
0.00686208
0.00690814
0.00694289
0.00694595
0.00688808
0.00672439
0.00638715
0.00583374
0.0051377
0.00435348
0.00354911
0.00277586
0.00207064
0.00148084
0.0010257
0.000686248
0.000424586
0.000212621
9.44793e-05
9.56024e-05
0.00668092
0.00668441
0.00668818
0.00669226
0.00669651
0.00670109
0.00670584
0.00667781
0.00667516
0.00667292
0.00667182
0.00667117
0.0066734
0.00667621
0.0066847
0.0067007
0.00671429
0.00673708
0.0067759
0.00682145
0.00687805
0.00694021
0.00700357
0.00705332
0.00707103
0.0070249
0.00687232
0.00653879
0.00598179
0.00527621
0.00448706
0.00367311
0.00287306
0.00213968
0.00152329
0.00104795
0.000691224
0.000419791
0.000207675
9.35571e-05
9.63468e-05
0.00667782
0.00668094
0.00668452
0.00668825
0.00669234
0.00669655
0.00670113
0.00670585
0.0066751
0.00667294
0.0066717
0.00667117
0.00667323
0.00667607
0.0066846
0.00670056
0.00671431
0.00673753
0.00677747
0.00682539
0.00688743
0.00695971
0.00704106
0.00712162
0.00719007
0.00722196
0.00718653
0.00703928
0.0067085
0.0061467
0.00544471
0.00465255
0.00380951
0.00297729
0.00221285
0.00156831
0.00107027
0.000697554
0.00041622
0.000203543
9.2816e-05
9.70401e-05
0.00667506
0.00667789
0.00668101
0.00668463
0.00668832
0.00669242
0.0066966
0.00670116
0.00670586
0.00667296
0.00667159
0.0066712
0.00667304
0.00667599
0.00668451
0.00670041
0.00671428
0.00673781
0.00677849
0.00682802
0.00689348
0.00697222
0.0070658
0.00716594
0.00726758
0.00735298
0.00740116
0.00737527
0.0072297
0.00689491
0.00634524
0.00564963
0.00483192
0.00395562
0.00308782
0.00228962
0.00161527
0.00109344
0.000704772
0.000413734
0.000200053
9.22674e-05
9.76952e-05
0.00667298
0.00667505
0.00667803
0.00668108
0.00668474
0.00668839
0.0066925
0.00669665
0.0067012
0.00670587
0.00667148
0.00667124
0.00667285
0.00667596
0.0066844
0.00670027
0.00671424
0.00673801
0.00677925
0.00683003
0.00689794
0.00698108
0.00708337
0.00719742
0.00732125
0.00744204
0.00754676
0.00760786
0.00759112
0.00744588
0.00712191
0.00658362
0.00586853
0.00502123
0.00410947
0.00320354
0.00236943
0.00166376
0.00111725
0.000712732
0.000412186
0.000197105
9.18103e-05
9.8307e-05
0.00667139
0.00667305
0.00667509
0.00667816
0.00668117
0.00668486
0.00668847
0.00669258
0.0066967
0.00670124
0.00670588
0.00667128
0.00667264
0.006676
0.00668427
0.00670014
0.00671419
0.00673818
0.00677987
0.00683172
0.00690153
0.00698813
0.00709695
0.00722147
0.00736244
0.00750765
0.00765095
0.00777119
0.00784479
0.00783329
0.00771337
0.00740529
0.00683656
0.0060962
0.00521825
0.00426893
0.00332318
0.00245149
0.00171347
0.00114133
0.000720854
0.000411377
0.00019458
9.14784e-05
9.88877e-05
0.00667133
0.0066713
0.00667318
0.00667514
0.00667829
0.00668126
0.00668497
0.00668855
0.00669266
0.00669676
0.00670128
0.00670589
0.00667245
0.00667609
0.00668409
0.00670002
0.00671416
0.00673833
0.00678041
0.00683319
0.00690459
0.00699419
0.00710832
0.00724107
0.00739644
0.00756146
0.00773263
0.00789404
0.00803027
0.00811218
0.00813241
0.0080424
0.00771707
0.00711119
0.00633024
0.00541903
0.00443155
0.00344537
0.00253519
0.00176396
0.00116599
0.000729112
0.000411092
0.000192424
9.11914e-05
9.94286e-05
0.00667226
0.00667138
0.00667122
0.00667331
0.0066752
0.00667843
0.00668136
0.00668508
0.00668865
0.00669274
0.00669682
0.00670132
0.0067059
0.00667622
0.00668386
0.00669993
0.00671414
0.00673847
0.0067809
0.00683452
0.00690728
0.0069996
0.00711828
0.00725815
0.00742583
0.00760828
0.0078038
0.00799604
0.00817727
0.00832456
0.00844467
0.00850344
0.00840159
0.00804919
0.00740368
0.00657369
0.00562144
0.00459581
0.00356907
0.00261979
0.0018149
0.00119098
0.000737524
0.000411268
0.000190552
9.09912e-05
9.99432e-05
0.00667637
0.00667194
0.00667144
0.00667114
0.00667344
0.00667527
0.00667856
0.00668146
0.00668519
0.00668874
0.00669282
0.00669688
0.00670135
0.00670591
0.00668357
0.00669989
0.00671415
0.00673862
0.00678136
0.00683573
0.00690969
0.00700452
0.00712718
0.00727362
0.0074523
0.00764989
0.00786896
0.00808992
0.00830621
0.0085013
0.00869359
0.00886089
0.00891176
0.00878769
0.00839893
0.00770827
0.00682705
0.00582485
0.00476002
0.00369275
0.00270462
0.00186596
0.00121614
0.000745992
0.000411822
0.000188947
9.08111e-05
0.00010042
0.00668322
0.0066764
0.00667145
0.00667151
0.00667108
0.00667356
0.00667537
0.00667868
0.00668159
0.0066853
0.00668885
0.0066929
0.00669695
0.00670139
0.00670593
0.00669991
0.00671419
0.00673879
0.00678179
0.00683682
0.00691188
0.00700901
0.00713522
0.00728787
0.00747652
0.00768796
0.00792931
0.00817955
0.00843019
0.00866386
0.00891213
0.00916127
0.00932413
0.00935508
0.00919799
0.00876356
0.00802062
0.00708692
0.00602875
0.0049219
0.00381539
0.00278901
0.00191683
0.00124125
0.000754537
0.000412471
0.000187545
9.06945e-05
0.000100875
0.00670004
0.00668215
0.00667635
0.00667096
0.00667158
0.00667106
0.00667368
0.00667548
0.00667881
0.00668172
0.00668541
0.00668896
0.00669298
0.00669701
0.00670142
0.00670594
0.00671426
0.00673896
0.00678218
0.00683782
0.00691386
0.0070131
0.00714253
0.00730108
0.00749878
0.00772345
0.00798628
0.00826416
0.00855188
0.00882693
0.00912427
0.00944068
0.00968925
0.00983434
0.00983263
0.00963086
0.00914078
0.00833867
0.0073502
0.00623563
0.00508134
0.00393622
0.00287245
0.00196721
0.0012662
0.000763029
0.000413285
0.00018636
9.05846e-05
0.000101294
0.00671434
0.00669965
0.00668016
0.00667634
0.00667052
0.00667162
0.00667107
0.00667378
0.00667561
0.00667892
0.00668186
0.00668552
0.00668907
0.00669306
0.00669708
0.00670146
0.00670595
0.00673913
0.00678252
0.00683871
0.00691567
0.00701684
0.00714921
0.00731329
0.00751924
0.00775683
0.00804026
0.0083442
0.00866934
0.00899414
0.00934723
0.00972584
0.0100481
0.0102835
0.0103965
0.0103469
0.0100863
0.00952918
0.00866081
0.00761328
0.00644313
0.00523818
0.00405482
0.00295447
0.00201685
0.00129083
0.000771566
0.000414206
0.000185302
9.05225e-05
0.000101694
0.00673931
0.00671335
0.00669884
0.00667816
0.00667628
0.00667016
0.00667163
0.00667113
0.00667386
0.00667577
0.00667903
0.00668201
0.00668562
0.00668918
0.00669313
0.00669714
0.00670149
0.00670596
0.0067828
0.00683951
0.00691731
0.00702023
0.0071553
0.00732455
0.00753806
0.00778826
0.00809108
0.00842015
0.00878413
0.00916214
0.00958143
0.0100361
0.0104357
0.010757
0.0109634
0.0110228
0.0109033
0.0105657
0.00992809
0.00898568
0.00787511
0.00664947
0.00539157
0.0041703
0.00303458
0.00206551
0.00131504
0.000779987
0.00041517
0.000184409
9.04591e-05
0.000102061
0.00678305
0.0067376
0.00671117
0.00669801
0.00667653
0.00667608
0.00666993
0.00667157
0.00667125
0.00667392
0.00667594
0.00667914
0.00668217
0.00668573
0.00668929
0.00669321
0.0066972
0.00670152
0.00670598
0.00684021
0.00691881
0.00702332
0.00716088
0.0073349
0.00755538
0.00781776
0.00813855
0.00849256
0.00889712
0.00932917
0.00981499
0.0103743
0.010891
0.0113156
0.0116145
0.0117573
0.011727
0.0115073
0.0110703
0.010337
0.00931221
0.00813478
0.00685349
0.00554216
0.00428197
0.00311243
0.00211298
0.00133873
0.00078836
0.0004162
0.000183622
9.04331e-05
0.000102412
0.00684089
0.00678008
0.00673379
0.00670891
0.00669678
0.00667542
0.00667567
0.00666984
0.00667146
0.00667141
0.00667397
0.00667613
0.00667926
0.00668232
0.00668584
0.0066894
0.00669328
0.00669726
0.00670155
0.00670599
0.00692016
0.00702612
0.00716597
0.00734436
0.0075713
0.00784529
0.00818271
0.00856191
0.00900755
0.00949205
0.0100457
0.0107409
0.0114467
0.0120369
0.0124431
0.0126586
0.0126796
0.012513
0.0121591
0.0115992
0.0107547
0.00963933
0.00839148
0.00705367
0.00569051
0.00438992
0.0031878
0.00215911
0.00136182
0.000796491
0.000417229
0.000182897
9.0401e-05
0.000102693
0.00692145
0.006837
0.00677361
0.00673
0.00670667
0.00669502
0.00667479
0.00667505
0.00666989
0.0066713
0.00667161
0.00667402
0.00667633
0.00667937
0.00668247
0.00668595
0.0066895
0.00669335
0.00669731
0.00670159
0.006706
0.00702865
0.00717061
0.007353
0.00758594
0.00787082
0.00822372
0.00862827
0.00911375
0.00964859
0.0102796
0.0111541
0.0121122
0.0129605
0.0135338
0.0138207
0.0138715
0.0137119
0.0133677
0.0128506
0.012148
0.0111791
0.0099658
0.00864442
0.00724888
0.00583571
0.00449412
0.00326055
0.00220377
0.00138424
0.000804476
0.000418287
0.000182284
9.0396e-05
0.00010293
0.00703099
0.00691603
0.00682809
0.00676703
0.0067264
0.00670444
0.00669288
0.00667461
0.00667425
0.00667006
0.00667112
0.00667183
0.00667408
0.00667652
0.00667949
0.00668262
0.00668605
0.00668959
0.00669343
0.00669736
0.00670162
0.00670601
0.00717482
0.00736084
0.00759936
0.00789438
0.00826178
0.00869137
0.00921422
0.00979925
0.0105255
0.0116245
0.0128755
0.0140175
0.0148448
0.0152655
0.0153449
0.015178
0.0148056
0.0142624
0.0135664
0.0127091
0.0116068
0.0102901
0.00889276
0.00743875
0.00597709
0.00459453
0.00333056
0.00224687
0.00140592
0.000812265
0.000419366
0.000181796
9.03882e-05
0.000103184
0.0071787
0.00702365
0.00690313
0.0068193
0.00676067
0.00672303
0.00670226
0.00669018
0.00667476
0.00667333
0.00667029
0.00667093
0.00667205
0.00667415
0.0066767
0.00667961
0.00668275
0.00668616
0.00668968
0.0066935
0.00669742
0.00670165
0.00670602
0.00736794
0.00761161
0.007916
0.00829704
0.0087508
0.00930832
0.0099463
0.010789
0.0121421
0.013688
0.0151019
0.0161761
0.0168227
0.0170218
0.016871
0.0164831
0.015901
0.015162
0.0142874
0.0132728
0.0120335
0.0106103
0.00913566
0.00762296
0.00611417
0.0046911
0.00339778
0.00228833
0.00142685
0.000819784
0.00042028
0.000181416
9.03917e-05
0.000103461
0.00737439
0.00716878
0.00700531
0.00689027
0.00681081
0.00675464
0.00671987
0.00670074
0.00668714
0.00667511
0.00667239
0.00667054
0.00667078
0.00667225
0.00667425
0.00667687
0.00667974
0.00668288
0.00668627
0.00668977
0.00669357
0.00669746
0.00670168
0.00670602
0.00762276
0.00793575
0.00832963
0.00880622
0.00939624
0.0100921
0.0110684
0.0126817
0.0144873
0.0161125
0.0173733
0.0182203
0.018641
0.0186325
0.0182844
0.0177092
0.0169468
0.0160339
0.0149944
0.0138291
0.0124547
0.0109247
0.00937228
0.0078012
0.0062466
0.00478378
0.00346216
0.00232811
0.00144698
0.000826083
0.000421091
0.000181004
9.03933e-05
0.000103761
0.00763287
0.0073615
0.00714298
0.00698696
0.00687778
0.00680258
0.00674891
0.00671682
0.00669959
0.00668401
0.0066755
0.00667153
0.00667074
0.0066707
0.00667243
0.00667436
0.00667701
0.00667988
0.00668299
0.00668637
0.00668986
0.00669364
0.00669751
0.00670169
0.00670602
0.00795374
0.00835959
0.00885748
0.00947867
0.0102376
0.0113566
0.0132146
0.0152231
0.016985
0.0183572
0.0193367
0.0199432
0.0201742
0.0200127
0.0195228
0.0188099
0.0179086
0.0168538
0.0156718
0.0143689
0.0128659
0.0112311
0.00960184
0.00797319
0.00637413
0.00487256
0.00352372
0.00236619
0.00146374
0.000831507
0.000421998
0.000180601
9.04101e-05
0.00010409
0.00796988
0.00761614
0.00732583
0.00711714
0.00696906
0.00686563
0.00679455
0.00674335
0.00671398
0.00669858
0.00668102
0.00667577
0.00667084
0.00667086
0.00667069
0.00667256
0.0066745
0.00667715
0.00668002
0.00668311
0.00668648
0.00668994
0.0066937
0.00669754
0.00670169
0.00670602
0.00838705
0.00890462
0.00955638
0.0103824
0.0116437
0.0137171
0.0158669
0.017696
0.0191105
0.0201529
0.0208752
0.0212966
0.0213982
0.0211432
0.0205675
0.0197663
0.0187688
0.0176068
0.0163081
0.0148847
0.0132632
0.0115279
0.00982362
0.00813866
0.00649658
0.00495742
0.00358242
0.00239775
0.00147811
0.000837532
0.000423048
0.000180159
9.0423e-05
0.000104446
0.00841166
0.00794875
0.00756721
0.00729008
0.00709193
0.00695163
0.00685379
0.00678663
0.00673806
0.0067113
0.0066976
0.00667841
0.00667577
0.00667039
0.00667089
0.00667075
0.00667267
0.00667465
0.00667727
0.00668015
0.00668321
0.00668658
0.00669001
0.00669374
0.00669753
0.00670169
0.00670602
0.00894787
0.00962996
0.0105249
0.0119202
0.0141745
0.0164096
0.0182507
0.0196539
0.0207011
0.0214732
0.0220108
0.022312
0.0223397
0.0220406
0.0214255
0.0205784
0.0195226
0.0182861
0.0168966
0.0153714
0.0136435
0.0118136
0.010037
0.00829742
0.00661386
0.00503847
0.00363081
0.0024247
0.001494
0.000844246
0.000424223
0.000179735
9.04565e-05
0.000104837
0.00898645
0.00838478
0.00788256
0.00751819
0.00725511
0.00706733
0.00693462
0.0068422
0.00677879
0.00673319
0.00670866
0.00669649
0.00667662
0.00667542
0.00667018
0.00667083
0.00667087
0.00667276
0.00667481
0.00667739
0.00668029
0.00668331
0.00668668
0.00669005
0.00669374
0.00669753
0.00670169
0.00670602
0.00969978
0.0106628
0.012179
0.0145804
0.0168551
0.0186687
0.0200229
0.0210328
0.0218018
0.02239
0.0228122
0.0230464
0.0230424
0.0227357
0.0221161
0.0212564
0.0201736
0.0188908
0.0174345
0.0158259
0.0140043
0.0120869
0.0102414
0.00844932
0.00672584
0.0051059
0.00367199
0.00245442
0.00151162
0.000851734
0.000425591
0.000179265
9.04854e-05
0.000105259
0.00976361
0.0089529
0.00829526
0.00781615
0.0074702
0.00722095
0.00704332
0.00691802
0.00683087
0.00677098
0.00672859
0.00670597
0.00669465
0.00667568
0.0066748
0.00667014
0.00667072
0.00667101
0.00667283
0.00667497
0.0066775
0.00668043
0.00668341
0.00668674
0.00669005
0.00669374
0.00669753
0.00670169
0.00670602
0.0107944
0.0124197
0.0149346
0.017214
0.0189741
0.0202558
0.0211999
0.0219279
0.0225152
0.0229924
0.0233518
0.0235573
0.023551
0.023262
0.0226629
0.0218154
0.0207299
0.0194238
0.0179216
0.0162467
0.0143444
0.0123469
0.0104365
0.00859427
0.00681832
0.00516359
0.00371726
0.00248722
0.00153119
0.000860119
0.000427123
0.000178828
9.05432e-05
0.000105723
0.0109128
0.00972118
0.00883081
0.00820571
0.00775101
0.0074233
0.00718759
0.00701991
0.00690183
0.0068198
0.00676332
0.00672416
0.00670331
0.00669218
0.00667538
0.00667401
0.00667023
0.00667059
0.00667118
0.00667289
0.00667514
0.0066776
0.00668056
0.00668346
0.00668674
0.00669005
0.00669374
0.00669753
0.00670169
0.00670602
0.0126423
0.0152379
0.0174993
0.0191904
0.0203863
0.0212476
0.021909
0.0224583
0.0229392
0.0233581
0.0236912
0.0238939
0.0239051
0.0236509
0.0230893
0.0222716
0.0212015
0.0198905
0.0183598
0.0166338
0.014663
0.0125932
0.0106221
0.00871401
0.00689711
0.00522732
0.00376712
0.00252349
0.00155297
0.000869511
0.000428921
0.000178326
9.05954e-05
0.000106223
0.0108652
0.0128379
0.00954171
0.00871086
0.00811766
0.00768728
0.00737744
0.00715503
0.00699709
0.00688609
0.00680911
0.0067558
0.00672007
0.00670086
0.00668913
0.00667545
0.00667317
0.00667037
0.00667046
0.00667136
0.00667296
0.0066753
0.0066777
0.00668064
0.00668345
0.00668674
0.00669005
0.00669374
0.00669754
0.00670168
0.00670601
0.0154937
0.0177237
0.0193383
0.0204423
0.0212118
0.0217908
0.0222764
0.0227235
0.023151
0.0235474
0.0238786
0.0240957
0.0241378
0.0239294
0.0234166
0.0226409
0.0215993
0.0202972
0.018752
0.016988
0.0149599
0.0128254
0.0107749
0.00881603
0.00698378
0.00529779
0.00382212
0.00256367
0.00157725
0.000880084
0.000430939
0.000177867
9.06877e-05
0.000106773
0.0105923
0.0127861
0.0157048
0.00936984
0.00859374
0.00803131
0.00762496
0.00733264
0.00712329
0.00697492
0.00687086
0.00679896
0.00674863
0.00671645
0.00669938
0.00668598
0.00667567
0.00667237
0.00667052
0.00667035
0.00667153
0.00667302
0.00667546
0.00667774
0.00668065
0.00668345
0.00668674
0.00669005
0.00669374
0.00669751
0.00670165
0.006706
0.017899
0.0194347
0.0204455
0.0211198
0.0216077
0.0220131
0.0223995
0.0227974
0.0232072
0.0236049
0.0239503
0.0241937
0.0242757
0.0241204
0.0236635
0.0229375
0.0219334
0.0206505
0.0191018
0.017311
0.0152356
0.0130147
0.0109046
0.00892819
0.00707922
0.00537585
0.00388293
0.00260826
0.0016044
0.000891984
0.000433326
0.00017733
9.07739e-05
0.000107362
0.0103218
0.0124104
0.0156268
0.0180332
0.00920746
0.00847872
0.00794675
0.00756404
0.00728895
0.00709244
0.00695343
0.00685622
0.00678939
0.0067421
0.0067132
0.00669822
0.00668303
0.00667587
0.00667168
0.00667065
0.00667026
0.00667169
0.0066731
0.00667556
0.00667773
0.00668065
0.00668345
0.00668674
0.00669005
0.0066937
0.00669746
0.00670162
0.00670599
0.0194927
0.0204123
0.0209916
0.021385
0.0217003
0.0220078
0.0223478
0.0227324
0.0231482
0.0235629
0.0239336
0.0242117
0.0243399
0.0242423
0.0238454
0.0231739
0.022213
0.0209566
0.0194133
0.0176046
0.0154569
0.0131746
0.0110468
0.00905157
0.00718448
0.00546241
0.00395031
0.00265785
0.00163481
0.000905467
0.000436019
0.000176864
9.0916e-05
0.000108011
0.0100679
0.0119972
0.0152765
0.0179198
0.019516
0.00905193
0.00836554
0.00786411
0.00750458
0.00724645
0.00706252
0.00693271
0.00684228
0.00678048
0.00673612
0.00671036
0.00669718
0.00668045
0.00667594
0.00667113
0.00667075
0.00667021
0.00667185
0.00667311
0.00667558
0.00667772
0.00668065
0.00668345
0.00668674
0.00669001
0.00669363
0.00669741
0.00670158
0.00670597
0.0203549
0.0208419
0.0211405
0.0213612
0.021578
0.0218398
0.0221694
0.0225649
0.0230027
0.023445
0.0238489
0.024168
0.0243473
0.0243102
0.0239755
0.0233607
0.0224467
0.0212218
0.0196901
0.0178355
0.015642
0.0133485
0.0112025
0.00918741
0.00730072
0.00555854
0.00402514
0.00271313
0.00166899
0.00092073
0.000439231
0.000176308
9.10533e-05
0.0001087
0.00983118
0.0115845
0.0148359
0.0176801
0.0193503
0.0202729
0.00890103
0.00825439
0.0077835
0.00744668
0.00720523
0.00703362
0.00691292
0.00682934
0.00677223
0.0067308
0.00670779
0.00669617
0.00667842
0.00667583
0.00667072
0.00667081
0.0066702
0.00667195
0.00667308
0.00667559
0.00667772
0.00668065
0.00668346
0.00668668
0.00668993
0.00669357
0.00669736
0.00670155
0.00670596
0.020681
0.0208873
0.0210121
0.0211319
0.0213016
0.0215535
0.0218976
0.0223205
0.0227906
0.0232681
0.0237115
0.0240772
0.0243112
0.0243364
0.0240644
0.0235071
0.0226415
0.0214513
0.0199028
0.0180263
0.0158409
0.0135373
0.011373
0.00933702
0.00742923
0.00566547
0.00410845
0.00277494
0.00170748
0.000938148
0.000442881
0.000175863
9.12691e-05
0.00010946
0.00960898
0.0111888
0.0143395
0.0173627
0.0191859
0.0200544
0.0205044
0.00875378
0.0081456
0.00770509
0.00739047
0.0071654
0.007006
0.00689455
0.00681749
0.00676459
0.00672615
0.00670536
0.00669497
0.00667713
0.00667552
0.00667045
0.00667085
0.00667016
0.00667197
0.00667306
0.00667559
0.00667773
0.00668064
0.00668341
0.00668658
0.00668985
0.0066935
0.00669731
0.00670152
0.00670595
0.0206342
0.0206647
0.0206848
0.0207539
0.0209118
0.0211796
0.0215555
0.0220165
0.0225262
0.0230447
0.0235335
0.0239507
0.0242425
0.0243306
0.0241207
0.0236205
0.0228037
0.0216227
0.0200765
0.0182283
0.0160541
0.0137421
0.0115596
0.00950185
0.00757149
0.00578457
0.00420143
0.00284419
0.00175103
0.000958008
0.000447274
0.000175319
9.14855e-05
0.000110258
0.00939866
0.0108163
0.0138117
0.01699
0.0189567
0.0199242
0.0202338
0.0203711
0.00860999
0.00803947
0.00762906
0.00733611
0.00712732
0.00698035
0.00687781
0.00680664
0.00675749
0.00672207
0.00670304
0.00669312
0.0066764
0.00667509
0.00667028
0.00667086
0.00667013
0.00667199
0.00667306
0.00667558
0.00667774
0.00668056
0.00668331
0.00668648
0.00668977
0.00669342
0.00669725
0.00670149
0.00670594
0.0203268
0.0202475
0.0202119
0.020265
0.0204374
0.0207396
0.0211589
0.0216652
0.0222196
0.0227846
0.0233244
0.0237976
0.0241494
0.0243005
0.0241516
0.0237071
0.0229193
0.0217607
0.0202576
0.0184416
0.0162821
0.0139638
0.0117636
0.00968346
0.00772911
0.00591741
0.0043055
0.0029221
0.00180038
0.000980865
0.000452317
0.000174947
9.18114e-05
0.00011129
0.00919829
0.0104696
0.0132647
0.0165701
0.0186875
0.019742
0.0201091
0.0200484
0.0199836
0.00846986
0.00793638
0.00755562
0.00728411
0.00709199
0.00695701
0.00686254
0.00679671
0.00675088
0.00671843
0.00670097
0.00669083
0.00667602
0.00667461
0.00667023
0.00667084
0.00667012
0.00667199
0.00667308
0.00667556
0.0066777
0.00668043
0.00668321
0.00668637
0.00668968
0.00669335
0.0066972
0.00670146
0.00670593
0.0198274
0.0196866
0.0196286
0.0196922
0.0198991
0.0202478
0.0207182
0.0212746
0.0218782
0.0224953
0.0230918
0.0236253
0.024039
0.0242523
0.0241627
0.0237616
0.0230106
0.0219017
0.0204454
0.0186657
0.0165252
0.0142033
0.0119863
0.00988346
0.00790388
0.00606578
0.00442221
0.00300989
0.00185665
0.00100716
0.000458445
0.000174474
9.22216e-05
0.000112526
0.00900653
0.0101498
0.0127063
0.0161042
0.0183894
0.0195343
0.019941
0.0199118
0.0196091
0.019414
0.00833356
0.00783678
0.00748543
0.00723587
0.00705988
0.00693577
0.00684862
0.0067877
0.00674472
0.0067153
0.00669946
0.00668841
0.00667584
0.00667423
0.00667027
0.00667083
0.00667012
0.00667197
0.00667311
0.00667546
0.0066776
0.00668029
0.0066831
0.00668626
0.00668959
0.00669328
0.00669714
0.00670142
0.00670591
0.0191852
0.0190141
0.0189603
0.0190562
0.0193097
0.0197139
0.0202404
0.02085
0.0215074
0.0221831
0.0228424
0.0234399
0.0239164
0.0241911
0.0241568
0.0238024
0.0231007
0.0220446
0.020639
0.0189001
0.0167831
0.014461
0.012229
0.0101035
0.00809771
0.00623164
0.0045536
0.00310944
0.0019209
0.00103773
0.000465573
0.000174259
9.28591e-05
0.000113759