/*--------------------------------*- C++ -*----------------------------------*\
  =========                 |
  \\      /  F ield         | OpenFOAM: The Open Source CFD Toolbox
   \\    /   O peration     | Website:  https://openfoam.org
    \\  /    A nd           | Version:  8
     \\/     M anipulation  |
\*---------------------------------------------------------------------------*/
FoamFile
{
    version     2.0;
    format      ascii;
    class       volScalarField;
    location    "0.13";
    object      epsilon;
}
// * * * * * * * * * * * * * * * * * * * * * * * * * * * * * * * * * * * * * //

dimensions      [0 2 -3 0 0 0 0];

internalField   nonuniform List<scalar> 
15677
(
59.7004
18.3535
52.6124
8.0876
25.8893
50.1625
4.62719
13.2622
31.5749
50.4824
3.17782
7.72281
17.0791
37.2638
51.5982
2.48948
5.0425
10.0237
20.807
42.6359
53.6553
2.1457
3.62252
6.46059
12.1583
24.5348
47.6495
55.7184
1.97986
2.8208
4.52369
7.72168
14.2704
28.2449
52.0081
57.6559
1.91169
2.35295
3.40103
5.30841
8.91242
16.4179
31.7455
55.6906
59.3537
1.88417
2.08027
2.72284
3.90794
6.01944
10.1018
18.5284
34.9443
58.7089
60.8559
1.87055
1.9394
2.30691
3.05468
4.35637
6.70451
11.2689
20.5608
37.7645
61.1849
62.1218
1.86765
1.87831
2.05637
2.5206
3.34699
4.77449
7.36053
12.4129
22.4522
40.2277
63.1774
63.2356
1.86863
1.84884
1.91654
2.1858
2.71186
3.61392
5.16375
7.99804
13.5008
24.1971
42.3244
64.8033
64.1634
1.86954
1.83869
1.85192
1.98252
2.30651
2.88556
3.85714
5.53406
8.60263
14.5322
25.761
44.115
66.1076
64.9955
1.86978
1.83697
1.82112
1.86771
2.0512
2.41765
3.0422
4.08347
5.88018
9.17788
15.4829
27.1613
45.6105
67.167
65.7208
1.86978
1.83723
1.81049
1.81332
1.89811
2.11721
2.51825
3.18568
4.29157
6.20605
9.71111
16.3589
28.3829
46.8673
68.0309
66.3627
1.86974
1.8375
1.8082
1.78976
1.81538
1.93019
2.17847
2.60991
3.31594
4.48436
6.50609
10.2059
17.1434
29.4467
47.9125
68.7334
66.9509
1.86972
1.8376
1.8079
1.78273
1.77569
1.82144
1.96222
2.23487
2.69266
3.43481
4.65996
6.78246
10.6529
17.8446
30.3535
48.7682
69.336
67.451
1.86971
1.83761
1.80792
1.78101
1.76145
1.7661
1.83167
1.99293
2.28605
2.76746
3.54197
4.81965
7.03124
11.0559
18.4542
31.1172
49.4768
69.8128
67.9582
1.8697
1.83761
1.80794
1.78068
1.75697
1.74389
1.76035
1.84304
2.02144
2.33227
2.83442
3.6382
4.96217
7.25415
11.4088
18.9794
31.7506
50.031
70.2628
68.3525
1.8697
1.83759
1.80794
1.78064
1.7557
1.73586
1.72948
1.75735
1.85443
2.04756
2.37362
2.89401
3.72336
5.08827
7.44885
11.7147
19.4185
32.2591
50.494
70.5969
68.8233
1.8697
1.83758
1.80793
1.78062
1.75539
1.73315
1.71726
1.71796
1.7558
1.86556
2.07117
2.41031
2.94645
3.79785
5.19765
7.61627
11.9712
19.7782
32.6652
50.8296
70.9692
69.1361
1.8697
1.83758
1.80792
1.7806
1.75531
1.7323
1.71266
1.70126
1.7084
1.75569
1.87602
2.09226
2.44258
2.99204
3.86206
5.29055
7.7565
12.1813
20.0622
32.9679
51.1168
71.2183
69.6025
1.8697
1.83757
1.80791
1.78057
1.75528
1.73205
1.71105
1.69443
1.68719
1.70079
1.756
1.88562
2.11097
2.47069
3.03129
3.91628
5.36806
7.86979
12.3464
20.2763
33.1927
51.3059
71.5695
69.8558
1.86971
1.83757
1.8079
1.78055
1.75525
1.73195
1.71051
1.69181
1.67796
1.67523
1.69446
1.75675
1.89447
2.12754
2.4951
3.0646
3.96146
5.42999
7.95912
12.4695
20.4303
33.3409
51.4672
71.7729
70.3227
1.86971
1.83756
1.80789
1.78053
1.75522
1.73188
1.71032
1.69083
1.67418
1.66357
1.66473
1.68943
1.75813
1.9027
2.14227
2.51623
3.09275
3.99814
5.47925
8.02421
12.5561
20.5241
33.429
51.5811
72.1663
70.5667
1.86971
1.83756
1.80789
1.78052
1.7552
1.73183
1.71022
1.69045
1.6727
1.6585
1.65063
1.65614
1.68558
1.75995
1.91054
2.15566
2.53484
3.1166
4.02785
5.5152
8.07044
12.6066
20.5806
33.472
51.6531
72.4612
429.278
1.86971
1.83756
1.80789
1.7805
1.75518
1.73179
1.71016
1.69027
1.67212
1.65636
1.64426
1.63981
1.64872
1.68294
1.7626
1.91851
2.1683
2.55159
3.13689
4.05122
5.54191
8.09688
12.6326
20.5808
33.4659
51.7735
88.7963
717.348
1.86971
1.83756
1.80788
1.7805
1.75516
1.73176
1.7101
1.69016
1.67185
1.65545
1.6415
1.63209
1.63023
1.64364
1.68225
1.76647
1.927
2.18088
2.56739
3.1551
4.07056
5.55978
8.11245
12.629
20.567
33.4677
52.6923
122.131
998.164
1.86971
1.83755
1.80788
1.78049
1.75515
1.73173
1.71006
1.69007
1.6717
1.65502
1.64031
1.62855
1.62136
1.62334
1.63957
1.68329
1.77189
1.93684
2.19428
2.58351
3.17239
4.08706
5.57241
8.1121
12.6164
20.5361
33.4913
55.2432
157.7
1246.58
1.86971
1.83755
1.80788
1.78048
1.75514
1.73171
1.71002
1.69001
1.67158
1.65479
1.63974
1.62692
1.61724
1.61318
1.61767
1.63963
1.68633
1.77963
1.94873
2.20956
2.60076
3.19006
4.1022
5.58053
8.10876
12.5911
20.4968
33.5885
59.8074
190.319
1475.54
1.86971
1.83755
1.80788
1.78047
1.75513
1.73169
1.70999
1.68996
1.67149
1.65463
1.63943
1.62613
1.61532
1.60824
1.60679
1.61608
1.64145
1.69245
1.79043
1.96369
2.22751
2.62049
3.2092
4.11788
5.58743
8.1015
12.5616
20.4518
33.8387
64.5241
221.27
1669.86
1.86971
1.83755
1.80788
1.78047
1.75512
1.73167
1.70996
1.68991
1.67142
1.65451
1.63922
1.62571
1.61437
1.60586
1.60148
1.60393
1.61748
1.64626
1.70259
1.80531
1.98257
2.24947
2.64366
3.23156
4.13545
5.59555
8.09367
12.5298
20.4017
34.3035
69.3205
248.503
1817.64
1.86971
1.83755
1.80788
1.78047
1.75512
1.73166
1.70994
1.68987
1.67135
1.65442
1.63906
1.62544
1.61384
1.60466
1.5989
1.59787
1.6051
1.62183
1.65572
1.71759
1.82515
2.00665
2.27631
2.6718
3.25799
4.15696
5.60683
8.0876
12.4967
20.356
34.859
73.6731
269.67
1932.43
1.86971
1.83755
1.80788
1.78046
1.75511
1.73164
1.70992
1.68984
1.6713
1.65433
1.63892
1.62523
1.61349
1.60401
1.59756
1.59488
1.59893
1.60926
1.63078
1.67096
1.73839
1.85124
2.0368
2.30945
2.7056
3.29023
4.1835
5.62289
8.08492
12.4623
20.3188
35.3957
77.0446
286.415
2024.71
1.83755
1.86975
1.80788
1.78046
1.75511
1.73163
1.70991
1.68981
1.67126
1.65426
1.63881
1.62507
1.61323
1.6036
1.59681
1.59336
1.5959
1.60303
1.61803
1.64631
1.69265
1.76629
1.88446
2.07441
2.34957
2.74664
3.32892
4.21644
5.6441
8.08599
12.425
20.2772
35.8026
79.6308
300.002
2101.77
1.80788
1.83765
1.86982
1.78046
1.75511
1.73162
1.70989
1.68978
1.67122
1.6542
1.63871
1.62494
1.61301
1.6033
1.59633
1.59254
1.59438
1.60004
1.61183
1.634
1.66888
1.7221
1.80227
1.92632
2.12025
2.39816
2.79527
3.37532
4.2559
5.67113
8.09052
12.3854
20.2272
36.0839
81.6085
311.474
2168.59
1.78045
1.80804
1.83785
1.86989
1.7551
1.73161
1.70988
1.68976
1.67119
1.65414
1.63863
1.62482
1.61283
1.60306
1.59596
1.59204
1.59359
1.59862
1.60902
1.62832
1.65749
1.69994
1.76054
1.84776
1.97745
2.17553
2.45544
2.85289
3.4294
4.30237
5.70772
8.10107
12.3498
20.1654
36.2556
83.1635
321.435
2228.17
1.7551
1.78066
1.80835
1.83805
1.86997
1.73161
1.70988
1.68973
1.67116
1.65409
1.63856
1.62472
1.61267
1.60287
1.59567
1.59169
1.59313
1.59796
1.60787
1.62605
1.65277
1.69017
1.74085
1.80963
1.90387
2.03948
2.24071
2.52298
2.91914
3.49157
4.36181
5.75668
8.11954
12.3176
20.0945
36.351
84.4081
330.404
2282.67
1.7316
1.75536
1.78108
1.80868
1.83826
1.87004
1.70987
1.68972
1.67114
1.65405
1.63851
1.62463
1.61254
1.6027
1.59542
1.59142
1.59282
1.59762
1.6075
1.62548
1.65156
1.68724
1.7337
1.79361
1.87067
1.97241
2.11303
2.31706
2.59985
2.99473
3.56964
4.43759
5.81418
8.14441
12.2898
20.0169
36.3826
85.448
338.587
2333.11
1.70986
1.73189
1.75587
1.78151
1.80902
1.83848
1.87012
1.6897
1.67112
1.65401
1.63846
1.62454
1.61243
1.60255
1.5952
1.59119
1.59258
1.59742
1.60743
1.62566
1.65195
1.68753
1.73298
1.79
1.85988
1.946
2.0544
2.19977
2.40467
2.68735
3.08868
3.66731
4.52303
5.8795
8.17529
12.2663
19.9374
36.3749
86.3379
346.255
2380.52
1.68969
1.71019
1.73249
1.7564
1.78196
1.80936
1.8387
1.8702
1.67111
1.65397
1.63842
1.62447
1.61234
1.60243
1.59502
1.59101
1.59239
1.5973
1.6075
1.62615
1.65314
1.68963
1.73573
1.79264
1.86044
1.94124
2.03658
2.15208
2.30003
2.50505
2.79529
3.20513
3.77578
4.61669
5.95105
8.2114
12.2482
19.8579
36.3532
87.1319
353.426
2425.06
1.67109
1.69004
1.71086
1.7331
1.75695
1.78242
1.80972
1.83893
1.87029
1.65394
1.63839
1.6244
1.61226
1.60231
1.59487
1.59085
1.59224
1.59721
1.60762
1.62673
1.65457
1.69253
1.74039
1.7991
1.86806
1.94812
2.03899
2.14383
2.26575
2.41566
2.63003
2.93091
3.33321
3.89249
4.71718
6.02776
8.25228
12.2344
19.7828
36.3124
87.8457
360.271
2467.39
1.65392
1.67147
1.69077
1.71156
1.73374
1.75751
1.78289
1.81008
1.83917
1.87037
1.63836
1.62434
1.6122
1.6022
1.59474
1.59072
1.59212
1.59716
1.60776
1.62731
1.65602
1.69557
1.74583
1.80768
1.87976
1.96267
2.05454
2.15644
2.26823
2.39606
2.56168
2.78883
3.0817
3.4721
4.01643
4.82301
6.10856
8.29685
12.2258
19.7122
36.2654
88.514
366.726
2507.26
1.63833
1.6543
1.67227
1.69153
1.71227
1.73439
1.75809
1.78337
1.81045
1.83941
1.87046
1.62429
1.61215
1.60211
1.59463
1.59061
1.59201
1.59712
1.60791
1.62788
1.65744
1.69852
1.7513
1.81713
1.89393
1.98188
2.07844
2.1835
2.29427
2.41315
2.55898
2.74493
2.96685
3.24651
3.6209
4.14697
4.93281
6.19236
8.34459
12.2208
19.6479
36.2182
89.1346
372.935
2545.31
1.62424
1.63874
1.65512
1.67308
1.6923
1.713
1.73506
1.75868
1.78387
1.81083
1.83966
1.87055
1.6121
1.60201
1.59454
1.59051
1.59192
1.5971
1.60805
1.62841
1.65878
1.70132
1.75655
1.82647
1.90911
2.00422
2.10792
2.22019
2.33618
2.4563
2.59692
2.76706
2.94888
3.16203
3.42478
3.77811
4.28225
5.04544
6.27808
8.39439
12.2212
19.5901
36.1735
89.7315
378.79
2581.03
1.61207
1.62462
1.63959
1.65597
1.67392
1.69311
1.71376
1.73574
1.75929
1.78438
1.81123
1.83991
1.87064
1.60193
1.59447
1.59042
1.59185
1.59708
1.6082
1.62891
1.66003
1.70392
1.76152
1.83542
1.92403
2.02803
2.14164
2.26403
2.38964
2.51775
2.66372
2.83437
3.00287
3.17266
3.36988
3.61375
3.94192
4.42142
5.15968
6.36481
8.44584
12.2237
19.5385
36.1344
90.2945
384.439
2615.17
1.60185
1.61245
1.62544
1.64047
1.65684
1.67478
1.69393
1.71453
1.73645
1.75991
1.7849
1.81163
1.84017
1.87073
1.59442
1.59033
1.59178
1.59706
1.60833
1.62937
1.6612
1.70633
1.76619
1.84386
1.93834
2.05158
2.17754
2.314
2.4527
2.5939
2.7527
2.93543
3.10682
3.2657
3.41586
3.5892
3.81161
4.11182
4.5631
5.27468
6.45169
8.49814
12.229
19.4931
36.1009
90.843
389.745
2647.04
1.59439
1.60214
1.61326
1.62628
1.64137
1.65774
1.67567
1.69478
1.71533
1.73718
1.76055
1.78544
1.81204
1.84043
1.87082
1.59024
1.59171
1.59705
1.60846
1.6298
1.66227
1.70855
1.77053
1.85175
1.95196
2.07437
2.21318
2.36766
2.5249
2.68366
2.86151
3.06549
3.252
3.41483
3.55469
3.67667
3.81815
4.01327
4.28537
4.70598
5.38921
6.53795
8.55066
12.2376
19.4535
36.0744
91.3629
394.871
2677.54
1.59016
1.59466
1.60278
1.61409
1.62717
1.64231
1.65867
1.67658
1.69566
1.71614
1.73793
1.76121
1.78599
1.81245
1.84068
1.8709
1.59164
1.59704
1.60857
1.63019
1.66325
1.71058
1.77456
1.85908
1.96483
2.09616
2.24787
2.42174
2.60331
2.78745
2.99046
3.22459
3.4368
3.61625
3.75891
3.86883
3.95305
4.05579
4.21744
4.46023
4.8484
5.5026
6.62297
8.603
12.2483
19.4193
36.0538
91.8717
399.657
2705.83
1.59161
1.59017
1.59524
1.60343
1.61496
1.62809
1.64327
1.65964
1.67752
1.69656
1.71698
1.7387
1.76188
1.78654
1.81285
1.84093
1.87098
1.59701
1.60868
1.63055
1.66415
1.71244
1.77826
1.86586
1.97692
2.11679
2.28133
2.47523
2.68318
2.90182
3.14188
3.41634
3.66563
3.87372
4.03175
4.13987
4.20698
4.24295
4.29988
4.42278
4.63539
4.99014
5.61426
6.70625
8.65474
12.2607
19.3899
36.0395
92.3534
404.292
2732.94
1.59704
1.59148
1.59018
1.59582
1.60415
1.61587
1.62905
1.64426
1.66064
1.67848
1.69749
1.71785
1.73949
1.76254
1.78707
1.81323
1.84117
1.87106
1.60876
1.63087
1.66496
1.71414
1.78166
1.87211
1.98822
2.13617
2.31343
2.52755
2.76272
3.02044
3.31269
3.6476
3.94854
4.20006
4.38665
4.50397
4.55912
4.56816
4.54445
4.54837
4.62772
4.80775
5.13015
5.72356
6.78738
8.70553
12.2743
19.365
36.0304
92.8249
408.584
2757.93
1.60891
1.59669
1.59116
1.59016
1.59646
1.60492
1.6168
1.63006
1.64528
1.66167
1.67947
1.69845
1.71873
1.74027
1.76319
1.78759
1.81361
1.8414
1.87114
1.63114
1.66569
1.71569
1.78477
1.87785
1.99871
2.15428
2.34406
2.57813
2.84106
3.14149
3.49473
3.91691
4.30209
4.6193
4.85322
4.9919
5.04081
5.0189
4.95169
4.85579
4.79945
4.83156
4.97602
5.26722
5.82992
6.86603
8.75508
12.289
19.344
36.0263
93.2699
412.757
2781.9
1.63149
1.60822
1.59575
1.59079
1.59026
1.59713
1.60576
1.61775
1.63111
1.64633
1.66273
1.68049
1.69943
1.7196
1.74103
1.76382
1.78809
1.81397
1.84162
1.87122
1.66632
1.71708
1.7876
1.88313
2.00842
2.17114
2.37313
2.62654
2.91774
3.2642
3.68463
4.21246
4.73264
5.1717
5.48496
5.66414
5.71141
5.65199
5.5219
5.35701
5.17536
5.05151
5.03322
5.13971
5.40053
5.93289
6.94192
8.80319
12.3044
19.3265
36.0272
93.7046
416.594
2801.17
1.66703
1.6302
1.60627
1.59471
1.59053
1.59053
1.59779
1.60667
1.61874
1.6322
1.64741
1.66383
1.68154
1.7004
1.72046
1.74177
1.76444
1.78858
1.81433
1.84184
1.87129
1.71832
1.79016
1.88796
2.01738
2.18681
2.40056
2.67252
2.99252
3.38741
3.87942
4.53048
5.23212
5.88953
6.36938
6.6244
6.67908
6.56802
6.34647
6.07012
5.7833
5.50161
5.30318
5.23156
5.29839
5.52944
6.03209
7.01488
8.84967
12.3202
19.312
36.0301
94.1131
419.838
2817.42
1.71962
1.66507
1.62655
1.60418
1.59381
1.59026
1.59098
1.59845
1.60765
1.61975
1.63333
1.64853
1.66495
1.68258
1.70134
1.72129
1.74248
1.76503
1.78905
1.81467
1.84205
1.87136
1.79246
1.89236
2.02562
2.20135
2.42632
2.71597
3.06524
3.5096
4.07646
4.87095
5.80523
6.77509
7.58006
8.02814
8.11522
7.93715
7.57827
7.1293
6.66372
6.22913
5.83293
5.5532
5.42569
5.45168
5.65356
6.12731
7.08475
8.89439
12.3362
19.3003
36.0359
94.4583
422.518
2834.97
1.79475
1.71679
1.65921
1.62269
1.60231
1.593
1.58995
1.59157
1.59914
1.60868
1.62081
1.63451
1.64967
1.66607
1.68359
1.70226
1.7221
1.74318
1.76562
1.78951
1.81501
1.84225
1.87143
1.89639
2.03316
2.21483
2.45042
2.75695
3.13566
3.62922
4.27446
5.23541
6.45711
7.83473
9.11521
9.99147
10.2554
10.0095
9.45889
8.74737
7.99975
7.30033
6.69218
6.16761
5.80046
5.61485
5.59929
5.77259
6.2183
7.15145
8.93726
12.3522
19.2906
36.0439
94.7461
425.453
2854.15
1.90024
1.79086
1.70777
1.65308
1.61919
1.60061
1.59226
1.58968
1.59226
1.59986
1.60977
1.62191
1.63571
1.65082
1.66716
1.68458
1.70315
1.72288
1.74386
1.76618
1.78996
1.81533
1.84245
1.87147
2.0401
2.22729
2.47289
2.79557
3.20351
3.74516
4.47354
5.62496
7.18652
9.06366
10.9655
12.4905
13.2622
13.1154
12.3274
11.2439
10.0687
8.95112
7.97504
7.16933
6.5038
6.04391
5.79848
5.74104
5.88646
6.3052
7.215
8.97825
12.3681
19.2841
36.051
95.069
428.629
2874.99
2.04654
1.895
1.77735
1.69842
1.64745
1.61592
1.59903
1.59159
1.58949
1.59302
1.60065
1.6109
1.62305
1.6369
1.65194
1.66821
1.68555
1.70402
1.72365
1.74452
1.76673
1.79039
1.81565
1.84255
1.87147
2.23888
2.49381
2.83194
3.26848
3.85683
4.67466
6.03888
7.98586
10.4441
13.1067
15.4966
17.0883
17.4851
16.6352
15.0625
13.2754
11.5263
9.97208
8.68097
7.65676
6.83958
6.2826
5.97612
5.87676
5.99471
6.38814
7.27543
9.0173
12.3818
19.2789
36.0611
95.4182
432.134
2897.87
2.24939
2.03972
1.8751
1.76352
1.68978
1.64212
1.61284
1.59756
1.59101
1.58939
1.59383
1.60151
1.61205
1.62422
1.63806
1.65305
1.66924
1.68649
1.70487
1.7244
1.74516
1.76726
1.79081
1.8158
1.84255
1.87147
2.51338
2.86617
3.33035
3.9642
4.87889
6.47444
8.84359
11.9514
15.4998
18.9656
21.6917
23.0595
22.7178
20.8138
18.1899
15.5257
13.0985
11.0486
9.41006
8.15029
7.173
6.5157
6.14742
6.00651
6.0971
6.46702
7.33275
9.04955
12.3936
19.2745
36.0726
95.8145
435.924
2922.75
2.53069
2.24047
2.01074
1.85498
1.75068
1.68155
1.63702
1.60994
1.5962
1.59052
1.5894
1.59467
1.60245
1.6132
1.62537
1.63919
1.65412
1.67024
1.68741
1.70569
1.72512
1.74578
1.76778
1.79102
1.8158
1.84255
1.87147
2.89855
3.3891
4.0677
5.08689
6.92729
9.74641
13.5583
18.0986
22.8317
27.0044
29.7868
30.5184
28.9838
25.6266
21.6718
17.961
14.7612
12.1655
10.1538
8.64565
7.50219
6.74244
6.3121
6.13038
6.19385
6.5418
7.37988
9.077
12.4069
19.2701
36.0892
96.244
440.12
2950.12
2.92679
2.51935
2.19841
1.98183
1.83627
1.73838
1.67361
1.63214
1.60721
1.59496
1.59014
1.58953
1.59552
1.60346
1.61431
1.62652
1.64029
1.65518
1.67121
1.6883
1.70649
1.72583
1.74639
1.76804
1.79102
1.8158
1.84255
1.87147
3.44503
4.16816
5.29879
7.39185
10.6805
15.2377
20.8548
27.017
32.9206
37.5662
39.9778
39.5339
36.2702
31.0277
25.4605
20.5446
16.4898
13.3079
10.9041
9.13879
7.82539
6.96214
6.47002
6.24834
6.28519
6.60321
7.41989
9.10717
12.4219
19.2671
36.1085
96.7343
444.669
2979.83
3.49327
2.91213
2.45822
2.15706
1.9549
1.8183
1.72649
1.66598
1.62748
1.60466
1.59384
1.58987
1.58986
1.59633
1.6045
1.61539
1.62764
1.64137
1.65621
1.67216
1.68917
1.70726
1.72651
1.74669
1.76804
1.79102
1.8158
1.84255
1.87147
4.2664
5.51282
7.8622
11.6323
16.963
23.7202
31.4387
39.3103
46.2288
50.9479
52.4006
50.1202
44.527
36.9522
29.5027
23.2393
18.2606
14.4619
11.6534
9.62599
8.14101
7.17429
6.62107
6.36042
6.35996
6.6553
7.46372
9.14036
12.4389
19.2642
36.1351
97.2673
449.731
3012.58
4.35246
3.47479
2.82202
2.39912
2.11851
1.92898
1.80089
1.715
1.65863
1.62302
1.60235
1.59283
1.58962
1.59043
1.59711
1.60556
1.61645
1.62875
1.64242
1.65721
1.67308
1.69001
1.70802
1.72685
1.74669
1.76804
1.79102
1.8158
1.84255
1.87143
5.72601
8.33399
12.5891
18.7091
26.6486
36.014
46.0337
55.5619
63.1659
67.3729
67.1158
62.2313
53.6678
43.3208
33.7413
26.0087
20.0521
15.6155
12.395
10.1039
8.44774
7.37847
6.7652
6.45269
6.42329
6.71231
7.51178
9.17691
12.458
19.2642
36.1661
97.8798
455.234
3048.03
4.32866
5.91383
3.33779
2.73688
2.34395
2.08138
1.90385
1.78403
1.70391
1.65158
1.61876
1.60022
1.59193
1.58932
1.59112
1.59788
1.60661
1.61749
1.62983
1.64344
1.65819
1.67398
1.69084
1.70839
1.72685
1.74669
1.76804
1.79102
1.8158
1.84245
1.87136
8.80319
13.5405
20.4535
29.5965
40.6647
52.953
65.3361
76.2941
84.0558
86.9689
84.0971
75.7603
63.5758
50.0438
38.1185
28.8188
21.8452
16.7579
13.1234
10.57
8.74449
7.57435
6.88433
6.53112
6.4925
6.77473
7.5645
9.21722
12.4799
19.2652
36.2079
98.5483
461.391
3087.17
4.10465
5.8953
9.2198
3.21274
2.6574
2.2908
2.04535
1.87947
1.76772
1.69324
1.64482
1.61474
1.59829
1.59117
1.5891
1.59187
1.59866
1.60766
1.61852
1.63088
1.64444
1.65914
1.67485
1.69124
1.70839
1.72685
1.74669
1.76804
1.79102
1.81565
1.84225
1.87129
14.4755
22.1771
32.5259
45.3199
59.9415
75.3297
89.9691
101.934
109.112
109.753
103.227
90.5456
74.1107
57.0262
42.5786
31.639
23.6233
17.8802
13.834
11.0219
9.03039
7.73701
6.98588
6.61716
6.56821
6.84313
7.6224
9.26172
12.5047
19.2683
36.2565
99.3211
468.102
3129.32
3.90799
5.49904
9.23086
15.3081
3.09692
2.58086
2.23928
2.01041
1.85589
1.75199
1.68299
1.6384
1.61103
1.59661
1.59054
1.589
1.59265
1.59946
1.60869
1.61954
1.63191
1.64542
1.66007
1.67529
1.69124
1.70839
1.72685
1.74669
1.76804
1.79081
1.81533
1.84204
1.87122
23.8614
35.4059
49.9194
66.8886
85.3452
103.845
120.45
132.79
138.421
135.619
124.303
106.38
85.1168
64.1729
47.0698
34.4419
25.3722
18.9755
14.5233
11.458
9.26861
7.87606
7.09759
6.71165
6.65111
6.91811
7.68602
9.31092
12.5331
19.2746
36.3208
100.169
475.662
3175.93
3.72952
5.15405
8.5059
15.3933
25.3702
2.98583
2.50676
2.18935
1.9766
1.83313
1.73688
1.67321
1.63239
1.60773
1.59517
1.59006
1.58901
1.59342
1.60029
1.60969
1.62054
1.63292
1.64638
1.66053
1.67528
1.69124
1.70839
1.72685
1.74669
1.76778
1.79038
1.815
1.84183
1.87114
38.2074
54.4169
73.7058
95.2187
117.626
139.083
157.177
169.039
171.925
164.343
147.041
123.022
96.4336
71.3937
51.5449
37.204
27.0805
20.0381
15.1885
11.8218
9.47267
8.02951
7.22065
6.81551
6.74196
7.00037
7.75598
9.36538
12.5655
19.2857
36.3958
101.155
483.912
3225.72
3.56132
4.84224
7.86082
14.1458
25.6385
40.723
2.87859
2.43508
2.14109
1.94399
1.81125
1.72242
1.66399
1.62694
1.60484
1.59394
1.58971
1.58913
1.59417
1.60114
1.61066
1.62153
1.63391
1.64685
1.66052
1.67528
1.69124
1.70839
1.72685
1.74638
1.76725
1.78994
1.81466
1.84161
1.87106
58.7698
80.3287
104.826
131.076
157.394
181.505
200.427
210.712
209.417
195.579
171.097
140.215
107.904
78.6053
55.9629
39.906
28.7394
21.0636
15.7433
12.1336
9.6983
8.19905
7.35635
6.92979
6.84162
7.09066
7.83296
9.42573
12.6028
19.301
36.4935
102.245
493.295
3280.9
3.40148
4.55122
7.26986
12.9974
23.6991
41.3263
62.6759
2.77516
2.36594
2.09458
1.91265
1.7903
1.70875
1.65556
1.62209
1.60232
1.59291
1.58947
1.5894
1.59489
1.60201
1.61162
1.62253
1.63439
1.64684
1.66052
1.67528
1.69124
1.70839
1.72651
1.74577
1.76671
1.78949
1.81431
1.84139
1.87098
86.7004
114.087
144.031
175.058
205.14
231.474
250.35
257.683
250.538
228.88
196.088
157.7
119.382
85.7336
60.2896
42.5323
30.3415
21.9192
16.2188
12.4786
9.94804
8.38659
7.50619
7.05567
6.95106
7.18984
7.91775
9.4927
12.6454
19.3236
36.6081
103.489
503.514
3339.1
3.24955
4.27795
6.71529
11.9204
21.877
38.501
63.8035
92.3957
2.67559
2.2995
2.04995
1.88266
1.77048
1.69621
1.64802
1.61778
1.60015
1.59205
1.5893
1.58984
1.59558
1.6029
1.61258
1.62301
1.63437
1.64684
1.66052
1.67528
1.69124
1.70801
1.72581
1.74514
1.76616
1.78903
1.81396
1.84116
1.8709
122.931
156.399
191.865
227.63
261.274
289.273
306.97
309.657
294.774
263.721
221.614
175.231
130.736
92.7173
64.4974
45.0705
31.6787
22.6525
16.7446
12.8604
10.2248
8.59427
7.67182
7.19448
7.07136
7.29885
8.01115
9.56711
12.6946
19.3527
36.7549
104.836
515.278
3414.91
3.10532
4.02219
6.19274
10.894
20.1293
35.8192
59.8905
94.2466
130.777
2.58007
2.23594
2.0073
1.8543
1.75228
1.68496
1.64127
1.61393
1.59831
1.59132
1.58908
1.59039
1.59626
1.60385
1.61303
1.62299
1.63437
1.64684
1.66052
1.67528
1.69083
1.70725
1.7251
1.7445
1.76559
1.78856
1.81359
1.84092
1.87081
168.102
207.72
248.715
289.198
326.188
355.12
370.161
366.153
341.485
299.528
247.281
192.583
141.854
99.506
68.564
47.1899
32.8252
23.4636
17.3268
13.2837
10.5317
8.82449
7.85512
7.34771
7.20375
7.41877
8.1142
9.64984
12.7511
19.3931
36.9261
106.39
530.264
3505.87
2.9685
3.7844
5.70295
9.91373
18.429
33.2092
56.1711
89.0268
133.516
178.36
2.48886
2.1754
1.96703
1.82829
1.73593
1.67487
1.63523
1.6105
1.59673
1.59072
1.58892
1.591
1.59702
1.6043
1.61296
1.623
1.63437
1.64684
1.66053
1.67485
1.69
1.70647
1.72437
1.74384
1.76501
1.78807
1.81322
1.84068
1.87073
222.555
268.317
314.919
360.204
400.299
429.167
439.63
426.507
389.923
335.713
272.724
209.566
152.649
106.06
71.9579
49.0071
34.0936
24.3615
17.9717
13.753
10.8723
9.07996
8.05818
7.51703
7.34959
7.55068
8.22769
9.74192
12.8167
19.4437
37.1413
108.419
549.763
3597.19
2.83853
3.56575
5.2474
8.98551
16.766
30.6342
52.5228
84.1008
126.727
182.064
235.323
2.40229
2.11843
1.93016
1.80493
1.72125
1.66581
1.62982
1.60749
1.5954
1.59022
1.58886
1.59175
1.59732
1.60425
1.61296
1.623
1.63437
1.64685
1.66006
1.67396
1.68914
1.70566
1.72362
1.74316
1.76442
1.78757
1.81284
1.84043
1.87064
286.397
338.398
390.89
441.217
484.103
511.491
514.886
489.883
439.279
371.709
297.628
226.025
163.047
111.521
74.8665
51.0173
35.498
25.3563
18.6868
14.2739
11.2507
9.36366
8.28334
7.7043
7.51041
7.69621
8.35349
9.84479
12.892
19.511
37.4393
111.101
571.076
3687.66
2.71518
3.3677
4.82736
8.11312
15.1417
28.0771
48.894
79.2636
120.421
173.355
239.918
301.549
2.32121
2.06642
1.89711
1.78396
1.70806
1.65768
1.62501
1.60486
1.59424
1.58985
1.58907
1.59209
1.59717
1.60427
1.61296
1.62299
1.63439
1.64637
1.65912
1.67305
1.68827
1.70484
1.72285
1.74246
1.7638
1.78706
1.81244
1.84017
1.87055
359.656
418.27
477.272
533.068
578.213
602.074
595.219
555.289
488.727
407.015
321.735
241.839
171.688
116.195
78.0814
53.2425
37.0541
26.4593
19.4802
14.8523
11.6712
9.67891
8.5332
7.91159
7.68784
7.85576
8.49304
9.95971
12.9802
19.6091
37.8732
114.094
594.164
3776.48
2.59955
3.18621
4.44328
7.29847
13.5689
25.5365
45.253
74.4431
114.267
165.458
228.786
306.748
376.792
2.24762
2.01991
1.86749
1.76513
1.69622
1.65041
1.62074
1.60254
1.59327
1.58981
1.58904
1.59198
1.59716
1.60427
1.61296
1.62301
1.6339
1.6454
1.65816
1.67212
1.68737
1.70399
1.72207
1.74174
1.76318
1.78653
1.81204
1.83991
1.87046
442.484
508.594
575.203
637.031
683.44
700.739
679.659
621.631
537.498
441.209
344.846
254.937
179.067
121.351
81.636
55.7069
38.7793
27.683
20.3608
15.4948
12.1385
10.0293
8.8106
8.14115
7.88411
8.03046
8.64763
10.0886
13.1006
19.7608
38.3818
117.477
619.234
3862.75
2.49457
3.01999
4.09668
6.54641
12.0649
23.0236
41.5879
69.5843
108.166
157.857
219.004
292.464
382.031
460.903
2.18222
1.97835
1.84096
1.74824
1.6856
1.64391
1.61693
1.60055
1.59279
1.58964
1.58875
1.59202
1.59716
1.60425
1.61303
1.62252
1.6329
1.64441
1.65718
1.67117
1.68645
1.70312
1.72126
1.74101
1.76253
1.78599
1.81163
1.83965
1.87037
535.438
610.632
686.537
755.063
800.757
807.025
766.995
687.817
584.921
473.96
363.925
266.091
187.185
127.039
85.5667
58.4369
40.6926
29.041
21.3386
16.2085
12.6581
10.4189
9.11861
8.39551
8.10131
8.22226
8.81876
10.2595
13.2636
19.9452
38.9944
121.288
646.313
3945.67
2.40142
2.87096
3.78903
5.86326
10.6468
20.557
37.9025
64.6551
102.03
150.424
209.787
280.363
363.53
465.314
554.154
2.12409
1.9412
1.8172
1.73309
1.6761
1.63808
1.61359
1.59929
1.59235
1.58929
1.58877
1.59202
1.59717
1.6043
1.61258
1.62152
1.63189
1.64341
1.65617
1.6702
1.68551
1.70223
1.72044
1.74026
1.76187
1.78544
1.81122
1.8394
1.87028
639.697
726.491
814.393
889.924
931.063
920.097
855.88
752.819
630.446
500.943
380.128
278.322
196.11
133.311
89.9121
61.4611
42.815
30.5484
22.4243
17.0013
13.2354
10.8517
9.46053
8.67726
8.34169
8.43302
9.04291
10.4771
13.4477
20.1739
39.7047
125.641
675.664
4024.26
2.31903
2.73849
3.52611
5.25668
9.33542
18.1592
34.2108
59.6406
95.7965
143.025
200.975
269.275
348.483
441.025
556.569
657.717
2.07238
1.90801
1.79593
1.71952
1.66754
1.63293
1.61126
1.59836
1.59187
1.58932
1.58877
1.59198
1.59732
1.60384
1.6116
1.62052
1.63085
1.64238
1.65514
1.6692
1.68455
1.70132
1.71959
1.73948
1.7612
1.78489
1.81082
1.83916
1.8702
757.356
860.446
963.862
1044.94
1074.96
1038.84
944.942
815.735
667.979
523.813
397.835
291.712
205.909
140.219
94.7133
64.8102
45.1689
32.2215
23.6296
17.8815
13.8765
11.3323
9.83979
8.98935
8.60725
8.70786
9.32201
10.7115
13.6573
20.444
40.5583
130.574
707.363
4097.72
2.24631
2.62012
3.3092
4.73929
8.15196
15.855
30.5358
54.538
89.4186
135.557
192.375
259.004
335.143
422.165
524.105
656.746
774.241
2.02636
1.87839
1.77689
1.70732
1.65995
1.62917
1.6097
1.59769
1.59194
1.58932
1.58875
1.59209
1.59702
1.60289
1.61064
1.6195
1.62979
1.64133
1.65409
1.66818
1.68357
1.70038
1.71872
1.7387
1.76054
1.78437
1.81044
1.83892
1.87012
893.587
1020.36
1141.91
1223.96
1232.98
1162.15
1032.78
867.897
699.78
548.737
417.138
306.34
216.647
147.819
100.013
68.5168
47.7784
34.0778
24.9671
18.8582
14.5877
11.8653
10.26
9.3343
8.95504
9.04787
9.61633
10.9641
13.8924
20.7728
41.5452
136.255
741.711
4165.11
2.18213
2.51461
3.12553
4.30861
7.12543
13.693
26.9098
49.3563
82.8596
127.928
183.834
249.275
323.259
406.025
500.312
612.347
768.485
908.687
1.9854
1.85196
1.75978
1.69648
1.65424
1.62677
1.60878
1.5978
1.59194
1.58928
1.58904
1.59175
1.59625
1.60199
1.60965
1.61848
1.6287
1.64025
1.65301
1.66713
1.68256
1.69942
1.71784
1.73792
1.75989
1.78385
1.81007
1.83869
1.87004
1057.41
1217.57
1358.21
1432.41
1407.05
1288.5
1106.59
912.199
734.394
575.806
438.114
322.274
228.388
156.162
105.854
72.6142
50.6686
36.1356
26.45
19.9405
15.3754
12.4553
10.7244
9.7862
9.3855
9.40443
9.92615
11.2353
14.1597
21.1566
42.7312
142.72
778.85
4225.88
2.12546
2.42104
2.96695
3.95305
6.26286
11.7593
23.4006
44.1191
76.0936
120.051
175.206
239.875
312.436
392.274
480.633
582.254
706.219
896.215
1071.64
1.94895
1.82828
1.74458
1.68816
1.65068
1.62558
1.60892
1.59779
1.59187
1.58964
1.58907
1.59099
1.59556
1.60111
1.60865
1.61745
1.6276
1.63916
1.65192
1.66605
1.68153
1.69844
1.71697
1.73716
1.75927
1.78335
1.8097
1.83847
1.86996
1264.12
1470.48
1629.52
1683.7
1599.2
1397.13
1169.63
960.462
771.896
605.081
460.818
339.569
241.185
165.3
112.278
77.1362
53.8655
38.4141
28.092
21.1381
16.2463
13.1065
11.3322
10.3445
9.83565
9.77702
10.2509
11.5272
14.4592
21.6194
44.1023
150.232
819.035
4279.27
2.07536
2.33853
2.82771
3.66034
5.54765
10.0945
20.1458
38.9041
69.1104
111.842
166.338
230.595
302.398
380.326
464.661
558.107
668.224
807.826
1048.64
1278.88
1.91641
1.80729
1.73272
1.68311
1.64913
1.62578
1.60892
1.59769
1.59235
1.58981
1.58886
1.59037
1.59486
1.60025
1.60762
1.61641
1.62648
1.63803
1.6508
1.66495
1.68049
1.69747
1.71612
1.73643
1.75866
1.78287
1.80935
1.83825
1.86989
1546.87
1821.81
2000.98
2001.84
1768.72
1490.42
1238.42
1012.69
812.297
636.576
485.274
358.26
255.079
175.274
119.326
82.1156
57.3946
40.9325
29.9068
22.4607
17.2062
13.9577
12.0811
10.9266
10.3034
10.1645
10.5912
11.8407
14.8001
22.1574
45.7538
158.826
862.557
4325.23
2.03086
2.26608
2.70398
3.42237
4.96005
8.68999
17.2313
33.9078
61.971
103.226
157.07
221.213
292.853
369.827
451.471
539.48
638.487
760.114
923.161
1249.26
1574.04
1.8876
1.79073
1.72559
1.68112
1.64941
1.62578
1.60878
1.59836
1.5928
1.58985
1.58892
1.58982
1.59414
1.59943
1.60658
1.61536
1.62534
1.63688
1.64967
1.66382
1.67946
1.69654
1.7153
1.73572
1.75806
1.7824
1.80901
1.83804
1.86982
2005.85
2390.86
2583.82
2283.77
1913.39
1591.8
1312.63
1068.73
855.517
670.25
511.47
378.356
270.095
186.117
127.029
87.5822
61.2805
43.7093
31.9081
23.9172
18.4593
15.0038
12.8595
11.529
10.7863
10.5656
10.9451
12.1789
15.1825
22.8026
47.6689
168.904
909.339
4362.24
1.99162
2.20238
2.59376
3.22579
4.47972
7.51554
14.6618
29.2807
54.9147
94.2062
147.235
211.486
283.518
360.388
440.621
524.846
616.721
723.474
863.08
1065.41
1551.65
2119.44
1.86459
1.78096
1.72304
1.68152
1.64941
1.62557
1.6097
1.59931
1.59329
1.59023
1.58909
1.58938
1.59339
1.59863
1.60552
1.61428
1.6242
1.6357
1.64852
1.66272
1.67846
1.69563
1.7145
1.73503
1.75749
1.78194
1.80867
1.83784
1.86975
2855.05
3537.51
3059.41
2513.89
2066.57
1699.57
1391.53
1128.25
901.37
705.992
539.34
399.829
286.233
197.848
135.414
93.5613
65.5447
46.7621
34.108
25.816
19.9962
16.0886
13.6625
12.1478
11.2815
10.979
11.3125
12.5417
15.6175
23.5522
49.9829
180.518
961.246
4390.93
1.96003
2.14682
2.49573
3.05921
4.08998
6.54496
12.4437
25.0625
48.1549
85.0204
136.736
201.139
274.067
351.659
431.591
513.667
600.379
698.026
818.086
989.403
1268.31
2152.73
3299.85
1.85111
1.77778
1.72356
1.68152
1.64912
1.62677
1.61129
1.60058
1.59426
1.59074
1.58931
1.58912
1.59262
1.59785
1.60447
1.61318
1.62305
1.6345
1.64739
1.66164
1.67749
1.69475
1.71373
1.73436
1.75693
1.7815
1.80835
1.83764
1.86971
4972.11
4254.36
3395.9
2738.74
2223.15
1811.81
1474.22