/*--------------------------------*- C++ -*----------------------------------*\
  =========                 |
  \\      /  F ield         | OpenFOAM: The Open Source CFD Toolbox
   \\    /   O peration     | Website:  https://openfoam.org
    \\  /    A nd           | Version:  8
     \\/     M anipulation  |
\*---------------------------------------------------------------------------*/
FoamFile
{
    version     2.0;
    format      ascii;
    class       volScalarField;
    location    "0.2";
    object      epsilon;
}
// * * * * * * * * * * * * * * * * * * * * * * * * * * * * * * * * * * * * * //

dimensions      [0 2 -3 0 0 0 0];

internalField   nonuniform List<scalar> 
15677
(
59.7302
18.3646
52.687
8.08389
26.0249
50.2348
4.62245
13.3237
31.6537
50.5435
3.1742
7.74901
17.1265
37.3344
51.6383
2.48703
5.05406
10.0473
20.8516
42.6839
53.6826
2.14427
3.62759
6.4722
12.1823
24.5716
47.6858
55.7409
1.97932
2.82276
4.52937
7.73417
14.2928
28.2744
52.0422
57.6766
1.91149
2.35337
3.40373
5.31493
8.92502
16.4371
31.7722
55.7244
59.374
1.88406
2.08028
2.724
3.91132
6.02641
10.1133
18.5457
34.9703
58.7431
60.8758
1.8705
1.93936
2.30732
3.05635
4.36019
6.71123
11.2794
20.5776
37.7907
61.2199
62.1417
1.86763
1.87828
2.05648
2.52136
3.34903
4.77836
7.36683
12.4229
22.4691
40.2544
63.2131
63.2551
1.86863
1.84884
1.91655
2.1861
2.71289
3.61611
5.16752
8.0041
13.5109
24.2144
42.3516
64.8395
64.1822
1.86955
1.8387
1.85192
1.98261
2.30699
2.88675
3.85936
5.53774
8.60864
14.5425
25.7789
44.1428
66.1437
65.0143
1.86979
1.83699
1.82114
1.86773
2.0514
2.41826
3.04349
4.08572
5.88388
9.18395
15.4936
27.1799
45.6382
67.203
65.7384
1.86978
1.83725
1.81053
1.81334
1.89818
2.1175
2.51896
3.18704
4.29389
6.20978
9.71742
16.3701
28.4017
46.8957
68.0661
66.3801
1.86974
1.83751
1.80823
1.78979
1.81541
1.93031
2.17884
2.61071
3.3174
4.48673
6.50998
10.2125
17.155
29.4663
47.9402
68.7695
66.9662
1.86971
1.83761
1.80793
1.78277
1.77572
1.82149
1.9624
2.23532
2.69357
3.43634
4.66247
6.7865
10.6598
17.8569
30.373
48.7966
69.371
67.4669
1.8697
1.83762
1.80795
1.78105
1.76149
1.76615
1.83176
1.99317
2.28659
2.76844
3.54363
4.82226
7.03552
11.0633
18.4667
31.1376
49.504
69.8497
67.9714
1.8697
1.83761
1.80796
1.78071
1.75701
1.74394
1.7604
1.84317
2.02175
2.33289
2.83552
3.63994
4.96496
7.25867
11.4165
18.9928
31.7705
50.0599
70.2985
68.3672
1.8697
1.8376
1.80795
1.78066
1.75574
1.7359
1.72954
1.75743
1.8546
2.04794
2.37433
2.89519
3.72526
5.09118
7.45364
11.7229
19.4321
32.2807
50.5219
70.6358
68.8351
1.8697
1.83759
1.80794
1.78064
1.75543
1.73318
1.71732
1.71802
1.7559
1.86579
2.07163
2.4111
2.94776
3.79983
5.20079
7.62134
11.9798
19.7931
32.6863
50.8608
71.008
69.1501
1.8697
1.83758
1.80792
1.78061
1.75535
1.73233
1.71272
1.7013
1.70848
1.75584
1.87629
2.09278
2.44347
2.99342
3.86421
5.29382
7.76195
12.1906
20.0775
32.9922
51.1476
71.2608
69.6135
1.8697
1.83757
1.80791
1.78058
1.75531
1.73206
1.7111
1.69446
1.68727
1.70088
1.75617
1.88595
2.11157
2.47165
3.03279
3.91851
5.37161
7.87561
12.3566
20.2936
33.2168
51.3417
71.6138
69.8699
1.8697
1.83757
1.80791
1.78056
1.75528
1.73195
1.71056
1.69182
1.67804
1.67528
1.69457
1.75697
1.89486
2.1282
2.49615
3.06618
3.96389
5.43373
7.96553
12.4805
20.4484
33.3702
51.5041
71.8207
70.3335
1.8697
1.83757
1.8079
1.78054
1.75525
1.73188
1.71037
1.69083
1.67425
1.66359
1.66483
1.68957
1.75837
1.90315
2.143
2.51735
3.09444
4.00066
5.48335
8.03105
12.5686
20.5457
33.4581
51.6237
72.2218
70.5784
1.8697
1.83756
1.80789
1.78052
1.75523
1.73183
1.71027
1.69044
1.67277
1.6585
1.65071
1.65622
1.68574
1.76024
1.91103
2.15644
2.53603
3.11836
4.03057
5.51956
8.07825
12.62
20.603
33.5091
51.7009
72.52
429.448
1.86971
1.83756
1.80789
1.78051
1.75521
1.73179
1.7102
1.69025
1.67218
1.65634
1.64434
1.63984
1.64883
1.68313
1.76293
1.91904
2.16913
2.55282
3.13875
4.05407
5.5467
8.10513
12.6487
20.6088
33.5071
51.8222
88.8647
717.721
1.86971
1.83756
1.80789
1.7805
1.75519
1.73175
1.71015
1.69013
1.67191
1.65542
1.64157
1.63209
1.63033
1.64376
1.68246
1.76682
1.92757
2.18173
2.56866
3.157
4.07357
5.56486
8.122
12.6463
20.5969
33.5108
52.7462
122.225
998.713
1.86971
1.83756
1.80789
1.78049
1.75517
1.73172
1.7101
1.69005
1.67175
1.65499
1.64037
1.62852
1.62145
1.62341
1.63971
1.68352
1.77226
1.93741
2.19513
2.58477
3.17432
4.09018
5.5779
8.12248
12.6354
20.5698
33.5379
55.309
157.829
1247.07
1.86971
1.83755
1.80789
1.78048
1.75516
1.7317
1.71006
1.68999
1.67164
1.65475
1.6398
1.62689
1.61731
1.6132
1.61778
1.63977
1.68656
1.77999
1.94928
2.21038
2.60197
3.19196
4.1054
5.58639
8.11983
12.6129
20.5339
33.6406
59.8835
190.486
1475.78
1.86971
1.83755
1.80789
1.78048
1.75515
1.73168
1.71003
1.68993
1.67155
1.65459
1.63949
1.62609
1.61538
1.60824
1.60688
1.61616
1.64159
1.69268
1.79076
1.96418
2.22823
2.62159
3.211
4.12107
5.59358
8.11372
12.5852
20.4932
33.8989
64.6155
221.473
1669.46
1.86971
1.83755
1.80789
1.78047
1.75515
1.73167
1.71
1.68989
1.67147
1.65447
1.63927
1.62566
1.61442
1.60584
1.60155
1.60397
1.61755
1.64638
1.70278
1.80556
1.98292
2.25001
2.64454
3.23313
4.13854
5.60186
8.10665
12.5558
20.4478
34.372
69.4274
248.727
1816.31
1.86971
1.83755
1.80789
1.78047
1.75514
1.73165
1.70998
1.68985
1.6714
1.65438
1.63911
1.62539
1.61389
1.60463
1.59895
1.59789
1.60513
1.62189
1.6558
1.71768
1.82524
2.00678
2.27655
2.67232
3.25921
4.15975
5.6131
8.10114
12.525
20.4069
34.9356
73.8008
269.901
1929.94
1.86971
1.83755
1.80789
1.78047
1.75513
1.73164
1.70996
1.68982
1.67135
1.6543
1.63897
1.62519
1.61354
1.60398
1.5976
1.59488
1.59893
1.60927
1.63079
1.67093
1.7383
1.85108
2.03659
2.30924
2.70559
3.29086
4.18575
5.62883
8.09914
12.4929
20.3745
35.4819
77.1928
286.638
2020.92
1.83755
1.86975
1.80788
1.78046
1.75513
1.73163
1.70994
1.68979
1.6713
1.65423
1.63886
1.62503
1.61327
1.60357
1.59685
1.59335
1.59589
1.60301
1.61798
1.6462
1.69244
1.76593
1.88391
2.07368
2.34871
2.74585
3.32871
4.21784
5.64959
8.10032
12.4577
20.3385
35.9004
79.8005
300.214
2096.54
1.80788
1.83765
1.86982
1.78046
1.75513
1.73162
1.70993
1.68977
1.67126
1.65417
1.63876
1.6249
1.61306
1.60327
1.59636
1.59253
1.59436
1.6
1.61176
1.63384
1.66859
1.7216
1.80151
1.92521
2.11879
2.3964
2.79342
3.3739
4.2562
5.67578
8.10485
12.4202
20.2931
36.1897
81.8016
311.674
2161.79
1.78046
1.80804
1.83785
1.86989
1.75512
1.73162
1.70992
1.68974
1.67123
1.65411
1.63868
1.62478
1.61287
1.60303
1.596
1.59203
1.59357
1.59858
1.60893
1.62813
1.65714
1.69935
1.75961
1.84639
1.97554
2.17306
2.45244
2.84958
3.42644
4.30113
5.71111
8.11518
12.3854
20.2361
36.3768
83.3808
321.62
2219.72
1.75512
1.78066
1.80836
1.83805
1.86997
1.73161
1.70991
1.68972
1.6712
1.65407
1.63861
1.62468
1.61272
1.60284
1.5957
1.59168
1.59311
1.59791
1.60777
1.62585
1.65239
1.68952
1.73982
1.80808
1.90165
2.03647
2.23689
2.51837
2.914
3.4866
4.35849
5.75798
8.1324
12.3543
20.1691
36.4764
84.6492
330.582
2272.45
1.7316
1.75537
1.78108
1.80869
1.83826
1.87004
1.7099
1.68971
1.67118
1.65402
1.63855
1.62459
1.61259
1.60267
1.59546
1.59141
1.5928
1.59757
1.6074
1.62527
1.65117
1.68657
1.73261
1.79194
1.86824
1.96903
2.10855
2.31146
2.59315
2.98721
3.56201
4.4311
5.81258
8.15562
12.3263
20.0955
36.528
85.7192
338.749
2321.1
1.70989
1.73189
1.75589
1.78152
1.80902
1.83848
1.87012
1.68969
1.67116
1.65399
1.6385
1.62451
1.61248
1.60253
1.59525
1.59119
1.59257
1.59738
1.60734
1.62547
1.65156
1.68685
1.73187
1.78828
1.85733
1.94236
2.04946
2.19336
2.39674
2.67801
3.07807
3.65576
4.5125
5.8743
8.18398
12.3028
20.0189
36.526
86.6336
346.421
2366.62
1.68968
1.71022
1.73249
1.75642
1.78196
1.80937
1.8387
1.8702
1.67114
1.65396
1.63846
1.62444
1.61238
1.60241
1.59507
1.59101
1.59238
1.59726
1.60741
1.62596
1.65276
1.68896
1.73461
1.79089
1.85782
1.93747
2.03135
2.14507
2.29109
2.4942
2.78244
3.19005
3.75933
4.60128
5.94156
8.21709
12.283
19.9425
36.513
87.4619
353.575
2409.27
1.67113
1.69003
1.71089
1.73311
1.75696
1.78242
1.80972
1.83893
1.87028
1.65393
1.63843
1.62438
1.61231
1.60229
1.59491
1.59086
1.59223
1.59718
1.60753
1.62654
1.6542
1.69187
1.73929
1.79735
1.86542
1.94427
2.03359
2.13652
2.25615
2.40354
2.61526
2.91293
3.31247
3.87036
4.69613
6.01321
8.25401
12.2682
19.8689
36.4861
88.2027
360.437
2449.63
1.6539
1.6715
1.69077
1.71158
1.73374
1.75752
1.78289
1.81008
1.83917
1.87037
1.63839
1.62432
1.61224
1.60219
1.59478
1.59073
1.59211
1.59713
1.60767
1.62713
1.65566
1.69492
1.74476
1.80595
1.87713
1.9588
2.04905
2.1489
2.2582
2.38314
2.54526
2.76837
3.0573
3.44454
3.98735
4.79535
6.08816
8.29429
12.2568
19.8005
36.4491
88.9091
366.875
2487.58
1.63837
1.65429
1.67229
1.69153
1.71229
1.73439
1.7581
1.78337
1.81045
1.83941
1.87046
1.62427
1.61219
1.60209
1.59467
1.59061
1.59201
1.59709
1.60782
1.6277
1.65708
1.69789
1.75024
1.81544
1.89134
1.97803
2.07293
2.17585
2.28394
2.39965
2.54165
2.72248
2.93904
3.21417
3.58525
4.10996
4.89767
6.16537
8.33686
12.25
19.7372
36.4131
89.5574
373.113
2523.61
1.62422
1.63877
1.65512
1.6731
1.69231
1.71302
1.73506
1.75869
1.78387
1.81084
1.83966
1.87055
1.61214
1.602
1.59458
1.59051
1.59192
1.59706
1.60797
1.62823
1.65843
1.7007
1.75551
1.82482
1.90657
2.00044
2.10244
2.21251
2.32569
2.44241
2.57878
2.74321
2.91883
3.12588
3.38328
3.73317
4.23612
5.00188
6.24385
8.38125
12.2459
19.6804
36.378
90.1956
378.952
2557.42
1.61211
1.6246
1.63962
1.65596
1.67394
1.69311
1.71377
1.73575
1.75929
1.78438
1.81123
1.83991
1.87064
1.60192
1.59451
1.59042
1.59184
1.59704
1.60811
1.62873
1.65968
1.7033
1.7605
1.83379
1.92154
2.02432
2.13623
2.2564
2.37912
2.50363
2.64504
2.80939
2.97072
3.1333
3.3238
3.56135
3.88605
4.36504
5.10697
6.32268
8.42655
12.2463
19.6297
36.349
90.786
384.638
2589.56
1.60185
1.61248
1.62543
1.64049
1.65684
1.6748
1.69393
1.71454
1.73646
1.75992
1.78491
1.81163
1.84017
1.87073
1.59446
1.59034
1.59177
1.59703
1.60825
1.62919
1.66085
1.70571
1.76516
1.84225
1.93588
2.04793
2.17223
2.30647
2.44222
2.57971
2.73372
2.90965
3.07307
3.22349
3.36541
3.53158
3.74748
4.04388
4.49551
5.21188
6.40112
8.47241
12.2482
19.5848
36.3248
91.3774
389.927
2619.57
1.59443
1.60213
1.61329
1.62628
1.64139
1.65774
1.67568
1.69479
1.71534
1.73719
1.76056
1.78545
1.81204
1.84043
1.87082
1.59025
1.5917
1.59702
1.60837
1.62962
1.66192
1.70793
1.76951
1.85016
1.94952
2.07076
2.20795
2.36024
2.51451
2.66948
2.84239
3.03919
3.21704
3.37036
3.5004
3.6132
3.7471
3.93602
4.20417
4.62619
5.31587
6.47848
8.51821
12.2523
19.5455
36.3072
91.9237
395.097
2648.12
1.59017
1.59469
1.60278
1.61412
1.62717
1.64232
1.65868
1.67659
1.69566
1.71615
1.73794
1.76121
1.786
1.81245
1.84068
1.8709
1.59163
1.597
1.60849
1.63001
1.66289
1.70996
1.77353
1.85749
1.9624
2.09258
2.24269
2.41439
2.59303
2.77336
2.97133
3.19799
3.40093
3.56996
3.70146
3.80021
3.87455
3.96963
4.12573
4.36496
4.75587
5.41796
6.55419
8.5635
12.2588
19.5115
36.2958
92.4759
399.868
2674.62
1.5916
1.59016
1.59527
1.60344
1.61499
1.62809
1.64328
1.65965
1.67753
1.69657
1.71699
1.73871
1.76188
1.78654
1.81285
1.84093
1.87098
1.59698
1.60859
1.63036
1.66379
1.71181
1.77723
1.86426
1.97449
2.11322
2.27619
2.46792
2.67298
2.88785
3.12282
3.38955
3.62905
3.82587
3.97151
4.06679
4.12165
4.14742
4.19701
4.31529
4.5246
4.88345
5.51775
6.62785
8.60798
12.2669
19.4821
36.2894
92.9825
404.548
2699.87
1.597
1.59146
1.59018
1.59586
1.60416
1.61588
1.62906
1.64427
1.66065
1.67849
1.6975
1.71785
1.73949
1.76255
1.78707
1.81323
1.84117
1.87106
1.60868
1.63068
1.66459
1.71351
1.78062
1.8705
1.98578
2.13261
2.3083
2.52026
2.75259
3.00654
3.29366
3.62063
3.91129
4.15072
4.32371
4.42661
4.46752
4.46364
4.42988
4.42726
4.50345
4.68191
5.00892
5.6148
6.69912
8.65138
12.2762
19.4571
36.29
93.4973
408.828
2723.15
1.60882
1.59664
1.59116
1.59018
1.59649
1.60493
1.61681
1.63007
1.64528
1.66168
1.67948
1.69846
1.71873
1.74028
1.7632
1.78759
1.81361
1.8414
1.87114
1.63096
1.66531
1.71505
1.78373
1.87624
1.99627
2.15072
2.33892
2.57085
2.83098
3.12759
3.47554
3.88958
4.26405
4.56837
4.78743
4.91
4.94273
4.90564
4.82539
4.7202
4.65867
4.68908
4.83433
5.13114
5.70864
6.76774
8.69347
12.2864
19.4357
36.2932
93.9654
413.047
2745.4
1.63129
1.60811
1.59572
1.5908
1.59028
1.59714
1.60578
1.61776
1.63112
1.64633
1.66274
1.6805
1.69943
1.71961
1.74103
1.76383
1.78809
1.81397
1.84162
1.87122
1.66596
1.71644
1.78655
1.88151
2.00598
2.16758
2.36797
2.61926
2.90765
3.25017
3.66517
4.18471
4.69372
5.11901
5.41611
5.57734
5.60618
5.52923
5.38364
5.2063
5.01683
4.88975
4.87171
4.98156
5.24934
5.79894
6.83355
8.73408
12.2973
19.418
36.2995
94.4422
416.873
2763.25
1.66665
1.62997
1.60619
1.5947
1.59052
1.59055
1.59779
1.60669
1.61874
1.63221
1.64741
1.66384
1.68154
1.7004
1.72046
1.74177
1.76444
1.78858
1.81433
1.84184
1.87129
1.7177
1.78911
1.88634
2.01494
2.18325
2.39539
2.66523
2.98239
3.37317
3.85969
4.50239
5.19249
5.83535
6.29782
6.53304
6.56664
6.43499
6.195
5.90351
5.60563
5.31835
5.11926
5.05034
5.12332
5.36302
5.88543
6.89643
8.77311
12.3086
19.4029
36.312
94.8719
420.154
2778.26
1.71898
1.66467
1.62637
1.60413
1.59378
1.59024
1.59101
1.59845
1.60767
1.61975
1.63335
1.64853
1.66496
1.68258
1.70135
1.72129
1.74249
1.76504
1.78905
1.81467
1.84205
1.87136
1.79146
1.89075
2.02317
2.19779
2.42116
2.70868
3.05503
3.49514
4.05652
4.84258
5.76508
6.72025
7.50754
7.93458
7.99795
7.79532
7.41352
6.94544
6.46564
6.02211
5.62333
5.34614
5.22422
5.25939
5.47184
5.96796
6.95629
8.81046
12.3202
19.3907
36.323
95.2512
422.83
2794.5
1.79373
1.71613
1.65888
1.62256
1.60224
1.59296
1.58992
1.5916
1.59913
1.6087
1.6208
1.63452
1.64967
1.66608
1.6836
1.70227
1.7221
1.74319
1.76562
1.78951
1.81501
1.84225
1.87143
1.89484
2.03074
2.21128
2.44527
2.74967
3.12539
3.61459
4.25434
5.20663
6.41637
7.77985
9.04407
9.90045
10.1396
9.8652
9.28546
8.54804
7.78049
7.06811
6.45375
5.93028
5.56943
5.39275
5.38962
5.57563
6.04643
7.01313
8.84609
12.3319
19.3804
36.3388
95.5536
425.808
2812.16
1.89868
1.78981
1.70721
1.65282
1.61902
1.60051
1.59221
1.58965
1.59228
1.59985
1.60979
1.62191
1.63572
1.65082
1.66716
1.68459
1.70316
1.72289
1.74386
1.76618
1.78996
1.81533
1.84245
1.87147
2.03779
2.22379
2.46777
2.78829
3.19319
3.73039
4.45324
5.59556
7.14495
9.00894
10.8974
12.4066
13.1568
12.9804
12.1572
11.0385
9.83318
8.69433
7.70657
6.8978
6.23763
5.78831
5.55551
5.51392
5.6743
6.12083
7.06693
8.87997
12.3435
19.3735
36.3493
95.9109
428.977
2831.35
2.04423
1.89342
1.77645
1.69796
1.64714
1.61574
1.59893
1.59154
1.58945
1.59304
1.60064
1.61091
1.62305
1.63691
1.65195
1.66822
1.68555
1.70403
1.72365
1.74452
1.76673
1.79039
1.81565
1.84255
1.87147
2.23553
2.48878
2.82469
3.25813
3.84192
4.6541
6.00867
7.94332
10.3896
13.0424
15.4231
17.0012
17.3742
16.4873
14.8699
13.0391
11.2542
9.67654
8.37481
7.3509
6.54373
6.00202
5.71219
5.6323
5.76784
6.19115
7.11778
8.91212
12.3535
19.3679
36.3674
96.2772
432.538
2852.32
2.24604
2.03737
1.87372
1.76275
1.68926
1.6418
1.61266
1.59746
1.59095
1.58935
1.59384
1.6015
1.61206
1.62422
1.63807
1.65305
1.66924
1.68649
1.70487
1.7244
1.74516
1.76726
1.79081
1.8158
1.84255
1.87147
2.50856
2.85906
3.32002
3.94914
4.85799
6.44333
8.80004
11.8972
15.4399
18.9045
21.629
22.986
22.6154
20.6627
17.9805
15.261
12.7905
10.7139
9.06538
7.80929
6.84694
6.20993
5.86258
5.74477
5.8564
6.25768
7.16576
8.93853
12.3622
19.3629
36.3827
96.7174
436.331
2875.11
2.52589
2.23709
2.00868
1.85377
1.74985
1.68102
1.6367
1.60976
1.59609
1.59046
1.58935
1.59467
1.60245
1.6132
1.62537
1.63919
1.65413
1.67024
1.68741
1.70569
1.72512
1.74579
1.76778
1.79102
1.8158
1.84255
1.87147
2.8917
3.37893
4.0526
5.06565
6.89518
9.70182
13.5044
18.0432
22.7842
26.9706
29.7622
30.484
28.9101
25.4854
21.4528
17.6715
14.4186
11.7919
9.77039
8.26914
7.14568
6.41145
6.00651
5.85142
5.93972
6.32056
7.205
8.96095
12.3721
19.358
36.4097
97.1684
440.6
2900.04
2.91992
2.51453
2.19539
1.98
1.83499
1.73756
1.6731
1.63183
1.60702
1.59485
1.59008
1.58949
1.5955
1.60346
1.6143
1.62652
1.64029
1.65518
1.67121
1.6883
1.70649
1.72583
1.74639
1.76804
1.79102
1.81581
1.84255
1.87147
3.43513
4.15326
5.27745
7.3588
10.6348
15.1838
20.8034
26.9832
32.9181
37.5991
40.0316
39.574
36.2512
30.9125
25.2407
20.2346
16.1146
12.8962
10.4821
8.72678
7.43845
6.6061
6.14395
5.95249
6.0179
6.37202
7.23821
8.9855
12.3831
19.3541
36.4332
97.714
445.165
2927.08
3.48326
2.90525
2.4539
2.15435
1.95301
1.81705
1.7257
1.66547
1.62717
1.60448
1.59372
1.58979
1.58983
1.5963
1.6045
1.61538
1.62764
1.64136
1.65621
1.67216
1.68917
1.70727
1.72652
1.74669
1.76804
1.79102
1.81581
1.84255
1.87147
4.25175
5.49156
7.82852
11.5854
16.9086
23.6721
31.4175
39.3393
46.324
51.1056
52.5884
50.2801
44.5941
36.8814
29.2917
22.9135
17.8552
14.0133
11.1934
9.17881
7.7239
6.79351
6.2749
6.04814
6.08154
6.41556
7.27446
9.01239
12.3957
19.3509
36.4732
98.2763
450.316
2956.67
4.33755
3.46481
2.81581
2.3952
2.11575
1.92715
1.79969
1.71423
1.65813
1.62271
1.60216
1.5927
1.58952
1.5904
1.59707
1.60555
1.61644
1.62874
1.64241
1.65721
1.67308
1.69001
1.70802
1.72685
1.74669
1.76804
1.79102
1.8158
1.84255
1.87143
5.70464
8.29999
12.5414
18.6539
26.6025
36.0038
46.0926
55.7201
63.4364
67.7349
67.5083
62.5651
53.8564
43.3144
33.5492
25.6721
19.6189
15.1313
11.898
9.62222
8.00094
6.9734
6.39939
6.12657
6.13524
6.46307
7.31405
9.0419
12.4099
19.3492
36.5097
98.9558
455.858
2988.65
4.31388
5.89167
3.32876
2.73116
2.34003
2.07873
1.90211
1.78287
1.70316
1.65109
1.61844
1.60003
1.5918
1.58921
1.59109
1.59784
1.6066
1.61748
1.62982
1.64343
1.65819
1.67398
1.69084
1.7084
1.72685
1.74669
1.76804
1.79102
1.8158
1.84245
1.87136
8.76845
13.492
20.3976
29.5514
40.6635
53.0389
65.5549
76.6792
84.6077
87.6369
84.7788
76.3289
63.9237
50.122
37.9554
28.4764
21.3869
16.2398
12.5905
10.0545
8.26864
7.14555
6.50192
6.19304
6.19368
6.51492
7.35731
9.07428
12.4262
19.3497
36.5678
99.6683
462.121
3023.64
4.09122
5.87318
9.18346
3.20438
2.65177
2.28708
2.04285
1.87782
1.76661
1.6925
1.64434
1.61442
1.59809
1.59103
1.58899
1.59184
1.59861
1.60765
1.61851
1.63088
1.64443
1.65914
1.67486
1.69124
1.70839
1.72685
1.74669
1.76804
1.79102
1.81565
1.84225
1.87129
14.4254
22.1203
32.482
45.3257
60.0505
75.6037
90.4643
102.679
110.082
110.849
104.294
91.4138
74.656
57.2088
42.454
31.2953
23.1423
17.3299
13.2664
10.4737
8.52625
7.28817
6.5891
6.26575
6.25734
6.57152
7.40458
9.10987
12.4446
19.3517
36.6245
100.521
468.914
3061.22
3.89561
5.47855
9.19444
15.2549
3.08878
2.57558
2.23579
2.00804
1.8543
1.75092
1.68228
1.63793
1.61072
1.59641
1.59039
1.58888
1.59261
1.59941
1.60867
1.61952
1.6319
1.64541
1.66007
1.67529
1.69124
1.70839
1.72685
1.74669
1.76804
1.79081
1.81533
1.84204
1.87122
23.8021
35.3627
49.932
67.0171
85.6672
104.441
121.381
134.066
139.973
137.282
125.856
107.613
85.896
64.478
46.9921
34.1012
24.871
18.3945
13.9224
10.8782
8.74066
7.40989
6.68478
6.34534
6.3267
6.6333
7.45627
9.14897
12.4659
19.3561
36.7079
101.438
476.591
3102.32
3.71768
5.13497
8.47158
15.3383
25.306
2.97822
2.50185
2.18606
1.97435
1.83161
1.73584
1.67251
1.63192
1.60741
1.59496
1.58991
1.58889
1.59337
1.60024
1.60966
1.62053
1.63291
1.64638
1.66052
1.67528
1.69124
1.70839
1.72685
1.74669
1.76778
1.79038
1.815
1.84183
1.87114
38.1618
54.4352
73.8525
95.5816
118.309
140.182
158.749
171.057
174.248
166.722
149.184
124.682
97.4798
71.8372
51.5217
36.8699
26.5614
19.4282
14.5555
11.2155
8.92417
7.54401
6.7899
6.43252
6.40232
6.70074
7.51278
9.19206
12.4899
19.3661
36.7966
102.516
484.997
3146
3.5504
4.82419
7.82836
14.0904
25.5692
40.6712
2.87155
2.43049
2.13798
1.94185
1.80979
1.72141
1.6633
1.62647
1.60452
1.59373
1.58955
1.58902
1.5941
1.6011
1.61063
1.62152
1.6339
1.64685
1.66052
1.67528
1.69124
1.70839
1.72685
1.74638
1.76725
1.78994
1.81466
1.84161
1.87106
58.7884
80.4912
105.227
131.832
158.639
183.342
202.892
213.715
212.72
198.828
173.929
142.357
109.246
79.2003
56.0001
39.5816
28.2041
20.4264
15.0838
11.5045
9.12697
7.69196
6.9055
6.52806
6.4848
6.77437
7.5746
9.23942
12.5179
19.3785
36.9145
103.719
494.492
3193.74
3.39146
4.53469
7.23915
12.9429
23.6234
41.2637
62.6875
2.7686
2.36166
2.09164
1.91061
1.7889
1.70777
1.65488
1.62162
1.602
1.59269
1.58931
1.5893
1.59481
1.60197
1.61158
1.62252
1.63438
1.64684
1.66051
1.67528
1.69124
1.70839
1.72651
1.74577
1.76671
1.78949
1.81431
1.84139
1.87098
86.8687
114.52
144.854
176.423
207.203
234.341
254.008
261.943
255.033
233.146
199.696
160.372
121.041
86.4902
60.3919
42.2202
29.7919
21.2594
15.5365
11.8242
9.3513
7.85533
7.03274
6.63285
6.57483
6.85474
7.6422
9.29171
12.5495
19.3985
37.0534
105.094
504.983
3243.66
3.24032
4.26293
6.68704
11.8677
21.7973
38.4187
63.7952
92.5571
2.6695
2.2955
2.04716
1.88072
1.76912
1.69527
1.64735
1.61731
1.59983
1.59182
1.58911
1.58974
1.59548
1.60287
1.61256
1.62301
1.63435
1.64684
1.66051
1.67528
1.69124
1.70801
1.72581
1.74514
1.76616
1.78903
1.81396
1.84116
1.8709
123.379
157.278
193.335
229.878
264.479
293.519
312.159
315.46
300.673
269.135
226.071
178.468
132.729
93.6425
64.668
44.7725
31.118
21.9736
16.0374
12.1783
9.5997
8.03591
7.17293
6.74787
6.67315
6.94247
7.71614
9.34926
12.5863
19.4256
37.2193
106.699
516.853
3307.7
3.09681
4.00852
6.1671
10.8445
20.0482
35.7216
59.8381
94.3742
131.218
2.57442
2.23219
2.00466
1.85245
1.75097
1.68403
1.6406
1.61345
1.59799
1.59108
1.58887
1.59028
1.59617
1.60383
1.613
1.62298
1.63435
1.64684
1.66051
1.67528
1.69083
1.70725
1.7251
1.7445
1.76559
1.78856
1.81359
1.84092
1.87081
169.009
209.277
251.118
292.671
330.923
361.148
377.247
373.785
348.976
306.2
252.642
196.41
144.192
100.604
68.8049
46.9052
32.2553
22.7639
16.592
12.5706
9.87498
8.2357
7.32753
6.87418
6.78056
7.0382
7.79697
9.41277
12.6287
19.4599
37.4358
108.456
532.44
3382.31
2.96065
3.77196
5.6798
9.86827
18.349
33.1017
56.0823
89.0698
133.903
179.258
2.48363
2.17189
1.96452
1.82651
1.73466
1.67395
1.63456
1.61002
1.5964
1.59046
1.58869
1.59091
1.59696
1.60429
1.61292
1.62298
1.63435
1.64684
1.66052
1.67485
1.69
1.70646
1.72437
1.74383
1.76501
1.78807
1.81322
1.84068
1.87073
224.152
270.843
318.609
365.316
407.022
437.421
448.985
436.233
399.167
343.724
279.024
213.996
155.335
107.332
72.2605
48.7348
33.5143
23.6392
17.2067
13.0057
10.1803
8.45692
7.49814
7.01298
6.89795
7.14267
7.88529
9.48288
12.677
19.5108
37.6699
110.94
552.219
3455.17
2.83129
3.55447
5.22661
8.9444
16.6892
30.5212
52.4077
84.0723
126.967
182.877
236.901
2.39745
2.11511
1.92776
1.80321
1.72
1.6649
1.62916
1.60701
1.59505
1.58994
1.58865
1.5917
1.59726
1.60422
1.61291
1.62298
1.63435
1.64685
1.66005
1.67396
1.68914
1.70566
1.72362
1.74315
1.76441
1.78757
1.81284
1.84043
1.87064
288.97
342.25
396.297
448.466
493.326
522.441
526.871
501.932
450.393
381.109
304.883
231.061
166.081
112.944
75.2236
50.7599
34.909
24.6094
17.8884
13.4884
10.519
8.70203
7.68655
7.16556
7.02631
7.25657
7.98178
9.56003
12.7346
19.5659
38.063
113.964
574.349
3524.49
2.7085
3.35745
4.80881
8.07623
15.0694
27.9622
48.7593
79.1808
120.536
173.931
241.363
304.077
2.31671
2.06326
1.89481
1.78229
1.70683
1.65678
1.62435
1.60435
1.59386
1.5896
1.58893
1.59205
1.59707
1.60422
1.61291
1.62297
1.63437
1.64636
1.65911
1.67305
1.68827
1.70483
1.72285
1.74246
1.7638
1.78706
1.81244
1.84017
1.87055
363.551
423.884
484.922
543.019
590.508
616.196
610.157
569.833
501.781
417.82
329.943
247.476
175.02
117.749
78.5009
53.0031
36.4553
25.6856
18.6448
14.0244
10.8951
8.97373
7.89471
7.33334
7.16667
7.3808
8.08704
9.64565
12.7979
19.6702
38.5199
117.691
597.935
3589.59
2.59339
3.17688
4.42681
7.26577
13.5023
25.423
45.1051
74.316
114.283
165.831
229.871
309.068
380.585
2.24342
2.01689
1.86528
1.7635
1.69501
1.64951
1.62005
1.60201
1.59294
1.58964
1.58892
1.59189
1.59704
1.60422
1.61291
1.623
1.63388
1.64539
1.65815
1.67212
1.68737
1.70399
1.72206
1.74174
1.76317
1.78653
1.81204
1.83991
1.87046
448.12
516.512
585.692
650.346
699.418
718.485
697.806
638.775
552.511
453.406
353.988
261.082
182.657
123.054
82.1268
55.4888
38.1704
26.8799
19.4845
14.6195
11.3127
9.27494
8.12472
7.51784
7.32018
7.51596
8.20193
9.73934
12.8913
19.7921
39.1958
121.551
623.917
3648.86
2.48888
3.01144
4.08207
6.51779
12.005
22.9145
41.4328
69.4234
108.099
158.07
219.779
294.256
385.505
466.338
2.17825
1.97544
1.83882
1.74665
1.68441
1.64299
1.6162
1.60008
1.59258
1.5895
1.58855
1.5919
1.59704
1.6042
1.61298
1.6225
1.63287
1.6444
1.65717
1.67117
1.68645
1.70312
1.72126
1.74101
1.76253
1.78599
1.81163
1.83965
1.87037
543.338
621.426
700.601
772.494
821.035
828.779
788.513
707.583
601.861
487.509
373.85
272.675
191.065
128.91
86.1389
58.244
40.0735
28.2057
20.4168
15.2804
11.7762
9.60881
8.37884
7.7207
7.48793
7.66338
8.32763
9.86391
13.0056
19.9906
39.8454
126.304
651.891
3701.84
2.39613
2.86308
3.77603
5.83847
10.594
20.4548
37.7455
64.47
101.896
150.498
210.32
281.705
366.243
470.263
561.701
2.1203
1.9384
1.81512
1.73153
1.67487
1.63711
1.61295
1.59899
1.59217
1.58905
1.58852
1.59189
1.59705
1.60426
1.61252
1.62148
1.63186
1.64339
1.65616
1.67019
1.68551
1.70223
1.72043
1.74025
1.76187
1.78544
1.81122
1.8394
1.87029
650.311
740.95
832.957
912.28
956.204
946.124
880.81
775.149
649.237
515.612
390.725
285.392
200.312
135.37
90.5768
61.2977
42.1853
29.6777
21.4519
16.0139
12.2905
9.97863
8.65941
7.9435
7.67134
7.82222
8.49082
10.0166
13.1494
20.181
40.7644
131.465
682.101
3746.61
2.31409
2.73117
3.51436
5.2353
9.28993
18.0659
34.057
59.4405
95.6106
142.984
201.294
270.268
350.563
444.876
563.394
667.949
2.06875
1.90531
1.79389
1.71793
1.66626
1.63208
1.61085
1.59812
1.59156
1.58902
1.58851
1.59187
1.59722
1.60378
1.61153
1.62047
1.63082
1.64236
1.65513
1.6692
1.68455
1.70131
1.71958
1.73948
1.7612
1.78489
1.81082
1.83916
1.8702
771.464
879.697
987.987
1073
1105.38
1069.24
973.181
840.492
688.28
539.433
409.169
299.319
210.47
142.49
95.4827
64.6812
44.5283
31.3115
22.6008
16.8277
12.8605
10.3878
8.96877
8.18811
7.87173
8.02541
8.68905
10.1826
13.2963
20.4642
41.7125
137.537
715.309
3781.39
2.24164
2.6133
3.29841
4.72076
8.11326
15.7719
30.3896
54.3314
89.1943
135.422
192.517
259.689
336.742
425.147
529.318
666.022
787.73
2.02286
1.87577
1.77483
1.70566
1.65884
1.62862
1.60936
1.59728
1.59155
1.58902
1.58851
1.592
1.59689
1.6028
1.61056
1.61946
1.62976
1.64131
1.65407
1.66817
1.68356
1.70038
1.71872
1.73869
1.76053
1.78436
1.81044
1.83892
1.87012
912.221
1045.73
1172.71
1258.38
1268.97
1196.74
1064.08
894.59
721.344
565.386
429.274
314.537
221.606
150.325
100.9
68.427
47.126
33.1241
23.875
17.7296
13.4915
10.8398
9.30942
8.45578
8.131
8.27027
8.89471
10.3541
13.4787
20.7563
42.9175
144.674
752.139
3804.41
2.17769
2.50826
3.11551
4.29232
7.09276
13.6211
26.7749
49.1512
82.6103
127.72
183.827
249.704
324.433
408.366
504.333
619.189
780.564
926.532
1.982
1.84932
1.75765
1.69504
1.65352
1.62632
1.6082
1.59727
1.59154
1.58901
1.58884
1.59162
1.59609
1.60188
1.60958
1.61843
1.62867
1.64023
1.653
1.66712
1.68256
1.69941
1.71783
1.73791
1.75989
1.78385
1.81007
1.83869
1.87004
1081.68
1250.58
1396.75
1473.97
1448.18
1326.76
1140.24
940.477
757.301
593.559
451.12
331.115
233.784
158.931
106.873
72.5685
50.0033
35.1328
25.2865
18.7276
14.1885
11.3379
9.68309
8.80277
8.44622
8.52109
9.10517
10.5406
13.6711
21.1365
44.3226
152.509
792.657
3819.44
2.12119
2.41511
2.95757
3.9385
6.23523
11.6983
23.2795
43.9225
75.832
119.788
175.077
240.089
313.266
394.051
483.836
587.419
714.961
911.277
1094.72
1.94555
1.82558
1.74273
1.68724
1.6501
1.62482
1.60819
1.59726
1.59151
1.5894
1.58881
1.59081
1.59538
1.60099
1.60857
1.6174
1.62757
1.63914
1.6519
1.66604
1.68153
1.69844
1.71696
1.73716
1.75926
1.78335
1.8097
1.83847
1.86997
1295.42
1512.91
1678.11
1731.05
1644.19
1438.03
1205.13
990.377
796.21
624.005
474.756
349.108
247.059
168.356
113.444
77.1391
53.1849
37.3554
26.8475
19.8296
14.9566
11.8848
10.1684
9.22519
8.76977
8.77688
9.32272
10.7352
13.899
21.5785
45.8975
162.653
834.858
3818.99
2.0711
2.33294
2.81889
3.64711
5.52406
10.0436
20.0397
38.7217
68.8482
111.542
166.112
230.629
302.935
381.661
467.129
562.26
674.593
818.647
1067.69
1308.33
1.91294
1.80496
1.73154
1.68237
1.64814
1.62482
1.60817
1.59721
1.59205
1.5895
1.58851
1.59016
1.59469
1.60012
1.60754
1.61635
1.62644
1.63801
1.65078
1.66494
1.68048
1.69747
1.71611
1.73642
1.75865
1.78286
1.80935
1.83825
1.86989
1585.74
1878.64
2055.46
2051.35
1816.3
1533.3
1275.76
1044.25
838.057
656.722
500.198
368.546
261.47
178.644
120.649
82.1703
56.6949
39.8092
28.5698
21.0435
15.7998
12.5954
10.7593
9.6587
9.09956
9.03762
9.54535
10.9457
14.1557
22.0806
47.9344
173.754
880.129
3813.54
2.02653
2.2606
2.69567
3.41011
4.93962
8.64744
17.14
33.7433
61.7188
102.906
156.771
221.099
293.147
370.787
453.396
542.69
643.649
767.667
936.104
1273.14
1608.75
1.88462
1.78926
1.72464
1.67986
1.64817
1.62481
1.60811
1.59796
1.59241
1.58943
1.58852
1.58959
1.59396
1.59928
1.60649
1.61529
1.6253
1.63686
1.64965
1.66381
1.67945
1.69653
1.71529
1.73571
1.75806
1.78239
1.80901
1.83804
1.86982
2060.97
2449.52
2636.63
2334.88
1962.79
1636.45
1351.7
1101.91
882.725
691.645
527.418
389.427
277.035
189.822
128.522
87.6895
60.5553
42.5105
30.4646
22.3755
16.8951
13.4602
11.3654
10.0999
9.43373
9.30221
9.77507
11.1712
14.4419
22.7243
50.1106
187.052
926.834
3800.04
1.98788
2.1969
2.58572
3.21423
4.46174
7.47992
14.5846
29.1356
54.6807
93.8843
146.887
211.253
283.605
361.036
442.083
527.413
620.679
729.671
871.678
1081.21
1579.92
2154.24
1.8627
1.77979
1.72143
1.67994
1.64815
1.62471
1.60917
1.59877
1.59274
1.58975
1.58867
1.58911
1.59321
1.59846
1.60542
1.61421
1.62415
1.63567
1.6485
1.6627
1.67845
1.69562
1.71449
1.73502
1.75748
1.78194
1.80867
1.83783
1.86975
2901.76
3589.71
3112.59
2566.4
2117.28
1745.69
1432.15
1162.94
929.981
728.628
556.327
411.709
293.745
201.904
137.082
93.7181
64.7841
45.4729
32.5404
24.1044
18.2267
14.3465
11.9813
10.5455
9.77026
9.57052
10.012
11.4128
14.7843
23.4092
53.055
201.378
975.086
3777.66
1.95763
2.14216
2.48788
3.048
4.07381
6.51499
12.3791
24.9369
47.9439
84.711
136.362
200.816
273.982
352.041
432.676
515.684
603.6
702.698
825.303
998.927
1287.03
2166.89
3316.73
1.84961
1.77577
1.72156
1.67991
1.64802
1.62609
1.61058
1.59983
1.59364
1.59024
1.58888
1.5888
1.59242
1.59767
1.60436
1.6131
1.62299
1.63447
1.64737
1.66163
1.67748
1.69474
1.71372
1.73435
1.75692
1.78149
1.80835
1.83764
1.86972
4994.9
4306.2
3449.41
2791.58
2274.56
1858.92
1516.08
1226.77
979.478