/*--------------------------------*- C++ -*----------------------------------*\
  =========                 |
  \\      /  F ield         | OpenFOAM: The Open Source CFD Toolbox
   \\    /   O peration     | Website:  https://openfoam.org
    \\  /    A nd           | Version:  8
     \\/     M anipulation  |
\*---------------------------------------------------------------------------*/
FoamFile
{
    version     2.0;
    format      ascii;
    class       volScalarField;
    location    "0.2";
    object      nut;
}
// * * * * * * * * * * * * * * * * * * * * * * * * * * * * * * * * * * * * * //

dimensions      [0 2 -1 0 0 0 0];

internalField   nonuniform List<scalar> 
15677
(
0.000168252
0.000653023
0.000148413
0.00151374
0.000442459
0.000141505
0.0026755
0.000875818
0.000381156
0.000142374
0.00392129
0.00151892
0.000686658
0.000354253
0.000145458
0.00502429
0.0023561
0.00114641
0.000585639
0.000340267
0.000151217
0.00584082
0.0033173
0.00178076
0.000947754
0.00052931
0.000332032
0.000157015
0.00633516
0.00429858
0.00256759
0.00146326
0.000820921
0.000492498
0.000327008
0.000162468
0.00656294
0.00518762
0.00345283
0.00213151
0.00125718
0.000737232
0.00046746
0.000324141
0.000167249
0.00665851
0.00589344
0.00435529
0.00292203
0.00184144
0.00111224
0.00067736
0.000450456
0.000322572
0.000171479
0.00670553
0.00633829
0.00518085
0.0037789
0.00255682
0.00163166
0.00100453
0.000634079
0.000438703
0.000322018
0.000175045
0.0067144
0.0065535
0.00584537
0.00462526
0.00336261
0.00228631
0.00147251
0.000924129
0.000602142
0.000430771
0.000321963
0.000178181
0.00670992
0.00666153
0.00629571
0.00537717
0.00419685
0.00304508
0.00207756
0.00134886
0.000862099
0.000578525
0.000425304
0.000322444
0.000180793
0.00670628
0.00669876
0.00652965
0.00596453
0.00498417
0.00385715
0.00279543
0.00191147
0.00125098
0.000813956
0.000560769
0.000421821
0.00032308
0.000183137
0.00670538
0.00670439
0.00664684
0.00635696
0.00565013
0.00465578
0.00358304
0.00259322
0.00177741
0.00117271
0.000776123
0.000547594
0.000419472
0.000323994
0.000185177
0.00670542
0.00670289
0.0066879
0.00656296
0.0061422
0.00536848
0.00438107
0.00335659
0.00242736
0.00166763
0.0011092
0.000746335
0.000537502
0.000418246
0.000324839
0.000186985
0.00670556
0.00670167
0.00669639
0.00665659
0.00644692
0.00593373
0.00512091
0.00414831
0.00316786
0.0022893
0.00157716
0.00105747
0.000722629
0.000530232
0.000417366
0.000325888
0.000188636
0.00670563
0.00670121
0.00669711
0.00668494
0.00660495
0.00632184
0.0057375
0.00490365
0.00395036
0.00300858
0.00217393
0.00150197
0.00101546
0.000704137
0.000524513
0.000417241
0.000326821
0.000190046
0.00670565
0.00670112
0.00669671
0.00669169
0.00666378
0.00654131
0.00618838
0.00555682
0.00471394
0.00378067
0.0028738
0.00207685
0.00143963
0.000981351
0.000689248
0.000520644
0.000417172
0.000327901
0.000191467
0.00670564
0.00670113
0.0066964
0.00669277
0.00668233
0.00663459
0.00646796
0.00605792
0.00539349
0.00454792
0.00363513
0.00275921
0.00199535
0.00138802
0.000953458
0.000677877
0.000517531
0.000417687
0.000328876
0.000192582
0.00670562
0.00670117
0.00669625
0.00669273
0.00668728
0.00666918
0.00659815
0.00638945
0.00593479
0.00524646
0.0044032
0.00351006
0.00266202
0.00192708
0.00134536
0.000931146
0.000668721
0.000515785
0.000418094
0.000329945
0.0001939
0.00670561
0.00670119
0.00669617
0.00669263
0.00668818
0.00668088
0.00665149
0.00655618
0.00631102
0.00581946
0.00511562
0.00427715
0.00340302
0.00257989
0.00187024
0.00131055
0.000913156
0.000662133
0.000514333
0.000418995
0.000330969
0.000194788
0.0067056
0.0067012
0.00669612
0.0066926
0.00668812
0.00668432
0.00667171
0.00663042
0.00651139
0.0062329
0.00571414
0.00499956
0.00416822
0.0033119
0.00251118
0.00182347
0.00128239
0.00089928
0.000656895
0.000514
0.000419705
0.000332005
0.000196093
0.0067056
0.00670121
0.00669609
0.0066926
0.00668794
0.00668517
0.00667848
0.00666152
0.00660618
0.00646499
0.00615995
0.00561846
0.00489817
0.00407473
0.00323532
0.0024543
0.00178559
0.00126023
0.000888564
0.000653733
0.000513672
0.000420868
0.000333139
0.000196815
0.0067056
0.00670121
0.00669608
0.0066926
0.00668781
0.00668532
0.00668035
0.00667347
0.00664846
0.00658063
0.00641935
0.0060916
0.00553384
0.00481013
0.00399571
0.00317163
0.00240842
0.00175592
0.00124342
0.00088106
0.000651275
0.00051434
0.000421764
0.000334051
0.000198121
0.0067056
0.0067012
0.00669607
0.00669259
0.00668773
0.00668532
0.00668067
0.00667765
0.00666569
0.00663552
0.00655405
0.0063755
0.00602989
0.00545882
0.00473538
0.00393016
0.00312085
0.00237253
0.00173339
0.00123107
0.000875801
0.000650698
0.00051481
0.000423191
0.000335492
0.000198811
0.00670561
0.0067012
0.00669607
0.00669257
0.00668769
0.00668528
0.00668059
0.00667896
0.00667201
0.00665979
0.00662046
0.00652832
0.00633524
0.00597379
0.00539589
0.00467387
0.00387787
0.0030803
0.00234528
0.00171768
0.00122369
0.000873557
0.000650367
0.000516264
0.000424086
0.00033624
5.33596e-05
0.00670561
0.00670119
0.00669607
0.00669256
0.00668767
0.00668524
0.00668048
0.00667928
0.00667401
0.00666976
0.00665075
0.00660732
0.00650428
0.00629883
0.00592828
0.00534269
0.0046232
0.00383617
0.0030523
0.00232873
0.00170954
0.00122029
0.000872712
0.000651835
0.000517347
0.000426465
0.000283668
6.3323e-05
0.00670562
0.00670118
0.00669607
0.00669254
0.00668766
0.0066852
0.0066804
0.00667929
0.00667448
0.00667353
0.00666348
0.00664564
0.00659333
0.00648247
0.00626795
0.0058863
0.00530142
0.00458939
0.00381264
0.00303621
0.00231962
0.00170608
0.0012195
0.000874454
0.000653448
0.000519426
0.00042006
0.000219549
7.06954e-05
0.00670562
0.00670117
0.00669608
0.00669252
0.00668766
0.00668515
0.00668036
0.00667921
0.0066745
0.00667475
0.00666838
0.00666302
0.006637
0.0065836
0.00646618
0.00624111
0.00586292
0.00527718
0.00456704
0.0037956
0.00302679
0.00231648
0.00170715
0.001223
0.000877415
0.000655726
0.000520661
0.000400162
0.00017807
7.61276e-05
0.00670563
0.00670116
0.00669609
0.0066925
0.00668766
0.00668511
0.00668033
0.00667912
0.00667443
0.00667499
0.00667004
0.0066703
0.00665705
0.00663607
0.00657436
0.00645096
0.00623247
0.0058462
0.00525893
0.0045527
0.00378789
0.00302592
0.00232071
0.00171422
0.00122933
0.00088189
0.000658958
0.000518501
0.000367399
0.000152591
8.0523e-05
0.00670563
0.00670116
0.0066961
0.00669248
0.00668767
0.00668507
0.00668032
0.00667903
0.00667436
0.00667494
0.00667048
0.006673
0.00666572
0.00666145
0.00662998
0.00657287
0.00644995
0.00622538
0.005836
0.00525025
0.00455115
0.00379319
0.00303623
0.00233294
0.00172594
0.0012385
0.000888019
0.00066194
0.00051245
0.000336227
0.000134235
8.39021e-05
0.00670564
0.00670115
0.0066961
0.00669246
0.00668768
0.00668503
0.00668031
0.00667895
0.00667431
0.0066748
0.00667053
0.00667374
0.00666919
0.00667273
0.00665725
0.00663902
0.00657588
0.00645277
0.00622409
0.00583822
0.00525855
0.00456412
0.0038105
0.00305556
0.00235175
0.00174203
0.00125048
0.00089526
0.000664595
0.000501104
0.000306061
0.00012128
8.62936e-05
0.00670564
0.00670114
0.00669611
0.00669244
0.00668769
0.00668499
0.00668032
0.00667887
0.00667427
0.00667466
0.00667047
0.00667379
0.00667037
0.00667725
0.00667033
0.00667264
0.00664477
0.00658457
0.00646156
0.00623782
0.00585633
0.00528016
0.00458988
0.00383863
0.00308354
0.00237699
0.00176206
0.00126495
0.000903583
0.000665743
0.000485703
0.000280018
0.000112782
8.8057e-05
0.00670565
0.00670113
0.00669612
0.00669243
0.0066877
0.00668495
0.00668032
0.0066788
0.00667424
0.00667452
0.00667039
0.00667364
0.00667068
0.0066787
0.00667613
0.00668824
0.00668024
0.00665748
0.0066022
0.006484
0.00626514
0.005888
0.00531579
0.00462816
0.00387753
0.00312
0.00240807
0.00178592
0.00128166
0.000912608
0.000665782
0.000468886
0.000260163
0.000107022
8.94196e-05
0.00670113
0.00670566
0.00669613
0.00669241
0.00668771
0.00668492
0.00668033
0.00667874
0.00667423
0.0066744
0.00667032
0.00667344
0.0066707
0.00667898
0.00667835
0.00669525
0.0066974
0.00669569
0.00668137
0.00663139
0.00651925
0.00630629
0.00593465
0.00536541
0.00467925
0.00392685
0.00316439
0.00244497
0.00181316
0.00130037
0.000923176
0.000664617
0.000453748
0.000244969
0.00010298
9.05215e-05
0.00669613
0.00670113
0.00670568
0.0066924
0.00668772
0.00668489
0.00668035
0.00667868
0.00667422
0.00667429
0.00667026
0.00667324
0.00667062
0.00667888
0.00667908
0.00669801
0.00670528
0.00671481
0.00672388
0.00671542
0.00667326
0.0065688
0.00636311
0.00599625
0.00542954
0.00474267
0.00398643
0.00321668
0.00248698
0.00184373
0.00132369
0.000935904
0.000662851
0.000440921
0.000233106
0.000100111
9.14511e-05
0.00669238
0.00669617
0.00670115
0.00670569
0.00668773
0.00668486
0.00668036
0.00667862
0.00667422
0.00667419
0.00667021
0.00667306
0.00667052
0.00667866
0.00667927
0.00669895
0.00670856
0.00672392
0.00674589
0.00676154
0.00676253
0.00672955
0.00663444
0.00643657
0.00607458
0.00550856
0.00481888
0.00405589
0.00327599
0.00253415
0.00188085
0.00135135
0.000949263
0.000661617
0.000430124
0.000223767
9.80169e-05
9.22609e-05
0.00668774
0.0066924
0.00669622
0.00670117
0.00670571
0.00668484
0.00668037
0.00667857
0.00667423
0.0066741
0.00667017
0.00667291
0.00667042
0.00667841
0.00667926
0.0066992
0.00670982
0.00672798
0.00675685
0.00678624
0.00681272
0.00682422
0.00680237
0.00671705
0.00652774
0.00616925
0.0056027
0.00490681
0.00413462
0.0033424
0.00259139
0.00192651
0.00138035
0.000963268
0.000660845
0.000421307
0.000216233
9.64991e-05
9.2986e-05
0.00668481
0.0066878
0.00669245
0.00669629
0.00670119
0.00670573
0.00668039
0.00667852
0.00667424
0.00667402
0.00667014
0.00667277
0.00667032
0.00667818
0.00667919
0.00669918
0.00671029
0.00672977
0.00676213
0.00679933
0.00684041
0.00687826
0.0069025
0.00689242
0.00681818
0.00663639
0.00628071
0.00571184
0.00500736
0.00422249
0.00342283
0.00266121
0.00197566
0.0014106
0.000977917
0.000661141
0.00041387
0.000210118
9.53637e-05
9.3645e-05
0.0066804
0.00668483
0.0066879
0.0066925
0.00669635
0.00670121
0.00670575
0.00667847
0.00667425
0.00667394
0.00667012
0.00667265
0.00667024
0.00667798
0.0066791
0.00669907
0.00671044
0.00673062
0.00676479
0.00680632
0.00685655
0.00691054
0.00696305
0.0069996
0.00700103
0.00693679
0.00676262
0.00640832
0.00583492
0.00511926
0.00432905
0.00352088
0.00273604
0.00202753
0.00144186
0.000993067
0.000662003
0.000407838
0.000205037
9.45401e-05
9.42533e-05
0.00667843
0.00668048
0.00668489
0.006688
0.00669255
0.00669642
0.00670123
0.00670577
0.00667427
0.00667386
0.00667011
0.00667255
0.00667016
0.0066778
0.00667901
0.00669893
0.00671047
0.00673109
0.00676632
0.0068103
0.00686597
0.00693017
0.00700069
0.00706789
0.00711972
0.00713169
0.00707442
0.00690514
0.00655067
0.00597035
0.00525633
0.0044595
0.00362572
0.00281508
0.00208158
0.00147387
0.00100883
0.000664235
0.000402851
0.000200721
9.39102e-05
9.48163e-05
0.00667428
0.00667844
0.00668061
0.00668495
0.0066881
0.0066926
0.00669649
0.00670126
0.00670579
0.00667379
0.00667011
0.00667245
0.00667009
0.00667767
0.00667892
0.0066988
0.00671045
0.00673138
0.00676733
0.00681295
0.00687205
0.00694273
0.00702544
0.0071122
0.00719688
0.00726227
0.00728659
0.00723434
0.00706321
0.00670636
0.00613414
0.00542079
0.00459979
0.00373697
0.0028973
0.00213727
0.00150638
0.00102431
0.000667016
0.000398773
0.000197072
9.34662e-05
9.53429e-05
0.00667372
0.00667436
0.00667849
0.00668074
0.00668501
0.00668821
0.00669265
0.00669656
0.00670128
0.00670581
0.00667012
0.00667235
0.00667003
0.00667756
0.00667883
0.00669867
0.00671042
0.00673159
0.00676809
0.00681495
0.00687651
0.00695158
0.00704292
0.00714357
0.00725023
0.00735059
0.00743076
0.00746418
0.00741707
0.00724165
0.00689079
0.00632719
0.00559456
0.00474701
0.0038531
0.00298192
0.00219398
0.00153943
0.00103977
0.000670142
0.000395515
0.000193898
9.3119e-05
9.58328e-05
0.00667013
0.00667369
0.0066745
0.00667855
0.00668088
0.00668508
0.00668833
0.0066927
0.00669663
0.0067013
0.00670584
0.00667226
0.00666999
0.00667747
0.00667873
0.00669856
0.00671039
0.00673177
0.00676872
0.00681662
0.00688009
0.00695858
0.00705638
0.00716749
0.00729101
0.00741547
0.00753351
0.00762504
0.00766604
0.00762037
0.00746198
0.00711715
0.00652982
0.00577491
0.00489797
0.00397146
0.00306802
0.00225123
0.00157273
0.00105496
0.000673847
0.000392836
0.000191181
9.28931e-05
9.62935e-05
0.00667217
0.00667019
0.0066737
0.00667465
0.0066786
0.00668103
0.00668515
0.00668844
0.00669275
0.0066967
0.00670132
0.00670586
0.00666996
0.00667741
0.00667862
0.00669847
0.00671038
0.00673192
0.00676925
0.00681808
0.00688314
0.00696457
0.00706765
0.00718694
0.00732454
0.00746854
0.00761383
0.00774555
0.00784746
0.00789232
0.00786913
0.00773028
0.00736299
0.00673908
0.00595638
0.00505039
0.00409127
0.00315468
0.00230852
0.0016059
0.00107009
0.000677887
0.000390694
0.000188768
9.27107e-05
9.67217e-05
0.00666995
0.00667206
0.00667027
0.00667371
0.00667481
0.00667866
0.00668119
0.00668521
0.00668857
0.00669281
0.00669678
0.00670135
0.00670588
0.00667735
0.00667849
0.00669842
0.00671037
0.00673207
0.00676973
0.00681937
0.0068858
0.0069699
0.00707751
0.00720382
0.00735345
0.0075147
0.00768368
0.00784526
0.0079906
0.00809859
0.00817117
0.00817385
0.00801878
0.00762454
0.00695973
0.00613961
0.00520328
0.00421053
0.00324096
0.0023654
0.00163875
0.00108485
0.00068205
0.000388994
0.000186693
9.26143e-05
9.71253e-05
0.00667729
0.00666987
0.00667193
0.00667036
0.00667372
0.00667498
0.00667872
0.00668134
0.00668529
0.00668869
0.00669287
0.00669686
0.00670137
0.0067059
0.00667834
0.00669841
0.00671039
0.00673221
0.00677015
0.00682054
0.00688817
0.00697472
0.00708631
0.00721906
0.00737948
0.00755578
0.00774752
0.00793683
0.00811582
0.00826957
0.00841079
0.00851597
0.00850466
0.00832453
0.00789527
0.00718742
0.00632083
0.00535279
0.00432798
0.00332612
0.00242143
0.00167102
0.00109947
0.000686142
0.000387658
0.000184817
9.25309e-05
9.74991e-05
0.00667819
0.00667705
0.00666969
0.0066718
0.00667048
0.00667373
0.00667516
0.00667879
0.00668151
0.00668536
0.00668881
0.00669293
0.00669693
0.0067014
0.00670592
0.00669847
0.00671042
0.00673234
0.00677053
0.00682158
0.00689031
0.00697912
0.00709426
0.00723308
0.00740336
0.00759336
0.00780649
0.00802431
0.00823635
0.00842653
0.00862014
0.00880166
0.00889462
0.00885863
0.00864423
0.00817249
0.00741988
0.00650493
0.00549893
0.00444273
0.00340944
0.00247628
0.00170255
0.00111388
0.000690161
0.000386594
0.0001832
9.2513e-05
9.78522e-05
0.00669859
0.0066775
0.00667666
0.00666953
0.00667166
0.00667062
0.00667374
0.00667535
0.00667885
0.00668168
0.00668544
0.00668894
0.00669299
0.00669701
0.00670143
0.00670594
0.00671044
0.00673245
0.00677084
0.00682252
0.00689225
0.00698313
0.00710148
0.00724605
0.00742534
0.00762832
0.00786214
0.00810729
0.008355
0.0085838
0.00882271
0.00906608
0.00923722
0.00930529
0.00923322
0.00897522
0.00845397
0.00765192
0.00668929
0.00564129
0.00455415
0.00349055
0.00252965
0.00173323
0.00112792
0.000694095
0.000385745
0.000181713
9.24898e-05
9.81775e-05
0.00671043
0.00669811
0.00667625
0.00667623
0.00666944
0.00667151
0.00667078
0.00667374
0.00667555
0.00667893
0.00668185
0.00668553
0.00668907
0.00669306
0.00669708
0.00670145
0.00670595
0.00673253
0.00677111
0.00682336
0.00689401
0.0069868
0.00710806
0.00725806
0.00744555
0.00766113
0.00791502
0.00818621
0.00846946
0.00874466
0.00903569
0.00933575
0.00957181
0.00971865
0.00974815
0.00962754
0.00931581
0.00873776
0.00788208
0.0068719
0.00577956
0.00466181
0.00356885
0.00258129
0.00176292
0.00114155
0.00069793
0.000385077
0.000180431
9.25193e-05
9.84856e-05
0.00673261
0.00670938
0.00669697
0.00667528
0.0066757
0.00666942
0.00667133
0.00667098
0.00667375
0.00667575
0.00667901
0.00668202
0.00668562
0.00668919
0.00669313
0.00669715
0.00670148
0.00670597
0.00677133
0.00682413
0.00689563
0.00699014
0.00711408
0.00726914
0.00746415
0.00769201
0.00796501
0.00826118
0.00858076
0.0089064
0.00926127
0.00963011
0.00993081
0.0101476
0.0102544
0.0102279
0.0100429
0.00966539
0.00902253
0.00810924
0.00705129
0.00591317
0.00476457
0.00364404
0.00263102
0.00179154
0.00115473
0.000701656
0.000384523
0.000179231
9.25328e-05
9.8768e-05
0.00677152
0.00673097
0.00670718
0.00669534
0.00667464
0.00667505
0.0066695
0.00667112
0.00667119
0.00667376
0.00667596
0.0066791
0.00668219
0.00668572
0.00668931
0.0066932
0.00669721
0.00670151
0.00670598
0.00682484
0.00689711
0.00699318
0.00711959
0.00727932
0.00748126
0.00772102
0.00801186
0.00833248
0.00869
0.00906868
0.0094889
0.00995002
0.0103466
0.0106443
0.0108225
0.0108619
0.0107525
0.0104819
0.010024
0.00930744
0.00833257
0.00722642
0.0060438
0.00486263
0.00371592
0.0026787
0.00181902
0.00116742
0.000705259
0.000384101
0.000178201
9.25903e-05
9.90363e-05
0.00682553
0.00676876
0.00672749
0.00670499
0.00669338
0.00667436
0.00667428
0.00666966
0.00667091
0.00667142
0.00667378
0.00667617
0.0066792
0.00668235
0.00668582
0.00668941
0.00669327
0.00669727
0.00670154
0.006706
0.00689848
0.00699595
0.00712462
0.00728866
0.00749701
0.00774812
0.00805549
0.00840052
0.0087971
0.00922892
0.00971343
0.0102895
0.0108446
0.0112789
0.0115406
0.0116317
0.0115571
0.0113281
0.010946
0.0103914
0.00959186
0.00855148
0.00739573
0.00617056
0.00495613
0.00378441
0.00272425
0.00184532
0.00117959
0.00070873
0.000383772
0.000177222
9.26258e-05
9.92506e-05
0.00689976
0.00682208
0.00676281
0.00672414
0.00670284
0.00669101
0.00667439
0.0066734
0.00666988
0.0066707
0.00667165
0.00667383
0.00667637
0.00667931
0.0066825
0.00668592
0.00668952
0.00669334
0.00669733
0.00670157
0.00670601
0.00699847
0.00712922
0.00729718
0.00751148
0.00777329
0.00809601
0.00846554
0.00890082
0.00938392
0.00993613
0.0106636
0.0114416
0.0121081
0.0125136
0.0126533
0.0125838
0.01234
0.0119529
0.0114337
0.0107667
0.00987504
0.00876544
0.00755907
0.00629287
0.00504513
0.0038495
0.00276762
0.00187042
0.00119123
0.000712066
0.000383487
0.000176384
9.26872e-05
9.943e-05
0.00700079
0.00689488
0.0068141
0.00675692
0.00672099
0.00670106
0.0066882
0.00667465
0.00667248
0.00667012
0.00667052
0.00667187
0.0066739
0.00667655
0.00667944
0.00668264
0.00668603
0.00668962
0.00669341
0.00669738
0.0067016
0.00670602
0.00713341
0.00730493
0.00752477
0.00779652
0.00813361
0.00852743
0.0089996
0.00953249
0.010164
0.0110894
0.0121473
0.0131059
0.0137575
0.0140077
0.0139331
0.0136417
0.0131881
0.0126148
0.0119394
0.0111472
0.010156
0.00897398
0.00771628
0.00641036
0.00512971
0.00391122
0.00280882
0.0018943
0.00120232
0.00071526
0.000383296
0.000175687
9.27254e-05
9.96234e-05
0.00713724
0.00699416
0.00688317
0.00680616
0.00675128
0.006718
0.00669982
0.00668521
0.006675
0.0066716
0.00667033
0.00667039
0.00667206
0.006674
0.00667672
0.00667956
0.00668278
0.00668613
0.00668971
0.00669348
0.00669743
0.00670163
0.00670603
0.00731197
0.00753691
0.00781786
0.00816846
0.00858584
0.00909243
0.00967576
0.0104043
0.0115679
0.012932
0.0141897
0.0151104
0.015586
0.0155978
0.0152698
0.0147376
0.014063
0.0132943
0.0124539
0.0115292
0.0104333
0.00917665
0.00786729
0.00652283
0.00520997
0.00396963
0.00284785
0.00191696
0.00121287
0.000718305
0.00038313
0.000175146
9.27917e-05
9.98329e-05
0.00731834
0.00712831
0.00697745
0.00687145
0.00679838
0.00674585
0.00671517
0.0066988
0.00668223
0.00667533
0.00667083
0.00667049
0.00667033
0.00667222
0.00667412
0.00667687
0.0066797
0.0066829
0.00668624
0.0066898
0.00669354
0.00669748
0.00670166
0.00670604
0.007548
0.00783737
0.00820068
0.00864041
0.00917912
0.00981578
0.0106593
0.0120818
0.0137371
0.0152509
0.0163995
0.0171032
0.0173384
0.0171121
0.0165522
0.0158019
0.0149236
0.013969
0.0129664
0.0119081
0.0107055
0.00937299
0.00801203
0.00663019
0.005286
0.0040248
0.00288476
0.00193843
0.00122288
0.00072083
0.000383032
0.000174537
9.28473e-05
0.00010006
0.00755801
0.00730679
0.00710475
0.00696068
0.00685997
0.00679073
0.00674063
0.00671252
0.00669785
0.00667946
0.00667548
0.00667024
0.00667056
0.00667036
0.00667235
0.00667426
0.00667701
0.00667983
0.00668302
0.00668634
0.00668988
0.00669361
0.00669753
0.00670167
0.00670604
0.00785519
0.00823037
0.00869094
0.00926011
0.00995404
0.0109248
0.0126043
0.0145045
0.0162036
0.0175087
0.0183846
0.0188355
0.018856
0.0184434
0.0177054
0.0167832
0.0157363
0.0146191
0.0134666
0.0122793
0.0109708
0.00956254
0.00815049
0.00673242
0.00535793
0.00407687
0.0029196
0.00195873
0.00123111
0.000722989
0.00038288
0.000173929
9.29405e-05
0.000100306
0.00787112
0.00754302
0.00727422
0.00708112
0.00694423
0.00684874
0.00678314
0.00673575
0.00670996
0.00669687
0.00667717
0.00667533
0.00666988
0.00667054
0.00667044
0.00667245
0.00667442
0.00667714
0.00667997
0.00668313
0.00668644
0.00668997
0.00669368
0.00669756
0.00670167
0.00670604
0.00825766
0.00873745
0.00933611
0.0100907
0.0111929
0.0131096
0.0151948
0.0170046
0.0183922
0.0193703
0.019976
0.0202209
0.0200868
0.0195511
0.0186956
0.0176531
0.0164794
0.0152295
0.0139455
0.0126384
0.0112277
0.00974487
0.00828266
0.00682953
0.00542583
0.00412582
0.00295242
0.00197536
0.0012381
0.000725372
0.000382782
0.000173266
9.30197e-05
0.000100573
0.00828204
0.00785238
0.00749836
0.00724152
0.00705794
0.00692815
0.00683773
0.0067756
0.00673121
0.0067074
0.00669564
0.00667576
0.00667484
0.00666974
0.00667044
0.00667057
0.00667253
0.00667457
0.00667727
0.00668011
0.00668324
0.00668655
0.00669005
0.00669371
0.00669756
0.00670167
0.00670604
0.00878016
0.00940777
0.0102247
0.0114549
0.0135791
0.0157897
0.0176465
0.0190545
0.0200715
0.020765
0.0211672
0.0212711
0.0210413
0.0204383
0.0195178
0.0184025
0.0171422
0.015791
0.0143968
0.0129819
0.0114747
0.00991962
0.00840854
0.00692165
0.00549017
0.00417173
0.00297921
0.00198946
0.00124576
0.000727995
0.000382645
0.000172573
9.31466e-05
0.000100863
0.00881807
0.0082585
0.00779192
0.00745352
0.00720937
0.00703528
0.00691242
0.00682693
0.00676811
0.00672682
0.00670476
0.00669351
0.00667508
0.00667409
0.00666976
0.00667032
0.00667072
0.00667262
0.00667473
0.00667739
0.00668024
0.00668335
0.00668664
0.00669008
0.00669371
0.00669756
0.00670167
0.00670604
0.00947549
0.0103542
0.0117033
0.0140029
0.0162872
0.0181427
0.0195256
0.0205323
0.0212565
0.0217493
0.0220179
0.0220363
0.0217567
0.0211284
0.0201841
0.0190346
0.0177225
0.016299
0.0148162
0.013307
0.0117107
0.0100865
0.00852818
0.00700873
0.00555115
0.00420912
0.00300186
0.00200486
0.00125416
0.000730907
0.000382537
0.000171856
9.32587e-05
0.000101175
0.00953698
0.00878903
0.00817675
0.00773117
0.00740942
0.0071779
0.00701313
0.00689706
0.0068164
0.00676078
0.0067226
0.00670219
0.00669074
0.00667494
0.00667322
0.00666987
0.00667019
0.00667088
0.0066727
0.00667489
0.00667751
0.00668037
0.00668345
0.00668669
0.00669008
0.00669371
0.00669756
0.00670167
0.00670604
0.0104776
0.0119367
0.0143779
0.0166945
0.0185152
0.0198427
0.0208047
0.0215161
0.0220444
0.0224106
0.0225997
0.0225727
0.0222758
0.0216516
0.0207133
0.0195592
0.0182236
0.0167531
0.0152019
0.0136123
0.0119348
0.0102452
0.00864167
0.00709088
0.0056012
0.00424067
0.00302655
0.00202171
0.00126338
0.0007341
0.000382424
0.000171066
9.34299e-05
0.000101515
0.0105884
0.00950067
0.00867803
0.00809475
0.00767131
0.00736621
0.00714713
0.00699149
0.00688209
0.00680625
0.00675352
0.00671874
0.00669999
0.00668748
0.00667509
0.00667235
0.00667001
0.00667008
0.00667104
0.00667279
0.00667504
0.00667763
0.0066805
0.0066835
0.0066867
0.00669008
0.00669371
0.00669756
0.00670167
0.00670603
0.0121559
0.0147034
0.0170234
0.0187879
0.0200415
0.0209366
0.0216044
0.0221262
0.022536
0.0228295
0.0229763
0.022931
0.0226385
0.0220381
0.0211267
0.0199895
0.018652
0.0171553
0.0155536
0.0138967
0.0121465
0.0103957
0.00874907
0.00715807
0.00564364
0.00427504
0.00305348
0.00204014
0.0012735
0.000737673
0.000382312
0.000170284
9.35901e-05
0.00010188
0.0105472
0.0123508
0.00933943
0.00856831
0.0080138
0.00761261
0.00732389
0.00711704
0.00697041
0.00686759
0.00679665
0.00674664
0.00671516
0.00669855
0.00668425
0.0066753
0.00667158
0.00667012
0.00667001
0.00667118
0.00667289
0.00667518
0.00667774
0.00668056
0.0066835
0.0066867
0.00669008
0.00669371
0.00669756
0.00670166
0.00670602
0.0149806
0.0172864
0.0189824
0.0201521
0.0209674
0.0215712
0.0220561
0.0224676
0.0228128
0.0230694
0.0231981
0.0231523
0.0228786
0.022315
0.0214441
0.0203387
0.0190156
0.0175091
0.0158721
0.0141601
0.0123455
0.010538
0.00883711
0.00721495
0.00569009
0.0043125
0.00308287
0.00206033
0.00128463
0.000741548
0.000382219
0.000169412
9.38209e-05
0.000102276
0.0103003
0.0123121
0.0152062
0.00918453
0.00846043
0.00793424
0.00755506
0.00728248
0.0070877
0.00694993
0.00685363
0.0067874
0.00674015
0.0067119
0.00669739
0.00668132
0.00667542
0.00667097
0.00667019
0.00666999
0.0066713
0.006673
0.00667532
0.0066778
0.00668056
0.0066835
0.0066867
0.00669008
0.00669371
0.00669753
0.00670163
0.00670601
0.0174953
0.019117
0.0201989
0.0209277
0.021455
0.0218816
0.0222634
0.0226187
0.0229346
0.023177
0.0233034
0.023269
0.0230237
0.0225052
0.0216834
0.0206198
0.0193225
0.0178188
0.0161591
0.0144029
0.0125319
0.0106543
0.00891174
0.0072771
0.00574096
0.00435337
0.00311496
0.00208244
0.00129687
0.000745943
0.000382123
0.000168549
9.40519e-05
0.000102698
0.010058
0.011959
0.0151399
0.0176508
0.00903683
0.00835407
0.00785617
0.00749868
0.00724204
0.00705915
0.0069301
0.00684016
0.00677849
0.00673412
0.00670903
0.00669632
0.00667889
0.00667535
0.00667053
0.0066702
0.00667001
0.00667141
0.00667312
0.00667539
0.00667779
0.00668056
0.0066835
0.00668669
0.00669008
0.00669367
0.00669748
0.0067016
0.006706
0.0192062
0.0202006
0.0208408
0.0212845
0.0216388
0.0219676
0.0223003
0.0226346
0.0229434
0.0231862
0.0233205
0.0233059
0.0230959
0.0226276
0.02186
0.0208442
0.0195804
0.0180891
0.0164169
0.0146259
0.0126827
0.0107528
0.00899338
0.00734505
0.0057967
0.00439798
0.00315002
0.00210669
0.00131034
0.000750746
0.000382056
0.000167593
9.43637e-05
0.000103156
0.00983077
0.0115773
0.0147827
0.0175515
0.0192522
0.00889404
0.00824918
0.0077797
0.00744355
0.00720265
0.00703145
0.00691095
0.00682724
0.00677006
0.0067288
0.00670639
0.00669519
0.00667721
0.00667504
0.00667026
0.00667016
0.00667007
0.00667152
0.00667317
0.00667539
0.00667779
0.00668056
0.0066835
0.00668669
0.00669004
0.00669361
0.00669743
0.00670157
0.00670598
0.0201709
0.0207238
0.0210809
0.0213541
0.0216134
0.0218978
0.0222168
0.0225527
0.0228683
0.0231205
0.0232704
0.0232823
0.0231126
0.0226975
0.0219865
0.0210219
0.0197965
0.0183243
0.0166478
0.0148029
0.0128095
0.0108603
0.00908272
0.00741941
0.00585781
0.00444674
0.00318834
0.00213327
0.0013252
0.000756084
0.00038198
0.000166639
9.47e-05
0.000103638
0.00961805
0.0112019
0.0143391
0.0173182
0.0190991
0.0201097
0.00875447
0.00814598
0.00770494
0.00738978
0.00716442
0.00700466
0.0068926
0.00681516
0.00676226
0.00672422
0.00670386
0.00669352
0.00667625
0.00667453
0.00667014
0.00667009
0.00667016
0.00667155
0.00667317
0.00667539
0.00667779
0.00668056
0.0066835
0.00668664
0.00668996
0.00669354
0.00669738
0.00670154
0.00670597
0.0205886
0.0208597
0.0210473
0.0212257
0.0214423
0.0217181
0.0220469
0.0223983
0.0227289
0.022997
0.0231687
0.023213
0.0230874
0.0227272
0.0220736
0.0211613
0.0199772
0.0185289
0.0168266
0.0149498
0.0129467
0.0109775
0.00918052
0.00750084
0.00592487
0.00450007
0.00323026
0.00216245
0.00134154
0.000762008
0.000381946
0.000165608
9.51249e-05
0.00010416
0.00941672
0.0108456
0.0138497
0.0169975
0.0189391
0.019901
0.0204306
0.00861755
0.00804481
0.00763207
0.00733752
0.00712743
0.00697901
0.00687552
0.0068041
0.00675492
0.00672013
0.00670152
0.00669128
0.00667582
0.00667389
0.00667012
0.00667001
0.00667023
0.00667152
0.00667317
0.00667539
0.00667779
0.00668056
0.00668345
0.00668654
0.00668988
0.00669347
0.00669733
0.00670151
0.00670595
0.0206313
0.0207324
0.0208231
0.0209576
0.0211674
0.0214592
0.0218128
0.0221878
0.0225386
0.0228278
0.0230276
0.0231095
0.0230312
0.0227264
0.0221297
0.0212697
0.020128
0.0186824
0.016973
0.0151065
0.013095
0.0111052
0.00928759
0.00759006
0.00599849
0.00455847
0.00327614
0.00219447
0.00135959
0.000768567
0.0003819
0.000164546
9.56178e-05
0.0001047
0.00922431
0.0105123
0.013336
0.016615
0.018708
0.0197739
0.0201659
0.0203853
0.00848339
0.00794598
0.00756129
0.00728691
0.00709202
0.00695516
0.00685994
0.006794
0.00674815
0.00671655
0.00669957
0.00668864
0.0066757
0.00667319
0.00667019
0.00666989
0.00667026
0.00667151
0.00667317
0.00667539
0.0066778
0.00668049
0.00668335
0.00668644
0.00668979
0.0066934
0.00669727
0.00670148
0.00670593
0.020419
0.0204194
0.0204623
0.0205885
0.0208175
0.021142
0.0215289
0.0219316
0.0223064
0.0226224
0.0228565
0.022981
0.0229524
0.0227028
0.0221617
0.0213528
0.0202361
0.0188061
0.0171264
0.0152732
0.0132548
0.0112444
0.0094048
0.0076879
0.00607937
0.00462247
0.0033264
0.00222966
0.00137949
0.000775816
0.000381895
0.000163461
9.62048e-05
0.000105385
0.00903921
0.0102031
0.0128088
0.016183
0.0184328
0.0195891
0.0200411
0.0200643
0.0200907
0.00835232
0.00784985
0.00749279
0.00723845
0.00705913
0.00693344
0.00684576
0.00678491
0.00674194
0.00671343
0.00669824
0.00668596
0.00667575
0.00667252
0.00667033
0.00666977
0.00667029
0.00667151
0.00667317
0.00667539
0.00667774
0.00668036
0.00668324
0.00668634
0.0066897
0.00669333
0.00669721
0.00670145
0.00670591
0.0200238
0.0199706
0.0200006
0.0201455
0.0204126
0.0207796
0.0212036
0.0216361
0.0220389
0.0223879
0.022663
0.0228348
0.0228577
0.0226626
0.022175
0.0214057
0.0203212
0.018933
0.0172863
0.0154496
0.0134266
0.0113957
0.00953309
0.00779522
0.00616827
0.0046927
0.00338151
0.00226832
0.00140144
0.000783888
0.000381894
0.000162257
9.70668e-05
0.000106172
0.00886076
0.00991759
0.0122762
0.0157028
0.0181262
0.0193757
0.0198671
0.019922
0.0197125
0.0196223
0.0082246
0.00775686
0.00742724
0.00719347
0.00702921
0.00691369
0.00683289
0.00677677
0.00673634
0.00671062
0.00669713
0.00668349
0.00667588
0.00667196
0.00667048
0.00666971
0.00667028
0.00667152
0.00667317
0.00667532
0.00667763
0.00668023
0.00668313
0.00668623
0.00668961
0.00669326
0.00669714
0.00670143
0.00670589
0.0194919
0.0194189
0.0194635
0.0196487
0.0199651
0.0203791
0.020841
0.021305
0.021741
0.0221307
0.0224535
0.0226768
0.0227524
0.0226105
0.0221723
0.0214453
0.0204055
0.0190621
0.0174522
0.0156355
0.0136107
0.0115599
0.0096734
0.00791298
0.00626605
0.00476984
0.00344196
0.00231083
0.0014257
0.00079274
0.000381895
0.000160909
9.8161e-05