/*--------------------------------*- C++ -*----------------------------------*\
  =========                 |
  \\      /  F ield         | OpenFOAM: The Open Source CFD Toolbox
   \\    /   O peration     | Website:  https://openfoam.org
    \\  /    A nd           | Version:  8
     \\/     M anipulation  |
\*---------------------------------------------------------------------------*/
FoamFile
{
    version     2.0;
    format      ascii;
    class       volScalarField;
    location    "0.43";
    object      k;
}
// * * * * * * * * * * * * * * * * * * * * * * * * * * * * * * * * * * * * * //

dimensions      [0 2 -2 0 0 0 0];

internalField   nonuniform List<scalar> 
15677
(
0.334171
0.36505
0.294765
0.368741
0.357703
0.281034
0.370699
0.360085
0.366134
0.282751
0.371889
0.361637
0.361478
0.383318
0.288857
0.372614
0.363746
0.357744
0.368337
0.40166
0.300273
0.373041
0.365665
0.357854
0.358164
0.380108
0.419348
0.311783
0.373264
0.367181
0.359468
0.354601
0.361046
0.393284
0.43475
0.322609
0.373349
0.368306
0.361363
0.354786
0.353073
0.3669
0.406152
0.44789
0.332127
0.373349
0.369082
0.36307
0.356352
0.351137
0.35351
0.373553
0.418269
0.458773
0.340549
0.373314
0.369567
0.364446
0.358229
0.351945
0.348806
0.354792
0.380692
0.429108
0.467967
0.347669
0.373275
0.369823
0.365465
0.359967
0.35373
0.348402
0.347165
0.357123
0.387657
0.438861
0.475527
0.353934
0.373249
0.369925
0.366151
0.3614
0.355676
0.349783
0.345377
0.346342
0.359715
0.394455
0.44731
0.482005
0.35916
0.37324
0.369939
0.36655
0.36248
0.357435
0.351737
0.346229
0.34295
0.345908
0.362619
0.400713
0.45482
0.487358
0.36386
0.373239
0.369922
0.366738
0.363211
0.358867
0.353696
0.348094
0.343119
0.340889
0.345922
0.365488
0.406601
0.461207
0.491979
0.367955
0.37324
0.369907
0.366796
0.363636
0.359924
0.355403
0.350178
0.344777
0.340323
0.339219
0.346058
0.368402
0.411808
0.466865
0.495819
0.371586
0.373239
0.3699
0.366796
0.363834
0.360615
0.356748
0.352108
0.346907
0.341733
0.33785
0.337774
0.346391
0.371096
0.416623
0.471573
0.499219
0.374902
0.373238
0.369897
0.366786
0.363892
0.360997
0.357701
0.353709
0.349004
0.343867
0.338957
0.335621
0.336555
0.346796
0.373738
0.420714
0.475726
0.502153
0.377737
0.373237
0.369896
0.366776
0.3639
0.361145
0.358287
0.354907
0.350822
0.346097
0.341054
0.336421
0.333622
0.335491
0.347315
0.376031
0.424416
0.479152
0.504748
0.380592
0.373236
0.369896
0.366769
0.363896
0.361188
0.358556
0.355699
0.352247
0.348106
0.343382
0.338465
0.334103
0.331821
0.33461
0.347765
0.378194
0.427442
0.482158
0.50715
0.382834
0.373236
0.369896
0.366764
0.36389
0.361191
0.358661
0.356098
0.353243
0.349737
0.345557
0.340876
0.336082
0.332
0.330222
0.333824
0.348256
0.379957
0.430144
0.484637
0.509219
0.385481
0.373235
0.369897
0.36676
0.363886
0.361183
0.358693
0.35627
0.353787
0.350924
0.347377
0.343201
0.338563
0.333922
0.330105
0.328803
0.333171
0.348635
0.381576
0.432241
0.486805
0.511375
0.387266
0.373235
0.369896
0.366757
0.363883
0.361173
0.358697
0.356332
0.354049
0.351605
0.348753
0.3452
0.341026
0.336477
0.331976
0.328435
0.327571
0.332598
0.349008
0.382792
0.434128
0.488606
0.513107
0.389888
0.373235
0.369896
0.366755
0.36388
0.361164
0.358692
0.356344
0.354163
0.351948
0.349583
0.346748
0.343191
0.339081
0.334609
0.330278
0.326986
0.326526
0.332129
0.349282
0.383919
0.435471
0.490225
0.515276
0.391341
0.373235
0.369896
0.366753
0.363878
0.361156
0.358685
0.356337
0.354203
0.352105
0.350031
0.347708
0.344916
0.34142
0.337354
0.333003
0.32883
0.325794
0.325692
0.331788
0.349541
0.38466
0.436765
0.491534
0.516742
0.393965
0.373236
0.369896
0.366752
0.363876
0.36115
0.358678
0.356325
0.35421
0.352163
0.350258
0.348237
0.346029
0.343315
0.339852
0.335908
0.331689
0.327699
0.324878
0.32507
0.331504
0.349739
0.385404
0.437545
0.492948
0.519321
0.395352
0.373236
0.369895
0.366752
0.363874
0.361146
0.358671
0.356312
0.354202
0.352173
0.350357
0.348509
0.346678
0.344549
0.341917
0.33862
0.334789
0.330703
0.326847
0.324228
0.324705
0.331505
0.35001
0.385851
0.4385
0.493846
0.520983
0.505238
0.373236
0.369895
0.366751
0.363872
0.361144
0.358666
0.356302
0.354189
0.352163
0.350387
0.34863
0.347037
0.345268
0.343328
0.3409
0.33766
0.333967
0.330067
0.326467
0.324074
0.324746
0.331605
0.350253
0.386338
0.43895
0.495816
0.529731
0.711682
0.373236
0.369894
0.366751
0.363871
0.361141
0.358661
0.356293
0.354176
0.352146
0.350385
0.34867
0.347211
0.345665
0.3442
0.342422
0.340082
0.337163
0.333774
0.330095
0.326573
0.324235
0.324973
0.331865
0.350582
0.386721
0.439854
0.496463
0.54659
0.887379
0.373237
0.369893
0.366751
0.36387
0.36114
0.358657
0.356286
0.354165
0.352129
0.350367
0.34867
0.347277
0.345862
0.344714
0.343338
0.341852
0.339995
0.337274
0.334006
0.330425
0.326997
0.324712
0.325492
0.33239
0.351048
0.387134
0.440568
0.4962
0.559434
1.02939
0.373237
0.369893
0.366752
0.363868
0.361139
0.358653
0.356281
0.354155
0.352115
0.350346
0.348652
0.347284
0.345944
0.344983
0.34387
0.343008
0.341948
0.340274
0.337762
0.334681
0.331238
0.327922
0.325673
0.32647
0.333235
0.351656
0.387776
0.440329
0.494735
0.569005
1.15223
0.373237
0.369892
0.366752
0.363867
0.361138
0.35865
0.356277
0.354146
0.352102
0.350326
0.348628
0.347263
0.345963
0.345093
0.344157
0.343726
0.343192
0.342412
0.341048
0.338837
0.336045
0.332801
0.329529
0.327222
0.327852
0.334407
0.352525
0.388265
0.439439
0.491643
0.575558
1.25161
0.373238
0.369892
0.366752
0.363866
0.361138
0.358647
0.356274
0.354139
0.352092
0.350308
0.348605
0.347232
0.345948
0.345116
0.344305
0.344136
0.343975
0.343806
0.34345
0.342595
0.340795
0.338249
0.335101
0.3318
0.329316
0.329696
0.335933
0.35359
0.388658
0.437587
0.486261
0.579843
1.32462
0.373238
0.369892
0.366753
0.363865
0.361137
0.358645
0.356271
0.354132
0.352083
0.350293
0.348584
0.347201
0.345917
0.345096
0.344359
0.344327
0.344431
0.3447
0.345086
0.345415
0.345077
0.343636
0.341299
0.338201
0.334762
0.332027
0.332004
0.337843
0.354847
0.388622
0.43436
0.479536
0.582559
1.37996
0.373238
0.369891
0.366753
0.363864
0.361137
0.358642
0.356269
0.354126
0.352076
0.350279
0.348565
0.347173
0.345884
0.345057
0.344357
0.344397
0.344667
0.345242
0.346172
0.347336
0.348332
0.348553
0.347461
0.345294
0.342146
0.338492
0.335351
0.33482
0.340107
0.356226
0.388361
0.430112
0.472791
0.584885
1.42363
0.369891
0.373242
0.366753
0.363863
0.361137
0.35864
0.356267
0.354121
0.352069
0.350268
0.348549
0.347149
0.345852
0.345016
0.344325
0.344405
0.344769
0.345547
0.346862
0.348648
0.350608
0.35235
0.353149
0.352383
0.350297
0.347019
0.342995
0.339345
0.338109
0.342728
0.357868
0.387747
0.425678
0.466456
0.587201
1.45957
0.366753
0.369901
0.373249
0.363863
0.361137
0.358638
0.356266
0.354117
0.352064
0.350258
0.348536
0.347128
0.345823
0.344977
0.344284
0.344379
0.344798
0.345702
0.347286
0.349522
0.352214
0.355074
0.357618
0.359001
0.358486
0.356403
0.352837
0.348334
0.343965
0.341879
0.346
0.359916
0.38689
0.421322
0.460748
0.589951
1.49033
0.363862
0.36677
0.369921
0.373257
0.361137
0.358637
0.356265
0.354113
0.35206
0.350249
0.348524
0.347109
0.345798
0.344943
0.344244
0.344342
0.344788
0.345771
0.347534
0.350096
0.353335
0.357061
0.360904
0.364295
0.366217
0.365882
0.36364
0.359669
0.354461
0.349229
0.346568
0.349983
0.362108
0.386065
0.417305
0.455769
0.593013
1.51747
0.361137
0.363883
0.366804
0.369942
0.373265
0.358635
0.356264
0.354109
0.352057
0.350241
0.348514
0.347093
0.345776
0.344912
0.344206
0.344303
0.344762
0.345792
0.347677
0.350475
0.354125
0.358516
0.363384
0.368285
0.372514
0.37493
0.374612
0.372089
0.36747
0.361403
0.355741
0.352428
0.354288
0.364484
0.38534
0.413605
0.451455
0.596532
1.54206
0.358634
0.361165
0.363927
0.366839
0.369964
0.373274
0.356264
0.354106
0.352054
0.350235
0.348506
0.347079
0.345756
0.344886
0.344173
0.344268
0.344732
0.345792
0.347759
0.350736
0.354698
0.359606
0.365284
0.371398
0.377378
0.382434
0.3852
0.384775
0.381707
0.376274
0.36996
0.363805
0.358862
0.358882
0.367004
0.384802
0.410284
0.447842
0.600332
1.56461
0.356263
0.358664
0.361221
0.363973
0.366875
0.369986
0.373282
0.354103
0.352051
0.350228
0.348498
0.347067
0.34574
0.344863
0.344144
0.344235
0.344704
0.345784
0.347809
0.350922
0.355141
0.360463
0.366793
0.373888
0.381295
0.38837
0.394139
0.397146
0.396328
0.392542
0.387102
0.380515
0.372616
0.365779
0.363722
0.369712
0.384554
0.407362
0.44475
0.604393
1.58566
0.354101
0.356299
0.358728
0.361278
0.36402
0.366912
0.370009
0.373291
0.352049
0.350223
0.348492
0.347056
0.345725
0.344843
0.344118
0.344207
0.344678
0.345774
0.347844
0.351063
0.355497
0.361182
0.368057
0.375971
0.384563
0.393307
0.401378
0.407779
0.410732
0.40934
0.405858
0.400436
0.392012
0.382064
0.373088
0.36875
0.372521
0.384623
0.404867
0.442153
0.608618
1.60527
0.352048
0.354138
0.356372
0.358793
0.361337
0.364067
0.36695
0.370033
0.3733
0.350218
0.348487
0.347046
0.345713
0.344826
0.344096
0.344183
0.344656
0.345766
0.347873
0.351181
0.355792
0.361801
0.369184
0.377809
0.387419
0.397585
0.407596
0.416604
0.423337
0.426065
0.42533
0.422244
0.414941
0.404312
0.392025
0.380698
0.373948
0.37536
0.384847
0.402755
0.43997
0.612933
1.6238
0.350213
0.352089
0.354216
0.356447
0.35886
0.361397
0.364117
0.366989
0.370057
0.373309
0.348483
0.347037
0.345703
0.34481
0.344076
0.344162
0.344636
0.345758
0.347899
0.351284
0.35605
0.36234
0.370202
0.379525
0.390052
0.401475
0.413169
0.424414
0.434066
0.440979
0.444939
0.44503
0.440062
0.430437
0.417253
0.402376
0.388525
0.379286
0.378233
0.385302
0.401001
0.438159
0.617283
1.64113
0.34848
0.350253
0.352175
0.354296
0.356525
0.358929
0.36146
0.364167
0.367029
0.370082
0.373318
0.347029
0.345694
0.344797
0.344059
0.344143
0.34462
0.345753
0.347922
0.351377
0.356281
0.362822
0.371117
0.381132
0.3926
0.405196
0.418419
0.431644
0.443823
0.453991
0.462823
0.468313
0.466498
0.459095
0.446713
0.430672
0.413002
0.396491
0.384702
0.381129
0.38593
0.399533
0.436666
0.621635
1.65758
0.347022
0.348522
0.35034
0.352263
0.354379
0.356605
0.359
0.361523
0.36422
0.36707
0.370107
0.373328
0.345686
0.344785
0.344044
0.344127
0.344606
0.345748
0.347945
0.351463
0.356492
0.363261
0.371951
0.382608
0.395055
0.408911
0.423602
0.438673
0.453125
0.466141
0.478808
0.490078
0.493945
0.489495
0.479098
0.463574
0.444418
0.423786
0.40452
0.39014
0.38405
0.386741
0.398376
0.435444
0.625896
1.67294
0.34568
0.347059
0.348613
0.35043
0.352355
0.354464
0.356687
0.359073
0.361589
0.364273
0.367112
0.370134
0.373337
0.344774
0.34403
0.344113
0.344594
0.345745
0.347965
0.351541
0.356684
0.363663
0.372719
0.383974
0.397355
0.412581
0.428912
0.445813
0.462436
0.478065
0.494156
0.510053
0.5202
0.521596
0.513775
0.499847
0.480826
0.458337
0.434619
0.412537
0.395557
0.386961
0.387591
0.397468
0.434471
0.630136
1.68754
0.344764
0.345716
0.347144
0.348707
0.350522
0.352449
0.354552
0.356771
0.359148
0.361656
0.364328
0.367155
0.370161
0.373347
0.344018
0.344101
0.344583
0.345743
0.347985
0.351612
0.356859
0.364032
0.373426
0.385242
0.399513
0.416077
0.434262
0.453311
0.472143
0.490334
0.509661
0.529831
0.544939
0.552973
0.550979
0.539079
0.521114
0.498286
0.472289
0.445404
0.42048
0.40091
0.389885
0.388478
0.396776
0.433683
0.634175
1.70111
0.344008
0.344788
0.345795
0.347231
0.348804
0.350618
0.352546
0.354643
0.356858
0.359225
0.361725
0.364385
0.367198
0.370187
0.373356
0.34409
0.344574
0.345741
0.348002
0.351677
0.357019
0.364369
0.374078
0.38642
0.401538
0.419394
0.439439
0.461034
0.482567
0.503445
0.526064
0.550459
0.57018
0.583333
0.58814
0.58181
0.565151
0.542697
0.515787
0.486153
0.456057
0.428294
0.406168
0.39279
0.389398
0.396245
0.433087
0.638211
1.71403
0.344083
0.344015
0.344848
0.345877
0.347322
0.348905
0.350717
0.352646
0.354736
0.356947
0.359305
0.361796
0.364443
0.367242
0.370213
0.373365
0.344564
0.345739
0.348018
0.351737
0.357165
0.364678
0.374677
0.387511
0.403433
0.422533
0.444417
0.468643
0.493492
0.517836
0.544063
0.572985
0.59735
0.615255
0.625081
0.625458
0.613814
0.591734
0.564399
0.533185
0.499822
0.466503
0.435931
0.411303
0.395657
0.390341
0.39587
0.432611
0.641957
1.72598
0.344558
0.344068
0.344038
0.344908
0.345964
0.347416
0.34901
0.350818
0.352749
0.354832
0.357038
0.359386
0.361869
0.3645
0.367284
0.370239
0.373374
0.345737
0.348032
0.351791
0.357298
0.364961
0.375226
0.388519
0.405199
0.425491
0.449185
0.476054
0.50439
0.533256
0.564343
0.598476
0.627995
0.650786
0.6652
0.670118
0.664727
0.646743
0.618597
0.586042
0.550352
0.513208
0.476682
0.443353
0.416293
0.398465
0.391302
0.395593
0.432278
0.645732
1.73737
0.345738
0.344513
0.34404
0.34407
0.34497
0.346058
0.347513
0.349119
0.350924
0.352855
0.354931
0.357132
0.35947
0.36194
0.364556
0.367325
0.370263
0.373382
0.348043
0.351839
0.357419
0.365218
0.375729
0.389447
0.406839
0.428268
0.453727
0.483217
0.515128
0.549022
0.586635
0.62805
0.663885
0.692458
0.711685
0.720471
0.718523
0.705811
0.680384
0.645544
0.607475
0.567185
0.526241
0.486548
0.45053
0.42112
0.4012
0.392268
0.395433
0.432021
0.649151
1.74784
0.348059
0.345651
0.344419
0.343995
0.344117
0.345036
0.346156
0.347615
0.349231
0.351033
0.352964
0.355034
0.357228
0.359553
0.36201
0.364611
0.367365
0.370287
0.373391
0.351882
0.357528
0.365453
0.376189
0.3903
0.408357
0.430862
0.458028
0.490089
0.525658
0.56495
0.609835
0.661496
0.707325
0.743791
0.769098
0.781726
0.781844
0.770493
0.748626
0.714567
0.672413
0.62857
0.583603
0.538865
0.496066
0.45744
0.42577
0.403853
0.393234
0.395324
0.431871
0.65264
1.75785
0.35193
0.347903
0.345455
0.344319
0.343951
0.344176
0.345105
0.346261
0.347721
0.349347
0.351145
0.353076
0.355138
0.357323
0.359634
0.362077
0.364664
0.367403
0.370311
0.373399
0.357626
0.365664
0.376608
0.391083
0.409757
0.433277
0.462078
0.496645
0.535936
0.580882
0.633473
0.697569
0.759543
0.810202
0.844417
0.861827
0.86293
0.850136
0.826218
0.7931
0.749144
0.699069
0.649224
0.599539
0.551041
0.505209
0.464068
0.430232
0.406413
0.394191
0.395309
0.431765
0.655732
1.76587
0.357727
0.351689
0.347532
0.34525
0.344229
0.343915
0.344245
0.345179
0.34637
0.347831
0.349467
0.351262
0.35319
0.355242
0.357415
0.359713
0.362143
0.364715
0.367441
0.370333
0.373406
0.365856
0.376988
0.391798
0.411047
0.435519
0.465876
0.502869
0.545905
0.596618
0.657347
0.736461
0.820365
0.89589
0.947607
0.972184
0.973864
0.956646
0.925761
0.885708
0.839107
0.783974
0.725399
0.669358
0.614942
0.562738
0.513961
0.470403
0.434501
0.408875
0.395132
0.395324
0.43175
0.658492
1.77261
0.366045
0.357374
0.35108
0.347146
0.345063
0.344148
0.343888
0.344321
0.345258
0.346484
0.347945
0.34959
0.351381
0.353304
0.355344
0.357505
0.35979
0.362207
0.364766
0.367477
0.370355
0.373414
0.377335
0.39245
0.412231
0.437594
0.469426
0.508753
0.555507
0.611997
0.68148
0.778757
0.890398
0.999641
1.08379
1.12595
1.1295
1.10574
1.06271
1.00839
0.948669
0.886423
0.818902
0.751302
0.688911
0.629775
0.573938
0.522313
0.47644
0.438572
0.411234
0.396057
0.395359
0.431761
0.660679
1.77989
0.377667
0.36555
0.356429
0.350449
0.346785
0.344891
0.344076
0.34387
0.344402
0.345344
0.346601
0.348066
0.349716
0.351501
0.353414
0.355443
0.357592
0.359865
0.362269
0.364814
0.367512
0.370377
0.373421
0.39305
0.413316
0.43951
0.472733
0.514295
0.564694
0.626934
0.706023
0.824606
0.968808
1.11826
1.24511
1.32446
1.34296
1.31339
1.2549
1.17934
1.09693
1.01448
0.934712
0.853756
0.77669
0.707833
0.644014
0.584633
0.530262
0.482178
0.442445
0.413489
0.396961
0.395417
0.431787
0.663209
1.7878
0.393608
0.376995
0.364136
0.355453
0.349852
0.34645
0.344731
0.344015
0.343864
0.344487
0.345438
0.346723
0.348191
0.349842
0.351618
0.353522
0.355539
0.357677
0.359937
0.362329
0.364862
0.367547
0.370397
0.373425
0.41432
0.441278
0.475807
0.519495
0.573438
0.641406
0.731069
0.873457
1.05314
1.24643
1.422
1.55037
1.60918
1.59063
1.51754
1.4169
1.30368
1.18973
1.08226
0.983548
0.888347
0.801478
0.726089
0.657646
0.594817
0.537807
0.48762
0.446122
0.415638
0.397723
0.395479
0.431851
0.665806
1.7964
0.415234
0.392722
0.374927
0.362683
0.354526
0.349287
0.346135
0.344584
0.343965
0.343869
0.344575
0.345541
0.346846
0.348317
0.349964
0.351732
0.353626
0.355633
0.35776
0.360008
0.362388
0.364908
0.36758
0.370408
0.373425
0.442922
0.478661
0.524361
0.581729
0.655421
0.756566
0.924264
1.14039
1.37853
1.60551
1.78934
1.90258
1.92651
1.85954
1.73486
1.58675
1.43254
1.28493
1.15103
1.03246
0.922476
0.825588
0.743653
0.670663
0.604494
0.544956
0.492769
0.449604
0.417412
0.398382
0.395561
0.431933
0.668872
1.80579
0.444393
0.414091
0.389754
0.37282
0.361299
0.353641
0.348746
0.34584
0.344449
0.343925
0.343891
0.344663
0.345653
0.34697
0.348441
0.350083
0.351844
0.353728
0.355725
0.35784
0.360077
0.362445
0.364952
0.367597
0.370408
0.373425
0.481327
0.528912
0.589577
0.66899
0.782323
0.975837
1.22789
1.51001
1.78855
2.03075
2.20613
2.28942
2.26603
2.1413
1.95895
1.75994
1.56294
1.38071
1.21982
1.08097
0.955947
0.848954
0.760505
0.683064
0.613672
0.551716
0.497634
0.452462
0.418923
0.399115
0.395667
0.432093
0.671984
1.816
0.483676
0.442936
0.409882
0.386752
0.370809
0.359973
0.352791
0.348226
0.345567
0.344325
0.343892
0.34394
0.344752
0.34577
0.34709
0.348564
0.350199
0.351953
0.353827
0.355814
0.357918
0.360144
0.3625
0.364975
0.367597
0.370408
0.373425
0.533183
0.597011
0.682129
0.808086
1.02709
1.3136
1.63775
1.96629
2.26696
2.50823
2.66051
2.70071
2.61913
2.42899
2.18462
1.93275
1.69237
1.47552
1.28772
1.12864
0.988582
0.871512
0.77663
0.694853
0.62236
0.558099
0.501617
0.454886
0.420583
0.399935
0.395808
0.432267
0.675704
1.82714
0.536905
0.481847
0.437015
0.405663
0.383887
0.368876
0.358692
0.35197
0.347726
0.345312
0.34421
0.343849
0.344009
0.34484
0.345887
0.347208
0.348684
0.350312
0.352059
0.353924
0.3559
0.357994
0.360209
0.362527
0.364975
0.367597
0.370408
0.373425
0.604071
0.694861
0.83361
1.07718
1.39617
1.75982
2.13578
2.49302
2.80054
3.02684
3.14273
3.12791
2.97873
2.71711
2.40784
2.10233
1.81891
1.56811
1.35401
1.1751
1.02022
0.893212
0.792024
0.706041
0.630573
0.563323
0.50499
0.457539
0.422408
0.400853
0.395985
0.432554
0.679451
1.83924
0.610225
0.534604
0.473536
0.431137
0.401633
0.381125
0.367003
0.357452
0.351179
0.34725
0.345075
0.344109
0.343811
0.344089
0.344928
0.346005
0.347324
0.348802
0.350422
0.352162
0.354018
0.355985
0.358068
0.360241
0.362527
0.364975
0.367597
0.370408
0.373425
0.707187
0.858682
1.12549
1.47474
1.87512
2.29535
2.70596
3.07748
3.37867
3.57717
3.64429
3.56361
3.33887
3.00128
2.62557
2.26663
1.94114
1.65754
1.41812
1.22002
1.05073
0.914015
0.806687
0.716638
0.637302
0.567746
0.508676
0.460444
0.424419
0.401881
0.396214
0.432859
0.683992
1.85246
0.718027
0.607361
0.522843
0.465381
0.425521
0.397742
0.378444
0.365186
0.356254
0.350421
0.346803
0.344859
0.344019
0.343785
0.344175
0.345018
0.346121
0.347438
0.348916
0.35053
0.352263
0.354109
0.356067
0.358104
0.360241
0.362527
0.364975
0.367597
0.370408
0.373421
0.883065
1.17161
1.54886
1.98312
2.44423
2.90424
3.33568
3.70916
3.99203
4.15061
4.15738
4.00122
3.69452
3.27805
2.83558
2.42418
2.05809
1.74317
1.47962
1.26317
1.08001
0.933895
0.820621
0.725338
0.643002
0.572577
0.512704
0.463628
0.426636
0.403037
0.396495
0.433327
0.688552
1.86678
0.714565
0.904494
0.590064
0.511526
0.457585
0.42009
0.393958
0.375837
0.363426
0.355101
0.349698
0.346385
0.344663
0.343944
0.343774
0.344262
0.34511
0.346235
0.347551
0.349028
0.350636
0.352361
0.354198
0.356107
0.358104
0.360241
0.362527
0.364975
0.367597
0.370397
0.373414
1.21522
1.61832
2.08367
2.58217
3.08725
3.57346
4.01407
4.37852
4.63184
4.73898
4.67466
4.43478
4.04147
3.5448
3.0363
2.57407
2.16919
1.82459
1.53823
1.30439
1.10798
0.952834
0.832092
0.732719
0.649236
0.577858
0.517112
0.467121
0.429083
0.404336
0.396853
0.433823
0.694132
1.88241
0.687456
0.901492
1.25273
0.573937
0.500729
0.450032
0.414801
0.390273
0.373307
0.361727
0.353994
0.349012
0.345999
0.34449
0.343887
0.343776
0.344348
0.345204
0.346346
0.347662
0.349137
0.350739
0.352457
0.354242
0.356107
0.358104
0.360241
0.362527
0.364975
0.36758
0.370376
0.373406
1.68296
2.17686
2.70936
3.25504
3.79033
4.29136
4.73103
5.07647
5.28961
5.33429
5.18916
4.85899
4.37626
3.79954
3.22671
2.71575
2.2741
1.90155
1.59379
1.34358
1.13461
0.968452
0.841842
0.740801
0.656056
0.583635
0.521937
0.470955
0.431787
0.4058
0.397283
0.434541
0.699756
1.89925
0.66264
0.857874
1.25053
1.73796
0.558778
0.490254
0.442672
0.409647
0.386692
0.37086
0.360091
0.352937
0.348369
0.345655
0.344343
0.343845
0.343793
0.344432
0.345301
0.346455
0.347771
0.349244
0.35084
0.352503
0.354242
0.356106
0.358104
0.36024
0.362527
0.364952
0.367546
0.370355
0.373398
2.26273
2.8262
3.40818
3.98672
4.54067
5.04692
5.47697
5.7943
5.95699
5.92876
5.69441
5.26928
4.69617
4.04094
3.40623
2.84897
2.37269
1.974
1.64624
1.38068
1.15654
0.981738
0.852537
0.749659
0.663524
0.589959
0.527222
0.475168
0.43478
0.407452
0.397828
0.435317
0.706655
1.91765
0.639749
0.816905
1.18598
1.73753
2.33538
0.544185
0.48003
0.4355
0.404635
0.383224
0.368499
0.358522
0.351939
0.347784
0.345354
0.344218
0.343814
0.343829
0.344512
0.3454
0.34656
0.347879
0.349348
0.350889
0.352503
0.354241
0.356106
0.358104
0.36024
0.362499
0.364907
0.367512
0.370332
0.37339
2.93299
3.54752
4.16372
4.76292
5.32596
5.82978
6.24295
6.52363
6.62576
6.51488
6.18452
5.6618
4.99919
4.26815
3.57461
2.97372
2.46502
2.04195
1.69556
1.41107
1.17516
0.996324
0.86428
0.759375
0.671709
0.596886
0.533016
0.479799
0.438095
0.409318
0.398473
0.436381
0.713702
1.93727
0.618179
0.778571
1.12264
1.65417
2.33784
3.02265
0.530001
0.470059
0.428527
0.399776
0.379877
0.366232
0.357036
0.351024
0.347262
0.345097
0.344112
0.343783
0.343882
0.34459
0.3455
0.346665
0.347987
0.349399
0.350888
0.352502
0.354241
0.356106
0.358104
0.360208
0.362443
0.36486
0.367476
0.37031
0.373382
3.67369
4.32283
4.96003
5.56977
6.13474
6.63062
7.02076
7.25628
7.28778
7.08548
6.65429
6.03355
5.28397
4.48077
3.73184
3.09014
2.55123
2.10549
1.73572
1.43679
1.19557
1.01234
0.877183
0.770041
0.680687
0.604482
0.539372
0.484896
0.441771
0.41143
0.399286
0.437566
0.722288
1.95874
0.597632
0.742461
1.06077
1.57052
2.23773
3.02845
3.77826
0.516196
0.460364
0.42177
0.395085
0.376659
0.364079
0.35567
0.350203
0.346792
0.344874
0.344022
0.343754
0.343946
0.344667
0.345601
0.346769
0.348039
0.349396
0.350887
0.352502
0.354241
0.356106
0.358066
0.360142
0.362386
0.364813
0.367439
0.370286
0.373374
4.46517
5.13438
5.78137
6.39435
6.957
7.44139
7.80275
7.98416
7.93504
7.63396
7.09941
6.38238
5.54976
4.67876
3.87816
3.19851
2.63154
2.15698
1.76958
1.46486
1.21794
1.02995
0.89137
0.78176
0.690543
0.612815
0.546351
0.490509
0.445852
0.413826
0.400244
0.439074
0.731273
1.98127
0.577985
0.708441
1.0002
1.48671
2.13631
2.91305
3.78652
4.58076
0.502785
0.450975
0.415248
0.390573
0.3736
0.362096
0.354439
0.349466
0.346376
0.344683
0.343948
0.343732
0.344014
0.344745
0.345706
0.346818
0.348036
0.349395
0.350887
0.352501
0.354241
0.356064
0.357991
0.360074
0.362327
0.364763
0.367402
0.370262
0.373365
5.28784
5.96441
6.61306
7.22556
7.78467
8.2553
8.58162
8.69909
8.55969
8.15445
7.51656
6.70695
5.79633
4.86238
4.01395
3.29915
2.69637
2.20024
1.80636
1.49547
1.24245
1.0493
0.906979
0.794648
0.701372
0.621967
0.554018
0.496695
0.450388
0.416541
0.401435
0.440664
0.742029
2.01029
0.559178
0.676528
0.941106
1.40243
2.0336
2.79589
3.65631
4.58888
5.40856
0.4898
0.441921
0.408979
0.386284
0.37078
0.360307
0.353331
0.348806
0.34601
0.34452
0.343885
0.34372
0.344089
0.34483
0.345758
0.34681
0.348036
0.349395
0.350886
0.352502
0.354196
0.355981
0.357914
0.360005
0.362266
0.364713
0.367363
0.370238
0.373356
6.12178
6.79626
7.44255
8.05493
8.61182
9.06637
9.34993
9.39269
9.15438
8.64214
7.90347
7.00664
6.02392
5.0321
4.13967
3.38017
2.75073
2.24707
1.84629
1.52884
1.26929
1.07057
0.924161
0.80883
0.71328
0.632024
0.562449
0.503518
0.455433
0.419632
0.402841
0.44259
0.755747
2.04452
0.541171
0.646758
0.883919
1.31765
1.92917
2.67677
3.52466
4.44308
5.41213
6.24059
0.477279
0.433234
0.403024
0.382331
0.368235
0.358694
0.352335
0.348216
0.34569
0.344377
0.343835
0.343722
0.344177
0.344864
0.345752
0.346808
0.348035
0.349394
0.350886
0.352453
0.354105
0.355896
0.357836
0.359933
0.362204
0.364662
0.367324
0.370213
0.373347
6.9482
7.6156
8.26049
8.87712
9.4339
9.86878
10.0998
10.0565
9.71251
9.09334
8.25886
7.28158
6.23312
5.18855
4.24054
3.44796
2.80942
2.29774
1.8896
1.56519
1.29867
1.09394
0.943079
0.824445
0.726383
0.643087
0.571725
0.51105
0.461052
0.423143
0.404549
0.445264
0.773511
2.0784
0.523943
0.61911
0.82924
1.23267
1.8227
2.55517
3.39103
4.29711
5.24825
6.23381
7.05677
0.465262
0.424998
0.39754
0.378764
0.365938
0.35724
0.35144
0.347691
0.345406
0.344254
0.343803
0.343752
0.344218
0.344846
0.345752
0.346808
0.348034
0.349396
0.350835
0.352356
0.354012
0.355808
0.357755
0.35986
0.36214
0.364609
0.367283
0.370187
0.373337
7.75079
8.41173
9.0618
9.68869
10.2472
10.6564
10.8225
10.6822
10.2285
9.50567
8.58255
7.53243
6.42472
5.31349
4.32473
3.52098
2.87273
2.35249
1.93654
1.60473
1.33081
1.11962
0.963908
0.841646
0.740812
0.655261
0.581941
0.519368
0.467314
0.427152
0.406974
0.448724
0.79395
2.11111
0.507488
0.593488
0.777711
1.14806
1.71411
2.43051
3.25492
4.15002
5.08683
6.04705
7.03239
7.83863
0.453875
0.417431
0.392594
0.375547
0.363867
0.355931
0.350637
0.347222
0.345156
0.344157
0.343804
0.343753
0.344205
0.344842
0.345752
0.346808
0.348035
0.349344
0.350732
0.352256
0.353917
0.355718
0.357671
0.359785
0.362074
0.364555
0.367241
0.37016
0.373328
8.51701
9.17992
9.84223
10.4864
11.0488
11.4215
11.5091
11.2619
10.6982
9.87823
8.87517
7.76025
6.57669
5.41741
4.41517
3.59955
2.94094
2.41157
1.98733
1.64769
1.36591
1.1478
0.986834
0.860596
0.756705
0.66867
0.593193
0.528563
0.474304
0.432562
0.410303
0.453225
0.8155
2.14282
0.491922
0.569728
0.729938
1.06459
1.60355
2.30235
3.11552
4.00141
4.92625
5.86726
6.8158
7.78697
8.57229
0.443427
0.410624
0.388138
0.372647
0.362001
0.354753
0.349914
0.3468
0.344949
0.34411
0.343791
0.343719
0.344205
0.344841
0.345749
0.346812
0.34798
0.349237
0.350628
0.352154
0.353819
0.355626
0.357586
0.359709
0.362007
0.364499
0.367198
0.370133
0.373318
9.23881
9.90761
10.5909
11.2606
11.8316
12.1572
12.1493
11.7888
11.1192
10.2114
9.13802
7.93923
6.70242
5.52857
4.51216
3.68396
3.01433
2.47525
2.0422
1.69428
1.40419
1.17869
1.01205
0.881464
0.774213
0.68344
0.605604
0.538732
0.48355
0.439609
0.414265
0.457988
0.840643
2.17227
0.477629
0.547806
0.686429
0.98325
1.49138
2.17046
2.97201
3.85029
4.76628
5.69181
6.61293
7.53252
8.47693
9.2518
0.434053
0.404504
0.384125
0.370035
0.36032
0.35369
0.349262
0.34644
0.344821
0.344067
0.34375
0.343713
0.344204
0.344841
0.345751
0.346761
0.34787
0.349128
0.35052
0.352049
0.353719
0.355531
0.357499
0.35963
0.361938
0.364442
0.367155
0.370107
0.373308
9.9139
10.6048
11.3233
12.0176
12.5879
12.8502
12.733
12.2583
11.4911
10.5066
9.34198
8.08627
6.8361
5.6472
4.61597
3.77448
3.09315
2.54375
2.10137
1.74471
1.44584
1.21249
1.03973
0.904427
0.793489
0.699721
0.619285
0.552072
0.495229
0.447367
0.418766
0.464258
0.867104
2.2002
0.464783
0.52803
0.647331
0.905261
1.37818
2.03476
2.8237
3.69551
4.6058
5.52052
6.41975
7.30038
8.17706
9.08374
9.86156
0.425657
0.399004
0.380515
0.367682
0.358801
0.352729
0.348698
0.346185
0.344731
0.344012
0.343745
0.34371
0.3442
0.344853
0.345696
0.346654
0.34776
0.349017
0.350411
0.351942
0.353617
0.355434
0.357409
0.359549
0.361867
0.364384
0.367111
0.370081
0.373299
10.5358
11.2697
12.0437
12.7605
13.3125
13.4882
13.2517
12.6677
11.8151
10.732
9.50795
8.24128
6.97773
5.77343
4.72678
3.87133
3.17763
2.61728
2.16502
1.79915
1.49104
1.24936
1.07007
0.929652
0.814701
0.717636
0.63718
0.568698
0.507753
0.45589
0.424038
0.471139
0.897748
2.22482
0.453268
0.510381
0.613705
0.832823
1.26489
1.89536
2.66996
3.53588
4.44336
5.35212
6.23596
7.08533
7.90871
8.73139
9.60157
10.393
0.418142
0.394062
0.377267
0.365557
0.357427
0.351891
0.348282
0.346018
0.344654
0.344006
0.343742
0.343709
0.344207
0.344815
0.345588
0.346548
0.347648
0.348904
0.350299
0.351832
0.353511
0.355335
0.357317
0.359467
0.361794
0.364326
0.367069
0.370056
0.37329
11.1045
11.9078
12.7545
13.4908
13.9963
14.0579
13.6991
13.0173
12.0574
10.9131
9.68093
8.40384
7.12713
5.90726
4.84472
3.97468
3.26794
2.69601
2.23332
1.85774
1.53993
1.28947
1.10322
0.957307
0.837971
0.741016
0.659343
0.586297
0.521141
0.465208
0.430046
0.479737
0.930872
2.24691
0.44297
0.494534
0.585324
0.768692
1.1537
1.75258
2.51026
3.37018
4.27735
5.18489
6.05998
6.88675
7.66688
8.41986
9.18238
10.0213
10.8448
0.411418
0.389625
0.374339
0.363636
0.356224
0.351257
0.348022
0.345909
0.344648
0.344002
0.343738
0.343733
0.344161
0.344726
0.345484
0.346439
0.347535
0.348787
0.350185
0.351719
0.353404
0.355234
0.357222
0.359382
0.361722
0.364271
0.367028
0.370031
0.373282
11.6249
12.5299
13.4594
14.1958
14.6233
14.5466
14.0726
13.2715
12.2487
11.0989
9.85984
8.57328
7.28393
6.04857
4.96981
4.08463
3.36421
2.78007
2.30637
1.92057
1.5926
1.33292
1.1393
0.987485
0.868215
0.769782
0.682594
0.604833
0.535417
0.475402
0.436935
0.489856
0.968018
2.26547
0.433784
0.480277
0.561095
0.714226
1.04917
1.60809
2.34423
3.19715
4.10594
5.01684
5.88979
6.70247
7.45046
8.1462
8.8191
9.51916
10.3295
11.2146
0.4054
0.385632
0.371694
0.361949
0.355295
0.350871
0.347879
0.3459
0.344643
0.343997
0.343768
0.343725
0.34407
0.344645
0.34538
0.346329
0.34742
0.348668
0.350068
0.351604
0.353293
0.35513
0.357126
0.359299
0.361653
0.364217
0.366988
0.370008
0.373273
12.1065
13.1504
14.159
14.8604
15.1687
14.9459
14.3339
13.4673
12.4407
11.2874
10.0432
8.74859
7.44752
6.19705
5.10194
4.20118
3.46649
2.86952
2.38422
1.9877
1.6491
1.37977
1.17835
1.02644
0.90507
0.799653
0.706804
0.62428
0.55058
0.486475
0.44484
0.501623
1.00964
2.27842
0.425602
0.467459
0.540129
0.668693
0.954572
1.4669
2.17296
3.01553
3.92712
4.84564
5.72304
6.53003
7.25638
7.90871
8.50864
9.09453
9.73018
10.5113
11.4995
0.400005
0.382033
0.369368
0.360629
0.354742
0.350683
0.347868
0.345893
0.344635
0.344038
0.343773
0.34369
0.343991
0.344565
0.345277
0.346215
0.347303
0.348546
0.349948
0.351487
0.35318
0.355025
0.35703
0.359219
0.361585
0.364164
0.36695
0.369985
0.373265
12.5667
13.7798
14.8506
15.4744