/*--------------------------------*- C++ -*----------------------------------*\
  =========                 |
  \\      /  F ield         | OpenFOAM: The Open Source CFD Toolbox
   \\    /   O peration     | Website:  https://openfoam.org
    \\  /    A nd           | Version:  8
     \\/     M anipulation  |
\*---------------------------------------------------------------------------*/
FoamFile
{
    version     2.0;
    format      ascii;
    class       volScalarField;
    location    "0.1";
    object      k;
}
// * * * * * * * * * * * * * * * * * * * * * * * * * * * * * * * * * * * * * //

dimensions      [0 2 -2 0 0 0 0];

internalField   nonuniform List<scalar> 
15677
(
0.333994
0.364682
0.29434
0.368614
0.357021
0.280632
0.370641
0.359745
0.365645
0.282421
0.371857
0.361481
0.361176
0.383035
0.288665
0.372596
0.363665
0.35759
0.368114
0.401533
0.30016
0.373032
0.365622
0.357771
0.358023
0.379975
0.419284
0.311712
0.37326
0.367161
0.359419
0.354513
0.36094
0.39321
0.434704
0.322533
0.373348
0.368293
0.361331
0.354727
0.353002
0.366836
0.406109
0.447824
0.33204
0.373349
0.369076
0.363049
0.356311
0.351084
0.353453
0.373515
0.418218
0.458684
0.340425
0.373314
0.369565
0.364432
0.358201
0.351905
0.34876
0.354755
0.380653
0.429048
0.467826
0.347509
0.373274
0.369824
0.365456
0.359949
0.353699
0.348365
0.347129
0.35709
0.387618
0.43876
0.475339
0.353726
0.373248
0.369927
0.366144
0.36139
0.355651
0.349753
0.345342
0.34631
0.359684
0.394393
0.447171
0.481751
0.358907
0.373237
0.36994
0.366545
0.362474
0.357416
0.351714
0.346196
0.342919
0.345875
0.362579
0.40063
0.45462
0.487049
0.36357
0.373237
0.369922
0.366733
0.363208
0.358852
0.353677
0.348063
0.343089
0.340854
0.345888
0.365437
0.406474
0.46095
0.491601
0.367632
0.373238
0.369907
0.366791
0.363634
0.359911
0.355388
0.350149
0.344748
0.340285
0.339188
0.346019
0.368328
0.411638
0.466532
0.495381
0.371226
0.373239
0.369899
0.366792
0.363832
0.360604
0.356736
0.352082
0.34688
0.341693
0.337818
0.337733
0.346345
0.370994
0.416387
0.471168
0.498719
0.374517
0.37324
0.369896
0.366782
0.363889
0.360986
0.357691
0.353684
0.348979
0.343828
0.338925
0.335576
0.33652
0.34673
0.373595
0.420416
0.475238
0.501597
0.377319
0.37324
0.369894
0.366775
0.363897
0.361135
0.358278
0.354884
0.350799
0.346059
0.341021
0.336373
0.333591
0.33544
0.347236
0.375845
0.424036
0.478583
0.504135
0.380161
0.37324
0.369893
0.36677
0.363892
0.361179
0.358547
0.355677
0.352225
0.348069
0.343349
0.338417
0.334073
0.331774
0.334567
0.347658
0.377948
0.426982
0.481502
0.506487
0.382371
0.37324
0.369892
0.366767
0.363885
0.361185
0.358651
0.356077
0.353223
0.349701
0.345524
0.34083
0.336052
0.331954
0.330197
0.333761
0.348127
0.379654
0.42959
0.483892
0.508496
0.385018
0.37324
0.369891
0.366764
0.363879
0.361179
0.358683
0.356251
0.353769
0.35089
0.347347
0.343157
0.338532
0.333878
0.330089
0.328765
0.33312
0.348469
0.381197
0.431591
0.485966
0.510612
0.386774
0.37324
0.36989
0.366763
0.363875
0.361172
0.358686
0.356316
0.354031
0.351572
0.348725
0.345158
0.340994
0.336436
0.331965
0.32841
0.327566
0.332523
0.348815
0.38235
0.433378
0.487676
0.512282
0.389405
0.37324
0.369889
0.366762
0.363871
0.361166
0.35868
0.356333
0.354145
0.351918
0.349559
0.346707
0.343162
0.339046
0.334601
0.330262
0.327005
0.326515
0.332087
0.349054
0.383389
0.434611
0.48919
0.51442
0.390838
0.37324
0.369889
0.366761
0.363868
0.361161
0.358671
0.35633
0.354183
0.35208
0.350008
0.347668
0.344892
0.341391
0.337346
0.332996
0.328871
0.32583
0.325745
0.331717
0.349281
0.384062
0.435805
0.490422
0.515836
0.393476
0.37324
0.369888
0.36676
0.363865
0.361157
0.358662
0.356322
0.354188
0.352144
0.350234
0.348202
0.346013
0.343287
0.339847
0.335919
0.331754
0.327766
0.324978
0.325119
0.331501
0.349473
0.384728
0.436473
0.491707
0.518353
0.394868
0.37324
0.369888
0.36676
0.363863
0.361154
0.358655
0.356313
0.354178
0.352161
0.350331
0.348482
0.346666
0.34452
0.341927
0.338651
0.334861
0.330775
0.326986
0.324389
0.324906
0.331531
0.349727
0.385103
0.437316
0.492549
0.52001
0.505191
0.373241
0.369888
0.366759
0.363862
0.361151
0.358648
0.356304
0.354165
0.352157
0.350359
0.348613
0.347023
0.345244
0.343356
0.340929
0.337723
0.334078
0.330314
0.326767
0.324402
0.325005
0.331684
0.349974
0.385542
0.437696
0.494463
0.52871
0.713767
0.373241
0.369887
0.366759
0.36386
0.361149
0.358644
0.356297
0.354151
0.352145
0.350355
0.348663
0.347192
0.345654
0.344237
0.342442
0.340186
0.337369
0.334077
0.330424
0.326962
0.324652
0.325342
0.332038
0.350348
0.385861
0.438517
0.494976
0.54557
0.892611
0.373241
0.369887
0.366758
0.363859
0.361147
0.35864
0.356291
0.354139
0.35213
0.350338
0.348671
0.347255
0.345871
0.344748
0.343363
0.342006
0.340216
0.337562
0.334397
0.3309
0.327549
0.325293
0.326045
0.332725
0.350867
0.386264
0.439115
0.494691
0.558652
1.03823
0.373241
0.369887
0.366758
0.363859
0.361146
0.358637
0.356286
0.35413
0.352117
0.350317
0.348658
0.347262
0.345968
0.345002
0.343917
0.343182
0.342167
0.340593
0.338197
0.335247
0.33195
0.32875
0.326536
0.327256
0.333756
0.351584
0.386891
0.438861
0.493227
0.568507
1.16546
0.373241
0.369887
0.366758
0.363858
0.361145
0.358634
0.356282
0.354122
0.352106
0.350298
0.348637
0.347242
0.345996
0.345106
0.344253
0.343911
0.343431
0.342754
0.341536
0.339524
0.336913
0.333846
0.33069
0.328419
0.328933
0.335182
0.352603
0.387409
0.437976
0.490151
0.575331
1.26982
0.373241
0.369887
0.366758
0.363857
0.361144
0.358632
0.356278
0.354116
0.352096
0.350281
0.348616
0.347213
0.345987
0.345131
0.344422
0.344298
0.344225
0.344171
0.344004
0.343372
0.341803
0.339494
0.336555
0.333394
0.330934
0.331158
0.337037
0.353871
0.387865
0.436152
0.484834
0.579901
1.34776
0.373241
0.369887
0.366758
0.363857
0.361143
0.35863
0.356275
0.35411
0.352087
0.350267
0.348596
0.347184
0.345961
0.345114
0.344486
0.344493
0.344684
0.345083
0.345677
0.346255
0.346211
0.345076
0.343033
0.340189
0.336901
0.334176
0.333941
0.339358
0.355393
0.388002
0.433062
0.478209
0.582824
1.40793
0.373241
0.369887
0.366758
0.363856
0.361142
0.358629
0.356273
0.354106
0.35208
0.350255
0.348579
0.347158
0.34593
0.34508
0.344491
0.344573
0.344928
0.345641
0.346791
0.348227
0.349561
0.350169
0.349464
0.347664
0.344805
0.341319
0.338158
0.337345
0.342131
0.357113
0.387907
0.42899
0.471569
0.585327
1.45632
0.369887
0.373245
0.366758
0.363856
0.361142
0.358627
0.35627
0.354102
0.352073
0.350245
0.348564
0.347135
0.345901
0.345041
0.344465
0.344588
0.34504
0.345958
0.347511
0.349579
0.351909
0.3541
0.355397
0.355119
0.35347
0.350529
0.34667
0.34296
0.341337
0.345357
0.359308
0.387617
0.424806
0.465354
0.58774
1.49689
0.366758
0.369897
0.373252
0.363856
0.361141
0.358626
0.356268
0.354098
0.352068
0.350236
0.34855
0.347116
0.345874
0.345005
0.344429
0.344568
0.345077
0.346125
0.347953
0.350488
0.35357
0.356924
0.360054
0.36207
0.362152
0.360591
0.357392
0.353049
0.348549
0.345954
0.349339
0.362016
0.387261
0.42076
0.459754
0.590572
1.53223
0.363856
0.366774
0.369918
0.37326
0.361141
0.358625
0.356267
0.354096
0.352063
0.350229
0.348539
0.347099
0.34585
0.344973
0.344392
0.344536
0.345074
0.346203
0.348216
0.351087
0.354737
0.358988
0.36348
0.367623
0.370333
0.370721
0.369076
0.365511
0.360424
0.354967
0.351771
0.354292
0.365098
0.386945
0.416981
0.454862
0.593615
1.56386
0.36114
0.363877
0.366808
0.369939
0.373267
0.358624
0.356265
0.354093
0.352059
0.350223
0.348529
0.347084
0.34583
0.344945
0.344358
0.344502
0.345054
0.346233
0.348372
0.351485
0.35556
0.360503
0.366067
0.371806
0.376984
0.380369
0.380903
0.379065
0.374852
0.368853
0.36298
0.359119
0.359777
0.368387
0.387002
0.413637
0.450671
0.597167
1.59289
0.358624
0.361167
0.363922
0.366843
0.369961
0.373275
0.356264
0.354091
0.352055
0.350217
0.34852
0.347072
0.345812
0.34492
0.344327
0.34447
0.34503
0.34624
0.348465
0.351762
0.356159
0.361639
0.368049
0.375067
0.382112
0.38835
0.392282
0.392855
0.390528
0.3855
0.379338
0.373038
0.367292
0.365748
0.372123
0.387296
0.410653
0.447111
0.600839
1.61978
0.356263
0.358655
0.361223
0.363968
0.366878
0.369984
0.373284
0.354089
0.352052
0.350212
0.348513
0.347061
0.345796
0.344898
0.344301
0.344442
0.345006
0.346239
0.348525
0.351962
0.356624
0.362532
0.369622
0.377671
0.386233
0.394644
0.401855
0.406255
0.406561
0.403582
0.398718
0.392454
0.384195
0.376213
0.372126
0.375974
0.387922
0.408213
0.44403
0.604888
1.6451
0.354087
0.356299
0.358719
0.36128
0.364015
0.366915
0.370007
0.373292
0.35205
0.350208
0.348506
0.347052
0.345782
0.34488
0.344278
0.344417
0.344985
0.346235
0.348569
0.352116
0.356999
0.36328
0.370937
0.379843
0.389661
0.399864
0.40958
0.417723
0.422291
0.422163
0.419771
0.415238
0.406972
0.396337
0.385779
0.378959
0.379966
0.388966
0.406224
0.441488
0.608913
1.66887
0.352048
0.354125
0.356371
0.358785
0.361338
0.364064
0.366952
0.370031
0.373301
0.350204
0.3485
0.347044
0.345769
0.344865
0.344258
0.344395
0.344967
0.346232
0.348606
0.352245
0.357311
0.363925
0.372106
0.381754
0.392646
0.404368
0.41619
0.427208
0.435993
0.440577
0.441516
0.439995
0.433496
0.42274
0.409341
0.395913
0.386161
0.384132
0.390289
0.404681
0.439319
0.613175
1.69147
0.350201
0.352088
0.354205
0.356446
0.358853
0.361398
0.364114
0.36699
0.370056
0.37331
0.348495
0.347038
0.345758
0.344851
0.34424
0.344376
0.344951
0.34623
0.348639
0.352359
0.357584
0.364486
0.373161
0.383531
0.395385
0.408444
0.422083
0.435558
0.447608
0.456934
0.46332
0.465732
0.462338
0.453299
0.439597
0.423083
0.40652
0.393655
0.388461
0.391879
0.403562
0.437598
0.617298
1.71273
0.348491
0.350243
0.352174
0.354286
0.356523
0.358923
0.36146
0.364165
0.36703
0.370081
0.373319
0.347031
0.345748
0.34484
0.344225
0.34436
0.344938
0.346229
0.34867
0.352462
0.35783
0.364989
0.374109
0.385191
0.398024
0.412322
0.427602
0.44324
0.458106
0.471129
0.483124
0.491933
0.492547
0.486584
0.474443
0.457372
0.437424
0.417499
0.401372
0.392927
0.393566
0.402832
0.436154
0.621559
1.73302
0.347026
0.348533
0.350331
0.352261
0.35437
0.356602
0.358995
0.361523
0.364218
0.36707
0.370107
0.373328
0.34574
0.344831
0.344211
0.344346
0.344926
0.346229
0.348699
0.352557
0.358054
0.365448
0.374973
0.386714
0.40056
0.416176
0.433019
0.450661
0.468049
0.4843
0.500717
0.516313
0.523845
0.521774
0.512506
0.496723
0.475884
0.452222
0.428748
0.409242
0.397543
0.395353
0.40238
0.435057
0.625604
1.75203
0.345732
0.347066
0.348622
0.350423
0.352352
0.354457
0.356684
0.359068
0.361588
0.364272
0.367112
0.370133
0.373338
0.344823
0.344199
0.344333
0.344917
0.34623
0.348726
0.352645
0.358259
0.365869
0.375769
0.388122
0.402933
0.419967
0.438539
0.458153
0.477934
0.497134
0.517498
0.53855
0.553609
0.558845
0.553189
0.539887
0.519922
0.494948
0.467337
0.440167
0.417206
0.402258
0.397234
0.402199
0.434152
0.629721
1.77021
0.344817
0.345766
0.347152
0.348714
0.350517
0.352445
0.354546
0.356768
0.359144
0.361655
0.364327
0.367155
0.37016
0.373347
0.344186
0.344322
0.344909
0.346232
0.348751
0.352725
0.358447
0.366256
0.376504
0.38943
0.405158
0.423571
0.444079
0.465981
0.488174
0.510247
0.534327
0.560422
0.5815
0.594887
0.596713
0.586545
0.568496
0.543828
0.514387
0.482632
0.451662
0.425205
0.407028
0.39919
0.402245
0.433515
0.633573
1.78715
0.344176
0.344845
0.345841
0.347241
0.34881
0.350614
0.352542
0.354637
0.356854
0.359222
0.361724
0.364384
0.367199
0.370187
0.373356
0.344312
0.344901
0.346234
0.348775
0.352799
0.358619
0.366612
0.377181
0.390647
0.407245
0.426984
0.449429
0.474009
0.499102
0.524165
0.552006
0.583077
0.609784
0.629603
0.640023
0.637223
0.621564
0.598085
0.568232
0.534036
0.497984
0.463147
0.433183
0.411814
0.401212
0.402381
0.433017
0.637463
1.80337
0.344306
0.344177
0.344906
0.345918
0.347334
0.348909
0.350714
0.352641
0.354732
0.356943
0.359302
0.361795
0.364442
0.367242
0.370213
0.373365
0.344894
0.346236
0.348797
0.352866
0.358776
0.366937
0.377804
0.391775
0.409197
0.430212
0.454567
0.481891
0.510492
0.539353
0.571286
0.607657
0.640055
0.665948
0.682973
0.688933
0.680152
0.65798
0.628411
0.59295
0.553746
0.51328
0.474544
0.44109
0.416583
0.403273
0.402641
0.432746
0.641059
1.81838
0.344892
0.34429
0.344186
0.344969
0.346
0.34743
0.349013
0.350817
0.352744
0.354828
0.357035
0.359384
0.361867
0.3645
0.367284
0.370239
0.373374
0.346236
0.348816
0.352928
0.35892
0.367235
0.378376
0.392817
0.411016
0.433254
0.459484
0.489543
0.521813
0.555563
0.592889
0.635302
0.674031
0.706299
0.729605
0.74193
0.741619
0.725311
0.695552
0.659242
0.617805
0.573385
0.528425
0.485786
0.448884
0.421303
0.405375
0.402985
0.432548
0.64468
1.83278
0.346243
0.344846
0.344258
0.344197
0.345037
0.346089
0.347529
0.349121
0.350923
0.35285
0.354928
0.357129
0.359468
0.361939
0.364556
0.367325
0.370263
0.373382
0.348831
0.352982
0.35905
0.367506
0.378899
0.393778
0.412705
0.43611
0.464163
0.49692
0.532954
0.572099
0.616498
0.667191
0.713706
0.753642
0.783826
0.802035
0.807049
0.798183
0.772562
0.73407
0.690378
0.642637
0.592836
0.543334
0.496816
0.456525
0.425951
0.407494
0.403392
0.432519
0.647985
1.84603
0.348853
0.346153
0.344742
0.344221
0.344224
0.345107
0.346184
0.347632
0.349232
0.351033
0.352959
0.355031
0.357225
0.359552
0.362009
0.364611
0.367364
0.370287
0.37339
0.353029
0.359167
0.367754
0.379378
0.394661
0.414269
0.43878
0.468589
0.503992
0.543881
0.588751
0.640909
0.703134
0.76176
0.81216
0.851169
0.875757
0.884916
0.879023
0.858767
0.821789
0.773349
0.721643
0.667305
0.612002
0.557939
0.507583
0.463981
0.430505
0.409614
0.403849
0.432551
0.651319
1.85876
0.353085
0.348687
0.345934
0.344628
0.344184
0.344269
0.345178
0.346285
0.347738
0.349348
0.351145
0.353072
0.355136
0.35732
0.359633
0.362076
0.364664
0.367403
0.370311
0.373398
0.35927
0.367976
0.379815
0.395471
0.415712
0.441265
0.472753
0.51074
0.554543
0.605331
0.665689
0.741997
0.819735
0.887971
0.939519
0.972299
0.985182
0.979661
0.958334
0.923403
0.872848
0.813211
0.75288
0.691688
0.630802
0.572183
0.518051
0.471227
0.434947
0.411715
0.404348
0.432631
0.65433
1.86897
0.359381
0.352829
0.348276
0.345704
0.34453
0.344145
0.344329
0.345252
0.346393
0.347848
0.349468
0.351262
0.353187
0.35524
0.357413
0.359712
0.362142
0.364715
0.36744
0.370333
0.373406
0.368175
0.38021
0.396212
0.41704
0.443571
0.476656
0.517148
0.56487
0.621643
0.690774
0.784156
0.887169
0.984728
1.05859
1.10302
1.12051
1.11347
1.08662
1.04491
0.991884
0.92552
0.85347
0.783948
0.71568
0.649166
0.586021
0.528189
0.478242
0.439262
0.413787
0.404872
0.432784
0.656959
1.87758
0.368378
0.359005
0.352162
0.347847
0.345497
0.344441
0.34411
0.344399
0.345329
0.346506
0.347962
0.349592
0.351382
0.353301
0.355342
0.357503
0.359789
0.362206
0.364765
0.367477
0.370355
0.373414
0.380566
0.396886
0.41826
0.445705
0.480301
0.523208
0.574794
0.637559
0.716315
0.830107
0.96385
1.09888
1.21035
1.27835
1.30342
1.29491
1.25937
1.20472
1.13798
1.0637
0.97949
0.893926
0.814714
0.739189
0.667037
0.599418
0.537975
0.485009
0.443438
0.415818
0.405421
0.432944
0.659101
1.88687
0.380915
0.367849
0.357975
0.351471
0.347454
0.345308
0.344359
0.344082
0.344478
0.345412
0.346624
0.348081
0.349719
0.351501
0.353412
0.355441
0.35759
0.359864
0.362268
0.364814
0.367512
0.370377
0.373421
0.397499
0.419374
0.447676
0.483698
0.528912
0.584271
0.653043
0.742482
0.879654
1.04802
1.22546
1.38308
1.49423
1.542
1.53524
1.49093
1.41951
1.33171
1.23617
1.13808
1.03435
0.934357
0.84505
0.762141
0.684367
0.612346
0.54739
0.491518
0.447467
0.417797
0.405904
0.433108
0.661482
1.89703
0.398081
0.380192
0.366309
0.356912
0.350828
0.347087
0.345132
0.344286
0.344065
0.344563
0.345501
0.346746
0.348205
0.349845
0.351618
0.35352
0.355538
0.357675
0.359937
0.362328
0.364862
0.367546
0.370398
0.373424
0.420395
0.449489
0.486853
0.534263
0.593283
0.668105
0.769294
0.931892
1.13669
1.35858
1.56626
1.73
1.82525
1.83941
1.79022
1.70227
1.58947
1.46472
1.33777
1.21407
1.08963
0.974529
0.874835
0.784471
0.701121
0.624786
0.556425
0.497762
0.451341
0.419466
0.406337
0.433305
0.66404
1.90805
0.421342
0.397121
0.377944
0.364731
0.355917
0.350217
0.34674
0.344967
0.344223
0.344058
0.344653
0.345598
0.346871
0.34833
0.349968
0.351733
0.353625
0.355632
0.357758
0.360007
0.362387
0.364908
0.36758
0.370408
0.373424
0.451162
0.489774
0.539265
0.601831
0.682765
0.796588
0.985561
1.22683
1.49293
1.75156
1.97172
2.12549
2.19094
2.16015
2.06005
1.92268
1.76481
1.60082
1.44099
1.29068
1.14482
1.0142
0.903956
0.806123
0.717269
0.636726
0.565074
0.503734
0.454567
0.420907
0.406828
0.433569
0.66691
1.92017
0.452682
0.420098
0.393894
0.375657
0.363248
0.354965
0.349632
0.346412
0.344816
0.344172
0.344064
0.344745
0.345704
0.346996
0.348453
0.350087
0.351844
0.353727
0.355724
0.357838
0.360076
0.362444
0.364953
0.367596
0.370408
0.373424
0.492488
0.54393
0.609929
0.697027
0.824079
1.03942
1.31597
1.62463
1.93303
2.21026
2.427
2.55685
2.58047
2.49522
2.3376
2.14676
1.94164
1.73737
1.54416
1.36693
1.19944
1.05316
0.932309
0.827048
0.732791
0.648158
0.573333
0.508685
0.45733
0.422512
0.407403
0.433882
0.669977
1.93332
0.494909
0.451083
0.415515
0.390636
0.373502
0.361823
0.354048
0.349071
0.346105
0.344677
0.344132
0.344085
0.344838
0.345815
0.347117
0.348575
0.350204
0.351954
0.353826
0.355813
0.357916
0.360143
0.362499
0.364975
0.367596
0.370408
0.373424
0.548293
0.617599
0.710878
0.851439
1.09243
1.40242
1.7512
2.10694
2.43965
2.72013
2.91983
3.0135
2.98484
2.83722
2.61708
2.37015
2.11682
1.8722
1.64586
1.44199
1.25306
1.09118
0.959797
0.84721
0.747675
0.659078
0.580167
0.512911
0.460385
0.424308
0.408062
0.434287
0.673436
1.94782
0.552141
0.492873
0.444629
0.410934
0.387563
0.371425
0.360445
0.353164
0.348534
0.345822
0.34455
0.3441
0.344132
0.344929
0.345929
0.347235
0.348695
0.350317
0.35206
0.353923
0.3559
0.357992
0.360208
0.362526
0.364975
0.367596
0.370408
0.373424
0.624891
0.724307
0.878367
1.14382
1.48508
1.87125
2.27124
2.65636
2.9986
3.26928
3.43991
3.48648
3.39651
3.18014
2.89392
2.58954
2.28796
2.00361
1.74496
1.51515
1.30528
1.12808
0.986346
0.866581
0.761911
0.668118
0.585996
0.51757
0.463768
0.426318
0.408838
0.434763
0.677135
1.96354
0.631328
0.549537
0.483797
0.43824
0.406605
0.384595
0.369412
0.359112
0.352313
0.348018
0.34556
0.344435
0.344064
0.344199
0.345016
0.346044
0.34735
0.348812
0.350427
0.352164
0.354017
0.355984
0.358066
0.360241
0.362526
0.364975
0.367596
0.370408
0.373424
0.737313
0.904624
1.19304
1.56332
1.98407
2.42496
2.8586
3.25872
3.59803
3.84744
3.97818
3.96795
3.80902
3.51907
3.16461
2.80244
2.45332
2.13039
1.84063
1.58587
1.35579
1.16372
1.01189
0.885139
0.773706
0.675831
0.592415
0.522712
0.467524
0.428579
0.40973
0.435367
0.681345
1.98089
0.748841
0.628023
0.536643
0.474921
0.432197
0.40242
0.381714
0.367461
0.357825
0.351495
0.347528
0.345316
0.344334
0.344029
0.344277
0.345103
0.346159
0.347463
0.348927
0.350535
0.352265
0.354108
0.356067
0.358103
0.360241
0.362526
0.364975
0.367596
0.370408
0.373421
0.930017
1.23977
1.6368
2.08936
2.56776
3.04569
3.4987
3.90179
4.2274
4.44528
4.52637
4.45088
4.21684
3.85003
3.42646
3.00708
2.6117
2.25172
1.93227
1.65375
1.40437
1.19798
1.03639
0.900534
0.783776
0.684327
0.599494
0.528399
0.471702
0.431122
0.410787
0.436018
0.685848
1.99966
0.744782
0.952357
0.608903
0.524301
0.466513
0.42635
0.398352
0.378916
0.365572
0.356585
0.350713
0.347067
0.345097
0.344247
0.344006
0.344361
0.345191
0.346273
0.347575
0.34904
0.35064
0.352364
0.354197
0.356107
0.358103
0.360241
0.362526
0.364975
0.367596
0.370398
0.373413
1.28379
1.70543
2.18713
2.6997
3.21765
3.71807
4.17852
4.57439
4.87691
5.05409
5.07683
4.92893
4.6153
4.16991
3.67752
3.20225
2.76235
2.36705
2.01949
1.71851
1.45084
1.23077
1.05671
0.913687
0.794875
0.6937
0.607314
0.534697
0.476357
0.433996
0.412005
0.436796
0.691016
2.02042
0.714748
0.948294
1.32173
0.591167
0.512636
0.458368
0.420662
0.394398
0.376204
0.363749
0.355394
0.349969
0.346641
0.344904
0.344176
0.343995
0.344446
0.34528
0.346385
0.347684
0.34915
0.350742
0.35246
0.354241
0.356107
0.358103
0.360241
0.362526
0.364975
0.36758
0.370377
0.373406
1.76919
2.27755
2.82109
3.37489
3.91721
4.42792
4.88593
5.26612
5.53741
5.66566
5.62244
5.39652
5.00048
4.47629
3.91642
3.38723
2.90483
2.4761
2.10209
1.78001
1.49509
1.25792
1.07407
0.928192
0.807124
0.704055
0.615965
0.541685
0.481557
0.437246
0.413453
0.43765
0.696541
2.04277
0.687213
0.900588
1.31784
1.82357
0.574671
0.501332
0.450445
0.41513
0.390561
0.373582
0.361994
0.354255
0.349271
0.34626
0.344738
0.34412
0.343996
0.344532
0.345371
0.346494
0.347792
0.349257
0.350843
0.352507
0.354241
0.356107
0.358103
0.360241
0.362526
0.364952
0.367546
0.370355
0.373398
2.36084
2.93244
3.51814
4.09706
4.65088
5.16188
5.60969
5.96733
6.20032
6.27225
6.1567
5.84879
5.36926
4.76743
4.14234
3.56161
3.03895
2.57879
2.18
1.83816
1.53154
1.28107
1.09321
0.944207
0.820663
0.715514
0.625554
0.549456
0.487379
0.440942
0.415127
0.438684
0.702948
2.06754
0.661976
0.855546
1.24874
1.82083
2.4312
0.558858
0.490324
0.442742
0.409761
0.386849
0.371054
0.360311
0.35318
0.348636
0.345926
0.344596
0.34408
0.34401
0.344616
0.345464
0.346601
0.347898
0.349362
0.350892
0.352507
0.354241
0.356107
0.358103
0.360241
0.362499
0.364907
0.367511
0.370333
0.37339
3.03427
3.64837
4.25892
4.84904
5.40379
5.90762
6.33957
6.66919
6.85753
6.86663
6.67375
6.28166
5.71925
5.04222
4.35481
3.72528
3.16475
2.67515
2.25323
1.88574
1.5625
1.30653
1.11433
0.961913
0.83565
0.728217
0.636203
0.558114
0.493914
0.445147
0.417126
0.439844
0.709788
2.09399
0.638294
0.813403
1.18083
1.73282
2.43054
3.11954
0.543559
0.479614
0.43527
0.404564
0.383269
0.368627
0.358716
0.352194
0.34807
0.345634
0.344476
0.344052
0.344039
0.344697
0.345558
0.346706
0.348003
0.349414
0.350891
0.352507
0.354241
0.356107
0.358103
0.360208
0.362443
0.36486
0.367476
0.37031
0.373382
3.76646
4.40439
5.02456
5.61429
6.16231
6.65417
7.06654
7.36357
7.50147
7.44214
7.16848
6.6919
6.04883
5.3
4.55372
3.87836
3.2824
2.76532
2.31282
1.92599
1.59641
1.33455
1.13764
0.981509
0.852263
0.742322
0.648053
0.567784
0.501268
0.449961
0.41945
0.441264
0.717823
2.12341
0.615873
0.773661
1.11458
1.64457
2.32618
3.12146
3.86417
0.52873
0.469223
0.428043
0.39955
0.379829
0.366323
0.357249
0.351309
0.347564
0.345381
0.344374
0.34403
0.344085
0.344776
0.345654
0.346811
0.348054
0.349412
0.350891
0.352507
0.354241
0.356107
0.358066
0.360142
0.362385
0.364813
0.367439
0.370286
0.373374
4.53489
5.1799
5.79668
6.37767
6.91446
7.39218
7.78264
8.04297
8.12503
7.99272
7.63667
7.07717
6.35701
5.54056
4.73922
4.02111
3.39214
2.83841
2.36305
1.96986
1.63355
1.36538
1.1634
1.00322
0.870706
0.758013
0.661268
0.57861
0.509572
0.455474
0.422242
0.442895
0.726364
2.15446
0.594571
0.736245
1.04967
1.55648
2.22056
3.0028
3.86795
4.64081
0.514369
0.459178
0.421077
0.394733
0.376561
0.3642
0.355928
0.350514
0.347111
0.345164
0.344287
0.344004
0.344143
0.344853
0.345754
0.346861
0.348052
0.349412
0.350891
0.352507
0.354241
0.356066
0.357991
0.360074
0.362326
0.364764
0.367402
0.370263
0.373365
5.31721
5.95459
6.55852
7.12598
7.65045
8.11397
8.48083
8.70036
8.72151
8.51311
8.07506
7.43594
6.64336
5.76408
4.91168
4.15389
3.48083
2.89986
2.4176
2.01766
1.67421
1.39931
1.19187
1.0273
0.891208
0.775499
0.676038
0.590764
0.518971
0.461833
0.425514
0.444914
0.736566
2.19498
0.574301
0.701212
0.986264
1.46803
2.11399
2.88247
3.73633
4.64425
5.42551
0.500496
0.449507
0.414391
0.390157
0.37355
0.362285
0.354738
0.349801
0.346706
0.344977
0.344216
0.343984
0.344208
0.344937
0.345802
0.346856
0.348052
0.349412
0.350891
0.352507
0.354197
0.355983
0.357914
0.360005
0.362266
0.364713
0.367363
0.370238
0.373356
6.09115
6.71007
7.29544
7.84869
8.36272
8.81309
9.15474
9.32902
9.28482
8.99897
8.48138
7.76747
6.90802
5.97099
5.07157
4.26092
3.55524
2.96642
2.47681
2.06972
1.71871
1.43663
1.22335
1.05401
0.914027
0.79502
0.692582
0.604443
0.529653
0.469173
0.429474
0.447265
0.749252
2.24402
0.554997
0.668622
0.924815
1.37915
2.00587
2.76059
3.60341
4.50011
5.42491
6.19524
0.48714
0.44024
0.408046
0.385942
0.370831
0.360558
0.353666
0.34916
0.346349
0.344817
0.344156
0.343974
0.344286
0.344971
0.345797
0.346856
0.348052
0.349412
0.350892
0.352459
0.354107
0.355898
0.357836
0.359934
0.362203
0.364662
0.367324
0.370213
0.373347
6.83674
7.43009
7.99596
8.53828
9.04529
9.48422
9.79836
9.92246
9.80949
9.44703
8.85434
8.07177
7.15153
6.16192
5.19999
4.35054
3.63567
3.03846
2.54103
2.12637
1.76736
1.47768
1.25813
1.08367
0.939449
0.816845
0.711153
0.619889
0.541828
0.477713
0.434158
0.450821
0.766357
2.29346
0.53661
0.638477
0.865908
1.29008
1.89579
2.63644
3.46896
4.35593
5.2674
6.18603
6.9285
0.474339
0.431469
0.402207
0.382139
0.368379
0.359
0.352701
0.348588
0.346035
0.344679
0.344109
0.343989
0.344322
0.344957
0.345799
0.346856
0.348052
0.349414
0.350842
0.352362
0.354014
0.35581
0.357755
0.359861
0.36214
0.364609
0.367283
0.370187
0.373338
7.53602
8.10202
8.65255
9.18885
9.69365
10.1228
10.4057
10.4743
10.291
9.8552
9.19372
8.34946
7.37469
6.3145
5.30726
4.44718
3.72251
3.11635
2.61061
2.18793
1.82049
1.52276
1.29656
1.11659
0.967788
0.841277
0.732045
0.637369
0.555764
0.487661
0.440961
0.455446
0.785046
2.34289
0.519107
0.610695
0.810218
1.20132
1.78364
2.50933
3.33226
4.21106
5.11226
6.01249
6.9047
7.606
0.462221
0.423419
0.396944
0.37871
0.366166
0.357596
0.351835
0.348077
0.345757
0.344561
0.344094
0.343985
0.344313
0.344956
0.345799
0.346856
0.348054
0.349361
0.350741
0.352262
0.35392
0.35572
0.357672
0.359786
0.362074
0.364555
0.367241
0.37016
0.373328
8.17513
8.71799
9.25383
9.78707
10.2941
10.7192
10.9699
10.9785
10.7261
10.2227
9.50013
8.60156
7.55169
6.44146
5.42259
4.55127
3.81617
3.20046
2.68589
2.25473
1.87842
1.57222
1.33896
1.15311
0.999381
0.868652
0.755582
0.657222
0.571775
0.50152
0.450382
0.461716
0.806194
2.39172
0.502586
0.585124
0.758412
1.11362
1.66954
2.37873
3.19232
4.06482
4.95828
5.84537
6.71146
7.56005
8.21336
0.451111
0.416185
0.392203
0.375619
0.364171
0.356331
0.351056
0.347619
0.345516
0.344491
0.344073
0.343958
0.344317
0.344956
0.345797
0.346861
0.348003
0.349255
0.350637
0.35216
0.353823
0.355628
0.357587
0.359709
0.362007
0.364499
0.367198
0.370133
0.373319
8.74379
9.26688
9.8014
10.3427
10.8497
11.2656
11.4832
11.4302
11.1131
10.5501
9.77483
8.79944
7.69814
6.57735
5.54636
4.66319
3.91701
3.29115
2.7672
2.3271
1.94147
1.62637
1.38567
1.19358
1.03458
0.899322
0.782148
0.67981
0.593656
0.520279
0.461957
0.468817
0.829392
2.43973
0.487433
0.561699
0.711048
1.02793
1.55375
2.24434
3.04823
3.916
4.80485
5.6825
6.53012
7.34296
8.13208
8.7424
0.441151
0.409684
0.387934
0.372833
0.362372
0.355193
0.350355
0.347215
0.345347
0.344438
0.34404
0.343958
0.344317
0.344957
0.345802
0.34681
0.347896
0.349147
0.350531
0.352056
0.353723
0.355534
0.3575
0.359631
0.361938
0.364442
0.367155
0.370106
0.373309
9.23863
9.74914
10.2933
10.8555
11.367
11.7604
11.9393
11.8265
11.4519
10.8387
9.98739
8.96187
7.85384
6.72241
5.6789
4.78329
4.0254
3.38876
2.85486
2.40532
2.00993
1.68551
1.437
1.23833
1.07374
0.933673
0.812107
0.710347
0.622609
0.542075
0.475716
0.477892
0.855793
2.48626
0.473822
0.540682
0.668739
0.945474
1.43681
2.10601
2.89919
3.76332
4.65056
5.52327
6.35746
7.14427
7.88826
8.60396
9.17582
0.432236
0.403843
0.38409
0.370323
0.360752
0.354164
0.349731
0.346913
0.345236
0.344393
0.344042
0.343958
0.344313
0.344971
0.345753
0.346704
0.347789
0.349036
0.350423
0.351949
0.353621
0.355438
0.35741
0.35955
0.361867
0.364384
0.367111
0.37008
0.3733
9.64677
10.1587
10.7275
11.3202
11.8387
12.1977
12.3325
12.1667
11.7439
11.0576
10.1599
9.13294
8.01874
6.87677
5.82044
4.91186
4.14162
3.49358
2.94915
2.48966
2.08405
1.7499
1.49324
1.28767
1.11721
0.972031
0.852202
0.74997
0.655162
0.567129
0.492682
0.488514
0.884701
2.53108
0.461618
0.522015
0.632349
0.868278
1.31959
1.96376
2.74447
3.60549
4.49384
5.36608
6.1928
6.96002
7.66897
8.33159
8.97017
9.50578
0.42426
0.398595
0.380633
0.368062
0.359287
0.353245
0.349248
0.346727
0.345171
0.344398
0.344042
0.343958
0.344322
0.344936
0.345652
0.346598
0.34768
0.348923
0.350313
0.35184
0.353516
0.355339
0.357318
0.359468
0.361795
0.364326
0.367069
0.370055
0.373292
9.9645
10.4945
11.1056
11.7359
12.2559
12.5685
12.6571
12.4508
11.959
11.2325
10.3393
9.31206
8.19255
7.04039
5.97108
5.04909
4.26591
3.60582
3.05027
2.5803
2.164
1.81974
1.5546
1.34185
1.16523
1.02278
0.903192
0.793379
0.691429
0.596047
0.512843
0.501973
0.917806
2.57344
0.450702
0.505301
0.601755
0.799618
1.2042
1.8179
2.58349
3.4412
4.33297
5.20912
6.03423
6.78933
7.47085
8.08891
8.66236
9.22161
9.727
0.417126
0.393882
0.377523
0.36602
0.357976
0.35252
0.348961
0.346642
0.345178
0.344398
0.34404
0.343985
0.344285
0.344852
0.345556
0.346491
0.347571
0.348808
0.350199
0.351729
0.353409
0.355238
0.357224
0.359384
0.361723
0.36427
0.367029
0.37003
0.373283
10.1877
10.7583
11.4297
12.0982
12.606
12.8644
12.9097
12.6507
12.1268
11.4107
10.5239
9.49829
8.37471
7.213
6.13077
5.19504
4.39839
3.72564
3.15835
2.67737
2.24991
1.89515
1.62122
1.401
1.22797
1.086
0.957714
0.840365
0.731508
0.628887
0.537325
0.518058
0.954107
2.61316
0.440961
0.490273
0.575816
0.740944
1.09532
1.67009
2.41581
3.26909
4.16606
5.05033
5.87975
6.6299
7.29293
7.87475
8.39264
8.8726
9.3475
9.82989
0.410745
0.389649
0.374717
0.364191
0.356926
0.352096
0.348847
0.346653
0.345178
0.344393
0.344073
0.343989
0.344207
0.344774
0.345461
0.346381
0.347459
0.34869
0.350083
0.351615
0.353299
0.355135
0.357128
0.359301
0.361654
0.364216
0.366989
0.370006
0.373275
10.3143
10.9533
11.7006
12.3924
12.8752
13.0825
13.0679
12.7997
12.2925
11.5897
10.7121
9.69025
8.56429
7.39407
6.29926
5.34962
4.53904
3.85305
3.27343
2.78086
2.34177
1.97612
1.6931
1.47727
1.30457
1.15207
1.01518
0.890547
0.775141
0.66596
0.566003
0.538179
0.995909
2.64947
0.432286
0.476754
0.553521
0.691736
0.996345
1.52538
2.2425
3.08788
3.99104
4.88737
5.72707
6.47946
7.1323
7.68816
8.16051
8.57199
8.95514
9.33606
9.80629
0.405034
0.385837
0.372206
0.36271
0.35632
0.351947
0.348864
0.346653
0.34517
0.344438
0.344095
0.343974
0.344141
0.344695
0.345367
0.346268
0.347346
0.348571
0.349965
0.351499
0.353186
0.35503
0.357033
0.35922
0.361586
0.364163
0.366951
0.369983
0.373267
10.3419
11.0867
11.8992
12.6006
13.0442
13.2021
13.1721
12.9367
12.453
11.7665
10.9013
9.88607