/*--------------------------------*- C++ -*----------------------------------*\
  =========                 |
  \\      /  F ield         | OpenFOAM: The Open Source CFD Toolbox
   \\    /   O peration     | Website:  https://openfoam.org
    \\  /    A nd           | Version:  8
     \\/     M anipulation  |
\*---------------------------------------------------------------------------*/
FoamFile
{
    version     2.0;
    format      ascii;
    class       volScalarField;
    location    "0.26";
    object      epsilon;
}
// * * * * * * * * * * * * * * * * * * * * * * * * * * * * * * * * * * * * * //

dimensions      [0 2 -3 0 0 0 0];

internalField   nonuniform List<scalar> 
15677
(
59.7309
18.3655
52.6905
8.08383
26.032
50.2371
4.62235
13.3271
31.6631
50.5446
3.17412
7.75057
17.1324
37.343
51.6363
2.48698
5.05486
10.0507
20.8585
42.6874
53.6739
2.14423
3.62803
6.47416
12.1867
24.5772
47.6785
55.7274
1.97931
2.82303
4.53056
7.7369
14.2974
28.2747
52.0236
57.6568
1.91149
2.35349
3.40446
5.31665
8.92822
16.4394
31.7661
55.6935
59.352
1.88406
2.08033
2.72445
3.91243
6.02855
10.1155
18.5451
34.9555
58.7036
60.8516
1.8705
1.93939
2.30759
3.05708
4.36163
6.71299
11.2804
20.5719
37.7687
61.1738
62.1185
1.86764
1.87829
2.05662
2.52183
3.35001
4.77963
7.36795
12.4212
22.4588
40.2262
63.1643
63.234
1.86864
1.84883
1.91661
2.18638
2.71355
3.61702
5.16846
8.00379
13.5065
24.1992
42.3197
64.7906
64.1652
1.86956
1.83869
1.85193
1.98276
2.30742
2.8874
3.86008
5.53786
8.6068
14.535
25.7602
44.1094
66.097
65.0001
1.86981
1.83697
1.82112
1.86779
2.05166
2.41869
3.04401
4.08593
5.88305
9.18027
15.4835
27.1587
45.606
67.1607
65.7286
1.8698
1.83723
1.8105
1.81335
1.89831
2.11778
2.51933
3.18724
4.29348
6.20783
9.71204
16.3578
28.3798
46.8653
68.0285
66.3758
1.86976
1.83748
1.80821
1.78976
1.81544
1.93047
2.17909
2.61086
3.31718
4.4856
6.50691
10.2055
17.1415
29.4447
47.914
68.7371
66.9669
1.86974
1.83757
1.80792
1.78272
1.7757
1.82156
1.96254
2.23543
2.69344
3.43563
4.66058
6.78242
10.6517
17.8426
30.3533
48.7754
69.3438
67.4725
1.86973
1.83758
1.80794
1.78099
1.76145
1.76615
1.83183
1.99323
2.28652
2.76798
3.5424
4.8197
7.03058
11.0543
18.4527
31.1205
49.4886
69.827
67.9818
1.86972
1.83757
1.80796
1.78066
1.75696
1.7439
1.76041
1.8432
2.02171
2.33259
2.83469
3.63826
4.96178
7.25303
11.4072
18.9794
31.7571
50.0498
70.2803
68.3812
1.86972
1.83756
1.80795
1.78061
1.75569
1.73586
1.72951
1.75743
1.85458
2.04774
2.37378
2.89405
3.72311
5.08754
7.44761
11.7135
19.4202
32.2705
50.5175
70.62
68.8532
1.86972
1.83754
1.80794
1.78059
1.75538
1.73313
1.71728
1.718
1.75589
1.86567
2.07127
2.41032
2.94628
3.79737
5.19677
7.61502
11.9708
19.7823
32.6801
50.8602
70.9948
69.1705
1.86973
1.83754
1.80793
1.78056
1.75531
1.73229
1.71266
1.70129
1.70846
1.75576
1.87608
2.09226
2.44245
2.99171
3.86145
5.28958
7.75561
12.1818
20.0686
32.9886
51.1514
71.248
69.6372
1.86973
1.83753
1.80792
1.78053
1.75527
1.73202
1.71104
1.69446
1.68724
1.70085
1.75606
1.88563
2.11089
2.47047
3.03086
3.91558
5.36721
7.86919
12.3483
20.2856
33.2165
51.3474
71.6013
69.8949
1.86973
1.83753
1.80791
1.78051
1.75524
1.73192
1.7105
1.69183
1.678
1.67529
1.69454
1.75679
1.89445
2.1274
2.4948
3.0641
3.96077
5.42922
7.95921
12.4725
20.4419
33.3708
51.5119
71.8072
70.3611
1.86973
1.83753
1.80791
1.78049
1.75522
1.73186
1.7103
1.69085
1.6742
1.66364
1.66481
1.68949
1.75816
1.90263
2.14207
2.51587
3.09222
3.99746
5.47877
8.0247
12.5608
20.5391
33.4606
51.632
72.2065
70.6069
1.86972
1.83753
1.8079
1.78048
1.75519
1.73181
1.71021
1.69047
1.6727
1.65858
1.65069
1.65622
1.68565
1.75994
1.91042
2.15541
2.53444
3.11603
4.02724
5.51485
8.07178
12.6122
20.5971
33.511
51.7086
72.5023
429.375
1.86972
1.83753
1.8079
1.78047
1.75517
1.73177
1.71014
1.69029
1.67211
1.65644
1.6443
1.63991
1.6488
1.68297
1.76256
1.91835
2.168
2.55112
3.1363
4.05061
5.54186
8.09851
12.6404
20.6016
33.5082
51.829
88.8867
716.256
1.86972
1.83753
1.8079
1.78046
1.75516
1.73174
1.71009
1.69017
1.67184
1.65552
1.64153
1.6322
1.6303
1.6437
1.68225
1.76638
1.92678
2.18049
2.56684
3.15444
4.06998
5.55981
8.11505
12.6376
20.5891
33.5112
52.7564
122.279
995.296
1.86972
1.83753
1.80789
1.78046
1.75515
1.73171
1.71004
1.69009
1.67169
1.65509
1.64032
1.62865
1.62141
1.62343
1.63959
1.68325
1.77173
1.93652
2.19378
2.58284
3.17162
4.08643
5.57264
8.11495
12.626
20.5607
33.5371
55.3295
157.805
1241.55
1.86972
1.83753
1.80789
1.78045
1.75514
1.73169
1.71001
1.69003
1.67158
1.65485
1.63975
1.62702
1.61727
1.61326
1.61769
1.6396
1.68621
1.77936
1.94828
2.20891
2.59991
3.18912
4.10146
5.58078
8.11195
12.6023
20.5231
33.6385
59.9139
190.328
1468.07
1.86972
1.83753
1.80789
1.78045
1.75513
1.73167
1.70998
1.68998
1.67149
1.65469
1.63943
1.62622
1.61533
1.6083
1.6068
1.61602
1.64134
1.6922
1.79001
1.96304
2.22663
2.61939
3.208
4.11692
5.58766
8.10516
12.5734
20.48
33.8968
64.6378
221.174
1659.81
1.86972
1.83753
1.80789
1.78044
1.75512
1.73166
1.70995
1.68993
1.67141
1.65457
1.63922
1.62578
1.61437
1.60589
1.60148
1.60383
1.61735
1.64601
1.70216
1.80466
1.98165
2.24827
2.64221
3.22999
4.13419
5.59561
8.0974
12.5425
20.4325
34.3658
69.446
248.274
1805.2
1.86972
1.83753
1.80789
1.78044
1.75512
1.73164
1.70993
1.68989
1.67135
1.65447
1.63905
1.6255
1.61383
1.60467
1.59886
1.59773
1.60493
1.62157
1.65526
1.71692
1.8242
2.00537
2.2747
2.66989
3.25596
4.15527
5.60655
8.09128
12.5103
20.3885
34.9285
73.8011
269.323
1917.82
1.86972
1.83753
1.80789
1.78044
1.75511
1.73163
1.70992
1.68986
1.6713
1.65439
1.63892
1.62529
1.61347
1.604
1.5975
1.5947
1.59871
1.60895
1.63029
1.67023
1.73739
1.84989
2.03506
2.3073
2.7031
3.28759
4.18118
5.62211
8.0884
12.4765
20.354
35.4686
77.1778
285.972
2008.1
1.83753
1.86976
1.80789
1.78044
1.75511
1.73162
1.7099
1.68983
1.67125
1.65431
1.6388
1.62512
1.6132
1.60357
1.59673
1.59314
1.59563
1.60266
1.61746
1.64552
1.69157
1.76485
1.8826
2.07206
2.34674
2.7434
3.32549
4.21335
5.64273
8.08931
12.4399
20.3139
35.88
79.7705
299.471
2083.31
1.80789
1.83763
1.86983
1.78044
1.75511
1.73161
1.70989
1.6898
1.67122
1.65425
1.63871
1.62498
1.61298
1.60325
1.59623
1.59228
1.59407
1.59961
1.6112
1.63313
1.66771
1.72056
1.80028
1.9238
2.11716
2.39449
2.79111
3.37092
4.2519
5.66903
8.0935
12.4004
20.2651
36.1643
81.7561
310.868
2148.35
1.78044
1.80804
1.83783
1.8699
1.7551
1.73161
1.70988
1.68978
1.67119
1.65419
1.63863
1.62486
1.61279
1.60301
1.59585
1.59175
1.59324
1.59814
1.60834
1.62735
1.6562
1.69827
1.7584
1.84506
1.97411
2.17151
2.45073
2.8476
3.42385
4.29728
5.70471
8.10336
12.3644
20.2042
36.3408
83.3175
320.772
2206.23
1.7551
1.78064
1.80836
1.83804
1.86997
1.7316
1.70987
1.68975
1.67117
1.65414
1.63856
1.62475
1.61263
1.6028
1.59555
1.59138
1.59275
1.59742
1.60713
1.62496
1.65135
1.68834
1.73853
1.80673
1.90027
2.03512
2.23556
2.51703
2.91253
3.48468
4.35542
5.75234
8.12084
12.3318
20.1339
36.4376
84.5732
329.673
2259.11
1.73159
1.75535
1.78107
1.80868
1.83825
1.87005
1.70987
1.68974
1.67115
1.65409
1.63851
1.62466
1.6125
1.60263
1.59529
1.59109
1.59241
1.59705
1.60669
1.62431
1.65003
1.68527
1.73118
1.79046
1.86679
1.9677
2.10741
2.31054
2.59243
2.98656
3.56115
4.42939
5.80818
8.14462
12.3035
20.0566
36.475
85.6199
337.815
2307.97
1.70986
1.73188
1.75587
1.7815
1.80902
1.83847
1.87013
1.68972
1.67113
1.65405
1.63846
1.62457
1.61239
1.60248
1.59507
1.59085
1.59215
1.59682
1.60659
1.62442
1.65031
1.68542
1.73031
1.78664
1.85572
1.94089
2.04829
2.19262
2.39648
2.6782
3.07867
3.65664
4.5127
5.87171
8.17426
12.279
19.9773
36.4687
86.5217
345.421
2353.87
1.6897
1.71019
1.73248
1.7564
1.78195
1.80936
1.83869
1.87021
1.67111
1.65402
1.63842
1.62449
1.6123
1.60234
1.59489
1.59066
1.59195
1.59668
1.60662
1.62485
1.65141
1.6874
1.73289
1.78908
1.85602
1.93583
2.03002
2.14426
2.29099
2.4949
2.78403
3.19264
3.76257
4.60404
5.94136
8.20885
12.2601
19.8976
36.4492
87.3224
352.554
2396.93
1.6711
1.69006
1.71086
1.7331
1.75695
1.78241
1.80972
1.83893
1.87029
1.65398
1.63839
1.62442
1.61222
1.60222
1.59473
1.59049
1.59179
1.59658
1.60671
1.62538
1.65277
1.69018
1.73739
1.79532
1.86337
1.94235
2.03201
2.1355
2.25593
2.4044
2.61744
2.91672
3.31775
3.8766
4.7021
6.01597
8.24818
12.2448
19.8224
36.4116
88.0478
359.345
2437.85
1.65395
1.67148
1.69079
1.71156
1.73373
1.75751
1.78288
1.81008
1.83916
1.87037
1.63836
1.62436
1.61216
1.60212
1.59459
1.59036
1.59165
1.59651
1.60682
1.62593
1.65417
1.69314
1.7427
1.80371
1.87482
1.95657
2.04712
2.14753
2.2577
2.38384
2.54757
2.77283
3.06404
3.45333
3.99748
4.80527
6.09456
8.29096
12.2357
19.7514
36.3673
88.7236
365.762
2476.37
1.63834
1.65434
1.67228
1.69154
1.71227
1.73438
1.75808
1.78336
1.81045
1.83941
1.87046
1.6243
1.61211
1.60201
1.59448
1.59024
1.59154
1.59646
1.60696
1.62647
1.65554
1.69602
1.74806
1.813
1.88874
1.97545
2.07058
2.17402
2.28298
2.39996
2.54374
2.72712
2.94665
3.22478
3.59845
4.12476
4.91225
6.17601
8.33699
12.2287
19.6866
36.3221
89.354
371.925
2513.11
1.62425
1.63874
1.65516
1.67309
1.69232
1.713
1.73505
1.75867
1.78386
1.81083
1.83965
1.87055
1.61206
1.60192
1.59439
1.59013
1.59145
1.59642
1.60709
1.62698
1.65684
1.69876
1.75322
1.8222
1.90372
1.9975
2.09964
2.21014
2.32413
2.44212
2.58034
2.74751
2.92657
3.13746
3.39867
3.75167
4.25646
5.02189
6.25936
8.38493
12.2282
19.6285
36.2793
89.9587
377.737
2547.6
1.61203
1.62463
1.6396
1.656
1.67393
1.69312
1.71376
1.73574
1.75928
1.78437
1.81123
1.83991
1.87064
1.60183
1.59432
1.59004
1.59137
1.5964
1.60722
1.62746
1.65807
1.70131
1.75811
1.83103
1.91845
2.02103
2.13295
2.25342
2.37684
2.50255
2.64578
2.81296
2.97801
3.14508
3.34034
3.5826
3.9109
4.39183
5.13309
6.34365
8.43452
12.2298
19.5765
36.242
90.5293
383.348
2580.53
1.60175
1.61241
1.62545
1.64048
1.65687
1.67479
1.69394
1.71453
1.73645
1.7599
1.7849
1.81163
1.84017
1.87073
1.59426
1.58995
1.59129
1.59638
1.60735
1.62791
1.65921
1.70368
1.76271
1.83937
1.93261
2.04433
2.16848
2.30285
2.43914
2.57767
2.73338
2.91207
3.07933
3.23465
3.38224
3.55411
3.77548
4.07605
4.52958
5.2449
6.42808
8.48501
12.2337
19.5306
36.21
91.0854
388.606
2611.3
1.59423
1.60203
1.61323
1.62629
1.64138
1.65777
1.67568
1.69479
1.71533
1.73718
1.76054
1.78544
1.81204
1.84043
1.87082
1.58986
1.59122
1.59636
1.60747
1.62832
1.66026
1.70587
1.76701
1.84718
1.94609
2.0669
2.2038
2.35601
2.51058
2.66637
2.84074
3.0401
3.22173
3.38013
3.5164
3.63615
3.77676
3.97175
4.24463
4.66839
5.35632
6.51192
8.53573
12.241
19.4905
36.1851
91.611
393.701
2640.71
1.58978
1.5945
1.60269
1.61406
1.62717
1.64232
1.6587
1.67659
1.69567
1.71614
1.73793
1.7612
1.78599
1.81245
1.84068
1.8709
1.59115
1.59635
1.60758
1.62871
1.66123
1.70788
1.77099
1.85444
1.95883
2.0885
2.23819
2.4096
2.58825
2.76908
2.96821
3.19705
3.4035
3.57756
3.71559
3.82209
3.90476
4.00757
4.1702
4.41448
4.80682
5.4665
6.59455
8.5863
12.2504
19.4558
36.1655
92.1266
398.438
2668.01
1.59111
1.58978
1.59509
1.60335
1.61494
1.62809
1.64328
1.65966
1.67753
1.69657
1.71698
1.7387
1.76187
1.78654
1.81285
1.84093
1.87098
1.59633
1.60768
1.62906
1.66212
1.70972
1.77466
1.86116
1.97082
2.10897
2.27139
2.46264
2.66743
2.88241
3.11808
3.38647
3.62898
3.8305
3.9827
4.08622
4.1505
4.18604
4.24432
4.36951
4.58424
4.94414
5.57494
6.67548
8.63633
12.2617
19.4259
36.1527
92.6129
403.043
2694.14
1.59634
1.59099
1.58983
1.59569
1.60406
1.61584
1.62905
1.64427
1.66066
1.67849
1.6975
1.71785
1.73949
1.76254
1.78707
1.81323
1.84117
1.87106
1.60777
1.62938
1.66292
1.71141
1.77803
1.86736
1.98203
2.12821
2.30324
2.51456
2.74636
3.00005
3.28729
3.61515
3.90809
4.15159
4.33078
4.44206
4.49318
4.50057
4.47807
4.48502
4.56828
4.75188
5.07986
5.68108
6.75434
8.68548
12.2743
19.4006
36.144
93.09
407.289
2718.24
1.6079
1.59599
1.59071
1.58984
1.59633
1.60484
1.61677
1.63006
1.64529
1.66169
1.67949
1.69846
1.71873
1.74027
1.76319
1.78758
1.81361
1.8414
1.87114
1.62965
1.66364
1.71294
1.78111
1.87306
1.99245
2.1462
2.33365
2.56478
2.82417
3.12017
3.46763
3.88159
4.25722
4.56456
4.78901
4.91966
4.96301
4.93844
4.87151
4.77907
4.72788
4.76554
4.91532
5.21277
5.78437
6.8308
8.73348
12.2879
19.3791
36.1414
93.5387
411.435
2741.37
1.62997
1.6072
1.59511
1.59038
1.58997
1.59699
1.60569
1.61773
1.63111
1.64634
1.66275
1.6805
1.69943
1.7196
1.74103
1.76382
1.78809
1.81397
1.84162
1.87122
1.66428
1.71433
1.78393
1.87831
2.00211
2.16296
2.36253
2.61289
2.90035
3.24193
3.65583
4.17427
4.68292
5.10944
5.41035
5.57865
5.61805
5.55463
5.42436
5.26264
5.08746
4.97136
4.96054
5.07415
5.34204
5.88437
6.9046
8.7801
12.3023
19.3612
36.1426
93.9778
415.228
2759.94
1.66496
1.62869
1.60534
1.59411
1.59011
1.59027
1.59765
1.6066
1.61872
1.6322
1.64742
1.66384
1.68155
1.7004
1.72046
1.74177
1.76443
1.78857
1.81433
1.84184
1.87129
1.71558
1.78648
1.88311
2.01102
2.17855
2.3898
2.6586
2.97467
3.3642
3.84904
4.48965
5.17762
5.81887
6.282
6.52197
6.56517
6.44775
6.2253
5.9527
5.67311
5.40173
5.21412
5.15219
5.228
5.46706
5.98075
6.97556
8.82518
12.3172
19.3462
36.1461
94.3892
418.446
2775.58
1.71685
1.66301
1.62517
1.60332
1.59321
1.58981
1.59076
1.59832
1.60758
1.61973
1.63333
1.64854
1.66497
1.68259
1.70135
1.72129
1.74248
1.76503
1.78905
1.81467
1.84205
1.87136
1.78881
1.8875
2.01922
2.19303
2.41544
2.70184
3.04696
3.4855
4.0447
4.82777
5.7462
6.69607
7.47863
7.90525
7.97523
7.78649
7.42459
6.97974
6.52352
6.10148
5.72031
5.45498
5.33963
5.37652
5.58743
6.07324
7.04356
8.86859
12.3323
19.3341
36.1526
94.7367
421.099
2792.52
1.79107
1.71404
1.65733
1.62142
1.60147
1.59243
1.58951
1.59137
1.59901
1.60863
1.62079
1.63451
1.64968
1.66608
1.6836
1.70227
1.7221
1.74318
1.76561
1.78951
1.81501
1.84225
1.87143
1.89157
2.02676
2.20645
2.43944
2.74265
3.11701
3.60436
4.24153
5.19002
6.39372
7.74785
9.00052
9.84734
10.0853
9.82135
9.26262
8.55358
7.81719
7.13452
6.54556
6.04159
5.6929
5.52215
5.51947
5.70288
6.16175
7.10849
8.91025
12.3475
19.324
36.161
95.0265
424.01
2811
1.8954
1.7872
1.70525
1.65135
1.61795
1.5998
1.59171
1.58925
1.59208
1.59974
1.60972
1.62189
1.63571
1.65083
1.66716
1.68459
1.70316
1.72288
1.74386
1.76618
1.78996
1.81533
1.84245
1.87147
2.03377
2.21891
2.46185
2.78112
3.18452
3.71964
4.43961
5.57744
7.11901
8.96989
10.8398
12.3282
13.0629
12.8858
12.0801
10.9932
9.82832
8.73126
7.78102
7.00239
6.36386
5.92688
5.69921
5.65667
5.81323
6.24605
7.17034
8.95009
12.3627
19.3171
36.1685
95.3514
427.149
2831.09
2.0402
1.8902
1.77401
1.69609
1.64575
1.61473
1.59826
1.59107
1.58908
1.59285
1.60053
1.61085
1.62304
1.6369
1.65195
1.66822
1.68555
1.70403
1.72365
1.74452
1.76673
1.79039
1.81565
1.84255
1.87147
2.2306
2.48277
2.81738
3.24921
3.83073
4.63984
5.98936
7.91481
10.345
12.9732
15.3218
16.867
17.2181
16.3336
14.7452
12.9619
11.2334
9.71109
8.45652
7.46838
6.68529
6.15607
5.8704
5.78803
5.91854
6.32647
7.22916
8.98809
12.3757
19.3117
36.179
95.7028
430.62
2853.15
2.2411
2.03339
1.8707
1.76042
1.68749
1.64048
1.61172
1.59683
1.59051
1.58901
1.59367
1.6014
1.61201
1.6242
1.63806
1.65305
1.66925
1.68649
1.70487
1.7244
1.74516
1.76726
1.79081
1.8158
1.84255
1.87147
2.50247
2.85162
3.31087
3.93758
4.84327
6.42315
8.76984
11.849
15.3626
18.7855
21.4594
22.7683
22.3704
20.4278
17.7922
15.1416
12.7479
10.7432
9.15338
7.93962
7.0041
6.37969
6.0354
5.91346
6.01829
6.40304
7.28499
9.01948
12.387
19.3069
36.191
96.1005
434.373
2877.14
2.51981
2.2322
2.00497
1.85089
1.74763
1.67935
1.63547
1.60888
1.59551
1.59005
1.58905
1.59452
1.60236
1.61315
1.62536
1.63919
1.65413
1.67024
1.68741
1.70569
1.72512
1.74578
1.76778
1.79102
1.8158
1.84255
1.87147
2.88414
3.36956
4.04074
5.05065
6.87447
9.67086
13.4548
17.962
22.6541
26.7743
29.4906
30.1473
28.5436
25.144
21.1836
17.4991
14.3484
11.8132
9.86359
8.41212
7.31856
6.59706
6.19397
6.03314
6.11249
6.47571
7.3309
9.04621
12.3998
19.3023
36.2077
96.5335
438.522
2903.52
2.91238
2.5085
2.19085
1.97646
1.83225
1.73546
1.67153
1.63068
1.60622
1.59431
1.5897
1.58922
1.59536
1.60337
1.61427
1.6265
1.64029
1.65518
1.67122
1.6883
1.70649
1.72583
1.74639
1.76804
1.79102
1.8158
1.84255
1.87147
3.42558
4.14113
5.26233
7.33788
10.604
15.1349
20.7224
26.849
32.7057
37.287
39.6142
39.0744
35.7256
30.4366
24.8726
19.9988
16.011
12.9067
10.5794
8.8821
7.62705
6.80755
6.34596
6.14714
6.2014
6.53541
7.36989
9.0756
12.4142
19.2988
36.2275
97.0236
443.031
2932.18
3.47375
2.89777
2.44831
2.15001
1.94964
1.81445
1.72373
1.66401
1.6261
1.60375
1.59323
1.58945
1.58961
1.59618
1.60442
1.61535
1.62763
1.64137
1.65621
1.67216
1.68917
1.70727
1.72651
1.74669
1.76804
1.79102
1.8158
1.84255
1.87147
4.23944
5.47634
7.80764
11.5556
16.8624
23.595
31.2862
39.1223
45.9877
50.6266
51.9698
49.5654
43.8669
36.2417
28.8066
22.6042
17.7131
14.0106
11.2938
9.34611
7.92812
7.01072
6.49132
6.25547
6.27417
6.5861
7.41263
9.10795
12.4305
19.2957
36.2541
97.5618
448.021
2963.77
4.32543
3.45537
2.80891
2.38986
2.11162
1.92396
1.79725
1.71239
1.65677
1.62171
1.6015
1.59225
1.58918
1.59021
1.59696
1.60549
1.61641
1.62873
1.64241
1.65721
1.67308
1.69002
1.70802
1.72685
1.74669
1.76804
1.79102
1.8158
1.84255
1.87143
5.68945
8.27947
12.5134
18.6119
26.5327
35.8816
45.8817
55.377
62.9201
67.0243
66.6225
61.5766
52.8823
42.4807
32.9295
25.2799
19.4337
15.1133
12.0005
9.80109
8.22058
7.20619
6.63
6.34469
6.33582
6.6416
7.45951
9.14361
12.4491
19.2949
36.2859
98.1701
453.487
2997.95
4.30185
5.87708
3.3201
2.72458
2.33495
2.07482
1.89911
1.78059
1.70145
1.64982
1.61753
1.59943
1.59139
1.5889
1.59093
1.59774
1.60655
1.61746
1.62981
1.64344
1.65819
1.67398
1.69084
1.7084
1.72685
1.74669
1.76804
1.79102
1.8158
1.84245
1.87136
8.74862
13.4663
20.3611
29.4916
40.5554
52.8435
65.2211
76.1514
83.8404
86.6176
83.5515
75.0035
62.6565
49.0651
37.1848
27.993
21.1547
16.2046
12.6942
10.2446
8.50345
7.39369
6.74465
6.42056
6.4032
6.7024
7.51098
9.18297
12.4701
19.2957
36.3268
98.8475
459.528
3035.74
4.08022
5.85881
9.16543
3.19614
2.64552
2.28228
2.03917
1.87501
1.76449
1.69092
1.64318
1.6136
1.59756
1.59066
1.58871
1.5917
1.59853
1.6076
1.61849
1.63087
1.64444
1.65914
1.67486
1.69125
1.70839
1.72685
1.74669
1.76804
1.79102
1.81565
1.84225
1.87129
14.4026
22.0904
32.4342
45.2357
59.8781
75.293
89.9489
101.893
108.979
109.434
102.646
89.6873
73.0506
55.9013
41.5178
30.7136
22.8599
17.2762
13.3708
10.6745
8.77595
7.54943
6.84241
6.5038
6.47691
6.76906
7.56754
9.22646
12.4942
19.2982
36.3768
99.6083
466.214
3076.38
3.88511
5.46564
9.1774
15.2366
3.08099
2.56969
2.23129
2.00461
1.8517
1.74896
1.68083
1.63688
1.60998
1.59593
1.59007
1.58864
1.59248
1.59934
1.60863
1.61951
1.6319
1.64542
1.66007
1.67529
1.69124
1.70839
1.72685
1.74669
1.76804
1.79081
1.81533
1.84204
1.87122
23.7797
35.3283
49.8631
66.8735
85.3906
103.958
120.611
132.936
138.443
135.381
123.706
105.423
83.9107
62.8958
45.878
33.4156
24.5361
18.3214
14.0269
11.0894
9.00308
7.68261
6.94994
6.59521
6.55761
6.84219
7.62973
9.2746
12.5218
19.3041
36.4388
100.472
473.585
3121.47
3.70775
5.12265
8.45721
15.3228
25.2935
2.97093
2.49633
2.18186
1.97116
1.8292
1.73405
1.67119
1.63097
1.60676
1.59454
1.58961
1.58868
1.59326
1.60018
1.60963
1.62051
1.6329
1.64638
1.66052
1.67528
1.69124
1.70839
1.72685
1.74669
1.76778
1.79038
1.815
1.84183
1.87114
38.1421
54.3894
73.7416
95.3468
117.874
139.457
157.641
169.489
172.195
164.244
146.457
121.972
95.0776
69.9597
50.2198
36.0762
26.1724
19.335
14.66
11.4356
9.19769
7.82953
7.06837
6.6957
6.64607
6.92247
7.6982
9.32794
12.5534
19.3138
36.5163
101.432
481.835
3169.5
3.54113
4.81247
7.81499
14.079
25.564
40.6696
2.86477
2.42536
2.13408
1.9389
1.80759
1.71978
1.66211
1.62562
1.60394
1.59335
1.5893
1.58884
1.59401
1.60104
1.6106
1.62151
1.63389
1.64685
1.66052
1.67528
1.69124
1.70839
1.72685
1.74639
1.76725
1.78995
1.81466
1.84161
1.87106
58.767
80.4155
105.039
131.456
157.98
182.298
201.36
211.62
210.052
195.69
170.556
139.079
106.396
77.0112
54.503
38.6772
27.7603
20.3131
15.1881
11.7324
9.4128
7.99182
7.19898
6.80631
6.74314
7.01067
7.77362
9.38716
12.5895
19.3293
36.6091
102.549
490.911
3223.03
3.38287
4.52366
7.22646
12.9331
23.6269
41.277
62.6955
2.76232
2.3569
2.08805
1.90791
1.78689
1.7063
1.65382
1.62087
1.60149
1.59236
1.58908
1.58915
1.59473
1.60192
1.61156
1.62251
1.63437
1.64684
1.66051
1.67528
1.69124
1.7084
1.72651
1.74577
1.76672
1.7895
1.81431
1.84139
1.87098
86.8296
114.382
144.542
175.844
206.252
232.904
251.974
259.24
251.673
229.279
195.622
156.486
117.721
83.9778
58.695
41.2036
29.2934
21.1291
15.6408
12.0606
9.65083
8.17132
7.34319
6.92818
6.84978
7.10763
7.85678
9.45294
12.6315
19.3495
36.7281
103.773
501.174
3279.22
3.23241
4.25261
6.675
11.8586
21.8051
38.4501
63.8297
92.5615
2.66372
2.29112
2.04388
1.87827
1.76731
1.69395
1.6464
1.61664
1.5994
1.59152
1.5889
1.58963
1.59541
1.60282
1.61253
1.623
1.63435
1.64684
1.66051
1.67528
1.69124
1.70802
1.72582
1.74515
1.76616
1.78903
1.81396
1.84116
1.8709
123.292
157.033
192.843
229.036
263.174
291.628
309.564
312.091
296.564
264.487
221.254
173.945
128.921
90.7994
62.7691
43.644
30.5728
21.8284
16.1412
12.4238
9.91454
8.37009
7.50262
7.06262
6.96707
7.21433
7.94855
9.52622
12.6794
19.3798
36.866
105.16
512.468
3353.16
3.08958
3.99889
6.15569
10.8359
20.0579
35.7637
59.9074
94.4206
131.191
2.56911
2.22819
2.00168
1.85023
1.74935
1.68285
1.63976
1.61286
1.59761
1.59082
1.58868
1.59019
1.59611
1.60379
1.61299
1.62297
1.63434
1.64684
1.66051
1.67529
1.69083
1.70725
1.7251
1.7445
1.7656
1.78856
1.8136
1.84092
1.87081
168.831
208.873
250.393
291.518
329.226
358.773
374.067
369.723
344.087
300.739
247.056
191.233
139.888
97.427
66.7041
45.6808
31.6693
22.6013
16.6949
12.8263
10.207
8.59045
7.6791
7.21111
7.09624
7.33182
8.04989
9.60775
12.7357
19.4161
37.0458
106.658
527.576
3441.37
2.95411
3.76297
5.66896
9.85982
18.3591
33.1499
56.1747
89.1772
133.937
179.158
2.47878
2.16826
1.96183
1.82453
1.73321
1.6729
1.63382
1.6095
1.59607
1.59024
1.58852
1.59083
1.5969
1.60426
1.61291
1.62298
1.63434
1.64684
1.66052
1.67485
1.69
1.70647
1.72437
1.74384
1.76501
1.78807
1.81322
1.84068
1.87073
223.834
270.234
317.614
363.835
404.934
434.582
445.242
431.492
393.497
337.44
272.657
208.156
150.531
103.822
69.9865
47.4266
32.8815
23.4564
17.308
13.2725
10.5315
8.83502
7.87469
7.3753
7.23865
7.46136
8.16194
9.69896
12.7994
19.4694
37.2448
108.751
546.105
3531.15
2.82541
3.54593
5.21626
8.9364
16.6982
30.5719
52.5156
84.2235
127.098
182.86
236.683
2.39305
2.11185
1.92535
1.80144
1.71871
1.66397
1.6285
1.60656
1.59476
1.58974
1.58851
1.59163
1.59722
1.6042
1.6129
1.62298
1.63434
1.64685
1.66005
1.67396
1.68914
1.70566
1.72362
1.74316
1.76442
1.78757
1.81284
1.84043
1.87064
288.471
341.407
395.033
446.689
490.914
519.222
522.644
496.566
443.97
374.01
297.736
224.56
160.781
109.148
72.7983
49.3562
34.2226
24.4033
17.9875
13.7676
10.8921
9.10669
8.09169
7.55706
7.39588
7.60412
8.28572
9.80047
12.8755
19.5302
37.5593
111.287
567.53
3619.92
2.70324
3.34964
4.79907
8.06806
15.076
28.0124
48.8765
79.3643
120.74
174.056
241.25
303.701
2.31275
2.06034
1.89266
1.78071
1.70569
1.65596
1.62377
1.60397
1.59361
1.58942
1.5888
1.592
1.59704
1.60421
1.6129
1.62297
1.63437
1.64637
1.65911
1.67305
1.68827
1.70484
1.72286
1.74246
1.76381
1.78706
1.81244
1.84017
1.87055
362.848
422.82
483.441
541.051
587.919
612.761
605.589
563.939
494.655
409.93
322.028
240.322
169.295
113.704
75.9039
51.4906
35.7076
25.4525
18.7411
14.3173
11.2928
9.4087
8.33267
7.75848
7.56967
7.76224
8.42349
9.91509
12.9611
19.6344
37.9559
114.342
589.531
3708.59
2.58869
3.1699
4.41763
7.2573
13.5064
25.4699
45.2258
74.5222
114.545
166.066
229.948
308.816
380.031
2.23986
2.01429
1.86336
1.7621
1.694
1.6488
1.61955
1.60167
1.59271
1.58949
1.58882
1.59186
1.59702
1.60421
1.61291
1.623
1.63388
1.64539
1.65815
1.67212
1.68737
1.70399
1.72207
1.74175
1.76318
1.78653
1.81204
1.83991
1.87046
447.231
515.291
584.125
648.385
696.912
715.096
693.104
632.481
544.75
444.758
345.325
253.374
176.563
118.727
79.335
53.8524
37.3525
26.6156
19.5773
14.9279
11.7384
9.74464
8.60049
7.98189
7.76192
7.93549
8.57703
10.0429
13.084
19.7731
38.4827
117.534
614.493
3795.03
2.48467
3.0053
4.07353
6.50903
12.0061
22.9559
41.5516
69.6434
108.406
158.395
220.006
294.239
385.085
465.619
2.17508
1.97312
1.83712
1.74541
1.68352
1.64236
1.61576
1.59977
1.59238
1.58938
1.58849
1.59188
1.59702
1.6042
1.61299
1.62251
1.63288
1.6444
1.65717
1.67117
1.68645
1.70312
1.72126
1.74101
1.76254
1.78599
1.81163
1.83966
1.87037
542.336
620.204
699.194
770.885
819.01
825.801
783.934
701.035
593.537
478.143
364.56
264.488
184.556
124.265
83.126
56.4663
39.1753
27.9056
20.5053
15.6061
12.2339
10.1184
8.89828
8.22986
7.97529
8.1261
8.74737
10.215
13.2433
19.9651
39.0513
121.351
640.467
3879.65
2.39236
2.85773
3.76814
5.82957
10.5923
20.489
37.8576
64.6951
102.235
150.897
210.673
281.876
366.094
469.673
560.88
2.11748
1.93634
1.81361
1.73044
1.67409
1.63655
1.61255
1.59872
1.59202
1.58897
1.58848
1.59188
1.59704
1.60427
1.61253
1.62149
1.63186
1.64339
1.65616
1.67019
1.68551
1.70223
1.72044
1.74026
1.76188
1.78544
1.81122
1.8394
1.87028
649.361
739.996
832.132
911.566
955.229
944.012
876.636
768.49
640.422
505.658
380.897
276.672
193.339
130.367
87.3131
59.3593
41.1955
29.3367
21.5355
16.3597
12.785
10.5343
9.22946
8.50519
8.21226
8.33608
8.97222
10.4327
13.4322
20.1819
39.7652
125.492
669.435
3961.19
2.31071
2.72652
3.50699
5.22643
9.28629
18.0917
34.158
59.6622
95.9696
143.443
201.757
270.602
350.63
444.573
562.671
667.164
2.06625
1.90349
1.79256
1.71697
1.66557
1.63158
1.6105
1.59792
1.59147
1.58897
1.58847
1.59186
1.59723
1.6038
1.61154
1.62048
1.63083
1.64236
1.65513
1.66919
1.68454
1.70132
1.71959
1.73949
1.76121
1.7849
1.81083
1.83916
1.8702
770.82
879.461
988.413
1074
1106.21
1068.51
969.677
833.838
679.089
528.983
398.75
290.007
202.976
137.082
91.9347
62.5598
43.4342
30.924
22.679
17.1967
13.3975
10.9968
9.59766
8.8111
8.47509
8.61111
9.25322
10.6719
13.6411
20.4554
40.5773
130.332
700.145
4038.87
2.23864
2.60921
3.29184
4.71226
8.10751
15.7885
30.4761
54.5415
89.5611
135.926
193.072
260.166
336.999
425.069
528.863
665.254
787.22
2.02065
1.87415
1.77365
1.7048
1.6582
1.62817
1.60909
1.59715
1.59148
1.58897
1.5885
1.59202
1.59692
1.60282
1.61058
1.61946
1.62977
1.6413
1.65407
1.66817
1.68356
1.70038
1.71872
1.7387
1.76054
1.78437
1.81044
1.83893
1.87012
912.282
1046.94
1175.4
1262.2
1272.48
1197.89
1061.44
888.009
711.849
554.402
418.207
304.566
213.53
144.461
97.0304
66.098
45.9135
32.684
23.9477
18.1258
14.0779
11.5108
10.0069
9.15052
8.82094
8.9534
9.5531
10.9292
13.882
20.7781
41.5363
135.821
733.824
4112.37
2.17502
2.50463
3.10976
4.28431
7.08555
13.6296
26.8441
49.3422
82.9723
128.252
184.46
250.31
324.863
408.492
504.085
618.611
779.932
926.657
1.98005
1.84789
1.7566
1.69425
1.65296
1.62598
1.60802
1.59717
1.59148
1.58898
1.58886
1.59166
1.59612
1.60191
1.6096
1.61844
1.62868
1.64023
1.65299
1.66712
1.68255
1.69942
1.71784
1.73792
1.7599
1.78386
1.81007
1.8387
1.87004
1083.13
1254.4
1403.23
1482.1
1455.32
1330.13
1138.43
933.987
747.497
582
439.341
320.415
225.057
152.554
102.64
70.0047
48.6571
34.6341
25.3544
19.1564
14.8329
12.0815
10.4608
9.59721
9.25236
9.31588
9.87092
11.2092
14.1546
21.155
42.6992
142.051
770.535
4180.47
2.11883
2.41187
2.95259
3.93113
6.22716
11.7003
23.3307
44.0878
76.1764
120.333
175.769
240.808
313.855
394.367
483.784
586.994
714.323
911.026
1096.08
1.94382
1.8243
1.74176
1.68655
1.64968
1.62459
1.60805
1.59717
1.59147
1.58942
1.58885
1.59086
1.59542
1.60103
1.6086
1.61741
1.62757
1.63913
1.65189
1.66604
1.68152
1.69844
1.71697
1.73717
1.75927
1.78336
1.8097
1.83847
1.86996
1299.36
1521.19
1690.65
1745.3
1655.67
1443.4
1204.06
984.018
786.087
611.825
462.198
337.601
237.606
161.405
108.801
74.3109
51.6889
36.7925
26.9126
20.2982
15.6697
12.7137
11.0576
10.1537
9.7081
9.69826
10.208
11.5127
14.4586
21.6238
43.996
149.467
809.606
4242.31
2.069
2.33004
2.8146
3.64044
5.51566
10.0413
20.0738
38.8569
69.1628
112.081
166.846
231.445
303.672
382.158
467.27
562
674.001
818.039
1068.11
1311.91
1.91138
1.80377
1.73069
1.68185
1.64785
1.62464
1.60804
1.59716
1.59207
1.58955
1.58857
1.59022
1.59473
1.60016
1.60757
1.61636
1.62645
1.63801
1.65078
1.66494
1.68048
1.69747
1.71613
1.73643
1.75867
1.78287
1.80935
1.83826
1.86989
1593.76
1894.78
2077.36
2073.24
1831.55
1540.35
1275.5
1038.05
827.594
643.87
486.787
356.149
251.21
171.05
115.549
79.0466
55.033
39.1777
28.6361
21.5617
16.5951
13.5436
11.7994
10.74
10.187
10.1007
10.5649
11.8391
14.814
22.1392
45.6598
157.687
854.297
4297.74
2.02464
2.258
2.69193
3.40406
4.9314
8.64186
17.1591
33.8471
61.9928
103.422
157.526
221.994
294.018
371.457
453.725
542.605
643.16
766.927
935.615
1274.7
1615.76
1.88316
1.78821
1.72401
1.67949
1.64793
1.62463
1.60803
1.59798
1.59247
1.5895
1.58859
1.58966
1.59402
1.59933
1.60653
1.6153
1.62531
1.63686
1.64964
1.66381
1.67944
1.69653
1.71531
1.73572
1.75808
1.7824
1.80901
1.83805
1.86982
2078.97
2479.14
2672.15
2363.17
1981.02
1645.23
1352.26
1095.83
871.882
678.057
513.074
376.053
265.885
181.518
122.914
84.239
58.7124
41.808
30.5391
22.9565
17.8078
14.5722
12.5786
11.3542
10.6878
10.5224
10.9397
12.1979
15.1981
22.808
47.4523
167.868
899.968
4346.01
1.98612
2.19453
2.58243
3.20891
4.45406
7.47228
14.5922
29.2096
54.9073
94.3566
147.637
212.206
284.597
361.873
442.599
527.508
620.33
728.939
870.805
1080.86
1583.5
2167.84
1.86143
1.77903
1.72097
1.67963
1.64792
1.62459
1.60917
1.59885
1.59282
1.58983
1.58876
1.5892
1.59328
1.59852
1.60547
1.61423
1.62416
1.63568
1.64849
1.6627
1.67844
1.69562
1.71451
1.73503
1.7575
1.78195
1.80867
1.83784
1.86974
2935.88
3644.19
3158.39
2599.23
2138.08
1755.97
1433.41
1156.91
918.687
714.227
540.964
397.266
281.62
192.817
130.916
89.9111
62.7484
44.7014
32.6349
24.7812
19.307
15.6502
13.3925
11.9939
11.2089
10.9624
11.3342
12.5775
15.6584
23.5171
49.8376
179.131
953.727
4382.15
1.95611
2.13993
2.48489
3.04338
4.06678
6.50646
12.3785
24.9848
48.1212
85.1246
137.082
201.801
275.078
353.036
433.378
515.964
603.406
702.054
824.303
997.889
1286.72
2172.75
3343.43
1.84869
1.77521
1.72117
1.67961
1.64784
1.62607
1.61066
1.59993
1.59374
1.59035
1.58899
1.58891
1.59251
1.59774
1.60442
1.61313
1.623
1.63448
1.64736
1.66162
1.67748
1.69474
1.71374
1.73436
1.75694
1.78151
1.80835
1.83765
1.86971
5065.17
4373.78
3499.65
2826.9
2296.97
1870.18
1517.7
1220.62
967.61
752.127
570.296
419.698