/*--------------------------------*- C++ -*----------------------------------*\
  =========                 |
  \\      /  F ield         | OpenFOAM: The Open Source CFD Toolbox
   \\    /   O peration     | Website:  https://openfoam.org
    \\  /    A nd           | Version:  8
     \\/     M anipulation  |
\*---------------------------------------------------------------------------*/
FoamFile
{
    version     2.0;
    format      ascii;
    class       surfaceScalarField;
    location    "0.39";
    object      phi;
}
// * * * * * * * * * * * * * * * * * * * * * * * * * * * * * * * * * * * * * //

dimensions      [0 3 -1 0 0 0 0];

internalField   nonuniform List<scalar> 
31053
(
6.27578e-07
1.27524e-05
8.49366e-07
1.51582e-05
3.75312e-07
1.23771e-05
9.31968e-07
1.75574e-05
5.86912e-07
1.49466e-05
2.67976e-07
1.21091e-05
9.55511e-07
2.02165e-05
7.04135e-07
1.74402e-05
4.6134e-07
1.47532e-05
2.13871e-07
1.18953e-05
9.46406e-07
2.32491e-05
7.62636e-07
2.0158e-05
5.84854e-07
1.73167e-05
3.91537e-07
1.45756e-05
1.69798e-07
1.17255e-05
9.16358e-07
2.669e-05
7.86587e-07
2.32252e-05
6.57831e-07
2.0085e-05
5.16299e-07
1.71919e-05
3.27392e-07
1.4418e-05
1.3476e-07
1.15907e-05
8.70884e-07
3.06655e-05
7.88169e-07
2.66885e-05
6.97538e-07
2.31854e-05
5.94514e-07
2.00068e-05
4.46189e-07
1.70731e-05
2.7159e-07
1.42812e-05
1.07223e-07
1.14835e-05
8.13626e-07
3.51973e-05
7.74257e-07
3.06794e-05
7.14772e-07
2.66712e-05
6.39539e-07
2.31404e-05
5.23438e-07
1.99295e-05
3.80284e-07
1.69644e-05
2.23643e-07
1.41647e-05
8.44563e-08
1.1399e-05
7.47118e-07
4.03865e-05
7.48366e-07
3.52231e-05
7.15743e-07
3.06784e-05
6.61296e-07
2.66495e-05
5.68084e-07
2.30958e-05
4.5272e-07
1.98571e-05
3.19969e-07
1.68681e-05
1.8089e-07
1.40683e-05
6.45319e-08
1.13345e-05
6.73197e-07
4.63539e-05
7.1274e-07
4.04221e-05
7.03362e-07
3.52355e-05
6.65616e-07
3.06741e-05
5.89048e-07
2.66285e-05
4.93705e-07
2.30548e-05
3.84947e-07
1.97921e-05
2.63057e-07
1.67859e-05
1.41375e-07
1.39915e-05
4.62715e-08
1.12882e-05
5.93717e-07
5.32195e-05
6.69243e-07
4.63974e-05
6.79198e-07
4.04463e-05
6.56146e-07
3.5245e-05
5.92213e-07
3.06709e-05
5.10778e-07
2.66114e-05
4.19862e-07
2.30199e-05
3.18244e-07
1.97369e-05
2.07921e-07
1.67194e-05
1.03768e-07
1.3934e-05
2.88786e-08
1.12593e-05
5.10686e-07
6.1063e-05
6.19329e-07
5.32694e-05
6.44452e-07
4.64322e-05
6.34804e-07
4.04676e-05
5.81058e-07
3.52562e-05
5.09602e-07
3.06721e-05
4.30699e-07
2.66006e-05
3.4486e-07
2.29933e-05
2.51171e-07
1.96937e-05
1.53419e-07
1.66697e-05
6.70819e-08
1.38958e-05
1.1884e-08
1.12475e-05
4.26252e-07
7.00664e-05
5.64354e-07
6.1118e-05
6.00066e-07
5.33138e-05
6.02244e-07
4.64647e-05
5.57476e-07
4.04912e-05
4.9353e-07
3.52722e-05
4.22683e-07
3.06801e-05
3.47239e-07
2.65982e-05
2.67281e-07
2.29771e-05
1.82675e-07
1.96644e-05
9.86825e-08
1.66381e-05
3.06227e-08
1.3877e-05
-4.96642e-09
1.12524e-05
3.43517e-07
8.04147e-05
5.0544e-07
7.01253e-05
5.47129e-07
6.11709e-05
5.58743e-07
5.33573e-05
5.22297e-07
4.64999e-05
4.64348e-07
4.05204e-05
3.99032e-07
3.52959e-05
3.30013e-07
3.06973e-05
2.58976e-07
2.66065e-05
1.86075e-07
2.29737e-05
1.11976e-07
1.96511e-05
4.30566e-08
1.66257e-05
-6.02285e-09
1.38781e-05
-2.19252e-08
1.12744e-05
2.79188e-07
7.62543e-05
4.42831e-07
8.04773e-05
4.86982e-07
7.01855e-05
5.04585e-07
6.12251e-05
4.75745e-07
5.34038e-05
4.22833e-07
4.65414e-05
3.61422e-07
4.0558e-05
2.96208e-07
3.53297e-05
2.3018e-07
3.07261e-05
1.64823e-07
2.66278e-05
1.00438e-07
2.29853e-05
3.8482e-08
1.96557e-05
-1.38653e-08
1.66335e-05
-4.31458e-08
1.38993e-05
-3.91563e-08
1.13135e-05
2.26459e-07
7.62427e-05
3.86715e-07
7.63104e-05
4.20992e-07
8.05433e-05
4.4033e-07
7.02498e-05
4.17874e-07
6.1283e-05
3.69161e-07
5.34575e-05
3.10521e-07
4.65923e-05
2.47376e-07
4.06068e-05
1.83641e-07
3.53762e-05
1.22051e-07
3.07689e-05
6.38954e-08
2.66643e-05
9.76419e-09
2.3014e-05
-3.81256e-08
1.968e-05
-7.22916e-08
1.66627e-05
-8.08721e-08
1.3941e-05
-5.66146e-08
1.13701e-05
1.83472e-07
7.6233e-05
3.34338e-07
7.62951e-05
3.61918e-07
7.63695e-05
3.67095e-07
8.06166e-05
3.48837e-07
7.03188e-05
3.03308e-07
6.13488e-05
2.46404e-07
5.35216e-05
1.84053e-07
4.66556e-05
1.2073e-07
4.06698e-05
6.01386e-08
3.54381e-05
4.62576e-09
3.08282e-05
-4.44438e-08
2.67185e-05
-8.62081e-08
2.30621e-05
-1.17895e-07
1.97256e-05
-1.32139e-07
1.67139e-05
-1.19093e-07
1.40035e-05
-7.41463e-08
1.14443e-05
1.48613e-07
7.62269e-05
2.85796e-07
7.62815e-05
3.06468e-07
7.63506e-05
3.00436e-07
7.64362e-05
2.69239e-07
8.06962e-05
2.25306e-07
7.03968e-05
1.68957e-07
6.14263e-05
1.06201e-07
5.35995e-05
4.18223e-08
4.67345e-05
-1.978e-08
4.07497e-05
-7.54105e-08
3.55182e-05
-1.22757e-07
3.09065e-05
-1.60464e-07
2.67928e-05
-1.87387e-07
2.31316e-05
-2.00508e-07
1.97939e-05
-1.93132e-07
1.6788e-05
-1.57528e-07
1.40869e-05
-9.16079e-08
1.15359e-05
1.20339e-07
7.62183e-05
2.41013e-07
7.62716e-05
2.54671e-07
7.63333e-05
2.3726e-07
7.64137e-05
1.95645e-07
7.65098e-05
1.35637e-07
8.07858e-05
7.81318e-08
7.04876e-05
1.36309e-08
6.15188e-05
-5.32684e-08
5.36946e-05
-1.17543e-07
4.68323e-05
-1.75407e-07
4.08497e-05
-2.23752e-07
3.56192e-05
-2.60397e-07
3.10064e-05
-2.83916e-07
2.68893e-05
-2.93234e-07
2.32243e-05
-2.85403e-07
1.98862e-05
-2.5473e-07
1.68852e-05
-1.95798e-07
1.41911e-05
-1.08743e-07
1.16446e-05
9.72574e-08
7.62131e-05
1.99952e-07
7.62593e-05
2.06469e-07
7.63198e-05
1.77936e-07
7.63926e-05
1.25183e-07
7.64842e-05
5.27316e-08
7.65927e-05
-2.56348e-08
8.08896e-05
-9.37718e-08
7.0595e-05
-1.64809e-07
6.16304e-05
-2.3352e-07
5.38105e-05
-2.95472e-07
4.69524e-05
-3.46973e-07
4.09729e-05
-3.85148e-07
3.57439e-05
-4.07872e-07
3.11304e-05
-4.14083e-07
2.70102e-05
-4.02878e-07
2.33418e-05
-3.71673e-07
2.00031e-05
-3.16259e-07
1.70056e-05
-2.33415e-07
1.43157e-05
-1.25354e-07
1.177e-05
7.82928e-08
7.6209e-05
1.62558e-07
7.62505e-05
1.6181e-07
7.6304e-05
1.22629e-07
7.63752e-05
5.8618e-08
7.64592e-05
-2.6618e-08
7.65635e-05
-1.21151e-07
7.66882e-05
-2.1551e-07
8.10113e-05
-2.92895e-07
7.07231e-05
-3.68072e-07
6.17649e-05
-4.36192e-07
5.39513e-05
-4.92853e-07
4.70983e-05
-5.34716e-07
4.11225e-05
-5.59034e-07
3.58951e-05
-5.64299e-07
3.12806e-05
-5.49785e-07
2.71571e-05
-5.15008e-07
2.34851e-05
-4.58273e-07
2.01452e-05
-3.76904e-07
1.71491e-05
-2.69859e-07
1.44602e-05
-1.41113e-07
1.19111e-05
6.37917e-08
6.95965e-05
1.28647e-07
7.62429e-05
1.20656e-07
7.62916e-05
7.14093e-08
7.63552e-05
-3.59528e-09
7.64374e-05
-1.0143e-07
7.6534e-05
-2.12196e-07
7.66546e-05
-3.26911e-07
7.67996e-05
-4.36916e-07
8.11554e-05
-5.21301e-07
7.08763e-05
-5.98056e-07
6.19268e-05
-6.62256e-07
5.41207e-05
-7.09926e-07
4.72735e-05
-7.37917e-07
4.13013e-05
-7.44344e-07
3.60751e-05
-7.28183e-07
3.1459e-05
-6.89299e-07
2.73314e-05
-6.28153e-07
2.3655e-05
-5.43952e-07
2.03122e-05
-4.35767e-07
1.7315e-05
-3.04515e-07
1.46236e-05
-1.55812e-07
1.20669e-05
5.25069e-08
6.25553e-05
1.00646e-07
6.96245e-05
8.29502e-08
7.62806e-05
2.42972e-08
7.63387e-05
-6.11702e-08
7.64128e-05
-1.71052e-07
7.6507e-05
-2.97588e-07
7.66194e-05
-4.32575e-07
7.67603e-05
-5.67916e-07
7.69306e-05
-6.92405e-07
8.13265e-05
-7.81168e-07
7.10594e-05
-8.55832e-07
6.21204e-05
-9.11975e-07
5.43227e-05
-9.45803e-07
4.74814e-05
-9.55314e-07
4.15123e-05
-9.39249e-07
3.62862e-05
-8.97366e-07
3.16671e-05
-8.30699e-07
2.75339e-05
-7.40556e-07
2.38516e-05
-6.27377e-07
2.05038e-05
-4.9187e-07
1.75024e-05
-3.36853e-07
1.48047e-05
-1.69047e-07
1.22359e-05
4.34363e-08
5.62271e-05
7.78467e-08
6.25781e-05
5.1365e-08
6.96561e-05
-1.87015e-08
7.63236e-05
-1.13911e-07
7.63915e-05
-2.35039e-07
7.64768e-05
-3.76493e-07
7.65859e-05
-5.31119e-07
7.6718e-05
-6.91505e-07
7.68838e-05
-8.47156e-07
7.70853e-05
-9.84503e-07
8.15298e-05
-1.07371e-06
7.12773e-05
-1.14172e-06
6.23501e-05
-1.18429e-06
5.45612e-05
-1.19902e-06
4.77251e-05
-1.18472e-06
4.17578e-05
-1.14112e-06
3.65299e-05
-1.06945e-06
3.19058e-05
-9.71699e-07
2.77651e-05
-8.50397e-07
2.40746e-05
-7.07103e-07
2.0719e-05
-5.4429e-07
1.77098e-05
-3.65981e-07
1.50016e-05
-1.80215e-07
1.24162e-05
3.59771e-08
5.05395e-05
5.92411e-08
5.62457e-05
2.52816e-08
6.26042e-05
-5.43817e-08
6.96918e-05
-1.61671e-07
7.63713e-05
-2.9308e-07
7.64495e-05
-4.48311e-07
7.65486e-05
-6.21499e-07
7.66763e-05
-8.0609e-07
7.68325e-05
-9.92412e-07
7.70291e-05
-1.16755e-06
7.72684e-05
-1.31461e-06
8.17707e-05
-1.39933e-06
7.15349e-05
-1.45449e-06
6.26203e-05
-1.47753e-06
5.48397e-05
-1.46702e-06
4.80074e-05
-1.42301e-06
4.20397e-05
-1.34708e-06
3.68076e-05
-1.24159e-06
3.21757e-05
-1.10994e-06
2.80246e-05
-9.5568e-07
2.43232e-05
-7.81766e-07
2.09565e-05
-5.91684e-07
1.79355e-05
-3.91169e-07
1.52126e-05
-1.87067e-07
1.26032e-05
2.97724e-08
4.54262e-05
4.40148e-08
5.05547e-05
3.71086e-09
5.62672e-05
-8.35433e-08
6.26333e-05
-2.00827e-07
6.97309e-05
-3.44957e-07
7.64232e-05
-5.12616e-07
7.65138e-05
-7.02932e-07
7.663e-05
-9.10409e-07
7.67806e-05
-1.12635e-06
7.69665e-05
-1.33864e-06
7.72002e-05
-1.53071e-06
7.74845e-05
-1.68331e-06
8.20547e-05
-1.75667e-06
7.18371e-05
-1.79226e-06
6.29351e-05
-1.78872e-06
5.51614e-05
-1.74612e-06
4.83305e-05
-1.66677e-06
4.23594e-05
-1.55367e-06
3.71197e-05
-1.41085e-06
3.24766e-05
-1.24283e-06
2.83117e-05
-1.05454e-06
2.4596e-05
-8.49572e-07
2.12144e-05
-6.33125e-07
1.81775e-05
-4.08137e-07
1.54336e-05
-1.56753e-07
1.276e-05
2.46046e-08
4.08312e-05
3.15053e-08
4.54387e-05
-1.41728e-08
5.05726e-05
-1.07432e-07
5.62911e-05
-2.32363e-07
6.26649e-05
-3.86823e-07
6.97728e-05
-5.69106e-07
7.64797e-05
-7.74845e-07
7.65857e-05
-1.00348e-06
7.67231e-05
-1.24748e-06
7.69017e-05
-1.49568e-06
7.71235e-05
-1.73205e-06
7.74015e-05
-1.93742e-06
7.77386e-05
-2.08911e-06
8.23871e-05
-2.14367e-06
7.21885e-05
-2.15168e-06
6.3298e-05
-2.11365e-06
5.55289e-05
-2.03234e-06
4.8696e-05
-1.91189e-06
4.27176e-05
-1.75729e-06
3.74661e-05
-1.57396e-06
3.28078e-05
-1.36793e-06
2.86251e-05
-1.1447e-06
2.48911e-05
-9.09058e-07
2.14903e-05
-6.6314e-07
1.84325e-05
-4.03665e-07
1.56806e-05
-1.08749e-07
1.28687e-05
2.03014e-08
3.67003e-05
2.11759e-08
4.08415e-05
-2.90709e-08
4.54536e-05
-1.27065e-07
5.05922e-05
-2.57771e-07
5.63165e-05
-4.19912e-07
6.2698e-05
-6.137e-07
6.98174e-05
-8.36826e-07
7.65417e-05
-1.08455e-06
7.66668e-05
-1.35457e-06
7.68302e-05
-1.63691e-06
7.70429e-05
-1.91623e-06
7.73077e-05
-2.17366e-06
7.76378e-05
-2.38614e-06
7.80356e-05
-2.52985e-06
8.27733e-05
-2.5566e-06
7.25934e-05
-2.52793e-06
6.37123e-05
-2.44767e-06
5.59443e-05
-2.3208e-06
4.91049e-05
-2.15402e-06
4.31143e-05
-1.95399e-06
3.78461e-05
-1.72793e-06
3.31678e-05
-1.4825e-06
2.89629e-05
-1.22413e-06
2.52062e-05
-9.55109e-07
2.17823e-05
-6.76145e-07
1.8705e-05
-3.79823e-07
1.59516e-05
-8.56079e-08
1.29543e-05
1.67022e-08
3.29896e-05
1.26044e-08
3.67089e-05
-4.15729e-08
4.0854e-05
-1.43262e-07
4.54698e-05
-2.78266e-07
5.06127e-05
-4.45976e-07
5.63426e-05
-6.48006e-07
6.27323e-05
-8.84507e-07
6.98651e-05
-1.15309e-06
7.66102e-05
-1.44671e-06
7.6759e-05
-1.76086e-06
7.69541e-05
-2.08116e-06
7.72079e-05
-2.38928e-06
7.75233e-05
-2.66197e-06
7.79136e-05
-2.87475e-06
7.83805e-05
-3.00147e-06
8.32182e-05
-2.98995e-06
7.30555e-05
-2.91561e-06
6.41802e-05
-2.78507e-06
5.64085e-05
-2.60645e-06
4.95574e-05
-2.38854e-06
4.35489e-05
-2.14022e-06
3.82584e-05
-1.86952e-06
3.35548e-05
-1.58401e-06
2.93228e-05
-1.28849e-06
2.55396e-05
-9.84236e-07
2.20904e-05
-6.76244e-07
1.90014e-05
-3.57249e-07
1.62233e-05
-8.15532e-08
1.30359e-05
1.36689e-08
2.9651e-05
5.45026e-09
3.29968e-05
-5.21431e-08
3.67194e-05
-1.5668e-07
4.08674e-05
-2.94827e-07
4.54864e-05
-4.66442e-07
5.06332e-05
-6.74145e-07
5.63687e-05
-9.19979e-07
6.27677e-05
-1.20439e-06
6.99164e-05
-1.52318e-06
7.66867e-05
-1.86635e-06
7.68645e-05
-2.22509e-06
7.70981e-05
-2.58183e-06
7.74004e-05
-2.91345e-06
7.77748e-05
-3.19498e-06
7.82338e-05
-3.39887e-06
7.87779e-05
-3.49773e-06
8.3726e-05
-3.43766e-06
7.35775e-05
-3.30827e-06
6.47034e-05
-3.1201e-06
5.69222e-05
-2.88389e-06
5.00527e-05
-2.61124e-06
4.40199e-05
-2.31216e-06
3.8701e-05
-1.99574e-06
3.39665e-05
-1.66873e-06
2.97031e-05
-1.33505e-06
2.58904e-05
-1.00102e-06
2.24152e-05
-6.71129e-07
1.93153e-05
-3.46247e-07
1.6488e-05
-8.71719e-08
1.31231e-05
1.10906e-08
2.66506e-05
-5.62602e-10
2.9657e-05
-6.11245e-08
3.30057e-05
-1.6784e-07
3.67306e-05
-3.08231e-07
4.08808e-05
-4.82458e-07
4.55024e-05
-6.93843e-07
5.06529e-05
-9.45852e-07
5.63946e-05
-1.24115e-06
6.28045e-05
-1.57888e-06
6.99721e-05
-1.9525e-06
7.67728e-05
-2.34657e-06
7.69859e-05
-2.7492e-06
7.72654e-05
-3.13773e-06
7.76247e-05
-3.48689e-06
7.80667e-05
-3.76806e-06
7.8603e-05
-3.95179e-06
7.9232e-05
-4.01203e-06
8.43003e-05
-3.89248e-06
7.41617e-05
-3.69933e-06
6.52827e-05
-3.44646e-06
5.74847e-05
-3.14818e-06
5.05897e-05
-2.81769e-06
4.45254e-05
-2.46639e-06
3.91717e-05
-2.10325e-06
3.4401e-05
-1.73439e-06
3.01024e-05
-1.3675e-06
2.62568e-05
-1.01114e-06
2.27552e-05
-6.68365e-07
1.96374e-05
-3.45368e-07
1.67462e-05
-1.17192e-07
1.32403e-05
8.8844e-09
2.39562e-05
-5.65058e-09
2.66557e-05
-6.87724e-08
2.96647e-05
-1.77157e-07
3.30151e-05
-3.19099e-07
3.67415e-05
-4.94948e-07
4.08933e-05
-7.08492e-07
4.5517e-05
-9.64244e-07
5.06713e-05
-1.26656e-06
5.642e-05
-1.61722e-06
6.28428e-05
-2.01369e-06
7.00333e-05
-2.44446e-06
7.68707e-05
-2.88963e-06
7.71264e-05
-3.33227e-06
7.746e-05
-3.74719e-06
7.7885e-05
-4.10493e-06
7.84036e-05
-4.37423e-06
7.90254e-05
-4.52648e-06
7.97464e-05
-4.53629e-06
8.49441e-05
-4.34694e-06
7.48093e-05
-4.08147e-06
6.59177e-05
-3.75839e-06
5.8095e-05
-3.39419e-06
5.11662e-05
-3.00401e-06
4.5063e-05
-2.59974e-06
3.96682e-05
-2.19006e-06
3.48567e-05
-1.78368e-06
3.05186e-05
-1.39098e-06
2.66367e-05
-1.01974e-06
2.31066e-05
-6.69345e-07
1.99614e-05
-4.29532e-07
1.70585e-05
-1.25903e-07
1.33662e-05
6.98777e-09
2.15339e-05
-9.98094e-09
2.39605e-05
-7.52963e-08
2.66622e-05
-1.84962e-07
2.96725e-05
-3.27929e-07
3.30239e-05
-5.0465e-07
3.67512e-05
-7.19206e-07
4.0904e-05
-9.76859e-07
4.55296e-05
-1.28323e-06
5.06879e-05
-1.64212e-06
5.64449e-05
-2.05416e-06
6.28833e-05
-2.51251e-06
7.01013e-05
-3.00169e-06
7.69828e-05
-3.49494e-06
7.7289e-05
-3.97289e-06
7.76857e-05
-4.40564e-06
7.81857e-05
-4.7604e-06
7.87898e-05
-5.00614e-06
7.95051e-05
-5.11424e-06
8.03244e-05
-5.06206e-06
8.56592e-05
-4.79262e-06
7.55205e-05
-4.44808e-06
6.66074e-05
-4.05001e-06
5.87508e-05
-3.61755e-06
5.17797e-05
-3.16697e-06
4.56303e-05
-2.71029e-06
4.01884e-05
-2.25796e-06
3.5331e-05
-1.821e-06
3.09486e-05
-1.40959e-06
2.70265e-05
-1.02729e-06
2.34645e-05
-8.2881e-07
2.03606e-05
-4.30846e-07
1.73634e-05
-1.35682e-07
1.35018e-05
5.35304e-09
1.93536e-05
-1.36854e-08
2.15376e-05
-8.08775e-08
2.39661e-05
-1.91521e-07
2.66687e-05
-3.35115e-07
2.96797e-05
-5.12154e-07
3.30314e-05
-7.26873e-07
3.67588e-05
-9.85054e-07
4.09122e-05
-1.29323e-06
4.55397e-05
-1.65675e-06
5.07025e-05
-2.07867e-06
5.64694e-05
-2.5559e-06
6.29267e-05
-3.0783e-06
7.01779e-05
-3.62395e-06
7.71118e-05
-4.16141e-06
7.74775e-05
-4.66669e-06
7.79467e-05
-5.10589e-06
7.85312e-05
-5.44576e-06
7.92294e-05
-5.65454e-06
8.00454e-05
-5.70578e-06
8.09681e-05
-5.57981e-06
8.64464e-05
-5.22198e-06
7.62944e-05
-4.7924e-06
6.73498e-05
-4.31632e-06
5.94496e-05
-3.81475e-06
5.24275e-05
-3.30456e-06
4.62245e-05
-2.79904e-06
4.07295e-05
-2.31044e-06
3.58204e-05
-1.84954e-06
3.13885e-05
-1.42359e-06
2.74228e-05
-1.27525e-06
2.39109e-05
-8.23705e-07
2.07535e-05
-4.32162e-07
1.76599e-05
-1.43399e-07
1.36452e-05
1.73974e-05
3.94251e-09
-1.68707e-08
1.93568e-05
-8.56682e-08
2.15424e-05
-1.97054e-07
2.39717e-05
-3.40977e-07
2.66746e-05
-5.17926e-07
2.96855e-05
-7.32193e-07
3.30367e-05
-9.89901e-07
3.67637e-05
-1.29823e-06
4.09172e-05
-1.66364e-06
4.55466e-05
-2.09108e-06
5.0715e-05
-2.58035e-06
5.64939e-05
-3.12568e-06
6.29741e-05
-3.71116e-06
7.02651e-05
-4.31056e-06
7.72609e-05
-4.88498e-06
7.76958e-05
-5.40659e-06
7.82474e-05
-5.84034e-06
7.89258e-05
-6.15139e-06
7.97262e-05
-6.30952e-06
8.06492e-05
-6.29065e-06
8.1679e-05
-6.081e-06
8.73054e-05
-5.62726e-06
7.71293e-05
-5.10867e-06
6.81421e-05
-4.55336e-06
6.01882e-05
-3.98344e-06
5.31064e-05
-3.41697e-06
4.68425e-05
-2.86851e-06
4.12876e-05
-2.34989e-06
3.63208e-05
-1.86968e-06
3.18346e-05
-1.76984e-06
2.79174e-05
-1.26691e-06
2.43541e-05
-8.15385e-07
2.11367e-05
-4.31145e-07
1.79477e-05
-1.48301e-07
1.37935e-05
1.74002e-05
-1.96276e-08
2.78121e-05
1.86358e-09
-8.9794e-08
1.93609e-05
-2.01737e-07
2.15471e-05
-3.4577e-07
2.39764e-05
-5.22338e-07
2.6679e-05
-7.35721e-07
2.9689e-05
-9.92244e-07
3.3039e-05
-1.29953e-06
3.6765e-05
-1.66482e-06
4.09184e-05
-2.09446e-06
4.55499e-05
-2.59052e-06
5.07251e-05
-3.15065e-06
5.65189e-05
-3.76391e-06
6.30268e-05
-4.41082e-06
7.03654e-05
-5.05782e-06
7.74338e-05
-5.65881e-06
7.79481e-05
-6.18511e-06
7.85922e-05
-6.59913e-06
7.93735e-05
-6.8669e-06
8.02836e-05
-6.95985e-06
8.13183e-05
-6.85946e-06
8.24574e-05
-6.55674e-06
8.82349e-05
-6.00178e-06
7.80224e-05
-5.39227e-06
6.8981e-05
-4.75824e-06
6.0963e-05
-4.12309e-06
5.38125e-05
-3.50584e-06
4.74798e-05
-2.92044e-06
4.18581e-05
-2.3768e-06
3.68279e-05
-2.3254e-06
3.23902e-05
-1.75936e-06
2.84099e-05
-1.2506e-06
2.47894e-05
-8.0273e-07
2.15083e-05
-4.26668e-07
1.8226e-05
-1.50584e-07
1.39441e-05
1.74037e-05
-9.3358e-08
2.78158e-05
-2.33762e-08
2.8552e-05
-9.25523e-11
-2.05714e-07
1.93649e-05
-3.49699e-07
2.1551e-05
-5.25686e-07
2.39798e-05
-7.37891e-07
2.66812e-05
-9.92741e-07
2.96895e-05
-1.29813e-06
3.30377e-05
-1.66185e-06
3.6762e-05
-2.09125e-06
4.09152e-05
-2.59011e-06
4.55495e-05
-3.15877e-06
5.07332e-05
-3.79028e-06
5.65452e-05
-4.47075e-06
6.30867e-05
-5.174e-06
7.04816e-05
-5.85927e-06
7.76342e-05
-6.4757e-06
7.82386e-05
-6.9923e-06
7.89854e-05
-7.37158e-06
7.98782e-05
-7.5804e-06
8.09042e-05
-7.59531e-06
8.20542e-05
-7.40225e-06
8.33029e-05
-6.99925e-06
8.92324e-05
-6.34006e-06
7.89702e-05
-5.63958e-06
6.98623e-05
-4.92966e-06
6.17695e-05
-4.2345e-06
5.45411e-05
-3.57234e-06
4.81317e-05
-2.95537e-06
4.24367e-05
-2.95666e-06
3.74592e-05
-2.31207e-06
3.29429e-05
-1.73581e-06
2.88951e-05
-1.22655e-06
2.52132e-05
-7.85101e-07
2.18667e-05
-4.18783e-07
1.84942e-05
-1.50502e-07
1.40946e-05
1.74071e-05
-2.09104e-07
2.78196e-05
-9.7162e-08
2.85555e-05
-2.69507e-08
2.93118e-05
-1.92334e-09
-3.52926e-07
1.93682e-05
-5.28201e-07
2.15535e-05
-7.39041e-07
2.39809e-05
-9.91902e-07
2.66804e-05
-1.29482e-06
2.96862e-05
-1.65595e-06
3.30318e-05
-2.08336e-06
3.67541e-05
-2.58206e-06
4.09071e-05
-3.15448e-06
4.55452e-05
-3.79681e-06
5.07398e-05
-4.49975e-06
5.65742e-05
-5.24332e-06
6.31561e-05
-5.99469e-06
7.0617e-05
-6.70814e-06
7.78667e-05
-7.32577e-06
7.85721e-05
-7.81735e-06
7.94311e-05
-8.14532e-06
8.04431e-05
-8.28103e-06
8.15899e-05
-8.205e-06
8.2857e-05
-7.91024e-06
8.42139e-05
-7.40202e-06
9.02944e-05
-6.63758e-06
7.99682e-05
-5.84851e-06
7.07812e-05
-5.06766e-06
6.26027e-05
-4.31829e-06
5.52871e-05
-3.617e-06
4.87933e-05
-3.67727e-06
4.31573e-05
-2.93992e-06
3.8087e-05
-2.28058e-06
3.34877e-05
-1.70056e-06
2.93691e-05
-1.19508e-06
2.56232e-05
-7.62852e-07
2.22108e-05
-4.07823e-07
1.87516e-05
-1.48459e-07
1.42431e-05
1.74098e-05
-3.55585e-07
2.78215e-05
-2.10955e-07
2.85591e-05
-1.00687e-07
2.93152e-05
-3.03413e-08
3.00897e-05
-3.62682e-09
-5.30067e-07
1.937e-05
-7.39437e-07
2.15539e-05
-9.90122e-07
2.39792e-05
-1.29022e-06
2.66758e-05
-1.64808e-06
2.96783e-05
-2.07225e-06
3.30206e-05
-2.56865e-06
3.67407e-05
-3.14128e-06
4.08939e-05
-3.78877e-06
4.55372e-05
-4.50547e-06
5.07455e-05
-5.27659e-06
5.66075e-05
-6.07608e-06
6.32374e-05
-6.8666e-06
7.07755e-05
-7.59482e-06
7.81357e-05
-8.19831e-06
7.89531e-05
-8.64763e-06
7.99334e-05
-8.90895e-06
8.10711e-05
-8.95698e-06
8.23419e-05
-8.77915e-06
8.37259e-05
-8.37586e-06
8.51877e-05
-7.75941e-06
9.14162e-05
-6.89134e-06
8.1011e-05
-6.01834e-06
7.17319e-05
-5.17233e-06
6.34567e-05
-4.37498e-06
5.60451e-05
-4.50221e-06
4.96183e-05
-3.65702e-06
4.38744e-05
-2.89953e-06
3.87059e-05
-2.23322e-06
3.40203e-05
-1.65484e-06
2.98289e-05
-1.15717e-06
2.60175e-05
-7.36671e-07
2.25397e-05
-3.94327e-07
1.89974e-05
-1.44871e-07
1.4388e-05
1.74111e-05
-5.3143e-07
2.782e-05
-3.54065e-07
2.85605e-05
-2.12432e-07
2.93184e-05
-1.03908e-07
3.00929e-05
-3.35394e-08
3.08896e-05
-5.20624e-09
-7.39283e-07
1.93699e-05
-9.87702e-07
2.15515e-05
-1.28478e-06
2.39737e-05
-1.63895e-06
2.66666e-05
-2.05905e-06
2.96651e-05
-2.55166e-06
3.30037e-05
-3.1219e-06
3.67213e-05
-3.77029e-06
4.08755e-05
-4.4941e-06
4.55258e-05
-5.28269e-06
5.07516e-05
-6.11575e-06
5.66472e-05
-6.96325e-06
6.33341e-05
-7.78055e-06
7.09612e-05
-8.50886e-06
7.84463e-05
-9.08057e-06
7.9386e-05
-9.47137e-06
8.04959e-05
-9.64997e-06
8.1764e-05
-9.59761e-06
8.31603e-05
-9.30918e-06
8.46592e-05
-8.79244e-06
8.62208e-05
-8.06738e-06
9.25922e-05
-7.09981e-06
8.20925e-05
-6.14862e-06
7.27082e-05
-5.24411e-06
6.43259e-05
-5.44862e-06
5.69915e-05
-4.47884e-06
5.04401e-05
-3.60702e-06
4.45819e-05
-2.8387e-06
3.93114e-05
-2.17207e-06
3.45376e-05
-1.60036e-06
3.0272e-05
-1.11406e-06
2.63949e-05
-7.0741e-07
2.28528e-05
-3.78878e-07
1.92314e-05
-1.40123e-07
1.45281e-05
1.74106e-05
-7.38737e-07
2.78135e-05
-5.24954e-07
2.85585e-05
-3.52003e-07
2.93195e-05
-2.13525e-07
3.00958e-05
-1.06832e-07
3.08926e-05
-3.65426e-08
3.17095e-05
-6.66337e-09
-9.84873e-07
1.9367e-05
-1.27884e-06
2.15456e-05
-1.62909e-06
2.39639e-05
-2.04462e-06
2.66522e-05
-2.53243e-06
2.96459e-05
-3.09845e-06
3.29802e-05
-3.74464e-06
3.66957e-05
-4.4705e-06
4.08519e-05
-5.26877e-06
4.55119e-05
-6.12384e-06
5.07597e-05
-7.01196e-06
5.66959e-05
-7.89617e-06
6.34497e-05
-8.72646e-06
7.11788e-05
-9.43762e-06
7.88033e-05
-9.96065e-06
7.98753e-05
-1.02755e-05
8.11214e-05
-1.03569e-05
8.25233e-05
-1.01934e-05
8.40446e-05
-9.78742e-06
8.56542e-05
-9.15496e-06
8.73083e-05
-8.32353e-06
9.38159e-05
-7.26195e-06
8.32058e-05
-6.23956e-06
7.37036e-05
-6.53574e-06
6.5413e-05
-5.4231e-06
5.79357e-05
-4.41877e-06
5.12518e-05
-3.53138e-06
4.52746e-05
-2.76041e-06
3.98998e-05
-2.09958e-06
3.50368e-05
-1.539e-06
3.0697e-05
-1.06706e-06
2.67545e-05
-6.75917e-07
2.31498e-05
-3.62046e-07
1.94533e-05
-1.34547e-07
1.46626e-05
1.74075e-05
-9.81807e-07
2.78003e-05
-7.25507e-07
2.85513e-05
-5.17821e-07
2.9317e-05
-3.49464e-07
3.00965e-05
-2.14215e-07
3.08952e-05
-1.09449e-07
3.17123e-05
-3.93469e-08
3.25533e-05
-8.00355e-09
-1.27267e-06
1.93609e-05
-1.61892e-06
2.15354e-05
-2.0296e-06
2.39488e-05
-2.51197e-06
2.66317e-05
-3.07255e-06
2.962e-05
-3.71431e-06
3.29499e-05
-4.43851e-06
3.66637e-05
-5.24053e-06
4.08236e-05
-6.1086e-06
4.54966e-05
-7.0242e-06
5.07719e-05
-7.9571e-06
5.67568e-05
-8.86525e-06
6.35885e-05
-9.69202e-06
7.14332e-05
-1.03692e-05
7.92119e-05
-1.08251e-05
8.04249e-05
-1.10479e-05
8.18124e-05
-1.10194e-05
8.33493e-05
-1.07357e-05
8.49928e-05
-1.02079e-05
8.67071e-05
-9.46029e-06
8.84451e-05
-8.52616e-06
9.50802e-05
-7.37765e-06
8.43439e-05
-7.7836e-06
7.49515e-05
-6.50978e-06
6.64997e-05
-5.35282e-06
5.88698e-05
-4.32708e-06
5.20475e-05
-3.43406e-06
4.59482e-05
-2.66791e-06
4.04681e-05
-2.01829e-06
3.55161e-05
-1.47264e-06
3.11026e-05
-1.01737e-06
2.7096e-05
-6.42991e-07
2.34307e-05
-3.44346e-07
1.96631e-05
-1.28407e-07
1.4791e-05
1.74013e-05
-1.26646e-06
2.77782e-05
-9.59793e-07
2.85372e-05
-7.1138e-07
2.93091e-05
-5.09913e-07
3.00934e-05
-3.46351e-07
3.08955e-05
-2.14499e-07
3.17146e-05
-1.11752e-07
3.25559e-05
-4.19422e-08
3.34192e-05
-9.22654e-09
-1.60873e-06
1.93507e-05
-2.01446e-06
2.15202e-05
-2.49106e-06
2.39279e-05
-3.0454e-06
2.66046e-05
-3.68122e-06
2.95869e-05
-4.40108e-06
3.29124e-05
-5.20242e-06
3.66256e-05
-6.07657e-06
4.07916e-05
-7.00932e-06
4.54818e-05
-7.97616e-06
5.0791e-05
-8.94212e-06
5.68337e-05
-9.85858e-06
6.37551e-05
-1.06656e-05
7.17295e-05
-1.129e-05
7.96769e-05
-1.16612e-05
8.10381e-05
-1.17774e-05
8.25704e-05
-1.16278e-05
8.42414e-05
-1.12174e-05
8.60024e-05
-1.05665e-05
8.78133e-05
-9.70601e-06
8.9625e-05
-8.6748e-06
9.63773e-05
-9.21453e-06
8.57748e-05
-7.76011e-06
7.62018e-05
-6.42965e-06
6.75765e-05
-5.24394e-06
5.97866e-05
-4.20874e-06
5.28222e-05
-3.31917e-06
4.65995e-05
-2.56441e-06
4.10142e-05
-1.93067e-06
3.59741e-05
-1.40294e-06
3.14881e-05
-9.66113e-07
2.74191e-05
-6.09356e-07
2.36957e-05
-3.26176e-07
1.98609e-05
-1.21933e-07
1.4913e-05
1.73913e-05
-1.59873e-06
2.7745e-05
-1.23323e-06
2.85141e-05
-9.36719e-07
2.92942e-05
-6.96453e-07
3.00849e-05
-5.0141e-07
3.08919e-05
-3.42724e-07
3.17144e-05
-2.14352e-07
3.25579e-05
-1.13723e-07
3.34216e-05
-4.43335e-08
3.43051e-05
-1.03348e-08
-1.99955e-06
1.93358e-05
-2.47024e-06
2.14994e-05
-3.01791e-06
2.39004e-05
-3.64681e-06
2.65702e-05
-4.36047e-06
2.95463e-05
-5.15791e-06
3.28679e-05
-6.03293e-06
3.65819e-05
-6.97483e-06
4.07571e-05
-7.96389e-06
4.54695e-05
-8.97126e-06
5.08201e-05
-9.95561e-06
5.69307e-05
-1.08649e-05
6.39544e-05
-1.16335e-05
7.2073e-05
-1.21871e-05
8.02028e-05
-1.24572e-05
8.17179e-05
-1.24534e-05
8.3396e-05
-1.2174e-05
8.5198e-05
-1.16338e-05
8.70696e-05
-1.08602e-05
8.89675e-05
-9.89107e-06
9.08412e-05
-1.08525e-05
9.80153e-05
-9.19882e-06
8.72135e-05
-7.67159e-06
7.74438e-05
-6.30273e-06
6.86353e-05
-5.10249e-06
6.06804e-05
-4.06884e-06
5.35719e-05
-3.19073e-06
4.72258e-05
-2.45304e-06
4.15366e-05
-1.83889e-06
3.64101e-05
-1.33138e-06
3.18534e-05
-9.14266e-07
2.7724e-05
-5.75542e-07
2.39451e-05
-3.079e-07
2.00469e-05
-1.15311e-07
1.50283e-05
1.73769e-05
-1.98509e-06
2.76982e-05
-1.5519e-06
2.84796e-05
-1.19871e-06
2.927e-05
-9.1251e-07
3.0069e-05
-6.80583e-07
3.08826e-05
-4.92169e-07
3.17102e-05
-3.38541e-07
3.25574e-05
-2.13813e-07
3.34233e-05
-1.15385e-07
3.43073e-05
-4.65149e-08
3.5219e-05
-1.13334e-08
-2.44991e-06
1.93154e-05
-2.99072e-06
2.14722e-05
-3.61214e-06
2.38658e-05
-4.31837e-06
2.65281e-05
-5.10966e-06
2.9498e-05
-5.98171e-06
3.28167e-05
-6.92666e-06
3.65338e-05
-7.92876e-06
4.0722e-05
-8.96438e-06
4.54626e-05
-9.99861e-06
5.08632e-05
-1.09867e-05
5.70526e-05
-1.18707e-05
6.41916e-05
-1.25827e-05
7.24686e-05
-1.30481e-05
8.07937e-05
-1.32017e-05
8.24662e-05
-1.3067e-05
8.4289e-05
-1.26524e-05
8.62166e-05
-1.19806e-05
8.819e-05
-1.10872e-05
9.01637e-05
-1.23963e-05
9.2385e-05
-1.08535e-05
9.967e-05
-9.10561e-06
8.86475e-05
-7.52677e-06
7.86678e-05
-6.13628e-06
6.96691e-05
-4.93475e-06
6.15463e-05
-3.91233e-06
5.42935e-05
-3.05257e-06
4.78253e-05
-2.3365e-06
4.20342e-05
-1.74486e-06
3.68236e-05
-1.25929e-06
3.21984e-05
-8.62539e-07
2.8011e-05
-5.42057e-07
2.41793e-05
-2.89809e-07
2.02214e-05
-1.0867e-07
1.51369e-05
1.73573e-05
-2.43034e-06
2.76346e-05
-1.92149e-06
2.84312e-05
-1.5035e-06
2.92342e-05
-1.163e-06
3.00438e-05
-8.87252e-07
3.08659e-05
-6.63877e-07
3.17003e-05
-4.82261e-07
3.25526e-05
-3.33819e-07
3.34223e-05
-2.12832e-07
3.43086e-05
-1.16712e-07
3.5221e-05
-4.84851e-08
3.61549e-05
-1.22239e-08
-2.9643e-06
1.9289e-05
-3.57798e-06
2.14381e-05
-4.27606e-06
2.38234e-05
-5.05967e-06
2.64781e-05
-5.926e-06
2.94423e-05
-6.86946e-06
3.27595e-05
-7.87754e-06
3.64826e-05
-8.93099e-06
4.06886e-05
-1.00005e-05
4.54645e-05
-1.10479e-05
5.09243e-05
-1.20224e-05
5.72043e-05
-1.28631e-05
6.4472e-05
-1.35007e-05
7.29212e-05
-1.3861e-05
8.14531e-05
-1.3885e-05
8.32842e-05
-1.36116e-05
8.52483e-05
-1.30579e-05
8.72939e-05
-1.22557e-05
8.93585e-05
-1.39237e-05
9.16911e-05
-1.24219e-05
9.39534e-05
-1.07622e-05
0.000101327
-8.94483e-06
9.00656e-05
-7.33434e-06
7.98658e-05
-5.93791e-06
7.06722e-05
-4.7467e-06
6.23807e-05
-3.74386e-06
5.49848e-05
-2.90803e-06
4.83969e-05
-2.2172e-06
4.25065e-05
-1.65027e-06
3.72145e-05
-1.18759e-06
3.25235e-05
-8.11623e-07
2.82806e-05
-5.09292e-07
2.43987e-05
-2.72099e-07
2.03848e-05
-1.02119e-07
1.52391e-05
1.7332e-05
-2.93898e-06
2.7551e-05
-2.34672e-06
2.83656e-05
-1.85584e-06
2.9184e-05
-1.45327e-06
3.00066e-05
-1.1258e-06
3.08396e-05
-8.60899e-07
3.16828e-05
-6.46359e-07
3.25421e-05
-4.71669e-07
3.3417e-05
-3.28553e-07
3.43072e-05
-2.11445e-07
3.5222e-05
-1.17717e-07
3.61567e-05
-5.02465e-08
3.65888e-05
-1.30023e-08
-3.54488e-06
1.92559e-05
-4.23442e-06
2.13964e-05
-5.0094e-06
2.37732e-05
-5.86814e-06
2.64202e-05
-6.8068e-06
2.93797e-05
-7.81554e-06
3.26975e-05
-8.87871e-06
3.64303e-05
-9.97177e-06
4.06599e-05
-1.10624e-05
4.5479e-05
-1.21065e-05
5.10084e-05
-1.30499e-05
5.7391e-05
-1.38294e-05
6.48007e-05
-1.43749e-05
7.34352e-05
-1.46154e-05
8.21834e-05
-1.44995e-05
8.4172e-05
-1.40813e-05
8.62716e-05
-1.33875e-05
8.84258e-05
-1.54264e-05
9.08611e-05
-1.39838e-05
9.32531e-05
-1.23412e-05
9.55324e-05
-1.059e-05
0.000102972
-8.72647e-06
9.14577e-05
-7.10319e-06
8.10311e-05
-5.71483e-06
7.16404e-05
-4.54397e-06
6.31808e-05
-3.56749e-06
5.56442e-05
-2.76005e-06
4.89397e-05
-2.09725e-06
4.29535e-05
-1.5563e-06
3.75833e-05
-1.11718e-06
3.2829e-05
-7.62029e-07
2.85333e-05
-4.77495e-07
2.46041e-05
-2.54933e-07
2.05376e-05
-9.57396e-08
1.53348e-05
1.73003e-05
-3.51322e-06
2.74438e-05
-2.83185e-06
2.828e-05
-2.26114e-06
2.91167e-05
-1.7885e-06
2.99549e-05
-1.40162e-06
3.08012e-05
-1.08748e-06
3.16554e-05
-8.33496e-07
3.25236e-05
-6.27942e-07
3.34058e-05
-4.60401e-07
3.43014e-05
-3.22755e-07
3.52202e-05
-2.09647e-07
3.61573e-05
-1.18394e-07
3.65903e-05
-5.17717e-08
3.55527e-05
-1.3655e-08
-4.19413e-06
1.92156e-05
-4.95995e-06
2.1347e-05
-5.80987e-06
2.37149e-05
-6.74143e-06
2.63549e-05
-7.74688e-06
2.9311e-05
-8.81357e-06
3.26324e-05
-9.92097e-06
3.63795e-05
-1.10419e-05
4.06393e-05
-1.2138e-05
4.55105e-05
-1.31619e-05
5.11204e-05
-1.40565e-05
5.76181e-05
-1.47569e-05
6.51826e-05
-1.51944e-05
7.40142e-05
-1.53028e-05
8.29867e-05
-1.50385e-05
8.51292e-05
-1.44722e-05
8.73563e-05
-1.68941e-05
8.98935e-05
-1.55326e-05
9.24099e-05
-1.39241e-05
9.4836e-05
-1.21667e-05
9.71091e-05
-1.03483e-05
0.000104594
-8.46098e-06
9.28155e-05
-6.84177e-06
8.21581e-05
-5.47379e-06
7.25702e-05
-4.3315e-06
6.39448e-05
-3.38683e-06
5.6271e-05
-2.61125e-06
4.94537e-05
-1.9781e-06
4.33753e-05
-1.4641e-06
3.79302e-05
-1.04873e-06
3.31157e-05
-7.14072e-07
2.87699e-05
-4.46883e-07
2.47961e-05
-2.38441e-07
2.06803e-05
-8.95897e-08
1.54244e-05
1.72618e-05
-4.15561e-06
2.73104e-05
-3.37982e-06
2.81707e-05
-2.72256e-06
2.90287e-05
-2.17313e-06
2.98858e-05
-1.71934e-06
3.0748e-05
-1.34842e-06
3.16158e-05
-1.04789e-06
3.24954e-05
-8.05214e-07
3.33866e-05
-6.08819e-07
3.42896e-05
-4.48521e-07
3.52139e-05
-3.16438e-07
3.61551e-05
-2.07439e-07
3.65907e-05
-1.18774e-07
3.55539e-05
-5.30234e-08