/*--------------------------------*- C++ -*----------------------------------*\
  =========                 |
  \\      /  F ield         | OpenFOAM: The Open Source CFD Toolbox
   \\    /   O peration     | Website:  https://openfoam.org
    \\  /    A nd           | Version:  8
     \\/     M anipulation  |
\*---------------------------------------------------------------------------*/
FoamFile
{
    version     2.0;
    format      ascii;
    class       volScalarField;
    location    "0.42";
    object      epsilon;
}
// * * * * * * * * * * * * * * * * * * * * * * * * * * * * * * * * * * * * * //

dimensions      [0 2 -3 0 0 0 0];

internalField   nonuniform List<scalar> 
15677
(
59.7335
18.3689
52.687
8.08613
26.0226
50.2284
4.62372
13.3221
31.6449
50.5337
3.17499
7.74778
17.1238
37.3046
51.6276
2.48753
5.05316
10.0471
20.8322
42.648
53.6497
2.14456
3.62692
6.47276
12.1711
24.5487
47.6199
55.7331
1.97943
2.8223
4.5301
7.72761
14.2808
28.2214
51.9875
57.6427
1.91153
2.35312
3.40442
5.31098
8.91879
16.4038
31.7199
55.649
59.3802
1.88408
2.08013
2.72458
3.90887
6.02301
10.0937
18.5121
34.8874
58.6964
60.8597
1.8705
1.93932
2.30775
3.05483
4.35821
6.69963
11.2597
20.5176
37.7167
61.1663
62.1708
1.86763
1.87827
2.05672
2.52042
3.3478
4.77126
7.35506
12.3852
22.4106
40.159
63.1954
63.2688
1.86861
1.84883
1.91668
2.18555
2.7121
3.61167
5.16018
7.98121
13.4723
24.1318
42.2705
64.8266
64.2424
1.86953
1.83868
1.85195
1.98234
2.3065
2.88397
3.85459
5.52372
8.5844
14.4854
25.6989
44.0503
66.1633
65.082
1.86977
1.83696
1.82117
1.86768
2.05112
2.41654
3.04033
4.0769
5.86849
9.1482
15.4352
27.0806
45.5598
67.2404
65.8342
1.86976
1.83723
1.81054
1.81335
1.89805
2.11651
2.51689
3.1814
4.2839
6.18767
9.67947
16.2939
28.3037
46.82
68.1263
66.5017
1.86972
1.83749
1.80824
1.78983
1.81539
1.92982
2.17756
2.60712
3.3108
4.47279
6.48587
10.1624
17.0759
29.3542
47.8713
68.8656
67.0855
1.86969
1.83759
1.80793
1.78281
1.77579
1.82136
1.9617
2.23312
2.68923
3.42742
4.64699
6.75527
10.6066
17.7612
30.2581
48.7372
69.4656
67.6457
1.86968
1.83761
1.80795
1.78109
1.76159
1.76622
1.83151
1.99196
2.28385
2.76275
3.53354
4.80282
7.00159
10.9983
18.3658
31.0109
49.4358
70.0004
68.1041
1.86967
1.83761
1.80797
1.78076
1.75713
1.74411
1.76045
1.84267
2.02017
2.32937
2.82898
3.62774
4.94343
7.218
11.3467
18.875
31.6344
50.0079
70.4149
68.611
1.86967
1.8376
1.80796
1.78071
1.75586
1.73612
1.72976
1.75744
1.85389
2.04595
2.37025
2.88755
3.71158
5.06622
7.40918
11.6409
19.3057
32.1315
50.445
70.8381
68.9706
1.86967
1.83759
1.80794
1.78069
1.75554
1.73342
1.71762
1.71832
1.75584
1.86492
2.06933
2.40649
2.93919
3.78452
5.17322
7.57046
11.8908
19.6477
32.5226
50.803
71.1332
69.4661
1.86967
1.83758
1.80793
1.78066
1.75545
1.73257
1.71304
1.70176
1.70882
1.75583
1.87534
2.09029
2.43838
2.98417
3.8474
5.26339
7.70588
12.0888
19.9203
32.8095
51.0566
71.5162
69.7501
1.86967
1.83758
1.80792
1.78062
1.75541
1.73229
1.71141
1.69501
1.68781
1.70137
1.75622
1.88501
2.10896
2.46641
3.02291
3.90059
5.33798
7.81345
12.2451
20.1159
33.0207
51.2592
71.7358
70.2475
1.86968
1.83757
1.80791
1.7806
1.75537
1.73218
1.71085
1.6924
1.67864
1.6761
1.69524
1.75717
1.89407
2.12576
2.49086
3.05607
3.94462
5.39797
7.89709
12.3572
20.2544
33.142
51.4064
72.1561
70.507
1.86968
1.83757
1.8079
1.78058
1.75533
1.7321
1.71063
1.69142
1.67485
1.66461
1.66582
1.69054
1.75892
1.90273
2.14091
2.51245
3.08433
3.98102
5.44425
7.95737
12.4319
20.3329
33.2269
51.4988
72.4525
437.604
1.86968
1.83756
1.8079
1.78056
1.7553
1.73204
1.71051
1.69102
1.67333
1.65962
1.65181
1.65765
1.68715
1.76133
1.91129
2.15516
2.5318
3.10865
4.01004
5.47903
7.9976
12.4757
20.3666
33.2344
51.6258
89.7742
745.603
1.86968
1.83756
1.80789
1.78055
1.75527
1.73199
1.71042
1.69081
1.6727
1.65751
1.64542
1.64162
1.65085
1.68531
1.76495
1.92033
2.16894
2.54978
3.12998
4.03422
5.50424
8.0216
12.4869
20.3588
33.2438
52.6326
125.203
1045.15
1.86969
1.83756
1.80789
1.78054
1.75525
1.73195
1.71035
1.69068
1.67238
1.65658
1.64259
1.63411
1.63244
1.64624
1.68577
1.77006
1.93034
2.18332
2.5675
3.15011
4.05471
5.52234
8.03224
12.4801
20.3387
33.276
55.417
163.256
1305.72
1.86969
1.83756
1.80789
1.78053
1.75523
1.73192
1.71028
1.69057
1.67219
1.65611
1.64132
1.63064
1.62345
1.62653
1.64405
1.68792
1.77717
1.94229
2.19915
2.5863
3.16998
4.07343
5.53541
8.03172
12.4634
20.3017
33.3887
60.3806
197.174
1519.88
1.86969
1.83756
1.80789
1.78053
1.75522
1.73189
1.71023
1.69048
1.67204
1.65582
1.64069
1.629
1.6192
1.61682
1.62191
1.64507
1.6927
1.78728
1.95699
2.21767
2.60709
3.19136
4.09186
5.5461
8.02932
12.4364
20.2584
33.679
65.3212
226.244
1709.57
1.86969
1.83756
1.80789
1.78052
1.75521
1.73186
1.71019
1.69041
1.67191
1.65562
1.64031
1.62814
1.61717
1.61205
1.61063
1.62239
1.64858
1.70158
1.80119
1.97565
2.23989
2.63161
3.21551
4.11254
5.55738
8.02473
12.4063
20.2031
34.1799
69.7857
252.111
1869.63
1.86969
1.83755
1.80788
1.78051
1.7552
1.73184
1.71015
1.69035
1.67181
1.65546
1.64003
1.62763
1.61611
1.60964
1.6051
1.61075
1.62525
1.65603
1.71505
1.82015
1.99934
2.26742
2.66098
3.24457
4.13688
5.57227
8.02181
12.3731
20.157
34.6925
73.8602
274.386
1994.62
1.86969
1.83755
1.80788
1.78051
1.75519
1.73182
1.71012
1.69029
1.67172
1.65532
1.63982
1.62728
1.61548
1.60833
1.60239
1.60482
1.61322
1.63199
1.66928
1.73442
1.84525
2.02962
2.30135
2.69705
3.27959
4.16758
5.59215
8.02273
12.3375
20.1179
35.1746
77.3326
291.741
2096.72
1.8697
1.83755
1.80788
1.7805
1.75518
1.7318
1.7101
1.69024
1.67165
1.6552
1.63963
1.62701
1.61504
1.60755
1.60092
1.60174
1.60712
1.61969
1.64496
1.68905
1.76078
1.87805
2.06758
2.34343
2.74087
3.32286
4.20531
5.61895
8.0264
12.3017
20.07
35.5774
79.8624
305.892
2184.16
1.83755
1.86973
1.80788
1.7805
1.75518
1.73179
1.71008
1.69019
1.67159
1.6551
1.63948
1.62678
1.61469
1.60701
1.60003
1.60005
1.604
1.61351
1.63245
1.66514
1.71652
1.79583
1.91978
2.11509
2.39477
2.79436
3.37484
4.252
5.65273
8.03432
12.2648
20.0056
35.8024
81.7819
317.78
2262.1
1.80788
1.83765
1.8698
1.7805
1.75518
1.73177
1.71006
1.69015
1.67154
1.655
1.63935
1.62658
1.6144
1.60659
1.59941
1.59904
1.60231
1.61043
1.6263
1.65318
1.69368
1.75343
1.84074
1.97219
2.17303
2.45707
2.85817
3.43745
4.30734
5.69418
8.05099
12.2263
19.9242
35.9405
83.2021
328.321
2333.84
1.78049
1.80804
1.83785
1.86988
1.75517
1.73176
1.71005
1.69012
1.6715
1.65492
1.63924
1.62641
1.61415
1.60625
1.59892
1.59835
1.60132
1.60882
1.62336
1.64759
1.68277
1.73243
1.80121
1.89754
2.03651
2.24332
2.53128
2.93399
3.51018
4.3725
5.74971
8.0778
12.1949
19.8339
35.9441
84.3427
337.787
2401.14
1.75517
1.7807
1.80836
1.83805
1.86996
1.73175
1.71004
1.69008
1.67147
1.65484
1.63915
1.62625
1.61394
1.60595
1.59851
1.59782
1.60065
1.60793
1.62195
1.64523
1.67822
1.72331
1.78301
1.8622
1.96768
2.11489
2.32661
2.61862
3.02151
3.59453
4.45587
5.82332
8.11552
12.1685
19.7368
35.9193
85.2502
346.675
2465.32
1.73174
1.75542
1.78112
1.80869
1.83826
1.87003
1.71003
1.69005
1.67144
1.65477
1.63908
1.62611
1.61376
1.6057
1.59816
1.59738
1.60014
1.60735
1.62129
1.64448
1.67699
1.7207
1.77688
1.84823
1.93807
2.05382
2.20836
2.4251
2.71913
3.12215
3.70051
4.56275
5.90992
8.16272
12.1521
19.6388
35.8599
86.0463
354.947
2526.66
1.71002
1.73202
1.75593
1.78155
1.80902
1.83848
1.87011
1.69003
1.67142
1.6547
1.63902
1.62598
1.61361
1.60547
1.59786
1.59701
1.59972
1.60694
1.62094
1.6444
1.67721
1.72107
1.7766
1.8458
1.92982
2.03222
2.15742
2.31958
2.53923
2.83412
3.2477
3.83515
4.68425
6.00772
8.21993
12.1413
19.546
35.7732
86.719
362.916
2585.85
1.69
1.71034
1.73262
1.75646
1.78199
1.80937
1.8387
1.8702
1.6714
1.65464
1.63898
1.62586
1.61349
1.60527
1.5976
1.59669
1.59937
1.60661
1.62073
1.64459
1.67813
1.72307
1.77959
1.84929
1.93219
2.03038
2.14528
2.28217
2.44942
2.67112
2.97889
3.40547
3.98426
4.81857
6.11594
8.28544
12.1423
19.461
35.6743
87.3582
370.433
2642.52
1.67138
1.69034
1.71101
1.73322
1.75701
1.78245
1.80972
1.83893
1.87028
1.65459
1.63894
1.62575
1.61339
1.60509
1.59737
1.59641
1.59907
1.60633
1.6206
1.64488
1.67926
1.72574
1.78428
1.85627
1.94113
2.04001
2.1521
2.28032
2.42704
2.60124
2.83837
3.16296
3.58257
4.14919
4.96435
6.23303
8.35894
12.1481
19.3837
35.5809
87.9237
377.737
2697.31
1.65454
1.67176
1.69106
1.7117
1.73385
1.75756
1.78291
1.81008
1.83917
1.87037
1.6389
1.62565
1.61331
1.60491
1.59718
1.59617
1.5988
1.6061
1.62051
1.64518
1.68041
1.7285
1.78959
1.86512
1.95378
2.05666
2.17152
2.29946
2.4389
2.59521
2.79282
3.05375
3.37191
3.77902
4.32745
5.11998
6.35792
8.43921
12.1607
19.3166
35.4906
88.489
384.646
2749.52
1.63888
1.6549
1.67254
1.69179
1.71241
1.73449
1.75814
1.7834
1.81046
1.83941
1.87045
1.62555
1.61325
1.60475
1.59702
1.59596
1.59858
1.60591
1.62044
1.64548
1.68153
1.73115
1.79484
1.87464
1.9686
2.07754
2.19865
2.33215
2.47384
2.62577
2.80917
3.03695
3.29768
3.60491
3.99278
4.51882
5.2847
6.48918
8.52475
12.182
19.2588
35.4135
89.0047
391.369
2799.93
1.62547
1.63927
1.65568
1.67334
1.69255
1.71313
1.73515
1.75873
1.78389
1.81084
1.83966
1.87054
1.6132
1.60459
1.59689
1.59577
1.59837
1.60573
1.62039
1.64576
1.68258
1.73363
1.79983
1.88393
1.98419
2.10124
2.2309
2.37382
2.52384
2.68136
2.86573
3.08708
3.31448
3.567
3.86184
4.225
4.72202
5.45635
6.62527
8.6148
12.2092
19.2106
35.3441
89.5285
397.713
2847.62
1.61317
1.62579
1.64011
1.65649
1.67417
1.69334
1.71388
1.73584
1.75933
1.7844
1.81123
1.83991
1.87064
1.60444
1.59679
1.5956
1.59819
1.60558
1.62035
1.64603
1.68356
1.73592
1.80453
1.89273
1.99932
2.1261
2.26702
2.42219
2.58483
2.75461
2.95036
3.18102
3.40783
3.62693
3.86055
4.1352
4.47188
4.93449
5.63405
6.76503
8.70814
12.2416
19.1711
35.2896
90.0161
403.882
2893.59
1.60431
1.61352
1.62653
1.64097
1.65732
1.67503
1.69414
1.71465
1.73654
1.75995
1.78492
1.81164
1.84017
1.87073
1.59672
1.59544
1.59803
1.60545
1.62031
1.64627
1.68446
1.73803
1.80891
1.90098
2.01374
2.15044
2.30494
2.47636
2.65507
2.84225
3.05693
3.30874
3.54982
3.77319
3.97368
4.17909
4.42389
4.7322
5.15623
5.81649
6.90717
8.80384
12.2781
19.14
35.2432
90.5109
409.674
2936.76
1.59668
1.60448
1.6143
1.6273
1.64186
1.65819
1.67591
1.69498
1.71544
1.73726
1.76059
1.78546
1.81205
1.84043
1.87082
1.59528
1.59787
1.60532
1.62028
1.6465
1.68529
1.73996
1.81296
1.90864
2.02738
2.1738
2.34223
2.53386
2.73424
2.9434
3.18354
3.4663
3.73464
3.97629
4.1844
4.35407
4.52079
4.72583
4.99937
5.38453
6.00204
7.05061
8.90086
12.3181
19.1162
35.2087
90.9786
415.308
2978.33
1.59513
1.5969
1.60498
1.6151
1.6281
1.64278
1.65908
1.67681
1.69584
1.71625
1.738
1.76125
1.78601
1.81246
1.84068
1.8709
1.59772
1.6052
1.62025
1.64671
1.68604
1.74172
1.8167
1.91572
2.0402
2.19599
2.37829
2.59132
2.81918
3.05867
3.33092
3.65461
3.96224
4.23645
4.46476
4.64284
4.76726
4.88343
5.0404
5.27124
5.6167
6.18899
7.19405
8.99833
12.3608
19.0986
35.182
91.4464
420.558
3017.06
1.5976
1.59495
1.59738
1.60548
1.61594
1.62895
1.64373
1.66001
1.67774
1.69672
1.71709
1.73877
1.76192
1.78656
1.81285
1.84093
1.87098
1.60508
1.62022
1.6469
1.68673
1.74333
1.82013
1.92224
2.05221
2.2169
2.41292
2.64775
2.90483
3.18438
3.50189
3.87821
4.23896
4.56084
4.82491
5.0212
5.15039
5.21236
5.26492
5.36535
5.54638
5.85067
6.37605
7.33687
9.09552
12.4054
19.0874
35.1644
91.8947
425.678
3054.38
1.60501
1.59727
1.59468
1.59788
1.60602
1.61682
1.62983
1.64471
1.66097
1.67869
1.69764
1.71794
1.73955
1.76258
1.78709
1.81324
1.84116
1.87106
1.62019
1.64706
1.68735
1.7448
1.82328
1.92824
2.06338
2.23647
2.446
2.70258
2.98954
3.3139
3.693
4.14493
4.57725
4.96715
5.28602
5.51606
5.65397
5.7097
5.68865
5.66323
5.6983
5.82318
6.08427
6.56295
7.47827
9.1918
12.4513
19.08
35.1531
92.3341
430.403
3088.89
1.62022
1.6044
1.59664
1.59437
1.59845
1.60662
1.61773
1.63076
1.64571
1.66197
1.67967
1.69858
1.71882
1.74033
1.76323
1.7876
1.81361
1.84139
1.87114
1.64721
1.6879
1.74613
1.82614
1.93374
2.07375
2.25471
2.47745
2.7553
3.07267
3.44551
3.89478
4.45246
4.99689
5.48635
5.88922
6.17412
6.33172
6.37344
6.32392
6.19548
6.07644
6.0371
6.10031
6.31397
6.74788
7.61743
9.28659
12.498
19.0784
35.1488
92.7575
435.038
3122.19
1.64744
1.61913
1.60304
1.59594
1.59414
1.59907
1.60729
1.61866
1.63174
1.64674
1.66301
1.68068
1.69955
1.71969
1.74108
1.76386
1.7881
1.81398
1.84162
1.87122
1.6884
1.74733
1.82875
1.93879
2.08332
2.27166
2.50721
2.80559
3.15384
3.5782
4.10326
4.78756
5.50571
6.16791
6.70279
7.0772
7.2704
7.29598
7.18994
6.99575
6.73199
6.5026
6.37974
6.37694
6.53923
6.92951
7.7536
9.37945
12.545
19.0796
35.1501
93.1676
439.273
3149.01
1.68897
1.64568
1.61649
1.60159
1.59536
1.59402
1.59973
1.60803
1.61963
1.63276
1.6478
1.66408
1.68171
1.70051
1.72054
1.74181
1.76447
1.78859
1.81433
1.84184
1.87129
1.74842
1.83111
1.94342
2.09214
2.28739
2.53523
2.85326
3.23285
3.71056
4.31563
5.14751
6.09418
7.04583
7.82698
8.349
8.60796
8.617
8.42859
8.11061
7.7262
7.2967
6.93966
6.72441
6.65147
6.75945
7.10686
7.8862
9.46992
12.5919
19.0829
35.1542
93.5624
442.89
3171.64
1.74957
1.68636
1.64118
1.61373
1.60028
1.59488
1.594
1.60039
1.60884
1.62061
1.63384
1.6489
1.66518
1.68274
1.70144
1.72136
1.74253
1.76506
1.78906
1.81468
1.84205
1.87137
1.83327
1.94763
2.10025
2.30197
2.56152
2.89828
3.30947
3.84105
4.5301
5.53346
6.76479
8.10889
9.32387
10.1506
10.5324
10.5389
10.2402
9.73894
9.13691
8.5136
7.88716
7.3854
7.06938
6.92254
6.97404
7.27921
8.0147
9.55773
12.6382
19.0891
35.1622
93.8898
445.865
3196.19
1.83541
1.74585
1.67927
1.63647
1.61121
1.5991
1.59448
1.59412
1.60105
1.60975
1.62162
1.63497
1.65002
1.66627
1.68374
1.70235
1.72216
1.74322
1.76564
1.78952
1.81501
1.84225
1.87143
1.95154
2.10768
2.31547
2.58609
2.94071
3.38344
3.96843
4.74625
5.9465
7.51764
9.34882
11.1546
12.5626
13.2706
13.3187
12.8955
12.145
11.2238
10.2636
9.35323
8.49988
7.83738
7.41297
7.18898
7.1825
7.446
8.1388
9.64253
12.6838
19.0974
35.1718
94.17
449.123
3223.04
1.95526
1.83032
1.73507
1.67191
1.63205
1.60891
1.59802
1.59415
1.59447
1.60171
1.61073
1.62267
1.63613
1.65113
1.66734
1.68472
1.70324
1.72295
1.7439
1.76621
1.78997
1.81534
1.84245
1.87147
2.1146
2.32796
2.60901
2.98064
3.45451
4.0919
4.96454
6.38606
8.34586
10.7487
13.284
15.4996
16.924
17.2648
16.7316
15.6735
14.3172
12.8689
11.4797
10.2378
9.13043
8.29292
7.75359
7.44981
7.38438
7.60679
8.25807
9.72426
12.7283
19.1058
35.1815
94.4772
452.637
3252.34
2.12096
1.94842
1.81432
1.72398
1.66499
1.62788
1.60676
1.597
1.59372
1.595
1.60238
1.61178
1.62375
1.63729
1.65223
1.66838
1.68567
1.7041
1.72371
1.74455
1.76675
1.7904
1.81565
1.84255
1.87147
2.33969
2.63038
3.01821
3.52248
4.21117
5.18565
6.8495
9.23776
12.283
15.6715
18.8959
21.3557
22.5192
22.1685
20.7624
18.8468
16.7294
14.652
12.7702
11.1579
9.77366
8.74927
8.08972
7.70414
7.5793
7.76143
8.37305
9.80276
12.7659
19.1139
35.1935
94.8182
456.534
3284.58
2.35023
2.11202
1.92497
1.79803
1.71355
1.65843
1.62393
1.60473
1.59608
1.59331
1.59564
1.60309
1.61287
1.62484
1.63843
1.6533
1.6694
1.6866
1.70494
1.72445
1.74519
1.76729
1.79082
1.81581
1.84255
1.87147
2.65051
3.0536
3.58727
4.32629
5.41002
7.33252
10.1796
13.9234
18.2691
22.6838
26.4667
28.8904
29.4163
27.9817
25.3784
22.3751
19.3458
16.5469
14.1177
12.1035
10.4241
9.20366
8.41992
7.95124
7.76701
7.90871
8.48335
9.8681
12.7984
19.1237
35.2088
95.1959
460.738
3319.8
2.66819
2.33867
2.07794
1.90139
1.7827
1.70363
1.65216
1.62018
1.60287
1.59524
1.59299
1.59637
1.60387
1.61398
1.62593
1.63954
1.65436
1.67038
1.68751
1.70575
1.72517
1.74581
1.76781
1.79103
1.81581
1.84255
1.87147
3.08721
3.64903
4.43775
5.63767
7.8297
11.157
15.6418
21.0277
26.7854
32.1525
36.2377
38.2239
37.6398
34.6731
30.5286
26.2084
22.1273
18.5261
15.5046
13.0642
11.0765
9.6534
8.74287
8.19052
7.94765
8.04881
8.57492
9.92403
12.8346
19.1359
35.2287
95.5986
465.413
3358.65
3.11636
2.65335
2.28914
2.04413
1.87922
1.76809
1.69411
1.64615
1.61665
1.60114
1.59449
1.59278
1.59715
1.6047
1.61505
1.62701
1.64061
1.65539
1.67134
1.68839
1.70654
1.72587
1.74641
1.76806
1.79103
1.81581
1.84255
1.87147
3.70817
4.54626
5.86827
8.33508
12.1562
17.4115
23.8997
31.1206
38.2894
44.4021
48.3947
49.419
47.1683
42.1818
36.1469
30.2922
25.0336
20.5624
16.914
14.0301
11.7255
10.096
9.05742
8.42151
8.12092
8.16442
8.65314
9.98584
12.875
19.1507
35.2533
96.0505
470.468
3401.06
3.75912
3.09674
2.58131
2.24078
2.0124
1.85807
1.75402
1.68493
1.64042
1.61333
1.59954
1.59385
1.5927
1.59794
1.60559
1.6161
1.62809
1.64166
1.6564
1.67228
1.68926
1.70731
1.72656
1.74671
1.76806
1.79103
1.81581
1.84255
1.87147
4.65237
6.10002
8.84278
13.1641
19.2075
26.8403
35.6112
44.748
53.1899
59.6912
63.0505
62.4739
57.9334
50.4212
42.1575
34.5695
28.0258
22.6307
18.3304
14.9923
12.3664
10.5291
9.3626
8.64381
8.26486
8.26285
8.73937
10.0542
12.9203
19.169
35.2851
96.5306
476.121
3447.95
4.74493
3.73382
2.99021
2.5121
2.19549
1.98208
1.83765
1.74043
1.67612
1.63496
1.61023
1.59809
1.59336
1.59279
1.59868
1.60651
1.61712
1.62915
1.64269
1.65739
1.67319
1.69009
1.70806
1.7269
1.74671
1.76806
1.79103
1.81581
1.84255
1.87143
6.3299
9.34805
14.1689
21.0066
29.808
40.1845
51.4029
62.3961
71.817
78.1901
80.234
77.3185
69.823
59.2842
48.478
38.9836
31.0674
24.7084
19.7403
15.9428
12.9953
10.951
9.65753
8.82902
8.38792
8.37106
8.83454
10.1301
12.9713
19.1913
35.3232
97.0795
482.258
3499.03
4.71086
6.53199
3.57091
2.89025
2.44741
2.15222
1.95279
1.81791
1.72733
1.66767
1.62978
1.60737
1.59679
1.59298
1.59309
1.59939
1.60746
1.61811
1.63019
1.64369
1.65835
1.67407
1.69091
1.70843
1.72689
1.7467
1.76806
1.79103
1.81581
1.84245
1.87136
9.84635
15.1603
22.7888
32.7648
44.774
58.1388
71.8239
84.4563
94.3978
99.9667
99.8825
93.8159
82.6886
68.6496
55.0238
43.4805
34.1256
26.7758
21.1318
16.8751
13.6086
11.3599
9.90411
8.98769
8.52378
8.4902
8.9397
10.2142
13.0287
19.2186
35.3725
97.6599
489.154
3555.65
4.44362
6.49756
10.2839
3.42316
2.79718
2.38562
2.11043
1.92446
1.79885
1.71474
1.65961
1.62486
1.60479
1.59566
1.5926
1.59359
1.60008
1.60843
1.61909
1.63122
1.64466
1.65929
1.67494
1.69131
1.70842
1.72689
1.7467
1.76806
1.79103
1.81565
1.84225
1.87129
16.1281
24.5366
35.6791
49.3217
64.8552
81.2983
97.3096
111.202
121.042
124.977
121.841
111.77
96.3533
78.388
61.7121
48.0106
37.171
28.8159
22.4954
17.7838
14.2036
11.7025
10.1158
9.16327
8.67401
8.62159
9.05605
10.3079
13.0937
19.252
35.43
98.3386
496.682
3617.04
4.20941
6.02946
10.2638
16.9773
3.28716
2.70836
2.326
2.07001
1.89711
1.78051
1.70268
1.65193
1.62023
1.60252
1.5947
1.59222
1.5942
1.60076
1.6094
1.62005
1.63223
1.64562
1.66021
1.67536
1.69131
1.70842
1.72688
1.7467
1.76806
1.79081
1.81533
1.84204
1.87122
26.2332
38.5242
53.7809
71.4682
90.673
110.119
128.161
142.779
151.734
153.062
145.87
130.938
110.622
88.3698
68.4651
52.5289
40.1784
30.8148
23.8234
18.6646
14.7022
11.997
10.3506
9.35788
8.84039
8.76674
9.18495
10.4122
13.1672
19.2925
35.5049
99.0533
505.167
3685.34
3.99818
5.6212
9.41627
17.013
27.7321
3.15813
2.62284
2.26844
2.03102
1.87078
1.76292
1.69117
1.64469
1.61606
1.60058
1.59389
1.59195
1.59486
1.60146
1.61035
1.621
1.63322
1.64656
1.66066
1.67534
1.6913
1.70841
1.72688
1.7467
1.76779
1.79039
1.815
1.84183
1.87114
41.2749
58.1144
77.9139
99.8332
122.679
144.901
164.54
179.202
186.328
183.952
171.655
151.038
125.294
98.4707
75.2115
56.9959
43.127
32.7613
25.1096
19.4021
15.1308
12.324
10.6114
9.57394
9.02495
8.92736
9.32795
10.5286
13.2507
19.3421
35.5909
99.9085
514.508
3758.76
3.80125
5.25452
8.65793
15.6078
27.9167
43.7154
3.03445
2.54044
2.21299
1.99352
1.84552
1.74611
1.68031
1.6381
1.6124
1.59891
1.59323
1.5918
1.59554
1.60219
1.61129
1.62194
1.6342
1.64701
1.66065
1.67533
1.69129
1.70841
1.72688
1.74639
1.76727
1.78995
1.81467
1.84161
1.87106
62.2872
84.1449
108.698
134.84
161.143
185.799
206.482
220.352
224.55
217.275
198.822
171.776
140.173
108.575
81.888
61.379
45.9996
34.6463
26.1859
20.0357
15.6067
12.6876
10.9015
9.81421
9.22999
9.10545
9.48685
10.6588
13.3457
19.4021
35.703
100.811
525.042
3840.87
3.61556
4.91509
7.97077
14.3076
25.7733
44.1838
65.9948
2.91578
2.46127
2.15975
1.95758
1.82138
1.73023
1.67037
1.63224
1.6092
1.59747
1.5927
1.59175
1.59622
1.60293
1.61223
1.6229
1.63467
1.64697
1.66063
1.67532
1.69129
1.70841
1.72653
1.74578
1.76673
1.7895
1.81432
1.84139
1.87098
90.1163
117.213
146.507
176.698
206.175
232.842
253.901
265.981
266
252.568
226.959
192.854
155.074
118.58
88.4418
65.6511
48.7824
36.2237
27.1102
20.7387
16.1356
13.0924
11.2247
10.0818
9.45819
9.30328
9.66367
10.8046
13.4543
19.4753
35.832
101.909
536.771
3927.86
3.44025
4.59819
7.33166
13.0873
23.7552
41.1246
66.9142
95.4157
2.80216
2.38548
2.10881
1.92327
1.79858
1.71567
1.66147
1.62704
1.6064
1.59624
1.59231
1.59183
1.59687
1.60371
1.61319
1.62334
1.63463
1.64695
1.66062
1.67531
1.69128
1.70803
1.72583
1.74515
1.76617
1.78904
1.81397
1.84116
1.8709
125.326
157.627
191.463
225.436
257.766
285.962
306.598
315.712
310.162
289.304
255.645
213.987
169.828
128.399
94.829
69.7903
51.1116
37.5784
28.1352
21.5193
16.7242
13.5435
11.5853
10.3804
9.71257
9.52346
9.86077
10.9682
13.5782
19.5641
35.9981
103.087
549.954
4042.79
3.27495
4.30306
6.73241
11.929
21.8266
38.2174
62.7714
96.9635
132.497
2.69367
2.31321
2.06028
1.8909
1.77768
1.70262
1.65352
1.62241
1.60396
1.5952
1.59202
1.59206
1.59754
1.60458
1.61362
1.62326
1.63461
1.64693
1.66061
1.67531
1.69086
1.70726
1.72511
1.7445
1.76561
1.78856
1.8136
1.84092
1.87081
168.146
205.402
243.486
280.968
315.834
345.017
364.271
369.039
356.423
326.921
284.462
234.916
184.296
137.96
101.014
73.2542
53.1121
39.0804
29.2728
22.3871
17.3797
14.0469
11.988
10.7139
9.99659
9.769
10.0809
11.1521
13.7209
19.6714
36.1943
104.514
567.533
4181.36
3.1192
4.02999
6.17262
10.8253
19.9592
35.4035
58.8294
91.5771
134.826
177.372
2.59049
2.24461
2.01458
1.86126
1.75892
1.69091
1.64641
1.6183
1.60187
1.5943
1.59173
1.59247
1.59829
1.60495
1.61352
1.62323
1.63459
1.64692
1.66061
1.67487
1.69002
1.70647
1.72438
1.74384
1.76502
1.78808
1.81323
1.84068
1.87072
218.472
260.323
302.37
343.153
380.272
409.819
426.513
425.336
404.096
364.845
313.023
255.418
198.361
147.205
106.186
76.2286
55.3296
40.7472
30.5369
23.3527
18.1104
14.6092
12.4384
11.0871
10.3142
10.0433
10.3268
11.3607
13.8848
19.8035
36.4382
106.425
589.224
4323.66
2.97226
3.77978
5.65419
9.77869
18.1415
32.6414
54.9879
86.4856
128.03
180.572
229.799
2.49288
2.18022
1.97284
1.83469
1.74208
1.68041
1.64005
1.61462
1.60006
1.59354
1.59152
1.59311
1.59855
1.60481
1.61348
1.62321
1.63458
1.64693
1.66013
1.67398
1.68916
1.70566
1.72363
1.74316
1.76442
1.78758
1.81284
1.84044
1.87063
275.936
322.041
367.878
411.89
451.029
480.155
492.813
483.868
452.451
402.526
340.994
275.312
211.929
154.92
110.623
79.5241
57.7901
42.5987
31.9426
24.4279
18.9256
15.2376
12.9425
11.5049
10.6697
10.3503
10.6
11.5966
14.0753
19.9606
36.7986
108.889
615.556
4463.65
2.83365
3.55381
5.1781
8.79713
16.3744
29.9107
51.1858
81.5211
121.7
172.168
233.854
289.233
2.40169
2.1216
1.93549
1.81086
1.72698
1.671
1.63436
1.61133
1.5985
1.59298
1.59161
1.59334
1.59829
1.60477
1.61345
1.62319
1.63458
1.64645
1.65917
1.67307
1.68828
1.70483
1.72286
1.74246
1.76381
1.78706
1.81244
1.84018
1.87054
340.029
390.192
439.888
487.287
528.203
555.818
562.553
543.808
500.753
439.475
368.096
294.452
223.221
161.529
115.533
83.1781
60.5223
44.6572
33.507
25.626
19.8354
15.9402
13.507
11.9731
11.068
10.6951
10.9044
11.8641
14.294
20.1955
37.2905
112.032
641.233
4605.6
2.70433
3.34802
4.74377
7.888
14.6657
27.2078
47.3869
76.5944
115.565
164.515
223.571
293.986
354.969
2.31912
2.06932
1.90208
1.7895
1.71344
1.66257
1.62925
1.60843
1.59728
1.59283
1.59144
1.59308
1.59821
1.60474
1.61343
1.62321
1.63407
1.64546
1.6582
1.67213
1.68737
1.70398
1.72206
1.74174
1.76318
1.78654
1.81204
1.83992
1.87045
410.239
464.575
518.565
569.736
612.064
636.568
634.974
604.259
548.319
475.279
394.11
310.327
232.871
168.828
120.969
87.2318
63.5582
46.9472
35.2493
26.9617
20.8511
16.726
14.1391
12.4978
11.5145
11.082
11.2448
12.1661
14.5988
20.514
37.9629
115.307
673.797
4739.22
2.58732
3.16091
4.35262
7.0509
13.0286
24.5408
43.5755
71.6455
109.499
157.195
214.488
281.437
360.098
426.312
2.24589
2.02269
1.8722
1.77035
1.70129
1.65498
1.62468
1.60604
1.59666
1.59249
1.59093
1.59304
1.59816
1.6047
1.61346
1.62271
1.63304
1.64447
1.6572
1.67117
1.68645
1.70311
1.72125
1.741
1.76253
1.786
1.81162
1.83967
1.87036
486.24
545.32
604.479
659.965
702.982
722.015
709.151
664.329
594.549
509.609
415.618
323.859
243.498
176.888
126.989
91.7303
66.9331
49.4961
37.1902
28.4511
21.9851
17.6046
14.8466
13.0856
12.0148
11.5164
11.6255
12.5725
14.997
20.9275
38.6908
119.692
704.532
4872.69
2.48372
2.99437
4.00634
6.29068
11.4832
21.9253
39.7515
66.6374
103.41
150.037
205.975
270.757
344.719
431.357
502.792
2.18093
1.9811
1.84547
1.75319
1.69036
1.64815
1.62081
1.60456
1.59599
1.59187
1.59081
1.59299
1.59813
1.60475
1.61296
1.62169
1.632
1.64346
1.65618
1.67019
1.6855
1.70221
1.72042
1.74025
1.76187
1.78545
1.81121
1.83942
1.87027
568.123
633.165
698.909
759.222
801.358
811.538
784.063
723.191
638.955
537.938
433.906
338.713
255.194
185.786
133.652
96.7225
70.6855
52.3339
39.353
30.1118
23.2505
18.586
15.6378
13.7432
12.575
12.0025
12.1318
13.0906
15.4599
21.3821
39.7165
124.095
744.631
4991.45
2.39222
2.84736
3.71088
5.61611
10.0478
19.384
35.9253
61.5507
97.2302
142.908
197.809
261.017
332.184
412.316
507.195
584.447
2.12327
1.94401
1.82155
1.73777
1.68051
1.64232
1.61819
1.60333
1.59518
1.59174
1.59071
1.59291
1.59825
1.60427
1.61194
1.62069
1.63094
1.64242
1.65514
1.66918
1.68453
1.70129
1.71957
1.73947
1.76119
1.78491
1.81081
1.83918
1.87018
656.729
729.845
804.172
869.325
907.532
904.329
858.706
780.137
675.63
561.983
453.916
354.995
268.051
195.599
141.026
102.261
74.8572
55.493
41.7626
31.9629
24.6616
19.6811
16.5211
14.4777
13.2002
12.6472
12.7709
13.6583
15.9612
21.9756
40.7976
130.207
782.118
5104.01
2.31153
2.7167
3.46743
5.04113
8.7517
16.9432
32.1177
56.378
90.9087
135.702
189.81
251.933
321.127
397.55
483.288
587.606
672.24
2.07205
1.91093
1.8001
1.72388
1.67202
1.63817
1.61623
1.60219
1.59503
1.59163
1.59062
1.59301
1.59787
1.6033
1.61094
1.61968
1.62986
1.64136
1.65408
1.66815
1.68354
1.70034
1.7187
1.73868
1.76052
1.78438
1.81042
1.83895
1.8701
754.146
838.695
924.022
992.626
1021.72
999.613
932.136
827.461
706.768
588.238
475.769
372.809
282.159
206.407
149.176
108.402
79.4925
59.0083
44.4458
34.0245
26.2331
20.9007
17.5049
15.2948
14.0262
13.4551
13.4549
14.2605
16.5415
22.6159
42.3375
136.298
832.293
5199.01
2.2404
2.60063
3.26237
4.56236
7.63045
14.6468
28.3589
51.124
84.4049
128.327
181.826
243.265
311.183
385.006
465.802
557.122
673.736
768.796
2.02654
1.88136
1.7808
1.71186
1.6658
1.63525
1.61475
1.60201
1.5949
1.59151
1.59086
1.59262
1.59703
1.60241
1.60992
1.61865
1.62876
1.64027
1.65299
1.66708
1.68252
1.69937
1.71781
1.73791
1.75987
1.78388
1.81004
1.83873
1.87002
864.557
965.67
1064.21
1131.96
1144.87
1096.38
994.105
867.799
740.777
616.838
499.572
392.248
297.605
218.289
158.17
115.202
84.6381
62.9165
47.4308
36.3177
27.9801
22.2558
18.5961
16.3702
15.0539
14.3067
14.1729
14.9113
17.1588
23.4506
43.9675
144.878
878.067
5270.63
2.17765
2.49787
3.08654
4.16709
6.68686
12.5828
24.7146
45.8083
77.6885
120.694
173.719
234.817
302.043
374.206
451.506
536.356
634.145
768.864
879.699
1.986
1.85485
1.76407
1.70287
1.66158
1.63333
1.61454
1.60185
1.59473
1.59181
1.5908
1.59185
1.59628
1.60155
1.60888
1.61761
1.62764
1.63916
1.65188
1.66599
1.68149
1.69839
1.71693
1.73715
1.75924
1.78338
1.80968
1.83851
1.86994
995.901
1121.32
1232.79
1294.64
1276.93
1180.26
1047.46
912.065
777.848
647.91
525.419
413.396
314.468
231.318
168.077
122.718
90.3412
67.2552
50.7464
38.8637
29.9177
23.7554
20.0277
17.7001
16.1272
15.1901
14.924
15.581
17.8694
24.3447
46.2629
153.692
944.457
5317.9
2.12213
2.40725
2.93325
3.84191
5.90261
10.7969
21.3248
40.5045
70.7441
112.718
165.343
226.4
293.46
364.749
439.789
519.963
609.535
716.295
880.144
1016.97
1.9498
1.83187
1.75131
1.69696
1.65909
1.63312
1.61437
1.60161
1.59516
1.59189
1.59057
1.59127
1.59553
1.60071
1.60783
1.61655
1.6265
1.63801
1.65076
1.66487
1.68043
1.69742
1.71607
1.73642
1.75862
1.7829
1.80932
1.8383
1.86986
1164.11
1323.2
1454.42
1485.06
1395.78
1253.6
1106.73
960.654
818.197
681.579
553.393
436.319
332.811
245.558
178.956
131.005
96.648
72.0616
54.4212
41.6837
32.059
25.7188
21.7905
19.0805
17.2316
16.0957
15.6913
16.2928
18.6102
25.4976
48.7184
165.762
1011.46
5318.33
2.07284
2.32748
2.79788
3.57725
5.25747
9.27919
18.2803
35.4085
63.6265
104.32
156.543
217.812
285.198
356.333
430.111
507.196
590.642
687.234
809.086
1024.48
1204.43
1.9184
1.81412
1.74309
1.69382
1.65888
1.63295
1.61406
1.60223
1.59551
1.59189
1.59063
1.59078
1.59473
1.59988
1.60675
1.61547
1.62535
1.63684
1.64961
1.66374
1.67938
1.69647
1.71523
1.73571
1.75802
1.78244
1.80897
1.83809
1.86979
1404.04
1632.03
1743.03
1662.01
1501.47
1336.56
1172.96
1014.2
862.14
717.999
583.57
461.066
352.68
261.06
190.86
140.113
103.602
77.3711
58.4826
44.796
34.8585
28.13
23.614
20.4938
18.3522
17.0076
16.4742
17.014
19.4603
26.7235
52.1579
179.435
1095.14
5301.41
2.03017
2.25727
2.67762
3.35924
4.72921
8.01133
15.5879
30.6724
56.5685
95.4995
147.157
208.828
277.009
348.673
422.1
497.319
576.617
665.42
774.482
925.372
1247.48
1509.14
1.8938
1.80297
1.73913
1.69366
1.65878
1.63252
1.61483
1.60304
1.59593
1.59226
1.59074
1.59045
1.59392
1.59907
1.60568
1.61436
1.62419
1.63563
1.64845
1.66261
1.67837
1.69556
1.71442
1.73502
1.75743
1.78199
1.80863
1.83789
1.86972
1830.24
2063.2
2010
1820.96
1624.72
1432.28
1248.37
1073.82
910.228
757.399
616.041
487.673
374.102
277.856
203.828
150.081
111.239
83.2146
62.9531
48.8585
38.2906
30.6203
25.4765
21.921
19.4717
17.9164
17.2512
17.7754
20.3383
28.3127
55.7379
199.451
1179.34
5255.67
1.99643
2.19697
2.57082
3.17538
4.29982
6.96096
13.2468
26.3374
49.7804
86.4807
137.085
199.188
268.605
341.488
415.423
489.867
566.496
649.833
749.364
883.357
1097.28
1692.6
2157.71
1.87857
1.79806
1.73898
1.69361
1.65819
1.63345
1.61621
1.60424
1.5969
1.59274
1.59079
1.59023
1.5931
1.59826
1.60461
1.61322
1.62303
1.6344
1.6473
1.66153
1.67738
1.69468
1.71364
1.73436
1.75687
1.78156
1.8083
1.8377
1.86968
2506.87
2510.34
2275.47
2027.56
1777.24
1550.85
1336.52
1141.8
963.46