/*--------------------------------*- C++ -*----------------------------------*\
  =========                 |
  \\      /  F ield         | OpenFOAM: The Open Source CFD Toolbox
   \\    /   O peration     | Website:  https://openfoam.org
    \\  /    A nd           | Version:  8
     \\/     M anipulation  |
\*---------------------------------------------------------------------------*/
FoamFile
{
    version     2.0;
    format      ascii;
    class       volVectorField;
    location    "0.47";
    object      U;
}
// * * * * * * * * * * * * * * * * * * * * * * * * * * * * * * * * * * * * * //

dimensions      [0 1 -1 0 0 0 0];

internalField   nonuniform List<vector> 
15677
(
(-0.0199197 9.66527 0)
(0.0435204 9.92098 0)
(0.00235362 9.37935 0)
(0.0146707 9.97661 0)
(0.0185207 9.78895 0)
(0.00697016 9.14542 0)
(0.0278722 9.99448 0)
(0.0169462 9.92589 0)
(0.0106213 9.65793 0)
(0.00602711 8.96509 0)
(0.0259746 10.0017 0)
(0.0212749 9.97963 0)
(0.0161814 9.85628 0)
(0.00889888 9.53536 0)
(0.0048541 8.82367 0)
(0.0247847 10.0049 0)
(0.0220597 10.0037 0)
(0.018858 9.94573 0)
(0.0151347 9.78426 0)
(0.00776176 9.42651 0)
(0.00399115 8.71082 0)
(0.0237537 10.0063 0)
(0.0221559 10.0153 0)
(0.0203442 9.98888 0)
(0.0179155 9.90729 0)
(0.0136614 9.71497 0)
(0.00669861 9.33027 0)
(0.00333213 8.61992 0)
(0.0223775 10.0069 0)
(0.021858 10.021 0)
(0.0210322 10.0108 0)
(0.0196679 9.96983 0)
(0.016675 9.86893 0)
(0.0122539 9.64978 0)
(0.00576917 9.24652 0)
(0.00278196 8.54684 0)
(0.0206405 10.0068 0)
(0.0211958 10.0231 0)
(0.0212003 10.0222 0)
(0.0205927 10.0029 0)
(0.0185625 9.95077 0)
(0.0153202 9.83142 0)
(0.010927 9.59011 0)
(0.00491227 9.17531 0)
(0.00227702 8.48904 0)
(0.0186643 10.0064 0)
(0.0202409 10.0235 0)
(0.0208889 10.0284 0)
(0.0209035 10.0211 0)
(0.019562 9.99523 0)
(0.0172376 9.93198 0)
(0.0139043 9.7961 0)
(0.00957865 9.53737 0)
(0.00407057 9.11641 0)
(0.00177601 8.44485 0)
(0.0165174 10.0058 0)
(0.0189857 10.0227 0)
(0.0202224 10.0312 0)
(0.0207126 10.0312 0)
(0.0199011 10.0202 0)
(0.0182204 9.98781 0)
(0.0157633 9.91449 0)
(0.0123465 9.76442 0)
(0.00814159 9.4925 0)
(0.00319279 9.06968 0)
(0.00125063 8.41362 0)
(0.0142532 10.0051 0)
(0.0175072 10.0212 0)
(0.0192057 10.0319 0)
(0.0201415 10.0366 0)
(0.0197216 10.0344 0)
(0.0184899 10.0196 0)
(0.0166401 9.98155 0)
(0.0140405 9.89946 0)
(0.0105739 9.7375 0)
(0.00655862 9.45637 0)
(0.00223966 9.03514 0)
(0.000677277 8.39486 0)
(0.0119305 10.0044 0)
(0.015844 10.0192 0)
(0.0178704 10.0312 0)
(0.0191943 10.0389 0)
(0.0190886 10.0424 0)
(0.0181973 10.0381 0)
(0.0167458 10.0201 0)
(0.0147055 9.97742 0)
(0.0119753 9.88789 0)
(0.00851617 9.71648 0)
(0.00477916 9.42975 0)
(0.00117596 9.0129 0)
(2.53024e-06 8.38869 0)
(0.00956193 10.0037 0)
(0.0140234 10.0169 0)
(0.0162424 10.0295 0)
(0.0178832 10.0393 0)
(0.0180763 10.0465 0)
(0.0174254 10.0487 0)
(0.0162378 10.0428 0)
(0.0145348 10.0227 0)
(0.0123023 9.97634 0)
(0.00947914 9.88079 0)
(0.00610682 9.70242 0)
(0.00275252 9.41341 0)
(-7.77598e-06 9.00324 0)
(-0.000627652 8.39489 0)
(0.00751537 10.003 0)
(0.0121124 10.0145 0)
(0.0143566 10.0271 0)
(0.01622 10.0382 0)
(0.0166802 10.048 0)
(0.0162241 10.0546 0)
(0.0152055 10.0561 0)
(0.0136873 10.0495 0)
(0.0117203 10.0281 0)
(0.0093192 9.97917 0)
(0.0064638 9.87918 0)
(0.00327791 9.69642 0)
(0.000435049 9.40805 0)
(-0.00137015 9.00647 0)
(-0.0013988 8.41383 0)
(0.00588778 10.0025 0)
(0.0102625 10.0123 0)
(0.0122773 10.0242 0)
(0.0142143 10.036 0)
(0.0149044 10.0475 0)
(0.014604 10.0572 0)
(0.013691 10.0637 0)
(0.0122539 10.0654 0)
(0.0103846 10.0589 0)
(0.00816733 10.0372 0)
(0.00564122 9.98686 0)
(0.00284016 9.88417 0)
(-5.60699e-05 9.69948 0)
(-0.00221876 9.41436 0)
(-0.00291904 9.02286 0)
(-0.00227583 8.44561 0)
(0.00455274 10.002 0)
(0.00855897 10.0103 0)
(0.0102218 10.0214 0)
(0.0118953 10.0331 0)
(0.0127493 10.0457 0)
(0.0125668 10.0575 0)
(0.0117076 10.0674 0)
(0.0102747 10.0746 0)
(0.00838405 10.0773 0)
(0.00616795 10.0718 0)
(0.00373243 10.0509 0)
(0.00116356 10.0004 0)
(-0.00145371 9.89677 0)
(-0.00384567 9.71254 0)
(-0.00520747 9.43291 0)
(-0.00464751 9.05257 0)
(-0.0032473 8.4904 0)
(0.00346337 10.0016 0)
(0.00697359 10.0087 0)
(0.00833214 10.0189 0)
(0.00954901 10.03 0)
(0.0102227 10.0427 0)
(0.0101102 10.056 0)
(0.00925386 10.0684 0)
(0.00776023 10.0794 0)
(0.00575492 10.088 0)
(0.00340455 10.0926 0)
(0.000865781 10.0892 0)
(-0.00171975 10.0701 0)
(-0.0042361 10.0208 0)
(-0.00651538 9.91799 0)
(-0.00821498 9.73641 0)
(-0.00857412 9.46413 0)
(-0.00657131 9.0958 0)
(-0.00431213 8.54817 0)
(0.00256841 10.0013 0)
(0.00550237 10.0074 0)
(0.0065595 10.0167 0)
(0.00737118 10.0272 0)
(0.00762641 10.0393 0)
(0.00723797 10.053 0)
(0.00632531 10.0672 0)
(0.00470602 10.0809 0)
(0.0025027 10.0938 0)
(-9.35721e-05 10.1048 0)
(-0.00289081 10.1121 0)
(-0.00570191 10.1118 0)
(-0.00833754 10.0957 0)
(-0.0106346 10.0489 0)
(-0.0123801 9.94869 0)
(-0.0131835 9.77174 0)
(-0.0123307 9.50834 0)
(-0.0086855 9.15247 0)
(-0.00546279 8.61873 0)
(0.00182369 10.0011 0)
(0.00414234 10.0063 0)
(0.00489775 10.0148 0)
(0.00531239 10.0246 0)
(0.00518675 10.036 0)
(0.00428325 10.0494 0)
(0.00292402 10.0643 0)
(0.0011025 10.08 0)
(-0.00137998 10.0958 0)
(-0.00432839 10.1113 0)
(-0.00751729 10.1256 0)
(-0.0107151 10.1367 0)
(-0.0136883 10.1405 0)
(-0.0162165 10.1285 0)
(-0.018094 10.0857 0)
(-0.019076 9.98964 0)
(-0.0187506 9.81903 0)
(-0.0164695 9.56562 0)
(-0.0109871 9.22251 0)
(-0.00669344 8.70178 0)
(0.00120529 10.0009 0)
(0.00289547 10.0054 0)
(0.0033477 10.0131 0)
(0.00337926 10.0222 0)
(0.0028646 10.033 0)
(0.00150686 10.0457 0)
(-0.000557655 10.0604 0)
(-0.00303868 10.077 0)
(-0.00590059 10.095 0)
(-0.0093125 10.1137 0)
(-0.0130222 10.1328 0)
(-0.0167612 10.1513 0)
(-0.0202537 10.1672 0)
(-0.0232318 10.1761 0)
(-0.0254438 10.1694 0)
(-0.0266594 10.1318 0)
(-0.0266132 10.0414 0)
(-0.0249033 9.87855 0)
(-0.0209715 9.63595 0)
(-0.0134504 9.30544 0)
(-0.00798496 8.79663 0)
(0.000685227 10.0008 0)
(0.00174919 10.0046 0)
(0.00191017 10.0117 0)
(0.00157797 10.0201 0)
(0.000679468 10.0301 0)
(-0.00112751 10.0421 0)
(-0.00381006 10.0562 0)
(-0.00724198 10.0727 0)
(-0.0110489 10.0918 0)
(-0.0150539 10.1129 0)
(-0.0194284 10.1354 0)
(-0.0238669 10.159 0)
(-0.0280533 10.1828 0)
(-0.031677 10.2045 0)
(-0.0344407 10.2196 0)
(-0.0360775 10.2191 0)
(-0.0363448 10.1878 0)
(-0.0349768 10.1044 0)
(-0.0316118 9.95036 0)
(-0.0258011 9.71901 0)
(-0.0160583 9.40083 0)
(-0.00932196 8.90268 0)
(0.0002901 10.0007 0)
(0.000771842 10.004 0)
(0.000579514 10.0104 0)
(-9.01205e-05 10.0182 0)
(-0.00135284 10.0274 0)
(-0.00359047 10.0386 0)
(-0.00687625 10.052 0)
(-0.0111497 10.0679 0)
(-0.0162379 10.0869 0)
(-0.0215398 10.1093 0)
(-0.0267478 10.1344 0)
(-0.0320661 10.1617 0)
(-0.0371345 10.1908 0)
(-0.041597 10.2208 0)
(-0.045117 10.2492 0)
(-0.0473866 10.2714 0)
(-0.0481363 10.2782 0)
(-0.0471299 10.2542 0)
(-0.0441255 10.1788 0)
(-0.0388222 10.0343 0)
(-0.0309114 9.81434 0)
(-0.0187567 9.50778 0)
(-0.0106622 9.01842 0)
(-2.23641e-05 10.0006 0)
(-4.71244e-05 10.0036 0)
(-0.00059031 10.0093 0)
(-0.00162264 10.0164 0)
(-0.00322377 10.0249 0)
(-0.00586365 10.0353 0)
(-0.00972041 10.0477 0)
(-0.0148095 10.0629 0)
(-0.0210295 10.0813 0)
(-0.0280335 10.1036 0)
(-0.034962 10.1301 0)
(-0.0413756 10.1602 0)
(-0.047546 10.1933 0)
(-0.0530655 10.2289 0)
(-0.0575522 10.266 0)
(-0.0606628 10.3021 0)
(-0.0620954 10.3322 0)
(-0.0615976 10.3471 0)
(-0.0589609 10.3312 0)
(-0.0539844 10.2645 0)
(-0.0464604 10.13 0)
(-0.0362012 9.92119 0)
(-0.0214439 9.62508 0)
(-0.0116278 9.14225 0)
(-0.000284115 10.0005 0)
(-0.000720136 10.0032 0)
(-0.00157169 10.0085 0)
(-0.00296082 10.0149 0)
(-0.00492966 10.0226 0)
(-0.00793411 10.0321 0)
(-0.0123159 10.0436 0)
(-0.018175 10.0577 0)
(-0.0254876 10.0752 0)
(-0.0339947 10.0969 0)
(-0.0431406 10.1233 0)
(-0.0517714 10.155 0)
(-0.0593127 10.1912 0)
(-0.0661523 10.231 0)
(-0.0718533 10.2741 0)
(-0.0760298 10.3192 0)
(-0.0783515 10.3637 0)
(-0.0785444 10.4024 0)
(-0.0763955 10.4259 0)
(-0.0717411 10.4188 0)
(-0.0644512 10.3612 0)
(-0.0543932 10.2368 0)
(-0.0416164 10.0385 0)
(-0.024125 9.75252 0)
(-0.0123709 9.27419 0)
(-0.00049115 10.0005 0)
(-0.00126689 10.0029 0)
(-0.00238962 10.0077 0)
(-0.00407023 10.0136 0)
(-0.00640073 10.0205 0)
(-0.00979355 10.029 0)
(-0.0146446 10.0395 0)
(-0.021211 10.0526 0)
(-0.0295544 10.069 0)
(-0.03951 10.0896 0)
(-0.0506161 10.1153 0)
(-0.0620802 10.1469 0)
(-0.0724057 10.1847 0)
(-0.0808945 10.228 0)
(-0.0881182 10.2756 0)
(-0.0936358 10.327 0)
(-0.0970799 10.3809 0)
(-0.0981595 10.4344 0)
(-0.0966551 10.4822 0)
(-0.0924137 10.5148 0)
(-0.085339 10.5167 0)
(-0.0753551 10.4684 0)
(-0.0624757 10.3537 0)
(-0.0462916 10.1655 0)
(-0.0204053 9.88348 0)
(-0.00701393 9.34749 0)
(-0.000661848 10.0004 0)
(-0.00172989 10.0027 0)
(-0.00307239 10.0071 0)
(-0.00498427 10.0124 0)
(-0.00759914 10.0186 0)
(-0.0113663 10.0262 0)
(-0.0166943 10.0356 0)
(-0.0238922 10.0475 0)
(-0.0331844 10.0625 0)
(-0.0445077 10.0819 0)
(-0.0575032 10.1064 0)
(-0.0714748 10.1372 0)
(-0.0853543 10.1749 0)
(-0.0972611 10.22 0)
(-0.106402 10.2714 0)
(-0.113613 10.3277 0)
(-0.118478 10.3883 0)
(-0.120681 10.4515 0)
(-0.120002 10.5145 0)
(-0.116297 10.5717 0)
(-0.109491 10.6135 0)
(-0.0995483 10.6245 0)
(-0.0865001 10.5853 0)
(-0.0701231 10.48 0)
(-0.0507979 10.2991 0)
(-0.0159981 10.0471 0)
(0.000307325 9.39989 0)
(-0.000805353 10.0004 0)
(-0.00211551 10.0025 0)
(-0.00364595 10.0066 0)
(-0.00573911 10.0115 0)
(-0.00856675 10.0171 0)
(-0.0126177 10.0237 0)
(-0.0183824 10.0319 0)
(-0.0262014 10.0424 0)
(-0.0363434 10.0561 0)
(-0.0489299 10.0739 0)
(-0.0637139 10.0969 0)
(-0.0801055 10.1264 0)
(-0.097133 10.1632 0)
(-0.113422 10.2081 0)
(-0.126672 10.2616 0)
(-0.13604 10.3221 0)
(-0.142725 10.3879 0)
(-0.146372 10.4582 0)
(-0.146748 10.5313 0)
(-0.143727 10.604 0)
(-0.13727 10.6707 0)
(-0.127384 10.7217 0)
(-0.114116 10.7415 0)
(-0.0973319 10.7111 0)
(-0.0767672 10.6144 0)
(-0.0541657 10.4481 0)
(-0.0176788 10.2127 0)
(0.00447915 9.44447 0)
(-0.000926785 10.0004 0)
(-0.0024391 10.0023 0)
(-0.00412912 10.0062 0)
(-0.00636389 10.0107 0)
(-0.00934837 10.0157 0)
(-0.0136008 10.0216 0)
(-0.0196816 10.0287 0)
(-0.0280453 10.0377 0)
(-0.0390072 10.0497 0)
(-0.0527313 10.0657 0)
(-0.0691746 10.087 0)
(-0.0878644 10.1146 0)
(-0.107938 10.1499 0)
(-0.128112 10.1939 0)
(-0.146676 10.2471 0)
(-0.160895 10.31 0)
(-0.169938 10.3805 0)
(-0.175462 10.4566 0)
(-0.177216 10.5371 0)
(-0.175095 10.6203 0)
(-0.1691 10.7028 0)
(-0.1593 10.7789 0)
(-0.145794 10.8388 0)
(-0.128528 10.8671 0)
(-0.107253 10.8452 0)
(-0.0819747 10.758 0)
(-0.0552909 10.6113 0)
(-0.0210183 10.375 0)
(0.00519845 9.49085 0)
(-0.00103002 10.0003 0)
(-0.00271171 10.0022 0)
(-0.00453773 10.0058 0)
(-0.00688263 10.0099 0)
(-0.00998025 10.0145 0)
(-0.0143698 10.0197 0)
(-0.0206608 10.0258 0)
(-0.0294065 10.0334 0)
(-0.041068 10.0435 0)
(-0.0558781 10.0575 0)
(-0.0738256 10.0767 0)
(-0.0946583 10.1023 0)
(-0.117637 10.1356 0)
(-0.141583 10.1778 0)
(-0.164864 10.2301 0)
(-0.185436 10.2926 0)
(-0.200099 10.3659 0)
(-0.208104 10.4473 0)
(-0.211707 10.5341 0)
(-0.210813 10.6252 0)
(-0.20547 10.7185 0)
(-0.195821 10.8107 0)
(-0.182054 10.8958 0)
(-0.164248 10.9642 0)
(-0.142307 11.0008 0)
(-0.116479 10.9873 0)
(-0.0869169 10.911 0)
(-0.0568587 10.7826 0)
(-0.0235219 10.5335 0)
(0.00436199 9.5429 0)
(-0.00111796 10.0003 0)
(-0.00294269 10.0021 0)
(-0.00488466 10.0055 0)
(-0.0073146 10.0093 0)
(-0.0104917 10.0135 0)
(-0.014969 10.0181 0)
(-0.0213885 10.0233 0)
(-0.0303765 10.0297 0)
(-0.0425208 10.038 0)
(-0.058243 10.0497 0)
(-0.0776214 10.0663 0)
(-0.10041 10.0895 0)
(-0.126113 10.1203 0)
(-0.153672 10.1603 0)
(-0.181553 10.2107 0)
(-0.207769 10.2723 0)
(-0.229904 10.3453 0)
(-0.244316 10.4299 0)
(-0.250441 10.5227 0)
(-0.251264 10.6207 0)
(-0.246889 10.7224 0)
(-0.237544 10.8258 0)
(-0.223525 10.9272 0)
(-0.205082 11.0209 0)
(-0.182331 11.0973 0)
(-0.155627 11.1419 0)
(-0.125746 11.1367 0)
(-0.09274 11.0722 0)
(-0.0593228 10.9571 0)
(-0.0262791 10.6884 0)
(0.00282428 9.61485 0)
(-0.00119334 10.0003 0)
(-0.00313962 10.002 0)
(-0.00518042 10.0052 0)
(-0.00767553 10.0088 0)
(-0.0109064 10.0126 0)
(-0.0154338 10.0167 0)
(-0.0219197 10.0211 0)
(-0.031043 10.0264 0)
(-0.0434869 10.0331 0)
(-0.0598358 10.0426 0)
(-0.0804072 10.0563 0)
(-0.105059 10.0764 0)
(-0.133266 10.1044 0)
(-0.164234 10.1415 0)
(-0.196547 10.1894 0)
(-0.228293 10.249 0)
(-0.257077 10.3211 0)
(-0.280163 10.4056 0)
(-0.293472 10.5022 0)
(-0.296747 10.607 0)
(-0.293838 10.7163 0)
(-0.285082 10.8286 0)
(-0.270916 10.9416 0)
(-0.251766 11.0518 0)
(-0.227991 11.1536 0)
(-0.200076 11.2377 0)
(-0.168879 11.2898 0)
(-0.135397 11.2922 0)
(-0.0993814 11.2389 0)
(-0.0628173 11.1319 0)
(-0.0293769 10.8581 0)
(0.00110016 9.70004 0)
(-0.00125833 10.0003 0)
(-0.0033081 10.0019 0)
(-0.00543339 10.005 0)
(-0.00797813 10.0083 0)
(-0.0112432 10.0118 0)
(-0.0157924 10.0154 0)
(-0.0222984 10.0192 0)
(-0.0314767 10.0234 0)
(-0.04408 10.0288 0)
(-0.060816 10.0362 0)
(-0.0822093 10.0472 0)
(-0.108413 10.0637 0)
(-0.139016 10.088 0)
(-0.173141 10.1219 0)
(-0.209663 10.1666 0)
(-0.246767 10.2234 0)
(-0.282109 10.2936 0)
(-0.312921 10.3772 0)
(-0.336169 10.474 0)
(-0.34737 10.5833 0)
(-0.346703 10.7003 0)
(-0.339026 10.8208 0)
(-0.324952 10.9433 0)
(-0.305127 11.0655 0)
(-0.280148 11.184 0)
(-0.250702 11.2934 0)
(-0.21772 11.3845 0)
(-0.18233 11.443 0)
(-0.14533 11.4524 0)
(-0.106405 11.4083 0)
(-0.0674096 11.3257 0)
(-0.0324189 11.0425 0)
(-0.000868809 9.79482 0)
(-0.00131466 10.0003 0)
(-0.00345295 10.0018 0)
(-0.0056504 10.0048 0)
(-0.0082326 10.0079 0)
(-0.0115174 10.0111 0)
(-0.0160675 10.0143 0)
(-0.0225597 10.0175 0)
(-0.0317335 10.0208 0)
(-0.0443911 10.0249 0)
(-0.0613309 10.0306 0)
(-0.0832356 10.039 0)
(-0.110517 10.0521 0)
(-0.143122 10.072 0)
(-0.180288 10.1016 0)
(-0.22074 10.1425 0)
(-0.262969 10.1959 0)
(-0.304707 10.2631 0)
(-0.343191 10.3448 0)
(-0.3753 10.441 0)
(-0.397736 10.5508 0)
(-0.405672 10.6731 0)
(-0.399876 10.8025 0)
(-0.386353 10.9341 0)
(-0.366015 11.0663 0)
(-0.339758 11.1971 0)
(-0.308495 11.3232 0)
(-0.273318 11.4393 0)
(-0.235445 11.5363 0)
(-0.19592 11.6001 0)
(-0.155249 11.6151 0)
(-0.114197 11.5986 0)
(-0.0725487 11.5374 0)
(-0.0354533 11.223 0)
(-0.00278801 9.89629 0)
(-0.00136385 10.0003 0)
(-0.00357859 10.0017 0)
(-0.00583752 10.0046 0)
(-0.00844717 10.0076 0)
(-0.0117408 10.0105 0)
(-0.016277 10.0133 0)
(-0.0227314 10.0159 0)
(-0.031858 10.0185 0)
(-0.0444925 10.0215 0)
(-0.0614982 10.0255 0)
(-0.0836758 10.0317 0)
(-0.111637 10.0417 0)
(-0.145645 10.0574 0)
(-0.185371 10.0817 0)
(-0.22964 10.1176 0)
(-0.276696 10.1668 0)
(-0.324598 10.2302 0)
(-0.370623 10.3089 0)
(-0.41159 10.4033 0)
(-0.444053 10.513 0)
(-0.464529 10.6363 0)
(-0.467923 10.7719 0)
(-0.455751 10.9134 0)
(-0.435295 11.0556 0)
(-0.40781 11.197 0)
(-0.374535 11.3356 0)
(-0.336766 11.4684 0)
(-0.295895 11.5902 0)
(-0.25316 11.6919 0)
(-0.209372 11.7594 0)
(-0.166037 11.7985 0)
(-0.122402 11.8081 0)
(-0.077683 11.7442 0)
(-0.0383067 11.3988 0)
(-0.00454612 10.0016 0)
(-0.00368943 10.0017 0)
(-0.00141825 10.0002 0)
(-0.00600084 10.0044 0)
(-0.00862911 10.0072 0)
(-0.0119231 10.01 0)
(-0.016435 10.0125 0)
(-0.0228352 10.0146 0)
(-0.0318848 10.0165 0)
(-0.0444409 10.0185 0)
(-0.0614113 10.0211 0)
(-0.083682 10.0253 0)
(-0.112016 10.0324 0)
(-0.146924 10.0443 0)
(-0.188465 10.0635 0)
(-0.235977 10.0931 0)
(-0.28777 10.1365 0)
(-0.34153 10.1953 0)
(-0.394882 10.27 0)
(-0.444624 10.3614 0)
(-0.487186 10.4696 0)
(-0.518863 10.5933 0)
(-0.536081 10.7306 0)
(-0.533568 10.8795 0)
(-0.513752 11.0328 0)
(-0.485329 11.1849 0)
(-0.449958 11.3346 0)
(-0.409272 11.4802 0)
(-0.364885 11.6186 0)
(-0.318273 11.7448 0)
(-0.270563 11.8494 0)
(-0.22394 11.9385 0)
(-0.177368 12.0012 0)
(-0.130093 12.0139 0)
(-0.082542 11.9448 0)
(-0.0408464 11.569 0)
(-0.00616227 10.1084 0)
(-0.00614654 10.0043 0)
(-0.00380811 10.0016 0)
(-0.00147911 10.0002 0)
(-0.00878607 10.007 0)
(-0.0120725 10.0095 0)
(-0.0165524 10.0117 0)
(-0.0228879 10.0134 0)
(-0.031841 10.0147 0)
(-0.0442805 10.0158 0)
(-0.061143 10.0171 0)
(-0.0833743 10.0195 0)
(-0.111848 10.0241 0)
(-0.147268 10.0325 0)
(-0.189996 10.047 0)
(-0.239836 10.0705 0)
(-0.295698 10.1066 0)
(-0.355274 10.1588 0)
(-0.415655 10.2286 0)
(-0.473999 10.3159 0)
(-0.526647 10.4212 0)
(-0.569693 10.544 0)
(-0.599263 10.6823 0)
(-0.611805 10.8336 0)
(-0.601973 10.9955 0)
(-0.573281 11.16 0)
(-0.535968 11.3213 0)
(-0.492136 11.4784 0)
(-0.443763 11.6297 0)
(-0.39262 11.7725 0)
(-0.340138 11.9014 0)
(-0.289312 12.0265 0)
(-0.239139 12.1365 0)
(-0.187886 12.2012 0)
(-0.13713 12.2144 0)
(-0.0869494 12.1381 0)
(-0.0430251 11.7328 0)
(-0.00760015 10.2149 0)
(-0.00892674 10.0067 0)
(-0.00629188 10.0041 0)
(-0.00394585 10.0015 0)
(-0.00153789 10.0002 3.73751e-20)
(-0.0121982 10.0091 0)
(-0.0166386 10.011 0)
(-0.0229023 10.0124 0)
(-0.0317473 10.0131 0)
(-0.0440454 10.0134 0)
(-0.0607498 10.0136 0)
(-0.0828464 10.0144 0)
(-0.111289 10.0167 0)
(-0.146923 10.0219 0)
(-0.190348 10.0322 0)
(-0.241742 10.0501 0)
(-0.300568 10.0789 0)
(-0.365204 10.1226 0)
(-0.432651 10.185 0)
(-0.499331 10.2672 0)
(-0.561957 10.3685 0)
(-0.616456 10.4888 0)
(-0.658663 10.6268 0)
(-0.684649 10.7801 0)
(-0.691012 10.9454 0)
(-0.672455 11.1197 0)
(-0.63374 11.2946 0)
(-0.586757 11.4641 0)
(-0.534009 11.6273 0)
(-0.477701 11.7832 0)
(-0.419639 11.9286 0)
(-0.36362 12.0775 0)
(-0.308809 12.2222 0)
(-0.253116 12.332 0)
(-0.197464 12.3967 0)
(-0.143396 12.408 0)
(-0.090827 12.3232 0)
(-0.0448442 11.8897 0)
(-0.00884721 10.3195 0)
(-0.0123119 10.0087 0)
(-0.00904918 10.0064 0)
(-0.00645489 10.0038 1.70015e-19)
(-0.00408121 10.0014 -1.18485e-19)
(-0.00159388 10.0002 -7.33633e-20)
(-0.0167043 10.0104 0)
(-0.0228892 10.0115 0)
(-0.0316189 10.0117 0)
(-0.0437614 10.0114 0)
(-0.0602751 10.0106 0)
(-0.0821709 10.0099 0)
(-0.110458 10.0101 0)
(-0.146085 10.0126 0)
(-0.189832 10.019 0)
(-0.242172 10.0317 0)
(-0.303016 10.0539 0)
(-0.371394 10.0891 0)
(-0.445078 10.1418 0)
(-0.520252 10.2158 0)
(-0.592648 10.3118 0)
(-0.658583 10.4283 0)
(-0.713635 10.5644 0)
(-0.75349 10.7182 0)
(-0.774294 10.8866 0)
(-0.772943 11.0654 0)
(-0.744302 11.2516 0)
(-0.69454 11.4358 0)
(-0.637235 11.6122 0)
(-0.575187 11.7804 0)
(-0.510714 11.939 0)
(-0.448608 12.1044 0)
(-0.38803 12.2722 0)
(-0.32668 12.4154 0)
(-0.26575 12.5233 0)
(-0.205982 12.5859 0)
(-0.148849 12.5937 0)
(-0.0941547 12.4997 0)
(-0.0463242 12.0392 0)
(-0.00990602 10.421 0)
(-0.0167659 10.0099 0)
(-0.0123766 10.0082 -3.83807e-19)
(-0.00917553 10.006 -1.79656e-19)
(-0.0066126 10.0036 8.34633e-20)
(-0.0042114 10.0013 -7.74974e-20)
(-0.00164683 10.0002 0)
(-0.0228607 10.0107 0)
(-0.031468 10.0105 0)
(-0.0434468 10.0095 0)
(-0.0597516 10.0078 0)
(-0.0814033 10.0058 0)
(-0.109447 10.0043 0)
(-0.144907 10.0042 0)
(-0.188696 10.0071 0)
(-0.241513 10.0152 0)
(-0.303629 10.0312 0)
(-0.374608 10.0586 0)
(-0.452976 10.1016 0)
(-0.535765 10.1646 0)
(-0.618266 10.2519 0)
(-0.69552 10.3631 0)
(-0.763523 10.4958 0)
(-0.817604 10.6485 0)
(-0.85343 10.8184 0)
(-0.867374 11.0016 0)
(-0.856779 11.1934 0)
(-0.816788 11.3903 0)
(-0.755085 11.5827 0)
(-0.686907 11.7647 0)
(-0.615241 11.936 0)
(-0.546089 12.1147 0)
(-0.478731 12.2989 0)
(-0.410406 12.4647 0)
(-0.342798 12.6046 0)
(-0.276943 12.7089 0)
(-0.213395 12.768 0)
(-0.153491 12.771 0)
(-0.096945 12.6673 0)
(-0.0474971 12.181 0)
(-0.0107873 10.5186 0)
(-0.0228407 10.0099 0)
(-0.0167307 10.0093 8.10942e-19)
(-0.0124122 10.0077 0)
(-0.0092959 10.0056 1.76251e-19)
(-0.00676201 10.0034 6.31991e-23)
(-0.00433617 10.0012 0)
(-0.00169656 10.0002 0)
(-0.0313088 10.0094 0)
(-0.0431161 10.0079 0)
(-0.0592019 10.0054 0)
(-0.0805851 10.0023 0)
(-0.108329 9.99912 0)
(-0.143507 9.99679 0)
(-0.187132 9.99663 0)
(-0.240073 10.0005 0)
(-0.30288 10.0109 0)
(-0.375553 10.031 0)
(-0.457246 10.0648 0)
(-0.545846 10.1168 0)
(-0.637556 10.1918 0)
(-0.726702 10.2938 0)
(-0.807665 10.4216 0)
(-0.876236 10.5716 0)
(-0.927621 10.7414 0)
(-0.957624 10.9273 0)
(-0.962997 11.1249 0)
(-0.941673 11.3288 0)
(-0.889172 11.5352 0)
(-0.814765 11.7344 0)
(-0.73527 11.9202 0)
(-0.658183 12.1119 0)
(-0.582907 12.3095 0)
(-0.506359 12.4914 0)
(-0.43059 12.6532 0)
(-0.357075 12.7882 0)
(-0.286666 12.8875 0)
(-0.219712 12.9421 0)
(-0.15735 12.9394 0)
(-0.0992246 12.8256 0)
(-0.0483979 12.315 0)
(-0.0115067 10.6116 0)
(-0.0311762 10.0084 0)
(-0.0226531 10.0091 -8.32907e-23)
(-0.0166062 10.0085 0)
(-0.0124412 10.0071 -1.86233e-19)
(-0.00940501 10.0053 6.05718e-23)
(-0.00690311 10.0032 0)
(-0.00445537 10.0011 0)
(-0.00174311 10.0001 0)
(-0.0427854 10.0064 0)
(-0.0586431 10.0032 0)
(-0.0797449 9.99913 0)
(-0.107155 9.99455 0)
(-0.141976 9.99021 0)
(-0.185291 9.98727 0)
(-0.238094 9.98735 0)
(-0.301152 9.99269 0)
(-0.374809 10.0062 0)
(-0.458736 10.0315 0)
(-0.551545 10.0731 0)
(-0.650396 10.1356 0)
(-0.75057 10.2241 0)
(-0.845378 10.3423 0)
(-0.928611 10.4879 0)
(-0.996008 10.6559 0)
(-1.04281 10.843 0)
(-1.06512 11.0448 0)
(-1.06023 11.256 0)
(-1.02677 11.4708 0)
(-0.960722 11.6854 0)
(-0.872972 11.8894 0)
(-0.787181 12.0962 0)
(-0.702941 12.3073 0)
(-0.616732 12.5026 0)
(-0.531305 12.6802 0)
(-0.448493 12.8363 0)
(-0.369489 12.9652 0)
(-0.294947 13.0587 0)
(-0.22498 13.1077 0)
(-0.160481 13.0988 0)
(-0.101035 12.9748 0)
(-0.04906 12.4409 0)
(-0.0120793 10.6996 0)
(-0.0425063 10.0051 0)
(-0.0307743 10.0073 -4.5246e-19)
(-0.0222769 10.008 0)
(-0.0164756 10.0077 0)
(-0.0124544 10.0066 5.4825e-19)
(-0.00950266 10.0049 0)
(-0.00703579 10.003 0)
(-0.00456879 10.001 1.46559e-19)
(-0.00178641 10.0001 0)
(-0.0580942 10.0013 0)
(-0.078903 9.99634 0)
(-0.105963 9.99049 0)
(-0.140383 9.98438 0)
(-0.183286 9.97896 0)
(-0.235763 9.97566 0)
(-0.298743 9.97644 0)
(-0.37284 9.98393 0)
(-0.45814 10.0015 0)
(-0.553862 10.0332 0)
(-0.65799 10.0839 0)
(-0.766856 10.1586 0)
(-0.874741 10.2622 0)
(-0.973916 10.3981 0)
(-1.0577 10.5625 0)
(-1.12197 10.749 0)
(-1.16218 10.9534 0)
(-1.1749 11.1705 0)
(-1.1581 11.3942 0)
(-1.11122 11.6187 0)
(-1.03072 11.8395 0)
(-0.935573 12.0656 0)
(-0.841384 12.2924 0)
(-0.744134 12.5014 0)
(-0.647322 12.6923 0)
(-0.553465 12.8638 0)
(-0.464099 13.0131 0)
(-0.38009 13.1349 0)
(-0.301861 13.2217 0)
(-0.229271 13.2646 0)
(-0.162948 13.249 0)
(-0.102422 13.1149 0)
(-0.0495169 12.559 0)
(-0.0125218 10.7825 0)
(-0.0576299 9.99963 0)
(-0.0418156 10.0036 0)
(-0.0300312 10.006 -4.47264e-19)
(-0.0218981 10.007 -4.15546e-19)
(-0.0163242 10.007 -7.72244e-19)
(-0.0124515 10.006 0)
(-0.00958867 10.0045 -3.33279e-19)
(-0.00715948 10.0027 -3.09684e-19)
(-0.00467628 10.001 1.43845e-19)
(-0.00182626 10.0001 0)
(-0.0780822 9.99386 0)
(-0.104777 9.98689 0)
(-0.138772 9.97919 0)
(-0.181205 9.97158 0)
(-0.233226 9.96526 0)
(-0.295888 9.96196 0)
(-0.370014 9.96402 0)
(-0.456019 9.97451 0)
(-0.553621 9.99725 0)
(-0.661503 10.0368 0)
(-0.776917 10.0981 0)
(-0.895275 10.1866 0)
(-1.0098 10.3069 0)
(-1.11174 10.4617 0)
(-1.1941 10.6457 0)
(-1.25313 10.851 0)
(-1.28465 11.0725 0)
(-1.2859 11.304 0)
(-1.25565 11.5391 0)
(-1.19419 11.7714 0)
(-1.1063 12.0154 0)
(-1.00114 12.2625 0)
(-0.891369 12.4878 0)
(-0.781448 12.6924 0)
(-0.674549 12.8771 0)
(-0.572828 13.0412 0)
(-0.477464 13.1826 0)
(-0.388973 13.2967 0)
(-0.307507 13.3763 0)
(-0.232668 13.4127 0)
(-0.164816 13.3901 0)
(-0.103435 13.2461 0)
(-0.0497964 12.6694 0)
(-0.0128503 10.8603 0)
(-0.0773888 9.99165 0)
(-0.0565605 9.99774 -5.05338e-19)
(-0.0405611 10.002 4.72547e-19)
(-0.0292943 10.0047 -5.17356e-23)
(-0.0214926 10.0061 4.07916e-19)
(-0.0161505 10.0062 3.78947e-19)
(-0.0124322 10.0055 7.04224e-19)
(-0.00966262 10.0042 4.90689e-19)
(-0.00727425 10.0025 -1.51993e-19)
(-0.00477743 10.0009 0)
(-0.00186271 10.0001 0)
(-0.103624 9.98369 0)
(-0.137173 9.9746 0)
(-0.179105 9.96503 0)
(-0.230591 9.95602 0)
(-0.292767 9.94907 0)
(-0.366618 9.94625 0)
(-0.452822 9.95034 0)
(-0.551495 9.96484 0)
(-0.661903 9.99402 0)
(-0.782094 10.0428 0)
(-0.908491 10.1165 0)
(-1.0355 10.2204 0)
(-1.15527 10.3589 0)
(-1.25809 10.5338 0)
(-1.33684 10.7381 0)
(-1.38837 10.9621 0)
(-1.4091 11.1999 0)
(-1.39705 11.4448 0)
(-1.3519 11.6895 0)
(-1.28419 11.9465 0)
(-1.18583 12.2132 0)
(-1.06185 12.4594 0)
(-0.936783 12.6806 0)
(-0.814734 12.8789 0)
(-0.698399 13.0558 0)
(-0.589462 13.2116 0)
(-0.488701 13.3445 0)
(-0.396261 13.4503 0)
(-0.311997 13.5224 0)
(-0.235266 13.5519 0)
(-0.166153 13.5223 0)
(-0.104124 13.3687 0)
(-0.0499266 12.7723 0)
(-0.013083 10.9329 0)
(-0.102653 9.98085 0)
(-0.0758338 9.98926 -4.48965e-22)
(-0.0546161 9.99566 0)
(-0.0393289 10.0004 -1.74187e-22)
(-0.0285229 10.0035 0)
(-0.0210568 10.0051 -4.00385e-19)
(-0.0159545 10.0055 -7.43968e-19)
(-0.0123964 10.005 -6.50051e-23)
(-0.00972442 10.0038 3.21044e-19)
(-0.00737959 10.0023 -1.49152e-19)
(-0.00487214 10.0008 1.38578e-19)
(-0.00189571 10.0001 0)
(-0.135622 9.97052 0)
(-0.177023 9.95921 0)
(-0.22793 9.94781 0)
(-0.289517 9.9376 0)
(-0.362878 9.93041 0)
(-0.4489 9.92873 0)
(-0.548021 9.93574 0)
(-0.659985 9.95544 0)
(-0.783511 9.99252 0)
(-0.915911 10.0522 0)
(-1.05268 10.14 0)
(-1.18719 10.261 0)
(-1.3105 10.4191 0)
(-1.41203 10.6149 0)
(-1.48481 10.8397 0)
(-1.52653 11.0821 0)
(-1.53439 11.3354 0)
(-1.50729 11.5919 0)
(-1.45684 11.8631 0)
(-1.37937 12.1445 0)
(-1.25984 12.4119 0)
(-1.11727 12.6546 0)
(-0.977446 12.8692 0)
(-0.843956 13.0596 0)
(-0.718942 13.2277 0)
(-0.603499 13.3744 0)
(-0.49796 13.4983 0)
(-0.402094 13.5956 0)
(-0.315448 13.66 0)
(-0.237158 13.6825 0)
(-0.167028 13.6459 0)
(-0.104532 13.4829 0)
(-0.0499318 12.8681 0)
(-0.0132355 11.0005 0)
(-0.13432 9.96689 0)
(-0.100486 9.97782 5.64263e-19)
(-0.0729819 9.98666 -5.28268e-19)
(-0.0527198 9.99365 4.90176e-19)
(-0.0380533 9.9988 0)
(-0.0277105 10.0022 0)
(-0.020591 10.0042 3.92993e-19)
(-0.0157365 10.0048 -3.6511e-19)
(-0.0123438 10.0045 -5.23357e-23)
(-0.00977339 10.0035 1.57608e-19)
(-0.00747523 10.0021 -1.46433e-19)
(-0.00496028 10.0007 -1.36013e-19)
(-0.00192505 10.0001 0)
(-0.175002 9.95405 0)
(-0.22529 9.94051 0)
(-0.286227 9.9274 0)
(-0.358963 9.91631 0)
(-0.444529 9.90944 0)
(-0.543628 9.90969 0)
(-0.656391 9.92074 0)
(-0.782099 9.94701 0)
(-0.918826 9.99358 0)
(-1.06304 10.0659 0)
(-1.20927 10.1696 0)
(-1.34978 10.3092 0)
(-1.47464 10.488 0)
(-1.57251 10.7055 0)
(-1.63682 10.9507 0)
(-1.66641 11.2109 0)
(-1.65934 11.4781 0)
(-1.62818 11.7629 0)
(-1.56848 12.0608 0)
(-1.46846 12.3449 0)
(-1.32773 12.6098 0)
(-1.16712 12.8462 0)
(-1.01332 13.0526 0)
(-0.869223 13.2336 0)
(-0.736333 13.3922 0)
(-0.615115 13.5292 0)
(-0.50541 13.6438 0)
(-0.406619 13.7325 0)
(-0.317984 13.7891 0)
(-0.238433 13.8047 0)
(-0.167507 13.7612 0)
(-0.104703 13.5893 0)
(-0.049836 12.9571 0)
(-0.0133228 11.0633 0)
(-0.173316 9.94946 0)
(-0.131394 9.96307 0)
(-0.0964653 9.9746 5.5794e-19)
(-0.0702159 9.98416 -1.03745e-18)
(-0.050769 9.9917 9.63248e-19)
(-0.0367222 9.99728 -8.9447e-19)
(-0.0268577 10.0011 0)
(-0.0200961 10.0033 3.85775e-19)
(-0.0154965 10.0041 -3.58364e-19)
(-0.0122741 10.004 -3.32951e-19)
(-0.00980956 10.0032 0)
(-0.00756116 10.002 1.43727e-19)
(-0.00504098 10.0007 0)
(-0.00195027 10.0001 0)
(-0.222726 9.93403 0)
(-0.282956 9.91833 0)
(-0.354984 9.90375 0)
(-0.439918 9.89224 0)
(-0.538649 9.88641 0)
(-0.651632 9.88961 0)
(-0.778612 9.90597 0)
(-0.918311 9.94034 0)
(-1.06805 9.99812 0)
(-1.22339 10.0849 0)
(-1.37781 10.2061 0)
(-1.52255 10.3658 0)
(-1.64669 10.5663 0)
(-1.73836 10.8058 0)
(-1.79164 11.0712 0)
(-1.80675 11.3478 0)
(-1.79723 11.6454 0)
(-1.75766 11.9593 0)
(-1.67369 12.2622 0)
(-1.55071 12.5456 0)
(-1.38913 12.805 0)
(-1.21132 13.033 0)
(-1.0445 13.2296 0)
(-0.890723 13.4004 0)
(-0.750781 13.5487 0)
(-0.624512 13.6759 0)
(-0.511232 13.7811 0)
(-0.409984 13.8611 0)
(-0.319722 13.91 0)
(-0.239181 13.9187 0)
(-0.167652 13.8685 0)
(-0.104673 13.6881 0)
(-0.0496581 13.0396 0)
(-0.0133566 11.1216 0)
(-0.220598 9.92827 0)
(-0.169465 9.94468 0)
(-0.1259 9.95909 0)
(-0.0925874 9.97151 1.09567e-18)
(-0.067384 9.98176 -1.01748e-18)
(-0.0487452 9.98984 9.44884e-19)
(-0.0353375 9.99583 0)
(-0.0259663 9.99993 -4.07563e-19)
(-0.0195728 10.0024 0)
(-0.0152348 10.0035 3.51778e-19)
(-0.0121875 10.0035 0)
(-0.00983247 10.0029 0)
(-0.00763668 10.0018 0)
(-0.00511228 10.0006 1.39742e-19)
(-0.00197143 10.0001 6.82593e-20)
(-0.279776 9.91027 0)
(-0.351014 9.89258 0)
(-0.435206 9.87691 0)
(-0.533341 9.86561 0)
(-0.646113 9.86173 0)
(-0.77366 9.86907 0)
(-0.915248 9.89221 0)
(-1.06893 9.93638 0)
(-1.23121 10.0072 0)
(-1.39665 10.1103 0)
(-1.5577 10.2505 0)
(-1.70459 10.4316 0)
(-1.82555 10.6545 0)
(-1.90834 10.916 0)
(-1.948 11.2006 0)
(-1.96271 11.5098 0)
(-1.94602 11.8393 0)
(-1.88063 12.1612 0)
(-1.77158 12.4655 0)
(-1.62565 12.7449 0)
(-1.4439 12.9963 0)
(-1.24992 13.214 0)
(-1.07118 13.3997 0)
(-0.908697 13.5595 0)
(-0.762529 13.6972 0)
(-0.631905 13.8142 0)
(-0.51561 13.9101 0)
(-0.412336 13.9816 0)
(-0.320773 14.0229 0)
(-0.23948 14.025 0)
(-0.167518 13.9683 0)
(-0.104478 13.7799 0)
(-0.0494157 13.116 0)
(-0.0133464 11.1755 0)
(-0.277155 9.9031 0)
(-0.215634 9.92233 0)
(-0.162142 9.93977 1.25128e-18)
(-0.120626 9.95529 1.16123e-18)
(-0.0886293 9.96857 1.07771e-18)
(-0.0644575 9.97947 -1.0002e-18)
(-0.046651 9.98805 0)
(-0.033902 9.99444 0)
(-0.0250378 9.99885 0)
(-0.0190218 10.0015 7.435e-19)
(-0.0149516 10.0028 3.4531e-19)
(-0.0120838 10.0031 3.20787e-19)
(-0.0098419 10.0026 0)
(-0.00770049 10.0016 -1.47654e-19)
(-0.00517369 10.0005 -7.21468e-20)
(-0.00198893 10.0001 0)
(-0.347151 9.88263 0)
(-0.43048 9.86326 0)
(-0.527873 9.84706 0)
(-0.640145 9.8368 0)
(-0.767727 9.83597 0)
(-0.910352 9.84884 0)
(-1.06671 9.88042 0)
(-1.2341 9.93619 0)
(-1.40811 10.0219 0)
(-1.58233 10.143 0)
(-1.74816 10.3039 0)
(-1.89488 10.5073 0)
(-2.01006 10.7532 0)
(-2.0812 11.0361 0)
(-2.12306 11.3555 0)
(-2.1324 11.6997 0)
(-2.08859 12.0406 0)
(-1.99604 12.3667 0)
(-1.86153 12.6689 0)
(-1.69307 12.9414 0)
(-1.49208 13.1825 0)
(-1.28314 13.3884 0)
(-1.09361 13.5622 0)
(-0.923427 13.7105 0)
(-0.771843 13.8373 0)
(-0.637516 13.9444 0)
(-0.518722 14.031 0)
(-0.413814 14.0942 0)
(-0.321241 14.1283 0)
(-0.239406 14.1239 0)
(-0.167154 14.061 0)
(-0.104148 13.865 0)
(-0.0491216 13.1867 0)
(-0.0133025 11.2253 0)
(-0.343991 9.8738 0)
(-0.270863 9.89575 0)
(-0.206074 9.91631 -2.64651e-18)
(-0.155141 9.93511 3.0862e-21)