/*--------------------------------*- C++ -*----------------------------------*\
  =========                 |
  \\      /  F ield         | OpenFOAM: The Open Source CFD Toolbox
   \\    /   O peration     | Website:  https://openfoam.org
    \\  /    A nd           | Version:  8
     \\/     M anipulation  |
\*---------------------------------------------------------------------------*/
FoamFile
{
    version     2.0;
    format      ascii;
    class       volScalarField;
    location    "0.08";
    object      nut;
}
// * * * * * * * * * * * * * * * * * * * * * * * * * * * * * * * * * * * * * //

dimensions      [0 2 -1 0 0 0 0];

internalField   nonuniform List<scalar> 
15677
(
0.000168168
0.000652159
0.000148203
0.00151205
0.000443116
0.000141301
0.00267197
0.000878249
0.000381094
0.000142202
0.00391622
0.00152278
0.000687421
0.000354365
0.000145345
0.00501894
0.00236047
0.00114813
0.000586153
0.000340349
0.00015114
0.00583669
0.00332119
0.00178314
0.000948851
0.000529641
0.000332079
0.000156951
0.00633337
0.00430111
0.00257013
0.00146487
0.000821645
0.000492711
0.000327027
0.000162409
0.00656227
0.00518816
0.00345498
0.00213337
0.00125837
0.000737721
0.0004676
0.000324144
0.000167192
0.0066582
0.00589318
0.00435666
0.00292382
0.00184294
0.00111306
0.000677704
0.000450554
0.000322564
0.000171423
0.00670541
0.00633802
0.00518142
0.00378031
0.00255841
0.00163279
0.00100514
0.000634342
0.000438773
0.000322003
0.000174989
0.00671436
0.00655332
0.0058454
0.00462611
0.00336401
0.00228762
0.0014734
0.000924617
0.000602356
0.000430827
0.000321939
0.000178126
0.0067099
0.00666146
0.00629552
0.00537748
0.00419786
0.00304635
0.00207864
0.00134959
0.000862517
0.000578713
0.000425342
0.000322418
0.00018074
0.00670625
0.00669874
0.00652947
0.00596448
0.0049847
0.00385817
0.00279656
0.00191241
0.00125164
0.000814332
0.000560926
0.000421855
0.000323048
0.000183084
0.00670536
0.00670438
0.00664671
0.00635677
0.00565025
0.00465642
0.00358403
0.00259427
0.00177829
0.00117331
0.00077646
0.000547746
0.00041949
0.000323964
0.000185127
0.0067054
0.00670288
0.00668782
0.00656281
0.00614207
0.00536872
0.00438178
0.00335759
0.00242838
0.00166846
0.00110977
0.000746668
0.000537629
0.000418268
0.000324805
0.000186935
0.00670554
0.00670167
0.00669634
0.00665648
0.00644672
0.00593369
0.00512126
0.00414911
0.0031689
0.00229031
0.00157797
0.00105803
0.000722929
0.000530359
0.000417379
0.000325855
0.000188592
0.00670562
0.00670122
0.00669708
0.00668486
0.00660479
0.00632166
0.00573754
0.00490416
0.00395128
0.00300966
0.00217496
0.00150279
0.00101599
0.000704441
0.000524622
0.000417256
0.000326785
0.000190001
0.00670563
0.00670113
0.00669668
0.00669163
0.00666366
0.00654114
0.00618823
0.00555703
0.00471462
0.00378169
0.00287496
0.00207791
0.00144044
0.000981902
0.000689526
0.000520756
0.000417177
0.000327864
0.000191429
0.00670562
0.00670115
0.00669639
0.00669271
0.00668225
0.00663446
0.00646775
0.00605792
0.00539386
0.00454875
0.0036363
0.00276043
0.00199643
0.00138886
0.000953985
0.000678163
0.000517625
0.000417695
0.000328838
0.00019254
0.0067056
0.00670119
0.00669625
0.00669267
0.00668724
0.00666907
0.00659798
0.00638935
0.00593488
0.00524702
0.00440424
0.00351132
0.00266332
0.00192821
0.0013462
0.000931692
0.000668988
0.000515889
0.000418093
0.000329903
0.000193866
0.00670559
0.00670122
0.00669618
0.00669257
0.00668816
0.00668076
0.00665138
0.00655607
0.00631093
0.00581976
0.0051164
0.0042783
0.00340443
0.00258127
0.0018714
0.00131143
0.000913695
0.000662412
0.000514416
0.000418998
0.00033093
0.000194747
0.00670558
0.00670124
0.00669614
0.00669254
0.00668812
0.0066842
0.00667166
0.00663032
0.00651126
0.00623305
0.0057146
0.00500048
0.00416958
0.00331341
0.00251262
0.0018247
0.00128327
0.000899837
0.000657163
0.000514106
0.000419704
0.000331959
0.000196061
0.00670558
0.00670124
0.00669611
0.00669254
0.00668797
0.00668503
0.00667849
0.00666141
0.00660607
0.00646503
0.0061601
0.00561908
0.00489934
0.00407622
0.00323694
0.00245584
0.00178684
0.00126117
0.000889153
0.000654034
0.000513755
0.000420868
0.000333099
0.000196774
0.00670558
0.00670124
0.0066961
0.00669253
0.00668785
0.00668516
0.00668042
0.00667332
0.00664842
0.00658061
0.00641931
0.00609196
0.00553469
0.0048114
0.00399735
0.0031734
0.00241004
0.00175729
0.00124441
0.000881662
0.000651564
0.000514463
0.000421773
0.000334005
0.000198089
0.00670558
0.00670123
0.00669609
0.00669253
0.00668779
0.00668514
0.00668079
0.00667747
0.00666575
0.00663544
0.00655395
0.00637573
0.00603034
0.00545975
0.00473689
0.00393201
0.00312273
0.00237428
0.00173481
0.00123212
0.00087649
0.000651059
0.000514911
0.000423188
0.000335443
0.000198777
0.00670559
0.00670123
0.00669609
0.00669251
0.00668775
0.00668509
0.00668076
0.00667874
0.00667216
0.00665964
0.00662041
0.00652844
0.00633534
0.00597439
0.00539716
0.00467556
0.00387976
0.00308233
0.00234715
0.00171931
0.00122492
0.000874282
0.000650714
0.000516428
0.000424121
0.0003362
5.3352e-05
0.0067056
0.00670122
0.00669609
0.00669249
0.00668773
0.00668505
0.00668067
0.00667903
0.00667423
0.00666955
0.00665079
0.00660731
0.0065042
0.00629927
0.00592913
0.00534394
0.00462497
0.00383846
0.00305465
0.00233092
0.00171135
0.00122159
0.000873608
0.000652322
0.00051755
0.000426554
0.000283598
6.33107e-05
0.0067056
0.00670121
0.0066961
0.00669247
0.00668772
0.006685
0.0066806
0.00667902
0.00667477
0.00667325
0.00666363
0.00664551
0.00659324
0.00648276
0.00626831
0.00588711
0.00530308
0.00459164
0.0038151
0.00303872
0.00232199
0.00170808
0.00122105
0.000875431
0.000653961
0.000519652
0.000420072
0.000219471
7.068e-05
0.00670561
0.0067012
0.0066961
0.00669246
0.00668772
0.00668496
0.00668056
0.00667894
0.00667482
0.00667443
0.00666862
0.00666278
0.00663699
0.00658371
0.00646624
0.0062417
0.00586417
0.00527901
0.00456945
0.00379829
0.00302958
0.00231912
0.00170944
0.00122478
0.000878525
0.00065633
0.000520888
0.000400204
0.000178035
7.61143e-05
0.00670561
0.00670119
0.00669611
0.00669244
0.00668772
0.00668493
0.00668054
0.00667885
0.00667476
0.00667466
0.00667036
0.00666998
0.00665715
0.00663601
0.00657433
0.00645132
0.00623319
0.00584759
0.00526098
0.00455534
0.00379092
0.00302915
0.00232378
0.00171691
0.00123136
0.000883244
0.000659675
0.000518779
0.000367439
0.000152554
8.05142e-05
0.00670562
0.00670118
0.00669611
0.00669242
0.00668773
0.00668489
0.00668052
0.00667877
0.0066747
0.00667459
0.00667082
0.00667263
0.00666592
0.00666125
0.00662997
0.00657304
0.00645039
0.0062263
0.00583757
0.00525263
0.00455421
0.00379678
0.00303999
0.00233655
0.00172908
0.00124095
0.000889611
0.000662756
0.000512807
0.000336258
0.000134218
8.3903e-05
0.00670563
0.00670117
0.00669612
0.00669241
0.00668773
0.00668486
0.00668051
0.0066787
0.00667464
0.00667446
0.00667088
0.00667335
0.00666945
0.00667243
0.00665733
0.00663909
0.00657611
0.00645333
0.0062252
0.0058401
0.00526136
0.00456774
0.00381472
0.00305999
0.00235603
0.00174575
0.00125338
0.000897134
0.000665583
0.000501486
0.00030617
0.000121256
8.63079e-05
0.00670563
0.00670116
0.00669613
0.00669239
0.00668774
0.00668484
0.0066805
0.00667864
0.0066746
0.00667432
0.00667083
0.0066734
0.00667065
0.00667692
0.00667044
0.0066726
0.00664487
0.0065849
0.00646232
0.00623922
0.00585864
0.00528353
0.00459422
0.00384365
0.00308883
0.00238207
0.00176646
0.00126841
0.000905802
0.000666905
0.000486245
0.000280117
0.00011276
8.80871e-05
0.00670564
0.00670115
0.00669613
0.00669238
0.00668774
0.00668481
0.0066805
0.00667858
0.00667456
0.0066742
0.00667075
0.00667325
0.00667096
0.00667838
0.00667625
0.00668821
0.00668025
0.00665765
0.0066027
0.006485
0.00626695
0.0058909
0.00531993
0.00463342
0.00388358
0.00312632
0.00241414
0.00179114
0.00128576
0.000915231
0.000667152
0.00046944
0.000260352
0.000106989
8.94668e-05
0.00670115
0.00670565
0.00669614
0.00669236
0.00668775
0.00668479
0.0066805
0.00667853
0.00667452
0.00667409
0.00667066
0.00667306
0.00667098
0.00667868
0.00667846
0.00669523
0.00669739
0.00669578
0.0066817
0.00663211
0.00652064
0.00630866
0.00593832
0.00537055
0.00468567
0.00393416
0.00317202
0.00245222
0.00181937
0.00130527
0.000926359
0.000666251
0.000454567
0.000245162
0.000102941
9.05872e-05
0.00669615
0.00670115
0.00670567
0.00669235
0.00668776
0.00668477
0.0066805
0.00667849
0.0066745
0.00667399
0.00667059
0.00667288
0.00667089
0.00667858
0.00667919
0.00669799
0.00670526
0.00671485
0.00672412
0.00671596
0.00667435
0.00657073
0.00636628
0.00600099
0.00543598
0.00475059
0.00399534
0.00322586
0.00249565
0.00185106
0.00132945
0.00093982
0.00066493
0.000441769
0.000233382
0.000100059
9.15364e-05
0.00669234
0.00669618
0.00670117
0.00670568
0.00668777
0.00668475
0.0066805
0.00667845
0.00667448
0.00667391
0.00667052
0.00667271
0.00667079
0.00667837
0.00667937
0.00669894
0.00670855
0.00672395
0.00674605
0.00676198
0.00676342
0.00673115
0.00663715
0.00644079
0.00608068
0.00551666
0.00482863
0.0040667
0.00328704
0.00254447
0.00188971
0.00135832
0.000953997
0.000664008
0.000431309
0.000224066
9.79539e-05
9.23666e-05
0.00668778
0.00669236
0.00669624
0.00670119
0.0067057
0.00668473
0.0066805
0.00667841
0.00667446
0.00667384
0.00667046
0.00667257
0.00667068
0.00667813
0.00667936
0.00669918
0.00670982
0.006728
0.00675698
0.00678664
0.0068135
0.00682561
0.00680474
0.0067208
0.00653336
0.00617711
0.00561288
0.00491885
0.00414778
0.00335566
0.00260386
0.00193734
0.00138871
0.000969008
0.000663844
0.000422537
0.000216604
9.64206e-05
9.3113e-05
0.00668471
0.00668782
0.00669241
0.0066963
0.00670121
0.00670572
0.00668051
0.00667838
0.00667445
0.00667378
0.0066704
0.00667245
0.00667057
0.0066779
0.00667928
0.00669917
0.00671029
0.00672979
0.00676225
0.00679968
0.00684113
0.00687954
0.00690463
0.0068958
0.00682334
0.00664379
0.00629078
0.00572459
0.00502218
0.00423837
0.00343892
0.00267651
0.00198882
0.00142057
0.000984655
0.000664496
0.000415414
0.000210525
9.52707e-05
9.37933e-05
0.00668051
0.00668474
0.00668792
0.00669247
0.00669636
0.00670123
0.00670574
0.00667834
0.00667445
0.00667372
0.00667036
0.00667235
0.00667047
0.00667771
0.00667919
0.00669906
0.00671044
0.00673065
0.0067649
0.00680665
0.00685722
0.00691173
0.00696506
0.00700277
0.00700583
0.0069437
0.0067723
0.00642111
0.00585072
0.00513738
0.00434851
0.00354075
0.00275471
0.00204332
0.00145366
0.00100118
0.000666312
0.000409579
0.000205495
9.44279e-05
9.44237e-05
0.00667831
0.00668057
0.00668481
0.00668802
0.00669252
0.00669643
0.00670124
0.00670577
0.00667444
0.00667366
0.00667033
0.00667226
0.00667038
0.00667754
0.00667911
0.00669892
0.00671047
0.00673111
0.00676643
0.00681062
0.00686661
0.0069313
0.00700259
0.00707089
0.00712427
0.00713833
0.00708371
0.00691751
0.00656668
0.00598979
0.00527862
0.00448377
0.00365008
0.00283756
0.0021004
0.00148769
0.00101802
0.000669232
0.000404829
0.000201223
9.37815e-05
9.50084e-05
0.00667445
0.00667833
0.00668069
0.00668488
0.00668812
0.00669257
0.0066965
0.00670126
0.00670579
0.00667361
0.0066703
0.00667219
0.00667029
0.00667741
0.00667902
0.00669879
0.00671045
0.0067314
0.00676744
0.00681326
0.00687267
0.00694381
0.00702726
0.00711507
0.00720124
0.00726861
0.00729555
0.00724655
0.00707919
0.00672626
0.00615815
0.00544861
0.0046297
0.0037666
0.00292415
0.00215945
0.00152255
0.00103489
0.000672592
0.000401051
0.000197626
9.33147e-05
9.55574e-05
0.00667356
0.00667451
0.0066784
0.00668081
0.00668495
0.00668823
0.00669263
0.00669657
0.00670128
0.00670581
0.00667029
0.00667212
0.00667021
0.00667732
0.00667893
0.00669866
0.00671042
0.00673162
0.0067682
0.00681527
0.00687712
0.00695263
0.00704468
0.00714634
0.00725442
0.00735671
0.00743941
0.00747601
0.00743286
0.00726178
0.00691547
0.00635734
0.00562892
0.00478318
0.00388843
0.00301365
0.0022199
0.00155821
0.00105167
0.00067665
0.000398102
0.000194501
9.29502e-05
9.60688e-05
0.00667028
0.00667356
0.00667462
0.00667847
0.00668094
0.00668503
0.00668834
0.00669268
0.00669664
0.0067013
0.00670583
0.00667205
0.00667015
0.00667725
0.00667883
0.00669855
0.00671039
0.00673179
0.00676883
0.00681693
0.0068807
0.00695962
0.00705811
0.00717017
0.00729508
0.00742139
0.00754191
0.00763653
0.00768148
0.00764034
0.00748758
0.00714888
0.00656674
0.00581611
0.00494103
0.00401321
0.00310514
0.00228122
0.00159425
0.00106848
0.000681189
0.000395721
0.000191833
9.26987e-05
9.65517e-05
0.00667198
0.00667031
0.00667359
0.00667475
0.00667855
0.00668108
0.0066851
0.00668845
0.00669274
0.00669671
0.00670133
0.00670585
0.0066701
0.0066772
0.00667871
0.00669846
0.00671037
0.00673195
0.00676937
0.00681839
0.00688374
0.00696561
0.00706936
0.00718956
0.00732851
0.00747429
0.00762198
0.00775671
0.00786254
0.00791194
0.00789452
0.00776311
0.00740315
0.00678468
0.00600558
0.00510119
0.00413992
0.00319757
0.0023429
0.00163039
0.0010851
0.000686159
0.000393952
0.000189478
9.24988e-05
9.70008e-05
0.00667007
0.0066719
0.00667037
0.00667363
0.00667489
0.00667862
0.00668122
0.00668518
0.00668857
0.0066928
0.00669678
0.00670135
0.00670588
0.00667716
0.00667857
0.0066984
0.00671037
0.0067321
0.00676985
0.0068197
0.00688641
0.00697094
0.0070792
0.00720641
0.00735735
0.00752031
0.00769161
0.00785613
0.0080053
0.0081178
0.00819622
0.0082067
0.00806013
0.00767383
0.00701493
0.00619723
0.00526196
0.00426651
0.00329007
0.00240444
0.00166633
0.00110168
0.000691105
0.000392616
0.000187454
9.23753e-05
9.7426e-05
0.00667713
0.00666996
0.00667181
0.00667043
0.00667367
0.00667504
0.0066787
0.00668137
0.00668526
0.00668869
0.00669286
0.00669686
0.00670137
0.0067059
0.00667842
0.00669839
0.00671039
0.00673225
0.00677028
0.00682087
0.00688879
0.00697577
0.00708801
0.00722163
0.00738334
0.00756127
0.00775525
0.00794742
0.00813018
0.00828833
0.00843535
0.00854852
0.00854627
0.00837552
0.00795481
0.00725342
0.00638877
0.00542009
0.00439172
0.00338168
0.00246539
0.00170185
0.00111822
0.00069601
0.00039165
0.000185639
9.22749e-05
9.78198e-05
0.00667826
0.00667692
0.00666974
0.00667172
0.00667052
0.0066737
0.0066752
0.00667877
0.00668152
0.00668534
0.00668881
0.00669292
0.00669694
0.0067014
0.00670592
0.00669844
0.00671042
0.00673239
0.00677067
0.00682192
0.00689094
0.00698018
0.00709596
0.00723564
0.00740719
0.00759876
0.00781409
0.00803468
0.00825035
0.00844481
0.00864415
0.0088337
0.00893599
0.00891013
0.00870605
0.00824342
0.00749714
0.00658398
0.0055753
0.00451453
0.00347187
0.00252535
0.00173677
0.00113451
0.000700872
0.00039094
0.000184073
9.22293e-05
9.81935e-05
0.00669857
0.00667755
0.00667657
0.00666955
0.00667161
0.00667064
0.00667373
0.00667537
0.00667885
0.00668168
0.00668543
0.00668894
0.00669299
0.00669701
0.00670143
0.00670594
0.00671044
0.0067325
0.006771
0.00682287
0.00689289
0.0069842
0.00710318
0.00724862
0.00742915
0.00763365
0.00786967
0.00811747
0.00836864
0.00860161
0.00884615
0.0090975
0.00927809
0.00935668
0.00929591
0.0090491
0.00853731
0.00774125
0.00678007
0.00572757
0.00463457
0.00355993
0.00258398
0.00177092
0.00115051
0.000705665
0.00039046
0.000182646
9.21899e-05
9.85377e-05
0.00671044
0.0066981
0.00667624
0.00667618
0.00666942
0.00667149
0.00667078
0.00667375
0.00667556
0.00667893
0.00668185
0.00668552
0.00668906
0.00669306
0.00669708
0.00670145
0.00670595
0.00673259
0.00677127
0.00682373
0.00689466
0.00698788
0.00710977
0.00726063
0.00744936
0.00766642
0.00792251
0.00819619
0.0084828
0.0087621
0.0090586
0.00936651
0.00961204
0.00976968
0.00981107
0.00970286
0.00940297
0.00883447
0.00798426
0.00697487
0.00587547
0.0047504
0.00364529
0.00264099
0.00180415
0.00116614
0.000710373
0.000390132
0.000181412
9.2192e-05
9.88652e-05
0.00673268
0.00670941
0.00669698
0.00667523
0.0066757
0.00666937
0.00667134
0.00667096
0.00667377
0.00667575
0.00667901
0.00668201
0.00668561
0.00668918
0.00669313
0.00669715
0.00670148
0.00670597
0.0067715
0.0068245
0.00689629
0.00699122
0.0071158
0.00727172
0.00746794
0.00769728
0.00797247
0.00827098
0.00859392
0.00892364
0.0092837
0.00966018
0.00997043
0.0101983
0.0103175
0.0103041
0.0101324
0.00976703
0.00913354
0.00822495
0.00716714
0.00602069
0.00486168
0.00372761
0.00269614
0.00183636
0.00118133
0.000714975
0.00038995
0.000180271
9.21902e-05
9.91652e-05
0.0067717
0.00673105
0.00670721
0.00669537
0.00667456
0.00667509
0.00666943
0.00667115
0.00667116
0.00667379
0.00667596
0.0066791
0.00668218
0.00668571
0.0066893
0.0066932
0.00669721
0.00670151
0.00670598
0.00682521
0.00689778
0.00699428
0.00712131
0.00728191
0.00748505
0.00772628
0.00801928
0.00834213
0.00870312
0.00908577
0.0095108
0.00997953
0.010386
0.010695
0.0108861
0.0109391
0.0108439
0.0105869
0.0101413
0.00943362
0.00846244
0.00735483
0.00616302
0.00496851
0.00380667
0.00274927
0.00186744
0.00119603
0.000719455
0.000389858
0.000179287
9.22209e-05
9.94513e-05
0.00682591
0.00676895
0.00672756
0.00670502
0.00669344
0.00667425
0.00667434
0.00666958
0.00667095
0.00667139
0.00667381
0.00667616
0.00667921
0.00668234
0.00668581
0.00668941
0.00669327
0.00669727
0.00670154
0.006706
0.00689914
0.00699705
0.00712636
0.00729124
0.00750079
0.00775338
0.00806288
0.00841008
0.00881027
0.00924578
0.00973483
0.010319
0.0108844
0.0113302
0.0116047
0.0117098
0.01165
0.0114359
0.0110679
0.0105254
0.00973394
0.00869598
0.00753707
0.00630153
0.00507091
0.00388236
0.00280026
0.00189734
0.0012102
0.000723799
0.000389867
0.000178365
9.22428e-05
9.968e-05
0.00690044
0.00682246
0.00676298
0.0067242
0.00670288
0.00669112
0.00667426
0.00667348
0.00666979
0.00667075
0.00667162
0.00667386
0.00667636
0.00667932
0.00668249
0.00668592
0.00668951
0.00669334
0.00669733
0.00670157
0.00670601
0.00699957
0.00713096
0.00729977
0.00751526
0.00777854
0.00810336
0.00847504
0.00891403
0.00940048
0.00995739
0.0106938
0.0114822
0.0121591
0.0125761
0.0127295
0.0126755
0.0124484
0.0120775
0.0115732
0.0109181
0.0100336
0.00892493
0.00771356
0.00643561
0.00516887
0.00395463
0.00284904
0.00192601
0.00122382
0.000727992
0.000389897
0.000177583
9.22821e-05
9.98721e-05
0.0070019
0.00689556
0.00681445
0.00675706
0.00672105
0.00670107
0.00668834
0.00667452
0.00667256
0.00667004
0.00667056
0.00667185
0.00667392
0.00667655
0.00667944
0.00668264
0.00668602
0.00668961
0.00669341
0.00669738
0.0067016
0.00670602
0.00713513
0.00730752
0.00752853
0.00780176
0.00814091
0.00853689
0.00901283
0.00954878
0.0101857
0.0111208
0.012188
0.0131539
0.0138134
0.0140753
0.0140165
0.0137438
0.01331
0.0127555
0.0120963
0.0113163
0.0103314
0.0091487
0.00788408
0.00656482
0.0052624
0.00402345
0.00289558
0.00195341
0.00123687
0.000732042
0.000389958
0.000176942
9.23106e-05
0.000100079
0.00713897
0.00699527
0.00688379
0.00680647
0.00675142
0.00671807
0.00669982
0.00668535
0.00667489
0.00667167
0.00667028
0.00667042
0.00667205
0.00667402
0.00667672
0.00667957
0.00668277
0.00668613
0.0066897
0.00669348
0.00669743
0.00670163
0.00670603
0.00731454
0.00754067
0.00782309
0.00817572
0.00859529
0.00910565
0.00969189
0.010427
0.0116005
0.0129711
0.0142312
0.0151543
0.0156367
0.0156623
0.0153543
0.0148455
0.0141953
0.0134493
0.0126275
0.0117158
0.0106257
0.0093667
0.00804844
0.00668892
0.00535156
0.0040889
0.00293986
0.00197954
0.00124934
0.000735952
0.00039003
0.000176427
9.23552e-05
0.000100304
0.00732091
0.00713002
0.00697846
0.00687202
0.0067987
0.00674601
0.00671524
0.0066988
0.00668236
0.00667524
0.00667088
0.00667046
0.00667036
0.00667222
0.00667414
0.00667687
0.0066797
0.00668289
0.00668624
0.00668979
0.00669354
0.00669748
0.00670166
0.00670604
0.00755172
0.00784258
0.0082079
0.00864986
0.00919232
0.00983193
0.0106831
0.0121149
0.0137728
0.0152835
0.0164286
0.0171329
0.0173762
0.0171674
0.0166324
0.0159112
0.0150629
0.014136
0.0131555
0.0121118
0.0109147
0.00957833
0.00820647
0.00680775
0.0054363
0.00415088
0.00298188
0.00200441
0.00126122
0.000739201
0.000390108
0.000175879
9.23999e-05
0.000100547
0.00756172
0.00730933
0.00710633
0.00696162
0.00686054
0.00679105
0.0067408
0.00671259
0.00669786
0.00667957
0.00667544
0.00667026
0.00667056
0.00667036
0.00667236
0.00667427
0.00667701
0.00667984
0.00668301
0.00668634
0.00668988
0.00669361
0.00669753
0.00670167
0.00670604
0.00786034
0.00823753
0.0087004
0.00927331
0.00997038
0.0109499
0.0126371
0.0145358
0.0162268
0.0175233
0.0183941
0.0188464
0.0188774
0.0184861
0.0177782
0.0168907
0.0158799
0.0147957
0.0136696
0.0124992
0.0111965
0.00978298
0.00835808
0.00692127
0.00551703
0.00420937
0.00302167
0.00202801
0.00127104
0.000741994
0.000390203
0.000175309
9.24657e-05
0.000100812
0.00787626
0.00754666
0.00727657
0.00708259
0.00694515
0.00684931
0.00678348
0.00673592
0.00671005
0.0066969
0.00667722
0.00667534
0.00666988
0.00667056
0.00667044
0.00667246
0.00667442
0.00667714
0.00667997
0.00668313
0.00668645
0.00668996
0.00669368
0.00669756
0.00670167
0.00670604
0.00826473
0.0087469
0.0093493
0.0101074
0.0112193
0.0131414
0.0152212
0.0170191
0.0183942
0.0193627
0.019964
0.020212
0.0200909
0.0195802
0.0187593
0.0177569
0.0166249
0.0154137
0.0141607
0.0128734
0.0114693
0.00998013
0.00850317
0.00702931
0.00559409
0.00426455
0.00305928
0.00204742
0.0012794
0.000745071
0.000390333
0.000174708
9.25306e-05
0.0001011
0.00828909
0.00785741
0.00750174
0.00724369
0.00705937
0.00692906
0.00683829
0.00677594
0.00673139
0.0067075
0.00669574
0.00667576
0.0066749
0.00666972
0.00667048
0.00667057
0.00667255
0.00667458
0.00667727
0.00668011
0.00668324
0.00668655
0.00669004
0.00669371
0.00669756
0.00670167
0.00670604
0.00878956
0.00942092
0.0102417
0.0114822
0.0136095
0.0158114
0.0176535
0.0190465
0.0200507
0.0207355
0.0211346
0.0212432
0.0210287
0.0204537
0.019572
0.0185015
0.017288
0.0159809
0.0146225
0.0132308
0.0117315
0.0101693
0.00864166
0.00713183
0.00566745
0.00431657
0.00309009
0.00206391
0.00128859
0.000748498
0.000390489
0.000174079
9.26233e-05
0.000101414
0.00882749
0.00826536
0.0077966
0.00745668
0.00721147
0.00703667
0.00691332
0.0068275
0.00676847
0.00672702
0.00670488
0.00669366
0.00667503
0.00667418
0.00666973
0.00667036
0.00667072
0.00667264
0.00667474
0.00667739
0.00668024
0.00668334
0.00668665
0.00669008
0.00669371
0.00669756
0.00670167
0.00670604
0.00948858
0.0103717
0.0117314
0.0140316
0.0163046
0.0181436
0.0195099
0.020502
0.0212144
0.0216994
0.021966
0.0219906
0.0217284
0.0211307
0.0202287
0.0191282
0.0178677
0.0164933
0.0150511
0.0135688
0.011982
0.01035
0.00877356
0.00722897
0.0057371
0.00435913
0.0031162
0.00208199
0.00129871
0.000752273
0.000390691
0.000173418
9.27154e-05
0.000101752
0.00955012
0.00879822
0.00818315
0.00773554
0.00741245
0.00717994
0.00701448
0.00689793
0.00681696
0.00676115
0.0067228
0.00670233
0.00669096
0.00667487
0.00667333
0.00666984
0.00667023
0.00667088
0.00667272
0.0066749
0.00667751
0.00668037
0.00668345
0.0066867
0.00669008
0.00669371
0.00669756
0.00670167
0.00670604
0.0104956
0.011965
0.0144047
0.0167082
0.0185112
0.0198214
0.0207678
0.0214655
0.0219828
0.0223419
0.0225299
0.0225105
0.0222328
0.0216416
0.0207488
0.0196473
0.0183675
0.0169507
0.0154448
0.0138856
0.0122197
0.0105221
0.00889888
0.00732088
0.00579437
0.00439516
0.00314474
0.00210182
0.00130987
0.000756502
0.000390933
0.000172727
9.28447e-05
0.000102123
0.010607
0.00951344
0.0086866
0.00810073
0.0076755
0.00736912
0.00714909
0.00699281
0.00688295
0.0068068
0.00675389
0.00671894
0.00670007
0.00668774
0.00667502
0.00667246
0.00666999
0.00667012
0.00667104
0.00667281
0.00667505
0.00667762
0.0066805
0.0066835
0.0066867
0.00669008
0.00669371
0.00669756
0.00670167
0.00670603
0.0121841
0.0147284
0.0170337
0.0187801
0.0200162
0.0208953
0.0215485
0.0220573
0.0224564
0.0227433
0.0228898
0.0228533
0.0225816
0.0220166
0.0211534
0.0200721
0.0187943
0.0173555
0.0158033
0.0141805
0.0124442
0.0106854
0.00901767
0.00739627
0.00584302
0.00443453
0.00317597
0.00212361
0.00132218
0.000761156
0.000391234
0.000172005
9.29751e-05
0.000102521
0.0105655
0.012379
0.00935115
0.00857637
0.0080195
0.00761662
0.00732668
0.00711894
0.00697169
0.00686844
0.00679719
0.00674701
0.00671536
0.00669862
0.00668453
0.00667525
0.00667168
0.00667012
0.00667005
0.00667119
0.0066729
0.00667519
0.00667774
0.00668057
0.00668349
0.0066867
0.00669008
0.00669371
0.00669756
0.00670166
0.00670602
0.0150038
0.0172938
0.0189714
0.020124
0.0209235
0.0215124
0.0219831
0.0223817
0.0227163
0.0229666
0.0230958
0.02306
0.0228088
0.0222826
0.0214625
0.0204161
0.019156
0.0177112
0.0161277
0.0144535
0.0126552
0.0108398
0.0091152
0.00746023
0.00589635
0.0044776
0.00321017
0.00214756
0.00133578
0.000766363
0.000391594
0.000171252
9.31554e-05
0.000102957
0.0103173
0.0123396
0.0152281
0.00919536
0.00846813
0.00793965
0.00755889
0.00728516
0.00708953
0.00695117
0.00685445
0.00678795
0.00674053
0.0067121
0.00669746
0.00668159
0.00667541
0.00667105
0.00667021
0.00667001
0.00667132
0.006673
0.00667533
0.00667779
0.00668057
0.00668349
0.0066867
0.00669008
0.00669371
0.00669753
0.00670163
0.00670601
0.0175002
0.0191036
0.020169
0.0208825
0.021395
0.0218071
0.0221747
0.0225167
0.0228218
0.0230584
0.0231861
0.0231629
0.0229417
0.0224625
0.0216939
0.0206921
0.0194609
0.0180225
0.01642
0.0147051
0.0128526
0.0109662
0.00919798
0.00753023
0.00595484
0.00452474
0.00324765
0.00217392
0.00135082
0.000772202
0.000392034
0.000170468
9.33402e-05
0.000103423
0.0100736
0.011986
0.0151618
0.0176537
0.00904704
0.00836141
0.00786131
0.00750235
0.00724461
0.00706092
0.00693132
0.00684098
0.00677905
0.00673451
0.00670924
0.00669641
0.00667911
0.00667538
0.00667058
0.00667024
0.00667003
0.00667144
0.00667311
0.00667541
0.00667779
0.00668057
0.00668349
0.0066867
0.00669008
0.00669368
0.00669748
0.0067016
0.00670599
0.019191
0.0201694
0.020795
0.0212245
0.0215643
0.0218784
0.0221962
0.0225168
0.0228149
0.0230522
0.0231888
0.0231868
0.0230023
0.0225752
0.0218631
0.0209117
0.0197169
0.018294
0.0166825
0.014936
0.0130125
0.0110732
0.0092886
0.00760691
0.00601906
0.00457642
0.00328878
0.00220296
0.00136749
0.000778701
0.000392558
0.000169654
9.35924e-05
0.000103933
0.00984509
0.0116033
0.0148076
0.0175545
0.019236
0.0089037
0.00825614
0.00778457
0.00744707
0.00720513
0.00703317
0.00691214
0.00682806
0.00677064
0.00672918
0.00670661
0.00669532
0.00667735
0.00667512
0.00667029
0.00667022
0.00667007
0.00667155
0.00667317
0.00667541
0.00667778
0.00668057
0.00668349
0.0066867
0.00669004
0.00669361
0.00669743
0.00670157
0.00670598
0.020139
0.020678
0.0210217
0.0212809
0.0215256
0.0217944
0.0220978
0.0224195
0.0227245
0.0229719
0.023125
0.0231507
0.0230081
0.022636
0.0219827
0.0210848
0.0199312
0.0185303
0.0169176
0.0151192
0.0131469
0.0111899
0.00938783
0.00769099
0.00608963
0.00463314
0.00333396
0.00223499
0.00138599
0.000785962
0.00039319
0.000168814
9.38561e-05
0.000104472
0.00963116
0.0112261
0.0143664
0.0173244
0.0190843
0.020078
0.00876363
0.00815257
0.00770958
0.00739316
0.0071668
0.00700634
0.00689377
0.00681598
0.00676284
0.00672459
0.00670411
0.00669377
0.00667632
0.00667466
0.00667015
0.00667016
0.00667016
0.00667159
0.00667316
0.00667541
0.00667778
0.00668057
0.0066835
0.00668664
0.00668996
0.00669354
0.00669738
0.00670154
0.00670597
0.0205433
0.0208016
0.0209759
0.0211404
0.0213413
0.0216004
0.0219128
0.0222499
0.0225703
0.0228343
0.0230104
0.0230696
0.0229725
0.0226569
0.0220631
0.0212199
0.0201101
0.0187358
0.0170997
0.0152714
0.0132922
0.0113172
0.00949656
0.00778326
0.00616725
0.00469545
0.00338364
0.00227036
0.00140654
0.000794106
0.000393943
0.000167943
9.42114e-05
0.000105063
0.00942877
0.0108677
0.0138786
0.0170079
0.0189276
0.0198717
0.0203866
0.00862624
0.00805104
0.00763649
0.00734076
0.00712972
0.00698065
0.00687668
0.00680492
0.00675553
0.0067205
0.00670176
0.00669164
0.00667584
0.00667405
0.00667012
0.00667009
0.00667022
0.00667157
0.00667316
0.00667541
0.00667779
0.00668057
0.00668345
0.00668654
0.00668988
0.00669347
0.00669732
0.00670151
0.00670595
0.0205747
0.020663
0.0207409
0.0208603
0.0210533
0.0213273
0.0216638
0.0220246
0.0223658
0.022652
0.0228571
0.022955
0.0229065
0.0226479
0.022113
0.0213242
0.0202593
0.0188902
0.0172488
0.0154337
0.0134491
0.011456
0.00961569
0.00788458
0.0062527
0.00476401
0.00343834
0.00230947
0.00142941
0.000803236
0.000394837
0.000167037
9.45901e-05
0.000105679
0.00923548
0.010532
0.0133655
0.0166298
0.0187008
0.0197485
0.0201256
0.020331
0.00849163
0.00795186
0.00756551
0.00729002
0.00709424
0.00695676
0.00686109
0.00679482
0.00674878
0.0067169
0.00669974
0.00668905
0.00667569
0.00667337
0.00667016
0.00666998
0.00667025
0.00667156
0.00667316
0.00667541
0.00667779
0.0066805
0.00668334
0.00668644
0.00668979
0.0066934
0.00669727
0.00670148
0.00670594
0.0203521
0.0203406
0.0203694
0.0204792
0.0206899
0.0209957
0.0213653
0.0217542
0.0221203
0.0224341
0.0226744
0.022816
0.0228184
0.0226166
0.022139
0.0214035
0.020366
0.0190145
0.0174051
0.0156061
0.0136183
0.0116072
0.00974623
0.00799594
0.00634686
0.00483956
0.00349866
0.00235276
0.00145489
0.000813505
0.00039591
0.000166073
9.50894e-05
0.00010647
0.00904967
0.0102206
0.0128379
0.0162019
0.0184303
0.0195682
0.0200053
0.0200149
0.020027
0.00836012
0.00785541
0.00749684
0.00724144
0.00706129
0.00693502
0.00684689
0.00678571
0.00674256
0.00671378
0.0066984
0.0066864
0.00667572
0.0066727
0.0066703
0.00666988
0.00667027
0.00667156
0.00667316
0.00667541
0.00667774
0.00668037
0.00668323
0.00668634
0.0066897
0.00669334
0.00669721
0.00670145
0.00670592
0.019949
0.0198822
0.0198968
0.0200236
0.0202712
0.0206189
0.0210261
0.0214456
0.0218405
0.0221881
0.0224701
0.0226599
0.0227149
0.0225691
0.0221469
0.0214534
0.02045
0.0191419
0.0175679
0.0157886
0.0138
0.0117715
0.00988922
0.00811838
0.0064507
0.00492289
0.00356525
0.00240077
0.00148334
0.000825064
0.000397173
0.000165086
9.57411e-05
0.000107404
0.00887061
0.00993304
0.0123041
0.0157253
0.0181285
0.0193597
0.0198365
0.0198782
0.0196547
0.0195495
0.00823196
0.00776212
0.00743113
0.00719635
0.00703131
0.00691523
0.00683401
0.00677757
0.00673697
0.00671096
0.00669729
0.00668391
0.00667583
0.00667216
0.00667045
0.00666982
0.00667027
0.00667157
0.00667317
0.00667533
0.00667762
0.00668024
0.00668312
0.00668623
0.00668961
0.00669327
0.00669714
0.00670143
0.0067059
0.0194084
0.0193207
0.019348
0.019514
0.0198097
0.0202046
0.0206505
0.0211024
0.0215314
0.0219202
0.0222506
0.0224926
0.0226013
0.02251
0.0221397
0.0214903
0.0205329
0.0192714
0.0177367
0.0159809
0.0139947
0.01195
0.0100457
0.00825305
0.0065653
0.00501501
0.00363896
0.00245408
0.00151514
0.000838099