/*--------------------------------*- C++ -*----------------------------------*\
  =========                 |
  \\      /  F ield         | OpenFOAM: The Open Source CFD Toolbox
   \\    /   O peration     | Website:  https://openfoam.org
    \\  /    A nd           | Version:  8
     \\/     M anipulation  |
\*---------------------------------------------------------------------------*/
FoamFile
{
    version     2.0;
    format      ascii;
    class       surfaceScalarField;
    location    "0.05";
    object      phi;
}
// * * * * * * * * * * * * * * * * * * * * * * * * * * * * * * * * * * * * * //

dimensions      [1 0 -1 0 0 0 0];

internalField   nonuniform List<scalar> 
7725
(
-1.39988e-08
1.44e-08
-4.0599e-08
4.17819e-08
-2.62899e-08
3.89185e-08
-7.73715e-08
6.90186e-08
-7.00538e-08
8.36606e-08
-4.39323e-08
8.09442e-08
-1.24642e-07
1.00543e-07
-1.26826e-07
1.2378e-07
-1.11106e-07
1.48803e-07
-6.92391e-08
1.48127e-07
-1.83529e-07
1.38448e-07
-1.96609e-07
1.68179e-07
-1.94568e-07
2.05072e-07
-1.67672e-07
2.45044e-07
-9.4596e-08
2.40697e-07
-2.55348e-07
1.83828e-07
-2.80387e-07
2.19934e-07
-2.93766e-07
2.6506e-07
-2.86232e-07
3.2129e-07
-2.21135e-07
3.69422e-07
-1.08433e-07
3.47323e-07
-3.41498e-07
2.37608e-07
-3.79354e-07
2.80352e-07
-4.09477e-07
3.3317e-07
-4.23654e-07
3.99979e-07
-3.70363e-07
4.68207e-07
-2.51622e-07
5.10684e-07
-1.27125e-07
4.72832e-07
-4.43322e-07
3.00416e-07
-4.94703e-07
3.50353e-07
-5.42598e-07
4.10832e-07
-5.80212e-07
4.87051e-07
-5.40063e-07
5.67208e-07
-4.18446e-07
6.32969e-07
-2.90824e-07
6.7266e-07
-1.53104e-07
6.24489e-07
-5.61939e-07
3.725e-07
-6.27382e-07
4.30322e-07
-6.93795e-07
4.98732e-07
-7.55963e-07
5.83724e-07
-7.29063e-07
6.73409e-07
-6.04335e-07
7.50893e-07
-4.80026e-07
8.20329e-07
-3.69541e-07
8.87555e-07
-3.00286e-07
9.23478e-07
-6.982e-07
4.53695e-07
-7.77892e-07
5.20062e-07
-8.6314e-07
5.96665e-07
-9.50191e-07
6.8991e-07
-9.35092e-07
7.86931e-07
-8.04413e-07
8.7113e-07
-6.79704e-07
9.48602e-07
-5.87066e-07
1.03621e-06
-5.53413e-07
1.13931e-06
-4.83969e-07
1.4063e-06
-8.52337e-07
5.42934e-07
-9.46168e-07
6.18839e-07
-1.04991e-06
7.03638e-07
-1.16097e-06
8.04194e-07
-1.15436e-06
9.06164e-07
-1.01155e-06
9.91548e-07
-8.78141e-07
1.06746e-06
-7.75528e-07
1.13531e-06
-6.9798e-07
1.17932e-06
-5.16209e-07
1.17038e-06
1.4487e-06
-4.30779e-08
-1.0238e-06
6.38397e-07
-1.13107e-06
7.24516e-07
-1.25216e-06
8.17692e-07
-1.38501e-06
9.24216e-07
-1.38146e-06
1.02808e-06
-1.21783e-06
1.10976e-06
-1.06217e-06
1.17334e-06
-9.21278e-07
1.21135e-06
-7.42679e-07
1.17848e-06
-3.12457e-07
9.74352e-07
2.42626e-06
1.91979e-07
2.49954e-05
9.58744e-08
-1.2114e-06
7.37484e-07
-1.33093e-06
8.34734e-07
-1.46728e-06
9.36038e-07
-1.61784e-06
1.04684e-06
-1.6096e-06
1.14894e-06
-1.415e-06
1.2224e-06
-1.22082e-06
1.26602e-06
-1.02043e-06
1.27051e-06
-7.13806e-07
1.18086e-06
-1.44753e-09
8.66196e-07
3.22505e-06
1.7465e-07
2.49687e-05
2.18782e-07
2.51836e-05
4.31123e-08
-1.41325e-06
8.36965e-07
-1.54312e-06
9.45956e-07
-1.6915e-06
1.05513e-06
-1.85426e-06
1.16855e-06
-1.83204e-06
1.26564e-06
-1.59514e-06
1.32604e-06
-1.3495e-06
1.34853e-06
-1.07209e-06
1.31557e-06
-6.30052e-07
1.18504e-06
3.73317e-07
8.0475e-07
3.93373e-06
1.56585e-07
2.48289e-05
3.14615e-07
2.52484e-05
1.54177e-07
2.51324e-05
4.10835e-08
-1.62705e-06
9.33407e-07
-1.76472e-06
1.05462e-06
-1.92095e-06
1.17136e-06
-2.08891e-06
1.28564e-06
-2.04249e-06
1.37514e-06
-1.75172e-06
1.41898e-06
-1.44365e-06
1.41749e-06
-1.07877e-06
1.35298e-06
-4.9881e-07
1.18253e-06
7.85291e-07
7.7167e-07
4.5811e-06
1.5643e-07
2.45706e-05
4.1501e-07
2.52884e-05
2.74762e-07
2.51523e-05
1.34467e-07
2.51308e-05
3.99585e-08
-1.85046e-06
1.02348e-06
-1.99282e-06
1.15736e-06
-2.15196e-06
1.28136e-06
-2.31727e-06
1.39532e-06
-2.23625e-06
1.4753e-06
-1.88188e-06
1.50186e-06
-1.50136e-06
1.47383e-06
-1.04245e-06
1.37881e-06
-3.18851e-07
1.17112e-06
1.21768e-06
7.48693e-07
5.17129e-06
1.80514e-07
2.41966e-05
5.30441e-07
2.53008e-05
4.02855e-07
2.518e-05
2.47197e-07
2.51304e-05
1.3508e-07
2.51237e-05
4.53218e-08
1.10524e-06
-2.08142e-06
-2.22494e-06
1.25122e-06
-2.38152e-06
1.38241e-06
-2.53595e-06
1.4954e-06
-2.40989e-06
1.56464e-06
-1.98332e-06
1.5731e-06
-1.52302e-06
1.52049e-06
-9.6442e-07
1.39331e-06
-9.26572e-08
1.15063e-06
1.66399e-06
7.23307e-07
5.69649e-06
2.22509e-07
2.37098e-05
6.67261e-07
2.52854e-05
5.46012e-07
2.52035e-05
3.79569e-07
2.51254e-05
2.52396e-07
2.51066e-05
1.52377e-07
2.51179e-05
5.57458e-08
1.33496e-06
-2.45925e-06
1.6384e-06
-2.40507e-06
-2.6078e-06
1.47275e-06
-2.7429e-06
1.58446e-06
-2.56227e-06
1.64319e-06
-2.05577e-06
1.63324e-06
-1.50978e-06
1.55665e-06
-8.46131e-07
1.39957e-06
1.70584e-07
1.12798e-06
2.1069e-06
7.06152e-07
6.14908e-06
2.69711e-07
2.3108e-05
8.24265e-07
2.52458e-05
7.0701e-07
2.52162e-05
5.33536e-07
2.51122e-05
3.92955e-07
2.50747e-05
2.84427e-07
2.50815e-05
1.89011e-07
2.51021e-05
8.11705e-08
1.55144e-06
-2.82929e-06
1.94954e-06
-2.7771e-06
1.61354e-06
-2.71072e-06
-2.93715e-06
1.66184e-06
-2.69311e-06
1.71047e-06
-2.10018e-06
1.68354e-06
-1.46344e-06
1.58351e-06
-6.92197e-07
1.39995e-06
4.60651e-07
1.10732e-06
2.52954e-06
7.03719e-07
6.51799e-06
3.3621e-07
2.23876e-05
9.89836e-07
2.51787e-05
8.91523e-07
2.52126e-05
7.1083e-07
2.50878e-05
5.58074e-07
2.50258e-05
4.42103e-07
2.50161e-05
3.49963e-07
2.50307e-05
2.60602e-07
2.50881e-05
1.19211e-07
1.72703e-06
-3.11817e-06
2.22982e-06
-3.11683e-06
1.89948e-06
-3.06966e-06
1.56527e-06
-2.99761e-06
-2.80233e-06
1.76596e-06
-2.11741e-06
1.72341e-06
-1.38593e-06
1.60247e-06
-5.06736e-07
1.39514e-06
7.6911e-07
1.0892e-06
2.92846e-06
7.06728e-07
6.79697e-06
4.23659e-07
2.15466e-05
1.17699e-06
2.50681e-05
1.1007e-06
2.51899e-05
9.14492e-07
2.50501e-05
7.48772e-07
2.49584e-05
6.25658e-07
2.49217e-05
5.36689e-07
2.49139e-05
4.66987e-07
2.49321e-05
4.1682e-07
2.4836e-05
4.07653e-07
1.80965e-06
-2.8903e-06
2.43816e-06
-3.33439e-06
2.14645e-06
-3.37099e-06
1.82658e-06
-3.33751e-06
1.49996e-06
-3.26459e-06
-2.10877e-06
1.75282e-06
-1.27978e-06
1.61352e-06
-2.95457e-07
1.38813e-06
1.08654e-06
1.07532e-06
3.29955e-06
7.16362e-07
6.98638e-06
5.16213e-07
2.05814e-05
1.38846e-06
2.49098e-05
1.33538e-06
2.51468e-05
1.14406e-06
2.49987e-05
9.66175e-07
2.48727e-05
8.3473e-07
2.48e-05
7.47598e-07
2.47563e-05
6.94387e-07
2.46932e-05
7.06062e-07
2.44104e-05
8.42631e-07
2.17715e-05
1.77089e-06
-2.07474e-06
2.50539e-06
-2.96525e-06
2.31296e-06
-3.50867e-06
2.0424e-06
-3.5939e-06
1.73651e-06
-3.58053e-06
1.41988e-06
-3.5102e-06
-1.14821e-06
1.61732e-06
-6.47872e-08
1.37965e-06
1.40064e-06
1.07154e-06
3.62706e-06
7.45985e-07
7.08803e-06
6.1355e-07
1.94976e-05
1.59944e-06
2.46982e-05
1.60029e-06
2.50834e-05
1.399e-06
2.49327e-05
1.21026e-06
2.47703e-05
1.06881e-06
2.46545e-05
9.80467e-07
2.45633e-05
9.40885e-07
2.44079e-05
9.79807e-07
2.39689e-05
1.14767e-06
1.95603e-05
1.61421e-06
-9.9565e-07
2.40496e-06
-1.9811e-06
2.3373e-06
-2.99722e-06
2.17198e-06
-3.64592e-06
1.92253e-06
-3.78694e-06
1.63098e-06
-3.79804e-06
1.32543e-06
-3.73267e-06
1.75293e-07
1.37391e-06
1.7016e-06
1.07608e-06
3.8972e-06
7.99497e-07
7.09709e-06
7.35688e-07
1.83287e-05
1.78175e-06
2.44028e-05
1.89486e-06
2.50002e-05
1.68381e-06
2.48519e-05
1.48013e-06
2.46541e-05
1.32669e-06
2.44906e-05
1.23295e-06
2.43423e-05
1.20171e-06
2.40892e-05
1.25986e-06
2.34703e-05
1.47861e-06
1.81356e-05
1.37018e-06
4.15839e-07
2.15953e-06
-7.56096e-07
2.20964e-06
-1.8601e-06
2.16323e-06
-2.99599e-06
2.0195e-06
-3.75047e-06
1.78806e-06
-3.95096e-06
1.51007e-06
-3.98904e-06
1.21632e-06
-3.92997e-06
1.97568e-06
1.09712e-06
4.102e-06
8.6929e-07
7.02019e-06
8.7508e-07
1.71414e-05
1.92204e-06
2.39701e-05
2.2145e-06
2.4898e-05
1.99726e-06
2.47604e-05
1.77565e-06
2.45274e-05
1.60711e-06
2.43148e-05
1.50273e-06
2.41042e-05
1.47127e-06
2.37528e-05
1.53831e-06
2.29558e-05
1.77461e-06
1.73281e-05
1.13096e-06
2.21206e-06
1.83558e-06
7.34842e-07
1.96983e-06
-5.22043e-07
2.02189e-06
-1.72532e-06
1.98543e-06
-2.96933e-06
1.85544e-06
-3.82534e-06
1.63843e-06
-4.08621e-06
1.37317e-06
-4.15221e-06
1.09206e-06
-4.09995e-06
4.23903e-06
9.57995e-07
6.87107e-06
1.017e-06
1.59882e-05
2.0273e-06
2.33612e-05
2.53084e-06
2.47779e-05
2.33485e-06
2.46626e-05
2.09539e-06
2.43946e-05
1.90875e-06
2.41337e-05
1.78849e-06
2.38602e-05
1.74702e-06
2.34179e-05
1.80648e-06
2.24739e-05
2.02043e-06
1.69588e-05
-2.13259e-06
7.9288e-06
1.04966e-06
4.31812e-06
1.56564e-06
2.47797e-06
1.69642e-06
1.0034e-06
1.79884e-06
-3.04638e-07
1.83853e-06
-1.58487e-06
1.80103e-06
-2.92222e-06
1.67807e-06
-3.8724e-06
1.47228e-06
-4.19216e-06
1.21931e-06
-4.28575e-06
9.52145e-07
-4.24017e-06
6.67486e-06
1.15269e-06
1.49125e-05
2.09145e-06
2.25488e-05
2.83944e-06
2.46233e-05
2.68576e-06
2.45623e-05
2.43542e-06
2.42605e-05
2.22983e-06
2.39535e-05
2.08926e-06
2.3619e-05
2.02997e-06
2.30988e-05
2.06637e-06
2.20334e-05
2.24725e-06
1.68469e-05
-2.21525e-06
2.38182e-06
7.76239e-06
1.2646e-06
6.45828e-06
1.52228e-06
4.35832e-06
1.50531e-06
2.66512e-06
1.57092e-06
1.22657e-06
1.63275e-06
-1.0439e-07
1.65101e-06
-1.44119e-06
1.60508e-06
-2.85644e-06
1.48424e-06
-3.89171e-06
1.28783e-06
-4.26747e-06
1.04761e-06
-4.38749e-06
7.96283e-07
-4.34808e-06
1.39452e-05
2.11857e-06
2.15164e-05
3.1235e-06
2.44218e-05
3.04117e-06
2.44579e-05
2.79055e-06
2.41293e-05
2.56702e-06
2.37798e-05
2.40388e-06
2.33879e-05
2.32067e-06
2.28007e-05
2.32836e-06
2.16415e-05
2.45854e-06
1.68792e-05
2.97418e-06
9.33491e-06
-2.37043e-06
2.38352e-06
7.74946e-06
2.12309e-06
1.30851e-05
1.82042e-06
6.15775e-06
1.5129e-06
4.34758e-06
1.42968e-06
2.80246e-06
1.43644e-06
1.41822e-06
1.45804e-06
8.31664e-08
1.45082e-06
-1.29317e-06
1.39223e-06
-2.77155e-06
1.27096e-06
-3.88213e-06
1.08367e-06
-4.31029e-06
8.57569e-07
-4.45504e-06
6.24306e-07
-4.42099e-06
2.02978e-05
3.33655e-06
2.4143e-05
3.40242e-06
2.4344e-05
3.15543e-06
2.40039e-05
2.91634e-06
2.36171e-05
2.73012e-06
2.31734e-05
2.61873e-06
2.2526e-05
2.59564e-06
2.12989e-05
2.67121e-06
1.69675e-05
3.71627e-06
1.2432e-05
2.79839e-06
8.92024e-06
-2.53678e-06
2.42541e-06
7.86101e-06
3.43836e-06
1.89818e-05
2.83742e-06
1.20658e-05
1.77227e-06
5.89594e-06
1.44913e-06
4.32501e-06
1.31883e-06
2.91624e-06
1.28023e-06
1.59147e-06
1.26432e-06
2.64342e-07
1.23064e-06
-1.13772e-06
1.15775e-06
-2.66537e-06
1.03583e-06
-3.84152e-06
8.58687e-07
-4.31813e-06
6.48718e-07
-4.4857e-06
4.36281e-07
-4.45612e-06
2.37235e-05
3.75611e-06
2.42227e-05
3.52408e-06
2.38873e-05
3.27244e-06
2.34684e-05
3.06544e-06
2.29803e-05
2.92351e-06
2.22805e-05
2.86461e-06
2.1006e-05
2.88888e-06
1.71022e-05
4.21801e-06
1.55828e-05
3.49267e-06
1.17379e-05
2.66968e-06
8.67618e-06
-2.71594e-06
2.52453e-06
8.05262e-06
4.07542e-06
2.30864e-05
4.58931e-06
1.72284e-05
2.60257e-06
1.1233e-05
1.65454e-06
5.6881e-06
1.32888e-06
4.31187e-06
1.17022e-06
3.02249e-06
1.09453e-06
1.75678e-06
1.04416e-06
4.45594e-07
9.84807e-07
-9.70819e-07
8.98599e-07
-2.53508e-06
7.77279e-07
-3.76727e-06
6.12278e-07
-4.2884e-06
4.21074e-07
-4.47676e-06
2.32412e-07
-4.45072e-06
2.40905e-05
3.88862e-06
2.37816e-05
3.63013e-06
2.33357e-05
3.40559e-06
2.28117e-05
3.23448e-06
2.20686e-05
3.13576e-06
2.07664e-05
3.10457e-06
1.72755e-05
4.38008e-06
1.81544e-05
4.09121e-06
1.49845e-05
3.28893e-06
1.11189e-05
2.61024e-06
8.59069e-06
-2.91783e-06
2.68307e-06
8.28758e-06
4.24623e-06
2.392e-05
5.80392e-06
2.18713e-05
4.08611e-06
1.57432e-05
2.33107e-06
1.0554e-05
1.48263e-06
5.53191e-06
1.16288e-06
4.31617e-06
9.82376e-07
3.13095e-06
8.74186e-07
1.92237e-06
7.9248e-07
6.32794e-07
7.10362e-07
-7.88521e-07
6.12866e-07
-2.37751e-06
4.94468e-07
-3.65656e-06
3.44341e-07
-4.21834e-06
1.74779e-07
-4.4254e-06
1.29246e-08
-4.40189e-06
2.3689e-05
3.98167e-06
2.322e-05
3.74622e-06
2.26687e-05
3.54906e-06
2.18929e-05
3.41055e-06
2.05798e-05
3.32271e-06
1.74626e-05
4.32967e-06
2.02893e-05
4.38653e-06
1.78594e-05
3.93436e-06
1.43394e-05
3.1215e-06
1.06079e-05
2.65321e-06
8.62079e-06
-3.13239e-06
2.86853e-06
8.55165e-06
4.32254e-06
2.36132e-05
6.1584e-06
2.35658e-05
5.52917e-06
2.04276e-05
3.53975e-06
1.45327e-05
2.03525e-06
9.9988e-06
1.26993e-06
5.42245e-06
9.54293e-07
4.34126e-06
7.53745e-07
3.24778e-06
6.1642e-07
2.09415e-06
5.07733e-07
8.30409e-07
4.05793e-07
-5.87267e-07
2.99891e-07
-2.18968e-06
1.87249e-07
-3.5065e-06
5.48428e-08
-4.10508e-06
-9.01278e-08
-4.32865e-06
-2.22068e-07
-4.30631e-06
2.31222e-05
4.07997e-06
2.25507e-05
3.86468e-06
2.17545e-05
3.68787e-06
2.04431e-05
3.54769e-06
1.76533e-05
4.19436e-06
2.23414e-05
4.42691e-06
2.02492e-05
4.34533e-06
1.74487e-05
3.76371e-06
1.36975e-05
3.01416e-06
1.02473e-05
2.7636e-06
8.72596e-06
-3.35913e-06
3.08363e-06
8.82737e-06
4.40029e-06
2.3045e-05
6.26763e-06
2.35045e-05
6.08943e-06
2.30057e-05
5.04687e-06
1.89195e-05
3.01674e-06
1.35493e-05
1.71544e-06
9.55073e-06
1.01979e-06
5.35458e-06
7.03684e-07
4.3884e-06
4.83846e-07
3.37683e-06
3.21576e-07
2.27613e-06
1.89113e-07
1.04221e-06
7.08096e-08
-3.63876e-07
-4.05506e-08
-1.96851e-06
-1.44485e-07
-3.31416e-06
-2.56341e-07
-3.94554e-06
-3.74042e-07
-4.18304e-06
-4.73728e-07
-4.16078e-06
2.24561e-05
4.17498e-06
2.16511e-05
3.96864e-06
2.03543e-05
3.77711e-06
1.78422e-05
4.02444e-06
2.45386e-05
4.33312e-06
2.24355e-05
4.48786e-06
2.0107e-05
4.26488e-06
1.69479e-05
3.60218e-06
1.31098e-05
2.97436e-06
1.00368e-05
2.90241e-06
8.90742e-06
-3.58854e-06
3.32029e-06
9.09586e-06
4.47291e-06
2.23841e-05
6.34348e-06
2.29698e-05
6.22774e-06
2.33667e-05
5.85335e-06
2.21991e-05
4.39676e-06
1.75384e-05
2.50696e-06
1.27558e-05
1.3758e-06
9.19217e-06
7.31972e-07
5.32396e-06
4.11564e-07
4.45782e-06
1.74691e-07
3.52029e-06
-1.02105e-08
2.47142e-06
-1.62635e-07
1.27092e-06
-2.94212e-07
-1.15785e-07
-4.0841e-07
-1.71114e-06
-5.01403e-07
-3.07606e-06
-5.90146e-07
-3.73615e-06
-6.77938e-07
-3.98526e-06
-7.41124e-07
-3.96208e-06
2.15796e-05
4.24694e-06
2.03104e-05
4.01299e-06
1.80312e-05
3.83157e-06
2.697e-05
4.18453e-06
2.46876e-05
4.45241e-06
2.24714e-05
4.50997e-06
1.98623e-05
4.1567e-06
1.63938e-05
3.4717e-06
1.26128e-05
2.98258e-06
9.95693e-06
3.06303e-06
9.16494e-06
-3.82276e-06
3.57065e-06
9.34822e-06
4.51653e-06
2.15365e-05
6.41183e-06
2.23165e-05
6.27638e-06
2.29219e-05
6.06119e-06
2.31593e-05
5.42865e-06
2.11669e-05
3.67443e-06
1.63696e-05
2.01654e-06
1.21131e-05
1.01366e-06
8.90798e-06
4.05729e-07
5.32752e-06
8.10202e-08
4.54871e-06
-1.72887e-07
3.67965e-06
-3.77137e-07
2.682e-06
-5.47102e-07
1.51918e-06
-6.89863e-07
1.60206e-07
-8.0501e-07
-1.41404e-06
-8.84483e-07
-2.7887e-06
-9.47353e-07
-3.47351e-06
-1.00099e-06
-3.73194e-06
-1.02251e-06
-3.70731e-06
2.03064e-05
4.25145e-06
1.82219e-05
3.62079e-06
2.9667e-05
4.00676e-06
2.71482e-05
4.3329e-06
2.48075e-05
4.54905e-06
2.24327e-05
4.49513e-06
1.95243e-05
4.03417e-06
1.58317e-05
3.3776e-06
1.22181e-05
3.02474e-06
9.99552e-06
3.27562e-06
9.46024e-06
-4.05762e-06
3.82177e-06
9.58434e-06
4.48674e-06
2.03367e-05
6.43768e-06
2.15114e-05
6.31261e-06
2.2281e-05
6.10616e-06
2.28775e-05
5.77554e-06
2.28128e-05
4.82983e-06
2.0011e-05
2.98055e-06
1.54043e-05
1.53169e-06
1.15931e-05
6.22447e-07
8.68881e-06
4.55427e-08
5.36078e-06
-2.87961e-07
4.66112e-06
-5.56643e-07
3.85595e-06
-7.79035e-07
2.91012e-06
-9.65168e-07
1.78995e-06
-1.11739e-06
4.67178e-07
-1.23122e-06
-1.07378e-06
-1.29451e-06
-2.44855e-06
-1.32679e-06
-3.15457e-06
-1.34033e-06
-3.4208e-06
-1.31342e-06
-3.39517e-06
1.84162e-05
3.39494e-06
3.26588e-05
3.80453e-06
2.98697e-05
4.17262e-06
2.7309e-05
4.46717e-06
2.48899e-05
4.61319e-06
2.23151e-05
4.44725e-06
1.91117e-05
3.91062e-06
1.52991e-05
3.31927e-06
1.1924e-05
3.14401e-06
1.01274e-05
3.51851e-06
9.76377e-06
-4.28645e-06
4.06449e-06
9.80657e-06
1.8617e-05
6.36065e-06
2.04145e-05
6.31125e-06
2.15136e-05
6.12415e-06
2.22637e-05
5.84905e-06
2.28046e-05
5.36086e-06
2.22819e-05
4.1163e-06
1.88747e-05
2.32035e-06
1.46143e-05
1.0333e-06
1.11803e-05
2.03273e-07
8.52869e-06
-3.51649e-07
5.42233e-06
-6.92361e-07
4.79425e-06
-9.76838e-07
4.05065e-06
-1.21719e-06
3.15842e-06
-1.41793e-06
2.08604e-06
-1.57761e-06
8.08226e-07
-1.68735e-06
-6.87401e-07
-1.72962e-06
-2.05278e-06
-1.72479e-06
-2.77708e-06
-1.69001e-06
-3.05106e-06
-1.60677e-06
-3.02569e-06
3.15641e-06
3.59752e-05
3.58164e-06
3.28823e-05
3.98218e-06
3.00607e-05
4.326e-06
2.74507e-05
4.58086e-06
2.49227e-05
4.64449e-06
2.21184e-05
4.37381e-06
1.86489e-05
3.79935e-06
1.48194e-05
3.31341e-06
1.17549e-05
3.32966e-06
1.03166e-05
3.7649e-06
1.00636e-05
-6.08554e-06
5.80599e-06
1.00865e-05
1.88928e-05
6.21556e-06
2.05109e-05
6.10882e-06
2.15296e-05
5.85701e-06
2.22565e-05
5.49587e-06
2.26702e-05
4.80985e-06
2.15885e-05
3.33486e-06
1.78596e-05
1.66971e-06
1.39765e-05
5.2277e-07
1.08589e-05
-2.4334e-07
8.41809e-06
-7.81762e-07
5.50967e-06
-1.13372e-06
4.94862e-06
-1.43516e-06
4.2656e-06
-1.69206e-06
3.42893e-06
-1.90526e-06
2.40931e-06
-2.06937e-06
1.18494e-06
-2.17015e-06
-2.53364e-07
-2.18349e-06
-1.60124e-06
-2.13309e-06
-2.34117e-06
-2.04139e-06
-2.62354e-06
-1.89208e-06
-2.60196e-06
2.90755e-06
3.96532e-05
3.34141e-06
3.62161e-05
3.76538e-06
3.30997e-05
4.15071e-06
3.02366e-05
4.46731e-06
2.75648e-05
4.67193e-06
2.48958e-05
4.64528e-06
2.18474e-05
4.28355e-06
1.81652e-05
3.71333e-06
1.44199e-05
3.37011e-06
1.17148e-05
3.52371e-06
1.05581e-05
5.41762e-06
1.04524e-05
-5.9542e-06
5.70541e-06
1.03356e-05
1.91549e-05
6.01183e-06
2.06087e-05
5.83582e-06
2.15516e-05
5.51367e-06
2.22394e-05
5.03002e-06
2.24505e-05
4.14048e-06
2.07829e-05
2.52668e-06
1.70019e-05
1.03305e-06
1.34649e-05
-2.04952e-10
1.06139e-05
-7.18722e-07
8.35284e-06
-1.2479e-06
5.62187e-06
-1.61374e-06
5.12478e-06
-1.93105e-06
4.50166e-06
-2.20236e-06
3.72249e-06
-2.42525e-06
2.76088e-06
-2.58816e-06
1.59765e-06
-2.6717e-06
2.28309e-07
-2.64753e-06
-1.09414e-06
-2.53997e-06
-1.84999e-06
-2.38156e-06
-2.14144e-06
-2.15849e-06
-2.12818e-06
2.65039e-06
4.37338e-05
3.08678e-06
3.99085e-05
3.52614e-06
3.6456e-05
3.94348e-06
3.33076e-05
4.30824e-06
3.03963e-05
4.59191e-06
2.76454e-05
4.73403e-06
2.48076e-05
4.61706e-06
2.15145e-05
4.18579e-06
1.76933e-05
3.66591e-06
1.41246e-05
3.46538e-06
1.17735e-05
5.03184e-06
1.09442e-05
5.35671e-06
1.08014e-05
-5.77513e-06
5.55687e-06
1.05542e-05
1.93923e-05
5.74902e-06
2.06962e-05
5.49514e-06
2.15708e-05
5.08183e-06
2.21882e-05
4.47125e-06
2.21202e-05
3.3782e-06
1.99314e-05
1.74348e-06
1.62908e-05
4.05541e-07
1.30578e-05
-5.4305e-07
1.04365e-05
-1.22545e-06
8.32826e-06
-1.75134e-06
5.75755e-06
-2.13022e-06
5.32162e-06
-2.46139e-06
4.75783e-06
-2.74438e-06
4.03814e-06
-2.97059e-06
3.13902e-06
-3.12288e-06
2.04349e-06
-3.17828e-06
7.5235e-07
-3.1051e-06
-5.36604e-07
-2.93128e-06
-1.30799e-06
-2.695e-06
-1.61267e-06
-2.39092e-06
-1.61317e-06
2.39029e-06
4.75019e-05
2.82042e-06
4.40009e-05
3.26793e-06
4.01675e-05
3.70819e-06
3.6692e-05
4.11334e-06
3.35032e-05
4.45104e-06
3.05379e-05
4.69499e-06
2.76851e-05
4.76728e-06
2.4658e-05
4.56351e-06
2.11373e-05
4.09428e-06
1.72654e-05
3.65661e-06
1.39338e-05
4.83106e-06
1.19747e-05
4.97e-06
1.13313e-05
5.24973e-06
1.11088e-05
-5.54572e-06
5.35911e-06
1.07411e-05
1.95962e-05
5.42427e-06
2.07678e-05
5.08019e-06
2.15732e-05
4.5726e-06
2.20875e-05
3.8282e-06
2.16707e-05
2.5563e-06
1.91185e-05
9.90549e-07
1.57052e-05
-2.26137e-07
1.27396e-05
-1.10693e-06
1.03163e-05
-1.7657e-06
8.34058e-06
-2.28817e-06
5.91366e-06
-2.67819e-06
5.53616e-06
-3.02058e-06
5.03125e-06
-3.30792e-06
4.37202e-06
-3.52729e-06
3.53913e-06
-3.65912e-06
2.51888e-06
-3.67537e-06
1.31569e-06
-3.54046e-06
6.46658e-08
-3.28735e-06
-7.23755e-07
-2.96537e-06
-1.04641e-06
-2.57619e-06
-1.06784e-06
2.14919e-06
4.71569e-05
2.54851e-06
4.77747e-05
2.99396e-06
4.42757e-05
3.44889e-06
4.04276e-05
3.885e-06
3.69211e-05
4.27153e-06
3.36835e-05
4.5798e-06
3.06538e-05
4.77557e-06
2.76775e-05
4.77191e-06
2.44503e-05
4.49262e-06
2.07395e-05
4.01773e-06
1.69048e-05
4.93866e-06
1.38267e-05
4.69585e-06
1.22492e-05
4.88761e-06
1.16936e-05
5.09394e-06
1.13742e-05
-5.25688e-06
5.10101e-06
1.08972e-05
1.97642e-05
5.03236e-06
2.08163e-05
4.59752e-06
2.15489e-05
3.99421e-06
2.19221e-05
3.0994e-06
2.1128e-05
1.7169e-06
1.83922e-05
2.51491e-07
1.52268e-05
-8.66439e-07
1.24979e-05
-1.69599e-06
1.02449e-05
-2.33369e-06
8.38415e-06
-2.85158e-06
6.08526e-06
-3.25156e-06
5.76493e-06
-3.59674e-06
5.31733e-06
-3.87884e-06
4.72011e-06
-4.07948e-06
3.9551e-06
-4.17666e-06
3.01453e-06
-4.13844e-06
1.90641e-06
-3.92903e-06
6.97994e-07
-3.58847e-06
-1.09246e-07
-3.17706e-06
-4.54251e-07
-2.70729e-06
-5.03601e-07
1.92346e-06
4.68467e-05
2.29483e-06
4.74114e-05
2.71125e-06
4.80583e-05
3.16929e-06
4.45562e-05
3.62739e-06
4.06861e-05
4.05335e-06
3.71402e-05
4.41633e-06
3.38477e-05
4.68925e-06
3.07409e-05
4.82805e-06
2.76221e-05
4.74975e-06
2.41938e-05
4.4097e-06
2.03481e-05
5.30287e-06
1.65412e-05
4.65125e-06
1.38717e-05
4.58129e-06
1.25558e-05
4.76556e-06
1.20222e-05
4.8757e-06
1.15997e-05
-4.90418e-06
4.77884e-06
1.10227e-05
1.98929e-05
4.57706e-06
2.08373e-05
4.05592e-06
2.14879e-05
3.34265e-06
2.16795e-05
2.30597e-06
2.05394e-05
8.78055e-07
1.77655e-05
-4.80838e-07
1.48405e-05
-1.51762e-06
1.23184e-05
-2.30317e-06
1.02129e-05
-2.92214e-06
8.45283e-06
-3.4354e-06
6.26737e-06
-3.83473e-06
6.00074e-06
-4.17332e-06
5.60905e-06
-4.43707e-06
5.07418e-06
-4.6068e-06
4.38068e-06
-4.65243e-06
3.5226e-06
-4.54545e-06
2.51516e-06
-4.25044e-06
1.3511e-06
-3.81907e-06
5.23598e-07
-3.32153e-06
1.50654e-07
-2.77801e-06
6.63999e-08
1.70981e-06
4.65554e-05
2.05631e-06
4.70861e-05
2.4455e-06
4.7678e-05
2.87717e-06
4.83514e-05
3.34449e-06
4.48401e-05
3.80038e-06
4.094e-05
4.21039e-06
3.7347e-05
4.54249e-06
3.39954e-05
4.7748e-06
3.07949e-05
4.85269e-06
2.75199e-05
4.70168e-06
2.39025e-05
5.78223e-06
1.98695e-05
4.85632e-06
1.63366e-05
4.43316e-06
1.40201e-05
4.44522e-06
1.28762e-05
4.585e-06
1.23129e-05
4.59233e-06
1.17863e-05
-4.4895e-06
4.3944e-06
1.11179e-05
1.99809e-05
4.06666e-06
2.08272e-05
3.45343e-06
2.13777e-05
2.62656e-06
2.13595e-05
1.48016e-06
1.99377e-05
5.40168e-08
1.72305e-05
-1.20727e-06
1.45295e-05
-2.17336e-06
1.21875e-05
-2.92206e-06
1.02113e-05
-3.52513e-06
8.54071e-06
-4.02272e-06
6.45364e-06
-4.41156e-06
6.2368e-06
-4.73182e-06
5.90099e-06
-4.96357e-06
5.4273e-06
-5.08191e-06
4.80537e-06
-5.06276e-06
4.03363e-06
-4.87267e-06
3.12921e-06
-4.48906e-06
2.01161e-06
-3.96872e-06
1.16097e-06
-3.39257e-06
7.55174e-07
-2.78791e-06
6.3025e-07
1.50573e-06
4.62686e-05
1.82985e-06
4.67827e-05
2.19433e-06
4.73382e-05
2.60013e-06
4.79561e-05
3.04471e-06
4.86522e-05
3.51684e-06
4.51247e-05
3.96496e-06
4.11864e-05
4.35261e-06
3.75378e-05
4.65032e-06
3.41208e-05
4.83672e-06
3.08118e-05
4.84884e-06
2.73735e-05
6.20072e-06
2.34849e-05
5.22432e-06
1.95022e-05
4.50324e-06
1.6267e-05
4.23478e-06
1.42307e-05
4.27535e-06
1.31859e-05
4.34225e-06
1.2563e-05
4.24595e-06
1.19347e-05
-4.01931e-06
3.9533e-06
1.1184e-05
2.00286e-05
3.50224e-06
2.07788e-05
2.79409e-06
2.12107e-05
1.86499e-06
2.09752e-05
6.3976e-07
1.93523e-05
-7.55034e-07
1.67781e-05
-1.92098e-06
1.42764e-05
-2.8296e-06
1.20939e-05
-3.54699e-06
1.02317e-05
-4.12497e-06
8.64114e-06
-4.59702e-06
6.63737e-06
-4.96505e-06
6.46779e-06
-5.24895e-06
6.18344e-06
-5.42853e-06
5.77005e-06
-5.48306e-06
5.22055e-06
-5.38213e-06
4.53635e-06
-5.10486e-06
3.73623e-06
-4.63369e-06
2.6664e-06
-4.03276e-06
1.7906e-06
-3.39135e-06
1.34776e-06
-2.7445e-06
1.30977e-06
4.59869e-05
1.613e-06
4.64863e-05
1.95501e-06
4.70229e-05
2.3367e-06
4.76026e-05
2.75748e-06
4.82443e-05
3.21155e-06
4.89586e-05
3.68364e-06
4.54071e-05
4.11777e-06
4.14224e-05
4.47684e-06
3.77124e-05
4.73753e-06
3.4221e-05
4.87008e-06
3.07914e-05
6.45424e-06
2.7121e-05
5.61059e-06
2.30994e-05
4.75336e-06
1.92525e-05
4.20412e-06
1.62979e-05
4.03189e-06
1.44742e-05
4.05837e-06
1.34696e-05
4.03774e-06
1.27711e-05
3.84138e-06
1.20466e-05
-3.49648e-06
3.45871e-06
1.12217e-05
2.00346e-05
2.88773e-06
2.06856e-05
2.09077e-06
2.09853e-05
1.07482e-06
2.05406e-05
-2.04855e-07
1.88023e-05
-1.5317e-06
1.63886e-05
-2.62113e-06
1.40673e-05
-3.48011e-06
1.2026e-05
-4.15971e-06
1.0265e-05
-4.70525e-06
8.74752e-06
-5.13994e-06
6.81048e-06
-5.46653e-06
6.68302e-06
-5.69699e-06
6.44878e-06
-5.81297e-06
6.0958e-06
-5.78463e-06
5.61753e-06
-5.59604e-06
5.02028e-06
-5.23234e-06
4.32543e-06
-4.68027e-06
3.30295e-06
-4.01352e-06
2.40134e-06
-3.327e-06
1.12158e-06
4.57125e-05
1.40424e-06
4.61964e-05
1.72518e-06
4.6717e-05
2.08464e-06
4.72759e-05
2.48245e-06
4.78786e-05
2.91562e-06
4.85414e-05
3.37534e-06
4.92681e-05
3.84169e-06
4.56844e-05
4.25513e-06
4.16452e-05
4.57855e-06
3.78725e-05
4.79786e-06
3.42942e-05
6.53583e-06
3.07111e-05
5.88925e-06
2.68433e-05
5.07856e-06
2.27748e-05
4.34761e-06
1.91094e-05
3.9289e-06
1.64009e-05
3.80795e-06
1.47245e-05
3.78742e-06
1.37197e-05
3.67455e-06
1.29376e-05
3.38165e-06
1.21234e-05
-2.92579e-06
2.91575e-06
1.12316e-05
1.99966e-05
2.23313e-06
2.05435e-05
1.35731e-06
2.07032e-05
2.66959e-07
2.00691e-05
-1.02754e-06
1.82983e-05
-2.27902e-06
1.60462e-05
-3.30144e-06
1.38879e-05
-4.10718e-06
1.19723e-05
-4.74462e-06
1.03028e-05
-5.24763e-06
8.85329e-06
-5.62479e-06
6.96685e-06
-5.89588e-06
6.87939e-06
-6.06063e-06
6.69306e-06
-6.08904e-06
6.3957e-06
-5.97533e-06
5.99084e-06
-5.70099e-06
5.48109e-06
-5.25391e-06
4.88887e-06
-4.63449e-06
3.91208e-06
-3.92253e-06
9.31976e-07
4.79247e-05
1.20319e-06
4.59144e-05
1.5033e-06
4.64192e-05
1.84177e-06
4.69608e-05
2.21797e-06
4.75415e-05
2.62994e-06
4.81654e-05
3.07253e-06
4.88454e-05
3.53317e-06
4.9578e-05
3.98734e-06
4.59535e-05
4.37346e-06
4.18516e-05
4.65876e-06
3.80128e-05
6.48247e-06
3.43491e-05
6.01786e-06
3.05837e-05
5.35471e-06
2.6568e-05
4.59818e-06
2.25247e-05
3.98404e-06
1.90544e-05
3.65761e-06
1.65512e-05
3.54514e-06
1.49664e-05
3.4613e-06
1.39325e-05
3.25485e-06
1.3064e-05
2.87204e-06
1.21668e-05
-2.31596e-06
2.33295e-06
1.12144e-05
1.99137e-05
1.54945e-06
2.03515e-05
6.02792e-07
2.03676e-05
-5.37518e-07
1.95792e-05
-1.8149e-06
1.78341e-05
-2.99205e-06
1.57364e-05
-3.94599e-06
1.37259e-05
-4.69674e-06
1.19232e-05
-5.28393e-06
1.03375e-05
-5.72548e-06
8.95192e-06
-6.03263e-06
7.10156e-06
-6.23383e-06
7.04984e-06
-6.30674e-06
6.90707e-06
-6.25336e-06
6.66882e-06
-6.05124e-06
6.3346e-06
-5.69252e-06
5.91123e-06
-5.17677e-06
5.42014e-06
-4.51202e-06
4.48871e-06
7.74363e-07
4.15349e-05
1e-06
4.81288e-05
1.28896e-06
4.61296e-05
1.60658e-06
4.66554e-05
1.96216e-06
4.72177e-05
2.35364e-06
4.78189e-05
2.77749e-06
4.84617e-05
3.22566e-06
4.91543e-05
3.68159e-06
4.98852e-05
4.11701e-06
4.62114e-05
4.46951e-06
4.20422e-05
6.33021e-06
3.81667e-05
6.01317e-06
3.43552e-05
5.5128e-06
3.04266e-05
4.85012e-06
2.63167e-05
4.15968e-06
2.23493e-05
3.64363e-06
1.90684e-05
3.37041e-06
1.67256e-05
3.23707e-06
1.51901e-05
3.08036e-06
1.41063e-05
2.78363e-06
1.31518e-05
2.32082e-06
1.21785e-05
-1.67683e-06
1.71978e-06
1.11711e-05
1.97861e-05
8.44557e-07
2.01097e-05
-1.5591e-07
1.9986e-05
-1.32109e-06
1.90853e-05
-2.5581e-06
1.73999e-05
-3.65755e-06
1.54474e-05
-4.54178e-06
1.357e-05
-5.23203e-06
1.187e-05
-5.75241e-06
1.03627e-05
-6.12209e-06
9.03913e-06
-6.34516e-06
7.21065e-06
-6.45258e-06
7.19266e-06
-6.44548e-06
7.09516e-06
-6.30263e-06
6.91488e-06
-6.01543e-06
6.65049e-06
-5.58669e-06
6.31199e-06
-5.02109e-06
5.91726e-06
-4.33084e-06
5.02899e-06
6.4241e-07
3.60355e-05
8.30713e-07
4.17049e-05
1.0716e-06
4.83471e-05
1.3786e-06
4.63586e-05
1.71359e-06
4.6905e-05
2.08523e-06
4.74872e-05
2.49024e-06
4.81074e-05
2.92288e-06
4.87658e-05
3.37188e-06
4.94654e-05
3.81711e-06
5.01866e-05
4.22661e-06
4.64558e-05
6.0955e-06
4.22788e-05
5.90519e-06
3.82764e-05
5.54687e-06
3.43224e-05
5.02069e-06
3.02569e-05
4.37439e-06
2.61024e-05
3.75093e-06
2.22421e-05
3.3069e-06
1.91316e-05
3.05524e-06
1.69068e-05
2.8828e-06
1.53869e-05
2.64827e-06
1.42409e-05
2.26855e-06
1.32034e-05
1.7372e-06
1.21604e-05
-1.01645e-06
1.0843e-06
1.11027e-05
1.96138e-05
1.32111e-07
1.98214e-05
-9.03071e-07
1.95678e-05
-2.06825e-06
1.85952e-05
-3.24425e-06
1.69862e-05
-4.26341e-06
1.51683e-05
-5.07443e-06
1.34114e-05
-5.69036e-06
1.18065e-05
-6.13479e-06
1.03735e-05
-6.42152e-06
9.11298e-06
-6.53537e-06
7.29095e-06
-6.56496e-06
7.30882e-06
-6.46726e-06
7.25537e-06
-6.23847e-06
7.13212e-06
-5.8821e-06
6.93831e-06
-5.40195e-06
6.68294e-06
-4.80885e-06
6.38226e-06
-4.11657e-06
5.53523e-06
5.31048e-07
3.12804e-05
6.88824e-07
3.6178e-05
8.90033e-07
4.18873e-05
1.14658e-06
4.85801e-05
1.47177e-06
4.66014e-05
1.82341e-06
4.71679e-05
2.20979e-06
4.77689e-05
2.62586e-06
4.84057e-05
3.06333e-06
4.90758e-05
3.50789e-06
4.97762e-05
3.93544e-06
5.04794e-05
5.79407e-06
4.67594e-05
5.71662e-06
4.24694e-05
5.47925e-06
3.83456e-05
5.08382e-06
3.42605e-05
4.54342e-06
3.00886e-05
3.92187e-06
2.59317e-05
3.35696e-06
2.21919e-05
2.96007e-06
1.92263e-05
2.70637e-06
1.70824e-05
2.48224e-06
1.55519e-05
2.17119e-06
1.43373e-05
1.71838e-06
1.32213e-05
1.12933e-06
1.21147e-05
-3.45923e-07
4.36686e-07
1.10113e-05
1.93994e-05
-5.74098e-07
1.9492e-05
-1.62408e-06
1.91231e-05
-2.76155e-06
1.8112e-05
-3.86378e-06
1.65859e-05
-4.79811e-06
1.4891e-05
-5.52477e-06
1.32445e-05
-6.05854e-06
1.17286e-05
-6.41889e-06
1.03686e-05
-6.59642e-06
9.17125e-06
-6.62391e-06
7.34717e-06
-6.56056e-06
7.39848e-06
-6.37925e-06
7.39137e-06
-6.08214e-06
7.32589e-06
-5.67478e-06
7.20293e-06
-5.16345e-06
7.02676e-06
-4.56453e-06
6.81594e-06
-3.89211e-06
6.00906e-06
4.36248e-07
2.71203e-05
5.69036e-07
3.14007e-05
7.37639e-07
3.63311e-05
9.52175e-07
4.20826e-05
1.22468e-06
4.88283e-05
1.56771e-06
4.68583e-05
1.93507e-06
4.74438e-05
2.33422e-06
4.80619e-05
2.75806e-06
4.87124e-05
3.19585e-06
4.93894e-05
3.62953e-06
5.00838e-05
5.42197e-06
5.0854e-05
5.45995e-06
4.70183e-05
5.33361e-06
4.26169e-05
5.05017e-06
3.83809e-05
4.62569e-06
3.41793e-05
4.07904e-06
2.99319e-05
3.4839e-06
2.58047e-05
2.96614e-06
2.21854e-05
2.59426e-06
1.93376e-05
2.32083e-06
1.72428e-05
2.03872e-06
1.56832e-05
1.65684e-06
1.43977e-05
1.14137e-06
1.32083e-05
5.0676e-07
1.20437e-05
3.23087e-07
-2.12266e-07
1.08998e-05
1.91475e-05
-1.26067e-06
1.91279e-05
-2.3016e-06
1.86625e-05
-3.38981e-06
1.76373e-05
-4.40727e-06
1.61942e-05
-5.24643e-06
1.46116e-05
-5.88244e-06
1.3067e-05
-6.32786e-06
1.16357e-05
-6.58071e-06
1.03505e-05
-6.67212e-06
9.21639e-06
-6.60093e-06
7.38455e-06
-6.45714e-06
7.47243e-06
-6.20788e-06
7.51194e-06
-5.8584e-06
7.50275e-06
-5.41782e-06