/*--------------------------------*- C++ -*----------------------------------*\
  =========                 |
  \\      /  F ield         | OpenFOAM: The Open Source CFD Toolbox
   \\    /   O peration     | Website:  https://openfoam.org
    \\  /    A nd           | Version:  8
     \\/     M anipulation  |
\*---------------------------------------------------------------------------*/
FoamFile
{
    version     2.0;
    format      ascii;
    class       volVectorField;
    location    "0.05";
    object      U;
}
// * * * * * * * * * * * * * * * * * * * * * * * * * * * * * * * * * * * * * //

dimensions      [0 1 -1 0 0 0 0];

internalField   nonuniform List<vector> 
3929
(
(0.0113042 0.00802375 -2.67617e-13)
(0.043869 0.0153593 1.96307e-20)
(0.0430843 0.0283741 -4.82596e-13)
(0.0732326 0.0167915 2.01841e-13)
(0.0969995 0.043799 2.11282e-13)
(0.100622 0.0656352 0)
(0.103777 0.0129846 0)
(0.139237 0.0461158 -1.80946e-13)
(0.182324 0.0935553 1.89846e-13)
(0.194229 0.126863 -1.96043e-13)
(0.136749 0.00377799 0)
(0.180687 0.0408818 5.38154e-20)
(0.239338 0.0968093 -6.61124e-20)
(0.310606 0.172607 0)
(0.333893 0.218438 0)
(0.172193 -0.0113937 0)
(0.223858 0.0288599 5.52098e-20)
(0.29255 0.0893674 -1.40389e-13)
(0.38425 0.176245 0)
(0.487255 0.285528 0)
(0.509666 0.33745 -2.13019e-13)
(0.209827 -0.033462 -1.24399e-13)
(0.268977 0.00987731 5.55468e-20)
(0.346246 0.0734389 0)
(0.449682 0.165294 -1.25725e-13)
(0.578429 0.287978 0)
(0.700461 0.424343 0)
(0.696993 0.459309 -1.39304e-19)
(0.249137 -0.0635996 4.84342e-20)
(0.315695 -0.0168297 5.55751e-20)
(0.4009 0.0493569 0)
(0.51364 0.143724 1.10863e-13)
(0.655549 0.271361 0)
(0.808416 0.423047 0)
(0.937067 0.573956 -2.75078e-19)
(0.996631 0.655849 5.12862e-13)
(0.289337 -0.103108 4.90957e-20)
(0.363296 -0.0523204 5.51531e-20)
(0.456027 0.0165813 1.00363e-13)
(0.576826 0.112473 0)
(0.728064 0.241375 0)
(0.894866 0.396754 0)
(1.0633 0.56394 -3.39935e-13)
(1.23935 0.756794 -4.50463e-19)
(1.02901 0.636806 -1.54878e-19)
(0.329357 -0.153312 4.9016e-20)
(0.410694 -0.0977438 9.35414e-14)
(0.510585 -0.0257688 -6.27959e-20)
(0.638406 0.0713503 0)
(0.796529 0.199725 0)
(0.971171 0.353523 0)
(1.15453 0.520187 2.41489e-19)
(1.37059 0.700308 -3.76808e-19)
(1.58745 0.811293 -2.82464e-19)
(2.68148 1.2071 1.51447e-13)
(0.367839 -0.215429 8.79844e-14)
(0.456446 -0.154195 0)
(0.563048 -0.0785636 -8.44726e-14)
(0.696757 0.0198637 0)
(0.859321 0.146971 0)
(1.03683 0.296856 -1.06432e-13)
(1.22312 0.457107 1.96376e-19)
(1.43301 0.623023 -2.83813e-19)
(1.64119 0.766735 -2.0153e-13)
(1.94211 1.17837 -1.30194e-13)
(0.605666 2.55145 -1.58582e-13)
(0.403199 -0.290417 -8.14386e-14)
(0.498802 -0.222534 0)
(0.611492 -0.14246 7.818e-14)
(0.749716 -0.0422512 0)
(0.914036 0.0836412 0)
(1.08959 0.229348 9.69887e-14)
(1.26933 0.382876 1.45711e-19)
(1.45983 0.538882 -1.78606e-19)
(1.62052 0.693374 7.96157e-21)
(1.7487 0.972891 0)
(1.07323 2.07363 1.41027e-13)
(-0.0609609 14.9429 0)
(0.433768 -0.378819 4.36383e-20)
(0.535864 -0.303221 -7.42482e-14)
(0.6538 -0.217705 -7.26612e-14)
(0.794922 -0.114779 0)
(0.958058 0.0108495 0)
(1.12735 0.153859 0)
(1.29381 0.303649 1.02267e-19)
(1.45261 0.458137 -1.28957e-13)
(1.56163 0.645439 -4.81426e-20)
(1.56931 1.02886 0)
(0.772919 2.68642 -1.22814e-13)
(-0.0506999 14.9316 0)
(0.130657 15.0154 0)
(0.457984 -0.480627 4.03296e-20)
(0.565799 -0.396196 4.22211e-20)
(0.687906 -0.303997 0)
(0.830195 -0.196926 0)
(0.989352 -0.0696402 0)
(1.14834 0.073776 0)
(1.2969 0.225856 6.71975e-20)
(1.41937 0.389558 0)
(1.48371 0.626872 7.41189e-14)
(1.41934 1.18629 0)
(0.548473 3.32092 1.0806e-13)
(0.00232971 14.9437 0)
(0.345765 15.0547 0)
(0.0590161 14.9986 0)
(0.474646 -0.595225 3.6779e-20)
(0.587139 -0.500808 3.79657e-20)
(0.712172 -0.400457 0)
(0.853876 -0.287294 0)
(1.00682 -0.15554 6.60457e-14)
(1.15302 -0.00779513 0)
(1.2803 0.152038 1.86692e-13)
(1.37399 0.339175 0)
(1.39402 0.636888 0)
(1.29239 1.38965 0)
(0.406551 3.79748 0)
(0.075404 14.8716 0)
(0.51386 15.0943 0)
(0.179684 15.0075 0)
(0.0614146 15.0005 0)
(0.483153 -0.72146 3.37496e-20)
(0.599029 -0.615876 3.39572e-20)
(0.725652 -0.505702 0)
(0.865206 -0.38406 0)
(1.01017 -0.244309 -3.59174e-20)
(1.14206 -0.0870402 0)
(1.24706 0.0867765 -2.20056e-20)
(1.31382 0.304995 0)
(1.3001 0.674665 -6.77153e-14)
(1.16894 1.61555 0)
(0.325704 4.22877 0)
(0.162417 14.7199 0)
(0.646461 15.1215 0)
(0.303733 15.0233 0)
(0.189091 15.0012 0)
(0.0640725 14.9993 0)
(0.483718 -0.85797 3.1166e-20)
(0.601393 -0.739859 3.08746e-20)
(0.728241 -0.618028 5.54931e-14)
(0.864389 -0.485195 0)
(1.00044 -0.333637 -2.94375e-20)
(1.11749 -0.161744 0)
(1.20333 0.0342185 -1.4549e-20)
(1.2434 0.291036 0)
(1.2017 0.742061 1.28973e-13)
(1.04438 1.85926 0)
(0.282082 4.63997 0)
(0.264429 14.4898 0)
(0.764225 15.1248 0)
(0.430648 15.0415 0)
(0.324303 15.0004 0)
(0.198614 14.9934 0)
(0.0752627 14.999 0)
(0.595019 -0.87122 5.30541e-14)
(0.475488 -1.03286 3.96398e-14)
(0.720652 -0.735658 -5.20036e-14)
(0.852405 -0.588724 -5.12862e-14)
(0.9791 -0.42114 -5.51649e-14)
(1.08175 -0.229394 0)
(1.14991 -0.00515466 -1.24307e-20)
(1.16788 0.298355 0)
(1.10132 0.839357 -1.21719e-13)
(0.926791 2.10658 0)
(0.253836 5.01422 0)
(0.366608 14.1944 0)
(0.8742 15.1149 0)
(0.560971 15.0553 0)
(0.464118 14.9959 0)
(0.343024 14.9794 0)
(0.233398 14.9863 0)
(0.103745 14.9964 0)
(0.704301 -0.857065 0)
(0.578038 -1.03602 3.69607e-14)
(0.455929 -1.23569 0)
(0.830814 -0.692943 4.81887e-14)
(0.94827 -0.505185 5.19783e-14)
(1.03819 -0.288075 0)
(1.0901 -0.029771 -1.17459e-20)
(1.0897 0.327122 0)
(1.00642 0.960576 -1.9637e-20)
(0.827053 2.35193 0)
(0.245887 5.32394 0)
(0.449766 13.832 0)
(0.984093 15.0936 0)
(0.693429 15.0608 0)
(0.606661 14.9859 0)
(0.494459 14.9556 0)
(0.401813 14.9565 0)
(0.316253 14.9692 0)
(0.140595 14.9994 0)
(0.801456 -0.796566 0)
(0.675786 -1.00534 0)
(0.548651 -1.22277 -7.20638e-14)
(0.430277 -1.43011 -1.86994e-14)
(0.909901 -0.584509 -2.0924e-20)
(0.988276 -0.337172 0)
(1.02667 -0.0392665 -7.09329e-14)
(1.01143 0.37626 0)
(0.918373 1.09894 -1.61685e-20)
(0.737942 2.58784 0)
(0.250767 5.57594 0)
(0.537697 13.4004 0)
(1.09318 15.0523 0)
(0.828249 15.0568 0)
(0.750411 14.9684 0)
(0.649967 14.9211 0)
(0.575561 14.9086 0)
(0.53145 14.9134 0)
(0.403339 14.94 0)
(0.414334 14.9373 0)
(0.865699 -0.658254 -4.63179e-14)
(0.758665 -0.918157 -3.20427e-14)
(0.634299 -1.16808 0)
(0.513689 -1.39846 3.49885e-14)
(0.401104 -1.61457 3.63041e-14)
(0.933783 -0.376155 0)
(0.960883 -0.0337649 -6.66657e-14)
(0.934767 0.443847 8.15478e-14)
(0.836094 1.25068 -1.18433e-20)
(0.656844 2.81049 0)
(0.26256 5.76805 0)
(0.636648 12.892 0)
(1.19947 14.9891 0)
(0.961321 15.0386 0)
(0.894278 14.9429 0)
(0.806548 14.8755 0)
(0.750011 14.8435 0)
(0.740273 14.8305 0)
(0.66098 14.8244 0)
(0.946511 14.7153 0)
(0.277816 14.6366 0)
(0.875856 -0.404807 0)
(0.807103 -0.738124 -3.24911e-14)
(0.702852 -1.04471 6.26304e-14)
(0.588332 -1.31691 0)
(0.475504 -1.56227 0)
(0.369468 -1.7877 -1.76259e-14)
(0.894039 -0.0142556 6.24522e-14)
(0.860469 0.526758 4.60481e-21)
(0.761956 1.40978 9.12579e-14)
(0.590314 3.01595 0)
(0.290108 5.89564 0)
(0.714593 12.3104 0)
(1.29935 14.8984 0)
(1.08995 15.0127 0)
(1.03638 14.9091 0)
(0.961283 14.8195 0)
(0.920789 14.7631 0)
(0.937714 14.7246 0)
(0.910096 14.6647 0)
(1.2815 14.4484 0)
(0.951584 12.3729 0)
(0.826839 0.017725 -5.86481e-14)
(0.803259 -0.425792 0)
(0.736158 -0.811659 6.34949e-14)
(0.644374 -1.1546 -3.0455e-14)
(0.539873 -1.45189 0)
(0.435012 -1.71346 0)
(0.335799 -1.94843 0)
(0.790043 0.620437 7.08115e-21)
(0.695979 1.56771 -4.22058e-14)
(0.543444 3.19732 0)
(0.338694 5.96366 0)
(0.749539 11.643 0)
(1.3891 14.7804 0)
(1.21903 14.9742 0)
(1.17412 14.8666 0)
(1.11123 14.7543 0)
(1.08394 14.6701 0)
(1.11986 14.5999 0)
(1.14041 14.4803 0)
(1.53645 14.1695 0)
(1.46059 10.8627 0)
(0.723553 0.719372 -6.59309e-14)
(0.746508 0.0687027 4.06579e-14)
(0.720517 -0.430855 0)
(0.665492 -0.867633 -6.17348e-14)
(0.58483 -1.24931 0)
(0.489651 -1.57319 -3.0872e-14)
(0.392554 -1.85151 0)
(0.30026 -2.09564 0)
(0.639632 1.7173 0)
(0.510793 3.34082 0)
(0.395818 5.96914 0)
(0.762571 10.9509 0)
(1.46596 14.5952 0)
(1.34586 14.9252 0)
(1.30646 14.8167 0)
(1.25374 14.682 0)
(1.23642 14.568 0)
(1.28348 14.4616 0)
(1.34147 14.283 0)
(1.74788 13.874 0)
(1.79154 10.4423 0)
(0.590314 1.85007 0)
(0.648142 0.836967 2.26393e-14)
(0.66078 0.136222 0)
(0.642358 -0.423235 0)
(0.596211 -0.909662 2.99925e-14)
(0.524662 -1.33032 2.87747e-14)
(0.437849 -1.68108 2.99962e-14)
(0.348225 -1.9758 3.11589e-14)
(0.262949 -2.22806 0)
(0.495162 3.44752 -4.20281e-14)
(0.447473 5.90669 0)
(0.759284 10.2616 0)
(1.50393 14.3216 0)
(1.46479 14.8694 0)
(1.43123 14.762 0)
(1.38673 14.605 0)
(1.37621 14.4611 0)
(1.42735 14.3166 0)
(1.5101 14.0817 0)
(1.8965 13.5748 0)
(1.98183 10.3417 0)
(2.42954 8.97992 0)
(0.491047 3.5141 3.89538e-14)
(0.539374 1.98003 -2.48194e-14)
(0.573851 0.955605 8.15563e-21)
(0.584189 0.202144 3.83228e-14)
(0.568629 -0.408427 0)
(0.528076 -0.940792 0)
(0.463716 -1.39891 -2.79546e-14)
(0.384411 -1.77557 0)
(0.302069 -2.08548 -3.02586e-14)
(0.223985 -2.34427 0)
(0.48888 5.79177 0)
(0.742174 9.59854 0)
(1.51216 13.9372 0)
(1.56797 14.803 0)
(1.5452 14.7057 0)
(1.50809 14.5259 0)
(1.50208 14.3531 0)
(1.55231 14.1712 0)
(1.64789 13.8857 0)
(1.98488 13.2969 0)
(2.10968 10.2245 0)
(2.23171 8.60246 0)
(0.50745 5.63218 0)
(0.475115 3.53835 0)
(0.491124 2.08294 -8.84189e-21)
(0.50993 1.05023 -2.11345e-14)
(0.513803 0.262184 2.0343e-20)
(0.497623 -0.389916 -3.23742e-14)
(0.460202 -0.963103 0)
(0.401598 -1.45577 0)
(0.329231 -1.85628 0)
(0.254154 -2.17942 -2.93847e-14)
(0.183514 -2.44267 0)
(0.713287 8.98942 0)
(1.48784 13.4322 0)
(1.65188 14.7155 0)
(1.64388 14.6504 0)
(1.61528 14.448 0)
(1.61299 14.2477 0)
(1.65971 14.0302 0)
(1.75765 13.7018 0)
(2.03852 13.0514 0)
(2.20986 10.171 0)
(2.80878 10.1014 0)
(2.16484 8.41786 0)
(0.682344 8.44217 0)
(0.503331 5.41297 0)
(0.45318 3.51613 2.60018e-14)
(0.446443 2.1454 2.31009e-14)
(0.449859 1.1244 0)
(0.44595 0.315649 2.91823e-20)
(0.427334 -0.369205 3.13847e-14)
(0.391587 -0.977479 -2.74484e-14)
(0.337909 -1.50085 0)
(0.272263 -1.92237 2.74919e-14)
(0.204595 -2.25627 -6.16275e-20)
(0.141716 -2.52156 0)
(1.41868 12.7789 0)
(1.71672 14.6097 0)
(1.72418 14.5932 0)
(1.706 14.3733 0)
(1.70782 14.1481 0)
(1.75024 13.8975 0)
(1.84245 13.5324 0)
(2.08051 12.8389 0)
(2.24505 10.2127 0)
(3.89834 12.8073 0)
(2.44718 9.43946 0)
(2.11422 8.46045 0)
(1.30956 12.0337 0)
(0.655969 7.86847 0)
(0.486064 5.16666 0)
(0.42185 3.46774 -5.01583e-14)
(0.398333 2.18306 0)
(0.389227 1.18386 -1.96723e-14)
(0.37773 0.363786 -6.942e-14)
(0.356064 -0.346209 0)
(0.321398 -0.983741 2.6643e-14)
(0.272408 -1.5335 0)
(0.213549 -1.9727 -2.67046e-14)
(0.153561 -2.3145 -8.08196e-20)
(0.0987989 -2.57918 0)
(1.75029 14.4406 0)
(1.78589 14.5313 0)
(1.77859 14.304 0)
(1.78575 14.0563 0)
(1.8242 13.7768 0)
(1.90656 13.379 0)
(2.11246 12.6519 0)
(2.24767 10.2983 0)
(4.91906 14.9989 0)
(3.28918 11.8946 0)
(2.18385 9.00235 0)
(2.07627 8.58342 0)
(1.73556 14.1702 0)
(1.15833 11.1242 0)
(0.617662 7.30572 0)
(0.450205 4.94718 0)
(0.37852 3.41273 2.4183e-14)
(0.344308 2.20837 0)
(0.325356 1.23389 -2.43194e-20)
(0.307145 0.40891 3.35525e-14)
(0.28262 -0.319744 0)
(0.249179 -0.980959 0)
(0.205029 -1.55259 0)
(0.153234 -2.00587 2.59435e-14)
(0.101281 -2.35249 2.69232e-14)
(0.0549961 -2.61376 -1.39127e-14)
(1.82771 14.4721 0)
(1.83247 14.2419 0)
(1.84561 13.9746 0)
(1.88188 13.6702 0)
(1.95345 13.2445 0)
(2.12639 12.4975 0)
(2.23846 10.3992 0)
(5.51827 16.1863 0)
(4.25884 14.2345 0)
(2.80499 11.0894 0)
(2.0177 8.75271 0)
(2.04493 8.77955 0)
(1.85278 14.4029 0)
(1.6504 13.6757 0)
(0.986843 10.1635 0)
(0.55749 6.84307 0)
(0.398343 4.75856 0)
(0.324937 3.3627 -2.33095e-14)
(0.28349 2.22834 2.06915e-14)
(0.256776 1.27908 -3.19868e-20)
(0.233053 0.453768 0)
(0.206509 -0.288093 0)
(0.174793 -0.967783 2.51108e-14)
(0.135901 -1.55676 -2.41729e-14)
(0.0915621 -2.02039 -2.52084e-14)
(0.0480125 -2.36861 0)
(0.0105585 -2.62355 -7.29409e-20)
(1.86655 14.1883 0)
(1.88703 13.9029 0)
(1.92304 13.5795 0)
(1.98538 13.1313 0)
(2.12555 12.3756 0)
(2.22008 10.5084 0)
(5.70148 16.6461 0)
(4.96923 15.7507 0)
(3.67008 13.4403 0)
(2.43918 10.4002 0)
(1.95682 8.66216 0)
(2.01939 9.01636 0)
(1.88172 14.1454 0)
(1.83124 14.2954 0)
(1.48289 12.9259 0)
(0.828241 9.36498 0)
(0.482106 6.4613 0)
(0.335705 4.60233 0)
(0.26237 3.3213 4.49359e-14)
(0.21561 2.24792 -1.99543e-14)
(0.18294 1.32335 -4.07139e-20)
(0.15526 0.50105 0)
(0.12766 -0.249348 0)
(0.0983968 -0.942667 -2.43852e-14)
(0.0652862 -1.54456 2.34885e-14)
(0.0288059 -2.01473 0)
(-0.00600866 -2.36122 2.54137e-14)
(-0.0343477 -2.60667 2.62374e-14)
(1.9086 13.8432 0)
(1.94784 13.5043 0)
(2.00302 13.041 0)
(2.11422 12.2846 0)
(2.19274 10.6237 0)
(5.65891 16.7621 0)
(5.29589 16.4724 0)
(4.42175 15.2166 0)
(3.16243 12.6609 0)
(2.18503 9.86264 0)
(1.92505 8.65967 0)
(2.00598 9.28439 0)
(1.91092 13.7947 0)
(1.86439 14.1145 0)
(1.75283 14.0805 0)
(1.27292 12.0321 0)
(0.689054 8.71368 0)
(0.397733 6.1494 0)
(0.264816 4.47604 2.45452e-14)
(0.191663 3.29066 -4.33137e-14)
(0.14102 2.27053 0)
(0.104263 1.36981 3.41936e-14)
(0.0739301 0.553193 0)
(0.0463623 -0.201647 -2.691e-14)
(0.0202956 -0.904104 -2.36833e-14)
(-0.00655881 -1.51459 0)
(-0.0348718 -1.98739 -2.37951e-14)
(-0.0606867 -2.32858 1.64179e-19)
(-0.0798318 -2.56123 -1.27352e-14)
(1.95509 13.4447 0)
(2.00745 12.9726 0)
(2.09411 12.2225 0)
(2.15911 10.7397 0)
(5.51782 16.7397 0)
(5.35115 16.7274 0)
(4.86381 16.2064 0)
(3.89815 14.6082 0)
(2.74386 11.9375 0)
(2.01749 9.49011 0)
(1.89337 8.72719 0)
(1.99101 9.55186 0)
(1.94462 13.399 0)
(1.88279 13.7568 0)
(1.8097 14.0609 0)
(1.61721 13.7079 0)
(1.05283 11.1726 0)
(0.561829 8.18185 0)
(0.308231 5.89789 0)
(0.186643 4.37583 -2.36749e-14)
(0.113754 3.27178 2.08801e-14)
(0.0607803 2.29866 0)
(0.0212344 1.42102 -1.6525e-14)
(-0.0104083 0.612287 2.93824e-14)
(-0.0370199 -0.143374 2.60941e-14)
(-0.0593265 -0.850645 2.29849e-14)
(-0.0795229 -1.46533 0)
(-0.0993574 -1.93671 2.31052e-14)
(-0.116028 -2.26885 -2.39595e-14)
(-0.125537 -2.48521 0)
(1.99796 12.9251 0)
(2.06865 12.188 0)
(2.11834 10.8541 0)
(5.30851 16.6529 0)
(5.26549 16.7753 0)
(5.02209 16.6391 0)
(4.42143 15.855 0)
(3.42082 13.9578 0)
(2.41921 11.3069 0)
(1.89615 9.26029 0)
(1.8653 8.89801 0)
(1.96746 9.80751 0)
(1.9738 12.8959 0)
(1.90453 13.3621 0)
(1.81946 13.7347 0)
(1.71813 13.9934 0)
(1.42694 13.1998 0)
(0.841488 10.4195 0)
(0.440997 7.74941 0)
(0.214533 5.69469 0)
(0.101913 4.29985 0)
(0.0300515 3.26544 -2.01393e-14)
(-0.0243765 2.33421 -1.79322e-14)
(-0.0653515 1.47895 1.59561e-14)
(-0.0972691 0.680035 -5.68079e-14)
(-0.122227 -0.0729637 0)
(-0.140262 -0.780773 2.23044e-14)
(-0.153476 -1.39522 2.15162e-14)
(-0.164626 -1.86094 0)
(-0.171687 -2.18011 0)
(-0.171081 -2.37656 0)
(2.03494 12.1795 0)
(2.07336 10.9684 0)
(5.05476 16.5325 0)
(5.10761 16.7247 0)
(4.99972 16.7743 0)
(4.67168 16.4861 0)
(3.98165 15.4264 0)
(3.00224 13.3028 0)
(2.17053 10.7877 0)
(1.80051 9.15523 0)
(1.84589 9.12883 0)
(1.93395 10.0478 0)
(1.99245 12.193 0)
(1.92206 12.881 0)
(1.83036 13.3414 0)
(1.72749 13.7229 0)
(1.58683 13.8721 0)
(1.19775 12.5493 0)
(0.654069 9.79057 0)
(0.321423 7.39492 0)
(0.116566 5.53357 0)
(0.0119766 4.24649 0)
(-0.0584382 3.27206 -7.48526e-20)
(-0.113313 2.37852 3.45718e-14)
(-0.154812 1.54521 -1.54056e-14)
(-0.18633 0.758186 2.74647e-14)
(-0.209095 0.0113197 0)
(-0.222435 -0.692895 -4.32995e-14)
(-0.228358 -1.30256 -2.08976e-14)
(-0.230294 -1.75824 0)
(-0.227121 -2.06041 0)
(-0.215668 -2.23353 0)
(2.02487 11.0847 0)
(4.76814 16.3973 0)
(4.8945 16.6245 0)
(4.89081 16.7737 0)
(4.72653 16.7405 0)
(4.30779 16.2652 0)
(3.55706 14.9362 0)
(2.64311 12.6819 0)
(1.97614 10.3706 0)
(1.75862 9.17252 0)
(1.82381 9.38061 0)
(1.89098 10.2743 0)
(1.97086 11.2041 0)
(1.92726 12.2312 0)
(1.83876 12.8835 0)
(1.73153 13.3365 0)
(1.61364 13.7153 0)
(1.41646 13.6397 0)
(0.961903 11.8675 0)
(0.486912 9.27157 0)
(0.200735 7.10753 0)
(0.0154118 5.41059 0)
(-0.0810761 4.21413 0)
(-0.15058 3.29195 -8.65281e-20)
(-0.205424 2.43282 -1.66736e-14)
(-0.246941 1.62158 0)
(-0.277479 0.848577 0)
(-0.297497 0.111067 -2.37086e-14)
(-0.3057 -0.585335 4.20398e-14)
(-0.30365 -1.18564 2.03024e-14)
(-0.295573 -1.62681 0)
(-0.281267 -1.9082 0)
(-0.258155 -2.05496 -1.13408e-14)
(4.45678 16.2582 0)
(4.64011 16.4983 0)
(4.71845 16.7041 0)
(4.65774 16.8042 0)
(4.43312 16.6621 0)
(3.9396 15.9795 0)
(3.16176 14.4073 0)
(2.34294 12.1165 0)
(1.8352 10.0616 0)
(1.74121 9.24324 0)
(1.79578 9.63576 0)
(1.82808 10.5249 0)
(1.89817 11.3486 0)
(1.83533 12.2925 0)
(1.73503 12.8987 0)
(1.61428 13.3429 0)
(1.4772 13.6701 0)
(1.21758 13.2934 0)
(0.736117 11.2337 0)
(0.330183 8.84389 0)
(0.0808893 6.88004 0)
(-0.0871284 5.32085 0)
(-0.177674 4.2014 0)
(-0.245981 3.3254 1.80064e-14)
(-0.300581 2.49857 0)
(-0.341516 1.70978 -1.43839e-14)
(-0.370426 0.952742 -2.57098e-14)
(-0.387104 0.227911 2.29689e-14)
(-0.389299 -0.456567 1.92553e-19)
(-0.37825 -1.0429 -3.94619e-14)
(-0.359058 -1.46536 2.05928e-14)
(-0.332643 -1.72259 0)
(-0.297056 -1.84096 2.20491e-14)
(4.12664 16.1215 0)
(4.35477 16.3609 0)
(4.49806 16.5932 0)
(4.52707 16.7687 0)
(4.41607 16.8035 0)
(4.12563 16.5328 0)
(3.57532 15.6348 0)
(2.80583 13.8649 0)
(2.10223 11.6218 0)
(1.74297 9.88008 0)
(1.70885 9.36752 0)
(1.74875 9.9321 0)
(1.74036 10.7893 0)
(1.80265 11.513 0)
(1.7282 12.3599 0)
(1.61489 12.9211 0)
(1.48076 13.3517 0)
(1.31312 13.5915 0)
(0.997175 12.8737 0)
(0.52435 10.6815 0)
(0.181607 8.49865 0)
(-0.0386359 6.70248 0)
(-0.192188 5.25985 0)
(-0.277287 4.20729 0)
(-0.344516 3.3732 -1.73641e-14)
(-0.398316 2.57718 0)
(-0.43798 1.81116 -1.11325e-19)
(-0.464545 1.07211 2.48902e-14)
(-0.47679 0.36307 -2.22574e-14)
(-0.471702 -0.305328 -3.96506e-14)
(-0.450393 -0.873377 3.83552e-14)
(-0.418905 -1.2734 -2.0022e-14)
(-0.379355 -1.50391 1.0386e-14)
(-0.330845 -1.59258 -1.07256e-14)
(3.7823 15.9909 0)
(4.04555 16.2216 0)
(4.2406 16.4618 0)
(4.34206 16.6797 0)
(4.32299 16.8145 0)
(4.16726 16.7752 0)
(3.81228 16.3527 0)
(3.22233 15.2409 0)
(2.4934 13.334 0)
(1.91731 11.218 0)
(1.67236 9.79658 0)
(1.65972 9.58681 0)
(1.67304 10.2517 0)
(1.64344 11.0273 0)
(1.69706 11.6677 0)
(1.60761 12.4253 0)
(1.48056 12.9456 0)
(1.32753 13.3473 0)
(1.12677 13.4541 0)
(0.764889 12.3812 0)
(0.33211 10.2189 0)
(0.0387582 8.21977 0)
(-0.157285 6.5675 0)
(-0.299202 5.2249 0)
(-0.379715 4.2315 -9.47708e-15)
(-0.445393 3.43593 3.35098e-14)
(-0.497724 2.6693 0)
(-0.53535 1.92649 -1.20652e-19)
(-0.558261 1.20734 0)
(-0.564579 0.517235 2.15747e-14)
(-0.550705 -0.131291 3.84816e-14)
(-0.51778 -0.676929 2.19308e-19)
(-0.472817 -1.05136 0)
(-0.419471 -1.25346 -2.02124e-14)
(-0.357661 -1.31294 0)
(3.43009 15.8684 0)
(3.71791 16.0859 0)
(3.95419 16.3226 0)
(4.11392 16.5591 0)
(4.17256 16.7552 0)
(4.10573 16.8445 0)
(3.90312 16.7109 0)
(3.49776 16.1228 0)
(2.88837 14.8127 0)
(2.22683 12.8396 0)
(1.77357 10.9073 0)
(1.59707 9.80578 0)
(1.58989 9.87115 0)
(1.58684 10.5421 0)
(1.5374 11.2364 0)
(1.58133 11.8063 0)
(1.47475 12.4833 0)
(1.33124 12.965 0)
(1.16061 13.3209 0)
(0.924068 13.2401 0)
(0.537742 11.888 0)
(0.157052 9.83563 0)
(-0.0990893 7.99695 0)
(-0.275712 6.46985 0)
(-0.408068 5.21396 0)
(-0.483755 4.27326 -6.72505e-20)
(-0.547353 3.51305 -3.2356e-14)
(-0.597436 2.77472 0)
(-0.631589 2.05588 2.60501e-14)
(-0.64916 1.35852 0)
(-0.647832 0.690388 0)
(-0.623613 0.0655395 -1.86715e-14)
(-0.577588 -0.454398 -1.81373e-14)
(-0.518366 -0.801029 1.89518e-14)
(-0.450681 -0.974743 9.83536e-15)
(-0.376111 -1.00712 0)
(3.08998 15.7575 0)
(3.37892 15.9572 0)
(3.64504 16.1835 0)
(3.85197 16.4234 0)
(3.97468 16.6509 0)
(3.9902 16.8176 0)
(3.88214 16.8488 0)
(3.63026 16.6071 0)
(3.18714 15.8473 0)
(2.58236 14.3677 0)
(2.00348 12.3976 0)
(1.6357 10.6532 0)
(1.51935 9.91964 0)
(1.51342 10.1562 0)
(1.49112 10.7988 0)
(1.42024 11.4154 0)
(1.45471 11.9253 0)
(1.32968 12.5304 0)
(1.17069 12.9725 0)
(0.98332 13.257 0)
(0.710811 12.9535 0)
(0.325253 11.4358 0)
(-0.00669721 9.51748 0)
(-0.233424 7.82295 0)
(-0.394067 6.40435 0)
(-0.517224 5.22416 0)
(-0.587855 4.33045 8.82076e-15)
(-0.648705 3.60325 1.5628e-14)
(-0.69499 2.8927 -1.40462e-14)
(-0.723898 2.19856 -1.26153e-14)
(-0.734302 1.52496 -2.26428e-14)
(-0.723434 0.881584 0)
(-0.687034 0.283434 -1.81223e-14)
(-0.627 -0.208065 0)
(-0.552844 -0.526179 -1.84469e-14)
(-0.471456 -0.672775 0)
(-0.38563 -0.681259 0)
(2.77302 15.657 0)
(3.04892 15.8404 0)
(3.32082 16.0497 0)
(3.563 16.283 0)
(3.73849 16.5224 0)
(3.82313 16.7352 0)
(3.79771 16.8642 0)
(3.65299 16.8291 0)
(3.35436 16.4638 0)
(2.88628 15.5329 0)
(2.30777 13.9212 0)
(1.78721 11.9603 0)
(1.50776 10.5129 0)
(1.44404 10.0841 0)
(1.42927 10.4246 0)
(1.38325 11.0209 0)
(1.2918 11.5656 0)
(1.31693 12.0231 0)
(1.17494 12.5637 0)
(1.00239 12.9614 0)
(0.794588 13.152 0)
(0.495929 12.6277 0)
(0.128069 11.0386 0)
(-0.161724 9.25732 0)
(-0.364559 7.68988 0)
(-0.51064 6.36537 0)
(-0.625048 5.25174 0)
(-0.690198 4.4006 8.51622e-15)
(-0.746707 3.70459 -1.51099e-14)
(-0.787412 3.02146 1.3597e-14)
(-0.809089 2.35292 -1.22271e-14)
(-0.810274 1.70517 2.19602e-14)
(-0.787716 1.08879 0)
(-0.737969 0.52 1.76031e-14)
(-0.663068 0.0583038 0)
(-0.574702 -0.231644 0)
(-0.481163 -0.353624 0)
(-0.386139 -0.342664 0)
(2.47449 15.5615 0)
(2.73977 15.7349 0)
(3.00219 15.9273 0)
(3.25513 16.1453 0)
(3.47123 16.3834 0)
(3.61356 16.6182 0)
(3.65994 16.8099 0)
(3.593 16.8952 0)
(3.41279 16.7812 0)
(3.0791 16.2817 0)
(2.59845 15.1847 0)
(2.02622 13.4212 0)
(1.59152 11.6046 0)
(1.4062 10.5003 0)
(1.36182 10.2881 0)
(1.33223 10.6676 0)
(1.26346 11.2107 0)
(1.15363 11.6873 0)
(1.16985 12.0988 0)
(1.01333 12.5806 0)
(0.826234 12.9251 0)
(0.597373 12.9977 0)
(0.285778 12.2826 0)
(-0.055336 10.6957 0)
(-0.309308 9.04547 0)
(-0.490898 7.58884 0)
(-0.623967 6.34779 0)
(-0.729661 5.29315 0)
(-0.787858 4.4811 8.25667e-20)
(-0.838264 3.81477 -1.57393e-19)
(-0.871398 3.15903 0)
(-0.883626 2.5172 1.18541e-14)
(-0.87319 1.89669 1.06556e-14)
(-0.837691 1.30965 1.91323e-14)
(-0.773281 0.771557 0)
(-0.684273 0.340009 -1.66531e-14)
(-0.583301 0.0766519 0)
(-0.479805 -0.0243435 0)
(-0.378287 0.000857142 0)
(2.19034 15.4679 0)
(2.44757 15.6354 0)
(2.70181 15.817 0)
(2.94918 16.0181 0)
(3.18123 16.2434 0)
(3.36926 16.4836 0)
(3.47725 16.7091 0)
(3.48558 16.8732 0)
(3.38279 16.9089 0)
(3.16637 16.7016 0)
(2.80716 16.0599 0)
(2.28596 14.7503 0)
(1.76186 12.9498 0)
(1.43998 11.3949 0)
(1.31164 10.5628 0)
(1.27134 10.4975 0)
(1.22251 10.8835 0)
(1.13342 11.369 0)
(1.00801 11.7812 0)
(1.01598 12.1523 0)
(0.845787 12.5779 0)
(0.644319 12.8573 0)
(0.398712 12.8001 0)
(0.0838477 11.9328 0)
(-0.222998 10.4038 0)
(-0.448342 8.87142 0)
(-0.611487 7.51436 0)
(-0.732406 6.34653 0)
(-0.82805 5.34486 0)
(-0.877766 4.56904 -7.96456e-15)
(-0.920064 3.93128 2.83158e-14)
(-0.943273 3.303 -1.27692e-14)
(-0.943646 2.68862 0)
(-0.920275 2.09727 1.26499e-19)
(-0.870014 1.54056 -3.71786e-14)
(-0.79168 1.03359 0)
(-0.690078 0.631535 1.61972e-14)
(-0.578815 0.392095 0)
(-0.468323 0.30773 0)
(-0.363441 0.341896 9.15528e-15)
(1.91782 15.3752 0)
(2.16871 15.5386 0)
(2.41672 15.7136 0)
(2.65862 15.9033 0)
(2.88929 16.1124 0)
(3.09855 16.3433 0)
(3.25681 16.5823 0)
(3.32987 16.7933 0)
(3.30156 16.9225 0)
(3.17025 16.8987 0)
(2.91864 16.588 0)
(2.49983 15.7557 0)
(1.97757 14.289 0)
(1.55108 12.6019 0)
(1.31273 11.2871 0)
(1.21703 10.6706 0)
(1.17027 10.6997 0)
(1.10206 11.0703 0)
(0.995229 11.4965 0)
(0.856573 11.8484 0)
(0.856756 12.1833 0)
(0.673917 12.5518 0)
(0.460983 12.7547 0)
(0.20432 12.5663 0)
(-0.102973 11.6007 0)
(-0.376932 10.1534 0)
(-0.578166 8.72837 0)
(-0.724788 7.4589 0)
(-0.83306 6.35654 0)
(-0.917263 5.40304 0)
(-0.956673 4.66124 -7.71044e-15)
(-0.98852 4.0512 -2.74464e-14)
(-0.999368 3.45011 -1.48704e-19)
(-0.986599 2.8649 0)
(-0.948078 2.30319 -1.00535e-14)
(-0.883895 1.77721 1.80758e-14)
(-0.792886 1.30126 0)
(-0.68095 0.926916 0)
(-0.562563 0.708025 0)
(-0.448509 0.635823 8.61332e-15)
(1.65578 15.2849 0)
(1.90062 15.4432 0)
(2.14381 15.6136 0)
(2.38147 15.7961 0)
(2.60963 15.9936 0)
(2.82193 16.2097 0)
(3.00661 16.4441 0)
(3.13381 16.678 0)
(3.17202 16.8689 0)
(3.10746 16.9576 0)
(2.94934 16.8648 0)
(2.63168 16.4126 0)
(2.18066 15.3991 0)
(1.71953 13.8996 0)
(1.37803 12.3536 0)
(1.19753 11.251 0)
(1.11878 10.8013 0)
(1.0591 10.8865 0)
(0.972742 11.2274 0)
(0.850555 11.5945 0)
(0.701069 11.8898 0)
(0.693816 12.1909 0)
(0.500812 12.4984 0)
(0.279697 12.6178 0)
(0.0165949 12.3069 0)
(-0.273738 11.2941 0)
(-0.518024 9.93483 0)
(-0.697831 8.60659 0)
(-0.828126 7.41633 0)
(-0.923204 6.37299 0)
(-0.994087 5.46401 0)
(-1.02105 4.75456 7.47448e-15)
(-1.04021 4.17117 2.66273e-14)
(-1.03746 3.59868 1.20284e-14)
(-1.00897 3.04213 -1.08516e-14)
(-0.956549 2.51074 0)
(-0.879363 2.01571 0)
(-0.777759 1.56956 0)
(-0.658712 1.22041 1.5351e-14)
(-0.536855 1.01846 1.61129e-14)
(1.39755 15.1975 0)
(1.64215 15.3502 0)
(1.88071 15.5155 0)
(2.1152 15.693 0)
(2.34132 15.8828 0)
(2.55428 16.0875 0)
(2.74655 16.3093 0)
(2.90508 16.5448 0)
(3.00041 16.7693 0)
(3.00439 16.9341 0)
(2.90975 16.9787 0)
(2.68586 16.7915 0)
(2.3246 16.1866 0)
(1.89901 15.0648 0)
(1.50179 13.5779 0)
(1.22943 12.1847 0)
(1.08737 11.2686 0)
(1.01276 10.9405 0)
(0.939069 11.053 0)
(0.83611 11.3551 0)
(0.701243 11.6647 0)
(0.543971 11.9057 0)
(0.529787 12.174 0)
(0.329484 12.4166 0)
(0.102293 12.4483 0)
(-0.159542 12.0321 0)
(-0.428151 11.0119 0)
(-0.645634 9.73917 0)
(-0.804967 8.50045 0)
(-0.919157 7.38091 0)
(-0.999796 6.3913 0)
(-1.05514 5.52423 0)
(-1.06794 4.84557 0)
(-1.0732 4.29002 -2.58454e-14)
(-1.0541 3.74473 1.16864e-14)
(-1.01171 3.2177 -1.17983e-19)
(-0.945998 2.71704 9.50917e-15)
(-0.857734 2.25207 0)
(-0.748678 1.83386 0)
(-0.626237 1.50708 -1.4956e-14)
(1.16162 15.1211 0)
(1.38663 15.2601 0)
(1.62632 15.42 0)
(1.85772 15.5923 0)
(2.08244 15.7767 0)
(2.29573 15.9736 0)
(2.49202 16.1847 0)
(2.6627 16.4106 0)
(2.7938 16.644 0)
(2.85703 16.8544 0)
(2.8287 16.9866 0)
(2.67687 16.9755 0)
(2.39866 16.6795 0)
(2.04379 15.9535 0)
(1.65125 14.7558 0)
(1.31434 13.3207 0)
(1.09574 12.0821 0)
(0.976788 11.3224 0)
(0.898698 11.0805 0)
(0.811188 11.1968 0)
(0.694056 11.4548 0)
(0.549743 11.7083 0)
(0.387752 11.8972 0)
(0.367228 12.1324 0)
(0.161925 12.3066 0)
(-0.0668506 12.2512 0)
(-0.320939 11.751 0)
(-0.565423 10.7516 0)
(-0.757927 9.56102 0)
(-0.897634 8.40287 0)
(-0.995183 7.3473 0)
(-1.0597 6.40763 0)
(-1.09795 5.58008 0)
(-1.09564 4.93379 0)
(-1.08428 4.40367 2.51081e-14)
(-1.05131 3.88703 1.24311e-19)
(-0.995301 3.39001 1.0261e-14)
(-0.918204 2.91937 9.05654e-20)
(-0.82196 2.48305 0)
(-0.709097 2.0905 -1.49431e-14)
(-0.586993 1.78317 -1.4581e-14)
(0.964854 15.0585 0)
(1.1525 15.1809 0)
(1.37399 15.3271 0)
(1.60797 15.4943 0)
(1.83125 15.6735 0)
(2.04506 15.8648 0)
(2.24419 16.0681 0)
(2.42234 16.2846 0)
(2.57001 16.5126 0)
(2.6728 16.7405 0)
(2.70459 16.9316 0)
(2.6135 17.0329 0)
(2.41313 16.9499 0)
(2.13046 16.5485 0)
(1.78772 15.7174 0)
(1.43372 14.4803 0)
(1.14947 13.1257 0)
(0.969508 12.0318 0)
(0.862661 11.3972 0)
(0.777863 11.212 0)
(0.677179 11.3169 0)
(0.548994 11.5278 0)
(0.398488 11.7271 0)
(0.234294 11.8656 0)
(0.207939 12.0667 0)
(0.0013067 12.1697 0)
(-0.224724 12.0311 0)
(-0.465258 11.4728 0)
(-0.684613 10.5069 0)
(-0.853647 9.39366 0)
(-0.973712 8.30819 0)
(-1.05355 7.31163 0)
(-1.10082 6.41921 0)
(-1.12103 5.6314 0)
(-1.1014 5.01462 0)
(-1.0765 4.51255 -1.21992e-14)
(-1.0296 4.02484 -2.209e-14)
(-0.961968 3.55732 0)
(-0.876595 3.11572 -1.8024e-14)
(-0.775962 2.70629 1.62414e-14)
(-0.662956 2.33701 1.45685e-14)
(-0.544638 2.04637 -9.77086e-20)
(0.799567 15.0008 0)
(0.956921 15.116 0)
(1.142 15.2451 0)
(1.35935 15.3987 0)
(1.58676 15.5733 0)
(1.80086 15.7593 0)
(2.00255 15.957 0)
(2.18619 16.1661 0)
(2.34479 16.3866 0)
(2.46828 16.6142 0)
(2.54245 16.8328 0)
(2.51486 17.0115 0)
(2.37297 17.0704 0)
(2.16093 16.9019 0)
(1.8801 16.4014 0)
(1.5553 15.4873 0)
(1.2408 14.2448 0)
(0.999663 12.9851 0)
(0.846038 12.0197 0)
(0.744338 11.4821 0)
(0.651202 11.3304 0)
(0.539314 11.4133 0)
(0.403335 11.576 0)
(0.249415 11.723 0)
(0.0858032 11.812 0)
(0.0544711 11.9773 0)
(-0.149831 12.0095 0)
(-0.368604 11.7951 0)
(-0.590974 11.1996 0)
(-0.785183 10.2741 0)
(-0.931166 9.23198 0)
(-1.03122 8.21297 0)
(-1.09256 7.2716 0)
(-1.12311 6.42351 0)
(-1.12175 5.67557 0)
(-1.08937 5.09078 0)
(-1.05034 4.61634 -1.18598e-14)
(-0.991643 4.15746 1.07471e-14)
(-0.915579 3.71899 0)
(-0.825454 3.3051 -6.92748e-20)
(-0.724039 2.92057 1.14537e-19)
(-0.614284 2.57203 0)
(-0.502476 2.2958 2.77518e-14)
(0.659469 14.9339 0)
(0.792532 15.0564 0)
(0.947855 15.1778 0)
(1.12993 15.3138 0)
(1.34243 15.475 0)
(1.56229 15.6569 0)
(1.76609 15.8495 0)
(1.95442 16.0531 0)
(2.12123 16.2671 0)
(2.25903 16.4899 0)
(2.35749 16.7145 0)
(2.37766 16.9351 0)
(2.29664 17.0846 0)
(2.14435 17.0792 0)
(1.9225 16.8339 0)
(1.6474 16.2443 0)
(1.34371 15.2715 0)
(1.06601 14.0505 0)
(0.859254 12.8891 0)
(0.722984 12.0338 0)
(0.621829 11.5691 0)
(0.520368 11.4331 0)
(0.399918 11.487 0)
(0.259082 11.6016 0)
(0.104593 11.6977 0)
(-0.0556011 11.7391 0)
(-0.0908592 11.8668 0)
(-0.289132 11.8298 0)
(-0.49597 11.5494 0)
(-0.697252 10.9332 0)
(-0.866211 10.0504 0)
(-0.989264 9.07323 0)
(-1.06893 8.11539 0)
(-1.11175 7.22464 0)
(-1.12213 6.42307 0)
(-1.10628 5.71446 0)
(-1.05949 5.16161 0)
(-1.00884 4.71544 1.15309e-14)
(-0.941596 4.28548 0)
(-0.8606 3.87517 0)
(-0.769248 3.48735 -5.99997e-20)
(-0.670417 3.12555 -1.54387e-14)
(-0.566625 2.79545 0)
(-0.463223 2.53185 -2.70937e-14)
(0.539457 14.8269 0)
(0.65319 14.9883 0)
(0.784534 15.1163 0)
(0.937494 15.2441 0)
(1.11604 15.3874 0)
(1.32289 15.5562 0)
(1.53416 15.7451 0)
(1.7265 15.9439 0)
(1.9002 16.1527 0)
(2.04891 16.3703 0)
(2.16481 16.5936 0)
(2.21558 16.8295 0)
(2.18483 17.037 0)
(2.08424 17.1386 0)
(1.92154 17.0728 0)
(1.69768 16.7499 0)
(1.43132 16.0846 0)
(1.15017 15.0759 0)
(0.904725 13.8949 0)
(0.724545 12.8278 0)
(0.599077 12.0649 0)
(0.495951 11.6527 0)
(0.387362 11.5188 0)
(0.261054 11.5396 0)
(0.118258 11.6064 0)
(-0.0339516 11.6539 0)
(-0.187552 11.6501 0)
(-0.225725 11.7387 0)
(-0.414238 11.6354 0)
(-0.605388 11.2999 0)
(-0.783454 10.675 0)
(-0.927186 9.83406 0)
(-1.02737 8.91622 0)