/*--------------------------------*- C++ -*----------------------------------*\
  =========                 |
  \\      /  F ield         | OpenFOAM: The Open Source CFD Toolbox
   \\    /   O peration     | Website:  https://openfoam.org
    \\  /    A nd           | Version:  8
     \\/     M anipulation  |
\*---------------------------------------------------------------------------*/
FoamFile
{
    version     2.0;
    format      ascii;
    class       surfaceScalarField;
    location    "0.39";
    object      phi;
}
// * * * * * * * * * * * * * * * * * * * * * * * * * * * * * * * * * * * * * //

dimensions      [0 3 -1 0 0 0 0];

internalField   nonuniform List<scalar> 
31053
(
6.39881e-07
1.27401e-05
8.6263e-07
1.51573e-05
3.56929e-07
1.23832e-05
9.47983e-07
1.75546e-05
5.66581e-07
1.49476e-05
2.74761e-07
1.21084e-05
9.72331e-07
2.02157e-05
6.80748e-07
1.74405e-05
4.70037e-07
1.47523e-05
2.16249e-07
1.18922e-05
9.63339e-07
2.3249e-05
7.38826e-07
2.01576e-05
5.95287e-07
1.73152e-05
3.95995e-07
1.45726e-05
1.71977e-07
1.17202e-05
9.32996e-07
2.66903e-05
7.6315e-07
2.32247e-05
6.69648e-07
2.00832e-05
5.2269e-07
1.71885e-05
3.32226e-07
1.44123e-05
1.37917e-07
1.15823e-05
8.87111e-07
3.06659e-05
7.65493e-07
2.6688e-05
7.10817e-07
2.31835e-05
6.02935e-07
2.0003e-05
4.53929e-07
1.70668e-05
2.78582e-07
1.42717e-05
1.11175e-07
1.14711e-05
8.28895e-07
3.51982e-05
7.52289e-07
3.06791e-05
7.29658e-07
2.66692e-05
6.50254e-07
2.31362e-05
5.34393e-07
1.99225e-05
3.91539e-07
1.69539e-05
2.32283e-07
1.41506e-05
8.90496e-08
1.13821e-05
7.62025e-07
4.03869e-05
7.27566e-07
3.52229e-05
7.32572e-07
3.06762e-05
6.74695e-07
2.66447e-05
5.82702e-07
2.30879e-05
4.6866e-07
1.98454e-05
3.33909e-07
1.68522e-05
1.90934e-07
1.40487e-05
6.9717e-08
1.13123e-05
6.88905e-07
4.63531e-05
6.92554e-07
4.04219e-05
7.23266e-07
3.52322e-05
6.82234e-07
3.06686e-05
6.07871e-07
2.66195e-05
5.14848e-07
2.30417e-05
4.04763e-07
1.97745e-05
2.79322e-07
1.67639e-05
1.52722e-07
1.39657e-05
5.20298e-08
1.12603e-05
6.11463e-07
5.32174e-05
6.48894e-07
4.63968e-05
7.02182e-07
4.0443e-05
6.75903e-07
3.52386e-05
6.15815e-07
3.06607e-05
5.37745e-07
2.65967e-05
4.46185e-07
2.30003e-05
3.41467e-07
1.97124e-05
2.26351e-07
1.66902e-05
1.16358e-07
1.39013e-05
3.52188e-08
1.12251e-05
5.31735e-07
6.10597e-05
5.98252e-07
5.32681e-05
6.69964e-07
4.6429e-05
6.5846e-07
4.04604e-05
6.09927e-07
3.52445e-05
5.43117e-07
3.06553e-05
4.64269e-07
2.65786e-05
3.75811e-07
2.29659e-05
2.77577e-07
1.96612e-05
1.73895e-07
1.66327e-05
8.09113e-08
1.38556e-05
1.87766e-08
1.12063e-05
4.51666e-07
7.00621e-05
5.42117e-07
6.11159e-05
6.27596e-07
5.33105e-05
6.30712e-07
4.64567e-05
5.92397e-07
4.04779e-05
5.34419e-07
3.52532e-05
4.64393e-07
3.06552e-05
3.86799e-07
2.65676e-05
3.02582e-07
2.29409e-05
2.12081e-07
1.9623e-05
1.21175e-07
1.65924e-05
4.57116e-08
1.38287e-05
2.52632e-09
1.12038e-05
3.73154e-07
8.04105e-05
4.81825e-07
7.01224e-05
5.76203e-07
6.11673e-05
5.92767e-07
5.33484e-05
5.64245e-07
4.64849e-05
5.13599e-07
4.04988e-05
4.49934e-07
3.52676e-05
3.79241e-07
3.06628e-05
3.04193e-07
2.6566e-05
2.25475e-07
2.29275e-05
1.44316e-07
1.95998e-05
6.76047e-08
1.65705e-05
1.04027e-08
1.38208e-05
-1.37197e-08
1.12175e-05
3.09934e-07
7.62532e-05
4.18504e-07
8.04738e-05
5.17119e-07
7.01814e-05
5.44921e-07
6.12151e-05
5.25721e-07
5.33869e-05
4.81618e-07
4.65169e-05
4.22744e-07
4.05259e-05
3.56346e-07
3.52905e-05
2.86526e-07
3.06804e-05
2.15376e-07
2.65761e-05
1.43839e-07
2.2928e-05
7.38006e-08
1.95936e-05
1.28822e-08
1.65681e-05
-2.5193e-08
1.38323e-05
-3.01216e-08
1.12476e-05
2.5606e-07
7.62439e-05
3.63985e-07
7.63077e-05
4.51891e-07
8.05391e-05
4.87838e-07
7.02385e-05
4.76904e-07
6.12639e-05
4.38788e-07
5.34298e-05
3.83688e-07
4.65559e-05
3.19863e-07
4.05624e-05
2.52535e-07
3.53245e-05
1.85119e-07
3.07107e-05
1.19655e-07
2.66003e-05
5.72117e-08
2.29446e-05
3.80884e-10
1.96061e-05
-4.30608e-08
1.65859e-05
-6.11823e-08
1.38634e-05
-4.66704e-08
1.12943e-05
2.10385e-07
7.62357e-05
3.14632e-07
7.62932e-05
3.93965e-07
7.63657e-05
4.22674e-07
8.06042e-05
4.18072e-07
7.02974e-05
3.85164e-07
6.13175e-05
3.33042e-07
5.34804e-05
2.70547e-07
4.66053e-05
2.03811e-07
4.06112e-05
1.37311e-07
3.53723e-05
7.42638e-08
3.07561e-05
1.65753e-08
2.66409e-05
-3.44481e-08
2.29794e-05
-7.58258e-08
1.96389e-05
-1.00141e-07
1.66249e-05
-9.74603e-08
1.39142e-05
-6.3193e-08
1.13575e-05
1.71808e-07
7.62306e-05
2.69991e-07
7.62803e-05
3.40153e-07
7.6347e-05
3.63186e-07
7.64252e-05
3.50045e-07
8.06723e-05
3.20864e-07
7.03617e-05
2.70854e-07
6.13797e-05
2.08584e-07
5.35424e-05
1.4097e-07
4.66681e-05
7.33292e-08
4.06751e-05
9.84979e-09
3.54367e-05
-4.64956e-08
3.08191e-05
-9.38462e-08
2.67003e-05
-1.30851e-07
2.30344e-05
-1.54491e-07
1.96932e-05
-1.58025e-07
1.66854e-05
-1.33733e-07
1.39847e-05
-7.95543e-08
1.14371e-05
1.39352e-07
7.62225e-05
2.29694e-07
7.62709e-05
2.90408e-07
7.63301e-05
3.06843e-07
7.64034e-05
2.87284e-07
7.64879e-05
2.46497e-07
8.07466e-05
1.97207e-07
7.04353e-05
1.33991e-07
6.14543e-05
6.40739e-08
5.36193e-05
-6.40513e-09
4.67478e-05
-7.25001e-08
4.07575e-05
-1.30312e-07
3.55205e-05
-1.77092e-07
3.09024e-05
-2.11167e-07
2.67806e-05
-2.31415e-07
2.31114e-05
-2.34963e-07
1.97702e-05
-2.16168e-07
1.67679e-05
-1.69634e-07
1.40748e-05
-9.54927e-08
1.15325e-05
1.12142e-07
7.62172e-05
1.93394e-07
7.62588e-05
2.44616e-07
7.63167e-05
2.54046e-07
7.63829e-05
2.27448e-07
7.64632e-05
1.77768e-07
7.65566e-05
1.12661e-07
8.08312e-05
4.68564e-08
7.05224e-05
-2.69177e-08
6.15453e-05
-1.01988e-07
5.37148e-05
-1.72608e-07
4.68479e-05
-2.34143e-07
4.08613e-05
-2.83057e-07
3.56265e-05
-3.16913e-07
3.10081e-05
-3.34562e-07
2.68837e-05
-3.35168e-07
2.32116e-05
-3.16334e-07
1.98704e-05
-2.73903e-07
1.68722e-05
-2.04677e-07
1.4184e-05
-1.10824e-07
1.16434e-05
8.93963e-08
7.62127e-05
1.60753e-07
7.62499e-05
2.02636e-07
7.63007e-05
2.04966e-07
7.63657e-05
1.71225e-07
7.64391e-05
1.12225e-07
7.65288e-05
3.48516e-08
7.66345e-05
-5.21844e-08
8.09302e-05
-1.31896e-07
7.06274e-05
-2.1354e-07
6.16569e-05
-2.90775e-07
5.3833e-05
-3.58112e-07
4.69719e-05
-4.11425e-07
4.09897e-05
-4.47576e-07
3.57572e-05
-4.64903e-07
3.11385e-05
-4.62737e-07
2.70113e-05
-4.40781e-07
2.3336e-05
-3.97545e-07
1.9994e-05
-3.30423e-07
1.69979e-05
-2.38365e-07
1.43115e-05
-1.25221e-07
1.17686e-05
7.19117e-08
6.95995e-05
1.31441e-07
7.62421e-05
1.64299e-07
7.62882e-05
1.59667e-07
7.6346e-05
1.18994e-07
7.6418e-05
5.0791e-08
7.65005e-05
-3.90633e-08
7.66027e-05
-1.42709e-07
7.6725e-05
-2.50083e-07
8.10484e-05
-3.40937e-07
7.07548e-05
-4.27231e-07
6.17933e-05
-5.02775e-07
5.39777e-05
-5.62691e-07
4.71232e-05
-6.03331e-07
4.11454e-05
-6.22579e-07
3.59148e-05
-6.19429e-07
3.12952e-05
-5.93929e-07
2.71645e-05
-5.46762e-07
2.34852e-05
-4.77375e-07
2.01409e-05
-3.8487e-07
1.71444e-05
-2.70089e-07
1.44564e-05
-1.38501e-07
1.19071e-05
5.84569e-08
6.25575e-05
1.07304e-07
6.96236e-05
1.29439e-07
7.62769e-05
1.18156e-07
7.63297e-05
7.09814e-08
7.6394e-05
-5.95318e-09
7.64747e-05
-1.07964e-07
7.65694e-05
-2.28199e-07
7.66882e-05
-3.57338e-07
7.68322e-05
-4.83211e-07
8.11907e-05
-5.8185e-07
7.09094e-05
-6.68512e-07
6.19591e-05
-7.37722e-07
5.41527e-05
-7.85107e-07
4.73049e-05
-8.08322e-07
4.13312e-05
-8.06073e-07
3.61015e-05
-7.78278e-07
3.14795e-05
-7.26196e-07
2.73439e-05
-6.51397e-07
2.36593e-05
-5.54525e-07
2.03106e-05
-4.36269e-07
1.73106e-05
-2.99368e-07
1.46172e-05
-1.50215e-07
1.20573e-05
4.79224e-08
5.62285e-05
8.75839e-08
6.25772e-05
1.00502e-07
6.96526e-05
8.04223e-08
7.63147e-05
2.73244e-08
7.63734e-05
-5.76239e-08
7.64457e-05
-1.71074e-07
7.65378e-05
-3.07353e-07
7.66486e-05
-4.58019e-07
7.67888e-05
-6.11527e-07
7.69605e-05
-7.53447e-07
8.13623e-05
-8.55217e-07
7.10961e-05
-9.37097e-07
6.21584e-05
-9.9415e-07
5.43617e-05
-1.02356e-06
4.75202e-05
-1.02402e-06
4.15491e-05
-9.95364e-07
3.63186e-05
-9.39027e-07
3.16923e-05
-8.57284e-07
2.75498e-05
-7.52886e-07
2.38576e-05
-6.27572e-07
2.05019e-05
-4.83786e-07
1.7495e-05
-3.25276e-07
1.47923e-05
-1.59608e-07
1.22169e-05
3.95469e-08
5.05404e-05
7.13523e-08
5.62448e-05
7.67618e-08
6.26009e-05
4.92466e-08
6.96837e-05
-1.18791e-08
7.63539e-05
-1.0396e-07
7.64197e-05
-2.27847e-07
7.65025e-05
-3.79201e-07
7.66097e-05
-5.50629e-07
7.67412e-05
-7.31346e-07
7.69087e-05
-9.07465e-07
7.71146e-05
-1.06148e-06
8.15685e-05
-1.16076e-06
7.13198e-05
-1.23129e-06
6.23956e-05
-1.26999e-06
5.46082e-05
-1.27526e-06
4.77714e-05
-1.24719e-06
4.1801e-05
-1.18751e-06
3.65671e-05
-1.09886e-06
3.19339e-05
-9.84866e-07
2.77818e-05
-8.49296e-07
2.40793e-05
-6.95271e-07
2.07134e-05
-5.2605e-07
1.76958e-05
-3.47171e-07
1.49799e-05
-1.66698e-07
1.23836e-05
3.27963e-08
4.54268e-05
5.79001e-08
5.05538e-05
5.71905e-08
5.62643e-05
2.38818e-08
6.26263e-05
-4.37391e-08
6.97156e-05
-1.44775e-07
7.63947e-05
-2.77896e-07
7.64697e-05
-4.43024e-07
7.65663e-05
-6.33998e-07
7.6693e-05
-8.40958e-07
7.68508e-05
-1.05071e-06
7.70519e-05
-1.24598e-06
7.72991e-05
-1.4071e-06
8.18149e-05
-1.49658e-06
7.15851e-05
-1.54876e-06
6.26743e-05
-1.562e-06
5.48949e-05
-1.5364e-06
4.80606e-05
-1.47436e-06
4.20878e-05
-1.37909e-06
3.68473e-05
-1.25488e-06
3.22039e-05
-1.10644e-06
2.80389e-05
-9.38891e-07
2.4323e-05
-7.55801e-07
2.09431e-05
-5.62299e-07
1.79109e-05
-3.61653e-07
1.51748e-05
-1.32877e-07
1.25165e-05
2.72834e-08
4.08315e-05
4.67022e-08
4.54379e-05
4.09728e-08
5.057e-05
3.20601e-09
5.6285e-05
-6.91494e-08
6.26517e-05
-1.7712e-07
6.97479e-05
-3.20947e-07
7.64377e-05
-4.98301e-07
7.6525e-05
-7.07217e-07
7.66395e-05
-9.38967e-07
7.67911e-05
-1.18121e-06
7.69813e-05
-1.41711e-06
7.7223e-05
-1.62699e-06
7.7519e-05
-1.78822e-06
8.21065e-05
-1.86009e-06
7.18964e-05
-1.8858e-06
6.29981e-05
-1.86579e-06
5.52243e-05
-1.80293e-06
4.83892e-05
-1.70146e-06
4.24102e-05
-1.5666e-06
3.7159e-05
-1.40394e-06
3.25014e-05
-1.21971e-06
2.83197e-05
-1.0194e-06
2.45866e-05
-8.07988e-07
2.11888e-05
-5.87639e-07
1.81369e-05
-3.53199e-07
1.53951e-05
-8.2487e-08
1.2599e-05
2.2729e-08
3.67006e-05
3.73427e-08
4.08409e-05
2.74802e-08
4.54514e-05
-1.36817e-08
5.05869e-05
-8.93896e-08
5.63053e-05
-2.02137e-07
6.26767e-05
-3.5399e-07
6.9781e-05
-5.44652e-07
7.64841e-05
-7.69607e-07
7.65874e-05
-1.02425e-06
7.67248e-05
-1.29732e-06
7.69072e-05
-1.57261e-06
7.71368e-05
-1.83063e-06
7.74267e-05
-2.04829e-06
7.7779e-05
-2.20207e-06
8.24485e-05
-2.24715e-06
7.22578e-05
-2.23741e-06
6.33697e-05
-2.17667e-06
5.55981e-05
-2.07003e-06
4.87578e-05
-1.92426e-06
4.27678e-05
-1.74619e-06
3.75013e-05
-1.5432e-06
3.28249e-05
-1.32198e-06
2.86223e-05
-1.08915e-06
2.48677e-05
-8.47101e-07
2.14483e-05
-5.9519e-07
1.83789e-05
-3.2581e-07
1.56385e-05
-6.10828e-08
1.26601e-05
1.8927e-08
3.29898e-05
2.94738e-08
3.67084e-05
1.62217e-08
4.08521e-05
-2.75377e-08
4.54653e-05
-1.05498e-07
5.0603e-05
-2.21339e-07
5.63245e-05
-3.78511e-07
6.27012e-05
-5.78963e-07
6.98153e-05
-8.20666e-07
7.65351e-05
-1.09595e-06
7.66591e-05
-1.39768e-06
7.68252e-05
-1.71054e-06
7.70451e-05
-2.01545e-06
7.73216e-05
-2.28907e-06
7.76675e-05
-2.50705e-06
7.8084e-05
-2.64412e-06
8.28454e-05
-2.65211e-06
7.26725e-05
-2.59818e-06
6.37913e-05
-2.48898e-06
5.6017e-05
-2.3327e-06
4.91662e-05
-2.13819e-06
4.31598e-05
-1.91443e-06
3.78725e-05
-1.66948e-06
3.31724e-05
-1.41105e-06
2.89442e-05
-1.14395e-06
2.51646e-05
-8.68515e-07
2.17216e-05
-5.89689e-07
1.86428e-05
-3.01048e-07
1.58784e-05
-5.47771e-08
1.27148e-05
1.57203e-08
2.96512e-05
2.28237e-08
3.29965e-05
6.78631e-09
3.67179e-05
-3.89557e-08
4.08635e-05
-1.18318e-07
4.54781e-05
-2.35957e-07
5.06177e-05
-3.96349e-07
5.63423e-05
-6.03169e-07
6.27254e-05
-8.57094e-07
6.98517e-05
-1.15341e-06
7.65926e-05
-1.48121e-06
7.67426e-05
-1.82925e-06
7.69439e-05
-2.17915e-06
7.72088e-05
-2.50758e-06
7.75401e-05
-2.78957e-06
7.795e-05
-2.99849e-06
7.84384e-05
-3.10804e-06
8.33014e-05
-3.06882e-06
7.31431e-05
-2.96162e-06
6.42639e-05
-2.79697e-06
5.64813e-05
-2.58564e-06
4.96137e-05
-2.33921e-06
4.35846e-05
-2.06766e-06
3.82707e-05
-1.78014e-06
3.35415e-05
-1.48328e-06
2.92835e-05
-1.18019e-06
2.54762e-05
-8.775e-07
2.20094e-05
-5.80403e-07
1.89221e-05
-2.87038e-07
1.61107e-05
-5.82901e-08
1.27731e-05
1.29946e-08
2.66507e-05
1.71793e-08
2.96569e-05
-1.15769e-09
3.30044e-05
-4.83812e-08
3.67273e-05
-1.28531e-07
4.08738e-05
-2.46979e-07
4.54891e-05
-4.08993e-07
5.06303e-05
-6.19536e-07
5.63587e-05
-8.81384e-07
6.27497e-05
-1.19303e-06
6.98913e-05
-1.54705e-06
7.66584e-05
-1.92738e-06
7.68408e-05
-2.31974e-06
7.70845e-05
-2.70114e-06
7.74024e-05
-3.04624e-06
7.77968e-05
-3.32724e-06
7.82787e-05
-3.5157e-06
7.8846e-05
-3.58701e-06
8.38196e-05
-3.48995e-06
7.36715e-05
-3.32116e-06
6.47881e-05
-3.09448e-06
5.69901e-05
-2.82412e-06
5.00986e-05
-2.5231e-06
4.40401e-05
-2.20277e-06
3.86933e-05
-1.87188e-06
3.39301e-05
-1.53582e-06
2.96392e-05
-1.20248e-06
2.58012e-05
-8.81297e-07
2.23103e-05
-5.72921e-07
1.9208e-05
-2.82298e-07
1.63347e-05
-8.01378e-08
1.28533e-05
1.06674e-08
2.39563e-05
1.23666e-08
2.66555e-05
-7.87226e-09
2.96636e-05
-5.61807e-08
3.30122e-05
-1.36672e-07
3.67354e-05
-2.55199e-07
4.0882e-05
-4.17638e-07
4.54978e-05
-6.29895e-07
5.06407e-05
-8.9634e-07
5.63736e-05
-1.21798e-06
6.27747e-05
-1.59121e-06
6.99355e-05
-2.00387e-06
7.67349e-05
-2.43558e-06
7.69566e-05
-2.86737e-06
7.72507e-05
-3.27395e-06
7.76301e-05
-3.6265e-06
7.80961e-05
-3.89475e-06
7.86578e-05
-4.0514e-06
7.93104e-05
-4.07288e-06
8.44025e-05
-3.90808e-06
7.42584e-05
-3.6697e-06
6.53633e-05
-3.37601e-06
5.7542e-05
-3.04324e-06
5.06187e-05
-2.68628e-06
4.45236e-05
-2.31667e-06
3.91381e-05
-1.9424e-06
3.43367e-05
-1.57224e-06
3.00089e-05
-1.21712e-06
2.6137e-05
-8.8329e-07
2.26207e-05
-5.68428e-07
1.94941e-05
-3.47895e-07
1.66025e-05
-8.82423e-08
1.29415e-05
8.67543e-09
2.1534e-05
8.24381e-09
2.39604e-05
-1.35714e-08
2.66612e-05
-6.26544e-08
2.967e-05
-1.43164e-07
3.30187e-05
-2.61246e-07
3.67415e-05
-4.23232e-07
4.08876e-05
-6.35709e-07
4.55036e-05
-9.04223e-07
5.06485e-05
-1.23172e-06
5.63874e-05
-1.6176e-06
6.28011e-05
-2.05412e-06
6.99857e-05
-2.5253e-06
7.68246e-05
-3.00425e-06
7.70935e-05
-3.46985e-06
7.74466e-05
-3.89267e-06
7.78962e-05
-4.24082e-06
7.84421e-05
-4.4845e-06
7.90909e-05
-4.59684e-06
7.98344e-05
-4.55732e-06
8.50517e-05
-4.31505e-06
7.49037e-05
-4.00085e-06
6.59881e-05
-3.63591e-06
5.81347e-05
-3.23892e-06
5.11713e-05
-2.82564e-06
4.50325e-05
-2.40734e-06
3.9603e-05
-1.99429e-06
3.47587e-05
-1.59776e-06
3.03896e-05
-1.22688e-06
2.64806e-05
-8.83817e-07
2.29361e-05
-6.97821e-07
1.98441e-05
-3.46436e-07
1.68606e-05
-9.69628e-08
1.30385e-05
6.96629e-09
1.93537e-05
4.69813e-09
2.15375e-05
-1.84333e-08
2.39653e-05
-6.80456e-08
2.66666e-05
-1.48341e-07
2.96752e-05
-2.65615e-07
3.30231e-05
-4.26524e-07
3.67448e-05
-6.38134e-07
4.089e-05
-9.06838e-07
4.55062e-05
-1.23704e-06
5.06539e-05
-1.63048e-06
5.64002e-05
-2.08294e-06
6.28299e-05
-2.58351e-06
7.0044e-05
-3.11008e-06
7.69305e-05
-3.63148e-06
7.72551e-05
-4.12241e-06
7.76764e-05
-4.54974e-06
7.82052e-05
-4.88141e-06
7.8839e-05
-5.08724e-06
7.95813e-05
-5.14289e-06
8.042e-05
-5.03104e-06
8.57677e-05
-4.70351e-06
7.56064e-05
-4.30811e-06
6.66604e-05
-3.86946e-06
5.87652e-05
-3.40784e-06
5.17535e-05
-2.93922e-06
4.55644e-05
-2.47644e-06
4.00852e-05
-2.03165e-06
3.51926e-05
-1.61477e-06
3.07775e-05
-1.23195e-06
2.68288e-05
-1.08909e-06
2.33273e-05
-6.87724e-07
2.01853e-05
-3.45302e-07
1.7109e-05
-1.03615e-07
1.31421e-05
1.73975e-05
5.49525e-09
1.63773e-09
1.93568e-05
-2.26022e-08
2.15417e-05
-7.25527e-08
2.39698e-05
-1.52469e-07
2.66708e-05
-2.68693e-07
2.96783e-05
-4.28101e-07
3.30246e-05
-6.38075e-07
3.67447e-05
-9.05602e-07
4.08888e-05
-1.23616e-06
4.55053e-05
-1.63326e-06
5.06566e-05
-2.09547e-06
5.64128e-05
-2.616e-06
6.28624e-05
-3.17842e-06
7.01123e-05
-3.75672e-06
7.70557e-05
-4.31274e-06
7.74454e-05
-4.81762e-06
7.79442e-05
-5.23737e-06
7.85611e-05
-5.53865e-06
7.92904e-05
-5.69321e-06
8.01316e-05
-5.67932e-06
8.10683e-05
-5.48567e-06
8.65499e-05
-5.06599e-06
7.63643e-05
-4.58605e-06
6.73769e-05
-4.07299e-06
5.94304e-05
-3.54785e-06
5.23622e-05
-3.02784e-06
4.61158e-05
-2.52706e-06
4.05806e-05
-2.05648e-06
3.56343e-05
-1.62361e-06
3.11691e-05
-1.52135e-06
2.7261e-05
-1.07351e-06
2.37131e-05
-6.75338e-07
2.05154e-05
-3.42086e-07
1.73475e-05
-1.07839e-07
1.32499e-05
1.74001e-05
-1.01598e-09
2.78122e-05
3.27652e-09
-2.61934e-08
1.93604e-05
-7.63355e-08
2.15455e-05
-1.55762e-07
2.39731e-05
-2.70785e-07
2.66728e-05
-4.28417e-07
2.96786e-05
-6.36235e-07
3.30228e-05
-9.01625e-07
3.67407e-05
-1.23082e-06
4.08834e-05
-1.62866e-06
4.55007e-05
-2.09587e-06
5.0657e-05
-2.62893e-06
5.64257e-05
-3.21611e-06
6.29001e-05
-3.83778e-06
7.01934e-05
-4.46106e-06
7.7204e-05
-5.04089e-06
7.76687e-05
-5.54783e-06
7.82547e-05
-5.9457e-06
7.89682e-05
-6.20231e-06
7.97995e-05
-6.29139e-06
8.07437e-05
-6.19691e-06
8.17795e-05
-5.91265e-06
8.73965e-05
-5.39616e-06
7.71744e-05
-4.83035e-06
6.81343e-05
-4.2439e-06
6.01264e-05
-3.65898e-06
5.29933e-05
-3.09364e-06
4.66824e-05
-2.56081e-06
4.10849e-05
-2.0693e-06
3.608e-05
-2.00651e-06
3.16543e-05
-1.50108e-06
2.76886e-05
-1.05135e-06
2.40891e-05
-6.59283e-07
2.08326e-05
-3.36093e-07
1.75757e-05
-1.0969e-07
1.33596e-05
1.74032e-05
-2.92965e-08
2.78161e-05
-4.92171e-09
2.85521e-05
1.17198e-09
-7.95233e-08
1.93635e-05
-1.58389e-07
2.15481e-05
-2.72127e-07
2.39745e-05
-4.27825e-07
2.66723e-05
-6.33159e-07
2.96755e-05
-8.95759e-07
3.30169e-05
-1.22238e-06
3.67323e-05
-1.61883e-06
4.08736e-05
-2.08746e-06
4.54923e-05
-2.6273e-06
5.06554e-05
-3.23046e-06
5.644e-05
-3.88261e-06
6.29449e-05
-4.55786e-06
7.02902e-05
-5.21634e-06
7.73795e-05
-5.80856e-06
7.79294e-05
-6.30314e-06
7.86121e-05
-6.66421e-06
7.94301e-05
-6.86075e-06
8.03689e-05
-6.87176e-06
8.14185e-05
-6.68605e-06
8.25529e-05
-6.30458e-06
8.8305e-05
-5.6889e-06
7.80329e-05
-5.03782e-06
6.89282e-05
-4.38144e-06
6.08489e-05
-3.74251e-06
5.36422e-05
-3.13785e-06
4.72594e-05
-2.57833e-06
4.1594e-05
-2.55816e-06
3.66317e-05
-1.98051e-06
3.21337e-05
-1.46972e-06
2.8107e-05
-1.02261e-06
2.44525e-05
-6.3928e-07
2.11358e-05
-3.27338e-07
1.77934e-05
-1.09479e-07
1.34691e-05
1.74059e-05
-8.22222e-08
2.78202e-05
-3.33455e-08
2.85558e-05
-8.66095e-09
2.9312e-05
-8.23266e-10
-1.60484e-07
1.93656e-05
-2.72906e-07
2.15489e-05
-4.26597e-07
2.39732e-05
-6.29261e-07
2.66684e-05
-8.8866e-07
2.96684e-05
-1.21189e-06
3.30064e-05
-1.60542e-06
3.67189e-05
-2.07284e-06
4.0859e-05
-2.61512e-06
4.54801e-05
-3.22742e-06
5.06524e-05
-3.89977e-06
5.64572e-05
-4.6122e-06
6.29992e-05
-5.33236e-06
7.04062e-05
-6.01566e-06
7.75866e-05
-6.60601e-06
7.82323e-05
-7.07293e-06
7.90209e-05
-7.38079e-06
7.99501e-05
-7.50327e-06
8.10004e-05
-7.42376e-06
8.21562e-05
-7.13833e-06
8.33866e-05
-6.65531e-06
8.92714e-05
-5.94018e-06
7.89353e-05
-5.20687e-06
6.97537e-05
-4.48612e-06
6.15925e-05
-3.7993e-06
5.43036e-05
-3.16121e-06
4.78423e-05
-3.18847e-06
4.22243e-05
-2.52531e-06
3.71765e-05
-1.93889e-06
3.26029e-05
-1.42833e-06
2.85127e-05
-9.87867e-07
2.48011e-05
-6.15725e-07
2.14242e-05
-3.16171e-07
1.8e-05
-1.07612e-07
1.35767e-05
1.74076e-05
-1.62154e-07
2.78227e-05
-8.47078e-08
2.85597e-05
-3.71671e-08
2.93156e-05
-1.22263e-08
3.00899e-05
-2.70467e-09
-2.73264e-07
1.9366e-05
-4.24937e-07
2.15472e-05
-6.24854e-07
2.39688e-05
-8.80823e-07
2.66605e-05
-1.20013e-06
2.96567e-05
-1.58971e-06
3.29907e-05
-2.05402e-06
3.67001e-05
-2.59553e-06
4.08394e-05
-3.21175e-06
4.54645e-05
-3.89624e-06
5.06489e-05
-4.63397e-06
5.6479e-05
-5.39909e-06
6.3066e-05
-6.15491e-06
7.05454e-05
-6.84962e-06
7.78302e-05
-7.42271e-06
7.85821e-05
-7.84482e-06
7.94849e-05
-8.08424e-06
8.05311e-05
-8.11844e-06
8.16951e-05
-7.93798e-06
8.29559e-05
-7.54658e-06
8.42779e-05
-6.95974e-06
9.02909e-05
-6.1475e-06
7.98759e-05
-5.3373e-06
7.06048e-05
-4.55841e-06
6.23516e-05
-3.83016e-06
5.49726e-05
-3.91098e-06
4.85648e-05
-3.14813e-06
4.28471e-05
-2.47197e-06
3.77096e-05
-1.88365e-06
3.30582e-05
-1.37835e-06
2.89032e-05
-9.48185e-07
2.51335e-05
-5.89285e-07
2.16973e-05
-3.03103e-07
1.81955e-05
-1.04477e-07
1.36812e-05
1.74076e-05
-2.73313e-07
2.7822e-05
-1.61518e-07
2.85619e-05
-8.68984e-08
2.93191e-05
-4.07434e-08
3.00933e-05
-1.56182e-08
3.08898e-05
-4.46606e-09
-4.23004e-07
1.93641e-05
-6.20173e-07
2.15426e-05
-8.72616e-07
2.39606e-05
-1.18771e-06
2.66481e-05
-1.57267e-06
2.96396e-05
-2.03257e-06
3.29693e-05
-2.57097e-06
3.66755e-05
-3.18722e-06
4.08148e-05
-3.87765e-06
4.54459e-05
-4.63129e-06
5.06462e-05
-5.42779e-06
5.65077e-05
-6.23745e-06
6.31485e-05
-7.01659e-06
7.07124e-05
-7.70797e-06
7.81155e-05
-8.2462e-06
7.89835e-05
-8.60724e-06
8.00079e-05
-8.76239e-06
8.1175e-05
-8.69593e-06
8.2453e-05
-8.40623e-06
8.38155e-05
-7.90464e-06
8.52228e-05
-7.21437e-06
9.13578e-05
-6.30991e-06
8.08485e-05
-5.42914e-06
7.14756e-05
-4.59913e-06
6.31205e-05
-4.74138e-06
5.5803e-05
-3.86285e-06
4.92796e-05
-3.08179e-06
4.34569e-05
-2.40111e-06
3.8227e-05
-1.81704e-06
3.34969e-05
-1.32158e-06
2.92766e-05
-9.04776e-07
2.5449e-05
-5.60751e-07
2.19549e-05
-2.88661e-07
1.83797e-05
-1.00416e-07
1.37816e-05
1.74056e-05
-4.20913e-07
2.78166e-05
-2.67925e-07
2.85608e-05
-1.6047e-07
2.9321e-05
-8.87822e-08
3.00966e-05
-4.40711e-08
3.0893e-05
-1.88402e-08
3.17096e-05
-6.10671e-09
-6.15393e-07
1.93593e-05
-8.64313e-07
2.15343e-05
-1.17507e-06
2.3948e-05
-1.55503e-06
2.66305e-05
-2.00965e-06
2.96167e-05
-2.54332e-06
3.29416e-05
-3.15675e-06
3.6645e-05
-3.84845e-06
4.07856e-05
-4.61072e-06
4.54253e-05
-5.42778e-06
5.06462e-05
-6.27595e-06
5.65462e-05
-7.11891e-06
6.32508e-05
-7.90758e-06
7.0912e-05
-8.57843e-06
7.84477e-05
-9.06481e-06
7.9441e-05
-9.3475e-06
8.0593e-05
-9.4041e-06
8.18832e-05
-9.22662e-06
8.32734e-05
-8.82132e-06
8.47322e-05
-8.20803e-06
8.62165e-05
-7.41736e-06
9.24653e-05
-6.42692e-06
8.18463e-05
-5.48311e-06
7.23595e-05
-5.69779e-06
6.4077e-05
-4.6856e-06
5.66257e-05
-3.78242e-06
4.99802e-05
-2.99347e-06
4.40493e-05
-2.31582e-06
3.87258e-05
-1.7416e-06
3.39169e-05
-1.25989e-06
2.96317e-05
-8.58857e-07
2.57471e-05
-5.30888e-07
2.21971e-05
-2.73339e-07
1.85526e-05
-9.57281e-08
1.38773e-05
1.74008e-05
-6.10638e-07
2.78047e-05
-4.09028e-07
2.85549e-05
-2.62032e-07
2.93196e-05
-1.59039e-07
3.00982e-05
-9.03493e-08
3.08961e-05
-4.71461e-08
3.17127e-05
-2.18891e-08
3.25535e-05
-7.63081e-09
-8.56112e-07
1.93511e-05
-1.16253e-06
2.15217e-05
-1.5373e-06
2.39302e-05
-1.98615e-06
2.6607e-05
-2.514e-06
2.95874e-05
-3.12259e-06
3.29075e-05
-3.81212e-06
3.66087e-05
-4.57748e-06
4.07524e-05
-5.40662e-06
4.54042e-05
-6.28098e-06
5.06512e-05
-7.17068e-06
5.65979e-05
-8.03421e-06
6.33775e-05
-8.81594e-06
7.11495e-05
-9.44936e-06
7.88322e-05
-9.86541e-06
7.9959e-05
-1.00537e-05
8.12426e-05
-9.99933e-06
8.26559e-05
-9.70223e-06
8.41543e-05
-9.1778e-06
8.57019e-05
-8.45414e-06
8.72533e-05
-7.56761e-06
9.36059e-05
-6.49903e-06
8.28622e-05
-6.79994e-06
7.34617e-05
-5.63518e-06
6.50265e-05
-4.59021e-06
5.74335e-05
-3.67479e-06
5.06615e-05
-2.8872e-06
4.46207e-05
-2.21943e-06
3.92036e-05
-1.65983e-06
3.43168e-05
-1.19501e-06
2.99678e-05
-8.11523e-07
2.60278e-05
-5.00386e-07
2.24242e-05
-2.5758e-07
1.87145e-05
-9.06449e-08
1.3968e-05
1.73928e-05
-8.48151e-07
2.77844e-05
-5.90295e-07
2.85423e-05
-3.96456e-07
2.93131e-05
-2.55567e-07
3.00963e-05
-1.57178e-07
3.08973e-05
-9.15962e-08
3.17155e-05
-4.99653e-08
3.25564e-05
-2.4758e-08
3.34194e-05
-9.03914e-09
-1.15031e-06
1.93389e-05
-1.51988e-06
2.15043e-05
-1.96271e-06
2.39068e-05
-2.48408e-06
2.6577e-05
-3.08647e-06
2.95513e-05
-3.77136e-06
3.28667e-05
-4.53566e-06
3.65669e-05
-5.37037e-06
4.07161e-05
-6.26115e-06
4.53843e-05
-7.1837e-06
5.06642e-05
-8.10328e-06
5.6667e-05
-8.97186e-06
6.35334e-05
-9.73031e-06
7.14305e-05
-1.03075e-05
7.92743e-05
-1.06357e-05
8.05409e-05
-1.07151e-05
8.19584e-05
-1.05388e-05
8.34925e-05
-1.01163e-05
8.50928e-05
-9.47214e-06
8.67199e-05
-8.64123e-06
8.83269e-05
-7.6653e-06
9.47722e-05
-8.07082e-06
8.41331e-05
-6.73235e-06
7.45589e-05
-5.52435e-06
6.59607e-05
-4.4615e-06
5.82202e-05
-3.54509e-06
5.13194e-05
-2.7672e-06
4.51684e-05
-2.11513e-06
3.96589e-05
-1.57403e-06
3.46959e-05
-1.12844e-06
3.02848e-05
-7.63731e-07
2.62911e-05
-4.69857e-07
2.26365e-05
-2.41717e-07
1.88656e-05
-8.53664e-08
1.40533e-05
1.73811e-05
-1.13858e-06
2.77533e-05
-8.17049e-07
2.85212e-05
-5.69108e-07
2.92999e-05
-3.83245e-07
3.00894e-05
-2.4863e-07
3.0895e-05
-1.5492e-07
3.17164e-05
-9.25128e-08
3.25589e-05
-5.252e-08
3.34221e-05
-2.74481e-08
3.43053e-05
-1.03345e-08
-1.50303e-06
1.9322e-05
-1.93978e-06
2.14814e-05
-2.45432e-06
2.3877e-05
-3.04966e-06
2.65402e-05
-3.72819e-06
2.95081e-05
-4.48844e-06
3.28195e-05
-5.32381e-06
3.65203e-05
-6.22342e-06
4.06784e-05
-7.16769e-06
4.53683e-05
-8.12785e-06
5.06888e-05
-9.06284e-06
5.6758e-05
-9.92091e-06
6.3724e-05
-1.06375e-05
7.17605e-05
-1.11402e-05
7.97789e-05
-1.1364e-05
8.11898e-05
-1.13214e-05
8.2741e-05
-1.10149e-05
8.43911e-05
-1.04643e-05
8.6085e-05
-9.70179e-06
8.77805e-05
-8.76893e-06
8.94305e-05
-9.53686e-06
9.62383e-05
-8.00216e-06
8.54029e-05
-6.60643e-06
7.5641e-05
-5.37288e-06
6.68721e-05
-4.30574e-06
5.89809e-05
-3.39851e-06
5.19507e-05
-2.63744e-06
4.56907e-05
-2.00584e-06
4.00907e-05
-1.48618e-06
3.50536e-05
-1.0615e-06
3.05825e-05
-7.16316e-07
2.65376e-05
-4.39735e-07
2.28345e-05
-2.2605e-07
1.90063e-05
-8.00407e-08
1.41334e-05
1.7365e-05
-1.48694e-06
2.77091e-05
-1.09438e-06
2.8489e-05
-7.84899e-07
2.92778e-05
-5.47022e-07
3.00755e-05
-3.6933e-07
3.08876e-05
-2.41155e-07
3.17138e-05
-1.52245e-07
3.25596e-05
-9.31177e-08
3.34244e-05
-5.48208e-08
3.43078e-05
-2.99559e-08
3.52192e-05
-1.15207e-08
-1.91769e-06
1.92999e-05
-2.42529e-06
2.14523e-05
-3.01309e-06
2.38405e-05
-3.68416e-06
2.64962e-05
-4.43823e-06
2.94579e-05
-5.27063e-06
3.27663e-05
-6.17328e-06
3.64702e-05
-7.13052e-06
4.06413e-05
-8.11873e-06
4.53592e-05
-9.1031e-06
5.0729e-05
-1.00389e-05
5.6876e-05
-1.08684e-05
6.39549e-05
-1.15247e-05
7.2145e-05
-1.19354e-05
8.03502e-05
-1.20394e-05
8.19078e-05
-1.1864e-05
8.35901e-05
-1.14224e-05
8.53492e-05
-1.07429e-05
8.71261e-05
-9.86578e-06
8.88774e-05
-1.09324e-05
9.0826e-05
-9.47475e-06
9.77108e-05
-7.86332e-06
8.66598e-05
-6.43117e-06
7.66992e-05
-5.18839e-06
6.77547e-05
-4.12929e-06
5.97117e-05
-3.23991e-06
5.25532e-05
-2.50153e-06
4.61864e-05
-1.89405e-06
4.04986e-05
-1.39797e-06
3.53901e-05
-9.95296e-07
3.08615e-05
-6.69849e-07
2.67677e-05
-4.10422e-07
2.30189e-05
-2.10798e-07
1.9137e-05
-7.47735e-08
1.42082e-05
1.7344e-05
-1.89666e-06
2.76489e-05
-1.42672e-06
2.84435e-05
-1.0489e-06
2.92447e-05
-7.51751e-07
3.00525e-05
-5.2411e-07
3.0873e-05
-3.54784e-07
3.17058e-05
-2.33186e-07
3.25565e-05
-1.49163e-07
3.34247e-05
-9.33891e-08
3.43098e-05
-5.68574e-08
3.52215e-05
-3.22806e-08
3.61551e-05
-1.25989e-08
-2.39736e-06
1.9272e-05
-2.97743e-06
2.14167e-05
-3.64039e-06
2.37967e-05
-4.38688e-06
2.64448e-05
-5.2137e-06
2.9401e-05
-6.11505e-06
3.27081e-05
-7.07851e-06
3.64182e-05
-8.08478e-06
4.06073e-05
-9.10457e-06
4.53607e-05
-1.00995e-05
5.07897e-05
-1.10188e-05
5.70264e-05
-1.18017e-05
6.42318e-05
-1.23797e-05
7.25893e-05
-1.26813e-05
8.09921e-05
-1.26523e-05
8.26962e-05
-1.23365e-05
8.45042e-05
-1.17566e-05
8.63629e-05
-1.09502e-05
8.82105e-05
-1.23288e-05
9.02738e-05
-1.08855e-05
9.22368e-05
-9.32831e-06
9.91758e-05
-7.66488e-06
8.78935e-05
-6.21572e-06
7.77266e-05
-4.97856e-06
6.8604e-05
-3.93802e-06
6.04098e-05
-3.0737e-06
5.31253e-05
-2.36252e-06
4.66549e-05
-1.78187e-06
4.08825e-05
-1.31085e-06
3.57056e-05
-9.30576e-07
3.11222e-05
-6.24858e-07
2.69821e-05
-3.82197e-07
2.31903e-05
-1.961e-07
1.92583e-05
-6.96472e-08
1.42778e-05
1.73174e-05
-2.3708e-06
2.75696e-05
-1.81736e-06
2.83816e-05
-1.3648e-06
2.91977e-05
-1.00189e-06
3.00182e-05
-7.17428e-07
3.08493e-05
-5.00365e-07
3.16906e-05
-3.39637e-07
3.2548e-05
-2.24729e-07
3.34212e-05
-1.45689e-07
3.43098e-05
-9.33457e-08
3.52233e-05
-5.86384e-08
3.61572e-05
-3.44256e-08
3.6589e-05
-1.3559e-08
-2.94315e-06
1.92377e-05
-3.59768e-06
2.13739e-05
-4.3357e-06
2.37455e-05
-5.15517e-06
2.63863e-05
-6.05206e-06
2.9338e-05
-7.01659e-06
3.26462e-05
-8.03312e-06
3.63665e-05
-9.07707e-06
4.05798e-05
-1.01159e-05
4.5377e-05
-1.11051e-05
5.08759e-05
-1.19903e-05
5.7215e-05
-1.27084e-05
6.45605e-05
-1.31901e-05
7.30982e-05
-1.33676e-05
8.17073e-05
-1.31954e-05
8.35551e-05
-1.27335e-05
8.54811e-05
-1.20151e-05
8.74278e-05
-1.37205e-05
8.96023e-05
-1.23076e-05
9.16959e-05
-1.07405e-05
9.3649e-05
-9.10959e-06
0.000100621
-7.4174e-06
8.90952e-05
-5.96923e-06
7.87173e-05
-4.75044e-06
6.94164e-05
-3.73729e-06
6.10734e-05
-2.90363e-06
5.36664e-05
-2.22304e-06
4.70961e-05
-1.6711e-06
4.12428e-05
-1.22574e-06
3.60008e-05
-8.68029e-07
3.13654e-05
-5.81706e-07
2.71816e-05
-3.55226e-07
2.33494e-05
-1.82069e-07
1.93708e-05
-6.47226e-08
1.43425e-05
1.72848e-05
-2.91055e-06
2.7468e-05
-2.26917e-06
2.83006e-05
-1.73638e-06
2.91343e-05
-1.30138e-06
2.997e-05
-9.53702e-07
3.08141e-05
-6.82204e-07
3.16661e-05
-4.75836e-07
3.25322e-05
-3.23861e-07
3.34123e-05
-2.15792e-07
3.43059e-05
-1.41834e-07
3.52229e-05
-9.29884e-08
3.61588e-05
-6.01657e-08
3.65909e-05
-3.63648e-08
3.55528e-05
-1.43772e-08
-3.55659e-06
1.91966e-05
-4.28568e-06
2.13239e-05
-5.09664e-06
2.3687e-05
-5.98684e-06
2.63211e-05
-6.94863e-06
2.927e-05
-7.96939e-06
3.25824e-05
-9.02857e-06
3.6318e-05
-1.00986e-05
4.05626e-05
-1.11411e-05
4.5413e-05
-1.21077e-05
5.09933e-05
-1.29409e-05
5.74476e-05
-1.35759e-05
6.49462e-05
-1.39451e-05
7.36757e-05
-1.39859e-05
8.24978e-05
-1.36621e-05
8.44836e-05
-1.30514e-05
8.65173e-05
-1.51001e-05
8.88074e-05
-1.37375e-05
9.10322e-05
-1.21745e-05
9.31299e-05
-1.05106e-05
9.505e-05
-8.83078e-06
0.000102034
-7.13159e-06
9.02575e-05
-5.70016e-06
7.9667e-05
-4.51054e-06
7.01897e-05
-3.53168e-06
6.17014e-05
-2.73289e-06
5.41763e-05
-2.08529e-06
4.75103e-05
-1.56292e-06
4.15799e-05
-1.14354e-06
3.62763e-05
-8.08124e-07
3.15918e-05
-5.40589e-07
2.7367e-05
-3.29638e-07
2.34969e-05
-1.68784e-07
1.94748e-05
-6.0037e-08
1.44026e-05
1.72457e-05
-3.5175e-06
2.73413e-05
-2.78392e-06
2.81971e-05
-2.16565e-06
2.90512e-05
-1.65327e-06
2.99051e-05
-1.23645e-06
3.07646e-05
-9.04267e-07
3.16299e-05
-6.46008e-07
3.2507e-05
-4.50642e-07
3.3396e-05
-3.07568e-07
3.42966e-05
-2.06427e-07
3.52187e-05
-1.37611e-07
3.61581e-05
-9.23196e-08
3.65922e-05
-6.14451e-08
3.55545e-05
-3.80487e-08
3.45447e-05