/*--------------------------------*- C++ -*----------------------------------*\
  =========                 |
  \\      /  F ield         | OpenFOAM: The Open Source CFD Toolbox
   \\    /   O peration     | Website:  https://openfoam.org
    \\  /    A nd           | Version:  8
     \\/     M anipulation  |
\*---------------------------------------------------------------------------*/
FoamFile
{
    version     2.0;
    format      ascii;
    class       surfaceScalarField;
    location    "0.41";
    object      phi;
}
// * * * * * * * * * * * * * * * * * * * * * * * * * * * * * * * * * * * * * //

dimensions      [0 3 -1 0 0 0 0];

internalField   nonuniform List<scalar> 
31053
(
6.40178e-07
1.27398e-05
8.63201e-07
1.5157e-05
3.57656e-07
1.23822e-05
9.48835e-07
1.75544e-05
5.6809e-07
1.49465e-05
2.758e-07
1.21064e-05
9.73489e-07
2.02153e-05
6.83088e-07
1.74394e-05
4.72271e-07
1.47501e-05
2.17624e-07
1.18887e-05
9.64822e-07
2.32487e-05
7.42077e-07
2.01564e-05
5.98862e-07
1.73128e-05
3.98987e-07
1.45687e-05
1.73583e-07
1.17152e-05
9.34792e-07
2.669e-05
7.67412e-07
2.32233e-05
6.74727e-07
2.00805e-05
5.27525e-07
1.71842e-05
3.35753e-07
1.44065e-05
1.3964e-07
1.15755e-05
8.89161e-07
3.06656e-05
7.7089e-07
2.66866e-05
7.17622e-07
2.31804e-05
6.09854e-07
1.99982e-05
4.59671e-07
1.70603e-05
2.82385e-07
1.42638e-05
1.12949e-07
1.14626e-05
8.3095e-07
3.51982e-05
7.58996e-07
3.06775e-05
7.38505e-07
2.66657e-05
6.59552e-07
2.31307e-05
5.42655e-07
1.99152e-05
3.97768e-07
1.69449e-05
2.36196e-07
1.41405e-05
9.08315e-08
1.13717e-05
7.64049e-07
4.03869e-05
7.35987e-07
3.52212e-05
7.43904e-07
3.06721e-05
6.86724e-07
2.66385e-05
5.93824e-07
2.30796e-05
4.77668e-07
1.98353e-05
3.40337e-07
1.68408e-05
1.94855e-07
1.40365e-05
7.14879e-08
1.13002e-05
6.91209e-07
4.63528e-05
7.02937e-07
4.042e-05
7.37783e-07
3.52273e-05
6.97403e-07
3.06614e-05
6.22233e-07
2.66101e-05
5.27012e-07
2.30302e-05
4.14095e-07
1.97615e-05
2.85768e-07
1.67499e-05
1.56612e-07
1.39514e-05
5.37981e-08
1.12465e-05
6.14185e-07
5.3217e-05
6.61266e-07
4.63945e-05
7.20352e-07
4.04374e-05
6.94503e-07
3.52302e-05
6.33834e-07
3.06498e-05
5.53479e-07
2.65836e-05
4.58834e-07
2.29855e-05
3.5085e-07
1.96964e-05
2.32742e-07
1.66738e-05
1.20231e-07
1.3885e-05
3.70036e-08
1.12094e-05
5.34825e-07
6.10594e-05
6.12875e-07
5.32654e-05
6.91846e-07
4.6423e-05
6.81006e-07
4.04509e-05
6.3203e-07
3.5232e-05
5.62888e-07
3.06404e-05
4.80684e-07
2.65618e-05
3.88572e-07
2.29478e-05
2.86893e-07
1.96423e-05
1.80248e-07
1.66137e-05
8.48133e-08
1.38372e-05
2.06067e-08
1.11888e-05
4.54837e-07
7.0062e-05
5.59379e-07
6.11129e-05
6.53446e-07
5.33038e-05
6.57982e-07
4.6446e-05
6.19157e-07
4.04638e-05
5.58766e-07
3.52362e-05
4.85088e-07
3.0636e-05
4.03417e-07
2.65469e-05
3.1528e-07
2.29194e-05
2.21335e-07
1.96012e-05
1.2756e-07
1.6571e-05
4.97052e-08
1.38081e-05
4.41259e-09
1.11844e-05
3.75979e-07
8.04109e-05
5.0225e-07
7.01191e-05
6.06515e-07
6.11598e-05
6.25444e-07
5.33364e-05
5.96449e-07
4.64687e-05
5.43164e-07
4.04794e-05
4.755e-07
3.52458e-05
4.00259e-07
3.06392e-05
3.20769e-07
2.65414e-05
2.38097e-07
2.29026e-05
1.53602e-07
1.95752e-05
7.41222e-08
1.65466e-05
1.45388e-08
1.37979e-05
-1.17476e-08
1.11962e-05
3.12612e-07
7.62534e-05
4.42796e-07
8.04703e-05
5.5262e-07
7.0173e-05
5.83737e-07
6.12015e-05
5.64226e-07
5.33686e-05
5.17182e-07
4.64947e-05
4.53864e-07
4.0501e-05
3.82381e-07
3.52636e-05
3.07542e-07
3.06524e-05
2.31873e-07
2.65477e-05
1.56494e-07
2.28997e-05
8.32539e-08
1.9566e-05
1.96267e-08
1.65415e-05
-2.08624e-08
1.3807e-05
-2.80305e-08
1.12242e-05
2.59087e-07
7.62435e-05
3.91912e-07
7.63043e-05
4.93445e-07
8.05295e-05
5.33643e-07
7.02231e-05
5.22613e-07
6.12431e-05
4.81252e-07
5.34045e-05
4.21155e-07
4.65274e-05
3.5162e-07
4.05317e-05
2.7862e-07
3.52926e-05
2.06062e-07
3.06782e-05
1.36196e-07
2.6568e-05
7.00703e-08
2.29129e-05
1.01425e-08
1.95755e-05
-3.6002e-08
1.65566e-05
-5.66079e-08
1.38356e-05
-4.4454e-08
1.12687e-05
2.14186e-07
7.62349e-05
3.46016e-07
7.62894e-05
4.41129e-07
7.63566e-05
4.76391e-07
8.05867e-05
4.71956e-07
7.02738e-05
4.35517e-07
6.12888e-05
3.77768e-07
5.34479e-05
3.0883e-07
4.65702e-05
2.35683e-07
4.05747e-05
1.63342e-07
3.53353e-05
9.52699e-08
3.07192e-05
3.33652e-08
2.66047e-05
-2.11982e-08
2.29442e-05
-6.56273e-08
1.96051e-05
-9.26976e-08
1.65927e-05
-9.26191e-08
1.38838e-05
-6.08502e-08
1.13295e-05
1.76829e-07
7.62294e-05
3.0473e-07
7.62762e-05
3.92673e-07
7.63379e-05
4.24166e-07
7.64088e-05
4.13123e-07
8.06456e-05
3.80171e-07
7.03291e-05
3.23859e-07
6.13427e-05
2.5431e-07
5.35024e-05
1.7944e-07
4.66265e-05
1.05172e-07
4.06329e-05
3.5975e-08
3.53946e-05
-2.51806e-08
3.07777e-05
-7.65712e-08
2.666e-05
-1.17033e-07
2.29957e-05
-1.43753e-07
1.96562e-05
-1.50156e-07
1.66503e-05
-1.28618e-07
1.39516e-05
-7.70887e-08
1.14066e-05
1.46072e-07
7.62208e-05
2.67648e-07
7.62664e-05
3.48024e-07
7.63208e-05
3.74777e-07
7.63873e-05
3.58826e-07
7.64631e-05
3.15887e-07
8.07099e-05
2.59608e-07
7.03934e-05
1.88187e-07
6.14089e-05
1.10063e-07
5.35718e-05
3.20713e-08
4.66996e-05
-4.05201e-08
4.07094e-05
-1.03805e-07
3.54732e-05
-1.55181e-07
3.08563e-05
-1.93184e-07
2.67362e-05
-2.16896e-07
2.30688e-05
-2.23628e-07
1.97297e-05
-2.07862e-07
1.67295e-05
-1.64252e-07
1.40387e-05
-9.2912e-08
1.14995e-05
1.20816e-07
7.62153e-05
2.34311e-07
7.62541e-05
3.07033e-07
7.63074e-05
3.28588e-07
7.6367e-05
3.07158e-07
7.64389e-05
2.56473e-07
7.65225e-05
1.85663e-07
8.07838e-05
1.10662e-07
7.04709e-05
2.76227e-08
6.14913e-05
-5.59493e-08
5.36598e-05
-1.33939e-07
4.6793e-05
-2.01691e-07
4.08072e-05
-2.55825e-07
3.55738e-05
-2.94138e-07
3.09573e-05
-3.157e-07
2.6835e-05
-3.19863e-07
2.3165e-05
-3.04378e-07
1.98262e-05
-2.65165e-07
1.68304e-05
-1.99044e-07
1.41449e-05
-1.08138e-07
1.16076e-05
9.99368e-08
7.62109e-05
2.04377e-07
7.62452e-05
2.69523e-07
7.62916e-05
2.85756e-07
7.63503e-05
2.58772e-07
7.64154e-05
1.99965e-07
7.64954e-05
1.17682e-07
7.65905e-05
2.24779e-08
8.0872e-05
-6.76548e-08
7.05662e-05
-1.58901e-07
6.15943e-05
-2.44475e-07
5.37703e-05
-3.18863e-07
4.69102e-05
-3.78098e-07
4.09295e-05
-4.193e-07
3.5699e-05
-4.4105e-07
3.10826e-05
-4.42884e-07
2.6958e-05
-4.24655e-07
2.32853e-05
-3.84975e-07
1.9946e-05
-3.21279e-07
1.69526e-05
-2.32504e-07
1.42692e-05
-1.22443e-07
1.17301e-05
8.39655e-08
6.9598e-05
1.77632e-07
7.62376e-05
2.35403e-07
7.62793e-05
2.46368e-07
7.6331e-05
2.14047e-07
7.6395e-05
1.47257e-07
7.64681e-05
5.334e-08
7.65598e-05
-5.79551e-08
7.66709e-05
-1.74872e-07
8.09792e-05
-2.76537e-07
7.06838e-05
-3.72246e-07
6.1722e-05
-4.55765e-07
5.39072e-05
-5.22391e-07
4.70545e-05
-5.68752e-07
4.1079e-05
-5.92999e-07
3.58509e-05
-5.94355e-07
3.12341e-05
-5.73035e-07
2.71064e-05
-5.29819e-07
2.34302e-05
-4.64224e-07
2.00889e-05
-3.75354e-07
1.70955e-05
-2.64028e-07
1.44108e-05
-1.35645e-07
1.18657e-05
7.17071e-08
6.25563e-05
1.55761e-07
6.96198e-05
2.04625e-07
7.62684e-05
2.105e-07
7.63152e-05
1.73234e-07
7.63718e-05
9.89225e-08
7.64433e-05
-6.27276e-09
7.65277e-05
-1.33586e-07
7.66354e-05
-2.71911e-07
7.6768e-05
-4.07763e-07
8.11104e-05
-5.17002e-07
7.08286e-05
-6.12664e-07
6.18789e-05
-6.89455e-07
5.40743e-05
-7.43314e-07
4.7229e-05
-7.7218e-07
4.12581e-05
-7.75013e-07
3.60316e-05
-7.51916e-07
3.1413e-05
-7.0426e-07
2.72808e-05
-6.33676e-07
2.35996e-05
-5.40839e-07
2.02544e-05
-4.26428e-07
1.72579e-05
-2.93136e-07
1.45683e-05
-1.47297e-07
1.2013e-05
6.21313e-08
5.62276e-05
1.38033e-07
6.2574e-05
1.79329e-07
6.96451e-05
1.78197e-07
7.63007e-05
1.36508e-07
7.63519e-05
5.53541e-08
7.64154e-05
-6.03986e-08
7.64974e-05
-2.03142e-07
7.65973e-05
-3.62585e-07
7.67261e-05
-5.25775e-07
7.6886e-05
-6.77427e-07
8.12709e-05
-7.89324e-07
7.10052e-05
-8.79751e-07
6.20692e-05
-9.44111e-07
5.42751e-05
-9.7991e-07
4.74367e-05
-9.86099e-07
4.14692e-05
-9.62736e-07
3.62424e-05
-9.11372e-07
3.16201e-05
-8.3435e-07
2.74815e-05
-7.34448e-07
2.37932e-05
-6.13417e-07
2.04414e-05
-4.73669e-07
1.74384e-05
-3.18909e-07
1.47399e-05
-1.56641e-07
1.21697e-05
5.45371e-08
5.05396e-05
1.23555e-07
5.62421e-05
1.58773e-07
6.25945e-05
1.51799e-07
6.96715e-05
1.03981e-07
7.63332e-05
1.68229e-08
7.63904e-05
-1.08502e-07
7.64635e-05
-2.65683e-07
7.656e-05
-4.4543e-07
7.66801e-05
-6.35482e-07
7.68358e-05
-8.21014e-07
7.70296e-05
-9.84201e-07
8.14657e-05
-1.09309e-06
7.12186e-05
-1.17185e-06
6.2297e-05
-1.21775e-06
5.4513e-05
-1.22949e-06
4.76801e-05
-1.20739e-06
4.17139e-05
-1.1533e-06
3.64844e-05
-1.06995e-06
3.18557e-05
-9.61007e-07
2.77081e-05
-8.30223e-07
2.401e-05
-6.80715e-07
2.06485e-05
-5.15711e-07
1.76352e-05
-3.40697e-07
1.4924e-05
-1.63702e-07
1.23334e-05
4.84344e-08
4.54261e-05
1.11641e-07
5.05515e-05
1.42005e-07
5.62588e-05
1.30556e-07
6.26158e-05
7.79958e-08
6.96975e-05
-1.64833e-08
7.63665e-05
-1.50205e-07
7.64321e-05
-3.20516e-07
7.65183e-05
-5.19308e-07
7.66339e-05
-7.35204e-07
7.67799e-05
-9.54003e-07
7.69688e-05
-1.15807e-06
7.72034e-05
-1.32772e-06
8.17004e-05
-1.42645e-06
7.14732e-05
-1.48672e-06
6.25659e-05
-1.50726e-06
5.47907e-05
-1.48838e-06
4.79611e-05
-1.43265e-06
4.19932e-05
-1.34336e-06
3.67578e-05
-1.22481e-06
3.21195e-05
-1.08175e-06
2.79596e-05
-9.19273e-07
2.42486e-05
-7.40921e-07
2.08737e-05
-5.51788e-07
1.78463e-05
-3.55116e-07
1.51154e-05
-1.29845e-07
1.24632e-05
4.34725e-08
4.0831e-05
1.01774e-07
4.5436e-05
1.28266e-07
5.05652e-05
1.13466e-07
5.62759e-05
5.76891e-08
6.26361e-05
-4.22315e-08
6.97233e-05
-1.85241e-07
7.64016e-05
-3.67142e-07
7.64788e-05
-5.83346e-07
7.65823e-05
-8.23579e-07
7.67222e-05
-1.07446e-06
7.69003e-05
-1.31873e-06
7.71294e-05
-1.53667e-06
7.74124e-05
-1.70596e-06
8.19799e-05
-1.78691e-06
7.17733e-05
-1.82081e-06
6.28795e-05
-1.80838e-06
5.51107e-05
-1.75263e-06
4.82811e-05
-1.6579e-06
4.23078e-05
-1.52944e-06
3.70624e-05
-1.37284e-06
3.24106e-05
-1.19432e-06
2.82346e-05
-9.99341e-07
2.4507e-05
-7.92859e-07
2.11147e-05
-5.77015e-07
1.80682e-05
-3.46617e-07
1.53321e-05
-7.94806e-08
1.25427e-05
3.93961e-08
3.67001e-05
9.35561e-08
4.08392e-05
1.1694e-07
4.54473e-05
9.97275e-08
5.0579e-05
4.185e-08
5.62918e-05
-6.15341e-08
6.26554e-05
-2.11259e-07
6.97493e-05
-4.05201e-07
7.64396e-05
-6.36896e-07
7.65323e-05
-8.99523e-07
7.66583e-05
-1.18077e-06
7.68285e-05
-1.46397e-06
7.70455e-05
-1.72955e-06
7.73223e-05
-1.9547e-06
7.76611e-05
-2.11626e-06
8.23092e-05
-2.17051e-06
7.2123e-05
-2.16928e-06
6.32404e-05
-2.11655e-06
5.54746e-05
-2.01751e-06
4.86407e-05
-1.87897e-06
4.26573e-05
-1.70774e-06
3.73973e-05
-1.5112e-06
3.27275e-05
-1.296e-06
2.85313e-05
-1.06874e-06
2.47829e-05
-8.31799e-07
2.13695e-05
-5.84516e-07
1.83061e-05
-3.1923e-07
1.55719e-05
-5.81644e-08
1.26009e-05
3.60161e-08
3.29894e-05
8.66739e-08
3.6707e-05
1.07553e-07
4.08486e-05
8.8655e-08
4.54584e-05
2.95248e-08
5.05913e-05
-7.57985e-08
5.6306e-05
-2.29716e-07
6.26739e-05
-4.32263e-07
6.97763e-05
-6.79483e-07
7.64822e-05
-9.62209e-07
7.6595e-05
-1.27159e-06
7.67491e-05
-1.59185e-06
7.69564e-05
-1.90379e-06
7.72198e-05
-2.18432e-06
7.75519e-05
-2.40942e-06
7.79543e-05
-2.55426e-06
8.2693e-05
-2.57179e-06
7.25256e-05
-2.52686e-06
6.36507e-05
-2.42623e-06
5.58834e-05
-2.27811e-06
4.90399e-05
-2.09133e-06
4.30409e-05
-1.87486e-06
3.7761e-05
-1.63673e-06
3.30682e-05
-1.38462e-06
2.88472e-05
-1.1233e-06
2.50744e-05
-8.53133e-07
2.16381e-05
-5.79044e-07
1.85659e-05
-2.94526e-07
1.58083e-05
-5.1975e-08
1.26528e-05
3.31907e-08
2.96508e-05
8.08811e-08
3.29952e-05
9.97313e-08
3.67148e-05
7.97013e-08
4.08575e-05
1.99861e-08
4.54679e-05
-8.61623e-08
5.06017e-05
-2.42322e-07
5.63186e-05
-4.50229e-07
6.26918e-05
-7.08512e-07
6.98054e-05
-1.01101e-06
7.6531e-05
-1.34589e-06
7.66693e-05
-1.70076e-06
7.6858e-05
-2.05713e-06
7.71098e-05
-2.39186e-06
7.74273e-05
-2.6803e-06
7.78228e-05
-2.89627e-06
7.82963e-05
-3.01388e-06
8.31351e-05
-2.98474e-06
7.29834e-05
-2.88718e-06
6.41117e-05
-2.73174e-06
5.6337e-05
-2.52916e-06
4.94777e-05
-2.29098e-06
4.3457e-05
-2.02715e-06
3.81514e-05
-1.74679e-06
3.34304e-05
-1.45652e-06
2.91804e-05
-1.15941e-06
2.53807e-05
-8.62143e-07
2.19212e-05
-5.6982e-07
1.88412e-05
-2.80611e-07
1.60369e-05
-5.54958e-08
1.27083e-05
3.08116e-08
2.66504e-05
7.59818e-08
2.96557e-05
9.31809e-08
3.30017e-05
7.24354e-08
3.6722e-05
1.26411e-08
4.08649e-05
-9.35141e-08
4.54753e-05
-2.50455e-07
5.06098e-05
-4.61219e-07
5.63296e-05
-7.26437e-07
6.27097e-05
-1.04307e-06
6.98374e-05
-1.40285e-06
7.6588e-05
-1.78939e-06
7.67579e-05
-2.18761e-06
7.69885e-05
-2.57467e-06
7.72926e-05
-2.92554e-06
7.76726e-05
-3.21285e-06
7.81394e-05
-3.40859e-06
7.8691e-05
-3.48845e-06
8.36388e-05
-3.40221e-06
7.34985e-05
-3.24378e-06
6.46237e-05
-3.02698e-06
5.68348e-05
-2.76597e-06
4.99527e-05
-2.47371e-06
4.39036e-05
-2.16151e-06
3.85661e-05
-1.8381e-06
3.38119e-05
-1.50886e-06
2.95298e-05
-1.1817e-06
2.57002e-05
-8.66024e-07
2.22174e-05
-5.62428e-07
1.9123e-05
-2.75912e-07
1.62573e-05
-7.68031e-08
1.27851e-05
2.87952e-08
2.3956e-05
7.18191e-08
2.66545e-05
8.76694e-08
2.96612e-05
6.65177e-08
3.30076e-05
7.01416e-09
3.67277e-05
-9.85548e-08
4.08699e-05
-2.55207e-07
4.548e-05
-4.66938e-07
5.06155e-05
-7.35906e-07
5.63391e-05
-1.06151e-06
6.27282e-05
-1.43921e-06
6.98738e-05
-1.8567e-06
7.66553e-05
-2.29361e-06
7.68639e-05
-2.73039e-06
7.71442e-05
-3.14204e-06
7.75091e-05
-3.50015e-06
7.79599e-05
-3.7749e-06
7.85057e-05
-3.93931e-06
7.91419e-05
-3.97004e-06
8.42066e-05
-3.81687e-06
7.40716e-05
-3.58963e-06
6.51863e-05
-3.30651e-06
5.73754e-05
-2.98369e-06
5.04626e-05
-2.63596e-06
4.4378e-05
-2.27486e-06
3.90029e-05
-1.90836e-06
3.42114e-05
-1.54524e-06
2.98934e-05
-1.19642e-06
2.60306e-05
-8.68139e-07
2.25232e-05
-5.58005e-07
1.94051e-05
-3.40175e-07
1.65207e-05
-8.51244e-08
1.28703e-05
2.70762e-08
2.15337e-05
6.8266e-08
2.39596e-05
8.30105e-08
2.66592e-05
6.16813e-08
2.96661e-05
2.72827e-09
3.30119e-05
-1.01837e-07
3.6731e-05
-2.57436e-07
4.08721e-05
-4.68742e-07
4.54818e-05
-7.39051e-07
5.06187e-05
-1.06962e-06
5.63472e-05
-1.45888e-06
6.27478e-05
-1.89888e-06
6.9916e-05
-2.37379e-06
7.67355e-05
-2.85703e-06
7.69906e-05
-3.32698e-06
7.73292e-05
-3.7546e-06
7.77635e-05
-4.10845e-06
7.82934e-05
-4.35908e-06
7.89255e-05
-4.47987e-06
7.96517e-05
-4.45041e-06
8.48401e-05
-4.22067e-06
7.47026e-05
-3.9184e-06
6.57982e-05
-3.56471e-06
5.79564e-05
-3.17822e-06
5.10049e-05
-2.77462e-06
4.48778e-05
-2.36516e-06
3.94597e-05
-1.96015e-06
3.46263e-05
-1.57083e-06
3.02678e-05
-1.20633e-06
2.63688e-05
-8.68793e-07
2.28339e-05
-6.85158e-07
1.97501e-05
-3.39048e-07
1.67746e-05
-9.39663e-08
1.29642e-05
2.56033e-08
1.93535e-05
6.52206e-08
2.15368e-05
7.90543e-08
2.39635e-05
5.77146e-08
2.66632e-05
-5.13245e-10
2.96693e-05
-1.03793e-07
3.30139e-05
-2.57809e-07
3.67313e-05
-4.67694e-07
4.08711e-05
-7.37563e-07
4.54803e-05
-1.07008e-06
5.06191e-05
-1.46594e-06
5.63543e-05
-1.92071e-06
6.27697e-05
-2.42359e-06
6.99658e-05
-2.95293e-06
7.68314e-05
-3.47792e-06
7.71415e-05
-3.97288e-06
7.75475e-05
-4.40511e-06
7.80602e-05
-4.7429e-06
7.86772e-05
-4.95636e-06
7.9402e-05
-5.02129e-06
8.02226e-05
-4.9204e-06
8.55399e-05
-4.60631e-06
7.53905e-05
-4.22364e-06
6.64572e-05
-3.79689e-06
5.85751e-05
-3.34628e-06
5.15766e-05
-2.88774e-06
4.54004e-05
-2.43411e-06
3.99336e-05
-1.99755e-06
3.50531e-05
-1.58801e-06
3.06495e-05
-1.21159e-06
2.67116e-05
-1.07081e-06
2.32196e-05
-6.75495e-07
2.00866e-05
-3.382e-07
1.70188e-05
-1.00739e-07
1.3065e-05
1.73973e-05
2.4336e-08
6.26001e-08
1.93561e-05
7.56805e-08
2.15401e-05
5.44492e-08
2.39668e-05
-2.94364e-09
2.66656e-05
-1.04762e-07
2.96703e-05
-2.56847e-07
3.30129e-05
-4.64622e-07
3.67283e-05
-7.3277e-07
4.08663e-05
-1.06498e-06
4.54752e-05
-1.46368e-06
5.06169e-05
-1.92718e-06
5.63607e-05
-2.44878e-06
6.27949e-05
-3.01249e-06
7.00253e-05
-3.59278e-06
7.69462e-05
-4.15204e-06
7.73207e-05
-4.66099e-06
7.78033e-05
-5.08603e-06
7.84033e-05
-5.39412e-06
7.9115e-05
-5.55716e-06
7.99378e-05
-5.55349e-06
8.08557e-05
-5.37174e-06
8.63053e-05
-4.96639e-06
7.61333e-05
-4.49992e-06
6.71602e-05
-3.99936e-06
5.92281e-05
-3.4857e-06
5.21745e-05
-2.97613e-06
4.59424e-05
-2.48475e-06
4.04208e-05
-2.02256e-06
3.54876e-05
-1.59709e-06
3.1035e-05
-1.49658e-06
2.71374e-05
-1.05579e-06
2.35999e-05
-6.63549e-07
2.04119e-05
-3.35285e-07
1.72534e-05
-1.05098e-07
1.31701e-05
1.73995e-05
6.03338e-08
2.78121e-05
2.22539e-08
7.27921e-08
1.9359e-05
5.17513e-08
2.15428e-05
-4.7458e-09
2.39686e-05
-1.05005e-07
2.66658e-05
-2.5495e-07
2.96684e-05
-4.6016e-07
3.30085e-05
-7.25698e-07
3.67212e-05
-1.05597e-06
4.08573e-05
-1.4547e-06
4.54663e-05
-1.92233e-06
5.0612e-05
-2.45538e-06
5.63673e-05
-3.04255e-06
6.28249e-05
-3.66467e-06
7.00972e-05
-4.2895e-06
7.70837e-05
-4.87257e-06
7.75322e-05
-5.38395e-06
7.81013e-05
-5.78778e-06
7.8797e-05
-6.05207e-06
7.96099e-05
-6.1506e-06
8.0535e-05
-6.06732e-06
8.15512e-05
-5.79589e-06
8.71348e-05
-5.29459e-06
7.69279e-05
-4.74295e-06
6.79038e-05
-4.16954e-06
5.9912e-05
-3.59651e-06
5.27949e-05
-3.04191e-06
4.64995e-05
-2.51868e-06
4.09169e-05
-2.03568e-06
3.59262e-05
-1.97422e-06
3.15126e-05
-1.47702e-06
2.75586e-05
-1.03424e-06
2.39706e-05
-6.47979e-07
2.07246e-05
-3.29627e-07
1.74779e-05
-1.07103e-07
1.32772e-05
1.7402e-05
7.03114e-08
2.78159e-05
5.64894e-08
2.8552e-05
2.02715e-08
4.95146e-08
1.93612e-05
-6.06229e-09
2.15442e-05
-1.04726e-07
2.39683e-05
-2.52422e-07
2.66633e-05
-4.54796e-07
2.9663e-05
-7.17136e-07
3.29999e-05
-1.04434e-06
3.67096e-05
-1.44107e-06
4.08437e-05
-1.90935e-06
4.54533e-05
-2.44826e-06
5.06049e-05
-3.05027e-06
5.6375e-05
-3.70151e-06
6.28618e-05
-4.37669e-06
7.01844e-05
-5.03666e-06
7.72478e-05
-5.63246e-06
7.77808e-05
-6.13215e-06
7.84456e-05
-6.50006e-06
7.9245e-05
-6.70527e-06
8.01646e-05
-6.72676e-06
8.11944e-05
-6.55323e-06
8.23086e-05
-6.18549e-06
8.80257e-05
-5.5858e-06
7.77708e-05
-4.94951e-06
6.86838e-05
-4.30666e-06
6.06221e-05
-3.67999e-06
5.3433e-05
-3.08631e-06
4.70672e-05
-2.53654e-06
4.14178e-05
-2.51719e-06
3.64692e-05
-1.9491e-06
3.19847e-05
-1.44647e-06
2.79708e-05
-1.00619e-06
2.43288e-05
-6.28517e-07
2.10235e-05
-3.2124e-07
1.76921e-05
-1.07058e-07
1.33842e-05
1.74039e-05
4.76518e-08
2.78199e-05
6.63847e-08
2.85557e-05
5.27841e-08
2.93119e-05
1.83917e-08
-7.00464e-09
1.93622e-05
-1.04078e-07
2.15435e-05
-2.49497e-07
2.39654e-05
-4.48897e-07
2.66574e-05
-7.07682e-07
2.96536e-05
-1.03107e-06
3.29866e-05
-1.42435e-06
3.66928e-05
-1.89075e-06
4.08251e-05
-2.4313e-06
4.54363e-05
-3.04147e-06
5.05961e-05
-3.71172e-06
5.63853e-05
-4.42267e-06
6.29078e-05
-5.14263e-06
7.02904e-05
-5.82769e-06
7.7443e-05
-6.42228e-06
7.80709e-05
-6.89519e-06
7.88408e-05
-7.21093e-06
7.97506e-05
-7.34314e-06
8.0781e-05
-7.27514e-06
8.19163e-05
-7.00285e-06
8.31259e-05
-6.5344e-06
8.89743e-05
-5.83598e-06
7.86573e-05
-5.11803e-06
6.94951e-05
-4.41123e-06
6.13534e-05
-3.73697e-06
5.40836e-05
-3.11005e-06
4.76407e-05
-3.13752e-06
4.20381e-05
-2.48542e-06
3.70055e-05
-1.90852e-06
3.24467e-05
-1.406e-06
2.83706e-05
-9.72208e-07
2.46725e-05
-6.05555e-07
2.13078e-05
-3.10464e-07
1.78955e-05
-1.05366e-07
1.34896e-05
1.74045e-05
-7.65966e-09
2.78221e-05
4.53742e-08
2.85594e-05
6.26514e-08
2.93154e-05
4.92225e-08
3.00898e-05
1.66162e-08
-1.03181e-07
1.93613e-05
-2.46347e-07
2.15404e-05
-4.42736e-07
2.39592e-05
-6.97783e-07
2.66475e-05
-1.01688e-06
2.96394e-05
-1.40575e-06
3.2968e-05
-1.86848e-06
3.66706e-05
-2.40754e-06
4.08013e-05
-3.02079e-06
4.54156e-05
-3.70215e-06
5.05865e-05
-4.43717e-06
5.63998e-05
-5.2006e-06
6.29657e-05
-5.95643e-06
7.04191e-05
-6.65351e-06
7.76743e-05
-7.23173e-06
7.84074e-05
-7.6609e-06
7.92907e-05
-7.9093e-06
8.03168e-05
-7.95432e-06
8.14601e-05
-7.78638e-06
8.26998e-05
-7.40901e-06
8.40006e-05
-6.83751e-06
8.99758e-05
-6.04264e-06
7.95819e-05
-5.24828e-06
7.03322e-05
-4.48371e-06
6.21001e-05
-3.76825e-06
5.47418e-05
-3.84855e-06
4.83517e-05
-3.09847e-06
4.26512e-05
-2.43336e-06
3.75303e-05
-1.85446e-06
3.28952e-05
-1.35703e-06
2.87555e-05
-9.33364e-07
2.50003e-05
-5.79746e-07
2.15771e-05
-2.97805e-07
1.80879e-05
-1.02412e-07
1.3592e-05
1.74035e-05
-1.02124e-07
2.78212e-05
-6.68584e-09
2.85615e-05
4.33314e-08
2.9319e-05
5.91054e-08
3.00932e-05
4.58046e-08
3.08897e-05
1.4946e-08
-2.43103e-07
1.9358e-05
-4.36515e-07
2.15341e-05
-6.87769e-07
2.39492e-05
-1.00233e-06
2.6633e-05
-1.38618e-06
2.96198e-05
-1.844e-06
3.29435e-05
-2.37936e-06
3.66424e-05
-2.99189e-06
4.07724e-05
-3.6783e-06
4.53918e-05
-4.42815e-06
5.05775e-05
-5.22168e-06
5.64208e-05
-6.02981e-06
6.30391e-05
-6.80951e-06
7.05751e-05
-7.50414e-06
7.79467e-05
-8.04859e-06
7.87951e-05
-8.41784e-06
7.97993e-05
-8.5831e-06
8.09455e-05
-8.52852e-06
8.22023e-05
-8.25228e-06
8.35431e-05
-7.76555e-06
8.49286e-05
-7.09131e-06
9.10245e-05
-6.20479e-06
8.05384e-05
-5.34029e-06
7.11888e-05
-4.5249e-06
6.28567e-05
-4.66578e-06
5.55591e-05
-3.80196e-06
4.90552e-05
-3.03369e-06
4.32515e-05
-2.36397e-06
3.80399e-05
-1.78916e-06
3.33273e-05
-1.30139e-06
2.91235e-05
-8.90847e-07
2.53114e-05
-5.5187e-07
2.18312e-05
-2.83783e-07
1.82693e-05
-9.85357e-08
1.36905e-05
1.74002e-05
-2.39858e-07
2.78153e-05
-9.63172e-08
2.85602e-05
-5.37887e-09
2.93208e-05
4.15367e-08
3.00965e-05
5.57558e-08
3.08929e-05
4.25352e-08
3.17096e-05
1.33798e-08
-4.30379e-07
1.93519e-05
-6.77878e-07
2.15242e-05
-9.8782e-07
2.39347e-05
-1.36632e-06
2.66131e-05
-1.81845e-06
2.95943e-05
-2.34854e-06
3.29127e-05
-2.95761e-06
3.66081e-05
-3.64452e-06
4.07386e-05
-4.40206e-06
4.53657e-05
-5.21503e-06
5.05708e-05
-6.06033e-06
5.64514e-05
-6.90228e-06
6.31319e-05
-7.69235e-06
7.07633e-05
-8.36751e-06
7.82656e-05
-8.86131e-06
7.92386e-05
-9.1534e-06
8.03696e-05
-9.22122e-06
8.16382e-05
-9.05661e-06
8.30066e-05
-8.66565e-06
8.44432e-05
-8.06797e-06
8.59053e-05
-7.29395e-06
9.21136e-05
-6.32194e-06
8.152e-05
-5.39477e-06
7.20586e-05
-5.60707e-06
6.3798e-05
-4.61179e-06
5.63689e-05
-3.72338e-06
4.97449e-05
-2.94715e-06
4.38347e-05
-2.28032e-06
3.8531e-05
-1.71515e-06
3.37411e-05
-1.24088e-06
2.94735e-05
-8.4586e-07
2.56054e-05
-5.22682e-07
2.20701e-05
-2.68883e-07
1.84396e-05
-9.4032e-08
1.37846e-05
1.73943e-05
-4.24429e-07
2.7803e-05
-2.27486e-07
2.85539e-05
-9.00666e-08
2.93191e-05
-3.73895e-09
3.00981e-05
3.99896e-08
3.08961e-05
5.25991e-08
3.17127e-05
3.94176e-08
3.25535e-05
1.19189e-08
-6.6828e-07
1.93423e-05
-9.73633e-07
2.15101e-05
-1.34665e-06
2.3915e-05
-1.79263e-06
2.65873e-05
-2.31645e-06
2.95622e-05
-2.92014e-06
3.28753e-05
-3.6042e-06
3.65678e-05
-4.364e-06
4.07006e-05
-5.18808e-06
4.53387e-05
-6.0584e-06
5.05689e-05
-6.94572e-06
5.64948e-05
-7.80904e-06
6.32486e-05
-8.59324e-06
7.09891e-05
-9.23217e-06
7.86364e-05
-9.65688e-06
7.97421e-05
-9.85578e-06
8.10041e-05
-9.81363e-06
8.23953e-05
-9.53032e-06
8.38713e-05
-9.02101e-06
8.53962e-05
-8.31361e-06
8.69249e-05
-7.4443e-06
9.3236e-05
-6.39458e-06
8.25198e-05
-6.69191e-06
7.31435e-05
-5.54652e-06
6.47328e-05
-4.51858e-06
5.71641e-05
-3.6179e-06
5.04156e-05
-2.84289e-06
4.43973e-05
-2.18572e-06
3.90016e-05
-1.6349e-06
3.41351e-05
-1.17724e-06
2.98049e-05
-7.99482e-07
2.58822e-05
-4.92861e-07
2.2294e-05
-2.53544e-07
1.85991e-05
-8.91297e-08
1.38737e-05
1.73851e-05
-6.59086e-07
2.77821e-05
-4.03544e-07
2.85409e-05
-2.14505e-07
2.93124e-05
-8.3348e-08
3.00961e-05
-1.76156e-09
3.08974e-05
3.86915e-08
3.17156e-05
4.96346e-08
3.25564e-05
3.64463e-08
3.34194e-05
1.05584e-08
-9.59973e-07
1.93286e-05
-1.32752e-06
2.14909e-05
-1.76716e-06
2.38896e-05
-2.2841e-06
2.65549e-05
-2.88111e-06
2.95231e-05
-3.55994e-06
3.2831e-05
-4.31798e-06
3.65218e-05
-5.14678e-06
4.06593e-05
-6.03251e-06
4.53129e-05
-6.95147e-06
5.05747e-05
-7.86945e-06
5.65552e-05
-8.73887e-06
6.33942e-05
-9.50099e-06
7.12579e-05
-1.0085e-05
7.90645e-05
-1.0423e-05
8.03093e-05
-1.05141e-05
8.17046e-05
-1.0351e-05
8.3216e-05
-9.94311e-06
8.47934e-05
-9.31479e-06
8.63974e-05
-8.50074e-06
8.79814e-05
-7.5425e-06
9.43839e-05
-7.94297e-06
8.37709e-05
-6.62666e-06
7.42236e-05
-5.43822e-06
6.56524e-05
-4.3924e-06
5.79386e-05
-3.4906e-06
5.10633e-05
-2.72508e-06
4.49366e-05
-2.08332e-06
3.945e-05
-1.55069e-06
3.45086e-05
-1.11194e-06
3.01174e-05
-7.52654e-07
2.6142e-05
-4.63008e-07
2.25035e-05
-2.38093e-07
1.87481e-05
-8.40261e-08
1.39577e-05
1.73721e-05
-9.46966e-07
2.77505e-05
-6.27456e-07
2.85193e-05
-3.8188e-07
2.92989e-05
-2.00942e-07
3.0089e-05
-7.62044e-08
3.08951e-05
5.40551e-10
3.17167e-05
3.7642e-08
3.25592e-05
4.68559e-08
3.34222e-05
3.36259e-08
3.43053e-05
9.29648e-09
-1.30917e-06
1.93103e-05
-1.74245e-06
2.14662e-05
-2.25222e-06
2.38577e-05
-2.84175e-06
2.65156e-05
-3.51372e-06
2.94769e-05
-4.26709e-06
3.27801e-05
-5.0958e-06
3.64708e-05
-5.98947e-06
4.06162e-05
-6.92911e-06
4.52905e-05
-7.88644e-06
5.05917e-05
-8.82087e-06
5.66372e-05
-9.68099e-06
6.35742e-05
-1.04025e-05
7.15754e-05
-1.09133e-05
7.95548e-05
-1.11482e-05
8.09434e-05
-1.11182e-05
8.24718e-05
-1.08258e-05
8.40987e-05
-1.02905e-05
8.57691e-05
-9.54442e-06
8.74411e-05
-8.62894e-06
8.90678e-05
-9.38638e-06
9.58273e-05
-7.87691e-06
8.50212e-05
-6.50362e-06
7.5289e-05
-5.2897e-06
6.65497e-05
-4.23949e-06
5.86875e-05
-3.34665e-06
5.16849e-05
-2.59765e-06
4.54509e-05
-1.97603e-06
3.98753e-05
-1.46448e-06
3.48611e-05
-1.04628e-06
3.0411e-05
-7.06196e-07
2.63852e-05
-4.33549e-07
2.2699e-05
-2.22823e-07
1.88869e-05
-7.88673e-08
1.40366e-05
1.73547e-05
-1.29176e-06
2.77058e-05
-9.02286e-07
2.84866e-05
-5.94843e-07
2.92764e-05
-3.59401e-07
3.00748e-05
-1.86773e-07
3.08875e-05
-6.86249e-08
3.17141e-05
3.16677e-09
3.256e-05
3.68484e-08
3.34248e-05
4.4264e-08
3.43079e-05
3.09496e-08
3.52192e-05
8.1316e-09
-1.71879e-06
1.92866e-05
-2.22132e-06
2.14353e-05
-2.80295e-06
2.38189e-05
-3.46701e-06
2.64689e-05
-4.21367e-06
2.94235e-05
-5.03876e-06
3.27231e-05
-5.9347e-06
3.6416e-05
-6.8864e-06
4.05735e-05
-7.87071e-06
4.52748e-05
-8.85327e-06
5.06241e-05
-9.7897e-06
5.67459e-05
-1.06226e-05
6.37943e-05
-1.12852e-05
7.19473e-05
-1.17051e-05
8.01117e-05
-1.18212e-05
8.16464e-05
-1.16593e-05
8.33053e-05
-1.12325e-05
8.50407e-05
-1.0569e-05
8.67937e-05
-9.70887e-06
8.8521e-05
-1.07607e-05
9.04421e-05
-9.32711e-06
9.72775e-05
-7.74129e-06
8.62588e-05
-6.33173e-06
7.6331e-05
-5.10853e-06
6.74187e-05
-4.06615e-06
5.9407e-05
-3.19086e-06
5.22781e-05
-2.46417e-06
4.59391e-05
-1.86628e-06
4.02771e-05
-1.37792e-06
3.51927e-05
-9.81354e-07
3.06861e-05
-6.60669e-07
2.66123e-05
-4.04876e-07
2.2881e-05
-2.0795e-07
1.9016e-05
-7.37576e-08
1.41104e-05
1.73322e-05
-1.69637e-06
2.76452e-05
-1.23119e-06
2.84407e-05
-8.56381e-07
2.92428e-05
-5.61284e-07
3.00516e-05
-3.3617e-07
3.08728e-05
-1.72049e-07
3.17061e-05
-6.06371e-08
3.25571e-05
6.10298e-09
3.34253e-05
3.63036e-08
3.43104e-05
4.18475e-08
3.52217e-05
2.84085e-08
3.61551e-05
7.0583e-09
-2.19175e-06
1.92571e-05
-2.76532e-06
2.13977e-05
-3.42089e-06
2.37727e-05
-4.15949e-06
2.64147e-05
-4.97845e-06
2.93632e-05
-5.87241e-06
3.26608e-05
-6.82952e-06
3.63591e-05
-7.83096e-06
4.05338e-05
-8.84787e-06
4.52693e-05
-9.84226e-06
5.06766e-05
-1.07635e-05
5.68868e-05
-1.15511e-05
6.40602e-05
-1.21366e-05
7.23789e-05
-1.24486e-05
8.07391e-05
-1.24326e-05
8.24197e-05
-1.21311e-05
8.42038e-05
-1.15667e-05
8.60383e-05
-1.07768e-05
8.78615e-05
-1.21362e-05
8.98965e-05
-1.07168e-05
9.18317e-05
-9.18419e-06
9.87204e-05
-7.54662e-06
8.74737e-05
-6.12007e-06
7.73426e-05
-4.90232e-06
6.82549e-05
-3.87821e-06
6.00944e-05
-3.02759e-06
5.28415e-05
-2.32767e-06
4.64005e-05
-1.75616e-06
4.06554e-05
-1.29243e-06
3.55038e-05
-9.17887e-07
3.09434e-05
-6.16589e-07
2.6824e-05
-3.77264e-07
2.30503e-05
-1.9361e-07
1.91358e-05
-6.87784e-08
1.41791e-05
1.73042e-05
-2.16374e-06
2.75657e-05
-1.6169e-06
2.83786e-05
-1.169e-06
2.91955e-05
-8.09068e-07
3.00169e-05
-5.26661e-07
3.08488e-05
-3.12202e-07
3.16908e-05
-1.56803e-07
3.25487e-05
-5.22649e-08
3.34221e-05
9.33719e-09
3.43106e-05
3.60216e-08
3.52239e-05
3.96047e-08
3.61575e-05
2.59932e-08
3.6589e-05
6.08414e-09
-2.72931e-06
1.9221e-05
-3.37611e-06
2.13529e-05
-4.10584e-06
2.37191e-05
-4.91695e-06
2.63532e-05
-5.80587e-06
2.92966e-05
-6.76335e-06
3.25946e-05
-7.77422e-06
3.63024e-05
-8.81434e-06
4.05002e-05
-9.85148e-06
4.52786e-05
-1.08415e-05
5.07545e-05
-1.17301e-05
5.70658e-05
-1.24541e-05
6.43776e-05
-1.29446e-05
7.28749e-05
-1.31333e-05
8.14398e-05
-1.29749e-05
8.32636e-05
-1.25279e-05
8.51651e-05
-1.18255e-05
8.70871e-05
-1.35074e-05
8.92328e-05
-1.21181e-05
9.12978e-05
-1.05755e-05
9.3223e-05
-8.96959e-06
0.000100143
-7.3034e-06
8.8657e-05
-5.87774e-06
7.8318e-05
-4.67809e-06
6.90548e-05
-3.68097e-06
6.07477e-05
-2.86054e-06
5.33744e-05
-2.19072e-06
4.6835e-05
-1.64744e-06
4.10104e-05
-1.20894e-06
3.57949e-05
-8.56556e-07
3.11833e-05
-5.74308e-07
2.7021e-05
-3.50873e-07
2.32076e-05
-1.79915e-07
1.9247e-05
-6.39898e-08
1.42431e-05
1.72701e-05
-2.69519e-06
2.74641e-05
-2.06216e-06
2.82975e-05
-1.53581e-06
2.91319e-05
-1.10539e-06
2.99685e-05
-7.60628e-07
3.08134e-05
-4.91202e-07
3.16662e-05
-2.87551e-07
3.25329e-05
-1.4104e-07
3.34134e-05
-4.35362e-08
3.43071e-05
1.28441e-08
3.5224e-05
3.59913e-08
3.61596e-05
3.75303e-08
3.65912e-05
2.37239e-08
3.55529e-05
5.23029e-09
-3.3332e-06
1.91781e-05
-4.05364e-06
2.13007e-05
-4.85582e-06
2.3658e-05
-5.73753e-06
2.62849e-05
-6.69166e-06
2.9225e-05
-7.70603e-06
3.25264e-05
-8.76055e-06
3.62486e-05
-9.82801e-06
4.04768e-05
-1.08701e-05
4.53072e-05
-1.18389e-05
5.08634e-05
-1.26769e-05
5.72886e-05
-1.33191e-05
6.47522e-05
-1.3698e-05
7.34396e-05
-1.37509e-05
8.22158e-05
-1.34415e-05
8.41771e-05
-1.28463e-05
8.61858e-05
-1.4867e-05
8.84468e-05
-1.35275e-05
9.06422e-05
-1.19887e-05
9.27111e-05
-1.03499e-05
9.46033e-05
-8.69544e-06
0.000101535
-7.02226e-06
8.98016e-05
-5.61313e-06
7.9253e-05
-4.44227e-06
6.98161e-05
-3.47895e-06
6.13662e-05
-2.69285e-06
5.38765e-05
-2.0555e-06
4.72431e-05
-1.54128e-06
4.13427e-05
-1.1283e-06
3.60666e-05
-7.97815e-07
3.14068e-05
-5.34018e-07
2.72042e-05
-3.25828e-07
2.33535e-05
-1.6694e-07
1.93499e-05
-5.94284e-08
1.43026e-05
1.72294e-05
-3.29251e-06
2.73378e-05
-2.5688e-06
2.81941e-05
-1.95874e-06
2.90488e-05
-1.4527e-06
2.99035e-05
-1.04033e-06
3.07638e-05
-7.11046e-07
3.16299e-05
-4.54874e-07
3.25077e-05
-2.62312e-07
3.33972e-05
-1.24845e-07
3.42981e-05
-3.45005e-08
3.52202e-05
1.66014e-08
3.61594e-05
3.61904e-08
3.65931e-05
3.56478e-08
3.55549e-05
2.16794e-08
3.45448e-05
4.47691e-09
-4.00354e-06
1.9128e-05
-4.79615e-06
2.1241e-05
-5.66922e-06
2.35896e-05
-6.61732e-06
2.62105e-05
-7.63074e-06