/*--------------------------------*- C++ -*----------------------------------*\
  =========                 |
  \\      /  F ield         | OpenFOAM: The Open Source CFD Toolbox
   \\    /   O peration     | Website:  https://openfoam.org
    \\  /    A nd           | Version:  8
     \\/     M anipulation  |
\*---------------------------------------------------------------------------*/
FoamFile
{
    version     2.0;
    format      ascii;
    class       volVectorField;
    location    "0.11";
    object      U;
}
// * * * * * * * * * * * * * * * * * * * * * * * * * * * * * * * * * * * * * //

dimensions      [0 1 -1 0 0 0 0];

internalField   nonuniform List<vector> 
15677
(
(-0.255188 -140.644 0)
(-0.445133 -138.877 0)
(-0.636583 -133.746 0)
(-0.770955 -128.519 0)
(-0.848923 -123.117 0)
(-0.880708 -117.409 0)
(-0.830296 -111.248 0)
(-0.670183 -104.41 0)
(-0.301061 -97.1646 0)
(0.609842 -89.9386 0)
(2.23243 -83.3805 0)
(4.86655 -77.8235 0)
(8.02209 -71.8512 0)
(11.6882 -68.7988 0)
(15.051 -69.2272 0)
(18.1089 -73.8327 0)
(20.3373 -78.56 0)
(21.584 -83.585 0)
(21.9893 -88.221 0)
(21.7566 -90.5336 0)
(21.0066 -91.2906 0)
(19.9175 -91.6559 0)
(18.6823 -92.2609 0)
(17.518 -92.9708 0)
(16.5026 -93.4427 0)
(15.6304 -93.6647 0)
(14.8923 -93.6516 0)
(14.2703 -93.4438 0)
(13.7523 -93.0952 0)
(13.3296 -92.6665 0)
(12.9928 -92.2184 0)
(12.7339 -91.8043 0)
(12.5447 -91.4674 0)
(12.4174 -91.2383 0)
(12.3641 -91.1344 0)
(-1.88725 130.8 0)
(-5.05356 127.861 0)
(-8.91369 122.503 0)
(-13.1356 116.498 0)
(-17.6384 109.601 0)
(-22.1956 101.526 0)
(-26.5966 91.8287 0)
(-30.3393 79.6901 0)
(-32.8969 64.2028 0)
(-33.7462 46.0398 0)
(-32.5765 27.168 0)
(-28.6241 11.7808 0)
(-22.15 3.71237 0)
(-13.5086 3.63706 0)
(-4.83539 10.2238 0)
(2.41489 21.1404 0)
(8.61536 35.5233 0)
(13.8669 50.7294 0)
(18.251 63.5225 0)
(21.99 71.9799 0)
(25.4825 77.7471 0)
(28.617 82.2485 0)
(31.1266 86.1013 0)
(32.497 88.1446 0)
(32.8772 89.391 0)
(32.4856 90.301 0)
(31.5707 91.0485 0)
(30.3344 91.6809 0)
(28.9261 92.203 0)
(27.4484 92.6186 0)
(25.97 92.924 0)
(24.5335 93.1028 0)
(23.1662 93.1248 0)
(21.8787 92.9544 0)
(20.6512 92.5592 0)
(0.928152 53.4986 0)
(1.87778 51.124 0)
(3.27194 43.8598 0)
(4.90667 35.6995 0)
(6.6659 26.4239 0)
(8.48667 15.2337 0)
(10.3049 1.35405 0)
(12.0634 -16.0107 0)
(13.7273 -36.0753 0)
(14.4034 -55.6546 0)
(13.5819 -72.5261 0)
(10.9499 -85.5508 0)
(6.00232 -93.9731 0)
(-2.32749 -94.8297 0)
(-10.8727 -91.476 0)
(-17.832 -87.971 0)
(-22.3542 -84.4727 0)
(-24.1249 -81.6244 0)
(-23.5216 -78.9759 0)
(-21.5643 -76.3284 0)
(-19.1907 -73.3279 0)
(-17.0046 -69.4417 0)
(-15.1144 -64.5105 0)
(-13.5845 -58.4033 0)
(-12.3575 -52.0088 0)
(-11.2522 -46.0186 0)
(-10.2336 -41.0356 0)
(-9.30561 -37.172 0)
(-8.46459 -34.3495 0)
(-7.66586 -32.4201 0)
(-6.89797 -31.2233 0)
(-6.16324 -30.6105 0)
(-5.45818 -30.4483 0)
(-4.78365 -30.6233 0)
(-4.14461 -31.0439 0)
(1.68193 19.3161 0)
(4.56571 26.9201 0)
(7.81316 29.2301 0)
(11.2174 29.1017 0)
(14.8455 27.2123 0)
(18.5628 24.6583 0)
(22.2182 22.1 0)
(25.5854 20.4331 0)
(28.0977 19.6012 0)
(29.5564 18.8634 0)
(30.0263 19.1804 0)
(29.3017 22.6874 0)
(27.36 32.8572 0)
(24.378 47.6281 0)
(20.3879 50.5544 0)
(17.5878 44.7236 0)
(16.0005 34.1878 0)
(15.1387 24.0027 0)
(14.7071 17.88 0)
(14.3505 16.8047 0)
(14.0238 20.0221 0)
(13.6784 25.9553 0)
(13.1318 32.885 0)
(12.5963 39.2736 0)
(12.1729 43.4303 0)
(11.9629 45.7248 0)
(11.8525 47.1179 0)
(11.7907 48.0465 0)
(11.7548 48.7932 0)
(11.6678 49.4474 0)
(11.5036 50.031 0)
(11.2641 50.5397 0)
(10.9581 50.964 0)
(10.5875 51.2969 0)
(10.1737 51.5372 0)
(-0.226735 -46.4754 0)
(-0.250428 -47.417 0)
(-0.199694 -47.1877 0)
(-0.0733049 -46.8613 0)
(0.0467136 -46.566 0)
(0.0882101 -46.3318 0)
(-0.0159531 -46.1495 0)
(-0.292255 -45.9718 0)
(-0.741164 -45.706 0)
(-1.40555 -45.2472 0)
(-2.34645 -44.4887 0)
(-3.52375 -43.3984 0)
(-4.51166 -42.155 0)
(-3.72049 -41.1901 0)
(-1.98088 -42.0134 0)
(-0.832932 -44.0789 0)
(-0.949823 -45.7751 0)
(-2.50147 -46.0825 0)
(-4.94417 -45.0485 0)
(-7.67832 -43.2682 0)
(-10.2859 -41.0106 0)
(-12.2748 -38.264 0)
(-13.3454 -35.0707 0)
(-13.5732 -31.3274 0)
(-13.3065 -26.9564 0)
(-12.9339 -22.7298 0)
(-12.5241 -19.0817 0)
(-12.0924 -16.0503 0)
(-11.6387 -13.5771 0)
(-11.1668 -11.5783 0)
(-10.6852 -9.97257 0)
(-10.2042 -8.68897 0)
(-9.73324 -7.6667 0)
(-9.27437 -6.85422 0)
(-8.82992 -6.20855 0)
(0.138078 5.44729 0)
(0.322033 5.663 0)
(0.500904 5.84711 0)
(0.652181 5.98737 0)
(0.794806 6.11455 0)
(0.939215 6.27489 0)
(1.09527 6.52418 0)
(1.27106 6.93057 0)
(1.47492 7.57461 0)
(1.72439 8.54914 0)
(2.0318 9.96679 0)
(2.44389 11.9227 0)
(2.94947 14.532 0)
(3.57345 17.821 0)
(4.06676 20.0648 0)
(4.01607 20.1242 0)
(3.58286 18.9587 0)
(2.90445 17.4417 0)
(2.02019 16.499 0)
(1.03094 16.696 0)
(-0.0386578 18.0448 0)
(-1.23683 19.9832 0)
(-2.47024 21.6508 0)
(-3.49261 22.9385 0)
(-4.23161 23.8046 0)
(-4.70204 24.4427 0)
(-4.9289 25.0418 0)
(-5.00993 25.6762 0)
(-5.0326 26.321 0)
(-5.03846 26.9425 0)
(-5.04644 27.5179 0)
(-5.06388 28.0345 0)
(-5.09397 28.4863 0)
(-5.14472 28.8724 0)
(-5.20584 29.1969 0)
(-0.192672 -35.2471 0)
(-0.517771 -35.6592 0)
(-0.87719 -35.1318 0)
(-1.24124 -34.5401 0)
(-1.63823 -33.95 0)
(-2.07723 -33.3693 0)
(-2.56796 -32.7996 0)
(-3.11593 -32.2396 0)
(-3.72105 -31.6839 0)
(-4.37027 -31.1167 0)
(-5.03339 -30.5162 0)
(-5.66292 -29.8583 0)
(-6.17275 -29.1175 0)
(-6.40839 -28.2229 0)
(-6.2276 -27.0987 0)
(-5.98316 -25.8757 0)
(-5.91668 -24.6083 0)
(-6.17696 -23.199 0)
(-6.73351 -21.5783 0)
(-7.40445 -19.8145 0)
(-7.96356 -17.8852 0)
(-8.23297 -15.7117 0)
(-8.24631 -13.2355 0)
(-8.23758 -10.8434 0)
(-8.26398 -8.71204 0)
(-8.25503 -6.89703 0)
(-8.19496 -5.35034 0)
(-8.0873 -4.03348 0)
(-7.93126 -2.91533 0)
(-7.73318 -1.96844 0)
(-7.50451 -1.17074 0)
(-7.25476 -0.50542 0)
(-6.99132 0.0453958 0)
(-6.71912 0.500915 0)
(-6.44942 0.877781 0)
(0.0519233 2.98741 0)
(0.0939325 3.34657 0)
(0.0980932 3.50025 0)
(0.0611718 3.55248 0)
(-0.00988577 3.5244 0)
(-0.113648 3.43519 0)
(-0.24965 3.30439 0)
(-0.42023 3.15699 0)
(-0.627131 3.02684 0)
(-0.876618 2.95522 0)
(-1.17131 2.99332 0)
(-1.50951 3.18245 0)
(-1.89443 3.55348 0)
(-2.32555 4.14955 0)
(-2.78873 4.95991 0)
(-3.25862 5.87921 0)
(-3.7369 6.90154 0)
(-4.23893 8.0165 0)
(-4.77444 9.19761 0)
(-5.37966 10.3929 0)
(-6.04461 11.4753 0)
(-6.59687 12.3446 0)
(-6.94473 12.9424 0)
(-7.05057 13.4326 0)
(-6.96881 13.9219 0)
(-6.80863 14.4127 0)
(-6.62701 14.9022 0)
(-6.4474 15.381 0)
(-6.28444 15.8258 0)
(-6.14452 16.2157 0)
(-6.02889 16.5409 0)
(-5.93498 16.8087 0)
(-5.8614 17.0297 0)
(-5.81024 17.2085 0)
(-5.76942 17.3507 0)
(-0.203873 -25.3614 0)
(-0.502947 -25.057 0)
(-0.81187 -24.2374 0)
(-1.09987 -23.4233 0)
(-1.38777 -22.6059 0)
(-1.67563 -21.7777 0)
(-1.97036 -20.9375 0)
(-2.27872 -20.088 0)
(-2.60831 -19.2349 0)
(-2.96752 -18.3847 0)
(-3.36482 -17.5413 0)
(-3.80854 -16.6992 0)
(-4.3074 -15.8382 0)
(-4.86912 -14.9117 0)
(-5.40248 -13.9572 0)
(-5.85067 -13.009 0)
(-6.23408 -12.0242 0)
(-6.53956 -10.9893 0)
(-6.73029 -9.88326 0)
(-6.73195 -8.67017 0)
(-6.57596 -7.30649 0)
(-6.45416 -5.87144 0)
(-6.40625 -4.5608 0)
(-6.38513 -3.41695 0)
(-6.34848 -2.41206 0)
(-6.28574 -1.53186 0)
(-6.19013 -0.76393 0)
(-6.0607 -0.0935561 0)
(-5.90084 0.48707 0)
(-5.71836 0.981599 0)
(-5.52158 1.40129 0)
(-5.31829 1.75844 0)
(-5.11371 2.06301 0)
(-4.90848 2.32372 0)
(-4.70614 2.54806 0)
(-0.0299019 5.52459 0)
(-0.107001 4.78126 0)
(-0.227428 4.0509 0)
(-0.37967 3.34853 0)
(-0.567015 2.66367 0)
(-0.78542 2.00408 0)
(-1.03312 1.38603 0)
(-1.30794 0.830461 0)
(-1.60708 0.361621 0)
(-1.92603 0.00646294 0)
(-2.26099 -0.205987 0)
(-2.61289 -0.24395 0)
(-2.96886 -0.0733721 0)
(-3.31615 0.328959 0)
(-3.64762 0.941064 0)
(-3.95497 1.67843 0)
(-4.23824 2.52653 0)
(-4.5057 3.45298 0)
(-4.82438 4.40248 0)
(-5.20765 5.27235 0)
(-5.5245 5.99827 0)
(-5.64892 6.56093 0)
(-5.60628 7.05238 0)
(-5.47777 7.50571 0)
(-5.31641 7.92909 0)
(-5.14637 8.32085 0)
(-4.98177 8.67703 0)
(-4.83124 8.99355 0)
(-4.69871 9.26928 0)
(-4.58503 9.50471 0)
(-4.48978 9.70165 0)
(-4.41121 9.8634 0)
(-4.34794 9.99383 0)
(-4.30007 10.0969 0)
(-4.25891 10.1764 0)
(-0.083903 -16.2533 0)
(-0.210018 -15.7868 0)
(-0.345176 -15.0464 0)
(-0.480045 -14.3149 0)
(-0.625089 -13.5943 0)
(-0.785823 -12.884 0)
(-0.969153 -12.1868 0)
(-1.18217 -11.5067 0)
(-1.43223 -10.8466 0)
(-1.72646 -10.2077 0)
(-2.07094 -9.58778 0)
(-2.4697 -8.98014 0)
(-2.92442 -8.36982 0)
(-3.43059 -7.72182 0)
(-3.90524 -7.06259 0)
(-4.29644 -6.41354 0)
(-4.61197 -5.74685 0)
(-4.84008 -5.01569 0)
(-4.91393 -4.19509 0)
(-4.83218 -3.38373 0)
(-4.75025 -2.58442 0)
(-4.72512 -1.79219 0)
(-4.71696 -1.07348 0)
(-4.69704 -0.441824 0)
(-4.65429 0.110486 0)
(-4.5878 0.593 0)
(-4.49907 1.01392 0)
(-4.39101 1.38054 0)
(-4.26862 1.69943 0)
(-4.13661 1.97718 0)
(-3.99951 2.21984 0)
(-3.8615 2.43284 0)
(-3.72543 2.62089 0)
(-3.5913 2.78804 0)
(-3.45882 2.93769 0)
(-0.0443286 4.82784 0)
(-0.135947 3.93492 0)
(-0.259994 3.14881 0)
(-0.408115 2.43961 0)
(-0.580294 1.78047 0)
(-0.77395 1.17 0)
(-0.987635 0.616188 0)
(-1.21946 0.130945 0)
(-1.46722 -0.272178 0)
(-1.72823 -0.579048 0)
(-1.99672 -0.775234 0)
(-2.27723 -0.846039 0)
(-2.56048 -0.771946 0)
(-2.83207 -0.538691 0)
(-3.08435 -0.162654 0)
(-3.30703 0.295741 0)
(-3.50528 0.829896 0)
(-3.68797 1.41885 0)
(-3.88009 2.01656 0)
(-4.06196 2.58391 0)
(-4.14875 3.08682 0)
(-4.12003 3.54148 0)
(-4.03395 3.94688 0)
(-3.92241 4.30848 0)
(-3.80444 4.63238 0)
(-3.68902 4.92099 0)
(-3.5814 5.17511 0)
(-3.48447 5.39816 0)
(-3.39953 5.59032 0)
(-3.32674 5.75251 0)
(-3.26497 5.8887 0)
(-3.21301 6.00179 0)
(-3.17 6.09437 0)
(-3.13595 6.16894 0)
(-3.1048 6.22779 0)
(-0.0367589 -9.97452 0)
(-0.0966939 -9.44987 0)
(-0.163086 -8.82993 0)
(-0.233928 -8.24716 0)
(-0.315188 -7.69354 0)
(-0.411404 -7.16728 0)
(-0.527911 -6.66981 0)
(-0.670235 -6.20271 0)
(-0.843927 -5.7659 0)
(-1.0541 -5.35655 0)
(-1.30457 -4.96844 0)
(-1.59719 -4.59239 0)
(-1.93124 -4.21621 0)
(-2.30149 -3.81297 0)
(-2.64847 -3.39426 0)
(-2.93661 -2.97296 0)
(-3.17084 -2.53242 0)
(-3.33631 -2.07219 0)
(-3.38892 -1.59661 0)
(-3.38668 -1.08826 0)
(-3.41234 -0.556005 0)
(-3.43889 -0.0457163 0)
(-3.44536 0.40727 0)
(-3.4312 0.802855 0)
(-3.39751 1.14527 0)
(-3.34523 1.44093 0)
(-3.27871 1.69738 0)
(-3.20201 1.92101 0)
(-3.11811 2.11717 0)
(-3.03023 2.2901 0)
(-2.94106 2.44357 0)
(-2.8528 2.58081 0)
(-2.76704 2.70445 0)
(-2.68361 2.81659 0)
(-2.60063 2.91891 0)
(-0.0442327 3.85941 0)
(-0.124876 3.04067 0)
(-0.229237 2.36488 0)
(-0.348579 1.77768 0)
(-0.483009 1.25058 0)
(-0.630811 0.77888 0)
(-0.791055 0.365208 0)
(-0.962533 0.014403 0)
(-1.144 -0.268388 0)
(-1.3342 -0.478378 0)
(-1.53 -0.611099 0)
(-1.73474 -0.662004 0)
(-1.9438 -0.623738 0)
(-2.14832 -0.487692 0)
(-2.33737 -0.2622 0)
(-2.50247 0.0176855 0)
(-2.64468 0.345752 0)
(-2.78883 0.708045 0)
(-2.93827 1.0922 0)
(-3.03314 1.45385 0)
(-3.05099 1.80513 0)
(-3.01873 2.13957 0)
(-2.96013 2.44142 0)
(-2.88895 2.70979 0)
(-2.81245 2.94684 0)
(-2.73708 3.1563 0)
(-2.66661 3.34121 0)
(-2.6019 3.50314 0)
(-2.54383 3.64364 0)
(-2.49243 3.76446 0)
(-2.44719 3.8674 0)
(-2.4076 3.95425 0)
(-2.3736 4.02663 0)
(-2.34445 4.08609 0)
(-2.31585 4.13444 0)
(-0.0107919 -5.83981 0)
(-0.0319393 -5.34229 0)
(-0.0608606 -4.86311 0)
(-0.0958499 -4.43429 0)
(-0.141885 -4.04237 0)
(-0.202121 -3.68392 0)
(-0.280405 -3.35842 0)
(-0.380529 -3.06516 0)
(-0.506049 -2.8018 0)
(-0.659919 -2.56363 0)
(-0.843841 -2.34349 0)
(-1.05793 -2.13239 0)
(-1.30038 -1.91971 0)
(-1.56665 -1.68695 0)
(-1.81565 -1.43733 0)
(-2.02367 -1.17877 0)
(-2.19201 -0.904326 0)
(-2.29194 -0.611429 0)
(-2.36074 -0.287935 0)
(-2.4351 0.058891 0)
(-2.49405 0.405527 0)
(-2.5295 0.732974 0)
(-2.53977 1.02287 0)
(-2.52943 1.27607 0)
(-2.50342 1.497 0)
(-2.46636 1.68953 0)
(-2.42001 1.85693 0)
(-2.36698 2.00334 0)
(-2.3104 2.13229 0)
(-2.25201 2.2466 0)
(-2.19335 2.34866 0)
(-2.136 2.44038 0)
(-2.08064 2.52321 0)
(-2.0271 2.59842 0)
(-1.97349 2.66718 0)
(-0.0367783 2.88458 0)
(-0.1023 2.24393 0)
(-0.182163 1.74545 0)
(-0.270848 1.32668 0)
(-0.369054 0.962155 0)
(-0.475087 0.645674 0)
(-0.588688 0.376345 0)
(-0.709272 0.15456 0)
(-0.836424 -0.0193133 0)
(-0.969996 -0.145212 0)
(-1.10874 -0.223137 0)
(-1.25605 -0.252425 0)
(-1.40974 -0.229709 0)
(-1.5661 -0.149065 0)
(-1.7147 -0.0118132 0)
(-1.85238 0.164607 0)
(-1.98371 0.375396 0)
(-2.10176 0.608447 0)
(-2.18468 0.842758 0)
(-2.22601 1.08128 0)
(-2.23771 1.32368 0)
(-2.22416 1.55863 0)
(-2.19435 1.77259 0)
(-2.15492 1.96409 0)
(-2.1105 2.13397 0)
(-2.06421 2.28344 0)
(-2.01813 2.41465 0)
(-1.97478 2.53008 0)
(-1.93421 2.6311 0)
(-1.89669 2.71882 0)
(-1.86257 2.79441 0)
(-1.83159 2.85889 0)
(-1.80357 2.91351 0)
(-1.77834 2.95949 0)
(-1.75289 2.99794 0)
(0.000769686 -3.20702 0)
(-0.00580823 -2.77533 0)
(-0.0201875 -2.41775 0)
(-0.0423498 -2.11434 0)
(-0.0746935 -1.84881 0)
(-0.119389 -1.61639 0)
(-0.178699 -1.41494 0)
(-0.254807 -1.24215 0)
(-0.349629 -1.09445 0)
(-0.464688 -0.966586 0)
(-0.60025 -0.851812 0)
(-0.756694 -0.742645 0)
(-0.932241 -0.630469 0)
(-1.1205 -0.503056 0)
(-1.29185 -0.360518 0)
(-1.4335 -0.208129 0)
(-1.5553 -0.0314852 0)
(-1.66419 0.17837 0)
(-1.75615 0.403425 0)
(-1.82481 0.625499 0)
(-1.87336 0.850376 0)
(-1.89915 1.0642 0)
(-1.90486 1.25485 0)
(-1.89565 1.4225 0)
(-1.87573 1.56952 0)
(-1.84805 1.69844 0)
(-1.81582 1.81166 0)
(-1.78012 1.91084 0)
(-1.74195 1.99804 0)
(-1.70305 2.07519 0)
(-1.6645 2.14388 0)
(-1.62687 2.20531 0)
(-1.59088 2.26054 0)
(-1.55652 2.31053 0)
(-1.52158 2.35611 0)
(-0.0356023 2.16646 0)
(-0.0927344 1.73629 0)
(-0.157077 1.40883 0)
(-0.224391 1.1393 0)
(-0.295635 0.908717 0)
(-0.370133 0.711811 0)
(-0.448506 0.546973 0)
(-0.531291 0.413353 0)
(-0.619309 0.310043 0)
(-0.713026 0.236517 0)
(-0.812619 0.193007 0)
(-0.920185 0.179935 0)
(-1.03513 0.198332 0)
(-1.15685 0.252389 0)
(-1.2836 0.336898 0)
(-1.39187 0.438666 0)
(-1.48054 0.565722 0)
(-1.5555 0.708764 0)
(-1.61019 0.857149 0)
(-1.64733 1.01605 0)
(-1.66719 1.18266 0)
(-1.66982 1.34669 0)
(-1.65956 1.4972 0)
(-1.64059 1.6325 0)
(-1.61606 1.753 0)
(-1.58841 1.85949 0)
(-1.55956 1.95287 0)
(-1.53034 2.03437 0)
(-1.50216 2.1057 0)
(-1.47551 2.16814 0)
(-1.45051 2.22243 0)
(-1.42708 2.26938 0)
(-1.40549 2.30987 0)
(-1.38543 2.34476 0)
(-1.36475 2.3749 0)
(0.00556714 -1.3131 0)
(0.00645328 -1.06029 0)
(-0.000340332 -0.863535 0)
(-0.0145186 -0.700014 0)
(-0.0375405 -0.559333 0)
(-0.0708165 -0.438065 0)
(-0.11552 -0.334414 0)
(-0.172369 -0.246325 0)
(-0.242637 -0.171122 0)
(-0.328103 -0.105337 0)
(-0.429347 -0.0444872 0)
(-0.54672 0.016005 0)
(-0.680507 0.0811702 0)
(-0.826651 0.161515 0)
(-0.96533 0.258941 0)
(-1.08667 0.369613 0)
(-1.19143 0.493067 0)
(-1.27785 0.62566 0)
(-1.3468 0.76578 0)
(-1.39965 0.911135 0)
(-1.43629 1.05972 0)
(-1.4559 1.20282 0)
(-1.46085 1.33193 0)
(-1.45512 1.44657 0)
(-1.44187 1.54785 0)
(-1.42351 1.63708 0)
(-1.40175 1.7156 0)
(-1.37808 1.78478 0)
(-1.35359 1.84573 0)
(-1.32865 1.89935 0)
(-1.30387 1.94668 0)
(-1.28003 1.98871 0)
(-1.25717 2.02633 0)
(-1.23552 2.06046 0)
(-1.21357 2.09164 0)
(-0.0245541 1.58877 0)
(-0.0650103 1.37437 0)
(-0.111008 1.20562 0)
(-0.159045 1.06571 0)
(-0.20963 0.945768 0)
(-0.262389 0.843177 0)
(-0.317507 0.756874 0)
(-0.375709 0.686264 0)
(-0.437175 0.631412 0)
(-0.503507 0.592131 0)
(-0.57608 0.567608 0)
(-0.65752 0.556979 0)
(-0.748898 0.56044 0)
(-0.848937 0.582134 0)
(-0.945558 0.626392 0)
(-1.03016 0.687785 0)
(-1.10341 0.76512 0)
(-1.16556 0.85582 0)
(-1.21621 0.956929 0)
(-1.25442 1.06638 0)
(-1.2798 1.18198 0)
(-1.29172 1.29655 0)
(-1.29252 1.40219 0)
(-1.28533 1.49754 0)
(-1.2727 1.58283 0)
(-1.25662 1.65859 0)
(-1.23858 1.72555 0)
(-1.21973 1.78443 0)
(-1.20074 1.83601 0)
(-1.18223 1.88122 0)
(-1.16482 1.92102 0)
(-1.14819 1.95624 0)
(-1.13271 1.9876 0)
(-1.11864 2.01548 0)
(-1.1038 2.04006 0)
(0.00320105 -0.139612 0)
(0.00157491 0.0171305 0)
(-0.00621212 0.119633 0)
(-0.0193054 0.199704 0)
(-0.0393709 0.266061 0)
(-0.0674431 0.321742 0)
(-0.10412 0.368554 0)
(-0.150659 0.40822 0)
(-0.208235 0.442927 0)
(-0.276942 0.475844 0)
(-0.35712 0.51012 0)
(-0.448224 0.545994 0)
(-0.549672 0.583255 0)
(-0.660059 0.625554 0)
(-0.764969 0.675959 0)
(-0.855871 0.735534 0)
(-0.935337 0.807187 0)
(-1.00295 0.889345 0)
(-1.0584 0.979253 0)
(-1.1017 1.07476 0)
(-1.13289 1.17416 0)
(-1.15116 1.27147 0)
(-1.15822 1.36045 0)
(-1.15703 1.44036 0)
(-1.15002 1.51165 0)
(-1.13903 1.57502 0)
(-1.12545 1.63125 0)
(-1.11034 1.68115 0)
(-1.0945 1.72551 0)
(-1.07851 1.76504 0)
(-1.06272 1.80035 0)
(-1.04735 1.83196 0)
(-1.03283 1.86032 0)
(-1.0189 1.88569 0)
(-1.00415 1.90831 0)
(-0.0144602 1.25502 0)
(-0.0424266 1.18496 0)
(-0.0720472 1.11527 0)
(-0.104399 1.05435 0)
(-0.139203 1.00063 0)
(-0.176624 0.953578 0)
(-0.21699 0.913486 0)
(-0.26079 0.880822 0)
(-0.308899 0.85563 0)
(-0.363012 0.83794 0)
(-0.422417 0.827583 0)
(-0.486398 0.823614 0)
(-0.556861 0.826099 0)
(-0.634077 0.838453 0)
(-0.711765 0.863953 0)
(-0.783948 0.900946 0)
(-0.849553 0.950006 0)
(-0.907234 1.00948 0)
(-0.955631 1.07737 0)
(-0.994153 1.15186 0)
(-1.02241 1.23134 0)
(-1.03953 1.31074 0)
(-1.0469 1.38446 0)
(-1.04705 1.45146 0)
(-1.0421 1.51182 0)
(-1.03368 1.56589 0)
(-1.02304 1.61414 0)
(-1.0111 1.6571 0)
(-0.998527 1.69529 0)
(-0.985778 1.7292 0)
(-0.973167 1.75928 0)
(-0.96092 1.78594 0)
(-0.949228 1.80947 0)
(-0.938114 1.83019 0)
(-0.926213 1.84839 0)
(-0.000417997 0.534428 0)
(-0.00704649 0.638026 0)
(-0.0175996 0.693211 0)
(-0.0325743 0.732737 0)
(-0.0523122 0.76382 0)
(-0.0778646 0.789006 0)
(-0.110221 0.809877 0)
(-0.149907 0.828039 0)
(-0.197317 0.844043 0)
(-0.253138 0.857479 0)
(-0.315786 0.868029 0)
(-0.383936 0.878263 0)
(-0.458961 0.891747 0)
(-0.540896 0.912113 0)
(-0.620278 0.941081 0)
(-0.691626 0.9768 0)
(-0.756102 1.0202 0)
(-0.812726 1.07095 0)
(-0.860739 1.12798 0)
(-0.899692 1.19016 0)
(-0.929302 1.25628 0)
(-0.948547 1.32224 0)
(-0.958438 1.38346 0)
(-0.961275 1.43913 0)
(-0.958992 1.48934 0)
(-0.953087 1.5344 0)
(-0.944704 1.57469 0)
(-0.934709 1.61063 0)
(-0.923753 1.64266 0)
(-0.912318 1.67118 0)
(-0.900762 1.69654 0)
(-0.889367 1.7191 0)
(-0.878366 1.73915 0)
(-0.867794 1.75697 0)
(-0.85648 1.77285 0)
(-0.00941498 1.16483 0)
(-0.0277884 1.1752 0)
(-0.0489005 1.15669 0)
(-0.0721148 1.13596 0)
(-0.0982154 1.11617 0)
(-0.126838 1.09844 0)
(-0.159133 1.08335 0)
(-0.194765 1.07083 0)
(-0.233587 1.05982 0)
(-0.276368 1.04895 0)
(-0.323785 1.03847 0)
(-0.377418 1.03115 0)
(-0.438255 1.03 0)
(-0.506505 1.03703 0)
(-0.574777 1.05355 0)
(-0.637464 1.07766 0)
(-0.695196 1.10931 0)
(-0.746846 1.14779 0)
(-0.791491 1.19216 0)
(-0.82845 1.24143 0)
(-0.857232 1.29458 0)
(-0.876643 1.34819 0)
(-0.887381 1.39838 0)
(-0.891459 1.44431 0)
(-0.89063 1.48594 0)
(-0.886282 1.52341 0)
(-0.879496 1.557 0)
(-0.871104 1.58699 0)
(-0.861738 1.6137 0)
(-0.851868 1.63745 0)
(-0.841841 1.65853 0)
(-0.831923 1.6772 0)
(-0.822331 1.69373 0)
(-0.813118 1.70834 0)
(-0.803269 1.72125 0)
(-0.00304781 0.907562 0)
(-0.0122875 0.993301 0)
(-0.0245211 1.03085 0)
(-0.0398708 1.0552 0)
(-0.0590312 1.07309 0)
(-0.0821432 1.08637 0)
(-0.110237 1.0955 0)
(-0.142877 1.10045 0)
(-0.179613 1.10223 0)
(-0.221873 1.1022 0)
(-0.27035 1.10158 0)
(-0.32543 1.10215 0)
(-0.387341 1.10575 0)
(-0.45578 1.11443 0)
(-0.523079 1.12949 0)
(-0.58416 1.14986 0)
(-0.640178 1.17583 0)
(-0.690385 1.20701 0)
(-0.734111 1.24282 0)
(-0.770794 1.28254 0)
(-0.799979 1.3254 0)
(-0.820389 1.36867 0)
(-0.832473 1.4092 0)
(-0.838065 1.44631 0)
(-0.838792 1.47994 0)
(-0.835959 1.51021 0)
(-0.830592 1.53735 0)
(-0.823494 1.56158 0)
(-0.815286 1.58319 0)
(-0.806439 1.60241 0)
(-0.797308 1.61951 0)
(-0.788173 1.63469 0)
(-0.779256 1.64818 0)
(-0.770623 1.66015 0)
(-0.761488 1.6708 0)
(-0.00791214 1.20408 0)
(-0.0209297 1.25289 0)
(-0.0380254 1.25871 0)
(-0.0565614 1.25608 0)
(-0.0771128 1.25109 0)
(-0.0998569 1.24521 0)
(-0.124947 1.23822 0)
(-0.15296 1.23008 0)
(-0.184815 1.22148 0)
(-0.221283 1.21337 0)
(-0.263172 1.20623 0)
(-0.311323 1.20085 0)
(-0.366265 1.19856 0)
(-0.428174 1.20109 0)
(-0.490196 1.20983 0)
(-0.547331 1.22371 0)
(-0.600363 1.24263 0)
(-0.648466 1.26613 0)
(-0.690921 1.29363 0)
(-0.727103 1.32449 0)
(-0.756485 1.35805 0)
(-0.777671 1.39206 0)
(-0.790874 1.424 0)
(-0.797749 1.45327 0)
(-0.799814 1.4798 0)
(-0.798306 1.50367 0)
(-0.794217 1.52504 0)
(-0.78833 1.54412 0)
(-0.781257 1.5611 0)
(-0.773469 1.5762 0)
(-0.765321 1.58959 0)
(-0.757087 1.60147 0)
(-0.748985 1.612 0)
(-0.741098 1.62132 0)
(-0.732879 1.62958 0)
(-0.00396086 1.13947 0)
(-0.013259 1.2198 0)
(-0.0248409 1.24903 0)
(-0.0389502 1.26528 0)
(-0.0561605 1.27452 0)
(-0.0759527 1.27931 0)
(-0.099234 1.2811 0)
(-0.126592 1.28062 0)
(-0.158355 1.27856 0)
(-0.195098 1.27556 0)
(-0.237257 1.27225 0)
(-0.285303 1.26945 0)
(-0.339587 1.2683 0)
(-0.400251 1.27027 0)
(-0.460705 1.27666 0)
(-0.516329 1.28694 0)
(-0.568104 1.30113 0)
(-0.615356 1.31891 0)
(-0.657461 1.33984 0)
(-0.693832 1.3634 0)
(-0.723945 1.38901 0)
(-0.746307 1.41493 0)
(-0.760917 1.43918 0)
(-0.769286 1.4613 0)
(-0.77284 1.48125 0)
(-0.772757 1.49912 0)
(-0.769992 1.51506 0)
(-0.765313 1.52922 0)
(-0.759324 1.54179 0)
(-0.752498 1.55294 0)
(-0.745197 1.56281 0)
(-0.737703 1.57156 0)
(-0.730234 1.5793 0)
(-0.722896 1.58616 0)
(-0.715412 1.59224 0)
(-0.00566351 1.28265 0)
(-0.016361 1.34996 0)
(-0.0299469 1.36596 0)
(-0.0444504 1.37125 0)
(-0.0612845 1.37247 0)
(-0.0804137 1.37113 0)
(-0.102302 1.36812 0)
(-0.127503 1.36391 0)
(-0.156581 1.35881 0)
(-0.190178 1.35319 0)
(-0.228946 1.34752 0)
(-0.273524 1.34243 0)
(-0.324421 1.33882 0)
(-0.38192 1.33786 0)
(-0.439827 1.34078 0)
(-0.493605 1.34712 0)
(-0.544117 1.35675 0)
(-0.590686 1.36932 0)
(-0.632684 1.38441 0)
(-0.669516 1.40151 0)
(-0.700628 1.42011 0)
(-0.724412 1.43883 0)
(-0.740641 1.45618 0)
(-0.750682 1.47184 0)
(-0.755875 1.4858 0)
(-0.757344 1.49817 0)
(-0.756015 1.50906 0)
(-0.752639 1.51865 0)
(-0.747824 1.52708 0)
(-0.742047 1.53448 0)
(-0.735677 1.54099 0)
(-0.729003 1.54671 0)
(-0.722241 1.55174 0)
(-0.715523 1.55617 0)
(-0.708863 1.56006 0)
(-0.00399915 1.287 0)
(-0.0121656 1.36896 0)
(-0.0234298 1.39516 0)
(-0.0363796 1.40786 0)
(-0.0519205 1.41465 0)
(-0.0701224 1.41791 0)
(-0.0914148 1.41872 0)
(-0.116208 1.41768 0)
(-0.144967 1.41519 0)
(-0.178201 1.41164 0)
(-0.216447 1.40747 0)
(-0.260247 1.40321 0)
(-0.310078 1.39963 0)
(-0.366273 1.39769 0)
(-0.422932 1.39859 0)
(-0.475749 1.40218 0)
(-0.525668 1.4083 0)
(-0.572092 1.41667 0)
(-0.614445 1.4269 0)
(-0.652151 1.43853 0)
(-0.684653 1.45106 0)
(-0.710222 1.46343 0)
(-0.728398 1.4746 0)
(-0.740409 1.48438 0)
(-0.747507 1.49282 0)
(-0.750771 1.50004 0)
(-0.751086 1.50619 0)
(-0.749183 1.51143 0)
(-0.745679 1.51589 0)
(-0.741064 1.51969 0)
(-0.735714 1.52294 0)
(-0.729928 1.52573 0)
(-0.723925 1.52811 0)
(-0.71786 1.53017 0)
(-0.712066 1.53194 0)
(-0.00457112 1.36226 0)
(-0.0138671 1.44205 0)
(-0.0253381 1.46505 0)
(-0.0383769 1.47514 0)
(-0.0535509 1.47991 0)
(-0.0710727 1.4816 0)
(-0.0913666 1.48119 0)
(-0.114885 1.47919 0)
(-0.142149 1.47594 0)
(-0.173728 1.47174 0)
(-0.210227 1.46694 0)
(-0.252251 1.46196 0)
(-0.300337 1.45739 0)
(-0.354889 1.45401 0)
(-0.410263 1.45291 0)
(-0.462251 1.45403 0)
(-0.511791 1.45715 0)
(-0.558329 1.46197 0)
(-0.601319 1.46809 0)
(-0.640206 1.47505 0)
(-0.674425 1.48233 0)
(-0.702121 1.48913 0)
(-0.722581 1.4948 0)
(-0.736882 1.49928 0)
(-0.746189 1.50267 0)
(-0.751509 1.50517 0)
(-0.753719 1.50683 0)
(-0.753534 1.50791 0)
(-0.751561 1.50862 0)
(-0.748297 1.50897 0)
(-0.744137 1.50907 0)
(-0.73939 1.50899 0)
(-0.734277 1.50879 0)
(-0.728984 1.5085 0)
(-0.724176 1.50816 0)
(12.4322 -91.0956 0)
(12.1117 -91.0132 0)
(11.7134 -90.9282 0)
(11.329 -90.844 -3.37288e-17)
(10.9392 -90.7581 0)
(10.5332 -90.6768 0)
(10.1094 -90.6127 0)
(9.66689 -90.5804 0)
(9.2024 -90.5926 3.30321e-17)
(8.71118 -90.6558 0)
(8.18668 -90.7679 0)
(7.62795 -90.9137 -3.24501e-17)
(7.06756 -91.0687 0)
(6.53686 -91.2203 -3.32564e-17)
(6.03391 -91.351 0)
(5.55169 -91.4391 0)
(5.08791 -91.4581 0)
(4.6311 -91.3704 3.44052e-17)
(4.17811 -91.2272 0)
(3.7424 -91.1207 1.74191e-17)
(3.34534 -91.0749 0)
(2.96062 -91.088 0)
(19.1252 91.7365 0)
(17.8288 90.7759 0)
(16.6817 89.8593 0)
(15.608 88.999 5.01672e-17)
(14.6466 88.2024 0)
(13.8198 87.4726 0)
(13.1321 86.8161 -9.54389e-17)
(12.5791 86.2416 0)
(12.1456 85.7569 -1.43008e-16)
(11.802 85.3697 9.33815e-17)
(11.5084 85.0953 9.25906e-17)
(11.2 84.9721 4.79077e-17)
(10.7687 85.0356 0)
(10.1229 85.2598 4.86117e-17)
(9.22392 85.6172 0)
(8.08341 86.0825 0)
(6.73434 86.6162 0)
(5.19944 87.1566 -1.46632e-16)
(3.52083 87.6574 0)
(1.73974 88.0934 -2.56075e-17)
(-0.139889 88.4184 0)
(-2.05347 88.5667 -5.06751e-17)
(-3.42653 -31.8149 0)
(-2.79924 -33.1976 0)
(-2.27216 -34.9453 0)
(-1.79504 -36.9504 0)
(-1.37397 -39.0906 0)
(-1.0136 -41.2346 6.74895e-17)
(-0.71412 -43.2364 6.48635e-17)
(-0.476319 -44.9394 0)
(-0.300389 -46.1809 6.53501e-17)
(-0.176068 -46.79 -6.55582e-17)
(-0.0982 -46.5949 -6.56332e-17)
(-0.0638172 -45.4221 0)
(-0.0278222 -43.2217 0)
(0.0390062 -40.2511 0)
(0.137153 -36.898 7.07333e-17)
(0.277084 -33.5173 0)
(0.450469 -30.3303 0)
(0.644602 -27.4616 6.84805e-17)
(0.85779 -25.0002 0)
(1.08916 -23.0746 0)
(1.35525 -21.6834 0)
(1.58268 -20.6914 3.5807e-17)
(9.73481 51.7498 0)
(9.37012 52.0348 0)
(8.9411 52.3803 0)
(8.37842 52.8008 -7.83437e-17)
(7.67635 53.2932 0)
(6.82898 53.8404 7.72146e-17)
(5.83198 54.4151 0)
(4.70048 54.978 0)
(3.44935 55.4607 0)
(2.11678 55.7867 0)
(0.791342 55.9047 -1.67057e-16)
(-0.502226 55.799 0)
(-1.67642 55.5293 0)
(-2.60712 55.1921 0)
(-3.28941 54.872 8.34528e-17)
(-3.73928 54.6132 1.74172e-16)
(-3.9869 54.4312 0)
(-4.06216 54.3346 0)
(-4.00539 54.3189 0)
(-3.8599 54.3608 0)
(-3.67816 54.4244 8.95226e-17)
(-3.4169 54.469 0)
(-8.31569 -5.49517 -1.34568e-16)
(-7.73497 -4.74215 0)
(-7.20882 -4.11587 -1.46084e-16)
(-6.69218 -3.61516 7.20809e-17)
(-6.18316 -3.22442 0)
(-5.68287 -2.93407 -1.46698e-16)
(-5.1907 -2.73689 -1.51439e-16)
(-4.70753 -2.62473 -1.52647e-16)
(-4.23478 -2.58624 0)
(-3.78229 -2.60891 0)
(-3.35982 -2.67664 1.51871e-16)
(-2.97848 -2.77103 0)
(-2.63065 -2.89336 0)
(-2.2899 -3.04416 0)
(-1.95383 -3.18527 -3.19469e-16)
(-1.61675 -3.28969 -1.59055e-16)
(-1.2736 -3.33894 0)
(-0.91524 -3.30258 -1.65254e-16)
(-0.536096 -3.16614 0)
(-0.14232 -2.96667 1.6704e-16)
(0.289205 -2.75887 -8.17542e-17)
(0.704679 -2.58963 0)
(-5.20347 29.5512 1.61618e-16)
(-5.08535 29.928 -1.7076e-16)
(-4.90333 30.2675 3.46413e-16)
(-4.691 30.5689 1.7324e-16)
(-4.45137 30.8263 0)
(-4.1827 31.04 0)
(-3.88339 31.2125 1.79207e-16)
(-3.55692 31.3408 1.80264e-16)
(-3.20429 31.422 0)
(-2.82569 31.4542 0)
(-2.42014 31.4375 0)
(-1.99698 31.3743 0)
(-1.59054 31.2688 0)
(-1.23272 31.1339 1.84637e-16)
(-0.922378 30.9804 1.88829e-16)
(-0.653915 30.8172 -1.87298e-16)
(-0.421336 30.6517 0)
(-0.216361 30.4901 1.92111e-16)
(-0.0289958 30.3415 0)
(0.136217 30.2133 -2.73025e-18)
(0.28765 30.1096 1.90944e-16)
(0.470519 30.0291 -1.97503e-16)
(-6.16858 1.31454 -1.65227e-16)
(-5.87837 1.83269 1.74923e-16)
(-5.60001 2.32342 -1.76088e-16)
(-5.31028 2.77797 1.66607e-18)
(-5.01393 3.19025 1.79925e-16)
(-4.71346 3.55657 0)
(-4.40956 3.8771 0)
(-4.10341 4.15274 0)
(-3.79676 4.38465 0)
(-3.49246 4.57507 3.68511e-16)
(-3.19389 4.72747 0)
(-2.90091 4.84538 0)
(-2.6066 4.93133 0)
(-2.30564 4.9892 -1.8753e-16)
(-1.99875 5.02413 0)
(-1.68777 5.04019 3.82596e-16)
(-1.3736 5.04059 0)
(-1.05709 5.0274 0)
(-0.737841 5.00035 0)
(-0.414599 4.95711 -1.94369e-16)
(-0.0887548 4.8949 -1.94952e-16)
(0.216632 4.80845 2.01672e-16)
(-5.67864 17.4971 1.87889e-16)
(-5.51445 17.6528 0)
(-5.30683 17.7999 0)
(-5.07645 17.9382 -4.02542e-16)
(-4.82386 18.0569 -1.15576e-18)
(-4.5511 18.1459 -2.02193e-16)
(-4.25542 18.208 -4.05687e-16)
(-3.93586 18.2492 0)
(-3.59392 18.2728 -4.07916e-16)
(-3.23034 18.2798 -2.3263e-18)
(-2.84461 18.2696 -4.09041e-16)
(-2.44396 18.2432 4.09497e-16)
(-2.05356 18.204 0)
(-1.69157 18.1548 0)
(-1.35754 18.0973 0)
(-1.04948 18.0335 2.11298e-16)
(-0.765772 17.9657 0)
(-0.504805 17.8963 0)
(-0.265012 17.8283 0)
(-0.0457564 17.7648 0)
(0.154707 17.7101 0)
(0.356205 17.6696 0)
(-4.51829 2.8246 0)
(-4.33795 3.17723 0)
(-4.15876 3.53073 2.11622e-16)
(-3.9716 3.87455 -8.58408e-19)
(-3.77969 4.20202 2.14084e-16)
(-3.58475 4.50691 6.40807e-16)
(-3.38629 4.78759 4.27202e-16)
(-3.18507 5.04398 0)
(-2.98235 5.27674 4.28919e-16)
(-2.77784 5.48978 -4.29521e-16)
(-2.57155 5.68633 4.29319e-16)
(-2.36391 5.86462 1.6294e-18)
(-2.15147 6.01968 0)
(-1.93216 6.14969 0)
(-1.7068 6.25665 0)
(-1.47703 6.34238 1.64813e-18)
(-1.24389 6.4082 0)
(-1.00828 6.45481 0)
(-0.770768 6.48211 0)
(-0.530748 6.48931 0)
(-0.29054 6.47655 0)
(-0.0625015 6.44296 0)
(-4.18825 10.2586 0)
(-4.07909 10.3603 2.29729e-16)
(-3.94072 10.4676 -4.617e-16)
(-3.78818 10.5788 2.31862e-16)
(-3.61996 10.6874 -4.6497e-16)
(-3.43613 10.7833 -1.1143e-18)
(-3.2387 10.8624 -4.65737e-16)
(-3.02613 10.929 0)
(-2.79801 10.9863 0)
(-2.55526 11.0338 0)
(-2.29733 11.072 0)
(-2.02806 11.1017 -4.67589e-16)
(-1.76207 11.1227 0)
(-1.51015 11.1352 0)
(-1.27208 11.1399 0)
(-1.04714 11.1384 -4.84965e-16)
(-0.83491 11.1319 0)
(-0.634881 11.122 -4.89201e-16)
(-0.446788 11.1101 -4.91196e-16)
(-0.270629 11.0983 2.46379e-16)
(-0.104441 11.0892 0)
(0.0605714 11.0868 2.55115e-16)
(-3.34301 3.13035 0)
(-3.23853 3.37537 -4.88895e-16)
(-3.13001 3.6227 2.45069e-16)
(-3.01512 3.8682 0)
(-2.8944 4.11119 0)
(-2.76845 4.3488 -4.93789e-16)
(-2.63764 4.57588 4.94544e-16)
(-2.503 4.78744 -4.95886e-16)
(-2.36478 4.98338 4.96182e-16)
(-2.22199 5.16687 0)
(-2.07511 5.33918 0)
(-1.92378 5.49876 0)
(-1.76701 5.64105 0)
(-1.60487 5.76417 0)
(-1.43815 5.86978 -5.10474e-16)
(-1.26796 5.95934 0)
(-1.09506 6.03384 0)
(-0.92005 6.09376 5.19185e-16)
(-0.743423 6.13908 5.21459e-16)
(-0.565649 6.16927 -2.61642e-16)
(-0.387559 6.18315 -2.62688e-16)
(-0.214505 6.18061 -2.71117e-16)
(-3.05862 6.29343 0)
(-2.99448 6.38096 2.64095e-16)
(-2.91193 6.47327 0)
(-2.82003 6.56814 5.30149e-16)
(-2.71757 6.66363 0)
(-2.60375 6.75863 0)
(-2.47821 6.85167 0)
(-2.34126 6.94095 5.32949e-16)
(-2.19336 7.02449 -5.32958e-16)
(-2.03479 7.1013 5.32272e-16)
(-1.86556 7.17125 0)
(-1.68792 7.23377 5.3078e-16)
(-1.51032 7.28728 0)
(-1.33904 7.33132 -5.43123e-16)