/*--------------------------------*- C++ -*----------------------------------*\
  =========                 |
  \\      /  F ield         | OpenFOAM: The Open Source CFD Toolbox
   \\    /   O peration     | Website:  https://openfoam.org
    \\  /    A nd           | Version:  8
     \\/     M anipulation  |
\*---------------------------------------------------------------------------*/
FoamFile
{
    version     2.0;
    format      ascii;
    class       volScalarField;
    location    "0.23";
    object      epsilon;
}
// * * * * * * * * * * * * * * * * * * * * * * * * * * * * * * * * * * * * * //

dimensions      [0 2 -3 0 0 0 0];

internalField   nonuniform List<scalar> 
15677
(
59.7301
18.3646
52.6885
8.08373
26.0275
50.236
4.62235
13.3249
31.6582
50.5443
3.17413
7.74952
17.1293
37.3387
51.6386
2.48699
5.05431
10.0489
20.8548
42.687
53.678
2.14424
3.62773
6.47308
12.1843
24.5751
47.6824
55.7353
1.97931
2.82286
4.52987
7.73541
14.2954
28.2746
52.0334
57.665
1.91149
2.35341
3.40401
5.31574
8.92668
16.4383
31.7692
55.7065
59.3612
1.88406
2.0803
2.72415
3.91187
6.02744
10.1144
18.5454
34.9608
58.7184
60.858
1.8705
1.93937
2.3074
3.05674
4.36083
6.71218
11.2798
20.5736
37.7748
61.1869
62.1223
1.86763
1.87828
2.05651
2.52163
3.34942
4.77909
7.36722
12.4216
22.4609
40.2305
63.1728
63.2329
1.86862
1.84884
1.91656
2.18627
2.71313
3.61666
5.1678
8.00379
13.5069
24.2007
42.319
64.7924
64.1569
1.86954
1.83871
1.85192
1.98271
2.30713
2.88717
3.85955
5.53781
8.60656
14.5354
25.7582
44.1014
66.0895
64.9902
1.86978
1.837
1.82112
1.86776
2.05147
2.41855
3.04362
4.0859
5.8827
9.1804
15.4815
27.1519
45.5856
67.1414
65.7145
1.86977
1.83726
1.8105
1.81335
1.89822
2.11769
2.51905
3.18722
4.29317
6.20796
9.71057
16.3535
28.3636
46.8341
67.998
66.3573
1.86972
1.83753
1.8082
1.78979
1.81542
1.93043
2.1789
2.61086
3.31694
4.48575
6.50594
10.2032
17.1307
29.4192
47.8667
68.6957
66.9437
1.86969
1.83763
1.8079
1.78277
1.7757
1.82154
1.96243
2.23543
2.69328
3.43578
4.65997
6.78129
10.6453
17.8263
30.3126
48.7116
69.2908
67.4454
1.86967
1.83765
1.80791
1.78106
1.76145
1.76617
1.83177
1.99324
2.28643
2.7681
3.54205
4.81921
7.02685
11.0452
18.4252
31.0655
49.4046
69.7618
67.9514
1.86966
1.83765
1.80791
1.78073
1.75696
1.74394
1.76039
1.8432
2.02166
2.33268
2.83453
3.63806
4.95968
7.24819
11.3908
18.9428
31.6813
49.9454
70.2041
68.3476
1.86966
1.83764
1.8079
1.78069
1.75567
1.73592
1.72951
1.75745
1.85456
2.04781
2.37373
2.894
3.72199
5.08498
7.43827
11.6924
19.3671
32.1763
50.3908
70.5306
68.8188
1.86966
1.83763
1.80788
1.78068
1.75535
1.73321
1.71727
1.71804
1.75589
1.86573
2.07129
2.41036
2.94573
3.79603
5.19159
7.60348
11.9387
19.7176
32.5608
50.7088
70.8955
69.1343
1.86966
1.83763
1.80786
1.78067
1.75525
1.73238
1.71264
1.70134
1.70848
1.75583
1.87615
2.09235
2.44225
2.99107
3.85869
5.28334
7.73756
12.1436
19.9819
32.8466
50.9777
71.1359
69.6019
1.86966
1.83762
1.80785
1.78064
1.75521
1.73213
1.711
1.69453
1.68724
1.7009
1.75615
1.88575
2.11091
2.47026
3.02953
3.91227
5.35739
7.84809
12.2954
20.1864
33.0481
51.1438
71.4781
69.861
1.86966
1.83762
1.80784
1.78062
1.75517
1.73203
1.71044
1.69192
1.67797
1.67537
1.69464
1.75693
1.89462
2.12748
2.49432
3.06249
3.95571
5.41793
7.9299
12.4134
20.3152
33.1726
51.2869
71.6753
70.3287
1.86967
1.83761
1.80783
1.7806
1.75514
1.73197
1.71023
1.69096
1.67415
1.66375
1.6649
1.68963
1.75844
1.9029
2.14212
2.51537
3.08998
3.99174
5.46342
7.99213
12.4828
20.4012
33.2422
51.3743
72.0586
70.5787
1.86967
1.83761
1.80783
1.78059
1.75512
1.73192
1.71013
1.69058
1.67263
1.65871
1.65073
1.65641
1.68603
1.76032
1.91086
2.15568
2.53386
3.11355
4.0198
5.49777
8.02955
12.5302
20.4249
33.2448
51.4233
72.3504
430.177
1.86967
1.83761
1.80783
1.78057
1.7551
1.73188
1.71006
1.6904
1.67203
1.65659
1.6443
1.64018
1.64918
1.68338
1.7633
1.91913
2.16849
2.55076
3.13355
4.04269
5.52117
8.05417
12.5354
20.4141
33.2277
51.5195
88.5895
722.23
1.86967
1.8376
1.80783
1.78056
1.75508
1.73185
1.71
1.69029
1.67175
1.65568
1.6415
1.63254
1.63058
1.64423
1.68336
1.76757
1.92806
2.1816
2.56698
3.15206
4.06136
5.53777
8.06025
12.5262
20.3844
33.1895
52.4008
121.805
1009.84
1.86968
1.8376
1.80783
1.78055
1.75507
1.73182
1.70996
1.6902
1.67159
1.65525
1.64028
1.62902
1.62162
1.62422
1.64079
1.68472
1.77359
1.93866
2.19583
2.58398
3.16994
4.07794
5.54829
8.05762
12.5044
20.3282
33.1956
54.8863
157.534
1266.48
1.86968
1.83759
1.80783
1.78054
1.75507
1.73179
1.70992
1.69014
1.67148
1.65502
1.6397
1.6274
1.61746
1.61418
1.61855
1.64125
1.68838
1.78226
1.95167
2.21242
2.60258
3.18888
4.09368
5.55559
8.05104
12.467
20.2681
33.2657
59.3804
190.519
1506.05
1.86968
1.83759
1.80783
1.78053
1.75506
1.73177
1.70989
1.69008
1.67139
1.65486
1.63939
1.6266
1.61552
1.60928
1.6076
1.61818
1.64379
1.69561
1.79441
1.96827
2.23226
2.62444
3.21007
4.11097
5.5629
8.03948
12.4278
20.2055
33.4813
64.0448
221.951
1712.58
1.86968
1.83759
1.80784
1.78052
1.75506
1.73175
1.70987
1.69003
1.67131
1.65473
1.63917
1.62617
1.61455
1.60689
1.60228
1.60613
1.6201
1.64968
1.70728
1.8112
1.98946
2.25695
2.65063
3.23559
4.13119
5.57225
8.03027
12.3873
20.136
33.9015
68.782
249.846
1872.4
1.86969
1.83758
1.80784
1.78052
1.75506
1.73173
1.70985
1.68999
1.67125
1.65464
1.639
1.62589
1.61401
1.60568
1.59968
1.60009
1.60784
1.62548
1.66094
1.72441
1.83368
2.01674
2.28751
2.68295
3.26634
4.15687
5.58634
8.02281
12.3478
20.0748
34.4158
73.0948
271.657
1998.95
1.86969
1.83758
1.80784
1.78051
1.75506
1.73171
1.70984
1.68995
1.6712
1.65455
1.63887
1.62568
1.61365
1.60501
1.59833
1.5971
1.60171
1.61305
1.63624
1.67842
1.74808
1.86334
2.05115
2.32563
2.7223
3.30457
4.1889
5.60673
8.02304
12.3083
20.0199
34.9174
76.4204
289.035
2102.74
1.83758
1.86972
1.80784
1.7805
1.75506
1.7317
1.70983
1.68992
1.67116
1.65447
1.63876
1.62552
1.61338
1.60459
1.59757
1.59557
1.59868
1.60688
1.62367
1.65413
1.70312
1.77987
1.90133
2.09444
2.37227
2.7706
3.35076
4.2295
5.6344
8.02639
12.2677
19.9631
35.2838
78.9748
303.171
2191.08
1.80785
1.83768
1.8698
1.7805
1.75506
1.73169
1.70982
1.68989
1.67113
1.65441
1.63866
1.62538
1.61316
1.60428
1.59707
1.59473
1.59716
1.6039
1.61757
1.64206
1.67987
1.73667
1.82092
1.94936
2.1475
2.42913
2.82838
3.40707
4.2784
5.67001
8.03612
12.227
19.8999
35.539
80.9041
315.189
2269
1.78049
1.808
1.83787
1.86987
1.75506
1.73167
1.70982
1.68986
1.67111
1.65435
1.63858
1.62526
1.61298
1.60404
1.5967
1.59422
1.59635
1.60248
1.61476
1.63651
1.66881
1.7152
1.78046
1.87311
2.00848
2.21205
2.49702
2.89758
3.47296
4.337
5.71855
8.0567
12.1953
19.8304
35.6759
82.422
325.609
2339.51
1.75506
1.7807
1.80833
1.83808
1.86995
1.73166
1.70981
1.68983
1.67109
1.65429
1.63852
1.62515
1.61282
1.60384
1.5964
1.59386
1.59588
1.6018
1.61357
1.63432
1.6643
1.70589
1.7617
1.83666
1.93781
2.08077
2.28878
2.57736
2.97775
3.55012
4.41248
5.78414
8.08878
12.1689
19.7533
35.7498
83.6086
335.046
2404.85
1.73165
1.75531
1.78111
1.80866
1.83828
1.87003
1.70981
1.68981
1.67107
1.65424
1.63847
1.62505
1.61269
1.60367
1.59614
1.59357
1.59555
1.60144
1.61316
1.63378
1.66319
1.70325
1.75525
1.82195
1.90685
2.0175
2.16718
2.37968
2.67014
3.07061
3.64744
4.51035
5.86244
8.13021
12.1526
19.6751
35.7463
84.6043
343.63
2465.94
1.70981
1.73194
1.75584
1.78154
1.80899
1.8385
1.87011
1.68979
1.67106
1.65419
1.63843
1.62496
1.61258
1.60352
1.59593
1.59335
1.59531
1.60124
1.61307
1.63397
1.66365
1.70373
1.7549
1.81914
1.8977
1.99417
2.11354
2.27019
2.48526
2.77649
3.18681
3.77191
4.62183
5.95185
8.18146
12.1413
19.5961
35.7259
85.4277
351.708
2523.91
1.68977
1.71014
1.73253
1.75637
1.78198
1.80934
1.83872
1.87019
1.67105
1.65415
1.6384
1.62488
1.6125
1.60339
1.59574
1.59316
1.59511
1.60111
1.61311
1.63446
1.66487
1.70595
1.75795
1.82242
1.89947
1.99132
2.09945
2.22934
2.39061
2.6075
2.91055
3.33307
3.91042
4.74603
6.05117
8.2408
12.1417
19.5224
35.6817
86.1678
359.237
2578.73
1.67104
1.69011
1.71082
1.73314
1.75692
1.78244
1.8097
1.83895
1.87028
1.65411
1.63838
1.6248
1.61243
1.60327
1.59559
1.593
1.59496
1.60102
1.61322
1.63503
1.66632
1.70893
1.76283
1.82936
1.90804
2.00004
2.10478
2.22538
2.36438
2.53149
2.7626
3.08142
3.49727
4.06307
4.88105
6.15921
8.30795
12.1462
19.4537
35.6237
86.8102
366.45
2631.24
1.65407
1.67143
1.69084
1.71152
1.73377
1.75749
1.7829
1.81007
1.83918
1.87036
1.63836
1.62473
1.61238
1.60315
1.59545
1.59287
1.59483
1.60096
1.61336
1.63562
1.6678
1.71203
1.76843
1.83833
1.92051
2.01605
2.12292
2.24235
2.37322
2.52128
2.71019
2.96227
3.27487
3.6795
4.22873
5.02556
6.27463
8.38158
12.1563
19.393
35.5597
87.4203
373.231
2680.94
1.63834
1.65445
1.67223
1.69158
1.71224
1.73441
1.75807
1.78339
1.81044
1.83942
1.87045
1.62466
1.61233
1.60304
1.59535
1.59275
1.59473
1.60092
1.61351
1.63619
1.66923
1.71503
1.77403
1.84809
1.93532
2.0365
2.14903
2.27321
2.40529
2.54759
2.72065
2.938
3.19013
3.49148
3.87822
4.40625
5.17827
6.39625
8.46031
12.1747
19.3395
35.5007
87.9696
379.776
2728.67
1.62461
1.63875
1.65526
1.67305
1.69235
1.71298
1.73508
1.75866
1.78388
1.81083
1.83966
1.87054
1.6123
1.60294
1.59526
1.59265
1.59464
1.6009
1.61365
1.63673
1.67059
1.71787
1.77939
1.85768
1.95103
2.05994
2.18047
2.31328
2.45269
2.59928
2.77159
2.97974
3.19638
3.44131
3.7298
4.09309
4.59469
5.33794
6.52256
8.54333
12.1985
19.2941
35.4454
88.5096
385.932
2773.66
1.61228
1.62496
1.63962
1.65609
1.6739
1.69314
1.71374
1.73576
1.75927
1.78439
1.81122
1.83992
1.87063
1.60284
1.5952
1.59257
1.59456
1.60088
1.6138
1.63724
1.67187
1.72052
1.78447
1.86684
1.9664
2.08472
2.21597
2.36025
2.51128
2.66883
2.85079
3.06587
3.27868
3.48723
3.71501
3.98535
4.3225
4.79219
5.50281
6.65232
8.62956
12.2272
19.2556
35.3982
89.0052
391.891
2816.9
1.60274
1.61267
1.62576
1.6405
1.65694
1.67477
1.69396
1.71452
1.73646
1.7599
1.78491
1.81163
1.84018
1.87073
1.59516
1.59248
1.59449
1.60086
1.61393
1.6377
1.67305
1.72296
1.78923
1.87547
1.98112
2.1091
2.25347
2.4132
2.57926
2.75286
2.952
3.18577
3.40992
3.61898
3.80985
4.01106
4.25456
4.5636
4.99708
5.67203
6.78435
8.71804
12.2597
19.2247
35.3584
89.5003
397.474
2857.39
1.59515
1.60299
1.61349
1.62658
1.64142
1.65783
1.67566
1.69481
1.71532
1.73719
1.76054
1.78545
1.81204
1.84044
1.87081
1.59238
1.59442
1.60085
1.61406
1.63814
1.67414
1.72522
1.79366
1.88353
1.99511
2.13262
2.29052
2.46967
2.6563
2.85045
3.07315
3.33524
3.58355
3.8074
4.00159
4.16342
4.32845
4.53595
4.81359
5.20867
5.8442
6.91766
8.80789
12.2955
19.1997
35.3266
89.9592
402.892
2896.34
1.5923
1.59542
1.60359
1.61433
1.62743
1.64237
1.65875
1.67658
1.69568
1.71614
1.73793
1.7612
1.786
1.81245
1.84069
1.8709
1.59434
1.60083
1.61418
1.63854
1.67514
1.72729
1.79777
1.89102
2.00832
2.15505
2.32648
2.52633
2.73932
2.96217
3.21489
3.51494
3.79906
4.05164
4.26203
4.42755
4.54698
4.66506
4.82787
5.06733
5.42425
6.0179
7.05112
8.89827
12.3338
19.1813
35.3023
90.4203
407.931
2932.56
1.59429
1.59224
1.59599
1.60419
1.61521
1.62832
1.64334
1.6597
1.67753
1.69657
1.71698
1.7387
1.76188
1.78654
1.81285
1.84093
1.87098
1.60081
1.61428
1.6389
1.67606
1.72919
1.80155
1.89794
2.02072
2.17626
2.36114
2.58217
2.82335
3.08445
3.37994
3.72917
4.06228
4.35797
4.59951
4.77888
4.89826
4.95951
5.01871
5.12928
5.32365
5.64146
6.1915
7.18381
8.98845
12.374
19.1672
35.2838
90.8496
412.839
2967.44
1.60082
1.59411
1.59216
1.59657
1.60483
1.61613
1.62926
1.64434
1.66069
1.6785
1.6975
1.71785
1.73949
1.76254
1.78707
1.81323
1.84116
1.87106
1.61436
1.63923
1.67689
1.73093
1.80502
1.90433
2.0323
2.19618
2.39436
2.63659
2.90672
3.2108
3.565
3.98551
4.385
4.74285
5.03333
5.24124
5.3651
5.41575
5.40009
5.38741
5.43788
5.58124
5.85891
6.36432
7.31518
9.07785
12.4155
19.1587
35.273
91.2799
417.362
2999.65
1.61451
1.60039
1.59369
1.59203
1.59721
1.60553
1.61707
1.63023
1.64537
1.66171
1.67949
1.69845
1.71873
1.74027
1.76319
1.78758
1.81361
1.84139
1.87114
1.63952
1.67764
1.73252
1.8082
1.91022
2.04307
2.2148
2.42603
2.68908
2.98874
3.33953
3.76097
4.28181
4.78612
5.23551
5.60192
5.85772
5.99616
6.02963
5.98252
5.86789
5.76928
5.75159
5.8386
6.07411
6.53586
7.44455
9.16594
12.4578
19.1529
35.2651
91.6809
421.795
3030.74
1.63987
1.61367
1.59931
1.5932
1.59198
1.5979
1.6063
1.61805
1.63126
1.64642
1.66276
1.68051
1.69943
1.71961
1.74103
1.76382
1.78809
1.81397
1.84162
1.87122
1.6783
1.73394
1.8111
1.91562
2.05304
2.23215
2.45605
2.73925
3.06904
3.46963
3.96398
4.60527
5.2732
5.88324
6.37015
6.70541
6.87226
6.88584
6.78147
6.60069
6.36193
6.16242
6.0685
6.09484
6.28471
6.70467
7.57127
9.25231
12.5005
19.1521
35.2652
92.0815
425.842
3055.72
1.67902
1.63841
1.61147
1.59812
1.59281
1.59204
1.59861
1.60714
1.61904
1.63233
1.6475
1.66386
1.68156
1.7004
1.72046
1.74176
1.76444
1.78857
1.81433
1.84184
1.87129
1.73524
1.81372
1.92058
2.06224
2.24827
2.48438
2.7869
3.14736
3.5997
4.17117
4.95315
5.83754
6.71995
7.43532
7.90345
8.12487
8.11581
7.92822
7.62692
7.27098
6.88069
6.56489
6.38688
6.34908
6.49027
6.86971
7.6948
9.33655
12.5431
19.1533
35.2671
92.452
429.297
3076.84
1.73657
1.67681
1.63443
1.60912
1.59705
1.59252
1.59223
1.59931
1.60805
1.62006
1.63345
1.64862
1.66498
1.6826
1.70134
1.72129
1.74248
1.76504
1.78905
1.81467
1.84205
1.87137
1.81612
1.9251
2.0707
2.26325
2.51099
2.83198
3.22346
3.72818
4.38066
5.32666
6.48268
7.73813
8.86221
9.61112
9.93784
9.91479
9.61314
9.13205
8.56723
7.99176
7.42186
6.97461
6.70512
6.60003
6.69037
7.03024
7.81466
9.41838
12.5855
19.1561
35.2715
92.7711
432.135
3099.69
1.81848
1.73338
1.67042
1.63018
1.60698
1.59611
1.59229
1.59263
1.6
1.60904
1.6211
1.63461
1.64976
1.66609
1.68361
1.70226
1.7221
1.74318
1.76562
1.78951
1.81501
1.84225
1.87144
1.92929
2.07846
2.27713
2.53589
2.87455
3.29706
3.85373
4.592
5.7273
7.21029
8.93349
10.6211
11.9171
12.5392
12.5376
12.1004
11.3696
10.4947
9.59776
8.75873
7.98226
7.38933
7.02171
6.84658
6.88459
7.1857
7.93048
9.49752
12.6272
19.1614
35.2788
93.0328
435.248
3124.74
1.93327
1.81408
1.72354
1.6637
1.62622
1.60501
1.59523
1.59198
1.5932
1.60071
1.6101
1.62219
1.63581
1.6509
1.66718
1.6846
1.70315
1.72289
1.74386
1.76618
1.78995
1.81533
1.84245
1.87147
2.08568
2.29
2.55914
2.91468
3.36788
3.97549
4.80569
6.15504
8.01511
10.2926
12.6841
14.7515
16.0453
16.2976
15.7274
14.6791
13.3729
12.0033
10.7086
9.5653
8.55786
7.80665
7.33518
7.08781
7.07258
7.33567
8.042
9.57384
12.668
19.1675
35.2852
93.3322
438.597
3152
2.09236
1.92732
1.79934
1.71331
1.6574
1.62252
1.60317
1.59445
1.59168
1.59389
1.60145
1.61122
1.62331
1.63701
1.65201
1.66824
1.68556
1.70402
1.72365
1.74451
1.76673
1.79039
1.81565
1.84255
1.87147
2.30208
2.58083
2.95248
3.43565
4.09313
5.0226
6.60776
8.88668
11.7926
15.0159
18.0597
20.3424
21.3598
20.9241
19.5018
17.6278
15.598
13.6378
11.886
10.4032
9.14407
8.22408
7.64419
7.32292
7.254
7.47988
8.14905
9.64712
12.7025
19.1734
35.2953
93.6496
442.317
3182.05
2.31301
2.08458
1.90556
1.78419
1.7037
1.65146
1.61903
1.60148
1.59372
1.59145
1.59466
1.60225
1.61238
1.62445
1.63817
1.65311
1.66926
1.6865
1.70487
1.7244
1.74515
1.76727
1.79081
1.81581
1.84255
1.87147
2.60127
2.98812
3.50024
4.20673
5.24339
7.08151
9.8119
13.4064
17.5719
21.7811
25.3469
27.5657
27.9335
26.4232
23.832
20.9097
18.0123
15.3743
13.1146
11.2631
9.73604
8.63917
7.94745
7.55123
7.42865
7.6182
8.25148
9.70811
12.7323
19.181
35.3062
94.0193
446.318
3214.8
2.61937
2.30275
2.05279
1.8835
1.76996
1.69459
1.64579
1.61575
1.59991
1.59309
1.59132
1.59549
1.60312
1.61353
1.62558
1.6393
1.65418
1.67026
1.68742
1.70569
1.72513
1.74578
1.76778
1.79102
1.81581
1.84255
1.87147
3.02198
3.56177
4.31682
5.46824
7.57101
10.7768
15.1068
20.3043
25.8419
30.9636
34.7948
36.5488
35.7973
32.7692
28.6719
24.479
20.5797
17.1875
14.3782
12.1358
10.329
9.04954
8.24379
7.77221
7.59635
7.75042
8.33674
9.76034
12.7657
19.1903
35.3233
94.4111
450.777
3251.01
3.05156
2.60613
2.25641
2.02101
1.86278
1.75642
1.68586
1.64038
1.61265
1.59846
1.59255
1.5913
1.59635
1.60405
1.61464
1.6267
1.6404
1.65523
1.67123
1.68831
1.70649
1.72583
1.74638
1.76804
1.79102
1.81581
1.84255
1.87147
3.62067
4.42419
5.6969
8.07024
11.7675
16.8667
23.1658
30.163
37.0735
42.9002
46.5998
47.3636
44.9372
39.9077
33.9606
28.2851
23.2633
19.0527
15.6615
13.0125
10.9182
9.45294
8.5322
7.98545
7.75704
7.85937
8.40972
9.8181
12.803
19.2024
35.3422
94.872
455.582
3290.43
3.67174
3.03409
2.53849
2.2108
1.9912
1.84304
1.74339
1.67745
1.63521
1.60975
1.59713
1.59213
1.59141
1.5972
1.60501
1.61573
1.62781
1.64147
1.65626
1.67218
1.68918
1.70726
1.72652
1.74668
1.76804
1.79102
1.81581
1.84255
1.87147
4.52947
5.92667
8.5731
12.7704
18.6606
26.1105
34.6653
43.5472
51.6926
57.8638
60.8871
60.0181
55.2931
47.7585
39.6275
32.2752
26.0269
20.9468
16.9505
13.8852
11.4997
9.84745
8.81184
8.19059
7.8906
7.95209
8.4903
9.88207
12.8449
19.2171
35.3708
95.3595
460.975
3334.15
4.622
3.64919
2.93376
2.47303
2.1681
1.96274
1.82399
1.7308
1.66938
1.63029
1.60706
1.59595
1.59184
1.59168
1.598
1.60602
1.61678
1.6289
1.64251
1.65726
1.6731
1.69003
1.70802
1.72686
1.74668
1.76804
1.79102
1.81581
1.84255
1.87143
6.15491
9.07536
13.7736
20.4645
29.0952
39.2732
50.2558
60.9646
70.0473
76.0398
77.6973
74.4523
66.761
56.221
45.5951
36.3962
28.8368
22.8492
18.2329
14.7467
12.0697
10.2314
9.08196
8.36148
8.00486
8.05396
8.57939
9.95308
12.892
19.236
35.4022
95.9235
466.8
3381.64
4.59206
6.35653
3.49528
2.839
2.41185
2.12731
1.93526
1.80556
1.71867
1.66164
1.62561
1.6046
1.5949
1.59162
1.5922
1.59876
1.60704
1.61781
1.62998
1.64353
1.65824
1.67399
1.69085
1.70839
1.72686
1.74668
1.76804
1.79102
1.81581
1.84245
1.87136
9.57222
14.7664
22.2571
32.0799
43.9167
57.0784
70.512
82.8277
92.3819
97.5099
96.9794
90.5388
79.2
65.1798
51.7835
40.5975
31.6626
24.7418
19.498
15.5912
12.6254
10.6034
9.30775
8.5079
8.13103
8.16605
8.67798
10.032
12.9453
19.2587
35.4479
96.5029
473.385
3434.45
4.33839
6.32798
10.011
3.35502
2.75075
2.35341
2.08791
1.90866
1.78777
1.70701
1.65424
1.62115
1.60238
1.59399
1.59132
1.59285
1.59951
1.60806
1.61882
1.63103
1.64452
1.65919
1.67487
1.69126
1.70839
1.72686
1.74668
1.76804
1.79102
1.81565
1.84225
1.87129
15.7379
24.0201
35.0307
48.5338
63.9076
80.1494
95.892
109.428
118.821
122.243
118.589
108.09
92.44
74.5112
58.1138
44.8325
34.4771
26.6089
20.7372
16.4139
13.1641
10.9149
9.50161
8.66987
8.27058
8.28963
8.78724
10.12
13.0056
19.2879
35.4976
97.1854
480.505
3491.57
4.11542
5.88021
10.0021
16.5973
3.22588
2.66649
2.297
2.04979
1.88297
1.77064
1.69583
1.6472
1.61699
1.60042
1.59323
1.59109
1.59357
1.60026
1.60908
1.61981
1.63206
1.64549
1.66012
1.67529
1.69126
1.70838
1.72686
1.74668
1.76804
1.7908
1.81533
1.84204
1.87122
25.7356
37.9188
53.0735
70.6525
89.7189
108.965
126.714
140.926
149.361
150.09
142.295
126.869
106.292
84.0898
64.5117
49.0586
37.2567
28.4379
21.9436
17.2111
13.6155
11.1828
9.7165
8.84936
8.42517
8.42611
8.90846
10.2182
13.0742
19.3227
35.5679
97.8865
488.626
3555.3
3.91439
5.48895
9.1867
16.6529
27.2621
3.10327
2.58529
2.24249
2.01298
1.85822
1.7542
1.68515
1.64056
1.61325
1.59876
1.5926
1.59096
1.59432
1.60102
1.61008
1.62079
1.63307
1.64645
1.66059
1.67529
1.69126
1.70839
1.72686
1.74668
1.76778
1.79038
1.815
1.84183
1.87114
40.7172
57.4951
77.2426
99.0947
121.823
143.841
163.153
177.347
183.867
180.79
167.79
146.602
120.559
93.7951
70.9086
53.2385
39.9821
30.2187
23.1117
17.8784
14.0035
11.48
9.95509
9.04858
8.5967
8.57713
9.04315
10.328
13.1521
19.3672
35.6442
98.73
497.401
3623.76
3.72696
5.13735
8.4578
15.287
27.482
43.2158
2.98561
2.50699
2.18994
1.97756
1.83446
1.73848
1.67507
1.63453
1.60998
1.59732
1.5921
1.59095
1.59507
1.6018
1.61105
1.62175
1.63407
1.64691
1.66058
1.67528
1.69126
1.70839
1.72686
1.74638
1.76726
1.78994
1.81466
1.84161
1.87106
61.7604
83.6248
108.186
134.301
160.502
184.939
205.253
218.58
222.071
213.977
194.704
166.997
135.048
103.514
77.2437
57.3413
42.6374
31.943
24.089
18.4516
14.434
11.8102
10.2204
9.27009
8.78734
8.74458
9.19305
10.451
13.2414
19.4201
35.75
99.5987
507.526
3700.45
3.55009
4.81183
7.79506
14.0204
25.3891
43.7427
65.5715
2.87257
2.43169
2.13944
1.94357
1.81174
1.72361
1.66585
1.62917
1.60713
1.5961
1.59174
1.59103
1.5958
1.6026
1.61202
1.62274
1.63456
1.64689
1.66058
1.67529
1.69126
1.70839
1.72651
1.74577
1.76672
1.78949
1.81432
1.84139
1.87098
89.7497
116.931
146.291
176.488
205.868
232.293
252.932
264.387
263.583
249.193
222.63
187.758
149.576
113.147
83.4658
61.3411
45.2097
33.3858
24.9282
19.0872
14.9122
12.1777
10.5159
9.51677
8.99959
8.93064
9.36016
10.5893
13.3434
19.4874
35.8656
100.667
518.41
3781.91
3.38292
4.50779
7.17755
12.8329
23.4142
40.7455
66.5821
95.2118
2.76418
2.35952
2.09107
1.91111
1.79026
1.70999
1.6576
1.62441
1.60463
1.59507
1.59149
1.59123
1.59651
1.60343
1.613
1.6232
1.63454
1.64689
1.66058
1.67529
1.69126
1.70801
1.72582
1.74514
1.76616
1.78903
1.81396
1.84116
1.8709
125.271
157.729
191.679
225.679
257.909
285.839
306
314.396
307.889
285.914
251.145
208.602
163.978
122.607
89.5324
65.2172
47.3627
34.6247
25.8582
19.7925
15.444
12.5871
10.8454
9.79196
9.2363
9.13784
9.54676
10.7447
13.4612
19.5673
36.0235
101.774
531.178
3889.39
3.22509
4.22442
6.59801
11.705
21.5249
37.8901
62.5145
96.8922
132.673
2.66053
2.29064
2.04494
1.88044
1.77055
1.69775
1.65021
1.62017
1.60247
1.5942
1.59131
1.59158
1.59721
1.60435
1.61347
1.62316
1.63455
1.64689
1.66058
1.6753
1.69085
1.70725
1.72511
1.74449
1.7656
1.78855
1.8136
1.84092
1.87081
168.555
206.027
244.256
281.779
316.546
345.442
364.165
368.107
354.376
323.574
279.831
229.267
178.111
131.823
95.4089
68.4613
49.2117
35.9977
26.8899
20.5762
16.0359
13.0436
11.2133
10.0994
9.50075
9.36908
9.75564
10.9204
13.5961
19.6687
36.1988
103.156
547.156
4020.5
3.07621
3.96189
6.05637
10.6295
19.6931
35.121
58.6331
91.5973
135.183
178.086
2.5618
2.22519
2.00144
1.85234
1.75284
1.68677
1.6436
1.6164
1.60063
1.59346
1.5911
1.59208
1.59801
1.60477
1.61341
1.62316
1.63455
1.64689
1.66059
1.67486
1.69002
1.70647
1.72438
1.74383
1.76501
1.78807
1.81322
1.84068
1.87072
219.481
261.587
303.802
344.645
381.676
410.923
427.024
424.895
402.357
361.596
308.297
249.531
191.86
140.739
100.323
71.247
51.261
37.5208
28.0356
21.4476
16.6953
13.5532
11.6247
10.4434
9.79666
9.62771
9.98952
11.1183
13.7532
19.789
36.4342
104.892
568.413
4154.41
2.93555
3.7208
5.55438
9.6096
17.9072
32.3975
54.8415
86.5777
128.498
181.513
231.179
2.46827
2.16369
1.96167
1.82711
1.73694
1.67692
1.63769
1.61302
1.59903
1.59283
1.59098
1.59279
1.59834
1.60468
1.6134
1.62316
1.63455
1.64691
1.66012
1.67398
1.68916
1.70566
1.72363
1.74315
1.76442
1.78757
1.81284
1.84043
1.87063
277.651
324.035
370.067
414.172
453.25
482.076
494.073
484.027
451.094
399.421
336.202
269.208
205.13
148.181
104.54
74.3334
53.5343
39.212
29.3089
22.4172
17.4304
14.1226
12.0849
10.8287
10.1282
9.91756
10.253
11.3442
13.9347
19.9417
36.7508
107.304
591.544
4289.8
2.80255
3.50346
5.09301
8.65452
16.1681
29.6992
51.079
81.6695
122.254
173.239
235.497
291.367
2.38081
2.10764
1.92605
1.80447
1.72266
1.66808
1.63238
1.61001
1.59765
1.59238
1.59117
1.59311
1.59816
1.60469
1.6134
1.62316
1.63457
1.64644
1.65918
1.67307
1.68829
1.70484
1.72286
1.74246
1.76381
1.78706
1.81244
1.84018
1.87054
342.52
392.99
442.921
490.464
531.372
558.702
564.697
544.663
499.84
436.551
363.263
288.15
216.177
154.558
109.207
77.7552
56.058
41.0914
30.7251
23.4969
18.2502
14.7588
12.6003
11.2606
10.5002
10.2428
10.5473
11.6017
14.1484
20.1571
37.2393
110.015
617.063
4425.3
2.67818
3.30581
4.67188
7.76693
14.4832
27.023
47.3097
76.7839
116.185
165.689
225.361
296.403
357.903
2.30155
2.05758
1.89416
1.78415
1.70983
1.66014
1.62763
1.60735
1.59657
1.59234
1.59114
1.59294
1.59814
1.60469
1.61341
1.62321
1.63407
1.64548
1.65821
1.67215
1.68739
1.70399
1.72207
1.74174
1.76318
1.78653
1.81204
1.83992
1.87045
413.557
468.24
522.539
573.947
616.344
640.575
638.133
605.897
547.896
472.562
389.253
303.866
225.62
161.601
114.375
81.551
58.8613
43.181
32.3011
24.6995
19.1649
15.47
13.1774
11.7451
10.9178
10.6092
10.8765
11.896
14.4423
20.4783
37.8168
113.252
644.677
4559.87
2.56544
3.12599
4.29259
6.94846
12.8699
24.3774
43.5184
71.861
110.165
158.449
216.396
284.006
363.307
430.059
2.23118
2.01288
1.86559
1.76592
1.69832
1.653
1.62335
1.60515
1.59609
1.59216
1.59077
1.59296
1.59814
1.60469
1.61348
1.62274
1.63306
1.6445
1.65723
1.6712
1.68647
1.70313
1.72127
1.74101
1.76254
1.78599
1.81162
1.83966
1.87036
490.423
549.933
609.527
665.396
708.582
727.331
713.453
666.819
594.647
507.114
410.749
317.266
236.022
169.381
120.096
85.7624
61.9763
45.5055
34.0555
26.0393
20.1851
16.2648
13.8235
12.2883
11.3866
11.0222
11.2465
12.2931
14.8429
20.863
38.5593
116.869
675.142
4692.11
2.46548
2.96568
3.95678
6.20497
11.3463
21.7798
39.7056
66.8637
104.102
151.347
207.977
273.451
348.069
435.333
507.354
2.16871
1.97296
1.84002
1.74956
1.68794
1.64654
1.61973
1.60387
1.59563
1.5917
1.59075
1.59296
1.59816
1.60478
1.61301
1.62175
1.63204
1.6435
1.65623
1.67023
1.68553
1.70224
1.72044
1.74026
1.76187
1.78544
1.81121
1.83941
1.87027
573.216
638.831
705.198
766.111
808.53
818.354
789.614
726.572
639.583
535.635
429.031
331.979
247.472
177.969
126.43
90.4349
65.4382
48.0915
36.0085
27.5317
21.3227
17.1524
14.5462
12.8969
11.913
11.4869
11.7399
12.8104
15.2999
21.3398
39.4335
121.194
708.192
4820.71
2.37709
2.82391
3.67004
5.54536
9.93158
19.2535
35.8834
61.7732
97.9261
144.25
199.881
263.813
335.648
416.4
511.902
589.834
2.11319
1.93732
1.81711
1.73483
1.67856
1.64101
1.61735
1.60291
1.59501
1.5917
1.59075
1.59294
1.59835
1.60435
1.61201
1.62077
1.63101
1.64248
1.6552
1.66923
1.68457
1.70132
1.7196
1.73949
1.7612
1.7849
1.81082
1.83917
1.87019
662.817
736.703
811.961
877.982
916.553
912.812
865.566
784.41
676.703
559.847
449.04
348.109
260.06
187.44
133.436
95.6169
69.2846
50.9679
38.1823
29.1934
22.59
18.1424
15.3535
13.5779
12.5026
12.1065
12.3707
13.3792
15.8245
21.9048
40.5483
126.06
744.655
4944.18
2.29907
2.69758
3.4338
4.98306
8.65654
16.8255
32.0739
56.5834
91.5869
137.049
191.926
254.811
324.691
401.716
488.034
593.019
678.499
2.06382
1.90549
1.79652
1.72153
1.67045
1.63717
1.61575
1.60203
1.59502
1.5917
1.59078
1.59312
1.59803
1.60343
1.61104
1.61979
1.62995
1.64144
1.65415
1.66821
1.68359
1.70039
1.71873
1.7387
1.76053
1.78437
1.81043
1.83894
1.87011
761.317
847.021
933.677
1003.43
1032.88
1009.88
940.295
832.468
708.217
586.287
470.893
365.758
273.872
197.87
141.179
101.359
73.5552
54.1655
40.5999
31.0418
24.0002
19.2447
16.2534
14.3374
13.2849
12.8914
13.0526
14.0028
16.4166
22.5976
41.8737
131.881
784.408
5061.02
2.23024
2.58507
3.2352
4.5151
7.55167
14.5397
28.3095
51.3008
85.0437
129.65
183.957
246.203
314.833
389.249
470.568
562.458
679.862
776.038
2.01989
1.877
1.77796
1.70999
1.66462
1.63471
1.61459
1.60204
1.59502
1.59171
1.59116
1.59282
1.59722
1.6026
1.61006
1.61879
1.62887
1.64037
1.65308
1.66716
1.68259
1.69943
1.71785
1.73792
1.75989
1.78386
1.81005
1.83871
1.87002
873.112
975.871
1076.21
1145.35
1158.39
1108.45
1003.31
873.415
742.629
615.084
494.693
385.014
288.991
209.332
149.719
107.713
78.2913
57.7163
43.2859
33.0952
25.5663
20.4692
17.253
15.3401
14.2666
13.7287
13.7845
14.679
17.0897
23.4159
43.5482
138.51
828.274
5170.02
2.16948
2.48524
3.06485
4.12886
6.62195
12.4884
24.6579
45.9475
78.2675
121.962
175.832
237.786
305.763
378.526
456.304
541.615
640.02
775.799
888.093
1.9807
1.85141
1.76182
1.7015
1.66097
1.63318
1.61462
1.60204
1.59502
1.59219
1.59121
1.5921
1.59651
1.6018
1.60906
1.61779
1.62778
1.63928
1.652
1.66608
1.68156
1.69845
1.71697
1.73717
1.75926
1.78337
1.80969
1.83849
1.86995
1006.25
1133.95
1247.82
1311.01
1292.98
1193.74
1057.5
918.303
780.109
646.35
520.525
405.954
305.489
221.893
159.118
114.729
83.5344
61.6526
46.2647
35.3716
27.3015
21.8247
18.5667
16.5879
15.3029
14.6125
14.562
15.4108
17.8439
24.407
45.5544
146.453
876.388
5269.78
2.11565
2.39707
2.91616
3.81119
5.84959
10.7156
21.2623
40.6014
71.2451
113.901
167.402
229.369
297.229
369.138
444.632
525.182
615.2
722.701
887.988
1026.82
1.94563
1.82915
1.74968
1.6963
1.65897
1.63324
1.61462
1.60204
1.59566
1.59239
1.59102
1.5916
1.5958
1.60102
1.60804
1.61676
1.62668
1.63815
1.65089
1.66498
1.68052
1.69749
1.71612
1.73644
1.75864
1.78289
1.80933
1.83828
1.86987
1176.76
1339.19
1473.05
1505.19
1413.49
1268.11
1117.54
967.46
820.835
680.187
548.454
428.633
323.42
235.61
169.428
122.456
89.3237
66.0059
49.5605
37.8889
29.2174
23.6
20.1907
17.894
16.3845
15.5354
15.3813
16.1928
18.6936
25.5708
48.0535
155.645
929.428
5359.86
2.06777
2.31938
2.78455
3.55255
5.21453
9.21203
18.2149
35.4639
64.0363
105.388
158.508
220.744
288.99
360.779
435.004
512.407
596.17
693.265
816.046
1033.44
1216.58
1.91512
1.81219
1.74235
1.69374
1.65906
1.63324
1.61461
1.60295
1.59615
1.59244
1.59115
1.59126
1.59507
1.60026
1.60702
1.61571
1.62557
1.637
1.64976
1.66386
1.67948
1.69656
1.7153
1.73574
1.75805
1.78242
1.80899
1.83807
1.86979
1419.98
1652.22
1768.43
1683.6
1520.08
1351.81
1184.29
1021.4
865.044
716.701
578.529
453.08
342.818
250.522
180.694
130.933
95.695
70.8051
53.1956
40.6623
31.7201
25.7837
21.8801
19.2461
17.5012
16.4897
16.2375
17.0278
19.638
26.9583
51.0456
166.684
987.877
5439.19
2.02622
2.25092
2.66729
3.33998
4.69509
7.95564
15.5219
30.6918
56.8828
96.424
148.984
211.676
280.789
353.16
427.044
502.542
582.063
671.195
780.899
933.021
1257.93
1523.97
1.89149
1.80213
1.73905
1.69388
1.65906
1.6332
1.61581
1.60396
1.59665
1.5929
1.59137
1.59108
1.59433
1.59952
1.60601
1.61464
1.62445
1.63582
1.64862
1.66276
1.67848
1.69565
1.7145
1.73505
1.75747
1.78197
1.80865
1.83787
1.86972
1851.8
2095.52
2034.18
1842.15
1643
1447.32
1259.56
1081.02
913.151
756.045
610.793
479.303
363.689
266.648
192.941
140.191
102.676
76.0743
57.1874
44.2759
34.7866
28.0454
23.6192
20.6314
18.6425
17.4678
17.1263
17.9158
20.6939
28.5769
54.6986
179.644
1052.12
5508.8
1.99369
2.19202
2.56285
3.16074
4.27305
6.91554
13.1854
26.3288
50.0038
87.2455
138.731
201.903
272.332
345.99
420.411
495.112
571.896
655.435
755.397
890.25
1105.87
1704.95
2176.27
1.8776
1.79801
1.73927
1.69389
1.65899
1.63478
1.61748
1.60527
1.59776
1.59355
1.59156
1.59101
1.59359
1.59878
1.60502
1.61353
1.62333
1.63463
1.6475
1.66169
1.67751
1.69478
1.71372
1.73439
1.75691
1.78153
1.80832
1.83767
1.86969
2532.11
2521.3
2292.45
2042.29
1791.66
1563.08
1346.53
1148.19
965.957
798.489
645.315