/*--------------------------------*- C++ -*----------------------------------*\
  =========                 |
  \\      /  F ield         | OpenFOAM: The Open Source CFD Toolbox
   \\    /   O peration     | Website:  https://openfoam.org
    \\  /    A nd           | Version:  8
     \\/     M anipulation  |
\*---------------------------------------------------------------------------*/
FoamFile
{
    version     2.0;
    format      ascii;
    class       volScalarField;
    location    "0.23";
    object      p;
}
// * * * * * * * * * * * * * * * * * * * * * * * * * * * * * * * * * * * * * //

dimensions      [0 2 -2 0 0 0 0];

internalField   nonuniform List<scalar> 
15677
(
74.6707
74.2647
73.9292
74.419
73.9279
73.8657
74.3388
73.9469
73.8753
73.8018
74.3193
73.947
73.8758
73.8106
73.7065
74.3011
73.9501
73.8762
73.8099
73.7141
73.6072
74.2783
73.953
73.8764
73.8104
73.7141
73.6139
73.4956
74.2535
73.9547
73.8762
73.8105
73.7148
73.614
73.5014
73.3608
74.2278
73.9558
73.8755
73.8103
73.7155
73.6147
73.5016
73.3659
73.1962
74.2009
73.9565
73.8745
73.8096
73.716
73.6155
73.5023
73.3662
73.2005
72.9947
74.173
73.9569
73.8731
73.8087
73.7164
73.6161
73.5031
73.3671
73.2009
72.9984
72.7487
74.1441
73.9568
73.8715
73.8078
73.717
73.6168
73.504
73.368
73.202
72.999
72.7516
72.4498
74.114
73.9558
73.87
73.807
73.7177
73.6178
73.505
73.3692
73.2032
73.0002
72.7524
72.452
72.0896
74.0831
73.954
73.8687
73.8065
73.7188
73.6191
73.5064
73.3707
73.2047
73.0018
72.7539
72.4529
72.091
71.6598
74.0547
73.9515
73.8678
73.8063
73.7205
73.6212
73.5085
73.3728
73.2068
73.0038
72.7559
72.4547
72.0918
71.6601
71.1521
74.0303
73.9485
73.8675
73.8065
73.7231
73.6244
73.5117
73.3759
73.2098
73.0066
72.7585
72.4572
72.0943
71.6614
71.1514
70.5591
74.0093
73.9455
73.868
73.8074
73.7269
73.629
73.5165
73.3806
73.2143
73.0108
72.7623
72.4607
72.0973
71.664
71.1529
70.5572
69.874
73.9918
73.942
73.869
73.8091
73.7321
73.6357
73.5234
73.3876
73.2209
73.0169
72.7679
72.4656
72.1018
71.6679
71.156
70.559
69.8709
69.0911
73.9772
73.938
73.8701
73.8114
73.7384
73.6449
73.5333
73.3976
73.2306
73.0259
72.776
72.4729
72.1082
71.6735
71.1607
70.5626
69.8728
69.0866
68.2062
73.9649
73.9336
73.8714
73.8144
73.7452
73.656
73.5468
73.4118
73.2446
73.0391
72.7881
72.4836
72.1176
71.6816
71.1677
70.5683
69.877
69.0888
68.2001
67.2162
73.9545
73.9294
73.8727
73.818
73.7528
73.668
73.5633
73.4311
73.2643
73.0581
72.8057
72.4994
72.1314
71.6934
71.1778
70.5768
69.8838
69.0936
68.2025
67.2085
66.1202
73.9461
73.9253
73.8741
73.8221
73.761
73.6812
73.5813
73.4547
73.2911
73.0846
72.8307
72.5223
72.1515
71.7108
71.1924
70.589
69.8939
69.1015
68.2079
67.2111
66.1106
64.9188
73.9397
73.9219
73.8756
73.8267
73.7699
73.6953
73.6009
73.4803
73.3237
73.1209
72.8658
72.5549
72.1808
71.7362
71.2139
70.6069
69.9085
69.1133
68.2169
67.217
66.1135
64.9073
63.615
73.9346
73.919
73.8771
73.8317
73.7792
73.7102
73.622
73.5083
73.3593
73.165
72.9139
72.6005
72.2225
71.7729
71.2453
70.6329
69.9298
69.1305
68.2305
67.2272
66.1199
64.9103
63.6014
62.214
73.9307
73.9168
73.8785
73.8368
73.789
73.7259
73.6444
73.5384
73.3981
73.2131
72.9724
72.663
72.2807
71.8253
71.2907
70.6711
69.961
69.1554
68.2503
67.2425
66.1311
64.9171
63.6045
62.1982
60.7275
73.9275
73.9151
73.8798
73.8416
73.7986
73.742
73.6677
73.5703
73.4399
73.2658
73.0362
72.7391
72.3605
71.8984
71.3553
70.7262
70.0065
69.192
68.279
67.2648
66.148
64.9292
63.6116
62.2011
60.7079
59.1835
73.9249
73.9137
73.881
73.846
73.8076
73.7578
73.6919
73.6037
73.4842
73.3225
73.1061
72.8222
72.4579
71.9988
71.4457
70.8047
70.0724
69.2454
68.3212
67.2973
66.1728
64.9476
63.6242
62.2079
60.7083
59.123
57.5256
73.9228
73.9126
73.8821
73.85
73.8157
73.7723
73.7156
73.6382
73.5306
73.3825
73.1815
72.9135
72.5644
72.1213
71.5699
70.9147
70.1663
69.3229
68.3828
67.345
66.2088
64.9744
63.6436
62.2205
60.7137
59.1289
57.4562
55.7378
73.9211
73.9117
73.8832
73.8535
73.823
73.7854
73.7373
73.672
73.5785
73.4454
73.2614
73.0118
72.6814
72.2556
71.7217
71.066
70.2981
69.4335
68.4724
67.415
66.2618
65.0135
63.6718
62.2401
60.7248
59.1314
57.4615
55.7125
53.8911
73.9197
73.911
73.884
73.8568
73.8295
73.7971
73.7568
73.703
73.6255
73.5106
73.3451
73.1162
72.8077
72.4033
71.8884
71.2513
70.4795
69.5889
68.6007
67.5171
66.34
65.0714
63.7133
62.2689
60.7429
59.1394
57.4568
55.7019
53.8807
51.996
73.9185
73.9104
73.8847
73.8597
73.8354
73.8076
73.7744
73.7309
73.6685
73.5744
73.4319
73.2258
72.942
72.563
72.0721
71.4551
70.7024
69.8035
68.7813
67.6636
66.4543
65.1571
63.7751
62.3116
60.7706
59.1549
57.4626
55.6932
53.8647
51.9898
49.8547
73.9175
73.91
73.8853
73.8624
73.8406
73.8169
73.79
73.756
73.7074
73.6329
73.517
73.3394
73.0831
72.733
72.2709
71.6802
70.948
70.0677
69.0314
67.8705
66.6191
65.2831
63.8674
62.376
60.8128
59.1803
57.4768
55.7
53.8566
51.9721
49.8518
47.4409
73.9166
73.9096
73.8858
73.8649
73.8452
73.8252
73.8039
73.7784
73.7423
73.6858
73.5951
73.451
73.2295
72.9119
72.4831
71.9242
71.2199
70.3596
69.3403
68.1579
66.8527
65.4657
64.004
62.4734
60.8781
59.2208
57.5005
55.7141
53.8646
51.9651
49.8351
47.44
45.0078
73.9159
73.9092
73.8863
73.867
73.8493
73.8325
73.8163
73.7983
73.7734
73.7333
73.6658
73.5535
73.3735
73.0978
72.7065
72.1851
71.5153
70.6834
69.6824
68.5139
67.1783
65.7256
64.2032
62.6189
60.9787
59.2855
57.5392
55.737
53.8792
51.9727
49.828
47.4247
45.0086
42.5852
73.9153
73.9089
73.8868
73.8689
73.8529
73.839
73.8273
73.816
73.8011
73.7757
73.7292
73.6463
73.506
73.2809
72.9393
72.4605
71.8318
71.0362
70.063
68.9095
67.5832
66.0895
64.4883
62.8329
61.1312
59.3876
57.6029
55.7746
53.9018
51.9869
49.833
47.4171
44.995
42.5862
40.1962
73.9087
73.9146
73.8872
73.8706
73.8562
73.8448
73.837
73.8317
73.8257
73.8134
73.7858
73.7296
73.626
73.4497
73.1689
72.748
72.1667
71.4151
70.4787
69.3509
68.0347
66.544
64.8895
63.1415
61.3578
59.5451
57.7056
55.8374
53.9387
52.0088
49.8452
47.4192
44.987
42.5736
40.197
37.8562
73.8876
73.9084
73.9137
73.8721
73.859
73.8499
73.8456
73.8456
73.8475
73.8469
73.8363
73.8042
73.7339
73.6027
73.3809
73.0321
72.5171
71.817
70.9265
69.8346
68.5401
67.0527
65.3932
63.5781
61.6872
59.7819
57.8664
55.9399
54.0002
52.0441
49.8648
47.4283
44.9862
42.5646
40.1851
37.8566
35.577
73.8733
73.8882
73.9081
73.9129
73.8615
73.8545
73.8532
73.8579
73.8669
73.8767
73.8812
73.8706
73.8305
73.7404
73.5734
73.295
72.8642
72.2387
71.4028
70.3571
69.0958
67.6241
65.9592
64.1292
62.1564
60.1291
58.1109
56.1025
54.1015
52.103
49.8964
47.4434
44.9916
42.5605
40.1745
37.8449
35.5765
33.3684
73.8637
73.8751
73.8891
73.9078
73.9122
73.8584
73.86
73.8688
73.884
73.9031
73.9211
73.9298
73.9167
73.8639
73.7469
73.5341
73.1861
72.6575
71.904
70.9148
69.6982
68.2548
66.5975
64.7513
62.7521
60.6273
58.4727
56.3523
54.264
52.2014
49.9504
47.4686
45.001
42.5611
40.1665
37.8326
35.565
33.3671
31.239
73.8619
73.8667
73.8771
73.8899
73.9075
73.9115
73.8659
73.8784
73.8992
73.9265
73.9564
73.9823
73.9934
73.9741
73.9026
73.7499
73.4794
73.047
72.4035
71.5035
70.3432
68.9409
67.3046
65.4558
63.4278
61.2637
58.9955
56.7249
54.516
52.3611
50.0428
47.5142
45.018
42.5636
40.1615
37.8205
35.5506
33.3555
31.2369
29.1951
73.8711
73.8664
73.87
73.8791
73.8908
73.9073
73.9108
73.887
73.9127
73.9472
73.9877
74.0288
74.0616
74.0723
74.0419
73.9439
73.7448
73.4026
72.8692
72.0921
71.0267
69.6783
68.0769
66.2394
64.1962
61.9889
59.6674
57.2673
54.8952
52.6118
50.1963
47.5962
45.0526
42.5708
40.1558
37.809
35.5341
33.3389
31.2251
29.1922
27.2409
73.8943
73.8776
73.8714
73.8732
73.881
73.8916
73.907
73.9101
73.9246
73.9656
74.0155
74.0701
74.1221
74.1597
74.166
74.1176
73.9836
73.7251
73.2956
72.6428
71.7126
70.4628
68.9103
67.0987
65.0546
62.8175
60.437
57.9687
55.4513
52.9929
50.4412
47.7377
45.1207
42.5921
40.1516
37.7942
35.5158
33.3179
31.2061
29.1801
27.2372
25.379
73.9348
73.9035
73.8846
73.8762
73.8765
73.8829
73.8925
73.9067
73.9095
73.9818
74.0402
74.1068
74.1758
74.2373
74.2765
74.2726
74.1978
74.0159
73.6832
73.1484
72.3565
71.2533
69.8007
68.0301
66
63.747
61.3201
58.7759
56.1748
53.5561
50.8187
47.9701
45.2457
42.6433
40.1575
37.7771
35.4911
33.2925
31.1805
29.1586
27.2248
25.3745
23.6104
73.9957
73.9474
73.9129
73.8914
73.881
73.8796
73.8848
73.8933
73.9065
73.909
74.062
74.1394
74.2234
74.3061
74.3747
74.4108
74.3892
74.2771
74.0334
73.6092
72.9497
71.9981
70.7018
69.0295
67.0292
64.7755
62.3155
59.7065
57.0116
54.2934
51.3819
48.3352
45.4595
42.7478
40.1891
37.7658
35.4602
33.2573
31.1479
29.1285
27.2009
25.3617
23.6052
21.935
74.0806
74.0128
73.9599
73.9221
73.8981
73.8856
73.8826
73.8865
73.8941
73.9062
73.9084
74.1682
74.2658
74.3673
74.4619
74.5337
74.56
74.5109
74.3486
74.0267
73.4919
72.6868
71.5543
70.0457
68.1389
65.9005
63.4221
60.7605
57.9812
55.1507
52.1248
48.8868
45.8037
42.9375
40.2696
37.7756
35.4304
33.2119
31.102
29.0886
27.1662
25.3353
23.5921
21.9291
20.3517
74.1926
74.1032
74.029
73.9721
73.9312
73.9045
73.8901
73.8856
73.8882
73.8949
73.906
73.9079
74.3033
74.4218
74.5395
74.6429
74.7121
74.7198
74.6312
74.4031
73.9844
73.3182
72.3455
71.0113
69.2728
67.1195
64.6385
61.9381
59.0849
56.1495
52.9944
49.6218
46.3317
43.2527
40.4302
37.8294
35.4168
33.1629
31.0417
29.0318
27.119
25.2962
23.5633
21.9157
20.3452
18.8587
74.3351
74.2223
74.1241
74.0448
73.9839
73.9398
73.9107
73.8944
73.8883
73.8899
73.8957
73.9058
73.9075
74.4699
74.6086
74.7402
74.8474
74.9061
74.8841
74.7414
74.4296
73.8934
73.0735
71.9111
70.3552
68.3714
65.9632
63.2391
60.3243
57.2923
54.0137
50.4892
47.0435
43.7456
40.7091
37.9563
35.4414
33.1249
30.9728
28.9563
27.0514
25.2419
23.5199
21.8845
20.3314
18.8515
17.4533
74.5106
74.3736
74.249
74.1444
74.0602
73.9953
73.9481
73.9166
73.8985
73.891
73.8914
73.8964
73.9056
73.9071
74.6697
74.8268
74.968
75.072
75.11
75.0446
74.8306
74.4148
73.7388
72.742
71.368
69.5723
67.3311
64.6635
61.7008
58.5822
55.1867
51.5132
47.8917
44.4202
41.1568
38.1926
35.5311
33.1185
30.9098
28.8676
26.9608
25.1635
23.4585
21.837
20.2979
18.8375
17.4455
16.1324
74.7212
74.56
74.4072
74.2748
74.1642
74.0749
74.006
73.9559
73.9222
73.9023
73.8935
73.8929
73.8971
73.9054
73.9067
74.9034
75.0755
75.22
75.3115
75.3158
75.1906
74.8855
74.3435
73.5038
72.307
70.701
68.6498
66.1426
63.2162
60.0227
56.5185
52.6996
48.9006
45.2325
41.781
38.5861
35.7196
33.1681
30.8713
28.7793
26.8524
25.0581
23.3697
21.7688
20.2466
18.8018
17.4313
16.1242
14.8928
74.9678
74.784
74.6022
74.4398
74.2998
74.1828
74.0887
74.0161
73.9632
73.9274
73.9059
73.8958
73.8942
73.8977
73.9052
73.9064
75.1705
75.3521
75.4913
75.5581
75.5133
75.3091
74.8908
74.1985
73.1711
71.7517
69.8951
67.5761
64.7991
61.6177
58.015
54.0559
50.0777
46.2064
42.5414
39.1478
36.0514
33.3047
30.8789
28.7079
26.7389
24.9304
23.2497
21.6698
20.1718
18.7468
17.3934
16.1097
14.884
13.7309
75.2503
75.0471
74.8365
74.6429
74.4712
74.3234
74.2003
74.1015
74.0255
73.97
73.9322
73.9093
73.898
73.8954
73.8982
73.905
73.9061
75.4687
75.652
75.7747
75.802
75.6894
75.3845
74.829
73.9615
72.7222
71.0593
68.9363
66.3416
63.2936
59.6828
55.5908
51.4332
47.3509
43.4606
39.8413
36.5396
33.5687
30.9605
28.6723
26.6343
24.7919
23.1033
21.5359
20.063
18.6657
17.335
16.0698
14.8694
13.7217
12.6432
75.5665
75.3495
75.1121
74.8872
74.6822
74.5007
74.3452
74.2164
74.1133
74.0341
73.9762
73.9367
73.9123
73.8998
73.8964
73.8986
73.9049
73.9058
75.7937
75.9684
76.0605
76.0303
75.8288
75.3992
74.6811
73.613
72.1387
70.2136
67.8124
64.9358
61.4473
57.3148
52.9786
48.678
44.5483
40.6864
37.152
33.9739
31.1517
28.6969
26.5548
24.6544
22.9404
21.3713
19.9157
18.5475
17.2478
16.0082
14.8275
13.7068
12.6333
11.6256
75.9124
75.6899
75.4297
75.175
74.9361
74.7189
74.5278
74.3652
74.231
74.124
74.0419
73.9818
73.9406
73.9149
73.9014
73.8973
73.899
73.9048
73.9056
76.139
76.2919
76.3362
76.2278
75.9134
75.3335
74.4264
73.133
71.4025
69.1996
66.5098
63.1882
59.1538
54.7265
50.2
45.816
41.6917
37.904
34.4924
31.4659
28.8116
26.5215
24.5311
22.7704
21.1848
19.7338
18.3875
17.1208
15.9153
14.7629
13.6631
12.6181
11.6145
10.676
76.2817
76.0649
75.7885
75.5074
75.2354
74.9814
74.7524
74.5525
74.3833
74.2442
74.1336
74.0488
73.9867
73.9439
73.9171
73.9028
73.898
73.8993
73.9047
73.9054
76.4953
76.6102
76.5865
76.3763
75.9233
75.166
74.0437
72.5015
70.4961
68.0014
64.8672
60.9807
56.602
51.9292
47.275
42.8671
38.8021
35.1341
31.8797
29.0286
26.5569
24.4394
22.6039
20.9832
19.5243
18.1891
16.9487
15.7798
14.6647
13.5959
12.5728
11.5992
10.6606
9.88852
76.6653
76.4692
76.1859
75.8842
75.5819
75.2913
75.0226
74.7826
74.5745
74.3993
74.2558
74.1419
74.0547
73.9908
73.9467
73.919
73.9039
73.8986
73.8995
73.9046
73.9052
76.8506
76.9083
76.7934
76.4555
75.8362
74.8743
73.5114
71.6989
69.4015
66.4662
62.7502
58.4717
53.7916
48.938
44.2239
39.855
35.9032
32.3967
29.3292
26.6725
24.3942
22.4541
20.7742
19.2922
17.9576
16.7346
15.5964
14.5213
13.4926
12.5032
11.5526
10.6465
9.88169
9.22476
77.0512
76.8946
76.6171
76.3036
75.9759
75.6505
75.3418
75.0595
74.8094
74.5939
74.4131
74.2656
74.1489
74.0595
73.994
73.9489
73.9204
73.9047
73.8991
73.8997
73.9045
73.9051
77.1898
77.168
76.9362
76.4425
75.6288
74.435
72.808
70.7051
67.972
64.4385
60.2865
55.6568
50.742
45.7806
41.0774
36.8094
33.0204
29.7113
26.8544
24.4061
22.328
20.5672
19.0421
17.696
16.4822
15.3675
14.3273
13.3418
12.3952
11.4811
10.5989
9.87381
9.22881
8.52833
77.4242
77.3303
77.0752
76.7616
76.4161
76.06
75.7122
75.3867
75.0919
74.8326
74.6103
74.4247
74.2737
74.1543
74.0631
73.9965
73.9506
73.9216
73.9054
73.8995
73.8998
73.9044
73.9049
77.4944
77.3684
76.9916
76.3132
75.2762
73.8252
71.9107
69.3767
66.0302
62.0243
57.4829
52.5727
47.4961
42.4994
37.8739
33.7624
30.178
27.0952
24.4665
22.2358
20.3611
18.7792
17.4064
16.1924
15.0951
14.0843
13.1378
12.2375
11.3687
10.5259
9.82532
9.22298
8.52884
7.77893
77.7658
77.7624
77.5503
77.2524
76.8997
76.5192
76.1354
75.7669
75.4259
75.1197
74.852
74.6237
74.4338
74.2797
74.1582
74.0658
73.9983
73.9518
73.9225
73.906
73.8998
73.8999
73.9043
73.9048
77.7434
77.4858
76.9346
76.0411
74.754
73.0187
70.6768
67.5173
63.6733
59.2556
54.4001
49.2774
44.1053
39.1396
34.6514
30.7437
27.3979
24.5629
22.1743
20.1662
18.4949
17.0894
15.8649
14.7785
13.7931
12.8817
12.0242
11.2047
10.4094
9.7517
9.17491
8.51885
7.77291
6.96006
78.0542
78.1737
78.0296
77.7671
77.4214
77.0258
76.6113
76.202
75.8143
75.459
75.1425
74.8674
74.6338
74.4402
74.2837
74.1608
74.0675
73.9995
73.9527
73.9231
73.9063
73.9
73.9
73.9042
73.9047
77.9122
77.4946
76.738
75.6008
74.0321
71.8724
68.8979
65.2288
60.966
56.2129
51.1016
45.8219
40.6147
35.7415
31.4435
27.7792
24.6983
22.1262
19.9843
18.1997
16.7293
15.4959
14.4149
13.4511
12.5726
11.7557
10.9826
10.2395
9.63179
9.10034
8.47044
7.7577
6.95062
6.0667
78.2641
78.5441
78.4972
78.2945
77.974
77.5758
77.1385
76.6923
76.2592
75.8539
75.4858
75.1602
74.8786
74.6406
74.4441
74.286
74.1622
74.0684
74.0002
73.9532
73.9234
73.9066
73.9001
73.9
73.904
73.9046
77.9742
77.3664
76.3745
74.9577
72.9666
70.1733
66.6888
62.6058
57.9963
52.9527
47.6282
42.2437
37.0612
32.3395
28.2791
24.8907
22.094
19.7937
17.9006
16.3375
15.0632
13.9963
13.0533
12.2067
11.4299
10.7025
10.0092
9.45711
8.97758
8.39419
7.7077
6.93283
6.05594
5.09615
78.3677
78.8501
78.9343
78.8201
78.5472
78.1627
77.7135
77.2372
76.7617
76.3068
75.8856
75.5061
75.1725
74.8854
74.6441
74.4458
74.2867
74.1626
74.0686
74.0003
73.9533
73.9235
73.9066
73.9002
73.9
73.9039
73.9045
77.8996
77.0723
75.8059
73.9679
71.3471
68.0523
64.1668
59.733
54.8065
49.5012
44.0055
38.5721
33.4768
28.9634
25.1825
22.0959
19.5961
17.5713
15.9254
14.5791
13.4945
12.5876
11.7767
11.0414
10.3609
9.71829
9.22015
8.79889
8.26824
7.62874
6.88109
6.03741
5.08462
4.04328
78.3334
79.0659
79.3183
79.3264
79.1281
78.7778
78.3312
77.8342
77.3216
76.8191
76.3443
75.909
75.5196
75.1792
74.8882
74.6447
74.4455
74.2862
74.162
74.0682
74
73.9531
73.9235
73.9068
73.9003
73.9
73.9038
73.9044
77.6566
76.5709
74.8883
72.4283
69.3194
65.6408
61.4053
56.6356
51.4084
45.8725
40.2544
34.8344
29.8905
25.6395
22.1739
19.4082
17.2122
15.4626
14.059
12.9228
12.0205
11.2665
10.581
9.95129
9.36198
8.92035
8.55635
8.08512
7.49908
6.79875
5.98422
5.0654
4.03115
2.90117
78.1252
79.163
79.6242
79.7927
79.7009
79.4095
78.9839
78.4788
77.9371
77.3911
76.8639
76.3716
75.9238
75.5261
75.1809
74.8874
74.6429
74.4435
74.2844
74.1606
74.0672
73.9993
73.9527
73.9236
73.907
73.9002
73.8999
73.9037
73.9043
77.1999
75.7169
73.4305
70.4971
67.0219
62.9974
58.4144
53.3148
47.8071
42.0797
36.3968
31.0578
26.3299
22.3908
19.2696
16.8376
14.9475
13.4687
12.3003
11.3661
10.638
10.029
9.46244
8.93252
8.55204
8.24905
7.83654
7.31099
6.66492
5.89849
5.01085
4.0109
2.88871
1.66241
77.6925
79.11
79.8238
80.1953
80.2464
80.0436
79.6615
79.1647
78.6048
78.0217
77.4451
76.896
76.3881
75.9299
75.5263
75.1781
74.8835
74.639
74.44
74.2816
74.1584
74.0655
73.9982
73.9528
73.924
73.907
73.9001
73.8998
73.9036
73.9043
76.3821
74.3359
71.5979
68.3135
64.4979
60.1202
55.1878
49.7689
44.0088
38.1387
32.4569
27.2704
22.8208
19.2368
16.4822
14.3908
12.8042
11.5891
10.647
9.90593
9.34301
8.87132
8.41704
8.10649
7.87062
7.5211
7.05578
6.47127
5.76017
4.92185
3.95482
2.86754
1.6498
0.31934
78.862
76.8887
79.8848
80.5074
80.7427
80.6627
80.3513
79.8831
79.3193
78.7084
78.0874
77.4833
76.9147
76.3938
75.9282
75.521
75.1715
74.8769
74.6332
74.4352
74.2777
74.1554
74.0635
73.9982
73.9535
73.9242
73.9069
73.8999
73.8996
73.9035
73.9043
75.0462
72.5964
69.527
65.9075
61.7368
56.9987
51.7195
45.9983
40.0231
34.0694
28.4619
23.5007
19.3872
16.1937
13.8208
12.0716
10.7825
9.82204
9.09635
8.53838
8.13162
7.7894
7.56944
7.41156
7.1317
6.7315
6.20878
5.56041
4.77882
3.86246
2.80965
1.62797
0.30659
-1.136
79.7651
78.2831
75.5645
80.698
81.1649
81.2465
81.0377
80.6229
80.0732
79.4468
78.7889
78.1337
77.5052
76.9202
76.3899
75.9198
75.511
75.1616
74.8681
74.6258
74.4292
74.2728
74.152
74.0631
73.9991
73.9537
73.924
73.9066
73.8995
73.8994
73.9034
73.9042
73.3672
70.63
67.2376
63.2623
58.7258
53.6242
48.0056
42.0071
35.8645
29.8961
24.4418
19.777
16.0505
13.2748
11.2916
9.88131
8.88111
8.16463
7.64428
7.25931
6.99975
6.91231
6.85639
6.65806
6.33021
5.87487
5.28997
4.57242
3.71441
2.71366
1.56808
0.284114
-1.14888
-2.71182
80.727
79.3509
77.2486
73.9128
81.4837
81.7718
81.7022
81.37
80.8568
80.2306
79.5463
78.8458
78.16
77.5109
76.914
76.3778
75.9056
75.4969
75.1489
74.8573
74.6168
74.4217
74.2674
74.1512
74.0644
73.9995
73.9535
73.9235
73.9061
73.8992
73.8991
73.9033
73.9042
71.4717
68.4492
64.708
60.3641
55.4552
49.9903
44.0455
37.8033
31.5523
25.6478
20.4279
16.1264
12.8292
10.4897
8.89778
7.8194
7.09732
6.61291
6.28656
6.06454
6.08246
6.17453
6.08328
5.84077
5.46067
4.94557
4.29336
3.50084
2.56013
1.4682
0.222232
-1.17206
-2.72479
-4.41663
81.662
80.4977
78.4947
75.8973
72.0557
82.2117
82.3232
82.1078
81.6577
81.0514
80.3542
79.6171
78.8784
78.1666
77.5022
76.8977
76.3587
75.8865
75.4795
75.1338
74.8446
74.606
74.4137
74.266
74.153
74.065
73.9993
73.9529
73.9229
73.9057
73.8988
73.8988
73.9032
73.9043
69.3662
66.0284
61.925
57.2036
51.9176
46.093
39.8412
33.3994
27.111
21.3565
16.4525
12.5739
9.7386
7.84491
6.64039
5.88382
5.42726
5.16245
5.01879
5.09669
5.31104
5.37468
5.24479
4.95416
4.51742
3.93756
3.21245
2.33882
1.30875
0.118322
-1.23593
-2.74872
-4.42962
-6.25901
82.5326
81.6225
79.8623
77.3247
74.3325
69.9962
82.8761
82.8167
82.461
81.8987
81.2056
80.4433
79.6585
78.887
78.1557
77.4814
76.8729
76.3336
75.8633
75.4592
75.1165
74.8296
74.5946
74.4114
74.2684
74.1538
74.0648
73.9984
73.9519
73.9224
73.9053
73.8984
73.8985
73.9032
73.9043
67.0201
63.3551
58.8801
53.7737
48.1074
41.9295
35.3976
28.8126
22.5699
17.0573
12.547
9.14152
6.79013
5.3443
4.51863
4.07095
3.86635
3.80857
3.99232
4.28299
4.47481
4.50735
4.33529
3.99247
3.49432
2.84431
2.04036
1.0791
-0.0474704
-1.34402
-2.81459
-4.45425
-6.27192
-8.24761
83.3314
82.6783
81.2182
78.9181
75.9464
72.5698
67.6982
83.474
83.249
82.7592
82.0915
81.3185
80.4969
79.6709
78.8745
78.1301
77.4502
76.8409
76.3036
75.8367
75.436
75.0962
74.8139
74.5911
74.4147
74.2697
74.1535
74.0637
73.9972
73.9515
73.9222
73.9048
73.8979
73.8981
73.9031
73.9044
64.4217
60.4231
55.568
50.0686
44.0188
37.4978
30.7223
24.0651
17.9634
12.7869
8.74104
5.84739
3.99207
2.98923
2.52967
2.37634
2.40972
2.71286
3.12967
3.4011
3.56829
3.56679
3.34891
2.94951
2.3848
1.65888
0.769788
-0.286057
-1.51657
-2.92708
-4.52214
-6.29717
-8.26
-10.3918
84.0544
83.6563
82.5009
80.5116
77.7679
74.3945
70.5749
65.1494
84.0013
83.6171
83.0003
82.235
81.3888
80.5155
79.6577
78.8441
78.092
77.4104
76.8029
76.2695
75.8066
75.4094
75.0752
74.8088
74.5954
74.4163
74.2693
74.1521
74.062
73.9968
73.9516
73.9217
73.9042
73.8973
73.8976
73.9031
73.9044
61.5672
57.2293
51.9841
46.0814
39.6446
32.7957
25.8267
19.1856
13.3302
8.58201
5.06075
2.70601
1.34949
0.778485
0.669535
0.794967
1.23117
1.79239
2.19503
2.44542
2.58561
2.54705
2.27942
1.81864
1.18189
0.373941
-0.607011
-1.76469
-3.10683
-4.63925
-6.36695
-8.28532
-10.4013
-13.1041
84.696
84.5509
83.7008
82.0291
79.5983
76.4646
72.6361
68.3358
62.3473
84.4539
83.9182
83.183
82.3277
81.4169
80.5032
79.6229
78.7987
78.0435
77.3634
76.7602
76.2313
75.7724
75.3819
75.0682
74.8144
74.5976
74.4159
74.2675
74.1498
74.0619
73.9975
73.9514
73.9211
73.9034
73.8965
73.897
73.903
73.9045
58.4556
53.7717
48.1226
41.8029
34.9745
27.8213
20.7279
14.2094
8.71198
4.47772
1.52883
-0.272057
-1.136
-1.29086
-1.06666
-0.484384
0.241477
0.795536
1.18269
1.41002
1.52073
1.44182
1.1201
0.592866
-0.121761
-1.01826
-2.09808
-3.36507
-4.82667
-6.48886
-8.35698
-10.4266
-13.1171
-16.3347
85.2512
85.3549
84.8134
83.46
81.3494
78.5465
74.9784
70.6551
65.8546
59.2926
84.8286
84.1504
83.3053
82.3697
81.4078
80.4649
79.5701
78.7408
77.9864
77.3107
76.7126
76.188
75.7371
75.3725
75.0753
74.8173
74.5972
74.4136
74.2645
74.1502
74.0634
73.9979
73.9509
73.9202
73.9025
73.8957
73.8964
73.903
73.9047
55.0872
50.0469
43.9746
37.2173
29.9948
22.5774
15.4519
9.17873
4.15178
0.506567
-1.83639
-3.08072
-3.46528
-3.2231
-2.47133
-1.55835
-0.829866
-0.283663
0.0865513
0.288683
0.367202
0.244329
-0.136033
-0.735164
-1.53389
-2.52575
-3.71171
-5.09564
-6.68438
-8.48393
-10.4993
-13.1482
-16.3514
-19.6266
85.7156
86.0603
85.8302
84.8005
83.0092
80.5433
77.3305
73.2892
68.453
63.1383
55.9877
85.1228
84.3112
83.3669
82.367
81.3674
80.4049
79.5022
78.6726
77.9225
77.2523
76.6588
76.1436
75.7248
75.3815
75.079
74.8168
74.5942
74.4097
74.2654
74.1531
74.0647
73.9978
73.9501
73.919
73.9013
73.8947
73.8957
73.9029
73.9049
51.461
46.0485
39.5242
32.3041
24.6955
17.0771
10.0354
4.14167
-0.30707
-3.3028
-5.02205
-5.7174
-5.64144
-4.78657
-3.6501
-2.72038
-1.98915
-1.45149
-1.09971
-0.925095
-0.881747
-1.05241
-1.49633
-2.17314
-3.06248
-4.15674
-5.4563
-6.96471
-8.68803
-10.6313
-13.2262
-16.3856
-19.6396
-22.9327
86.0861
86.6599
86.7413
86.0415
84.5746
82.4426
79.5914
75.9259
71.3982
66.04
60.1971
52.434
85.3329
84.3997
83.3748
82.3266
81.3008
80.3267
79.4221
78.5964
77.852
77.1865
76.6036
76.1278
75.736
75.3861
75.0785
74.813
74.5892
74.4115
74.2703
74.1557
74.0653
73.9972
73.9488
73.9175
73.8999
73.8936
73.895
73.9029
73.9051
47.5737
41.765
34.747
27.0368
19.0658
11.3417
4.52646
-0.84856
-4.62316
-6.92762
-8.01992
-8.18279
-7.40251
-6.09827
-4.92494
-3.97721
-3.24289
-2.71441
-2.38269
-2.23813
-2.23311
-2.45569
-2.96839
-3.72895
-4.71564
-5.91955
-7.34011
-8.98035
-10.8445
-13.3674
-16.4709
-19.6706
-22.9437
-26.2266
86.3582
87.1483
87.5368
87.1718
86.0366
84.2406
81.7498
78.4635
74.3315
69.3164
63.4317
57.0415
48.6313
85.4572
84.4238
83.3374
82.2547
81.2126
80.2341
79.3323
78.5122
77.7726
77.1191
76.5838
76.1416
75.7418
75.3855
75.0738
74.8067
74.5921
74.4189
74.2747
74.1573
74.0652
73.9961
73.9472
73.9157
73.8983
73.8923
73.8942
73.9029
73.9054
43.4172
37.1695
29.601
21.375
13.0936
5.39968
-1.01816
-5.73664
-8.76006
-10.3508
-10.8265
-10.1783
-8.87918
-7.51617
-6.30306
-5.33563
-4.59772
-4.07911
-3.76922
-3.65737
-3.69407
-3.97297
-4.55993
-5.41052
-6.5015
-7.82227
-9.37113
-11.1495
-13.5932
-16.624
-19.7563
-22.9737
-26.2367
-29.4944
86.5289
87.5188
88.2073
88.1802
87.384
85.9276
83.8012
80.8936
77.1548
72.5587
67.0624
60.6469
53.6828
44.5779
85.5046
84.3936
83.2623
82.1569
81.1069
80.1298
79.2333
78.4176
77.6912
77.0946
76.6007
76.1487
75.7412
75.3798
75.0658
74.8111
74.6029
74.4258
74.2779
74.1582
74.0645
73.9944
73.9451
73.9135
73.8964
73.8909
73.8933
73.9028
73.9058
38.9705
32.2204
24.0298
15.2745
6.7792
-0.704536
-6.53305
-10.4687
-12.6872
-13.5618
-13.099
-11.8508
-10.4743
-9.04795
-7.7915
-6.80236
-6.06037
-5.55244
-5.26617
-5.18984
-5.2719
-5.61174
-6.27862
-7.22571
-8.42791
-9.87267
-11.5562
-13.9143
-16.8658
-19.9155
-23.0602
-26.2675
-29.5033
-32.7193
86.6081
87.7657
88.7409
89.0552
88.6049
87.492
85.735
83.2126
79.8635
75.6754
70.6267
64.6589
57.7054
50.1336
40.264
85.487
84.318
83.156
82.0381
80.9873
80.0146
79.1219
78.3206
77.6615
77.1152
76.6093
76.148
75.7342
75.3699
75.0722
74.8261
74.613
74.4312
74.2801
74.1582
74.0631
73.9921
73.9425
73.9109
73.8942
73.8893
73.8923
73.9028
73.9061
34.2023
26.8638
17.9663
8.69823
0.144025
-6.90632
-11.9473
-14.9942
-16.3817
-16.1634
-15.0023
-13.6559
-12.1958
-10.7008
-9.39703
-8.38416
-7.63764
-7.14112
-6.88038
-6.84255
-6.97377
-7.37933
-8.13195
-9.182
-10.5022
-12.0773
-14.3407
-17.2063
-20.169
-23.2244
-26.3561
-29.5348
-32.7271
-35.8811
86.6097
87.9002
89.1243
89.7804
89.6869
88.921
87.5377
85.4099
82.4558
78.6666
74.0443
68.5602
62.1307
54.6267
46.4018
35.6689
85.415
84.2051
83.0245
81.9028
80.8549
79.885
79.0076
78.285
77.6862
77.1255
76.6086
76.1396
75.7219
75.3786
75.0924
74.8405
74.6213
74.4352
74.2812
74.1572
74.0608
73.9892
73.9393
73.908
73.8917
73.8875
73.8914
73.9029
73.9065
29.0659
21.0197
11.3243
1.62371
-6.76666
-13.1234
-17.187
-19.2699
-19.3784
-18.3408
-17.0544
-15.6017
-14.0509
-12.4812
-11.1262
-10.0876
-9.33602
-8.85173
-8.6185
-8.62222
-8.80652
-9.28272
-10.1269
-11.2862
-12.7304
-14.885
-17.6542
-20.5243
-23.4869
-26.5263
-29.6253
-32.7588
-35.8875
-38.9582
86.5464
87.9393
89.3658
90.335
90.6098
90.2022
89.1945
87.4716
84.923
81.5337
77.3208
72.2867
66.3863
59.5021
51.4315
42.4894
30.7614
85.2982
84.062
82.8733
81.7523
80.7056
79.7516
78.9653
78.3144
77.6985
77.1247
76.5985
76.1246
75.7335
75.4053
75.1119
74.8524
74.6279
74.4379
74.2811
74.1552
74.0576
73.9855
73.9356
73.9046
73.889
73.8857
73.8904
73.9029
73.907
23.4899
14.5674
3.99831
-5.94797
-13.8815
-19.252
-22.1804
-22.743
-21.8835
-20.6852
-19.2629
-17.6946
-16.0453
-14.3952
-12.9851
-11.9187
-11.1616
-10.6904
-10.4867
-10.5351
-10.7765
-11.3282
-12.2695
-13.5437
-15.5655
-18.222
-20.9887
-23.8532
-26.7978
-29.8013
-32.8503
-35.9192
-38.9633
-41.9301
86.4295
87.8984
89.4842
90.7226
91.3457
91.3132
90.6902
89.3817
87.2526
84.2706
80.4611
75.8504
70.431
64.133
56.7987
48.1419
38.3982
25.4981
85.1451
83.8952
82.7041
81.582
80.5516
79.7021
79.0002
78.329
77.6976
77.1128
76.5803
76.1396
75.768
75.4312
75.1285
74.8623
74.6328
74.4391
74.2796
74.1519
74.0534
73.9809
73.9312
73.9008
73.8862
73.8838
73.8894
73.9029
73.9075
17.3654
7.32089
-4.12691
-13.9783
-21.0867
-25.1638
-26.2574
-25.6417
-24.5745
-23.2028
-21.6326
-19.9389
-18.1838
-16.4479
-14.9789
-13.8829
-13.1199
-12.6627
-12.4906
-12.5866
-12.8891
-13.521
-14.5645
-16.4126
-18.9291
-21.5737
-24.3284
-27.1726
-30.0802
-33.0305
-36.011
-38.9945
-41.9337
-44.7773
86.2691
87.7916
89.4982
90.9614
91.8943
92.2207
91.9985
91.1223
89.4292
86.868
83.4634
79.261
74.284
68.5068
61.8284
54.0481
44.7806
34.1287
19.8171
84.9636
83.707
82.5118
81.4059
80.4942
79.7432
79.0174
78.3281
77.6835
77.0909
76.5994
76.1833
75.8014
75.4533
75.1425
74.8701
74.6358
74.4386
74.2765
74.1473
74.0481
73.9755
73.9263
73.8968
73.8833
73.8818
73.8883
73.903
73.9081
10.5124
-1.01578
-13.1363
-22.3653
-28.1753
-30.0129
-29.6623
-28.7483
-27.4535
-25.8947
-24.1649
-22.3369
-20.4694
-18.6429
-17.1117
-15.9845
-15.2153
-14.773
-14.6344
-14.7812
-15.1484
-15.8649
-17.4761
-19.8083
-22.2995
-24.9236
-27.6542
-30.4604
-33.3141
-36.1938
-39.0859
-41.9643
-44.7795
-47.4812
86.0745
87.6314
89.4252
91.0693
92.2736
92.9223
93.0787
92.6613
91.4344
89.3132
86.3229
82.5218
77.9612
72.6513
66.5433
59.5014
51.2779
41.3703
29.6911
13.6395
84.7568
83.4921
82.3122
81.34
80.5423
79.7631
79.0164
78.3116
77.6574
77.1145
76.6538
76.2257
75.8304
75.4725
75.1541
74.8756
74.6367
74.436
74.2717
74.1413
74.0415
73.9693
73.921
73.8926
73.8802
73.8798
73.8873
73.9031
73.9086
2.61984
-10.9119
-23.0504
-30.7868
-34.049
-34.0501
-33.298
-32.0635
-30.5161
-28.7571
-26.8581
-24.8884
-22.903
-20.9818
-19.3859
-18.2261
-17.4507
-17.0244
-16.9213
-17.1213
-17.5569
-18.832
-20.9124
-23.2012
-25.66
-28.2535
-30.9438
-33.6954
-36.4786
-39.2693
-42.0542
-44.8088
-47.4819
-50.0246
85.8499
87.4287
89.2814
91.0642
92.5016
93.4372
93.9261
93.9469
93.2319
91.5896
89.0309
85.6334
81.472
76.5911
70.9818
64.5699
57.1789
48.5194
37.9468
25.1316
6.85779
84.5188
83.268
82.2373
81.3959
80.5654
79.7621
78.9972
78.2805
77.6863
77.1812
76.7066
76.2628
75.8558
75.4888
75.1628
74.8784
74.635
74.4312
74.265
74.1336
74.034
73.9625
73.9153
73.8881
73.8769
73.8777
73.8862
73.9032
73.9093
-6.9952
-23.1744
-33.319
-38.0174
-38.892
-38.317
-37.1439
-35.5731
-33.752
-31.7812
-29.7067
-27.5898
-25.4825
-23.4641
-21.8017
-20.6086
-19.8273
-19.418
-19.3521
-19.608
-20.5974
-22.3211
-24.334
-26.5746
-28.9929
-31.5412
-34.1752
-36.8566
-39.552
-42.2361
-44.8964
-47.5096
-50.024
-52.3923
85.5894
87.1885
89.0815
90.9644
92.5962
93.7842
94.563
94.9671
94.7583
93.659
91.5747
88.5927
84.8235
80.3429
75.18
69.3043
62.6123
54.8909
45.8183
34.5501
20.5423
-0.714359
84.2691
83.1836
82.302
81.4226
80.5643
79.7399
78.9605
78.3154
77.767
77.2461
76.753
76.2956
75.8776
75.5015
75.1682
74.878
74.6305
74.424
74.2562
74.1245
74.0255
73.9552
73.9093
73.8835
73.8736
73.8756
73.8851
73.9033
73.9099
-19.8862
-37.0991
-43.1864
-44.1966
-43.9895
-42.7714
-41.156
-39.2473
-37.1449
-34.9526
-32.6999
-30.4332
-28.2024
-26.086
-24.3567
-23.1304
-22.3438
-21.9526
-21.9255
-22.7364
-24.1559
-25.7807
-27.7246
-29.9113
-32.2766
-34.7647
-37.3274
-39.9223
-42.513
-45.0742
-47.5937
-50.0494
-52.3902
-54.5694
85.3152
86.9062
88.8328