/*--------------------------------*- C++ -*----------------------------------*\
  =========                 |
  \\      /  F ield         | OpenFOAM: The Open Source CFD Toolbox
   \\    /   O peration     | Website:  https://openfoam.org
    \\  /    A nd           | Version:  8
     \\/     M anipulation  |
\*---------------------------------------------------------------------------*/
FoamFile
{
    version     2.0;
    format      ascii;
    class       volVectorField;
    location    "0.23";
    object      U;
}
// * * * * * * * * * * * * * * * * * * * * * * * * * * * * * * * * * * * * * //

dimensions      [0 1 -1 0 0 0 0];

internalField   nonuniform List<vector> 
15677
(
(-0.0199315 9.66506 0)
(0.0435757 9.92084 0)
(0.002383 9.37799 0)
(0.0147395 9.97646 0)
(0.0186155 9.78773 0)
(0.00702127 9.14225 0)
(0.0279648 9.99433 0)
(0.0171131 9.92478 0)
(0.0107373 9.65488 0)
(0.00608579 8.95987 0)
(0.0261128 10.0015 0)
(0.0215112 9.97852 0)
(0.0164022 9.85333 0)
(0.00902537 9.53013 0)
(0.00491207 8.81647 0)
(0.0249599 10.0047 0)
(0.0223869 10.0026 0)
(0.0191941 9.94282 0)
(0.0153824 9.77911 0)
(0.00789117 9.41916 0)
(0.00404239 8.7018 0)
(0.023984 10.0062 0)
(0.0225659 10.0142 0)
(0.0208099 9.98602 0)
(0.0182986 9.9022 0)
(0.0139138 9.7076 0)
(0.00681956 9.32095 0)
(0.00337435 8.60936 0)
(0.022644 10.0067 0)
(0.0224074 10.0199 0)
(0.0216423 10.008 0)
(0.020205 9.96479 0)
(0.0170688 9.86158 0)
(0.0124845 9.64034 0)
(0.00587171 9.23559 0)
(0.00281466 8.53516 0)
(0.0209601 10.0067 0)
(0.0218709 10.0223 0)
(0.0219734 10.0195 0)
(0.0213041 9.99794 0)
(0.0191174 9.94345 0)
(0.0156846 9.82193 0)
(0.0111213 9.57894 0)
(0.00499497 9.16313 0)
(0.00229918 8.47647 0)
(0.0190445 10.0063 0)
(0.0210375 10.0226 0)
(0.0218755 10.0254 0)
(0.0218125 10.0161 0)
(0.0203007 9.98793 0)
(0.0177569 9.92249 0)
(0.0142156 9.78478 0)
(0.00973134 9.52483 0)
(0.00413196 9.10335 0)
(0.00178972 8.43178 0)
(0.0169735 10.0057 0)
(0.0199834 10.0218 0)
(0.0214317 10.0283 0)
(0.0218523 10.0261 0)
(0.0208606 10.0129 0)
(0.0189193 9.97835 0)
(0.0162134 9.90311 0)
(0.012594 9.75161 0)
(0.00825152 9.47899 0)
(0.00323754 9.05605 0)
(0.00125742 8.40013 0)
(0.0147646 10.0051 0)
(0.0186924 10.0203 0)
(0.0206832 10.0291 0)
(0.0215449 10.0315 0)
(0.0209246 10.0271 0)
(0.0193971 10.0102 0)
(0.0172544 9.97015 0)
(0.014404 9.8865 0)
(0.0107555 9.7236 0)
(0.00663297 9.4422 0)
(0.00227114 9.02115 0)
(0.000679957 8.38122 0)
(0.012452 10.0044 0)
(0.0172724 10.0183 0)
(0.0196376 10.0284 0)
(0.020894 10.034 0)
(0.0205517 10.0352 0)
(0.0193415 10.0287 0)
(0.0175509 10.0088 0)
(0.0152108 9.96441 0)
(0.0122488 9.87371 0)
(0.00864089 9.70179 0)
(0.00482522 9.41519 0)
(0.00119891 8.99871 0)
(2.20119e-06 8.37484 0)
(0.0101772 10.0036 0)
(0.0157838 10.016 0)
(0.0183408 10.0267 0)
(0.0199245 10.0344 0)
(0.0198533 10.0393 0)
(0.0188363 10.0394 0)
(0.0172629 10.0315 0)
(0.0152083 10.0097 0)
(0.012693 9.96201 0)
(0.00967184 9.86569 0)
(0.00618598 9.68723 0)
(0.00278135 9.39862 0)
(1.23008e-05 8.98891 0)
(-0.000632329 8.38096 0)
(0.00822485 10.0029 0)
(0.0141874 10.0136 0)
(0.0168415 10.0244 0)
(0.0186489 10.0333 0)
(0.0188132 10.0409 0)
(0.0179419 10.0453 0)
(0.0164822 10.0449 0)
(0.0145572 10.0365 0)
(0.0122544 10.0138 0)
(0.00960479 9.96382 0)
(0.00659079 9.86345 0)
(0.00332786 9.68092 0)
(0.000455602 9.39313 0)
(-0.00134557 8.99205 0)
(-0.00140158 8.39971 0)
(0.0066817 10.0022 0)
(0.0126467 10.0113 0)
(0.0151705 10.0216 0)
(0.01708 10.0313 0)
(0.0174392 10.0405 0)
(0.0166699 10.048 0)
(0.0152546 10.0525 0)
(0.0133506 10.0525 0)
(0.0110895 10.0445 0)
(0.00857189 10.0218 0)
(0.00584004 9.97075 0)
(0.00292281 9.86798 0)
(-1.75275e-05 9.6838 0)
(-0.00219565 9.39935 0)
(-0.00289144 9.00829 0)
(-0.00227666 8.43137 0)
(0.00552599 10.0017 0)
(0.0112456 10.0093 0)
(0.0135314 10.0188 0)
(0.0152453 10.0284 0)
(0.0157365 10.0388 0)
(0.0150265 10.0485 0)
(0.0135976 10.0564 0)
(0.0116314 10.0618 0)
(0.0092886 10.063 0)
(0.00671859 10.0564 0)
(0.00402982 10.0346 0)
(0.00130563 9.98371 0)
(-0.0013941 9.88027 0)
(-0.00381319 9.69672 0)
(-0.00518091 9.41781 0)
(-0.00462054 9.03789 0)
(-0.00325003 8.476 0)
(0.00456136 10.0014 0)
(0.0098741 10.0077 0)
(0.012041 10.0163 0)
(0.0133875 10.0255 0)
(0.0137192 10.036 0)
(0.0130149 10.0471 0)
(0.0115148 10.0575 0)
(0.00941414 10.0667 0)
(0.00689079 10.0738 0)
(0.00412925 10.0771 0)
(0.001289 10.0728 0)
(-0.00149547 10.0531 0)
(-0.00413019 10.0036 0)
(-0.00646262 9.90124 0)
(-0.00817725 9.72048 0)
(-0.00854383 9.44894 0)
(-0.00654241 9.08093 0)
(-0.00431787 8.53365 0)
(0.0037781 10.0011 0)
(0.00864498 10.0063 0)
(0.0106304 10.0142 0)
(0.0116706 10.0227 0)
(0.01164 10.0328 0)
(0.0106453 10.0444 0)
(0.00900679 10.0565 0)
(0.00669941 10.0684 0)
(0.00390506 10.0797 0)
(0.000835401 10.0894 0)
(-0.00231472 10.0957 0)
(-0.00537171 10.0946 0)
(-0.00816046 10.0781 0)
(-0.0105427 10.0314 0)
(-0.0123241 9.93175 0)
(-0.0131397 9.7557 0)
(-0.0123006 9.49303 0)
(-0.00866419 9.13751 0)
(-0.00547831 8.60418 0)
(0.00314034 10.0009 0)
(0.00753762 10.0053 0)
(0.00933786 10.0123 0)
(0.0100565 10.0203 0)
(0.00969174 10.0297 0)
(0.00820414 10.041 0)
(0.00608256 10.0539 0)
(0.0034855 10.0677 0)
(0.000327509 10.0819 0)
(-0.00316172 10.0961 0)
(-0.00675918 10.1092 0)
(-0.0102476 10.1195 0)
(-0.0134127 10.1226 0)
(-0.0160589 10.1104 0)
(-0.0180017 10.0678 0)
(-0.019015 9.97251 0)
(-0.0187067 9.8029 0)
(-0.0164486 9.55023 0)
(-0.0109741 9.20742 0)
(-0.00672038 8.68726 0)
(0.00261628 10.0008 0)
(0.00653839 10.0045 0)
(0.00814874 10.0108 0)
(0.00856 10.018 0)
(0.00784994 10.0268 0)
(0.0059189 10.0375 0)
(0.00309013 10.0502 0)
(-0.000216788 10.065 0)
(-0.00384278 10.0814 0)
(-0.00787114 10.0987 0)
(-0.0120494 10.1166 0)
(-0.0161262 10.1341 0)
(-0.0198492 10.1493 0)
(-0.022979 10.1577 0)
(-0.0252872 10.1509 0)
(-0.026563 10.1136 0)
(-0.0265538 10.0241 0)
(-0.024872 9.86232 0)
(-0.0209739 9.62051 0)
(-0.0134647 9.29046 0)
(-0.00803662 8.78246 0)
(0.00220006 10.0006 0)
(0.00564103 10.0038 0)
(0.007058 10.0094 0)
(0.00718384 10.016 0)
(0.00613432 10.0241 0)
(0.00376536 10.0341 0)
(0.000304193 10.0463 0)
(-0.00397118 10.0609 0)
(-0.00859169 10.0784 0)
(-0.0132962 10.0981 0)
(-0.018205 10.1194 0)
(-0.0230326 10.1419 0)
(-0.02749 10.1648 0)
(-0.0312987 10.1859 0)
(-0.0341894 10.2006 0)
(-0.035917 10.2002 0)
(-0.0362515 10.1694 0)
(-0.0349349 10.087 0)
(-0.0316135 9.93411 0)
(-0.0258476 9.70365 0)
(-0.0161054 9.386 0)
(-0.00940548 8.88896 0)
(0.00188086 10.0005 0)
(0.00487578 10.0032 0)
(0.00606369 10.0082 0)
(0.00593002 10.0142 0)
(0.00455803 10.0216 0)
(0.00176998 10.0308 0)
(-0.00230422 10.0423 0)
(-0.00744506 10.0564 0)
(-0.0133692 10.0738 0)
(-0.0194188 10.0947 0)
(-0.0252334 10.1186 0)
(-0.0309967 10.1447 0)
(-0.0363793 10.1729 0)
(-0.0410619 10.2021 0)
(-0.0447394 10.23 0)
(-0.0471303 10.2519 0)
(-0.0479804 10.2588 0)
(-0.0470601 10.2355 0)
(-0.0441278 10.1612 0)
(-0.0388865 10.0181 0)
(-0.0310267 9.7992 0)
(-0.0188756 9.49349 0)
(-0.0108092 9.00603 0)
(0.00163334 10.0005 0)
(0.00425982 10.0028 0)
(0.00520122 10.0072 0)
(0.00479828 10.0126 0)
(0.00312907 10.0192 0)
(-4.82051e-05 10.0277 0)
(-0.00470062 10.0383 0)
(-0.0106795 10.0517 0)
(-0.0177636 10.0685 0)
(-0.0255345 10.0893 0)
(-0.0331107 10.1145 0)
(-0.0400301 10.1435 0)
(-0.0465617 10.1755 0)
(-0.0523385 10.2103 0)
(-0.057015 10.2467 0)
(-0.060278 10.2823 0)
(-0.0618444 10.3122 0)
(-0.0614712 10.3273 0)
(-0.0589472 10.3123 0)
(-0.0540696 10.2469 0)
(-0.0466266 10.114 0)
(-0.0364575 9.90654 0)
(-0.0217175 9.61187 0)
(-0.0122085 9.13207 0)
(0.00143806 10.0004 0)
(0.00376362 10.0024 0)
(0.00448623 10.0064 0)
(0.00382971 10.0112 0)
(0.00185142 10.0171 0)
(-0.00167626 10.0247 0)
(-0.00686059 10.0344 0)
(-0.0136287 10.0468 0)
(-0.0218309 10.0627 0)
(-0.03113 10.083 0)
(-0.0409357 10.108 0)
(-0.0501028 10.1385 0)
(-0.0580562 10.1736 0)
(-0.0651935 10.2125 0)
(-0.0711191 10.2548 0)
(-0.0754808 10.2993 0)
(-0.0779709 10.3433 0)
(-0.0783274 10.382 0)
(-0.0763373 10.4059 0)
(-0.0718333 10.3998 0)
(-0.0646742 10.3438 0)
(-0.0547476 10.2212 0)
(-0.0420284 10.0248 0)
(-0.0245209 9.73987 0)
(-0.0131641 9.26537 0)
(0.00128167 10.0004 0)
(0.00335798 10.0022 0)
(0.00389583 10.0057 0)
(0.0030431 10.01 0)
(0.000775142 10.0152 0)
(-0.00310713 10.0219 0)
(-0.00876589 10.0306 0)
(-0.0162589 10.042 0)
(-0.0255141 10.0568 0)
(-0.0362829 10.076 0)
(-0.0480659 10.1004 0)
(-0.0600683 10.1307 0)
(-0.0708268 10.1674 0)
(-0.0796579 10.2096 0)
(-0.0871439 10.2564 0)
(-0.0928818 10.307 0)
(-0.0965312 10.3603 0)
(-0.0978161 10.4135 0)
(-0.09652 10.4614 0)
(-0.0924865 10.4945 0)
(-0.0856062 10.4977 0)
(-0.0758188 10.4514 0)
(-0.0631077 10.3391 0)
(-0.0476888 10.1527 0)
(-0.0273001 9.87721 0)
(-0.0142309 9.40592 0)
(0.00115488 10.0003 0)
(0.00302564 10.002 0)
(0.00340971 10.0052 0)
(0.0024085 10.009 0)
(-7.81787e-05 10.0136 0)
(-0.00428421 10.0194 0)
(-0.010405 10.027 0)
(-0.0185451 10.0372 0)
(-0.028769 10.0507 0)
(-0.0409232 10.0686 0)
(-0.0546077 10.0918 0)
(-0.0691237 10.1213 0)
(-0.0834287 10.1578 0)
(-0.0956914 10.2019 0)
(-0.105135 10.2523 0)
(-0.112606 10.3077 0)
(-0.117719 10.3676 0)
(-0.120174 10.4303 0)
(-0.119756 10.4931 0)
(-0.116317 10.5505 0)
(-0.109776 10.5932 0)
(-0.100109 10.6058 0)
(-0.0873285 10.569 0)
(-0.0715547 10.4664 0)
(-0.0525486 10.2896 0)
(-0.0236808 10.0173 0)
(-0.0092487 9.49106 0)
(0.00105091 10.0003 0)
(0.0027511 10.0018 0)
(0.00301073 10.0048 0)
(0.00189553 10.0082 0)
(-0.000746544 10.0122 0)
(-0.00518927 10.0172 0)
(-0.0117129 10.0236 0)
(-0.0204706 10.0325 0)
(-0.0315618 10.0446 0)
(-0.0449936 10.0609 0)
(-0.0604744 10.0826 0)
(-0.0774114 10.1108 0)
(-0.0948605 10.1464 0)
(-0.111487 10.1901 0)
(-0.12505 10.2426 0)
(-0.134725 10.3021 0)
(-0.141706 10.3671 0)
(-0.145655 10.4368 0)
(-0.146347 10.5095 0)
(-0.143657 10.5822 0)
(-0.137541 10.6494 0)
(-0.128016 10.7014 0)
(-0.115124 10.7233 0)
(-0.0989901 10.6957 0)
(-0.0795066 10.6023 0)
(-0.0572362 10.4324 0)
(-0.0193373 10.1883 0)
(-0.00143845 9.55647 0)
(0.000964723 10.0003 0)
(0.00252315 10.0016 0)
(0.00267357 10.0044 0)
(0.00147923 10.0075 0)
(-0.00126874 10.011 0)
(-0.00587121 10.0153 0)
(-0.0126783 10.0207 0)
(-0.0219584 10.0281 0)
(-0.0338689 10.0385 0)
(-0.0484499 10.0532 0)
(-0.0655933 10.073 0)
(-0.0848245 10.0994 0)
(-0.10531 10.1335 0)
(-0.125807 10.1762 0)
(-0.144663 10.2283 0)
(-0.159202 10.2902 0)
(-0.168593 10.3598 0)
(-0.174475 10.4351 0)
(-0.176612 10.5151 0)
(-0.174894 10.5981 0)
(-0.169321 10.6807 0)
(-0.159969 10.7575 0)
(-0.146947 10.8189 0)
(-0.130392 10.8496 0)
(-0.110269 10.8307 0)
(-0.0864865 10.7455 0)
(-0.0609957 10.5889 0)
(-0.0212732 10.3611 0)
(0.00261263 9.61346 0)
(0.00089258 10.0002 0)
(0.00233291 10.0015 0)
(0.00239246 10.0041 0)
(0.00114647 10.0069 0)
(-0.00167558 10.01 0)
(-0.00637818 10.0136 0)
(-0.0133668 10.0181 0)
(-0.0230062 10.0242 0)
(-0.0355977 10.0328 0)
(-0.0512589 10.0454 0)
(-0.0699062 10.0632 0)
(-0.0912711 10.0874 0)
(-0.114644 10.1194 0)
(-0.138894 10.1605 0)
(-0.162449 10.2115 0)
(-0.183314 10.273 0)
(-0.198344 10.3452 0)
(-0.206777 10.4258 0)
(-0.210837 10.5119 0)
(-0.21043 10.6027 0)
(-0.205599 10.6959 0)
(-0.196493 10.7885 0)
(-0.183312 10.8746 0)
(-0.166268 10.9447 0)
(-0.145413 10.9838 0)
(-0.120625 10.9732 0)
(-0.0920414 10.8969 0)
(-0.0624183 10.7583 0)
(-0.0246154 10.5308 0)
(0.00353187 9.67007 0)
(0.000831675 10.0002 0)
(0.00217341 10.0014 0)
(0.00215817 10.0038 0)
(0.000874458 10.0064 0)
(-0.00199033 10.0091 0)
(-0.00674888 10.0122 0)
(-0.0138409 10.0159 0)
(-0.0237027 10.0207 0)
(-0.0367577 10.0277 0)
(-0.0533079 10.0379 0)
(-0.0733683 10.0532 0)
(-0.0966751 10.075 0)
(-0.122749 10.1045 0)
(-0.150585 10.1432 0)
(-0.178713 10.1923 0)
(-0.2052 10.2527 0)
(-0.227681 10.3247 0)
(-0.242555 10.4083 0)
(-0.249227 10.5004 0)
(-0.250634 10.5979 0)
(-0.246874 10.6994 0)
(-0.238176 10.8029 0)
(-0.224848 10.905 0)
(-0.207224 11 0)
(-0.185519 11.0783 0)
(-0.159757 11.1254 0)
(-0.130251 11.1228 0)
(-0.0972008 11.0564 0)
(-0.0642011 10.935 0)
(-0.0273565 10.696 0)
(0.00315211 9.74345 0)
(0.000779871 10.0002 0)
(0.00203899 10.0014 0)
(0.00196171 10.0036 0)
(0.000652149 10.0059 0)
(-0.00223379 10.0084 0)
(-0.00701423 10.0109 0)
(-0.0141508 10.0139 0)
(-0.0241304 10.0177 0)
(-0.0374677 10.0231 0)
(-0.054621 10.0312 0)
(-0.0758398 10.0436 0)
(-0.100977 10.0623 0)
(-0.129526 10.089 0)
(-0.160737 10.1248 0)
(-0.19326 10.1713 0)
(-0.225245 10.2297 0)
(-0.254356 10.3006 0)
(-0.277894 10.384 0)
(-0.291806 10.4798 0)
(-0.29578 10.5839 0)
(-0.293606 10.6929 0)
(-0.285617 10.8052 0)
(-0.272257 10.9186 0)
(-0.254001 11.0298 0)
(-0.23127 11.133 0)
(-0.204319 11.2191 0)
(-0.17358 11.2737 0)
(-0.139829 11.2787 0)
(-0.10318 11.2232 0)
(-0.0668229 11.114 0)
(-0.0301999 10.8759 0)
(0.00206615 9.82778 0)
(0.000735505 10.0002 0)
(0.00192508 10.0013 0)
(0.00179828 10.0034 0)
(0.000469623 10.0055 0)
(-0.00242135 10.0077 0)
(-0.00719876 10.0099 0)
(-0.0143364 10.0122 0)
(-0.0243554 10.0151 0)
(-0.0378365 10.0191 0)
(-0.0553556 10.0252 0)
(-0.077362 10.0349 0)
(-0.104001 10.0501 0)
(-0.134896 10.073 0)
(-0.169222 10.1055 0)
(-0.205909 10.1488 0)
(-0.243211 10.2043 0)
(-0.278848 10.2731 0)
(-0.310102 10.3556 0)
(-0.333958 10.4514 0)
(-0.345941 10.5599 0)
(-0.346154 10.6765 0)
(-0.339387 10.797 0)
(-0.326252 10.9197 0)
(-0.30742 11.0426 0)
(-0.283519 11.1622 0)
(-0.25508 11.2731 0)
(-0.222694 11.3663 0)
(-0.187244 11.4279 0)
(-0.149717 11.44 0)
(-0.109938 11.3941 0)
(-0.0707024 11.3137 0)
(-0.0331999 11.0706 0)
(0.00036909 9.92118 0)
(0.000697308 10.0002 0)
(0.00182801 10.0012 0)
(0.00166023 10.0032 0)
(0.000318327 10.0052 0)
(-0.0025653 10.0071 0)
(-0.0073218 10.0089 0)
(-0.014429 10.0107 0)
(-0.0244298 10.0128 0)
(-0.0379512 10.0156 0)
(-0.0556546 10.02 0)
(-0.0781411 10.0272 0)
(-0.105808 10.0389 0)
(-0.138637 10.0575 0)
(-0.175938 10.0857 0)
(-0.2165 10.1251 0)
(-0.258873 10.177 0)
(-0.300864 10.2428 0)
(-0.339763 10.3232 0)
(-0.372485 10.4183 0)
(-0.395732 10.5271 0)
(-0.404665 10.6489 0)
(-0.399954 10.7781 0)
(-0.387533 10.9098 0)
(-0.368319 11.0426 0)
(-0.343215 11.1743 0)
(-0.313025 11.3017 0)
(-0.278575 11.4195 0)
(-0.240852 11.5192 0)
(-0.200991 11.5867 0)
(-0.159823 11.6046 0)
(-0.11772 11.5876 0)
(-0.0754933 11.5327 0)
(-0.0363589 11.2605 0)
(-0.00152608 10.0217 0)
(0.000664607 10.0002 0)
(0.00174464 10.0012 0)
(0.00154269 10.003 0)
(0.000194477 10.0049 0)
(-0.00267527 10.0066 0)
(-0.00739846 10.0081 0)
(-0.0144531 10.0094 0)
(-0.0243946 10.0107 0)
(-0.0378804 10.0124 0)
(-0.0556322 10.0153 0)
(-0.0783631 10.0203 0)
(-0.106664 10.0289 0)
(-0.140828 10.0434 0)
(-0.180601 10.0662 0)
(-0.224897 10.1006 0)
(-0.272033 10.1482 0)
(-0.32013 10.2101 0)
(-0.366528 10.2873 0)
(-0.408094 10.3805 0)
(-0.441393 10.489 0)
(-0.462925 10.6116 0)
(-0.467561 10.7469 0)
(-0.456697 10.8885 0)
(-0.437539 11.0311 0)
(-0.411333 11.1733 0)
(-0.379237 11.313 0)
(-0.342344 11.4474 0)
(-0.301838 11.5714 0)
(-0.258965 11.6765 0)
(-0.214791 11.7483 0)
(-0.170939 11.7909 0)
(-0.126201 11.802 0)
(-0.0806065 11.7473 0)
(-0.039434 11.4453 0)
(-0.00335078 10.127 0)
(0.00167226 10.0011 0)
(0.000625476 10.0002 0)
(0.00144157 10.0029 0)
(9.26034e-05 10.0046 0)
(-0.00275842 10.0062 0)
(-0.00744034 10.0074 0)
(-0.0144277 10.0082 0)
(-0.0242816 10.0089 0)
(-0.0376778 10.0097 0)
(-0.0553782 10.0111 0)
(-0.0781765 10.0141 0)
(-0.106808 10.02 0)
(-0.14181 10.0306 0)
(-0.183311 10.0484 0)
(-0.23074 10.0765 0)
(-0.282514 10.1183 0)
(-0.336396 10.1754 0)
(-0.390063 10.2485 0)
(-0.440368 10.3385 0)
(-0.48377 10.4454 0)
(-0.516555 10.5682 0)
(-0.535111 10.7049 0)
(-0.534108 10.8537 0)
(-0.515827 11.0074 0)
(-0.488872 11.1603 0)
(-0.454841 11.3111 0)
(-0.415213 11.4581 0)
(-0.37143 11.5986 0)
(-0.324924 11.7276 0)
(-0.27696 11.8364 0)
(-0.22996 11.9307 0)
(-0.182832 11.9978 0)
(-0.134409 12.0139 0)
(-0.0857 11.9563 0)
(-0.0422919 11.6244 0)
(-0.00509718 10.235 0)
(0.00135374 10.0028 0)
(0.00158857 10.0011 0)
(0.000578486 10.0001 0)
(7.79342e-06 10.0044 0)
(-0.00282078 10.0058 0)
(-0.00745621 10.0067 0)
(-0.0143675 10.0072 0)
(-0.0241153 10.0073 0)
(-0.0373846 10.0073 0)
(-0.0549627 10.0075 0)
(-0.0776985 10.0087 0)
(-0.106433 10.0121 0)
(-0.141888 10.0192 0)
(-0.184494 10.0324 0)
(-0.234143 10.0544 0)
(-0.289853 10.0887 0)
(-0.349437 10.1392 0)
(-0.410057 10.2072 0)
(-0.468907 10.2929 0)
(-0.522373 10.3968 0)
(-0.566555 10.5184 0)
(-0.597549 10.656 0)
(-0.611741 10.8069 0)
(-0.603697 10.9691 0)
(-0.576747 11.1343 0)
(-0.541008 11.2967 0)
(-0.498467 11.4553 0)
(-0.450964 11.6086 0)
(-0.400208 11.7541 0)
(-0.34769 11.8865 0)
(-0.29664 12.0168 0)
(-0.246077 12.1331 0)
(-0.194159 12.2031 0)
(-0.14216 12.2213 0)
(-0.0905374 12.1584 0)
(-0.0448647 11.7973 0)
(-0.00672429 10.3438 0)
(-6.71663e-05 10.0042 0)
(0.00126264 10.0027 0)
(0.00148555 10.001 0)
(0.000533722 10.0001 4.23263e-20)
(-0.00286818 10.0054 0)
(-0.00745301 10.0062 0)
(-0.0142831 10.0063 0)
(-0.0239143 10.0059 0)
(-0.0370327 10.0051 0)
(-0.0544397 10.0042 0)
(-0.07702 10.0039 0)
(-0.105689 10.005 0)
(-0.141307 10.0091 0)
(-0.184533 10.018 0)
(-0.235633 10.0343 0)
(-0.294175 10.0615 0)
(-0.358664 10.1034 0)
(-0.426222 10.1639 0)
(-0.493329 10.2443 0)
(-0.556723 10.3439 0)
(-0.612355 10.4627 0)
(-0.656045 10.5997 0)
(-0.683811 10.7525 0)
(-0.692159 10.9177 0)
(-0.675661 11.0927 0)
(-0.638853 11.2688 0)
(-0.593471 11.4398 0)
(-0.541906 11.6051 0)
(-0.486294 11.7636 0)
(-0.428472 11.9123 0)
(-0.372469 12.0659 0)
(-0.317457 12.2169 0)
(-0.26125 12.3337 0)
(-0.204764 12.4047 0)
(-0.149303 12.4226 0)
(-0.0949989 12.3526 0)
(-0.0471236 11.9634 0)
(-0.00819974 10.452 0)
(-0.00291022 10.0051 0)
(-0.000128314 10.004 0)
(0.00115978 10.0025 1.92622e-19)
(0.00138652 10.0009 -1.34193e-19)
(0.000491114 10.0001 -8.30774e-20)
(-0.00743744 10.0057 0)
(-0.0141826 10.0055 0)
(-0.0236919 10.0047 0)
(-0.0366461 10.0032 0)
(-0.0538504 10.0014 0)
(-0.0762111 9.99963 0)
(-0.104694 9.99878 0)
(-0.140258 10 0)
(-0.183738 10.0051 0)
(-0.235688 10.0163 0)
(-0.296122 10.0368 0)
(-0.364196 10.0702 0)
(-0.437811 10.1209 0)
(-0.513272 10.193 0)
(-0.586359 10.2871 0)
(-0.65339 10.4019 0)
(-0.709948 10.5367 0)
(-0.751681 10.6896 0)
(-0.774652 10.8577 0)
(-0.775629 11.0369 0)
(-0.7493 11.2241 0)
(-0.701556 11.4101 0)
(-0.645826 11.5886 0)
(-0.584843 11.7595 0)
(-0.520928 11.9214 0)
(-0.459143 12.0911 0)
(-0.398633 12.2649 0)
(-0.336945 12.4153 0)
(-0.275331 12.531 0)
(-0.214502 12.6009 0)
(-0.155762 12.6165 0)
(-0.0990256 12.5387 0)
(-0.0490735 12.1225 0)
(-0.00951211 10.5581 0)
(-0.00742453 10.0052 0)
(-0.00290634 10.0048 -4.35162e-19)
(-0.00017866 10.0037 -2.0355e-19)
(0.00106248 10.0023 9.45343e-20)
(0.00129069 10.0009 -8.77803e-20)
(0.000450691 10.0001 0)
(-0.0140736 10.0048 0)
(-0.0234576 10.0036 0)
(-0.0362417 10.0016 0)
(-0.0532259 9.99886 0)
(-0.0753254 9.99587 0)
(-0.103538 9.99325 0)
(-0.138892 9.992 0)
(-0.182351 9.99364 0)
(-0.23469 10.0002 0)
(-0.296279 10.0146 0)
(-0.366803 10.0401 0)
(-0.444917 10.081 0)
(-0.527789 10.142 0)
(-0.610829 10.2271 0)
(-0.689108 10.3364 0)
(-0.7586 10.4675 0)
(-0.814617 10.619 0)
(-0.852759 10.7883 0)
(-0.869282 10.9715 0)
(-0.86136 11.1641 0)
(-0.823904 11.3627 0)
(-0.764288 11.5574 0)
(-0.697638 11.7422 0)
(-0.626927 11.917 0)
(-0.558456 12.1 0)
(-0.491506 12.2898 0)
(-0.423092 12.4624 0)
(-0.354959 12.6103 0)
(-0.288179 12.7231 0)
(-0.223291 12.7904 0)
(-0.161513 12.8026 0)
(-0.102596 12.7161 0)
(-0.0507367 12.2742 0)
(-0.0106622 10.6613 0)
(-0.0139792 10.0042 0)
(-0.00731837 10.0047 9.19639e-19)
(-0.00284616 10.0043 0)
(-0.000223943 10.0034 1.99731e-19)
(0.000971986 10.0021 3.30645e-23)
(0.00119884 10.0008 0)
(0.000412461 10.0001 0)
(-0.0232198 10.0027 0)
(-0.0358308 10.0001 0)
(-0.0525878 9.99663 0)
(-0.074403 9.99255 0)
(-0.102291 9.98835 0)
(-0.137325 9.98489 0)
(-0.180564 9.98345 0)
(-0.232947 9.98587 0)
(-0.295119 9.99462 0)
(-0.367195 10.0129 0)
(-0.448456 10.0446 0)
(-0.536925 10.0944 0)
(-0.628943 10.1671 0)
(-0.718954 10.2669 0)
(-0.801347 10.3928 0)
(-0.871864 10.5412 0)
(-0.925665 10.7099 0)
(-0.958459 10.8956 0)
(-0.966842 11.0936 0)
(-0.948529 11.2988 0)
(-0.898761 11.5076 0)
(-0.826486 11.7098 0)
(-0.748459 11.8993 0)
(-0.67252 12.0954 0)
(-0.598068 12.2987 0)
(-0.521745 12.4872 0)
(-0.445673 12.6568 0)
(-0.371371 12.8005 0)
(-0.299734 12.909 0)
(-0.231106 12.9726 0)
(-0.166566 12.9802 0)
(-0.105717 12.8846 0)
(-0.0521417 12.4183 0)
(-0.0116571 10.7606 0)
(-0.0230131 10.0018 0)
(-0.0137237 10.0035 1.23381e-22)
(-0.00707968 10.0041 0)
(-0.0027817 10.0039 -2.11044e-19)
(-0.00026026 10.0031 1.88109e-23)
(0.000887982 10.002 0)
(0.00111096 10.0007 0)
(0.000376439 10.0001 0)
(-0.0354225 9.99879 0)
(-0.0519496 9.99467 0)
(-0.0734716 9.98961 0)
(-0.101004 9.98402 0)
(-0.135647 9.97859 0)
(-0.178523 9.97441 0)
(-0.230696 9.97307 0)
(-0.29302 9.97678 0)
(-0.365949 9.98844 0)
(-0.449275 10.0117 0)
(-0.541746 10.0509 0)
(-0.64066 10.1111 0)
(-0.741442 10.1972 0)
(-0.837515 10.3131 0)
(-0.922652 10.4567 0)
(-0.99251 10.6232 0)
(-1.04226 10.8096 0)
(-1.06787 11.0114 0)
(-1.06643 11.2236 0)
(-1.03632 11.4404 0)
(-0.973184 11.6581 0)
(-0.88758 11.8661 0)
(-0.803547 12.0776 0)
(-0.720675 12.2944 0)
(-0.635102 12.4964 0)
(-0.549657 12.6816 0)
(-0.466254 12.8463 0)
(-0.386128 12.9846 0)
(-0.309997 13.0879 0)
(-0.237972 13.1469 0)
(-0.170951 13.149 0)
(-0.108412 13.0442 0)
(-0.0533159 12.5546 0)
(-0.0125074 10.8557 0)
(-0.0350677 9.99764 0)
(-0.0225509 10.0009 -5.13437e-19)
(-0.0132195 10.0027 0)
(-0.0068397 10.0035 0)
(-0.00270431 10.0035 6.21358e-19)
(-0.000287331 10.0028 0)
(0.000810439 10.0018 0)
(0.00102723 10.0007 1.65954e-19)
(0.000342654 10.0001 0)
(-0.0513215 9.99292 0)
(-0.0725474 9.98701 0)
(-0.0997118 9.98018 0)
(-0.133922 9.973 0)
(-0.176341 9.96639 0)
(-0.228122 9.9617 0)
(-0.290278 9.96088 0)
(-0.363526 9.96653 0)
(-0.448069 9.98202 0)
(-0.543254 10.0115 0)
(-0.647206 10.0596 0)
(-0.756401 10.1317 0)
(-0.865266 10.2327 0)
(-0.966179 10.3663 0)
(-1.05241 10.5288 0)
(-1.11972 10.714 0)
(-1.16345 10.918 0)
(-1.18 11.1356 0)
(-1.16711 11.3609 0)
(-1.12392 11.5881 0)
(-1.04649 11.8129 0)
(-0.953902 12.044 0)
(-0.861788 12.2769 0)
(-0.765729 12.4928 0)
(-0.669301 12.6915 0)
(-0.575108 12.8715 0)
(-0.484779 13.0301 0)
(-0.399247 13.1619 0)
(-0.31901 13.2593 0)
(-0.24394 13.3128 0)
(-0.174714 13.3091 0)
(-0.110714 13.1949 0)
(-0.0542871 12.6833 0)
(-0.0132262 10.9462 0)
(-0.0507768 9.99138 0)
(-0.0343279 9.99637 0)
(-0.0216713 9.99978 -5.07702e-19)
(-0.0127193 10.0019 -4.7141e-19)
(-0.0065818 10.0029 -8.7546e-19)
(-0.00261323 10.0031 0)
(-0.000305103 10.0026 -3.77579e-19)
(0.000739468 10.0017 -3.50703e-19)
(0.000947726 10.0006 1.62869e-19)
(0.000311054 10.0001 0)
(-0.0716422 9.9847 0)
(-0.0984352 9.97678 0)
(-0.132196 9.96806 0)
(-0.174102 9.95927 0)
(-0.225368 9.9516 0)
(-0.287124 9.94672 0)
(-0.360291 9.94697 0)
(-0.445395 9.95538 0)
(-0.542275 9.97579 0)
(-0.64975 10.0127 0)
(-0.765218 10.0714 0)
(-0.884244 10.157 0)
(-1.00019 10.2746 0)
(-1.10442 10.4271 0)
(-1.18983 10.6094 0)
(-1.25253 10.8136 0)
(-1.2882 11.035 0)
(-1.29384 11.2675 0)
(-1.26797 11.505 0)
(-1.21052 11.7408 0)
(-1.12633 11.9899 0)
(-1.02419 12.2435 0)
(-0.916348 12.4761 0)
(-0.807366 12.6889 0)
(-0.700509 12.8823 0)
(-0.598042 13.0558 0)
(-0.501268 13.2072 0)
(-0.41079 13.3319 0)
(-0.326846 13.4226 0)
(-0.249073 13.4702 0)
(-0.177905 13.4602 0)
(-0.11266 13.3368 0)
(-0.0550821 12.8044 0)
(-0.0138263 11.032 0)
(-0.0708594 9.98266 0)
(-0.0496724 9.98971 -5.7434e-19)
(-0.032934 9.99497 5.36393e-19)
(-0.0208061 9.99873 -2.73587e-22)
(-0.0121962 10.0011 4.62512e-19)
(-0.00630347 10.0024 4.29614e-19)
(-0.00250787 10.0027 7.97935e-19)
(-0.000313536 10.0023 5.5582e-19)
(0.000674789 10.0015 -1.72099e-19)
(0.000872327 10.0006 0)
(0.000281626 10.0001 0)
(-0.097188 9.97377 0)
(-0.130494 9.96367 0)
(-0.171865 9.95296 0)
(-0.22254 9.94263 0)
(-0.283736 9.93413 0)
(-0.356529 9.92953 0)
(-0.441699 9.93155 0)
(-0.539479 9.94371 0)
(-0.649263 9.9703 0)
(-0.769242 10.0163 0)
(-0.895993 10.087 0)
(-1.02408 10.1879 0)
(-1.1458 10.3236 0)
(-1.25151 10.4962 0)
(-1.33399 10.6988 0)
(-1.38988 10.9222 0)
(-1.41541 11.1603 0)
(-1.40836 11.4069 0)
(-1.36806 11.6548 0)
(-1.3052 11.9163 0)
(-1.21125 12.1894 0)
(-1.09025 12.4436 0)
(-0.966871 12.6734 0)
(-0.845392 12.8809 0)
(-0.728662 13.0676 0)
(-0.618489 13.2335 0)
(-0.515798 13.3771 0)
(-0.420848 13.4941 0)
(-0.333592 13.5778 0)
(-0.253444 13.619 0)
(-0.18058 13.6026 0)
(-0.114287 13.4702 0)
(-0.0557246 12.9182 0)
(-0.0143207 11.1129 0)
(-0.0961131 9.9711 0)
(-0.0692857 9.98049 -8.61467e-22)
(-0.0475917 9.98791 0)
(-0.0315722 9.99362 -4.39008e-22)
(-0.0199106 9.99773 0)
(-0.0116435 10.0004 -4.53916e-19)
(-0.00600501 10.0019 -8.43205e-19)
(-0.00238854 10.0023 2.15889e-23)
(-0.000312771 10.0021 3.63647e-19)
(0.000616518 10.0014 -1.68895e-19)
(0.000801075 10.0005 1.56884e-19)
(0.000254338 10.0001 0)
(-0.128832 9.95978 0)
(-0.169658 9.94736 0)
(-0.219711 9.93467 0)
(-0.280248 9.92295 0)
(-0.35246 9.914 0)
(-0.437329 9.91027 0)
(-0.5354 9.91496 0)
(-0.646538 9.93204 0)
(-0.769601 9.96624 0)
(-0.90205 10.0229 0)
(-1.03954 10.1075 0)
(-1.17561 10.2253 0)
(-1.30145 10.3804 0)
(-1.40657 10.574 0)
(-1.48381 10.7974 0)
(-1.53064 11.0395 0)
(-1.544 11.2937 0)
(-1.52251 11.5527 0)
(-1.47794 11.8278 0)
(-1.40631 12.1151 0)
(-1.29136 12.3905 0)
(-1.15162 12.6426 0)
(-1.01314 12.8672 0)
(-0.879748 13.0678 0)
(-0.753791 13.2466 0)
(-0.636539 13.4042 0)
(-0.528483 13.5394 0)
(-0.429533 13.6483 0)
(-0.339346 13.7246 0)
(-0.257128 13.7594 0)
(-0.182797 13.7364 0)
(-0.115634 13.5953 0)
(-0.0562354 13.0248 0)
(-0.0147233 11.1891 0)
(-0.127406 9.95634 0)
(-0.0939445 9.96831 6.41681e-19)
(-0.0663055 9.97819 -6.00565e-19)
(-0.0455701 9.98618 5.56565e-19)
(-0.0301719 9.99233 0)
(-0.0189743 9.99677 0)
(-0.0110618 9.9997 4.45478e-19)
(-0.00568622 10.0013 -4.13704e-19)
(-0.00225602 10.002 2.73645e-23)
(-0.00030221 10.0019 1.78473e-19)
(0.000564458 10.0013 -1.65779e-19)
(0.000733867 10.0005 -1.53968e-19)
(0.000229277 10.0001 0)
(-0.167505 9.9424 0)
(-0.216918 9.9276 0)
(-0.27675 9.91301 0)
(-0.348252 9.90018 0)
(-0.432555 9.8913 0)
(-0.53046 9.88924 0)
(-0.642213 9.89766 0)
(-0.767223 9.92101 0)
(-0.903709 9.9644 0)
(-1.0483 10.0334 0)
(-1.19568 10.1336 0)
(-1.33831 10.2699 0)
(-1.46636 10.4457 0)
(-1.56858 10.6611 0)
(-1.63815 10.9052 0)
(-1.67363 11.1655 0)
(-1.67281 11.4343 0)
(-1.64846 11.7223 0)
(-1.59587 12.0252 0)
(-1.5021 12.3167 0)
(-1.36603 12.5912 0)
(-1.20799 12.8386 0)
(-1.05508 13.0562 0)
(-0.910493 13.2486 0)
(-0.776007 13.4187 0)
(-0.652326 13.5673 0)
(-0.539458 13.6937 0)
(-0.436965 13.7944 0)
(-0.34421 13.8633 0)
(-0.260203 13.8914 0)
(-0.18461 13.862 0)
(-0.116736 13.7124 0)
(-0.0566356 13.1245 0)
(-0.0150479 11.2605 0)
(-0.165666 9.938 0)
(-0.124495 9.95277 0)
(-0.0898068 9.96541 6.34307e-19)
(-0.0634233 9.976 -1.17909e-18)
(-0.0434999 9.98453 1.09396e-18)
(-0.0287158 9.99109 -1.01518e-18)
(-0.0179973 9.99586 0)
(-0.0104519 9.99903 4.37369e-19)
(-0.00534823 10.0009 -4.06014e-19)
(-0.00211097 10.0016 -3.77177e-19)
(-0.000281817 10.0016 0)
(0.000518425 10.0011 1.62702e-19)
(0.000670917 10.0004 0)
(0.000206938 10 0)
(-0.214192 9.92133 0)
(-0.27329 9.90418 0)
(-0.344016 9.88789 0)
(-0.427584 9.87439 0)
(-0.524991 9.86627 0)
(-0.636794 9.86686 0)
(-0.762861 9.88028 0)
(-0.902047 9.91141 0)
(-1.05183 9.96571 0)
(-1.20794 10.0489 0)
(-1.36402 10.1663 0)
(-1.51148 10.3226 0)
(-1.63956 10.5201 0)
(-1.73639 10.7576 0)
(-1.79581 11.0222 0)
(-1.81766 11.2995 0)
(-1.81572 11.5993 0)
(-1.7844 11.9173 0)
(-1.70821 12.2267 0)
(-1.59183 12.5191 0)
(-1.43486 12.7898 0)
(-1.25923 13.0303 0)
(-1.09273 13.2395 0)
(-0.93776 13.4227 0)
(-0.795471 13.5833 0)
(-0.666011 13.7226 0)
(-0.548873 13.84 0)
(-0.443267 13.9324 0)
(-0.348283 13.9938 0)
(-0.262743 14.0153 0)
(-0.186074 13.9796 0)
(-0.117625 13.8218 0)
(-0.0569431 13.2176 0)
(-0.0153056 11.3275 0)
(-0.211877 9.91577 0)
(-0.161844 9.93349 0)
(-0.118894 9.94913 0)
(-0.0858247 9.96265 1.24527e-18)
(-0.0604827 9.97392 -1.15554e-18)
(-0.0413561 9.98297 1.0724e-18)
(-0.0272051 9.98993 0)
(-0.0169819 9.99499 -4.6207e-19)
(-0.00981488 9.9984 0)
(-0.00499233 10.0004 3.98506e-19)
(-0.00195138 10.0013 0)
(-0.000253178 10.0014 0)
(0.000479332 10.001 0)
(0.000613757 10.0004 1.58164e-19)
(0.000187385 10 7.7247e-20)
(-0.269911 9.89633 0)
(-0.339812 9.87697 0)
(-0.422555 9.85935 0)
(-0.519244 9.84578 0)
(-0.630681 9.8393 0)
(-0.757116 9.8437 0)
(-0.897941 9.86357 0)
(-1.05136 9.90417 0)
(-1.21402 9.97118 0)
(-1.38068 10.0703 0)
(-1.54397 10.2067 0)
(-1.69427 10.3842 0)
(-1.81996 10.6042 0)
(-1.90882 10.8638 0)
(-1.95554 11.148 0)
(-1.97843 11.4583 0)
(-1.97095 11.7906 0)
(-1.91471 12.1179 0)
(-1.81406 12.4304 0)
(-1.675 12.7205 0)
(-1.49767 12.9849 0)
(-1.30534 13.2167 0)
(-1.1262 13.4163 0)
(-0.961737 13.5894 0)
(-0.812391 13.7401 0)
(-0.677774 13.8699 0)
(-0.556879 13.9783 0)
(-0.448563 14.0624 0)
(-0.351661 14.1165 0)
(-0.264818 14.1315 0)
(-0.187237 14.0895 0)
(-0.11833 13.9241 0)
(-0.0571738 13.3046 0)
(-0.015506 11.39 0)
(-0.26706 9.88937 0)
(-0.206952 9.91012 0)
(-0.154422 9.92896 1.42491e-18)
(-0.113528 9.94568 1.32109e-18)
(-0.0817721 9.96004 1.22505e-18)
(-0.0574474 9.97195 -1.13609e-18)
(-0.0391407 9.9815 0)
(-0.0256431 9.98883 0)
(-0.0159299 9.99418 0)
(-0.00915216 9.99781 8.42665e-19)
(-0.00461951 10 3.91215e-19)
(-0.00177898 10.001 3.6331e-19)
(-0.000215884 10.0012 0)
(0.000447022 10.0009 -1.67123e-19)
(0.00056269 10.0003 -8.16476e-20)
(0.000170152 10 0)
(-0.335705 9.86726 0)
(-0.417542 9.84595 0)
(-0.513388 9.82752 0)
(-0.624181 9.81467 0)
(-0.750469 9.81092 0)
(-0.892102 9.82051 0)
(-1.0479 9.84846 0)
(-1.21533 9.90033 0)
(-1.39013 9.98192 0)
(-1.56609 10.0988 0)
(-1.73478 10.2556 0)
(-1.88567 10.4553 0)
(-2.00645 10.6983 0)
(-2.08463 10.9796 0)
(-2.13505 11.2988 0)
(-2.15433 11.6444 0)
(-2.12086 11.9894 0)
(-2.03838 12.3224 0)
(-1.91282 12.6345 0)
(-1.75135 12.9194 0)
(-1.55445 13.1754 0)
(-1.34646 13.397 0)
(-1.15572 13.5859 0)
(-0.98265 13.7485 0)
(-0.826989 13.889 0)
(-0.687803 14.0092 0)
(-0.56363 14.1087 0)
(-0.452973 14.1847 0)
(-0.354432 14.2315 0)
(-0.266491 14.2402 0)
(-0.188144 14.1922 0)
(-0.118879 14.0194 0)
(-0.0573393 13.3856 0)
(-0.0156599 11.4484 0)
(-0.332266 9.85863 0)
(-0.260814 9.88234 0)
(-0.197297 9.90451 -3.01454e-18)
(-0.147339 9.92468 4.19786e-21)
(-0.108076 9.94244 -2.59087e-18)