# Residuals   
# Time        	p             	Ux            	Uy            	k             	epsilon       	h             
0             	N/A	N/A	N/A	N/A	N/A
1.19904e-05   	2.181897e-02	1.178927e-03	5.406991e-04	4.290203e-04	4.088835e-04	2.821599e-04
2.62999e-05   	1.741737e-02	1.360144e-03	5.596448e-04	5.119698e-04	4.806955e-04	3.439146e-04
4.29227e-05   	9.386997e-03	1.507273e-03	5.825890e-04	5.915452e-04	5.481361e-04	3.950036e-04
6.18525e-05   	9.011001e-03	1.683840e-03	6.263392e-04	6.723796e-04	6.153394e-04	4.475340e-04
8.30879e-05   	9.558977e-03	1.854188e-03	6.776358e-04	7.537262e-04	6.839982e-04	5.009254e-04
0.00010615    	9.800414e-03	1.987050e-03	7.174325e-04	8.179051e-04	7.353734e-04	5.434240e-04
0.000129106   	9.143326e-03	1.964445e-03	7.072611e-04	8.132227e-04	7.244935e-04	5.409155e-04
0.000151955   	8.772060e-03	1.954088e-03	6.992593e-04	8.087178e-04	7.126489e-04	5.386935e-04
0.000174752   	8.408796e-03	1.956702e-03	6.919436e-04	8.063900e-04	7.025736e-04	5.375286e-04
0.000197443   	7.960268e-03	1.964296e-03	6.811486e-04	8.019768e-04	6.914753e-04	5.347591e-04
0.000220082   	7.436225e-03	1.978697e-03	6.723517e-04	7.993055e-04	6.820103e-04	5.331283e-04
0.000242668   	6.976443e-03	1.986663e-03	6.654082e-04	7.965879e-04	6.729128e-04	5.315473e-04
0.000265202   	6.656058e-03	1.981690e-03	6.611630e-04	7.938903e-04	6.647375e-04	5.303824e-04
0.000287736   	6.446465e-03	1.967872e-03	6.620210e-04	7.929739e-04	6.583363e-04	5.307737e-04
0.000310271   	6.270466e-03	1.942257e-03	6.663033e-04	7.919713e-04	6.523155e-04	5.310886e-04
0.000332753   	6.157451e-03	1.903341e-03	6.716555e-04	7.892572e-04	6.451583e-04	5.298619e-04
0.000355235   	6.141001e-03	1.862494e-03	6.799951e-04	7.884440e-04	6.398598e-04	5.294167e-04
0.000377717   	6.093763e-03	1.819690e-03	6.888979e-04	7.876297e-04	6.349819e-04	5.284594e-04
0.000400199   	5.982857e-03	1.778838e-03	6.975821e-04	7.868326e-04	6.301255e-04	5.271471e-04
0.000422681   	5.800818e-03	1.745288e-03	7.052578e-04	7.861299e-04	6.256088e-04	5.254358e-04
0.000445163   	5.594905e-03	1.723858e-03	7.111773e-04	7.855341e-04	6.214673e-04	5.233765e-04
0.000467592   	5.396415e-03	1.713686e-03	7.127000e-04	7.832002e-04	6.165514e-04	5.200088e-04
0.000490021   	5.208393e-03	1.720351e-03	7.128092e-04	7.827937e-04	6.133417e-04	5.179443e-04
0.00051245    	5.046289e-03	1.736948e-03	7.095649e-04	7.824249e-04	6.103544e-04	5.160674e-04
0.000534879   	4.930669e-03	1.759433e-03	7.034780e-04	7.820985e-04	6.074540e-04	5.143741e-04
0.000557309   	4.896577e-03	1.786388e-03	6.946903e-04	7.818297e-04	6.047099e-04	5.130090e-04
0.000579738   	4.889776e-03	1.816644e-03	6.837881e-04	7.815996e-04	6.019678e-04	5.121511e-04
0.000602114   	4.866728e-03	1.844301e-03	6.701507e-04	7.795299e-04	5.979839e-04	5.104396e-04
0.00062449    	4.844112e-03	1.875659e-03	6.578591e-04	7.793297e-04	5.956192e-04	5.102475e-04
0.000646865   	4.814535e-03	1.903895e-03	6.463666e-04	7.791392e-04	5.934157e-04	5.102608e-04
0.000669241   	4.790663e-03	1.927275e-03	6.364474e-04	7.789802e-04	5.912825e-04	5.104374e-04
0.000691617   	4.770870e-03	1.944764e-03	6.283398e-04	7.788527e-04	5.893406e-04	5.107046e-04
0.000713993   	4.760874e-03	1.955983e-03	6.223468e-04	7.787421e-04	5.876856e-04	5.110346e-04
0.000736369   	4.752666e-03	1.960792e-03	6.188388e-04	7.786684e-04	5.861871e-04	5.113777e-04
0.000758745   	4.753686e-03	1.959727e-03	6.180889e-04	7.786361e-04	5.848289e-04	5.117260e-04
0.000781121   	4.741813e-03	1.953672e-03	6.199128e-04	7.786167e-04	5.835176e-04	5.120262e-04
0.000803497   	4.716699e-03	1.943883e-03	6.241153e-04	7.785927e-04	5.823048e-04	5.122065e-04
0.000825873   	4.689413e-03	1.931802e-03	6.307416e-04	7.785553e-04	5.811031e-04	5.122675e-04
0.000848249   	4.644760e-03	1.918811e-03	6.390105e-04	7.784930e-04	5.798982e-04	5.121774e-04
0.000870625   	4.582227e-03	1.905945e-03	6.482659e-04	7.784293e-04	5.787191e-04	5.119485e-04
0.000892946   	4.500300e-03	1.889106e-03	6.560840e-04	7.764398e-04	5.761673e-04	5.103270e-04
0.000915267   	4.426412e-03	1.878115e-03	6.649295e-04	7.763385e-04	5.750665e-04	5.098477e-04
0.000937588   	4.339744e-03	1.868588e-03	6.729794e-04	7.762075e-04	5.739775e-04	5.092629e-04
0.00095991    	4.244491e-03	1.860408e-03	6.797359e-04	7.760275e-04	5.729058e-04	5.085853e-04
0.000982231   	4.169261e-03	1.853691e-03	6.851761e-04	7.757983e-04	5.718294e-04	5.078574e-04
0.00100455    	4.107018e-03	1.848397e-03	6.893187e-04	7.755195e-04	5.707920e-04	5.071354e-04
0.00102687    	4.046980e-03	1.844652e-03	6.922363e-04	7.752007e-04	5.698451e-04	5.064200e-04
0.00104919    	3.977513e-03	1.842237e-03	6.941382e-04	7.748594e-04	5.689702e-04	5.057073e-04
0.00107152    	3.894628e-03	1.841166e-03	6.952236e-04	7.745207e-04	5.682040e-04	5.050175e-04
0.00109384    	3.810866e-03	1.841558e-03	6.959809e-04	7.741903e-04	5.674876e-04	5.043539e-04
0.00111616    	3.720601e-03	1.843492e-03	6.966859e-04	7.738763e-04	5.668310e-04	5.037279e-04
0.00113848    	3.649918e-03	1.846893e-03	6.977300e-04	7.735752e-04	5.662508e-04	5.031560e-04
0.0011608     	3.589213e-03	1.851516e-03	6.988908e-04	7.732970e-04	5.657240e-04	5.026329e-04
0.00118312    	3.544749e-03	1.857328e-03	6.999892e-04	7.730252e-04	5.652797e-04	5.021572e-04
0.00120539    	3.509256e-03	1.859463e-03	6.992120e-04	7.708149e-04	5.634841e-04	5.005067e-04
0.00122765    	3.482940e-03	1.867149e-03	7.000940e-04	7.705754e-04	5.631805e-04	5.001699e-04
0.00124992    	3.465885e-03	1.875663e-03	7.009596e-04	7.703585e-04	5.629461e-04	4.998865e-04
0.00127218    	3.455134e-03	1.884668e-03	7.017556e-04	7.701446e-04	5.627592e-04	4.996544e-04
0.00129445    	3.444343e-03	1.893936e-03	7.024586e-04	7.699361e-04	5.626400e-04	4.994842e-04
0.00131671    	3.437927e-03	1.903352e-03	7.030905e-04	7.697419e-04	5.625918e-04	4.993700e-04
0.00133892    	3.420563e-03	1.907513e-03	7.019848e-04	7.676054e-04	5.611259e-04	4.980218e-04
0.00136113    	3.414295e-03	1.915873e-03	7.027727e-04	7.674655e-04	5.611195e-04	4.979703e-04
0.00138333    	3.413929e-03	1.923441e-03	7.037450e-04	7.673540e-04	5.612018e-04	4.979210e-04
0.00140549    	3.408811e-03	1.925186e-03	7.031202e-04	7.652593e-04	5.598239e-04	4.965817e-04
0.00142764    	3.413141e-03	1.930948e-03	7.047049e-04	7.651416e-04	5.598772e-04	4.965045e-04
0.00144979    	3.410068e-03	1.935566e-03	7.067266e-04	7.650152e-04	5.599470e-04	4.963834e-04
0.00147188    	3.393078e-03	1.933732e-03	7.077247e-04	7.629056e-04	5.585388e-04	4.949461e-04
0.00149397    	3.387130e-03	1.935680e-03	7.112856e-04	7.627433e-04	5.585593e-04	4.947550e-04
0.00151607    	3.387333e-03	1.936101e-03	7.156126e-04	7.625723e-04	5.585531e-04	4.945244e-04
0.0015381     	3.378252e-03	1.930125e-03	7.184932e-04	7.604351e-04	5.570640e-04	4.929835e-04
0.00156014    	3.357778e-03	1.927903e-03	7.233717e-04	7.602589e-04	5.569813e-04	4.927287e-04
0.00158218    	3.345145e-03	1.924502e-03	7.281678e-04	7.600572e-04	5.568377e-04	4.925084e-04
0.00160421    	3.337081e-03	1.919742e-03	7.327887e-04	7.598411e-04	5.566639e-04	4.923148e-04
0.00162619    	3.334243e-03	1.908861e-03	7.352713e-04	7.576292e-04	5.549888e-04	4.908196e-04
0.00164817    	3.366522e-03	1.902266e-03	7.392598e-04	7.573994e-04	5.547189e-04	4.905998e-04
0.00167015    	3.420029e-03	1.895292e-03	7.428437e-04	7.571557e-04	5.544006e-04	4.904172e-04
0.00169213    	3.477544e-03	1.887988e-03	7.459945e-04	7.569049e-04	5.540445e-04	4.902290e-04
0.0017141     	3.541520e-03	1.880739e-03	7.487255e-04	7.566492e-04	5.536605e-04	4.900144e-04
0.00173608    	3.592938e-03	1.873719e-03	7.511250e-04	7.563944e-04	5.532604e-04	4.897663e-04
0.00175806    	3.636100e-03	1.867462e-03	7.532649e-04	7.561446e-04	5.528301e-04	4.894670e-04
0.00178004    	3.677778e-03	1.862596e-03	7.552853e-04	7.559073e-04	5.524140e-04	4.891152e-04
0.00180202    	3.699344e-03	1.859114e-03	7.571592e-04	7.556899e-04	5.519948e-04	4.887110e-04
0.001824      	3.711695e-03	1.857126e-03	7.587154e-04	7.554942e-04	5.515620e-04	4.882528e-04
0.00184598    	3.732820e-03	1.856982e-03	7.600019e-04	7.553259e-04	5.511263e-04	4.877633e-04
0.00186795    	3.740830e-03	1.857832e-03	7.609926e-04	7.551695e-04	5.506839e-04	4.872461e-04
0.00188993    	3.743237e-03	1.859003e-03	7.616985e-04	7.550318e-04	5.502535e-04	4.867000e-04
0.00191191    	3.751777e-03	1.860038e-03	7.621846e-04	7.548869e-04	5.498484e-04	4.861910e-04
0.00193389    	3.760889e-03	1.860838e-03	7.625772e-04	7.547511e-04	5.494447e-04	4.857055e-04
0.00195587    	3.773416e-03	1.861198e-03	7.627392e-04	7.546257e-04	5.490307e-04	4.852188e-04
0.00197791    	3.845258e-03	1.865996e-03	7.646832e-04	7.565717e-04	5.501343e-04	4.860837e-04
0.00199995    	3.902057e-03	1.865076e-03	7.641520e-04	7.564423e-04	5.497383e-04	4.856905e-04
0.00202198    	3.961450e-03	1.863606e-03	7.631669e-04	7.563021e-04	5.493253e-04	4.853214e-04
0.00204402    	4.029752e-03	1.861970e-03	7.616723e-04	7.561479e-04	5.489204e-04	4.849525e-04
0.00206606    	4.094787e-03	1.860311e-03	7.595923e-04	7.559771e-04	5.485417e-04	4.845652e-04
0.0020881     	4.155844e-03	1.859155e-03	7.568831e-04	7.558055e-04	5.481733e-04	4.841615e-04
0.00211014    	4.195114e-03	1.858915e-03	7.534978e-04	7.556278e-04	5.477980e-04	4.837262e-04
0.00213218    	4.240382e-03	1.859657e-03	7.494359e-04	7.554514e-04	5.474293e-04	4.832547e-04
0.00215422    	4.279732e-03	1.861177e-03	7.446948e-04	7.552806e-04	5.470904e-04	4.827414e-04
0.00217626    	4.305244e-03	1.863026e-03	7.392882e-04	7.550998e-04	5.467510e-04	4.821843e-04
0.00219829    	4.336495e-03	1.865075e-03	7.332316e-04	7.549340e-04	5.464252e-04	4.815868e-04
0.00222033    	4.348542e-03	1.867167e-03	7.265317e-04	7.547686e-04	5.461017e-04	4.809824e-04
0.00224237    	4.368979e-03	1.869153e-03	7.192515e-04	7.545773e-04	5.457829e-04	4.803857e-04
0.00226441    	4.407337e-03	1.870790e-03	7.115090e-04	7.543688e-04	5.454719e-04	4.798086e-04
0.00228645    	4.438948e-03	1.871795e-03	7.033170e-04	7.541668e-04	5.451460e-04	4.792704e-04
0.00230849    	4.476435e-03	1.872066e-03	6.946720e-04	7.539788e-04	5.447865e-04	4.787816e-04
0.00233053    	4.490912e-03	1.871500e-03	6.857040e-04	7.537918e-04	5.444052e-04	4.783264e-04
0.00235257    	4.510089e-03	1.870183e-03	6.766251e-04	7.536164e-04	5.440534e-04	4.778856e-04
0.0023746     	4.522540e-03	1.868345e-03	6.677746e-04	7.534487e-04	5.437162e-04	4.774339e-04
0.00239664    	4.526759e-03	1.866014e-03	6.600668e-04	7.532724e-04	5.433545e-04	4.769805e-04
0.00241868    	4.516909e-03	1.863862e-03	6.582181e-04	7.531015e-04	5.429979e-04	4.764974e-04
0.00244072    	4.486566e-03	1.862656e-03	6.637311e-04	7.529748e-04	5.426491e-04	4.759717e-04
0.00246276    	4.452565e-03	1.862922e-03	6.738138e-04	7.528676e-04	5.423182e-04	4.754049e-04
0.0024848     	4.398369e-03	1.864145e-03	6.845482e-04	7.527743e-04	5.419925e-04	4.748095e-04
0.00250684    	4.347021e-03	1.865979e-03	6.950481e-04	7.526815e-04	5.416646e-04	4.742008e-04
0.00252887    	4.308418e-03	1.867939e-03	7.052666e-04	7.525920e-04	5.413347e-04	4.736289e-04
0.00255098    	4.283572e-03	1.875273e-03	7.171935e-04	7.547248e-04	5.426008e-04	4.744946e-04
0.00257308    	4.234921e-03	1.876483e-03	7.266269e-04	7.546217e-04	5.422717e-04	4.740415e-04
0.00259519    	4.203358e-03	1.877102e-03	7.354175e-04	7.545063e-04	5.419460e-04	4.735406e-04
0.00261729    	4.176964e-03	1.876639e-03	7.436925e-04	7.543916e-04	5.416205e-04	4.730295e-04
0.00263939    	4.149524e-03	1.875498e-03	7.513961e-04	7.542946e-04	5.413077e-04	4.725296e-04
0.0026615     	4.124207e-03	1.873550e-03	7.584824e-04	7.541951e-04	5.410154e-04	4.720196e-04
0.0026836     	4.103454e-03	1.870879e-03	7.649070e-04	7.540982e-04	5.407124e-04	4.714973e-04
0.00270571    	4.080001e-03	1.867604e-03	7.706741e-04	7.539996e-04	5.404187e-04	4.709621e-04
0.00272781    	4.047147e-03	1.863763e-03	7.757573e-04	7.539077e-04	5.401254e-04	4.704303e-04
0.00274991    	4.027084e-03	1.859429e-03	7.801320e-04	7.538218e-04	5.398236e-04	4.699334e-04
0.00277202    	4.024360e-03	1.854869e-03	7.838095e-04	7.537358e-04	5.395093e-04	4.695217e-04
0.00279412    	4.035069e-03	1.850442e-03	7.868351e-04	7.536343e-04	5.391975e-04	4.691678e-04
0.00281623    	4.056075e-03	1.847149e-03	7.892173e-04	7.535409e-04	5.389423e-04	4.688758e-04
0.00283833    	4.092018e-03	1.845754e-03	7.909635e-04	7.534547e-04	5.387452e-04	4.686394e-04
0.00286043    	4.129012e-03	1.845626e-03	7.921027e-04	7.533519e-04	5.385558e-04	4.683997e-04
0.00288254    	4.169913e-03	1.847134e-03	7.926470e-04	7.532602e-04	5.383575e-04	4.681872e-04
0.00290464    	4.182137e-03	1.850601e-03	7.926390e-04	7.531586e-04	5.381227e-04	4.679677e-04
0.00292675    	4.198867e-03	1.854914e-03	7.920835e-04	7.530420e-04	5.378835e-04	4.677312e-04
0.00294885    	4.194336e-03	1.859234e-03	7.910400e-04	7.529367e-04	5.376760e-04	4.674814e-04
0.00297095    	4.197590e-03	1.863185e-03	7.895494e-04	7.528529e-04	5.374850e-04	4.672332e-04
0.00299306    	4.198180e-03	1.866597e-03	7.876450e-04	7.527692e-04	5.372968e-04	4.669747e-04
0.00301516    	4.245811e-03	1.869354e-03	7.853747e-04	7.526779e-04	5.371048e-04	4.667197e-04
0.00303727    	4.283989e-03	1.871371e-03	7.829070e-04	7.525767e-04	5.369138e-04	4.664470e-04
0.00305937    	4.307759e-03	1.872606e-03	7.803272e-04	7.524954e-04	5.367351e-04	4.661752e-04
0.00308147    	4.341373e-03	1.873020e-03	7.775577e-04	7.524023e-04	5.365698e-04	4.658742e-04
0.00310365    	4.391988e-03	1.878589e-03	7.770013e-04	7.547010e-04	5.381174e-04	4.670265e-04
0.00312582    	4.425980e-03	1.877340e-03	7.736957e-04	7.545787e-04	5.379519e-04	4.666565e-04
0.003148      	4.485985e-03	1.875313e-03	7.701019e-04	7.544555e-04	5.378089e-04	4.662682e-04
0.00317017    	4.542666e-03	1.872575e-03	7.662489e-04	7.543287e-04	5.377000e-04	4.658624e-04
0.00319235    	4.582441e-03	1.869187e-03	7.621833e-04	7.542033e-04	5.376136e-04	4.654493e-04
0.00321452    	4.633037e-03	1.865587e-03	7.579223e-04	7.540655e-04	5.375466e-04	4.650146e-04
0.0032367     	4.679623e-03	1.862572e-03	7.535621e-04	7.539011e-04	5.374936e-04	4.645694e-04
0.00325887    	4.729346e-03	1.860814e-03	7.491555e-04	7.537378e-04	5.374439e-04	4.641180e-04
0.00328112    	4.770413e-03	1.866262e-03	7.475005e-04	7.560567e-04	5.391573e-04	4.652054e-04
0.00330337    	4.771729e-03	1.865777e-03	7.441234e-04	7.558917e-04	5.391059e-04	4.647553e-04
0.00332561    	4.792436e-03	1.865737e-03	7.412332e-04	7.557209e-04	5.390376e-04	4.643296e-04
0.00334786    	4.801038e-03	1.866578e-03	7.386789e-04	7.555477e-04	5.389912e-04	4.638350e-04
0.00337011    	4.742350e-03	1.867065e-03	7.365013e-04	7.554013e-04	5.389639e-04	4.632904e-04
0.00339236    	4.709093e-03	1.868494e-03	7.344955e-04	7.552704e-04	5.389638e-04	4.627152e-04
0.00341461    	4.663652e-03	1.869864e-03	7.325714e-04	7.551432e-04	5.389997e-04	4.621132e-04
0.00343685    	4.620123e-03	1.870873e-03	7.306981e-04	7.550071e-04	5.390439e-04	4.614900e-04
0.00345918    	4.588812e-03	1.877691e-03	7.312937e-04	7.574567e-04	5.409311e-04	4.624147e-04
0.0034815     	4.530976e-03	1.877528e-03	7.294281e-04	7.573488e-04	5.409866e-04	4.617439e-04
0.00350383    	4.462369e-03	1.876750e-03	7.275195e-04	7.572462e-04	5.410241e-04	4.610567e-04
0.00352615    	4.398620e-03	1.875367e-03	7.254724e-04	7.571551e-04	5.410578e-04	4.603649e-04
0.00354847    	4.341851e-03	1.873364e-03	7.232184e-04	7.570625e-04	5.410799e-04	4.596819e-04
0.0035708     	4.302939e-03	1.870745e-03	7.207280e-04	7.569401e-04	5.410442e-04	4.590237e-04
0.00359312    	4.288676e-03	1.867521e-03	7.180752e-04	7.568059e-04	5.409619e-04	4.583799e-04
0.00361544    	4.298232e-03	1.863748e-03	7.152928e-04	7.566542e-04	5.408379e-04	4.577584e-04
0.00363777    	4.329019e-03	1.859443e-03	7.125293e-04	7.564742e-04	5.406891e-04	4.571750e-04
0.00366009    	4.369914e-03	1.854693e-03	7.098430e-04	7.562843e-04	5.405156e-04	4.566797e-04
0.00368241    	4.416889e-03	1.849593e-03	7.070252e-04	7.560686e-04	5.403321e-04	4.563030e-04
0.00370474    	4.457027e-03	1.844399e-03	7.040713e-04	7.558522e-04	5.401612e-04	4.559801e-04
0.00372706    	4.489654e-03	1.839066e-03	7.010352e-04	7.556387e-04	5.399917e-04	4.556874e-04
0.00374939    	4.519115e-03	1.835182e-03	6.979118e-04	7.554385e-04	5.398080e-04	4.554007e-04
0.00377171    	4.537602e-03	1.833762e-03	6.947444e-04	7.552545e-04	5.396325e-04	4.551076e-04
0.00379403    	4.544807e-03	1.832621e-03	6.916350e-04	7.550731e-04	5.394667e-04	4.547901e-04
0.00381636    	4.545447e-03	1.832640e-03	6.886575e-04	7.548663e-04	5.393017e-04	4.544537e-04
0.00383868    	4.543227e-03	1.834432e-03	6.858701e-04	7.546280e-04	5.391347e-04	4.540899e-04
0.003861      	4.523702e-03	1.836640e-03	6.833569e-04	7.543900e-04	5.389690e-04	4.537128e-04
0.00388333    	4.506557e-03	1.838760e-03	6.817431e-04	7.541551e-04	5.387899e-04	4.533166e-04
0.00390565    	4.466043e-03	1.840607e-03	6.809666e-04	7.539131e-04	5.385861e-04	4.529116e-04
0.00392797    	4.437164e-03	1.842034e-03	6.807913e-04	7.536807e-04	5.383892e-04	4.525010e-04
0.0039503     	4.383932e-03	1.842996e-03	6.810996e-04	7.534486e-04	5.381828e-04	4.520729e-04
0.00397262    	4.348214e-03	1.843446e-03	6.817869e-04	7.531946e-04	5.379824e-04	4.516618e-04
0.00399495    	4.308885e-03	1.843325e-03	6.825841e-04	7.529228e-04	5.377969e-04	4.512689e-04
0.00401719    	4.259559e-03	1.835661e-03	6.808461e-04	7.498580e-04	5.356917e-04	4.492126e-04
0.00403943    	4.219796e-03	1.834318e-03	6.815402e-04	7.495601e-04	5.355986e-04	4.488471e-04
0.00406167    	4.192360e-03	1.832459e-03	6.821401e-04	7.492701e-04	5.354916e-04	4.484652e-04
0.00408391    	4.149069e-03	1.830115e-03	6.826770e-04	7.489930e-04	5.353830e-04	4.480776e-04
0.00410615    	4.091736e-03	1.827394e-03	6.831102e-04	7.487272e-04	5.352851e-04	4.476723e-04
0.00412839    	4.037270e-03	1.824304e-03	6.834632e-04	7.484677e-04	5.351816e-04	4.472628e-04
0.00415063    	3.983407e-03	1.820920e-03	6.838450e-04	7.481795e-04	5.350655e-04	4.468624e-04
0.00417287    	3.918008e-03	1.817300e-03	6.844989e-04	7.478700e-04	5.349551e-04	4.464641e-04
0.00419511    	3.850925e-03	1.813510e-03	6.851711e-04	7.475598e-04	5.348480e-04	4.460487e-04
0.00421735    	3.767784e-03	1.809649e-03	6.857080e-04	7.472550e-04	5.347111e-04	4.456470e-04
0.0042396     	3.708351e-03	1.805989e-03	6.860355e-04	7.469524e-04	5.346033e-04	4.452830e-04
0.00426184    	3.646948e-03	1.802606e-03	6.861886e-04	7.466460e-04	5.344889e-04	4.449293e-04
0.00428408    	3.576803e-03	1.800055e-03	6.861320e-04	7.463368e-04	5.343797e-04	4.445850e-04
0.00430632    	3.497967e-03	1.799851e-03	6.858790e-04	7.460278e-04	5.342678e-04	4.442672e-04
0.00432856    	3.417375e-03	1.800311e-03	6.854771e-04	7.457035e-04	5.341584e-04	4.439707e-04
0.0043508     	3.328220e-03	1.800927e-03	6.849684e-04	7.453782e-04	5.340503e-04	4.436742e-04
0.00437304    	3.242259e-03	1.801674e-03	6.844103e-04	7.450556e-04	5.339247e-04	4.433601e-04
0.00439528    	3.141440e-03	1.802570e-03	6.837712e-04	7.447333e-04	5.337669e-04	4.430485e-04
0.00441752    	3.059127e-03	1.803597e-03	6.830265e-04	7.444017e-04	5.336308e-04	4.427340e-04
0.00443968    	2.940556e-03	1.797558e-03	6.795041e-04	7.411319e-04	5.313689e-04	4.406414e-04
0.00446183    	2.838378e-03	1.798760e-03	6.786902e-04	7.408262e-04	5.312186e-04	4.403134e-04
0.00448398    	2.740779e-03	1.799856e-03	6.778994e-04	7.405160e-04	5.310716e-04	4.399822e-04
0.00450613    	2.649625e-03	1.800679e-03	6.771828e-04	7.402161e-04	5.309146e-04	4.396480e-04
0.00452829    	2.541609e-03	1.801136e-03	6.766079e-04	7.399360e-04	5.307622e-04	4.393670e-04
0.00455044    	2.441486e-03	1.801319e-03	6.761872e-04	7.396641e-04	5.306058e-04	4.390980e-04
0.00457259    	2.345270e-03	1.801163e-03	6.759174e-04	7.393959e-04	5.304651e-04	4.388467e-04
0.00459474    	2.243165e-03	1.800551e-03	6.757522e-04	7.391301e-04	5.303373e-04	4.385992e-04
0.0046169     	2.142461e-03	1.799478e-03	6.757069e-04	7.388832e-04	5.302229e-04	4.383643e-04
0.00463905    	2.045554e-03	1.798003e-03	6.758633e-04	7.386483e-04	5.300937e-04	4.381208e-04
0.0046612     	1.949855e-03	1.796128e-03	6.763095e-04	7.384110e-04	5.299500e-04	4.379379e-04
0.00468336    	1.870551e-03	1.793928e-03	6.771617e-04	7.381809e-04	5.298210e-04	4.377386e-04
0.00470551    	1.778360e-03	1.791320e-03	6.783477e-04	7.379551e-04	5.297062e-04	4.375298e-04
0.00472766    	1.696476e-03	1.788575e-03	6.797443e-04	7.377271e-04	5.295759e-04	4.373176e-04
0.00474981    	1.608112e-03	1.785813e-03	6.812835e-04	7.374865e-04	5.294344e-04	4.371050e-04
0.00477197    	1.537005e-03	1.782940e-03	6.828867e-04	7.372629e-04	5.293044e-04	4.369159e-04
0.00479412    	1.454690e-03	1.780142e-03	6.844939e-04	7.370712e-04	5.291737e-04	4.367006e-04
0.00481627    	1.375800e-03	1.777456e-03	6.860392e-04	7.368789e-04	5.290415e-04	4.364562e-04
0.00483842    	1.307224e-03	1.775076e-03	6.875222e-04	7.366933e-04	5.289086e-04	4.362066e-04
0.00486058    	1.240202e-03	1.773041e-03	6.889632e-04	7.365163e-04	5.287832e-04	4.359558e-04
0.00488273    	1.173820e-03	1.771530e-03	6.903370e-04	7.363259e-04	5.286570e-04	4.357023e-04
0.00490488    	1.109039e-03	1.770912e-03	6.916133e-04	7.361250e-04	5.285427e-04	4.354234e-04
0.00492703    	1.043751e-03	1.771479e-03	6.927931e-04	7.359293e-04	5.284365e-04	4.351450e-04
0.00494919    	9.848667e-04	1.772380e-03	6.938665e-04	7.357205e-04	5.283432e-04	4.348528e-04
0.00497134    	9.308953e-04	1.773483e-03	6.948090e-04	7.355362e-04	5.282241e-04	4.345424e-04
0.00499349    	8.696926e-04	1.774625e-03	6.956079e-04	7.353686e-04	5.281005e-04	4.342285e-04
0.00501565    	8.225455e-04	1.775699e-03	6.962432e-04	7.352108e-04	5.279844e-04	4.339177e-04
0.0050378     	7.845579e-04	1.776783e-03	6.967196e-04	7.350383e-04	5.278528e-04	4.335905e-04
0.00505995    	7.406869e-04	1.777798e-03	6.970522e-04	7.348611e-04	5.277110e-04	4.332808e-04
0.0050821     	7.006675e-04	1.778714e-03	6.972656e-04	7.346793e-04	5.275833e-04	4.329621e-04
0.00510426    	6.604176e-04	1.779515e-03	6.973919e-04	7.345010e-04	5.274637e-04	4.326437e-04
0.00512641    	6.240771e-04	1.780092e-03	6.974052e-04	7.343282e-04	5.273435e-04	4.323209e-04
0.00514856    	6.068688e-04	1.780522e-03	6.973225e-04	7.341468e-04	5.272029e-04	4.320431e-04
0.00517071    	5.988008e-04	1.780727e-03	6.971274e-04	7.339670e-04	5.270622e-04	4.318009e-04
0.00519287    	6.040890e-04	1.780724e-03	6.968528e-04	7.338003e-04	5.269358e-04	4.316002e-04
0.00521502    	6.018796e-04	1.780485e-03	6.965217e-04	7.336222e-04	5.268260e-04	4.314020e-04
0.00523717    	6.116977e-04	1.780170e-03	6.961068e-04	7.334521e-04	5.267393e-04	4.312231e-04
0.00525933    	6.226150e-04	1.779519e-03	6.956548e-04	7.332593e-04	5.266400e-04	4.310685e-04
0.00528148    	6.456051e-04	1.778608e-03	6.951620e-04	7.330635e-04	5.265149e-04	4.309362e-04
0.00530363    	6.535807e-04	1.777454e-03	6.945911e-04	7.328847e-04	5.263971e-04	4.307987e-04
0.00532568    	6.719816e-04	1.767958e-03	6.907442e-04	7.292668e-04	5.238310e-04	4.286551e-04
0.00534773    	6.792920e-04	1.766626e-03	6.901846e-04	7.290776e-04	5.237271e-04	4.285382e-04
0.00536978    	6.929719e-04	1.765220e-03	6.896432e-04	7.288702e-04	5.236174e-04	4.284347e-04
0.00539183    	7.075390e-04	1.763550e-03	6.891267e-04	7.286575e-04	5.234991e-04	4.283147e-04
0.00541387    	7.236894e-04	1.761991e-03	6.886244e-04	7.284394e-04	5.233931e-04	4.281913e-04
0.00543592    	7.305201e-04	1.760502e-03	6.881436e-04	7.282326e-04	5.232948e-04	4.280834e-04
0.00545797    	7.391442e-04	1.759936e-03	6.876958e-04	7.280247e-04	5.232063e-04	4.279977e-04
0.00548002    	7.367019e-04	1.759990e-03	6.872540e-04	7.278292e-04	5.231263e-04	4.278796e-04
0.00550207    	7.336433e-04	1.760798e-03	6.868136e-04	7.276346e-04	5.230353e-04	4.277608e-04
0.00552412    	7.286852e-04	1.761683e-03	6.863825e-04	7.274233e-04	5.229226e-04	4.276218e-04
0.00554617    	7.277896e-04	1.762950e-03	6.859552e-04	7.272376e-04	5.228177e-04	4.274670e-04
0.00556821    	7.278112e-04	1.764169e-03	6.855548e-04	7.270463e-04	5.227007e-04	4.273086e-04
0.00559026    	7.308946e-04	1.765369e-03	6.851918e-04	7.268398e-04	5.225855e-04	4.271694e-04
0.00561231    	7.147442e-04	1.766247e-03	6.848398e-04	7.266339e-04	5.224533e-04	4.270215e-04
0.00563436    	7.000261e-04	1.767235e-03	6.845222e-04	7.264430e-04	5.223074e-04	4.268610e-04
0.00565641    	6.920663e-04	1.768263e-03	6.842074e-04	7.262561e-04	5.221487e-04	4.267239e-04
0.00567846    	6.908374e-04	1.769135e-03	6.839051e-04	7.261010e-04	5.220075e-04	4.265873e-04
0.00570051    	6.809200e-04	1.769855e-03	6.836257e-04	7.259528e-04	5.218410e-04	4.264481e-04
0.00572256    	6.725056e-04	1.770541e-03	6.833406e-04	7.258050e-04	5.216725e-04	4.263133e-04
0.0057446     	6.683908e-04	1.771192e-03	6.830718e-04	7.256601e-04	5.214982e-04	4.261938e-04
0.00576665    	6.576363e-04	1.771678e-03	6.828103e-04	7.255153e-04	5.213288e-04	4.260943e-04
0.0057887     	6.365116e-04	1.771853e-03	6.825170e-04	7.253768e-04	5.211850e-04	4.259858e-04
0.00581075    	6.306507e-04	1.772134e-03	6.821938e-04	7.252511e-04	5.210266e-04	4.258677e-04
0.0058328     	6.318575e-04	1.772324e-03	6.818484e-04	7.251387e-04	5.208395e-04	4.257785e-04
0.00585485    	6.311312e-04	1.772423e-03	6.814578e-04	7.250331e-04	5.206500e-04	4.256681e-04
0.0058769     	6.394337e-04	1.772591e-03	6.810766e-04	7.249078e-04	5.204456e-04	4.255743e-04
0.00589895    	6.376547e-04	1.772445e-03	6.807246e-04	7.247803e-04	5.202265e-04	4.254881e-04
0.00592099    	6.370969e-04	1.772130e-03	6.804070e-04	7.246373e-04	5.200155e-04	4.253938e-04
0.00594304    	6.451937e-04	1.771953e-03	6.801393e-04	7.244963e-04	5.198376e-04	4.252751e-04
0.00596509    	6.603599e-04	1.771950e-03	6.800691e-04	7.243515e-04	5.196594e-04	4.251588e-04
0.00598714    	6.732067e-04	1.771716e-03	6.801403e-04	7.241924e-04	5.194700e-04	4.250770e-04
0.00600919    	6.933051e-04	1.771228e-03	6.802625e-04	7.240252e-04	5.192786e-04	4.250014e-04
0.00603124    	7.025243e-04	1.770897e-03	6.803964e-04	7.238479e-04	5.190773e-04	4.249213e-04
0.00605329    	7.064793e-04	1.770708e-03	6.805314e-04	7.236625e-04	5.188780e-04	4.248462e-04
0.00607533    	7.217143e-04	1.770605e-03	6.806866e-04	7.234840e-04	5.186952e-04	4.247660e-04
0.00609738    	7.245012e-04	1.770720e-03	6.808468e-04	7.233111e-04	5.185235e-04	4.246903e-04
0.00611943    	7.426398e-04	1.770822e-03	6.810076e-04	7.231188e-04	5.183567e-04	4.246025e-04
0.00614148    	7.361981e-04	1.771175e-03	6.811959e-04	7.229369e-04	5.181971e-04	4.245085e-04
0.00616353    	7.379092e-04	1.771960e-03	6.814749e-04	7.227420e-04	5.180505e-04	4.243964e-04
0.00618558    	7.371087e-04	1.773051e-03	6.817938e-04	7.225346e-04	5.178936e-04	4.242894e-04
0.00620763    	7.362392e-04	1.774066e-03	6.820583e-04	7.223462e-04	5.177360e-04	4.241843e-04
0.00622968    	7.332211e-04	1.775196e-03	6.822594e-04	7.221554e-04	5.176040e-04	4.240817e-04
0.00625172    	7.402327e-04	1.776173e-03	6.824171e-04	7.219533e-04	5.174745e-04	4.239770e-04
0.00627377    	7.457030e-04	1.777087e-03	6.825129e-04	7.217531e-04	5.173422e-04	4.238724e-04
0.00629582    	7.478328e-04	1.777850e-03	6.825401e-04	7.215517e-04	5.172083e-04	4.237700e-04
0.00631787    	7.602169e-04	1.778520e-03	6.825421e-04	7.213447e-04	5.170739e-04	4.236722e-04
0.00633992    	7.700484e-04	1.779065e-03	6.825424e-04	7.211459e-04	5.169389e-04	4.235903e-04
0.00636197    	7.791618e-04	1.779503e-03	6.825092e-04	7.209688e-04	5.168137e-04	4.235060e-04
0.00638402    	7.979234e-04	1.779942e-03	6.824611e-04	7.207943e-04	5.166828e-04	4.234199e-04
0.00640606    	8.099143e-04	1.780257e-03	6.824350e-04	7.206253e-04	5.165416e-04	4.233323e-04
0.00642811    	8.159931e-04	1.780367e-03	6.824311e-04	7.204525e-04	5.164069e-04	4.232437e-04
0.00645016    	8.226669e-04	1.780414e-03	6.824192e-04	7.202701e-04	5.162612e-04	4.231295e-04
0.00647221    	8.324389e-04	1.780375e-03	6.824018e-04	7.200934e-04	5.161223e-04	4.230351e-04
0.00649426    	8.451508e-04	1.780099e-03	6.823766e-04	7.199276e-04	5.160043e-04	4.229423e-04
0.00651631    	8.503370e-04	1.779820e-03	6.823106e-04	7.197719e-04	5.158820e-04	4.228556e-04
0.00653836    	8.626973e-04	1.779507e-03	6.821957e-04	7.196303e-04	5.157449e-04	4.227601e-04
0.00656041    	8.828148e-04	1.779238e-03	6.821125e-04	7.194774e-04	5.156071e-04	4.226955e-04
0.00658245    	8.975700e-04	1.778525e-03	6.819857e-04	7.193174e-04	5.154508e-04	4.226119e-04
0.0066045     	8.967405e-04	1.778343e-03	6.818098e-04	7.191800e-04	5.152970e-04	4.225225e-04
0.00662655    	9.041276e-04	1.778242e-03	6.816048e-04	7.190501e-04	5.151449e-04	4.224152e-04
0.0066486     	9.162709e-04	1.778507e-03	6.814104e-04	7.189078e-04	5.149959e-04	4.223169e-04
0.00667065    	9.139110e-04	1.778728e-03	6.812526e-04	7.187641e-04	5.148313e-04	4.222179e-04
0.0066927     	9.119039e-04	1.779249e-03	6.811353e-04	7.186409e-04	5.146663e-04	4.221405e-04
0.00671475    	9.057223e-04	1.779809e-03	6.809418e-04	7.185311e-04	5.144895e-04	4.220004e-04
0.00673679    	8.900748e-04	1.781266e-03	6.807518e-04	7.184189e-04	5.143395e-04	4.218529e-04
0.00675884    	8.793747e-04	1.782573e-03	6.806552e-04	7.182889e-04	5.141778e-04	4.217096e-04
0.00678089    	8.685792e-04	1.783813e-03	6.806225e-04	7.181727e-04	5.140309e-04	4.215838e-04
0.00680294    	8.625522e-04	1.785025e-03	6.805660e-04	7.180491e-04	5.138869e-04	4.214587e-04
0.00682499    	8.472208e-04	1.786447e-03	6.804917e-04	7.179208e-04	5.137205e-04	4.213438e-04
0.00684704    	8.310392e-04	1.787848e-03	6.803723e-04	7.177873e-04	5.135741e-04	4.212326e-04
0.00686909    	8.072164e-04	1.789576e-03	6.802177e-04	7.176556e-04	5.134113e-04	4.211199e-04
0.00689114    	7.925862e-04	1.791338e-03	6.800347e-04	7.175246e-04	5.132370e-04	4.209992e-04
0.00691318    	7.697826e-04	1.793134e-03	6.798629e-04	7.173926e-04	5.130597e-04	4.208892e-04
0.00693523    	7.535202e-04	1.794854e-03	6.796954e-04	7.172711e-04	5.128841e-04	4.207851e-04
0.00695728    	7.401955e-04	1.796567e-03	6.795412e-04	7.171337e-04	5.127116e-04	4.206932e-04
0.00697933    	7.172808e-04	1.798180e-03	6.794025e-04	7.169856e-04	5.125383e-04	4.206040e-04
0.00700138    	7.062494e-04	1.799639e-03	6.792550e-04	7.168216e-04	5.123406e-04	4.205199e-04
0.00702343    	7.018098e-04	1.801015e-03	6.791187e-04	7.166772e-04	5.121547e-04	4.204544e-04
0.00704548    	7.048999e-04	1.802100e-03	6.789232e-04	7.165573e-04	5.119647e-04	4.203725e-04
0.00706753    	7.017814e-04	1.803554e-03	6.787110e-04	7.164354e-04	5.117990e-04	4.202958e-04