# Residuals   
# Time        	p             	Ux            	Uy            	k             	epsilon       	T             
0             	N/A	N/A	N/A	N/A	N/A
1.19904e-05   	1.000000e+00	1.000000e+00	1.000000e+00	1.000000e+00	9.277014e-03	N/A
2.63616e-05   	1.715127e-01	2.828333e-01	8.551073e-02	6.992800e-02	9.109346e-03	N/A
4.35873e-05   	1.157784e-01	2.080702e-01	8.268672e-02	3.139635e-02	1.085471e-02	N/A
6.42437e-05   	1.017296e-01	1.571121e-01	9.060975e-02	1.985696e-02	1.021003e-02	N/A
8.90212e-05   	9.730500e-02	1.201841e-01	9.617683e-02	1.449596e-02	9.818124e-03	N/A
0.000118695   	9.412476e-02	9.833868e-02	9.535294e-02	1.140795e-02	8.517387e-03	N/A
0.000154239   	9.060617e-02	1.095190e-01	9.045774e-02	1.007693e-02	7.841441e-03	N/A
0.000196861   	1.012950e-01	1.178576e-01	8.383675e-02	9.390513e-03	7.618659e-03	N/A
0.000247919   	1.042838e-01	9.930627e-02	7.760685e-02	8.988072e-03	7.617991e-03	N/A
0.00030887    	1.029908e-01	7.245566e-02	7.248124e-02	8.586306e-03	7.476700e-03	N/A
0.000381736   	1.064741e-01	5.288011e-02	6.942254e-02	8.285206e-03	7.287838e-03	N/A
0.000469174   	1.076235e-01	4.646251e-02	6.736460e-02	8.028662e-03	7.211633e-03	N/A
0.000573909   	1.018597e-01	6.737856e-02	6.680698e-02	7.791137e-03	7.098756e-03	N/A
0.000697936   	9.424778e-02	9.117536e-02	6.700695e-02	7.595152e-03	7.014664e-03	N/A
0.000841045   	8.812135e-02	1.257849e-01	6.800927e-02	7.585305e-03	7.148041e-03	N/A
0.00100173    	8.704379e-02	1.496572e-01	7.068040e-02	8.130712e-03	7.958903e-03	N/A
0.00113406    	6.868329e-02	1.123521e-01	5.851980e-02	7.022435e-03	6.942678e-03	N/A
0.0012492     	5.919716e-02	7.637226e-02	5.246915e-02	6.332885e-03	6.098021e-03	N/A
0.00135215    	5.369835e-02	5.107643e-02	4.919067e-02	5.795932e-03	5.192379e-03	N/A
0.00145155    	5.323983e-02	3.635145e-02	5.014669e-02	5.699664e-03	4.792123e-03	N/A
0.00154869    	5.396404e-02	2.621503e-02	5.273102e-02	5.557485e-03	4.558430e-03	N/A
0.00164696    	5.698577e-02	1.993455e-02	5.733046e-02	5.448045e-03	4.501261e-03	N/A
0.0017476     	6.124633e-02	1.617707e-02	6.312140e-02	5.309736e-03	4.482691e-03	N/A
0.00185076    	6.612779e-02	1.416735e-02	6.957809e-02	5.158372e-03	4.416365e-03	N/A
0.00195659    	7.153416e-02	1.329030e-02	7.652675e-02	4.994627e-03	4.377390e-03	N/A
0.00206384    	7.620279e-02	1.283627e-02	8.267611e-02	4.815795e-03	4.284125e-03	N/A
0.00217255    	8.051829e-02	1.250568e-02	8.820846e-02	4.653470e-03	4.183689e-03	N/A
0.0022828     	8.510214e-02	1.212262e-02	9.144434e-02	4.509800e-03	4.061117e-03	N/A
0.00239304    	8.764082e-02	1.151020e-02	8.773620e-02	4.340354e-03	3.910768e-03	N/A
0.00250329    	8.775449e-02	1.086126e-02	7.995637e-02	4.180238e-03	3.761490e-03	N/A
0.00261353    	8.537129e-02	1.023563e-02	7.005016e-02	4.044678e-03	3.624114e-03	N/A
0.00272378    	8.119887e-02	9.628700e-03	5.954864e-02	3.908971e-03	3.494614e-03	N/A
0.00283572    	7.768499e-02	9.156941e-03	5.035695e-02	3.833001e-03	3.428087e-03	N/A
0.00294766    	7.392162e-02	8.643648e-03	4.115714e-02	3.704819e-03	3.324723e-03	N/A
0.0030596     	7.117481e-02	8.184376e-03	3.315205e-02	3.587207e-03	3.234662e-03	N/A
0.00317338    	7.064377e-02	7.872802e-03	2.681601e-02	3.523374e-03	3.190133e-03	N/A
0.00328716    	7.056033e-02	7.540687e-03	2.134522e-02	3.413323e-03	3.108948e-03	N/A
0.00340094    	7.231822e-02	7.239664e-03	1.710821e-02	3.307686e-03	3.028034e-03	N/A
0.00351671    	7.625913e-02	7.096404e-03	1.438408e-02	3.248199e-03	2.994221e-03	N/A
0.00363248    	7.887527e-02	6.872678e-03	1.213844e-02	3.149523e-03	2.925280e-03	N/A
0.00374825    	8.114264e-02	6.689438e-03	1.031562e-02	3.052874e-03	2.842005e-03	N/A
0.00386621    	8.463601e-02	6.604844e-03	8.916489e-03	3.003819e-03	2.791874e-03	N/A
0.00398417    	8.775533e-02	6.422227e-03	7.573274e-03	2.914525e-03	2.710681e-03	N/A
0.00410213    	9.259200e-02	6.276008e-03	6.424526e-03	2.827076e-03	2.615955e-03	N/A
0.00422008    	9.945511e-02	6.100158e-03	5.430956e-03	2.746612e-03	2.530920e-03	N/A
0.00433804    	1.084191e-01	5.941798e-03	4.573375e-03	2.666305e-03	2.451513e-03	N/A
0.004456      	1.191898e-01	5.806638e-03	3.846050e-03	2.592548e-03	2.372536e-03	N/A
0.00457396    	1.315045e-01	5.655744e-03	3.248223e-03	2.525334e-03	2.300226e-03	N/A
0.00469454    	1.462927e-01	5.610669e-03	2.917948e-03	2.500570e-03	2.274146e-03	N/A
0.00481511    	1.579852e-01	5.490538e-03	2.816033e-03	2.438574e-03	2.203106e-03	N/A
0.00493569    	1.689277e-01	5.366882e-03	2.771178e-03	2.379176e-03	2.142412e-03	N/A
0.00505627    	1.791264e-01	5.272596e-03	2.740028e-03	2.320155e-03	2.081856e-03	N/A
0.00517685    	1.885483e-01	5.172267e-03	2.700123e-03	2.271061e-03	2.019690e-03	N/A
0.00529743    	1.968376e-01	5.071525e-03	2.643077e-03	2.223079e-03	1.967186e-03	N/A
0.00541801    	2.037732e-01	4.992675e-03	2.575981e-03	2.175994e-03	1.914607e-03	N/A
0.00553859    	2.091207e-01	4.904755e-03	2.516117e-03	2.137482e-03	1.867131e-03	N/A
0.00565917    	2.125628e-01	4.817097e-03	2.465168e-03	2.101332e-03	1.815555e-03	N/A
0.00577974    	2.139477e-01	4.742569e-03	2.427094e-03	2.064429e-03	1.767454e-03	N/A
0.00590032    	2.133487e-01	4.657221e-03	2.407628e-03	2.031596e-03	1.733655e-03	N/A
0.00602456    	2.154531e-01	4.661989e-03	2.457812e-03	2.049420e-03	1.735529e-03	N/A
0.00614879    	2.113933e-01	4.589334e-03	2.448148e-03	2.019714e-03	1.690573e-03	N/A
0.00627302    	2.062934e-01	4.513818e-03	2.434558e-03	1.992404e-03	1.652958e-03	N/A
0.00639725    	2.007938e-01	4.438046e-03	2.412494e-03	1.968311e-03	1.618853e-03	N/A
0.00652149    	1.951233e-01	4.373620e-03	2.383433e-03	1.943411e-03	1.583036e-03	N/A
0.00664572    	1.896274e-01	4.309466e-03	2.347113e-03	1.917780e-03	1.545976e-03	N/A
0.00676995    	1.844711e-01	4.242315e-03	2.303900e-03	1.897838e-03	1.513163e-03	N/A
0.00689418    	1.795606e-01	4.187018e-03	2.253312e-03	1.877225e-03	1.484036e-03	N/A
0.00701842    	1.751750e-01	4.132934e-03	2.198625e-03	1.855812e-03	1.448734e-03	N/A
0.00714265    	1.713061e-01	4.073325e-03	2.142326e-03	1.836738e-03	1.418031e-03	N/A
0.00726688    	1.680261e-01	4.023500e-03	2.085782e-03	1.819079e-03	1.390115e-03	N/A
0.00739111    	1.653699e-01	3.974055e-03	2.030283e-03	1.799932e-03	1.361129e-03	N/A
0.00751535    	1.632061e-01	3.921640e-03	1.978454e-03	1.782672e-03	1.335955e-03	N/A
0.00763958    	1.613151e-01	3.870375e-03	1.930723e-03	1.767746e-03	1.315369e-03	N/A
0.00776381    	1.598556e-01	3.825321e-03	1.884237e-03	1.751971e-03	1.292799e-03	N/A
0.00788805    	1.586472e-01	3.779485e-03	1.841922e-03	1.734670e-03	1.268637e-03	N/A
0.00801228    	1.577312e-01	3.731460e-03	1.804031e-03	1.720731e-03	1.245445e-03	N/A
0.00813651    	1.570624e-01	3.692067e-03	1.770753e-03	1.707365e-03	1.228256e-03	N/A
0.00826074    	1.565899e-01	3.650885e-03	1.741884e-03	1.692021e-03	1.209668e-03	N/A
0.00838498    	1.563168e-01	3.608103e-03	1.717094e-03	1.677500e-03	1.189224e-03	N/A
0.00850921    	1.560157e-01	3.566458e-03	1.696333e-03	1.664444e-03	1.170543e-03	N/A
0.00863344    	1.558140e-01	3.530942e-03	1.678126e-03	1.651787e-03	1.155559e-03	N/A
0.00875767    	1.556512e-01	3.492756e-03	1.662125e-03	1.637249e-03	1.141255e-03	N/A
0.00888191    	1.555272e-01	3.452192e-03	1.647871e-03	1.623883e-03	1.125168e-03	N/A
0.00900614    	1.554039e-01	3.415968e-03	1.634307e-03	1.611890e-03	1.107467e-03	N/A
0.00913037    	1.553555e-01	3.380128e-03	1.621976e-03	1.599402e-03	1.095192e-03	N/A
0.0092546     	1.552247e-01	3.341855e-03	1.611993e-03	1.586908e-03	1.083011e-03	N/A
0.00937884    	1.549471e-01	3.302784e-03	1.599688e-03	1.574956e-03	1.067863e-03	N/A
0.00950307    	1.546743e-01	3.271367e-03	1.586924e-03	1.563473e-03	1.054067e-03	N/A
0.0096273     	1.544089e-01	3.239683e-03	1.574661e-03	1.552054e-03	1.040204e-03	N/A
0.00975153    	1.540746e-01	3.204373e-03	1.563113e-03	1.539900e-03	1.030276e-03	N/A
0.00987577    	1.537579e-01	3.168248e-03	1.552558e-03	1.529426e-03	1.021466e-03	N/A
0.01          	1.534146e-01	3.139915e-03	1.543103e-03	1.518489e-03	1.008109e-03	N/A
0.010125      	1.537576e-01	3.122930e-03	1.540756e-03	1.514768e-03	9.973294e-04	N/A
0.01025       	1.533528e-01	3.090322e-03	1.531217e-03	1.503383e-03	9.865545e-04	N/A
0.010375      	1.528579e-01	3.054731e-03	1.521827e-03	1.493018e-03	9.770555e-04	N/A
0.0105        	1.524082e-01	3.025725e-03	1.512499e-03	1.482313e-03	9.704833e-04	N/A
0.010625      	1.518909e-01	2.998901e-03	1.503521e-03	1.472635e-03	9.552173e-04	N/A
0.01075       	1.513930e-01	2.967518e-03	1.496098e-03	1.461251e-03	9.441870e-04	N/A
0.010875      	1.509052e-01	2.934405e-03	1.486894e-03	1.450515e-03	9.322417e-04	N/A
0.011         	1.503599e-01	2.904576e-03	1.476408e-03	1.440684e-03	9.268640e-04	N/A
0.011125      	1.498328e-01	2.880319e-03	1.465727e-03	1.430037e-03	9.146343e-04	N/A
0.01125       	1.493325e-01	2.854278e-03	1.455340e-03	1.420330e-03	9.040439e-04	N/A
0.011375      	1.487465e-01	2.824816e-03	1.445205e-03	1.410346e-03	8.924789e-04	N/A
0.0115        	1.481662e-01	2.794614e-03	1.435906e-03	1.400980e-03	8.816154e-04	N/A
0.011625      	1.475937e-01	2.770548e-03	1.427371e-03	1.390878e-03	8.866167e-04	N/A
0.01175       	1.469548e-01	2.746280e-03	1.418817e-03	1.381450e-03	8.669308e-04	N/A
0.011875      	1.463546e-01	2.720139e-03	1.410244e-03	1.371476e-03	8.617012e-04	N/A
0.012         	1.457573e-01	2.691321e-03	1.401594e-03	1.362036e-03	8.507344e-04	N/A
0.012125      	1.451323e-01	2.665317e-03	1.393185e-03	1.353508e-03	8.438346e-04	N/A
0.01225       	1.445735e-01	2.641562e-03	1.386900e-03	1.344457e-03	8.319071e-04	N/A
0.012375      	1.439813e-01	2.618760e-03	1.378593e-03	1.335374e-03	8.239053e-04	N/A
0.0125        	1.433865e-01	2.594120e-03	1.369416e-03	1.326400e-03	8.156658e-04	N/A
0.012625      	1.427986e-01	2.568027e-03	1.360138e-03	1.317294e-03	8.124335e-04	N/A
0.01275       	1.422058e-01	2.545798e-03	1.351257e-03	1.309210e-03	8.021090e-04	N/A
0.012875      	1.416047e-01	2.523916e-03	1.343110e-03	1.300858e-03	7.946671e-04	N/A
0.013         	1.409931e-01	2.501196e-03	1.335481e-03	1.292587e-03	7.856835e-04	N/A
0.013125      	1.403845e-01	2.477605e-03	1.328120e-03	1.284239e-03	7.789808e-04	N/A
0.01325       	1.397873e-01	2.453746e-03	1.320816e-03	1.276147e-03	7.706608e-04	N/A
0.013375      	1.391955e-01	2.433662e-03	1.313817e-03	1.268356e-03	7.661947e-04	N/A
0.0135        	1.386423e-01	2.412928e-03	1.306828e-03	1.262773e-03	7.647788e-04	N/A
0.013625      	1.380986e-01	2.389925e-03	1.301290e-03	1.255879e-03	7.584318e-04	N/A
0.01375       	1.375140e-01	2.366108e-03	1.294768e-03	1.248208e-03	7.530263e-04	N/A
0.013875      	1.369465e-01	2.343851e-03	1.287145e-03	1.240249e-03	7.481470e-04	N/A
0.014         	1.363701e-01	2.324330e-03	1.279684e-03	1.233518e-03	7.434412e-04	N/A
0.014125      	1.358038e-01	2.304870e-03	1.272151e-03	1.227514e-03	7.381364e-04	N/A
0.01425       	1.352447e-01	2.284131e-03	1.265453e-03	1.220139e-03	7.324929e-04	N/A
0.014375      	1.346593e-01	2.262647e-03	1.258965e-03	1.212115e-03	7.251612e-04	N/A
0.0145        	1.340523e-01	2.242366e-03	1.252840e-03	1.204279e-03	7.199520e-04	N/A
0.014625      	1.334813e-01	2.223976e-03	1.247504e-03	1.197800e-03	7.156274e-04	N/A
0.01475       	1.329347e-01	2.205718e-03	1.241562e-03	1.191502e-03	7.106677e-04	N/A
0.014875      	1.323813e-01	2.186072e-03	1.235680e-03	1.184680e-03	7.026792e-04	N/A
0.015         	1.318097e-01	2.164666e-03	1.230840e-03	1.178118e-03	6.989438e-04	N/A
0.015125      	1.312341e-01	2.145082e-03	1.224329e-03	1.170993e-03	6.911017e-04	N/A
0.01525       	1.306656e-01	2.127837e-03	1.217446e-03	1.164137e-03	6.866191e-04	N/A
0.015375      	1.301176e-01	2.111694e-03	1.211117e-03	1.157741e-03	6.825382e-04	N/A
0.0155        	1.295204e-01	2.094146e-03	1.204646e-03	1.151141e-03	6.784804e-04	N/A
0.015625      	1.289488e-01	2.075484e-03	1.198470e-03	1.144994e-03	6.701927e-04	N/A
0.01575       	1.284005e-01	2.056613e-03	1.192784e-03	1.138985e-03	6.685751e-04	N/A
0.015875      	1.278405e-01	2.039514e-03	1.187066e-03	1.133482e-03	6.608857e-04	N/A
0.016         	1.272928e-01	2.023802e-03	1.181492e-03	1.127514e-03	6.559761e-04	N/A
0.016125      	1.267696e-01	2.007284e-03	1.176137e-03	1.121125e-03	6.535835e-04	N/A
0.01625       	1.262445e-01	1.989622e-03	1.171736e-03	1.115395e-03	6.516318e-04	N/A
0.016375      	1.256747e-01	1.972183e-03	1.165871e-03	1.109103e-03	6.472101e-04	N/A
0.0165        	1.251122e-01	1.955892e-03	1.159700e-03	1.102633e-03	6.436326e-04	N/A
0.016625      	1.245763e-01	1.940423e-03	1.153722e-03	1.097600e-03	6.357742e-04	N/A
0.01675       	1.240370e-01	1.925342e-03	1.148213e-03	1.092610e-03	6.371337e-04	N/A
0.016875      	1.234662e-01	1.909466e-03	1.142659e-03	1.086807e-03	6.324390e-04	N/A
0.017         	1.229335e-01	1.894089e-03	1.137298e-03	1.081459e-03	6.247209e-04	N/A
0.017125      	1.224272e-01	1.878386e-03	1.132058e-03	1.076117e-03	6.251432e-04	N/A
0.01725       	1.218392e-01	1.861965e-03	1.127218e-03	1.070955e-03	6.197171e-04	N/A
0.017375      	1.212838e-01	1.846632e-03	1.122112e-03	1.065850e-03	6.173744e-04	N/A
0.0175        	1.207767e-01	1.832659e-03	1.117285e-03	1.060618e-03	6.111037e-04	N/A
0.017625      	1.202453e-01	1.818576e-03	1.111735e-03	1.055077e-03	6.103443e-04	N/A
0.01775       	1.197266e-01	1.803654e-03	1.106215e-03	1.049347e-03	6.061058e-04	N/A
0.017875      	1.191808e-01	1.788739e-03	1.101162e-03	1.044528e-03	6.069558e-04	N/A
0.018         	1.186769e-01	1.774701e-03	1.095895e-03	1.040285e-03	6.000336e-04	N/A
0.018125      	1.181466e-01	1.761360e-03	1.090869e-03	1.035541e-03	5.974887e-04	N/A
0.01825       	1.178283e-01	1.748242e-03	1.086210e-03	1.031216e-03	5.956351e-04	N/A
0.018375      	1.171606e-01	1.734055e-03	1.081711e-03	1.026694e-03	5.952138e-04	N/A
0.0185        	1.166581e-01	1.719568e-03	1.077508e-03	1.022280e-03	5.928397e-04	N/A
0.018625      	1.164074e-01	1.705596e-03	1.073360e-03	1.018139e-03	5.922372e-04	N/A
0.01875       	1.157100e-01	1.692228e-03	1.068539e-03	1.013119e-03	5.886860e-04	N/A
0.018875      	1.152202e-01	1.679426e-03	1.063816e-03	1.008727e-03	5.853298e-04	N/A
0.019         	1.147377e-01	1.667184e-03	1.059157e-03	1.003973e-03	5.846751e-04	N/A
0.019125      	1.142620e-01	1.654449e-03	1.054903e-03	1.000143e-03	5.823238e-04	N/A
0.01925       	1.138170e-01	1.641250e-03	1.050450e-03	9.960768e-04	5.782351e-04	N/A
0.019375      	1.133555e-01	1.628137e-03	1.045959e-03	9.924142e-04	5.758207e-04	N/A
0.0195        	1.128530e-01	1.615384e-03	1.041556e-03	9.881785e-04	5.740265e-04	N/A
0.019625      	1.123790e-01	1.602899e-03	1.037305e-03	9.838885e-04	5.697200e-04	N/A
0.01975       	1.119334e-01	1.591091e-03	1.033329e-03	9.800226e-04	5.695627e-04	N/A
0.019875      	1.114640e-01	1.579189e-03	1.028877e-03	9.758268e-04	5.693565e-04	N/A
0.02          	1.109980e-01	1.566756e-03	1.024413e-03	9.720183e-04	5.658081e-04	N/A
0.0201266     	1.116487e-01	1.567502e-03	1.029968e-03	9.780032e-04	5.683806e-04	N/A
0.0202532     	1.111469e-01	1.555650e-03	1.025577e-03	9.740604e-04	5.662246e-04	N/A
0.0203797     	1.106600e-01	1.543988e-03	1.021331e-03	9.704203e-04	5.630946e-04	N/A
0.0205063     	1.101988e-01	1.532720e-03	1.017432e-03	9.672230e-04	5.609852e-04	N/A
0.0206329     	1.097104e-01	1.521000e-03	1.013298e-03	9.635721e-04	5.605406e-04	N/A
0.0207595     	1.092411e-01	1.509002e-03	1.009294e-03	9.602658e-04	5.580365e-04	N/A
0.0208861     	1.087813e-01	1.497127e-03	1.005213e-03	9.567438e-04	5.553350e-04	N/A
0.0210127     	1.083292e-01	1.485935e-03	1.001050e-03	9.533355e-04	5.525188e-04	N/A
0.0211392     	1.078606e-01	1.475096e-03	9.969876e-04	9.503515e-04	5.517740e-04	N/A
0.0212658     	1.073883e-01	1.464669e-03	9.932251e-04	9.473672e-04	5.506897e-04	N/A
0.0213924     	1.069271e-01	1.454359e-03	9.892663e-04	9.444363e-04	5.470537e-04	N/A
0.021519      	1.064742e-01	1.443770e-03	9.853725e-04	9.414529e-04	5.469713e-04	N/A
0.0216456     	1.060240e-01	1.432872e-03	9.815817e-04	9.386147e-04	5.442906e-04	N/A
0.0217722     	1.055618e-01	1.421393e-03	9.777018e-04	9.354640e-04	5.425057e-04	N/A
0.0218987     	1.051132e-01	1.410792e-03	9.738872e-04	9.325829e-04	5.395359e-04	N/A
0.0220253     	1.046622e-01	1.400807e-03	9.702872e-04	9.304349e-04	5.390995e-04	N/A
0.0221519     	1.042191e-01	1.391100e-03	9.664538e-04	9.277747e-04	5.362984e-04	N/A
0.0222785     	1.037583e-01	1.381259e-03	9.626281e-04	9.250707e-04	5.350463e-04	N/A
0.0224051     	1.033055e-01	1.371445e-03	9.588942e-04	9.226459e-04	5.319624e-04	N/A
0.0225316     	1.028538e-01	1.361520e-03	9.552133e-04	9.208184e-04	5.316081e-04	N/A
0.0226582     	1.024174e-01	1.351516e-03	9.515713e-04	9.181189e-04	5.283068e-04	N/A
0.0227848     	1.019666e-01	1.341727e-03	9.481867e-04	9.161514e-04	5.277473e-04	N/A
0.0229114     	1.015187e-01	1.332272e-03	9.445898e-04	9.137829e-04	5.254256e-04	N/A
0.023038      	1.010727e-01	1.323214e-03	9.410103e-04	9.115170e-04	5.245921e-04	N/A
0.0231646     	1.006392e-01	1.314376e-03	9.374695e-04	9.092762e-04	5.214249e-04	N/A
0.0232911     	1.001858e-01	1.305338e-03	9.339156e-04	9.071429e-04	5.200434e-04	N/A
0.0234177     	9.973755e-02	1.296175e-03	9.304431e-04	9.052343e-04	5.175043e-04	N/A
0.0235443     	9.929767e-02	1.287012e-03	9.270442e-04	9.032107e-04	5.157010e-04	N/A
0.0236709     	9.886450e-02	1.278144e-03	9.238274e-04	9.015900e-04	5.153848e-04	N/A
0.0237975     	9.843303e-02	1.269416e-03	9.204129e-04	8.995806e-04	5.132139e-04	N/A
0.0239241     	9.800006e-02	1.260952e-03	9.170479e-04	8.976150e-04	5.110989e-04	N/A
0.0240506     	9.756730e-02	1.252589e-03	9.137123e-04	8.957638e-04	5.090753e-04	N/A
0.0241772     	9.715078e-02	1.244502e-03	9.104119e-04	8.939022e-04	5.070957e-04	N/A
0.0243038     	9.670966e-02	1.236182e-03	9.071360e-04	8.921970e-04	5.056631e-04	N/A
0.0244304     	9.627853e-02	1.227751e-03	9.039153e-04	8.901048e-04	5.037429e-04	N/A
0.024557      	9.585916e-02	1.219621e-03	9.009548e-04	8.891385e-04	5.035325e-04	N/A
0.0246835     	9.543530e-02	1.211643e-03	8.977429e-04	8.876001e-04	5.006361e-04	N/A
0.0248101     	9.503037e-02	1.204042e-03	8.945598e-04	8.859340e-04	4.986799e-04	N/A
0.0249367     	9.460393e-02	1.196223e-03	8.914195e-04	8.843108e-04	4.966719e-04	N/A
0.0250633     	9.419098e-02	1.188427e-03	8.882705e-04	8.823078e-04	4.956973e-04	N/A
0.0251899     	9.376747e-02	1.180763e-03	8.851455e-04	8.807778e-04	4.934000e-04	N/A
0.0253165     	9.337008e-02	1.173343e-03	8.821443e-04	8.792873e-04	4.927021e-04	N/A
0.025443      	9.295851e-02	1.165894e-03	8.793228e-04	8.783033e-04	4.927694e-04	N/A
0.0255696     	9.255329e-02	1.158516e-03	8.762895e-04	8.767967e-04	4.902053e-04	N/A
0.0256962     	9.217544e-02	1.151690e-03	8.733095e-04	8.756187e-04	4.881677e-04	N/A
0.0258228     	9.176210e-02	1.144438e-03	8.703376e-04	8.743188e-04	4.863526e-04	N/A
0.0259494     	9.136571e-02	1.137342e-03	8.674109e-04	8.727771e-04	4.847980e-04	N/A
0.0260759     	9.098078e-02	1.130358e-03	8.644848e-04	8.714623e-04	4.829839e-04	N/A
0.0262025     	9.057097e-02	1.123451e-03	8.616044e-04	8.699085e-04	4.811554e-04	N/A
0.0263291     	9.019493e-02	1.116880e-03	8.587309e-04	8.687172e-04	4.813692e-04	N/A
0.0264557     	8.981571e-02	1.110360e-03	8.560641e-04	8.678189e-04	4.807263e-04	N/A
0.0265823     	8.943382e-02	1.103775e-03	8.531152e-04	8.666237e-04	4.788734e-04	N/A
0.0267089     	8.907353e-02	1.097554e-03	8.502027e-04	8.655124e-04	4.771590e-04	N/A
0.0268354     	8.868694e-02	1.091167e-03	8.473391e-04	8.644228e-04	4.767312e-04	N/A
0.026962      	8.831162e-02	1.084968e-03	8.445105e-04	8.631111e-04	4.748019e-04	N/A
0.0270886     	8.794095e-02	1.078841e-03	8.416443e-04	8.620096e-04	4.724811e-04	N/A
0.0272152     	8.756953e-02	1.072471e-03	8.388215e-04	8.608884e-04	4.711886e-04	N/A
0.0273418     	8.720659e-02	1.066171e-03	8.359946e-04	8.597428e-04	4.697202e-04	N/A
0.0274684     	8.685978e-02	1.060206e-03	8.333937e-04	8.590770e-04	4.702880e-04	N/A
0.0275949     	8.653605e-02	1.054610e-03	8.305096e-04	8.580673e-04	4.689748e-04	N/A
0.0277215     	8.619784e-02	1.048806e-03	8.275814e-04	8.569678e-04	4.679316e-04	N/A
0.0278481     	8.590543e-02	1.043196e-03	8.247753e-04	8.560093e-04	4.672260e-04	N/A
0.0279747     	8.563567e-02	1.037641e-03	8.219813e-04	8.550997e-04	4.659202e-04	N/A
0.0281013     	8.537174e-02	1.032108e-03	8.192834e-04	8.542467e-04	4.637089e-04	N/A
0.0282278     	8.511848e-02	1.026608e-03	8.166405e-04	8.533075e-04	4.622004e-04	N/A
0.0283544     	8.487097e-02	1.021255e-03	8.139748e-04	8.523458e-04	4.609223e-04	N/A
0.028481      	8.463486e-02	1.016055e-03	8.116171e-04	8.518915e-04	4.622394e-04	N/A
0.0286076     	8.439565e-02	1.010806e-03	8.089621e-04	8.507666e-04	4.612435e-04	N/A
0.0287342     	8.415786e-02	1.005632e-03	8.062856e-04	8.498039e-04	4.594659e-04	N/A
0.0288608     	8.392077e-02	1.000505e-03	8.036914e-04	8.490042e-04	4.581563e-04	N/A
0.0289873     	8.368684e-02	9.954142e-04	8.011271e-04	8.481767e-04	4.574062e-04	N/A
0.0291139     	8.345473e-02	9.904383e-04	7.986109e-04	8.473392e-04	4.564449e-04	N/A
0.0292405     	8.322437e-02	9.855565e-04	7.961451e-04	8.465387e-04	4.554173e-04	N/A
0.0293671     	8.299346e-02	9.807689e-04	7.936734e-04	8.456885e-04	4.542027e-04	N/A
0.0294937     	8.276298e-02	9.760419e-04	7.911406e-04	8.448495e-04	4.532136e-04	N/A
0.0296203     	8.253791e-02	9.715195e-04	7.888482e-04	8.445041e-04	4.545852e-04	N/A
0.0297468     	8.230472e-02	9.669472e-04	7.861986e-04	8.435148e-04	4.545415e-04	N/A
0.0298734     	8.206922e-02	9.624078e-04	7.835420e-04	8.424885e-04	4.528841e-04	N/A
0.03          	8.183044e-02	9.579121e-04	7.808995e-04	8.415599e-04	4.517342e-04	N/A
0.0301282     	8.253248e-02	9.615275e-04	7.859429e-04	8.491110e-04	4.578165e-04	N/A
0.0302564     	8.235949e-02	9.599408e-04	7.829766e-04	8.480975e-04	4.545027e-04	N/A
0.0303846     	8.216536e-02	9.546911e-04	7.801221e-04	8.472486e-04	4.535420e-04	N/A
0.0305128     	8.195224e-02	9.485981e-04	7.774196e-04	8.463467e-04	4.541165e-04	N/A
0.030641      	8.172803e-02	9.429885e-04	7.748888e-04	8.453467e-04	4.524361e-04	N/A
0.0307692     	8.150310e-02	9.380293e-04	7.728698e-04	8.447337e-04	4.534124e-04	N/A
0.0308974     	8.126225e-02	9.331092e-04	7.706710e-04	8.434944e-04	4.523948e-04	N/A
0.0310256     	8.101509e-02	9.279912e-04	7.685550e-04	8.422387e-04	4.514642e-04	N/A
0.0311538     	8.077243e-02	9.226218e-04	7.665206e-04	8.410923e-04	4.513093e-04	N/A
0.0312821     	8.050614e-02	9.170301e-04	7.644967e-04	8.396369e-04	4.501010e-04	N/A
0.0314103     	8.024080e-02	9.114122e-04	7.623654e-04	8.382587e-04	4.489409e-04	N/A
0.0315385     	7.997377e-02	9.056712e-04	7.600897e-04	8.368157e-04	4.479528e-04	N/A
0.0316667     	7.970584e-02	8.997633e-04	7.576864e-04	8.353156e-04	4.470611e-04	N/A
0.0317949     	7.943461e-02	8.938186e-04	7.551616e-04	8.337478e-04	4.461695e-04	N/A
0.0319231     	7.917014e-02	8.877999e-04	7.529062e-04	8.326099e-04	4.474697e-04	N/A
0.0320513     	7.889698e-02	8.813402e-04	7.502924e-04	8.307367e-04	4.464976e-04	N/A
0.0321795     	7.862060e-02	8.745772e-04	7.476901e-04	8.287753e-04	4.455118e-04	N/A
0.0323077     	7.834210e-02	8.675693e-04	7.451436e-04	8.267379e-04	4.445046e-04	N/A
0.0324359     	7.799617e-02	8.594866e-04	7.429542e-04	8.246130e-04	4.435212e-04	N/A
0.0325641     	7.761236e-02	8.508249e-04	7.409027e-04	8.223995e-04	4.425631e-04	N/A
0.0326923     	7.726752e-02	8.436200e-04	7.386210e-04	8.201122e-04	4.415965e-04	N/A
0.0328205     	7.693884e-02	8.363275e-04	7.361346e-04	8.177523e-04	4.406488e-04	N/A
0.0329487     	7.661881e-02	8.283512e-04	7.335497e-04	8.152661e-04	4.397296e-04	N/A
0.0330769     	7.631072e-02	8.198008e-04	7.311489e-04	8.131826e-04	4.409442e-04	N/A
0.0332051     	7.600407e-02	8.107300e-04	7.282830e-04	8.104371e-04	4.398248e-04	N/A
0.0333333     	7.570273e-02	8.014499e-04	7.254253e-04	8.075531e-04	4.386923e-04	N/A
0.0334615     	7.540480e-02	7.920062e-04	7.226921e-04	8.045259e-04	4.375369e-04	N/A
0.0335897     	7.510912e-02	7.823522e-04	7.202229e-04	8.013663e-04	4.363621e-04	N/A
0.0337179     	7.481399e-02	7.724648e-04	7.179042e-04	7.981278e-04	4.351771e-04	N/A
0.0338462     	7.451760e-02	7.623788e-04	7.157200e-04	7.947430e-04	4.339987e-04	N/A
0.0339744     	7.421902e-02	7.521008e-04	7.136419e-04	7.912275e-04	4.327862e-04	N/A
0.0341026     	7.391649e-02	7.416276e-04	7.116234e-04	7.876550e-04	4.315840e-04	N/A
0.0342308     	7.361044e-02	7.309883e-04	7.096396e-04	7.839951e-04	4.303505e-04	N/A
0.034359      	7.330456e-02	7.202616e-04	7.080417e-04	7.807411e-04	4.313654e-04	N/A
0.0344872     	7.298957e-02	7.093192e-04	7.060284e-04	7.767111e-04	4.300846e-04	N/A
0.0346154     	7.267742e-02	6.985318e-04	7.040101e-04	7.725846e-04	4.287986e-04	N/A
0.0347436     	7.236571e-02	6.876914e-04	7.018724e-04	7.682931e-04	4.274266e-04	N/A
0.0348718     	7.205161e-02	6.766449e-04	6.996756e-04	7.638693e-04	4.260215e-04	N/A
0.035         	7.173912e-02	6.656373e-04	6.974062e-04	7.593732e-04	4.245874e-04	N/A
0.0351282     	7.142419e-02	6.545123e-04	6.950730e-04	7.547856e-04	4.231798e-04	N/A
0.0352564     	7.111029e-02	6.433401e-04	6.926569e-04	7.500908e-04	4.217627e-04	N/A
0.0353846     	7.079899e-02	6.319530e-04	6.902049e-04	7.452715e-04	4.203352e-04	N/A
0.0355128     	7.048766e-02	6.208545e-04	6.876951e-04	7.403187e-04	4.189356e-04	N/A
0.035641      	7.017933e-02	6.100606e-04	6.856089e-04	7.357350e-04	4.198751e-04	N/A
0.0357692     	6.976911e-02	5.960307e-04	6.833148e-04	7.303409e-04	4.182762e-04	N/A
0.0358974     	6.939186e-02	5.856181e-04	6.807208e-04	7.248885e-04	4.166332e-04	N/A
0.0360256     	6.902650e-02	5.768922e-04	6.779198e-04	7.193694e-04	4.149501e-04	N/A
0.0361538     	6.867253e-02	5.677517e-04	6.750390e-04	7.137673e-04	4.132408e-04	N/A
0.0362821     	6.833094e-02	5.578322e-04	6.720820e-04	7.081273e-04	4.115312e-04	N/A
0.0364103     	6.799982e-02	5.477088e-04	6.690625e-04	7.023654e-04	4.098417e-04	N/A
0.0365385     	6.767037e-02	5.374000e-04	6.659947e-04	6.965140e-04	4.081141e-04	N/A
0.0366667     	6.734689e-02	5.280532e-04	6.629082e-04	6.905917e-04	4.063840e-04	N/A
0.0367949     	6.702681e-02	5.194286e-04	6.598865e-04	6.846213e-04	4.046815e-04	N/A
0.0369231     	6.670754e-02	5.110688e-04	6.569828e-04	6.786036e-04	4.029664e-04	N/A
0.0370513     	6.638832e-02	5.028898e-04	6.542167e-04	6.726059e-04	4.013239e-04	N/A
0.0371795     	6.606737e-02	4.951852e-04	6.515445e-04	6.666249e-04	3.996708e-04	N/A
0.0373077     	6.574387e-02	4.882476e-04	6.494016e-04	6.611637e-04	4.002357e-04	N/A
0.0374359     	6.542096e-02	4.818875e-04	6.467155e-04	6.551108e-04	3.982945e-04	N/A
0.0375641     	6.509533e-02	4.761303e-04	6.438971e-04	6.490670e-04	3.963677e-04	N/A
0.0376923     	6.476915e-02	4.708974e-04	6.409431e-04	6.430328e-04	3.944745e-04	N/A
0.0378205     	6.444040e-02	4.662579e-04	6.378230e-04	6.370939e-04	3.923781e-04	N/A
0.0379487     	6.410940e-02	4.619631e-04	6.345422e-04	6.311818e-04	3.903341e-04	N/A
0.0380769     	6.377632e-02	4.583352e-04	6.311026e-04	6.253679e-04	3.885779e-04	N/A
0.0382051     	6.344177e-02	4.554410e-04	6.274948e-04	6.196393e-04	3.869930e-04	N/A
0.0383333     	6.311029e-02	4.524221e-04	6.238116e-04	6.139309e-04	3.852856e-04	N/A
0.0384615     	6.277756e-02	4.502698e-04	6.199535e-04	6.083084e-04	3.835562e-04	N/A
0.0385897     	6.244697e-02	4.490998e-04	6.159931e-04	6.027599e-04	3.818768e-04	N/A
0.0387179     	6.211056e-02	4.488315e-04	6.118756e-04	5.973062e-04	3.803775e-04	N/A
0.0388462     	6.171870e-02	4.418165e-04	6.075214e-04	5.919368e-04	3.787423e-04	N/A
0.0389744     	6.132415e-02	4.416140e-04	6.027229e-04	5.867190e-04	3.771181e-04	N/A
0.0391026     	6.094602e-02	4.441224e-04	5.977995e-04	5.815700e-04	3.754676e-04	N/A
0.0392308     	6.058687e-02	4.462412e-04	5.929202e-04	5.764904e-04	3.739237e-04	N/A
0.039359      	6.024529e-02	4.469618e-04	5.880868e-04	5.714944e-04	3.722755e-04	N/A
0.0394872     	5.991230e-02	4.467697e-04	5.832632e-04	5.666080e-04	3.706699e-04	N/A
0.0396154     	5.958875e-02	4.464958e-04	5.784468e-04	5.618426e-04	3.690467e-04	N/A
0.0397436     	5.927489e-02	4.463903e-04	5.736597e-04	5.572153e-04	3.674610e-04	N/A
0.0398718     	5.896433e-02	4.464286e-04	5.689686e-04	5.527195e-04	3.658524e-04	N/A
0.04          	5.866081e-02	4.464466e-04	5.644500e-04	5.482986e-04	3.642536e-04	N/A
0.0401282     	5.836357e-02	4.462714e-04	5.601090e-04	5.439545e-04	3.626477e-04	N/A
0.0402564     	5.806644e-02	4.459077e-04	5.559294e-04	5.396773e-04	3.610628e-04	N/A
0.0403846     	5.777102e-02	4.454723e-04	5.518752e-04	5.354945e-04	3.595014e-04	N/A
0.0405128     	5.748160e-02	4.449615e-04	5.478964e-04	5.313841e-04	3.579719e-04	N/A
0.040641      	5.719566e-02	4.443166e-04	5.439184e-04	5.274299e-04	3.564479e-04	N/A
0.0407692     	5.691192e-02	4.436000e-04	5.398779e-04	5.236328e-04	3.549378e-04	N/A
0.0408974     	5.663433e-02	4.428267e-04	5.357666e-04	5.199235e-04	3.534483e-04	N/A
0.0410256     	5.635777e-02	4.420013e-04	5.315552e-04	5.162698e-04	3.519689e-04	N/A
0.0411538     	5.608021e-02	4.411170e-04	5.272377e-04	5.126638e-04	3.504835e-04	N/A
0.0412821     	5.580696e-02	4.401882e-04	5.228402e-04	5.091106e-04	3.490444e-04	N/A
0.0414103     	5.553877e-02	4.392088e-04	5.183763e-04	5.056390e-04	3.475976e-04	N/A
0.0415385     	5.527226e-02	4.381723e-04	5.138828e-04	5.022375e-04	3.461654e-04	N/A
0.0416667     	5.500728e-02	4.371065e-04	5.093758e-04	4.989515e-04	3.447400e-04	N/A
0.0417949     	5.474593e-02	4.361228e-04	5.048876e-04	4.958115e-04	3.433478e-04	N/A
0.0419231     	5.448660e-02	4.351945e-04	5.004399e-04	4.927300e-04	3.419560e-04	N/A
0.0420513     	5.423208e-02	4.342737e-04	4.960426e-04	4.897105e-04	3.405785e-04	N/A
0.0421795     	5.397976e-02	4.333511e-04	4.917060e-04	4.867402e-04	3.392062e-04	N/A
0.0423077     	5.373346e-02	4.324487e-04	4.874373e-04	4.838128e-04	3.378301e-04	N/A
0.0424359     	5.349076e-02	4.315819e-04	4.832569e-04	4.809318e-04	3.364825e-04	N/A
0.0425641     	5.325142e-02	4.307611e-04	4.791547e-04	4.781144e-04	3.351157e-04	N/A
0.0426923     	5.301555e-02	4.299330e-04	4.751250e-04	4.753698e-04	3.338064e-04	N/A
0.0428205     	5.278512e-02	4.291160e-04	4.711748e-04	4.727424e-04	3.324928e-04	N/A
0.0429487     	5.255805e-02	4.283440e-04	4.673061e-04	4.701769e-04	3.312249e-04	N/A
0.0430769     	5.233459e-02	4.276283e-04	4.635072e-04	4.676902e-04	3.299486e-04	N/A
0.0432051     	5.211605e-02	4.269526e-04	4.597862e-04	4.652615e-04	3.286884e-04	N/A
0.0433333     	5.190144e-02	4.262999e-04	4.561443e-04	4.628567e-04	3.274105e-04	N/A