/*--------------------------------*- C++ -*----------------------------------*\
  =========                 |
  \\      /  F ield         | OpenFOAM: The Open Source CFD Toolbox
   \\    /   O peration     | Website:  https://openfoam.org
    \\  /    A nd           | Version:  8
     \\/     M anipulation  |
\*---------------------------------------------------------------------------*/
FoamFile
{
    version     2.0;
    format      ascii;
    class       volScalarField;
    location    "0.01";
    object      nut;
}
// * * * * * * * * * * * * * * * * * * * * * * * * * * * * * * * * * * * * * //

dimensions      [0 2 -1 0 0 0 0];

internalField   nonuniform List<scalar> 
15677
(
0.000168396
0.000651709
0.000148383
0.00150907
0.00044224
0.000140568
0.00266545
0.000876819
0.000379909
0.000140761
0.0039074
0.00152187
0.000684263
0.000352579
0.000142385
0.0050106
0.0023601
0.00114115
0.000583025
0.000339417
0.000145675
0.00583152
0.00332159
0.00177086
0.000941779
0.000532543
0.000333626
0.000148768
0.00633306
0.00430263
0.0025513
0.0014526
0.000830557
0.000506188
0.000331928
0.000150894
0.0065644
0.00519055
0.00342981
0.00211262
0.00126966
0.000770296
0.000494034
0.000332037
0.000152143
0.00666116
0.00589754
0.00432745
0.00289205
0.00185389
0.0011682
0.000740178
0.000489384
0.000332629
0.000152798
0.0067091
0.00634327
0.00515255
0.00373688
0.00256339
0.00170635
0.00111315
0.000726785
0.000488144
0.000333162
0.000153111
0.00671796
0.00655985
0.00582205
0.00457347
0.00335723
0.00237158
0.00162629
0.00108791
0.000721916
0.000488319
0.00033357
0.000153279
0.0067115
0.00667089
0.00627872
0.00532084
0.00417506
0.00312909
0.00226654
0.00158747
0.00107807
0.00072124
0.000488947
0.000333882
0.000153397
0.00670542
0.00671448
0.00651775
0.00590962
0.00494448
0.00392559
0.00300201
0.00221441
0.00157164
0.00107624
0.000722056
0.000489383
0.000334183
0.000153537
0.00670288
0.00672324
0.00664379
0.00630793
0.00559462
0.0046945
0.00378284
0.00293793
0.00219295
0.00156863
0.00107723
0.00072291
0.000490326
0.000334617
0.000153659
0.00670208
0.00672241
0.00669759
0.00651277
0.00607584
0.00536652
0.00454546
0.00370922
0.00291088
0.00218835
0.0015697
0.00107893
0.000725111
0.000491469
0.000335098
0.000153867
0.00670187
0.00672108
0.00671333
0.00661498
0.00637598
0.00588662
0.0052218
0.00446591
0.00367692
0.00290438
0.00218932
0.00157258
0.00108306
0.000727652
0.000492717
0.000335563
0.000154033
0.00670183
0.00672036
0.00671733
0.00665307
0.00651511
0.0062336
0.00575492
0.0051406
0.00442914
0.00366811
0.00290528
0.0021933
0.00157912
0.00108781
0.000730421
0.000493941
0.000336168
0.000154341
0.00670183
0.00672008
0.00671823
0.00666547
0.00656864
0.00642382
0.0061184
0.00567584
0.00510064
0.00441754
0.0036687
0.00290986
0.00220214
0.00158657
0.00109296
0.000733279
0.000495556
0.00033686
0.000154572
0.00670183
0.00672
0.00671838
0.00666926
0.00658755
0.00649306
0.00632725
0.00604319
0.00563415
0.00508607
0.00441749
0.00367323
0.00292028
0.00221229
0.00159472
0.0010984
0.000736781
0.000497205
0.000337644
0.00015501
0.00670183
0.00671999
0.00671839
0.00667028
0.00659371
0.00651646
0.00641601
0.00625425
0.00600078
0.00561706
0.00508455
0.00442117
0.00368406
0.00293262
0.00222353
0.00160371
0.00110496
0.000740583
0.000499319
0.00033871
0.00015531
0.00670184
0.00672002
0.00671838
0.00667048
0.00659547
0.00652405
0.00644778
0.00634381
0.0062114
0.00598173
0.00561303
0.005087
0.00443099
0.00369758
0.00294657
0.00223621
0.00161422
0.00111247
0.000745258
0.000501717
0.000339686
0.000155904
0.00670187
0.00672006
0.00671837
0.00667048
0.00659585
0.00652629
0.0064583
0.00637698
0.00630054
0.006191
0.00597523
0.00561388
0.00509457
0.00444434
0.00371331
0.00296256
0.0022509
0.00162645
0.0011212
0.00075066
0.000504475
0.000341217
0.000156296
0.00670192
0.0067201
0.00671832
0.00667043
0.00659585
0.00652687
0.00646148
0.0063885
0.00633368
0.00627946
0.00618254
0.00597387
0.00561877
0.0051063
0.00446055
0.00373151
0.00298106
0.00226813
0.00164054
0.00113144
0.000756696
0.000507697
0.000342341
0.000157064
0.00670199
0.00672012
0.0067182
0.00667034
0.0065958
0.00652698
0.00646234
0.00639216
0.0063452
0.0063123
0.00626995
0.00617923
0.00597639
0.00562807
0.00512099
0.00447912
0.00375293
0.00300286
0.00228799
0.00165702
0.00114292
0.000763832
0.000511051
0.000344454
0.000157547
0.00670207
0.00672013
0.00671799
0.00667019
0.0065958
0.00652704
0.00646255
0.00639322
0.00634888
0.00632368
0.00630234
0.00626559
0.00617974
0.00598316
0.00564157
0.0051401
0.00450203
0.00377764
0.00302837
0.00231124
0.00167566
0.00115635
0.000771459
0.000515298
0.000345842
0.000158504
0.00670216
0.00672014
0.0067177
0.00666996
0.00659584
0.00652721
0.00646265
0.00639352
0.00634996
0.00632723
0.00631359
0.00629753
0.00626501
0.00618439
0.00599377
0.00565867
0.00516344
0.00453017
0.00380814
0.00305764
0.00233804
0.0016971
0.00117122
0.000780521
0.000519288
0.000348468
0.000159093
0.00670223
0.00672013
0.00671738
0.00666965
0.00659591
0.00652753
0.00646286
0.00639368
0.00635027
0.00632818
0.00631718
0.00630861
0.00629644
0.00626853
0.00619257
0.00600786
0.00567945
0.00519088
0.00456324
0.0038443
0.00309269
0.00236829
0.00172139
0.0011881
0.000789952
0.000524589
0.000350173
0.000160231
0.00670228
0.00672011
0.00671706
0.00666932
0.00659598
0.00652797
0.00646319
0.0063939
0.00635042
0.00632833
0.00631822
0.00631217
0.0063073
0.00629941
0.00627542
0.00620415
0.00602601
0.00570518
0.00522394
0.00460178
0.00388528
0.00313354
0.00240335
0.00174844
0.00120658
0.000801092
0.000529351
0.000353372
0.000160973
0.00670232
0.00672007
0.00671677
0.00666898
0.00659604
0.00652845
0.00646354
0.00639417
0.00635061
0.0063283
0.00631849
0.00631322
0.00631075
0.00630996
0.00630576
0.00628569
0.00621988
0.00604918
0.00573694
0.00526369
0.00464715
0.00393293
0.00317854
0.0024436
0.00177825
0.00122775
0.000812514
0.000535761
0.000355351
0.000162182
0.00670235
0.00672003
0.00671654
0.00666869
0.00659608
0.00652893
0.00646385
0.00639441
0.00635084
0.0063283
0.00631858
0.00631352
0.00631174
0.0063132
0.00631613
0.00631548
0.00630015
0.00624073
0.00607856
0.00577578
0.0053111
0.00470014
0.0039873
0.00322998
0.002487
0.0018125
0.00124968
0.00082583
0.000541187
0.000358998
0.000163356
0.00670235
0.00671998
0.00671636
0.00666847
0.00659612
0.00652935
0.00646406
0.00639454
0.00635104
0.00632838
0.0063187
0.00631363
0.00631198
0.00631397
0.00631934
0.00632572
0.00632947
0.00631984
0.00626796
0.0061153
0.00582282
0.00536697
0.0047613
0.00404912
0.00328718
0.0025355
0.0018491
0.00127439
0.000839259
0.000548268
0.00036152
0.000164645
0.00670235
0.00671991
0.00671624
0.00666833
0.00659617
0.0065297
0.00646413
0.00639455
0.00635115
0.00632847
0.00631886
0.00631375
0.00631202
0.00631399
0.00632018
0.00632896
0.00633965
0.00634877
0.00634608
0.00630281
0.00616069
0.00587899
0.00543218
0.0048311
0.00411845
0.00335072
0.0025885
0.00188861
0.00130074
0.000854245
0.000556007
0.000365694
0.000165998
0.00670233
0.00671983
0.00671617
0.00666827
0.00659624
0.00652998
0.00646411
0.00639445
0.00635114
0.00632853
0.00631902
0.00631393
0.00631207
0.00631383
0.00632028
0.00632991
0.006343
0.00635892
0.00637477
0.00638012
0.00634671
0.00621579
0.00594539
0.00550719
0.0049099
0.00419551
0.00342035
0.00264602
0.00193136
0.00132844
0.000872062
0.000565416
0.000370069
0.000167453
0.0067023
0.00671973
0.00671613
0.00666828
0.00659632
0.00653019
0.00646403
0.00639427
0.00635103
0.00632852
0.00631915
0.00631412
0.00631215
0.00631369
0.00632024
0.0063302
0.00634419
0.00636255
0.00638512
0.0064087
0.00642358
0.00640079
0.0062819
0.0060225
0.00559261
0.00499782
0.00428024
0.00349602
0.00270793
0.00197688
0.00136125
0.000893149
0.000575329
0.000374566
0.000168966
0.00671963
0.00670225
0.00671613
0.00666837
0.00659643
0.00653035
0.00646393
0.00639405
0.00635083
0.00632843
0.0063192
0.00631428
0.00631226
0.00631363
0.00632025
0.00633037
0.00634475
0.00636407
0.00638927
0.00641972
0.00645249
0.00647755
0.00646649
0.00635956
0.00611115
0.00568855
0.00509505
0.00437246
0.00357737
0.00277392
0.0020305
0.0013999
0.000915173
0.000585486
0.000379266
0.00017056
0.00671616
0.00671945
0.00670217
0.0066685
0.00659657
0.00653047
0.00646382
0.00639381
0.00635059
0.00632829
0.00631918
0.00631436
0.00631233
0.00631361
0.00632034
0.00633061
0.00634525
0.00636504
0.00639137
0.00642457
0.00646466
0.00650768
0.00654356
0.00654439
0.00644968
0.00621149
0.00579483
0.00520121
0.00447165
0.00366405
0.00285139
0.0020935
0.00144031
0.000937843
0.000596183
0.000384002
0.000172167
0.00666869
0.00671636
0.00671917
0.00670207
0.00659676
0.00653057
0.00646374
0.00639358
0.00635034
0.00632812
0.00631911
0.00631437
0.00631234
0.00631359
0.00632048
0.00633095
0.00634585
0.00636599
0.00639301
0.00642752
0.00647067
0.00652128
0.00657623
0.00662337
0.00663559
0.00655249
0.00632328
0.00591096
0.00531569
0.0045774
0.00376557
0.00294225
0.00215924
0.00148208
0.000960929
0.000607055
0.000388855
0.000173827
0.00659698
0.00666947
0.00671675
0.00671886
0.00670196
0.00653066
0.00646369
0.00639338
0.00635011
0.00632794
0.006319
0.00631431
0.00631227
0.00631353
0.00632058
0.00633131
0.00634652
0.00636706
0.00639471
0.00643012
0.00647502
0.00652902
0.00659191
0.00665888
0.00671847
0.00674004
0.00666734
0.00644605
0.00603664
0.00543799
0.00470115
0.00388444
0.00303674
0.0022269
0.00152504
0.000984175
0.000618146
0.000393658
0.00017546
0.00653076
0.00659806
0.0066709
0.00671719
0.00671851
0.00670183
0.0064637
0.00639322
0.00634989
0.00632778
0.00631889
0.00631421
0.00631215
0.00631342
0.00632063
0.00633163
0.00634718
0.00636819
0.00639654
0.00643287
0.00647919
0.00653535
0.00660226
0.00667759
0.00675756
0.00682919
0.00686023
0.00679455
0.00657939
0.00617093
0.00558146
0.00484621
0.00400777
0.00313353
0.00229591
0.00156846
0.0010076
0.00062914
0.000398502
0.000177126
0.00646377
0.00653178
0.00660005
0.00667244
0.00671767
0.00671813
0.00670169
0.0063931
0.00634972
0.00632764
0.00631877
0.00631409
0.00631201
0.00631329
0.00632064
0.00633187
0.00634777
0.00636927
0.00639839
0.00643578
0.00648365
0.00654172
0.0066116
0.00669154
0.00678063
0.00687275
0.00695593
0.00699546
0.00693289
0.00672186
0.00632827
0.0057484
0.00499646
0.00413366
0.00323152
0.00236533
0.00161201
0.00103081
0.000640151
0.000403223
0.000178731
0.00639305
0.00646504
0.00653371
0.00660216
0.00667409
0.00671818
0.00671772
0.00670154
0.0063496
0.00632752
0.00631867
0.00631396
0.00631186
0.00631317
0.00632062
0.00633204
0.00634824
0.00637024
0.00640012
0.00643866
0.00648834
0.00654858
0.00662133
0.00670498
0.00679971
0.00690156
0.00700587
0.00709856
0.00714558
0.00708328
0.00688904
0.00651163
0.00592075
0.00514969
0.00426079
0.00332949
0.00243451
0.00165511
0.00105382
0.000650886
0.000407919
0.000180352
0.00634952
0.0063941
0.00646758
0.00653567
0.00660437
0.00667583
0.00671872
0.00671729
0.00670139
0.00632744
0.00631859
0.00631384
0.00631172
0.00631307
0.00632062
0.00633217
0.00634861
0.00637105
0.00640165
0.00644135
0.0064929
0.00655573
0.00663191
0.00671927
0.00681899
0.00692735
0.00704237
0.00715674
0.00725729
0.00730943
0.00726423
0.0070847
0.00670076
0.00609527
0.00530295
0.00438758
0.00342664
0.00250269
0.00169751
0.00107625
0.000661479
0.000412441
0.000181892
0.0063274
0.0063502
0.00639631
0.00647017
0.00653767
0.00660668
0.00667765
0.00671927
0.00671685
0.00670125
0.00631854
0.00631375
0.00631161
0.006313
0.00632063
0.00633228
0.0063489
0.00637172
0.00640295
0.00644377
0.00649714
0.00656266
0.00664292
0.00673485
0.00683988
0.00695429
0.00707718
0.00720302
0.0073259
0.00743172
0.00750533
0.00748017
0.0072877
0.00689147
0.00626952
0.00545478
0.00451223
0.00352185
0.0025693
0.00173875
0.00109813
0.000671667
0.000416883
0.00018343
0.00631851
0.00632777
0.00635166
0.00639866
0.00647282
0.00653972
0.00660908
0.00667953
0.00671982
0.00671638
0.00670111
0.00631367
0.00631153
0.00631298
0.00632067
0.00633239
0.00634915
0.00637227
0.00640405
0.00644589
0.00650097
0.00656914
0.00665358
0.00675108
0.0068628
0.0069838
0.00711453
0.00724928
0.00738462
0.00751315
0.00764244
0.00773901
0.00770762
0.00749875
0.00708246
0.00644174
0.0056034
0.00463352
0.00361424
0.00263376
0.00177865
0.00111918
0.000681592
0.000421119
0.000184879
0.00631363
0.00631869
0.00632858
0.00635322
0.00640116
0.00647551
0.00654183
0.00661156
0.00668145
0.00672036
0.00671589
0.00670098
0.00631148
0.00631301
0.00632075
0.00633251
0.00634938
0.00637276
0.00640499
0.00644774
0.00650435
0.00657505
0.00666357
0.00676679
0.00688675
0.00701632
0.00715592
0.00729987
0.00744557
0.00758727
0.00774124
0.00789646
0.00798615
0.00794149
0.0077136
0.00727131
0.00660957
0.00574714
0.00475042
0.00370312
0.00269567
0.00181688
0.00113944
0.000691029
0.000425236
0.000186313
0.00631147
0.00631372
0.00631911
0.00632946
0.00635488
0.00640379
0.00647822
0.00654402
0.00661413
0.0066834
0.00672087
0.00671538
0.00670087
0.00631307
0.00632085
0.00633266
0.00634961
0.00637321
0.00640583
0.00644939
0.00650734
0.0065804
0.00667273
0.00678156
0.00691005
0.00705043
0.00720188
0.0073564
0.00751331
0.0076665
0.00783634
0.00801911
0.00816792
0.00824322
0.00817901
0.00792917
0.00745758
0.00677126
0.00588498
0.0048622
0.00378794
0.00275468
0.00185336
0.0011587
0.000700125
0.000429131
0.000187648
0.00631318
0.00631151
0.00631396
0.00631957
0.00633041
0.00635663
0.00640657
0.00648097
0.00654628
0.00661678
0.00668537
0.00672134
0.00671484
0.00670077
0.00632098
0.00633282
0.00634985
0.00637364
0.00640659
0.00645086
0.00651
0.00658522
0.00668104
0.00679524
0.00693213
0.00708377
0.00725039
0.0074195
0.00758977
0.00775583
0.00794073
0.00814325
0.00831944
0.00845347
0.00850704
0.00841761
0.00814217
0.00764091
0.00692632
0.00601622
0.00496825
0.00386834
0.00281059
0.00188789
0.00117704
0.000708691
0.000432884
0.000188974
0.00632115
0.00631316
0.0063116
0.00631423
0.00632008
0.00633145
0.00635849
0.00640949
0.00648376
0.00654864
0.0066195
0.00668735
0.00672176
0.0067143
0.0067007
0.00633301
0.0063501
0.00637405
0.00640731
0.00645222
0.0065124
0.0065896
0.00668857
0.00680784
0.00695275
0.00711551
0.00729807
0.00748651
0.00767596
0.0078576
0.00806005
0.00828296
0.00847926
0.00863932
0.00875008
0.00877475
0.0086548
0.00834994
0.00781893
0.0070741
0.00614039
0.00506837
0.00394409
0.00286326
0.00192048
0.00119431
0.000716881
0.000436412
0.000190176
0.00633322
0.00632096
0.00631303
0.00631173
0.00631454
0.00632065
0.00633256
0.00636045
0.00641254
0.00648658
0.00655113
0.00662229
0.00668932
0.00672211
0.00671377
0.00670065
0.00635036
0.00637446
0.00640798
0.00645347
0.00651459
0.0065936
0.00669541
0.00681944
0.00697187
0.00714532
0.00734385
0.00755301
0.00776841
0.00797314
0.00819738
0.00844519
0.00866316
0.0088423
0.00897616
0.00905501
0.00904371
0.0088884
0.00855117
0.00799008
0.00721423
0.00625733
0.00516219
0.00401508
0.00291263
0.00195103
0.0012106
0.000724522
0.000439785
0.0001914
0.00635064
0.00633282
0.00632043
0.00631295
0.00631192
0.0063149
0.00632128
0.00633377
0.00636252
0.00641573
0.00648946
0.00655373
0.00662515
0.00669123
0.00672238
0.00671324
0.00670062
0.00637486
0.00640863
0.00645463
0.00651661
0.00659726
0.00670165
0.00683014
0.00698953
0.00717319
0.00738743
0.00761754
0.00786074
0.00809779
0.00835517
0.00863488
0.00888039
0.00908094
0.00923095
0.0093279
0.00936587
0.00931175
0.00911668
0.00874482
0.00815332
0.00734608
0.00636624
0.00524967
0.00408128
0.0029587
0.00197961
0.00122583
0.000731807
0.000442941
0.000192454
0.00637527
0.00634992
0.00633178
0.00631995
0.00631293
0.00631215
0.0063153
0.00632198
0.00633507
0.00636471
0.00641906
0.0064924
0.00655644
0.006628
0.00669303
0.00672258
0.00671274
0.0067006
0.00640924
0.00645571
0.00651847
0.00660063
0.00670736
0.00684004
0.0070058
0.00719923
0.00742872
0.00767936
0.0079506
0.00822362
0.00852876
0.00885688
0.00913867
0.00936828
0.00953774
0.00964533
0.00969344
0.00968105
0.00957723
0.00933839
0.00893011
0.00830813
0.00747108
0.00646758
0.00533093
0.00414278
0.00300154
0.00200621
0.0012401
0.000738517
0.000445968
0.000193589
0.00640985
0.0063741
0.00634813
0.00633076
0.00631954
0.00631298
0.00631244
0.00631576
0.00632275
0.00633648
0.00636701
0.00642255
0.00649538
0.00655917
0.00663078
0.00669472
0.00672272
0.00671225
0.00670059
0.00645672
0.00652019
0.00660372
0.00671261
0.00684918
0.0070208
0.00722359
0.00746766
0.00773799
0.00803733
0.00834899
0.00870814
0.0091046
0.00944602
0.00971836
0.00991822
0.01004
0.0100884
0.0100732
0.00999975
0.0098391
0.00955273
0.00910662
0.00845365
0.00758869
0.00656167
0.00540617
0.00419973
0.00304125
0.00203093
0.00125337
0.000744882
0.000448768
0.0001945
0.00645769
0.00640806
0.00637124
0.00634635
0.00632982
0.00631919
0.0063131
0.00631277
0.00631627
0.0063236
0.00633799
0.00636946
0.00642618
0.00649834
0.00656187
0.00663348
0.00669631
0.00672281
0.00671178
0.00670059
0.00652178
0.00660656
0.00671742
0.0068576
0.0070346
0.00724638
0.00750414
0.00779332
0.00812116
0.00847349
0.00888815
0.00936087
0.00979727
0.0101528
0.0104041
0.0105521
0.0106002
0.0105656
0.0104688
0.0103219
0.0100968
0.00975923
0.00927412
0.00859008
0.00769873
0.00664884
0.00547567
0.00425233
0.00307795
0.00205381
0.00126576
0.000750688
0.000451456
0.000195374
0.00652327
0.00645506
0.00640362
0.00636836
0.00634465
0.00632895
0.00631891
0.00631327
0.00631316
0.00631684
0.00632454
0.00633964
0.00637203
0.00642986
0.00650121
0.00656453
0.00663611
0.0066978
0.00672285
0.00671135
0.00670061
0.00660914
0.00672182
0.00686532
0.0070473
0.00726764
0.00753812
0.00784555
0.00820234
0.00859571
0.00906391
0.0096204
0.0101827
0.0106888
0.0110497
0.011244
0.0112964
0.011231
0.0110821
0.0108819
0.0106475
0.0103499
0.00995769
0.00943261
0.00871772
0.00780128
0.00672944
0.00553973
0.00430079
0.00311181
0.00207499
0.00127722
0.000756237
0.000453599
0.000196071
0.00661154
0.0065195
0.00644843
0.00639917
0.00636559
0.00634304
0.00632814
0.00631869
0.0063135
0.0063136
0.00631748
0.00632558
0.0063414
0.00637468
0.00643352
0.00650399
0.00656714
0.00663866
0.00669917
0.00672286
0.00671095
0.00670062
0.00672583
0.00687237
0.00705897
0.00728737
0.0075696
0.0078949
0.00828059
0.00871346
0.00923305
0.0098886
0.0106161
0.0113319
0.0118948
0.0121985
0.0122647
0.0121615
0.011936
0.011639
0.0113123
0.0109764
0.0105983
0.0101481
0.00958225
0.00883689
0.00789657
0.00680382
0.00559869
0.00434537
0.00314299
0.00209451
0.00128789
0.00076056
0.000455443
0.000196707
0.00672953
0.00660636
0.00650977
0.00644175
0.00639485
0.00636291
0.00634148
0.00632738
0.00631852
0.00631381
0.00631411
0.00631818
0.00632672
0.00634325
0.00637733
0.00643716
0.00650666
0.00656971
0.00664111
0.00670044
0.00672285
0.0067106
0.00670064
0.00687879
0.00706964
0.00730558
0.00759866
0.0079415
0.00835518
0.00882502
0.00939741
0.010176
0.0111106
0.0120799
0.0128965
0.0134139
0.0135668
0.0134348
0.0131254
0.0127027
0.0122302
0.0117576
0.0113074
0.0108417
0.0103305
0.00972331
0.00894801
0.00798492
0.00687238
0.00565286
0.00438631
0.00317164
0.00211252
0.00129642
0.000764342
0.000457435
0.000197965
0.00688463
0.0067225
0.00659246
0.00649997
0.00643524
0.00639065
0.00636031
0.00633999
0.00632668
0.00631842
0.00631418
0.00631468
0.00631894
0.0063279
0.00634513
0.00638001
0.00644074
0.00650921
0.00657222
0.00664343
0.0067016
0.00672282
0.0067103
0.00670065
0.00707937
0.00732226
0.00762541
0.00798531
0.00842532
0.0089299
0.00956124
0.010489
0.0116579
0.0128908
0.0139618
0.0147194
0.0150835
0.015031
0.0146725
0.0141393
0.013505
0.0128434
0.0122124
0.0116388
0.0110795
0.010505
0.00985612
0.00905149
0.00806669
0.00693548
0.0057026
0.00442389
0.00319797
0.0021269
0.00130359
0.000768251
0.000459595
0.000198251
0.0070882
0.00687553
0.0067029
0.00657844
0.0064904
0.00642889
0.00638655
0.00635778
0.00633856
0.00632605
0.00631839
0.00631463
0.0063153
0.00631971
0.00632909
0.00634705
0.00638269
0.00644427
0.00651166
0.00657466
0.00664564
0.00670266
0.00672279
0.00671006
0.00670065
0.00733748
0.00764994
0.00802622
0.00849047
0.00902871
0.00972813
0.0108244
0.0122303
0.0136988
0.0149801
0.0159421
0.0165283
0.0167034
0.0164529
0.0158868
0.0151466
0.0143108
0.0134622
0.0126699
0.0119679
0.0113113
0.0106717
0.00998103
0.00914777
0.00814229
0.00699352
0.00574823
0.00445832
0.00321893
0.00213889
0.00131127
0.000772736
0.000461738
4.84943e-05
0.00735113
0.00707617
0.00684848
0.00668314
0.00656472
0.00648106
0.00642269
0.00638255
0.00635533
0.0063372
0.00632548
0.00631844
0.00631517
0.00631596
0.00632047
0.00633025
0.00634898
0.00638538
0.00644772
0.00651401
0.00657703
0.0066477
0.00670361
0.00672275
0.00670993
0.00670065
0.00767242
0.0080641
0.0085505
0.00912255
0.00989924
0.0111716
0.0127937
0.0144454
0.0158705
0.0169717
0.0177289
0.018129
0.0181412
0.0177372
0.0170094
0.0161002
0.0150902
0.0140702
0.0131221
0.0122917
0.0115361
0.0108306
0.0100984
0.00923726
0.00821209
0.00704687
0.00579002
0.0044857
0.00323635
0.00215174
0.00131956
0.000777261
0.000465706
5.03575e-05
0.00769255
0.00733614
0.00703921
0.00682115
0.00666379
0.00655129
0.00647193
0.00641663
0.00637865
0.00635295
0.00633591
0.00632499
0.00631857
0.00631578
0.00631662
0.0063212
0.00633138
0.00635093
0.00638808
0.00645107
0.00651626
0.00657932
0.00664962
0.00670419
0.0067227
0.00670986
0.00670065
0.00809896
0.00860563
0.00921245
0.0100731
0.011517
0.01332
0.0150957
0.0165976
0.0177696
0.0186302
0.0191946
0.019448
0.019346
0.0188418
0.0180036
0.01697
0.0158211
0.0146533
0.0135618
0.0126071
0.0117533
0.0109819
0.0102085
0.00932037
0.00827649
0.00709579
0.00582326
0.00450843
0.00325497
0.00216549
0.00132846
0.000782454
0.000449667
5.27874e-05
0.00812988
0.00767365
0.00728641
0.00700186
0.00679434
0.00664484
0.00653815
0.00646299
0.00641071
0.00637486
0.00635066
0.00633469
0.00632458
0.00631877
0.00631642
0.00631729
0.00632188
0.00633243
0.00635287
0.00639077
0.00645432
0.00651844
0.00658151
0.00665076
0.00670439
0.00672268
0.00670986
0.00670065
0.00865634
0.00929908
0.0102468
0.011848
0.0137919
0.0156379
0.0171609
0.0183463
0.0192477
0.0199075
0.0203315
0.0204887
0.0203196
0.0197614
0.0188584
0.0177422
0.01649
0.0152014
0.0139828
0.0129115
0.0119619
0.0111254
0.0103117
0.00939744
0.00833573
0.00713478
0.00585087
0.00453271
0.00327484
0.00218018
0.00133783
0.000787778
0.000412439
5.57738e-05
0.0087015
0.00810745
0.00760676
0.00723611
0.00696515
0.00676805
0.00662628
0.00652528
0.00645425
0.00640493
0.00637118
0.00634847
0.00633358
0.00632426
0.00631903
0.00631706
0.006318
0.00632254
0.00633344
0.00635479
0.00639345
0.00645743
0.00652055
0.0065827
0.00665108
0.00670449
0.00672268
0.00670992
0.00670065
0.00938265
0.0104167
0.0121559
0.0142024
0.0160757
0.0175789
0.0187353
0.0196282
0.0203231
0.020846
0.0211831
0.0212872
0.0210879
0.0205107
0.0195787
0.0184147
0.0170912
0.0157081
0.0143805
0.0132024
0.0121612
0.0112612
0.0104082
0.00946869
0.00838309
0.00716723
0.00588038
0.00455859
0.003296
0.00219574
0.00134826
0.000788041
0.000381341
5.9037e-05
0.00945919
0.00867276
0.00801875
0.00753923
0.00718654
0.00692912
0.00674226
0.00660809
0.00651269
0.00644573
0.00639931
0.00636763
0.0063464
0.00633259
0.00632403
0.00631931
0.00631764
0.00631871
0.00632318
0.00633442
0.00635669
0.00639611
0.00646041
0.00652158
0.00658288
0.00665125
0.00670449
0.00672271
0.00671006
0.00670063
0.0105796
0.0124356
0.0145522
0.0164211
0.0178769
0.018976
0.0198251
0.0205084
0.0210698
0.0215123
0.0218041
0.0218869
0.0216837
0.0211126
0.0201778
0.0189927
0.0176243
0.0161704
0.014752
0.0134779
0.0123505
0.0113892
0.010498
0.00952591
0.00842261
0.00720198
0.00591182
0.0045861
0.00331843
0.00221236
0.00135836
0.000785498
0.000351723
6.22026e-05
0.0094282
0.0107249
0.00855101
0.00792931
0.00747267
0.00713781
0.00689375
0.00671697
0.00659029
0.00650041
0.00643744
0.00639388
0.00636424
0.0063445
0.00633173
0.00632386
0.00631958
0.00631817
0.00631937
0.00632382
0.0063354
0.00635856
0.00639874
0.00646199
0.00652155
0.00658296
0.00665125
0.0067044
0.00672276
0.00671029
0.00670062
0.0126852
0.0148462
0.0166889
0.0180804
0.0191049
0.0198868
0.020525
0.0210779
0.0215645
0.0219682
0.0222443
0.0223279
0.022139
0.0215908
0.0206715
0.0194851
0.0180926
0.016588
0.0150955
0.0137367
0.0125292
0.0115093
0.0105706
0.00957388
0.00846507
0.00723916
0.00594522
0.00461525
0.00334217
0.00222972
0.00136868
0.000778215
0.000326414
6.55758e-05
0.00925095
0.0106994
0.0128937
0.0084314
0.00784082
0.00740721
0.00708988
0.00685904
0.00669221
0.00657292
0.00648845
0.0064294
0.00638867
0.00636111
0.0063428
0.00633097
0.00632372
0.00631985
0.00631865
0.00631996
0.00632446
0.00633638
0.00636041
0.00640019
0.00646219
0.00652153
0.00658296
0.0066511
0.00670421
0.0067228
0.0067106
0.0067006
0.0150912
0.0168939
0.0182119
0.0191523
0.0198531
0.0204234
0.0209333
0.0214159
0.0218697
0.0222633
0.0225437
0.0226433
0.0224813
0.0219676
0.0210763
0.0199025
0.0185014
0.0169623
0.0154106
0.0139779
0.0126967
0.0116068
0.0106318
0.00962568
0.00851061
0.00727894
0.00598061
0.00464603
0.00336711
0.00224803
0.00137757
0.000769112
0.000301218
6.90272e-05
0.00907893
0.0104373
0.0128623
0.0152809
0.0083146
0.00775348
0.00734282
0.0070428
0.00682503
0.00666802
0.006556
0.00647686
0.00642169
0.00638384
0.00635827
0.00634127
0.0063303
0.0063236
0.00632008
0.00631908
0.00632047
0.00632509
0.00633738
0.00636141
0.0064004
0.00646229
0.00652153
0.00658287
0.00665078
0.00670363
0.00672284
0.00671095
0.00670059
0.0170491
0.0182897
0.0191421
0.0197544
0.0202428
0.0206855
0.0211279
0.0215825
0.0220319
0.0224344
0.022733
0.0228596
0.0227337
0.0222622
0.0214069
0.0202552
0.0188565
0.0172958
0.0156976
0.0142012
0.0128327
0.0116894
0.0106983
0.00968161
0.00855937
0.00732141
0.00601801
0.0046784
0.00339327
0.00226662
0.00138604
0.00075491
0.000278436
7.27388e-05
0.00891605
0.0101651
0.0125474
0.0152175
0.0171528
0.00819958
0.00766738
0.00727952
0.00699661
0.00679178
0.00664446
0.00653959
0.00646573
0.00641452
0.00637944
0.00635569
0.00633988
0.00632968
0.0063235
0.00632028
0.00631945
0.00632094
0.00632571
0.00633782
0.0063615
0.00640051
0.00646229
0.00652154
0.0065827
0.00664963
0.00670267
0.00672286
0.00671135
0.00670059
0.0183283
0.0190927
0.0196137
0.0200124
0.020372
0.0207477
0.0211649
0.0216203
0.0220842
0.0225087
0.0228355
0.0229977
0.0229148
0.0224907
0.0216765
0.0205526
0.0191642
0.0175916
0.0159575
0.01438
0.0129477
0.0117795
0.0107706
0.00974197
0.00861154
0.00736665
0.00605743
0.00471229
0.00342036
0.00228575
0.00139179
0.000737866
0.000255677
7.6638e-05
0.00876003
0.00990299
0.0121773
0.0149561
0.0170377
0.0183257
0.0080859
0.00758265
0.00721738
0.00695144
0.0067594
0.0066216
0.00652384
0.00645538
0.00640798
0.00637543
0.00635334
0.00633862
0.00632912
0.00632339
0.00632045
0.00631977
0.00632137
0.00632604
0.00633772
0.00636155
0.00640052
0.0064622
0.00652156
0.00658149
0.00664769
0.00670161
0.00672288
0.00671179
0.00670059
0.0190174
0.0194477
0.0197533
0.0200204
0.0203112
0.0206621
0.0210834
0.0215588
0.0220499
0.0225056
0.0228688
0.0230738
0.0230395
0.0226665
0.021896
0.0208033
0.0194303
0.0178532
0.0161612
0.0145299
0.0130729
0.0118778
0.0108492
0.00980709
0.00866729
0.0074147
0.00609881
0.00474754
0.00344832
0.0023043
0.00139553
0.000715596
0.000234589
8.07674e-05
0.00860868
0.00965449
0.0117898
0.0146175
0.0168463
0.0181523
0.0189108
0.00797362
0.00749947
0.00715657
0.00690742
0.00672797
0.00659967
0.00650918
0.00644593
0.00640202
0.00637176
0.00635119
0.00633745
0.0063286
0.00632327
0.00632058
0.00632005
0.00632165
0.00632606
0.00633766
0.00636154
0.00640041
0.00646201
0.00652052
0.00657927
0.00664561
0.00670044
0.00672287
0.00671226
0.00670061
0.0192683
0.0194811
0.0196507
0.0198451
0.0201088
0.0204647
0.0209104
0.0214185
0.0219452
0.0224396
0.0228465
0.023101
0.0231201
0.0228002
0.0220747
0.0210147
0.0196602
0.0180531
0.0163298
0.0146913
0.0132091
0.0119852
0.0109347
0.0098773
0.00872678
0.00746559
0.00614205
0.00478396
0.00347661
0.00232235
0.00139461
0.000690439
0.00021358
8.49479e-05
0.00846103
0.0094187
0.0114001
0.0142326
0.0165827
0.0180049
0.0186776
0.0190649
0.00786302
0.00741806
0.00709727
0.00686468
0.00669782
0.00657926
0.00649582
0.00643732
0.00639657
0.00636841
0.00634921
0.00633638
0.00632811
0.00632315
0.0063207
0.00632028
0.00632176
0.00632608
0.00633765
0.00636149
0.00640021
0.00646042
0.00651838
0.00657695
0.00664339
0.00669916
0.00672282
0.00671275
0.00670065
0.0192063
0.0192775
0.0193691
0.0195316
0.0197985
0.0201807
0.0206639
0.0212129
0.0217817
0.0223215
0.0227795
0.0230898
0.023166
0.0229008
0.0222201
0.021193
0.0198314
0.0182167
0.0165086
0.0148647
0.0133572
0.0121023
0.0110275
0.00995296
0.00879016
0.0075193
0.00618701
0.0048212
0.00350501
0.0023381
0.00138998
0.000659937
0.000195283
9.00701e-05
0.00831675
0.00919471
0.0110139
0.0138152
0.0162771
0.0177968
0.018543
0.0187719
0.0189128
0.00775447
0.00733871
0.0070397
0.00682368
0.00666976
0.00656065
0.00648363
0.00642945
0.00639159
0.00636534
0.0063474
0.00633538
0.00632764
0.00632304
0.00632085
0.00632042
0.00632182
0.00632607
0.00633769
0.00636138
0.00639874
0.00645742
0.00651618
0.00657456
0.00664104
0.00669778
0.00672273
0.00671326
0.0067007
0.0189108
0.0188977
0.0189504
0.0191117
0.0194042
0.0198268
0.0203561
0.0209513
0.0215677
0.0221601
0.0226768
0.0230489
0.0231853
0.0229748
0.022338
0.0213215
0.0199703
0.0183874
0.0166976
0.0150505
0.0135178
0.0122299
0.0111284
0.0100344
0.00885758
0.00757575
0.00623342
0.00485891
0.00353244
0.0023517
0.0013777
0.00062919
0.000174055
9.53359e-05
0.00817575
0.00898211
0.0106353
0.0133683
0.0159421
0.0175592
0.0183574
0.0186278
0.0185603
0.0185398
0.00764842
0.00726171
0.00698445
0.00678554
0.00664419
0.00654369
0.00647251
0.00642226
0.00638703
0.00636252
0.00634571
0.00633445
0.00632723
0.00632307
0.00632099
0.0063205
0.00632182
0.00632605
0.00633779
0.00636037
0.00639608
0.00645428
0.00651391
0.00657211
0.00663859
0.00669629
0.00672259
0.00671378
0.00670077
0.0184404
0.0183801
0.018425
0.0186089
0.0189414
0.0194147
0.0199936
0.02064
0.0213097
0.0219631
0.0225463
0.0229852
0.023184
0.0230278
0.0224182
0.0214251
0.0201129
0.0185646
0.0168961
0.0152486
0.0136914
0.0123687
0.0112378
0.010122
0.00892913
0.0076348
0.00628096
0.00489636
0.00355858
0.0023596
0.00136161
0.000587257
0.000155522
0.000100167
0.00803797
0.00878086
0.0102688
0.0128898
0.0155804
0.0173056
0.0181535