/*--------------------------------*- C++ -*----------------------------------*\
  =========                 |
  \\      /  F ield         | OpenFOAM: The Open Source CFD Toolbox
   \\    /   O peration     | Website:  https://openfoam.org
    \\  /    A nd           | Version:  8
     \\/     M anipulation  |
\*---------------------------------------------------------------------------*/
FoamFile
{
    version     2.0;
    format      ascii;
    class       surfaceScalarField;
    location    "0.01";
    object      phi;
}
// * * * * * * * * * * * * * * * * * * * * * * * * * * * * * * * * * * * * * //

dimensions      [0 3 -1 0 0 0 0];

internalField   nonuniform List<scalar> 
31053
(
6.4037e-07
1.27396e-05
8.63423e-07
1.51569e-05
3.56659e-07
1.2383e-05
9.48882e-07
1.75545e-05
5.66089e-07
1.49475e-05
2.68221e-07
1.21147e-05
9.73252e-07
2.02156e-05
6.80105e-07
1.74405e-05
4.57953e-07
1.47578e-05
1.95704e-07
1.1919e-05
9.64221e-07
2.3249e-05
7.37983e-07
2.01578e-05
5.79188e-07
1.73193e-05
3.5627e-07
1.45972e-05
1.32471e-07
1.17866e-05
9.33729e-07
2.66905e-05
7.62001e-07
2.3225e-05
6.5063e-07
2.00863e-05
4.68276e-07
1.72073e-05
2.52754e-07
1.44769e-05
8.09262e-08
1.17056e-05
8.87569e-07
3.06662e-05
7.63886e-07
2.66886e-05
6.89675e-07
2.3186e-05
5.38515e-07
2.00161e-05
3.42495e-07
1.71175e-05
1.6055e-07
1.43973e-05
4.26128e-08
1.1663e-05
8.28988e-07
3.51986e-05
7.50114e-07
3.06799e-05
7.07112e-07
2.66712e-05
5.79596e-07
2.31449e-05
4.00982e-07
1.99576e-05
2.22702e-07
1.70554e-05
8.69488e-08
1.4353e-05
1.57835e-08
1.16473e-05
7.61612e-07
4.03874e-05
7.24795e-07
3.52239e-05
7.09326e-07
3.06777e-05
6.00797e-07
2.665e-05
4.35907e-07
2.311e-05
2.6406e-07
1.99162e-05
1.22054e-07
1.70203e-05
3.25459e-08
1.43362e-05
-2.98608e-09
1.16502e-05
6.87955e-07
4.63537e-05
6.892e-07
4.0423e-05
7.00034e-07
3.52332e-05
6.07655e-07
3.06709e-05
4.54352e-07
2.66315e-05
2.88406e-07
2.30856e-05
1.44614e-07
1.98937e-05
4.43031e-08
1.70085e-05
-6.97971e-09
1.43402e-05
-1.7084e-08
1.16673e-05
6.1005e-07
5.32179e-05
6.44936e-07
4.63979e-05
6.79827e-07
4.04432e-05
6.03021e-07
3.52378e-05
4.60939e-07
3.06643e-05
3.00349e-07
2.66196e-05
1.5588e-07
2.30743e-05
4.86571e-08
1.98893e-05
-1.45249e-08
1.70161e-05
-3.72082e-08
1.43603e-05
-2.89039e-08
1.16962e-05
5.30026e-07
6.106e-05
5.93814e-07
5.3269e-05
6.49331e-07
4.64284e-05
5.8973e-07
4.04565e-05
4.5846e-07
3.52403e-05
3.0322e-07
3.06614e-05
1.58239e-07
2.66172e-05
4.55692e-08
2.30774e-05
-2.70645e-08
1.99019e-05
-6.1033e-08
1.70399e-05
-6.25992e-08
1.4394e-05
-3.98048e-08
1.1736e-05
4.49874e-07
7.00622e-05
5.37543e-07
6.11163e-05
6.09637e-07
5.33087e-05
5.68913e-07
4.64492e-05
4.48991e-07
4.04659e-05
2.9915e-07
3.52444e-05
1.53573e-07
3.06661e-05
3.57638e-08
2.6627e-05
-4.5238e-08
2.30956e-05
-8.9392e-08
1.99302e-05
-1.00987e-07
1.70783e-05
-8.60577e-08
1.44403e-05
-5.05398e-08
1.17866e-05
3.7151e-07
8.04104e-05
4.77722e-07
7.0122e-05
5.62146e-07
6.11638e-05
5.40963e-07
5.33367e-05
4.33816e-07
4.64644e-05
2.89571e-07
4.04755e-05
1.43079e-07
3.52549e-05
1.97995e-08
3.0682e-05
-6.93579e-08
2.66511e-05
-1.23191e-07
2.31294e-05
-1.4465e-07
1.99739e-05
-1.38382e-07
1.71306e-05
-1.09184e-07
1.44989e-05
-6.14648e-08
1.1848e-05
3.08617e-07
7.62529e-05
4.1577e-07
8.04723e-05
5.08663e-07
7.01755e-05
5.06578e-07
6.11982e-05
4.13656e-07
5.33568e-05
2.75506e-07
4.64785e-05
1.27503e-07
4.04911e-05
-2.07203e-09
3.52767e-05
-9.98529e-08
3.07125e-05
-1.63321e-07
2.66913e-05
-1.94621e-07
2.31794e-05
-1.97321e-07
2.00328e-05
-1.75473e-07
1.71969e-05
-1.32748e-07
1.45702e-05
-7.27962e-08
1.19208e-05
2.55324e-07
7.62433e-05
3.63395e-07
7.63053e-05
4.51379e-07
8.05296e-05
4.67037e-07
7.0215e-05
3.89147e-07
6.12227e-05
2.57719e-07
5.33746e-05
1.07359e-07
4.64986e-05
-2.98565e-08
4.05189e-05
-1.3727e-07
3.53142e-05
-2.10856e-07
3.07601e-05
-2.52107e-07
2.67488e-05
-2.64054e-07
2.32461e-05
-2.50046e-07
2.01074e-05
-2.13394e-07
1.72775e-05
-1.57225e-07
1.46546e-05
-8.46143e-08
1.20054e-05
2.10596e-07
7.62347e-05
3.16991e-07
7.62897e-05
4.02443e-07
7.63542e-05
4.24335e-07
8.05723e-05
3.61223e-07
7.02429e-05
2.36923e-07
6.12435e-05
8.30711e-08
5.33989e-05
-6.3706e-08
4.65325e-05
-1.82317e-07
4.05639e-05
-2.66916e-07
3.53702e-05
-3.18595e-07
3.08266e-05
-3.40019e-07
2.68247e-05
-3.34291e-07
2.33304e-05
-3.04226e-07
2.01982e-05
-2.52867e-07
1.73732e-05
-1.82796e-07
1.47528e-05
-9.68818e-08
1.21023e-05
1.73333e-07
7.62293e-05
2.75939e-07
7.62758e-05
3.58863e-07
7.63333e-05
3.88082e-07
7.63905e-05
3.3141e-07
8.06021e-05
2.13965e-07
7.02659e-05
5.51047e-08
6.12714e-05
-1.03806e-07
5.3439e-05
-2.35828e-07
4.6586e-05
-3.32764e-07
4.06298e-05
-3.95587e-07
3.54472e-05
-4.2701e-07
3.09135e-05
-4.29873e-07
2.69203e-05
-4.06876e-07
2.3433e-05
-3.6074e-07
2.03061e-05
-2.94114e-07
1.74845e-05
-2.09325e-07
1.48653e-05
-1.09429e-07
1.22118e-05
1.42473e-07
7.62209e-05
2.39634e-07
7.62656e-05
3.203e-07
7.63143e-05
3.56572e-07
7.63648e-05
3.06591e-07
7.64153e-05
1.90045e-07
8.0626e-05
2.40385e-08
7.02969e-05
-1.5024e-07
6.13179e-05
-2.98663e-07
5.35018e-05
-4.09797e-07
4.6663e-05
-4.84743e-07
4.07189e-05
-5.26811e-07
3.5547e-05
-5.3887e-07
3.10225e-05
-5.23253e-07
2.70367e-05
-4.82755e-07
2.3555e-05
-4.198e-07
2.04318e-05
-3.36893e-07
1.76121e-05
-2.36512e-07
1.49923e-05
-1.22108e-07
1.23339e-05
1.17004e-07
7.62155e-05
2.07484e-07
7.6253e-05
2.86368e-07
7.62995e-05
3.29996e-07
7.63409e-05
2.85756e-07
7.63856e-05
1.7056e-07
7.64348e-05
-9.2813e-09
8.06594e-05
-2.02933e-07
7.03496e-05
-3.71528e-07
6.13907e-05
-4.99439e-07
5.35915e-05
-5.87857e-07
4.67661e-05
-6.41362e-07
4.08335e-05
-6.6331e-07
3.56714e-05
-6.5574e-07
3.1155e-05
-6.21107e-07
2.7175e-05
-5.62078e-07
2.36973e-05
-4.81035e-07
2.05759e-05
-3.80756e-07
1.77563e-05
-2.63969e-07
1.51342e-05
-1.34632e-07
1.24685e-05
9.60065e-08
7.6211e-05
1.78982e-07
7.6244e-05
2.5678e-07
7.62826e-05
3.08414e-07
7.63211e-05
2.69337e-07
7.63573e-05
1.5472e-07
7.64015e-05
-3.78814e-08
7.64634e-05
-2.61456e-07
8.07179e-05
-4.54877e-07
7.0433e-05
-6.02884e-07
6.14942e-05
-7.06728e-07
5.37104e-05
-7.72731e-07
4.68975e-05
-8.05378e-07
4.09755e-05
-8.06632e-07
3.58223e-05
-7.78532e-07
3.13125e-05
-7.23476e-07
2.73364e-05
-6.44311e-07
2.38606e-05
-5.43825e-07
2.0739e-05
-4.25049e-07
1.79174e-05
-2.91171e-07
1.52907e-05
-1.46827e-07
1.26153e-05
8.00336e-08
6.9598e-05
1.53778e-07
7.62362e-05
2.31411e-07
7.62693e-05
2.91923e-07
7.62991e-05
2.57718e-07
7.63327e-05
1.43091e-07
7.6369e-05
-6.30299e-08
7.64266e-05
-3.14008e-07
7.65159e-05
-5.48581e-07
8.08116e-05
-7.20941e-07
7.0551e-05
-8.42822e-07
6.16303e-05
-9.22937e-07
5.38606e-05
-9.6737e-07
4.70595e-05
-9.78387e-07
4.11473e-05
-9.57652e-07
3.60015e-05
-9.07145e-07
3.14961e-05
-8.29625e-07
2.75217e-05
-7.28641e-07
2.40454e-05
-6.07236e-07
2.09212e-05
-4.6899e-07
1.80952e-05
-3.17619e-07
1.54615e-05
-1.58387e-07
1.27737e-05
6.78567e-08
6.25562e-05
1.33505e-07
6.96182e-05
2.10236e-07
7.62574e-05
2.80694e-07
7.62806e-05
2.5132e-07
7.63055e-05
1.36319e-07
7.63395e-05
-8.41312e-08
7.63901e-05
-3.62882e-07
7.64755e-05
-6.33906e-07
7.66012e-05
-8.53516e-07
8.09442e-05
-9.97052e-07
7.07053e-05
-1.09352e-06
6.18009e-05
-1.15146e-06
5.40447e-05
-1.17356e-06
4.72547e-05
-1.16126e-06
4.13509e-05
-1.11609e-06
3.62104e-05
-1.04059e-06
3.17071e-05
-9.38513e-07
2.77316e-05
-8.1383e-07
2.4252e-05
-6.702e-07
2.11224e-05
-5.11725e-07
1.82893e-05
-3.42771e-07
1.56459e-05
-1.69158e-07
1.29429e-05
5.8434e-08
5.62274e-05
1.17513e-07
6.25722e-05
1.94605e-07
6.96339e-05
2.74786e-07
7.62633e-05
2.50533e-07
7.62814e-05
1.34862e-07
7.63069e-05
-1.00519e-07
7.63559e-05
-4.07326e-07
7.64345e-05
-7.14495e-07
7.65561e-05
-9.74142e-07
7.67219e-05
-1.16909e-06
8.11162e-05
-1.28531e-06
7.08971e-05
-1.35919e-06
6.20086e-05
-1.3945e-06
5.42656e-05
-1.39224e-06
4.74856e-05
-1.35353e-06
4.15883e-05
-1.28067e-06
3.64505e-05
-1.17756e-06
3.19461e-05
-1.04856e-06
2.79664e-05
-8.98481e-07
2.44803e-05
-7.31482e-07
2.13421e-05
-5.52441e-07
1.8499e-05
-3.66178e-07
1.58429e-05
-1.78878e-07
1.31217e-05
5.10514e-08
5.05394e-05
1.04956e-07
5.624e-05
1.83678e-07
6.25831e-05
2.73977e-07
6.96347e-05
2.55788e-07
7.6258e-05
1.38855e-07
7.62774e-05
-1.11614e-07
7.6318e-05
-4.4663e-07
7.63952e-05
-7.89271e-07
7.65093e-05
-1.088e-06
7.66699e-05
-1.32464e-06
7.68774e-05
-1.49752e-06
8.13284e-05
-1.59117e-06
7.1129e-05
-1.64277e-06
6.22569e-05
-1.65322e-06
5.45266e-05
-1.62275e-06
4.77549e-05
-1.55354e-06
4.18612e-05
-1.44972e-06
3.67227e-05
-1.31607e-06
3.22136e-05
-1.15799e-06
2.82259e-05
-9.8094e-07
2.47297e-05
-7.89944e-07
2.15796e-05
-5.90336e-07
1.87231e-05
-3.87359e-07
1.60514e-05
-1.8744e-07
1.33092e-05
4.52028e-08
4.54258e-05
9.51452e-08
5.05492e-05
1.76467e-07
5.62472e-05
2.7697e-07
6.25801e-05
2.6614e-07
6.96243e-05
1.48148e-07
7.62487e-05
-1.17075e-07
7.62828e-05
-4.80171e-07
7.63516e-05
-8.57339e-07
7.64632e-05
-1.19361e-06
7.66149e-05
-1.47056e-06
7.68159e-05
-1.68797e-06
7.70679e-05
-1.8461e-06
8.15833e-05
-1.91876e-06
7.1405e-05
-1.94583e-06
6.25495e-05
-1.92675e-06
5.48306e-05
-1.86301e-06
4.80643e-05
-1.75923e-06
4.21707e-05
-1.62082e-06
3.70274e-05
-1.45391e-06
3.25096e-05
-1.26468e-06
2.85096e-05
-1.05969e-06
2.49995e-05
-8.44404e-07
2.18337e-05
-6.24694e-07
1.89605e-05
-4.05997e-07
1.627e-05
-1.94671e-07
1.35039e-05
4.05212e-08
4.08307e-05
8.75161e-08
4.54335e-05
1.72109e-07
5.05536e-05
2.8266e-07
5.62415e-05
2.79831e-07
6.25664e-05
1.60993e-07
6.96115e-05
-1.16882e-07
7.62485e-05
-5.0752e-07
7.63102e-05
-9.17957e-07
7.64122e-05
-1.28978e-06
7.65594e-05
-1.60498e-06
7.67493e-05
-1.86535e-06
7.69932e-05
-2.07342e-06
7.72952e-05
-2.22064e-06
8.18852e-05
-2.27034e-06
7.17295e-05
-2.26736e-06
6.28901e-05
-2.21252e-06
5.51801e-05
-2.11043e-06
4.84155e-05
-1.96761e-06
4.25175e-05
-1.79123e-06
3.73647e-05
-1.58841e-06
3.28333e-05
-1.36668e-06
2.88166e-05
-1.13313e-06
2.52882e-05
-8.93856e-07
2.21029e-05
-6.54948e-07
1.92094e-05
-4.21795e-07
1.64971e-05
-2.0055e-07
1.37044e-05
3.67366e-08
3.66998e-05
8.16027e-08
4.08366e-05
1.6987e-07
4.54357e-05
2.90141e-07
5.05461e-05
2.95414e-07
5.62259e-05
1.75889e-07
6.25515e-05
-1.12071e-07
6.96067e-05
-5.28552e-07
7.62696e-05
-9.70569e-07
7.63628e-05
-1.37557e-06
7.6498e-05
-1.72641e-06
7.66808e-05
-2.02746e-06
7.69114e-05
-2.28387e-06
7.72037e-05
-2.48866e-06
7.75632e-05
-2.62443e-06
8.22393e-05
-2.64487e-06
7.2107e-05
-2.60424e-06
6.32818e-05
-2.50737e-06
5.5577e-05
-2.36141e-06
4.88093e-05
-2.17533e-06
4.29016e-05
-1.95767e-06
3.7734e-05
-1.71714e-06
3.31838e-05
-1.46192e-06
2.91454e-05
-1.19992e-06
2.55943e-05
-9.37464e-07
2.23854e-05
-6.80647e-07
1.94683e-05
-4.34589e-07
1.67311e-05
-2.05067e-07
1.39095e-05
3.36472e-08
3.29891e-05
7.70248e-08
3.67044e-05
1.69128e-07
4.08373e-05
2.98658e-07
4.54272e-05
3.11838e-07
5.05296e-05
1.91785e-07
5.621e-05
-1.04417e-07
6.25439e-05
-5.42431e-07
6.96206e-05
-1.01485e-06
7.63139e-05
-1.45024e-06
7.64374e-05
-1.83362e-06
7.66052e-05
-2.1725e-06
7.68259e-05
-2.47496e-06
7.71025e-05
-2.73582e-06
7.74508e-05
-2.93818e-06
7.7877e-05
-3.05656e-06
8.2651e-05
-3.0386e-06
7.25414e-05
-2.95263e-06
6.37271e-05
-2.80691e-06
5.60225e-05
-2.6119e-06
4.92459e-05
-2.37846e-06
4.33224e-05
-2.11714e-06
3.8134e-05
-1.8375e-06
3.35593e-05
-1.54866e-06
2.94941e-05
-1.25892e-06
2.59157e-05
-9.74574e-07
2.26793e-05
-7.01477e-07
1.97352e-05
-4.44484e-07
1.69706e-05
-2.07966e-07
1.41174e-05
3.11023e-08
2.96505e-05
7.34744e-08
3.29926e-05
1.69345e-07
3.67041e-05
3.07599e-07
4.08284e-05
3.28344e-07
4.54107e-05
2.07882e-07
5.05135e-05
-9.52888e-08
5.62009e-05
-5.50904e-07
6.25523e-05
-1.04794e-06
6.96537e-05
-1.51319e-06
7.63768e-05
-1.92561e-06
7.65294e-05
-2.29893e-06
7.67316e-05
-2.64456e-06
7.69955e-05
-2.95934e-06
7.7326e-05
-3.22702e-06
7.77397e-05
-3.42128e-06
7.82417e-05
-3.51268e-06
8.31251e-05
-3.44695e-06
7.30357e-05
-3.30727e-06
6.42274e-05
-3.10633e-06
5.65169e-05
-2.85716e-06
4.97246e-05
-2.57332e-06
4.37786e-05
-2.26645e-06
3.85629e-05
-1.94727e-06
3.39579e-05
-1.62541e-06
2.98606e-05
-1.30922e-06
2.62504e-05
-1.00472e-06
2.29826e-05
-7.17588e-07
2.00083e-05
-4.50992e-07
1.72136e-05
-2.15875e-07
1.43333e-05
2.89877e-08
2.66501e-05
7.07079e-08
2.96533e-05
1.70146e-07
3.29918e-05
3.16532e-07
3.66952e-05
3.44409e-07
4.08123e-05
2.23617e-07
4.5395e-05
-8.5623e-08
5.05039e-05
-5.55622e-07
5.62056e-05
-1.07181e-06
6.25762e-05
-1.56008e-06
6.97005e-05
-2.00146e-06
7.64527e-05
-2.4054e-06
7.66359e-05
-2.79078e-06
7.68779e-05
-3.15672e-06
7.71929e-05
-3.4878e-06
7.75868e-05
-3.75712e-06
7.80755e-05
-3.93321e-06
7.86622e-05
-3.98739e-06
8.36655e-05
-3.86367e-06
7.35921e-05
-3.66242e-06
6.47835e-05
-3.39994e-06
5.70597e-05
-3.09279e-06
5.02441e-05
-2.75605e-06
4.42682e-05
-2.40284e-06
3.90185e-05
-2.04458e-06
3.43771e-05
-1.691e-06
3.02424e-05
-1.35021e-06
2.65959e-05
-1.02803e-06
2.3293e-05
-7.28472e-07
2.02858e-05
-4.60087e-07
1.74578e-05
-2.65736e-07
1.4599e-05
2.72167e-08
2.39558e-05
6.85353e-08
2.66523e-05
1.7126e-07
2.96522e-05
3.25122e-07
3.29832e-05
3.59711e-07
3.66799e-05
2.38631e-07
4.07973e-05
-7.60157e-08
4.53854e-05
-5.57777e-07
5.0506e-05
-1.08863e-06
5.62224e-05
-1.5934e-06
6.26095e-05
-2.05597e-06
6.97551e-05
-2.49073e-06
7.6538e-05
-2.91197e-06
7.67571e-05
-3.32572e-06
7.70469e-05
-3.71766e-06
7.74227e-05
-4.06051e-06
7.78902e-05
-4.32108e-06
7.84634e-05
-4.46785e-06
7.91427e-05
-4.47335e-06
8.42752e-05
-4.28198e-06
7.42117e-05
-4.01138e-06
6.5395e-05
-3.68253e-06
5.76495e-05
-3.31413e-06
5.08022e-05
-2.92327e-06
4.47886e-05
-2.52401e-06
3.94979e-05
-2.12794e-06
3.4814e-05
-1.7446e-06
3.06368e-05
-1.38191e-06
2.69497e-05
-1.04402e-06
2.36086e-05
-7.38554e-07
2.05642e-05
-5.6918e-07
1.77612e-05
-2.53558e-07
1.48526e-05
2.57232e-08
2.15335e-05
6.68104e-08
2.39575e-05
1.72498e-07
2.6651e-05
3.33152e-07
2.96442e-05
3.74005e-07
3.2969e-05
2.52679e-07
3.66659e-05
-6.68165e-08
4.07881e-05
-5.58191e-07
4.53858e-05
-1.10006e-06
5.05175e-05
-1.61611e-06
5.62451e-05
-2.09249e-06
6.2646e-05
-2.54919e-06
6.98135e-05
-3.00659e-06
7.66326e-05
-3.46432e-06
7.68957e-05
-3.91395e-06
7.72431e-05
-4.32813e-06
7.76903e-05
-4.67224e-06
7.82414e-05
-4.91222e-06
7.89078e-05
-5.01697e-06
7.96863e-05
-4.96269e-06
8.49559e-05
-4.69405e-06
7.48943e-05
-4.34798e-06
6.60604e-05
-3.94854e-06
5.82839e-05
-3.51711e-06
5.1396e-05
-3.07215e-06
4.53367e-05
-2.62805e-06
3.9998e-05
-2.19627e-06
3.52657e-05
-1.78611e-06
3.1041e-05
-1.40383e-06
2.73095e-05
-1.05571e-06
2.39257e-05
-9.14288e-07
2.09093e-05
-5.5409e-07
1.80618e-05
-2.47655e-07
1.51003e-05
2.44562e-08
1.93533e-05
6.54207e-08
2.15349e-05
1.7374e-07
2.39563e-05
3.40504e-07
2.66437e-05
3.87146e-07
2.9631e-05
2.65661e-07
3.2956e-05
-5.82064e-08
3.66573e-05
-5.57416e-07
4.07873e-05
-1.10738e-06
4.53931e-05
-1.63057e-06
5.05319e-05
-2.11492e-06
5.62676e-05
-2.58523e-06
6.26821e-05
-3.06857e-06
6.98755e-05
-3.57068e-06
7.6739e-05
-4.07426e-06
7.7056e-05
-4.55687e-06
7.74719e-05
-4.98286e-06
7.80009e-05
-5.31589e-06
7.8645e-05
-5.52151e-06
7.94123e-05
-5.57174e-06
8.02953e-05
-5.44634e-06
8.57082e-05
-5.09267e-06
7.5639e-05
-4.66567e-06
6.67775e-05
-4.1931e-06
5.89599e-05
-3.6983e-06
5.20222e-05
-3.20034e-06
4.5909e-05
-2.71362e-06
4.05154e-05
-2.2493e-06
3.57289e-05
-1.81502e-06
3.14522e-05
-1.418e-06
2.76718e-05
-1.30725e-06
2.43187e-05
-8.96757e-07
2.1252e-05
-5.40929e-07
1.8355e-05
-2.40809e-07
1.53411e-05
1.73971e-05
2.33758e-08
6.42819e-08
1.93544e-05
1.74914e-07
2.15337e-05
3.47129e-07
2.39496e-05
3.99071e-07
2.66318e-05
2.77521e-07
2.96192e-05
-5.0248e-08
3.2948e-05
-5.5583e-07
3.66557e-05
-1.11151e-06
4.07915e-05
-1.63866e-06
4.54012e-05
-2.12648e-06
5.05435e-05
-2.60387e-06
5.62862e-05
-3.10357e-06
6.27171e-05
-3.63819e-06
6.9943e-05
-4.19639e-06
7.68611e-05
-4.74388e-06
7.7243e-05
-5.24929e-06
7.77383e-05
-5.67447e-06
7.83595e-05
-5.98181e-06
7.91053e-05
-6.13931e-06
7.99799e-05
-6.12201e-06
8.0971e-05
-5.91595e-06
8.65315e-05
-5.47015e-06
7.64435e-05
-4.95865e-06
6.75431e-05
-4.41207e-06
5.96736e-05
-3.85479e-06
5.26766e-05
-3.30615e-06
4.65016e-05
-2.78023e-06
4.10463e-05
-2.2865e-06
3.62004e-05
-1.83266e-06
3.18668e-05
-1.75638e-06
2.8121e-05
-1.28686e-06
2.47088e-05
-8.76475e-07
2.15875e-05
-5.25343e-07
1.86396e-05
-2.32538e-07
1.55736e-05
1.7398e-05
6.33299e-08
2.78118e-05
2.15819e-08
1.75983e-07
1.93533e-05
3.53031e-07
2.15278e-05
4.09782e-07
2.39389e-05
2.88248e-07
2.6621e-05
-4.29341e-08
2.96119e-05
-5.53679e-07
3.29459e-05
-1.11319e-06
3.66573e-05
-1.64186e-06
4.07947e-05
-2.12978e-06
4.54045e-05
-2.60926e-06
5.05489e-05
-3.1178e-06
5.63004e-05
-3.67381e-06
6.27527e-05
-4.27287e-06
7.00195e-05
-4.88655e-06
7.70038e-05
-5.46819e-06
7.74619e-05
-5.98373e-06
7.80476e-05
-6.39286e-06
7.87706e-05
-6.65968e-06
7.96257e-05
-6.75453e-06
8.06124e-05
-6.65845e-06
8.17135e-05
-6.36258e-06
8.74239e-05
-5.81966e-06
7.73045e-05
-5.22197e-06
6.8353e-05
-4.60192e-06
6.04208e-05
-3.98452e-06
5.3355e-05
-3.38886e-06
4.71102e-05
-2.82732e-06
4.15871e-05
-2.30871e-06
3.66764e-05
-2.27075e-06
3.23812e-05
-1.73266e-06
2.85668e-05
-1.25901e-06
2.50913e-05
-8.51449e-07
2.19137e-05
-5.06772e-07
1.89138e-05
-2.2311e-07
1.57967e-05
1.73971e-05
1.76934e-07
2.78141e-05
6.10112e-08
2.85517e-05
1.9884e-08
3.58241e-07
1.93481e-05
4.19317e-07
2.15183e-05
2.97871e-07
2.39293e-05
-3.62303e-08
2.66143e-05
-5.51112e-07
2.96093e-05
-1.11296e-06
3.29456e-05
-1.64134e-06
3.66568e-05
-2.12692e-06
4.07918e-05
-2.60476e-06
4.54e-05
-3.11642e-06
5.05475e-05
-3.68504e-06
5.63117e-05
-4.312e-06
6.27918e-05
-4.97611e-06
7.01091e-05
-5.63644e-06
7.7172e-05
-6.23971e-06
7.77179e-05
-6.74978e-06
7.84045e-05
-7.1272e-06
7.92381e-05
-7.33761e-06
8.02088e-05
-7.35694e-06
8.13109e-05
-7.17104e-06
8.2522e-05
-6.77827e-06
8.83825e-05
-6.13531e-06
7.82179e-05
-5.45136e-06
6.92024e-05
-4.7601e-06
6.11964e-05
-4.08647e-06
5.40526e-05
-3.44783e-06
4.77307e-05
-2.85542e-06
4.21338e-05
-2.86172e-06
3.72674e-05
-2.24323e-06
3.28918e-05
-1.6966e-06
2.90044e-05
-1.22361e-06
2.54635e-05
-8.21457e-07
2.22283e-05
-4.85886e-07
1.91766e-05
-2.12844e-07
1.60096e-05
1.73925e-05
3.62805e-07
2.78153e-05
1.75739e-07
2.8554e-05
5.87223e-08
2.93116e-05
1.82825e-08
4.27741e-07
1.93397e-05
3.06448e-07
2.15097e-05
-3.00975e-08
2.39232e-05
-5.48235e-07
2.66115e-05
-1.1113e-06
2.96076e-05
-1.63807e-06
3.29424e-05
-2.11956e-06
3.66495e-05
-2.5931e-06
4.07801e-05
-3.10356e-06
4.53871e-05
-3.67803e-06
5.05405e-05
-4.32262e-06
5.63223e-05
-5.02216e-06
6.28379e-05
-5.74344e-06
7.02161e-05
-6.43868e-06
7.7371e-05
-7.04792e-06
7.8016e-05
-7.5363e-06
7.88136e-05
-7.86499e-06
7.97655e-05
-8.00463e-06
8.08565e-05
-7.93552e-06
8.20754e-05
-7.65074e-06
8.33945e-05
-7.15605e-06
8.94032e-05
-6.41196e-06
7.91785e-05
-5.6437e-06
7.0086e-05
-4.88528e-06
6.19952e-05
-4.15989e-06
5.47646e-05
-3.48343e-06
4.83587e-05
-3.54096e-06
4.28131e-05
-2.82993e-06
3.78541e-05
-2.19819e-06
3.33934e-05
-1.64966e-06
2.94304e-05
-1.18099e-06
2.5823e-05
-7.87673e-07
2.25301e-05
-4.63313e-07
1.94271e-05
-2.02049e-07
1.62116e-05
1.73851e-05
4.35146e-07
2.78122e-05
3.65936e-07
2.85554e-05
1.74281e-07
2.93139e-05
5.64256e-08
3.00895e-05
1.67756e-08
3.14053e-07
1.93321e-05
-2.44974e-08
2.15041e-05
-5.45138e-07
2.39201e-05
-1.10859e-06
2.66088e-05
-1.6328e-06
2.96024e-05
-2.10902e-06
3.29318e-05
-2.57641e-06
3.66328e-05
-3.08257e-06
4.07592e-05
-3.65778e-06
4.53669e-05
-4.31198e-06
5.05299e-05
-5.03497e-06
5.63351e-05
-5.80006e-06
6.28945e-05
-6.56768e-06
7.03451e-05
-7.28283e-06
7.76059e-05
-7.88155e-06
7.83613e-05
-8.33035e-06
7.9279e-05
-8.59465e-06
8.03555e-05
-8.64882e-06
8.15698e-05
-8.48025e-06
8.29049e-05
-8.08959e-06
8.4328e-05
-7.48978e-06
9.04811e-05
-6.64582e-06
8.01806e-05
-5.79726e-06
7.0998e-05
-4.97652e-06
6.28118e-05
-4.20503e-06
5.54862e-05
-4.32199e-06
4.91397e-05
-3.50453e-06
4.34877e-05
-2.77501e-06
3.84309e-05
-2.13836e-06
3.3882e-05
-1.59291e-06
2.98423e-05
-1.13283e-06
2.61682e-05
-7.51159e-07
2.2818e-05
-4.39648e-07
1.96647e-05
-1.90974e-07
1.64026e-05
1.73784e-05
3.20767e-07
2.78023e-05
4.45011e-07
2.8553e-05
3.68334e-07
2.93158e-05
1.72426e-07
3.00919e-05
5.40777e-08
3.08894e-05
1.5361e-08
-1.93947e-08
1.9327e-05
-5.41906e-07
2.15009e-05
-1.10513e-06
2.39166e-05
-1.62614e-06
2.66021e-05
-2.09634e-06
2.95897e-05
-2.55636e-06
3.29118e-05
-3.05604e-06
3.66062e-05
-3.62824e-06
4.07296e-05
-4.28594e-06
4.53408e-05
-5.02295e-06
5.05178e-05
-5.81805e-06
5.63531e-05
-6.63876e-06
6.29656e-05
-7.43858e-06
7.05008e-05
-8.15768e-06
7.7882e-05
-8.72743e-06
7.87584e-05
-9.11992e-06
7.98042e-05
-9.30349e-06
8.10102e-05
-9.25925e-06
8.23488e-05
-8.98219e-06
8.37975e-05
-8.48049e-06
8.53187e-05
-7.77483e-06
9.16101e-05
-6.83463e-06
8.12179e-05
-5.91083e-06
7.19323e-05
-5.03395e-06
6.36407e-05
-5.22055e-06
5.63848e-05
-4.28077e-06
4.9916e-05
-3.43875e-06
4.41514e-05
-2.70073e-06
3.89933e-05
-2.06569e-06
3.43548e-05
-1.52856e-06
3.02381e-05
-1.08066e-06
2.64977e-05
-7.12869e-07
2.30912e-05
-4.15402e-07
1.98891e-05
-1.79823e-07
1.65824e-05
1.73738e-05
-1.47476e-08
2.77873e-05
3.35735e-07
2.8544e-05
4.54077e-07
2.93143e-05
3.69809e-07
3.00942e-05
1.70103e-07
3.08918e-05
5.16553e-08
3.17093e-05
1.40326e-08
-5.38615e-07
1.93237e-05
-1.10114e-06
2.14969e-05
-1.61855e-06
2.3909e-05
-2.08231e-06
2.65881e-05
-2.53423e-06
2.95676e-05
-3.02599e-06
3.28817e-05
-3.59251e-06
3.65705e-05
-4.24915e-06
4.06928e-05
-4.99294e-06
4.53108e-05
-5.8071e-06
5.05069e-05
-6.66519e-06
5.63795e-05
-7.52827e-06
6.30553e-05
-8.34515e-06
7.06883e-05
-9.05004e-06
7.82046e-05
-9.57333e-06
7.92118e-05
-9.89174e-06
8.03925e-05
-9.9798e-06
8.17307e-05
-9.82607e-06
8.31927e-05
-9.43326e-06
8.47502e-05
-8.81793e-06
8.63618e-05
-8.00826e-06
9.27837e-05
-6.97686e-06
8.2284e-05
-5.98442e-06
7.28828e-05
-6.25454e-06
6.46747e-05
-5.1748e-06
5.72788e-05
-4.20317e-06
5.06804e-05
-3.34835e-06
4.4799e-05
-2.61008e-06
3.95377e-05
-1.98303e-06
3.48093e-05
-1.45871e-06
3.06161e-05
-1.02588e-06
2.68107e-05
-6.73622e-07
2.33494e-05
-3.91012e-07
2.01003e-05
-1.68773e-07
1.67512e-05
1.73705e-05
-5.35331e-07
2.77654e-05
7.17107e-09
2.85294e-05
3.50287e-07
2.93062e-05
4.62153e-07
3.00939e-05
3.70129e-07
3.08947e-05
1.67199e-07
3.17118e-05
4.91504e-08
3.25532e-05
1.27879e-08
-1.09684e-06
1.93194e-05
-1.61041e-06
2.14887e-05
-2.06753e-06
2.38942e-05
-2.51101e-06
2.65648e-05
-2.99397e-06
2.95355e-05
-3.55298e-06
3.28422e-05
-4.20525e-06
3.65266e-05
-4.95032e-06
4.06502e-05
-5.77504e-06
4.52787e-05
-6.65795e-06
5.04997e-05
-7.56671e-06
5.6418e-05
-8.45797e-06
6.31681e-05
-9.27442e-06
7.09127e-05
-9.94765e-06
7.8579e-05
-1.04055e-05
7.97256e-05
-1.06334e-05
8.10461e-05
-1.06129e-05
8.25175e-05
-1.03402e-05
8.40996e-05
-9.82704e-06
8.57593e-05
-9.09828e-06
8.74518e-05
-8.188e-06
9.39949e-05
-7.07225e-06
8.33718e-05
-7.44304e-06
7.40713e-05
-6.20534e-06
6.57052e-05
-5.08464e-06
5.81603e-05
-4.09488e-06
5.14269e-05
-3.2374e-06
4.54264e-05
-2.50664e-06
4.00613e-05
-1.8931e-06
3.52437e-05
-1.38523e-06
3.09755e-05
-9.69661e-07
2.71067e-05
-6.3413e-07
2.35925e-05
-3.66861e-07
2.02984e-05
-1.5794e-07
1.69091e-05
1.7366e-05
-1.09235e-06
2.77355e-05
-5.05451e-07
2.85072e-05
2.94014e-08
2.92923e-05
3.64173e-07
3.00872e-05
4.68835e-07
3.08958e-05
3.69062e-07
3.17155e-05
1.63571e-07
3.25558e-05
4.65701e-08
3.34192e-05
1.16169e-08
-1.602e-06
1.9311e-05
-2.05248e-06
2.14737e-05
-2.48742e-06
2.38707e-05
-2.96114e-06
2.6532e-05
-3.51147e-06
2.9494e-05
-4.15705e-06
3.2794e-05
-4.89936e-06
3.64757e-05
-5.72811e-06
4.06033e-05
-6.62599e-06
4.52468e-05
-7.56621e-06
5.04992e-05
-8.51241e-06
5.64724e-05
-9.41521e-06
6.33089e-05
-1.02143e-05
7.11793e-05
-1.08366e-05
7.901e-05
-1.12112e-05
8.03033e-05
-1.13335e-05
8.17667e-05
-1.11927e-05
8.337e-05
-1.07944e-05
8.50669e-05
-1.01591e-05
8.68202e-05
-9.31884e-06
8.85827e-05
-8.31337e-06
9.5236e-05
-8.80802e-06
8.47368e-05
-7.39297e-06
7.52589e-05
-6.10247e-06
6.67231e-05
-4.95679e-06
5.90222e-05
-3.96114e-06
5.21507e-05
-3.11036e-06
4.60301e-05
-2.39382e-06
4.0562e-05
-1.79834e-06
3.56568e-05
-1.30973e-06
3.13155e-05
-9.13041e-07
2.73856e-05
-5.95011e-07
2.38207e-05
-3.43202e-07
2.04836e-05
-1.47443e-07
1.70566e-05
1.73575e-05
-1.59351e-06
2.76966e-05
-1.05336e-06
2.84763e-05
-4.7452e-07
2.92699e-05
5.1842e-08
3.00741e-05
3.77204e-07
3.08908e-05
4.73836e-07
3.17182e-05
3.66341e-07
3.25603e-05
1.59096e-07
3.34218e-05
4.39233e-08
3.43051e-05
1.05131e-08
-2.0375e-06
1.9296e-05
-2.46401e-06
2.14503e-05
-2.92836e-06
2.38379e-05
-3.46934e-06
2.64899e-05
-4.10668e-06
2.94437e-05
-4.84332e-06
3.2738e-05
-5.67124e-06
3.64188e-05
-6.57645e-06
4.05537e-05
-7.53686e-06
4.52174e-05
-8.52211e-06
5.05089e-05
-9.49007e-06
5.65473e-05
-1.03882e-05
6.34828e-05
-1.11508e-05
7.14935e-05
-1.17037e-05
7.95026e-05
-1.19781e-05
8.0948e-05
-1.19811e-05
8.25551e-05
-1.1711e-05
8.42867e-05
-1.11833e-05
8.6091e-05
-1.04262e-05
8.79275e-05
-9.47844e-06
8.97477e-05
-1.03728e-05
9.68007e-05
-8.76197e-06
8.61058e-05
-7.27852e-06
7.6435e-05
-5.95379e-06
6.77201e-05
-4.79771e-06
5.98588e-05
-3.80741e-06
5.28477e-05
-2.97145e-06
4.66077e-05
-2.27472e-06
4.10384e-05
-1.70083e-06
3.60479e-05
-1.2336e-06
3.16361e-05
-8.56913e-07
2.76475e-05
-5.56678e-07
2.40342e-05
-3.20281e-07
2.06565e-05
-1.37356e-07
1.71939e-05
1.73428e-05
-2.02284e-06
2.76469e-05
-1.54384e-06
2.84356e-05
-1.01269e-06
2.92378e-05
-4.42468e-07
3.00517e-05
7.42739e-08
3.08791e-05
3.8894e-07
3.17152e-05
4.76777e-07
3.25649e-05
3.61707e-07
3.34272e-05
1.53755e-07
3.43078e-05
4.12017e-08
3.5219e-05
9.47133e-09
-2.44119e-06
1.92732e-05
-2.89625e-06
2.14182e-05
-3.42761e-06
2.37961e-05
-4.05575e-06
2.64389e-05
-4.78472e-06
2.9385e-05
-5.60824e-06
3.2675e-05
-6.515e-06
3.63573e-05
-7.48677e-06
4.05037e-05
-8.49834e-06
4.51936e-05
-9.51394e-06
5.05327e-05
-1.04883e-05
5.66474e-05
-1.13632e-05
6.36952e-05
-1.20708e-05
7.18606e-05
-1.25364e-05
8.00608e-05
-1.26948e-05
8.16617e-05
-1.2567e-05
8.34111e-05
-1.21618e-05
8.52652e-05
-1.15027e-05
8.71676e-05
-1.06263e-05
8.90754e-05
-1.18504e-05
9.12254e-05
-1.03395e-05
9.83783e-05
-8.639e-06
8.74663e-05
-7.10875e-06
7.75899e-05
-5.76709e-06
6.86894e-05
-4.61404e-06
6.06654e-05
-3.63886e-06
5.35151e-05
-2.82454e-06
4.71575e-05
-2.15201e-06
4.14896e-05
-1.60241e-06
3.64167e-05
-1.15806e-06
3.19372e-05
-8.01877e-07
2.78927e-05
-5.1953e-07
2.42334e-05
-2.98267e-07
2.08174e-05
-1.27722e-07
1.73216e-05
1.73209e-05
-2.41921e-06
2.75829e-05
-1.95884e-06
2.83838e-05
-1.49205e-06
2.91954e-05
-9.70305e-07
3.00186e-05
-4.09371e-07
3.08569e-05
9.64562e-08
3.17052e-05
3.99023e-07
3.25645e-05
4.77235e-07
3.34341e-05
3.54795e-07
3.43141e-05
1.47455e-07
3.52218e-05
3.83968e-08
3.6155e-05
8.48364e-09
-2.86526e-06
1.92422e-05
-3.38697e-06
2.13775e-05
-4.00542e-06
2.37458e-05
-4.72542e-06
2.63796e-05
-5.54202e-06
2.93188e-05
-6.44605e-06
3.2606e-05
-7.42241e-06
3.6293e-05
-8.45021e-06
4.04555e-05
-9.49924e-06
4.51789e-05
-1.05308e-05
5.05752e-05
-1.14938e-05
5.67779e-05
-1.23271e-05
6.39515e-05
-1.29613e-05
7.22856e-05
-1.33223e-05
8.06883e-05
-1.33511e-05
8.24457e-05
-1.30843e-05
8.43337e-05
-1.25398e-05
8.63023e-05
-1.17501e-05
8.82914e-05
-1.33163e-05
9.05412e-05
-1.18391e-05
9.2725e-05
-1.02148e-05
9.9954e-05
-8.44951e-06
8.8807e-05
-6.89278e-06
7.87156e-05
-5.55029e-06
6.96257e-05
-4.41201e-06
6.14386e-05
-3.46024e-06
5.41508e-05
-2.67298e-06
4.76785e-05
-2.02802e-06
4.19152e-05
-1.50467e-06
3.67633e-05
-1.08394e-06
3.22193e-05
-7.48513e-07
2.81217e-05
-4.83844e-07
2.4419e-05
-2.77251e-07
2.09669e-05
-1.18578e-07
1.74402e-05
1.72913e-05
-2.83569e-06
2.75001e-05
-2.33646e-06
2.83173e-05
-1.89232e-06
2.91411e-05
-1.4377e-06
2.99741e-05
-9.25809e-07
3.08228e-05
-3.75264e-07
3.16836e-05
1.18059e-07
3.25565e-05
4.07019e-07
3.34366e-05
4.74731e-07
3.43235e-05
3.45406e-07
3.52291e-05
1.40177e-07
3.61579e-05
3.54936e-08
3.65889e-05
7.55697e-09
-3.34795e-06
1.92032e-05
-3.95652e-06
2.13286e-05
-4.66679e-06
2.36872e-05
-5.47479e-06
2.63124e-05
-6.37299e-06
2.92458e-05
-7.34883e-06
3.25324e-05
-8.38504e-06
3.62278e-05
-9.45612e-06
4.04124e-05
-1.05292e-05
4.51773e-05
-1.15598e-05
5.06412e-05
-1.24935e-05
5.69443e-05
-1.32669e-05
6.42571e-05
-1.38097e-05
7.27729e-05
-1.40508e-05
8.1388e-05
-1.39392e-05
8.33006e-05
-1.3527e-05
8.53208e-05
-1.28417e-05
8.73938e-05
-1.47629e-05
8.97381e-05
-1.33379e-05
9.204e-05
-1.17224e-05
9.42326e-05
-1.00103e-05
0.000101515
-8.20407e-06
9.01183e-05
-6.63999e-06
7.98053e-05
-5.31085e-06
7.05245e-05
-4.19741e-06
6.21757e-05
-3.27568e-06
5.47535e-05
-2.51965e-06
4.81701e-05
-1.90477e-06
4.23153e-05
-1.40869e-06
3.70881e-05
-1.01203e-06
3.24828e-05
-6.97224e-07
2.83351e-05
-4.49771e-07
2.45915e-05
-2.57313e-07
2.11056e-05
-1.09949e-07
1.75502e-05
1.72542e-05
-3.31087e-06
2.73941e-05
-2.72964e-06
2.82323e-05
-2.25147e-06
2.90722e-05
-1.82344e-06
2.99174e-05
-1.38101e-06
3.07764e-05
-8.79409e-07
3.16486e-05
-3.40291e-07
3.25358e-05
1.38707e-07
3.34311e-05
4.12483e-07
3.43295e-05
4.68784e-07
3.52412e-05
3.33317e-07
3.61662e-05
1.31898e-07
3.65919e-05
3.25161e-08
3.55528e-05
6.71539e-09
-3.90965e-06
1.91563e-05
-4.60982e-06
2.12717e-05
-5.40815e-06
2.36205e-05
-6.29838e-06
2.62378e-05
-7.26996e-06
2.91669e-05
-8.30858e-06
3.2456e-05
-9.39275e-06
3.61644e-05
-1.04946e-05
4.03779e-05
-1.15757e-05
4.51933e-05
-1.25881e-05
5.07358e-05
-1.34745e-05
5.7152e-05
-1.41696e-05
6.46171e-05
-1.46045e-05
7.33266e-05
-1.47131e-05
8.21619e-05
-1.44521e-05
8.42257e-05
-1.38907e-05
8.63698e-05
-1.61809e-05
8.88118e-05
-1.48299e-05
9.12302e-05
-1.32404e-05
9.3558e-05
-1.15131e-05
9.57354e-05
-9.73803e-06
0.000103049
-7.9136e-06
9.13919e-05
-6.35925e-06
8.08537e-05
-5.05569e-06
7.13828e-05
-3.97526e-06
6.28753e-05
-3.08875e-06
5.53226e-05
-2.36711e-06
4.86325e-05
-1.78365e-06
4.26902e-05
-1.31551e-06
3.73915e-05
-9.42877e-07
3.27285e-05
-6.48235e-07
2.85336e-05
-4.1744e-07
2.47516e-05
-2.38505e-07
2.12342e-05
-1.01839e-07
1.7652e-05
1.72097e-05
-3.86517e-06
2.72614e-05
-3.17821e-06
2.8124e-05
-2.62132e-06
2.89843e-05
-2.16357e-06
2.98459e-05
-1.75189e-06
3.0717e-05
-1.32164e-06
3.16e-05
-8.30852e-07
3.25002e-05
-3.04668e-07
3.34119e-05
1.57944e-07
3.4327e-05
4.14927e-07
3.52511e-05
4.58937e-07
3.61811e-05
3.18365e-07
3.6601e-05
1.22796e-07
3.55558e-05
2.95934e-08
3.45448e-05
5.94465e-09
-4.55519e-06
1.91017e-05
-5.34326e-06
2.12068e-05
-6.2241e-06
2.35462e-05
-7.18877e-06
2.61566e-05
-8.22533e-06