/*--------------------------------*- C++ -*----------------------------------*\
  =========                 |
  \\      /  F ield         | OpenFOAM: The Open Source CFD Toolbox
   \\    /   O peration     | Website:  https://openfoam.org
    \\  /    A nd           | Version:  8
     \\/     M anipulation  |
\*---------------------------------------------------------------------------*/
FoamFile
{
    version     2.0;
    format      ascii;
    class       volVectorField;
    location    "1400";
    object      U;
}
// * * * * * * * * * * * * * * * * * * * * * * * * * * * * * * * * * * * * * //

dimensions      [0 1 -1 0 0 0 0];

internalField   nonuniform List<vector> 
15677
(
(-2.53854 9.06393 0)
(0.792669 10.3668 0)
(-1.33224 8.26485 0)
(0.128818 10.0152 0)
(0.667038 10.1118 0)
(-0.415148 7.73405 0)
(0.00637827 10.0051 0)
(-0.0361393 10.0874 0)
(0.29485 9.68011 0)
(-0.0847458 7.35042 0)
(0.0282749 10.0104 0)
(0.0130615 10.0516 0)
(-0.047068 10.0468 0)
(0.0986626 9.29153 0)
(-0.00294584 7.07952 0)
(0.0300723 10.0104 0)
(0.0455237 10.0449 0)
(0.0452183 10.0707 0)
(-0.00453506 9.94031 0)
(0.0303571 8.97581 0)
(0.00794894 6.89141 0)
(0.0275093 10.0096 0)
(0.0398253 10.0408 0)
(0.0439688 10.0631 0)
(0.050817 10.0625 0)
(0.0199697 9.80252 0)
(0.0125879 8.72011 0)
(0.00556451 6.75946 0)
(0.025151 10.0086 0)
(0.0369466 10.0375 0)
(0.0376513 10.0572 0)
(0.0383738 10.0714 0)
(0.0421111 10.0343 0)
(0.0252904 9.65338 0)
(0.00872511 8.51608 0)
(0.00295772 6.66372 0)
(0.0229483 10.0075 0)
(0.0352493 10.0344 0)
(0.0368453 10.0531 0)
(0.0371521 10.0683 0)
(0.03463 10.0735 0)
(0.0338775 9.99247 0)
(0.0228744 9.50832 0)
(0.00727344 8.35819 0)
(0.00156877 6.5959 0)
(0.0206672 10.0065 0)
(0.0333501 10.0314 0)
(0.0357789 10.0496 0)
(0.0368586 10.0644 0)
(0.03568 10.0774 0)
(0.0322623 10.0693 0)
(0.0285251 9.94189 0)
(0.0187976 9.3754 0)
(0.00588761 8.23816 0)
(0.000833535 6.54725 0)
(0.018322 10.0054 0)
(0.0312047 10.0283 0)
(0.034298 10.0463 0)
(0.0356439 10.0608 0)
(0.0349423 10.0753 0)
(0.0331128 10.0838 0)
(0.029823 10.0602 0)
(0.0245973 9.88787 0)
(0.0148983 9.25878 0)
(0.00438997 8.1489 0)
(0.000241489 6.51745 0)
(0.0159736 10.0044 0)
(0.0288865 10.025 0)
(0.0326171 10.0429 0)
(0.0342246 10.0574 0)
(0.0336855 10.072 0)
(0.0321362 10.0849 0)
(0.0300854 10.0883 0)
(0.0268518 10.049 0)
(0.0209965 9.83376 0)
(0.0113975 9.16316 0)
(0.00278918 8.0849 0)
(-0.000288169 6.50509 0)
(0.0136751 10.0036 0)
(0.0264167 10.0217 0)
(0.030732 10.0393 0)
(0.0326501 10.054 0)
(0.0322981 10.0686 0)
(0.0308971 10.0827 0)
(0.0290927 10.0941 0)
(0.0267589 10.0926 0)
(0.0233797 10.0378 0)
(0.0172422 9.78327 0)
(0.00807558 9.08855 0)
(0.00115678 8.04242 0)
(-0.000745317 6.50669 0)
(0.0114894 10.0028 0)
(0.0238239 10.0185 0)
(0.0286125 10.0355 0)
(0.0308541 10.0505 0)
(0.0307064 10.0652 0)
(0.0294165 10.0797 0)
(0.0277404 10.0937 0)
(0.0256903 10.1042 0)
(0.0230655 10.0979 0)
(0.0194434 10.0281 0)
(0.0131905 9.73926 0)
(0.00481353 9.03438 0)
(-0.000457316 8.02101 0)
(-0.00122483 6.52057 0)
(0.00963099 10.0022 0)
(0.0211447 10.0154 0)
(0.0262579 10.0316 0)
(0.0288 10.0466 0)
(0.0288741 10.0615 0)
(0.0276679 10.0763 0)
(0.0260118 10.0913 0)
(0.0240573 10.1061 0)
(0.0217371 10.116 0)
(0.0188534 10.1055 0)
(0.015015 10.0218 0)
(0.00882276 9.70473 0)
(0.0015007 9.00026 0)
(-0.00216026 8.01919 0)
(-0.00179304 6.54748 0)
(0.00813604 10.0017 0)
(0.0186626 10.0128 0)
(0.0236963 10.0275 0)
(0.0264653 10.0425 0)
(0.0267776 10.0576 0)
(0.0256489 10.0726 0)
(0.0239514 10.0881 0)
(0.0219376 10.1046 0)
(0.0196637 10.1206 0)
(0.0170609 10.1305 0)
(0.0139625 10.1166 0)
(0.0100233 10.0204 0)
(0.00410606 9.6817 0)
(-0.0019952 8.98581 0)
(-0.00404769 8.03583 0)
(-0.00244934 6.58783 0)
(0.00690134 10.0014 0)
(0.0164906 10.0108 0)
(0.0212193 10.0239 0)
(0.0238495 10.0381 0)
(0.024389 10.0533 0)
(0.0233395 10.0686 0)
(0.0215678 10.0845 0)
(0.0194045 10.1017 0)
(0.0169959 10.1203 0)
(0.0143772 10.1381 0)
(0.0115012 10.1487 0)
(0.00827771 10.1324 0)
(0.0043885 10.0256 0)
(-0.00104401 9.67212 0)
(-0.00575499 8.99045 0)
(-0.00615502 8.0695 0)
(-0.00318627 6.64192 0)
(0.00587319 10.0011 0)
(0.0145442 10.0091 0)
(0.0189773 10.0209 0)
(0.0212532 10.0339 0)
(0.021689 10.0486 0)
(0.0207124 10.0642 0)
(0.0188438 10.0805 0)
(0.0164691 10.0981 0)
(0.0138078 10.1178 0)
(0.0109756 10.1391 0)
(0.0080115 10.1594 0)
(0.00493507 10.1716 0)
(0.0017005 10.1539 0)
(-0.00199042 10.039 0)
(-0.0066862 9.67689 0)
(-0.00981963 9.01344 0)
(-0.0084808 8.11999 0)
(-0.00399243 6.70959 0)
(0.00501087 10.0009 0)
(0.0128005 10.0077 0)
(0.0169055 10.0184 0)
(0.018869 10.0303 0)
(0.0189683 10.044 0)
(0.0177466 10.0592 0)
(0.0157563 10.0759 0)
(0.0131195 10.094 0)
(0.0101127 10.1142 0)
(0.00692199 10.1371 0)
(0.00365637 10.1618 0)
(0.000407519 10.1855 0)
(-0.00276541 10.2001 0)
(-0.00588972 10.1824 0)
(-0.00917977 10.0618 0)
(-0.0128612 9.69706 0)
(-0.0142223 9.05418 0)
(-0.0109999 8.18638 0)
(-0.00485847 6.79055 0)
(0.00428377 10.0007 0)
(0.0112389 10.0066 0)
(0.0149973 10.0162 0)
(0.0166392 10.0272 0)
(0.0164397 10.0398 0)
(0.0147521 10.0542 0)
(0.0122894 10.0706 0)
(0.00933891 10.0891 0)
(0.00590307 10.1099 0)
(0.00222969 10.1335 0)
(-0.00150741 10.1603 0)
(-0.00515842 10.1892 0)
(-0.00859585 10.2171 0)
(-0.0117451 10.2353 0)
(-0.0145817 10.2188 0)
(-0.017218 10.0953 0)
(-0.0195834 9.73277 0)
(-0.0189635 9.11206 0)
(-0.0137098 8.26829 0)
(-0.00577303 6.88437 0)
(0.00366907 10.0006 0)
(0.00984071 10.0057 0)
(0.0132455 10.0143 0)
(0.0145667 10.0243 0)
(0.0140548 10.036 0)
(0.0119631 10.0496 0)
(0.00880433 10.0652 0)
(0.00512002 10.0834 0)
(0.00116799 10.1046 0)
(-0.00310758 10.1289 0)
(-0.00747158 10.1567 0)
(-0.0117176 10.1882 0)
(-0.0156634 10.2222 0)
(-0.0191661 10.2552 0)
(-0.0221143 10.278 0)
(-0.0244252 10.2641 0)
(-0.0261105 10.1403 0)
(-0.0268441 9.78431 0)
(-0.0240401 9.18648 0)
(-0.0165952 8.36493 0)
(-0.00671841 6.99035 0)
(0.0031663 10.0005 0)
(0.00859095 10.0049 0)
(0.0116426 10.0126 0)
(0.012651 10.0218 0)
(0.0118279 10.0326 0)
(0.00933293 10.0452 0)
(0.00557057 10.06 0)
(0.000905785 10.0774 0)
(-0.00408887 10.0984 0)
(-0.00909646 10.1231 0)
(-0.0142453 10.1516 0)
(-0.0192727 10.1845 0)
(-0.0239408 10.2216 0)
(-0.0280527 10.2616 0)
(-0.0314347 10.3006 0)
(-0.0339373 10.3289 0)
(-0.0354278 10.319 0)
(-0.0358381 10.1974 0)
(-0.0346268 9.85143 0)
(-0.0294354 9.27662 0)
(-0.0196364 8.47564 0)
(-0.00768239 7.10766 0)
(0.00276843 10.0004 0)
(0.00752292 10.0043 0)
(0.0101821 10.0112 0)
(0.0108903 10.0195 0)
(0.00976728 10.0294 0)
(0.00688371 10.0411 0)
(0.00253651 10.0549 0)
(-0.00298227 10.0715 0)
(-0.00930845 10.0916 0)
(-0.0157207 10.1161 0)
(-0.021833 10.1452 0)
(-0.0278407 10.179 0)
(-0.0334492 10.2178 0)
(-0.0384031 10.2613 0)
(-0.0424815 10.308 0)
(-0.0454821 10.3539 0)
(-0.0472308 10.3886 0)
(-0.0475701 10.384 0)
(-0.0463517 10.2671 0)
(-0.0428939 9.93369 0)
(-0.0351045 9.38164 0)
(-0.0228002 8.59946 0)
(-0.00865283 7.23532 0)
(0.00245192 10.0003 0)
(0.00665141 10.0038 0)
(0.00891202 10.0099 0)
(0.00928206 10.0175 0)
(0.00787755 10.0265 0)
(0.00463062 10.0373 0)
(-0.000269133 10.0501 0)
(-0.00660621 10.0657 0)
(-0.0140961 10.0848 0)
(-0.022267 10.1084 0)
(-0.0302049 10.1372 0)
(-0.0374262 10.1717 0)
(-0.0442173 10.2116 0)
(-0.0502631 10.2572 0)
(-0.0552893 10.308 0)
(-0.0590518 10.3623 0)
(-0.061338 10.4158 0)
(-0.0619743 10.4577 0)
(-0.0607888 10.4595 0)
(-0.0575837 10.3494 0)
(-0.0515876 10.0304 0)
(-0.0409996 9.50036 0)
(-0.0260436 8.73523 0)
(-0.00961987 7.37219 0)
(0.00219666 10.0003 0)
(0.00594088 10.0034 0)
(0.00785885 10.0089 0)
(0.00788486 10.0157 0)
(0.00616121 10.0238 0)
(0.00258397 10.0336 0)
(-0.00282418 10.0454 0)
(-0.00992965 10.0599 0)
(-0.0185295 10.0779 0)
(-0.0282428 10.1004 0)
(-0.0384512 10.1282 0)
(-0.0479854 10.1625 0)
(-0.0562536 10.2033 0)
(-0.0636807 10.2502 0)
(-0.0699341 10.3034 0)
(-0.0747255 10.3623 0)
(-0.0778094 10.4249 0)
(-0.0789858 10.4866 0)
(-0.0781011 10.5365 0)
(-0.0749996 10.5456 0)
(-0.0694306 10.4439 0)
(-0.0606139 10.1406 0)
(-0.0470722 9.63173 0)
(-0.0293351 8.88172 0)
(-0.0105724 7.51706 0)
(0.0019881 10.0003 0)
(0.00535688 10.0031 0)
(0.00698791 10.0081 0)
(0.00673201 10.0142 0)
(0.00468482 10.0215 0)
(0.000750617 10.0302 0)
(-0.00511244 10.041 0)
(-0.0129225 10.0542 0)
(-0.0225632 10.071 0)
(-0.0337465 10.0922 0)
(-0.0459523 10.1189 0)
(-0.0583638 10.1519 0)
(-0.0695007 10.1925 0)
(-0.0786712 10.2406 0)
(-0.0864894 10.2955 0)
(-0.0926193 10.3572 0)
(-0.0967771 10.4248 0)
(-0.0987414 10.4963 0)
(-0.0983542 10.5667 0)
(-0.0955063 10.6251 0)
(-0.0900751 10.6423 0)
(-0.0817924 10.5503 0)
(-0.0698864 10.2632 0)
(-0.0532507 9.7745 0)
(-0.0326408 9.03758 0)
(-0.0114975 7.66862 0)
(0.00181579 10.0002 0)
(0.00487311 10.0028 0)
(0.00626377 10.0075 0)
(0.00578531 10.013 0)
(0.00348332 10.0195 0)
(-0.000797016 10.0272 0)
(-0.00712243 10.0367 0)
(-0.0155615 10.0487 0)
(-0.0261575 10.0641 0)
(-0.0387211 10.0838 0)
(-0.0528333 10.109 0)
(-0.0677826 10.1407 0)
(-0.0825059 10.18 0)
(-0.0951662 10.228 0)
(-0.104986 10.2844 0)
(-0.112838 10.3482 0)
(-0.118405 10.4191 0)
(-0.121437 10.496 0)
(-0.121775 10.5767 0)
(-0.119327 10.6563 0)
(-0.114047 10.7234 0)
(-0.105867 10.7492 0)
(-0.0945355 10.6677 0)
(-0.0793264 10.3971 0)
(-0.0594623 9.92722 0)
(-0.035924 9.20139 0)
(-0.0123865 7.82557 0)
(0.00167205 10.0002 0)
(0.00446946 10.0026 0)
(0.00565842 10.0069 0)
(0.0050048 10.012 0)
(0.0025128 10.0178 0)
(-0.0020274 10.0245 0)
(-0.00877429 10.0328 0)
(-0.0178296 10.0433 0)
(-0.0292807 10.0572 0)
(-0.0431148 10.0753 0)
(-0.0590222 10.0988 0)
(-0.0764003 10.1289 0)
(-0.0942941 10.1667 0)
(-0.111355 10.2132 0)
(-0.125343 10.2697 0)
(-0.135433 10.3354 0)
(-0.142841 10.4088 0)
(-0.147301 10.4894 0)
(-0.14864 10.5762 0)
(-0.146783 10.6665 0)
(-0.141734 10.7553 0)
(-0.13354 10.8312 0)
(-0.12221 10.8658 0)
(-0.10752 10.7953 0)
(-0.0888239 10.5409 0)
(-0.0656415 10.0884 0)
(-0.0391505 9.37171 0)
(-0.0132255 7.98652 0)
(0.00155112 10.0002 0)
(0.00413037 10.0024 0)
(0.0051497 10.0064 0)
(0.0043586 10.0111 0)
(0.00172748 10.0163 0)
(-0.0029939 10.0223 0)
(-0.0100433 10.0293 0)
(-0.0196364 10.0384 0)
(-0.0319083 10.0505 0)
(-0.0468854 10.0668 0)
(-0.0644523 10.0883 0)
(-0.0841261 10.1164 0)
(-0.105065 10.1524 0)
(-0.126023 10.1973 0)
(-0.145332 10.2522 0)
(-0.160325 10.3182 0)
(-0.170172 10.394 0)
(-0.176531 10.4777 0)
(-0.179238 10.5687 0)
(-0.17823 10.6654 0)
(-0.173563 10.7654 0)
(-0.165364 10.8634 0)
(-0.15378 10.948 0)
(-0.138922 10.9914 0)
(-0.120608 10.9319 0)
(-0.0982777 10.6933 0)
(-0.0717263 10.2566 0)
(-0.042283 9.54702 0)
(-0.0140232 8.1503 0)
(0.00144865 10.0002 0)
(0.00384372 10.0023 0)
(0.00471998 10.006 0)
(0.00382129 10.0103 0)
(0.00109062 10.0151 0)
(-0.00375079 10.0203 0)
(-0.0109985 10.0264 0)
(-0.0209674 10.034 0)
(-0.0339359 10.0441 0)
(-0.0499989 10.0582 0)
(-0.0690675 10.0776 0)
(-0.0908745 10.1035 0)
(-0.114705 10.1372 0)
(-0.139423 10.1801 0)
(-0.163455 10.2333 0)
(-0.184795 10.2976 0)
(-0.200313 10.3741 0)
(-0.209244 10.4608 0)
(-0.213827 10.5554 0)
(-0.214045 10.6569 0)
(-0.209993 10.7638 0)
(-0.201878 10.8733 0)
(-0.189977 10.9802 0)
(-0.174552 11.0732 0)
(-0.155823 11.1252 0)
(-0.133663 11.0765 0)
(-0.107591 10.8527 0)
(-0.0776515 10.4303 0)
(-0.0453063 9.72602 0)
(-0.0147335 8.3154 0)
(0.00136124 10.0002 0)
(0.00359999 10.0022 0)
(0.0043552 10.0057 0)
(0.00337256 10.0097 0)
(0.000572805 10.014 0)
(-0.00434173 10.0186 0)
(-0.0117076 10.0238 0)
(-0.0219135 10.0301 0)
(-0.0353617 10.0385 0)
(-0.0523313 10.0502 0)
(-0.0728218 10.0669 0)
(-0.0965719 10.0902 0)
(-0.123104 10.1213 0)
(-0.151412 10.1617 0)
(-0.180025 10.2126 0)
(-0.207006 10.2752 0)
(-0.229984 10.35 0)
(-0.245378 10.4378 0)
(-0.25259 10.5362 0)
(-0.254568 10.642 0)
(-0.251497 10.7542 0)
(-0.243662 10.8712 0)
(-0.231456 10.9899 0)
(-0.215309 11.1053 0)
(-0.195624 11.2062 0)
(-0.172728 11.2662 0)
(-0.14655 11.2278 0)
(-0.11667 11.0178 0)
(-0.0833769 10.6081 0)
(-0.0481391 9.90699 0)
(-0.0155763 8.49977 0)
(0.00128626 10.0002 0)
(0.00339163 10.0021 0)
(0.0040441 10.0054 0)
(0.00299616 10.0092 0)
(0.000150586 10.0131 0)
(-0.00480168 10.0172 0)
(-0.0122252 10.0216 0)
(-0.0225619 10.0268 0)
(-0.0363065 10.0335 0)
(-0.0538965 10.0429 0)
(-0.0755647 10.0567 0)
(-0.101157 10.0768 0)
(-0.130167 10.1049 0)
(-0.161851 10.1423 0)
(-0.194862 10.1904 0)
(-0.227345 10.2506 0)
(-0.25697 10.3237 0)
(-0.281027 10.4099 0)
(-0.29549 10.5099 0)
(-0.300049 10.6203 0)
(-0.298503 10.7376 0)
(-0.291289 10.8605 0)
(-0.278914 10.9871 0)
(-0.261979 11.1146 0)
(-0.241084 11.2378 0)
(-0.216765 11.3459 0)
(-0.189456 11.4133 0)
(-0.159139 11.3844 0)
(-0.125446 11.1871 0)
(-0.088807 10.7882 0)
(-0.0512103 10.1099 0)
(-0.0164027 8.70213 0)
(0.0012216 10.0001 0)
(0.00321268 10.002 0)
(0.00377765 10.0052 0)
(0.00267906 10.0087 0)
(-0.000194754 10.0123 0)
(-0.00515846 10.0159 0)
(-0.0125947 10.0197 0)
(-0.0229825 10.0238 0)
(-0.0368834 10.0291 0)
(-0.0548539 10.0365 0)
(-0.0773282 10.0475 0)
(-0.104443 10.0639 0)
(-0.135813 10.0882 0)
(-0.170618 10.1222 0)
(-0.207792 10.1669 0)
(-0.245592 10.224 0)
(-0.281743 10.2946 0)
(-0.313529 10.3792 0)
(-0.337925 10.4778 0)
(-0.350496 10.5905 0)
(-0.351348 10.7134 0)
(-0.345286 10.8421 0)
(-0.333043 10.9754 0)
(-0.31538 11.1112 0)
(-0.293114 11.2468 0)
(-0.267021 11.377 0)
(-0.23775 11.4915 0)
(-0.205842 11.5653 0)
(-0.171328 11.5452 0)
(-0.133809 11.3591 0)
(-0.0945414 10.9907 0)
(-0.0543446 10.3333 0)
(-0.0170773 8.90127 0)
(0.00116543 10.0001 0)
(0.00305827 10.0019 0)
(0.00354856 10.005 0)
(0.00241077 10.0083 0)
(-0.000478127 10.0116 0)
(-0.00543413 10.0148 0)
(-0.0128504 10.018 0)
(-0.0232306 10.0213 0)
(-0.0371827 10.0253 0)
(-0.0553503 10.0309 0)
(-0.0783205 10.0392 0)
(-0.106482 10.0522 0)
(-0.139808 10.072 0)
(-0.177604 10.1015 0)
(-0.21866 10.1424 0)
(-0.261531 10.1957 0)
(-0.304031 10.2631 0)
(-0.343457 10.3452 0)
(-0.376728 10.4424 0)
(-0.40054 10.554 0)
(-0.410105 10.68 0)
(-0.406105 10.8154 0)
(-0.394495 10.9553 0)
(-0.376337 11.0984 0)
(-0.35267 11.2428 0)
(-0.324526 11.3856 0)
(-0.292843 11.522 0)
(-0.258372 11.6418 0)
(-0.221744 11.7214 0)
(-0.182985 11.7086 0)
(-0.142642 11.5528 0)
(-0.100486 11.2142 0)
(-0.0571155 10.5535 0)
(-0.0176307 9.09522 0)
(0.00111677 10.0001 0)
(0.00292409 10.0018 0)
(0.00335093 10.0048 0)
(0.00218294 10.0079 0)
(-0.000711436 10.011 0)
(-0.00564614 10.0139 0)
(-0.0130195 10.0165 0)
(-0.02335 10.019 0)
(-0.0372761 10.0219 0)
(-0.055503 10.0259 0)
(-0.0787311 10.032 0)
(-0.107544 10.0417 0)
(-0.142226 10.0573 0)
(-0.182517 10.0814 0)
(-0.227323 10.117 0)
(-0.274963 10.1661 0)
(-0.323567 10.2293 0)
(-0.370484 10.3081 0)
(-0.412588 10.4029 0)
(-0.446456 10.5135 0)
(-0.468584 10.6389 0)
(-0.473908 10.7783 0)
(-0.463849 10.9261 0)
(-0.445647 11.0768 0)
(-0.420722 11.2291 0)
(-0.390384 11.3811 0)
(-0.355881 11.5303 0)
(-0.318289 11.6718 0)
(-0.278445 11.7961 0)
(-0.237005 11.8799 0)
(-0.195338 11.8929 0)
(-0.151799 11.767 0)
(-0.105846 11.4351 0)
(-0.0595558 10.7686 0)
(-0.0180847 9.28233 0)
(0.00280703 10.0018 0)
(0.00105802 10.0001 0)
(0.0031791 10.0046 0)
(0.00198892 10.0076 0)
(-0.000904046 10.0105 0)
(-0.00580832 10.0131 0)
(-0.0131231 10.0152 0)
(-0.0233745 10.0171 0)
(-0.0372196 10.019 0)
(-0.0554047 10.0215 0)
(-0.0787119 10.0255 0)
(-0.10787 10.0324 0)
(-0.143409 10.0441 0)
(-0.185448 10.063 0)
(-0.233411 10.0922 0)
(-0.285706 10.1353 0)
(-0.340103 10.1938 0)
(-0.394281 10.2683 0)
(-0.445114 10.3597 0)
(-0.489066 10.4682 0)
(-0.522442 10.593 0)
(-0.541633 10.7324 0)
(-0.541391 10.8854 0)
(-0.524035 11.0452 0)
(-0.498219 11.206 0)
(-0.465724 11.3666 0)
(-0.428126 11.5254 0)
(-0.386863 11.6797 0)
(-0.343126 11.8254 0)
(-0.297776 11.9528 0)
(-0.253237 12.0587 0)
(-0.20811 12.097 0)
(-0.160099 11.9791 0)
(-0.110621 11.6512 0)
(-0.0616897 10.9769 0)
(-0.0184491 9.46175 0)
(0.00302689 10.0045 0)
(0.0026694 10.0017 0)
(0.000985962 10.0001 0)
(0.00182227 10.0074 0)
(-0.00106319 10.0101 0)
(-0.00593136 10.0123 0)
(-0.0131778 10.0141 0)
(-0.0233306 10.0153 0)
(-0.0370566 10.0163 0)
(-0.0551277 10.0176 0)
(-0.0783824 10.0198 0)
(-0.107656 10.0242 0)
(-0.143663 10.0323 0)
(-0.186827 10.0464 0)
(-0.237032 10.0695 0)
(-0.293288 10.105 0)
(-0.353403 10.1567 0)
(-0.41454 10.2261 0)
(-0.473906 10.3131 0)
(-0.527906 10.4184 0)
(-0.572651 10.5416 0)
(-0.604263 10.6811 0)
(-0.619139 10.8348 0)
(-0.611943 11.0009 0)
(-0.586061 11.1721 0)
(-0.551659 11.3423 0)
(-0.510872 11.5102 0)
(-0.465517 11.6746 0)
(-0.41718 11.8331 0)
(-0.367125 11.9816 0)
(-0.318389 12.1295 0)
(-0.270024 12.2569 0)
(-0.219723 12.2993 0)
(-0.16754 12.1871 0)
(-0.114835 11.861 0)
(-0.0635245 11.1772 0)
(-0.0187275 9.63292 0)
(0.00167246 10.0071 0)
(0.00285983 10.0043 0)
(0.0024965 10.0016 0)
(0.000916635 10.0001 3.49835e-19)
(-0.00119574 10.0097 0)
(-0.00602317 10.0117 0)
(-0.0131962 10.0131 0)
(-0.0232388 10.0138 0)
(-0.0368205 10.0141 0)
(-0.054728 10.0142 0)
(-0.077836 10.0148 0)
(-0.107055 10.0168 0)
(-0.143237 10.0218 0)
(-0.18704 10.0316 0)
(-0.238716 10.049 0)
(-0.297827 10.0772 0)
(-0.36287 10.1202 0)
(-0.430963 10.1819 0)
(-0.498589 10.2635 0)
(-0.5625 10.3645 0)
(-0.61867 10.4847 0)
(-0.66294 10.6232 0)
(-0.691354 10.7779 0)
(-0.700441 10.9457 0)
(-0.684887 11.1246 0)
(-0.649294 11.3064 0)
(-0.605414 11.4848 0)
(-0.555711 11.659 0)
(-0.502198 11.8278 0)
(-0.446559 11.9892 0)
(-0.392761 12.1577 0)
(-0.339772 12.3255 0)
(-0.285348 12.4536 0)
(-0.230171 12.4979 0)
(-0.174146 12.3891 0)
(-0.118497 12.0633 0)
(-0.0650785 11.369 0)
(-0.018928 9.7954 0)
(-0.00131842 10.0093 0)
(0.00152802 10.0068 0)
(0.00265666 10.0041 1.51334e-18)
(0.00232964 10.0015 -1.1072e-18)
(0.00084945 10.0001 -7.17747e-19)
(-0.00609085 10.0111 0)
(-0.0131871 10.0122 0)
(-0.0231143 10.0125 0)
(-0.0365372 10.012 0)
(-0.0542484 10.0112 0)
(-0.0771446 10.0103 0)
(-0.106186 10.0104 0)
(-0.142327 10.0125 0)
(-0.186397 10.0184 0)
(-0.238941 10.0306 0)
(-0.299966 10.052 0)
(-0.368617 10.0864 0)
(-0.44279 10.1382 0)
(-0.518787 10.2115 0)
(-0.59239 10.3068 0)
(-0.659936 10.4229 0)
(-0.71704 10.559 0)
(-0.759369 10.7134 0)
(-0.783022 10.8832 0)
(-0.784794 11.0649 0)
(-0.7595 11.2558 0)
(-0.71309 11.4473 0)
(-0.658946 11.6328 0)
(-0.599811 11.812 0)
(-0.537839 11.984 0)
(-0.478009 12.1654 0)
(-0.419443 12.3533 0)
(-0.359385 12.5202 0)
(-0.299203 12.647 0)
(-0.239478 12.6912 0)
(-0.179937 12.5843 0)
(-0.121635 12.2574 0)
(-0.0663727 11.5517 0)
(-0.0190607 9.94895 0)
(-0.0061598 10.0106 0)
(-0.00139994 10.0089 -2.96999e-18)
(0.00136835 10.0064 -1.59182e-18)
(0.00246143 10.0038 7.76308e-19)
(0.0021671 10.0014 -7.56892e-19)
(0.000784473 10.0001 0)
(-0.0131576 10.0114 0)
(-0.0229674 10.0113 0)
(-0.0362257 10.0103 0)
(-0.0537216 10.0085 0)
(-0.0763631 10.0064 0)
(-0.105143 10.0046 0)
(-0.141083 10.0042 0)
(-0.185145 10.0067 0)
(-0.238094 10.0141 0)
(-0.300292 10.0293 0)
(-0.371417 10.0558 0)
(-0.450113 10.0977 0)
(-0.53354 10.1597 0)
(-0.617111 10.246 0)
(-0.695901 10.3565 0)
(-0.765904 10.4888 0)
(-0.822469 10.6416 0)
(-0.861222 10.8122 0)
(-0.878462 10.9971 0)
(-0.871386 11.192 0)
(-0.835033 11.3941 0)
(-0.776812 11.594 0)
(-0.711747 11.7854 0)
(-0.642773 11.9682 0)
(-0.576078 12.1604 0)
(-0.510847 12.3612 0)
(-0.444017 12.5477 0)
(-0.377192 12.7118 0)
(-0.311599 12.8354 0)
(-0.247667 12.8782 0)
(-0.184953 12.7717 0)
(-0.124289 12.4426 0)
(-0.0674308 11.7249 0)
(-0.0191359 10.0935 0)
(-0.0131453 10.0107 0)
(-0.00613421 10.01 6.24459e-18)
(-0.0014489 10.0083 0)
(0.00121459 10.0061 1.63168e-18)
(0.00227277 10.0036 4.74792e-22)
(0.00200867 10.0013 0)
(0.000721723 10.0001 0)
(-0.0228049 10.0102 0)
(-0.035898 10.0087 0)
(-0.0531716 10.0061 0)
(-0.0755333 10.0029 0)
(-0.103995 9.99956 0)
(-0.139625 9.9969 0)
(-0.183476 9.99625 0)
(-0.236483 9.99946 0)
(-0.299281 10.009 0)
(-0.371978 10.0281 0)
(-0.453845 10.0608 0)
(-0.542894 10.1115 0)
(-0.63546 10.1853 0)
(-0.725992 10.2862 0)
(-0.808886 10.4132 0)
(-0.879905 10.5628 0)
(-0.934254 10.7327 0)
(-0.967668 10.9196 0)
(-0.976789 11.1192 0)
(-0.959357 11.3266 0)
(-0.910731 11.5386 0)
(-0.83985 11.7457 0)
(-0.763332 11.9415 0)
(-0.688997 12.1449 0)
(-0.61613 12.3567 0)
(-0.541207 12.556 0)
(-0.466404 12.7392 0)
(-0.393188 12.8987 0)
(-0.322558 13.0179 0)
(-0.254789 13.0581 0)
(-0.189248 12.9509 0)
(-0.126503 12.6187 0)
(-0.0682766 11.8887 0)
(-0.0191632 10.2293 0)
(-0.0226814 10.0093 0)
(-0.0129631 10.0099 3.85948e-22)
(-0.0059951 10.0093 0)
(-0.00149675 10.0078 -1.71466e-18)
(0.00107014 10.0057 3.94677e-22)
(0.00209024 10.0034 0)
(0.00185452 10.0013 0)
(0.000661214 10.0001 0)
(-0.0355604 10.0073 0)
(-0.0526128 10.0041 0)
(-0.0746858 9.99986 0)
(-0.102796 9.99507 0)
(-0.138042 9.99041 0)
(-0.181541 9.98699 0)
(-0.234348 9.9864 0)
(-0.297313 9.99087 0)
(-0.370881 10.0033 0)
(-0.454834 10.0274 0)
(-0.547909 10.0675 0)
(-0.647396 10.1286 0)
(-0.748713 10.2157 0)
(-0.845293 10.3327 0)
(-0.930915 10.4775 0)
(-1.00126 10.6451 0)
(-1.05155 10.8325 0)
(-1.07778 11.0355 0)
(-1.07708 11.2491 0)
(-1.04785 11.4678 0)
(-0.985858 11.6885 0)
(-0.901611 11.9012 0)
(-0.818988 12.1184 0)
(-0.737557 12.342 0)
(-0.653295 12.5524 0)
(-0.568967 12.7481 0)
(-0.486584 12.9261 0)
(-0.407396 13.08 0)
(-0.332144 13.1937 0)
(-0.260918 13.2302 0)
(-0.192881 13.1214 0)
(-0.128319 12.7855 0)
(-0.0689346 12.043 0)
(-0.0191509 10.3563 0)
(-0.0352912 10.006 0)
(-0.0222837 10.0082 -3.44486e-18)
(-0.0125439 10.0089 0)
(-0.00586373 10.0085 0)
(-0.0015306 10.0073 5.27078e-18)
(0.000934338 10.0054 0)
(0.00191404 10.0032 0)
(0.00170478 10.0012 1.63247e-18)
(0.000602996 10.0001 0)
(-0.0520508 10.0022 0)
(-0.073838 9.99714 0)
(-0.101585 9.9911 0)
(-0.136401 9.98467 0)
(-0.179451 9.97877 0)
(-0.231877 9.9748 0)
(-0.294686 9.9747 0)
(-0.368589 9.9811 0)
(-0.453778 9.99735 0)
(-0.54959 10.0276 0)
(-0.654139 10.0766 0)
(-0.763892 10.1496 0)
(-0.873274 10.2517 0)
(-0.974672 10.3863 0)
(-1.06136 10.5498 0)
(-1.12914 10.7361 0)
(-1.1734 10.941 0)
(-1.19055 11.1596 0)
(-1.17838 11.3862 0)
(-1.13605 11.6151 0)
(-1.05972 11.8428 0)
(-0.96843 12.078 0)
(-0.877609 12.3161 0)
(-0.782752 12.5388 0)
(-0.687384 12.7456 0)
(-0.594077 12.9359 0)
(-0.504581 13.1075 0)
(-0.419888 13.2547 0)
(-0.340446 13.3622 0)
(-0.266135 13.3942 0)
(-0.195914 13.283 0)
(-0.129782 12.9429 0)
(-0.0694277 12.188 0)
(-0.0191068 10.475 0)
(-0.0515961 10.0006 0)
(-0.034606 10.0046 0)
(-0.0214709 10.007 -3.87009e-18)
(-0.0121477 10.008 -3.7782e-18)
(-0.00571158 10.0078 -7.37625e-18)
(-0.00155129 10.0068 0)
(0.000807281 10.005 -3.51345e-18)
(0.00174449 10.003 -3.42912e-18)
(0.00155946 10.0011 1.67336e-18)
(0.000546985 10.0001 0)
(-0.0729944 9.99472 0)
(-0.100382 9.98757 0)
(-0.134753 9.97957 0)
(-0.177293 9.97149 0)
(-0.229213 9.9645 0)
(-0.291634 9.96031 0)
(-0.365469 9.96125 0)
(-0.451236 9.97039 0)
(-0.548763 9.99155 0)
(-0.656858 10.0293 0)
(-0.772911 10.0888 0)
(-0.892474 10.1754 0)
(-1.00891 10.294 0)
(-1.11359 10.4474 0)
(-1.19944 10.6307 0)
(-1.26258 10.8359 0)
(-1.29874 11.0581 0)
(-1.30496 11.2915 0)
(-1.27977 11.53 0)
(-1.22312 11.7675 0)
(-1.13997 12.019 0)
(-1.03906 12.2763 0)
(-0.932321 12.5141 0)
(-0.824311 12.7333 0)
(-0.718307 12.9346 0)
(-0.616554 13.1182 0)
(-0.520472 13.2826 0)
(-0.430766 13.4223 0)
(-0.347565 13.523 0)
(-0.270523 13.5499 0)
(-0.198411 13.4358 0)
(-0.130935 13.0912 0)
(-0.069778 12.324 0)
(-0.0190377 10.5857 0)
(-0.072309 9.99258 0)
(-0.0505355 9.99876 -3.79697e-18)
(-0.0332562 10.0031 4.05649e-18)
(-0.0207055 10.0058 -1.62651e-21)
(-0.0117213 10.0071 3.86843e-18)
(-0.0055397 10.0072 3.77734e-18)
(-0.0015591 10.0063 7.37567e-18)
(0.000689141 10.0047 5.39969e-18)
(0.00158139 10.0028 -1.75704e-18)
(0.0014186 10.001 0)
(0.000493186 10.0001 0)
(-0.0991918 9.98445 0)
(-0.133124 9.97505 0)
(-0.175131 9.96502 0)
(-0.226463 9.95535 0)
(-0.288334 9.94751 0)
(-0.361808 9.94357 0)
(-0.447655 9.94627 0)
(-0.5461 9.95914 0)
(-0.656526 9.98648 0)
(-0.777114 10.0332 0)
(-0.904428 10.1048 0)
(-1.03303 10.2066 0)
(-1.1552 10.3433 0)
(-1.26133 10.5168 0)
(-1.3442 10.7204 0)
(-1.40049 10.9446 0)
(-1.42648 11.1835 0)
(-1.41995 11.4308 0)
(-1.38028 11.6796 0)
(-1.31817 11.9424 0)
(-1.2252 12.2176 0)
(-1.10527 12.4755 0)
(-0.982807 12.7102 0)
(-0.862106 12.9239 0)
(-0.746062 13.1184 0)
(-0.636475 13.2944 0)
(-0.534375 13.4506 0)
(-0.44015 13.5823 0)
(-0.353604 13.6758 0)
(-0.27417 13.6972 0)
(-0.200432 13.5797 0)
(-0.13182 13.2304 0)
(-0.0700058 12.4511 0)
(-0.0189491 10.6887 0)
(-0.0982255 9.98167 0)
(-0.0707672 9.99025 -5.04696e-21)
(-0.0484715 9.99678 0)
(-0.0319919 10.0015 -2.87024e-21)
(-0.0198973 10.0046 0)
(-0.0112657 10.0062 -3.96065e-18)
(-0.00534881 10.0065 -7.73564e-18)
(-0.0015541 10.0058 -3.09845e-22)
(0.000579738 10.0044 3.68693e-18)
(0.00142499 10.0027 -1.79953e-18)
(0.00128216 10.001 1.75698e-18)
(0.000441608 10 0)
(-0.131514 9.97104 0)
(-0.172996 9.95929 0)
(-0.223708 9.94723 0)
(-0.284922 9.93614 0)
(-0.357825 9.92782 0)
(-0.443385 9.92473 0)
(-0.542138 9.93009 0)
(-0.653937 9.94787 0)
(-0.777631 9.98281 0)
(-0.910669 10.0402 0)
(-1.0487 10.1256 0)
(-1.18524 10.2443 0)
(-1.31149 10.4004 0)
(-1.41698 10.5949 0)
(-1.49457 10.8192 0)
(-1.54174 11.062 0)
(-1.55551 11.3169 0)
(-1.53449 11.5765 0)
(-1.49051 11.8523 0)
(-1.41958 12.1405 0)
(-1.30545 12.4179 0)
(-1.16662 12.6735 0)
(-1.02891 12.9029 0)
(-0.896139 13.1096 0)
(-0.770724 13.2961 0)
(-0.653963 13.4636 0)
(-0.546425 13.6112 0)
(-0.448166 13.7346 0)
(-0.358674 13.8205 0)
(-0.27716 13.8362 0)
(-0.202035 13.715 0)
(-0.132472 13.3609 0)
(-0.0701297 12.5699 0)
(-0.0188463 10.7844 0)
(-0.130212 9.96748 0)
(-0.0960757 9.9787 4.16763e-18)
(-0.0677707 9.98776 -4.45749e-18)
(-0.046548 9.99486 4.34945e-18)
(-0.0306684 10.0001 0)
(-0.0190472 10.0035 0)
(-0.0107829 10.0054 4.05389e-18)
(-0.00513937 10.0059 -3.95936e-18)
(-0.00153648 10.0054 -2.47913e-22)
(0.000479203 10.0041 1.88808e-18)
(0.00127513 10.0025 -1.84346e-18)
(0.00115011 10.0009 -1.79425e-18)
(0.000392525 10 0)
(-0.170889 9.95419 0)
(-0.220988 9.94002 0)
(-0.281498 9.92603 0)
(-0.353691 9.9138 0)
(-0.438697 9.90553 0)
(-0.5373 9.9041 0)
(-0.649731 9.91318 0)
(-0.775393 9.93722 0)
(-0.912492 9.98135 0)
(-1.05765 10.0511 0)
(-1.20553 10.1521 0)
(-1.34858 10.2893 0)
(-1.47699 10.466 0)
(-1.57953 10.6822 0)
(-1.64939 10.9271 0)
(-1.68516 11.1881 0)
(-1.68468 11.4576 0)
(-1.66076 11.7458 0)
(-1.60872 12.0491 0)
(-1.51553 12.3416 0)
(-1.38013 12.618 0)
(-1.22285 12.8687 0)
(-1.07058 13.091 0)
(-0.926504 13.2894 0)
(-0.792442 13.467 0)
(-0.669175 13.6254 0)
(-0.556773 13.7641 0)
(-0.454948 13.8789 0)
(-0.362881 13.9572 0)
(-0.279574 13.967 0)
(-0.203278 13.8419 0)
(-0.132928 13.483 0)
(-0.0701672 12.6807 0)
(-0.0187332 10.8733 0)
(-0.169195 9.94966 0)
(-0.127306 9.96374 0)
(-0.0918818 9.9756 4.65838e-18)
(-0.0649914 9.98537 -9.12031e-18)
(-0.0445436 9.99302 8.90842e-18)
(-0.0292862 9.99865 -8.70125e-18)
(-0.0181588 10.0024 0)
(-0.0102737 10.0046 4.14952e-18)
(-0.00491174 10.0053 -4.05213e-18)
(-0.00150639 10.0049 -3.95798e-18)
(0.000387267 10.0038 0)
(0.00113178 10.0023 1.88187e-18)
(0.00102332 10.0008 0)
(0.000346928 10 0)
(-0.218301 9.93361 0)
(-0.278111 9.91704 0)
(-0.349531 9.90134 0)
(-0.4338 9.88842 0)
(-0.531915 9.88089 0)
(-0.644415 9.8821 0)
(-0.771153 9.89618 0)
(-0.910974 9.928 0)
(-1.06134 9.98303 0)
(-1.21798 10.067 0)
(-1.37452 10.1853 0)
(-1.52236 10.3423 0)
(-1.65073 10.5408 0)
(-1.74781 10.779 0)
(-1.80745 11.0443 0)
(-1.82952 11.3223 0)
(-1.82788 11.6223 0)
(-1.79695 11.9404 0)
(-1.72122 12.2503 0)
(-1.60531 12.5435 0)
(-1.44888 12.816 0)
(-1.27387 13.0597 0)
(-1.1079 13.2734 0)
(-0.953358 13.4625 0)
(-0.81141 13.6306 0)
(-0.682291 13.7796 0)
(-0.56558 13.9091 0)
(-0.460628 14.0153 0)
(-0.366329 14.086 0)
(-0.281487 14.0898 0)
(-0.204211 13.9608 0)
(-0.133216 13.5972 0)
(-0.0701333 12.7839 0)
(-0.018613 10.9558 0)
(-0.216157 9.92791 0)
(-0.165362 9.94497 0)
(-0.1216 9.95988 0)
(-0.0880128 9.97263 9.52671e-18)
(-0.0621056 9.98308 -9.31326e-18)
(-0.0424607 9.99127 9.10052e-18)
(-0.0278526 9.99732 0)
(-0.0172339 10.0014 -4.34367e-18)
(-0.00973859 10.0038 0)
(-0.00466651 10.0047 4.14581e-18)
(-0.00146432 10.0045 0)
(0.000303777 10.0035 0)
(0.000995619 10.0022 0)
(0.000904782 10.0008 1.7954e-18)
(0.000305233 10 8.37544e-19)
(-0.274762 9.90905 0)
(-0.345402 9.89024 0)
(-0.42885 9.87318 0)
(-0.526242 9.86019 0)
(-0.638388 9.85429 0)
(-0.765514 9.85931 0)
(-0.906995 9.87983 0)
(-1.06102 9.92113 0)
(-1.22424 9.98887 0)
(-1.39139 10.0888 0)
(-1.55509 10.226 0)
(-1.7057 10.4043 0)
(-1.83162 10.6251 0)
(-1.92065 10.8855 0)
(-1.96752 11.1704 0)
(-1.99058 11.481 0)
(-1.98336 11.8134 0)
(-1.92742 12.141 0)
(-1.82713 12.4537 0)
(-1.68844 12.7445 0)
(-1.51154 13.0106 0)
(-1.31971 13.2455 0)
(-1.14102 13.4495 0)
(-0.976904 13.6285 0)
(-0.827842 13.7866 0)
(-0.693499 13.9259 0)
(-0.573003 14.0463 0)
(-0.465332 14.1439 0)
(-0.369116 14.207 0)
(-0.282967 14.2049 0)
(-0.204881 14.0719 0)
(-0.133363 13.7037 0)
(-0.0700408 12.88 0)
(-0.0184887 11.0323 0)
(-0.272116 9.90195 0)
(-0.211205 9.92206 0)
(-0.157778 9.94022 1.02049e-17)
(-0.116364 9.95622 9.98316e-18)
(-0.0840039 9.96981 9.75747e-18)
(-0.0591175 9.98092 -9.53502e-18)
(-0.0403102 9.98962 0)
(-0.0263696 9.99605 0)
(-0.0162736 10.0004 0)
(-0.00917919 10.0031 8.68284e-18)
(-0.00440455 10.0042 4.24098e-18)
(-0.00141082 10.0041 4.13104e-18)
(0.000228748 10.0033 0)
(0.000869537 10.0021 -1.88316e-18)
(0.000795975 10.0007 -8.83106e-19)
(0.000266979 10 0)
(-0.341311 9.88038 0)
(-0.423914 9.85961 0)
(-0.520471 9.84172 0)
(-0.631963 9.82944 0)
(-0.758953 9.82627 0)
(-0.901266 9.83648 0)
(-1.0577 9.86508 0)
(-1.22571 9.91764 0)
(-1.40103 9.99997 0)
(-1.57743 10.1176 0)
(-1.74646 10.2753 0)
(-1.89759 10.4758 0)
(-2.01852 10.7195 0)
(-2.09679 11.0017 0)
(-2.1473 11.3212 0)
(-2.16671 11.6669 0)
(-2.13343 12.0122 0)
(-2.05116 12.3453 0)
(-1.92587 12.6575 0)
(-1.76469 12.9431 0)
(-1.56814 13.2006 0)
(-1.36054 13.4253 0)
(-1.17015 13.6186 0)
(-0.997379 13.7869 0)
(-0.841964 13.9347 0)
(-0.702998 14.0643 0)
(-0.579196 14.1756 0)
(-0.469179 14.2649 0)
(-0.371328 14.3206 0)
(-0.284078 14.3127 0)
(-0.205329 14.1757 0)
(-0.133395 13.8029 0)
(-0.0699015 12.9693 0)
(-0.0183625 11.1032 0)
(-0.338119 9.87161 0)
(-0.265825 9.89471 0)
(-0.201319 9.91623 -2.12847e-17)
(-0.15085 9.93571 2.89981e-20)
(-0.110944 9.95275 -2.03822e-17)
(-0.0798625 9.96716 1.99245e-17)
(-0.0560405 9.97889 -9.74521e-18)
(-0.0380946 9.98807 0)