/*--------------------------------*- C++ -*----------------------------------*\
  =========                 |
  \\      /  F ield         | OpenFOAM: The Open Source CFD Toolbox
   \\    /   O peration     | Website:  https://openfoam.org
    \\  /    A nd           | Version:  8
     \\/     M anipulation  |
\*---------------------------------------------------------------------------*/
FoamFile
{
    version     2.0;
    format      ascii;
    class       volScalarField;
    location    "600";
    object      nut;
}
// * * * * * * * * * * * * * * * * * * * * * * * * * * * * * * * * * * * * * //

dimensions      [0 2 -1 0 0 0 0];

internalField   nonuniform List<scalar> 
15677
(
7.4799e-05
0.000154173
8.20041e-05
0.000258016
0.000137613
8.01544e-05
0.000722414
0.000177814
0.000111478
7.67033e-05
0.001806
0.000374857
0.000147542
0.000108616
7.42836e-05
0.00331825
0.000873538
0.000310312
0.000125447
0.000111442
7.26894e-05
0.00477634
0.00171997
0.000665341
0.000257533
0.000122942
0.000117689
7.1696e-05
0.00581854
0.0028408
0.00126587
0.000566601
0.000234016
0.000123111
0.0001243
7.09856e-05
0.00636649
0.00405886
0.00211288
0.00106485
0.000504637
0.000212556
0.000127188
0.000129302
7.05182e-05
0.00658968
0.00517053
0.00314439
0.00176644
0.000947063
0.000461359
0.000205306
0.000135477
0.000134135
7.01366e-05
0.00667776
0.00598073
0.0042316
0.00264948
0.00156238
0.00086832
0.000427966
0.000196483
0.000145048
0.000136556
6.98735e-05
0.00671614
0.00641389
0.0052123
0.00364241
0.0023442
0.00142909
0.000808093
0.000401436
0.000192066
0.00015361
0.000139283
6.97171e-05
0.00671482
0.00659628
0.00595679
0.00462945
0.00325104
0.00214053
0.00133249
0.000759027
0.000377319
0.000192659
0.000161891
0.000141429
6.96642e-05
0.00670857
0.00668362
0.00639452
0.0054809
0.00420162
0.00297786
0.00199453
0.00125739
0.000717703
0.000357977
0.000195366
0.000169045
0.000143083
6.9689e-05
0.00670621
0.00670343
0.00659105
0.00609894
0.00508669
0.00388328
0.00277808
0.00188389
0.00119537
0.000683002
0.000340131
0.000199132
0.000175681
0.000144295
6.97769e-05
0.00670582
0.00670342
0.00667465
0.00645428
0.00580037
0.0047681
0.00364099
0.00262618
0.00179555
0.00114403
0.000649003
0.000328041
0.00020421
0.000180874
0.000145266
6.99578e-05
0.00670589
0.00670177
0.00669495
0.00661939
0.00628308
0.00553159
0.00451161
0.00345232
0.00250621
0.001724
0.00109857
0.000620475
0.000319543
0.000209117
0.000185734
0.000145925
7.02335e-05
0.00670597
0.00670099
0.00669785
0.00667431
0.00654085
0.00609625
0.00529909
0.00430392
0.00330191
0.00240989
0.00166357
0.00105858
0.000595362
0.000313984
0.000214448
0.000189176
0.000146389
7.05907e-05
0.00670601
0.00670078
0.00669747
0.00668926
0.00664241
0.0064398
0.00592085
0.00510055
0.00413413
0.00318032
0.00233057
0.00161247
0.00102288
0.000575599
0.000310744
0.000218874
0.000192768
0.000146556
7.10294e-05
0.00670602
0.00670074
0.00669699
0.00669235
0.00667635
0.00659541
0.00633616
0.00576032
0.00493182
0.0039942
0.00308074
0.002265
0.00156796
0.000993057
0.000559209
0.000309009
0.000223507
0.000194945
0.000146498
7.15476e-05
0.00670603
0.00670072
0.00669678
0.00669253
0.0066863
0.00665565
0.00654068
0.00622996
0.00561637
0.00478853
0.00387849
0.00299873
0.00221017
0.00153103
0.000967028
0.000546272
0.00030869
0.000227305
0.000196903
0.000146298
7.21423e-05
0.00670603
0.0067007
0.00669673
0.00669228
0.00668862
0.00667674
0.00662913
0.00648055
0.00612767
0.0054891
0.00466746
0.00378239
0.00293115
0.00216471
0.00149911
0.000946386
0.000536544
0.000309316
0.000231033
0.000198122
0.000145895
7.28094e-05
0.00670603
0.00670068
0.00669672
0.00669208
0.00668893
0.00668306
0.00666442
0.00659773
0.00641818
0.00603263
0.00537802
0.00456512
0.0037032
0.00287654
0.00212697
0.00147432
0.000929055
0.000530586
0.000310918
0.000234125
0.000199227
0.000145317
7.35433e-05
0.00670603
0.00670067
0.00669672
0.00669196
0.00668886
0.00668452
0.00667702
0.0066487
0.00656312
0.00635705
0.00594583
0.00528174
0.00447999
0.00363844
0.0028313
0.00209821
0.0014536
0.000917218
0.00052666
0.000312979
0.000237119
0.000199947
0.000144584
7.43377e-05
0.00670602
0.00670066
0.00669671
0.0066919
0.00668878
0.00668465
0.00668095
0.00666871
0.00663095
0.00652741
0.00629814
0.00586848
0.00520026
0.00440944
0.00358717
0.002797
0.00207542
0.0014402
0.000908438
0.000525815
0.000315998
0.000238931
0.000200177
0.000143722
7.51866e-05
0.00670601
0.00670067
0.0066967
0.00669186
0.00668872
0.0066845
0.00668195
0.0066757
0.00666005
0.00661148
0.00649128
0.00624462
0.00580102
0.00513132
0.00435315
0.00354694
0.00277169
0.00206162
0.00143058
0.000904977
0.000526372
0.000319418
0.00024115
0.000200158
0.000142745
7.6082e-05
0.006706
0.00670068
0.00669668
0.00669184
0.00668867
0.00668437
0.00668208
0.00667775
0.00667143
0.00664954
0.0065915
0.00645813
0.00619547
0.00574301
0.00507673
0.00431015
0.0035182
0.00275596
0.00205222
0.00142711
0.000904863
0.000530287
0.000322532
0.000243206
0.000199882
0.000141674
7.7018e-05
0.00670599
0.00670069
0.00669666
0.00669183
0.00668863
0.00668427
0.00668201
0.00667816
0.00667541
0.0066653
0.00663968
0.00657255
0.00642564
0.00615463
0.0056975
0.00503315
0.00427756
0.00349927
0.00274794
0.00205368
0.00143016
0.000908228
0.000534906
0.000326557
0.000244735
0.000199371
0.000140522
7.7985e-05
0.00670598
0.0067007
0.00669664
0.00669183
0.00668859
0.00668421
0.00668191
0.0066781
0.00667657
0.0066712
0.00666106
0.00662923
0.00655414
0.00640149
0.00611854
0.00565773
0.00500296
0.00426163
0.00349587
0.00275385
0.00206034
0.00143671
0.000914818
0.000541062
0.000330772
0.000246059
0.000198681
0.000139309
7.89787e-05
0.00670596
0.00670072
0.00669662
0.00669184
0.00668855
0.00668417
0.00668183
0.00667797
0.00667675
0.00667308
0.00666975
0.00665527
0.006621
0.00654095
0.00637576
0.00609367
0.00564036
0.00499121
0.0042577
0.00349982
0.00276184
0.00207189
0.00144757
0.000925016
0.000549346
0.000335572
0.000247214
0.000197813
0.000138045
7.99825e-05
0.00670595
0.00670074
0.0066966
0.00669185
0.00668851
0.00668415
0.00668175
0.00667786
0.00667668
0.00667348
0.00667289
0.00666636
0.0066532
0.00661406
0.00652738
0.00636467
0.00608495
0.00562885
0.00498533
0.00426043
0.00351146
0.00277799
0.00208963
0.00146435
0.000938311
0.000559196
0.000340694
0.000248214
0.000196829
0.000136793
8.11077e-05
0.00670594
0.00670075
0.00669657
0.00669187
0.00668847
0.00668414
0.00668167
0.00667777
0.00667655
0.00667343
0.00667375
0.00667058
0.00666754
0.00665025
0.00661165
0.00652611
0.00636206
0.00607898
0.00562541
0.00498924
0.00427537
0.0035346
0.00280587
0.00211574
0.00148598
0.000954728
0.000570646
0.000346099
0.000249092
0.000195708
0.000135431
8.23588e-05
0.00670593
0.00670077
0.00669656
0.00669188
0.00668844
0.00668414
0.0066816
0.0066777
0.00667642
0.00667328
0.00667385
0.00667185
0.00667335
0.00666702
0.00665412
0.00661489
0.00652852
0.0063645
0.00608175
0.00563656
0.00501135
0.0043055
0.00356968
0.00284241
0.00214892
0.00151248
0.000973883
0.000583407
0.000351884
0.000249875
0.000194407
0.000133969
8.3596e-05
0.00670592
0.00670078
0.00669654
0.0066919
0.0066884
0.00668415
0.00668153
0.00667767
0.0066763
0.00667313
0.00667373
0.00667207
0.00667527
0.00667411
0.00667417
0.00666202
0.00662222
0.00653773
0.00637543
0.00610186
0.00566494
0.00504751
0.00434855
0.0036158
0.00288683
0.00218901
0.00154311
0.000995865
0.000597759
0.000358084
0.000250692
0.000192722
0.000132538
8.48143e-05
0.00670591
0.00670079
0.00669652
0.00669192
0.00668837
0.00668417
0.00668147
0.00667765
0.00667618
0.006673
0.00667356
0.00667195
0.00667573
0.0066766
0.00668299
0.00668521
0.00667204
0.00663674
0.0065572
0.00640251
0.00613696
0.00570838
0.00509874
0.00440461
0.00367272
0.00294031
0.00223456
0.00157902
0.00102045
0.000613108
0.000365621
0.000251753
0.000190985
0.000131187
8.60026e-05
0.0067008
0.0067059
0.0066965
0.00669193
0.00668833
0.00668418
0.0066814
0.00667764
0.00667606
0.00667291
0.00667338
0.00667174
0.00667569
0.00667727
0.00668627
0.00669589
0.00669693
0.00669003
0.00666362
0.00659048
0.00644441
0.00618782
0.00576846
0.00516497
0.00447416
0.0037408
0.00300212
0.0022866
0.00161921
0.00104766
0.000631188
0.000374661
0.00025292
0.000189116
0.000129862
8.71558e-05
0.00669649
0.00670083
0.0067059
0.00669195
0.0066883
0.0066842
0.00668134
0.00667765
0.00667595
0.00667285
0.0066732
0.00667154
0.0066755
0.00667728
0.00668726
0.00670013
0.00670864
0.00671718
0.00672216
0.00670187
0.00663862
0.00650241
0.0062565
0.00584541
0.00524742
0.0045572
0.00381965
0.00307266
0.0023447
0.00166324
0.00108081
0.000652742
0.000384028
0.000254197
0.000187297
0.000128648
8.8268e-05
0.00669196
0.0066965
0.00670088
0.0067059
0.00668828
0.00668422
0.00668129
0.00667766
0.00667584
0.00667282
0.00667303
0.00667137
0.00667528
0.00667707
0.00668741
0.0067016
0.00671349
0.00673029
0.0067528
0.00676435
0.00675535
0.0067034
0.00657918
0.0063436
0.00594087
0.00534558
0.0046539
0.00390981
0.00315118
0.00240883
0.00171655
0.00112083
0.000675367
0.000393931
0.000255579
0.000185394
0.00012745
8.93358e-05
0.00668825
0.00669201
0.00669652
0.00670093
0.00670589
0.00668424
0.00668123
0.00667768
0.00667574
0.00667281
0.00667285
0.00667124
0.00667506
0.0066768
0.00668727
0.006702
0.00671531
0.00673605
0.00676825
0.006798
0.00682215
0.00682544
0.00678762
0.00667642
0.00645222
0.00605504
0.00546095
0.00476447
0.00401018
0.0032381
0.00248621
0.00178139
0.00116369
0.00069917
0.000404338
0.000257096
0.00018362
0.000126287
9.03556e-05
0.00668425
0.00668827
0.0066921
0.00669655
0.00670098
0.00670589
0.00668119
0.0066777
0.00667564
0.00667282
0.00667268
0.00667115
0.00667484
0.00667653
0.00668705
0.00670198
0.00671592
0.00673844
0.00677556
0.00681557
0.00685909
0.00689666
0.00691583
0.00689234
0.00679525
0.00658186
0.0061904
0.00559351
0.00488853
0.00412195
0.00334304
0.00258002
0.00185106
0.00120999
0.000723927
0.000415239
0.000258704
0.000181956
0.000125174
9.1327e-05
0.00668115
0.00668432
0.00668831
0.00669219
0.00669659
0.00670103
0.00670589
0.00667772
0.00667555
0.00667283
0.00667251
0.00667112
0.00667462
0.0066763
0.00668682
0.00670182
0.00671605
0.00673944
0.00677896
0.00682439
0.00687967
0.00693768
0.00699213
0.00702599
0.00701886
0.00693575
0.00673328
0.00634461
0.00574475
0.00502704
0.0042564
0.00347038
0.00268095
0.00192517
0.0012586
0.000749589
0.00042633
0.000260418
0.000180402
0.000124123
9.2248e-05
0.00667774
0.00668115
0.00668444
0.00668836
0.00669228
0.00669662
0.00670107
0.00670589
0.00667547
0.00667286
0.00667235
0.00667111
0.00667439
0.00667612
0.00668662
0.00670162
0.006716
0.00673988
0.0067807
0.00682915
0.00689122
0.00696224
0.00703952
0.00711132
0.00716341
0.00716939
0.00709723
0.00690367
0.00651731
0.00591147
0.00519761
0.00442272
0.00360855
0.00278861
0.00200338
0.00130891
0.000775842
0.000437818
0.000262233
0.000178953
0.000123132
9.31201e-05
0.00667539
0.00667782
0.00668119
0.00668457
0.00668842
0.00669237
0.00669666
0.00670112
0.00670589
0.00667288
0.00667219
0.00667114
0.00667414
0.00667601
0.00668644
0.00670141
0.0067159
0.00674008
0.00678169
0.006832
0.00689814
0.00697702
0.00706946
0.0071656
0.00725851
0.00732767
0.00734998
0.00728587
0.00709389
0.00670609
0.0061124
0.00540363
0.00460266
0.00375593
0.00290247
0.0020849
0.00136086
0.000802736
0.000449315
0.000264088
0.000177598
0.00012221
9.39424e-05
0.00667291
0.00667536
0.00667796
0.00668124
0.00668469
0.00668848
0.00669246
0.0066967
0.00670117
0.0067059
0.00667204
0.00667118
0.00667389
0.00667597
0.00668626
0.00670121
0.00671578
0.0067402
0.00678237
0.006834
0.00690284
0.00698677
0.00708938
0.00720237
0.00732229
0.00743437
0.00752293
0.00755794
0.00750309
0.00731019
0.00693338
0.0063507
0.00562232
0.00479247
0.00391076
0.00302093
0.0021692
0.00141419
0.000829941
0.000461139
0.000266062
0.00017635
0.000121347
9.47176e-05
0.00667191
0.006673
0.00667536
0.00667811
0.0066813
0.00668481
0.00668854
0.00669255
0.00669674
0.00670121
0.0067059
0.00667124
0.00667363
0.006676
0.00668607
0.00670103
0.00671566
0.00674027
0.00678289
0.0068356
0.00690643
0.00699409
0.0071039
0.00722885
0.0073689
0.00751025
0.00764487
0.00774888
0.00779627
0.00774655
0.00757823
0.00721763
0.00660621
0.00584901
0.00498815
0.00407035
0.00314334
0.00225563
0.00146849
0.000857523
0.00047277
0.000268188
0.000175199
0.000120554
9.54456e-05
0.0066713
0.00667177
0.00667314
0.00667537
0.00667825
0.00668137
0.00668494
0.00668862
0.00669264
0.00669679
0.00670126
0.00670591
0.00667337
0.00667609
0.00668584
0.00670087
0.00671557
0.00674035
0.00678333
0.00683698
0.00690942
0.00700018
0.00711558
0.00724944
0.00740543
0.0075696
0.00773698
0.00788966
0.00800969
0.00806522
0.00804688
0.00790805
0.00752923
0.00688317
0.00608453
0.0051877
0.00423345
0.00326789
0.00234347
0.00152345
0.000885141
0.000484075
0.000270371
0.00017415
0.000119814
9.61296e-05
0.00667312
0.00667137
0.00667162
0.00667328
0.00667539
0.0066784
0.00668145
0.00668506
0.0066887
0.00669272
0.00669685
0.0067013
0.00670592
0.00667623
0.00668555
0.00670073
0.00671549
0.00674043
0.00678374
0.00683822
0.00691202
0.00700553
0.00712559
0.00726687
0.00743589
0.00761905
0.00781385
0.00800231
0.00817486
0.00830591
0.00839938
0.00841944
0.00826842
0.00786186
0.00717697
0.00633244
0.00538825
0.00439652
0.00339319
0.00243193
0.0015787
0.000913033
0.000495112
0.00027262
0.000173185
0.000119141
9.677e-05
0.0066764
0.00667272
0.00667145
0.00667148
0.00667342
0.00667543
0.00667854
0.00668154
0.00668518
0.00668878
0.00669281
0.0066969
0.00670134
0.00670592
0.0066852
0.00670064
0.00671545
0.00674052
0.00678414
0.00683935
0.00691435
0.00701038
0.00713446
0.00728243
0.00746278
0.00766181
0.00788179
0.00810208
0.00831468
0.00850112
0.00867709
0.00881782
0.00882991
0.00865633
0.00821285
0.00748185
0.00659013
0.00559463
0.00455915
0.00351832
0.0025205
0.00163389
0.000941212
0.000505886
0.00027493
0.000172316
0.000118514
9.73702e-05
0.00668478
0.00667646
0.00667212
0.00667153
0.00667136
0.00667356
0.00667549
0.00667867
0.00668164
0.00668529
0.00668888
0.00669289
0.00669696
0.00670138
0.00670593
0.00670062
0.00671545
0.00674064
0.00678452
0.00684039
0.00691647
0.0070148
0.00714246
0.00729669
0.00748717
0.00770038
0.00794344
0.00819466
0.00844477
0.00867482
0.00891452
0.0091476
0.00928401
0.00927613
0.00906922
0.00857952
0.00779562
0.0068523
0.00580513
0.00472092
0.00364242
0.00260834
0.00168877
0.000969167
0.000516399
0.000277143
0.000171506
0.000117945
9.7931e-05
0.00670071
0.00668358
0.00667643
0.00667153
0.00667162
0.00667128
0.00667368
0.00667557
0.0066788
0.00668176
0.00668541
0.00668898
0.00669298
0.00669703
0.00670142
0.00670595
0.00671548
0.00674078
0.00678487
0.00684134
0.0069184
0.00701884
0.00714972
0.00730988
0.00750949
0.0077361
0.00800106
0.00828072
0.0085696
0.00884429
0.00913823
0.00944642
0.00967922
0.00979803
0.0097575
0.00950566
0.00895976
0.00811607
0.00711681
0.00601753
0.00488136
0.003764
0.00269491
0.00174301
0.000996791
0.000526649
0.00027934
0.000170788
0.000117417
9.84555e-05
0.00671554
0.00670028
0.00668142
0.00667645
0.00667097
0.00667168
0.00667124
0.00667379
0.00667567
0.00667892
0.00668189
0.00668552
0.00668909
0.00669306
0.00669709
0.00670145
0.00670596
0.00674092
0.00678519
0.00684218
0.00692015
0.00702253
0.00715635
0.00732208
0.00752998
0.00776961
0.00805541
0.00836152
0.00868876
0.009015
0.00936796
0.0097436
0.0100581
0.0102781
0.0103651
0.0102767
0.00996586
0.00935226
0.00844147
0.00738222
0.00622997
0.00504219
0.00388306
0.00277979
0.00179639
0.00102401
0.000536617
0.000281534
0.000170108
0.000116939
9.8945e-05
0.00674107
0.0067145
0.00669943
0.00667921
0.00667644
0.00667051
0.00667169
0.00667125
0.00667387
0.00667581
0.00667904
0.00668203
0.00668563
0.00668919
0.00669314
0.00669715
0.00670149
0.00670597
0.00678543
0.00684293
0.00692175
0.00702588
0.00716241
0.00733333
0.00754882
0.00780114
0.00810646
0.00843793
0.00880459
0.00918499
0.00960596
0.0100611
0.0104586
0.0107727
0.0109642
0.0109978
0.0108396
0.0104513
0.00975643
0.00877055
0.00764737
0.00644005
0.00520196
0.00399946
0.00286271
0.00184862
0.00105072
0.000546311
0.000283681
0.000169518
0.000116496
9.94021e-05
0.00678564
0.00673928
0.00671224
0.0066986
0.00667728
0.00667628
0.00667017
0.00667165
0.00667131
0.00667394
0.00667596
0.00667915
0.00668218
0.00668574
0.0066893
0.00669321
0.0066972
0.00670152
0.00670598
0.00684358
0.00692318
0.00702891
0.00716794
0.00734365
0.00756614
0.00783071
0.00815412
0.00851068
0.00891834
0.00935325
0.00984179
0.0104041
0.0109225
0.0113455
0.0116376
0.0117657
0.0117099
0.0114515
0.0109634
0.0101718
0.00910226
0.00791119
0.00664708
0.0053596
0.00411293
0.00294336
0.0018996
0.00107683
0.000555707
0.000285778
0.000168949
0.000116094
9.98282e-05
0.00684419
0.00678257
0.00673535
0.00670992
0.00669751
0.00667593
0.00667591
0.00666999
0.00667154
0.00667143
0.00667399
0.00667613
0.00667926
0.00668233
0.00668585
0.0066894
0.00669329
0.00669726
0.00670155
0.00670599
0.00692446
0.00703164
0.00717297
0.00735307
0.00758206
0.00785828
0.00819841
0.00858029
0.00902937
0.00951696
0.0100743
0.0107745
0.0114847
0.0120767
0.0124812
0.0126899
0.0126967
0.012505
0.0121125
0.0115011
0.0105972
0.00943556
0.00817274
0.00685044
0.00551429
0.00422339
0.00302172
0.00194911
0.00110228
0.000564816
0.000287815
0.000168438
0.000115723
0.000100175
0.00692566
0.00684014
0.00677595
0.00673142
0.00670759
0.00669578
0.00667512
0.00667532
0.00666997
0.00667138
0.0066716
0.00667404
0.00667632
0.00667938
0.00668247
0.00668595
0.0066895
0.00669336
0.00669731
0.00670159
0.006706
0.00703408
0.00717754
0.00736165
0.00759666
0.00788383
0.0082395
0.00864686
0.00913603
0.00967411
0.0103099
0.0111914
0.0121553
0.0130067
0.0135805
0.0138653
0.0139102
0.0137376
0.0133695
0.0128144
0.0120601
0.0110305
0.00976914
0.00843118
0.00704961
0.00566538
0.00433025
0.00309714
0.00199704
0.00112696
0.000573607
0.00028979
0.000167978
0.000115428
0.000100466
0.00703633
0.00692004
0.00683095
0.00676921
0.00672765
0.00670529
0.00669363
0.00667478
0.00667451
0.00667007
0.00667118
0.0066718
0.00667409
0.0066765
0.00667949
0.00668261
0.00668606
0.0066896
0.00669343
0.00669737
0.00670162
0.00670601
0.00718164
0.00736941
0.00761001
0.00790736
0.00827759
0.0087101
0.00923685
0.0098253
0.0105577
0.011665
0.0129219
0.0140664
0.0148941
0.0153146
0.0153929
0.0152221
0.0148391
0.0142743
0.0135416
0.0126325
0.0114682
0.0101014
0.00868567
0.00724409
0.00581253
0.00443464
0.00316968
0.00204327
0.00115087
0.000582105
0.000291698
0.000167619
0.000115183
0.00010078
0.0071854
0.00702875
0.00690683
0.00682186
0.00676264
0.00672413
0.00670301
0.00669097
0.00667481
0.00667358
0.00667026
0.00667098
0.00667201
0.00667415
0.00667668
0.00667961
0.00668274
0.00668617
0.00668969
0.0066935
0.00669742
0.00670165
0.00670602
0.0073764
0.00762217
0.00792892
0.00831283
0.00876961
0.00933119
0.00997286
0.0108231
0.0121852
0.013736
0.0151506
0.0162235
0.0168693
0.0170692
0.0169199
0.0165312
0.0159421
0.0151844
0.0142751
0.0132091
0.0119062
0.0104307
0.00893537
0.00743346
0.00595479
0.00453608
0.0032394
0.00208779
0.00117392
0.000590268
0.000293303
0.000167315
0.000114921
0.000101121
0.00738271
0.0071752
0.00701002
0.00689363
0.00681313
0.00675638
0.00672082
0.00670121
0.0066879
0.00667509
0.0066726
0.00667048
0.00667081
0.0066722
0.00667423
0.00667684
0.00667974
0.00668287
0.00668627
0.00668977
0.00669357
0.00669747
0.00670168
0.00670602
0.00763318
0.00794857
0.00834534
0.00882503
0.00941926
0.0101191
0.0111045
0.0127267
0.0145354
0.0161592
0.017417
0.0182616
0.0186821
0.0186765
0.0183328
0.0177607
0.0169954
0.0160675
0.014996
0.01378
0.0123406
0.0107552
0.00917949
0.00761735
0.00609207
0.00463426
0.00330629
0.00213048
0.00119614
0.000597129
0.000294687
0.000166999
0.000114644
0.000101488
0.00764312
0.00736947
0.00714891
0.00699127
0.00688083
0.00680467
0.00675044
0.00671764
0.00669992
0.00668469
0.00667544
0.00667168
0.00667068
0.0066707
0.00667237
0.00667434
0.00667698
0.00667987
0.00668299
0.00668638
0.00668986
0.00669364
0.00669751
0.00670169
0.00670602
0.00796639
0.00837516
0.00887622
0.00950174
0.0102651
0.0113944
0.0132604
0.0152702
0.017029
0.0183969
0.0193725
0.0199769
0.0202088
0.0200523
0.0195702
0.0188643
0.0179645
0.016899
0.0156881
0.014336
0.0127668
0.0110735
0.00941747
0.00779545
0.00622426
0.00472893
0.00337038
0.00217147
0.00121472
0.000603007
0.000296218
0.000166651
0.000114347
0.000101886
0.00798234
0.00762597
0.00733321
0.0071226
0.00697301
0.0068684
0.00679643
0.0067447
0.00671465
0.00669883
0.00668157
0.00667571
0.00667093
0.00667079
0.00667066
0.0066725
0.00667446
0.00667712
0.00668
0.0066831
0.00668648
0.00668994
0.00669371
0.00669754
0.00670169
0.00670602
0.00840241
0.00892323
0.00957944
0.0104104
0.0116829
0.013763
0.0159125
0.0177375
0.0191469
0.0201842
0.0209026
0.0213222
0.021426
0.0211782
0.0206136
0.0198234
0.0188317
0.0176635
0.0163395
0.0148689
0.0131807
0.0113838
0.00964904
0.00796751
0.00635135
0.00482002
0.00343176
0.00220551
0.00123067
0.000609536
0.000297922
0.0001663
0.000114038
0.000102315
0.00842677
0.00796072
0.00757632
0.00729689
0.00709694
0.00695522
0.00685629
0.00678834
0.0067392
0.00671185
0.00669779
0.0066788
0.00667572
0.00667041
0.00667081
0.0066707
0.00667261
0.00667461
0.00667724
0.00668014
0.0066832
0.00668659
0.00669002
0.00669374
0.00669753
0.00670169
0.00670602
0.00896626
0.00965292
0.0105533
0.0119606
0.01422
0.0164535
0.0182899
0.0196874
0.0207289
0.0214956
0.0220291
0.0223291
0.0223604
0.0220709
0.0214701
0.020638
0.0195924
0.0183542
0.0169435
0.0153733
0.0135786
0.0116845
0.0098736
0.00813386
0.00647338
0.00490734
0.00348261
0.00223467
0.00124831
0.000616737
0.000299811
0.000165911
0.000113705
0.00010278
0.00900459
0.00839928
0.00789366
0.00752661
0.00726139
0.00707191
0.00693787
0.00684446
0.00678033
0.00673411
0.00670912
0.00669665
0.00667681
0.0066754
0.00667014
0.00667076
0.00667079
0.00667269
0.00667476
0.00667735
0.00668028
0.0066833
0.00668669
0.00669005
0.00669375
0.00669753
0.00670169
0.00670602
0.00972255
0.0106916
0.0122203
0.0146251
0.0168972
0.0187056
0.0200541
0.0210578
0.0218205
0.0224028
0.0228208
0.0230545
0.0230556
0.0227611
0.0221593
0.0213186
0.0202504
0.0189703
0.017497
0.0158463
0.0139582
0.0119739
0.0100906
0.00829449
0.00659046
0.00498037
0.00352618
0.00226683
0.00126784
0.000624795
0.00030193
0.000165524
0.000113364
0.000103282
0.00978617
0.00897031
0.00830871
0.00782643
0.00747798
0.00722671
0.0070475
0.00692096
0.00683289
0.00677237
0.00672934
0.00670636
0.00669489
0.00667571
0.00667479
0.00667006
0.00667064
0.00667093
0.00667276
0.00667492
0.00667746
0.00668042
0.0066834
0.00668674
0.00669005
0.00669375
0.00669753
0.00670169
0.00670602
0.0108234
0.0124611
0.0149781
0.0172543
0.019009
0.0202847
0.0212225
0.0219436
0.0225238
0.0229945
0.0233499
0.0235556
0.0235564
0.0232825
0.0227048
0.0218802
0.0208137
0.0195151
0.0180003
0.0162863
0.014318
0.0122513
0.0102995
0.00844979
0.00668948
0.00504283
0.00357425
0.00230236
0.00128953
0.000633703
0.000304287
0.000165095
0.000112995
0.000103825
0.010942
0.00974285
0.00884692
0.00821818
0.00776052
0.00743045
0.00719285
0.00702369
0.00690447
0.0068216
0.00676453
0.00672477
0.00670361
0.00669246
0.0066753
0.006674
0.00667011
0.0066705
0.00667109
0.00667282
0.00667509
0.00667756
0.00668055
0.00668345
0.00668674
0.00669005
0.00669375
0.00669753
0.00670169
0.00670602
0.0126835
0.0152802
0.0175377
0.0192234
0.0204132
0.021268
0.0219222
0.0224636
0.0229365
0.0233484
0.0236776
0.0238817
0.0239023
0.0236663
0.0231299
0.0223393
0.0212927
0.019994
0.0184551
0.0166934
0.0146577
0.0125166
0.0105006
0.00857997
0.00677405
0.00511175
0.00362738
0.00234169
0.00131364
0.000643759
0.000306953
0.000164675
0.000112625
0.000104411
0.0108935
0.0128785
0.00956155
0.00872581
0.00812924
0.00769607
0.007384
0.00715981
0.0070005
0.00688844
0.00681066
0.00675685
0.00672053
0.00670104
0.0066894
0.00667531
0.00667314
0.00667023
0.00667037
0.00667126
0.00667288
0.00667525
0.00667767
0.00668062
0.00668344
0.00668675
0.00669005
0.00669375
0.00669754
0.00670168
0.00670601
0.0155346
0.0177603
0.0193695
0.0204674
0.0212302
0.0218017
0.0222789
0.022717
0.0231355
0.0235245
0.0238523
0.0240724
0.0241263
0.0239395
0.0234559
0.0227115
0.0216981
0.0204132
0.0188646
0.0170687
0.0149772
0.0127696
0.0106683
0.008691
0.00686722
0.00518812
0.00368623
0.00238534
0.00134055
0.000654905
0.000309926
0.000164212
0.000112225
0.000105044
0.0106184
0.0128252
0.0157446
0.00938806
0.00860766
0.00804201
0.00763304
0.00733863
0.00712762
0.00697796
0.00687292
0.00680025
0.00674949
0.0067168
0.00669943
0.00668621
0.0066755
0.00667232
0.00667038
0.00667024
0.00667143
0.00667295
0.00667541
0.0066777
0.00668063
0.00668343
0.00668675
0.00669005
0.00669374
0.00669751
0.00670165
0.006706
0.0179339
0.019464
0.0204688
0.0211362
0.0216166
0.0220133
0.0223902
0.0227779
0.0231778
0.0235678
0.0239104
0.0241586
0.024255
0.0241249
0.0237013
0.0230112
0.0220402
0.0207796
0.0192327
0.0174139
0.0152769
0.0129782
0.0108107
0.00881314
0.00696991
0.00527285
0.00375156
0.00243388
0.00137063
0.000667502
0.000313325
0.000163767
0.000111833
0.000105728
0.0103456
0.0124474
0.0156656
0.0180668
0.0092243
0.00849165
0.00795662
0.00757144
0.00729439
0.00709633
0.00695613
0.006858
0.00679049
0.00674281
0.00671345
0.00669821
0.00668319
0.00667569
0.00667159
0.00667051
0.00667015
0.0066716
0.00667302
0.00667551
0.00667768
0.00668064
0.00668343
0.00668674
0.00669005
0.00669371
0.00669746
0.00670162
0.00670599
0.0195204
0.0204339
0.0210063
0.0213919
0.0216986
0.0219964
0.0223256
0.0226987
0.0231038
0.0235107
0.0238795
0.0241643
0.0243098
0.024241
0.0238817
0.0232508
0.0223283
0.0210997
0.0195632
0.0177307
0.0155195
0.0131541
0.0109668
0.00894761
0.00708326
0.00536699
0.00382424
0.00248801
0.00140438
0.000681775
0.000317135
0.000163367
0.000111417
0.000106465
0.0100895
0.0120318
0.0153153
0.0179525
0.0195424
0.0090675
0.00837751
0.00787317
0.00751133
0.00725136
0.00706599
0.00693507
0.00684381
0.00678141
0.00673669
0.00671053
0.00669714
0.00668053
0.00667577
0.00667101
0.0066706
0.00667009
0.00667176
0.00667303
0.00667553
0.00667767
0.00668064
0.00668344
0.00668674
0.00669002
0.00669364
0.00669742
0.00670159
0.00670598
0.0203749
0.020855
0.0211459
0.021358
0.0215652
0.021816
0.0221333
0.0225161
0.0229423
0.023377
0.0237802
0.0241081
0.0243076
0.024303
0.0240102
0.0234411
0.0225707
0.0213793
0.0198597
0.0179816
0.015722
0.0133451
0.0111376
0.00909581
0.00720865
0.00547175
0.00390532
0.00254859
0.00144234
0.000698027
0.000321404
0.000162965
0.000111018
0.00010726
0.00985088
0.0116165
0.0148752
0.0177122
0.0193762
0.0202918
0.00891543
0.00826543
0.00779178
0.0074528
0.00720963
0.0070367
0.00691498
0.00683066
0.00677302
0.00673124
0.0067079
0.00669611
0.00667839
0.00667567
0.00667058
0.00667067
0.00667006
0.00667185
0.00667299
0.00667554
0.00667767
0.00668063
0.00668345
0.00668669
0.00668994
0.00669357
0.00669736
0.00670155
0.00670596
0.0206928
0.0208913
0.0210077
0.0211182
0.021277
0.0215167
0.021847
0.0222558
0.0227138
0.0231841
0.0236281
0.0240047
0.0242617
0.024323
0.0240974
0.023591
0.0227748
0.0216236
0.0200892
0.0181884
0.0159391
0.0135522
0.0113246
0.00925925
0.00734764
0.00558855
0.00399593
0.00261633
0.00148522
0.000716566
0.000326137
0.000162569
0.000110611
0.000108115
0.00962691
0.0112179
0.0143786
0.0173948
0.0192119
0.0200733
0.0205154
0.00876708
0.00815572
0.00771262
0.00739599
0.00716932
0.0070087
0.00689635
0.00681863
0.00676526
0.00672646
0.00670544
0.00669495
0.00667703
0.00667538
0.00667028
0.00667072
0.00667002
0.00667188
0.00667297
0.00667554
0.00667768
0.00668062
0.0066834
0.00668658
0.00668985
0.0066935
0.00669731
0.00670152
0.00670595
0.0206372
0.0206595
0.0206706
0.0207294
0.0208753
0.0211292
0.0214899
0.0219356
0.0224328
0.0229448
0.0234356
0.0238656
0.0241829
0.0243107
0.0241521
0.0237081
0.0229464
0.0218076
0.0202761
0.0184069
0.0161713
0.0137765
0.0115294
0.0094396
0.00750217
0.00571908
0.0040982
0.00269242
0.00153378
0.000737954
0.000331535
0.000162264
0.000110234
0.000109034
0.00941498
0.0108424
0.0138498
0.0170228
0.0189831
0.019944
0.0202454
0.0203737
0.00862224
0.00804872
0.00763588
0.00734106
0.0071308
0.00698273
0.00687938
0.00680761
0.00675807
0.00672229
0.00670307
0.00669311
0.00667623
0.00667495
0.00667008
0.00667073
0.00666997
0.00667189
0.00667297
0.00667553
0.0066777
0.00668055
0.0066833
0.00668648
0.00668977
0.00669343
0.00669726
0.00670149
0.00670594
0.0203212
0.0202332
0.0201879
0.0202298
0.0203887
0.0206754
0.0210779
0.0215679
0.0221098
0.0226691
0.0232122
0.0237
0.0240798
0.0242741
0.0241812
0.0237985
0.0230699
0.0219552
0.0204703
0.0186367
0.0164189
0.014019
0.0117532
0.00963836
0.00767424
0.00586485
0.00421384
0.00277828
0.00158906
0.00076263
0.000337604
0.000162026
0.000109881
0.000110198
0.00921315
0.0104928
0.0133013
0.0166039
0.0187149
0.0197629
0.0201227
0.0200524
0.0199774
0.00848109
0.00794478
0.00756176
0.00728853
0.00709508
0.00695911
0.0068639
0.00679755
0.00675135
0.00671857
0.00670097
0.00669084
0.00667581
0.00667449
0.00667001
0.00667071
0.00666996
0.00667189
0.00667299
0.00667551
0.00667766
0.00668041
0.0066832
0.00668637
0.00668968
0.00669336
0.0066972
0.00670145
0.00670593
0.0198136
0.0196635
0.0195952
0.0196462
0.0198381
0.0201698
0.0206217
0.021161
0.0217525
0.0223649
0.0229659
0.0235152
0.0239591
0.0242192
0.0241905
0.023856
0.023167
0.0221056
0.0206712
0.0188776
0.0166823
0.0142805
0.0119977
0.00985743
0.00786586
0.00602803
0.00434487
0.00287563
0.00165226
0.000791421
0.000344538
0.000161896
0.000109525
0.000111582
0.00902008
0.0101702
0.0127409
0.0161388
0.0184178
0.0195567
0.0199565
0.019919
0.0196049
0.0193994
0.00834381
0.00784437
0.00749095
0.00723982
0.00706262
0.00693762
0.0068498
0.0067884
0.00674512
0.00671538
0.00669937
0.00668842
0.00667559
0.00667411
0.00667005
0.0066707
0.00666996
0.00667188
0.00667302
0.00667541
0.00667756
0.00668027
0.00668309
0.00668627
0.00668959
0.00669329
0.00669714
0.00670142
0.00670592
0.0191635
0.0189828
0.0189176
0.0189995
0.019237
0.0196221
0.0201286
0.0207205
0.021367
0.0220388
0.0227032
0.0233174
0.0238262
0.0241513
0.024183
0.0238987
0.0232625
0.0222576
0.0208777
0.0191289
0.0169612
0.0145618
0.0122641
0.0100987
0.00807925
0.00621099
0.00449361
0.00298657
0.00172494
0.000825012
0.0003528