/*--------------------------------*- C++ -*----------------------------------*\
  =========                 |
  \\      /  F ield         | OpenFOAM: The Open Source CFD Toolbox
   \\    /   O peration     | Website:  https://openfoam.org
    \\  /    A nd           | Version:  8
     \\/     M anipulation  |
\*---------------------------------------------------------------------------*/
FoamFile
{
    version     2.0;
    format      ascii;
    class       surfaceScalarField;
    location    "600";
    object      phi;
}
// * * * * * * * * * * * * * * * * * * * * * * * * * * * * * * * * * * * * * //

dimensions      [0 3 -1 0 0 0 0];

internalField   nonuniform List<scalar> 
31053
(
1.74482e-06
1.16352e-05
1.36363e-06
1.57612e-05
9.63054e-07
1.06721e-05
1.26624e-06
1.77374e-05
1.52653e-06
1.51977e-05
5.92617e-07
1.00795e-05
1.20177e-06
2.03045e-05
1.50975e-06
1.77542e-05
1.20905e-06
1.45813e-05
4.30944e-07
9.64855e-06
1.13107e-06
2.33107e-05
1.45146e-06
2.03628e-05
1.33684e-06
1.76264e-05
9.70132e-07
1.40421e-05
3.06236e-07
9.34231e-06
1.05754e-06
2.67335e-05
1.39814e-06
2.3364e-05
1.32645e-06
2.03731e-05
1.18637e-06
1.74101e-05
7.46079e-07
1.36022e-05
2.13221e-07
9.12908e-06
9.80647e-07
3.06969e-05
1.34206e-06
2.67896e-05
1.29551e-06
2.3395e-05
1.2223e-06
2.03372e-05
1.0006e-06
1.71556e-05
5.66052e-07
1.32494e-05
1.51633e-07
8.97744e-06
9.00135e-07
3.52205e-05
1.28087e-06
3.07581e-05
1.25865e-06
2.68265e-05
1.20861e-06
2.34087e-05
1.07258e-06
2.02652e-05
8.256e-07
1.6896e-05
4.29046e-07
1.2972e-05
1.09099e-07
8.86834e-06
8.16392e-07
4.04037e-05
1.21411e-06
3.52873e-05
1.21744e-06
3.07993e-05
1.18043e-06
2.68546e-05
1.07612e-06
2.34051e-05
9.19628e-07
2.01712e-05
6.73984e-07
1.66511e-05
3.22248e-07
1.27588e-05
7.78e-08
8.79053e-06
7.30218e-07
4.63662e-05
1.14155e-06
4.04763e-05
1.17132e-06
3.53334e-05
1.14546e-06
3.08343e-05
1.05644e-06
2.68743e-05
9.35624e-07
2.33891e-05
7.80078e-07
2.00651e-05
5.42217e-07
1.64311e-05
2.38349e-07
1.25983e-05
5.23088e-08
8.73821e-06
6.42884e-07
5.32273e-05
1.06315e-06
4.64446e-05
1.11931e-06
4.05283e-05
1.10503e-06
3.53738e-05
1.02603e-06
3.08647e-05
9.21604e-07
2.68883e-05
8.03792e-07
2.33654e-05
6.51962e-07
1.99554e-05
4.25349e-07
1.62441e-05
1.69874e-07
1.24807e-05
2.8086e-08
8.71011e-06
5.56179e-07
6.10667e-05
9.79242e-07
5.33112e-05
1.06047e-06
4.65034e-05
1.05884e-06
4.05745e-05
9.88422e-07
3.54114e-05
8.93175e-07
3.08931e-05
7.92245e-07
2.68999e-05
6.7833e-07
2.3339e-05
5.31448e-07
1.98492e-05
3.19815e-07
1.60942e-05
1.09769e-07
1.2399e-05
7.11298e-09
8.70301e-06
4.7203e-07
7.00661e-05
8.90554e-07
6.11554e-05
9.94095e-07
5.33776e-05
1.0061e-06
4.65561e-05
9.44418e-07
4.06185e-05
8.55531e-07
3.54491e-05
7.62903e-07
3.09224e-05
6.65791e-07
2.69124e-05
5.56071e-07
2.33144e-05
4.15619e-07
1.97534e-05
2.23179e-07
1.59808e-05
5.60479e-08
1.23501e-05
-1.04729e-08
8.71347e-06
3.92477e-07
8.04116e-05
7.98122e-07
7.01586e-05
9.19982e-07
6.12295e-05
9.45854e-07
5.34379e-05
8.93757e-07
4.66068e-05
8.10328e-07
4.06637e-05
7.22089e-07
3.54899e-05
6.32611e-07
3.09556e-05
5.39125e-07
2.69294e-05
4.34504e-07
2.32955e-05
3.02774e-07
1.96738e-05
1.33729e-07
1.59031e-05
7.19175e-09
1.23324e-05
-2.74152e-08
8.74089e-06
3.31089e-07
7.62514e-05
7.0303e-07
8.05066e-05
8.38592e-07
7.024e-05
8.7727e-07
6.12981e-05
8.35724e-07
5.34959e-05
7.57756e-07
4.66594e-05
6.72092e-07
4.07137e-05
5.85688e-07
3.55368e-05
4.99134e-07
3.09956e-05
4.09849e-07
2.6954e-05
3.11953e-07
2.32863e-05
1.92014e-07
1.96156e-05
4.98152e-08
1.58605e-05
-3.90087e-08
1.2344e-05
-4.51604e-08
8.78605e-06
2.8049e-07
7.62406e-05
6.22133e-07
7.63323e-05
7.50969e-07
8.05943e-05
7.99916e-07
7.03173e-05
7.69504e-07
6.13643e-05
6.97356e-07
5.35563e-05
6.1349e-07
4.6718e-05
5.2768e-07
4.07717e-05
4.43185e-07
3.55927e-05
3.60049e-07
3.10454e-05
2.76377e-07
2.69896e-05
1.87699e-07
2.32906e-05
8.27604e-08
1.95826e-05
-3.05873e-08
1.5852e-05
-8.40646e-08
1.23829e-05
-6.33938e-08
8.84944e-06
2.38487e-07
7.6232e-05
5.49608e-07
7.63131e-05
6.73636e-07
7.64096e-05
7.14182e-07
8.068e-05
6.94394e-07
7.03924e-05
6.28454e-07
6.14332e-05
5.46072e-07
5.36237e-05
4.59425e-07
4.67862e-05
3.74073e-07
4.08408e-05
2.9213e-07
3.56607e-05
2.13721e-07
3.11081e-05
1.38123e-07
2.70392e-05
6.12616e-08
2.33121e-05
-2.58455e-08
1.95779e-05
-1.08688e-07
1.58767e-05
-1.28389e-07
1.24479e-05
-8.17244e-08
8.93116e-06
2.03393e-07
7.62271e-05
4.84657e-07
7.6297e-05
6.02e-07
7.63848e-05
6.37168e-07
7.64866e-05
6.10229e-07
8.07642e-05
5.5038e-07
7.04705e-05
4.69346e-07
6.15099e-05
3.80902e-07
5.37022e-05
2.92732e-07
4.68676e-05
2.08805e-07
4.09241e-05
1.3078e-07
3.57436e-05
5.95666e-08
3.11866e-05
-5.34522e-09
2.71058e-05
-6.78641e-08
2.33542e-05
-1.34116e-07
1.96033e-05
-1.84911e-07
1.59332e-05
-1.71925e-07
1.25381e-05
-9.97699e-08
9.03093e-06
1.7389e-07
7.62195e-05
4.2651e-07
7.62852e-05
5.35924e-07
7.6363e-05
5.64824e-07
7.64571e-05
5.33542e-07
7.65633e-05
4.62879e-07
8.08517e-05
3.82771e-07
7.05571e-05
2.918e-07
6.1599e-05
1.99237e-07
5.37957e-05
1.10957e-07
4.69654e-05
3.00148e-08
4.10249e-05
-4.15558e-08
3.58447e-05
-1.02795e-07
3.12841e-05
-1.54337e-07
2.71922e-05
-1.99583e-07
2.34196e-05
-2.4172e-07
1.96601e-05
-2.59278e-07
1.60205e-05
-2.14209e-07
1.26526e-05
-1.17319e-07
9.14825e-06
1.48945e-07
7.62149e-05
3.74473e-07
7.62715e-05
4.75174e-07
7.6346e-05
4.97375e-07
7.64305e-05
4.6077e-07
7.65299e-05
3.83033e-07
7.66432e-05
2.86203e-07
8.09482e-05
1.91766e-07
7.06571e-05
9.34089e-08
6.17049e-05
-1.34984e-09
5.3908e-05
-8.7878e-08
4.70833e-05
-1.63114e-07
4.11465e-05
-2.25208e-07
3.59671e-05
-2.73438e-07
3.14032e-05
-3.08539e-07
2.73012e-05
-3.33066e-07
2.3511e-05
-3.4793e-07
1.97488e-05
-3.31346e-07
1.61377e-05
-2.55088e-07
1.27903e-05
-1.34126e-07
9.28238e-06
1.27747e-07
7.62112e-05
3.27917e-07
7.62615e-05
4.1951e-07
7.63272e-05
4.34875e-07
7.64085e-05
3.92485e-07
7.64988e-05
3.07205e-07
7.66057e-05
1.98492e-07
7.67309e-05
8.08825e-08
8.10591e-05
-2.49163e-08
7.07754e-05
-1.28221e-07
6.18317e-05
-2.2294e-07
5.40431e-05
-3.04704e-07
4.72249e-05
-3.70895e-07
4.12922e-05
-4.20022e-07
3.61137e-05
-4.51778e-07
3.15464e-05
-4.667e-07
2.74348e-05
-4.66932e-07
2.363e-05
-4.51873e-07
1.98693e-05
-4.00748e-07
1.62833e-05
-2.9413e-07
1.29503e-05
-1.49924e-07
9.4323e-06
1.11095e-07
6.95987e-05
2.86302e-07
7.62528e-05
3.68693e-07
7.63123e-05
3.7729e-07
7.63848e-05
3.29029e-07
7.64719e-05
2.36152e-07
7.65698e-05
1.15575e-07
7.66886e-05
-1.92062e-08
7.6831e-05
-1.55347e-07
8.11895e-05
-2.69648e-07
7.09169e-05
-3.75271e-07
6.19841e-05
-4.66575e-07
5.4205e-05
-5.39839e-07
4.73938e-05
-5.92951e-07
4.14651e-05
-6.25156e-07
3.62871e-05
-6.36233e-07
3.17159e-05
-6.26956e-07
2.75949e-05
-5.99675e-07
2.37778e-05
-5.52457e-07
2.0021e-05
-4.66873e-07
1.64561e-05
-3.30917e-07
1.31313e-05
-1.64505e-07
9.5968e-06
9.79779e-08
6.25571e-05
2.52275e-07
6.96327e-05
3.22474e-07
7.6299e-05
3.24539e-07
7.63651e-05
2.70601e-07
7.64432e-05
1.70411e-07
7.65377e-05
3.83456e-08
7.6647e-05
-1.1323e-07
7.67826e-05
-2.72369e-07
7.6948e-05
-4.249e-07
8.13448e-05
-5.44734e-07
7.10863e-05
-6.48892e-07
6.21664e-05
-7.32585e-07
5.43977e-05
-7.92682e-07
4.75936e-05
-8.28195e-07
4.16681e-05
-8.38693e-07
3.64896e-05
-8.24492e-07
3.19135e-05
-7.87312e-07
2.77825e-05
-7.29485e-07
2.39548e-05
-6.48604e-07
2.02027e-05
-5.28959e-07
1.66541e-05
-3.64866e-07
1.33317e-05
-1.77663e-07
9.77446e-06
8.74731e-08
5.62285e-05
2.24677e-07
6.25847e-05
2.83993e-07
6.96712e-05
2.76516e-07
7.63471e-05
2.17298e-07
7.64184e-05
1.10348e-07
7.65033e-05
-3.24966e-08
7.66085e-05
-2.00151e-07
7.6734e-05
-3.81615e-07
7.68919e-05
-5.63524e-07
7.70866e-05
-7.30239e-07
8.15303e-05
-8.51424e-07
7.12889e-05
-9.49429e-07
6.23832e-05
-1.02015e-06
5.46252e-05
-1.06191e-06
4.78273e-05
-1.07436e-06
4.19038e-05
-1.05788e-06
3.67229e-05
-1.01408e-06
3.21402e-05
-9.454e-07
2.79984e-05
-8.54616e-07
2.41608e-05
-7.39089e-07
2.04128e-05
-5.86274e-07
1.68755e-05
-3.9555e-07
1.35496e-05
-1.89252e-07
9.96372e-06
7.89414e-08
5.05405e-05
2.02099e-07
5.62511e-05
2.52282e-07
6.26164e-05
2.3668e-07
6.9711e-05
1.69164e-07
7.63952e-05
5.6199e-08
7.64725e-05
-9.64315e-08
7.65672e-05
-2.79106e-07
7.66875e-05
-4.81883e-07
7.68342e-05
-6.92274e-07
7.70206e-05
-8.95317e-07
7.72517e-05
-1.07272e-06
8.17516e-05
-1.19011e-06
7.15295e-05
-1.27585e-06
6.26389e-05
-1.32769e-06
5.4891e-05
-1.3449e-06
4.80978e-05
-1.32824e-06
4.21741e-05
-1.27974e-06
3.69886e-05
-1.2021e-06
3.23969e-05
-1.09889e-06
2.82427e-05
-9.73243e-07
2.4395e-05
-8.22818e-07
2.06494e-05
-6.38271e-07
1.71182e-05
-4.22686e-07
1.3783e-05
-1.99173e-07
1.01629e-05
7.19291e-08
4.5427e-05
1.83477e-07
5.05592e-05
2.26006e-07
5.62774e-05
2.04059e-07
6.2649e-05
1.29721e-07
6.97504e-05
8.11217e-09
7.64433e-05
-1.53098e-07
7.65292e-05
-3.49412e-07
7.66375e-05
-5.72124e-07
7.67777e-05
-8.09736e-07
7.69517e-05
-1.04807e-06
7.71734e-05
-1.26923e-06
7.74482e-05
-1.45283e-06
8.20143e-05
-1.55955e-06
7.18132e-05
-1.62635e-06
6.29376e-05
-1.65224e-06
5.51983e-05
-1.63793e-06
4.84075e-05
-1.58631e-06
4.24807e-05
-1.5008e-06
3.72873e-05
-1.38564e-06
3.26837e-05
-1.24532e-06
2.85148e-05
-1.08376e-06
2.46559e-05
-8.9888e-07
2.091e-05
-6.8434e-07
1.73799e-05
-4.46039e-07
1.40299e-05
-2.07336e-07
1.03702e-05
6.61061e-08
4.08318e-05
1.68003e-07
4.54425e-05
2.04113e-07
5.0581e-05
1.77239e-07
5.63042e-05
9.7917e-08
6.26808e-05
-3.04487e-08
6.9789e-05
-2.02252e-07
7.64924e-05
-4.10571e-07
7.65903e-05
-6.51474e-07
7.67169e-05
-9.14646e-07
7.68826e-05
-1.18681e-06
7.70904e-05
-1.45062e-06
7.73548e-05
-1.68586e-06
7.76812e-05
-1.86916e-06
8.23239e-05
-1.95773e-06
7.21446e-05
-1.99756e-06
6.32829e-05
-1.98952e-06
5.55499e-05
-1.93695e-06
4.87581e-05
-1.84452e-06
4.28244e-05
-1.71757e-06
3.76192e-05
-1.56162e-06
3.3e-05
-1.38255e-06
2.88136e-05
-1.1846e-06
2.49416e-05
-9.66471e-07
2.11921e-05
-7.24069e-07
1.76579e-05
-4.65417e-07
1.42879e-05
-2.13728e-07
1.0584e-05
6.12272e-08
3.67009e-05
1.55053e-07
4.08448e-05
1.85775e-07
4.54608e-05
1.551e-07
5.06032e-05
7.22386e-08
5.63299e-05
-6.0734e-08
6.27111e-05
-2.40452e-07
6.98272e-05
-4.62228e-07
7.65441e-05
-7.19277e-07
7.66581e-05
-1.00593e-06
7.68081e-05
-1.31002e-06
7.70058e-05
-1.61491e-06
7.72547e-05
-1.9007e-06
7.75696e-05
-2.14371e-06
7.79558e-05
-2.31953e-06
8.26857e-05
-2.38094e-06
7.2528e-05
-2.38468e-06
6.36781e-05
-2.33492e-06
5.59479e-05
-2.23721e-06
4.91508e-05
-2.09866e-06
4.32055e-05
-1.92626e-06
3.79839e-05
-1.72734e-06
3.33448e-05
-1.50852e-06
2.91375e-05
-1.27465e-06
2.52498e-05
-1.025e-06
2.14931e-05
-7.57213e-07
1.79497e-05
-4.80777e-07
1.4555e-05
-2.18333e-07
1.08023e-05
5.71074e-08
3.29901e-05
1.44145e-07
3.67118e-05
1.70334e-07
4.08602e-05
1.36748e-07
4.54792e-05
5.14681e-08
5.0624e-05
-8.44355e-08
5.63536e-05
-2.69293e-07
6.274e-05
-5.00906e-07
6.98659e-05
-7.75049e-07
7.65998e-05
-1.08274e-06
7.67349e-05
-1.41637e-06
7.69145e-05
-1.76025e-06
7.71512e-05
-2.09499e-06
7.7449e-05
-2.39678e-06
7.78227e-05
-2.64058e-06
7.82768e-05
-2.79992e-06
8.31047e-05
-2.82377e-06
7.29671e-05
-2.78242e-06
6.41256e-05
-2.68288e-06
5.63935e-05
-2.53373e-06
4.95859e-05
-2.34424e-06
4.36235e-05
-2.12362e-06
3.83802e-05
-1.88023e-06
3.37165e-05
-1.62163e-06
2.94845e-05
-1.35309e-06
2.55779e-05
-1.07408e-06
2.18099e-05
-7.83701e-07
1.82526e-05
-4.92125e-07
1.48288e-05
-2.21317e-07
1.10236e-05
5.36048e-08
2.96515e-05
1.349e-07
3.29994e-05
1.57267e-07
3.67249e-05
1.2147e-07
4.08755e-05
3.46297e-08
4.5496e-05
-1.0292e-07
5.06424e-05
-2.90776e-07
5.6375e-05
-5.28667e-07
6.27677e-05
-8.15195e-07
6.9906e-05
-1.14443e-06
7.66615e-05
-1.5048e-06
7.68234e-05
-1.88503e-06
7.70393e-05
-2.26653e-06
7.73227e-05
-2.62559e-06
7.76778e-05
-2.93672e-06
7.81188e-05
-3.17217e-06
7.86491e-05
-3.30426e-06
8.35852e-05
-3.28023e-06
7.34649e-05
-3.1844e-06
6.46271e-05
-3.02768e-06
5.68875e-05
-2.82132e-06
5.0063e-05
-2.57741e-06
4.40773e-05
-2.3065e-06
3.88064e-05
-2.01819e-06
3.4113e-05
-1.72068e-06
2.9852e-05
-1.41927e-06
2.59231e-05
-1.11359e-06
2.21398e-05
-8.03584e-07
1.85641e-05
-4.99687e-07
1.51071e-05
-2.22396e-07
1.1246e-05
5.06091e-08
2.6651e-05
1.27021e-07
2.96594e-05
1.46155e-07
3.30105e-05
1.08695e-07
3.67376e-05
2.09438e-08
4.08892e-05
-1.17284e-07
4.55104e-05
-3.06516e-07
5.06582e-05
-5.47947e-07
5.63943e-05
-8.42367e-07
6.27949e-05
-1.18719e-06
6.99488e-05
-1.57446e-06
7.67312e-05
-1.9879e-06
7.69262e-05
-2.41335e-06
7.71861e-05
-2.82752e-06
7.75246e-05
-3.2047e-06
7.79458e-05
-3.51605e-06
7.84627e-05
-3.73192e-06
7.90767e-05
-3.82596e-06
8.41309e-05
-3.74315e-06
7.40236e-05
-3.58415e-06
6.51835e-05
-3.36327e-06
5.74294e-05
-3.09539e-06
5.0581e-05
-2.79431e-06
4.45651e-05
-2.47223e-06
3.92605e-05
-2.13959e-06
3.4532e-05
-1.80476e-06
3.02375e-05
-1.47292e-06
2.62824e-05
-1.1436e-06
2.24798e-05
-8.17127e-07
1.88815e-05
-5.03227e-07
1.5388e-05
-2.7464e-07
1.15206e-05
4.80327e-08
2.39566e-05
1.20273e-07
2.66577e-05
1.36664e-07
2.96689e-05
9.79669e-08
3.30212e-05
9.78838e-09
3.67488e-05
-1.28404e-07
4.09003e-05
-3.17808e-07
4.55217e-05
-5.60707e-07
5.06709e-05
-8.59557e-07
5.64115e-05
-1.21438e-06
6.28221e-05
-1.62117e-06
6.99955e-05
-2.0678e-06
7.68111e-05
-2.53378e-06
7.70467e-05
-3.0002e-06
7.73588e-05
-3.44141e-06
7.77614e-05
-3.82776e-06
7.82575e-05
-4.12786e-06
7.88586e-05
-4.31285e-06
7.95636e-05
-4.35708e-06
8.47449e-05
-4.20524e-06
7.46447e-05
-3.97464e-06
6.57949e-05
-3.68426e-06
5.80183e-05
-3.35128e-06
5.11379e-05
-2.99168e-06
4.50846e-05
-2.61875e-06
3.97396e-05
-2.24322e-06
3.49704e-05
-1.87341e-06
3.0638e-05
-1.51414e-06
2.66529e-05
-1.16444e-06
2.28271e-05
-8.24279e-07
1.92026e-05
-6.22482e-07
1.57358e-05
-2.71067e-07
1.17917e-05
4.58068e-08
2.15342e-05
1.14464e-07
2.39624e-05
1.28523e-07
2.66659e-05
8.89183e-08
2.96779e-05
6.67647e-10
3.30303e-05
-1.36975e-07
3.67574e-05
-3.25677e-07
4.09082e-05
-5.68513e-07
4.55295e-05
-8.69172e-07
5.06805e-05
-1.22968e-06
5.64268e-05
-1.64914e-06
6.28501e-05
-2.12001e-06
7.00477e-05
-2.62647e-06
7.69038e-05
-3.14158e-06
7.7188e-05
-3.64401e-06
7.75614e-05
-4.10369e-06
7.80373e-05
-4.48771e-06
7.86173e-05
-4.76488e-06
7.93107e-05
-4.9064e-06
8.01129e-05
-4.88941e-06
8.5429e-05
-4.65835e-06
7.53284e-05
-4.34953e-06
6.64602e-05
-3.9851e-06
5.86521e-05
-3.58505e-06
5.17313e-05
-3.16693e-06
4.56327e-05
-2.74445e-06
4.02408e-05
-2.32839e-06
3.54254e-05
-1.92665e-06
3.10505e-05
-1.54324e-06
2.70317e-05
-1.17627e-06
2.31791e-05
-1.02108e-06
1.96012e-05
-6.15008e-07
1.60798e-05
-2.64883e-07
1.20566e-05
4.38758e-08
1.93539e-05
1.09443e-07
2.15392e-05
1.21511e-07
2.39694e-05
8.12551e-08
2.66735e-05
-6.81282e-09
2.96854e-05
-1.43548e-07
3.30369e-05
-3.30934e-07
3.67626e-05
-5.726e-07
4.09122e-05
-8.73129e-07
4.55334e-05
-1.23604e-06
5.06869e-05
-1.66285e-06
5.64405e-05
-2.14969e-06
6.28797e-05
-2.686e-06
7.01072e-05
-3.24994e-06
7.70122e-05
-3.81002e-06
7.73541e-05
-4.34046e-06
7.77981e-05
-4.80727e-06
7.83568e-05
-5.17711e-06
7.90296e-05
-5.41807e-06
7.98223e-05
-5.50353e-06
8.0727e-05
-5.41362e-06
8.61843e-05
-5.09515e-06
7.60741e-05
-4.70231e-06
6.71774e-05
-4.26107e-06
5.93282e-05
-3.79354e-06
5.23579e-05
-3.318e-06
4.62063e-05
-2.84837e-06
4.07608e-05
-2.39499e-06
3.58937e-05
-1.96476e-06
3.14721e-05
-1.56052e-06
2.7416e-05
-1.45899e-06
2.3617e-05
-1.00998e-06
1.99962e-05
-6.0198e-07
1.64168e-05
-2.568e-07
1.23134e-05
1.73977e-05
4.21955e-08
1.05087e-07
1.93583e-05
1.15451e-07
2.15453e-05
7.47375e-08
2.39759e-05
-1.29675e-08
2.66797e-05
-1.48557e-07
2.96904e-05
-3.34212e-07
3.30402e-05
-5.73938e-07
3.67639e-05
-8.72935e-07
4.09121e-05
-1.23582e-06
4.55332e-05
-1.66593e-06
5.069e-05
-2.16227e-06
5.64531e-05
-2.71855e-06
6.29123e-05
-3.3189e-06
7.01762e-05
-3.93729e-06
7.71394e-05
-4.53505e-06
7.75486e-05
-5.08256e-06
7.80734e-05
-5.54468e-06
7.87244e-05
-5.88651e-06
7.9498e-05
-6.0777e-06
8.03965e-05
-6.094e-06
8.14074e-05
-5.92136e-06
8.70105e-05
-5.50806e-06
7.68798e-05
-5.02738e-06
6.79437e-05
-4.50832e-06
6.00429e-05
-3.97416e-06
5.30141e-05
-3.44363e-06
4.68016e-05
-2.93026e-06
4.12961e-05
-2.44323e-06
3.63722e-05
-1.98813e-06
3.18997e-05
-1.93756e-06
2.78946e-05
-1.44474e-06
2.40518e-05
-9.8998e-07
2.03842e-05
-5.84647e-07
1.67447e-05
-2.47298e-07
1.25607e-05
1.74015e-05
1.0129e-07
2.78129e-05
3.93405e-08
1.10196e-07
1.93635e-05
6.91734e-08
2.15509e-05
-1.80491e-08
2.3981e-05
-1.52344e-07
2.66835e-05
-3.36009e-07
2.96922e-05
-5.73278e-07
3.30395e-05
-8.69765e-07
3.67608e-05
-1.23086e-06
4.09071e-05
-1.66126e-06
4.55285e-05
-2.16216e-06
5.06899e-05
-2.73067e-06
5.64652e-05
-3.3558e-06
6.29492e-05
-4.01819e-06
7.02571e-05
-4.68484e-06
7.72892e-05
-5.30995e-06
7.7776e-05
-5.86295e-06
7.83917e-05
-6.30624e-06
7.91441e-05
-6.60575e-06
8.00261e-05
-6.73276e-06
8.10353e-05
-6.66853e-06
8.21546e-05
-6.40384e-06
8.79063e-05
-5.89047e-06
7.77429e-05
-5.3201e-06
6.87555e-05
-4.72366e-06
6.07924e-05
-4.12524e-06
5.36957e-05
-3.54337e-06
4.74147e-05
-2.99021e-06
4.18431e-05
-2.47355e-06
3.68576e-05
-2.47041e-06
3.24325e-05
-1.92056e-06
2.83704e-05
-1.41779e-06
2.44796e-05
-9.6288e-07
2.07624e-05
-5.64022e-07
1.70614e-05
-2.36735e-07
1.27974e-05
1.7406e-05
1.05626e-07
2.78193e-05
9.48528e-08
2.85528e-05
3.65806e-08
6.4406e-08
1.93683e-05
-2.22578e-08
2.15551e-05
-1.55181e-07
2.39838e-05
-3.36707e-07
2.66842e-05
-5.71201e-07
2.96901e-05
-8.64524e-07
3.30343e-05
-1.22259e-06
3.67525e-05
-1.65108e-06
4.08969e-05
-2.15285e-06
4.55192e-05
-2.72764e-06
5.06868e-05
-3.36838e-06
5.64778e-05
-4.06127e-06
6.29923e-05
-4.78059e-06
7.03528e-05
-5.48623e-06
7.74655e-05
-6.12763e-06
7.80407e-05
-6.6719e-06
7.87574e-05
-7.0815e-06
7.96199e-05
-7.32315e-06
8.06165e-05
-7.37318e-06
8.17399e-05
-7.21729e-06
8.2968e-05
-6.85333e-06
8.88692e-05
-6.23681e-06
7.86596e-05
-5.57655e-06
6.96083e-05
-4.90494e-06
6.15721e-05
-4.24611e-06
5.43984e-05
-3.61715e-06
4.80416e-05
-3.02872e-06
4.23982e-05
-3.07552e-06
3.74627e-05
-2.45089e-06
3.29628e-05
-1.88667e-06
2.88393e-05
-1.38058e-06
2.48973e-05
-9.30252e-07
2.11286e-05
-5.4091e-07
1.73656e-05
-2.2542e-07
1.30228e-05
1.74101e-05
6.03063e-08
2.78264e-05
9.84788e-08
2.8559e-05
8.85859e-08
2.93127e-05
3.39183e-08
-2.57549e-08
1.93718e-05
-1.57277e-07
2.15572e-05
-3.36605e-07
2.39837e-05
-5.68152e-07
2.66811e-05
-8.57908e-07
2.96835e-05
-1.21212e-06
3.30238e-05
-1.63715e-06
3.67386e-05
-2.13708e-06
4.08811e-05
-2.71366e-06
4.55052e-05
-3.36292e-06
5.06814e-05
-4.07558e-06
5.64921e-05
-4.83208e-06
6.30437e-05
-5.60019e-06
7.04668e-05
-6.3348e-06
7.76727e-05
-6.97845e-06
7.83473e-05
-7.49884e-06
7.91747e-05
-7.85829e-06
8.0155e-05
-8.02796e-06
8.12712e-05
-7.98813e-06
8.25108e-05
-7.73153e-06
8.38462e-05
-7.26321e-06
8.98956e-05
-6.54232e-06
7.96254e-05
-5.79401e-06
7.04974e-05
-5.05119e-06
6.23772e-05
-4.33652e-06
5.51178e-05
-3.6655e-06
4.86784e-05
-3.76798e-06
4.30907e-05
-3.05357e-06
3.80654e-05
-2.40994e-06
3.34861e-05
-1.83906e-06
2.92977e-05
-1.33529e-06
2.53024e-05
-8.93421e-07
2.14811e-05
-5.16057e-07
1.76562e-05
-2.13668e-07
1.32365e-05
1.74131e-05
-2.86699e-08
2.78318e-05
5.49568e-08
2.85659e-05
9.15733e-08
2.93187e-05
8.24974e-08
3.00906e-05
3.13554e-08
-1.58799e-07
1.93733e-05
-3.3593e-07
2.15565e-05
-5.64469e-07
2.398e-05
-8.50441e-07
2.66737e-05
-1.20029e-06
2.96717e-05
-1.62081e-06
3.30075e-05
-2.11697e-06
3.67185e-05
-2.69203e-06
4.08595e-05
-3.34444e-06
4.54868e-05
-4.06852e-06
5.06743e-05
-4.8498e-06
5.65098e-05
-5.66281e-06
6.31064e-05
-6.4708e-06
7.06028e-05
-7.2212e-06
7.79154e-05
-7.85192e-06
7.87003e-05
-8.33131e-06
7.96477e-05
-8.62535e-06
8.07524e-05
-8.7085e-06
8.19916e-05
-8.56787e-06
8.33471e-05
-8.20357e-06
8.47866e-05
-7.62767e-06
9.09809e-05
-6.80357e-06
8.06349e-05
-5.9711e-06
7.14173e-05
-5.16191e-06
6.32026e-05
-4.39696e-06
5.58493e-05
-4.56296e-06
4.94734e-05
-3.74379e-06
4.37809e-05
-3.00513e-06
3.86606e-05
-2.35141e-06
3.39985e-05
-1.7805e-06
2.97429e-05
-1.2838e-06
2.56927e-05
-8.53598e-07
2.18187e-05
-4.9014e-07
1.79327e-05
-2.01732e-07
1.34382e-05
1.74141e-05
-1.59878e-07
2.78335e-05
-3.0366e-08
2.8571e-05
4.98846e-08
2.93254e-05
8.49026e-08
3.00965e-05
7.65883e-08
3.08905e-05
2.8892e-08
-3.3486e-07
1.93723e-05
-5.60406e-07
2.15524e-05
-8.42518e-07
2.39721e-05
-1.18771e-06
2.66611e-05
-1.60306e-06
2.96539e-05
-2.09414e-06
3.29846e-05
-2.66532e-06
3.66918e-05
-3.31688e-06
4.0832e-05
-4.04599e-06
4.54642e-05
-4.84233e-06
5.06668e-05
-5.68608e-06
5.65331e-05
-6.54779e-06
6.31834e-05
-7.3835e-06
7.07651e-05
-8.13519e-06
7.81987e-05
-8.7355e-06
7.91045e-05
-9.1577e-06
8.01801e-05
-9.37027e-06
8.14142e-05
-9.35411e-06
8.27778e-05
-9.10375e-06
8.42473e-05
-8.62661e-06
8.57855e-05
-7.94238e-06
9.21197e-05
-7.01863e-06
8.16825e-05
-6.10703e-06
7.23624e-05
-5.23752e-06
6.40432e-05
-5.47731e-06
5.67636e-05
-4.53703e-06
5.02666e-05
-3.68737e-06
4.44631e-05
-2.93474e-06
3.92439e-05
-2.27873e-06
3.44967e-05
-1.71351e-06
3.01726e-05
-1.22785e-06
2.6067e-05
-8.1189e-07
2.21404e-05
-4.6371e-07
1.81947e-05
-1.8982e-07
1.3628e-05
1.74128e-05
-3.33526e-07
2.78297e-05
-1.5611e-07
2.85723e-05
-3.16872e-08
2.93302e-05
4.51083e-08
3.01029e-05
7.84825e-08
3.08962e-05
7.08667e-08
3.17104e-05
2.65263e-08
-5.56155e-07
1.9368e-05
-8.34428e-07
2.15443e-05
-1.17487e-06
2.39593e-05
-1.58468e-06
2.66427e-05
-2.06983e-06
2.96296e-05
-2.63548e-06
3.29548e-05
-3.2833e-06
3.66582e-05
-4.01266e-06
4.07986e-05
-4.81655e-06
4.54384e-05
-5.67984e-06
5.06606e-05
-6.57927e-06
5.65646e-05
-7.47859e-06
6.32784e-05
-8.32846e-06
7.09583e-05
-9.06437e-06
7.85276e-05
-9.61743e-06
7.95643e-05
-9.96505e-06
8.07748e-05
-1.00816e-05
8.21417e-05
-9.95524e-06
8.36293e-05
-9.58794e-06
8.52086e-05
-8.9954e-06
8.68386e-05
-8.20466e-06
9.33058e-05
-7.1862e-06
8.27616e-05
-6.202e-06
7.33269e-05
-6.52989e-06
6.50957e-05
-5.45071e-06
5.76773e-05
-4.4723e-06
5.10515e-05
-3.604e-06
4.51324e-05
-2.84654e-06
3.98118e-05
-2.19506e-06
3.49782e-05
-1.64039e-06
3.05852e-05
-1.16903e-06
2.64241e-05
-7.69198e-07
2.24459e-05
-4.37226e-07
1.84421e-05
-1.78104e-07
1.38061e-05
1.74085e-05
-5.51853e-07
2.78186e-05
-3.22447e-07
2.85681e-05
-1.51847e-07
2.93311e-05
-3.26357e-08
3.01074e-05
4.06281e-08
3.09024e-05
7.23116e-08
3.17159e-05
6.5339e-08
3.25543e-05
2.42628e-08
-8.26386e-07
1.936e-05
-1.16209e-06
2.15316e-05
-1.56621e-06
2.39408e-05
-2.04494e-06
2.66178e-05
-2.60399e-06
2.95981e-05
-3.24604e-06
3.29175e-05
-3.97216e-06
3.66177e-05
-4.77794e-06
4.076e-05
-5.65205e-06
4.54107e-05
-6.57643e-06
5.06578e-05
-7.5215e-06
5.66075e-05
-8.44587e-06
6.33959e-05
-9.29359e-06
7.11876e-05
-9.99702e-06
7.89072e-05
-1.04844e-05
8.00836e-05
-1.07413e-05
8.14345e-05
-1.0749e-05
8.29354e-05
-1.05031e-05
8.45445e-05
-1.00144e-05
8.62276e-05
-9.30662e-06
8.79405e-05
-8.41268e-06
9.45322e-05
-7.30621e-06
8.38659e-05
-7.74029e-06
7.45373e-05
-6.50443e-06
6.61495e-05
-5.37761e-06
5.85826e-05
-4.3748e-06
5.18223e-05
-3.49857e-06
4.57844e-05
-2.74442e-06
4.03611e-05
-2.10335e-06
3.54412e-05
-1.56325e-06
3.09794e-05
-1.10865e-06
2.67636e-05
-7.26284e-07
2.2735e-05
-4.1108e-07
1.86751e-05
-1.66695e-07
1.39728e-05
1.74007e-05
-8.18538e-07
2.77982e-05
-5.31459e-07
2.85563e-05
-3.10691e-07
2.93263e-05
-1.47049e-07
3.01079e-05
-3.31923e-08
3.09065e-05
3.64457e-08
3.17218e-05
6.6394e-08
3.25596e-05
5.99969e-08
3.34202e-05
2.20962e-08
-1.14961e-06
1.93475e-05
-1.54804e-06
2.15134e-05
-2.02015e-06
2.3916e-05
-2.57196e-06
2.65858e-05
-3.2069e-06
2.9559e-05
-3.92728e-06
3.28727e-05
-4.73075e-06
3.65705e-05
-5.60903e-06
4.0717e-05
-6.54832e-06
4.53825e-05
-7.52475e-06
5.0661e-05
-8.50395e-06
5.66656e-05
-9.43799e-06
6.35402e-05
-1.02674e-05
7.1458e-05
-1.09196e-05
7.93424e-05
-1.13237e-05
8.0666e-05
-1.14752e-05
8.21607e-05
-1.13626e-05
8.37949e-05
-1.09906e-05
8.55207e-05
-1.03789e-05
8.72999e-05
-9.55782e-06
8.90857e-05
-8.56596e-06
9.5792e-05
-9.13029e-06
8.52559e-05
-7.71897e-06
7.57519e-05
-6.42339e-06
6.71952e-05
-5.26491e-06
5.94727e-05
-4.2503e-06
5.25741e-05
-3.37584e-06
4.64159e-05
-2.63202e-06
4.08898e-05
-2.00624e-06
3.58842e-05
-1.48382e-06
3.13546e-05
-1.04779e-06
2.70851e-05
-6.83801e-07
2.30077e-05
-3.85524e-07
1.88939e-05
-1.55697e-07
1.41285e-05
1.73887e-05
-1.13762e-06
2.77662e-05
-7.86487e-07
2.85351e-05
-5.10215e-07
2.93139e-05
-2.98292e-07
3.01027e-05
-1.41778e-07
3.09067e-05
-3.33747e-08
3.17257e-05
3.25624e-08
3.25653e-05
6.07286e-08
3.34253e-05
5.48511e-08
3.43061e-05
2.00255e-08
-1.53048e-06
1.93299e-05
-1.99593e-06
2.14892e-05
-2.54019e-06
2.38842e-05
-3.16717e-06
2.65461e-05
-3.88014e-06
2.95118e-05
-4.67829e-06
3.28202e-05
-5.55575e-06
3.65172e-05
-6.50222e-06
4.06709e-05
-7.49858e-06
4.53564e-05
-8.51657e-06
5.06736e-05
-9.51551e-06
5.67431e-05
-1.04438e-05
6.37167e-05
-1.12365e-05
7.17748e-05
-1.18194e-05
7.98381e-05
-1.21237e-05
8.13145e-05
-1.21562e-05
8.29543e-05
-1.19145e-05
8.47188e-05
-1.14128e-05
8.65547e-05
-1.06782e-05
8.84203e-05
-9.74797e-06
9.02677e-05
-1.07233e-05
9.73849e-05
-9.11853e-06
8.66554e-05
-7.63154e-06
7.696e-05
-6.29472e-06
6.8225e-05
-5.11936e-06
6.03418e-05
-4.10446e-06
5.33027e-05
-3.24017e-06
4.7024e-05
-2.5126e-06
4.13961e-05
-1.90595e-06
3.63063e-05
-1.40358e-06
3.17104e-05
-9.87406e-07
2.73887e-05
-6.42172e-07
2.32643e-05
-3.60804e-07
1.9099e-05
-1.45178e-07
1.42737e-05
1.73719e-05
-1.5137e-06
2.77201e-05
-1.09152e-06
2.85019e-05
-7.53373e-07
2.92918e-05
-4.88069e-07
3.00896e-05
-2.85206e-07
3.09009e-05
-1.36003e-07
3.17255e-05
-3.31762e-08
3.25688e-05
2.89813e-08
3.34307e-05
5.53208e-08
3.4311e-05
4.98968e-08
3.522e-05
1.80514e-08
-1.97261e-06
1.93066e-05
-2.50924e-06
2.14582e-05
-3.12784e-06
2.38449e-05
-3.83232e-06
2.64982e-05
-4.62305e-06
2.94566e-05
-5.49606e-06
3.27605e-05
-6.44385e-06
3.64588e-05
-7.45124e-06
4.06235e-05
-8.49515e-06
4.5335e-05
-9.54132e-06
5.06994e-05
-1.05455e-05
5.68448e-05
-1.14501e-05
6.39304e-05
-1.21878e-05
7.21432e-05
-1.26839e-05
8.03982e-05
-1.28729e-05
8.20313e-05
-1.27754e-05
8.38152e-05
-1.23988e-05
8.57048e-05
-1.17656e-05
8.7642e-05
-1.09108e-05
8.95831e-05
-1.22257e-05
9.17701e-05
-1.073e-05
9.89965e-05
-9.02849e-06
8.80524e-05
-7.48722e-06
7.81525e-05
-6.12633e-06
6.9232e-05
-4.94769e-06
6.1185e-05
-3.94251e-06
5.4005e-05
-3.09554e-06
4.76069e-05
-2.38892e-06
4.18791e-05
-1.80439e-06
3.67071e-05
-1.32379e-06
3.20468e-05
-9.2811e-07
2.76746e-05
-6.01804e-07
2.35053e-05
-3.37082e-07
1.92909e-05
-1.35171e-07
1.44089e-05
1.73497e-05
-1.95041e-06
2.76569e-05
-1.45054e-06
2.84545e-05
-1.0441e-06
2.92577e-05
-7.19237e-07
3.00666e-05
-4.65091e-07
3.08872e-05
-2.71496e-07
3.17192e-05
-1.29753e-07
3.25683e-05
-3.26134e-08
3.3434e-05
2.56903e-08
3.43162e-05
5.01642e-08
3.52247e-05
4.51301e-08
3.61559e-05
1.61695e-08
-2.47951e-06
1.92769e-05
-3.08957e-06
2.142e-05
-3.78496e-06
2.37975e-05
-4.5669e-06
2.64421e-05
-5.4329e-06
2.93934e-05
-6.37767e-06
3.26943e-05
-7.38927e-06
3.63969e-05
-8.44895e-06
4.05773e-05
-9.52803e-06
4.53217e-05
-1.05888e-05
5.07428e-05
-1.1581e-05
5.69757e-05
-1.24441e-05
6.41867e-05
-1.31088e-05
7.25681e-05
-1.35012e-05
8.10265e-05
-1.35616e-05
8.28176e-05
-1.33259e-05
8.47423e-05
-1.28105e-05
8.67496e-05
-1.20466e-05
8.87779e-05
-1.37128e-05
9.10702e-05
-1.22587e-05
9.32988e-05
-1.06441e-05
0.000100612
-8.8705e-06
8.94356e-05
-7.29515e-06
7.93213e-05
-5.92622e-06
7.02106e-05
-4.75613e-06
6.19986e-05
-3.76926e-06
5.46788e-05
-2.94533e-06
4.81633e-05
-2.26336e-06
4.23381e-05
-1.70319e-06
3.70865e-05
-1.2453e-06
3.23639e-05
-8.70508e-07
2.79433e-05
-5.62977e-07
2.37312e-05
-3.14441e-07
1.94702e-05
-1.25702e-07
1.45346e-05
1.73214e-05
-2.45127e-06
2.75735e-05
-1.86701e-06
2.83896e-05
-1.38563e-06
2.92087e-05
-9.9513e-07
3.00313e-05
-6.83916e-07
3.08634e-05
-4.41283e-07
3.17049e-05
-2.57193e-07
3.25616e-05
-1.23044e-07
3.34331e-05
-3.16931e-08
3.43192e-05
2.26903e-08
3.52296e-05
4.52571e-08
3.61605e-05
4.05496e-08
3.65898e-05
1.44017e-08
-3.05285e-06
1.92402e-05
-3.73888e-06
2.13739e-05
-4.51122e-06
2.37418e-05
-5.36848e-06
2.63777e-05
-6.30712e-06
2.93229e-05
-7.31779e-06
3.26228e-05
-8.38538e-06
3.63333e-05
-9.48592e-06
4.05352e-05
-1.05876e-05
4.53204e-05
-1.16467e-05
5.08084e-05
-1.26095e-05
5.71411e-05
-1.3413e-05
6.44908e-05
-1.39872e-05
7.30541e-05
-1.42608e-05
8.17256e-05
-1.41821e-05
8.36738e-05
-1.38019e-05
8.57337e-05
-1.31464e-05
8.78494e-05
-1.51759e-05
9.0241e-05
-1.37819e-05
9.25933e-05
-1.21853e-05
9.48399e-05
-1.0477e-05
0.000102219
-8.6549e-06
9.07954e-05
-7.06451e-06
8.04596e-05
-5.70179e-06
7.11562e-05
-4.55048e-06
6.27798e-05
-3.58882e-06
5.53223e-05
-2.79246e-06
4.86924e-05
-2.13799e-06
4.27729e-05
-1.60344e-06
3.74447e-05
-1.16892e-06
3.26623e-05
-8.15015e-07
2.81954e-05
-5.25838e-07
2.39426e-05
-2.92954e-07
1.96374e-05
-1.16789e-07
1.46514e-05
1.72866e-05
-3.01799e-06
2.74665e-05
-2.34423e-06
2.83045e-05
-1.7819e-06
2.91423e-05
-1.3192e-06
2.99811e-05
-9.44945e-07
3.08272e-05
-6.4768e-07
3.16804e-05
-4.16699e-07
3.25467e-05
-2.42282e-07
3.34259e-05
-1.15895e-07
3.43179e-05
-3.04329e-08
3.52324e-05
1.99684e-08
3.61651e-05
4.05905e-08
3.65941e-05
3.62114e-08
3.55536e-05
1.28013e-08
-3.69466e-06
1.91959e-05
-4.45699e-06
2.13197e-05
-5.30442e-06
2.36778e-05
-6.23477e-06
2.63053e-05
-7.24077e-06
2.92459e-05
-8.31026e-06
3.25477e-05
-9.4233e-06
3.62707e-05
-1.05531e-05
4.05007e-05
-1.16619e-05
4.53356e-05
-1.27026e-05
5.09015e-05
-1.36183e-05
5.73464e-05
-1.43443e-05
6.48479e-05
-1.48117e-05
7.3605e-05
-1.49541e-05
8.24977e-05
-1.47276e-05
8.45995e-05
-1.41995e-05
8.67868e-05
-1.66047e-05
8.92782e-05
-1.52924e-05
9.17516e-05
-1.37311e-05
9.41391e-05
-1.2018e-05
9.63809e-05
-1.02406e-05
0.000103804
-8.39234e-06
9.21232e-05
-6.80393e-06
8.15617e-05
-5.45987e-06
7.20656e-05
-4.33573e-06
6.35267e-05
-3.40478e-06
5.59346e-05
-2.6395e-06
4.9194e-05
-2.01417e-06
4.31836e-05
-1.50621e-06
3.7782e-05
-1.09523e-06
3.29426e-05
-7.61853e-07
2.84314e-05
-4.90512e-07
2.41402e-05
-2.72668e-07
1.97933e-05
-1.08434e-07
1.47598e-05
1.72446e-05
-3.65267e-06
2.7333e-05
-2.88451e-06
2.81956e-05
-2.23529e-06
2.9055e-05
-1.69461e-06
2.99131e-05
-1.2512e-06
3.07757e-05
-8.935e-07
3.16431e-05
-6.1047e-07
3.25214e-05
-3.91456e-07
3.34105e-05
-2.26875e-07
3.43104e-05
-1.0835e-07
3.52308e-05
-2.88532e-08
3.61676e-05
1.75136e-08
3.65985e-05
3.62193e-08
3.55575e-05
3.22659e-08
3.45455e-05
1.13468e-08
-4.4049e-06
1.91439e-05
-5.2419e-06
2.12571e-05
-6.16254e-06
2.36056e-05
-7.16121e-06
2.62258e-05
-8.22814e-06
2.91637e-05