/*--------------------------------*- C++ -*----------------------------------*\
  =========                 |
  \\      /  F ield         | OpenFOAM: The Open Source CFD Toolbox
   \\    /   O peration     | Website:  https://openfoam.org
    \\  /    A nd           | Version:  8
     \\/     M anipulation  |
\*---------------------------------------------------------------------------*/
FoamFile
{
    version     2.0;
    format      ascii;
    class       volScalarField;
    location    "0.05";
    object      k;
}
// * * * * * * * * * * * * * * * * * * * * * * * * * * * * * * * * * * * * * //

dimensions      [0 2 -2 0 0 0 0];

internalField   nonuniform List<scalar> 
3929
(
0.351795
1.12901
0.415453
1.56736
1.26228
0.484859
1.892
1.72989
1.40046
0.560191
2.17497
2.0716
1.89719
1.54352
0.636409
2.44089
2.36564
2.2559
2.06849
1.68193
0.703173
2.70059
2.63849
2.56062
2.44312
2.23154
1.799
0.76126
2.95945
2.90161
2.83944
2.75681
2.61856
2.36672
1.89497
0.805604
3.21988
3.16039
3.10423
3.03898
2.93693
2.75991
2.47125
1.96582
0.886838
3.48234
3.41698
3.36028
3.30165
3.2169
3.07556
2.86034
2.54308
2.05522
0.983579
3.74562
3.6715
3.60945
3.54999
3.47065
3.34485
3.1618
2.90994
2.56178
2.0457
0.673037
4.00715
3.92253
3.85167
3.78588
3.70386
3.58179
3.41208
3.1896
2.89731
2.49681
1.26807
0.844698
4.26326
4.16756
4.0857
4.0097
3.91975
3.7953
3.63282
3.43644
3.21575
3.03106
2.60981
0.858158
0.865767
4.50971
4.40354
4.30978
4.22142
4.1209
3.99253
3.83989
3.68287
3.57709
3.78687
4.77874
0.898356
0.889575
0.852212
4.74243
4.62747
4.52231
4.42123
4.31003
4.1798
4.04353
3.94105
4.00417
4.75495
7.13892
0.993818
0.903772
0.868482
0.852187
4.9584
4.83718
4.72238
4.60999
4.49035
4.36275
4.25042
4.21567
4.4801
5.82971
9.57492
1.1803
0.916369
0.883019
0.868751
0.853551
5.15667
5.03205
4.91035
4.78956
4.66549
4.5462
4.46339
4.50627
4.97635
6.83931
11.4885
1.46239
0.933196
0.89555
0.884582
0.874188
0.857903
5.21359
5.37677
5.08826
4.9631
4.83972
4.7343
4.6857
4.81094
5.47446
7.70318
12.6568
1.89311
0.959553
0.906752
0.899079
0.895508
0.888432
0.868469
5.26008
5.42118
5.59969
5.13508
5.0183
4.9317
4.92246
5.13086
5.96229
8.42995
13.286
2.39632
0.995575
0.917744
0.912333
0.916581
0.920734
0.917042
0.88638
5.31136
5.46661
5.64521
5.80776
5.20682
5.14428
5.17965
5.47015
6.4415
9.03204
13.4493
3.19115
1.04487
0.929012
0.924866
0.936892
0.953403
0.964437
0.962929
0.969412
5.41204
5.53674
5.70746
5.86833
6.01936
5.37953
5.46443
5.83509
6.9131
9.51532
13.3774
4.03662
1.12241
0.943433
0.93728
0.956394
0.985506
1.01059
1.03854
1.04371
1.05976
5.6445
5.68663
5.81847
5.96169
6.105
6.24534
5.78315
6.23214
7.38738
9.90559
13.1812
5.62347
1.23186
0.958862
0.950589
0.975375
1.0166
1.05646
1.11202
1.09895
2.11818
6.13883
6.00313
6.04109
6.12622
6.23856
6.362
6.48941
6.66035
7.87013
10.2498
12.9971
7.29116
1.40771
0.980938
0.965063
0.994385
1.04669
1.10259
1.18316
1.16835
2.13303
7.11152
6.60444
6.45757
6.42707
6.46246
6.54019
6.63979
6.75022
8.34307
10.5396
12.9105
9.02176
1.73364
1.0058
0.981882
1.01411
1.07612
1.14897
1.25366
1.26031
2.06288
8.78113
7.65273
7.15162
6.92965
6.83869
6.82412
6.86365
6.93485
7.02371
10.7843
12.8546
10.5182
2.16879
1.05214
0.999572
1.03502
1.10553
1.19533
1.32465
1.39185
1.99365
5.1804
10.9651
9.2307
8.21338
7.67953
7.41052
7.26896
7.2052
7.20334
7.24185
7.30496
12.8006
11.5287
2.88118
1.118
1.02147
1.0574
1.13566
1.24186
1.39724
1.56141
2.03398
4.69195
12.6911
11.091
9.63368
8.71125
8.18856
7.89421
7.71033
7.59846
7.55281
7.5552
7.58925
12.1703
3.98211
1.22018
1.04524
1.08213
1.16717
1.28882
1.47648
1.7591
2.14114
10.9976
4.38924
12.4136
12.5003
11.1602
9.96588
9.1684
8.68159
8.37549
8.15553
7.99681
7.90583
7.86966
7.87226
5.438
1.40794
1.07567
1.10844
1.20065
1.33644
1.55955
1.98863
2.33837
15.9772
9.83596
4.20293
7.03696
12.4476
12.2873
11.2252
10.2705
9.60238
9.15983
8.84958
8.59793
8.39374
8.25674
8.18053
8.15016
1.704
1.11443
1.13797
1.23627
1.38486
1.6413
2.17257
2.56739
17.1919
15.5227
8.65265
4.10516
2.2221
8.86682
12.4238
12.1439
11.3166
10.573
10.0206
9.62293
9.31194
9.03155
8.78336
8.60037
8.48348
8.41946
1.16592
1.16862
1.27389
1.43426
1.71811
2.31763
2.80148
17.2995
17.258
14.69
7.60164
4.10699
1.25759
3.04355
10.27
12.3658
12.0685
11.4516
10.8774
10.4257
10.0689
9.75791
9.45074
9.16015
8.93189
8.77455
8.677
1.20191
1.31217
1.48453
1.78859
2.42808
3.00488
17.1858
17.3351
17.1955
13.6234
6.84067
4.15215
1.24679
1.41414
4.64688
10.9965
12.2953
12.0703
11.6167
11.1842
10.8161
10.4942
10.1826
9.84998
9.51884
9.24682
9.05018
8.91997
1.34961
1.53569
1.85329
2.51177
3.1916
16.8089
17.1516
17.42
16.9598
12.4223
6.2984
4.24968
1.38595
1.29774
1.80103
6.48563
11.3497
12.265
12.1158
11.8083
11.4876
11.1878
10.8944
10.5807
10.2238
9.85455
9.54126
9.30729
9.14593
1.58623
1.91448
2.57107
3.34431
16.0195
16.7772
17.1623
17.5
16.4116
11.1945
5.95579
4.31334
1.63616
1.42858
1.37777
2.44708
8.01757
11.5517
12.2727
12.2095
12.0118
11.7809
11.5357
11.2644
10.9467
10.5672
10.1633
9.81191
9.54322
9.35237
1.9717
2.61569
3.45173
14.9256
16.058
16.7328
17.2089
17.4756
15.5646
10.0653
5.70698
4.34826
2.02548
1.69296
1.48014
1.50126
3.48995
9.09226
11.6924
12.3051
12.3243
12.2173
12.0569
11.8539
11.5985
11.276
10.8765
10.4417
10.056
9.7553
9.5364
2.64801
3.51429
13.5956
15.0314
16.0709
16.7063
17.2793
17.3326
14.5292
9.02884
5.5023
4.34275
2.67089
2.08413
1.74841
1.54063
1.72462
4.72436
9.79224
11.7895
12.3614
12.4511
12.4144
12.3075
12.136
11.8923
11.5655
11.1487
10.6871
10.2707
9.94049
9.6944
3.53147
12.0973
13.7493
15.1085
16.0615
16.7143
17.2965
16.9612
13.3763
8.17401
5.32196
4.31845
3.52491
2.69219
2.14147
1.78857
1.60918
2.14862
5.98303
10.2178
11.8612
12.4306
12.5755
12.5914
12.5251
12.3774
12.1434
11.8126
11.3813
10.8966
10.453
10.0951
9.82179
10.4991
12.2783
13.8816
15.1586
16.0407
16.75
17.2633
16.3172
12.1887
7.5078
5.17506
4.25553
3.50022
2.70722
2.1855
1.8185
1.70666
2.70286
7.06469
10.4908
11.9226
12.4985
12.6858
12.7393
12.7044
12.5768
12.3496
12.0152
11.5713
11.0669
10.5989
10.2144
9.91079
8.87258
10.6888
12.4469
13.9901
15.1859
16.0256
16.801
17.1384
15.4761
11.0569
6.96466
5.01185
4.15988
3.45139
2.71642
2.21562
1.86216
1.83242
3.51314
7.84969
10.6805
11.9719
12.5549
12.7726
12.8539
12.8426
12.731
12.5083
12.1697
11.7152
11.1941
10.7033
10.2897
9.95427
7.28927
9.05586
10.8742
12.5996
14.0739
15.1867
16.0263
16.8108
16.8531
14.4776
10.036
6.43542
4.8327
4.05832
3.39963
2.71799
2.23923
1.91213
2.04834
4.38141
8.41829
10.8117
12.0056
12.5902
12.8306
12.9338
12.9367
12.836
12.6155
12.2724
11.8088
11.2725
10.7586
10.3186
9.95628
5.82654
7.45488
9.24052
11.0519
12.7335
14.1328
15.1808
16.0345
16.7593
16.3624
13.408
8.94867
5.97363
4.66695
3.95864
3.34799
2.7176
2.25117
1.99036
2.37403
5.23144
8.8005
10.8974
12.0121
12.5996
12.8577
12.9732
12.9829
12.8851
12.6671
12.3193
11.8484
11.2986
10.7656
10.3015
9.90763
4.59481
5.96789
7.62539
9.42424
11.2187
12.8462
14.1709
15.1681
16.0632
16.6138
15.6908
12.1095
7.98585
5.624
4.51432
3.86582
3.30028
2.71545
2.26324
2.07623
2.80393
5.9436
9.06426
10.9381
11.9953
12.5834
12.8468
12.9661
12.9774
12.8775
12.6596
12.309
11.8311
11.2711
10.7207
10.2307
9.80533
3.61804
4.71103
6.11565
7.79936
9.60437
11.3716
12.9368
14.1845
15.1611
16.0605
16.3634
14.6905
10.776
7.27389
5.34302
4.37612
3.78304
3.25905
2.71
2.28691
2.19512
3.31081
6.48679
9.2341
10.9351
11.9496
12.5301
12.7922
12.9091
12.9184
12.8123
12.5904
12.2387
11.7563
11.1876
10.6202
10.1062
9.65268
2.85041
3.71197
4.83376
6.26911
7.97503
9.77805
11.5076
13.0039
14.1834
15.1547
16.017
15.8878
13.4486
9.68328
6.72261
5.10976
4.25346
3.70982
3.22212
2.70761
2.32844
2.35894
3.84375
6.88699
9.33204
10.8987
11.8629
12.4278
12.6825
12.7921
12.7955
12.6851
12.4563
12.107
11.6231
11.048
10.4664
9.93199
9.45549
2.24972
2.92566
3.81182
4.96275
6.4273
8.15033
9.94232
11.6245
13.0516
14.1765
15.1516
15.8397
15.0992
12.2707
8.79699
6.28692
4.91345
4.14591
3.64666
3.19093
2.70468
2.39193
2.58036
4.34004
7.16437
9.34848
10.8133
11.7294
12.2745
12.5183
12.6177
12.6143
12.4996
12.2678
11.9181
11.4364
10.8571
10.2648
9.71495
9.2223
1.78094
2.30958
3.00602
3.91757
5.09756
6.58897
8.32289
10.0942
11.7213
13.076
14.166
15.1337
15.4695
14.1925
11.2131
8.07476
5.93856
4.74792
4.05312
3.59277
3.16395
2.70708
2.46843
2.84023
4.76374
7.31915
9.31939
10.6769
11.5461
12.0703
12.301
12.3898
12.3799
12.2656
12.0325
11.6813
11.2031
10.622
10.0231
9.46431
1.41624
1.82791
2.37376
3.09159
4.0291
5.23754
6.75255
8.49011
10.2312
11.7964
13.0839
14.1478
15.0356
14.9696
13.2598
10.2897
7.49509
5.65823
4.6084
3.97429
3.54759
3.14169
2.71876
2.55655
3.13368
5.07013
7.40566
9.23025
10.4905
11.3164
11.8176
12.036
12.1151
12.1047
11.988
11.7571
11.4064
10.932
10.3517
9.75147
1.12492
1.45211
1.87853
2.44241
3.18238
4.14613
5.38182
6.9162
8.64929
10.3509
11.8537
13.077
14.1015
14.8009
14.3658
12.3566
9.50168
7.0303
5.43003
4.49166
3.90845
3.511
3.12527
2.74425
2.67184
3.41014
5.30419
7.40477
9.08354
10.2621
11.044
11.5239
11.7321
11.8092
11.794
11.68
11.453
11.104
10.6334
10.057
0.905335
1.15089
1.49104
1.93296
2.51561
3.27832
4.26823
5.52927
7.0778
8.79769
10.4526
11.8917
13.0499
14.0307
14.4532
13.6905
11.517
8.84002
6.65342
5.24376
4.39521
3.85486
3.48363
3.11645
2.78821
2.80769
3.66395
5.44695
7.36799
8.89817
9.99641
10.7389
11.2004
11.4075
11.4766
11.4646
11.3548
11.1313
10.7848
10.3183
9.74921
0.744809
0.923497
1.17928
1.53317
1.9913
2.59339
3.37924
4.39476
5.67847
7.23504
8.93293
10.5475
11.8931
13.0025
13.9002
14.0486
12.9909
10.7601
8.28779
6.34774
5.09239
4.31718
3.8133
3.46715
3.1182
2.84084
2.96693
3.86677
5.53872
7.27953
8.67818
9.70667
10.4137
10.8681
11.0648
11.1383
11.1303
11.0237
10.803
10.4595
9.99762
9.43844
0.622645
0.757603
0.943486
1.21029
1.57866
2.05363
2.67569
3.48481
4.5249
5.82778
7.38544
9.07414
10.6148
11.8789
12.9333
13.694
13.5917
12.3023
10.0923
7.82957
6.1003
4.97089
4.25619
3.7847
3.46283
3.12805
2.90902
3.12286
4.03418
5.58399
7.1517
8.4417
9.40671
10.0919
10.5249
10.7299
10.8071
10.8019
10.6974
10.4778
10.1376
9.68065
9.13397
0.535183
0.631703
0.771724
0.965473
1.24408
1.62762
2.11998
2.76237
3.59457
4.65758
5.97529
7.55253
9.19711
10.6442
11.8423
12.8323
13.4199
13.0955
11.648
9.51192
7.45121
5.90119
4.87543
4.21212
3.76963
3.47053
3.15142
2.99164
3.27131
4.17435
5.58637
7.01266
8.20267
9.11968
9.77023
10.205
10.4131
10.4928
10.4892
10.3838
10.1642
9.82658
9.37514
8.84313
0.506284
0.541482
0.641703
0.787318
0.989636
1.28081
1.68012
2.19031
2.85319
3.70789
4.79149
6.14564
7.7131
9.28216
10.6419
11.7819
12.7023
13.0896
12.5769
11.0421
9.01313
7.14043
5.7427
4.80373
4.18424
3.77123
3.49156
3.18944
3.08597
3.41244
4.28522
5.57794
6.87332
7.9839
8.84786
9.48297
9.91413
10.1231
10.2042
10.198
10.0898
9.86761
9.53196
9.08672
8.57122
0.566271
0.50998
0.548445
0.652758
0.804542
1.01615
1.3206
1.73618
2.26447
2.94777
3.82391
4.95009
6.31951
7.84056
9.3346
10.6245
11.7023
12.5355
12.7385
12.0576
10.4921
8.5882
6.88682
5.61906
4.75369
4.1759
3.78396
3.52958
3.24206
3.19118
3.54559
4.38312
5.56241
6.75589
7.7891
8.61576
9.23659
9.65931
9.867
9.94414
9.933
9.81806
9.5915
9.25688
8.81909
8.32184
0.772024
0.567723
0.51408
0.556152
0.664992
0.823564
1.04518
1.36354
1.79576
2.34225
3.04557
3.96366
5.11839
6.46758
7.93759
9.3591
10.5838
11.6024
12.3259
12.367
11.5538
10.0004
8.22893
6.68164
5.52585
4.72489
4.18243
3.81376
3.58601
3.31154
3.30622
3.67792
4.4755
5.56507
6.66369
7.63747
8.43446
9.03457
9.44642
9.64506
9.71583
9.69433
9.56999
9.33771
9.00267
8.57441
1.09289
0.770657
0.569392
0.518638
0.564694
0.678543
0.844556
1.07687
1.40966
1.85873
2.4233
3.16472
4.11588
5.26811
6.59064
8.00718
9.35623
10.5231
11.4771
12.0795
11.9822
11.0766
9.56602
7.92711
6.51798
5.45926
4.71739
4.2033
3.86351
3.6617
3.39894
3.43294
3.81464
4.57884
5.58562
6.61301
7.54218
8.3026
8.88198
9.27243
9.45878
9.51623
9.48118
9.34484
9.10653
8.77094
1.47073
1.0912
0.769246
0.571332
0.523713
0.574175
0.693564
0.867693
1.11135
1.45895
1.92486
2.52289
3.29682
4.25527
5.39903
6.69014
8.0504
9.34001
10.4446
11.3298
11.807
11.5931
10.6324
9.18554
7.67532
6.38933
5.41808
4.72478
4.24492
3.93222
3.75702
3.50549
3.57343
3.96509
4.6981
5.63973
6.61951
7.49576
8.22544
8.77167
9.13756
9.30212
9.3428
9.29068
9.14061
8.89591
1.94475
1.47098
1.08941
0.767925
0.573557
0.52938
0.58471
0.710226
0.893138
1.14869
1.51126
2.00679
2.63474
3.42021
4.38127
5.51143
6.76675
8.07417
9.3026
10.3493
11.1608
11.5173
11.2081
10.2244
8.85459
7.46633
6.292
5.39588
4.75012
4.30477
4.01942
3.87238
3.63209
3.73242
4.1337
4.8422
5.74525
6.66407
7.50649
8.19084
8.70326
9.03223
9.17123
9.19068
9.1192
8.95538
8.70258
2.55163
1.94999
1.4714
1.0877
0.766573
0.576149
0.535718
0.596435
0.728698
0.921048
1.18888
1.5768
2.09987
2.74065
3.53422
4.49355
5.6055
6.82332
8.0726
9.24675
10.2373
10.9709
11.2181
10.8343
9.85341
8.56801
7.29488
6.21946
5.39624
4.79395
4.38091
4.12549
4.00831
3.78071
3.91232
4.32485
5.02468
5.88646
6.76775
7.55456
8.19924
8.66284
8.95167
9.05937
9.05484
8.96334
8.78605
8.52791
3.22748
2.56472
1.95584
1.47208
1.0859
0.765413
0.579121
0.542827
0.609494
0.749178
0.951506
1.23995
1.65233
2.18901
2.84003
3.6384
4.59196
5.68215
6.85924
8.05997
9.17616
10.1095
10.7635
10.9178
10.4778
9.51897
8.32159
7.1544
6.17078
5.40791
4.85193
4.47411
4.24982
4.16359
3.9514
4.11471
4.54649
5.24043
6.0754
6.90684
7.64705
8.23148
8.64544
8.88697
8.96039
8.93088
8.81928
8.63083
8.37048
0.833547
3.24953
2.5791
1.96247
1.47297
1.08428
0.764239
0.582585
0.550813
0.624064
0.771813
0.990822
1.3
1.72563
2.27363
2.93238
3.7324
4.67661
5.74171
6.87925
8.02974
9.09139
9.96644
10.5409
10.6191
10.142
9.22032
8.10954
7.0411
6.1392
5.43574
4.92525
4.58226
4.39044
4.337
4.14355
4.34351
4.79791
5.49387
6.29386
7.08028
7.75879
8.28418
8.63944
8.83093
8.86915
8.81473
8.68652
8.4888
8.22894
0.839866
3.2735
2.59496
1.96991
1.47428
1.08258
0.763419
0.58656
0.559814
0.640312
0.801464
1.0381
1.35933
1.79608
2.35327
3.01735
3.81605
4.74764
5.78594
6.87892
7.98267
8.9935
9.80966
10.3086
10.3258
9.82835
8.9532
7.9272
6.94969
6.12243
5.47867
5.00993
4.70308
4.54604
4.52783
4.3577
4.59785
5.08
5.77073
6.53951
7.26933
7.88342
8.34219
8.63668
8.77772
8.78142
8.70488
8.56283
8.35887
8.10165
0.846729
3.29957
2.61241
1.97837
1.47593
1.08125
0.762666
0.591196
0.569975
0.661821
0.837987
1.08587
1.41732
1.86321
2.42757
3.09468
3.88928
4.8057
5.81405
6.86964
7.92309
8.88346
9.64119
10.0713
10.0385
9.53743
8.71418
7.76991
6.87574
6.12114
5.52971
5.1039
4.83529
4.71529
4.73552
4.59328
4.87584
5.38489
6.06886
6.79594
7.46418
8.00761
8.39709
8.6306
8.72291
8.69551
8.60053
8.44676
8.23975
7.98647
0.854199
3.32791
2.63172
1.98793
1.47819
1.07977
0.762597
0.596548
0.583613
0.688858
0.875842
1.13356
1.47344
1.92663
2.49624
3.16421
3.95225
4.85073
5.82978
6.84611
7.85136
8.76221
9.46361
9.83328
9.76045
9.26847
8.4999
7.63314
6.81743
6.12652
5.58797
5.20609
4.97721
4.89779
4.95967
4.84963
5.17371
5.70807
6.3744
7.05243
7.65245
8.12195
8.44183
8.61661
8.66471
8.61064
8.5
8.33792
8.12971
7.88086
0.862325
3.35874
2.65303
1.99888
1.48101
1.07886
0.762824
0.603941
0.601149
0.717585
0.914621
1.18065
1.52725
1.98604
2.55913
3.22591
4.00498
4.88408
5.82959
6.8079
7.76879
8.63166
9.27975
9.59621
9.49386
9.02003
8.30696
7.51376
6.76972
6.13969
5.65251
5.3144
5.12867
5.09333
5.19799
5.12296
5.48854
6.03775
6.67668
7.29716
7.82433
8.21896
8.47168
8.59281
8.60277
8.52574
8.40268
8.23502
8.02665
7.78254
0.87118
3.39225
2.67667
2.01129
1.48474
1.07785
0.763684
0.613655
0.620315
0.747829
0.953898
1.22668
1.57841
2.04126
2.61614
3.27977
4.04795
4.90512
5.82209
6.7591
7.67646
8.49349
9.09156
9.36207
9.23996
8.79028
8.13236
7.40805
6.73024
6.15893
5.72064
5.42903
5.28957
5.30064
5.45008
5.4115
5.81154
6.36411
6.96433
7.52018
7.97216
8.29394
8.48497
8.55947
8.53567
8.44063
8.30814
8.13643
7.9287
7.68938
0.880832
3.42867
2.70282
2.02561
1.48936
1.07791
0.765832
0.624693
0.641155
0.779392
0.993234
1.27125
1.62669
2.09217
2.66724
3.32594
4.08113
4.91638
5.80292
6.70007
7.57591
8.34918
8.90089
9.13258
8.99919
8.57734
7.97321
7.31289
6.69756
6.18066
5.79294
5.54974
5.45954
5.52037
5.71189
5.70928
6.13606
6.67604
7.22722
7.71378
8.09117
8.34585
8.48234
8.5153
8.46414
8.35507
8.21528
8.04075
7.83405
7.5998
0.891346
3.46825
2.73194
2.04193
1.49638
1.07865
0.769252
0.636855
0.66383
0.81197
1.03223
1.31406
1.67192
2.13873
2.71247
3.36448
4.10545
4.91583
5.77188
6.6323
7.46858
8.20009
8.70936
8.90909
8.77144
8.37931
7.82664
7.22649
6.6683
6.20599
5.86866
5.67682
5.64022
5.74984
5.97861
6.00747
6.4507
6.96317
7.45754
7.87288
8.18104
8.37535
8.46327
8.46164
8.38922
8.26863
8.12318
7.94653
7.7414
7.51317
0.902837
3.51114
2.76419
2.06439
1.50669
1.08053
0.773919
0.650176
0.68814
0.845261
1.07052
1.35489
1.71402
2.18094
2.75187
3.39578
4.12062
4.90931
5.73217
6.55674
7.3555
8.04754
8.51848
8.69258
8.55618
8.19418
7.69087
7.14539
6.64385
6.23309
5.94857
5.81268
5.83017
5.98628
6.24235
6.30027
6.74353
7.21754
7.64982
7.99779
8.24217
8.38089
8.42907
8.40006
8.31091
8.18092
8.03075
7.85272
7.65041
7.4296
0.915321
3.55771
2.80696
2.09385
1.5194
1.08437
0.780235
0.664631
0.714033
0.8789
1.10783
1.3936
1.75297
2.21884
2.78566
3.41981
4.12812
4.89331
5.68432
6.47482
7.23782
7.89279
8.32955
8.48358
8.35251
8.0206
7.56247
7.07138
6.62058
6.26322
6.03539
5.95688
6.02879
6.22377
6.49744
6.57946
7.00668
7.43307
7.80442
8.08846
8.27366
8.36797
8.3827
8.33167
8.22897
8.09119
7.9372
7.75927
7.56151
7.34979
0.929003
3.61725
2.86026
2.127
1.53481
1.09012
0.788086
0.680615
0.741185
0.91259
1.14393
1.43009
1.78878
2.25254
2.81386
3.43744
4.12714
4.86838
5.6296
6.38751
7.11656
7.73698
8.14356
8.28227
8.1597
7.85581
7.44339
6.99893
6.60042
6.29881
6.12927
6.11084
6.23145
6.45491
6.73502
6.83508
7.2332
7.60966
7.92067
8.14446
8.27999
8.33771
8.32591
8.25723
8.1431
7.9989
7.84277
7.66689
7.47569
7.27314
0.946767
3.68862
2.91749
2.16395
1.55325
1.09815
0.797655
0.698018
0.769468
0.946017
1.17866
1.46436
1.82153
2.28213
2.83691
3.44797
4.12151
4.83665
5.56872
6.29571
6.99273
7.58113
7.96127
8.08873
7.97589
7.70078
7.32713
6.93071
6.58502
6.34016
6.2334
6.27124
6.43274
6.6737
6.94683
7.05921
7.42199
7.74574
7.99824
8.17047
8.2666
8.29339
8.26012
8.17708
8.0529
7.90455
7.7484
7.57688
7.39263
7.19859
0.967898
3.76208
2.97801
2.20514
1.5753
1.1086
0.809009
0.717146
0.798498
0.978954
1.21193
1.49641
1.85129
2.30782
2.85474
3.45331
4.10846
4.79866
5.50283
6.20039
6.86723
7.42609
7.78323
7.90221
7.80115
7.55114
7.21652
6.86729
6.57442
6.39177
6.34532
6.434
6.62499
6.8716
7.12849
7.24901
7.57055
7.84045
8.04192
8.17118
8.23534
8.23718
8.18635
8.0907
7.95932
7.80933
7.65569
7.48914
7.3116
7.1232
0.990011
3.83613
3.0426
2.25109
1.60107
1.12215
0.822216
0.737834
0.828119
1.01121
1.24368
1.52629
1.8782
2.32969
2.86802
3.45245
4.08907
4.75539
5.43275
6.10237
6.74085
7.27257
7.6095
7.7227
7.63325
7.40767
7.11115
6.80843
6.5739
6.45118
6.46272
6.59368
6.80276
7.04315
7.27662
7.40134
7.67671
7.89862
8.05694
8.15338
8.18905
8.17087
8.10452
7.99939
7.86381
7.71508
7.56472
7.40328
7.22975
7.04783
1.01269
3.91151
3.11052
2.30164
1.63164
1.13867
0.837661
0.76022
0.857998
1.04263
1.27392
1.55409
1.90235
2.3481
2.87636
3.44829
4.06458
4.70744
5.35919
6.00243
6.61428
7.12098
7.44024
7.5493
7.47138
7.26985
7.01057
6.75772
6.57968
6.51835
6.58265
6.74388
6.95885
7.18477
7.38594
7.51234
7.74511
7.9264
8.04866
8.11712
8.13071
8.09459
8.01635
7.9049
7.7685
7.62205
7.47543
7.31647
7.1482
6.96737
1.0363
3.98594
3.18208
2.3581
1.66668
1.15934
0.855099
0.784142
0.887993
1.07317
1.30266
1.5799
1.92397
2.36294
2.88153
3.43875
4.03545
4.65563
5.28295
5.90121
6.48802
6.97161
7.27524
7.38109
7.31504
7.13714
6.91672
6.71433
6.59477
6.59216
6.69804
6.87822
7.08952
7.29024
7.45929
7.58589
7.7825
7.92536
8.02329
8.06687
8.0605
8.01056
7.92386
7.80968
7.67383
7.53045
7.38498
7.23013
7.06149
6.88866
1.06024
4.06093
3.25741
2.41928
1.70788
1.18367
0.875441
0.809578
0.917911
1.10273
1.32996
1.60385
1.9431
2.37495
2.8816
3.42464
4.00239
4.60068
5.20463
5.79925
6.36243
6.82459
7.11398
7.21761
7.16363
7.00997
6.82941
6.67954
6.61929
6.66675
6.80391
6.99252
7.1878
7.36144
7.5032
7.62887
7.78759
7.90929
7.98082
8.0029
7.98128
7.9211
7.82981
7.71437
7.58033
7.43745
7.29507
7.13848
6.97672
6.79253
1.08405
4.13345
3.33494
2.48694
1.75404
1.21331
0.898339
0.836676
0.947517
1.13134
1.35589
1.62604
1.96003
2.38375
2.87969
3.40704
3.96596
4.54307
5.12477
5.69694
6.23775
6.67973
6.9561
7.0583
7.01703
6.88997
6.74936
6.65437
6.64846
6.7377
6.89573
7.07931
7.25425
7.40437
7.51378
7.63819
7.77749
7.87445
7.92289
7.92887
7.89564
7.82927
7.73506
7.61988
7.48514
7.34499
7.19962
7.04883
6.87442
6.69489
1.11015
4.20254
3.41564
2.55906
1.80796
1.24693
0.924713
0.865168
0.976899
1.15897
1.38053
1.64659
1.97482
2.39005
2.87474
3.38612
3.92661
4.48333
5.04379
5.59457
6.114
6.53685
6.80118
6.90281
6.87528
6.77729
6.67865
6.63663
6.67933
6.80082
6.96594
7.13759
7.29413
7.41484
7.50825
7.63153
7.74991
7.82196
7.85415
7.84762
7.80692
7.73605
7.64083
7.52331
7.39047
7.24673
7.10615
6.94146
6.77113
6.54692
1.13642
4.2697
3.49709
2.63841
1.86747
1.28726
0.953996
0.895227
1.00592
1.18573
1.40394
1.66562
1.98765
2.39426
2.86623
3.36236
3.88486
4.42191
4.96203
5.49226
5.99109
6.39564
6.64885
6.75098
6.73856
6.67237
6.61836
6.6248
6.70818
6.84884
7.01182
7.17163
7.30317
7.40954
7.48813
7.60929
7.70194
7.75832
7.77758
7.7627
7.71624
7.64305
7.54409
7.42718
7.28965
7.15036
6.99471
6.83353
6.61741
6.40604
1.16276
4.33303
3.58157
2.72157
1.93633
1.33265
0.987651
0.926454
1.03476
1.21159
1.42623
1.6832
1.99883
2.39594
2.85522
3.33616
3.84108
4.35913
4.87966
5.39003
5.86885
6.25581
6.49883
6.60268
6.60771
6.57503
6.56498
6.61569
6.72854
6.87746
7.03656
7.17745
7.29728
7.39002
7.44562
7.5649
7.64292
7.68649
7.69696
7.67535
7.62549
7.54711
7.44764
7.32445
7.19064
7.03573
6.88307
6.67495
6.47244
6.16425
1.18828
4.39407
3.66501
2.81258
2.01136
1.38652
1.02498
0.959247
1.06335
1.23672
1.44744
1.69949
2.00837
2.39552
2.84211
3.30784
3.79558
4.29522
4.79679
5.28779
5.74705
6.11707
6.35088
6.45831
6.48305
6.48491
6.51722
6.60396
6.73481
6.88887
7.0371
7.16972
7.27712
7.34846
7.3929
7.50983
7.57563
7.6104
7.61356
7.58774
7.53141
7.45132
7.34406
7.22338
7.07301
6.9212
6.72049
6.52663
6.22504
5.98173
1.21372
4.44921
3.75133
2.90624
2.09702
1.44691
1.06773
0.993361
1.09188
1.26103
1.46762
1.71458
2.0163
2.39387
2.82704
3.27767
3.74857
4.23033
4.7134
5.18538
5.62544
5.97913
6.20507
6.3182
6.36469
6.40157
6.4713
6.58453
6.72968
6.88221
7.02539
7.14718
7.23592
7.29721
7.33237
7.44663
7.50412
7.53138
7.52981
7.49646
7.4373
7.34787
7.24188
7.10319
6.95585
6.75538
6.56951
6.27448
6.0401
5.54431
1.23753
4.50167
3.83407
3.0077
2.18934
1.51768
1.1153
1.02938
1.12055
1.28462
1.48689
1.72847
2.02299
2.39028
2.81016
3.24584
3.70025
4.16451
4.62943
5.08261
5.50375
5.8419
6.06158
6.18269
6.25274
6.32278
6.42336
6.55822
6.71123
6.8625
6.99848
7.10565
7.1858
7.23847
7.26824
7.37948
7.42967
7.45205
7.44214
7.405
7.33498
7.24552
7.12001
6.9839
6.78691
6.60237
6.31348
6.08752
5.59874
1.26128
4.54561
3.91962
3.1105
2.29284
1.59657
1.16972
1.06728
1.14969
1.30759
1.50524
1.74126
2.02842
2.38499
2.79171
3.21255
3.65071
4.09777
4.54474
4.97926
5.38179
5.70538
5.92074
6.05213
6.14622
6.24608
6.37285
6.5229
6.68037
6.82969
6.95568
7.0561
7.12861
7.17651
7.20169
7.3096
7.3551
7.36864
7.35418
7.30479
7.23342
7.12283
6.99938
6.8121
6.63211
6.34327
6.12487
5.64298
1.28219
4.58763
3.9989
3.21954
2.40283
1.68774
1.23055
1.108
1.17941
1.33
1.5227
1.7531
2.03246
2.3784
2.7718
3.17789
3.59998
4.03004
4.45917
4.87513
5.25949
5.56978
5.78295
5.92641
6.04398
6.17044
6.31783
6.47913
6.6399
6.78424
6.90584
7.00008
7.06867
7.11242
7.13577
7.23994
7.27646
7.28492
7.25699
7.20495
7.1108
7.00167
6.82541
6.6559
6.36997
6.15344
5.67794
1.30357
4.61784
4.0797
3.32911
2.52407
1.78842
1.30025
1.15163
1.21032
1.35206
1.53951
1.76386
2.03537
2.37051
2.75046
3.14189
3.54806
3.96122
4.37257
4.77009
5.13689
5.43544
5.6485
5.80534
5.94519
6.09432
6.25844
6.42857
6.58991
6.73291
6.8504
6.94194
7.00702
7.04934
7.06619
7.16636
7.19756
7.19155
7.15978
7.0833
6.98994
6.8263
6.66842
6.39094
6.17903
5.70485
1.3204
4.64801
4.15492
3.4429
2.65002
1.90257
1.37824
1.19963
1.24243
1.37431
1.55565
1.77371
2.0372
2.36118
2.72779
3.10459
3.49491
3.89123
4.28481
4.66413
5.01422
5.30275
5.5178
5.68862
5.8489
6.01761
6.19552
6.37177
6.53554
6.67719
6.79368
6.88266
6.94685
6.98286
6.99681
7.09271
7.1087
7.0978
7.03996
6.96357
6.81392
6.66916
6.40141
6.19903
5.72884
1.33854
4.66685
4.22711
3.55373
2.78584
2.02675
1.46772
1.25208
1.27569
1.39677
1.57127
1.78271
2.03737
2.35068
2.70383
3.06599
3.44049
3.81996
4.19587
4.55736
4.89181
5.17231
5.39106
5.57597
5.755
5.94068
6.12964
6.3126
6.47838
6.62127
6.73654
6.82546
6.88367
6.91682
6.91727
7.0089
7.01915
6.98066
6.92222
6.7877
6.65729
6.40091
6.20896
5.7476
1.35275
4.67881
4.29241
3.6678
2.92381
2.16428
1.56724
1.31144
1.31065
1.41941
1.58635
1.79044
2.03686
2.33902
2.67857
3.02607
3.38474
3.74741
4.10579
4.45002
4.77024
5.04467
5.26856
5.46751
5.66375
5.86395
6.06379
6.25256
6.42235
6.56584
6.68224
6.76577
6.82129
6.84069
6.83675
6.92418
6.90544
6.86569
6.7473
6.63227
6.38864
6.20838
5.75717
1.36434
4.68426
4.35544
3.77561
3.06864
2.31056
1.68089
1.37772
1.34816
1.4431
1.60047
1.79728
2.03534
2.32602
2.65199
2.98481
3.32768
3.6736
4.01474
4.34257
4.65013
4.92045
5.15077
5.36366
5.57544
5.78975
5.99923
6.19522
6.36796
6.5142
6.62615
6.70736
6.74897
6.76356
6.73089
6.81457
6.79401
6.69252
6.59374
6.3641
6.19653
5.75714
1.37405
4.68335
4.40956
3.88613
3.21356
2.46893
1.80599
1.45325
1.38928
1.46782
1.61406
1.80327
2.0323
2.31181
2.62411
2.94227
3.26935
3.59867
3.92307
4.23556
4.53223
4.80038
5.03835
5.2647
5.49194
5.71906
5.93913
6.14088
6.31846
6.46162
6.57194
6.63929
6.67575
6.66079
6.62762
6.70736
6.62335
6.54152
6.32696
6.17295
5.74683
1.38153
4.67787
4.46301
3.98955
3.36141
2.6319
1.94592
1.53891
1.43468
1.49496
1.62769
1.80843
2.02825
2.29631
2.59502
2.89847
3.20984
3.5229
3.83123
4.1297
4.41738
4.68538
4.93175
5.17225
5.41397
5.65466
5.88356
6.09271
6.26912
6.41173
6.50852
6.57051
6.57664
6.56074
6.46351
6.53995
6.47557
6.27701
6.13731
5.72583
1.38754
4.66729
4.5046
4.08995
3.5039
2.80281
2.09764
1.63606
1.48614
1.52348
1.642
1.81305
2.02307
2.27959
2.56471
2.85351
3.14944
3.44662
3.73984
4.02579
4.30658
4.57609
4.83247
5.08684
5.34394
5.59639
5.83556
6.04599
6.22343
6.35326
6.44471
6.47566
6.48049
6.3994
6.32322
6.396
6.21422
6.08943
5.69382
1.39244
4.6477
4.5423
4.18084
3.64635
2.97366
2.26137
1.74647
1.54481
1.55406
1.65662
1.81665
2.0168
2.26164
2.53323
2.80766
3.08834
3.37036
3.64955
3.92479
4.20064
4.47394
4.74099
5.01059
5.28156
5.54709
5.79047
6.0041
6.17004
6.29489
6.35475
6.38411
6.32271
6.26212
6.07011
6.13869
6.02924
5.65066
1.39343
4.62475
4.57133
4.2685
3.77939
3.14548
2.43485
1.87058
1.61262
1.58767
1.67284
1.81952
2.00945
2.24252
2.50093
2.76098
3.02703
3.29466
3.56125
3.8275
4.10089
4.37949
4.65914
4.94313
5.22937
5.50226
5.75156
5.95561
6.11745
6.21044
6.26852
6.23065
6.18916
6.01251
5.89138
5.95685
5.5963
1.39297
4.59594
4.59915
4.3439
3.90802
3.31409
2.61552
2.00856
1.69126
1.62589
1.69112
1.82217
2.00135
2.22272
2.4677
2.71398
2.96591
3.22025
3.47562
3.73516
4.00797
4.29429
4.58667
4.88673
5.18317
5.46506
5.70744
5.9089
6.03905
6.13028
6.12026
6.10156
5.94414
5.83637
5.47205
5.53081
1.39052
4.5668
4.61803
4.41542
4.02783
3.47736
2.79904
2.16139
1.78193
1.6701
1.71223
1.82583
1.99318
2.20195
2.43406
2.6669
2.90556
3.14769
3.39379
3.64845
3.92321
4.21831
4.52548
4.83754
5.14601
5.42427
5.66634
5.83695
5.96565
5.98817
5.9964
5.86216
5.7713
5.42256
1.3877
4.5319
4.6348
4.47577
4.13738
3.63146
2.98468
2.32562
1.88632
1.72229
1.73522
1.83075
1.98402
2.18059
2.40009
2.62018
2.84642
3.07799
3.31641
3.56843
3.84681
4.15308
4.47221
4.79857
5.107
5.38801
5.60092
5.77084
5.83071
5.87039
5.76378
5.69332
5.36454
1.38242
4.49728
4.64386
4.52541
4.23514
3.77841
3.16515
2.50093
2.00596
1.78464
1.76203
1.83755
1.9745
2.15915
2.36605
2.5742
2.78945
3.0117
3.2443
3.49552
3.77991
4.09578
4.42985
4.75944
5.07424
5.32884
5.54236
5.64414
5.7199
5.64586
5.59975
5.2951
1.3775
4.45899
4.64346
4.56674
4.32466
3.91174
3.34168
2.68373
2.14074
1.85881
1.79376
1.84793
1.96649
2.13758
2.3325
2.52992
2.73498
2.94949
3.17802
3.43051
3.72021
4.04934
4.38871
4.72825
5.02045
5.2775
5.42494
5.54115
5.50492
5.48755
5.21179
1.37097
4.41566
4.63942
4.60108
4.3996
4.03582
3.50871
2.86903
2.29
1.9457
1.83335
1.86137
1.95911
2.11677
2.30032
2.48724
2.68367
2.89194
3.11806
3.37152
3.67058
4.00497
4.35695
4.67837
4.97546
5.17044
5.33048
5.3373
5.35333
5.11183
1.36185
4.37144
4.63012
4.62428
4.46523
4.14511
3.66387
3.05322
2.45175
2.04841
1.8813
1.87687
1.95591
2.09746
2.26893
2.44726
2.63604
2.83936
3.06288
3.32126
3.62316
3.97081
4.30903
4.63861
4.87946
5.08487
5.13944
5.19355
4.9921
1.3521
4.3258
4.61271
4.64299
4.51606
4.24038
3.80666
3.23273
2.62348
2.16342
1.94037
1.89801
1.95678
2.07853
2.24048
2.41001
2.59234
2.79047
3.01497
3.27277
3.58589
3.92292
4.2731
4.55304
4.80264
4.90837
5.00472
4.84934
1.34141
4.27628
4.59337
4.64845
4.55487
4.3227
3.93594
3.40158
2.79588
2.29396
2.01183
1.9259
1.96066
2.0643
2.21425
2.37607
2.55155
2.74751
2.96816
3.23352
3.53709
3.88929
4.19618
4.48487
4.64237
4.78386
4.6803
1.32874
4.2272
4.56452
4.6459
4.58448
4.39157
4.04652
3.55457
2.97081
2.43588
2.09468
1.9622
1.96921
2.05362
2.19143
2.34459
2.5155
2.70501
2.92922
3.18461
3.50415
3.8187
4.13626
4.34173
4.52913
4.48215
1.3161
4.17264
4.53025
4.63776
4.60385
4.44141
4.13966
3.69644
3.13733
2.58235
2.19193
2.00868
1.98321
2.04903
2.17135
2.31708
2.47969
2.66897
2.88224
3.15135
3.43829
3.7662
4.01024
4.24081
4.25306
1.30044
4.11566
4.49342
4.62123
4.60608
4.47668
4.22028
3.81613
3.28848
2.73533
2.29999
2.06669
2.00353
2.04985
2.1553
2.29019
2.44903
2.62648
2.84953
3.09042
3.39182
3.65637
3.92238
3.99311
1.28336
4.05853
4.45164
4.5917
4.60136
4.50342
4.27734
3.91386
3.43059
2.88448
2.41702
2.13333
2.03271
2.05372
2.1413
2.26761
2.41367
2.59615
2.79427
3.04808
3.29676
3.58174
3.70527
1.26611
3.99925
4.40071
4.55653
4.58993
4.50963
4.31655
3.99996
3.5516
3.02422
2.53657
2.21245
2.06896
2.06093