/*--------------------------------*- C++ -*----------------------------------*\
  =========                 |
  \\      /  F ield         | OpenFOAM: The Open Source CFD Toolbox
   \\    /   O peration     | Website:  https://openfoam.org
    \\  /    A nd           | Version:  8
     \\/     M anipulation  |
\*---------------------------------------------------------------------------*/
FoamFile
{
    version     2.0;
    format      ascii;
    class       volScalarField;
    location    "0.48";
    object      nut;
}
// * * * * * * * * * * * * * * * * * * * * * * * * * * * * * * * * * * * * * //

dimensions      [0 2 -1 0 0 0 0];

internalField   nonuniform List<scalar> 
15677
(
0.000168167
0.00065216
0.000148209
0.00151207
0.000443101
0.000141307
0.00267205
0.000878178
0.000381062
0.000142207
0.00391633
0.00152266
0.000687313
0.000354333
0.000145346
0.00501906
0.00236032
0.00114793
0.000586058
0.000340306
0.000151129
0.00583677
0.00332103
0.00178282
0.000948645
0.000529542
0.000332032
0.000156933
0.00633339
0.00430099
0.00256971
0.00146453
0.000821429
0.000492623
0.000326982
0.000162378
0.00656228
0.00518809
0.0034545
0.0021329
0.00125798
0.000737546
0.000467529
0.000324095
0.000167155
0.00665821
0.00589314
0.00435617
0.00292323
0.00184238
0.00111275
0.000677563
0.000450494
0.000322518
0.000171379
0.00670542
0.00633796
0.00518098
0.00377964
0.00255767
0.0016323
0.00100487
0.000634244
0.00043873
0.000321955
0.000174943
0.00671437
0.00655327
0.00584508
0.00462544
0.00336313
0.00228693
0.00147295
0.000924427
0.000602299
0.000430789
0.000321892
0.000178079
0.0067099
0.00666143
0.00629531
0.00537689
0.00419692
0.00304549
0.002078
0.00134926
0.000862398
0.000578686
0.000425312
0.00032237
0.000180697
0.00670626
0.00669873
0.00652934
0.00596403
0.0049838
0.0038572
0.00279573
0.00191191
0.00125141
0.000814282
0.000560921
0.000421827
0.000322998
0.000183038
0.00670535
0.00670438
0.00664666
0.00635647
0.00564949
0.00465543
0.00358306
0.0025936
0.00177791
0.00117319
0.000776452
0.000547754
0.000419458
0.000323917
0.000185084
0.00670538
0.00670289
0.00668779
0.00656261
0.00614151
0.00536783
0.00438076
0.00335677
0.00242786
0.00166825
0.00110972
0.000746697
0.00053764
0.000418242
0.000324762
0.000186896
0.00670551
0.0067017
0.00669631
0.00665638
0.00644639
0.00593297
0.00512029
0.00414822
0.00316824
0.00228999
0.00157786
0.00105807
0.000722972
0.000530367
0.000417358
0.000325811
0.000188557
0.00670557
0.00670126
0.00669704
0.00668481
0.00660459
0.00632117
0.00573671
0.00490327
0.00395054
0.00300924
0.00217478
0.00150282
0.00101605
0.000704486
0.000524629
0.000417229
0.000326743
0.000189971
0.00670557
0.0067012
0.00669664
0.00669161
0.00666356
0.00654085
0.00618761
0.00555625
0.00471385
0.00378119
0.00287471
0.00207791
0.0014405
0.000981985
0.000689563
0.000520747
0.000417148
0.00032782
0.000191403
0.00670554
0.00670124
0.00669633
0.0066927
0.00668219
0.0066343
0.00646734
0.00605732
0.00539315
0.00454821
0.003636
0.0027604
0.00199648
0.00138898
0.000954048
0.000678173
0.000517607
0.000417657
0.000328793
0.000192518
0.00670551
0.0067013
0.00669618
0.00669268
0.0066872
0.00666896
0.00659772
0.00638895
0.00593427
0.0052465
0.00440391
0.00351126
0.00266338
0.00192835
0.00134628
0.000931725
0.000668971
0.000515843
0.00041805
0.000329857
0.000193846
0.00670549
0.00670134
0.0066961
0.00669259
0.00668813
0.00668068
0.00665122
0.00655582
0.00631045
0.00581932
0.00511606
0.00427821
0.00340449
0.00258144
0.0018715
0.00131148
0.000913671
0.000662347
0.000514358
0.000418943
0.00033088
0.000194729
0.00670548
0.00670136
0.00669606
0.00669257
0.00668811
0.00668412
0.00667158
0.00663014
0.00651091
0.00623276
0.00571428
0.00500035
0.00416962
0.0033136
0.00251277
0.00182477
0.00128324
0.000899743
0.00065706
0.00051401
0.000419642
0.000331906
0.000196044
0.00670547
0.00670137
0.00669603
0.00669258
0.00668797
0.00668495
0.00667846
0.00666124
0.00660583
0.00646482
0.00615981
0.00561892
0.00489936
0.00407639
0.00323711
0.00245594
0.00178679
0.00126103
0.000888969
0.000653864
0.000513651
0.000420792
0.00033304
0.000196757
0.00670548
0.00670137
0.00669601
0.00669259
0.00668786
0.00668507
0.00668043
0.00667314
0.00664829
0.00658044
0.00641904
0.0060918
0.00553467
0.00481151
0.0039975
0.0031735
0.00241001
0.00175709
0.00124413
0.000881393
0.000651355
0.000514304
0.000421685
0.000333942
0.000198072
0.00670548
0.00670136
0.00669601
0.00669258
0.0066878
0.00668505
0.00668083
0.00667726
0.00666569
0.00663527
0.00655372
0.0063756
0.00603025
0.00545976
0.00473697
0.00393206
0.00312269
0.00237405
0.00173443
0.00123169
0.000876075
0.000650754
0.000514753
0.000423089
0.000335372
0.000198757
0.00670549
0.00670135
0.00669601
0.00669257
0.00668777
0.00668501
0.00668082
0.00667851
0.00667217
0.00665943
0.00662025
0.00652831
0.00633521
0.00597425
0.00539709
0.00467555
0.00387973
0.00308205
0.00234665
0.00171857
0.00122421
0.000873777
0.000650383
0.000516191
0.000423992
0.000336122
5.33347e-05
0.0067055
0.00670133
0.00669602
0.00669255
0.00668776
0.00668497
0.00668075
0.00667879
0.00667429
0.0066693
0.00665071
0.00660716
0.00650404
0.00629894
0.00592899
0.00534393
0.00462477
0.00383785
0.00305379
0.00232993
0.00171038
0.00122077
0.00087291
0.000651848
0.000517273
0.000426425
0.000283391
6.32457e-05
0.00670552
0.00670132
0.00669603
0.00669253
0.00668775
0.00668493
0.00668069
0.00667878
0.00667485
0.00667297
0.00666361
0.00664533
0.00659304
0.00648237
0.00626839
0.00588688
0.00530224
0.00459065
0.00381412
0.00303769
0.0023208
0.00170685
0.00121993
0.000874623
0.00065344
0.000519376
0.00041987
0.000219222
7.05634e-05
0.00670553
0.0067013
0.00669604
0.00669251
0.00668775
0.00668489
0.00668065
0.0066787
0.00667492
0.00667414
0.00666863
0.00666258
0.00663676
0.00658337
0.00646618
0.00624076
0.00586298
0.00527815
0.00456839
0.00379706
0.00302814
0.00231755
0.00170782
0.00122339
0.000877557
0.000655733
0.000520562
0.000399873
0.000177891
7.59498e-05
0.00670554
0.00670129
0.00669605
0.00669249
0.00668775
0.00668486
0.00668062
0.00667862
0.00667487
0.00667437
0.00667038
0.00666977
0.00665689
0.00663572
0.00657397
0.00645028
0.00623218
0.00584649
0.00525976
0.00455384
0.00378912
0.00302696
0.00232156
0.00171478
0.00122966
0.00088205
0.000658955
0.000518365
0.000367034
0.000152484
8.03004e-05
0.00670555
0.00670127
0.00669606
0.00669247
0.00668775
0.00668483
0.0066806
0.00667855
0.0066748
0.00667432
0.00667086
0.00667242
0.00666561
0.00666106
0.00662942
0.0065721
0.00644924
0.00622508
0.00583611
0.00525057
0.00455171
0.00379391
0.00303704
0.00233367
0.00172648
0.00123885
0.000888201
0.000661964
0.000512244
0.000335836
0.000134203
8.36414e-05
0.00670556
0.00670125
0.00669607
0.00669245
0.00668776
0.0066848
0.00668058
0.00667849
0.00667475
0.0066742
0.00667091
0.00667316
0.00666911
0.00667237
0.00665649
0.00663811
0.00657491
0.00645181
0.00622342
0.00583752
0.00525821
0.00456422
0.00381091
0.00305617
0.00235243
0.00174259
0.0012509
0.000895488
0.000664582
0.000500802
0.000305751
0.000121289
8.60051e-05
0.00670557
0.00670124
0.00669608
0.00669244
0.00668776
0.00668478
0.00668057
0.00667844
0.00667469
0.00667408
0.00667085
0.00667324
0.00667029
0.00667691
0.00666919
0.00667175
0.00664364
0.00658324
0.00646014
0.00623613
0.00585497
0.00527926
0.00458951
0.00383873
0.00308402
0.00237765
0.00176271
0.00126541
0.000903882
0.000665774
0.000485405
0.000279735
0.000112827
8.77479e-05
0.00670557
0.00670123
0.00669609
0.00669242
0.00668777
0.00668476
0.00668056
0.0066784
0.00667465
0.00667397
0.00667077
0.00667311
0.00667059
0.00667839
0.00667491
0.00668774
0.00667906
0.00665594
0.00660025
0.00648182
0.00626278
0.00588592
0.00531427
0.00462733
0.00387737
0.00312038
0.00240879
0.00178669
0.00128236
0.00091303
0.000665832
0.000468516
0.000259969
0.000107081
8.90947e-05
0.00670122
0.00670559
0.0066961
0.00669241
0.00668778
0.00668474
0.00668055
0.00667836
0.00667461
0.00667388
0.00667068
0.00667294
0.00667059
0.00667871
0.00667708
0.00669476
0.00669624
0.00669402
0.0066791
0.00662869
0.00651621
0.00630312
0.00593178
0.00536326
0.00467797
0.00392647
0.00316478
0.00244584
0.00181417
0.0013012
0.000923718
0.000664674
0.000453461
0.000244798
0.000103056
9.01848e-05
0.00669611
0.00670122
0.00670561
0.00669239
0.00668778
0.00668472
0.00668055
0.00667833
0.00667457
0.00667381
0.0066706
0.00667277
0.0066705
0.00667864
0.00667779
0.0066975
0.00670413
0.00671299
0.00672125
0.00671236
0.00666967
0.00656481
0.00635902
0.00599255
0.00542675
0.00474102
0.00398595
0.00321718
0.0024881
0.00184505
0.00132478
0.000936699
0.000663
0.000440617
0.000233009
0.000100192
9.11058e-05
0.00669238
0.00669615
0.00670123
0.00670564
0.00668779
0.0066847
0.00668055
0.0066783
0.00667455
0.00667375
0.00667052
0.00667262
0.00667039
0.00667844
0.00667796
0.00669844
0.00670741
0.00672208
0.00674285
0.00675828
0.00675855
0.00672494
0.0066294
0.00643148
0.00607004
0.00550516
0.00481695
0.00405541
0.00327672
0.00253564
0.00188258
0.00135294
0.000950302
0.000661898
0.000429961
0.000223692
9.81066e-05
9.19094e-05
0.0066878
0.0066924
0.00669621
0.00670124
0.00670566
0.00668469
0.00668055
0.00667827
0.00667453
0.00667369
0.00667046
0.00667249
0.00667027
0.00667821
0.00667793
0.00669869
0.00670866
0.00672612
0.0067537
0.00678285
0.00680853
0.0068192
0.00679666
0.00671092
0.00652165
0.00616389
0.00559877
0.00490469
0.00413429
0.00334353
0.00259343
0.00192892
0.00138248
0.000964749
0.000661298
0.00042116
0.000216222
9.65893e-05
9.26305e-05
0.00668467
0.00668785
0.00669244
0.00669627
0.00670125
0.00670569
0.00668055
0.00667825
0.00667451
0.00667364
0.0066704
0.00667238
0.00667017
0.00667799
0.00667785
0.00669868
0.00670913
0.00672789
0.00675892
0.00679579
0.00683602
0.00687296
0.00689639
0.00688561
0.00681098
0.00662932
0.00627464
0.00570752
0.00500522
0.0042225
0.00342454
0.00266412
0.00197895
0.00141344
0.000979764
0.000661839
0.000413898
0.000210133
9.54585e-05
9.32867e-05
0.00668055
0.0066847
0.00668794
0.00669249
0.00669634
0.00670126
0.00670571
0.00667823
0.0066745
0.00667359
0.00667036
0.00667229
0.00667007
0.0066778
0.00667776
0.00669857
0.00670928
0.00672874
0.00676155
0.0068027
0.006852
0.006905
0.00695651
0.00699219
0.00699297
0.00692856
0.00675472
0.00640163
0.00583042
0.00511728
0.00432956
0.00352359
0.00274011
0.00203191
0.0014455
0.000995578
0.000662972
0.000407943
0.000205102
9.46307e-05
9.38942e-05
0.0066782
0.00668061
0.00668478
0.00668804
0.00669254
0.00669641
0.00670128
0.00670574
0.00667449
0.00667355
0.00667032
0.00667221
0.00666998
0.00667763
0.00667767
0.00669843
0.00670931
0.0067292
0.00676306
0.00680663
0.00686132
0.00692445
0.00699387
0.00706001
0.00711097
0.00712234
0.00706507
0.00689655
0.00654372
0.00596586
0.0052547
0.004461
0.00362978
0.00282059
0.00208726
0.00147851
0.00101185
0.000665692
0.000403113
0.00020082
9.40034e-05
9.44569e-05
0.00667449
0.00667823
0.00668072
0.00668485
0.00668814
0.00669259
0.00669648
0.00670129
0.00670577
0.00667351
0.00667029
0.00667213
0.0066699
0.0066775
0.00667759
0.0066983
0.0067093
0.00672949
0.00676406
0.00680925
0.00686733
0.00693687
0.00701838
0.00710397
0.00718757
0.00725211
0.00727598
0.00722388
0.00705393
0.00669922
0.0061298
0.00542015
0.00460275
0.00374274
0.00290456
0.0021445
0.00151216
0.00102811
0.000668748
0.000399186
0.000197219
9.35507e-05
9.4985e-05
0.00667347
0.00667454
0.00667832
0.00668084
0.00668493
0.00668825
0.00669264
0.00669655
0.0067013
0.00670579
0.00667028
0.00667206
0.00666984
0.00667739
0.00667751
0.00669818
0.00670927
0.00672971
0.00676483
0.00681125
0.00687174
0.00694562
0.00703569
0.00713505
0.00724046
0.00733977
0.00741919
0.00745233
0.00740576
0.00723176
0.00688376
0.00632383
0.00559539
0.00475188
0.003861
0.00299127
0.002203
0.00154656
0.00104429
0.000672333
0.000396129
0.000194086
9.32049e-05
9.54764e-05
0.00667027
0.00667348
0.00667465
0.0066784
0.00668096
0.00668501
0.00668835
0.00669269
0.00669663
0.00670132
0.00670582
0.00667199
0.00666979
0.00667731
0.00667743
0.00669807
0.00670925
0.0067299
0.00676546
0.00681291
0.00687531
0.00695257
0.00704902
0.00715872
0.00728086
0.00740408
0.00752112
0.00761202
0.0076531
0.00760824
0.00745151
0.00711038
0.00652798
0.0057778
0.00490519
0.00398189
0.0030798
0.00226229
0.00158133
0.0010604
0.000676503
0.000393606
0.000191412
9.29664e-05
9.59403e-05
0.00667192
0.00667029
0.00667352
0.00667477
0.00667849
0.00668109
0.00668508
0.00668847
0.00669274
0.0066967
0.00670134
0.00670584
0.00666976
0.00667723
0.00667733
0.00669799
0.00670924
0.00673006
0.00676601
0.00681437
0.00687835
0.00695852
0.0070602
0.00717799
0.00731407
0.00745665
0.00760071
0.0077315
0.00783311
0.00787824
0.00785613
0.00771993
0.00735704
0.00673881
0.00596175
0.00506046
0.00410464
0.00316921
0.00232186
0.00161615
0.00107645
0.000681112
0.000391708
0.000189048
9.27844e-05
9.63714e-05
0.00666974
0.00667185
0.00667034
0.00667357
0.00667489
0.00667857
0.00668123
0.00668517
0.00668858
0.0066928
0.00669678
0.00670136
0.00670587
0.00667716
0.00667723
0.00669795
0.00670924
0.00673022
0.0067665
0.00681568
0.00688102
0.00696384
0.00707001
0.00719475
0.00734274
0.00750239
0.0076699
0.0078303
0.00797498
0.00808279
0.00815583
0.00816044
0.00800895
0.00761998
0.00696163
0.00614798
0.00521663
0.00422726
0.00325856
0.00238125
0.00165078
0.00109223
0.000685776
0.000390217
0.000187017
9.26726e-05
9.67794e-05
0.00667709
0.00666965
0.00667176
0.0066704
0.00667362
0.00667504
0.00667866
0.00668137
0.00668525
0.0066887
0.00669286
0.00669686
0.00670138
0.00670589
0.00667713
0.00669794
0.00670926
0.00673037
0.00676694
0.00681687
0.00688341
0.00696867
0.00707879
0.00720991
0.0073686
0.00754314
0.00773316
0.00792102
0.00809903
0.00825217
0.00839328
0.00849969
0.00849119
0.00831552
0.00789259
0.0071921
0.00633277
0.00536997
0.00434842
0.00334708
0.00244001
0.00168497
0.00110804
0.000690388
0.000389146
0.000185195
9.25888e-05
9.71572e-05
0.00667703
0.00667685
0.00666947
0.00667167
0.00667049
0.00667366
0.00667519
0.00667874
0.00668153
0.00668533
0.00668882
0.00669292
0.00669694
0.0067014
0.00670591
0.00669799
0.00670928
0.0067305
0.00676733
0.00681793
0.00688558
0.00697309
0.00708674
0.00722388
0.00739236
0.00758046
0.00779168
0.00800778
0.00821847
0.00840761
0.00860055
0.00878261
0.00887759
0.00884526
0.00863644
0.00817221
0.00742786
0.00652067
0.00552027
0.00446721
0.00343404
0.00249778
0.00171854
0.00112365
0.00069497
0.000388291
0.000183621
9.25536e-05
9.75155e-05
0.00669809
0.00667646
0.00667645
0.00666932
0.00667157
0.0066706
0.0066737
0.00667536
0.00667883
0.00668168
0.00668542
0.00668894
0.00669299
0.00669701
0.00670143
0.00670593
0.00670929
0.00673061
0.00676767
0.0068189
0.00688754
0.00697713
0.00709397
0.00723684
0.00741426
0.00761523
0.007847
0.00809018
0.00833613
0.00856342
0.0088011
0.00904429
0.00921665
0.00928749
0.00922019
0.00896906
0.00845655
0.00766381
0.00670939
0.00566721
0.00458298
0.00351901
0.00255423
0.00175136
0.00113895
0.000699474
0.000387725
0.00018219
9.25296e-05
9.78454e-05
0.00670925
0.00669755
0.00667543
0.006676
0.00666923
0.00667144
0.00667075
0.00667373
0.00667555
0.00667891
0.00668185
0.00668551
0.00668907
0.00669306
0.00669708
0.00670146
0.00670595
0.00673068
0.00676796
0.00681978
0.00688934
0.00698082
0.00710057
0.00724884
0.00743443
0.00764791
0.00789963
0.00816861
0.00844975
0.00872298
0.00901215
0.00931127
0.00954764
0.00969629
0.0097296
0.00961508
0.0093116
0.00874362
0.0078983
0.00689683
0.00581034
0.00469524
0.00360136
0.0026091
0.00178329
0.00115389
0.000703913
0.000387261
0.000180948
9.25408e-05
9.81592e-05
0.00673076
0.00670821
0.00669615
0.00667463
0.00667546
0.00666922
0.00667128
0.00667093
0.00667375
0.00667574
0.006679
0.00668201
0.00668561
0.00668919
0.00669313
0.00669715
0.00670148
0.00670597
0.00676821
0.00682058
0.006891
0.00698419
0.00710662
0.00725993
0.00745299
0.0076787
0.00794944
0.00824319
0.00856036
0.00888369
0.00923603
0.00960299
0.00990296
0.0101204
0.0102299
0.0102085
0.0100311
0.00966336
0.00903205
0.00813017
0.00708148
0.0059492
0.0048028
0.00368075
0.00266216
0.00181422
0.00116842
0.000708243
0.000387009
0.000179806
9.25528e-05
9.84466e-05
0.00676845
0.0067292
0.00670608
0.00669442
0.00667414
0.00667481
0.00666931
0.0066711
0.00667114
0.00667377
0.00667594
0.0066791
0.00668218
0.00668571
0.0066893
0.0066932
0.00669721
0.00670151
0.00670598
0.00682133
0.00689251
0.00698727
0.00711216
0.00727013
0.00747009
0.00770765
0.00799614
0.00831417
0.00866909
0.00904516
0.00946222
0.00992038
0.0103149
0.0106117
0.0107912
0.0108343
0.0107317
0.0104705
0.0100243
0.00932093
0.00835858
0.00726218
0.0060854
0.00490586
0.00375695
0.00271326
0.00184406
0.00118247
0.000712471
0.000386789
0.000178813
9.25915e-05
9.87205e-05
0.00682207
0.00676583
0.00672588
0.00670391
0.00669241
0.00667397
0.00667403
0.00666949
0.00667089
0.00667136
0.0066738
0.00667615
0.0066792
0.00668234
0.00668581
0.00668941
0.00669327
0.00669727
0.00670154
0.006706
0.00689391
0.00699008
0.00711723
0.00727949
0.00748584
0.00773472
0.00803966
0.00838197
0.00877581
0.00920475
0.00968546
0.0102575
0.0108087
0.01124
0.0115008
0.011594
0.0115249
0.0113048
0.0109346
0.010394
0.00960953
0.00858285
0.00743733
0.00621797
0.00500451
0.00382986
0.00276229
0.00187275
0.00119602
0.000716563
0.000386717
0.000177889
9.26256e-05
9.89396e-05
0.00689523
0.00681873
0.0067601
0.00672265
0.00670185
0.00668992
0.00667409
0.00667315
0.00666972
0.00667069
0.0066716
0.00667385
0.00667635
0.00667932
0.00668249
0.00668592
0.00668951
0.00669334
0.00669733
0.00670157
0.00670601
0.00699262
0.00712185
0.00728803
0.00750033
0.00775986
0.00808008
0.00844681
0.00887924
0.00935921
0.00990698
0.0106293
0.0114013
0.0120617
0.0124629
0.0126021
0.0125363
0.0123007
0.0119257
0.0114217
0.0107714
0.00989703
0.0088024
0.00760671
0.00634628
0.00509878
0.00389943
0.00280918
0.00190026
0.00120904
0.000720524
0.000386703
0.000177092
9.26708e-05
9.91234e-05
0.00699498
0.00689049
0.00681094
0.00675441
0.00671963
0.00670037
0.00668709
0.00667441
0.00667224
0.00666999
0.00667051
0.00667182
0.00667392
0.00667654
0.00667944
0.00668264
0.00668602
0.00668961
0.0066934
0.00669738
0.0067016
0.00670602
0.00712606
0.0072958
0.00751362
0.00778307
0.00811761
0.00850857
0.00897779
0.00950733
0.0101338
0.0110529
0.012103
0.0130523
0.0136952
0.0139404
0.0138663
0.0135811
0.0131393
0.0125822
0.0119258
0.0111537
0.0101823
0.00901668
0.00777013
0.00646989
0.00518871
0.00396567
0.00285391
0.00192655
0.00122152
0.000724336
0.000386699
0.000176453
9.27077e-05
9.93213e-05
0.00712993
0.00698853
0.00687901
0.00680318
0.00674897
0.00671673
0.00669927
0.00668413
0.00667481
0.00667137
0.00667023
0.00667038
0.00667203
0.00667401
0.00667671
0.00667957
0.00668277
0.00668613
0.00668971
0.00669347
0.00669744
0.00670163
0.00670603
0.00730286
0.00752578
0.00780441
0.00815241
0.0085669
0.00907042
0.00965024
0.0103731
0.0115297
0.0128846
0.0141304
0.0150386
0.0155039
0.0155107
0.0151847
0.0146616
0.0140026
0.0132546
0.0124378
0.0115371
0.0104639
0.00922519
0.00792745
0.00658856
0.00527435
0.00402859
0.00289645
0.00195162
0.00123344
0.000728016
0.000386715
0.00017593
9.27575e-05
9.95364e-05
0.00730925
0.00712121
0.00697209
0.00686751
0.00679558
0.00674371
0.00671403
0.00669831
0.00668124
0.00667515
0.00667062
0.00667041
0.00667031
0.0066722
0.00667413
0.00667687
0.0066797
0.0066829
0.00668623
0.0066898
0.00669354
0.00669749
0.00670166
0.00670604
0.00753687
0.00782391
0.0081846
0.00862142
0.00915695
0.00978999
0.0106272
0.0120425
0.0136877
0.015188
0.0163215
0.017011
0.0172353
0.0170044
0.0164479
0.0157093
0.0148504
0.0139212
0.012947
0.011917
0.0107402
0.00942738
0.00807857
0.00670215
0.00535578
0.00408826
0.00293685
0.00197547
0.00124481
0.00073108
0.000386764
0.000175374
9.28121e-05
9.97693e-05
0.0075469
0.00729796
0.00709801
0.00695561
0.00685628
0.00678807
0.0067387
0.00671149
0.00669739
0.00667861
0.00667529
0.00667006
0.0066705
0.00667033
0.00667234
0.00667426
0.00667701
0.00667983
0.00668302
0.00668634
0.00668988
0.00669361
0.00669754
0.00670167
0.00670604
0.0078417
0.00821426
0.00867192
0.00923783
0.00992808
0.0108919
0.0125644
0.0144542
0.016139
0.0174278
0.0182873
0.0187235
0.018733
0.0183158
0.0175825
0.0166741
0.01565
0.0145624
0.0134432
0.0122887
0.0110096
0.00962275
0.00822341
0.0068106
0.00543306
0.00414478
0.00297512
0.00199811
0.0012542
0.000733714
0.000386801
0.000174816
9.28842e-05
0.000100023
0.00785765
0.0075322
0.00726584
0.00707474
0.00693949
0.00684529
0.00678062
0.00673409
0.006709
0.00669641
0.00667656
0.00667513
0.00666972
0.00667049
0.00667041
0.00667245
0.00667441
0.00667715
0.00667997
0.00668313
0.00668644
0.00668997
0.00669367
0.00669756
0.00670167
0.00670604
0.00824149
0.0087184
0.00931374
0.0100646
0.0111593
0.0130696
0.0151445
0.0169397
0.0183105
0.0192715
0.0198607
0.0200909
0.0199457
0.0194055
0.0185552
0.0175283
0.0163801
0.0151639
0.0139177
0.0126479
0.0112702
0.00981083
0.00836192
0.0069139
0.0055063
0.00419801
0.0030113
0.00201674
0.0012622
0.00073662
0.000386905
0.000174183
9.29605e-05
0.000100298
0.0082659
0.00783923
0.00748808
0.00723358
0.00705198
0.00692374
0.0068345
0.00677318
0.00672971
0.00670649
0.00669499
0.00667532
0.00667464
0.0066696
0.00667041
0.00667054
0.00667254
0.00667457
0.00667727
0.0066801
0.00668324
0.00668654
0.00669005
0.00669371
0.00669756
0.00670167
0.00670604
0.00876103
0.0093853
0.0101985
0.0114205
0.0135395
0.01574
0.0175822
0.0189737
0.0199738
0.0206507
0.0210369
0.021126
0.0208846
0.0202766
0.0193617
0.0182631
0.0170307
0.0157165
0.0143644
0.0129911
0.0115208
0.00999121
0.00849408
0.00701208
0.00557609
0.00424814
0.00304094
0.00203256
0.00127099
0.000739859
0.00038698
0.000173584
9.30614e-05
0.000100598
0.00879898
0.00824272
0.00777944
0.00744381
0.00720196
0.00702973
0.00690833
0.00682394
0.00676586
0.00672548
0.00670394
0.0066928
0.00667477
0.00667389
0.00666965
0.00667029
0.00667069
0.00667263
0.00667473
0.0066774
0.00668024
0.00668335
0.00668664
0.00669009
0.00669371
0.00669756
0.00670167
0.00670604
0.0094529
0.0103278
0.0116681
0.0139639
0.0162384
0.0180795
0.0194466
0.0204374
0.0211459
0.0216229
0.0218756
0.0218786
0.0215866
0.0209525
0.0200137
0.0188819
0.0175996
0.0162161
0.0147793
0.013316
0.0117602
0.0101636
0.0086199
0.00710506
0.00564242
0.00428913
0.00306606
0.00204991
0.00128068
0.000743429
0.000387167
0.000172875
9.31662e-05
0.000100922
0.00951441
0.00877037
0.00816179
0.00771938
0.00740037
0.00717102
0.00700799
0.00689328
0.00681368
0.00675867
0.00672145
0.00670144
0.00668995
0.00667472
0.00667303
0.00666978
0.00667017
0.00667086
0.00667271
0.00667488
0.00667752
0.00668037
0.00668346
0.00668669
0.00669008
0.00669371
0.00669756
0.00670167
0.00670604
0.0104509
0.0119009
0.0143398
0.0166468
0.0184535
0.0197661
0.0207137
0.0214109
0.0219248
0.0222757
0.0224485
0.0224052
0.0220945
0.0214633
0.0205302
0.0193945
0.0180903
0.0166624
0.0151607
0.0136208
0.0119875
0.0103277
0.00873947
0.00719303
0.00569701
0.00432382
0.00309353
0.00206895
0.00129135
0.000747435
0.000387292
0.000172235
9.33068e-05
0.000101276
0.0105616
0.00947857
0.00866038
0.00808063
0.00766032
0.00735779
0.00714075
0.00698676
0.00687864
0.00680385
0.00675165
0.00671774
0.00669949
0.00668672
0.00667493
0.00667218
0.00666993
0.00667006
0.00667102
0.00667281
0.00667503
0.00667763
0.00668049
0.00668351
0.00668669
0.00669008
0.00669371
0.00669756
0.00670167
0.00670603
0.0121198
0.0146659
0.0169767
0.0187277
0.0199675
0.02085
0.0215056
0.022015
0.0224111
0.0226892
0.0228189
0.0227558
0.0224478
0.021839
0.0209322
0.0198139
0.0185093
0.0170575
0.0155084
0.0139049
0.0122024
0.0104835
0.00885288
0.0072652
0.00574342
0.0043617
0.00312358
0.00208987
0.00130314
0.000751841
0.000387602
0.000171445
9.34504e-05
0.000101657
0.0105208
0.0123149
0.00931859
0.00855173
0.00800063
0.0076024
0.00731609
0.00711117
0.00696607
0.00686447
0.00679449
0.006745
0.00671427
0.00669815
0.00668356
0.00667517
0.00667143
0.00667006
0.00667
0.00667116
0.0066729
0.00667518
0.00667775
0.00668056
0.0066835
0.00668669
0.00669008
0.00669371
0.00669756
0.00670166
0.00670602
0.0149435
0.0172405
0.0189236
0.020081
0.0208854
0.0214792
0.0219538
0.0223541
0.0226858
0.0229264
0.0230367
0.0229712
0.0226799
0.0221064
0.0212394
0.0201534
0.0188645
0.017405
0.0158234
0.0141683
0.0124047
0.0106311
0.00894609
0.00732642
0.00579431
0.00440313
0.00315649
0.00211288
0.00131615
0.000756809
0.000387793
0.000170771
9.36462e-05
0.000102073
0.0102755
0.012277
0.0151691
0.00916503
0.00844501
0.00792198
0.00754561
0.00727529
0.00708232
0.00694599
0.00685082
0.00678547
0.00673869
0.00671115
0.00669704
0.00668072
0.00667531
0.00667083
0.00667014
0.00666998
0.00667129
0.00667301
0.00667532
0.00667781
0.00668056
0.0066835
0.00668669
0.00669008
0.00669371
0.00669754
0.00670163
0.00670601
0.0174502
0.0190595
0.0201306
0.0208505
0.0213698
0.0217885
0.0221615
0.0225058
0.022808
0.0230334
0.0231396
0.0230833
0.0228183
0.0222881
0.0214696
0.0204258
0.0191639
0.0177093
0.0161076
0.0144114
0.0125944
0.0107521
0.00902521
0.00739342
0.00585015
0.00444847
0.00319257
0.00213819
0.00133059
0.000762278
0.000388284
0.000169892
9.38433e-05
0.000102519
0.0100349
0.0119258
0.0151033
0.0176066
0.00901876
0.00833974
0.0078448
0.00748998
0.00723545
0.00705426
0.00692655
0.00683765
0.00677674
0.00673288
0.00670839
0.00669602
0.00667839
0.00667524
0.00667042
0.00667016
0.00667
0.0066714
0.00667313
0.00667539
0.0066778
0.00668056
0.0066835
0.00668669
0.00669009
0.00669367
0.00669749
0.0067016
0.006706
0.0191501
0.0201349
0.020768
0.0212059
0.0215545
0.021877
0.0222013
0.0225247
0.0228191
0.0230435
0.0231556
0.0231168
0.0228847
0.022403
0.021638
0.0206424
0.0194153
0.0179749
0.0163633
0.014635
0.0127482
0.0108545
0.00911181
0.00746679
0.00591148
0.00449815
0.00323216
0.00216611
0.00134653
0.000768558
0.000388567
0.000169196
9.41174e-05
0.000103005
0.00980944
0.0115464
0.0147472
0.0175098
0.0191979
0.00887733
0.00823589
0.0077692
0.00743559
0.00719666
0.00702704
0.00690777
0.006825
0.00676849
0.00672779
0.00670582
0.0066949
0.00667686
0.00667493
0.00667017
0.00667013
0.00667006
0.00667151
0.00667318
0.00667539
0.0066778
0.00668056
0.0066835
0.00668669
0.00669005
0.00669361
0.00669744
0.00670157
0.00670598
0.0201079
0.0206552
0.0210085
0.0212782
0.0215334
0.021812
0.0221228
0.0224475
0.0227478
0.02298
0.0231053
0.0230905
0.0228963
0.0224661
0.0217572
0.0208132
0.0196259
0.0182064
0.0165926
0.0148127
0.0128775
0.0109662
0.00920664
0.00754722
0.0059789
0.00455267
0.00327564
0.00219689
0.00136432
0.00077535
0.000389319
0.000168224
9.43896e-05
0.000103521
0.0095984
0.0111732
0.0143057
0.0172822
0.0190481
0.0200496
0.00873905
0.0081337
0.00769532
0.00738254
0.00715901
0.00700072
0.00688978
0.00681317
0.00676083
0.00672337
0.00670336
0.00669315
0.00667602
0.00667442
0.00667007
0.00667006
0.00667015
0.00667154
0.00667318
0.00667539
0.0066778
0.00668056
0.00668351
0.00668664
0.00668997
0.00669354
0.00669738
0.00670154
0.00670597
0.020524
0.0207929
0.0209788
0.0211554
0.0213685
0.0216387
0.0219593
0.022299
0.0226133
0.0228594
0.0230042
0.0230189
0.0228665
0.0224896
0.0218376
0.0209466
0.0198019
0.0184079
0.0167704
0.0149603
0.0130173
0.0110881
0.00931053
0.00763547
0.00605307
0.00461256
0.00332347
0.00223092
0.00138398
0.000783284
0.000389728
0.000167525
9.47754e-05
0.000104085
0.00939868
0.010819
0.0138184
0.0169662
0.018893
0.019845
0.0203703
0.00860337
0.00803352
0.00762331
0.00733098
0.00712258
0.00697551
0.00687303
0.00680234
0.00675367
0.0067194
0.0067011
0.00669087
0.00667566
0.00667379
0.00667007
0.00666998
0.00667023
0.00667152
0.00667319
0.00667539
0.0066778
0.00668056
0.00668346
0.00668654
0.00668988
0.00669347
0.00669733
0.00670151
0.00670595
0.0205697
0.0206705
0.0207616
0.0208947
0.0211011
0.0213874
0.0217327
0.0220955
0.0224287
0.0226939
0.0228639
0.0229136
0.0228062
0.0224832
0.0218878
0.0210496
0.0199486
0.0185593
0.0169159
0.0151175
0.0131683
0.011221
0.00942437
0.00773236
0.00613475
0.00467846
0.00337615
0.00226853
0.00140604
0.000791788
0.000390857
0.000166459
9.5155e-05
0.000104676
0.00920784
0.010488
0.0133062
0.0165878
0.0186674
0.0197225
0.0201105
0.020329
0.00847039
0.00793566
0.00755338
0.00728106
0.00708772
0.00695208
0.00685775
0.00679248
0.00674703
0.00671597
0.00669928
0.00668825
0.0066756
0.00667309
0.00667014
0.00666986
0.00667027
0.0066715
0.00667318
0.00667539
0.0066778
0.0066805
0.00668335
0.00668644
0.0066898
0.0066934
0.00669727
0.00670148
0.00670594
0.0203632
0.0203657
0.0204089
0.0205338
0.0207594
0.0210786
0.0214573
0.0218473
0.0222029
0.0224923
0.0226939
0.0227834
0.0227236
0.0224546
0.0219145
0.021128
0.0200536
0.0186811
0.0170682
0.0152846
0.0133311
0.0113657
0.00954912
0.00783884
0.00622479
0.00475106
0.00343424
0.00231027
0.00143042
0.000801921
0.000391446
0.000165762
9.5699e-05
0.000105431
0.00902429
0.0101808
0.0127797
0.016159
0.0183979
0.0195428
0.0199898
0.0200135
0.0200409
0.00834046
0.00784049
0.00748573
0.00723326
0.00705534
0.00693074
0.00684386
0.00678364
0.006741
0.00671294
0.00669801
0.00668562
0.00667568
0.00667242
0.0066703
0.00666975
0.0066703
0.0066715
0.00667318
0.00667539
0.00667775
0.00668037
0.00668324
0.00668634
0.00668971
0.00669333
0.00669721
0.00670145
0.00670592
0.0199773
0.0199254
0.0199558
0.0200992
0.0203633
0.0207254
0.0211415
0.0215605
0.0219421
0.0222619
0.0225014
0.0226357
0.0226254
0.0224097
0.021923
0.0211773
0.020136
0.0188057
0.0172269
0.0154614
0.013506
0.0115231
0.0096858
0.00795594
0.00632414
0.0048312
0.00349845
0.00235648
0.00145802
0.000812637
0.000393117
0.000164558
9.63317e-05
0.000106331
0.00884721
0.00989782
0.0122484
0.0156803
0.0180967
0.0193348
0.0198206
0.0198752
0.0196686
0.0195803
0.00821385
0.00774844
0.00742099
0.00718889
0.00702589
0.00691134
0.00683127
0.00677568
0.00673554
0.00671022
0.00669694
0.00668317
0.00667582
0.00667187
0.00667047
0.00666969
0.0066703
0.00667152
0.00667318
0.00667532
0.00667763
0.00668024
0.00668313
0.00668623
0.00668961
0.00669327
0.00669714
0.00670143
0.0067059
0.0194543
0.0193825
0.019427
0.0196112
0.0199251
0.0203352
0.0207894
0.0212385
0.021651
0.0220086
0.0222931
0.0224763
0.0225168
0.0223533
0.0219166
0.0212138
0.0202172
0.0189322
0.0173912
0.0156478
0.0136935
0.0116941
0.00983548
0.00808477
0.00643385
0.00491978
0.00356946
0.00240803
0.00148843
0.000825707