/*--------------------------------*- C++ -*----------------------------------*\
  =========                 |
  \\      /  F ield         | OpenFOAM: The Open Source CFD Toolbox
   \\    /   O peration     | Website:  https://openfoam.org
    \\  /    A nd           | Version:  8
     \\/     M anipulation  |
\*---------------------------------------------------------------------------*/
FoamFile
{
    version     2.0;
    format      ascii;
    class       surfaceScalarField;
    location    "0.48";
    object      phi;
}
// * * * * * * * * * * * * * * * * * * * * * * * * * * * * * * * * * * * * * //

dimensions      [0 3 -1 0 0 0 0];

internalField   nonuniform List<scalar> 
31053
(
6.40461e-07
1.27395e-05
8.63769e-07
1.51567e-05
3.58168e-07
1.23814e-05
9.49709e-07
1.75541e-05
5.69202e-07
1.49457e-05
2.7632e-07
1.21051e-05
9.74717e-07
2.0215e-05
6.84872e-07
1.74384e-05
4.73451e-07
1.47485e-05
2.18077e-07
1.1887e-05
9.66456e-07
2.32483e-05
7.44628e-07
2.01552e-05
6.00836e-07
1.7311e-05
4.00027e-07
1.45666e-05
1.73879e-07
1.17131e-05
9.36887e-07
2.66896e-05
7.70839e-07
2.32221e-05
6.77617e-07
2.00785e-05
5.29292e-07
1.71817e-05
3.36439e-07
1.4404e-05
1.39735e-07
1.15734e-05
8.91775e-07
3.06651e-05
7.75316e-07
2.66851e-05
7.21571e-07
2.31781e-05
6.12493e-07
1.99953e-05
4.60869e-07
1.70573e-05
2.8262e-07
1.42611e-05
1.12857e-07
1.14605e-05
8.34125e-07
3.51977e-05
7.64567e-07
3.06759e-05
7.43677e-07
2.6663e-05
6.63213e-07
2.31274e-05
5.44498e-07
1.99116e-05
3.98223e-07
1.69417e-05
2.36005e-07
1.4138e-05
9.05897e-08
1.13699e-05
7.67749e-07
4.03864e-05
7.42883e-07
3.52193e-05
7.50502e-07
3.0669e-05
6.91571e-07
2.66346e-05
5.96446e-07
2.30754e-05
4.78443e-07
1.98314e-05
3.40075e-07
1.68376e-05
1.94323e-07
1.40343e-05
7.11474e-08
1.12988e-05
6.95593e-07
4.63522e-05
7.1146e-07
4.04178e-05
7.46076e-07
3.52238e-05
7.03617e-07
3.0657e-05
6.25772e-07
2.66053e-05
5.28209e-07
2.30257e-05
4.13821e-07
1.97577e-05
2.84927e-07
1.6747e-05
1.55855e-07
1.39495e-05
5.34086e-08
1.12454e-05
6.19346e-07
5.32162e-05
6.71555e-07
4.63921e-05
7.30727e-07
4.04331e-05
7.02273e-07
3.52251e-05
6.38432e-07
3.06443e-05
5.55196e-07
2.65783e-05
4.58614e-07
2.29809e-05
3.49715e-07
1.96929e-05
2.31511e-07
1.66714e-05
1.19362e-07
1.38836e-05
3.66046e-08
1.12088e-05
5.40784e-07
6.10586e-05
6.2519e-07
5.32626e-05
7.04493e-07
4.64183e-05
6.90475e-07
4.04449e-05
6.37827e-07
3.52257e-05
5.65221e-07
3.06343e-05
4.80579e-07
2.65563e-05
3.87176e-07
2.29434e-05
2.85163e-07
1.96392e-05
1.78815e-07
1.66119e-05
8.39237e-08
1.38363e-05
2.02285e-08
1.11885e-05
4.61477e-07
7.00613e-05
5.7406e-07
6.11097e-05
6.68641e-07
5.32985e-05
6.69517e-07
4.64393e-05
6.26294e-07
4.04565e-05
5.61809e-07
3.52291e-05
4.85151e-07
3.06297e-05
4.0179e-07
2.65417e-05
3.13055e-07
2.29155e-05
2.19282e-07
1.95988e-05
1.2608e-07
1.65698e-05
4.88616e-08
1.38076e-05
4.07467e-09
1.11844e-05
3.83316e-07
8.04102e-05
5.19768e-07
7.01156e-05
6.24629e-07
6.11537e-05
6.39372e-07
5.33286e-05
6.05136e-07
4.64604e-05
5.4702e-07
4.04713e-05
4.75778e-07
3.52385e-05
3.98419e-07
3.06331e-05
3.18055e-07
2.65367e-05
2.35401e-07
2.28994e-05
1.51454e-07
1.95734e-05
7.27086e-08
1.65459e-05
1.37804e-08
1.37979e-05
-1.20384e-08
1.11965e-05
3.2077e-07
7.62525e-05
4.63545e-07
8.04664e-05
5.74113e-07
7.01661e-05
6.00406e-07
6.11927e-05
5.74706e-07
5.3359e-05
5.21962e-07
4.64855e-05
4.54402e-07
4.04926e-05
3.80335e-07
3.52566e-05
3.04333e-07
3.06468e-05
2.28524e-07
2.65436e-05
1.53634e-07
2.28972e-05
8.11796e-08
1.95649e-05
1.83464e-08
1.65414e-05
-2.15183e-08
1.38074e-05
-2.82845e-08
1.12248e-05
2.68144e-07
7.62426e-05
4.15481e-07
7.63006e-05
5.18748e-07
8.05217e-05
5.53432e-07
7.02131e-05
5.35146e-07
6.12322e-05
4.8709e-07
5.33939e-05
4.21995e-07
4.65179e-05
3.49364e-07
4.05236e-05
2.74894e-07
3.5286e-05
2.02038e-07
3.06733e-05
1.32601e-07
2.65646e-05
6.72787e-08
2.29111e-05
8.24596e-09
1.9575e-05
-3.71206e-08
1.6557e-05
-5.71744e-08
1.38363e-05
-4.46808e-08
1.12695e-05
2.24231e-07
7.62339e-05
3.722e-07
7.62859e-05
4.69852e-07
7.63495e-05
4.99693e-07
8.05755e-05
4.86817e-07
7.02614e-05
4.42564e-07
6.12768e-05
3.78954e-07
5.3437e-05
3.06348e-07
4.65609e-05
2.31398e-07
4.05671e-05
1.586e-07
3.53295e-05
9.09094e-08
3.0715e-05
2.9823e-08
2.66021e-05
-2.37758e-08
2.29431e-05
-6.73018e-08
1.96052e-05
-9.36673e-08
1.65934e-05
-9.31194e-08
1.38847e-05
-6.10662e-08
1.13305e-05
1.88024e-07
7.62282e-05
3.33301e-07
7.62728e-05
4.24605e-07
7.63312e-05
4.50684e-07
7.63985e-05
4.30619e-07
8.06317e-05
3.88593e-07
7.03154e-05
3.25439e-07
6.13303e-05
2.51576e-07
5.34917e-05
1.74539e-07
4.66178e-05
9.96514e-08
4.06261e-05
3.07988e-08
3.53896e-05
-2.9508e-08
3.07743e-05
-7.98683e-08
2.66582e-05
-1.19331e-07
2.29952e-05
-1.45216e-07
1.96567e-05
-1.51012e-07
1.66513e-05
-1.29089e-07
1.39528e-05
-7.73135e-08
1.14078e-05
1.58437e-07
7.62196e-05
2.98331e-07
7.62632e-05
3.82922e-07
7.63145e-05
4.04362e-07
7.63775e-05
3.78784e-07
7.64503e-05
3.25879e-07
8.06944e-05
2.61642e-07
7.03792e-05
1.85169e-07
6.13967e-05
1.04471e-07
5.35618e-05
2.56886e-08
4.66917e-05
-4.65827e-08
4.07034e-05
-1.08968e-07
3.5469e-05
-1.59232e-07
3.08537e-05
-1.96144e-07
2.6735e-05
-2.18917e-07
2.30689e-05
-2.24925e-07
1.97306e-05
-2.08662e-07
1.67309e-05
-1.64737e-07
1.40402e-05
-9.3167e-08
1.1501e-05
1.34214e-07
7.62142e-05
2.6695e-07
7.6251e-05
3.44643e-07
7.63015e-05
3.61064e-07
7.63578e-05
3.29525e-07
7.64267e-05
2.67967e-07
7.65083e-05
1.88235e-07
8.07678e-05
1.07328e-07
7.0457e-05
2.12492e-08
6.14799e-05
-6.32981e-08
5.36508e-05
-1.40981e-07
4.67861e-05
-2.07758e-07
4.08022e-05
-2.60674e-07
3.55705e-05
-2.9779e-07
3.09553e-05
-3.18317e-07
2.68344e-05
-3.21662e-07
2.31656e-05
-3.05585e-07
1.98276e-05
-2.65978e-07
1.68322e-05
-1.99591e-07
1.41466e-05
-1.08445e-07
1.16094e-05
1.14284e-07
7.62099e-05
2.38978e-07
7.62422e-05
3.09671e-07
7.62859e-05
3.20932e-07
7.63416e-05
2.83471e-07
7.64038e-05
2.12974e-07
7.64817e-05
1.20804e-07
7.65757e-05
1.88077e-08
8.08563e-05
-7.49095e-08
7.05532e-05
-1.67339e-07
6.15839e-05
-2.5261e-07
5.37624e-05
-3.25923e-07
4.69043e-05
-3.83806e-07
4.09254e-05
-4.23679e-07
3.56964e-05
-4.44286e-07
3.10813e-05
-4.45217e-07
2.6958e-05
-4.26326e-07
2.32863e-05
-3.86188e-07
1.99478e-05
-3.22183e-07
1.69547e-05
-2.3316e-07
1.42713e-05
-1.22825e-07
1.17323e-05
9.91305e-08
6.95972e-05
2.14189e-07
7.62347e-05
2.78008e-07
7.62739e-05
2.84058e-07
7.63228e-05
2.40977e-07
7.63841e-05
1.61783e-07
7.6455e-05
5.70685e-08
7.65455e-05
-6.18887e-08
7.66564e-05
-1.83104e-07
8.09645e-05
-2.86203e-07
7.06721e-05
-3.81609e-07
6.17129e-05
-4.63928e-07
5.39004e-05
-5.29035e-07
4.70495e-05
-5.73907e-07
4.10756e-05
-5.96879e-07
3.58489e-05
-5.97241e-07
3.12333e-05
-5.752e-07
2.71068e-05
-5.31487e-07
2.34316e-05
-4.65552e-07
2.00912e-05
-3.76426e-07
1.7098e-05
-2.64843e-07
1.44133e-05
-1.36125e-07
1.18684e-05
8.75753e-08
6.25556e-05
1.94091e-07
6.96173e-05
2.49615e-07
7.62631e-05
2.50527e-07
7.63074e-05
2.02257e-07
7.63615e-05
1.14942e-07
7.64309e-05
-1.87667e-09
7.6514e-05
-1.37704e-07
7.66213e-05
-2.8101e-07
7.67543e-05
-4.18798e-07
8.10971e-05
-5.27741e-07
7.08182e-05
-6.22055e-07
6.18711e-05
-6.97128e-07
5.40685e-05
-7.49305e-07
4.72249e-05
-7.7674e-07
4.12555e-05
-7.78468e-07
3.60302e-05
-7.54588e-07
3.14127e-05
-7.06408e-07
2.72818e-05
-6.3548e-07
2.36016e-05
-5.42393e-07
2.02571e-05
-4.27748e-07
1.72609e-05
-2.94158e-07
1.45714e-05
-1.47894e-07
1.20163e-05
7.86085e-08
5.6227e-05
1.7793e-07
6.25717e-05
2.2643e-07
6.96404e-05
2.20398e-07
7.62932e-05
1.67455e-07
7.63422e-05
7.28013e-08
7.64037e-05
-5.52861e-08
7.64843e-05
-2.07348e-07
7.65836e-05
-3.72464e-07
7.67127e-05
-5.38046e-07
7.68735e-05
-6.89697e-07
8.12591e-05
-8.0008e-07
7.09962e-05
-8.88554e-07
6.20625e-05
-9.51007e-07
5.42702e-05
-9.8519e-07
4.74334e-05
-9.90144e-07
4.14671e-05
-9.65923e-07
3.62415e-05
-9.14009e-07
3.16203e-05
-8.36655e-07
2.74829e-05
-7.36537e-07
2.37957e-05
-6.15313e-07
2.04447e-05
-4.75314e-07
1.74421e-05
-3.20182e-07
1.47437e-05
-1.57372e-07
1.21737e-05
7.15431e-08
5.05391e-05
1.6482e-07
5.62401e-05
2.07739e-07
6.25904e-05
1.95843e-07
6.9665e-05
1.36684e-07
7.6324e-05
3.55908e-08
7.63794e-05
-1.02652e-07
7.6451e-05
-2.69875e-07
7.65469e-05
-4.55978e-07
7.66671e-05
-6.48902e-07
7.68236e-05
-8.34668e-07
7.70185e-05
-9.9646e-07
8.14555e-05
-1.10314e-06
7.12108e-05
-1.17973e-06
6.22912e-05
-1.2238e-06
5.45088e-05
-1.23415e-06
4.76774e-05
-1.2111e-06
4.17123e-05
-1.15643e-06
3.64839e-05
-1.07277e-06
3.18564e-05
-9.63659e-07
2.77101e-05
-8.32749e-07
2.40132e-05
-6.83062e-07
2.06524e-05
-5.17753e-07
1.76396e-05
-3.4226e-07
1.49286e-05
-1.64584e-07
1.23382e-05
6.59006e-08
4.54256e-05
1.54104e-07
5.05498e-05
1.92602e-07
5.62552e-05
1.76191e-07
6.26101e-05
1.12185e-07
6.96895e-05
3.47434e-09
7.63561e-05
-1.43632e-07
7.64204e-05
-3.24605e-07
7.65058e-05
-5.30397e-07
7.66213e-05
-7.49659e-07
7.67679e-05
-9.68953e-07
7.69579e-05
-1.17168e-06
7.71937e-05
-1.33911e-06
8.16914e-05
-1.43537e-06
7.14664e-05
-1.49358e-06
6.2561e-05
-1.51255e-06
5.47872e-05
-1.49263e-06
4.79589e-05
-1.43629e-06
4.19922e-05
-1.3467e-06
3.67579e-05
-1.22805e-06
3.21208e-05
-1.08495e-06
2.79622e-05
-9.22384e-07
2.42525e-05
-7.43823e-07
2.08785e-05
-5.54294e-07
1.78517e-05
-3.57001e-07
1.5121e-05
-1.30828e-07
1.24691e-05
6.13399e-08
4.08306e-05
1.45284e-07
4.54345e-05
1.80263e-07
5.05621e-05
1.60492e-07
5.62709e-05
9.3076e-08
6.26292e-05
-2.13016e-08
6.97143e-05
-1.77988e-07
7.63905e-05
-3.71058e-07
7.64668e-05
-5.94846e-07
7.65702e-05
-8.38935e-07
7.67106e-05
-1.0906e-06
7.68895e-05
-1.3336e-06
7.71198e-05
-1.54924e-06
7.74039e-05
-1.71599e-06
8.1972e-05
-1.7946e-06
7.17675e-05
-1.82676e-06
6.28752e-05
-1.81317e-06
5.51078e-05
-1.75677e-06
4.82794e-05
-1.66177e-06
4.23072e-05
-1.53326e-06
3.70631e-05
-1.37672e-06
3.24126e-05
-1.19824e-06
2.82381e-05
-1.00318e-06
2.45118e-05
-7.9641e-07
2.11206e-05
-5.80035e-07
1.80747e-05
-3.48809e-07
1.5339e-05
-8.05799e-08
1.25497e-05
5.76142e-08
3.66997e-05
1.37978e-07
4.08379e-05
1.70141e-07
4.54446e-05
1.47926e-07
5.05747e-05
7.82098e-08
5.62858e-05
-3.98336e-08
6.26477e-05
-2.0344e-07
6.97397e-05
-4.08899e-07
7.64283e-05
-6.48684e-07
7.65207e-05
-9.15636e-07
7.66469e-05
-1.19796e-06
7.68179e-05
-1.47998e-06
7.70359e-05
-1.7432e-06
7.73138e-05
-1.96567e-06
7.76535e-05
-2.12478e-06
8.23022e-05
-2.17709e-06
7.21178e-05
-2.1746e-06
6.32366e-05
-2.12119e-06
5.54722e-05
-2.0219e-06
4.86395e-05
-1.88339e-06
4.26574e-05
-1.71233e-06
3.73987e-05
-1.51596e-06
3.27303e-05
-1.30082e-06
2.85357e-05
-1.07343e-06
2.47888e-05
-8.36079e-07
2.13767e-05
-5.88067e-07
1.8314e-05
-3.21759e-07
1.55801e-05
-5.94521e-08
1.26091e-05
5.45408e-08
3.29891e-05
1.31888e-07
3.67058e-05
1.6179e-07
4.08462e-05
1.37839e-07
4.54547e-05
6.67116e-08
5.05862e-05
-5.34753e-08
5.62994e-05
-2.21434e-07
6.26657e-05
-4.35743e-07
6.97666e-05
-6.91452e-07
7.64711e-05
-9.78932e-07
7.6584e-05
-1.2897e-06
7.67387e-05
-1.60889e-06
7.69468e-05
-1.91841e-06
7.72111e-05
-2.1961e-06
7.75442e-05
-2.41861e-06
7.79474e-05
-2.56142e-06
8.26865e-05
-2.57758e-06
7.25208e-05
-2.53195e-06
6.36474e-05
-2.43112e-06
5.58814e-05
-2.28313e-06
4.90392e-05
-2.09665e-06
4.30417e-05
-1.8805e-06
3.77632e-05
-1.6426e-06
3.30721e-05
-1.39051e-06
2.88528e-05
-1.12895e-06
2.50817e-05
-8.58188e-07
2.16468e-05
-5.83168e-07
1.85754e-05
-2.97455e-07
1.58181e-05
-5.34488e-08
1.26626e-05
5.19837e-08
2.96506e-05
1.26783e-07
3.29942e-05
1.54863e-07
3.67127e-05
1.29718e-07
4.08543e-05
5.78808e-08
4.54635e-05
-6.33031e-08
5.0596e-05
-2.33648e-07
5.63116e-05
-4.53502e-07
6.26835e-05
-7.20568e-07
6.97957e-05
-1.02821e-06
7.65204e-05
-1.36476e-06
7.6659e-05
-1.71869e-06
7.68485e-05
-2.0726e-06
7.7101e-05
-2.40435e-06
7.74194e-05
-2.69001e-06
7.78156e-05
-2.90382e-06
7.82898e-05
-3.02003e-06
8.3129e-05
-2.99021e-06
7.2979e-05
-2.89253e-06
6.41088e-05
-2.73734e-06
5.63356e-05
-2.53523e-06
4.94778e-05
-2.29755e-06
4.34587e-05
-2.03413e-06
3.81548e-05
-1.75398e-06
3.34356e-05
-1.46363e-06
2.91875e-05
-1.16611e-06
2.53896e-05
-8.68036e-07
2.19317e-05
-5.74589e-07
1.88525e-05
-2.83967e-07
1.60487e-05
-5.72419e-08
1.27198e-05
4.98393e-08
2.66501e-05
1.22479e-07
2.96549e-05
1.49088e-07
3.3e-05
1.23162e-07
3.67193e-05
5.11459e-08
4.08611e-05
-7.01805e-08
4.54704e-05
-2.41436e-07
5.06038e-05
-4.64296e-07
5.63224e-05
-7.3852e-07
6.27014e-05
-1.06059e-06
6.98281e-05
-1.42234e-06
7.65779e-05
-1.80807e-06
7.67484e-05
-2.2038e-06
7.69797e-05
-2.58773e-06
7.72844e-05
-2.93564e-06
7.7665e-05
-3.22063e-06
7.81324e-05
-3.41489e-06
7.86846e-05
-3.49412e-06
8.36329e-05
-3.40789e-06
7.34944e-05
-3.24991e-06
6.46214e-05
-3.0338e-06
5.68342e-05
-2.7735e-06
4.99538e-05
-2.48187e-06
4.39065e-05
-2.17009e-06
3.85709e-05
-1.8468e-06
3.38187e-05
-1.51732e-06
2.95387e-05
-1.18952e-06
2.57111e-05
-8.72836e-07
2.22299e-05
-5.67885e-07
1.91364e-05
-2.79777e-07
1.62712e-05
-7.92616e-08
1.27991e-05
4.80281e-08
2.39558e-05
1.18833e-07
2.66538e-05
1.44251e-07
2.96597e-05
1.17857e-07
3.30053e-05
4.60502e-08
3.67244e-05
-7.47979e-08
4.08657e-05
-2.45877e-07
4.54748e-05
-4.69833e-07
5.06093e-05
-7.47981e-07
5.63319e-05
-1.07924e-06
6.27201e-05
-1.45915e-06
6.98649e-05
-1.87599e-06
7.66459e-05
-2.31038e-06
7.6855e-05
-2.74389e-06
7.71358e-05
-3.15238e-06
7.75011e-05
-3.50799e-06
7.79524e-05
-3.78116e-06
7.84987e-05
-3.94494e-06
7.91354e-05
-3.97585e-06
8.42009e-05
-3.8234e-06
7.40679e-05
-3.59712e-06
6.51847e-05
-3.31502e-06
5.73757e-05
-2.99309e-06
5.0465e-05
-2.64602e-06
4.43824e-05
-2.28527e-06
3.90093e-05
-1.91873e-06
3.42201e-05
-1.55516e-06
2.99044e-05
-1.20547e-06
2.60438e-05
-8.75926e-07
2.25379e-05
-5.64226e-07
1.94209e-05
-3.4562e-07
1.65375e-05
-8.78345e-08
1.28869e-05
4.64886e-08
2.15335e-05
1.15728e-07
2.39589e-05
1.4018e-07
2.66579e-05
1.13554e-07
2.9664e-05
4.22306e-08
3.30091e-05
-7.77015e-08
3.67273e-05
-2.47825e-07
4.08676e-05
-4.7147e-07
4.54765e-05
-7.511e-07
5.06125e-05
-1.0875e-06
5.63402e-05
-1.47914e-06
6.274e-05
-1.91861e-06
6.99075e-05
-2.39103e-06
7.67265e-05
-2.87085e-06
7.69819e-05
-3.33742e-06
7.73209e-05
-3.76233e-06
7.77555e-05
-4.11446e-06
7.82857e-05
-4.36443e-06
7.89182e-05
-4.48552e-06
7.96451e-05
-4.45707e-06
8.48345e-05
-4.22868e-06
7.46995e-05
-3.92781e-06
6.57975e-05
-3.57538e-06
5.7958e-05
-3.18986e-06
5.10088e-05
-2.78688e-06
4.4884e-05
-2.37762e-06
3.94682e-05
-1.97234e-06
3.46373e-05
-1.58233e-06
3.02812e-05
-1.21669e-06
2.63845e-05
-8.77622e-07
2.28513e-05
-6.939e-07
1.97692e-05
-3.45138e-07
1.67948e-05
-9.69812e-08
1.29839e-05
4.51727e-08
1.93533e-05
1.13071e-07
2.15362e-05
1.36739e-07
2.39624e-05
1.10055e-07
2.66614e-05
3.9401e-08
2.96668e-05
-7.93202e-08
3.30107e-05
-2.47947e-07
3.67274e-05
-4.70272e-07
4.08664e-05
-7.49578e-07
4.54749e-05
-1.08806e-06
5.0613e-05
-1.48642e-06
5.63474e-05
-1.94076e-06
6.27622e-05
-2.44114e-06
6.99576e-05
-2.96693e-06
7.68226e-05
-3.48833e-06
7.71329e-05
-3.98034e-06
7.75389e-05
-4.41067e-06
7.80517e-05
-4.74773e-06
7.8669e-05
-4.96157e-06
7.93942e-05
-5.02774e-06
8.02158e-05
-4.92865e-06
8.55345e-05
-4.61647e-06
7.53881e-05
-4.23553e-06
6.64576e-05
-3.81017e-06
5.85783e-05
-3.36051e-06
5.15825e-05
-2.90245e-06
4.54089e-05
-2.4488e-06
3.99447e-05
-2.01171e-06
3.50667e-05
-1.60116e-06
3.06657e-05
-1.22331e-06
2.67302e-05
-1.08319e-06
2.32406e-05
-6.85301e-07
2.01093e-05
-3.44961e-07
1.70428e-05
-1.0406e-07
1.30879e-05
1.73971e-05
4.40424e-08
1.1079e-07
1.93556e-05
1.33817e-07
2.15391e-05
1.07201e-07
2.39652e-05
3.7336e-08
2.66634e-05
-7.99877e-08
2.96675e-05
-2.4676e-07
3.30095e-05
-4.67064e-07
3.67242e-05
-7.44749e-07
4.08616e-05
-1.08303e-06
4.54699e-05
-1.48433e-06
5.06109e-05
-1.94746e-06
5.63541e-05
-2.46653e-06
6.27876e-05
-3.02657e-06
7.00172e-05
-3.60303e-06
7.69373e-05
-4.15908e-06
7.73116e-05
-4.6659e-06
7.77941e-05
-5.09008e-06
7.8394e-05
-5.39856e-06
7.9106e-05
-5.56303e-06
7.99295e-05
-5.56154e-06
8.08487e-05
-5.38231e-06
8.63003e-05
-4.97933e-06
7.61319e-05
-4.5148e-06
6.71623e-05
-4.01566e-06
5.92334e-05
-3.50285e-06
5.21829e-05
-2.99353e-06
4.59536e-05
-2.50183e-06
4.04348e-05
-2.0388e-06
3.55043e-05
-1.61198e-06
3.10544e-05
-1.51299e-06
2.716e-05
-1.06968e-06
2.3625e-05
-6.74419e-07
2.04388e-05
-3.42705e-07
1.72815e-05
-1.0871e-07
1.31966e-05
1.73991e-05
1.08819e-07
2.7812e-05
4.20213e-08
1.31326e-07
1.93581e-05
1.04867e-07
2.15415e-05
3.58589e-08
2.39667e-05
-7.99628e-08
2.66634e-05
-2.44663e-07
2.96654e-05
-4.62484e-07
3.30049e-05
-7.37644e-07
3.67171e-05
-1.07407e-06
4.08527e-05
-1.47548e-06
4.54611e-05
-1.94276e-06
5.06062e-05
-2.47325e-06
5.63609e-05
-3.05662e-06
6.28176e-05
-3.67467e-06
7.00889e-05
-4.29597e-06
7.70742e-05
-4.87665e-06
7.75223e-05
-5.38699e-06
7.8091e-05
-5.79115e-06
7.87866e-05
-6.05699e-06
7.95999e-05
-6.15801e-06
8.0526e-05
-6.07778e-06
8.15441e-05
-5.8095e-06
8.71305e-05
-5.31091e-06
7.6928e-05
-4.76132e-06
6.79079e-05
-4.18925e-06
5.99198e-05
-3.61685e-06
5.28062e-05
-3.0622e-06
4.6514e-05
-2.5383e-06
4.09343e-05
-2.05406e-06
3.59464e-05
-1.99508e-06
3.15365e-05
-1.49545e-06
2.75858e-05
-1.04962e-06
2.40002e-05
-6.59879e-07
2.0756e-05
-3.37664e-07
1.75104e-05
-1.10973e-07
1.33076e-05
1.74012e-05
1.29195e-07
2.78157e-05
1.05107e-07
2.85519e-05
4.0085e-08
1.02954e-07
1.936e-05
3.48318e-08
2.15425e-05
-7.94441e-08
2.39662e-05
-2.4196e-07
2.66607e-05
-4.57016e-07
2.96599e-05
-7.29052e-07
3.29963e-05
-1.06248e-06
3.67055e-05
-1.46194e-06
4.08391e-05
-1.9299e-06
4.54482e-05
-2.4662e-06
5.05992e-05
-3.06428e-06
5.63685e-05
-3.71121e-06
6.28542e-05
-4.38253e-06
7.01754e-05
-5.03973e-06
7.72373e-05
-5.63425e-06
7.77696e-05
-6.13415e-06
7.8434e-05
-6.50365e-06
7.92333e-05
-6.71159e-06
8.01535e-05
-6.73658e-06
8.11848e-05
-6.5669e-06
8.23015e-05
-6.20283e-06
8.80224e-05
-5.60608e-06
7.77728e-05
-4.97182e-06
6.86905e-05
-4.33011e-06
6.06331e-05
-3.70376e-06
5.34477e-05
-3.10965e-06
4.70853e-05
-2.55878e-06
4.1439e-05
-2.54297e-06
3.64943e-05
-1.97255e-06
3.20136e-05
-1.46686e-06
2.8003e-05
-1.023e-06
2.43633e-05
-6.41377e-07
2.10597e-05
-3.29834e-07
1.77293e-05
-1.1116e-07
1.34188e-05
1.74028e-05
1.01378e-07
2.78194e-05
1.25527e-07
2.85555e-05
1.01513e-07
2.93118e-05
3.82371e-08
3.41474e-08
1.93607e-05
-7.85838e-08
2.15416e-05
-2.3888e-07
2.39631e-05
-4.51027e-07
2.66547e-05
-7.19572e-07
2.96505e-05
-1.04924e-06
3.29831e-05
-1.4453e-06
3.66889e-05
-1.91138e-06
4.08206e-05
-2.44927e-06
4.54313e-05
-3.05537e-06
5.05903e-05
-3.72109e-06
5.63784e-05
-4.42786e-06
6.28995e-05
-5.14465e-06
7.02803e-05
-5.82802e-06
7.7431e-05
-6.42262e-06
7.80581e-05
-6.89708e-06
7.88274e-05
-7.21569e-06
7.97374e-05
-7.35177e-06
8.07687e-05
-7.28823e-06
8.19061e-05
-7.02048e-06
8.31192e-05
-6.55613e-06
8.89725e-05
-5.86072e-06
7.86617e-05
-5.14466e-06
6.9505e-05
-4.43872e-06
6.13681e-05
-3.76437e-06
5.41025e-05
-3.13656e-06
4.76631e-05
-3.16876e-06
4.20648e-05
-2.51444e-06
3.70362e-05
-1.93447e-06
3.24812e-05
-1.42827e-06
2.84083e-05
-9.9035e-07
2.47123e-05
-6.1928e-07
2.13491e-05
-3.19549e-07
1.79377e-05
-1.09665e-07
1.35284e-05
1.74032e-05
3.37225e-08
2.78213e-05
9.94343e-08
2.8559e-05
1.22039e-07
2.93153e-05
9.80358e-08
3.00898e-05
3.64775e-08
-7.74973e-08
1.93596e-05
-2.35595e-07
2.15383e-05
-4.44788e-07
2.39569e-05
-7.09652e-07
2.66448e-05
-1.03508e-06
2.96363e-05
-1.42675e-06
3.29646e-05
-1.88917e-06
3.66667e-05
-2.42553e-06
4.07969e-05
-3.03458e-06
4.54105e-05
-3.71119e-06
5.05804e-05
-4.4417e-06
5.63922e-05
-5.20157e-06
6.29564e-05
-5.95525e-06
7.04076e-05
-6.65192e-06
7.76604e-05
-7.23155e-06
7.83925e-05
-7.66364e-06
7.92754e-05
-7.91618e-06
8.03018e-05
-7.96617e-06
8.14466e-05
-7.80354e-06
8.26892e-05
-7.43131e-06
8.39944e-05
-6.86421e-06
8.9976e-05
-6.07231e-06
7.95893e-05
-5.27959e-06
7.03459e-05
-4.51547e-06
6.21191e-05
-3.79943e-06
5.47653e-05
-3.88584e-06
4.83802e-05
-3.13369e-06
4.26841e-05
-2.46552e-06
3.75672e-05
-1.88281e-06
3.29357e-05
-1.38105e-06
2.8799e-05
-9.52707e-07
2.50457e-05
-5.94229e-07
2.16238e-05
-3.07309e-07
1.81353e-05
-1.06873e-07
1.36353e-05
1.7402e-05
-7.62721e-08
2.78199e-05
3.51462e-08
2.85607e-05
9.77178e-08
2.93186e-05
1.18718e-07
3.00931e-05
9.46732e-08
3.08897e-05
3.48057e-08
-2.3223e-07
1.93562e-05
-4.38498e-07
2.1532e-05
-6.99619e-07
2.39468e-05
-1.02055e-06
2.66303e-05
-1.40723e-06
2.96168e-05
-1.86474e-06
3.29401e-05
-2.39733e-06
3.66385e-05
-3.00555e-06
4.07678e-05
-3.68701e-06
4.53863e-05
-4.43207e-06
5.05707e-05
-5.22163e-06
5.64123e-05
-6.02716e-06
6.30283e-05
-6.80595e-06
7.05616e-05
-7.50155e-06
7.79304e-05
-8.04887e-06
7.87778e-05
-8.42241e-06
7.97816e-05
-8.59302e-06
8.09286e-05
-8.54443e-06
8.21875e-05
-8.27428e-06
8.35321e-05
-7.79316e-06
8.49233e-05
-7.12351e-06
9.10272e-05
-6.23979e-06
8.05495e-05
-5.37656e-06
7.1207e-05
-4.56109e-06
6.28808e-05
-4.7097e-06
5.55892e-05
-3.84405e-06
4.90905e-05
-3.07276e-06
4.32913e-05
-2.39911e-06
3.80835e-05
-1.81973e-06
3.33744e-05
-1.32697e-06
2.91732e-05
-9.11242e-07
2.53627e-05
-5.67001e-07
2.18835e-05
-2.93628e-07
1.83221e-05
-1.03119e-07
1.37384e-05
1.73987e-05
-2.28879e-07
2.78136e-05
-6.99401e-08
2.8559e-05
3.69016e-08
2.93201e-05
9.62457e-08
3.00963e-05
1.15579e-07
3.08929e-05
9.14341e-08
3.17096e-05
3.3218e-08
-4.32303e-07
1.935e-05
-6.89713e-07
2.15221e-05
-1.00606e-06
2.39323e-05
-1.38741e-06
2.66104e-05
-1.83921e-06
2.95912e-05
-2.3665e-06
3.29093e-05
-2.97115e-06
3.66041e-05
-3.65292e-06
4.07337e-05
-4.40539e-06
4.53596e-05
-5.21403e-06
5.05631e-05
-6.05627e-06
5.64414e-05
-6.89679e-06
6.31192e-05
-7.6873e-06
7.07474e-05
-8.36491e-06
7.82464e-05
-8.86302e-06
7.92184e-05
-9.16073e-06
8.03493e-05
-9.23508e-06
8.16193e-05
-9.07738e-06
8.29906e-05
-8.69317e-06
8.44322e-05
-8.10148e-06
8.59013e-05
-7.3321e-06
9.21195e-05
-6.36259e-06
8.15356e-05
-5.43619e-06
7.20821e-05
-5.65816e-06
6.38293e-05
-4.66146e-06
5.64066e-05
-3.77013e-06
4.97879e-05
-2.98988e-06
4.38821e-05
-2.31823e-06
3.8582e-05
-1.74772e-06
3.37951e-05
-1.26785e-06
2.95299e-05
-8.67151e-07
2.56629e-05
-5.38339e-07
2.21282e-05
-2.78988e-07
1.84979e-05
-9.87013e-08
1.38371e-05
1.73927e-05
-4.26303e-07
2.78007e-05
-2.1596e-07
2.85522e-05
-6.31574e-08
2.9318e-05
3.89964e-08
3.00975e-05
9.50105e-08
3.08959e-05
1.12614e-07
3.17127e-05
8.83235e-08
3.25535e-05
3.17205e-08
-6.80102e-07
1.93404e-05
-9.9189e-07
2.1508e-05
-1.36777e-06
2.39127e-05
-1.81342e-06
2.65847e-05
-2.33439e-06
2.95591e-05
-2.93355e-06
3.28717e-05
-3.6123e-06
3.65634e-05
-4.36678e-06
4.06951e-05
-5.18619e-06
4.53318e-05
-6.05302e-06
5.05599e-05
-6.93839e-06
5.6483e-05
-7.8016e-06
6.32335e-05
-8.58767e-06
7.09701e-05
-9.23051e-06
7.86139e-05
-9.66097e-06
7.97186e-05
-9.86677e-06
8.0981e-05
-9.83223e-06
8.23741e-05
-9.55668e-06
8.38541e-05
-9.05468e-06
8.53854e-05
-8.35353e-06
8.69227e-05
-7.48877e-06
9.32457e-05
-6.44112e-06
8.25405e-05
-6.75046e-06
7.31744e-05
-5.60438e-06
6.47722e-05
-4.57383e-06
5.72103e-05
-3.6691e-06
5.04671e-05
-2.88903e-06
4.44529e-05
-2.22613e-06
3.90605e-05
-1.66923e-06
3.41965e-05
-1.20537e-06
2.98681e-05
-8.21496e-07
2.59461e-05
-5.08919e-07
2.23581e-05
-2.63832e-07
1.86631e-05
-9.38493e-08
1.3931e-05
1.73835e-05
-6.70898e-07
2.77793e-05
-4.04894e-07
2.85387e-05
-2.02424e-07
2.93108e-05
-5.59039e-08
3.00951e-05
4.14272e-08
3.08969e-05
9.40096e-08
3.17155e-05
1.0982e-07
3.25565e-05
8.53278e-08
3.34194e-05
3.03051e-08
-9.78244e-07
1.93268e-05
-1.34867e-06
2.14889e-05
-1.78797e-06
2.38872e-05
-2.30201e-06
2.65523e-05
-2.8944e-06
2.952e-05
-3.56776e-06
3.28272e-05
-4.32026e-06
3.65169e-05
-5.14407e-06
4.0653e-05
-6.02589e-06
4.53046e-05
-6.94241e-06
5.05639e-05
-7.85971e-06
5.65411e-05
-8.7304e-06
6.33762e-05
-9.49586e-06
7.12355e-05
-1.00852e-05
7.90381e-05
-1.04304e-05
8.02822e-05
-1.05296e-05
8.16784e-05
-1.03751e-05
8.31926e-05
-9.97571e-06
8.47752e-05
-9.35515e-06
8.6387e-05
-8.54747e-06
8.79814e-05
-7.59359e-06
9.43981e-05
-8.00893e-06
8.3799e-05
-6.6931e-06
7.42631e-05
-5.50267e-06
6.5701e-05
-4.45296e-06
5.79942e-05
-3.54593e-06
5.1124e-05
-2.7743e-06
4.50011e-05
-2.12593e-06
3.95172e-05
-1.5865e-06
3.45777e-05
-1.14102e-06
3.01876e-05
-7.75217e-07
2.62124e-05
-4.79345e-07
2.25736e-05
-2.48487e-07
1.88177e-05
-8.87629e-08
1.40197e-05
1.73705e-05
-9.65252e-07
2.77472e-05
-6.38811e-07
2.85165e-05
-3.82695e-07
2.92966e-05
-1.88293e-07
3.00874e-05
-4.82143e-08
3.08941e-05
4.41845e-08
3.17163e-05
9.32364e-08
3.25591e-05
1.07185e-07
3.34223e-05
8.24572e-08
3.43053e-05
2.89711e-08
-1.33035e-06
1.93085e-05
-1.76327e-06
2.14642e-05
-2.2701e-06
2.38553e-05
-2.85493e-06
2.65128e-05
-3.52129e-06
2.94735e-05
-4.2689e-06
3.27758e-05
-5.09233e-06
3.64652e-05
-5.98172e-06
4.06088e-05
-6.91845e-06
4.52807e-05
-7.87454e-06
5.05787e-05
-8.80962e-06
5.66204e-05
-9.67244e-06
6.35528e-05
-1.03988e-05
7.1549e-05
-1.09163e-05
7.9524e-05
-1.11596e-05
8.09123e-05
-1.11389e-05
8.24422e-05
-1.08561e-05
8.40729e-05
-1.03299e-05
8.57499e-05
-9.59191e-06
8.74314e-05
-8.6828e-06
8.90706e-05
-9.459e-06
9.58482e-05
-7.95193e-06
8.50578e-05
-6.57774e-06
7.53382e-05
-5.36043e-06
6.66085e-05
-4.30499e-06
5.87532e-05
-3.40572e-06
5.17554e-05
-2.64958e-06
4.55247e-05
-2.0205e-06
3.99512e-05
-1.5015e-06
3.49381e-05
-1.07609e-06
3.04885e-05
-7.29143e-07
2.64622e-05
-4.50048e-07
2.27752e-05
-2.33254e-07
1.89622e-05
-8.3591e-08
1.41033e-05
1.73531e-05
-1.31296e-06
2.77022e-05
-9.2023e-07
2.84834e-05
-6.05729e-07
2.92736e-05
-3.59668e-07
3.00726e-05
-1.73549e-07
3.0886e-05
-4.00863e-08
3.17132e-05
4.72619e-08
3.25597e-05
9.27092e-08
3.34248e-05
1.04713e-07
3.43081e-05
7.97005e-08
3.52193e-05
2.77207e-08
-1.73963e-06
1.92848e-05
-2.23918e-06
2.14332e-05
-2.81603e-06
2.38164e-05
-3.47436e-06
2.64659e-05
-4.21506e-06
2.94197e-05
-5.0346e-06
3.27181e-05
-5.92592e-06
3.64094e-05
-6.87427e-06
4.05647e-05
-7.85681e-06
4.5263e-05
-8.83943e-06
5.06085e-05
-9.77788e-06
5.67258e-05
-1.06149e-05
6.37689e-05
-1.12837e-05
7.19164e-05
-1.17117e-05
8.00761e-05
-1.18376e-05
8.16109e-05
-1.1686e-05
8.32721e-05
-1.12695e-05
8.50126e-05
-1.06157e-05
8.67737e-05
-9.76385e-06
8.85125e-05
-1.08375e-05
9.04491e-05
-9.40995e-06
9.73062e-05
-7.82516e-06
8.63052e-05
-6.4132e-06
7.6391e-05
-5.18511e-06
6.74886e-05
-4.13614e-06
5.94837e-05
-3.25323e-06
5.23591e-05
-2.51841e-06
4.60226e-05
-1.91227e-06
4.03619e-05
-1.41587e-06
3.52779e-05
-1.01166e-06
3.0771e-05
-6.83835e-07
2.66959e-05
-4.21428e-07
2.29634e-05
-2.18352e-07
1.9097e-05
-7.84407e-08
1.41818e-05
1.73307e-05
-1.71722e-06
2.76414e-05
-1.25219e-06
2.84371e-05
-8.73971e-07
2.92396e-05
-5.71688e-07
3.00488e-05
-3.35878e-07
3.08707e-05
-1.5824e-07
3.17046e-05
-3.1545e-08
3.25563e-05
5.06394e-08
3.34251e-05
9.24117e-08
3.43104e-05
1.02386e-07
3.52219e-05
7.70438e-08
3.61552e-05
2.65503e-08
-2.20958e-06
1.92552e-05
-2.77831e-06
2.13955e-05
-3.42802e-06
2.37701e-05
-4.1605e-06
2.64113e-05
-4.97367e-06
2.93587e-05
-5.86269e-06
3.26548e-05
-6.81605e-06
3.63512e-05
-7.81523e-06
4.05231e-05
-8.8316e-06
4.52551e-05
-9.82736e-06
5.0658e-05
-1.0752e-05
5.6863e-05
-1.15451e-05
6.40303e-05
-1.21381e-05
7.23428e-05
-1.24595e-05
8.06981e-05
-1.24545e-05
8.23794e-05
-1.21643e-05
8.41669e-05
-1.16109e-05
8.60078e-05
-1.08311e-05
8.78409e-05
-1.22149e-05
8.98899e-05
-1.08047e-05
9.18438e-05
-9.27703e-06
9.87581e-05
-7.63897e-06
8.7531e-05
-6.20842e-06
7.74143e-05
-4.98424e-06
6.83367e-05
-3.95216e-06
6.01826e-05
-3.09277e-06
5.29335e-05
-2.38379e-06
4.64941e-05
-1.80332e-06
4.07494e-05
-1.33103e-06
3.55973e-05
-9.48482e-07
3.10356e-05
-6.39819e-07
2.69143e-05
-3.93767e-07
2.31388e-05
-2.03925e-07
1.92225e-05
-7.33963e-08
1.42552e-05
1.73026e-05
-2.18155e-06
2.75619e-05
-1.63771e-06
2.83747e-05
-1.1898e-06
2.91919e-05
-8.26283e-07
3.00137e-05
-5.36565e-07
3.08461e-05
-3.11335e-07
3.16888e-05
-1.42399e-07
3.25474e-05
-2.26211e-08
3.34214e-05
5.42974e-08
3.43105e-05
9.2352e-08
3.52241e-05
1.002e-07
3.61577e-05
7.44719e-08
3.65891e-05
2.54743e-08
-2.74221e-06
1.92191e-05
-3.38305e-06
2.13506e-05
-4.1065e-06
2.37161e-05
-4.91161e-06
2.63493e-05
-5.79529e-06
2.92914e-05
-6.74866e-06
3.25874e-05
-7.75681e-06
3.62927e-05
-8.79585e-06
4.04873e-05
-9.83372e-06
4.52615e-05
-1.08264e-05
5.07324e-05
-1.17197e-05
5.70376e-05
-1.24505e-05
6.43427e-05
-1.29498e-05
7.28331e-05
-1.31493e-05
8.13928e-05
-1.30029e-05
8.32181e-05
-1.25681e-05
8.51241e-05
-1.18774e-05
8.70541e-05
-1.35856e-05
8.92116e-05
-1.22085e-05
9.12937e-05
-1.06743e-05
9.3241e-05
-9.07205e-06
0.000100191
-7.40372e-06
8.87263e-05
-5.97237e-06
7.84024e-05
-4.76473e-06
6.91493e-05
-3.75832e-06
6.08481e-05
-2.92802e-06
5.34777e-05
-2.24829e-06
4.69391e-05
-1.69542e-06
4.11138e-05
-1.24791e-06
3.58967e-05
-8.87236e-07
3.12831e-05
-5.97463e-07
2.7118e-05
-3.67233e-07
2.33021e-05
-1.90089e-07
1.93391e-05
-6.85217e-08
1.43237e-05
1.72684e-05
-2.70802e-06
2.74604e-05
-2.08008e-06
2.82936e-05
-1.55658e-06
2.9128e-05
-1.12596e-06
2.99649e-05
-7.77455e-07
3.08102e-05
-5.00591e-07
3.16636e-05
-2.86096e-07
3.2531e-05
-1.2603e-07
3.34121e-05
-1.3351e-08
3.43066e-05
5.82203e-08
3.52239e-05
9.2506e-08
3.61598e-05
9.81484e-08
3.65916e-05
7.19865e-08
3.5553e-05
2.45215e-08
-3.33998e-06
1.91761e-05
-4.05399e-06
2.1298e-05
-4.84997e-06
2.36544e-05
-5.72618e-06
2.62801e-05
-6.67586e-06
2.92186e-05
-7.6871e-06
3.25177e-05
-8.74003e-06
3.62369e-05
-9.80762e-06
4.04612e-05
-1.08517e-05
4.52868e-05
-1.18245e-05
5.08371e-05
-1.26685e-05
5.72555e-05
-1.33187e-05
6.47116e-05
-1.37077e-05
7.33915e-05
-1.37725e-05
8.21624e-05
-1.34761e-05
8.4126e-05
-1.28938e-05
8.61405e-05
-1.49421e-05
8.84107e-05
-1.36177e-05
9.06209e-05
-1.20907e-05
9.27101e-05
-1.04592e-05
9.46282e-05
-8.80697e-06
0.000101594
-7.12987e-06
8.98838e-05
-5.71335e-06
7.9351e-05
-4.53297e-06
6.99239e-05
-3.55908e-06
6.14792e-05
-2.76211e-06
5.39915e-05
-2.11409e-06
4.73577e-05
-1.58975e-06
4.14556e-05
-1.16739e-06
3.61769e-05
-8.28396e-07
3.1514e-05
-5.56967e-07
2.73078e-05
-3.41963e-07
2.3454e-05
-1.76927e-07
1.94476e-05
-6.38566e-08
1.43876e-05
1.72276e-05
-3.29913e-06
2.73342e-05
-2.58185e-06
2.81903e-05
-1.97679e-06
2.90449e-05
-1.47341e-06
2.98996e-05
-1.06067e-06
3.07602e-05
-7.27466e-07
3.16267e-05
-4.6373e-07
3.25051e-05
-2.60253e-07
3.33953e-05
-1.09213e-07
3.4297e-05
-3.7656e-09
3.52198e-05
6.23885e-08
3.61594e-05
9.28759e-08
3.65934e-05
9.62665e-08
3.55553e-05
6.96878e-08
3.45448e-05
2.36724e-08
-4.00361e-06
1.91257e-05
-4.78984e-06
2.12379e-05
-5.65718e-06
2.35854e-05
-6.60054e-06
2.62048e-05