/*--------------------------------*- C++ -*----------------------------------*\
  =========                 |
  \\      /  F ield         | OpenFOAM: The Open Source CFD Toolbox
   \\    /   O peration     | Website:  https://openfoam.org
    \\  /    A nd           | Version:  8
     \\/     M anipulation  |
\*---------------------------------------------------------------------------*/
FoamFile
{
    version     2.0;
    format      ascii;
    class       volScalarField;
    location    "0.13";
    object      nut;
}
// * * * * * * * * * * * * * * * * * * * * * * * * * * * * * * * * * * * * * //

dimensions      [0 2 -1 0 0 0 0];

internalField   nonuniform List<scalar> 
15677
(
0.000168252
0.000653024
0.000148416
0.00151375
0.00044245
0.000141508
0.00267553
0.000875781
0.000381139
0.000142377
0.00392134
0.00151885
0.000686602
0.000354235
0.000145459
0.00502435
0.00235602
0.00114631
0.000585585
0.000340246
0.000151212
0.00584086
0.00331722
0.00178061
0.000947638
0.000529261
0.00033201
0.000157004
0.00633517
0.0042985
0.00256739
0.00146307
0.000820813
0.000492458
0.000326986
0.000162451
0.00656294
0.00518757
0.0034526
0.00213124
0.00125698
0.000737147
0.00046743
0.000324118
0.000167228
0.00665851
0.0058934
0.00435507
0.00292169
0.00184115
0.00111209
0.000677302
0.000450433
0.00032255
0.000171455
0.00670554
0.00633826
0.00518065
0.00377852
0.00255645
0.0016314
0.00100441
0.000634044
0.000438687
0.000321996
0.000175018
0.00671441
0.00655347
0.00584523
0.00462488
0.00336216
0.00228595
0.00147231
0.000924056
0.000602131
0.000430762
0.000321938
0.000178154
0.00670993
0.00666152
0.00629562
0.00537684
0.00419637
0.00304463
0.00207726
0.00134872
0.000862074
0.000578531
0.000425296
0.000322421
0.000180765
0.00670628
0.00669875
0.00652959
0.00596428
0.00498371
0.00385664
0.00279505
0.00191125
0.00125092
0.000813967
0.000560787
0.000421819
0.000323054
0.00018311
0.00670539
0.00670439
0.00664681
0.00635679
0.00564975
0.00465527
0.00358259
0.00259292
0.0017773
0.00117271
0.000776167
0.000547627
0.000419466
0.000323972
0.00018515
0.00670542
0.00670289
0.00668788
0.00656286
0.00614191
0.00536802
0.00438059
0.00335622
0.0024272
0.0016676
0.00110927
0.00074641
0.000537535
0.000418248
0.000324815
0.00018696
0.00670556
0.00670168
0.00669638
0.00665654
0.00644674
0.00593337
0.00512045
0.00414791
0.00316764
0.00228924
0.00157724
0.00105758
0.000722717
0.000530276
0.000417364
0.000325867
0.000188613
0.00670563
0.00670122
0.00669711
0.00668491
0.00660485
0.00632159
0.00573711
0.00490325
0.00395011
0.00300849
0.00217402
0.00150213
0.00101561
0.000704248
0.000524555
0.000417245
0.000326797
0.000190025
0.00670564
0.00670113
0.0066967
0.00669167
0.00666372
0.00654117
0.00618808
0.00555647
0.00471367
0.00378054
0.00287389
0.00207705
0.00143987
0.000981553
0.000689364
0.000520695
0.000417169
0.000327879
0.000191449
0.00670563
0.00670115
0.0066964
0.00669274
0.0066823
0.00663451
0.00646776
0.00605767
0.00539323
0.00454778
0.00363522
0.00275942
0.00199567
0.00138833
0.000953684
0.000678012
0.000517575
0.000417691
0.000328851
0.000192564
0.00670561
0.00670118
0.00669625
0.0066927
0.00668728
0.00666912
0.00659803
0.00638928
0.00593456
0.00524632
0.00440328
0.00351028
0.00266241
0.0019275
0.00134573
0.000931411
0.000668859
0.000515843
0.000418091
0.000329921
0.000193885
0.00670559
0.00670121
0.00669618
0.00669259
0.00668819
0.00668082
0.00665143
0.00655608
0.00631083
0.00581934
0.00511567
0.00427736
0.00340346
0.00258041
0.00187076
0.00131099
0.000913447
0.000662291
0.000514378
0.000419001
0.000330946
0.000194772
0.00670559
0.00670122
0.00669613
0.00669256
0.00668815
0.00668425
0.00667169
0.00663035
0.00651125
0.00623285
0.00571415
0.00499974
0.00416867
0.00331248
0.00251184
0.0018241
0.00128288
0.000899604
0.000657057
0.000514072
0.000419706
0.000331979
0.000196079
0.00670558
0.00670123
0.0066961
0.00669255
0.00668799
0.00668507
0.00667851
0.00666144
0.00660609
0.00646497
0.00615991
0.00561859
0.0048986
0.00407533
0.00323608
0.0024551
0.0017863
0.0012608
0.000888943
0.000653933
0.000513727
0.000420876
0.000333118
0.000196802
0.00670559
0.00670123
0.00669609
0.00669255
0.00668787
0.0066852
0.00668042
0.00667335
0.00664843
0.00658061
0.00641925
0.00609173
0.00553419
0.00481067
0.00399651
0.00317258
0.00240936
0.00175678
0.00124407
0.000881464
0.000651476
0.000514437
0.000421778
0.000334026
0.000198108
0.00670559
0.00670122
0.00669608
0.00669254
0.0066878
0.00668518
0.00668077
0.0066775
0.00666574
0.00663546
0.00655396
0.00637565
0.00603008
0.00545925
0.00473618
0.0039312
0.00312196
0.00237364
0.00173433
0.0012318
0.000876308
0.000650972
0.000514888
0.000423204
0.000335472
0.000198799
0.00670559
0.00670122
0.00669608
0.00669253
0.00668776
0.00668513
0.00668073
0.00667877
0.00667213
0.00665967
0.00662043
0.00652845
0.00633525
0.00597413
0.00539665
0.00467486
0.00387899
0.0030816
0.00234655
0.00171887
0.00122462
0.000874107
0.000650638
0.000516409
0.000424127
0.000336223
5.33573e-05
0.0067056
0.00670121
0.00669608
0.00669251
0.00668774
0.00668509
0.00668064
0.00667905
0.00667418
0.00666958
0.0066508
0.00660736
0.00650421
0.0062992
0.00592885
0.00534343
0.00462431
0.00383774
0.00305397
0.00233035
0.00171092
0.0012213
0.00087344
0.000652239
0.000517528
0.000426513
0.00028363
6.33185e-05
0.00670561
0.0067012
0.00669609
0.00669249
0.00668774
0.00668504
0.00668057
0.00667904
0.0066747
0.00667328
0.00666362
0.00664558
0.0065933
0.0064828
0.00626817
0.00588684
0.00530263
0.00459102
0.00381441
0.00303807
0.00232145
0.00170767
0.00122076
0.000875263
0.000653887
0.000519616
0.00042009
0.000219504
7.06926e-05
0.00670561
0.00670119
0.00669609
0.00669247
0.00668773
0.006685
0.00668053
0.00667895
0.00667474
0.00667446
0.00666859
0.00666286
0.00663705
0.00658378
0.0064662
0.00624166
0.00586396
0.00527855
0.00456884
0.00379763
0.00302896
0.0023186
0.00170904
0.0012245
0.000878361
0.000656244
0.000520847
0.000400222
0.000178042
7.61285e-05
0.00670562
0.00670118
0.0066961
0.00669245
0.00668773
0.00668496
0.0066805
0.00667886
0.00667468
0.00667468
0.00667031
0.00667005
0.0066572
0.00663609
0.0065744
0.0064514
0.00623314
0.00584735
0.00526054
0.00455477
0.0037903
0.00302856
0.00232327
0.00171652
0.00123108
0.000883068
0.000659588
0.000518749
0.000367456
0.000152563
8.05315e-05
0.00670562
0.00670117
0.00669611
0.00669244
0.00668774
0.00668493
0.00668048
0.00667878
0.00667462
0.00667462
0.00667077
0.00667269
0.00666595
0.00666132
0.00663007
0.00657313
0.00645045
0.00622623
0.00583734
0.00525225
0.00455369
0.00379621
0.00303942
0.00233604
0.00172867
0.00124065
0.000889428
0.000662673
0.00051278
0.00033629
0.000134221
8.39225e-05
0.00670563
0.00670116
0.00669611
0.00669242
0.00668774
0.00668489
0.00668047
0.00667871
0.00667456
0.00667448
0.00667083
0.00667341
0.00666946
0.0066725
0.00665745
0.00663919
0.00657621
0.0064534
0.00622515
0.00583994
0.00526101
0.00456726
0.00381416
0.00305943
0.00235551
0.00174533
0.00125306
0.000896952
0.000665498
0.000501478
0.000306185
0.000121257
8.63282e-05
0.00670564
0.00670115
0.00669612
0.00669241
0.00668775
0.00668486
0.00668046
0.00667864
0.00667452
0.00667434
0.00667078
0.00667346
0.00667065
0.00667698
0.00667054
0.00667266
0.00664498
0.00658503
0.00646241
0.00623926
0.00585853
0.00528323
0.00459376
0.0038431
0.00308826
0.00238154
0.00176601
0.00126808
0.000905601
0.000666817
0.00048622
0.000280133
0.00011276
8.81077e-05
0.00670564
0.00670115
0.00669613
0.00669239
0.00668776
0.00668484
0.00668046
0.00667859
0.00667448
0.00667422
0.0066707
0.00667331
0.00667096
0.00667843
0.00667633
0.00668826
0.00668035
0.0066578
0.00660286
0.00648515
0.00626704
0.00589083
0.00531966
0.00463298
0.00388302
0.00312573
0.00241357
0.00179066
0.00128539
0.000915016
0.000667052
0.000469431
0.000260354
0.000106988
8.94879e-05
0.00670114
0.00670565
0.00669613
0.00669238
0.00668776
0.00668481
0.00668046
0.00667854
0.00667446
0.00667411
0.00667062
0.00667312
0.00667097
0.00667872
0.00667853
0.00669527
0.00669747
0.00669592
0.00668189
0.00663233
0.00652083
0.0063088
0.0059383
0.00537031
0.00468523
0.00393359
0.00317138
0.00245161
0.00181884
0.00130486
0.000926105
0.000666165
0.000454537
0.000245164
0.000102941
9.06083e-05
0.00669614
0.00670114
0.00670567
0.00669237
0.00668777
0.00668479
0.00668046
0.00667849
0.00667443
0.00667402
0.00667054
0.00667293
0.00667089
0.00667863
0.00667925
0.00669801
0.00670533
0.00671497
0.00672432
0.0067162
0.00667462
0.00657098
0.00636645
0.00600099
0.00543574
0.00475014
0.00399472
0.00322517
0.00249497
0.00185048
0.001329
0.000939544
0.000664803
0.000441747
0.000233375
0.000100058
9.15575e-05
0.00669236
0.00669617
0.00670116
0.00670569
0.00668778
0.00668477
0.00668047
0.00667845
0.00667442
0.00667394
0.00667048
0.00667277
0.00667079
0.00667841
0.00667943
0.00669895
0.0067086
0.00672405
0.00674624
0.00676222
0.00676372
0.00673148
0.00663746
0.006441
0.0060807
0.00551641
0.00482813
0.00406602
0.00328627
0.00254371
0.00188905
0.00135781
0.00095366
0.000663889
0.000431264
0.000224057
9.79539e-05
9.23874e-05
0.00668779
0.00669238
0.00669623
0.00670118
0.00670571
0.00668475
0.00668047
0.00667841
0.00667441
0.00667386
0.00667042
0.00667262
0.00667068
0.00667817
0.00667941
0.0066992
0.00670986
0.00672809
0.00675715
0.00678684
0.0068138
0.00682598
0.00680513
0.00672115
0.0065336
0.00617712
0.00561258
0.00491829
0.004147
0.00335478
0.002603
0.00193658
0.00138811
0.000968629
0.000663671
0.000422491
0.000216589
9.64199e-05
9.31335e-05
0.00668473
0.00668784
0.00669243
0.00669629
0.0067012
0.00670573
0.00668048
0.00667837
0.0066744
0.0066738
0.00667038
0.0066725
0.00667058
0.00667794
0.00667934
0.00669918
0.00671032
0.00672986
0.00676239
0.00679986
0.00684139
0.00687988
0.00690507
0.00689626
0.00682374
0.00664404
0.00629075
0.00572423
0.00502149
0.00423747
0.00343793
0.0026755
0.00198791
0.00141989
0.000984205
0.000664326
0.000415355
0.000210508
9.52715e-05
9.38133e-05
0.00668049
0.00668475
0.00668793
0.00669248
0.00669636
0.00670122
0.00670575
0.00667834
0.0066744
0.00667374
0.00667034
0.0066724
0.00667048
0.00667774
0.00667925
0.00669907
0.00671047
0.00673071
0.00676504
0.00680681
0.00685745
0.00691204
0.00696545
0.00700323
0.00700631
0.00694413
0.00677253
0.00642104
0.00585022
0.00513656
0.0043475
0.00353957
0.0027535
0.00204226
0.00145287
0.00100066
0.000666062
0.000409502
0.000205474
9.44283e-05
9.44433e-05
0.00667831
0.00668055
0.00668482
0.00668803
0.00669253
0.00669642
0.00670124
0.00670577
0.0066744
0.00667368
0.00667031
0.00667231
0.00667039
0.00667758
0.00667916
0.00669893
0.0067105
0.00673118
0.00676656
0.00681077
0.00686682
0.00693158
0.00700296
0.00707133
0.00712477
0.00713881
0.0070841
0.00691771
0.00656647
0.00598917
0.00527769
0.00448252
0.00364863
0.00283613
0.00209916
0.00148678
0.00101743
0.000668962
0.000404748
0.0002012
9.37836e-05
9.50275e-05
0.00667441
0.00667833
0.00668067
0.00668489
0.00668813
0.00669258
0.00669649
0.00670126
0.00670579
0.00667363
0.00667029
0.00667224
0.0066703
0.00667745
0.00667908
0.0066988
0.00671049
0.00673147
0.00676756
0.0068134
0.00687286
0.00694407
0.0070276
0.00711548
0.00720172
0.00726912
0.00729602
0.00724689
0.00707923
0.00672594
0.00615743
0.00544741
0.00462812
0.00376488
0.00292248
0.00215801
0.0015215
0.00103423
0.000672282
0.000400946
0.000197598
9.33165e-05
9.5576e-05
0.00667358
0.00667447
0.0066784
0.0066808
0.00668496
0.00668824
0.00669263
0.00669656
0.00670128
0.00670581
0.00667028
0.00667216
0.00667023
0.00667735
0.00667899
0.00669867
0.00671046
0.00673168
0.00676832
0.0068154
0.0068773
0.00695288
0.007045
0.00714672
0.00725487
0.0073572
0.0074399
0.00747643
0.00743305
0.00726171
0.00691507
0.00635632
0.00562733
0.00478127
0.0038864
0.0030117
0.00221823
0.00155701
0.00105091
0.000676286
0.000397987
0.000194473
9.29538e-05
9.60869e-05
0.00667028
0.00667357
0.00667459
0.00667847
0.00668093
0.00668504
0.00668834
0.00669269
0.00669663
0.0067013
0.00670583
0.00667209
0.00667016
0.00667728
0.00667889
0.00669856
0.00671043
0.00673186
0.00676895
0.00681707
0.00688088
0.00695986
0.00705841
0.00717053
0.00729551
0.00742185
0.00754238
0.00763698
0.00768175
0.00764043
0.00748743
0.00714815
0.00656531
0.00581416
0.00493876
0.00401082
0.00310287
0.0022793
0.00159287
0.00106764
0.00068077
0.000395578
0.000191798
9.27019e-05
9.65692e-05
0.00667202
0.00667031
0.0066736
0.00667472
0.00667854
0.00668107
0.00668511
0.00668846
0.00669274
0.00669671
0.00670132
0.00670586
0.00667012
0.00667723
0.00667877
0.00669847
0.00671041
0.00673202
0.0067695
0.00681853
0.00688393
0.00696584
0.00706964
0.0071899
0.00732891
0.00747473
0.00762243
0.00775717
0.00786284
0.00791213
0.00789455
0.00776259
0.00740195
0.00678285
0.00600322
0.00509849
0.00413713
0.00319497
0.00234073
0.00162883
0.00108417
0.000685693
0.000393795
0.000189444
9.25041e-05
9.70178e-05
0.00667009
0.00667194
0.00667036
0.00667363
0.00667486
0.00667862
0.00668121
0.00668519
0.00668858
0.0066928
0.00669678
0.00670135
0.00670588
0.00667719
0.00667864
0.00669841
0.00671041
0.00673218
0.00676998
0.00681983
0.0068866
0.00697116
0.00707949
0.00720674
0.00735773
0.00752071
0.00769204
0.00785656
0.0080056
0.00811803
0.00819636
0.00820634
0.00805911
0.00767218
0.00701265
0.0061944
0.00525881
0.00426331
0.00328711
0.00240199
0.00166459
0.00110063
0.000690593
0.00039243
0.000187412
9.23801e-05
9.74423e-05
0.00667716
0.00666998
0.00667184
0.00667043
0.00667367
0.00667501
0.00667869
0.00668136
0.00668527
0.0066887
0.00669286
0.00669686
0.00670137
0.0067059
0.00667848
0.00669841
0.00671044
0.00673232
0.00677042
0.00682101
0.00688898
0.006976
0.00708829
0.00722196
0.00738371
0.00756166
0.00775566
0.00794783
0.00813044
0.00828856
0.00843557
0.00854826
0.00854537
0.00837402
0.00795265
0.00725058
0.00638541
0.00541645
0.00438807
0.00337834
0.00246264
0.0016999
0.00111706
0.000695446
0.000391452
0.000185599
9.2282e-05
9.78356e-05
0.00667831
0.00667695
0.00666976
0.00667175
0.00667052
0.0066737
0.00667518
0.00667876
0.00668152
0.00668535
0.00668882
0.00669293
0.00669693
0.0067014
0.00670592
0.00669846
0.00671047
0.00673246
0.0067708
0.00682207
0.00689113
0.00698041
0.00709624
0.00723596
0.00740755
0.00759914
0.00781449
0.00803504
0.00825057
0.00844504
0.00864441
0.0088335
0.00893518
0.00890874
0.00870399
0.00824064
0.00749369
0.00658003
0.00557116
0.00451042
0.00346813
0.0025223
0.00173461
0.00113323
0.000700258
0.00039071
0.000184023
9.22357e-05
9.82086e-05
0.00669859
0.0066776
0.0066766
0.00666957
0.00667164
0.00667064
0.00667372
0.00667536
0.00667884
0.00668168
0.00668543
0.00668894
0.00669299
0.00669701
0.00670143
0.00670594
0.0067105
0.00673258
0.00677114
0.00682302
0.00689308
0.00698444
0.00710347
0.00724894
0.00742951
0.00763403
0.00787005
0.00811778
0.00836883
0.00860183
0.00884642
0.00909731
0.00927728
0.00935533
0.00929391
0.00904636
0.00853385
0.00773714
0.0067755
0.00572287
0.00462997
0.00355578
0.00258061
0.00176855
0.00114911
0.000704996
0.000390221
0.0001826
9.21988e-05
9.85523e-05
0.0067105
0.00669812
0.00667629
0.00667621
0.00666945
0.00667151
0.00667079
0.00667374
0.00667555
0.00667892
0.00668185
0.00668552
0.00668907
0.00669306
0.00669708
0.00670145
0.00670595
0.00673268
0.00677142
0.00682388
0.00689487
0.00698812
0.00711007
0.00726096
0.00744972
0.00766681
0.00792287
0.00819648
0.00848301
0.00876232
0.00905883
0.00936624
0.00961116
0.00976826
0.00980904
0.0097001
0.00939945
0.00883026
0.00797944
0.00696964
0.00587023
0.00474532
0.00364073
0.00263729
0.00180156
0.00116462
0.00070965
0.000389858
0.000181355
9.22e-05
9.88791e-05
0.00673277
0.00670946
0.00669702
0.00667528
0.00667573
0.0066694
0.00667135
0.00667096
0.00667376
0.00667574
0.00667901
0.00668201
0.00668562
0.00668919
0.00669313
0.00669714
0.00670148
0.00670597
0.00677165
0.00682466
0.0068965
0.00699148
0.00711611
0.00727206
0.00746832
0.00769768
0.00797281
0.00827129
0.00859416
0.0089238
0.00928376
0.00965973
0.00996939
0.0101967
0.0103153
0.0103012
0.0101287
0.00976266
0.00912852
0.00821938
0.0071612
0.00601481
0.0048561
0.00372262
0.00269212
0.00183355
0.00117968
0.000714198
0.000389671
0.000180219
9.22008e-05
9.91786e-05
0.00677185
0.00673113
0.00670727
0.00669543
0.0066746
0.00667512
0.00666946
0.00667116
0.00667117
0.00667378
0.00667595
0.0066791
0.00668218
0.00668572
0.0066893
0.0066932
0.00669721
0.00670151
0.00670598
0.00682538
0.00689799
0.00699454
0.00712164
0.00728226
0.00748545
0.00772669
0.00801964
0.00834249
0.00870338
0.00908579
0.00951065
0.00997891
0.0103848
0.0106933
0.0108836
0.0109359
0.0108399
0.0105823
0.010136
0.00942772
0.00845607
0.00734819
0.0061565
0.00496243
0.00380127
0.00274492
0.00186441
0.00119426
0.000718622
0.000389539
0.000179223
9.22306e-05
9.94644e-05
0.00682608
0.00676909
0.00672765
0.00670509
0.0066935
0.00667428
0.00667436
0.0066696
0.00667096
0.00667139
0.0066738
0.00667616
0.0066792
0.00668235
0.00668582
0.00668941
0.00669327
0.00669727
0.00670154
0.006706
0.00689937
0.00699733
0.00712669
0.00729162
0.00750122
0.00775381
0.00806326
0.00841049
0.0088105
0.00924566
0.0097346
0.0103184
0.0108833
0.0113284
0.011602
0.0117062
0.0116456
0.0114308
0.0110622
0.0105191
0.00972711
0.00868878
0.0075297
0.00629437
0.00506432
0.00387653
0.00279558
0.00189409
0.0012083
0.000722913
0.00038954
0.000178305
9.22547e-05
9.96925e-05
0.00690067
0.00682262
0.00676313
0.00672429
0.00670294
0.00669118
0.00667429
0.0066735
0.00666982
0.00667075
0.00667162
0.00667385
0.00667636
0.00667932
0.0066825
0.00668592
0.00668951
0.00669334
0.00669733
0.00670157
0.00670601
0.00699987
0.00713131
0.00730017
0.00751572
0.00777901
0.0081038
0.00847552
0.00891423
0.00940028
0.00995728
0.0106937
0.0114815
0.0121576
0.0125736
0.0127258
0.0126708
0.0124427
0.0120712
0.0115663
0.0109106
0.0100258
0.00891687
0.00770545
0.00642778
0.00516176
0.00394837
0.00284404
0.00192253
0.0012218
0.000727049
0.000389557
0.00017751
9.22932e-05
9.98841e-05
0.00700221
0.00689577
0.00681462
0.00675722
0.00672113
0.00670111
0.0066884
0.00667454
0.00667258
0.00667006
0.00667057
0.00667185
0.00667392
0.00667654
0.00667944
0.00668264
0.00668603
0.00668961
0.00669341
0.00669738
0.0067016
0.00670602
0.00713552
0.00730795
0.00752903
0.00780228
0.00814143
0.00853743
0.00901302
0.0095486
0.0101859
0.0111211
0.0121878
0.0131529
0.0138114
0.014072
0.0140119
0.0137379
0.0133031
0.0127479
0.0120882
0.0113077
0.0103226
0.00913977
0.00787522
0.00655634
0.00525477
0.00401678
0.00289025
0.00194971
0.00123472
0.000731045
0.000389596
0.000176874
9.2324e-05
0.00010009
0.00713937
0.00699555
0.00688402
0.00680666
0.00675156
0.00671814
0.00669985
0.00668541
0.00667491
0.00667169
0.0066703
0.00667043
0.00667205
0.00667401
0.00667671
0.00667957
0.00668277
0.00668613
0.00668971
0.00669348
0.00669743
0.00670163
0.00670603
0.00731502
0.0075412
0.00782365
0.00817631
0.00859589
0.00910586
0.00969181
0.0104275
0.0116013
0.0129715
0.014231
0.0151533
0.0156345
0.0156586
0.0153489
0.0148387
0.0141873
0.0134405
0.0126182
0.0117062
0.0106159
0.00935689
0.00803882
0.00667978
0.00534341
0.0040818
0.00293421
0.00197563
0.00124707
0.000734899
0.000389656
0.000176352
9.23676e-05
0.000100315
0.00732141
0.00713039
0.00697877
0.00687227
0.00679886
0.00674614
0.0067153
0.00669883
0.00668242
0.00667526
0.0066709
0.00667048
0.00667036
0.00667222
0.00667413
0.00667687
0.0066797
0.0066829
0.00668624
0.00668979
0.00669354
0.00669748
0.00670166
0.00670604
0.00755232
0.00784321
0.00820856
0.00865051
0.00919258
0.00983202
0.010684
0.0121162
0.0137738
0.0152842
0.0164288
0.0171322
0.0173741
0.0171635
0.0166267
0.0159038
0.0150541
0.0141262
0.0131451
0.0121011
0.0109039
0.00956763
0.00819609
0.00679796
0.00542766
0.0041434
0.00297593
0.00200028
0.00125884
0.000738103
0.00038972
0.000175801
9.24145e-05
0.000100557
0.00756235
0.0073098
0.00710673
0.00696194
0.00686076
0.0067912
0.00674091
0.00671265
0.00669789
0.00667962
0.00667546
0.00667028
0.00667057
0.00667037
0.00667235
0.00667427
0.00667701
0.00667984
0.00668301
0.00668634
0.00668988
0.00669361
0.00669753
0.00670167
0.00670604
0.00786107
0.00823829
0.00870111
0.00927364
0.00997066
0.0109513
0.0126389
0.0145373
0.0162284
0.0175247
0.018395
0.0188461
0.0188755
0.0184822
0.0177723
0.0168829
0.0158704
0.0147851
0.0136582
0.0124874
0.0111847
0.00977141
0.00834695
0.00691083
0.00550784
0.0042015
0.00301542
0.00202367
0.00126855
0.000740856
0.000389804
0.000175232
9.24792e-05
0.000100822
0.00787705
0.00754727
0.00727708
0.00708301
0.00694543
0.0068495
0.00678362
0.00673601
0.0067101
0.00669693
0.00667726
0.00667535
0.00666989
0.00667056
0.00667044
0.00667246
0.00667442
0.00667714
0.00667997
0.00668313
0.00668645
0.00668996
0.00669368
0.00669756
0.00670167
0.00670604
0.00826561
0.00874769
0.00934974
0.0101078
0.011221
0.0131436
0.0152233
0.0170215
0.0183967
0.019365
0.0199655
0.0202121
0.0200892
0.0195763
0.0187533
0.0177488
0.016615
0.0154024
0.0141485
0.0128607
0.0114565
0.0099677
0.0084913
0.00701826
0.00558437
0.0042563
0.00305273
0.00204291
0.00127683
0.000743889
0.000389917
0.000174622
9.2547e-05
0.000101109
0.00829004
0.00785818
0.00750237
0.00724422
0.00705972
0.0069293
0.00683847
0.00677607
0.00673146
0.00670755
0.00669578
0.00667579
0.00667491
0.00666973
0.00667048
0.00667057
0.00667255
0.00667458
0.00667727
0.00668011
0.00668324
0.00668655
0.00669004
0.00669371
0.00669756
0.00670167
0.00670604
0.00879047
0.00942152
0.0102425
0.0114844
0.0136122
0.0158141
0.0176567
0.01905
0.0200542
0.0207385
0.0211365
0.0212436
0.0210271
0.0204499
0.0195659
0.0184933
0.0172779
0.0159691
0.0146096
0.0132172
0.0117179
0.010156
0.00862908
0.00712018
0.00565722
0.00430796
0.0030833
0.00205925
0.00128592
0.000747265
0.000390057
0.000173995
9.26385e-05
0.000101422
0.00882849
0.00826631
0.00779739
0.00745731
0.00721193
0.00703698
0.00691353
0.00682765
0.00676858
0.00672708
0.00670492
0.00669369
0.00667506
0.00667419
0.00666975
0.00667036
0.00667072
0.00667263
0.00667474
0.00667739
0.00668024
0.00668334
0.00668665
0.00669008
0.00669371
0.00669756
0.00670167
0.00670604
0.00948939
0.0103728
0.0117341
0.0140347
0.0163078
0.0181474
0.0195143
0.0205065
0.0212187
0.0217029
0.0219681
0.0219909
0.0217267
0.0211268
0.0202226
0.0191199
0.0178574
0.0164812
0.0150376
0.0135544
0.0119675
0.010336
0.00876028
0.00721674
0.00572637
0.0043502
0.0031092
0.00207716
0.00129593
0.000750984
0.000390238
0.000173321
9.27341e-05
0.00010176
0.00955109
0.0087992
0.00818411
0.00773632
0.00741299
0.00718033
0.00701475
0.00689813
0.0068171
0.00676124
0.00672286
0.00670237
0.006691
0.00667489
0.00667334
0.00666985
0.00667023
0.00667088
0.00667271
0.00667489
0.00667751
0.00668037
0.00668345
0.0066867
0.00669008
0.00669371
0.00669756
0.00670167
0.00670604
0.010497
0.0119682
0.0144082
0.0167118
0.0185156
0.0198265
0.0207732
0.0214709
0.0219876
0.0223456
0.022532
0.0225106
0.0222308
0.0216376
0.0207427
0.0196391
0.0183572
0.0169384
0.0154308
0.0138706
0.0122045
0.0105073
0.00888493
0.0073081
0.00578323
0.00438597
0.00313751
0.00209681
0.00130696
0.000755149
0.000390457
0.000172635
9.28626e-05
0.000102129
0.0106087
0.00951444
0.00868759
0.00810168
0.00767616
0.00736958
0.00714943
0.00699304
0.00688312
0.00680692
0.00675398
0.00671898
0.00670009
0.00668778
0.00667504
0.00667247
0.00667
0.00667012
0.00667104
0.0066728
0.00667505
0.00667762
0.0066805
0.0066835
0.0066867
0.00669008
0.00669371
0.00669756
0.00670167
0.00670603
0.0121878
0.0147324
0.0170379
0.018785
0.0200219
0.0209016
0.0215548
0.0220632
0.0224615
0.0227469
0.0228915
0.0228529
0.0225793
0.0220124
0.0211473
0.0200639
0.0187839
0.017343
0.0157889
0.014165
0.0124282
0.0106699
0.00900309
0.00738303
0.00583153
0.00442504
0.00316847
0.00211839
0.00131913
0.000759728
0.000390732
0.000171895
9.29967e-05
0.000102526
0.0105673
0.012383
0.00935213
0.00857731
0.00802031
0.00761718
0.00732708
0.00711923
0.00697189
0.00686858
0.00679729
0.00674708
0.0067154
0.00669864
0.00668456
0.00667527
0.00667169
0.00667012
0.00667004
0.00667119
0.0066729
0.00667519
0.00667774
0.00668057
0.00668349
0.0066867
0.00669008
0.00669371
0.00669756
0.00670166
0.00670602
0.0150083
0.0172986
0.018977
0.0201304
0.0209304
0.0215195
0.02199
0.022388
0.0227213
0.0229699
0.023097
0.0230591
0.022806
0.0222782
0.0214563
0.020408
0.0191457
0.0176987
0.0161131
0.0144375
0.0126386
0.0108236
0.00910009
0.00744658
0.00588446
0.00446777
0.00320238
0.0021421
0.00133257
0.000764858
0.000391061
0.000171149
9.31771e-05
0.000102961
0.0103189
0.0123437
0.0152331
0.00919624
0.00846891
0.00794036
0.00755937
0.0072855
0.00708978
0.00695135
0.00685458
0.00678803
0.0067406
0.00671213
0.00669748
0.00668161
0.00667542
0.00667105
0.00667021
0.00667001
0.00667132
0.006673
0.00667533
0.00667779
0.00668057
0.00668349
0.0066867
0.00669008
0.00669371
0.00669753
0.00670163
0.00670601
0.0175056
0.0191099
0.0201758
0.0208898
0.0214026
0.0218147
0.0221819
0.0225231
0.0228267
0.0230612
0.0231867
0.0231614
0.0229385
0.0224579
0.0216878
0.0206841
0.0194507
0.0180099
0.0164052
0.0146886
0.0128355
0.0109495
0.00918242
0.00751613
0.00594251
0.00451453
0.00323953
0.00216819
0.00134743
0.000770589
0.000391467
0.000170343
9.33655e-05
0.000103425
0.0100749
0.0119897
0.0151672
0.0176595
0.00904768
0.00836207
0.00786192
0.00750276
0.00724491
0.00706114
0.00693146
0.00684108
0.00677912
0.00673456
0.00670926
0.00669642
0.00667913
0.00667539
0.00667059
0.00667024
0.00667002
0.00667144
0.00667311
0.00667541
0.00667779
0.00668057
0.00668349
0.0066867
0.00669008
0.00669368
0.00669748
0.0067016
0.00670599
0.0191977
0.0201768
0.0208028
0.0212325
0.0215725
0.0218866
0.0222038
0.0225233
0.0228195
0.0230545
0.0231887
0.0231847
0.0229988
0.0225704
0.021857
0.0209038
0.0197068
0.0182814
0.0166675
0.0149191
0.0129949
0.011056
0.00927253
0.00759231
0.00600624
0.00456578
0.00328028
0.00219692
0.0013639
0.000776977
0.000391949
0.000169538
9.36197e-05
0.000103932
0.00984599
0.0116063
0.0148133
0.0175605
0.0192431
0.00890418
0.00825672
0.00778511
0.00744741
0.00720538
0.00703335
0.00691226
0.00682815
0.00677069
0.00672922
0.00670663
0.00669532
0.00667736
0.00667512
0.00667029
0.00667022
0.00667007
0.00667155
0.00667317
0.00667541
0.00667778
0.00668057
0.00668349
0.0066867
0.00669004
0.00669361
0.00669743
0.00670157
0.00670598
0.0201468
0.0206861
0.02103
0.0212895
0.0215343
0.021803
0.0221056
0.0224259
0.0227286
0.0229735
0.0231242
0.0231481
0.0230041
0.022631
0.0219765
0.021077
0.0199212
0.0185178
0.0169025
0.0151022
0.0131289
0.0111722
0.00937121
0.00767583
0.00607625
0.00462201
0.00332502
0.0022286
0.00138215
0.000784121
0.000392536
0.000168668
9.38862e-05
0.000104469
0.00963176
0.0112283
0.0143719
0.0173301
0.0190914
0.0200858
0.00876401
0.00815309
0.00771004
0.00739344
0.00716701
0.00700648
0.00689388
0.00681605
0.00676289
0.00672462
0.00670412
0.00669377
0.00667633
0.00667465
0.00667015
0.00667016
0.00667015
0.00667159
0.00667316
0.00667541
0.00667778
0.00668057
0.0066835
0.00668665
0.00668996
0.00669354
0.00669738
0.00670154
0.00670597
0.0205517
0.0208103
0.0209847
0.0211494
0.0213506
0.0216095
0.0219209
0.022256
0.0225739
0.0228352
0.0230089
0.0230664
0.0229682
0.0226518
0.022057
0.0212123
0.0201003
0.0187234
0.0170846
0.0152542
0.0132738
0.011299
0.00947931
0.00776746
0.00615324
0.00468377
0.00337421
0.00226356
0.00140243
0.0007921
0.00039323
0.000167807
9.42471e-05
0.000105057
0.00942919
0.0108692
0.0138835
0.0170133
0.0189346
0.0198796
0.0203949
0.00862656
0.0080515
0.00763688
0.00734098
0.0071299
0.00698076
0.00687676
0.00680497
0.00675557
0.00672052
0.00670177
0.00669163
0.00667584
0.00667404
0.00667012
0.00667009
0.00667022
0.00667157
0.00667316
0.00667541
0.00667779
0.00668057
0.00668345
0.00668655
0.00668988
0.00669347
0.00669732
0.00670151
0.00670595
0.0205835
0.0206723
0.0207503
0.0208701
0.0210633
0.0213369
0.0216721
0.0220303
0.0223687
0.022652
0.0228549
0.0229513
0.0229019
0.0226427
0.0221069
0.0213167
0.0202496
0.0188778
0.0172337
0.0154162
0.0134303
0.0114372
0.00959776
0.00786808
0.00623799
0.0047517
0.00342835
0.00230221
0.00142496
0.00080107
0.000394065
0.000166869
9.46271e-05
0.00010567
0.00923576
0.0105329
0.01337
0.0166347
0.0187073
0.0197561
0.0201337
0.0203396
0.00849189
0.00795227
0.00756583
0.0072902
0.00709438
0.00695685
0.00686114
0.00679485
0.0067488
0.00671691
0.00669975
0.00668904
0.00667569
0.00667337
0.00667017
0.00666999
0.00667024
0.00667156
0.00667316
0.00667541
0.00667779
0.0066805
0.00668334
0.00668644
0.00668979
0.0066934
0.00669727
0.00670148
0.00670594
0.0203613
0.0203504
0.0203795
0.0204898
0.0207007
0.0210058
0.0213735
0.0217595
0.0221224
0.0224334
0.0226717
0.022812
0.0228137
0.0226114
0.022133
0.0213961
0.0203564
0.0190022
0.0173898
0.0155883
0.013599
0.0115877
0.00972754
0.00797864
0.00633134
0.00482652
0.00348803
0.00234497
0.00145008
0.000811113
0.000395056
0.000165913
9.51385e-05
0.000106457
0.00904985
0.0102211
0.012842
0.0162064
0.0184361
0.0195753
0.0200131
0.0200231
0.0200359
0.00836034
0.00785576
0.00749709
0.00724158
0.00706139
0.00693508
0.00684693
0.00678573
0.00674257
0.00671378
0.00669841
0.00668638
0.00667572
0.00667272
0.0066703
0.00666988
0.00667026
0.00667156
0.00667316
0.00667541
0.00667774
0.00668037
0.00668323
0.00668634
0.0066897
0.00669333
0.00669721
0.00670145
0.00670592
0.0199586
0.0198927
0.0199079
0.0200353
0.020283
0.0206294
0.0210339
0.0214501
0.0218418
0.0221868
0.022467
0.0226556
0.0227101
0.0225638
0.0221409
0.0214461
0.0204405
0.0191296
0.0175526
0.0157706
0.0137802
0.0117513
0.00986969
0.00810018
0.00643428
0.00490903
0.00355388
0.00239236
0.00147806
0.000822444
0.000396232
0.000164891
9.57887e-05
0.000107384
0.0088707
0.00993319
0.0123079
0.0157296
0.0181335
0.019366
0.0198436
0.0198859
0.0196631
0.0195589
0.00823216
0.00776242
0.00743131
0.00719645
0.00703138
0.00691527
0.00683402
0.00677757
0.00673696
0.00671096
0.0066973
0.00668392
0.00667584
0.00667218
0.00667044
0.00666982
0.00667026
0.00667157
0.00667317
0.00667533
0.00667762
0.00668024
0.00668312
0.00668623
0.00668961
0.00669327
0.00669714
0.00670143
0.0067059
0.0194188
0.0193323
0.0193605
0.019527
0.0198224
0.0202151
0.0206579
0.0211062
0.021532
0.0219185
0.0222472
0.0224882
0.0225964
0.0225048
0.0221338
0.0214831
0.0205235
0.0192592
0.0177214
0.0159627
0.0139744
0.011929
0.0100253
0.00823384
0.00654785
0.0050002
0.00362673
0.00244495
0.00150937
0.000835164
0.00039765