/*--------------------------------*- C++ -*----------------------------------*\
  =========                 |
  \\      /  F ield         | OpenFOAM: The Open Source CFD Toolbox
   \\    /   O peration     | Website:  https://openfoam.org
    \\  /    A nd           | Version:  8
     \\/     M anipulation  |
\*---------------------------------------------------------------------------*/
FoamFile
{
    version     2.0;
    format      ascii;
    class       volScalarField;
    location    "0.18";
    object      k;
}
// * * * * * * * * * * * * * * * * * * * * * * * * * * * * * * * * * * * * * //

dimensions      [0 2 -2 0 0 0 0];

internalField   nonuniform List<scalar> 
15677
(
143.299
126.884
171.164
205.244
231.454
252.446
270.295
286.74
302.151
313.738
317.012
311.374
298.704
282.511
268.28
258.009
248.796
239.463
229.611
219.772
209.789
200.162
191.291
183.169
175.751
169.033
163.033
157.776
153.281
149.548
146.562
144.279
142.627
141.543
140.964
398.454
642.139
769.283
841.694
884.878
908.992
921.77
930.126
938.183
940.285
854.233
703.929
555.69
447.33
388.658
350.231
331.047
320.526
311.043
301.729
292.38
282.75
273.283
264.666
256.939
249.902
243.529
238.07
233.624
230.204
227.742
226.147
225.327
225.189
225.562
355.402
690.505
905.287
1087.19
1257.74
1419.2
1568.82
1691.26
1751.91
1694.73
1476.81
1147.86
821.738
583.635
433.46
348.758
310.492
295.683
293.297
300.58
310.801
319.636
325.103
326.577
324.692
320.293
314.48
308.222
302.195
296.749
292.323
288.857
286.207
284.222
282.767
257.94
481.082
640.621
763.538
867.969
956.809
1020.21
1050.41
1040.8
990.09
899.694
799.059
710.968
654.693
582.867
477.824
381.733
316.511
285.897
282.378
296.052
321.845
351.027
379.287
401.164
412.265
409.714
398.939
385.028
371.937
360.81
351.729
344.464
338.722
334.228
152.256
307.865
406.537
483.902
551.852
614.052
671.379
722.277
759.129
773.724
764.667
733.725
669.084
560.942
431.952
321.746
250.467
228.848
231.835
239.036
246.791
254.87
263.34
272.102
280.571
287.306
291.113
292.354
292.124
290.784
288.661
286.249
283.904
281.793
279.949
73.7127
138.667
189.628
229.918
264.54
294.807
320.7
341.318
354.929
359.613
355.867
337.355
296.528
248.812
204.46
171.523
152.715
149.414
154.018
164.41
177.999
193.65
208.296
220.067
227.965
232.233
233.845
233.908
233.209
232.204
231.139
230.129
229.208
228.379
227.637
29.7531
64.1059
89.2781
110.792
131.386
152.324
173.384
188.074
191.441
179.531
148.5
117.859
105.206
103.768
105.979
109.708
115.153
122.918
133.147
144.859
156.3
165.862
173.655
180.441
186.383
191.179
194.457
195.981
196.095
195.68
195.167
194.714
194.355
194.074
193.848
8.06502
15.5284
23.2472
29.8094
35.6861
40.947
45.3767
48.0082
49.0434
49.5839
52.6507
63.2329
79.249
94.4566
102.204
105.252
107.941
111.937
117.573
124.727
132.62
140.023
145.876
149.939
152.709
154.65
156.067
157.131
157.943
158.578
159.087
159.506
159.858
160.161
160.425
15.2965
26.0558
32.438
36.8223
40.3476
43.4232
46.2467
48.9862
51.9215
55.2426
59.191
64.0183
69.7176
76.1004
81.8691
87.2467
92.7518
98.4348
104.311
110.05
115.429
120.299
124.562
128.111
130.89
132.941
134.366
135.291
135.9
136.359
136.735
137.058
137.343
137.594
137.814
12.3556
23.1442
29.7825
34.5381
38.3588
41.6051
44.4798
47.1401
49.7312
52.4631
55.5187
59.0443
63.1514
67.9439
72.9689
77.9048
82.9183
87.9733
92.9924
97.8296
102.293
106.092
109.137
111.542
113.449
114.962
116.153
117.092
117.839
118.442
118.934
119.34
119.676
119.959
120.197
12.0124
21.7683
27.926
32.3278
35.8758
38.9105
41.6167
44.1289
46.5686
49.0578
51.7273
54.7237
58.2078
62.3022
66.6573
70.9507
75.2645
79.5612
83.7976
87.912
91.8119
95.2433
98.0346
100.241
101.956
103.265
104.25
105.001
105.6
106.09
106.496
106.834
107.115
107.348
107.538
10.2652
20.1533
25.4917
29.2319
32.2758
34.9468
37.4137
39.7943
42.1866
44.6805
47.3637
50.3265
53.6678
57.5007
61.5044
65.388
69.2162
72.9445
76.5413
79.969
83.1823
85.9943
88.2965
90.1601
91.6531
92.8448
93.7927
94.5505
95.1631
95.665
96.0805
96.4279
96.7207
96.9686
97.1793
9.20244
17.7829
22.7084
26.2434
29.1429
31.6934
34.05
36.3224
38.5996
40.9627
43.4892
46.2537
49.3309
52.7994
56.3786
59.842
63.2651
66.6121
69.8418
72.9103
75.7767
78.2907
80.3587
82.0356
83.3887
84.4759
85.3444
86.0455
86.6227
87.1038
87.508
87.8489
88.1368
88.3797
88.5839
8.24994
16.6576
21.004
24.0607
26.5833
28.8434
30.9798
33.0837
35.2261
37.4691
39.8715
42.4915
45.3908
48.6194
51.882
54.9819
58.0062
60.944
63.7719
66.4481
68.9532
71.172
73.0242
74.5481
75.8005
76.8302
77.678
78.3805
78.9658
79.456
79.8682
80.2165
80.5122
80.7641
80.9791
7.14887
14.5181
18.5465
21.4519
23.8731
26.0488
28.1041
30.1216
32.1656
34.2921
36.5529
38.9997
41.6835
44.6518
47.6383
50.4569
53.1835
55.8103
58.326
60.7148
62.961
64.9586
66.6409
68.0399
69.2042
70.1736
70.9808
71.6527
72.2145
72.6897
73.0947
73.4417
73.7398
73.9962
74.2168
6.69218
13.7204
17.3519
19.9423
22.1092
24.0755
25.9537
27.8147
29.7108
31.6854
33.7795
36.0338
38.4922
41.1913
43.8888
46.4253
48.8715
51.2144
53.4514
55.5789
57.5941
59.4114
60.9481
62.2389
63.3235
64.2359
65.0052
65.6557
66.208
66.679
67.0823
67.429
67.728
67.9866
68.2108
5.73423
12.1208
15.5096
17.9729
20.0531
21.9488
23.7609
25.5534
27.3733
29.2596
31.2469
33.368
35.6549
38.1392
40.5974
42.8911
45.0928
47.2035
49.2219
51.1447
52.9678
54.6118
56.0146
57.2024
58.2093
59.0641
59.7911
60.4103
60.9387
61.3901
61.7783
62.1143
62.4062
62.6607
62.8828
5.60928
11.6448
14.7582
16.9971
18.8844
20.6082
22.2619
23.9027
25.5723
27.3048
29.1315
31.0824
33.1844
35.4632
37.7102
39.7974
41.7912
43.6996
45.5251
47.2667
48.9241
50.4239
51.7101
52.8051
53.7387
54.536
55.2184
55.8038
56.3075
56.7421
57.1183
57.4449
57.7292
57.9775
58.1955
4.79242
10.4799
13.4215
15.5698
17.3972
19.0727
20.6793
22.2679
23.8748
25.53
27.26
29.0903
31.0452
33.1476
35.2065
37.1119
38.9302
40.6683
42.33
43.9164
45.4272
46.7989
47.98
48.9902
49.8558
50.5991
51.2386
51.7901
52.2667
52.6795
53.0377
53.3496
53.6224
53.862
54.0722
4.78254
10.0741
12.817
14.8075
16.4959
18.0438
19.5304
21.0033
22.4963
24.0367
25.649
27.3548
29.1746
31.1262
33.0276
34.7791
36.4459
38.0368
39.5568
41.0083
42.3924
43.6519
44.7394
45.6725
46.4748
47.1661
47.7631
48.2797
48.7278
49.1175
49.4571
49.7537
50.0133
50.241
50.4409
4.32055
9.37948
11.9905
13.8964
15.5181
17.0057
18.4324
19.8422
21.2659
22.7286
24.2522
25.8563
27.5581
29.3724
31.1333
32.7517
34.2883
35.7523
37.1494
38.4832
39.7558
40.9153
41.9186
42.7816
43.5257
44.1687
44.7256
45.209
45.6295
45.996
46.3161
46.5962
46.8417
47.0572
47.2467
4.26461
9.01305
11.4844
13.2829
14.8105
16.2111
17.555
18.8844
20.2286
21.6098
23.0464
24.5548
26.1483
27.8419
29.4806
30.9831
32.4065
33.7601
35.0502
36.2811
37.4555
38.5264
39.4542
40.2537
40.9442
41.5421
42.061
42.5122
42.9054
43.2488
43.5492
43.8124
44.0436
44.2468
44.4259
4.00787
8.55624
10.9232
12.6497
14.1166
15.461
16.7491
18.0208
19.3037
20.6184
21.9809
23.4058
24.9072
26.4977
28.0315
29.4338
30.7589
32.0164
33.213
34.3534
35.4409
36.4327
37.2926
38.0343
38.676
39.2324
39.716
40.1373
40.5049
40.8265
41.1082
41.3554
41.5727
41.7641
41.9328
3.91303
8.241
10.5065
12.1575
13.5599
14.8446
16.0747
17.2872
18.5077
19.7558
21.0476
22.3969
23.8159
25.3154
26.7572
28.0718
29.311
30.4843
31.5986
32.659
33.6692
34.5903
35.389
36.0784
36.6752
37.1934
37.6444
38.0376
38.3813
38.6822
38.9462
39.1782
39.3823
39.5623
39.7212
3.74604
7.90741
10.0886
11.6798
13.0318
14.2694
15.4526
16.6171
17.7873
18.9817
20.2151
21.5004
22.8488
24.2696
25.6314
26.8694
28.0333
29.1325
30.1742
31.1636
32.105
32.9625
33.7059
34.3477
34.9037
35.3867
35.8074
36.1748
36.4961
36.7778
37.0252
37.2428
37.4345
37.6037
37.7533
3.64893
7.6444
9.74675
11.2798
12.5809
13.7709
14.9081
16.0269
17.1501
18.2952
19.4761
20.7045
21.9904
23.3419
24.6334
25.8042
26.9017
27.9355
28.9128
29.8391
30.7188
31.5191
32.2123
32.8106
33.329
33.7796
34.1723
34.5154
34.8159
35.0796
35.3113
35.5154
35.6954
35.8544
35.9951
3.53309
7.38909
9.42262
10.9062
12.1651
13.3159
14.4148
15.4947
16.5777
17.6802
18.8153
19.994
21.225
22.5156
23.7452
24.8567
25.8957
26.8716
27.7917
28.6616
29.4859
30.2343
30.8818
31.4403
31.924
32.3444
32.711
33.0315
33.3123
33.5589
33.7759
33.9671
34.1359
34.2852
34.4174
3.44561
7.17051
9.14083
10.5783
11.7976
12.9118
13.9752
15.0195
16.0659
17.13
18.224
19.3582
20.5405
21.7771
22.9519
24.011
24.9981
25.9226
26.7916
27.611
28.3852
29.0866
29.6922
30.2139
30.6653
31.0576
31.3996
31.6987
31.9608
32.1911
32.3938
32.5726
32.7306
32.8704
32.9944
3.35876
6.96867
8.88292
10.2797
11.4643
12.5463
13.5782
14.591
15.6049
16.6347
17.6923
18.7868
19.9258
21.1144
22.2406
23.2531
24.1942
25.0729
25.8963
26.6702
27.3992
28.0575
28.6246
29.1121
29.5334
29.899
30.2176
30.4961
30.7401
30.9546
31.1434
31.31
31.4573
31.5877
31.7035
3.28561
6.78985
8.65285
10.0123
11.165
12.2173
13.2206
14.2046
15.1889
16.1879
17.2125
18.2715
19.3717
20.5175
21.6004
22.5714
23.4714
24.3092
25.0918
25.8247
26.5126
27.1316
27.663
28.1185
28.5112
28.8514
29.1473
29.4057
29.632
29.8307
30.0057
30.16
30.2965
30.4174
30.5247
140.562
140.882
142.085
144.36
147.628
151.445
155.461
159.523
163.396
166.758
169.119
169.838
168.597
165.428
160.734
154.799
147.894
140.282
132.226
123.986
115.805
107.882
226.136
226.444
226.169
225.089
223.021
220.576
218.106
215.71
213.151
210.483
207.734
204.954
202.196
199.517
197.107
195.47
195.465
197.051
200.277
204.633
209.626
214.625
281.044
279.504
278.811
278.932
279.693
280.808
282.315
284.944
289.513
295.367
299.727
300.858
298.048
291.617
282.416
272.803
264.577
258.448
254.386
251.997
250.751
250.137
329.484
325.096
322.178
319.899
315.655
309.289
300.913
290.818
281.932
274.168
267.557
262.16
257.9
254.53
251.773
249.539
247.838
246.673
246.048
245.868
246.066
246.576
278.291
276.702
275.015
273.195
270.958
268.249
265.125
261.707
258.373
255.562
253.143
251.221
249.858
249.111
248.904
249.127
249.687
250.437
251.309
252.278
253.336
254.493
227.278
227.278
227.281
227.295
227.32
227.361
227.432
227.565
227.808
228.222
228.836
229.662
230.703
231.917
233.277
234.78
236.406
238.13
239.928
241.777
243.661
245.572
194.085
194.81
195.548
196.313
197.115
197.969
198.891
199.899
201.036
202.311
203.746
205.356
207.108
208.951
210.867
212.85
214.89
216.98
219.114
221.289
223.5
225.73
161.258
162.673
164.078
165.486
166.912
168.366
169.864
171.418
173.044
174.757
176.571
178.489
180.47
182.479
184.517
186.584
188.676
190.788
192.919
195.07
197.238
199.42
138.508
139.725
140.97
142.248
143.571
144.949
146.393
147.91
149.509
151.201
152.992
154.879
156.813
158.75
160.688
162.626
164.561
166.491
168.414
170.334
172.253
174.178
120.86
121.979
123.119
124.283
125.48
126.716
127.999
129.337
130.739
132.211
133.76
135.373
137.012
138.646
140.28
141.917
143.559
145.206
146.858
148.513
150.172
151.834
108.093
109.047
110.022
111.021
112.047
113.105
114.198
115.331
116.509
117.735
119.013
120.341
121.687
123.028
124.365
125.702
127.039
128.377
129.719
131.063
132.411
133.763
97.7357
98.6608
99.5962
100.542
101.496
102.464
103.447
104.449
105.471
106.52
107.6
108.708
109.82
110.916
112
113.075
114.144
115.21
116.276
117.343
118.414
119.489
89.1195
90.0097
90.9067
91.8104
92.7213
93.6395
94.5651
95.5
96.4464
97.4069
98.3849
99.3774
100.362
101.322
102.262
103.185
104.094
104.992
105.881
106.763
107.642
108.518
81.5261
82.4236
83.3262
84.2329
85.1432
86.0571
86.9748
87.8967
88.8235
89.756
90.6952
91.6356
92.5557
93.4425
94.3009
95.1344
95.9464
96.7395
97.5164
98.2794
99.0307
99.7723
74.768
75.6696
76.5767
77.4886
78.4049
79.3253
80.2494
81.1771
82.1086
83.0443
83.9851
84.9252
85.8411
86.718
87.5605
88.3711
89.1523
89.9069
90.6374
91.3462
92.0355
92.708
68.7617
69.6606
70.569
71.4856
72.4093
73.339
74.2735
75.2116
76.153
77.0979
78.0469
78.9942
79.916
80.7972
81.6394
82.4448
83.2155
83.9542
84.6638
85.3468
86.0058
86.6427
63.4253
64.3115
65.2099
66.1194
67.0396
67.9701
68.9105
69.8599
70.816
71.7764
72.7399
73.6998
74.6314
75.5185
76.3645
77.172
77.9435
78.6811
79.3873
80.0641
80.7138
81.3384
58.723
59.5846
60.4618
61.3535
62.2589
63.1772
64.1076
65.0492
66.001
66.9617
67.9297
68.8969
69.8367
70.7319
71.5851
72.3989
73.1756
73.9174
74.6264
75.3045
75.9537
76.5757
54.5808
55.4132
56.2629
57.1293
58.0119
58.91
59.8228
60.7495
61.6891
62.6407
63.6029
64.5678
65.5081
66.4057
67.2626
68.0806
68.8618
69.6081
70.3211
71.0028
71.6548
72.2787
50.927
51.7255
52.5433
53.3799
54.2348
55.1075
55.9971
56.9031
57.8246
58.7606
59.7102
60.6652
61.5987
62.4922
63.347
64.1647
64.9467
65.6945
66.4097
67.0937
67.748
68.374
47.71
48.4735
49.2574
50.0614
50.8853
51.7286
52.5909
53.4715
54.3697
55.2848
56.2157
57.1548
58.0754
58.9589
59.8062
60.6184
61.3967
62.1423
62.8563
63.54
64.1946
64.8213
44.8671
45.5966
46.347
47.1182
47.9103
48.7229
49.5558
50.4085
51.2805
52.1711
53.0796
53.9984
54.9016
55.7704
56.6058
57.4083
58.1788
58.9183
59.6277
60.3079
60.9601
61.5852
42.3525
43.0487
43.7662
44.5051
45.2654
46.047
46.8498
47.6735
48.5177
49.3818
50.2654
51.1611
52.0437
52.8947
53.7146
54.504
55.2634
55.9936
56.6953
57.3693
58.0164
58.6375
40.1205
40.7853
41.4715
42.1794
42.9089
43.6603
44.4334
45.228
46.044
46.881
47.7384
48.6095
49.4695
50.3006
51.1028
51.8766
52.6225
53.3408
54.0324
54.6976
55.3374
55.9523
38.1335
38.7689
39.4257
40.1042
40.8046
41.527
42.2714
43.0378
43.8261
44.636
45.4671
46.313
47.1497
47.9595
48.7427
49.4994
50.2299
50.9347
51.6142
52.2689
52.8994
53.5063
36.3576
36.9659
37.5955
38.2467
38.9199
39.6151
40.3324
41.072
41.8337
42.6173
43.4228
44.2437
45.0569
45.8452
46.6087
47.3475
48.0617
48.7518
49.418
50.0607
50.6806
51.2779
34.7634
35.347
35.9517
36.5779
37.226
37.8961
38.5883
39.3028
40.0396
40.7984
41.5793
42.3761
43.1665
43.9336
44.6775
45.3981
46.0956
46.7704
47.4225
48.0525
48.6607
49.2475
33.3252
33.8863
34.4684
35.072
35.6973
36.3446
37.014
37.7056
38.4193
39.1552
39.9131
40.6873
41.4559
42.2026
42.9274
43.6302
44.3112
44.9706
45.6085
46.2253
46.8213
47.3969
32.0201
32.5608
33.1226
33.7059
34.3108
34.9378
35.5867
36.2577
36.9508
37.6659
38.4029
39.1562
39.9046
40.6321
41.3388
42.0246
42.6897
43.3341
43.9581
44.5618
45.1456
45.7097
30.8279
31.3502
31.8938
32.4589
33.046
33.6549
34.286
34.939
35.614
36.3108
37.0293
37.7639
38.4939
39.2039
39.8938
40.5637
41.2136
41.8438
42.4545
43.0458
43.6179
44.171
99.577
90.9407
82.7814
75.2219
68.4135
62.6013
220.624
228.14
235.189
240.539
242.99
241.726
249.885
249.804
249.75
249.601
249.29
248.82
247.437
248.718
250.167
251.749
253.419
255.113
255.847
257.444
259.188
261.052
262.973
264.886
247.506
249.533
251.645
253.811
255.967
258.055
227.75
229.554
231.388
233.231
235.066
236.881
201.23
202.659
204.116
205.592
207.071
208.534
175.64
176.631
177.65
178.689
179.74
180.8
153.007
153.669
154.333
155.002
155.678
156.353
134.649
135.048
135.452
135.858
136.266
136.676
120.139
120.349
120.561
120.777
120.995
121.215
109.007
109.1
109.192
109.283
109.374
109.463
100.157
100.181
100.201
100.218
100.231
100.241
93.0432
93.0386
93.0265
93.0071
92.9803
92.9458
86.952
86.9339
86.906
86.8685
86.8215
86.7645
81.641
81.6228
81.5926
81.5506
81.4967
81.4307
76.8787
76.8652
76.8387
76.7993
76.7471
76.6819
72.5867
72.5817
72.5628
72.53
72.4833
72.4226
68.6875
68.6914
68.6808
68.656
68.6168
68.5632
65.1396
65.1521
65.1498
65.133
65.1015
65.0554
61.9066
61.9264
61.9315
61.9219
61.8977
61.8587
58.9601
58.9859
58.9971
58.9937
58.9757
58.943
56.2743
56.3048
56.3207
56.3223
56.3094
56.2821
53.8262
53.86
53.8796
53.8849
53.8761
53.853
51.5945
51.6306
51.6527
51.6609
51.6551
51.6354
49.5598
49.5972
49.621
49.6312
49.6276
49.6104
47.7041
47.7423
47.7671
47.7785
47.7765
47.7611
46.0113
46.0496
46.0749
46.0871
46.0861
46.072
44.4665
44.5044
44.5296
44.5421
44.542
44.529
58.4174
55.6516
53.7536
52.609
52.2545
52.6942
53.7735
55.3329
57.1825
59.2228
61.474
64.0928
67.3139
71.3629
76.429
82.5818
89.7757
97.8826
106.732
116.143
125.935
135.973
237.593
230.747
219.586
204.402
186.255
167.699
150.847
137.201
127.498
122.08
120.395
121.519
125.25
131.221
139.09
148.528
159.194
170.723
182.757
194.974
207.116
218.979
248.362
247.986
247.755
247.696
247.812
248.039
248.109
247.613
246.161
243.608
240.432
237.474
235.321
234.005
233.452
233.6
234.375
235.729
237.581
239.898
242.69
245.99
256.697
258.281
259.973
261.759
263.583
265.375
267.088
268.683
270.153
271.508
272.768
273.938
274.932
275.632
276.005
276.118
276.116
276.17
276.437
277.039
278.046
279.473
266.559
268.08
269.598
271.087
272.492
273.773
274.921
275.925
276.778
277.527
278.16
278.623
278.895
279.01
279.019
278.974
278.937
278.967
279.12
279.444
279.977
280.744
259.701
260.929
262.106
263.223
264.254
265.178
265.978
266.636
267.132
267.452
267.58
267.498
267.214
266.772
266.218
265.589
264.914
264.217
263.519
262.829
262.144
261.457
238.045
238.531
238.933
239.245
239.46
239.573
239.579
239.466
239.225
238.846
238.325
237.667
236.897
236.04
235.109
234.114
233.064
231.967
230.832
229.666
228.48
227.268
209.258
209.221
209.116
208.944
208.699
208.374
207.959
207.446
206.821
206.068
205.168
204.108
202.91
201.61
200.223
198.758
197.226
195.637
193.999
192.323
190.611
188.9
181.11
180.633
180.101
179.505
178.836
178.087
177.252
176.324
175.297
174.161
172.909
171.543
170.098
168.606
167.074
165.505
163.907
162.286
160.646
158.996
157.34
155.688
156.349
155.625
154.861
154.055
153.199
152.288
151.314
150.269
149.144
147.932
146.62
145.21
143.734
142.23
140.706
139.168
137.618
136.057
134.491
132.927
131.371
129.831
136.477
135.643
134.777
133.874
132.929
131.937
130.893
129.791
128.625
127.39
126.081
124.702
123.288
121.873
120.457
119.045
117.638
116.24
114.854
113.482
112.128
110.794
120.919
120.085
119.224
118.334
117.41
116.448
115.445
114.396
113.296
112.141
110.926
109.654
108.36
107.071
105.789
104.517
103.254
102
100.759
99.5332
98.3259
97.1408
109.111
108.302
107.469
106.609
105.718
104.793
103.832
102.83
101.784
100.691
99.5464
98.3565
97.1522
95.9592
94.7787
93.6117
92.4595
91.3236
90.2053
89.1056
88.0256
86.9665
99.8681
99.0989
98.3058
97.4863
96.6379
95.758
94.8438
93.8926
92.9016
91.8682
90.7896
89.6709
88.5421
87.4273
86.3276
85.2439
84.1766
83.1256
82.0905
81.0723
80.0725
79.0929
92.5619
91.8212
91.0551
90.2613
89.4377
88.5822
87.6926
86.7668
85.8027
84.7984
83.7522
82.6707
81.5843
80.5159
79.4654
78.433
77.4187
76.4226
75.445
74.4862
73.5463
72.6257
86.3786
85.6588
84.9136
84.1415
83.3408
82.5097
81.6464
80.7491
79.816
78.8451
77.8344
76.7898
75.7411
74.7119
73.703
72.7135
71.743
70.7912
69.858
68.9434
68.0469
67.1692
81.0465
80.3421
79.6129
78.8574
78.0744
77.2622
76.4194
75.5445
74.636
73.6925
72.7128
71.7029
70.6904
69.6961
68.7193
67.7593
66.8167
65.8932
64.9901
64.1074
63.2444
62.4012
76.3046
75.6144
74.8999
74.1598
73.3929
72.5981
71.774
70.9194
70.0331
69.1138
68.1601
67.1781
66.194
65.2284
64.2812
63.3528
62.4439
61.5548
60.6855
59.836
59.0062
58.1959
72.0535
71.3765
70.6759
69.9504
69.199
68.4207
67.6144
66.7789
65.9131
65.016
64.0863
63.1299
62.1728
61.2349
60.3166
59.4179
58.539
57.6801
56.8411
56.0219
55.2225
54.4426
68.2038
67.5401
66.8533
66.1424
65.4064
64.6444
63.8555
63.0386
62.1928
61.3169
60.4102
59.4783
58.5468
57.635
56.7431
55.8711
55.019
54.187
53.3748
52.5824
51.8097
51.0565
64.706
64.0555
63.3825
62.6861
61.9655
61.2198
60.4481
59.6496
58.8233
57.9684
57.084
56.1759
55.2691
54.3822
53.5154
52.6688
51.8423
51.036
50.2498
49.4835
48.7373
48.0108
61.5193
60.8821
60.2229
59.5411
58.8358
58.1063
57.3517
56.5713
55.7643
54.9298
54.0673
53.1823
52.2991
51.4363
50.5937
49.7714
48.9695
48.1879
47.4267
46.6856
45.9647
45.2637
58.6133
57.9892
57.3437
56.6764
55.9863
55.2728
54.5351
53.7726
52.9845
52.1701
51.3289
50.4665
49.6065
48.767
47.948
47.1496
46.3718
45.6145
44.8778
44.1616
43.4657
42.79
55.9615
55.3504
54.7186
54.0655
53.3904
52.6927
51.9717
51.2268
50.4573
49.6626
48.8423
48.0019
47.1647
46.3481
45.5522
44.7771
44.0228
43.2893
42.5766
41.8846
41.2131
40.562
53.541
52.9427
52.3243
51.6853
51.0251
50.3429
49.6383
48.9107
48.1594
47.3841
46.5842
45.7654
44.9503
44.1561
43.3827
42.6304
41.8991
41.1888
40.4995
39.831
39.1833
38.556
51.3314
50.7456
50.1405
49.5153
48.8696
48.2027
47.5141
46.8033
46.0699
45.3134
44.5334
43.7356
42.9421
42.1695
41.4181
40.6878
39.9786
39.2907
38.6239
37.9781
37.3532
36.7488
49.3139
48.7405
48.1483
47.5367
46.9051
46.2531
45.5801
44.8857
44.1695
43.4312
42.6705
41.8928
41.1201
40.3683
39.6378
38.9285
38.2405
37.5738
36.9284
36.3041
35.7008
35.1181
47.4716
46.9104
46.3308
45.7323
45.1144
44.4767
43.8187
43.14
42.4403
41.7194
40.977
40.2186
39.4654
38.7333
38.0224
37.3328
36.6646
36.0179
35.3925
34.7883
34.2052
33.6428
45.7892
45.2397
44.6722
44.0861
43.4812
42.8571
42.2133
41.5495
40.8655
40.1609
39.4357
38.6952
37.9602
37.2462
36.5534
35.8819
35.2319
34.6034
33.9964
33.4108
32.8464
32.3029
44.2527
43.714
43.1575
42.583
41.9903
41.3789
40.7484
40.0986
39.4291
38.7397
38.0303
37.306
36.5874
35.8897
35.2131
34.5578
33.9241
33.3121
32.7218
32.1531
31.6059
31.0799
144.352
151.298
159.148
167.813
177.157
186.992
197.158
207.44
217.511
227.197
237.049
248.486
263.883
285.96
315.501
348.894
382.341
412.05
437.308
457.601
468.888
474.796
473.585
466.839
449.518
420.949
389.718
360.441
333.598
307.883
281.033
249.948
211.825
160.14
134.751
228.34
235.827
244.077
253.107
262.957
273.724
285.597
298.911
314.183
332.208
354.107
381.428
416.312
454.697
496.768
537.38
567.212
582.269
585.068
581.593
579.924
598.566
666.065
810.598
999.688
1096.13
1072.73
1034.33
1001.44
961.982
910.967
843.387
751.092
611.333
369.976
249.063
251.753
255.184
259.653
265.593
273.654
284.811
300.448
322.177
350.685
382.629
404.858
404.186
394.211
378.807
364.134
353.539
347.571
339.216
333.714
348.407
424.737
595.65
812.804
1024.04
1148.26
1166.29
1090.76
971.073
866.788
780.147
701.565
603.892
458.754
235.895
280.877
282.048
283.532
285.5
288.162
291.76
296.535
302.657
310.132
318.699
327.683
335.9
340.984
338.678
323.313
298.963
276.076
252.027
226.831
211.779
205.927
204.151
212.707
240.131
274.077
309.286
340.874
350.52
338.32
308.875
274.003
234.466
186.331
122.965
57.9032
281.655
282.594
283.803
285.417
287.618
290.64
294.769
300.321
307.566
316.526
326.277
333.16
331.682
319.422
296.225
269.085
243.072
220.056
200.172
183.08
168.212
154.866
144.315
138.696
138.406
141.854
147.367
150.231
149.506
145.451
137.934
127.588
113.859
93.5354
61.0831
261.133
261.136
261.121
261.087
261.029
260.932
260.753
260.415
259.778
258.586
256.391
252.534
246.405
237.739
226.2
211.853
195.281
178.096
161.872
147.507
135.214
123.933
112.267
103.702
106.847
128.789
169.068
202.055
212.033
201.24
182.203
162.617
141.488
113.474
68.6651
226.631
226.544
226.408
226.224
226.001
225.752
225.499
225.267
225.057
224.816
224.351
223.161
219.986
213.669
203.501
190.409
176.008
161.567
147.825
135.146
123.61
112.463
100.033
83.9582
69.7224
78.7889
110.125
140.57
158.427
161.569
147.57
124.802
101.17
73.6203
36.1281
187.914
187.632
187.29
186.858
186.294
185.555
184.591
183.341
181.733
179.683
177.073
173.724
169.413
163.85
156.906
148.33
138.326
127.122
115.198
103.139
91.5679
80.4361
69.324
58.3636
47.6485
38.4657
32.4543
28.8631
26.3822
24.1161
22.6749
21.3984
17.8293
12.7774
6.95017
154.745
154.479
154.157
153.766
153.289
152.715
152.034
151.22
150.23
148.981
147.312
144.93
141.471
136.659
130.198
122.433
113.958
105.19
96.3779
87.672
79.2
70.8438
63.3265
57.2173
52.111
47.876
44.3346
41.2677
38.4705
35.654
32.725
29.535
25.7705
20.6089
12.8399
128.939
128.662
128.347
127.978
127.533
126.985
126.296
125.418
124.287
122.82
120.936
118.535
115.497
111.694
107.033
101.706
95.9682
89.8029
83.3592
76.8921
70.6
64.4272
58.8111
54.1183
50.1031
46.5451
43.2851
40.2058
37.209
34.2037
31.0883
27.7152
23.7921
18.5194
8.93815
110.009
109.737
109.422
109.054
108.622
108.112
107.503
106.773
105.887
104.796
103.418
101.608
99.2541
96.2335
92.4946
88.2203
83.6508
78.9231
74.1573
69.454
64.8802
60.3484
56.1728
52.6452
49.6006
46.8877
44.3754
41.9514
39.5171
36.9708
34.1922
31.0051
27.0712
21.5004
12.0943
96.4265
96.1497
95.8349
95.4729
95.0515
94.5552
93.9645
93.2547
92.3943
91.3434
90.0514
88.4557
86.485
84.0622
81.1102
77.7961
74.3046
70.6844
66.9883
63.1838
59.336
55.3977
51.6178
48.2918
45.3157
42.5821
39.9977
37.4875
34.9789
32.3999
29.6623
26.6293
23.0234
18.065
8.82504
86.3173
86.0455
85.7339
85.3761
84.964
84.4874
83.9338
83.2871
82.5246
81.6131
80.497
79.1226
77.4389
75.38
72.8995
70.1209
67.175
64.1
60.9455
57.7623
54.5643
51.2684
48.0615
45.2037
42.6211
40.2407
37.9913
35.8033
33.6048
31.3156
28.8364
26.0193
22.5823
17.7756
9.31025
78.4847
78.2165
77.9106
77.5601
77.1567
76.6899
76.1467
75.5119
74.7661
73.8834
72.8319
71.5748
70.069
68.2668
66.1249
63.7502
61.2678
58.6968
56.0474
53.3069
50.4637
47.4277
44.3979
41.6602
39.1648
36.8516
34.6576
32.5273
30.407
28.236
25.9346
23.3764
20.3084
16.0193
7.74585
72.0517
71.7939
71.4996
71.1636
70.7791
70.3378
69.8292
69.239
68.5466
67.7267
66.7561
65.6068
64.2455
62.6327
60.7291
58.6306
56.4267
54.1258
51.7281
49.2337
46.6488
43.9069
41.174
38.6825
36.3819
34.2262
32.1702
30.169
28.1735
26.1251
23.9464
21.5175
18.6053
14.5813
7.23676
66.6204
66.3716
66.0894
65.7672
65.3975
64.9719
64.4805
63.9111
63.2487
62.4751
61.5689
60.5049
59.2535
57.7808
56.0608
54.1573
52.1739
50.1083
47.9593
45.7179
43.3759
40.8616
38.3129
35.9626
33.7849
31.7483
29.8133
27.9409
26.0901
24.2111
22.2352
20.051
17.4347
13.7585
6.58883
61.8765
61.6411
61.3733
61.068
60.7194
60.3198
59.8592
59.324
58.7016
57.9771
57.1326
56.1466
54.9937
53.644
52.0747
50.3427
48.5318
46.6357
44.6558
42.5885
40.4265
38.0943
35.7171
33.5133
31.457
29.5189
27.6666
25.8665
24.0818
22.2665
20.3578
18.255
15.7601
12.3314
5.8882
57.6926
57.4685
57.2141
56.9244
56.593
56.2125
55.7745
55.269
54.6844
54.0066
53.2191
52.3023
51.2333
49.9848
48.5365
46.9434
45.2711
43.5265
41.7022
39.7953
37.7965
35.631
33.4137
31.3561
29.4377
27.6338
25.9166
24.2548
22.6143
20.9537
19.2157
17.306
15.0339
11.8668
5.67272
53.9612
53.7504
53.5096
53.2345
52.9206
52.561
52.1477
51.6716
51.1223
50.4873
49.7517
48.8978
47.9046
46.7473
45.4071
43.9347
42.3907
40.7747
39.0838
37.313
35.4536
33.4368
31.3659
29.4306
27.6103
25.8819
24.2211
22.6015
20.9945
19.3642
17.6603
15.7995
13.6121
10.6239
4.904
50.5944
50.3967
50.1709
49.9129
49.6178
49.2796
48.8915
48.4452
47.931
47.3373
46.6506
45.8546
44.93
43.8538
42.6088
41.2417
39.8085
38.3075
36.7354
35.0868
33.352
31.4653
29.5181
27.695
25.9816
24.3586
22.8052
21.2979
19.8096
18.3064
16.7403
15.0313
13.0152
10.2337
4.84363
47.5677
47.3819
47.1697
46.9273
46.6501
46.3325
45.9683
45.5498
45.0683
44.513
43.8714
43.1287
42.267
41.2651
40.1068
38.8353
37.502
36.1047
34.6396
33.1005
31.4777
29.7096
27.8837
26.1674
24.5457
23.003
21.5202
20.0755
18.6438
17.1942
15.6827
14.0359
12.1027
9.45738
4.30595
44.8383
44.6633
44.4639
44.2362
43.976
43.6782
43.337
42.9451
42.4945
41.9753
41.3759
40.6825
39.8786
38.9444
37.8648
36.6796
35.4364
34.1324
32.7633
31.323
29.8018
28.1416
26.4243
24.8074
23.2757
21.8167
20.4149
19.0518
17.7055
16.3464
14.9317
13.3906
11.5775
9.08623
4.27968
42.382
42.2171
42.0292
41.8151
41.5705
41.2909
40.9707
40.6034
40.1813
39.6954
39.1349
38.487
37.7362
36.8642
35.8566
34.7502
33.5888
32.3694
31.0874
29.7364
28.3068
26.7433
25.1223
23.5927
22.1417
20.7554
19.4192
18.1177
16.8297
15.5271
14.1697
12.6906
10.9524
8.57213
3.97983
40.1706
40.0149
39.8378
39.6361
39.4061
39.1433
38.8426
38.4981
38.1025
37.6474
37.1228
36.5168
35.8151
35
34.0582
33.0236
31.9366
30.7938
29.5906
28.3202
26.9734
25.4976
23.9646
22.516
21.1408
19.8266
18.5595
17.3231
16.0973
14.8571
13.5652
12.1582
10.5048
8.23768
3.88952
38.1807
38.0335
37.8663
37.6761
37.4594
37.2122
36.9296
36.6061
36.2349
35.8083
35.317
34.7496
34.0929
33.3302
32.4486
31.4794
30.4599
29.3866
28.2544
27.0568
25.7844
24.3872
22.9324
21.5549
20.2449
18.991
17.78
16.5964
15.4216
14.2308
12.9888
11.6358
10.0463
7.86954
3.69953
36.3886
36.2494
36.0915
35.912
35.7078
35.4751
35.2093
34.9053
34.5569
34.1568
33.6962
33.1646
32.5493
31.8347
31.0082
30.0985
29.1404
28.1298
27.0617
25.9296
24.7242
23.3975
22.0132
20.7
19.4494
18.2509
17.0924
15.9594
14.8344
13.694
12.5039
11.2058
9.67902
7.58729
3.60008
34.7724
34.6408
34.4916
34.3224
34.1299
33.9108
33.6609
33.3752
33.0481
32.6727
32.2407
31.7423
31.1653
30.4949
29.7188
28.8634
27.9608
27.007
25.9967
24.9234
23.7781
22.5147
21.1933
19.9374
18.7392
17.5892
16.476
15.386
14.3025
13.203
12.0547
10.8015
9.32765
7.30983
3.46989
33.3109
33.1866
33.046
32.8865
32.7054
32.4994
32.2646
31.9965
31.6895
31.3374
30.9323
30.4648
29.9233
29.2936
28.5637
27.7578
26.9055
26.0029
25.0447
24.0242
22.9328
21.7263
20.4614
19.2569
18.1059
16.9998
15.9279
14.8774
13.8323
12.7713
11.6628
10.4525
9.02856
7.07877
3.37921
31.9842
31.8673
31.7351
31.5854
31.4155
31.2223
31.0022
30.7509
30.4634
30.1335
29.7538
29.3153
28.8071
28.2151
27.5275
26.7666
25.9601
25.1036
24.1922
23.2192
22.1762
21.0205
19.8063
18.6479
17.5392
16.4723
15.437
14.4214
13.4101
12.3827
11.3084
10.135
8.75409
6.86361
3.28504
30.7737
30.6644
30.541
30.4011
30.2425
30.0622
29.8568
29.6221
29.3535
29.0451
28.6898
28.2789
27.8017
27.2447
26.5962
25.8764
25.1112
24.2965
23.4271
22.4968
21.4972
20.3872
19.2186
18.1016
17.031
15.9994
14.9973
14.0134
13.0329
12.0361
10.9933
9.85383
8.51245
6.67605
3.20875
3.20958
6.60785
8.41967
9.74194
10.8627
11.8855
12.86
13.8152
14.7699
15.7379
16.7295
17.753
18.8144
19.9175
20.9574
21.8873
22.7466
23.5438
24.2856
24.9774
25.6238
26.2025
26.697
27.119
27.4814
27.7943
28.0656
28.302
28.5085
28.6896
28.8488
28.9891
29.1131
29.2228
29.3202
3.13576
6.42874
8.18968
9.47495
10.564
11.5574
12.5034
13.4299
14.3553
15.2926
16.2516
17.2402
18.2637
19.3253
20.3233
21.2134
22.0332
22.791
23.4931
24.1446
24.7498
25.288
25.7447
26.1318
26.462
26.7454
26.9897
27.2014
27.3855
27.5462
27.687
27.8106
27.9196
28.0158
28.101
3.06988
6.26873
7.98414
9.23631
10.297
11.2641
12.1847
13.0857
13.9848
14.8948
15.825
16.7826
17.7726
18.7976
19.759
20.6143
21.3998
22.1233
22.7907
23.4067
23.9752
24.4767
24.8986
25.2528
25.5522
25.8066
26.0239
26.2104
26.3713
26.5105
26.6316
26.7372
26.8296
26.9108
26.9823
3.01109
6.12489
7.79931
9.0217
10.0569
11.0004
11.8979
12.776
13.6516
14.5371
15.4414
16.3714