/*--------------------------------*- C++ -*----------------------------------*\
  =========                 |
  \\      /  F ield         | OpenFOAM: The Open Source CFD Toolbox
   \\    /   O peration     | Website:  https://openfoam.org
    \\  /    A nd           | Version:  8
     \\/     M anipulation  |
\*---------------------------------------------------------------------------*/
FoamFile
{
    version     2.0;
    format      ascii;
    class       volVectorField;
    location    "0.18";
    object      U;
}
// * * * * * * * * * * * * * * * * * * * * * * * * * * * * * * * * * * * * * //

dimensions      [0 1 -1 0 0 0 0];

internalField   nonuniform List<vector> 
15677
(
(-0.12209 -126.136 0)
(-0.198203 -127.119 0)
(-0.223265 -122.146 0)
(-0.220406 -117.036 0)
(-0.183883 -111.98 0)
(-0.133389 -106.983 0)
(-0.0610338 -102.002 0)
(0.0688095 -96.8566 0)
(0.304047 -91.1778 0)
(0.664954 -84.8351 0)
(1.48103 -78.3498 0)
(2.85428 -72.6164 0)
(4.84237 -68.5431 0)
(7.18801 -66.3915 0)
(9.37741 -65.7884 0)
(11.1551 -66.124 0)
(12.573 -67.0902 0)
(13.6941 -68.6885 0)
(14.5355 -70.7295 0)
(15.0876 -72.91 0)
(15.42 -74.7836 0)
(15.5333 -75.9173 0)
(15.4855 -76.4997 0)
(15.3258 -76.7216 0)
(15.1016 -76.6791 0)
(14.8451 -76.414 0)
(14.5795 -75.9542 0)
(14.3264 -75.3322 0)
(14.1033 -74.5792 0)
(13.9187 -73.7265 0)
(13.7744 -72.8316 0)
(13.6707 -71.972 0)
(13.6056 -71.1954 0)
(13.5728 -70.5216 0)
(13.589 -69.9608 0)
(-1.79779 114.558 0)
(-5.05115 112.517 0)
(-8.92476 108.133 0)
(-13.203 103.564 0)
(-17.8288 98.6761 0)
(-22.6376 93.2806 0)
(-27.463 87.1348 0)
(-32.0629 79.9183 0)
(-36.0601 71.0526 0)
(-38.7153 59.3569 0)
(-39.4957 46.1208 0)
(-37.9015 33.8205 0)
(-34.1869 26.7594 0)
(-28.8836 25.708 0)
(-23.2071 28.8755 0)
(-17.969 33.3048 0)
(-13.1683 37.882 0)
(-8.80071 42.6938 0)
(-4.8694 47.6174 0)
(-1.3468 52.3341 0)
(1.7907 56.6385 0)
(4.39931 60.3758 0)
(6.42652 63.5196 0)
(8.04031 66.1265 0)
(9.3702 68.2614 0)
(10.5195 69.985 0)
(11.5254 71.3405 0)
(12.3798 72.2848 0)
(13.1046 72.8249 0)
(13.7238 73.1038 0)
(14.2527 73.2145 0)
(14.7063 73.1957 0)
(15.0956 73.049 0)
(15.4238 72.7664 0)
(15.6941 72.3419 0)
(-0.137685 65.0093 0)
(-0.0706484 60.7207 0)
(0.117771 55.6638 0)
(0.374422 49.6985 0)
(0.649889 42.3908 0)
(0.907615 33.3462 0)
(1.10016 22.1284 0)
(1.14251 8.21335 0)
(0.904799 -8.83799 0)
(0.250219 -28.7905 0)
(-1.29858 -48.9095 0)
(-4.12612 -64.8235 0)
(-8.42561 -73.6318 0)
(-13.7631 -76.2684 0)
(-17.8044 -74.5701 0)
(-19.7795 -72.0871 0)
(-20.0994 -69.4478 0)
(-19.3208 -67.2643 0)
(-17.8214 -65.355 0)
(-15.8339 -63.8372 0)
(-13.5772 -62.4507 0)
(-11.2092 -61.115 0)
(-8.98081 -60.0205 0)
(-6.99407 -59.2738 0)
(-5.29478 -58.8583 0)
(-3.89004 -58.7086 0)
(-2.74548 -58.7313 0)
(-1.79911 -58.83 0)
(-1.02752 -58.9328 0)
(-0.390491 -59.12 0)
(0.145756 -59.4083 0)
(0.597198 -59.7733 0)
(0.989328 -60.1994 0)
(1.34137 -60.6735 0)
(1.66183 -61.1835 0)
(0.923609 73.459 0)
(2.28144 74.1491 0)
(3.64427 72.2567 0)
(5.05048 69.5942 0)
(6.51705 66.4319 0)
(7.99065 62.791 0)
(9.42675 58.6056 0)
(10.6824 54.2738 0)
(11.6651 50.5312 0)
(11.9124 48.5816 0)
(10.8353 49.0811 0)
(8.43322 49.6437 0)
(5.23286 47.1729 0)
(2.58512 39.1765 0)
(1.50934 24.6937 0)
(1.73014 11.1727 0)
(2.57352 2.33956 0)
(3.93676 -1.56541 0)
(5.27117 -2.46739 0)
(6.52329 -1.19654 0)
(7.80937 1.22378 0)
(8.93332 4.68897 0)
(9.83981 8.93428 0)
(10.446 13.5593 0)
(10.7325 18.3239 0)
(10.7384 23.1102 0)
(10.4858 27.7786 0)
(10.0044 32.0796 0)
(9.34234 35.7921 0)
(8.54321 38.7599 0)
(7.67134 41.1048 0)
(6.74762 42.9535 0)
(5.79676 44.403 0)
(4.83092 45.5309 0)
(3.87473 46.4002 0)
(0.265756 33.7271 0)
(0.649591 32.7479 0)
(1.24814 30.2768 0)
(1.92531 27.509 0)
(2.66667 24.318 0)
(3.44557 20.6206 0)
(4.20916 16.3893 0)
(4.91659 11.4704 0)
(5.52843 5.70714 0)
(6.09861 -0.983202 0)
(6.84457 -8.52883 0)
(7.97725 -17.0868 0)
(9.42847 -27.0668 0)
(10.8691 -37.4062 0)
(10.6743 -44.4584 0)
(8.63547 -48.2236 0)
(5.22037 -49.5818 0)
(1.26172 -48.6076 0)
(-2.45559 -46.8971 0)
(-5.79627 -45.4051 0)
(-8.75911 -44.1061 0)
(-11.2142 -42.8818 0)
(-13.091 -41.5285 0)
(-14.4622 -39.9478 0)
(-15.4047 -38.2245 0)
(-16.013 -36.4129 0)
(-16.3082 -34.5176 0)
(-16.3399 -32.5384 0)
(-16.1595 -30.4485 0)
(-15.8418 -28.2794 0)
(-15.4589 -26.2147 0)
(-15.0327 -24.3542 0)
(-14.5898 -22.7584 0)
(-14.1428 -21.4301 0)
(-13.698 -20.3448 0)
(0.535996 32.4777 0)
(1.42201 35.0287 0)
(2.35963 34.6805 0)
(3.35461 33.7371 0)
(4.43514 32.4282 0)
(5.62238 30.8405 0)
(6.94038 29.0298 0)
(8.44595 27.068 0)
(10.1734 25.0789 0)
(12.1463 23.1631 0)
(14.3344 21.354 0)
(16.4587 19.9293 0)
(18.1627 19.0949 0)
(18.5355 17.1539 0)
(17.9531 14.7265 0)
(16.6642 12.4906 0)
(14.9634 10.3037 0)
(13.2228 7.75496 0)
(11.6288 5.19607 0)
(10.17 3.47849 0)
(8.73333 3.114 0)
(7.38491 4.10406 0)
(6.15223 6.0389 0)
(5.00807 8.53896 0)
(3.94964 11.255 0)
(2.94484 13.8973 0)
(1.98543 16.2577 0)
(1.10238 18.235 0)
(0.311297 19.8705 0)
(-0.389809 21.189 0)
(-0.998213 22.2134 0)
(-1.52709 22.9788 0)
(-1.98399 23.5653 0)
(-2.3855 24.0256 0)
(-2.74221 24.3941 0)
(0.261649 10.5157 0)
(0.637974 11.7447 0)
(1.12536 10.9798 0)
(1.6372 9.66954 0)
(2.16786 7.82338 0)
(2.71213 5.34289 0)
(3.22801 2.04385 0)
(3.68503 -2.35566 0)
(4.04625 -7.86164 0)
(4.26301 -14.1943 0)
(4.29841 -20.0092 0)
(3.99606 -23.4443 0)
(3.49753 -24.332 0)
(3.04237 -23.7721 0)
(2.57996 -22.9036 0)
(2.12029 -22.0804 0)
(1.58043 -21.3805 0)
(0.830787 -20.7549 0)
(-0.245378 -20.111 0)
(-1.62873 -19.406 0)
(-3.21426 -18.6266 0)
(-4.76796 -17.7975 0)
(-6.06719 -16.8994 0)
(-7.04144 -15.9097 0)
(-7.68162 -14.8144 0)
(-8.01855 -13.6166 0)
(-8.12191 -12.3102 0)
(-8.10645 -10.9379 0)
(-8.03801 -9.6436 0)
(-7.91272 -8.4823 0)
(-7.7419 -7.47555 0)
(-7.54225 -6.62271 0)
(-7.32691 -5.91023 0)
(-7.10108 -5.31948 0)
(-6.87636 -4.83191 0)
(0.502282 5.46479 0)
(1.48926 9.16697 0)
(2.64727 10.6249 0)
(3.86745 11.1925 0)
(5.16503 11.3982 0)
(6.51471 11.4255 0)
(7.85451 11.4714 0)
(9.11247 11.7877 0)
(10.1073 12.5409 0)
(10.5904 14.1685 0)
(10.3718 15.3864 0)
(9.58822 14.6402 0)
(8.45589 12.769 0)
(7.18616 10.1186 0)
(6.05489 7.5306 0)
(5.11264 5.61054 0)
(4.25316 4.37224 0)
(3.452 3.69297 0)
(2.68421 3.48559 0)
(1.95114 3.73672 0)
(1.25783 4.42915 0)
(0.570041 5.48031 0)
(-0.118713 6.67292 0)
(-0.792741 7.8479 0)
(-1.40656 8.93738 0)
(-1.93939 9.89311 0)
(-2.38907 10.6837 0)
(-2.7499 11.3312 0)
(-3.01975 11.8892 0)
(-3.23029 12.3831 0)
(-3.4045 12.8183 0)
(-3.55409 13.1981 0)
(-3.68652 13.5261 0)
(-3.81243 13.8054 0)
(-3.92588 14.0232 0)
(-0.266373 -16.9086 0)
(-0.521889 -16.3076 0)
(-0.754241 -15.5095 0)
(-0.930804 -14.7523 0)
(-1.07222 -14.0211 0)
(-1.17738 -13.3112 0)
(-1.24544 -12.6226 0)
(-1.2524 -11.9464 0)
(-1.14613 -11.2376 0)
(-0.82011 -10.4332 0)
(-0.240589 -9.68665 0)
(0.472638 -9.25622 0)
(1.20841 -9.15972 0)
(1.78427 -9.05911 0)
(1.88377 -8.80547 0)
(1.57305 -8.56643 0)
(1.02112 -8.30374 0)
(0.313996 -8.04031 0)
(-0.485127 -7.75692 0)
(-1.30045 -7.38484 0)
(-2.08287 -6.90877 0)
(-2.73569 -6.32167 0)
(-3.18091 -5.636 0)
(-3.47836 -4.84657 0)
(-3.70689 -4.01178 0)
(-3.8781 -3.20374 0)
(-3.98972 -2.46401 0)
(-4.04857 -1.81262 0)
(-4.06075 -1.24425 0)
(-4.03312 -0.75039 0)
(-3.97439 -0.3274 0)
(-3.89278 0.0339178 0)
(-3.79448 0.342936 0)
(-3.68101 0.605725 0)
(-3.56113 0.823019 0)
(0.0261324 12.6136 0)
(0.069201 11.7703 0)
(0.109263 10.8067 0)
(0.143965 9.877 0)
(0.172185 8.97262 0)
(0.193841 8.10035 0)
(0.20845 7.27432 0)
(0.218192 6.51157 0)
(0.223399 5.82746 0)
(0.236336 5.2257 0)
(0.272481 4.68539 0)
(0.320273 4.20554 0)
(0.333456 3.82123 0)
(0.274437 3.54379 0)
(0.147095 3.37595 0)
(-0.0338666 3.31647 0)
(-0.263615 3.36715 0)
(-0.543643 3.53799 0)
(-0.877015 3.82747 0)
(-1.25721 4.22739 0)
(-1.65314 4.72935 0)
(-2.0118 5.26033 0)
(-2.30705 5.74324 0)
(-2.51254 6.18743 0)
(-2.64176 6.62466 0)
(-2.7228 7.04807 0)
(-2.77498 7.43901 0)
(-2.81123 7.78789 0)
(-2.84014 8.08827 0)
(-2.86695 8.33825 0)
(-2.89371 8.53893 0)
(-2.92134 8.70099 0)
(-2.95091 8.8363 0)
(-2.98476 8.9493 0)
(-3.01629 9.04203 0)
(-0.00167183 -13.7659 0)
(0.00824604 -13.0697 0)
(0.0259976 -12.1867 0)
(0.0503724 -11.3258 0)
(0.0787597 -10.484 0)
(0.106561 -9.66629 0)
(0.129727 -8.88192 0)
(0.144266 -8.14156 0)
(0.145213 -7.45473 0)
(0.128631 -6.8269 0)
(0.0867906 -6.25284 0)
(0.00770604 -5.71152 0)
(-0.118614 -5.19047 0)
(-0.299025 -4.68623 0)
(-0.508859 -4.23411 0)
(-0.717365 -3.84858 0)
(-0.927815 -3.5019 0)
(-1.12435 -3.15349 0)
(-1.32122 -2.76237 0)
(-1.53662 -2.29958 0)
(-1.77144 -1.75977 0)
(-2.01057 -1.18245 0)
(-2.22183 -0.62077 0)
(-2.39642 -0.095007 0)
(-2.52642 0.384466 0)
(-2.61217 0.818567 0)
(-2.6587 1.20728 0)
(-2.67003 1.54557 0)
(-2.65384 1.83324 0)
(-2.61724 2.07983 0)
(-2.5661 2.29513 0)
(-2.50588 2.48427 0)
(-2.43978 2.65152 0)
(-2.36931 2.80032 0)
(-2.2957 2.93931 0)
(-0.0299323 8.18356 0)
(-0.0841891 7.29131 0)
(-0.155404 6.45495 0)
(-0.235408 5.69554 0)
(-0.324284 4.98794 0)
(-0.418238 4.33066 0)
(-0.515302 3.73048 0)
(-0.613515 3.19651 0)
(-0.711372 2.73823 0)
(-0.808425 2.36376 0)
(-0.905855 2.07935 0)
(-1.00377 1.89061 0)
(-1.10907 1.80462 0)
(-1.22782 1.82763 0)
(-1.37302 1.95486 0)
(-1.54534 2.14967 0)
(-1.72619 2.38849 0)
(-1.90189 2.65673 0)
(-2.05466 2.93884 0)
(-2.16428 3.24512 0)
(-2.22834 3.57877 0)
(-2.25511 3.94181 0)
(-2.25609 4.30979 0)
(-2.24229 4.6386 0)
(-2.22038 4.92666 0)
(-2.19558 5.19047 0)
(-2.17124 5.43174 0)
(-2.14992 5.65011 0)
(-2.13441 5.83944 0)
(-2.12538 5.99688 0)
(-2.1219 6.12764 0)
(-2.12295 6.23731 0)
(-2.12789 6.32814 0)
(-2.13731 6.40236 0)
(-2.14719 6.46212 0)
(0.00352623 -8.78138 0)
(0.00775347 -8.13412 0)
(0.0131756 -7.44447 0)
(0.017113 -6.79972 0)
(0.0166318 -6.18626 0)
(0.00759193 -5.60111 0)
(-0.0132071 -5.04563 0)
(-0.0497405 -4.52382 0)
(-0.106222 -4.03899 0)
(-0.185696 -3.59091 0)
(-0.290597 -3.17612 0)
(-0.421351 -2.78736 0)
(-0.573615 -2.41579 0)
(-0.732995 -2.05699 0)
(-0.859564 -1.72801 0)
(-0.9688 -1.40614 0)
(-1.09359 -1.06027 0)
(-1.23354 -0.687176 0)
(-1.38399 -0.28773 0)
(-1.5361 0.133794 0)
(-1.68791 0.574447 0)
(-1.82423 1.01018 0)
(-1.92581 1.40874 0)
(-1.99223 1.76501 0)
(-2.03098 2.07979 0)
(-2.04713 2.35745 0)
(-2.04466 2.60163 0)
(-2.02612 2.81596 0)
(-1.99554 3.00427 0)
(-1.95685 3.17005 0)
(-1.91292 3.31679 0)
(-1.86613 3.44749 0)
(-1.81811 3.56465 0)
(-1.76926 3.67031 0)
(-1.71945 3.768 0)
(-0.0395848 5.43395 0)
(-0.104924 4.6957 0)
(-0.18418 4.0629 0)
(-0.270787 3.51136 0)
(-0.364983 3.01541 0)
(-0.464729 2.57022 0)
(-0.568771 2.17822 0)
(-0.675713 1.84469 0)
(-0.784648 1.57489 0)
(-0.895707 1.37325 0)
(-1.01088 1.24283 0)
(-1.13816 1.18635 0)
(-1.27866 1.20343 0)
(-1.43032 1.29384 0)
(-1.57885 1.43884 0)
(-1.69785 1.60121 0)
(-1.78419 1.78629 0)
(-1.84668 1.99435 0)
(-1.88809 2.22766 0)
(-1.90894 2.49209 0)
(-1.91069 2.78938 0)
(-1.8942 3.09506 0)
(-1.8683 3.37439 0)
(-1.83673 3.62294 0)
(-1.80223 3.84799 0)
(-1.76822 4.05086 0)
(-1.73583 4.23561 0)
(-1.70669 4.40304 0)
(-1.68196 4.54988 0)
(-1.66123 4.67453 0)
(-1.64413 4.77998 0)
(-1.63011 4.87019 0)
(-1.619 4.9469 0)
(-1.61107 5.01148 0)
(-1.60344 5.06524 0)
(0.010601 -5.13694 0)
(0.0197383 -4.58444 0)
(0.023748 -4.07156 0)
(0.022077 -3.60966 0)
(0.0129093 -3.18212 0)
(-0.00569401 -2.78524 0)
(-0.0358111 -2.41903 0)
(-0.078617 -2.08387 0)
(-0.135365 -1.77903 0)
(-0.208087 -1.50134 0)
(-0.29393 -1.24399 0)
(-0.394686 -0.999856 0)
(-0.516646 -0.754588 0)
(-0.662646 -0.490001 0)
(-0.818757 -0.21069 0)
(-0.968726 0.071155 0)
(-1.11088 0.361358 0)
(-1.24356 0.657849 0)
(-1.36398 0.963699 0)
(-1.46948 1.2826 0)
(-1.56 1.61095 0)
(-1.62835 1.93146 0)
(-1.66902 2.21811 0)
(-1.68778 2.46731 0)
(-1.69109 2.68701 0)
(-1.68196 2.88056 0)
(-1.66321 3.05164 0)
(-1.63694 3.20374 0)
(-1.6046 3.33789 0)
(-1.56837 3.45621 0)
(-1.53058 3.56154 0)
(-1.49251 3.65593 0)
(-1.455 3.74109 0)
(-1.41815 3.81841 0)
(-1.38088 3.88908 0)
(-0.0361694 3.80285 0)
(-0.0974155 3.29668 0)
(-0.16973 2.87363 0)
(-0.247291 2.51137 0)
(-0.330576 2.19207 0)
(-0.41846 1.91236 0)
(-0.510822 1.67325 0)
(-0.608057 1.4768 0)
(-0.710282 1.3245 0)
(-0.816089 1.21672 0)
(-0.924853 1.15233 0)
(-1.03334 1.12982 0)
(-1.13384 1.14994 0)
(-1.22691 1.2148 0)
(-1.31065 1.31912 0)
(-1.38166 1.44957 0)
(-1.43995 1.60579 0)
(-1.48738 1.78397 0)
(-1.52545 1.98125 0)
(-1.55194 2.20315 0)
(-1.56414 2.45443 0)
(-1.56108 2.69699 0)
(-1.54609 2.91012 0)
(-1.52436 3.10675 0)
(-1.49877 3.28504 0)
(-1.4714 3.44479 0)
(-1.4439 3.58669 0)
(-1.41716 3.71188 0)
(-1.39166 3.82197 0)
(-1.36843 3.91855 0)
(-1.34726 4.00292 0)
(-1.32801 4.07618 0)
(-1.3107 4.13942 0)
(-1.29549 4.19368 0)
(-1.28051 4.2399 0)
(0.0104502 -2.52001 0)
(0.0221147 -2.10139 0)
(0.0293642 -1.75756 0)
(0.0309155 -1.45891 0)
(0.0248127 -1.18904 0)
(0.00901812 -0.943449 0)
(-0.018911 -0.720342 0)
(-0.0610113 -0.51784 0)
(-0.119295 -0.332745 0)
(-0.195327 -0.160184 0)
(-0.290271 0.00664814 0)
(-0.404347 0.176466 0)
(-0.536697 0.352747 0)
(-0.686053 0.545453 0)
(-0.830545 0.74628 0)
(-0.957362 0.945757 0)
(-1.07109 1.15258 0)
(-1.16939 1.36996 0)
(-1.25307 1.59745 0)
(-1.32198 1.83311 0)
(-1.37313 2.07352 0)
(-1.40222 2.30286 0)
(-1.41483 2.50802 0)
(-1.41535 2.69015 0)
(-1.40638 2.8515 0)
(-1.39041 2.99418 0)
(-1.36939 3.12026 0)
(-1.34479 3.2318 0)
(-1.31828 3.33063 0)
(-1.29059 3.41819 0)
(-1.26226 3.49601 0)
(-1.23423 3.56552 0)
(-1.20715 3.62795 0)
(-1.18116 3.68422 0)
(-1.15482 3.73517 0)
(-0.0374868 2.60927 0)
(-0.0971427 2.30857 0)
(-0.163623 2.06595 0)
(-0.231635 1.86424 0)
(-0.301623 1.69173 0)
(-0.372317 1.54577 0)
(-0.443199 1.42586 0)
(-0.513912 1.33205 0)
(-0.584549 1.26446 0)
(-0.65503 1.22287 0)
(-0.727614 1.20685 0)
(-0.802163 1.21613 0)
(-0.877432 1.25247 0)
(-0.955569 1.32036 0)
(-1.03031 1.41753 0)
(-1.09752 1.53372 0)
(-1.15871 1.66868 0)
(-1.21279 1.82017 0)
(-1.25712 1.98632 0)
(-1.29023 2.16706 0)
(-1.31011 2.35753 0)
(-1.31573 2.54397 0)
(-1.31097 2.71598 0)
(-1.2988 2.87164 0)
(-1.28164 3.01132 0)
(-1.26143 3.13584 0)
(-1.23964 3.24628 0)
(-1.21738 3.34382 0)
(-1.19547 3.42962 0)
(-1.17416 3.50491 0)
(-1.15398 3.57101 0)
(-1.1352 3.629 0)
(-1.11798 3.67966 0)
(-1.10161 3.72378 0)
(-1.08568 3.76241 0)
(0.00753416 -0.482306 0)
(0.0117093 -0.245523 0)
(0.00945751 -0.0742877 0)
(0.000957927 0.0710955 0)
(-0.0156895 0.201626 0)
(-0.0417969 0.320352 0)
(-0.0787231 0.42939 0)
(-0.127838 0.531479 0)
(-0.189975 0.629405 0)
(-0.265487 0.726398 0)
(-0.354163 0.825791 0)
(-0.455262 0.929476 0)
(-0.567747 1.04195 0)
(-0.689399 1.17011 0)
(-0.804115 1.30731 0)
(-0.903312 1.44829 0)
(-0.989542 1.59865 0)
(-1.06327 1.75766 0)
(-1.12416 1.92409 0)
(-1.17178 2.09668 0)
(-1.2054 2.27276 0)
(-1.22439 2.44286 0)
(-1.23069 2.59717 0)
(-1.22747 2.73506 0)
(-1.21742 2.85767 0)
(-1.20256 2.96636 0)
(-1.18446 3.06255 0)
(-1.16432 3.14762 0)
(-1.14303 3.2229 0)
(-1.12135 3.28962 0)
(-1.09996 3.34883 0)
(-1.07911 3.4014 0)
(-1.05874 3.44827 0)
(-1.03927 3.49039 0)
(-1.02056 3.52835 0)
(-0.0202354 1.86471 0)
(-0.0589591 1.77957 0)
(-0.100762 1.69202 0)
(-0.145984 1.61604 0)
(-0.194144 1.55043 0)
(-0.244769 1.49538 0)
(-0.297998 1.45169 0)
(-0.354084 1.42009 0)
(-0.413335 1.401 0)
(-0.477093 1.39486 0)
(-0.545075 1.40224 0)
(-0.616765 1.42486 0)
(-0.693342 1.46564 0)
(-0.773788 1.52969 0)
(-0.851067 1.61548 0)
(-0.921789 1.71423 0)
(-0.986037 1.82635 0)
(-1.04213 1.95025 0)
(-1.0889 2.08405 0)
(-1.12514 2.22595 0)
(-1.14996 2.37385 0)
(-1.16255 2.51923 0)
(-1.16468 2.65282 0)
(-1.15909 2.77333 0)
(-1.14809 2.88126 0)
(-1.1335 2.9774 0)
(-1.11673 3.06273 0)
(-1.09884 3.13823 0)
(-1.0806 3.20491 0)
(-1.06256 3.26368 0)
(-1.04507 3.31542 0)
(-1.02832 3.36101 0)
(-1.01256 3.40133 0)
(-0.99794 3.43703 0)
(-0.983697 3.46856 0)
(-0.000487891 0.639952 0)
(-0.00861892 0.795196 0)
(-0.0209191 0.888236 0)
(-0.0382829 0.962137 0)
(-0.0615105 1.02694 0)
(-0.0916469 1.0862 0)
(-0.129675 1.14205 0)
(-0.176306 1.19653 0)
(-0.232241 1.25124 0)
(-0.298028 1.30636 0)
(-0.373805 1.36243 0)
(-0.459196 1.42196 0)
(-0.553323 1.48904 0)
(-0.655085 1.57071 0)
(-0.751426 1.66561 0)
(-0.834957 1.76758 0)
(-0.908531 1.87788 0)
(-0.971666 1.99541 0)
(-1.02403 2.11912 0)
(-1.06523 2.24782 0)
(-1.09503 2.38011 0)
(-1.11241 2.50873 0)
(-1.11884 2.62599 0)
(-1.11707 2.73116 0)
(-1.10941 2.82498 0)
(-1.09762 2.90836 0)
(-1.0831 2.9823 0)
(-1.06688 3.04781 0)
(-1.04975 3.10584 0)
(-1.03232 3.15729 0)
(-1.01502 3.20299 0)
(-0.998184 3.24364 0)
(-0.982022 3.27986 0)
(-0.966616 3.31213 0)
(-0.951686 3.3409 0)
(-0.0134432 1.66632 0)
(-0.0401341 1.69323 0)
(-0.0705892 1.6786 0)
(-0.104113 1.66041 0)
(-0.1414 1.64365 0)
(-0.182089 1.63018 0)
(-0.226486 1.6211 0)
(-0.275283 1.61728 0)
(-0.327453 1.61988 0)
(-0.382993 1.6299 0)
(-0.44371 1.64737 0)
(-0.509874 1.67381 0)
(-0.583423 1.71272 0)
(-0.665709 1.76835 0)
(-0.747032 1.83889 0)
(-0.820591 1.91828 0)
(-0.886944 2.00721 0)
(-0.944981 2.10427 0)
(-0.993843 2.20811 0)
(-1.03282 2.31738 0)
(-1.06135 2.43069 0)
(-1.07833 2.54166 0)
(-1.08504 2.64335 0)
(-1.084 2.73491 0)
(-1.07738 2.81682 0)
(-1.06689 2.88977 0)
(-1.05386 2.95452 0)
(-1.03929 3.01189 0)
(-1.02394 3.06266 0)
(-1.00837 3.10754 0)
(-0.992946 3.14721 0)
(-0.977949 3.18226 0)
(-0.963567 3.21324 0)
(-0.949929 3.24061 0)
(-0.936874 3.2648 0)
(-0.00528694 1.26401 0)
(-0.0184115 1.39045 0)
(-0.0358965 1.45252 0)
(-0.0569165 1.49814 0)
(-0.0827727 1.53678 0)
(-0.114225 1.57102 0)
(-0.151674 1.60202 0)
(-0.196173 1.63036 0)
(-0.248445 1.65712 0)
(-0.307765 1.6849 0)
(-0.374353 1.71665 0)
(-0.449264 1.75484 0)
(-0.531939 1.80248 0)
(-0.621898 1.86265 0)
(-0.708554 1.93227 0)
(-0.785483 2.00681 0)
(-0.854344 2.0878 0)
(-0.914459 2.17459 0)
(-0.965255 2.26633 0)
(-1.00624 2.36205 0)
(-1.037 2.46069 0)
(-1.05633 2.55679 0)
(-1.06532 2.6445 0)
(-1.06643 2.72324 0)
(-1.06177 2.79351 0)
(-1.05301 2.85597 0)
(-1.04145 2.91135 0)
(-1.02809 2.96037 0)
(-1.01369 3.00374 0)
(-0.998822 3.0421 0)
(-0.983914 3.07605 0)
(-0.969278 3.10612 0)
(-0.955134 3.13277 0)
(-0.941627 3.15643 0)
(-0.928829 3.17748 0)
(-0.0120699 1.72852 0)
(-0.0315033 1.80592 0)
(-0.0573103 1.82358 0)
(-0.0853386 1.82979 0)
(-0.116172 1.83371 0)
(-0.150372 1.83814 0)
(-0.188113 1.84379 0)
(-0.229817 1.85125 0)
(-0.276881 1.86082 0)
(-0.330307 1.8734 0)
(-0.390672 1.89106 0)
(-0.458722 1.91595 0)
(-0.534734 1.95026 0)
(-0.618498 1.99675 0)
(-0.700522 2.05315 0)
(-0.774492 2.11491 0)
(-0.841565 2.18287 0)
(-0.900848 2.25624 0)
(-0.951585 2.33414 0)
(-0.993135 2.41561 0)
(-1.02496 2.49967 0)
(-1.0457 2.58159 0)
(-1.0562 2.65634 0)
(-1.05883 2.7234 0)
(-1.05563 2.78318 0)
(-1.04824 2.83626 0)
(-1.03797 2.88325 0)
(-1.02582 2.92478 0)
(-1.01255 2.96144 0)
(-0.998751 2.9938 0)
(-0.984849 3.02236 0)
(-0.971152 3.04758 0)
(-0.957871 3.06986 0)
(-0.945179 3.08958 0)
(-0.933363 3.10704 0)
(-0.00725416 1.65516 0)
(-0.0218894 1.77281 0)
(-0.0407867 1.8206 0)
(-0.0632175 1.85207 0)
(-0.0904556 1.8758 0)
(-0.121743 1.89575 0)
(-0.158344 1.91414 0)
(-0.200901 1.93212 0)
(-0.24964 1.95067 0)
(-0.305363 1.9707 0)
(-0.368609 1.99358 0)
(-0.439672 2.02118 0)
(-0.518514 2.05565 0)
(-0.604717 2.0995 0)
(-0.68848 2.15056 0)
(-0.763697 2.20523 0)
(-0.83194 2.26451 0)
(-0.892507 2.32789 0)
(-0.944753 2.39469 0)
(-0.988083 2.46412 0)
(-1.02197 2.53537 0)
(-1.04491 2.60443 0)
(-1.05754 2.66712 0)
(-1.06215 2.72309 0)
(-1.06075 2.77277 0)
(-1.05497 2.8167 0)
(-1.04608 2.85545 0)
(-1.03511 2.88958 0)
(-1.02285 2.91964 0)
(-1.00988 2.94611 0)
(-0.996657 2.96944 0)
(-0.983516 2.99003 0)
(-0.970675 3.00822 0)
(-0.958332 3.02432 0)
(-0.947051 3.03862 0)
(-0.00968199 1.88031 0)
(-0.0275781 1.98301 0)
(-0.0502817 2.016 0)
(-0.0750581 2.03429 0)
(-0.103646 2.04769 0)
(-0.135919 2.05878 0)
(-0.172496 2.06909 0)
(-0.214024 2.07973 0)
(-0.261125 2.0915 0)
(-0.31457 2.1053 0)
(-0.375136 2.12222 0)
(-0.443464 2.14368 0)
(-0.519877 2.17144 0)
(-0.604234 2.20764 0)
(-0.687048 2.25042 0)
(-0.762102 2.29647 0)
(-0.830794 2.34647 0)
(-0.892345 2.39984 0)
(-0.946049 2.45592 0)
(-0.991252 2.51398 0)
(-1.02736 2.57322 0)
(-1.05267 2.63028 0)
(-1.06761 2.68174 0)
(-1.07435 2.72737 0)
(-1.07487 2.76761 0)
(-1.07079 2.80297 0)
(-1.0634 2.83396 0)
(-1.05374 2.86112 0)
(-1.0426 2.88489 0)
(-1.03062 2.90573 0)
(-1.01825 2.924 0)
(-1.00583 2.94005 0)
(-0.993605 2.95418 0)
(-0.98179 2.96664 0)
(-0.971254 2.97767 0)
(-0.00782205 1.92392 0)
(-0.0240254 2.04758 0)
(-0.0445987 2.0909 0)
(-0.0681932 2.11653 0)
(-0.095764 2.13553 0)
(-0.12755 2.15132 0)
(-0.164158 2.16556 0)
(-0.206173 2.17931 0)
(-0.254197 2.19343 0)
(-0.30885 2.20874 0)
(-0.370727 2.2262 0)
(-0.440329 2.24701 0)
(-0.517929 2.27263 0)
(-0.603424 2.30487 0)
(-0.687368 2.34207 0)
(-0.763632 2.38153 0)
(-0.833779 2.42392 0)
(-0.897105 2.46876 0)
(-0.952934 2.51544 0)
(-1.00061 2.56331 0)
(-1.03951 2.61163 0)
(-1.06773 2.65761 0)
(-1.08544 2.69855 0)
(-1.09473 2.73439 0)
(-1.09754 2.7656 0)
(-1.09547 2.79268 0)
(-1.08983 2.81615 0)
(-1.08166 2.83647 0)
(-1.07179 2.85409 0)
(-1.06087 2.86937 0)
(-1.04939 2.88266 0)
(-1.03772 2.89425 0)
(-1.02608 2.90438 0)
(-1.01475 2.91328 0)
(-1.00493 2.92113 0)
(-0.00884061 2.05909 0)
(-0.0261471 2.18112 0)
(-0.0476905 2.22128 0)
(-0.0720986 2.24375 0)
(-0.10027 2.2597 0)
(-0.132438 2.27263 0)
(-0.169171 2.28415 0)
(-0.211061 2.29526 0)
(-0.258768 2.30673 0)
(-0.312987 2.3193 0)
(-0.374412 2.3338 0)
(-0.443663 2.35123 0)
(-0.521145 2.37281 0)
(-0.606906 2.40003 0)
(-0.691603 2.43136 0)
(-0.769042 2.46444 0)
(-0.840797 2.49972 0)
(-0.906168 2.53671 0)
(-0.964472 2.57481 0)
(-1.01503 2.61335 0)
(-1.05717 2.65164 0)
(-1.08879 2.68737 0)
(-1.10973 2.71849 0)
(-1.12199 2.74513 0)
(-1.12746 2.76779 0)
(-1.12776 2.78698 0)
(-1.12417 2.8032 0)
(-1.11778 2.81692 0)
(-1.10943 2.82854 0)
(-1.0998 2.83839 0)
(-1.08941 2.84677 0)
(-1.07865 2.85392 0)
(-1.06777 2.86006 0)
(-1.05706 2.86537 0)
(-1.04812 2.86999 0)
(-0.00823183 2.13644 0)
(-0.0250735 2.26898 0)
(-0.0461711 2.3133 0)
(-0.0703217 2.33835 0)
(-0.0984083 2.35615 0)
(-0.130698 2.37042 0)
(-0.167752 2.38289 0)
(-0.210147 2.39454 0)
(-0.258511 2.40613 0)
(-0.313497 2.41834 0)
(-0.375754 2.4319 0)
(-0.445885 2.44766 0)
(-0.524331 2.46665 0)
(-0.611241 2.4901 0)
(-0.697336 2.51663 0)
(-0.77643 2.54428 0)
(-0.850212 2.5734 0)
(-0.918032 2.60349 0)
(-0.979233 2.63397 0)
(-1.03313 2.66414 0)
(-1.07903 2.69332 0)
(-1.11456 2.71961 0)
(-1.13927 2.74161 0)
(-1.15501 2.75959 0)
(-1.16363 2.77411 0)
(-1.16672 2.78572 0)
(-1.1656 2.79494 0)
(-1.16134 2.80221 0)
(-1.15482 2.80793 0)
(-1.14675 2.81242 0)
(-1.1377 2.81592 0)
(-1.12805 2.81867 0)
(-1.11809 2.82082 0)
(-1.10816 2.82253 0)
(-1.10026 2.82392 0)
(-0.00874838 2.23697 0)
(-0.0260779 2.37298 0)
(-0.0475817 2.4176 0)
(-0.0720828 2.44226 0)
(-0.100463 2.45938 0)
(-0.132992 2.47282 0)
(-0.170239 2.48431 0)
(-0.2128 2.49484 0)
(-0.261332 2.50514 0)
(-0.316527 2.51583 0)
(-0.379086 2.52757 0)
(-0.449668 2.54109 0)
(-0.528795 2.55724 0)
(-0.616735 2.57699 0)
(-0.704256 2.59912 0)
(-0.78513 2.62192 0)
(-0.861131 2.64558 0)
(-0.931652 2.66958 0)
(-0.996065 2.6933 0)
(-1.05369 2.71601 0)
(-1.1038 2.73699 0)
(-1.14379 2.75469 0)
(-1.1728 2.76827 0)
(-1.19256 2.77816 0)
(-1.20486 2.78499 0)
(-1.21124 2.78937 0)
(-1.21303 2.79185 0)
(-1.21132 2.79287 0)
(-1.20702 2.79283 0)
(-1.20086 2.79204 0)
(-1.19344 2.79072 0)
(-1.18519 2.78907 0)
(-1.1764 2.78724 0)
(-1.16745 2.78533 0)
(-1.16082 2.78344 0)
(13.7329 -69.3306 0)
(13.5465 -68.5866 0)
(13.2871 -67.8876 0)
(13.0326 -67.2757 -3.71093e-17)
(12.7652 -66.7969 0)
(12.4733 -66.4634 0)
(12.1502 -66.2199 0)
(11.7795 -66.0366 0)
(11.3536 -65.9352 3.62367e-17)
(10.8663 -65.9452 0)
(10.3132 -66.0953 0)
(9.69971 -66.4004 -3.61132e-17)
(9.06394 -66.8131 0)
(8.43884 -67.2951 -3.79221e-17)
(7.82879 -67.8491 0)
(7.23316 -68.4769 0)
(6.65156 -69.1833 0)
(6.08362 -69.9814 4.19608e-17)
(5.52917 -70.8908 0)
(4.99085 -71.9191 2.21075e-17)
(4.50148 -73.0751 0)
(4.04442 -74.3623 0)
(16.0643 71.5994 0)
(16.9542 70.6002 0)
(18.0312 69.5947 0)
(19.1978 68.6649 4.45262e-17)
(20.4534 67.8895 0)
(21.7867 67.3689 0)
(23.1747 67.1429 -8.61444e-17)
(24.5792 67.2128 0)
(25.9736 67.4797 -1.30436e-16)
(27.2958 67.7705 8.59242e-17)
(28.4292 68.0773 8.5796e-17)
(29.2913 68.4302 4.44715e-17)
(29.8185 68.842 0)
(29.9945 69.3036 4.61464e-17)
(29.8399 69.8264 0)
(29.3909 70.4293 0)
(28.6732 71.1165 0)
(27.7369 71.8896 -1.43671e-16)
(26.5748 72.724 0)
(25.2338 73.5922 -2.5086e-17)
(23.7137 74.4856 0)
(22.0867 75.3786 -5.0952e-17)
(2.01378 -61.8798 0)
(2.22939 -62.66 0)
(2.33667 -63.2204 0)
(2.38341 -63.457 0)
(2.3648 -63.3318 0)
(2.2891 -62.7743 7.17418e-17)
(2.17676 -61.733 7.01516e-17)
(2.06218 -60.1014 0)
(1.96811 -57.6582 7.05837e-17)
(1.92044 -54.2318 -7.06834e-17)
(1.96242 -49.9432 -7.06323e-17)
(2.11214 -45.0964 0)
(2.35725 -40.0693 0)
(2.64055 -35.1748 0)
(2.91709 -30.5599 7.5889e-17)
(3.19871 -26.3215 0)
(3.48347 -22.5028 0)
(3.76873 -19.1154 7.64631e-17)
(4.0569 -16.158 0)
(4.35104 -13.6299 0)
(4.65968 -11.5254 0)
(4.96511 -9.837 4.10387e-17)
(2.75722 47.3045 0)
(1.5069 48.1857 0)
(0.140353 48.9329 0)
(-1.31189 49.6646 -8.50184e-17)
(-2.85178 50.2969 0)
(-4.47261 50.6906 8.35381e-17)
(-6.08179 50.836 0)
(-7.68401 50.5921 0)
(-9.2354 49.9209 0)
(-10.6075 49.0054 0)
(-11.7608 47.9813 -1.7222e-16)
(-12.6276 46.9763 0)
(-13.1864 46.1079 0)
(-13.4211 45.4292 0)
(-13.3491 45.0493 8.81939e-17)
(-13.0589 44.9811 1.82857e-16)
(-12.6111 45.1584 0)
(-12.0486 45.507 0)
(-11.4133 45.963 0)
(-10.7386 46.4673 0)
(-10.0489 46.9666 9.68149e-17)
(-9.30204 47.4191 0)
(-13.1882 -19.1421 -1.47734e-16)
(-12.6076 -17.8101 0)
(-12.055 -16.6543 -1.58796e-16)
(-11.4907 -15.6789 7.84086e-17)
(-10.9223 -14.8918 0)
(-10.349 -14.3261 -1.58883e-16)
(-9.789 -13.9755 -1.63054e-16)
(-9.25815 -13.8001 -1.64041e-16)
(-8.76104 -13.7399 0)
(-8.33851 -13.7869 0)
(-8.00815 -13.8802 1.63374e-16)
(-7.73344 -13.848 0)
(-7.51705 -13.5513 0)
(-7.32774 -12.9087 0)
(-7.15006 -11.9306 -3.46558e-16)
(-6.96465 -10.6715 -1.73565e-16)
(-6.76219 -9.24234 0)
(-6.53492 -7.75503 -1.8058e-16)
(-6.27307 -6.27014 0)
(-5.9741 -4.83579 1.83689e-16)
(-5.63865 -3.48294 -9.08042e-17)
(-5.31007 -2.23811 0)
(-3.13414 24.786 1.76884e-16)
(-3.5487 25.1516 -1.86305e-16)
(-3.8817 25.4493 3.76175e-16)
(-4.17278 25.6964 1.8782e-16)
(-4.42823 25.8904 0)
(-4.65422 26.0358 0)
(-4.86043 26.1375 1.91534e-16)
(-5.05647 26.2012 1.91929e-16)
(-5.25067 26.2308 0)
(-5.45167 26.1987 0)
(-5.66431 26.0896 0)
(-5.89017 25.9623 0)
(-6.13241 25.8561 0)
(-6.37633 25.7723 1.95125e-16)
(-6.60248 25.7324 1.98969e-16)
(-6.78983 25.7756 -1.9856e-16)
(-6.92801 25.8904 0)
(-7.01683 26.0411 2.03633e-16)
(-7.05869 26.2183 0)
(-7.06165 26.4113 -2.11136e-18)
(-7.0325 26.6053 2.04853e-16)
(-6.94872 26.7869 -2.11839e-16)
(-6.64466 -4.27466 -1.79411e-16)
(-6.41066 -3.64191 1.8937e-16)
(-6.19327 -3.07022 -1.9037e-16)
(-5.97283 -2.55977 1.47174e-18)
(-5.75543 -2.10524 1.93566e-16)
(-5.5444 -1.70035 0)
(-5.34367 -1.33815 0)
(-5.15277 -1.00628 0)
(-4.97426 -0.699811 0)
(-4.81467 -0.417642 3.92427e-16)
(-4.67782 -0.142278 0)
(-4.56679 0.14444 0)
(-4.47014 0.448882 0)
(-4.37684 0.773302 -1.99818e-16)
(-4.28231 1.13496 0)
(-4.18234 1.54326 4.08403e-16)
(-4.07006 1.98975 0)
(-3.94269 2.46822 0)
(-3.79909 2.97243 0)
(-3.63644 3.49601 -2.0846e-16)
(-3.46128 4.0203 -2.09253e-16)
(-3.30014 4.51561 2.16338e-16)
(-4.03164 14.2306 2.02408e-16)
(-4.13229 14.4183 0)
(-4.18584 14.5795 0)
(-4.21612 14.7347 -4.31098e-16)
(-4.22721 14.8815 -1.0219e-18)
(-4.22 15.0179 -2.15985e-16)
(-4.19669 15.1424 -4.32604e-16)
(-4.15912 15.255 0)
(-4.10884 15.3578 -4.33265e-16)
(-4.04684 15.4511 -2.06174e-18)
(-3.97376 15.5365 -4.32549e-16)
(-3.89301 15.617 4.32469e-16)
(-3.81682 15.6941 0)
(-3.75341 15.7675 0)
(-3.70058 15.8383 0)
(-3.65363 15.9079 2.24133e-16)
(-3.60909 15.9768 0)
(-3.56383 16.0497 0)
(-3.51453 16.1376 0)
(-3.46056 16.249 0)
(-3.398 16.3872 0)
(-3.31436 16.5375 0)
(-3.46229 1.08095 0)
(-3.38507 1.39229 0)
(-3.3166 1.69304 2.25628e-16)
(-3.24557 1.98984 -7.51937e-19)
(-3.17391 2.29168 2.2783e-16)
(-3.1045 2.59755 6.82078e-16)
(-3.03747 2.90543 4.54526e-16)
(-2.97347 3.21329 0)
(-2.91323 3.5192 4.55405e-16)
(-2.85739 3.82137 -4.55478e-16)
(-2.80618 4.11869 4.54691e-16)
(-2.75761 4.40894 1.49191e-18)
(-2.70453 4.68487 0)
(-2.64205 4.9446 0)
(-2.56995 5.19487 0)
(-2.48913 5.43818 1.50695e-18)
(-2.40059 5.67206 0)
(-2.3046 5.89603 0)
(-2.20032 6.1128 0)
(-2.08651 6.32501 0)
(-1.96487 6.53372 0)
(-1.84994 6.73586 0)
(-3.03697 9.13687 0)
(-3.0465 9.24574 2.42199e-16)
(-3.03612 9.35263 -4.86561e-16)
(-3.01917 9.46095 2.44242e-16)
(-2.99365 9.57464 -4.8963e-16)
(-2.95827 9.69216 -1.04604e-18)
(-2.91177 9.81143 -4.90159e-16)
(-2.85338 9.93016 0)
(-2.78237 10.0458 0)
(-2.69762 10.1552 0)
(-2.60002 10.2546 0)
(-2.49157 10.3462 -4.90765e-16)
(-2.38064 10.4349 0)
(-2.27604 10.5202 0)
(-2.17777 10.6015 0)
(-2.08449 10.6794 -5.13107e-16)
(-1.99549 10.7541 0)
(-1.91048 10.8263 -5.197e-16)
(-1.82865 10.8971 -5.22744e-16)
(-1.74946 10.9688 2.62645e-16)
(-1.67123 11.0448 0)
(-1.58882 11.1277 2.72356e-16)
(-2.24284 3.12979 0)
(-2.21312 3.37761 -5.10518e-16)
(-2.18682 3.6232 2.55886e-16)
(-2.15803 3.86174 0)
(-2.12938 4.09378 0)
(-2.10063 4.3202 -5.15257e-16)
(-2.07103 4.54171 5.1593e-16)
(-2.03988 4.75885 -5.17111e-16)
(-2.00656 4.97124 5.17284e-16)
(-1.97151 5.17662 0)
(-1.93501 5.37587 0)
(-1.89544 5.57214 0)
(-1.84956 5.7619 0)
(-1.79525 5.94077 0)
(-1.73292 6.10882 -5.35525e-16)
(-1.66353 6.26633 0)
(-1.58782 6.41347 0)
(-1.50628 6.55035 5.48288e-16)
(-1.41917 6.67694 5.51825e-16)
(-1.32634 6.79294 -2.77435e-16)
(-1.22937 6.89741 -2.79025e-16)
(-1.13759 6.98856 -2.88047e-16)
(-2.14699 6.52643 0)
(-2.1358 6.61507 2.72948e-16)
(-2.11171 6.71105 0)
(-2.0814 6.8106 5.47752e-16)
(-2.04456 6.91233 0)
(-2.00095 7.01461 0)
(-1.95041 7.11477 0)
(-1.89342 7.21206 5.50237e-16)
(-1.82934 7.30851 -5.50153e-16)
(-1.75812 7.4048 5.49381e-16)
(-1.68045 7.49969 0)
(-1.59767 7.59229 5.48e-16)
(-1.51477 7.68067 0)
(-1.4353 7.76343 -5.62753e-16)
(-1.35868 7.8409 5.68852e-16)
(-1.28438 7.91346 0)
(-1.21211 7.98088 5.7843e-16)
(-1.14124 8.04258 0)
(-1.07155 8.09918 0)
(-1.00298 8.15233 -5.89721e-16)
(-0.934525 8.20389 2.96403e-16)
(-0.866186 8.25622 3.06132e-16)
(-1.68484 3.90196 5.47754e-16)
(-1.66476 4.07558 5.78997e-16)
(-1.64423 4.24739 0)
(-1.6208 4.41466 -1.16154e-15)