/*--------------------------------*- C++ -*----------------------------------*\
  =========                 |
  \\      /  F ield         | OpenFOAM: The Open Source CFD Toolbox
   \\    /   O peration     | Website:  https://openfoam.org
    \\  /    A nd           | Version:  8
     \\/     M anipulation  |
\*---------------------------------------------------------------------------*/
FoamFile
{
    version     2.0;
    format      ascii;
    class       surfaceScalarField;
    location    "0.19";
    object      phi;
}
// * * * * * * * * * * * * * * * * * * * * * * * * * * * * * * * * * * * * * //

dimensions      [0 3 -1 0 0 0 0];

internalField   nonuniform List<scalar> 
31053
(
6.40195e-07
1.27398e-05
8.63258e-07
1.51569e-05
3.57502e-07
1.23823e-05
9.48945e-07
1.75543e-05
5.67813e-07
1.49466e-05
2.75427e-07
1.21069e-05
9.73672e-07
2.02153e-05
6.82707e-07
1.74394e-05
4.71509e-07
1.47505e-05
2.16977e-07
1.18899e-05
9.65106e-07
2.32486e-05
7.41604e-07
2.01564e-05
5.97703e-07
1.73132e-05
3.97613e-07
1.45699e-05
1.7265e-07
1.17172e-05
9.35226e-07
2.66899e-05
7.66855e-07
2.32233e-05
6.73144e-07
2.00809e-05
5.25364e-07
1.71855e-05
3.33733e-07
1.44088e-05
1.38468e-07
1.15788e-05
8.89823e-07
3.06654e-05
7.70251e-07
2.66865e-05
7.15562e-07
2.31809e-05
6.06837e-07
1.99995e-05
4.56443e-07
1.70628e-05
2.79821e-07
1.42675e-05
1.11585e-07
1.14672e-05
8.31968e-07
3.51979e-05
7.58258e-07
3.06774e-05
7.35873e-07
2.66662e-05
6.55577e-07
2.31322e-05
5.38095e-07
1.99178e-05
3.93625e-07
1.6949e-05
2.33203e-07
1.41459e-05
8.93253e-08
1.13779e-05
7.65481e-07
4.03865e-05
7.35083e-07
3.5221e-05
7.40551e-07
3.06727e-05
6.8166e-07
2.66401e-05
5.87782e-07
2.30825e-05
4.71766e-07
1.98397e-05
3.35468e-07
1.68467e-05
1.91546e-07
1.40436e-05
6.98784e-08
1.1308e-05
6.93003e-07
4.63525e-05
7.01857e-07
4.04197e-05
7.33499e-07
3.52281e-05
6.91092e-07
3.06633e-05
6.14529e-07
2.66133e-05
5.19152e-07
2.30351e-05
4.07115e-07
1.9768e-05
2.80365e-07
1.67579e-05
1.53077e-07
1.39604e-05
5.21075e-08
1.12559e-05
6.16352e-07
5.32167e-05
6.60069e-07
4.63943e-05
7.1502e-07
4.04382e-05
6.86793e-07
3.52324e-05
6.2426e-07
3.06536e-05
5.43432e-07
2.65891e-05
4.49498e-07
2.29927e-05
3.43069e-07
1.97053e-05
2.26959e-07
1.6684e-05
1.16524e-07
1.3896e-05
3.52387e-08
1.12206e-05
5.37457e-07
6.10589e-05
6.11559e-07
5.32652e-05
6.85496e-07
4.64238e-05
6.7168e-07
4.04533e-05
6.20361e-07
3.52363e-05
5.50382e-07
3.06466e-05
4.68712e-07
2.65698e-05
3.78123e-07
2.29576e-05
2.78536e-07
1.96537e-05
1.74179e-07
1.66263e-05
8.09512e-08
1.38503e-05
1.87605e-08
1.12019e-05
4.58134e-07
7.00613e-05
5.57911e-07
6.11125e-05
6.46051e-07
5.33046e-05
6.46754e-07
4.64487e-05
6.05096e-07
4.04686e-05
5.43481e-07
3.52432e-05
4.7015e-07
3.06452e-05
3.89977e-07
2.6558e-05
3.0402e-07
2.29322e-05
2.12548e-07
1.96154e-05
1.21239e-07
1.65861e-05
4.56731e-08
1.38234e-05
2.48738e-09
1.11994e-05
3.80016e-07
8.04101e-05
5.00548e-07
7.01187e-05
5.97959e-07
6.11606e-05
6.12055e-07
5.33393e-05
5.79605e-07
4.64742e-05
5.24716e-07
4.04873e-05
4.57206e-07
3.52561e-05
3.83449e-07
3.06517e-05
3.06248e-07
2.65558e-05
2.26229e-07
2.29185e-05
1.44444e-07
1.95922e-05
6.75329e-08
1.65642e-05
1.03133e-08
1.38156e-05
-1.37796e-08
1.12132e-05
3.17095e-07
7.62529e-05
4.40795e-07
8.04699e-05
5.42685e-07
7.0174e-05
5.67902e-07
6.12048e-05
5.44168e-07
5.33747e-05
4.95102e-07
4.65038e-05
4.31755e-07
4.05128e-05
3.6176e-07
3.52778e-05
2.89344e-07
3.06686e-05
2.16537e-07
2.65655e-05
1.44107e-07
2.29188e-05
7.37112e-08
1.9586e-05
1.27222e-08
1.65618e-05
-2.53267e-08
1.38271e-05
-3.02142e-08
1.12434e-05
2.6377e-07
7.62433e-05
3.89619e-07
7.63041e-05
4.8191e-07
8.05306e-05
5.15021e-07
7.02268e-05
4.98884e-07
6.12501e-05
4.55e-07
5.34148e-05
3.94694e-07
4.65409e-05
3.26671e-07
4.05479e-05
2.56263e-07
3.53109e-05
1.86812e-07
3.06983e-05
1.20167e-07
2.65894e-05
5.71606e-08
2.29354e-05
1.49601e-10
1.95986e-05
-4.32961e-08
1.65798e-05
-6.13815e-08
1.38583e-05
-4.68144e-08
1.12902e-05
2.18795e-07
7.6235e-05
3.43356e-07
7.62896e-05
4.28118e-07
7.63579e-05
4.54623e-07
8.0591e-05
4.44058e-07
7.02817e-05
4.04498e-07
6.13006e-05
3.46334e-07
5.34632e-05
2.78958e-07
4.65886e-05
2.08609e-07
4.05955e-05
1.39664e-07
3.5358e-05
7.51287e-08
3.07434e-05
1.66486e-08
2.66299e-05
-3.47112e-08
2.29702e-05
-7.61745e-08
1.96314e-05
-1.00481e-07
1.66189e-05
-9.77644e-08
1.39092e-05
-6.34128e-08
1.13536e-05
1.81081e-07
7.62297e-05
3.01627e-07
7.62767e-05
3.78204e-07
7.63395e-05
3.99528e-07
7.6413e-05
3.80537e-07
8.06546e-05
3.43741e-07
7.03424e-05
2.86756e-07
6.13602e-05
2.18832e-07
5.35233e-05
1.47008e-07
4.66502e-05
7.64758e-08
4.06587e-05
1.11796e-08
3.5422e-05
-4.62007e-08
3.08062e-05
-9.40701e-08
2.66893e-05
-1.31289e-07
2.30253e-05
-1.54993e-07
1.9686e-05
-1.58529e-07
1.66796e-05
-1.34196e-07
1.398e-05
-7.98798e-08
1.14335e-05
1.49665e-07
7.62214e-05
2.64049e-07
7.62673e-05
3.3212e-07
7.63228e-05
3.474e-07
7.63916e-05
3.2194e-07
7.64716e-05
2.73371e-07
8.07249e-05
2.16079e-07
7.04131e-05
1.46336e-07
6.14326e-05
7.15408e-08
5.35988e-05
-2.32229e-09
4.6729e-05
-7.05904e-08
4.07405e-05
-1.29696e-07
3.55055e-05
-1.77191e-07
3.08893e-05
-2.11635e-07
2.67696e-05
-2.32067e-07
2.31024e-05
-2.35698e-07
1.97631e-05
-2.16923e-07
1.67623e-05
-1.70321e-07
1.40705e-05
-9.59554e-08
1.15295e-05
1.23728e-07
7.62159e-05
2.30273e-07
7.62552e-05
2.89743e-07
7.63097e-05
2.98619e-07
7.63716e-05
2.66155e-07
7.64474e-05
2.08363e-07
7.65366e-05
1.34906e-07
8.08061e-05
6.15985e-08
7.04978e-05
-1.78082e-08
6.1522e-05
-9.68105e-08
5.36933e-05
-1.69995e-07
4.68284e-05
-2.33101e-07
4.08439e-05
-2.82937e-07
3.56112e-05
-3.17333e-07
3.0995e-05
-3.35314e-07
2.68729e-05
-3.36131e-07
2.32029e-05
-3.17418e-07
1.98636e-05
-2.75008e-07
1.6867e-05
-2.05657e-07
1.41802e-05
-1.11458e-07
1.16409e-05
1.02367e-07
7.62114e-05
1.99929e-07
7.62463e-05
2.50927e-07
7.6294e-05
2.53355e-07
7.63549e-05
2.13855e-07
7.64239e-05
1.46478e-07
7.65093e-05
6.02666e-08
7.66112e-05
-3.46986e-08
8.09024e-05
-1.20896e-07
7.06009e-05
-2.07088e-07
6.16323e-05
-2.87318e-07
5.38106e-05
-3.56532e-07
4.69518e-05
-4.10992e-07
4.09719e-05
-4.47862e-07
3.57418e-05
-4.65685e-07
3.11254e-05
-4.63889e-07
2.70006e-05
-4.42203e-07
2.33276e-05
-3.99119e-07
1.99877e-05
-3.31993e-07
1.69934e-05
-2.39712e-07
1.43084e-05
-1.2606e-07
1.1767e-05
8.60751e-08
6.95983e-05
1.72753e-07
7.62385e-05
2.15509e-07
7.62817e-05
2.11679e-07
7.63357e-05
1.6542e-07
7.64034e-05
8.86333e-08
7.64817e-05
-1.04978e-08
7.65801e-05
-1.22613e-07
7.66991e-05
-2.3689e-07
8.10184e-05
-3.32995e-07
7.07268e-05
-4.2277e-07
6.17677e-05
-5.00528e-07
5.39546e-05
-5.61837e-07
4.71027e-05
-6.03394e-07
4.11275e-05
-6.23313e-07
3.58994e-05
-6.20709e-07
3.12822e-05
-5.95663e-07
2.71541e-05
-5.48828e-07
2.34773e-05
-4.796e-07
2.01353e-05
-3.87021e-07
1.71407e-05
-2.71876e-07
1.44542e-05
-1.3958e-07
1.19066e-05
7.36061e-08
6.25565e-05
1.50529e-07
6.96205e-05
1.83388e-07
7.62707e-05
1.73619e-07
7.63198e-05
1.21077e-07
7.638e-05
3.54093e-08
7.64566e-05
-7.62657e-08
7.65475e-05
-2.05476e-07
7.66629e-05
-3.42029e-07
7.68043e-05
-4.73509e-07
8.11589e-05
-5.76185e-07
7.08802e-05
-6.65443e-07
6.19326e-05
-7.36321e-07
5.41291e-05
-7.84841e-07
4.72841e-05
-8.08923e-07
4.13131e-05
-8.07413e-07
3.60861e-05
-7.80276e-07
3.14668e-05
-7.28742e-07
2.7334e-05
-6.54314e-07
2.36521e-05
-5.57565e-07
2.03059e-05
-4.39121e-07
1.73079e-05
-3.01667e-07
1.46163e-05
-1.51564e-07
1.20581e-05
6.38962e-08
5.62277e-05
1.32523e-07
6.25745e-05
1.5687e-07
6.9647e-05
1.39197e-07
7.63051e-05
8.09687e-08
7.63599e-05
-1.28175e-08
7.64283e-05
-1.36266e-07
7.65166e-05
-2.8198e-07
7.6624e-05
-4.40542e-07
7.67614e-05
-6.00088e-07
7.69309e-05
-7.46321e-07
8.1329e-05
-8.51128e-07
7.10659e-05
-9.34991e-07
6.21313e-05
-9.93428e-07
5.43377e-05
-1.02393e-06
4.74991e-05
-1.02534e-06
4.1531e-05
-9.97568e-07
3.63034e-05
-9.4202e-07
3.16801e-05
-8.60901e-07
2.75406e-05
-7.56876e-07
2.38514e-05
-6.316e-07
2.04984e-05
-4.87456e-07
1.74937e-05
-3.28154e-07
1.47929e-05
-1.61253e-07
1.22194e-05
5.62198e-08
5.05397e-05
1.17817e-07
5.62424e-05
1.3524e-07
6.25961e-05
1.10946e-07
6.96753e-05
4.51926e-08
7.63409e-05
-5.57956e-08
7.64028e-05
-1.89964e-07
7.6482e-05
-3.51161e-07
7.65858e-05
-5.30929e-07
7.67144e-05
-7.18091e-07
7.68794e-05
-8.98857e-07
7.70834e-05
-1.05611e-06
8.1534e-05
-1.15775e-06
7.12887e-05
-1.22995e-06
6.23678e-05
-1.27e-06
5.45837e-05
-1.27646e-06
4.77503e-05
-1.24954e-06
4.1783e-05
-1.19091e-06
3.65523e-05
-1.10316e-06
3.19224e-05
-9.89837e-07
2.77735e-05
-8.54585e-07
2.40744e-05
-7.00449e-07
2.07113e-05
-5.30644e-07
1.76962e-05
-3.5069e-07
1.49823e-05
-1.68664e-07
1.2388e-05
5.00704e-08
4.54261e-05
1.05711e-07
5.05518e-05
1.17501e-07
5.62602e-05
8.81265e-08
6.26189e-05
1.63505e-08
6.97041e-05
-9.33537e-08
7.63784e-05
-2.36992e-07
7.64499e-05
-4.12316e-07
7.65431e-05
-6.12021e-07
7.66669e-05
-8.25799e-07
7.68221e-05
-1.04051e-06
7.70211e-05
-1.23927e-06
7.72666e-05
-1.40289e-06
8.17792e-05
-1.4944e-06
7.15531e-05
-1.54822e-06
6.26461e-05
-1.56297e-06
5.48702e-05
-1.5388e-06
4.80395e-05
-1.47813e-06
4.20702e-05
-1.38408e-06
3.68332e-05
-1.26085e-06
3.21934e-05
-1.11305e-06
2.8032e-05
-9.45697e-07
2.43196e-05
-7.62288e-07
2.0943e-05
-5.67922e-07
1.79134e-05
-3.65867e-07
1.51795e-05
-1.35162e-07
1.25232e-05
4.50869e-08
4.0831e-05
9.56667e-08
4.54362e-05
1.02879e-07
5.05664e-05
6.96663e-08
5.62786e-05
-6.44144e-09
6.26417e-05
-1.22824e-07
6.97336e-05
-2.77093e-07
7.64185e-05
-4.64939e-07
7.65025e-05
-6.82926e-07
7.6614e-05
-9.21819e-07
7.67629e-05
-1.1693e-06
7.69509e-05
-1.40891e-06
7.71907e-05
-1.62149e-06
7.74852e-05
-1.78489e-06
8.20697e-05
-1.85878e-06
7.18637e-05
-1.88634e-06
6.29694e-05
-1.86813e-06
5.51996e-05
-1.80699e-06
4.83684e-05
-1.7071e-06
4.23932e-05
-1.57359e-06
3.71459e-05
-1.41192e-06
3.24923e-05
-1.22824e-06
2.83145e-05
-1.02794e-06
2.45853e-05
-8.15929e-07
2.1191e-05
-5.94373e-07
1.81419e-05
-3.58121e-07
1.54025e-05
-8.51139e-08
1.26083e-05
4.10045e-08
3.67001e-05
8.72776e-08
4.08394e-05
9.07616e-08
4.54483e-05
5.47058e-08
5.05814e-05
-2.44034e-08
5.62966e-05
-1.45342e-07
6.26642e-05
-3.07516e-07
6.9764e-05
-5.08674e-07
7.64622e-05
-7.42981e-07
7.65626e-05
-1.00504e-06
7.66972e-05
-1.28358e-06
7.68772e-05
-1.56278e-06
7.71047e-05
-1.82366e-06
7.73929e-05
-2.04366e-06
7.77439e-05
-2.19963e-06
8.24105e-05
-2.24701e-06
7.22244e-05
-2.2395e-06
6.33408e-05
-2.18092e-06
5.55735e-05
-2.07628e-06
4.87376e-05
-1.93227e-06
4.27519e-05
-1.7556e-06
3.74896e-05
-1.55354e-06
3.28176e-05
-1.33269e-06
2.86193e-05
-1.0996e-06
2.48689e-05
-8.56612e-07
2.14532e-05
-6.03076e-07
1.83869e-05
-3.31493e-07
1.56489e-05
-6.4097e-08
1.26724e-05
3.76251e-08
3.29894e-05
8.0237e-08
3.67071e-05
8.06702e-08
4.08495e-05
4.25614e-08
4.54605e-05
-3.85228e-08
5.05955e-05
-1.62368e-07
5.63136e-05
-3.29748e-07
6.26865e-05
-5.40638e-07
6.9796e-05
-7.91702e-07
7.6511e-05
-1.07461e-06
7.66321e-05
-1.382e-06
7.67956e-05
-1.69892e-06
7.70133e-05
-2.00682e-06
7.72879e-05
-2.28292e-06
7.76322e-05
-2.5033e-06
7.80476e-05
-2.64292e-06
8.28064e-05
-2.65368e-06
7.26385e-05
-2.60243e-06
6.37623e-05
-2.49576e-06
5.5993e-05
-2.34174e-06
4.9147e-05
-2.14909e-06
4.31454e-05
-1.9267e-06
3.78628e-05
-1.68252e-06
3.31674e-05
-1.4242e-06
2.89439e-05
-1.15648e-06
2.51688e-05
-8.79684e-07
2.17298e-05
-5.98793e-07
1.86542e-05
-3.07557e-07
1.58923e-05
-5.81701e-08
1.27306e-05
3.4801e-08
2.96508e-05
7.43052e-08
3.29953e-05
7.22365e-08
3.67156e-05
3.26808e-08
4.08593e-05
-4.95934e-08
4.54715e-05
-1.75086e-07
5.06082e-05
-3.45584e-07
5.63294e-05
-5.62776e-07
6.27086e-05
-8.26003e-07
6.98303e-05
-1.1299e-06
7.65663e-05
-1.46348e-06
7.67136e-05
-1.81567e-06
7.69124e-05
-2.16866e-06
7.71751e-05
-2.49967e-06
7.75046e-05
-2.78422e-06
7.79131e-05
-2.99596e-06
7.84006e-05
-3.10864e-06
8.32614e-05
-3.07277e-06
7.31089e-05
-2.96875e-06
6.42353e-05
-2.80696e-06
5.64582e-05
-2.59806e-06
4.9596e-05
-2.35351e-06
4.35722e-05
-2.0832e-06
3.82634e-05
-1.79619e-06
3.35394e-05
-1.49909e-06
2.92865e-05
-1.19495e-06
2.54841e-05
-8.90412e-07
2.20215e-05
-5.9081e-07
1.89374e-05
-2.94408e-07
1.61286e-05
-6.22284e-08
1.27928e-05
3.24206e-08
2.66504e-05
6.92893e-08
2.96558e-05
6.517e-08
3.30024e-05
2.46103e-08
3.67236e-05
-5.82539e-08
4.0868e-05
-1.84447e-07
4.54809e-05
-3.56478e-07
5.06191e-05
-5.77322e-07
5.6344e-05
-8.48396e-07
6.2731e-05
-1.16752e-06
6.98679e-05
-1.5272e-06
7.663e-05
-1.91171e-06
7.68096e-05
-2.30719e-06
7.70509e-05
-2.69123e-06
7.73667e-05
-3.03901e-06
7.77594e-05
-3.32303e-06
7.82402e-05
-3.51498e-06
7.8807e-05
-3.59018e-06
8.37788e-05
-3.49712e-06
7.36373e-05
-3.33196e-06
6.47603e-05
-3.10842e-06
5.69686e-05
-2.84055e-06
5.0083e-05
-2.54131e-06
4.40303e-05
-2.22197e-06
3.86892e-05
-1.89123e-06
3.39315e-05
-1.55446e-06
2.9646e-05
-1.21957e-06
2.58132e-05
-8.96049e-07
2.23267e-05
-5.84688e-07
1.92277e-05
-2.9067e-07
1.6357e-05
-8.55655e-08
1.28784e-05
3.03991e-08
2.3956e-05
6.5029e-08
2.66546e-05
5.92334e-08
2.96618e-05
1.79864e-08
3.3009e-05
-6.50178e-08
3.67304e-05
-1.91209e-07
4.08748e-05
-3.6359e-07
4.5488e-05
-5.86076e-07
5.06279e-05
-8.61662e-07
5.63572e-05
-1.19066e-06
6.27541e-05
-1.56934e-06
6.991e-05
-1.98598e-06
7.67042e-05
-2.42078e-06
7.69232e-05
-2.85521e-06
7.72149e-05
-3.26452e-06
7.75922e-05
-3.62025e-06
7.80567e-05
-3.8923e-06
7.86175e-05
-4.05335e-06
7.92701e-05
-4.07956e-06
8.43612e-05
-3.91938e-06
7.42247e-05
-3.68501e-06
6.53369e-05
-3.39461e-06
5.75226e-05
-3.06429e-06
5.0606e-05
-2.70887e-06
4.45172e-05
-2.33987e-06
3.91379e-05
-1.96528e-06
3.43423e-05
-1.59388e-06
3.00203e-05
-1.23666e-06
2.61538e-05
-8.99948e-07
2.2642e-05
-5.81671e-07
1.95187e-05
-3.59493e-07
1.66309e-05
-9.40978e-08
1.29725e-05
2.86715e-08
2.15337e-05
6.13913e-08
2.39597e-05
5.42292e-08
2.66596e-05
1.25256e-08
2.96672e-05
-7.02946e-08
3.30143e-05
-1.95974e-07
3.67352e-05
-3.67841e-07
4.0879e-05
-5.90475e-07
4.54924e-05
-8.68041e-07
5.06342e-05
-1.20276e-06
5.63693e-05
-1.59389e-06
6.27787e-05
-2.0341e-06
6.99582e-05
-2.50807e-06
7.67915e-05
-2.9896e-06
7.70576e-05
-3.45792e-06
7.74083e-05
-3.88401e-06
7.7856e-05
-4.2362e-06
7.84005e-05
-4.48471e-06
7.90488e-05
-4.60247e-06
7.9793e-05
-4.56854e-06
8.50104e-05
-4.33143e-06
7.48711e-05
-4.02152e-06
6.59638e-05
-3.65987e-06
5.81182e-05
-3.26513e-06
5.11623e-05
-2.85302e-06
4.50304e-05
-2.43484e-06
3.96074e-05
-2.0209e-06
3.47694e-05
-1.62254e-06
3.04062e-05
-1.24895e-06
2.65028e-05
-9.02471e-07
2.29628e-05
-7.16151e-07
1.98754e-05
-3.59181e-07
1.6896e-05
-1.03347e-07
1.30758e-05
2.71869e-08
1.93535e-05
5.82701e-08
2.15368e-05
4.99926e-08
2.39639e-05
8.00766e-09
2.66642e-05
-7.44052e-08
2.96713e-05
-1.99214e-07
3.30175e-05
-3.69954e-07
3.67373e-05
-5.91654e-07
4.08802e-05
-8.69317e-07
4.54937e-05
-1.2066e-06
5.06381e-05
-1.60507e-06
5.63805e-05
-2.06093e-06
6.28055e-05
-2.56392e-06
7.0014e-05
-3.0927e-06
7.68946e-05
-3.61675e-06
7.72164e-05
-4.11096e-06
7.76353e-05
-4.54249e-06
7.81623e-05
-4.87934e-06
7.87952e-05
-5.09119e-06
7.95376e-05
-5.15331e-06
8.03778e-05
-5.04787e-06
8.57268e-05
-4.72595e-06
7.55755e-05
-4.33497e-06
6.66389e-05
-3.89947e-06
5.87525e-05
-3.43973e-06
5.1749e-05
-2.97178e-06
4.55673e-05
-2.5085e-06
4.0095e-05
-2.06216e-06
3.5209e-05
-1.64277e-06
3.08e-05
-1.25661e-06
2.6857e-05
-1.11487e-06
2.33615e-05
-7.07959e-07
2.02242e-05
-3.59223e-07
1.71519e-05
-1.10508e-07
1.31863e-05
1.73973e-05
2.59052e-08
5.5581e-08
1.93562e-05
4.63902e-08
2.15405e-05
4.26028e-09
2.39676e-05
-7.76006e-08
2.66674e-05
-2.01297e-07
2.96734e-05
-3.70493e-07
3.30181e-05
-5.90496e-07
3.67361e-05
-8.66893e-07
4.08778e-05
-1.20439e-06
4.54915e-05
-1.60631e-06
5.06393e-05
-2.07162e-06
5.63912e-05
-2.59418e-06
6.28358e-05
-3.15837e-06
7.00797e-05
-3.73889e-06
7.70168e-05
-4.29813e-06
7.74036e-05
-4.80727e-06
7.79001e-05
-5.23245e-06
7.85154e-05
-5.54024e-06
7.92442e-05
-5.70207e-06
8.00863e-05
-5.69571e-06
8.10257e-05
-5.50922e-06
8.65101e-05
-5.09544e-06
7.6336e-05
-4.61987e-06
6.73593e-05
-4.10964e-06
5.94225e-05
-3.58588e-06
5.23631e-05
-3.06589e-06
4.61247e-05
-2.5639e-06
4.05968e-05
-2.09102e-06
3.56572e-05
-1.6549e-06
3.11983e-05
-1.55541e-06
2.72975e-05
-1.102e-06
2.37555e-05
-6.97435e-07
2.05624e-05
-3.57119e-07
1.73985e-05
-1.15198e-07
1.33015e-05
1.73996e-05
5.32526e-08
2.78121e-05
2.38058e-08
4.3314e-08
1.93592e-05
1.14394e-09
2.15436e-05
-8.00768e-08
2.39701e-05
-2.02512e-07
2.66686e-05
-3.69895e-07
2.96728e-05
-5.87687e-07
3.30152e-05
-8.61858e-07
3.67311e-05
-1.19786e-06
4.08712e-05
-1.60032e-06
4.54855e-05
-2.07033e-06
5.0638e-05
-2.60503e-06
5.64021e-05
-3.19352e-06
6.28709e-05
-3.8169e-06
7.01577e-05
-4.44293e-06
7.71616e-05
-5.02699e-06
7.76233e-05
-5.5395e-06
7.82071e-05
-5.94425e-06
7.89194e-05
-6.2088e-06
7.9751e-05
-6.30641e-06
8.0697e-05
-6.22047e-06
8.17369e-05
-5.94399e-06
8.73587e-05
-5.43352e-06
7.71497e-05
-4.87186e-06
6.81215e-05
-4.28775e-06
6.01243e-05
-3.70354e-06
5.30007e-05
-3.13743e-06
4.66982e-05
-2.60256e-06
4.11083e-05
-2.10792e-06
3.61102e-05
-2.04975e-06
3.16927e-05
-1.53877e-06
2.77343e-05
-1.08245e-06
2.41405e-05
-6.83127e-07
2.08884e-05
-3.52136e-07
1.76355e-05
-1.17437e-07
1.3419e-05
1.74022e-05
4.06784e-08
2.78159e-05
4.94605e-08
2.8552e-05
2.1801e-08
-1.45541e-09
1.93618e-05
-8.19871e-08
2.15455e-05
-2.03081e-07
2.39707e-05
-3.68497e-07
2.66672e-05
-5.83753e-07
2.96689e-05
-8.55054e-07
3.30084e-05
-1.18835e-06
3.67216e-05
-1.58922e-06
4.08601e-05
-2.06038e-06
4.54755e-05
-2.60149e-06
5.06345e-05
-3.20548e-06
5.6414e-05
-3.8588e-06
6.29128e-05
-4.53623e-06
7.0251e-05
-5.19845e-06
7.7333e-05
-5.79626e-06
7.78801e-05
-6.29796e-06
7.85608e-05
-6.66748e-06
7.93781e-05
-6.87343e-06
8.0318e-05
-6.89423e-06
8.13708e-05
-6.71797e-06
8.25109e-05
-6.34475e-06
8.82699e-05
-5.73503e-06
7.80128e-05
-5.08766e-06
6.89214e-05
-4.43295e-06
6.08537e-05
-3.79391e-06
5.36572e-05
-3.18757e-06
4.72832e-05
-2.62506e-06
4.16254e-05
-2.61157e-06
3.66721e-05
-2.02839e-06
3.21823e-05
-1.51085e-06
2.81627e-05
-1.05614e-06
2.45136e-05
-6.647e-07
2.12009e-05
-3.44249e-07
1.78623e-05
-1.17565e-07
1.35365e-05
1.74044e-05
-3.63291e-09
2.78196e-05
3.69219e-08
2.85557e-05
4.58102e-08
2.93119e-05
1.98958e-08
-8.34522e-08
1.93633e-05
-2.03176e-07
2.15456e-05
-3.66554e-07
2.39687e-05
-5.79096e-07
2.66625e-05
-8.47121e-07
2.9661e-05
-1.1769e-06
3.2997e-05
-1.57468e-06
3.6707e-05
-2.04435e-06
4.08441e-05
-2.58755e-06
4.54616e-05
-3.20023e-06
5.06292e-05
-3.8732e-06
5.64284e-05
-4.5872e-06
6.29638e-05
-5.31047e-06
7.0363e-05
-5.99885e-06
7.75356e-05
-6.59641e-06
7.81785e-05
-7.07215e-06
7.89655e-05
-7.39012e-06
7.98948e-05
-7.52349e-06
8.09472e-05
-7.45495e-06
8.21078e-05
-7.17974e-06
8.33459e-05
-6.70528e-06
8.92401e-05
-5.99582e-06
7.8921e-05
-5.2656e-06
6.97541e-05
-4.54568e-06
6.16055e-05
-3.85776e-06
5.43274e-05
-3.21694e-06
4.78751e-05
-3.2532e-06
4.22671e-05
-2.58455e-06
3.72282e-05
-1.99116e-06
3.26626e-05
-1.47265e-06
2.85792e-05
-1.02358e-06
2.48724e-05
-6.42508e-07
2.14992e-05
-3.3382e-07
1.80785e-05
-1.15966e-07
1.36525e-05
1.74055e-05
-8.45678e-08
2.78218e-05
-5.74254e-09
2.85592e-05
3.33891e-08
2.93154e-05
4.23073e-08
3.00898e-05
1.80909e-08
-2.0293e-07
1.93631e-05
-3.64263e-07
2.15433e-05
-5.74016e-07
2.39637e-05
-8.38542e-07
2.66539e-05
-1.16429e-06
2.96484e-05
-1.55795e-06
3.29803e-05
-2.02426e-06
3.66869e-05
-2.56635e-06
4.08229e-05
-3.18253e-06
4.54439e-05
-3.86711e-06
5.06231e-05
-4.60579e-06
5.6447e-05
-5.37333e-06
6.30267e-05
-6.13355e-06
7.04977e-05
-6.83495e-06
7.77742e-05
-7.41705e-06
7.85234e-05
-7.84978e-06
7.94251e-05
-8.10099e-06
8.04723e-05
-8.14752e-06
8.16398e-05
-7.9791e-06
8.29071e-05
-7.59855e-06
8.42392e-05
-7.02038e-06
9.02647e-05
-6.21332e-06
7.98687e-05
-5.40538e-06
7.06138e-05
-4.6263e-06
6.23741e-05
-3.89579e-06
5.50062e-05
-3.98828e-06
4.86102e-05
-3.22003e-06
4.29026e-05
-2.53671e-06
3.77738e-05
-1.94001e-06
3.313e-05
-1.42554e-06
2.89811e-05
-9.85802e-07
2.52157e-05
-6.17218e-07
2.17826e-05
-3.21344e-07
1.82839e-05
-1.13031e-07
1.37655e-05
1.74051e-05
-2.02444e-07
2.78206e-05
-8.3387e-08
2.8561e-05
-7.57825e-09
2.93187e-05
3.00758e-08
3.00932e-05
3.89529e-08
3.08897e-05
1.63864e-08
-3.6177e-07
1.93606e-05
-5.68739e-07
2.1538e-05
-8.29676e-07
2.39548e-05
-1.15111e-06
2.66408e-05
-1.53999e-06
2.96304e-05
-2.00166e-06
3.29577e-05
-2.54034e-06
3.66609e-05
-3.15613e-06
4.07965e-05
-3.84615e-06
4.54229e-05
-4.60014e-06
5.06175e-05
-5.39837e-06
5.64721e-05
-6.21167e-06
6.31048e-05
-6.99676e-06
7.06595e-05
-7.69665e-06
7.80538e-05
-8.24581e-06
7.89195e-05
-8.61933e-06
7.99435e-05
-8.78793e-06
8.11127e-05
-8.73515e-06
8.23959e-05
-8.45843e-06
8.3767e-05
-7.96813e-06
8.51869e-05
-7.28643e-06
9.13378e-05
-6.38644e-06
8.08497e-05
-5.50692e-06
7.14944e-05
-4.67549e-06
6.31538e-05
-4.83255e-06
5.58505e-05
-3.94885e-06
4.9339e-05
-3.16047e-06
4.35263e-05
-2.47094e-06
3.83047e-05
-1.87706e-06
3.35815e-05
-1.37128e-06
2.93666e-05
-9.43995e-07
2.55425e-05
-5.89613e-07
2.20509e-05
-3.07347e-07
1.84782e-05
-1.09103e-07
1.38746e-05
1.74025e-05
-3.59185e-07
2.78145e-05
-1.964e-07
2.85595e-05
-8.18266e-08
2.93203e-05
-9.12685e-09
3.00962e-05
2.69877e-08
3.08929e-05
3.57517e-08
3.17096e-05
1.47804e-08
-5.63429e-07
1.93553e-05
-8.20787e-07
2.15291e-05
-1.13779e-06
2.39415e-05
-1.52151e-06
2.66223e-05
-1.97771e-06
2.96064e-05
-2.51136e-06
3.29287e-05
-3.12396e-06
3.66288e-05
-3.81479e-06
4.07652e-05
-4.57682e-06
4.53996e-05
-5.39493e-06
5.0614e-05
-6.24597e-06
5.65064e-05
-7.09406e-06
6.32021e-05
-7.89044e-06
7.08533e-05
-8.57172e-06
7.83797e-05
-9.07103e-06
7.93712e-05
-9.36807e-06
8.05236e-05
-9.43974e-06
8.18173e-05
-9.27717e-06
8.32146e-05
-8.88564e-06
8.46845e-05
-8.28389e-06
8.61844e-05
-7.50148e-06
9.24529e-05
-6.51457e-06
8.18574e-05
-5.57078e-06
7.23897e-05
-5.80404e-06
6.41253e-05
-4.78721e-06
5.66889e-05
-3.87665e-06
5.00552e-05
-3.07842e-06
4.41338e-05
-2.39024e-06
3.88179e-05
-1.80482e-06
3.4015e-05
-1.31169e-06
2.97343e-05
-8.99365e-07
2.58523e-05
-5.60445e-07
2.2304e-05
-2.92323e-07
1.86614e-05
-1.04484e-07
1.39791e-05
1.73972e-05
-5.58204e-07
2.78019e-05
-3.46588e-07
2.85529e-05
-1.89865e-07
2.93183e-05
-7.98987e-08
3.00975e-05
-1.0388e-08
3.08958e-05
2.41238e-08
3.17127e-05
3.27074e-08
3.25535e-05
1.32751e-08
-8.12063e-07
1.93465e-05
-1.12463e-06
2.1516e-05
-1.50304e-06
2.3923e-05
-1.95328e-06
2.65979e-05
-2.48085e-06
2.95759e-05
-3.08827e-06
3.2893e-05
-3.77648e-06
3.65905e-05
-4.54106e-06
4.07294e-05
-5.37059e-06
4.53753e-05
-6.24705e-06
5.06151e-05
-7.14103e-06
5.65533e-05
-8.01137e-06
6.3323e-05
-8.80272e-06
7.10843e-05
-9.4486e-06
7.87573e-05
-9.8796e-06
7.98827e-05
-1.00841e-05
8.1168e-05
-1.00463e-05
8.25864e-05
-9.76521e-06
8.40942e-05
-9.25515e-06
8.56558e-05
-8.54308e-06
8.7226e-05
-7.66429e-06
9.36026e-05
-6.59806e-06
8.28847e-05
-6.92216e-06
7.35078e-05
-5.7538e-06
6.50919e-05
-4.7017e-06
5.75139e-05
-3.77666e-06
5.07534e-05
-2.97781e-06
4.47214e-05
-2.29786e-06
3.93109e-05
-1.72573e-06
3.44291e-05
-1.24849e-06
3.00834e-05
-8.52994e-07
2.61448e-05
-5.30413e-07
2.25421e-05
-2.76726e-07
1.88337e-05
-9.94098e-08
1.40785e-05
1.73888e-05
-8.03637e-07
2.77809e-05
-5.37121e-07
2.85397e-05
-3.33314e-07
2.93113e-05
-1.82789e-07
3.00952e-05
-7.75748e-08
3.08967e-05
-1.13624e-08
3.17153e-05
2.14842e-08
3.25564e-05
2.98167e-08
3.34194e-05
1.18665e-08
-1.11188e-06
1.93338e-05
-1.48496e-06
2.14979e-05
-1.929e-06
2.38987e-05
-2.44985e-06
2.65668e-05
-3.05076e-06
2.95384e-05
-3.73392e-06
3.28504e-05
-4.49693e-06
3.65463e-05
-5.33142e-06
4.06902e-05
-6.22356e-06
4.53518e-05
-7.14952e-06
5.06236e-05
-8.07498e-06
5.6617e-05
-8.95221e-06
6.34725e-05
-9.72227e-06
7.1358e-05
-1.0314e-05
7.91917e-05
-1.06591e-05
8.04577e-05
-1.07565e-05
8.18782e-05
-1.05982e-05
8.34193e-05
-1.01927e-05
8.50317e-05
-9.56331e-06
8.6676e-05
-8.74382e-06
8.83055e-05
-7.77485e-06
9.47794e-05
-8.2092e-06
8.41717e-05
-6.86906e-06
7.46231e-05
-5.65471e-06
6.60449e-05
-4.58217e-06
5.83194e-05
-3.65386e-06
5.14295e-05
-2.86278e-06
4.52863e-05
-2.19695e-06
3.97821e-05
-1.64209e-06
3.48227e-05
-1.1832e-06
3.04136e-05
-8.0585e-07
2.64202e-05
-5.0014e-07
2.27655e-05
-2.60896e-07
1.89952e-05
-9.40858e-08
1.41726e-05
1.73766e-05
-1.09966e-06
2.7749e-05
-7.71803e-07
2.85177e-05
-5.15198e-07
2.92974e-05
-3.19404e-07
3.00876e-05
-1.75248e-07
3.0894e-05
-7.48751e-08
3.1716e-05
-1.20477e-08
3.25588e-05
1.90684e-08
3.34221e-05
2.70846e-08
3.43053e-05
1.05536e-08
-1.46752e-06
1.93163e-05
-1.90532e-06
2.14742e-05
-2.41912e-06
2.3868e-05
-3.01268e-06
2.65288e-05
-3.68912e-06
2.94936e-05
-4.44761e-06
3.28011e-05
-5.28217e-06
3.64971e-05
-6.18244e-06
4.06491e-05
-7.1293e-06
4.53315e-05
-8.09439e-06
5.0643e-05
-9.037e-06
5.67017e-05
-9.90564e-06
6.36559e-05
-1.06359e-05
7.16798e-05
-1.11552e-05
7.96877e-05
-1.1398e-05
8.10992e-05
-1.13749e-05
8.2655e-05
-1.10878e-05
8.43145e-05
-1.05549e-05
8.60233e-05
-9.80741e-06
8.77396e-05
-8.88556e-06
8.94162e-05
-9.69041e-06
9.62606e-05
-8.15731e-06
8.546e-05
-6.75692e-06
7.57253e-05
-5.51417e-06
6.69769e-05
-4.43473e-06
5.91003e-05
-3.51334e-06
5.20801e-05
-2.73721e-06
4.58265e-05
-2.09039e-06
4.02304e-05
-1.55588e-06
3.51953e-05
-1.11711e-06
3.07249e-05
-7.58785e-07
2.66789e-05
-4.70071e-07
2.29746e-05
-2.45144e-07
1.91462e-05
-8.8666e-08
1.42613e-05
1.736e-05
-1.45089e-06
2.77041e-05
-1.05476e-06
2.84849e-05
-7.38923e-07
2.92745e-05
-4.92383e-07
3.00731e-05
-3.04811e-07
3.0886e-05
-1.67201e-07
3.17129e-05
-7.17991e-08
3.25592e-05
-1.24501e-08
3.34243e-05
1.68721e-08
3.43079e-05
2.45089e-08
3.52192e-05
9.3351e-09
-1.88255e-06
1.92936e-05
-2.38921e-06
2.14443e-05
-2.97498e-06
2.38303e-05
-3.64362e-06
2.64833e-05
-4.3955e-06
2.94415e-05
-5.22656e-06
3.27455e-05
-6.12921e-06
3.64439e-05
-7.08826e-06
4.06081e-05
-8.08047e-06
4.53176e-05
-9.07141e-06
5.06774e-05
-1.00166e-05
5.68127e-05
-1.08587e-05
6.38787e-05
-1.15307e-05
7.20554e-05
-1.196e-05
8.02498e-05
-1.20849e-05
8.18092e-05
-1.19307e-05
8.34979e-05
-1.15095e-05
8.52691e-05
-1.08484e-05
8.70643e-05
-9.98629e-06
8.88403e-05
-1.10964e-05
9.08222e-05
-9.64743e-06
9.77507e-05
-8.03452e-06
8.67376e-05
-6.59456e-06
7.68057e-05
-5.33962e-06
6.78817e-05
-4.2656e-06
5.98526e-05
-3.35988e-06
5.27027e-05
-2.6047e-06
4.63408e-05
-1.98067e-06
4.06552e-05
-1.46878e-06
3.5547e-05
-1.05137e-06
3.10175e-05
-7.12384e-07
2.69212e-05
-4.40624e-07
2.31701e-05
-2.297e-07
1.92873e-05
-8.32615e-08
1.43445e-05
1.73383e-05
-1.86091e-06
2.76432e-05
-1.39001e-06
2.84387e-05
-1.00856e-06
2.92407e-05
-7.05043e-07
3.00494e-05
-4.68747e-07
3.08708e-05
-2.89601e-07
3.17044e-05
-1.58677e-07
3.25558e-05
-6.8361e-08
3.34245e-05
-1.25714e-08
3.43099e-05
1.48909e-08
3.52216e-05
2.20862e-08
3.61551e-05
8.20793e-09
-2.36051e-06
1.92649e-05
-2.93829e-06
2.14076e-05
-3.59852e-06
2.37852e-05
-4.34242e-06
2.64302e-05
-5.16741e-06
2.93824e-05
-6.06816e-06
3.26844e-05
-7.03268e-06
3.63883e-05
-8.04208e-06
4.05697e-05
-9.06742e-06
4.53136e-05
-1.00707e-05
5.07315e-05
-1.10013e-05
5.69554e-05
-1.17987e-05
6.41467e-05
-1.23944e-05
7.24898e-05
-1.27166e-05
8.08815e-05
-1.27104e-05
8.25889e-05
-1.24173e-05
8.44056e-05
-1.18588e-05
8.62795e-05
-1.10712e-05
8.81492e-05
-1.24989e-05
9.02428e-05
-1.10705e-05
9.22452e-05
-9.51937e-06
9.92356e-05
-7.85114e-06
8.79942e-05
-6.39089e-06
7.78569e-05
-5.13856e-06
6.87547e-05
-4.08057e-06
6.05733e-05
-3.19786e-06
5.32959e-05
-2.46828e-06
4.68285e-05
-1.8699e-06
4.10563e-05
-1.38226e-06
3.58779e-05
-9.86736e-07
3.12918e-05
-6.67199e-07
2.71478e-05
-4.12101e-07
2.33525e-05
-2.14717e-07
1.94187e-05
-7.79609e-08
1.44225e-05
1.73111e-05
-2.33324e-06
2.75633e-05
-1.78099e-06
2.83761e-05
-1.32743e-06
2.9193e-05
-9.60866e-07
3.00144e-05
-6.69999e-07
3.08463e-05
-4.44286e-07
3.16886e-05
-2.73796e-07
3.25468e-05
-1.49693e-07
3.34207e-05
-6.45678e-08
3.43097e-05
-1.2416e-08
3.52234e-05
1.31167e-08
3.61574e-05
1.98132e-08
3.6589e-05
7.18339e-09
-2.90309e-06
1.92297e-05
-3.5546e-06
2.13637e-05
-4.28969e-06
2.37325e-05
-5.10688e-06
2.63697e-05
-6.00261e-06
2.93168e-05
-6.96752e-06
3.26193e-05
-7.98634e-06
3.63325e-05
-9.03487e-06
4.05371e-05
-1.00809e-05
4.53238e-05
-1.10801e-05
5.08103e-05
-1.19786e-05
5.71352e-05
-1.27131e-05
6.44653e-05
-1.32146e-05
7.29877e-05
-1.34146e-05
8.15857e-05
-1.32669e-05
8.34385e-05
-1.2829e-05
8.53758e-05
-1.21329e-05
8.73412e-05
-1.38919e-05
8.95422e-05
-1.25001e-05
9.16725e-05
-1.09457e-05
9.36716e-05
-9.31798e-06
0.000100702
-7.61747e-06
8.92207e-05
-6.15487e-06
7.88732e-05
-4.91795e-06
6.95921e-05
-3.88494e-06
6.12603e-05
-3.03099e-06
5.38586e-05
-2.33058e-06
4.72891e-05
-1.75992e-06
4.1434e-05
-1.29729e-06
3.61885e-05
-9.23936e-07
3.15486e-05
-6.2362e-07
2.73593e-05
-3.84679e-07
2.35225e-05
-2.00318e-07
1.95411e-05
-7.28313e-08
1.44953e-05
1.72776e-05
-2.86967e-06
2.74611e-05
-2.231e-06
2.82945e-05
-1.6994e-06
2.91289e-05
-1.26337e-06
2.99655e-05
-9.11979e-07
3.08104e-05
-6.34055e-07
3.16633e-05
-4.1906e-07
3.25304e-05
-2.57379e-07
3.34112e-05
-1.4027e-07
3.43056e-05
-6.04362e-08
3.5223e-05
-1.19861e-08
3.6159e-05
1.15403e-08
3.65911e-05
1.77104e-08
3.55529e-05
6.28869e-09
-3.51244e-06
1.91875e-05
-4.23827e-06
2.13123e-05
-5.04654e-06
2.36721e-05
-5.93507e-06
2.63021e-05
-6.89661e-06
2.92459e-05
-7.9189e-06
3.25518e-05
-8.98174e-06
3.62794e-05
-1.00579e-05
4.05142e-05
-1.11091e-05
4.53528e-05
-1.20876e-05
5.09193e-05
-1.29359e-05
5.73581e-05
-1.35893e-05
6.484e-05
-1.39801e-05
7.35532e-05
-1.40454e-05
8.23642e-05
-1.37477e-05
8.43571e-05
-1.31623e-05
8.64052e-05
-1.52678e-05
8.87171e-05
-1.39323e-05
9.09744e-05
-1.23888e-05
9.31155e-05
-1.07351e-05
9.50887e-05
-9.05516e-06
0.00010214
-7.34399e-06
9.04099e-05
-5.89481e-06
7.98501e-05
-4.68424e-06
7.03914e-05
-3.68326e-06
6.19126e-05
-2.86247e-06
5.43905e-05
-2.19385e-06
4.77231e-05
-1.65194e-06
4.17887e-05
-1.21479e-06
3.64793e-05
-8.63471e-07
3.17884e-05
-5.81868e-07
2.75565e-05
-3.58511e-07
2.36807e-05
-1.86596e-07
1.96548e-05
-6.79153e-08
1.45632e-05
1.72376e-05
-3.47238e-06
2.73338e-05
-2.7424e-06
2.81904e-05
-2.1269e-06
2.90452e-05
-1.61569e-06
2.98999e-05
-1.19779e-06
3.07603e-05
-8.61859e-07
3.16264e-05
-5.9715e-07
3.25045e-05
-3.93178e-07
3.33943e-05
-2.40464e-07
3.42958e-05
-1.3046e-07
3.52185e-05
-5.5989e-08
3.61583e-05
-1.1283e-08
3.65925e-05
1.01717e-08
3.55548e-05
1.58361e-08
3.45448e-05
5.50574e-09
-4.18882e-06
1.91381e-05
-4.98753e-06
2.12533e-05
-5.86741e-06
2.36045e-05