/*--------------------------------*- C++ -*----------------------------------*\
  =========                 |
  \\      /  F ield         | OpenFOAM: The Open Source CFD Toolbox
   \\    /   O peration     | Website:  https://openfoam.org
    \\  /    A nd           | Version:  8
     \\/     M anipulation  |
\*---------------------------------------------------------------------------*/
FoamFile
{
    version     2.0;
    format      ascii;
    class       surfaceScalarField;
    location    "0.49";
    object      phi;
}
// * * * * * * * * * * * * * * * * * * * * * * * * * * * * * * * * * * * * * //

dimensions      [0 3 -1 0 0 0 0];

internalField   nonuniform List<scalar> 
31053
(
6.27759e-07
1.27522e-05
8.49669e-07
1.51581e-05
3.76865e-07
1.23754e-05
9.32383e-07
1.75573e-05
5.89939e-07
1.4945e-05
2.70459e-07
1.21049e-05
9.56044e-07
2.02163e-05
7.08648e-07
1.74386e-05
4.66607e-07
1.47489e-05
2.17413e-07
1.18875e-05
9.47053e-07
2.3249e-05
7.68732e-07
2.01563e-05
5.93147e-07
1.7312e-05
3.99206e-07
1.45671e-05
1.74395e-07
1.17131e-05
9.17087e-07
2.669e-05
7.94413e-07
2.32233e-05
6.69433e-07
2.008e-05
5.28557e-07
1.71827e-05
3.3739e-07
1.44041e-05
1.40205e-07
1.15729e-05
8.71621e-07
3.06655e-05
7.97897e-07
2.66865e-05
7.12843e-07
2.31799e-05
6.1186e-07
1.99967e-05
4.62285e-07
1.70578e-05
2.83497e-07
1.42608e-05
1.13395e-07
1.14595e-05
8.13884e-07
3.51977e-05
7.86106e-07
3.06773e-05
7.34293e-07
2.6665e-05
6.62604e-07
2.31292e-05
5.46343e-07
1.99126e-05
3.99571e-07
1.69417e-05
2.37172e-07
1.4137e-05
9.12753e-08
1.13682e-05
7.46944e-07
4.03869e-05
7.63054e-07
3.52208e-05
7.40169e-07
3.06714e-05
6.90881e-07
2.66368e-05
5.98627e-07
2.30769e-05
4.803e-07
1.98319e-05
3.41972e-07
1.68369e-05
1.95827e-07
1.40325e-05
7.19365e-08
1.12963e-05
6.72432e-07
4.63545e-05
7.30474e-07
4.04195e-05
7.33933e-07
3.5227e-05
7.02725e-07
3.06595e-05
6.28214e-07
2.66072e-05
5.3058e-07
2.30266e-05
4.16526e-07
1.97573e-05
2.87394e-07
1.67453e-05
1.57576e-07
1.39468e-05
5.42467e-08
1.12421e-05
5.91924e-07
5.32205e-05
6.9057e-07
4.63944e-05
7.16539e-07
4.04369e-05
7.01545e-07
3.52282e-05
6.4114e-07
3.06466e-05
5.58103e-07
2.65796e-05
4.6219e-07
2.29809e-05
3.53263e-07
1.96915e-05
2.3434e-07
1.66686e-05
1.21194e-07
1.38799e-05
3.74603e-08
1.12046e-05
5.07476e-07
6.10644e-05
6.45177e-07
5.32659e-05
6.8933e-07
4.64216e-05
6.89972e-07
4.04485e-05
6.40964e-07
3.52284e-05
5.68731e-07
3.0636e-05
4.85101e-07
2.65567e-05
3.91903e-07
2.29423e-05
2.89257e-07
1.96365e-05
1.81836e-07
1.66079e-05
8.57968e-08
1.38315e-05
2.10794e-08
1.11835e-05
4.21962e-07
7.00675e-05
5.9585e-07
6.11138e-05
6.5347e-07
5.33018e-05
6.68669e-07
4.64429e-05
6.29958e-07
4.04595e-05
5.66033e-07
3.52311e-05
4.9072e-07
3.06304e-05
4.07799e-07
2.65408e-05
3.18545e-07
2.2913e-05
2.2368e-07
1.95947e-05
1.29175e-07
1.65646e-05
5.0725e-08
1.38019e-05
4.9115e-09
1.11786e-05
3.39416e-07
8.04145e-05
5.43555e-07
7.01198e-05
6.10193e-07
6.11571e-05
6.38029e-07
5.33324e-05
6.09222e-07
4.64637e-05
5.52066e-07
4.04735e-05
4.82514e-07
3.52393e-05
4.05838e-07
3.06323e-05
3.25072e-07
2.65343e-05
2.41339e-07
2.28953e-05
1.55979e-07
1.95679e-05
7.57873e-08
1.65395e-05
1.56112e-08
1.37912e-05
-1.12269e-08
1.11898e-05
2.77155e-07
7.62523e-05
4.88331e-07
8.04698e-05
5.60823e-07
7.01692e-05
5.98463e-07
6.11966e-05
5.79184e-07
5.33624e-05
5.27904e-07
4.64878e-05
4.62437e-07
4.04935e-05
3.89317e-07
3.52558e-05
3.1303e-07
3.06444e-05
2.36156e-07
2.65395e-05
1.59776e-07
2.28915e-05
8.56977e-08
1.9558e-05
2.13876e-08
1.65337e-05
-1.9712e-08
1.37997e-05
-2.74656e-08
1.12173e-05
2.27913e-07
7.62392e-05
4.38323e-07
7.63023e-05
5.06699e-07
8.05239e-05
5.50585e-07
7.02171e-05
5.40067e-07
6.12357e-05
4.94001e-07
5.33963e-05
4.31469e-07
4.65188e-05
3.60087e-07
4.05228e-05
2.85455e-07
3.52834e-05
2.1154e-07
3.0669e-05
1.40534e-07
2.65587e-05
7.34348e-08
2.29038e-05
1.27033e-08
1.95667e-05
-3.41384e-08
1.65482e-05
-5.53883e-08
1.38276e-05
-4.38538e-08
1.12611e-05
1.88771e-07
7.62291e-05
3.91144e-07
7.62864e-05
4.58479e-07
7.63505e-05
4.95462e-07
8.0579e-05
4.92168e-07
7.0265e-05
4.50567e-07
6.12792e-05
3.90007e-07
5.34378e-05
3.19016e-07
4.65599e-05
2.44043e-07
4.05642e-05
1.70182e-07
3.53247e-05
1.00825e-07
3.07087e-05
3.78063e-08
2.65944e-05
-1.76901e-08
2.29342e-05
-6.29235e-08
1.95954e-05
-9.07138e-08
1.65835e-05
-9.13092e-08
1.38751e-05
-6.0209e-08
1.13214e-05
1.57321e-07
7.62235e-05
3.47346e-07
7.62729e-05
4.13566e-07
7.63313e-05
4.45246e-07
7.64007e-05
4.3615e-07
8.0635e-05
3.9785e-07
7.03177e-05
3.38226e-07
6.1331e-05
2.66414e-07
5.34904e-05
1.89522e-07
4.66144e-05
1.13558e-07
4.06208e-05
4.29215e-08
3.53826e-05
-1.94921e-08
3.0766e-05
-7.19521e-08
2.66486e-05
-1.13343e-07
2.29846e-05
-1.40881e-07
1.96456e-05
-1.4803e-07
1.66402e-05
-1.27217e-07
1.39421e-05
-7.64072e-08
1.13978e-05
1.31824e-07
7.62155e-05
3.07204e-07
7.62636e-05
3.72107e-07
7.63144e-05
3.97859e-07
7.63787e-05
3.84149e-07
7.64527e-05
3.36499e-07
8.06964e-05
2.76341e-07
7.03796e-05
2.02417e-07
6.13949e-05
1.22083e-07
5.35578e-05
4.22101e-08
4.66857e-05
-3.19854e-08
4.06957e-05
-9.6679e-08
3.54598e-05
-1.49273e-07
3.08433e-05
-1.88342e-07
2.67236e-05
-2.12987e-07
2.30567e-05
-2.20559e-07
1.97181e-05
-2.05589e-07
1.67186e-05
-1.62762e-07
1.40284e-05
-9.21938e-08
1.149e-05
1.10993e-07
7.62108e-05
2.70815e-07
7.62519e-05
3.34084e-07
7.63016e-05
3.53797e-07
7.63585e-05
3.34551e-07
7.64283e-05
2.79664e-07
7.65095e-05
2.05031e-07
8.07677e-05
1.27249e-07
7.04547e-05
4.18151e-08
6.14752e-05
-4.38293e-08
5.36439e-05
-1.23597e-07
4.67773e-05
-1.92921e-07
4.0792e-05
-2.48433e-07
3.5559e-05
-2.87958e-07
3.09429e-05
-3.10585e-07
2.68212e-05
-3.15702e-07
2.31519e-05
-3.01103e-07
1.98137e-05
-2.62746e-07
1.68186e-05
-1.97467e-07
1.41337e-05
-1.07384e-07
1.15973e-05
9.38683e-08
7.62071e-05
2.38116e-07
7.62435e-05
2.99308e-07
7.62867e-05
3.13299e-07
7.63421e-05
2.88175e-07
7.64048e-05
2.25593e-07
7.64824e-05
1.39459e-07
7.65751e-05
4.16703e-08
8.08533e-05
-5.10396e-08
7.05476e-05
-1.4455e-07
6.15759e-05
-2.32083e-07
5.37524e-05
-3.08221e-07
4.68926e-05
-3.69005e-07
4.09125e-05
-4.11574e-07
3.56826e-05
-4.34535e-07
3.10669e-05
-4.37455e-07
2.6943e-05
-4.20226e-07
2.3271e-05
-3.81493e-07
1.99324e-05
-3.18719e-07
1.69398e-05
-2.30848e-07
1.42572e-05
-1.21663e-07
1.1719e-05
8.08117e-08
6.95951e-05
2.08924e-07
7.62363e-05
2.67613e-07
7.62752e-05
2.76411e-07
7.63236e-05
2.45523e-07
7.63848e-05
1.75263e-07
7.64552e-05
7.74582e-08
7.65444e-05
-3.63978e-08
7.66532e-05
-1.55573e-07
8.09578e-05
-2.59681e-07
7.06627e-05
-3.57535e-07
6.17014e-05
-4.4299e-07
5.38871e-05
-5.11349e-07
4.7035e-05
-5.59249e-07
4.10602e-05
-5.84866e-07
3.58329e-05
-5.87456e-07
3.12169e-05
-5.6727e-07
2.709e-05
-5.25117e-07
2.34146e-05
-4.6054e-07
2.00742e-05
-3.72666e-07
1.70816e-05
-2.62307e-07
1.43978e-05
-1.34834e-07
1.18538e-05
7.07812e-08
6.2554e-05
1.85226e-07
6.96188e-05
2.38898e-07
7.6265e-05
2.43069e-07
7.63086e-05
2.06876e-07
7.63622e-05
1.29321e-07
7.64307e-05
2.01569e-08
7.65125e-05
-1.09748e-07
7.66177e-05
-2.50162e-07
7.67478e-05
-3.88099e-07
8.10862e-05
-4.99675e-07
7.08049e-05
-5.97469e-07
6.18559e-05
-6.76187e-07
5.4052e-05
-7.31771e-07
4.72075e-05
-7.62183e-07
4.12375e-05
-7.66415e-07
3.60119e-05
-7.44606e-07
3.13942e-05
-6.98151e-07
2.72631e-05
-6.28708e-07
2.35828e-05
-5.3697e-07
2.02385e-05
-4.23629e-07
1.72429e-05
-2.91353e-07
1.45543e-05
-1.46519e-07
1.20004e-05
6.29145e-08
5.62259e-05
1.66218e-07
6.2573e-05
2.15108e-07
6.96425e-05
2.13173e-07
7.62949e-05
1.72371e-07
7.63431e-05
8.81868e-08
7.64033e-05
-3.16488e-08
7.64825e-05
-1.77071e-07
7.65798e-05
-3.38464e-07
7.6706e-05
-5.03535e-07
7.68632e-05
-6.57161e-07
8.12437e-05
-7.71389e-07
7.09788e-05
-8.63946e-07
6.20436e-05
-9.30232e-07
5.42504e-05
-9.67771e-07
4.74131e-05
-9.75542e-07
4.14466e-05
-9.53639e-07
3.62209e-05
-9.03637e-07
3.15997e-05
-8.27905e-07
2.74623e-05
-7.2923e-07
2.3775e-05
-6.09387e-07
2.04243e-05
-4.70768e-07
1.74224e-05
-3.17135e-07
1.47249e-05
-1.5612e-07
1.21565e-05
5.66387e-08
5.05383e-05
1.50871e-07
5.62412e-05
1.95645e-07
6.25925e-05
1.88774e-07
6.96669e-05
1.42068e-07
7.63252e-05
5.21129e-08
7.63791e-05
-7.73995e-08
7.64491e-05
-2.37389e-07
7.65428e-05
-4.18999e-07
7.66603e-05
-6.10744e-07
7.68133e-05
-7.98039e-07
7.70041e-05
-9.63177e-07
8.14355e-05
-1.07441e-06
7.11892e-05
-1.1553e-06
6.22687e-05
-1.20316e-06
5.44858e-05
-1.21668e-06
4.76542e-05
-1.19623e-06
4.16892e-05
-1.14369e-06
3.6461e-05
-1.0618e-06
3.18336e-05
-9.5424e-07
2.76873e-05
-8.24786e-07
2.39904e-05
-6.76532e-07
2.06301e-05
-5.12774e-07
1.7618e-05
-3.3893e-07
1.49077e-05
-1.61457e-07
1.23179e-05
5.15603e-08
4.54251e-05
1.3839e-07
5.05508e-05
1.79681e-07
5.62572e-05
1.69133e-07
6.26121e-05
1.18103e-07
6.96909e-05
2.12397e-08
7.63561e-05
-1.16721e-07
7.64185e-05
-2.89988e-07
7.65017e-05
-4.90608e-07
7.66144e-05
-7.08035e-07
7.67576e-05
-9.28393e-07
7.69436e-05
-1.13419e-06
7.71751e-05
-1.30578e-06
8.16669e-05
-1.40687e-06
7.14408e-05
-1.46932e-06
6.25349e-05
-1.49186e-06
5.4761e-05
-1.47485e-06
4.79329e-05
-1.42087e-06
4.19664e-05
-1.33324e-06
3.67324e-05
-1.21626e-06
3.20956e-05
-1.0747e-06
2.79372e-05
-9.13624e-07
2.42275e-05
-7.36656e-07
2.08539e-05
-5.48771e-07
1.78278e-05
-3.52612e-07
1.50989e-05
-1.29526e-07
1.24475e-05
4.74007e-08
4.08302e-05
1.28169e-07
4.54353e-05
1.66547e-07
5.05639e-05
1.53329e-07
5.6273e-05
9.95821e-08
6.26307e-05
-2.36108e-09
6.97145e-05
-1.4938e-07
7.63888e-05
-3.34364e-07
7.64628e-05
-5.52398e-07
7.65635e-05
-7.94032e-07
7.67004e-05
-1.04629e-06
7.68755e-05
-1.29206e-06
7.71015e-05
-1.5117e-06
7.7381e-05
-1.68293e-06
8.19429e-05
-1.7663e-06
7.17378e-05
-1.80245e-06
6.28454e-05
-1.79212e-06
5.50783e-05
-1.73835e-06
4.82503e-05
-1.64551e-06
4.22787e-05
-1.51883e-06
3.7035e-05
-1.36393e-06
3.23848e-05
-1.18699e-06
2.82105e-05
-9.93552e-07
2.44844e-05
-7.88412e-07
2.10936e-05
-5.7341e-07
1.80486e-05
-3.44829e-07
1.53142e-05
-8.01279e-08
1.25276e-05
4.39587e-08
3.66994e-05
1.19745e-07
4.08386e-05
1.55694e-07
4.54462e-05
1.40637e-07
5.05766e-05
8.52958e-08
5.62873e-05
-1.98283e-08
6.26481e-05
-1.73278e-07
6.97384e-05
-3.70175e-07
7.64246e-05
-6.03712e-07
7.65142e-05
-8.67639e-07
7.66371e-05
-1.15009e-06
7.68042e-05
-1.43458e-06
7.7018e-05
-1.70162e-06
7.72914e-05
-1.92847e-06
7.76265e-05
-2.092e-06
8.22686e-05
-2.14875e-06
7.20841e-05
-2.1499e-06
6.32032e-05
-2.09942e-06
5.54393e-05
-2.00251e-06
4.86073e-05
-1.86599e-06
4.26259e-05
-1.69669e-06
3.73677e-05
-1.50193e-06
3.26998e-05
-1.28846e-06
2.85055e-05
-1.06267e-06
2.47587e-05
-8.26779e-07
2.13469e-05
-5.81254e-07
1.82851e-05
-3.17852e-07
1.55519e-05
-5.62898e-08
1.25839e-05
4.10854e-08
3.29889e-05
1.12759e-07
3.67064e-05
1.46682e-07
4.08476e-05
1.30435e-07
4.54564e-05
7.42884e-08
5.05876e-05
-3.25187e-08
5.63e-05
-1.89894e-07
6.26647e-05
-3.9521e-07
6.97634e-05
-6.44078e-07
7.64649e-05
-9.28019e-07
7.65745e-05
-1.23847e-06
7.67255e-05
-1.55983e-06
7.69295e-05
-1.87298e-06
7.71894e-05
-2.15495e-06
7.75179e-05
-2.38176e-06
7.79163e-05
-2.52865e-06
8.26485e-05
-2.54884e-06
7.2483e-05
-2.50645e-06
6.36103e-05
-2.40823e-06
5.58451e-05
-2.2624e-06
4.90038e-05
-2.0778e-06
4.3007e-05
-1.86336e-06
3.77292e-05
-1.62717e-06
3.30385e-05
-1.37673e-06
2.88195e-05
-1.11675e-06
2.50487e-05
-8.48495e-07
2.16142e-05
-5.76563e-07
1.85438e-05
-2.92495e-07
1.57881e-05
-5.08523e-08
1.26347e-05
3.86694e-08
2.96504e-05
1.06932e-07
3.29947e-05
1.39166e-07
3.67139e-05
1.22208e-07
4.08558e-05
6.58511e-08
4.54648e-05
-4.153e-08
5.05966e-05
-2.0091e-07
5.6311e-05
-4.11395e-07
6.26809e-05
-6.71106e-07
6.97905e-05
-9.74552e-07
7.65115e-05
-1.31038e-06
7.66464e-05
-1.66617e-06
7.68318e-05
-2.02353e-06
7.708e-05
-2.35943e-06
7.73939e-05
-2.6493e-06
7.77854e-05
-2.86706e-06
7.82547e-05
-2.98688e-06
8.30866e-05
-2.96059e-06
7.29372e-05
-2.86575e-06
6.40678e-05
-2.7129e-06
5.62955e-05
-2.51279e-06
4.94387e-05
-2.27692e-06
4.34205e-05
-2.01529e-06
3.81173e-05
-1.73686e-06
3.33986e-05
-1.44825e-06
2.9151e-05
-1.15331e-06
2.53535e-05
-8.58302e-07
2.18959e-05
-5.66703e-07
1.8818e-05
-2.7829e-07
1.60156e-05
-5.4809e-08
1.26895e-05
3.66249e-08
2.665e-05
1.02044e-07
2.96553e-05
1.32869e-07
3.3001e-05
1.15552e-07
3.67206e-05
5.94299e-08
4.08622e-05
-4.77223e-08
4.5471e-05
-2.07666e-07
5.06034e-05
-4.20822e-07
5.63204e-05
-6.87266e-07
6.26971e-05
-1.00458e-06
6.98205e-05
-1.365e-06
7.65661e-05
-1.75231e-06
7.67326e-05
-2.15131e-06
7.69596e-05
-2.53926e-06
7.72599e-05
-2.89128e-06
7.76359e-05
-3.1801e-06
7.80985e-05
-3.37778e-06
7.86456e-05
-3.46003e-06
8.3586e-05
-3.37685e-06
7.34483e-05
-3.22135e-06
6.45762e-05
-3.00736e-06
5.67901e-05
-2.74898e-06
4.99108e-05
-2.45921e-06
4.38645e-05
-2.14925e-06
3.85297e-05
-1.82784e-06
3.37782e-05
-1.50097e-06
2.94987e-05
-1.17619e-06
2.56714e-05
-8.61637e-07
2.21909e-05
-5.58953e-07
1.90986e-05
-2.74182e-07
1.62349e-05
-7.57005e-08
1.27652e-05
3.48854e-08
2.39557e-05
9.7921e-08
2.66542e-05
1.27569e-07
2.96606e-05
1.10149e-07
3.30064e-05
5.45815e-08
3.67254e-05
-5.1769e-08
4.08663e-05
-2.11222e-07
4.54745e-05
-4.25172e-07
5.06077e-05
-6.95181e-07
5.63283e-05
-1.02123e-06
6.27137e-05
-1.39929e-06
6.98548e-05
-1.81721e-06
7.6631e-05
-2.25469e-06
7.6836e-05
-2.69211e-06
7.71124e-05
-3.10462e-06
7.74732e-05
-3.46395e-06
7.79197e-05
-3.74035e-06
7.8461e-05
-3.90688e-06
7.90925e-05
-3.94021e-06
8.41494e-05
-3.79036e-06
7.40173e-05
-3.56629e-06
6.51352e-05
-3.28617e-06
5.73273e-05
-2.96617e-06
5.04178e-05
-2.62103e-06
4.43362e-05
-2.26229e-06
3.89641e-05
-1.89839e-06
3.41756e-05
-1.53778e-06
2.98603e-05
-1.19047e-06
2.60002e-05
-8.63437e-07
2.24953e-05
-5.55002e-07
1.93795e-05
-3.3783e-07
1.64971e-05
-8.42673e-08
1.28495e-05
3.33983e-08
2.15335e-05
9.4425e-08
2.39592e-05
1.23088e-07
2.66586e-05
1.05749e-07
2.9665e-05
5.09544e-08
3.301e-05
-5.41973e-08
3.67279e-05
-2.12409e-07
4.08675e-05
-4.25775e-07
4.54751e-05
-6.96961e-07
5.06095e-05
-1.02779e-06
5.63349e-05
-1.41715e-06
6.27316e-05
-1.85725e-06
6.98948e-05
-2.33236e-06
7.67087e-05
-2.81598e-06
7.69598e-05
-3.2865e-06
7.72943e-05
-3.71503e-06
7.77243e-05
-4.07024e-06
7.82496e-05
-4.32271e-06
7.88769e-05
-4.44585e-06
7.95981e-05
-4.41924e-06
8.47782e-05
-4.19309e-06
7.46441e-05
-3.89422e-06
6.57432e-05
-3.54375e-06
5.79049e-05
-3.16023e-06
5.0957e-05
-2.7594e-06
4.48333e-05
-2.35279e-06
3.94185e-05
-1.9505e-06
3.45883e-05
-1.56307e-06
3.02329e-05
-1.20008e-06
2.63368e-05
-8.64364e-07
2.28047e-05
-6.81485e-07
1.97231e-05
-3.37029e-07
1.67498e-05
-9.31136e-08
1.29426e-05
3.21217e-08
1.93533e-05
9.1445e-08
2.15365e-05
1.19282e-07
2.3963e-05
1.02153e-07
2.66622e-05
4.82733e-08
2.96677e-05
-5.54183e-08
3.30112e-05
-2.11873e-07
3.67273e-05
-4.23672e-07
4.08654e-05
-6.94276e-07
4.54725e-05
-1.02688e-06
5.06086e-05
-1.42264e-06
5.63404e-05
-1.87724e-06
6.27516e-05
-2.37995e-06
6.99424e-05
-2.90922e-06
7.68019e-05
-3.43449e-06
7.71078e-05
-3.93005e-06
7.75093e-05
-4.36332e-06
7.80174e-05
-4.70267e-06
7.86295e-05
-4.91822e-06
7.93492e-05
-4.98577e-06
8.01646e-05
-4.888e-06
8.54732e-05
-4.57776e-06
7.53276e-05
-4.19874e-06
6.63982e-05
-3.7754e-06
5.85201e-05
-3.32798e-06
5.15255e-05
-2.8726e-06
4.53532e-05
-2.42197e-06
3.989e-05
-1.98772e-06
3.5013e-05
-1.58003e-06
3.06128e-05
-1.20553e-06
2.6678e-05
-1.06558e-06
2.31888e-05
-6.72141e-07
2.00582e-05
-3.36206e-07
1.69929e-05
-9.99539e-08
1.30426e-05
1.73971e-05
3.10231e-08
8.88918e-08
1.93558e-05
1.16033e-07
2.15397e-05
9.92037e-08
2.3966e-05
4.63227e-08
2.66642e-05
-5.57511e-08
2.9668e-05
-2.10115e-07
3.30095e-05
-4.19673e-07
3.67233e-05
-6.88432e-07
4.08595e-05
-1.02059e-06
4.54662e-05
-1.41901e-06
5.0605e-05
-1.88214e-06
5.63453e-05
-2.40325e-06
6.27749e-05
-2.96647e-06
6.99997e-05
-3.54653e-06
7.69139e-05
-4.10606e-06
7.72838e-05
-4.61574e-06
7.77617e-05
-5.04203e-06
7.83567e-05
-5.35193e-06
7.90633e-05
-5.51733e-06
7.98808e-05
-5.51657e-06
8.07932e-05
-5.33822e-06
8.62336e-05
-4.93701e-06
7.60659e-05
-4.47443e-06
6.70972e-05
-3.97752e-06
5.91696e-05
-3.46739e-06
5.21203e-05
-2.96114e-06
4.58923e-05
-2.4725e-06
4.03748e-05
-2.01256e-06
3.54455e-05
-1.58926e-06
3.09965e-05
-1.48946e-06
2.71019e-05
-1.05087e-06
2.35675e-05
-6.60276e-07
2.03823e-05
-3.33412e-07
1.72264e-05
-1.04353e-07
1.31469e-05
1.73993e-05
8.66866e-08
2.78119e-05
2.91397e-08
1.13249e-07
1.93586e-05
9.67769e-08
2.15421e-05
4.49348e-08
2.39674e-05
-5.54425e-08
2.66639e-05
-2.07521e-07
2.96654e-05
-4.14398e-07
3.30042e-05
-6.80441e-07
3.67153e-05
-1.01055e-06
4.08495e-05
-1.40886e-06
4.5456e-05
-1.87592e-06
5.05987e-05
-2.40823e-06
5.63502e-05
-2.99455e-06
6.2803e-05
-3.61595e-06
7.00691e-05
-4.2405e-06
7.70484e-05
-4.82396e-06
7.74921e-05
-5.33628e-06
7.8056e-05
-5.74164e-06
7.87464e-05
-6.00803e-06
7.95539e-05
-6.10923e-06
8.04735e-05
-6.02914e-06
8.14841e-05
-5.76141e-06
8.7058e-05
-5.26452e-06
7.6856e-05
-4.71704e-06
6.78367e-05
-4.14758e-06
5.98498e-05
-3.57827e-06
5.27375e-05
-3.02686e-06
4.64467e-05
-2.50632e-06
4.08685e-05
-2.02579e-06
3.58821e-05
-1.96494e-06
3.1472e-05
-1.47031e-06
2.75213e-05
-1.02949e-06
2.39367e-05
-6.44883e-07
2.06938e-05
-3.27889e-07
1.74499e-05
-1.06442e-07
1.32534e-05
1.74017e-05
1.10858e-07
2.78159e-05
8.26724e-08
2.85518e-05
2.73464e-08
9.4775e-08
1.93606e-05
4.39787e-08
2.15431e-05
-5.4682e-08
2.39666e-05
-2.04384e-07
2.66607e-05
-4.0832e-07
2.96593e-05
-6.71074e-07
3.29948e-05
-9.98017e-07
3.67028e-05
-1.39421e-06
4.08348e-05
-1.86177e-06
4.54419e-05
-2.39971e-06
5.05902e-05
-3.00058e-06
5.63563e-05
-3.65069e-06
6.28377e-05
-4.32506e-06
7.01537e-05
-4.98482e-06
7.72092e-05
-5.58123e-06
7.7737e-05
-6.08215e-06
7.83965e-05
-6.45189e-06
7.91903e-05
-6.65953e-06
8.01042e-05
-6.68399e-06
8.11283e-05
-6.51397e-06
8.22367e-05
-6.15022e-06
8.79437e-05
-5.55524e-06
7.76942e-05
-4.9234e-06
6.86126e-05
-4.2847e-06
6.05562e-05
-3.66172e-06
5.33723e-05
-3.07121e-06
4.70116e-05
-2.5243e-06
4.13671e-05
-2.50536e-06
3.64225e-05
-1.94031e-06
3.1942e-05
-1.44003e-06
2.79319e-05
-1.00169e-06
2.42935e-05
-6.25654e-07
2.09915e-05
-3.19674e-07
1.76631e-05
-1.06473e-07
1.33598e-05
1.74034e-05
9.31176e-08
2.78199e-05
1.06805e-07
2.85557e-05
7.87803e-08
2.93117e-05
2.56429e-08
4.33521e-08
1.93612e-05
-5.36148e-08
2.1542e-05
-2.00924e-07
2.39632e-05
-4.01794e-07
2.66542e-05
-6.60915e-07
2.96492e-05
-9.83954e-07
3.29808e-05
-1.3766e-06
3.66852e-05
-1.84216e-06
4.08152e-05
-2.38156e-06
4.54237e-05
-2.99032e-06
5.058e-05
-3.6591e-06
5.63647e-05
-4.36878e-06
6.28814e-05
-5.08797e-06
7.02568e-05
-5.77302e-06
7.7401e-05
-6.36852e-06
7.80234e-05
-6.84299e-06
7.87876e-05
-7.1609e-06
7.96917e-05
-7.29586e-06
8.07161e-05
-7.23117e-06
8.18455e-05
-6.96269e-06
8.30492e-05
-6.49853e-06
8.8887e-05
-5.80511e-06
7.85759e-05
-5.09184e-06
6.94197e-05
-4.38926e-06
6.12838e-05
-3.7187e-06
5.40198e-05
-3.09511e-06
4.75824e-05
-3.1228e-06
4.19845e-05
-2.47419e-06
3.69564e-05
-1.9001e-06
3.24021e-05
-1.39991e-06
2.83301e-05
-9.68048e-07
2.46359e-05
-6.0296e-07
2.12748e-05
-3.09068e-07
1.78657e-05
-1.04864e-07
1.34647e-05
1.74037e-05
4.29739e-08
2.78222e-05
9.08461e-08
2.85596e-05
1.02939e-07
2.93155e-05
7.50244e-08
3.00896e-05
2.40296e-08
-5.23511e-08
1.936e-05
-1.97306e-07
2.15384e-05
-3.95082e-07
2.39564e-05
-6.50399e-07
2.66437e-05
-9.69081e-07
2.96343e-05
-1.35724e-06
3.29614e-05
-1.81901e-06
3.66621e-05
-2.35678e-06
4.07904e-05
-2.9684e-06
4.54018e-05
-3.64799e-06
5.05689e-05
-4.38133e-06
5.63772e-05
-5.14351e-06
6.2937e-05
-5.89874e-06
7.03825e-05
-6.59612e-06
7.76286e-05
-7.1756e-06
7.8356e-05
-7.60668e-06
7.92334e-05
-7.85759e-06
8.02534e-05
-7.90571e-06
8.13907e-05
-7.74139e-06
8.26242e-05
-7.36815e-06
8.39188e-05
-6.80123e-06
8.98831e-05
-6.01162e-06
7.94957e-05
-5.22207e-06
7.02525e-05
-4.46179e-06
6.20269e-05
-3.75018e-06
5.46749e-05
-3.83052e-06
4.82901e-05
-3.08444e-06
4.25947e-05
-2.42263e-06
3.74789e-05
-1.8465e-06
3.28487e-05
-1.35139e-06
2.87134e-05
-9.29577e-07
2.49626e-05
-5.77423e-07
2.15432e-05
-2.96586e-07
1.80575e-05
-1.01983e-07
1.35667e-05
1.74024e-05
-5.09737e-08
2.78212e-05
4.40453e-08
2.85616e-05
8.87918e-08
2.93192e-05
9.9239e-08
3.00932e-05
7.14012e-08
3.08895e-05
2.25064e-08
-1.93651e-07
1.93563e-05
-3.88374e-07
2.15317e-05
-6.39843e-07
2.39459e-05
-9.53934e-07
2.66286e-05
-1.33701e-06
2.96141e-05
-1.79378e-06
3.29362e-05
-2.3277e-06
3.6633e-05
-2.93843e-06
4.07605e-05
-3.62281e-06
4.53766e-05
-4.37066e-06
5.05582e-05
-5.1625e-06
5.63962e-05
-5.96951e-06
6.30078e-05
-6.74891e-06
7.05353e-05
-7.44418e-06
7.78972e-05
-7.99028e-06
7.87396e-05
-8.3618e-06
7.97376e-05
-8.52994e-06
8.08776e-05
-8.47879e-06
8.21281e-05
-8.2065e-06
8.34626e-05
-7.7242e-06
8.48417e-05
-7.05481e-06
9.09263e-05
-6.17374e-06
8.04473e-05
-5.31417e-06
7.11049e-05
-4.50321e-06
6.27799e-05
-4.64393e-06
5.54883e-05
-3.78467e-06
4.89903e-05
-3.02029e-06
4.31924e-05
-2.35383e-06
3.79862e-05
-1.78177e-06
3.3279e-05
-1.29623e-06
2.90801e-05
-8.87441e-07
2.52726e-05
-5.4982e-07
2.17964e-05
-2.82733e-07
1.82382e-05
-9.81788e-08
1.36649e-05
1.73987e-05
-1.90046e-07
2.78151e-05
-4.49459e-08
2.85602e-05
4.54171e-08
2.9321e-05
8.6973e-08
3.00968e-05
9.57141e-08
3.0893e-05
6.7916e-08
3.17094e-05
2.10702e-08
-3.8181e-07
1.93498e-05
-6.29475e-07
2.15213e-05
-9.389e-07
2.39309e-05
-1.31656e-06
2.66081e-05
-1.76757e-06
2.95879e-05
-2.29612e-06
3.29046e-05
-2.90323e-06
3.65978e-05
-3.5879e-06
4.07256e-05
-4.34314e-06
4.53491e-05
-5.15405e-06
5.05497e-05
-5.99779e-06
5.64245e-05
-6.8389e-06
6.30977e-05
-7.629e-06
7.07201e-05
-8.3052e-06
7.82121e-05
-8.80103e-06
7.91788e-05
-9.09578e-06
8.03034e-05
-9.16683e-06
8.15657e-05
-9.00599e-06
8.29275e-05
-8.61929e-06
8.43577e-05
-8.02632e-06
8.58133e-05
-7.25739e-06
9.201e-05
-6.29099e-06
8.14242e-05
-5.36892e-06
7.19706e-05
-5.58081e-06
6.37168e-05
-4.59076e-06
5.62944e-05
-3.70687e-06
4.96769e-05
-2.93449e-06
4.3773e-05
-2.27089e-06
3.84754e-05
-1.70838e-06
3.36912e-05
-1.23623e-06
2.94289e-05
-8.42834e-07
2.55656e-05
-5.209e-07
2.20346e-05
-2.67999e-07
1.8408e-05
-9.37453e-08
1.37586e-05
1.73924e-05
-3.75482e-07
2.78025e-05
-1.77382e-07
2.85538e-05
-3.84937e-08
2.93193e-05
4.70915e-08
3.00983e-05
8.53928e-08
3.08964e-05
9.23577e-08
3.17128e-05
6.45695e-08
3.25533e-05
1.97255e-08
-6.19457e-07
1.93397e-05
-9.24255e-07
2.15067e-05
-1.29639e-06
2.39107e-05
-1.74118e-06
2.65817e-05
-2.26337e-06
2.95551e-05
-2.86497e-06
3.28663e-05
-3.5466e-06
3.65565e-05
-4.30386e-06
4.06863e-05
-5.12557e-06
4.53206e-05
-5.99393e-06
5.05459e-05
-6.87993e-06
5.64655e-05
-7.74275e-06
6.32115e-05
-8.52738e-06
7.09423e-05
-9.16776e-06
7.85788e-05
-9.5949e-06
7.9678e-05
-9.79682e-06
8.09334e-05
-9.75824e-06
8.23179e-05
-9.47902e-06
8.37873e-05
-8.97427e-06
8.53056e-05
-8.27185e-06
8.68277e-05
-7.40783e-06
9.31268e-05
-6.36393e-06
8.24192e-05
-6.66055e-06
7.30503e-05
-5.52115e-06
6.46472e-05
-4.49848e-06
5.7086e-05
-3.6023e-06
5.03447e-05
-2.83109e-06
4.43332e-05
-2.17707e-06
3.89441e-05
-1.62877e-06
3.40837e-05
-1.17308e-06
2.97591e-05
-7.96834e-07
2.58415e-05
-4.91341e-07
2.22579e-05
-2.5282e-07
1.85671e-05
-8.891e-08
1.38475e-05
1.73829e-05
-6.09894e-07
2.77813e-05
-3.5431e-07
2.85405e-05
-1.64126e-07
2.93124e-05
-3.161e-08
3.00964e-05
4.90632e-08
3.08977e-05
8.40586e-08
3.1716e-05
8.91632e-08
3.25566e-05
6.13479e-08
3.34193e-05
1.84655e-08
-9.10193e-07
1.93257e-05
-1.27682e-06
2.14871e-05
-1.71521e-06
2.38847e-05
-2.23045e-06
2.65488e-05
-2.82525e-06
2.95154e-05
-3.50149e-06
3.28212e-05
-4.25679e-06
3.65094e-05
-5.08294e-06
4.06436e-05
-5.96637e-06
4.52931e-05
-6.8836e-06
5.05495e-05
-7.8006e-06
5.65234e-05
-8.66991e-06
6.3354e-05
-9.43289e-06
7.12074e-05
-1.00187e-05
7.90027e-05
-1.03596e-05
8.02407e-05
-1.04541e-05
8.16293e-05
-1.02949e-05
8.31338e-05
-9.89136e-06
8.47044e-05
-9.26788e-06
8.63016e-05
-8.45904e-06
8.78789e-05
-7.50634e-06
9.42692e-05
-7.90574e-06
8.36644e-05
-6.59628e-06
7.41254e-05
-5.41394e-06
6.55626e-05
-4.37339e-06
5.78571e-05
-3.47604e-06
5.09897e-05
-2.71422e-06
4.48704e-05
-2.07546e-06
3.93907e-05
-1.5452e-06
3.44559e-05
-1.10829e-06
3.00706e-05
-7.50376e-07
2.61006e-05
-4.61741e-07
2.24668e-05
-2.3752e-07
1.87157e-05
-8.38682e-08
1.39314e-05
1.73695e-05
-8.96833e-07
2.77494e-05
-5.78053e-07
2.85186e-05
-3.32365e-07
2.92986e-05
-1.503e-07
3.00891e-05
-2.43234e-08
3.08954e-05
5.13242e-08
3.17171e-05
8.2978e-08
3.25596e-05
8.61156e-08
3.34224e-05
5.82536e-08
3.43052e-05
1.72871e-08
-1.25808e-06
1.93069e-05
-1.69007e-06
2.1462e-05
-2.19806e-06
2.38523e-05
-2.7853e-06
2.65089e-05
-3.45454e-06
2.94685e-05
-4.20498e-06
3.27694e-05
-5.03081e-06
3.64573e-05
-5.92189e-06
4.05992e-05
-6.85944e-06
4.52689e-05
-7.81537e-06
5.05643e-05
-8.74921e-06
5.66027e-05
-9.60966e-06
6.35308e-05
-1.03325e-05
7.15212e-05
-1.08455e-05
7.94886e-05
-1.10836e-05
8.08702e-05
-1.10573e-05
8.23917e-05
-1.07691e-05
8.40116e-05
-1.02385e-05
8.5675e-05
-9.49752e-06
8.73401e-05
-8.58752e-06
8.89601e-05
-9.3423e-06
9.57058e-05
-7.84072e-06
8.49088e-05
-6.47448e-06
7.5186e-05
-5.2667e-06
6.64559e-05
-4.22171e-06
5.86028e-05
-3.33322e-06
5.16087e-05
-2.58776e-06
4.53827e-05
-1.96897e-06
3.98145e-05
-1.45962e-06
3.48072e-05
-1.04312e-06
3.03633e-05
-7.04274e-07
2.63431e-05
-4.32521e-07
2.26618e-05
-2.22391e-07
1.88542e-05
-7.87661e-08
1.40102e-05
1.73517e-05
-1.24033e-06
2.77046e-05
-8.52022e-07
2.84858e-05
-5.4523e-07
2.92759e-05
-3.09635e-07
3.00747e-05
-1.35894e-07
3.08878e-05
-1.66389e-08
3.17145e-05
5.38662e-08
3.25604e-05
8.21788e-08
3.34253e-05
8.32121e-08
3.43082e-05
5.52814e-08
3.52191e-05
1.61877e-08
-1.66603e-06
1.92829e-05
-2.16672e-06
2.14306e-05
-2.74597e-06
2.3813e-05
-3.4072e-06
2.64615e-05
-4.15077e-06
2.94143e-05
-4.97278e-06
3.27114e-05
-5.86588e-06
3.64013e-05
-6.81517e-06
4.05549e-05
-7.79771e-06
4.52512e-05
-8.77926e-06
5.05944e-05
-9.71554e-06
5.67085e-05
-1.05492e-05
6.37475e-05
-1.12135e-05
7.18892e-05
-1.1636e-05
8.0041e-05
-1.17557e-05
8.15687e-05
-1.15979e-05
8.32204e-05
-1.11756e-05
8.49486e-05
-1.0517e-05
8.66945e-05
-9.66223e-06
8.84148e-05
-1.07101e-05
9.03279e-05
-9.28413e-06
9.71492e-05
-7.70645e-06
8.61408e-05
-6.30406e-06
7.62233e-05
-5.08697e-06
6.73212e-05
-4.0497e-06
5.93192e-05
-3.17859e-06
5.21995e-05
-2.45526e-06
4.5869e-05
-1.86001e-06
4.02149e-05
-1.37369e-06
3.51378e-05
-9.78661e-07
3.06377e-05
-6.59085e-07
2.65697e-05
-4.04071e-07
2.28435e-05
-2.07647e-07
1.89831e-05
-7.37079e-08
1.40839e-05
1.7329e-05
-1.64328e-06
2.7644e-05
-1.17971e-06
2.84397e-05
-8.05982e-07
2.92421e-05
-5.11489e-07
3.00512e-05
-2.86173e-07
3.08728e-05
-1.20957e-07
3.17065e-05
-8.58045e-09
3.25576e-05
5.66685e-08
3.34258e-05
8.16514e-08
3.43109e-05
8.04307e-08
3.52219e-05
5.24368e-08
3.6155e-05
1.51605e-08
-2.13678e-06
1.9253e-05
-2.70789e-06
2.13926e-05
-3.36052e-06
2.37663e-05
-4.09591e-06
2.64067e-05
-4.91162e-06
2.93531e-05
-5.80251e-06
3.2648e-05
-6.75695e-06
3.63431e-05
-7.75629e-06
4.05135e-05
-8.77181e-06
4.52438e-05
-9.76563e-06
5.06445e-05
-1.06872e-05
5.68466e-05
-1.1476e-05
6.401e-05
-1.20636e-05
7.23168e-05
-1.23785e-05
8.06639e-05
-1.23665e-05
8.23373e-05
-1.20693e-05
8.41141e-05
-1.15096e-05
8.59413e-05
-1.07249e-05
8.77572e-05
-1.2079e-05
8.97838e-05
-1.06672e-05
9.1711e-05
-9.14266e-06
9.85854e-05
-7.51341e-06
8.73501e-05
-6.09405e-06
7.72304e-05
-4.88231e-06
6.81538e-05
-3.86314e-06
6.00038e-05
-3.0165e-06
5.27607e-05
-2.31974e-06
4.63287e-05
-1.75068e-06
4.05919e-05
-1.28881e-06
3.54479e-05
-9.15643e-07
3.08943e-05
-6.15321e-07
2.67809e-05
-3.76664e-07
2.30125e-05
-1.93425e-07
1.91028e-05
-6.87747e-08
1.41526e-05
1.73006e-05
-2.10843e-06
2.75646e-05
-1.56386e-06
2.83775e-05
-1.11748e-06
2.91947e-05
-7.5858e-07
3.00164e-05
-4.76711e-07
3.08486e-05
-2.61995e-07
3.1691e-05
-1.05527e-07
3.25492e-05
-1.76108e-10
3.34227e-05
5.97163e-08
3.43112e-05
8.13827e-08
3.52246e-05
7.7776e-08
3.61577e-05
4.97289e-08
3.65889e-05
1.42137e-08
-2.67149e-06
1.92166e-05
-3.31526e-06
2.13473e-05
-4.04167e-06
2.37121e-05
-4.84938e-06
2.63444e-05
-5.73503e-06
2.92856e-05
-6.68961e-06
3.25807e-05
-7.6981e-06
3.62849e-05
-8.7365e-06
4.04782e-05
-9.77269e-06
4.52508e-05
-1.07626e-05
5.07198e-05
-1.16519e-05
5.70225e-05
-1.23776e-05
6.4324e-05
-1.28705e-05
7.28087e-05
-1.30626e-05
8.136e-05
-1.29084e-05
8.31764e-05
-1.2466e-05
8.50705e-05
-1.17687e-05
8.6985e-05
-1.34438e-05
8.9122e-05
-1.2062e-05
9.11786e-05
-1.05274e-05
9.30958e-05
-8.9298e-06
0.000100002
-7.27202e-06
8.85281e-05
-5.85347e-06
7.82016e-05
-4.6597e-06
6.89504e-05
-3.66731e-06
6.06546e-05
-2.85064e-06
5.32916e-05
-2.18375e-06
4.67618e-05
-1.64272e-06
4.09458e-05
-1.20589e-06
3.57382e-05
-8.54732e-07
3.11337e-05
-5.73332e-07
2.69776e-05
-3.5046e-07
2.31696e-05
-1.79835e-07
1.92139e-05
-6.40263e-08
1.42167e-05
1.72662e-05
-2.63702e-06
2.74632e-05
-2.00699e-06
2.82964e-05
-1.48278e-06
2.91311e-05
-1.05385e-06
2.99679e-05
-7.1007e-07
3.0813e-05
-4.41113e-07
3.16662e-05
-2.37161e-07
3.25333e-05
-8.96164e-08
3.3414e-05
8.54905e-09
3.43079e-05
6.30098e-08
3.52247e-05
8.13102e-08
3.61603e-05
7.52487e-08
3.65915e-05
4.71855e-08
3.55528e-05
1.33707e-08
-3.27194e-06
1.91732e-05
-3.98895e-06
2.12946e-05
-4.78759e-06
2.36503e-05
-5.66588e-06
2.62753e-05
-6.6169e-06
2.92129e-05
-7.62865e-06
3.25112e-05
-8.68116e-06
3.62295e-05
-9.74734e-06
4.04528e-05
-1.0789e-05
4.52773e-05
-1.17581e-05
5.0826e-05
-1.25973e-05
5.72422e-05
-1.32415e-05
6.4695e-05
-1.36232e-05
7.33694e-05
-1.36798e-05
8.21314e-05
-1.33748e-05
8.40852e-05
-1.27844e-05
8.60862e-05
-1.47971e-05
8.83382e-05
-1.34649e-05
9.05249e-05
-1.19341e-05
9.25852e-05
-1.03037e-05
9.44697e-05
-8.65762e-06
0.000101387
-6.99285e-06
8.96675e-05
-5.59071e-06
7.91326e-05
-4.42552e-06
6.97086e-05
-3.4667e-06
6.12706e-05
-2.68412e-06
5.3792e-05
-2.04946e-06
4.71685e-05
-1.53728e-06
4.12772e-05
-1.1258e-06
3.60092e-05
-7.96381e-07
3.13567e-05
-5.33309e-07
2.71604e-05
-3.25584e-07
2.33153e-05
-1.66952e-07
1.93168e-05
-5.95001e-08
1.42762e-05
1.72251e-05
-3.23088e-06
2.7337e-05
-2.51087e-06
2.81931e-05
-1.90369e-06
2.90481e-05
-1.39975e-06
2.99029e-05
-9.88809e-07
3.07634e-05
-6.60443e-07
3.16298e-05
-4.04671e-07
3.25079e-05
-2.1176e-07
3.33977e-05
-7.33003e-08
3.42989e-05
1.75748e-08
3.52211e-05
6.65524e-08
3.61602e-05
8.13889e-08
3.65938e-05
7.29007e-08
3.55551e-05
4.48863e-08
3.45448e-05
1.26155e-08
-3.9384e-06
1.91227e-05
-4.72736e-06
2.12344e-05
-5.59687e-06
2.35813e-05
-6.54169e-06
2.62001e-05
-7.55227e-06
2.91365e-05