/*--------------------------------*- C++ -*----------------------------------*\
  =========                 |
  \\      /  F ield         | OpenFOAM: The Open Source CFD Toolbox
   \\    /   O peration     | Website:  https://openfoam.org
    \\  /    A nd           | Version:  8
     \\/     M anipulation  |
\*---------------------------------------------------------------------------*/
FoamFile
{
    version     2.0;
    format      ascii;
    class       volVectorField;
    location    "0.36";
    object      U;
}
// * * * * * * * * * * * * * * * * * * * * * * * * * * * * * * * * * * * * * //

dimensions      [0 1 -1 0 0 0 0];

internalField   nonuniform List<vector> 
15677
(
(-0.0399015 9.66595 0)
(0.0484951 9.92199 0)
(-0.00181359 9.37829 0)
(0.0206524 9.97702 0)
(0.0198921 9.78866 0)
(0.00731347 9.14125 0)
(0.0258391 9.99515 0)
(0.0165374 9.92467 0)
(0.0111793 9.65398 0)
(0.00649148 8.96067 0)
(0.0263309 10.0025 0)
(0.0205525 9.97871 0)
(0.016551 9.85203 0)
(0.009125 9.53081 0)
(0.00515975 8.81703 0)
(0.0255704 10.0057 0)
(0.0215845 10.003 0)
(0.0194062 9.94151 0)
(0.0153649 9.7795 0)
(0.00798049 9.41984 0)
(0.00424052 8.70238 0)
(0.0245089 10.0071 0)
(0.0218661 10.0147 0)
(0.0210024 9.98478 0)
(0.0182525 9.90243 0)
(0.0138548 9.7081 0)
(0.00692519 9.32158 0)
(0.00354493 8.61019 0)
(0.0230971 10.0075 0)
(0.0217426 10.0205 0)
(0.0218697 10.0069 0)
(0.0201988 9.96497 0)
(0.0169617 9.86193 0)
(0.012442 9.64083 0)
(0.00596862 9.23643 0)
(0.00295867 8.53616 0)
(0.0214091 10.0074 0)
(0.0211912 10.0233 0)
(0.0221529 10.0184 0)
(0.0212883 9.99809 0)
(0.0190535 9.94371 0)
(0.0156081 9.82229 0)
(0.0110792 9.57966 0)
(0.00507703 9.16416 0)
(0.00241882 8.47763 0)
(0.019516 10.007 0)
(0.0203306 10.0235 0)
(0.0221102 10.0241 0)
(0.0217808 10.0162 0)
(0.0202168 9.98814 0)
(0.0177204 9.92275 0)
(0.0141431 9.78537 0)
(0.00968578 9.52575 0)
(0.00419881 9.10454 0)
(0.00188726 8.4331 0)
(0.0175007 10.0063 0)
(0.0192744 10.0223 0)
(0.0216669 10.0271 0)
(0.0218031 10.0261 0)
(0.0207476 10.0131 0)
(0.0188618 9.97855 0)
(0.0161745 9.90359 0)
(0.0125193 9.75241 0)
(0.00820375 9.48009 0)
(0.00328854 9.0574 0)
(0.0013349 8.40161 0)
(0.0153992 10.0056 0)
(0.0179652 10.0206 0)
(0.0209343 10.0281 0)
(0.021457 10.0315 0)
(0.0207808 10.0273 0)
(0.0193196 10.0103 0)
(0.0171882 9.97057 0)
(0.0143583 9.8872 0)
(0.0106813 9.72459 0)
(0.00658245 9.44348 0)
(0.00230463 9.02268 0)
(0.000739129 8.38287 0)
(0.0132621 10.0048 0)
(0.0164821 10.0185 0)
(0.0198597 10.0274 0)
(0.0207822 10.034 0)
(0.0204003 10.0354 0)
(0.0192414 10.0288 0)
(0.0174624 10.0092 0)
(0.0151328 9.96504 0)
(0.0121996 9.8746 0)
(0.00856729 9.70297 0)
(0.00477068 9.41667 0)
(0.00121282 9.00042 0)
(5.65143e-05 8.37667 0)
(0.01116 10.0041 0)
(0.0148856 10.0162 0)
(0.0185087 10.0258 0)
(0.0197967 10.0345 0)
(0.0196659 10.0396 0)
(0.0187149 10.0396 0)
(0.0171497 10.0319 0)
(0.0151057 10.0103 0)
(0.0126085 9.96283 0)
(0.00961851 9.86678 0)
(0.00611306 9.68862 0)
(0.00272144 9.40029 0)
(-1.51191e-05 8.9908 0)
(-0.000614176 8.38297 0)
(0.00927061 10.0034 0)
(0.0131869 10.014 0)
(0.0169201 10.0235 0)
(0.0185016 10.0334 0)
(0.0185931 10.0412 0)
(0.0177894 10.0456 0)
(0.0163406 10.0453 0)
(0.0144271 10.0371 0)
(0.012144 10.0145 0)
(0.0095143 9.96484 0)
(0.00653162 9.86474 0)
(0.00325818 9.68251 0)
(0.000397242 9.39499 0)
(-0.00137849 8.99413 0)
(-0.00140252 8.40192 0)
(0.00772523 10.0029 0)
(0.0116239 10.0119 0)
(0.0151334 10.0209 0)
(0.016911 10.0313 0)
(0.0171826 10.0409 0)
(0.0164838 10.0483 0)
(0.0150802 10.053 0)
(0.0131886 10.0531 0)
(0.0109494 10.0453 0)
(0.00845429 10.0228 0)
(0.00574349 9.97197 0)
(0.00285738 9.86947 0)
(-6.16379e-05 9.68558 0)
(-0.00226092 9.40141 0)
(-0.00294141 9.01057 0)
(-0.00229249 8.43377 0)
(0.00641373 10.0024 0)
(0.0102316 10.0102 0)
(0.0133946 10.0184 0)
(0.0150548 10.0286 0)
(0.0154383 10.0392 0)
(0.0148019 10.0488 0)
(0.0133864 10.0568 0)
(0.0114328 10.0624 0)
(0.00911416 10.0638 0)
(0.00656912 10.0573 0)
(0.00390434 10.0358 0)
(0.00119061 9.98514 0)
(-0.00148028 9.88197 0)
(-0.00388314 9.69871 0)
(-0.00526755 9.42008 0)
(-0.00469641 9.04038 0)
(-0.00328048 8.47862 0)
(0.00530937 10.002 0)
(0.0089753 10.0087 0)
(0.011816 10.0162 0)
(0.0131776 10.0257 0)
(0.0133774 10.0364 0)
(0.0127443 10.0475 0)
(0.0112625 10.058 0)
(0.00917374 10.0674 0)
(0.00667647 10.0747 0)
(0.0039425 10.0781 0)
(0.00112641 10.0739 0)
(-0.00163862 10.0545 0)
(-0.00424697 10.0053 0)
(-0.00655555 9.90315 0)
(-0.0082635 9.72269 0)
(-0.0086503 9.45143 0)
(-0.00664853 9.08364 0)
(-0.0043614 8.53649 0)
(0.00438544 10.0016 0)
(0.00784309 10.0074 0)
(0.0103583 10.0143 0)
(0.0114392 10.023 0)
(0.0112622 10.0333 0)
(0.0103205 10.0448 0)
(0.00870861 10.0571 0)
(0.00641199 10.0691 0)
(0.00364503 10.0805 0)
(0.000605469 10.0904 0)
(-0.00251695 10.0969 0)
(-0.00554139 10.096 0)
(-0.00830324 10.0797 0)
(-0.0106617 10.0332 0)
(-0.0124256 9.93388 0)
(-0.0132324 9.75814 0)
(-0.0124261 9.49574 0)
(-0.00880285 9.14046 0)
(-0.00553373 8.60726 0)
(0.00361144 10.0013 0)
(0.00682336 10.0062 0)
(0.00901582 10.0126 0)
(0.00980687 10.0206 0)
(0.00928861 10.0303 0)
(0.00782851 10.0415 0)
(0.00573272 10.0545 0)
(0.00314726 10.0685 0)
(1.6011e-05 10.0828 0)
(-0.00344125 10.0971 0)
(-0.00700567 10.1104 0)
(-0.0104599 10.1209 0)
(-0.0135918 10.1242 0)
(-0.0162069 10.1122 0)
(-0.0181288 10.0699 0)
(-0.0191282 9.97487 0)
(-0.0188033 9.80556 0)
(-0.0165939 9.55318 0)
(-0.0111477 9.21061 0)
(-0.00678464 8.69059 0)
(0.00297883 10.001 0)
(0.00591195 10.0052 0)
(0.00778436 10.011 0)
(0.00828796 10.0184 0)
(0.00742816 10.0274 0)
(0.00550162 10.0381 0)
(0.002691 10.0509 0)
(-0.000610417 10.0658 0)
(-0.00421208 10.0823 0)
(-0.0082076 10.0997 0)
(-0.0123501 10.1178 0)
(-0.0163896 10.1355 0)
(-0.0200764 10.1509 0)
(-0.0231693 10.1595 0)
(-0.0254453 10.1529 0)
(-0.0267006 10.1159 0)
(-0.0266819 10.0267 0)
(-0.0249718 9.86522 0)
(-0.0211402 9.6237 0)
(-0.0136748 9.29391 0)
(-0.00810725 8.78606 0)
(0.0024782 10.0008 0)
(0.00508917 10.0044 0)
(0.00666142 10.0096 0)
(0.00688614 10.0164 0)
(0.00569788 10.0247 0)
(0.00331129 10.0347 0)
(-0.000138793 10.047 0)
(-0.00441877 10.0618 0)
(-0.00902509 10.0794 0)
(-0.013697 10.0992 0)
(-0.0185686 10.1206 0)
(-0.0233558 10.1433 0)
(-0.0277731 10.1664 0)
(-0.0315408 10.1877 0)
(-0.0343924 10.2026 0)
(-0.0360861 10.2024 0)
(-0.0364012 10.1719 0)
(-0.0350806 10.0898 0)
(-0.0317156 9.93726 0)
(-0.0260364 9.70711 0)
(-0.0163532 9.38972 0)
(-0.00947816 8.89284 0)
(0.00209362 10.0007 0)
(0.00438567 10.0037 0)
(0.00563979 10.0084 0)
(0.00560297 10.0145 0)
(0.0041074 10.0221 0)
(0.00128407 10.0314 0)
(-0.00279023 10.043 0)
(-0.00794151 10.0573 0)
(-0.0138627 10.0748 0)
(-0.0198902 10.0958 0)
(-0.0256679 10.1198 0)
(-0.0313887 10.1462 0)
(-0.036727 10.1745 0)
(-0.0413646 10.2039 0)
(-0.044998 10.232 0)
(-0.0473467 10.2541 0)
(-0.0481618 10.2613 0)
(-0.0472234 10.2383 0)
(-0.044292 10.1643 0)
(-0.0389903 10.0215 0)
(-0.0312388 9.80292 0)
(-0.0191625 9.49749 0)
(-0.0108786 9.01021 0)
(0.00179719 10.0006 0)
(0.00381487 10.0032 0)
(0.00475806 10.0074 0)
(0.00443873 10.0129 0)
(0.0026626 10.0198 0)
(-0.000563745 10.0283 0)
(-0.0052272 10.039 0)
(-0.0112228 10.0525 0)
(-0.0183111 10.0695 0)
(-0.0260714 10.0905 0)
(-0.0336225 10.1158 0)
(-0.0405 10.1449 0)
(-0.0469841 10.1772 0)
(-0.0527117 10.2121 0)
(-0.0573394 10.2487 0)
(-0.0605545 10.2845 0)
(-0.0620758 10.3147 0)
(-0.0616661 10.3301 0)
(-0.0591244 10.3153 0)
(-0.0542546 10.2503 0)
(-0.0467307 10.1177 0)
(-0.0366941 9.91055 0)
(-0.0220376 9.61618 0)
(-0.0122434 9.13658 0)
(0.0015645 10.0005 0)
(0.00335012 10.0028 0)
(0.00403578 10.0065 0)
(0.00343899 10.0114 0)
(0.00136758 10.0175 0)
(-0.0022213 10.0253 0)
(-0.00742576 10.0351 0)
(-0.0142164 10.0477 0)
(-0.022431 10.0638 0)
(-0.0317262 10.0841 0)
(-0.0415185 10.1094 0)
(-0.0506574 10.14 0)
(-0.0585639 10.1753 0)
(-0.0656484 10.2144 0)
(-0.0715201 10.2568 0)
(-0.0758288 10.3015 0)
(-0.0782674 10.3458 0)
(-0.0785754 10.3847 0)
(-0.0765474 10.4088 0)
(-0.0720267 10.4031 0)
(-0.0648796 10.3474 0)
(-0.0548522 10.2252 0)
(-0.0422858 10.0291 0)
(-0.0248631 9.74451 0)
(-0.0132749 9.2701 0)
(0.00137933 10.0005 0)
(0.00296917 10.0025 0)
(0.00344563 10.0059 0)
(0.00262706 10.0102 0)
(0.000273958 10.0156 0)
(-0.00368095 10.0224 0)
(-0.00936913 10.0313 0)
(-0.0168893 10.0428 0)
(-0.0261642 10.0578 0)
(-0.0369379 10.0771 0)
(-0.0487135 10.1017 0)
(-0.0607004 10.1322 0)
(-0.0714276 10.1691 0)
(-0.080206 10.2115 0)
(-0.0876333 10.2584 0)
(-0.0933131 10.3093 0)
(-0.0969059 10.3628 0)
(-0.0981356 10.4162 0)
(-0.096787 10.4643 0)
(-0.0927135 10.4978 0)
(-0.0858146 10.5013 0)
(-0.0760488 10.4553 0)
(-0.0632081 10.3434 0)
(-0.0479667 10.1574 0)
(-0.0278286 9.88196 0)
(-0.0156036 9.41077 0)
(0.00123013 10.0004 0)
(0.00265458 10.0022 0)
(0.00296181 10.0053 0)
(0.00197272 10.0092 0)
(-0.000595882 10.0139 0)
(-0.00488383 10.0198 0)
(-0.0110453 10.0276 0)
(-0.0192176 10.038 0)
(-0.0294674 10.0517 0)
(-0.0416344 10.0697 0)
(-0.0553201 10.0931 0)
(-0.0698266 10.1228 0)
(-0.0841136 10.1595 0)
(-0.0963409 10.2037 0)
(-0.105727 10.2543 0)
(-0.113134 10.31 0)
(-0.118184 10.37 0)
(-0.120578 10.433 0)
(-0.120099 10.4961 0)
(-0.116604 10.5538 0)
(-0.11002 10.5967 0)
(-0.100336 10.6096 0)
(-0.0875776 10.5732 0)
(-0.0716554 10.471 0)
(-0.0529769 10.2945 0)
(-0.0246796 10.0222 0)
(-0.0115226 9.49627 0)
(0.00110847 10.0004 0)
(0.00239331 10.002 0)
(0.00256446 10.0049 0)
(0.00144404 10.0083 0)
(-0.00127955 10.0124 0)
(-0.00581121 10.0175 0)
(-0.0123864 10.0242 0)
(-0.0211838 10.0332 0)
(-0.0323075 10.0455 0)
(-0.0457595 10.0621 0)
(-0.0612493 10.0839 0)
(-0.0781856 10.1123 0)
(-0.0956226 10.1481 0)
(-0.112229 10.192 0)
(-0.125753 10.2446 0)
(-0.135365 10.3044 0)
(-0.142276 10.3696 0)
(-0.146157 10.4395 0)
(-0.146781 10.5125 0)
(-0.144027 10.5854 0)
(-0.13785 10.6529 0)
(-0.128281 10.7053 0)
(-0.115367 10.7275 0)
(-0.0992785 10.7002 0)
(-0.0796819 10.6071 0)
(-0.0569768 10.4375 0)
(-0.0201776 10.1939 0)
(-0.00295176 9.56209 0)
(0.00100811 10.0003 0)
(0.00217548 10.0018 0)
(0.0022324 10.0045 0)
(0.00101651 10.0076 0)
(-0.00181518 10.0112 0)
(-0.0065126 10.0156 0)
(-0.0133802 10.0212 0)
(-0.022708 10.0287 0)
(-0.0346598 10.0394 0)
(-0.0492691 10.0543 0)
(-0.0664292 10.0743 0)
(-0.0856679 10.1009 0)
(-0.10615 10.1352 0)
(-0.126633 10.1781 0)
(-0.145466 10.2304 0)
(-0.159962 10.2925 0)
(-0.169282 10.3623 0)
(-0.175089 10.4378 0)
(-0.177152 10.5181 0)
(-0.175364 10.6013 0)
(-0.169722 10.6842 0)
(-0.160305 10.7613 0)
(-0.147234 10.823 0)
(-0.130665 10.8541 0)
(-0.110611 10.8355 0)
(-0.0864748 10.7506 0)
(-0.0601858 10.5945 0)
(-0.021592 10.3672 0)
(0.00235342 9.61948 0)
(0.000924515 10.0003 0)
(0.00199326 10.0017 0)
(0.00195675 10.0041 0)
(0.00067289 10.007 0)
(-0.00223356 10.0102 0)
(-0.00703645 10.0139 0)
(-0.0140931 10.0186 0)
(-0.0237873 10.0248 0)
(-0.0364286 10.0336 0)
(-0.052129 10.0464 0)
(-0.0708018 10.0644 0)
(-0.092182 10.0889 0)
(-0.115561 10.1211 0)
(-0.139806 10.1623 0)
(-0.163344 10.2136 0)
(-0.184183 10.2752 0)
(-0.199165 10.3478 0)
(-0.207522 10.4285 0)
(-0.211501 10.5149 0)
(-0.211016 10.6059 0)
(-0.206108 10.6994 0)
(-0.19693 10.7923 0)
(-0.183677 10.8787 0)
(-0.166592 10.9491 0)
(-0.145738 10.9886 0)
(-0.120961 10.9782 0)
(-0.092063 10.9024 0)
(-0.0622421 10.7643 0)
(-0.0244136 10.5371 0)
(0.00320153 9.67644 0)
(0.000854308 10.0003 0)
(0.00184008 10.0016 0)
(0.00172814 10.0038 0)
(0.000392606 10.0064 0)
(-0.00255906 10.0093 0)
(-0.00742187 10.0125 0)
(-0.0145882 10.0163 0)
(-0.0245112 10.0213 0)
(-0.0376229 10.0284 0)
(-0.0542222 10.0389 0)
(-0.0743206 10.0544 0)
(-0.0976524 10.0764 0)
(-0.123741 10.1061 0)
(-0.151581 10.145 0)
(-0.179703 10.1944 0)
(-0.206169 10.255 0)
(-0.22862 10.3272 0)
(-0.243444 10.411 0)
(-0.250032 10.5034 0)
(-0.251353 10.6011 0)
(-0.247508 10.7029 0)
(-0.238729 10.8067 0)
(-0.225322 10.9091 0)
(-0.207632 11.0044 0)
(-0.185893 11.083 0)
(-0.160073 11.1304 0)
(-0.130695 11.1282 0)
(-0.097496 11.0624 0)
(-0.0640447 10.9413 0)
(-0.027081 10.7026 0)
(0.002717 9.74991 0)
(0.000794939 10.0003 0)
(0.00171057 10.0015 0)
(0.00153853 10.0036 0)
(0.000162872 10.006 0)
(-0.00281218 10.0085 0)
(-0.00770012 10.0112 0)
(-0.0149163 10.0143 0)
(-0.0249628 10.0182 0)
(-0.0383631 10.0238 0)
(-0.055573 10.0321 0)
(-0.076841 10.0447 0)
(-0.102017 10.0636 0)
(-0.130591 10.0905 0)
(-0.161815 10.1266 0)
(-0.194342 10.1733 0)
(-0.226318 10.2319 0)
(-0.255406 10.3031 0)
(-0.278911 10.3867 0)
(-0.292766 10.4827 0)
(-0.29665 10.5872 0)
(-0.294382 10.6964 0)
(-0.286304 10.809 0)
(-0.272856 10.9227 0)
(-0.254525 11.0342 0)
(-0.231724 11.1377 0)
(-0.204678 11.224 0)
(-0.17385 11.2791 0)
(-0.140444 11.2846 0)
(-0.103643 11.2294 0)
(-0.06671 11.1206 0)
(-0.0299332 10.8827 0)
(0.00158406 9.83464 0)
(0.000744414 10.0002 0)
(0.00160046 10.0014 0)
(0.00137908 10.0034 0)
(-2.62045e-05 10.0056 0)
(-0.00300857 10.0078 0)
(-0.007896 10.0101 0)
(-0.0151175 10.0125 0)
(-0.0252086 10.0155 0)
(-0.0387583 10.0197 0)
(-0.0563407 10.026 0)
(-0.0784044 10.0359 0)
(-0.105095 10.0513 0)
(-0.136031 10.0745 0)
(-0.170382 10.1072 0)
(-0.207081 10.1507 0)
(-0.244384 10.2065 0)
(-0.28001 10.2756 0)
(-0.311238 10.3583 0)
(-0.335057 10.4543 0)
(-0.346977 10.5631 0)
(-0.347093 10.68 0)
(-0.340227 10.8007 0)
(-0.326996 10.9238 0)
(-0.308074 11.047 0)
(-0.284092 11.1669 0)
(-0.255533 11.278 0)
(-0.223024 11.3717 0)
(-0.187515 11.4337 0)
(-0.150376 11.4462 0)
(-0.110517 11.4006 0)
(-0.0706072 11.3205 0)
(-0.0328765 11.0777 0)
(-0.000177518 9.92863 0)
(0.000701125 10.0002 0)
(0.0015064 10.0013 0)
(0.00124455 10.0032 0)
(-0.000180858 10.0052 0)
(-0.00316057 10.0072 0)
(-0.00802898 10.0091 0)
(-0.0152237 10.011 0)
(-0.0253012 10.0132 0)
(-0.038896 10.0161 0)
(-0.0566687 10.0207 0)
(-0.0792198 10.0281 0)
(-0.106947 10.0401 0)
(-0.139831 10.0589 0)
(-0.177176 10.0873 0)
(-0.217763 10.127 0)
(-0.260147 10.1792 0)
(-0.302136 10.2452 0)
(-0.341022 10.3259 0)
(-0.373713 10.4212 0)
(-0.396918 10.5304 0)
(-0.405782 10.6524 0)
(-0.400968 10.7819 0)
(-0.388441 10.9139 0)
(-0.369126 11.047 0)
(-0.343923 11.179 0)
(-0.313614 11.3066 0)
(-0.279026 11.4248 0)
(-0.241242 11.5249 0)
(-0.201282 11.5928 0)
(-0.160425 11.6111 0)
(-0.118323 11.5943 0)
(-0.0753591 11.5398 0)
(-0.03605 11.2682 0)
(-0.00211583 10.0294 0)
(0.000664079 10.0002 0)
(0.00142547 10.0013 0)
(0.00113071 10.003 0)
(-0.000308044 10.0049 0)
(-0.00327764 10.0067 0)
(-0.00811431 10.0083 0)
(-0.0152597 10.0097 0)
(-0.0252819 10.0111 0)
(-0.0388454 10.013 0)
(-0.0566715 10.016 0)
(-0.0794736 10.0211 0)
(-0.107843 10.03 0)
(-0.142072 10.0446 0)
(-0.181905 10.0678 0)
(-0.226247 10.1024 0)
(-0.273407 10.1503 0)
(-0.321512 10.2124 0)
(-0.367907 10.29 0)
(-0.409455 10.3834 0)
(-0.44272 10.4922 0)
(-0.464204 10.6151 0)
(-0.468766 10.7506 0)
(-0.457791 10.8925 0)
(-0.43852 11.0354 0)
(-0.412203 11.1779 0)
(-0.379978 11.318 0)
(-0.34295 11.4527 0)
(-0.302346 11.5771 0)
(-0.259436 11.6825 0)
(-0.215127 11.7547 0)
(-0.171486 11.7976 0)
(-0.126737 11.8091 0)
(-0.0805042 11.7551 0)
(-0.0391459 11.4535 0)
(-0.0039693 10.135 0)
(0.00135526 10.0012 0)
(0.000620151 10.0002 0)
(0.0010334 10.0029 0)
(-0.0004128 10.0046 0)
(-0.00336724 10.0062 0)
(-0.00816388 10.0075 0)
(-0.0152446 10.0085 0)
(-0.0251827 10.0093 0)
(-0.0386604 10.0102 0)
(-0.0564397 10.0118 0)
(-0.0793148 10.0149 0)
(-0.108022 10.021 0)
(-0.143098 10.0318 0)
(-0.184669 10.0499 0)
(-0.232162 10.0782 0)
(-0.283983 10.1202 0)
(-0.337889 10.1777 0)
(-0.391561 10.2511 0)
(-0.44186 10.3413 0)
(-0.485241 10.4485 0)
(-0.517987 10.5716 0)
(-0.53649 10.7086 0)
(-0.535405 10.8577 0)
(-0.517003 11.0117 0)
(-0.489925 11.1649 0)
(-0.45576 11.3161 0)
(-0.415988 11.4634 0)
(-0.372092 11.6042 0)
(-0.325494 11.7337 0)
(-0.277489 11.8428 0)
(-0.230364 11.9373 0)
(-0.183311 12.0049 0)
(-0.134919 12.0216 0)
(-0.0856252 11.9645 0)
(-0.0420389 11.6329 0)
(-0.00573862 10.2433 0)
(0.000948181 10.0028 0)
(0.00127482 10.0012 0)
(0.000567868 10.0002 0)
(-0.000499823 10.0044 0)
(-0.00343496 10.0058 0)
(-0.00818669 10.0069 0)
(-0.0151934 10.0075 0)
(-0.0250284 10.0077 0)
(-0.0383826 10.0077 0)
(-0.0560435 10.0081 0)
(-0.078861 10.0095 0)
(-0.107677 10.013 0)
(-0.143215 10.0204 0)
(-0.1859 10.0337 0)
(-0.235625 10.056 0)
(-0.291403 10.0906 0)
(-0.351036 10.1413 0)
(-0.411675 10.2097 0)
(-0.470528 10.2957 0)
(-0.523985 10.3998 0)
(-0.568142 10.5217 0)
(-0.599092 10.6596 0)
(-0.613224 10.8109 0)
(-0.605088 10.9734 0)
(-0.578008 11.139 0)
(-0.542128 11.3017 0)
(-0.499439 11.4606 0)
(-0.451802 11.6143 0)
(-0.400936 11.7601 0)
(-0.348302 11.8929 0)
(-0.29718 12.0234 0)
(-0.246534 12.1401 0)
(-0.194635 12.2108 0)
(-0.142638 12.2294 0)
(-0.0904926 12.1668 0)
(-0.0446458 11.8061 0)
(-0.00735644 10.3525 0)
(-0.000577212 10.0042 0)
(0.000859484 10.0027 0)
(0.00117715 10.0011 0)
(0.00051814 10.0002 1.87644e-19)
(-0.00348608 10.0055 0)
(-0.00818926 10.0063 0)
(-0.0151173 10.0066 0)
(-0.0248379 10.0063 0)
(-0.038044 10.0056 0)
(-0.0555373 10.0048 0)
(-0.0782037 10.0046 0)
(-0.10696 10.0059 0)
(-0.142666 10.0101 0)
(-0.185982 10.0193 0)
(-0.237169 10.0359 0)
(-0.295791 10.0633 0)
(-0.360351 10.1054 0)
(-0.427957 10.1662 0)
(-0.495081 10.2469 0)
(-0.558475 10.3468 0)
(-0.614094 10.466 0)
(-0.657755 10.6033 0)
(-0.685471 10.7564 0)
(-0.69375 10.9219 0)
(-0.677149 11.0973 0)
(-0.640196 11.2737 0)
(-0.59466 11.4451 0)
(-0.542949 11.6107 0)
(-0.487204 11.7696 0)
(-0.429255 11.9187 0)
(-0.373096 12.0725 0)
(-0.317995 12.2239 0)
(-0.261786 12.3413 0)
(-0.205241 12.4127 0)
(-0.149745 12.4309 0)
(-0.0949935 12.3614 0)
(-0.0469405 11.9727 0)
(-0.0087947 10.4609 0)
(-0.00353369 10.0052 0)
(-0.000639773 10.004 0)
(0.000760259 10.0025 8.38135e-19)
(0.00108366 10.001 -5.94577e-19)
(0.000470818 10.0002 -3.74242e-19)
(-0.00817738 10.0058 0)
(-0.0150239 10.0058 0)
(-0.0246252 10.005 0)
(-0.037669 10.0037 0)
(-0.0549626 10.0019 0)
(-0.0774133 10.0003 0)
(-0.105988 9.99964 0)
(-0.141647 10.0011 0)
(-0.185223 10.0063 0)
(-0.23727 10.0178 0)
(-0.297797 10.0385 0)
(-0.365955 10.0722 0)
(-0.439642 10.1231 0)
(-0.515152 10.1955 0)
(-0.588252 10.29 0)
(-0.655279 10.4051 0)
(-0.711821 10.5402 0)
(-0.75352 10.6935 0)
(-0.776434 10.8619 0)
(-0.777333 11.0414 0)
(-0.750887 11.229 0)
(-0.702985 11.4154 0)
(-0.647096 11.5942 0)
(-0.585966 11.7655 0)
(-0.521903 11.9277 0)
(-0.459961 12.0977 0)
(-0.399286 12.2719 0)
(-0.337522 12.4228 0)
(-0.275927 12.5389 0)
(-0.214973 12.6092 0)
(-0.156174 12.6253 0)
(-0.0990678 12.5478 0)
(-0.0489317 12.1321 0)
(-0.0100479 10.5673 0)
(-0.00817152 10.0054 0)
(-0.0035336 10.0048 -1.79113e-18)
(-0.000690394 10.0037 -8.84094e-19)
(0.000666798 10.0023 4.18149e-19)
(0.000994062 10.0009 -3.95192e-19)
(0.000425966 10.0001 0)
(-0.0149195 10.0051 0)
(-0.0243994 10.0039 0)
(-0.0372754 10.002 0)
(-0.0543508 9.9994 0)
(-0.0765435 9.99654 0)
(-0.104853 9.99407 0)
(-0.140307 9.99299 0)
(-0.183869 9.99481 0)
(-0.236313 10.0016 0)
(-0.298005 10.0162 0)
(-0.368627 10.0419 0)
(-0.446829 10.0831 0)
(-0.529775 10.1444 0)
(-0.612861 10.2298 0)
(-0.691148 10.3395 0)
(-0.760632 10.4709 0)
(-0.816629 10.6227 0)
(-0.854731 10.7924 0)
(-0.871191 10.976 0)
(-0.863179 11.1689 0)
(-0.825594 11.3679 0)
(-0.765812 11.563 0)
(-0.698997 11.7482 0)
(-0.628124 11.9233 0)
(-0.559482 12.1065 0)
(-0.492367 12.2968 0)
(-0.423806 12.4699 0)
(-0.355579 12.6183 0)
(-0.288807 12.7314 0)
(-0.22376 12.7991 0)
(-0.161898 12.8117 0)
(-0.10269 12.7256 0)
(-0.0506407 12.2841 0)
(-0.0111229 10.6707 0)
(-0.014835 10.0044 0)
(-0.0080688 10.0048 3.77739e-18)
(-0.00347384 10.0044 0)
(-0.000736776 10.0034 8.81825e-19)
(0.000579812 10.0021 1.37573e-22)
(0.000908278 10.0009 0)
(0.000383607 10.0001 0)
(-0.024167 10.003 0)
(-0.0368742 10.0005 0)
(-0.0537247 9.99715 0)
(-0.075635 9.99319 0)
(-0.103623 9.98914 0)
(-0.138763 9.98583 0)
(-0.18211 9.98457 0)
(-0.234605 9.98718 0)
(-0.29689 9.99614 0)
(-0.369077 10.0146 0)
(-0.45044 10.0467 0)
(-0.538998 10.0967 0)
(-0.63109 10.1697 0)
(-0.721144 10.2699 0)
(-0.803541 10.396 0)
(-0.874045 10.5448 0)
(-0.927823 10.7139 0)
(-0.96057 10.9 0)
(-0.968882 11.0983 0)
(-0.95047 11.304 0)
(-0.900563 11.5131 0)
(-0.828114 11.7157 0)
(-0.749904 11.9056 0)
(-0.673783 12.102 0)
(-0.599156 12.3056 0)
(-0.52267 12.4947 0)
(-0.446451 12.6647 0)
(-0.372022 12.8087 0)
(-0.300384 12.9177 0)
(-0.231582 12.9817 0)
(-0.166925 12.9896 0)
(-0.105863 12.8944 0)
(-0.0520925 12.4285 0)
(-0.0120333 10.7703 0)
(-0.0239742 10.0021 0)
(-0.0145825 10.0037 4.92614e-22)
(-0.00782797 10.0042 0)
(-0.00341368 10.0039 -9.29813e-19)
(-0.000773359 10.0031 8.50351e-23)
(0.000499174 10.002 0)
(0.000826434 10.0008 0)
(0.000343747 10.0001 0)
(-0.0364722 9.99918 0)
(-0.0530976 9.99516 0)
(-0.0747169 9.99023 0)
(-0.102351 9.98477 0)
(-0.137103 9.97949 0)
(-0.180094 9.97548 0)
(-0.232386 9.97433 0)
(-0.294831 9.97823 0)
(-0.36788 9.99011 0)
(-0.451322 10.0136 0)
(-0.543898 10.0531 0)
(-0.642903 10.1136 0)
(-0.743757 10.2 0)
(-0.83987 10.3162 0)
(-0.925005 10.4602 0)
(-0.994847 10.6271 0)
(-1.04457 10.8138 0)
(-1.07012 11.0161 0)
(-1.0686 11.2286 0)
(-1.03838 11.4458 0)
(-0.975103 11.6639 0)
(-0.889311 11.8723 0)
(-0.80508 12.0841 0)
(-0.722022 12.3014 0)
(-0.636264 12.5039 0)
(-0.550646 12.6895 0)
(-0.467079 12.8546 0)
(-0.386807 12.9932 0)
(-0.310665 13.097 0)
(-0.238461 13.1563 0)
(-0.171286 13.1588 0)
(-0.108605 13.0543 0)
(-0.0533128 12.5652 0)
(-0.012796 10.8657 0)
(-0.0361364 9.99802 0)
(-0.0235136 10.0011 -2.09873e-18)
(-0.0140727 10.0029 0)
(-0.00759444 10.0036 0)
(-0.00333884 10.0035 2.78109e-18)
(-0.000800325 10.0028 0)
(0.000424928 10.0018 0)
(0.000748639 10.0007 7.81488e-19)
(0.000306414 10.0001 0)
(-0.0524766 9.9934 0)
(-0.0738055 9.9876 0)
(-0.101074 9.98091 0)
(-0.135394 9.97387 0)
(-0.177933 9.96741 0)
(-0.229839 9.9629 0)
(-0.292124 9.96227 0)
(-0.365501 9.96814 0)
(-0.45017 9.98385 0)
(-0.545475 10.0135 0)
(-0.649535 10.062 0)
(-0.75882 10.1344 0)
(-0.867756 10.2357 0)
(-0.968705 10.3696 0)
(-1.05493 10.5325 0)
(-1.12222 10.7181 0)
(-1.16591 10.9225 0)
(-1.18241 11.1405 0)
(-1.16943 11.3662 0)
(-1.12612 11.5938 0)
(-1.04852 11.8191 0)
(-0.955744 12.0505 0)
(-0.863435 12.2838 0)
(-0.76717 12.5003 0)
(-0.670539 12.6994 0)
(-0.576147 12.8797 0)
(-0.485643 13.0387 0)
(-0.399955 13.1709 0)
(-0.319693 13.2686 0)
(-0.244446 13.3225 0)
(-0.175026 13.3191 0)
(-0.110947 13.2053 0)
(-0.054328 12.6941 0)
(-0.0134291 10.9564 0)
(-0.0519576 9.99185 0)
(-0.0353955 9.99673 0)
(-0.0226228 10 -2.18411e-18)
(-0.0135836 10.0021 -2.06679e-18)
(-0.00733949 10.003 -3.90904e-18)
(-0.00324925 10.0031 0)
(-0.000817678 10.0025 -1.74557e-18)
(0.000357224 10.0017 -1.6483e-18)
(0.00067491 10.0007 7.77776e-19)
(0.000271563 10.0001 0)
(-0.0729082 9.98528 0)
(-0.0998123 9.97749 0)
(-0.133685 9.9689 0)
(-0.175713 9.96026 0)
(-0.227108 9.95275 0)
(-0.289 9.94806 0)
(-0.362305 9.94851 0)
(-0.447545 9.95714 0)
(-0.544557 9.97779 0)
(-0.652154 10.015 0)
(-0.767731 10.0739 0)
(-0.886846 10.1599 0)
(-1.00286 10.2779 0)
(-1.10712 10.4307 0)
(-1.19252 10.6133 0)
(-1.25519 10.818 0)
(-1.29082 11.0398 0)
(-1.2964 11.2727 0)
(-1.27043 11.5106 0)
(-1.21285 11.7469 0)
(-1.12849 11.9963 0)
(-1.02617 12.2504 0)
(-0.918112 12.4835 0)
(-0.8089 12.6967 0)
(-0.701814 12.8905 0)
(-0.599127 13.0643 0)
(-0.50217 13.2162 0)
(-0.411525 13.3413 0)
(-0.327539 13.4323 0)
(-0.249597 13.4802 0)
(-0.178196 13.4706 0)
(-0.112925 13.3475 0)
(-0.0551638 12.8155 0)
(-0.0139499 11.0424 0)
(-0.07216 9.98322 0)
(-0.0508483 9.99015 -2.33369e-18)
(-0.0339816 9.9953 2.30057e-18)
(-0.0217748 9.99897 -1.1774e-21)
(-0.0130639 10.0013 2.05978e-18)
(-0.00706304 10.0025 1.94771e-18)
(-0.00314542 10.0027 3.68047e-18)
(-0.000825281 10.0023 2.6068e-18)
(0.000296023 10.0015 -8.20218e-19)
(0.000605289 10.0006 0)
(0.000239179 10.0001 0)
(-0.0985737 9.97445 0)
(-0.132 9.96448 0)
(-0.173494 9.95392 0)
(-0.2243 9.94374 0)
(-0.285637 9.93542 0)
(-0.358576 9.93101 0)
(-0.443892 9.93324 0)
(-0.541814 9.94564 0)
(-0.651733 9.97247 0)
(-0.771837 10.0187 0)
(-0.898697 10.0898 0)
(-1.02687 10.191 0)
(-1.14865 10.3271 0)
(-1.25439 10.5 0)
(-1.33686 10.703 0)
(-1.39272 10.9268 0)
(-1.41821 11.1654 0)
(-1.41108 11.4124 0)
(-1.37067 11.6607 0)
(-1.30767 11.9226 0)
(-1.21357 12.1962 0)
(-1.09236 12.451 0)
(-0.968745 12.6812 0)
(-0.847011 12.8891 0)
(-0.730031 13.0762 0)
(-0.619619 13.2425 0)
(-0.516734 13.3864 0)
(-0.421607 13.5038 0)
(-0.334292 13.5878 0)
(-0.253987 13.6293 0)
(-0.180853 13.6133 0)
(-0.114576 13.4811 0)
(-0.0558438 12.9295 0)
(-0.0143745 11.1235 0)
(-0.097545 9.97177 0)
(-0.070576 9.98102 -3.46771e-21)
(-0.0487349 9.98833 0)
(-0.0326452 9.99393 -1.8908e-21)
(-0.0208841 9.99795 0)
(-0.0125134 10.0005 -2.0524e-18)
(-0.00676591 10.0019 -3.87949e-18)
(-0.00302717 10.0023 8.95175e-23)
(-0.00082331 10.0021 1.72935e-18)
(0.000241078 10.0014 -8.15843e-19)
(0.000539761 10.0005 7.69348e-19)
(0.00020923 10.0001 0)
(-0.130348 9.96057 0)
(-0.171307 9.94829 0)
(-0.221492 9.93575 0)
(-0.282171 9.92419 0)
(-0.354535 9.91542 0)
(-0.439558 9.9119 0)
(-0.537781 9.91681 0)
(-0.649067 9.93413 0)
(-0.772268 9.96859 0)
(-0.904842 10.0255 0)
(-1.04244 10.1104 0)
(-1.17859 10.2285 0)
(-1.3045 10.3841 0)
(-1.40964 10.5781 0)
(-1.48687 10.8018 0)
(-1.53366 11.0444 0)
(-1.54697 11.2991 0)
(-1.52539 11.5585 0)
(-1.48072 11.834 0)
(-1.40897 12.1217 0)
(-1.29382 12.3977 0)
(-1.15385 12.6503 0)
(-1.01512 12.8753 0)
(-0.881447 13.0764 0)
(-0.755223 13.2556 0)
(-0.637713 13.4135 0)
(-0.52945 13.549 0)
(-0.430314 13.6583 0)
(-0.340049 13.7349 0)
(-0.257689 13.7699 0)
(-0.183056 13.7474 0)
(-0.115937 13.6064 0)
(-0.0563899 13.0363 0)
(-0.0147172 11.1998 0)
(-0.128983 9.9571 0)
(-0.095359 9.96894 2.58818e-18)
(-0.0675462 9.9787 -2.55758e-18)
(-0.0467496 9.98657 2.4174e-18)
(-0.0312505 9.99261 0)
(-0.0199497 9.99697 0)
(-0.0119337 9.99982 2.04399e-18)
(-0.00644863 10.0014 -1.93073e-18)
(-0.00289461 10.002 1.1957e-22)
(-0.000811395 10.0018 8.60161e-19)
(0.000192424 10.0013 -8.11256e-19)
(0.000478248 10.0005 -7.63945e-19)
(0.000181846 10.0001 0)
(-0.169163 9.9433 0)
(-0.218722 9.92865 0)
(-0.278698 9.91421 0)
(-0.35035 9.90156 0)
(-0.434814 9.89287 0)
(-0.532882 9.89102 0)
(-0.644793 9.89967 0)
(-0.769953 9.92327 0)
(-0.906579 9.96693 0)
(-1.0513 10.0362 0)
(-1.19879 10.1367 0)
(-1.34149 10.2733 0)
(-1.4696 10.4496 0)
(-1.57184 10.6653 0)
(-1.64139 10.9099 0)
(-1.67684 11.1706 0)
(-1.67596 11.44 0)
(-1.65153 11.7283 0)
(-1.59886 12.0317 0)
(-1.50494 12.3238 0)
(-1.36864 12.5988 0)
(-1.21034 12.8467 0)
(-1.05715 13.0647 0)
(-0.912266 13.2576 0)
(-0.777498 13.428 0)
(-0.653542 13.577 0)
(-0.540453 13.7037 0)
(-0.437764 13.8047 0)
(-0.344914 13.8738 0)
(-0.260781 13.9022 0)
(-0.18486 13.8731 0)
(-0.117047 13.7238 0)
(-0.0568228 13.1362 0)
(-0.0149912 11.2715 0)
(-0.167404 9.93887 0)
(-0.126046 9.9535 0)
(-0.091149 9.96601 2.6901e-18)
(-0.0647149 9.97648 -5.10202e-18)
(-0.0446856 9.9849 4.82554e-18)
(-0.0297957 9.99136 -4.56189e-18)
(-0.0189754 9.99603 0)
(-0.0113258 9.99914 2.03545e-18)
(-0.00611148 10.0009 -1.92109e-18)
(-0.00274909 10.0016 -1.81334e-18)
(-0.000788822 10.0016 0)
(0.000149817 10.0011 8.05534e-19)
(0.000420878 10.0004 0)
(0.000157529 10 0)
(-0.216005 9.92235 0)
(-0.275263 9.90535 0)
(-0.346143 9.88923 0)
(-0.42987 9.87592 0)
(-0.527445 9.86799 0)
(-0.639418 9.86879 0)
(-0.765647 9.88246 0)
(-0.904985 9.91384 0)
(-1.05491 9.96842 0)
(-1.21114 10.0519 0)
(-1.36733 10.1697 0)
(-1.51488 10.3263 0)
(-1.643 10.5242 0)
(-1.73985 10.7621 0)
(-1.79924 11.0272 0)
(-1.82105 11.305 0)
(-1.81907 11.605 0)
(-1.7877 11.9235 0)
(-1.71141 12.2337 0)
(-1.59485 12.5266 0)
(-1.43761 12.7978 0)
(-1.26169 13.0388 0)
(-1.09488 13.2484 0)
(-0.9396 13.4319 0)
(-0.797016 13.5929 0)
(-0.667266 13.7326 0)
(-0.549892 13.8503 0)
(-0.444083 13.9429 0)
(-0.348985 14.0046 0)
(-0.263336 14.0264 0)
(-0.186317 13.9909 0)
(-0.117936 13.8335 0)
(-0.0571601 13.2295 0)
(-0.0152063 11.3385 0)
(-0.213793 9.91676 0)
(-0.163544 9.93432 0)
(-0.120343 9.94983 0)
(-0.0872371 9.96321 5.36579e-18)
(-0.0617811 9.97436 -5.07789e-18)
(-0.0425419 9.98331 4.80189e-18)
(-0.0282877 9.99017 0)
(-0.0179626 9.99515 -2.1438e-18)
(-0.0106903 9.99849 0)
(-0.00575527 10.0005 1.91071e-18)
(-0.00258942 10.0013 0)
(-0.000757242 10.0014 0)
(0.000114444 10.001 0)
(0.000368924 10.0004 7.7875e-19)
(0.000136314 10 3.75106e-19)
(-0.271891 9.89747 0)
(-0.341968 9.87827 0)
(-0.424874 9.86082 0)
(-0.521727 9.84745 0)
(-0.63334 9.84117 0)
(-0.75995 9.8458 0)
(-0.90094 9.86592 0)
(-1.05451 9.90678 0)
(-1.21731 9.97408 0)
(-1.3841 10.0735 0)
(-1.5475 10.2103 0)
(-1.69787 10.3881 0)
(-1.82361 10.6085 0)
(-1.91248 10.8686 0)
(-1.95917 11.1533 0)
(-1.98203 11.4638 0)
(-1.97454 11.7966 0)
(-1.91824 12.1247 0)
(-1.81747 12.4377 0)
(-1.67819 12.7283 0)
(-1.50056 12.9933 0)
(-1.3079 13.2256 0)
(-1.12843 13.4255 0)
(-0.963636 13.599 0)
(-0.813983 13.75 0)
(-0.679065 13.8801 0)
(-0.55792 13.9889 0)
(-0.449394 14.0732 0)
(-0.35236 14.1275 0)
(-0.265422 14.1428 0)
(-0.187478 14.1011 0)
(-0.118638 13.9359 0)
(-0.0574173 13.3166 0)
(-0.0153708 11.4012 0)
(-0.269172 9.89048 0)
(-0.208818 9.91106 0)
(-0.155985 9.92976 5.98449e-18)
(-0.115073 9.94635 5.66647e-18)
(-0.0831917 9.96057 5.36028e-18)
(-0.058744 9.97237 -5.06746e-18)
(-0.040329 9.98181 0)
(-0.0267285 9.98905 0)
(-0.0169126 9.99433 0)
(-0.0100285 9.99789 4.02848e-18)
(-0.00538209 10 1.89992e-18)
(-0.00241603 10.001 1.78983e-18)
(-0.000716662 10.0012 0)
(8.55616e-05 10.0009 -8.2107e-19)
(0.000322221 10.0004 -3.96194e-19)
(0.000117721 10 0)
(-0.337862 9.86852 0)
(-0.419894 9.84738 0)
(-0.515912 9.82913 0)
(-0.626872 9.81649 0)
(-0.75334 9.81295 0)
(-0.895152 9.82278 0)
(-1.05112 9.85098 0)
(-1.2187 9.90312 0)
(-1.39364 9.98501 0)
(-1.56973 10.1022 0)
(-1.73852 10.2594 0)
(-1.88948 10.4594 0)
(-2.01032 10.7029 0)
(-2.0885 10.9847 0)
(-2.1389 11.3041 0)
(-2.1582 11.6502 0)
(-2.12472 11.9959 0)
(-2.04214 12.3295 0)
(-1.91643 12.6421 0)
(-1.75471 12.9276 0)
(-1.55748 13.1842 0)
(-1.34913 13.4062 0)
(-1.15801 13.5955 0)
(-0.9846 13.7584 0)
(-0.828622 13.8992 0)
(-0.689126 14.0197 0)
(-0.564691 14.1195 0)
(-0.453817 14.1957 0)
(-0.355126 14.2428 0)
(-0.267105 14.2517 0)
(-0.188385 14.204 0)
(-0.11918 14.0314 0)
(-0.0576055 13.3978 0)
(-0.0154962 11.4598 0)
(-0.334589 9.85986 0)
(-0.262861 9.8834 0)
(-0.19898 9.90542 -1.25901e-17)
(-0.149028 9.92544 1.78226e-20)
(-0.109628 9.94306 -1.12847e-17)