/*--------------------------------*- C++ -*----------------------------------*\
  =========                 |
  \\      /  F ield         | OpenFOAM: The Open Source CFD Toolbox
   \\    /   O peration     | Website:  https://openfoam.org
    \\  /    A nd           | Version:  8
     \\/     M anipulation  |
\*---------------------------------------------------------------------------*/
FoamFile
{
    version     2.0;
    format      ascii;
    class       volScalarField;
    location    "0.23";
    object      k;
}
// * * * * * * * * * * * * * * * * * * * * * * * * * * * * * * * * * * * * * //

dimensions      [0 2 -2 0 0 0 0];

internalField   nonuniform List<scalar> 
15677
(
0.334169
0.365047
0.294765
0.36874
0.357703
0.281036
0.370698
0.360085
0.366136
0.282755
0.371888
0.361637
0.361479
0.383325
0.288864
0.372613
0.363746
0.357745
0.368341
0.401673
0.300284
0.37304
0.365664
0.357855
0.358166
0.380117
0.419365
0.311794
0.373264
0.367181
0.359468
0.354602
0.361051
0.393299
0.434768
0.322621
0.373349
0.368306
0.361363
0.354787
0.353076
0.366909
0.406169
0.447908
0.332133
0.373349
0.369082
0.36307
0.356352
0.351139
0.353515
0.373564
0.418289
0.458785
0.340549
0.373314
0.369567
0.364446
0.358229
0.351946
0.348808
0.354797
0.380706
0.429125
0.467972
0.347658
0.373275
0.369823
0.365465
0.359967
0.353731
0.348403
0.347167
0.357131
0.387671
0.438875
0.47552
0.353913
0.373249
0.369925
0.366151
0.3614
0.355676
0.349783
0.345377
0.346344
0.359722
0.394469
0.447317
0.481985
0.359129
0.37324
0.369939
0.36655
0.36248
0.357435
0.351737
0.346229
0.34295
0.345909
0.362627
0.400725
0.454819
0.487325
0.363817
0.373239
0.369922
0.366738
0.363211
0.358867
0.353695
0.348093
0.343116
0.340887
0.345923
0.365495
0.406608
0.461195
0.491934
0.367901
0.37324
0.369907
0.366796
0.363636
0.359923
0.355401
0.350176
0.344774
0.340319
0.339216
0.346059
0.368408
0.411811
0.466843
0.495762
0.371522
0.373239
0.3699
0.366796
0.363834
0.360614
0.356747
0.352106
0.346903
0.341727
0.337844
0.33777
0.346392
0.371101
0.416619
0.471542
0.499151
0.374831
0.373238
0.369897
0.366786
0.363892
0.360996
0.3577
0.353706
0.348999
0.343861
0.33895
0.335613
0.336549
0.346796
0.37374
0.420705
0.475685
0.502077
0.377659
0.373237
0.369896
0.366776
0.3639
0.361144
0.358286
0.354905
0.350817
0.34609
0.341045
0.336411
0.333612
0.335485
0.347314
0.376032
0.424401
0.479103
0.504664
0.380508
0.373237
0.369896
0.366769
0.363896
0.361187
0.358555
0.355696
0.352242
0.348099
0.343373
0.338454
0.334091
0.33181
0.334603
0.347764
0.378191
0.427422
0.482103
0.50706
0.382746
0.373236
0.369896
0.366764
0.36389
0.36119
0.358659
0.356095
0.353238
0.349729
0.345547
0.340864
0.336068
0.331987
0.33021
0.333817
0.348253
0.379953
0.43012
0.484577
0.509123
0.385389
0.373235
0.369896
0.36676
0.363886
0.361182
0.358692
0.356267
0.353782
0.350917
0.347367
0.343188
0.338548
0.333907
0.330089
0.328791
0.333162
0.348632
0.38157
0.432214
0.48674
0.511274
0.38717
0.373235
0.369896
0.366757
0.363882
0.361172
0.358696
0.356329
0.354044
0.351597
0.348743
0.345186
0.34101
0.336459
0.331958
0.328418
0.327557
0.33259
0.349004
0.382785
0.434098
0.488538
0.513003
0.389789
0.373235
0.369896
0.366755
0.36388
0.361163
0.358691
0.356341
0.354159
0.351941
0.349573
0.346735
0.343175
0.339062
0.334589
0.330258
0.326967
0.326512
0.332119
0.349278
0.38391
0.43544
0.490154
0.515168
0.391239
0.373235
0.369896
0.366754
0.363877
0.361156
0.358684
0.356335
0.354199
0.352098
0.350021
0.347696
0.344899
0.3414
0.337331
0.33298
0.328806
0.325774
0.325674
0.331778
0.349536
0.384651
0.436733
0.491461
0.516631
0.393859
0.373236
0.369895
0.366753
0.363875
0.36115
0.358677
0.356322
0.354206
0.352156
0.350248
0.348225
0.346013
0.343296
0.339829
0.335882
0.33166
0.327674
0.324854
0.325053
0.331491
0.349732
0.385394
0.437512
0.492874
0.519206
0.395244
0.373236
0.369895
0.366752
0.363874
0.361146
0.35867
0.35631
0.354198
0.352166
0.350348
0.348497
0.346662
0.344531
0.341893
0.338591
0.334758
0.330674
0.326817
0.324202
0.324681
0.331489
0.350002
0.38584
0.438466
0.49377
0.520866
0.505093
0.373236
0.369894
0.366752
0.363872
0.361143
0.358664
0.356299
0.354186
0.352157
0.350379
0.348619
0.347021
0.34525
0.343303
0.340871
0.33763
0.333934
0.330029
0.32643
0.32404
0.324719
0.331587
0.350243
0.386327
0.438916
0.495739
0.529608
0.711431
0.373237
0.369894
0.366752
0.36387
0.361141
0.35866
0.356291
0.354173
0.352141
0.350378
0.348659
0.347197
0.345648
0.344175
0.342396
0.34005
0.337122
0.33373
0.330053
0.326532
0.324199
0.324943
0.331843
0.350569
0.386708
0.43982
0.496385
0.546453
0.886976
0.373237
0.369893
0.366752
0.363869
0.36114
0.358656
0.356285
0.354162
0.352124
0.350361
0.348659
0.347264
0.345845
0.34469
0.343313
0.341815
0.339952
0.337229
0.333957
0.330376
0.32695
0.324669
0.325455
0.332362
0.351032
0.387122
0.440534
0.49612
0.559285
1.02884
0.373237
0.369892
0.366752
0.363868
0.361139
0.358652
0.356279
0.354152
0.35211
0.35034
0.348642
0.347273
0.345927
0.344962
0.343847
0.342971
0.341907
0.340226
0.337709
0.334625
0.331181
0.327865
0.32562
0.326425
0.333201
0.351635
0.38776
0.440294
0.494653
0.56884
1.1515
0.373237
0.369892
0.366752
0.363867
0.361138
0.358649
0.356275
0.354143
0.352097
0.35032
0.348619
0.347254
0.345946
0.345075
0.344134
0.343691
0.343152
0.342364
0.340992
0.338772
0.335976
0.332729
0.32946
0.327158
0.327797
0.334364
0.352498
0.388249
0.439403
0.491563
0.575359
1.25068
0.373238
0.369892
0.366753
0.363866
0.361138
0.358646
0.356272
0.354136
0.352087
0.350303
0.348596
0.347224
0.345932
0.3451
0.344279
0.344102
0.343935
0.343758
0.343392
0.342525
0.340716
0.338165
0.335015
0.331716
0.329239
0.329629
0.33588
0.353557
0.388635
0.437552
0.486157
0.579636
1.32353
0.373238
0.369891
0.366753
0.363865
0.361137
0.358643
0.35627
0.35413
0.352079
0.350288
0.348575
0.347193
0.345902
0.345081
0.344334
0.344298
0.344393
0.344653
0.345026
0.345341
0.344991
0.343541
0.341197
0.338097
0.33466
0.331932
0.331923
0.337777
0.354805
0.388597
0.434305
0.479463
0.582344
1.3787
0.373238
0.369891
0.366753
0.363864
0.361137
0.358641
0.356268
0.354124
0.352071
0.350275
0.348557
0.347166
0.34587
0.345044
0.344334
0.34437
0.344631
0.345196
0.346113
0.347262
0.34824
0.348448
0.347344
0.34517
0.342019
0.338368
0.335237
0.334722
0.340027
0.356175
0.388329
0.430079
0.472685
0.58463
1.42224
0.369891
0.373242
0.366754
0.363863
0.361137
0.358639
0.356266
0.354119
0.352066
0.350264
0.348542
0.347142
0.345839
0.345004
0.344304
0.344379
0.344736
0.345503
0.346804
0.348574
0.350515
0.352238
0.353019
0.35224
0.350146
0.346865
0.342846
0.339207
0.33799
0.342629
0.357799
0.387712
0.425615
0.466367
0.58697
1.45804
0.366754
0.3699
0.37325
0.363862
0.361137
0.358637
0.356265
0.354115
0.352061
0.350254
0.348528
0.347122
0.345811
0.344966
0.344264
0.344355
0.344767
0.345661
0.347228
0.349448
0.35212
0.354958
0.357479
0.358842
0.358312
0.35622
0.352652
0.348154
0.343799
0.341737
0.345881
0.359832
0.386828
0.42127
0.460652
0.58969
1.48868
0.363862
0.366771
0.369921
0.373257
0.361137
0.358636
0.356264
0.354111
0.352057
0.350246
0.348517
0.347104
0.345786
0.344932
0.344225
0.344319
0.344758
0.345732
0.347479
0.350024
0.353242
0.356943
0.36076
0.364123
0.366022
0.36567
0.363419
0.359446
0.354246
0.349031
0.346394
0.34984
0.361997
0.386004
0.417234
0.455658
0.592742
1.5157
0.361137
0.363883
0.366805
0.369942
0.373265
0.358634
0.356263
0.354107
0.352053
0.350238
0.348507
0.347088
0.345765
0.344903
0.344189
0.344282
0.344734
0.345755
0.347624
0.350405
0.354032
0.358397
0.363236
0.368105
0.372303
0.374692
0.374355
0.371822
0.367203
0.361147
0.355502
0.352215
0.354112
0.364351
0.385247
0.413526
0.451366
0.596297
1.54016
0.358633
0.361165
0.363927
0.366839
0.369964
0.373274
0.356262
0.354104
0.35205
0.350231
0.348499
0.347074
0.345746
0.344877
0.344156
0.344247
0.344706
0.345756
0.347708
0.350667
0.354607
0.359488
0.365135
0.371213
0.377156
0.382176
0.384911
0.384466
0.381388
0.375957
0.369651
0.363514
0.358603
0.358672
0.366839
0.384707
0.410206
0.447727
0.600024
1.56262
0.356262
0.358663
0.36122
0.363973
0.366875
0.369986
0.373282
0.354101
0.352048
0.350225
0.348493
0.347062
0.34573
0.344855
0.344128
0.344217
0.344679
0.34575
0.34776
0.350855
0.355051
0.360345
0.366643
0.3737
0.381066
0.388098
0.393825
0.396798
0.395958
0.392163
0.38672
0.380139
0.372264
0.365469
0.36347
0.369515
0.384414
0.407262
0.44466
0.60418
1.58353
0.354099
0.356297
0.358727
0.361278
0.364019
0.366912
0.370009
0.373291
0.352046
0.350219
0.348487
0.347051
0.345716
0.344835
0.344103
0.344189
0.344655
0.345742
0.347798
0.350999
0.355409
0.361066
0.367907
0.37578
0.384328
0.393024
0.401046
0.407399
0.410315
0.4089
0.405401
0.399971
0.391558
0.381642
0.372719
0.368455
0.372293
0.384469
0.404767
0.442044
0.608301
1.60305
0.352045
0.354136
0.356371
0.358792
0.361337
0.364067
0.36695
0.370033
0.3733
0.350214
0.348482
0.347041
0.345704
0.344818
0.344082
0.344166
0.344633
0.345735
0.347828
0.351118
0.355707
0.361687
0.369034
0.377617
0.38718
0.397294
0.407249
0.416201
0.422882
0.425568
0.4248
0.421688
0.41438
0.40377
0.391526
0.380265
0.373602
0.375099
0.384672
0.402635
0.439875
0.612722
1.62145
0.35021
0.352086
0.354214
0.356446
0.358859
0.361397
0.364117
0.366989
0.370057
0.373309
0.348478
0.347033
0.345694
0.344803
0.344063
0.344145
0.344615
0.345729
0.347856
0.351223
0.355966
0.362227
0.370053
0.379333
0.389811
0.401179
0.412812
0.423993
0.433581
0.440435
0.44434
0.444385
0.439392
0.429768
0.416613
0.401793
0.388023
0.378885
0.377937
0.385094
0.400873
0.438059
0.616982
1.63869
0.348475
0.35025
0.352172
0.354295
0.356524
0.358928
0.361459
0.364167
0.367029
0.370082
0.373318
0.347025
0.345686
0.34479
0.344046
0.344127
0.344599
0.345725
0.347881
0.351319
0.3562
0.362711
0.370969
0.38094
0.392357
0.404895
0.418053
0.431208
0.443314
0.45341
0.462166
0.467583
0.46572
0.458297
0.445924
0.429925
0.412326
0.395914
0.384244
0.380793
0.38569
0.39939
0.436566
0.62141
1.65502
0.347017
0.348518
0.350337
0.352261
0.354377
0.356604
0.358999
0.361523
0.364219
0.36707
0.370107
0.373328
0.345678
0.344778
0.344032
0.344112
0.344586
0.345721
0.347904
0.351406
0.356412
0.363152
0.371805
0.382418
0.394812
0.408607
0.423228
0.438225
0.452597
0.465531
0.478106
0.489276
0.493063
0.488568
0.478157
0.462653
0.443553
0.42301
0.403862
0.389621
0.383674
0.386479
0.39821
0.435347
0.625627
1.67028
0.345673
0.347055
0.348609
0.350427
0.352352
0.354463
0.356686
0.359072
0.361589
0.364273
0.367112
0.370134
0.373337
0.344767
0.344019
0.344099
0.344575
0.345719
0.347927
0.351485
0.356606
0.363556
0.372575
0.383785
0.397112
0.412274
0.428533
0.445354
0.461891
0.477429
0.493416
0.509193
0.51923
0.520544
0.512681
0.498749
0.479762
0.457347
0.433738
0.411795
0.394974
0.386541
0.387301
0.397292
0.434369
0.629896
1.68477
0.344758
0.345709
0.34714
0.348703
0.35052
0.352447
0.354551
0.35677
0.359147
0.361656
0.364328
0.367155
0.370161
0.373347
0.344007
0.344087
0.344565
0.345718
0.347947
0.351558
0.356783
0.363927
0.373284
0.385055
0.39927
0.415769
0.433879
0.452843
0.471584
0.489675
0.508888
0.528921
0.543896
0.551812
0.549735
0.537801
0.519845
0.497069
0.471166
0.444413
0.419651
0.400261
0.389418
0.388163
0.396576
0.433588
0.633943
1.69825
0.343997
0.344782
0.345789
0.347227
0.348801
0.350615
0.352544
0.354641
0.356857
0.359225
0.361725
0.364385
0.367198
0.370187
0.373356
0.344077
0.344556
0.345717
0.347966
0.351625
0.356945
0.364266
0.373938
0.386235
0.401297
0.419086
0.439053
0.460558
0.481994
0.502766
0.52526
0.549504
0.569073
0.582082
0.586765
0.580355
0.563673
0.541244
0.514408
0.48489
0.454949
0.427373
0.405451
0.392277
0.389054
0.396037
0.432985
0.637959
1.71108
0.34407
0.344005
0.344842
0.345871
0.347318
0.348902
0.350714
0.352644
0.354735
0.356946
0.359304
0.361796
0.364443
0.367242
0.370213
0.373365
0.344547
0.345716
0.347983
0.351686
0.357092
0.364577
0.374539
0.387328
0.403193
0.422225
0.444028
0.468162
0.492907
0.517137
0.543229
0.571987
0.596182
0.61392
0.623594
0.623846
0.612129
0.59004
0.562751
0.531635
0.498415
0.465277
0.434917
0.410518
0.395096
0.389972
0.395636
0.432516
0.641758
1.72293
0.344542
0.344055
0.344029
0.344902
0.345959
0.347412
0.349007
0.350816
0.352747
0.354831
0.357037
0.359386
0.361868
0.3645
0.367284
0.370239
0.373374
0.345713
0.347997
0.351741
0.357227
0.364862
0.375091
0.388338
0.404961
0.425184
0.448795
0.475568
0.503795
0.532538
0.563479
0.597434
0.626765
0.649369
0.663605
0.668366
0.662853
0.644808
0.616674
0.584188
0.548624
0.511652
0.475335
0.442244
0.415438
0.397856
0.390903
0.395354
0.432177
0.645475
1.73423
0.345715
0.344497
0.344028
0.344063
0.344964
0.346053
0.34751
0.349116
0.350922
0.352853
0.35493
0.357131
0.35947
0.36194
0.364556
0.367325
0.370263
0.373382
0.348009
0.35179
0.35735
0.365121
0.375596
0.389268
0.406603
0.427962
0.453337
0.482728
0.514524
0.548286
0.585741
0.62696
0.662588
0.69095
0.709973
0.718575
0.716473
0.703649
0.678182
0.643379
0.605407
0.565274
0.524532
0.485078
0.449326
0.420195
0.400545
0.391843
0.395167
0.431926
0.64898
1.74461
0.348026
0.34563
0.344404
0.343983
0.344111
0.34503
0.346153
0.347611
0.349229
0.351031
0.352962
0.355033
0.357227
0.359553
0.36201
0.364611
0.367365
0.370287
0.373391
0.351834
0.35746
0.365357
0.376058
0.390124
0.408123
0.430558
0.457638
0.489598
0.525046
0.564197
0.608912
0.660355
0.705945
0.742171
0.767246
0.779664
0.779601
0.768108
0.746151
0.712079
0.669995
0.626281
0.581504
0.537001
0.494472
0.456141
0.424775
0.40315
0.39278
0.395055
0.431771
0.652383
1.75455
0.351884
0.347872
0.345435
0.344306
0.343941
0.344171
0.3451
0.346257
0.347717
0.349345
0.351143
0.353074
0.355137
0.357322
0.359634
0.362077
0.364664
0.367403
0.370311
0.373399
0.357559
0.36557
0.376479
0.390908
0.409526
0.432975
0.461689
0.496152
0.535317
0.580115
0.632524
0.696369
0.758059
0.808434
0.842383
0.859555
0.860454
0.847498
0.823463
0.790286
0.746354
0.696388
0.646709
0.597248
0.549021
0.503491
0.462673
0.429168
0.405663
0.393711
0.395011
0.431667
0.655583
1.76249
0.357661
0.351645
0.347503
0.345232
0.344216
0.343905
0.34424
0.345174
0.346367
0.347827
0.349465
0.35126
0.353189
0.355241
0.357415
0.359713
0.362143
0.364715
0.367441
0.370333
0.373406
0.365763
0.37686
0.391626
0.410818
0.435219
0.465488
0.502375
0.54528
0.595839
0.656369
0.735192
0.818757
0.893942
0.945349
0.969655
0.971105
0.953704
0.922685
0.882552
0.835932
0.780867
0.722445
0.666613
0.612459
0.560562
0.51212
0.468914
0.433369
0.40808
0.394626
0.39502
0.431647
0.658255
1.76918
0.365954
0.357312
0.35104
0.34712
0.345046
0.344136
0.343879
0.344316
0.345253
0.346481
0.347943
0.349588
0.35138
0.353303
0.355343
0.357505
0.35979
0.362207
0.364766
0.367477
0.370355
0.373414
0.377209
0.39228
0.412004
0.437296
0.469039
0.50826
0.554877
0.611207
0.68047
0.77741
0.888662
0.997513
1.0813
1.12314
1.12643
1.10245
1.05927
1.00485
0.945084
0.882867
0.815466
0.748071
0.685932
0.627099
0.571607
0.52035
0.474859
0.437373
0.410394
0.395523
0.395047
0.431658
0.660534
1.77638
0.377543
0.365463
0.356372
0.350412
0.346762
0.344876
0.344066
0.343862
0.344398
0.34534
0.346598
0.348063
0.349715
0.351499
0.353413
0.355442
0.357592
0.359864
0.362269
0.364814
0.367512
0.370377
0.373421
0.392881
0.413091
0.439215
0.472348
0.513802
0.56406
0.626133
0.704976
0.82318
0.966955
1.11598
1.24243
1.32142
1.33962
1.30979
1.2511
1.17538
1.0929
1.01045
0.93076
0.849983
0.773176
0.70462
0.641146
0.582148
0.528179
0.480506
0.441181
0.412606
0.396401
0.395091
0.431685
0.662965
1.78424
0.393441
0.376876
0.364056
0.355401
0.349818
0.346428
0.344718
0.344005
0.343856
0.344483
0.345434
0.34672
0.348188
0.34984
0.351616
0.353521
0.355539
0.357677
0.359937
0.362329
0.364862
0.367547
0.370397
0.373425
0.414097
0.440985
0.475424
0.519002
0.572802
0.640596
0.729985
0.871959
1.05119
1.24404
1.41919
1.54718
1.60564
1.58678
1.51344
1.41259
1.29922
1.18522
1.07778
0.979195
0.88423
0.797679
0.722642
0.654588
0.592181
0.535607
0.485859
0.444793
0.414712
0.39714
0.395147
0.431734
0.665692
1.79274
0.415013
0.392562
0.374818
0.36261
0.354478
0.349256
0.346116
0.344572
0.343956
0.343862
0.344571
0.345538
0.346844
0.348315
0.349962
0.351731
0.353626
0.355633
0.357759
0.360008
0.362388
0.364908
0.36758
0.370408
0.373425
0.442631
0.478281
0.523868
0.581091
0.6546
0.755443
0.922704
1.13837
1.37606
1.60262
1.78606
1.89894
1.92254
1.85527
1.73031
1.58197
1.42761
1.27994
1.14611
1.0277
0.918013
0.821504
0.739973
0.667417
0.601709
0.542641
0.490923
0.448213
0.41645
0.39778
0.395215
0.431846
0.668621
1.80205
0.444105
0.413879
0.389607
0.372719
0.361232
0.353598
0.348718
0.345823
0.344438
0.343917
0.343885
0.34466
0.34565
0.346967
0.34844
0.350081
0.351843
0.353727
0.355724
0.35784
0.360077
0.362445
0.364952
0.367597
0.370408
0.373425
0.480949
0.52842
0.588938
0.668156
0.781165
0.974226
1.22582
1.50749
1.78562
2.02743
2.20246
2.28543
2.26172
2.13667
1.95402
1.75474
1.55756
1.37527
1.21445
1.07582
0.951141
0.844586
0.756595
0.679633
0.610742
0.54929
0.495705
0.45102
0.41793
0.398492
0.395318
0.43196
0.671908
1.81214
0.483299
0.442657
0.409686
0.386617
0.370717
0.359912
0.352752
0.348201
0.345552
0.344315
0.343885
0.343935
0.344748
0.345767
0.347088
0.348562
0.350197
0.351952
0.353827
0.355813
0.357918
0.360143
0.3625
0.364975
0.367597
0.370408
0.373425
0.532692
0.59637
0.681283
0.806896
1.02545
1.3115
1.63521
1.96336
2.26366
2.50461
2.65659
2.6965
2.6146
2.4241
2.17938
1.92718
1.68659
1.46966
1.28193
1.12309
0.983436
0.866864
0.772494
0.691242
0.619289
0.555565
0.499618
0.453399
0.419555
0.399289
0.395438
0.432185
0.675449
1.8232
0.536416
0.481483
0.436758
0.405483
0.383763
0.368793
0.358637
0.351935
0.347704
0.345299
0.344201
0.343842
0.344005
0.344837
0.345885
0.347206
0.348683
0.350311
0.352058
0.353923
0.3559
0.357994
0.360209
0.362527
0.364975
0.367597
0.370408
0.373425
0.603429
0.694004
0.832394
1.0755
1.39405
1.75728
2.13286
2.48978
2.79702
3.02307
3.13872
3.12362
2.9741
2.71206
2.40235
2.09646
1.81276
1.56184
1.34782
1.16917
1.01474
0.888289
0.787667
0.702255
0.627365
0.560699
0.502931
0.456003
0.421343
0.400179
0.395613
0.432408
0.679418
1.83515
0.609581
0.534131
0.473201
0.430901
0.401469
0.381013
0.366929
0.357403
0.351148
0.347231
0.345063
0.344101
0.343805
0.344086
0.344925
0.346003
0.347322
0.3488
0.350421
0.352161
0.354017
0.355984
0.358068
0.360241
0.362527
0.364975
0.367597
0.370408
0.373425
0.706319
0.857444
1.12379
1.47262
1.8726
2.29248
2.7028
3.07409
3.3751
3.57343
3.64037
3.55941
3.33427
2.99616
2.61991
2.26049
1.93465
1.6509
1.41154
1.21372
1.04493
0.908825
0.802115
0.712683
0.633979
0.565043
0.50655
0.458853
0.42331
0.401179
0.395813
0.432782
0.683743
1.84825
0.71715
0.606738
0.522408
0.465074
0.425306
0.397593
0.378343
0.365119
0.356211
0.350393
0.346785
0.344848
0.344012
0.34378
0.344172
0.345015
0.346119
0.347437
0.348915
0.350529
0.352262
0.354109
0.356066
0.358104
0.360241
0.362527
0.364975
0.367597
0.370408
0.373421
0.881811
1.16991
1.54674
1.98063
2.44142
2.90119
3.33247
3.70584
3.98864
4.14714
4.15375
3.99728
3.69008
3.27296
2.82981
2.41783
2.05131
1.73619
1.47268
1.25652
1.07389
0.928445
0.815841
0.72124
0.639581
0.569788
0.510504
0.461975
0.425479
0.402299
0.396093
0.433166
0.688565
1.86237
0.713712
0.903229
0.589496
0.511128
0.457304
0.419894
0.393823
0.375746
0.363367
0.355062
0.349674
0.34637
0.344654
0.343938
0.343769
0.344259
0.345107
0.346233
0.347549
0.349027
0.350635
0.35236
0.354198
0.356107
0.358104
0.360241
0.362527
0.364975
0.367597
0.370397
0.373414
1.21351
1.61622
2.08122
2.57944
3.08433
3.57044
4.01103
4.37551
4.62887
4.73599
4.67151
4.43125
4.03732
3.53983
3.03049
2.56754
2.16214
1.81728
1.53094
1.29741
1.10157
0.947133
0.827137
0.728498
0.645704
0.574973
0.514829
0.465399
0.427872
0.403563
0.396412
0.433748
0.693913
1.87786
0.686684
0.900263
1.25102
0.573421
0.500366
0.449777
0.414624
0.390151
0.373227
0.361674
0.35396
0.348991
0.345987
0.344482
0.343881
0.343772
0.344345
0.345202
0.346344
0.347661
0.349136
0.350738
0.352456
0.354242
0.356106
0.358104
0.36024
0.362527
0.364975
0.36758
0.370376
0.373406
1.68087
2.17445
2.70671
3.25226
3.78752
4.28862
4.72842
5.07403
5.28731
5.33202
5.1867
4.85604
4.37251
3.79477
3.22091
2.70908
2.26681
1.89395
1.58619
1.33628
1.12791
0.962541
0.836736
0.736444
0.652402
0.580642
0.519561
0.469156
0.430516
0.404981
0.396841
0.434372
0.699806
1.89445
0.661944
0.856753
1.24887
1.73589
0.558309
0.489923
0.442441
0.409487
0.386584
0.370788
0.360045
0.352908
0.348351
0.345643
0.344336
0.34384
0.34379
0.344429
0.345299
0.346453
0.34777
0.349243
0.350839
0.352503
0.354241
0.356106
0.358104
0.36024
0.362527
0.364952
0.367546
0.370355
0.373398
2.26037
2.82364
3.40555
3.98413
4.53823
5.04472
5.47507
5.7927
5.95561
5.92742
5.69281
5.26704
4.69292
4.03642
3.40048
2.8422
2.3652
1.96612
1.63833
1.37307
1.14959
0.975647
0.847264
0.74515
0.659734
0.586846
0.524742
0.473281
0.433439
0.406587
0.397336
0.435238
0.706511
1.91263
0.639124
0.81589
1.18444
1.73553
2.33308
0.543761
0.479731
0.435292
0.404492
0.383129
0.368437
0.358482
0.351914
0.347769
0.345344
0.344212
0.343809
0.343826
0.34451
0.345398
0.346559
0.347878
0.349348
0.350889
0.352502
0.354241
0.356106
0.358104
0.36024
0.362499
0.364907
0.367512
0.370332
0.37339
2.93052
3.54503
4.16135
4.76079
5.32417
5.8284
6.24202
6.52311
6.62552
6.51466
6.18393
5.66038
4.9965
4.26394
3.56894
2.96687
2.45734
2.03382
1.68737
1.40321
1.16801
0.990034
0.858821
0.754696
0.667767
0.593639
0.53042
0.477814
0.436676
0.408394
0.397979
0.436214
0.713765
1.93196
0.61762
0.77766
1.12122
1.65231
2.33563
3.02028
0.529619
0.46979
0.428341
0.399651
0.379793
0.366178
0.357002
0.351003
0.347248
0.345089
0.344106
0.343779
0.34388
0.344588
0.345498
0.346663
0.347986
0.349398
0.350887
0.352502
0.354241
0.356106
0.358103
0.360208
0.362443
0.36486
0.367476
0.37031
0.373382
3.67135
4.32067
4.95819
5.56837
6.13386
6.6303
7.02102
7.25705
7.28888
7.08654
6.65483
6.03303
5.28191
4.47691
3.72628
3.08324
2.54338
2.09713
1.7273
1.42872
1.1882
1.00583
0.871517
0.765173
0.676574
0.601082
0.536644
0.4828
0.440263
0.410448
0.398731
0.437466
0.722289
1.95311
0.597135
0.74165
1.05947
1.56878
2.23564
3.02619
3.77607
0.515853
0.460125
0.421606
0.394974
0.376586
0.364033
0.35564
0.350185
0.346781
0.344867
0.344018
0.34375
0.343943
0.344665
0.3456
0.346768
0.348038
0.349396
0.350887
0.352501
0.354241
0.356106
0.358066
0.360142
0.362386
0.364812
0.367439
0.370286
0.373374
4.46322
5.13283
5.78033
6.39392
6.95725
7.44235
7.80442
7.98642
7.93761
7.63641
7.10116
6.38282
5.54837
4.67527
3.87274
3.19157
2.62354
2.14842
1.76096
1.45656
1.21032
1.02319
0.885474
0.776681
0.686237
0.609245
0.543474
0.488287
0.444244
0.412764
0.399673
0.438957
0.731315
1.97529
0.577543
0.707726
0.999021
1.48509
2.13434
2.9109
3.78445
4.579
0.502479
0.450764
0.415104
0.390477
0.373538
0.362056
0.354414
0.34945
0.346366
0.344677
0.343943
0.343729
0.344012
0.344743
0.345705
0.346817
0.348036
0.349395
0.350886
0.352501
0.354241
0.356064
0.357991
0.360074
0.362327
0.364763
0.367402
0.370262
0.373365
5.28654
5.96371
6.61305
7.2263
7.78625
8.25773
8.58486
8.70298
8.56387
8.15838
7.51958
6.70838
5.79563
4.85929
4.00868
3.29219
2.68826
2.19153
1.79753
1.48693
1.23455
1.04227
0.900826
0.789331
0.69685
0.618204
0.550973
0.49433
0.448662
0.415402
0.400804
0.440558
0.742267
2.00375
0.558788
0.675904
0.940041
1.40094
2.03177
2.79386
3.65433
4.58726
5.4075
0.48953
0.441736
0.408854
0.386202
0.370727
0.360273
0.35331
0.348793
0.346002
0.344514
0.343882
0.343717
0.344087
0.344829
0.345757
0.346809
0.348035
0.349394
0.350886
0.352501
0.354196
0.355981
0.357914
0.360004
0.362266
0.364713
0.367363
0.370238
0.373356
6.12139
6.79662
7.44374
8.05701
8.61487
9.0704
9.35487
9.39829
9.16021
8.64757
7.90777
7.00907
6.02392
5.02941
4.13456
3.37319
2.74251
2.23819
1.83723
1.52002
1.2611
1.06324
0.91772
0.803245
0.708514
0.628043
0.559212
0.500988
0.453576
0.41839
0.402162
0.442596
0.755716
2.03738
0.540829
0.646218
0.882972
1.31629
1.92747
2.67486
3.52277
4.44151
5.41121
6.24044
0.477042
0.433073
0.402917
0.382261
0.368189
0.358665
0.352317
0.348205
0.345682
0.344373
0.343832
0.34372
0.344175
0.344863
0.345751
0.346807
0.348035
0.349394
0.350886
0.352453
0.354105
0.355896
0.357836
0.359933
0.362204
0.364662
0.367324
0.370213
0.373347
6.94889
7.61717
8.26301
8.88066
9.43853
9.87451
10.1065
10.0638
9.72001
9.10027
8.26444
7.28501
6.2338
5.18626
4.23557
3.44097
2.8011
2.28867
1.8803
1.55607
1.29015
1.08628
0.936317
0.81856
0.721341
0.638857
0.56827
0.508334
0.45904
0.421792
0.403825
0.445101
0.774308
2.07035
0.523644
0.618646
0.828408
1.23143
1.82113
2.55339
3.38924
4.2956
5.24734
6.23379
7.05772
0.465057
0.42486
0.397448
0.378704
0.3659
0.357216
0.351425
0.347682
0.3454
0.34425
0.3438
0.34375
0.344216
0.344845
0.345752
0.346807
0.348034
0.349396
0.350835
0.352356
0.354012
0.355808
0.357755
0.35986
0.36214
0.364609
0.367283
0.370187
0.373337
7.75269
8.4146
9.06573
9.69375
10.2535
10.6639
10.831
10.6913
10.2376
9.51408
8.58936
7.53683
6.42608
5.31154
4.31988
3.514
2.86431
2.34323
1.92697
1.59529
1.32193
1.11159
0.956786
0.835422
0.735457
0.65075
0.578236
0.516436
0.465126
0.425669
0.406119
0.449014
0.794009
2.10232
0.507229
0.593092
0.776993
1.14693
1.71266
2.42885
3.25323
4.14858
5.08593
6.04697
7.03343
7.84077
0.453699
0.417313
0.392516
0.375496
0.363835
0.355911
0.350624
0.347214
0.34515
0.344153
0.343802
0.343751
0.344204
0.344841
0.345751
0.346807
0.348035
0.349343
0.350732
0.352256
0.353917
0.355718
0.357672
0.359785
0.362074
0.364555
0.367241
0.37016
0.373328
8.52017
9.18414
9.84763
10.493
11.0567
11.4307
11.5193
11.2726
10.7088
9.88804
8.88317
7.76558
6.57861
5.41575
4.41047
3.59258
2.93242
2.40211
1.97747
1.6379
1.35664
1.13936
0.979308
0.853989
0.750995
0.663837
0.589202
0.525383
0.471911
0.430891
0.409436
0.45306
0.816657
2.13288
0.491699
0.569391
0.72933
1.06358
1.60223
2.30081
3.11393
4.00004
4.92538
5.86716
6.8167
7.78916
8.57564
0.443277
0.410523
0.388072
0.372604
0.361974
0.354736
0.349904
0.346793
0.344944
0.344107
0.343788
0.343717
0.344204
0.34484
0.345749
0.346812
0.34798
0.349237
0.350628
0.352154
0.353819
0.355626
0.357586
0.359709
0.362007
0.364499
0.367198
0.370133
0.373318
9.24325
9.9132
10.5977
11.2688
11.8412
12.168
12.161
11.8012
11.1313
10.2225
9.14715
7.94533
6.70483
5.52724
4.50763
3.67701
3.0057
2.46557
2.03203
1.68411
1.39448
1.1698
1.00407
0.874426
0.768102
0.678238
0.601284
0.535269
0.480869
0.437709
0.413146
0.458425
0.841058
2.16135
0.477439
0.547519
0.685926
0.982368
1.49018
2.16904
2.97053
3.84899
4.76543
5.69169
6.61375
7.53449
8.4803
9.25637
0.433926
0.404419
0.38407
0.369999
0.360297
0.353676
0.349253
0.346434
0.344818
0.344064
0.343748
0.343711
0.344203
0.34484
0.345751
0.346761
0.34787
0.349128
0.350521
0.352049
0.353719
0.355532
0.357499
0.35963
0.361938
0.364442
0.367155
0.370107
0.373308
9.91959
10.6117
11.3315
12.0272
12.5988
12.8625
12.7462
12.272
11.5046
10.5189
9.35203
8.09302
6.83905
5.64624
4.61163
3.76756
3.08441
2.53383
2.09086
1.73412
1.43565
1.20308
1.03125
0.896902
0.786921
0.694099
0.61459
0.548211
0.492182
0.445162
0.417617
0.464253
0.86852
2.18801
0.464622
0.527787
0.646915
0.904497
1.3771
2.03346
2.82232
3.69427
4.60498
5.52038
6.42049
7.30218
8.18009
9.08821
9.8673
0.425549
0.398932
0.380468
0.367652
0.358783
0.352717
0.348691
0.34618
0.344728
0.34401
0.343743
0.343709
0.344199
0.344853
0.345696
0.346654
0.34776
0.349017
0.350411
0.351942
0.353617
0.355435
0.357409
0.359549
0.361867
0.364384
0.367111
0.370081
0.373299
10.5427
11.2778
12.0532
12.7714
13.3247
13.5018
13.2662
12.6827
11.8299
10.7453
9.51878
8.24874
6.98126
5.77289
4.72266
3.86445
3.16877
2.60711
2.15415
1.78809
1.48032
1.2394
1.06102
0.921578
0.807614
0.711534
0.631965
0.564329
0.504262
0.453386
0.422616
0.471597
0.898855
2.2111
0.453131
0.510175
0.613362
0.832181
1.26394
1.89417
2.66867
3.53471
4.44257
5.35196
6.23664
7.08699
7.91149
8.73542
9.60705
10.3998
0.418051
0.394003
0.377228
0.365533
0.357412
0.351881
0.348276
0.346014
0.344652
0.344005
0.34374
0.343708
0.344207
0.344815
0.345588
0.346547
0.347648
0.348904
0.350299
0.351832
0.353512
0.355336
0.357317
0.359467
0.361794
0.364326
0.367069
0.370056
0.37329
11.1125
11.917
12.7651
13.5028
14.0095
14.0725
13.7146
13.0334
12.073
10.9272
9.69258
8.41209
7.13131
5.90719
4.84086
3.96786
3.25896
2.68558
2.22205
1.84618
1.52862
1.27888
1.09354
0.948614
0.830296
0.734261
0.653461
0.581334
0.517187
0.462323
0.428481
0.480137
0.93243
2.23222
0.442856
0.49436
0.58504
0.768163
1.15286
1.75151
2.50907
3.36907
4.27658
5.18472
6.0606
6.8883
7.66945
8.42355
9.18731
10.0277
10.8525
0.411342
0.389575
0.374307
0.363616
0.356211
0.351249
0.348018
0.345906
0.344647
0.344001
0.343738
0.343733
0.344161
0.344726
0.345484
0.346439
0.347535
0.348787
0.350185
0.35172
0.353404
0.355234
0.357222
0.359383
0.361722
0.364271
0.367028
0.370031
0.373282
11.6337
12.54
13.4709
14.2086
14.6372
14.5619
14.0889
13.2883
12.2651
11.1139
9.87239
8.58237
7.28883
6.04901
4.96625
4.07789
3.35511
2.76935
2.29466
1.90847
1.58066
1.32164
1.12891
0.978098
0.85975
0.762191
0.675959
0.599245
0.530913
0.472118
0.435145
0.490241
0.970012
2.24827
0.433688
0.48013
0.56086
0.713799
1.04844
1.60714
2.34313
3.1961
4.1052
5.01665
5.89035
6.70392
7.45287
8.14962
8.8236
9.52486
10.3366
11.223
0.405338
0.385592
0.371668
0.361933
0.355285
0.350866
0.347875
0.345898
0.344642
0.343997
0.343768
0.343726
0.34407
0.344645
0.34538
0.346329
0.34742
0.348668
0.350068
0.351605
0.353294
0.355131
0.357126
0.359299
0.361653
0.364217
0.366988
0.370008
0.373273
12.1161
13.1612
14.1709
14.8736
15.1831
14.9616
14.3508
13.4848
12.4579
11.3033
10.0567
8.75859
7.4532
6.19806
5.0987
4.19452
3.45726
2.85848
2.37203
1.97498
1.63645
1.36772
1.16718
1.01613
0.895603
0.791147
0.699373
0.617978
0.545502
0.48274
0.44273
0.50273
1.01196
2.25986
0.425523
0.467335
0.539933
0.668346
0.953945
1.46605
2.17197
3.01455
3.92639
4.84542
5.72354
6.53138
7.25864
7.91191
8.5128
9.09971
9.73648
10.5189
11.5084
0.399953
0.382
0.369347
0.360616
0.354734
0.350679
0.347866
0.345892
0.344635
0.344039
0.343774
0.34369
0.343991
0.344566
0.345278
0.346215
0.347304
0.348547
0.349949
0.351488
0.35318
0.355025
0.357031
0.359219
0.361585
0.364164
0.366949
0.369985
0.373265
12.5767
13.7908
14.8627
15.4874
15.6196