/*--------------------------------*- C++ -*----------------------------------*\
  =========                 |
  \\      /  F ield         | OpenFOAM: The Open Source CFD Toolbox
   \\    /   O peration     | Website:  https://openfoam.org
    \\  /    A nd           | Version:  8
     \\/     M anipulation  |
\*---------------------------------------------------------------------------*/
FoamFile
{
    version     2.0;
    format      ascii;
    class       volScalarField;
    location    "0.34";
    object      epsilon;
}
// * * * * * * * * * * * * * * * * * * * * * * * * * * * * * * * * * * * * * //

dimensions      [0 2 -3 0 0 0 0];

internalField   nonuniform List<scalar> 
15677
(
59.6992
18.3522
52.611
8.08722
25.8859
50.1625
4.62705
13.2606
31.5724
50.4835
3.17777
7.72196
17.0774
37.2633
51.6017
2.48946
5.04202
10.0227
20.806
42.6399
53.6616
2.14569
3.62223
6.45998
12.1575
24.5362
47.6593
55.7271
1.97985
2.82062
4.52331
7.72105
14.2707
28.2499
52.0239
57.6662
1.91169
2.35286
3.40079
5.30796
8.9123
16.4201
31.7552
55.7113
59.3644
1.88416
2.08022
2.72269
3.90762
6.01925
10.1026
18.5333
34.9587
58.7327
60.8653
1.87055
1.93938
2.30681
3.05445
4.35618
6.70482
11.2713
20.569
37.7832
61.2094
62.1299
1.86765
1.87831
2.05632
2.52044
3.34683
4.77458
7.36175
12.4172
22.464
40.249
63.2015
63.2399
1.86863
1.84885
1.91652
2.18569
2.71173
3.61394
5.16441
8.0004
13.5075
24.2117
42.3477
64.8245
64.1657
1.86953
1.8387
1.85191
1.98246
2.30642
2.88555
3.85751
5.53541
8.60644
14.541
25.7784
44.1381
66.1262
64.9928
1.86977
1.83698
1.82113
1.86769
2.05114
2.41762
3.04242
4.08428
5.88245
9.18305
15.4941
27.1803
45.6335
67.1815
65.7145
1.86977
1.83724
1.81051
1.81332
1.89808
2.11718
2.51838
3.18619
4.29299
6.20918
9.71792
16.3718
28.4034
46.8886
68.0414
66.3516
1.86973
1.8375
1.80821
1.78977
1.81537
1.93017
2.17854
2.61023
3.31685
4.48633
6.51027
10.214
17.1583
29.4679
47.9321
68.7396
66.936
1.86971
1.8376
1.80791
1.78274
1.77569
1.82142
1.96225
2.23507
2.69325
3.43609
4.66261
6.78747
10.6625
17.861
30.3753
48.786
69.3382
67.4322
1.8697
1.83762
1.80793
1.78103
1.76146
1.7661
1.83168
1.99304
2.28643
2.7683
3.54371
4.82284
7.03729
11.0668
18.472
31.1397
49.4927
69.8121
67.9355
1.8697
1.83762
1.80795
1.7807
1.75698
1.74389
1.76034
1.84308
2.02165
2.33281
2.83556
3.64028
4.96603
7.26099
11.421
18.9989
31.7736
50.0464
70.2587
68.327
1.8697
1.8376
1.80794
1.78066
1.75572
1.73586
1.72948
1.75735
1.85453
2.04789
2.37435
2.89538
3.72587
5.0926
7.45666
11.7282
19.4395
32.2837
50.5081
70.5918
68.7938
1.8697
1.83759
1.80793
1.78064
1.7554
1.73314
1.71726
1.71794
1.75583
1.86573
2.07161
2.41119
2.94809
3.80064
5.20262
7.62491
11.9861
19.8013
32.6905
50.8453
70.962
69.1044
1.8697
1.83759
1.80792
1.78062
1.75533
1.7323
1.71266
1.70122
1.70839
1.75575
1.87624
2.0928
2.44362
2.99385
3.86524
5.29595
7.76614
12.1978
20.0872
32.9968
51.1323
71.2113
69.567
1.8697
1.83758
1.80791
1.78059
1.75529
1.73204
1.71105
1.69438
1.68717
1.70075
1.75606
1.8859
2.11159
2.47183
3.03331
3.91968
5.37411
7.88037
12.3648
20.3044
33.2226
51.325
71.5622
69.8181
1.8697
1.83757
1.8079
1.78056
1.75526
1.73194
1.71052
1.69174
1.67794
1.67514
1.69443
1.75684
1.89477
2.1282
2.49634
3.06674
3.96523
5.43648
7.97085
12.4896
20.4607
33.3769
51.488
71.7665
70.2814
1.8697
1.83757
1.80789
1.78054
1.75523
1.73187
1.71033
1.69076
1.67416
1.66344
1.66467
1.68938
1.75818
1.90301
2.14296
2.51751
3.09502
4.00205
5.48637
8.03691
12.5789
20.5594
33.466
51.6061
72.1616
70.5231
1.86971
1.83757
1.80789
1.78053
1.75521
1.73182
1.71023
1.69038
1.67269
1.65834
1.65056
1.65598
1.68548
1.76
1.91082
2.15632
2.53612
3.1189
4.03206
5.5228
8.08465
12.6309
20.6178
33.5186
51.6842
72.4574
428.832
1.86971
1.83756
1.80789
1.78051
1.75519
1.73177
1.71017
1.69019
1.67211
1.6562
1.6442
1.63957
1.64857
1.68283
1.76257
1.91872
2.1689
2.55282
3.13923
4.05554
5.55009
8.11189
12.661
20.6258
33.5177
51.8084
88.789
716.305
1.86971
1.83756
1.80788
1.7805
1.75517
1.73174
1.71011
1.69008
1.67185
1.65529
1.64144
1.63181
1.63008
1.64336
1.68197
1.76634
1.9271
2.18133
2.56848
3.15734
4.07496
5.56832
8.12916
12.659
20.6145
33.523
52.7332
122.12
996.018
1.86971
1.83756
1.80788
1.7805
1.75516
1.73171
1.71007
1.69
1.67169
1.65486
1.64026
1.62826
1.62121
1.62295
1.63924
1.68293
1.77161
1.93673
2.19451
2.58436
3.17443
4.09143
5.58134
8.1299
12.6486
20.5886
33.5526
55.2946
157.648
1243.02
1.86971
1.83756
1.80788
1.78049
1.75515
1.73169
1.71003
1.68994
1.67158
1.65463
1.6397
1.62664
1.61709
1.61274
1.61735
1.63908
1.68581
1.77911
1.94835
2.20947
2.60126
3.19178
4.1064
5.58975
8.12725
12.6269
20.5548
33.6571
59.8692
190.203
1470.01
1.86971
1.83756
1.80788
1.78048
1.75514
1.73167
1.71
1.68989
1.67149
1.65448
1.63939
1.62587
1.61518
1.60779
1.60645
1.61539
1.64075
1.69166
1.78959
1.9629
2.22695
2.62048
3.21042
4.12171
5.59659
8.12121
12.5998
20.5148
33.9181
64.5991
221.053
1661.87
1.86971
1.83755
1.80788
1.78048
1.75513
1.73166
1.70997
1.68984
1.67142
1.65437
1.63919
1.62545
1.61424
1.60542
1.60115
1.6032
1.61667
1.64532
1.70144
1.80401
1.98123
2.24825
2.64292
3.23202
4.13865
5.60453
8.11393
12.5708
20.4709
34.3925
69.4061
248.16
1807.05
1.86971
1.83755
1.80788
1.78047
1.75513
1.73164
1.70995
1.68981
1.67136
1.65428
1.63903
1.62519
1.61373
1.60424
1.59858
1.59715
1.60425
1.62079
1.65437
1.71595
1.82323
2.00455
2.2742
2.67005
3.25743
4.1592
5.61523
8.1085
12.5401
20.4302
34.9589
73.7738
269.184
1919.16
1.86971
1.83755
1.80788
1.78047
1.75512
1.73163
1.70993
1.68978
1.6713
1.6542
1.6389
1.625
1.61339
1.60362
1.59727
1.59418
1.59807
1.60817
1.62933
1.66909
1.73608
1.84849
2.0337
2.30615
2.70252
3.28823
4.18444
5.63032
8.1056
12.5076
20.3991
35.5069
77.1588
285.8
2008.69
1.83755
1.86975
1.80788
1.78047
1.75512
1.73162
1.70992
1.68975
1.67126
1.65413
1.63879
1.62485
1.61314
1.60323
1.59654
1.59269
1.59507
1.60195
1.61653
1.64432
1.69009
1.76309
1.8806
2.06997
2.34472
2.7418
3.3251
4.21555
5.65015
8.10636
12.4726
20.363
35.9281
79.7609
299.266
2082.94
1.80788
1.83765
1.86982
1.78046
1.75512
1.73161
1.7099
1.68972
1.67122
1.65408
1.63869
1.62473
1.61293
1.60295
1.59607
1.59191
1.59359
1.59898
1.61036
1.63196
1.66619
1.71861
1.79791
1.92101
2.1141
2.39132
2.78823
3.36909
4.25274
5.67516
8.11007
12.4341
20.3193
36.218
81.7587
310.627
2146.9
1.78046
1.80804
1.83785
1.86989
1.75511
1.7316
1.70989
1.6897
1.67119
1.65403
1.63861
1.62462
1.61275
1.60273
1.59573
1.59145
1.59284
1.59761
1.60762
1.62629
1.65473
1.69629
1.75584
1.84185
1.97028
2.16718
2.44606
2.843
3.42023
4.29623
5.70904
8.11874
12.3994
20.2616
36.4074
83.3346
320.498
2203.56
1.75511
1.78067
1.80836
1.83805
1.86997
1.7316
1.70988
1.68969
1.67116
1.65398
1.63855
1.62452
1.6126
1.60255
1.59545
1.59113
1.59242
1.59699
1.60652
1.62405
1.65002
1.68645
1.73596
1.80333
1.89598
2.02991
2.22959
2.51046
2.90583
3.47871
4.35173
5.7539
8.13464
12.3666
20.1958
36.5074
84.6051
329.369
2255.08
1.73159
1.75536
1.78109
1.80868
1.83826
1.87004
1.70987
1.68967
1.67114
1.65394
1.63849
1.62444
1.61248
1.60239
1.59522
1.59088
1.59214
1.5967
1.6062
1.62354
1.64885
1.68352
1.72872
1.78706
1.86231
1.96197
2.10044
2.30247
2.58347
2.97712
3.55192
4.42194
5.80643
8.15569
12.3381
20.1212
36.562
85.6734
337.491
2302.5
1.70987
1.73188
1.75588
1.78152
1.80902
1.83848
1.87012
1.68966
1.67112
1.65391
1.63844
1.62437
1.61237
1.60226
1.59502
1.59068
1.59194
1.59654
1.60619
1.6238
1.6493
1.68384
1.72798
1.78335
1.85123
1.93495
2.04074
2.18339
2.38576
2.66626
3.06553
3.64288
4.50072
5.86552
8.18204
12.3125
20.0453
36.5611
86.5948
345.073
2346.86
1.68965
1.71019
1.73248
1.75641
1.78196
1.80936
1.8387
1.8702
1.6711
1.65388
1.6384
1.6243
1.61228
1.60214
1.59484
1.59052
1.59178
1.59646
1.60631
1.62436
1.65058
1.68602
1.73077
1.78596
1.85164
1.92988
2.02222
2.1343
2.2789
2.48086
2.76788
3.17441
3.74342
4.5864
5.93001
8.2126
12.2916
19.9679
36.5496
87.4218
352.203
2388.33
1.67109
1.69
1.71087
1.7331
1.75696
1.78242
1.80972
1.83893
1.87028
1.65385
1.63837
1.62424
1.6122
1.60204
1.5947
1.59038
1.59165
1.59641
1.60647
1.625
1.65208
1.68901
1.73551
1.79245
1.8592
1.93652
2.02418
2.12529
2.24309
2.38875
2.59877
2.89479
3.29331
3.85096
4.67786
5.99859
8.24712
12.2746
19.894
36.525
88.1744
358.975
2427.57
1.65383
1.67147
1.69074
1.71156
1.73373
1.75752
1.78289
1.81008
1.83917
1.87037
1.63833
1.62419
1.61214
1.60194
1.59457
1.59027
1.59155
1.59638
1.60665
1.62564
1.65362
1.69215
1.74106
1.80111
1.87093
1.95098
2.03943
2.13726
2.24449
2.3673
2.5269
2.7478
3.0351
3.42124
3.96396
4.77336
6.07028
8.28458
12.2617
19.8249
36.4902
88.8796
365.404
2464.38
1.63831
1.65422
1.67226
1.6915
1.71227
1.73438
1.75809
1.78337
1.81045
1.83941
1.87046
1.62414
1.61209
1.60185
1.59447
1.59017
1.59146
1.59637
1.60683
1.62625
1.6551
1.69519
1.74663
1.81068
1.88518
1.97019
2.06317
2.1639
2.26969
2.38293
2.52211
2.69976
2.91367
3.18705
3.55723
4.08212
4.8717
6.14399
8.32439
12.2526
19.7611
36.456
89.5426
371.554
2499.35
1.6241
1.63871
1.65505
1.67307
1.69228
1.71301
1.73505
1.75868
1.78387
1.81083
1.83966
1.87055
1.61204
1.60177
1.59439
1.59008
1.59139
1.59636
1.60701
1.62683
1.6565
1.69806
1.75198
1.82014
1.90048
1.99261
2.09261
2.20033
2.311
2.42495
2.55801
2.71877
2.89112
3.0953
3.3506
3.69993
4.20359
4.97165
6.21881
8.36575
12.2468
19.7034
36.4231
90.1795
377.391
2532.08
1.61201
1.62449
1.63956
1.6559
1.67391
1.69308
1.71376
1.73574
1.75929
1.78438
1.81123
1.83991
1.87064
1.60169
1.59432
1.59
1.59132
1.59636
1.60718
1.62737
1.65781
1.70074
1.75705
1.8292
1.91552
2.01653
2.12636
2.24405
2.36406
2.48554
2.62322
2.78332
2.94062
3.09953
3.28726
3.5227
3.84724
4.32736
5.07226
6.29382
8.40809
12.2443
19.6519
36.396
90.7862
382.995
2563.2
1.60163
1.61238
1.62532
1.64044
1.65678
1.67477
1.69391
1.71453
1.73645
1.75991
1.78491
1.81163
1.84018
1.87073
1.59427
1.58992
1.59126
1.59636
1.60734
1.62786
1.65902
1.70321
1.76179
1.83774
1.92995
2.04019
2.16234
2.29399
2.42686
2.56105
2.71095
2.88208
3.04076
3.18661
3.32469
3.48835
3.70202
3.99872
4.45234
5.17248
6.36835
8.45082
12.2449
19.6064
36.3733
91.3762
388.286
2592.2
1.59424
1.60193
1.61319
1.62618
1.64134
1.65769
1.67565
1.69476
1.71533
1.73718
1.76055
1.78545
1.81204
1.84043
1.87082
1.58984
1.59121
1.59636
1.60748
1.62832
1.66013
1.70548
1.76621
1.84572
1.94367
2.06309
2.19809
2.34766
2.49889
2.65032
2.81871
3.01018
3.18261
3.3305
3.45563
3.56467
3.69656
3.8839
4.15237
4.57725
5.27164
6.44173
8.49352
12.247
19.5663
36.3582
91.9393
393.38
2619.81
1.58977
1.59451
1.60259
1.61402
1.62708
1.64227
1.65863
1.67656
1.69564
1.71614
1.73793
1.76121
1.786
1.81245
1.84069
1.8709
1.59115
1.59636
1.60761
1.62873
1.66114
1.70756
1.77029
1.85313
1.95663
2.08499
2.23287
2.40176
2.5772
2.75372
2.94679
3.16753
3.36437
3.5271
3.65267
3.74645
3.81733
3.91089
4.06639
4.30631
4.70105
5.36878
6.51343
8.53574
12.2511
19.5315
36.3475
92.4899
398.153
2645.37
1.59113
1.58979
1.59509
1.60327
1.61489
1.62801
1.64323
1.6596
1.6775
1.69655
1.71698
1.7387
1.76188
1.78654
1.81285
1.84093
1.87098
1.59635
1.60773
1.62911
1.66207
1.70946
1.77405
1.85998
1.96881
2.10572
2.26642
2.45527
2.657
2.86776
3.09738
3.3576
3.59025
3.77985
3.91849
4.00765
4.0577
4.08059
4.12946
4.24828
4.45872
4.82239
5.46351
6.58306
8.57715
12.2571
19.5014
36.344
93.0133
402.764
2669.74
1.59639
1.59102
1.58983
1.59568
1.604
1.61579
1.62898
1.64422
1.66061
1.67847
1.69748
1.71784
1.73949
1.76255
1.78707
1.81323
1.84117
1.87106
1.60783
1.62945
1.6629
1.71119
1.7775
1.86628
1.98018
2.12518
2.29858
2.50761
2.73649
2.98602
3.26734
3.58712
3.87008
4.10119
4.26596
4.36146
4.39633
4.38818
4.35253
4.35034
4.42842
4.60901
4.94143
5.55542
6.65031
8.61751
12.2643
19.4755
36.3455
93.5263
407.044
2692.17
1.60799
1.59607
1.59073
1.58984
1.59631
1.60479
1.61672
1.63
1.64524
1.66164
1.67946
1.69844
1.71873
1.74027
1.76319
1.78759
1.81361
1.8414
1.87114
1.62974
1.66365
1.71277
1.78064
1.87208
1.99074
2.14336
2.32926
2.55822
2.81474
3.10666
3.44848
3.85457
4.22013
4.51467
4.72396
4.83767
4.86298
4.82046
4.73704
4.63143
4.57186
4.60559
4.75451
5.05727
5.64416
6.71497
8.65662
12.2725
19.4536
36.3499
94.0102
411.202
2713.58
1.6301
1.60733
1.59516
1.59039
1.58999
1.59697
1.60565
1.61767
1.63106
1.64629
1.66271
1.68048
1.69942
1.7196
1.74103
1.76383
1.78809
1.81397
1.84162
1.87122
1.6643
1.71419
1.78351
1.8774
2.00051
2.16027
2.35837
2.60664
2.89128
3.2289
3.63754
4.1482
4.6466
5.06002
5.34525
5.49569
5.51555
5.43193
5.2823
5.10361
4.91578
4.79259
4.77945
4.89469
5.16917
5.7294
6.77687
8.69433
12.2815
19.435
36.3582
94.4854
415.026
2730.77
1.66503
1.62885
1.60543
1.59415
1.59015
1.59031
1.59762
1.60658
1.61865
1.63216
1.64737
1.66381
1.68152
1.70039
1.72045
1.74177
1.76444
1.78858
1.81433
1.84184
1.87129
1.71546
1.7861
1.88228
2.00951
2.17599
2.38584
2.65259
2.96589
3.35165
3.83153
4.46406
5.14132
5.76943
6.21713
6.439
6.4615
6.32173
6.07685
5.78371
5.48711
5.20417
5.01133
4.94917
5.02932
5.27662
5.81093
6.83593
8.73054
12.2909
19.4194
36.3712
94.9295
418.263
2745.21
1.71678
1.66313
1.62528
1.60339
1.59328
1.58987
1.59081
1.59828
1.60757
1.61967
1.6333
1.64849
1.66494
1.68256
1.70134
1.72129
1.74249
1.76504
1.78905
1.81467
1.84205
1.87136
1.78844
1.88672
2.01779
2.19057
2.41163
2.69601
3.03843
3.4734
4.0277
4.80189
5.70893
6.64604
7.41469
7.82477
7.87408
7.66102
7.27307
6.80305
6.32505
5.88631
5.49523
5.22708
5.11404
5.15826
5.37933
5.88861
6.8921
8.76517
12.3007
19.4063
36.3853
95.3084
420.93
2760.82
1.79075
1.71404
1.65739
1.62151
1.60158
1.59251
1.58957
1.59143
1.59897
1.60862
1.62073
1.63448
1.64964
1.66606
1.68358
1.70226
1.72209
1.74318
1.76562
1.78951
1.81501
1.84225
1.87143
1.89078
2.02537
2.20409
2.43575
2.73695
3.10867
3.59259
4.22465
5.16316
6.35477
7.69686
8.93831
9.7729
9.99359
9.7052
9.11665
8.3761
7.61062
6.90451
6.29932
5.78759
5.43898
5.27353
5.28138
5.47714
5.96238
6.94534
8.79818
12.3107
19.3956
36.4008
95.6209
423.872
2777.79
1.89466
1.78698
1.70519
1.6514
1.6181
1.59993
1.5918
1.58932
1.59213
1.59971
1.60971
1.62184
1.63568
1.65079
1.66714
1.68457
1.70315
1.72288
1.74386
1.76618
1.78996
1.81533
1.84245
1.87147
2.03236
2.21659
2.45824
2.77551
3.17635
3.70806
4.42243
5.54906
7.07787
8.91744
10.7792
12.2618
12.9878
12.7921
11.9557
10.8305
9.62595
8.49412
7.518
6.72355
6.07976
5.64626
5.42726
5.39868
5.56999
6.03222
6.99571
8.82955
12.3207
19.3879
36.4136
95.9777
427.036
2796.23
2.03882
1.88959
1.77373
1.69604
1.64589
1.61492
1.59839
1.59115
1.58915
1.5929
1.60051
1.61084
1.623
1.63687
1.65192
1.6682
1.68554
1.70402
1.72365
1.74452
1.76673
1.79039
1.81565
1.84255
1.87147
2.22823
2.47917
2.81183
3.24116
3.81919
4.62201
5.95904
7.87089
10.2901
12.9129
15.2628
16.8117
17.1589
16.2522
14.6227
12.7882
11.0086
9.4436
8.15963
7.15585
6.37023
5.84826
5.57496
5.51017
5.65789
6.09819
7.04324
8.8593
12.3293
19.3821
36.4312
96.356
430.557
2816.35
2.23874
2.03221
1.87006
1.76018
1.68758
1.64068
1.61191
1.59697
1.5906
1.58908
1.59371
1.60139
1.61199
1.62417
1.63803
1.65303
1.66923
1.68648
1.70487
1.7244
1.74516
1.76726
1.79081
1.8158
1.84255
1.87147
2.49876
2.84602
3.30285
3.92594
4.82456
6.39055
8.72239
11.79
15.3
18.7309
21.4227
22.7492
22.3517
20.3783
17.6847
14.9645
12.5041
10.4463
8.82231
7.59268
6.65748
6.0444
5.71647
5.6159
5.74091
6.16035
7.08802
8.88372
12.3369
19.3764
36.4496
96.7961
434.336
2838.2
2.51603
2.2301
2.00378
1.85034
1.7476
1.67951
1.63569
1.60908
1.59565
1.59015
1.58912
1.59454
1.60235
1.61314
1.62533
1.63917
1.65411
1.67023
1.6874
1.70569
1.72512
1.74578
1.76778
1.79102
1.8158
1.84255
1.87147
2.87838
3.36141
4.02875
5.03084
6.83935
9.61917
13.39
17.8941
22.5997
26.7521
29.5114
30.2023
28.5991
25.1513
21.1068
17.3273
14.0896
11.4884
9.49851
8.03047
6.94006
6.23419
5.85168
5.716
5.81922
6.21891
7.12458
8.90443
12.3454
19.3712
36.4762
97.2599
438.563
2862.07
2.90651
2.50506
2.18883
1.97545
1.832
1.73553
1.67173
1.63091
1.60642
1.59445
1.5898
1.58929
1.59538
1.60338
1.61425
1.62648
1.64027
1.65516
1.6712
1.68829
1.70649
1.72583
1.74639
1.76804
1.79102
1.8158
1.84255
1.87147
3.41714
4.12853
5.24107
7.29996
10.5475
15.0629
20.6465
26.7905
32.6923
37.3429
39.7456
39.2557
35.8984
30.5303
24.8442
19.8416
15.7418
12.5558
10.1808
8.46574
7.21662
6.41721
5.98057
5.81061
5.8928
6.26681
7.1555
8.92711
12.3551
19.3664
36.5031
97.8078
443.102
2887.95
3.46506
2.89237
2.44508
2.14831
1.94902
1.81436
1.72387
1.66424
1.62634
1.60394
1.59336
1.58954
1.58967
1.59619
1.60443
1.61533
1.62761
1.64134
1.65619
1.67215
1.68916
1.70726
1.72651
1.74669
1.76804
1.79102
1.8158
1.84255
1.87147
4.22612
5.45343
7.76648
11.4936
16.7822
23.509
31.2196
39.1114
46.0714
50.8303
52.2859
49.9402
44.2086
36.4553
28.8454
22.4713
17.438
13.6356
10.8625
8.8953
7.48592
6.59314
6.10316
5.89993
5.95257
6.30734
7.18922
8.95195
12.3661
19.363
36.5432
98.3816
448.215
2916.23
4.31139
3.44726
2.80397
2.38716
2.11049
1.92358
1.79726
1.71258
1.65702
1.62196
1.60169
1.59238
1.58928
1.59028
1.59697
1.60549
1.61639
1.62872
1.64239
1.6572
1.67307
1.69001
1.70802
1.72685
1.74669
1.76804
1.79102
1.8158
1.84255
1.87143
5.66497
8.23479
12.4453
18.5227
26.4351
35.8038
45.8677
55.4796
63.186
67.4721
67.2183
62.2256
53.4514
42.8501
33.0549
25.1808
19.1571
14.7161
11.5373
9.31631
7.74695
6.76175
6.21952
5.97306
6.00292
6.35155
7.22602
8.97917
12.3786
19.36
36.5828
99.0706
453.71
2946.76
4.28857
5.85096
3.31287
2.7205
2.33301
2.07402
1.89888
1.78069
1.70168
1.65009
1.61777
1.59961
1.59151
1.58899
1.59099
1.59774
1.60656
1.61744
1.6298
1.64342
1.65818
1.67397
1.69083
1.70839
1.72685
1.74669
1.76804
1.79102
1.8158
1.84245
1.87136
8.70083
13.3918
20.262
29.3814
40.4643
52.8216
65.3336
76.466
84.4058
87.4332
84.5414
76.0181
63.5152
49.6265
37.4155
27.9364
20.8804
15.787
12.2002
9.7264
7.99885
6.92285
6.31516
6.03498
6.05765
6.39978
7.26618
9.00903
12.393
19.36
36.6428
99.7883
459.942
2980.1
4.06875
5.83367
9.11464
3.1903
2.64248
2.2808
2.03861
1.87492
1.76465
1.69118
1.64346
1.61384
1.59772
1.59077
1.5888
1.59175
1.59853
1.6076
1.61847
1.63086
1.64442
1.65913
1.67485
1.69124
1.70839
1.72685
1.74669
1.76804
1.79102
1.81565
1.84225
1.87129
14.3225
21.981
32.31
45.1298
59.8451
75.4076
90.2973
102.554
109.994
110.766
104.159
91.1649
74.2619
56.6898
41.8711
30.7076
22.5915
16.8399
12.8468
10.1236
8.24089
7.05603
6.39639
6.10265
6.11716
6.4524
7.31005
9.04184
12.4093
19.3613
36.7008
100.664
466.652
3015.88
3.87607
5.44377
9.12794
15.1507
3.07658
2.56726
2.23015
2.00425
1.85172
1.74918
1.68111
1.63715
1.61021
1.59608
1.59017
1.58872
1.59252
1.59935
1.60863
1.6195
1.63189
1.6454
1.66006
1.67528
1.69124
1.70839
1.72685
1.74669
1.76804
1.79081
1.81533
1.84204
1.87122
23.6615
35.1897
49.74
66.8264
85.5013
104.326
121.342
134.113
140.084
137.397
125.881
107.462
85.5353
63.9435
46.3691
33.4666
24.2763
17.8676
13.4737
10.5064
8.44195
7.16958
6.48544
6.17664
6.18191
6.5098
7.35797
9.07785
12.4283
19.3648
36.7899
101.573
474.312
3054.88
3.70096
5.10498
8.41321
15.2369
25.166
2.96736
2.49439
2.18103
1.97097
1.82932
1.73431
1.67148
1.63124
1.60697
1.59468
1.58971
1.58875
1.59329
1.60019
1.60963
1.62051
1.63289
1.64637
1.66052
1.67528
1.69124
1.70839
1.72685
1.74669
1.76778
1.79038
1.815
1.84183
1.87114
37.9916
54.2483
73.6763
95.4483
118.251
140.233
158.936
171.382
174.665
167.125
149.433
124.667
97.1708
71.2948
50.8612
36.1895
25.9232
18.8647
14.0781
10.825
8.6139
7.29458
6.58317
6.2576
6.2524
6.57242
7.41032
9.11752
12.4496
19.3737
36.8754
102.697
482.575
3096.32
3.53573
4.79859
7.77796
13.9982
25.4337
40.5056
2.86186
2.42385
2.13352
1.93886
1.80778
1.72007
1.66241
1.62588
1.60414
1.59348
1.58939
1.5889
1.59404
1.60105
1.6106
1.6215
1.63388
1.64684
1.66051
1.67528
1.69124
1.70839
1.72685
1.74638
1.76725
1.78994
1.81466
1.84161
1.87106
58.6119
80.3304
105.124
131.831
158.78
183.668
203.43
214.452
213.566
199.617
174.468
142.515
109.006
78.6565
55.3045
38.8561
27.5228
19.8265
14.5815
11.0979
8.8038
7.43237
6.69053
6.34624
6.32916
6.64071
7.46754
9.16108
12.475
19.3834
37.0065
103.866
492.077
3141.4
3.37856
4.51247
7.19577
12.8616
23.499
41.1046
62.523
2.76002
2.35578
2.08772
1.90799
1.78714
1.7066
1.65411
1.62112
1.60167
1.59248
1.58917
1.58921
1.59476
1.60194
1.61156
1.6225
1.63436
1.64683
1.66051
1.67528
1.69124
1.7084
1.72651
1.74577
1.76671
1.78949
1.81431
1.84139
1.87098
86.731
114.447
144.903
176.65
207.66
235.077
255.052
263.252
256.451
234.426
200.59
160.736
120.885
85.9508
59.6632
41.4501
29.0676
20.628
15.0128
11.3997
9.01377
7.5844
6.80858
6.44335
6.4128
6.71519
7.53005
9.20919
12.503
19.4048
37.1333
105.326
502.337
3188.55
3.22904
4.24365
6.64932
11.7964
21.686
38.2706
63.6398
92.4425
2.66194
2.29032
2.04374
1.87843
1.7676
1.69426
1.64669
1.61687
1.59956
1.59164
1.58898
1.58968
1.59545
1.60284
1.61252
1.62299
1.63434
1.64684
1.66051
1.67528
1.69124
1.70802
1.72581
1.74514
1.76616
1.78903
1.81396
1.84116
1.8709
123.346
157.374
193.634
230.451
265.39
294.832
313.895
317.525
302.814
271.01
227.378
179.067
132.668
93.1117
63.9073
43.9581
30.3563
21.315
15.4899
11.7338
9.24616
7.75231
6.9385
6.5498
6.50397
6.79639
7.59837
9.26201
12.537
19.4257
37.3251
106.855
514.231
3248.61
3.08699
3.99196
6.13444
10.7818
19.9489
35.588
59.6903
94.271
131.223
2.56779
2.22767
2.00169
1.85047
1.74966
1.68317
1.64004
1.61308
1.59776
1.59093
1.58877
1.59025
1.59613
1.60379
1.61297
1.62297
1.63434
1.64684
1.66052
1.67529
1.69083
1.70725
1.7251
1.7445
1.76559
1.78856
1.81359
1.84092
1.87081
169.167
209.639
251.782
293.727
332.455
363.237
379.896
376.811
351.998
308.768
254.413
197.266
144.235
100.084
68.0124
46.052
31.4615
22.0753
16.0183
12.1039
9.50357
7.93793
7.08159
6.66654
6.6034
6.88489
7.67296
9.32051
12.5743
19.465
37.5149
108.772
529.393
3318.59
2.95212
3.75787
5.6518
9.81351
18.2602
32.9805
55.9477
88.966
133.92
179.469
2.47785
2.16798
1.96196
1.82481
1.73354
1.67321
1.63408
1.60971
1.59622
1.59035
1.58862
1.59087
1.59689
1.60425
1.61291
1.62298
1.63434
1.64684
1.66052
1.67485
1.69
1.70647
1.72437
1.74384
1.76501
1.78807
1.81322
1.84068
1.87073
224.598
271.58
319.764
367.013
409.373
440.529
452.805
440.444
403.223
347.07
281.3
215.126
155.487
106.825
71.4402
47.8484
32.6852
22.9174
16.6037
12.5143
9.7889
8.14326
7.2393
6.79462
6.71185
6.9813
7.75441
9.38466
12.62
19.5042
37.7939
111.166
549.224
3386.34
2.82389
3.54261
5.20278
8.89758
16.6096
30.4113
52.2829
83.9768
126.969
183.097
237.414
2.39245
2.11176
1.92558
1.80176
1.71905
1.66427
1.62875
1.60675
1.59491
1.58987
1.58858
1.59163
1.59719
1.6042
1.6129
1.62298
1.63435
1.64685
1.66006
1.67397
1.68915
1.70567
1.72362
1.74316
1.76441
1.78757
1.81284
1.84043
1.87064
289.811
343.475
398.081
450.983
496.736
526.862
532.157
507.556
455.622
385.301
307.691
232.474
166.346
112.446
74.3799
49.8376
34.0411
23.851
17.253
12.9696
10.1053
8.37054
7.41321
6.93518
6.83019
7.08629
7.84326
9.45591
12.67
19.57
38.1323
114.498
570.684
3450.67
2.70213
3.34748
4.78872
8.03608
14.9982
27.8626
48.6438
79.088
120.537
174.113
241.877
304.994
2.31243
2.06042
1.89296
1.78106
1.70603
1.65626
1.62402
1.60417
1.59378
1.58951
1.5888
1.59197
1.59704
1.60422
1.61291
1.62297
1.63437
1.64637
1.65912
1.67306
1.68827
1.70484
1.72286
1.74246
1.7638
1.78706
1.81244
1.84017
1.87055
364.893
425.71
487.481
546.571
595.283
622.292
617.233
577.089
508.297
422.906
333.3
249.175
175.38
117.261
77.6326
52.0415
35.5447
24.8866
17.9733
13.4748
10.4563
8.62218
7.60506
7.08949
6.95933
7.20053
7.94014
9.53395
12.7319
19.6508
38.6867
118.042
594.039
3510.59
2.58794
3.1685
4.41011
7.23153
13.4396
25.3329
44.998
74.2267
114.275
165.998
230.313
309.966
382
2.23977
2.0145
1.86371
1.76247
1.69434
1.64909
1.61981
1.6019
1.59284
1.58949
1.58878
1.59186
1.59703
1.60422
1.61291
1.623
1.63389
1.6454
1.65816
1.67213
1.68738
1.704
1.72207
1.74174
1.76318
1.78653
1.81204
1.83991
1.87046
450.06
519.046
589.188
655.221
705.967
726.689
707.011
647.857
560.397
459.413
357.897
263.027
183.102
122.579
81.2328
54.4846
37.2127
26.0358
18.7727
14.0355
10.8457
8.90082
7.81673
7.25885
7.10025
7.32479
8.04573
9.62093
12.8121
19.7973
39.2756
122.195
619.302
3565.19
2.48424
3.00442
4.06837
6.48901
11.9504
22.8334
41.3335
69.3367
108.084
158.208
220.186
295.035
386.867
468.333
2.17518
1.97344
1.83751
1.74579
1.68387
1.64268
1.61606
1.59995
1.59238
1.58932
1.58849
1.5919
1.59703
1.6042
1.61298
1.62251
1.63289
1.64441
1.65718
1.67118
1.68646
1.70313
1.72126
1.74101
1.76253
1.78599
1.81163
1.83965
1.87037
545.963
624.748
705.255
779.117
829.898
839.589
800.174
718.644
611.166
494.443
378.234
274.834
191.606
128.452
85.2177
57.1931
39.0636
27.3113
19.66
14.6576
11.2776
9.20926
8.05018
7.44471
7.25393
7.45968
8.16055
9.73356
12.9264
19.9601
40.0266
126.781
646.467
3613.76
2.3922
2.85717
3.76496
5.81469
10.5472
20.3824
37.6538
64.3854
101.874
150.615
210.671
282.421
367.427
472.151
564.339
2.11775
1.93673
1.81403
1.73083
1.67448
1.63694
1.61278
1.59872
1.59194
1.58898
1.58851
1.5919
1.59705
1.60425
1.61253
1.6215
1.63187
1.64341
1.65617
1.67021
1.68552
1.70224
1.72044
1.74026
1.76187
1.78544
1.81122
1.8394
1.87029
653.637
745.182
839.117
921.251
968.063
960.073
895.214
788.29
659.977
523.342
395.519
287.792
200.964
134.933
89.6268
60.1955
41.1175
28.727
20.6445
15.3477
11.7562
9.55045
8.30749
7.64845
7.42161
7.60651
8.30927
9.87617
13.0516
20.175
40.8672
132.061
675.914
3654.96
2.31078
2.72618
3.50565
5.2159
9.25101
18.0016
33.9725
59.3577
95.5804
143.08
201.606
270.896
351.651
446.515
565.849
671.275
2.06665
1.90394
1.79301
1.71743
1.66604
1.63187
1.61048
1.59781
1.59147
1.58902
1.58851
1.59186
1.5972
1.60379
1.61155
1.6205
1.63084
1.64238
1.65515
1.66921
1.68456
1.70133
1.71959
1.73949
1.7612
1.78489
1.81082
1.83916
1.8702
775.57
885.062
996.184
1085.18
1121.07
1086.86
990.563
855.757
700.252
547.848
414.42
301.989
211.246
142.078
94.5017
63.5221
43.3957
30.2977
21.7364
16.1126
12.2861
9.92739
8.59072
7.8717
7.604
7.79351
8.4915
10.0267
13.1977
20.4253
41.8665
138.114
707.439
3687.61
2.2389
2.60908
3.29154
4.70513
8.08088
15.7151
30.3123
54.2505
89.1559
135.497
192.789
260.254
337.697
426.656
531.437
669.076
791.76
2.02115
1.87466
1.7742
1.70538
1.65856
1.62815
1.60893
1.59715
1.59154
1.58902
1.58849
1.59197
1.5969
1.60283
1.61059
1.61948
1.62978
1.64133
1.65409
1.66819
1.68358
1.70039
1.71873
1.7387
1.76054
1.78436
1.81044
1.83892
1.87012
917.288
1052.55
1183.84
1274.96
1289.4
1218.59
1084.59
911.692
734.376
574.558
435.031
317.506
222.523
149.943
99.8853
67.2044
45.9207
32.0392
22.9464
16.9593
12.8718
10.3431
8.90204
8.11554
7.83983
8.0182
8.67971
10.1876
13.3623
20.7255
43.0499
144.967
742.756
3711.4
2.17545
2.5047
3.11006
4.27994
7.06601
13.572
26.7045
49.0723
82.5637
127.772
184.061
250.206
325.299
409.686
506.301
621.786
784.151
931.446
1.98065
1.84853
1.7573
1.69469
1.65291
1.62576
1.60803
1.59726
1.59154
1.58898
1.58878
1.59162
1.59613
1.60192
1.60961
1.61846
1.6287
1.64026
1.65302
1.66714
1.68257
1.69943
1.71785
1.73792
1.75989
1.78385
1.81007
1.83869
1.87005
1087.96
1259.57
1412.25
1496.3
1474.79
1353.38
1163.5
959.16
771.497
603.56
457.43
334.413
234.855
158.58
105.82
71.2745
48.7158
33.9675
24.2853
17.8949
13.5178
10.8005
9.24296
8.43115
8.12643
8.24767
8.87408
10.3593
13.5487
21.0909
44.3865
152.985
780.098
3727.01
2.11941
2.41212
2.95324
3.92884
6.21342
11.6566
23.2164
43.8462
75.7773
119.818
175.272
240.533
314.042
395.255
485.539
589.884
717.978
915.312
1100.7
1.9446
1.82513
1.74229
1.68646
1.64938
1.62459
1.60817
1.59726
1.59148
1.58933
1.5888
1.59085
1.59544
1.60104
1.6086
1.61743
1.62759
1.63916
1.65193
1.66606
1.68155
1.69845
1.71697
1.73716
1.75926
1.78335
1.8097
1.83846
1.86997
1303.76
1525.27
1699.25
1762.98
1678.8
1468.92
1230.76
1010.79
811.669
634.903
481.665
352.762
248.297
168.039
112.346
75.7637
51.8041
36.0988
25.764
18.9265
14.2285
11.3018
9.68509
8.81473
8.42056
8.4821
9.07497
10.5425
13.7648
21.5041
46.0182
162.196
819.71
3735.28
2.06986
2.3305
2.81541
3.63973
5.50653
10.009
19.9837
38.6489
68.7863
111.55
166.268
231.015
303.631
382.74
468.698
564.348
677.609
821.988
1072.21
1316.29
1.91242
1.80438
1.73055
1.68144
1.64785
1.6248
1.60818
1.59716
1.59195
1.58949
1.58858
1.59022
1.59474
1.60017
1.60758
1.61639
1.62647
1.63804
1.65081
1.66496
1.6805
1.69749
1.71613
1.73643
1.75866
1.78286
1.80935
1.83825
1.8699
1598.09
1895.2
2091.76
2098.91
1857.93
1567.85
1303.97
1066.53
854.867
668.577
507.747
372.58
262.885
178.358
119.499
80.7012
55.2074
38.4487
27.3929
20.0607
15.0073
11.9521
10.2225
9.20809
8.72093
8.72169
9.28247
10.7411
14.0048
22.0163
47.8443
172.961
861.046
3735.5
2.02584
2.25883
2.69289
3.4047
4.92581
8.61876
17.0905
33.675
61.6511
102.893
156.888
221.428
293.764
371.763
454.796
544.643
646.112
771.334
939.821
1278.84
1621.69
1.88394
1.78799
1.72347
1.67948
1.64814
1.62481
1.60804
1.59782
1.59239
1.58951
1.58863
1.58966
1.59402
1.59934
1.60653
1.61533
1.62534
1.63689
1.64968
1.66384
1.67947
1.69655
1.71531
1.73572
1.75806
1.78239
1.80901
1.83803
1.86982
2080.13
2492.56
2703.81
2394.79
2010.18
1674.93
1382.64
1126.14
900.95
704.502
535.635
393.858
278.631
189.563
127.306
86.1113
58.9451
41.031
29.1814
21.3026
16.0169
12.7417
10.7729
9.60886
9.02633
8.96626
9.49826
10.9538
14.2871
22.5881
50.0585
184.788
903.513
3732.58
1.98703
2.19582
2.58372
3.21035
4.45108
7.45634
14.5417
29.0725
54.6094
93.85
146.964
211.524
284.147
361.913
443.357
529.142
623.041
732.509
876.205
1084.95
1590.85
2185.65
1.86116
1.77829
1.72096
1.6799
1.64815
1.62461
1.60895
1.59873
1.59285
1.58988
1.58878
1.58919
1.59327
1.59853
1.60547
1.61425
1.62419
1.63571
1.64854
1.66273
1.67847
1.69564
1.71451
1.73503
1.75749
1.78193
1.80868
1.83783
1.86976
2965.77
3691.51
3199.53
2634.96
2170.5
1788.15
1465.86
1189.17
949.649
742.509
565.228
416.542
295.519
201.659
135.784
92.0112
63.0318
43.857
31.1362
22.9111
17.2408
13.5493
11.3323
10.0146
9.33554
9.21635
9.72255
11.1875
14.6014
23.286
52.6023
198.027
947.519
3725.51
1.95575
2.14088
2.48664
3.04551
4.06587
6.49593
12.3425
24.8799
47.8715
84.6586
136.4
201.029
274.449
352.825
433.827
517.265
605.668
705.518
828.565
1004.58
1291.6
2206.37
3407.04
1.84777
1.77517
1.72151
1.67991
1.64788
1.6258
1.61052
1.59998
1.59381
1.59037
1.589
1.5889
1.5925
1.59775
1.60442
1.61315
1.62304
1.63451
1.64741
1.66166
1.6775
1.69477
1.71374
1.73436
1.75693
1.78149
1.80835
1.83763
1.86972
5165.15
4432.84
3546.92
2867.64
2333.36
1905.2
1552.5
1254.97
1000.57
782.33
596.347