/*--------------------------------*- C++ -*----------------------------------*\
  =========                 |
  \\      /  F ield         | OpenFOAM: The Open Source CFD Toolbox
   \\    /   O peration     | Website:  https://openfoam.org
    \\  /    A nd           | Version:  8
     \\/     M anipulation  |
\*---------------------------------------------------------------------------*/
FoamFile
{
    version     2.0;
    format      ascii;
    class       surfaceScalarField;
    location    "0.34";
    object      phi;
}
// * * * * * * * * * * * * * * * * * * * * * * * * * * * * * * * * * * * * * //

dimensions      [0 3 -1 0 0 0 0];

internalField   nonuniform List<scalar> 
31053
(
6.39897e-07
1.27401e-05
8.62662e-07
1.51572e-05
3.56962e-07
1.23831e-05
9.48032e-07
1.75546e-05
5.66653e-07
1.49475e-05
2.748e-07
1.21083e-05
9.724e-07
2.02156e-05
6.80862e-07
1.74404e-05
4.70123e-07
1.47522e-05
2.1629e-07
1.18921e-05
9.6343e-07
2.3249e-05
7.38987e-07
2.01575e-05
5.95428e-07
1.73151e-05
3.96087e-07
1.45724e-05
1.72013e-07
1.172e-05
9.33112e-07
2.66903e-05
7.63364e-07
2.32246e-05
6.69853e-07
2.00831e-05
5.22843e-07
1.71884e-05
3.32308e-07
1.44121e-05
1.37942e-07
1.15821e-05
8.87254e-07
3.06659e-05
7.65767e-07
2.66879e-05
7.11094e-07
2.31834e-05
6.03159e-07
2.00028e-05
4.54067e-07
1.70666e-05
2.78641e-07
1.42714e-05
1.11188e-07
1.14709e-05
8.29056e-07
3.51982e-05
7.52631e-07
3.0679e-05
7.30019e-07
2.6669e-05
6.50561e-07
2.31359e-05
5.34598e-07
1.99222e-05
3.9164e-07
1.69536e-05
2.32315e-07
1.41503e-05
8.90512e-08
1.13819e-05
7.62202e-07
4.03869e-05
7.27996e-07
3.52228e-05
7.33032e-07
3.0676e-05
6.75097e-07
2.66445e-05
5.82986e-07
2.30876e-05
4.68816e-07
1.98451e-05
3.33966e-07
1.68519e-05
1.90938e-07
1.40484e-05
6.97081e-08
1.13121e-05
6.89112e-07
4.63531e-05
6.93087e-07
4.04218e-05
7.23855e-07
3.5232e-05
6.82748e-07
3.06683e-05
6.08245e-07
2.66192e-05
5.15068e-07
2.30413e-05
4.04855e-07
1.97742e-05
2.79333e-07
1.67636e-05
1.52703e-07
1.39654e-05
5.20136e-08
1.12601e-05
6.11708e-07
5.32174e-05
6.49535e-07
4.63966e-05
7.02924e-07
4.04427e-05
6.76535e-07
3.52382e-05
6.16293e-07
3.06603e-05
5.38041e-07
2.65962e-05
4.46322e-07
2.29998e-05
3.41492e-07
1.9712e-05
2.26322e-07
1.66899e-05
1.16322e-07
1.39011e-05
3.51987e-08
1.12249e-05
5.32017e-07
6.10597e-05
5.99015e-07
5.32679e-05
6.70864e-07
4.64287e-05
6.59228e-07
4.046e-05
6.10519e-07
3.5244e-05
5.43499e-07
3.06548e-05
4.64461e-07
2.65781e-05
3.75859e-07
2.29655e-05
2.77543e-07
1.96608e-05
1.73838e-07
1.66324e-05
8.08666e-08
1.38554e-05
1.87565e-08
1.12062e-05
4.51978e-07
7.0062e-05
5.43024e-07
6.11157e-05
6.28669e-07
5.33101e-05
6.31645e-07
4.64563e-05
5.93118e-07
4.04774e-05
5.349e-07
3.52526e-05
4.64649e-07
3.06546e-05
3.86879e-07
2.65671e-05
3.0255e-07
2.29405e-05
2.12003e-07
1.96226e-05
1.21101e-07
1.65922e-05
4.56668e-08
1.38285e-05
2.50937e-09
1.12037e-05
3.73471e-07
8.04105e-05
4.82901e-07
7.01222e-05
5.77471e-07
6.11669e-05
5.93889e-07
5.33479e-05
5.65118e-07
4.64843e-05
5.14192e-07
4.04981e-05
4.50265e-07
3.5267e-05
3.7936e-07
3.06622e-05
3.04168e-07
2.65654e-05
2.2538e-07
2.29271e-05
1.44212e-07
1.95995e-05
6.75296e-08
1.65703e-05
1.03644e-08
1.38207e-05
-1.37308e-08
1.12174e-05
3.1025e-07
7.62532e-05
4.19787e-07
8.04736e-05
5.18613e-07
7.0181e-05
5.4626e-07
6.12145e-05
5.2677e-07
5.33862e-05
4.8234e-07
4.65161e-05
4.23161e-07
4.05252e-05
3.56512e-07
3.52898e-05
2.86516e-07
3.06798e-05
2.15269e-07
2.65756e-05
1.43705e-07
2.29276e-05
7.36909e-08
1.95934e-05
1.28166e-08
1.65679e-05
-2.52186e-08
1.38322e-05
-3.01259e-08
1.12475e-05
2.5639e-07
7.62439e-05
3.65462e-07
7.63075e-05
4.53649e-07
8.05386e-05
4.89423e-07
7.02379e-05
4.78155e-07
6.12631e-05
4.39658e-07
5.34289e-05
3.84203e-07
4.65551e-05
3.20085e-07
4.05616e-05
2.52544e-07
3.53238e-05
1.85003e-07
3.07101e-05
1.19494e-07
2.65998e-05
5.70661e-08
2.29442e-05
2.82371e-10
1.96059e-05
-4.31067e-08
1.65858e-05
-6.11925e-08
1.38632e-05
-4.66669e-08
1.12942e-05
2.10737e-07
7.62357e-05
3.16288e-07
7.6293e-05
3.95967e-07
7.63652e-05
4.24537e-07
8.06035e-05
4.1955e-07
7.02965e-05
3.86203e-07
6.13166e-05
3.33668e-07
5.34794e-05
2.70831e-07
4.66043e-05
2.03844e-07
4.06103e-05
1.3719e-07
3.53716e-05
7.4078e-08
3.07555e-05
1.63942e-08
2.66404e-05
-3.45825e-08
2.29791e-05
-7.5898e-08
1.96387e-05
-1.00162e-07
1.66247e-05
-9.74531e-08
1.3914e-05
-6.31816e-08
1.13574e-05
1.7219e-07
7.62305e-05
2.71816e-07
7.62801e-05
3.42385e-07
7.63466e-05
3.65304e-07
7.64245e-05
3.51779e-07
8.06712e-05
3.22093e-07
7.03606e-05
2.71606e-07
6.13786e-05
2.0894e-07
5.35413e-05
1.41031e-07
4.66672e-05
7.32045e-08
4.06743e-05
9.63972e-09
3.54361e-05
-4.67115e-08
3.08186e-05
-9.40173e-08
2.66999e-05
-1.30954e-07
2.30341e-05
-1.54528e-07
1.9693e-05
-1.58017e-07
1.66853e-05
-1.33708e-07
1.39845e-05
-7.95355e-08
1.14369e-05
1.39774e-07
7.62224e-05
2.31678e-07
7.62707e-05
2.92854e-07
7.63297e-05
3.09204e-07
7.64027e-05
2.89251e-07
7.6487e-05
2.47938e-07
8.07454e-05
1.981e-07
7.04341e-05
1.34426e-07
6.14532e-05
6.41662e-08
5.36182e-05
-6.5327e-09
4.67469e-05
-7.27347e-08
4.07567e-05
-1.30563e-07
3.55199e-05
-1.77301e-07
3.09019e-05
-2.11302e-07
2.67802e-05
-2.31474e-07
2.31111e-05
-2.34961e-07
1.977e-05
-2.16132e-07
1.67677e-05
-1.69593e-07
1.40746e-05
-9.54673e-08
1.15324e-05
1.12614e-07
7.62172e-05
1.95526e-07
7.62586e-05
2.47263e-07
7.63163e-05
2.56637e-07
7.63822e-05
2.2964e-07
7.64623e-05
1.79404e-07
7.65555e-05
1.13712e-07
8.08298e-05
4.73801e-08
7.05211e-05
-2.67905e-08
6.15441e-05
-1.02118e-07
5.37138e-05
-1.72869e-07
4.6847e-05
-2.34431e-07
4.08606e-05
-2.83303e-07
3.56259e-05
-3.17081e-07
3.10077e-05
-3.34643e-07
2.68834e-05
-3.35174e-07
2.32113e-05
-3.1629e-07
1.98701e-05
-2.73839e-07
1.6872e-05
-2.04621e-07
1.41838e-05
-1.10792e-07
1.16432e-05
8.99271e-08
7.62127e-05
1.63024e-07
7.62497e-05
2.05468e-07
7.63004e-05
2.07773e-07
7.63651e-05
1.73633e-07
7.64382e-05
1.14052e-07
7.65277e-05
3.60497e-08
7.66332e-05
-5.1561e-08
8.09287e-05
-1.3173e-07
7.06261e-05
-2.13674e-07
6.16557e-05
-2.91063e-07
5.3832e-05
-3.58439e-07
4.6971e-05
-4.11711e-07
4.0989e-05
-4.47776e-07
3.57566e-05
-4.65006e-07
3.1138e-05
-4.62752e-07
2.7011e-05
-4.40732e-07
2.33357e-05
-3.97461e-07
1.99938e-05
-3.30336e-07
1.69977e-05
-2.38297e-07
1.43113e-05
-1.25184e-07
1.17684e-05
7.25035e-08
6.95994e-05
1.33842e-07
7.62419e-05
1.67305e-07
7.62878e-05
1.62677e-07
7.63455e-05
1.21609e-07
7.64172e-05
5.28027e-08
7.64995e-05
-3.77206e-08
7.66014e-05
-1.41991e-07
7.67236e-05
-2.49873e-07
8.10469e-05
-3.41075e-07
7.07535e-05
-4.27551e-07
6.17922e-05
-5.03144e-07
5.39767e-05
-5.63019e-07
4.71223e-05
-6.03566e-07
4.11448e-05
-6.22705e-07
3.59143e-05
-6.19453e-07
3.12947e-05
-5.93875e-07
2.71641e-05
-5.46659e-07
2.34849e-05
-4.77256e-07
2.01407e-05
-3.84761e-07
1.71441e-05
-2.7001e-07
1.44561e-05
-1.38461e-07
1.19068e-05
5.91055e-08
6.25574e-05
1.09812e-07
6.96235e-05
1.32605e-07
7.62766e-05
1.2136e-07
7.63291e-05
7.37945e-08
7.63933e-05
-3.76169e-09
7.64737e-05
-1.06478e-07
7.65682e-05
-2.27388e-07
7.66868e-05
-3.57086e-07
7.68308e-05
-4.83353e-07
8.11891e-05
-5.82205e-07
7.09081e-05
-6.68929e-07
6.19579e-05
-7.38096e-07
5.41518e-05
-7.85378e-07
4.73042e-05
-8.08471e-07
4.13305e-05
-8.06105e-07
3.6101e-05
-7.78217e-07
3.14791e-05
-7.26074e-07
2.73435e-05
-6.51245e-07
2.36589e-05
-5.54373e-07
2.03103e-05
-4.36142e-07
1.73103e-05
-2.9928e-07
1.46169e-05
-1.50172e-07
1.2057e-05
4.86214e-08
5.62285e-05
9.01817e-08
6.2577e-05
1.03807e-07
6.96523e-05
8.38099e-08
7.63141e-05
3.03275e-08
7.63726e-05
-5.52587e-08
7.64448e-05
-1.69448e-07
7.65367e-05
-3.06447e-07
7.66473e-05
-4.57722e-07
7.67875e-05
-6.11669e-07
7.69591e-05
-7.5384e-07
8.13608e-05
-8.55685e-07
7.10949e-05
-9.3752e-07
6.21574e-05
-9.94459e-07
5.43608e-05
-1.02373e-06
4.75194e-05
-1.02406e-06
4.15485e-05
-9.95293e-07
3.6318e-05
-9.38882e-07
3.16919e-05
-8.57098e-07
2.75494e-05
-7.52691e-07
2.38573e-05
-6.27394e-07
2.05016e-05
-4.83645e-07
1.74946e-05
-3.25182e-07
1.47919e-05
-1.59562e-07
1.22165e-05
4.02906e-08
5.05403e-05
7.40249e-08
5.62446e-05
8.01877e-08
6.26006e-05
5.27956e-08
6.96833e-05
-8.69357e-09
7.63531e-05
-1.01427e-07
7.64188e-05
-2.26083e-07
7.65014e-05
-3.782e-07
7.66085e-05
-5.50285e-07
7.67399e-05
-7.31486e-07
7.69073e-05
-9.0789e-07
7.71132e-05
-1.062e-06
8.15671e-05
-1.16124e-06
7.13186e-05
-1.23164e-06
6.23945e-05
-1.27019e-06
5.46073e-05
-1.2753e-06
4.77707e-05
-1.24711e-06
4.18003e-05
-1.18734e-06
3.65665e-05
-1.09863e-06
3.19334e-05
-9.84623e-07
2.77813e-05
-8.49064e-07
2.40789e-05
-6.95072e-07
2.0713e-05
-5.25899e-07
1.76954e-05
-3.47071e-07
1.49794e-05
-1.66651e-07
1.23832e-05
3.35809e-08
4.54267e-05
6.06347e-08
5.05537e-05
6.07219e-08
5.62641e-05
2.75712e-08
6.26259e-05
-4.03933e-08
6.9715e-05
-1.4208e-07
7.63938e-05
-2.75998e-07
7.64687e-05
-4.41928e-07
7.65651e-05
-6.33604e-07
7.66918e-05
-8.41092e-07
7.68495e-05
-1.05116e-06
7.70506e-05
-1.24656e-06
7.72977e-05
-1.40763e-06
8.18135e-05
-1.49697e-06
7.15839e-05
-1.54897e-06
6.26733e-05
-1.56205e-06
5.4894e-05
-1.5363e-06
4.80599e-05
-1.47416e-06
4.20871e-05
-1.37882e-06
3.68467e-05
-1.25458e-06
3.22034e-05
-1.10615e-06
2.80384e-05
-9.38629e-07
2.43225e-05
-7.55586e-07
2.09427e-05
-5.62139e-07
1.79104e-05
-3.61551e-07
1.51743e-05
-1.32823e-07
1.2516e-05
2.81064e-08
4.08315e-05
4.94858e-08
4.54379e-05
4.45961e-08
5.05698e-05
7.01779e-09
5.62847e-05
-6.5665e-08
6.26511e-05
-1.74283e-07
6.97472e-05
-3.18919e-07
7.64367e-05
-4.97111e-07
7.65239e-05
-7.06771e-07
7.66383e-05
-9.3909e-07
7.67898e-05
-1.18169e-06
7.698e-05
-1.41773e-06
7.72217e-05
-1.62757e-06
7.75177e-05
-1.78866e-06
8.21052e-05
-1.86033e-06
7.18953e-05
-1.88584e-06
6.29971e-05
-1.86567e-06
5.52234e-05
-1.80268e-06
4.83884e-05
-1.70114e-06
4.24094e-05
-1.56624e-06
3.71583e-05
-1.40358e-06
3.25008e-05
-1.21938e-06
2.83191e-05
-1.01912e-06
2.4586e-05
-8.07761e-07
2.11883e-05
-5.87474e-07
1.81363e-05
-3.53091e-07
1.53946e-05
-8.24285e-08
1.25985e-05
2.35882e-08
3.67005e-05
4.01675e-08
4.08408e-05
3.11813e-08
4.54513e-05
-9.76298e-09
5.05866e-05
-8.57852e-08
5.63048e-05
-1.99176e-07
6.2676e-05
-3.51847e-07
6.97801e-05
-5.4337e-07
7.6483e-05
-7.69109e-07
7.65862e-05
-1.02436e-06
7.67236e-05
-1.29782e-06
7.69059e-05
-1.57327e-06
7.71355e-05
-1.83126e-06
7.74254e-05
-2.04877e-06
7.77778e-05
-2.20233e-06
8.24472e-05
-2.24719e-06
7.22566e-05
-2.23726e-06
6.33687e-05
-2.17638e-06
5.55971e-05
-2.06964e-06
4.87569e-05
-1.92383e-06
4.2767e-05
-1.74575e-06
3.75005e-05
-1.54279e-06
3.28242e-05
-1.32161e-06
2.86216e-05
-1.08885e-06
2.48671e-05
-8.46865e-07
2.14477e-05
-5.95019e-07
1.83783e-05
-3.25697e-07
1.56379e-05
-6.10254e-08
1.26595e-05
1.98216e-08
3.29898e-05
3.23361e-08
3.67083e-05
1.99896e-08
4.0852e-05
-2.35229e-08
4.5465e-05
-1.0179e-07
5.06026e-05
-2.18272e-07
5.63239e-05
-3.76267e-07
6.27005e-05
-5.77598e-07
6.98143e-05
-8.20116e-07
7.6534e-05
-1.09604e-06
7.66579e-05
-1.39819e-06
7.68239e-05
-1.71123e-06
7.70439e-05
-2.01612e-06
7.73204e-05
-2.28958e-06
7.76662e-05
-2.50733e-06
7.80828e-05
-2.64415e-06
8.28441e-05
-2.65193e-06
7.26713e-05
-2.59783e-06
6.37902e-05
-2.48852e-06
5.6016e-05
-2.33219e-06
4.91652e-05
-2.13766e-06
4.31589e-05
-1.91393e-06
3.78716e-05
-1.66903e-06
3.31716e-05
-1.41067e-06
2.89435e-05
-1.14363e-06
2.51639e-05
-8.68273e-07
2.17209e-05
-5.89515e-07
1.86421e-05
-3.00935e-07
1.58778e-05
-5.47217e-08
1.27142e-05
1.6652e-08
2.96512e-05
2.57173e-08
3.29964e-05
1.06144e-08
3.67177e-05
-3.48594e-08
4.08633e-05
-1.14518e-07
4.54778e-05
-2.32798e-07
5.06172e-05
-3.94018e-07
5.63416e-05
-6.01732e-07
6.27246e-05
-8.56496e-07
6.98507e-05
-1.15348e-06
7.65914e-05
-1.48173e-06
7.67414e-05
-1.82997e-06
7.69427e-05
-2.17985e-06
7.72076e-05
-2.50812e-06
7.75389e-05
-2.78986e-06
7.79488e-05
-2.99851e-06
7.84372e-05
-3.10781e-06
8.33e-05
-3.0684e-06
7.31419e-05
-2.96108e-06
6.42627e-05
-2.79636e-06
5.64802e-05
-2.58501e-06
4.96126e-05
-2.3386e-06
4.35836e-05
-2.06711e-06
3.82697e-05
-1.77965e-06
3.35406e-05
-1.48288e-06
2.92827e-05
-1.17987e-06
2.54755e-05
-8.77254e-07
2.20087e-05
-5.80229e-07
1.89214e-05
-2.86927e-07
1.611e-05
-5.8235e-08
1.27724e-05
1.39608e-08
2.66507e-05
2.00969e-08
2.96568e-05
2.72332e-09
3.30043e-05
-4.42197e-08
3.67271e-05
-1.24651e-07
4.08735e-05
-2.43741e-07
4.54887e-05
-4.06588e-07
5.06297e-05
-6.18037e-07
5.63579e-05
-8.80745e-07
6.27488e-05
-1.19309e-06
6.98903e-05
-1.54758e-06
7.66573e-05
-1.92812e-06
7.68396e-05
-2.32048e-06
7.70833e-05
-2.70171e-06
7.74012e-05
-3.04654e-06
7.77956e-05
-3.32724e-06
7.82775e-05
-3.51542e-06
7.88448e-05
-3.5865e-06
8.38181e-05
-3.4893e-06
7.36701e-05
-3.32043e-06
6.47868e-05
-3.09374e-06
5.69889e-05
-2.82339e-06
5.00974e-05
-2.52243e-06
4.40389e-05
-2.20218e-06
3.86923e-05
-1.87137e-06
3.39291e-05
-1.5354e-06
2.96382e-05
-1.20215e-06
2.58004e-05
-8.81052e-07
2.23095e-05
-5.7275e-07
1.92072e-05
-2.82188e-07
1.63339e-05
-8.00728e-08
1.28525e-05
1.16609e-08
2.39563e-05
1.53039e-08
2.66555e-05
-3.94695e-09
2.96635e-05
-5.19638e-08
3.3012e-05
-1.32724e-07
3.67352e-05
-2.51892e-07
4.08816e-05
-4.15168e-07
4.54973e-05
-6.28342e-07
5.064e-05
-8.95664e-07
5.63729e-05
-1.21803e-06
6.27738e-05
-1.59174e-06
6.99345e-05
-2.00463e-06
7.67338e-05
-2.43634e-06
7.69554e-05
-2.86795e-06
7.72496e-05
-3.27425e-06
7.76289e-05
-3.62648e-06
7.80948e-05
-3.89442e-06
7.86565e-05
-4.05081e-06
7.93091e-05
-4.07211e-06
8.44009e-05
-3.90723e-06
7.42569e-05
-3.66882e-06
6.53619e-05
-3.37515e-06
5.75406e-05
-3.04244e-06
5.06174e-05
-2.68556e-06
4.45223e-05
-2.31605e-06
3.91369e-05
-1.94188e-06
3.43356e-05
-1.57182e-06
3.00079e-05
-1.21679e-06
2.61361e-05
-8.83049e-07
2.26198e-05
-5.68259e-07
1.94933e-05
-3.47764e-07
1.66016e-05
-8.81825e-08
1.29407e-05
9.68841e-09
2.1534e-05
1.1199e-08
2.39604e-05
-9.60753e-09
2.66611e-05
-5.8389e-08
2.96699e-05
-1.39158e-07
3.30185e-05
-2.57878e-07
3.67411e-05
-4.20706e-07
4.08871e-05
-6.34109e-07
4.55031e-05
-9.03515e-07
5.06479e-05
-1.23176e-06
5.63866e-05
-1.61814e-06
6.28002e-05
-2.0549e-06
6.99847e-05
-2.52608e-06
7.68235e-05
-3.00484e-06
7.70923e-05
-3.47015e-06
7.74455e-05
-3.89262e-06
7.7895e-05
-4.24043e-06
7.84409e-05
-4.48383e-06
7.90895e-05
-4.59596e-06
7.98329e-05
-4.55631e-06
8.505e-05
-4.31401e-06
7.49021e-05
-3.99983e-06
6.59866e-05
-3.63495e-06
5.81331e-05
-3.23806e-06
5.11699e-05
-2.82489e-06
4.50312e-05
-2.40669e-06
3.96017e-05
-1.99376e-06
3.47575e-05
-1.59734e-06
3.03885e-05
-1.22656e-06
2.64796e-05
-8.8358e-07
2.29351e-05
-6.97619e-07
1.98431e-05
-3.46313e-07
1.68598e-05
-9.69068e-08
1.30376e-05
7.99234e-09
1.93537e-05
7.66973e-09
2.15375e-05
-1.44334e-08
2.39652e-05
-6.37374e-08
2.66665e-05
-1.44286e-07
2.9675e-05
-2.62194e-07
3.30228e-05
-4.23949e-07
3.67444e-05
-6.36493e-07
4.08895e-05
-9.06102e-07
4.55056e-05
-1.23706e-06
5.06532e-05
-1.63102e-06
5.63995e-05
-2.08373e-06
6.2829e-05
-2.5843e-06
7.00429e-05
-3.11068e-06
7.69294e-05
-3.63177e-06
7.7254e-05
-4.12233e-06
7.76752e-05
-4.5493e-06
7.82039e-05
-4.88065e-06
7.88377e-05
-5.08624e-06
7.95798e-05
-5.14173e-06
8.04183e-05
-5.02981e-06
8.57658e-05
-4.70231e-06
7.56046e-05
-4.30698e-06
6.66586e-05
-3.86844e-06
5.87635e-05
-3.40693e-06
5.17519e-05
-2.93844e-06
4.55629e-05
-2.47579e-06
4.00838e-05
-2.03112e-06
3.51913e-05
-1.61436e-06
3.07763e-05
-1.23163e-06
2.68277e-05
-1.08881e-06
2.33263e-05
-6.87535e-07
2.01844e-05
-3.45188e-07
1.7108e-05
-1.03563e-07
1.31412e-05
1.73975e-05
6.531e-09
4.6241e-09
1.93567e-05
-1.85675e-08
2.15416e-05
-6.8206e-08
2.39697e-05
-1.48371e-07
2.66706e-05
-2.65228e-07
2.9678e-05
-4.25483e-07
3.30243e-05
-6.36399e-07
3.67443e-05
-9.04843e-07
4.08883e-05
-1.23617e-06
4.55047e-05
-1.63379e-06
5.0656e-05
-2.09627e-06
5.6412e-05
-2.61679e-06
6.28615e-05
-3.17902e-06
7.01113e-05
-3.75699e-06
7.70546e-05
-4.31263e-06
7.74443e-05
-4.81711e-06
7.7943e-05
-5.23652e-06
7.85598e-05
-5.53753e-06
7.9289e-05
-5.6919e-06
8.013e-05
-5.67792e-06
8.10665e-05
-5.48426e-06
8.65478e-05
-5.06466e-06
7.63622e-05
-4.58483e-06
6.7375e-05
-4.0719e-06
5.94285e-05
-3.54691e-06
5.23604e-05
-3.02705e-06
4.61142e-05
-2.52641e-06
4.05791e-05
-2.05596e-06
3.56329e-05
-1.6232e-06
3.11678e-05
-1.52097e-06
2.72598e-05
-1.07324e-06
2.3712e-05
-6.75161e-07
2.05143e-05
-3.4198e-07
1.73465e-05
-1.07791e-07
1.3249e-05
1.74001e-05
1.98381e-09
2.78122e-05
4.3196e-09
-2.21253e-08
1.93603e-05
-7.19538e-08
2.15454e-05
-1.51627e-07
2.3973e-05
-2.6728e-07
2.66726e-05
-4.25763e-07
2.96783e-05
-6.3453e-07
3.30224e-05
-9.00845e-07
3.67403e-05
-1.23082e-06
4.08829e-05
-1.6292e-06
4.55001e-05
-2.09667e-06
5.06564e-05
-2.62973e-06
5.64249e-05
-3.2167e-06
6.28992e-05
-3.83803e-06
7.01923e-05
-4.4609e-06
7.72029e-05
-5.04032e-06
7.76675e-05
-5.54688e-06
7.82533e-05
-5.94446e-06
7.89667e-05
-6.20086e-06
7.97979e-05
-6.28981e-06
8.07419e-05
-6.1953e-06
8.17775e-05
-5.91109e-06
8.73942e-05
-5.39472e-06
7.71721e-05
-4.82907e-06
6.81321e-05
-4.24278e-06
6.01244e-05
-3.65803e-06
5.29914e-05
-3.09285e-06
4.66806e-05
-2.56016e-06
4.10833e-05
-2.06879e-06
3.60785e-05
-2.00602e-06
3.16529e-05
-1.50073e-06
2.76873e-05
-1.05111e-06
2.4088e-05
-6.5912e-07
2.08315e-05
-3.35996e-07
1.75747e-05
-1.09646e-07
1.33586e-05
1.74032e-05
-2.51984e-08
2.78161e-05
-1.92498e-09
2.85521e-05
2.22581e-09
-7.51096e-08
1.93635e-05
-1.5422e-07
2.1548e-05
-2.68589e-07
2.39743e-05
-4.25141e-07
2.6672e-05
-6.31429e-07
2.96752e-05
-8.94961e-07
3.30166e-05
-1.22237e-06
3.67318e-05
-1.61936e-06
4.08731e-05
-2.08826e-06
4.54917e-05
-2.62811e-06
5.06548e-05
-3.23105e-06
5.64393e-05
-3.88284e-06
6.2944e-05
-4.55766e-06
7.02891e-05
-5.2157e-06
7.73782e-05
-5.80752e-06
7.79281e-05
-6.30177e-06
7.86107e-05
-6.6626e-06
7.94284e-05
-6.85899e-06
8.03671e-05
-6.86995e-06
8.14165e-05
-6.68427e-06
8.25507e-05
-6.30289e-06
8.83024e-05
-5.68739e-06
7.80304e-05
-5.03649e-06
6.89259e-05
-4.3803e-06
6.08466e-05
-3.74155e-06
5.36401e-05
-3.13706e-06
4.72575e-05
-2.57769e-06
4.15922e-05
-2.55754e-06
3.663e-05
-1.98004e-06
3.21322e-05
-1.46939e-06
2.81056e-05
-1.02238e-06
2.44512e-05
-6.39131e-07
2.11346e-05
-3.27251e-07
1.77923e-05
-1.09441e-07
1.3468e-05
1.74058e-05
-7.77794e-08
2.78201e-05
-2.92282e-08
2.85558e-05
-5.6702e-09
2.9312e-05
2.44123e-10
-1.56286e-07
1.93655e-05
-2.69337e-07
2.15487e-05
-4.23885e-07
2.3973e-05
-6.27509e-07
2.66681e-05
-8.87847e-07
2.96681e-05
-1.21187e-06
3.30061e-05
-1.60595e-06
3.67184e-05
-2.07364e-06
4.08585e-05
-2.61592e-06
4.54796e-05
-3.228e-06
5.06517e-05
-3.89997e-06
5.64564e-05
-4.61196e-06
6.29983e-05
-5.33165e-06
7.0405e-05
-6.01452e-06
7.75852e-05
-6.60452e-06
7.82308e-05
-7.07117e-06
7.90192e-05
-7.37886e-06
7.99483e-05
-7.50125e-06
8.09984e-05
-7.42175e-06
8.2154e-05
-7.13641e-06
8.33842e-05
-6.65354e-06
8.92685e-05
-5.93861e-06
7.89326e-05
-5.20552e-06
6.97511e-05
-4.48497e-06
6.159e-05
-3.79835e-06
5.43014e-05
-3.16043e-06
4.78402e-05
-3.1877e-06
4.22223e-05
-2.52472e-06
3.71747e-05
-1.93845e-06
3.26013e-05
-1.42802e-06
2.85112e-05
-9.87657e-07
2.47997e-05
-6.1559e-07
2.14229e-05
-3.16093e-07
1.79989e-05
-1.07578e-07
1.35756e-05
1.74075e-05
-1.57931e-07
2.78226e-05
-8.02414e-08
2.85596e-05
-3.30353e-08
2.93156e-05
-9.24149e-09
3.00899e-05
-1.62724e-09
-2.6967e-07
1.93659e-05
-4.22202e-07
2.1547e-05
-6.23083e-07
2.39686e-05
-8.79997e-07
2.66602e-05
-1.2001e-06
2.96563e-05
-1.59024e-06
3.29903e-05
-2.05482e-06
3.66996e-05
-2.59633e-06
4.08389e-05
-3.21232e-06
4.54639e-05
-3.89642e-06
5.06482e-05
-4.63369e-06
5.64781e-05
-5.39831e-06
6.3065e-05
-6.15368e-06
7.05442e-05
-6.848e-06
7.78287e-05
-7.4208e-06
7.85805e-05
-7.8427e-06
7.94831e-05
-8.08202e-06
8.05291e-05
-8.11621e-06
8.16929e-05
-7.93582e-06
8.29534e-05
-7.54455e-06
8.42752e-05
-6.9579e-06
9.02878e-05
-6.14591e-06
7.9873e-05
-5.33594e-06
7.0602e-05
-4.55727e-06
6.2349e-05
-3.82922e-06
5.49702e-05
-3.91004e-06
4.85626e-05
-3.1474e-06
4.2845e-05
-2.47142e-06
3.77076e-05
-1.88325e-06
3.30565e-05
-1.37806e-06
2.89016e-05
-9.47995e-07
2.51321e-05
-5.89165e-07
2.1696e-05
-3.03035e-07
1.81944e-05
-1.04447e-07
1.36801e-05
1.74075e-05
-2.69696e-07
2.78219e-05
-1.57267e-07
2.85618e-05
-8.24091e-08
2.93191e-05
-3.66041e-08
3.00933e-05
-1.2635e-08
3.08898e-05
-3.38351e-09
-4.20248e-07
1.93639e-05
-6.18386e-07
2.15423e-05
-8.71779e-07
2.39604e-05
-1.18768e-06
2.66478e-05
-1.5732e-06
2.96393e-05
-2.03337e-06
3.29689e-05
-2.57177e-06
3.66751e-05
-3.18777e-06
4.08143e-05
-3.87781e-06
4.54453e-05
-4.63097e-06
5.06454e-05
-5.42696e-06
5.65068e-05
-6.23613e-06
6.31474e-05
-7.01485e-06
7.07111e-05
-7.70591e-06
7.81138e-05
-8.24391e-06
7.89817e-05
-8.60483e-06
8.00059e-05
-8.75994e-06
8.11728e-05
-8.69353e-06
8.24506e-05
-8.40395e-06
8.38128e-05
-7.90254e-06
8.52198e-05
-7.2125e-06
9.13544e-05
-6.30831e-06
8.08453e-05
-5.42779e-06
7.14726e-05
-4.59801e-06
6.31178e-05
-4.74025e-06
5.58004e-05
-3.86196e-06
4.92771e-05
-3.08111e-06
4.34547e-05
-2.4006e-06
3.8225e-05
-1.81667e-06
3.34951e-05
-1.32133e-06
2.9275e-05
-9.04606e-07
2.54476e-05
-5.60646e-07
2.19536e-05
-2.88603e-07
1.83785e-05
-1.00391e-07
1.37805e-05
1.74054e-05
-4.1814e-07
2.78165e-05
-2.64273e-07
2.85607e-05
-1.56191e-07
2.9321e-05
-8.42716e-08
3.00966e-05
-3.99281e-08
3.0893e-05
-1.58562e-08
3.17096e-05
-5.02013e-09
-6.13592e-07
1.93591e-05
-8.63466e-07
2.1534e-05
-1.17503e-06
2.39477e-05
-1.55555e-06
2.66302e-05
-2.01045e-06
2.96164e-05
-2.54411e-06
3.29412e-05
-3.15729e-06
3.66446e-05
-3.84859e-06
4.07851e-05
-4.61037e-06
4.54247e-05
-5.4269e-06
5.06454e-05
-6.27456e-06
5.65452e-05
-7.11707e-06
6.32496e-05
-7.90537e-06
7.09105e-05
-8.57596e-06
7.84459e-05
-9.06219e-06
7.9439e-05
-9.34483e-06
8.05908e-05
-9.40146e-06
8.18807e-05
-9.22409e-06
8.32707e-05
-8.81896e-06
8.47292e-05
-8.2059e-06
8.62133e-05
-7.41547e-06
9.24616e-05
-6.42532e-06
8.18429e-05
-5.48178e-06
7.23563e-05
-5.69644e-06
6.40739e-05
-4.68452e-06
5.66229e-05
-3.78158e-06
4.99776e-05
-2.99283e-06
4.40469e-05
-2.31535e-06
3.87237e-05
-1.74126e-06
3.3915e-05
-1.25966e-06
2.963e-05
-8.58708e-07
2.57456e-05
-5.30797e-07
2.21958e-05
-2.73289e-07
1.85514e-05
-9.57068e-08
1.38762e-05
1.74006e-05
-6.08826e-07
2.78046e-05
-4.06215e-07
2.85548e-05
-2.58345e-07
2.93195e-05
-1.54732e-07
3.00981e-05
-8.58202e-08
3.0896e-05
-4.30001e-08
3.17127e-05
-1.89053e-08
3.25535e-05
-6.54094e-09
-8.55257e-07
1.93509e-05
-1.16248e-06
2.15215e-05
-1.53782e-06
2.393e-05
-1.98695e-06
2.66067e-05
-2.51479e-06
2.95871e-05
-3.12313e-06
3.29071e-05
-3.81225e-06
3.66082e-05
-4.5771e-06
4.07518e-05
-5.4057e-06
4.54035e-05
-6.27952e-06
5.06503e-05
-7.16875e-06
5.65969e-05
-8.03188e-06
6.33761e-05
-8.81331e-06
7.11479e-05
-9.44654e-06
7.88302e-05
-9.86252e-06
7.99567e-05
-1.00509e-05
8.12402e-05
-9.99655e-06
8.26532e-05
-9.69961e-06
8.41514e-05
-9.17539e-06
8.56987e-05
-8.45199e-06
8.72498e-05
-7.56574e-06
9.3602e-05
-6.49746e-06
8.28585e-05
-6.79834e-06
7.34582e-05
-5.63389e-06
6.50233e-05
-4.5892e-06
5.74306e-05
-3.67401e-06
5.06588e-05
-2.88661e-06
4.46182e-05
-2.219e-06
3.92014e-05
-1.65952e-06
3.43149e-05
-1.19481e-06
2.99661e-05
-8.11393e-07
2.60262e-05
-5.00309e-07
2.24228e-05
-2.57538e-07
1.87133e-05
-9.06275e-08
1.39668e-05
1.73927e-05
-8.47288e-07
2.77842e-05
-5.88439e-07
2.85422e-05
-3.93603e-07
2.9313e-05
-2.51847e-07
3.00963e-05
-1.52845e-07
3.08973e-05
-8.70517e-08
3.17155e-05
-4.58176e-08
3.25564e-05
-2.1776e-08
3.34194e-05
-7.94689e-09
-1.15026e-06
1.93387e-05
-1.52039e-06
2.15041e-05
-1.9635e-06
2.39065e-05
-2.48486e-06
2.65767e-05
-3.087e-06
2.95509e-05
-3.77147e-06
3.28663e-05
-4.53525e-06
3.65664e-05
-5.36941e-06
4.07155e-05
-6.25964e-06
4.53836e-05
-7.18169e-06
5.06633e-05
-8.10085e-06
5.66659e-05
-8.96909e-06
6.35319e-05
-9.72732e-06
7.14287e-05
-1.03044e-05
7.92721e-05
-1.06326e-05
8.05384e-05
-1.07121e-05
8.19557e-05
-1.05359e-05
8.34895e-05
-1.01136e-05
8.50896e-05
-9.46972e-06
8.67164e-05
-8.63909e-06
8.83231e-05
-7.66345e-06
9.4768e-05
-8.06893e-06
8.41291e-05
-6.73082e-06
7.45552e-05
-5.52314e-06
6.59573e-05
-4.46055e-06
5.82171e-05
-3.54437e-06
5.13165e-05
-2.76667e-06
4.51659e-05
-2.11475e-06
3.96566e-05
-1.57376e-06
3.46938e-05
-1.12826e-06
3.0283e-05
-7.6362e-07
2.62896e-05
-4.69793e-07
2.26351e-05
-2.41683e-07
1.88643e-05
-8.53523e-08
1.40521e-05
1.73809e-05
-1.13852e-06
2.77531e-05
-8.16142e-07
2.8521e-05
-5.67209e-07
2.92998e-05
-3.80353e-07
3.00893e-05
-2.44877e-07
3.0895e-05
-1.5056e-07
3.17164e-05
-8.79559e-08
3.25589e-05
-4.83726e-08
3.34221e-05
-2.44691e-08
3.43053e-05
-9.24095e-09
-1.50355e-06
1.93218e-05
-1.94057e-06
2.14811e-05
-2.4551e-06
2.38768e-05
-3.05018e-06
2.65399e-05
-3.72829e-06
2.95078e-05
-4.488e-06
3.2819e-05
-5.3228e-06
3.65198e-05
-6.22185e-06
4.06778e-05
-7.1656e-06
4.53675e-05
-8.12532e-06
5.06877e-05
-9.05995e-06
5.67567e-05
-9.91776e-06
6.37224e-05
-1.06342e-05
7.17585e-05
-1.11369e-05
7.97764e-05
-1.13608e-05
8.11871e-05
-1.13182e-05
8.27381e-05
-1.1012e-05
8.43879e-05
-1.04616e-05
8.60815e-05
-9.69938e-06
8.77767e-05
-8.76682e-06
8.94265e-05
-9.53463e-06
9.62337e-05
-8.00035e-06
8.53987e-05
-6.60499e-06
7.5637e-05
-5.37175e-06
6.68685e-05
-4.30487e-06
5.89776e-05
-3.39785e-06
5.19477e-05
-2.63696e-06
4.56881e-05
-2.0055e-06
4.00884e-05
-1.48594e-06
3.50515e-05
-1.06135e-06
3.05807e-05
-7.16222e-07
2.6536e-05
-4.39683e-07
2.28331e-05
-2.26024e-07
1.9005e-05
-8.00298e-08
1.41322e-05
1.73648e-05
-1.48745e-06
2.77088e-05
-1.09429e-06
2.84888e-05
-7.83948e-07
2.92776e-05
-5.4508e-07
3.00753e-05
-3.664e-07
3.08875e-05
-2.37369e-07
3.17137e-05
-1.47861e-07
3.25595e-05
-8.85505e-08
3.34244e-05
-5.06752e-08
3.43078e-05
-2.69814e-08
3.52192e-05
-1.04269e-08
-1.91848e-06
1.92997e-05
-2.42606e-06
2.14521e-05
-3.0136e-06
2.38402e-05
-3.68425e-06
2.64959e-05
-4.43778e-06
2.94575e-05
-5.26959e-06
3.27658e-05
-6.17167e-06
3.64696e-05
-7.12838e-06
4.06405e-05
-8.11612e-06
4.53583e-05
-9.1001e-06
5.07279e-05
-1.00356e-05
5.68745e-05
-1.08649e-05
6.39531e-05
-1.15212e-05
7.21428e-05
-1.19319e-05
8.03475e-05
-1.2036e-05
8.19049e-05
-1.18608e-05
8.35868e-05
-1.14194e-05
8.53457e-05
-1.07402e-05
8.71223e-05
-9.8634e-06
8.88733e-05
-1.09298e-05
9.08217e-05
-9.47263e-06
9.7706e-05
-7.86161e-06
8.66553e-05
-6.42983e-06
7.66951e-05
-5.18735e-06
6.77509e-05
-4.12849e-06
5.97082e-05
-3.23932e-06
5.25501e-05
-2.5011e-06
4.61837e-05
-1.89375e-06
4.04962e-05
-1.39777e-06
3.53879e-05
-9.95165e-07
3.08597e-05
-6.69771e-07
2.67661e-05
-4.1038e-07
2.30175e-05
-2.10777e-07
1.91357e-05
-7.47653e-08
1.42069e-05
1.73438e-05
-1.89744e-06
2.76486e-05
-1.4272e-06
2.84432e-05
-1.04876e-06
2.92445e-05
-7.50754e-07
3.00524e-05
-5.22125e-07
3.08729e-05
-3.51816e-07
3.17057e-05
-2.29367e-07
3.25564e-05
-1.44757e-07
3.34247e-05
-8.88151e-08
3.43098e-05
-5.27158e-08
3.52215e-05
-2.93123e-08
3.61551e-05
-1.15062e-08
-2.39813e-06
1.92718e-05
-2.97794e-06
2.14164e-05
-3.64046e-06
2.37964e-05
-4.3864e-06
2.64445e-05
-5.21264e-06
2.94006e-05
-6.1134e-06
3.27076e-05
-7.07631e-06
3.64175e-05
-8.08209e-06
4.06065e-05
-9.10147e-06
4.53597e-05
-1.00961e-05
5.07884e-05
-1.10152e-05
5.70248e-05
-1.1798e-05
6.42299e-05
-1.2376e-05
7.25869e-05
-1.26776e-05
8.09891e-05
-1.26489e-05
8.2693e-05
-1.23333e-05
8.45007e-05
-1.17537e-05
8.63592e-05
-1.09476e-05
8.82065e-05
-1.23259e-05
9.02694e-05
-1.08831e-05
9.22321e-05
-9.32631e-06
9.91707e-05
-7.66328e-06
8.78887e-05
-6.21448e-06
7.77222e-05
-4.9776e-06
6.86e-05
-3.9373e-06
6.04062e-05
-3.07317e-06
5.31222e-05
-2.36214e-06
4.66521e-05
-1.78161e-06
4.088e-05
-1.31067e-06
3.57035e-05
-9.30467e-07
3.11204e-05
-6.24796e-07
2.69805e-05
-3.82165e-07
2.31888e-05
-1.96086e-07
1.9257e-05
-6.96414e-08
1.42766e-05
1.73172e-05
-2.37157e-06
2.75693e-05
-1.81812e-06
2.83813e-05
-1.36524e-06
2.91974e-05
-1.00171e-06
3.0018e-05
-7.16386e-07
3.08491e-05
-4.98337e-07
3.16905e-05
-3.3663e-07
3.25479e-05
-2.20878e-07
3.34212e-05
-1.41263e-07
3.43098e-05
-8.87676e-08
3.52233e-05
-5.45029e-08
3.61572e-05
-3.14652e-08
3.6589e-05
-1.24685e-08
-2.94365e-06
1.92375e-05
-3.59774e-06
2.13737e-05
-4.33521e-06
2.37452e-05
-5.15409e-06
2.63859e-05
-6.05037e-06
2.93376e-05
-7.01434e-06
3.26456e-05
-8.03036e-06
3.63658e-05
-9.07389e-06
4.05789e-05
-1.01124e-05
4.53759e-05
-1.11013e-05
5.08745e-05
-1.19864e-05
5.72133e-05
-1.27044e-05
6.45583e-05
-1.31863e-05
7.30955e-05
-1.33639e-05
8.17041e-05
-1.31919e-05
8.35516e-05
-1.27303e-05
8.54773e-05
-1.20122e-05
8.74238e-05
-1.37174e-05
8.95979e-05
-1.23049e-05
9.16913e-05
-1.07382e-05
9.3644e-05
-9.10771e-06
0.000100615
-7.41593e-06
8.90902e-05
-5.9681e-06
7.87127e-05
-4.74958e-06
6.94123e-05
-3.73665e-06
6.10697e-05
-2.90316e-06
5.36632e-05
-2.2227e-06
4.70932e-05
-1.67087e-06
4.12402e-05
-1.22559e-06
3.59986e-05
-8.6794e-07
3.13635e-05
-5.81657e-07
2.718e-05
-3.55203e-07
2.3348e-05
-1.8206e-07
1.93695e-05
-6.47191e-08
1.43413e-05
1.72846e-05
-2.91104e-06
2.74676e-05
-2.26993e-06
2.83003e-05
-1.73712e-06
2.9134e-05
-1.30179e-06
2.99698e-05
-9.53478e-07
3.08138e-05
-6.81117e-07
3.1666e-05
-4.73767e-07
3.25321e-05
-3.20815e-07
3.34122e-05
-2.11911e-07
3.43059e-05
-1.3739e-07
3.52229e-05
-8.84088e-08
3.61588e-05
-5.60387e-08
3.65909e-05
-3.34143e-08
3.55528e-05
-1.32901e-08
-3.55664e-06
1.91964e-05
-4.28517e-06
2.13237e-05
-5.09553e-06
2.36867e-05
-5.98512e-06
2.63207e-05
-6.94634e-06
2.92696e-05
-7.96657e-06
3.25818e-05
-9.02531e-06
3.63172e-05
-1.0095e-05
4.05616e-05
-1.11372e-05
4.54117e-05
-1.21036e-05
5.09917e-05
-1.29368e-05
5.74457e-05
-1.35718e-05
6.49439e-05
-1.39412e-05
7.36728e-05
-1.39822e-05
8.24944e-05
-1.36586e-05
8.44799e-05
-1.30482e-05
8.65133e-05
-1.50966e-05
8.8803e-05
-1.37345e-05
9.10275e-05
-1.21719e-05
9.3125e-05
-1.05085e-05
9.50448e-05
-8.82904e-06
0.000102028
-7.13024e-06
9.02523e-05
-5.69913e-06
7.96623e-05
-4.50977e-06
7.01854e-05
-3.53111e-06
6.16976e-05
-2.73247e-06
5.41729e-05
-2.085e-06
4.75073e-05
-1.56273e-06
4.15773e-05
-1.14342e-06
3.62741e-05
-8.08053e-07
3.15899e-05
-5.40553e-07
2.73653e-05
-3.29623e-07
2.34955e-05
-1.68779e-07
1.94735e-05
-6.00353e-08
1.44013e-05
1.72455e-05
-3.51755e-06
2.7341e-05
-2.78443e-06
2.81968e-05
-2.16641e-06
2.90508e-05
-1.65399e-06
2.99048e-05
-1.23682e-06
3.07644e-05
-9.03998e-07
3.16297e-05
-6.44876e-07
3.25069e-05
-4.48531e-07
3.33959e-05
-3.04484e-07
3.42965e-05
-2.02517e-07
3.52187e-05
-1.33152e-07
3.61581e-05
-8.77414e-08
3.65922e-05
-5.73284e-08
3.55545e-05
-3.51097e-08
3.45447e-05
-1.39903e-08
-4.23698e-06
1.91482e-05