/*--------------------------------*- C++ -*----------------------------------*\
  =========                 |
  \\      /  F ield         | OpenFOAM: The Open Source CFD Toolbox
   \\    /   O peration     | Website:  https://openfoam.org
    \\  /    A nd           | Version:  8
     \\/     M anipulation  |
\*---------------------------------------------------------------------------*/
FoamFile
{
    version     2.0;
    format      ascii;
    class       volVectorField;
    location    "0.48";
    object      U;
}
// * * * * * * * * * * * * * * * * * * * * * * * * * * * * * * * * * * * * * //

dimensions      [0 1 -1 0 0 0 0];

internalField   nonuniform List<vector> 
15677
(
(-0.0399015 9.66595 0)
(0.0484951 9.92199 0)
(-0.00181361 9.37829 0)
(0.0206524 9.97702 0)
(0.0198921 9.78866 0)
(0.00731344 9.14125 0)
(0.0258391 9.99515 0)
(0.0165373 9.92467 0)
(0.0111792 9.65398 0)
(0.00649142 8.96067 0)
(0.0263309 10.0025 0)
(0.0205524 9.97871 0)
(0.0165508 9.85203 0)
(0.00912489 9.53081 0)
(0.00515967 8.81703 0)
(0.0255703 10.0057 0)
(0.0215844 10.003 0)
(0.019406 9.94152 0)
(0.0153647 9.77951 0)
(0.00798034 9.41984 0)
(0.00424042 8.70238 0)
(0.0245088 10.0071 0)
(0.021866 10.0147 0)
(0.0210022 9.98479 0)
(0.0182522 9.90244 0)
(0.0138545 9.70811 0)
(0.00692499 9.32158 0)
(0.0035448 8.6102 0)
(0.0230971 10.0075 0)
(0.0217423 10.0205 0)
(0.0218693 10.0069 0)
(0.0201984 9.96497 0)
(0.0169613 9.86193 0)
(0.0124416 9.64084 0)
(0.00596837 9.23644 0)
(0.00295852 8.53618 0)
(0.0214091 10.0074 0)
(0.0211909 10.0233 0)
(0.0221524 10.0184 0)
(0.0212878 9.99809 0)
(0.0190529 9.94371 0)
(0.0156075 9.82229 0)
(0.0110787 9.57967 0)
(0.00507672 9.16417 0)
(0.00241864 8.47764 0)
(0.019516 10.007 0)
(0.0203303 10.0235 0)
(0.0221096 10.0241 0)
(0.0217801 10.0162 0)
(0.020216 9.98815 0)
(0.0177196 9.92276 0)
(0.0141424 9.78538 0)
(0.00968518 9.52576 0)
(0.00419844 9.10456 0)
(0.00188705 8.43312 0)
(0.0175006 10.0063 0)
(0.019274 10.0223 0)
(0.0216662 10.0271 0)
(0.0218022 10.0261 0)
(0.0207466 10.0131 0)
(0.0188608 9.97856 0)
(0.0161735 9.9036 0)
(0.0125184 9.75243 0)
(0.00820304 9.48011 0)
(0.00328812 9.05742 0)
(0.00133465 8.40164 0)
(0.0153992 10.0056 0)
(0.0179647 10.0206 0)
(0.0209335 10.0281 0)
(0.0214559 10.0315 0)
(0.0207796 10.0273 0)
(0.0193183 10.0103 0)
(0.0171869 9.97058 0)
(0.0143571 9.88721 0)
(0.0106802 9.7246 0)
(0.00658163 9.44351 0)
(0.00230415 9.02271 0)
(0.000738856 8.38291 0)
(0.0132621 10.0048 0)
(0.0164815 10.0185 0)
(0.0198587 10.0274 0)
(0.0207809 10.034 0)
(0.0203988 10.0354 0)
(0.0192398 10.0289 0)
(0.0174607 10.0092 0)
(0.0151312 9.96505 0)
(0.0121981 9.87461 0)
(0.00856606 9.70299 0)
(0.00476975 9.41669 0)
(0.00121228 9.00046 0)
(5.62259e-05 8.37671 0)
(0.01116 10.0041 0)
(0.0148849 10.0162 0)
(0.0185075 10.0258 0)
(0.0197952 10.0345 0)
(0.0196641 10.0396 0)
(0.0187129 10.0396 0)
(0.0171476 10.0319 0)
(0.0151036 10.0103 0)
(0.0126065 9.96285 0)
(0.0096168 9.8668 0)
(0.00611165 9.68865 0)
(0.00272039 9.40032 0)
(-1.56817e-05 8.99084 0)
(-0.000614512 8.38302 0)
(0.00927066 10.0034 0)
(0.0131862 10.014 0)
(0.0169187 10.0235 0)
(0.0184998 10.0334 0)
(0.018591 10.0412 0)
(0.017787 10.0456 0)
(0.0163381 10.0453 0)
(0.0144246 10.0371 0)
(0.0121416 10.0146 0)
(0.00951206 9.96486 0)
(0.00652966 9.86477 0)
(0.00325659 9.68254 0)
(0.000396054 9.39503 0)
(-0.00137915 8.99418 0)
(-0.00140289 8.40197 0)
(0.00772524 10.0029 0)
(0.011623 10.0119 0)
(0.0151319 10.0209 0)
(0.0169088 10.0313 0)
(0.01718 10.0409 0)
(0.016481 10.0483 0)
(0.0150772 10.053 0)
(0.0131856 10.0531 0)
(0.0109464 10.0453 0)
(0.00845147 10.0228 0)
(0.00574093 9.97199 0)
(0.00285518 9.86951 0)
(-6.34463e-05 9.68562 0)
(-0.00226222 9.40146 0)
(-0.00294214 9.01063 0)
(-0.00229289 8.43383 0)
(0.00641377 10.0024 0)
(0.0102306 10.0102 0)
(0.0133928 10.0184 0)
(0.0150523 10.0286 0)
(0.0154353 10.0392 0)
(0.0147985 10.0488 0)
(0.0133828 10.0569 0)
(0.0114291 10.0624 0)
(0.00911052 10.0638 0)
(0.00656563 10.0573 0)
(0.00390111 10.0358 0)
(0.00118772 9.98517 0)
(-0.00148273 9.88201 0)
(-0.0038851 9.69876 0)
(-0.00526898 9.42014 0)
(-0.00469721 9.04044 0)
(-0.00328092 8.47868 0)
(0.00530938 10.002 0)
(0.00897418 10.0087 0)
(0.011814 10.0162 0)
(0.0131747 10.0257 0)
(0.0133739 10.0364 0)
(0.0127404 10.0475 0)
(0.0112583 10.058 0)
(0.00916935 10.0674 0)
(0.0066721 10.0747 0)
(0.00393826 10.0781 0)
(0.00112241 10.074 0)
(-0.00164228 10.0545 0)
(-0.0042502 10.0053 0)
(-0.00655828 9.9032 0)
(-0.00826565 9.72274 0)
(-0.00865186 9.45149 0)
(-0.0066494 9.08371 0)
(-0.00436187 8.53656 0)
(0.00438538 10.0016 0)
(0.00784185 10.0074 0)
(0.010356 10.0143 0)
(0.0114359 10.0231 0)
(0.0112581 10.0333 0)
(0.0103159 10.0448 0)
(0.0087036 10.0571 0)
(0.0064068 10.0691 0)
(0.00363982 10.0805 0)
(0.00060037 10.0904 0)
(-0.00252181 10.0969 0)
(-0.00554591 10.096 0)
(-0.00830733 10.0797 0)
(-0.0106653 10.0333 0)
(-0.0124286 9.93393 0)
(-0.0132348 9.7582 0)
(-0.0124278 9.49581 0)
(-0.00880379 9.14053 0)
(-0.00553424 8.60734 0)
(0.00361137 10.0013 0)
(0.00682201 10.0062 0)
(0.00901332 10.0126 0)
(0.00980328 10.0206 0)
(0.00928404 10.0303 0)
(0.00782316 10.0415 0)
(0.00572685 10.0545 0)
(0.00314115 10.0685 0)
(9.84405e-06 10.0828 0)
(-0.00344732 10.0971 0)
(-0.00701151 10.1105 0)
(-0.0104654 10.1209 0)
(-0.0135969 10.1243 0)
(-0.0162114 10.1123 0)
(-0.0181327 10.0699 0)
(-0.0191315 9.97493 0)
(-0.0188059 9.80562 0)
(-0.0165957 9.55325 0)
(-0.0111487 9.21069 0)
(-0.00678518 8.69068 0)
(0.00297857 10.001 0)
(0.00591044 10.0052 0)
(0.00778166 10.011 0)
(0.00828403 10.0184 0)
(0.00742309 10.0274 0)
(0.00549559 10.0381 0)
(0.00268425 10.0509 0)
(-0.000617567 10.0658 0)
(-0.00421933 10.0823 0)
(-0.00821479 10.0997 0)
(-0.012357 10.1178 0)
(-0.0163962 10.1355 0)
(-0.0200826 10.1509 0)
(-0.0231749 10.1596 0)
(-0.0254503 10.153 0)
(-0.0267049 10.1159 0)
(-0.0266854 10.0268 0)
(-0.0249746 9.86529 0)
(-0.0211422 9.62378 0)
(-0.0136758 9.29399 0)
(-0.00810782 8.78615 0)
(0.00247791 10.0008 0)
(0.00508763 10.0044 0)
(0.00665851 10.0096 0)
(0.00688188 10.0164 0)
(0.00569234 10.0247 0)
(0.0033046 10.0347 0)
(-0.000146389 10.047 0)
(-0.004427 10.0618 0)
(-0.00903358 10.0794 0)
(-0.0137055 10.0992 0)
(-0.0185768 10.1206 0)
(-0.0233637 10.1434 0)
(-0.0277805 10.1664 0)
(-0.0315476 10.1877 0)
(-0.0343986 10.2027 0)
(-0.0360916 10.2025 0)
(-0.0364059 10.172 0)
(-0.0350844 10.0899 0)
(-0.0317185 9.93734 0)
(-0.0260385 9.70719 0)
(-0.0163543 9.38981 0)
(-0.00947877 8.89294 0)
(0.00209326 10.0007 0)
(0.00438397 10.0037 0)
(0.00563673 10.0084 0)
(0.0055984 10.0145 0)
(0.00410139 10.0221 0)
(0.00127675 10.0315 0)
(-0.00279866 10.043 0)
(-0.00795076 10.0573 0)
(-0.0138724 10.0748 0)
(-0.0199001 10.0959 0)
(-0.0256776 10.1198 0)
(-0.031398 10.1462 0)
(-0.0367358 10.1746 0)
(-0.0413729 10.204 0)
(-0.0450055 10.2321 0)
(-0.0473535 10.2542 0)
(-0.0481677 10.2614 0)
(-0.0472285 10.2384 0)
(-0.0442961 10.1644 0)
(-0.0389935 10.0216 0)
(-0.0312411 9.80302 0)
(-0.0191637 9.49759 0)
(-0.0108792 9.01032 0)
(0.00179678 10.0006 0)
(0.00381308 10.0032 0)
(0.0047548 10.0074 0)
(0.00443386 10.0129 0)
(0.00265615 10.0198 0)
(-0.000571682 10.0283 0)
(-0.00523642 10.039 0)
(-0.0112331 10.0526 0)
(-0.0183221 10.0695 0)
(-0.0260828 10.0905 0)
(-0.0336338 10.1158 0)
(-0.0405109 10.145 0)
(-0.0469945 10.1772 0)
(-0.0527215 10.2122 0)
(-0.0573485 10.2488 0)
(-0.0605628 10.2846 0)
(-0.0620832 10.3148 0)
(-0.0616725 10.3301 0)
(-0.0591299 10.3154 0)
(-0.0542591 10.2504 0)
(-0.0467341 10.1178 0)
(-0.0366965 9.91065 0)
(-0.0220389 9.61629 0)
(-0.0122441 9.1367 0)
(0.00156406 10.0005 0)
(0.00334824 10.0028 0)
(0.00403237 10.0065 0)
(0.00343384 10.0114 0)
(0.0013607 10.0175 0)
(-0.00222983 10.0253 0)
(-0.00743576 10.0351 0)
(-0.0142276 10.0477 0)
(-0.0224432 10.0638 0)
(-0.031739 10.0842 0)
(-0.0415315 10.1094 0)
(-0.0506702 10.14 0)
(-0.0585762 10.1753 0)
(-0.06566 10.2144 0)
(-0.0715309 10.2569 0)
(-0.0758387 10.3016 0)
(-0.0782764 10.3459 0)
(-0.0785833 10.3847 0)
(-0.0765544 10.4089 0)
(-0.0720325 10.4031 0)
(-0.0648843 10.3475 0)
(-0.0548558 10.2253 0)
(-0.0422884 10.0292 0)
(-0.0248645 9.74463 0)
(-0.0132756 9.27022 0)
(0.00137886 10.0005 0)
(0.00296722 10.0025 0)
(0.00344207 10.0059 0)
(0.00262166 10.0102 0)
(0.000266674 10.0156 0)
(-0.00369006 10.0224 0)
(-0.00937988 10.0313 0)
(-0.0169015 10.0428 0)
(-0.0261776 10.0578 0)
(-0.0369521 10.0772 0)
(-0.0487282 10.1017 0)
(-0.0607151 10.1322 0)
(-0.071442 10.1691 0)
(-0.0802197 10.2115 0)
(-0.0876461 10.2585 0)
(-0.093325 10.3093 0)
(-0.0969167 10.3628 0)
(-0.0981453 10.4163 0)
(-0.0967956 10.4644 0)
(-0.0927209 10.4978 0)
(-0.0858208 10.5014 0)
(-0.0760538 10.4554 0)
(-0.0632119 10.3435 0)
(-0.0479694 10.1575 0)
(-0.0278301 9.88209 0)
(-0.0156044 9.4109 0)
(0.00122964 10.0004 0)
(0.00265256 10.0022 0)
(0.00295817 10.0053 0)
(0.00196711 10.0092 0)
(-0.000603518 10.0139 0)
(-0.00489347 10.0198 0)
(-0.0110568 10.0276 0)
(-0.0192308 10.038 0)
(-0.0294819 10.0517 0)
(-0.0416499 10.0698 0)
(-0.0553363 10.0932 0)
(-0.0698432 10.1229 0)
(-0.0841301 10.1595 0)
(-0.0963569 10.2038 0)
(-0.105742 10.2544 0)
(-0.113148 10.31 0)
(-0.118197 10.3701 0)
(-0.12059 10.4331 0)
(-0.12011 10.4961 0)
(-0.116613 10.5539 0)
(-0.110028 10.5968 0)
(-0.100343 10.6097 0)
(-0.087583 10.5733 0)
(-0.0716595 10.4711 0)
(-0.0529798 10.2946 0)
(-0.0246812 10.0223 0)
(-0.0115235 9.49641 0)
(0.00110795 10.0004 0)
(0.00239123 10.002 0)
(0.00256067 10.0049 0)
(0.00143821 10.0083 0)
(-0.00128749 10.0125 0)
(-0.00582131 10.0176 0)
(-0.0123986 10.0242 0)
(-0.0211978 10.0332 0)
(-0.0323231 10.0456 0)
(-0.0457763 10.0621 0)
(-0.0612671 10.084 0)
(-0.078204 10.1123 0)
(-0.0956412 10.1481 0)
(-0.112247 10.1921 0)
(-0.125771 10.2447 0)
(-0.135381 10.3044 0)
(-0.142292 10.3697 0)
(-0.146171 10.4396 0)
(-0.146794 10.5126 0)
(-0.144039 10.5855 0)
(-0.13786 10.653 0)
(-0.12829 10.7054 0)
(-0.115374 10.7276 0)
(-0.0992842 10.7004 0)
(-0.0796863 10.6072 0)
(-0.0569798 10.4376 0)
(-0.0201793 10.194 0)
(-0.0029524 9.56223 0)
(0.00100757 10.0003 0)
(0.00217336 10.0018 0)
(0.00222855 10.0045 0)
(0.00101057 10.0076 0)
(-0.00182339 10.0112 0)
(-0.00652311 10.0156 0)
(-0.013393 10.0212 0)
(-0.0227228 10.0288 0)
(-0.0346764 10.0394 0)
(-0.0492872 10.0543 0)
(-0.0664485 10.0743 0)
(-0.085688 10.1009 0)
(-0.106171 10.1352 0)
(-0.126654 10.1782 0)
(-0.145487 10.2304 0)
(-0.159981 10.2925 0)
(-0.1693 10.3624 0)
(-0.175106 10.4379 0)
(-0.177167 10.5182 0)
(-0.175377 10.6014 0)
(-0.169734 10.6843 0)
(-0.160316 10.7614 0)
(-0.147243 10.8231 0)
(-0.130673 10.8542 0)
(-0.110617 10.8356 0)
(-0.0864794 10.7508 0)
(-0.060189 10.5947 0)
(-0.021594 10.3673 0)
(0.00235251 9.61963 0)
(0.00092395 10.0003 0)
(0.00199111 10.0017 0)
(0.00195279 10.0041 0)
(0.00066679 10.007 0)
(-0.00224199 10.0102 0)
(-0.00704732 10.0139 0)
(-0.0141064 10.0186 0)
(-0.0238028 10.0248 0)
(-0.0364462 10.0336 0)
(-0.0521483 10.0464 0)
(-0.0708225 10.0645 0)
(-0.0922038 10.0889 0)
(-0.115584 10.1211 0)
(-0.139829 10.1624 0)
(-0.163367 10.2136 0)
(-0.184205 10.2753 0)
(-0.199186 10.3478 0)
(-0.207542 10.4286 0)
(-0.211519 10.515 0)
(-0.211032 10.606 0)
(-0.206122 10.6995 0)
(-0.196942 10.7924 0)
(-0.183688 10.8788 0)
(-0.166602 10.9493 0)
(-0.145746 10.9887 0)
(-0.120967 10.9783 0)
(-0.0920678 10.9026 0)
(-0.0622456 10.7644 0)
(-0.0244156 10.5372 0)
(0.0032006 9.67659 0)
(0.000853724 10.0003 0)
(0.0018379 10.0016 0)
(0.0017242 10.0038 0)
(0.000386397 10.0064 0)
(-0.00256771 10.0093 0)
(-0.00743304 10.0125 0)
(-0.0146019 10.0163 0)
(-0.0245274 10.0213 0)
(-0.0376414 10.0284 0)
(-0.0542427 10.0389 0)
(-0.0743428 10.0544 0)
(-0.0976759 10.0764 0)
(-0.123765 10.1061 0)
(-0.151606 10.1451 0)
(-0.179728 10.1944 0)
(-0.206194 10.2551 0)
(-0.228644 10.3272 0)
(-0.243467 10.4111 0)
(-0.250054 10.5034 0)
(-0.251372 10.6012 0)
(-0.247525 10.703 0)
(-0.238744 10.8068 0)
(-0.225336 10.9092 0)
(-0.207644 11.0045 0)
(-0.185903 11.0831 0)
(-0.160081 11.1305 0)
(-0.130702 11.1283 0)
(-0.0975011 11.0625 0)
(-0.0640484 10.9415 0)
(-0.0270831 10.7028 0)
(0.00271607 9.75008 0)
(0.000794339 10.0003 0)
(0.00170835 10.0015 0)
(0.00153455 10.0036 0)
(0.000156486 10.006 0)
(-0.00282101 10.0085 0)
(-0.00771158 10.0112 0)
(-0.0149304 10.0143 0)
(-0.0249795 10.0182 0)
(-0.0383822 10.0238 0)
(-0.0555945 10.0321 0)
(-0.0768644 10.0447 0)
(-0.102042 10.0637 0)
(-0.130618 10.0906 0)
(-0.161842 10.1266 0)
(-0.19437 10.1734 0)
(-0.226345 10.232 0)
(-0.255433 10.3031 0)
(-0.278937 10.3868 0)
(-0.292791 10.4828 0)
(-0.296673 10.5873 0)
(-0.294403 10.6965 0)
(-0.286322 10.809 0)
(-0.272873 10.9228 0)
(-0.254539 11.0343 0)
(-0.231737 11.1378 0)
(-0.204688 11.2242 0)
(-0.173859 11.2792 0)
(-0.140451 11.2847 0)
(-0.103649 11.2296 0)
(-0.066714 11.1208 0)
(-0.0299354 10.8829 0)
(0.00158315 9.83482 0)
(0.000743801 10.0002 0)
(0.00159822 10.0014 0)
(0.00137505 10.0034 0)
(-3.26695e-05 10.0056 0)
(-0.00301758 10.0078 0)
(-0.00790769 10.0101 0)
(-0.015132 10.0125 0)
(-0.0252258 10.0156 0)
(-0.0387781 10.0197 0)
(-0.056363 10.0261 0)
(-0.078429 10.036 0)
(-0.105122 10.0513 0)
(-0.136059 10.0745 0)
(-0.170412 10.1073 0)
(-0.207111 10.1508 0)
(-0.244415 10.2066 0)
(-0.28004 10.2756 0)
(-0.311267 10.3584 0)
(-0.335085 10.4544 0)
(-0.347004 10.5632 0)
(-0.347117 10.6801 0)
(-0.340249 10.8008 0)
(-0.327016 10.9239 0)
(-0.308092 11.0471 0)
(-0.284107 11.167 0)
(-0.255546 11.2782 0)
(-0.223035 11.3718 0)
(-0.187525 11.4338 0)
(-0.150384 11.4464 0)
(-0.110523 11.4008 0)
(-0.0706115 11.3207 0)
(-0.0328788 11.0779 0)
(-0.000178449 9.92881 0)
(0.0007005 10.0002 0)
(0.00150413 10.0013 0)
(0.00124049 10.0032 0)
(-0.000187408 10.0052 0)
(-0.00316972 10.0072 0)
(-0.00804089 10.0091 0)
(-0.0152385 10.011 0)
(-0.0253188 10.0132 0)
(-0.0389164 10.0161 0)
(-0.0566917 10.0207 0)
(-0.0792454 10.0281 0)
(-0.106975 10.0401 0)
(-0.139861 10.0589 0)
(-0.177207 10.0873 0)
(-0.217795 10.127 0)
(-0.26018 10.1792 0)
(-0.302169 10.2453 0)
(-0.341054 10.3259 0)
(-0.373745 10.4213 0)
(-0.396948 10.5304 0)
(-0.405811 10.6525 0)
(-0.400994 10.7819 0)
(-0.388465 10.914 0)
(-0.369147 11.0471 0)
(-0.343942 11.1791 0)
(-0.31363 11.3067 0)
(-0.27904 11.425 0)
(-0.241254 11.525 0)
(-0.201292 11.593 0)
(-0.160433 11.6113 0)
(-0.118329 11.5945 0)
(-0.0753636 11.54 0)
(-0.0360525 11.2684 0)
(-0.00211676 10.0296 0)
(0.000663443 10.0002 0)
(0.00142318 10.0013 0)
(0.00112662 10.0031 0)
(-0.000314668 10.0049 0)
(-0.00328693 10.0067 0)
(-0.00812642 10.0083 0)
(-0.0152747 10.0097 0)
(-0.0252999 10.0111 0)
(-0.0388663 10.013 0)
(-0.0566952 10.016 0)
(-0.0795 10.0212 0)
(-0.107872 10.03 0)
(-0.142103 10.0447 0)
(-0.181938 10.0678 0)
(-0.226282 10.1024 0)
(-0.273442 10.1503 0)
(-0.321548 10.2125 0)
(-0.367943 10.29 0)
(-0.40949 10.3834 0)
(-0.442755 10.4923 0)
(-0.464237 10.6151 0)
(-0.468796 10.7507 0)
(-0.457819 10.8926 0)
(-0.438545 11.0355 0)
(-0.412225 11.178 0)
(-0.379998 11.3181 0)
(-0.342967 11.4529 0)
(-0.302361 11.5772 0)
(-0.259449 11.6827 0)
(-0.215137 11.7549 0)
(-0.171495 11.7978 0)
(-0.126744 11.8093 0)
(-0.080509 11.7553 0)
(-0.0391486 11.4537 0)
(-0.0039703 10.1352 0)
(0.00135294 10.0012 0)
(0.000619506 10.0002 0)
(0.00102928 10.0029 0)
(-0.000419488 10.0046 0)
(-0.00337665 10.0062 0)
(-0.00817616 10.0075 0)
(-0.0152598 10.0085 0)
(-0.025201 10.0093 0)
(-0.0386817 10.0102 0)
(-0.0564639 10.0118 0)
(-0.0793419 10.015 0)
(-0.108052 10.021 0)
(-0.143131 10.0319 0)
(-0.184704 10.0499 0)
(-0.232198 10.0782 0)
(-0.284021 10.1203 0)
(-0.337927 10.1777 0)
(-0.3916 10.2511 0)
(-0.441899 10.3414 0)
(-0.485279 10.4486 0)
(-0.518024 10.5717 0)
(-0.536525 10.7087 0)
(-0.535437 10.8578 0)
(-0.517033 11.0118 0)
(-0.489952 11.165 0)
(-0.455784 11.3162 0)
(-0.416009 11.4636 0)
(-0.372111 11.6044 0)
(-0.32551 11.7338 0)
(-0.277503 11.8429 0)
(-0.230375 11.9375 0)
(-0.18332 12.0051 0)
(-0.134926 12.0218 0)
(-0.0856303 11.9647 0)
(-0.0420417 11.6331 0)
(-0.00573969 10.2435 0)
(0.00094403 10.0028 0)
(0.00127249 10.0012 0)
(0.000567214 10.0002 0)
(-0.000506567 10.0044 0)
(-0.00344447 10.0058 0)
(-0.00819911 10.0069 0)
(-0.0152089 10.0075 0)
(-0.0250469 10.0077 0)
(-0.0384042 10.0077 0)
(-0.0560683 10.0081 0)
(-0.0788888 10.0095 0)
(-0.107708 10.013 0)
(-0.143248 10.0204 0)
(-0.185936 10.0338 0)
(-0.235663 10.056 0)
(-0.291443 10.0906 0)
(-0.351077 10.1414 0)
(-0.411717 10.2097 0)
(-0.47057 10.2957 0)
(-0.524027 10.3999 0)
(-0.568183 10.5218 0)
(-0.599131 10.6597 0)
(-0.613261 10.811 0)
(-0.605123 10.9735 0)
(-0.578039 11.1391 0)
(-0.542156 11.3018 0)
(-0.499464 11.4608 0)
(-0.451824 11.6144 0)
(-0.400955 11.7602 0)
(-0.348319 11.893 0)
(-0.297194 12.0236 0)
(-0.246546 12.1403 0)
(-0.194644 12.2109 0)
(-0.142646 12.2296 0)
(-0.0904979 12.167 0)
(-0.0446488 11.8063 0)
(-0.00735757 10.3527 0)
(-0.000584013 10.0042 0)
(0.000855313 10.0027 0)
(0.0011748 10.0011 0)
(0.000517478 10.0002 1.87653e-19)
(-0.00349567 10.0055 0)
(-0.00820181 10.0063 0)
(-0.0151329 10.0066 0)
(-0.0248567 10.0063 0)
(-0.038066 10.0056 0)
(-0.0555625 10.0048 0)
(-0.078232 10.0046 0)
(-0.106992 10.0059 0)
(-0.142701 10.0102 0)
(-0.186019 10.0193 0)
(-0.237208 10.0359 0)
(-0.295833 10.0633 0)
(-0.360394 10.1055 0)
(-0.428002 10.1663 0)
(-0.495126 10.247 0)
(-0.55852 10.3469 0)
(-0.614139 10.4661 0)
(-0.657799 10.6034 0)
(-0.685513 10.7565 0)
(-0.69379 10.922 0)
(-0.677186 11.0974 0)
(-0.640229 11.2739 0)
(-0.594689 11.4452 0)
(-0.542975 11.6109 0)
(-0.487228 11.7697 0)
(-0.429275 11.9188 0)
(-0.373113 12.0726 0)
(-0.31801 12.2241 0)
(-0.261798 12.3415 0)
(-0.205252 12.4129 0)
(-0.149753 12.4312 0)
(-0.0949991 12.3617 0)
(-0.0469436 11.9729 0)
(-0.00879588 10.4612 0)
(-0.00354337 10.0052 0)
(-0.00064661 10.004 0)
(0.000756074 10.0025 8.38172e-19)
(0.00108129 10.001 -5.94603e-19)
(0.000470149 10.0002 -3.74259e-19)
(-0.00819004 10.0058 0)
(-0.0150397 10.0058 0)
(-0.0246442 10.005 0)
(-0.0376913 10.0037 0)
(-0.0549881 10.002 0)
(-0.0774422 10.0004 0)
(-0.10602 9.99966 0)
(-0.141682 10.0011 0)
(-0.185262 10.0064 0)
(-0.237311 10.0178 0)
(-0.29784 10.0385 0)
(-0.366 10.0722 0)
(-0.439689 10.1232 0)
(-0.5152 10.1956 0)
(-0.5883 10.29 0)
(-0.655327 10.4051 0)
(-0.711868 10.5403 0)
(-0.753566 10.6936 0)
(-0.776479 10.862 0)
(-0.777375 11.0415 0)
(-0.750925 11.2291 0)
(-0.70302 11.4155 0)
(-0.647128 11.5944 0)
(-0.585994 11.7656 0)
(-0.521927 11.9279 0)
(-0.459982 12.0979 0)
(-0.399305 12.2721 0)
(-0.337538 12.423 0)
(-0.27594 12.5391 0)
(-0.214984 12.6094 0)
(-0.156182 12.6255 0)
(-0.0990737 12.5481 0)
(-0.048935 12.1324 0)
(-0.0100491 10.5676 0)
(-0.00818429 10.0054 0)
(-0.00354334 10.0048 -1.7912e-18)
(-0.000697254 10.0037 -8.84132e-19)
(0.000662594 10.0023 4.18167e-19)
(0.000991678 10.0009 -3.95209e-19)
(0.000425292 10.0001 0)
(-0.0149354 10.0051 0)
(-0.0244186 10.0039 0)
(-0.037298 10.002 0)
(-0.0543767 9.99941 0)
(-0.0765728 9.99656 0)
(-0.104886 9.99409 0)
(-0.140342 9.99301 0)
(-0.183908 9.99484 0)
(-0.236355 10.0016 0)
(-0.29805 10.0162 0)
(-0.368675 10.042 0)
(-0.446879 10.0832 0)
(-0.529825 10.1444 0)
(-0.612912 10.2299 0)
(-0.6912 10.3396 0)
(-0.760684 10.471 0)
(-0.81668 10.6228 0)
(-0.854781 10.7925 0)
(-0.871238 10.9761 0)
(-0.863224 11.169 0)
(-0.825635 11.368 0)
(-0.765849 11.5631 0)
(-0.69903 11.7483 0)
(-0.628153 11.9234 0)
(-0.559508 12.1067 0)
(-0.49239 12.2969 0)
(-0.423826 12.4701 0)
(-0.355596 12.6185 0)
(-0.288821 12.7316 0)
(-0.223772 12.7994 0)
(-0.161906 12.8119 0)
(-0.102697 12.7258 0)
(-0.0506441 12.2844 0)
(-0.0111242 10.671 0)
(-0.0148511 10.0044 0)
(-0.00808165 10.0048 3.77755e-18)
(-0.00348361 10.0044 0)
(-0.000743662 10.0034 8.81863e-19)
(0.000575589 10.0021 1.37613e-22)
(0.000905879 10.0009 0)
(0.000382929 10.0001 0)
(-0.0241864 10.003 0)
(-0.036897 10.0005 0)
(-0.0537509 9.99716 0)
(-0.0756646 9.99321 0)
(-0.103656 9.98915 0)
(-0.138799 9.98586 0)
(-0.18215 9.9846 0)
(-0.234648 9.98721 0)
(-0.296936 9.99617 0)
(-0.369126 10.0147 0)
(-0.450491 10.0467 0)
(-0.539052 10.0968 0)
(-0.631144 10.1698 0)
(-0.7212 10.2699 0)
(-0.803597 10.3961 0)
(-0.8741 10.5449 0)
(-0.927877 10.714 0)
(-0.960623 10.9001 0)
(-0.968932 11.0985 0)
(-0.950517 11.3041 0)
(-0.900606 11.5132 0)
(-0.828153 11.7159 0)
(-0.749939 11.9057 0)
(-0.673815 12.1022 0)
(-0.599184 12.3058 0)
(-0.522695 12.4949 0)
(-0.446472 12.6649 0)
(-0.37204 12.8089 0)
(-0.300399 12.9179 0)
(-0.231594 12.9819 0)
(-0.166934 12.9899 0)
(-0.10587 12.8947 0)
(-0.0520961 12.4288 0)
(-0.0120347 10.7706 0)
(-0.0239937 10.0021 0)
(-0.0145987 10.0037 4.92386e-22)
(-0.00784086 10.0042 0)
(-0.00342349 10.0039 -9.29853e-19)
(-0.000780269 10.0031 8.50863e-23)
(0.000494932 10.002 0)
(0.000824021 10.0008 0)
(0.000343066 10.0001 0)
(-0.0364951 9.99919 0)
(-0.053124 9.99518 0)
(-0.0747468 9.99024 0)
(-0.102384 9.98479 0)
(-0.13714 9.97951 0)
(-0.180135 9.9755 0)
(-0.232429 9.97436 0)
(-0.294878 9.97827 0)
(-0.36793 9.99015 0)
(-0.451375 10.0137 0)
(-0.543953 10.0532 0)
(-0.64296 10.1136 0)
(-0.743815 10.2 0)
(-0.839929 10.3163 0)
(-0.925064 10.4603 0)
(-0.994905 10.6272 0)
(-1.04462 10.8139 0)
(-1.07018 11.0162 0)
(-1.06866 11.2287 0)
(-1.03843 11.4459 0)
(-0.975149 11.664 0)
(-0.889353 11.8725 0)
(-0.805117 12.0843 0)
(-0.722056 12.3015 0)
(-0.636293 12.5041 0)
(-0.550672 12.6897 0)
(-0.467101 12.8548 0)
(-0.386826 12.9934 0)
(-0.310681 13.0972 0)
(-0.238474 13.1565 0)
(-0.171296 13.1591 0)
(-0.108612 13.0546 0)
(-0.0533165 12.5654 0)
(-0.0127973 10.8659 0)
(-0.0361595 9.99803 0)
(-0.0235332 10.0011 -2.09882e-18)
(-0.0140889 10.0029 0)
(-0.00760738 10.0036 0)
(-0.00334868 10.0035 2.78121e-18)
(-0.000807256 10.0028 0)
(0.000420663 10.0018 0)
(0.000746214 10.0007 7.81522e-19)
(0.000305732 10.0001 0)
(-0.0525032 9.99342 0)
(-0.0738358 9.98762 0)
(-0.101108 9.98093 0)
(-0.135432 9.97389 0)
(-0.177974 9.96744 0)
(-0.229884 9.96293 0)
(-0.292172 9.9623 0)
(-0.365552 9.96817 0)
(-0.450225 9.9839 0)
(-0.545532 10.0136 0)
(-0.649594 10.062 0)
(-0.758881 10.1344 0)
(-0.867818 10.2358 0)
(-0.968768 10.3697 0)
(-1.05499 10.5326 0)
(-1.12228 10.7182 0)
(-1.16597 10.9226 0)
(-1.18247 11.1406 0)
(-1.16949 11.3664 0)
(-1.12617 11.594 0)
(-1.04857 11.8192 0)
(-0.955788 12.0506 0)
(-0.863474 12.284 0)
(-0.767206 12.5005 0)
(-0.67057 12.6995 0)
(-0.576175 12.8799 0)
(-0.485667 13.0389 0)
(-0.399974 13.1711 0)
(-0.319709 13.2689 0)
(-0.244459 13.3227 0)
(-0.175036 13.3194 0)
(-0.110954 13.2056 0)
(-0.0543319 12.6944 0)
(-0.0134306 10.9567 0)
(-0.0519844 9.99186 0)
(-0.0354188 9.99673 0)
(-0.0226425 10 -2.18421e-18)
(-0.0135999 10.0021 -2.06687e-18)
(-0.00735248 10.003 -3.90921e-18)
(-0.00325912 10.0031 0)
(-0.000824627 10.0025 -1.74565e-18)
(0.000352937 10.0017 -1.64837e-18)
(0.000672473 10.0007 7.7781e-19)
(0.000270882 10.0001 0)
(-0.0729387 9.9853 0)
(-0.0998464 9.9775 0)
(-0.133723 9.96892 0)
(-0.175754 9.96029 0)
(-0.227153 9.95278 0)
(-0.289049 9.94809 0)
(-0.362357 9.94854 0)
(-0.447601 9.95718 0)
(-0.544616 9.97784 0)
(-0.652215 10.0151 0)
(-0.767795 10.074 0)
(-0.886911 10.16 0)
(-1.00293 10.2779 0)
(-1.10719 10.4308 0)
(-1.19259 10.6134 0)
(-1.25526 10.8181 0)
(-1.29089 11.0399 0)
(-1.29646 11.2728 0)
(-1.27049 11.5108 0)
(-1.2129 11.747 0)
(-1.12854 11.9965 0)
(-1.02622 12.2505 0)
(-0.918154 12.4837 0)
(-0.808937 12.6969 0)
(-0.701847 12.8907 0)
(-0.599156 13.0646 0)
(-0.502194 13.2164 0)
(-0.411545 13.3415 0)
(-0.327556 13.4325 0)
(-0.249611 13.4804 0)
(-0.178206 13.4708 0)
(-0.112932 13.3478 0)
(-0.0551677 12.8158 0)
(-0.0139513 11.0426 0)
(-0.0721907 9.98324 0)
(-0.0508753 9.99016 -2.33378e-18)
(-0.0340049 9.99531 2.30066e-18)
(-0.0217946 9.99897 -1.17714e-21)
(-0.0130802 10.0013 2.05987e-18)
(-0.00707606 10.0025 1.9478e-18)
(-0.0031553 10.0027 3.68063e-18)
(-0.000832247 10.0023 2.60691e-18)
(0.000291727 10.0015 -8.20254e-19)
(0.000602841 10.0006 0)
(0.000238498 10.0001 0)
(-0.098608 9.97447 0)
(-0.132038 9.9645 0)
(-0.173536 9.95394 0)
(-0.224346 9.94377 0)
(-0.285687 9.93545 0)
(-0.358629 9.93104 0)
(-0.443948 9.93328 0)
(-0.541874 9.94568 0)
(-0.651796 9.97253 0)
(-0.771903 10.0188 0)
(-0.898765 10.0898 0)
(-1.02694 10.1911 0)
(-1.14872 10.3271 0)
(-1.25446 10.5001 0)
(-1.33693 10.7031 0)
(-1.39279 10.9269 0)
(-1.41828 11.1655 0)
(-1.41114 11.4125 0)
(-1.37073 11.6609 0)
(-1.30773 11.9227 0)
(-1.21362 12.1963 0)
(-1.09241 12.4512 0)
(-0.96879 12.6814 0)
(-0.847051 12.8893 0)
(-0.730066 13.0764 0)
(-0.619649 13.2427 0)
(-0.51676 13.3866 0)
(-0.421629 13.504 0)
(-0.334309 13.588 0)
(-0.254001 13.6296 0)
(-0.180864 13.6135 0)
(-0.114583 13.4814 0)
(-0.0558479 12.9298 0)
(-0.0143759 11.1238 0)
(-0.0975797 9.97178 0)
(-0.0706069 9.98104 -3.46727e-21)
(-0.048762 9.98834 0)
(-0.0326685 9.99394 -1.89049e-21)
(-0.0209039 9.99795 0)
(-0.0125297 10.0005 -2.05249e-18)
(-0.00677894 10.0019 -3.87965e-18)
(-0.00303707 10.0023 8.94177e-23)
(-0.000830295 10.0021 1.72942e-18)
(0.000236735 10.0014 -8.15879e-19)
(0.000537307 10.0005 7.69382e-19)
(0.00020855 10.0001 0)
(-0.130386 9.96059 0)
(-0.171349 9.94831 0)
(-0.221539 9.93577 0)
(-0.282221 9.92422 0)
(-0.354589 9.91546 0)
(-0.439615 9.91194 0)
(-0.537843 9.91685 0)
(-0.649131 9.93418 0)
(-0.772335 9.96864 0)
(-0.904912 10.0256 0)
(-1.04251 10.1105 0)
(-1.17867 10.2286 0)
(-1.30457 10.3842 0)
(-1.40972 10.5782 0)
(-1.48694 10.802 0)
(-1.53373 11.0445 0)
(-1.54704 11.2992 0)
(-1.52546 11.5586 0)
(-1.48078 11.8341 0)
(-1.40903 12.1219 0)
(-1.29388 12.3979 0)
(-1.1539 12.6505 0)
(-1.01516 12.8755 0)
(-0.881489 13.0766 0)
(-0.75526 13.2558 0)
(-0.637744 13.4138 0)
(-0.529477 13.5492 0)
(-0.430336 13.6585 0)
(-0.340067 13.7352 0)
(-0.257703 13.7702 0)
(-0.183067 13.7476 0)
(-0.115945 13.6067 0)
(-0.0563941 13.0366 0)
(-0.0147188 11.2001 0)
(-0.129022 9.95712 0)
(-0.0953938 9.96895 2.58829e-18)
(-0.0675771 9.97871 -2.55768e-18)
(-0.0467767 9.98658 2.4175e-18)
(-0.0312739 9.99262 0)
(-0.0199696 9.99697 0)
(-0.01195 9.99982 2.04408e-18)
(-0.00646168 10.0014 -1.93081e-18)
(-0.00290452 10.002 1.19484e-22)
(-0.000818369 10.0018 8.60198e-19)
(0.000188072 10.0013 -8.11291e-19)
(0.000475795 10.0005 -7.63978e-19)
(0.000181167 10.0001 0)
(-0.169205 9.94332 0)
(-0.218769 9.92868 0)
(-0.278749 9.91424 0)
(-0.350405 9.9016 0)
(-0.434872 9.89291 0)
(-0.532944 9.89106 0)
(-0.644858 9.89972 0)
(-0.770022 9.92332 0)
(-0.906651 9.96699 0)
(-1.05137 10.0363 0)
(-1.19886 10.1368 0)
(-1.34157 10.2734 0)
(-1.46968 10.4497 0)
(-1.57192 10.6654 0)
(-1.64147 10.91 0)
(-1.67691 11.1708 0)
(-1.67603 11.4401 0)
(-1.6516 11.7284 0)
(-1.59893 12.0319 0)
(-1.50501 12.324 0)
(-1.3687 12.599 0)
(-1.2104 12.8468 0)
(-1.0572 13.0649 0)
(-0.91231 13.2578 0)
(-0.777537 13.4282 0)
(-0.653575 13.5772 0)
(-0.540481 13.7039 0)
(-0.437787 13.8049 0)
(-0.344933 13.8741 0)
(-0.260796 13.9025 0)
(-0.184871 13.8734 0)
(-0.117055 13.7241 0)
(-0.0568271 13.1365 0)
(-0.0149927 11.2717 0)
(-0.167447 9.93889 0)
(-0.126085 9.95352 0)
(-0.0911839 9.96602 2.69021e-18)
(-0.0647458 9.97649 -5.10223e-18)
(-0.0447128 9.98491 4.82574e-18)
(-0.0298191 9.99137 -4.56208e-18)
(-0.0189952 9.99604 0)
(-0.0113422 9.99914 2.03554e-18)
(-0.00612454 10.0009 -1.92118e-18)
(-0.00275899 10.0016 -1.81341e-18)
(-0.000795817 10.0016 0)
(0.000145446 10.0011 8.05569e-19)
(0.000418432 10.0004 0)
(0.000156851 10 0)
(-0.216052 9.92237 0)
(-0.275314 9.90538 0)
(-0.346198 9.88926 0)
(-0.429929 9.87595 0)
(-0.527508 9.86803 0)
(-0.639484 9.86884 0)
(-0.765717 9.88251 0)
(-0.905058 9.9139 0)
(-1.05498 9.96848 0)
(-1.21122 10.052 0)
(-1.36741 10.1698 0)
(-1.51496 10.3264 0)
(-1.64309 10.5243 0)
(-1.73993 10.7622 0)
(-1.79932 11.0273 0)
(-1.82113 11.3051 0)
(-1.81915 11.6052 0)
(-1.78778 11.9237 0)
(-1.71148 12.2338 0)
(-1.59492 12.5267 0)
(-1.43768 12.798 0)
(-1.26175 13.039 0)
(-1.09493 13.2486 0)
(-0.939646 13.4322 0)
(-0.797056 13.5931 0)
(-0.667301 13.7328 0)
(-0.549921 13.8505 0)
(-0.444107 13.9432 0)
(-0.349005 14.0049 0)
(-0.263351 14.0267 0)
(-0.186329 13.9912 0)
(-0.117945 13.8338 0)
(-0.0571645 13.2299 0)
(-0.0152078 11.3388 0)
(-0.21384 9.91678 0)
(-0.163588 9.93434 0)
(-0.120382 9.94985 0)
(-0.087272 9.96323 5.36601e-18)
(-0.061812 9.97438 -5.0781e-18)
(-0.0425691 9.98332 4.80209e-18)
(-0.0283112 9.99018 0)
(-0.0179825 9.99516 -2.14389e-18)
(-0.0107067 9.99849 0)
(-0.00576833 10.0005 1.91079e-18)
(-0.00259933 10.0013 0)
(-0.000764242 10.0014 0)
(0.000110056 10.001 0)
(0.00036649 10.0004 7.78784e-19)
(0.000135637 10 3.75123e-19)
(-0.271942 9.8975 0)
(-0.342024 9.8783 0)
(-0.424934 9.86086 0)
(-0.521791 9.84749 0)
(-0.633407 9.84122 0)
(-0.760021 9.84585 0)
(-0.901015 9.86598 0)
(-1.05459 9.90685 0)
(-1.21739 9.97415 0)
(-1.38418 10.0736 0)
(-1.54758 10.2103 0)
(-1.69796 10.3882 0)
(-1.8237 10.6086 0)
(-1.91257 10.8687 0)
(-1.95926 11.1534 0)
(-1.98212 11.4639 0)
(-1.97463 11.7968 0)
(-1.91832 12.1248 0)
(-1.81755 12.4379 0)
(-1.67827 12.7285 0)
(-1.50063 12.9935 0)
(-1.30796 13.2258 0)
(-1.12848 13.4257 0)
(-0.963683 13.5992 0)
(-0.814025 13.7503 0)
(-0.6791 13.8804 0)
(-0.55795 13.9891 0)
(-0.449419 14.0735 0)
(-0.35238 14.1278 0)
(-0.265438 14.1431 0)
(-0.18749 14.1014 0)
(-0.118646 13.9362 0)
(-0.0574218 13.317 0)
(-0.0153724 11.4015 0)
(-0.269224 9.89051 0)
(-0.208866 9.91108 0)
(-0.156028 9.92978 5.98473e-18)
(-0.115112 9.94636 5.6667e-18)
(-0.0832266 9.96058 5.3605e-18)
(-0.058775 9.97238 -5.06766e-18)
(-0.0403562 9.98182 0)
(-0.026752 9.98906 0)
(-0.0169325 9.99433 0)
(-0.0100449 9.99789 4.02865e-18)
(-0.00539513 10 1.9e-18)
(-0.00242594 10.001 1.7899e-18)
(-0.000723667 10.0012 0)
(8.11745e-05 10.0009 -8.21106e-19)
(0.0003198 10.0004 -3.96212e-19)
(0.000117046 10 0)
(-0.337918 9.86855 0)
(-0.419954 9.84742 0)
(-0.515977 9.82917 0)
(-0.626941 9.81653 0)
(-0.753412 9.813 0)
(-0.895228 9.82283 0)
(-1.0512 9.85104 0)
(-1.21878 9.90319 0)
(-1.39373 9.98508 0)
(-1.56982 10.1023 0)
(-1.73861 10.2595 0)
(-1.88957 10.4595 0)
(-2.01041 10.703 0)
(-2.08859 10.9848 0)
(-2.13899 11.3042 0)
(-2.15829 11.6503 0)
(-2.12481 11.996 0)
(-2.04223 12.3297 0)
(-1.91651 12.6423 0)
(-1.75479 12.9278 0)
(-1.55755 13.1844 0)
(-1.34919 13.4065 0)
(-1.15807 13.5957 0)
(-0.98465 13.7587 0)
(-0.828665 13.8994 0)
(-0.689163 14.02 0)
(-0.564722 14.1198 0)
(-0.453843 14.196 0)
(-0.355147 14.2431 0)
(-0.267121 14.252 0)
(-0.188397 14.2043 0)
(-0.119188 14.0317 0)
(-0.0576101 13.3982 0)
(-0.0154978 11.4601 0)
(-0.334646 9.85989 0)
(-0.262913 9.88343 0)
(-0.199027 9.90544 -1.25906e-17)
(-0.149072 9.92546 1.78213e-20)
(-0.109667 9.94308 -1.12851e-17)