/*--------------------------------*- C++ -*----------------------------------*\
  =========                 |
  \\      /  F ield         | OpenFOAM: The Open Source CFD Toolbox
   \\    /   O peration     | Website:  https://openfoam.org
    \\  /    A nd           | Version:  8
     \\/     M anipulation  |
\*---------------------------------------------------------------------------*/
FoamFile
{
    version     2.0;
    format      ascii;
    class       volScalarField;
    location    "0.43";
    object      alphat;
}
// * * * * * * * * * * * * * * * * * * * * * * * * * * * * * * * * * * * * * //

dimensions      [1 -1 -1 0 0 0 0];

internalField   nonuniform List<scalar> 
15677
(
0.000668422
0.00142341
0.00486613
0.00841032
0.0117331
0.0150745
0.0186976
0.0226947
0.0273065
0.0326625
0.0391278
0.045748
0.0520335
0.0584431
0.0619138
0.062629
0.0625863
0.0615045
0.0592577
0.0562893
0.0526869
0.0485659
0.0443063
0.0401757
0.036412
0.0331395
0.0303207
0.0277876
0.0253007
0.0225678
0.0196702
0.0168806
0.0145137
0.0126109
0.0110628
0.0010449
0.00888971
0.0226616
0.0385136
0.0544204
0.0683593
0.078175
0.0828453
0.0844289
0.0839163
0.0833277
0.0814101
0.07889
0.077093
0.076638
0.0762626
0.0756199
0.0751299
0.0742332
0.0727895
0.0705674
0.0675416
0.0640067
0.0603584
0.0571243
0.0544311
0.0521648
0.0502394
0.0486188
0.0472929
0.0461828
0.0451823
0.0441841
0.0431552
0.0421301
0.00104777
0.00959882
0.02252
0.0363028
0.0496412
0.0618607
0.0725685
0.0816307
0.0884271
0.0921832
0.091951
0.0873703
0.079597
0.0719673
0.0667602
0.0650789
0.0652123
0.0656877
0.065966
0.0660861
0.0648406
0.0631954
0.0608499
0.057566
0.0556362
0.0538587
0.0524303
0.0513732
0.0505253
0.0497925
0.0490575
0.048178
0.0474358
0.0467963
0.0462244
0.000837498
0.00605433
0.0144627
0.0232919
0.0318627
0.0398354
0.0469139
0.0527045
0.0566096
0.0585544
0.0594669
0.0583853
0.0562641
0.0531122
0.0496821
0.0470641
0.0457663
0.046818
0.0489308
0.0506034
0.0509352
0.0519444
0.0532948
0.0540231
0.0538807
0.0529854
0.051445
0.0500272
0.0489059
0.0477452
0.0464009
0.0454192
0.0443846
0.0433618
0.0426536
0.00059893
0.00456843
0.00987572
0.015293
0.0209291
0.0265914
0.0321782
0.0373372
0.0417779
0.0449666
0.0461367
0.0465171
0.0442957
0.0399839
0.034548
0.0295283
0.0255522
0.0242471
0.0255607
0.0273167
0.0296886
0.0312343
0.0314861
0.0317833
0.0321384
0.03298
0.0339988
0.0353478
0.0364715
0.0369669
0.0370993
0.0373814
0.0379551
0.0389823
0.0403923
0.000254672
0.00112214
0.00249537
0.00383746
0.00527813
0.00682655
0.00839376
0.00990597
0.0111552
0.0116955
0.0124235
0.0125753
0.0127736
0.0131106
0.0137205
0.014746
0.0162701
0.0183576
0.0208168
0.023182
0.0247274
0.0264506
0.0281717
0.028748
0.0290903
0.0297505
0.0311027
0.0333753
0.0357178
0.0376531
0.0389361
0.0396403
0.0399791
0.0401407
0.0402398
0.000287851
0.00156104
0.00347649
0.00504346
0.00649705
0.00815043
0.0100689
0.0122097
0.0145533
0.017209
0.0202986
0.0236653
0.027185
0.0309316
0.0344467
0.0374801
0.0401491
0.0425549
0.0449384
0.0470881
0.0488402
0.0498161
0.0502781
0.0505103
0.0507063
0.051006
0.0513783
0.0517405
0.051917
0.0518366
0.0515637
0.0511648
0.050661
0.0501303
0.0496245
0.00032544
0.00171077
0.00290406
0.00375201
0.00462623
0.00578923
0.00771519
0.0107222
0.0147638
0.0196705
0.0251465
0.0308733
0.0368577
0.0429446
0.0482802
0.0525791
0.056185
0.05914
0.0614874
0.0632517
0.0644514
0.0651833
0.0652526
0.0647005
0.0637864
0.0626096
0.0612441
0.0598683
0.0586956
0.0577133
0.0568671
0.0560848
0.0553701
0.0547133
0.0541065
0.000209708
0.000723614
0.00218267
0.00431295
0.00701946
0.0103712
0.0144421
0.0192761
0.0249067
0.0310796
0.037461
0.0437383
0.0494894
0.0546347
0.0586687
0.0616203
0.0637651
0.0652992
0.066333
0.0669844
0.067375
0.0676035
0.0677688
0.0679081
0.0679685
0.0678413
0.067562
0.0670778
0.0663826
0.06561
0.0648546
0.064154
0.063519
0.062954
0.0624591
0.000205371
0.00189164
0.00466887
0.00805351
0.0119431
0.0162822
0.0210224
0.0261103
0.0314777
0.0370158
0.0426088
0.0481772
0.0535331
0.0585212
0.0625219
0.0654876
0.0676419
0.0690668
0.0699106
0.0703042
0.0703472
0.0701034
0.069663
0.0690657
0.0683507
0.0675834
0.0668425
0.0661504
0.0655091
0.0649193
0.0643815
0.063896
0.0634618
0.0630773
0.0627409
0.00024754
0.00183587
0.00478152
0.00843211
0.0126187
0.0172848
0.022393
0.0278921
0.0337015
0.0397097
0.0457853
0.0517466
0.057365
0.0624217
0.0662625
0.0689007
0.070621
0.0715894
0.0719639
0.0719177
0.0715694
0.0710424
0.070476
0.0699297
0.0693853
0.068825
0.06825
0.0676715
0.0671073
0.066566
0.0660598
0.0655974
0.0651816
0.0648106
0.0644804
0.000236721
0.00216083
0.00542031
0.00942773
0.0140074
0.0190628
0.0245123
0.0302767
0.0362685
0.0423783
0.0484607
0.0543501
0.0598659
0.0647875
0.06848
0.0709628
0.072514
0.0733037
0.0734761
0.0731373
0.0724251
0.0714819
0.0704807
0.0694985
0.0685636
0.0677044
0.0669283
0.0662343
0.0656159
0.0650653
0.0645749
0.0641384
0.0637499
0.0634045
0.0630977
0.00025281
0.00210276
0.00543635
0.00957202
0.0143137
0.0195688
0.0252542
0.0312731
0.0375104
0.0438423
0.0501455
0.0562406
0.0619131
0.0669146
0.070587
0.0729625
0.0743294
0.0748649
0.0747345
0.0740924
0.0730839
0.0718863
0.0707004
0.0696037
0.0686112
0.0677176
0.0669153
0.0661962
0.0655522
0.0649755
0.0644584
0.063994
0.063576
0.0631989
0.0628574
0.000248751
0.00225646
0.00573256
0.0100111
0.0148959
0.0202898
0.0261087
0.032256
0.0386211
0.0450848
0.0515022
0.0576992
0.0634695
0.0685662
0.0723161
0.0747353
0.0760969
0.0765674
0.0763131
0.0754957
0.074267
0.0728194
0.0713774
0.0700255
0.0687954
0.0676957
0.0667221
0.0658638
0.0651074
0.0644397
0.0638494
0.0633257
0.0628587
0.0624402
0.0620627
0.000254775
0.00223969
0.00575085
0.0100802
0.0150208
0.0204731
0.0263571
0.0325891
0.0390666
0.0456733
0.0522615
0.0586449
0.0645979
0.0698432
0.0737034
0.0761811
0.0775569
0.0780013
0.0776858
0.0767787
0.0754379
0.073867
0.072306
0.0708475
0.0695201
0.0683318
0.0672753
0.0663384
0.0655073
0.0647683
0.0641085
0.0635173
0.0629865
0.0625088
0.0620774
0.000253491
0.0023197
0.00590436
0.0103076
0.0153235
0.0208498
0.0268027
0.0330938
0.0396221
0.0462853
0.0529469
0.0594288
0.0655167
0.0709478
0.0749734
0.0775721
0.0790305
0.0795287
0.0792337
0.0783052
0.0769
0.0752311
0.0735571
0.0719833
0.0705482
0.0692601
0.0681134
0.0670956
0.0661923
0.065389
0.0646728
0.064032
0.0634568
0.0629387
0.0624664
0.000255745
0.00232257
0.00592493
0.0103354
0.0153504
0.0208757
0.0268388
0.0331612
0.0397451
0.0464849
0.0532492
0.0598567
0.0660902
0.0716846
0.0758162
0.0785148
0.0800744
0.0806598
0.0804329
0.0795524
0.0781698
0.0764913
0.0747906
0.0731853
0.071713
0.0703837
0.0691936
0.068132
0.0671858
0.0663413
0.0655861
0.0649088
0.0642997
0.0637474
0.0632483
0.000255874
0.00237897
0.00602024
0.0104627
0.0155038
0.021048
0.027021
0.0333469
0.0399339
0.0466811
0.0534738
0.0601336
0.0664471
0.0721267
0.0764408
0.079317
0.0810229
0.0817174
0.0815635
0.0807256
0.0793637
0.0776903
0.0759819
0.0743546
0.0728551
0.0714973
0.0702776
0.0691859
0.0682097
0.0673361
0.0665527
0.0658484
0.06521
0.064634
0.0641118
0.000257284
0.00239901
0.00606496
0.0105154
0.0155517
0.0210844
0.0270464
0.0333675
0.0399575
0.0467111
0.0535273
0.0602294
0.0666124
0.0724224
0.0768629
0.0798653
0.0816968
0.0825077
0.0824536
0.081693
0.0803806
0.0787208
0.076985
0.0753114
0.0737623
0.0723583
0.0711012
0.0699823
0.0689865
0.0680992
0.067307
0.0665981
0.0659586
0.0653851
0.064869
0.000258091
0.00244539
0.0061401
0.0106083
0.0156535
0.0211873
0.0271422
0.0334486
0.0400204
0.0467504
0.0535452
0.0602407
0.0666382
0.0724939
0.0770132
0.0801149
0.082058
0.0829824
0.0830353
0.0823709
0.0811451
0.0795658
0.0779102
0.0763012
0.0747875
0.0733951
0.0721312
0.0709939
0.0699763
0.0690684
0.0682589
0.0675367
0.0668892
0.066308
0.0657877
0.000259214
0.00247609
0.00619867
0.0106845
0.0157384
0.021273
0.0272215
0.0335143
0.0400679
0.0467743
0.0535297
0.0601948
0.0665735
0.0724228
0.0769721
0.0801334
0.0821578
0.0831741
0.0833194
0.0827405
0.0815894
0.0800705
0.0784609
0.0768938
0.0754296
0.0740903
0.0728785
0.0717875
0.0708077
0.0699283
0.0691387
0.0684286
0.0677892
0.0672113
0.0666898
0.000260426
0.00252052
0.00628209
0.0107963
0.0158699
0.0214151
0.0273641
0.0336456
0.0401771
0.0468492
0.0535454
0.0601489
0.0664639
0.0722665
0.0767943
0.0799709
0.0820401
0.0831211
0.0833398
0.0828333
0.0817471
0.0802812
0.0787113
0.0771743
0.0757316
0.0744088
0.0732111
0.0721338
0.0711681
0.0703032
0.0695288
0.0688349
0.0682124
0.0676537
0.0671517
0.000261847
0.00256113
0.00636291
0.0109104
0.0160104
0.0215745
0.0275329
0.0338117
0.0403259
0.0469678
0.0536055
0.0601307
0.0663544
0.0720577
0.0765324
0.0796825
0.0817568
0.0828701
0.0831382
0.0826877
0.0816553
0.0802358
0.0787018
0.077193
0.0757737
0.0744716
0.0732935
0.0722356
0.0712893
0.0704441
0.0696896
0.0690156
0.068413
0.0678735
0.06739
0.000263325
0.00260758
0.00645647
0.0110452
0.0161804
0.0217723
0.0277483
0.0340314
0.0405325
0.0471452
0.0537329
0.0601657
0.0662893
0.0718838
0.0762457
0.0793206
0.0813591
0.0824705
0.0827618
0.0823487
0.081358
0.0799777
0.0784754
0.0769926
0.0755962
0.0743157
0.0731591
0.072123
0.0711991
0.0703767
0.0696448
0.0689931
0.0684124
0.0678942
0.0674313
0.000264883
0.00265317
0.00655152
0.0111862
0.0163632
0.0219904
0.0279924
0.0342882
0.0407845
0.0473722
0.0539141
0.0602549
0.0662636
0.0717191
0.0759468
0.0789229
0.0808934
0.0819708
0.0822584
0.0818628
0.080901
0.0795527
0.0780786
0.0766202
0.075246
0.0739873
0.0728528
0.0718397
0.0709394
0.070141
0.0694332
0.0688055
0.0682483
0.0677532
0.0673127
0.000266446
0.00270093
0.00665223
0.0113376
0.0165617
0.0222304
0.0282646
0.0345795
0.0410769
0.0476428
0.0541424
0.0604108
0.0662926
0.0716027
0.0756771
0.0785313
0.0804015
0.0814149
0.0816727
0.0812747
0.0803285
0.0790054
0.0775568
0.076122
0.0747703
0.0735336
0.0724215
0.0714315
0.0705549
0.0697808
0.0690979
0.0684953
0.0679631
0.0674925
0.0670756
0.000267991
0.00274829
0.00675381
0.0114925
0.0167674
0.0224819
0.0285534
0.034893
0.0413976
0.047948
0.0544071
0.0606116
0.0663759
0.0715368
0.0754591
0.078158
0.0799105
0.0808373
0.0810428
0.0806239
0.0796806
0.0783762
0.0769515
0.0755412
0.0742139
0.0730017
0.0719145
0.07095
0.0700995
0.069352
0.0686957
0.0681196
0.0676136
0.0671684
0.0667761
0.000269473
0.00279576
0.00685637
0.0116499
0.0169778
0.0227405
0.0288525
0.0352205
0.0417368
0.0482768
0.0546977
0.0608382
0.0665114
0.071515
0.0752752
0.0778209
0.0794443
0.0802648
0.0803989
0.0799424
0.0789902
0.0776987
0.0762969
0.0749134
0.0736143
0.072431
0.0713733
0.0704388
0.0696185
0.0689013
0.0682751
0.0677285
0.0672513
0.0668341
0.0664685
0.000270864
0.0028422
0.00695739
0.0118058
0.0171871
0.0229993
0.0291533
0.0355521
0.0420834
0.0486177
0.0550067
0.0610833
0.0666626
0.0715447
0.0751371
0.0775332
0.0790043
0.0797114
0.0797608
0.0792532
0.0782815
0.0769971
0.0756174
0.0742633
0.0729971
0.0718484
0.0708263
0.0699276
0.0691432
0.0684615
0.0678702
0.0673576
0.0669133
0.0665275
0.0661917
0.000272095
0.00288681
0.00705493
0.0119572
0.0173913
0.0232528
0.0294492
0.0358796
0.0424278
0.0489595
0.0553217
0.0613425
0.0668323
0.0715877
0.0750371
0.0772797
0.0785992
0.0791857
0.0791396
0.0785701
0.0775688
0.0762855
0.0749259
0.0736026
0.072373
0.0712641
0.0702832
0.0694263
0.0686836
0.0680428
0.0674913
0.0670172
0.0666096
0.0662588
0.0659561
0.00928889
0.00746603
0.00595432
0.00474569
0.0038046
0.00305308
0.00246244
0.00195425
0.00148899
0.0012031
0.000890346
0.000731598
0.000629426
0.000547835
0.000477338
0.000419876
0.000377955
0.000349946
0.000341445
0.000344173
0.000419688
0.000440659
0.0407702
0.0390093
0.0371008
0.0351377
0.0330789
0.0301737
0.0272396
0.024333
0.0214411
0.0192812
0.0172442
0.015413
0.0149406
0.014008
0.0124205
0.0107645
0.00934064
0.00794296
0.00658695
0.0052819
0.00410018
0.00282569
0.0454979
0.0444519
0.0432833
0.0420881
0.040936
0.0399195
0.0392447
0.0392862
0.0403908
0.0427357
0.0462818
0.0501173
0.0525085
0.052261
0.0494973
0.0447264
0.0388481
0.0325265
0.0262795
0.0203745
0.0167975
0.0169493
0.042244
0.042483
0.043605
0.0452406
0.0469584
0.048291
0.0489541
0.0484664
0.0463297
0.0426432
0.0382327
0.0344195
0.0325776
0.0318526
0.0314011
0.0305585
0.0293469
0.0278401
0.0265478
0.0261712
0.0261494
0.0270543
0.0427833
0.0463837
0.0505327
0.0546744
0.0581855
0.0605586
0.0613938
0.0607595
0.0587137
0.0553634
0.0508764
0.0462675
0.042211
0.0391323
0.0370964
0.0359178
0.0350942
0.034479
0.0340249
0.0341785
0.0346654
0.0349595
0.0403707
0.0404706
0.0409464
0.0418722
0.0431734
0.0446619
0.0462004
0.0475282
0.0483199
0.0484363
0.0477801
0.0464636
0.0443145
0.042123
0.0402005
0.0386895
0.0376774
0.0371318
0.0369793
0.0367023
0.0365619
0.0370011
0.0488468
0.0476173
0.0463885
0.0452892
0.0444668
0.04405
0.0441295
0.0447158
0.0457038
0.0468701
0.0479498
0.0486924
0.0488657
0.0484374
0.0474713
0.0463102
0.0451669
0.0441841
0.0433596
0.0426211
0.0420303
0.0415811
0.053236
0.0519871
0.0507153
0.0494706
0.0483219
0.0473129
0.0464996
0.045939
0.0456747
0.0457224
0.0460511
0.0465663
0.0471376
0.047685
0.0481771
0.0483436
0.0481486
0.0476567
0.0469651
0.0462387
0.0455603
0.0449541
0.0617799
0.0608744
0.0599383
0.0589576
0.0579196
0.0568229
0.0556987
0.0545847
0.0535217
0.0525554
0.0517366
0.0511085
0.0506872
0.0504416
0.050306
0.0501982
0.0500476
0.0498103
0.0494684
0.0490283
0.048511
0.0479541
0.0623224
0.0617578
0.061152
0.060484
0.0597291
0.0588996
0.0580049
0.057074
0.0561151
0.0551451
0.0541902
0.0532891
0.0524928
0.0518313
0.0512948
0.05086
0.0504951
0.0501669
0.0498475
0.0495176
0.0491659
0.0487876
0.064078
0.0635652
0.063021
0.0624373
0.0618049
0.0611158
0.0603919
0.0596736
0.0589366
0.058145
0.0572837
0.0563757
0.0554684
0.0546072
0.0538086
0.0530797
0.0524197
0.0518225
0.0512779
0.0507741
0.0503002
0.0498467
0.0627585
0.0623525
0.0619405
0.0615245
0.0611024
0.0606739
0.0601934
0.0595885
0.0588932
0.0581495
0.0573775
0.0565765
0.0557685
0.0549797
0.0542194
0.0534953
0.0528129
0.0521746
0.0515797
0.0510256
0.0505083
0.0500235
0.0624569
0.0619734
0.0614798
0.0609731
0.0604566
0.0599373
0.0594006
0.0588318
0.0582201
0.0575621
0.0568586
0.0561166
0.0553599
0.0546124
0.0538815
0.0531741
0.0524961
0.0518518
0.0512439
0.0506733
0.05014
0.0496433
0.0616178
0.0610771
0.0605241
0.0599492
0.0593583
0.0587597
0.0581606
0.0575438
0.0569
0.0562248
0.0555153
0.0547759
0.0540286
0.0532947
0.0525796
0.0518887
0.0512265
0.050597
0.0500031
0.0494464
0.0489279
0.0484486
0.0615397
0.0608719
0.0602061
0.0595448
0.058876
0.0581826
0.0574559
0.056708
0.0559384
0.0551431
0.05432
0.053475
0.0526338
0.0518188
0.0510349
0.0502865
0.0495774
0.0489109
0.0482889
0.0477128
0.0471832
0.0467008
0.0618617
0.0610879
0.0603056
0.0595135
0.0587092
0.0578889
0.0570409
0.056168
0.0552711
0.0543407
0.0533791
0.0523949
0.0514193
0.0504788
0.0495792
0.0487256
0.0479227
0.0471738
0.0464813
0.0458459
0.045268
0.0447487
0.0625895
0.0617322
0.0608588
0.0599671
0.0590545
0.0581179
0.0571576
0.0561602
0.0551302
0.0540649
0.0529632
0.0518343
0.0507138
0.0496314
0.0486005
0.0476228
0.0467014
0.045845
0.0450563
0.0443366
0.0436861
0.0430956
0.0634208
0.0625161
0.0615899
0.0606394
0.0596608
0.0586482
0.0576057
0.0565363
0.0554248
0.0542698
0.0530709
0.0518385
0.0506116
0.0494232
0.0482816
0.0471955
0.0461719
0.0452171
0.0443457
0.0435505
0.0428325
0.0421802
0.0641836
0.0632758
0.0623416
0.0613793
0.0603877
0.0593676
0.0583142
0.0572192
0.0560758
0.0548832
0.0536422
0.0523633
0.0510854
0.0498429
0.0486457
0.0475027
0.0464227
0.0454136
0.044483
0.0436355
0.042883
0.0422074
0.0650901
0.0641615
0.0632123
0.0622417
0.0612475
0.0602312
0.0591765
0.0580734
0.056925
0.0557292
0.0544853
0.0532041
0.0519258
0.0506769
0.0494756
0.0483319
0.0472518
0.0462429
0.0453112
0.044463
0.043704
0.0430349
0.0659896
0.0650695
0.0641277
0.0631582
0.0621596
0.0611392
0.0600893
0.0589927
0.0578594
0.0566851
0.0554682
0.0542183
0.0529737
0.0517659
0.0506028
0.0494862
0.0484332
0.0474572
0.0465583
0.0457418
0.0450128
0.0443754
0.0664962
0.0656537
0.0647637
0.0638526
0.0629054
0.0619221
0.0609154
0.0598629
0.0587661
0.057633
0.056463
0.0552653
0.0540762
0.0529256
0.05182
0.0507664
0.0497696
0.0488345
0.0479869
0.0472201
0.046537
0.0459421
0.0667839
0.0660067
0.0651949
0.0643361
0.063446
0.0625256
0.0615712
0.0605946
0.059565
0.0584918
0.0573822
0.0562477
0.0551237
0.0540385
0.052998
0.0520086
0.0510772
0.0502077
0.0494019
0.0486859
0.0480509
0.0474982
0.0668782
0.06617
0.065431
0.064657
0.0638391
0.0629761
0.0620888
0.0611685
0.0602258
0.0592264
0.0581854
0.0571187
0.0560619
0.0550426
0.0540663
0.0531391
0.0522672
0.0514566
0.05071
0.0500282
0.0494335
0.0489201
0.0668057
0.0661671
0.0655009
0.0648033
0.0640702
0.0632967
0.0624664
0.0616148
0.06073
0.0598236
0.0588599
0.057864
0.056874
0.0559177
0.0550012
0.0541304
0.0533115
0.0525501
0.0518513
0.0512174
0.0506474
0.0501613
0.0666128
0.0660389
0.0654416
0.0648165
0.0641596
0.0634668
0.0627331
0.0619441
0.0611236
0.0602752
0.0594058
0.0584864
0.0575632
0.056667
0.0558055
0.0549849
0.0542113
0.0534903
0.0528273
0.0522264
0.0516892
0.0512219
0.0663534
0.0658351
0.0652985
0.0647387
0.0641513
0.0635319
0.0628761
0.062179
0.0614285
0.060638
0.0598243
0.0589951
0.058142
0.0573047
0.0564946
0.0557193
0.054985
0.0542976
0.0536623
0.0530837
0.0525651
0.05211
0.0660828
0.0656109
0.0651249
0.0646203
0.0640925
0.063537
0.0629493
0.0623249
0.0616588
0.0609406
0.0601773
0.0593993
0.0586258
0.0578493
0.0570887
0.056355
0.0556558
0.054997
0.054384
0.0538216
0.0533132
0.0528623
0.0658427
0.0654124
0.0649699
0.0645113
0.064033
0.0635306
0.0629998
0.0624361
0.0618349
0.0611918
0.0604971
0.0597611
0.0590311
0.0583199
0.0576093
0.0569148
0.0562471
0.0556132
0.0550187
0.0544687
0.0539668
0.0535168
0.0656475
0.0652628
0.0648641
0.0644488
0.0640142
0.063557
0.0630734
0.0625592
0.0620102
0.0614226
0.060792
0.0601147
0.0594173
0.0587392
0.0580786
0.057422
0.0567827
0.05617
0.0555905
0.0550495
0.054551
0.054099
0.000479191
0.000448161
0.000490338
0.00072848
0.00145164
0.0022493
0.0024454
0.00406448
0.00748405
0.0106074
0.0130249
0.014745
0.0220555
0.0316212
0.0414623
0.0505822
0.0582439
0.0639853
0.0291298
0.0319103
0.0362297
0.0401311
0.0432034
0.045604
0.0355583
0.0381754
0.0403729
0.0427222
0.0451535
0.0475541
0.0379946
0.0385544
0.0394786
0.0407747
0.042413
0.0443568
0.0414245
0.0415171
0.0418957
0.0426382
0.0437666
0.0452943
0.0444478
0.0440428
0.0438444
0.0438849
0.0441711
0.0448026
0.0474076
0.0469153
0.0464363
0.0460948
0.0459231
0.0459681
0.0483936
0.047952
0.0475084
0.0471115
0.0467617
0.0465042
0.0494019
0.0489171
0.0484319
0.0479608
0.0475311
0.0471603
0.0495248
0.0489799
0.0484487
0.0479399
0.0474662
0.047043
0.0490971
0.0484846
0.047896
0.0473378
0.0468185
0.0463479
0.0478761
0.0472067
0.0465684
0.0459677
0.0454116
0.0449081
0.0460959
0.04537
0.0446839
0.0440459
0.0434637
0.0429464
0.0441027
0.0433392
0.0426344
0.0419996
0.0414441
0.0409725
0.0424194
0.0416745
0.0410239
0.0404721
0.0400317
0.0397166
0.0415082
0.0408632
0.0403425
0.0399456
0.0396972
0.0396075
0.0415818
0.0410964
0.0407308
0.0405262
0.0404908
0.0406295
0.0424844
0.0421499
0.0419565
0.0419309
0.042077
0.0423946
0.0439057
0.0436992
0.0436438
0.0437488
0.0440149
0.044438
0.0455431
0.0454259
0.0454538
0.0456299
0.045952
0.0464167
0.0471561
0.0470902
0.0471517
0.0473469
0.0476711
0.0481396
0.0486144
0.0485664
0.0486257
0.0488076
0.0491033
0.0495221
0.049856
0.0497981
0.0498498
0.0499952
0.0502389
0.0505817
0.0509051
0.050821
0.0508295
0.0509331
0.0511174
0.0513774
0.0517928
0.0516733
0.051635
0.0516763
0.0517939
0.0519801
0.0525447
0.0523881
0.0523033
0.0522886
0.0523405
0.0524555
0.0531895
0.0530012
0.0528747
0.0528091
0.0528017
0.05285
0.0537608
0.0535458
0.0533838
0.0532741
0.0532145
0.0532035
0.0026004
0.00280514
0.00290545
0.00297714
0.00301464
0.00295178
0.00272293
0.00232976
0.00183283
0.00133189
0.000963826
0.000813742
0.000866096
0.00104231
0.00124454
0.00142223
0.00153864
0.00159245
0.00159467
0.00160254
0.00165156
0.00170044
0.015559
0.0164489
0.0170025
0.0173777
0.0169635
0.0165272
0.0155077
0.0138395
0.011568
0.00912302
0.0071638
0.00641019
0.0060766
0.00608002
0.00634216
0.00686603
0.00741884
0.00828466
0.00940237
0.0108533
0.012658
0.0148171
0.0670459
0.0681785
0.0673177
0.0646224
0.0608234
0.0572864
0.0550807
0.0544405
0.0546678
0.0548379
0.0542364
0.052595
0.0500465
0.046968
0.0438613
0.0413222
0.0397205
0.0389944
0.0389065
0.0392516
0.0398683
0.0406236
0.0471707
0.0488726
0.0507007
0.0527881
0.0551071
0.0576484
0.060365
0.0629944
0.0647052
0.0649553
0.0634463
0.0605791
0.0575401
0.0552723
0.0538973
0.0529046
0.052137
0.0515884
0.0510878
0.0505673
0.0500444
0.0495496
0.0501029
0.0528009
0.0559318
0.0595389
0.0635526
0.0676953
0.0714988
0.0748258
0.0771399
0.0783214
0.0784411
0.0776332
0.0760312
0.0737828
0.0710951
0.0682402
0.0655522
0.0631996
0.061223
0.0595673
0.0581755
0.0569786
0.0464323
0.0485555
0.0509737
0.0536887
0.0566479
0.0597224
0.0627503
0.0649666
0.066603
0.0676225
0.0680377
0.0680681
0.0678309
0.0673344
0.0664672
0.0651927
0.0636328
0.061857
0.0600185
0.0582642
0.0566886
0.055294
0.0470873
0.0489594
0.0511329
0.0535482
0.0561059
0.0586575
0.0610415
0.0631082
0.0647813
0.0660542
0.0668565
0.0672035
0.0671691
0.0668433
0.0663061
0.0656242
0.0648102
0.0639939
0.0632918
0.0626504
0.062031
0.0613978
0.0456801
0.0466856
0.0478888
0.0492479
0.0507028
0.0521816
0.0536079
0.0549138
0.0560486
0.0570641
0.0578172
0.0583396
0.0586487
0.0587805
0.0587744
0.0586662
0.0584891
0.0582772
0.0579233
0.0574696
0.0569336
0.0563298
0.0462736
0.0467122
0.0472893
0.0480194
0.0488926
0.0498701
0.0509142
0.0519832
0.0530365
0.0540347
0.0549359
0.0557356
0.0563924
0.0568681
0.0571604
0.0572893
0.0572696
0.0571113
0.0568233
0.056427
0.0559529
0.0554316
0.0464506
0.0464999
0.0466501
0.046909
0.0472778
0.0477323
0.0482757
0.0488895
0.0495392
0.0501923
0.0508124
0.051354
0.0517904
0.0520374
0.0521212
0.0520417
0.0518001
0.0514285
0.0509709
0.0504721
0.049973
0.0495238
0.0469184
0.0467487
0.0466555
0.0466454
0.0467295
0.0469147
0.0471876
0.0475307
0.0479485
0.0484025
0.0488464
0.0492314
0.0494972
0.0496739
0.0497339
0.0496698
0.0495393
0.0493875
0.0492674
0.0492289
0.0493144
0.0495553
0.0467124
0.0463981
0.0461647
0.0459916
0.0458874
0.045856
0.045898
0.0459923
0.0461342
0.0462958
0.0464515
0.0465652
0.0466529
0.0467195
0.0467729
0.0468593
0.0470221
0.0473022
0.0477357
0.0483476
0.0491484
0.050135
0.0459427
0.0455398
0.0451884
0.0448855
0.0446379
0.0444492
0.044319
0.0442508
0.0442313
0.0442765
0.04439
0.044578
0.0448863
0.0453276
0.0459144
0.0466713
0.0476096
0.0487289
0.0500163
0.0514472
0.0529884
0.0546015
0.0444303
0.0439418
0.0434955
0.0431011
0.0427702
0.0425157
0.0423539
0.0423001
0.0423782
0.0426195
0.0430518
0.0437104
0.044606
0.0457173
0.0470314
0.0485303
0.0501826
0.0519567
0.0538166
0.0557269
0.0576554
0.0595748
0.0424369
0.0419272
0.0414877
0.0411394
0.0409127
0.0408262
0.0409133
0.041205
0.0417337
0.0425235
0.0436007
0.0449732
0.046596
0.0483986
0.0503349
0.0523569
0.0544243
0.056493
0.058526
0.0604921
0.0623653
0.0641249
0.0405541
0.0401818
0.0399496
0.0398719
0.0399841
0.0403159
0.040893
0.0417415
0.0428612
0.0442641
0.0459453
0.0478752
0.049963
0.0521109
0.0542605
0.0563783
0.0584247
0.0603678
0.0621862
0.0638657
0.0653986
0.0667829
0.0395131
0.0394614
0.0395973
0.0399484
0.0405351
0.0413716
0.0424736
0.0438196
0.0454098
0.0472252
0.0492377
0.0513946
0.0535868
0.0557103
0.057749
0.0596663
0.0614401
0.0630589
0.0645187
0.0658206
0.0669702
0.0679761
0.0397051
0.0400432
0.0405949
0.0413715
0.0423764
0.0436129
0.0450538
0.0466871
0.0484882
0.0504246
0.0524581
0.0545264
0.0565243
0.0584053
0.0601336
0.0616978
0.0630945
0.0643265
0.0654009
0.0663275
0.0671184
0.0677869
0.0410072
0.0416833
0.0425585
0.04363
0.0448847
0.0463028
0.0478668
0.0495504
0.0513221
0.0531464
0.0549758
0.0567741
0.0584673
0.059996
0.0613541
0.0625437
0.0635722
0.0644499
0.0651895
0.0658048
0.0663101
0.0667197
0.0429713
0.0438572
0.0449028
0.046092
0.0474103
0.048836
0.0503447
0.0519082
0.0534963
0.0550631
0.0566096
0.0580839
0.0594211
0.0605898
0.0615954
0.0624476
0.063159
0.0637435
0.064216
0.0645913
0.0648839
0.065108
0.0451143
0.0460758
0.0471509
0.0483237
0.0495758
0.0508854
0.0522283
0.053575
0.0549018
0.0561987
0.0574337
0.0585749
0.0595776
0.0604262
0.0611316
0.0617074
0.0621685
0.0625303
0.0628079
0.0630161
0.0631687
0.063279
0.0471084
0.0480417
0.0490494
0.050116
0.0512232
0.0523516
0.053471
0.0545813
0.055654
0.05667
0.0576108
0.0584546
0.0591717
0.0597569
0.0602243
0.060589
0.0608666
0.0610728
0.0612221
0.0613284
0.0614043
0.0614614
0.0487845
0.0496231
0.0505073
0.0514223
0.0523469
0.0532732
0.0541835
0.0550606
0.055888
0.0566517
0.0573392
0.057936
0.0584243
0.0588062
0.059097
0.0593124
0.059468
0.0595784
0.0596574
0.0597174
0.0597693
0.0598228
0.0500849
0.0508019
0.0515395
0.0522923
0.0530432
0.0537793
0.0544872
0.0551542
0.0557688
0.0563209
0.0568026
0.0572056
0.057521
0.057756
0.0579261
0.0580467
0.0581327
0.0581975
0.0582535
0.058311
0.058379
0.0584649
0.0510481
0.0516382
0.0522373
0.0528357
0.0534222
0.0539863
0.054518
0.0550078
0.0554476
0.0558312
0.0561543
0.0564134
0.0566067
0.0567445
0.0568419
0.0569134
0.0569726
0.0570315
0.0571004
0.0571877
0.0572998
0.0574419
0.051756
0.0522239
0.0526914
0.0531508
0.0535936
0.0540117
0.0543977
0.054745
0.0550483
0.0553043
0.055512
0.055672
0.0557874
0.0558701
0.0559342
0.0559933
0.0560591
0.0561418
0.0562493
0.0563877
0.0565611
0.0567722
0.0522795
0.052635
0.0529867
0.053328
0.053652
0.0539524
0.054224
0.0544624
0.0546648
0.0548305
0.0549612
0.0550606
0.0551355
0.0551979
0.0552608
0.0553359
0.0554331
0.0555601
0.0557228
0.0559246
0.0561671
0.0564508
0.0526729
0.0529363
0.0531942
0.0534412
0.0536723
0.0538829
0.0540697
0.0542305
0.0543644
0.0544731
0.0545604
0.0546326
0.0546983
0.0547689
0.0548556
0.054968
0.0551137
0.0552979
0.0555239
0.0557928
0.056104
0.0564556
0.052996
0.0531864
0.0533715
0.0535474
0.0537105
0.0538579
0.0539879
0.0540998
0.0541948
0.0542761
0.0543494
0.0544228
0.0545055
0.0546068
0.054736
0.0548998
0.0551034
0.0553496
0.055639
0.0559706
0.0563418
0.0567491
0.0532907
0.0534274
0.0535612
0.0536891
0.0538086
0.0539184
0.0540179
0.0541078
0.0541904
0.0542705
0.0543551
0.0544532
0.0545729
0.0547214
0.0549041
0.0551252
0.0553873
0.055691
0.0560349
0.0564162
0.056831
0.0572747
0.00182298
0.00195036
0.00208323
0.00227198
0.00251876
0.00285484
0.00333385
0.00405765
0.00519585
0.00700562
0.0098273
0.0140541
0.0201191
0.0279788
0.0340476
0.0387814
0.0429852
0.0465291
0.0493255
0.0505824
0.0507932
0.0495469
0.0435064
0.0365934
0.0299513
0.0242676
0.0198559
0.0163482
0.013494
0.011007
0.00872349
0.00638254
0.00368646
0.000959127
0.000637726
0.0168609
0.0184747
0.0202738
0.0223022
0.0245888
0.0271611
0.0300485
0.0332845
0.0369048
0.0409394
0.0453872
0.0501205
0.0549153
0.059467
0.0642682
0.0683298
0.0711772
0.0728903
0.0740035
0.0746561
0.075293
0.0758522
0.0772602
0.0792129
0.0804705
0.079436
0.0781599
0.0760189
0.0714413
0.0636177
0.0516623
0.036836
0.021488
0.00821706
0.000976796
0.0411482
0.041585
0.0421532
0.0429001
0.0438699
0.0451025
0.0466168
0.0484629
0.0507373
0.0535164
0.0566898
0.0598727
0.0624642
0.0637859
0.0641592
0.0640267
0.0640404
0.064627
0.0657886
0.066838
0.0681339
0.0723177
0.0784248
0.0854443
0.0900043
0.0906584
0.0874065
0.0810877
0.0723988
0.0618524
0.0498241
0.0366503
0.0228544
0.00970011
0.00101861
0.0491398
0.0488065
0.048481
0.0482431
0.0480245
0.0478071
0.0476202
0.0474699
0.0473584
0.0472825
0.0472387
0.0471582
0.0470232
0.0467699
0.0463287
0.0459672
0.0462214
0.0471561
0.0485605
0.0501778
0.0518721
0.0538071
0.0556467
0.0567801
0.0572052
0.0560921
0.0541519
0.0505328
0.0450931
0.0383645
0.0307408
0.0225066
0.0140212
0.00591978
0.000815434
0.0560476
0.0553136
0.0545233
0.0536699
0.0527302
0.0516547
0.0504197
0.0490009
0.0473709
0.0454724
0.0431925
0.0407475
0.0381317
0.0353961
0.0326273
0.0306478
0.0300343
0.0310671
0.0333509
0.0365047
0.0401278
0.0440439
0.047462
0.0491046
0.0488543
0.0473272
0.0444902
0.0402538
0.035181
0.0295572
0.0236154
0.0174876
0.0113069
0.0052309
0.000616812
0.0541979
0.0533507
0.0524078
0.0513394
0.0501252
0.0487604
0.047262
0.045808
0.0443975
0.0429197
0.0412041
0.0390618
0.0362476
0.0329922
0.0302546
0.0281841
0.025546
0.0226508
0.0201812
0.018369
0.0170623
0.0161433
0.0154912
0.0149721
0.0145279
0.0137168
0.0130159
0.0118206
0.0102124
0.00845946
0.00664672
0.00482144
0.00301238
0.00131541
0.000296275
0.0608157
0.0602643
0.0595787
0.0587343
0.0577078
0.0565025
0.0551756
0.0538491
0.0526887
0.0518321
0.0513466
0.0512561
0.0515205
0.0516887
0.0511761
0.0494406
0.0469132
0.0440137
0.0410071
0.037951
0.0345734
0.030768
0.0268701
0.0233137
0.0200498
0.0170929
0.0144491
0.0120702
0.009918
0.00796001
0.00614878
0.0044237
0.00268923
0.00105305
0.000218217
0.0558266
0.0554476
0.0550198
0.0545476
0.0540453
0.0535379
0.0530638
0.0526412
0.0523741
0.0523837
0.0528179
0.0537959
0.0552875
0.0570852
0.0587608
0.0597081
0.0597768
0.0589539
0.0570938
0.0541167
0.050227
0.0454484
0.0401909
0.0351603
0.0304159
0.0260538
0.0220282
0.0182934
0.0148177
0.0115788
0.00857103
0.00583068
0.00341079
0.00139276
0.000184706
0.0550399
0.0547772
0.0544885
0.0541813
0.0538702
0.0535818
0.0533591
0.053303
0.0534798
0.05401
0.0549791
0.0563277
0.0579186
0.0597228
0.0617424
0.0636048
0.0648611
0.0652673
0.064685
0.063035
0.0604499
0.0567527
0.0520375
0.0468678
0.041455
0.0359895
0.030661
0.0255364
0.020676
0.016123
0.0119078
0.00804839
0.00459807
0.00175447
0.000252274
0.0492657
0.0491637
0.0491179
0.0491549
0.0493114
0.049636
0.0501894
0.051045
0.052279
0.0539561
0.0560941
0.0587322
0.0618239
0.0650975
0.0680519
0.0699795
0.0707717
0.0706071
0.0695672
0.0676411
0.0646802
0.060544
0.0553665
0.0498697
0.0442256
0.0385585
0.0329857
0.0275814
0.0224171
0.0175555
0.0130484
0.0089413
0.00528691
0.00220217
0.000215828
0.0498736
0.0501874
0.0506066
0.0511609
0.0518843
0.0528137
0.0539859
0.0554306
0.0571869
0.0592921
0.0617201
0.0644051
0.0671707
0.069766
0.0718531
0.0731876
0.0736406
0.0733055
0.0721984
0.070276
0.0673899
0.0633426
0.0582106
0.0526868
0.0469031
0.0409878
0.0350768
0.0293027
0.0237682
0.0185502
0.013706
0.00928505
0.00535581
0.00210391