/*--------------------------------*- C++ -*----------------------------------*\
  =========                 |
  \\      /  F ield         | OpenFOAM: The Open Source CFD Toolbox
   \\    /   O peration     | Website:  https://openfoam.org
    \\  /    A nd           | Version:  8
     \\/     M anipulation  |
\*---------------------------------------------------------------------------*/
FoamFile
{
    version     2.0;
    format      ascii;
    class       volScalarField;
    location    "0.43";
    object      nut;
}
// * * * * * * * * * * * * * * * * * * * * * * * * * * * * * * * * * * * * * //

dimensions      [0 2 -1 0 0 0 0];

internalField   nonuniform List<scalar> 
15677
(
0.000516832
0.00110076
0.00376397
0.0065067
0.00907936
0.0116678
0.0144759
0.0175755
0.0211533
0.0253098
0.0303292
0.0354722
0.0403594
0.0453539
0.0480701
0.0486409
0.0486164
0.0477797
0.0460363
0.0437321
0.0409373
0.0377378
0.0344271
0.0312149
0.028288
0.0257433
0.0235515
0.0215823
0.0196495
0.017526
0.0152749
0.0131079
0.0112694
0.00979136
0.0085888
0.000952049
0.00810274
0.0206677
0.0351514
0.049708
0.0624842
0.0714978
0.0758032
0.0772815
0.0768402
0.0763148
0.0745595
0.0722166
0.0704999
0.0700133
0.0696125
0.0689888
0.0685265
0.0677099
0.0664074
0.0644022
0.0616647
0.0584536
0.0551313
0.0521883
0.0497388
0.0476772
0.045925
0.0444497
0.0432426
0.0422317
0.0413203
0.0404105
0.0394724
0.0385382
0.00085505
0.00783237
0.0183756
0.0296244
0.0405177
0.0505106
0.0592881
0.066742
0.0723591
0.0754925
0.075342
0.0715934
0.0652124
0.0589145
0.0545898
0.0531686
0.0532404
0.0535936
0.0537875
0.0538583
0.0528364
0.0514956
0.0495863
0.0469116
0.0453297
0.0438629
0.0426754
0.0417884
0.0410716
0.0404499
0.0398292
0.039094
0.038473
0.0379375
0.0374586
0.000737563
0.00533063
0.012732
0.0205022
0.0280436
0.0350579
0.0412852
0.0463818
0.0498253
0.0515495
0.0523642
0.0514182
0.0495477
0.0467719
0.0437571
0.0414542
0.0403122
0.0412423
0.0431027
0.0445764
0.0448714
0.0457679
0.0469816
0.0476432
0.0475347
0.0467599
0.0454166
0.0441821
0.0432095
0.0422019
0.0410311
0.0401797
0.0392797
0.0383884
0.0377732
0.000501526
0.00382474
0.0082665
0.0127989
0.0175126
0.0222455
0.0269117
0.031216
0.0349154
0.0375655
0.0385277
0.0388313
0.0369658
0.0333634
0.028824
0.0246315
0.0213096
0.0202153
0.0213042
0.0227605
0.0247253
0.0260065
0.0262126
0.0264567
0.0267478
0.0274435
0.0282863
0.0294047
0.030337
0.0307477
0.0308572
0.031092
0.0315702
0.0324259
0.0336004
0.000219996
0.000969316
0.00215545
0.00331469
0.00455934
0.00589745
0.00725243
0.00856089
0.00964336
0.0101142
0.0107483
0.0108839
0.0110603
0.0113574
0.011891
0.0127849
0.014111
0.0159262
0.0180642
0.0201207
0.021465
0.0229628
0.0244571
0.0249557
0.025249
0.0258184
0.0269887
0.0289576
0.0309868
0.0326628
0.0337729
0.0343809
0.0346723
0.0348105
0.0348946
0.000242706
0.00131627
0.00293157
0.00425313
0.00547905
0.00687339
0.00849102
0.0102958
0.0122711
0.0145088
0.0171113
0.0199461
0.0229086
0.0260608
0.0290171
0.031567
0.0338091
0.0358287
0.0378288
0.039631
0.0410974
0.0419103
0.0422914
0.0424792
0.0426389
0.0428876
0.0431974
0.043499
0.0436442
0.0435739
0.0433424
0.0430061
0.0425825
0.0421365
0.0417116
0.000280025
0.00147204
0.00249884
0.00322856
0.00398088
0.00498162
0.00663876
0.00922595
0.0127033
0.0169249
0.0216362
0.0265638
0.031714
0.0369538
0.0415492
0.045254
0.0483637
0.0509138
0.0529409
0.0544661
0.0555043
0.0561383
0.0561997
0.0557226
0.0549298
0.0539099
0.0527275
0.0515366
0.0505222
0.0496723
0.04894
0.0482629
0.0476442
0.0470757
0.0465503
0.000177779
0.000613378
0.00185014
0.00365591
0.00595029
0.00879191
0.0122436
0.0163426
0.0211175
0.026353
0.0317661
0.0370914
0.0419705
0.046335
0.0497552
0.052256
0.0540712
0.055367
0.0562377
0.0567835
0.057108
0.0572952
0.0574289
0.0575409
0.0575898
0.0574831
0.0572481
0.05684
0.0562536
0.0556015
0.054964
0.0543728
0.0538371
0.0533605
0.0529435
0.000175967
0.00162078
0.00400029
0.00690014
0.0102325
0.0139498
0.0180105
0.0223688
0.0269662
0.0317094
0.0364993
0.0412682
0.0458553
0.0501275
0.0535555
0.0560978
0.0579459
0.0591697
0.059896
0.0602366
0.0602765
0.06007
0.0596942
0.0591839
0.0585687
0.0579066
0.0572684
0.0566726
0.0561207
0.0556128
0.0551494
0.0547309
0.0543565
0.0540251
0.0537349
0.000210641
0.00156222
0.0040688
0.00717525
0.0107378
0.0147086
0.0190557
0.0237356
0.0286798
0.0337936
0.038965
0.0440392
0.0488217
0.0531261
0.0563948
0.0586395
0.0601021
0.0609241
0.06124
0.0611976
0.060898
0.0604463
0.0599617
0.0594938
0.059031
0.0585565
0.0580688
0.0575779
0.0570991
0.05664
0.0562108
0.0558189
0.0554665
0.0551521
0.0548723
0.000202326
0.00184684
0.00463263
0.00805757
0.0119714
0.0162918
0.0209488
0.0258747
0.0309948
0.0362155
0.0414124
0.0464442
0.051157
0.0553622
0.0585181
0.0606407
0.0619679
0.0626448
0.0627944
0.0625073
0.0619011
0.0610975
0.0602439
0.0594063
0.0586078
0.0578715
0.0572072
0.0566134
0.0560842
0.0556127
0.0551926
0.0548184
0.0544853
0.0541891
0.053926
0.000215474
0.0017922
0.00463344
0.00815828
0.0121996
0.0166786
0.0215243
0.0266543
0.0319705
0.0373675
0.0427405
0.0479362
0.0527718
0.0570356
0.0601658
0.0621904
0.0633549
0.0638104
0.0636982
0.06315
0.0622895
0.0612678
0.0602561
0.0593203
0.0584747
0.0577146
0.0570318
0.0564199
0.055872
0.0553812
0.0549413
0.0545462
0.0541906
0.0538699
0.05358
0.000212352
0.00192626
0.00489364
0.00854594
0.0127157
0.0173201
0.0222872
0.0275345
0.0329675
0.0384846
0.0439619
0.0492509
0.0541757
0.0585257
0.0617266
0.063792
0.0649549
0.0653576
0.0651419
0.0644456
0.0633985
0.0621645
0.0609351
0.0597829
0.0587332
0.0577943
0.0569633
0.0562306
0.0555847
0.0550146
0.0545104
0.054063
0.053664
0.0533064
0.0529842
0.000217256
0.00190984
0.0049039
0.00859563
0.0128086
0.0174579
0.0224753
0.0277895
0.0333131
0.0389469
0.0445652
0.0500089
0.0550857
0.059559
0.0628509
0.0649636
0.0661366
0.0665152
0.0662456
0.0654715
0.0643277
0.0629877
0.0616562
0.0604118
0.0592808
0.0582681
0.0573677
0.0565693
0.0558612
0.0552314
0.0546692
0.0541656
0.0537132
0.0533062
0.0529392
0.000216267
0.00197904
0.00503725
0.00879382
0.013073
0.0177876
0.0228662
0.0282333
0.0338026
0.039487
0.0451698
0.0506992
0.0558923
0.0605251
0.063959
0.0661757
0.0674198
0.067845
0.0675936
0.0668018
0.0656036
0.0641804
0.0627532
0.0614111
0.060187
0.0590883
0.0581102
0.057242
0.0564714
0.0557862
0.0551751
0.0546284
0.0541375
0.0536954
0.0532927
0.000218091
0.0019806
0.00505254
0.00881362
0.0130902
0.0178019
0.0228871
0.0282786
0.0338932
0.0396407
0.0454093
0.0510441
0.05636
0.0611307
0.0646537
0.0669546
0.068284
0.0687826
0.0685884
0.0678368
0.066657
0.0652251
0.0637742
0.0624053
0.0611498
0.0600163
0.0590016
0.0580965
0.0572898
0.0565699
0.0559261
0.0553487
0.0548295
0.0543586
0.0539334
0.000218223
0.00202889
0.00513431
0.00892302
0.0132223
0.0179505
0.0230445
0.0284395
0.034057
0.0398111
0.045604
0.0512832
0.0566672
0.0615103
0.0651888
0.0676411
0.0690953
0.0696869
0.069555
0.0688398
0.0676778
0.0662504
0.0647932
0.0634052
0.0621263
0.0609683
0.0599282
0.0589972
0.0581648
0.0574198
0.0567518
0.0561512
0.0556066
0.0551153
0.05467
0.000219378
0.00204555
0.00517134
0.00896608
0.0132603
0.0179778
0.0230614
0.0284512
0.0340703
0.0398289
0.0456408
0.0513554
0.0567978
0.0617515
0.0655372
0.0680965
0.0696573
0.0703477
0.0703005
0.0696508
0.0685307
0.0671143
0.0656335
0.064206
0.0628848
0.0616874
0.0606155
0.0596613
0.0588123
0.0580558
0.0573804
0.056776
0.0562308
0.0557418
0.0553018
0.000220058
0.00208502
0.00523523
0.00904494
0.0133467
0.0180649
0.0231423
0.0285193
0.0341226
0.0398608
0.045654
0.0513626
0.0568169
0.0618089
0.0656615
0.0683051
0.0699609
0.0707479
0.0707918
0.0702241
0.0691777
0.0678301
0.0664177
0.0650451
0.063754
0.0625664
0.0614886
0.0605187
0.059651
0.0588769
0.0581868
0.057571
0.0570189
0.0565234
0.0560797
0.000220987
0.00211092
0.00528449
0.00910874
0.0134173
0.0181357
0.023207
0.0285718
0.0341589
0.0398763
0.0456354
0.0513175
0.0567554
0.0617416
0.0656192
0.0683135
0.0700382
0.0709034
0.0710259
0.0705309
0.0695481
0.0682519
0.0668785
0.0655416
0.0642927
0.0631504
0.0621169
0.0611866
0.0603511
0.0596013
0.0589281
0.0583228
0.0577777
0.057285
0.0568403
0.000222004
0.00214864
0.00535523
0.00920344
0.0135284
0.0182556
0.0233269
0.0286817
0.0342496
0.0399374
0.0456457
0.0512748
0.0566577
0.0616038
0.0654628
0.0681698
0.0699326
0.0708528
0.0710379
0.0706046
0.0696771
0.0684261
0.0670866
0.0657753
0.0645447
0.0634163
0.0623949
0.0614762
0.0606527
0.0599153
0.059255
0.0586635
0.0581329
0.0576565
0.0572284
0.000223195
0.00218306
0.00542362
0.00929979
0.0136469
0.0183898
0.0234686
0.0288207
0.0343734
0.040035
0.0456929
0.0512549
0.0565597
0.0614208
0.0652342
0.0679185
0.0696856
0.0706333
0.0708605
0.0704749
0.0695933
0.0683818
0.0670729
0.0657857
0.064575
0.0634644
0.0624596
0.0615574
0.0607504
0.0600298
0.0593865
0.0588119
0.0582982
0.0578383
0.0574259
0.000224437
0.00222248
0.00550296
0.00941401
0.0137909
0.0185571
0.0236506
0.0290059
0.0345472
0.0401834
0.0457983
0.0512812
0.0565003
0.0612683
0.0649854
0.0676055
0.069342
0.0702881
0.070535
0.0701814
0.0693355
0.0681575
0.0668757
0.0656106
0.0644195
0.0633272
0.0623407
0.0614572
0.0606692
0.0599679
0.0593439
0.0587883
0.0582932
0.0578514
0.0574566
0.000225748
0.00226117
0.00558354
0.0095335
0.0139456
0.0187416
0.0238569
0.0292227
0.0347594
0.0403741
0.0459496
0.0513537
0.0564747
0.0611239
0.0647265
0.0672622
0.0689407
0.0698579
0.0701018
0.0697632
0.068942
0.0677914
0.0665337
0.0652895
0.0641173
0.0630436
0.062076
0.0612119
0.0604441
0.0597632
0.0591597
0.0586244
0.0581494
0.0577273
0.0573516
0.000227065
0.00230172
0.005669
0.00966187
0.0141139
0.0189448
0.0240874
0.0294691
0.0350064
0.0406022
0.0461413
0.0514835
0.0564959
0.0610211
0.064493
0.0669247
0.0685177
0.0693804
0.0695989
0.0692584
0.0684507
0.0673217
0.0660858
0.0648619
0.0637088
0.0626539
0.0617054
0.060861
0.0601133
0.0594531
0.0588707
0.0583569
0.057903
0.0575017
0.0571463
0.000228366
0.00234192
0.00575519
0.00979324
0.0142883
0.0191579
0.024332
0.0297344
0.0352776
0.0408598
0.0463643
0.0516516
0.0565638
0.0609616
0.0643037
0.0666031
0.0680958
0.0688848
0.0690589
0.0687007
0.0678956
0.0667826
0.0655672
0.0643642
0.063232
0.062198
0.0612708
0.0604481
0.0597227
0.059085
0.0585253
0.0580339
0.0576023
0.0572227
0.0568883
0.000229615
0.00238223
0.00584224
0.00992681
0.0144667
0.0193773
0.0245855
0.0300119
0.0355647
0.0411378
0.0466094
0.051842
0.0566764
0.06094
0.0641439
0.0663127
0.0676954
0.0683939
0.0685072
0.0681171
0.0673046
0.0662028
0.065007
0.0638269
0.0627189
0.0617096
0.0608074
0.0600103
0.0593106
0.0586987
0.0581646
0.0576983
0.0572912
0.0569354
0.0566238
0.000230787
0.00242167
0.00592799
0.0100591
0.0146443
0.0195967
0.0248405
0.0302929
0.0358582
0.0414262
0.0468704
0.0520484
0.0568026
0.0609625
0.0640233
0.0660646
0.0673176
0.0679195
0.0679608
0.0675273
0.0666983
0.0656027
0.0644259
0.063271
0.062191
0.0612113
0.0603394
0.0595728
0.0589037
0.0583221
0.0578176
0.0573803
0.0570011
0.056672
0.0563861
0.000231825
0.00245955
0.00601079
0.0101876
0.0148176
0.0198117
0.0250914
0.0305705
0.03615
0.0417156
0.0471367
0.0522669
0.0569447
0.0609966
0.0639355
0.0658461
0.0669699
0.067469
0.0674291
0.066943
0.0660889
0.0649944
0.0638348
0.0627062
0.0616576
0.0607118
0.0598751
0.0591441
0.0585104
0.0579637
0.0574931
0.0570885
0.0567407
0.0564414
0.0561836
0.00721018
0.00579252
0.00461747
0.00367847
0.00294763
0.0023643
0.0019061
0.00151213
0.00115169
0.000930228
0.000688195
0.000565315
0.000486204
0.000423052
0.00036848
0.000323958
0.000291446
0.000269651
0.00026288
0.000264725
0.000322515
0.000338165
0.0372965
0.0356958
0.0339633
0.0321826
0.0303162
0.0276749
0.0250061
0.0223609
0.019726
0.0177596
0.0159001
0.0142211
0.013788
0.0129294
0.0114656
0.00993527
0.00861816
0.0073259
0.0060726
0.00486684
0.00377566
0.00260047
0.0368559
0.0359919
0.0350281
0.034049
0.0331092
0.0322843
0.0317393
0.0317773
0.0326779
0.0345853
0.0374692
0.0405899
0.042538
0.0423437
0.040098
0.0362157
0.0314304
0.0262869
0.0212108
0.0164223
0.0135214
0.0136317
0.0374192
0.0376425
0.0386457
0.0400978
0.0416147
0.0427825
0.043356
0.0429127
0.0410114
0.0377393
0.0338289
0.030451
0.0288182
0.0281765
0.0277767
0.0270294
0.0259512
0.0246069
0.0234505
0.0231047
0.023075
0.0238649
0.0355947
0.0385989
0.0420578
0.045507
0.048427
0.0503978
0.051084
0.0505417
0.0488235
0.0460251
0.0422923
0.0384696
0.0351112
0.0325622
0.0308788
0.029909
0.0292352
0.0287345
0.0283669
0.0285043
0.0289162
0.0291632
0.0350041
0.0350851
0.035493
0.0362916
0.0374154
0.0386997
0.040025
0.0411657
0.0418388
0.0419228
0.0413357
0.0401774
0.0383022
0.0363942
0.0347209
0.0334051
0.0325227
0.0320446
0.0319068
0.0316631
0.0315397
0.0319172
0.0410619
0.0400341
0.0390075
0.0380909
0.0374082
0.0370668
0.0371432
0.0376464
0.0384889
0.0394829
0.0404052
0.0410442
0.0412035
0.0408555
0.0400537
0.0390868
0.0381344
0.0373168
0.0366319
0.0360182
0.0355282
0.0351575
0.0457916
0.0447053
0.0435997
0.0425177
0.0415182
0.0406388
0.0399276
0.0394333
0.0391936
0.0392216
0.0394902
0.0399183
0.0403948
0.0408516
0.0412621
0.0413949
0.0412197
0.040792
0.0401946
0.0395682
0.0389837
0.0384614
0.0523745
0.0516145
0.050828
0.0500037
0.0491308
0.0482077
0.0472611
0.0463228
0.0454276
0.0446141
0.0439257
0.0433988
0.043047
0.042844
0.0427342
0.0426479
0.0425253
0.0423289
0.0420436
0.0416746
0.04124
0.0407717
0.0533681
0.0528758
0.0523483
0.051767
0.0511113
0.0503917
0.0496161
0.0488098
0.0479796
0.0471401
0.0463137
0.0455338
0.0448443
0.0442707
0.0438048
0.0434266
0.0431088
0.0428231
0.0425456
0.0422598
0.041956
0.0416296
0.0545328
0.0541017
0.0536437
0.0531519
0.0526185
0.0520367
0.051425
0.0508176
0.050194
0.0495234
0.0487931
0.0480225
0.0472518
0.04652
0.0458412
0.0452216
0.0446605
0.0441527
0.0436896
0.0432612
0.042858
0.042472
0.0536305
0.0532793
0.0529227
0.0525625
0.0521968
0.0518256
0.0514098
0.0508879
0.0502886
0.049648
0.0489834
0.048294
0.047599
0.0469208
0.0462672
0.045645
0.0450587
0.0445105
0.0439998
0.0435242
0.0430802
0.0426636
0.0532401
0.0528319
0.0524142
0.0519852
0.0515476
0.0511074
0.0506521
0.0501692
0.0496494
0.0490898
0.048491
0.0478589
0.0472138
0.0465763
0.0459526
0.0453487
0.0447696
0.0442191
0.0436995
0.0432119
0.042756
0.0423306
0.0526013
0.0521386
0.0516649
0.0511723
0.0506662
0.0501533
0.0496401
0.0491117
0.0485602
0.0479818
0.0473742
0.046741
0.0461011
0.0454728
0.0448606
0.044269
0.043702
0.0431629
0.0426542
0.0421774
0.0417332
0.0413216
0.0524811
0.0519144
0.0513487
0.0507865
0.0502178
0.049628
0.0490095
0.0483728
0.0477173
0.0470396
0.046338
0.0456174
0.0448998
0.0442043
0.0435351
0.042896
0.0422905
0.041721
0.0411895
0.040697
0.0402441
0.0398305
0.0527753
0.0521157
0.0514483
0.0507724
0.0500862
0.0493862
0.0486627
0.0479177
0.0471524
0.0463583
0.0455375
0.0446974
0.0438646
0.0430616
0.0422935
0.0415645
0.0408787
0.040239
0.0396473
0.0391043
0.0386104
0.0381656
0.053372
0.0526429
0.0518996
0.0511406
0.0503636
0.0495662
0.0487483
0.0478986
0.047021
0.0461131
0.0451739
0.0442114
0.0432558
0.0423327
0.0414533
0.0406191
0.0398328
0.0391018
0.0384287
0.0378142
0.0372587
0.0367536
0.0540805
0.0533099
0.0525209
0.0517112
0.0508773
0.0500145
0.049126
0.0482146
0.0472672
0.0462826
0.0452605
0.0442097
0.0431635
0.0421499
0.0411763
0.0402499
0.0393767
0.0385621
0.0378186
0.0371401
0.0365272
0.0359698
0.0547183
0.0539457
0.0531505
0.0523312
0.051487
0.0506182
0.0497211
0.0487883
0.0478141
0.0467979
0.0457402
0.0446501
0.0435607
0.0425016
0.0414809
0.0405063
0.0395854
0.0387248
0.0379311
0.0372082
0.0365662
0.0359893
0.0554856
0.0546949
0.0538866
0.0530602
0.0522136
0.051348
0.0504498
0.0495101
0.0485317
0.0475129
0.046453
0.0453611
0.0442716
0.0432071
0.042183
0.041208
0.040287
0.0394267
0.0386322
0.0379089
0.0372617
0.036691
0.0562445
0.0554612
0.0546595
0.0538342
0.0529841
0.0521152
0.0512212
0.0502873
0.0493221
0.0483218
0.047285
0.04622
0.0451594
0.04413
0.0431387
0.042187
0.0412895
0.0404575
0.0396912
0.0389951
0.0383735
0.0378299
0.0566706
0.0559534
0.0551958
0.0544203
0.053614
0.0527769
0.0519198
0.0510237
0.0500897
0.0491247
0.0481281
0.0471077
0.0460946
0.0451141
0.0441719
0.043274
0.0424244
0.0416273
0.0409048
0.0402511
0.0396688
0.0391619
0.0569103
0.0562486
0.0555578
0.0548269
0.0540694
0.0532859
0.0524736
0.0516423
0.0507657
0.0498519
0.048907
0.0479407
0.0469832
0.0460587
0.0451721
0.044329
0.0435353
0.0427942
0.0421075
0.0414971
0.0409559
0.0404853
0.0569859
0.0563831
0.0557542
0.0550955
0.0543995
0.0536651
0.05291
0.0521267
0.0513243
0.0504736
0.0495873
0.0486791
0.0477791
0.0469109
0.0460792
0.0452892
0.0445464
0.0438556
0.0432193
0.0426383
0.0421315
0.0416946
0.05692
0.0563765
0.0558095
0.0552158
0.054592
0.0539338
0.0532273
0.0525027
0.0517498
0.0509785
0.0501582
0.0493105
0.0484676
0.0476533
0.0468728
0.0461312
0.0454335
0.0447849
0.0441895
0.0436493
0.0431637
0.0427503
0.0567518
0.0562635
0.0557551
0.0552232
0.0546642
0.0540747
0.0534505
0.0527792
0.0520811
0.0513593
0.0506196
0.0498372
0.0490515
0.0482886
0.0475552
0.0468565
0.0461978
0.0455838
0.045019
0.044507
0.0440495
0.0436524
0.0565276
0.0560867
0.0556299
0.0551534
0.0546535
0.0541265
0.0535686
0.0529755
0.0523371
0.0516647
0.0509724
0.0502671
0.0495413
0.0488289
0.0481394
0.0474795
0.0468545
0.0462693
0.0457284
0.0452356
0.044794
0.0444076
0.0562942
0.055893
0.0554791
0.0550494
0.0546002
0.0541275
0.0536274
0.0530962
0.0525297
0.0519188
0.0512696
0.0506079
0.0499501
0.0492896
0.0486426
0.0480184
0.0474234
0.0468628
0.0463412
0.0458624
0.0454297
0.045047
0.0560873
0.0557215
0.0553445
0.0549539
0.0545466
0.054119
0.0536673
0.0531877
0.0526763
0.0521294
0.0515386
0.0509127
0.0502919
0.0496872
0.049083
0.0484924
0.0479245
0.0473853
0.0468796
0.0464116
0.0459847
0.045603
0.0559189
0.0555919
0.0552521
0.0548983
0.0545281
0.0541388
0.0537271
0.0532895
0.0528225
0.0523226
0.0517863
0.0512105
0.0506176
0.050041
0.0494796
0.0489214
0.0483779
0.047857
0.0473643
0.0469042
0.0464803
0.0460971
0.000367267
0.000343231
0.000375536
0.000558432
0.00111434
0.00172835
0.00224844
0.00373553
0.00688452
0.00977018
0.0120121
0.013613
0.0177318
0.025422
0.0333426
0.0406965
0.0468901
0.0515475
0.0256958
0.0281635
0.0319943
0.0354597
0.0381928
0.0403262
0.0296562
0.0318223
0.0336325
0.0355636
0.0375604
0.0395315
0.0327748
0.0332631
0.0340652
0.035189
0.0366106
0.0382997
0.0350307
0.0351119
0.0354321
0.0360582
0.0370096
0.0382993
0.0380261
0.037681
0.0375129
0.03755
0.0377984
0.0383435
0.0403107
0.0398946
0.0394892
0.0392003
0.0390552
0.0390945
0.0412918
0.0409143
0.0405354
0.0401964
0.039898
0.0396788
0.0420941
0.0416808
0.0412676
0.0408664
0.0405003
0.0401838
0.0422377
0.0417711
0.0413168
0.0408817
0.0404766
0.0401138
0.0418651
0.0413408
0.0408377
0.0403607
0.0399168
0.0395135
0.0408333
0.0402597
0.0397136
0.0391997
0.0387238
0.0382917
0.039315
0.0386932
0.0381066
0.0375609
0.0370629
0.0366191
0.0376151
0.0369614
0.0363589
0.0358161
0.0353408
0.0349361
0.0361773
0.0355398
0.0349836
0.0345116
0.0341345
0.0338635
0.035397
0.0348449
0.0343996
0.0340597
0.0338465
0.0337679
0.0354558
0.0350401
0.0347272
0.0345513
0.0345197
0.0346361
0.0362212
0.0359346
0.0357684
0.0357452
0.0358684
0.0361377
0.0374285
0.0372513
0.037203
0.0372913
0.0375169
0.0378766
0.0388205
0.0387199
0.0387425
0.0388916
0.0391651
0.0395608
0.0401921
0.0401355
0.040187
0.0403525
0.040628
0.0410273
0.0414323
0.0413913
0.041441
0.0415953
0.0418467
0.042204
0.0424882
0.042439
0.0424824
0.0426058
0.0428131
0.043106
0.0433804
0.0433091
0.0433159
0.0434038
0.0435606
0.0437831
0.0441352
0.0440339
0.044001
0.044036
0.044136
0.044296
0.0447744
0.0446417
0.0445692
0.0445565
0.0446008
0.0447003
0.0453223
0.0451627
0.0450548
0.0449989
0.0449926
0.0450354
0.0458073
0.0456251
0.0454871
0.0453936
0.0453431
0.0453354
0.00200001
0.00215976
0.00223864
0.00229555
0.0023258
0.00227848
0.00210275
0.00179984
0.00141641
0.00102952
0.000745132
0.000629278
0.000670032
0.000806779
0.000963861
0.00110214
0.00119295
0.0012352
0.00123739
0.00124401
0.00128257
0.00132121
0.0143752
0.0152042
0.0157198
0.0160694
0.0156862
0.0152744
0.0143199
0.0127654
0.010657
0.00839424
0.00658425
0.00588703
0.00557742
0.00557813
0.00581678
0.00629582
0.00680167
0.00759451
0.00861818
0.00994705
0.0115994
0.0135761
0.0540372
0.0549706
0.0542865
0.0521102
0.0490342
0.0461651
0.0443692
0.0438392
0.0440137
0.0441513
0.0436769
0.0423733
0.0403449
0.0378915
0.035415
0.0333931
0.0321237
0.0315575
0.0315076
0.0318033
0.0323189
0.0329452
0.0417219
0.0432362
0.0448621
0.0467164
0.048774
0.0510333
0.0534575
0.0558137
0.0573611
0.0576143
0.056302
0.0537761
0.0510905
0.0490785
0.0478504
0.0469532
0.046249
0.0457371
0.045266
0.0447775
0.0442884
0.0438292
0.0416228
0.0438344
0.0464048
0.049367
0.0526658
0.0560813
0.0592366
0.0620166
0.0639686
0.0649905
0.0651345
0.0645043
0.0632034
0.0613499
0.0591154
0.0567368
0.0544955
0.0525325
0.0508843
0.0495061
0.0483483
0.0473512
0.0401082
0.0419667
0.0440838
0.0464632
0.0490615
0.0517671
0.0544329
0.0563915
0.0578444
0.0587569
0.0591397
0.059184
0.0589923
0.0585719
0.0578266
0.0567214
0.0553662
0.0538223
0.0522229
0.0506958
0.0493237
0.0481098
0.0398102
0.0413866
0.0432171
0.0452505
0.0474024
0.0495465
0.0515466
0.053276
0.0546707
0.0557257
0.0563817
0.0566512
0.0565977
0.0562991
0.0558255
0.0552366
0.054543
0.0538508
0.0532575
0.0527179
0.0521982
0.0516651
0.0391006
0.0399717
0.0410126
0.0421889
0.0434495
0.0447322
0.0459709
0.0471071
0.0480971
0.0489855
0.0496496
0.0501162
0.0503999
0.050531
0.0505433
0.0504666
0.0503283
0.050158
0.0498641
0.0494829
0.0490292
0.0485165
0.0393533
0.0397236
0.0402115
0.0408296
0.0415692
0.0423966
0.0432795
0.0441825
0.0450708
0.045911
0.0466673
0.0473359
0.047882
0.0482738
0.0485097
0.0486068
0.0485779
0.0484315
0.0481754
0.0478281
0.0474155
0.0469632
0.0396353
0.0396805
0.039812
0.0400364
0.0403554
0.040748
0.0412171
0.0417468
0.0423077
0.042872
0.0434086
0.0438787
0.0442591
0.0444776
0.0445565
0.0444954
0.0442952
0.0439833
0.0435975
0.0431761
0.0427542
0.0423751
0.0399779
0.0398318
0.0397512
0.0397414
0.0398113
0.0399665
0.0401962
0.0404852
0.0408373
0.0412195
0.0415925
0.0419142
0.0421338
0.042277
0.0423205
0.0422583
0.0421396
0.0420032
0.0418944
0.0418554
0.0419225
0.0421219
0.0398325
0.0395637
0.0393644
0.0392167
0.0391276
0.0391006
0.0391358
0.0392158
0.0393365
0.0394743
0.0396071
0.0397043
0.0397796
0.0398371
0.0398837
0.0399587
0.0400993
0.0403404
0.0407128
0.0412378
0.0419242
0.0427697
0.0391686
0.0388231
0.038522
0.0382623
0.0380496
0.037887
0.037774
0.0377135
0.0376942
0.0377297
0.0378229
0.0379793
0.038238
0.0386101
0.0391059
0.0397468
0.0405423
0.041492
0.0425849
0.0438
0.0451091
0.0464798
0.0378847
0.037466
0.037084
0.0367463
0.0364625
0.0362438
0.0361041
0.0360562
0.0361206
0.036324
0.0366903
0.0372494
0.0380108
0.0389563
0.040075
0.0413517
0.0427596
0.0442719
0.0458577
0.047487
0.0491324
0.050771
0.0361848
0.0357478
0.0353714
0.0350726
0.0348773
0.0348015
0.0348734
0.0351195
0.0355674
0.0362377
0.0371529
0.0383196
0.0396998
0.0412333
0.042881
0.044602
0.0463618
0.048123
0.0498541
0.0515282
0.0531234
0.0546222
0.0345791
0.0342592
0.0340594
0.0339912
0.0340846
0.0343652
0.0348547
0.0355755
0.0365273
0.0377205
0.0391509
0.0407936
0.042571
0.0444
0.046231
0.0480353
0.0497793
0.0514356
0.0529859
0.0544183
0.055726
0.0569075
0.0336896
0.0336429
0.0337569
0.034054
0.034552
0.0352627
0.0361997
0.0373446
0.0386975
0.0402426
0.0419557
0.043792
0.0456588
0.0474674
0.049204
0.0508376
0.0523491
0.0537287
0.054973
0.0560829
0.0570631
0.0579207
0.0338503
0.034136
0.0346044
0.0352643
0.0361188
0.0371707
0.0383967
0.0397868
0.0413199
0.0429686
0.0447002
0.0464617
0.0481638
0.0497664
0.0512394
0.0525728
0.0537638
0.0548146
0.0557311
0.056522
0.0571973
0.0577679
0.0349571
0.0355312
0.0362753
0.0371866
0.0382542
0.0394611
0.0407924
0.0422257
0.0437343
0.0452879
0.0468463
0.0483783
0.0498213
0.0511242
0.0522821
0.0532966
0.0541738
0.0549227
0.055554
0.0560793
0.0565108
0.0568602
0.0366277
0.037381
0.0382706
0.0392826
0.0404046
0.0416183
0.0429029
0.0442344
0.0455871
0.0469219
0.0482396
0.0494962
0.0506361
0.0516327
0.0524905
0.0532177
0.0538249
0.0543241
0.0547279
0.0550488
0.0552991
0.0554903
0.0384513
0.0392695
0.0401844
0.0411828
0.0422487
0.0433639
0.0445077
0.0456548
0.0467852
0.0478904
0.0489431
0.0499161
0.0507714
0.0514953
0.0520974
0.0525891
0.0529831
0.0532924
0.05353
0.0537083
0.0538392
0.053933
0.0401483
0.0409429
0.0418008
0.0427089
0.0436517
0.0446128
0.0455665
0.0465125
0.0474268
0.0482929
0.0490952
0.049815
0.050427
0.0509266
0.0513259
0.0516377
0.0518753
0.0520518
0.0521799
0.0522713
0.0523365
0.0523849
0.0415749
0.0422892
0.043042
0.0438212
0.0446088
0.0453979
0.0461737
0.0469213
0.0476268
0.0482781
0.0488646
0.049374
0.0497911
0.0501175
0.0503663
0.0505507
0.0506841
0.0507789
0.0508469
0.0508986
0.0509431
0.050988
0.0426815
0.0432927
0.0439208
0.044562
0.0452018
0.0458291
0.0464326
0.0470014
0.0475256
0.0479967
0.048408
0.0487522
0.0490219
0.049223
0.0493687
0.0494723
0.0495461
0.0496019
0.04965
0.0496993
0.0497574
0.0498297
0.0435013
0.0440045
0.0445148
0.0450247
0.0455245
0.0460054
0.0464588
0.0468766
0.047252
0.0475795
0.0478556
0.0480772
0.0482427
0.0483608
0.0484444
0.0485059
0.0485567
0.0486073
0.0486662
0.0487406
0.0488361
0.0489561
0.0441036
0.044503
0.0449013
0.0452928
0.0456702
0.0460269
0.0463562
0.0466526
0.0469116
0.0471304
0.047308
0.0474449
0.0475439
0.0476148
0.0476699
0.0477206
0.0477768
0.0478473
0.047939
0.0480568
0.0482044
0.0483831
0.0445489
0.0448527
0.0451524
0.0454433
0.0457196
0.0459759
0.0462076
0.0464112
0.0465841
0.0467259
0.0468377
0.0469229
0.0469871
0.0470406
0.0470944
0.0471585
0.0472413
0.0473495
0.0474879
0.0476597
0.047866
0.0481064
0.0448833
0.0451087
0.0453285
0.045539
0.0457361
0.0459158
0.0460753
0.0462126
0.0463271
0.04642
0.0464947
0.0465565
0.0466128
0.046673
0.0467469
0.0468427
0.0469667
0.0471235
0.0473158
0.0475445
0.0478092
0.0481076
0.0451576
0.0453209
0.0454786
0.0456285
0.0457676
0.0458934
0.0460043
0.0460999
0.046181
0.0462504
0.0463131
0.0463757
0.0464462
0.0465325
0.0466425
0.0467819
0.0469552
0.0471646
0.0474108
0.047693
0.0480088
0.0483547
0.0454075
0.045525
0.0456389
0.0457478
0.0458497
0.0459433
0.0460281
0.0461048
0.0461753
0.0462435
0.0463156
0.0463991
0.0465011
0.0466274
0.0467829
0.046971
0.0471941
0.0474525
0.0477451
0.0480696
0.0484225
0.0487995
0.00141661
0.00151557
0.00161883
0.00176546
0.00195719
0.00221829
0.00259046
0.00315291
0.00403752
0.00544437
0.00763831
0.0109255
0.0156432
0.0217581
0.0264794
0.0301601
0.0334264
0.0361802
0.0383527
0.0393259
0.0394789
0.0384916
0.0337807
0.0284011
0.0232368
0.0188202
0.0153936
0.0126697
0.0104541
0.0085246
0.00675415
0.00494036
0.00285283
0.000742019
0.0004933
0.0154486
0.0169272
0.0185757
0.0204343
0.0225295
0.0248863
0.0275313
0.0304948
0.0338086
0.0374991
0.0415644
0.0458871
0.0502629
0.054415
0.0587855
0.0624771
0.0650565
0.0666005
0.0676026
0.0681993
0.0688071
0.0693702
0.0707223
0.0725448
0.0737028
0.0727371
0.0715408
0.0695512
0.0653334
0.0581481
0.047191
0.033624
0.0196
0.00749079
0.000890124
0.0333787
0.033743
0.0342144
0.0348316
0.0356307
0.0366444
0.0378887
0.0394038
0.0412673
0.0435399
0.0461312
0.0487242
0.0508309
0.0519087
0.0522359
0.0521573
0.0522042
0.0527223
0.0537077
0.0545967
0.055689
0.0591677
0.0642202
0.0699909
0.0737212
0.0742361
0.0715306
0.0663145
0.0591717
0.0505277
0.0406893
0.0299261
0.0186606
0.00792039
0.000831804
0.0434537
0.0431448
0.0428413
0.0426144
0.0424041
0.0421946
0.0420123
0.0418628
0.0417492
0.0416696
0.0416198
0.0415421
0.0414198
0.0411938
0.0408012
0.0404765
0.0406946
0.0415137
0.0427473
0.0441676
0.0456537
0.0473505
0.0489696
0.0499719
0.0503446
0.0493537
0.0476354
0.0444464
0.0396613
0.033745
0.0270415
0.0198002
0.0123368
0.0052094
0.000717745
0.0465776
0.0459699
0.0453157
0.0446097
0.0438326
0.0429431
0.0419215
0.0407476
0.0393984
0.0378259
0.0359363
0.0339094
0.0317406
0.0294718
0.0271746
0.0255337
0.0250299
0.025898
0.027809
0.0304444
0.0334696
0.0367361
0.0395935
0.0409749
0.0407815
0.0395218
0.0371675
0.0336422
0.0294136
0.0247197
0.019756
0.0146333
0.00946345
0.00437891
0.000516433
0.0471595
0.0464213
0.0456001
0.04467
0.0436133
0.0424257
0.0411196
0.0398501
0.0386162
0.0373221
0.0358203
0.033948
0.0314925
0.0286552
0.0262695
0.024465
0.0221693
0.0196516
0.017504
0.0159271
0.0147889
0.013987
0.0134168
0.0129632
0.012575
0.0118691
0.0112591
0.0102226
0.00883011
0.00731354
0.00574598
0.00416798
0.00260417
0.00113721
0.000256159
0.0511793
0.0507186
0.0501468
0.049441
0.0485807
0.0475683
0.0464534
0.0453386
0.0443627
0.0436421
0.043234
0.0431591
0.0433829
0.0435262
0.0430974
0.0416389
0.0395133
0.0370736
0.0345431
0.0319706
0.0291272
0.0259234
0.0226414
0.0196467
0.0168976
0.0144067
0.0121791
0.0101743
0.0083604
0.00671005
0.0051833
0.00372913
0.00226701
0.000887721
0.000183959
0.0480892
0.0477627
0.0473937
0.0469867
0.0465538
0.0461165
0.0457082
0.0453434
0.0451124
0.0451199
0.0454937
0.0463363
0.0476222
0.0491691
0.0506075
0.0514167
0.0514677
0.0507515
0.0491437
0.0465753
0.0432225
0.0391059
0.0345792
0.0302494
0.0261669
0.0224137
0.0189504
0.0157374
0.0127473
0.00996108
0.0073736
0.00501616
0.00293436
0.00119823
0.000158909
0.0466228
0.0463978
0.0461511
0.0458885
0.0456225
0.0453758
0.045185
0.0451359
0.0452854
0.0457355
0.0465587
0.0477044
0.0490558
0.0505916
0.0523134
0.0539004
0.0549731
0.0553239
0.0548357
0.0534417
0.0512534
0.0481211
0.0441239
0.0397401
0.0351499
0.030515
0.0259964
0.0216511
0.0175299
0.0136696
0.0100957
0.00682357
0.0038983
0.00148745
0.000213877
0.042158
0.0420718
0.0420338
0.0420671
0.0422028
0.0424825
0.0429585
0.0436936
0.044753
0.0461922
0.0480268
0.0502904
0.0529435
0.0557526
0.0582856
0.0599384
0.0606137
0.0604699
0.0595762
0.0579242
0.0553869
0.0518436
0.0474096
0.0427028
0.0378703
0.0330182
0.0282468
0.0236195
0.0191975
0.0150345
0.0111748
0.00765757
0.00452792
0.00188606
0.00018485
0.042387
0.0426527
0.0430083
0.0434786
0.0440926
0.044882
0.0458779
0.0471056
0.0485984
0.0503882
0.0524528
0.0547362
0.0570889
0.0592982
0.0610769
0.0622162
0.0626119
0.0623343
0.0613992
0.0597693
0.0573185
0.053879
0.0495153
0.0448171
0.0398974
0.0348655
0.0298372
0.0249254
0.0202175
0.0157789
0.0116584
0.00789788