/*--------------------------------*- C++ -*----------------------------------*\
  =========                 |
  \\      /  F ield         | OpenFOAM: The Open Source CFD Toolbox
   \\    /   O peration     | Website:  https://openfoam.org
    \\  /    A nd           | Version:  8
     \\/     M anipulation  |
\*---------------------------------------------------------------------------*/
FoamFile
{
    version     2.0;
    format      ascii;
    class       surfaceScalarField;
    location    "0.43";
    object      phi;
}
// * * * * * * * * * * * * * * * * * * * * * * * * * * * * * * * * * * * * * //

dimensions      [1 0 -1 0 0 0 0];

internalField   nonuniform List<scalar> 
31053
(
-4.52722e-06
1.17267e-05
-6.18942e-06
1.02177e-05
-7.9811e-06
1.20251e-05
-1.05702e-05
1.46576e-05
-1.46918e-05
1.8088e-05
-2.07603e-05
2.20753e-05
-2.86221e-05
2.61282e-05
-3.73552e-05
2.95383e-05
-4.50802e-05
3.14023e-05
-4.83699e-05
3.02289e-05
-4.01768e-05
2.24356e-05
-1.02573e-05
4.8451e-06
5.09155e-05
-2.16268e-05
0.000141204
-4.499e-05
0.000231349
-4.65582e-05
0.00031701
-4.16963e-05
0.000393607
-3.23737e-05
0.00046001
-2.20055e-05
0.000514499
-9.99725e-06
0.000554106
4.91261e-06
0.000572576
2.60862e-05
0.000566769
4.68855e-05
0.000544455
5.96543e-05
0.000515002
6.33677e-05
0.00048416
6.16544e-05
0.000455663
5.65088e-05
0.000430563
5.05962e-05
0.000409064
4.47292e-05
0.00039093
3.9306e-05
0.000375705
3.45038e-05
0.000362953
3.02801e-05
0.00035231
2.65625e-05
0.000343521
2.32548e-05
0.000336435
2.02469e-05
1.76967e-05
0.000330533
-6.56247e-05
7.73628e-05
-0.000145562
9.01637e-05
-0.000234591
0.000101057
-0.000330952
0.000111017
-0.000432723
0.000119852
-0.000537479
0.000126816
-0.000641834
0.000130461
-0.000740924
0.000128602
-0.000827442
0.000117897
-0.00089066
9.34246e-05
-0.000916953
4.87121e-05
-0.000893495
-1.85914e-05
-0.000807698
-0.000107356
-0.000670153
-0.000182384
-0.000528435
-0.000188092
-0.000387144
-0.000182762
-0.000250809
-0.000168476
-0.000119803
-0.000152802
6.22064e-06
-0.000135842
0.00012775
-0.00011647
0.000244454
-9.04652e-05
0.000340142
-4.85832e-05
0.000410673
-1.06093e-05
0.00046339
1.09526e-05
0.000504253
2.1029e-05
0.00053587
2.50931e-05
0.000560566
2.6078e-05
0.000579948
2.55061e-05
0.000595284
2.41137e-05
0.000607667
2.22505e-05
0.000618066
1.99964e-05
0.000627201
1.7531e-05
0.000635551
1.49957e-05
0.000643406
1.24727e-05
9.72338e-06
0.000651449
-1.16528e-06
7.84861e-05
1.73105e-06
8.72237e-05
7.77717e-06
9.49627e-05
1.573e-05
0.00010301
2.47625e-05
0.000110759
3.43269e-05
0.000117182
4.38591e-05
0.000120849
5.2678e-05
0.00011969
5.97912e-05
0.000110676
6.27613e-05
9.03319e-05
5.61381e-05
5.52127e-05
2.9558e-05
7.85272e-06
-4.76473e-05
-3.02637e-05
-0.000168693
-6.14439e-05
-0.000279894
-7.6967e-05
-0.000372352
-9.03626e-05
-0.000443213
-9.76869e-05
-0.000500619
-9.54897e-05
-0.000554535
-8.20861e-05
-0.000611969
-5.92918e-05
-0.000669332
-3.35291e-05
-0.000703404
-1.48972e-05
-0.000704161
-1.01895e-05
-0.000677364
-1.61568e-05
-0.000631819
-2.48283e-05
-0.000577196
-2.96412e-05
-0.000518067
-3.30897e-05
-0.000457511
-3.50579e-05
-0.000397571
-3.5817e-05
-0.000339625
-3.56841e-05
-0.000284671
-3.49516e-05
-0.000233319
-3.38142e-05
-0.000185935
-3.23902e-05
-0.000142665
-3.07956e-05
-2.86657e-05
-0.000104286
3.64051e-05
4.21189e-05
7.15092e-05
5.21607e-05
0.000107877
5.86406e-05
0.000147145
6.37931e-05
0.000190135
6.78282e-05
0.000236953
7.04331e-05
0.000286979
7.09028e-05
0.000338511
6.8253e-05
0.000387971
6.13294e-05
0.000428829
4.96095e-05
0.000448576
3.56262e-05
0.00043321
2.34158e-05
0.00039534
7.82587e-06
0.000360535
-2.6389e-05
0.000341673
-5.78796e-05
0.000334474
-8.29145e-05
0.000334824
-9.77993e-05
0.000335745
-9.61798e-05
0.000330609
-7.67097e-05
0.00031397
-4.24146e-05
0.000285625
-4.87333e-06
0.000269001
1.9033e-06
0.000270132
-1.1192e-05
0.000288416
-3.42785e-05
0.000316201
-5.23282e-05
0.000350386
-6.36815e-05
0.000386098
-6.86883e-05
0.000420332
-6.91897e-05
0.000451437
-6.68239e-05
0.00047849
-6.26404e-05
0.000501052
-5.74157e-05
0.000518998
-5.16585e-05
0.000532411
-4.56997e-05
0.000541527
-3.98153e-05
-3.44636e-05
0.000547419
2.34033e-05
1.874e-05
5.05605e-05
2.50303e-05
7.98628e-05
2.93679e-05
0.000109686
3.40033e-05
0.000139338
3.82143e-05
0.000168688
4.11275e-05
0.00019724
4.24024e-05
0.000224288
4.12634e-05
0.000249004
3.66812e-05
0.000271634
2.70591e-05
0.000297341
1.0013e-05
0.000328241
-7.38184e-06
0.000361663
-2.54918e-05
0.000382265
-4.68789e-05
0.000381305
-5.6787e-05
0.000361779
-6.32674e-05
0.000330082
-6.59811e-05
0.000299944
-6.59197e-05
0.000286876
-6.35331e-05
0.000303689
-5.90859e-05
0.000352247
-5.33356e-05
0.000398912
-4.4719e-05
0.000425537
-3.78122e-05
0.000422443
-3.11835e-05
0.000396252
-2.61403e-05
0.000355689
-2.31195e-05
0.000307918
-2.09189e-05
0.000257706
-1.89803e-05
0.000208163
-1.72829e-05
0.00016121
-1.5691e-05
0.000117938
-1.41445e-05
7.8936e-05
-1.26541e-05
4.44692e-05
-1.1226e-05
1.45381e-05
-9.87659e-06
-8.43387e-06
-1.14815e-05
3.79488e-05
-1.92376e-05
8.12303e-05
-1.8282e-05
0.000127344
-1.67798e-05
0.000176324
-1.50138e-05
0.000228471
-1.39746e-05
0.000283935
-1.43848e-05
0.000342472
-1.61887e-05
0.000403174
-1.95018e-05
0.000464014
-2.42308e-05
0.000520744
-2.97543e-05
0.000565599
-3.49407e-05
0.000598357
-4.02443e-05
0.000618408
-4.56601e-05
0.00062441
-5.30127e-05
0.000618443
-5.0942e-05
0.000606302
-5.12474e-05
0.000590956
-5.07561e-05
0.000574276
-4.93631e-05
0.00055775
-4.71313e-05
0.000542308
-4.37617e-05
0.000527503
-3.86482e-05
0.000511725
-2.90421e-05
0.000492145
-1.83159e-05
0.000466797
-5.89434e-06
0.000437932
2.67166e-06
0.000406358
8.40314e-06
0.000371961
1.34303e-05
0.000334872
1.80625e-05
0.000295791
2.17541e-05
0.000255823
2.42352e-05
0.000216044
2.55969e-05
0.000177359
2.59954e-05
0.000140516
2.55899e-05
0.000105984
2.46328e-05
2.31515e-05
7.43819e-05
-2.1305e-05
2.07332e-06
-3.99866e-05
4.05684e-07
-5.43593e-05
-2.40129e-06
-6.354e-05
-5.82689e-06
-6.70846e-05
-1.0423e-05
-6.56507e-05
-1.58107e-05
-6.01182e-05
-2.17117e-05
-5.16575e-05
-2.79513e-05
-4.1284e-05
-3.45911e-05
-2.92789e-05
-4.1744e-05
-1.48802e-05
-4.93202e-05
2.06172e-06
-5.71648e-05
2.16172e-05
-6.51891e-05
4.18117e-05
-7.31731e-05
5.82319e-05
-6.73248e-05
7.18182e-05
-6.47916e-05
8.27124e-05
-6.16049e-05
9.1111e-05
-5.77135e-05
9.72106e-05
-5.31811e-05
0.000101344
-4.78445e-05
0.000104054
-4.13098e-05
0.000105741
-3.06902e-05
0.000108118
-2.06578e-05
0.000114639
-1.23878e-05
0.000123194
-5.8617e-06
0.000130909
7.0334e-07
0.00013775
6.5991e-06
0.000143605
1.22103e-05
0.000149492
1.58657e-05
0.000155669
1.8054e-05
0.000162157
1.91063e-05
0.000168854
1.92952e-05
0.000175612
1.88319e-05
0.000182266
1.79785e-05
1.70781e-05
0.000188343
-9.78131e-07
3.03096e-06
1.73729e-06
-2.33204e-06
7.16252e-06
-7.85157e-06
1.52606e-05
-1.39533e-05
2.55442e-05
-2.07387e-05
3.75905e-05
-2.78934e-05
5.0958e-05
-3.51212e-05
6.52203e-05
-4.22623e-05
8.0005e-05
-4.94325e-05
9.48724e-05
-5.66771e-05
0.000109385
-6.39091e-05
0.000123252
-7.11215e-05
0.000136088
-7.8131e-05
0.000147328
-8.45389e-05
0.0001548
-7.49212e-05
0.00016009
-7.02106e-05
0.000163691
-6.5339e-05
0.000165666
-5.98248e-05
0.000165908
-5.35647e-05
0.000164133
-4.62143e-05
0.000159724
-3.70481e-05
0.000152079
-2.31826e-05
0.000140302
-9.00657e-06
0.000124949
2.8449e-06
0.000109082
9.89228e-06
9.40839e-05
1.55965e-05
8.13381e-05
1.9246e-05
7.21452e-05
2.1315e-05
6.56108e-05
2.23216e-05
6.10019e-05
2.25923e-05
5.77087e-05
2.23344e-05
5.52448e-05
2.16988e-05
5.32216e-05
2.08005e-05
5.14226e-05
1.97282e-05
1.84346e-05
5.00219e-05
1.50212e-05
-1.19875e-05
3.04593e-05
-1.77688e-05
4.38824e-05
-2.12744e-05
5.48035e-05
-2.48747e-05
6.29e-05
-2.88362e-05
6.82525e-05
-3.32472e-05
7.13063e-05
-3.81764e-05
7.2733e-05
-4.36904e-05
7.31521e-05
-4.98529e-05
7.30273e-05
-5.65535e-05
7.26775e-05
-6.35604e-05
7.21672e-05
-7.06107e-05
7.13245e-05
-7.72857e-05
7.00049e-05
-8.32129e-05
6.86368e-05
-7.35436e-05
6.68761e-05
-6.84373e-05
6.47952e-05
-6.32426e-05
6.25458e-05
-5.7558e-05
6.0327e-05
-5.13271e-05
5.85749e-05
-4.4443e-05
5.82167e-05
-3.66713e-05
6.06879e-05
-2.56371e-05
6.71678e-05
-1.54772e-05
7.67932e-05
-6.77481e-06
8.58899e-05
8.07322e-07
9.31005e-05
8.4002e-06
9.93212e-05
1.30351e-05
0.000104972
1.56707e-05
0.000110245
1.70543e-05
0.000115242
1.76026e-05
0.000120015
1.75678e-05
0.000124582
1.71363e-05
0.00012894
1.64476e-05
0.00013307
1.5602e-05
1.47423e-05
0.000136766
4.5486e-06
-1.65479e-05
6.92417e-06
-2.01577e-05
8.97982e-06
-2.33451e-05
1.09462e-05
-2.68581e-05
1.29526e-05
-3.0862e-05
1.51216e-05
-3.54384e-05
1.75724e-05
-4.06526e-05
2.0404e-05
-4.6551e-05
2.36837e-05
-5.31661e-05
2.759e-05
-6.04982e-05
3.23617e-05
-6.83763e-05
3.80517e-05
-7.63522e-05
4.47434e-05
-8.40375e-05
5.24031e-05
-9.09438e-05
5.87475e-05
-7.99574e-05
6.38152e-05
-7.35755e-05
6.74892e-05
-6.69903e-05
6.99222e-05
-6.00679e-05
7.11949e-05
-5.26803e-05
7.12385e-05
-4.4571e-05
6.9768e-05
-3.52891e-05
6.64953e-05
-2.24487e-05
6.13935e-05
-1.0453e-05
5.43006e-05
2.46596e-07
4.85505e-05
6.48926e-06
4.56459e-05
1.12422e-05
4.41718e-05
1.44535e-05
4.34352e-05
1.63575e-05
4.30438e-05
1.74006e-05
4.2778e-05
1.78278e-05
4.25204e-05
1.77883e-05
4.22197e-05
1.74035e-05
4.18631e-05
1.67735e-05
4.14604e-05
1.59767e-05
1.5022e-05
4.11549e-05
1.42303e-06
-1.79726e-05
3.2667e-06
-2.20034e-05
5.53143e-06
-2.56123e-05
8.13302e-06
-2.94627e-05
1.09579e-05
-3.36905e-05
1.38795e-05
-3.83642e-05
1.67558e-05
-4.35339e-05
1.94386e-05
-4.92396e-05
2.17709e-05
-5.55048e-05
2.35743e-05
-6.2309e-05
2.46733e-05
-6.94836e-05
2.50297e-05
-7.67178e-05
2.46924e-05
-8.37101e-05
2.37689e-05
-9.00307e-05
2.29252e-05
-7.9123e-05
2.1936e-05
-7.2595e-05
2.06352e-05
-6.56965e-05
1.91322e-05
-5.85706e-05
1.76852e-05
-5.12379e-05
1.66063e-05
-4.34957e-05
1.64022e-05
-3.50876e-05
1.77808e-05
-2.38289e-05
2.10261e-05
-1.36998e-05
2.67291e-05
-5.4573e-06
3.23671e-05
8.52939e-07
3.67012e-05
6.91112e-06
4.05816e-05
1.0576e-05
4.411e-05
1.2831e-05
4.73641e-05
1.41481e-05
5.04064e-05
1.47874e-05
5.32601e-05
1.4936e-05
5.59291e-05
1.47362e-05
5.84087e-05
1.42946e-05
6.06986e-05
1.3687e-05
1.30091e-05
6.27112e-05
5.75813e-07
-1.85553e-05
1.03394e-06
-2.24693e-05
1.3788e-06
-2.5966e-05
1.66705e-06
-2.9761e-05
1.96764e-06
-3.40025e-05
2.33643e-06
-3.8746e-05
2.81777e-06
-4.40301e-05
3.44973e-06
-4.98887e-05
4.24542e-06
-5.63201e-05
5.16314e-06
-6.32492e-05
6.15967e-06
-7.05062e-05
7.27523e-06
-7.78636e-05
8.569e-06
-8.50389e-05
1.0038e-05
-9.15402e-05
1.1193e-05
-8.03169e-05
1.21668e-05
-7.36084e-05
1.2896e-05
-6.64666e-05
1.32301e-05
-5.8947e-05
1.30398e-05
-5.10913e-05
1.22564e-05
-4.27573e-05
1.0822e-05
-3.36989e-05
8.85272e-06
-2.19016e-05
6.62125e-06
-1.15066e-05
3.99847e-06
-2.86894e-06
1.7094e-06
3.1078e-06
1.35682e-06
7.23284e-06
1.62013e-06
1.02853e-05
2.03922e-06
1.23879e-05
2.44352e-06
1.37224e-05
2.75783e-06
1.44544e-05
2.95359e-06
1.47234e-05
3.0314e-06
1.46436e-05
3.00592e-06
1.43061e-05
2.9003e-06
1.37796e-05
1.30958e-05
2.8008e-06
3.1358e-07
-1.88721e-05
6.5955e-07
-2.28191e-05
1.11707e-06
-2.6428e-05
1.64949e-06
-3.02986e-05
2.19175e-06
-3.45508e-05
2.68279e-06
-3.9244e-05
3.05921e-06
-4.44146e-05
3.2432e-06
-5.00819e-05
3.14893e-06
-5.62365e-05
2.71391e-06
-6.28265e-05
1.92114e-06
-6.97275e-05
7.51232e-07
-7.67096e-05
-8.77035e-07
-8.34285e-05
-3.0452e-06
-8.9392e-05
-5.14297e-06
-7.82374e-05
-7.26966e-06
-7.1499e-05
-9.37332e-06
-6.43791e-05
-1.14693e-05
-5.6866e-05
-1.3634e-05
-4.89402e-05
-1.58582e-05
-4.0545e-05
-1.79909e-05
-3.15762e-05
-1.94627e-05
-2.04373e-05
-1.99044e-05
-1.10703e-05
-1.89736e-05
-3.80376e-06
-1.77155e-05
1.8478e-06
-1.69334e-05
6.44952e-06
-1.624e-05
9.59145e-06
-1.55652e-05
1.17132e-05
-1.4893e-05
1.30508e-05
-1.42243e-05
1.37869e-05
-1.35671e-05
1.40672e-05
-1.293e-05
1.4008e-05
-1.23246e-05
1.37013e-05
-1.17643e-05
1.32194e-05
1.26322e-05
-1.13015e-05
-7.93434e-08
-1.87982e-05
-2.88047e-07
-2.26165e-05
-6.23482e-07
-2.60996e-05
-1.06401e-06
-2.98661e-05
-1.59684e-06
-3.40271e-05
-2.21243e-06
-3.8639e-05
-2.90799e-06
-4.37311e-05
-3.69127e-06
-4.93125e-05
-4.57412e-06
-5.53696e-05
-5.56103e-06
-6.18579e-05
-6.64438e-06
-6.8665e-05
-7.81643e-06
-7.55614e-05
-9.11126e-06
-8.21609e-05
-1.06278e-05
-8.79065e-05
-1.22642e-05
-7.66299e-05
-1.40755e-05
-6.97163e-05
-1.60548e-05
-6.24278e-05
-1.82162e-05
-5.47319e-05
-2.05954e-05
-4.65877e-05
-2.32301e-05
-3.79364e-05
-2.61367e-05
-2.86952e-05
-2.90819e-05
-1.75152e-05
-3.20207e-05
-8.15245e-06
-3.53389e-05
-5.07297e-07
-3.807e-05
4.56342e-06
-4.01512e-05
8.51837e-06
-4.19257e-05
1.13559e-05
-4.34993e-05
1.32786e-05
-4.49288e-05
1.44737e-05
-4.62467e-05
1.50996e-05
-4.7472e-05
1.52879e-05
-4.86137e-05
1.51462e-05
-4.96776e-05
1.47614e-05
-5.06651e-05
1.42032e-05
1.35169e-05
-5.15537e-05
-2.27354e-07
-1.85751e-05
-5.09598e-07
-2.23391e-05
-8.17758e-07
-2.5797e-05
-1.1701e-06
-2.95202e-05
-1.59694e-06
-3.36077e-05
-2.13248e-06
-3.8112e-05
-2.81168e-06
-4.30617e-05
-3.67159e-06
-4.84638e-05
-4.75741e-06
-5.42967e-05
-6.13704e-06
-6.0493e-05
-7.89599e-06
-6.69228e-05
-1.01124e-05
-7.3364e-05
-1.28473e-05
-7.94473e-05
-1.61808e-05
-8.45967e-05
-1.94514e-05
-7.33808e-05
-2.28488e-05
-6.63392e-05
-2.63828e-05
-5.89126e-05
-3.00548e-05
-5.10771e-05
-3.38596e-05
-4.2798e-05
-3.77773e-05
-3.40316e-05
-4.17506e-05
-2.47319e-05
-4.52936e-05
-1.39785e-05
-4.82617e-05
-5.18647e-06
-5.03296e-05
1.56349e-06
-5.26049e-05
6.83983e-06
-5.47179e-05
1.06326e-05
-5.66406e-05
1.32802e-05
-5.83756e-05
1.50156e-05
-5.99332e-05
1.60335e-05
-6.13269e-05
1.6496e-05
-6.25722e-05
1.65359e-05
-6.36843e-05
1.62611e-05
-6.4679e-05
1.57582e-05
-6.55701e-05
1.50959e-05
1.43334e-05
-6.63855e-05
-3.82449e-07
-1.81975e-05
-9.05468e-07
-2.18217e-05
-1.55874e-06
-2.51501e-05
-2.34759e-06
-2.87386e-05
-3.27099e-06
-3.26927e-05
-4.32984e-06
-3.70627e-05
-5.53068e-06
-4.18718e-05
-6.88767e-06
-4.71193e-05
-8.42128e-06
-5.27774e-05
-1.0161e-05
-5.87695e-05
-1.21494e-05
-6.49529e-05
-1.44495e-05
-7.10847e-05
-1.71447e-05
-7.67755e-05
-2.03533e-05
-8.14141e-05
-2.35832e-05
-7.01747e-05
-2.69986e-05
-6.29463e-05
-3.06054e-05
-5.5327e-05
-3.44119e-05
-4.72902e-05
-3.84254e-05
-3.88023e-05
-4.26511e-05
-2.98216e-05
-4.70982e-05
-2.02983e-05
-5.13993e-05
-9.68727e-06
-5.55935e-05
-9.99997e-07
-5.9484e-05
5.44962e-06
-6.29359e-05
1.02887e-05
-6.60683e-05
1.37631e-05
-6.89211e-05
1.61323e-05
-7.1525e-05
1.76194e-05
-7.39038e-05
1.84129e-05
-7.60768e-05
1.86701e-05
-7.80602e-05
1.85206e-05
-7.98676e-05
1.80701e-05
-8.1512e-05
1.74038e-05
-8.30048e-05
1.65897e-05
1.56771e-05
-8.43479e-05
-4.31553e-07
-1.77701e-05
-9.63371e-07
-2.12946e-05
-1.57949e-06
-2.45394e-05
-2.308e-06
-2.80164e-05
-3.16497e-06
-3.18428e-05
-4.17405e-06
-3.60618e-05
-5.36523e-06
-4.069e-05
-6.77154e-06
-4.57237e-05
-8.43522e-06
-5.11259e-05
-1.0406e-05
-5.68127e-05
-1.27424e-05
-6.26322e-05
-1.5515e-05
-6.83298e-05
-1.88125e-05
-7.34978e-05
-2.2745e-05
-7.75033e-05
-2.66044e-05
-6.63348e-05
-3.06107e-05
-5.89582e-05
-3.47796e-05
-5.11746e-05
-3.91207e-05
-4.29635e-05
-4.36379e-05
-3.42972e-05
-4.83269e-05
-2.51424e-05
-5.31678e-05
-1.54646e-05
-5.76663e-05
-5.19321e-06
-6.16618e-05
2.99392e-06
-6.54043e-05
9.19166e-06
-6.88359e-05
1.37211e-05
-7.19644e-05
1.68933e-05
-7.48037e-05
1.89738e-05
-7.73716e-05
2.01897e-05
-7.96877e-05
2.07316e-05
-8.17727e-05
2.07578e-05
-8.36474e-05
2.03978e-05
-8.5331e-05
1.97562e-05
-8.68408e-05
1.89158e-05
-8.81928e-05
1.79437e-05
1.6894e-05
-8.94077e-05
-5.20413e-07
-1.72535e-05
-1.18149e-06
-2.0638e-05
-1.97086e-06
-2.37552e-05
-2.89427e-06
-2.70988e-05
-3.96489e-06
-3.07789e-05
-5.19801e-06
-3.48363e-05
-6.61171e-06
-3.9285e-05
-8.22799e-06
-4.41174e-05
-1.00763e-05
-4.92889e-05
-1.21947e-05
-5.47071e-05
-1.46332e-05
-6.02081e-05
-1.74575e-05
-6.55218e-05
-2.07529e-05
-7.02204e-05
-2.46351e-05
-7.3641e-05
-2.84525e-05
-6.25353e-05
-3.24134e-05
-5.50141e-05
-3.65291e-05
-4.70742e-05
-4.08101e-05
-3.86961e-05
-4.52635e-05
-2.98555e-05
-4.98922e-05
-2.05233e-05
-5.46975e-05
-1.06664e-05
-5.92779e-05
-6.17562e-07
-6.34827e-05
7.19638e-06
-6.73146e-05
1.30227e-05
-7.07955e-05
1.72022e-05
-7.39486e-05
2.00473e-05
-7.67991e-05
2.18258e-05
-7.93725e-05
2.27646e-05
-8.1693e-05
2.30539e-05
-8.37839e-05
2.28504e-05
-8.56665e-05
2.22822e-05
-8.73606e-05
2.14522e-05
-8.88841e-05
2.04413e-05
-9.02528e-05
1.93141e-05
1.81206e-05
-9.1478e-05
-5.39104e-07
-1.67176e-05
-1.20244e-06
-1.99783e-05
-1.99788e-06
-2.29639e-05
-2.92211e-06
-2.61793e-05
-3.98876e-06
-2.97177e-05
-5.21764e-06
-3.36137e-05
-6.63399e-06
-3.78758e-05
-8.27199e-06
-4.24875e-05
-1.01705e-05
-4.73997e-05
-1.2374e-05
-5.2514e-05
-1.49348e-05
-5.76591e-05
-1.7915e-05
-6.25547e-05
-2.13919e-05
-6.67581e-05
-2.5462e-05
-6.95869e-05
-2.94043e-05
-5.86071e-05
-3.34416e-05
-5.099e-05
-3.7586e-05
-4.29418e-05
-4.18459e-05
-3.44472e-05
-4.62245e-05
-2.54865e-05
-5.07189e-05
-1.60369e-05
-5.5316e-05
-6.07584e-06
-5.95558e-05
3.61821e-06
-6.34409e-05
1.10791e-05
-6.69625e-05
1.65436e-05
-7.01373e-05
2.03774e-05
-7.2986e-05
2.2897e-05
-7.55316e-05
2.4373e-05
-7.77987e-05
2.50336e-05
-7.98119e-05
2.50691e-05
-8.15956e-05
2.4636e-05
-8.31727e-05
2.38614e-05
-8.45658e-05
2.28472e-05
-8.57965e-05
2.1674e-05
-8.68853e-05
2.0405e-05
1.90886e-05
-8.78511e-05
-5.86703e-07
-1.61336e-05
-1.34121e-06
-1.92268e-05
-2.21392e-06
-2.20947e-05
-3.21147e-06
-2.51858e-05
-4.3499e-06
-2.85838e-05
-5.65133e-06
-3.23174e-05
-7.14145e-06
-3.63916e-05
-8.84904e-06
-4.07867e-05
-1.08073e-05
-4.54491e-05
-1.30553e-05
-5.02745e-05
-1.56402e-05
-5.50839e-05
-1.86187e-05
-5.9587e-05
-2.20602e-05
-6.33285e-05
-2.6052e-05
-6.5608e-05
-2.98942e-05
-5.47764e-05
-3.37986e-05
-4.70964e-05
-3.77712e-05
-3.89791e-05
-4.18157e-05
-3.04118e-05
-4.59314e-05
-2.1379e-05
-5.01123e-05
-1.18631e-05
-5.43479e-05
-1.84608e-06
-5.82445e-05
7.51084e-06
-6.17472e-05
1.45795e-05
-6.48782e-05
1.96734e-05
-6.76639e-05
2.31629e-05
-7.0133e-05
2.53666e-05
-7.23144e-05
2.65554e-05
-7.42366e-05
2.6957e-05
-7.59266e-05
2.67605e-05
-7.74098e-05
2.61206e-05
-7.87095e-05
2.51625e-05
-7.98474e-05
2.39864e-05
-8.08428e-05
2.2671e-05
-8.17137e-05
2.12775e-05
1.98523e-05
-8.24754e-05
-5.81172e-07
-1.55544e-05
-1.29684e-06
-1.85135e-05
-2.13633e-06
-2.12579e-05
-3.11147e-06
-2.42137e-05
-4.24036e-06
-2.74585e-05
-5.54454e-06
-3.10173e-05
-7.0489e-06
-3.48918e-05
-8.782e-06
-3.90588e-05
-1.07763e-05
-4.34608e-05
-1.30686e-05
-4.79889e-05
-1.57013e-05
-5.24588e-05
-1.87234e-05
-5.65732e-05
-2.21929e-05
-5.98683e-05
-2.61788e-05
-6.16321e-05
-2.99664e-05
-5.09977e-05
-3.37669e-05
-4.33042e-05
-3.75836e-05
-3.51699e-05
-4.14165e-05
-2.65857e-05
-4.52602e-05
-1.75412e-05
-4.91033e-05
-8.02511e-06
-5.29258e-05
1.97235e-06
-5.63773e-05
1.09596e-05
-5.9426e-05
1.76266e-05
-6.21022e-05
2.23491e-05
-6.44384e-05
2.54993e-05
-6.64676e-05
2.73965e-05
-6.82228e-05
2.83116e-05
-6.97356e-05
2.84709e-05
-7.10358e-05
2.80618e-05
-7.21508e-05
2.72366e-05
-7.31054e-05
2.61182e-05
-7.39221e-05
2.4804e-05
-7.46202e-05
2.33702e-05
-7.52172e-05
2.18759e-05
2.03653e-05
-7.57286e-05
-5.97433e-07
-1.49586e-05
-1.34019e-06
-1.77726e-05
-2.21092e-06
-2.03892e-05
-3.21876e-06
-2.32083e-05
-4.37965e-06
-2.63004e-05
-5.71357e-06
-2.96866e-05
-7.24392e-06
-3.33651e-05
-8.99766e-06
-3.73092e-05
-1.10055e-05
-4.14576e-05
-1.33022e-05
-4.56975e-05
-1.5927e-05
-4.98399e-05
-1.89242e-05
-5.35826e-05
-2.23439e-05
-5.64559e-05
-2.62427e-05
-5.77412e-05
-2.99161e-05
-4.73312e-05
-3.35655e-05
-3.96612e-05
-3.71888e-05
-3.15524e-05
-4.07809e-05
-2.29989e-05
-4.4332e-05
-1.39948e-05
-4.78261e-05
-4.53506e-06
-5.12401e-05
5.38296e-06
-5.42597e-05
1.39769e-05
-5.68683e-05
2.02339e-05
-5.91055e-05
2.45857e-05
-6.10111e-05
2.74047e-05
-6.26241e-05
2.90097e-05
-6.39816e-05
2.96696e-05
-6.51183e-05
2.96082e-05
-6.60657e-05
2.90098e-05
-6.68522e-05
2.80236e-05
-6.75027e-05
2.67692e-05
-6.80392e-05
2.5341e-05
-6.84803e-05
2.38122e-05
-6.88421e-05
2.22387e-05
2.06627e-05
-6.91381e-05
-5.99616e-07
-1.43602e-05
-1.33936e-06
-1.70342e-05
-2.20562e-06
-1.95246e-05
-3.20948e-06
-2.22063e-05
-4.36823e-06
-2.51437e-05
-5.70265e-06
-2.83546e-05
-7.23654e-06
-3.1834e-05
-8.99667e-06
-3.55522e-05
-1.10128e-05
-3.94451e-05
-1.33175e-05
-4.33969e-05
-1.59464e-05
-4.72156e-05
-1.89378e-05
-5.05963e-05
-2.23327e-05
-5.30666e-05
-2.61741e-05
-5.3906e-05
-2.97582e-05
-4.37527e-05
-3.32809e-05
-3.61437e-05
-3.67368e-05
-2.81013e-05
-4.01167e-05
-1.96233e-05
-4.34068e-05
-1.07086e-05
-4.65874e-05
-1.35794e-06
-4.96316e-05
8.42421e-06
-5.22624e-05
1.66056e-05
-5.44776e-05
2.24476e-05
-5.63244e-05
2.64315e-05
-5.78484e-05
2.89282e-05
-5.90929e-05
3.0254e-05
-6.00982e-05
3.06749e-05
-6.0901e-05
3.0411e-05
-6.15338e-05
2.96427e-05
-6.20259e-05
2.85158e-05
-6.24028e-05
2.71463e-05
-6.26886e-05
2.56269e-05
-6.29006e-05
2.40245e-05
-6.30523e-05
2.2391e-05
2.07676e-05
-6.31562e-05
-6.09592e-07
-1.37515e-05
-1.36107e-06
-1.62839e-05
-2.24009e-06
-1.86468e-05
-3.25691e-06
-2.11909e-05
-4.42794e-06
-2.39744e-05
-5.77312e-06
-2.70113e-05
-7.31539e-06
-3.02939e-05
-9.08058e-06
-3.37895e-05
-1.10973e-05
-3.74312e-05
-1.33969e-05
-4.11005e-05
-1.60126e-05
-4.46035e-05
-1.89794e-05
-4.76336e-05
-2.23324e-05
-4.97181e-05
-2.61048e-05
-5.01387e-05
-2.95997e-05
-4.02623e-05
-3.30059e-05
-3.27417e-05
-3.63139e-05
-2.47974e-05
-3.95108e-05
-1.64302e-05
-4.25793e-05
-7.64353e-06
-4.54965e-05
1.556e-06
-4.82322e-05
1.1157e-05
-5.05394e-05
1.89104e-05
-5.24283e-05
2.43347e-05
-5.39524e-05
2.79542e-05
-5.51626e-05
3.01374e-05
-5.61063e-05
3.1197e-05
-5.68273e-05
3.13953e-05
-5.7365e-05
3.09482e-05
-5.77519e-05
3.00293e-05
-5.8014e-05
2.87774e-05
-5.81744e-05
2.73065e-05
-5.82582e-05
2.57104e-05
-5.82844e-05
2.40509e-05
-5.82668e-05
2.23739e-05
2.07182e-05
-5.82167e-05
-6.12839e-07
-1.31394e-05
-1.36587e-06
-1.55317e-05
-2.24589e-06
-1.77678e-05
-3.26371e-06
-2.01743e-05
-4.43602e-06
-2.28034e-05
-5.78283e-06
-2.5666e-05
-7.32691e-06
-2.87515e-05
-9.09357e-06
-3.20249e-05
-1.11105e-05
-3.54165e-05
-1.34075e-05
-3.88061e-05
-1.60157e-05
-4.19983e-05
-1.89665e-05
-4.46861e-05
-2.22898e-05
-4.63986e-05
-2.60108e-05
-4.64219e-05
-2.9437e-05
-3.68401e-05
-3.27524e-05
-2.94301e-05
-3.59448e-05
-2.16087e-05
-3.89989e-05
-1.33797e-05
-4.18949e-05
-4.75096e-06
-4.46075e-05
4.26539e-06
-4.71052e-05
1.36515e-05
-4.91644e-05
2.09669e-05
-5.08047e-05
2.59728e-05
-5.20845e-05
2.92322e-05
-5.30582e-05
3.11095e-05
-5.37756e-05
3.19132e-05
-5.42817e-05
3.19004e-05
-5.46163e-05
3.12819e-05
-5.48136e-05
3.02258e-05
-5.4902e-05
2.88651e-05
-5.49051e-05
2.7309e-05
-5.48424e-05
2.5647e-05
-5.47317e-05
2.394e-05
-5.45881e-05
2.22303e-05
2.05531e-05
-5.44228e-05
-6.1926e-07
-1.25208e-05
-1.37818e-06
-1.47735e-05
-2.26376e-06
-1.68831e-05
-3.28658e-06
-1.91525e-05
-4.46298e-06
-2.16281e-05
-5.81256e-06
-2.43177e-05
-7.35759e-06
-2.7208e-05
-9.12286e-06
-3.02613e-05
-1.11354e-05
-3.34059e-05
-1.34239e-05
-3.65198e-05
-1.60183e-05
-3.94064e-05
-1.8948e-05
-4.17593e-05
-2.22399e-05
-4.31101e-05
-2.5914e-05
-4.27517e-05
-2.92831e-05
-3.34746e-05
-3.25271e-05
-2.61896e-05
-3.56318e-05
-1.85076e-05
-3.85797e-05
-1.04353e-05
-4.13493e-05
-1.98486e-06
-4.39138e-05
6.82648e-06
-4.62404e-05
1.59746e-05
-4.81228e-05
2.28462e-05
-4.95873e-05
2.74345e-05
-5.06951e-05
3.03377e-05
-5.15029e-05
3.19152e-05
-5.20617e-05
3.24703e-05
-5.24168e-05
3.22539e-05
-5.26074e-05
3.14711e-05
-5.26692e-05
3.02864e-05
-5.26352e-05
2.88299e-05
-5.25315e-05
2.72043e-05
-5.23743e-05
2.54889e-05
-5.21772e-05
2.37423e-05
-5.19542e-05
2.2007e-05
2.03156e-05
-5.17168e-05
-6.22874e-07
-1.18985e-05
-1.38335e-06
-1.40137e-05
-2.2695e-06
-1.59977e-05
-3.29222e-06
-1.81306e-05
-4.46789e-06
-2.04535e-05
-5.81598e-06
-2.29708e-05
-7.3585e-06
-2.56668e-05
-9.11976e-06
-2.85016e-05
-1.11261e-05
-3.14014e-05
-1.34053e-05
-3.42425e-05
-1.59861e-05
-3.6828e-05
-1.88962e-05
-3.88519e-05
-2.21604e-05
-3.98491e-05
-2.57956e-05
-3.91201e-05
-2.91201e-05
-3.01536e-05
-3.23111e-05
-2.30021e-05
-3.53531e-05
-1.54691e-05
-3.82275e-05
-7.56454e-06
-4.09116e-05
6.95645e-07
-4.33781e-05
9.28925e-06
-4.55936e-05
1.81864e-05
-4.73634e-05
2.46125e-05
-4.87176e-05
2.87857e-05
-4.97195e-05
3.13368e-05
-5.04267e-05
3.262e-05
-5.08912e-05
3.29326e-05
-5.11593e-05
3.252e-05
-5.12711e-05
3.15813e-05
-5.12616e-05
3.02753e-05
-5.11607e-05
2.87275e-05
-5.09924e-05
2.70348e-05
-5.07759e-05
2.52712e-05
-5.05263e-05
2.34919e-05
-5.0257e-05
2.17372e-05
2.00362e-05
-4.9978e-05
-6.27051e-07
-1.1272e-05
-1.38871e-06
-1.32527e-05
-2.27466e-06
-1.51125e-05
-3.2961e-06
-1.711e-05
-4.46931e-06
-1.92812e-05
-5.81353e-06
-2.16277e-05
-7.35039e-06
-2.41312e-05
-9.10373e-06
-2.67497e-05
-1.10993e-05
-2.94074e-05
-1.33644e-05
-3.19794e-05
-1.59268e-05
-3.42678e-05
-1.88134e-05
-3.59678e-05
-2.2048e-05
-3.66176e-05
-2.56462e-05
-3.55254e-05
-2.89329e-05
-2.68703e-05
-3.20832e-05
-1.98553e-05
-3.50811e-05
-1.24748e-05
-3.79075e-05
-4.74194e-06
-4.05391e-05
3.32344e-06
-4.29483e-05
1.16946e-05
-4.51024e-05
2.03364e-05
-4.68128e-05
2.63191e-05
-4.81118e-05
3.00813e-05
-4.90631e-05
3.2285e-05
-4.97246e-05
3.32787e-05
-5.01484e-05
3.3354e-05
-5.03806e-05
3.27499e-05
-5.0461e-05
3.16597e-05
-5.0424e-05
3.02365e-05
-5.02982e-05
2.86001e-05
-5.01073e-05
2.68425e-05
-4.98706e-05
2.50333e-05
-4.96036e-05
2.32238e-05
-4.93186e-05
2.14514e-05
1.97423e-05
-4.90254e-05
-6.30781e-07
-1.06418e-05
-1.38956e-06
-1.24945e-05
-2.2712e-06
-1.42316e-05
-3.2874e-06
-1.60946e-05
-4.45433e-06
-1.81152e-05
-5.79088e-06
-2.02923e-05
-7.31822e-06
-2.26051e-05
-9.05967e-06
-2.50097e-05
-1.10404e-05
-2.74284e-05
-1.32871e-05
-2.97347e-05
-1.5827e-05
-3.17302e-05
-1.86865e-05
-3.31109e-05
-2.1889e-05
-3.34182e-05
-2.54502e-05
-3.19679e-05
-2.87024e-05
-2.36217e-05
-3.18195e-05
-1.67418e-05
-3.47861e-05
-9.51205e-06
-3.75826e-05
-1.94927e-06
-4.01861e-05
5.92287e-06
-4.25692e-05
1.40735e-05
-4.46998e-05
2.24628e-05
-4.63924e-05
2.80077e-05
-4.76793e-05
3.13644e-05
-4.86234e-05
3.32257e-05
-4.92822e-05
3.39345e-05
-4.97071e-05
3.3776e-05
-4.99431e-05
3.29835e-05
-5.00297e-05
3.17441e-05
-5.00004e-05
3.02051e-05
-4.98832e-05
2.84811e-05
-4.97014e-05
2.66592e-05
-4.94741e-05
2.48046e-05
-4.92166e-05
2.29651e-05
-4.89409e-05
2.11748e-05
1.94572e-05
-4.86566e-05
-6.16831e-07
-1.00255e-05
-1.3707e-06
-1.17413e-05
-2.24845e-06
-1.33545e-05
-3.2599e-06
-1.5084e-05
-4.42028e-06
-1.69558e-05
-5.74781e-06
-1.89658e-05
-7.26311e-06
-2.10911e-05
-8.98897e-06
-2.32853e-05
-1.09501e-05
-2.54689e-05
-1.31729e-05
-2.75139e-05
-1.56842e-05
-2.92211e-05
-1.85107e-05
-3.02871e-05
-2.16758e-05
-3.02562e-05
-2.51963e-05
-2.84512e-05
-2.84134e-05
-2.04082e-05
-3.15001e-05
-1.36588e-05
-3.44419e-05
-6.57421e-06
-3.72197e-05
8.24527e-07
-3.98111e-05
8.51007e-06
-4.21895e-05
1.64476e-05
-4.43241e-05
2.45928e-05
-4.60291e-05
2.97084e-05
-4.73354e-05
3.26668e-05
-4.83046e-05
3.41914e-05
-4.89926e-05
3.46192e-05
-4.94495e-05
3.42299e-05
-4.97193e-05
3.32507e-05
-4.98403e-05
3.18627e-05
-4.98453e-05
3.02079e-05
-4.97617e-05
2.83956e-05
-4.96124e-05
2.65081e-05
-4.94161e-05
2.46067e-05
-4.91879e-05
2.27355e-05
-4.89397e-05
2.09255e-05
-4.86811e-05
1.91976e-05
0.000315449
3.21663e-05
0.000300926
3.15063e-05
0.000287009
3.09578e-05
0.000274171
2.99718e-05
0.000263088
2.8335e-05
0.00025436
2.61218e-05
0.000248487
2.34233e-05
0.000245698
2.05125e-05
0.000245671
1.79328e-05
0.000247109
1.66586e-05
0.000247615
1.7784e-05
0.000243791
2.20533e-05
0.000233598
2.76523e-05
0.000218625
3.16838e-05
0.000201118
3.34967e-05
0.000182532
3.38703e-05
0.000164137
3.3003e-05
0.000146985
3.11083e-05
0.000131709
2.86133e-05
0.000118878
2.55592e-05
0.000108549
2.252e-05
1.96684e-05
0.000100529
0.000672011
1.17112e-05
0.000697021
6.59436e-06
0.000727201
8.68507e-07
0.000761067
-3.82421e-06
0.000798553
-9.09446e-06
0.000839886
-1.5184e-05
0.000885154
-2.18402e-05
0.000934073
-2.84283e-05
0.000985674
-3.37085e-05
0.00103797
-3.56772e-05
0.0010869
-3.11775e-05
0.001124
-1.49767e-05
0.00113693
1.48121e-05
0.00112165
4.70148e-05
0.00107896
7.62512e-05
0.00101187
0.00010106
0.000924135
0.000120835
0.000819541
0.000135801
0.000701663
0.000146588
0.000573103
0.000154205
0.000436493
0.000159207
0.000161636
0.000294594
-5.20595e-05
-4.05276e-05
-3.9143e-06
-4.15433e-05
3.85526e-05
-4.16867e-05
7.44977e-05
-3.98279e-05
0.000101777
-3.64417e-05
0.000119513
-3.29967e-05
0.0001275
-2.99144e-05
0.000125834
-2.68551e-05
0.000115411
-2.33815e-05
9.74321e-05
-1.77889e-05
7.5953e-05
-9.77867e-06
6.05385e-05
3.78078e-07
6.06019e-05
1.47126e-05
6.68157e-05
4.07862e-05
7.40233e-05
6.90533e-05
7.8419e-05
9.66972e-05
7.62131e-05
0.000123095
6.57136e-05
0.000146353
4.70035e-05
0.000165357
2.17682e-05
0.000179461
-6.70609e-06
0.000187651
0.000189562
-3.4775e-05
0.000556712
-4.96578e-05
0.000560325
-4.49667e-05
0.000555478
-3.66277e-05
0.000540209
-2.43203e-05
0.000510842
-6.81938e-06
0.000465584
1.25298e-05
0.000402147
3.38063e-05
0.000319158
5.64371e-05
0.000217818
7.82765e-05
0.000103425
9.69324e-05
-1.53725e-05
0.000109343
-0.00012531
0.000110649
-0.000209857
9.95813e-05
-0.000258442
8.97043e-05
-0.000275682
8.66339e-05
-0.000269153
9.0502e-05
-0.000245055
9.93256e-05
-0.000208456
0.000110066
-0.000162833
0.000120009
-0.000110326
0.000127182
-5.33019e-05
0.000130843
0.000130723
5.69155e-06
-5.02354e-05
-1.08854e-05
-8.5336e-05
-9.84485e-06
-0.000113876
-8.06649e-06
-0.000133457
-4.71302e-06
-0.000141362
1.11677e-06
-0.000139988
1.11921e-05
-0.000131505
2.53603e-05
-0.000116352
4.13222e-05
-9.65108e-05
5.84697e-05
-7.46762e-05
7.51173e-05
-5.48185e-05
8.94852e-05
-4.29569e-05
9.87655e-05
-4.34694e-05
0.000100072
-5.37509e-05
9.99778e-05
-6.83066e-05
0.000101194
-8.28789e-05
0.000105092
-9.41263e-05
0.000110596
-0.00010064
0.000116609
-0.000102344
0.000121746
-0.000100092
0.000124975
-9.53583e-05
0.000126164
0.000125112
-8.9686e-05
2.32754e-05
4.01958e-05
-2.81768e-05
4.15815e-05
-7.90027e-05
4.27353e-05
-0.000127161
4.34259e-05
-0.000169694
4.36327e-05
-0.000202099
4.35784e-05
-0.000221061
4.43052e-05
-0.000226455
4.66991e-05
-0.000219274
5.12671e-05
-0.000202073
5.78952e-05
-0.00017888
6.6275e-05
-0.000154845
7.47171e-05
-0.000134804
8.0021e-05
-0.00011943
8.45972e-05
-0.000106995
8.87556e-05