/*--------------------------------*- C++ -*----------------------------------*\
  =========                 |
  \\      /  F ield         | OpenFOAM: The Open Source CFD Toolbox
   \\    /   O peration     | Website:  https://openfoam.org
    \\  /    A nd           | Version:  8
     \\/     M anipulation  |
\*---------------------------------------------------------------------------*/
FoamFile
{
    version     2.0;
    format      ascii;
    class       volScalarField;
    location    "0.43";
    object      T;
}
// * * * * * * * * * * * * * * * * * * * * * * * * * * * * * * * * * * * * * //

dimensions      [0 0 0 1 0 0 0];

internalField   nonuniform List<scalar> 
15677
(
298.163
298.216
298.281
298.341
298.403
298.469
298.54
298.614
298.689
298.761
298.829
298.892
298.951
299.012
299.042
299.039
299.009
298.962
298.915
298.88
298.862
298.848
298.825
298.796
298.763
298.727
298.686
298.647
298.612
298.58
298.55
298.522
298.494
298.466
298.436
298.183
298.185
298.178
298.189
298.212
298.245
298.287
298.34
298.406
298.496
298.631
298.848
299.156
299.449
299.577
299.602
299.567
299.495
299.393
299.262
299.108
298.951
298.835
298.751
298.695
298.654
298.619
298.588
298.559
298.533
298.511
298.492
298.477
298.467
298.458
300.057
300.014
299.99
299.967
299.944
299.919
299.887
299.843
299.78
299.691
299.578
299.469
299.363
299.22
299.077
298.978
298.926
298.893
298.857
298.807
298.783
298.795
298.882
299.012
299.133
299.22
299.276
299.311
299.328
299.331
299.324
299.308
299.286
299.259
299.23
299.678
299.628
299.61
299.597
299.586
299.575
299.564
299.553
299.543
299.535
299.531
299.527
299.538
299.592
299.638
299.669
299.67
299.63
299.53
299.438
299.372
299.381
299.465
299.562
299.652
299.727
299.786
299.83
299.862
299.883
299.896
299.9
299.899
299.894
299.882
300.573
300.547
300.517
300.479
300.433
300.381
300.32
300.251
300.171
300.077
299.98
299.882
299.794
299.725
299.681
299.659
299.651
299.648
299.647
299.631
299.605
299.564
299.532
299.512
299.501
299.499
299.503
299.515
299.534
299.558
299.587
299.618
299.65
299.68
299.707
300.477
300.468
300.445
300.417
300.387
300.354
300.317
300.278
300.238
300.195
300.158
300.129
300.102
300.082
300.068
300.063
300.056
300.047
300.036
300.018
299.992
299.965
299.936
299.914
299.902
299.901
299.905
299.913
299.923
299.932
299.941
299.949
299.956
299.962
299.966
300.066
300.072
300.083
300.095
300.105
300.111
300.112
300.109
300.103
300.093
300.08
300.066
300.052
300.038
300.026
300.016
300.006
299.997
299.989
299.982
299.977
299.977
299.982
299.994
300.012
300.033
300.055
300.074
300.089
300.101
300.108
300.113
300.117
300.119
300.12
300.255
300.256
300.263
300.274
300.285
300.291
300.291
300.288
300.282
300.274
300.265
300.253
300.241
300.226
300.212
300.198
300.185
300.172
300.158
300.144
300.13
300.117
300.107
300.102
300.102
300.103
300.105
300.105
300.104
300.101
300.098
300.095
300.091
300.087
300.084
300.157
300.128
300.124
300.124
300.127
300.13
300.134
300.138
300.142
300.145
300.147
300.148
300.148
300.146
300.142
300.137
300.131
300.125
300.118
300.112
300.107
300.104
300.102
300.102
300.102
300.103
300.104
300.106
300.106
300.106
300.106
300.105
300.104
300.102
300.101
300.295
300.291
300.286
300.28
300.275
300.268
300.262
300.255
300.248
300.24
300.233
300.225
300.216
300.207
300.197
300.188
300.179
300.17
300.16
300.151
300.142
300.133
300.126
300.12
300.116
300.111
300.107
300.103
300.099
300.095
300.091
300.087
300.084
300.08
300.077
300.17
300.171
300.172
300.174
300.175
300.177
300.178
300.179
300.179
300.178
300.177
300.175
300.172
300.167
300.162
300.156
300.15
300.143
300.136
300.129
300.121
300.114
300.108
300.103
300.098
300.094
300.091
300.088
300.085
300.083
300.08
300.078
300.076
300.074
300.072
300.256
300.251
300.247
300.243
300.239
300.234
300.23
300.225
300.22
300.215
300.209
300.203
300.196
300.188
300.18
300.172
300.164
300.156
300.147
300.139
300.13
300.122
300.115
300.109
300.104
300.099
300.094
300.09
300.086
300.082
300.079
300.076
300.073
300.07
300.068
300.199
300.198
300.198
300.197
300.197
300.197
300.196
300.195
300.193
300.191
300.188
300.185
300.18
300.174
300.168
300.161
300.154
300.146
300.138
300.131
300.123
300.115
300.109
300.103
300.099
300.094
300.091
300.088
300.085
300.082
300.08
300.078
300.075
300.073
300.072
300.238
300.234
300.23
300.227
300.224
300.221
300.218
300.214
300.21
300.206
300.201
300.196
300.19
300.183
300.175
300.168
300.16
300.153
300.145
300.137
300.13
300.123
300.117
300.112
300.107
300.103
300.1
300.097
300.094
300.091
300.089
300.087
300.085
300.083
300.082
300.218
300.216
300.214
300.213
300.212
300.211
300.209
300.207
300.204
300.201
300.198
300.193
300.188
300.182
300.175
300.168
300.161
300.153
300.146
300.139
300.132
300.126
300.121
300.117
300.113
300.111
300.109
300.107
300.106
300.104
300.103
300.102
300.101
300.1
300.1
300.236
300.233
300.23
300.228
300.226
300.223
300.221
300.218
300.215
300.211
300.207
300.202
300.196
300.189
300.182
300.175
300.167
300.16
300.153
300.146
300.14
300.134
300.13
300.127
300.124
300.122
300.121
300.12
300.119
300.119
300.118
300.118
300.118
300.118
300.118
300.232
300.229
300.228
300.226
300.225
300.223
300.221
300.219
300.217
300.213
300.21
300.205
300.2
300.193
300.186
300.179
300.172
300.165
300.159
300.152
300.146
300.142
300.138
300.136
300.134
300.133
300.133
300.133
300.134
300.134
300.135
300.135
300.136
300.137
300.137
300.243
300.24
300.238
300.236
300.234
300.232
300.229
300.226
300.223
300.219
300.215
300.21
300.205
300.198
300.191
300.185
300.178
300.171
300.165
300.159
300.154
300.15
300.147
300.145
300.144
300.144
300.145
300.146
300.147
300.148
300.15
300.151
300.152
300.154
300.155
300.245
300.242
300.24
300.239
300.237
300.235
300.233
300.23
300.228
300.224
300.22
300.216
300.21
300.204
300.197
300.19
300.184
300.177
300.171
300.166
300.161
300.157
300.154
300.153
300.153
300.153
300.154
300.156
300.158
300.16
300.162
300.163
300.165
300.167
300.169
300.252
300.248
300.246
300.244
300.242
300.24
300.238
300.236
300.233
300.229
300.225
300.221
300.215
300.209
300.202
300.196
300.19
300.183
300.177
300.172
300.167
300.164
300.161
300.16
300.16
300.161
300.162
300.164
300.166
300.168
300.171
300.173
300.175
300.177
300.179
300.256
300.253
300.251
300.25
300.248
300.246
300.243
300.241
300.238
300.235
300.231
300.226
300.221
300.215
300.208
300.202
300.195
300.189
300.183
300.178
300.173
300.17
300.167
300.166
300.166
300.167
300.168
300.17
300.172
300.175
300.177
300.18
300.182
300.185
300.187
300.261
300.258
300.256
300.254
300.253
300.251
300.248
300.246
300.243
300.24
300.236
300.231
300.226
300.22
300.213
300.207
300.201
300.195
300.189
300.184
300.179
300.175
300.173
300.172
300.172
300.172
300.173
300.175
300.177
300.179
300.182
300.184
300.187
300.189
300.192
300.266
300.263
300.261
300.259
300.258
300.256
300.253
300.251
300.248
300.245
300.241
300.236
300.231
300.225
300.218
300.212
300.206
300.2
300.194
300.189
300.184
300.18
300.178
300.176
300.176
300.176
300.177
300.179
300.181
300.183
300.185
300.188
300.19
300.192
300.195
300.27
300.268
300.266
300.264
300.262
300.26
300.258
300.255
300.253
300.249
300.246
300.241
300.236
300.23
300.223
300.217
300.211
300.205
300.199
300.194
300.189
300.185
300.182
300.181
300.18
300.18
300.181
300.182
300.184
300.186
300.188
300.19
300.192
300.194
300.197
300.275
300.272
300.27
300.268
300.267
300.265
300.263
300.26
300.257
300.254
300.25
300.246
300.24
300.234
300.228
300.221
300.215
300.209
300.204
300.198
300.193
300.189
300.186
300.185
300.184
300.184
300.184
300.185
300.186
300.188
300.19
300.192
300.194
300.196
300.198
300.279
300.276
300.275
300.273
300.271
300.269
300.267
300.264
300.262
300.258
300.254
300.25
300.245
300.239
300.232
300.226
300.22
300.214
300.208
300.203
300.198
300.194
300.191
300.189
300.187
300.187
300.187
300.188
300.189
300.19
300.192
300.193
300.195
300.197
300.199
300.283
300.281
300.279
300.277
300.275
300.273
300.271
300.269
300.266
300.262
300.259
300.254
300.249
300.243
300.236
300.23
300.224
300.218
300.212
300.207
300.202
300.198
300.194
300.192
300.191
300.19
300.19
300.191
300.191
300.193
300.194
300.195
300.197
300.199
300.2
300.287
300.285
300.283
300.281
300.279
300.277
300.275
300.273
300.27
300.266
300.263
300.258
300.253
300.247
300.24
300.234
300.228
300.222
300.216
300.211
300.206
300.202
300.198
300.196
300.195
300.194
300.193
300.194
300.194
300.195
300.196
300.198
300.199
300.2
300.202
300.291
300.289
300.287
300.285
300.283
300.281
300.279
300.276
300.274
300.27
300.266
300.262
300.257
300.25
300.244
300.238
300.232
300.226
300.22
300.215
300.21
300.205
300.202
300.2
300.198
300.197
300.197
300.197
300.197
300.198
300.199
300.2
300.201
300.202
300.204
300.295
300.292
300.29
300.289
300.287
300.285
300.283
300.28
300.277
300.274
300.27
300.265
300.26
300.254
300.248
300.241
300.235
300.229
300.224
300.218
300.213
300.209
300.206
300.203
300.202
300.201
300.2
300.2
300.2
300.201
300.202
300.203
300.204
300.205
300.206
298.395
298.345
298.292
298.24
298.193
298.154
298.131
298.12
298.122
298.136
298.167
298.205
298.236
298.275
298.29
298.264
298.209
298.118
297.976
297.821
297.642
297.381
298.447
298.426
298.414
298.412
298.42
298.437
298.463
298.494
298.521
298.519
298.463
298.324
298.148
298.033
297.972
297.943
297.934
297.928
297.916
297.874
297.8
297.688
299.186
299.12
299.052
298.993
298.958
298.957
298.98
299.023
299.081
299.152
299.236
299.329
299.449
299.6
299.756
299.885
299.963
299.985
299.956
299.887
299.785
299.72
299.858
299.806
299.73
299.632
299.52
299.41
299.323
299.28
299.285
299.319
299.346
299.307
299.23
299.215
299.233
299.249
299.253
299.232
299.191
299.143
299.11
299.103
299.738
299.77
299.796
299.815
299.831
299.848
299.87
299.897
299.924
299.949
299.968
299.982
299.998
299.998
300.005
300.025
300.056
300.092
300.122
300.143
300.151
300.147
299.968
299.963
299.953
299.935
299.911
299.886
299.864
299.842
299.824
299.81
299.798
299.786
299.775
299.766
299.762
299.766
299.776
299.791
299.805
299.815
299.816
299.809
300.12
300.118
300.114
300.111
300.107
300.099
300.087
300.074
300.061
300.048
300.037
300.026
300.016
300.007
300.001
299.998
300
300.006
300.015
300.025
300.032
300.033
300.079
300.071
300.064
300.055
300.045
300.033
300.02
300.006
299.99
299.974
299.957
299.94
299.925
299.912
299.902
299.894
299.889
299.886
299.886
299.887
299.887
299.885
300.099
300.096
300.092
300.087
300.08
300.073
300.064
300.054
300.043
300.03
300.016
300.001
299.987
299.975
299.964
299.955
299.949
299.945
299.943
299.942
299.943
299.944
300.074
300.07
300.065
300.059
300.053
300.046
300.038
300.029
300.019
300.008
299.995
299.982
299.969
299.957
299.945
299.935
299.927
299.921
299.916
299.913
299.911
299.91
300.069
300.066
300.063
300.059
300.055
300.05
300.045
300.038
300.031
300.023
300.014
300.004
299.993
299.983
299.973
299.964
299.957
299.95
299.945
299.941
299.938
299.936
300.065
300.061
300.057
300.053
300.049
300.044
300.039
300.033
300.026
300.019
300.011
300.003
299.994
299.985
299.977
299.969
299.962
299.956
299.951
299.947
299.944
299.942
300.069
300.066
300.062
300.059
300.055
300.051
300.046
300.041
300.035
300.029
300.022
300.015
300.008
300.001
299.993
299.986
299.979
299.973
299.967
299.962
299.958
299.956
300.079
300.076
300.072
300.068
300.064
300.059
300.055
300.05
300.044
300.038
300.032
300.026
300.019
300.013
300.007
300.001
299.996
299.991
299.986
299.982
299.978
299.975
300.098
300.095
300.091
300.088
300.084
300.08
300.075
300.07
300.065
300.06
300.054
300.048
300.042
300.036
300.031
300.026
300.021
300.016
300.013
300.009
300.006
300.004
300.117
300.114
300.112
300.109
300.106
300.102
300.099
300.094
300.09
300.085
300.079
300.074
300.068
300.063
300.057
300.052
300.047
300.043
300.039
300.036
300.033
300.031
300.137
300.136
300.134
300.133
300.13
300.128
300.125
300.121
300.117
300.113
300.108
300.103
300.098
300.093
300.088
300.083
300.079
300.074
300.071
300.067
300.064
300.062
300.155
300.155
300.154
300.154
300.152
300.15
300.148
300.146
300.143
300.139
300.135
300.13
300.126
300.121
300.116
300.112
300.107
300.103
300.099
300.096
300.092
300.09
300.17
300.171
300.171
300.171
300.171
300.17
300.169
300.167
300.165
300.162
300.158
300.154
300.15
300.145
300.14
300.136
300.131
300.127
300.123
300.119
300.115
300.112
300.181
300.183
300.184
300.186
300.186
300.187
300.186
300.185
300.184
300.181
300.178
300.175
300.17
300.166
300.161
300.156
300.152
300.147
300.142
300.138
300.134
300.13
300.189
300.192
300.194
300.196
300.198
300.199
300.2
300.2
300.2
300.198
300.196
300.192
300.189
300.184
300.179
300.174
300.169
300.165
300.16
300.155
300.15
300.145
300.194
300.198
300.201
300.204
300.206
300.209
300.211
300.212
300.213
300.212
300.211
300.209
300.205
300.201
300.197
300.192
300.186
300.18
300.175
300.169
300.164
300.158
300.198
300.201
300.205
300.208
300.212
300.215
300.218
300.221
300.223
300.224
300.223
300.222
300.22
300.216
300.212
300.207
300.201
300.195
300.189
300.183
300.177
300.171
300.199
300.203
300.207
300.211
300.215
300.219
300.223
300.226
300.229
300.232
300.233
300.233
300.232
300.229
300.225
300.221
300.216
300.21
300.204
300.198
300.191
300.185
300.2
300.204
300.207
300.212
300.216
300.22
300.225
300.229
300.234
300.237
300.24
300.241
300.241
300.24
300.238
300.234
300.23
300.225
300.219
300.212
300.206
300.199
300.201
300.204
300.208
300.212
300.216
300.221
300.226
300.231
300.236
300.24
300.244
300.247
300.248
300.249
300.248
300.246
300.242
300.238
300.233
300.227
300.221
300.214
300.202
300.205
300.208
300.212
300.216
300.221
300.226
300.231
300.236
300.242
300.246
300.251
300.254
300.255
300.256
300.255
300.253
300.25
300.246
300.241
300.235
300.229
300.204
300.206
300.209
300.212
300.216
300.221
300.226
300.231
300.236
300.242
300.247
300.252
300.257
300.26
300.262
300.262
300.262
300.26
300.257
300.253
300.248
300.243
300.205
300.207
300.21
300.213
300.216
300.22
300.225
300.23
300.236
300.242
300.247
300.253
300.258
300.262
300.265
300.267
300.268
300.268
300.266
300.263
300.26
300.255
300.207
300.209
300.211
300.214
300.217
300.221
300.225
300.23
300.235
300.241
300.247
300.253
300.259
300.263
300.268
300.271
300.273
300.274
300.273
300.272
300.27
300.266
297.066
296.809
296.825
297.092
297.492
297.802
297.48
297.378
297.533
297.704
297.834
297.935
299.734
299.859
299.912
299.894
299.849
299.786
299.133
299.199
299.236
299.247
299.249
299.254
300.136
300.108
300.061
300.006
299.959
299.929
299.789
299.751
299.704
299.653
299.61
299.579
300.028
300.013
299.99
299.965
299.943
299.927
299.879
299.868
299.854
299.838
299.824
299.814
299.945
299.944
299.941
299.938
299.935
299.932
299.909
299.908
299.906
299.905
299.903
299.903
299.936
299.937
299.939
299.942
299.944
299.947
299.941
299.942
299.944
299.947
299.951
299.956
299.954
299.955
299.957
299.961
299.966
299.972
299.974
299.976
299.978
299.983
299.988
299.995
300.003
300.005
300.008
300.013
300.018
300.025
300.032
300.035
300.039
300.044
300.049
300.055
300.062
300.065
300.068
300.072
300.075
300.079
300.089
300.09
300.092
300.093
300.095
300.096
300.11
300.11
300.111
300.111
300.11
300.108
300.128
300.127
300.124
300.122
300.119
300.116
300.142
300.138
300.135
300.131
300.127
300.123
300.153
300.149
300.145
300.141
300.136
300.132
300.166
300.161
300.157
300.152
300.147
300.143
300.179
300.175
300.17
300.165
300.161
300.156
300.194
300.189
300.185
300.18
300.176
300.172
300.209
300.205
300.2
300.196
300.192
300.188
300.224
300.22
300.217
300.213
300.209
300.206
300.239
300.236
300.232
300.229
300.226
300.223
300.252
300.25
300.247
300.245
300.242
300.239
300.264
300.262
300.261
300.259
300.257
300.254
298.022
298.176
298.288
298.364
298.41
298.432
298.434
298.422
298.393
298.328
298.246
298.193
298.183
298.208
298.26
298.322
298.362
298.382
298.397
298.42
298.457
298.496
298.048
298.162
298.293
298.458
298.64
298.725
298.73
298.654
298.524
298.377
298.252
298.209
298.207
298.228
298.257
298.296
298.343
298.39
298.435
298.476
298.505
298.521
299.716
299.645
299.557
299.448
299.31
299.149
298.978
298.835
298.735
298.689
298.693
298.754
298.865
299.01
299.169
299.323
299.46
299.575
299.669
299.744
299.801
299.843
299.272
299.298
299.335
299.373
299.383
299.348
299.297
299.257
299.234
299.224
299.222
299.227
299.249
299.292
299.349
299.41
299.467
299.514
299.553
299.584
299.61
299.63
299.919
299.917
299.914
299.903
299.891
299.89
299.893
299.897
299.904
299.915
299.927
299.937
299.938
299.927
299.906
299.88
299.85
299.82
299.792
299.767
299.746
299.729
299.566
299.563
299.567
299.578
299.594
299.614
299.636
299.659
299.683
299.71
299.737
299.764
299.788
299.805
299.817
299.823
299.819
299.808
299.794
299.779
299.766
299.756
299.921
299.923
299.93
299.941
299.954
299.967
299.978
299.988
299.995
300.001
300.004
300.006
300.004
299.998
299.988
299.973
299.961
299.949
299.938
299.928
299.92
299.913
299.81
299.81
299.813
299.819
299.827
299.835
299.844
299.851
299.858
299.863
299.868
299.872
299.875
299.877
299.878
299.879
299.879
299.881
299.883
299.885
299.889
299.894
299.932
299.935
299.941
299.948
299.958
299.968
299.98
299.991
300.001
300.011
300.02
300.027
300.033
300.037
300.039
300.04
300.04
300.039
300.038
300.036
300.034
300.033
299.904
299.907
299.911
299.917
299.925
299.933
299.942
299.951
299.961
299.969
299.977
299.984
299.989
299.993
299.995
299.996
299.996
299.996
299.995
299.994
299.993
299.992
299.951
299.956
299.962
299.969
299.978
299.987
299.997
300.007
300.018
300.028
300.038
300.046
300.052
300.056
300.058
300.059
300.058
300.057
300.056
300.055
300.054
300.054
299.961
299.968
299.975
299.982
299.99
299.999
300.007
300.016
300.024
300.031
300.038
300.042
300.044
300.044
300.043
300.041
300.038
300.036
300.034
300.033
300.033
300.034
299.98
299.988
299.997
300.006
300.016
300.027
300.038
300.048
300.056
300.063
300.067
300.069
300.07
300.069
300.067
300.064
300.062
300.061
300.06
300.06
300.061
300.063
300.003
300.012
300.022
300.032
300.042
300.051
300.06
300.067
300.073
300.076
300.078
300.077
300.075
300.072
300.069
300.066
300.065
300.063
300.063
300.064
300.065
300.067
300.033
300.042
300.05
300.059
300.067
300.073
300.079
300.082
300.084
300.083
300.082
300.08
300.077
300.075
300.073
300.072
300.073
300.074
300.076
300.079
300.082
300.085
300.061
300.068
300.074
300.08
300.084
300.087
300.088
300.088
300.087
300.085
300.082
300.08
300.078
300.076
300.076
300.077
300.079
300.081
300.084
300.088
300.091
300.095
300.083
300.087
300.09
300.092
300.093
300.093
300.091
300.09
300.087
300.085
300.083
300.081
300.08
300.081
300.082
300.085
300.088
300.091
300.095
300.099
300.104
300.108
300.098
300.099
300.099
300.099
300.097
300.095
300.093
300.091
300.089
300.087
300.086
300.086
300.087
300.089
300.092
300.096
300.1
300.104
300.108
300.113
300.118
300.123
300.107
300.106
300.105
300.103
300.1
300.098
300.096
300.094
300.093
300.092
300.093
300.095
300.098
300.101
300.105
300.11
300.114
300.119
300.124
300.129
300.134
300.139
300.113
300.112
300.11
300.107
300.105
300.104
300.102
300.102
300.102
300.103
300.105
300.108
300.112
300.116
300.121
300.126
300.132
300.137
300.142
300.148
300.153
300.158
300.121
300.119
300.117
300.115
300.114
300.113
300.113
300.114
300.115
300.117
300.121
300.125
300.129
300.135
300.14
300.146
300.151
300.157
300.162
300.167
300.172
300.177
300.129
300.128
300.127
300.126
300.126
300.126
300.127
300.129
300.131
300.135
300.139
300.144
300.149
300.155
300.161
300.166
300.172
300.177
300.183
300.188
300.192
300.196
300.141
300.14
300.14
300.14
300.14
300.142
300.144
300.147
300.15
300.154
300.159
300.165
300.17
300.176
300.182
300.188
300.193
300.198
300.203
300.207
300.211
300.215
300.154
300.154
300.155
300.156
300.158
300.16
300.163
300.167
300.171
300.176
300.181
300.187
300.193
300.198
300.204
300.209
300.214
300.218
300.222
300.226
300.229
300.232
300.17
300.171
300.172
300.174
300.177
300.18
300.184
300.188
300.192
300.198
300.203
300.209
300.214
300.22
300.225
300.229
300.233
300.237
300.24
300.243
300.245
300.246
300.187
300.189
300.191
300.194
300.197
300.201
300.205
300.209
300.214
300.219
300.224
300.23
300.235
300.239
300.244
300.247
300.25
300.253
300.255
300.256
300.257
300.258
300.205
300.207
300.21
300.213
300.217
300.221
300.225
300.23
300.234
300.239
300.244
300.249
300.253
300.257
300.26
300.262
300.264
300.266
300.267
300.267
300.267
300.267
300.223
300.226
300.229
300.232
300.236
300.24
300.244
300.249
300.253
300.257
300.261
300.265
300.268
300.271
300.273
300.274
300.275
300.276
300.276
300.275
300.274
300.273
300.24
300.243
300.246
300.25
300.254
300.257
300.261
300.265
300.269
300.273
300.276
300.278
300.281
300.282
300.283
300.284
300.283
300.283
300.282
300.28
300.279
300.277
300.255
300.258
300.262
300.265
300.269
300.272
300.276
300.279
300.282
300.285
300.287
300.289
300.29
300.29
300.29
300.29
300.289
300.287
300.285
300.283
300.281
300.279
298.517
298.527
298.531
298.534
298.536
298.541
298.55
298.568
298.598
298.646
298.709
298.78
298.849
298.901
298.932
298.947
298.964
298.997
299.049
299.103
299.127
299.112
299.06
298.993
298.92
298.841
298.753
298.66
298.567
298.478
298.397
298.323
298.253
298.174
298.117
298.524
298.522
298.52
298.52
298.523
298.53
298.54
298.555
298.575
298.602
298.637
298.682
298.742
298.827
298.948
299.096
299.253
299.412
299.555
299.656
299.687
299.605
299.355
299.027
298.767
298.593
298.476
298.389
298.32
298.266
298.224
298.192
298.172
298.167
298.15
299.866
299.877
299.883
299.883
299.876
299.86
299.83
299.784
299.718
299.626
299.504
299.355
299.19
299.03
298.919
298.86
298.838
298.838
298.854
298.9
298.99
299.142
299.286
299.392
299.497
299.616
299.722
299.801
299.859
299.902
299.936
299.965
299.993
300.019
300.055
299.645
299.655
299.666
299.676
299.686
299.696
299.704
299.709
299.71
299.705
299.696
299.685
299.684
299.693
299.707
299.715
299.717
299.695
299.657
299.61
299.56
299.507
299.466
299.46
299.472
299.481
299.493
299.508
299.523
299.538
299.552
299.565
299.58
299.598
299.645
299.718
299.711
299.704
299.7
299.697
299.696
299.696
299.698
299.701
299.704
299.705
299.702
299.689
299.67
299.648
299.63
299.62
299.616
299.621
299.633
299.653
299.685
299.741
299.811
299.891
299.973
300.055
300.132
300.2
300.261
300.315
300.362
300.403
300.439
300.472
299.752
299.749
299.75
299.754
299.763
299.778
299.8
299.827
299.855
299.882
299.901
299.915
299.922
299.925
299.927
299.931
299.941
299.954
299.965
299.975
299.983
299.993
300.012
300.038
300.066
300.097
300.131
300.164
300.196
300.226
300.254
300.279
300.302
300.325
300.347
299.908
299.904
299.899
299.895
299.892
299.891
299.893
299.897
299.905
299.915
299.926
299.936
299.945
299.952
299.959
299.966
299.973
299.981
299.99
299.999
300.008
300.017
300.028
300.038
300.049
300.059
300.068
300.076
300.081
300.086
300.088
300.09
300.091
300.092
300.094
299.898
299.9
299.903
299.907
299.911
299.916
299.923
299.932
299.943
299.955
299.969
299.985
300.004
300.026
300.048
300.068
300.087
300.104
300.119
300.134
300.149
300.164
300.178
300.19
300.201
300.211
300.219
300.226
300.233
300.238
300.243
300.248
300.252
300.255
300.256
300.031
300.029
300.027
300.025
300.024
300.022
300.02
300.018
300.016
300.016
300.018
300.022
300.03
300.04
300.053
300.067
300.079
300.089
300.098
300.106
300.113
300.119
300.123
300.125
300.125
300.124
300.122
300.12
300.117
300.113
300.109
300.106
300.102
300.098
300.095
299.991
299.991
299.991
299.992
299.994
299.996
300
300.006
300.013
300.022
300.034
300.047
300.062
300.078
300.093
300.107
300.119
300.13
300.141
300.151
300.161
300.172
300.182
300.191
300.198
300.206
300.212
300.219
300.225
300.231
300.236
300.241
300.247
300.252
300.257
300.054
300.053
300.053
300.053
300.054
300.056
300.058
300.062
300.067
300.073
300.08
300.087
300.095
300.102
300.11
300.118
300.126
300.133
300.14
300.146
300.152
300.158
300.163
300.166
300.169
300.17
300.17
300.17
300.17
300.169
300.168
300.166
300.164
300.163
300.162
300.035
300.036
300.037
300.039
300.042
300.046
300.05
300.056
300.063
300.071
300.08
300.09
300.1
300.11
300.121
300.131
300.14
300.149
300.157
300.165
300.173
300.181
300.188
300.195
300.201
300.207
300.212
300.217
300.221
300.226
300.23
300.234
300.238
300.242
300.247
300.064
300.065
300.066
300.068
300.07
300.073
300.077
300.082
300.087
300.094
300.101
300.108
300.117
300.125
300.133
300.141
300.149
300.156
300.162
300.169
300.175
300.18
300.186
300.19
300.194
300.197
300.199
300.201
300.202
300.202
300.203
300.203
300.203
300.203
300.204
300.069
300.07
300.072
300.074
300.076
300.079
300.083
300.088
300.094
300.1
300.107
300.115
300.123
300.132
300.141
300.149
300.157
300.164
300.171
300.178
300.185
300.192
300.198
300.204
300.209
300.213
300.217
300.221
300.224
300.227
300.23
300.233
300.236
300.239
300.243
300.087
300.089
300.091
300.093
300.095
300.098
300.102
300.106
300.11
300.116
300.122
300.128
300.135
300.142
300.15
300.157
300.164
300.171
300.177
300.183
300.189
300.195
300.2
300.205
300.209
300.212
300.215
300.217
300.219
300.221
300.222
300.223
300.225
300.226
300.228
300.098
300.1
300.102
300.104
300.107
300.11
300.113
300.117
300.121
300.126
300.132
300.138
300.144
300.151
300.158
300.165
300.171
300.177
300.183
300.189
300.195
300.201
300.207
300.212
300.217
300.221
300.224
300.227
300.23
300.232
300.234
300.237
300.239
300.241
300.245
300.111
300.113
300.115
300.118
300.12
300.123
300.127
300.13
300.135
300.139
300.144
300.149
300.154
300.16
300.166
300.172
300.177
300.183
300.188
300.194
300.199
300.205
300.211
300.215
300.219
300.223
300.225
300.228
300.23
300.232
300.234
300.235
300.237
300.238
300.241
300.126
300.128
300.13
300.132
300.135
300.137
300.14
300.144
300.147
300.151
300.155
300.159
300.164
300.168
300.173
300.178
300.183
300.188
300.193
300.198
300.204
300.209
300.215
300.22
300.224
300.228
300.231
300.234
300.237
300.239
300.241
300.243
300.245
300.247
300.25
300.143
300.144
300.146
300.148
300.15
300.153
300.155
300.158
300.161
300.164
300.167
300.17
300.173
300.177
300.181
300.185
300.189
300.193
300.197
300.202
300.207
300.213
300.218
300.223
300.227
300.231
300.234
300.237
300.239
300.241
300.243
300.245
300.246
300.248
300.25
300.161
300.162
300.164
300.165
300.167
300.169
300.171
300.173
300.175
300.177
300.179
300.181
300.183
300.186
300.188
300.191
300.194
300.198
300.202
300.206
300.211
300.217
300.222
300.227
300.231
300.235
300.238
300.241
300.243
300.245
300.247
300.249
300.251
300.253
300.256
300.18
300.181
300.182
300.183
300.184
300.185
300.187
300.188
300.189
300.19
300.191
300.192
300.193
300.194
300.195
300.197
300.2
300.203
300.206
300.211
300.215
300.221
300.226
300.231
300.235
300.239
300.242
300.245
300.247
300.249
300.251
300.253
300.254
300.256
300.259
300.199
300.199
300.2
300.201
300.201
300.202
300.202
300.202
300.202
300.202
300.202
300.202
300.202
300.202
300.202
300.203
300.205
300.208
300.211
300.215
300.219
300.225
300.23
300.235
300.239
300.243
300.246
300.248
300.251
300.253
300.255
300.257
300.258
300.26
300.263
300.217
300.217
300.217
300.217
300.217
300.217
300.216
300.215
300.215
300.214
300.213
300.211
300.21
300.209
300.209
300.209
300.21
300.212
300.215
300.219
300.224
300.229
300.234
300.239
300.243
300.247
300.25
300.252
300.255
300.257
300.259
300.261
300.262
300.264
300.267
300.233
300.233
300.232
300.231
300.231
300.23
300.228
300.227
300.226
300.224
300.222
300.22
300.218
300.216
300.215
300.214
300.215
300.217
300.22
300.223
300.228
300.233
300.238
300.243
300.247
300.251
300.254
300.256
300.259
300.261
300.263
300.264
300.266
300.268
300.27
300.247
300.246
300.245
300.244
300.242
300.241
300.239
300.237
300.235
300.232
300.23
300.227
300.224
300.222
300.22
300.219
300.22
300.221
300.224
300.228
300.232
300.237
300.242
300.247
300.251
300.255
300.258
300.26
300.263
300.265
300.267
300.268
300.27
300.272
300.274
300.258
300.257
300.255
300.254
300.252
300.25
300.248
300.245
300.242
300.239
300.236
300.233
300.23
300.227
300.225
300.224
300.224
300.225
300.228
300.232
300.236
300.241
300.246
300.251
300.255
300.258
300.261
300.264
300.266
300.269
300.27
300.272
300.274
300.275
300.278
300.266
300.265
300.263
300.261
300.259
300.257
300.254
300.251
300.248
300.245
300.241
300.238
300.234
300.231
300.229
300.228
300.228
300.229
300.232
300.236
300.24
300.245
300.25
300.255
300.259
300.262
300.265
300.268
300.27
300.272
300.274
300.276
300.277
300.279
300.281
300.272
300.27
300.268
300.266
300.264
300.261
300.259
300.256
300.252
300.249
300.245
300.241
300.238
300.235
300.232
300.231
300.231
300.233
300.236
300.239
300.244
300.249
300.254
300.258
300.262
300.266
300.269
300.271
300.274
300.276
300.277
300.279
300.281
300.282
300.284
300.275
300.273
300.271
300.269
300.267
300.264
300.262
300.258
300.255
300.252
300.248
300.244
300.241
300.238
300.235
300.235
300.235
300.236
300.239
300.243
300.247
300.252
300.257
300.262
300.266
300.269
300.272
300.275
300.277
300.279
300.281
300.282
300.284
300.285
300.288
300.277
300.275
300.273
300.271
300.268
300.266
300.263
300.26
300.257
300.253
300.25
300.246
300.243
300.24
300.238
300.237
300.238
300.24
300.242
300.246
300.25
300.255
300.26
300.265
300.269
300.272
300.275
300.278
300.28
300.282
300.284
300.285
300.287
300.288
300.29
300.299
300.296
300.295
300.293
300.291
300.289
300.287
300.284
300.281
300.278
300.274
300.269
300.264
300.258
300.251
300.245
300.239
300.233
300.227
300.222
300.217
300.213
300.21
300.207
300.205
300.204
300.204
300.204
300.204
300.204
300.205
300.206
300.207
300.208
300.209
300.303
300.301
300.299
300.297
300.295
300.293
300.291
300.288
300.285
300.282
300.278
300.273
300.268
300.262
300.255
300.249
300.243
300.237
300.231
300.226
300.221
300.217
300.214
300.211
300.209
300.208
300.208
300.207
300.207
300.208
300.208
300.209
300.21
300.211
300.211
300.307
300.305
300.303
300.301
300.299
300.297
300.295
300.292
300.289
300.286
300.282
300.277
300.272
300.266
300.259
300.253
300.247
300.241
300.235
300.23
300.225
300.221
300.217
300.215
300.213
300.212
300.211
300.211
300.211
300.211
300.211
300.212
300.213
300.213
300.214
300.311
300.309
300.307
300.305
300.303
300.301
300.299
300.296
300.293
300.29