/*--------------------------------*- C++ -*----------------------------------*\
  =========                 |
  \\      /  F ield         | OpenFOAM: The Open Source CFD Toolbox
   \\    /   O peration     | Website:  https://openfoam.org
    \\  /    A nd           | Version:  8
     \\/     M anipulation  |
\*---------------------------------------------------------------------------*/
FoamFile
{
    version     2.0;
    format      ascii;
    class       volScalarField;
    location    "0.5";
    object      k;
}
// * * * * * * * * * * * * * * * * * * * * * * * * * * * * * * * * * * * * * //

dimensions      [0 2 -2 0 0 0 0];

internalField   nonuniform List<scalar> 
15677
(
0.33414
0.364994
0.294733
0.368726
0.357644
0.281029
0.370689
0.360059
0.366102
0.282775
0.371882
0.361625
0.361457
0.383349
0.288962
0.372608
0.363739
0.357733
0.368346
0.401802
0.300385
0.373037
0.36566
0.357846
0.358171
0.380188
0.41955
0.31206
0.373261
0.367177
0.359462
0.35461
0.361086
0.39341
0.435123
0.322802
0.373346
0.368306
0.361361
0.354796
0.353104
0.366976
0.406431
0.448218
0.332483
0.373347
0.369084
0.363071
0.356362
0.351161
0.353555
0.373726
0.418514
0.459264
0.340716
0.373312
0.36957
0.364448
0.358239
0.351965
0.348833
0.354884
0.380834
0.429535
0.468286
0.347962
0.373273
0.369827
0.36547
0.359976
0.353747
0.348422
0.347216
0.357191
0.387944
0.439147
0.475983
0.35399
0.373248
0.369929
0.366157
0.36141
0.35569
0.349797
0.345405
0.34637
0.359862
0.394642
0.447785
0.482208
0.359249
0.373239
0.369943
0.366557
0.362491
0.357447
0.351749
0.346245
0.342957
0.345957
0.362709
0.401093
0.455065
0.487626
0.363764
0.373239
0.369924
0.366746
0.363222
0.358877
0.353705
0.348102
0.343114
0.340897
0.345957
0.365704
0.406795
0.461583
0.491991
0.367759
0.373241
0.369908
0.366803
0.363648
0.359933
0.35541
0.350181
0.344765
0.34031
0.339194
0.346108
0.368483
0.412185
0.466984
0.495798
0.371312
0.373243
0.369899
0.366803
0.363846
0.360622
0.356755
0.352107
0.346891
0.341709
0.337796
0.337768
0.34638
0.371349
0.416781
0.471744
0.499003
0.374359
0.373244
0.369894
0.366793
0.363903
0.361003
0.357706
0.353705
0.348985
0.343836
0.338893
0.335574
0.336469
0.346894
0.373823
0.421002
0.475648
0.501801
0.377312
0.373245
0.369891
0.366784
0.363909
0.36115
0.358291
0.354901
0.350801
0.34606
0.340987
0.336348
0.333506
0.335465
0.347288
0.376262
0.424463
0.479052
0.504308
0.379671
0.373245
0.369888
0.366777
0.363902
0.361192
0.35856
0.355691
0.352223
0.348066
0.343314
0.338377
0.333976
0.331719
0.334494
0.347843
0.378232
0.427575
0.481834
0.506453
0.382312
0.373246
0.369886
0.366773
0.363894
0.361195
0.358663
0.356088
0.353217
0.349695
0.345486
0.34078
0.335952
0.331857
0.330056
0.33376
0.348198
0.380116
0.430009
0.48424
0.508586
0.384148
0.373246
0.369885
0.36677
0.363887
0.361187
0.358694
0.356258
0.353759
0.350882
0.347305
0.343101
0.338432
0.333758
0.329913
0.328646
0.333013
0.348665
0.381516
0.432185
0.486195
0.510313
0.386706
0.373246
0.369884
0.366768
0.363881
0.361177
0.358697
0.356319
0.35402
0.351563
0.348677
0.345099
0.340893
0.336301
0.331772
0.328225
0.327348
0.332483
0.348898
0.382847
0.433744
0.487927
0.51237
0.388156
0.373246
0.369883
0.366766
0.363877
0.361169
0.358691
0.356331
0.354135
0.351907
0.349505
0.346652
0.343057
0.3389
0.334401
0.330042
0.326726
0.32631
0.331929
0.349238
0.383712
0.435217
0.489277
0.513783
0.390706
0.373246
0.369883
0.366765
0.363873
0.361162
0.358683
0.356324
0.354176
0.352065
0.349952
0.347619
0.344777
0.34124
0.337146
0.332754
0.32855
0.325519
0.325419
0.33161
0.349362
0.38458
0.436085
0.490696
0.516195
0.39204
0.373246
0.369882
0.366764
0.36387
0.361157
0.358675
0.356312
0.354184
0.352122
0.350181
0.348154
0.345887
0.343147
0.339648
0.335651
0.331397
0.327396
0.324566
0.324805
0.331271
0.349602
0.385032
0.437119
0.491558
0.517772
0.50755
0.373246
0.369882
0.366763
0.363868
0.361153
0.358668
0.3563
0.354179
0.352132
0.350284
0.34843
0.346537
0.344399
0.341712
0.338358
0.334502
0.330397
0.326516
0.323909
0.324403
0.331257
0.349748
0.385606
0.437558
0.493597
0.526844
0.722219
0.373246
0.369883
0.366762
0.363866
0.36115
0.358662
0.35629
0.354169
0.352122
0.350322
0.348553
0.346901
0.345133
0.343117
0.340654
0.337394
0.33366
0.32972
0.326118
0.323738
0.324445
0.331347
0.350024
0.385866
0.438569
0.493893
0.544217
0.902162
0.373246
0.369883
0.366762
0.363864
0.361148
0.358656
0.356282
0.354158
0.352105
0.350327
0.348593
0.347088
0.34554
0.343994
0.34221
0.339826
0.336847
0.333433
0.329751
0.326232
0.32391
0.324685
0.331611
0.350297
0.38636
0.439019
0.493469
0.557311
1.04369
0.373245
0.369883
0.366761
0.363863
0.361146
0.358652
0.356276
0.354148
0.352088
0.350318
0.348593
0.34717
0.345741
0.344523
0.343151
0.341592
0.339697
0.336958
0.333675
0.330099
0.326681
0.324416
0.325234
0.332149
0.350791
0.386796
0.438657
0.491632
0.565698
1.15215
0.373245
0.369883
0.366761
0.363862
0.361145
0.358648
0.356271
0.35414
0.352075
0.350303
0.348575
0.347194
0.345824
0.344817
0.343701
0.342769
0.341686
0.339984
0.337463
0.334382
0.330954
0.327655
0.325433
0.326266
0.333052
0.351445
0.387301
0.437491
0.487779
0.571384
1.2431
0.373245
0.369883
0.366761
0.363861
0.361143
0.358645
0.356267
0.354132
0.352064
0.350288
0.348554
0.347188
0.345845
0.344958
0.344
0.343516
0.342958
0.342163
0.340788
0.338577
0.335808
0.33259
0.329347
0.327073
0.327744
0.334308
0.352372
0.387318
0.435135
0.482249
0.574563
1.31635
0.373245
0.369883
0.366761
0.363861
0.361142
0.358643
0.356265
0.354125
0.352056
0.350275
0.348534
0.347168
0.345837
0.345006
0.344155
0.343958
0.343773
0.343594
0.343239
0.342394
0.340621
0.338116
0.33501
0.331753
0.329309
0.329723
0.335958
0.353412
0.387134
0.431687
0.47555
0.576694
1.37146
0.373245
0.369883
0.36676
0.36386
0.361142
0.35864
0.356262
0.35412
0.352049
0.350262
0.348517
0.347146
0.345816
0.345005
0.34423
0.344183
0.344266
0.344529
0.344922
0.345276
0.344981
0.343598
0.341326
0.338293
0.33491
0.332219
0.332213
0.337996
0.3546
0.386641
0.42744
0.467962
0.578494
1.41519
0.373245
0.369884
0.36676
0.36386
0.361141
0.358638
0.356261
0.354114
0.352043
0.350251
0.348504
0.347125
0.345794
0.344981
0.344252
0.34428
0.344544
0.345115
0.34606
0.347262
0.348318
0.348624
0.347623
0.345555
0.342494
0.338912
0.335804
0.335242
0.340403
0.355866
0.385752
0.422292
0.461042
0.580766
1.45165
0.369884
0.373248
0.36676
0.363859
0.361141
0.358636
0.356259
0.35411
0.352039
0.350242
0.348492
0.347105
0.345773
0.344951
0.344246
0.344314
0.344682
0.34547
0.346807
0.348641
0.35068
0.352531
0.353462
0.352833
0.350879
0.347716
0.343763
0.340115
0.338786
0.343191
0.357473
0.384438
0.417488
0.454812
0.583304
1.48355
0.36676
0.369894
0.373255
0.363859
0.36114
0.358634
0.356258
0.354106
0.352036
0.350233
0.348483
0.347089
0.345754
0.344923
0.344227
0.344316
0.344744
0.345672
0.347289
0.349585
0.352371
0.355365
0.358079
0.359656
0.359326
0.357418
0.35398
0.349532
0.34511
0.342841
0.346647
0.359412
0.383309
0.412921
0.449457
0.586666
1.51232
0.363858
0.366776
0.369915
0.373263
0.36114
0.358633
0.356257
0.354102
0.352033
0.350226
0.348475
0.347074
0.345738
0.344897
0.344206
0.344304
0.344766
0.345784
0.347602
0.35023
0.353578
0.35746
0.361508
0.365147
0.367333
0.367242
0.365205
0.361365
0.356169
0.350812
0.347923
0.350855
0.361647
0.382236
0.408903
0.44495
0.590323
1.53891
0.36114
0.36388
0.36681
0.369937
0.37327
0.358632
0.356257
0.354099
0.352031
0.350219
0.348469
0.347061
0.345724
0.344875
0.344186
0.344288
0.344771
0.345846
0.347805
0.350684
0.354455
0.359022
0.364126
0.369322
0.373892
0.376655
0.376633
0.37434
0.369824
0.363708
0.357892
0.354288
0.355458
0.364087
0.381515
0.405281
0.441135
0.594472
1.56391
0.35863
0.361167
0.363925
0.366844
0.36996
0.373278
0.356256
0.354096
0.352029
0.350213
0.348464
0.34705
0.345712
0.344856
0.344168
0.344272
0.344768
0.345883
0.347941
0.351019
0.355118
0.360219
0.36616
0.37261
0.378994
0.384502
0.387699
0.387622
0.384777
0.379405
0.373037
0.366699
0.361308
0.360407
0.366823
0.381069
0.402154
0.438001
0.598945
1.58742
0.356256
0.358661
0.361222
0.363971
0.366879
0.369983
0.373286
0.354093
0.352028
0.350207
0.34846
0.34704
0.345702
0.344839
0.344152
0.344258
0.344764
0.345908
0.34804
0.351273
0.355652
0.361186
0.367803
0.37527
0.383137
0.390746
0.397085
0.400615
0.400167
0.39659
0.391239
0.384601
0.37637
0.368893
0.365658
0.369737
0.381131
0.399553
0.435319
0.603454
1.60989
0.354091
0.356292
0.358725
0.361279
0.364018
0.366916
0.370006
0.373294
0.352027
0.350202
0.348456
0.347031
0.345693
0.344825
0.344138
0.344245
0.34476
0.345929
0.348119
0.351476
0.356093
0.362015
0.369202
0.377521
0.386622
0.395976
0.404727
0.41183
0.415375
0.414372
0.411171
0.405887
0.397267
0.386795
0.376947
0.37118
0.372756
0.381386
0.397378
0.433179
0.608316
1.63105
0.352026
0.354128
0.356365
0.35879
0.361338
0.364066
0.366953
0.37003
0.373302
0.350198
0.348454
0.347023
0.345686
0.344812
0.344126
0.344234
0.344756
0.345947
0.348187
0.351649
0.356465
0.36274
0.370465
0.379528
0.389693
0.400537
0.411328
0.421186
0.42874
0.432128
0.43191
0.429219
0.421921
0.410895
0.397841
0.385374
0.376952
0.375867
0.381901
0.395615
0.431366
0.612944
1.65134
0.350194
0.352069
0.354207
0.356441
0.358858
0.361398
0.364116
0.366991
0.370055
0.373311
0.348451
0.347015
0.34568
0.344802
0.344116
0.344225
0.344753
0.345963
0.348247
0.351801
0.356792
0.363374
0.371614
0.381413
0.39254
0.404704
0.417271
0.429503
0.440169
0.448038
0.45287
0.453667
0.448974
0.439148
0.425308
0.409377
0.394086
0.382898
0.379068
0.38274
0.394217
0.429959
0.617816
1.67038
0.34845
0.350235
0.352156
0.354288
0.356519
0.358927
0.36146
0.364167
0.367031
0.370081
0.37332
0.347009
0.345675
0.344792
0.344107
0.344217
0.344752
0.345978
0.348302
0.351938
0.357085
0.363942
0.372647
0.383183
0.395301
0.4087
0.422885
0.437224
0.450598
0.461977
0.472085
0.478754
0.477538
0.47021
0.457353
0.440336
0.421271
0.402991
0.388951
0.382328
0.383687
0.393183
0.4288
0.622425
1.68861
0.347003
0.348495
0.350323
0.352246
0.354372
0.356599
0.358998
0.361524
0.364219
0.367071
0.370107
0.373329
0.34567
0.344784
0.344099
0.34421
0.34475
0.345992
0.348352
0.352063
0.35735
0.364457
0.373589
0.384807
0.397962
0.412691
0.428429
0.44474
0.460562
0.475032
0.489326
0.502341
0.507386
0.503327
0.492691
0.476319
0.4558
0.433392
0.411996
0.395048
0.38566
0.384715
0.392406
0.427935
0.627083
1.70563
0.345667
0.347042
0.348588
0.350414
0.352339
0.354457
0.356682
0.359071
0.361589
0.364273
0.367113
0.370133
0.373339
0.344777
0.344091
0.344204
0.34475
0.346005
0.348397
0.352176
0.357591
0.364929
0.374453
0.386307
0.400451
0.416624
0.4341
0.452365
0.470532
0.487858
0.505923
0.524077
0.536099
0.538548
0.530777
0.516163
0.495836
0.471528
0.445611
0.421017
0.401138
0.389036
0.385807
0.391868
0.427249
0.631571
1.72188
0.344772
0.345706
0.347128
0.348685
0.350507
0.352435
0.354546
0.356767
0.359147
0.361656
0.364328
0.367156
0.370161
0.373348
0.344084
0.344199
0.344749
0.346018
0.348439
0.352278
0.357811
0.36536
0.375248
0.387697
0.40278
0.420361
0.439797
0.460352
0.480904
0.501038
0.522696
0.545653
0.563291
0.573213
0.571977
0.559632
0.540408
0.515699
0.487363
0.457815
0.429977
0.407175
0.392418
0.386957
0.391504
0.426772
0.635896
1.73699
0.344078
0.344799
0.345788
0.347217
0.348785
0.350604
0.352533
0.354637
0.356854
0.359224
0.361725
0.364385
0.367199
0.370188
0.373357
0.344194
0.344749
0.346029
0.348476
0.352371
0.35801
0.365753
0.375978
0.388984
0.40496
0.423896
0.445292
0.468546
0.491997
0.515078
0.540408
0.568159
0.591114
0.606962
0.613492
0.607412
0.589612
0.565191
0.535722
0.503157
0.4699
0.438808
0.413116
0.395778
0.388146
0.391293
0.426413
0.640187
1.75137
0.344194
0.344087
0.344862
0.345872
0.347309
0.348888
0.350704
0.352635
0.354731
0.356943
0.359304
0.361796
0.364443
0.367242
0.370214
0.373366
0.344748
0.346039
0.348509
0.352456
0.358191
0.366112
0.376647
0.390175
0.406995
0.427233
0.45056
0.476586
0.503564
0.530418
0.559773
0.592686
0.621078
0.64259
0.655097
0.656785
0.644605
0.620452
0.590287
0.555729
0.518786
0.481778
0.447453
0.418928
0.399088
0.389363
0.391204
0.426208
0.644126
1.76468
0.344751
0.344184
0.344107
0.344925
0.345962
0.347405
0.348995
0.350807
0.352739
0.354828
0.357035
0.359386
0.361868
0.364501
0.367285
0.370239
0.373375
0.346047
0.348538
0.352532
0.358356
0.36644
0.37726
0.391273
0.408888
0.430372
0.455594
0.484385
0.515048
0.546782
0.58149
0.620329
0.654822
0.682337
0.700585
0.707876
0.703016
0.683342
0.651915
0.615495
0.575581
0.534145
0.493376
0.455865
0.42458
0.402328
0.390592
0.39122
0.426088
0.648169
1.77734
0.34606
0.344713
0.344162
0.34413
0.344992
0.346057
0.347505
0.349106
0.350913
0.352846
0.354927
0.357129
0.35947
0.36194
0.364557
0.367325
0.370264
0.373383
0.348563
0.352599
0.358505
0.366737
0.377821
0.392283
0.410643
0.433313
0.460377
0.491896
0.526329
0.563447
0.605216
0.652221
0.694241
0.729028
0.753623
0.766124
0.765718
0.752209
0.723459
0.683798
0.640636
0.595152
0.549147
0.504637
0.464007
0.430051
0.405482
0.391824
0.39127
0.426098
0.651714
1.789
0.348594
0.345978
0.344619
0.344133
0.344171
0.345061
0.346158
0.347608
0.34922
0.351024
0.352957
0.35503
0.357226
0.359553
0.362009
0.364611
0.367365
0.370288
0.373391
0.35266
0.358639
0.367008
0.378332
0.39321
0.412266
0.436058
0.464896
0.499086
0.537371
0.58021
0.629733
0.688101
0.741877
0.786656
0.819509
0.837723
0.840685
0.829202
0.804447
0.764826
0.715934
0.665564
0.614335
0.563724
0.515517
0.471851
0.435321
0.408538
0.393055
0.391368
0.426148
0.655478
1.8001
0.352726
0.34844
0.345774
0.344516
0.344096
0.344227
0.345134
0.346264
0.347716
0.349338
0.351137
0.35307
0.355135
0.357321
0.359634
0.362077
0.364664
0.367403
0.370311
0.373399
0.35876
0.367252
0.378798
0.394059
0.413762
0.438611
0.469146
0.505935
0.548126
0.596893
0.65458
0.726744
0.799147
0.861221
0.906047
0.931784
0.937677
0.925665
0.898803
0.859772
0.807322
0.748178
0.690159
0.633048
0.577826
0.525984
0.479376
0.440379
0.411484
0.394273
0.391516
0.426255
0.65865
1.80901
0.358884
0.352488
0.348053
0.34556
0.344426
0.344062
0.344294
0.34521
0.346375
0.347827
0.34946
0.351255
0.353186
0.35524
0.357414
0.359713
0.362143
0.364716
0.367441
0.370334
0.373407
0.367474
0.379219
0.394835
0.415138
0.440978
0.473126
0.512433
0.558535
0.613297
0.67965
0.768487
0.865675
0.956606
1.02329
1.06012
1.06979
1.05521
1.02166
0.974602
0.918068
0.850789
0.780391
0.714323
0.651223
0.591411
0.536015
0.486571
0.445217
0.414315
0.39547
0.391684
0.426401
0.661648
1.81646
0.367694
0.358532
0.351853
0.34765
0.345366
0.344345
0.344035
0.34437
0.34529
0.34649
0.347944
0.349586
0.351376
0.3533
0.355342
0.357504
0.35979
0.362206
0.364766
0.367477
0.370356
0.373414
0.379607
0.395542
0.416401
0.443169
0.476843
0.518571
0.568536
0.629287
0.705067
0.813882
0.941478
1.06977
1.17399
1.2341
1.25069
1.23349
1.18971
1.12802
1.05611
0.979002
0.895013
0.812441
0.73797
0.668811
0.604456
0.545598
0.493429
0.449828
0.417026
0.396637
0.391882
0.426576
0.663874
1.82454
0.379977
0.367196
0.357547
0.351197
0.347274
0.345189
0.344272
0.344016
0.344452
0.345377
0.34661
0.348066
0.349713
0.351497
0.353412
0.355442
0.357592
0.359864
0.362268
0.364815
0.367513
0.370378
0.373421
0.396194
0.417559
0.445191
0.480305
0.524348
0.578086
0.644815
0.731013
0.862841
1.02497
1.19593
1.34677
1.45041
1.48955
1.47323
1.41906
1.3384
1.24299
1.1423
1.04201
0.939716
0.844186
0.761029
0.685774
0.616947
0.554729
0.499946
0.454213
0.419614
0.39777
0.392061
0.426718
0.666641
1.83327
0.396802
0.379296
0.365718
0.356531
0.350576
0.346923
0.345024
0.344208
0.344006
0.344539
0.345471
0.346733
0.348192
0.34984
0.351615
0.35352
0.355539
0.357677
0.359937
0.362329
0.364862
0.367547
0.370398
0.373425
0.418632
0.447056
0.483521
0.529764
0.587164
0.659886
0.757543
0.914546
1.11323
1.32913
1.53081
1.68801
1.77548
1.78011
1.72
1.62068
1.49732
1.36408
1.23176
1.10639
0.984572
0.875481
0.783435
0.702085
0.628874
0.563405
0.506126
0.458373
0.422078
0.398719
0.392231
0.426928
0.669265
1.84278
0.41961
0.3959
0.377132
0.364204
0.355567
0.349989
0.346593
0.344871
0.344155
0.344007
0.34463
0.345574
0.346859
0.34832
0.349964
0.351731
0.353626
0.355633
0.357759
0.360008
0.362387
0.364908
0.36758
0.370409
0.373425
0.448792
0.486507
0.534828
0.59577
0.674518
0.784531
0.967784
1.20319
1.46387
1.7174
1.93227
2.0798
2.1371
2.09562
1.98291
1.83236
1.66229
1.48865
1.32298
1.17134
1.02923
0.906181
0.805136
0.717725
0.640235
0.571633
0.511974
0.46231
0.42411
0.399536
0.392424
0.427146
0.67264
1.85308
0.450346
0.418434
0.392785
0.374931
0.362763
0.354647
0.349427
0.346281
0.34473
0.344112
0.34402
0.344723
0.345685
0.346984
0.348446
0.350084
0.351844
0.353728
0.355725
0.35784
0.360077
0.362444
0.364953
0.367597
0.370409
0.373425
0.489297
0.539562
0.60392
0.688723
0.811722
1.02132
1.29231
1.59609
1.90027
2.17357
2.3859
2.50979
2.52468
2.42724
2.25496
2.0488
1.82956
1.61423
1.41449
1.23609
1.07333
0.93615
0.826081
0.732684
0.651034
0.579422
0.517497
0.46554
0.425839
0.400441
0.392663
0.427471
0.675766
1.86433
0.491756
0.448834
0.414008
0.389644
0.372833
0.361382
0.353762
0.348888
0.34599
0.344601
0.34408
0.34405
0.344816
0.345801
0.347107
0.34857
0.350201
0.351954
0.353828
0.355815
0.357918
0.360144
0.362499
0.364975
0.367597
0.370409
0.373425
0.544007
0.611648
0.702508
0.838813
1.0741
1.37883
1.72323
2.07555
2.4056
2.6836
2.87991
2.9678
2.92951
2.76772
2.5304
2.26567
1.99605
1.73873
1.50498
1.29991
1.11655
0.96526
0.846231
0.746958
0.661279
0.586782
0.52202
0.468278
0.427736
0.401451
0.392935
0.427796
0.679883
1.87648
0.547884
0.489837
0.442591
0.409584
0.38665
0.370818
0.360047
0.352907
0.34837
0.34572
0.344483
0.344054
0.344107
0.344908
0.345918
0.347226
0.348692
0.350316
0.352061
0.353925
0.355902
0.357994
0.360209
0.362527
0.364975
0.367597
0.370409
0.373425
0.619004
0.715883
0.86553
1.12534
1.4616
1.84382
2.2411
2.62472
2.96633
3.2363
3.4046
3.44531
3.34426
3.11115
2.80471
2.47966
2.15937
1.86052
1.59341
1.36221
1.15861
0.993397
0.865556
0.760549
0.670981
0.59281
0.525849
0.471273
0.429822
0.402571
0.393273
0.428279
0.683646
1.88974
0.625431
0.545436
0.481048
0.436413
0.405366
0.383766
0.368865
0.358755
0.352083
0.347872
0.34547
0.344375
0.344019
0.344181
0.344997
0.346036
0.347343
0.348811
0.350427
0.352166
0.354019
0.355986
0.358068
0.360241
0.362526
0.364975
0.367597
0.370409
0.373425
0.72884
0.891646
1.17449
1.53997
1.95713
2.39591
2.8291
3.23027
3.57144
3.8221
3.9514
3.93475
3.76263
3.45262
3.07432
2.68823
2.31775
1.97838
1.67898
1.42252
1.19927
1.02047
0.884033
0.77346
0.678943
0.597915
0.530031
0.47455
0.432115
0.403825
0.393658
0.428754
0.688683
1.90404
0.740241
0.622341
0.532941
0.472456
0.430524
0.401296
0.380966
0.366969
0.357505
0.35129
0.347399
0.345237
0.344281
0.34399
0.344263
0.345086
0.346153
0.347458
0.348927
0.350536
0.352268
0.354111
0.356069
0.358104
0.360241
0.362526
0.364975
0.367597
0.370409
0.373421
0.916933
1.22121
1.61362
2.06286
2.53965
3.01805
3.47361
3.88089
4.21117
4.43223
4.51241
4.42925
4.1791
3.78813
3.3365
2.88956
2.46994
2.09144
1.7611
1.48045
1.23833
1.04642
0.901646
0.784084
0.685693
0.603495
0.534603
0.478139
0.434641
0.40522
0.394133
0.429454
0.693302
1.91957
0.736459
0.939084
0.603828
0.520979
0.464262
0.424835
0.39734
0.378244
0.365131
0.356299
0.350532
0.346954
0.345028
0.3442
0.343972
0.344349
0.345176
0.346268
0.347571
0.349041
0.350642
0.352367
0.3542
0.35611
0.358104
0.360241
0.362526
0.364975
0.367596
0.370398
0.373414
1.26523
1.68244
2.16103
2.67241
3.19161
3.69589
4.16257
4.56619
4.8763
5.05836
5.0801
4.92246
4.58886
4.11441
3.58916
3.08234
2.61514
2.19915
1.83938
1.53577
1.27568
1.07117
0.916176
0.793109
0.693085
0.609598
0.539604
0.482073
0.437424
0.40679
0.394677
0.430144
0.699472
1.9363
0.707338
0.935448
1.30303
0.586653
0.50961
0.456337
0.419299
0.393489
0.375602
0.363355
0.355141
0.34981
0.346543
0.344844
0.344135
0.343966
0.344436
0.345268
0.346381
0.347682
0.349151
0.350745
0.352464
0.354244
0.35611
0.358104
0.360241
0.362526
0.364975
0.36758
0.370377
0.373406
1.74636
2.25184
2.79455
3.35024
3.89753
4.4162
4.88461
5.27632
5.55804
5.69237
5.64728
5.40857
4.98778
4.42886
3.83081
3.26576
2.75283
2.30118
1.91359
1.58831
1.31121
1.0916
0.92854
0.803011
0.701183
0.616278
0.545076
0.486387
0.440496
0.408537
0.395343
0.43114
0.705286
1.95432
0.680695
0.888936
1.29966
1.80068
0.570598
0.498604
0.448623
0.413907
0.389747
0.373044
0.361644
0.354032
0.349132
0.346175
0.344685
0.344085
0.343972
0.344523
0.345362
0.346492
0.347791
0.34926
0.350847
0.352512
0.354244
0.35611
0.358104
0.360241
0.362526
0.364952
0.367546
0.370355
0.373399
2.33544
2.90659
3.49475
4.07951
4.64272
5.16631
5.62896
6.00194
6.24785
6.3264
6.20714
5.88237
5.37239
4.72949
4.06044
3.4393
2.88277
2.39739
1.98362
1.63799
1.34043
1.10899
0.94213
0.813883
0.710064
0.623595
0.55107
0.491122
0.443886
0.410511
0.396113
0.432145
0.712845
1.97369
0.656209
0.845153
1.23175
1.79844
2.40585
0.555208
0.487879
0.441112
0.408667
0.386123
0.370576
0.360002
0.352983
0.348514
0.345851
0.34455
0.344049
0.343991
0.344607
0.345457
0.3466
0.347899
0.349366
0.350897
0.352512
0.354245
0.35611
0.358104
0.360241
0.362498
0.364907
0.367511
0.370333
0.373391
3.00896
3.62612
4.24328
4.84386
5.4129
5.93423
6.38561
6.73422
6.93746
6.95284
6.75336
6.33932
5.73996
5.01491
4.27743
3.60273
3.0049
2.48776
2.04945
1.67861
1.36523
1.12809
0.957074
0.825832
0.71981
0.631616
0.557639
0.496321
0.447636
0.412715
0.397038
0.433422
0.720371
1.99425
0.633231
0.804189
1.16515
1.71145
2.40556
3.09448
0.540296
0.477431
0.433815
0.403589
0.382624
0.368204
0.358443
0.352021
0.347962
0.345568
0.344435
0.344024
0.344024
0.344688
0.345554
0.346706
0.348006
0.349419
0.350896
0.352512
0.354245
0.35611
0.358104
0.360208
0.362442
0.36486
0.367476
0.37031
0.373382
3.74511
4.39043
5.02193
5.62718
6.19467
6.70911
7.14545
7.46478
7.61885
7.56443
7.28021
6.77566
6.08843
5.28421
4.48146
3.75607
3.11932
2.57238
2.103
1.71295
1.39241
1.14908
0.973516
0.838971
0.730514
0.640416
0.564843
0.502036
0.451782
0.415205
0.398126
0.434787
0.729623
2.01632
0.611433
0.765619
1.1002
1.62437
2.30176
3.09656
3.84324
0.525817
0.467282
0.42675
0.398685
0.379258
0.365949
0.357008
0.351156
0.347468
0.345323
0.344337
0.344003
0.344074
0.344767
0.345653
0.346813
0.348059
0.349418
0.350897
0.352513
0.354246
0.35611
0.358067
0.360142
0.362385
0.364812
0.367439
0.370287
0.373374
4.52222
5.17945
5.81269
6.41444
6.97602
7.48146
7.90025
8.18566
8.28422
8.15436
7.78274
7.18846
6.41641
5.53688
4.67254
3.89945
3.2262
2.64098
2.14815
1.75043
1.42218
1.17215
0.991615
0.85343
0.742281
0.650077
0.572749
0.508318
0.456375
0.418005
0.399406
0.436409
0.739606
2.03921
0.590674
0.729305
1.03667
1.53747
2.19691
2.9776
3.84681
4.62875
0.511778
0.45746
0.419932
0.393968
0.376057
0.36387
0.355714
0.350378
0.347025
0.345113
0.344254
0.343979
0.344134
0.344847
0.345756
0.346864
0.348058
0.349419
0.350898
0.352513
0.354247
0.356069
0.357993
0.360075
0.362326
0.364763
0.367402
0.370263
0.373365
5.31837
5.97314
6.5987
7.1922
7.74688
8.24322
8.64249
8.88911
8.92603
8.71648
8.25696
7.57564
6.72309
5.77287
4.85086
4.03316
3.31267
2.69869
2.19724
1.7913
1.45477
1.1975
1.01154
0.86935
0.755223
0.660692
0.581433
0.515233
0.461463
0.421161
0.400935
0.438362
0.750986
2.06806
0.570878
0.695273
0.974677
1.45033
2.09124
2.85731
3.71364
4.63141
5.42749
0.498201
0.447993
0.413379
0.389482
0.373103
0.361991
0.354547
0.349678
0.346629
0.344931
0.344184
0.34396
0.344203
0.344934
0.345807
0.34686
0.348059
0.34942
0.350899
0.352514
0.354203
0.355986
0.357916
0.360005
0.362265
0.364713
0.367363
0.370239
0.373356
6.11147
6.75285
7.36494
7.9496
8.49927
8.98748
9.36507
9.56747
9.53714
9.24553
8.69984
7.93591
7.00825
5.99238
5.01677
4.14115
3.38532
2.76132
2.25059
1.83582
1.49042
1.22534
1.03347
0.886884
0.769465
0.672364
0.590977
0.522844
0.467107
0.424741
0.402707
0.440459
0.766916
2.10052
0.551989
0.663572
0.914627
1.36284
1.98418
2.73567
3.57962
4.48401
5.42545
6.21637
0.48512
0.438912
0.407155
0.385346
0.370434
0.360295
0.353495
0.34905
0.346279
0.344774
0.344126
0.343956
0.344286
0.344971
0.345802
0.346861
0.348061
0.349421
0.350902
0.352467
0.354113
0.355901
0.357837
0.359934
0.362203
0.364661
0.367324
0.370213
0.373347
6.88107
7.50175
8.09948
8.67854
9.2267
9.70831
10.0609
10.2132
10.111
9.7373
9.10941
8.26883
7.27212
6.19586
5.15045
4.23175
3.46402
2.8292
2.3085
1.88427
1.52937
1.25589
1.05761
0.906195
0.785144
0.685204
0.601471
0.531233
0.473374
0.42876
0.404846
0.443901
0.785765
2.13142
0.533968
0.634198
0.857092
1.27522
1.87531
2.61203
3.44442
4.33719
5.26241
6.20475
6.97329
0.47257
0.430304
0.40142
0.38161
0.368024
0.358764
0.352547
0.348488
0.34597
0.344638
0.344086
0.34398
0.344326
0.344957
0.345804
0.346863
0.348062
0.349424
0.350853
0.35237
0.354021
0.355814
0.357757
0.359861
0.362139
0.364608
0.367283
0.370187
0.373338
7.60847
8.20673
8.79414
9.37215
9.92322
10.3997
10.7234
10.8185
10.6419
10.1888
9.48484
8.57461
7.51525
6.35913
5.26238
4.32975
3.5492
2.90272
2.37129
1.93694
1.57189
1.28938
1.08415
0.927456
0.802403
0.699332
0.613021
0.540478
0.480331
0.43336
0.407785
0.447715
0.810191
2.159
0.516791
0.607069
0.802725
1.18796
1.76449
2.48564
3.30729
4.19018
5.10268
6.02301
6.94577
7.67807
0.460678
0.422394
0.396245
0.378237
0.365847
0.357383
0.351694
0.347984
0.345696
0.344529
0.344081
0.34398
0.344315
0.344957
0.345806
0.346866
0.348066
0.349373
0.350752
0.352271
0.353927
0.355725
0.357674
0.359786
0.362073
0.364554
0.367241
0.370161
0.373328
8.27937
8.85857
9.43585
10.0163
10.5748
11.0509
11.3435
11.3762
11.1256
10.5986
9.82625
8.85394
7.70908
6.49542
5.38317
4.43562
3.64127
2.98224
2.43927
1.99408
1.61819
1.32602
1.11328
0.950841
0.821393
0.71488
0.625727
0.550683
0.488083
0.43947
0.411858
0.453662
0.833627
2.18344
0.500561
0.582033
0.752158
1.10179
1.65183
2.35599
3.16724
4.04222
4.94482
5.84898
6.74125
7.62651
8.31606
0.449764
0.415277
0.39158
0.375194
0.363883
0.356137
0.350925
0.347531
0.345467
0.344473
0.344065
0.343949
0.344318
0.344959
0.345807
0.346872
0.348015
0.349267
0.350649
0.35217
0.35383
0.355633
0.357589
0.359709
0.362006
0.364498
0.367198
0.370134
0.373318
8.88226
9.44637
10.0276
10.6217
11.1839
11.653
11.9125
11.8801
11.5595
10.9665
10.1345
9.07453
7.87004
6.64189
5.51327
4.5498
3.74065
3.0681
2.51275
2.05596
1.66851
1.36601
1.1452
0.976521
0.842266
0.731971
0.639726
0.561945
0.498292
0.447468
0.416578
0.459109
0.864069
2.20252
0.485663
0.559041
0.705914
1.01764
1.53759
2.22275
3.02336
3.8921
4.78804
5.6802
6.55038
7.39478
8.22533
8.87685
0.439968
0.408876
0.387376
0.37245
0.362111
0.355012
0.35023
0.347144
0.345319
0.344426
0.344027
0.343949
0.34432
0.344964
0.345814
0.346822
0.34791
0.34916
0.350545
0.352067
0.353731
0.35554
0.357502
0.359631
0.361937
0.364441
0.367155
0.370107
0.373309
9.41244
9.96869
10.5651
11.186
11.7569
12.2036
12.4227
12.3262
11.9428
11.2935
10.3747
9.25639
8.04197
6.79892
5.65312
4.67273
3.84773
3.16065
2.59198
2.12279
1.72304
1.40953
1.18007
1.00465
0.86516
0.75076
0.655111
0.576689
0.511169
0.456166
0.421969
0.46742
0.895129
2.2151
0.472271
0.538373
0.664523
0.936716
1.42227
2.08577
2.87485
3.73854
4.63094
5.51575
6.36957
7.1837
7.96355
8.72502
9.34225
0.43119
0.40312
0.383589
0.369976
0.360508
0.353993
0.349629
0.346869
0.345216
0.344373
0.344028
0.343952
0.34432
0.344982
0.345766
0.346717
0.347804
0.349051
0.350437
0.351961
0.353629
0.355444
0.357413
0.35955
0.361866
0.364382
0.367111
0.370081
0.3733
9.85641
10.4192
11.0462
11.7027
12.2838
12.6947
12.8667
12.713
12.2762
11.5436
10.5707
9.44891
8.22495
6.96678
5.80308
4.80478
3.96283
3.26017
2.67722
2.19475
1.78192
1.45671
1.21802
1.03535
0.890215
0.771324
0.675173
0.595003
0.524948
0.46578
0.428319
0.475875
0.932366
2.22249
0.460255
0.519983
0.628887
0.861013
1.30674
1.94507
2.72099
3.58025
4.47192
5.35402
6.19766
6.9889
7.72888
8.43066
9.11876
9.70361
0.423329
0.397945
0.380179
0.367739
0.359057
0.353104
0.349183
0.346694
0.345139
0.344375
0.344032
0.343957
0.344332
0.344946
0.345665
0.346612
0.347698
0.348939
0.350328
0.351853
0.353525
0.355345
0.357321
0.359468
0.361794
0.364325
0.367069
0.370056
0.373291
10.2097
10.7964
11.4713
12.1701
12.7538
13.1158
13.2376
13.0397
12.5243
11.7447
10.7756
9.65164
8.41887
7.14559
5.96338
4.94624
4.08625
3.36689
2.76862
2.27196
1.84523
1.50762
1.25911
1.06871
0.91747
0.797994
0.69984
0.614326
0.539674
0.476302
0.435589
0.487021
0.971791
2.22123
0.449501
0.503501
0.598861
0.793669
1.19307
1.80092
2.56118
3.41593
4.30927
5.19312
6.03272
6.8089
7.51778
8.16939
8.78439
9.39602
9.95462
0.416293
0.393295
0.377103
0.365715
0.357786
0.352428
0.348911
0.346591
0.345141
0.344379
0.344036
0.34399
0.344294
0.344861
0.345569
0.346506
0.347589
0.348825
0.350216
0.351743
0.353419
0.355245
0.357227
0.359383
0.361723
0.364269
0.367028
0.370032
0.373282
10.4675
11.0996
11.8423
12.5818
13.1531
13.4568
13.5311
13.2726
12.7194
11.951
10.9881
9.86378
8.6233
7.33524
6.13412
5.09725
4.21813
3.48093
2.86626
2.35443
1.91294
1.56222
1.30333
1.10469
0.952529
0.830371
0.725467
0.634563
0.555412
0.487943
0.443922
0.501083
1.01393
2.21585
0.439897
0.488676
0.573342
0.736115
1.08583
1.65494
2.39498
3.24427
4.14111
5.031
5.8726
6.64125
7.32845
7.93978
8.49262
9.01558
9.54484
10.0857
0.409994
0.389108
0.374323
0.363939
0.3568
0.352024
0.348774
0.346595
0.345147
0.344383
0.344076
0.343991
0.344213
0.344784
0.345476
0.346397
0.34748
0.348709
0.350101
0.351631
0.353309
0.355142
0.357132
0.3593
0.361653
0.364214
0.366988
0.370008
0.373274
10.6236
11.3343
12.1571
12.9224
13.4655
13.7141
13.7199
13.4484
12.914
12.1602
11.2063
10.084
8.83747
7.53535
6.31515
5.25782
4.35852
3.60232
2.97011
2.44209
1.98495
1.62041
1.35054
1.15048
0.99441
0.863403
0.751803
0.655713
0.572201
0.500629
0.45396
0.515934
1.06237
2.2037
0.431337
0.475337
0.551361
0.687817
0.988385
1.51208
2.22342
3.06397
3.96542
4.8653
5.71493
6.48348
7.15787
7.7398
8.24258
8.6893
9.11597
9.55143
10.0791
0.404343
0.385332
0.371879
0.362541
0.35622
0.351844
0.34878
0.346602
0.34515
0.344437
0.344093
0.343971
0.344147
0.344707
0.345385
0.346287
0.347368
0.348592
0.349983
0.351516
0.353197
0.355037
0.357037
0.359219
0.361586
0.364161
0.36695
0.369985
0.373265
10.6815
11.5011
12.3989
13.1702
13.6694
13.8616
13.8479
13.6128
13.1048
12.3689