/*--------------------------------*- C++ -*----------------------------------*\
  =========                 |
  \\      /  F ield         | OpenFOAM: The Open Source CFD Toolbox
   \\    /   O peration     | Website:  https://openfoam.org
    \\  /    A nd           | Version:  8
     \\/     M anipulation  |
\*---------------------------------------------------------------------------*/
FoamFile
{
    version     2.0;
    format      ascii;
    class       volScalarField;
    location    "0.5";
    object      nut;
}
// * * * * * * * * * * * * * * * * * * * * * * * * * * * * * * * * * * * * * //

dimensions      [0 2 -1 0 0 0 0];

internalField   nonuniform List<scalar> 
15677
(
0.000168241
0.000653024
0.0001484
0.00151379
0.000442555
0.0001415
0.00267539
0.000876169
0.000381193
0.000142379
0.00392095
0.00151961
0.000686783
0.000354349
0.000145494
0.00502377
0.00235717
0.00114662
0.000585884
0.000340318
0.000151245
0.00584031
0.00331869
0.00178101
0.00094829
0.000529337
0.000332094
0.000157124
0.00633494
0.00430007
0.00256784
0.0014642
0.000820943
0.00049258
0.000327094
0.000162533
0.00656284
0.00518885
0.00345305
0.00213287
0.00125728
0.000737441
0.000467458
0.000324153
0.000167407
0.00665845
0.00589433
0.00435546
0.00292375
0.00184165
0.00111268
0.000677211
0.000450354
0.00032267
0.000171553
0.00670549
0.00633873
0.00518099
0.00378082
0.00255719
0.00163236
0.00100419
0.000633848
0.000438644
0.000321974
0.000175201
0.00671438
0.00655371
0.0058456
0.00462716
0.00336316
0.00228727
0.00147207
0.000923796
0.000601768
0.000430523
0.000322064
0.000178236
0.00670993
0.00666164
0.0062959
0.00537883
0.00419758
0.00304625
0.00207709
0.00134845
0.000861239
0.000577951
0.000425253
0.000322365
0.000180885
0.00670634
0.00669879
0.00652985
0.00596573
0.00498499
0.00385841
0.00279506
0.00191097
0.00124955
0.000812991
0.000560341
0.000421505
0.000323157
0.000183158
0.00670551
0.00670435
0.00664695
0.00635756
0.00565093
0.00465701
0.00358283
0.00259262
0.00177557
0.00117135
0.000774993
0.000546822
0.000419433
0.000323885
0.00018517
0.00670563
0.00670277
0.00668797
0.00656334
0.00614287
0.00536956
0.00438105
0.00335591
0.00242522
0.00166555
0.00110698
0.000744854
0.000537089
0.000417919
0.000324863
0.000186959
0.00670586
0.00670146
0.00669649
0.00665678
0.0064473
0.00593458
0.00512105
0.00414759
0.00316556
0.00228655
0.00157413
0.00105511
0.000721464
0.000529459
0.00041733
0.000325751
0.000188493
0.00670603
0.00670089
0.00669727
0.00668499
0.00660515
0.0063224
0.00573772
0.00490297
0.00394808
0.00300533
0.00217004
0.00149844
0.00101315
0.000702572
0.000524169
0.000416925
0.000326789
0.00018998
0.00670614
0.00670067
0.00669694
0.00669163
0.0066639
0.00654163
0.00618858
0.00555624
0.00471184
0.00377714
0.00286919
0.00207219
0.00143588
0.000978608
0.000688141
0.000519938
0.000417161
0.00032774
0.000191168
0.00670621
0.00670057
0.00669673
0.00669259
0.00668244
0.00663475
0.00646809
0.00605749
0.00539175
0.00454441
0.00363008
0.00275355
0.00199012
0.00138379
0.00095106
0.000676397
0.000517302
0.000417394
0.00032878
0.000192498
0.00670626
0.0067005
0.00669666
0.00669243
0.00668742
0.00666923
0.00659822
0.00638917
0.00593349
0.00524328
0.00439812
0.00350375
0.00265546
0.00192124
0.00134127
0.000928398
0.000667796
0.000515194
0.000418118
0.000329771
0.000193423
0.00670629
0.00670044
0.00669665
0.00669222
0.00668836
0.00668085
0.00665151
0.00655596
0.00631012
0.00581684
0.00511096
0.00427067
0.00339552
0.00257255
0.00186429
0.0013061
0.00091094
0.000660868
0.00051426
0.000418726
0.000330787
0.000194711
0.0067063
0.00670041
0.00669665
0.0066921
0.00668835
0.00668423
0.00667169
0.00663024
0.00651087
0.00623094
0.00571034
0.00499348
0.00416032
0.00330346
0.00250345
0.00181712
0.00127839
0.000896814
0.000656273
0.00051354
0.000419773
0.000331869
0.000195441
0.00670629
0.00670039
0.00669665
0.00669204
0.00668821
0.00668503
0.00667842
0.00666139
0.00660584
0.00646361
0.00615731
0.00561327
0.00489058
0.00406583
0.00322621
0.00244612
0.00177955
0.00125607
0.000886782
0.000652748
0.000513791
0.000420609
0.000332787
0.000196725
0.00670628
0.0067004
0.00669664
0.006692
0.0066881
0.00668513
0.00668027
0.00667338
0.00664817
0.00657971
0.00641762
0.00608758
0.00552728
0.00480157
0.0039859
0.00316202
0.00240035
0.00174979
0.00123993
0.000879085
0.00065108
0.000514024
0.00042195
0.000334152
0.000197397
0.00670626
0.00670041
0.00669663
0.00669198
0.00668803
0.00668509
0.00668057
0.00667759
0.00666539
0.00663492
0.00655291
0.00637254
0.00602497
0.00545135
0.00472568
0.00391978
0.00311115
0.00236446
0.00172791
0.00122766
0.000874716
0.000650045
0.000515177
0.000422828
0.000334912
5.35167e-05
0.00670623
0.00670044
0.00669661
0.00669197
0.00668799
0.00668504
0.00668049
0.00667893
0.00667167
0.00665941
0.00661966
0.00652629
0.00633196
0.00596782
0.00538718
0.00466367
0.00386728
0.00307066
0.00233779
0.00171262
0.00122117
0.000872242
0.000650721
0.00051613
0.000425366
0.000279948
6.38398e-05
0.00670621
0.00670047
0.00669659
0.00669196
0.00668797
0.00668498
0.00668038
0.00667927
0.00667362
0.00666954
0.00665011
0.00660598
0.00650211
0.00629431
0.00592142
0.00533366
0.00461271
0.00382587
0.00304339
0.00232199
0.00170537
0.00121806
0.000872581
0.000651791
0.000518369
0.000417795
0.00021436
7.13519e-05
0.00670618
0.0067005
0.00669657
0.00669197
0.00668795
0.00668493
0.00668031
0.00667928
0.00667406
0.00667342
0.00666289
0.0066448
0.00659185
0.00647932
0.00626308
0.00587915
0.00529226
0.00457932
0.00380274
0.00302788
0.00231372
0.00170267
0.00121847
0.000874365
0.000654
0.00051893
0.000396155
0.000172843
7.67458e-05
0.00670616
0.00670053
0.00669654
0.00669198
0.00668793
0.00668489
0.00668028
0.00667921
0.00667405
0.00667475
0.00666776
0.00666254
0.00663594
0.00658155
0.0064629
0.00623612
0.00585584
0.005268
0.00455726
0.00378656
0.00301959
0.0023117
0.00170499
0.00122263
0.000877895
0.000656545
0.000516311
0.000361058
0.000147827
8.06355e-05
0.00670614
0.00670056
0.00669652
0.00669199
0.00668792
0.00668485
0.00668026
0.00667911
0.00667398
0.00667507
0.00666939
0.00667008
0.00665619
0.00663481
0.00657233
0.00644773
0.00622731
0.00583902
0.00525035
0.00454392
0.00378027
0.00302045
0.00231764
0.00171352
0.00122993
0.000883086
0.000659572
0.000509164
0.000328679
0.000131814
8.37586e-05
0.00670611
0.00670059
0.0066965
0.006692
0.00668791
0.00668482
0.00668026
0.00667902
0.00667394
0.00667504
0.00666981
0.00667297
0.00666494
0.00666073
0.0066288
0.00657079
0.00644658
0.00622044
0.00582951
0.00524309
0.00454435
0.00378787
0.00303289
0.00233187
0.00172685
0.00124039
0.000889924
0.000661337
0.000496212
0.000301069
0.000119894
8.61919e-05
0.00670609
0.00670061
0.00669648
0.00669201
0.0066879
0.00668479
0.00668026
0.00667892
0.00667391
0.00667492
0.00666988
0.00667382
0.00666849
0.00667233
0.00665689
0.0066379
0.00657404
0.00644988
0.0062201
0.00583351
0.00525354
0.00455986
0.00380783
0.0030549
0.00235314
0.0017448
0.00125387
0.000897729
0.000662202
0.000481292
0.000276802
0.000111266
8.7978e-05
0.00670608
0.00670064
0.00669647
0.00669202
0.0066879
0.00668476
0.00668027
0.00667884
0.00667391
0.00667477
0.00666987
0.00667391
0.00666979
0.00667704
0.00667051
0.00667173
0.00664401
0.00658343
0.00645986
0.00623585
0.00585401
0.00527811
0.00458894
0.00383942
0.00308626
0.00238125
0.00176718
0.00126993
0.000906598
0.000661897
0.000465379
0.00025631
0.000105514
8.93702e-05
0.00670606
0.00670066
0.00669645
0.00669203
0.00668789
0.00668474
0.00668028
0.00667876
0.00667392
0.00667461
0.00666986
0.00667376
0.00667026
0.00667854
0.00667675
0.00668769
0.00668029
0.00665757
0.0066024
0.00648426
0.00626571
0.00588904
0.00531768
0.00463155
0.0038827
0.00312678
0.00241587
0.00179364
0.00128866
0.000916071
0.000660439
0.000449238
0.000241059
0.000101576
9.05144e-05
0.00670068
0.00670604
0.00669644
0.00669205
0.00668789
0.00668472
0.00668029
0.00667869
0.00667394
0.00667447
0.00666986
0.00667353
0.00667044
0.00667881
0.00667937
0.00669495
0.00669794
0.00669685
0.006683
0.00663361
0.00652241
0.00631046
0.00594012
0.0053724
0.00468804
0.00393742
0.00317615
0.00245686
0.0018241
0.00130971
0.00092762
0.000658222
0.00043635
0.000229194
9.87775e-05
9.15039e-05
0.00669643
0.00670072
0.00670603
0.00669205
0.00668788
0.0066847
0.00668031
0.00667863
0.00667396
0.00667434
0.00666987
0.00667331
0.00667051
0.00667867
0.00668044
0.00669793
0.00670617
0.00671668
0.00672679
0.00671923
0.00667852
0.00657581
0.00637234
0.00600773
0.00544312
0.00475834
0.00400355
0.00323422
0.00250375
0.00185818
0.00133546
0.000941464
0.000657205
0.000425273
0.000220089
9.68067e-05
9.23875e-05
0.00669206
0.00669644
0.00670078
0.00670602
0.00668788
0.00668469
0.00668032
0.00667857
0.00667398
0.00667423
0.00666988
0.0066731
0.00667056
0.00667841
0.0066809
0.00669904
0.00670973
0.00672629
0.00674995
0.00676662
0.00676943
0.00673883
0.00664685
0.0064523
0.00609358
0.00553043
0.00484262
0.0040807
0.00330039
0.00255643
0.00190009
0.00136628
0.000956678
0.000656729
0.000416978
0.000212802
9.53507e-05
9.31963e-05
0.00668788
0.00669211
0.00669647
0.00670084
0.006706
0.00668467
0.00668033
0.00667852
0.00667401
0.00667412
0.00666989
0.00667291
0.00667058
0.00667813
0.00668113
0.00669942
0.00671125
0.00673072
0.00676175
0.0067922
0.00682081
0.00683526
0.00681726
0.00673623
0.00655178
0.00619771
0.00563464
0.0049407
0.0041686
0.00337455
0.00262078
0.00195175
0.00139897
0.000972898
0.000657752
0.000409888
0.000206913
9.4301e-05
9.39506e-05
0.00668466
0.00668791
0.00669219
0.0066965
0.0067009
0.00670599
0.00668035
0.00667847
0.00667403
0.00667403
0.00666991
0.00667276
0.00667059
0.00667786
0.00668126
0.00669952
0.00671192
0.00673283
0.0067677
0.00680627
0.00684983
0.00689087
0.00691905
0.00691403
0.00684599
0.00667055
0.00632054
0.00575589
0.00505281
0.00426672
0.00346501
0.00269962
0.00200764
0.00143347
0.000990379
0.000659843
0.000404205
0.00020209
9.35212e-05
9.46544e-05
0.00668036
0.0066847
0.00668799
0.00669227
0.00669653
0.00670096
0.00670598
0.00667843
0.00667406
0.00667394
0.00666993
0.00667263
0.00667059
0.00667763
0.00668136
0.0066995
0.00671224
0.00673397
0.00677087
0.00681398
0.00686704
0.00692456
0.00698191
0.00702398
0.00703217
0.00697486
0.00680902
0.00646173
0.00589251
0.00517857
0.00438702
0.00357569
0.00278479
0.00206711
0.00146941
0.00100861
0.000663561
0.000399937
0.000197946
9.29333e-05
9.53222e-05
0.00667839
0.00668043
0.00668478
0.00668807
0.00669235
0.00669657
0.00670102
0.00670597
0.00667409
0.00667386
0.00666995
0.00667251
0.00667058
0.00667745
0.00668143
0.00669944
0.00671242
0.00673466
0.00677282
0.00681853
0.00687738
0.00694547
0.00702113
0.00709462
0.007154
0.00717482
0.00712652
0.0069654
0.00661912
0.00604402
0.00533232
0.00453486
0.00369535
0.00287535
0.00212955
0.00150675
0.00102701
0.000667806
0.000396566
0.000194555
9.25152e-05
9.59468e-05
0.00667412
0.0066784
0.00668056
0.00668486
0.00668816
0.00669244
0.00669661
0.00670108
0.00670596
0.00667379
0.00666997
0.00667242
0.00667055
0.00667731
0.00668149
0.00669936
0.00671252
0.00673516
0.0067742
0.00682165
0.00688419
0.00695913
0.0070474
0.00714086
0.00723395
0.00730888
0.00734424
0.00730347
0.00714215
0.00679216
0.00622662
0.00551758
0.00469487
0.00382372
0.00297041
0.0021944
0.00154538
0.00104559
0.000672722
0.000394063
0.000191509
9.21836e-05
9.65419e-05
0.00667372
0.00667421
0.00667846
0.00668069
0.00668494
0.00668825
0.00669252
0.00669666
0.00670113
0.00670595
0.00667
0.00667233
0.00667052
0.00667722
0.00668152
0.00669929
0.0067126
0.00673554
0.00677526
0.00682409
0.00688927
0.00696891
0.00706626
0.00717404
0.00728969
0.0074005
0.00749287
0.00753946
0.00750581
0.00734236
0.0069998
0.00644426
0.00571537
0.00486287
0.00395726
0.00306908
0.00226098
0.00158489
0.00106434
0.000678547
0.000392161
0.000189009
9.19611e-05
9.70971e-05
0.00667003
0.00667369
0.00667436
0.00667852
0.00668083
0.00668502
0.00668835
0.0066926
0.00669671
0.00670119
0.00670595
0.00667225
0.00667049
0.00667717
0.00668151
0.00669922
0.00671266
0.00673587
0.00677615
0.00682614
0.00689338
0.00697672
0.00708089
0.00719956
0.00733272
0.00746834
0.00759973
0.00770586
0.00776263
0.00773232
0.00759042
0.00725788
0.0066718
0.00591858
0.00503604
0.00409514
0.00317009
0.00232876
0.00162487
0.00108306
0.000684445
0.000390935
0.000186725
9.17863e-05
9.76255e-05
0.00667218
0.0066701
0.0066737
0.00667452
0.00667859
0.00668097
0.00668511
0.00668845
0.00669268
0.00669676
0.00670124
0.00670595
0.00667046
0.00667716
0.00668145
0.00669916
0.00671271
0.00673616
0.00677692
0.00682794
0.00689689
0.0069834
0.00709314
0.00722041
0.00736832
0.00752417
0.00768379
0.00783149
0.00795115
0.00801421
0.00801138
0.00789382
0.00754106
0.00691643
0.00612746
0.00521269
0.0042347
0.00327238
0.00239703
0.00166499
0.00110188
0.000690391
0.000390051
0.000184811
9.1673e-05
9.81166e-05
0.00667044
0.00667208
0.00667019
0.00667371
0.00667469
0.00667865
0.00668113
0.00668519
0.00668856
0.00669276
0.00669682
0.00670129
0.00670595
0.00667718
0.00668135
0.00669914
0.00671278
0.00673643
0.00677761
0.00682954
0.00689997
0.00698935
0.00710385
0.00723853
0.00739906
0.00757283
0.00775717
0.00793601
0.00810097
0.00822962
0.00832635
0.00835595
0.00822331
0.00784175
0.00717483
0.00633755
0.00538818
0.00437419
0.00337471
0.00246527
0.00170493
0.00112086
0.000696294
0.000389554
0.000183069
9.15993e-05
9.8583e-05
0.00667721
0.00667034
0.00667197
0.0066703
0.00667372
0.00667487
0.00667872
0.00668128
0.00668527
0.00668867
0.00669283
0.00669688
0.00670133
0.00670595
0.00668118
0.00669915
0.00671287
0.00673669
0.00677823
0.00683097
0.00690272
0.00699472
0.0071134
0.00725488
0.00742667
0.00761605
0.00782427
0.0080322
0.00823254
0.00840928
0.0085782
0.00871562
0.00873359
0.00857584
0.00815618
0.0074443
0.0065553
0.00556227
0.00451242
0.00347636
0.00253291
0.00174445
0.00113963
0.000702174
0.000389256
0.000181558
9.15484e-05
9.90147e-05
0.00668098
0.00667707
0.00667012
0.00667187
0.00667042
0.00667374
0.00667506
0.00667879
0.00668145
0.00668536
0.00668879
0.00669291
0.00669695
0.00670138
0.00670596
0.00669923
0.00671298
0.00673693
0.00677877
0.00683225
0.00690518
0.0069996
0.007122
0.00726989
0.00745191
0.0076555
0.00788623
0.00812395
0.00835908
0.00857459
0.00879956
0.00901857
0.00914746
0.009142
0.00894841
0.00848178
0.00771824
0.00677718
0.00573451
0.00464831
0.00357618
0.00259947
0.00178332
0.0011581
0.00070796
0.000389166
0.000180206
9.15408e-05
9.9424e-05
0.00669941
0.00668012
0.0066768
0.0066699
0.00667176
0.00667056
0.00667375
0.00667526
0.00667886
0.00668162
0.00668545
0.00668892
0.00669299
0.00669701
0.00670142
0.00670596
0.0067131
0.00673717
0.00677925
0.0068334
0.00690741
0.00700404
0.0071298
0.00728375
0.00747506
0.00769217
0.00794458
0.00821054
0.00848317
0.00874018
0.0090143
0.00930056
0.00951453
0.00962149
0.00957974
0.00933901
0.00881617
0.00799474
0.00700049
0.00590408
0.00477997
0.00367348
0.00266451
0.00182132
0.00117618
0.00071365
0.000389202
0.000178984
9.15263e-05
9.98012e-05
0.00671321
0.00669906
0.00667847
0.00667655
0.00666973
0.00667164
0.00667073
0.00667377
0.00667547
0.00667894
0.0066818
0.00668554
0.00668904
0.00669306
0.00669708
0.00670146
0.00670597
0.00673738
0.00677965
0.00683442
0.00690943
0.00700807
0.00713691
0.00729654
0.00749631
0.00772656
0.0079998
0.00829242
0.00860258
0.00890941
0.00923971
0.00958824
0.00987516
0.0100708
0.0101411
0.0100482
0.00974713
0.00915776
0.00827222
0.00722306
0.00607317
0.00490748
0.00376777
0.00272773
0.00185828
0.00119378
0.000719194
0.000389371
0.000177932
9.1562e-05
0.000100159
0.00673759
0.00671226
0.00669828
0.00667687
0.00667623
0.00666964
0.0066715
0.00667092
0.00667378
0.00667569
0.00667902
0.00668198
0.00668563
0.00668916
0.00669314
0.00669714
0.00670149
0.00670598
0.00677997
0.00683534
0.00691127
0.00701174
0.0071434
0.00730831
0.00751583
0.00775889
0.00805175
0.00836997
0.00871876
0.00907907
0.00947657
0.00990085
0.0102634
0.0105424
0.0107036
0.0107165
0.0105518
0.0101736
0.0095057
0.00854956
0.00744217
0.00624011
0.00503078
0.00385876
0.00278882
0.00189405
0.00121084
0.000724589
0.000389505
0.000176951
9.15695e-05
0.000100487
0.00678024
0.00673593
0.0067101
0.0066974
0.00667573
0.00667576
0.00666964
0.00667133
0.00667114
0.0066738
0.00667591
0.00667911
0.00668216
0.00668573
0.00668928
0.00669321
0.0066972
0.00670153
0.00670599
0.00683616
0.00691295
0.00701507
0.00714933
0.00731911
0.00753378
0.00778919
0.00810027
0.00844371
0.00883278
0.00924792
0.0097129
0.0102399
0.010716
0.0110952
0.0113461
0.0114397
0.0113609
0.0110958
0.0106198
0.00985954
0.0088258
0.00765715
0.0064037
0.00514963
0.00394617
0.00284766
0.00192855
0.00122731
0.000729838
0.000389675
0.000176129
9.16329e-05
0.000100798
0.00683694
0.00677737
0.00673223
0.00670784
0.00669589
0.00667504
0.00667514
0.00666975
0.00667113
0.00667138
0.00667382
0.00667613
0.00667921
0.00668233
0.00668583
0.00668939
0.00669328
0.00669726
0.00670156
0.006706
0.00691448
0.00701809
0.00715474
0.00732899
0.00755029
0.00781745
0.00814537
0.00851416
0.00894416
0.00941288
0.00994531
0.0106036
0.0112638
0.0118062
0.0121631
0.0123277
0.0122975
0.0120812
0.0116821
0.0110854
0.0102186
0.00910018
0.00786748
0.00656311
0.00526409
0.00403004
0.00290406
0.00196168
0.00124314
0.000734908
0.000389908
0.000175293
9.16532e-05
0.000101047
0.00691592
0.00683328
0.00677109
0.00672855
0.00670566
0.00669398
0.00667475
0.00667437
0.00666994
0.00667093
0.00667163
0.00667386
0.00667635
0.00667933
0.00668248
0.00668594
0.00668949
0.00669336
0.00669731
0.00670159
0.00670601
0.00702085
0.00715967
0.007338
0.00756545
0.00784363
0.00818723
0.00858147
0.00905136
0.00957138
0.0101785
0.0110099
0.0119195
0.0127212
0.0132477
0.0134845
0.0134814
0.0132666
0.0128694
0.0123059
0.0115681
0.0105816
0.0093719
0.00807273
0.00671772
0.00537364
0.00410968
0.0029579
0.0019934
0.00125832
0.000739798
0.000390103
0.000174637
9.17204e-05
0.000101255
0.00702338
0.00691082
0.00682475
0.00676474
0.00672512
0.00670347
0.00669168
0.00667479
0.00667349
0.00667018
0.00667074
0.00667188
0.00667393
0.00667655
0.00667945
0.00668263
0.00668604
0.00668959
0.00669343
0.00669737
0.00670162
0.00670601
0.00716417
0.00734619
0.00757935
0.00786777
0.00822606
0.00864542
0.00915285
0.00972341
0.0104212
0.0114722
0.0126771
0.013781
0.0145707
0.0149462
0.0149709
0.0147424
0.014306
0.0137023
0.0129554
0.0120624
0.0109463
0.00964005
0.00827248
0.0068672
0.00547969
0.0041853
0.00300914
0.00202366
0.00127282
0.000744481
0.000390376
0.000174041
9.17435e-05
0.00010148
0.00716829
0.00701645
0.00689843
0.00681633
0.00675865
0.00672191
0.00670152
0.00668888
0.00667507
0.00667259
0.00667043
0.00667059
0.0066721
0.00667403
0.00667673
0.00667958
0.00668276
0.00668615
0.00668969
0.0066935
0.00669742
0.00670165
0.00670602
0.00735363
0.00759205
0.00788991
0.00826203
0.00870563
0.00924789
0.00987101
0.0106799
0.0119835
0.0134917
0.0148814
0.0159331
0.0165473
0.0166969
0.0164815
0.0160194
0.01536
0.0145484
0.0136146
0.0125609
0.0113099
0.00990353
0.00846635
0.0070107
0.00558183
0.00425707
0.00305778
0.00205246
0.00128664
0.000748966
0.00039053
0.00017362
9.18166e-05
0.000101723
0.00736036
0.00715892
0.00699878
0.00688606
0.00680814
0.00675287
0.00671889
0.00670023
0.00668586
0.00667544
0.00667173
0.00667065
0.00667051
0.00667229
0.00667415
0.00667689
0.00667972
0.00668289
0.00668626
0.00668977
0.00669357
0.00669747
0.00670168
0.00670603
0.00760364
0.00791014
0.00829525
0.00876174
0.00933661
0.0100165
0.0109542
0.0125205
0.0143002
0.0159165
0.0171706
0.0180011
0.0183876
0.0183217
0.0178965
0.0172326
0.0163771
0.0153767
0.0142662
0.0130553
0.0116689
0.0101612
0.00865393
0.0071482
0.0056798
0.00432512
0.00310388
0.0020798
0.00129978
0.000752671
0.000390754
0.000173091
9.18488e-05
0.000101987
0.0076141
0.00734818
0.007134
0.00698108
0.00687397
0.00680017
0.00674735
0.00671599
0.0066992
0.00668286
0.00667575
0.006671
0.0066708
0.0066705
0.00667244
0.0066743
0.00667703
0.00667987
0.00668301
0.00668637
0.00668986
0.00669363
0.00669752
0.0067017
0.00670603
0.00792861
0.00832584
0.0088136
0.00941966
0.0101612
0.0112377
0.0130541
0.0150494
0.0168158
0.0181941
0.0191713
0.0197605
0.0199528
0.0197256
0.0191469
0.0183308
0.0173206
0.0161623
0.0148952
0.0135376
0.0120201
0.0104117
0.00883485
0.00727971
0.00577346
0.00438957
0.00314748
0.0021057
0.0013106
0.000755836
0.000390895
0.00017263
9.19528e-05
0.000102271
0.00794513
0.0075982
0.00731368
0.00710903
0.00696372
0.00686218
0.00679237
0.00674197
0.00671329
0.00669825
0.00668006
0.00667589
0.00667048
0.00667085
0.00667056
0.00667256
0.00667446
0.00667716
0.00668001
0.00668312
0.00668647
0.00668994
0.0066937
0.00669754
0.0067017
0.00670603
0.00835392
0.00886131
0.00949784
0.0103048
0.011521
0.0135601
0.0157082
0.0175518
0.0189812
0.0200313
0.02075
0.0211515
0.0212104
0.020883
0.0202085
0.0192914
0.01817
0.0168887
0.01549
0.0140011
0.0123601
0.010654
0.00900876
0.00740525
0.00586276
0.00445056
0.00318865
0.00212697
0.00131981
0.000759318
0.0003912
0.000172028
9.19973e-05
0.000102581
0.00837901
0.00792511
0.00755085
0.00727908
0.00708455
0.00694678
0.00685066
0.00678465
0.00673689
0.00671069
0.0066973
0.00667771
0.00667571
0.00667019
0.00667081
0.00667069
0.00667265
0.00667464
0.00667728
0.00668016
0.00668322
0.00668658
0.00669002
0.00669373
0.00669754
0.0067017
0.00670603
0.00890513
0.0095718
0.0104458
0.011795
0.0140227
0.0162655
0.0181277
0.0195508
0.020612
0.0213898
0.0219221
0.0222015
0.0221835
0.0218071
0.0210849
0.0201111
0.0189182
0.0175474
0.0160433
0.0144405
0.0126864
0.010887
0.00917538
0.00752484
0.0059477
0.00450819
0.00322237
0.00214502
0.0013299
0.000763143
0.000391371
0.000171518
9.21402e-05
0.000102915
0.00894409
0.00835363
0.00786094
0.00750337
0.00724509
0.00706063
0.00693023
0.00683937
0.00677701
0.0067322
0.00670809
0.00669618
0.00667629
0.00667521
0.0066701
0.00667071
0.00667085
0.00667273
0.00667482
0.0066774
0.0066803
0.00668332
0.00668668
0.00669005
0.00669374
0.00669754
0.0067017
0.00670603
0.00964194
0.0105823
0.0120523
0.0144347
0.0167242
0.0185626
0.0199392
0.0209661
0.0217466
0.0223392
0.0227555
0.0229671
0.0229154
0.0225274
0.021794
0.0207984
0.0195668
0.0181362
0.0165512
0.0148526
0.012997
0.0111099
0.00933448
0.00763856
0.0060283
0.00455541
0.00325093
0.00216477
0.001341
0.000767366
0.000391783
0.000170835
9.22041e-05
0.000103278
0.00970579
0.00891241
0.00826676
0.00779651
0.00745671
0.00721185
0.00703726
0.00691405
0.00682831
0.00676937
0.00672771
0.00670541
0.00669411
0.00667563
0.00667449
0.00667016
0.00667058
0.00667103
0.0066728
0.006675
0.00667751
0.00668044
0.00668342
0.00668674
0.00669005
0.00669374
0.00669754
0.0067017
0.00670603
0.0107124
0.0122926
0.0147953
0.0170945
0.0188812
0.0201857
0.0211479
0.0218903
0.0224883
0.0229703
0.0233243
0.0235068
0.0234513
0.0230775
0.0223587
0.0213673
0.0201228
0.0186568
0.0170127
0.0152356
0.0132905
0.0113219
0.00948593
0.00774646
0.00609456
0.00459542
0.00328213
0.00218641
0.00135318
0.000772059
0.000391983
0.000170268
9.23969e-05
0.000103669
0.0108293
0.00966588
0.00879391
0.00817977
0.00773314
0.00741104
0.00717935
0.00701444
0.00689827
0.00681752
0.00676188
0.00672337
0.0067028
0.00669145
0.0066755
0.00667366
0.00667029
0.00667045
0.00667122
0.00667287
0.00667517
0.00667762
0.00668058
0.00668347
0.00668674
0.00669005
0.00669374
0.00669754
0.0067017
0.00670602
0.0125158
0.0151049
0.0173895
0.0191077
0.0203256
0.0212047
0.0218816
0.0224451
0.022938
0.0233633
0.0236919
0.0238713
0.0238315
0.023489
0.0228022
0.0218335
0.0205954
0.0191136
0.0174288
0.0155888
0.013566
0.0115229
0.00962961
0.00783511
0.00615081
0.00463919
0.00331626
0.00221012
0.00136661
0.000777161
0.000392535
0.0001695
9.24954e-05
0.000104091
0.0107842
0.0127123
0.00949214
0.00867728
0.00809405
0.00767107
0.00736635
0.0071476
0.00699217
0.00688291
0.00680711
0.0067545
0.00671943
0.00670057
0.00668836
0.00667564
0.00667283
0.00667045
0.00667034
0.00667141
0.00667294
0.00667534
0.00667772
0.00668066
0.00668346
0.00668674
0.00669005
0.00669374
0.00669754
0.00670168
0.00670601
0.0153666
0.0176223
0.0192633
0.0203879
0.0211742
0.0217689
0.0222704
0.0227338
0.0231757
0.0235804
0.0239078
0.024101
0.0240897
0.0237893
0.023146
0.0222125
0.0209947
0.0195121
0.0178017
0.0159126
0.0138232
0.0117123
0.00974751
0.00791036
0.00621248
0.00468711
0.00335362
0.00223616
0.00138133
0.000782941
0.000392772
0.000168861
9.27507e-05
0.000104543
0.010519
0.012665
0.0155823
0.00932561
0.00856308
0.00800991
0.0076103
0.00732265
0.00711662
0.00697052
0.00686805
0.00679724
0.00674753
0.00671591
0.00669916
0.00668527
0.00667585
0.00667207
0.0066706
0.00667026
0.00667158
0.00667302
0.00667551
0.00667777
0.00668067
0.00668346
0.00668675
0.00669005
0.00669374
0.00669751
0.00670165
0.006706
0.0178046
0.0193656
0.0203953
0.021085
0.0215882
0.0220102
0.0224153
0.0228326
0.0232596
0.0236674
0.0240092
0.0242273
0.024253
0.0240014
0.0234087
0.0225186
0.0213307
0.0198583
0.0181345
0.016208
0.0140623
0.0118667
0.00984753
0.00799287
0.00628015
0.00473963
0.00339455
0.00226472
0.00139766
0.000789109
0.000393469
0.000168011
9.29125e-05
0.000105029
0.010257
0.0122957
0.0155077
0.0179428
0.00916778
0.0084508
0.00792745
0.00755082
0.00727998
0.00708647
0.00694953
0.00685376
0.00678788
0.00674114
0.00671275
0.00669803
0.00668243
0.006676
0.00667145
0.00667071
0.00667021
0.00667175
0.00667311
0.00667561
0.00667776
0.00668068
0.00668346
0.00668674
0.00669005
0.0066937
0.00669747
0.00670162
0.00670599
0.019428
0.0203649
0.0209582
0.021366
0.021698
0.0220254
0.0223878
0.0227953
0.023231
0.0236569
0.0240235
0.0242742
0.0243426
0.0241442
0.0236059
0.022764
0.0216124
0.0201584
0.0184305
0.0164766
0.0142542
0.0119971
0.00995707
0.0080834
0.00635448
0.00479726
0.00343943
0.00229615
0.00141553
0.000796245
0.00039381
0.000167275
9.32445e-05
0.000105548
0.0100111
0.0118913
0.0151559
0.0178311
0.0194533
0.00901618
0.00834026
0.00784677
0.0074927
0.00723842
0.00705721
0.00692927
0.00684012
0.00677913
0.0067353
0.00670997
0.00669701
0.00668
0.006676
0.00667098
0.00667079
0.00667019
0.00667191
0.00667314
0.00667563
0.00667776
0.00668068
0.00668347
0.00668674
0.00669001
0.00669363
0.00669742
0.00670159
0.00670597
0.0203091
0.0208091
0.0211214
0.0213582
0.0215953
0.021881
0.022237
0.0226588
0.0231184
0.0235724
0.0239709
0.02426
0.0243755
0.0242327
0.0237508
0.0229595
0.0218479
0.0204179
0.0186933
0.0166877
0.0144148
0.0121392
0.010077
0.00818279
0.00643617
0.00486057
0.00348874
0.00233066
0.00143543
0.000803777
0.00039459
0.00016633
9.35182e-05
0.000106097
0.0097818
0.0114895
0.0147128
0.0175915
0.0192874
0.0202275
0.00886877
0.00823162
0.00776797
0.00743605
0.00719809
0.00702891
0.00690989
0.00682742
0.00677101
0.00673009
0.00670742
0.00669599
0.00667816
0.0066758
0.00667065
0.00667083
0.00667021
0.00667201
0.00667313
0.00667564
0.00667777
0.00668068
0.00668348
0.00668669
0.00668993
0.00669356
0.00669737
0.00670156
0.00670596
0.0206482
0.0208675
0.0210078
0.0211477
0.0213419
0.0216221
0.0219964
0.0224482
0.0229414
0.0234302
0.0238665
0.024199
0.024365
0.0242791
0.023854
0.0231141
0.0220445
0.0206422
0.018895
0.0168621
0.0145877
0.0122936
0.0102084
0.00829195
0.00652604
0.0049301
0.00354276
0.0023687
0.00145722
0.000812457
0.000395156
0.000165438
9.39433e-05
0.000106683
0.00956596
0.0111058
0.0142179
0.0172723
0.0191237
0.0200073
0.0204706
0.00872467
0.00812518
0.00769123
0.00738099
0.00715906
0.00700183
0.00689186
0.00681577
0.0067635
0.00672554
0.006705
0.00669468
0.00667702
0.00667544
0.00667044
0.00667086
0.00667021
0.00667203
0.00667313
0.00667564
0.00667778
0.00668067
0.00668343
0.00668659
0.00668985
0.00669349
0.00669731
0.00670153
0.00670595
0.0206135
0.020659
0.0206986
0.0207921
0.0209788
0.0212789
0.0216883
0.0221803
0.0227135
0.0232424
0.0237218
0.0241023
0.0243215
0.024293
0.0239242
0.0232352
0.0222083
0.0208093
0.0190595
0.0170471
0.0147735
0.0124614
0.0103521
0.0084119
0.006625
0.00500704
0.00360205
0.00241052
0.00148149
0.000821856
0.000395919
0.000164405
9.44062e-05
0.000107287
0.00936099
0.0107452
0.0136947
0.0168959
0.0188929
0.0198775
0.0201966
0.0203487
0.00858379
0.00802127
0.00761672
0.00732768
0.00712171
0.00697665
0.0068754
0.00680509
0.00675649
0.00672152
0.0067027
0.00669277
0.0066764
0.00667497
0.00667033
0.00667087
0.0066702
0.00667205
0.00667315
0.00667564
0.00667781
0.0066806
0.00668333
0.00668648
0.00668977
0.00669342
0.00669726
0.0067015
0.00670593
0.0203194
0.0202595
0.0202475
0.0203291
0.0205344
0.0208724
0.0213278
0.0218663
0.0224441
0.0230179
0.0235457
0.0239787
0.0242534
0.0242823
0.0239683
0.0233291
0.0223251
0.0209439
0.0192313
0.0172426
0.0149726
0.0126433
0.0105092
0.0085437
0.00673383
0.00509231
0.0036672
0.00245666
0.00150823
0.000832261
0.000396876
0.000163313
9.49544e-05
0.000108044
0.00916508
0.0104097
0.0131547
0.0164727
0.0186212
0.0196939
0.0200714
0.0200212
0.0199754
0.00844637
0.00792025
0.00754467
0.00727664
0.00708701
0.00695371
0.00686038
0.00679532
0.00674998
0.00671796
0.00670066
0.00669042
0.00667611
0.00667449
0.00667032
0.00667085
0.00667021
0.00667205
0.00667318
0.00667562
0.00667777
0.00668047
0.00668323
0.00668638
0.00668968
0.00669335
0.0066972
0.00670147
0.00670591
0.0198372
0.0197196
0.0196891
0.0197852
0.0200285
0.0204162
0.0209245
0.0215134
0.0221396
0.0227637
0.0233457
0.0238354
0.0241673
0.0242529
0.0239921
0.0233895
0.0224176
0.0210819
0.0194097
0.0174483
0.0151849
0.01284
0.0106808
0.00868849
0.00685358
0.00518681
0.00373899
0.00250752
0.00153776
0.000844138
0.000397461
0.000162206
9.5863e-05
0.000108888
0.00897713
0.0100998
0.0126053
0.0160043
0.0183202
0.0194843
0.0199012
0.0198821
0.0195956
0.0194236
0.00831261
0.00782253
0.00747573
0.00722925
0.00705544
0.00693281
0.00684668
0.00678646
0.00674391
0.00671489
0.00669928
0.00668802
0.00667599
0.00667411
0.00667039
0.00667085
0.00667023
0.00667205
0.00667323
0.00667553
0.00667767
0.00668034
0.00668312
0.00668628
0.00668959
0.00669328
0.00669714
0.00670144
0.00670589
0.0192153
0.0190708
0.0190485
0.0191802
0.0194735
0.0199193
0.0204838
0.021126
0.0218047
0.0224856
0.023128
0.0236782
0.0240685
0.0242098
0.0239967
0.0234356
0.0225096
0.0212221
0.0195938
0.0176635
0.0154107
0.0130521
0.0108678
0.00884744
0.00698542
0.00529159
0.00381822
0.00256363
0.0015708
0.000856425
0.00039902
0.000160651