/*--------------------------------*- C++ -*----------------------------------*\
  =========                 |
  \\      /  F ield         | OpenFOAM: The Open Source CFD Toolbox
   \\    /   O peration     | Website:  https://openfoam.org
    \\  /    A nd           | Version:  8
     \\/     M anipulation  |
\*---------------------------------------------------------------------------*/
FoamFile
{
    version     2.0;
    format      ascii;
    class       volVectorField;
    location    "0.5";
    object      U;
}
// * * * * * * * * * * * * * * * * * * * * * * * * * * * * * * * * * * * * * //

dimensions      [0 1 -1 0 0 0 0];

internalField   nonuniform List<vector> 
15677
(
(-0.019919 9.66528 0)
(0.0435163 9.92098 0)
(0.00235002 9.37947 0)
(0.0146657 9.97662 0)
(0.0185105 9.78905 0)
(0.00696289 9.14575 0)
(0.0278656 9.99449 0)
(0.0169286 9.92598 0)
(0.0106059 9.65824 0)
(0.0060171 8.96572 0)
(0.0259647 10.0017 0)
(0.0212507 9.97971 0)
(0.0161526 9.85657 0)
(0.00887866 9.53597 0)
(0.00484157 8.82466 0)
(0.0247724 10.0049 0)
(0.0220265 10.0038 0)
(0.0188152 9.946 0)
(0.0150954 9.78484 0)
(0.00773604 9.42749 0)
(0.00397702 8.71222 0)
(0.0237377 10.0063 0)
(0.0221146 10.0154 0)
(0.0202858 9.98915 0)
(0.0178562 9.90785 0)
(0.0136115 9.71592 0)
(0.00666869 9.33168 0)
(0.00331642 8.62176 0)
(0.0223592 10.0069 0)
(0.0218044 10.0211 0)
(0.0209566 10.0111 0)
(0.0195865 9.97038 0)
(0.0165993 9.86985 0)
(0.0121961 9.65116 0)
(0.00573611 9.24838 0)
(0.00276497 8.54913 0)
(0.0206193 10.0068 0)
(0.0211299 10.0232 0)
(0.0211052 10.0225 0)
(0.020486 10.0035 0)
(0.0184583 9.95168 0)
(0.0152318 9.83277 0)
(0.0108629 9.59196 0)
(0.00487671 9.17765 0)
(0.00225903 8.49179 0)
(0.01864 10.0064 0)
(0.020163 10.0235 0)
(0.0207692 10.0287 0)
(0.0207692 10.0216 0)
(0.0194258 9.99612 0)
(0.0171152 9.9333 0)
(0.0138059 9.79792 0)
(0.00950962 9.5397 0)
(0.00403313 9.11922 0)
(0.00175713 8.44804 0)
(0.0164901 10.0058 0)
(0.0188895 10.0227 0)
(0.0200756 10.0315 0)
(0.0205443 10.0317 0)
(0.019726 10.0211 0)
(0.0180595 9.98912 0)
(0.0156263 9.91628 0)
(0.0122403 9.76672 0)
(0.00806881 9.49531 0)
(0.00315371 9.07296 0)
(0.00123089 8.41725 0)
(0.0142223 10.0051 0)
(0.0173915 10.0212 0)
(0.0190273 10.0321 0)
(0.0199356 10.0371 0)
(0.0195058 10.0353 0)
(0.0182848 10.0209 0)
(0.0164594 9.98332 0)
(0.013892 9.90173 0)
(0.0104616 9.74029 0)
(0.00648269 9.45967 0)
(0.00219913 9.03887 0)
(0.000656737 8.39893 0)
(0.0118935 10.0044 0)
(0.0157061 10.0192 0)
(0.0176566 10.0314 0)
(0.0189451 10.0395 0)
(0.0188266 10.0433 0)
(0.0179427 10.0394 0)
(0.0165153 10.0219 0)
(0.0145088 9.97967 0)
(0.0118179 9.89065 0)
(0.00839903 9.71977 0)
(0.00470041 9.43352 0)
(0.00113403 9.01709 0)
(-1.01995e-05 8.39318 0)
(0.00954846 10.0037 0)
(0.0138626 10.0169 0)
(0.0159882 10.0297 0)
(0.0175846 10.0398 0)
(0.0177596 10.0474 0)
(0.0171146 10.05 0)
(0.0159509 10.0445 0)
(0.0142834 10.0249 0)
(0.0120931 9.97907 0)
(0.00931442 9.88405 0)
(0.00598539 9.70619 0)
(0.00267117 9.41765 0)
(-3.98261e-05 9.00787 0)
(-0.000651441 8.39981 0)
(0.00748834 10.003 0)
(0.0118946 10.0145 0)
(0.0140571 10.0273 0)
(0.0158647 10.0388 0)
(0.0163015 10.0489 0)
(0.0158488 10.0559 0)
(0.0148544 10.0579 0)
(0.0133736 10.0517 0)
(0.0114519 10.0309 0)
(0.00909939 9.9824 0)
(0.00629291 9.88294 0)
(0.00315247 9.70068 0)
(0.000343538 9.41274 0)
(-0.00141417 9.01153 0)
(-0.00142313 8.41916 0)
(0.00585638 10.0025 0)
(0.0100152 10.0123 0)
(0.0119201 10.0245 0)
(0.0137942 10.0366 0)
(0.0144552 10.0484 0)
(0.0141556 10.0585 0)
(0.013267 10.0654 0)
(0.0118693 10.0676 0)
(0.0100488 10.0616 0)
(0.00788447 10.0405 0)
(0.00541263 9.9906 0)
(0.00266365 9.88842 0)
(-0.000195072 9.7042 0)
(-0.0023083 9.41949 0)
(-0.00296759 9.02836 0)
(-0.00230131 8.45137 0)
(0.00451244 10.002 0)
(0.00827765 10.0104 0)
(0.00981439 10.0217 0)
(0.0114028 10.0336 0)
(0.0122199 10.0465 0)
(0.0120353 10.0588 0)
(0.0112006 10.0691 0)
(0.00980943 10.0768 0)
(0.00797157 10.08 0)
(0.00581317 10.075 0)
(0.00343745 10.0546 0)
(0.000924399 10.0046 0)
(-0.00163597 9.90149 0)
(-0.00398377 9.71772 0)
(-0.00530212 9.43849 0)
(-0.00469981 9.05851 0)
(-0.0032746 8.49659 0)
(0.00340823 10.0016 0)
(0.00666008 10.0088 0)
(0.0078742 10.0192 0)
(0.00898394 10.0305 0)
(0.00960364 10.0436 0)
(0.00948483 10.0572 0)
(0.00865277 10.0701 0)
(0.00720323 10.0815 0)
(0.00525515 10.0907 0)
(0.0029678 10.0958 0)
(0.000493914 10.0929 0)
(-0.00202851 10.0743 0)
(-0.00448166 10.0255 0)
(-0.00670665 9.92318 0)
(-0.0083596 9.74204 0)
(-0.00867556 9.47016 0)
(-0.00662732 9.10219 0)
(-0.00434134 8.5548 0)
(0.00249833 10.0013 0)
(0.00516269 10.0075 0)
(0.00605369 10.017 0)
(0.00673773 10.0277 0)
(0.0069161 10.0402 0)
(0.00650669 10.0543 0)
(0.00561763 10.0689 0)
(0.00404485 10.0831 0)
(0.00190298 10.0964 0)
(-0.000623834 10.1079 0)
(-0.00334975 10.1158 0)
(-0.00608834 10.1159 0)
(-0.00865613 10.1004 0)
(-0.0108917 10.0541 0)
(-0.0125827 9.95434 0)
(-0.0133375 9.77783 0)
(-0.0124394 9.51482 0)
(-0.00874541 9.15931 0)
(-0.00549378 8.6258 0)
(0.00174903 10.0011 0)
(0.00378043 10.0064 0)
(0.00434754 10.015 0)
(0.00461344 10.0251 0)
(0.00439026 10.0369 0)
(0.00344394 10.0506 0)
(0.00209447 10.066 0)
(0.000325283 10.0821 0)
(-0.00209242 10.0984 0)
(-0.00496514 10.1144 0)
(-0.00807474 10.1292 0)
(-0.0111933 10.1409 0)
(-0.0140907 10.1451 0)
(-0.0165496 10.1337 0)
(-0.0183651 10.0913 0)
(-0.0192916 9.99576 0)
(-0.0189154 9.82557 0)
(-0.0165858 9.57256 0)
(-0.0110507 9.2298 0)
(-0.00672601 8.70929 0)
(0.00109135 10.0009 0)
(0.00250026 10.0055 0)
(0.00275423 10.0134 0)
(0.00261667 10.0227 0)
(0.00198408 10.0338 0)
(0.000563926 10.0469 0)
(-0.00150975 10.062 0)
(-0.00394913 10.0791 0)
(-0.00673987 10.0976 0)
(-0.01007 10.1168 0)
(-0.0136927 10.1364 0)
(-0.017344 10.1554 0)
(-0.0207524 10.1719 0)
(-0.0236528 10.1813 0)
(-0.0257945 10.1751 0)
(-0.0269471 10.1379 0)
(-0.0268435 10.048 0)
(-0.0250794 9.88555 0)
(-0.0210952 9.64334 0)
(-0.0135174 9.31319 0)
(-0.00801881 8.80458 0)
(0.000575752 10.0008 0)
(0.0013596 10.0047 0)
(0.00127133 10.0119 0)
(0.000751325 10.0206 0)
(-0.000282735 10.0309 0)
(-0.00217078 10.0432 0)
(-0.00487855 10.0578 0)
(-0.00829035 10.0747 0)
(-0.0120329 10.0943 0)
(-0.0159485 10.116 0)
(-0.0202276 10.139 0)
(-0.0245696 10.1631 0)
(-0.0286626 10.1874 0)
(-0.0321993 10.2096 0)
(-0.0348839 10.2252 0)
(-0.0364494 10.2253 0)
(-0.0366515 10.1944 0)
(-0.0352225 10.1115 0)
(-0.031799 9.95782 0)
(-0.0259315 9.72687 0)
(-0.0161282 9.40903 0)
(-0.00935677 8.91106 0)
(0.000163728 10.0007 0)
(0.000348402 10.0041 0)
(-9.89056e-05 10.0106 0)
(-0.000977101 10.0186 0)
(-0.00239517 10.0282 0)
(-0.00473141 10.0397 0)
(-0.0080603 10.0535 0)
(-0.012328 10.0699 0)
(-0.0173702 10.0894 0)
(-0.0225897 10.1123 0)
(-0.0276931 10.1379 0)
(-0.0329054 10.1657 0)
(-0.0378703 10.1954 0)
(-0.0422359 10.2259 0)
(-0.045667 10.2548 0)
(-0.0478562 10.2775 0)
(-0.0485322 10.2848 0)
(-0.0474568 10.2613 0)
(-0.0443865 10.1863 0)
(-0.0390197 10.0422 0)
(-0.0310476 9.82266 0)
(-0.0188289 9.51643 0)
(-0.0106975 9.02722 0)
(-0.000155719 10.0006 0)
(-0.000487444 10.0037 0)
(-0.00130779 10.0096 0)
(-0.00256783 10.0169 0)
(-0.00434429 10.0257 0)
(-0.00710079 10.0363 0)
(-0.0110168 10.0492 0)
(-0.0161152 10.0648 0)
(-0.022303 10.0837 0)
(-0.029242 10.1065 0)
(-0.0360729 10.1336 0)
(-0.0423701 10.1642 0)
(-0.0484264 10.1978 0)
(-0.0538381 10.234 0)
(-0.0582254 10.2716 0)
(-0.0612456 10.3082 0)
(-0.062595 10.3388 0)
(-0.0620191 10.3541 0)
(-0.0593079 10.3388 0)
(-0.0542596 10.2724 0)
(-0.0466666 10.1384 0)
(-0.0363419 9.92996 0)
(-0.0215174 9.63416 0)
(-0.0116628 9.15145 0)
(-0.000423241 10.0005 0)
(-0.00117536 10.0033 0)
(-0.00232257 10.0087 0)
(-0.00396093 10.0153 0)
(-0.0061255 10.0233 0)
(-0.0092646 10.0331 0)
(-0.0137221 10.045 0)
(-0.019605 10.0596 0)
(-0.0268992 10.0776 0)
(-0.0353549 10.0998 0)
(-0.0444211 10.1267 0)
(-0.0529421 10.1589 0)
(-0.060358 10.1957 0)
(-0.0670781 10.2361 0)
(-0.0726682 10.2797 0)
(-0.076743 10.3253 0)
(-0.078971 10.3703 0)
(-0.0790759 10.4095 0)
(-0.0768426 10.4335 0)
(-0.0721068 10.4268 0)
(-0.0647387 10.3696 0)
(-0.0546062 10.2456 0)
(-0.04176 10.0477 0)
(-0.0241991 9.76201 0)
(-0.0124087 9.28376 0)
(-0.00063404 10.0005 0)
(-0.00173369 10.003 0)
(-0.00316968 10.0079 0)
(-0.0051182 10.014 0)
(-0.00766606 10.0212 0)
(-0.0112143 10.03 0)
(-0.0161573 10.041 0)
(-0.0227619 10.0544 0)
(-0.0311006 10.0713 0)
(-0.0410183 10.0924 0)
(-0.0520586 10.1187 0)
(-0.0634319 10.1507 0)
(-0.0736386 10.1891 0)
(-0.0819955 10.233 0)
(-0.0890959 10.2811 0)
(-0.0944995 10.3331 0)
(-0.0978381 10.3875 0)
(-0.0988183 10.4415 0)
(-0.0972187 10.4898 0)
(-0.092885 10.5228 0)
(-0.0857211 10.5252 0)
(-0.0756522 10.4773 0)
(-0.062693 10.363 0)
(-0.0464358 10.1751 0)
(-0.0204777 9.89337 0)
(-0.00705074 9.35741 0)
(-0.000809193 10.0004 0)
(-0.00221057 10.0028 0)
(-0.00387679 10.0073 0)
(-0.00607347 10.0128 0)
(-0.0089248 10.0193 0)
(-0.0128702 10.0272 0)
(-0.0183101 10.037 0)
(-0.0255605 10.0493 0)
(-0.0348615 10.0648 0)
(-0.0461605 10.0846 0)
(-0.0591043 10.1097 0)
(-0.0729997 10.141 0)
(-0.0867803 10.1792 0)
(-0.0985621 10.2249 0)
(-0.107566 10.2769 0)
(-0.11465 10.3337 0)
(-0.119396 10.3948 0)
(-0.121487 10.4586 0)
(-0.1207 10.5221 0)
(-0.11689 10.5798 0)
(-0.109983 10.622 0)
(-0.0999434 10.6335 0)
(-0.0868034 10.5946 0)
(-0.0703419 10.4898 0)
(-0.0509389 10.3091 0)
(-0.0160666 10.0574 0)
(0.000278472 9.41011 0)
(-0.000956588 10.0004 0)
(-0.0026073 10.0026 0)
(-0.00447297 10.0068 0)
(-0.00686395 10.0119 0)
(-0.00994443 10.0177 0)
(-0.014194 10.0247 0)
(-0.0200934 10.0332 0)
(-0.0279835 10.0442 0)
(-0.0381476 10.0583 0)
(-0.0507233 10.0765 0)
(-0.06547 10.1001 0)
(-0.0818005 10.13 0)
(-0.0987446 10.1674 0)
(-0.114929 10.2129 0)
(-0.128049 10.2669 0)
(-0.137276 10.328 0)
(-0.143828 10.3944 0)
(-0.147348 10.4652 0)
(-0.147602 10.5388 0)
(-0.144463 10.6121 0)
(-0.13789 10.6793 0)
(-0.127894 10.7307 0)
(-0.11452 10.751 0)
(-0.0976377 10.7209 0)
(-0.0769842 10.6246 0)
(-0.0543025 10.4585 0)
(-0.0177419 10.2233 0)
(0.00445974 9.45492 0)
(-0.00108086 10.0004 0)
(-0.0029403 10.0024 0)
(-0.00497551 10.0064 0)
(-0.00751975 10.011 0)
(-0.0107709 10.0163 0)
(-0.0152396 10.0225 0)
(-0.0214757 10.0299 0)
(-0.0299326 10.0393 0)
(-0.0409345 10.0518 0)
(-0.0546611 10.0683 0)
(-0.0710816 10.09 0)
(-0.0897258 10.1182 0)
(-0.109732 10.1541 0)
(-0.129818 10.1986 0)
(-0.148275 10.2524 0)
(-0.162359 10.3159 0)
(-0.171253 10.387 0)
(-0.176634 10.4636 0)
(-0.178251 10.5447 0)
(-0.175996 10.6284 0)
(-0.16987 10.7114 0)
(-0.159942 10.788 0)
(-0.146315 10.8483 0)
(-0.128936 10.877 0)
(-0.107557 10.8554 0)
(-0.0821854 10.7685 0)
(-0.0554225 10.622 0)
(-0.0210773 10.3859 0)
(0.00518911 9.5015 0)
(-0.00118669 10.0003 0)
(-0.00322157 10.0022 0)
(-0.00540112 10.006 0)
(-0.00806549 10.0103 0)
(-0.0114416 10.0151 0)
(-0.0160626 10.0206 0)
(-0.022527 10.027 0)
(-0.0313861 10.035 0)
(-0.0431092 10.0456 0)
(-0.0579402 10.06 0)
(-0.0758793 10.0797 0)
(-0.0966823 10.1058 0)
(-0.119611 10.1396 0)
(-0.143486 10.1824 0)
(-0.166677 10.2352 0)
(-0.187137 10.2984 0)
(-0.201658 10.3723 0)
(-0.209503 10.4542 0)
(-0.21295 10.5416 0)
(-0.211903 10.6332 0)
(-0.206412 10.7271 0)
(-0.196618 10.8197 0)
(-0.182711 10.9053 0)
(-0.164774 10.9741 0)
(-0.142712 11.011 0)
(-0.116775 10.9979 0)
(-0.0871165 10.9218 0)
(-0.0569815 10.7936 0)
(-0.0235741 10.5447 0)
(0.00435829 9.5537 0)
(-0.001277 10.0003 0)
(-0.00345989 10.0021 0)
(-0.00576305 10.0057 0)
(-0.00852106 10.0097 0)
(-0.0119866 10.0141 0)
(-0.0167083 10.0189 0)
(-0.0233171 10.0245 0)
(-0.0324362 10.0312 0)
(-0.0446621 10.04 0)
(-0.0604275 10.0521 0)
(-0.0798173 10.0692 0)
(-0.102592 10.0929 0)
(-0.128262 10.1242 0)
(-0.155769 10.1648 0)
(-0.183578 10.2157 0)
(-0.2097 10.2779 0)
(-0.231718 10.3516 0)
(-0.245976 10.4367 0)
(-0.251925 10.5302 0)
(-0.252575 10.6287 0)
(-0.24803 10.7309 0)
(-0.23852 10.8348 0)
(-0.224342 10.9367 0)
(-0.205747 11.0309 0)
(-0.182855 11.1077 0)
(-0.156023 11.1526 0)
(-0.126028 11.1476 0)
(-0.0929249 11.0833 0)
(-0.0594327 10.9685 0)
(-0.0263222 10.6998 0)
(0.00282689 9.62576 0)
(-0.0013544 10.0003 0)
(-0.00366309 10.002 0)
(-0.00607196 10.0054 0)
(-0.00890264 10.0091 0)
(-0.0124304 10.0131 0)
(-0.0172133 10.0175 0)
(-0.0239022 10.0222 0)
(-0.0331724 10.0278 0)
(-0.0457153 10.035 0)
(-0.0621277 10.0449 0)
(-0.0827347 10.0591 0)
(-0.107395 10.0796 0)
(-0.135587 10.1082 0)
(-0.166521 10.1459 0)
(-0.198781 10.1943 0)
(-0.230453 10.2546 0)
(-0.259139 10.3273 0)
(-0.282096 10.4124 0)
(-0.295235 10.5096 0)
(-0.298314 10.615 0)
(-0.295211 10.7248 0)
(-0.286266 10.8376 0)
(-0.271917 10.9511 0)
(-0.252593 11.0618 0)
(-0.228655 11.164 0)
(-0.20059 11.2485 0)
(-0.169259 11.3008 0)
(-0.135661 11.3034 0)
(-0.0995485 11.2503 0)
(-0.062911 11.1434 0)
(-0.029408 10.8697 0)
(0.00110988 9.711 0)
(-0.00142114 10.0003 0)
(-0.0038371 10.0019 0)
(-0.00633649 10.0051 0)
(-0.00922333 10.0087 0)
(-0.0127926 10.0123 0)
(-0.0176067 10.0162 0)
(-0.0243277 10.0203 0)
(-0.0336665 10.0249 0)
(-0.0463843 10.0306 0)
(-0.0632016 10.0384 0)
(-0.0846522 10.0499 0)
(-0.110891 10.0668 0)
(-0.141503 10.0917 0)
(-0.175615 10.1261 0)
(-0.212104 10.1714 0)
(-0.249155 10.2289 0)
(-0.284418 10.2996 0)
(-0.315121 10.3839 0)
(-0.338224 10.4812 0)
(-0.349233 10.5911 0)
(-0.348345 10.7088 0)
(-0.340452 10.8298 0)
(-0.326168 10.9528 0)
(-0.306142 11.0755 0)
(-0.280975 11.1944 0)
(-0.251355 11.3042 0)
(-0.218215 11.3956 0)
(-0.182687 11.4543 0)
(-0.145571 11.4639 0)
(-0.106551 11.4199 0)
(-0.0674813 11.3375 0)
(-0.0324342 11.0543 0)
(-0.000852217 9.80576 0)
(-0.001479 10.0003 0)
(-0.00398678 10.0018 0)
(-0.00656367 10.0049 0)
(-0.00949368 10.0082 0)
(-0.0130888 10.0116 0)
(-0.017912 10.0151 0)
(-0.0246295 10.0185 0)
(-0.033976 10.0222 0)
(-0.0467617 10.0267 0)
(-0.0637982 10.0327 0)
(-0.0857789 10.0416 0)
(-0.113119 10.0551 0)
(-0.145764 10.0756 0)
(-0.182943 10.1057 0)
(-0.223385 10.1472 0)
(-0.265582 10.2012 0)
(-0.307263 10.269 0)
(-0.345659 10.3514 0)
(-0.377642 10.4482 0)
(-0.399911 10.5586 0)
(-0.407627 10.6815 0)
(-0.401583 10.8115 0)
(-0.387819 10.9436 0)
(-0.36725 11.0763 0)
(-0.340775 11.2075 0)
(-0.30931 11.334 0)
(-0.27395 11.4505 0)
(-0.235914 11.5478 0)
(-0.196248 11.6118 0)
(-0.155461 11.6269 0)
(-0.114314 11.6105 0)
(-0.0725917 11.5493 0)
(-0.0354508 11.2349 0)
(-0.00276483 9.90716 0)
(-0.00152959 10.0003 0)
(-0.00411669 10.0018 0)
(-0.00675974 10.0047 0)
(-0.00972217 10.0079 0)
(-0.0133316 10.011 0)
(-0.0181478 10.0141 0)
(-0.0248364 10.017 0)
(-0.0341463 10.0199 0)
(-0.0469209 10.0232 0)
(-0.064037 10.0276 0)
(-0.0863068 10.0342 0)
(-0.114347 10.0446 0)
(-0.148422 10.0609 0)
(-0.188195 10.0857 0)
(-0.232483 10.1221 0)
(-0.279531 10.172 0)
(-0.327398 10.236 0)
(-0.373358 10.3153 0)
(-0.41422 10.4104 0)
(-0.446536 10.5207 0)
(-0.466816 10.6446 0)
(-0.46996 10.7808 0)
(-0.45751 10.9229 0)
(-0.436787 11.0656 0)
(-0.40905 11.2074 0)
(-0.37554 11.3464 0)
(-0.337558 11.4796 0)
(-0.296495 11.6017 0)
(-0.253593 11.7037 0)
(-0.209664 11.7713 0)
(-0.166211 11.8105 0)
(-0.12248 11.8201 0)
(-0.0776932 11.7563 0)
(-0.0382844 11.4107 0)
(-0.00451462 10.0123 0)
(-0.00423149 10.0017 0)
(-0.0015852 10.0003 0)
(-0.00693104 10.0046 0)
(-0.00991638 10.0076 0)
(-0.0135307 10.0105 0)
(-0.0183287 10.0132 0)
(-0.0249708 10.0156 0)
(-0.0342129 10.0178 0)
(-0.0469197 10.0201 0)
(-0.0640125 10.0231 0)
(-0.0863895 10.0277 0)
(-0.11482 10.0352 0)
(-0.149819 10.0476 0)
(-0.191438 10.0673 0)
(-0.239005 10.0975 0)
(-0.290822 10.1415 0)
(-0.344573 10.2009 0)
(-0.397883 10.2763 0)
(-0.447545 10.3684 0)
(-0.489979 10.4772 0)
(-0.521479 10.6016 0)
(-0.538468 10.7394 0)
(-0.535671 10.8889 0)
(-0.515546 11.0427 0)
(-0.48683 11.1953 0)
(-0.451186 11.3455 0)
(-0.410251 11.4914 0)
(-0.365639 11.6302 0)
(-0.318831 11.7566 0)
(-0.270952 11.8615 0)
(-0.224182 11.9507 0)
(-0.17749 12.0134 0)
(-0.130126 12.0261 0)
(-0.082516 11.957 0)
(-0.0408019 11.5808 0)
(-0.00612162 10.1189 0)
(-0.0070842 10.0044 0)
(-0.00435341 10.0016 0)
(-0.00164701 10.0002 0)
(-0.0100843 10.0073 0)
(-0.013695 10.01 0)
(-0.0184661 10.0124 0)
(-0.0250503 10.0144 0)
(-0.034204 10.016 0)
(-0.0468034 10.0174 0)
(-0.0637988 10.0191 0)
(-0.0861487 10.0218 0)
(-0.114735 10.0268 0)
(-0.150265 10.0357 0)
(-0.193097 10.0507 0)
(-0.243028 10.0748 0)
(-0.298955 10.1114 0)
(-0.358557 10.1642 0)
(-0.418923 10.2347 0)
(-0.477211 10.3227 0)
(-0.529755 10.4287 0)
(-0.572643 10.5521 0)
(-0.602 10.6911 0)
(-0.614276 10.843 0)
(-0.604124 11.0055 0)
(-0.57509 11.1705 0)
(-0.53746 11.3322 0)
(-0.493336 11.4897 0)
(-0.444701 11.6414 0)
(-0.393325 11.7844 0)
(-0.340642 11.9135 0)
(-0.289639 12.0388 0)
(-0.239315 12.1489 0)
(-0.187947 12.2136 0)
(-0.137112 12.2267 0)
(-0.0868828 12.1502 0)
(-0.0429566 11.7445 0)
(-0.00754941 10.2252 0)
(-0.0102352 10.007 0)
(-0.00723582 10.0042 0)
(-0.00449362 10.0015 0)
(-0.00170677 10.0002 3.74737e-20)
(-0.0138339 10.0096 0)
(-0.0185698 10.0117 0)
(-0.025088 10.0133 0)
(-0.0341406 10.0144 0)
(-0.0466068 10.015 0)
(-0.0634535 10.0155 0)
(-0.0856794 10.0167 0)
(-0.114248 10.0193 0)
(-0.150009 10.025 0)
(-0.193561 10.0358 0)
(-0.245076 10.0542 0)
(-0.304006 10.0836 0)
(-0.368713 10.1279 0)
(-0.436183 10.191 0)
(-0.502834 10.2738 0)
(-0.565381 10.3758 0)
(-0.619745 10.4968 0)
(-0.661758 10.6354 0)
(-0.68749 10.7894 0)
(-0.693548 10.9553 0)
(-0.674632 11.1302 0)
(-0.635545 11.3055 0)
(-0.58822 11.4754 0)
(-0.535163 11.639 0)
(-0.478581 11.7952 0)
(-0.42028 11.9408 0)
(-0.364049 12.0899 0)
(-0.309054 12.2348 0)
(-0.253215 12.3446 0)
(-0.197456 12.4091 0)
(-0.143321 12.4202 0)
(-0.0907164 12.3353 0)
(-0.0447497 11.9012 0)
(-0.00878567 10.3295 0)
(-0.01396 10.0092 0)
(-0.0103662 10.0067 0)
(-0.00740419 10.004 1.70459e-19)
(-0.00463156 10.0014 -1.18797e-19)
(-0.00176368 10.0002 -7.35571e-20)
(-0.0186511 10.0111 0)
(-0.0250953 10.0124 0)
(-0.0340387 10.0129 0)
(-0.0463565 10.0129 0)
(-0.0630207 10.0124 0)
(-0.0850553 10.0121 0)
(-0.113479 10.0127 0)
(-0.149248 10.0156 0)
(-0.193144 10.0224 0)
(-0.245631 10.0357 0)
(-0.306612 10.0584 0)
(-0.375104 10.0942 0)
(-0.44886 10.1475 0)
(-0.524047 10.2223 0)
(-0.596392 10.319 0)
(-0.662217 10.4362 0)
(-0.717095 10.573 0)
(-0.756712 10.7275 0)
(-0.777218 10.8965 0)
(-0.77552 11.0759 0)
(-0.746482 11.2625 0)
(-0.696317 11.4472 0)
(-0.638647 11.6239 0)
(-0.576275 11.7924 0)
(-0.51152 11.9513 0)
(-0.449161 12.1168 0)
(-0.38836 12.2849 0)
(-0.326829 12.4282 0)
(-0.265761 12.536 0)
(-0.205897 12.5984 0)
(-0.148711 12.6059 0)
(-0.0939962 12.5116 0)
(-0.0462023 12.0505 0)
(-0.00983287 10.4306 0)
(-0.0187275 10.0106 0)
(-0.0140347 10.0087 -3.84789e-19)
(-0.0105001 10.0063 -1.80125e-19)
(-0.00756747 10.0037 8.36825e-20)
(-0.00476415 10.0013 -7.77009e-20)
(-0.00181746 10.0002 0)
(-0.0250851 10.0116 0)
(-0.0339111 10.0117 0)
(-0.0460714 10.011 0)
(-0.0625338 10.0096 0)
(-0.0843327 10.008 0)
(-0.112524 10.0068 0)
(-0.148138 10.0071 0)
(-0.192093 10.0105 0)
(-0.24508 10.0191 0)
(-0.307364 10.0356 0)
(-0.378495 10.0636 0)
(-0.456982 10.1071 0)
(-0.539836 10.1709 0)
(-0.622329 10.2589 0)
(-0.699502 10.3708 0)
(-0.767355 10.5043 0)
(-0.821217 10.6577 0)
(-0.856758 10.8282 0)
(-0.870358 11.012 0)
(-0.859372 11.2044 0)
(-0.818945 11.4017 0)
(-0.756809 11.5945 0)
(-0.688247 11.7768 0)
(-0.616244 11.9484 0)
(-0.54679 12.1273 0)
(-0.479164 12.3117 0)
(-0.410618 12.4775 0)
(-0.342837 12.6174 0)
(-0.276855 12.7215 0)
(-0.213225 12.7804 0)
(-0.153284 12.7831 0)
(-0.096736 12.679 0)
(-0.0473463 12.192 0)
(-0.0107021 10.5278 0)
(-0.0250824 10.0108 0)
(-0.0187039 10.0099 8.13003e-19)
(-0.0140792 10.0081 0)
(-0.0106284 10.0059 1.76708e-19)
(-0.0077222 10.0035 6.52872e-23)
(-0.00489108 10.0013 0)
(-0.00186793 10.0002 0)
(-0.0337728 10.0106 0)
(-0.0457665 10.0093 0)
(-0.0620163 10.0071 0)
(-0.083554 10.0044 0)
(-0.111454 10.0016 0)
(-0.146798 9.99963 0)
(-0.190604 9.99988 0)
(-0.243735 10.0042 0)
(-0.306737 10.0151 0)
(-0.379596 10.0358 0)
(-0.46145 10.0702 0)
(-0.550166 10.1229 0)
(-0.641926 10.1986 0)
(-0.731035 10.3013 0)
(-0.811877 10.4299 0)
(-0.880252 10.5806 0)
(-0.931369 10.7511 0)
(-0.961034 10.9377 0)
(-0.966014 11.1358 0)
(-0.944253 11.3402 0)
(-0.891278 11.547 0)
(-0.81641 11.7465 0)
(-0.736514 11.9326 0)
(-0.659065 12.1246 0)
(-0.583467 12.3224 0)
(-0.506651 12.5043 0)
(-0.430668 12.6662 0)
(-0.35699 12.8011 0)
(-0.28647 12.9002 0)
(-0.219451 12.9544 0)
(-0.157071 12.9513 0)
(-0.0989622 12.8371 0)
(-0.048217 12.3256 0)
(-0.0114093 10.6203 0)
(-0.0336598 10.0096 0)
(-0.0249084 10.0099 -9.81107e-23)
(-0.0185903 10.0091 0)
(-0.0141175 10.0075 -1.86716e-19)
(-0.0107451 10.0055 6.35118e-23)
(-0.00786827 10.0033 0)
(-0.00501216 10.0012 0)
(-0.00191514 10.0002 0)
(-0.0454592 10.0078 0)
(-0.0614858 10.0049 0)
(-0.0827485 10.0012 0)
(-0.110323 9.99693 0)
(-0.14532 9.99298 0)
(-0.188828 9.99044 0)
(-0.241839 9.99096 0)
(-0.305116 9.99679 0)
(-0.378989 10.0108 0)
(-0.463115 10.0368 0)
(-0.556086 10.079 0)
(-0.655043 10.1422 0)
(-0.755242 10.2315 0)
(-0.849976 10.3504 0)
(-0.93304 10.4968 0)
(-1.00019 10.6655 0)
(-1.04667 10.8533 0)
(-1.06859 11.0557 0)
(-1.06325 11.2674 0)
(-1.0293 11.4827 0)
(-0.962747 11.6976 0)
(-0.874512 11.902 0)
(-0.788287 12.109 0)
(-0.703658 12.3203 0)
(-0.617125 12.5157 0)
(-0.531435 12.6933 0)
(-0.448419 12.8494 0)
(-0.369269 12.9781 0)
(-0.294633 13.0712 0)
(-0.224622 13.1199 0)
(-0.160126 13.1105 0)
(-0.100717 12.986 0)
(-0.0488481 12.4512 0)
(-0.0119696 10.7079 0)
(-0.0452022 10.0065 0)
(-0.0332735 10.0084 -4.53586e-19)
(-0.0245458 10.0089 0)
(-0.0184709 10.0083 0)
(-0.0141397 10.007 5.49666e-19)
(-0.01085 10.0051 0)
(-0.00800557 10.0031 0)
(-0.00512718 10.0011 1.46947e-19)
(-0.001959 10.0001 0)
(-0.0609626 10.003 0)
(-0.0819372 9.99833 0)
(-0.109168 9.99282 0)
(-0.143773 9.98707 0)
(-0.186881 9.98205 0)
(-0.239582 9.97917 0)
(-0.302801 9.98043 0)
(-0.377141 9.98844 0)
(-0.462673 10.0066 0)
(-0.558599 10.039 0)
(-0.662884 10.0903 0)
(-0.771835 10.1657 0)
(-0.879711 10.2701 0)
(-0.978767 10.4068 0)
(-1.06233 10.572 0)
(-1.12629 10.7592 0)
(-1.16612 10.9643 0)
(-1.17839 11.182 0)
(-1.16109 11.4062 0)
(-1.11368 11.6311 0)
(-1.03263 11.8522 0)
(-0.93696 12.0785 0)
(-0.842302 12.3055 0)
(-0.744656 12.5146 0)
(-0.647522 12.7055 0)
(-0.553413 12.877 0)
(-0.463858 13.0261 0)
(-0.379723 13.1476 0)
(-0.301422 13.2341 0)
(-0.22881 13.2766 0)
(-0.162512 13.2604 0)
(-0.102047 13.1258 0)
(-0.0492735 12.5689 0)
(-0.0124004 10.7903 0)
(-0.0605226 10.0013 0)
(-0.0445286 10.005 0)
(-0.0325471 10.007 -4.48364e-19)
(-0.0241808 10.0078 -4.16589e-19)
(-0.0183299 10.0075 -7.74223e-19)
(-0.014145 10.0064 0)
(-0.0109427 10.0048 -3.3415e-19)
(-0.00813349 10.0028 -3.10501e-19)
(-0.00523597 10.001 1.44226e-19)
(-0.00199932 10.0001 0)
(-0.0811443 9.9958 0)
(-0.108015 9.98916 0)
(-0.142202 9.98182 0)
(-0.184851 9.97459 0)
(-0.237109 9.96868 0)
(-0.300029 9.96584 0)
(-0.374421 9.96841 0)
(-0.460689 9.97946 0)
(-0.558533 10.0028 0)
(-0.666616 10.043 0)
(-0.782171 10.1051 0)
(-0.900585 10.1943 0)
(-1.01506 10.3154 0)
(-1.11683 10.4711 0)
(-1.19891 10.6559 0)
(-1.25756 10.8619 0)
(-1.28864 11.0839 0)
(-1.28937 11.316 0)
(-1.25857 11.5516 0)
(-1.19654 11.7842 0)
(-1.10805 12.0285 0)
(-1.00231 12.2758 0)
(-0.892062 12.5011 0)
(-0.781745 12.7058 0)
(-0.674532 12.8904 0)
(-0.572574 13.0544 0)
(-0.477042 13.1956 0)
(-0.388449 13.3093 0)
(-0.306937 13.3886 0)
(-0.232101 13.4244 0)
(-0.164298 13.4012 0)
(-0.103002 13.2566 0)
(-0.0495213 12.6788 0)
(-0.0127174 10.8676 0)
(-0.0804776 9.99356 0)
(-0.0594714 9.99934 -5.06525e-19)
(-0.0432935 10.0033 4.73708e-19)
(-0.0318268 10.0057 -3.57585e-23)
(-0.0237882 10.0068 4.08955e-19)
(-0.018166 10.0068 3.79916e-19)
(-0.0141334 10.0059 7.06055e-19)
(-0.0110229 10.0044 4.91976e-19)
(-0.00825206 10.0026 -1.52396e-19)
(-0.00533808 10.0009 0)
(-0.00203613 10.0001 0)
(-0.106892 9.98592 0)
(-0.140639 9.97717 0)
(-0.182795 9.96797 0)
(-0.23453 9.95936 0)
(-0.29698 9.95285 0)
(-0.371119 9.95052 0)
(-0.457612 9.95515 0)
(-0.556561 9.97026 0)
(-0.667212 10.0001 0)
(-0.787594 10.0496 0)
(-0.914107 10.1241 0)
(-1.04114 10.2288 0)
(-1.16081 10.3681 0)
(-1.26339 10.5438 0)
(-1.34179 10.7489 0)
(-1.39289 10.9736 0)
(-1.41311 11.212 0)
(-1.40048 11.4573 0)
(-1.35472 11.7025 0)
(-1.28637 11.9598 0)
(-1.18735 12.2267 0)
(-1.06278 12.473 0)
(-0.937215 12.6942 0)
(-0.814775 12.8924 0)
(-0.698141 13.0692 0)
(-0.588989 13.2247 0)
(-0.488087 13.3573 0)
(-0.395571 13.4628 0)
(-0.311289 13.5344 0)
(-0.234589 13.5634 0)
(-0.165552 13.5331 0)
(-0.103631 13.3788 0)
(-0.0496198 12.7813 0)
(-0.012939 10.9397 0)
(-0.10595 9.98304 0)
(-0.0789413 9.99111 -4.19155e-22)
(-0.0575485 9.99719 0)
(-0.0420806 10.0016 -1.55098e-22)
(-0.0310712 10.0044 0)
(-0.0233645 10.0058 -4.01409e-19)
(-0.017979 10.006 -7.45885e-19)
(-0.0141047 10.0053 -7.12511e-23)
(-0.0110905 10.004 3.21886e-19)
(-0.00836074 10.0024 -1.49547e-19)
(-0.00543336 10.0008 1.38947e-19)
(-0.00206939 10.0001 0)
(-0.139121 9.97304 0)
(-0.180752 9.96209 0)
(-0.231919 9.95107 0)
(-0.293794 9.94129 0)
(-0.367462 9.93458 0)
(-0.453797 9.93342 0)
(-0.553224 9.94102 0)
(-0.665468 9.96136 0)
(-0.789231 9.99915 0)
(-0.921803 10.0596 0)
(-1.05866 10.1482 0)
(-1.19314 10.27 0)
(-1.31629 10.4289 0)
(-1.41753 10.6256 0)
(-1.48988 10.8511 0)
(-1.5311 11.0942 0)
(-1.53837 11.3481 0)
(-1.51064 11.605 0)
(-1.45949 11.8766 0)
(-1.38132 12.1583 0)
(-1.26108 12.4258 0)
(-1.1179 12.6684 0)
(-0.977581 12.883 0)
(-0.843715 13.0731 0)
(-0.718423 13.2411 0)
(-0.602792 13.3875 0)
(-0.497143 13.511 0)
(-0.401232 13.6079 0)
(-0.3146 13.6717 0)
(-0.236368 13.6937 0)
(-0.166344 13.6563 0)
(-0.10398 13.4926 0)
(-0.0495932 12.8765 0)
(-0.0130805 11.0067 0)
(-0.137852 9.96937 0)
(-0.103802 9.97995 5.65554e-19)
(-0.0761119 9.98844 -5.29486e-19)
(-0.0556734 9.99511 4.91365e-19)
(-0.0408232 9.99997 0)
(-0.0302735 10.0031 0)
(-0.0229099 10.0048 3.94001e-19)
(-0.0177691 10.0053 -3.66058e-19)
(-0.0140585 10.0048 -5.80892e-23)
(-0.0111447 10.0037 1.58024e-19)
(-0.00845926 10.0022 -1.46823e-19)
(-0.00552166 10.0007 -1.36376e-19)
(-0.00209888 10.0001 0)
(-0.178768 9.95687 0)
(-0.229323 9.94371 0)
(-0.29056 9.93101 0)
(-0.363619 9.92037 0)
(-0.44952 9.91402 0)
(-0.548951 9.91484 0)
(-0.662028 9.92651 0)
(-0.788015 9.95346 0)
(-0.924964 10.0008 0)
(-1.06932 10.0739 0)
(-1.21559 10.1784 0)
(-1.35603 10.3188 0)
(-1.48067 10.4985 0)
(-1.57817 10.7168 0)
(-1.64198 10.9628 0)
(-1.67098 11.2236 0)
(-1.66326 11.4914 0)
(-1.63138 11.7767 0)
(-1.5709 12.0749 0)
(-1.47011 12.3591 0)
(-1.32865 12.624 0)
(-1.16741 12.8603 0)
(-1.01313 13.0664 0)
(-0.868674 13.2472 0)
(-0.735535 13.4054 0)
(-0.614162 13.5421 0)
(-0.504381 13.6563 0)
(-0.405579 13.7445 0)
(-0.316991 13.8005 0)
(-0.237531 13.8155 0)
(-0.166738 13.7712 0)
(-0.104091 13.5986 0)
(-0.0494659 12.965 0)
(-0.0131571 11.069 0)
(-0.177117 9.95223 0)
(-0.134944 9.96548 0)
(-0.0998042 9.97664 5.59226e-19)
(-0.0733683 9.98587 -1.03986e-18)
(-0.0537426 9.9931 9.65552e-19)
(-0.0395093 9.9984 -8.96664e-19)
(-0.0294346 10.0019 0)
(-0.0224253 10.0039 3.86757e-19)
(-0.0175364 10.0046 -3.59297e-19)
(-0.0139945 10.0043 -3.33821e-19)
(-0.0111855 10.0034 0)
(-0.00854745 10.002 1.4411e-19)
(-0.00560207 10.0007 0)
(-0.00212416 10.0001 0)
(-0.2268 9.93716 0)
(-0.287338 9.92186 0)
(-0.359704 9.90773 0)
(-0.444992 9.89671 0)
(-0.544079 9.89143 0)
(-0.657406 9.89524 0)
(-0.784702 9.91227 0)
(-0.924669 9.94737 0)
(-1.07461 10.0059 0)
(-1.23006 10.0936 0)
(-1.38447 10.2156 0)
(-1.52908 10.3761 0)
(-1.65293 10.5775 0)
(-1.74415 10.8178 0)
(-1.79685 11.0839 0)
(-1.81129 11.3612 0)
(-1.80103 11.6593 0)
(-1.76064 11.9737 0)
(-1.67582 12.2768 0)
(-1.55201 12.5603 0)
(-1.38967 12.8196 0)
(-1.21123 13.0472 0)
(-1.04395 13.2435 0)
(-0.889843 13.414 0)
(-0.749689 13.5619 0)
(-0.623302 13.6886 0)
(-0.509984 13.7933 0)
(-0.408763 13.8728 0)
(-0.318583 13.9211 0)
(-0.238165 13.9292 0)
(-0.166799 13.8782 0)
(-0.104002 13.697 0)
(-0.0492567 13.047 0)
(-0.0131805 11.1267 0)
(-0.224713 9.93135 0)
(-0.173284 9.94737 0)
(-0.129471 9.9614 0)
(-0.0959488 9.97347 1.09821e-18)
(-0.0705575 9.98339 -1.01991e-18)
(-0.0517378 9.99116 9.472e-19)
(-0.0381408 9.99688 0)
(-0.028556 10.0007 -4.08601e-19)
(-0.0219109 10.003 0)
(-0.0172809 10.0039 3.52697e-19)
(-0.0139126 10.0038 0)
(-0.0112123 10.003 0)
(-0.00862474 10.0018 0)
(-0.0056726 10.0006 1.40116e-19)
(-0.00214527 10.0001 6.84427e-20)
(-0.284205 9.91373 0)
(-0.355789 9.89647 0)
(-0.440352 9.88129 0)
(-0.538865 9.87053 0)
(-0.652009 9.86723 0)
(-0.779905 9.87523 0)
(-0.921802 9.89908 0)
(-1.07574 9.94402 0)
(-1.23818 10.0157 0)
(-1.40369 10.1196 0)
(-1.56469 10.2608 0)
(-1.71138 10.4427 0)
(-1.83198 10.6665 0)
(-1.91423 10.9288 0)
(-1.95322 11.214 0)
(-1.96717 11.5239 0)
(-1.94963 11.8539 0)
(-1.88332 12.1761 0)
(-1.77335 12.4806 0)
(-1.62655 12.7599 0)
(-1.44401 13.0111 0)
(-1.24943 13.2284 0)
(-1.07024 13.4136 0)
(-0.907468 13.5729 0)
(-0.761128 13.7101 0)
(-0.63043 13.8267 0)
(-0.514138 13.9221 0)
(-0.410932 13.993 0)
(-0.319487 14.0337 0)
(-0.23835 14.035 0)
(-0.166581 13.9776 0)
(-0.103748 13.7882 0)
(-0.0489836 13.1229 0)
(-0.0131603 11.1801 0)
(-0.281631 9.90651 0)
(-0.219767 9.92532 0)
(-0.165981 9.94236 1.25391e-18)
(-0.124219 9.9575 1.16378e-18)
(-0.0920119 9.97043 1.08017e-18)
(-0.067651 9.98102 -1.00256e-18)
(-0.0496615 9.98931 0)
(-0.0367204 9.99543 0)
(-0.0276391 9.99961 0)
(-0.021368 10.0021 7.45409e-19)
(-0.0170028 10.0032 3.46208e-19)
(-0.0138128 10.0033 3.2163e-19)
(-0.0112252 10.0027 0)
(-0.00868968 10.0017 -1.48049e-19)
(-0.00573284 10.0005 -7.23404e-20)
(-0.00216263 10.0001 0)
(-0.35198 9.88646 0)
(-0.43569 9.86755 0)
(-0.53348 9.85188 0)
(-0.646148 9.84219 0)
(-0.77411 9.84199 0)
(-0.917082 9.85556 0)
(-1.07373 9.88789 0)
(-1.24135 9.94448 0)
(-1.41549 10.0311 0)
(-1.58973 10.153 0)
(-1.75544 10.3149 0)
(-1.90189 10.5191 0)
(-2.01663 10.7659 0)
(-2.08715 11.0495 0)
(-2.12825 11.3697 0)
(-2.13672 11.7146 0)
(-2.09194 12.0559 0)
(-1.99839 12.3822 0)
(-1.86289 12.6844 0)
(-1.69352 12.9567 0)
(-1.49173 13.1975 0)
(-1.2822 13.4028 0)
(-1.09227 13.5761 0)
(-0.921832 13.7238 0)
(-0.770125 13.8501 0)
(-0.635769 13.9566 0)
(-0.517024 14.0427 0)
(-0.412225 14.1053 0)
(-0.319808 14.1387 0)
(-0.238163 14.1335 0)
(-0.166136 14.0699 0)
(-0.103361 13.8729 0)
(-0.0486592 13.1931 0)
(-0.0131069 11.2294 0)
(-0.348875 9.87756 0)
(-0.275356 9.89906 0)
(-0.210225 9.91918 -2.65195e-18)
(-0.159001 9.93759 3.00505e-21)