/*--------------------------------*- C++ -*----------------------------------*\
  =========                 |
  \\      /  F ield         | OpenFOAM: The Open Source CFD Toolbox
   \\    /   O peration     | Website:  https://openfoam.org
    \\  /    A nd           | Version:  8
     \\/     M anipulation  |
\*---------------------------------------------------------------------------*/
FoamFile
{
    version     2.0;
    format      ascii;
    class       volVectorField;
    location    "0.11";
    object      U;
}
// * * * * * * * * * * * * * * * * * * * * * * * * * * * * * * * * * * * * * //

dimensions      [0 1 -1 0 0 0 0];

internalField   nonuniform List<vector> 
15677
(
(-0.0399015 9.66595 0)
(0.0484951 9.92199 0)
(-0.0018136 9.37829 0)
(0.0206524 9.97702 0)
(0.0198921 9.78866 0)
(0.00731346 9.14125 0)
(0.0258391 9.99515 0)
(0.0165374 9.92467 0)
(0.0111792 9.65398 0)
(0.00649146 8.96067 0)
(0.0263309 10.0025 0)
(0.0205524 9.97871 0)
(0.0165509 9.85203 0)
(0.00912497 9.53081 0)
(0.00515974 8.81703 0)
(0.0255703 10.0057 0)
(0.0215844 10.003 0)
(0.0194062 9.94152 0)
(0.0153648 9.77951 0)
(0.00798046 9.41984 0)
(0.00424051 8.70238 0)
(0.0245088 10.0071 0)
(0.021866 10.0147 0)
(0.0210023 9.98478 0)
(0.0182525 9.90244 0)
(0.0138547 9.70811 0)
(0.00692517 9.32158 0)
(0.00354492 8.61019 0)
(0.023097 10.0075 0)
(0.0217424 10.0205 0)
(0.0218695 10.0069 0)
(0.0201987 9.96497 0)
(0.0169616 9.86193 0)
(0.012442 9.64084 0)
(0.00596861 9.23643 0)
(0.00295868 8.53617 0)
(0.021409 10.0074 0)
(0.021191 10.0233 0)
(0.0221527 10.0184 0)
(0.0212882 9.99809 0)
(0.0190534 9.94371 0)
(0.015608 9.82229 0)
(0.0110792 9.57966 0)
(0.00507703 9.16416 0)
(0.00241884 8.47763 0)
(0.0195159 10.007 0)
(0.0203304 10.0235 0)
(0.02211 10.0241 0)
(0.0217806 10.0162 0)
(0.0202166 9.98814 0)
(0.0177203 9.92275 0)
(0.014143 9.78537 0)
(0.00968578 9.52575 0)
(0.00419883 9.10454 0)
(0.00188728 8.4331 0)
(0.0175006 10.0063 0)
(0.0192742 10.0223 0)
(0.0216666 10.0271 0)
(0.0218028 10.0261 0)
(0.0207474 10.0131 0)
(0.0188617 9.97855 0)
(0.0161745 9.90359 0)
(0.0125193 9.75241 0)
(0.00820379 9.4801 0)
(0.00328858 9.0574 0)
(0.00133493 8.40161 0)
(0.0153991 10.0056 0)
(0.0179649 10.0206 0)
(0.020934 10.0281 0)
(0.0214567 10.0315 0)
(0.0207805 10.0273 0)
(0.0193195 10.0103 0)
(0.0171882 9.97058 0)
(0.0143583 9.8872 0)
(0.0106813 9.72459 0)
(0.00658252 9.44349 0)
(0.0023047 9.02268 0)
(0.00073918 8.38287 0)
(0.013262 10.0048 0)
(0.0164817 10.0185 0)
(0.0198593 10.0274 0)
(0.0207818 10.034 0)
(0.0204 10.0354 0)
(0.0192412 10.0288 0)
(0.0174623 10.0092 0)
(0.0151328 9.96504 0)
(0.0121996 9.8746 0)
(0.00856741 9.70297 0)
(0.00477082 9.41667 0)
(0.00121292 9.00042 0)
(5.65824e-05 8.37667 0)
(0.0111598 10.0041 0)
(0.0148852 10.0162 0)
(0.0185082 10.0258 0)
(0.0197962 10.0345 0)
(0.0196655 10.0396 0)
(0.0187147 10.0396 0)
(0.0171496 10.0319 0)
(0.0151056 10.0103 0)
(0.0126085 9.96283 0)
(0.00961866 9.86678 0)
(0.00611325 9.68862 0)
(0.00272163 9.40029 0)
(-1.49871e-05 8.9908 0)
(-0.000614079 8.38297 0)
(0.00927043 10.0034 0)
(0.0131864 10.014 0)
(0.0169195 10.0235 0)
(0.018501 10.0334 0)
(0.0185927 10.0412 0)
(0.0177891 10.0456 0)
(0.0163404 10.0453 0)
(0.0144271 10.0371 0)
(0.0121441 10.0146 0)
(0.00951448 9.96484 0)
(0.00653187 9.86474 0)
(0.00325846 9.68251 0)
(0.000397517 9.39499 0)
(-0.00137831 8.99413 0)
(-0.00140239 8.40191 0)
(0.007725 10.0029 0)
(0.0116233 10.0119 0)
(0.0151327 10.0209 0)
(0.0169103 10.0313 0)
(0.017182 10.0409 0)
(0.0164834 10.0483 0)
(0.01508 10.053 0)
(0.0131886 10.0531 0)
(0.0109495 10.0453 0)
(0.00845451 10.0228 0)
(0.00574381 9.97197 0)
(0.00285776 9.86947 0)
(-6.12294e-05 9.68558 0)
(-0.00226055 9.40141 0)
(-0.00294116 9.01057 0)
(-0.00229233 8.43377 0)
(0.00641349 10.0024 0)
(0.0102309 10.0102 0)
(0.0133938 10.0184 0)
(0.015054 10.0286 0)
(0.0154377 10.0392 0)
(0.0148014 10.0488 0)
(0.0133862 10.0569 0)
(0.0114327 10.0624 0)
(0.00911426 10.0638 0)
(0.00656939 10.0573 0)
(0.00390473 10.0358 0)
(0.00119109 9.98514 0)
(-0.00147974 9.88197 0)
(-0.0038826 9.69871 0)
(-0.00526707 9.42008 0)
(-0.0046961 9.04038 0)
(-0.00328028 8.47861 0)
(0.0053091 10.002 0)
(0.0089745 10.0087 0)
(0.0118151 10.0162 0)
(0.0131767 10.0257 0)
(0.0133767 10.0364 0)
(0.0127438 10.0475 0)
(0.0112622 10.058 0)
(0.00917364 10.0674 0)
(0.00667658 10.0747 0)
(0.0039428 10.0781 0)
(0.00112687 10.0739 0)
(-0.00163803 10.0545 0)
(-0.00424628 10.0053 0)
(-0.00655483 9.90315 0)
(-0.00826278 9.72269 0)
(-0.00864968 9.45142 0)
(-0.00664813 9.08363 0)
(-0.00436115 8.53648 0)
(0.00438513 10.0016 0)
(0.00784221 10.0074 0)
(0.0103573 10.0143 0)
(0.0114381 10.023 0)
(0.0112613 10.0333 0)
(0.0103199 10.0448 0)
(0.00870822 10.0571 0)
(0.00641187 10.0691 0)
(0.00364515 10.0805 0)
(0.000605816 10.0904 0)
(-0.0025164 10.0969 0)
(-0.00554068 10.096 0)
(-0.00830239 10.0797 0)
(-0.0106608 10.0332 0)
(-0.0124246 9.93388 0)
(-0.0132315 9.75813 0)
(-0.0124253 9.49573 0)
(-0.00880235 9.14044 0)
(-0.00553342 8.60725 0)
(0.00361111 10.0013 0)
(0.00682241 10.0062 0)
(0.00901465 10.0126 0)
(0.00980571 10.0206 0)
(0.0092876 10.0303 0)
(0.00782775 10.0415 0)
(0.00573225 10.0545 0)
(0.00314709 10.0685 0)
(1.61346e-05 10.0828 0)
(-0.00344086 10.0971 0)
(-0.00700503 10.1104 0)
(-0.010459 10.1209 0)
(-0.0135908 10.1242 0)
(-0.0162057 10.1122 0)
(-0.0181276 10.0699 0)
(-0.019127 9.97486 0)
(-0.0188022 9.80555 0)
(-0.0165929 9.55317 0)
(-0.011147 9.21059 0)
(-0.00678426 8.69057 0)
(0.00297844 10.001 0)
(0.00591092 10.0052 0)
(0.00778309 10.011 0)
(0.00828667 10.0184 0)
(0.00742702 10.0274 0)
(0.00550074 10.0381 0)
(0.00269044 10.0509 0)
(-0.000610635 10.0658 0)
(-0.00421195 10.0823 0)
(-0.00820716 10.0997 0)
(-0.0123493 10.1178 0)
(-0.0163886 10.1355 0)
(-0.0200752 10.1509 0)
(-0.0231679 10.1595 0)
(-0.0254438 10.1529 0)
(-0.026699 10.1159 0)
(-0.0266803 10.0267 0)
(-0.0249704 9.86521 0)
(-0.021139 9.62368 0)
(-0.013674 9.29388 0)
(-0.00810678 8.78604 0)
(0.00247778 10.0008 0)
(0.0050881 10.0044 0)
(0.00666006 10.0096 0)
(0.00688473 10.0164 0)
(0.00569663 10.0247 0)
(0.0033103 10.0347 0)
(-0.000139446 10.047 0)
(-0.00441905 10.0618 0)
(-0.00902497 10.0794 0)
(-0.0136965 10.0992 0)
(-0.0185677 10.1206 0)
(-0.0233547 10.1433 0)
(-0.0277716 10.1664 0)
(-0.0315391 10.1877 0)
(-0.0343906 10.2026 0)
(-0.0360841 10.2024 0)
(-0.0363992 10.1719 0)
(-0.0350786 10.0898 0)
(-0.0317138 9.93725 0)
(-0.0260349 9.70708 0)
(-0.0163522 9.38969 0)
(-0.0094776 8.8928 0)
(0.00209317 10.0007 0)
(0.00438452 10.0037 0)
(0.00563835 10.0084 0)
(0.00560145 10.0145 0)
(0.00410602 10.0221 0)
(0.00128297 10.0314 0)
(-0.00279098 10.043 0)
(-0.00794184 10.0573 0)
(-0.0138626 10.0748 0)
(-0.0198897 10.0958 0)
(-0.025667 10.1198 0)
(-0.0313873 10.1462 0)
(-0.0367253 10.1745 0)
(-0.0413627 10.2039 0)
(-0.0449958 10.232 0)
(-0.0473443 10.2541 0)
(-0.0481593 10.2613 0)
(-0.0472209 10.2383 0)
(-0.0442895 10.1643 0)
(-0.0389881 10.0215 0)
(-0.0312371 9.8029 0)
(-0.0191614 9.49745 0)
(-0.0108779 9.01017 0)
(0.00179671 10.0006 0)
(0.00381366 10.0032 0)
(0.00475653 10.0074 0)
(0.0044371 10.0129 0)
(0.00266111 10.0198 0)
(-0.000564965 10.0283 0)
(-0.00522804 10.039 0)
(-0.0112232 10.0525 0)
(-0.0183111 10.0695 0)
(-0.0260708 10.0905 0)
(-0.0336215 10.1158 0)
(-0.0404985 10.1449 0)
(-0.0469822 10.1772 0)
(-0.0527094 10.2121 0)
(-0.0573368 10.2487 0)
(-0.0605517 10.2845 0)
(-0.0620728 10.3147 0)
(-0.0616629 10.33 0)
(-0.0591213 10.3153 0)
(-0.0542517 10.2503 0)
(-0.0467281 10.1177 0)
(-0.0366919 9.91051 0)
(-0.0220362 9.61614 0)
(-0.0122426 9.13653 0)
(0.001564 10.0005 0)
(0.00334886 10.0028 0)
(0.00403417 10.0065 0)
(0.00343725 10.0114 0)
(0.00136596 10.0175 0)
(-0.00222263 10.0253 0)
(-0.0074267 10.0351 0)
(-0.0142169 10.0477 0)
(-0.022431 10.0638 0)
(-0.0317256 10.0841 0)
(-0.0415173 10.1094 0)
(-0.0506557 10.14 0)
(-0.0585617 10.1753 0)
(-0.0656458 10.2144 0)
(-0.0715171 10.2568 0)
(-0.0758254 10.3015 0)
(-0.0782637 10.3458 0)
(-0.0785715 10.3847 0)
(-0.0765435 10.4088 0)
(-0.0720228 10.403 0)
(-0.064876 10.3474 0)
(-0.054849 10.2252 0)
(-0.0422833 10.029 0)
(-0.0248615 9.74446 0)
(-0.013274 9.27004 0)
(0.00137881 10.0005 0)
(0.00296787 10.0025 0)
(0.00344395 10.0059 0)
(0.00262523 10.0102 0)
(0.000272226 10.0156 0)
(-0.00368241 10.0224 0)
(-0.00937018 10.0313 0)
(-0.0168899 10.0428 0)
(-0.0261642 10.0578 0)
(-0.0369373 10.0772 0)
(-0.0487123 10.1017 0)
(-0.0606985 10.1322 0)
(-0.0714251 10.1691 0)
(-0.080203 10.2115 0)
(-0.0876298 10.2584 0)
(-0.0933092 10.3093 0)
(-0.0969016 10.3628 0)
(-0.098131 10.4162 0)
(-0.0967823 10.4643 0)
(-0.0927087 10.4977 0)
(-0.0858099 10.5013 0)
(-0.0760445 10.4552 0)
(-0.0632043 10.3433 0)
(-0.0479636 10.1573 0)
(-0.0278267 9.88191 0)
(-0.0156025 9.41071 0)
(0.00122959 10.0004 0)
(0.00265324 10.0022 0)
(0.00296007 10.0053 0)
(0.00197081 10.0092 0)
(-0.000597717 10.0139 0)
(-0.0048854 10.0198 0)
(-0.0110465 10.0276 0)
(-0.0192183 10.038 0)
(-0.0294674 10.0517 0)
(-0.0416338 10.0697 0)
(-0.0553188 10.0931 0)
(-0.0698246 10.1228 0)
(-0.0841109 10.1595 0)
(-0.0963375 10.2037 0)
(-0.105723 10.2543 0)
(-0.11313 10.31 0)
(-0.118179 10.37 0)
(-0.120573 10.433 0)
(-0.120094 10.496 0)
(-0.116598 10.5538 0)
(-0.110015 10.5967 0)
(-0.10033 10.6096 0)
(-0.0875724 10.5732 0)
(-0.0716509 10.4709 0)
(-0.0529733 10.2944 0)
(-0.0246773 10.0221 0)
(-0.0115212 9.49619 0)
(0.00110791 10.0004 0)
(0.00239193 10.002 0)
(0.00256267 10.0049 0)
(0.00144204 10.0083 0)
(-0.00128147 10.0125 0)
(-0.00581288 10.0176 0)
(-0.0123877 10.0242 0)
(-0.0211846 10.0332 0)
(-0.0323076 10.0455 0)
(-0.0457589 10.0621 0)
(-0.061248 10.0839 0)
(-0.0781835 10.1123 0)
(-0.0956197 10.1481 0)
(-0.112225 10.192 0)
(-0.125749 10.2446 0)
(-0.135359 10.3044 0)
(-0.14227 10.3696 0)
(-0.14615 10.4395 0)
(-0.146775 10.5125 0)
(-0.14402 10.5854 0)
(-0.137843 10.6528 0)
(-0.128274 10.7052 0)
(-0.11536 10.7274 0)
(-0.0992723 10.7002 0)
(-0.0796765 10.6071 0)
(-0.0569725 10.4374 0)
(-0.0201749 10.1938 0)
(-0.00295078 9.562 0)
(0.00100754 10.0003 0)
(0.00217407 10.0018 0)
(0.00223057 10.0045 0)
(0.00101446 10.0076 0)
(-0.00181719 10.0112 0)
(-0.00651436 10.0156 0)
(-0.0133816 10.0212 0)
(-0.0227089 10.0287 0)
(-0.03466 10.0394 0)
(-0.0492685 10.0543 0)
(-0.0664279 10.0743 0)
(-0.0856656 10.1009 0)
(-0.106147 10.1352 0)
(-0.126629 10.1781 0)
(-0.145461 10.2304 0)
(-0.159956 10.2925 0)
(-0.169276 10.3623 0)
(-0.175082 10.4378 0)
(-0.177144 10.5181 0)
(-0.175355 10.6013 0)
(-0.169713 10.6842 0)
(-0.160297 10.7613 0)
(-0.147225 10.8229 0)
(-0.130657 10.854 0)
(-0.110603 10.8354 0)
(-0.0864684 10.7506 0)
(-0.0601808 10.5944 0)
(-0.0215887 10.3671 0)
(0.002355 9.61938 0)
(0.000923933 10.0003 0)
(0.00199183 10.0017 0)
(0.00195487 10.0041 0)
(0.000670778 10.007 0)
(-0.00223563 10.0102 0)
(-0.0070383 10.0139 0)
(-0.0140946 10.0186 0)
(-0.0237882 10.0248 0)
(-0.0364288 10.0336 0)
(-0.0521285 10.0464 0)
(-0.0708004 10.0644 0)
(-0.0921796 10.0889 0)
(-0.115558 10.1211 0)
(-0.139801 10.1623 0)
(-0.163338 10.2136 0)
(-0.184176 10.2752 0)
(-0.199157 10.3478 0)
(-0.207514 10.4285 0)
(-0.211492 10.5149 0)
(-0.211006 10.6059 0)
(-0.206098 10.6994 0)
(-0.196919 10.7922 0)
(-0.183667 10.8787 0)
(-0.166582 10.9491 0)
(-0.145729 10.9885 0)
(-0.120952 10.9781 0)
(-0.0920556 10.9023 0)
(-0.0622364 10.7642 0)
(-0.0244099 10.537 0)
(0.00320335 9.67632 0)
(0.000853715 10.0003 0)
(0.00183863 10.0016 0)
(0.00172625 10.0038 0)
(0.000390447 10.0064 0)
(-0.00256119 10.0093 0)
(-0.00742378 10.0125 0)
(-0.0145898 10.0163 0)
(-0.0245122 10.0213 0)
(-0.0376233 10.0284 0)
(-0.0542218 10.0389 0)
(-0.0743193 10.0544 0)
(-0.09765 10.0764 0)
(-0.123737 10.1061 0)
(-0.151577 10.145 0)
(-0.179697 10.1944 0)
(-0.206161 10.255 0)
(-0.228612 10.3272 0)
(-0.243434 10.411 0)
(-0.250022 10.5034 0)
(-0.251342 10.6011 0)
(-0.247496 10.7029 0)
(-0.238717 10.8067 0)
(-0.22531 10.9091 0)
(-0.20762 11.0044 0)
(-0.185881 11.083 0)
(-0.160062 11.1303 0)
(-0.130685 11.1281 0)
(-0.0974874 11.0623 0)
(-0.0640379 10.9412 0)
(-0.0270767 10.7025 0)
(0.002719 9.74977 0)
(0.000794337 10.0003 0)
(0.00170909 10.0015 0)
(0.00153661 10.0036 0)
(0.000160654 10.006 0)
(-0.00281437 10.0085 0)
(-0.00770209 10.0112 0)
(-0.0149179 10.0143 0)
(-0.0249639 10.0182 0)
(-0.0383635 10.0238 0)
(-0.0555726 10.0321 0)
(-0.0768397 10.0447 0)
(-0.102015 10.0637 0)
(-0.130588 10.0905 0)
(-0.16181 10.1266 0)
(-0.194336 10.1733 0)
(-0.22631 10.2319 0)
(-0.255396 10.3031 0)
(-0.2789 10.3867 0)
(-0.292755 10.4827 0)
(-0.296638 10.5872 0)
(-0.294369 10.6964 0)
(-0.28629 10.8089 0)
(-0.272842 10.9227 0)
(-0.25451 11.0341 0)
(-0.23171 11.1377 0)
(-0.204663 11.224 0)
(-0.173837 11.279 0)
(-0.140432 11.2845 0)
(-0.103633 11.2293 0)
(-0.0667021 11.1205 0)
(-0.0299281 10.8826 0)
(0.00158627 9.83448 0)
(0.000743806 10.0002 0)
(0.00159897 10.0014 0)
(0.00137713 10.0034 0)
(-2.84561e-05 10.0056 0)
(-0.00301081 10.0078 0)
(-0.00789802 10.0101 0)
(-0.0151192 10.0125 0)
(-0.0252097 10.0155 0)
(-0.0387587 10.0197 0)
(-0.0563404 10.0261 0)
(-0.0784032 10.0359 0)
(-0.105093 10.0513 0)
(-0.136028 10.0745 0)
(-0.170377 10.1072 0)
(-0.207075 10.1508 0)
(-0.244376 10.2065 0)
(-0.28 10.2756 0)
(-0.311226 10.3583 0)
(-0.335043 10.4543 0)
(-0.346963 10.5631 0)
(-0.347077 10.68 0)
(-0.34021 10.8007 0)
(-0.326979 10.9238 0)
(-0.308057 11.0469 0)
(-0.284074 11.1668 0)
(-0.255515 11.278 0)
(-0.223007 11.3716 0)
(-0.1875 11.4336 0)
(-0.150362 11.4461 0)
(-0.110506 11.4005 0)
(-0.0705978 11.3204 0)
(-0.0328705 11.0775 0)
(-0.000174982 9.92844 0)
(0.000700511 10.0002 0)
(0.00150489 10.0013 0)
(0.00124258 10.0032 0)
(-0.000183141 10.0052 0)
(-0.00316284 10.0072 0)
(-0.00803104 10.0091 0)
(-0.0152254 10.011 0)
(-0.0253024 10.0132 0)
(-0.0388966 10.0161 0)
(-0.0566684 10.0207 0)
(-0.0792186 10.0281 0)
(-0.106945 10.0401 0)
(-0.139827 10.0589 0)
(-0.177171 10.0873 0)
(-0.217756 10.127 0)
(-0.260139 10.1792 0)
(-0.302126 10.2452 0)
(-0.341009 10.3259 0)
(-0.373699 10.4212 0)
(-0.396902 10.5303 0)
(-0.405765 10.6524 0)
(-0.400949 10.7818 0)
(-0.388421 10.9139 0)
(-0.369106 11.0469 0)
(-0.343903 11.1789 0)
(-0.313593 11.3066 0)
(-0.279005 11.4248 0)
(-0.241223 11.5248 0)
(-0.201264 11.5928 0)
(-0.16041 11.611 0)
(-0.118309 11.5942 0)
(-0.075348 11.5397 0)
(-0.036043 11.2681 0)
(-0.00211299 10.0292 0)
(0.00066346 10.0002 0)
(0.00142395 10.0013 0)
(0.00112873 10.0031 0)
(-0.000310354 10.0049 0)
(-0.00327995 10.0067 0)
(-0.00811641 10.0083 0)
(-0.0152614 10.0097 0)
(-0.0252831 10.0111 0)
(-0.038846 10.013 0)
(-0.0566713 10.016 0)
(-0.0794724 10.0211 0)
(-0.10784 10.03 0)
(-0.142069 10.0447 0)
(-0.1819 10.0678 0)
(-0.22624 10.1024 0)
(-0.273398 10.1503 0)
(-0.321501 10.2124 0)
(-0.367894 10.29 0)
(-0.40944 10.3834 0)
(-0.442703 10.4922 0)
(-0.464185 10.615 0)
(-0.468744 10.7506 0)
(-0.457768 10.8925 0)
(-0.438496 11.0354 0)
(-0.412178 11.1779 0)
(-0.379953 11.318 0)
(-0.342926 11.4527 0)
(-0.302323 11.577 0)
(-0.259414 11.6824 0)
(-0.215106 11.7546 0)
(-0.171467 11.7975 0)
(-0.126721 11.8089 0)
(-0.0804913 11.7549 0)
(-0.0391377 11.4533 0)
(-0.00396595 10.1347 0)
(0.00135373 10.0012 0)
(0.000619526 10.0002 0)
(0.0010314 10.0029 0)
(-0.000415133 10.0046 0)
(-0.00336957 10.0062 0)
(-0.00816601 10.0075 0)
(-0.0152463 10.0085 0)
(-0.025184 10.0093 0)
(-0.038661 10.0102 0)
(-0.0564395 10.0118 0)
(-0.0793136 10.015 0)
(-0.10802 10.021 0)
(-0.143095 10.0318 0)
(-0.184664 10.0499 0)
(-0.232155 10.0782 0)
(-0.283974 10.1202 0)
(-0.337878 10.1777 0)
(-0.391547 10.2511 0)
(-0.441845 10.3413 0)
(-0.485222 10.4485 0)
(-0.517966 10.5716 0)
(-0.536466 10.7086 0)
(-0.535379 10.8577 0)
(-0.516976 11.0117 0)
(-0.489897 11.1649 0)
(-0.455731 11.316 0)
(-0.415959 11.4634 0)
(-0.372064 11.6042 0)
(-0.325467 11.7336 0)
(-0.277464 11.8427 0)
(-0.23034 11.9372 0)
(-0.18329 12.0048 0)
(-0.1349 12.0214 0)
(-0.0856102 11.9643 0)
(-0.0420295 11.6327 0)
(-0.00573474 10.243 0)
(0.000946171 10.0028 0)
(0.00127329 10.0012 0)
(0.00056724 10.0002 0)
(-0.000502173 10.0044 0)
(-0.00343732 10.0058 0)
(-0.00818884 10.0069 0)
(-0.0151952 10.0075 0)
(-0.0250297 10.0077 0)
(-0.0383832 10.0077 0)
(-0.0560433 10.0081 0)
(-0.0788599 10.0095 0)
(-0.107675 10.013 0)
(-0.143211 10.0204 0)
(-0.185895 10.0337 0)
(-0.235618 10.056 0)
(-0.291394 10.0906 0)
(-0.351025 10.1413 0)
(-0.411661 10.2097 0)
(-0.470512 10.2957 0)
(-0.523966 10.3998 0)
(-0.568119 10.5217 0)
(-0.599067 10.6596 0)
(-0.613195 10.8109 0)
(-0.605058 10.9733 0)
(-0.577975 11.1389 0)
(-0.542094 11.3017 0)
(-0.499405 11.4606 0)
(-0.451768 11.6142 0)
(-0.400903 11.76 0)
(-0.34827 11.8928 0)
(-0.29715 12.0233 0)
(-0.246506 12.1399 0)
(-0.194609 12.2106 0)
(-0.142616 12.2292 0)
(-0.0904753 12.1666 0)
(-0.0446351 11.8058 0)
(-0.00735201 10.3522 0)
(-0.000579577 10.0042 0)
(0.000857459 10.0027 0)
(0.00117561 10.0011 0)
(0.000517508 10.0002 1.8363e-19)
(-0.00348846 10.0055 0)
(-0.00819143 10.0063 0)
(-0.0151191 10.0066 0)
(-0.0248392 10.0063 0)
(-0.0380446 10.0056 0)
(-0.0555372 10.0048 0)
(-0.0782026 10.0046 0)
(-0.106958 10.0059 0)
(-0.142663 10.0102 0)
(-0.185977 10.0193 0)
(-0.237162 10.0359 0)
(-0.295782 10.0633 0)
(-0.360339 10.1054 0)
(-0.427943 10.1662 0)
(-0.495064 10.2469 0)
(-0.558455 10.3468 0)
(-0.61407 10.466 0)
(-0.657728 10.6033 0)
(-0.68544 10.7564 0)
(-0.693716 10.9219 0)
(-0.677113 11.0973 0)
(-0.640158 11.2737 0)
(-0.59462 11.4451 0)
(-0.542909 11.6107 0)
(-0.487165 11.7695 0)
(-0.429216 11.9186 0)
(-0.373058 12.0724 0)
(-0.317959 12.2237 0)
(-0.261752 12.3412 0)
(-0.205212 12.4125 0)
(-0.14972 12.4307 0)
(-0.0949737 12.3612 0)
(-0.0469284 11.9724 0)
(-0.0087897 10.4606 0)
(-0.00353608 10.0052 0)
(-0.000642159 10.004 0)
(0.000758222 10.0025 8.20199e-19)
(0.00108211 10.001 -5.81856e-19)
(0.000470182 10.0002 -3.66236e-19)
(-0.00817956 10.0058 0)
(-0.0150257 10.0058 0)
(-0.0246265 10.005 0)
(-0.0376697 10.0037 0)
(-0.0549625 10.0019 0)
(-0.0774123 10.0003 0)
(-0.105986 9.99964 0)
(-0.141643 10.0011 0)
(-0.185218 10.0063 0)
(-0.237263 10.0178 0)
(-0.297788 10.0385 0)
(-0.365944 10.0722 0)
(-0.439628 10.1231 0)
(-0.515135 10.1955 0)
(-0.588231 10.29 0)
(-0.655254 10.4051 0)
(-0.711792 10.5402 0)
(-0.753487 10.6935 0)
(-0.776398 10.8619 0)
(-0.777292 11.0414 0)
(-0.750843 11.229 0)
(-0.70294 11.4153 0)
(-0.64705 11.5942 0)
(-0.585919 11.7654 0)
(-0.521857 11.9277 0)
(-0.459916 12.0976 0)
(-0.399242 12.2718 0)
(-0.33748 12.4227 0)
(-0.275888 12.5388 0)
(-0.214939 12.609 0)
(-0.156145 12.625 0)
(-0.0990455 12.5475 0)
(-0.0489182 12.1318 0)
(-0.0100423 10.567 0)
(-0.00817372 10.0054 0)
(-0.00353601 10.0048 -1.75279e-18)
(-0.000692798 10.0037 -8.65174e-19)
(0.000664745 10.0023 4.09202e-19)
(0.000992496 10.0009 -3.86735e-19)
(0.000425326 10.0001 0)
(-0.0149213 10.0051 0)
(-0.0244007 10.0039 0)
(-0.0372761 10.002 0)
(-0.0543507 9.9994 0)
(-0.0765425 9.99655 0)
(-0.104851 9.99407 0)
(-0.140303 9.99299 0)
(-0.183864 9.99481 0)
(-0.236307 10.0016 0)
(-0.297996 10.0162 0)
(-0.368616 10.042 0)
(-0.446815 10.0831 0)
(-0.529758 10.1444 0)
(-0.61284 10.2298 0)
(-0.691124 10.3395 0)
(-0.760604 10.4709 0)
(-0.816595 10.6227 0)
(-0.854693 10.7924 0)
(-0.871148 10.9759 0)
(-0.863131 11.1689 0)
(-0.825543 11.3678 0)
(-0.765759 11.5629 0)
(-0.698944 11.7481 0)
(-0.62807 11.9232 0)
(-0.559428 12.1064 0)
(-0.492314 12.2967 0)
(-0.423755 12.4698 0)
(-0.355531 12.6181 0)
(-0.288763 12.7312 0)
(-0.223721 12.7989 0)
(-0.161866 12.8114 0)
(-0.102665 12.7253 0)
(-0.0506256 12.2838 0)
(-0.0111168 10.6703 0)
(-0.0148369 10.0044 0)
(-0.00807102 10.0048 3.69654e-18)
(-0.00347628 10.0044 0)
(-0.000739201 10.0034 8.62952e-19)
(0.000577742 10.0021 1.37677e-22)
(0.000906701 10.0009 0)
(0.000382964 10.0001 0)
(-0.0241683 10.003 0)
(-0.0368749 10.0005 0)
(-0.0537246 9.99715 0)
(-0.075634 9.99319 0)
(-0.103621 9.98914 0)
(-0.138759 9.98584 0)
(-0.182105 9.98457 0)
(-0.234599 9.98718 0)
(-0.296882 9.99614 0)
(-0.369066 10.0147 0)
(-0.450426 10.0467 0)
(-0.538981 10.0967 0)
(-0.631069 10.1698 0)
(-0.72112 10.2699 0)
(-0.803512 10.396 0)
(-0.874011 10.5448 0)
(-0.927783 10.7139 0)
(-0.960525 10.8999 0)
(-0.968831 11.0983 0)
(-0.950414 11.3039 0)
(-0.900503 11.513 0)
(-0.828052 11.7157 0)
(-0.749841 11.9055 0)
(-0.673721 12.1019 0)
(-0.599093 12.3055 0)
(-0.522609 12.4945 0)
(-0.446391 12.6645 0)
(-0.371967 12.8085 0)
(-0.300334 12.9174 0)
(-0.231538 12.9814 0)
(-0.166889 12.9893 0)
(-0.105835 12.8941 0)
(-0.0520758 12.4281 0)
(-0.0120266 10.7699 0)
(-0.0239756 10.0021 0)
(-0.0145844 10.0037 4.92074e-22)
(-0.00783022 10.0042 0)
(-0.00341614 10.0039 -9.09913e-19)
(-0.000775806 10.0031 8.51788e-23)
(0.000497088 10.002 0)
(0.000824846 10.0008 0)
(0.0003431 10.0001 0)
(-0.0364729 9.99918 0)
(-0.0530976 9.99517 0)
(-0.0747159 9.99023 0)
(-0.102349 9.98477 0)
(-0.137099 9.97949 0)
(-0.180089 9.97548 0)
(-0.232379 9.97433 0)
(-0.294822 9.97824 0)
(-0.367869 9.99012 0)
(-0.451308 10.0136 0)
(-0.543881 10.0531 0)
(-0.642882 10.1136 0)
(-0.743732 10.2 0)
(-0.839841 10.3162 0)
(-0.92497 10.4602 0)
(-0.994807 10.6271 0)
(-1.04452 10.8138 0)
(-1.07007 11.0161 0)
(-1.06854 11.2286 0)
(-1.03832 11.4458 0)
(-0.975034 11.6639 0)
(-0.88924 11.8723 0)
(-0.805007 12.084 0)
(-0.721948 12.3013 0)
(-0.63619 12.5038 0)
(-0.550575 12.6893 0)
(-0.467011 12.8544 0)
(-0.386744 12.993 0)
(-0.310608 13.0967 0)
(-0.238412 13.156 0)
(-0.171246 13.1585 0)
(-0.108574 13.054 0)
(-0.0532944 12.5647 0)
(-0.0127886 10.8652 0)
(-0.0361371 9.99802 0)
(-0.023515 10.0011 -2.05382e-18)
(-0.0140746 10.0029 0)
(-0.00759672 10.0036 0)
(-0.00334133 10.0035 2.72157e-18)
(-0.000802793 10.0028 0)
(0.000422824 10.0018 0)
(0.000747041 10.0007 7.64768e-19)
(0.000305765 10.0001 0)
(-0.0524765 9.99341 0)
(-0.0738046 9.98761 0)
(-0.101072 9.98091 0)
(-0.135391 9.97388 0)
(-0.177928 9.96742 0)
(-0.229833 9.9629 0)
(-0.292115 9.96227 0)
(-0.36549 9.96814 0)
(-0.450157 9.98386 0)
(-0.545459 10.0135 0)
(-0.649515 10.062 0)
(-0.758796 10.1344 0)
(-0.867727 10.2357 0)
(-0.968671 10.3696 0)
(-1.05489 10.5325 0)
(-1.12217 10.7181 0)
(-1.16586 10.9225 0)
(-1.18235 11.1405 0)
(-1.16936 11.3662 0)
(-1.12604 11.5938 0)
(-1.04844 11.819 0)
(-0.955661 12.0504 0)
(-0.863349 12.2837 0)
(-0.767083 12.5002 0)
(-0.670453 12.6992 0)
(-0.576065 12.8795 0)
(-0.485565 13.0385 0)
(-0.399883 13.1707 0)
(-0.319629 13.2683 0)
(-0.244392 13.3222 0)
(-0.174981 13.3188 0)
(-0.110913 13.2049 0)
(-0.0543081 12.6936 0)
(-0.0134212 10.9559 0)
(-0.0519575 9.99185 0)
(-0.0353963 9.99673 0)
(-0.0226242 10 -2.1374e-18)
(-0.0135855 10.0021 -2.02257e-18)
(-0.00734181 10.003 -3.82539e-18)
(-0.00325177 10.0031 0)
(-0.000820167 10.0025 -1.70822e-18)
(0.000355102 10.0017 -1.61303e-18)
(0.000673302 10.0007 7.61136e-19)
(0.000270912 10.0001 0)
(-0.0729073 9.98528 0)
(-0.0998102 9.97749 0)
(-0.133682 9.9689 0)
(-0.175708 9.96026 0)
(-0.227102 9.95276 0)
(-0.288992 9.94806 0)
(-0.362294 9.94851 0)
(-0.447532 9.95715 0)
(-0.544541 9.97779 0)
(-0.652134 10.015 0)
(-0.767708 10.0739 0)
(-0.886818 10.1599 0)
(-1.00283 10.2779 0)
(-1.10708 10.4307 0)
(-1.19248 10.6133 0)
(-1.25514 10.818 0)
(-1.29076 11.0398 0)
(-1.29633 11.2727 0)
(-1.27035 11.5106 0)
(-1.21276 11.7468 0)
(-1.12839 11.9963 0)
(-1.02607 12.2503 0)
(-0.918011 12.4834 0)
(-0.808799 12.6966 0)
(-0.701716 12.8903 0)
(-0.599033 13.0641 0)
(-0.502082 13.2159 0)
(-0.411445 13.341 0)
(-0.327468 13.432 0)
(-0.249537 13.4798 0)
(-0.178147 13.4702 0)
(-0.112888 13.3471 0)
(-0.0551421 12.815 0)
(-0.0139414 11.0418 0)
(-0.072159 9.98323 0)
(-0.0508482 9.99016 -2.28386e-18)
(-0.0339823 9.99531 2.25137e-18)
(-0.0217762 9.99897 -1.17676e-21)
(-0.0130659 10.0013 2.01571e-18)
(-0.00706539 10.0025 1.90604e-18)
(-0.00314797 10.0027 3.60171e-18)
(-0.000827792 10.0023 2.55102e-18)
(0.000293887 10.0015 -8.0267e-19)
(0.00060367 10.0006 0)
(0.000238526 10.0001 0)
(-0.0985716 9.97445 0)
(-0.131997 9.96449 0)
(-0.173489 9.95392 0)
(-0.224294 9.94375 0)
(-0.285629 9.93542 0)
(-0.358566 9.93101 0)
(-0.443878 9.93325 0)
(-0.541798 9.94564 0)
(-0.651714 9.97248 0)
(-0.771814 10.0187 0)
(-0.898669 10.0898 0)
(-1.02684 10.191 0)
(-1.14861 10.3271 0)
(-1.25435 10.5 0)
(-1.3368 10.703 0)
(-1.39266 10.9268 0)
(-1.41814 11.1654 0)
(-1.41099 11.4124 0)
(-1.37057 11.6607 0)
(-1.30757 11.9225 0)
(-1.21346 12.1961 0)
(-1.09225 12.4509 0)
(-0.968628 12.6811 0)
(-0.846895 12.889 0)
(-0.729919 13.076 0)
(-0.619512 13.2423 0)
(-0.516636 13.3861 0)
(-0.421518 13.5035 0)
(-0.334213 13.5874 0)
(-0.25392 13.6289 0)
(-0.1808 13.6128 0)
(-0.114536 13.4806 0)
(-0.0558205 12.9289 0)
(-0.0143654 11.1229 0)
(-0.097543 9.97177 0)
(-0.0705751 9.98103 -3.46675e-21)
(-0.0487349 9.98833 0)
(-0.032646 9.99393 -1.89006e-21)
(-0.0208856 9.99795 0)
(-0.0125154 10.0005 -2.00848e-18)
(-0.00676829 10.0019 -3.79648e-18)
(-0.00302975 10.0023 8.9196e-23)
(-0.000825844 10.0021 1.69234e-18)
(0.000238912 10.0014 -7.98387e-19)
(0.000538134 10.0005 7.52889e-19)
(0.000208576 10.0001 0)
(-0.130345 9.96057 0)
(-0.171302 9.94829 0)
(-0.221486 9.93575 0)
(-0.282163 9.92419 0)
(-0.354524 9.91543 0)
(-0.439545 9.9119 0)
(-0.537766 9.91681 0)
(-0.649048 9.93413 0)
(-0.772245 9.96859 0)
(-0.904815 10.0255 0)
(-1.04241 10.1104 0)
(-1.17856 10.2286 0)
(-1.30445 10.3841 0)
(-1.40959 10.5781 0)
(-1.4868 10.8018 0)
(-1.53358 11.0444 0)
(-1.54688 11.299 0)
(-1.5253 11.5585 0)
(-1.48061 11.8339 0)
(-1.40885 12.1217 0)
(-1.29369 12.3976 0)
(-1.15372 12.6502 0)
(-1.01498 12.8752 0)
(-0.881315 13.0762 0)
(-0.755096 13.2553 0)
(-0.637593 13.4133 0)
(-0.52934 13.5487 0)
(-0.430215 13.6579 0)
(-0.339963 13.7345 0)
(-0.257617 13.7695 0)
(-0.182999 13.7469 0)
(-0.115894 13.6059 0)
(-0.0563649 13.0357 0)
(-0.0147076 11.1992 0)
(-0.12898 9.9571 0)
(-0.095357 9.96894 2.533e-18)
(-0.0675453 9.9787 -2.50306e-18)
(-0.0467497 9.98658 2.36575e-18)
(-0.0312513 9.99262 0)
(-0.0199513 9.99697 0)
(-0.0119357 9.99982 2.00026e-18)
(-0.00645105 10.0014 -1.88942e-18)
(-0.00289722 10.002 1.19261e-22)
(-0.00081394 10.0018 8.41756e-19)
(0.000190243 10.0013 -7.93899e-19)
(0.000476613 10.0005 -7.47601e-19)
(0.00018119 10.0001 0)
(-0.169158 9.9433 0)
(-0.218716 9.92865 0)
(-0.27869 9.91422 0)
(-0.35034 9.90156 0)
(-0.434801 9.89287 0)
(-0.532866 9.89103 0)
(-0.644774 9.89968 0)
(-0.769931 9.92328 0)
(-0.906553 9.96694 0)
(-1.05127 10.0362 0)
(-1.19875 10.1367 0)
(-1.34145 10.2734 0)
(-1.46955 10.4496 0)
(-1.57178 10.6653 0)
(-1.64132 10.9099 0)
(-1.67675 11.1706 0)
(-1.67586 11.4399 0)
(-1.65142 11.7282 0)
(-1.59873 12.0316 0)
(-1.5048 12.3237 0)
(-1.36849 12.5987 0)
(-1.21019 12.8465 0)
(-1.057 13.0645 0)
(-0.912116 13.2573 0)
(-0.777356 13.4277 0)
(-0.653409 13.5767 0)
(-0.540332 13.7033 0)
(-0.437656 13.8043 0)
(-0.34482 13.8734 0)
(-0.260703 13.9017 0)
(-0.184798 13.8726 0)
(-0.117 13.7232 0)
(-0.0567961 13.1356 0)
(-0.014981 11.2708 0)
(-0.167399 9.93887 0)
(-0.126043 9.9535 0)
(-0.0911471 9.96601 2.63276e-18)
(-0.0647141 9.97648 -4.99331e-18)
(-0.0446858 9.9849 4.72258e-18)
(-0.0297966 9.99136 -4.46446e-18)
(-0.018977 9.99604 0)
(-0.0113279 9.99914 1.99192e-18)
(-0.00611394 10.0009 -1.87999e-18)
(-0.00275172 10.0016 -1.77454e-18)
(-0.000791391 10.0016 0)
(0.000147615 10.0011 7.883e-19)
(0.000419238 10.0004 0)
(0.000156873 10 0)
(-0.215998 9.92235 0)
(-0.275255 9.90535 0)
(-0.346133 9.88923 0)
(-0.429857 9.87592 0)
(-0.527429 9.868 0)
(-0.639399 9.8688 0)
(-0.765625 9.88246 0)
(-0.904959 9.91385 0)
(-1.05488 9.96843 0)
(-1.21111 10.0519 0)
(-1.36729 10.1697 0)
(-1.51483 10.3263 0)
(-1.64294 10.5243 0)
(-1.73978 10.7621 0)
(-1.79916 11.0272 0)
(-1.82095 11.305 0)
(-1.81895 11.605 0)
(-1.78757 11.9235 0)
(-1.71126 12.2336 0)
(-1.59469 12.5265 0)
(-1.43744 12.7977 0)
(-1.26151 13.0386 0)
(-1.0947 13.2482 0)
(-0.939431 13.4317 0)
(-0.796857 13.5926 0)
(-0.667119 13.7322 0)
(-0.549758 13.8499 0)
(-0.443965 13.9425 0)
(-0.348884 14.0042 0)
(-0.263251 14.0259 0)
(-0.186251 13.9904 0)
(-0.117887 13.8329 0)
(-0.0571317 13.2289 0)
(-0.0151955 11.3378 0)
(-0.213787 9.91676 0)
(-0.16354 9.93433 0)
(-0.12034 9.94983 0)
(-0.0872353 9.96322 5.25146e-18)
(-0.0617804 9.97437 -4.96955e-18)
(-0.0425422 9.98331 4.69933e-18)
(-0.0282887 9.99017 0)
(-0.0179643 9.99515 -2.09795e-18)
(-0.0106924 9.99849 0)
(-0.00575777 10.0005 1.86983e-18)
(-0.00259208 10.0013 0)
(-0.000759832 10.0014 0)
(0.000112222 10.001 0)
(0.000367281 10.0004 7.62089e-19)
(0.000135656 10 3.67082e-19)
(-0.271883 9.89747 0)
(-0.341958 9.87827 0)
(-0.424862 9.86082 0)
(-0.521712 9.84745 0)
(-0.633322 9.84118 0)
(-0.759928 9.84581 0)
(-0.900915 9.86593 0)
(-1.05448 9.90679 0)
(-1.21728 9.97409 0)
(-1.38406 10.0735 0)
(-1.54745 10.2103 0)
(-1.69782 10.3881 0)
(-1.82355 10.6085 0)
(-1.9124 10.8686 0)
(-1.95908 11.1533 0)
(-1.98192 11.4638 0)
(-1.97441 11.7966 0)
(-1.91809 12.1246 0)
(-1.8173 12.4377 0)
(-1.678 12.7282 0)
(-1.50036 12.9931 0)
(-1.3077 13.2254 0)
(-1.12823 13.4253 0)
(-0.963448 13.5987 0)
(-0.813807 13.7497 0)
(-0.678903 13.8798 0)
(-0.557775 13.9885 0)
(-0.449266 14.0728 0)
(-0.35225 14.1271 0)
(-0.265332 14.1423 0)
(-0.187407 14.1005 0)
(-0.118585 13.9352 0)
(-0.0573873 13.3159 0)
(-0.0153596 11.4005 0)
(-0.269164 9.89048 0)
(-0.208812 9.91106 0)
(-0.155981 9.92976 5.85783e-18)
(-0.11507 9.94635 5.54626e-18)
(-0.08319 9.96057 5.24633e-18)
(-0.0587434 9.97237 -4.95954e-18)
(-0.0403293 9.98181 0)
(-0.0267296 9.98906 0)
(-0.0169143 9.99433 0)
(-0.0100307 9.99789 3.94234e-18)
(-0.00538463 10 1.85928e-18)
(-0.00241872 10.001 1.75153e-18)
(-0.000719273 10.0012 0)
(8.33265e-05 10.0009 -8.03504e-19)
(0.000320576 10.0004 -3.87719e-19)
(0.000117064 10 0)
(-0.337852 9.86852 0)
(-0.419882 9.84739 0)
(-0.515897 9.82914 0)
(-0.626855 9.8165 0)
(-0.753319 9.81296 0)
(-0.895128 9.82279 0)
(-1.05109 9.85099 0)
(-1.21867 9.90313 0)
(-1.39361 9.98502 0)
(-1.56968 10.1022 0)
(-1.73847 10.2594 0)
(-1.88942 10.4595 0)
(-2.01024 10.7029 0)
(-2.08841 10.9847 0)
(-2.1388 11.3041 0)
(-2.15807 11.6502 0)
(-2.12457 11.9959 0)
(-2.04197 12.3295 0)
(-1.91623 12.6421 0)
(-1.7545 12.9275 0)
(-1.55725 13.184 0)
(-1.3489 13.406 0)
(-1.15779 13.5953 0)
(-0.984392 13.7581 0)
(-0.828429 13.8989 0)
(-0.68895 14.0193 0)
(-0.564533 14.1191 0)
(-0.45368 14.1952 0)
(-0.355009 14.2423 0)
(-0.267009 14.2511 0)
(-0.188309 14.2034 0)
(-0.119124 14.0308 0)
(-0.0575738 13.3971 0)
(-0.0154844 11.459 0)
(-0.334579 9.85987 0)
(-0.262853 9.8834 0)
(-0.198974 9.90542 -1.23241e-17)
(-0.149024 9.92544 1.78199e-20)
(-0.109625 9.94306 -1.10451e-17)