/*--------------------------------*- C++ -*----------------------------------*\
  =========                 |
  \\      /  F ield         | OpenFOAM: The Open Source CFD Toolbox
   \\    /   O peration     | Website:  https://openfoam.org
    \\  /    A nd           | Version:  8
     \\/     M anipulation  |
\*---------------------------------------------------------------------------*/
FoamFile
{
    version     2.0;
    format      ascii;
    class       volScalarField;
    location    "0.47";
    object      nut;
}
// * * * * * * * * * * * * * * * * * * * * * * * * * * * * * * * * * * * * * //

dimensions      [0 2 -1 0 0 0 0];

internalField   nonuniform List<scalar> 
15677
(
0.000168248
0.000653032
0.000148413
0.00151381
0.000442474
0.00014151
0.00267562
0.000875855
0.000381149
0.000142384
0.00392143
0.00151898
0.000686638
0.000354244
0.000145475
0.0050244
0.0023562
0.00114639
0.000585585
0.000340244
0.000151236
0.00584088
0.00331745
0.00178073
0.000947639
0.000529219
0.000332003
0.000157032
0.00633518
0.00429875
0.00256756
0.0014631
0.000820717
0.000492388
0.00032697
0.000162479
0.00656295
0.00518778
0.00345281
0.0021313
0.00125685
0.000736983
0.000467333
0.000324097
0.00016725
0.00665852
0.00589355
0.00435529
0.0029218
0.00184097
0.00111179
0.00067707
0.000450322
0.000322519
0.000171469
0.00670554
0.00633834
0.00518086
0.00377866
0.00255625
0.001631
0.001004
0.000633772
0.000438561
0.000321959
0.000175021
0.00671441
0.00655352
0.0058454
0.00462504
0.00336196
0.00228545
0.00147168
0.00092354
0.000601827
0.000430633
0.000321892
0.00017814
0.00670993
0.00666155
0.00629573
0.005377
0.00419619
0.00304406
0.00207642
0.0013479
0.000861478
0.000578218
0.000425162
0.000322365
0.00018074
0.00670628
0.00669876
0.00652965
0.00596441
0.00498356
0.00385605
0.00279403
0.00191012
0.00124994
0.000813329
0.000560466
0.000421683
0.000322988
0.00018306
0.00670539
0.00670439
0.00664685
0.00635686
0.00564963
0.0046547
0.00358147
0.00259152
0.0017759
0.00117162
0.000775492
0.000547307
0.000419325
0.000323893
0.000185081
0.00670542
0.00670288
0.0066879
0.0065629
0.00614184
0.00536754
0.00437947
0.00335462
0.00242539
0.001666
0.00110807
0.00074572
0.000537225
0.000418105
0.000324731
0.00018687
0.00670556
0.00670166
0.00669639
0.00665657
0.00644667
0.00593301
0.00511943
0.00414623
0.00316552
0.00228712
0.00157542
0.00105633
0.000722033
0.000529962
0.000417234
0.000325768
0.000188505
0.00670563
0.00670119
0.00669713
0.00668492
0.0066048
0.00632136
0.00573627
0.00490165
0.00394783
0.00300594
0.00217156
0.00150018
0.00101432
0.00070355
0.000524262
0.000417105
0.000326693
0.000189899
0.00670565
0.00670109
0.00669673
0.00669166
0.00666369
0.00654103
0.00618749
0.0055551
0.00471144
0.00377774
0.00287088
0.00207437
0.00143778
0.000980213
0.000688684
0.000520395
0.000417036
0.000327758
0.000191306
0.00670564
0.00670109
0.00669644
0.00669272
0.00668228
0.00663442
0.00646738
0.00605661
0.00539126
0.00454495
0.00363184
0.0027561
0.00199272
0.00138614
0.000952329
0.000677313
0.00051729
0.000417541
0.000328724
0.000192407
0.00670562
0.00670111
0.00669631
0.00669266
0.00668727
0.00666906
0.00659779
0.00638856
0.00593301
0.00524373
0.0043998
0.00350651
0.00265867
0.00192437
0.00134344
0.000929994
0.000668162
0.000515537
0.000417944
0.000329779
0.000193711
0.00670561
0.00670113
0.00669625
0.00669254
0.00668819
0.00668077
0.00665126
0.00655561
0.00630976
0.00581717
0.00511242
0.00427341
0.00339912
0.00257642
0.0018674
0.00130856
0.000911995
0.000661564
0.00051408
0.00041883
0.000330793
0.000194587
0.0067056
0.00670114
0.00669621
0.00669249
0.00668816
0.00668421
0.00667156
0.00663004
0.00651057
0.00623122
0.00571143
0.00499596
0.00416404
0.00330783
0.00250746
0.00182052
0.00128036
0.000898076
0.000656301
0.000513728
0.000419533
0.000331813
0.000195877
0.0067056
0.00670114
0.00669619
0.00669247
0.00668801
0.00668504
0.00667837
0.00666126
0.00660563
0.0064638
0.00615793
0.00561527
0.00489406
0.00407034
0.00323088
0.00245046
0.00178251
0.00125807
0.000887296
0.000653115
0.00051339
0.000420675
0.000332936
0.000196589
0.0067056
0.00670114
0.00669617
0.00669247
0.0066879
0.00668518
0.00668027
0.00667326
0.00664807
0.00657981
0.00641794
0.00608901
0.00553016
0.00480577
0.00399082
0.00316704
0.00240427
0.0017526
0.00124118
0.000879751
0.000650614
0.000514021
0.000421561
0.000333831
0.000197878
0.0067056
0.00670113
0.00669616
0.00669246
0.00668783
0.00668517
0.00668061
0.00667748
0.00666538
0.00663496
0.00655304
0.0063735
0.006027
0.00545485
0.00473036
0.00392504
0.00311573
0.00236818
0.00173002
0.00122867
0.000874343
0.000649974
0.000514477
0.000422962
0.000335257
0.000198559
0.00670561
0.00670113
0.00669616
0.00669245
0.00668779
0.00668514
0.00668056
0.00667882
0.00667173
0.00665941
0.0066197
0.00652685
0.00633321
0.00597029
0.00539106
0.00466864
0.00387221
0.00307518
0.00234065
0.00171373
0.00122098
0.000872009
0.000649586
0.000515874
0.000423841
0.000335994
5.33185e-05
0.00670561
0.00670112
0.00669616
0.00669243
0.00668777
0.0066851
0.00668045
0.00667916
0.00667373
0.00666951
0.00665012
0.00660627
0.00650274
0.00629567
0.00592427
0.00533807
0.00461742
0.00383019
0.00304606
0.00232332
0.00170542
0.00121745
0.000870983
0.00065096
0.000516919
0.000426205
0.000283397
6.32475e-05
0.00670562
0.00670112
0.00669616
0.00669242
0.00668776
0.00668506
0.00668038
0.00667918
0.0066742
0.00667337
0.00666288
0.0066449
0.00659209
0.00648003
0.0062655
0.0058822
0.00529498
0.00458231
0.00380541
0.00302981
0.00231407
0.00170165
0.00121641
0.000872604
0.00065247
0.000518983
0.000419729
0.000219288
7.05795e-05
0.00670562
0.00670111
0.00669616
0.00669241
0.00668776
0.00668503
0.00668034
0.00667912
0.00667421
0.00667467
0.00666775
0.00666255
0.00663592
0.00658176
0.00646407
0.00623656
0.00585679
0.00527072
0.00455992
0.00378828
0.00301996
0.00231051
0.00170232
0.00121954
0.000875341
0.000654697
0.000520129
0.000399785
0.000177899
7.59729e-05
0.00670563
0.00670111
0.00669616
0.00669239
0.00668776
0.00668499
0.00668032
0.00667905
0.00667415
0.00667498
0.00666937
0.00667005
0.00665597
0.00663467
0.00657248
0.00644725
0.00622775
0.00584025
0.00525203
0.00454507
0.00378002
0.00301819
0.00231396
0.00170873
0.00122546
0.000879571
0.000657739
0.000517911
0.000366986
0.000152475
8.03264e-05
0.00670564
0.0067011
0.00669616
0.00669238
0.00668776
0.00668496
0.0066803
0.00667897
0.00667409
0.00667497
0.00666978
0.00667295
0.00666451
0.00666052
0.00662835
0.00656987
0.00644598
0.00622038
0.00582963
0.00524242
0.00454221
0.00378406
0.0030276
0.00232538
0.0017199
0.00123414
0.000885424
0.000660677
0.000511749
0.000335809
0.000134173
8.36642e-05
0.00670564
0.0067011
0.00669617
0.00669237
0.00668776
0.00668492
0.0066803
0.00667889
0.00667404
0.00667486
0.00666982
0.00667382
0.00666786
0.00667232
0.00665554
0.0066364
0.00657249
0.00644821
0.00621832
0.0058304
0.00524915
0.00455396
0.00380021
0.00304587
0.0023433
0.00173526
0.00124567
0.000892364
0.000663036
0.000500293
0.000305703
0.000121256
8.60189e-05
0.00670565
0.00670109
0.00669617
0.00669236
0.00668776
0.00668489
0.0066803
0.00667883
0.00667401
0.00667473
0.00666978
0.00667395
0.00666899
0.00667723
0.00666802
0.00667045
0.00664178
0.00658053
0.00645603
0.00623022
0.00584711
0.00526936
0.00457829
0.00382698
0.00307263
0.00236749
0.00175456
0.00125944
0.000900333
0.000664094
0.000484833
0.000279654
0.000112792
8.77504e-05
0.00670565
0.00670109
0.00669617
0.00669235
0.00668777
0.00668487
0.00668031
0.00667876
0.006674
0.0066746
0.00666972
0.00667384
0.00666931
0.00667886
0.0066736
0.00668689
0.00667765
0.00665385
0.00659706
0.00647715
0.00625617
0.00587715
0.00530334
0.0046149
0.00386431
0.00310767
0.00239739
0.00177749
0.00127565
0.000908964
0.000663909
0.000467845
0.000259861
0.000107054
8.90832e-05
0.00670108
0.00670566
0.00669618
0.00669234
0.00668777
0.00668484
0.00668031
0.0066787
0.006674
0.00667448
0.00666967
0.00667366
0.00666936
0.00667922
0.00667588
0.00669417
0.00669524
0.00669243
0.00667657
0.00662499
0.00651085
0.00629564
0.0059219
0.00535102
0.00466406
0.00391181
0.00315043
0.00243295
0.00180376
0.00129348
0.000919048
0.000662402
0.000452668
0.000244643
0.00010303
9.01585e-05
0.00669618
0.00670109
0.00670568
0.00669233
0.00668778
0.00668481
0.00668033
0.00667864
0.006674
0.00667437
0.00666964
0.00667348
0.00666933
0.00667915
0.00667671
0.00669699
0.0067034
0.0067118
0.00671917
0.00670938
0.00666531
0.00655859
0.00635041
0.00598126
0.00541285
0.00472522
0.00396929
0.00320089
0.00247345
0.00183323
0.00131591
0.000931044
0.000660445
0.000439671
0.000232813
0.00010018
9.10626e-05
0.00669232
0.00669621
0.00670112
0.0067057
0.00668778
0.00668479
0.00668034
0.00667859
0.00667401
0.00667427
0.00666962
0.0066733
0.00666927
0.00667894
0.00667699
0.00669799
0.0067068
0.00672117
0.00674117
0.00675584
0.00675495
0.00671975
0.00662205
0.00642145
0.00605699
0.00548917
0.0047989
0.0040364
0.00325811
0.00251893
0.00186893
0.00134259
0.000943747
0.000658705
0.000428792
0.000223449
9.80994e-05
9.18487e-05
0.00668779
0.00669234
0.00669626
0.00670114
0.00670571
0.00668477
0.00668035
0.00667853
0.00667403
0.00667417
0.00666961
0.00667314
0.00666922
0.00667871
0.00667707
0.0066983
0.00670815
0.0067254
0.00675235
0.00678076
0.00680546
0.00681476
0.00679032
0.00670213
0.00650978
0.00614863
0.00558024
0.00488382
0.00411239
0.00332222
0.00257407
0.00191279
0.00137049
0.000956903
0.00065776
0.000419838
0.000215918
9.65963e-05
9.2551e-05
0.00668475
0.00668784
0.0066924
0.00669632
0.00670116
0.00670573
0.00668037
0.00667849
0.00667405
0.00667408
0.00666961
0.00667299
0.00666917
0.00667849
0.00667707
0.00669833
0.0067087
0.00672731
0.00675785
0.00679406
0.00683339
0.00686912
0.00689082
0.00687783
0.00680031
0.00661523
0.00625669
0.00568588
0.004981
0.00419732
0.00339976
0.00264129
0.00195993
0.00139949
0.000970801
0.00065743
0.00041231
0.000209791
9.54761e-05
9.31879e-05
0.00668038
0.00668477
0.00668793
0.00669245
0.00669638
0.00670119
0.00670575
0.00667844
0.00667407
0.00667399
0.00666963
0.00667285
0.00666914
0.00667828
0.00667706
0.00669826
0.00670892
0.00672826
0.00676069
0.00680126
0.00684974
0.00690164
0.00695161
0.00698521
0.0069833
0.00691564
0.0067378
0.00638037
0.00580515
0.00508909
0.00430001
0.00349421
0.00271319
0.00200969
0.00142934
0.000984944
0.000658074
0.000406154
0.000204685
9.46628e-05
9.37756e-05
0.0066784
0.00668045
0.00668484
0.00668803
0.00669251
0.00669644
0.00670121
0.00670577
0.0066741
0.0066739
0.00666965
0.00667272
0.00666911
0.0066781
0.00667703
0.00669816
0.00670901
0.00672881
0.00676235
0.00680544
0.00685937
0.00692148
0.00698947
0.00705372
0.00710214
0.00711029
0.00704917
0.00687639
0.00651866
0.00593628
0.00522156
0.00442572
0.00359502
0.00278905
0.00206136
0.00145991
0.000999894
0.000659397
0.000400984
0.000200387
9.40538e-05
9.43178e-05
0.00667413
0.0066784
0.00668058
0.00668491
0.00668813
0.00669256
0.00669651
0.00670123
0.0067058
0.00667382
0.00666968
0.00667259
0.0066691
0.00667795
0.00667701
0.00669806
0.00670904
0.00672917
0.00676349
0.00680823
0.00686564
0.00693425
0.00701441
0.00709822
0.00717945
0.00724098
0.00726103
0.0072044
0.00702941
0.00666955
0.00609486
0.00538048
0.00456071
0.00370169
0.00286771
0.00211452
0.00149071
0.00101457
0.000661905
0.000396784
0.000196689
9.36134e-05
9.48254e-05
0.00667374
0.00667422
0.00667846
0.00668071
0.00668498
0.00668823
0.00669262
0.00669657
0.00670126
0.00670582
0.00666972
0.00667247
0.00666911
0.00667782
0.00667697
0.00669796
0.00670906
0.00672946
0.00676436
0.00681037
0.00687026
0.00694331
0.00703209
0.00712978
0.00723293
0.00732937
0.00740513
0.00743386
0.00738199
0.0072023
0.00684851
0.00628172
0.00554815
0.00470246
0.00381304
0.00294858
0.00216851
0.00152201
0.00102903
0.000664636
0.000393323
0.000193545
9.3293e-05
9.52959e-05
0.00666976
0.0066737
0.00667437
0.00667852
0.00668086
0.00668505
0.00668834
0.00669268
0.00669664
0.00670128
0.00670584
0.00667234
0.00666913
0.00667769
0.00667693
0.00669788
0.00670908
0.0067297
0.00676509
0.00681215
0.006874
0.0069505
0.00704575
0.00715388
0.00727385
0.00739432
0.00750784
0.00759448
0.0076303
0.00757953
0.00741558
0.0070669
0.00647811
0.00572248
0.00484767
0.00392648
0.00303069
0.00222291
0.00155343
0.0010434
0.000667703
0.000390516
0.000190766
9.30655e-05
9.57391e-05
0.00667222
0.00666985
0.0066737
0.00667453
0.00667858
0.006681
0.00668512
0.00668845
0.00669273
0.00669671
0.00670131
0.00670586
0.00666917
0.00667758
0.00667689
0.00669783
0.00670911
0.00672992
0.00676573
0.00681372
0.00687718
0.00695665
0.0070572
0.00717354
0.00730753
0.00744746
0.00758812
0.00771479
0.00781124
0.00785048
0.00782106
0.00767566
0.00730378
0.00667887
0.00589747
0.00499409
0.00404092
0.00311317
0.00227721
0.00158473
0.00105742
0.000671157
0.000388149
0.000188386
9.29132e-05
9.61494e-05
0.00666922
0.00667208
0.00666997
0.0066737
0.0066747
0.00667864
0.00668116
0.00668519
0.00668857
0.00669279
0.00669679
0.00670134
0.00670588
0.00667746
0.00667683
0.00669781
0.00670914
0.00673012
0.00676629
0.00681511
0.00687998
0.00696214
0.00706724
0.00719062
0.0073366
0.00749374
0.00765796
0.00781434
0.00795397
0.008056
0.0081217
0.00811677
0.00795492
0.00755629
0.00689049
0.00607332
0.00514047
0.00415484
0.00319516
0.00233101
0.0016156
0.00107135
0.000674902
0.000386263
0.00018624
9.28117e-05
9.65368e-05
0.00667734
0.00666922
0.00667192
0.00667011
0.0066737
0.00667488
0.0066787
0.00668132
0.00668527
0.00668869
0.00669286
0.00669686
0.00670136
0.0067059
0.00667677
0.00669783
0.00670919
0.0067303
0.00676678
0.00681637
0.00688248
0.00696712
0.00707623
0.00720606
0.00736281
0.00753499
0.00772182
0.00790577
0.00807884
0.00822632
0.00836018
0.00845691
0.00843755
0.00825056
0.00781722
0.0071088
0.00624759
0.00528407
0.00426688
0.00327594
0.00238391
0.00164592
0.00108478
0.000678566
0.00038473
0.0001844
9.27601e-05
9.68943e-05
0.00667673
0.00667702
0.00666914
0.00667175
0.00667027
0.00667369
0.00667508
0.00667876
0.00668148
0.00668535
0.00668881
0.00669292
0.00669694
0.00670139
0.00670592
0.0066979
0.00670923
0.00673046
0.00676722
0.00681749
0.00688473
0.00697166
0.00708435
0.00722027
0.00738687
0.00757276
0.00778086
0.00799318
0.00819908
0.0083827
0.0085685
0.00874089
0.00882479
0.00878044
0.00855927
0.00808398
0.00733112
0.00642245
0.00542385
0.00437616
0.00335486
0.00243559
0.00167547
0.00109806
0.000682145
0.000383484
0.000182709
9.27347e-05
9.72326e-05
0.00669802
0.00667623
0.00667653
0.0066691
0.00667158
0.00667045
0.00667369
0.00667528
0.00667883
0.00668165
0.00668543
0.00668894
0.00669299
0.00669701
0.00670142
0.00670594
0.00670925
0.00673058
0.00676759
0.00681851
0.00688678
0.00697581
0.00709174
0.00723344
0.00740905
0.00760792
0.0078366
0.00807618
0.00831753
0.00853942
0.00877006
0.00900368
0.00916492
0.00922342
0.00914285
0.00887838
0.00835431
0.00755343
0.00659751
0.00555955
0.00448203
0.00343152
0.00248577
0.00170414
0.00111106
0.000685648
0.000382466
0.00018126
9.27434e-05
9.75431e-05
0.00670922
0.00669748
0.00667531
0.00667599
0.0066691
0.00667139
0.00667065
0.00667368
0.00667549
0.0066789
0.00668183
0.00668552
0.00668906
0.00669306
0.00669708
0.00670145
0.00670596
0.00673067
0.00676791
0.00681943
0.00688865
0.0069796
0.00709849
0.00724563
0.00742948
0.00764094
0.00788961
0.00815522
0.00843187
0.00869975
0.00898205
0.00927177
0.00949706
0.00963318
0.00965271
0.00952372
0.00920615
0.00862634
0.0077734
0.00677077
0.00569106
0.00458423
0.00350549
0.00253426
0.00173184
0.00112363
0.000689045
0.000381617
0.000179904
9.2764e-05
9.78377e-05
0.00673076
0.00670818
0.00669607
0.00667462
0.00667537
0.00666918
0.00667118
0.00667088
0.00667369
0.0066757
0.00667898
0.006682
0.00668561
0.00668919
0.00669313
0.00669715
0.00670148
0.00670597
0.00676818
0.00682027
0.00689036
0.00698306
0.00710467
0.00725689
0.00744829
0.00767205
0.00793977
0.00823038
0.00854304
0.00886102
0.00920683
0.0095646
0.00985337
0.0100581
0.0101534
0.0101168
0.00992408
0.00954182
0.00889873
0.00798999
0.00694071
0.0058176
0.00468194
0.00357643
0.00258087
0.0017585
0.00113576
0.00069235
0.000380909
0.000178744
9.28085e-05
9.81069e-05
0.00676844
0.0067292
0.00670604
0.00669434
0.00667422
0.00667464
0.00666934
0.00667096
0.00667112
0.00667369
0.00667592
0.00667907
0.00668217
0.00668571
0.0066893
0.0066932
0.00669721
0.00670151
0.00670598
0.00682106
0.00689194
0.00698623
0.00711033
0.00726726
0.00746561
0.00770127
0.00798682
0.00830188
0.00865215
0.00902302
0.00943401
0.00988288
0.0102657
0.0105493
0.0107143
0.010742
0.0106234
0.0103463
0.00988536
0.00917063
0.00820241
0.00710647
0.00594012
0.00477483
0.00364415
0.00262549
0.00178405
0.00114742
0.000695527
0.00038034
0.000177643
9.28563e-05
9.8363e-05
0.00682183
0.00676585
0.0067259
0.00670387
0.00669231
0.00667411
0.00667382
0.00666955
0.00667073
0.00667136
0.00667372
0.00667613
0.00667918
0.00668234
0.00668581
0.00668941
0.00669327
0.00669727
0.00670154
0.006706
0.0068934
0.00698911
0.00711551
0.00727676
0.00748157
0.0077286
0.00803067
0.00837013
0.00875916
0.00918325
0.00965816
0.01022
0.0107585
0.0111762
0.0114227
0.0115006
0.0114151
0.0111784
0.0107918
0.0102366
0.00944143
0.00841012
0.00726682
0.00605897
0.00486311
0.00370857
0.00266806
0.00180846
0.00115859
0.000698601
0.000379838
0.000176703
9.29215e-05
9.85669e-05
0.00689477
0.00681855
0.00676017
0.00672269
0.00670181
0.0066898
0.00667428
0.00667292
0.00666981
0.00667053
0.0066716
0.00667377
0.00667634
0.00667929
0.00668249
0.00668592
0.00668951
0.00669334
0.00669733
0.00670157
0.00670601
0.00699174
0.00712024
0.00728544
0.00749625
0.00775398
0.00807143
0.00843537
0.00886288
0.00933844
0.00988006
0.0105905
0.011349
0.0119967
0.0123851
0.0125097
0.0124273
0.0121739
0.0117807
0.0112596
0.0105947
0.00971046
0.00861268
0.00742111
0.00617356
0.00494692
0.00376968
0.00270854
0.00183173
0.00116926
0.000701532
0.000379459
0.000175798
9.29742e-05
9.87379e-05
0.00699415
0.0068901
0.00681084
0.00675453
0.00671967
0.00670035
0.00668697
0.00667461
0.00667202
0.00667007
0.00667036
0.00667183
0.00667384
0.00667653
0.00667942
0.00668263
0.00668602
0.00668961
0.0066934
0.00669738
0.0067016
0.00670602
0.00712456
0.00729334
0.00750973
0.00777742
0.00810927
0.00849748
0.00896175
0.00948723
0.0101065
0.0110121
0.0120494
0.012989
0.0136229
0.013856
0.0137657
0.013461
0.0129978
0.0124197
0.0117445
0.0109574
0.00997683
0.00880969
0.00756926
0.00628351
0.00502638
0.00382753
0.00274694
0.00185383
0.00117941
0.000704353
0.000379079
0.000175133
9.30342e-05
9.89218e-05
0.0071285
0.00698779
0.00687874
0.00680316
0.00674912
0.00671679
0.00669927
0.00668402
0.00667498
0.00667118
0.00667029
0.00667025
0.00667203
0.00667395
0.0066767
0.00667955
0.00668277
0.00668613
0.00668971
0.00669347
0.00669743
0.00670163
0.00670603
0.00730052
0.00752206
0.00779895
0.00814436
0.00855611
0.00905473
0.00963063
0.0103447
0.011487
0.0128317
0.0140731
0.0149784
0.0154371
0.0154302
0.015084
0.0145361
0.0138505
0.0130769
0.0122382
0.0113213
0.0102394
0.00900077
0.00771124
0.00638865
0.00510162
0.00388219
0.00278327
0.00187478
0.00118906
0.000707027
0.00037885
0.00017454
9.30909e-05
9.91212e-05
0.00730702
0.00711992
0.00697152
0.00686735
0.0067956
0.00674386
0.00671411
0.00669833
0.00668116
0.00667528
0.00667048
0.00667043
0.00667022
0.00667218
0.00667408
0.00667685
0.00667968
0.00668289
0.00668623
0.0066898
0.00669354
0.00669748
0.00670165
0.00670604
0.00753333
0.00781866
0.00817683
0.00861091
0.0091416
0.00977064
0.0105974
0.0119987
0.0136378
0.0151396
0.0162765
0.016966
0.0171832
0.0169354
0.0163534
0.0155839
0.0146918
0.0137311
0.0127307
0.0116822
0.0104968
0.00918554
0.00784706
0.00648887
0.00517277
0.00393374
0.00281757
0.0018946
0.0011982
0.000709248
0.000378623
0.000173954
9.31742e-05
9.93365e-05
0.00754349
0.00729589
0.00709695
0.00695519
0.00685618
0.00678813
0.00673886
0.00671157
0.00669741
0.00667858
0.00667536
0.00666998
0.00667049
0.00667027
0.00667231
0.00667423
0.00667699
0.00667982
0.00668301
0.00668634
0.00668988
0.00669361
0.00669753
0.00670167
0.00670604
0.00783665
0.00820677
0.00866165
0.00922279
0.00990876
0.0108607
0.0125206
0.0144088
0.0161002
0.0173975
0.0182627
0.0186987
0.0186994
0.018262
0.0174981
0.0165526
0.0154885
0.0143628
0.0132119
0.0120359
0.0107475
0.00936365
0.00797674
0.00658417
0.00523994
0.0039823
0.00284992
0.00191332
0.0012057
0.000711129
0.00037845
0.000173299
9.3255e-05
9.95707e-05
0.00785275
0.00752903
0.00726409
0.0070739
0.00693916
0.00684524
0.00678071
0.00673423
0.00670909
0.00669643
0.00667658
0.00667514
0.0066697
0.00667045
0.00667038
0.00667241
0.00667439
0.00667713
0.00667996
0.00668313
0.00668644
0.00668997
0.00669367
0.00669756
0.00670167
0.00670604
0.00823429
0.00870837
0.00929901
0.0100452
0.011127
0.0130267
0.0151041
0.0169097
0.0182923
0.0192628
0.0198573
0.0200864
0.0199307
0.0193676
0.0184826
0.0174131
0.0162184
0.0149571
0.0136735
0.0123783
0.0109901
0.00953476
0.00810031
0.0066746
0.00530331
0.00402797
0.00288037
0.00192864
0.00121207
0.000713209
0.000378207
0.000172634
9.33676e-05
9.98235e-05
0.0082589
0.00783466
0.00748535
0.00723214
0.00705127
0.00692348
0.00683449
0.00677331
0.00672985
0.00670656
0.00669501
0.00667539
0.00667459
0.00666962
0.00667035
0.00667052
0.0066725
0.00667455
0.00667725
0.0066801
0.00668324
0.00668654
0.00669005
0.00669371
0.00669756
0.00670167
0.00670604
0.00875127
0.00937087
0.0101788
0.0113874
0.013498
0.0157044
0.0175595
0.0189645
0.0199761
0.0206617
0.0210523
0.0211395
0.0208866
0.0202539
0.0193009
0.0181551
0.0168703
0.0155046
0.014109
0.0127061
0.0112233
0.00969858
0.00821783
0.00676025
0.00536301
0.00407091
0.00290521
0.00194162
0.00121905
0.000715498
0.000378028
0.000171925
9.34811e-05
0.000100098
0.00878937
0.00823618
0.00777543
0.00744149
0.00720072
0.00702915
0.00690814
0.00682397
0.00676601
0.0067256
0.00670399
0.00669281
0.00667488
0.00667381
0.00666969
0.00667022
0.00667069
0.00667258
0.00667472
0.00667738
0.00668023
0.00668335
0.00668664
0.00669009
0.00669371
0.00669756
0.00670167
0.00670604
0.00943879
0.0103078
0.0116346
0.0139242
0.016207
0.0180624
0.0194435
0.0204465
0.0211653
0.0216501
0.0219069
0.0219078
0.0216038
0.0209436
0.0199642
0.0187814
0.0174416
0.0160007
0.0145143
0.0130167
0.0114461
0.00985485
0.00832939
0.00684124
0.00541918
0.00410586
0.00292621
0.00195579
0.00122669
0.000718028
0.000377751
0.000171162
9.36305e-05
0.000100394
0.00950045
0.00876131
0.008156
0.00771591
0.00739833
0.00716996
0.00700752
0.00689316
0.00681373
0.00675884
0.00672156
0.00670149
0.00668994
0.00667485
0.00667294
0.00666983
0.00667009
0.00667086
0.00667267
0.00667487
0.0066775
0.00668036
0.00668345
0.00668669
0.00669008
0.00669371
0.00669756
0.00670167
0.00670604
0.0104307
0.0118674
0.0143019
0.0166191
0.0184405
0.0197668
0.0207264
0.0214343
0.0219577
0.0223164
0.0224934
0.022448
0.0221251
0.021467
0.0204913
0.0193013
0.0179352
0.0164445
0.0148874
0.0133085
0.0116578
0.0100035
0.00843508
0.0069177
0.00546515
0.00413531
0.00294909
0.00197127
0.00123507
0.000720829
0.000377544
0.000170404
9.37919e-05
0.000100715
0.010541
0.00946544
0.00865232
0.00807557
0.00765726
0.00735603
0.00713986
0.00698639
0.00687858
0.00680392
0.00675182
0.00671784
0.00669953
0.0066867
0.00667505
0.00667209
0.00666998
0.00667
0.00667102
0.00667277
0.00667503
0.00667762
0.00668049
0.00668351
0.00668669
0.00669008
0.00669371
0.00669756
0.00670167
0.00670603
0.0120865
0.01463
0.0169521
0.0187176
0.0199705
0.0208641
0.0215301
0.0220496
0.0224554
0.0227416
0.0228759
0.022811
0.0224906
0.0218541
0.0209029
0.0197275
0.0183572
0.0168377
0.0152279
0.0135806
0.0118578
0.0101443
0.00853503
0.00698022
0.00550414
0.00416733
0.00297403
0.00198821
0.00124426
0.000723912
0.000377284
0.000169525
9.39882e-05
0.00010106
0.0105009
0.0122817
0.00930708
0.00854456
0.00799614
0.00759972
0.00731459
0.00711044
0.0069658
0.00686446
0.00679458
0.00674517
0.00671437
0.00669819
0.00668354
0.00667528
0.00667135
0.00667009
0.00666994
0.00667116
0.00667287
0.00667517
0.00667774
0.00668056
0.0066835
0.0066867
0.00669008
0.00669371
0.00669756
0.00670165
0.00670602
0.0149094
0.0172187
0.0189157
0.020085
0.0208996
0.0215029
0.0219876
0.0223982
0.0227403
0.0229898
0.0231052
0.023038
0.0227341
0.022132
0.0212189
0.0200732
0.0187152
0.0171837
0.0155365
0.0138329
0.0120459
0.0102774
0.00861692
0.0070331
0.00554681
0.00420217
0.00300122
0.00200673
0.00125435
0.000727348
0.000377017
0.000168712
9.42205e-05
0.000101433
0.0102578
0.0122451
0.015136
0.00915495
0.00843857
0.00791804
0.00754329
0.00727402
0.00708173
0.0069458
0.00685084
0.00678557
0.00673885
0.00671125
0.00669708
0.00668071
0.00667538
0.00667078
0.00667016
0.00666993
0.00667129
0.00667298
0.00667531
0.0066778
0.00668056
0.0066835
0.0066867
0.00669008
0.00669371
0.00669753
0.00670163
0.00670601
0.0174306
0.0190532
0.020135
0.0208637
0.0213917
0.0218199
0.0222034
0.0225592
0.0228726
0.0231076
0.0232192
0.0231613
0.0228832
0.0223235
0.0214572
0.0203513
0.0190172
0.0174866
0.0158147
0.0140656
0.0122221
0.0103863
0.00868631
0.00709081
0.00559353
0.0042401
0.00303088
0.00202701
0.00126544
0.000731076
0.000376794
0.000167744
9.44793e-05
0.000101831
0.0100195
0.011896
0.0150708
0.0175883
0.00900979
0.00833401
0.00784139
0.00748799
0.0072344
0.00705379
0.00692643
0.0068377
0.00677685
0.00673303
0.00670846
0.00669604
0.0066784
0.00667528
0.00667039
0.00667017
0.00666997
0.0066714
0.00667311
0.00667538
0.0066778
0.00668056
0.0066835
0.0066867
0.00669009
0.00669367
0.00669748
0.0067016
0.006706
0.0191449
0.0201393
0.02078
0.0212255
0.0215829
0.0219155
0.0222516
0.0225875
0.0228941
0.0231285
0.0232463
0.0232056
0.0229598
0.0224475
0.021633
0.020573
0.0192707
0.0177507
0.0160647
0.0142793
0.0123648
0.0104784
0.00876217
0.00715383
0.00564472
0.00428144
0.00306325
0.00204921
0.00127763
0.000735328
0.000376467
0.000166835
9.48128e-05
0.000102259
0.00979625
0.0115194
0.0147136
0.0174916
0.0191929
0.00886935
0.00823086
0.00776628
0.0074339
0.0071958
0.00702668
0.0069077
0.00682506
0.0067686
0.0067279
0.00670589
0.00669492
0.00667689
0.00667494
0.00667016
0.00667013
0.00667004
0.0066715
0.00667317
0.00667538
0.0066778
0.00668056
0.00668351
0.00668669
0.00669005
0.00669361
0.00669743
0.00670157
0.00670598
0.0201118
0.0206658
0.0210258
0.0213033
0.0215681
0.0218582
0.0221821
0.0225203
0.0228334
0.0230759
0.023207
0.02319
0.0229813
0.0225193
0.021759
0.0207483
0.019483
0.0179806
0.0162886
0.0144491
0.0124848
0.0105789
0.00884514
0.00722271
0.00570083
0.00432653
0.00309858
0.00207354
0.00129104
0.000739941
0.000376252
0.000165792
9.51611e-05
0.000102712
0.0095871
0.0111495
0.0142717
0.0172621
0.0190421
0.0200525
0.00873197
0.00812935
0.00769284
0.00738112
0.00715831
0.00700045
0.00688974
0.00681323
0.00676094
0.00672345
0.0067034
0.00669315
0.00667606
0.0066744
0.00667007
0.00667005
0.00667015
0.00667154
0.00667318
0.00667539
0.0066778
0.00668056
0.00668351
0.00668664
0.00668997
0.00669354
0.00669738
0.00670154
0.00670597
0.0205331
0.0208079
0.0210009
0.0211862
0.0214103
0.0216935
0.0220283
0.0223823
0.0227097
0.0229663
0.0231167
0.0231289
0.0229613
0.0225511
0.0218458
0.0208857
0.0196602
0.0181802
0.016462
0.0145902
0.0126147
0.0106885
0.00893591
0.00729805
0.00576236
0.00437576
0.00313718
0.00210019
0.0013058
0.000745112
0.000375904
0.000164784
9.56381e-05
0.000103197
0.00938897
0.0107989
0.0137849
0.0169435
0.0188855
0.0198458
0.0203774
0.00859715
0.0080298
0.00762122
0.0073298
0.00712203
0.00697531
0.00687301
0.0068024
0.00675376
0.00671947
0.00670113
0.00669084
0.00667572
0.00667375
0.00667009
0.00666997
0.00667023
0.00667151
0.00667318
0.00667539
0.00667781
0.00668056
0.00668346
0.00668655
0.00668988
0.00669347
0.00669733
0.00670151
0.00670595
0.0205824
0.0206899
0.0207887
0.0209321
0.0211512
0.0214517
0.021812
0.0221895
0.0225359
0.0228116
0.0229872
0.0230339
0.0229104
0.0225525
0.0219017
0.0209921
0.0198078
0.0183301
0.0166039
0.0147406
0.012755
0.010808
0.00903524
0.00738051
0.00582987
0.00442956
0.00317936
0.00212942
0.00132208
0.000750731
0.000375682
0.000163677
9.6117e-05
0.000103702
0.00919944
0.0104715
0.0132743
0.0165623
0.0186573
0.0197219
0.0201145
0.0203392
0.00846497
0.00793251
0.00755163
0.00728009
0.00708728
0.00695192
0.00685775
0.00679254
0.00674712
0.00671602
0.0066993
0.0066882
0.00667566
0.00667306
0.00667017
0.00666985
0.00667027
0.0066715
0.00667319
0.00667539
0.00667781
0.0066805
0.00668336
0.00668644
0.0066898
0.0066934
0.00669727
0.00670148
0.00670593
0.02038
0.0203895
0.0204422
0.0205791
0.0208188
0.0211531
0.0215472
0.0219517
0.0223206
0.0226207
0.0228277
0.022914
0.0228369
0.0225314
0.0219337
0.0210735
0.0199133
0.0184507
0.0167526
0.0149005
0.0129064
0.0109381
0.00914393
0.00747081
0.005904
0.00448843
0.00322549
0.00216149
0.00133994
0.000757109
0.000375309
0.000162544
9.67968e-05
0.000104336
0.009017
0.0101674
0.0127505
0.0161313
0.0183848
0.0195398
0.0199921
0.0200198
0.0200548
0.0083358
0.00783787
0.00748426
0.00723247
0.00705499
0.00693062
0.00684385
0.00678368
0.00674106
0.00671298
0.00669803
0.00668557
0.00667574
0.00667239
0.00667034
0.00666974
0.0066703
0.00667151
0.00667319
0.00667539
0.00667776
0.00668037
0.00668325
0.00668634
0.00668971
0.00669333
0.00669721
0.00670146
0.00670591
0.0199978
0.0199552
0.0199966
0.0201535
0.0204326
0.0208103
0.0212416
0.0216749
0.0220698
0.0224005
0.0226456
0.0227762
0.0227475
0.0224936
0.0219472
0.0211251
0.0199964
0.0185742
0.0169076
0.0150699
0.0130692
0.0110797
0.00926283
0.00756977
0.00598542
0.00455289
0.00327597
0.00219664
0.00135973
0.000763961
0.00037506
0.000161415
9.76034e-05
0.000105064
0.0088409
0.00988694
0.0122227
0.0156513
0.0180807
0.019329
0.0198203
0.019879
0.019678
0.0195993
0.0082099
0.00774628
0.00741977
0.00718824
0.0070256
0.00691124
0.00683126
0.00677571
0.00673558
0.00671024
0.00669696
0.00668315
0.00667588
0.00667185
0.00667049
0.00666969
0.0066703
0.00667152
0.0066732
0.00667532
0.00667764
0.00668024
0.00668314
0.00668624
0.00668961
0.00669326
0.00669714
0.00670143
0.00670589
0.0194804
0.0194193
0.0194766
0.0196751
0.0200047
0.0204301
0.0208987
0.0213622
0.0217883
0.022157
0.0224472
0.0226264
0.0226474
0.0224439
0.0219446
0.0211637
0.0200785
0.0186998
0.0170683
0.0152485
0.0132437
0.0112334
0.00939284
0.00767823
0.00607489
0.00462357
0.00333125
0.0022353
0.00138137
0.000771783
0.00037469