/*--------------------------------*- C++ -*----------------------------------*\
  =========                 |
  \\      /  F ield         | OpenFOAM: The Open Source CFD Toolbox
   \\    /   O peration     | Website:  https://openfoam.org
    \\  /    A nd           | Version:  8
     \\/     M anipulation  |
\*---------------------------------------------------------------------------*/
FoamFile
{
    version     2.0;
    format      ascii;
    class       volScalarField;
    location    "0.16";
    object      epsilon;
}
// * * * * * * * * * * * * * * * * * * * * * * * * * * * * * * * * * * * * * //

dimensions      [0 2 -3 0 0 0 0];

internalField   nonuniform List<scalar> 
15677
(
59.7302
18.3646
52.6882
8.08379
26.027
50.2355
4.62238
13.3247
31.6571
50.5438
3.17415
7.74943
17.1287
37.337
51.6381
2.487
5.05427
10.0486
20.8537
42.685
53.6776
2.14425
3.62771
6.4729
12.1837
24.5735
47.6804
55.7354
1.97932
2.82284
4.52977
7.73505
14.2944
28.2726
52.0319
57.6655
1.91149
2.35341
3.40395
5.31552
8.92608
16.4369
31.7671
55.7059
59.3625
1.88406
2.0803
2.72412
3.91174
6.02708
10.1136
18.5438
34.9586
58.7189
60.8598
1.8705
1.93937
2.30738
3.05666
4.3606
6.71165
11.2787
20.5717
37.773
61.1885
62.125
1.86763
1.87828
2.0565
2.52158
3.34928
4.77875
7.36654
12.4203
22.459
40.2291
63.1759
63.236
1.86862
1.84884
1.91655
2.18624
2.71304
3.61644
5.16737
8.00294
13.5054
24.1987
42.3182
64.7966
64.1613
1.86954
1.83871
1.85192
1.9827
2.30707
2.88702
3.85927
5.53726
8.60561
14.5338
25.7564
44.1012
66.0952
64.995
1.86978
1.83699
1.82113
1.86775
2.05144
2.41846
3.04343
4.08554
5.88208
9.1793
15.4799
27.1502
45.5859
67.1479
65.7202
1.86977
1.83726
1.81051
1.81335
1.8982
2.11764
2.51892
3.18698
4.29276
6.20724
9.70942
16.3517
28.3621
46.8352
68.0057
66.3635
1.86972
1.83753
1.80821
1.78979
1.81541
1.9304
2.17882
2.6107
3.31667
4.48528
6.50518
10.2019
17.129
29.4177
47.8684
68.7043
66.9506
1.86969
1.83763
1.8079
1.78277
1.7757
1.82153
1.96239
2.23533
2.69311
3.43547
4.65948
6.78044
10.644
17.8244
30.3114
48.7138
69.3004
67.4527
1.86967
1.83765
1.80791
1.78106
1.76145
1.76617
1.83175
1.99318
2.28631
2.7679
3.54173
4.81866
7.02599
11.0438
18.4233
31.0643
49.4073
69.7723
67.9593
1.86966
1.83765
1.80792
1.78074
1.75697
1.74395
1.76039
1.84318
2.02159
2.33255
2.83432
3.63772
4.95913
7.24725
11.3894
18.9408
31.6802
49.9484
70.2154
68.356
1.86966
1.83764
1.8079
1.7807
1.75568
1.73593
1.72952
1.75744
1.85453
2.04774
2.3736
2.89379
3.72164
5.08439
7.43732
11.6908
19.3651
32.1752
50.3941
70.5427
68.8276
1.86966
1.83763
1.80788
1.78069
1.75536
1.73322
1.71729
1.71805
1.75589
1.86569
2.07122
2.41023
2.94552
3.79567
5.191
7.60246
11.9371
19.7155
32.5597
50.7123
70.9084
69.1437
1.86966
1.83763
1.80786
1.78067
1.75526
1.73238
1.71266
1.70135
1.70849
1.75583
1.87612
2.09229
2.44214
2.99086
3.85835
5.28274
7.73654
12.1419
19.9798
32.8455
50.9815
71.1495
69.6118
1.86966
1.83762
1.80785
1.78064
1.75522
1.73213
1.71102
1.69455
1.68726
1.70092
1.75616
1.88573
2.11086
2.47015
3.02935
3.91193
5.35679
7.84703
12.2936
20.1842
33.047
51.1478
71.4926
69.8713
1.86966
1.83762
1.80784
1.78062
1.75518
1.73204
1.71046
1.69194
1.678
1.67539
1.69467
1.75695
1.89461
2.12744
2.49423
3.06232
3.9554
5.41734
7.92884
12.4116
20.3128
33.1714
51.2911
71.6905
70.3397
1.86967
1.83762
1.80784
1.7806
1.75515
1.73197
1.71025
1.69097
1.67418
1.66378
1.66493
1.68967
1.75847
1.90292
2.14211
2.51532
3.08985
3.99146
5.46286
7.99104
12.481
20.3988
33.241
51.3788
72.0748
70.59
1.86967
1.83761
1.80783
1.78059
1.75513
1.73192
1.71014
1.69059
1.67267
1.65874
1.65077
1.65646
1.68608
1.76037
1.9109
2.1557
2.53386
3.11347
4.01956
5.49723
8.02851
12.5283
20.4224
33.2436
51.428
72.3672
430.327
1.86967
1.83761
1.80783
1.78057
1.75511
1.73188
1.71007
1.69041
1.67206
1.65662
1.64435
1.64024
1.64924
1.68345
1.76338
1.91921
2.16856
2.5508
3.13352
4.04251
5.5207
8.05314
12.5336
20.4116
33.2265
51.5244
88.6058
722.691
1.86967
1.8376
1.80783
1.78056
1.75509
1.73185
1.71002
1.6903
1.67178
1.65571
1.64155
1.63259
1.63065
1.64431
1.68347
1.76769
1.92819
2.18173
2.5671
3.15211
4.06127
5.53737
8.05933
12.5244
20.3819
33.1883
52.4054
121.825
1010.75
1.86968
1.8376
1.80783
1.78055
1.75508
1.73182
1.70997
1.69022
1.67162
1.65528
1.64032
1.62908
1.62169
1.62432
1.64092
1.68486
1.77376
1.93885
2.19604
2.58417
3.17008
4.07794
5.54799
8.05676
12.5026
20.3257
33.1944
54.8892
157.583
1267.9
1.86968
1.83759
1.80783
1.78054
1.75507
1.7318
1.70993
1.69015
1.6715
1.65504
1.63974
1.62745
1.61752
1.61429
1.61867
1.64141
1.68857
1.7825
1.95194
2.21271
2.60288
3.18914
4.0938
5.55541
8.05027
12.4653
20.2657
33.2644
59.3841
190.601
1508.05
1.86968
1.83759
1.80784
1.78053
1.75507
1.73177
1.7099
1.69009
1.67141
1.65488
1.63942
1.62665
1.61558
1.60938
1.60771
1.61837
1.64399
1.69588
1.79472
1.96864
2.23267
2.62487
3.21046
4.11123
5.56285
8.0389
12.4262
20.2032
33.4799
64.0486
222.081
1715.15
1.86968
1.83759
1.80784
1.78052
1.75507
1.73175
1.70988
1.69004
1.67134
1.65476
1.63921
1.62622
1.61461
1.60699
1.6024
1.60632
1.62033
1.64995
1.70763
1.81162
1.98994
2.25749
2.6512
3.23614
4.13162
5.57239
8.02977
12.3859
20.1337
33.8996
68.7898
250.019
1875.49
1.86969
1.83758
1.80784
1.78052
1.75506
1.73173
1.70986
1.69
1.67127
1.65466
1.63904
1.62593
1.61407
1.60578
1.59979
1.60029
1.60807
1.62576
1.66131
1.72487
1.83423
2.01736
2.28821
2.6837
3.26707
4.15749
5.58666
8.02264
12.3466
20.0726
34.4144
73.1046
271.878
2002.47
1.86969
1.83758
1.80784
1.78051
1.75506
1.73172
1.70985
1.68996
1.67122
1.65457
1.6389
1.62573
1.61371
1.60511
1.59844
1.59729
1.60194
1.61333
1.63662
1.6789
1.74866
1.86403
2.05194
2.32651
2.72324
3.30552
4.18974
5.60728
8.02298
12.3073
20.018
34.9158
76.4352
289.287
2106.65
1.83758
1.86972
1.80785
1.7805
1.75506
1.7317
1.70984
1.68993
1.67118
1.65449
1.63878
1.62556
1.61344
1.60468
1.59767
1.59575
1.59891
1.60716
1.62406
1.65462
1.70373
1.7806
1.90219
2.09543
2.37337
2.77177
3.35194
4.23058
5.6352
8.02654
12.2669
19.9614
35.2829
78.9911
303.46
2195.32
1.80785
1.83768
1.8698
1.7805
1.75506
1.73169
1.70983
1.68989
1.67115
1.65442
1.63869
1.62542
1.61321
1.60437
1.59717
1.59492
1.59738
1.60419
1.61795
1.64256
1.68049
1.73744
1.82183
1.95043
2.14871
2.43047
2.82981
3.40853
4.27976
5.67108
8.03654
12.2266
19.8985
35.5384
80.9244
315.497
2273.56
1.78049
1.80801
1.83787
1.86987
1.75506
1.73168
1.70983
1.68986
1.67112
1.65436
1.63861
1.6253
1.61303
1.60412
1.59679
1.5944
1.59657
1.60275
1.61514
1.63701
1.66944
1.71599
1.78142
1.87424
2.0098
2.21353
2.49865
2.8993
3.47472
4.33866
5.71994
8.05758
12.1951
19.8293
35.6757
82.4426
325.948
2344.35
1.75506
1.7807
1.80833
1.83807
1.86995
1.73166
1.70982
1.68984
1.6711
1.65431
1.63855
1.62519
1.61287
1.60392
1.59648
1.59402
1.59608
1.60206
1.61394
1.63481
1.66493
1.70668
1.76268
1.83785
1.9392
2.08237
2.29056
2.5793
2.9798
3.55221
4.41451
5.78593
8.09001
12.1692
19.7526
35.7502
83.6327
335.396
2409.96
1.73165
1.75532
1.78112
1.80866
1.83828
1.87003
1.70982
1.68981
1.67109
1.65425
1.6385
1.62509
1.61274
1.60374
1.59623
1.59374
1.59575
1.6017
1.61352
1.63426
1.66382
1.70405
1.75625
1.82317
1.9083
2.01919
2.16911
2.38181
2.67244
3.07303
3.64994
4.51282
5.86467
8.13186
12.1532
19.6747
35.7469
84.6273
344.009
2471.29
1.70982
1.73194
1.75584
1.78154
1.809
1.8385
1.87011
1.68979
1.67107
1.65421
1.63846
1.625
1.61263
1.60359
1.59601
1.5935
1.5955
1.60149
1.61343
1.63445
1.66427
1.70453
1.75591
1.82038
1.8992
1.99595
2.11559
2.2725
2.48779
2.77919
3.18968
3.7749
4.62478
5.95452
8.1835
12.1425
19.5961
35.7267
85.454
352.091
2529.51
1.68977
1.71015
1.73253
1.75638
1.78199
1.80934
1.83872
1.87019
1.67106
1.65416
1.63842
1.62491
1.61254
1.60346
1.59582
1.59331
1.5953
1.60135
1.61346
1.63493
1.66548
1.70675
1.75896
1.82367
1.901
1.99315
2.1016
2.23181
2.39337
2.61048
2.91376
3.3365
3.91394
4.7495
6.05431
8.2433
12.1432
19.5227
35.6831
86.192
359.649
2584.55
1.67106
1.69012
1.71083
1.73314
1.75693
1.78244
1.8097
1.83894
1.87028
1.65412
1.6384
1.62483
1.61247
1.60334
1.59566
1.59315
1.59514
1.60126
1.61356
1.63549
1.66692
1.70972
1.76383
1.83063
1.9096
2.00192
2.107
2.22796
2.36732
2.53477
2.76617
3.08527
3.50132
4.06719
4.88506
6.16284
8.31088
12.1479
19.4544
35.6249
86.8379
366.861
2637.29
1.65409
1.67144
1.69084
1.71153
1.73377
1.75749
1.78291
1.81007
1.83918
1.87036
1.63838
1.62476
1.61241
1.60322
1.59553
1.59301
1.59501
1.6012
1.61369
1.63607
1.66839
1.71281
1.76944
1.83959
1.92208
2.01797
2.12522
2.24505
2.37631
2.52476
2.71409
2.9666
3.27947
3.68425
4.23347
5.03013
6.27876
8.38495
12.1585
19.3941
35.5616
87.4449
373.672
2687.18
1.63836
1.65446
1.67224
1.69159
1.71225
1.73441
1.75807
1.78339
1.81044
1.83942
1.87045
1.62469
1.61237
1.60311
1.59542
1.5929
1.5949
1.60115
1.61383
1.63663
1.66981
1.7158
1.77502
1.84935
1.9369
2.03845
2.15139
2.276
2.40853
2.55129
2.72484
2.94269
3.19525
3.4969
3.88372
4.41168
5.18344
6.4009
8.46412
12.1774
19.3409
35.5024
87.9981
380.211
2735.12
1.62463
1.63877
1.65527
1.67306
1.69236
1.71298
1.73508
1.75866
1.78388
1.81083
1.83966
1.87054
1.61234
1.603
1.59533
1.59279
1.59481
1.60112
1.61397
1.63716
1.67117
1.71863
1.78037
1.85894
1.95262
2.06191
2.18287
2.31616
2.45607
2.60318
2.77606
2.98484
3.20201
3.44732
3.73614
4.09945
4.60085
5.34371
6.52772
8.54758
12.2016
19.2958
35.4476
88.5341
386.399
2780.29
1.61232
1.62499
1.63964
1.6561
1.67391
1.69315
1.71374
1.73576
1.75928
1.78439
1.81122
1.83992
1.87063
1.6029
1.59527
1.5927
1.59472
1.6011
1.61411
1.63766
1.67243
1.72126
1.78543
1.86809
1.96799
2.08671
2.21842
2.36321
2.51479
2.67292
2.85554
3.07137
3.28485
3.49392
3.72201
3.99258
4.32973
4.7991
5.50922
6.65801
8.63423
12.2306
19.2576
35.4002
89.0344
392.349
2823.72
1.60281
1.6127
1.62579
1.64052
1.65695
1.67478
1.69397
1.71452
1.73647
1.7599
1.78491
1.81163
1.84018
1.87073
1.59523
1.59261
1.59465
1.60108
1.61424
1.63812
1.6736
1.72369
1.79018
1.87671
1.9827
2.1111
2.25595
2.41624
2.5829
2.75714
2.95703
3.19166
3.41664
3.62639
3.81774
4.01918
4.26277
4.57179
5.00483
5.6791
6.79056
8.72314
12.2634
19.227
35.3609
89.5246
397.964
2864.37
1.59521
1.60305
1.61352
1.6266
1.64144
1.65784
1.67567
1.69481
1.71532
1.73719
1.76054
1.78545
1.81204
1.84044
1.87081
1.59251
1.59457
1.60106
1.61436
1.63854
1.67468
1.72594
1.7946
1.88476
1.99668
2.13462
2.29303
2.47278
2.66006
2.85492
3.07846
3.34155
3.59083
3.81555
4.01043
4.17265
4.33779
4.54519
4.82264
5.21725
5.85193
6.92439
8.8134
12.2996
19.2022
35.3289
89.989
403.369
2903.5
1.59243
1.59548
1.60365
1.61436
1.62745
1.64238
1.65876
1.67659
1.69568
1.71614
1.73794
1.7612
1.786
1.81245
1.84069
1.8709
1.59449
1.60104
1.61447
1.63893
1.67567
1.728
1.79869
1.89223
2.00988
2.15705
2.32901
2.52949
2.74319
2.96684
3.22049
3.52169
3.80695
4.06059
4.27186
4.43801
4.5577
4.67571
4.83824
5.0773
5.43366
6.0263
7.05835
8.90418
12.3381
19.1841
35.3049
90.4444
408.442
2939.86
1.59445
1.59237
1.59605
1.60424
1.61524
1.62834
1.64335
1.65971
1.67754
1.69658
1.71698
1.73871
1.76188
1.78654
1.81285
1.84093
1.87098
1.60101
1.61456
1.63929
1.67658
1.72989
1.80246
1.89914
2.02227
2.17826
2.36368
2.58537
2.82731
3.0893
3.38585
3.73639
4.07085
4.36782
4.61047
4.79068
4.91056
4.97187
5.03075
5.14084
5.33456
5.65168
6.20053
7.19155
8.99474
12.3787
19.1701
35.2863
90.8801
413.336
2974.9
1.60102
1.59425
1.59227
1.59663
1.60488
1.61616
1.62928
1.64435
1.6607
1.6785
1.6975
1.71785
1.73949
1.76255
1.78707
1.81323
1.84116
1.87106
1.61464
1.63961
1.6774
1.73161
1.80592
1.90551
2.03384
2.19817
2.3969
2.63982
2.91077
3.21583
3.57123
3.99326
4.39434
4.75376
5.04564
5.25466
5.37922
5.43015
5.41424
5.40095
5.45066
5.59311
5.86999
6.37407
7.32342
9.08451
12.4204
19.1619
35.2757
91.3038
417.891
3007.23
1.61478
1.60058
1.59382
1.59214
1.59727
1.60557
1.6171
1.63025
1.64538
1.66172
1.6795
1.69846
1.71873
1.74027
1.76319
1.78759
1.81361
1.84139
1.87114
1.63989
1.67814
1.73319
1.80909
1.91138
2.04459
2.21677
2.42856
2.69233
2.99285
3.3447
3.7675
4.29012
4.79638
5.24773
5.61594
5.87319
6.0126
6.0465
5.99929
5.884
5.78438
5.76563
5.85144
6.0859
6.54627
7.45328
9.17296
12.463
19.1562
35.2679
91.712
422.31
3038.46
1.64024
1.61394
1.59949
1.59333
1.59208
1.59795
1.60634
1.61807
1.63127
1.64643
1.66277
1.68052
1.69943
1.71961
1.74103
1.76383
1.78809
1.81397
1.84162
1.87122
1.6788
1.7346
1.81197
1.91677
2.05454
2.2341
2.45857
2.74251
3.0732
3.47493
3.97077
4.61415
5.28451
5.8971
6.38638
6.7236
6.89179
6.906
6.80157
6.62015
6.38016
6.17918
6.08382
6.10869
6.29721
6.71571
7.58047
9.25965
12.5059
19.1557
35.268
92.105
426.388
3063.55
1.67951
1.63877
1.61171
1.59828
1.59293
1.59213
1.59865
1.60717
1.61906
1.63234
1.64751
1.66386
1.68156
1.7004
1.72046
1.74177
1.76444
1.78857
1.81433
1.84184
1.87129
1.73589
1.81458
1.92171
2.06372
2.25021
2.48689
2.79016
3.15155
3.60512
4.17822
4.96261
5.84999
6.73576
7.45437
7.9252
8.14855
8.14044
7.95287
7.65078
7.29345
6.90122
6.58338
6.40351
6.36395
6.5035
6.88136
7.70444
9.34422
12.5488
19.1569
35.27
92.4837
429.829
3084.76
1.73721
1.67729
1.63477
1.60934
1.59721
1.59263
1.59231
1.59935
1.60808
1.62008
1.63346
1.64863
1.66498
1.6826
1.70134
1.72129
1.74248
1.76504
1.78905
1.81467
1.84205
1.87137
1.81698
1.92622
2.07216
2.26517
2.51348
2.83525
3.22768
3.7337
4.38795
5.33669
6.49629
7.75601
8.88453
9.63734
9.9669
9.94543
9.64404
9.16201
8.59539
8.01756
7.44486
6.99489
6.72308
6.61589
6.7043
7.04246
7.82473
9.42634
12.5914
19.1599
35.2748
92.7957
432.692
3107.71
1.81933
1.734
1.67086
1.63049
1.60718
1.59625
1.59239
1.5927
1.60005
1.60907
1.62112
1.63463
1.64977
1.6661
1.68362
1.70226
1.7221
1.74318
1.76562
1.78951
1.81501
1.84225
1.87144
1.9304
2.07991
2.27904
2.53838
2.87781
3.30131
3.85933
4.5995
5.73787
7.22503
8.95335
10.6467
11.9482
12.5747
12.5758
12.1395
11.4079
10.5308
9.63073
8.78816
8.00786
7.41147
7.041
6.86341
6.89922
7.19847
7.94095
9.50577
12.6333
19.1655
35.2812
93.064
435.79
3132.86
1.93437
1.81489
1.72411
1.66411
1.62651
1.6052
1.59537
1.59208
1.59326
1.60075
1.61013
1.62221
1.63582
1.6509
1.66718
1.6846
1.70316
1.72289
1.74386
1.76618
1.78995
1.81533
1.84245
1.87147
2.08712
2.29188
2.56161
2.91793
3.37213
3.98118
4.8134
6.16612
8.03084
10.3142
12.7125
14.7871
16.0875
16.3445
15.7766
14.7281
13.4196
12.0462
10.7468
9.59862
8.5862
7.83068
7.35581
7.1056
7.08787
7.34897
8.05285
9.58235
12.6743
19.1715
35.2889
93.3558
439.17
3160.23
2.09379
1.92837
1.80009
1.71384
1.65777
1.62278
1.60335
1.59457
1.59177
1.59394
1.60149
1.61124
1.62333
1.63702
1.65202
1.66824
1.68557
1.70402
1.72365
1.74452
1.76673
1.79039
1.81565
1.84255
1.87147
2.30395
2.58329
2.95573
3.43991
4.09889
5.03048
6.61929
8.90322
11.8155
15.0465
18.0989
20.3904
21.4154
20.9845
19.5635
17.688
15.654
13.6881
11.9299
10.4406
9.17524
8.25003
7.66615
7.34165
7.26995
7.49367
8.16023
9.65587
12.7089
19.1776
35.2974
93.6824
442.869
3190.42
2.31486
2.08596
1.90653
1.78489
1.70419
1.6518
1.61927
1.60164
1.59383
1.59153
1.5947
1.60229
1.61239
1.62446
1.63818
1.65311
1.66927
1.68651
1.70487
1.7244
1.74516
1.76727
1.79081
1.81581
1.84255
1.87147
2.60372
2.99136
3.50451
4.21256
5.25141
7.0934
9.82905
13.4303
17.6039
21.8227
25.3989
27.6281
28.0045
26.4989
23.9079
20.9821
18.0785
15.4326
13.1644
11.3048
9.77011
8.66706
7.97073
7.57087
7.44522
7.63248
8.26305
9.71707
12.7389
19.1851
35.3103
94.0414
446.911
3223.3
2.62179
2.30454
2.05405
1.88439
1.7706
1.69505
1.64611
1.61596
1.60005
1.59319
1.5914
1.59553
1.60315
1.61354
1.62559
1.63931
1.65419
1.67026
1.68742
1.70569
1.72513
1.74578
1.76778
1.79102
1.81581
1.84255
1.87147
3.02521
3.56605
4.32271
5.47637
7.58319
10.7944
15.131
20.3369
25.8844
31.0176
34.8614
36.6275
35.8855
32.8618
28.7632
24.5646
20.6566
17.2541
14.4342
12.1819
10.366
9.07936
8.26836
7.79274
7.61352
7.76507
8.34861
9.76948
12.7723
19.1948
35.325
94.446
451.343
3259.68
3.05477
2.60848
2.25805
2.02217
1.86361
1.75701
1.68627
1.64066
1.61285
1.59859
1.59264
1.59137
1.59639
1.60407
1.61466
1.62671
1.64041
1.65524
1.67124
1.68831
1.70649
1.72583
1.74638
1.76804
1.79102
1.81581
1.84255
1.87147
3.62497
4.43013
5.70508
8.08262
11.7852
16.891
23.1981
30.205
37.1272
42.9676
46.6822
47.4601
45.0442
40.0186
34.0685
28.3847
23.3513
19.1279
15.7238
13.063
10.9582
9.48468
8.55805
8.00683
7.77481
7.87433
8.42184
9.82742
12.8098
19.2066
35.347
94.8923
456.198
3299.27
3.67603
3.03719
2.54062
2.21231
1.99227
1.8438
1.74392
1.67783
1.63547
1.60993
1.59725
1.59221
1.59146
1.59723
1.60504
1.61574
1.62782
1.64148
1.65626
1.67218
1.68918
1.70726
1.72652
1.74668
1.76804
1.79102
1.81581
1.84255
1.87147
4.53545
5.93491
8.58563
12.7882
18.6845
26.1418
34.7055
43.5985
51.7575
57.9451
60.9861
60.1337
55.4203
47.8889
39.7527
32.3893
26.1265
21.0307
17.0192
13.9401
11.5426
9.88108
8.83892
8.21279
7.90887
7.96731
8.50269
9.8916
12.8518
19.2219
35.3718
95.3971
461.558
3343.19
4.62796
3.65336
2.93656
2.47499
2.16948
1.96372
1.82468
1.73129
1.66972
1.63052
1.60721
1.59605
1.59191
1.59173
1.59803
1.60603
1.61679
1.62891
1.64252
1.65726
1.6731
1.69003
1.70802
1.72686
1.74668
1.76804
1.79102
1.81581
1.84255
1.87143
6.16319
9.08794
13.7912
20.4877
29.1248
39.3104
50.3026
61.0239
70.1227
76.1348
77.8134
74.5879
66.9094
56.3719
45.7384
36.5252
28.9481
22.9419
18.3079
14.806
12.1155
10.2669
9.11024
8.38436
8.02354
8.06947
8.59206
9.96282
12.8992
19.2403
35.4078
95.9388
467.446
3390.88
4.59783
6.36479
3.49901
2.84156
2.41364
2.12857
1.93615
1.80619
1.71911
1.66195
1.62582
1.60473
1.59499
1.59168
1.59224
1.59879
1.60705
1.61782
1.62999
1.64353
1.65824
1.67399
1.69085
1.70839
1.72686
1.74668
1.76804
1.79102
1.81581
1.84245
1.87136
9.58477
14.7837
22.2794
32.1075
43.95
57.1192
70.563
82.893
92.4664
97.6179
97.1128
90.6948
79.3704
65.3518
51.9453
40.7417
31.7857
24.8432
19.5792
15.6548
12.6739
10.6406
9.33701
8.53135
8.15016
8.18188
8.69096
10.042
12.9526
19.264
35.448
96.5421
473.988
3443.92
4.34352
6.33598
10.0234
3.3584
2.75307
2.35503
2.08905
1.90946
1.78834
1.7074
1.65452
1.62134
1.6025
1.59407
1.59138
1.59288
1.59953
1.60807
1.61883
1.63104
1.64452
1.65919
1.67487
1.69126
1.70839
1.72686
1.74668
1.76804
1.79102
1.81565
1.84225
1.87129
15.7547
24.0412
35.0557
48.5626
63.9412
80.19
95.9438
109.497
118.913
122.363
118.739
108.267
92.6329
74.7048
58.2943
44.9919
34.612
26.719
20.8246
16.4818
13.2154
10.9537
9.53172
8.69397
8.29021
8.30582
8.80054
10.1302
13.0131
19.2922
35.5043
97.1951
481.188
3501.29
4.12003
5.88728
10.0139
16.6134
3.22893
2.66859
2.29847
2.05082
1.88369
1.77115
1.69618
1.64744
1.61715
1.60052
1.5933
1.59114
1.5936
1.60028
1.60909
1.61982
1.63207
1.64549
1.66013
1.6753
1.69126
1.70839
1.72686
1.74668
1.76804
1.7908
1.81533
1.84204
1.87122
25.7553
37.9409
53.0972
70.678
89.7478
109.001
126.762
140.995
149.457
150.22
142.462
127.067
106.507
84.3052
64.7111
49.2333
37.4032
28.5566
22.0371
17.283
13.6691
11.2228
9.74755
8.87416
8.44535
8.44269
8.9221
10.2287
13.0817
19.3284
35.5667
97.9288
489.257
3565.31
3.91853
5.49526
9.19713
16.6681
27.2801
3.10601
2.58719
2.24381
2.01391
1.85886
1.75465
1.68546
1.64077
1.61339
1.59884
1.59266
1.59101
1.59434
1.60104
1.61008
1.62079
1.63308
1.64645
1.66059
1.67529
1.69126
1.70838
1.72686
1.74668
1.76778
1.79038
1.815
1.84183
1.87114
40.7363
57.5135
77.2595
99.111
121.842
143.866
163.194
177.411
183.964
180.929
167.972
146.821
120.797
94.0324
71.1269
53.4283
40.14
30.3457
23.211
17.9537
14.059
11.5214
9.98718
9.07417
8.61747
8.59413
9.05717
10.3387
13.1601
19.3714
35.6522
98.7335
498.132
3634.07
3.73065
5.14298
8.46693
15.3005
27.4982
43.2314
2.98806
2.50869
2.19112
1.97838
1.83503
1.73887
1.67534
1.63471
1.6101
1.5974
1.59215
1.59098
1.59509
1.60182
1.61106
1.62176
1.63408
1.64691
1.66058
1.67528
1.69126
1.70839
1.72686
1.74638
1.76726
1.78994
1.81466
1.84161
1.87106
61.7733
83.633
108.189
134.302
160.504
184.948
205.279
218.635
222.167
214.122
194.901
167.235
135.309
103.774
77.4806
57.5459
42.8065
32.0781
24.1931
18.5299
14.4917
11.8532
10.2537
9.29655
8.80877
8.76206
9.20746
10.4621
13.2493
19.4264
35.747
99.6461
508.196
3711.09
3.55336
4.81683
7.80314
14.0326
25.4033
43.7554
65.5783
2.87475
2.4332
2.14048
1.9443
1.81224
1.72396
1.66608
1.62933
1.60723
1.59617
1.59178
1.59106
1.59582
1.60261
1.61202
1.62274
1.63457
1.64689
1.66058
1.67528
1.69126
1.70839
1.72651
1.74577
1.76672
1.78949
1.81432
1.84139
1.87098
89.749
116.921
146.273
176.465
205.846
232.28
252.938
264.427
263.672
249.343
222.84
188.016
149.86
113.427
83.7211
61.5602
45.3897
33.5275
25.0365
19.1687
14.9724
12.2225
10.5504
9.5442
9.02173
8.94863
9.37499
10.6006
13.3518
19.4913
35.8753
100.664
519.202
3792.92
3.38579
4.5122
7.18469
12.8438
23.4268
40.7557
66.5844
95.202
2.76611
2.36085
2.09198
1.91174
1.79069
1.71028
1.6578
1.62454
1.60472
1.59513
1.59152
1.59126
1.59652
1.60344
1.61301
1.62321
1.63454
1.64689
1.66058
1.67529
1.69126
1.70801
1.72582
1.74514
1.76616
1.78903
1.81396
1.84116
1.8709
125.248
157.694
191.633
225.626
257.856
285.795
305.979
314.415
307.968
286.065
251.367
208.879
164.283
122.908
89.8056
65.4504
47.5517
34.7722
25.9711
19.8777
15.5068
12.6338
10.8814
9.82046
9.25924
9.15639
9.56201
10.7564
13.4693
19.5743
36.0184
101.829
531.905
3900.84
3.2276
4.22828
6.6043
11.7147
21.5361
37.8984
62.5137
96.8759
132.638
2.66222
2.29181
2.04573
1.88098
1.77092
1.69801
1.65038
1.62029
1.60254
1.59425
1.59134
1.5916
1.59722
1.60435
1.61348
1.62316
1.63454
1.64689
1.66058
1.6753
1.69085
1.70725
1.72511
1.74449
1.7656
1.78855
1.8136
1.84092
1.87081
168.503
205.959
244.175
281.688
316.453
345.358
364.107
368.099
354.44
323.724
280.064
229.563
178.438
132.145
95.6995
68.7063
49.4086
36.1517
27.0081
20.6655
16.1018
13.0926
11.251
10.1291
9.52455
9.38823
9.77136
10.9323
13.6051
19.672
36.2106
103.146
548.055
4032.52
3.0784
3.96525
6.06186
10.6381
19.703
35.1278
58.6301
91.577
135.139
178.018
2.56327
2.2262
2.00213
1.85281
1.75316
1.68699
1.64375
1.6165
1.60069
1.5935
1.59113
1.5921
1.59802
1.60478
1.61341
1.62316
1.63454
1.64689
1.66059
1.67486
1.69001
1.70646
1.72438
1.74383
1.76501
1.78807
1.81322
1.84068
1.87072
219.392
261.478
303.677
344.507
381.533
410.789
426.921
424.852
402.402
361.742
308.539
249.845
192.208
141.081
100.629
71.5022
51.4666
37.6821
28.1596
21.5414
16.7646
13.6047
11.6641
10.4744
9.8214
9.64751
10.0057
11.1305
13.7614
19.7967
36.4263
104.973
569.242
4166.92
2.93743
3.72372
5.55915
9.61711
17.916
32.4031
54.8368
86.5547
128.449
181.434
231.07
2.46954
2.16455
1.96226
1.82751
1.73721
1.6771
1.63781
1.6131
1.59908
1.59286
1.591
1.59281
1.59835
1.60468
1.6134
1.62315
1.63454
1.64691
1.66012
1.67398
1.68916
1.70566
1.72363
1.74315
1.76442
1.78757
1.81284
1.84043
1.87063
277.519
323.879
369.891
413.976
453.045
481.879
493.913
483.941
451.115
399.562
336.453
269.539
205.499
148.54
104.858
74.5999
53.7497
39.3815
29.4395
22.5162
17.5035
14.1768
12.1264
10.8611
10.154
9.93804
10.2697
11.3566
13.9441
19.9441
36.7692
107.278
592.583
4302.84
2.80416
3.50601
5.09714
8.66092
16.176
29.7039
51.0733
81.6446
122.202
173.154
235.377
291.214
2.3819
2.10837
1.92655
1.80481
1.72289
1.66823
1.63249
1.61008
1.59769
1.59241
1.59119
1.59312
1.59816
1.60469
1.6134
1.62316
1.63456
1.64644
1.65917
1.67307
1.68828
1.70484
1.72286
1.74246
1.76381
1.78706
1.81244
1.84018
1.87054
342.339
392.78
442.682
490.199
531.09
558.426
564.469
544.529
499.834
436.686
363.522
288.497
216.562
154.931
109.539
78.0345
56.2843
41.2699
30.863
23.6016
18.3277
14.8162
12.644
11.2947
10.5271
10.264
10.5641
11.6146
14.1563
20.1665
37.2247
110.113
618.097
4438.66
2.67954
3.30798
4.67541
7.77246
14.4904
27.0271
47.3034
76.7579
116.131
165.6
225.235
296.237
357.699
2.30247
2.0582
1.89458
1.78444
1.71003
1.66027
1.62771
1.6074
1.5966
1.59237
1.59115
1.59294
1.59814
1.60469
1.61341
1.6232
1.63407
1.64547
1.65821
1.67215
1.68739
1.70399
1.72207
1.74174
1.76318
1.78653
1.81204
1.83992
1.87045
413.32
467.967
522.226
573.595
615.967
640.207
637.826
605.708
547.861
472.689
389.519
304.227
226.02
161.991
114.722
81.8445
59.0999
43.3698
32.4473
24.8106
19.2471
15.5308
13.2236
11.7809
10.9458
10.6311
10.8937
11.9087
14.452
20.4782
37.8362
113.237
645.909
4573.61
2.56659
3.1278
4.29558
6.95322
12.8763
24.3812
43.512
71.8346
110.109
158.357
216.265
283.835
363.094
429.802
2.23196
2.0134
1.86595
1.76616
1.69848
1.6531
1.62342
1.6052
1.59612
1.59218
1.59077
1.59296
1.59814
1.60468
1.61347
1.62273
1.63305
1.6445
1.65723
1.6712
1.68647
1.70312
1.72127
1.74101
1.76253
1.78599
1.81162
1.83966
1.87036
490.122
549.583
609.121
664.936
708.089
726.852
713.057
666.57
594.581
507.233
411.022
317.639
236.438
169.788
120.462
86.0719
62.2288
45.7057
34.2109
26.1577
20.2727
16.3295
13.8724
12.326
11.4159
11.0449
11.2637
12.3062
14.8495
20.8709
38.5439
116.991
676.49
4705.82
2.46645
2.96719
3.95929
6.20903
11.3521
21.7834
39.6997
66.8378
104.046
151.253
207.842
273.276
347.853
435.071
507.038
2.16937
1.9734
1.84031
1.74976
1.68808
1.64663
1.61979
1.60391
1.59565
1.59171
1.59075
1.59296
1.59816
1.60477
1.613
1.62174
1.63204
1.6435
1.65622
1.67023
1.68553
1.70223
1.72044
1.74026
1.76187
1.78544
1.81121
1.83941
1.87027
572.842
638.388
704.677
765.514
807.894
817.746
789.121
726.262
639.487
535.747
429.308
332.365
247.906
178.396
126.815
90.7624
65.7062
48.3047
36.1744
27.6583
21.4163
17.2213
14.5982
12.9366
11.9436
11.5102
11.7573
12.8222
15.3077
21.3371
39.452
121.213
709.702
4834.46
2.3779
2.82516
3.67214
5.54879
9.9366
19.2571
35.8783
61.7486
97.8705
144.155
199.744
263.635
335.43
416.139
511.589
589.451
2.11374
1.93768
1.81735
1.735
1.67867
1.64108
1.6174
1.60293
1.59501
1.5917
1.59075
1.59294
1.59834
1.60435
1.612
1.62076
1.631
1.64248
1.65519
1.66923
1.68457
1.70132
1.71959
1.73948
1.7612
1.7849
1.81082
1.83917
1.87019
662.352
736.147
811.293
877.213
915.746
912.063
864.971
784.038
676.582
559.953
449.324
348.51
260.514
187.89
133.844
95.9646
69.5701
51.1957
38.3598
29.3291
22.6904
18.2161
15.4087
13.6198
12.5344
12.1305
12.3876
13.3904
15.8279
21.9081
40.5336
126.218
746.476
4957.27
2.29975
2.69861
3.43556
4.98594
8.66076
16.8292
32.07
56.5608
91.5331
136.954
191.787
254.629
324.47
401.458
487.731
592.65
678.037
2.06428
1.9058
1.79673
1.72167
1.67054
1.63723
1.61578
1.60203
1.59501
1.59169
1.59077
1.59311
1.59801
1.60342
1.61103
1.61978
1.62994
1.64143
1.65415
1.6682
1.68359
1.70038
1.71873
1.7387
1.76053
1.78437
1.81043
1.83894
1.87011
760.749
846.317
932.816
1002.44
1031.87
1008.98
939.599
832.046
708.074
586.387
471.183
366.175
274.348
198.345
141.611
101.729
73.8604
54.4098
40.7908
31.1878
24.108
19.3236
16.3122
14.3815
13.3181
12.9155
13.0686
14.0113
16.419
22.5895
41.8873
131.972
786.343
5073.52
2.23081
2.58592
3.23665
4.51751
7.5553
14.5434
28.307
51.281
84.9931
129.557
183.817
246.018
314.61
388.992
470.274
562.114
679.429
775.475
2.02027
1.87725
1.77813
1.7101
1.6647
1.63474
1.6146
1.60204
1.59501
1.5917
1.59114
1.5928
1.59721
1.60259
1.61005
1.61879
1.62887
1.64037
1.65308
1.66715
1.68258
1.69942
1.71784
1.73792
1.75988
1.78386
1.81005
1.83871
1.87002
872.406
974.96
1075.1
1144.11
1157.18
1107.39
1002.53
872.949
742.463
615.178
494.991
385.449
289.493
209.836
150.179
108.109
78.6189
57.9791
43.4916
33.2527
25.6825
20.554
17.3156
15.3869
14.3009
13.7522
13.7983
14.6846
17.0859
23.4089
43.5357
138.725
830.806
5180.77
2.16994
2.48594
3.06604
4.13085
6.62505
12.4921
24.6568
45.9311
78.2212
121.873
175.693
237.6
305.537
378.267
456.016
541.289
639.633
775.282
887.407
1.98101
1.85162
1.76196
1.70159
1.66101
1.63319
1.61461
1.60203
1.59501
1.59217
1.59119
1.59208
1.59649
1.60178
1.60904
1.61778
1.62777
1.63927
1.65199
1.66608
1.68156
1.69845
1.71697
1.73717
1.75925
1.78337
1.80969
1.83849
1.86995
1005.33
1132.76
1246.36
1309.53
1291.5
1192.54
1056.65
917.792
779.921
646.44
520.832
406.41
306.019
222.429
159.609
115.154
83.8871
61.9364
46.4873
35.542
27.4271
21.9157
18.6341
16.6374
15.3376
14.6345
14.5726
15.4115
17.8351
24.3889
45.5558
146.673
878.993
5278.86
2.11603
2.39765
2.91711
3.81283
5.85221
10.7189
21.2625
40.5887
71.2044
113.817
167.266
229.182
297
368.877
444.346
524.869
614.845
722.269
887.372
1025.98
1.94588
1.82932
1.7498
1.69636
1.65898
1.63323
1.61461
1.60202
1.59564
1.59236
1.59099
1.59158
1.59578
1.601
1.60803
1.61675
1.62667
1.63814
1.65088
1.66497
1.68051
1.69748
1.71612
1.73644
1.75864
1.78289
1.80933
1.83828
1.86987
1175.59
1337.57
1471.42
1503.15
1411.79
1266.79
1116.62
966.91
820.628
680.275
548.775
429.113
323.983
236.182
169.956
122.914
89.7051
66.3134
49.8021
38.0739
29.3532
23.699
20.2633
17.9454
16.4185
15.5545
15.3873
16.1866
18.6767
25.5442
48.0432
155.958
933.009
5365.45
2.06808
2.31985
2.78531
3.55391
5.21673
9.21499
18.2161
35.4548
64.002
105.311
158.376
220.558
288.759
360.515
434.718
512.102
595.838
692.883
815.563
1032.73
1215.51
1.91533
1.81232
1.74241
1.69375
1.65905
1.63323
1.61458
1.60292
1.59612
1.5924
1.59112
1.59123
1.59505
1.60024
1.60701
1.6157
1.62556
1.63699
1.64975
1.66385
1.67948
1.69655
1.71529
1.73574
1.75805
1.78242
1.80898
1.83807
1.8698
1418.34
1650.65
1765.23
1681.19
1518.21
1350.39
1183.32
1020.82
864.829
716.795
578.869
453.59
343.418
251.135
181.262
131.428
96.1086
71.1395
53.4585
40.8634
31.8693
25.8921
21.9572
19.2984
17.533
16.5043
16.2366
17.0136
19.609
26.9222
51.0234
167.127
991.567
5441.55
2.02647
2.25131
2.6679
3.34107
4.69691
7.95825
15.5239
30.686
56.8553
96.3561
148.86
211.494
280.557
352.892
426.756
502.241
581.746
670.848
780.487
932.478
1257.11
1522.54
1.89166
1.80221
1.73907
1.69388
1.65905
1.63317
1.61577
1.60391
1.5966
1.59286
1.59133
1.59104
1.5943
1.59949
1.60599
1.61462
1.62444
1.63581
1.64861
1.66275
1.67847
1.69565
1.71449
1.73505
1.75747
1.78197
1.80865
1.83787
1.86972
1850.13
2089.68
2030.6
1839.57
1641.07
1445.9
1258.61
1080.46
912.952
756.159
611.16
479.849
364.332
267.307
193.554
140.728
103.127
76.439
57.4743
44.4983
34.952
28.1628
23.6999
20.683
18.6704
17.4756
17.117
17.8892
20.6547
28.5169
54.6914
180.13
1057.16
5505.08
1.99389
2.19234
2.56334
3.16161
4.27453
6.9178
13.1876
26.3256
49.983
87.1878
138.617
201.726
272.1
345.719
420.119
494.811
571.588
655.111
755.032
889.804
1105.25
1704.09
2173.23
1.87769
1.79804
1.73926
1.69387
1.65896
1.63473
1.61742
1.60521
1.59771
1.5935
1.59151
1.59096
1.59356
1.59875
1.605
1.61352
1.62331
1.63461
1.64749
1.66169
1.6775
1.69478
1.71371
1.73439
1.7569
1.78153
1.80832
1.83767
1.86969
2523.29
2517.86
2289.43
2040.32
1790.08
1561.96
1345.71