/*--------------------------------*- C++ -*----------------------------------*\
  =========                 |
  \\      /  F ield         | OpenFOAM: The Open Source CFD Toolbox
   \\    /   O peration     | Website:  https://openfoam.org
    \\  /    A nd           | Version:  8
     \\/     M anipulation  |
\*---------------------------------------------------------------------------*/
FoamFile
{
    version     2.0;
    format      ascii;
    class       surfaceScalarField;
    location    "0.16";
    object      phi;
}
// * * * * * * * * * * * * * * * * * * * * * * * * * * * * * * * * * * * * * //

dimensions      [0 3 -1 0 0 0 0];

internalField   nonuniform List<scalar> 
31053
(
6.27705e-07
1.27523e-05
8.49585e-07
1.51581e-05
3.76224e-07
1.23761e-05
9.32275e-07
1.75573e-05
5.88699e-07
1.49456e-05
2.69483e-07
1.21066e-05
9.55913e-07
2.02164e-05
7.06809e-07
1.74392e-05
4.64525e-07
1.47506e-05
2.15966e-07
1.18906e-05
9.46907e-07
2.3249e-05
7.66259e-07
2.01569e-05
5.89859e-07
1.73139e-05
3.96077e-07
1.45705e-05
1.72542e-07
1.17181e-05
9.16949e-07
2.669e-05
7.91251e-07
2.3224e-05
6.64823e-07
2.00819e-05
5.23556e-07
1.71864e-05
3.33357e-07
1.44097e-05
1.3797e-07
1.15801e-05
8.71535e-07
3.06654e-05
7.9398e-07
2.66872e-05
7.06747e-07
2.31821e-05
6.04779e-07
2.00007e-05
4.55783e-07
1.7064e-05
2.78618e-07
1.4269e-05
1.10815e-07
1.14693e-05
8.14066e-07
3.51975e-05
7.81347e-07
3.0678e-05
7.26495e-07
2.66675e-05
6.53179e-07
2.31337e-05
5.3708e-07
1.99194e-05
3.91674e-07
1.69509e-05
2.31532e-07
1.41483e-05
8.83492e-08
1.13809e-05
7.47387e-07
4.03867e-05
7.57158e-07
3.52217e-05
7.30379e-07
3.06742e-05
6.7878e-07
2.66419e-05
5.86264e-07
2.30845e-05
4.69008e-07
1.98421e-05
3.32815e-07
1.68496e-05
1.89438e-07
1.40472e-05
6.86484e-08
1.13123e-05
6.73209e-07
4.63542e-05
7.23351e-07
4.04205e-05
7.21641e-07
3.52304e-05
6.87542e-07
3.06654e-05
6.12355e-07
2.66158e-05
5.15484e-07
2.3038e-05
4.03395e-07
1.97715e-05
2.77008e-07
1.67621e-05
1.50407e-07
1.39655e-05
5.05572e-08
1.12617e-05
5.93214e-07
5.322e-05
6.81978e-07
4.63956e-05
7.015e-07
4.04406e-05
6.82986e-07
3.5235e-05
6.21323e-07
3.06564e-05
5.38731e-07
2.65925e-05
4.446e-07
2.29968e-05
3.38343e-07
1.97102e-05
2.22686e-07
1.66898e-05
1.13164e-07
1.39029e-05
3.33056e-08
1.12284e-05
5.09331e-07
6.10639e-05
6.34698e-07
5.32673e-05
6.71239e-07
4.64258e-05
6.6746e-07
4.04562e-05
6.16678e-07
3.52396e-05
5.44533e-07
3.06506e-05
4.62503e-07
2.65746e-05
3.71885e-07
2.29633e-05
2.725e-07
1.96604e-05
1.68792e-07
1.66341e-05
7.67716e-08
1.38594e-05
1.63848e-08
1.12121e-05
4.24075e-07
7.00673e-05
5.83026e-07
6.11156e-05
6.3195e-07
5.33066e-05
6.4162e-07
4.64517e-05
6.00546e-07
4.04723e-05
5.36374e-07
3.52478e-05
4.62472e-07
3.06507e-05
3.82052e-07
2.65645e-05
2.96034e-07
2.29397e-05
2.04923e-07
1.96242e-05
1.14533e-07
1.65964e-05
4.05399e-08
1.38352e-05
-3.63288e-10
1.12124e-05
3.41153e-07
8.04149e-05
5.28004e-07
7.01223e-05
5.84843e-07
6.11627e-05
6.05823e-07
5.33424e-05
5.73948e-07
4.64782e-05
5.16201e-07
4.04925e-05
4.47871e-07
3.52624e-05
3.73627e-07
3.06591e-05
2.96093e-07
2.65644e-05
2.16133e-07
2.29285e-05
1.34938e-07
1.96038e-05
5.92765e-08
1.65776e-05
4.0924e-09
1.38308e-05
-1.72174e-08
1.12296e-05
2.77603e-07
7.62536e-05
4.6969e-07
8.04732e-05
5.31277e-07
7.01758e-05
5.60457e-07
6.1208e-05
5.37246e-07
5.33791e-05
4.8498e-07
4.65095e-05
4.20545e-07
4.05198e-05
3.49795e-07
3.52862e-05
2.76753e-07
3.06784e-05
2.03696e-07
2.65768e-05
1.31511e-07
2.2932e-05
6.20092e-08
1.96011e-05
2.73731e-09
1.6579e-05
-3.27986e-08
1.38464e-05
-3.43111e-08
1.12639e-05
2.26728e-07
7.62409e-05
4.17311e-07
7.63059e-05
4.7264e-07
8.05319e-05
5.06147e-07
7.02302e-05
4.90619e-07
6.12547e-05
4.43063e-07
5.3421e-05
3.81353e-07
4.65487e-05
3.12287e-07
4.05573e-05
2.40928e-07
3.5322e-05
1.70897e-07
3.07112e-05
1.04146e-07
2.66042e-05
4.16375e-08
2.29523e-05
-1.40644e-08
1.96179e-05
-5.536e-08
1.66016e-05
-7.02808e-08
1.38823e-05
-5.1656e-08
1.13156e-05
1.86217e-07
7.62305e-05
3.68203e-07
7.629e-05
4.20365e-07
7.63582e-05
4.44002e-07
8.0594e-05
4.34337e-07
7.02864e-05
3.90588e-07
6.13071e-05
3.30573e-07
5.34718e-05
2.61838e-07
4.65991e-05
1.90179e-07
4.0608e-05
1.20293e-07
3.53726e-05
5.52752e-08
3.07601e-05
-3.10742e-09
2.6649e-05
-5.35909e-08
2.29919e-05
-9.33292e-08
1.96559e-05
-1.14826e-07
1.66461e-05
-1.08257e-07
1.39389e-05
-6.90707e-08
1.13847e-05
1.53639e-07
7.62246e-05
3.22644e-07
7.62761e-05
3.71443e-07
7.63389e-05
3.87465e-07
7.64147e-05
3.69068e-07
8.06593e-05
3.27744e-07
7.03493e-05
2.68282e-07
6.13694e-05
1.98626e-07
5.3535e-05
1.25091e-07
4.66642e-05
5.32082e-08
4.06751e-05
-1.29766e-08
3.54409e-05
-7.06696e-08
3.08277e-05
-1.18111e-07
2.67135e-05
-1.54074e-07
2.30526e-05
-1.75418e-07
1.97165e-05
-1.75441e-07
1.67133e-05
-1.46446e-07
1.40163e-05
-8.64231e-08
1.14711e-05
1.2718e-07
7.62165e-05
2.80969e-07
7.62663e-05
3.25931e-07
7.63216e-05
3.33989e-07
7.63924e-05
3.08652e-07
7.64752e-05
2.55143e-07
8.07319e-05
1.94615e-07
7.04229e-05
1.22674e-07
6.14454e-05
4.57095e-08
5.36144e-05
-2.99712e-08
4.67474e-05
-9.95796e-08
4.07617e-05
-1.5945e-07
3.55296e-05
-2.0699e-07
3.09165e-05
-2.40647e-07
2.68001e-05
-2.59222e-07
2.31364e-05
-2.59787e-07
1.98008e-05
-2.36659e-07
1.68035e-05
-1.84482e-07
1.41144e-05
-1.03457e-07
1.15745e-05
1.05517e-07
7.62117e-05
2.43193e-07
7.62542e-05
2.83862e-07
7.63083e-05
2.84005e-07
7.63716e-05
2.50942e-07
7.64501e-05
1.88023e-07
7.65423e-05
1.10202e-07
8.08163e-05
3.41083e-08
7.05115e-05
-4.80051e-08
6.15391e-05
-1.29371e-07
5.37138e-05
-2.04416e-07
4.68522e-05
-2.68797e-07
4.08711e-05
-3.19181e-07
3.56418e-05
-3.53279e-07
3.10292e-05
-3.69906e-07
2.69107e-05
-3.68171e-07
2.32448e-05
-3.45533e-07
1.99097e-05
-2.9782e-07
1.69168e-05
-2.21882e-07
1.42328e-05
-1.19977e-07
1.16945e-05
8.7667e-08
7.62078e-05
2.09158e-07
7.62457e-05
2.45183e-07
7.62929e-05
2.3778e-07
7.63545e-05
1.96724e-07
7.64258e-05
1.2405e-07
7.65141e-05
3.26592e-08
7.66198e-05
-6.63844e-08
8.09168e-05
-1.55917e-07
7.06194e-05
-2.45113e-07
6.16548e-05
-3.27823e-07
5.38372e-05
-3.98897e-07
4.69823e-05
-4.54463e-07
4.10064e-05
-4.9156e-07
3.57801e-05
-5.0855e-07
3.11678e-05
-5.04713e-07
2.70473e-05
-4.79611e-07
2.33789e-05
-4.31623e-07
2.00435e-05
-3.58126e-07
1.70531e-05
-2.58133e-07
1.43709e-05
-1.3566e-07
1.18302e-05
7.40381e-08
6.95956e-05
1.78656e-07
7.62384e-05
2.09811e-07
7.62811e-05
1.95437e-07
7.63353e-05
1.46501e-07
7.64048e-05
6.4198e-08
7.64856e-05
-4.08405e-08
7.65876e-05
-1.58052e-07
7.67115e-05
-2.77159e-07
8.1038e-05
-3.77035e-07
7.07513e-05
-4.70034e-07
6.1797e-05
-5.5035e-07
5.39886e-05
-6.13409e-07
4.71413e-05
-6.55779e-07
4.11706e-05
-6.75417e-07
3.5947e-05
-6.713e-07
3.13344e-05
-6.43346e-07
2.7211e-05
-5.92091e-07
2.35393e-05
-5.16832e-07
2.02022e-05
-4.16684e-07
1.72116e-05
-2.92626e-07
1.45279e-05
-1.50298e-07
1.19805e-05
6.35593e-08
6.25545e-05
1.53798e-07
6.96205e-05
1.77642e-07
7.62705e-05
1.56988e-07
7.63195e-05
1.00596e-07
7.63812e-05
9.11751e-09
7.64599e-05
-1.09134e-07
7.65539e-05
-2.44405e-07
7.66739e-05
-3.8696e-07
7.68213e-05
-5.2407e-07
8.11851e-05
-6.30879e-07
7.09122e-05
-7.2354e-07
6.19702e-05
-7.96943e-07
5.41721e-05
-8.46959e-07
4.73324e-05
-8.71375e-07
4.13665e-05
-8.68908e-07
3.61446e-05
-8.39377e-07
3.15304e-05
-7.83901e-07
2.74028e-05
-7.03877e-07
2.37264e-05
-5.99831e-07
2.03853e-05
-4.7253e-07
1.73915e-05
-3.24833e-07
1.47024e-05
-1.63489e-07
1.2144e-05
5.53404e-08
5.62262e-05
1.3379e-07
6.25745e-05
1.50868e-07
6.96473e-05
1.22385e-07
7.63051e-05
5.91882e-08
7.63609e-05
-4.07572e-08
7.6431e-05
-1.71399e-07
7.65221e-05
-3.24094e-07
7.66336e-05
-4.89787e-07
7.67767e-05
-6.56416e-07
7.69536e-05
-8.09049e-07
8.13632e-05
-9.18304e-07
7.1107e-05
-1.00564e-06
6.21789e-05
-1.06641e-06
5.43916e-05
-1.09797e-06
4.7559e-05
-1.09904e-06
4.15967e-05
-1.06941e-06
3.63746e-05
-1.0104e-06
3.17569e-05
-9.24113e-07
2.76231e-05
-8.13159e-07
2.39397e-05
-6.79198e-07
2.0592e-05
-5.24744e-07
1.75915e-05
-3.53869e-07
1.48928e-05
-1.74632e-07
1.23186e-05
4.87895e-08
5.05386e-05
1.17583e-07
5.62424e-05
1.28854e-07
6.25965e-05
9.40673e-08
6.96756e-05
2.23713e-08
7.63419e-05
-8.51286e-08
7.64053e-05
-2.2705e-07
7.64867e-05
-3.96108e-07
7.65941e-05
-5.84086e-07
7.67279e-05
-7.79714e-07
7.69e-05
-9.68655e-07
7.71132e-05
-1.13308e-06
8.1578e-05
-1.23938e-06
7.13407e-05
-1.31496e-06
6.24275e-05
-1.35695e-06
5.46506e-05
-1.36382e-06
4.78238e-05
-1.33564e-06
4.18629e-05
-1.27405e-06
3.66383e-05
-1.18156e-06
3.20144e-05
-1.06165e-06
2.78715e-05
-9.17971e-07
2.41785e-05
-7.53575e-07
2.08208e-05
-5.71993e-07
1.78096e-05
-3.79003e-07
1.50972e-05
-1.81488e-07
1.25001e-05
4.34973e-08
4.54253e-05
1.04359e-07
5.05518e-05
1.10686e-07
5.62606e-05
7.12248e-08
6.26193e-05
-7.18999e-09
6.97051e-05
-1.23811e-07
7.63806e-05
-2.75694e-07
7.64539e-05
-4.59699e-07
7.65503e-05
-6.68637e-07
7.66787e-05
-8.92188e-07
7.68404e-05
-1.11676e-06
7.70481e-05
-1.32482e-06
7.7305e-05
-1.49634e-06
8.1835e-05
-1.59256e-06
7.16183e-05
-1.64947e-06
6.272e-05
-1.66553e-06
5.49523e-05
-1.64085e-06
4.8129e-05
-1.57778e-06
4.21666e-05
-1.47942e-06
3.69361e-05
-1.34993e-06
3.23027e-05
-1.19393e-06
2.81475e-05
-1.01646e-06
2.44414e-05
-8.2118e-07
2.107e-05
-6.13354e-07
1.80439e-05
-3.9598e-07
1.53117e-05
-1.51292e-07
1.26514e-05
3.91678e-08
4.08303e-05
9.3492e-08
4.54362e-05
9.56273e-08
5.05668e-05
5.2764e-08
5.62791e-05
-3.04558e-08
6.26426e-05
-1.54078e-07
6.97354e-05
-3.17067e-07
7.6422e-05
-5.14332e-07
7.65086e-05
-7.42498e-07
7.66241e-05
-9.92386e-07
7.67789e-05
-1.25133e-06
7.6975e-05
-1.50226e-06
7.72256e-05
-1.72526e-06
7.75339e-05
-1.89717e-06
8.21396e-05
-1.97562e-06
7.19445e-05
-2.00572e-06
6.30602e-05
-1.98795e-06
5.52994e-05
-1.92511e-06
4.84763e-05
-1.8214e-06
4.25086e-05
-1.68195e-06
3.72682e-05
-1.51228e-06
3.2621e-05
-1.31856e-06
2.84496e-05
-1.10636e-06
2.47265e-05
-8.80555e-07
2.13372e-05
-6.43361e-07
1.82913e-05
-3.9161e-07
1.5552e-05
-1.03476e-07
1.27549e-05
3.55846e-08
3.66996e-05
8.45102e-08
4.08393e-05
8.3109e-08
4.54487e-05
3.78255e-08
5.05818e-05
-4.87156e-08
5.62973e-05
-1.77126e-07
6.26657e-05
-3.48363e-07
6.97667e-05
-5.59633e-07
7.64673e-05
-8.04971e-07
7.65711e-05
-1.07915e-06
7.67109e-05
-1.37064e-06
7.68982e-05
-1.66307e-06
7.71358e-05
-1.93677e-06
7.74371e-05
-2.16823e-06
7.7805e-05
-2.33318e-06
8.24971e-05
-2.38473e-06
7.23235e-05
-2.37894e-06
6.34512e-05
-2.31959e-06
5.56939e-05
-2.21175e-06
4.88667e-05
-2.06219e-06
4.28888e-05
-1.87771e-06
3.76336e-05
-1.66565e-06
3.29681e-05
-1.43279e-06
2.8776e-05
-1.18563e-06
2.50316e-05
-9.26586e-07
2.16204e-05
-6.56501e-07
1.85562e-05
-3.67946e-07
1.58165e-05
-8.05855e-08
1.28354e-05
3.25885e-08
3.2989e-05
7.70512e-08
3.6707e-05
7.26926e-08
4.08497e-05
2.57093e-08
4.54608e-05
-6.30062e-08
5.05961e-05
-1.94484e-07
5.63147e-05
-3.71153e-07
6.26884e-05
-5.92641e-07
6.97997e-05
-8.55553e-07
7.65179e-05
-1.15158e-06
7.66435e-05
-1.47327e-06
7.68135e-05
-1.8052e-06
7.70403e-05
-2.12819e-06
7.73272e-05
-2.41855e-06
7.76874e-05
-2.65134e-06
7.81231e-05
-2.80024e-06
8.29126e-05
-2.81447e-06
7.2759e-05
-2.76377e-06
6.38953e-05
-2.6548e-06
5.61369e-05
-2.49576e-06
4.93003e-05
-2.29554e-06
4.33067e-05
-2.06317e-06
3.80311e-05
-1.80679e-06
3.33421e-05
-1.53409e-06
2.91245e-05
-1.24995e-06
2.5355e-05
-9.55859e-07
2.19198e-05
-6.56849e-07
1.88451e-05
-3.45585e-07
1.60815e-05
-7.66758e-08
1.29121e-05
3.00621e-08
2.96505e-05
7.08238e-08
3.29952e-05
6.40196e-08
3.67157e-05
1.5837e-08
4.08596e-05
-7.41598e-08
4.54719e-05
-2.07388e-07
5.0609e-05
-3.8731e-07
5.63308e-05
-6.15408e-07
6.27112e-05
-8.91062e-07
6.98352e-05
-1.20904e-06
7.65753e-05
-1.55812e-06
7.67283e-05
-1.92695e-06
7.69353e-05
-2.29712e-06
7.72093e-05
-2.64505e-06
7.75537e-05
-2.94529e-06
7.79814e-05
-3.1702e-06
7.84931e-05
-3.29218e-06
8.33904e-05
-3.25875e-06
7.3254e-05
-3.15376e-06
6.43943e-05
-2.98782e-06
5.6629e-05
-2.77176e-06
4.97765e-05
-2.51729e-06
4.37608e-05
-2.23454e-06
3.84589e-05
-1.93275e-06
3.37408e-05
-1.61875e-06
2.94933e-05
-1.29666e-06
2.56958e-05
-9.72919e-07
2.22359e-05
-6.51964e-07
1.91515e-05
-3.34748e-07
1.63396e-05
-8.23986e-08
1.29945e-05
2.79171e-08
2.66501e-05
6.55929e-08
2.96558e-05
5.67805e-08
3.30025e-05
7.75094e-09
3.67238e-05
-8.28472e-08
4.08683e-05
-2.1683e-07
4.54814e-05
-3.9835e-07
5.062e-05
-6.30271e-07
5.63457e-05
-9.14142e-07
6.27343e-05
-1.24802e-06
6.98742e-05
-1.62434e-06
7.66415e-05
-2.02693e-06
7.68283e-05
-2.44151e-06
7.70797e-05
-2.84492e-06
7.74091e-05
-3.21147e-06
7.78198e-05
-3.51241e-06
7.83236e-05
-3.71812e-06
7.8919e-05
-3.80237e-06
8.3934e-05
-3.71036e-06
7.38106e-05
-3.54239e-06
6.49489e-05
-3.31243e-06
5.71697e-05
-3.03487e-06
5.02941e-05
-2.72302e-06
4.42493e-05
-2.38842e-06
3.89145e-05
-2.04016e-06
3.41622e-05
-1.68454e-06
2.98812e-05
-1.32939e-06
2.60523e-05
-9.83337e-07
2.25672e-05
-6.49393e-07
1.94661e-05
-3.34023e-07
1.65912e-05
-1.11441e-07
1.3106e-05
2.60852e-08
2.39558e-05
6.11723e-08
2.66546e-05
5.07124e-08
2.96618e-05
1.10483e-09
3.30091e-05
-8.96023e-08
3.67306e-05
-2.236e-07
4.08751e-05
-4.0548e-07
4.54885e-05
-6.39115e-07
5.06288e-05
-9.27704e-07
5.63593e-05
-1.27187e-06
6.27581e-05
-1.66799e-06
6.99179e-05
-2.10406e-06
7.67187e-05
-2.55965e-06
7.69465e-05
-3.0157e-06
7.72505e-05
-3.44662e-06
7.76443e-05
-3.82281e-06
7.81302e-05
-4.11289e-06
7.87184e-05
-4.28805e-06
7.94047e-05
-4.32278e-06
8.45464e-05
-4.1619e-06
7.44301e-05
-3.92243e-06
6.55589e-05
-3.62293e-06
5.77577e-05
-3.27999e-06
5.0851e-05
-2.90888e-06
4.47697e-05
-2.52163e-06
3.9396e-05
-2.12708e-06
3.46047e-05
-1.73412e-06
3.02859e-05
-1.35323e-06
2.64222e-05
-9.92224e-07
2.29101e-05
-6.50554e-07
1.97827e-05
-4.15746e-07
1.68955e-05
-1.20492e-07
1.32265e-05
2.4513e-08
2.15336e-05
5.74155e-08
2.39596e-05
4.55992e-08
2.66597e-05
-4.36476e-09
2.96673e-05
-9.48444e-08
3.30144e-05
-2.28321e-07
3.67353e-05
-4.09655e-07
4.08792e-05
-6.43439e-07
4.54928e-05
-9.34095e-07
5.06352e-05
-1.28422e-06
5.63716e-05
-1.69327e-06
6.27834e-05
-2.15384e-06
6.99676e-05
-2.65017e-06
7.68092e-05
-3.1553e-06
7.70861e-05
-3.64782e-06
7.74517e-05
-4.09764e-06
7.79191e-05
-4.47188e-06
7.84892e-05
-4.73936e-06
7.91697e-05
-4.87135e-06
7.99533e-05
-4.84508e-06
8.52296e-05
-4.60506e-06
7.51127e-05
-4.2873e-06
6.62233e-05
-3.91345e-06
5.83912e-05
-3.50276e-06
5.14449e-05
-3.07164e-06
4.53198e-05
-2.63226e-06
3.99012e-05
-2.19528e-06
3.50659e-05
-1.77182e-06
3.07045e-05
-1.37219e-06
2.68021e-05
-1.00003e-06
2.32596e-05
-8.05886e-07
2.01728e-05
-4.17542e-07
1.71925e-05
-1.30416e-07
1.33569e-05
2.3158e-08
1.93534e-05
5.42067e-08
2.15368e-05
4.12683e-08
2.39639e-05
-8.87222e-09
2.66642e-05
-9.88995e-08
2.96714e-05
-2.31481e-07
3.30175e-05
-4.11628e-07
3.67372e-05
-6.44425e-07
4.08802e-05
-9.35178e-07
4.54939e-05
-1.28795e-06
5.0639e-05
-1.70461e-06
5.63829e-05
-2.18138e-06
6.2811e-05
-2.7078e-06
7.00253e-05
-3.26202e-06
7.69159e-05
-3.81254e-06
7.72508e-05
-4.33345e-06
7.76875e-05
-4.79077e-06
7.8238e-05
-5.15116e-06
7.8901e-05
-5.38272e-06
7.9681e-05
-5.45887e-06
8.05671e-05
-5.35982e-06
8.59843e-05
-5.03233e-06
7.58578e-05
-4.63028e-06
6.69401e-05
-4.17902e-06
5.90674e-05
-3.69967e-06
5.20729e-05
-3.20927e-06
4.58968e-05
-2.72131e-06
4.04272e-05
-2.24816e-06
3.55422e-05
-1.80079e-06
3.11331e-05
-1.38657e-06
2.71887e-05
-1.24198e-06
2.36957e-05
-8.01379e-07
2.05566e-05
-4.19228e-07
1.74813e-05
-1.38235e-07
1.34951e-05
1.73972e-05
2.19872e-08
5.14538e-08
1.93561e-05
3.75823e-08
2.15405e-05
-1.25955e-08
2.39676e-05
-1.02023e-07
2.66673e-05
-2.3346e-07
2.96733e-05
-4.11981e-07
3.30179e-05
-6.42995e-07
3.67358e-05
-9.32417e-07
4.08775e-05
-1.28539e-06
4.54914e-05
-1.70559e-06
5.064e-05
-2.1921e-06
5.63937e-05
-2.73872e-06
6.28419e-05
-3.32956e-06
7.00928e-05
-3.93864e-06
7.7042e-05
-4.5272e-06
7.74445e-05
-5.06551e-06
7.79622e-05
-5.51847e-06
7.86053e-05
-5.85113e-06
7.93695e-05
-6.03314e-06
8.02553e-05
-6.04027e-06
8.12475e-05
-5.8585e-06
8.68105e-05
-5.43598e-06
7.66635e-05
-4.94562e-06
6.77067e-05
-4.41566e-06
5.97834e-05
-3.86837e-06
5.2732e-05
-3.32197e-06
4.64974e-05
-2.79121e-06
4.09702e-05
-2.28812e-06
3.60295e-05
-1.82142e-06
3.15679e-05
-1.72466e-06
2.76713e-05
-1.23441e-06
2.41287e-05
-7.93629e-07
2.0931e-05
-4.18537e-07
1.77616e-05
-1.43251e-07
1.36384e-05
1.73995e-05
4.90751e-08
2.78119e-05
2.00888e-08
3.44319e-08
1.93593e-05
-1.568e-08
2.15436e-05
-1.04415e-07
2.397e-05
-2.34553e-07
2.66684e-05
-4.11169e-07
2.96725e-05
-6.39861e-07
3.30147e-05
-9.26951e-07
3.67304e-05
-1.27834e-06
4.08704e-05
-1.69903e-06
4.54848e-05
-2.19034e-06
5.06382e-05
-2.74942e-06
5.64043e-05
-3.36526e-06
6.28776e-05
-4.01856e-06
7.01727e-05
-4.67625e-06
7.71911e-05
-5.29248e-06
7.76715e-05
-5.8366e-06
7.82803e-05
-6.27098e-06
7.90252e-05
-6.56152e-06
7.98978e-05
-6.67951e-06
8.08945e-05
-6.60618e-06
8.19952e-05
-6.33229e-06
8.77068e-05
-5.80936e-06
7.75272e-05
-5.2287e-06
6.85197e-05
-4.62049e-06
6.05356e-05
-4.0083e-06
5.34184e-05
-3.41131e-06
4.71175e-05
-2.84371e-06
4.15258e-05
-2.31561e-06
3.65237e-05
-2.26649e-06
3.21098e-05
-1.71517e-06
2.81521e-05
-1.21888e-06
2.45539e-05
-7.81527e-07
2.1294e-05
-4.14403e-07
1.80328e-05
-1.45649e-07
1.3784e-05
1.74022e-05
3.17322e-08
2.78158e-05
4.52111e-08
2.85518e-05
1.82832e-08
-1.82431e-08
1.93618e-05
-1.06235e-07
2.15454e-05
-2.34988e-07
2.39705e-05
-4.09539e-07
2.66668e-05
-6.35572e-07
2.96682e-05
-9.19654e-07
3.30074e-05
-1.2682e-06
3.67202e-05
-1.68718e-06
4.08586e-05
-2.17956e-06
4.5474e-05
-2.74513e-06
5.06339e-05
-3.37682e-06
5.64159e-05
-4.06083e-06
6.29199e-05
-4.77143e-06
7.02679e-05
-5.46844e-06
7.7367e-05
-6.10124e-06
7.79361e-05
-6.63688e-06
7.86462e-05
-7.03776e-06
7.95014e-05
-7.2706e-06
8.04889e-05
-7.31169e-06
8.16e-05
-7.14672e-06
8.28096e-05
-6.77344e-06
8.86709e-05
-6.14699e-06
7.84455e-05
-5.4759e-06
6.93751e-05
-4.79218e-06
6.13194e-05
-4.12022e-06
5.41273e-05
-3.47845e-06
4.77523e-05
-2.87933e-06
4.20896e-05
-2.88195e-06
3.71392e-05
-2.25442e-06
3.2649e-05
-1.69268e-06
2.86259e-05
-1.19564e-06
2.49681e-05
-7.64484e-07
2.16441e-05
-4.06882e-07
1.8294e-05
-1.45703e-07
1.39297e-05
1.74044e-05
-2.03817e-08
2.78195e-05
2.8024e-08
2.85555e-05
4.14856e-08
2.93117e-05
1.65701e-08
-1.07606e-07
1.93632e-05
-2.34945e-07
2.15453e-05
-4.07358e-07
2.39683e-05
-6.30544e-07
2.66617e-05
-9.11196e-07
2.96598e-05
-1.25605e-06
3.29953e-05
-1.67175e-06
3.67048e-05
-2.16248e-06
4.08415e-05
-2.73004e-06
4.54589e-05
-3.37047e-06
5.06276e-05
-4.07448e-06
5.64295e-05
-4.82248e-06
6.29709e-05
-5.58219e-06
7.03817e-05
-6.30848e-06
7.75743e-05
-6.94377e-06
7.8243e-05
-7.4557e-06
7.90642e-05
-7.8066e-06
8.00374e-05
-7.96755e-06
8.11448e-05
-7.91883e-06
8.23721e-05
-7.65313e-06
8.36893e-05
-7.17541e-06
8.96993e-05
-6.44433e-06
7.94139e-05
-5.6851e-06
7.02681e-05
-4.93073e-06
6.213e-05
-4.20473e-06
5.48536e-05
-3.52392e-06
4.83969e-05
-3.58439e-06
4.2792e-05
-2.86675e-06
3.77515e-05
-2.22429e-06
3.31806e-05
-1.65853e-06
2.90888e-05
-1.16503e-06
2.53686e-05
-7.42871e-07
2.19801e-05
-3.96315e-07
1.85446e-05
-1.4381e-07
1.40735e-05
1.74054e-05
-1.08629e-07
2.78213e-05
-2.22213e-08
2.8559e-05
2.45563e-08
2.93153e-05
3.7914e-08
3.00896e-05
1.4951e-08
-2.34558e-07
1.93628e-05
-4.04827e-07
2.15428e-05
-6.2509e-07
2.39628e-05
-9.02079e-07
2.66526e-05
-1.24271e-06
2.96464e-05
-1.65406e-06
3.29776e-05
-2.1412e-06
3.66835e-05
-2.70744e-06
4.08189e-05
-3.35121e-06
4.54397e-05
-4.06685e-06
5.06199e-05
-4.83986e-06
5.64469e-05
-5.64472e-06
6.30334e-05
-6.44463e-06
7.05178e-05
-7.18696e-06
7.78175e-05
-7.80949e-06
7.85968e-05
-8.28059e-06
7.95382e-05
-8.56616e-06
8.0636e-05
-8.64066e-06
8.18666e-05
-8.49119e-06
8.32102e-05
-8.11784e-06
8.46318e-05
-7.53257e-06
9.07875e-05
-6.69837e-06
8.04272e-05
-5.85554e-06
7.11929e-05
-5.03622e-06
6.29614e-05
-4.26235e-06
5.5592e-05
-4.38846e-06
4.92009e-05
-3.56601e-06
4.34913e-05
-2.82807e-06
3.83553e-05
-2.17839e-06
3.37005e-05
-1.61399e-06
2.95378e-05
-1.12806e-06
2.57538e-05
-7.17366e-07
2.23011e-05
-3.83232e-07
1.87841e-05
-1.40387e-07
1.42139e-05
1.74048e-05
-2.33935e-07
2.78197e-05
-1.07007e-07
2.85606e-05
-2.37735e-08
2.93185e-05
2.13221e-08
3.0093e-05
3.4499e-08
3.08895e-05
1.34262e-08
-4.02098e-07
1.93601e-05
-6.19443e-07
2.15371e-05
-8.92677e-07
2.39534e-05
-1.22878e-06
2.66387e-05
-1.63511e-06
2.96275e-05
-2.11733e-06
3.29537e-05
-2.67985e-06
3.66559e-05
-3.32296e-06
4.07906e-05
-4.04384e-06
4.54167e-05
-4.83212e-06
5.06122e-05
-5.66795e-06
5.64702e-05
-6.52183e-06
6.31106e-05
-7.34976e-06
7.06806e-05
-8.09359e-06
7.81016e-05
-8.68587e-06
7.90021e-05
-9.09987e-06
8.00719e-05
-9.30405e-06
8.12994e-05
-9.27932e-06
8.26548e-05
-9.0202e-06
8.41126e-05
-8.53415e-06
8.56333e-05
-7.84084e-06
9.193e-05
-6.90753e-06
8.14792e-05
-5.98675e-06
7.21434e-05
-5.10907e-06
6.38082e-05
-5.31092e-06
5.65144e-05
-4.36733e-06
5.00023e-05
-3.51809e-06
4.41813e-05
-2.76908e-06
3.8946e-05
-2.11879e-06
3.42053e-05
-1.56079e-06
2.99705e-05
-1.08593e-06
2.61224e-05
-6.88814e-07
2.26067e-05
-3.68218e-07
1.90119e-05
-1.35815e-07
1.43497e-05
1.7402e-05
-3.99282e-07
2.7813e-05
-2.27262e-07
2.85585e-05
-1.04977e-07
2.93198e-05
-2.5025e-08
3.0096e-05
1.83251e-08
3.08928e-05
3.12458e-08
3.17094e-05
1.19947e-08
-6.13775e-07
1.93544e-05
-8.83263e-07
2.15277e-05
-1.21472e-06
2.39394e-05
-1.61564e-06
2.66192e-05
-2.09208e-06
2.96022e-05
-2.64923e-06
3.29231e-05
-3.28878e-06
3.66217e-05
-4.01009e-06
4.07569e-05
-4.80614e-06
4.53907e-05
-5.66173e-06
5.0606e-05
-6.55358e-06
5.65019e-05
-7.44538e-06
6.32063e-05
-8.28771e-06
7.08747e-05
-9.01594e-06
7.84316e-05
-9.56107e-06
7.94633e-05
-9.90057e-06
8.06684e-05
-1.00088e-05
8.20289e-05
-9.874e-06
8.35086e-05
-9.49816e-06
8.50766e-05
-8.89703e-06
8.66895e-05
-8.09778e-06
9.31203e-05
-7.07074e-06
8.25632e-05
-6.07893e-06
7.31133e-05
-6.3706e-06
6.48678e-05
-5.28806e-06
5.74352e-05
-4.30977e-06
5.07939e-05
-3.44472e-06
4.48569e-05
-2.69276e-06
3.952e-05
-2.04796e-06
3.46925e-05
-1.50078e-06
3.03853e-05
-1.03997e-06
2.64735e-05
-6.58063e-07
2.28966e-05
-3.51838e-07
1.92279e-05
-1.30425e-07
1.44801e-05
1.73964e-05
-6.08207e-07
2.77995e-05
-3.85761e-07
2.85513e-05
-2.2006e-07
2.93174e-05
-1.02559e-07
3.0097e-05
-2.59736e-08
3.08955e-05
1.55635e-08
3.17125e-05
2.81586e-08
3.25533e-05
1.06586e-08
-8.74036e-07
1.93452e-05
-1.20086e-06
2.15139e-05
-1.5962e-06
2.39199e-05
-2.06635e-06
2.65935e-05
-2.61705e-06
2.957e-05
-3.25099e-06
3.28853e-05
-3.96923e-06
3.65809e-05
-4.76735e-06
4.07181e-05
-5.63398e-06
4.53629e-05
-6.55101e-06
5.06034e-05
-7.48883e-06
5.65454e-05
-8.40597e-06
6.33245e-05
-9.24636e-06
7.11052e-05
-9.94226e-06
7.88128e-05
-1.04217e-05
7.99845e-05
-1.06706e-05
8.13302e-05
-1.06701e-05
8.2825e-05
-1.0416e-05
8.44264e-05
-9.91903e-06
8.60986e-05
-9.20326e-06
8.7795e-05
-8.30166e-06
9.43512e-05
-7.18788e-06
8.36721e-05
-7.58713e-06
7.43298e-05
-6.34779e-06
6.59276e-05
-5.22079e-06
5.83462e-05
-4.22083e-06
5.157e-05
-3.34985e-06
4.5514e-05
-2.60236e-06
4.00744e-05
-1.96844e-06
3.51601e-05
-1.43583e-06
3.07812e-05
-9.91373e-07
2.68068e-05
-6.25904e-07
2.31706e-05
-3.34603e-07
1.94321e-05
-1.24477e-07
1.46046e-05
1.73875e-05
-8.65129e-07
2.77771e-05
-5.85827e-07
2.85371e-05
-3.71515e-07
2.93096e-05
-2.1228e-07
3.00941e-05
-9.97182e-08
3.08962e-05
-2.66193e-08
3.1715e-05
1.30369e-08
3.25563e-05
2.52356e-08
3.34192e-05
9.41457e-09
-1.18742e-06
1.93317e-05
-1.57717e-06
2.14948e-05
-2.0408e-06
2.38944e-05
-2.5844e-06
2.65609e-05
-3.21137e-06
2.95304e-05
-3.92404e-06
3.28401e-05
-4.72004e-06
3.65336e-05
-5.59102e-06
4.06751e-05
-6.52319e-06
4.53351e-05
-7.49262e-06
5.06072e-05
-8.46487e-06
5.66043e-05
-9.39192e-06
6.34701e-05
-1.02142e-05
7.13771e-05
-1.0859e-05
7.92501e-05
-1.12553e-05
8.05692e-05
-1.13988e-05
8.20589e-05
-1.12782e-05
8.36873e-05
-1.08982e-05
8.54056e-05
-1.02787e-05
8.71741e-05
-9.45039e-06
8.89437e-05
-8.45196e-06
9.56153e-05
-8.98238e-06
8.50674e-05
-7.56735e-06
7.55494e-05
-6.27123e-06
6.6978e-05
-5.11521e-06
5.92406e-05
-4.10547e-06
5.23257e-05
-3.23757e-06
4.61492e-05
-2.5011e-06
4.0607e-05
-1.88267e-06
3.5607e-05
-1.36761e-06
3.11574e-05
-9.41234e-07
2.71221e-05
-5.93054e-07
2.34291e-05
-3.16905e-07
1.96245e-05
-1.182e-07
1.47228e-05
1.73746e-05
-1.17455e-06
2.77435e-05
-8.31529e-07
2.85138e-05
-5.62551e-07
2.92947e-05
-3.56602e-07
3.00859e-05
-2.04007e-07
3.08929e-05
-9.64805e-08
3.17154e-05
-2.69584e-08
3.25586e-05
1.07449e-08
3.3422e-05
2.24811e-08
3.43052e-05
8.26151e-09
-1.55883e-06
1.93134e-05
-2.01591e-06
2.14699e-05
-2.55207e-06
2.38621e-05
-3.17122e-06
2.65207e-05
-3.87663e-06
2.9483e-05
-4.66746e-06
3.27875e-05
-5.53782e-06
3.64804e-05
-6.47738e-06
4.06293e-05
-7.46698e-06
4.53095e-05
-8.47829e-06
5.06206e-05
-9.47055e-06
5.66829e-05
-1.03921e-05
6.3648e-05
-1.11777e-05
7.16958e-05
-1.17533e-05
7.97481e-05
-1.205e-05
8.12203e-05
-1.20746e-05
8.28553e-05
-1.18251e-05
8.46141e-05
-1.13158e-05
8.64426e-05
-1.0574e-05
8.82977e-05
-9.63735e-06
9.01291e-05
-1.05799e-05
9.72128e-05
-8.97096e-06
8.6471e-05
-7.48301e-06
7.67611e-05
-6.14823e-06
6.8011e-05
-4.97735e-06
6.01124e-05
-3.96876e-06
5.30569e-05
-3.1119e-06
4.676e-05
-2.39207e-06
4.11164e-05
-1.79281e-06
3.60322e-05
-1.29757e-06
3.15138e-05
-8.90532e-07
2.74196e-05
-5.60035e-07
2.36722e-05
-2.99106e-07
1.98054e-05
-1.11775e-07
1.48346e-05
1.73572e-05
-1.54136e-06
2.76963e-05
-1.12732e-06
2.84791e-05
-7.96812e-07
2.92704e-05
-5.3834e-07
3.00702e-05
-3.4096e-07
3.08841e-05
-1.95189e-07
3.17117e-05
-9.28405e-08
3.25586e-05
-2.69985e-08
3.34241e-05
8.68083e-09
3.43077e-05
1.98938e-08
3.52191e-05
7.19823e-09
-1.99199e-06
1.92895e-05
-2.52063e-06
2.14385e-05
-3.13152e-06
2.38224e-05
-3.82857e-06
2.64727e-05
-4.61214e-06
2.94277e-05
-5.47822e-06
3.27279e-05
-6.41929e-06
3.64223e-05
-7.42014e-06
4.05825e-05
-8.45762e-06
4.52888e-05
-9.49741e-06
5.06475e-05
-1.04952e-05
5.6786e-05
-1.13932e-05
6.38635e-05
-1.2124e-05
7.20665e-05
-1.26129e-05
8.0311e-05
-1.27943e-05
8.194e-05
-1.26891e-05
8.37193e-05
-1.23049e-05
8.56032e-05
-1.16645e-05
8.75331e-05
-1.08032e-05
8.94636e-05
-1.20859e-05
9.16351e-05
-1.05859e-05
9.88277e-05
-8.8826e-06
8.78706e-05
-7.34277e-06
7.79557e-05
-5.98604e-06
6.90197e-05
-4.81344e-06
6.09571e-05
-3.81563e-06
5.37606e-05
-2.97664e-06
4.73446e-05
-2.27797e-06
4.16016e-05
-1.70075e-06
3.64353e-05
-1.22703e-06
3.18503e-05
-8.39963e-07
2.76996e-05
-5.27349e-07
2.39005e-05
-2.8149e-07
1.99751e-05
-1.05332e-07
1.49399e-05
1.73344e-05
-1.96926e-06
2.76324e-05
-1.47744e-06
2.84305e-05
-1.0787e-06
2.92347e-05
-7.61056e-07
3.00451e-05
-5.13262e-07
3.08678e-05
-3.24662e-07
3.17024e-05
-1.85866e-07
3.25546e-05
-8.88143e-08
3.34238e-05
-2.67369e-08
3.43096e-05
6.84216e-09
3.52215e-05
1.74711e-08
3.6155e-05
6.22149e-09
-2.49047e-06
1.92593e-05
-3.09292e-06
2.13999e-05
-3.781e-06
2.37748e-05
-4.55593e-06
2.64164e-05
-5.41515e-06
2.93646e-05
-6.35339e-06
3.2662e-05
-7.35864e-06
3.63608e-05
-8.41213e-06
4.0537e-05
-9.4851e-06
4.52765e-05
-1.05398e-05
5.06921e-05
-1.15258e-05
5.69186e-05
-1.23825e-05
6.41219e-05
-1.30405e-05
7.24941e-05
-1.34257e-05
8.09424e-05
-1.34786e-05
8.27296e-05
-1.32353e-05
8.46497e-05
-1.27126e-05
8.66513e-05
-1.1942e-05
8.8672e-05
-1.35763e-05
9.0954e-05
-1.21171e-05
9.31664e-05
-1.05002e-05
0.000100445
-8.72716e-06
8.92549e-05
-7.15529e-06
7.91249e-05
-5.79221e-06
6.99985e-05
-4.62945e-06
6.17709e-05
-3.6507e-06
5.44346e-05
-2.83512e-06
4.79018e-05
-2.16117e-06
4.2062e-05
-1.60818e-06
3.68165e-05
-1.1569e-06
3.21672e-05
-7.90206e-07
2.79624e-05
-4.95377e-07
2.41144e-05
-2.64248e-07
2.01341e-05
-9.89746e-08
1.50389e-05
1.73058e-05
-2.46184e-06
2.75485e-05
-1.88545e-06
2.83647e-05
-1.4117e-06
2.91845e-05
-1.02852e-06
3.00082e-05
-7.24073e-07
3.08419e-05
-4.87311e-07
3.16855e-05
-3.07733e-07
3.25447e-05
-1.7605e-07
3.34194e-05
-8.44093e-08
3.4309e-05
-2.61788e-08
3.52231e-05
5.22139e-09
3.61572e-05
1.52093e-08
3.65889e-05
5.33941e-09
-3.05592e-06
1.92223e-05
-3.73475e-06
2.13537e-05
-4.5002e-06
2.37191e-05
-5.35083e-06
2.63521e-05
-6.2831e-06
2.92943e-05
-7.28762e-06
3.2591e-05
-8.34923e-06
3.62979e-05
-9.44393e-06
4.04958e-05
-1.05398e-05
4.52765e-05
-1.15931e-05
5.07593e-05
-1.25499e-05
5.7086e-05
-1.33471e-05
6.44286e-05
-1.39146e-05
7.29831e-05
-1.41812e-05
8.1645e-05
-1.4095e-05
8.35893e-05
-1.37074e-05
8.56445e-05
-1.3045e-05
8.77542e-05
-1.50428e-05
9.01385e-05
-1.36427e-05
9.24796e-05
-1.20428e-05
9.4709e-05
-1.03341e-05
0.000102052
-8.51456e-06
9.06142e-05
-6.92945e-06
8.02622e-05
-5.57392e-06
7.0943e-05
-4.43098e-06
6.25512e-05
-3.47802e-06
5.50775e-05
-2.69024e-06
4.84308e-05
-2.04376e-06
4.24976e-05
-1.51624e-06
3.71758e-05
-1.08806e-06
3.24651e-05
-7.41763e-07
2.82088e-05
-4.64365e-07
2.43145e-05
-2.47544e-07
2.02826e-05
-9.27857e-08
1.51317e-05
1.72707e-05
-3.0208e-06
2.74414e-05
-2.35472e-06
2.82791e-05
-1.79985e-06
2.91172e-05
-1.34444e-06
2.99567e-05
-9.77093e-07
3.08039e-05
-6.86141e-07
3.16587e-05
-4.60546e-07
3.25272e-05
-2.90152e-07
3.34091e-05
-1.65767e-07
3.43043e-05
-7.96439e-08
3.52223e-05
-2.53236e-08
3.61586e-05
3.81365e-09
3.6591e-05
1.31319e-08
3.55528e-05
4.57227e-09
-3.69038e-06
1.9178e-05
-4.44594e-06
2.12994e-05
-5.28688e-06
2.36551e-05
-6.211e-06
2.628e-05
-7.21102e-06
2.92177e-05
-8.27474e-06
3.25165e-05
-9.38217e-06
3.62361e-05
-1.05064e-05
4.04624e-05
-1.16097e-05
4.52932e-05
-1.26448e-05
5.08542e-05
-1.35547e-05
5.72936e-05
-1.42745e-05
6.47885e-05
-1.47354e-05
7.35373e-05
-1.48708e-05
8.24207e-05
-1.46369e-05
8.45187e-05
-1.41015e-05
8.6701e-05
-1.64753e-05
8.91868e-05
-1.51561e-05
9.16518e-05
-1.35901e-05
9.40269e-05
-1.18752e-05
9.62501e-05
-1.0099e-05
0.000103637
-8.25523e-06
9.194e-05
-6.67366e-06
8.13619e-05
-5.3379e-06
7.18499e-05
-4.22293e-06
6.32961e-05
-3.30113e-06
5.56884e-05
-2.5446e-06
4.89317e-05
-1.92719e-06
4.29085e-05
-1.42607e-06
3.75138e-05
-1.02116e-06
3.27445e-05
-6.94942e-07
2.84394e-05
-4.34521e-07
2.45014e-05
-2.31501e-07
2.04213e-05
-8.68203e-08
1.52185e-05
1.72286e-05
-3.64827e-06
2.73082e-05
-2.88754e-06
2.817e-05
-2.24559e-06
2.90295e-05
-1.71208e-06
2.98879e-05
-1.27559e-06
3.07512e-05
-9.24367e-07
3.16198e-05
-6.47193e-07
3.24997e-05
-4.33086e-07
3.3391e-05
-2.72041e-07
3.42936e-05
-1.55071e-07
3.52172e-05
-7.45454e-08
3.61575e-05
-2.41953e-08
3.65921e-05
2.62433e-09
3.55546e-05
1.12992e-08
3.45447e-05
3.90331e-09
-4.39383e-06
1.91258e-05
-5.22445e-06
2.1237e-05
-6.13902e-06
2.35831e-05