/*--------------------------------*- C++ -*----------------------------------*\
  =========                 |
  \\      /  F ield         | OpenFOAM: The Open Source CFD Toolbox
   \\    /   O peration     | Website:  https://openfoam.org
    \\  /    A nd           | Version:  8
     \\/     M anipulation  |
\*---------------------------------------------------------------------------*/
FoamFile
{
    version     2.0;
    format      ascii;
    class       volScalarField;
    location    "1600";
    object      p;
}
// * * * * * * * * * * * * * * * * * * * * * * * * * * * * * * * * * * * * * //

dimensions      [0 2 -2 0 0 0 0];

internalField   nonuniform List<scalar> 
15677
(
77.8492
74.8319
74.9215
74.8106
73.9631
74.3854
75.0364
74.4827
74.199
74.2374
75
74.5361
74.4012
74.2196
74.0967
74.9383
74.479
74.3286
74.2607
74.1034
73.9777
74.8972
74.478
74.3149
74.221
74.1065
73.984
73.8562
74.8591
74.4848
74.3271
74.2334
74.0985
73.9833
73.8601
73.7128
74.8186
74.4859
74.3296
74.2372
74.1093
73.9851
73.8611
73.7153
73.5408
74.7766
74.485
74.3294
74.2352
74.1096
73.9901
73.8641
73.7177
73.5427
73.3331
74.7336
74.4837
74.3299
74.2345
74.1104
73.9909
73.8667
73.7204
73.5454
73.3346
73.0813
74.6899
74.4814
74.3304
74.2342
74.1124
73.9932
73.8686
73.7226
73.5481
73.3373
73.0827
72.7779
74.6461
74.4772
74.3308
74.234
74.1144
73.9957
73.8713
73.7253
73.5506
73.3403
73.0854
72.779
72.4138
74.6029
74.4706
74.331
74.2341
74.1169
73.9986
73.874
73.7283
73.5539
73.3434
73.0889
72.7816
72.4145
71.98
74.5648
74.4615
74.331
74.2346
74.1203
74.0023
73.8775
73.7318
73.5575
73.3472
73.0925
72.7856
72.4171
71.9805
71.4688
74.5331
74.4509
74.3306
74.2358
74.1246
74.0073
73.8822
73.7363
73.562
73.3517
73.097
72.7899
72.4216
71.9831
71.469
70.8728
74.5058
74.4402
74.3298
74.2377
74.1304
74.0139
73.8885
73.7424
73.5679
73.3574
73.1026
72.7953
72.4267
71.9882
71.4717
70.8728
70.1855
74.4824
74.4295
74.3288
74.2401
74.1376
74.0226
73.8972
73.7509
73.5759
73.365
73.1099
72.8022
72.4333
71.9943
71.4773
70.8756
70.1853
69.4012
74.4622
74.4193
74.3277
74.2429
74.1457
74.0341
73.9091
73.7626
73.5872
73.3757
73.1198
72.8113
72.4417
72.0022
71.4847
70.8818
70.188
69.4007
68.5153
74.4447
74.4096
74.3266
74.2461
74.1541
74.0472
73.9248
73.7786
73.6027
73.3904
73.1336
72.8239
72.453
72.0124
71.4941
70.8904
70.1949
69.4034
68.5144
67.5248
74.4296
74.4007
74.3255
74.2496
74.163
74.0611
73.9434
73.8
73.6241
73.411
73.1528
72.8416
72.4689
72.0264
71.5064
70.9016
70.2049
69.411
68.5172
67.5236
66.4284
74.4171
74.3925
74.3245
74.2535
74.1722
74.0759
73.9632
73.8256
73.653
73.4392
73.1796
72.8663
72.4912
72.0461
71.5235
70.9163
70.218
69.4224
68.5255
67.5264
66.4268
65.2262
74.4072
74.3855
74.3237
74.2576
74.1819
74.0914
73.9846
73.8532
73.6876
73.4775
73.2165
72.9008
72.5225
72.0739
71.5475
70.9367
70.2352
69.4375
68.5383
67.5353
66.4296
65.2242
63.92
74.3993
74.3798
74.3231
74.2621
74.1919
74.1076
74.0072
73.883
73.7251
73.5236
73.2665
72.9482
72.5662
72.113
71.5817
70.9656
70.2592
69.4573
68.5554
67.5496
66.4391
65.227
63.9177
62.5136
74.3929
74.3751
74.3228
74.2666
74.2021
74.1242
74.031
73.9148
73.7658
73.5736
73.3269
73.0127
72.6264
72.1676
71.6298
71.0068
70.2934
69.485
68.578
67.5686
66.4546
65.237
63.9204
62.5109
61.0122
74.3877
74.3712
74.3226
74.2708
74.212
74.1413
74.0556
73.9482
73.8093
73.6281
73.3927
73.0907
72.7083
72.2429
71.6969
71.065
70.3423
69.5248
68.6095
67.5938
66.4755
65.2537
63.9308
62.5135
61.009
59.4224
74.3834
74.3681
74.3225
74.2746
74.2211
74.1578
74.0809
73.983
73.8552
73.6865
73.4645
73.1758
72.8075
72.3454
71.7896
71.1464
70.4116
69.582
68.655
67.6291
66.5032
65.2762
63.9485
62.5242
61.0114
59.4189
57.7524
74.3798
74.3655
74.3225
74.2782
74.2293
74.1729
74.1055
74.0187
73.9029
73.7482
73.5415
73.2689
72.916
72.4698
71.9161
71.2589
70.5087
69.6632
68.7207
67.6803
66.542
65.306
63.9724
62.5427
61.0223
59.421
57.7484
56.011
74.3769
74.3633
74.3227
74.2813
74.2366
74.1864
74.1279
74.0536
73.9522
73.8126
73.6231
73.369
73.0349
72.6061
72.0699
71.4126
70.6432
69.7773
68.8144
67.7545
66.5986
65.3479
64.0039
62.5675
61.0413
59.4318
57.7503
56.0067
54.2089
74.3744
74.3615
74.3228
74.2842
74.2431
74.1985
74.1481
74.0854
74.0003
73.879
73.7083
73.4751
73.163
72.7558
72.2386
71.5999
70.8272
69.9356
68.9464
67.8611
66.6814
65.4096
64.0485
62.6002
61.0667
59.451
57.7609
56.0082
54.2043
52.3552
74.3723
74.3599
74.323
74.2867
74.2489
74.2092
74.1661
74.1141
74.0443
73.944
73.7965
73.5862
73.299
72.9173
72.4243
71.8058
71.0521
70.1529
69.1303
68.0118
66.8007
65.5004
64.1146
62.6468
61.1
59.4765
57.7799
56.0184
54.2053
52.3503
50.2539
74.3705
74.3586
74.3232
74.289
74.2541
74.2188
74.1822
74.1397
74.0839
74.0035
73.8827
73.7012
73.4416
73.0891
72.625
72.0328
71.2999
70.4192
69.3833
68.2223
66.9702
65.6321
64.2126
62.7164
61.1477
59.5097
57.8049
56.0369
54.215
52.3507
50.249
47.8913
74.369
74.3575
74.3234
74.2911
74.2587
74.2273
74.1964
74.1626
74.1194
74.0572
73.9619
73.8139
73.5895
73.2695
72.8389
72.2788
71.5737
70.7133
69.6943
68.5127
67.2077
65.82
64.3557
62.8206
61.2197
59.5576
57.8373
56.0608
54.2326
52.3595
50.2489
47.8859
45.5044
74.3676
74.3566
74.3237
74.2929
74.2628
74.2348
74.2091
74.1829
74.1511
74.1054
74.0333
73.9175
73.7347
73.4569
73.064
72.5415
71.8711
71.0391
70.0385
68.8709
67.5366
66.0843
64.5611
62.9739
61.3288
59.6307
57.8842
56.0915
54.2548
52.3757
50.2568
47.885
45.4986
43.1232
74.3665
74.3558
74.3239
74.2945
74.2664
74.2415
74.2203
74.201
74.1793
74.1483
74.0974
74.0111
73.8682
73.6412
73.2983
72.8186
72.1895
71.3939
70.4211
69.2687
67.9438
66.4519
64.8514
63.1953
61.4906
59.743
57.9571
56.1364
54.2829
52.3956
50.2713
47.8917
45.4968
43.1171
40.7729
74.3551
74.3652
74.3241
74.296
74.2696
74.2474
74.2303
74.217
74.2043
74.1865
74.1546
74.0951
73.989
73.811
73.5291
73.1076
72.526
71.7746
70.8389
69.712
68.3975
66.9088
65.2568
63.5098
61.7259
59.9113
58.0707
56.2075
54.3246
52.4202
50.2882
47.9039
45.5016
43.1143
40.7666
38.4679
74.3243
74.3543
74.3636
74.2973
74.2725
74.2526
74.2391
74.2311
74.2265
74.2205
74.2056
74.1702
74.0976
73.9648
73.7421
73.3929
72.8779
72.1782
71.2885
70.1977
68.9048
67.4197
65.763
63.9512
62.0622
60.158
58.2432
56.3204
54.3923
52.4574
50.3085
47.9165
45.5106
43.1171
40.7628
38.4614
36.2201
74.2984
74.3247
74.3535
74.3621
74.2751
74.2573
74.2469
74.2437
74.2461
74.2506
74.2509
74.2372
74.1947
74.1032
73.9354
73.6568
73.2262
72.6014
71.7665
70.7221
69.4625
67.9931
66.3311
64.505
62.5367
60.5129
58.4981
56.4943
54.5024
52.52
50.3396
47.9302
45.5178
43.1227
40.7636
38.4566
36.2134
34.0405
74.2773
74.3001
74.3253
74.3526
74.3607
74.2615
74.2539
74.2549
74.2636
74.2773
74.2912
74.2967
74.2814
74.2272
74.1096
73.8966
73.5491
73.0215
72.2692
71.2814
70.0666
68.6256
66.9713
65.1291
63.135
61.0164
58.8676
56.7541
54.6748
52.6251
50.395
47.9526
45.5237
43.1242
40.7655
38.4551
36.2075
34.0337
31.9383
74.265
74.2804
74.3021
74.3259
74.3518
74.3593
74.26
74.2648
74.279
74.301
74.3268
74.3496
74.3585
74.3379
74.2658
74.1131
73.8432
73.4118
72.7698
71.8716
70.7133
69.3134
67.6802
65.8353
63.8124
61.6549
59.3953
57.1337
54.9356
52.793
50.4921
47.9974
45.5356
43.1215
40.7606
38.453
36.2036
34.0267
31.9313
29.9197
74.2653
74.2699
74.2839
74.304
74.3265
74.351
74.3579
74.2736
74.2928
74.322
74.3585
74.3965
74.4271
74.4365
74.4055
74.3077
74.1092
73.7682
73.2364
72.4614
71.3982
70.0524
68.4541
66.6205
64.5822
62.3816
60.0687
57.6798
55.3203
53.0507
50.6517
48.0823
45.5673
43.1216
40.7485
38.4413
36.1972
34.0205
31.9232
29.9126
27.9892
74.281
74.2724
74.2751
74.2873
74.3059
74.327
74.3502
74.3566
74.305
74.3407
74.3865
74.4381
74.4879
74.5242
74.53
74.4817
74.3485
74.0913
73.6635
73.0128
72.0852
70.8382
69.2889
67.4812
65.4419
63.211
60.839
58.3815
55.8785
53.4355
50.9015
48.2283
45.6365
43.1383
40.7356
38.419
36.1785
34.0097
31.9146
29.9034
27.9821
26.1495
74.3152
74.291
74.2796
74.2803
74.2908
74.3078
74.3275
74.3495
74.3554
74.3573
74.4115
74.475
74.5419
74.6021
74.6408
74.6371
74.563
74.3826
74.0516
73.5191
72.7299
71.6297
70.1804
68.4136
66.3882
64.1413
61.7222
59.1883
56.6009
53.9989
51.2802
48.4636
45.7641
43.189
40.7356
38.3921
36.1455
33.9837
31.8994
29.8925
27.9718
26.1423
24.402
74.3711
74.3289
74.3005
74.2868
74.2854
74.2941
74.3096
74.3281
74.3487
74.3542
74.4337
74.5079
74.5898
74.6713
74.7393
74.7756
74.7548
74.6441
74.4023
73.9804
73.3236
72.3752
71.0823
69.414
67.4182
65.1702
62.7175
60.118
57.4359
54.7331
51.8411
48.8279
45.9787
43.2945
40.7656
38.3741
36.1039
33.9397
31.8661
29.8728
27.9585
26.1311
24.3948
22.7465
74.452
74.3896
74.3412
74.3102
74.294
74.2904
74.2973
74.3114
74.3285
74.348
74.3531
74.5371
74.6325
74.7327
74.8269
74.8988
74.9259
74.8782
74.7178
74.3982
73.8662
73.0642
71.9353
70.4307
68.5285
66.2955
63.8239
61.1709
58.4032
55.587
52.5787
49.3749
46.3198
43.4831
40.8459
38.3814
36.0668
33.8829
31.8109
29.8322
27.9344
26.1156
24.3825
22.7393
21.1821
74.561
74.4766
74.4053
74.354
74.3197
74.3008
74.2952
74.3004
74.313
74.329
74.3474
74.352
74.6704
74.7874
74.9046
75.0083
75.0782
75.0874
75.0007
74.7749
74.359
73.696
72.7268
71.3966
69.6626
67.5146
65.0398
62.3474
59.5047
56.5819
53.4427
50.1022
46.8405
43.793
41.0037
38.4339
36.0503
33.8262
31.7387
29.7658
27.8865
26.0871
24.3648
22.726
21.1749
19.7069
74.7013
74.5934
74.4965
74.4218
74.3664
74.3288
74.3074
74.2998
74.3033
74.3146
74.3295
74.3467
74.351
74.836
74.974
75.1057
75.2138
75.2739
75.2538
75.1134
74.8044
74.2714
73.455
72.2965
70.745
68.7663
66.3641
63.6472
60.742
57.7211
54.4563
50.9621
47.542
44.2761
41.2753
38.5566
36.0727
33.785
31.6621
29.6782
27.8091
26.0321
24.3321
22.7064
21.1606
19.6997
18.3185
74.8755
74.7433
74.6183
74.5175
74.4378
74.3782
74.3375
74.3137
74.3042
74.3062
74.3162
74.3299
74.3461
74.3501
75.0356
75.1926
75.3345
75.44
75.4799
75.4168
75.2055
74.7929
74.1204
73.1275
71.7578
69.9669
67.7313
65.0704
62.1162
59.0078
55.624
51.9786
48.3803
44.9379
41.711
38.7839
36.1569
33.7757
31.5957
29.5818
27.7062
25.9438
24.2702
22.6696
21.1391
19.6846
18.3113
17.0137
75.0853
74.9295
74.7744
74.6449
74.5378
74.4528
74.3894
74.3457
74.3196
74.3083
74.3088
74.3176
74.3303
74.3456
74.3493
75.2698
75.4423
75.588
75.6815
75.6882
75.5657
75.2637
74.7251
73.8893
72.6967
71.0953
69.0494
66.5482
63.6297
60.445
56.9511
53.1582
49.3793
45.738
42.3201
39.1636
36.335
33.8189
31.5535
29.4899
27.5903
25.826
24.1713
22.6009
21.0983
19.6612
18.2953
17.0066
15.7893
75.3317
75.1541
74.9679
74.8079
74.6705
74.5569
74.4671
74.3999
74.3535
74.3252
74.3122
74.3113
74.3189
74.3306
74.3451
74.3486
75.538
75.7204
75.8613
75.9306
75.8885
75.6873
75.2725
74.5839
73.5606
72.1457
70.294
67.9805
65.2106
62.0372
58.443
54.5084
50.5477
46.6999
43.0662
39.7079
36.6515
33.9439
31.5539
29.4143
27.473
25.691
24.0391
22.4918
21.0232
19.6167
18.2702
16.9897
15.7823
14.6419
75.6143
75.4187
75.2015
75.0098
74.8399
74.6944
74.5747
74.4803
74.4097
74.3607
74.3304
74.3158
74.3136
74.3201
74.3309
74.3447
74.348
75.8379
76.0223
76.147
76.1772
76.0678
75.7663
75.2144
74.3509
73.1159
71.4576
69.3396
66.7514
63.7102
60.1066
56.0376
51.8952
47.8337
43.9715
40.3851
37.1202
34.1911
31.6232
29.3709
27.364
25.5486
23.8856
22.3457
20.9043
19.5354
18.2222
16.9631
15.7646
14.6349
13.5677
75.9309
75.7235
75.4769
75.2535
75.0497
74.8697
74.7166
74.5912
74.4925
74.4188
74.3673
74.3352
74.3191
74.3157
74.3211
74.3312
74.3443
74.3475
76.1653
76.3412
76.4354
76.4086
76.2106
75.7846
75.0703
74.0063
72.5365
70.616
68.2208
65.3498
61.867
57.7564
53.4333
49.1511
45.0467
41.2143
37.7144
34.575
31.7961
29.3826
27.2763
25.4064
23.7186
22.1745
20.7451
19.4072
18.135
16.9117
15.7366
14.6165
13.5608
12.563
76.2775
76.067
75.7947
75.5413
75.303
75.0865
74.8971
74.7369
74.6062
74.5037
74.427
74.3733
74.3395
74.322
74.3174
74.322
74.3314
74.344
74.347
76.5134
76.6675
76.714
76.6094
76.2988
75.7227
74.8194
73.5303
71.8042
69.6068
66.9216
63.6047
59.5906
55.1748
50.6645
46.3031
42.2055
38.4488
35.0737
32.0875
29.4777
27.2294
25.2747
23.5439
21.9837
20.5567
19.2355
17.9979
16.819
15.6819
14.5871
13.5417
12.5561
11.6239
76.6475
76.446
76.1541
75.8744
75.6024
75.3484
75.1202
74.922
74.7554
74.6198
74.5136
74.4343
74.3786
74.3432
74.3244
74.3189
74.3227
74.3315
74.3437
74.3466
76.8731
76.989
76.9674
76.7614
76.3125
75.5589
74.4407
72.9026
70.9023
68.4113
65.2814
61.4139
57.0443
52.3856
47.7519
43.3679
39.3311
35.6961
32.48
29.6704
27.2441
25.1689
23.3688
21.7773
20.343
19.0308
17.8144
16.6734
15.584
14.5295
13.5111
12.5363
11.6172
10.8626
77.0317
76.855
76.5523
76.2523
75.9496
75.6582
75.3897
75.1507
74.9443
74.7717
74.6317
74.5223
74.4406
74.3831
74.3462
74.3265
74.3202
74.3234
74.3317
74.3434
74.3462
77.2323
77.2906
77.1774
76.8442
76.2292
75.2712
73.912
72.1042
69.8099
66.879
63.1808
58.9088
54.24
49.4045
44.7125
40.3693
36.448
32.9764
29.9485
27.3341
25.102
23.2045
21.5599
20.106
18.7951
17.5943
16.4788
15.4305
14.4267
13.4506
12.5046
11.5966
10.8561
10.2218
77.418
77.2859
76.9847
76.6732
76.3447
76.018
75.7087
75.4267
75.1777
74.9639
74.7859
74.6419
74.5297
74.4457
74.3867
74.3487
74.3282
74.3212
74.3239
74.3318
74.3432
74.3459
77.576
77.5541
77.3234
76.8347
76.0258
74.8354
73.2125
71.1126
68.3841
64.867
60.7184
56.0974
51.1979
46.2565
41.5777
37.3378
33.5814
30.3086
27.4925
25.0873
23.0558
21.3378
19.8476
18.5288
17.3376
16.2441
15.2256
14.2657
13.3432
12.4415
11.564
10.8347
10.2151
9.52663
77.791
77.7279
77.4439
77.1331
76.7865
76.4285
76.0796
75.7537
75.4593
75.201
74.9806
74.7977
74.6503
74.5355
74.4498
74.3895
74.3507
74.3295
74.3221
74.3244
74.3319
74.343
74.3457
77.8858
77.7586
77.3818
76.7089
75.6767
74.2294
72.3175
69.7883
66.4564
62.4509
57.9159
53.0183
47.9591
42.9849
38.3866
34.3055
30.7555
27.7102
25.1231
22.9361
21.1082
19.5691
18.2309
17.0434
15.9677
14.977
14.0511
13.1752
12.3298
11.4984
10.8015
10.1936
9.51997
8.77267
78.1318
78.1671
77.9202
77.6261
77.272
76.889
76.5037
76.1342
75.7929
75.4871
75.2206
74.9943
74.8071
74.6567
74.5398
74.4528
74.3916
74.3523
74.3306
74.3228
74.3247
74.332
74.3428
74.3454
78.1407
77.8802
77.3277
76.4401
75.1583
73.4257
71.0879
67.941
64.095
59.682
54.8367
49.7282
44.5758
39.6357
35.1773
31.3019
27.9921
25.1956
22.8493
20.8852
19.2607
17.8979
16.7076
15.6468
14.6819
13.7895
12.9516
12.1553
11.3828
10.7337
10.1594
9.49829
8.76601
7.95482
78.4186
78.5864
78.4006
78.1434
77.7961
77.3975
76.9809
76.57
76.1815
75.8261
75.51
75.2362
75.0046
74.8138
74.661
74.5427
74.4548
74.3931
74.3534
74.3314
74.3233
74.325
74.3321
74.3427
74.3452
78.3163
77.8935
77.1334
76.0029
74.4397
72.2835
69.3191
65.646
61.3872
56.6421
51.5418
46.2782
41.0935
36.2489
31.983
28.353
25.3094
22.7765
20.6774
18.937
17.5132
16.3222
15.2751
14.336
13.4769
12.6779
11.9233
11.2021
10.6149
10.0899
9.46305
8.74406
7.94813
7.06761
78.6256
78.9659
78.8691
78.6735
78.3511
77.9495
77.5096
77.0616
76.6271
76.2211
75.8529
75.5278
75.2475
75.0116
74.818
74.6636
74.5444
74.4561
74.3941
74.3541
74.332
74.3237
74.3252
74.3321
74.3425
74.345
78.3862
77.77
76.7716
75.3628
73.378
70.5929
67.1025
63.0231
58.4197
53.3838
48.0716
42.7058
37.5488
32.8587
28.8325
25.4803
22.722
20.4615
18.6114
17.0926
15.8646
14.8398
13.93
13.1073
12.3487
11.6381
10.9623
10.4293
9.96835
9.39181
8.70782
7.92584
7.06092
6.10521
78.7245
79.2822
79.3067
79.202
78.9271
78.5388
78.0866
77.608
77.1307
76.6745
76.2526
75.8732
75.5402
75.2545
75.0153
74.82
74.6647
74.5451
74.4566
74.3945
74.3546
74.3324
74.324
74.3253
74.332
74.3423
74.3449
78.3209
77.4807
76.2048
74.3749
71.7657
68.4642
64.5813
60.1515
55.2297
49.9329
44.4519
39.0404
33.9737
29.495
25.7503
22.7014
20.2408
18.2564
16.6534
15.3514
14.3128
13.4475
12.6692
11.957
11.2936
10.6665
10.1833
9.7789
9.26731
8.63476
7.88855
7.03823
6.09851
5.06132
78.6831
79.5099
79.6907
79.7114
79.5109
79.1564
78.7065
78.2068
77.692
77.1878
76.7119
76.2759
75.8866
75.547
75.2574
75.0162
74.8199
74.6644
74.5448
74.4564
74.3945
74.3546
74.3325
74.3242
74.3253
74.3318
74.3422
74.3449
78.0889
76.9855
75.2865
72.8402
69.7308
66.0542
61.8196
57.0519
51.8298
46.3043
40.7039
35.3094
30.3975
26.1842
22.7566
20.0298
17.8737
16.1645
14.8039
13.7119
12.8551
12.1422
11.4887
10.8811
10.3076
9.87899
9.52771
9.07368
8.50698
7.81348
6.9998
6.07538
5.05461
3.92926
78.4634
79.6212
79.9957
80.181
80.0867
79.7908
79.3616
78.8535
78.3092
77.7611
77.2323
76.7389
76.2906
75.8931
75.5488
75.2568
75.0146
74.8182
74.6629
74.5437
74.4557
74.3941
74.3545
74.3328
74.3243
74.3253
74.3317
74.3421
74.3448
77.6474
76.136
73.8301
70.901
67.4352
63.4096
58.8246
53.727
48.2257
42.5113
36.8498
31.5403
26.8477
22.949
19.8673
17.4752
15.6253
14.1872
13.0617
12.1715
11.4883
10.92
10.3845
9.87584
9.50862
9.21632
8.81686
8.30871
7.68212
6.92253
6.03573
5.031
3.92255
2.70192
78.0155
79.5853
80.1932
80.5868
80.6354
80.4276
80.0417
79.5417
78.9789
78.3933
77.8147
77.264
76.7551
76.2966
75.8933
75.5461
75.253
75.0108
74.8149
74.6603
74.5418
74.4544
74.3933
74.3546
74.3331
74.3243
74.3251
74.3315
74.342
74.3449
76.8437
74.7629
71.9876
68.7182
64.9093
60.5269
55.592
50.1755
44.4238
38.5702
32.9141
27.7613
23.3503
19.8089
17.095
15.0443
13.4982
12.3239
11.4245
10.7272
10.2087
9.7769
9.35289
9.06147
8.83654
8.49774
8.0457
7.47876
6.78725
5.95607
4.99003
3.8984
2.69521
1.37175
79.362
77.1851
80.2491
80.9025
81.1348
81.0496
80.7342
80.2626
79.6956
79.0819
78.4585
77.8524
77.2824
76.7606
76.2948
75.888
75.5395
75.2466
75.0052
74.8104
74.6568
74.5392
74.4525
74.3933
74.3552
74.3331
74.3241
74.3249
74.3314
74.342
74.3449
75.5305
73.0211
69.9146
66.3083
62.142
57.398
52.1157
46.3982
40.4344
34.5015
28.9245
24.0012
19.9292
16.7802
14.4487
12.7408
11.4923
10.5727
9.88956
9.37513
9.01226
8.70909
8.51751
8.37668
8.1077
7.71811
7.209
6.57838
5.81652
4.90776
3.85603
2.67047
1.36505
-0.0690919
80.1266
78.8047
75.826
81.0952
81.5604
81.6362
81.4235
81.0049
80.4519
79.8223
79.1617
78.5041
77.8738
77.2876
76.7565
76.2863
75.878
75.5297
75.2379
74.998
74.8047
74.6523
74.5358
74.4522
74.3942
74.3554
74.3329
74.3238
74.3245
74.3311
74.3419
74.345
73.8641
71.0589
67.6178
63.655
59.123
54.0136
48.392
42.3995
36.2723
30.3299
24.911
20.2883
16.6057
13.8758
11.9346
10.5659
9.60631
8.93082
8.45288
8.1112
7.89486
7.84493
7.81538
7.63398
7.31679
6.87217
6.30125
5.60164
4.76356
3.7709
2.62658
1.33968
-0.0757934
-1.62871
81.1301
79.702
77.8103
74.1306
81.8811
82.1647
82.0905
81.7548
81.2379
80.6084
79.921
79.2179
78.5299
77.8791
77.281
76.7443
76.272
75.8639
75.517
75.2272
74.9894
74.7976
74.6469
74.5349
74.4536
74.3945
74.3551
74.3325
74.3233
74.3242
74.3308
74.3419
74.3452
71.9858
68.8771
65.0764
60.747
55.8416
50.3674
44.4207
38.1879
31.9575
26.0847
20.9055
16.6496
13.3982
11.1054
9.55565
8.519
7.83758
7.39428
7.11018
6.93112
6.99122
7.11905
7.05379
6.82788
6.45851
5.95434
5.31647
4.54214
3.62162
2.53835
1.29416
-0.101827
-1.6354
-3.31542
82.0661
80.8983
78.832
76.4934
72.2385
82.6059
82.7149
82.4952
82.0415
81.4316
80.7311
79.991
79.2498
78.5359
77.87
77.2645
76.7249
76.2528
75.8464
75.502
75.2149
74.979
74.7894
74.6452
74.537
74.4541
74.3942
74.3545
74.3317
74.3228
74.3237
74.3305
74.3419
74.3454
69.8923
66.4508
62.2793
57.5736
52.2905
46.4556
40.2041
33.7767
27.515
21.7985
16.9401
13.1102
10.322
8.47528
7.31287
6.59809
6.1822
5.95858
5.85698
5.97744
6.23269
6.33159
6.22702
5.95303
5.52723
4.95859
4.24822
3.3931
2.38356
1.20255
-0.149098
-1.66214
-3.3221
-5.13738
82.9332
82.0266
80.2639
77.6413
74.9644
70.1421
83.2691
83.2073
82.8473
82.2814
81.5848
80.8192
80.0316
79.2577
78.5245
77.8488
77.2394
76.6997
76.2295
75.8261
75.485
75.2004
74.9672
74.7867
74.648
74.5377
74.4537
74.3934
74.3534
74.3311
74.3222
74.3232
74.3302
74.342
74.3456
67.5541
63.7699
59.2166
54.1277
48.464
42.2756
35.7478
29.1837
22.9748
17.5066
13.0464
9.69189
7.38818
5.98915
5.20539
4.79948
4.63556
4.619
4.84472
5.17736
5.4097
5.47663
5.32966
5.00374
4.51685
3.8784
3.08968
2.14734
1.04179
-0.244384
-1.71129
-3.34957
-5.14404
-7.10289
83.7307
83.0793
81.6243
79.3164
76.2461
73.231
67.8043
83.866
83.6386
83.1444
82.4731
81.6966
80.8719
80.0431
79.2445
78.4984
77.8172
77.2071
76.6694
76.2027
75.8033
75.4653
75.184
74.9632
74.7906
74.6491
74.5373
74.4526
74.3918
74.3529
74.3306
74.3216
74.3226
74.3298
74.342
74.3459
64.9627
60.8266
55.8826
50.4036
44.3564
37.8258
31.0602
24.432
18.3718
13.246
9.25395
6.41266
4.60492
3.64831
3.23031
3.11867
3.19272
3.53721
3.99588
4.30929
4.5162
4.54872
4.35597
3.97383
3.42082
2.70691
1.83359
0.797232
-0.411589
-1.81056
-3.40074
-5.17225
-7.10955
-9.21824
84.4524
84.057
82.902
80.9169
78.1641
74.6793
71.2555
65.2159
84.3922
84.0054
83.3843
82.6154
81.7658
80.8896
80.0292
79.2135
78.4598
77.777
77.1688
76.6351
76.1731
75.7774
75.4433
75.1782
74.9683
74.792
74.6486
74.5358
74.4505
74.3914
74.3527
74.33
74.3207
74.3218
74.3294
74.3421
74.3463
62.1126
57.6176
52.2726
46.394
39.9609
33.1048
26.1539
19.5513
13.7453
9.05349
5.58875
3.28675
1.97709
1.4514
1.38362
1.55063
2.0274
2.6303
3.07516
3.36709
3.54668
3.54204
3.29967
2.85666
2.23221
1.43685
0.472311
-0.665159
-1.98471
-3.50432
-5.22555
-7.13852
-9.22491
-11.9168
85.0924
84.9521
84.1009
82.4296
80.0009
76.8632
72.9
69.0321
62.3717
84.8437
84.3053
83.5658
82.7069
81.7929
80.8764
79.9937
79.1675
78.4108
77.7296
77.1257
76.5974
76.1397
75.7485
75.4353
75.1849
74.9701
74.7915
74.6468
74.533
74.4504
74.3918
74.3522
74.329
74.3197
74.321
74.329
74.3423
74.3468
59.0031
54.1404
48.3799
42.0897
35.2674
28.1117
21.0472
14.5776
9.13741
4.96413
2.07321
0.324436
-0.493917
-0.604542
-0.339604
0.283639
1.05051
1.64707
2.07634
2.34519
2.49522
2.45023
2.15412
1.6453
0.943725
0.0605452
-1.00211
-2.24799
-3.68589
-5.33379
-7.19406
-9.25469
-11.9238
-15.1351
85.6456
85.7562
85.2135
83.8607
81.7458
78.9514
75.373
70.8974
66.5617
59.2714
85.2173
84.5361
83.6867
82.7478
81.7828
80.8373
79.9402
79.109
78.3532
77.6765
77.0786
76.5551
76.1026
75.7378
75.4439
75.1873
74.9696
74.7891
74.643
74.5334
74.4517
74.3918
74.3513
74.3278
74.3185
74.3201
74.3285
74.3424
74.3473
55.6341
50.3909
44.1952
37.4746
30.2621
22.8495
15.7663
9.55403
4.59154
1.01024
-1.27473
-2.46849
-2.80909
-2.52385
-1.73283
-0.778578
-0.00792995
0.581132
0.993716
1.23751
1.35537
1.26659
0.912352
0.332441
-0.452324
-1.42996
-2.59783
-3.95958
-5.52334
-7.30726
-9.31272
-11.954
-15.1417
-18.3731
86.108
86.4611
86.2302
85.2026
83.4051
80.9427
77.7302
73.6792
68.6717
63.8515
55.9162
85.5102
84.6953
83.7471
82.744
81.7415
80.7764
79.8716
79.0402
78.2887
77.6186
77.026
76.5083
76.0887
75.7487
75.447
75.1867
74.9666
74.7842
74.6441
74.5361
74.4525
74.3913
74.3501
74.3264
74.3171
74.319
74.328
74.3427
74.3479
52.0044
46.3618
39.701
32.5282
24.9368
17.3336
10.3494
4.52896
0.150888
-2.77993
-4.44264
-5.08964
-4.97151
-4.07662
-2.90102
-1.92868
-1.15454
-0.573397
-0.178905
0.0375694
0.120419
-0.015803
-0.432891
-1.08954
-1.96383
-3.04281
-4.32317
-5.80811
-7.50527
-9.43131
-12.0154
-15.1727
-18.3795
-21.6189
86.4766
87.0596
87.1413
86.4444
84.9716
82.8423
79.9877
76.3178
71.7831
66.2316
60.9119
52.3059
85.7189
84.7825
83.7539
82.7026
81.674
80.6976
79.7908
78.9633
78.2188
77.5543
76.968
76.4905
76.1024
75.7526
75.4463
75.183
74.9603
74.7863
74.6488
74.5382
74.4527
74.3903
74.3485
74.3246
74.3155
74.3178
74.3274
74.3429
74.3487
48.1099
42.0408
34.8734
27.2266
19.2838
11.5885
4.84638
-0.444093
-4.14354
-6.38423
-7.42262
-7.53974
-6.72191
-5.37876
-4.16495
-3.1736
-2.39547
-1.82287
-1.44808
-1.26138
-1.21655
-1.40416
-1.88916
-2.62842
-3.59881
-4.78621
-6.18627
-7.80175
-9.63828
-12.1405
-15.2367
-18.4115
-21.625
-24.8583
86.7468
87.5461
87.9369
87.5753
86.4342
84.6414
82.1486
78.8534
74.7144
69.6944
63.5927
57.7532
48.4381
85.842
84.8053
83.7154
82.6297
81.5849
80.6039
79.7001
78.8798
78.1411
77.4833
76.9456
76.5075
76.1072
75.7518
75.4418
75.175
74.9637
74.7937
74.6527
74.5394
74.4522
74.3888
74.3465
74.3224
74.3136
74.3164
74.3267
74.3433
74.3495
43.9415
37.3992
29.6699
21.5306
13.2928
5.64552
-0.683468
-5.30971
-8.25615
-9.78611
-10.2113
-9.52386
-8.18935
-6.78657
-5.53188
-4.51976
-3.73721
-3.17391
-2.82057
-2.66618
-2.66261
-2.90585
-3.46407
-4.29206
-5.36528
-6.66811
-8.19516
-9.94698
-12.3584
-15.3694
-18.4783
-21.6578
-24.8642
-28.071
86.9161
87.914
88.6071
88.5841
87.7823
86.3287
84.2037
81.2873
77.538
72.9298
67.4314
60.7733
54.3854
44.3094
85.888
84.7738
83.6391
82.5309
81.4781
80.4986
79.6018
78.7873
78.0555
77.4558
76.9665
76.5134
76.1064
75.7464
75.4317
75.18
74.9746
74.8
74.6554
74.5398
74.451
74.3867
74.344
74.3199
74.3114
74.3149
74.326
74.3436
74.3504
39.4758
32.3921
24.0327
15.3987
6.96568
-0.447321
-6.17494
-10.0145
-12.1574
-12.975
-12.4705
-11.1866
-9.7745
-8.30762
-7.00852
-5.9738
-5.18645
-4.63328
-4.30312
-4.18375
-4.22495
-4.52824
-5.16517
-6.08821
-7.27093
-8.69629
-10.3561
-12.682
-15.6007
-18.6184
-21.7271
-24.8974
-28.0766
-31.235
86.994
88.1585
89.1397
89.4592
89.0039
87.8927
86.14
83.6112
80.252
76.0504
70.9832
65.017
57.7924
50.8216
39.9077
85.8691
84.6971
83.5317
82.4109
81.3574
80.3843
79.493
78.6852
78.022
77.4811
76.9736
76.5125
76.0998
75.7338
75.4389
75.1954
74.9841
74.8048
74.6571
74.5393
74.4491
74.3839
74.3409
74.317
74.309
74.3132
74.3253
74.344
74.3513
34.6792
26.9648
17.8997
8.79609
0.329788
-6.62364
-11.5569
-14.5094
-15.8247
-15.5601
-14.3624
-12.981
-11.4851
-9.94876
-8.60152
-7.54239
-6.74991
-6.20761
-5.90246
-5.82098
-5.91058
-6.27853
-6.99982
-8.02417
-9.32311
-10.8766
-13.1104
-15.9417
-18.8621
-21.8745
-24.9689
-28.1098
-31.2402
-34.3295
86.9944
88.2906
89.5215
90.1843
90.0869
89.3209
87.9444
85.8125
82.8505
79.0488
74.4093
68.899
62.4751
54.6685
47.0681
35.2075
85.7958
84.583
83.399
82.2742
81.2258
80.2577
79.3727
78.6451
78.0527
77.4897
76.9726
76.5047
76.0842
75.7436
75.4598
75.2089
74.9917
74.8084
74.6577
74.5378
74.4463
74.3805
74.3373
74.3137
74.3062
74.3114
74.3245
74.3445
74.3523
29.5008
21.0361
11.192
1.71054
-6.56879
-12.7949
-16.7597
-18.7505
-18.8008
-17.7228
-16.4019
-14.9147
-13.3277
-11.7165
-10.3174
-9.23205
-8.43396
-7.90336
-7.62513
-7.58445
-7.72622
-8.16355
-8.97478
-10.1067
-11.527
-13.6538
-16.3905
-19.2178
-22.1295
-25.1229
-28.183
-31.2733
-34.3343
-37.3334
86.93
88.3276
89.7606
90.7387
91.0105
90.6012
89.6018
87.8778
85.3226
81.9238
77.6949
72.6401
66.7046
59.8298
51.4215
43.1228
30.1706
85.6777
84.4385
83.2462
82.1247
81.0802
80.1173
79.3251
78.6818
78.0628
77.4886
76.9634
76.4856
76.0972
75.7713
75.4784
75.2202
74.9978
74.8106
74.6571
74.5352
74.4425
74.3762
74.3331
74.3098
74.3033
74.3095
74.3238
74.345
74.3534
23.861
14.4838
3.83748
-5.87346
-13.6334
-18.8729
-21.7083
-22.1956
-21.2874
-20.0513
-18.5959
-16.9936
-15.3083
-13.6167
-12.1622
-11.0487
-10.2446
-9.72657
-9.47719
-9.48023
-9.67801
-10.1894
-11.0961
-12.3403
-14.3319
-16.9571
-19.683
-22.4977
-25.3876
-28.3427
-31.3476
-34.367
-37.3377
-40.2256
86.8119
88.2851
89.876
91.1258
91.7468
91.7115
91.097
89.7907
87.6567
84.6671
80.8452
76.2151
70.7713
64.4277
57.1052
48.0748
38.9839
24.746
85.5231
84.2699
83.078
81.9587
80.9181
80.0615
79.3687
78.6936
78.0615
77.4778
76.9402
76.5024
76.1331
75.7961
75.4942
75.2296
75.0023
74.8112
74.655
74.5314
74.4377
74.3711
74.3282
74.3057
74.3002
74.3076
74.323
74.3455
74.3546
17.6347
7.15557
-4.29486
-13.8679
-20.7942
-24.7149
-25.7468
-25.0683
-23.9588
-22.5507
-20.9486
-19.222
-17.4316
-15.6545
-14.141
-12.9977
-12.1872
-11.6826
-11.4639
-11.5136
-11.7712
-12.3612
-13.3673
-15.1794
-17.6623
-20.2669
-22.9751
-25.7651
-28.6151
-31.512
-34.4418
-37.3697
-40.2294
-42.9856
86.65
88.1768
89.8869
91.3635
92.2956
92.6188
92.4038
91.5333
89.8369
87.2704
83.8558
79.6381
74.6379
68.8322
62.0963
54.3277
44.6524
34.6439
18.8539
85.3395
84.083
82.8908
81.7734
80.8533
80.113
79.3825
78.6923
78.049
77.4498
76.9614
76.5479
76.1652
75.8174
75.5078
75.237
75.0047
74.8101
74.6513
74.5262
74.4318
74.3651
74.3227
74.3013
74.2969
74.3056
74.3222
74.3461
74.3558
10.6322
-1.28542
-13.094
-22.3544
-27.756
-29.5138
-29.113
-28.1452
-26.8156
-25.222
-23.4617
-21.6024
-19.7006
-17.8335
-16.2579
-15.0831
-14.2661
-13.7757
-13.5897
-13.6887
-14.0097
-14.6815
-16.2495
-18.543
-20.9911
-23.5703
-26.2498
-28.9979
-31.7893
-34.6094
-37.4445
-40.2604
-42.9888
-45.594
86.4534
88.0148
89.811
91.4697
92.6748
93.3204
93.4819
93.0734
91.8453
89.7203
86.7228
82.909
78.3303
72.9928
66.8521
59.7402
51.5236
41.1771
30.0929
12.411
85.1339
83.8739
82.6807
81.6988
80.9137
80.1289
79.381
78.6777
78.0155
77.4762
77.0182
76.5888
76.1933
75.8362
75.5189
75.2419
75.005
74.8069
74.6459
74.5194
74.4246
74.3583
74.3169
74.2966
74.2936
74.3035
74.3215
74.3467
74.357
2.41899
-10.8183
-23.0794
-30.6457
-33.5704
-33.5034
-32.7049
-31.4246
-29.8516
-28.0616
-26.1338
-24.1346
-22.1163
-20.1553
-18.5151
-17.3078
-16.4841
-16.0089
-15.8572
-16.0082
-16.3949
-17.6195
-19.6547
-21.8949
-24.3063
-26.8502
-29.4843
-32.1731
-34.8885
-37.6133
-40.3341
-43.0183
-45.5966
-48.0326
86.2302
87.8102
89.6642
91.4621
92.9024
93.8354
94.327
94.3587
93.6453
92.0007
89.4369
86.0299
81.8532
76.9511
71.3096
64.8608
57.3867
48.7203
37.6856
25.3664
5.28232
84.9026
83.638
82.5955
81.7693
80.9319
80.1274
79.3643
78.638
78.0478
77.5458
77.0692
76.6248
76.2182
75.8519
75.5271
75.2441
75.0027
74.8015
74.6385
74.5111
74.4164
74.3509
74.3107
74.2917
74.2901
74.3014
74.3207
74.3473
74.3584
-7.26878
-23.2807
-32.5553
-37.9421
-38.3808
-37.7195
-36.5071
-34.8946
-33.0562
-31.0609
-28.9596
-26.815
-24.6765
-22.6194
-20.9129
-19.6723
-18.8423
-18.3831
-18.2673
-18.4715
-19.4065
-21.0785
-23.0359
-25.224
-27.5904
-30.0833
-32.6557
-35.2687
-37.8907
-40.502
-43.0902
-45.6241
-48.0345
-50.2847
85.9772
87.5723
89.4612
91.3587
92.9963
94.1824
94.9617
95.3773
95.1731
94.0732
91.986
88.997
85.216
80.7173
75.5298
69.6179
62.8837
55.0646
45.9613
34.2284
20.5274
-2.63918
84.6399
83.5416
82.6774
81.7901
80.9302
80.1083
79.3174
78.6769
78.132
77.6085
77.1145
76.6572
76.2396
75.8641
75.5318
75.2431
74.9975
74.7935
74.6289
74.5013
74.4072
74.3429
74.3042
74.2867
74.2866
74.2993
74.3199
74.3479
74.3597
-21.9852
-34.4737
-42.5302
-43.9312
-43.3874
-42.1318
-40.4818
-38.5302
-36.4139
-34.2053
-31.9287
-29.6363
-27.3761
-25.2221
-23.449
-22.1752
-21.3391
-20.8972
-20.8177
-21.5709
-22.936
-24.4981
-26.383
-28.5131
-30.8203
-33.2471
-35.7424
-38.2628
-40.774
-43.2549
-45.6932
-48.0595
-50.286
-52.335
85.6887
87.2977
89.2143