/*--------------------------------*- C++ -*----------------------------------*\
  =========                 |
  \\      /  F ield         | OpenFOAM: The Open Source CFD Toolbox
   \\    /   O peration     | Website:  https://openfoam.org
    \\  /    A nd           | Version:  8
     \\/     M anipulation  |
\*---------------------------------------------------------------------------*/
FoamFile
{
    version     2.0;
    format      ascii;
    class       volScalarField;
    location    "0.2";
    object      epsilon;
}
// * * * * * * * * * * * * * * * * * * * * * * * * * * * * * * * * * * * * * //

dimensions      [0 2 -3 0 0 0 0];

internalField   nonuniform List<scalar> 
15677
(
59.7004
18.3535
52.6122
8.08761
25.8889
50.1623
4.6272
13.262
31.5744
50.4823
3.17783
7.72273
17.0788
37.2632
51.5981
2.48948
5.04245
10.0235
20.8066
42.6354
53.6555
2.1457
3.6225
6.46049
12.1581
24.5344
47.6493
55.7188
1.97986
2.82079
4.52364
7.72153
14.2701
28.2445
52.0083
57.6565
1.91169
2.35295
3.401
5.30832
8.91222
16.4176
31.7452
55.6913
59.3545
1.88417
2.08027
2.72282
3.90788
6.01932
10.1016
18.5281
34.9442
58.71
60.8568
1.87055
1.93939
2.30689
3.05464
4.35629
6.70436
11.2687
20.5605
37.7646
61.1864
62.1228
1.86765
1.87831
2.05636
2.52058
3.34694
4.77438
7.36037
12.4126
22.4521
40.228
63.1791
63.2367
1.86863
1.84884
1.91654
2.18578
2.71182
3.61385
5.16364
7.99787
13.5006
24.197
42.3248
64.8052
64.1645
1.86954
1.8387
1.85192
1.98251
2.30649
2.88552
3.85706
5.53394
8.60246
14.532
25.761
44.1155
66.1097
64.9967
1.86978
1.83697
1.82112
1.86771
2.05119
2.41762
3.04215
4.08339
5.88007
9.1777
15.4827
27.1612
45.611
67.1691
65.7221
1.86977
1.83723
1.8105
1.81332
1.89811
2.11719
2.51822
3.18563
4.29149
6.20593
9.71094
16.3587
28.3828
46.8679
68.0331
66.3641
1.86974
1.8375
1.8082
1.78976
1.81538
1.93018
2.17845
2.60987
3.31588
4.48428
6.50597
10.2057
17.1431
29.4465
47.9131
68.7357
66.9523
1.86971
1.8376
1.8079
1.78273
1.77569
1.82143
1.96221
2.23485
2.69263
3.43476
4.65988
6.78233
10.6527
17.8443
30.3532
48.7687
69.3384
67.4525
1.86971
1.83761
1.80792
1.78101
1.76145
1.76611
1.83167
1.99291
2.28603
2.76743
3.54192
4.81957
7.0311
11.0557
18.4538
31.1168
49.4772
69.8154
67.9596
1.8697
1.83761
1.80794
1.78068
1.75697
1.74389
1.76035
1.84303
2.02143
2.33225
2.83439
3.63815
4.96208
7.254
11.4085
18.979
31.7501
50.0313
70.2654
68.354
1.8697
1.8376
1.80794
1.78064
1.7557
1.73587
1.72948
1.75735
1.85442
2.04755
2.3736
2.89398
3.72331
5.08818
7.44867
11.7144
19.418
32.2585
50.4943
70.5997
68.8248
1.8697
1.83758
1.80793
1.78063
1.75539
1.73315
1.71727
1.71796
1.7558
1.86556
2.07116
2.41029
2.94643
3.7978
5.19755
7.61607
11.9708
19.7776
32.6644
50.8298
70.9722
69.1378
1.8697
1.83758
1.80792
1.7806
1.75532
1.73231
1.71266
1.70126
1.70841
1.7557
1.87601
2.09225
2.44256
2.99202
3.86201
5.29044
7.75628
12.1808
20.0615
32.9671
51.1169
71.2215
69.6043
1.8697
1.83757
1.80791
1.78058
1.75528
1.73205
1.71105
1.69444
1.6872
1.70079
1.756
1.88562
2.11097
2.47068
3.03128
3.91623
5.36794
7.86954
12.3459
20.2754
33.1918
51.3061
71.5729
69.8577
1.8697
1.83757
1.8079
1.78055
1.75525
1.73195
1.71051
1.69181
1.67797
1.67524
1.69447
1.75676
1.89448
2.12754
2.4951
3.06459
3.96142
5.42987
7.95886
12.4689
20.4293
33.3399
51.4673
71.7765
70.3247
1.86971
1.83756
1.80789
1.78053
1.75523
1.73188
1.71032
1.69084
1.67419
1.66358
1.66474
1.68944
1.75814
1.90271
2.14228
2.51624
3.09275
3.9981
5.47913
8.02391
12.5555
20.5232
33.4279
51.5812
72.1703
70.5688
1.86971
1.83756
1.80789
1.78052
1.7552
1.73183
1.71023
1.69045
1.67271
1.6585
1.65064
1.65615
1.6856
1.75997
1.91056
2.15569
2.53486
3.1166
4.02781
5.51508
8.07014
12.6059
20.5796
33.4709
51.6534
72.4653
429.319
1.86971
1.83756
1.80789
1.78051
1.75518
1.73179
1.71016
1.69027
1.67212
1.65637
1.64427
1.63982
1.64874
1.68296
1.76263
1.91854
2.16834
2.55162
3.13691
4.0512
5.5418
8.09658
12.632
20.5797
33.4648
51.7737
88.7992
717.509
1.86971
1.83756
1.80788
1.7805
1.75516
1.73176
1.71011
1.69016
1.67186
1.65546
1.64151
1.6321
1.63025
1.64366
1.68229
1.76651
1.92705
2.18093
2.56744
3.15514
4.07056
5.55968
8.11217
12.6284
20.5659
33.4666
52.6923
122.134
998.502
1.86971
1.83756
1.80788
1.78049
1.75515
1.73173
1.71006
1.69008
1.6717
1.65503
1.64032
1.62856
1.62138
1.62337
1.6396
1.68334
1.77195
1.9369
2.19435
2.58358
3.17245
4.08709
5.57234
8.11184
12.6158
20.535
33.4902
55.2425
157.712
1247.11
1.86971
1.83755
1.80788
1.78048
1.75514
1.73171
1.71002
1.69001
1.67159
1.65479
1.63976
1.62693
1.61726
1.61321
1.6177
1.63967
1.68638
1.7797
1.94882
2.20966
2.60086
3.19016
4.10226
5.58049
8.10852
12.5905
20.4958
33.5873
59.8066
190.344
1476.29
1.86971
1.83755
1.80788
1.78048
1.75513
1.73169
1.70999
1.68996
1.6715
1.65464
1.63944
1.62614
1.61534
1.60827
1.60682
1.61613
1.64151
1.69253
1.79053
1.96381
2.22764
2.62064
3.20934
4.11798
5.58743
8.10131
12.561
20.4507
33.8374
64.5233
221.312
1670.82
1.86971
1.83755
1.80788
1.78047
1.75513
1.73167
1.70996
1.68991
1.67142
1.65452
1.63923
1.62572
1.61439
1.60589
1.60152
1.60398
1.61754
1.64634
1.7027
1.80544
1.98272
2.24964
2.64385
3.23174
4.1356
5.5956
8.09354
12.5293
20.4008
34.3021
69.3209
248.56
1818.79
1.86971
1.83755
1.80788
1.78047
1.75512
1.73166
1.70994
1.68987
1.67136
1.65442
1.63907
1.62545
1.61386
1.60469
1.59893
1.59792
1.60516
1.62191
1.65583
1.71773
1.82532
2.00684
2.27653
2.67204
3.25823
4.15716
5.60695
8.08751
12.4963
20.355
34.8577
73.6741
269.743
1933.74
1.86971
1.83755
1.80788
1.78046
1.75512
1.73164
1.70992
1.68984
1.67131
1.65434
1.63893
1.62524
1.61351
1.60404
1.5976
1.59494
1.59899
1.60934
1.6309
1.6711
1.73857
1.85145
2.03705
2.30973
2.70589
3.29053
4.18377
5.62306
8.08493
12.4619
20.318
35.3944
77.0473
286.498
2026.15
1.83755
1.86975
1.80788
1.78046
1.75511
1.73163
1.70991
1.68981
1.67126
1.65426
1.63882
1.62508
1.61324
1.60362
1.59684
1.59342
1.59596
1.60312
1.61814
1.64646
1.69283
1.76652
1.88473
2.07472
2.34991
2.747
3.32929
4.21678
5.64436
8.08604
12.4247
20.2764
35.8016
79.6338
300.098
2103.33
1.80788
1.83765
1.86982
1.78046
1.75511
1.73162
1.7099
1.68978
1.67122
1.6542
1.63872
1.62495
1.61302
1.60332
1.59636
1.5926
1.59445
1.60013
1.61195
1.63415
1.66907
1.72233
1.80256
1.92664
2.12062
2.39858
2.79571
3.37577
4.25632
5.67146
8.09064
12.3852
20.2266
36.0829
81.6131
311.577
2170.25
1.78046
1.80804
1.83785
1.86989
1.75511
1.73162
1.70989
1.68976
1.67119
1.65414
1.63864
1.62483
1.61284
1.60309
1.59599
1.5921
1.59366
1.59871
1.60914
1.62847
1.65768
1.70018
1.76083
1.84811
1.97785
2.17598
2.45594
2.85341
3.42992
4.30286
5.70813
8.10131
12.3497
20.1649
36.2549
83.168
321.549
2229.93
1.7551
1.78066
1.80835
1.83805
1.86997
1.73161
1.70988
1.68974
1.67117
1.6541
1.63857
1.62473
1.61268
1.60289
1.59569
1.59174
1.5932
1.59804
1.60799
1.6262
1.65297
1.69042
1.74115
1.81
1.90429
2.03996
2.24125
2.52356
2.91974
3.49219
4.3624
5.75719
8.11989
12.3176
20.0942
36.3504
84.4139
330.521
2284.51
1.7316
1.75536
1.78108
1.80868
1.83826
1.87004
1.70987
1.68972
1.67115
1.65405
1.63851
1.62463
1.61255
1.60272
1.59544
1.59147
1.59288
1.5977
1.60761
1.62563
1.65176
1.68749
1.73401
1.79398
1.87111
1.97292
2.11361
2.31769
2.60053
2.99543
3.57036
4.43829
5.81481
8.14486
12.29
20.0167
36.3823
85.4536
338.714
2335.03
1.70986
1.73189
1.75587
1.78151
1.80902
1.83848
1.87012
1.6897
1.67113
1.65401
1.63847
1.62455
1.61244
1.60258
1.59523
1.59125
1.59264
1.59751
1.60755
1.62582
1.65215
1.68778
1.7333
1.79039
1.86034
1.94654
2.05501
2.20045
2.40541
2.68813
3.0895
3.66815
4.52384
5.88022
8.17585
12.2666
19.9373
36.3747
86.3446
346.384
2382.52
1.68969
1.71019
1.73249
1.75641
1.78196
1.80936
1.8387
1.8702
1.67111
1.65398
1.63843
1.62448
1.61235
1.60245
1.59505
1.59106
1.59246
1.59738
1.60761
1.62631
1.65334
1.68989
1.73605
1.79303
1.86092
1.9418
2.03722
2.15281
2.30084
2.50591
2.7962
3.20608
3.77674
4.61761
5.95187
8.21204
12.2485
19.858
36.3531
87.1382
353.563
2427.13
1.6711
1.69004
1.71087
1.7331
1.75695
1.78242
1.80972
1.83893
1.87028
1.65395
1.63839
1.62441
1.61227
1.60233
1.59489
1.5909
1.5923
1.5973
1.60773
1.62688
1.65477
1.69279
1.74071
1.7995
1.86855
1.94869
2.03966
2.1446
2.26661
2.41659
2.63103
2.93197
3.33429
3.89357
4.71821
6.02867
8.25301
12.2349
19.7829
36.3124
87.8531
360.41
2469.52
1.65392
1.67148
1.69077
1.71156
1.73374
1.75751
1.78289
1.81008
1.83917
1.87037
1.63836
1.62435
1.61221
1.60223
1.59476
1.59077
1.59218
1.59724
1.60787
1.62746
1.65622
1.69583
1.74616
1.80808
1.88026
1.96326
2.05524
2.15724
2.26914
2.39707
2.56278
2.79001
3.08292
3.47333
4.01763
4.82414
6.10956
8.29767
12.2264
19.7125
36.2657
88.5211
366.873
2509.45
1.63834
1.65431
1.67227
1.69153
1.71227
1.73439
1.75809
1.78337
1.81045
1.83941
1.87046
1.62429
1.61216
1.60213
1.59465
1.59066
1.59207
1.5972
1.60801
1.62803
1.65764
1.69878
1.75163
1.81754
1.89443
1.98248
2.07916
2.18434
2.29523
2.41422
2.56016
2.74623
2.96823
3.24791
3.62228
4.14829
4.93403
6.19343
8.34547
12.2214
19.6483
36.2186
89.1426
373.084
2547.55
1.62425
1.63874
1.65513
1.67308
1.69231
1.71301
1.73506
1.75868
1.78387
1.81083
1.83966
1.87055
1.61211
1.60203
1.59456
1.59056
1.59198
1.59717
1.60816
1.62856
1.65898
1.70157
1.75688
1.82688
1.90962
2.00484
2.10866
2.22107
2.33718
2.45744
2.5982
2.76847
2.95039
3.1636
3.42636
3.77963
4.28369
5.04674
6.27922
8.39534
12.222
19.5906
36.174
89.7393
378.946
2583.33
1.61208
1.62463
1.6396
1.65597
1.67392
1.69311
1.71376
1.73575
1.75929
1.78438
1.81123
1.83991
1.87064
1.60195
1.59449
1.59047
1.5919
1.59715
1.6083
1.62906
1.66023
1.70417
1.76185
1.83583
1.92454
2.02867
2.1424
2.26494
2.3907
2.51895
2.66508
2.83591
3.00455
3.17441
3.37166
3.61552
3.9436
4.42296
5.16106
6.36601
8.44684
12.2245
19.5391
36.135
90.3031
384.597
2617.51
1.60187
1.61246
1.62545
1.64047
1.65684
1.67478
1.69393
1.71453
1.73645
1.75991
1.7849
1.81163
1.84017
1.87073
1.59444
1.59038
1.59183
1.59714
1.60843
1.62952
1.66139
1.70658
1.76651
1.84427
1.93886
2.05223
2.17832
2.31494
2.45381
2.59517
2.75416
2.93709
3.10866
3.26766
3.41787
3.59118
3.81354
4.11364
4.56474
5.27613
6.45293
8.49918
12.2299
19.4938
36.1017
90.8516
389.908
2649.44
1.59441
1.60215
1.61327
1.62629
1.64138
1.65774
1.67567
1.69478
1.71533
1.73718
1.76055
1.78544
1.81204
1.84043
1.87082
1.59029
1.59176
1.59712
1.60856
1.62994
1.66246
1.70879
1.77085
1.85216
1.95247
2.07502
2.21398
2.36863
2.52605
2.685
2.86306
3.06729
3.25402
3.41701
3.55697
3.67896
3.82036
4.01536
4.28732
4.70772
5.39071
6.53923
8.55173
12.2385
19.4542
36.0753
91.3722
395.039
2679.97
1.59021
1.59468
1.6028
1.6141
1.62717
1.64231
1.65868
1.67658
1.69566
1.71614
1.73793
1.76121
1.78599
1.81245
1.84068
1.8709
1.59169
1.59711
1.60867
1.63033
1.66344
1.71083
1.77487
1.85949
1.96534
2.09681
2.24868
2.42273
2.60451
2.78887
2.99212
3.22655
3.43902
3.61869
3.76149
3.87147
3.95562
4.05823
4.2197
4.46231
4.85021
5.50415
6.62427
8.60409
12.2492
19.4201
36.0548
91.881
399.828
2708.3
1.59166
1.59021
1.59526
1.60345
1.61497
1.62809
1.64328
1.65964
1.67752
1.69656
1.71698
1.7387
1.76188
1.78654
1.81285
1.84093
1.87098
1.59709
1.60877
1.63069
1.66433
1.71268
1.77858
1.86626
1.97743
2.11744
2.28215
2.47625
2.68442
2.90331
3.14365
3.41846
3.66808
3.87645
4.03468
4.1429
4.21
4.24583
4.30254
4.42519
4.63759
4.99203
5.61585
6.70757
8.65584
12.2616
19.3908
36.0407
92.3635
404.468
2735.45
1.59711
1.59153
1.59022
1.59584
1.60416
1.61588
1.62906
1.64427
1.66064
1.67848
1.69749
1.71785
1.73949
1.76254
1.78707
1.81323
1.84117
1.87106
1.60886
1.63101
1.66514
1.71438
1.78197
1.87251
1.98873
2.13682
2.31426
2.52858
2.764
3.02199
3.31459
3.64991
3.95125
4.20313
4.39
4.50748
4.56266
4.57161
4.54766
4.55127
4.63028
4.81003
5.1321
5.72517
6.7887
8.70663
12.2753
19.366
36.0316
92.8351
408.762
2760.47
1.60901
1.59676
1.59121
1.5902
1.59648
1.60493
1.61681
1.63006
1.64528
1.66167
1.67947
1.69845
1.71873
1.74027
1.76319
1.78759
1.81361
1.8414
1.87114
1.63128
1.66587
1.71593
1.78507
1.87825
1.99922
2.15493
2.34489
2.57918
2.84237
3.14311
3.49673
3.91941
4.3051
4.62278
4.85709
4.99603
5.04503
5.02304
4.95561
4.85934
4.80257
4.83427
4.97837
5.26922
5.83154
6.86735
8.75618
12.29
19.345
36.0277
93.2807
412.941
2784.47
1.63162
1.60831
1.59581
1.59084
1.5903
1.59714
1.60577
1.61776
1.63111
1.64633
1.66274
1.6805
1.69943
1.7196
1.74103
1.76382
1.78809
1.81397
1.84162
1.87122
1.6665
1.71731
1.7879
1.88352
2.00893
2.17179
2.37395
2.6276
2.91907
3.26587
3.68674
4.21516
4.736
5.17571
5.48952
5.66909
5.71654
5.65707
5.52673
5.36145
5.17927
5.05487
5.03607
5.14213
5.40256
5.93451
6.94322
8.80427
12.3054
19.3275
36.0286
93.7157
416.779
2803.77
1.6672
1.63033
1.60636
1.59477
1.59057
1.59056
1.59781
1.60668
1.61874
1.6322
1.64741
1.66383
1.68154
1.7004
1.72046
1.74177
1.76444
1.78858
1.81433
1.84184
1.87129
1.71855
1.79045
1.88835
2.01788
2.18745
2.40138
2.67358
2.99387
3.38913
3.88163
4.53337
5.23586
5.89417
6.37485
6.63047
6.68546
6.57441
6.35259
6.07575
5.78832
5.5059
5.30676
5.23454
5.30086
5.53149
6.0337
7.01616
8.85073
12.3212
19.3131
36.0317
94.1246
420.029
2820.03
1.71985
1.66524
1.62667
1.60426
1.59387
1.59031
1.59101
1.59847
1.60766
1.61976
1.63334
1.64853
1.66496
1.68258
1.70134
1.72129
1.74249
1.76503
1.78905
1.81467
1.84205
1.87136
1.79276
1.89275
2.02611
2.20199
2.42714
2.71704
3.0666
3.51136
4.07875
4.87404
5.80936
6.78043
7.58662
8.03567
8.12332
7.9454
7.58623
7.13666
6.67027
6.23477
5.83761
5.55701
5.42878
5.45419
5.65563
6.1289
7.086
8.89543
12.3371
19.3014
36.0376
94.4703
422.709
2837.61
1.79504
1.71701
1.65937
1.6228
1.60239
1.59305
1.58999
1.5916
1.59916
1.60869
1.62081
1.63451
1.64967
1.66607
1.68359
1.70226
1.7221
1.74318
1.76562
1.78951
1.81501
1.84225
1.87143
1.89677
2.03365
2.21547
2.45124
2.75802
3.13704
3.63102
4.27683
5.2387
6.46164
7.84078
9.12291
10.0007
10.2657
10.0203
9.46945
8.75724
8.00856
7.30792
6.69851
6.1727
5.8045
5.61806
5.60184
5.77465
6.21986
7.15266
8.93827
12.3532
19.2917
36.0457
94.7582
425.65
2856.81
1.90062
1.79114
1.70797
1.65323
1.61929
1.60067
1.59231
1.58972
1.59228
1.59988
1.60978
1.62191
1.63571
1.65082
1.66716
1.68458
1.70315
1.72288
1.74386
1.76618
1.78996
1.81533
1.84245
1.87147
2.04059
2.22792
2.47371
2.79664
3.20489
3.74699
4.47599
5.62843
7.1914
9.07034
10.9743
12.5014
13.2749
13.1292
12.3414
11.2573
10.0808
8.96159
7.98378
7.1764
6.50932
6.04817
5.80178
5.7436
5.88851
6.30674
7.21617
8.97922
12.3691
19.2852
36.0529
95.0819
428.825
2877.68
2.04702
1.89537
1.77761
1.69861
1.64759
1.61602
1.59909
1.59164
1.58952
1.59304
1.60066
1.61091
1.62306
1.63691
1.65195
1.66821
1.68555
1.70402
1.72365
1.74452
1.76673
1.79039
1.81565
1.84255
1.87147
2.23951
2.49463
2.83301
3.26987
3.85869
4.67717
6.04251
7.99104
10.4513
13.1163
15.5089
17.1033
17.5022
16.6532
15.0803
13.292
11.5409
9.9844
8.69096
7.66462
6.84554
6.28707
5.97951
5.87933
5.99672
6.38965
7.27655
9.01824
12.3827
19.2801
36.0631
95.431
432.338
2900.58
2.25001
2.04019
1.87544
1.76376
1.68996
1.64224
1.61293
1.59762
1.59105
1.58942
1.59385
1.60152
1.61206
1.62422
1.63807
1.65305
1.66924
1.68649
1.70487
1.7244
1.74516
1.76726
1.79081
1.8158
1.84255
1.87147
2.5142
2.86724
3.33175
3.96609
4.88145
6.4782
8.849
11.9589
15.5099
18.9789
21.7083
23.0793
22.74
20.8368
18.2121
15.5459
13.1159
11.0629
9.42139
8.15897
7.1794
6.52038
6.15089
6.0091
6.09907
6.46848
7.33383
9.05045
12.3945
19.2757
36.0747
95.8285
436.126
2925.49
2.53151
2.24108
2.01117
1.85529
1.75091
1.68171
1.63713
1.61002
1.59625
1.59056
1.58942
1.59469
1.60246
1.6132
1.62538
1.6392
1.65413
1.67024
1.68741
1.70569
1.72512
1.74578
1.76778
1.79102
1.8158
1.84255
1.87147
2.89961
3.3905
4.0696
5.08949
6.93115
9.75197
13.566
18.109
22.8454
27.022
29.8085
30.5439
29.0118
25.6552
21.6988
17.9851
14.7816
12.1819
10.1666
8.65517
7.50904
6.74732
6.31564
6.13297
6.19578
6.54322
7.38091
9.07787
12.4078
19.2712
36.0914
96.2575
440.334
2952.88
2.92785
2.52014
2.19896
1.98223
1.83656
1.73859
1.67377
1.63225
1.60728
1.595
1.59018
1.58956
1.59553
1.60347
1.61431
1.62652
1.6403
1.65518
1.67121
1.6883
1.70649
1.72583
1.74639
1.76804
1.79102
1.8158
1.84255
1.87147
3.44644
4.17008
5.30141
7.39579
10.6862
15.2454
20.8652
27.0308
32.9384
37.5887
40.0053
39.5658
36.3049
31.0624
25.4928
20.5729
16.5133
13.3265
10.9183
9.14918
7.83268
6.96722
6.47362
6.25091
6.28706
6.60457
7.42088
9.108
12.4228
19.2683
36.1107
96.7499
444.879
2982.63
3.49468
2.91316
2.45894
2.15758
1.95527
1.81857
1.72669
1.66611
1.62758
1.60473
1.59388
1.5899
1.58988
1.59634
1.60451
1.6154
1.62764
1.64137
1.65621
1.67216
1.68917
1.70726
1.72651
1.74669
1.76804
1.79102
1.8158
1.84255
1.87147
4.26835
5.51547
7.86619
11.6379
16.9707
23.7304
31.4519
39.3275
46.2509
50.9758
52.4346
50.1593
44.5689
36.9937
29.5407
23.2721
18.2875
14.4829
11.669
9.63723
8.14873
7.17955
6.62472
6.36297
6.36178
6.65662
7.46466
9.14113
12.4397
19.2654
36.1377
97.2817
449.958
3015.4
4.3544
3.47617
2.82296
2.39979
2.11899
1.92932
1.80114
1.71518
1.65876
1.62311
1.60241
1.59287
1.58965
1.59045
1.59712
1.60556
1.61645
1.62875
1.64242
1.65721
1.67308
1.69001
1.70802
1.72685
1.74669
1.76804
1.79102
1.8158
1.84255
1.87143
5.72868
8.33801
12.5947
18.7166
26.6582
36.0263
46.0495
55.5825
63.1925
67.4065
67.1567
62.2781
53.7176
43.3695
33.7853
26.0461
20.0823
15.6387
12.4121
10.116
8.45588
7.38389
6.76888
6.45521
6.42506
6.71357
7.51265
9.17763
12.4589
19.2654
36.1685
97.8977
455.453
3050.9
4.33056
5.91649
3.33904
2.73774
2.34456
2.08182
1.90416
1.78425
1.70407
1.65169
1.61884
1.60027
1.59197
1.58935
1.59114
1.59789
1.60662
1.6175
1.62983
1.64344
1.65819
1.67398
1.69084
1.70839
1.72685
1.74669
1.76804
1.79102
1.8158
1.84245
1.87136
8.80722
13.546
20.4606
29.6054
40.6758
52.967
65.3541
76.3178
84.0868
87.0085
84.1453
75.8154
63.634
50.1001
38.1688
28.8611
21.8789
16.7834
13.1419
10.5829
8.75303
7.57991
6.88801
6.53361
6.49421
6.77592
7.5653
9.21786
12.4807
19.2665
36.211
98.5639
461.636
3090.05
4.10635
5.8979
9.22375
3.21388
2.65819
2.29136
2.04575
1.87976
1.76792
1.69338
1.64493
1.61481
1.59833
1.5912
1.58913
1.59189
1.59867
1.60766
1.61853
1.63089
1.64444
1.65914
1.67485
1.69124
1.70839
1.72685
1.74669
1.76804
1.79102
1.81565
1.84225
1.87129
14.4809
22.1838
32.5339
45.3293
59.9531
75.3444
89.9886
101.96
109.148
109.798
103.283
90.6093
74.1777
57.0904
42.6354
31.6861
23.6604
17.908
13.854
11.0356
9.03927
7.74265
6.98954
6.6196
6.56984
6.84423
7.62311
9.26228
12.5055
19.2696
36.2592
99.3424
468.335
3132.24
3.90953
5.50136
9.23466
15.3133
3.09796
2.58159
2.23979
2.01078
1.85615
1.75218
1.68312
1.6385
1.61109
1.59665
1.59057
1.58902
1.59266
1.59947
1.60869
1.61954
1.63192
1.64542
1.66007
1.67529
1.69124
1.70839
1.72685
1.74669
1.76804
1.79081
1.81533
1.84204
1.87122
23.8677
35.4129
49.9272
66.8975
85.3561
103.86
120.47
132.818
138.46
135.67
124.366
106.452
85.1929
64.2453
47.133
34.4939
25.4126
19.0055
14.5446
11.4724
9.27772
7.88175
7.10124
6.71402
6.65265
6.91912
7.68662
9.31138
12.5338
19.2759
36.3246
100.186
475.931
3178.87
3.73091
5.15615
8.50924
15.3982
25.3759
2.98676
2.50742
2.18981
1.97693
1.83337
1.73705
1.67333
1.63247
1.60778
1.5952
1.59008
1.58903
1.59343
1.60029
1.60969
1.62055
1.63292
1.64638
1.66053
1.67528
1.69124
1.70839
1.72685
1.74669
1.76778
1.79038
1.815
1.84183
1.87114
38.2134
54.4228
73.7117
95.2253
117.634
139.095
157.196
169.067
171.966
164.398
147.112
123.104
96.519
71.4744
51.6148
37.2608
27.1243
20.0702
15.2109
11.8367
9.48198
8.03526
7.22428
6.81782
6.7434
7.00125
7.75646
9.36572
12.5661
19.2871
36.3988
101.181
484.163
3228.69
3.56257
4.84413
7.86382
14.1502
25.6437
40.7279
2.87944
2.43567
2.1415
1.94429
1.81146
1.72257
1.66409
1.62701
1.60489
1.59397
1.58973
1.58915
1.59418
1.60114
1.61067
1.62154
1.63391
1.64685
1.66052
1.67528
1.69124
1.70839
1.72685
1.74638
1.76725
1.78994
1.81466
1.84161
1.87106
58.7739
80.3317
104.829
131.078
157.398
181.513
200.442
210.738
209.459
195.638
171.175
140.306
107.999
78.6944
56.0394
39.9676
28.7863
21.0977
15.7667
12.149
9.70783
8.20487
7.35997
6.93202
6.84294
7.09141
7.83329
9.42593
12.6033
19.3022
36.4983
102.264
493.598
3283.85
3.40259
4.55291
7.27256
13.0015
23.7036
41.3303
62.6779
2.77591
2.36647
2.09496
1.91291
1.79049
1.70888
1.65565
1.62215
1.60236
1.59294
1.58949
1.58941
1.5949
1.60202
1.61162
1.62253
1.63439
1.64684
1.66052
1.67528
1.69124
1.70839
1.72651
1.74577
1.76671
1.78949
1.81431
1.84139
1.87098
86.7004
114.085
144.027
175.054
205.137
231.475
250.358
257.704
250.578
228.943
196.173
157.8
119.487
85.8311
60.3727
42.5985
30.3915
21.9548
16.243
12.4944
9.95783
8.3925
7.50979
7.05781
6.95225
7.19042
7.91789
9.49273
12.6457
19.325
36.6115
103.522
503.792
3342.08
3.25054
4.27945
6.7177
11.924
21.8811
38.5041
63.8041
92.3925
2.67627
2.29997
2.05028
1.88289
1.77064
1.69633
1.6481
1.61783
1.60019
1.59207
1.58932
1.58985
1.59559
1.60291
1.61258
1.62302
1.63437
1.64684
1.66052
1.67528
1.69124
1.70801
1.72581
1.74514
1.76616
1.78903
1.81396
1.84116
1.8709
122.925
156.389
191.852
227.616
261.261
289.262
306.967
309.669
294.81
263.784
221.704
175.34
130.85
92.8232
64.5869
45.1412
31.7312
22.6895
16.7698
12.8769
10.2349
8.60029
7.67539
7.19652
7.07239
7.29923
8.01107
9.56692
12.6948
19.3539
36.7612
104.86
515.627
3417.82
3.1062
4.02352
6.19488
10.8972
20.1329
35.8216
59.8899
94.2412
130.766
2.58067
2.23635
2.00759
1.8545
1.75243
1.68506
1.64134
1.61398
1.59834
1.59134
1.5891
1.5904
1.59627
1.60385
1.61303
1.62299
1.63437
1.64684
1.66052
1.67528
1.69083
1.70725
1.7251
1.7445
1.76559
1.78856
1.81359
1.84092
1.87081
168.086
207.7
248.691
289.171
326.159
355.091
370.142
366.152
341.513
299.591
247.377
192.701
141.978
99.6203
68.6597
47.2642
32.8798
23.5021
17.353
13.3008
10.5421
8.83064
7.85867
7.34962
7.20458
7.41891
8.11385
9.64939
12.751
19.3946
36.9303
106.434
530.579
3508.74
2.96927
3.78558
5.70484
9.91662
18.4322
33.2112
56.1696
89.0197
133.502
178.338
2.48939
2.17577
1.96728
1.82846
1.73606
1.67495
1.63529
1.61054
1.59676
1.59074
1.58893
1.59101
1.59703
1.6043
1.61297
1.623
1.63437
1.64684
1.66053
1.67485
1.69
1.70647
1.72437
1.74384
1.76501
1.78807
1.81322
1.84068
1.87073
222.527
268.284
314.879
360.157
400.247
429.114
439.586
426.487
389.941
335.775
272.825
209.692
152.782
106.182
72.0589
49.0846
34.1506
24.4017
17.9992
13.7709
10.8832
9.08626
8.0617
7.51878
7.35017
7.55051
8.22701
9.74114
12.8165
19.4447
37.1497
108.451
550.212
3599.86
2.8392
3.5668
5.24907
8.98802
16.769
30.6359
52.5207
84.0925
126.711
182.039
235.288
2.40276
2.11875
1.93038
1.80508
1.72135
1.66588
1.62987
1.60752
1.59542
1.59023
1.58887
1.59176
1.59733
1.60425
1.61296
1.623
1.63437
1.64685
1.66006
1.67396
1.68914
1.70566
1.72362
1.74316
1.76442
1.78757
1.81284
1.84043
1.87064
286.355
338.346
390.828
441.143
484.017
511.403
514.809
489.838
439.283
371.768
297.734
226.16
163.19
111.65
74.972
51.0985
35.5577
25.3986
18.7157
14.2927
11.2621
9.37013
8.28681
7.70586
7.5107
7.69568
8.35242
9.84363
12.8914
19.5127
37.4446
111.171
571.491
3690.11
2.71575
3.3686
4.82882
8.11533
15.1445
28.0785
48.8916
79.2545
120.403
173.327
239.879
301.499
2.32161
2.06669
1.8973
1.78409
1.70815
1.65774
1.62505
1.60489
1.59426
1.58986
1.58907
1.5921
1.59717
1.60427
1.61296
1.62299
1.63439
1.64637
1.65912
1.67305
1.68827
1.70484
1.72285
1.74246
1.7638
1.78706
1.81244
1.84017
1.87055
359.595
418.195
477.179
532.955
578.082
601.937
595.099
555.213
488.715
407.071
321.846
241.983
171.839
116.33
78.1921
53.3279
37.1171
26.504
19.5107
14.8722
11.6831
9.68556
8.53661
7.91291
7.68776
7.85477
8.49147
9.95803
12.9793
19.6098
37.8862
114.153
594.745
3778.51
2.60004
3.18699
4.44454
7.30042
13.5714
25.5378
45.2504
74.4336
114.248
165.428
228.745
306.694
376.723
2.24796
2.02015
1.86766
1.76524
1.6963
1.65046
1.62077
1.60257
1.59329
1.58982
1.58904
1.59198
1.59716
1.60427
1.61296
1.62301
1.6339
1.6454
1.65816
1.67212
1.68737
1.70399
1.72207
1.74174
1.76318
1.78653
1.81204
1.83991
1.87046
442.398
508.487
575.069
636.865
683.247
700.538
679.486
621.519
537.468
441.26
344.961
255.089
179.225
121.493
81.7526
55.797
38.8459
27.7304
20.3933
15.5159
12.1511
10.0362
8.81391
8.14218
7.8836
8.02892
8.64545
10.0863
13.0989
19.7625
38.3921
117.582
619.809
3864.31
2.49499
3.02065
4.09776
6.54811
12.0672
23.0248
41.5854
69.5746
108.146
157.825
218.96
292.408
381.959
460.809
2.18252
1.97855
1.8411
1.74833
1.68567
1.64396
1.61696
1.60057
1.59281
1.58964
1.58875
1.59202
1.59716
1.60425
1.61303
1.62252
1.6329
1.64441
1.65718
1.67117
1.68645
1.70312
1.72126
1.74101
1.76253
1.78599
1.81163
1.83965
1.87037
535.32
610.482
686.345
754.824
800.48
806.745
766.759
687.664
584.872
474.008
364.045
266.25
187.351
127.189
85.69
58.5325
40.7635
29.0916
21.3732
16.231
12.6714
10.4259
9.12179
8.39615
8.10024
8.22002
8.8158
10.2562
13.2612
19.9458
39.0128
121.396
647.081
3946.46
2.40178
2.87152
3.78996
5.86474
10.6488
20.5583
37.9002
64.6455
102.01
150.391
209.741
280.304
363.458
465.221
554.031
2.12434
1.94137
1.81732
1.73318
1.67615
1.63812
1.61362
1.59931
1.59236
1.58929
1.58877
1.59202
1.59717
1.6043
1.61257
1.62151
1.63188
1.6434
1.65617
1.6702
1.68551
1.70223
1.72043
1.74026
1.76187
1.78544
1.81122
1.8394
1.87028
639.538
726.283
814.12
889.584
930.677
919.72
855.572
752.625
630.379
500.988
380.252
278.488
196.284
133.469
90.0431
61.563
42.8908
30.6026
22.4614
17.0254
13.2495
10.859
9.46354
8.67743
8.33993
8.42993
9.03882
10.4725
13.444
20.175
39.7245
125.799
676.492
4024.18
2.31935
2.73896
3.52691
5.25796
9.3372
18.1606
34.2088
59.6314
95.7764
142.991
200.928
269.215
348.409
440.935
556.451
657.553
2.0726
1.90816
1.79603
1.7196
1.66759
1.63297
1.61128
1.59837
1.59188
1.58933
1.58877
1.59197
1.59732
1.60384
1.6116
1.62051
1.63085
1.64238
1.65514
1.6692
1.68455
1.70132
1.71959
1.73948
1.7612
1.78489
1.81082
1.83916
1.8702
757.14
860.154
963.475
1044.46
1074.43
1038.35
944.558
815.499
667.897
523.856
397.964
291.886
206.093
140.388
94.853
64.9193
45.2503
32.2799
23.6697
17.9075
13.8916
11.3399
9.84255
8.98893
8.60463
8.70352
9.31624
10.7052
13.6522
20.4448
40.5846
130.771
708.399
4096.32
2.24658
2.62051
3.30987
4.74038
8.15354
15.8564
30.5344
54.5296
89.399
135.523
192.327
258.943
335.069
422.078
523.997
656.595
774.025
2.02655
1.87852
1.77698
1.70738
1.66
1.62919
1.60971
1.5977
1.59195
1.58932
1.58875
1.59209
1.59702
1.60288
1.61063
1.6195
1.62979
1.64133
1.65408
1.66818
1.68357
1.70038
1.71872
1.7387
1.76054
1.78436
1.81044
1.83892
1.87012
893.29
1019.95
1141.36
1223.3
1232.29
1161.53
1032.32
867.63
699.687
548.778
417.271
306.523
216.843
147.999
100.163
68.6341
47.8662
34.1409
25.0105
18.8862
14.6038
11.8731
10.2625
9.33311
8.95113
9.04167
9.60851
10.9557
13.8858
20.7728
41.5813
136.495
742.938
4162.3
2.18236
2.51495
3.12608
4.30953
7.12683
13.6945
26.909
49.349
82.8411
127.895
183.785
249.211
323.184
405.938
500.211
612.218
768.292
908.395
1.98556
1.85207
1.75986
1.69653
1.65427
1.62678
1.60879
1.5978
1.59194
1.58928
1.58904
1.59175
1.59625
1.60198
1.60965
1.61848
1.6287
1.64025
1.65301
1.66713
1.68256
1.69942
1.71784
1.73792
1.75989
1.78385
1.81007
1.83869
1.87004
1057
1216.98
1357.43
1431.5
1406.16
1287.76
1106.08
911.904
734.287
575.844
438.251
322.466
228.596
156.355
106.015
72.741
50.7639
36.2042
26.4972
19.9709
15.3926
12.4633
10.7263
9.78384
9.37967
9.39594
9.91573
11.2245
14.1505
21.1579
42.7699
143.069
780.245
4220.89
2.12566
2.42133
2.96741
3.95382
6.26408
11.7607
23.4004
44.1131
76.0766
120.019
175.156
239.81
312.359
392.187
480.537
582.139
706.065
895.972
1071.25
1.94908
1.82837
1.74465
1.6882
1.6507
1.62559
1.60893
1.5978
1.59187
1.58963
1.58906
1.59099
1.59555
1.6011
1.60864
1.61745
1.6276
1.63916
1.65191
1.66605
1.68153
1.69844
1.71697
1.73716
1.75926
1.78335
1.8097
1.83847
1.86996
1263.54
1469.64
1628.42
1682.49
1598.1
1396.28
1169.06
960.139
771.776
605.117
460.961
339.773
241.407
165.507
112.453
77.2739
53.9693
38.489
28.1435
21.1713
16.2648
13.1147
11.3334
10.3404
9.82743
9.76569
10.2375
11.5131
14.4482
21.6179
44.1646
150.609
820.9
4272.29
2.07552
2.33878
2.82809
3.66099
5.54871
10.0959
20.1461
38.8996
69.0954
111.811
166.289
230.529
302.319
380.238
464.566
558.002
668.095
807.644
1048.33
1278.32
1.91652
1.80737
1.73277
1.68313
1.64914
1.62579
1.60892
1.59769
1.59235
1.58981
1.58885
1.59037
1.59486
1.60025
1.60762
1.61641
1.62648
1.63803
1.6508
1.66495
1.68049
1.69747
1.71612
1.73643
1.75866
1.78287
1.80935
1.83825
1.86989
1546.05
1820.55
1999.43
2000.29
1767.46
1489.49
1237.81
1012.34
812.163
636.61
485.425
358.477
255.317
175.497
119.515
82.2657
57.5081
41.0146
29.9633
22.4969
17.2261
13.9659
12.081
10.9202
10.2922
10.1498
10.5739
11.8232
14.785
22.1594
45.8136
159.425
864.305
4314.67
2.031
2.26628
2.7043
3.42292
4.96096
8.69126
17.2321
33.9048
61.9585
103.197
157.022
221.147
292.773
369.738
451.376
539.379
638.374
759.969
922.947
1248.84
1573.26
1.88769
1.79079
1.72562
1.68114
1.64942
1.62579
1.60878
1.59836
1.59279
1.58984
1.58891
1.58982
1.59414
1.59942
1.60657
1.61535
1.62534
1.63688
1.64966
1.66382
1.67945
1.69654
1.7153
1.73572
1.75806
1.7824
1.80901
1.83804
1.86982
2004.5
2388.96
2581.68
2281.96
1912.01
1590.8
1311.96
1068.35
855.371
670.283
511.629
378.588
270.351
186.36
127.235
87.7465
61.4051
43.7997
31.9702
23.9567
18.4809
15.0118
12.8576
11.5197
10.7714
10.5466
10.9235
12.1566
15.1652
22.7995
47.7709
169.525
912.406
4347.64
1.99173
2.20255
2.59403
3.22624
4.48048
7.51669
14.6629
29.2789
54.9048
94.1812
147.19
211.42
283.436
360.297
440.525
524.748
616.617
723.353
862.918
1065.16
1551.04
2118.22
1.86466
1.781
1.72306
1.68153
1.64941
1.62557
1.60969
1.5993
1.59328
1.59022
1.58908
1.58937
1.59338
1.59862
1.60552
1.61428
1.62419
1.6357
1.64852
1.66271
1.67845
1.69563
1.7145
1.73503
1.75749
1.78194
1.80867
1.83784
1.86975
2852.86
3534.5
3056.87
2511.93
2065.1
1698.52
1390.84
1127.85
901.216
706.028
539.511
400.079
286.511
198.112
135.64
93.7418
65.6821
46.8618
34.1764
25.8599
20.0195
16.0958
13.658
12.1348
11.2621
10.9551
11.2856
12.5148
15.5943
23.5551
50.0814
181.507
964.794
4371.94
1.96012
2.14697
2.49595
3.05957
4.09062
6.54598
12.4449
25.0618
48.1476
84.9993
136.694
201.075
273.984
351.565
431.493
513.57
600.28
697.921
817.959
989.22
1268.01
2151.83
3297.78
1.85116
1.77781
1.72358
1.68152
1.64912
1.62676
1.61127
1.60057
1.59425
1.59072
1.58929
1.58911
1.59261
1.59784
1.60447
1.61317
1.62304
1.6345
1.64739
1.66164
1.67749
1.69475
1.71373
1.73436
1.75693
1.7815
1.80835
1.83764
1.86971
4968.17
4250.85
3393.2
2736.7