/*--------------------------------*- C++ -*----------------------------------*\
  =========                 |
  \\      /  F ield         | OpenFOAM: The Open Source CFD Toolbox
   \\    /   O peration     | Website:  https://openfoam.org
    \\  /    A nd           | Version:  8
     \\/     M anipulation  |
\*---------------------------------------------------------------------------*/
FoamFile
{
    version     2.0;
    format      ascii;
    class       volScalarField;
    location    "0.2";
    object      nut;
}
// * * * * * * * * * * * * * * * * * * * * * * * * * * * * * * * * * * * * * //

dimensions      [0 2 -1 0 0 0 0];

internalField   nonuniform List<scalar> 
15677
(
0.000168168
0.00065216
0.000148202
0.00151205
0.000443118
0.000141301
0.00267197
0.000878256
0.000381096
0.000142202
0.00391621
0.0015228
0.000687429
0.000354367
0.000145345
0.00501894
0.00236049
0.00114815
0.000586161
0.000340352
0.000151141
0.00583668
0.00332121
0.00178316
0.000948868
0.000529649
0.000332083
0.000156953
0.00633337
0.00430113
0.00257016
0.00146489
0.000821663
0.000492719
0.000327031
0.000162411
0.00656227
0.00518817
0.00345502
0.00213341
0.0012584
0.000737737
0.000467608
0.000324148
0.000167194
0.0066582
0.00589319
0.00435669
0.00292387
0.00184299
0.00111309
0.000677718
0.000450561
0.000322567
0.000171426
0.00670541
0.00633803
0.00518145
0.00378036
0.00255847
0.00163284
0.00100517
0.000634353
0.000438778
0.000322007
0.000174992
0.00671435
0.00655332
0.00584542
0.00462616
0.00336408
0.00228768
0.00147344
0.000924639
0.000602365
0.000430831
0.000321944
0.00017813
0.0067099
0.00666147
0.00629554
0.00537752
0.00419793
0.00304643
0.0020787
0.00134963
0.000862534
0.000578719
0.000425347
0.000322422
0.000180743
0.00670625
0.00669874
0.00652947
0.00596452
0.00498476
0.00385826
0.00279664
0.00191247
0.00125167
0.000814346
0.000560932
0.000421859
0.000323053
0.000183087
0.00670536
0.00670438
0.00664672
0.00635679
0.00565031
0.00465651
0.00358412
0.00259434
0.00177833
0.00117333
0.000776472
0.000547751
0.000419496
0.000323969
0.000185131
0.0067054
0.00670288
0.00668782
0.00656283
0.00614211
0.00536881
0.00438188
0.00335768
0.00242845
0.0016685
0.00110979
0.000746678
0.000537635
0.000418273
0.00032481
0.000186939
0.00670555
0.00670166
0.00669634
0.00665649
0.00644675
0.00593375
0.00512136
0.0041492
0.00316898
0.00229036
0.001578
0.00105805
0.00072294
0.000530365
0.000417383
0.000325859
0.000188596
0.00670562
0.00670121
0.00669707
0.00668487
0.00660481
0.00632171
0.00573762
0.00490425
0.00395137
0.00300973
0.00217501
0.00150283
0.00101601
0.000704453
0.000524628
0.00041726
0.00032679
0.000190005
0.00670564
0.00670112
0.00669668
0.00669164
0.00666368
0.00654117
0.00618829
0.00555711
0.0047147
0.00378176
0.00287503
0.00207796
0.00144048
0.000981925
0.000689539
0.000520763
0.000417181
0.000327869
0.000191434
0.00670563
0.00670114
0.00669638
0.00669271
0.00668227
0.00663448
0.00646779
0.00605798
0.00539394
0.00454882
0.00363638
0.00276049
0.00199648
0.0013889
0.00095401
0.000678177
0.000517632
0.0004177
0.000328843
0.000192545
0.00670561
0.00670118
0.00669624
0.00669267
0.00668725
0.00666909
0.006598
0.00638939
0.00593494
0.00524709
0.00440431
0.00351139
0.00266339
0.00192827
0.00134624
0.00093172
0.000669003
0.000515897
0.000418098
0.00032991
0.000193871
0.0067056
0.00670121
0.00669617
0.00669257
0.00668818
0.00668078
0.00665139
0.00655609
0.00631097
0.00581981
0.00511647
0.00427838
0.00340451
0.00258134
0.00187146
0.00131147
0.000913725
0.00066243
0.000514425
0.000419005
0.000330937
0.000194752
0.00670559
0.00670122
0.00669613
0.00669254
0.00668814
0.00668422
0.00667167
0.00663032
0.00651127
0.00623309
0.00571466
0.00500056
0.00416966
0.00331349
0.0025127
0.00182477
0.00128332
0.000899872
0.000657183
0.000514118
0.000419711
0.000331966
0.000196066
0.00670559
0.00670123
0.00669611
0.00669254
0.00668799
0.00668505
0.00667849
0.00666141
0.00660607
0.00646505
0.00616015
0.00561915
0.00489943
0.00407631
0.00323704
0.00245593
0.00178692
0.00126123
0.000889193
0.000654058
0.000513768
0.000420877
0.000333107
0.00019678
0.00670559
0.00670122
0.00669609
0.00669254
0.00668788
0.00668518
0.00668042
0.00667332
0.00664842
0.00658062
0.00641935
0.00609203
0.00553478
0.0048115
0.00399745
0.00317351
0.00241014
0.00175739
0.00124448
0.000881709
0.000651591
0.000514479
0.000421783
0.000334014
0.000198096
0.00670559
0.00670122
0.00669609
0.00669253
0.00668781
0.00668516
0.00668078
0.00667747
0.00666573
0.00663544
0.00655398
0.00637579
0.00603042
0.00545985
0.00473701
0.00393213
0.00312285
0.0023744
0.00173491
0.0012322
0.000876545
0.000651092
0.000514928
0.000423199
0.000335453
0.000198783
0.0067056
0.00670121
0.00669609
0.00669251
0.00668777
0.00668512
0.00668075
0.00667874
0.00667213
0.00665964
0.00662043
0.00652849
0.0063354
0.00597449
0.00539728
0.00467569
0.00387988
0.00308247
0.00234728
0.00171945
0.00122502
0.000874345
0.00065075
0.000516449
0.000424133
0.000336211
5.3354e-05
0.0067056
0.0067012
0.00669609
0.0066925
0.00668776
0.00668507
0.00668066
0.00667903
0.0066742
0.00666955
0.0066508
0.00660736
0.00650426
0.00629938
0.00592924
0.00534405
0.00462511
0.00383865
0.00305484
0.0023311
0.00171149
0.0012217
0.00087368
0.000652365
0.000517573
0.000426567
0.000283617
6.33163e-05
0.00670561
0.00670119
0.00669609
0.00669248
0.00668775
0.00668503
0.00668059
0.00667902
0.00667473
0.00667325
0.00666364
0.00664556
0.00659331
0.00648287
0.00626838
0.00588723
0.00530328
0.00459186
0.0038153
0.00303892
0.00232218
0.00170824
0.00122117
0.000875511
0.000654008
0.000519675
0.000420091
0.000219492
7.06897e-05
0.00670562
0.00670119
0.0066961
0.00669246
0.00668774
0.00668498
0.00668055
0.00667893
0.00667478
0.00667443
0.00666863
0.00666283
0.00663706
0.0065838
0.00646629
0.00624187
0.00586438
0.00527921
0.00456967
0.00379852
0.00302981
0.00231933
0.00170962
0.00122493
0.000878616
0.00065638
0.000520916
0.000400231
0.000178048
7.61276e-05
0.00670562
0.00670118
0.0066961
0.00669245
0.00668775
0.00668495
0.00668052
0.00667884
0.00667472
0.00667466
0.00667036
0.00667002
0.00665723
0.00663608
0.00657442
0.00645149
0.00623337
0.00584779
0.00526121
0.0045556
0.00379119
0.00302944
0.00232404
0.00171714
0.00123152
0.000883348
0.000659733
0.000518812
0.00036747
0.000152561
8.05312e-05
0.00670563
0.00670117
0.00669611
0.00669243
0.00668775
0.00668491
0.0066805
0.00667876
0.00667466
0.00667459
0.00667083
0.00667267
0.00666599
0.0066613
0.00663008
0.00657318
0.00645056
0.00622649
0.0058378
0.00525294
0.00455455
0.00379714
0.00304033
0.00233685
0.00172933
0.00124114
0.000889726
0.000662817
0.000512848
0.000336291
0.00013422
8.39234e-05
0.00670563
0.00670116
0.00669612
0.00669241
0.00668775
0.00668488
0.00668049
0.00667869
0.0066746
0.00667446
0.00667089
0.00667339
0.00666953
0.00667248
0.00665749
0.00663921
0.00657626
0.00645352
0.00622543
0.00584042
0.00526173
0.00456816
0.00381515
0.00306039
0.00235638
0.00174603
0.00125358
0.000897263
0.000665657
0.000501537
0.000306198
0.000121254
8.63312e-05
0.00670564
0.00670115
0.00669613
0.0066924
0.00668776
0.00668485
0.00668048
0.00667862
0.00667456
0.00667432
0.00667084
0.00667344
0.00667073
0.00667697
0.0066706
0.00667267
0.00664501
0.00658509
0.00646256
0.00623956
0.00585904
0.005284
0.00459472
0.00384415
0.0030893
0.00238247
0.00176678
0.00126865
0.000905946
0.000666986
0.000486302
0.000280145
0.000112756
8.81128e-05
0.00670564
0.00670114
0.00669613
0.00669239
0.00668776
0.00668483
0.00668048
0.00667857
0.00667452
0.0066742
0.00667075
0.00667329
0.00667104
0.00667842
0.00667641
0.00668828
0.00668037
0.00665783
0.00660295
0.00648533
0.00626738
0.0058914
0.0053205
0.00463402
0.00388416
0.00312686
0.0024146
0.0017915
0.00128602
0.00091539
0.000667242
0.000469504
0.000260375
0.000106983
8.94947e-05
0.00670114
0.00670565
0.00669614
0.00669237
0.00668777
0.0066848
0.00668048
0.00667852
0.00667449
0.00667409
0.00667067
0.0066731
0.00667105
0.00667871
0.00667862
0.0066953
0.00669751
0.00669596
0.00668194
0.00663244
0.00652106
0.00630919
0.00593895
0.00537124
0.00468638
0.00393484
0.00317263
0.00245274
0.00181977
0.00130557
0.000926542
0.000666357
0.000454638
0.000245186
0.000102933
9.06168e-05
0.00669614
0.00670114
0.00670567
0.00669236
0.00668778
0.00668478
0.00668048
0.00667847
0.00667446
0.006674
0.0066706
0.00667291
0.00667097
0.00667862
0.00667935
0.00669806
0.00670538
0.00671502
0.00672438
0.00671629
0.00667477
0.00657127
0.00636694
0.00600175
0.0054368
0.00475142
0.00399613
0.00322656
0.00249624
0.00185151
0.00132978
0.00094003
0.000665053
0.000441844
0.000233402
0.00010005
9.15679e-05
0.00669235
0.00669618
0.00670116
0.00670569
0.00668778
0.00668476
0.00668048
0.00667843
0.00667445
0.00667392
0.00667053
0.00667275
0.00667086
0.0066784
0.00667953
0.006699
0.00670866
0.00672412
0.00674633
0.00676231
0.00676384
0.00673169
0.00663783
0.00644159
0.00608159
0.00551763
0.00482959
0.0040676
0.00328784
0.00254513
0.00189021
0.00135868
0.000954237
0.000664142
0.000431391
0.000224089
9.79443e-05
9.23996e-05
0.00668779
0.00669237
0.00669624
0.00670118
0.00670571
0.00668474
0.00668049
0.00667839
0.00667443
0.00667385
0.00667047
0.0066726
0.00667075
0.00667816
0.00667951
0.00669924
0.00670993
0.00672817
0.00675726
0.00678696
0.00681393
0.00682616
0.00680542
0.00672163
0.00653433
0.00617819
0.00561401
0.00491997
0.00414881
0.00335656
0.00260461
0.00193792
0.00138912
0.000969277
0.000664
0.000422621
0.000216623
9.64091e-05
9.31475e-05
0.00668472
0.00668784
0.00669242
0.0066963
0.0067012
0.00670573
0.00668049
0.00667836
0.00667442
0.00667378
0.00667042
0.00667249
0.00667064
0.00667793
0.00667943
0.00669923
0.00671039
0.00672995
0.00676252
0.0068
0.00684155
0.00688008
0.00690531
0.00689664
0.00682434
0.00664495
0.00629205
0.00572591
0.00502346
0.00423954
0.00343994
0.00267736
0.00198948
0.00142102
0.000984957
0.000664657
0.000415503
0.000210547
9.52592e-05
9.38291e-05
0.0066805
0.00668475
0.00668793
0.00669247
0.00669636
0.00670122
0.00670575
0.00667833
0.00667442
0.00667372
0.00667038
0.00667239
0.00667054
0.00667773
0.00667934
0.00669911
0.00671054
0.00673081
0.00676518
0.00680697
0.00685764
0.00691227
0.00696575
0.00700361
0.00700685
0.00694489
0.00677366
0.00642259
0.00585223
0.00513884
0.00434985
0.00354192
0.00275568
0.00204406
0.00145417
0.00100151
0.00066651
0.000409675
0.000205514
9.44144e-05
9.44609e-05
0.0066783
0.00668056
0.00668482
0.00668803
0.00669252
0.00669643
0.00670124
0.00670577
0.00667442
0.00667367
0.00667034
0.0066723
0.00667044
0.00667757
0.00667925
0.00669898
0.00671057
0.00673127
0.0067667
0.00681094
0.00686703
0.00693184
0.00700328
0.00707174
0.0071253
0.00713957
0.00708512
0.00691908
0.00656837
0.00599151
0.0052803
0.00448533
0.00365142
0.00283865
0.00210122
0.00148824
0.00101839
0.000669439
0.000404927
0.000201244
9.37681e-05
9.50468e-05
0.00667442
0.00667832
0.00668068
0.00668489
0.00668813
0.00669258
0.00669649
0.00670126
0.00670579
0.00667362
0.00667032
0.00667222
0.00667035
0.00667744
0.00667916
0.00669884
0.00671055
0.00673156
0.00676771
0.00681357
0.00687308
0.00694435
0.00702795
0.00711592
0.00720229
0.00726986
0.00729702
0.00724822
0.00708102
0.00672819
0.00616012
0.00545054
0.00463148
0.00376814
0.00292538
0.00216037
0.00152317
0.00103528
0.000672813
0.000401158
0.000197644
9.32995e-05
9.5597e-05
0.00667357
0.00667449
0.00667839
0.0066808
0.00668496
0.00668824
0.00669263
0.00669656
0.00670128
0.00670581
0.00667031
0.00667215
0.00667027
0.00667734
0.00667907
0.00669871
0.00671052
0.00673177
0.00676847
0.00681557
0.00687753
0.00695317
0.00704537
0.0071472
0.00725548
0.00735797
0.00744091
0.00747773
0.00743481
0.0072639
0.00691766
0.0063596
0.00563112
0.00478519
0.00389015
0.00301502
0.00222091
0.00155889
0.0010521
0.000676894
0.000398211
0.000194522
9.29351e-05
9.61095e-05
0.0066703
0.00667356
0.0066746
0.00667846
0.00668093
0.00668503
0.00668835
0.00669269
0.00669663
0.0067013
0.00670583
0.00667208
0.00667021
0.00667727
0.00667896
0.00669859
0.00671049
0.00673194
0.00676909
0.00681724
0.00688111
0.00696016
0.0070588
0.00717103
0.00729614
0.00742267
0.00754342
0.00763829
0.0076835
0.00764258
0.00749005
0.00715146
0.00656928
0.00581857
0.00494328
0.00401514
0.00310666
0.00228233
0.001595
0.00106893
0.000681453
0.000395839
0.000191851
9.26819e-05
9.65935e-05
0.00667201
0.00667033
0.00667359
0.00667473
0.00667854
0.00668107
0.00668511
0.00668846
0.00669274
0.00669671
0.00670132
0.00670586
0.00667015
0.00667723
0.00667884
0.0066985
0.00671047
0.0067321
0.00676963
0.0068187
0.00688415
0.00696614
0.00707004
0.00719042
0.00732957
0.00747558
0.00762352
0.00775851
0.0078646
0.00791427
0.00789713
0.00776598
0.00740615
0.00678761
0.00600833
0.00510369
0.00414204
0.00319924
0.00234412
0.0016312
0.00108559
0.000686438
0.000394074
0.000189499
9.2482e-05
9.70435e-05
0.00667012
0.00667193
0.00667038
0.00667363
0.00667487
0.00667861
0.00668121
0.00668519
0.00668858
0.0066928
0.00669678
0.00670135
0.00670588
0.00667719
0.0066787
0.00669844
0.00671046
0.00673225
0.00677011
0.00682
0.00688681
0.00697146
0.00707988
0.00720726
0.00735841
0.00752161
0.00769316
0.00785795
0.00800742
0.0081202
0.00819894
0.00820975
0.00806345
0.00767725
0.00701826
0.00620025
0.00526469
0.00426884
0.0032919
0.00240577
0.00166721
0.0011022
0.000691396
0.000392747
0.000187473
9.23571e-05
9.74697e-05
0.00667715
0.00667001
0.00667184
0.00667045
0.00667366
0.00667502
0.00667869
0.00668136
0.00668526
0.0066887
0.00669286
0.00669686
0.00670137
0.0067059
0.00667853
0.00669843
0.00671048
0.00673239
0.00677054
0.00682117
0.00688919
0.00697629
0.00708868
0.00722248
0.0073844
0.00756257
0.00775681
0.00794927
0.00813233
0.00829079
0.00843817
0.00855172
0.00854981
0.00837931
0.00795867
0.00725718
0.00639216
0.00542306
0.00439425
0.00338367
0.00246682
0.00170279
0.00111878
0.000696316
0.000391785
0.00018566
9.22566e-05
9.78643e-05
0.00667837
0.00667695
0.00666979
0.00667174
0.00667053
0.00667369
0.00667518
0.00667876
0.00668152
0.00668535
0.00668882
0.00669292
0.00669693
0.0067014
0.00670592
0.00669848
0.00671051
0.00673253
0.00677092
0.00682222
0.00689133
0.0069807
0.00709663
0.00723649
0.00740825
0.00760005
0.00781566
0.00803654
0.00825254
0.00844733
0.00864705
0.00883703
0.00893972
0.00891421
0.00871035
0.00824776
0.0075013
0.00658774
0.00557852
0.00451726
0.00347402
0.00252689
0.00173777
0.0011351
0.00070119
0.000391082
0.000184092
9.22097e-05
9.82389e-05
0.00669861
0.00667765
0.0066766
0.00666959
0.00667164
0.00667065
0.00667372
0.00667536
0.00667884
0.00668168
0.00668543
0.00668894
0.00669299
0.00669701
0.00670143
0.00670594
0.00671054
0.00673265
0.00677125
0.00682316
0.00689328
0.00698472
0.00710384
0.00724946
0.00743021
0.00763494
0.00787124
0.00811935
0.00837086
0.00860418
0.00884912
0.00910095
0.00928199
0.009361
0.00930056
0.00905395
0.00854214
0.00774583
0.00678421
0.00573105
0.00463752
0.00356223
0.00258563
0.00177198
0.00115114
0.000705996
0.000390605
0.000182667
9.21702e-05
9.85838e-05
0.00671054
0.00669815
0.00667632
0.00667622
0.00666946
0.00667151
0.00667079
0.00667374
0.00667555
0.00667892
0.00668185
0.00668552
0.00668907
0.00669306
0.00669708
0.00670145
0.00670595
0.00673273
0.00677152
0.00682402
0.00689505
0.00698838
0.00711043
0.00726146
0.00745041
0.00766771
0.00792409
0.00819808
0.00848504
0.00876471
0.00906165
0.00937007
0.00961611
0.00977424
0.00981604
0.00970814
0.0094084
0.00883982
0.00798928
0.00697939
0.00587919
0.00475351
0.00364774
0.00264274
0.00180528
0.0011668
0.000710717
0.000390285
0.000181432
9.21713e-05
9.89121e-05
0.00673282
0.0067095
0.00669705
0.00667529
0.00667574
0.00666941
0.00667135
0.00667097
0.00667376
0.00667574
0.00667901
0.00668201
0.00668562
0.00668919
0.00669313
0.00669714
0.00670148
0.00670597
0.00677174
0.00682479
0.00689667
0.00699173
0.00711645
0.00727254
0.00746898
0.00769856
0.00797404
0.00827287
0.00859617
0.00892629
0.00928682
0.00966386
0.00997469
0.0102031
0.0103228
0.0103098
0.0101383
0.00977309
0.00913944
0.00823041
0.00717204
0.00602473
0.00486498
0.0037302
0.002698
0.00183755
0.00118202
0.000715332
0.000390104
0.000180292
9.21692e-05
9.92128e-05
0.00677194
0.00673118
0.0067073
0.00669545
0.00667461
0.00667513
0.00666946
0.00667117
0.00667117
0.00667378
0.00667595
0.0066791
0.00668218
0.00668572
0.0066893
0.0066932
0.00669721
0.00670151
0.00670598
0.00682549
0.00689815
0.00699477
0.00712196
0.00728273
0.00748608
0.00772755
0.00802085
0.00834401
0.00870539
0.00908845
0.00951397
0.00998332
0.0103905
0.0107002
0.0108918
0.0109453
0.0108504
0.0105937
0.010148
0.00944007
0.00846836
0.00736008
0.00616738
0.00497199
0.00380941
0.00275122
0.00186869
0.00119675
0.000719824
0.000390019
0.000179307
9.21993e-05
9.94995e-05
0.00682619
0.00676918
0.00672769
0.00670511
0.00669353
0.00667429
0.00667438
0.0066696
0.00667097
0.00667139
0.00667381
0.00667615
0.0066792
0.00668234
0.00668582
0.00668941
0.00669327
0.00669727
0.00670154
0.006706
0.00689951
0.00699754
0.00712699
0.00729206
0.00750181
0.00775464
0.00806444
0.00841195
0.00881255
0.00924848
0.00973805
0.0103229
0.0108891
0.0113357
0.0116109
0.0117166
0.0116572
0.0114435
0.0110755
0.0105329
0.00974099
0.00870237
0.00754267
0.00630619
0.00507457
0.00388523
0.00280231
0.00189865
0.00121095
0.000724178
0.00039003
0.000178386
9.22207e-05
9.97288e-05
0.00690081
0.00682273
0.00676319
0.00672432
0.00670296
0.00669121
0.00667429
0.00667352
0.00666982
0.00667076
0.00667162
0.00667385
0.00667636
0.00667932
0.0066825
0.00668592
0.00668951
0.00669334
0.00669733
0.00670157
0.00670601
0.00700006
0.00713159
0.00730057
0.00751627
0.00777979
0.00810491
0.00847691
0.00891632
0.00940318
0.00996066
0.0106979
0.0114872
0.012165
0.0125829
0.0127369
0.0126836
0.0124568
0.0120861
0.0115817
0.0109263
0.0100413
0.00893179
0.00771952
0.00644056
0.00517272
0.00395763
0.00285118
0.00192737
0.00122459
0.000728383
0.000390062
0.000177603
9.22596e-05
9.99213e-05
0.00700238
0.00689591
0.0068147
0.00675725
0.00672116
0.00670113
0.00668844
0.00667454
0.0066726
0.00667006
0.00667057
0.00667185
0.00667392
0.00667654
0.00667944
0.00668264
0.00668603
0.00668961
0.00669341
0.00669738
0.0067016
0.00670602
0.00713576
0.00730831
0.00752954
0.00780301
0.00814246
0.00853876
0.00901512
0.00955148
0.0101891
0.0111251
0.0121932
0.01316
0.0138205
0.0140832
0.0140252
0.013753
0.0133196
0.0127652
0.0121058
0.0113253
0.0103397
0.00915604
0.0078904
0.00657006
0.00526643
0.00402657
0.0028978
0.00195483
0.00123767
0.000732444
0.000390127
0.000176964
9.22878e-05
0.000100128
0.00713959
0.00699573
0.00688412
0.00680671
0.0067516
0.00671817
0.00669987
0.00668545
0.00667491
0.0066717
0.0066703
0.00667043
0.00667205
0.00667401
0.00667671
0.00667957
0.00668277
0.00668613
0.00668971
0.00669348
0.00669743
0.00670163
0.00670603
0.00731533
0.00754166
0.00782433
0.00817725
0.00859714
0.00910793
0.00969459
0.0104304
0.0116049
0.0129764
0.0142373
0.0151613
0.0156446
0.0156711
0.0153639
0.0148558
0.0142059
0.01346
0.0126379
0.0117257
0.0106346
0.00937451
0.0080551
0.00669442
0.00535576
0.00409215
0.00294217
0.00198101
0.00125016
0.000736364
0.000390199
0.000176449
9.23321e-05
0.000100354
0.00732169
0.00713062
0.0069789
0.00687233
0.00679892
0.00674618
0.00671533
0.00669885
0.00668245
0.00667526
0.00667091
0.00667048
0.00667036
0.00667222
0.00667413
0.00667687
0.0066797
0.0066829
0.00668624
0.00668979
0.00669354
0.00669748
0.00670166
0.00670604
0.00755271
0.00784381
0.00820942
0.0086517
0.0091946
0.00983462
0.0106867
0.0121194
0.013778
0.0152894
0.0164353
0.0171404
0.0173847
0.0171769
0.0166429
0.0159225
0.0150746
0.0141477
0.0131669
0.0121225
0.0109242
0.00958661
0.00821349
0.00681352
0.00544066
0.00415423
0.00298427
0.00200592
0.00126207
0.000739621
0.00039028
0.0001759
9.23763e-05
0.000100598
0.0075627
0.00731009
0.0071069
0.00696203
0.00686083
0.00679126
0.00674095
0.00671267
0.0066979
0.00667965
0.00667546
0.00667029
0.00667057
0.00667037
0.00667235
0.00667427
0.00667701
0.00667984
0.00668301
0.00668634
0.00668988
0.00669361
0.00669753
0.00670167
0.00670604
0.00786157
0.00823905
0.00870224
0.00927558
0.00997307
0.0109535
0.0126415
0.0145408
0.0162323
0.0175295
0.018401
0.0188542
0.0188862
0.0184961
0.0177893
0.0169027
0.0158924
0.0148083
0.0136818
0.0125106
0.0112067
0.00979173
0.00836543
0.00692729
0.00552158
0.00421281
0.00302413
0.00202957
0.00127191
0.000742422
0.000390376
0.000175332
9.2442e-05
0.000100864
0.00787748
0.00754761
0.00727729
0.00708312
0.00694554
0.00684958
0.00678368
0.00673605
0.00671013
0.00669694
0.00667728
0.00667536
0.0066699
0.00667057
0.00667045
0.00667246
0.00667442
0.00667714
0.00667997
0.00668313
0.00668645
0.00668996
0.00669368
0.00669756
0.00670167
0.00670604
0.00826624
0.00874873
0.00935157
0.0101101
0.011223
0.0131457
0.0152259
0.0170243
0.0183998
0.019369
0.019971
0.0202199
0.0201
0.0195905
0.0187709
0.0177695
0.0166381
0.0154271
0.0141737
0.0128855
0.0114801
0.00998933
0.00851085
0.00703556
0.00559884
0.00426808
0.00306181
0.00204901
0.00128029
0.000745505
0.00039051
0.000174728
9.2506e-05
0.000101152
0.00829058
0.00785859
0.00750264
0.00724437
0.00705986
0.00692942
0.00683855
0.00677613
0.0067315
0.00670758
0.0066958
0.0066758
0.00667492
0.00666974
0.00667049
0.00667057
0.00667255
0.00667458
0.00667727
0.00668011
0.00668324
0.00668655
0.00669004
0.00669371
0.00669756
0.00670167
0.00670604
0.00879138
0.00942318
0.0102444
0.011486
0.0136138
0.0158158
0.0176583
0.0190517
0.0200563
0.0207417
0.0211415
0.0212512
0.0210379
0.0204643
0.0195839
0.0185146
0.0173019
0.015995
0.0146363
0.0132436
0.0117429
0.0101789
0.00864966
0.00713829
0.00567237
0.0043202
0.00309267
0.00206554
0.0012895
0.000748941
0.000390665
0.000174102
9.25988e-05
0.000101466
0.00882931
0.00826681
0.00779771
0.00745752
0.0072121
0.00703713
0.00691365
0.00682774
0.00676864
0.00672712
0.00670495
0.00669372
0.00667506
0.00667421
0.00666975
0.00667037
0.00667072
0.00667263
0.00667474
0.00667739
0.00668024
0.00668334
0.00668665
0.00669008
0.00669371
0.00669756
0.00670167
0.00670604
0.00949083
0.0103744
0.0117352
0.0140357
0.0163088
0.018148
0.0195146
0.020507
0.0212199
0.0217054
0.0219728
0.0219984
0.0217375
0.0211414
0.0202409
0.0191416
0.0178821
0.016508
0.0150656
0.0135822
0.0119939
0.0103601
0.00878185
0.00723563
0.00574218
0.00436283
0.00311883
0.00208365
0.00129964
0.000752724
0.000390873
0.000173437
9.26895e-05
0.000101806
0.00955236
0.00879999
0.00818451
0.00773658
0.00741323
0.00718053
0.00701491
0.00689824
0.00681718
0.0067613
0.00672289
0.00670239
0.00669103
0.00667489
0.00667335
0.00666986
0.00667024
0.00667088
0.00667272
0.00667489
0.00667751
0.00668037
0.00668345
0.0066867
0.00669008
0.00669371
0.00669756
0.00670167
0.00670604
0.0104983
0.0119689
0.0144086
0.0167121
0.0185153
0.0198257
0.0207723
0.0214703
0.021988
0.0223477
0.0225365
0.0225181
0.0222418
0.0216523
0.0207612
0.0196611
0.0183823
0.016966
0.0154597
0.0138996
0.0122321
0.0105325
0.00890745
0.00732774
0.00579958
0.00439893
0.00314742
0.00210352
0.00131081
0.000756965
0.000391112
0.00017275
9.28195e-05
0.000102177
0.0106097
0.00951562
0.00868826
0.00810201
0.00767647
0.00736985
0.00714963
0.0069932
0.00688324
0.006807
0.00675404
0.00671902
0.00670011
0.00668782
0.00667504
0.00667249
0.00667
0.00667013
0.00667104
0.0066728
0.00667505
0.00667762
0.0066805
0.0066835
0.0066867
0.00669008
0.00669371
0.00669756
0.00670167
0.00670603
0.012188
0.0147321
0.0170374
0.0187839
0.0200201
0.0208995
0.0215528
0.0220617
0.0224611
0.0227485
0.0228959
0.0228605
0.0225904
0.0220272
0.0211658
0.0200861
0.0188094
0.0173712
0.0158187
0.0141951
0.012457
0.0106962
0.00902649
0.00740327
0.00584833
0.00443837
0.0031787
0.00212535
0.00132315
0.000761626
0.000391421
0.000172024
9.29475e-05
0.000102577
0.0105683
0.0123828
0.00935318
0.00857792
0.00802069
0.00761752
0.00732736
0.00711944
0.00697205
0.00686869
0.00679737
0.00674714
0.00671543
0.00669865
0.00668459
0.00667527
0.0066717
0.00667013
0.00667005
0.00667119
0.0066729
0.00667519
0.00667774
0.00668057
0.00668349
0.0066867
0.00669008
0.00669371
0.00669756
0.00670166
0.00670602
0.0150074
0.0172973
0.018975
0.0201277
0.0209272
0.0215161
0.0219868
0.0223855
0.0227204
0.0229712
0.0231013
0.0230668
0.0228173
0.0222931
0.021475
0.0204303
0.0191714
0.0177273
0.0161436
0.0144685
0.0126684
0.0108509
0.00912421
0.00746735
0.00590177
0.00448151
0.00321296
0.00214935
0.00133677
0.000766847
0.000391776
0.000171274
9.31294e-05
0.000103014
0.0103199
0.0123434
0.0152317
0.00919725
0.00846958
0.00794076
0.00755973
0.00728578
0.00708999
0.0069515
0.00685469
0.00678811
0.00674065
0.00671216
0.00669749
0.00668164
0.00667542
0.00667106
0.00667021
0.00667002
0.00667132
0.006673
0.00667534
0.00667779
0.00668057
0.00668349
0.0066867
0.00669008
0.00669371
0.00669753
0.00670163
0.00670601
0.0175035
0.019107
0.0201724
0.0208859
0.0213982
0.0218102
0.0221777
0.0225197
0.0228252
0.0230623
0.023191
0.0231692
0.0229499
0.0224729
0.0217065
0.0207064
0.0194766
0.0180388
0.0164362
0.0147204
0.0128662
0.0109775
0.00920714
0.00753748
0.00596038
0.00452874
0.00325051
0.00217575
0.00135185
0.000772694
0.000392228
0.000170487
9.33106e-05
0.00010348
0.0100759
0.0119896
0.0151654
0.0176569
0.00904879
0.00836275
0.00786233
0.00750313
0.00724519
0.00706134
0.00693161
0.00684119
0.0067792
0.00673462
0.00670929
0.00669643
0.00667916
0.00667539
0.0066706
0.00667024
0.00667003
0.00667144
0.00667311
0.00667541
0.00667779
0.00668057
0.00668349
0.0066867
0.00669008
0.00669368
0.00669748
0.0067016
0.00670599
0.0191942
0.0201726
0.0207981
0.0212274
0.0215669
0.0218808
0.0221984
0.022519
0.0228174
0.0230553
0.023193
0.0231926
0.0230102
0.0225854
0.0218756
0.0209261
0.0197327
0.0183105
0.016699
0.0149515
0.0130263
0.0110846
0.00929793
0.00761431
0.00602473
0.00458051
0.0032917
0.00220484
0.00136854
0.000779213
0.000392745
0.000169675
9.35658e-05
0.000103991
0.00984726
0.0116066
0.0148112
0.0175576
0.0192391
0.00890532
0.00825738
0.00778552
0.00744778
0.00720565
0.00703355
0.00691241
0.00682825
0.00677077
0.00672927
0.00670667
0.00669534
0.00667738
0.00667514
0.00667031
0.00667022
0.00667008
0.00667155
0.00667317
0.00667541
0.00667778
0.00668057
0.00668349
0.0066867
0.00669004
0.00669361
0.00669743
0.00670157
0.00670598
0.020142
0.0206807
0.0210241
0.021283
0.0215273
0.0217958
0.022099
0.0224208
0.0227261
0.0229742
0.0231286
0.023156
0.0230156
0.0226459
0.0219951
0.0210992
0.0199471
0.018547
0.0169342
0.015135
0.0131608
0.0112016
0.00939735
0.00769855
0.00609545
0.00463732
0.00333695
0.00223692
0.00138708
0.000786478
0.000393389
0.000168832
9.38242e-05
0.000104532
0.00963315
0.0112293
0.0143699
0.0173272
0.0190872
0.0200808
0.00876513
0.00815372
0.00771045
0.0073938
0.00716727
0.00700668
0.00689402
0.00681615
0.00676296
0.00672467
0.00670416
0.0066938
0.00667634
0.00667467
0.00667016
0.00667017
0.00667016
0.00667159
0.00667316
0.00667541
0.00667778
0.00668057
0.0066835
0.00668665
0.00668996
0.00669354
0.00669738
0.00670154
0.00670597
0.0205458
0.0208037
0.0209775
0.0211416
0.0213421
0.0216009
0.0219131
0.0222502
0.022571
0.0228358
0.0230133
0.0230743
0.0229796
0.0226667
0.0220754
0.0212343
0.0201261
0.0187526
0.0171165
0.0152873
0.0133064
0.0113291
0.00950629
0.007791
0.00617322
0.00469974
0.00338671
0.00227235
0.00140765
0.000794647
0.000394133
0.000167961
9.41843e-05
0.000105124
0.00943059
0.0108706
0.013882
0.0170105
0.0189303
0.0198744
0.0203889
0.00862762
0.00805209
0.00763729
0.00734134
0.00713015
0.00698095
0.0068769
0.00680507
0.00675565
0.00672057
0.00670181
0.00669168
0.00667585
0.00667406
0.00667012
0.00667009
0.00667022
0.00667157
0.00667316
0.00667541
0.00667779
0.00668057
0.00668345
0.00668655
0.00668988
0.00669347
0.00669732
0.00670151
0.00670595
0.0205766
0.0206644
0.0207417
0.0208607
0.0210531
0.0213267
0.0216631
0.0220239
0.0223656
0.0226526
0.0228592
0.0229592
0.0229132
0.0226575
0.0221251
0.0213386
0.0202752
0.018907
0.0172657
0.0154498
0.0134636
0.0114682
0.00962566
0.00789253
0.00625885
0.00476842
0.0034415
0.00231152
0.00143057
0.000803779
0.000395041
0.000167051
9.45554e-05
0.000105742
0.00923713
0.0105347
0.0133689
0.0166323
0.0187033
0.019751
0.0201278
0.0203327
0.0084929
0.00795282
0.00756623
0.00729055
0.00709462
0.00695704
0.00686128
0.00679495
0.00674888
0.00671696
0.00669977
0.0066891
0.0066757
0.00667338
0.00667017
0.00666999
0.00667025
0.00667156
0.00667316
0.00667541
0.00667779
0.0066805
0.00668334
0.00668644
0.00668979
0.0066934
0.00669727
0.00670148
0.00670594
0.0203532
0.0203411
0.0203693
0.0204786
0.0206887
0.0209941
0.0213635
0.0217525
0.0221192
0.022434
0.0226759
0.0228196
0.0228247
0.0226259
0.0221511
0.0214178
0.0203819
0.0190313
0.017422
0.0156224
0.0136329
0.0116196
0.00975646
0.00800411
0.00635319
0.0048441
0.00350192
0.00235488
0.00145608
0.000814077
0.000396102
0.000166084
9.50622e-05
0.000106534
0.00905116
0.010223
0.0128412
0.0162044
0.0184327
0.0195706
0.0200075
0.0200164
0.0200278
0.00836128
0.00785628
0.00749749
0.00724192
0.00706163
0.00693526
0.00684706
0.00678583
0.00674265
0.00671383
0.00669842
0.00668644
0.00667573
0.00667272
0.0066703
0.00666988
0.00667027
0.00667156
0.00667316
0.00667541
0.00667774
0.00668037
0.00668323
0.00668634
0.0066897
0.00669333
0.00669721
0.00670145
0.00670592
0.0199491
0.0198817
0.0198957
0.020022
0.020269
0.0206163
0.0210232
0.0214429
0.0218384
0.0221872
0.0224709
0.022663
0.0227209
0.0225781
0.0221587
0.0214676
0.0204659
0.0191588
0.017585
0.0158051
0.013815
0.0117843
0.00989974
0.00812679
0.00645723
0.00492757
0.00356861
0.00240295
0.00148457
0.000825631
0.000397377
0.000165097
9.57017e-05
0.000107471
0.00887197
0.00993512
0.0123073
0.0157278
0.0181307
0.019362
0.0198385
0.0198797
0.0196554
0.0195494
0.00823301
0.00776291
0.00743171
0.00719677
0.00703162
0.00691545
0.00683416
0.00677767
0.00673705
0.006711
0.00669731
0.00668395
0.00667583
0.00667217
0.00667044
0.00666983
0.00667027
0.00667157
0.00667317
0.00667533
0.00667762
0.00668024
0.00668312
0.00668623
0.00668961
0.00669326
0.00669714
0.00670143
0.0067059
0.0194077
0.0193194
0.019346
0.0195114
0.0198066
0.020201
0.0206467
0.0210988
0.0215285
0.0219186
0.0222508
0.0224953
0.0226068
0.0225188
0.0221513
0.0215044
0.0205488
0.0192883
0.017754
0.0159977
0.01401
0.0119631
0.0100566
0.00826174
0.00657206
0.00501985
0.00364244
0.00245634
0.0015164
0.000838698