/*--------------------------------*- C++ -*----------------------------------*\
  =========                 |
  \\      /  F ield         | OpenFOAM: The Open Source CFD Toolbox
   \\    /   O peration     | Website:  https://openfoam.org
    \\  /    A nd           | Version:  8
     \\/     M anipulation  |
\*---------------------------------------------------------------------------*/
FoamFile
{
    version     2.0;
    format      ascii;
    class       surfaceScalarField;
    location    "0.2";
    object      phi;
}
// * * * * * * * * * * * * * * * * * * * * * * * * * * * * * * * * * * * * * //

dimensions      [0 3 -1 0 0 0 0];

internalField   nonuniform List<scalar> 
31053
(
6.40159e-07
1.27398e-05
8.63189e-07
1.5157e-05
3.57413e-07
1.23824e-05
9.48843e-07
1.75543e-05
5.67628e-07
1.49468e-05
2.75305e-07
1.21071e-05
9.73534e-07
2.02153e-05
6.8242e-07
1.74396e-05
4.71246e-07
1.47508e-05
2.16816e-07
1.18903e-05
9.64931e-07
2.32486e-05
7.41205e-07
2.01565e-05
5.97281e-07
1.73135e-05
3.97262e-07
1.45704e-05
1.72463e-07
1.17178e-05
9.35018e-07
2.66899e-05
7.66333e-07
2.32235e-05
6.72543e-07
2.00813e-05
5.24795e-07
1.7186e-05
3.33324e-07
1.44095e-05
1.38267e-07
1.15796e-05
8.89594e-07
3.06654e-05
7.69589e-07
2.66867e-05
7.14753e-07
2.31813e-05
6.06021e-07
2e-05
4.55776e-07
1.70635e-05
2.79379e-07
1.42684e-05
1.11376e-07
1.14682e-05
8.31746e-07
3.51978e-05
7.5743e-07
3.06776e-05
7.34814e-07
2.66666e-05
6.54478e-07
2.31328e-05
5.37134e-07
1.99187e-05
3.92901e-07
1.695e-05
2.32742e-07
1.4147e-05
8.91099e-08
1.13791e-05
7.65269e-07
4.03865e-05
7.34043e-07
3.52212e-05
7.39182e-07
3.06732e-05
6.80235e-07
2.66408e-05
5.86487e-07
2.30835e-05
4.70721e-07
1.98409e-05
3.34713e-07
1.6848e-05
1.91073e-07
1.40451e-05
6.96579e-08
1.13094e-05
6.92761e-07
4.63525e-05
7.00574e-07
4.04199e-05
7.3174e-07
3.52287e-05
6.89297e-07
3.06642e-05
6.12856e-07
2.66145e-05
5.17742e-07
2.30364e-05
4.06022e-07
1.97695e-05
2.79591e-07
1.67595e-05
1.52594e-07
1.39621e-05
5.18801e-08
1.12576e-05
6.16061e-07
5.32167e-05
6.5854e-07
4.63945e-05
7.12817e-07
4.04389e-05
6.84591e-07
3.52334e-05
6.22162e-07
3.06548e-05
5.4161e-07
2.65906e-05
4.4802e-07
2.29944e-05
3.41947e-07
1.97072e-05
2.26168e-07
1.66859e-05
1.16027e-07
1.3898e-05
3.50021e-08
1.12226e-05
5.37124e-07
6.10589e-05
6.0975e-07
5.32655e-05
6.82846e-07
4.64245e-05
6.6901e-07
4.04545e-05
6.17787e-07
3.52378e-05
5.48095e-07
3.06484e-05
4.668e-07
2.65718e-05
3.76603e-07
2.29598e-05
2.77389e-07
1.9656e-05
1.73366e-07
1.66286e-05
8.04345e-08
1.38526e-05
1.85127e-08
1.1204e-05
4.57795e-07
7.00613e-05
5.55773e-07
6.11129e-05
6.42927e-07
5.33054e-05
6.43523e-07
4.645e-05
6.01979e-07
4.04703e-05
5.40667e-07
3.52452e-05
4.67745e-07
3.06474e-05
3.88007e-07
2.65604e-05
3.02465e-07
2.29347e-05
2.11371e-07
1.9618e-05
1.20397e-07
1.65886e-05
4.51326e-08
1.38259e-05
2.22862e-09
1.12018e-05
3.79756e-07
8.041e-05
4.98019e-07
7.01191e-05
5.94303e-07
6.11615e-05
6.08183e-07
5.33407e-05
5.75852e-07
4.64761e-05
5.213e-07
4.04896e-05
4.54239e-07
3.52587e-05
3.80965e-07
3.06545e-05
3.04228e-07
2.65587e-05
2.24632e-07
2.29214e-05
1.43224e-07
1.95951e-05
6.66526e-08
1.65671e-05
9.74577e-09
1.38184e-05
-1.40527e-08
1.12159e-05
3.16909e-07
7.62528e-05
4.37784e-07
8.04703e-05
5.38412e-07
7.0175e-05
5.63303e-07
6.12064e-05
5.3968e-07
5.33769e-05
4.90994e-07
4.65064e-05
4.28148e-07
4.05157e-05
3.58691e-07
3.5281e-05
2.86794e-07
3.06719e-05
2.14462e-07
2.65688e-05
1.42455e-07
2.29222e-05
7.2439e-08
1.95894e-05
1.17978e-08
1.65651e-05
-2.59264e-08
1.38303e-05
-3.05039e-08
1.12464e-05
2.63593e-07
7.62433e-05
3.86153e-07
7.63045e-05
4.76906e-07
8.05318e-05
5.09593e-07
7.02287e-05
4.93555e-07
6.12525e-05
4.50095e-07
5.34178e-05
3.90355e-07
4.65442e-05
3.22935e-07
4.05515e-05
2.5311e-07
3.53147e-05
1.84191e-07
3.07022e-05
1.1802e-07
2.65933e-05
5.5439e-08
2.29392e-05
-1.18437e-09
1.96023e-05
-4.42734e-08
1.65834e-05
-6.20154e-08
1.38618e-05
-4.71206e-08
1.12935e-05
2.18573e-07
7.6235e-05
3.39466e-07
7.629e-05
4.22432e-07
7.6359e-05
4.48247e-07
8.05931e-05
4.37773e-07
7.02845e-05
3.98681e-07
6.1304e-05
3.41156e-07
5.3467e-05
2.74461e-07
4.65927e-05
2.04767e-07
4.05998e-05
1.3642e-07
3.53624e-05
7.24177e-08
3.07478e-05
1.4413e-08
2.66343e-05
-3.65162e-08
2.29745e-05
-7.75846e-08
1.96356e-05
-1.01513e-07
1.66229e-05
-9.84334e-08
1.39131e-05
-6.3735e-08
1.13572e-05
1.8075e-07
7.62298e-05
2.97324e-07
7.62772e-05
3.71873e-07
7.63406e-05
3.92272e-07
7.64149e-05
3.7317e-07
8.06577e-05
3.36887e-07
7.03463e-05
2.80621e-07
6.13645e-05
2.13464e-07
5.3528e-05
1.42379e-07
4.66551e-05
7.2521e-08
4.06637e-05
7.8234e-09
3.5427e-05
-4.90241e-08
3.08112e-05
-9.64129e-08
2.66942e-05
-1.33193e-07
2.30302e-05
-1.5648e-07
1.96906e-05
-1.59617e-07
1.66841e-05
-1.349e-07
1.39843e-05
-8.02169e-08
1.14374e-05
1.49158e-07
7.62216e-05
2.59347e-07
7.62678e-05
3.25182e-07
7.63239e-05
3.393e-07
7.63935e-05
3.1357e-07
7.64745e-05
2.65344e-07
8.07293e-05
2.08854e-07
7.0418e-05
1.39978e-07
6.1438e-05
6.60155e-08
5.36044e-05
-7.08845e-09
4.67347e-05
-7.46832e-08
4.07462e-05
-1.33191e-07
3.55112e-05
-1.80149e-07
3.08949e-05
-2.14103e-07
2.67751e-05
-2.34075e-07
2.31077e-05
-2.37266e-07
1.97683e-05
-2.18065e-07
1.67673e-05
-1.71057e-07
1.40751e-05
-9.63063e-08
1.15337e-05
1.22962e-07
7.62162e-05
2.25189e-07
7.62558e-05
2.8224e-07
7.63107e-05
2.89719e-07
7.63734e-05
2.56813e-07
7.64503e-05
1.99248e-07
7.65406e-05
1.26451e-07
8.08117e-05
5.41147e-08
7.05039e-05
-2.43542e-08
6.15283e-05
-1.02502e-07
5.36998e-05
-1.74928e-07
4.68349e-05
-2.37363e-07
4.08504e-05
-2.86598e-07
3.56176e-05
-3.20446e-07
3.10013e-05
-3.37914e-07
2.68789e-05
-3.38246e-07
2.32087e-05
-3.19064e-07
1.98693e-05
-2.76203e-07
1.68724e-05
-2.06422e-07
1.41852e-05
-1.11822e-07
1.16456e-05
1.01341e-07
7.62116e-05
1.945e-07
7.62469e-05
2.42908e-07
7.62951e-05
2.43702e-07
7.63568e-05
2.0358e-07
7.64267e-05
1.36304e-07
7.65132e-05
5.06669e-08
7.66164e-05
-4.34554e-08
8.09092e-05
-1.286e-07
7.06081e-05
-2.13832e-07
6.16397e-05
-2.93211e-07
5.38181e-05
-3.6167e-07
4.69592e-05
-4.15455e-07
4.09793e-05
-4.51711e-07
3.57489e-05
-4.68963e-07
3.11323e-05
-4.66626e-07
2.70073e-05
-4.44422e-07
2.33341e-05
-4.0084e-07
1.99939e-05
-3.33236e-07
1.69992e-05
-2.40505e-07
1.43139e-05
-1.26434e-07
1.1772e-05
8.48636e-08
6.95985e-05
1.66979e-07
7.62391e-05
2.07025e-07
7.62828e-05
2.01325e-07
7.63375e-05
1.54255e-07
7.64061e-05
7.74344e-08
7.64855e-05
-2.12153e-08
7.65851e-05
-1.32555e-07
7.67055e-05
-2.45906e-07
8.10266e-05
-3.40934e-07
7.07352e-05
-4.29753e-07
6.17762e-05
-5.06664e-07
5.39631e-05
-5.67215e-07
4.7111e-05
-6.08083e-07
4.11356e-05
-6.27364e-07
3.59073e-05
-6.24157e-07
3.12899e-05
-5.98535e-07
2.71614e-05
-5.51148e-07
2.34844e-05
-4.81389e-07
2.01421e-05
-3.88308e-07
1.7147e-05
-2.72692e-07
1.44602e-05
-1.39964e-07
1.1912e-05
7.22506e-08
6.25566e-05
1.44415e-07
6.9621e-05
1.74465e-07
7.62717e-05
1.6261e-07
7.63215e-05
1.09068e-07
7.63826e-05
2.32236e-08
7.64603e-05
-8.80707e-08
7.65524e-05
-2.16579e-07
7.66691e-05
-3.52266e-07
7.68119e-05
-4.82801e-07
8.11684e-05
-5.84407e-07
7.08899e-05
-6.72716e-07
6.19423e-05
-7.42744e-07
5.41386e-05
-7.90491e-07
4.72934e-05
-8.13856e-07
4.13221e-05
-8.11672e-07
3.60948e-05
-7.83892e-07
3.14752e-05
-7.31743e-07
2.7342e-05
-6.56727e-07
2.36597e-05
-5.59417e-07
2.03132e-05
-4.40446e-07
1.73148e-05
-3.02504e-07
1.46227e-05
-1.51955e-07
1.20639e-05
6.24192e-08
5.62278e-05
1.26093e-07
6.25749e-05
1.47552e-07
6.9648e-05
1.27569e-07
7.63067e-05
6.81586e-08
7.63624e-05
-2.59499e-08
7.64318e-05
-1.49125e-07
7.65213e-05
-2.94216e-07
7.663e-05
-4.51978e-07
7.67689e-05
-6.10641e-07
7.69397e-05
-7.55945e-07
8.134e-05
-8.59692e-07
7.10769e-05
-9.42604e-07
6.21421e-05
-1.00017e-06
5.43483e-05
-1.02987e-06
4.75094e-05
-1.03052e-06
4.1541e-05
-1.00203e-06
3.6313e-05
-9.45798e-07
3.16893e-05
-8.64022e-07
2.75493e-05
-7.59373e-07
2.38597e-05
-6.33507e-07
2.05062e-05
-4.88814e-07
1.75011e-05
-3.29008e-07
1.47998e-05
-1.61651e-07
1.22256e-05
5.46377e-08
5.05398e-05
1.11106e-07
5.62428e-05
1.25582e-07
6.25969e-05
9.87759e-08
6.96767e-05
3.1622e-08
7.63433e-05
-6.98348e-08
7.64063e-05
-2.03841e-07
7.64865e-05
-3.645e-07
7.65916e-05
-5.43537e-07
7.67216e-05
-7.29882e-07
7.68881e-05
-9.0979e-07
7.70936e-05
-1.06613e-06
8.15464e-05
-1.16671e-06
7.1301e-05
-1.23794e-06
6.23799e-05
-1.27709e-06
5.45955e-05
-1.28271e-06
4.77616e-05
-1.25498e-06
4.17939e-05
-1.19558e-06
3.65627e-05
-1.10709e-06
3.19323e-05
-9.93068e-07
2.7783e-05
-8.57156e-07
2.40833e-05
-7.02404e-07
2.07198e-05
-5.3203e-07
1.77041e-05
-3.51557e-07
1.49897e-05
-1.69066e-07
1.23946e-05
4.83971e-08
4.54262e-05
9.87584e-08
5.05521e-05
1.07556e-07
5.62608e-05
7.5491e-08
6.26202e-05
2.11925e-09
6.97063e-05
-1.08259e-07
7.63817e-05
-2.5185e-07
7.64543e-05
-4.26724e-07
7.65488e-05
-6.25774e-07
7.66739e-05
-8.38804e-07
7.68305e-05
-1.05272e-06
7.7031e-05
-1.25066e-06
7.72781e-05
-1.41339e-06
8.17931e-05
-1.50381e-06
7.15668e-05
-1.55663e-06
6.26594e-05
-1.57042e-06
5.48832e-05
-1.54535e-06
4.8052e-05
-1.48381e-06
4.20821e-05
-1.38893e-06
3.68446e-05
-1.26492e-06
3.22042e-05
-1.11637e-06
2.80422e-05
-9.48333e-07
2.43293e-05
-7.64282e-07
2.09521e-05
-5.6933e-07
1.79219e-05
-3.66743e-07
1.51874e-05
-1.35569e-07
1.25302e-05
4.33326e-08
4.08311e-05
8.85098e-08
4.54365e-05
9.26883e-08
5.0567e-05
5.66309e-08
5.62797e-05
-2.12406e-08
6.26436e-05
-1.38486e-07
6.97365e-05
-2.92892e-07
7.64227e-05
-4.80382e-07
7.65079e-05
-6.97792e-07
7.66208e-05
-9.3601e-07
7.67711e-05
-1.18278e-06
7.69606e-05
-1.42164e-06
7.7202e-05
-1.63341e-06
7.74981e-05
-1.79591e-06
8.20852e-05
-1.86868e-06
7.18789e-05
-1.89517e-06
6.29842e-05
-1.87594e-06
5.52138e-05
-1.81382e-06
4.8382e-05
-1.71301e-06
4.24062e-05
-1.57861e-06
3.71583e-05
-1.41611e-06
3.25039e-05
-1.23165e-06
2.83255e-05
-1.03063e-06
2.45956e-05
-8.17955e-07
2.12007e-05
-5.95797e-07
1.81509e-05
-3.59005e-07
1.54108e-05
-8.55182e-08
1.26157e-05
3.91748e-08
3.67002e-05
7.9958e-08
4.08396e-05
8.03581e-08
4.54488e-05
4.13263e-08
5.05823e-05
-3.96938e-08
5.62982e-05
-1.61657e-07
6.26667e-05
-3.24141e-07
6.97677e-05
-5.25114e-07
7.64675e-05
-7.58926e-07
7.65691e-05
-1.02039e-06
7.67052e-05
-1.2983e-06
7.68866e-05
-1.57683e-06
7.71157e-05
-1.83699e-06
7.74056e-05
-2.05619e-06
7.77584e-05
-2.21122e-06
8.24277e-05
-2.25741e-06
7.22411e-05
-2.24876e-06
6.3357e-05
-2.18908e-06
5.55891e-05
-2.08339e-06
4.87524e-05
-1.93839e-06
4.2766e-05
-1.76078e-06
3.75029e-05
-1.55784e-06
3.28301e-05
-1.33618e-06
2.86311e-05
-1.10233e-06
2.488e-05
-8.58663e-07
2.14636e-05
-6.04509e-07
1.83965e-05
-3.3238e-07
1.56576e-05
-6.44919e-08
1.26802e-05
3.57243e-08
3.29895e-05
7.27978e-08
3.67073e-05
7.00899e-08
4.08499e-05
2.88884e-08
4.54613e-05
-5.42404e-08
5.05968e-05
-1.79249e-07
5.63157e-05
-3.47087e-07
6.26897e-05
-5.57954e-07
6.98006e-05
-8.08689e-07
7.65172e-05
-1.09108e-06
7.66398e-05
-1.39791e-06
7.68048e-05
-1.71425e-06
7.7024e-05
-2.02152e-06
7.73003e-05
-2.29692e-06
7.76463e-05
-2.51646e-06
7.80636e-05
-2.65509e-06
8.28254e-05
-2.66457e-06
7.26569e-05
-2.6121e-06
6.378e-05
-2.50424e-06
5.60099e-05
-2.3491e-06
4.91631e-05
-2.15539e-06
4.31606e-05
-1.93201e-06
3.78771e-05
-1.68691e-06
3.31809e-05
-1.42774e-06
2.89565e-05
-1.15925e-06
2.51806e-05
-8.8175e-07
2.17408e-05
-6.00228e-07
1.86643e-05
-3.0844e-07
1.59016e-05
-5.85528e-08
1.27388e-05
3.28343e-08
2.96509e-05
6.67817e-08
3.29955e-05
6.15209e-08
3.67159e-05
1.87451e-08
4.086e-05
-6.56857e-08
4.54727e-05
-1.92462e-07
5.06101e-05
-3.63544e-07
5.63322e-05
-5.80851e-07
6.27126e-05
-8.43907e-07
6.98358e-05
-1.14745e-06
7.65736e-05
-1.48056e-06
7.67224e-05
-1.83226e-06
7.69228e-05
-2.18471e-06
7.71872e-05
-2.51512e-06
7.75185e-05
-2.79894e-06
7.79288e-05
-3.00978e-06
7.84183e-05
-3.12139e-06
8.32822e-05
-3.08415e-06
7.3129e-05
-2.9788e-06
6.42546e-05
-2.81575e-06
5.64766e-05
-2.60565e-06
4.96134e-05
-2.35998e-06
4.35886e-05
-2.08862e-06
3.82788e-05
-1.80065e-06
3.35538e-05
-1.50267e-06
2.92999e-05
-1.19774e-06
2.54966e-05
-8.92483e-07
2.20331e-05
-5.92245e-07
1.89481e-05
-2.95286e-07
1.61383e-05
-6.26147e-08
1.28014e-05
3.0395e-08
2.66504e-05
6.17017e-08
2.9656e-05
5.43537e-08
3.30026e-05
1.04282e-08
3.67242e-05
-7.46802e-08
4.0869e-05
-2.02258e-07
4.54825e-05
-3.74979e-07
5.06215e-05
-5.96055e-07
5.63474e-05
-8.67095e-07
6.27358e-05
-1.18602e-06
6.98744e-05
-1.5454e-06
7.66385e-05
-1.92952e-06
7.68197e-05
-2.32456e-06
7.70626e-05
-2.70809e-06
7.73802e-05
-3.05524e-06
7.77748e-05
-3.33848e-06
7.82575e-05
-3.52947e-06
7.88264e-05
-3.6035e-06
8.38016e-05
-3.50895e-06
7.36592e-05
-3.34237e-06
6.47812e-05
-3.11747e-06
5.69884e-05
-2.84834e-06
5.01017e-05
-2.54792e-06
4.40479e-05
-2.22749e-06
3.87056e-05
-1.89575e-06
3.39468e-05
-1.55808e-06
2.96603e-05
-1.22237e-06
2.58265e-05
-8.98119e-07
2.23389e-05
-5.86121e-07
1.92389e-05
-2.91551e-07
1.63673e-05
-8.60338e-08
1.28874e-05
2.83224e-08
2.39561e-05
5.73866e-08
2.66548e-05
4.83386e-08
2.9662e-05
3.57332e-09
3.30095e-05
-8.17473e-08
3.67313e-05
-2.09404e-07
4.08762e-05
-3.82564e-07
4.54901e-05
-6.05382e-07
5.06308e-05
-8.81048e-07
5.63614e-05
-1.20999e-06
6.27597e-05
-1.58854e-06
6.99175e-05
-2.00496e-06
7.67139e-05
-2.43942e-06
7.69345e-05
-2.87345e-06
7.7228e-05
-3.28224e-06
7.76072e-05
-3.6373e-06
7.80736e-05
-3.90849e-06
7.86365e-05
-4.06847e-06
7.92914e-05
-4.09341e-06
8.4386e-05
-3.93163e-06
7.42484e-05
-3.69575e-06
6.53595e-05
-3.4039e-06
5.75439e-05
-3.07225e-06
5.0626e-05
-2.71559e-06
4.4536e-05
-2.34546e-06
3.91554e-05
-1.96984e-06
3.43586e-05
-1.59752e-06
3.00354e-05
-1.23946e-06
2.61678e-05
-9.02017e-07
2.26548e-05
-5.83108e-07
1.95305e-05
-3.60572e-07
1.66418e-05
-9.45443e-08
1.2982e-05
2.65516e-08
2.15338e-05
5.3702e-08
2.39598e-05
4.32659e-08
2.66598e-05
-2.09345e-09
2.96677e-05
-8.73001e-08
3.3015e-05
-2.14508e-07
3.67364e-05
-3.87229e-07
4.08808e-05
-6.1028e-07
4.5495e-05
-8.88025e-07
5.06378e-05
-1.2228e-06
5.63742e-05
-1.61395e-06
6.27851e-05
-2.05411e-06
6.99666e-05
-2.52794e-06
7.68024e-05
-3.00917e-06
7.70703e-05
-3.47708e-06
7.74228e-05
-3.90261e-06
7.78725e-05
-4.25406e-06
7.84192e-05
-4.50161e-06
7.90697e-05
-4.6182e-06
7.98162e-05
-4.58288e-06
8.50373e-05
-4.34407e-06
7.48967e-05
-4.03254e-06
6.59881e-05
-3.66938e-06
5.81411e-05
-3.27323e-06
5.11837e-05
-2.85984e-06
4.50504e-05
-2.44049e-06
3.9626e-05
-2.02549e-06
3.47866e-05
-1.62618e-06
3.04221e-05
-1.25175e-06
2.65175e-05
-9.04539e-07
2.29763e-05
-7.17918e-07
1.98878e-05
-3.60232e-07
1.69075e-05
-1.03786e-07
1.30857e-05
2.50312e-08
1.93535e-05
5.05411e-08
2.15369e-05
3.89663e-08
2.39641e-05
-6.78708e-09
2.66645e-05
-9.16591e-08
2.9672e-05
-2.18049e-07
3.30186e-05
-3.89705e-07
3.67389e-05
-6.11893e-07
4.08824e-05
-8.8982e-07
4.54968e-05
-1.22726e-06
5.06423e-05
-1.62587e-06
5.63861e-05
-2.08184e-06
6.28128e-05
-2.58487e-06
7.00236e-05
-3.11356e-06
7.69068e-05
-3.63731e-06
7.72305e-05
-4.13108e-06
7.76513e-05
-4.56198e-06
7.81804e-05
-4.89798e-06
7.88155e-05
-5.10877e-06
7.95602e-05
-5.1696e-06
8.04029e-05
-5.06265e-06
8.57558e-05
-4.73891e-06
7.56031e-05
-4.34623e-06
6.6665e-05
-3.90914e-06
5.8777e-05
-3.44795e-06
5.17718e-05
-2.97867e-06
4.55885e-05
-2.51419e-06
4.01147e-05
-2.06677e-06
3.52272e-05
-1.64642e-06
3.08168e-05
-1.25941e-06
2.68724e-05
-1.11741e-06
2.33757e-05
-7.09693e-07
2.02373e-05
-3.60254e-07
1.7164e-05
-1.1094e-07
1.31967e-05
1.73973e-05
2.37204e-08
4.78185e-08
1.93562e-05
3.53041e-08
2.15406e-05
-1.06854e-08
2.3968e-05
-9.5075e-08
2.66679e-05
-2.20399e-07
2.96744e-05
-3.90563e-07
3.30194e-05
-6.11115e-07
3.67381e-05
-8.87846e-07
4.08805e-05
-1.22559e-06
4.54951e-05
-1.62776e-06
5.06441e-05
-2.09331e-06
5.63976e-05
-2.61607e-06
6.2844e-05
-3.18037e-06
7.00904e-05
-3.76081e-06
7.70303e-05
-4.31972e-06
7.74191e-05
-4.82835e-06
7.79177e-05
-5.2528e-06
7.85352e-05
-5.55963e-06
7.92664e-05
-5.72027e-06
8.01109e-05
-5.7125e-06
8.10527e-05
-5.52439e-06
8.65413e-05
-5.10869e-06
7.63656e-05
-4.63133e-06
6.73871e-05
-4.11946e-06
5.94485e-05
-3.59419e-06
5.23873e-05
-3.07283e-06
4.61472e-05
-2.56961e-06
4.06175e-05
-2.09563e-06
3.56764e-05
-1.65854e-06
3.12159e-05
-1.55886e-06
2.73138e-05
-1.10451e-06
2.37706e-05
-6.99138e-07
2.05762e-05
-3.58129e-07
1.74112e-05
-1.1562e-07
1.33123e-05
1.73997e-05
4.54611e-08
2.78121e-05
2.1602e-08
3.21712e-08
1.93594e-05
-1.39333e-08
2.15438e-05
-9.7745e-08
2.39706e-05
-2.2185e-07
2.66694e-05
-3.90245e-07
2.9674e-05
-6.08637e-07
3.3017e-05
-8.83204e-07
3.67334e-05
-1.21953e-06
4.08744e-05
-1.62232e-06
4.54897e-05
-2.09269e-06
5.06435e-05
-2.62774e-06
5.64092e-05
-3.2165e-06
6.28802e-05
-3.84001e-06
7.01696e-05
-4.46594e-06
7.71765e-05
-5.0496e-06
7.76404e-05
-5.5615e-06
7.82264e-05
-5.9654e-06
7.8941e-05
-6.22886e-06
7.9775e-05
-6.32517e-06
8.07236e-05
-6.2377e-06
8.1766e-05
-5.9595e-06
8.73921e-05
-5.44702e-06
7.71813e-05
-4.88349e-06
6.81512e-05
-4.29768e-06
6.0152e-05
-3.71191e-06
5.30264e-05
-3.1444e-06
4.6722e-05
-2.60828e-06
4.11302e-05
-2.11252e-06
3.61304e-05
-2.05423e-06
3.17113e-05
-1.54216e-06
2.77515e-05
-1.08492e-06
2.41563e-05
-6.84795e-07
2.09029e-05
-3.5312e-07
1.76487e-05
-1.17849e-07
1.34302e-05
1.74024e-05
2.94817e-08
2.78159e-05
4.16864e-08
2.8552e-05
1.95821e-08
-1.66484e-08
1.93621e-05
-9.98253e-08
2.15459e-05
-2.22627e-07
2.39714e-05
-3.89092e-07
2.66682e-05
-6.04994e-07
2.96704e-05
-8.76742e-07
3.30105e-05
-1.21043e-06
3.67243e-05
-1.61171e-06
4.08638e-05
-2.08332e-06
4.54803e-05
-2.6249e-06
5.06407e-05
-3.22932e-06
5.64221e-05
-3.88295e-06
6.29231e-05
-4.56049e-06
7.02641e-05
-5.22255e-06
7.73495e-05
-5.81986e-06
7.78988e-05
-6.32082e-06
7.85818e-05
-6.68937e-06
7.94015e-05
-6.89411e-06
8.03439e-05
-6.91348e-06
8.13993e-05
-6.73558e-06
8.25421e-05
-6.36054e-06
8.83057e-05
-5.74872e-06
7.80465e-05
-5.09943e-06
6.89529e-05
-4.44296e-06
6.0883e-05
-3.80232e-06
5.36843e-05
-3.19455e-06
4.73082e-05
-2.63078e-06
4.16484e-05
-2.61724e-06
3.66934e-05
-2.03281e-06
3.2202e-05
-1.51418e-06
2.81808e-05
-1.05856e-06
2.45301e-05
-6.66326e-07
2.12161e-05
-3.45204e-07
1.7876e-05
-1.17964e-07
1.35481e-05
1.74046e-05
-1.89282e-08
2.78196e-05
2.57314e-08
2.85557e-05
3.80535e-08
2.93119e-05
1.76634e-08
-1.0144e-07
1.93637e-05
-2.22905e-07
2.15462e-05
-3.87367e-07
2.39697e-05
-6.00591e-07
2.66638e-05
-8.69108e-07
2.96628e-05
-1.19933e-06
3.29994e-05
-1.59759e-06
3.67102e-05
-2.0678e-06
4.08483e-05
-2.61157e-06
4.5467e-05
-3.22481e-06
5.06362e-05
-3.89825e-06
5.64374e-05
-4.61256e-06
6.29752e-05
-5.33588e-06
7.03775e-05
-6.02401e-06
7.75536e-05
-6.62095e-06
7.81989e-05
-7.09581e-06
7.89882e-05
-7.41268e-06
7.99201e-05
-7.5447e-06
8.09752e-05
-7.47461e-06
8.21384e-05
-7.19767e-06
8.33792e-05
-6.7213e-06
8.92782e-05
-6.00967e-06
7.89567e-05
-5.27746e-06
6.97874e-05
-4.55573e-06
6.16365e-05
-3.86619e-06
5.43559e-05
-3.22392e-06
4.79014e-05
-3.26023e-06
4.22914e-05
-2.59015e-06
3.72507e-05
-1.99551e-06
3.26833e-05
-1.47592e-06
2.85981e-05
-1.02593e-06
2.48897e-05
-6.44084e-07
2.15149e-05
-3.34742e-07
1.80928e-05
-1.1635e-07
1.36645e-05
1.74059e-05
-1.02686e-07
2.78218e-05
-2.10671e-08
2.85592e-05
2.22042e-08
2.93154e-05
3.45682e-08
3.00898e-05
1.58468e-08
-2.22819e-07
1.93636e-05
-3.85267e-07
2.15441e-05
-5.95735e-07
2.39648e-05
-8.60791e-07
2.66555e-05
-1.18703e-06
2.96505e-05
-1.58122e-06
3.2983e-05
-2.04815e-06
3.66906e-05
-2.5909e-06
4.08276e-05
-3.20774e-06
4.54499e-05
-3.89293e-06
5.06309e-05
-4.63209e-06
5.64569e-05
-5.39988e-06
6.30392e-05
-6.16008e-06
7.05135e-05
-6.86111e-06
7.77938e-05
-7.44244e-06
7.85455e-05
-7.87416e-06
7.94497e-05
-8.12413e-06
8.04995e-05
-8.16919e-06
8.16697e-05
-7.99911e-06
8.29398e-05
-7.61673e-06
8.42747e-05
-7.03658e-06
9.03052e-05
-6.22728e-06
7.99066e-05
-5.4173e-06
7.0649e-05
-4.63637e-06
6.24066e-05
-3.90422e-06
5.50362e-05
-3.99687e-06
4.8638e-05
-3.22698e-06
4.29283e-05
-2.54221e-06
3.77974e-05
-1.94426e-06
3.31516e-05
-1.42872e-06
2.90009e-05
-9.88083e-07
2.52337e-05
-6.1874e-07
2.17989e-05
-3.2223e-07
1.82987e-05
-1.13399e-07
1.37779e-05
1.74055e-05
-2.22475e-07
2.78207e-05
-1.01561e-07
2.8561e-05
-2.29244e-08
2.93187e-05
1.89001e-08
3.00932e-05
3.12329e-08
3.08897e-05
1.4133e-08
-3.82942e-07
1.93613e-05
-5.90653e-07
2.1539e-05
-8.52155e-07
2.39562e-05
-1.17412e-06
2.66426e-05
-1.56358e-06
2.96328e-05
-2.02593e-06
3.29608e-05
-2.56535e-06
3.6665e-05
-3.1819e-06
4.08018e-05
-3.87265e-06
4.54296e-05
-4.62725e-06
5.0626e-05
-5.42591e-06
5.64829e-05
-6.23939e-06
6.31185e-05
-7.02434e-06
7.06768e-05
-7.7237e-06
7.80751e-05
-8.27196e-06
7.89433e-05
-8.64433e-06
7.99699e-05
-8.81155e-06
8.11418e-05
-8.75719e-06
8.24278e-05
-8.47872e-06
8.38018e-05
-7.9865e-06
8.52246e-05
-7.30276e-06
9.13806e-05
-6.40047e-06
8.08897e-05
-5.51887e-06
7.15315e-05
-4.68557e-06
6.3188e-05
-4.84293e-06
5.58823e-05
-3.95734e-06
4.93684e-05
-3.1673e-06
4.35534e-05
-2.47633e-06
3.83295e-05
-1.8812e-06
3.36041e-05
-1.37437e-06
2.93872e-05
-9.46198e-07
2.55612e-05
-5.91075e-07
2.20678e-05
-3.08193e-07
1.84935e-05
-1.09453e-07
1.38873e-05
1.74031e-05
-3.80504e-07
2.78147e-05
-2.16498e-07
2.85595e-05
-1.00046e-07
2.93203e-05
-2.44864e-08
3.00962e-05
1.58221e-08
3.08929e-05
2.80519e-08
3.17096e-05
1.2521e-08
-5.85516e-07
1.93562e-05
-8.43467e-07
2.15303e-05
-1.16103e-06
2.39431e-05
-1.54539e-06
2.66244e-05
-2.00232e-06
2.96092e-05
-2.53677e-06
3.29323e-05
-3.15022e-06
3.66333e-05
-3.84187e-06
4.0771e-05
-4.60465e-06
4.5407e-05
-5.42332e-06
5.06234e-05
-6.27472e-06
5.65182e-05
-7.12287e-06
6.3217e-05
-7.91897e-06
7.0872e-05
-8.59959e-06
7.84027e-05
-9.09784e-06
7.93968e-05
-9.39358e-06
8.0552e-05
-9.46376e-06
8.18484e-05
-9.29951e-06
8.32486e-05
-8.90614e-06
8.47214e-05
-8.30241e-06
8.62242e-05
-7.51789e-06
9.24981e-05
-6.52864e-06
8.18995e-05
-5.58273e-06
7.24287e-05
-5.81646e-06
6.41615e-05
-4.79746e-06
5.67224e-05
-3.885e-06
5.00861e-05
-3.08511e-06
4.41621e-05
-2.39549e-06
3.88438e-05
-1.80884e-06
3.40386e-05
-1.31468e-06
2.97557e-05
-9.01482e-07
2.58716e-05
-5.61844e-07
2.23214e-05
-2.93128e-07
1.86771e-05
-1.04815e-07
1.39921e-05
1.7398e-05
-5.80443e-07
2.78022e-05
-3.67975e-07
2.8553e-05
-2.10021e-07
2.93184e-05
-9.81548e-08
3.00975e-05
-2.57517e-08
3.08957e-05
1.29694e-08
3.17126e-05
2.50285e-08
3.25535e-05
1.10126e-08
-8.34921e-07
1.93476e-05
-1.14809e-06
2.15174e-05
-1.52717e-06
2.39249e-05
-1.97818e-06
2.66003e-05
-2.50661e-06
2.9579e-05
-3.11495e-06
3.2897e-05
-3.80408e-06
3.65955e-05
-4.5695e-06
4.07358e-05
-5.39974e-06
4.53834e-05
-6.2767e-06
5.06254e-05
-7.17091e-06
5.65663e-05
-8.04118e-06
6.33392e-05
-8.83209e-06
7.11045e-05
-9.47716e-06
7.8782e-05
-9.90696e-06
7.99102e-05
-1.01101e-05
8.11983e-05
-1.00706e-05
8.26195e-05
-9.78777e-06
8.41302e-05
-9.2758e-06
8.56948e-05
-8.56169e-06
8.7268e-05
-7.68074e-06
9.36502e-05
-6.61213e-06
8.29289e-05
-6.93689e-06
7.35491e-05
-5.76608e-06
6.51301e-05
-4.7118e-06
5.75492e-05
-3.78484e-06
5.07858e-05
-2.98434e-06
4.4751e-05
-2.30296e-06
3.93379e-05
-1.72961e-06
3.44535e-05
-1.25136e-06
3.01056e-05
-8.55019e-07
2.61647e-05
-5.31744e-07
2.256e-05
-2.77489e-07
1.88498e-05
-9.97219e-08
1.40919e-05
1.73898e-05
-8.2665e-07
2.77811e-05
-5.59424e-07
2.85398e-05
-3.54759e-07
2.93113e-05
-2.02989e-07
3.00952e-05
-9.58563e-08
3.08967e-05
-2.67202e-08
3.17153e-05
1.03415e-08
3.25564e-05
2.2161e-08
3.34194e-05
9.60454e-09
-1.13551e-06
1.9335e-05
-1.50929e-06
2.14995e-05
-1.95415e-06
2.39008e-05
-2.47592e-06
2.65696e-05
-3.0778e-06
2.95419e-05
-3.76195e-06
3.28549e-05
-4.52591e-06
3.65519e-05
-5.36121e-06
4.06973e-05
-6.25399e-06
4.53607e-05
-7.18034e-06
5.06349e-05
-8.10591e-06
5.6631e-05
-8.9829e-06
6.349e-05
-9.75237e-06
7.13797e-05
-1.03431e-05
7.92182e-05
-1.06869e-05
8.04871e-05
-1.07828e-05
8.19104e-05
-1.06228e-05
8.34545e-05
-1.02154e-05
8.50698e-05
-9.58405e-06
8.67172e-05
-8.76247e-06
8.83498e-05
-7.7913e-06
9.48293e-05
-8.22655e-06
8.42185e-05
-6.88362e-06
7.46666e-05
-5.6668e-06
6.60851e-05
-4.59207e-06
5.83564e-05
-3.66184e-06
5.14633e-05
-2.86911e-06
4.53171e-05
-2.20187e-06
3.98102e-05
-1.64583e-06
3.4848e-05
-1.18594e-06
3.04365e-05
-8.07779e-07
2.64408e-05
-5.01401e-07
2.2784e-05
-2.61615e-07
1.90117e-05
-9.43786e-08
1.41862e-05
1.73777e-05
-1.12345e-06
2.77494e-05
-7.9487e-07
2.8518e-05
-5.37557e-07
2.92975e-05
-3.40899e-07
3.00877e-05
-1.95485e-07
3.0894e-05
-9.31744e-08
3.17159e-05
-2.73891e-08
3.25588e-05
7.93923e-09
3.34221e-05
1.94543e-08
3.43053e-05
8.29546e-09
-1.49204e-06
1.93178e-05
-1.93069e-06
2.14761e-05
-2.44546e-06
2.38704e-05
-3.04005e-06
2.65318e-05
-3.71755e-06
2.94975e-05
-4.47706e-06
3.2806e-05
-5.31253e-06
3.65033e-05
-6.21355e-06
4.06569e-05
-7.16094e-06
4.53413e-05
-8.12629e-06
5.06552e-05
-9.06884e-06
5.6717e-05
-9.93709e-06
6.36748e-05
-1.06666e-05
7.17032e-05
-1.11848e-05
7.9716e-05
-1.14261e-05
8.11304e-05
-1.14014e-05
8.26891e-05
-1.11125e-05
8.43516e-05
-1.05777e-05
8.60635e-05
-9.8282e-06
8.77829e-05
-8.90421e-06
8.94627e-05
-9.7107e-06
9.63135e-05
-8.17446e-06
8.55094e-05
-6.77126e-06
7.57711e-05
-5.52602e-06
6.70191e-05
-4.44439e-06
5.9139e-05
-3.5211e-06
5.21153e-05
-2.74334e-06
4.58586e-05
-2.09513e-06
4.02595e-05
-1.55946e-06
3.52215e-05
-1.11973e-06
3.07484e-05
-7.60615e-07
2.67e-05
-4.71261e-07
2.29936e-05
-2.45819e-07
1.91631e-05
-8.89397e-08
1.42752e-05
1.73612e-05
-1.47558e-06
2.77045e-05
-1.07859e-06
2.84851e-05
-7.62035e-07
2.92747e-05
-5.14788e-07
3.00731e-05
-3.2634e-07
3.0886e-05
-1.87458e-07
3.17129e-05
-9.00977e-08
3.25592e-05
-2.77665e-08
3.34243e-05
5.75724e-09
3.43079e-05
1.69081e-08
3.52192e-05
7.08367e-09
-1.90812e-06
1.92952e-05
-2.41578e-06
2.14464e-05
-3.00263e-06
2.3833e-05
-3.67239e-06
2.64867e-05
-4.42536e-06
2.94458e-05
-5.25741e-06
3.27509e-05
-6.16092e-06
3.64506e-05
-7.12061e-06
4.06165e-05
-8.11321e-06
4.53282e-05
-9.10425e-06
5.06906e-05
-1.00493e-05
5.68291e-05
-1.08908e-05
6.3899e-05
-1.15619e-05
7.20803e-05
-1.199e-05
8.02799e-05
-1.21133e-05
8.18422e-05
-1.19574e-05
8.35339e-05
-1.15343e-05
8.53082e-05
-1.08712e-05
8.71066e-05
-1.00071e-05
8.88858e-05
-1.11194e-05
9.08713e-05
-9.66751e-06
9.78065e-05
-8.05143e-06
8.67896e-05
-6.60863e-06
7.68537e-05
-5.35119e-06
6.79259e-05
-4.27499e-06
5.98929e-05
-3.36738e-06
5.27394e-05
-2.61059e-06
4.63741e-05
-1.98521e-06
4.06852e-05
-1.4722e-06
3.5574e-05
-1.05385e-06
3.10417e-05
-7.14113e-07
2.69429e-05
-4.41744e-07
2.31895e-05
-2.30331e-07
1.93045e-05
-8.35163e-08
1.43587e-05
1.73398e-05
-1.88665e-06
2.76436e-05
-1.41472e-06
2.8439e-05
-1.03243e-06
2.92409e-05
-7.28192e-07
3.00495e-05
-4.91188e-07
3.08708e-05
-3.11151e-07
3.17043e-05
-1.78947e-07
3.25557e-05
-8.66455e-08
3.34244e-05
-2.78521e-08
3.43098e-05
3.79514e-09
3.52216e-05
1.452e-08
3.61551e-05
5.96578e-09
-2.38728e-06
1.92667e-05
-2.96619e-06
2.14099e-05
-3.62758e-06
2.37882e-05
-4.37264e-06
2.64339e-05
-5.1987e-06
2.93871e-05
-6.10038e-06
3.26904e-05
-7.06565e-06
3.63957e-05
-8.07556e-06
4.05789e-05
-9.10114e-06
4.53251e-05
-1.01044e-05
5.07457e-05
-1.10346e-05
5.69729e-05
-1.18312e-05
6.41683e-05
-1.24259e-05
7.25163e-05
-1.27468e-05
8.09134e-05
-1.27389e-05
8.26238e-05
-1.2444e-05
8.44436e-05
-1.18836e-05
8.63206e-05
-1.1094e-05
8.81935e-05
-1.25245e-05
9.02909e-05
-1.10932e-05
9.22971e-05
-9.53916e-06
9.92943e-05
-7.86774e-06
8.80487e-05
-6.40464e-06
7.79072e-05
-5.14981e-06
6.88007e-05
-4.08965e-06
6.06151e-05
-3.20508e-06
5.33339e-05
-2.47393e-06
4.68628e-05
-1.87424e-06
4.10872e-05
-1.38551e-06
3.59056e-05
-9.89086e-07
3.13166e-05
-6.68827e-07
2.71699e-05
-4.13149e-07
2.33723e-05
-2.15305e-07
1.94363e-05
-7.81972e-08
1.44369e-05
1.73127e-05
-2.3602e-06
2.75637e-05
-1.80673e-06
2.83764e-05
-1.35215e-06
2.91932e-05
-9.84751e-07
3.00145e-05
-6.93172e-07
3.08464e-05
-4.66753e-07
3.16886e-05
-2.95361e-07
3.25467e-05
-1.69959e-07
3.34206e-05
-8.28245e-08
3.43096e-05
-2.76546e-08
3.52233e-05
2.04605e-09
3.61574e-05
1.22876e-08
3.6589e-05
4.95224e-09
-2.93121e-06
1.92317e-05
-3.58393e-06
2.13663e-05
-4.32023e-06
2.37357e-05
-5.13855e-06
2.63738e-05
-6.03529e-06
2.9322e-05
-7.00103e-06
3.26257e-05
-8.02047e-06
3.63406e-05
-9.06935e-06
4.05471e-05
-1.01154e-05
4.53362e-05
-1.11144e-05
5.08256e-05
-1.20123e-05
5.7154e-05
-1.2746e-05
6.44883e-05
-1.32463e-05
7.30158e-05
-1.34449e-05
8.16194e-05
-1.32954e-05
8.34752e-05
-1.28557e-05
8.54157e-05
-1.21577e-05
8.73843e-05
-1.39201e-05
8.95891e-05
-1.25255e-05
9.17232e-05
-1.09682e-05
9.37261e-05
-9.33742e-06
0.000100764
-7.63371e-06
8.92777e-05
-6.16825e-06
7.89256e-05
-4.92885e-06
6.96399e-05
-3.89369e-06
6.13038e-05
-3.03792e-06
5.38979e-05
-2.33598e-06
4.73245e-05
-1.76404e-06
4.14658e-05
-1.30036e-06
3.62169e-05
-9.2615e-07
3.1574e-05
-6.25147e-07
2.73819e-05
-3.85658e-07
2.35427e-05
-2.00865e-07
1.9559e-05
-7.30498e-08
1.45099e-05
1.72795e-05
-2.89798e-06
2.74614e-05
-2.25793e-06
2.82948e-05
-1.72512e-06
2.91291e-05
-1.28808e-06
2.99656e-05
-9.35873e-07
3.08105e-05
-6.57244e-07
3.16633e-05
-4.41535e-07
3.25303e-05
-2.78944e-07
3.34111e-05
-1.60517e-07
3.43054e-05
-7.86513e-08
3.52229e-05
-2.71788e-08
3.61589e-05
5.02765e-10
3.65911e-05
1.02328e-08
3.55529e-05
4.06913e-09
-3.542e-06
1.91898e-05
-4.26908e-06
2.13152e-05
-5.07854e-06
2.36757e-05
-5.96815e-06
2.63067e-05
-6.93061e-06
2.92516e-05
-7.95359e-06
3.25589e-05
-9.01689e-06
3.62881e-05
-1.00932e-05
4.0525e-05
-1.11444e-05
4.53661e-05
-1.21224e-05
5.09357e-05
-1.297e-05
5.73781e-05
-1.36224e-05
6.48644e-05
-1.40119e-05
7.35828e-05
-1.40757e-05
8.23997e-05
-1.37762e-05
8.43957e-05
-1.31889e-05
8.6447e-05
-1.52984e-05
8.87625e-05
-1.39602e-05
9.10238e-05
-1.24138e-05
9.31688e-05
-1.07571e-05
9.51458e-05
-9.07421e-06
0.000102204
-7.35982e-06
9.04693e-05
-5.90779e-06
7.99046e-05
-4.69476e-06
7.0441e-05
-3.69166e-06
6.19575e-05
-2.86909e-06
5.4431e-05
-2.19899e-06
4.77595e-05
-1.65584e-06
4.18213e-05
-1.21768e-06
3.65084e-05
-8.6555e-07
3.18144e-05
-5.83295e-07
2.75796e-05
-3.59422e-07
2.37013e-05
-1.87102e-07
1.9673e-05
-6.81168e-08
1.45781e-05
1.72396e-05
-3.50215e-06
2.73341e-05
-2.77065e-06
2.81906e-05
-2.15377e-06
2.90454e-05
-1.64138e-06
2.99e-05
-1.22249e-06
3.07603e-05
-8.85749e-07
3.16264e-05
-6.20341e-07
3.25044e-05
-4.15652e-07
3.33942e-05
-2.62019e-07
3.42956e-05
-1.5067e-07
3.52184e-05
-7.41472e-08
3.61581e-05
-2.64212e-08
3.65924e-05
-8.27223e-10
3.55547e-05
8.41234e-09
3.45448e-05
3.29768e-09
-4.21988e-06
1.91406e-05
-5.01983e-06
2.12564e-05
-5.90084e-06
2.36084e-05
-6.85731e-06