/*--------------------------------*- C++ -*----------------------------------*\
  =========                 |
  \\      /  F ield         | OpenFOAM: The Open Source CFD Toolbox
   \\    /   O peration     | Website:  https://openfoam.org
    \\  /    A nd           | Version:  8
     \\/     M anipulation  |
\*---------------------------------------------------------------------------*/
FoamFile
{
    version     2.0;
    format      ascii;
    class       volVectorField;
    location    "0.29";
    object      U;
}
// * * * * * * * * * * * * * * * * * * * * * * * * * * * * * * * * * * * * * //

dimensions      [0 1 -1 0 0 0 0];

internalField   nonuniform List<vector> 
15677
(
(-0.0399015 9.66595 0)
(0.0484951 9.92199 0)
(-0.0018136 9.37829 0)
(0.0206524 9.97702 0)
(0.0198921 9.78866 0)
(0.00731345 9.14125 0)
(0.0258391 9.99515 0)
(0.0165374 9.92467 0)
(0.0111792 9.65398 0)
(0.00649146 8.96067 0)
(0.0263309 10.0025 0)
(0.0205524 9.97871 0)
(0.0165509 9.85203 0)
(0.00912495 9.53081 0)
(0.00515972 8.81703 0)
(0.0255703 10.0057 0)
(0.0215844 10.003 0)
(0.0194061 9.94152 0)
(0.0153648 9.77951 0)
(0.00798043 9.41984 0)
(0.00424049 8.70238 0)
(0.0245088 10.0071 0)
(0.021866 10.0147 0)
(0.0210023 9.98478 0)
(0.0182524 9.90244 0)
(0.0138546 9.70811 0)
(0.00692513 9.32158 0)
(0.00354489 8.61019 0)
(0.0230971 10.0075 0)
(0.0217424 10.0205 0)
(0.0218695 10.0069 0)
(0.0201987 9.96497 0)
(0.0169615 9.86193 0)
(0.0124419 9.64084 0)
(0.00596855 9.23643 0)
(0.00295863 8.53617 0)
(0.0214091 10.0074 0)
(0.021191 10.0233 0)
(0.0221527 10.0184 0)
(0.0212881 9.99809 0)
(0.0190532 9.94371 0)
(0.0156079 9.82229 0)
(0.0110791 9.57966 0)
(0.00507695 9.16416 0)
(0.00241878 8.47763 0)
(0.019516 10.007 0)
(0.0203304 10.0235 0)
(0.0221099 10.0241 0)
(0.0217805 10.0162 0)
(0.0202165 9.98814 0)
(0.0177201 9.92275 0)
(0.0141429 9.78537 0)
(0.00968561 9.52576 0)
(0.00419871 9.10455 0)
(0.00188721 8.43311 0)
(0.0175006 10.0063 0)
(0.0192742 10.0223 0)
(0.0216665 10.0271 0)
(0.0218027 10.0261 0)
(0.0207473 10.0131 0)
(0.0188615 9.97855 0)
(0.0161742 9.90359 0)
(0.0125191 9.75242 0)
(0.00820356 9.4801 0)
(0.00328843 9.05741 0)
(0.00133484 8.40162 0)
(0.0153992 10.0056 0)
(0.0179649 10.0206 0)
(0.0209339 10.0281 0)
(0.0214566 10.0315 0)
(0.0207803 10.0273 0)
(0.0193192 10.0103 0)
(0.0171878 9.97058 0)
(0.0143579 9.8872 0)
(0.010681 9.72459 0)
(0.00658224 9.44349 0)
(0.00230451 9.02269 0)
(0.000739066 8.38288 0)
(0.0132621 10.0048 0)
(0.0164818 10.0185 0)
(0.0198592 10.0274 0)
(0.0207817 10.034 0)
(0.0203997 10.0354 0)
(0.0192409 10.0288 0)
(0.0174619 10.0092 0)
(0.0151323 9.96504 0)
(0.0121992 9.8746 0)
(0.00856698 9.70298 0)
(0.00477046 9.41667 0)
(0.00121269 9.00043 0)
(5.645e-05 8.37668 0)
(0.0111599 10.0041 0)
(0.0148852 10.0162 0)
(0.0185081 10.0258 0)
(0.0197961 10.0345 0)
(0.0196652 10.0396 0)
(0.0187143 10.0396 0)
(0.0171491 10.0319 0)
(0.0151051 10.0103 0)
(0.0126079 9.96284 0)
(0.00961808 9.86678 0)
(0.00611272 9.68863 0)
(0.0027212 9.4003 0)
(-1.52464e-05 8.99081 0)
(-0.00061425 8.38299 0)
(0.00927054 10.0034 0)
(0.0131865 10.014 0)
(0.0169194 10.0235 0)
(0.0185008 10.0334 0)
(0.0185923 10.0412 0)
(0.0177886 10.0456 0)
(0.0163398 10.0453 0)
(0.0144264 10.0371 0)
(0.0121433 10.0146 0)
(0.00951373 9.96485 0)
(0.00653115 9.86475 0)
(0.00325781 9.68252 0)
(0.000396977 9.395 0)
(-0.00137864 8.99414 0)
(-0.0014026 8.40193 0)
(0.00772512 10.0029 0)
(0.0116233 10.0119 0)
(0.0151327 10.0209 0)
(0.0169101 10.0313 0)
(0.0171816 10.0409 0)
(0.0164829 10.0483 0)
(0.0150793 10.053 0)
(0.0131878 10.0531 0)
(0.0109486 10.0453 0)
(0.00845357 10.0228 0)
(0.00574287 9.97198 0)
(0.00285686 9.86948 0)
(-6.20419e-05 9.6856 0)
(-0.0022612 9.40143 0)
(-0.00294157 9.01059 0)
(-0.00229257 8.43379 0)
(0.00641363 10.0024 0)
(0.010231 10.0102 0)
(0.0133937 10.0184 0)
(0.0150537 10.0286 0)
(0.0154372 10.0392 0)
(0.0148008 10.0488 0)
(0.0133853 10.0569 0)
(0.0114317 10.0624 0)
(0.00911317 10.0638 0)
(0.00656823 10.0573 0)
(0.00390355 10.0358 0)
(0.00118993 9.98515 0)
(-0.00148083 9.88199 0)
(-0.00388356 9.69872 0)
(-0.00526785 9.4201 0)
(-0.00469658 9.0404 0)
(-0.00328057 8.47863 0)
(0.00530925 10.002 0)
(0.00897461 10.0087 0)
(0.011815 10.0162 0)
(0.0131764 10.0257 0)
(0.0133761 10.0364 0)
(0.012743 10.0475 0)
(0.0112612 10.058 0)
(0.00917247 10.0674 0)
(0.00667528 10.0747 0)
(0.0039414 10.0781 0)
(0.00112542 10.0739 0)
(-0.00163949 10.0545 0)
(-0.0042477 10.0053 0)
(-0.00655615 9.90317 0)
(-0.00826395 9.72271 0)
(-0.00865062 9.45144 0)
(-0.00664871 9.08366 0)
(-0.00436149 8.53651 0)
(0.00438528 10.0016 0)
(0.00784233 10.0074 0)
(0.0103572 10.0143 0)
(0.0114378 10.023 0)
(0.0112606 10.0333 0)
(0.010319 10.0448 0)
(0.00870704 10.0571 0)
(0.00641048 10.0691 0)
(0.0036436 10.0805 0)
(0.000604146 10.0904 0)
(-0.00251815 10.0969 0)
(-0.00554246 10.096 0)
(-0.00830417 10.0797 0)
(-0.0106625 10.0332 0)
(-0.0124262 9.9339 0)
(-0.0132329 9.75815 0)
(-0.0124264 9.49576 0)
(-0.00880304 9.14047 0)
(-0.00553383 8.60728 0)
(0.00361127 10.0013 0)
(0.00682254 10.0062 0)
(0.00901458 10.0126 0)
(0.00980534 10.0206 0)
(0.00928688 10.0303 0)
(0.00782668 10.0415 0)
(0.00573088 10.0545 0)
(0.00314547 10.0685 0)
(1.43169e-05 10.0828 0)
(-0.00344283 10.0971 0)
(-0.00700712 10.1104 0)
(-0.0104612 10.1209 0)
(-0.013593 10.1242 0)
(-0.0162079 10.1122 0)
(-0.0181296 10.0699 0)
(-0.0191289 9.97488 0)
(-0.0188038 9.80558 0)
(-0.0165942 9.5532 0)
(-0.0111479 9.21063 0)
(-0.00678474 8.69062 0)
(0.00297858 10.001 0)
(0.00591106 10.0052 0)
(0.00778302 10.011 0)
(0.00828628 10.0184 0)
(0.00742624 10.0274 0)
(0.00549956 10.0381 0)
(0.00268888 10.0509 0)
(-0.000612511 10.0658 0)
(-0.00421408 10.0823 0)
(-0.00820948 10.0997 0)
(-0.0123518 10.1178 0)
(-0.0163912 10.1355 0)
(-0.0200778 10.1509 0)
(-0.0231705 10.1595 0)
(-0.0254464 10.1529 0)
(-0.0267015 10.1159 0)
(-0.0266826 10.0267 0)
(-0.0249723 9.86524 0)
(-0.0211406 9.62372 0)
(-0.013675 9.29393 0)
(-0.00810735 8.78608 0)
(0.00247793 10.0008 0)
(0.00508825 10.0044 0)
(0.00665998 10.0096 0)
(0.00688431 10.0164 0)
(0.00569578 10.0247 0)
(0.003309 10.0347 0)
(-0.000141186 10.047 0)
(-0.00442119 10.0618 0)
(-0.00902744 10.0794 0)
(-0.0136992 10.0992 0)
(-0.0185707 10.1206 0)
(-0.0233577 10.1433 0)
(-0.0277748 10.1664 0)
(-0.0315423 10.1877 0)
(-0.0343937 10.2026 0)
(-0.0360872 10.2024 0)
(-0.0364021 10.1719 0)
(-0.0350813 10.0898 0)
(-0.0317161 9.93728 0)
(-0.0260368 9.70713 0)
(-0.0163534 9.38974 0)
(-0.00947826 8.89286 0)
(0.00209332 10.0007 0)
(0.00438467 10.0037 0)
(0.00563828 10.0084 0)
(0.00560101 10.0145 0)
(0.00410512 10.0221 0)
(0.00128156 10.0314 0)
(-0.00279289 10.043 0)
(-0.00794423 10.0573 0)
(-0.0138654 10.0748 0)
(-0.0198928 10.0958 0)
(-0.0256704 10.1198 0)
(-0.0313909 10.1462 0)
(-0.0367291 10.1745 0)
(-0.0413665 10.2039 0)
(-0.0449996 10.232 0)
(-0.0473482 10.2542 0)
(-0.048163 10.2613 0)
(-0.0472244 10.2383 0)
(-0.0442927 10.1644 0)
(-0.0389909 10.0215 0)
(-0.0312392 9.80294 0)
(-0.0191627 9.49751 0)
(-0.0108787 9.01024 0)
(0.00179686 10.0006 0)
(0.00381382 10.0032 0)
(0.00475646 10.0074 0)
(0.00443664 10.0129 0)
(0.00266015 10.0198 0)
(-0.000566474 10.0283 0)
(-0.00523011 10.039 0)
(-0.0112258 10.0526 0)
(-0.0183142 10.0695 0)
(-0.0260744 10.0905 0)
(-0.0336254 10.1158 0)
(-0.0405027 10.145 0)
(-0.0469865 10.1772 0)
(-0.0527139 10.2121 0)
(-0.0573414 10.2487 0)
(-0.0605563 10.2846 0)
(-0.0620773 10.3147 0)
(-0.0616674 10.3301 0)
(-0.0591254 10.3154 0)
(-0.0542554 10.2503 0)
(-0.0467313 10.1177 0)
(-0.0366945 9.91057 0)
(-0.0220378 9.6162 0)
(-0.0122435 9.13661 0)
(0.00156415 10.0005 0)
(0.00334903 10.0028 0)
(0.0040341 10.0065 0)
(0.00343678 10.0114 0)
(0.00136496 10.0175 0)
(-0.00222423 10.0253 0)
(-0.00742892 10.0351 0)
(-0.0142197 10.0477 0)
(-0.0224344 10.0638 0)
(-0.0317296 10.0841 0)
(-0.0415218 10.1094 0)
(-0.0506606 10.14 0)
(-0.0585668 10.1753 0)
(-0.0656511 10.2144 0)
(-0.0715225 10.2568 0)
(-0.0758309 10.3015 0)
(-0.0782692 10.3458 0)
(-0.0785769 10.3847 0)
(-0.0765488 10.4089 0)
(-0.0720277 10.4031 0)
(-0.0648804 10.3474 0)
(-0.0548528 10.2253 0)
(-0.0422862 10.0291 0)
(-0.0248633 9.74453 0)
(-0.013275 9.27012 0)
(0.00137897 10.0005 0)
(0.00296804 10.0025 0)
(0.00344388 10.0059 0)
(0.00262474 10.0102 0)
(0.000271182 10.0156 0)
(-0.00368409 10.0224 0)
(-0.00937254 10.0313 0)
(-0.0168929 10.0428 0)
(-0.026168 10.0578 0)
(-0.0369417 10.0772 0)
(-0.0487173 10.1017 0)
(-0.060704 10.1322 0)
(-0.071431 10.1691 0)
(-0.0802092 10.2115 0)
(-0.0876361 10.2584 0)
(-0.0933157 10.3093 0)
(-0.0969081 10.3628 0)
(-0.0981375 10.4162 0)
(-0.0967887 10.4644 0)
(-0.0927149 10.4978 0)
(-0.0858157 10.5013 0)
(-0.0760497 10.4553 0)
(-0.0632087 10.3434 0)
(-0.0479671 10.1574 0)
(-0.0278288 9.88199 0)
(-0.0156037 9.4108 0)
(0.00122975 10.0004 0)
(0.00265341 10.0022 0)
(0.00296002 10.0053 0)
(0.00197031 10.0092 0)
(-0.000598795 10.0139 0)
(-0.00488716 10.0198 0)
(-0.011049 10.0276 0)
(-0.0192215 10.038 0)
(-0.0294714 10.0517 0)
(-0.0416386 10.0697 0)
(-0.0553242 10.0932 0)
(-0.0698307 10.1228 0)
(-0.0841176 10.1595 0)
(-0.0963446 10.2037 0)
(-0.10573 10.2543 0)
(-0.113137 10.31 0)
(-0.118187 10.37 0)
(-0.120581 10.433 0)
(-0.120101 10.4961 0)
(-0.116605 10.5538 0)
(-0.110022 10.5967 0)
(-0.100337 10.6096 0)
(-0.0875785 10.5732 0)
(-0.071656 10.471 0)
(-0.0529773 10.2945 0)
(-0.0246798 10.0222 0)
(-0.0115227 9.4963 0)
(0.00110808 10.0004 0)
(0.00239211 10.002 0)
(0.00256261 10.0049 0)
(0.00144154 10.0083 0)
(-0.00128258 10.0125 0)
(-0.0058147 10.0176 0)
(-0.0123903 10.0242 0)
(-0.021188 10.0332 0)
(-0.0323119 10.0455 0)
(-0.045764 10.0621 0)
(-0.0612539 10.0839 0)
(-0.0781902 10.1123 0)
(-0.0956271 10.1481 0)
(-0.112233 10.192 0)
(-0.125757 10.2447 0)
(-0.135368 10.3044 0)
(-0.142279 10.3696 0)
(-0.146159 10.4396 0)
(-0.146784 10.5125 0)
(-0.144029 10.5854 0)
(-0.137851 10.6529 0)
(-0.128283 10.7053 0)
(-0.115368 10.7275 0)
(-0.0992794 10.7003 0)
(-0.0796825 10.6071 0)
(-0.0569772 10.4375 0)
(-0.0201778 10.1939 0)
(-0.00295182 9.56212 0)
(0.00100771 10.0003 0)
(0.00217426 10.0018 0)
(0.00223052 10.0045 0)
(0.00101396 10.0076 0)
(-0.00181831 10.0112 0)
(-0.00651623 10.0156 0)
(-0.0133843 10.0212 0)
(-0.0227124 10.0287 0)
(-0.0346645 10.0394 0)
(-0.0492739 10.0543 0)
(-0.0664342 10.0743 0)
(-0.0856729 10.1009 0)
(-0.106155 10.1352 0)
(-0.126638 10.1781 0)
(-0.145471 10.2304 0)
(-0.159966 10.2925 0)
(-0.169286 10.3623 0)
(-0.175092 10.4379 0)
(-0.177155 10.5181 0)
(-0.175366 10.6013 0)
(-0.169724 10.6843 0)
(-0.160307 10.7614 0)
(-0.147235 10.823 0)
(-0.130666 10.8541 0)
(-0.110611 10.8355 0)
(-0.0864754 10.7507 0)
(-0.0601862 10.5946 0)
(-0.0215922 10.3672 0)
(0.00235337 9.61951 0)
(0.000924101 10.0003 0)
(0.00199202 10.0017 0)
(0.00195481 10.0041 0)
(0.000670272 10.007 0)
(-0.00223678 10.0102 0)
(-0.00704021 10.0139 0)
(-0.0140973 10.0186 0)
(-0.0237919 10.0248 0)
(-0.0364335 10.0336 0)
(-0.0521341 10.0464 0)
(-0.0708071 10.0644 0)
(-0.0921874 10.0889 0)
(-0.115567 10.1211 0)
(-0.139811 10.1623 0)
(-0.163349 10.2136 0)
(-0.184188 10.2753 0)
(-0.199169 10.3478 0)
(-0.207526 10.4285 0)
(-0.211505 10.5149 0)
(-0.211019 10.6059 0)
(-0.20611 10.6995 0)
(-0.196932 10.7923 0)
(-0.183679 10.8787 0)
(-0.166594 10.9492 0)
(-0.14574 10.9886 0)
(-0.120962 10.9782 0)
(-0.0920635 10.9024 0)
(-0.0622425 10.7643 0)
(-0.0244138 10.5371 0)
(0.00320151 9.67647 0)
(0.000853884 10.0003 0)
(0.00183883 10.0016 0)
(0.00172621 10.0038 0)
(0.000389941 10.0064 0)
(-0.00256236 10.0093 0)
(-0.00742573 10.0125 0)
(-0.0145926 10.0163 0)
(-0.024516 10.0213 0)
(-0.0376281 10.0284 0)
(-0.0542277 10.0389 0)
(-0.0743263 10.0544 0)
(-0.0976582 10.0764 0)
(-0.123746 10.1061 0)
(-0.151587 10.145 0)
(-0.179708 10.1944 0)
(-0.206174 10.255 0)
(-0.228625 10.3272 0)
(-0.243448 10.4111 0)
(-0.250037 10.5034 0)
(-0.251357 10.6011 0)
(-0.247511 10.7029 0)
(-0.238732 10.8067 0)
(-0.225325 10.9091 0)
(-0.207634 11.0044 0)
(-0.185895 11.0831 0)
(-0.160074 11.1304 0)
(-0.130696 11.1282 0)
(-0.0974965 11.0624 0)
(-0.064045 10.9414 0)
(-0.0270812 10.7026 0)
(0.002717 9.74994 0)
(0.000794507 10.0003 0)
(0.0017093 10.0015 0)
(0.00153658 10.0036 0)
(0.000160136 10.006 0)
(-0.00281554 10.0085 0)
(-0.00770408 10.0112 0)
(-0.0149208 10.0143 0)
(-0.0249678 10.0182 0)
(-0.0383685 10.0238 0)
(-0.0555788 10.0321 0)
(-0.076847 10.0447 0)
(-0.102024 10.0637 0)
(-0.130598 10.0905 0)
(-0.161821 10.1266 0)
(-0.194348 10.1733 0)
(-0.226324 10.232 0)
(-0.255411 10.3031 0)
(-0.278916 10.3867 0)
(-0.292771 10.4828 0)
(-0.296655 10.5872 0)
(-0.294386 10.6964 0)
(-0.286307 10.809 0)
(-0.272859 10.9227 0)
(-0.254527 11.0342 0)
(-0.231726 11.1377 0)
(-0.204679 11.2241 0)
(-0.173851 11.2791 0)
(-0.140445 11.2846 0)
(-0.103644 11.2295 0)
(-0.0667103 11.1207 0)
(-0.0299333 10.8827 0)
(0.00158407 9.83467 0)
(0.000743976 10.0002 0)
(0.00159918 10.0014 0)
(0.0013771 10.0034 0)
(-2.8974e-05 10.0056 0)
(-0.003012 10.0078 0)
(-0.00790003 10.0101 0)
(-0.0151221 10.0125 0)
(-0.0252137 10.0155 0)
(-0.0387638 10.0197 0)
(-0.0563467 10.0261 0)
(-0.0784108 10.0359 0)
(-0.105102 10.0513 0)
(-0.136038 10.0745 0)
(-0.170389 10.1073 0)
(-0.207088 10.1508 0)
(-0.244391 10.2065 0)
(-0.280017 10.2756 0)
(-0.311244 10.3583 0)
(-0.335062 10.4543 0)
(-0.346982 10.5631 0)
(-0.347098 10.68 0)
(-0.340231 10.8008 0)
(-0.326999 10.9238 0)
(-0.308077 11.047 0)
(-0.284094 11.1669 0)
(-0.255534 11.2781 0)
(-0.223025 11.3717 0)
(-0.187516 11.4337 0)
(-0.150377 11.4462 0)
(-0.110518 11.4006 0)
(-0.0706075 11.3206 0)
(-0.0328766 11.0777 0)
(-0.000177492 9.92866 0)
(0.000700681 10.0002 0)
(0.0015051 10.0013 0)
(0.00124255 10.0032 0)
(-0.000183662 10.0052 0)
(-0.00316405 10.0072 0)
(-0.00803308 10.0091 0)
(-0.0152284 10.011 0)
(-0.0253065 10.0132 0)
(-0.0389018 10.0161 0)
(-0.0566749 10.0207 0)
(-0.0792264 10.0281 0)
(-0.106954 10.0401 0)
(-0.139838 10.0589 0)
(-0.177184 10.0873 0)
(-0.21777 10.127 0)
(-0.260154 10.1792 0)
(-0.302144 10.2452 0)
(-0.341029 10.3259 0)
(-0.37372 10.4212 0)
(-0.396924 10.5304 0)
(-0.405788 10.6524 0)
(-0.400973 10.7819 0)
(-0.388445 10.9139 0)
(-0.369129 11.047 0)
(-0.343926 11.179 0)
(-0.313616 11.3066 0)
(-0.279027 11.4249 0)
(-0.241243 11.5249 0)
(-0.201283 11.5929 0)
(-0.160426 11.6112 0)
(-0.118323 11.5943 0)
(-0.0753593 11.5399 0)
(-0.03605 11.2683 0)
(-0.00211579 10.0295 0)
(0.00066363 10.0002 0)
(0.00142416 10.0013 0)
(0.0011287 10.003 0)
(-0.000310877 10.0049 0)
(-0.00328117 10.0067 0)
(-0.00811848 10.0083 0)
(-0.0152644 10.0097 0)
(-0.0252873 10.0111 0)
(-0.0388513 10.013 0)
(-0.0566779 10.016 0)
(-0.0794804 10.0211 0)
(-0.10785 10.03 0)
(-0.14208 10.0447 0)
(-0.181913 10.0678 0)
(-0.226255 10.1024 0)
(-0.273415 10.1503 0)
(-0.32152 10.2124 0)
(-0.367915 10.29 0)
(-0.409462 10.3834 0)
(-0.442727 10.4922 0)
(-0.464211 10.6151 0)
(-0.468771 10.7507 0)
(-0.457796 10.8925 0)
(-0.438524 11.0355 0)
(-0.412206 11.178 0)
(-0.379981 11.318 0)
(-0.342952 11.4528 0)
(-0.302348 11.5771 0)
(-0.259437 11.6826 0)
(-0.215128 11.7548 0)
(-0.171487 11.7977 0)
(-0.126738 11.8091 0)
(-0.0805044 11.7551 0)
(-0.0391459 11.4535 0)
(-0.00396925 10.135 0)
(0.00135394 10.0012 0)
(0.000619697 10.0002 0)
(0.00103138 10.0029 0)
(-0.000415658 10.0046 0)
(-0.00337081 10.0062 0)
(-0.0081681 10.0075 0)
(-0.0152494 10.0085 0)
(-0.0251882 10.0093 0)
(-0.0386663 10.0102 0)
(-0.0564462 10.0118 0)
(-0.0793218 10.015 0)
(-0.108029 10.021 0)
(-0.143106 10.0318 0)
(-0.184677 10.0499 0)
(-0.23217 10.0782 0)
(-0.283992 10.1202 0)
(-0.337897 10.1777 0)
(-0.391569 10.2511 0)
(-0.441868 10.3413 0)
(-0.485249 10.4485 0)
(-0.517995 10.5716 0)
(-0.536496 10.7086 0)
(-0.53541 10.8577 0)
(-0.517008 11.0117 0)
(-0.489929 11.1649 0)
(-0.455764 11.3161 0)
(-0.415991 11.4635 0)
(-0.372095 11.6043 0)
(-0.325496 11.7337 0)
(-0.277491 11.8428 0)
(-0.230365 11.9374 0)
(-0.183312 12.005 0)
(-0.134919 12.0216 0)
(-0.0856253 11.9645 0)
(-0.0420389 11.6329 0)
(-0.00573856 10.2433 0)
(0.000946145 10.0028 0)
(0.0012735 10.0012 0)
(0.000567411 10.0002 0)
(-0.000502702 10.0044 0)
(-0.00343857 10.0058 0)
(-0.00819095 10.0069 0)
(-0.0151983 10.0075 0)
(-0.0250339 10.0077 0)
(-0.0383886 10.0077 0)
(-0.0560501 10.0081 0)
(-0.0788681 10.0095 0)
(-0.107685 10.013 0)
(-0.143223 10.0204 0)
(-0.185909 10.0337 0)
(-0.235634 10.056 0)
(-0.291412 10.0906 0)
(-0.351045 10.1413 0)
(-0.411684 10.2097 0)
(-0.470537 10.2957 0)
(-0.523994 10.3999 0)
(-0.56815 10.5217 0)
(-0.5991 10.6596 0)
(-0.613231 10.8109 0)
(-0.605094 10.9734 0)
(-0.578013 11.139 0)
(-0.542132 11.3017 0)
(-0.499442 11.4607 0)
(-0.451804 11.6143 0)
(-0.400938 11.7601 0)
(-0.348303 11.8929 0)
(-0.297181 12.0234 0)
(-0.246535 12.1401 0)
(-0.194635 12.2108 0)
(-0.142638 12.2294 0)
(-0.0904926 12.1668 0)
(-0.0446458 11.8062 0)
(-0.00735636 10.3525 0)
(-0.000580112 10.0042 0)
(0.000857438 10.0027 0)
(0.00117582 10.0011 0)
(0.000517679 10.0002 1.87572e-19)
(-0.00348971 10.0055 0)
(-0.00819356 10.0063 0)
(-0.0151222 10.0066 0)
(-0.0248434 10.0063 0)
(-0.0380501 10.0056 0)
(-0.0555441 10.0048 0)
(-0.078211 10.0046 0)
(-0.106968 10.0059 0)
(-0.142675 10.0102 0)
(-0.185991 10.0193 0)
(-0.237178 10.0359 0)
(-0.2958 10.0633 0)
(-0.36036 10.1054 0)
(-0.427967 10.1662 0)
(-0.495091 10.2469 0)
(-0.558484 10.3468 0)
(-0.614103 10.466 0)
(-0.657764 10.6033 0)
(-0.685479 10.7564 0)
(-0.693757 10.922 0)
(-0.677155 11.0973 0)
(-0.640201 11.2738 0)
(-0.594664 11.4451 0)
(-0.542952 11.6108 0)
(-0.487207 11.7696 0)
(-0.429257 11.9187 0)
(-0.373097 12.0725 0)
(-0.317996 12.2239 0)
(-0.261786 12.3414 0)
(-0.205242 12.4128 0)
(-0.149745 12.431 0)
(-0.0949935 12.3615 0)
(-0.0469404 11.9727 0)
(-0.00879461 10.461 0)
(-0.00353735 10.0052 0)
(-0.00064269 10.004 0)
(0.000758205 10.0025 8.37811e-19)
(0.00108232 10.001 -5.94347e-19)
(0.000470353 10.0002 -3.74098e-19)
(-0.00818171 10.0058 0)
(-0.0150289 10.0058 0)
(-0.0246308 10.005 0)
(-0.0376752 10.0037 0)
(-0.0549694 10.0019 0)
(-0.0774208 10.0003 0)
(-0.105996 9.99964 0)
(-0.141655 10.0011 0)
(-0.185233 10.0063 0)
(-0.237279 10.0178 0)
(-0.297807 10.0385 0)
(-0.365965 10.0722 0)
(-0.439653 10.1232 0)
(-0.515162 10.1955 0)
(-0.588262 10.29 0)
(-0.655288 10.4051 0)
(-0.71183 10.5402 0)
(-0.753528 10.6935 0)
(-0.776442 10.8619 0)
(-0.777339 11.0414 0)
(-0.750892 11.229 0)
(-0.70299 11.4154 0)
(-0.6471 11.5942 0)
(-0.585969 11.7655 0)
(-0.521905 11.9278 0)
(-0.459963 12.0978 0)
(-0.399287 12.2719 0)
(-0.337523 12.4229 0)
(-0.275927 12.539 0)
(-0.214973 12.6093 0)
(-0.156174 12.6253 0)
(-0.0990677 12.5479 0)
(-0.0489316 12.1322 0)
(-0.0100478 10.5674 0)
(-0.00817588 10.0054 0)
(-0.00353728 10.0048 -1.79043e-18)
(-0.000693323 10.0037 -8.83752e-19)
(0.000664734 10.0023 4.17987e-19)
(0.00099271 10.0009 -3.95039e-19)
(0.000425498 10.0001 0)
(-0.0149245 10.0051 0)
(-0.024405 10.0039 0)
(-0.0372817 10.002 0)
(-0.0543577 9.9994 0)
(-0.076551 9.99655 0)
(-0.104861 9.99407 0)
(-0.140315 9.993 0)
(-0.183878 9.99482 0)
(-0.236323 10.0016 0)
(-0.298015 10.0162 0)
(-0.368638 10.042 0)
(-0.44684 10.0832 0)
(-0.529785 10.1444 0)
(-0.612871 10.2299 0)
(-0.691159 10.3395 0)
(-0.760642 10.4709 0)
(-0.816638 10.6228 0)
(-0.85474 10.7924 0)
(-0.871199 10.976 0)
(-0.863186 11.169 0)
(-0.8256 11.3679 0)
(-0.765817 11.563 0)
(-0.699001 11.7482 0)
(-0.628127 11.9233 0)
(-0.559484 12.1066 0)
(-0.492369 12.2968 0)
(-0.423807 12.47 0)
(-0.35558 12.6183 0)
(-0.288808 12.7314 0)
(-0.22376 12.7992 0)
(-0.161898 12.8117 0)
(-0.10269 12.7256 0)
(-0.0506405 12.2842 0)
(-0.0111228 10.6708 0)
(-0.0148401 10.0044 0)
(-0.00807319 10.0048 3.77593e-18)
(-0.00347754 10.0044 0)
(-0.000739718 10.0034 8.81484e-19)
(0.000577737 10.0021 1.37605e-22)
(0.000906918 10.0009 0)
(0.000383137 10.0001 0)
(-0.0241727 10.003 0)
(-0.0368806 10.0005 0)
(-0.0537317 9.99715 0)
(-0.0756426 9.9932 0)
(-0.103631 9.98914 0)
(-0.138771 9.98584 0)
(-0.18212 9.98458 0)
(-0.234615 9.98719 0)
(-0.296901 9.99615 0)
(-0.369088 10.0147 0)
(-0.450451 10.0467 0)
(-0.53901 10.0967 0)
(-0.631101 10.1698 0)
(-0.721155 10.2699 0)
(-0.803552 10.3961 0)
(-0.874055 10.5448 0)
(-0.927832 10.714 0)
(-0.960579 10.9 0)
(-0.96889 11.0984 0)
(-0.950477 11.304 0)
(-0.900568 11.5131 0)
(-0.828119 11.7158 0)
(-0.749907 11.9056 0)
(-0.673786 12.102 0)
(-0.599158 12.3057 0)
(-0.522672 12.4947 0)
(-0.446452 12.6647 0)
(-0.372023 12.8088 0)
(-0.300384 12.9177 0)
(-0.231582 12.9817 0)
(-0.166925 12.9897 0)
(-0.105863 12.8945 0)
(-0.0520923 12.4285 0)
(-0.0120332 10.7704 0)
(-0.0239799 10.0021 0)
(-0.0145876 10.0037 4.92426e-22)
(-0.00783238 10.0042 0)
(-0.00341739 10.0039 -9.29453e-19)
(-0.000776314 10.0031 8.50776e-23)
(0.000497088 10.002 0)
(0.000825067 10.0008 0)
(0.000343274 10.0001 0)
(-0.0364786 9.99918 0)
(-0.0531047 9.99517 0)
(-0.0747245 9.99023 0)
(-0.102359 9.98478 0)
(-0.137112 9.9795 0)
(-0.180104 9.97549 0)
(-0.232396 9.97433 0)
(-0.294841 9.97824 0)
(-0.367892 9.99012 0)
(-0.451334 10.0136 0)
(-0.54391 10.0531 0)
(-0.642915 10.1136 0)
(-0.743769 10.2 0)
(-0.839882 10.3162 0)
(-0.925016 10.4602 0)
(-0.994858 10.6271 0)
(-1.04458 10.8139 0)
(-1.07013 11.0161 0)
(-1.06861 11.2287 0)
(-1.03839 11.4458 0)
(-0.975108 11.6639 0)
(-0.889316 11.8724 0)
(-0.805083 12.0841 0)
(-0.722025 12.3014 0)
(-0.636266 12.5039 0)
(-0.550648 12.6895 0)
(-0.46708 12.8546 0)
(-0.386807 12.9933 0)
(-0.310665 13.097 0)
(-0.238461 13.1563 0)
(-0.171286 13.1589 0)
(-0.108605 13.0544 0)
(-0.0533125 12.5652 0)
(-0.0127958 10.8657 0)
(-0.0361428 9.99802 0)
(-0.0235194 10.0011 -2.09792e-18)
(-0.0140778 10.0029 0)
(-0.00759886 10.0036 0)
(-0.00334257 10.0035 2.78002e-18)
(-0.000803293 10.0028 0)
(0.00042283 10.0018 0)
(0.000747265 10.0007 7.81186e-19)
(0.000305941 10.0001 0)
(-0.0524836 9.99341 0)
(-0.0738133 9.98761 0)
(-0.101082 9.98091 0)
(-0.135404 9.97388 0)
(-0.177943 9.96742 0)
(-0.22985 9.96291 0)
(-0.292135 9.96228 0)
(-0.365513 9.96815 0)
(-0.450182 9.98386 0)
(-0.545488 10.0136 0)
(-0.649547 10.062 0)
(-0.758833 10.1344 0)
(-0.867768 10.2358 0)
(-0.968717 10.3696 0)
(-1.05494 10.5325 0)
(-1.12223 10.7182 0)
(-1.16592 10.9225 0)
(-1.18242 11.1405 0)
(-1.16944 11.3663 0)
(-1.12612 11.5939 0)
(-1.04853 11.8191 0)
(-0.955748 12.0505 0)
(-0.863438 12.2838 0)
(-0.767172 12.5003 0)
(-0.67054 12.6994 0)
(-0.576148 12.8798 0)
(-0.485644 13.0387 0)
(-0.399955 13.171 0)
(-0.319693 13.2687 0)
(-0.244446 13.3225 0)
(-0.175025 13.3192 0)
(-0.110947 13.2054 0)
(-0.0543278 12.6942 0)
(-0.013429 10.9564 0)
(-0.0519647 9.99185 0)
(-0.035402 9.99673 0)
(-0.0226286 10 -2.18327e-18)
(-0.0135887 10.0021 -2.06599e-18)
(-0.00734394 10.003 -3.90753e-18)
(-0.003253 10.0031 0)
(-0.000820657 10.0025 -1.7449e-18)
(0.000355113 10.0017 -1.64767e-18)
(0.000673529 10.0007 7.77476e-19)
(0.000271089 10.0001 0)
(-0.072916 9.98529 0)
(-0.0998207 9.97749 0)
(-0.133695 9.9689 0)
(-0.175722 9.96027 0)
(-0.227119 9.95276 0)
(-0.289011 9.94807 0)
(-0.362316 9.94852 0)
(-0.447557 9.95715 0)
(-0.54457 9.9778 0)
(-0.652167 10.015 0)
(-0.767745 10.074 0)
(-0.886859 10.1599 0)
(-1.00287 10.2779 0)
(-1.10713 10.4307 0)
(-1.19254 10.6134 0)
(-1.2552 10.818 0)
(-1.29083 11.0398 0)
(-1.29641 11.2728 0)
(-1.27044 11.5107 0)
(-1.21285 11.7469 0)
(-1.12849 11.9964 0)
(-1.02617 12.2504 0)
(-0.918115 12.4836 0)
(-0.808902 12.6968 0)
(-0.701815 12.8905 0)
(-0.599128 13.0644 0)
(-0.50217 13.2162 0)
(-0.411525 13.3413 0)
(-0.327539 13.4323 0)
(-0.249597 13.4802 0)
(-0.178196 13.4706 0)
(-0.112924 13.3476 0)
(-0.0551635 12.8155 0)
(-0.0139497 11.0424 0)
(-0.0721678 9.98323 0)
(-0.0508554 9.99016 -2.33278e-18)
(-0.033988 9.99531 2.29968e-18)
(-0.0217806 9.99897 -1.17718e-21)
(-0.0130691 10.0013 2.05899e-18)
(-0.00706751 10.0025 1.94696e-18)
(-0.00314918 10.0027 3.67905e-18)
(-0.000828272 10.0023 2.60579e-18)
(0.000293906 10.0015 -8.19901e-19)
(0.000603901 10.0006 0)
(0.000238704 10.0001 0)
(-0.0985822 9.97446 0)
(-0.13201 9.96449 0)
(-0.173504 9.95392 0)
(-0.224311 9.94375 0)
(-0.285649 9.93543 0)
(-0.358588 9.93102 0)
(-0.443904 9.93325 0)
(-0.541827 9.94565 0)
(-0.651747 9.97249 0)
(-0.771851 10.0187 0)
(-0.898711 10.0898 0)
(-1.02689 10.191 0)
(-1.14867 10.3271 0)
(-1.25441 10.5 0)
(-1.33687 10.7031 0)
(-1.39273 10.9268 0)
(-1.41822 11.1654 0)
(-1.41108 11.4124 0)
(-1.37067 11.6608 0)
(-1.30767 11.9226 0)
(-1.21357 12.1962 0)
(-1.09237 12.451 0)
(-0.968747 12.6813 0)
(-0.847013 12.8892 0)
(-0.730032 13.0762 0)
(-0.619619 13.2425 0)
(-0.516734 13.3865 0)
(-0.421607 13.5038 0)
(-0.334291 13.5878 0)
(-0.253986 13.6294 0)
(-0.180853 13.6133 0)
(-0.114575 13.4812 0)
(-0.0558435 12.9295 0)
(-0.0143743 11.1235 0)
(-0.0975536 9.97177 0)
(-0.0705839 9.98103 -3.46735e-21)
(-0.0487421 9.98833 0)
(-0.0326517 9.99393 -1.89055e-21)
(-0.0208899 9.99795 0)
(-0.0125185 10.0005 -2.0516e-18)
(-0.00677039 10.0019 -3.87799e-18)
(-0.00303094 10.0023 8.9431e-23)
(-0.000826313 10.0021 1.72868e-18)
(0.000238936 10.0014 -8.15528e-19)
(0.000538368 10.0005 7.69051e-19)
(0.000208755 10.0001 0)
(-0.130357 9.96058 0)
(-0.171317 9.9483 0)
(-0.221503 9.93575 0)
(-0.282183 9.9242 0)
(-0.354547 9.91543 0)
(-0.439571 9.91191 0)
(-0.537795 9.91682 0)
(-0.649081 9.93414 0)
(-0.772282 9.9686 0)
(-0.904856 10.0255 0)
(-1.04246 10.1104 0)
(-1.17861 10.2286 0)
(-1.30451 10.3841 0)
(-1.40966 10.5781 0)
(-1.48688 10.8019 0)
(-1.53367 11.0444 0)
(-1.54698 11.2991 0)
(-1.5254 11.5585 0)
(-1.48072 11.834 0)
(-1.40897 12.1218 0)
(-1.29383 12.3978 0)
(-1.15385 12.6503 0)
(-1.01512 12.8754 0)
(-0.881448 13.0764 0)
(-0.755224 13.2556 0)
(-0.637713 13.4136 0)
(-0.52945 13.549 0)
(-0.430313 13.6583 0)
(-0.340048 13.7349 0)
(-0.257688 13.77 0)
(-0.183056 13.7474 0)
(-0.115937 13.6065 0)
(-0.0563895 13.0363 0)
(-0.0147171 11.1999 0)
(-0.128993 9.95711 0)
(-0.0953676 9.96894 2.58718e-18)
(-0.0675541 9.9787 -2.55659e-18)
(-0.0467568 9.98658 2.41647e-18)
(-0.031257 9.99262 0)
(-0.0199556 9.99697 0)
(-0.0119389 9.99982 2.0432e-18)
(-0.00645313 10.0014 -1.92999e-18)
(-0.00289839 10.002 1.19492e-22)
(-0.000814396 10.0018 8.59829e-19)
(0.000190274 10.0013 -8.10942e-19)
(0.000476853 10.0005 -7.6365e-19)
(0.000181371 10.0001 0)
(-0.169173 9.9433 0)
(-0.218733 9.92866 0)
(-0.278709 9.91422 0)
(-0.350362 9.90157 0)
(-0.434827 9.89288 0)
(-0.532896 9.89103 0)
(-0.644807 9.89969 0)
(-0.769968 9.92328 0)
(-0.906594 9.96694 0)
(-1.05131 10.0362 0)
(-1.1988 10.1367 0)
(-1.34151 10.2734 0)
(-1.46962 10.4496 0)
(-1.57185 10.6654 0)
(-1.64141 10.9099 0)
(-1.67685 11.1707 0)
(-1.67596 11.44 0)
(-1.65154 11.7283 0)
(-1.59887 12.0317 0)
(-1.50494 12.3238 0)
(-1.36864 12.5989 0)
(-1.21034 12.8467 0)
(-1.05715 13.0648 0)
(-0.912266 13.2576 0)
(-0.777498 13.428 0)
(-0.653542 13.577 0)
(-0.540452 13.7037 0)
(-0.437763 13.8047 0)
(-0.344913 13.8739 0)
(-0.26078 13.9022 0)
(-0.184859 13.8732 0)
(-0.117046 13.7238 0)
(-0.0568224 13.1362 0)
(-0.014991 11.2715 0)
(-0.167414 9.93888 0)
(-0.126055 9.95351 0)
(-0.0911577 9.96601 2.68906e-18)
(-0.0647228 9.97648 -5.10005e-18)
(-0.0446928 9.9849 4.82367e-18)
(-0.0298022 9.99136 -4.56013e-18)
(-0.0189812 9.99604 0)
(-0.011331 9.99914 2.03467e-18)
(-0.00611599 10.0009 -1.92035e-18)
(-0.00275288 10.0016 -1.81264e-18)
(-0.000791836 10.0016 0)
(0.000147655 10.0011 8.05223e-19)
(0.000419483 10.0004 0)
(0.000157055 10 0)
(-0.216016 9.92235 0)
(-0.275275 9.90535 0)
(-0.346155 9.88924 0)
(-0.429883 9.87592 0)
(-0.527459 9.868 0)
(-0.639432 9.86881 0)
(-0.765661 9.88247 0)
(-0.905 9.91386 0)
(-1.05492 9.96844 0)
(-1.21116 10.0519 0)
(-1.36734 10.1697 0)
(-1.51489 10.3263 0)
(-1.64302 10.5243 0)
(-1.73986 10.7621 0)
(-1.79926 11.0272 0)
(-1.82106 11.305 0)
(-1.81908 11.6051 0)
(-1.78771 11.9236 0)
(-1.71142 12.2337 0)
(-1.59485 12.5266 0)
(-1.43762 12.7978 0)
(-1.26169 13.0388 0)
(-1.09488 13.2484 0)
(-0.9396 13.432 0)
(-0.797015 13.5929 0)
(-0.667265 13.7326 0)
(-0.549891 13.8503 0)
(-0.444082 13.943 0)
(-0.348984 14.0047 0)
(-0.263335 14.0264 0)
(-0.186317 13.991 0)
(-0.117936 13.8335 0)
(-0.0571597 13.2296 0)
(-0.0152061 11.3386 0)
(-0.213804 9.91676 0)
(-0.163555 9.93433 0)
(-0.120352 9.94984 0)
(-0.0872458 9.96322 5.36372e-18)
(-0.061789 9.97437 -5.07592e-18)
(-0.0425492 9.98331 4.80003e-18)
(-0.0282942 9.99017 0)
(-0.0179685 9.99515 -2.14297e-18)
(-0.0106955 9.99849 0)
(-0.00575979 10.0005 1.90997e-18)
(-0.00259322 10.0013 0)
(-0.000760264 10.0014 0)
(0.00011227 10.001 0)
(0.000367531 10.0004 7.78449e-19)
(0.000135839 10 3.74962e-19)
(-0.271902 9.89748 0)
(-0.341981 9.87827 0)
(-0.424887 9.86083 0)
(-0.521741 9.84746 0)
(-0.633354 9.84118 0)
(-0.759965 9.84581 0)
(-0.900956 9.86593 0)
(-1.05453 9.9068 0)
(-1.21733 9.9741 0)
(-1.38412 10.0735 0)
(-1.54751 10.2103 0)
(-1.69789 10.3881 0)
(-1.82363 10.6085 0)
(-1.91249 10.8686 0)
(-1.95919 11.1533 0)
(-1.98204 11.4639 0)
(-1.97455 11.7967 0)
(-1.91825 12.1247 0)
(-1.81747 12.4378 0)
(-1.6782 12.7283 0)
(-1.50056 12.9933 0)
(-1.3079 13.2256 0)
(-1.12843 13.4256 0)
(-0.963635 13.5991 0)
(-0.813982 13.7501 0)
(-0.679063 13.8802 0)
(-0.557919 13.9889 0)
(-0.449393 14.0732 0)
(-0.352358 14.1276 0)
(-0.265421 14.1428 0)
(-0.187477 14.1011 0)
(-0.118637 13.9359 0)
(-0.0574168 13.3167 0)
(-0.0153706 11.4013 0)
(-0.269183 9.89049 0)
(-0.208829 9.91107 0)
(-0.155995 9.92976 5.98219e-18)
(-0.115082 9.94635 5.66429e-18)
(-0.0832003 9.96057 5.35822e-18)
(-0.0587519 9.97237 -5.0655e-18)
(-0.0403362 9.98181 0)
(-0.0267351 9.98906 0)
(-0.0169185 9.99433 0)
(-0.0100337 9.99789 4.02692e-18)
(-0.00538662 10 1.89919e-18)
(-0.00241984 10.001 1.78913e-18)
(-0.000719691 10.0012 0)
(8.33829e-05 10.0009 -8.20753e-19)
(0.000320831 10.0004 -3.96041e-19)
(0.000117247 10 0)
(-0.337875 9.86852 0)
(-0.419907 9.84739 0)
(-0.515926 9.82914 0)
(-0.626887 9.8165 0)
(-0.753355 9.81296 0)
(-0.895168 9.82279 0)
(-1.05113 9.851 0)
(-1.21872 9.90314 0)
(-1.39366 9.98503 0)
(-1.56975 10.1022 0)
(-1.73854 10.2594 0)
(-1.8895 10.4595 0)
(-2.01033 10.7029 0)
(-2.08851 10.9847 0)
(-2.13891 11.3041 0)
(-2.15821 11.6502 0)
(-2.12473 11.9959 0)
(-2.04215 12.3296 0)
(-1.91643 12.6422 0)
(-1.75471 12.9277 0)
(-1.55748 13.1842 0)
(-1.34913 13.4063 0)
(-1.15801 13.5956 0)
(-0.984598 13.7585 0)
(-0.828621 13.8992 0)
(-0.689124 14.0198 0)
(-0.564689 14.1195 0)
(-0.453816 14.1957 0)
(-0.355124 14.2428 0)
(-0.267104 14.2517 0)
(-0.188383 14.204 0)
(-0.119179 14.0315 0)
(-0.0576049 13.3979 0)
(-0.015496 11.4598 0)
(-0.334602 9.85987 0)
(-0.262873 9.88341 0)
(-0.198991 9.90542 -1.25853e-17)
(-0.149039 9.92545 1.78216e-20)