/*--------------------------------*- C++ -*----------------------------------*\
  =========                 |
  \\      /  F ield         | OpenFOAM: The Open Source CFD Toolbox
   \\    /   O peration     | Website:  https://openfoam.org
    \\  /    A nd           | Version:  8
     \\/     M anipulation  |
\*---------------------------------------------------------------------------*/
FoamFile
{
    version     2.0;
    format      ascii;
    class       volScalarField;
    location    "0.48";
    object      k;
}
// * * * * * * * * * * * * * * * * * * * * * * * * * * * * * * * * * * * * * //

dimensions      [0 2 -2 0 0 0 0];

internalField   nonuniform List<scalar> 
15677
(
53.1774
21.1867
32.6366
41.8513
47.5466
51.172
54.6296
59.8961
68.4424
80.9324
96.499
110.676
120.949
127.96
126.474
119.276
103.198
85.2316
67.3071
50.9447
37.5705
28.1663
23.0801
20.9566
19.8652
19.1593
18.4167
17.4499
16.2208
14.8191
13.3672
11.9793
10.7611
9.70806
8.79461
173.461
273.264
330.042
365.507
390.725
410.504
428.496
448.178
472.239
495.764
501.399
451.671
373.153
314.786
288.894
275.298
253.359
218.728
179.431
142.927
116.125
98.9818
88.3459
81.4562
76.6067
72.8739
69.7717
67.0734
64.6436
62.3988
60.3034
58.3442
56.5254
54.8847
53.4469
154.419
295.58
387.57
466.96
546.745
627.767
706.914
779.251
831.111
835.977
764.501
623.022
464.33
322.328
236.097
198.617
182.751
175.248
172.758
172.77
171.76
169.381
167.291
165.756
164.714
164.293
164.237
164.026
163.293
161.878
159.715
157.257
154.874
152.723
150.827
112.018
205.493
275.572
329.786
376.307
416.765
450.002
472.687
478.792
466.388
434.271
392.284
349.211
308.838
271.596
242
221.686
204.018
196.135
185.034
164.981
143.034
126.249
117.703
116.453
118.652
123.773
130.896
138.415
145.965
153.219
160.193
166.718
172.844
178.661
43.2481
93.4709
130.46
158.479
183.485
207.746
231.979
256.431
278.551
287.3
282.069
264.751
234.622
200.25
176.168
160.25
147.639
135.018
121.59
107.556
97.8252
93.1685
93.3276
97.2723
105.665
116.533
129.157
142.802
156.681
170.168
182.853
194.513
205.056
214.47
222.786
7.73119
15.8053
25.9002
31.8974
36.6306
41.3418
45.7957
49.6468
52.271
52.6514
52.6375
52.6835
52.7998
52.6923
52.5409
52.6848
53.2301
55.185
59.7248
67.3651
74.5489
78.4634
80.8698
85.3648
92.4599
101.85
112.91
124.908
137.152
149.149
160.572
171.177
180.784
189.32
196.775
16.6011
20.8341
24.3027
26.5015
28.2737
29.344
29.6453
29.4799
29.403
29.923
31.1962
33.041
35.3465
38.003
40.6955
43.2583
45.8436
48.7685
52.8282
57.1956
62.7754
70.0685
78.757
88.2423
98.1345
108.967
120.75
133.02
145.086
155.964
165.473
173.587
180.417
186.177
191.064
22.5243
36.7214
48.5074
59.113
64.3744
62.2204
52.1206
39.799
31.7195
29.053
29.8607
32.1338
34.9817
38.1469
41.0141
43.7951
47.0792
50.8047
55.12
60.063
65.6536
71.6416
77.6753
83.7714
89.978
96.3808
102.947
109.566
116.098
122.384
128.289
133.738
138.76
143.342
147.498
7.05242
13.6156
18.5789
20.9084
19.8719
18.7533
18.7935
19.7283
21.8928
24.8154
28.2689
31.9731
35.9176
40.1342
44.2935
48.2554
52.1548
56.0296
60.0116
64.2146
68.7633
73.5612
78.2955
82.7256
86.7209
90.3415
93.6868
96.8707
99.9964
103.105
106.199
109.256
112.256
115.176
117.997
3.62988
7.83445
11.455
14.4577
17.262
19.9323
22.5651
25.1443
27.6548
30.1972
32.8606
35.751
39.0383
42.8924
47.0509
51.2248
55.4795
59.7388
64.0058
68.1297
71.7667
74.2947
75.6488
76.7513
77.8143
78.9215
80.096
81.3424
82.6706
84.0861
85.5872
87.1657
88.8081
90.4976
92.2154
7.51345
12.2127
15.7862
18.5531
20.9751
23.226
25.4208
27.6444
29.9647
32.4438
35.1448
38.1282
41.418
45.0105
48.6217
52.0826
55.5336
58.9996
62.4707
65.9377
69.3235
72.3458
74.6732
76.3753
77.6253
78.572
79.328
79.9671
80.5352
81.0576
81.5518
82.0364
82.531
83.0812
83.7011
6.98719
13.4093
17.2103
20.115
22.6596
25.0512
27.397
29.7664
32.2133
34.7848
37.5238
40.4562
43.6012
47.0204
50.4441
53.6752
56.7626
59.7647
62.6557
65.3615
67.797
69.7664
71.2671
72.4894
73.474
74.2422
74.8295
75.2792
75.6352
75.9385
76.219
76.4908
76.764
77.0451
77.3372
8.11652
13.8902
17.8357
20.8865
23.5721
26.1075
28.6046
31.1332
33.7363
36.4209
39.1981
42.094
45.1304
48.3565
51.4786
54.3377
57.0499
59.6375
62.0865
64.3821
66.5148
68.3947
69.9023
71.0728
71.9784
72.6743
73.2077
73.6177
73.9352
74.1839
74.3806
74.5369
74.6612
74.7719
74.8985
7.99198
14.6735
18.7524
21.8637
24.5835
27.1371
29.6372
32.1467
34.7149
37.379
40.1671
43.0993
46.1813
49.4182
52.5129
55.2913
57.8561
60.227
62.367
64.248
65.8668
67.1012
68.0599
68.8062
69.3866
69.833
70.1724
70.4286
70.6211
70.766
70.8769
70.965
71.0389
71.1051
71.1685
8.49948
14.9729
19.1812
22.4068
25.2361
27.8907
30.4747
33.0555
35.679
38.3793
41.1825
44.1085
47.1681
50.3567
53.3712
56.0443
58.4692
60.6511
62.5906
64.2892
65.7478
66.9225
67.7939
68.4113
68.8467
69.1505
69.3601
69.5026
69.5972
69.6577
69.6937
69.7121
69.7173
69.7125
69.7004
8.54262
15.5184
19.7981
23.0589
25.9026
28.559
31.1449
33.7298
36.3606
39.0714
41.8871
44.8253
47.9013
51.1197
54.1499
56.83
59.2503
61.4118
63.311
64.9427
66.3009
67.3292
68.048
68.5423
68.8715
69.0794
69.1994
69.2567
69.2706
69.2545
69.2178
69.1672
69.1073
69.0413
68.9716
8.85138
15.851
20.2583
23.6094
26.5228
29.2352
31.8633
34.4764
37.1211
39.8323
42.6368
45.5551
48.6028
51.783
54.7773
57.4316
59.8385
61.9982
63.906
65.5553
66.9393
68.0082
68.7584
69.2525
69.5588
69.7309
69.8084
69.8219
69.7922
69.7339
69.6575
69.5695
69.4743
69.3741
69.2708
8.97098
16.3415
20.8295
24.2289
27.1754
29.9092
32.5498
35.1673
37.8079
40.5057
43.287
46.1725
49.1775
52.3108
55.2674
57.901
60.3041
62.4809
64.4284
66.135
67.5851
68.7133
69.5176
70.0647
70.4153
70.6192
70.7147
70.7339
70.6998
70.6284
70.5314
70.4171
70.2911
70.1574
70.018
9.18522
16.7091
21.3206
24.7978
27.7972
30.5686
33.2332
35.8609
38.4968
41.1733
43.9151
46.7423
49.6712
52.7151
55.5878
58.1523
60.5111
62.6772
64.644
66.398
67.9221
69.1419
70.037
70.6648
71.0842
71.3445
71.4844
71.5349
71.5233
71.466
71.3767
71.2649
71.1375
70.9991
70.8527
9.34361
17.1964
21.8959
25.4259
28.4619
31.257
33.933
36.5585
39.1769
41.8181
44.5046
47.2548
50.0852
53.0123
55.77
58.2428
60.5376
62.6629
64.6176
66.3901
67.9606
69.2465
70.2166
70.9197
71.4086
71.7296
71.921
72.0121
72.0305
71.9959
71.9223
71.8209
71.6997
71.5645
71.4188
9.52179
17.6102
22.4188
26.0188
29.104
31.9323
34.626
37.253
39.8543
42.4569
45.0798
47.7387
50.4485
53.2271
55.8307
58.1691
60.3461
62.3818
64.28
66.0318
67.6179
68.9514
69.9822
70.7476
71.2949
71.6671
71.9025
72.0324
72.082
72.0747
72.024
71.9416
71.8365
71.715
71.5816
9.68626
18.0719
22.9921
26.657
29.7846
32.6389
35.3436
37.9654
40.5429
43.0996
45.6501
48.2056
50.7779
53.3842
55.8042
57.9677
59.987
61.8896
63.6851
65.3687
66.9229
68.261
69.3254
70.1413
70.7463
71.1758
71.4639
71.6403
71.7284
71.751
71.7254
71.6635
71.575
71.4671
71.3449
9.85595
18.5178
23.5503
27.284
30.4586
33.3437
36.0636
38.6838
41.24
43.7514
46.2276
48.674
51.0971
53.5112
55.719
57.6764
59.5007
61.228
62.8751
64.4421
65.9143
67.2073
68.2572
69.0805
69.7077
70.1703
70.4971
70.7138
70.8432
70.9026
70.9109
70.8798
70.8192
70.7366
70.6378
10.0184
18.9777
24.1234
27.9246
31.1449
34.0595
36.7941
39.4126
41.9477
44.4144
46.8162
49.1519
51.4209
53.6321
55.6101
57.3386
58.9392
60.4573
61.9176
63.326
64.6725
65.8786
66.8778
67.6776
68.3
68.7698
69.1117
69.3489
69.5022
69.5888
69.6227
69.6187
69.585
69.5291
69.459
10.178
19.4265
24.6848
28.5546
31.8224
34.7692
37.5217
40.1421
42.6603
45.0863
47.4179
49.6459
51.7617
53.7663
55.5051
56.9901
58.3468
59.6304
60.8739
62.0902
63.2746
64.358
65.2746
66.0235
66.619
67.0793
67.424
67.6728
67.8436
67.9522
68.0115
68.0325
68.0254
67.9965
67.9524
10.3299
19.8714
25.2407
29.1779
32.4927
35.4722
38.2439
40.8688
43.3737
45.7638
48.0305
50.1569
52.1251
53.927
55.4251
56.6611
57.7632
58.7966
59.803
60.803
61.798
62.7308
63.539
64.2148
64.7647
65.2004
65.5365
65.7883
65.9705
66.0966
66.1781
66.2246
66.2433
66.2418
66.2249
10.474
20.301
25.7785
29.7822
33.1443
36.1578
38.9511
41.5842
44.0805
46.4408
48.65
50.6832
52.5128
54.1209
55.3861
56.3732
57.2183
57.9951
58.7538
59.523
60.3109
61.074
61.7555
62.3417
62.832
63.2318
63.5502
63.7983
63.9872
64.1275
64.2286
64.2984
64.3436
64.3695
64.3803
10.6079
20.7148
26.2965
30.3645
33.7732
36.8211
39.6377
42.2817
44.7739
47.1106
49.2704
51.2204
52.923
54.3494
55.391
56.1399
56.7336
57.2556
57.7649
58.2979
58.8703
59.4532
59.9974
60.484
60.9061
61.2629
61.5583
61.7988
61.9917
62.1447
62.2648
62.3581
62.4297
62.4839
62.5241
10.7304
21.1064
26.7877
30.918
34.3725
37.4551
40.2965
42.9542
45.4466
47.7658
49.8848
51.7624
53.3515
54.6116
55.4452
55.9684
56.3223
56.5981
56.8632
57.1625
57.5195
57.9199
58.3234
58.707
59.0577
59.3691
59.6398
59.8718
60.0688
60.2352
60.3754
60.4935
60.5932
60.6775
60.7487
10.8368
21.4709
27.248
31.4385
34.9378
38.0549
40.9217
43.5953
46.0917
48.3994
50.4857
52.3023
53.7922
54.9025
55.5459
55.8602
55.9895
56.0334
56.0654
56.1395
56.2884
56.511
56.7767
57.0593
57.3402
57.6079
57.8559
58.0818
58.2854
58.4679
58.6312
58.7772
58.9079
59.0251
59.1301
7.69375
6.48873
5.42445
4.54107
3.85686
3.37942
3.10522
3.02857
3.13233
3.40691
3.84295
4.48634
5.43547
6.83172
8.85008
11.6741
15.1733
18.8374
22.3024
25.2595
27.5123
28.9002
51.4764
48.968
46.4788
44.0285
41.6441
39.364
37.2432
35.3603
33.8287
32.8234
32.6544
33.2693
35.301
39.0495
44.562
51.8827
61.2082
73.3289
87.1405
101.001
114.601
128.281
148.198
144.643
141.031
137.404
133.833
130.486
127.697
126.01
126.177
128.857
136.046
149.998
172.037
201.819
235.607
266.675
292.697
314.231
334.393
357.281
387.19
427.66
185.194
192.437
198.795
203.917
207.44
208.991
208.742
207.189
203.768
200.138
197.283
196.672
199.116
206.715
221.121
242.578
271.673
307.697
348.167
388.541
425.191
456.889
232.707
244.677
256.299
267.057
276.658
284.7
290.373
292.755
291.528
287.351
281.549
275.838
271.535
270.154
273.168
280.79
292.726
308.387
326.861
345.561
362.432
376
205.819
216.288
226.034
234.806
242.34
248.433
253.022
256.231
258.246
259.67
261.151
262.991
265.297
268.059
271.466
275.527
279.982
284.267
287.778
291.436
294.725
296.986
197.18
204.661
211.908
218.931
225.751
232.186
238.075
243.361
247.93
251.611
254.329
256.006
256.689
256.657
255.814
254.112
251.758
249.337
247.414
246.018
244.886
243.739
153.273
160.984
168.699
176.332
183.804
191.018
197.864
204.208
209.883
214.681
218.385
220.706
221.547
221.156
219.895
218.226
216.445
214.596
212.744
210.93
209.155
207.394
122.303
128.714
135.711
143.192
151.016
159.012
166.979
174.692
181.907
188.404
193.94
198.218
201.006
202.272
202.402
201.617
200.159
198.241
196.061
193.918
191.903
190.025
95.0014
99.3639
104.39
110.052
116.217
122.835
129.822
137.044
144.347
151.524
158.324
164.447
169.501
173.39
176.193
178.021
178.987
179.248
178.959
178.262
177.302
176.265
84.8641
86.8333
89.2032
92.0396
95.3956
99.3151
103.814
108.854
114.361
120.216
126.264
132.265
137.868
142.868
147.206
150.865
153.945
156.52
158.501
159.905
160.833
161.405
77.9005
78.8769
80.0651
81.5016
83.2325
85.3083
87.7882
90.6756
93.9535
97.6255
101.662
105.979
110.379
114.688
118.825
122.722
126.371
129.711
132.715
135.361
137.648
139.608
75.2256
75.7734
76.3951
77.1198
77.978
79.0005
80.217
81.6576
83.3528
85.3283
87.5986
90.1436
92.8695
95.6797
98.5331
101.392
104.233
107.04
109.776
112.405
114.895
117.231
71.3591
71.7181
72.1217
72.5792
73.1027
73.7068
74.4085
75.2266
76.1817
77.2959
78.5908
80.0752
81.7145
83.4636
85.3061
87.2237
89.1985
91.2127
93.2471
95.2819
97.2971
99.2784
69.722
69.8159
69.9401
70.1038
70.3144
70.5802
70.9106
71.3161
71.8089
72.4025
73.1116
73.9462
74.8926
75.9292
77.0499
78.2476
79.5143
80.8412
82.2193
83.6389
85.0902
86.561
68.8852
68.798
68.7273
68.6818
68.6685
68.6945
68.7679
68.8967
69.0895
69.3556
69.7048
70.1448
70.6698
71.2677
71.9349
72.6677
73.4619
74.313
75.2164
76.1678
77.163
78.1916
69.1008
68.8713
68.648
68.4353
68.2404
68.0709
67.9355
67.8435
67.8031
67.8222
67.9094
68.072
68.3099
68.6154
68.9843
69.4127
69.8968
70.433
71.0179
71.6486
72.323
73.0317
69.7825
69.44
69.096
68.7598
68.4392
68.1402
67.8665
67.6222
67.4163
67.2578
67.158
67.1256
67.1651
67.2728
67.4438
67.6735
67.9575
68.2917
68.6727
69.0973
69.5635
70.0629
70.6074
70.2357
69.8427
69.4343
69.0194
68.6095
68.2175
67.8563
67.5356
67.2612
67.0351
66.8672
66.7692
66.7416
66.7792
66.8779
67.0331
67.24
67.4946
67.7931
68.1329
68.5064
71.1933
70.8489
70.4703
70.0624
69.6329
69.191
68.7473
68.3132
67.9001
67.5231
67.1982
66.9381
66.7521
66.6361
66.5877
66.6014
66.675
66.8038
66.9831
67.2088
67.4772
67.7818
71.3993
71.1218
70.799
70.4344
70.0345
69.608
69.1649
68.7165
68.2756
67.8555
67.4709
67.1381
66.8771
66.6964
66.5914
66.5532
66.5761
66.6579
66.7941
66.9801
67.2119
67.4832
71.2112
71.0167
70.7687
70.471
70.1296
69.7509
69.3435
68.9177
68.4858
68.0612
67.6594
67.2988
67.0017
66.7785
66.6288
66.554
66.5444
66.597
66.7081
66.8731
67.0876
67.3456
70.5769
70.5053
70.3706
70.1733
69.9177
69.6109
69.2616
68.8806
68.4806
68.0764
67.6836
67.3211
67.0132
66.7736
66.6046
66.5074
66.4764
66.5085
66.6027
66.7545
66.9597
67.2126
69.4762
69.5365
69.5354
69.4682
69.3361
69.1424
68.8929
68.5957
68.2627
67.9079
67.5482
67.2046
66.903
66.6594
66.4792
66.3663
66.3207
66.337
66.4176
66.5587
66.7563
67.0049
68.0389
68.2295
68.3561
68.4133
68.4061
68.3328
68.1975
68.0064
67.7678
67.493
67.1966
66.8981
66.6241
66.394
66.2174
66.1016
66.0515
66.0602
66.1316
66.2636
66.4531
66.6953
66.376
66.6837
66.9327
67.1178
67.2347
67.2818
67.265
67.1854
67.0498
66.8675
66.6513
66.4188
66.1939
65.9965
65.8391
65.7313
65.6822
65.6871
65.7514
65.8743
66.054
66.2869
64.5935
65.0021
65.3596
65.6594
65.8963
66.0666
66.167
66.2004
66.1733
66.0911
65.9636
65.8065
65.6412
65.4882
65.3614
65.272
65.2308
65.2365
65.2958
65.4098
65.5781
65.7985
62.7912
63.2816
63.7302
64.1294
64.4726
64.7541
64.9699
65.1184
65.1985
65.2183
65.1854
65.111
65.0131
64.9115
64.8215
64.7561
64.7269
64.7366
64.7925
64.8974
65.0525
65.2574
61.0613
61.6132
62.1334
62.6137
63.0463
63.4242
63.7417
63.9946
64.1813
64.3032
64.363
64.3733
64.3467
64.3011
64.2526
64.2154
64.2013
64.2173
64.2708
64.3665
64.5071
64.694
59.4793
60.0742
60.647
61.1897
61.6936
62.1508
62.5539
62.8974
63.1772
63.3921
63.5434
63.6361
63.6792
63.69
63.6848
63.678
63.6812
63.7049
63.7571
63.8437
63.9688
64.1363
29.4655
28.4662
25.6444
21.3662
16.6835
12.6482
145.352
161.173
168.472
170.26
168.247
161.838
489.379
581.298
682.726
768.254
816.169
816.688
486.573
512.423
527.186
532.836
533.451
526.311
385.407
387.357
386.391
382.454
375.595
365.741
297.262
294.21
289.3
282.798
274.948
265.969
241.297
236.959
231.955
226.375
220.363
214.103
204.765
201.085
197.29
193.455
189.648
185.961
187.597
184.58
181.658
178.846
176.162
173.631
174.613
172.484
170.452
168.517
166.645
164.822
161.049
159.882
158.588
157.217
155.791
154.355
140.455
140.346
140.025
139.523
138.871
138.115
118.574
119.023
119.283
119.38
119.337
119.196
100.504
101.047
101.48
101.812
102.049
102.205
87.5
87.9515
88.3612
88.7295
89.0583
89.3481
78.874
79.2305
79.5916
79.9518
80.3175
80.6827
73.5399
73.8513
74.1977
74.5748
74.9912
75.4421
70.4696
70.7832
71.1514
71.5722
72.0542
72.5946
68.8607
69.2032
69.6136
70.0919
70.6464
71.2763
68.1143
68.491
68.9441
69.4746
70.0897
70.7888
67.8091
68.2109
68.694
69.2594
69.9121
70.6508
67.6692
68.0801
68.5745
69.1525
69.8172
70.5658
67.531
67.9325
68.4181
68.9868
69.6401
70.3751
67.3107
67.6842
68.1391
68.673
69.2862
69.9728
66.9813
67.3128
67.721
68.2021
68.754
69.3707
66.5472
66.8281
67.1798
67.5978
68.0787
68.6164
66.029
66.2553
66.5459
66.8959
67.3009
67.7556
65.4556
65.6275
65.8563
66.1377
66.4664
66.8385
64.859
64.9795
65.1494
65.3649
65.6204
65.9136
64.2692
64.3436
64.4599
64.6152
64.8035
65.0214
10.2035
8.2345
6.38154
4.57293
2.67877
1.26597
0.823802
0.747906
0.815617
0.991717
1.23513
1.5949
2.51893
3.97397
5.81352
8.06616
10.6677
13.5765
16.7826
20.1324
23.2391
26.0806
153.284
143.018
127.005
104.05
74.9684
42.6916
24.6544
22.5219
26.1935
29.9235
33.841
39.6895
46.2898
52.8143
58.7722
63.9729
68.3838
72.048
75.0821
77.6748
80.0811
82.3516
781.562
722.522
642.644
546.128
442.991
345.703
264.327
204.845
178.613
188.52
228.005
281.453
330.875
367.984
387.02
384.829
362.604
321.602
270.957
220.705
179.528
152.108
507.719
480.439
443.636
398.439
348.912
301.546
262.249
238.621
229.343
230.352
236.075
243.954
246.016
241.817
230.532
213.418
194.488
177.945
166.295
158.187
152.347
148.199
352.268
335.28
315.478
294.01
272.539
253.047
237.498
225.44
218.001
212.945
206.053
195.88
186.943
180.423
176.189
173.691
172.606
172.657
173.894
176.409
179.831
183.817
255.926
245.24
234.512
224.179
214.743
206.631
199.829
194.024
188.042
181.738
175.767
170.442
166.574
164.03
162.346
161.15
160.188
159.285
158.188
156.668
154.71
152.296
207.716
201.34
195.333
189.875
185.113
181.123
177.843
175.089
172.612
170.21
167.734
165.111
162.468
159.957
157.569
155.271
153.05
150.912
148.876
146.975
145.244
143.718
182.412
179.001
175.897
173.129
170.692
168.538
166.585
164.737
162.898
160.991
158.949
156.74
154.419
152.028
149.612
147.206
144.84
142.537
140.316
138.188
136.162
134.246
171.229
168.937
166.825
164.928
163.253
161.761
160.339
158.922
157.459
155.894
154.181
152.32
150.336
148.277
146.165
144.02
141.845
139.655
137.443
135.207
132.932
130.617
162.917
160.956
159.028
157.161
155.338
153.536
151.727
149.887
147.995
146.034
143.991
141.844
139.631
137.402
135.172
132.943
130.712
128.477
126.23
123.971
121.696
119.454
152.555
150.491
148.404
146.306
144.216
142.12
140.008
137.877
135.72
133.532
131.305
129.047
126.811
124.641
122.543
120.522
118.588
116.75
115.023
113.41
111.916
110.553
136.617
134.602
132.545
130.468
128.383
126.298
124.222
122.168
120.15
118.169
116.215
114.277
112.397
110.616
108.929
107.332
105.825
104.412
103.174
102.141
101.312
100.67
118.126
116.417
114.692
112.966
111.243
109.536
107.861
106.241
104.699
103.258
101.942
100.788
99.8508
99.1344
98.6157
98.2857
98.1299
98.135
98.2797
98.5703
98.9702
99.4484
101.505
100.203
98.9062
97.6286
96.403
95.2669
94.2486
93.3598
92.6224
92.0615
91.7042
91.5843
91.6983
92.0511
92.6262
93.3699
94.2451
95.2136
96.2362
97.2699
98.2701
99.1918
88.9819
88.1633
87.3889
86.688
86.0849
85.6069
85.2835
85.1447
85.209
85.5052
86.0819
86.9274
88.0087
89.2638
90.6398
92.083
93.5432
94.9728
96.3315
97.5904
98.7318
99.7401
80.6167
80.2558
79.9736
79.8057
79.7773
79.9028
80.2258
80.7655
81.5353
82.5506
83.8154
85.3079
86.952
88.6571
90.3626
92.0191
93.583
95.0274
96.3291
97.4706
98.4356
99.2129
75.6362
75.665
75.8126
76.1038
76.5533
77.1811
78.0044
79.034
80.2737
81.7181
83.3497
85.1213
86.9373
88.7076
90.3909
91.9503
93.3535
94.5652
95.5614
96.3254
96.8522
97.1452
73.0257
73.3761
73.8618
74.4922
75.28
76.235
77.3617
78.6581
80.1109
81.6995
83.3955
85.1526
86.877
88.4815
89.914
91.1302
92.0993
92.8018
93.2339
93.4118
93.3569
93.0976
71.8781
72.4566
73.1637
74.0023
74.9773
76.089
77.3305
78.6903
80.1527
81.6935
83.2782
84.8373
86.2579
87.4549
88.3888
89.0461
89.4361
89.5802
89.5041
89.2241
88.7628
88.1465
71.497
72.2034
73.0202
73.9444
74.974
76.1056
77.3299
78.6309
79.9772
81.3232
82.6076
83.753
84.6666
85.3187
85.7186
85.8794
85.8161
85.5442
85.0862
84.4649
83.7128
82.8488
71.4062
72.1538
72.9898
73.9104
74.9112
75.9768
77.0839
78.1974
79.2733
80.2559
81.1003
81.7639
82.2085
82.4143
82.399
82.1722
81.7536
81.1663
80.4357
79.5879
78.6486
77.6401
71.3223
72.0505
72.8464
73.6939
74.5768
75.4696
76.3383
77.1506
77.8759
78.4881
78.9506
79.2189
79.2759
79.1203
78.7675
78.2388
77.5585
76.7529
75.8479
74.869
73.8397
72.7785
71.0947
71.744
72.4251
73.1169
73.8014
74.4576
75.0657
75.599
76.0268
76.3193
76.4451
76.3843
76.1227
75.6782
75.0731
74.3326
73.4829
72.55
71.5588
70.532
69.4907
68.4477
70.6122
71.134
71.6633
72.1817
72.6718
73.1138
73.4862
73.764
73.9172
73.9327
73.7829
73.452
72.9455
72.2925
71.518
70.6483
69.7089
68.7242
67.716
66.704
65.7055
64.7291
69.9125
70.3004
70.6776
71.0257
71.3285
71.5674
71.7201
71.7701
71.6983
71.4856
71.1163
70.5836
69.9057
69.1181
68.2463
67.3157
66.3497
65.3698
64.3945
63.44
62.5197
61.6379
69.0545
69.309
69.5385
69.7261
69.8562
69.9126
69.8821
69.7465
69.4909
69.1029
68.5736
67.9033
67.1189
66.2589
65.3478
64.4084
63.4617
62.5257
61.6156
60.7441
59.9212
59.1477
68.0907
68.2207
68.3152
68.3593
68.3431
68.2512
68.0707
67.7891
67.396
66.8839
66.2488
65.4966
64.6593
63.776
62.8688
61.9582
61.0617
60.1942
59.3677
58.5916
57.8732
57.2103
67.0765
67.0963
67.0758
67.0031
66.8675
66.6578
66.3637
65.9766
65.4896
64.899
64.2047
63.4164
62.5683
61.6984
60.8263
59.9693
59.1421
58.3564
57.6213
56.9435
56.3277
55.7699
66.0637
65.9936
65.88
65.7149
65.4891
65.1938
64.8215
64.3663
63.8243
63.1947
62.4798
61.6916
60.8648
60.0348
59.2185
58.4302
57.6818
56.9822
56.338
55.7537
55.232
54.7676
65.0966
64.9568
64.7738
64.5425
64.2554
63.9056
63.4878
62.9982
62.4352
61.7996
61.0955
60.3355
59.5533
58.7807
58.0321
57.3189
56.6505
56.0337
55.473
54.9712
54.5298
54.1428
28.2391
29.8465
31.4842
33.1283
34.7626
36.4666
38.444
40.8823
43.949
47.7745
52.4433
57.9743
64.3032
71.4836
79.5807
88.2508
97.146
106.244
115.111
120.62
122.824
122.333
119.904
112.647
98.637
83.3193
71.22
63.2401
58.7262
56.101
53.0873
47.5639
38.1467
26.1519
56.0588
84.1642
85.608
87.3315
89.3123
91.5122
93.8781
96.3494
98.8758
101.46
104.23
107.485
111.527
117.036
124.387
132.734
140.851
149.77
162.891
179.114
194.102
214.878
249.675
316.783
397.357
443.029
432.84
410.621
391.446
377.361
365.204
351.093
331.256
301.212
251.034
165.006
138.739
130.952
125.194
121.195
118.674
117.346
116.917
117.038
117.327
117.171
115.61
112.36
107.772
103.218
99.2296
96.4525
97.4557
101.866
112.182
134.977
186.275
296.194
461.028
645.313
797.902
859.242
838.084
774.097
694.624
612.097
530.209
451.451
374.03
285.096
150.648
145.474
143.33
141.434
140.063
139.474
139.845
141.479
144.283
145.988
138.49
119.082
96.9217
79.628
71.2021
69.3712
77.7416
95.8988
121.78
153.51
190.054
230.25
280.995
339.649
397.297
449.759
484.928
496.844
487.116
460.018
423.149
380.108
332.023
277.062
206.891
114.765
187.938
192.069
197.526
204.169
210.838
213.901
208.344
192.488
167.893
140.1
114.381
93.8879
78.2049
66.3285
57.5746
52.18
50.4075
53.2938
64.0318
84.344
116.503
161.08
214.86
260.885
291.187
303.471
300.781
281.772
257.532
232.063
205.616
177.356
145.634
106.186
51.1994
150.084
148.333
146.103
143.234
139.514
134.826
129.053
122.109
114.15
105.164
95.3447
84.883
73.7337
63.0846
54.7928
48.757
44.3102
41.7846
40.7479
40.5505
41.2353
43.1405
45.6997
49.7115
54.5637
60.0733
62.6471
62.9094
59.7979
54.6868
48.1368
40.3703
31.3868
20.6248
10.853
142.828
142.368
142.041
141.916
142.053
142.404
142.364
140.473
136.088
128.431
117.717
105.888
95.751
88.0114
81.5724
75.3193
69.2615
63.5535
58.1472
52.8574
47.7122
42.7168
38.484
35.0923
32.192
29.5712
27.088
24.6952
22.3681
20.1026
17.8767
15.6262
13.2101
10.324
7.85485
132.826
131.789
130.66
129.398
127.909
126.089
123.88
121.192
117.963
114.251
110.307
106.505
102.281
97.4771
92.0422
85.4977
78.6569
72.1515
66.1721
60.6487
55.4558
50.3708
45.6677
41.6931
38.2822
35.274
32.5548
30.0273
27.5973
25.1875
22.7051
20.0194
16.9133
12.8129
6.13145
128.986
127.878
126.745
125.581
124.365
123.05
121.559
119.775
117.669
115.251
112.396
108.899
104.589
99.2496
93.6212
87.9588
82.6646
77.552
72.4332
67.211
61.8976
56.4571
51.3002
46.8668
43.025
39.6347
36.577
33.756
31.0853
28.481
25.8475
23.0512
19.849
15.6675
10.0889
117.853
116.763
115.602
114.372
113.07
111.695
110.233
108.668
106.983
105.156
103.209
101.22
99.3354
97.4461
95.2571
92.3093
88.4414
83.5742
77.9747
71.9709
65.9584
59.9495
54.3072
49.4945
45.3447
41.6899
38.4052
35.3867
32.5422
29.7786
26.9908
24.0343
20.641
16.1181
7.88259
109.721
109.245
108.721
108.146
107.52
106.843
106.111
105.322
104.462
103.509
102.426
101.151
99.5596
97.4401
94.5727
91.0028
86.906
82.371
77.4182
72.1572
66.7206
61.0398
55.5189
50.6463
46.3592
42.5786
39.189
36.0841
33.1666
30.3393
27.4901
24.4856
21.0662
16.58
9.64473
100.373
100.291
100.248
100.249
100.294
100.388
100.52
100.673
100.818
100.91
100.882
100.637
99.9823
98.7201
96.6387
93.6432
89.6968
84.9146
79.5711
73.8814
68.0216
61.9452
56.0906
50.927
46.3889
42.4076
38.8696
35.6593
32.6719
29.8085
26.9602
23.9775
20.5937
16.1267
8.14522
99.8822
100.232
100.592
100.965
101.349
101.737
102.114
102.451
102.702
102.795
102.643
102.094
100.951
98.9955
96.0344
92.0535
87.3797
82.2642
76.8653
71.3051
65.6876
59.9201
54.4039
49.6015
45.3853
41.6382
38.2586
35.1567
32.2479
29.4451
26.6467
23.7096
20.3724
15.9794
8.7588
99.8533
100.363
100.934
101.552
102.18
102.746
103.209
103.528
103.649
103.511
103.013
102.022
100.4
97.9469
94.5142
90.2848
85.5902
80.5022
75.1266
69.6273
64.1015
58.461
53.0973
48.4365
44.3294
40.6422
37.3016
34.2427
31.3833
28.6348
25.8956
23.026
19.772
15.4811
7.89882
100.462
101.005
101.546
102.064
102.541
102.947
103.243
103.378
103.285
102.871
102.013
100.586
98.4463
95.4656
91.5717
86.9867
82.0263
76.8577
71.6291
66.4163
61.2657
56.0533
51.1035
46.7914
42.9837
39.5702
36.4594
33.5716
30.834
28.1718
25.4949
22.6719
19.4572
15.2189
8.05654
99.7506
100.194
100.613
100.987
101.29
101.485
101.522
101.343
100.867
100.005
98.6707
96.7731
94.2263
90.9639
86.9676
82.4715
77.7897
73.0305
68.2552
63.5049
58.8126
54.0505
49.5023
45.5108
41.9559
38.7395
35.7792
33.0022
30.3448
27.7509
25.1369
22.3746
19.2213
15.0446
7.70059
97.3279
97.5616
97.7474
97.8654
97.8883
97.783
97.5058
97.0078
96.2335
95.1239
93.601
91.5873
89.0128
85.8224
82.0132
77.8219
73.5242
69.1939
64.8931
60.656
56.4756
52.2109
48.0893
44.4212
41.1094
38.0764
35.2574
32.5947
30.0325
27.5081
24.9419
22.2118
19.0805
14.9257
7.74361
92.9295
92.9765
92.976
92.9092
92.7506
92.4693
92.0283
91.3841
90.4875
89.2842
87.7168
85.7289
83.2711
80.3078
76.8514
73.1244
69.3617
65.6163
61.9069
58.2281
54.5581
50.7573
47.0145
43.6255
40.5191
37.638
34.9327
32.357
29.8609
27.3856
24.8538
22.1501
19.0411
14.9015
7.6134
87.7588
87.6832
87.5576
87.3659
87.0867
86.6941
86.1576
85.4419
84.5077
83.3129
81.8147
79.9732
77.7554
75.14
72.1446
68.956
65.756
62.5869
59.4324
56.2673
53.0583
49.6671
46.2492
43.0909
40.1484
37.3862
34.768
32.2528
29.7961
27.3461
24.8316
22.1358
19.0257
14.8817
7.63151
82.3134
82.1553
81.9505
81.6848
81.3405
80.8964
80.3285
79.6092
78.709
77.5968
76.2424
74.6192
72.7069
70.4941
67.9984
65.3702
62.7427
60.1158
57.4661
54.7566
51.9421
48.8906
45.7345
42.7604
39.9501
37.2785
34.7176
32.2409
29.8127
27.3844
24.8858
22.2007
19.0962
14.9468
7.6058
77.0271
76.8231
76.5781
76.2802
75.9151
75.4669
74.9169
74.2452
73.4305
72.4516
71.2888
69.9256
68.3506
66.5571
64.5572
62.4591
60.3499
58.2057
55.9909
53.6617
51.1692
48.3892
45.4389
42.6081
39.8898
37.2776
34.7595
32.3121
29.9022
27.4835
24.9872
22.2979
19.1817
15.011
7.63898
72.1455
71.9257
71.6719
71.3744
71.0226
70.6047
70.1076
69.5173
68.8199
68.0021
67.0522
65.9613
64.7231
63.3321
61.7913
60.1678
58.5081
56.7747
54.9219
52.901
50.6639
48.0958
45.3058
42.5757
39.9261
37.3622
34.8758
32.4483
30.0498
27.6364
25.1408
22.4484
19.3243
15.1314
7.66131
67.8377
67.6227
67.3812
67.1053
66.7878
66.4208
65.9956
65.5039
64.9374
64.2893
63.5538
62.7269
61.8049
60.7808
59.6465
58.4316
57.149
55.7511
54.1875
52.4091
50.3705
47.9678
45.2933
42.6435
40.0479
37.5182
35.0522
32.6349
30.2391
27.8225
25.3187
22.613
19.4695
15.2455
7.70282
64.1688
63.9708
63.7534
63.5105
63.2379
62.9309
62.585
62.1961
61.7607
61.2767
60.7426
60.1574
59.5178
58.8136
58.0254
57.1501
56.1741
55.044
53.7078
52.118
50.2338
47.9537
45.3723
42.785
40.2301
37.7256
35.2736
32.8622
30.4662
28.0446
25.5319
22.813
19.6501
15.3921
7.74611
61.1413
60.9658
60.777
60.571
60.3457
60.0995
59.8311
59.5398
59.2262
58.8913
58.5368
58.1631
57.766
57.3313
56.829
56.2289
55.4973
54.5777
53.4186
51.9755
50.2097
48.0284
45.5214
42.9839
40.461
37.9754
35.5324
33.1227
30.7226
28.2922
25.7664
23.0299
19.8428
15.5458
7.79858
58.7185
58.5654
58.4043
58.233
58.0515
57.8606
57.6616
57.4567
57.2493
57.0431
56.8415
56.6454
56.4494
56.2349
55.963
55.582
55.0427
54.2876
53.2668
51.9385
50.2675
48.1664
45.7203
43.224
40.7274
38.2567
35.82
33.4097
31.0037
28.563
26.023
23.2677
20.055
15.7163
7.8531
56.8455
56.7107
56.5722
56.4293
56.2837
56.1383
55.9964
55.8626
55.7424
55.6414
55.5642
55.5118
55.477
55.4372
55.3471
55.1388
54.7505
54.1244
53.2127
51.9764
50.3833
48.3493
45.9555
43.4948
41.0209
38.5625
36.13
33.7173
31.3037
28.8509
26.2946
23.5184
20.2775
15.8941
7.91182
55.4612
55.3377
55.2138
55.0901
54.9698
54.8572
54.7576
54.6774
54.6237
54.6038
54.6222
54.6814
54.7721
54.8681
54.9169
54.8412
54.5751
54.0508
53.2268
52.0664
50.5391
48.5634
46.2158
43.7871
41.3334
38.8858
36.4562
34.0403
31.6181
29.1524
26.5789
23.7808
20.5108
16.0809
7.9719
54.5037
54.383
54.264
54.1488
54.0415
53.9478
53.8745
53.8296
53.8218
53.8575
53.9465
54.0882
54.2723
54.4709
54.6271
54.65
54.4789
54.041
53.2881
52.192
50.7222
48.7985
46.4931
44.0939
41.6589
39.2209
36.7935
34.3734
31.9419
29.4625
26.871
24.0499
20.7494
16.2715
8.03318
53.9104
53.7837
53.6599
53.5421
53.4355
53.347
53.2845
53.2574
53.2745
53.3458
53.481
53.679
53.9294
54.2028
54.4392
54.5407
54.4395
54.0732
53.3819
52.3418
50.9231
49.0469
46.7807
44.409
41.9914
39.5623
37.1365
34.7119
32.2708
29.7772
27.1672
24.3224
20.9904
16.463
8.09219
10.9498
21.8521
27.7272
31.979
35.5244
38.678
41.5732
44.2661
46.7706
49.0713
51.1302
52.8914
54.2883
55.2488
55.698
55.8069
55.7105
55.5137
55.302
55.1402
55.0735
55.1086
55.23
55.4074
55.617
55.8416
56.0696
56.2937
56.5095
56.7146
56.9081
57.0894
57.2588
57.4165
57.5628
11.0545
22.2365
28.209
32.5222
36.1146
39.3067
42.2329
44.9488
47.4661
49.7659
51.8046
53.5188
54.8322
55.6467
55.9203
55.8335
55.5129
55.0784
54.6257
54.2273
53.9338
53.7894
53.7693
53.8442
53.987
54.1749
54.3905
54.6212
54.8583
55.0955
55.3284
55.5541
55.7706
55.9766
56.1712
11.1359
22.5707
28.6312
33.0005
36.6365
39.8648
42.8211
45.5607
48.0935
50.3977
52.425
54.1056
55.3508
56.0455
56.1826
55.9246
55.4112
54.7703
54.1068
53.5015
53.0139
52.7
52.5661
52.5562
52.6458
52.8082
53.0207
53.2658
53.5302
53.8041
54.0799
54.3523
54.6174
54.8725
55.1155
11.1985
22.8601
28.9973
33.4156
37.0903
40.3514
43.336
46.099
48.6489
50.9613
52.9845
54.643