/*--------------------------------*- C++ -*----------------------------------*\
  =========                 |
  \\      /  F ield         | OpenFOAM: The Open Source CFD Toolbox
   \\    /   O peration     | Website:  https://openfoam.org
    \\  /    A nd           | Version:  8
     \\/     M anipulation  |
\*---------------------------------------------------------------------------*/
FoamFile
{
    version     2.0;
    format      ascii;
    class       surfaceScalarField;
    location    "0.48";
    object      phi;
}
// * * * * * * * * * * * * * * * * * * * * * * * * * * * * * * * * * * * * * //

dimensions      [1 0 -1 0 0 0 0];

internalField   nonuniform List<scalar> 
31053
(
-5.60366e-06
1.19369e-05
-6.07212e-06
7.98679e-06
-6.23063e-06
9.19651e-06
-6.64114e-06
1.11425e-05
-7.71656e-06
1.35323e-05
-9.38505e-06
1.59379e-05
-1.08465e-05
1.77028e-05
-1.03552e-05
1.79389e-05
-4.73422e-06
1.52713e-05
1.22233e-05
6.74726e-06
4.89133e-05
-9.67702e-06
0.000115388
-3.55065e-05
0.000212699
-6.16365e-05
0.000329481
-7.55413e-05
0.000426993
-5.75591e-05
0.000499803
-3.24106e-05
0.000541954
-1.56837e-06
0.000549804
3.27845e-05
0.000525295
6.50634e-05
0.000479455
8.61673e-05
0.000429159
9.03521e-05
0.000385777
8.00061e-05
0.000349003
6.98556e-05
0.000317991
6.09897e-05
0.000291634
5.35962e-05
0.000268891
4.7537e-05
0.000249062
4.24236e-05
0.000231671
3.79916e-05
0.000216358
3.40967e-05
0.000202816
3.0659e-05
0.000190813
2.75971e-05
0.000180203
2.48203e-05
0.000170926
2.22424e-05
0.000162988
1.97893e-05
1.76869e-05
0.000155946
-7.08813e-05
8.28414e-05
-0.000159364
9.64982e-05
-0.000257617
0.000107486
-0.000363412
0.000116982
-0.000474348
0.000124522
-0.00058718
0.000128835
-0.000697231
0.000127827
-0.000797548
0.000118334
-0.000877837
9.56408e-05
-0.000924083
5.30714e-05
-0.00092227
-1.1428e-05
-0.000852415
-0.000105299
-0.000720607
-0.000193377
-0.000535501
-0.000260566
-0.000354796
-0.000238197
-0.000184481
-0.000202662
-3.78242e-05
-0.000148129
8.50378e-05
-8.99263e-05
0.000185884
-3.55936e-05
0.000265864
6.39161e-06
0.000332178
2.42368e-05
0.000383622
2.87379e-05
0.000424797
2.88375e-05
0.000457969
2.79547e-05
0.000484494
2.71852e-05
0.000505348
2.67774e-05
0.000521173
2.66755e-05
0.000532513
2.67128e-05
0.000539902
2.67561e-05
0.000544036
2.65627e-05
0.00054562
2.60418e-05
0.000545317
2.51457e-05
0.000543654
2.39239e-05
0.000541017
2.24429e-05
2.03803e-05
0.000538337
4.55996e-07
8.24119e-05
6.29938e-06
9.06812e-05
1.58495e-05
9.79639e-05
2.75265e-05
0.000105335
4.01691e-05
0.000111913
5.26644e-05
0.000116377
6.36047e-05
0.000116927
7.08874e-05
0.000111095
7.10164e-05
9.55578e-05
5.73329e-05
6.67944e-05
2.4119e-05
2.18211e-05
-6.83149e-05
-1.29339e-05
-0.000219839
-4.2716e-05
-0.00042265
-5.74884e-05
-0.000610242
-5.19677e-05
-0.00077246
-4.05354e-05
-0.00088845
-3.20879e-05
-0.000942434
-3.58871e-05
-0.000922673
-5.52989e-05
-0.000836405
-7.98094e-05
-0.000710491
-0.000101568
-0.000576277
-0.000105353
-0.000448866
-9.84518e-05
-0.000333289
-8.75161e-05
-0.000230595
-7.54262e-05
-0.000139897
-6.38613e-05
-5.97811e-05
-5.34021e-05
1.12805e-05
-4.43273e-05
7.46255e-05
-3.65824e-05
0.000131237
-3.00521e-05
0.000181863
-2.45927e-05
0.000227113
-2.01214e-05
0.000267538
-1.65195e-05
0.000303638
-1.36739e-05
-1.11553e-05
0.000335159
4.35005e-05
3.88896e-05
8.63143e-05
4.78429e-05
0.000130955
5.32962e-05
0.000179068
5.71908e-05
0.000231332
5.96136e-05
0.000287464
6.02017e-05
0.000346174
5.81671e-05
0.000404548
5.26618e-05
0.000456994
4.30408e-05
0.000493623
3.00828e-05
0.000496693
1.86515e-05
0.000474151
9.57581e-06
0.000434746
-2.56019e-06
0.000387287
-1.04023e-05
0.000340098
-3.49803e-06
0.00029604
3.50673e-06
0.00026428
-5.1668e-07
0.000252821
-2.46586e-05
0.000265188
-6.7893e-05
0.000298591
-0.000113422
0.00034742
-0.000150586
0.00039829
-0.00015638
0.000445902
-0.000146199
0.000489266
-0.000130997
0.000528568
-0.000114835
0.000564533
-9.99275e-05
0.000597553
-8.6519e-05
0.000627705
-7.45781e-05
0.000654934
-6.39105e-05
0.00067912
-5.4338e-05
0.000700292
-4.58614e-05
0.000718571
-3.84883e-05
0.000734132
-3.21641e-05
0.000747201
-2.68197e-05
-2.25915e-05
0.000758564
2.64451e-05
1.24445e-05
5.84995e-05
1.57875e-05
9.36698e-05
1.81238e-05
0.000129998
2.08594e-05
0.000166362
2.32475e-05
0.000202087
2.44754e-05
0.000236078
2.41743e-05
0.000267478
2.12594e-05
0.000296237
1.42805e-05
0.000323025
3.29381e-06
0.000350817
-9.14063e-06
0.000381916
-2.1509e-05
0.000414929
-3.55601e-05
0.000452353
-4.78121e-05
0.000494287
-4.54303e-05
0.000540459
-4.26773e-05
0.000584061
-4.41269e-05
0.000608428
-4.90294e-05
0.000597052
-5.65388e-05
0.000550494
-6.6887e-05
0.000478336
-7.84504e-05
0.000402551
-8.0617e-05
0.000334401
-7.80745e-05
0.000276242
-7.28686e-05
0.000227123
-6.57519e-05
0.000184989
-5.78343e-05
0.000148274
-4.98481e-05
0.00011591
-4.22594e-05
8.74071e-05
-3.54532e-05
6.26542e-05
-2.96281e-05
4.15716e-05
-2.48227e-05
2.40081e-05
-2.09641e-05
9.64846e-06
-1.78477e-05
-1.92016e-06
-1.52958e-05
-1.29398e-05
-1.16198e-05
3.88602e-05
-2.64256e-05
8.28953e-05
-2.82583e-05
0.000129869
-2.88613e-05
0.000179399
-2.86849e-05
0.000231074
-2.84415e-05
0.000284331
-2.87965e-05
0.000338478
-2.99884e-05
0.000392043
-3.23224e-05
0.000441687
-3.53794e-05
0.000483142
-3.81754e-05
0.000514862
-4.08695e-05
0.000536062
-4.27059e-05
0.000544018
-4.34944e-05
0.000537075
-4.08209e-05
0.000520141
-2.84248e-05
0.00049656
-1.90016e-05
0.000467531
-1.5001e-05
0.000435989
-1.73874e-05
0.000404099
-2.45416e-05
0.000373028
-3.56961e-05
0.000343962
-4.92445e-05
0.000319444
-5.59562e-05
0.000298692
-5.71787e-05
0.00028042
-5.44613e-05
0.000263444
-4.86521e-05
0.000246636
-4.09081e-05
0.000229083
-3.21783e-05
0.000210239
-2.33011e-05
0.000189856
-1.49607e-05
0.000168011
-7.67946e-06
0.000144796
-1.51187e-06
0.000121542
2.37793e-06
9.86472e-05
5.11967e-06
7.62192e-05
7.19155e-06
8.37525e-06
5.49553e-05
-2.82575e-05
1.83912e-06
-5.81084e-05
1.60002e-06
-8.7873e-05
9.11753e-07
-0.000115723
-8.25699e-07
-0.000139998
-4.15449e-06
-0.000158746
-1.00347e-05
-0.000169808
-1.89116e-05
-0.000172434
-2.96779e-05
-0.000167179
-4.0613e-05
-0.000154581
-5.07484e-05
-0.00013507
-6.03503e-05
-0.000108277
-6.94632e-05
-7.45552e-05
-7.71758e-05
-3.2497e-05
-8.28293e-05
1.14574e-05
-7.23285e-05
5.85263e-05
-6.6024e-05
0.000104191
-6.06332e-05
0.00014264
-5.5815e-05
0.000168289
-5.01842e-05
0.000176668
-4.40764e-05
0.000165306
-3.78869e-05
0.000138441
-2.90959e-05
0.00010276
-2.15002e-05
6.40058e-05
-1.57054e-05
2.64585e-05
-1.1095e-05
-6.99224e-06
-7.44341e-06
-3.49417e-05
-4.21549e-06
-5.72228e-05
-1.00437e-06
-7.39476e-05
1.78339e-06
-8.6121e-05
4.51307e-06
-9.44507e-05
6.83507e-06
-0.000100482
8.42412e-06
-0.000104826
9.47767e-06
-0.000107696
1.00747e-05
1.04388e-05
-0.000109748
-1.39324e-05
1.57701e-05
-2.67492e-05
1.44156e-05
-3.72315e-05
1.13932e-05
-4.41972e-05
6.13943e-06
-4.62081e-05
-2.14453e-06
-4.08514e-05
-1.53924e-05
-3.05064e-05
-2.92582e-05
-1.70665e-05
-4.31205e-05
-2.07627e-06
-5.56068e-05
1.34441e-05
-6.62727e-05
2.86441e-05
-7.55535e-05
4.29192e-05
-8.37383e-05
5.60337e-05
-9.02843e-05
6.76328e-05
-9.44153e-05
7.53198e-05
-7.99942e-05
8.04403e-05
-7.11155e-05
8.30429e-05
-6.31987e-05
8.25833e-05
-5.53105e-05
7.90413e-05
-4.6588e-05
7.21937e-05
-3.71655e-05
6.08118e-05
-2.64327e-05
4.45942e-05
-1.28074e-05
2.40722e-05
-9.07054e-07
1.7847e-06
6.65225e-06
-2.12464e-05
1.20017e-05
-4.47289e-05
1.6101e-05
-6.76793e-05
1.87957e-05
-8.89425e-05
2.03154e-05
-0.000108047
2.09407e-05
-0.000124474
2.09913e-05
-0.000138292
2.07023e-05
-0.000150028
2.02057e-05
-0.000160061
1.95523e-05
-0.000168711
1.87635e-05
1.77547e-05
-0.000175991
1.60819e-05
-3.02491e-07
3.393e-05
-3.423e-06
5.29399e-05
-7.60682e-06
7.23726e-05
-1.32829e-05
9.08247e-05
-2.05855e-05
0.000103463
-2.80187e-05
0.000109431
-3.52127e-05
0.000108522
-4.21953e-05
0.000102118
-4.91855e-05
9.22358e-05
-5.63698e-05
8.02138e-05
-6.3508e-05
6.68361e-05
-7.03339e-05
5.31186e-05
-7.65377e-05
4.01112e-05
-8.13762e-05
3.03564e-05
-7.0212e-05
2.20611e-05
-6.27962e-05
1.37604e-05
-5.48783e-05
4.88103e-06
-4.64156e-05
-4.2972e-06
-3.73982e-05
-1.35763e-05
-2.78782e-05
-2.19313e-05
-1.80727e-05
-2.63876e-05
-8.34694e-06
-2.68253e-05
-4.69823e-07
-2.77334e-05
7.55474e-06
-2.94264e-05
1.36902e-05
-3.09561e-05
1.76263e-05
-3.21804e-05
2.00149e-05
-3.31527e-05
2.12821e-05
-3.39678e-05
2.17494e-05
-3.4635e-05
2.16519e-05
-3.5103e-05
2.11646e-05
-3.53153e-05
2.04124e-05
-3.52478e-05
1.94808e-05
-3.49223e-05
1.84352e-05
1.74175e-05
-3.45868e-05
1.26703e-05
-1.29741e-05
2.53687e-05
-1.61228e-05
3.67955e-05
-1.9035e-05
4.5733e-05
-2.22219e-05
5.0998e-05
-2.58522e-05
5.30201e-05
-3.00427e-05
5.26613e-05
-3.48561e-05
5.07729e-05
-4.03094e-05
4.80028e-05
-4.64182e-05
4.47617e-05
-5.31316e-05
4.15378e-05
-6.02871e-05
3.87255e-05
-6.75239e-05
3.64313e-05
-7.42449e-05
3.45666e-05
-7.95113e-05
3.27972e-05
-6.84395e-05
3.0914e-05
-6.09065e-05
2.86363e-05
-5.25908e-05
2.5651e-05
-4.34172e-05
2.15973e-05
-3.33279e-05
1.60086e-05
-2.22687e-05
7.71613e-06
-9.7554e-06
-3.54565e-06
2.93883e-06
-1.40088e-05
1.00183e-05
-2.19455e-05
1.55189e-05
-2.77432e-05
1.95123e-05
-3.23507e-05
2.22555e-05
-3.62784e-05
2.39627e-05
-3.98123e-05
2.48343e-05
-4.30993e-05
2.50531e-05
-4.62077e-05
2.47751e-05
-4.9158e-05
2.4129e-05
-5.19517e-05
2.32183e-05
-5.45826e-05
2.2124e-05
-5.70465e-05
2.09109e-05
1.95811e-05
-5.9198e-05
2.57213e-06
-1.55442e-05
5.58315e-06
-1.91317e-05
8.87886e-06
-2.23283e-05
1.23983e-05
-2.57387e-05
1.60225e-05
-2.94734e-05
1.95693e-05
-3.3586e-05
2.28255e-05
-3.81083e-05
2.55717e-05
-4.30509e-05
2.7556e-05
-4.83971e-05
2.85183e-05
-5.40878e-05
2.82184e-05
-5.99803e-05
2.65087e-05
-6.58066e-05
2.3293e-05
-7.1021e-05
1.85248e-05
-7.47351e-05
1.36465e-05
-6.3556e-05
8.71086e-06
-5.59685e-05
4.01694e-06
-4.78974e-05
-1.88208e-07
-3.92133e-05
-3.52862e-06
-2.99982e-05
-5.42086e-06
-2.03875e-05
-4.61707e-06
-1.05703e-05
-3.83442e-07
-1.30829e-06
1.50717e-06
8.11083e-06
2.42314e-06
1.45854e-05
3.00549e-06
1.8915e-05
3.5856e-06
2.16613e-05
4.31464e-06
2.32195e-05
5.24385e-06
2.38912e-05
6.37452e-06
2.39089e-05
7.6824e-06
2.34539e-05
9.13138e-06
2.26675e-05
1.06794e-05
2.16577e-05
1.22859e-05
2.05068e-05
1.39097e-05
1.92781e-05
1.80581e-05
1.54253e-05
9.67788e-07
-1.65132e-05
1.83802e-06
-2.00032e-05
2.60822e-06
-2.30999e-05
3.32471e-06
-2.64567e-05
4.04121e-06
-3.01915e-05
4.79403e-06
-3.43407e-05
5.5986e-06
-3.8915e-05
6.45827e-06
-4.39129e-05
7.36477e-06
-4.93062e-05
8.29155e-06
-5.50174e-05
9.21614e-06
-6.09077e-05
1.01188e-05
-6.6712e-05
1.09349e-05
-7.18399e-05
1.15427e-05
-7.53458e-05
1.16021e-05
-6.36181e-05
1.12493e-05
-5.56181e-05
1.05531e-05
-4.72029e-05
9.62616e-06
-3.82875e-05
8.52172e-06
-2.88947e-05
7.10223e-06
-1.89689e-05
4.81759e-06
-8.28634e-06
1.03266e-06
2.47625e-06
-1.97229e-07
9.33099e-06
-2.93361e-07
1.46873e-05
1.18385e-07
1.85041e-05
7.50662e-07
2.10287e-05
1.44312e-06
2.25257e-05
2.10749e-06
2.32247e-05
2.69903e-06
2.33145e-05
3.20089e-06
2.29485e-05
3.61456e-06
2.22502e-05
3.94964e-06
2.13187e-05
4.22151e-06
2.02321e-05
4.44663e-06
1.90508e-05
1.78007e-05
4.70301e-06
6.5159e-07
-1.71657e-05
1.4149e-06
-2.07675e-05
2.34655e-06
-2.40327e-05
3.39625e-06
-2.75076e-05
4.50009e-06
-3.12968e-05
5.60432e-06
-3.54466e-05
6.66002e-06
-3.99725e-05
7.60851e-06
-4.48635e-05
8.3739e-06
-5.0074e-05
8.86072e-06
-5.5507e-05
8.95935e-06
-6.10096e-05
8.55997e-06
-6.63165e-05
7.59808e-06
-7.08825e-05
6.09571e-06
-7.38491e-05
4.66333e-06
-6.21916e-05
3.20276e-06
-5.41642e-05
1.73145e-06
-4.57395e-05
4.65732e-07
-3.70304e-05
-3.15936e-07
-2.81215e-05
-3.34132e-07
-1.89588e-05
9.61826e-07
-9.6001e-06
4.06678e-06
-6.4571e-07
5.67469e-06
7.70839e-06
7.09149e-06
1.32567e-05
8.55965e-06
1.70224e-05
1.01275e-05
1.94478e-05
1.17927e-05
2.08476e-05
1.35361e-05
2.1469e-05
1.53302e-05
2.15085e-05
1.71451e-05
2.11222e-05
1.89523e-05
2.04326e-05
2.07257e-05
1.95352e-05
2.24452e-05
1.85038e-05
2.40938e-05
1.7395e-05
1.62659e-05
2.56234e-05
1.9837e-07
-1.73652e-05
3.28019e-07
-2.08985e-05
3.90625e-07
-2.40969e-05
4.18592e-07
-2.75374e-05
4.33598e-07
-3.13139e-05
4.4643e-07
-3.54618e-05
4.65353e-07
-3.99941e-05
5.00585e-07
-4.49018e-05
5.6146e-07
-5.01384e-05
6.55257e-07
-5.56047e-05
7.58355e-07
-6.11173e-05
8.20741e-07
-6.63841e-05
8.52732e-07
-7.09205e-05
8.689e-07
-7.38722e-05
7.44491e-07
-6.20738e-05
5.67483e-07
-5.3994e-05
4.05267e-07
-4.55841e-05
2.65664e-07
-3.68979e-05
1.38452e-07
-2.80025e-05
3.22887e-08
-1.88553e-05
-2.04559e-07
-9.3724e-06
-1.3746e-06
5.06198e-07
-7.98616e-07
7.12e-06
2.36008e-07
1.22107e-05
1.46894e-06
1.57789e-05
2.77969e-06
1.81271e-05
4.09644e-06
1.95215e-05
5.37478e-06
2.01819e-05
6.58851e-06
2.02867e-05
7.72391e-06
1.99792e-05
8.77555e-06
1.9374e-05
9.74296e-06
1.85614e-05
1.06288e-05
1.76123e-05
1.14371e-05
1.65816e-05
1.55026e-05
1.21958e-05
1.37297e-07
-1.75039e-05
2.99983e-07
-2.10628e-05
5.09723e-07
-2.43084e-05
7.49317e-07
-2.7779e-05
1.00213e-06
-3.1569e-05
1.2469e-06
-3.57092e-05
1.45578e-06
-4.0206e-05
1.5927e-06
-4.50422e-05
1.61671e-06
-5.01664e-05
1.48232e-06
-5.5475e-05
1.13892e-06
-6.07793e-05
5.06201e-07
-6.57576e-05
-4.92656e-07
-6.99289e-05
-1.79347e-06
-7.25799e-05
-2.97366e-06
-6.09021e-05
-4.09058e-06
-5.28862e-05
-5.08485e-06
-4.45997e-05
-5.92376e-06
-3.60692e-05
-6.61561e-06
-2.73215e-05
-7.11362e-06
-1.83691e-05
-7.27413e-06
-9.22492e-06
-6.24202e-06
-5.39858e-07
-5.7665e-06
6.6327e-06
-5.16825e-06
1.16012e-05
-4.42224e-06
1.50223e-05
-3.55097e-06
1.72459e-05
-2.58577e-06
1.85471e-05
-1.55829e-06
1.9146e-05
-4.97788e-07
1.92184e-05
5.70314e-07
1.89042e-05
1.62461e-06
1.83134e-05
2.64825e-06
1.75321e-05
3.62809e-06
1.66271e-05
4.55511e-06
1.56497e-05
1.46428e-05
5.41008e-06
-5.52465e-08
-1.74498e-05
-1.85091e-07
-2.09342e-05
-3.82551e-07
-2.41124e-05
-6.39889e-07
-2.75234e-05
-9.5207e-07
-3.12587e-05
-1.30815e-06
-3.53553e-05
-1.69926e-06
-3.98174e-05
-2.12265e-06
-4.46217e-05
-2.5845e-06
-4.97079e-05
-3.09995e-06
-5.49634e-05
-3.68836e-06
-6.01954e-05
-4.37665e-06
-6.50746e-05
-5.20074e-06
-6.91111e-05
-6.17321e-06
-7.16148e-05
-7.14288e-06
-5.99397e-05
-8.14529e-06
-5.18912e-05
-9.15892e-06
-4.35938e-05
-1.01627e-05
-3.50736e-05
-1.11383e-05
-2.63545e-05
-1.2065e-05
-1.74516e-05
-1.29374e-05
-8.36256e-06
-1.40704e-05
5.84035e-07
-1.4501e-05
7.05382e-06
-1.46908e-05
1.17821e-05
-1.47171e-05
1.50403e-05
-1.46288e-05
1.71499e-05
-1.44621e-05
1.83734e-05
-1.42448e-05
1.89223e-05
-1.39973e-05
1.89652e-05
-1.37342e-05
1.8636e-05
-1.34656e-05
1.80402e-05
-1.3198e-05
1.72604e-05
-1.29358e-05
1.6361e-05
-1.26811e-05
1.53911e-05
1.43855e-05
-1.24276e-05
-1.23181e-07
-1.73277e-05
-2.75836e-07
-2.07828e-05
-4.45988e-07
-2.39437e-05
-6.42673e-07
-2.73284e-05
-8.8258e-07
-3.10207e-05
-1.1841e-06
-3.5056e-05
-1.56692e-06
-3.94372e-05
-2.05317e-06
-4.41384e-05
-2.66842e-06
-4.90961e-05
-3.44372e-06
-5.4192e-05
-4.41435e-06
-5.92293e-05
-5.60481e-06
-6.38895e-05
-7.0351e-06
-6.76869e-05
-8.73624e-06
-6.9921e-05
-1.03662e-05
-5.83168e-05
-1.20133e-05
-5.02514e-05
-1.36727e-05
-4.19421e-05
-1.53339e-05
-3.34204e-05
-1.69827e-05
-2.47141e-05
-1.85949e-05
-1.58482e-05
-2.01183e-05
-6.8485e-06
-2.12381e-05
1.69541e-06
-2.2317e-05
8.12457e-06
-2.32083e-05
1.26661e-05
-2.3922e-05
1.57472e-05
-2.44772e-05
1.76989e-05
-2.48957e-05
1.87864e-05
-2.51993e-05
1.92209e-05
-2.54083e-05
1.91699e-05
-2.55413e-05
1.87652e-05
-2.56149e-05
1.81102e-05
-2.56428e-05
1.72853e-05
-2.56372e-05
1.63523e-05
-2.56076e-05
1.53585e-05
1.4341e-05
-2.55663e-05
-2.36585e-07
-1.7092e-05
-5.51078e-07
-2.04694e-05
-9.39191e-07
-2.35568e-05
-1.41757e-06
-2.68514e-05
-1.97805e-06
-3.04619e-05
-2.61905e-06
-3.44168e-05
-3.34362e-06
-3.87147e-05
-4.1588e-06
-4.33257e-05
-5.07655e-06
-4.81811e-05
-6.11524e-06
-5.31566e-05
-7.30161e-06
-5.80467e-05
-8.66603e-06
-6.25295e-05
-1.02435e-05
-6.61147e-05
-1.20873e-05
-6.80832e-05
-1.38944e-05
-5.65156e-05
-1.57585e-05
-4.83934e-05
-1.76791e-05
-4.00278e-05
-1.96545e-05
-3.14515e-05
-2.16798e-05
-2.26955e-05
-2.37472e-05
-1.37878e-05
-2.58517e-05
-4.75124e-06
-2.78091e-05
3.64604e-06
-2.9519e-05
9.82829e-06
-3.10218e-05
1.41632e-05
-3.23383e-05
1.70586e-05
-3.34887e-05
1.88446e-05
-3.44919e-05
1.97855e-05
-3.5366e-05
2.00913e-05
-3.6127e-05
1.99276e-05
-3.67892e-05
1.94247e-05
-3.73657e-05
1.86841e-05
-3.7867e-05
1.77845e-05
-3.83033e-05
1.67863e-05
-3.86826e-05
1.57355e-05
1.46656e-05
-3.90097e-05
-2.96042e-07
-1.67968e-05
-6.63092e-07
-2.01033e-05
-1.10096e-06
-2.31201e-05
-1.61169e-06
-2.6342e-05
-2.20407e-06
-2.9871e-05
-2.89288e-06
-3.37298e-05
-3.69453e-06
-3.79151e-05
-4.62749e-06
-4.23951e-05
-5.71251e-06
-4.70988e-05
-6.97322e-06
-5.18991e-05
-8.43733e-06
-5.65863e-05
-1.01379e-05
-6.08332e-05
-1.2113e-05
-6.41445e-05
-1.4411e-05
-6.57909e-05
-1.66207e-05
-5.43116e-05
-1.88718e-05
-4.61479e-05
-2.11744e-05
-3.7731e-05
-2.3535e-05
-2.90969e-05
-2.59563e-05
-2.02803e-05
-2.84363e-05
-1.13139e-05
-3.09634e-05
-2.2303e-06
-3.33048e-05
5.98181e-06
-3.54348e-05
1.19533e-05
-3.73563e-05
1.60801e-05
-3.90775e-05
1.87759e-05
-4.06105e-05
2.03741e-05
-4.19692e-05
2.11411e-05
-4.31689e-05
2.12883e-05
-4.42252e-05
2.09816e-05
-4.51534e-05
2.03509e-05
-4.59681e-05
1.9497e-05
-4.66828e-05
1.84977e-05
-4.73101e-05
1.7412e-05
-4.7861e-05
1.62848e-05
1.51493e-05
-4.83465e-05
-3.73255e-07
-1.64244e-05
-8.70323e-07
-1.96072e-05
-1.45568e-06
-2.25357e-05
-2.12223e-06
-2.56767e-05
-2.88235e-06
-2.91123e-05
-3.74856e-06
-3.28652e-05
-4.73486e-06
-3.69307e-05
-5.85713e-06
-4.1275e-05
-7.13382e-06
-4.58246e-05
-8.58683e-06
-5.04489e-05
-1.02427e-05
-5.49338e-05
-1.21342e-05
-5.89455e-05
-1.43034e-05
-6.19798e-05
-1.68061e-05
-6.32934e-05
-1.92123e-05
-5.19104e-05
-2.16624e-05
-4.3703e-05
-2.41675e-05
-3.5231e-05
-2.67378e-05
-2.65318e-05
-2.93808e-05
-1.76425e-05
-3.21007e-05
-8.59925e-06
-3.49014e-05
5.65253e-07
-3.75166e-05
8.59223e-06
-3.99078e-05
1.43404e-05
-4.20822e-05
1.82508e-05
-4.40493e-05
2.07398e-05
-4.58211e-05
2.21432e-05
-4.74112e-05
2.27288e-05
-4.88337e-05
2.27087e-05
-5.01032e-05
2.22493e-05
-5.1234e-05
2.14801e-05
-5.22397e-05
2.05014e-05
-5.3133e-05
1.93898e-05
-5.39261e-05
1.82039e-05
-5.46296e-05
1.69871e-05
1.5771e-05
-5.52525e-05
-4.1151e-07
-1.60136e-05
-9.27033e-07
-1.90926e-05
-1.53493e-06
-2.19289e-05
-2.24295e-06
-2.49699e-05
-3.06336e-06
-2.82933e-05
-4.01051e-06
-3.19197e-05
-5.10076e-06
-3.58423e-05
-6.35236e-06
-4.00255e-05
-7.78552e-06
-4.4394e-05
-9.42277e-06
-4.88145e-05
-1.12897e-05
-5.30702e-05
-1.34167e-05
-5.68223e-05
-1.58417e-05
-5.95592e-05
-1.86145e-05
-6.05257e-05
-2.12476e-05
-4.92821e-05
-2.39005e-05
-4.1055e-05
-2.65887e-05
-3.25477e-05
-2.93257e-05
-2.37998e-05
-3.21224e-05
-1.48508e-05
-3.4986e-05
-5.74052e-06
-3.79172e-05
3.49158e-06
-4.06556e-05
1.13264e-05
-4.31596e-05
1.68407e-05
-4.54372e-05
2.05252e-05
-4.74983e-05
2.27981e-05
-4.93546e-05
2.39971e-05
-5.10197e-05
2.43918e-05
-5.25081e-05
2.41953e-05
-5.38348e-05
2.35744e-05
-5.50146e-05
2.26587e-05
-5.60623e-05
2.15479e-05
-5.69915e-05
2.03181e-05
-5.78152e-05
1.90265e-05
-5.8545e-05
1.7716e-05
1.64171e-05
-5.91919e-05
-4.64537e-07
-1.55499e-05
-1.05236e-06
-1.85056e-05
-1.74454e-06
-2.12377e-05
-2.54616e-06
-2.41694e-05
-3.46814e-06
-2.73727e-05
-4.52425e-06
-3.08651e-05
-5.7305e-06
-3.46378e-05
-7.10497e-06
-3.86531e-05
-8.66794e-06
-4.28334e-05
-1.04421e-05
-4.70431e-05
-1.24533e-05
-5.10622e-05
-1.47315e-05
-5.45478e-05
-1.73131e-05
-5.69819e-05
-2.02454e-05
-5.75984e-05
-2.30129e-05
-4.65193e-05
-2.57822e-05
-3.82904e-05
-2.85682e-05
-2.97665e-05
-3.13842e-05
-2.09885e-05
-3.42413e-05
-1.19985e-05
-3.7147e-05
-2.83944e-06
-4.01045e-05
6.44452e-06
-4.28486e-05
1.40666e-05
-4.53452e-05
1.93338e-05
-4.76065e-05
2.27836e-05
-4.96458e-05
2.48349e-05
-5.14774e-05
2.58265e-05
-5.31164e-05
2.60289e-05
-5.45784e-05
2.56557e-05
-5.58793e-05
2.48739e-05
-5.70344e-05
2.38126e-05
-5.80585e-05
2.25709e-05
-5.89653e-05
2.1224e-05
-5.97678e-05
1.98281e-05
-6.04775e-05
1.84249e-05
1.70438e-05
-6.11048e-05
-5.00201e-07
-1.50504e-05
-1.12409e-06
-1.78826e-05
-1.85644e-06
-2.05064e-05
-2.70506e-06
-2.33219e-05
-3.68313e-06
-2.63959e-05
-4.80643e-06
-2.97433e-05
-6.09271e-06
-3.33533e-05
-7.56139e-06
-3.71865e-05
-9.23351e-06
-4.11636e-05
-1.11317e-05
-4.51476e-05
-1.32805e-05
-4.89165e-05
-1.57072e-05
-5.21248e-05
-1.84435e-05
-5.42498e-05
-2.15292e-05
-5.45175e-05
-2.44154e-05
-4.36379e-05
-2.72771e-05
-3.54334e-05
-3.01291e-05
-2.69193e-05
-3.29842e-05
-1.81381e-05
-3.5853e-05
-9.13432e-06
-3.87422e-05
4.51899e-08
-4.16547e-05
9.35263e-06
-4.43324e-05
1.67403e-05
-4.67475e-05
2.17456e-05
-4.89174e-05
2.49506e-05
-5.0859e-05
2.67741e-05
-5.25898e-05
2.75551e-05
-5.41272e-05
2.75645e-05
-5.54887e-05
2.70157e-05
-5.66915e-05
2.60752e-05
-5.7752e-05
2.48718e-05
-5.86856e-05
2.35034e-05
-5.95068e-05
2.20442e-05
-6.02287e-05
2.05491e-05
-6.08631e-05
1.90586e-05
1.76009e-05
-6.14207e-05
-5.36734e-07
-1.45144e-05
-1.20523e-06
-1.72149e-05
-1.98854e-06
-1.9724e-05
-2.89409e-06
-2.24175e-05
-3.9349e-06
-2.53564e-05
-5.12679e-06
-2.85529e-05
-6.48768e-06
-3.19941e-05
-8.03726e-06
-3.56388e-05
-9.79683e-06
-3.94063e-05
-1.17891e-05
-4.31579e-05
-1.40384e-05
-4.66703e-05
-1.65704e-05
-4.95963e-05
-1.94141e-05
-5.14103e-05
-2.26034e-05
-5.13329e-05
-2.55667e-05
-4.06793e-05
-2.84825e-05
-3.25222e-05
-3.13635e-05
-2.4043e-05
-3.42208e-05
-1.52853e-05
-3.70633e-05
-6.29648e-06
-3.9896e-05
2.87339e-06
-4.27189e-05
1.21712e-05
-4.52843e-05
1.93018e-05
-4.75722e-05
2.40302e-05
-4.96056e-05
2.69811e-05
-5.1406e-05
2.8572e-05
-5.29943e-05
2.91413e-05
-5.4391e-05
2.89593e-05
-5.56156e-05
2.82387e-05
-5.66868e-05
2.7145e-05
-5.76222e-05
2.58058e-05
-5.84378e-05
2.43178e-05
-5.91483e-05
2.27536e-05
-5.97669e-05
2.11669e-05
-6.03055e-05
1.95965e-05
1.80694e-05
-6.07744e-05
-5.64441e-07
-1.39507e-05
-1.26196e-06
-1.65182e-05
-2.0776e-06
-1.89093e-05
-3.02e-06
-2.14762e-05
-4.10322e-06
-2.42744e-05
-5.34399e-06
-2.73135e-05
-6.76099e-06
-3.05788e-05
-8.3745e-06
-3.40272e-05
-1.0206e-05
-3.7577e-05
-1.22781e-05
-4.10885e-05
-1.46138e-05
-4.43376e-05
-1.72368e-05
-4.69768e-05
-2.0172e-05
-4.84791e-05
-2.34472e-05
-4.80625e-05
-2.647e-05
-3.76609e-05
-2.94222e-05
-2.95745e-05
-3.23146e-05
-2.11551e-05
-3.51566e-05
-1.24479e-05
-3.79549e-05
-3.50275e-06
-4.07124e-05
5.62643e-06
-4.34273e-05
1.48818e-05
-4.58628e-05
2.17335e-05
-4.80069e-05
2.6171e-05
-4.98878e-05
2.88591e-05
-5.15315e-05
3.02132e-05
-5.29624e-05
3.05701e-05
-5.42037e-05
3.01988e-05
-5.52772e-05
2.93105e-05
-5.62032e-05
2.80696e-05
-5.70003e-05
2.66016e-05
-5.76852e-05
2.50016e-05
-5.82732e-05
2.33406e-05
-5.87775e-05
2.16704e-05
-5.921e-05
2.00284e-05
1.844e-05
-5.95811e-05
-5.89487e-07
-1.33618e-05
-1.31495e-06
-1.57935e-05
-2.16162e-06
-1.80635e-05
-3.13833e-06
-2.05005e-05
-4.25935e-06
-2.31545e-05
-5.54165e-06
-2.60326e-05
-7.0042e-06
-2.91178e-05
-8.66756e-06
-3.23657e-05
-1.05535e-05
-3.56932e-05
-1.26845e-05
-3.896e-05
-1.50831e-05
-4.19418e-05
-1.77718e-05
-4.42914e-05
-2.07725e-05
-4.54824e-05
-2.41073e-05
-4.47322e-05
-2.71693e-05
-3.46033e-05
-3.01414e-05
-2.66068e-05
-3.3032e-05
-1.8269e-05
-3.58482e-05
-9.63611e-06
-3.85946e-05
-7.60758e-07
-4.12719e-05
8.2994e-06
-4.38759e-05
1.74815e-05
-4.6181e-05
2.40348e-05
-4.81825e-05
2.81691e-05
-4.99132e-05
3.0587e-05
-5.14033e-05
3.17009e-05
-5.26806e-05
3.18453e-05
-5.37708e-05
3.12871e-05
-5.46977e-05
3.02358e-05
-5.54831e-05
2.88535e-05
-5.61466e-05
2.72637e-05
-5.67056e-05
2.55595e-05
-5.71758e-05
2.38097e-05
-5.75704e-05
2.20642e-05
-5.79013e-05
2.03586e-05
1.87169e-05
-5.81785e-05
-6.08436e-07
-1.2754e-05
-1.35328e-06
-1.50494e-05
-2.22095e-06
-1.71966e-05
-3.22101e-06
-1.95014e-05
-4.36824e-06
-2.20084e-05
-5.68006e-06
-2.47221e-05
-7.1758e-06
-2.76235e-05
-8.87625e-06
-3.0667e-05
-1.08032e-05
-3.37682e-05
-1.2979e-05
-3.67865e-05
-1.54257e-05
-3.94979e-05
-1.81641e-05
-4.15561e-05
-2.12137e-05
-4.24365e-05
-2.45917e-05
-4.13585e-05
-2.76798e-05
-3.15194e-05
-3.06618e-05
-2.3629e-05
-3.35441e-05
-1.5391e-05
-3.63315e-05
-6.85303e-06
-3.90266e-05
1.93007e-06
-4.16282e-05
1.08968e-05
-4.41301e-05
1.99791e-05
-4.63167e-05
2.62177e-05
-4.81896e-05
3.00388e-05
-4.97857e-05
3.21804e-05
-5.11384e-05
3.30512e-05
-5.22785e-05
3.29832e-05
-5.32338e-05
3.22406e-05
-5.40299e-05
3.10304e-05
-5.46899e-05
2.9512e-05
-5.52343e-05
2.78068e-05
-5.5681e-05
2.60051e-05
-5.6046e-05
2.41736e-05
-5.63427e-05
2.23601e-05
-5.65828e-05
2.05981e-05
1.891e-05
-5.67762e-05
-6.24637e-07
-1.213e-05
-1.38458e-06
-1.42901e-05
-2.26809e-06
-1.63139e-05
-3.28535e-06
-1.8485e-05
-4.45146e-06
-2.08433e-05
-5.78405e-06
-2.33907e-05
-7.30257e-06
-2.61064e-05
-9.02789e-06
-2.89433e-05
-1.09819e-05
-3.18161e-05
-1.31867e-05
-3.45839e-05
-1.5664e-05
-3.70232e-05
-1.84339e-05
-3.87892e-05
-2.1514e-05
-3.936e-05
-2.49182e-05
-3.79585e-05
-2.80202e-05
-2.84213e-05
-3.10036e-05
-2.06496e-05
-3.38732e-05
-1.25255e-05
-3.66318e-05
-4.09853e-06
-3.92801e-05
4.57433e-06
-4.18155e-05
1.3428e-05
-4.42297e-05
2.23894e-05
-4.63162e-05
2.83007e-05
-4.80813e-05
3.18007e-05
-4.9565e-05
3.36614e-05
-5.08036e-05
3.42875e-05
-5.18298e-05
3.40074e-05
-5.26733e-05
3.30824e-05
-5.33612e-05
3.17167e-05
-5.39175e-05
3.00669e-05
-5.43633e-05
2.82514e-05
-5.47172e-05
2.6358e-05
-5.49953e-05
2.44507e-05
-5.5211e-05
2.25751e-05
-5.53762e-05
2.07627e-05
1.90339e-05
-5.55005e-05
-6.37936e-07
-1.14926e-05
-1.40582e-06
-1.35228e-05
-2.29751e-06
-1.54229e-05
-3.32401e-06
-1.74593e-05
-4.50058e-06
-1.96677e-05
-5.84487e-06
-2.20475e-05
-7.37626e-06
-2.45763e-05
-9.11557e-06
-2.72055e-05
-1.10845e-05
-2.9849e-05
-1.33051e-05
-3.23654e-05
-1.57987e-05
-3.4532e-05
-1.8585e-05
-3.60058e-05
-2.168e-05
-3.62683e-05
-2.50954e-05
-3.4547e-05
-2.8201e-05
-2.53195e-05
-3.11791e-05
-1.76753e-05
-3.40329e-05
-9.67563e-06
-3.67642e-05
-1.37113e-06
-3.93721e-05
7.17835e-06
-4.18524e-05
1.59045e-05
-4.4196e-05
2.47291e-05
-4.62031e-05
3.03044e-05
-4.78837e-05
3.34783e-05
-4.92801e-05
3.50553e-05
-5.04304e-05
3.54355e-05
-5.13688e-05
3.49439e-05
-5.21265e-05
3.38384e-05
-5.27313e-05
3.23201e-05
-5.32081e-05
3.05424e-05
-5.35786e-05
2.86207e-05
-5.38616e-05
2.664e-05
-5.40733e-05
2.46615e-05
-5.42275e-05
2.27285e-05
-5.43355e-05
2.08703e-05
1.91052e-05
-5.44072e-05
-6.30282e-07
-1.08628e-05
-1.40157e-06
-1.27521e-05
-2.29921e-06
-1.4526e-05
-3.33237e-06
-1.6427e-05
-4.51559e-06
-1.84854e-05
-5.86611e-06
-2.0698e-05
-7.40309e-06
-2.30406e-05
-9.14718e-06
-2.54628e-05
-1.11201e-05
-2.78777e-05
-1.33438e-05
-3.01436e-05
-1.58396e-05
-3.20384e-05
-1.86271e-05
-3.3221e-05
-2.17217e-05
-3.31768e-05
-2.51338e-05
-3.11384e-05
-2.82326e-05
-2.22243e-05
-3.11988e-05
-1.47127e-05
-3.40338e-05
-6.84428e-06
-3.67386e-05
1.33011e-06
-3.9312e-05
9.74806e-06
-4.17484e-05
1.83372e-05
-4.40377e-05
2.70149e-05
-4.59859e-05
3.22493e-05
-4.7605e-05
3.50946e-05
-4.89389e-05
3.63867e-05
-5.00266e-05
3.6521e-05
-5.09032e-05
3.58187e-05
-5.16007e-05
3.45343e-05
-5.21475e-05
3.28655e-05
-5.25688e-05
3.09625e-05
-5.28868e-05
2.89376e-05
-5.31204e-05
2.68727e-05
-5.3286e-05
2.48263e-05
-5.33973e-05
2.28392e-05
-5.34657e-05
2.09382e-05
-5.35009e-05
1.914e-05
0.000139848
3.15308e-05
0.000123124
3.20437e-05
0.000106121
3.23544e-05
8.89315e-05
3.25835e-05
7.16599e-05
3.27232e-05
5.43761e-05
3.27993e-05
3.70922e-05
3.28773e-05
1.9637e-05
3.31264e-05
1.62289e-06
3.37698e-05
-1.75447e-05
3.50569e-05
-3.83348e-05
3.68725e-05
-6.04368e-05
3.81825e-05
-8.24591e-05
3.75059e-05
-0.000103802
3.62842e-05
-0.00012391
3.45563e-05
-0.000142111
3.22177e-05
-0.00015768
2.92114e-05
-0.000169721
2.53379e-05
-0.000177299
2.05371e-05
-0.00018058
1.58899e-05
-0.000180371
1.20358e-05
9.22615e-06
-0.000177827
0.000537748
3.21391e-05
0.000538199
3.16085e-05
0.000538613
3.19515e-05
0.000538475
3.27277e-05
0.000537255
3.39448e-05
0.000534473
3.55771e-05
0.000529834
3.75071e-05
0.000523451
3.9494e-05
0.000516058
4.11405e-05
0.000509125
4.19588e-05
0.000504513
4.14467e-05
0.000503833
3.8812e-05
0.00050792
3.33553e-05
0.000517412
2.67089e-05
0.00053269
1.91738e-05
0.000553472
1.13082e-05
0.000578695
3.8398e-06
0.000607001
-3.13842e-06
0.00063645
-9.07888e-06
0.000665339
-1.31647e-05
0.000691744
-1.45303e-05
-1.30992e-05
0.00071392
0.000373572
-6.29937e-06
0.000407306
-2.16546e-06
0.000437103
2.1046e-06
0.00046294
6.82924e-06
0.000484812
1.2002e-05
0.000502043
1.82643e-05
0.000514562
2.49006e-05
0.000523136
3.08254e-05
0.000528153
3.60298e-05
0.000530186
3.98317e-05
0.000529403
4.21367e-05
0.000526143
4.19782e-05
0.000521387
3.80231e-05
0.000515447
3.25524e-05
0.00050861
2.58971e-05
0.000500791
1.89839e-05
0.00049051
1.39512e-05
0.000477257
9.92527e-06
0.000460819
7.13858e-06
0.000442009
5.408e-06
0.000422511
4.7431e-06
5.39738e-06
0.000403792
0.000780972
-2.88242e-05
0.000804385
-2.57008e-05
0.000827896
-2.15329e-05
0.000851115
-1.6519e-05
0.000873157
-1.017e-05
0.000892941
-1.64309e-06
0.000911085
6.63532e-06
0.000925516
1.62747e-05
0.000933977
2.74579e-05
0.00093447
3.92411e-05
0.000924962
5.15586e-05
0.000903405
6.3472e-05
0.000868908
7.24859e-05
0.000820939
8.05112e-05
0.000759191
8.76478e-05
0.000684283
9.39055e-05
0.00059909
9.91579e-05
0.000505758
0.000103258
0.000406899
0.000105979
0.000305185
0.000107075
0.000203475
0.000106396
0.000103685
0.000105115
-2.37035e-05
-1.68247e-05
-3.41897e-05
-1.53045e-05
-4.19975e-05
-1.38208e-05
-4.6632e-05
-1.1985e-05
-4.73856e-05
-9.52434e-06
-4.31784e-05
-5.96684e-06
-3.65149e-05
-1.51209e-07
-2.77003e-05
7.34438e-06
-1.90204e-05
1.86772e-05
-1.0508e-05
3.06472e-05
-2.88241e-06
4.38788e-05
3.24011e-06
5.73075e-05
7.90887e-06
6.78073e-05
1.14004e-05
7.71066e-05
1.3927e-05
8.51944e-05
1.59205e-05
9.19716e-05
1.78161e-05
9.73192e-05
1.99866e-05
0.000101134
2.2656e-05
0.00010334
2.58151e-05
0.000103927
2.91904e-05
0.000103019
0.000101139
3.17256e-05
2.41336e-05
1.40816e-05
-8.78855e-06
1.77092e-05
-4.40422e-05
2.15295e-05
-8.12745e-05
2.53439e-05
-0.000119782
2.90812e-05
-0.000158409
3.27611e-05
-0.000195058
3.65997e-05
-0.000228314
4.07065e-05
-0.000254932
4.53994e-05
-0.000275172
5.09983e-05
-0.000288922
5.77505e-05
-0.000296436
6.49502e-05
-0.000298809
7.03081e-05
-0.000297179
7.56013e-05
-0.000292397
8.05332e-05
-0.000285175
8.48674e-05