/*--------------------------------*- C++ -*----------------------------------*\
  =========                 |
  \\      /  F ield         | OpenFOAM: The Open Source CFD Toolbox
   \\    /   O peration     | Website:  https://openfoam.org
    \\  /    A nd           | Version:  8
     \\/     M anipulation  |
\*---------------------------------------------------------------------------*/
FoamFile
{
    version     2.0;
    format      ascii;
    class       volScalarField;
    location    "0.48";
    object      T;
}
// * * * * * * * * * * * * * * * * * * * * * * * * * * * * * * * * * * * * * //

dimensions      [0 0 0 1 0 0 0];

internalField   nonuniform List<scalar> 
15677
(
297.764
297.805
297.9
297.988
298.081
298.181
298.286
298.398
298.514
298.635
298.757
298.866
298.953
298.984
298.943
298.843
298.743
298.672
298.62
298.558
298.507
298.487
298.497
298.518
298.546
298.575
298.601
298.621
298.636
298.645
298.65
298.65
298.647
298.639
298.627
297.937
298
298.008
298.022
298.047
298.089
298.155
298.252
298.389
298.583
298.858
299.227
299.575
299.746
299.73
299.581
299.341
299.063
298.808
298.63
298.533
298.496
298.498
298.505
298.521
298.539
298.556
298.572
298.585
298.597
298.606
298.614
298.622
298.63
298.637
300.01
299.932
299.893
299.865
299.838
299.807
299.762
299.695
299.602
299.485
299.373
299.267
299.126
298.904
298.648
298.479
298.419
298.435
298.541
298.689
298.855
298.995
299.102
299.185
299.253
299.311
299.36
299.4
299.433
299.458
299.478
299.492
299.502
299.508
299.513
299.661
299.594
299.566
299.544
299.525
299.506
299.486
299.467
299.45
299.436
299.412
299.378
299.332
299.282
299.257
299.281
299.373
299.553
299.697
299.818
299.912
299.969
299.994
299.991
299.981
299.963
299.941
299.917
299.892
299.864
299.836
299.807
299.778
299.749
299.72
300.657
300.621
300.579
300.529
300.47
300.402
300.323
300.231
300.129
300.018
299.903
299.786
299.682
299.598
299.538
299.487
299.439
299.419
299.427
299.455
299.509
299.552
299.578
299.588
299.589
299.587
299.583
299.582
299.583
299.585
299.589
299.594
299.599
299.604
299.609
300.465
300.456
300.435
300.409
300.377
300.341
300.3
300.257
300.212
300.168
300.123
300.077
300.029
299.978
299.935
299.904
299.905
299.922
299.954
299.984
300
300.001
299.994
299.979
299.958
299.934
299.908
299.883
299.861
299.843
299.828
299.816
299.808
299.803
299.8
299.992
299.99
299.993
299.999
300.009
300.021
300.031
300.035
300.035
300.031
300.025
300.018
300.013
300.011
300.011
300.014
300.018
300.022
300.027
300.03
300.031
300.028
300.021
300.01
299.997
299.982
299.969
299.957
299.948
299.944
299.942
299.943
299.946
299.95
299.954
300.054
300.068
300.082
300.099
300.122
300.154
300.191
300.221
300.236
300.238
300.232
300.222
300.209
300.193
300.176
300.16
300.145
300.131
300.117
300.103
300.088
300.072
300.057
300.042
300.03
300.017
300.006
299.994
299.984
299.975
299.969
299.964
299.96
299.957
299.955
300.339
300.306
300.261
300.211
300.166
300.133
300.114
300.108
300.109
300.114
300.12
300.126
300.131
300.134
300.135
300.134
300.133
300.13
300.127
300.124
300.119
300.113
300.108
300.104
300.099
300.096
300.093
300.09
300.088
300.087
300.085
300.083
300.081
300.08
300.079
300.284
300.283
300.28
300.276
300.271
300.265
300.258
300.25
300.242
300.234
300.225
300.216
300.207
300.196
300.186
300.177
300.167
300.158
300.149
300.14
300.131
300.123
300.116
300.109
300.102
300.096
300.09
300.084
300.079
300.074
300.07
300.066
300.062
300.059
300.056
300.186
300.186
300.187
300.188
300.189
300.19
300.19
300.191
300.19
300.189
300.188
300.186
300.183
300.179
300.174
300.17
300.165
300.16
300.155
300.15
300.145
300.14
300.135
300.132
300.128
300.125
300.122
300.119
300.117
300.115
300.113
300.111
300.109
300.107
300.106
300.265
300.261
300.257
300.253
300.249
300.245
300.24
300.235
300.23
300.225
300.219
300.212
300.205
300.197
300.189
300.181
300.173
300.166
300.159
300.152
300.145
300.139
300.133
300.128
300.123
300.119
300.115
300.111
300.108
300.105
300.103
300.101
300.099
300.097
300.095
300.213
300.212
300.212
300.212
300.212
300.211
300.21
300.209
300.208
300.206
300.203
300.199
300.195
300.189
300.183
300.177
300.171
300.165
300.159
300.153
300.147
300.141
300.136
300.132
300.128
300.124
300.121
300.118
300.116
300.114
300.112
300.11
300.109
300.107
300.106
300.249
300.246
300.243
300.24
300.237
300.234
300.23
300.227
300.223
300.218
300.213
300.208
300.201
300.194
300.187
300.179
300.172
300.165
300.158
300.152
300.145
300.139
300.133
300.129
300.124
300.121
300.117
300.115
300.112
300.11
300.108
300.106
300.105
300.103
300.102
300.228
300.226
300.225
300.224
300.223
300.221
300.22
300.218
300.215
300.212
300.208
300.204
300.198
300.192
300.185
300.178
300.171
300.164
300.157
300.151
300.144
300.138
300.133
300.129
300.125
300.121
300.118
300.116
300.114
300.112
300.11
300.109
300.107
300.106
300.105
300.244
300.241
300.238
300.236
300.233
300.231
300.228
300.225
300.221
300.217
300.213
300.207
300.201
300.194
300.186
300.179
300.171
300.164
300.157
300.15
300.144
300.138
300.133
300.128
300.125
300.121
300.119
300.116
300.114
300.112
300.111
300.11
300.109
300.108
300.107
300.238
300.235
300.233
300.232
300.23
300.228
300.226
300.223
300.22
300.217
300.212
300.207
300.201
300.194
300.187
300.179
300.172
300.165
300.158
300.151
300.144
300.138
300.134
300.13
300.126
300.123
300.121
300.119
300.117
300.116
300.115
300.114
300.113
300.112
300.112
300.245
300.242
300.24
300.238
300.236
300.234
300.231
300.228
300.225
300.221
300.216
300.21
300.204
300.196
300.188
300.181
300.173
300.166
300.159
300.152
300.146
300.14
300.136
300.132
300.129
300.126
300.124
300.123
300.122
300.121
300.12
300.119
300.119
300.118
300.118
300.245
300.242
300.24
300.239
300.237
300.235
300.233
300.23
300.227
300.223
300.218
300.213
300.206
300.199
300.19
300.183
300.175
300.168
300.161
300.154
300.148
300.143
300.138
300.135
300.132
300.131
300.129
300.128
300.127
300.127
300.126
300.126
300.126
300.126
300.126
300.251
300.248
300.245
300.243
300.241
300.238
300.236
300.233
300.23
300.226
300.221
300.215
300.209
300.201
300.193
300.185
300.177
300.17
300.163
300.156
300.15
300.145
300.142
300.139
300.136
300.135
300.134
300.133
300.133
300.133
300.133
300.133
300.134
300.134
300.135
300.253
300.251
300.248
300.247
300.244
300.242
300.24
300.237
300.233
300.229
300.224
300.219
300.212
300.204
300.196
300.188
300.18
300.173
300.166
300.159
300.153
300.149
300.145
300.142
300.141
300.139
300.139
300.139
300.139
300.139
300.14
300.14
300.141
300.141
300.142
300.257
300.254
300.252
300.25
300.248
300.246
300.243
300.24
300.237
300.233
300.228
300.222
300.216
300.208
300.199
300.191
300.183
300.176
300.169
300.162
300.157
300.152
300.148
300.146
300.145
300.144
300.143
300.144
300.144
300.145
300.145
300.146
300.147
300.148
300.149
300.262
300.259
300.256
300.254
300.252
300.25
300.247
300.244
300.241
300.237
300.232
300.226
300.219
300.211
300.203
300.195
300.187
300.179
300.172
300.166
300.16
300.155
300.152
300.15
300.148
300.148
300.148
300.148
300.148
300.149
300.15
300.151
300.152
300.154
300.155
300.265
300.263
300.26
300.258
300.256
300.254
300.252
300.249
300.245
300.241
300.236
300.23
300.223
300.215
300.207
300.199
300.19
300.183
300.176
300.169
300.163
300.158
300.155
300.153
300.152
300.151
300.151
300.152
300.152
300.153
300.155
300.156
300.157
300.158
300.16
300.27
300.267
300.265
300.263
300.261
300.258
300.256
300.253
300.249
300.245
300.24
300.234
300.227
300.219
300.211
300.202
300.194
300.186
300.179
300.172
300.166
300.162
300.158
300.156
300.155
300.154
300.155
300.155
300.156
300.157
300.158
300.159
300.161
300.162
300.164
300.274
300.271
300.269
300.267
300.265
300.263
300.26
300.257
300.254
300.249
300.244
300.239
300.232
300.223
300.215
300.206
300.198
300.19
300.182
300.176
300.17
300.165
300.162
300.159
300.158
300.158
300.158
300.158
300.159
300.16
300.161
300.163
300.164
300.165
300.167
300.279
300.276
300.274
300.272
300.269
300.267
300.265
300.261
300.258
300.254
300.249
300.243
300.236
300.227
300.218
300.21
300.201
300.193
300.186
300.179
300.173
300.168
300.165
300.162
300.161
300.16
300.16
300.161
300.162
300.163
300.164
300.165
300.167
300.168
300.169
300.283
300.28
300.278
300.276
300.274
300.272
300.269
300.266
300.262
300.258
300.253
300.247
300.24
300.231
300.222
300.214
300.205
300.197
300.189
300.182
300.176
300.171
300.167
300.165
300.164
300.163
300.163
300.163
300.164
300.165
300.166
300.167
300.169
300.17
300.172
300.287
300.285
300.282
300.28
300.278
300.276
300.273
300.27
300.266
300.262
300.257
300.251
300.244
300.235
300.226
300.217
300.209
300.201
300.193
300.186
300.179
300.174
300.17
300.168
300.166
300.165
300.165
300.165
300.166
300.167
300.168
300.169
300.171
300.172
300.173
300.292
300.289
300.287
300.285
300.283
300.28
300.277
300.274
300.271
300.266
300.261
300.255
300.248
300.239
300.23
300.221
300.212
300.204
300.196
300.189
300.182
300.177
300.173
300.17
300.169
300.168
300.167
300.168
300.168
300.169
300.17
300.171
300.172
300.173
300.175
298.61
298.585
298.561
298.538
298.515
298.492
298.469
298.447
298.423
298.403
298.386
298.365
298.34
298.322
298.312
298.31
298.314
298.317
298.314
298.305
298.291
298.273
298.641
298.637
298.628
298.611
298.588
298.564
298.54
298.518
298.501
298.491
298.488
298.489
298.492
298.498
298.51
298.533
298.568
298.613
298.651
298.666
298.656
298.611
299.514
299.513
299.51
299.506
299.5
299.492
299.479
299.458
299.426
299.381
299.318
299.238
299.143
299.046
298.959
298.898
298.874
298.89
298.947
299.045
299.171
299.317
299.68
299.628
299.571
299.514
299.457
299.403
299.354
299.311
299.275
299.246
299.22
299.197
299.172
299.147
299.128
299.122
299.136
299.178
299.244
299.323
299.399
299.458
299.615
299.623
299.633
299.644
299.658
299.678
299.703
299.737
299.778
299.823
299.869
299.915
299.957
299.991
300.018
300.037
300.047
300.057
300.069
300.085
300.105
300.126
299.796
299.792
299.792
299.794
299.797
299.8
299.801
299.802
299.802
299.801
299.796
299.79
299.781
299.771
299.758
299.744
299.731
299.718
299.708
299.702
299.699
299.701
299.959
299.966
299.976
299.987
300
300.014
300.029
300.044
300.056
300.068
300.081
300.092
300.101
300.108
300.112
300.113
300.112
300.11
300.107
300.104
300.101
300.1
299.952
299.949
299.947
299.947
299.948
299.952
299.956
299.962
299.969
299.976
299.983
299.99
299.996
300.001
300.004
300.005
300.005
300.004
300.002
300
299.998
299.996
300.076
300.073
300.071
300.07
300.07
300.072
300.075
300.08
300.086
300.093
300.101
300.109
300.117
300.124
300.129
300.133
300.136
300.137
300.137
300.137
300.136
300.135
300.052
300.047
300.042
300.038
300.034
300.032
300.031
300.032
300.035
300.04
300.046
300.054
300.064
300.073
300.082
300.09
300.098
300.104
300.109
300.113
300.117
300.119
300.103
300.1
300.096
300.092
300.088
300.085
300.082
300.081
300.08
300.081
300.084
300.088
300.094
300.101
300.109
300.116
300.124
300.131
300.137
300.143
300.148
300.152
300.094
300.091
300.088
300.085
300.082
300.079
300.077
300.075
300.074
300.073
300.074
300.077
300.08
300.085
300.091
300.098
300.106
300.114
300.122
300.13
300.137
300.143
300.105
300.103
300.1
300.098
300.096
300.094
300.092
300.09
300.089
300.087
300.087
300.087
300.088
300.089
300.092
300.095
300.099
300.104
300.109
300.115
300.121
300.127
300.101
300.1
300.098
300.097
300.095
300.094
300.092
300.091
300.09
300.088
300.087
300.087
300.087
300.087
300.088
300.089
300.091
300.094
300.098
300.102
300.107
300.112
300.104
300.102
300.101
300.099
300.098
300.096
300.095
300.093
300.092
300.091
300.089
300.089
300.088
300.088
300.088
300.089
300.091
300.092
300.095
300.097
300.101
300.104
300.106
300.105
300.103
300.102
300.101
300.099
300.098
300.097
300.096
300.095
300.094
300.093
300.092
300.092
300.092
300.092
300.093
300.094
300.095
300.098
300.1
300.103
300.111
300.11
300.109
300.108
300.106
300.105
300.104
300.103
300.102
300.101
300.1
300.099
300.099
300.098
300.098
300.098
300.098
300.099
300.099
300.101
300.102
300.105
300.118
300.117
300.116
300.115
300.114
300.113
300.112
300.111
300.11
300.109
300.108
300.108
300.107
300.106
300.106
300.106
300.106
300.106
300.106
300.107
300.108
300.109
300.126
300.125
300.124
300.124
300.123
300.122
300.121
300.12
300.119
300.119
300.118
300.117
300.117
300.116
300.115
300.115
300.115
300.115
300.115
300.115
300.116
300.116
300.135
300.134
300.134
300.133
300.133
300.132
300.132
300.131
300.13
300.129
300.128
300.127
300.127
300.126
300.125
300.125
300.124
300.124
300.124
300.124
300.124
300.124
300.143
300.143
300.143
300.143
300.143
300.142
300.142
300.142
300.141
300.141
300.14
300.139
300.138
300.137
300.136
300.135
300.134
300.133
300.133
300.132
300.132
300.132
300.15
300.15
300.151
300.151
300.152
300.152
300.152
300.152
300.152
300.151
300.151
300.15
300.149
300.148
300.147
300.146
300.145
300.143
300.142
300.142
300.141
300.14
300.156
300.157
300.158
300.159
300.159
300.16
300.161
300.161
300.162
300.162
300.161
300.161
300.16
300.159
300.158
300.157
300.155
300.154
300.153
300.151
300.15
300.149
300.161
300.162
300.164
300.165
300.166
300.167
300.169
300.17
300.17
300.171
300.171
300.171
300.17
300.17
300.168
300.167
300.166
300.164
300.163
300.161
300.16
300.158
300.165
300.167
300.168
300.17
300.172
300.173
300.175
300.177
300.178
300.179
300.18
300.18
300.18
300.179
300.178
300.177
300.176
300.174
300.173
300.171
300.169
300.167
300.168
300.17
300.172
300.174
300.176
300.178
300.18
300.182
300.184
300.186
300.187
300.188
300.188
300.188
300.187
300.187
300.185
300.184
300.182
300.181
300.179
300.177
300.171
300.173
300.175
300.177
300.18
300.182
300.185
300.187
300.189
300.191
300.193
300.194
300.195
300.196
300.196
300.195
300.194
300.193
300.192
300.19
300.188
300.186
300.173
300.175
300.177
300.18
300.182
300.185
300.188
300.191
300.193
300.196
300.198
300.2
300.201
300.202
300.203
300.203
300.202
300.201
300.2
300.199
300.197
300.195
300.175
300.177
300.179
300.182
300.184
300.187
300.19
300.193
300.196
300.199
300.202
300.205
300.207
300.208
300.209
300.209
300.209
300.209
300.208
300.207
300.205
300.203
300.176
300.178
300.181
300.183
300.186
300.189
300.192
300.195
300.199
300.202
300.205
300.208
300.211
300.213
300.214
300.215
300.215
300.215
300.215
300.214
300.213
300.211
298.244
298.206
298.156
298.076
297.952
297.775
298.523
298.385
298.261
298.175
298.123
298.089
299.49
299.667
299.806
299.906
299.98
300.043
299.499
299.505
299.491
299.474
299.462
299.451
300.153
300.187
300.214
300.23
300.243
300.258
299.708
299.723
299.741
299.762
299.785
299.809
300.102
300.107
300.114
300.122
300.13
300.137
299.996
299.998
300.002
300.006
300.011
300.016
300.135
300.136
300.137
300.138
300.138
300.136
300.122
300.125
300.128
300.13
300.131
300.132
300.156
300.161
300.164
300.167
300.17
300.171
300.149
300.154
300.159
300.163
300.167
300.17
300.134
300.14
300.146
300.152
300.158
300.163
300.117
300.123
300.13
300.136
300.143
300.149
300.109
300.114
300.119
300.125
300.132
300.138
300.106
300.111
300.116
300.121
300.127
300.133
300.108
300.112
300.116
300.121
300.126
300.131
300.112
300.115
300.119
300.123
300.127
300.132
300.118
300.121
300.124
300.128
300.131
300.135
300.125
300.128
300.13
300.133
300.136
300.139
300.133
300.135
300.137
300.139
300.141
300.143
300.141
300.142
300.144
300.145
300.147
300.148
300.149
300.15
300.151
300.152
300.153
300.154
300.158
300.159
300.159
300.16
300.16
300.161
300.167
300.167
300.168
300.168
300.168
300.168
300.176
300.177
300.177
300.177
300.177
300.176
300.185
300.186
300.186
300.186
300.185
300.185
300.194
300.194
300.194
300.194
300.194
300.194
300.202
300.203
300.203
300.203
300.203
300.202
300.21
300.211
300.211
300.211
300.211
300.211
297.551
297.415
297.305
297.262
297.265
297.337
297.484
297.652
297.793
297.93
298.018
298.071
298.125
298.194
298.255
298.31
298.363
298.405
298.439
298.468
298.493
298.515
298.058
298.028
297.978
297.902
297.819
297.751
297.782
297.9
298
298.11
298.196
298.233
298.255
298.268
298.276
298.283
298.293
298.307
298.324
298.343
298.363
298.379
300.1
300.146
300.186
300.205
300.194
300.156
300.113
300.106
300.137
300.188
300.226
300.223
300.177
300.082
299.947
299.8
299.642
299.478
299.313
299.153
299.011
298.899
299.447
299.444
299.436
299.42
299.394
299.362
299.332
299.319
299.324
299.34
299.361
299.378
299.387
299.388
299.381
299.36
299.335
299.299
299.257
299.215
299.173
299.139
300.275
300.294
300.309
300.318
300.317
300.304
300.281
300.251
300.218
300.186
300.158
300.136
300.12
300.111
300.105
300.1
300.094
300.086
300.073
300.056
300.038
300.02
299.83
299.847
299.86
299.867
299.869
299.866
299.861
299.855
299.849
299.846
299.846
299.849
299.854
299.86
299.865
299.87
299.873
299.876
299.878
299.879
299.88
299.882
300.142
300.146
300.146
300.142
300.134
300.123
300.109
300.095
300.083
300.072
300.065
300.06
300.057
300.055
300.052
300.05
300.047
300.044
300.041
300.039
300.036
300.033
300.02
300.023
300.024
300.023
300.021
300.017
300.013
300.009
300.006
300.004
300.002
300.002
300.001
300.001
300
299.999
299.998
299.997
299.996
299.995
299.994
299.993
300.135
300.135
300.133
300.13
300.127
300.123
300.12
300.116
300.113
300.11
300.107
300.105
300.102
300.098
300.095
300.092
300.088
300.084
300.08
300.077
300.073
300.07
300.133
300.133
300.133
300.133
300.132
300.13
300.128
300.126
300.124
300.121
300.119
300.115
300.112
300.108
300.105
300.101
300.097
300.093
300.089
300.086
300.082
300.079
300.173
300.174
300.176
300.177
300.177
300.177
300.177
300.177
300.176
300.174
300.172
300.169
300.166
300.162
300.158
300.154
300.15
300.146
300.141
300.137
300.132
300.128
300.171
300.173
300.173
300.174
300.175
300.175
300.175
300.175
300.174
300.173
300.171
300.168
300.165
300.161
300.158
300.154
300.15
300.146
300.141
300.137
300.132
300.127
300.166
300.17
300.173
300.176
300.179
300.182
300.184
300.186
300.187
300.187
300.187
300.185
300.183
300.18
300.177
300.173
300.169
300.164
300.159
300.154
300.149
300.144
300.155
300.16
300.164
300.169
300.173
300.176
300.179
300.181
300.182
300.183
300.182
300.181
300.179
300.176
300.172
300.168
300.163
300.158
300.153
300.148
300.143
300.138
300.144
300.149
300.154
300.158
300.163
300.167
300.171
300.175
300.178
300.18
300.18
300.18
300.178
300.175
300.171
300.167
300.163
300.158
300.153
300.149
300.144
300.14
300.138
300.142
300.147
300.152
300.156
300.16
300.164
300.167
300.169
300.171
300.171
300.171
300.169
300.166
300.163
300.159
300.155
300.151
300.147
300.143
300.14
300.137
300.136
300.14
300.144
300.148
300.152
300.155
300.158
300.16
300.162
300.163
300.163
300.162
300.16
300.158
300.155
300.152
300.15
300.147
300.145
300.143
300.141
300.14
300.136
300.14
300.143
300.147
300.15
300.152
300.154
300.156
300.157
300.157
300.156
300.155
300.154
300.152
300.15
300.149
300.147
300.146
300.145
300.144
300.144
300.144
300.138
300.141
300.144
300.147
300.149
300.151
300.152
300.153
300.154
300.154
300.153
300.152
300.152
300.151
300.15
300.149
300.148
300.148
300.148
300.149
300.149
300.15
300.141
300.144
300.146
300.148
300.15
300.151
300.152
300.153
300.153
300.153
300.153
300.153
300.152
300.152
300.152
300.152
300.152
300.153
300.154
300.156
300.157
300.159
300.145
300.147
300.149
300.15
300.151
300.152
300.153
300.154
300.154
300.154
300.155
300.155
300.155
300.156
300.157
300.158
300.16
300.161
300.163
300.164
300.166
300.168
300.149
300.151
300.152
300.154
300.155
300.156
300.156
300.157
300.158
300.159
300.16
300.161
300.162
300.164
300.165
300.167
300.169
300.17
300.172
300.174
300.175
300.177
300.155
300.156
300.158
300.159
300.16
300.161
300.162
300.164
300.165
300.166
300.168
300.169
300.171
300.173
300.175
300.176
300.178
300.18
300.182
300.183
300.185
300.186
300.161
300.163
300.164
300.166
300.167
300.169
300.17
300.172
300.173
300.175
300.177
300.179
300.181
300.182
300.184
300.186
300.188
300.189
300.191
300.192
300.193
300.194
300.169
300.171
300.172
300.174
300.175
300.177
300.179
300.181
300.183
300.185
300.187
300.189
300.191
300.192
300.194
300.196
300.197
300.198
300.2
300.2
300.201
300.202
300.177
300.179
300.181
300.183
300.185
300.186
300.188
300.19
300.192
300.194
300.196
300.198
300.2
300.202
300.203
300.205
300.206
300.207
300.207
300.208
300.208
300.209
300.186
300.188
300.19
300.192
300.194
300.196
300.198
300.2
300.202
300.204
300.206
300.208
300.21
300.211
300.212
300.213
300.214
300.214
300.214
300.214
300.214
300.214
300.195
300.197
300.199
300.201
300.203
300.206
300.208
300.21
300.212
300.214
300.215
300.217
300.218
300.219
300.22
300.22
300.22
300.22
300.22
300.22
300.219
300.219
300.203
300.206
300.208
300.21
300.212
300.215
300.217
300.219
300.22
300.222
300.224
300.225
300.226
300.226
300.226
300.226
300.226
300.225
300.225
300.224
300.223
300.222
300.212
300.214
300.216
300.219
300.221
300.223
300.225
300.227
300.228
300.23
300.231
300.232
300.232
300.232
300.232
300.231
300.23
300.229
300.228
300.227
300.226
300.224
298.53
298.54
298.544
298.544
298.54
298.532
298.519
298.499
298.473
298.441
298.405
298.364
298.33
298.315
298.311
298.329
298.377
298.456
298.567
298.685
298.771
298.8
298.755
298.66
298.56
298.456
298.356
298.259
298.168
298.083
298.006
297.935
297.87
297.811
297.812
298.385
298.388
298.393
298.405
298.422
298.445
298.473
298.505
298.542
298.581
298.621
298.661
298.706
298.76
298.832
298.925
299.047
299.202
299.381
299.55
299.665
299.66
299.465
299.06
298.66
298.379
298.186
298.05
297.95
297.879
297.833
297.812
297.813
297.834
297.834
298.834
298.788
298.745
298.709
298.68
298.66
298.647
298.639
298.628
298.618
298.618
298.627
298.634
298.637
298.63
298.609
298.575
298.541
298.526
298.546
298.639
298.864
299.109
299.269
299.392
299.525
299.645
299.73
299.785
299.82
299.843
299.859
299.873
299.895
299.945
299.116
299.096
299.077
299.063
299.054
299.053
299.07
299.113
299.192
299.304
299.429
299.549
299.657
299.744
299.798
299.821
299.814
299.776
299.71
299.624
299.536
299.458
299.376
299.354
299.36
299.364
299.377
299.393
299.41
299.427
299.441
299.455
299.469
299.488
299.546
300.002
299.982
299.958
299.93
299.9
299.866
299.828
299.785
299.74
299.691
299.637
299.58
299.535
299.511
299.499
299.491
299.482
299.473
299.474
299.493
299.529
299.589
299.676
299.783
299.898
300.011
300.12
300.221
300.307
300.382
300.448
300.504
300.553
300.595
300.631
299.883
299.883
299.883
299.882
299.88
299.876
299.87
299.861
299.849
299.842
299.843
299.86
299.889
299.925
299.955
299.977
299.995
300.009
300.022
300.033
300.044
300.054
300.07
300.099
300.133
300.171
300.214
300.26
300.302
300.342
300.377
300.407
300.432
300.451
300.465
300.03
300.026
300.023
300.018
300.012
300.006
299.998
299.987
299.976
299.966
299.957
299.948
299.938
299.928
299.922
299.921
299.923
299.929
299.936
299.944
299.954
299.965
299.977
299.989
299.999
300.009
300.017
300.023
300.028
300.032
300.034
300.035
300.035
300.036
300.038
299.992
299.991
299.99
299.988
299.987
299.986
299.985
299.984
299.983
299.983
299.983
299.982
299.982
299.985
299.993
300.006
300.021
300.038
300.056
300.073
300.09
300.107
300.123
300.137
300.15
300.161
300.171
300.18
300.189
300.197
300.204
300.21
300.217
300.223
300.227
300.067
300.063
300.06
300.056
300.051
300.046
300.04
300.033
300.026
300.019
300.011
300.002
299.996
299.994
299.996
300.001
300.01
300.021
300.033
300.045
300.056
300.067
300.075
300.08
300.084
300.085
300.085
300.084
300.082
300.079
300.076
300.072
300.068
300.064
300.061
300.076
300.073
300.07
300.067
300.063
300.06
300.056
300.052
300.048
300.045
300.043
300.042
300.042
300.043
300.047
300.054
300.062
300.073
300.084
300.096
300.107
300.12
300.131
300.141
300.15
300.158
300.165
300.172
300.179
300.185
300.191
300.196
300.202
300.208
300.215
300.124
300.12
300.117
300.112
300.108
300.103
300.097
300.091
300.084
300.078
300.071
300.066
300.061
300.059
300.06
300.063
300.07
300.079
300.088
300.097
300.106
300.114
300.122
300.128
300.133
300.136
300.138
300.14
300.14
300.14
300.139
300.138
300.137
300.136
300.134
300.123
300.119
300.115
300.111
300.107
300.103
300.098
300.094
300.089
300.085
300.081
300.079
300.079
300.08
300.085
300.091
300.099
300.108
300.117
300.126
300.135
300.145
300.153
300.161
300.167
300.173
300.178
300.183
300.188
300.192
300.196
300.201
300.205
300.209
300.215
300.14
300.136
300.132
300.128
300.124
300.12
300.115
300.111
300.107
300.103
300.101
300.099
300.098
300.099
300.102
300.108
300.114
300.122
300.13
300.138
300.145
300.153
300.16
300.165
300.17
300.173
300.176
300.179
300.181
300.182
300.183
300.184
300.184
300.185
300.185
300.134
300.131
300.127
300.124
300.121
300.117
300.114
300.111
300.109
300.107
300.106
300.106
300.108
300.111
300.117
300.123
300.131
300.139
300.146
300.154
300.162
300.17
300.178
300.184
300.189
300.194
300.198
300.202
300.205
300.208
300.211
300.214
300.217
300.22
300.224
300.137
300.134
300.132
300.129
300.126
300.124
300.122
300.12
300.119
300.118
300.119
300.12
300.123
300.127
300.132
300.138
300.145
300.152
300.159
300.166
300.173
300.179
300.186
300.191
300.195
300.199
300.202
300.205
300.207
300.208
300.21
300.211
300.213
300.214
300.216
300.135
300.133
300.132
300.13
300.128
300.127
300.126
300.125
300.125
300.126
300.128
300.13
300.134
300.138
300.144
300.15
300.156
300.163
300.17
300.176
300.183
300.189
300.196
300.201
300.206
300.21
300.214
300.217
300.22
300.223
300.225
300.227
300.229
300.232
300.235
300.139
300.138
300.137
300.136
300.136
300.136
300.136
300.136
300.137
300.138
300.14
300.143
300.146
300.15
300.155
300.161
300.166
300.172
300.178
300.184
300.19
300.196
300.202
300.207
300.212
300.215
300.218
300.221
300.223
300.225
300.227
300.229
300.23
300.232
300.234
300.144
300.143
300.143
300.143
300.143
300.143
300.144
300.145
300.146
300.148
300.15
300.152
300.155
300.159
300.164
300.169
300.174
300.18
300.185
300.191
300.196
300.202
300.208
300.213
300.218
300.222
300.225
300.228
300.231
300.233
300.236
300.238
300.239
300.241
300.244
300.151
300.151
300.151
300.151
300.151
300.152
300.153
300.154
300.155
300.157
300.159
300.161
300.164
300.167
300.171
300.176
300.181
300.185
300.191
300.196
300.201
300.207
300.213
300.218
300.222
300.226
300.229
300.232
300.234
300.236
300.238
300.24
300.241
300.243
300.245
300.159
300.159
300.16
300.16
300.16
300.161
300.162
300.162
300.164
300.165
300.167
300.169
300.171
300.174
300.177
300.181
300.186
300.19
300.195
300.2
300.205
300.211
300.217
300.222
300.226
300.23
300.233
300.236
300.239
300.241
300.243
300.245
300.247
300.249
300.252
300.169
300.169
300.169
300.169
300.169
300.17
300.17
300.171
300.172
300.173
300.174
300.175
300.177
300.18
300.183
300.186
300.19
300.194
300.199
300.204
300.209
300.215
300.22
300.225
300.23
300.233
300.237
300.239
300.242
300.244
300.246
300.248
300.249
300.251
300.253
300.178
300.178
300.178
300.178
300.178
300.178
300.178
300.179
300.179
300.18
300.18
300.181
300.183
300.185
300.187
300.19
300.193
300.197
300.202
300.207
300.212
300.218
300.223
300.228
300.233
300.237
300.24
300.243
300.245
300.247
300.249
300.251
300.253
300.255
300.257
300.187
300.186
300.186
300.186
300.186
300.186
300.186
300.186
300.186
300.186
300.186
300.187
300.187
300.189
300.191
300.193
300.197
300.2
300.205
300.21
300.215
300.221
300.226
300.231
300.236
300.24
300.243
300.246
300.248
300.25
300.252
300.254
300.256
300.258
300.26
300.195
300.195
300.194
300.194
300.193
300.193
300.193
300.192
300.192
300.191
300.191
300.191
300.192
300.193
300.194
300.196
300.199
300.203
300.207
300.212
300.218
300.223
300.229
300.234
300.239
300.242
300.246
300.249
300.251
300.253
300.255
300.257
300.259
300.26
300.263
300.202
300.202
300.201
300.201
300.2
300.199
300.198
300.198
300.197
300.196
300.196
300.195
300.195
300.196
300.197
300.199
300.202
300.206
300.21
300.215
300.22
300.226
300.232
300.237
300.241
300.245
300.249
300.252
300.254
300.256
300.258
300.26
300.262
300.263
300.266
300.209
300.208
300.207
300.206
300.205
300.204
300.203
300.202
300.201
300.2
300.199
300.199
300.198
300.199
300.2
300.202
300.204
300.208
300.212
300.217
300.223
300.229
300.235
300.24
300.244
300.248
300.252
300.254
300.257
300.259
300.261
300.263
300.264
300.266
300.268
300.214
300.213
300.212
300.211
300.21
300.209
300.208
300.206
300.205
300.204
300.203
300.202
300.201
300.201
300.202
300.204
300.207
300.21
300.215
300.22
300.225
300.231
300.237
300.242
300.247
300.251
300.254
300.257
300.26
300.262
300.264
300.266
300.267
300.269
300.271
300.218
300.217
300.216
300.215
300.214
300.212
300.211
300.209
300.208
300.206
300.205
300.204
300.203
300.203
300.204
300.206
300.209
300.212
300.217
300.222
300.228
300.234
300.24
300.245
300.25
300.254
300.257
300.26
300.263
300.265
300.267
300.268
300.27
300.272
300.274
300.221
300.22
300.219
300.218
300.216
300.215
300.213
300.212
300.21
300.209
300.207
300.206
300.205
300.205
300.206
300.208
300.211
300.214
300.219
300.224
300.23
300.236
300.242
300.248
300.252
300.256
300.26
300.263
300.265
300.267
300.269
300.271
300.273
300.274
300.277
300.223
300.222
300.221
300.219
300.218
300.217
300.215
300.213
300.212
300.21
300.209
300.208
300.207
300.207
300.208
300.209
300.212
300.216
300.221
300.226
300.232
300.239
300.245
300.25
300.255
300.259
300.263
300.266
300.268
300.27
300.272
300.274
300.276
300.277
300.279
300.297
300.294
300.292
300.29
300.287
300.285
300.282
300.279
300.275
300.271
300.266
300.259
300.252
300.243
300.234
300.225
300.216
300.208
300.2
300.192
300.186
300.18
300.176
300.173
300.171
300.17
300.17
300.17
300.17
300.171
300.172
300.173
300.174
300.175
300.176
300.302
300.299
300.297
300.295
300.293
300.29
300.287
300.284
300.28
300.276
300.271
300.264
300.257
300.248
300.239
300.229
300.22
300.212
300.204
300.196
300.189
300.184
300.179
300.176
300.174
300.173
300.172
300.172
300.172
300.172
300.173
300.174
300.175
300.176
300.177
300.307
300.304
300.302
300.3
300.298
300.295
300.292
300.289
300.285
300.281
300.275
300.269
300.261
300.252
300.243
300.234
300.225
300.216
300.207
300.2
300.193
300.187
300.182
300.179
300.176
300.175
300.174
300.174
300.173
300.174
300.174
300.175
300.176
300.177
300.177
300.312
300.309
300.307
300.305
300.302
300.3
300.297
300.294
300.29
300.285
300.28
300.274
300.266