/*--------------------------------*- C++ -*----------------------------------*\
  =========                 |
  \\      /  F ield         | OpenFOAM: The Open Source CFD Toolbox
   \\    /   O peration     | Website:  https://openfoam.org
    \\  /    A nd           | Version:  8
     \\/     M anipulation  |
\*---------------------------------------------------------------------------*/
FoamFile
{
    version     2.0;
    format      ascii;
    class       volScalarField;
    location    "0.2";
    object      epsilon;
}
// * * * * * * * * * * * * * * * * * * * * * * * * * * * * * * * * * * * * * //

dimensions      [0 2 -3 0 0 0 0];

internalField   nonuniform List<scalar> 
15677
(
59.7003
18.3535
52.6122
8.08764
25.8887
50.162
4.62722
13.2619
31.5741
50.4817
3.17784
7.72265
17.0788
37.2617
51.5979
2.48949
5.04242
10.0235
20.8056
42.6337
53.6525
2.14571
3.62249
6.4605
12.1575
24.5334
47.6444
55.7176
1.97986
2.8208
4.52363
7.72126
14.2696
28.241
52.0027
57.6516
1.91169
2.35296
3.40097
5.3082
8.91189
16.4156
31.7406
55.6817
59.3511
1.88416
2.08028
2.72279
3.90785
6.01908
10.1005
18.5253
34.9357
58.6989
60.8497
1.87055
1.9394
2.30686
3.05465
4.3561
6.70383
11.267
20.5552
37.7531
61.1709
62.1161
1.86765
1.87831
2.05634
2.52061
3.34679
4.77413
7.35932
12.4096
22.4442
40.2112
63.1605
63.2273
1.86862
1.84885
1.91652
2.18582
2.7117
3.61374
5.16294
7.99622
13.4957
24.1851
42.3024
64.7821
64.1534
1.86953
1.8387
1.85192
1.98254
2.3064
2.88548
3.85657
5.53304
8.59946
14.5248
25.744
44.0865
66.0822
64.9868
1.86976
1.83698
1.82112
1.86771
2.05113
2.41761
3.04181
4.08289
5.87816
9.17357
15.4717
27.1386
45.5729
67.1356
65.713
1.86976
1.83725
1.81049
1.81333
1.89808
2.1172
2.51798
3.18534
4.29025
6.20357
9.70417
16.344
28.3517
46.8225
67.9946
66.3554
1.86971
1.83752
1.80818
1.78977
1.81537
1.93019
2.1783
2.6097
3.31507
4.48289
6.5018
10.197
17.1219
29.4076
47.8571
68.6929
66.9436
1.86969
1.83763
1.80788
1.78275
1.77568
1.82145
1.96212
2.23475
2.6921
3.43391
4.65725
6.77727
10.6395
17.8176
30.3022
48.7025
69.2901
67.4445
1.86967
1.83765
1.80789
1.78104
1.76143
1.76613
1.83163
1.99286
2.2857
2.7669
3.54025
4.81656
7.02309
11.0395
18.4171
31.0553
49.3973
69.7612
67.9524
1.86966
1.83765
1.80791
1.78072
1.75695
1.74392
1.76033
1.84301
2.02125
2.33193
2.83334
3.63631
4.95719
7.24451
11.3855
18.9348
31.6722
49.938
70.2055
68.3475
1.86966
1.83764
1.8079
1.78069
1.75567
1.7359
1.72948
1.75736
1.85434
2.04737
2.37297
2.89284
3.72032
5.08257
7.43482
11.6871
19.3597
32.1672
50.385
70.5316
68.8207
1.86966
1.83764
1.80788
1.78068
1.75535
1.7332
1.71726
1.718
1.75579
1.86548
2.07083
2.4096
2.94462
3.79442
5.18933
7.6001
11.9337
19.7101
32.5528
50.7024
70.8985
69.1346
1.86966
1.83763
1.80786
1.78067
1.75526
1.73237
1.71263
1.70132
1.70843
1.7557
1.87588
2.09188
2.44152
2.98999
3.85718
5.28117
7.7344
12.1386
19.9751
32.8382
50.9728
71.1382
69.6048
1.86966
1.83763
1.80785
1.78064
1.75522
1.73213
1.711
1.69452
1.68722
1.70085
1.75602
1.88548
2.11045
2.46955
3.02852
3.91083
5.35535
7.84499
12.2907
20.1794
33.0407
51.1379
71.4823
69.861
1.86966
1.83762
1.80784
1.78062
1.75518
1.73204
1.71045
1.69192
1.67797
1.67535
1.69458
1.7568
1.89435
2.12703
2.49365
3.06153
3.95438
5.41599
7.927
12.4088
20.3087
33.1646
51.2826
71.679
70.3324
1.86967
1.83762
1.80784
1.7806
1.75515
1.73198
1.71025
1.69097
1.67416
1.66375
1.66488
1.68957
1.7583
1.90264
2.1417
2.51474
3.08909
3.99049
5.46161
7.98928
12.4784
20.3946
33.2351
51.3683
72.0602
70.5813
1.86967
1.83761
1.80783
1.78059
1.75513
1.73193
1.71015
1.6906
1.67266
1.65872
1.65073
1.65639
1.68597
1.76019
1.91061
2.15529
2.5333
3.11274
4.01865
5.49606
8.02691
12.5258
20.4187
33.2372
51.4185
72.3517
430.216
1.86967
1.83761
1.80783
1.78057
1.75511
1.73189
1.71007
1.69042
1.67206
1.65661
1.64432
1.64019
1.64916
1.68332
1.76318
1.91891
2.16815
2.55025
3.13283
4.04165
5.51961
8.05159
12.5312
20.4079
33.2201
51.5173
88.5863
722.504
1.86967
1.8376
1.80783
1.78056
1.75509
1.73185
1.71002
1.69031
1.67178
1.65571
1.64153
1.63256
1.63059
1.64422
1.68332
1.76748
1.92788
2.18131
2.56656
3.15144
4.06045
5.53633
8.0579
12.5221
20.3781
33.1832
52.3979
121.8
1010.42
1.86968
1.8376
1.80783
1.78055
1.75508
1.73182
1.70997
1.69022
1.67162
1.65529
1.64032
1.62906
1.62166
1.62425
1.64081
1.6847
1.77353
1.93852
2.19561
2.58364
3.16944
4.07716
5.54701
8.05534
12.5003
20.3219
33.1901
54.8781
157.551
1267.51
1.86968
1.8376
1.80783
1.78054
1.75507
1.7318
1.70993
1.69015
1.67151
1.65505
1.63975
1.62745
1.61751
1.61424
1.61859
1.64129
1.68839
1.78224
1.9516
2.21228
2.60234
3.1885
4.09304
5.55446
8.04885
12.4629
20.2626
33.2602
59.3718
190.564
1507.5
1.86968
1.83759
1.80784
1.78053
1.75507
1.73177
1.7099
1.6901
1.67141
1.65489
1.63943
1.62666
1.61558
1.60936
1.60766
1.61827
1.64385
1.69566
1.79444
1.96828
2.23222
2.62433
3.20983
4.11049
5.56189
8.03745
12.4241
20.2
33.4755
64.0384
222.029
1714.46
1.86968
1.83759
1.80784
1.78052
1.75506
1.73175
1.70988
1.69005
1.67134
1.65476
1.63921
1.62623
1.61462
1.60698
1.60237
1.60625
1.62021
1.64978
1.70739
1.81131
1.98956
2.25702
2.65065
3.23551
4.13087
5.57141
8.02846
12.3837
20.1303
33.8953
68.7784
249.96
1874.73
1.86968
1.83759
1.80784
1.78052
1.75506
1.73173
1.70986
1.69
1.67127
1.65466
1.63904
1.62595
1.61408
1.60578
1.59978
1.60024
1.60799
1.62562
1.66111
1.72459
1.83388
2.01694
2.28772
2.68313
3.26642
4.15673
5.58576
8.02139
12.3441
20.069
34.4098
73.0961
271.801
2001.66
1.86969
1.83758
1.80784
1.78051
1.75506
1.73172
1.70985
1.68996
1.67122
1.65457
1.63891
1.62574
1.61372
1.60511
1.59844
1.59727
1.60188
1.61323
1.63645
1.67865
1.74834
1.86364
2.05149
2.32599
2.72265
3.30484
4.18901
5.60643
8.02173
12.3047
20.0139
34.9127
76.426
289.204
2105.77
1.83758
1.86972
1.80785
1.7805
1.75506
1.7317
1.70984
1.68993
1.67118
1.6545
1.63879
1.62557
1.61345
1.60469
1.59768
1.59575
1.59887
1.6071
1.62393
1.65442
1.70344
1.78024
1.90176
2.09493
2.37281
2.77115
3.35128
4.22988
5.63434
8.02524
12.264
19.9575
35.2803
78.982
303.367
2194.37
1.80785
1.83768
1.8698
1.7805
1.75506
1.73169
1.70983
1.68989
1.67115
1.65443
1.63869
1.62543
1.61322
1.60438
1.59718
1.59492
1.59736
1.60414
1.61786
1.6424
1.68025
1.73711
1.82141
1.94994
2.14816
2.42987
2.82918
3.40786
4.27906
5.67018
8.03512
12.2237
19.8948
35.5362
80.9143
315.401
2272.56
1.78049
1.80801
1.83787
1.86987
1.75506
1.73168
1.70982
1.68986
1.67112
1.65436
1.63861
1.6253
1.61303
1.60413
1.5968
1.5944
1.59656
1.60273
1.61508
1.63689
1.66925
1.7157
1.78104
1.87376
2.00924
2.21292
2.49801
2.89864
3.47405
4.33795
5.71889
8.056
12.1924
19.8258
35.6735
82.4328
325.843
2343.29
1.75506
1.7807
1.80833
1.83808
1.86995
1.73166
1.70982
1.68984
1.6711
1.65431
1.63855
1.62519
1.61287
1.60393
1.59649
1.59403
1.59608
1.60205
1.6139
1.63472
1.66478
1.70645
1.76234
1.83741
1.93865
2.08175
2.2899
2.57861
2.97913
3.55153
4.41366
5.78483
8.08841
12.1665
19.7491
35.7482
83.6215
335.292
2408.86
1.73165
1.75532
1.78111
1.80866
1.83828
1.87003
1.70982
1.68981
1.67109
1.65425
1.6385
1.62509
1.61274
1.60375
1.59624
1.59374
1.59575
1.6017
1.6135
1.6342
1.66371
1.70386
1.75597
1.82278
1.9078
2.01857
2.16842
2.38108
2.67172
3.07233
3.64911
4.51192
5.86363
8.13014
12.1503
19.6715
35.7449
84.6168
343.895
2470.13
1.70981
1.73194
1.75584
1.78154
1.809
1.8385
1.87011
1.68979
1.67107
1.6542
1.63846
1.625
1.61263
1.6036
1.59602
1.59351
1.5955
1.60149
1.61341
1.6344
1.66418
1.70438
1.75567
1.82004
1.89874
1.99537
2.11491
2.27172
2.48702
2.77843
3.18881
3.774
4.62396
5.95343
8.18163
12.1398
19.593
35.7247
85.4419
351.981
2528.3
1.68977
1.71015
1.73253
1.75637
1.78199
1.80934
1.83872
1.87019
1.67106
1.65416
1.63842
1.62491
1.61254
1.60346
1.59583
1.59331
1.5953
1.60135
1.61345
1.63489
1.66541
1.70663
1.75877
1.82338
1.9006
1.99261
2.10094
2.23103
2.39254
2.60964
2.91281
3.33554
3.91311
4.74862
6.05312
8.24133
12.1404
19.5198
35.681
86.181
359.529
2583.29
1.67105
1.69012
1.71083
1.73314
1.75692
1.78244
1.8097
1.83895
1.87028
1.65412
1.6384
1.62483
1.61247
1.60334
1.59566
1.59315
1.59514
1.60125
1.61354
1.63546
1.66686
1.70962
1.76367
1.83038
1.90925
2.00144
2.10639
2.22719
2.36647
2.53384
2.7651
3.08421
3.50041
4.06631
4.88408
6.16157
8.30885
12.1452
19.4516
35.623
86.825
366.747
2635.98
1.65409
1.67144
1.69084
1.71152
1.73377
1.75749
1.78291
1.81007
1.83918
1.87036
1.63838
1.62476
1.61241
1.60322
1.59553
1.59301
1.595
1.60119
1.61367
1.63603
1.66833
1.71271
1.76929
1.83938
1.92179
2.01755
2.12467
2.24433
2.37548
2.52381
2.71291
2.96538
3.27842
3.68327
4.2325
5.02909
6.27743
8.38284
12.1558
19.3914
35.5593
87.4337
373.547
2685.83
1.63836
1.65446
1.67224
1.69159
1.71224
1.73441
1.75807
1.78339
1.81044
1.83942
1.87045
1.62469
1.61237
1.60311
1.59542
1.59289
1.59489
1.60114
1.61381
1.63659
1.66976
1.71571
1.77489
1.84916
1.93664
2.03808
2.1509
2.27535
2.40775
2.55036
2.7236
2.94134
3.19402
3.49574
3.88263
4.41063
5.18234
6.39949
8.46195
12.1746
19.3383
35.5003
87.9848
380.095
2733.72
1.62463
1.63877
1.65527
1.67306
1.69236
1.71298
1.73508
1.75866
1.78388
1.81083
1.83966
1.87054
1.61234
1.603
1.59533
1.59278
1.59479
1.6011
1.61395
1.63712
1.67111
1.71854
1.78025
1.85876
1.95237
2.06158
2.18244
2.31557
2.45535
2.60229
2.77483
2.98343
3.20062
3.44595
3.73479
4.09823
4.59974
5.34255
6.52624
8.54535
12.1988
19.2933
35.4452
88.5231
386.27
2778.84
1.61232
1.62499
1.63963
1.6561
1.67391
1.69315
1.71374
1.73576
1.75927
1.78439
1.81122
1.83992
1.87063
1.60289
1.59527
1.59269
1.59471
1.60108
1.61408
1.63761
1.67237
1.72117
1.78531
1.86792
1.96776
2.08639
2.21802
2.36268
2.51413
2.67209
2.85434
3.06996
3.28342
3.49237
3.72044
3.99111
4.3284
4.7979
5.50797
6.65645
8.63194
12.2278
19.2552
35.3981
89.021
392.23
2822.23
1.6028
1.6127
1.62578
1.64052
1.65695
1.67478
1.69397
1.71452
1.73647
1.7599
1.78491
1.81163
1.84018
1.87073
1.59522
1.5926
1.59463
1.60106
1.61421
1.63807
1.67354
1.7236
1.79006
1.87654
1.98248
2.11081
2.25557
2.41573
2.5823
2.75638
2.95586
3.19027
3.41522
3.6248
3.81597
4.01743
4.26116
4.57031
5.0035
5.67776
6.78892
8.72081
12.2606
19.2246
35.3585
89.514
397.833
2862.84
1.59521
1.60305
1.61352
1.6266
1.64143
1.65784
1.67567
1.69481
1.71532
1.73719
1.76054
1.78545
1.81204
1.84044
1.87081
1.5925
1.59456
1.60103
1.61432
1.63849
1.67462
1.72584
1.79448
1.88459
1.99646
2.13434
2.29267
2.47229
2.65951
2.85423
3.07734
3.34018
3.58943
3.81396
4.00863
4.17069
4.33586
4.54342
4.82102
5.21578
5.85049
6.92267
8.81102
12.2967
19.1999
35.3267
89.9757
403.249
2901.92
1.59241
1.59548
1.60364
1.61436
1.62745
1.64238
1.65876
1.67659
1.69568
1.71614
1.73794
1.7612
1.786
1.81245
1.84069
1.8709
1.59447
1.60101
1.61443
1.63888
1.67561
1.7279
1.79857
1.89206
2.00967
2.15677
2.32866
2.52904
2.74269
2.96619
3.21941
3.52036
3.80561
4.05903
4.27005
4.43603
4.55557
4.67358
4.83628
5.07552
5.43204
6.02474
7.05655
8.90175
12.3353
19.1818
35.3026
90.4344
408.308
2938.24
1.59443
1.59236
1.59604
1.60423
1.61524
1.62834
1.64335
1.65971
1.67753
1.69658
1.71698
1.7387
1.76188
1.78654
1.81285
1.84093
1.87098
1.60098
1.61452
1.63923
1.67651
1.72978
1.80234
1.89896
2.02206
2.17798
2.36334
2.58495
2.82685
3.08866
3.38478
3.73512
4.06961
4.36638
4.60873
4.78872
4.90842
4.96953
5.02841
5.13868
5.33261
5.6499
6.19885
7.18966
8.99227
12.3758
19.1678
35.2842
90.867
413.214
2973.24
1.601
1.59424
1.59225
1.59661
1.60487
1.61615
1.62927
1.64435
1.66069
1.6785
1.6975
1.71785
1.73949
1.76254
1.78707
1.81323
1.84116
1.87106
1.6146
1.63955
1.67732
1.73151
1.80579
1.90533
2.03362
2.19788
2.39657
2.63943
2.91031
3.21519
3.57025
3.99214
4.39329
4.7525
5.04408
5.25282
5.37713
5.42784
5.41169
5.39838
5.44829
5.59097
5.86803
6.37224
7.32143
9.082
12.4175
19.1597
35.2735
91.2944
417.756
3005.53
1.61475
1.60057
1.59379
1.5921
1.59726
1.60557
1.61709
1.63025
1.64537
1.66171
1.6795
1.69845
1.71873
1.74027
1.76319
1.78758
1.81361
1.84139
1.87114
1.63982
1.67805
1.73307
1.80894
1.91119
2.04437
2.21648
2.42824
2.69194
2.99238
3.34411
3.76675
4.28928
4.79557
5.24666
5.61455
5.87156
6.01067
6.04426
5.99679
5.88123
5.78159
5.76304
5.8491
6.08378
6.54429
7.45119
9.1704
12.4601
19.1539
35.2658
91.6992
422.185
3036.69
1.64018
1.61391
1.59944
1.59328
1.59206
1.59794
1.60633
1.61806
1.63127
1.64643
1.66277
1.68052
1.69943
1.71961
1.74103
1.76382
1.78809
1.81397
1.84162
1.87122
1.67869
1.73448
1.81182
1.91657
2.0543
2.23379
2.45825
2.74211
3.07271
3.47446
3.97031
4.61349
5.28371
5.89602
6.38502
6.72209
6.8901
6.90398
6.79919
6.61746
6.37717
6.17615
6.08101
6.10614
6.29492
6.71358
7.57828
9.25705
12.5029
19.1535
35.2659
92.0963
426.251
3061.77
1.67941
1.63873
1.61164
1.59822
1.5929
1.59211
1.59864
1.60716
1.61906
1.63234
1.64751
1.66386
1.68156
1.7004
1.72046
1.74176
1.76444
1.78857
1.81433
1.84184
1.87129
1.73573
1.81442
1.9215
2.06346
2.24987
2.48654
2.78973
3.15107
3.60478
4.17792
4.96176
5.84871
6.73416
7.45267
7.92356
8.14695
8.13872
7.95079
7.64827
7.29058
6.89801
6.5801
6.40046
6.36118
6.50102
6.87907
7.70214
9.34156
12.5458
19.1547
35.268
92.4711
429.704
3082.97
1.73706
1.67722
1.63467
1.60925
1.59717
1.59261
1.5923
1.59934
1.60808
1.62007
1.63346
1.64862
1.66498
1.6826
1.70134
1.72129
1.74248
1.76504
1.78905
1.81467
1.84205
1.87137
1.81675
1.92598
2.07188
2.2648
2.51309
2.83476
3.22719
3.73344
4.3876
5.33532
6.49418
7.75356
8.88211
9.63526
9.96518
9.94389
9.6424
9.15996
8.5928
8.01451
7.44141
6.99137
6.7198
6.6129
6.70164
7.04002
7.82231
9.42364
12.5883
19.1577
35.2725
92.7876
432.551
3105.88
1.8191
1.73389
1.67072
1.63035
1.60712
1.59622
1.59237
1.59268
1.60004
1.60907
1.62112
1.63462
1.64976
1.6661
1.68361
1.70226
1.7221
1.74318
1.76562
1.78951
1.81501
1.84225
1.87144
1.93007
2.07959
2.27863
2.53792
2.87724
3.30077
3.85906
4.59891
5.73583
7.22209
8.95013
10.6435
11.9456
12.5728
12.5744
12.1383
11.4066
10.5288
9.6281
8.78495
8.00418
7.40769
7.03747
6.8602
6.89637
7.19586
7.93842
9.50302
12.6302
19.1632
35.2797
93.0526
435.661
3131
1.93404
1.81471
1.7239
1.66391
1.62642
1.60516
1.59534
1.59206
1.59325
1.60074
1.61012
1.6222
1.63582
1.6509
1.66718
1.6846
1.70316
1.72289
1.74386
1.76618
1.78995
1.81533
1.84245
1.87147
2.08667
2.2914
2.56109
2.91727
3.37153
3.98079
4.8124
6.16336
8.02716
10.3103
12.7088
14.7841
16.0855
16.3435
15.7762
14.7277
13.4188
12.0445
10.7442
9.59526
8.58228
7.82665
7.35204
7.10216
7.08483
7.3462
8.05021
9.57954
12.6712
19.1693
35.2868
93.3488
439.032
3158.34
2.0933
1.92809
1.7998
1.71357
1.65765
1.62272
1.60331
1.59454
1.59175
1.59393
1.60148
1.61124
1.62332
1.63701
1.65202
1.66824
1.68556
1.70402
1.72365
1.74451
1.76673
1.79039
1.81565
1.84255
1.87147
2.30328
2.58262
2.95495
3.43921
4.0983
5.02899
6.61575
8.89872
11.8108
15.042
18.0952
20.3881
21.415
20.9853
19.5649
17.6889
15.6541
13.6869
11.9274
10.4371
9.1711
8.24575
7.66213
7.33799
7.26672
7.49075
8.15748
9.65301
12.7058
19.1753
35.2961
93.6711
442.748
3188.49
2.31413
2.08552
1.90611
1.78453
1.70403
1.65171
1.61922
1.6016
1.59381
1.59152
1.59469
1.60228
1.61239
1.62446
1.63818
1.65311
1.66926
1.6865
1.70487
1.7244
1.74516
1.76726
1.79081
1.81581
1.84255
1.87147
2.60277
2.99037
3.50366
4.21172
5.24938
7.089
9.82351
13.4243
17.5978
21.8174
25.3956
27.6276
28.0068
26.5028
23.9118
20.9849
18.0796
15.4318
13.162
11.3012
9.76574
8.66252
7.96646
7.56699
7.4418
7.6294
8.26018
9.71416
12.7358
19.1829
35.308
94.0362
446.771
3221.33
2.62073
2.30391
2.05347
1.88391
1.77038
1.69492
1.64603
1.61591
1.60002
1.59316
1.59138
1.59552
1.60314
1.61354
1.62559
1.63931
1.65418
1.67026
1.68742
1.70569
1.72513
1.74578
1.76778
1.79102
1.81581
1.84255
1.87147
3.02385
3.56489
4.32147
5.47374
7.57786
10.7875
15.1234
20.3288
25.8768
31.012
34.8593
36.6301
35.8921
32.8701
28.7706
24.5699
20.6592
17.2541
14.432
12.1782
10.3614
9.07456
8.26384
7.78864
7.60992
7.76184
8.34564
9.76653
12.7692
19.1925
35.3242
94.4342
451.221
3257.65
3.05328
2.60754
2.25725
2.02152
1.86332
1.75684
1.68616
1.64059
1.6128
1.59856
1.59262
1.59135
1.59638
1.60407
1.61465
1.62671
1.64041
1.65523
1.67123
1.68831
1.70649
1.72583
1.74638
1.76804
1.79102
1.81581
1.84255
1.87147
3.6233
4.42825
5.70167
8.07623
11.7769
16.8814
23.1875
30.1943
37.1181
42.9623
46.6829
47.4677
45.0569
40.0326
34.0803
28.3929
23.3556
19.1286
15.7218
13.0593
10.9534
9.47963
8.55328
8.00252
7.77103
7.87099
8.41878
9.82443
12.8066
19.2045
35.3447
94.8884
456.056
3297.19
3.67415
3.03588
2.5395
2.21147
1.99187
1.84357
1.74377
1.67773
1.6354
1.60989
1.59722
1.5922
1.59145
1.59723
1.60503
1.61574
1.62782
1.64148
1.65626
1.67218
1.68918
1.70726
1.72652
1.74668
1.76804
1.79102
1.81581
1.84255
1.87147
4.53277
5.93046
8.57786
12.7783
18.6729
26.1285
34.6912
43.585
51.7474
57.9414
60.9916
60.1486
55.4412
47.9101
39.7698
32.4009
26.1327
21.0324
17.0175
13.9363
11.5375
9.87577
8.83391
8.20827
7.90493
7.96387
8.49953
9.88856
12.8486
19.2195
35.3717
95.3848
461.438
3341.04
4.6249
3.65165
2.93511
2.47388
2.16898
1.96341
1.82448
1.73115
1.66963
1.63046
1.60718
1.59602
1.59189
1.59172
1.59802
1.60603
1.61679
1.62891
1.64252
1.65726
1.6731
1.69003
1.70802
1.72686
1.74668
1.76804
1.79102
1.81581
1.84255
1.87143
6.15768
9.07858
13.7794
20.4739
29.1088
39.2924
50.2841
61.0077
70.1124
76.1347
77.8264
74.6129
66.9408
56.4017
45.7617
36.5407
28.9565
22.9446
18.3065
14.8022
12.1103
10.2613
9.10499
8.37966
8.01946
8.06591
8.58879
9.95973
12.8959
19.2382
35.4054
95.9382
467.3
3388.65
4.59494
6.35869
3.49725
2.84023
2.41295
2.12818
1.93587
1.80601
1.71899
1.66187
1.62576
1.6047
1.59497
1.59167
1.59223
1.59878
1.60705
1.61782
1.62998
1.64353
1.65824
1.67399
1.69085
1.70839
1.72686
1.74668
1.76804
1.79102
1.81581
1.84245
1.87136
9.57403
14.7698
22.2631
32.0887
43.9284
57.0954
70.5397
82.8741
92.4572
97.6241
97.1367
90.7333
79.4146
65.3918
51.9754
40.7614
31.7963
24.8469
19.5782
15.651
12.6685
10.6348
9.33157
8.5265
8.14593
8.1782
8.68757
10.0388
12.9493
19.2614
35.4487
96.5302
473.87
3441.61
4.34084
6.3301
10.0119
3.35694
2.75226
2.35447
2.08871
1.90922
1.78819
1.7073
1.65445
1.62129
1.60247
1.59405
1.59136
1.59288
1.59953
1.60807
1.61882
1.63104
1.64452
1.65919
1.67487
1.69126
1.70839
1.72686
1.74668
1.76804
1.79102
1.81565
1.84225
1.87129
15.7392
24.0222
35.0337
48.5372
63.9124
80.1592
95.9147
109.476
118.907
122.379
118.779
108.323
92.6924
74.7561
58.332
45.0161
34.625
26.7238
20.824
16.4779
13.2098
10.9477
9.5261
8.68894
8.28581
8.30199
8.79702
10.127
13.0098
19.2902
35.5018
97.1987
481.038
3498.88
4.11797
5.88205
10.0028
16.5971
3.22815
2.66792
2.29797
2.05052
1.88348
1.77101
1.69609
1.64737
1.61711
1.60049
1.59328
1.59113
1.59359
1.60027
1.60909
1.61982
1.63207
1.64549
1.66012
1.67529
1.69126
1.70838
1.72686
1.74668
1.76804
1.7908
1.81533
1.84204
1.87122
25.7346
37.9154
53.0673
70.6441
89.7097
108.961
126.726
140.971
149.458
150.251
142.521
127.143
106.584
84.369
64.7567
49.2621
37.4187
28.5626
22.0368
17.2791
13.6633
11.2166
9.74175
8.86895
8.44077
8.43869
8.91843
10.2253
13.0785
19.3258
35.5684
97.9176
489.139
3562.79
3.91745
5.49121
9.18714
16.652
27.2587
3.1054
2.58657
2.24338
2.01365
1.85868
1.75453
1.68538
1.64072
1.61335
1.59882
1.59264
1.591
1.59434
1.60104
1.61009
1.6208
1.63307
1.64645
1.66058
1.67529
1.69126
1.70838
1.72686
1.74668
1.76778
1.79038
1.815
1.84183
1.87114
40.7088
57.4786
77.2189
99.0654
121.791
143.814
163.149
177.387
183.975
180.98
168.057
146.922
120.894
94.1096
71.1808
53.4619
40.1581
30.3529
23.2112
17.9499
14.0532
11.5151
9.98117
9.06875
8.61268
8.58995
9.05333
10.3353
13.1566
19.3696
35.6495
98.7422
497.977
3631.4
3.72986
5.14036
8.45906
15.2856
27.4772
43.2032
2.9875
2.50813
2.19075
1.97815
1.83487
1.73877
1.67527
1.63467
1.61007
1.59738
1.59214
1.59098
1.59508
1.60182
1.61106
1.62176
1.63407
1.64691
1.66058
1.67528
1.69126
1.70839
1.72686
1.74638
1.76726
1.78994
1.81466
1.84161
1.87106
61.7361
83.5852
108.134
134.24
160.435
184.879
205.224
218.614
222.195
214.202
195.017
167.365
135.427
103.865
77.5431
57.5843
42.8271
32.0864
24.1937
18.5261
14.4857
11.8467
10.2474
9.29088
8.80374
8.75767
9.20344
10.4585
13.246
19.4235
35.75
99.6355
508.078
3708.29
3.55271
4.81477
7.79735
14.0201
25.3841
43.7278
65.5404
2.87426
2.4327
2.14016
1.9441
1.8121
1.72386
1.66602
1.62929
1.60721
1.59615
1.59177
1.59106
1.59582
1.60262
1.61202
1.62273
1.63456
1.64689
1.66058
1.67528
1.69126
1.70839
1.72651
1.74577
1.76672
1.78949
1.81432
1.84139
1.87098
89.6987
116.856
146.197
176.38
205.753
232.189
252.873
264.414
263.726
249.459
222.994
188.177
150
113.533
83.7921
61.6035
45.4128
33.5369
25.0373
19.1649
14.9662
12.2157
10.5439
9.53827
9.01645
8.94401
9.37076
10.5969
13.3482
19.4897
35.8724
100.678
519.044
3789.98
3.38529
4.51049
7.17987
12.8339
23.411
40.7309
66.5473
95.1511
2.76567
2.3604
2.09171
1.91156
1.79057
1.7102
1.65775
1.62451
1.6047
1.59512
1.59152
1.59126
1.59653
1.60345
1.613
1.6232
1.63454
1.64689
1.66058
1.67529
1.69126
1.70801
1.72582
1.74514
1.76616
1.78903
1.81396
1.84116
1.8709
125.18
157.602
191.527
225.509
257.73
285.679
305.907
314.419
308.059
286.227
251.564
209.073
164.447
123.029
89.8851
65.4984
47.577
34.7825
25.9724
19.874
15.5005
12.6268
10.8746
9.81422
9.25366
9.15149
9.55754
10.7525
13.4659
19.5712
36.023
101.819
531.786
3897.55
3.22721
4.22694
6.60011
11.7061
21.5236
37.8786
62.4807
96.8261
132.57
2.66182
2.2914
2.0455
1.88083
1.77082
1.69794
1.65034
1.62027
1.60253
1.59425
1.59136
1.59162
1.59723
1.60434
1.61346
1.62316
1.63455
1.64689
1.66058
1.67529
1.69085
1.70725
1.72511
1.74449
1.7656
1.78855
1.8136
1.84092
1.87081
168.408
205.831
244.027
281.527
316.284
345.213
364.034
368.132
354.582
323.941
280.309
229.793
178.625
132.28
95.7874
68.7583
49.4357
36.163
27.0097
20.6617
16.0953
13.0853
11.2438
10.1225
9.51864
9.38303
9.76662
10.9282
13.6012
19.6708
36.2075
103.167
547.871
4028.99
3.07807
3.96425
6.05832
10.6303
19.6923
35.1124
58.6042
91.5332
135.072
177.923
2.56289
2.22584
2.00194
1.85268
1.75308
1.68694
1.64372
1.61648
1.60069
1.59352
1.59116
1.5921
1.59799
1.60475
1.6134
1.62316
1.63455
1.64689
1.66058
1.67486
1.69001
1.70646
1.72438
1.74383
1.76501
1.78807
1.81322
1.84068
1.87072
219.261
261.299
303.471
344.287
381.312
410.615
426.859
424.934
402.609
362.023
308.835
250.11
192.419
141.23
100.724
71.5577
51.4958
37.6944
28.1617
21.5377
16.7579
13.5971
11.6566
10.4674
9.81511
9.64195
10.0006
11.1262
13.7578
19.7933
36.4329
104.954
569.144
4163.1
2.93712
3.72301
5.55622
9.61014
17.9064
32.3904
54.8162
86.5211
128.391
181.341
230.94
2.46919
2.16425
1.96211
1.82741
1.73715
1.67707
1.63779
1.6131
1.59911
1.5929
1.59101
1.59277
1.5983
1.60468
1.6134
1.62316
1.63454
1.64691
1.66012
1.67398
1.68916
1.70566
1.72363
1.74315
1.76442
1.78757
1.81284
1.84043
1.87063
277.336
323.628
369.607
413.681
452.764
481.686
493.886
484.095
451.404
399.914
336.803
269.841
205.733
148.701
104.959
74.6593
53.7811
39.395
29.4421
22.5125
17.4966
14.1688
12.1184
10.8537
10.1473
9.93209
10.2643
11.352
13.9398
19.9433
36.7634
107.317
592.423
4298.58
2.80385
3.50562
5.09476
8.65491
16.1671
29.6931
51.0565
81.6172
122.158
173.074
235.249
291.034
2.38158
2.10813
1.92643
1.80474
1.72285
1.66821
1.63249
1.61011
1.59775
1.59242
1.59113
1.59306
1.59815
1.60469
1.6134
1.62316
1.63456
1.64644
1.65917
1.67307
1.68828
1.70484
1.72286
1.74246
1.76381
1.78706
1.81244
1.84018
1.87054
342.084
392.431
442.295
489.811
530.75
558.236
564.509
544.782
500.219
437.115
363.926
288.836
216.816
155.103
109.647
78.0982
56.3183
41.2848
30.8662
23.5979
18.3204
14.8077
12.6355
11.2868
10.5199
10.2576
10.5584
11.6096
14.1526
20.162
37.2355
110.107
617.958
4433.97
2.67925
3.30775
4.67349
7.76714
14.4819
27.0176
47.2893
76.7355
116.094
165.542
225.126
296.062
357.452
2.30219
2.05803
1.8945
1.78439
1.71001
1.66027
1.62776
1.60748
1.59662
1.59229
1.59105
1.59293
1.59814
1.60469
1.6134
1.6232
1.63406
1.64548
1.65821
1.67215
1.68739
1.70399
1.72207
1.74174
1.76318
1.78653
1.81204
1.83992
1.87045
412.967
467.487
521.707
573.104
615.586
640.062
637.978
606.089
548.355
473.199
389.979
304.597
226.291
162.174
114.838
81.9129
59.1367
43.3862
32.451
24.807
19.2395
15.5219
13.2145
11.7723
10.9381
10.6242
10.8874
11.9035
14.4469
20.4783
37.8334
113.281
645.751
4568.37
2.56631
3.12765
4.29413
6.9485
12.8683
24.3725
43.5
71.8159
110.08
158.307
216.186
283.687
362.853
429.463
2.23175
2.01329
1.8659
1.76614
1.69849
1.65316
1.62353
1.60522
1.59601
1.59205
1.59074
1.59297
1.59814
1.60468
1.61346
1.62273
1.63306
1.6445
1.65723
1.6712
1.68647
1.70312
1.72127
1.74101
1.76253
1.78599
1.81162
1.83966
1.87036
489.638
548.932
608.442
664.345
707.712
726.818
713.374
667.106
595.194
507.825
411.529
318.035
236.728
169.984
120.585
86.1456
62.2686
45.7237
34.2153
26.1541
20.2647
16.32
13.8627
12.3168
11.4075
11.0373
11.2571
12.3002
14.8456
20.8671
38.5557
116.993
676.326
4700.12
2.4662
2.96708
3.95826
6.20499
11.3444
21.7753
39.6892
66.8218
104.021
151.214
207.775
273.169
347.652
434.745
506.578
2.16922
1.97334
1.84029
1.74978
1.68816
1.64677
1.61982
1.60375
1.59548
1.59167
1.59076
1.59297
1.59815
1.60475
1.61299
1.62174
1.63204
1.6435
1.65622
1.67023
1.68553
1.70223
1.72044
1.74026
1.76187
1.78544
1.81121
1.83941
1.87027
572.187
637.523
703.819
764.855
807.607
817.917
789.657
726.976
640.226
536.412
429.857
332.791
248.217
178.606
126.948
90.8417
65.7494
48.3244
36.1794
27.6546
21.4079
17.2111
14.5877
12.9267
11.9344
11.502
11.7499
12.8162
15.3024
21.3372
39.4511
121.264
709.549
4828.13
2.3777
2.82505
3.67153
5.54546
9.92951
19.2493
35.8687
61.7344
97.8497
144.123
199.691
263.543
335.289
415.873
511.151
588.834
2.11367
1.93767
1.81738
1.73511
1.67886
1.64112
1.61719
1.60269
1.59496
1.59171
1.59076
1.59292
1.5983
1.60433
1.61201
1.62077
1.631
1.64248
1.65519
1.66923
1.68457
1.70132
1.71959
1.73948
1.7612
1.7849
1.81082
1.83917
1.87019
661.481
735.033
810.252
876.568
915.708
912.543
865.786
784.954
677.436
560.683
449.919
348.97
260.848
188.116
133.986
96.0501
69.6169
51.2173
38.3656
29.3254
22.6814
18.2051
15.3974
13.6089
12.5244
12.1214
12.3796
13.3835
15.8234
21.9046
40.547
126.236
746.259
4950.43
2.29961
2.6985
3.43547
4.98333
8.65453
16.8215
32.0611
56.5477
91.5147
136.927
191.743
254.559
324.349
401.277
487.382
592.069
677.221
2.06428
1.90583
1.79687
1.7219
1.6706
1.63696
1.61546
1.60196
1.59504
1.59171
1.59074
1.59306
1.59799
1.60343
1.61104
1.61978
1.62994
1.64144
1.65415
1.6682
1.68359
1.70038
1.71873
1.7387
1.76053
1.78437
1.81043
1.83894
1.87011
759.642
844.938
931.619
1002.06
1032.24
1009.93
940.761
833.154
709.032
587.191
471.831
366.672
274.708
198.588
141.764
101.822
73.9111
54.4333
40.7972
31.1839
24.0984
19.3117
16.2999
14.3696
13.307
12.9053
13.0596
14.0039
16.4133
22.5898
41.8911
132.027
786.176
5065.96
2.23074
2.58581
3.23686
4.51556
7.54977
14.5356
28.2983
51.2684
84.9758
129.533
183.782
245.961
314.518
388.837
470.049
561.666
678.668
774.423
2.02035
1.87743
1.77843
1.71017
1.66434
1.63433
1.6145
1.60207
1.59503
1.59167
1.59105
1.59277
1.59721
1.6026
1.61005
1.61879
1.62887
1.64037
1.65308
1.66715
1.68258
1.69942
1.71784
1.73792
1.75988
1.78386
1.81005
1.83871
1.87002
871.063
973.356
1074.07
1144.09
1158.37
1109.02
1004.04
874.236
743.543
616.066
495.697
385.987
289.88
210.096
150.345
108.208
78.6737
58.0047
43.4986
33.2484
25.672
20.541
17.302
15.3737
14.2884
13.7408
13.7884
14.6764
17.0811
23.407
43.5506
138.764
830.501
5172.75
2.16998
2.48585
3.06642
4.1296
6.62023
12.4844
24.6482
45.9187
78.2041
121.851
175.662
237.553
305.463
378.153
455.827
541.021
639.074
774.295
886.112
1.98127
1.85198
1.76205
1.70113
1.66047
1.63306
1.61465
1.60207
1.59496
1.59205
1.59113
1.59209
1.59651
1.60179
1.60905
1.61778
1.62778
1.63927
1.65199
1.66608
1.68156
1.69845
1.71697
1.73717
1.75925
1.78337
1.80969
1.83849
1.86995
1003.9
1131.44
1245.26
1311.01
1294.18
1194.84
1058.47
919.291
781.141
647.423
521.605
406.993
306.437
222.709
159.787
115.261
83.9461
61.9639
46.4948
35.5373
27.4155
21.9014
18.619
16.6224
15.3234
14.6217
14.5617
15.403
17.8298
24.3899
45.5669
146.735
878.765
5270.14
2.11629
2.39762
2.91756
3.81223
5.84824
10.7116
21.2539
40.5763
71.1868
113.795
167.237
229.142
296.94
368.786
444.213
524.65
614.546
721.604
886.131
1024.61
1.94638
1.82942
1.74921
1.69565
1.65881
1.63328
1.61465
1.60196
1.59548
1.59229
1.59101
1.59161
1.5958
1.60101
1.60803
1.61675
1.62667
1.63815
1.65088
1.66498
1.68051
1.69748
1.71612
1.73644
1.75864
1.78289
1.80933
1.83828
1.86987
1174.75
1336.02
1473.74
1508.03
1415.77
1269.69
1118.82
968.653
822.008
681.365
549.619
429.745
324.433
236.483
170.147
123.028
89.7682
66.3427
49.8097
38.0683
29.3404
23.6831
20.2461
17.9284
16.4026
15.5403
15.3756
16.1779
18.6721
25.5456
48.0615
156.026
932.564
5356.46
2.06866
2.32008
2.78582
3.55397
5.21366
9.20829
18.2074
35.4423
63.9834
105.287
158.349
220.522
288.708
360.444
434.614
511.958
595.604
692.582
814.856
1031.44
1214.43
1.91549
1.81156
1.74152
1.69354
1.65911
1.63328
1.6145
1.6027
1.59602
1.59243
1.59116
1.59126
1.59506
1.60025
1.60701
1.6157
1.62556
1.63699
1.64976
1.66386
1.67948
1.69655
1.71529
1.73574
1.75805
1.78242
1.80898
1.83807
1.86979
1419.19
1658.21
1775.69
1688.24
1523.22
1353.96
1185.95
1022.84
866.389
718.004
579.793
454.275
343.903
251.458
181.466
131.55
96.1757
71.1702
53.4659
40.8568
31.8547
25.8737
21.9376
19.2792
17.5154
16.4889
16.2242
17.0049
19.6053
26.9256
51.0469
167.194
991.185
5432.01
2.02666
2.25189
2.66864
3.34163
4.69471
7.95224
15.5151
30.6736
56.8356
96.3305
148.83
211.459
280.513
352.833
426.676
502.131
581.61
670.637
780.243
931.812
1256.98
1526.06
1.89075
1.80106
1.73881
1.69395
1.65911
1.63306
1.61547
1.60377
1.59664
1.59292
1.59136
1.59106
1.59431
1.5995
1.606
1.61463
1.62444
1.63581
1.64862
1.66275
1.67848
1.69565
1.71449
1.73505
1.75747
1.78197
1.80865
1.83787
1.86972
1867.44
2111.33
2043.78
1847.96
1647.16
1450.18
1261.71
1082.77
914.708
757.498
612.17
480.59
364.853
267.652
193.772
140.858
103.197
76.4705
57.4811
44.4901
34.9345
28.1413
23.6776
20.6617
18.6511
17.4592
17.1041
17.881
20.6518
28.5246
54.717
180.228
1056.5
5495.63
1.99278
2.1924
2.56439
3.16276
4.27323
6.91257
13.1791
26.3134
49.9626
87.1592
138.584
201.689
272.058
345.668
420.056
494.732
571.493
655.02
754.916
889.726
1105.45
1712.17
2187.33
1.87629
1.79769
1.73935
1.69395
1.65881
1.63433
1.61723
1.60526
1.59779
1.59354
1.59153
1.59098
1.59357
1.59876
1.60501
1.61352
1.62332
1.63462
1.64749
1.66169
1.6775
1.69478
1.71371
1.73439
1.75691
1.78153
1.80832
1.83767
1.86969