/*--------------------------------*- C++ -*----------------------------------*\
  =========                 |
  \\      /  F ield         | OpenFOAM: The Open Source CFD Toolbox
   \\    /   O peration     | Website:  https://openfoam.org
    \\  /    A nd           | Version:  8
     \\/     M anipulation  |
\*---------------------------------------------------------------------------*/
FoamFile
{
    version     2.0;
    format      ascii;
    class       volScalarField;
    location    "1800";
    object      nut;
}
// * * * * * * * * * * * * * * * * * * * * * * * * * * * * * * * * * * * * * //

dimensions      [0 2 -1 0 0 0 0];

internalField   nonuniform List<scalar> 
15677
(
7.47989e-05
0.000154173
8.20047e-05
0.000258016
0.000137613
8.01557e-05
0.000722415
0.000177817
0.000111477
7.67059e-05
0.001806
0.000374864
0.000147545
0.00010861
7.42881e-05
0.00331824
0.000873553
0.000310326
0.000125458
0.000111432
7.26948e-05
0.00477633
0.00171999
0.000665373
0.000257555
0.000122941
0.000117668
7.1705e-05
0.00581853
0.00284082
0.00126593
0.000566653
0.000234052
0.00012312
0.000124298
7.09952e-05
0.00636649
0.00405889
0.00211295
0.00106493
0.000504706
0.000212594
0.000127192
0.000129256
7.05315e-05
0.00658968
0.00517054
0.00314448
0.00176655
0.000947186
0.000461462
0.00020535
0.000135451
0.000134133
7.01526e-05
0.00667776
0.00598075
0.00423169
0.00264963
0.00156255
0.000868472
0.000428081
0.000196537
0.000145037
0.000136524
6.98926e-05
0.00671614
0.0064139
0.00521237
0.00364258
0.00234442
0.00142931
0.000808299
0.000401578
0.00019211
0.000153585
0.000139251
6.97388e-05
0.00671481
0.00659629
0.00595684
0.00462961
0.0032513
0.00214081
0.00133278
0.000759268
0.000377475
0.000192697
0.00016186
0.000141392
6.96899e-05
0.00670857
0.00668362
0.00639455
0.00548103
0.00420188
0.0029782
0.0019949
0.00125774
0.000717985
0.000358161
0.000195397
0.000169005
0.000143047
6.97163e-05
0.00670621
0.00670343
0.00659108
0.00609903
0.00508693
0.00388366
0.00277852
0.00188434
0.00119578
0.000683337
0.000340325
0.00019915
0.000175636
0.000144255
6.98069e-05
0.00670582
0.00670342
0.00667467
0.00645433
0.00580055
0.00476846
0.00364147
0.00262672
0.00179608
0.0011445
0.000649389
0.000328238
0.000204221
0.000180817
0.000145225
6.99917e-05
0.00670589
0.00670177
0.00669496
0.00661942
0.00628321
0.0055319
0.00451209
0.00345293
0.00250686
0.00172462
0.00109914
0.00062089
0.000319747
0.00020911
0.00018567
0.000145883
7.02701e-05
0.00670597
0.00670099
0.00669786
0.00667433
0.00654093
0.00609646
0.00529952
0.00430454
0.00330265
0.00241065
0.00166428
0.00105921
0.000595837
0.000314183
0.000214425
0.000189099
0.000146343
7.06299e-05
0.00670601
0.00670077
0.00669748
0.00668926
0.00664246
0.00643993
0.00592119
0.00510112
0.00413491
0.00318118
0.00233144
0.00161329
0.00102358
0.000576089
0.000310932
0.000218836
0.000192686
0.000146504
7.10712e-05
0.00670602
0.00670073
0.006697
0.00669235
0.00667638
0.00659549
0.00633638
0.00576079
0.00493256
0.00399512
0.00308174
0.00226601
0.00156888
0.000993824
0.000559725
0.000309192
0.000223451
0.000194855
0.000146452
7.15916e-05
0.00670602
0.00670072
0.00669679
0.00669253
0.00668633
0.00665569
0.00654082
0.0062303
0.005617
0.00478943
0.00387958
0.00299986
0.00221128
0.00153204
0.000967843
0.000546805
0.000308858
0.000227239
0.000196806
0.000146251
7.21884e-05
0.00670602
0.0067007
0.00669674
0.00669228
0.00668865
0.00667676
0.00662923
0.00648076
0.00612815
0.00548989
0.00466855
0.00378362
0.00293245
0.00216593
0.0015002
0.000947264
0.000537085
0.000309476
0.000230952
0.000198021
0.000145843
7.28568e-05
0.00670602
0.00670068
0.00669673
0.00669208
0.00668897
0.00668307
0.0066645
0.00659786
0.00641851
0.00603324
0.005379
0.00456636
0.00370462
0.00287795
0.00212832
0.0014755
0.000929959
0.000531134
0.000311064
0.00023404
0.000199114
0.000145267
7.35923e-05
0.00670601
0.00670068
0.00669672
0.00669196
0.0066889
0.00668453
0.00667709
0.00664878
0.00656335
0.00635749
0.00594663
0.00528288
0.00448144
0.00364
0.00283286
0.00209966
0.00145483
0.000918182
0.000527215
0.000313111
0.00023702
0.000199832
0.000144541
7.43871e-05
0.00670599
0.00670068
0.00669671
0.0066919
0.00668881
0.00668464
0.00668103
0.00666876
0.00663113
0.00652771
0.00629873
0.00586943
0.00520163
0.00441104
0.0035889
0.00279868
0.00207697
0.00144155
0.000909403
0.000526365
0.000316123
0.000238822
0.000200069
0.000143673
7.52365e-05
0.00670598
0.00670069
0.00669669
0.00669186
0.00668875
0.0066845
0.00668203
0.00667572
0.0066602
0.00661167
0.00649171
0.00624535
0.00580219
0.00513283
0.00435498
0.00354881
0.00277353
0.00206326
0.00143192
0.000905981
0.000526928
0.000319534
0.000241021
0.000200035
0.000142705
7.61315e-05
0.00670596
0.00670071
0.00669666
0.00669185
0.0066887
0.00668436
0.00668216
0.00667776
0.00667158
0.00664965
0.00659184
0.00645868
0.00619639
0.00574435
0.00507854
0.00431209
0.00352026
0.00275783
0.0020539
0.00142856
0.000905875
0.000530836
0.000322635
0.000243076
0.000199773
0.00014163
7.70669e-05
0.00670594
0.00670073
0.00669663
0.00669185
0.00668865
0.00668427
0.00668209
0.00667816
0.00667556
0.00666536
0.00663998
0.00657292
0.00642632
0.00615571
0.00569907
0.00503497
0.00427969
0.00350136
0.00275004
0.00205552
0.0014316
0.000909229
0.000535438
0.000326647
0.000244608
0.000199247
0.000140488
7.80325e-05
0.00670592
0.00670075
0.0066966
0.00669186
0.0066886
0.00668421
0.00668199
0.0066781
0.00667672
0.00667122
0.00666135
0.00662944
0.00655471
0.00640241
0.00611972
0.0056594
0.00500529
0.00426407
0.00349829
0.00275598
0.00206213
0.00143814
0.00091579
0.000541563
0.000330823
0.000245914
0.000198575
0.000139273
7.90245e-05
0.00670591
0.00670078
0.00669658
0.00669188
0.00668855
0.00668418
0.00668189
0.00667797
0.00667691
0.00667309
0.00667003
0.00665539
0.00662154
0.00654157
0.0063766
0.00609539
0.00564257
0.00499355
0.00426015
0.00350223
0.00276393
0.00207369
0.00144897
0.000925947
0.000549792
0.00033561
0.000247077
0.00019769
0.00013802
8.0026e-05
0.00670589
0.0067008
0.00669655
0.0066919
0.0066885
0.00668417
0.0066818
0.00667785
0.00667683
0.00667347
0.00667316
0.00666642
0.00665372
0.00661439
0.00652828
0.00636612
0.00608671
0.00563102
0.00498775
0.00426293
0.00351387
0.00278015
0.00209138
0.00146569
0.000939162
0.000559591
0.000340701
0.000248055
0.000196727
0.000136769
8.11483e-05
0.00670588
0.00670081
0.00669652
0.00669192
0.00668845
0.00668418
0.00668171
0.00667777
0.00667669
0.00667342
0.00667402
0.00667061
0.00666804
0.00665043
0.00661262
0.00652711
0.00636353
0.00608077
0.00562766
0.00499185
0.00427802
0.00353702
0.00280799
0.00211743
0.00148722
0.000955486
0.000570956
0.000346075
0.000248946
0.00019559
0.000135418
8.23958e-05
0.00670587
0.00670083
0.0066965
0.00669194
0.0066884
0.00668419
0.00668163
0.00667772
0.00667655
0.00667327
0.00667412
0.00667186
0.00667382
0.00666714
0.00665503
0.00661557
0.00652966
0.00636601
0.00608382
0.00563906
0.00501404
0.00430815
0.00357205
0.00284439
0.00215048
0.00151356
0.000974498
0.00058363
0.000351813
0.0002497
0.000194315
0.00013396
8.36283e-05
0.00670586
0.00670084
0.00669648
0.00669197
0.00668836
0.00668421
0.00668154
0.0066777
0.00667641
0.00667313
0.00667399
0.00667206
0.00667574
0.00667419
0.00667501
0.00666256
0.00662311
0.00653902
0.00637721
0.00610408
0.00566752
0.00505022
0.00435113
0.00361804
0.00288863
0.00219033
0.00154401
0.000996324
0.000597852
0.00035797
0.000250538
0.000192607
0.00013254
8.48414e-05
0.00670585
0.00670086
0.00669646
0.00669199
0.00668832
0.00668423
0.00668146
0.00667769
0.00667627
0.00667301
0.00667381
0.00667194
0.0066762
0.00667665
0.00668379
0.00668568
0.00667278
0.00663782
0.00655871
0.00640442
0.00613927
0.00571098
0.00510138
0.00440703
0.00367473
0.00294183
0.0022356
0.00157965
0.00102068
0.000613045
0.000365417
0.000251548
0.000190902
0.000131197
8.60238e-05
0.00670087
0.00670585
0.00669645
0.006692
0.00668829
0.00668425
0.00668139
0.0066777
0.00667613
0.00667293
0.00667361
0.00667174
0.00667616
0.00667729
0.00668706
0.00669631
0.00669758
0.00669094
0.00666492
0.00659212
0.00644642
0.00619016
0.00577099
0.00516745
0.00447631
0.00374247
0.00300326
0.00228726
0.00161947
0.00104765
0.000630953
0.00037437
0.000252736
0.000189019
0.000129881
8.71708e-05
0.00669643
0.00670089
0.00670585
0.00669202
0.00668825
0.00668428
0.00668132
0.00667771
0.006676
0.00667289
0.00667341
0.00667154
0.00667597
0.00667728
0.00668806
0.00670052
0.00670924
0.00671799
0.00672329
0.0067033
0.00664035
0.00650444
0.00625877
0.00584776
0.00524958
0.00455894
0.00382083
0.00307328
0.00234486
0.00166308
0.00108042
0.000652232
0.000383602
0.000253933
0.000187231
0.000128677
8.82762e-05
0.00669203
0.00669644
0.00670094
0.00670585
0.00668823
0.0066843
0.00668126
0.00667774
0.00667587
0.00667287
0.00667321
0.00667138
0.00667574
0.00667706
0.00668823
0.00670198
0.00671407
0.00673106
0.00675383
0.00676561
0.00675687
0.00670516
0.00658115
0.00634568
0.00594288
0.00534728
0.00465506
0.00391035
0.00315115
0.00240837
0.00171581
0.00112001
0.000674609
0.000393336
0.000255333
0.00018532
0.00012749
8.93368e-05
0.0066882
0.00669208
0.00669648
0.00670098
0.00670585
0.00668431
0.0066812
0.00667776
0.00667575
0.00667288
0.006673
0.00667127
0.00667549
0.00667679
0.0066881
0.00670236
0.00671588
0.00673679
0.00676925
0.00679918
0.00682351
0.00682699
0.00678932
0.0066782
0.00645392
0.00605653
0.00546196
0.00476485
0.00400988
0.00323722
0.00248494
0.00177989
0.00116229
0.000698
0.000403624
0.000256752
0.000183572
0.000126342
9.03494e-05
0.00668433
0.00668822
0.00669216
0.00669651
0.00670102
0.00670585
0.00668115
0.00667778
0.00667564
0.0066729
0.0066728
0.00667121
0.00667524
0.00667653
0.00668788
0.00670234
0.00671649
0.0067392
0.00677654
0.00681668
0.00686034
0.00689804
0.00691731
0.00689384
0.00679667
0.00658303
0.0061911
0.00559359
0.00488786
0.00412057
0.00334108
0.00257764
0.00184861
0.00120785
0.000722404
0.000414246
0.000258361
0.0001819
0.000125241
9.13128e-05
0.00668111
0.00668439
0.00668827
0.00669224
0.00669655
0.00670107
0.00670586
0.0066778
0.00667554
0.00667292
0.0066726
0.00667119
0.00667497
0.00667631
0.00668765
0.00670216
0.00671662
0.00674022
0.00677997
0.00682555
0.00688092
0.006939
0.00699348
0.00702728
0.00702001
0.0069366
0.00673363
0.00634432
0.00574359
0.00502504
0.00425362
0.00346687
0.00267717
0.00192156
0.00125565
0.000747507
0.000425158
0.00025996
0.000180367
0.000124204
9.22262e-05
0.00667782
0.00668111
0.0066845
0.00668833
0.00669232
0.00669659
0.00670111
0.00670586
0.00667546
0.00667295
0.00667241
0.0066712
0.00667468
0.00667615
0.0066874
0.00670193
0.00671657
0.00674067
0.00678174
0.00683036
0.00689253
0.00696359
0.00704081
0.00711249
0.00716436
0.00716996
0.00709728
0.00690302
0.00651569
0.00590883
0.00519384
0.00441786
0.00360316
0.00278314
0.0019984
0.00130491
0.000773269
0.000436289
0.000261753
0.000178913
0.000123227
9.30899e-05
0.00667538
0.00667789
0.00668116
0.00668462
0.00668839
0.00669241
0.00669663
0.00670115
0.00670587
0.00667298
0.00667223
0.00667123
0.00667438
0.00667606
0.00668715
0.0067017
0.00671644
0.00674087
0.00678277
0.00683326
0.00689952
0.00697846
0.00707082
0.00716677
0.00725935
0.00732804
0.00734969
0.00728477
0.00709174
0.00670291
0.00610777
0.00539754
0.00459543
0.00374818
0.00289493
0.00207826
0.00135576
0.000799435
0.00044754
0.000263478
0.000177573
0.000122319
9.39044e-05
0.006673
0.00667534
0.00667803
0.00668122
0.00668474
0.00668845
0.00669249
0.00669668
0.00670119
0.00670588
0.00667207
0.00667128
0.00667407
0.00667603
0.00668689
0.00670147
0.00671629
0.00674096
0.00678346
0.0068353
0.0069043
0.00698834
0.00709089
0.00720368
0.00732319
0.00743467
0.00752243
0.00755647
0.0075004
0.00730614
0.00692786
0.00634356
0.00561339
0.00478233
0.00390033
0.00301106
0.0021607
0.00140773
0.000825994
0.000458921
0.000265406
0.000176322
0.000121471
9.4671e-05
0.00667193
0.00667308
0.00667535
0.00667816
0.00668128
0.00668485
0.00668852
0.00669257
0.00669672
0.00670123
0.00670588
0.00667134
0.00667377
0.00667608
0.0066866
0.00670125
0.00671612
0.00674099
0.00678394
0.0068369
0.00690795
0.00699577
0.00710558
0.00723037
0.00737
0.00751067
0.00764436
0.00774721
0.00779316
0.00774186
0.00757161
0.00720876
0.0065955
0.00583695
0.00497496
0.00405689
0.00313071
0.00224493
0.00146057
0.000852654
0.000470237
0.000267337
0.000175175
0.00012069
9.5391e-05
0.00667139
0.00667179
0.00667321
0.00667536
0.0066783
0.00668136
0.00668497
0.0066886
0.00669266
0.00669678
0.00670127
0.00670589
0.00667347
0.00667618
0.00668626
0.00670105
0.00671596
0.00674098
0.00678431
0.00683823
0.00691093
0.00700192
0.0071174
0.0072512
0.00740682
0.00757033
0.00773668
0.00788803
0.00800638
0.00806006
0.00803943
0.00789779
0.00751631
0.00686806
0.0060681
0.00517067
0.00421642
0.00325225
0.00233041
0.00151383
0.000879469
0.00048117
0.000269469
0.000174124
0.000119967
9.60664e-05
0.00667321
0.00667146
0.00667164
0.00667334
0.00667539
0.00667844
0.00668144
0.00668508
0.00668868
0.00669274
0.00669684
0.00670131
0.00670591
0.00667632
0.00668588
0.00670089
0.00671582
0.00674097
0.00678461
0.00683936
0.00691344
0.00700724
0.00712748
0.0072688
0.00743756
0.00762017
0.00781395
0.00800097
0.00817164
0.00830055
0.00839137
0.00840811
0.00825363
0.007844
0.00715681
0.00631096
0.00536722
0.00437594
0.00337427
0.00241616
0.00156724
0.00090624
0.000491804
0.000271497
0.000173155
0.000119304
9.66986e-05
0.00667649
0.00667279
0.00667152
0.0066715
0.00667347
0.00667543
0.00667857
0.00668154
0.0066852
0.00668878
0.00669282
0.0066969
0.00670135
0.00670592
0.00668544
0.00670077
0.00671571
0.00674096
0.00678485
0.00684032
0.00691561
0.00701195
0.00713628
0.00728441
0.00746463
0.00766329
0.00788235
0.00810122
0.00831184
0.0084959
0.00866886
0.00880575
0.00881369
0.008636
0.00818909
0.0074558
0.00656279
0.00556816
0.00453425
0.0034957
0.00250185
0.00162042
0.000933218
0.000502136
0.000273701
0.000172283
0.000118693
9.72903e-05
0.00668496
0.00667654
0.00667218
0.0066716
0.00667138
0.0066736
0.00667549
0.0066787
0.00668164
0.00668531
0.00668887
0.0066929
0.00669696
0.00670138
0.00670593
0.00670073
0.00671564
0.00674096
0.00678506
0.00684115
0.00691749
0.00701613
0.00714407
0.00729855
0.00748902
0.00770205
0.00794434
0.00819433
0.00844252
0.00867005
0.00890641
0.00913518
0.00926676
0.00925386
0.0090422
0.00854883
0.00776276
0.00681863
0.00577269
0.00469167
0.00361611
0.00258661
0.00167311
0.000959977
0.000512172
0.000275784
0.000171471
0.000118135
9.78428e-05
0.0067008
0.0066837
0.0066765
0.00667157
0.00667167
0.0066713
0.00667372
0.00667558
0.00667882
0.00668176
0.00668542
0.00668898
0.00669298
0.00669702
0.00670142
0.00670594
0.00671562
0.00674099
0.00678524
0.00684186
0.00691913
0.00701985
0.007151
0.00731143
0.00751114
0.00773771
0.00800206
0.00828077
0.00856794
0.00884009
0.0091305
0.00943402
0.00966137
0.00977422
0.00972774
0.00947062
0.00892099
0.00807547
0.00707604
0.00597844
0.00484638
0.00373361
0.00266988
0.00172503
0.000986265
0.000521914
0.000277802
0.000170741
0.000117623
9.83588e-05
0.00671563
0.00670035
0.00668149
0.00667651
0.00667101
0.00667172
0.00667126
0.00667381
0.00667569
0.00667894
0.0066819
0.00668552
0.00668909
0.00669306
0.00669709
0.00670145
0.00670595
0.00674104
0.00678538
0.00684247
0.00692057
0.00702315
0.00715719
0.00732317
0.00753121
0.00777087
0.00805621
0.00836166
0.00868735
0.00901115
0.00936072
0.00973149
0.0100399
0.010253
0.0103328
0.0102376
0.00992116
0.0093041
0.00839214
0.00733356
0.006184
0.00500108
0.00384824
0.00275126
0.00177591
0.00101208
0.00053134
0.000279825
0.000170064
0.000117156
9.88399e-05
0.00674112
0.00671454
0.00669948
0.00667925
0.00667649
0.00667055
0.00667172
0.00667128
0.00667389
0.00667582
0.00667905
0.00668204
0.00668563
0.0066892
0.00669314
0.00669715
0.00670149
0.00670597
0.00678548
0.006843
0.00692186
0.00702609
0.00716274
0.00733383
0.00754943
0.00780178
0.00810675
0.00843773
0.0088029
0.00918103
0.00959904
0.0100493
0.0104398
0.0107456
0.0109286
0.010954
0.0107886
0.010395
0.00969742
0.00871141
0.00759004
0.00638661
0.00515435
0.00395987
0.00283047
0.00182554
0.00103729
0.000540459
0.0002818
0.000169456
0.000116727
9.92885e-05
0.00678558
0.00673926
0.00671225
0.00669864
0.00667731
0.00667631
0.00667022
0.00667167
0.00667135
0.00667395
0.00667598
0.00667916
0.00668219
0.00668574
0.0066893
0.00669321
0.0066972
0.00670152
0.00670598
0.00684347
0.00692301
0.00702872
0.00716775
0.0073435
0.00756599
0.00783052
0.00815359
0.00850969
0.00891581
0.00934873
0.00983479
0.0103914
0.0109015
0.0113147
0.0115968
0.0117154
0.0116511
0.0113859
0.0108933
0.0101004
0.00903223
0.00784441
0.0065856
0.00530512
0.00406831
0.00290726
0.00187375
0.00106185
0.000549254
0.000283711
0.000168889
0.000116338
9.97062e-05
0.00684394
0.00678242
0.00673528
0.0067099
0.00669751
0.00667597
0.00667593
0.00667004
0.00667156
0.00667147
0.006674
0.00667615
0.00667927
0.00668234
0.00668585
0.00668941
0.00669329
0.00669726
0.00670155
0.00670599
0.00692406
0.00703109
0.00717228
0.00735226
0.00758108
0.00785712
0.00819682
0.00857813
0.00902557
0.00951146
0.0100662
0.0107587
0.0114579
0.0120385
0.012432
0.0126303
0.0126276
0.012428
0.0120296
0.0114151
0.0105118
0.00935353
0.00809577
0.00678041
0.00545261
0.0041734
0.00298149
0.00192043
0.00108564
0.000557729
0.000285564
0.000168373
0.00011598
0.000100044
0.00692509
0.00683978
0.00677573
0.00673131
0.00670755
0.00669575
0.00667517
0.00667531
0.00667002
0.00667139
0.00667164
0.00667404
0.00667634
0.00667938
0.00668248
0.00668595
0.00668951
0.00669336
0.00669732
0.00670158
0.006706
0.00703324
0.00717639
0.0073602
0.00759485
0.00788163
0.0082367
0.00864325
0.00913069
0.00966716
0.0102992
0.0111695
0.0121193
0.0129579
0.0135207
0.0137951
0.0138298
0.0136479
0.0132723
0.0127123
0.0119563
0.0109296
0.00967407
0.00834331
0.00697054
0.00559621
0.00427488
0.00305296
0.00196543
0.00110865
0.000565868
0.00028734
0.000167917
0.000115698
0.000100327
0.00703528
0.00691936
0.00683053
0.00676896
0.00672753
0.00670523
0.00669358
0.00667483
0.0066745
0.00667013
0.00667119
0.00667184
0.00667409
0.00667652
0.00667949
0.00668262
0.00668606
0.0066896
0.00669343
0.00669737
0.00670162
0.00670601
0.00718014
0.00736741
0.00760743
0.00790414
0.00827351
0.00870493
0.0092298
0.00981633
0.0105428
0.0116349
0.0128759
0.014008
0.0148256
0.0152365
0.0153042
0.0151223
0.0147291
0.0141561
0.0134188
0.0125095
0.0113505
0.00999236
0.00858624
0.00715554
0.00573551
0.00437288
0.00312137
0.00200868
0.00113078
0.000573679
0.000289054
0.000167538
0.000115463
0.000100634
0.00718365
0.00702757
0.00690608
0.00682141
0.00676237
0.006724
0.00670295
0.00669091
0.00667488
0.00667356
0.00667032
0.00667098
0.00667204
0.00667415
0.00667669
0.00667961
0.00668275
0.00668616
0.00668969
0.0066935
0.00669742
0.00670165
0.00670602
0.00737395
0.00761891
0.00792476
0.00830752
0.00876287
0.00932234
0.00996128
0.0108028
0.0121466
0.0136818
0.0150868
0.0161528
0.0167907
0.0169799
0.0168173
0.0164145
0.0158122
0.0150444
0.0141299
0.0130648
0.0117703
0.0103065
0.00882371
0.00733502
0.00587003
0.00446783
0.00318677
0.00205009
0.00115207
0.000581151
0.000290465
0.000167239
0.000115216
0.000100966
0.00737997
0.00717332
0.0070088
0.00689286
0.00681266
0.00675611
0.00672069
0.00670118
0.00668782
0.00667515
0.00667258
0.00667053
0.00667081
0.00667223
0.00667424
0.00667685
0.00667974
0.00668288
0.00668627
0.00668978
0.00669357
0.00669747
0.00670168
0.00670602
0.0076294
0.00794361
0.0083389
0.00881682
0.00940857
0.0101044
0.0110782
0.0126804
0.0144761
0.0160947
0.0173497
0.0181894
0.0186008
0.018581
0.0182198
0.017629
0.0168462
0.0159049
0.0148265
0.013612
0.0121838
0.0106145
0.00905485
0.00750864
0.00599931
0.00455943
0.00324923
0.00208971
0.00117242
0.000587324
0.000291678
0.0001669
0.000114948
0.000101326
0.00763901
0.00736662
0.00714702
0.00699005
0.00688007
0.00680421
0.00675018
0.00671753
0.0066999
0.0066846
0.0066755
0.00667167
0.00667071
0.0066707
0.00667239
0.00667434
0.006677
0.00667987
0.00668299
0.00668638
0.00668986
0.00669364
0.00669752
0.00670169
0.00670602
0.00796083
0.0083678
0.00886672
0.00948924
0.0102471
0.0113623
0.0132081
0.0152087
0.0169669
0.0183358
0.0193101
0.0199086
0.0201287
0.0199542
0.0194497
0.0187198
0.0177973
0.0167139
0.0154931
0.0141418
0.0125864
0.0109139
0.00927876
0.00767599
0.00612327
0.00464749
0.00330882
0.00212741
0.00118926
0.000592602
0.000293015
0.000166562
0.000114669
0.000101715
0.00797639
0.00762179
0.00733041
0.00712075
0.00697181
0.00686766
0.00679599
0.00674445
0.00671455
0.00669881
0.00668149
0.00667575
0.00667092
0.00667082
0.00667067
0.00667252
0.00667447
0.00667713
0.00668
0.0066831
0.00668648
0.00668994
0.00669371
0.00669754
0.00670169
0.00670602
0.00839435
0.00891267
0.00956522
0.0103891
0.0116457
0.0137063
0.0158507
0.0176789
0.0190925
0.0201317
0.0208477
0.0212597
0.0213491
0.0210794
0.0204876
0.019668
0.0186481
0.0174567
0.016119
0.0146475
0.0129744
0.0112029
0.00949425
0.00783674
0.00624188
0.00473184
0.00336549
0.00215858
0.00120366
0.000598433
0.000294503
0.000166174
0.000114367
0.000102137
0.0084183
0.00795477
0.00757229
0.00729419
0.00709516
0.00695408
0.00685558
0.00678792
0.00673897
0.00671175
0.00669777
0.00667874
0.00667574
0.00667041
0.00667083
0.00667071
0.00667262
0.00667461
0.00667725
0.00668014
0.00668321
0.00668658
0.00669002
0.00669374
0.00669754
0.00670169
0.00670602
0.00895492
0.00963719
0.0105289
0.0119191
0.0141603
0.0163923
0.0182348
0.0196388
0.0206846
0.0214521
0.021982
0.0222725
0.0222869
0.0219722
0.0213398
0.020473
0.0193936
0.0181266
0.0166974
0.015124
0.0133449
0.01148
0.00970063
0.00799035
0.00635505
0.00481248
0.00341236
0.0021851
0.00121955
0.000604893
0.000296149
0.000165796
0.000114057
0.000102593
0.00899278
0.00839094
0.00788802
0.00752278
0.00725882
0.00707023
0.0069368
0.0068438
0.00677993
0.0067339
0.00670903
0.00669662
0.00667678
0.0066754
0.00667015
0.00667076
0.0066708
0.0066727
0.00667477
0.00667736
0.00668028
0.00668331
0.00668668
0.00669006
0.00669374
0.00669754
0.00670169
0.00670602
0.00970558
0.0106645
0.0121756
0.0145634
0.0168371
0.0186535
0.0200099
0.0210195
0.0217855
0.0223675
0.0227808
0.0230034
0.0229856
0.0226628
0.0220251
0.0211447
0.020037
0.0187223
0.0172254
0.0155681
0.0136957
0.0117442
0.00989736
0.00813648
0.00646279
0.00487895
0.00345216
0.00221431
0.00123713
0.000612057
0.000297986
0.000165351
0.000113719
0.000103087
0.00976835
0.00895882
0.0083009
0.00782113
0.00747438
0.00722431
0.00704593
0.00691996
0.00683227
0.00677199
0.00672915
0.00670626
0.00669482
0.0066757
0.00667477
0.00667007
0.00667064
0.00667094
0.00667277
0.00667493
0.00667747
0.00668041
0.00668341
0.00668674
0.00669005
0.00669374
0.00669754
0.00670169
0.00670602
0.0107943
0.0124135
0.0149151
0.0171953
0.0189592
0.0202437
0.0211885
0.0219145
0.0224971
0.0229669
0.0233166
0.0235101
0.0234898
0.0231846
0.0225669
0.0216979
0.0205861
0.0192469
0.0177028
0.0159784
0.0140252
0.0119945
0.0100842
0.00827466
0.00655027
0.00493554
0.00349593
0.00224651
0.00125662
0.000620027
0.000300031
0.000164935
0.00011338
0.00010362
0.0109114
0.00972555
0.00883643
0.00821092
0.0077556
0.00742711
0.00719063
0.00702223
0.00690355
0.00682102
0.00676417
0.00672459
0.0067035
0.00669236
0.00667531
0.00667396
0.00667013
0.0066705
0.0066711
0.00667283
0.00667509
0.00667757
0.00668055
0.00668345
0.00668674
0.00669005
0.00669374
0.00669754
0.00670169
0.00670602
0.0126338
0.015217
0.0174798
0.0191753
0.0203743
0.0212368
0.0218971
0.022443
0.0229181
0.0233287
0.0236516
0.023842
0.0238394
0.0235689
0.0229885
0.0221486
0.021051
0.0197054
0.0181313
0.0163548
0.0143327
0.0122303
0.0102604
0.00838734
0.0066247
0.00499788
0.00354415
0.00228208
0.00127825
0.000628903
0.000302316
0.00016443
0.000113009
0.000104196
0.0108638
0.0128278
0.00954631
0.0087162
0.00812254
0.00769153
0.00738092
0.00715777
0.00699916
0.00688759
0.00681013
0.00675651
0.00672036
0.00670094
0.00668927
0.00667533
0.0066731
0.00667024
0.00667036
0.00667126
0.00667289
0.00667525
0.00667767
0.00668062
0.00668344
0.00668674
0.00669005
0.00669374
0.00669754
0.00670168
0.00670601
0.0154719
0.0177037
0.0193227
0.0204299
0.0212008
0.0217794
0.0222627
0.0227054
0.0231262
0.0235137
0.0238342
0.0240392
0.0240676
0.0238431
0.0233112
0.0225125
0.0214422
0.020104
0.0185139
0.016698
0.0146178
0.0124508
0.0104038
0.00848328
0.00670671
0.00506655
0.00359735
0.00232143
0.00130231
0.000638832
0.000304879
0.000163981
0.000112649
0.000104817
0.0105922
0.0127762
0.0156826
0.00937467
0.00859883
0.00803588
0.00762888
0.00733581
0.00712575
0.00697673
0.00687213
0.00679977
0.00674917
0.00671663
0.00669936
0.00668606
0.00667551
0.00667227
0.00667038
0.00667024
0.00667143
0.00667295
0.00667541
0.00667771
0.00668063
0.00668344
0.00668674
0.00669005
0.00669374
0.00669751
0.00670165
0.006706
0.0178786
0.0194184
0.0204323
0.0211081
0.0215962
0.0220003
0.0223837
0.0227765
0.0231788
0.023567
0.0239015
0.0241328
0.0242013
0.0240299
0.0235536
0.0228039
0.0217699
0.0204493
0.0188541
0.0170097
0.0148809
0.0126292
0.0105257
0.00858898
0.00679727
0.00514234
0.00365615
0.00236503
0.00132912
0.00064994
0.000307747
0.000163413
0.000112251
0.000105488
0.0103231
0.0124024
0.0156054
0.0180122
0.00921243
0.00848356
0.00795104
0.00756765
0.00729182
0.00709461
0.006955
0.00685727
0.00679003
0.0067425
0.00671329
0.00669815
0.00668303
0.00667569
0.00667155
0.0066705
0.00667015
0.00667159
0.00667302
0.0066755
0.00667769
0.00668063
0.00668344
0.00668674
0.00669006
0.00669371
0.00669747
0.00670162
0.00670599
0.0194759
0.0203982
0.0209791
0.0213732
0.0216882
0.0219939
0.0223302
0.0227089
0.0231166
0.0235214
0.0238809
0.024147
0.0242618
0.0241481
0.0237314
0.0230352
0.0220434
0.0207477
0.0191559
0.0172917
0.0150909
0.0127802
0.0106598
0.00870549
0.00689733
0.00522611
0.00372124
0.00241345
0.00135907
0.000662368
0.000310998
0.000162945
0.000111886
0.000106208
0.0100704
0.0119919
0.015256
0.0178987
0.0194984
0.0090569
0.00837014
0.00786811
0.00750788
0.00724901
0.00706442
0.00693403
0.00684313
0.00678097
0.00673639
0.00671038
0.00669707
0.00668039
0.00667575
0.00667098
0.00667058
0.00667009
0.00667174
0.00667304
0.00667551
0.00667768
0.00668063
0.00668344
0.00668674
0.00669002
0.00669364
0.00669742
0.00670158
0.00670598
0.02034
0.0208286
0.0211284
0.0213496
0.0215659
0.0218254
0.0221507
0.0225396
0.0229684
0.0234003
0.023793
0.0241003
0.0242662
0.0242128
0.0238576
0.0232173
0.022271
0.0210053
0.0194232
0.0175129
0.0152673
0.0129453
0.0108072
0.00883397
0.00700798
0.00531885
0.00379344
0.00246731
0.0013926
0.000676543
0.000314641
0.000162389
0.000111478
0.000106984
0.00983462
0.0115822
0.0148173
0.0176593
0.0193322
0.0202574
0.00890591
0.00825875
0.00778721
0.00744966
0.00720749
0.00703525
0.00691401
0.00683001
0.00677258
0.00673095
0.00670774
0.00669603
0.00667829
0.00667562
0.00667056
0.00667064
0.00667007
0.00667183
0.006673
0.00667552
0.00667768
0.00668062
0.00668345
0.00668668
0.00668994
0.00669357
0.00669737
0.00670155
0.00670597
0.0206672
0.0208749
0.021001
0.0211213
0.0212901
0.0215394
0.0218785
0.0222937
0.0227543
0.0232211
0.0236534
0.0240074
0.0242279
0.0242362
0.0239429
0.0233591
0.02246
0.0212274
0.0196283
0.0176965
0.015458
0.0131253
0.0109691
0.00897572
0.00713039
0.0054217
0.00387369
0.00252738
0.00143023
0.00069248
0.000318752
0.000161907
0.000111134
0.000107813
0.00961295
0.0111892
0.0143237
0.0173424
0.0191684
0.0200386
0.0204903
0.00875851
0.00814968
0.00770849
0.00739313
0.00716736
0.00700736
0.00689543
0.006818
0.00676483
0.00672619
0.00670527
0.00669481
0.00667696
0.0066753
0.00667027
0.00667067
0.00667003
0.00667185
0.00667298
0.00667552
0.00667769
0.00668061
0.00668341
0.00668658
0.00668986
0.0066935
0.00669731
0.00670152
0.00670595
0.0206216
0.0206541
0.0206756
0.0207452
0.020902
0.0211664
0.0215364
0.021989
0.0224885
0.0229964
0.0234742
0.0238796
0.0241575
0.024228
0.023996
0.0234681
0.0226166
0.0213931
0.0197966
0.0178921
0.0156634
0.0133214
0.0111467
0.00913227
0.00726576
0.00553592
0.00396311
0.00259454
0.00147261
0.000710691
0.000323199
0.000161414
0.000110749
0.000108702
0.00940287
0.0108188
0.013799
0.0169707
0.0189398
0.0199091
0.0202194
0.0203585
0.00861453
0.00804325
0.00763213
0.00733843
0.00712898
0.00698146
0.00687849
0.006807
0.00675762
0.00672202
0.00670289
0.00669293
0.00667619
0.00667486
0.00667009
0.00667067
0.00666999
0.00667186
0.00667298
0.00667551
0.00667771
0.00668054
0.0066833
0.00668647
0.00668977
0.00669343
0.00669726
0.00670149
0.00670594
0.0203169
0.0202396
0.0202056
0.020259
0.0204298
0.0207278
0.0211402
0.0216372
0.0221813
0.0227358
0.0232648
0.0237261
0.0240636
0.0241961
0.0240239
0.0235506
0.022728
0.0215272
0.0199731
0.0180996
0.0158842
0.0135345
0.0113416
0.00930523
0.00741569
0.005663
0.00406291
0.0026696
0.00152039
0.000731554
0.000328342
0.000160925
0.000110472
0.000109823
0.00920253
0.0104735
0.0132552
0.0165523
0.0186718
0.0197277
0.0200956
0.0200357
0.0199735
0.00847413
0.00793984
0.00755834
0.00728611
0.00709337
0.0069579
0.00686304
0.00679694
0.00675091
0.00671831
0.00670078
0.0066906
0.0066758
0.00667436
0.00667003
0.00667064
0.00666998
0.00667186
0.00667299
0.00667549
0.00667767
0.0066804
0.0066832
0.00668637
0.00668968
0.00669336
0.0066972
0.00670145
0.00670593
0.0198207
0.0196823
0.0196259
0.0196895
0.0198941
0.0202378
0.0207001
0.0212466
0.0218401
0.0224472
0.0230331
0.0235543
0.0239528
0.0241465
0.0240323
0.023602
0.0228164
0.021665
0.020157
0.0183188
0.0161205
0.0137656
0.011555
0.00949621
0.0075819
0.00580453
0.0041753
0.00275378
0.00157453
0.000755591
0.000333846
0.000160602
0.000110117
0.000111146
0.00901075
0.0101544
0.0126999
0.0160882
0.018375
0.0195214
0.0199284
0.0199001
0.0195987
0.0194076
0.0083375
0.00783989
0.0074878
0.00723756
0.007061
0.00693645
0.00684897
0.0067878
0.00674468
0.00671512
0.00669922
0.00668815
0.0066756
0.00667396
0.00667007
0.00667062
0.00666997
0.00667184
0.00667302
0.0066754
0.00667756
0.00668027
0.00668309
0.00668626
0.00668959
0.00669328
0.00669714
0.00670142
0.00670592
0.0191826
0.0190141
0.0189617
0.0190571
0.0193079
0.0197056
0.020223
0.0208223
0.0214707
0.0221368
0.0227855
0.0233701
0.0238304
0.0240841
0.0240244
0.0236408
0.0229043
0.0218054
0.0203476
0.018549
0.0163725
0.0140154
0.0117883
0.00970685
0.00776631
0.00596211
0.00430197
0.00284864
0.00163601
0.000783335