/*--------------------------------*- C++ -*----------------------------------*\
  =========                 |
  \\      /  F ield         | OpenFOAM: The Open Source CFD Toolbox
   \\    /   O peration     | Website:  https://openfoam.org
    \\  /    A nd           | Version:  8
     \\/     M anipulation  |
\*---------------------------------------------------------------------------*/
FoamFile
{
    version     2.0;
    format      ascii;
    class       surfaceScalarField;
    location    "1800";
    object      phi;
}
// * * * * * * * * * * * * * * * * * * * * * * * * * * * * * * * * * * * * * //

dimensions      [0 3 -1 0 0 0 0];

internalField   nonuniform List<scalar> 
31053
(
1.74475e-06
1.16353e-05
1.36352e-06
1.57612e-05
9.62875e-07
1.06724e-05
1.26609e-06
1.77374e-05
1.52621e-06
1.51979e-05
5.92366e-07
1.008e-05
1.20157e-06
2.03045e-05
1.50928e-06
1.77543e-05
1.20854e-06
1.45817e-05
4.3063e-07
9.64938e-06
1.1308e-06
2.33108e-05
1.45082e-06
2.0363e-05
1.33608e-06
1.76268e-05
9.69463e-07
1.40429e-05
3.05873e-07
9.34351e-06
1.0572e-06
2.67336e-05
1.3973e-06
2.33643e-05
1.32542e-06
2.03736e-05
1.18533e-06
1.74109e-05
7.45271e-07
1.36035e-05
2.12777e-07
9.13073e-06
9.80215e-07
3.0697e-05
1.34101e-06
2.67899e-05
1.29417e-06
2.33955e-05
1.22087e-06
2.03381e-05
9.99291e-07
1.71569e-05
5.6509e-07
1.32512e-05
1.51171e-07
8.97956e-06
8.99597e-07
3.52206e-05
1.27956e-06
3.07584e-05
1.25695e-06
2.68271e-05
1.20677e-06
2.34096e-05
1.07077e-06
2.02666e-05
8.24041e-07
1.6898e-05
4.28006e-07
1.29743e-05
1.08584e-07
8.87097e-06
8.1573e-07
4.04039e-05
1.21251e-06
3.52877e-05
1.21532e-06
3.08001e-05
1.1781e-06
2.68558e-05
1.07379e-06
2.34066e-05
9.1747e-07
2.01732e-05
6.72229e-07
1.66538e-05
3.21103e-07
1.27618e-05
7.72199e-08
8.79375e-06
7.29411e-07
4.63663e-05
1.1396e-06
4.04768e-05
1.16873e-06
3.53343e-05
1.14259e-06
3.08356e-05
1.05351e-06
2.68761e-05
9.32836e-07
2.33913e-05
7.77605e-07
2.00678e-05
5.40276e-07
1.64346e-05
2.37091e-07
1.2602e-05
5.17325e-08
8.74202e-06
6.41907e-07
5.32275e-05
1.06081e-06
4.64451e-05
1.11617e-06
4.05293e-05
1.10152e-06
3.53753e-05
1.02242e-06
3.08667e-05
9.18112e-07
2.68908e-05
8.00587e-07
2.33683e-05
6.49193e-07
1.99589e-05
4.23255e-07
1.62484e-05
1.68568e-07
1.24851e-05
2.74985e-08
8.71452e-06
5.55008e-07
6.10669e-05
9.76441e-07
5.33119e-05
1.05671e-06
4.65046e-05
1.0546e-06
4.05762e-05
9.84031e-07
3.54137e-05
8.88879e-07
3.08959e-05
7.88231e-07
2.69031e-05
6.74729e-07
2.33427e-05
5.28436e-07
1.98537e-05
3.17609e-07
1.60994e-05
1.08432e-07
1.24042e-05
6.56772e-09
8.70795e-06
4.70638e-07
7.00664e-05
8.87224e-07
6.11561e-05
9.89608e-07
5.3379e-05
1.00103e-06
4.65581e-05
9.39131e-07
4.06211e-05
8.50316e-07
3.54523e-05
7.57973e-07
3.09262e-05
6.61285e-07
2.69166e-05
5.52132e-07
2.33191e-05
4.12412e-07
1.97589e-05
2.2091e-07
1.59869e-05
5.46811e-08
1.23561e-05
-1.09576e-08
8.71891e-06
3.90837e-07
8.04118e-05
7.94182e-07
7.01594e-05
9.14667e-07
6.12311e-05
9.39816e-07
5.34402e-05
8.87442e-07
4.66098e-05
8.0406e-07
4.06674e-05
7.16112e-07
3.54941e-05
6.27085e-07
3.09604e-05
5.34193e-07
2.69345e-05
4.30284e-07
2.33012e-05
2.99442e-07
1.96804e-05
1.314e-07
1.59102e-05
5.85758e-09
1.23393e-05
-2.79336e-08
8.74684e-06
3.29217e-07
7.62516e-05
6.98392e-07
8.05076e-05
8.32327e-07
7.02418e-05
8.70131e-07
6.13007e-05
8.28229e-07
5.34994e-05
7.50282e-07
4.66636e-05
6.64918e-07
4.07186e-05
5.79e-07
3.55422e-05
4.93088e-07
3.10015e-05
4.04557e-07
2.69603e-05
3.07534e-07
2.32931e-05
1.88576e-07
1.96232e-05
4.75017e-08
1.58685e-05
-4.03444e-08
1.23517e-05
-4.56855e-08
8.79253e-06
2.78391e-07
7.62408e-05
6.16844e-07
7.63332e-05
7.43619e-07
8.05963e-05
7.91515e-07
7.03204e-05
7.60657e-07
6.13683e-05
6.88497e-07
5.35612e-05
6.04943e-07
4.67236e-05
5.19665e-07
4.07779e-05
4.35874e-07
3.55994e-05
3.5356e-07
3.10525e-05
2.70814e-07
2.6997e-05
1.83116e-07
2.32985e-05
7.93187e-08
1.95914e-05
-3.28957e-08
1.58611e-05
-8.53569e-08
1.23913e-05
-6.39046e-08
8.85643e-06
2.36166e-07
7.62322e-05
5.43678e-07
7.6314e-05
6.65268e-07
7.64115e-05
7.04338e-07
8.06835e-05
6.83996e-07
7.0397e-05
6.18008e-07
6.14388e-05
5.35951e-07
5.36302e-05
4.49888e-07
4.67934e-05
3.65316e-07
4.08485e-05
2.84285e-07
3.56687e-05
2.0689e-07
3.11164e-05
1.32344e-07
2.70477e-05
5.66346e-08
2.33212e-05
-2.92775e-08
1.95877e-05
-1.10921e-07
1.58867e-05
-1.29619e-07
1.24571e-05
-8.2199e-08
8.93863e-06
2.00855e-07
7.62273e-05
4.78099e-07
7.62978e-05
5.92628e-07
7.63866e-05
6.25967e-07
7.64899e-05
5.98058e-07
8.07694e-05
5.38115e-07
7.04769e-05
4.5742e-07
6.15173e-05
3.69619e-07
5.37104e-05
2.82318e-07
4.68764e-05
1.99412e-07
4.09334e-05
1.22516e-07
3.57531e-05
5.24665e-08
3.11963e-05
-1.12114e-08
2.71156e-05
-7.24926e-08
2.33644e-05
-1.37449e-07
1.96143e-05
-1.87032e-07
1.59441e-05
-1.73065e-07
1.25479e-05
-1.00198e-07
9.03883e-06
1.71142e-07
7.62197e-05
4.19336e-07
7.62861e-05
5.25565e-07
7.63649e-05
5.52285e-07
7.64603e-05
5.19702e-07
7.65682e-05
4.48534e-07
8.0859e-05
3.68777e-07
7.05656e-05
2.78514e-07
6.16084e-05
1.86922e-07
5.38058e-05
9.97913e-08
4.6976e-05
2.01153e-08
4.10358e-05
-5.01451e-08
3.58557e-05
-1.10023e-07
3.12951e-05
-1.60226e-07
2.72033e-05
-2.0411e-07
2.34311e-05
-2.44897e-07
1.96721e-05
-2.61245e-07
1.60322e-05
-2.15235e-07
1.2663e-05
-1.17689e-07
9.15652e-06
1.45992e-07
7.62151e-05
3.66697e-07
7.62724e-05
4.63848e-07
7.63478e-05
4.83518e-07
7.64336e-05
4.4528e-07
7.65347e-05
3.66727e-07
7.66501e-05
2.69841e-07
8.09579e-05
1.76183e-07
7.06679e-05
7.89113e-08
6.17164e-05
-1.45519e-08
5.39202e-05
-9.96486e-08
4.70957e-05
-1.734e-07
4.1159e-05
-2.33967e-07
3.59796e-05
-2.80702e-07
3.14156e-05
-3.14323e-07
2.73135e-05
-3.37405e-07
2.35236e-05
-3.50885e-07
1.97618e-05
-3.33118e-07
1.61501e-05
-2.5597e-07
1.28012e-05
-1.34425e-07
9.29094e-06
1.24597e-07
7.62114e-05
3.19556e-07
7.62623e-05
4.07239e-07
7.6329e-05
4.19722e-07
7.64116e-05
3.75367e-07
7.65035e-05
2.88959e-07
7.66125e-05
1.79898e-07
7.674e-05
6.26679e-08
8.10714e-05
-4.19188e-08
7.07887e-05
-1.43761e-07
6.18457e-05
-2.3686e-07
5.40574e-05
-3.16932e-07
4.72393e-05
-3.81396e-07
4.13064e-05
-4.2883e-07
3.61278e-05
-4.58934e-07
3.15602e-05
-4.72271e-07
2.74484e-05
-4.70995e-07
2.36437e-05
-4.54547e-07
1.98832e-05
-4.02278e-07
1.62964e-05
-2.94851e-07
1.29617e-05
-1.50133e-07
9.44108e-06
1.0777e-07
6.95988e-05
2.77371e-07
7.62536e-05
3.55499e-07
7.6314e-05
3.60869e-07
7.63878e-05
3.10311e-07
7.64766e-05
2.15989e-07
7.65765e-05
9.47675e-08
7.66976e-05
-3.9904e-08
7.68426e-05
-1.7522e-07
8.12047e-05
-2.87874e-07
7.09328e-05
-3.91661e-07
6.20005e-05
-4.81037e-07
5.42215e-05
-5.52334e-07
4.74102e-05
-6.03516e-07
4.14811e-05
-6.33851e-07
3.63027e-05
-6.43148e-07
3.1731e-05
-6.32201e-07
2.76096e-05
-6.03376e-07
2.37926e-05
-5.54781e-07
2.00357e-05
-4.68136e-07
1.64697e-05
-3.3144e-07
1.3143e-05
-1.64627e-07
9.6057e-06
9.44998e-08
6.25573e-05
2.42839e-07
6.96334e-05
3.08383e-07
7.63007e-05
3.06879e-07
7.6368e-05
2.50311e-07
7.64478e-05
1.48358e-07
7.65443e-05
1.53483e-08
7.66559e-05
-1.36393e-07
7.67941e-05
-2.94955e-07
7.69623e-05
-4.46208e-07
8.13631e-05
-5.63965e-07
7.11051e-05
-6.65924e-07
6.21853e-05
-7.47375e-07
5.44165e-05
-8.05261e-07
4.7612e-05
-8.3864e-07
4.16859e-05
-8.47115e-07
3.65067e-05
-8.31029e-07
3.19299e-05
-7.9212e-07
2.77984e-05
-7.32734e-07
2.39705e-05
-6.50539e-07
2.02181e-05
-5.29903e-07
1.66682e-05
-3.6519e-07
1.33435e-05
-1.77684e-07
9.78339e-06
8.38612e-08
5.62286e-05
2.14803e-07
6.25853e-05
2.69105e-07
6.96726e-05
2.57648e-07
7.63499e-05
1.95472e-07
7.64229e-05
8.64387e-08
7.65097e-05
-5.76546e-08
7.66173e-05
-2.25758e-07
7.67453e-05
-4.06898e-07
7.69061e-05
-5.8775e-07
7.71038e-05
-7.52736e-07
8.15519e-05
-8.71419e-07
7.13106e-05
-9.66863e-07
6.24048e-05
-1.03504e-06
5.46463e-05
-1.07436e-06
4.78477e-05
-1.0845e-06
4.19233e-05
-1.06587e-06
3.67415e-05
-1.02011e-06
3.21579e-05
-9.49659e-07
2.80153e-05
-8.5735e-07
2.41773e-05
-7.40569e-07
2.04288e-05
-5.86878e-07
1.68899e-05
-3.95643e-07
1.35615e-05
-1.89166e-07
9.97255e-06
7.52121e-08
5.05406e-05
1.91842e-07
5.62516e-05
2.36697e-07
6.26177e-05
2.16738e-07
6.97135e-05
1.45837e-07
7.63996e-05
3.04701e-08
7.64788e-05
-1.23717e-07
7.65758e-05
-3.07128e-07
7.66986e-05
-5.09844e-07
7.68482e-05
-7.19406e-07
7.70377e-05
-9.20911e-07
7.7272e-05
-1.09613e-06
8.17766e-05
-1.21059e-06
7.15544e-05
-1.29343e-06
6.26632e-05
-1.34246e-06
5.49144e-05
-1.35701e-06
4.81202e-05
-1.33787e-06
4.21953e-05
-1.28712e-06
3.70085e-05
-1.20747e-06
3.24157e-05
-1.10251e-06
2.82604e-05
-9.7538e-07
2.44121e-05
-8.23804e-07
2.06657e-05
-6.38499e-07
1.71327e-05
-4.2254e-07
1.37949e-05
-1.98973e-07
1.01715e-05
6.80967e-08
4.54271e-05
1.72887e-07
5.05596e-05
2.09812e-07
5.62785e-05
1.83177e-07
6.26513e-05
1.05059e-07
6.97543e-05
-1.93958e-08
7.64494e-05
-1.82472e-07
7.65376e-05
-3.79818e-07
7.66485e-05
-6.02738e-07
7.67915e-05
-8.39759e-07
7.69686e-05
-1.07675e-06
7.71936e-05
-1.29588e-06
7.74718e-05
-1.47684e-06
8.20428e-05
-1.58023e-06
7.18412e-05
-1.6438e-06
6.29646e-05
-1.66662e-06
5.5224e-05
-1.64947e-06
4.84318e-05
-1.59525e-06
4.25034e-05
-1.50743e-06
3.73085e-05
-1.39025e-06
3.27034e-05
-1.2482e-06
2.85333e-05
-1.08524e-06
2.46736e-05
-8.99326e-07
2.09265e-05
-6.84175e-07
1.73944e-05
-4.45638e-07
1.40415e-05
-2.07019e-07
1.03785e-05
6.2183e-08
4.08319e-05
1.57121e-07
4.54429e-05
1.87385e-07
5.0582e-05
1.55536e-07
5.63061e-05
7.20864e-08
6.26842e-05
-5.95407e-08
6.97945e-05
-2.33671e-07
7.65006e-05
-4.43321e-07
7.66011e-05
-6.84711e-07
7.67305e-05
-9.47539e-07
7.68993e-05
-1.21858e-06
7.71104e-05
-1.48052e-06
7.73782e-05
-1.71323e-06
7.77082e-05
-1.89344e-06
8.2356e-05
-1.9783e-06
7.21757e-05
-2.01459e-06
6.33125e-05
-2.00327e-06
5.55778e-05
-1.94769e-06
4.87842e-05
-1.85258e-06
4.28486e-05
-1.72329e-06
3.76415e-05
-1.56534e-06
3.30205e-05
-1.38461e-06
2.88326e-05
-1.18536e-06
2.49596e-05
-9.66349e-07
2.12087e-05
-7.23488e-07
1.76722e-05
-4.64753e-07
1.42993e-05
-2.13292e-07
1.05918e-05
5.72242e-08
3.6701e-05
1.43916e-07
4.08451e-05
1.6858e-07
4.54617e-05
1.32678e-07
5.06049e-05
4.53863e-08
5.63328e-05
-9.12126e-08
6.27159e-05
-2.73693e-07
6.98345e-05
-4.97277e-07
7.65546e-05
-7.55099e-07
7.66715e-05
-1.04167e-06
7.68246e-05
-1.34485e-06
7.70256e-05
-1.64805e-06
7.7278e-05
-1.93144e-06
7.75964e-05
-2.17143e-06
7.79861e-05
-2.34373e-06
8.27214e-05
-2.40106e-06
7.25621e-05
-2.401e-06
6.37103e-05
-2.34776e-06
5.59779e-05
-2.24694e-06
4.91786e-05
-2.10566e-06
4.3231e-05
-1.93093e-06
3.80071e-05
-1.73006e-06
3.3366e-05
-1.50969e-06
2.9157e-05
-1.27466e-06
2.52679e-05
-1.02428e-06
2.15095e-05
-7.56201e-07
1.79637e-05
-4.79844e-07
1.45658e-05
-2.17775e-07
1.08096e-05
5.30339e-08
3.29902e-05
1.32784e-07
3.67121e-05
1.5273e-07
4.0861e-05
1.13698e-07
4.54807e-05
2.37235e-08
5.06266e-05
-1.16125e-07
5.63577e-05
-3.04129e-07
6.27464e-05
-5.38004e-07
6.98752e-05
-8.1341e-07
7.66129e-05
-1.12128e-06
7.67511e-05
-1.45425e-06
7.6934e-05
-1.79664e-06
7.71742e-05
-2.12911e-06
7.74756e-05
-2.42796e-06
7.78529e-05
-2.66825e-06
7.83107e-05
-2.82366e-06
8.3144e-05
-2.84311e-06
7.30043e-05
-2.79772e-06
6.41602e-05
-2.69456e-06
5.64255e-05
-2.54223e-06
4.96151e-05
-2.35001e-06
4.365e-05
-2.1271e-06
3.84042e-05
-1.88186e-06
3.37382e-05
-1.62184e-06
2.95041e-05
-1.3523e-06
2.55959e-05
-1.07275e-06
2.1826e-05
-7.8225e-07
1.82661e-05
-4.90921e-07
1.4839e-05
-2.20642e-07
1.10303e-05
4.94692e-08
2.96516e-05
1.23343e-07
3.29996e-05
1.39305e-07
3.67255e-05
9.78712e-08
4.08768e-05
6.10752e-09
4.54983e-05
-1.35666e-07
5.06461e-05
-3.27004e-07
5.63806e-05
-5.67561e-07
6.27759e-05
-8.55823e-07
6.99176e-05
-1.18575e-06
7.66774e-05
-1.5457e-06
7.68425e-05
-1.92464e-06
7.7062e-05
-2.30404e-06
7.73491e-05
-2.66026e-06
7.77079e-05
-2.96793e-06
7.81526e-05
-3.1994e-06
7.86864e-05
-3.32715e-06
8.36281e-05
-3.29843e-06
7.3505e-05
-3.19838e-06
6.4664e-05
-3.03793e-06
5.69212e-05
-2.82837e-06
5.00935e-05
-2.58177e-06
4.41047e-05
-2.30867e-06
3.8831e-05
-2.01865e-06
3.4135e-05
-1.71988e-06
2.98717e-05
-1.41765e-06
2.59408e-05
-1.11162e-06
2.21554e-05
-8.01688e-07
1.85768e-05
-4.98213e-07
1.51165e-05
-2.21596e-07
1.12518e-05
4.64187e-08
2.66511e-05
1.15294e-07
2.96596e-05
1.2788e-07
3.30111e-05
8.46187e-08
3.67388e-05
-8.25498e-09
4.08912e-05
-1.50949e-07
4.55136e-05
-3.43957e-07
5.0663e-05
-5.88406e-07
5.64015e-05
-8.84981e-07
6.28051e-05
-1.23098e-06
6.99629e-05
-1.61834e-06
7.675e-05
-2.03073e-06
7.69486e-05
-2.45425e-06
7.72122e-05
-2.86571e-06
7.75546e-05
-3.23947e-06
7.79795e-05
-3.54683e-06
7.85001e-05
-3.75827e-06
7.91175e-05
-3.84761e-06
8.41773e-05
-3.75987e-06
7.40664e-05
-3.5965e-06
6.52226e-05
-3.37186e-06
5.74647e-05
-3.10079e-06
5.06125e-05
-2.79712e-06
4.45932e-05
-2.47299e-06
3.92853e-05
-2.13881e-06
3.45539e-05
-1.80291e-06
3.0257e-05
-1.47047e-06
2.62997e-05
-1.14099e-06
2.24947e-05
-8.1479e-07
1.88934e-05
-5.0148e-07
1.53964e-05
-2.73485e-07
1.15253e-05
4.37941e-08
2.39566e-05
1.08396e-07
2.66579e-05
1.18116e-07
2.96694e-05
7.34744e-08
3.30222e-05
-1.99974e-08
3.67505e-05
-1.62865e-07
4.09031e-05
-3.563e-07
4.55259e-05
-6.02526e-07
5.06772e-05
-9.03901e-07
5.64204e-05
-1.26034e-06
6.28344e-05
-1.66772e-06
7.00122e-05
-2.1138e-06
7.68331e-05
-2.57807e-06
7.70724e-05
-3.04192e-06
7.73884e-05
-3.4798e-06
7.77949e-05
-3.86216e-06
7.82948e-05
-4.15775e-06
7.88995e-05
-4.33788e-06
7.96078e-05
-4.37709e-06
8.47945e-05
-4.22013e-06
7.46901e-05
-3.98508e-06
6.58358e-05
-3.69094e-06
5.80549e-05
-3.35486e-06
5.11703e-05
-2.99281e-06
4.5113e-05
-2.618e-06
3.97645e-05
-2.24115e-06
3.49921e-05
-1.87049e-06
3.0657e-05
-1.51083e-06
2.66695e-05
-1.1612e-06
2.28411e-05
-8.21499e-07
1.92134e-05
-6.19959e-07
1.57429e-05
-2.69755e-07
1.17951e-05
4.15257e-08
2.15343e-05
1.02456e-07
2.39626e-05
1.09736e-07
2.66663e-05
6.40648e-08
2.96788e-05
-2.96269e-08
3.30318e-05
-1.72124e-07
3.67598e-05
-3.65077e-07
4.09119e-05
-6.11509e-07
4.55349e-05
-9.15018e-07
5.06883e-05
-1.27752e-06
5.64376e-05
-1.69802e-06
6.28647e-05
-2.16886e-06
7.00673e-05
-2.67412e-06
7.69291e-05
-3.18683e-06
7.72173e-05
-3.68605e-06
7.75947e-05
-4.14178e-06
7.80745e-05
-4.52124e-06
7.86583e-05
-4.79341e-06
7.93551e-05
-4.92968e-06
8.01604e-05
-4.90738e-06
8.54817e-05
-4.67107e-06
7.53761e-05
-4.35778e-06
6.65027e-05
-3.98966e-06
5.86897e-05
-3.58665e-06
5.17641e-05
-3.16626e-06
4.56612e-05
-2.74213e-06
4.02655e-05
-2.32498e-06
3.54466e-05
-1.92264e-06
3.10688e-05
-1.53908e-06
2.70474e-05
-1.1724e-06
2.3192e-05
-1.01707e-06
1.96105e-05
-6.12135e-07
1.60853e-05
-2.63439e-07
1.20585e-05
3.95574e-08
1.9354e-05
9.73206e-08
2.15394e-05
1.02517e-07
2.39698e-05
5.60876e-08
2.66743e-05
-3.75473e-08
2.96867e-05
-1.79291e-07
3.3039e-05
-3.71116e-07
3.67658e-05
-6.1661e-07
4.0917e-05
-9.20272e-07
4.55401e-05
-1.28552e-06
5.06963e-05
-1.71377e-06
5.64533e-05
-2.20103e-06
6.28969e-05
-2.73666e-06
7.01298e-05
-3.29871e-06
7.7041e-05
-3.85572e-06
7.7387e-05
-4.38228e-06
7.78352e-05
-4.84453e-06
7.83978e-05
-5.20926e-06
7.90741e-05
-5.44476e-06
7.98701e-05
-5.52461e-06
8.07776e-05
-5.42917e-06
8.62399e-05
-5.10538e-06
7.61237e-05
-4.7081e-06
6.72211e-05
-4.2633e-06
5.93663e-05
-3.79301e-06
5.23909e-05
-3.31545e-06
4.62346e-05
-2.84442e-06
4.07849e-05
-2.39022e-06
3.59142e-05
-1.95967e-06
3.14894e-05
-1.55552e-06
2.74305e-05
-1.45339e-06
2.36283e-05
-1.00539e-06
2.00038e-05
-5.98806e-07
1.64206e-05
-2.55241e-07
1.23138e-05
1.73977e-05
3.78443e-08
9.28641e-08
1.93584e-05
9.62743e-08
2.15456e-05
4.92972e-08
2.39766e-05
-4.40831e-08
2.66808e-05
-1.84811e-07
2.96922e-05
-3.75067e-07
3.30429e-05
-6.18818e-07
3.6768e-05
-9.21192e-07
4.09179e-05
-1.2867e-06
4.55413e-05
-1.71861e-06
5.07011e-05
-2.21579e-06
5.64681e-05
-2.77186e-06
6.29321e-05
-3.37084e-06
7.0202e-05
-3.98666e-06
7.71719e-05
-4.58066e-06
7.75854e-05
-5.12363e-06
7.81143e-05
-5.58058e-06
7.87691e-05
-5.91679e-06
7.95462e-05
-6.10208e-06
8.04476e-05
-6.11245e-06
8.14609e-05
-5.93411e-06
8.70686e-05
-5.51548e-06
7.6931e-05
-5.03048e-06
6.79883e-05
-4.50805e-06
6.00814e-05
-3.97138e-06
5.30468e-05
-3.43911e-06
4.68292e-05
-2.92466e-06
4.13194e-05
-2.4371e-06
3.63916e-05
-1.98195e-06
3.19158e-05
-1.93029e-06
2.79074e-05
-1.43833e-06
2.40613e-05
-9.849e-07
2.03899e-05
-5.81209e-07
1.67466e-05
-2.45645e-07
1.25594e-05
1.74016e-05
8.89792e-08
2.78129e-05
3.49751e-08
9.08597e-08
1.93638e-05
4.34949e-08
2.15514e-05
-4.94947e-08
2.3982e-05
-1.8904e-07
2.66851e-05
-3.7744e-07
2.96946e-05
-6.18903e-07
3.3043e-05
-9.18975e-07
3.67658e-05
-1.28295e-06
4.09141e-05
-1.71545e-06
4.55382e-05
-2.21756e-06
5.07029e-05
-2.78629e-06
5.64825e-05
-3.41053e-06
6.29718e-05
-4.07088e-06
7.02862e-05
-4.73424e-06
7.73255e-05
-5.3549e-06
7.78167e-05
-5.90272e-06
7.84364e-05
-6.34026e-06
7.91926e-05
-6.63364e-06
8.00777e-05
-6.75436e-06
8.10895e-05
-6.68394e-06
8.22107e-05
-6.41342e-06
8.79665e-05
-5.89479e-06
7.77954e-05
-5.32029e-06
6.88005e-05
-4.72073e-06
6.08307e-05
-4.12012e-06
5.37278e-05
-3.53684e-06
4.74414e-05
-2.98293e-06
4.18652e-05
-2.46607e-06
3.68758e-05
-2.46136e-06
3.24469e-05
-1.91221e-06
2.83813e-05
-1.41066e-06
2.4487e-05
-9.57362e-07
2.0766e-05
-5.60365e-07
1.70613e-05
-2.35005e-07
1.27944e-05
1.74063e-05
8.61503e-08
2.78193e-05
8.25097e-08
2.85528e-05
3.22038e-08
3.85194e-08
1.93688e-05
-5.39908e-08
2.15559e-05
-1.92257e-07
2.39852e-05
-3.78634e-07
2.66863e-05
-6.17464e-07
2.96932e-05
-9.14549e-07
3.30386e-05
-1.27572e-06
3.67586e-05
-1.70658e-06
4.09052e-05
-2.20987e-06
4.55305e-05
-2.78525e-06
5.07019e-05
-3.42554e-06
5.64975e-05
-4.11687e-06
6.30178e-05
-4.83344e-06
7.03854e-05
-5.53511e-06
7.75057e-05
-6.17137e-06
7.80853e-05
-6.70983e-06
7.8806e-05
-7.1131e-06
7.9672e-05
-7.34815e-06
8.06715e-05
-7.39153e-06
8.17971e-05
-7.22924e-06
8.30265e-05
-6.85941e-06
8.89311e-05
-6.23778e-06
7.87128e-05
-5.57363e-06
6.96534e-05
-4.89924e-06
6.16098e-05
-4.23858e-06
5.44295e-05
-3.60858e-06
4.80671e-05
-3.01975e-06
4.24189e-05
-3.0645e-06
3.74789e-05
-2.44044e-06
3.29751e-05
-1.87735e-06
2.8848e-05
-1.37282e-06
2.49025e-05
-9.24367e-07
2.113e-05
-5.37073e-07
1.73634e-05
-2.23637e-07
1.30181e-05
1.74106e-05
3.42364e-08
2.78265e-05
7.89556e-08
2.85591e-05
7.62157e-08
2.93127e-05
2.95326e-08
-5.77388e-08
1.93726e-05
-1.94684e-07
2.15584e-05
-3.78959e-07
2.39855e-05
-6.14961e-07
2.66838e-05
-9.08627e-07
2.96872e-05
-1.26613e-06
3.3029e-05
-1.69375e-06
3.67457e-05
-2.19548e-06
4.08909e-05
-2.77299e-06
4.55182e-05
-3.42219e-06
5.06985e-05
-4.13374e-06
5.65144e-05
-4.88798e-06
6.30723e-05
-5.65263e-06
7.05029e-05
-6.38257e-06
7.77169e-05
-7.02041e-06
7.83959e-05
-7.53436e-06
7.92272e-05
-7.88696e-06
8.02109e-05
-8.04958e-06
8.13296e-05
-8.0028e-06
8.25707e-05
-7.73964e-06
8.39068e-05
-7.26547e-06
8.99588e-05
-6.5397e-06
7.96789e-05
-5.78783e-06
7.0542e-05
-5.04262e-06
6.24139e-05
-4.32653e-06
5.51475e-05
-3.65487e-06
4.87022e-05
-3.75471e-06
4.31091e-05
-3.04076e-06
3.80792e-05
-2.39822e-06
3.3496e-05
-1.82888e-06
2.93041e-05
-1.32699e-06
2.53051e-05
-8.87233e-07
2.14802e-05
-5.12085e-07
1.76518e-05
-2.11847e-07
1.32299e-05
1.74137e-05
-6.0875e-08
2.78319e-05
2.88353e-08
2.8566e-05
7.20104e-08
2.93188e-05
7.01065e-08
3.00906e-05
2.6963e-08
-1.96495e-07
1.93744e-05
-3.78655e-07
2.15581e-05
-6.11747e-07
2.39823e-05
-9.01754e-07
2.66769e-05
-1.25504e-06
2.96762e-05
-1.67835e-06
3.30136e-05
-2.17655e-06
3.67268e-05
-2.75282e-06
4.08707e-05
-3.40552e-06
4.55015e-05
-4.12888e-06
5.06937e-05
-4.90836e-06
5.65348e-05
-5.71841e-06
6.31381e-05
-6.52225e-06
7.06426e-05
-7.2673e-06
7.79638e-05
-7.89154e-06
7.87531e-05
-8.3639e-06
7.97042e-05
-8.65057e-06
8.08118e-05
-8.72627e-06
8.2053e-05
-8.57843e-06
8.34095e-05
-8.20749e-06
8.48488e-05
-7.62583e-06
9.10449e-05
-6.79716e-06
8.06882e-05
-5.96154e-06
7.14609e-05
-5.1504e-06
6.32377e-05
-4.38449e-06
5.58771e-05
-4.54714e-06
4.94946e-05
-3.72828e-06
4.37966e-05
-2.9907e-06
3.86717e-05
-2.33857e-06
3.40057e-05
-1.76959e-06
2.97467e-05
-1.27506e-06
2.56929e-05
-8.47177e-07
2.18153e-05
-4.8607e-07
1.79261e-05
-1.99891e-07
1.34298e-05
1.74151e-05
-1.97829e-07
2.78337e-05
-6.26199e-08
2.85711e-05
2.37219e-08
2.93255e-05
6.53111e-08
3.00965e-05
6.41835e-08
3.08905e-05
2.44956e-08
-3.77907e-07
1.93736e-05
-6.08091e-07
2.15544e-05
-8.9434e-07
2.39749e-05
-1.24311e-06
2.6665e-05
-1.66141e-06
2.96592e-05
-2.15473e-06
3.29918e-05
-2.72736e-06
3.67013e-05
-3.3795e-06
4.08447e-05
-4.10825e-06
4.54809e-05
-4.90319e-06
5.06885e-05
-5.74445e-06
5.65608e-05
-6.60252e-06
6.32184e-05
-7.4334e-06
7.08087e-05
-8.17904e-06
7.82513e-05
-8.77223e-06
7.91614e-05
-9.18682e-06
8.02404e-05
-9.39153e-06
8.14771e-05
-9.36757e-06
8.28422e-05
-9.1098e-06
8.43118e-05
-8.626e-06
8.5849e-05
-7.93619e-06
9.2184e-05
-7.00827e-06
8.1735e-05
-6.09399e-06
7.24045e-05
-5.22304e-06
6.40763e-05
-5.45864e-06
5.67886e-05
-4.51846e-06
5.02848e-05
-3.66982e-06
4.44757e-05
-2.91886e-06
3.9252e-05
-2.26491e-06
3.4501e-05
-1.70199e-06
3.01736e-05
-1.21877e-06
2.60645e-05
-8.05297e-07
2.21345e-05
-4.59581e-07
1.81857e-05
-1.87974e-07
1.36178e-05
1.7414e-05
-3.76858e-07
2.78299e-05
-1.94098e-07
2.85725e-05
-6.39753e-08
2.93303e-05
1.89152e-08
3.01029e-05
5.88711e-08
3.08962e-05
5.84548e-08
3.17104e-05
2.21285e-08
-6.04194e-07
1.93697e-05
-8.86691e-07
2.15468e-05
-1.23081e-06
2.39626e-05
-1.6437e-06
2.66472e-05
-2.13126e-06
2.96357e-05
-2.69858e-06
3.2963e-05
-3.34723e-06
3.66691e-05
-4.07654e-06
4.0813e-05
-4.8794e-06
4.54571e-05
-5.74061e-06
5.06846e-05
-6.63687e-06
5.65952e-05
-7.53187e-06
6.33168e-05
-8.37622e-06
7.10059e-05
-9.10542e-06
7.85845e-05
-9.65073e-06
7.96253e-05
-9.99018e-06
8.08391e-05
-1.00984e-05
8.2208e-05
-9.96395e-06
8.36963e-05
-9.58912e-06
8.52749e-05
-8.98998e-06
8.69028e-05
-8.19392e-06
9.33696e-05
-7.17177e-06
8.28128e-05
-6.18543e-06
7.33669e-05
-6.50806e-06
6.51257e-05
-5.42866e-06
5.76988e-05
-4.45118e-06
5.10661e-05
-3.5846e-06
4.51415e-05
-2.82939e-06
3.98165e-05
-2.18043e-06
3.49795e-05
-1.62839e-06
3.05832e-05
-1.15969e-06
2.64189e-05
-7.62497e-07
2.24374e-05
-4.33071e-07
1.84308e-05
-1.76267e-07
1.3794e-05
1.741e-05
-6.00205e-07
2.78189e-05
-3.658e-07
2.85682e-05
-1.89862e-07
2.93313e-05
-6.49488e-08
3.01074e-05
1.44171e-08
3.09024e-05
5.26909e-08
3.17159e-05
5.29259e-08
3.25543e-05
1.9866e-08
-8.79031e-07
1.93621e-05
-1.2185e-06
2.15345e-05
-1.62581e-06
2.39447e-05
-2.1071e-06
2.66231e-05
-2.66799e-06
2.96052e-05
-3.31109e-06
3.29269e-05
-4.03741e-06
3.663e-05
-4.84247e-06
4.0776e-05
-5.71488e-06
4.54314e-05
-6.63652e-06
5.06843e-05
-7.57775e-06
5.6641e-05
-8.49713e-06
6.34377e-05
-9.33866e-06
7.12391e-05
-1.00347e-05
7.89685e-05
-1.05137e-05
8.01488e-05
-1.07619e-05
8.15026e-05
-1.07609e-05
8.30049e-05
-1.05067e-05
8.46139e-05
-1.00103e-05
8.62953e-05
-9.29613e-06
8.8005e-05
-8.39722e-06
9.45951e-05
-7.28761e-06
8.39149e-05
-7.71514e-06
7.4574e-05
-6.47852e-06
6.61756e-05
-5.35242e-06
5.86001e-05
-4.35136e-06
5.18329e-05
-3.47756e-06
4.57896e-05
-2.7262e-06
4.03622e-05
-2.08806e-06
3.54391e-05
-1.55089e-06
3.09744e-05
-1.09913e-06
2.67555e-05
-7.19526e-07
2.27239e-05
-4.0693e-07
1.86615e-05
-1.64878e-07
1.39589e-05
1.74025e-05
-8.71523e-07
2.77985e-05
-5.79813e-07
2.85565e-05
-3.5405e-07
2.93265e-05
-1.85069e-07
3.0108e-05
-6.55134e-08
3.09066e-05
1.02301e-08
3.17218e-05
4.67743e-08
3.25596e-05
4.75911e-08
3.34202e-05
1.77033e-08
-1.20644e-06
1.935e-05
-1.60816e-06
2.15168e-05
-2.08293e-06
2.39205e-05
-2.63672e-06
2.65918e-05
-3.27289e-06
2.9567e-05
-3.9937e-06
3.28832e-05
-4.79673e-06
3.65842e-05
-5.67363e-06
4.07348e-05
-6.61057e-06
4.54054e-05
-7.5836e-06
5.06901e-05
-8.5583e-06
5.67022e-05
-9.48668e-06
6.35858e-05
-1.03093e-05
7.15136e-05
-1.09535e-05
7.94083e-05
-1.13486e-05
8.07355e-05
-1.14909e-05
8.22325e-05
-1.13692e-05
8.38674e-05
-1.09887e-05
8.55922e-05
-1.03694e-05
8.73685e-05
-9.54206e-06
8.91498e-05
-8.54565e-06
9.58531e-05
-9.10178e-06
8.53016e-05
-7.6889e-06
7.57844e-05
-6.39364e-06
6.72168e-05
-5.23684e-06
5.94855e-05
-4.22479e-06
5.25801e-05
-3.35343e-06
4.64169e-05
-2.61291e-06
4.08871e-05
-1.99044e-06
3.58787e-05
-1.47121e-06
3.13465e-05
-1.03818e-06
2.70742e-05
-6.77036e-07
2.2994e-05
-3.81403e-07
1.8878e-05
-1.53909e-07
1.41128e-05
1.73909e-05
-1.19481e-06
2.77664e-05
-8.39453e-07
2.85352e-05
-5.5856e-07
2.93141e-05
-3.41648e-07
3.01027e-05
-1.79796e-07
3.09067e-05
-6.56903e-08
3.17257e-05
6.35791e-09
3.25652e-05
4.11231e-08
3.34253e-05
4.24589e-08
3.43061e-05
1.564e-08
-1.59104e-06
1.93329e-05
-2.05924e-06
2.14931e-05
-2.6056e-06
2.38894e-05
-3.23397e-06
2.65529e-05
-3.94755e-06
2.95208e-05
-4.74549e-06
3.28319e-05
-5.62185e-06
3.65324e-05
-6.5663e-06
4.06905e-05
-7.55967e-06
4.53815e-05
-8.57361e-06
5.07054e-05
-9.5674e-06
5.67829e-05
-1.04894e-05
6.37659e-05
-1.12746e-05
7.18347e-05
-1.18488e-05
7.99085e-05
-1.21437e-05
8.13883e-05
-1.21665e-05
8.30298e-05
-1.19154e-05
8.47941e-05
-1.1405e-05
8.66279e-05
-1.0663e-05
8.84894e-05
-9.72677e-06
9.03309e-05
-1.06917e-05
9.7443e-05
-9.08414e-06
8.66968e-05
-7.59679e-06
7.69875e-05
-6.26141e-06
6.82414e-05
-5.08869e-06
6.03494e-05
-4.07716e-06
5.33039e-05
-3.21659e-06
4.70205e-05
-2.4928e-06
4.13894e-05
-1.8898e-06
3.62973e-05
-1.39082e-06
3.16992e-05
-9.77778e-07
2.73749e-05
-6.35439e-07
2.3248e-05
-3.56732e-07
1.90809e-05
-1.43425e-07
1.42562e-05
1.73745e-05
-1.57465e-06
2.77203e-05
-1.14868e-06
2.85021e-05
-8.06307e-07
2.92919e-05
-5.36387e-07
3.00896e-05
-3.28538e-07
3.09009e-05
-1.73999e-07
3.17255e-05
-6.54696e-08
3.25688e-05
2.79968e-09
3.34307e-05
3.57393e-08
3.4311e-05
3.75263e-08
3.522e-05
1.36759e-08
-2.03639e-06
1.931e-05
-2.57522e-06
2.14627e-05
-3.19533e-06
2.38508e-05
-3.90058e-06
2.65059e-05
-4.69129e-06
2.94666e-05
-5.56344e-06
3.27735e-05
-6.50951e-06
3.64756e-05
-7.51424e-06
4.06451e-05
-8.55452e-06
4.53624e-05
-9.59602e-06
5.07341e-05
-1.05944e-05
5.68879e-05
-1.14921e-05
6.39835e-05
-1.22216e-05
7.22075e-05
-1.27085e-05
8.04733e-05
-1.28875e-05
8.21093e-05
-1.27798e-05
8.38942e-05
-1.23936e-05
8.57827e-05
-1.17517e-05
8.77166e-05
-1.08895e-05
8.96522e-05
-1.21922e-05
9.18314e-05
-1.06915e-05
9.90504e-05
-8.98846e-06
8.80885e-05
-7.44808e-06
7.81742e-05
-6.08977e-06
6.92425e-05
-4.91473e-06
6.1187e-05
-3.91369e-06
5.4001e-05
-3.07103e-06
4.75988e-05
-2.36862e-06
4.18682e-05
-1.78801e-06
3.66945e-05
-1.31098e-06
3.20324e-05
-9.18519e-07
2.7658e-05
-5.95137e-07
2.34864e-05
-3.33074e-07
1.92705e-05
-1.33457e-07
1.43897e-05
1.73527e-05
-2.01461e-06
2.76571e-05
-1.51144e-06
2.84546e-05
-1.10122e-06
2.92577e-05
-7.72131e-07
3.00666e-05
-5.13369e-07
3.08872e-05
-3.14788e-07
3.17192e-05
-1.6771e-07
3.25682e-05
-6.4867e-08
3.34339e-05
-4.50242e-10
3.43161e-05
3.06207e-08
3.52247e-05
3.27897e-08
3.61559e-05
1.18077e-08
-2.546e-06
1.92808e-05
-3.15766e-06
2.14251e-05
-3.85395e-06
2.38041e-05
-4.63604e-06
2.64507e-05
-5.50137e-06
2.94045e-05
-6.44467e-06
3.27087e-05
-7.45391e-06
3.64153e-05
-8.51033e-06
4.06009e-05
-9.58516e-06
4.53515e-05
-1.06407e-05
5.07803e-05
-1.16265e-05
5.70223e-05
-1.2482e-05
6.42438e-05
-1.3138e-05
7.2637e-05
-1.35205e-05
8.11063e-05
-1.35703e-05
8.28998e-05
-1.33241e-05
8.48247e-05
-1.27988e-05
8.68298e-05
-1.20263e-05
8.88534e-05
-1.36785e-05
9.11385e-05
-1.22173e-05
9.33572e-05
-1.05988e-05
0.000100661
-8.82511e-06
8.94655e-05
-7.25196e-06
7.93364e-05
-5.88674e-06
7.02145e-05
-4.7212e-06
6.19945e-05
-3.7392e-06
5.46691e-05
-2.9201e-06
4.81503e-05
-2.24271e-06
4.23229e-05
-1.68671e-06
3.70702e-05
-1.23251e-06
3.23463e-05
-8.61e-07
2.79239e-05
-5.56402e-07
2.37098e-05
-3.10509e-07
1.94476e-05
-1.24031e-07
1.45137e-05
1.73249e-05
-2.51819e-06
2.75737e-05
-1.93117e-06
2.83897e-05
-1.44648e-06
2.92087e-05
-1.05218e-06
3.00312e-05
-7.36745e-07
3.08633e-05
-4.89499e-07
3.17048e-05
-3.00429e-07
3.25614e-05
-1.60943e-07
3.34329e-05
-6.38884e-08
3.43191e-05
-3.39414e-09
3.52296e-05
2.57641e-08
3.61604e-05
2.8248e-08
3.65898e-05
1.00564e-08
-3.12147e-06
1.92446e-05
-3.80851e-06
2.13796e-05
-4.58113e-06
2.37492e-05
-5.43789e-06
2.63872e-05
-6.37526e-06
2.93351e-05
-7.38384e-06
3.26386e-05
-8.44848e-06
3.63535e-05
-9.54516e-06
4.05609e-05
-1.0642e-05
4.53529e-05
-1.16952e-05
5.08491e-05
-1.26511e-05
5.71914e-05
-1.34463e-05
6.45522e-05
-1.40111e-05
7.31277e-05
-1.42743e-05
8.18103e-05
-1.41845e-05
8.37603e-05
-1.37935e-05
8.58194e-05
-1.3128e-05
8.79315e-05
-1.51421e-05
9.0317e-05
-1.37388e-05
9.26599e-05
-1.21361e-05
9.48945e-05
-1.04253e-05
0.000102261
-8.6045e-06
9.0818e-05
-7.01764e-06
8.04673e-05
-5.65977e-06
7.1153e-05
-4.5139e-06
6.27692e-05
-3.55778e-06
5.53068e-05
-2.76673e-06
4.86743e-05
-2.11714e-06
4.27534e-05
-1.58695e-06
3.74246e-05
-1.15623e-06
3.26416e-05
-8.05628e-07
2.81731e-05
-5.19373e-07
2.39186e-05
-2.89104e-07
1.96126e-05
-1.15162e-07
1.46289e-05
1.72905e-05
-3.08708e-06
2.74666e-05
-2.41112e-06
2.83045e-05
-1.84601e-06
2.91422e-05
-1.37998e-06
2.99809e-05
-1.00193e-06
3.0827e-05
-7.00434e-07
3.16802e-05
-4.64833e-07
3.25464e-05
-2.85436e-07
3.34257e-05
-1.53714e-07
3.43177e-05
-6.25498e-08
3.52322e-05
-6.04317e-09
3.6165e-05
2.1163e-08
3.6594e-05
2.39574e-08
3.55536e-05
8.47476e-09
-3.76485e-06
1.9201e-05
-4.52757e-06
2.13261e-05
-5.37465e-06
2.3686e-05
-6.3039e-06
2.63158e-05
-7.30803e-06
2.92593e-05
-8.37484e-06
3.2565e-05
-9.48434e-06
3.62926e-05
-1.06097e-05
4.05286e-05
-1.17131e-05
4.53708e-05
-1.27473e-05
5.09453e-05
-1.36555e-05
5.74005e-05
-1.43726e-05
6.49137e-05
-1.483e-05
7.36834e-05
-1.49614e-05
8.25872e-05
-1.47233e-05
8.46901e-05
-1.41841e-05
8.68754e-05
-1.65729e-05
8.93623e-05
-1.52491e-05
9.18273e-05
-1.36793e-05
9.42031e-05
-1.19613e-05
9.64305e-05
-1.01827e-05
0.000103839
-8.33732e-06
9.21377e-05
-6.75379e-06
8.15613e-05
-5.41565e-06
7.20548e-05
-4.2978e-06
6.35092e-05
-3.373e-06
5.59131e-05
-2.61345e-06
4.91706e-05
-1.99326e-06
4.31597e-05
-1.4898e-06
3.77582e-05
-1.08267e-06
3.29186e-05
-7.52614e-07
2.84064e-05
-4.84171e-07
2.41137e-05
-2.68904e-07
1.97664e-05
-1.0685e-07
1.47357e-05
1.7249e-05
-3.72336e-06
2.73331e-05
-2.95359e-06
2.81955e-05
-2.30214e-06
2.90548e-05
-1.75864e-06
2.99129e-05
-1.3119e-06
3.07755e-05
-9.50383e-07
3.16428e-05
-6.63123e-07
3.25211e-05
-4.39491e-07
3.34102e-05
-2.69929e-07
3.43101e-05
-1.46069e-07
3.52305e-05
-6.08713e-08
3.61674e-05
-8.40682e-09
3.65983e-05
1.68676e-08
3.55575e-05
2.00656e-08
3.45454e-05
7.04086e-09
-4.47607e-06
1.91495e-05
-5.31284e-06
2.12643e-05
-6.23254e-06
2.36146e-05
-7.22952e-06
2.62373e-05