/*--------------------------------*- C++ -*----------------------------------*\
  =========                 |
  \\      /  F ield         | OpenFOAM: The Open Source CFD Toolbox
   \\    /   O peration     | Website:  https://openfoam.org
    \\  /    A nd           | Version:  8
     \\/     M anipulation  |
\*---------------------------------------------------------------------------*/
FoamFile
{
    version     2.0;
    format      ascii;
    class       volVectorField;
    location    "0.22";
    object      U;
}
// * * * * * * * * * * * * * * * * * * * * * * * * * * * * * * * * * * * * * //

dimensions      [0 1 -1 0 0 0 0];

internalField   nonuniform List<vector> 
15677
(
(-0.0199315 9.66506 0)
(0.0435749 9.92084 0)
(0.00238136 9.37803 0)
(0.0147385 9.97646 0)
(0.0186115 9.78776 0)
(0.00701799 9.14238 0)
(0.0279636 9.99433 0)
(0.0171061 9.9248 0)
(0.0107306 9.65499 0)
(0.00608092 8.96013 0)
(0.026111 10.0015 0)
(0.0215019 9.97854 0)
(0.0163897 9.85343 0)
(0.00901576 9.53038 0)
(0.00490545 8.81691 0)
(0.0249577 10.0047 0)
(0.0223743 10.0027 0)
(0.0191758 9.94292 0)
(0.0153638 9.77934 0)
(0.00787791 9.41958 0)
(0.00403438 8.70246 0)
(0.023981 10.0062 0)
(0.0225506 10.0142 0)
(0.0207851 9.98611 0)
(0.0182708 9.90242 0)
(0.0138882 9.708 0)
(0.00680308 9.3216 0)
(0.00336486 8.61027 0)
(0.0226417 10.0067 0)
(0.0223869 10.0199 0)
(0.0216104 10.0081 0)
(0.0201669 9.96501 0)
(0.0170302 9.86197 0)
(0.0124526 9.64097 0)
(0.00585225 9.2365 0)
(0.00280374 8.53635 0)
(0.0209578 10.0066 0)
(0.0218463 10.0223 0)
(0.0219332 10.0195 0)
(0.021255 9.99814 0)
(0.0190648 9.94383 0)
(0.0156363 9.82254 0)
(0.0110835 9.57983 0)
(0.00497274 9.16433 0)
(0.00228689 8.47795 0)
(0.0190419 10.0063 0)
(0.0210091 10.0226 0)
(0.0218246 10.0255 0)
(0.0217507 10.0163 0)
(0.0202325 9.98831 0)
(0.0176906 9.92309 0)
(0.0141581 9.78565 0)
(0.00968795 9.52601 0)
(0.0041071 9.10486 0)
(0.00177605 8.43357 0)
(0.0169701 10.0057 0)
(0.0199479 10.0218 0)
(0.0213702 10.0284 0)
(0.0217753 10.0263 0)
(0.0207733 10.0133 0)
(0.0188327 9.97893 0)
(0.016134 9.90395 0)
(0.0125279 9.75277 0)
(0.00820289 9.48048 0)
(0.00321008 9.05787 0)
(0.00124229 8.40224 0)
(0.0147673 10.0051 0)
(0.0186512 10.0203 0)
(0.020608 10.0292 0)
(0.0214504 10.0317 0)
(0.0208168 10.0275 0)
(0.0192874 10.0107 0)
(0.0171505 9.97098 0)
(0.0143125 9.88763 0)
(0.0106814 9.72506 0)
(0.00657919 9.44401 0)
(0.00224106 9.02331 0)
(0.000663404 8.38367 0)
(0.0124523 10.0044 0)
(0.0172176 10.0183 0)
(0.0195482 10.0285 0)
(0.0207801 10.0342 0)
(0.0204221 10.0355 0)
(0.0192059 10.0292 0)
(0.0174194 10.0096 0)
(0.0150907 9.96551 0)
(0.0121459 9.87514 0)
(0.00855882 9.70357 0)
(0.00476622 9.41735 0)
(0.00116635 9.00122 0)
(-7.61453e-06 8.37763 0)
(0.010177 10.0036 0)
(0.0157202 10.0161 0)
(0.0182337 10.0268 0)
(0.0197879 10.0346 0)
(0.0196969 10.0397 0)
(0.0186716 10.04 0)
(0.0171001 10.0323 0)
(0.0150561 10.0108 0)
(0.0125576 9.96341 0)
(0.0095578 9.86744 0)
(0.00609594 9.68936 0)
(0.00271715 9.40113 0)
(-1.62119e-05 8.99177 0)
(-0.000650894 8.3841 0)
(0.00822563 10.0029 0)
(0.0141117 10.0136 0)
(0.0167162 10.0245 0)
(0.0184864 10.0336 0)
(0.0186262 10.0412 0)
(0.0177435 10.0459 0)
(0.0162839 10.0457 0)
(0.0143686 10.0376 0)
(0.0120825 10.0151 0)
(0.00945448 9.96554 0)
(0.00646551 9.86554 0)
(0.00323014 9.6834 0)
(0.000381413 9.39601 0)
(-0.00138434 8.99528 0)
(-0.00142306 8.40322 0)
(0.0066682 10.0023 0)
(0.0125555 10.0113 0)
(0.0150241 10.0217 0)
(0.0168883 10.0315 0)
(0.0172176 10.0409 0)
(0.0164332 10.0486 0)
(0.015016 10.0533 0)
(0.0131207 10.0536 0)
(0.0108762 10.0459 0)
(0.0083807 10.0235 0)
(0.00567504 9.9728 0)
(0.00278655 9.87042 0)
(-0.000130701 9.68664 0)
(-0.00227299 9.4026 0)
(-0.00293428 9.0119 0)
(-0.00230017 8.43526 0)
(0.00551004 10.0018 0)
(0.0111508 10.0093 0)
(0.0133619 10.0189 0)
(0.0150211 10.0287 0)
(0.0154755 10.0392 0)
(0.0147463 10.049 0)
(0.013313 10.0572 0)
(0.0113546 10.0629 0)
(0.00902839 10.0643 0)
(0.00648122 10.058 0)
(0.00381965 10.0366 0)
(0.00111955 9.98611 0)
(-0.00154219 9.88308 0)
(-0.00393075 9.69994 0)
(-0.00526449 9.42145 0)
(-0.00466727 9.04189 0)
(-0.00327574 8.48028 0)
(0.0045421 10.0014 0)
(0.00976686 10.0077 0)
(0.0118535 10.0165 0)
(0.0131304 10.0257 0)
(0.0134139 10.0364 0)
(0.0126853 10.0477 0)
(0.011178 10.0583 0)
(0.00908403 10.0678 0)
(0.00657726 10.0752 0)
(0.00383946 10.0788 0)
(0.00102667 10.0748 0)
(-0.00173093 10.0554 0)
(-0.00432828 10.0064 0)
(-0.0066242 9.90442 0)
(-0.00830446 9.72409 0)
(-0.00863536 9.45298 0)
(-0.00659348 9.08534 0)
(-0.00434593 8.53834 0)
(0.00375551 10.0011 0)
(0.00852523 10.0064 0)
(0.0104223 10.0143 0)
(0.0113831 10.023 0)
(0.01129 10.0332 0)
(0.0102598 10.045 0)
(0.00861079 10.0573 0)
(0.00630864 10.0695 0)
(0.00353093 10.081 0)
(0.000485962 10.0911 0)
(-0.00263511 10.0977 0)
(-0.00565794 10.0969 0)
(-0.00841304 10.0808 0)
(-0.0107578 10.0345 0)
(-0.0125013 9.93532 0)
(-0.0132786 9.75972 0)
(-0.0124008 9.49747 0)
(-0.00871996 9.14234 0)
(-0.00550889 8.60929 0)
(0.00311532 10.0009 0)
(0.00740563 10.0053 0)
(0.00910987 10.0124 0)
(0.00973911 10.0205 0)
(0.00929944 10.0301 0)
(0.00776193 10.0415 0)
(0.00561952 10.0547 0)
(0.00302557 10.0688 0)
(-0.000115252 10.0833 0)
(-0.00357896 10.0977 0)
(-0.0071448 10.1112 0)
(-0.0105976 10.1218 0)
(-0.0137255 10.1253 0)
(-0.0163335 10.1135 0)
(-0.0182364 10.0713 0)
(-0.0192086 9.97648 0)
(-0.0188583 9.80732 0)
(-0.0165579 9.5551 0)
(-0.0110349 9.21268 0)
(-0.00675363 8.6928 0)
(0.0025897 10.0008 0)
(0.00639381 10.0045 0)
(0.0079018 10.0109 0)
(0.00821354 10.0182 0)
(0.00741652 10.0271 0)
(0.00542284 10.038 0)
(0.0025585 10.051 0)
(-0.000754208 10.066 0)
(-0.00436362 10.0827 0)
(-0.0083653 10.1003 0)
(-0.0125101 10.1185 0)
(-0.0165491 10.1364 0)
(-0.0202326 10.152 0)
(-0.0233208 10.1608 0)
(-0.0255867 10.1544 0)
(-0.0268188 10.1175 0)
(-0.0267648 10.0285 0)
(-0.0250373 9.86717 0)
(-0.021093 9.62581 0)
(-0.0135309 9.29616 0)
(-0.0080727 8.78845 0)
(0.00217249 10.0006 0)
(0.00548364 10.0038 0)
(0.00679289 10.0095 0)
(0.00680906 10.0162 0)
(0.00566084 10.0244 0)
(0.00321679 10.0346 0)
(-0.000292014 10.047 0)
(-0.00458765 10.062 0)
(-0.00920092 10.0797 0)
(-0.0138777 10.0997 0)
(-0.0187511 10.1213 0)
(-0.0235384 10.1442 0)
(-0.0279532 10.1675 0)
(-0.0317174 10.1889 0)
(-0.0345624 10.204 0)
(-0.0362435 10.204 0)
(-0.0365303 10.1737 0)
(-0.0351647 10.0918 0)
(-0.0317935 9.93939 0)
(-0.0259772 9.7094 0)
(-0.0161773 9.39216 0)
(-0.00944451 8.89541 0)
(0.00185247 10.0005 0)
(0.00470632 10.0032 0)
(0.0057812 10.0083 0)
(0.0055278 10.0144 0)
(0.00404552 10.0219 0)
(0.00116957 10.0313 0)
(-0.00296338 10.043 0)
(-0.00813732 10.0574 0)
(-0.0140686 10.0751 0)
(-0.0200991 10.0963 0)
(-0.0258763 10.1205 0)
(-0.0315966 10.147 0)
(-0.0369333 10.1756 0)
(-0.0415678 10.2051 0)
(-0.0451962 10.2334 0)
(-0.047537 10.2557 0)
(-0.0483361 10.2631 0)
(-0.0473636 10.2403 0)
(-0.0443779 10.1665 0)
(-0.0390821 10.0238 0)
(-0.0311674 9.80541 0)
(-0.0189536 9.50011 0)
(-0.0108513 9.01295 0)
(0.00160396 10.0005 0)
(0.00407619 10.0028 0)
(0.00490216 10.0073 0)
(0.00436964 10.0128 0)
(0.00257869 10.0196 0)
(-0.000697895 10.0282 0)
(-0.00542198 10.039 0)
(-0.0114455 10.0526 0)
(-0.0185492 10.0697 0)
(-0.026316 10.0909 0)
(-0.0338632 10.1164 0)
(-0.0407368 10.1457 0)
(-0.0472189 10.1782 0)
(-0.0529438 10.2133 0)
(-0.0575671 10.2501 0)
(-0.060776 10.2861 0)
(-0.0622876 10.3165 0)
(-0.0618584 10.332 0)
(-0.0592773 10.3175 0)
(-0.0543412 10.2526 0)
(-0.0468388 10.1202 0)
(-0.03661 9.91322 0)
(-0.0218018 9.61898 0)
(-0.0122539 9.13946 0)
(0.00140749 10.0004 0)
(0.00356689 10.0025 0)
(0.00417471 10.0065 0)
(0.00337656 10.0114 0)
(0.00126445 10.0174 0)
(-0.00237303 10.0252 0)
(-0.00764176 10.0351 0)
(-0.0144667 10.0477 0)
(-0.0227006 10.064 0)
(-0.0320079 10.0845 0)
(-0.0418004 10.1099 0)
(-0.0509303 10.1407 0)
(-0.0588305 10.1762 0)
(-0.0659119 10.2155 0)
(-0.0717798 10.2582 0)
(-0.0760829 10.303 0)
(-0.0785135 10.3475 0)
(-0.0788097 10.3866 0)
(-0.0767583 10.411 0)
(-0.0721917 10.4054 0)
(-0.0649687 10.3499 0)
(-0.0549773 10.2279 0)
(-0.0421931 10.0319 0)
(-0.0246119 9.74747 0)
(-0.0132125 9.27325 0)
(0.00124985 10.0004 0)
(0.00315226 10.0022 0)
(0.00357531 10.0058 0)
(0.00256917 10.0102 0)
(0.000154887 10.0155 0)
(-0.00385038 10.0224 0)
(-0.00960469 10.0313 0)
(-0.0171667 10.0429 0)
(-0.0264657 10.058 0)
(-0.0372552 10.0775 0)
(-0.0490377 10.1022 0)
(-0.0610196 10.1328 0)
(-0.0717338 10.1699 0)
(-0.0805047 10.2126 0)
(-0.0879283 10.2597 0)
(-0.0936026 10.3108 0)
(-0.0971873 10.3645 0)
(-0.0984068 10.4181 0)
(-0.0970444 10.4664 0)
(-0.0929435 10.5001 0)
(-0.0859946 10.5038 0)
(-0.0761374 10.458 0)
(-0.0633558 10.3462 0)
(-0.0478666 10.1604 0)
(-0.0273981 9.8853 0)
(-0.0142851 9.41429 0)
(0.00112168 10.0003 0)
(0.00281286 10.002 0)
(0.00308359 10.0053 0)
(0.00191628 10.0092 0)
(-0.000726888 10.0139 0)
(-0.00506991 10.0198 0)
(-0.0112998 10.0276 0)
(-0.0195206 10.0381 0)
(-0.0298001 10.0518 0)
(-0.0419873 10.07 0)
(-0.0556841 10.0936 0)
(-0.070193 10.1234 0)
(-0.0844716 10.1603 0)
(-0.0966837 10.2047 0)
(-0.10606 10.2555 0)
(-0.113462 10.3114 0)
(-0.118504 10.3717 0)
(-0.120889 10.4349 0)
(-0.120398 10.4981 0)
(-0.116886 10.556 0)
(-0.110271 10.5992 0)
(-0.100529 10.6123 0)
(-0.0876725 10.5761 0)
(-0.0718221 10.474 0)
(-0.0527397 10.2978 0)
(-0.0237857 10.0259 0)
(-0.00930777 9.49993 0)
(0.00101618 10.0003 0)
(0.00253333 10.0018 0)
(0.00267159 10.0049 0)
(0.00138665 10.0084 0)
(-0.00141996 10.0125 0)
(-0.00601169 10.0176 0)
(-0.0126591 10.0243 0)
(-0.0215113 10.0333 0)
(-0.03267 10.0457 0)
(-0.046147 10.0623 0)
(-0.0616528 10.0843 0)
(-0.0785962 10.1129 0)
(-0.0960332 10.1488 0)
(-0.112629 10.193 0)
(-0.126134 10.2458 0)
(-0.135734 10.3058 0)
(-0.142639 10.3712 0)
(-0.146511 10.4413 0)
(-0.147123 10.5145 0)
(-0.144354 10.5877 0)
(-0.138157 10.6553 0)
(-0.128552 10.7079 0)
(-0.115578 10.7303 0)
(-0.0993608 10.7033 0)
(-0.079794 10.6104 0)
(-0.0574384 10.4411 0)
(-0.0194475 10.1975 0)
(-0.00148363 9.56583 0)
(0.000928374 10.0003 0)
(0.00230155 10.0017 0)
(0.00232703 10.0045 0)
(0.000961554 10.0077 0)
(-0.00196386 10.0113 0)
(-0.00672534 10.0157 0)
(-0.0136692 10.0213 0)
(-0.0230591 10.0289 0)
(-0.0350514 10.0396 0)
(-0.0496896 10.0545 0)
(-0.0668709 10.0747 0)
(-0.0861219 10.1014 0)
(-0.106609 10.1359 0)
(-0.127091 10.179 0)
(-0.14591 10.2315 0)
(-0.160385 10.2938 0)
(-0.169693 10.3638 0)
(-0.175491 10.4396 0)
(-0.177541 10.5201 0)
(-0.175736 10.6035 0)
(-0.170076 10.6866 0)
(-0.160636 10.7639 0)
(-0.147525 10.8258 0)
(-0.13088 10.8571 0)
(-0.110667 10.8387 0)
(-0.0867946 10.7542 0)
(-0.0612115 10.5981 0)
(-0.0213963 10.3707 0)
(0.00256125 9.62329 0)
(0.00085461 10.0002 0)
(0.00210869 10.0016 0)
(0.00203958 10.0041 0)
(0.000616514 10.0071 0)
(-0.00238836 10.0102 0)
(-0.00725984 10.014 0)
(-0.0143965 10.0187 0)
(-0.0241593 10.025 0)
(-0.0368486 10.0338 0)
(-0.0525821 10.0467 0)
(-0.0712797 10.0648 0)
(-0.0926779 10.0894 0)
(-0.116068 10.1217 0)
(-0.140316 10.1632 0)
(-0.163852 10.2146 0)
(-0.184676 10.2765 0)
(-0.199634 10.3492 0)
(-0.207975 10.4302 0)
(-0.211941 10.5168 0)
(-0.211439 10.608 0)
(-0.206512 10.7018 0)
(-0.197309 10.7948 0)
(-0.184032 10.8815 0)
(-0.166891 10.9521 0)
(-0.145938 10.9918 0)
(-0.121052 10.9817 0)
(-0.0923705 10.906 0)
(-0.0626498 10.768 0)
(-0.0247436 10.5409 0)
(0.00348156 9.68037 0)
(0.000792187 10.0002 0)
(0.00194717 10.0015 0)
(0.00180349 10.0039 0)
(0.000334456 10.0065 0)
(-0.0027195 10.0094 0)
(-0.00765455 10.0126 0)
(-0.0149042 10.0164 0)
(-0.0249012 10.0215 0)
(-0.0380683 10.0286 0)
(-0.0547078 10.0392 0)
(-0.0748345 10.0548 0)
(-0.0981879 10.0769 0)
(-0.124293 10.1068 0)
(-0.152144 10.1458 0)
(-0.180269 10.1954 0)
(-0.206731 10.2562 0)
(-0.229165 10.3286 0)
(-0.24396 10.4127 0)
(-0.250529 10.5052 0)
(-0.251833 10.6032 0)
(-0.247967 10.7052 0)
(-0.239163 10.8092 0)
(-0.225729 10.9118 0)
(-0.208 11.0073 0)
(-0.186189 11.0862 0)
(-0.16032 11.1339 0)
(-0.130707 11.1319 0)
(-0.0975503 11.0661 0)
(-0.0644503 10.9452 0)
(-0.0274957 10.7067 0)
(0.00310541 9.75432 0)
(0.000739024 10.0002 0)
(0.00181112 10.0014 0)
(0.00160653 10.0036 0)
(0.000100077 10.006 0)
(-0.0029774 10.0086 0)
(-0.00794104 10.0113 0)
(-0.0152434 10.0145 0)
(-0.0253682 10.0185 0)
(-0.03883 10.0241 0)
(-0.0560879 10.0324 0)
(-0.0773913 10.0451 0)
(-0.102592 10.0642 0)
(-0.131186 10.0912 0)
(-0.162427 10.1273 0)
(-0.194964 10.1743 0)
(-0.226943 10.2331 0)
(-0.256026 10.3044 0)
(-0.279511 10.3883 0)
(-0.293334 10.4845 0)
(-0.297194 10.5892 0)
(-0.294905 10.6986 0)
(-0.286799 10.8114 0)
(-0.273323 10.9254 0)
(-0.254951 11.0371 0)
(-0.232104 11.1409 0)
(-0.205037 11.2275 0)
(-0.174183 11.2827 0)
(-0.140315 11.2883 0)
(-0.103553 11.2334 0)
(-0.0670917 11.1247 0)
(-0.0303497 10.8873 0)
(0.00202141 9.83922 0)
(0.000693477 10.0002 0)
(0.00169588 10.0013 0)
(0.00144027 10.0034 0)
(-9.21229e-05 10.0056 0)
(-0.00317823 10.0079 0)
(-0.00814428 10.0102 0)
(-0.0154546 10.0127 0)
(-0.0256274 10.0158 0)
(-0.0392436 10.02 0)
(-0.0568804 10.0264 0)
(-0.0789878 10.0364 0)
(-0.10571 10.0518 0)
(-0.136668 10.0751 0)
(-0.17104 10.108 0)
(-0.207757 10.1517 0)
(-0.245071 10.2076 0)
(-0.280699 10.2769 0)
(-0.31192 10.3598 0)
(-0.335716 10.456 0)
(-0.347599 10.5651 0)
(-0.347686 10.6822 0)
(-0.340791 10.8032 0)
(-0.327528 10.9264 0)
(-0.308568 11.0499 0)
(-0.28454 11.17 0)
(-0.255974 11.2814 0)
(-0.223463 11.3752 0)
(-0.187887 11.4374 0)
(-0.150236 11.4502 0)
(-0.110336 11.4048 0)
(-0.0709922 11.3251 0)
(-0.0333593 11.0826 0)
(0.000322428 9.9332 0)
(0.000654274 10.0002 0)
(0.00159767 10.0013 0)
(0.00129962 10.0032 0)
(-0.00024972 10.0053 0)
(-0.00333392 10.0073 0)
(-0.00828386 10.0093 0)
(-0.0155696 10.0112 0)
(-0.0257316 10.0134 0)
(-0.0393973 10.0164 0)
(-0.0572297 10.0211 0)
(-0.0798312 10.0286 0)
(-0.107599 10.0406 0)
(-0.140512 10.0595 0)
(-0.177879 10.088 0)
(-0.218488 10.1279 0)
(-0.260891 10.1802 0)
(-0.302891 10.2464 0)
(-0.341779 10.3273 0)
(-0.374462 10.4229 0)
(-0.397639 10.5322 0)
(-0.406461 10.6545 0)
(-0.401611 10.7842 0)
(-0.389049 10.9165 0)
(-0.369694 11.0498 0)
(-0.34445 11.182 0)
(-0.314121 11.3099 0)
(-0.279533 11.4284 0)
(-0.241674 11.5286 0)
(-0.201679 11.5967 0)
(-0.160378 11.6153 0)
(-0.118148 11.5989 0)
(-0.0758046 11.5447 0)
(-0.0365309 11.2732 0)
(-0.00157684 10.0343 0)
(0.000620719 10.0002 0)
(0.00151329 10.0012 0)
(0.00118005 10.0031 0)
(-0.000379559 10.005 0)
(-0.00345413 10.0068 0)
(-0.00837511 10.0084 0)
(-0.0156134 10.0099 0)
(-0.0257225 10.0114 0)
(-0.0393604 10.0133 0)
(-0.0572509 10.0163 0)
(-0.080109 10.0216 0)
(-0.108526 10.0305 0)
(-0.142794 10.0453 0)
(-0.182656 10.0685 0)
(-0.22702 10.1032 0)
(-0.274203 10.1513 0)
(-0.322329 10.2136 0)
(-0.368736 10.2913 0)
(-0.410284 10.3849 0)
(-0.443538 10.494 0)
(-0.46499 10.6171 0)
(-0.469503 10.7529 0)
(-0.458486 10.895 0)
(-0.439173 11.0382 0)
(-0.412813 11.1809 0)
(-0.380563 11.3213 0)
(-0.343519 11.4562 0)
(-0.302863 11.5807 0)
(-0.259843 11.6864 0)
(-0.215524 11.7588 0)
(-0.171535 11.8022 0)
(-0.126663 11.814 0)
(-0.0809413 11.7601 0)
(-0.0396201 11.4587 0)
(-0.00340529 10.1402 0)
(0.00144013 10.0012 0)
(0.00058083 10.0002 0)
(0.00107712 10.0029 0)
(-0.000486974 10.0047 0)
(-0.00354633 10.0063 0)
(-0.00842984 10.0077 0)
(-0.0156052 10.0087 0)
(-0.0256322 10.0095 0)
(-0.0391873 10.0105 0)
(-0.0570349 10.0122 0)
(-0.0799708 10.0154 0)
(-0.108732 10.0216 0)
(-0.143855 10.0325 0)
(-0.185464 10.0506 0)
(-0.232987 10.0791 0)
(-0.284831 10.1212 0)
(-0.338762 10.1788 0)
(-0.392457 10.2524 0)
(-0.442768 10.3429 0)
(-0.486146 10.4502 0)
(-0.518878 10.5736 0)
(-0.537344 10.7108 0)
(-0.536204 10.8601 0)
(-0.517753 11.0144 0)
(-0.490629 11.1679 0)
(-0.45643 11.3192 0)
(-0.416635 11.4668 0)
(-0.372688 11.6078 0)
(-0.32602 11.7375 0)
(-0.277897 11.8468 0)
(-0.230749 11.9419 0)
(-0.183475 12.0098 0)
(-0.134907 12.0266 0)
(-0.0860596 11.9698 0)
(-0.0424927 11.6385 0)
(-0.0051586 10.2488 0)
(0.000987332 10.0028 0)
(0.00135646 10.0011 0)
(0.000533268 10.0002 0)
(-0.000577109 10.0045 0)
(-0.00361656 10.006 0)
(-0.00845696 10.007 0)
(-0.0155601 10.0077 0)
(-0.0254857 10.0079 0)
(-0.0389199 10.0081 0)
(-0.0566524 10.0085 0)
(-0.0795348 10.0099 0)
(-0.10841 10.0136 0)
(-0.144 10.021 0)
(-0.186733 10.0345 0)
(-0.236498 10.0568 0)
(-0.292306 10.0916 0)
(-0.351964 10.1425 0)
(-0.412632 10.211 0)
(-0.471509 10.2971 0)
(-0.524975 10.4015 0)
(-0.569127 10.5236 0)
(-0.600058 10.6617 0)
(-0.61415 10.8133 0)
(-0.605954 10.976 0)
(-0.578819 11.1418 0)
(-0.542895 11.3048 0)
(-0.500171 11.464 0)
(-0.452486 11.6178 0)
(-0.401552 11.7639 0)
(-0.348859 11.8969 0)
(-0.297647 12.0279 0)
(-0.246928 12.1449 0)
(-0.194852 12.2157 0)
(-0.142696 12.2347 0)
(-0.0909228 12.1725 0)
(-0.0450797 11.8121 0)
(-0.00679255 10.3582 0)
(-0.000656553 10.0043 0)
(0.000894947 10.0027 0)
(0.00125432 10.001 0)
(0.000487932 10.0001 4.22785e-20)
(-0.00367107 10.0056 0)
(-0.00846361 10.0065 0)
(-0.0154889 10.0068 0)
(-0.0253021 10.0065 0)
(-0.0385905 10.0059 0)
(-0.0561581 10.0052 0)
(-0.0788929 10.0051 0)
(-0.107712 10.0065 0)
(-0.143477 10.0108 0)
(-0.186846 10.02 0)
(-0.238081 10.0367 0)
(-0.296746 10.0642 0)
(-0.361338 10.1065 0)
(-0.428972 10.1675 0)
(-0.496127 10.2483 0)
(-0.559544 10.3484 0)
(-0.61517 10.4678 0)
(-0.658824 10.6053 0)
(-0.686517 10.7587 0)
(-0.694752 10.9245 0)
(-0.678088 11.1001 0)
(-0.641078 11.2768 0)
(-0.595495 11.4484 0)
(-0.543731 11.6143 0)
(-0.487922 11.7733 0)
(-0.429907 11.9226 0)
(-0.373725 12.0768 0)
(-0.318543 12.2286 0)
(-0.262166 12.3462 0)
(-0.20551 12.4179 0)
(-0.149878 12.4366 0)
(-0.0954106 12.3674 0)
(-0.0473524 11.9789 0)
(-0.00827471 10.467 0)
(-0.00371978 10.0053 0)
(-0.000720549 10.0041 0)
(0.000790987 10.0025 1.92405e-19)
(0.00115495 10.0009 -1.34042e-19)
(0.000444775 10.0001 -8.29837e-20)
(-0.00845681 10.006 0)
(-0.0154001 10.006 0)
(-0.0250949 10.0053 0)
(-0.0382236 10.004 0)
(-0.055594 10.0023 0)
(-0.0781159 10.0008 0)
(-0.106758 10.0002 0)
(-0.142479 10.0017 0)
(-0.186115 10.0071 0)
(-0.238217 10.0186 0)
(-0.298795 10.0395 0)
(-0.366998 10.0733 0)
(-0.440721 10.1244 0)
(-0.516258 10.1969 0)
(-0.589391 10.2915 0)
(-0.656441 10.4068 0)
(-0.712987 10.5422 0)
(-0.754675 10.6957 0)
(-0.777564 10.8643 0)
(-0.778416 11.0441 0)
(-0.751905 11.2319 0)
(-0.703942 11.4186 0)
(-0.647993 11.5977 0)
(-0.586794 11.7691 0)
(-0.522666 11.9316 0)
(-0.460685 12.102 0)
(-0.39999 12.2766 0)
(-0.338115 12.4277 0)
(-0.276314 12.5441 0)
(-0.215301 12.6148 0)
(-0.156378 12.6312 0)
(-0.0994638 12.5541 0)
(-0.0493162 12.1387 0)
(-0.00959356 10.5737 0)
(-0.0084521 10.0055 0)
(-0.00372093 10.0049 -4.34664e-19)
(-0.000773407 10.0038 -2.03319e-19)
(0.00069299 10.0023 9.44278e-20)
(0.00105967 10.0009 -8.76814e-20)
(0.000403856 10.0001 0)
(-0.0153014 10.0053 0)
(-0.024874 10.0042 0)
(-0.0378364 10.0023 0)
(-0.0549914 9.99979 0)
(-0.077258 9.99701 0)
(-0.105637 9.99461 0)
(-0.141157 9.99362 0)
(-0.184784 9.99554 0)
(-0.23729 10.0024 0)
(-0.299041 10.0171 0)
(-0.369717 10.043 0)
(-0.447967 10.0844 0)
(-0.530949 10.1457 0)
(-0.614065 10.2314 0)
(-0.692386 10.3412 0)
(-0.761892 10.4728 0)
(-0.81789 10.6249 0)
(-0.855978 10.7947 0)
(-0.872408 10.9786 0)
(-0.864349 11.1718 0)
(-0.826695 11.371 0)
(-0.766842 11.5663 0)
(-0.699956 11.7518 0)
(-0.629011 11.9271 0)
(-0.560324 12.1108 0)
(-0.493171 12.3014 0)
(-0.424554 12.4747 0)
(-0.356215 12.6234 0)
(-0.289232 12.7369 0)
(-0.224144 12.805 0)
(-0.162169 12.8179 0)
(-0.103061 12.7322 0)
(-0.0509933 12.291 0)
(-0.0107499 10.6774 0)
(-0.0152168 10.0046 0)
(-0.00835234 10.005 9.18581e-19)
(-0.00366429 10.0045 0)
(-0.000821181 10.0035 1.99504e-19)
(0.000601634 10.0022 3.31327e-23)
(0.00096839 10.0008 0)
(0.000365194 10.0001 0)
(-0.0246481 10.0032 0)
(-0.0374405 10.0008 0)
(-0.0543725 9.99754 0)
(-0.0763599 9.99365 0)
(-0.10442 9.98968 0)
(-0.139629 9.98646 0)
(-0.183045 9.98529 0)
(-0.235607 9.988 0)
(-0.297957 9.99707 0)
(-0.370206 10.0157 0)
(-0.451627 10.0478 0)
(-0.540236 10.0981 0)
(-0.632366 10.1712 0)
(-0.722451 10.2715 0)
(-0.804882 10.3979 0)
(-0.875406 10.5469 0)
(-0.929182 10.7162 0)
(-0.961913 10.9025 0)
(-0.970193 11.1011 0)
(-0.951731 11.307 0)
(-0.901749 11.5163 0)
(-0.829216 11.7192 0)
(-0.750934 11.9093 0)
(-0.674759 12.1062 0)
(-0.600086 12.3102 0)
(-0.523539 12.4994 0)
(-0.447242 12.6697 0)
(-0.372716 12.8142 0)
(-0.300858 12.9235 0)
(-0.232014 12.9879 0)
(-0.167262 12.9961 0)
(-0.106209 12.9014 0)
(-0.0524119 12.4357 0)
(-0.0117506 10.7773 0)
(-0.0244527 10.0024 0)
(-0.0149688 10.0039 1.2027e-22)
(-0.00811816 10.0044 0)
(-0.00360359 10.0041 -2.10803e-19)
(-0.000859879 10.0032 1.95751e-23)
(0.000516731 10.002 0)
(0.000881097 10.0007 0)
(0.000328796 10.0001 0)
(-0.0370457 9.9995 0)
(-0.0537511 9.99555 0)
(-0.0754497 9.99069 0)
(-0.10316 9.98531 0)
(-0.137984 9.98011 0)
(-0.181047 9.97619 0)
(-0.233409 9.97514 0)
(-0.295925 9.97916 0)
(-0.369043 9.99115 0)
(-0.452551 10.0148 0)
(-0.545188 10.0544 0)
(-0.644247 10.115 0)
(-0.74514 10.2016 0)
(-0.841284 10.318 0)
(-0.926454 10.4622 0)
(-0.996314 10.6293 0)
(-1.04603 10.8163 0)
(-1.07157 11.0187 0)
(-1.07002 11.2315 0)
(-1.03974 11.449 0)
(-0.976376 11.6673 0)
(-0.890495 11.876 0)
(-0.806206 12.0882 0)
(-0.723093 12.3058 0)
(-0.637275 12.5086 0)
(-0.551584 12.6945 0)
(-0.467934 12.8599 0)
(-0.387563 12.999 0)
(-0.311193 13.103 0)
(-0.238935 13.1627 0)
(-0.171686 13.1657 0)
(-0.10893 13.0616 0)
(-0.0535995 12.5727 0)
(-0.0126065 10.873 0)
(-0.0367037 9.99834 0)
(-0.0239991 10.0014 -5.12841e-19)
(-0.01447 10.0031 0)
(-0.00788261 10.0038 0)
(-0.00352992 10.0036 6.20649e-19)
(-0.000889112 10.0029 0)
(0.000438285 10.0018 0)
(0.000797887 10.0007 1.65768e-19)
(0.000294689 10.0001 0)
(-0.0531381 9.99379 0)
(-0.0745441 9.98806 0)
(-0.101891 9.98144 0)
(-0.136289 9.97449 0)
(-0.178901 9.96812 0)
(-0.230882 9.9637 0)
(-0.293241 9.96318 0)
(-0.366693 9.96916 0)
(-0.451435 9.985 0)
(-0.54681 10.0148 0)
(-0.650934 10.0634 0)
(-0.760275 10.1359 0)
(-0.86925 10.2375 0)
(-0.97023 10.3716 0)
(-1.05649 10.5346 0)
(-1.12379 10.7205 0)
(-1.16748 10.9251 0)
(-1.18396 11.1433 0)
(-1.17095 11.3693 0)
(-1.12758 11.5971 0)
(-1.0499 11.8226 0)
(-0.957033 12.0545 0)
(-0.864659 12.2882 0)
(-0.768334 12.5049 0)
(-0.671635 12.7043 0)
(-0.57717 12.885 0)
(-0.486571 13.0443 0)
(-0.400773 13.1769 0)
(-0.320277 13.275 0)
(-0.244957 13.3293 0)
(-0.175488 13.3263 0)
(-0.111258 13.2129 0)
(-0.0545838 12.702 0)
(-0.0133305 10.964 0)
(-0.0526077 9.99223 0)
(-0.0359734 9.99704 0)
(-0.0231258 10.0003 -5.0711e-19)
(-0.0139755 10.0023 -4.70865e-19)
(-0.00762963 10.0032 -8.74456e-19)
(-0.0034415 10.0032 0)
(-0.000908786 10.0026 -3.7715e-19)
(0.000366499 10.0017 -3.50309e-19)
(0.000718812 10.0006 1.62686e-19)
(0.000262823 10.0001 0)
(-0.0736556 9.98573 0)
(-0.100635 9.97801 0)
(-0.134589 9.9695 0)
(-0.176695 9.96096 0)
(-0.228168 9.95354 0)
(-0.290138 9.94895 0)
(-0.363521 9.94951 0)
(-0.448841 9.95827 0)
(-0.54593 9.97904 0)
(-0.653601 10.0164 0)
(-0.769244 10.0755 0)
(-0.888415 10.1616 0)
(-1.00447 10.2797 0)
(-1.10876 10.4328 0)
(-1.1942 10.6156 0)
(-1.25688 10.8205 0)
(-1.29251 11.0425 0)
(-1.29807 11.2757 0)
(-1.27206 11.5138 0)
(-1.21442 11.7503 0)
(-1.12999 12.0002 0)
(-1.02757 12.2546 0)
(-0.919439 12.488 0)
(-0.810163 12.7016 0)
(-0.703007 12.8957 0)
(-0.600242 13.0699 0)
(-0.503173 13.2221 0)
(-0.412407 13.3476 0)
(-0.328183 13.439 0)
(-0.250143 13.4873 0)
(-0.178717 13.478 0)
(-0.113229 13.3555 0)
(-0.0553914 12.8237 0)
(-0.0139352 11.0503 0)
(-0.0728887 9.98367 0)
(-0.0515137 9.99053 -5.73658e-19)
(-0.0345865 9.99561 5.35767e-19)
(-0.0222673 9.99922 -2.70274e-22)
(-0.0134574 10.0015 4.6198e-19)
(-0.00735517 10.0026 4.29121e-19)
(-0.00333902 10.0028 7.97027e-19)
(-0.000918826 10.0024 5.55191e-19)
(0.000301042 10.0016 -1.71905e-19)
(0.000643959 10.0006 0)
(0.000233177 10.0001 0)
(-0.0994063 9.97498 0)
(-0.132909 9.96508 0)
(-0.174486 9.9546 0)
(-0.225375 9.94452 0)
(-0.286794 9.9363 0)
(-0.359814 9.93199 0)
(-0.445214 9.93434 0)
(-0.54322 9.94686 0)
(-0.653221 9.97384 0)
(-0.7734 10.0202 0)
(-0.900327 10.0915 0)
(-1.02856 10.1928 0)
(-1.15038 10.3291 0)
(-1.25615 10.5022 0)
(-1.33865 10.7054 0)
(-1.39453 10.9294 0)
(-1.42001 11.1682 0)
(-1.41286 11.4154 0)
(-1.37241 11.664 0)
(-1.30938 11.9263 0)
(-1.2152 12.2003 0)
(-1.09389 12.4554 0)
(-0.970191 12.686 0)
(-0.848384 12.8943 0)
(-0.731327 13.0817 0)
(-0.620828 13.2484 0)
(-0.517817 13.3927 0)
(-0.422555 13.5104 0)
(-0.334999 13.5948 0)
(-0.254565 13.6367 0)
(-0.181429 13.621 0)
(-0.114881 13.4894 0)
(-0.056046 12.938 0)
(-0.0144339 11.1318 0)
(-0.0983491 9.97228 0)
(-0.0713261 9.98147 -8.55299e-22)
(-0.0494403 9.98869 0)
(-0.0332321 9.99423 -4.35058e-22)
(-0.0213779 9.99819 0)
(-0.0129099 10.0007 -4.53395e-19)
(-0.00705953 10.0021 -8.42241e-19)
(-0.00322193 10.0025 2.01978e-23)
(-0.000919226 10.0021 3.63236e-19)
(0.000242014 10.0014 -1.68706e-19)
(0.000573331 10.0005 1.56708e-19)
(0.000205715 10.0001 0)
(-0.131268 9.96117 0)
(-0.172303 9.94897 0)
(-0.222577 9.93652 0)
(-0.283344 9.92506 0)
(-0.355794 9.91639 0)
(-0.440903 9.91298 0)
(-0.539216 9.91801 0)
(-0.650589 9.93546 0)
(-0.773873 9.97006 0)
(-0.906525 10.0271 0)
(-1.04419 10.1122 0)
(-1.1804 10.2305 0)
(-1.30634 10.3862 0)
(-1.41152 10.5804 0)
(-1.48878 10.8044 0)
(-1.53558 11.0471 0)
(-1.54889 11.302 0)
(-1.5273 11.5616 0)
(-1.48261 11.8376 0)
(-1.41083 12.1257 0)
(-1.29561 12.4019 0)
(-1.15553 12.6549 0)
(-1.0167 12.8803 0)
(-0.882941 13.0818 0)
(-0.756624 13.2613 0)
(-0.639017 13.4197 0)
(-0.530614 13.5555 0)
(-0.43133 13.6652 0)
(-0.340821 13.7422 0)
(-0.2583 13.7777 0)
(-0.183681 13.7554 0)
(-0.116251 13.615 0)
(-0.0565685 13.0452 0)
(-0.0148405 11.2084 0)
(-0.129861 9.95769 0)
(-0.0961922 9.96945 6.40912e-19)
(-0.0683534 9.97913 -5.99848e-19)
(-0.0474267 9.98693 5.55912e-19)
(-0.0318387 9.99291 0)
(-0.0204472 9.99721 0)
(-0.0123321 10 4.44967e-19)
(-0.00674396 10.0016 -4.13233e-19)
(-0.00309071 10.0021 2.61319e-23)
(-0.00090989 10.0019 1.78272e-19)
(0.000189408 10.0013 -1.65593e-19)
(0.000506864 10.0005 -1.53795e-19)
(0.000180522 10.0001 0)
(-0.170172 9.94397 0)
(-0.219811 9.92941 0)
(-0.27988 9.91507 0)
(-0.351628 9.90251 0)
(-0.436182 9.89393 0)
(-0.534341 9.8922 0)
(-0.646344 9.90098 0)
(-0.771595 9.92471 0)
(-0.908307 9.96852 0)
(-1.0531 10.038 0)
(-1.20066 10.1386 0)
(-1.34342 10.2754 0)
(-1.47157 10.4518 0)
(-1.57384 10.6678 0)
(-1.64343 10.9125 0)
(-1.67889 11.1735 0)
(-1.67801 11.443 0)
(-1.65359 11.7317 0)
(-1.60091 12.0355 0)
(-1.50696 12.3278 0)
(-1.3706 12.6032 0)
(-1.21218 12.8515 0)
(-1.05888 13.07 0)
(-0.913889 13.2632 0)
(-0.779008 13.434 0)
(-0.654942 13.5834 0)
(-0.541701 13.7105 0)
(-0.438848 13.8119 0)
(-0.345752 13.8814 0)
(-0.261424 13.9102 0)
(-0.185528 13.8815 0)
(-0.117376 13.7327 0)
(-0.0569797 13.1454 0)
(-0.0151687 11.2803 0)
(-0.168355 9.93954 0)
(-0.126962 9.95409 0)
(-0.0920615 9.9665 6.3355e-19)
(-0.0654793 9.9769 -1.17768e-18)
(-0.0453638 9.98525 1.09267e-18)
(-0.0303888 9.99165 -1.014e-18)
(-0.019475 9.99627 0)
(-0.0117258 9.99933 4.36866e-19)
(-0.00640803 10.0011 -4.05553e-19)
(-0.00294671 10.0018 -3.76749e-19)
(-0.000890077 10.0017 0)
(0.000143015 10.0012 1.6252e-19)
(0.000444892 10.0004 0)
(0.000158028 10 0)
(-0.21711 9.9231 0)
(-0.276449 9.90619 0)
(-0.347428 9.89017 0)
(-0.431258 9.87696 0)
(-0.528929 9.86915 0)
(-0.640996 9.87007 0)
(-0.76732 9.88387 0)
(-0.906752 9.9154 0)
(-1.05676 9.97012 0)
(-1.21307 10.0537 0)
(-1.36932 10.1717 0)
(-1.51693 10.3285 0)
(-1.64509 10.5266 0)
(-1.74198 10.7646 0)
(-1.80141 11.0299 0)
(-1.82324 11.3079 0)
(-1.82128 11.6084 0)
(-1.78992 11.9272 0)
(-1.71362 12.2375 0)
(-1.59705 12.5308 0)
(-1.43975 12.8024 0)
(-1.2637 13.0439 0)
(-1.09676 13.2539 0)
(-0.941361 13.4379 0)
(-0.79864 13.5992 0)
(-0.668763 13.7393 0)
(-0.551223 13.8574 0)
(-0.445235 13.9505 0)
(-0.349889 14.0126 0)
(-0.264011 14.0347 0)
(-0.187024 13.9997 0)
(-0.118286 13.8427 0)
(-0.0572979 13.2391 0)
(-0.0154297 11.3477 0)
(-0.214819 9.9175 0)
(-0.164545 9.93498 0)
(-0.121367 9.95039 0)
(-0.0880873 9.96369 1.24379e-18)
(-0.062546 9.97477 -1.15418e-18)
(-0.0432266 9.98365 1.07115e-18)
(-0.0288835 9.99045 0)
(-0.0184638 9.99538 -4.61539e-19)
(-0.0110917 9.99868 0)
(-0.00605297 10.0006 3.98054e-19)
(-0.00278873 10.0014 0)
(-0.000861262 10.0015 0)
(0.000102971 10.001 0)
(0.000388674 10.0004 1.57988e-19)
(0.000138283 10 7.71607e-20)
(-0.273097 9.8983 0)
(-0.343256 9.87919 0)
(-0.426268 9.86185 0)
(-0.523232 9.84858 0)
(-0.634945 9.84242 0)
(-0.761652 9.84718 0)
(-0.90274 9.86744 0)
(-1.0564 9.90844 0)
(-1.21929 9.97589 0)
(-1.38615 10.0755 0)
(-1.54961 10.2124 0)
(-1.70005 10.3904 0)
(-1.82583 10.6109 0)
(-1.91474 10.8712 0)
(-1.96148 11.156 0)
(-1.98439 11.467 0)
(-1.97692 11.8001 0)
(-1.92064 12.1283 0)
(-1.81987 12.4417 0)
(-1.68058 12.7327 0)
(-1.50289 12.9981 0)
(-1.31009 13.2309 0)
(-1.13048 13.4313 0)
(-0.965541 13.6052 0)
(-0.815726 13.7567 0)
(-0.680659 13.8872 0)
(-0.559335 13.9963 0)
(-0.450613 14.0811 0)
(-0.353329 14.1358 0)
(-0.266131 14.1514 0)
(-0.188218 14.1101 0)
(-0.119011 13.9454 0)
(-0.0575387 13.3265 0)
(-0.0156332 11.4107 0)
(-0.270273 9.8913 0)
(-0.209906 9.9118 0)
(-0.157129 9.93039 1.42317e-18)
(-0.116009 9.94689 1.31949e-18)
(-0.0840419 9.96103 1.22359e-18)
(-0.0595174 9.97276 -1.13475e-18)
(-0.0410169 9.98214 0)
(-0.0273261 9.98933 0)
(-0.0174152 9.99455 0)
(-0.0104311 9.99807 8.41701e-19)
(-0.00568081 10.0002 3.9077e-19)
(-0.0026164 10.0011 3.62899e-19)
(-0.000823833 10.0013 0)
(7.06537e-05 10.001 -1.66936e-19)
(0.000338674 10.0003 -8.15564e-20)
(0.000120902 10 0)
(-0.339179 9.86943 0)
(-0.421291 9.8484 0)
(-0.51742 9.83025 0)
(-0.6285 9.81772 0)
(-0.755073 9.8143 0)
(-0.896983 9.82426 0)
(-1.05305 9.85261 0)
(-1.22072 9.90489 0)
(-1.39575 9.98693 0)
(-1.5719 10.1043 0)
(-1.74076 10.2616 0)
(-1.89178 10.4618 0)
(-2.01266 10.7054 0)
(-2.09089 10.9873 0)
(-2.14138 11.3072 0)
(-2.16072 11.6536 0)
(-2.12728 11.9994 0)
(-2.04474 12.3333 0)
(-1.91904 12.6463 0)
(-1.75731 12.9322 0)
(-1.56001 13.1892 0)
(-1.35151 13.4118 0)
(-1.16024 13.6016 0)
(-0.986655 13.7649 0)
(-0.830488 13.9061 0)
(-0.690818 14.0271 0)
(-0.566189 14.1272 0)
(-0.455102 14.2038 0)
(-0.35616 14.2513 0)
(-0.267847 14.2606 0)
(-0.189155 14.2133 0)
(-0.119579 14.0412 0)
(-0.0577138 13.408 0)
(-0.0157899 11.4695 0)
(-0.335769 9.86077 0)
(-0.264039 9.88421 0)
(-0.200254 9.90611 -3.01082e-18)