/*--------------------------------*- C++ -*----------------------------------*\
  =========                 |
  \\      /  F ield         | OpenFOAM: The Open Source CFD Toolbox
   \\    /   O peration     | Website:  https://openfoam.org
    \\  /    A nd           | Version:  8
     \\/     M anipulation  |
\*---------------------------------------------------------------------------*/
FoamFile
{
    version     2.0;
    format      ascii;
    class       volScalarField;
    location    "1500";
    object      k;
}
// * * * * * * * * * * * * * * * * * * * * * * * * * * * * * * * * * * * * * //

dimensions      [0 2 -2 0 0 0 0];

internalField   nonuniform List<scalar> 
15677
(
0.991541
0.87871
1.19175
0.495982
0.831014
1.13858
0.398763
0.479957
0.693352
1.04262
0.380438
0.386828
0.414437
0.659629
0.97785
0.37573
0.37261
0.358583
0.359292
0.668614
0.936287
0.374332
0.370445
0.355688
0.317526
0.358577
0.69172
0.910845
0.373838
0.370028
0.359203
0.329882
0.295996
0.368883
0.717357
0.892827
0.373577
0.369928
0.362049
0.342608
0.309243
0.283176
0.392712
0.732058
0.881067
0.373422
0.36999
0.364005
0.350927
0.326918
0.292386
0.28422
0.423501
0.744771
0.871497
0.373329
0.370043
0.365277
0.356117
0.339388
0.312652
0.281997
0.289399
0.456402
0.747502
0.864901
0.373281
0.370047
0.366075
0.359366
0.347553
0.328237
0.300822
0.275533
0.300441
0.483805
0.75009
0.860969
0.373257
0.370013
0.366541
0.361408
0.352853
0.338964
0.318042
0.291607
0.272401
0.315359
0.508005
0.751064
0.859572
0.373248
0.369972
0.366771
0.362669
0.356298
0.346187
0.330691
0.309261
0.284356
0.272831
0.331876
0.527342
0.751236
0.86014
0.373245
0.369936
0.366848
0.363402
0.358517
0.35103
0.33958
0.323142
0.30164
0.279344
0.274547
0.347572
0.543865
0.75104
0.862238
0.373244
0.369916
0.366848
0.363774
0.359898
0.354251
0.345735
0.333326
0.316275
0.295373
0.275756
0.277967
0.363433
0.555638
0.751012
0.866602
0.373244
0.369905
0.366825
0.363918
0.36069
0.35634
0.349949
0.340613
0.327467
0.310237
0.29016
0.273319
0.282904
0.376968
0.565628
0.750866
0.873346
0.373243
0.3699
0.366804
0.363943
0.361078
0.357621
0.35277
0.34574
0.33572
0.32212
0.304936
0.285908
0.271942
0.287964
0.38958
0.571753
0.750961
0.882149
0.373242
0.369897
0.366791
0.363933
0.361208
0.358325
0.354575
0.349269
0.341676
0.331153
0.31727
0.300368
0.282474
0.271349
0.293603
0.399173
0.577196
0.750952
0.893032
0.373242
0.369895
0.366782
0.363917
0.361234
0.358617
0.355635
0.351605
0.345874
0.33783
0.326924
0.312963
0.296417
0.279761
0.271471
0.298699
0.40759
0.579932
0.750902
0.905985
0.373242
0.369893
0.366777
0.363904
0.361227
0.358716
0.356124
0.353047
0.348728
0.342641
0.334229
0.323093
0.309128
0.29311
0.277617
0.271865
0.303546
0.413518
0.581763
0.75091
0.920983
0.373242
0.369891
0.366773
0.363893
0.361212
0.358736
0.356319
0.353765
0.350551
0.34599
0.339601
0.330923
0.319632
0.30583
0.290279
0.276039
0.272619
0.307573
0.41831
0.581696
0.750967
0.937943
0.373242
0.36989
0.36677
0.363886
0.361198
0.358728
0.356382
0.354085
0.351502
0.348196
0.343415
0.336789
0.327921
0.316605
0.302954
0.288038
0.274785
0.273644
0.311085
0.420935
0.581193
0.75108
0.956815
0.373242
0.369889
0.366768
0.363879
0.361187
0.358713
0.35639
0.354212
0.351954
0.349401
0.345983
0.341034
0.334244
0.325274
0.313966
0.300612
0.286156
0.274047
0.27465
0.31373
0.422956
0.580006
0.751279
0.977427
0.373242
0.369888
0.366766
0.363874
0.361179
0.358697
0.356379
0.354248
0.352152
0.350008
0.347422
0.343961
0.338901
0.332
0.322987
0.31179
0.298659
0.284833
0.273507
0.275723
0.315802
0.422951
0.577903
0.751463
0.999732
0.373242
0.369887
0.366765
0.363871
0.361172
0.358684
0.356363
0.354244
0.352222
0.350296
0.348169
0.345661
0.342165
0.337024
0.330094
0.321119
0.310048
0.297277
0.283838
0.273463
0.276708
0.317264
0.422492
0.575172
0.751819
1.02349
0.373242
0.369887
0.366764
0.363868
0.361167
0.358672
0.356347
0.354225
0.352234
0.35041
0.34854
0.346583
0.344079
0.340612
0.335509
0.328607
0.319707
0.308808
0.296232
0.283335
0.273622
0.277727
0.318022
0.421404
0.572134
0.752148
1.04867
0.373242
0.369887
0.366763
0.363865
0.361163
0.358664
0.356334
0.354204
0.352221
0.350438
0.348704
0.347063
0.345128
0.342805
0.339451
0.334354
0.327504
0.318724
0.308043
0.295908
0.28341
0.274025
0.278672
0.318485
0.419441
0.568571
0.752685
1.07494
0.373242
0.369886
0.366763
0.363864
0.36116
0.358657
0.356323
0.354184
0.352201
0.350427
0.34876
0.347282
0.345691
0.344066
0.341828
0.338544
0.333655
0.327062
0.318547
0.308098
0.296087
0.283748
0.274745
0.279653
0.318454
0.416916
0.564925
0.753197
1.10234
0.373242
0.369886
0.366762
0.363862
0.361157
0.358651
0.356314
0.354168
0.352179
0.3504
0.348763
0.347357
0.345972
0.344764
0.343172
0.341266
0.338408
0.333731
0.327254
0.31884
0.308509
0.296645
0.284482
0.275787
0.280669
0.318294
0.414061
0.560888
0.753903
1.13032
0.373242
0.369886
0.366762
0.363861
0.361155
0.358647
0.356307
0.354155
0.35216
0.35037
0.348741
0.347361
0.346092
0.345101
0.343933
0.342926
0.341385
0.338706
0.334211
0.327919
0.319665
0.309473
0.297789
0.28582
0.277124
0.281793
0.317958
0.410885
0.556951
0.754687
1.16212
0.373242
0.369886
0.366761
0.36386
0.361153
0.358643
0.3563
0.354144
0.352143
0.350344
0.348711
0.347332
0.346122
0.345234
0.344367
0.343907
0.343159
0.341914
0.339547
0.335325
0.329324
0.321306
0.311289
0.299673
0.287646
0.278816
0.283071
0.31752
0.407577
0.552713
0.755962
1.19795
0.373242
0.369886
0.366761
0.36386
0.361152
0.35864
0.356295
0.354135
0.352129
0.350322
0.348681
0.347292
0.346105
0.345262
0.344579
0.344415
0.344218
0.343873
0.343083
0.341233
0.33744
0.331716
0.323852
0.313897
0.302204
0.290027
0.28084
0.284512
0.317059
0.404134
0.548298
0.757628
1.23392
0.373242
0.369886
0.366761
0.363859
0.36115
0.358638
0.356291
0.354128
0.352117
0.350303
0.348653
0.347254
0.346066
0.345237
0.344652
0.344658
0.344807
0.345069
0.345339
0.345263
0.343957
0.340551
0.335072
0.327326
0.31731
0.305459
0.292934
0.283254
0.286194
0.316696
0.400356
0.543052
0.759582
1.26982
0.373242
0.369886
0.366761
0.363858
0.361149
0.358636
0.356287
0.354122
0.352107
0.350287
0.34863
0.347219
0.346023
0.345189
0.34465
0.34475
0.345106
0.345771
0.346767
0.347851
0.348491
0.347788
0.344767
0.339509
0.331771
0.321616
0.309418
0.296428
0.286021
0.288061
0.316472
0.396291
0.538124
0.761727
1.30534
0.369886
0.373246
0.366761
0.363858
0.361148
0.358634
0.356284
0.354116
0.352098
0.350273
0.348609
0.347189
0.345982
0.345139
0.34461
0.344759
0.345233
0.346152
0.34765
0.34954
0.351485
0.352939
0.352871
0.350226
0.345097
0.337289
0.326807
0.314149
0.300475
0.289212
0.29032
0.316549
0.392666
0.53308
0.764026
1.34024
0.36676
0.369896
0.373253
0.363858
0.361148
0.358632
0.356281
0.354112
0.352091
0.350262
0.348591
0.347163
0.345946
0.345091
0.344557
0.344724
0.345265
0.346337
0.348168
0.350628
0.353508
0.35644
0.358781
0.359371
0.357029
0.351952
0.343889
0.332967
0.319612
0.305115
0.293208
0.293134
0.316835
0.389237
0.528469
0.766506
1.37432
0.363857
0.366777
0.369917
0.37326
0.361147
0.358631
0.356279
0.354108
0.352085
0.350252
0.348576
0.347141
0.345914
0.345048
0.344504
0.344674
0.345246
0.346411
0.348457
0.351315
0.354872
0.35889
0.362916
0.36621
0.367421
0.365313
0.360109
0.351669
0.340055
0.325861
0.310897
0.298237
0.29628
0.317417
0.386296
0.523848
0.769066
1.40741
0.361146
0.363879
0.36681
0.369939
0.373268
0.35863
0.356277
0.354105
0.352079
0.350244
0.348563
0.347122
0.345886
0.34501
0.344455
0.344622
0.345206
0.346423
0.348609
0.351744
0.355794
0.360622
0.365918
0.371138
0.375393
0.377189
0.375141
0.369682
0.360594
0.348138
0.333629
0.318138
0.303832
0.299721
0.318407
0.383603
0.519716
0.771505
1.43938
0.358629
0.361173
0.363924
0.366844
0.369961
0.373276
0.356275
0.354102
0.352075
0.350237
0.348552
0.347106
0.345863
0.344978
0.344412
0.344574
0.345162
0.346408
0.348682
0.352018
0.356431
0.361871
0.36814
0.374845
0.381306
0.386534
0.38877
0.386652
0.380648
0.370754
0.358167
0.343335
0.326163
0.309937
0.30348
0.319661
0.381377
0.515832
0.773952
1.47013
0.356274
0.35866
0.361228
0.36397
0.36688
0.369984
0.373284
0.3541
0.352071
0.350232
0.348542
0.347093
0.345843
0.34495
0.344375
0.344532
0.34512
0.346383
0.348715
0.352196
0.356895
0.362809
0.36984
0.377712
0.385911
0.393661
0.399759
0.402335
0.399839
0.393118
0.383342
0.370684
0.354072
0.334893
0.316506
0.307505
0.321227
0.379384
0.51242
0.776324
1.49957
0.354098
0.356308
0.358724
0.361284
0.364017
0.366916
0.370007
0.373292
0.352067
0.350227
0.348534
0.347082
0.345826
0.344927
0.344345
0.344496
0.345083
0.346359
0.348732
0.35232
0.357246
0.363559
0.371209
0.38003
0.389629
0.3994
0.408367
0.415279
0.417887
0.414842
0.408574
0.399055
0.384525
0.365737
0.344245
0.323469
0.311789
0.323007
0.377829
0.509234
0.778699
1.52769
0.352065
0.354135
0.35638
0.35879
0.361342
0.364065
0.366953
0.370031
0.373301
0.350222
0.348528
0.347073
0.345811
0.344908
0.344319
0.344466
0.345052
0.346337
0.348743
0.352417
0.357524
0.364178
0.372382
0.382006
0.392781
0.404229
0.415542
0.425698
0.433127
0.435617
0.433437
0.427868
0.416426
0.399554
0.378217
0.354132
0.330768
0.316275
0.325033
0.37646
0.506451
0.781022
1.55443
0.350218
0.352104
0.354214
0.356454
0.358857
0.361402
0.364115
0.366992
0.370055
0.37331
0.348522
0.347065
0.345799
0.344893
0.344298
0.344441
0.345027
0.346321
0.348754
0.352501
0.35776
0.3647
0.37341
0.383792
0.395599
0.408498
0.421802
0.434673
0.445745
0.453575
0.457638
0.456685
0.449198
0.43528
0.415616
0.391391
0.364463
0.338335
0.320941
0.327214
0.375477
0.503869
0.783332
1.57982
0.348516
0.350259
0.352188
0.354295
0.356531
0.358927
0.361463
0.364166
0.367031
0.370081
0.373319
0.347058
0.345788
0.344881
0.344282
0.344422
0.345008
0.34631
0.348768
0.35258
0.357972
0.365162
0.374314
0.385422
0.398251
0.412471
0.427545
0.442768
0.456932
0.468852
0.479125
0.485328
0.482455
0.472367
0.455419
0.432552
0.405129
0.375138
0.346105
0.325734
0.329569
0.37469
0.501638
0.785595
1.60384
0.347052
0.348556
0.350346
0.352274
0.354378
0.356609
0.358998
0.361526
0.364219
0.367072
0.370107
0.373328
0.345778
0.344871
0.344268
0.344407
0.344994
0.346305
0.348786
0.352657
0.358169
0.365583
0.375133
0.386898
0.400756
0.416344
0.433074
0.450449
0.467343
0.482785
0.497893
0.511484
0.516231
0.510571
0.497161
0.476657
0.450191
0.419298
0.386062
0.35401
0.330627
0.33191
0.374285
0.499597
0.78783
1.62655
0.34577
0.347091
0.348643
0.350436
0.352363
0.354464
0.35669
0.359072
0.361591
0.364273
0.367113
0.370133
0.373338
0.344862
0.344255
0.344395
0.344984
0.346304
0.348809
0.352734
0.358356
0.365975
0.375888
0.388255
0.403078
0.420105
0.438622
0.458075
0.477527
0.496147
0.51552
0.535003
0.547873
0.550156
0.540823
0.52339
0.498792
0.468363
0.433759
0.397135
0.36199
0.335613
0.334273
0.373966
0.497838
0.790015
1.64795
0.344856
0.345802
0.347175
0.348733
0.350529
0.352455
0.354552
0.356773
0.359147
0.361658
0.364328
0.367156
0.37016
0.373347
0.344243
0.344385
0.344978
0.346307
0.348835
0.352811
0.358535
0.366344
0.376592
0.38952
0.405248
0.423655
0.444132
0.46594
0.487925
0.5096
0.532946
0.557821
0.577158
0.588177
0.586891
0.572973
0.550836
0.521631
0.4869
0.44839
0.408272
0.369987
0.340649
0.336632
0.373968
0.496253
0.792156
1.6681
0.344233
0.344882
0.345873
0.347262
0.348826
0.350624
0.352551
0.354643
0.356859
0.359225
0.361727
0.364385
0.367199
0.370187
0.373356
0.344375
0.344973
0.346313
0.348863
0.352889
0.358707
0.366693
0.377253
0.390706
0.40729
0.427011
0.449426
0.473941
0.498902
0.523701
0.551014
0.58115
0.606488
0.624396
0.632278
0.626231
0.606768
0.579252
0.544986
0.505657
0.463074
0.419389
0.377948
0.345691
0.338994
0.374034
0.494889
0.794244
1.68704
0.34437
0.344233
0.344941
0.345946
0.347352
0.348924
0.350723
0.352649
0.354737
0.356947
0.359305
0.361797
0.364443
0.367243
0.370213
0.373365
0.344968
0.34632
0.348892
0.352965
0.358873
0.367024
0.377874
0.391822
0.409215
0.430195
0.454507
0.481769
0.510269
0.538948
0.570504
0.60617
0.637505
0.661876
0.676828
0.680105
0.667967
0.641955
0.608405
0.568669
0.524487
0.477709
0.430414
0.385826
0.350704
0.341346
0.37419
0.493659
0.796273
1.70483
0.344967
0.344353
0.344237
0.345001
0.346025
0.347446
0.349025
0.350825
0.35275
0.354833
0.357038
0.359387
0.361869
0.364501
0.367285
0.370239
0.373374
0.346325
0.34892
0.353039
0.359031
0.367337
0.378459
0.39287
0.411029
0.433216
0.459385
0.489368
0.521538
0.55514
0.59218
0.634051
0.67196
0.70303
0.724667
0.73478
0.731668
0.711922
0.678307
0.638077
0.592511
0.543271
0.492203
0.441282
0.39358
0.355655
0.343678
0.374477
0.492612
0.798242
1.72149
0.346334
0.344921
0.344317
0.344242
0.345066
0.34611
0.347543
0.34913
0.35093
0.352855
0.354932
0.357132
0.359471
0.361941
0.364557
0.367325
0.370263
0.373382
0.348942
0.353106
0.359179
0.36763
0.379007
0.393854
0.412735
0.436078
0.464054
0.496716
0.532634
0.571629
0.615781
0.666025
0.711883
0.750866
0.779713
0.79613
0.798828
0.787078
0.757968
0.715623
0.668081
0.616353
0.561901
0.506483
0.451943
0.401174
0.360521
0.34598
0.374843
0.491668
0.800143
1.73712
0.34897
0.346244
0.344812
0.344275
0.344262
0.345132
0.346201
0.347643
0.34924
0.351038
0.352964
0.355034
0.357228
0.359554
0.36201
0.364612
0.367365
0.370287
0.37339
0.353164
0.359314
0.367903
0.379517
0.394773
0.414336
0.43878
0.468501
0.503794
0.543547
0.58825
0.640166
0.701976
0.760018
0.809611
0.847521
0.870656
0.87794
0.86967
0.846486
0.805997
0.753727
0.698247
0.640057
0.58028
0.520482
0.462352
0.408579
0.365276
0.348245
0.375269
0.490868
0.801981
1.75173
0.353227
0.348805
0.34602
0.344693
0.344234
0.3443
0.3452
0.346299
0.347747
0.349354
0.35115
0.353075
0.355139
0.357322
0.359635
0.362078
0.364665
0.367403
0.370311
0.373398
0.359432
0.368151
0.379989
0.395627
0.415829
0.441319
0.472718
0.510585
0.554239
0.604842
0.664949
0.740843
0.817999
0.885463
0.93603
0.967588
0.97895
0.971524
0.947808
0.909943
0.85588
0.792451
0.728428
0.663509
0.598325
0.534146
0.472474
0.415769
0.369907
0.350463
0.375742
0.490145
0.803743
1.76365
0.359553
0.352973
0.348388
0.345783
0.344587
0.34419
0.344354
0.34527
0.346403
0.347855
0.349473
0.351266
0.353189
0.355243
0.357415
0.359714
0.362143
0.364716
0.367441
0.370334
0.373406
0.368369
0.380417
0.396415
0.417217
0.443695
0.476698
0.517074
0.564642
0.621221
0.690096
0.783051
0.885451
0.982205
1.05508
1.09838
1.11457
1.106
1.07727
1.0332
0.977269
0.907419
0.831621
0.758488
0.686611
0.615968
0.547433
0.48228
0.422729
0.374396
0.352628
0.37625
0.489542
0.805218
1.77367
0.368585
0.359182
0.3523
0.34795
0.345568
0.344491
0.344148
0.344419
0.345343
0.346513
0.347967
0.349595
0.351384
0.353303
0.355344
0.357505
0.359791
0.362207
0.364766
0.367477
0.370356
0.373414
0.380799
0.397132
0.418497
0.445907
0.480438
0.52324
0.574683
0.637259
0.715764
0.829124
0.96223
1.09641
1.20682
1.27364
1.29747
1.28765
1.25063
1.19416
1.12513
1.04799
0.960316
0.871045
0.788301
0.709278
0.633153
0.560308
0.49175
0.429439
0.378737
0.354735
0.376781
0.48906
0.806477
1.78454
0.381165
0.368063
0.358143
0.351597
0.347546
0.34537
0.344402
0.344113
0.344493
0.345422
0.346628
0.348084
0.34972
0.351503
0.353413
0.355443
0.357592
0.359865
0.362269
0.364815
0.367513
0.370377
0.373421
0.397777
0.419667
0.447956
0.483934
0.529067
0.584305
0.652908
0.742118
0.878877
1.0466
1.22317
1.37967
1.48953
1.53594
1.52789
1.4823
1.40951
1.32002
1.22228
1.12137
1.01419
0.910518
0.817744
0.731436
0.649837
0.572747
0.500868
0.435897
0.382915
0.356776
0.377256
0.488696
0.807873
1.79633
0.398381
0.380451
0.366514
0.357067
0.350941
0.347166
0.345184
0.344321
0.344088
0.344573
0.345508
0.346748
0.348206
0.349846
0.351619
0.353521
0.355539
0.357677
0.359938
0.36233
0.364863
0.367547
0.370398
0.373424
0.420729
0.449838
0.487187
0.534544
0.593477
0.668165
0.769164
0.931394
1.1356
1.35663
1.56316
1.72549
1.8192
1.83188
1.7814
1.69229
1.57828
1.45201
1.32297
1.19649
1.0686
0.949818
0.846704
0.753026
0.665982
0.584729
0.509626
0.442085
0.386933
0.358494
0.377681
0.488299
0.809413
1.80911
0.421701
0.397432
0.378192
0.364919
0.356057
0.350316
0.346807
0.34501
0.344251
0.344075
0.344659
0.345601
0.346871
0.34833
0.349967
0.351733
0.353626
0.355633
0.35776
0.360009
0.362388
0.364909
0.36758
0.370408
0.373424
0.451559
0.490192
0.539667
0.602186
0.683032
0.79672
0.985398
1.22614
1.49145
1.74894
1.96762
2.11967
2.18334
2.15099
2.0497
1.91135
1.7525
1.58719
1.4254
1.27237
1.12305
0.98873
0.875076
0.773995
0.681561
0.596244
0.518013
0.448016
0.390281
0.359971
0.378174
0.487927
0.811128
1.82298
0.453109
0.420469
0.394191
0.375884
0.363419
0.355088
0.349717
0.346468
0.344849
0.344192
0.344074
0.344748
0.345704
0.346994
0.348452
0.350086
0.351844
0.353727
0.355725
0.35784
0.360078
0.362445
0.364953
0.367597
0.370408
0.373424
0.492962
0.544433
0.610434
0.697498
0.824484
1.03962
1.31575
1.6237
1.93101
2.20675
2.42162
2.5494
2.57105
2.48424
2.32561
2.13408
1.92827
1.72292
1.52792
1.34804
1.17707
1.02703
0.902772
0.794296
0.696555
0.60728
0.52604
0.452933
0.393148
0.361615
0.378742
0.487523
0.813026
1.83802
0.495417
0.451526
0.415868
0.390909
0.373708
0.361973
0.354153
0.349142
0.346149
0.344702
0.344145
0.34409
0.344837
0.345813
0.347114
0.348572
0.350202
0.351953
0.353827
0.355814
0.357918
0.360145
0.3625
0.364976
0.367597
0.370408
0.373424
0.548862
0.618226
0.711537
0.852111
1.09301
1.40269
1.75087
2.10561
2.43686
2.71541
2.9128
3.00405
2.97328
2.82422
2.60336
2.35611
2.10244
1.85702
1.62908
1.42263
1.2302
1.06451
0.929696
0.813905
0.71095
0.617843
0.532685
0.457135
0.396313
0.363444
0.379405
0.487165
0.815149
1.85434
0.552751
0.493398
0.445047
0.411257
0.387811
0.371608
0.360574
0.353252
0.348591
0.345855
0.344567
0.344107
0.344132
0.344925
0.345925
0.34723
0.348691
0.350315
0.352059
0.353923
0.355901
0.357994
0.36021
0.362528
0.364976
0.367597
0.370408
0.373424
0.625598
0.725117
0.879281
1.14475
1.48583
1.87152
2.27063
2.65438
2.99471
3.26296
3.4308
3.47462
3.38246
3.16488
2.87835
2.57411
2.27261
1.98779
1.72774
1.49544
1.28205
1.10098
0.95577
0.832797
0.724748
0.626605
0.538367
0.461766
0.399815
0.365489
0.38017
0.486775
0.817511
1.87205
0.632086
0.550164
0.484289
0.438623
0.406901
0.384814
0.369569
0.35922
0.352384
0.348062
0.345582
0.344444
0.344065
0.344195
0.34501
0.346038
0.347345
0.348808
0.350425
0.352163
0.354017
0.355985
0.358068
0.360242
0.362528
0.364976
0.367597
0.370408
0.373424
0.738224
0.905732
1.19429
1.56452
1.98491
2.42505
2.85746
3.25578
3.59266
3.83906
3.96649
3.95323
3.79214
3.50133
3.14709
2.78559
2.43701
2.11396
1.82303
1.56589
1.33229
1.13629
0.980928
0.850963
0.736257
0.634097
0.544626
0.466877
0.403696
0.367775
0.381068
0.486465
0.820166
1.89127
0.749822
0.628797
0.537226
0.475372
0.432547
0.402681
0.381903
0.367593
0.357913
0.35155
0.347559
0.345329
0.344336
0.344026
0.34427
0.345095
0.346152
0.347457
0.348923
0.350532
0.352264
0.354108
0.356068
0.358104
0.360242
0.362528
0.364976
0.367597
0.370408
0.373421
0.931267
1.24128
1.6384
2.09075
2.56853
3.04538
3.49677
3.89756
4.22013
4.43435
4.51161
4.43285
4.19682
3.82963
3.40689
2.98878
2.59444
2.23471
1.91433
1.63355
1.38067
1.1703
1.00514
0.86613
0.746097
0.642352
0.551531
0.472526
0.408003
0.370345
0.382108
0.48613
0.823135
1.91212
0.745784
0.953711
0.609611
0.524835
0.466924
0.426658
0.398577
0.379075
0.36568
0.356653
0.350753
0.347086
0.345102
0.344244
0.343998
0.344351
0.345181
0.346264
0.347568
0.349035
0.350637
0.352362
0.354197
0.356108
0.358104
0.360242
0.362528
0.364976
0.367597
0.370398
0.373413
1.28551
1.70735
2.18898
2.70109
3.21813
3.71715
4.17554
4.56854
4.8673
5.0401
5.05849
4.90717
4.59183
4.14667
3.65582
3.18247
2.74412
2.34946
2.00123
1.69813
1.427
1.20294
1.02533
0.879098
0.756936
0.651467
0.559162
0.478781
0.412797
0.373231
0.383336
0.485921
0.826489
1.93475
0.715657
0.949687
1.32361
0.591815
0.513124
0.458729
0.420927
0.394587
0.376334
0.363833
0.355445
0.349995
0.34665
0.344902
0.344168
0.343984
0.344435
0.345269
0.346375
0.347677
0.349145
0.350739
0.352458
0.354241
0.356108
0.358104
0.360242
0.362528
0.364976
0.36758
0.370377
0.373406
1.7714
2.27979
2.82302
3.37612
3.91727
4.42623
4.88169
5.2583
5.525
5.64808
5.60002
5.37066
4.97334
4.45009
3.89255
3.36593
2.88561
2.45791
2.0835
1.75946
1.47117
1.23005
1.04257
0.893385
0.768898
0.661544
0.567609
0.48572
0.418141
0.376502
0.384763
0.485705
0.830269
1.95926
0.68804
0.901868
1.31982
1.82599
0.575261
0.501758
0.450755
0.415354
0.390717
0.373685
0.362057
0.354289
0.349285
0.346261
0.344731
0.344109
0.343983
0.344519
0.345359
0.346484
0.347784
0.349252
0.35084
0.352506
0.354241
0.356108
0.358104
0.360242
0.362528
0.364953
0.367546
0.370355
0.373398
2.36343
2.93484
3.52003
4.09804
4.65046
5.15933
5.60399
5.9572
6.18462
6.25055
6.12974
5.81851
5.33827
4.7382
4.11623
3.53876
3.0187
2.55995
2.16103
1.81744
1.50759
1.25314
1.06156
0.909153
0.78212
0.672702
0.576975
0.493435
0.424116
0.380191
0.386457
0.485709
0.83456
1.98584
0.662722
0.856721
1.25064
1.82342
2.43408
0.559372
0.490689
0.443003
0.409945
0.386972
0.371132
0.360354
0.353199
0.34864
0.34592
0.344585
0.344066
0.343995
0.344602
0.345452
0.346591
0.34789
0.349357
0.350889
0.352505
0.354241
0.356108
0.358104
0.360242
0.3625
0.364908
0.367512
0.370333
0.37339
3.03709
3.65081
4.26073
4.84983
5.40293
5.90419
6.33223
6.65638
6.83804
6.84031
6.64187
6.24674
5.68432
5.00992
4.32646
3.70084
3.14342
2.65559
2.23384
1.86486
1.53849
1.2785
1.08249
0.926578
0.796757
0.685077
0.587383
0.50203
0.430808
0.384406
0.388433
0.485812
0.839447
2.01459
0.638936
0.814454
1.18264
1.73541
2.43368
3.12278
0.543998
0.47992
0.435484
0.404709
0.383362
0.368681
0.358742
0.352202
0.348066
0.345622
0.344461
0.344035
0.344022
0.344682
0.345546
0.346696
0.347996
0.349408
0.350888
0.352506
0.354241
0.356108
0.358104
0.36021
0.362444
0.364861
0.367476
0.37031
0.373382
3.76945
4.40691
5.02643
5.61505
6.16115
6.64986
7.05734
7.34763
7.47764
7.4107
7.13138
6.65222
6.00995
5.26464
4.52311
3.85229
3.25991
2.74498
2.29301
1.90491
1.57229
1.30638
1.10558
0.94586
0.812988
0.698829
0.59897
0.511628
0.43833
0.38919
0.390757
0.486091
0.845008
2.04569
0.616416
0.774554
1.11624
1.64714
2.32944
3.12509
3.86769
0.529097
0.469473
0.428212
0.39966
0.379895
0.366357
0.357261
0.351307
0.347553
0.345366
0.344356
0.344011
0.344068
0.34476
0.345641
0.3468
0.348047
0.349407
0.350887
0.352506
0.354241
0.356108
0.358067
0.360144
0.362387
0.364814
0.36744
0.370287
0.373374
4.5381
5.18271
5.79888
6.3787
6.91322
7.387
7.7713
8.02339
8.09628
7.95575
7.59416
7.03272
6.31422
5.50219
4.70636
3.99338
3.36843
2.81733
2.34283
1.94852
1.60926
1.33703
1.13109
0.967221
0.831023
0.714136
0.611899
0.522374
0.446802
0.394723
0.393368
0.486731
0.851437
2.07921
0.595023
0.736987
1.05112
1.55893
2.22388
3.00666
3.872
4.64472
0.514668
0.459374
0.421206
0.394811
0.376604
0.364218
0.355929
0.350505
0.347095
0.345145
0.344267
0.343984
0.344125
0.344837
0.345741
0.34685
0.348044
0.349407
0.350887
0.352506
0.354241
0.356067
0.357993
0.360076
0.362328
0.364765
0.367402
0.370263
0.373365
5.32096
5.95802
6.56148
7.12767
7.64935
8.10783
8.46693
8.67649
8.68728
8.47031
8.02711
7.38683
6.5968
5.72279
4.8766
4.12447
3.456
2.87809
2.39689
1.996
1.64969
1.37073
1.15926
0.990912
0.851086
0.731206
0.626358
0.534438
0.456383
0.401088
0.396494
0.487638
0.858767
2.12202
0.574669
0.701816
0.987496
1.47027
2.11725
2.88649
3.74074
4.64882
5.43007
0.500732
0.449654
0.414483
0.390208
0.373574
0.36229
0.35473
0.349785
0.346686
0.344956
0.344194
0.343962
0.34419
0.34492
0.345789
0.346845
0.348044
0.349407
0.350888
0.352506
0.354197
0.355984
0.357916
0.360007
0.362267
0.364714
0.367364
0.370238
0.373356
6.09582
6.71467
7.29973
7.85149
8.36193
8.80578
9.13764
9.30012
9.24461
8.95024
8.4281
7.71389
6.85787
5.92688
5.03429
4.23
3.52944
2.94388
2.45554
2.04766
1.69391
1.40779
1.1904
1.01721
0.873433
0.750276
0.642568
0.548019
0.467245
0.408503
0.400068
0.48912
0.868971
2.17307
0.555288
0.669102
0.925823
1.38112
2.00895
2.76462
3.60808
4.50516
5.43022
6.20091
0.487318
0.440345
0.408107
0.385972
0.370841
0.360553
0.353652
0.34914
0.346326
0.344794
0.344133
0.343951
0.344267
0.344954
0.345784
0.346844
0.348044
0.349407
0.350889
0.352458
0.354107
0.355899
0.357838
0.359936
0.362205
0.364663
0.367324
0.370213
0.373347
6.84295
7.43653
8.00218
8.5426
9.04489
9.47519
9.77717
9.88772
9.76307
9.39246
8.79601
8.01402
7.09801
6.11513
5.16085
4.31834
3.60879
3.01506
2.51911
2.10383
1.74222
1.44852
1.22482
1.04641
0.898349
0.771614
0.660779
0.563357
0.479622
0.417095
0.404418
0.491397
0.882328
2.22476
0.536831
0.63885
0.866703
1.29176
1.89862
2.64034
3.4737
4.36132
5.27328
6.19253
6.93595
0.474465
0.431537
0.402244
0.382153
0.368377
0.358987
0.352682
0.348564
0.34601
0.344655
0.344086
0.343966
0.344303
0.344939
0.345785
0.346845
0.348044
0.349408
0.35084
0.352361
0.354015
0.355812
0.357757
0.359863
0.362141
0.36461
0.367283
0.370187
0.373338
7.54452
8.11102
8.66128
9.19512
9.69351
10.1114
10.3789
10.4333
10.2384
9.79511
9.13075
8.28789
7.31806
6.26551
5.26655
4.4136
3.69447
3.092
2.58795
2.16485
1.79495
1.49325
1.26283
1.07884
0.926148
0.79552
0.681287
0.580726
0.493759
0.427191
0.410477
0.495298
0.897747
2.27654
0.519266
0.610977
0.810821
1.20271
1.78616
2.51301
3.33693
4.21656
5.11857
6.0196
6.91306
7.61605
0.462303
0.42346
0.396962
0.378711
0.366155
0.357577
0.351811
0.348051
0.345731
0.344536
0.344069
0.34396
0.344293
0.344938
0.345785
0.346845
0.348047
0.349357
0.350738
0.352262
0.35392
0.355722
0.357674
0.359788
0.362076
0.364556
0.367242
0.37016
0.373328
8.18668
8.73062
9.26631
9.79609
10.2947
10.7053
10.9375
10.9311
10.6676
10.1577
9.43304
8.53658
7.4926
6.39064
5.38021
4.51621
3.78686
3.17508
2.66242
2.23105
1.85243
1.5423
1.30479
1.11484
0.957167
0.82233
0.704412
0.600463
0.51001
0.441184
0.419117
0.500282
0.914849
2.32819
0.502693
0.585329
0.758851
1.11471
1.67172
2.38212
3.1968
4.07029
4.9647
5.85292
6.7203
7.57106
8.2267
0.45116
0.416205
0.392207
0.37561
0.364153
0.356308
0.35103
0.347592
0.345489
0.344465
0.344046
0.343932
0.344297
0.344938
0.345784
0.34685
0.347996
0.34925
0.350635
0.35216
0.353824
0.35563
0.357589
0.359712
0.362009
0.3645
0.367199
0.370133
0.373319
8.75934
9.28333
9.81682
10.352
10.8487
11.2475
11.4445
11.3768
11.0494
10.4808
9.70423
8.73188
7.63705
6.52461
5.50222
4.62655
3.88635
3.26465
2.74285
2.30274
1.91496
1.596
1.35102
1.15476
0.991763
0.852398
0.730546
0.622936
0.532166
0.460251
0.429461
0.506841
0.934672
2.37909
0.487501
0.561841
0.711358
1.02875
1.55557
2.24738
3.05244
3.92131
4.81124
5.6901
6.53932
7.35416
8.14668
8.76025
0.441176
0.409689
0.387926
0.372816
0.36235
0.355166
0.350327
0.347187
0.345319
0.344409
0.344012
0.343933
0.344298
0.34494
0.345789
0.3468
0.347889
0.349142
0.350529
0.352056
0.353724
0.355537
0.357502
0.359633
0.36194
0.364443
0.367156
0.370106
0.373309
9.2593
9.77085
10.3126
10.8646
11.3599
11.7359
11.8943
11.7678
11.3841
10.7661
9.91431
8.89229
7.79069
6.66768
5.63289
4.74498
3.99328
3.36105
2.82954
2.38021
1.98285
1.65464
1.40183
1.19893
1.03029
0.886124
0.76005
0.653324
0.561493
0.482302
0.442107
0.51502
0.95658
2.42896
0.473859
0.540778
0.668948
0.94604
1.43827
2.10864
2.90305
3.76836
4.65679
5.5308
6.36657
7.1556
7.90247
8.62288
9.19944
0.432242
0.403836
0.384075
0.370301
0.360726
0.354137
0.349702
0.346882
0.345204
0.344363
0.344015
0.343933
0.344294
0.344955
0.345741
0.346695
0.347782
0.349032
0.350422
0.35195
0.353623
0.35544
0.357413
0.359553
0.361869
0.364385
0.367112
0.37008
0.373301
9.6738
10.1862
10.7498
11.3278
11.8246
12.1661
12.2827
12.1039
11.6735
10.983
10.0851
9.06135
7.9535
6.81997
5.77248
4.87178
4.10797
3.46457
2.92277
2.46372
2.05633
1.7185
1.45753
1.24767
1.07311
0.923833
0.799584
0.692807
0.594422
0.507835
0.457455
0.525352
0.982027
2.47707
0.461633
0.522075
0.632488
0.868646
1.3207
1.96598
2.74793
3.61019
4.49979
5.3734
6.20173
6.971
7.68291
8.34942
8.9943
9.53631
0.424253
0.398579
0.380612
0.368037
0.35926
0.353216
0.349215
0.346692
0.345137
0.344368
0.344015
0.343933
0.344304
0.344921
0.345641
0.346589
0.347675
0.34892
0.350312
0.351841
0.353518
0.355342
0.357322
0.359471
0.361797
0.364328
0.36707
0.370055
0.373292
9.99906
10.5278
11.1286
11.7383
12.2339
12.5314
12.606
12.387
11.8877
11.1567
10.2627
9.23854
8.12521
6.98146
5.92109
5.00716
4.23063
3.57544
3.02276
2.55347
2.1356
1.78776
1.51832
1.30125
1.12046
0.9738
0.849972
0.736119
0.631211
0.537215
0.476224
0.538157
1.01016
2.52316
0.4507
0.505333
0.601849
0.799844
1.20498
1.8197
2.58651
3.44547
4.33856
5.21612
6.04286
6.79995
7.48404
8.10586
8.68433
9.25207
9.76584
0.41711
0.39386
0.377498
0.365994
0.357947
0.352485
0.348922
0.346604
0.345145
0.344369
0.344013
0.343961
0.344268
0.344837
0.345545
0.346482
0.347565
0.348805
0.350199
0.35173
0.353412
0.355242
0.357228
0.359387
0.361726
0.364272
0.36703
0.37003
0.373283
10.2307
10.7955
11.4493
12.093
12.5777
12.8268
12.8624
12.5886
12.0557
11.3342
10.4461
9.42299
8.30531
7.15191
6.0787
5.15119
4.3614
3.69379
3.12964
2.64957
2.22076
1.86255
1.58436
1.35978
1.18241
1.0362
0.903977
0.783137
0.671891
0.570792
0.499012
0.554064
1.04289
2.56646
0.440947
0.490284
0.575879
0.741076
1.09583
1.67149
2.41837
3.2729
4.17121
5.05692
5.88798
6.64004
7.30546
7.89041
8.4129
8.89922
9.38551
9.87882
0.410723
0.389623
0.374692
0.364162
0.356889
0.352054
0.348806
0.346616
0.345145
0.344364
0.344048
0.343968
0.34419
0.34476
0.34545
0.346373
0.347455
0.348689
0.350084
0.351617
0.353302
0.355139
0.357132
0.359304
0.361657
0.364218
0.36699
0.370006
0.373275
10.3648
10.9909
11.713
12.3794
12.8494
13.0501
13.0282
12.7409
12.2227
11.5134
10.6335
9.61345
8.49294
7.33084
6.24505
5.30377
4.50026
3.81967
3.24343
2.75204
2.31182
1.94288
1.65564
1.43532
1.25819
1.10157
0.961071
0.833489
0.716324
0.608651
0.526464
0.573736
1.07924
2.60681
0.432265
0.476749
0.55356
0.691813
0.996656
1.52643
2.2446
3.0912
3.99569
4.89348
5.73482
6.48908
7.14412
7.70273
8.1788
8.59567
8.98693
9.3823
9.86338
0.405008
0.385812
0.372177
0.362671
0.356274
0.351902
0.348824
0.346616
0.345138
0.344411
0.344072
0.343954
0.344125
0.344682
0.345358
0.346262
0.347343
0.34857
0.349966
0.351502
0.35319
0.355035
0.357038
0.359224
0.361589
0.364165
0.366952
0.369983
0.373267
10.3998
11.1198
11.9003
12.5974
13.0382
13.1825
13.142
12.8848
12.3855
11.6915
10.8226
9.80816
8.68686
7.51741
6.41965