/*--------------------------------*- C++ -*----------------------------------*\
  =========                 |
  \\      /  F ield         | OpenFOAM: The Open Source CFD Toolbox
   \\    /   O peration     | Website:  https://openfoam.org
    \\  /    A nd           | Version:  8
     \\/     M anipulation  |
\*---------------------------------------------------------------------------*/
FoamFile
{
    version     2.0;
    format      ascii;
    class       volScalarField;
    location    "0.12";
    object      k;
}
// * * * * * * * * * * * * * * * * * * * * * * * * * * * * * * * * * * * * * //

dimensions      [0 2 -2 0 0 0 0];

internalField   nonuniform List<scalar> 
15677
(
0.334161
0.365034
0.294765
0.368733
0.357704
0.281044
0.370694
0.360086
0.366147
0.282768
0.371885
0.361638
0.361486
0.383352
0.288891
0.372611
0.363747
0.357749
0.368359
0.401713
0.300301
0.373038
0.365665
0.357857
0.358176
0.380148
0.419397
0.311813
0.373262
0.367182
0.359469
0.354609
0.361067
0.393328
0.434797
0.322611
0.373347
0.368307
0.361363
0.354791
0.353085
0.366928
0.406204
0.447901
0.332104
0.373348
0.369084
0.363069
0.356355
0.351142
0.353523
0.373589
0.418299
0.45875
0.34048
0.373313
0.369569
0.364444
0.358231
0.351947
0.34881
0.354808
0.380717
0.429119
0.467884
0.347557
0.373274
0.369826
0.365464
0.359969
0.353729
0.348403
0.347168
0.357135
0.387675
0.438825
0.475391
0.353772
0.373249
0.369927
0.366149
0.361402
0.355672
0.349781
0.345372
0.346342
0.359722
0.394445
0.44723
0.481801
0.358947
0.373239
0.369941
0.366548
0.362481
0.35743
0.351735
0.34622
0.342944
0.3459
0.362612
0.400678
0.454676
0.487094
0.363611
0.373239
0.369924
0.366737
0.363212
0.358861
0.353692
0.348082
0.343109
0.340872
0.345909
0.365468
0.406519
0.461001
0.491644
0.367666
0.37324
0.369908
0.366795
0.363637
0.359917
0.355398
0.350164
0.344765
0.3403
0.339202
0.346037
0.368357
0.41168
0.466582
0.495419
0.371264
0.37324
0.3699
0.366795
0.363835
0.360608
0.356744
0.352093
0.346893
0.341706
0.33783
0.337744
0.346359
0.37102
0.41643
0.471213
0.49876
0.374547
0.37324
0.369897
0.366786
0.363893
0.360989
0.357696
0.353692
0.348989
0.34384
0.338936
0.335584
0.336528
0.346743
0.373621
0.420455
0.475284
0.501633
0.377355
0.37324
0.369894
0.366777
0.3639
0.361138
0.358282
0.35489
0.350807
0.346068
0.341031
0.336381
0.333597
0.335446
0.347248
0.375869
0.424075
0.478624
0.504174
0.380188
0.37324
0.369893
0.366771
0.363894
0.361182
0.358551
0.355682
0.352232
0.348077
0.343358
0.338425
0.334079
0.331777
0.334571
0.347669
0.377972
0.427017
0.481546
0.506519
0.382406
0.37324
0.369892
0.366767
0.363887
0.361187
0.358655
0.356081
0.353229
0.349708
0.345532
0.340838
0.336058
0.331958
0.330199
0.333763
0.348136
0.379677
0.429627
0.483929
0.508535
0.385044
0.37324
0.36989
0.366765
0.36388
0.36118
0.358686
0.356254
0.353773
0.350895
0.347353
0.343165
0.338538
0.333883
0.330091
0.328765
0.333122
0.348477
0.38122
0.431623
0.486009
0.510645
0.386811
0.37324
0.36989
0.366763
0.363875
0.361173
0.358688
0.356319
0.354035
0.351576
0.348731
0.345164
0.341001
0.336442
0.331968
0.32841
0.327565
0.332524
0.348823
0.38237
0.433413
0.487713
0.512322
0.389429
0.37324
0.369889
0.366762
0.363871
0.361166
0.35868
0.356334
0.354147
0.351922
0.349564
0.346713
0.343168
0.339053
0.334606
0.330265
0.327004
0.326513
0.332086
0.349061
0.383409
0.434641
0.489234
0.514454
0.39088
0.37324
0.369888
0.366761
0.363868
0.361161
0.358671
0.356331
0.354185
0.352083
0.350012
0.347674
0.344898
0.341397
0.337352
0.333
0.328872
0.325828
0.325741
0.331716
0.349288
0.384081
0.43584
0.490458
0.515873
0.393499
0.37324
0.369888
0.36676
0.363865
0.361156
0.358662
0.356322
0.354188
0.352146
0.350237
0.348206
0.346019
0.343293
0.339853
0.335924
0.331757
0.327765
0.324974
0.325114
0.331498
0.349479
0.384747
0.436503
0.491757
0.518408
0.394899
0.37324
0.369888
0.36676
0.363863
0.361153
0.358654
0.356312
0.354178
0.352161
0.350332
0.348485
0.34667
0.344526
0.341933
0.338657
0.334865
0.330777
0.326985
0.324384
0.324899
0.331528
0.349732
0.385121
0.437351
0.492591
0.520063
0.505244
0.373241
0.369888
0.366759
0.363862
0.361151
0.358648
0.356304
0.354164
0.352156
0.35036
0.348615
0.347026
0.345249
0.343362
0.340936
0.337729
0.334082
0.330315
0.326764
0.324396
0.324997
0.33168
0.349979
0.385559
0.43773
0.494467
0.528769
0.713817
0.373241
0.369887
0.366759
0.36386
0.361149
0.358643
0.356296
0.35415
0.352143
0.350355
0.348663
0.347194
0.345658
0.344242
0.342449
0.340193
0.337375
0.334081
0.330424
0.326958
0.324645
0.325334
0.332033
0.350353
0.385881
0.438542
0.495013
0.545624
0.892687
0.373241
0.369887
0.366758
0.363859
0.361147
0.35864
0.35629
0.354139
0.352129
0.350336
0.348669
0.347255
0.345872
0.344752
0.343369
0.342014
0.340224
0.337568
0.3344
0.330899
0.327544
0.325284
0.326036
0.332719
0.350874
0.386284
0.439127
0.494737
0.558684
1.03827
0.373241
0.369887
0.366758
0.363859
0.361146
0.358637
0.356285
0.354129
0.352116
0.350315
0.348656
0.347261
0.345968
0.345004
0.343921
0.343189
0.342176
0.340601
0.338202
0.335249
0.331947
0.328743
0.326526
0.327246
0.33375
0.35159
0.386903
0.438876
0.493273
0.568538
1.16551
0.373241
0.369887
0.366758
0.363858
0.361145
0.358634
0.356281
0.354122
0.352104
0.350296
0.348635
0.34724
0.345994
0.345106
0.344255
0.343915
0.343438
0.342763
0.341544
0.339529
0.336914
0.333842
0.330681
0.328406
0.328921
0.335176
0.352606
0.387426
0.437994
0.490189
0.575364
1.26987
0.373241
0.369887
0.366758
0.363857
0.361144
0.358632
0.356278
0.354115
0.352094
0.350279
0.348613
0.347211
0.345984
0.345129
0.344422
0.3443
0.34423
0.344179
0.344014
0.34338
0.341807
0.339493
0.336549
0.333382
0.330919
0.331145
0.337027
0.353876
0.387883
0.436171
0.484869
0.579929
1.34779
0.373241
0.369887
0.366758
0.363857
0.361143
0.35863
0.356275
0.35411
0.352086
0.350265
0.348594
0.347182
0.345957
0.345111
0.344483
0.344492
0.344686
0.345088
0.345685
0.346265
0.34622
0.345079
0.34303
0.340179
0.336887
0.334159
0.333922
0.339344
0.355401
0.388025
0.433081
0.478224
0.582859
1.40792
0.373241
0.369887
0.366758
0.363856
0.361142
0.358629
0.356272
0.354105
0.352079
0.350254
0.348576
0.347156
0.345926
0.345075
0.344486
0.344569
0.344927
0.345643
0.346797
0.348236
0.349571
0.350176
0.349466
0.347659
0.344793
0.341302
0.338135
0.337321
0.342114
0.357121
0.38793
0.428996
0.471583
0.585363
1.4563
0.369887
0.373245
0.366758
0.363856
0.361142
0.358627
0.35627
0.354102
0.352072
0.350244
0.348561
0.347133
0.345896
0.345037
0.344459
0.344583
0.345036
0.345956
0.347513
0.349585
0.351917
0.35411
0.355403
0.355118
0.353461
0.350513
0.346646
0.342931
0.34131
0.345336
0.359317
0.387638
0.424811
0.465359
0.587773
1.49685
0.366758
0.369897
0.373252
0.363856
0.361141
0.358626
0.356268
0.354098
0.352067
0.350235
0.348548
0.347113
0.34587
0.345001
0.344422
0.344562
0.345071
0.34612
0.347951
0.35049
0.353576
0.356932
0.360063
0.362074
0.362148
0.360578
0.357369
0.353019
0.348514
0.345922
0.349319
0.36202
0.387283
0.420758
0.459762
0.590609
1.53217
0.363856
0.366774
0.369918
0.37326
0.361141
0.358625
0.356267
0.354095
0.352062
0.350228
0.348537
0.347097
0.345847
0.344969
0.344385
0.344529
0.345067
0.346196
0.34821
0.351084
0.354738
0.358993
0.363488
0.36763
0.370335
0.370713
0.369057
0.36548
0.360385
0.354924
0.351738
0.35427
0.365096
0.386957
0.416979
0.454863
0.593647
1.56379
0.36114
0.363877
0.366808
0.369939
0.373267
0.358624
0.356265
0.354093
0.352058
0.350222
0.348527
0.347083
0.345826
0.344941
0.344352
0.344495
0.345046
0.346225
0.348363
0.351478
0.355556
0.360503
0.366071
0.371812
0.376988
0.380367
0.380888
0.379038
0.374811
0.368804
0.362935
0.359078
0.359747
0.36838
0.387011
0.41363
0.450676
0.597206
1.5928
0.358624
0.361167
0.363922
0.366843
0.369961
0.373275
0.356264
0.354091
0.352055
0.350217
0.348519
0.34707
0.345809
0.344917
0.344322
0.344463
0.345022
0.346231
0.348455
0.351752
0.356151
0.361633
0.368047
0.375068
0.382114
0.388349
0.392273
0.392833
0.390489
0.385449
0.379286
0.372982
0.367237
0.365714
0.372109
0.387299
0.410647
0.447111
0.60087
1.61968
0.356263
0.358655
0.361223
0.363968
0.366878
0.369984
0.373284
0.354089
0.352052
0.350212
0.348511
0.34706
0.345793
0.344896
0.344296
0.344435
0.344999
0.34623
0.348514
0.35195
0.356612
0.362521
0.369614
0.377666
0.38623
0.394641
0.401848
0.406238
0.406526
0.40353
0.398664
0.39239
0.384119
0.376146
0.372086
0.375954
0.387916
0.4082
0.444035
0.604929
1.64499
0.354087
0.356298
0.358719
0.36128
0.364015
0.366915
0.370007
0.373292
0.352049
0.350208
0.348505
0.347051
0.345779
0.344878
0.344273
0.344411
0.344978
0.346227
0.348558
0.352103
0.356985
0.363266
0.370923
0.379831
0.389652
0.399856
0.40957
0.417708
0.422261
0.422115
0.419717
0.415168
0.406882
0.396245
0.385702
0.37891
0.379939
0.388952
0.406213
0.441489
0.608942
1.66874
0.352047
0.354125
0.356371
0.358785
0.361338
0.364064
0.366952
0.370031
0.373301
0.350204
0.348499
0.347043
0.345767
0.344862
0.344254
0.34439
0.34496
0.346224
0.348595
0.352232
0.357296
0.363908
0.372088
0.381736
0.392629
0.404353
0.416173
0.42719
0.435964
0.440534
0.441466
0.439922
0.433395
0.42263
0.409235
0.395822
0.386101
0.384097
0.390268
0.404663
0.439324
0.613216
1.69133
0.350201
0.352088
0.354205
0.356446
0.358853
0.361398
0.364114
0.36699
0.370056
0.37331
0.348494
0.347037
0.345756
0.344849
0.344237
0.344372
0.344945
0.346222
0.348629
0.352346
0.357569
0.364468
0.373141
0.383509
0.395361
0.40842
0.422058
0.435533
0.447573
0.456891
0.463277
0.465661
0.46223
0.453173
0.439467
0.422958
0.406413
0.393583
0.388418
0.391851
0.403544
0.437599
0.617327
1.71258
0.34849
0.350243
0.352173
0.354286
0.356523
0.358923
0.36146
0.364165
0.36703
0.370081
0.373319
0.347031
0.345747
0.344839
0.344222
0.344356
0.344932
0.346222
0.34866
0.35245
0.357815
0.364971
0.374087
0.385166
0.397996
0.412291
0.427568
0.443205
0.458061
0.471079
0.48308
0.491867
0.492439
0.486449
0.474293
0.457218
0.437278
0.417375
0.401288
0.392874
0.393531
0.402807
0.436158
0.6216
1.73286
0.347026
0.348532
0.350331
0.352261
0.35437
0.356602
0.358995
0.361523
0.364218
0.36707
0.370107
0.373328
0.345738
0.344829
0.344208
0.344342
0.344921
0.346223
0.34869
0.352546
0.35804
0.36543
0.374951
0.386687
0.400529
0.416139
0.432977
0.450616
0.467994
0.484239
0.500666
0.516241
0.523735
0.521636
0.512343
0.496544
0.475701
0.452053
0.428607
0.409145
0.397481
0.395311
0.402355
0.435058
0.625631
1.75186
0.345731
0.347065
0.348621
0.350422
0.352352
0.354457
0.356684
0.359068
0.361589
0.364272
0.367112
0.370133
0.373338
0.344822
0.344196
0.34433
0.344912
0.346224
0.348718
0.352634
0.358245
0.365852
0.375747
0.388095
0.4029
0.419927
0.438491
0.4581
0.477867
0.497062
0.517436
0.538466
0.553485
0.5587
0.553021
0.53969
0.519711
0.494736
0.467144
0.440007
0.417095
0.402186
0.397186
0.402168
0.434155
0.629761
1.77003
0.344816
0.345764
0.347152
0.348714
0.350517
0.352445
0.354546
0.356768
0.359144
0.361656
0.364327
0.367155
0.37016
0.373347
0.344184
0.344319
0.344905
0.346226
0.348744
0.352715
0.358434
0.366239
0.376482
0.389403
0.405124
0.423528
0.444027
0.46592
0.488096
0.510161
0.534253
0.560324
0.581358
0.59472
0.596529
0.586336
0.568262
0.543583
0.514146
0.482414
0.451483
0.425078
0.406946
0.399135
0.402212
0.433515
0.633599
1.78696
0.344173
0.344843
0.34584
0.347241
0.348809
0.350614
0.352542
0.354637
0.356854
0.359222
0.361724
0.364384
0.367199
0.370187
0.373356
0.344309
0.344898
0.346229
0.348768
0.35279
0.358607
0.366596
0.37716
0.39062
0.40721
0.42694
0.449374
0.473942
0.499014
0.524066
0.551919
0.582963
0.609622
0.629411
0.639807
0.636988
0.621308
0.59781
0.567951
0.533764
0.49774
0.462947
0.433041
0.411721
0.401149
0.402346
0.433018
0.637502
1.80317
0.344303
0.344175
0.344906
0.345917
0.347333
0.348909
0.350714
0.352641
0.354732
0.356943
0.359302
0.361795
0.364442
0.367242
0.370213
0.373365
0.344891
0.346231
0.348791
0.352858
0.358765
0.366922
0.377784
0.391749
0.409162
0.430167
0.454509
0.481818
0.510395
0.539243
0.571185
0.607524
0.639865
0.665724
0.682721
0.688653
0.679857
0.657674
0.628092
0.592633
0.553443
0.51301
0.474324
0.440933
0.416479
0.403203
0.402602
0.432744
0.641084
1.81818
0.344888
0.344287
0.344185
0.344969
0.346
0.347429
0.349013
0.350817
0.352744
0.354829
0.357035
0.359384
0.361867
0.3645
0.367284
0.370239
0.373374
0.346233
0.34881
0.35292
0.35891
0.367221
0.378357
0.392793
0.410982
0.433211
0.459425
0.489464
0.521711
0.555446
0.592773
0.635143
0.673805
0.706031
0.729306
0.741598
0.741261
0.72495
0.69519
0.658877
0.617449
0.57305
0.528129
0.485545
0.44871
0.421189
0.405298
0.402943
0.432546
0.644717
1.83257
0.346239
0.344842
0.344257
0.344196
0.345036
0.346089
0.347529
0.349121
0.350923
0.35285
0.354928
0.357129
0.359468
0.361939
0.364556
0.367325
0.370263
0.373382
0.348827
0.352976
0.359041
0.367495
0.378883
0.393755
0.412673
0.436068
0.464103
0.49684
0.532849
0.571971
0.616356
0.666994
0.713433
0.753319
0.783461
0.801632
0.806619
0.797739
0.772127
0.733647
0.689962
0.642241
0.592469
0.543012
0.496553
0.456334
0.425826
0.407411
0.403347
0.432514
0.648009
1.84581
0.348848
0.346147
0.34474
0.344221
0.344223
0.345106
0.346184
0.347632
0.349232
0.351033
0.352959
0.355031
0.357225
0.359552
0.362009
0.364611
0.367364
0.370287
0.37339
0.353025
0.359159
0.367743
0.379364
0.394641
0.414239
0.43874
0.468529
0.503913
0.543775
0.588609
0.640731
0.702894
0.761438
0.811777
0.85073
0.875262
0.884386
0.878478
0.858223
0.821272
0.77286
0.721174
0.666867
0.611602
0.55759
0.5073
0.463774
0.430369
0.409523
0.403801
0.432545
0.651356
1.85854
0.35308
0.34868
0.345932
0.344629
0.344184
0.344269
0.345178
0.346285
0.347738
0.349348
0.351146
0.353072
0.355136
0.35732
0.359633
0.362076
0.364664
0.367403
0.370311
0.373398
0.359265
0.367968
0.379802
0.395454
0.415685
0.441228
0.472696
0.510663
0.554436
0.605171
0.665479
0.741734
0.819391
0.887545
0.939011
0.971707
0.984527
0.97898
0.957654
0.922745
0.872239
0.81265
0.752357
0.691207
0.630369
0.571808
0.517747
0.471004
0.434801
0.411618
0.404297
0.432624
0.654353
1.86875
0.359376
0.352821
0.348275
0.345705
0.344529
0.344144
0.344328
0.345251
0.346393
0.347848
0.349468
0.351262
0.353187
0.35524
0.357413
0.359712
0.362142
0.364715
0.36744
0.370333
0.373406
0.368171
0.3802
0.396197
0.417018
0.443539
0.476604
0.517077
0.564761
0.621467
0.690552
0.783908
0.886847
0.984301
1.05804
1.10234
1.11972
1.11262
1.08576
1.04408
0.9911
0.924812
0.852834
0.783367
0.715155
0.648699
0.585619
0.527865
0.478003
0.439105
0.413683
0.404819
0.432775
0.65699
1.87735
0.368373
0.358997
0.352162
0.347851
0.345497
0.344439
0.344109
0.344399
0.345329
0.346506
0.347962
0.349592
0.351382
0.353301
0.355342
0.357503
0.359789
0.362206
0.364766
0.367477
0.370355
0.373414
0.380563
0.396875
0.418241
0.445679
0.480257
0.523144
0.574686
0.637377
0.716104
0.829902
0.963576
1.09848
1.20978
1.27761
1.30253
1.29391
1.25831
1.20366
1.13697
1.06278
0.978676
0.893211
0.814074
0.73862
0.666536
0.59899
0.537631
0.484755
0.443271
0.415708
0.405364
0.432934
0.659129
1.88663
0.380913
0.367841
0.357977
0.351477
0.347455
0.345307
0.344358
0.344082
0.344478
0.345411
0.346624
0.348081
0.349719
0.351501
0.353412
0.355441
0.35759
0.359864
0.362268
0.364814
0.367512
0.370377
0.373421
0.397498
0.419362
0.447656
0.483662
0.528858
0.584167
0.652864
0.742301
0.879504
1.04779
1.22508
1.38252
1.49346
1.54102
1.53409
1.48967
1.41821
1.33044
1.23499
1.13701
1.03343
0.933561
0.84435
0.761527
0.683833
0.611894
0.547027
0.491249
0.44729
0.417681
0.405844
0.433096
0.661518
1.89678
0.398083
0.380186
0.366314
0.356921
0.350829
0.347086
0.345131
0.344285
0.344064
0.344563
0.345501
0.346746
0.348205
0.349845
0.351618
0.35352
0.355538
0.357675
0.359937
0.362328
0.364862
0.367546
0.370398
0.373424
0.420399
0.449479
0.486827
0.534219
0.593188
0.667942
0.769156
0.931799
1.13651
1.35824
1.56572
1.72922
1.82422
1.83815
1.78878
1.70072
1.58791
1.46323
1.3364
1.21286
1.08859
0.973649
0.874074
0.783812
0.700554
0.624309
0.556043
0.497478
0.451154
0.419345
0.406275
0.433293
0.66406
1.9078
0.421351
0.397119
0.377954
0.364745
0.355919
0.350216
0.346738
0.344966
0.344222
0.344057
0.344652
0.345598
0.346871
0.34833
0.349968
0.351733
0.353625
0.355632
0.357758
0.360007
0.362387
0.364908
0.36758
0.370408
0.373424
0.451175
0.489765
0.539234
0.601747
0.682625
0.796502
0.98553
1.2267
1.49265
1.75108
1.97099
2.12448
2.18962
2.15857
2.0583
1.92084
1.76299
1.5991
1.43943
1.28931
1.14367
1.01324
0.903133
0.805419
0.716668
0.636224
0.564674
0.503437
0.454371
0.420781
0.406764
0.433553
0.666939
1.9199
0.452703
0.420101
0.39391
0.375676
0.363251
0.354964
0.349631
0.346411
0.344815
0.344171
0.344063
0.344745
0.345704
0.346996
0.348453
0.350087
0.351844
0.353727
0.355724
0.357838
0.360076
0.362444
0.364953
0.367596
0.370408
0.373424
0.49251
0.54392
0.609862
0.696915
0.824048
1.03946
1.31592
1.62442
1.93264
2.20965
2.42608
2.55557
2.57883
2.49329
2.33551
2.14461
1.93955
1.73542
1.54241
1.36542
1.19818
1.05211
0.931425
0.826299
0.732158
0.647631
0.572915
0.508375
0.457127
0.422382
0.407336
0.433867
0.669993
1.93306
0.494945
0.451095
0.41554
0.390663
0.373507
0.361822
0.354047
0.34907
0.346104
0.344676
0.344131
0.344085
0.344838
0.345815
0.347117
0.348575
0.350204
0.351954
0.353826
0.355813
0.357917
0.360143
0.362499
0.364975
0.367596
0.370408
0.373424
0.548322
0.617566
0.710808
0.851467
1.09254
1.40246
1.75111
2.1067
2.43919
2.71939
2.9187
3.01193
2.98285
2.83492
2.61463
2.36769
2.11446
1.87002
1.64393
1.44033
1.25168
1.09005
0.958853
0.846418
0.74701
0.658528
0.579734
0.512591
0.460174
0.424172
0.407992
0.43427
0.673466
1.94754
0.552186
0.492899
0.444665
0.410969
0.387571
0.371426
0.360444
0.353163
0.348533
0.345821
0.34455
0.3441
0.344131
0.344928
0.345929
0.347235
0.348695
0.350317
0.35206
0.353923
0.3559
0.357993
0.360208
0.362526
0.364975
0.367596
0.370408
0.373424
0.624909
0.7243
0.878471
1.14401
1.48522
1.87129
2.27116
2.6561
2.99808
3.2684
3.43856
3.4846
3.39414
3.17746
2.89111
2.58676
2.28534
2.00122
1.74286
1.51335
1.30379
1.12687
0.985343
0.865746
0.761215
0.667549
0.58555
0.517238
0.463548
0.426176
0.408764
0.434745
0.677148
1.96326
0.63137
0.549569
0.483849
0.438285
0.406616
0.384597
0.369412
0.359111
0.352312
0.348017
0.345559
0.344435
0.344063
0.344199
0.345016
0.346044
0.34735
0.348812
0.350427
0.352164
0.354017
0.355984
0.358066
0.360241
0.362526
0.364975
0.367596
0.370408
0.373424
0.737383
0.904824
1.19333
1.56356
1.98424
2.42505
2.85856
3.25847
3.59747
3.84643
3.97659
3.96573
3.80625
3.51598
3.16143
2.79935
2.45043
2.12779
1.83835
1.58393
1.3542
1.16243
1.01083
0.884263
0.772985
0.675245
0.591955
0.522368
0.467294
0.42843
0.409652
0.435347
0.681375
1.9806
0.748954
0.628056
0.536699
0.474979
0.432211
0.402424
0.381714
0.36746
0.357823
0.351494
0.347527
0.345316
0.344333
0.344029
0.344277
0.345103
0.346159
0.347463
0.348927
0.350535
0.352265
0.354108
0.356067
0.358103
0.360241
0.362526
0.364975
0.367596
0.370408
0.373421
0.930312
1.24018
1.63717
2.08967
2.56802
3.04588
3.49874
3.90158
4.2268
4.44412
4.52451
4.44829
4.21367
3.84654
3.42292
3.00368
2.60856
2.24891
1.92983
1.65168
1.40268
1.19662
1.03527
0.899624
0.783033
0.683722
0.599018
0.52804
0.47146
0.430965
0.410705
0.435997
0.685857
1.99937
0.744889
0.952706
0.608955
0.524355
0.466533
0.426354
0.398354
0.378915
0.365571
0.356583
0.350712
0.347066
0.345096
0.344246
0.344005
0.34436
0.34519
0.346273
0.347575
0.34904
0.35064
0.352364
0.354197
0.356107
0.358103
0.360241
0.362526
0.364975
0.367596
0.370398
0.373413
1.2843
1.70594
2.18759
2.70011
3.21804
3.71839
4.17869
4.57426
4.87629
5.05277
5.07468
4.92595
4.6117
4.16601
3.67362
3.19855
2.75897
2.36405
2.0169
1.71632
1.44905
1.22934
1.05555
0.912747
0.794107
0.693074
0.606819
0.534322
0.476102
0.43383
0.411916
0.436771
0.691046
2.02012
0.714856
0.948634
1.32231
0.591202
0.512646
0.458379
0.420664
0.394399
0.376202
0.363747
0.355392
0.349968
0.346641
0.344904
0.344175
0.343994
0.344446
0.345279
0.346384
0.347684
0.34915
0.350742
0.35246
0.354241
0.356107
0.358103
0.360241
0.362526
0.364975
0.36758
0.370377
0.373406
1.76982
2.27817
2.82168
3.37547
3.9178
4.42845
4.88628
5.26609
5.53677
5.66416
5.61996
5.39313
4.99645
4.47198
3.91218
3.38324
2.90122
2.47292
2.09935
1.7777
1.49322
1.25643
1.07288
0.927219
0.806328
0.703405
0.615451
0.541293
0.481288
0.43707
0.413359
0.437623
0.696546
2.04246
0.687278
0.900902
1.31843
1.82426
0.57465
0.501334
0.450454
0.41513
0.390561
0.37358
0.361992
0.354254
0.34927
0.34626
0.344738
0.34412
0.343996
0.344532
0.34537
0.346494
0.347791
0.349257
0.350843
0.352507
0.354241
0.356107
0.358103
0.360241
0.362526
0.364952
0.367546
0.370355
0.373398
2.36157
2.93322
3.51895
4.09789
4.65174
5.1627
5.61028
5.96744
6.19964
6.27053
6.15385
5.84497
5.36479
4.76274
4.13776
3.55735
3.03512
2.57543
2.17713
1.83575
1.52959
1.27953
1.09197
0.943198
0.819837
0.714838
0.625017
0.549043
0.487092
0.440755
0.415024
0.438652
0.702977
2.06721
0.661959
0.855776
1.2493
1.82154
2.43199
0.558828
0.490326
0.442748
0.409759
0.386848
0.371052
0.360309
0.353178
0.348635
0.345925
0.344596
0.344079
0.34401
0.344616
0.345463
0.346601
0.347898
0.349362
0.350892
0.352507
0.354241
0.356107
0.358103
0.360241
0.362499
0.364907
0.367511
0.370333
0.37339
3.03516
3.64941
4.26003
4.85021
5.40503
5.90881
6.34047
6.66945
6.85679
6.86465
6.6705
6.27738
5.71435
5.03714
4.34992
3.72076
3.16072
2.67163
2.25023
1.88324
1.56049
1.30494
1.11304
0.960862
0.834788
0.72751
0.63564
0.557679
0.493609
0.444945
0.417016
0.439807
0.709786
2.09366
0.638256
0.813514
1.1813
1.73352
2.43135
3.1205
0.54353
0.479616
0.435273
0.404561
0.383267
0.368625
0.358714
0.352193
0.348069
0.345633
0.344475
0.344051
0.344038
0.344696
0.345557
0.346706
0.348004
0.349414
0.350891
0.352507
0.354241
0.356107
0.358103
0.360208
0.362443
0.36486
0.367476
0.37031
0.373382
3.76762
4.40578
5.02607
5.61591
6.16402
6.65582
7.06778
7.36397
7.50062
7.43984
7.1648
6.68718
6.04352
5.29457
4.54852
3.87359
3.27817
2.76165
2.30972
1.92341
1.59434
1.33289
1.1363
0.980413
0.851362
0.741582
0.647461
0.567323
0.500941
0.449744
0.419328
0.441224
0.71785
2.12306
0.615828
0.773722
1.11492
1.64518
2.32697
3.12244
3.86539
0.528702
0.469226
0.428044
0.399547
0.379827
0.366321
0.357247
0.351308
0.347563
0.34538
0.344373
0.344029
0.344084
0.344774
0.345654
0.346812
0.348055
0.349413
0.350891
0.352507
0.354241
0.356107
0.358066
0.360142
0.362385
0.364813
0.367439
0.370287
0.373374
4.5364
5.18175
5.79872
6.37986
6.91678
7.39439
7.78426
8.04347
8.124
7.99004
7.63254
7.072
6.3513
5.53479
4.73374
4.01612
3.38773
2.83462
2.35986
1.96721
1.6314
1.36366
1.162
1.00207
0.869761
0.757235
0.660642
0.57812
0.509219
0.455237
0.422111
0.442845
0.726353
2.15409
0.594522
0.736275
1.04996
1.55696
2.22122
3.00372
3.86918
4.64239
0.514344
0.459181
0.421077
0.394729
0.376559
0.364198
0.355926
0.350513
0.347109
0.345163
0.344286
0.344002
0.344141
0.344853
0.345755
0.346862
0.348052
0.349412
0.350891
0.352507
0.354241
0.356066
0.357991
0.360074
0.362326
0.364764
0.367402
0.370263
0.373365
5.3192
5.95704
6.56123
7.12888
7.65351
8.11681
8.48281
8.70088
8.72022
8.51001
8.07048
7.43035
6.63727
5.75798
4.90593
4.14869
3.47627
2.89597
2.41431
2.01493
1.67199
1.39751
1.19041
1.02609
0.890214
0.774678
0.675373
0.59024
0.518589
0.461575
0.425365
0.444862
0.73659
2.19464
0.574251
0.701211
0.986526
1.46846
2.11452
2.88323
3.73748
4.64582
5.42754
0.500475
0.449511
0.414389
0.390154
0.373547
0.362282
0.354735
0.349798
0.346704
0.344975
0.344213
0.343981
0.344207
0.344939
0.345804
0.346856
0.348052
0.349412
0.350891
0.352507
0.354197
0.355983
0.357914
0.360005
0.362266
0.364713
0.367363
0.370238
0.373356
6.09373
6.71328
7.29899
7.85248
8.36664
8.81659
9.15701
9.32946
9.28318
8.99542
8.47634
7.76147
6.90159
5.9646
5.06558
4.25554
3.55056
2.96241
2.47342
2.06689
1.7164
1.43476
1.22181
1.05275
0.912977
0.794149
0.691873
0.603881
0.529238
0.468887
0.429314
0.447198
0.749236
2.24364
0.554951
0.668594
0.925044
1.37956
2.00631
2.76119
3.60435
4.50156
5.42694
6.19786
0.487125
0.440245
0.408043
0.385938
0.370828
0.360554
0.353663
0.349157
0.346346
0.344814
0.344151
0.343973
0.344288
0.344975
0.345798
0.346856
0.348052
0.349413
0.350892
0.352459
0.354107
0.355898
0.357836
0.359934
0.362203
0.364662
0.367324
0.370213
0.373347
6.84009
7.43425
8.00055
8.54313
9.05018
9.48829
9.80082
9.92266
9.80743
9.44302
8.84888
8.0654
7.14477
6.15525
5.19381
4.34502
3.63086
3.03433
2.53753
2.12343
1.76495
1.47572
1.25652
1.08233
0.938336
0.815918
0.710394
0.619281
0.541374
0.477398
0.433971
0.450764
0.766353
2.29303
0.53657
0.638431
0.866099
1.29048
1.8962
2.63692
3.46973
4.35711
5.26922
6.18863
6.93186
0.474329
0.431471
0.402202
0.382134
0.368374
0.358996
0.352698
0.348584
0.346029
0.344673
0.344107
0.343994
0.344327
0.344959
0.345798
0.346856
0.348052
0.349414
0.350842
0.352362
0.354014
0.35581
0.357755
0.359861
0.36214
0.364609
0.367283
0.370187
0.373338
7.54031
8.10736
8.65842
9.19489
9.69966
10.1275
10.4081
10.4741
10.2885
9.85073
9.18786
8.34275
7.36763
6.30762
5.30091
4.44151
3.71756
3.11208
2.60699
2.18488
1.81798
1.52071
1.29486
1.11518
0.966605
0.840286
0.731228
0.636709
0.555265
0.487306
0.440758
0.455332
0.784998
2.34248
0.519074
0.61064
0.81037
1.20172
1.78403
2.50974
3.33287
4.21205
5.11375
6.0148
6.908
7.61026
0.462215
0.423418
0.396937
0.378704
0.36616
0.357591
0.35183
0.348069
0.345749
0.344559
0.3441
0.343993
0.344314
0.344956
0.345798
0.346856
0.348055
0.349362
0.350741
0.352262
0.35392
0.35572
0.357672
0.359786
0.362074
0.364555
0.367241
0.37016
0.373328
8.18057
8.72469
9.26123
9.79465
10.3013
10.7246
10.9722
10.9779
10.7231
10.2178
9.49391
8.59453
7.5444
6.43439
5.41606
4.54543
3.81106
3.19606
2.68213
2.25157
1.8758
1.57007
1.33717
1.15161
0.998119
0.867589
0.754698
0.656501
0.571221
0.501118
0.450114
0.461624
0.806179
2.3913
0.50256
0.585066
0.758522
1.11401
1.66993
2.37909
3.19283
4.06563
4.95955
5.84725
6.71437
7.56419
8.21872
0.451107
0.41618
0.392195
0.375611
0.364164
0.356324
0.351047
0.347607
0.345513
0.3445
0.344083
0.34396
0.344316
0.344956
0.345798
0.346862
0.348003
0.349255
0.350637
0.35216
0.353823
0.355629
0.357587
0.359709
0.362007
0.364499
0.367198
0.370133
0.373319
8.75059
9.27521
9.81027
10.3514
10.8577
11.2713
11.4851
11.4291
11.1096
10.5448
9.76828
8.79218
7.69066
6.57009
5.53965
4.65717
3.91173
3.2866
2.76331
2.32381
1.93874
1.62411
1.38378
1.19199
1.03323
0.898177
0.781188
0.679018
0.593026
0.519787
0.461659
0.468653
0.829307
2.43933
0.487414
0.561641
0.71112
1.02831
1.55416
2.24467
3.04865
3.91667
4.80589
5.68411
6.53248
7.34658
8.13718
8.74903
0.441145
0.409675
0.387924
0.372824
0.362364
0.35518
0.350339
0.347211
0.34536
0.344452
0.344043
0.343958
0.344316
0.344959
0.345804
0.346811
0.347896
0.349147
0.350531
0.352056
0.353723
0.355534
0.3575
0.359631
0.361938
0.364442
0.367155
0.370106
0.373309
9.24706
9.75945
10.304
10.8654
11.3751
11.7659
11.9407
11.8248
11.448
10.8331
9.9806
8.95441
7.84616
6.71495
5.67199
4.77708
4.01994
3.38404
2.85082
2.40189
2.00707
1.68313
1.435
1.23663
1.07229
0.932438
0.811061
0.709455
0.621862
0.541501
0.475319
0.477757
0.855723
2.48587
0.473807
0.540628
0.668771
0.945825
1.43724
2.10633
2.89955
3.76387
4.65142
5.5246
6.3595
7.14719
7.89269
8.61021
9.18394
0.432226
0.403831
0.384079
0.370311
0.360736
0.354143
0.349725
0.346931
0.345256
0.344398
0.344041
0.343957
0.344314
0.344975
0.345755
0.346704
0.347788
0.349036
0.350423
0.35195
0.353621
0.355438
0.35741
0.35955
0.361867
0.364384
0.367111
0.37008
0.3733
9.65712
10.1712
10.7401
11.3312
11.8466
12.2024
12.3332
12.1644
11.7396
11.0517
10.153
9.12528
8.01085
6.8691
5.81331
4.90544
4.13597
3.48868
2.94495
2.48608
2.08105
1.7474
1.49112
1.28586
1.11565
0.970694
0.851035
0.748938
0.654295
0.566433
0.492231
0.488254
0.884553
2.53073
0.461606
0.521968
0.632328
0.868589
1.32005
1.96409
2.7448
3.60596
4.49455
5.36719
6.19448
6.96254
7.6725
8.33692
8.97776
9.51566
0.424245
0.39858
0.380619
0.368042
0.359261
0.353238
0.349272
0.346755
0.345177
0.344396
0.344041
0.34396
0.344327
0.344938
0.345652
0.346598
0.34768
0.348923
0.350313
0.35184
0.353516
0.355339
0.357318
0.359468
0.361795
0.364326
0.367069
0.370055
0.373292
9.97702
10.5094
11.12
11.7473
12.2629
12.5722
12.6573
12.4482
11.9545
11.2264
10.3321
9.30419
8.18446
7.0325
5.96373
5.04246
4.26006
3.60074
3.0459
2.57657
2.16087
1.81711
1.55235
1.33992
1.16356
1.0213
0.901868
0.792204
0.690419
0.595232
0.512236
0.501751
0.91766
2.57312
0.450689
0.505261
0.601696
0.79988
1.20468
1.81826
2.58381
3.44161
4.33357
5.21003
6.03564
6.79142
7.4739
8.09308
8.6687
9.23072
9.73887
0.417106
0.393863
0.377498
0.365987
0.357967
0.352551
0.348998
0.346651
0.345175
0.344396
0.344043
0.343993
0.344288
0.344851
0.345555
0.34649
0.34757
0.348808
0.350199
0.351729
0.353409
0.355238
0.357224
0.359384
0.361723
0.36427
0.367029
0.37003
0.373283
10.2025
10.7754
11.4457
12.1089
12.6116
12.8669
12.9094
12.6478
12.1221
11.4044
10.5166
9.49022
8.3664
7.20488
6.12321
5.1882
4.39233
3.72036
3.1538
2.67347
2.24662
1.89237
1.61885
1.39894
1.22615
1.08435
0.956233
0.839036
0.730347
0.6279
0.53663
0.517636
0.953869
2.61292
0.440946
0.49024
0.575733
0.741132
1.09581
1.6705
2.41613
3.26948
4.16659
5.0511
5.88092
6.63164
7.29542
7.87832
8.39746
8.88002
9.35834
9.84398
0.410719
0.389617
0.374676
0.364179
0.356967
0.352146
0.348859
0.34665
0.345175
0.344397
0.344083
0.343994
0.344206
0.344772
0.34546
0.34638
0.347459
0.34869
0.350083
0.351615
0.353299
0.355135
0.357128
0.359301
0.361654
0.364216
0.366989
0.370006
0.373275
10.331
10.9724
11.7167
12.402
12.879
13.0836
13.0671
12.7965
12.2876
11.5833
10.7045
9.68199
8.55577
7.38573
6.29146
5.34255
4.53277
3.84758
3.26869
2.7768
2.33833
1.97321
1.69058
1.47505
1.30257
1.15027
1.01354
0.889058
0.773803
0.664822
0.56508
0.537782
0.995649
2.64929
0.432264
0.476726
0.553426
0.691841
0.996828
1.52584
2.24284
3.08826
3.99152
4.88803
5.72805
6.48092
7.13439
7.69105
8.16458
8.57744
8.96373
9.34865
9.82195
0.40499
0.385787
0.372192
0.362763
0.356385
0.351963
0.34886
0.34665
0.345177
0.344452
0.344101
0.343973
0.344139
0.344694
0.345367
0.346268
0.347346
0.348571
0.349965
0.351499
0.353186
0.35503
0.357033
0.35922
0.361586
0.364163
0.366951
0.369983
0.373267
10.3597
11.1055
11.9155
12.6072
13.0459
13.2024
13.1709
12.9334
12.4478
11.7599
10.8936
9.87762
8.75124