/*--------------------------------*- C++ -*----------------------------------*\
  =========                 |
  \\      /  F ield         | OpenFOAM: The Open Source CFD Toolbox
   \\    /   O peration     | Website:  https://openfoam.org
    \\  /    A nd           | Version:  8
     \\/     M anipulation  |
\*---------------------------------------------------------------------------*/
FoamFile
{
    version     2.0;
    format      ascii;
    class       volVectorField;
    location    "0.12";
    object      U;
}
// * * * * * * * * * * * * * * * * * * * * * * * * * * * * * * * * * * * * * //

dimensions      [0 1 -1 0 0 0 0];

internalField   nonuniform List<vector> 
15677
(
(-0.0199313 9.66507 0)
(0.0435742 9.92084 0)
(0.00238162 9.37804 0)
(0.0147377 9.97647 0)
(0.0186117 9.78777 0)
(0.00701871 9.14237 0)
(0.0279624 9.99433 0)
(0.0171064 9.92481 0)
(0.0107318 9.65499 0)
(0.00608231 8.9601 0)
(0.0261092 10.0015 0)
(0.021502 9.97855 0)
(0.0163919 9.85343 0)
(0.00901829 9.53035 0)
(0.00490771 8.81682 0)
(0.0249555 10.0047 0)
(0.0223743 10.0027 0)
(0.0191787 9.94293 0)
(0.0153687 9.77932 0)
(0.0078822 9.41951 0)
(0.00403742 8.7023 0)
(0.0239781 10.0062 0)
(0.0225504 10.0143 0)
(0.0207889 9.98612 0)
(0.0182778 9.90241 0)
(0.0138964 9.70794 0)
(0.00680909 9.32145 0)
(0.00336873 8.61001 0)
(0.0226378 10.0067 0)
(0.0223866 10.0199 0)
(0.0216151 10.0081 0)
(0.0201762 9.965 0)
(0.0170424 9.86191 0)
(0.0124643 9.64083 0)
(0.00585997 9.23625 0)
(0.00280844 8.53597 0)
(0.0209528 10.0067 0)
(0.0218456 10.0223 0)
(0.021939 10.0196 0)
(0.0212667 9.99813 0)
(0.0190811 9.94378 0)
(0.0156538 9.82241 0)
(0.0110986 9.57959 0)
(0.00498211 9.16395 0)
(0.00229239 8.47745 0)
(0.0190358 10.0063 0)
(0.0210079 10.0226 0)
(0.0218317 10.0255 0)
(0.0217652 10.0163 0)
(0.0202533 9.98826 0)
(0.0177143 9.92297 0)
(0.0141809 9.78542 0)
(0.00970642 9.52565 0)
(0.00411802 9.10435 0)
(0.00178233 8.43293 0)
(0.0169628 10.0057 0)
(0.0199465 10.0218 0)
(0.0213786 10.0284 0)
(0.0217931 10.0263 0)
(0.0207998 10.0132 0)
(0.0188633 9.97881 0)
(0.0161652 9.90374 0)
(0.0125559 9.75243 0)
(0.0082245 9.47999 0)
(0.00322249 9.05722 0)
(0.00124937 8.40145 0)
(0.0147575 10.0051 0)
(0.0186493 10.0203 0)
(0.0206182 10.0292 0)
(0.0214722 10.0317 0)
(0.0208492 10.0275 0)
(0.0193259 10.0106 0)
(0.017191 9.97078 0)
(0.0143509 9.88731 0)
(0.0107142 9.72459 0)
(0.00660378 9.44337 0)
(0.0022549 9.0225 0)
(0.000671262 8.38272 0)
(0.0124413 10.0044 0)
(0.0172163 10.0183 0)
(0.0195602 10.0285 0)
(0.0208063 10.0342 0)
(0.0204607 10.0355 0)
(0.019253 10.0291 0)
(0.0174702 10.0094 0)
(0.0151407 9.9652 0)
(0.0121911 9.87469 0)
(0.00859626 9.70296 0)
(0.00479371 9.41655 0)
(0.00118151 9.00025 0)
(-3.76218e-06 8.37652 0)
(0.0101645 10.0036 0)
(0.0157185 10.0161 0)
(0.0182481 10.0268 0)
(0.0198192 10.0346 0)
(0.0197432 10.0396 0)
(0.0187285 10.0399 0)
(0.0171625 10.0321 0)
(0.015119 10.0105 0)
(0.0126167 9.96297 0)
(0.00960957 9.86685 0)
(0.00613785 9.68859 0)
(0.00274747 9.40017 0)
(-3.30225e-06 8.99063 0)
(-0.000642166 8.38283 0)
(0.00821152 10.0029 0)
(0.0141101 10.0136 0)
(0.0167329 10.0245 0)
(0.0185236 10.0335 0)
(0.0186815 10.0412 0)
(0.0178117 10.0458 0)
(0.0163594 10.0455 0)
(0.0144459 10.0373 0)
(0.012157 10.0147 0)
(0.00952226 9.96497 0)
(0.00652359 9.86479 0)
(0.00327636 9.68246 0)
(0.0004169 9.39487 0)
(-0.00136604 8.99396 0)
(-0.00141271 8.40177 0)
(0.0066561 10.0023 0)
(0.012555 10.0113 0)
(0.0150437 10.0217 0)
(0.0169322 10.0315 0)
(0.0172829 10.0409 0)
(0.0165143 10.0485 0)
(0.0151064 10.0531 0)
(0.0132144 10.0533 0)
(0.0109679 10.0455 0)
(0.0084663 10.0229 0)
(0.00575114 9.97208 0)
(0.00285074 9.86951 0)
(-7.68293e-05 9.68553 0)
(-0.00223603 9.40128 0)
(-0.00291398 9.0104 0)
(-0.00228875 8.43363 0)
(0.00549854 10.0018 0)
(0.0111491 10.0093 0)
(0.013385 10.0189 0)
(0.0150725 10.0286 0)
(0.0155524 10.0391 0)
(0.014842 10.0489 0)
(0.0134205 10.057 0)
(0.0114668 10.0626 0)
(0.00913961 10.0639 0)
(0.00658677 10.0575 0)
(0.00391592 10.0359 0)
(0.00120533 9.98523 0)
(-0.00147202 9.882 0)
(-0.00387461 9.69865 0)
(-0.00522448 9.41995 0)
(-0.00464503 9.04021 0)
(-0.00326315 8.47846 0)
(0.0045303 10.0014 0)
(0.00976521 10.0077 0)
(0.0118791 10.0165 0)
(0.0131894 10.0257 0)
(0.0135037 10.0363 0)
(0.0127977 10.0476 0)
(0.0113047 10.0581 0)
(0.00921727 10.0675 0)
(0.00671053 10.0748 0)
(0.00396751 10.0783 0)
(0.00114595 10.0741 0)
(-0.00162261 10.0546 0)
(-0.00423507 10.0053 0)
(-0.00654719 9.90316 0)
(-0.00824348 9.72262 0)
(-0.00859131 9.45128 0)
(-0.00656896 9.08346 0)
(-0.00433201 8.53632 0)
(0.00374359 10.0011 0)
(0.00852445 10.0064 0)
(0.0104507 10.0143 0)
(0.0114491 10.0229 0)
(0.0113928 10.0331 0)
(0.010391 10.0448 0)
(0.00875937 10.0571 0)
(0.00646577 10.0692 0)
(0.00368921 10.0806 0)
(0.00063951 10.0905 0)
(-0.00249029 10.097 0)
(-0.00552555 10.0961 0)
(-0.00829466 10.0798 0)
(-0.0106556 10.0333 0)
(-0.0124164 9.93388 0)
(-0.0132116 9.75805 0)
(-0.0123522 9.49558 0)
(-0.00869287 9.14026 0)
(-0.00549351 8.60707 0)
(0.00310303 10.0009 0)
(0.00740565 10.0053 0)
(0.00914145 10.0124 0)
(0.00981176 10.0204 0)
(0.00941444 10.03 0)
(0.00791208 10.0414 0)
(0.00579283 10.0545 0)
(0.00320994 10.0685 0)
(7.12862e-05 10.0829 0)
(-0.00339653 10.0972 0)
(-0.0069714 10.1105 0)
(-0.0104367 10.121 0)
(-0.0135794 10.1243 0)
(-0.0162036 10.1123 0)
(-0.0181242 10.0699 0)
(-0.0191153 9.97485 0)
(-0.0187847 9.80545 0)
(-0.0165043 9.553 0)
(-0.011005 9.21038 0)
(-0.00673661 8.69036 0)
(0.00257679 10.0008 0)
(0.00639463 10.0045 0)
(0.00793635 10.0109 0)
(0.00829286 10.0182 0)
(0.00754333 10.0271 0)
(0.00559091 10.0379 0)
(0.00275705 10.0508 0)
(-0.000539415 10.0657 0)
(-0.00414499 10.0823 0)
(-0.00815019 10.0998 0)
(-0.012304 10.1178 0)
(-0.0163558 10.1356 0)
(-0.0200547 10.151 0)
(-0.02316 10.1596 0)
(-0.0254443 10.153 0)
(-0.0266959 10.1159 0)
(-0.0266624 10.0267 0)
(-0.0249563 9.86509 0)
(-0.0210338 9.6235 0)
(-0.0134977 9.29365 0)
(-0.00805387 8.78578 0)
(0.00215879 10.0006 0)
(0.00548541 10.0038 0)
(0.00683025 10.0095 0)
(0.00689488 10.0162 0)
(0.00579916 10.0243 0)
(0.00340233 10.0345 0)
(-6.98125e-05 10.0468 0)
(-0.00434195 10.0617 0)
(-0.00894605 10.0793 0)
(-0.0136256 10.0992 0)
(-0.018508 10.1206 0)
(-0.0233085 10.1434 0)
(-0.0277394 10.1665 0)
(-0.0315216 10.1878 0)
(-0.034386 10.2027 0)
(-0.0360873 10.2025 0)
(-0.0363954 10.1719 0)
(-0.0350521 10.0897 0)
(-0.0317042 9.9371 0)
(-0.0259117 9.70687 0)
(-0.0161405 9.38941 0)
(-0.00942367 8.8925 0)
(0.00183796 10.0005 0)
(0.00470915 10.0032 0)
(0.00582125 10.0083 0)
(0.00561995 10.0144 0)
(0.00419508 10.0218 0)
(0.00137252 10.0312 0)
(-0.00271823 10.0428 0)
(-0.00786204 10.0571 0)
(-0.0137769 10.0747 0)
(-0.0198053 10.0958 0)
(-0.0255913 10.1198 0)
(-0.0313253 10.1462 0)
(-0.0366789 10.1746 0)
(-0.0413325 10.204 0)
(-0.0449813 10.2321 0)
(-0.0473435 10.2542 0)
(-0.0481647 10.2614 0)
(-0.0472153 10.2383 0)
(-0.0442539 10.1642 0)
(-0.0389834 10.0213 0)
(-0.0310949 9.80264 0)
(-0.0189128 9.49712 0)
(-0.0108283 9.0098 0)
(0.00158878 10.0005 0)
(0.0040799 10.0028 0)
(0.00494475 10.0073 0)
(0.00446788 10.0128 0)
(0.00273923 10.0195 0)
(-0.000478583 10.0281 0)
(-0.00515409 10.0388 0)
(-0.0111415 10.0523 0)
(-0.0182223 10.0694 0)
(-0.0259795 10.0903 0)
(-0.0335309 10.1158 0)
(-0.0404186 10.1449 0)
(-0.0469186 10.1772 0)
(-0.0526637 10.2122 0)
(-0.0573087 10.2488 0)
(-0.0605402 10.2846 0)
(-0.0620751 10.3147 0)
(-0.0616701 10.3301 0)
(-0.0591141 10.3153 0)
(-0.0542044 10.2501 0)
(-0.0467297 10.1175 0)
(-0.0365297 9.9102 0)
(-0.0217565 9.61573 0)
(-0.0122284 9.13605 0)
(0.00139182 10.0004 0)
(0.00357154 10.0025 0)
(0.00421972 10.0065 0)
(0.00348038 10.0114 0)
(0.00143564 10.0174 0)
(-0.00213827 10.0251 0)
(-0.00735208 10.0349 0)
(-0.0141348 10.0475 0)
(-0.0223396 10.0636 0)
(-0.031631 10.084 0)
(-0.0414199 10.1093 0)
(-0.0505594 10.1399 0)
(-0.0584783 10.1752 0)
(-0.0655811 10.2144 0)
(-0.0714722 10.2569 0)
(-0.0757993 10.3015 0)
(-0.0782547 10.3458 0)
(-0.0785762 10.3847 0)
(-0.076551 10.4088 0)
(-0.0720117 10.403 0)
(-0.0648176 10.3472 0)
(-0.0548566 10.2249 0)
(-0.0421041 10.0287 0)
(-0.0245616 9.74395 0)
(-0.0131845 9.26956 0)
(0.00123389 10.0004 0)
(0.00315919 10.0022 0)
(0.0036226 10.0058 0)
(0.00267788 10.0102 0)
(0.000335352 10.0154 0)
(-0.00360015 10.0223 0)
(-0.00929412 10.0311 0)
(-0.0168077 10.0426 0)
(-0.0260715 10.0576 0)
(-0.0368388 10.077 0)
(-0.0486114 10.1016 0)
(-0.0605948 10.1321 0)
(-0.0713231 10.169 0)
(-0.0801166 10.2115 0)
(-0.0875649 10.2584 0)
(-0.0932648 10.3093 0)
(-0.0968759 10.3628 0)
(-0.0981223 10.4162 0)
(-0.0967874 10.4643 0)
(-0.092715 10.4977 0)
(-0.085796 10.5011 0)
(-0.0759703 10.455 0)
(-0.0632222 10.343 0)
(-0.0477679 10.1568 0)
(-0.0273423 9.88151 0)
(-0.0142529 9.41032 0)
(0.0011056 10.0003 0)
(0.00282102 10.002 0)
(0.00313028 10.0053 0)
(0.00202948 10.0092 0)
(-0.000538206 10.0138 0)
(-0.0048057 10.0197 0)
(-0.0109689 10.0275 0)
(-0.0191355 10.0378 0)
(-0.0293738 10.0515 0)
(-0.0415326 10.0695 0)
(-0.0552133 10.093 0)
(-0.0697171 10.1227 0)
(-0.0840013 10.1594 0)
(-0.0962311 10.2037 0)
(-0.105634 10.2543 0)
(-0.113063 10.31 0)
(-0.118133 10.37 0)
(-0.120546 10.433 0)
(-0.120085 10.496 0)
(-0.116602 10.5537 0)
(-0.110019 10.5966 0)
(-0.10031 10.6094 0)
(-0.0874878 10.5729 0)
(-0.0716742 10.4705 0)
(-0.0526306 10.294 0)
(-0.0237242 10.0218 0)
(-0.00927115 9.49566 0)
(0.00100013 10.0003 0)
(0.00254161 10.0018 0)
(0.00272104 10.0048 0)
(0.00150356 10.0084 0)
(-0.00122396 10.0124 0)
(-0.00573538 10.0175 0)
(-0.0123096 10.0241 0)
(-0.0211011 10.0331 0)
(-0.0322127 10.0454 0)
(-0.0456554 10.0619 0)
(-0.0611387 10.0838 0)
(-0.0780707 10.1121 0)
(-0.0955064 10.1479 0)
(-0.112111 10.1919 0)
(-0.125637 10.2446 0)
(-0.135266 10.3043 0)
(-0.142201 10.3696 0)
(-0.146103 10.4395 0)
(-0.146747 10.5125 0)
(-0.144009 10.5854 0)
(-0.137845 10.6528 0)
(-0.128273 10.7051 0)
(-0.115335 10.7272 0)
(-0.0991564 10.6998 0)
(-0.0796305 10.6066 0)
(-0.0573192 10.437 0)
(-0.0193802 10.1931 0)
(-0.00145487 9.56125 0)
(0.000912452 10.0003 0)
(0.00230999 10.0017 0)
(0.00237765 10.0045 0)
(0.00107921 10.0077 0)
(-0.00176179 10.0112 0)
(-0.00643866 10.0156 0)
(-0.0133037 10.0211 0)
(-0.0226258 10.0287 0)
(-0.0345643 10.0393 0)
(-0.0491623 10.0541 0)
(-0.0663151 10.0741 0)
(-0.0855482 10.1007 0)
(-0.106028 10.135 0)
(-0.12651 10.178 0)
(-0.145341 10.2303 0)
(-0.159839 10.2924 0)
(-0.169179 10.3622 0)
(-0.175009 10.4378 0)
(-0.177093 10.5181 0)
(-0.175321 10.6012 0)
(-0.169695 10.6841 0)
(-0.160291 10.7612 0)
(-0.147218 10.8227 0)
(-0.130612 10.8537 0)
(-0.110441 10.835 0)
(-0.0866139 10.7501 0)
(-0.06108 10.5937 0)
(-0.0213173 10.366 0)
(0.00259729 9.6184 0)
(0.000838869 10.0002 0)
(0.00211704 10.0016 0)
(0.00209146 10.0041 0)
(0.000736806 10.007 0)
(-0.00218164 10.0102 0)
(-0.0069643 10.0139 0)
(-0.0140171 10.0186 0)
(-0.0237061 10.0247 0)
(-0.0363343 10.0335 0)
(-0.0520205 10.0463 0)
(-0.0706837 10.0643 0)
(-0.0920577 10.0887 0)
(-0.115433 10.1209 0)
(-0.139676 10.1622 0)
(-0.163214 10.2134 0)
(-0.184051 10.2751 0)
(-0.199034 10.3477 0)
(-0.20741 10.4284 0)
(-0.211411 10.5148 0)
(-0.210944 10.6058 0)
(-0.206054 10.6993 0)
(-0.196889 10.7921 0)
(-0.183651 10.8785 0)
(-0.166551 10.9488 0)
(-0.145641 10.9882 0)
(-0.120803 10.9777 0)
(-0.0921713 10.9016 0)
(-0.062504 10.7632 0)
(-0.0246583 10.5359 0)
(0.00351976 9.67515 0)
(0.000776626 10.0002 0)
(0.00195541 10.0015 0)
(0.00185316 10.0039 0)
(0.000456676 10.0065 0)
(-0.00250832 10.0093 0)
(-0.00735133 10.0125 0)
(-0.0145129 10.0163 0)
(-0.0244308 10.0213 0)
(-0.0375303 10.0283 0)
(-0.054115 10.0388 0)
(-0.0741999 10.0543 0)
(-0.097523 10.0762 0)
(-0.123607 10.1059 0)
(-0.151445 10.1448 0)
(-0.179565 10.1942 0)
(-0.206032 10.2549 0)
(-0.228479 10.3271 0)
(-0.243302 10.4109 0)
(-0.249907 10.5033 0)
(-0.251249 10.601 0)
(-0.247422 10.7028 0)
(-0.238658 10.8065 0)
(-0.225265 10.9089 0)
(-0.207579 11.0041 0)
(-0.185813 11.0827 0)
(-0.159992 11.13 0)
(-0.130432 11.1276 0)
(-0.0973315 11.0614 0)
(-0.0642876 10.9402 0)
(-0.0273997 10.7013 0)
(0.00314315 9.74869 0)
(0.000723619 10.0002 0)
(0.0018192 10.0014 0)
(0.001656 10.0036 0)
(0.000226202 10.006 0)
(-0.00276233 10.0085 0)
(-0.00763106 10.0112 0)
(-0.0148418 10.0143 0)
(-0.0248829 10.0183 0)
(-0.0382716 10.0238 0)
(-0.0554678 10.032 0)
(-0.0767214 10.0446 0)
(-0.101884 10.0635 0)
(-0.130451 10.0904 0)
(-0.161672 10.1264 0)
(-0.194197 10.1731 0)
(-0.226172 10.2318 0)
(-0.255259 10.3029 0)
(-0.278758 10.3866 0)
(-0.292609 10.4826 0)
(-0.29651 10.587 0)
(-0.294261 10.6962 0)
(-0.286197 10.8088 0)
(-0.272764 10.9225 0)
(-0.254438 11.0339 0)
(-0.231638 11.1373 0)
(-0.204622 11.2236 0)
(-0.173822 11.2785 0)
(-0.140013 11.2837 0)
(-0.103312 11.2284 0)
(-0.0669097 11.1193 0)
(-0.0302424 10.8815 0)
(0.00205976 9.83316 0)
(0.000678192 10.0002 0)
(0.00170379 10.0013 0)
(0.00148991 10.0034 0)
(3.51235e-05 10.0056 0)
(-0.00295939 10.0079 0)
(-0.00782831 10.0101 0)
(-0.015044 10.0126 0)
(-0.0251292 10.0156 0)
(-0.0386676 10.0197 0)
(-0.056237 10.026 0)
(-0.0782873 10.0359 0)
(-0.104963 10.0512 0)
(-0.135886 10.0744 0)
(-0.170231 10.1071 0)
(-0.206929 10.1506 0)
(-0.24423 10.2063 0)
(-0.279854 10.2754 0)
(-0.311078 10.3582 0)
(-0.334888 10.4542 0)
(-0.346802 10.563 0)
(-0.346932 10.6798 0)
(-0.340081 10.8005 0)
(-0.326864 10.9236 0)
(-0.307951 11.0467 0)
(-0.283973 11.1665 0)
(-0.255461 11.2776 0)
(-0.223005 11.3711 0)
(-0.187489 11.4329 0)
(-0.149902 11.4452 0)
(-0.11007 11.3994 0)
(-0.0707883 11.3193 0)
(-0.0332404 11.0763 0)
(0.000364114 9.92669 0)
(0.000639067 10.0002 0)
(0.00160548 10.0013 0)
(0.00134921 10.0032 0)
(-0.000121309 10.0053 0)
(-0.00311196 10.0073 0)
(-0.00796262 10.0092 0)
(-0.0151511 10.0111 0)
(-0.0252223 10.0132 0)
(-0.038806 10.0162 0)
(-0.056566 10.0207 0)
(-0.0791045 10.0281 0)
(-0.106818 10.04 0)
(-0.139687 10.0588 0)
(-0.177019 10.0872 0)
(-0.217601 10.1269 0)
(-0.259984 10.179 0)
(-0.301971 10.245 0)
(-0.340852 10.3257 0)
(-0.373538 10.421 0)
(-0.396729 10.5302 0)
(-0.405583 10.6522 0)
(-0.400779 10.7816 0)
(-0.388265 10.9136 0)
(-0.36896 11.0467 0)
(-0.343768 11.1786 0)
(-0.313495 11.3062 0)
(-0.278965 11.4243 0)
(-0.241169 11.5242 0)
(-0.20124 11.5919 0)
(-0.16001 11.61 0)
(-0.117851 11.5931 0)
(-0.0755769 11.5384 0)
(-0.036398 11.2664 0)
(-0.00153007 10.0273 0)
(0.000605547 10.0002 0)
(0.00152105 10.0012 0)
(0.00122958 10.0031 0)
(-0.000249975 10.005 0)
(-0.00322938 10.0068 0)
(-0.00804922 10.0083 0)
(-0.0151879 10.0098 0)
(-0.0252034 10.0112 0)
(-0.0387559 10.013 0)
(-0.0565697 10.016 0)
(-0.0793595 10.0212 0)
(-0.107716 10.03 0)
(-0.141932 10.0446 0)
(-0.181749 10.0677 0)
(-0.226078 10.1023 0)
(-0.273233 10.1502 0)
(-0.321337 10.2123 0)
(-0.367728 10.2898 0)
(-0.409268 10.3832 0)
(-0.442523 10.492 0)
(-0.46399 10.6149 0)
(-0.468536 10.7504 0)
(-0.457568 10.8923 0)
(-0.438307 11.0351 0)
(-0.412001 11.1776 0)
(-0.37981 11.3176 0)
(-0.342828 11.4522 0)
(-0.302238 11.5764 0)
(-0.259286 11.6817 0)
(-0.215041 11.7537 0)
(-0.171126 11.7965 0)
(-0.12633 11.8078 0)
(-0.0806875 11.7533 0)
(-0.0394715 11.4514 0)
(-0.0033539 10.1327 0)
(0.00144746 10.0012 0)
(0.000565649 10.0002 0)
(0.00112664 10.003 0)
(-0.000356336 10.0047 0)
(-0.00331914 10.0063 0)
(-0.00809988 10.0076 0)
(-0.0151738 10.0086 0)
(-0.0251046 10.0094 0)
(-0.0385712 10.0103 0)
(-0.0563385 10.0118 0)
(-0.0792017 10.015 0)
(-0.107897 10.021 0)
(-0.142961 10.0318 0)
(-0.184517 10.0498 0)
(-0.231994 10.0781 0)
(-0.283801 10.1201 0)
(-0.337701 10.1775 0)
(-0.391371 10.2509 0)
(-0.441663 10.3412 0)
(-0.485031 10.4483 0)
(-0.517763 10.5714 0)
(-0.536242 10.7083 0)
(-0.535138 10.8574 0)
(-0.51674 11.0114 0)
(-0.489672 11.1645 0)
(-0.455533 11.3156 0)
(-0.415803 11.4629 0)
(-0.371925 11.6035 0)
(-0.32533 11.7328 0)
(-0.277285 11.8418 0)
(-0.230212 11.9363 0)
(-0.183017 12.0036 0)
(-0.134536 12.0199 0)
(-0.0857777 11.9625 0)
(-0.0423274 11.6306 0)
(-0.00509955 10.2408 0)
(0.00103697 10.0028 0)
(0.00136308 10.0011 0)
(0.000518014 10.0002 0)
(-0.000445554 10.0045 0)
(-0.00338732 10.0059 0)
(-0.00812346 10.007 0)
(-0.0151234 10.0076 0)
(-0.0249507 10.0078 0)
(-0.0382938 10.0078 0)
(-0.0559428 10.0082 0)
(-0.0787487 10.0095 0)
(-0.107553 10.0131 0)
(-0.143079 10.0204 0)
(-0.185751 10.0337 0)
(-0.235461 10.0559 0)
(-0.291222 10.0905 0)
(-0.350839 10.1412 0)
(-0.411473 10.2095 0)
(-0.470321 10.2955 0)
(-0.523765 10.3997 0)
(-0.567904 10.5215 0)
(-0.598833 10.6594 0)
(-0.612937 10.8106 0)
(-0.604779 10.973 0)
(-0.577701 11.1386 0)
(-0.541839 11.3013 0)
(-0.499181 11.4601 0)
(-0.451569 11.6136 0)
(-0.400711 11.7593 0)
(-0.3481 11.8919 0)
(-0.296966 12.0224 0)
(-0.246327 12.1389 0)
(-0.194341 12.2091 0)
(-0.142283 12.2275 0)
(-0.0906113 12.1647 0)
(-0.0448976 11.8036 0)
(-0.00672571 10.3497 0)
(-0.000524008 10.0043 0)
(0.000944698 10.0027 0)
(0.00126098 10.001 0)
(0.000472606 10.0001 4.20122e-20)
(-0.00343994 10.0056 0)
(-0.00812705 10.0064 0)
(-0.0150476 10.0067 0)
(-0.0247606 10.0064 0)
(-0.0379556 10.0057 0)
(-0.055437 10.0049 0)
(-0.078092 10.0047 0)
(-0.106837 10.006 0)
(-0.142532 10.0102 0)
(-0.185835 10.0193 0)
(-0.237008 10.0359 0)
(-0.295615 10.0632 0)
(-0.360155 10.1053 0)
(-0.427744 10.1661 0)
(-0.494861 10.2468 0)
(-0.558245 10.3467 0)
(-0.613845 10.4658 0)
(-0.657481 10.6031 0)
(-0.68517 10.7561 0)
(-0.693417 10.9216 0)
(-0.676792 11.0969 0)
(-0.639843 11.2733 0)
(-0.594329 11.4446 0)
(-0.542639 11.6101 0)
(-0.486911 11.7687 0)
(-0.428982 11.9177 0)
(-0.372882 12.0715 0)
(-0.317782 12.2227 0)
(-0.261496 12.3398 0)
(-0.204942 12.4109 0)
(-0.149422 12.4289 0)
(-0.0950681 12.3591 0)
(-0.0471534 11.9699 0)
(-0.00819998 10.4579 0)
(-0.00348684 10.0053 0)
(-0.000587546 10.004 0)
(0.000840082 10.0025 1.91192e-19)
(0.00116107 10.0009 -1.33197e-19)
(0.000429369 10.0001 -8.24611e-20)
(-0.00811754 10.0059 0)
(-0.0149548 10.0059 0)
(-0.0245477 10.0051 0)
(-0.037581 10.0038 0)
(-0.0548629 10.002 0)
(-0.0773022 10.0004 0)
(-0.105866 9.99971 0)
(-0.141513 10.0011 0)
(-0.185078 10.0064 0)
(-0.237112 10.0178 0)
(-0.297625 10.0385 0)
(-0.365765 10.0721 0)
(-0.439431 10.1231 0)
(-0.514919 10.1954 0)
(-0.588009 10.2898 0)
(-0.655021 10.4049 0)
(-0.711536 10.54 0)
(-0.753202 10.6932 0)
(-0.776083 10.8616 0)
(-0.776946 11.0411 0)
(-0.750476 11.2286 0)
(-0.70258 11.4148 0)
(-0.646707 11.5936 0)
(-0.585591 11.7646 0)
(-0.521553 11.9268 0)
(-0.459657 12.0967 0)
(-0.399046 12.2708 0)
(-0.337267 12.4213 0)
(-0.275572 12.5372 0)
(-0.214674 12.6072 0)
(-0.155876 12.623 0)
(-0.0990895 12.5453 0)
(-0.0490998 12.1291 0)
(-0.00951095 10.5641 0)
(-0.00811032 10.0055 0)
(-0.00348698 10.0049 -4.3192e-19)
(-0.000640892 10.0037 -2.02037e-19)
(0.000741545 10.0023 9.38328e-20)
(0.00106518 10.0009 -8.71288e-20)
(0.000388354 10.0001 0)
(-0.0148526 10.0052 0)
(-0.0243219 10.004 0)
(-0.0371872 10.0021 0)
(-0.0542516 9.9995 0)
(-0.0764331 9.99664 0)
(-0.104731 9.99415 0)
(-0.140174 9.99306 0)
(-0.183726 9.99487 0)
(-0.236158 10.0017 0)
(-0.297836 10.0162 0)
(-0.368442 10.042 0)
(-0.446625 10.0831 0)
(-0.529545 10.1443 0)
(-0.612605 10.2298 0)
(-0.690878 10.3394 0)
(-0.76034 10.4708 0)
(-0.8163 10.6226 0)
(-0.854362 10.7921 0)
(-0.870781 10.9756 0)
(-0.862731 11.1685 0)
(-0.82512 11.3673 0)
(-0.76534 11.5623 0)
(-0.698538 11.7474 0)
(-0.627687 11.9223 0)
(-0.559088 12.1056 0)
(-0.492021 12.2956 0)
(-0.423502 12.4685 0)
(-0.355275 12.6166 0)
(-0.288413 12.7295 0)
(-0.223455 12.7969 0)
(-0.161619 12.8092 0)
(-0.102654 12.7228 0)
(-0.0507593 12.2809 0)
(-0.0106595 10.6673 0)
(-0.0147646 10.0045 0)
(-0.00800887 10.0049 9.12782e-19)
(-0.00343062 10.0045 0)
(-0.000688988 10.0035 1.98246e-19)
(0.000649755 10.0022 3.35263e-23)
(0.00097337 10.0008 0)
(0.000349582 10.0001 0)
(-0.0240917 10.0031 0)
(-0.0367854 10.0006 0)
(-0.053625 9.99726 0)
(-0.0755252 9.9933 0)
(-0.103502 9.98923 0)
(-0.138631 9.98592 0)
(-0.181968 9.98465 0)
(-0.234452 9.98724 0)
(-0.296724 9.99619 0)
(-0.368895 10.0147 0)
(-0.45024 10.0467 0)
(-0.538777 10.0967 0)
(-0.630838 10.1697 0)
(-0.720861 10.2698 0)
(-0.803237 10.3959 0)
(-0.87371 10.5446 0)
(-0.927443 10.7137 0)
(-0.960141 10.8997 0)
(-0.968405 11.098 0)
(-0.94995 11.3035 0)
(-0.900015 11.5125 0)
(-0.827563 11.715 0)
(-0.749374 11.9046 0)
(-0.673288 12.101 0)
(-0.598702 12.3045 0)
(-0.522257 12.4932 0)
(-0.446076 12.663 0)
(-0.371678 12.8069 0)
(-0.299959 12.9156 0)
(-0.231261 12.9793 0)
(-0.166664 12.9869 0)
(-0.105768 12.8914 0)
(-0.0521601 12.425 0)
(-0.0116526 10.7667 0)
(-0.0238922 10.0022 0)
(-0.0145143 10.0038 1.17829e-22)
(-0.00777479 10.0043 0)
(-0.00337006 10.004 -2.09474e-19)
(-0.000728025 10.0032 2.0031e-23)
(0.000564485 10.002 0)
(0.000885578 10.0007 0)
(0.000313061 10.0001 0)
(-0.0363855 9.9993 0)
(-0.0529969 9.99528 0)
(-0.0746065 9.99034 0)
(-0.102231 9.98487 0)
(-0.136973 9.97959 0)
(-0.179953 9.97557 0)
(-0.232233 9.9744 0)
(-0.294667 9.9783 0)
(-0.367702 9.99017 0)
(-0.451127 10.0137 0)
(-0.543682 10.0532 0)
(-0.642661 10.1136 0)
(-0.743478 10.1999 0)
(-0.839553 10.3162 0)
(-0.92466 10.4601 0)
(-0.994462 10.627 0)
(-1.04413 10.8136 0)
(-1.06963 11.0158 0)
(-1.06805 11.2282 0)
(-1.03778 11.4453 0)
(-0.974469 11.6632 0)
(-0.888678 11.8714 0)
(-0.804474 12.0832 0)
(-0.721447 12.3003 0)
(-0.635733 12.5025 0)
(-0.550162 12.6879 0)
(-0.466647 12.8527 0)
(-0.386423 12.9911 0)
(-0.31021 13.0946 0)
(-0.238116 13.1536 0)
(-0.17104 13.1559 0)
(-0.108456 13.0511 0)
(-0.0533298 12.5614 0)
(-0.0125011 10.8618 0)
(-0.0360388 9.99814 0)
(-0.0234354 10.0012 -5.09601e-19)
(-0.0140152 10.003 0)
(-0.00753916 10.0037 0)
(-0.00329663 10.0036 6.16735e-19)
(-0.000757658 10.0029 0)
(0.000485709 10.0019 0)
(0.000801878 10.0007 1.64724e-19)
(0.000278818 10.0001 0)
(-0.0523781 9.99352 0)
(-0.0736935 9.98772 0)
(-0.100953 9.98102 0)
(-0.135266 9.97398 0)
(-0.177793 9.96751 0)
(-0.229689 9.96299 0)
(-0.291961 9.96236 0)
(-0.365326 9.96821 0)
(-0.449979 9.98392 0)
(-0.545265 10.0136 0)
(-0.649299 10.062 0)
(-0.758553 10.1344 0)
(-0.867446 10.2357 0)
(-0.968348 10.3696 0)
(-1.05453 10.5324 0)
(-1.12177 10.718 0)
(-1.1654 10.9222 0)
(-1.18183 11.1401 0)
(-1.16879 11.3658 0)
(-1.12542 11.5932 0)
(-1.0478 11.8183 0)
(-0.955016 12.0496 0)
(-0.862722 12.2828 0)
(-0.7665 12.4989 0)
(-0.669925 12.6977 0)
(-0.575601 12.8779 0)
(-0.485158 13.0366 0)
(-0.399529 13.1686 0)
(-0.319209 13.2661 0)
(-0.244072 13.3197 0)
(-0.174792 13.316 0)
(-0.11075 13.2019 0)
(-0.0542963 12.6901 0)
(-0.013218 10.9523 0)
(-0.0518423 9.99197 0)
(-0.0353046 9.99685 0)
(-0.0225615 10.0002 -5.03906e-19)
(-0.0135202 10.0022 -4.67892e-19)
(-0.00728607 10.0031 -8.68939e-19)
(-0.00320874 10.0032 0)
(-0.000777798 10.0026 -3.74773e-19)
(0.000413566 10.0017 -3.48102e-19)
(0.000722315 10.0006 1.61662e-19)
(0.00024681 10.0001 0)
(-0.0727985 9.9854 0)
(-0.0996892 9.9776 0)
(-0.133555 9.96901 0)
(-0.175575 9.96037 0)
(-0.22696 9.95286 0)
(-0.28884 9.94816 0)
(-0.362132 9.9486 0)
(-0.447358 9.95723 0)
(-0.544351 9.97787 0)
(-0.651926 10.0151 0)
(-0.767473 10.074 0)
(-0.88655 10.1599 0)
(-1.00251 10.2779 0)
(-1.10671 10.4306 0)
(-1.19207 10.6132 0)
(-1.25468 10.8178 0)
(-1.29023 11.0395 0)
(-1.29573 11.2723 0)
(-1.26969 11.5101 0)
(-1.21206 11.7461 0)
(-1.12766 11.9955 0)
(-1.02532 12.2494 0)
(-0.917281 12.4822 0)
(-0.808129 12.6951 0)
(-0.70112 12.8887 0)
(-0.59852 13.0623 0)
(-0.501631 13.2139 0)
(-0.411055 13.3387 0)
(-0.32703 13.4295 0)
(-0.249192 13.4771 0)
(-0.177973 13.4672 0)
(-0.112687 13.3439 0)
(-0.0550863 12.8113 0)
(-0.0138161 11.038 0)
(-0.0720256 9.98335 0)
(-0.0507438 9.99028 -5.70032e-19)
(-0.0339167 9.99543 5.32382e-19)
(-0.0217021 9.99909 -2.67636e-22)
(-0.0130017 10.0014 4.59065e-19)
(-0.00701195 10.0026 4.26414e-19)
(-0.00310675 10.0028 7.92002e-19)
(-0.000788365 10.0024 5.51692e-19)
(0.000347898 10.0016 -1.70823e-19)
(0.000646964 10.0006 0)
(0.000217027 10.0001 0)
(-0.0984533 9.97457 0)
(-0.131867 9.9646 0)
(-0.173355 9.95403 0)
(-0.224154 9.94386 0)
(-0.28548 9.93553 0)
(-0.358405 9.93111 0)
(-0.443707 9.93335 0)
(-0.541613 9.94574 0)
(-0.651511 9.97257 0)
(-0.771587 10.0188 0)
(-0.898411 10.0899 0)
(-1.02654 10.1911 0)
(-1.14826 10.3271 0)
(-1.25393 10.5 0)
(-1.33634 10.7029 0)
(-1.39212 10.9266 0)
(-1.41752 11.1651 0)
(-1.41031 11.4119 0)
(-1.36982 11.6601 0)
(-1.30677 11.9219 0)
(-1.2126 12.1953 0)
(-1.09138 12.4497 0)
(-0.967798 12.6797 0)
(-0.84614 12.8874 0)
(-0.729254 13.0742 0)
(-0.618946 13.2403 0)
(-0.516141 13.3839 0)
(-0.421094 13.5011 0)
(-0.333759 13.5848 0)
(-0.253548 13.6261 0)
(-0.180636 13.6097 0)
(-0.114306 13.4773 0)
(-0.0557237 12.9251 0)
(-0.0143087 11.119 0)
(-0.0973896 9.97189 0)
(-0.070458 9.98115 -8.50405e-22)
(-0.0486692 9.98846 0)
(-0.032561 9.99406 -4.31915e-22)
(-0.0208119 9.99807 0)
(-0.012454 10.0007 -4.50535e-19)
(-0.00671691 10.002 -8.3693e-19)
(-0.00299039 10.0024 1.91193e-23)
(-0.000789523 10.0021 3.60947e-19)
(0.00028876 10.0014 -1.67643e-19)
(0.000575797 10.0005 1.55721e-19)
(0.000189443 10.0001 0)
(-0.130218 9.9607 0)
(-0.171163 9.94841 0)
(-0.221344 9.93587 0)
(-0.282017 9.92431 0)
(-0.354368 9.91554 0)
(-0.439377 9.91202 0)
(-0.537584 9.91693 0)
(-0.64885 9.93425 0)
(-0.772026 9.96871 0)
(-0.904567 10.0256 0)
(-1.04212 10.1105 0)
(-1.17822 10.2286 0)
(-1.30405 10.3841 0)
(-1.40912 10.5781 0)
(-1.48627 10.8018 0)
(-1.53297 11.0442 0)
(-1.54618 11.2987 0)
(-1.52451 11.5579 0)
(-1.47975 11.8334 0)
(-1.40791 12.121 0)
(-1.29272 12.3966 0)
(-1.15274 12.6489 0)
(-1.01406 12.8737 0)
(-0.880476 13.0744 0)
(-0.754361 13.2534 0)
(-0.636973 13.4111 0)
(-0.528803 13.5463 0)
(-0.429759 13.6553 0)
(-0.339495 13.7317 0)
(-0.257217 13.7665 0)
(-0.18284 13.7436 0)
(-0.115643 13.6024 0)
(-0.0562294 13.0317 0)
(-0.0147094 11.1951 0)
(-0.128805 9.95723 0)
(-0.0952271 9.96907 6.36862e-19)
(-0.0674838 9.97883 -5.9606e-19)
(-0.0466538 9.9867 5.52402e-19)
(-0.0311664 9.99275 0)
(-0.0198807 9.9971 0)
(-0.0118765 9.99994 4.42161e-19)
(-0.00640192 10.0015 -4.10628e-19)
(-0.00286001 10.0021 2.51175e-23)
(-0.000781093 10.0019 1.77149e-19)
(0.000235982 10.0013 -1.64551e-19)
(0.000508734 10.0005 -1.52827e-19)
(0.000164152 10.0001 0)
(-0.169024 9.94343 0)
(-0.218568 9.92878 0)
(-0.278541 9.91434 0)
(-0.350188 9.90169 0)
(-0.434638 9.893 0)
(-0.532689 9.89116 0)
(-0.644581 9.89982 0)
(-0.769719 9.92342 0)
(-0.906315 9.96708 0)
(-1.05099 10.0364 0)
(-1.19843 10.1369 0)
(-1.34107 10.2735 0)
(-1.46909 10.4497 0)
(-1.57124 10.6653 0)
(-1.64071 10.9098 0)
(-1.67604 11.1704 0)
(-1.67505 11.4395 0)
(-1.65051 11.7278 0)
(-1.59771 12.0311 0)
(-1.50371 12.3228 0)
(-1.36739 12.5975 0)
(-1.2091 12.8451 0)
(-1.05598 13.0629 0)
(-0.911196 13.2554 0)
(-0.776549 13.4256 0)
(-0.652733 13.5743 0)
(-0.539753 13.7008 0)
(-0.437168 13.8015 0)
(-0.344339 13.8704 0)
(-0.260276 13.8985 0)
(-0.18464 13.8691 0)
(-0.116736 13.7195 0)
(-0.0566241 13.1314 0)
(-0.015032 11.2665 0)
(-0.167199 9.93901 0)
(-0.1259 9.95364 0)
(-0.0910951 9.96614 6.29549e-19)
(-0.0646078 9.97661 -1.17025e-18)
(-0.0445893 9.98503 1.08577e-18)
(-0.0297157 9.99149 -1.0076e-18)
(-0.0189084 9.99616 0)
(-0.0112707 9.99926 4.34111e-19)
(-0.00606697 10.001 -4.02997e-19)
(-0.00271717 10.0017 -3.74375e-19)
(-0.00076212 10.0017 0)
(0.000189129 10.0012 1.61497e-19)
(0.000446085 10.0004 0)
(0.000141593 10 0)
(-0.215859 9.92248 0)
(-0.275099 9.90548 0)
(-0.345976 9.88937 0)
(-0.429698 9.87606 0)
(-0.527259 9.86814 0)
(-0.639212 9.86895 0)
(-0.765419 9.88262 0)
(-0.90473 9.91402 0)
(-1.05462 9.9686 0)
(-1.2108 10.0521 0)
(-1.36692 10.1699 0)
(-1.51439 10.3264 0)
(-1.64242 10.5243 0)
(-1.73916 10.7621 0)
(-1.79846 11.027 0)
(-1.82014 11.3047 0)
(-1.81803 11.6048 0)
(-1.7865 11.9231 0)
(-1.71008 12.2328 0)
(-1.59345 12.5254 0)
(-1.43621 12.7963 0)
(-1.26032 13.037 0)
(-1.09359 13.2463 0)
(-0.938432 13.4296 0)
(-0.795982 13.5903 0)
(-0.666388 13.7297 0)
(-0.54914 13.8472 0)
(-0.443446 13.9396 0)
(-0.348392 14.001 0)
(-0.262799 14.0225 0)
(-0.186091 13.9868 0)
(-0.117615 13.829 0)
(-0.0569263 13.2245 0)
(-0.0152879 11.3334 0)
(-0.21356 9.9169 0)
(-0.163383 9.93447 0)
(-0.120303 9.94997 0)
(-0.087119 9.96335 1.23594e-18)
(-0.0616728 9.9745 -1.1469e-18)
(-0.042451 9.98344 1.06439e-18)
(-0.0282099 9.99031 0)
(-0.0178975 9.99528 -4.58629e-19)
(-0.0106374 9.99861 0)
(-0.00571318 10.0006 3.95545e-19)
(-0.00256016 10.0014 0)
(-0.000734253 10.0015 0)
(0.000148823 10.0011 0)
(0.000389193 10.0004 1.56993e-19)
(0.000121809 10 7.66752e-20)
(-0.271739 9.89762 0)
(-0.341793 9.87842 0)
(-0.424696 9.86098 0)
(-0.521547 9.84761 0)
(-0.633143 9.84134 0)
(-0.75973 9.84599 0)
(-0.900694 9.86612 0)
(-1.05423 9.907 0)
(-1.21699 9.9743 0)
(-1.38372 10.0738 0)
(-1.54704 10.2105 0)
(-1.69732 10.3883 0)
(-1.82295 10.6086 0)
(-1.9117 10.8686 0)
(-1.95827 11.1531 0)
(-1.98099 11.4637 0)
(-1.97331 11.7964 0)
(-1.91684 12.124 0)
(-1.81594 12.4367 0)
(-1.67661 12.727 0)
(-1.499 12.9917 0)
(-1.3064 13.2236 0)
(-1.12703 13.4232 0)
(-0.962373 13.5965 0)
(-0.812866 13.7472 0)
(-0.678118 13.8771 0)
(-0.557116 13.9856 0)
(-0.448716 14.0697 0)
(-0.351748 14.1237 0)
(-0.264855 14.1387 0)
(-0.187241 14.0967 0)
(-0.11831 13.9312 0)
(-0.0571516 13.3114 0)
(-0.0154865 11.3959 0)
(-0.268906 9.89063 0)
(-0.208641 9.91122 0)
(-0.155966 9.9299 1.41421e-18)
(-0.114944 9.94648 1.31118e-18)
(-0.0830718 9.96071 1.21588e-18)
(-0.0586428 9.97251 -1.1276e-18)
(-0.0402406 9.98195 0)
(-0.0266525 9.98919 0)
(-0.0168495 9.99446 0)
(-0.00997794 9.99801 8.36397e-19)
(-0.00534259 10.0001 3.88308e-19)
(-0.00238897 10.0011 3.60613e-19)
(-0.000697724 10.0013 0)
(0.000116144 10.001 -1.65885e-19)
(0.000338509 10.0003 -8.10433e-20)
(0.000104408 10 0)
(-0.337706 9.86867 0)
(-0.419708 9.84755 0)
(-0.515722 9.82931 0)
(-0.626682 9.81668 0)
(-0.753131 9.81315 0)
(-0.894915 9.823 0)
(-1.05085 9.85122 0)
(-1.21839 9.90337 0)
(-1.39328 9.98527 0)
(-1.56929 10.1025 0)
(-1.738 10.2596 0)
(-1.88885 10.4597 0)
(-2.00956 10.703 0)
(-2.08761 10.9847 0)
(-2.13788 11.3042 0)
(-2.15696 11.6501 0)
(-2.12328 11.9954 0)
(-2.04054 12.3288 0)
(-1.9147 12.6411 0)
(-1.75295 12.9262 0)
(-1.55575 13.1824 0)
(-1.34748 13.4041 0)
(-1.15651 13.5931 0)
(-0.983245 13.7557 0)
(-0.827425 13.8962 0)
(-0.688111 14.0165 0)
(-0.563836 14.116 0)
(-0.453099 14.192 0)
(-0.354497 14.2388 0)
(-0.266511 14.2475 0)
(-0.188134 14.1994 0)
(-0.118849 14.0266 0)
(-0.0573116 13.3924 0)
(-0.0156385 11.4543 0)
(-0.334288 9.86003 0)
(-0.262666 9.88357 0)
(-0.198989 9.90556 -2.99189e-18)