/*--------------------------------*- C++ -*----------------------------------*\
  =========                 |
  \\      /  F ield         | OpenFOAM: The Open Source CFD Toolbox
   \\    /   O peration     | Website:  https://openfoam.org
    \\  /    A nd           | Version:  8
     \\/     M anipulation  |
\*---------------------------------------------------------------------------*/
FoamFile
{
    version     2.0;
    format      ascii;
    class       volScalarField;
    location    "0.1";
    object      k;
}
// * * * * * * * * * * * * * * * * * * * * * * * * * * * * * * * * * * * * * //

dimensions      [0 2 -2 0 0 0 0];

internalField   nonuniform List<scalar> 
15677
(
0.333994
0.364683
0.294341
0.368614
0.357025
0.280635
0.370641
0.359746
0.36565
0.282424
0.371857
0.361481
0.36118
0.383043
0.288667
0.372597
0.363665
0.357593
0.36812
0.40154
0.300175
0.373032
0.365621
0.357773
0.358026
0.379981
0.419304
0.311717
0.373261
0.36716
0.359421
0.354514
0.360944
0.393229
0.434717
0.322556
0.373349
0.368292
0.361332
0.354727
0.353005
0.366847
0.406123
0.447856
0.332055
0.37335
0.369074
0.36305
0.35631
0.351086
0.353457
0.373524
0.418255
0.45871
0.340459
0.373315
0.369563
0.364433
0.3582
0.351906
0.348762
0.35476
0.380681
0.429082
0.467876
0.34754
0.373275
0.369822
0.365457
0.359947
0.3537
0.348365
0.347132
0.357105
0.387647
0.438827
0.475386
0.353772
0.373249
0.369925
0.366145
0.361387
0.355653
0.349751
0.345344
0.346316
0.359703
0.394451
0.447243
0.481822
0.358962
0.373238
0.369939
0.366546
0.362471
0.357418
0.35171
0.346198
0.34292
0.345887
0.362616
0.400695
0.45473
0.487122
0.363617
0.373237
0.369921
0.366735
0.363205
0.358853
0.353673
0.348064
0.343085
0.34086
0.345905
0.365481
0.406579
0.461076
0.491704
0.367675
0.373238
0.369906
0.366792
0.363631
0.359913
0.355383
0.35015
0.344742
0.340288
0.339192
0.346043
0.368401
0.411765
0.466704
0.495499
0.371266
0.373238
0.369899
0.366792
0.36383
0.360605
0.356731
0.352082
0.346872
0.341693
0.337813
0.337745
0.346382
0.371088
0.416565
0.471377
0.498854
0.374557
0.373238
0.369897
0.366782
0.363888
0.360987
0.357686
0.353684
0.34897
0.343826
0.338914
0.33558
0.33653
0.346785
0.373729
0.420637
0.475498
0.501751
0.377354
0.373238
0.369896
0.366774
0.363896
0.361135
0.358273
0.354884
0.350789
0.346055
0.341006
0.336371
0.333581
0.335463
0.347307
0.376014
0.424324
0.478894
0.504303
0.380192
0.373237
0.369896
0.366768
0.363892
0.361179
0.358543
0.355676
0.352215
0.348064
0.343332
0.338409
0.33405
0.331775
0.334583
0.347755
0.378172
0.42733
0.481868
0.506676
0.382397
0.373236
0.369896
0.366764
0.363887
0.361183
0.358648
0.356076
0.353213
0.349695
0.345504
0.340816
0.33602
0.33194
0.330174
0.333795
0.348244
0.379925
0.430016
0.484323
0.508702
0.385031
0.373236
0.369895
0.36676
0.363883
0.361176
0.358682
0.356249
0.353758
0.350883
0.347325
0.343138
0.338494
0.33385
0.330039
0.328751
0.333138
0.348619
0.381539
0.432096
0.486456
0.510835
0.386781
0.373236
0.369895
0.366758
0.363879
0.361168
0.358687
0.356312
0.354022
0.351565
0.348701
0.345136
0.340952
0.336395
0.331896
0.328363
0.327512
0.332563
0.348988
0.382743
0.433964
0.488239
0.512525
0.38939
0.373236
0.369895
0.366756
0.363877
0.36116
0.358683
0.356327
0.354138
0.35191
0.349533
0.346685
0.343114
0.338992
0.334516
0.330188
0.326902
0.326462
0.332086
0.349254
0.383863
0.435292
0.48982
0.514669
0.390807
0.373236
0.369894
0.366755
0.363874
0.361154
0.358676
0.356322
0.35418
0.35207
0.349984
0.347647
0.344836
0.341327
0.337252
0.332897
0.328723
0.325703
0.325614
0.33174
0.349509
0.38459
0.436564
0.491116
0.516101
0.393419
0.373236
0.369894
0.366755
0.363872
0.361149
0.358669
0.356312
0.354188
0.35213
0.350214
0.348179
0.345951
0.343222
0.339744
0.335787
0.33156
0.327582
0.324771
0.324989
0.331444
0.349691
0.385325
0.437331
0.492483
0.518626
0.394784
0.373237
0.369893
0.366754
0.36387
0.361146
0.358662
0.356302
0.354182
0.352144
0.350317
0.348454
0.346603
0.34446
0.341803
0.338485
0.334647
0.330566
0.326708
0.324107
0.324595
0.331426
0.349952
0.385752
0.438257
0.493371
0.52027
0.504453
0.373237
0.369893
0.366754
0.363868
0.361143
0.358657
0.356292
0.354171
0.352137
0.350351
0.348578
0.346966
0.345183
0.343209
0.340763
0.337514
0.333806
0.329886
0.326296
0.323921
0.324626
0.331518
0.35018
0.386232
0.438693
0.49536
0.528966
0.710355
0.373237
0.369892
0.366754
0.363867
0.361141
0.358652
0.356285
0.354158
0.352123
0.350352
0.348622
0.347148
0.345584
0.344082
0.342294
0.339925
0.336965
0.333564
0.329897
0.326387
0.324071
0.324838
0.331763
0.350496
0.386587
0.439596
0.495925
0.545733
0.885357
0.373237
0.369892
0.366754
0.363866
0.36114
0.358648
0.356279
0.354148
0.352108
0.350338
0.348626
0.347222
0.345784
0.344603
0.343217
0.341672
0.339782
0.337055
0.333777
0.330201
0.326787
0.324527
0.325337
0.332264
0.35094
0.386997
0.440274
0.495635
0.558529
1.02674
0.373237
0.369891
0.366754
0.363865
0.361139
0.358645
0.356274
0.354139
0.352095
0.350319
0.348611
0.347236
0.345868
0.344885
0.343755
0.342827
0.341747
0.340041
0.337511
0.33442
0.33098
0.327674
0.325454
0.326286
0.333087
0.35153
0.387612
0.440019
0.494144
0.567973
1.14888
0.373238
0.369891
0.366754
0.363864
0.361138
0.358642
0.35627
0.354131
0.352084
0.350301
0.34859
0.34722
0.345891
0.345011
0.344044
0.343552
0.342992
0.342176
0.340779
0.338534
0.335734
0.332491
0.329243
0.32697
0.327643
0.334233
0.352381
0.388089
0.439107
0.490998
0.574432
1.24764
0.373238
0.369891
0.366754
0.363863
0.361138
0.358639
0.356267
0.354124
0.352074
0.350284
0.34857
0.347194
0.345881
0.345044
0.344184
0.343973
0.34378
0.343572
0.343169
0.342265
0.34044
0.337885
0.334746
0.331473
0.329031
0.329458
0.335741
0.353421
0.388442
0.437206
0.485619
0.578611
1.3202
0.373238
0.36989
0.366754
0.363862
0.361137
0.358637
0.356265
0.354118
0.352066
0.350271
0.348551
0.347166
0.345855
0.345032
0.344244
0.344188
0.344248
0.344472
0.344797
0.345065
0.344686
0.343222
0.340879
0.337796
0.334392
0.331704
0.331742
0.337623
0.354657
0.388392
0.433985
0.478859
0.581247
1.3752
0.373238
0.36989
0.366754
0.363861
0.361137
0.358635
0.356263
0.354113
0.35206
0.350259
0.348534
0.347141
0.345826
0.344999
0.34425
0.344268
0.344499
0.345025
0.345887
0.346987
0.347918
0.348095
0.34698
0.344813
0.341687
0.338075
0.334995
0.33453
0.339869
0.356007
0.38811
0.42969
0.472101
0.58349
1.41863
0.36989
0.373242
0.366755
0.36386
0.361137
0.358633
0.356261
0.354109
0.352054
0.350248
0.34852
0.347119
0.345798
0.344963
0.344227
0.344284
0.344614
0.345341
0.346587
0.348303
0.350189
0.351864
0.352615
0.35183
0.34975
0.346503
0.342534
0.338954
0.337793
0.342462
0.357632
0.387452
0.425255
0.465748
0.58576
1.45439
0.366755
0.3699
0.37325
0.36386
0.361137
0.358632
0.35626
0.354105
0.35205
0.350239
0.348508
0.347099
0.345772
0.344928
0.344193
0.344267
0.344652
0.34551
0.347019
0.349184
0.351797
0.354577
0.357049
0.358385
0.357856
0.355788
0.352265
0.347828
0.343539
0.341537
0.345718
0.359648
0.386594
0.42087
0.46003
0.588441
1.48504
0.363859
0.366772
0.36992
0.373258
0.361136
0.35863
0.356259
0.354101
0.352046
0.350231
0.348497
0.347083
0.34575
0.344897
0.344158
0.344237
0.344652
0.34559
0.347282
0.349769
0.352925
0.356562
0.360319
0.363635
0.365513
0.365171
0.362956
0.359041
0.353913
0.348772
0.346197
0.349681
0.361831
0.385735
0.416848
0.455031
0.591452
1.51211
0.361136
0.363881
0.366805
0.369942
0.373266
0.358629
0.356258
0.354098
0.352043
0.350224
0.348489
0.347068
0.34573
0.34487
0.344126
0.344205
0.344634
0.345623
0.347439
0.350162
0.353725
0.358022
0.362793
0.367602
0.371757
0.374132
0.373818
0.371335
0.366788
0.360814
0.355249
0.352035
0.353976
0.364193
0.385013
0.413131
0.450724
0.594934
1.53666
0.358628
0.361164
0.363925
0.36684
0.369963
0.373274
0.356258
0.354095
0.35204
0.350218
0.348481
0.347055
0.345713
0.344846
0.344097
0.344175
0.344612
0.345632
0.347533
0.350437
0.354312
0.359121
0.364695
0.370705
0.376589
0.381573
0.384306
0.383897
0.380887
0.375541
0.369325
0.363287
0.35846
0.358563
0.366711
0.384458
0.409814
0.447086
0.598653
1.55921
0.356257
0.358659
0.36122
0.363971
0.366876
0.369986
0.373282
0.354093
0.352038
0.350212
0.348475
0.347044
0.345699
0.344825
0.344072
0.344149
0.344591
0.345633
0.347595
0.350637
0.35477
0.359991
0.366212
0.373193
0.38049
0.387469
0.39317
0.396154
0.395371
0.391659
0.38631
0.379845
0.372087
0.365375
0.363405
0.369423
0.384223
0.406886
0.444007
0.602708
1.58025
0.354091
0.356293
0.358722
0.361277
0.364018
0.366913
0.370009
0.373291
0.352037
0.350207
0.34847
0.347034
0.345687
0.344807
0.34405
0.344125
0.344571
0.345631
0.347641
0.350791
0.35514
0.360725
0.367488
0.37528
0.38375
0.392381
0.400359
0.406698
0.409646
0.408306
0.404901
0.399599
0.391327
0.381532
0.372692
0.368446
0.372245
0.384298
0.4044
0.441385
0.606828
1.59989
0.352035
0.354128
0.356366
0.358788
0.361336
0.364066
0.366951
0.370032
0.3733
0.350203
0.348466
0.347024
0.345676
0.344791
0.344031
0.344105
0.344554
0.34563
0.34768
0.350921
0.35545
0.36136
0.368628
0.377127
0.386607
0.396645
0.406541
0.415459
0.422148
0.424886
0.424205
0.421229
0.414083
0.403622
0.391504
0.380324
0.373668
0.375107
0.384534
0.402287
0.439211
0.611147
1.61845
0.350198
0.352077
0.354207
0.356442
0.358855
0.361396
0.364115
0.366989
0.370057
0.373309
0.348462
0.347016
0.345667
0.344777
0.344014
0.344087
0.34454
0.345629
0.347715
0.351036
0.355722
0.361914
0.369662
0.378855
0.389245
0.400529
0.412092
0.423224
0.4328
0.439679
0.443648
0.443831
0.439016
0.429569
0.416575
0.401885
0.388189
0.379041
0.378007
0.385008
0.400547
0.437381
0.615392
1.63583
0.34846
0.350239
0.352163
0.354288
0.35652
0.358925
0.361458
0.364166
0.367029
0.370082
0.373318
0.347008
0.34566
0.344765
0.344
0.344072
0.344528
0.34563
0.347747
0.35114
0.355967
0.362412
0.370593
0.380477
0.391802
0.40425
0.417327
0.430418
0.442496
0.452598
0.46139
0.466927
0.465253
0.458032
0.445857
0.43003
0.412558
0.396205
0.384503
0.380939
0.38567
0.399092
0.435891
0.619736
1.65233
0.347002
0.348503
0.350327
0.352253
0.354371
0.3566
0.358996
0.361522
0.364219
0.36707
0.370107
0.373328
0.345654
0.344754
0.343988
0.344059
0.344518
0.345631
0.347777
0.351236
0.35619
0.362866
0.371444
0.38197
0.39427
0.407969
0.422501
0.437421
0.45175
0.464671
0.477259
0.488527
0.492492
0.488217
0.478039
0.462754
0.443833
0.423407
0.404299
0.389999
0.383902
0.386508
0.397955
0.434659
0.62391
1.66775
0.34565
0.34704
0.348595
0.350417
0.352344
0.354457
0.356682
0.359069
0.361588
0.364272
0.367112
0.370134
0.373337
0.344743
0.343977
0.344048
0.34451
0.345633
0.347805
0.351323
0.356394
0.363282
0.372228
0.383353
0.396585
0.411646
0.427808
0.44454
0.461019
0.476527
0.492506
0.508362
0.51856
0.52009
0.512487
0.498822
0.480069
0.457831
0.434325
0.412396
0.395483
0.386866
0.38739
0.397069
0.433686
0.628121
1.68241
0.344734
0.345688
0.347125
0.34869
0.35051
0.352439
0.354545
0.356766
0.359145
0.361655
0.364328
0.367155
0.370161
0.373347
0.343967
0.344038
0.344502
0.345635
0.347831
0.351403
0.356581
0.363665
0.372953
0.384639
0.398761
0.415156
0.433159
0.452023
0.470691
0.488733
0.507916
0.528007
0.54313
0.551254
0.549444
0.537815
0.520152
0.497617
0.471884
0.445212
0.420433
0.400914
0.389848
0.388314
0.396399
0.432893
0.632097
1.69605
0.343959
0.34476
0.345769
0.347213
0.348789
0.350607
0.352537
0.354637
0.356853
0.359222
0.361724
0.364384
0.367198
0.370187
0.373356
0.34403
0.344496
0.345638
0.347854
0.351477
0.356751
0.364017
0.373621
0.385836
0.400805
0.418488
0.438344
0.459737
0.481085
0.501788
0.524226
0.548503
0.568203
0.581409
0.586364
0.580281
0.563943
0.541826
0.515232
0.48587
0.455982
0.428353
0.40626
0.392819
0.389275
0.395898
0.432295
0.63608
1.70904
0.344025
0.343971
0.34482
0.345853
0.347305
0.348891
0.350706
0.352637
0.35473
0.356943
0.359302
0.361795
0.364442
0.367242
0.370213
0.373365
0.344489
0.345639
0.347875
0.351544
0.356907
0.364338
0.374236
0.386945
0.402719
0.421645
0.443334
0.467347
0.491988
0.516125
0.542133
0.570895
0.595199
0.613118
0.62306
0.623657
0.612324
0.590613
0.563648
0.532768
0.499681
0.466563
0.436107
0.411491
0.395756
0.390263
0.395544
0.431816
0.639788
1.72105
0.344486
0.344013
0.343999
0.34488
0.345943
0.3474
0.348997
0.350809
0.352741
0.354827
0.357034
0.359384
0.361867
0.3645
0.367284
0.370239
0.373374
0.345639
0.347894
0.351604
0.357049
0.364633
0.3748
0.387971
0.404506
0.424624
0.448119
0.474766
0.502873
0.531498
0.562322
0.596248
0.625659
0.648422
0.662914
0.668027
0.662932
0.645323
0.617595
0.585439
0.550095
0.513227
0.476891
0.443658
0.416585
0.398639
0.39127
0.395304
0.431483
0.64349
1.73253
0.345644
0.344446
0.343986
0.344036
0.344944
0.346039
0.347498
0.349107
0.350915
0.352847
0.354926
0.357129
0.359468
0.361939
0.364556
0.367325
0.370263
0.373382
0.347908
0.351659
0.357179
0.364901
0.375317
0.388916
0.406166
0.427421
0.452682
0.481941
0.513604
0.547227
0.584536
0.625683
0.661349
0.689835
0.709095
0.718047
0.716382
0.704046
0.679066
0.644691
0.607046
0.567111
0.526437
0.486918
0.450972
0.421521
0.401454
0.392287
0.395163
0.431223
0.646892
1.74306
0.34793
0.345565
0.344355
0.343942
0.344088
0.345012
0.346139
0.347601
0.34922
0.351024
0.352957
0.355029
0.357225
0.359551
0.362009
0.36461
0.367365
0.370287
0.373391
0.351706
0.357295
0.365146
0.37579
0.389786
0.407703
0.430037
0.457004
0.488829
0.524134
0.563133
0.60768
0.658998
0.704562
0.740854
0.766128
0.778885
0.779273
0.768309
0.746914
0.713377
0.671736
0.62834
0.58373
0.539253
0.496608
0.458028
0.426286
0.404189
0.393303
0.395099
0.431075
0.650292
1.75315
0.351762
0.347784
0.345373
0.344259
0.343904
0.344151
0.345083
0.346246
0.347708
0.349337
0.351137
0.35307
0.355134
0.35732
0.359633
0.362076
0.364663
0.367403
0.370311
0.373399
0.357398
0.365366
0.376221
0.390583
0.409122
0.432473
0.461077
0.495403
0.53442
0.579059
0.631279
0.694936
0.756503
0.806844
0.84092
0.858402
0.859768
0.847388
0.82399
0.791456
0.748106
0.698593
0.649214
0.599885
0.551632
0.505931
0.464806
0.430867
0.406834
0.394313
0.395109
0.430968
0.653386
1.76123
0.357508
0.351534
0.34742
0.345174
0.344175
0.343873
0.344223
0.345158
0.346356
0.347819
0.349458
0.351254
0.353185
0.355238
0.357413
0.359712
0.362142
0.364715
0.367441
0.370333
0.373406
0.365564
0.376611
0.391313
0.410428
0.434735
0.464897
0.501646
0.544404
0.594801
0.655115
0.733666
0.816976
0.891961
0.943352
0.967894
0.969813
0.953057
0.922781
0.883421
0.837538
0.783106
0.725143
0.669586
0.61552
0.563544
0.514871
0.471297
0.435257
0.409383
0.395309
0.395143
0.430959
0.656062
1.76802
0.365762
0.357172
0.350934
0.347042
0.344996
0.3441
0.343851
0.344301
0.345239
0.346471
0.347935
0.349582
0.351375
0.353299
0.35534
0.357503
0.359788
0.362206
0.364765
0.367477
0.370355
0.373414
0.376964
0.391977
0.411629
0.436828
0.468467
0.507551
0.554024
0.610191
0.679202
0.775776
0.886614
0.995038
1.07855
1.12043
1.12413
1.10085
1.05856
1.00511
0.946293
0.884927
0.818216
0.751283
0.689391
0.630598
0.574967
0.523416
0.477493
0.439452
0.41183
0.39629
0.395209
0.430971
0.658255
1.77536
0.377306
0.365289
0.356238
0.350312
0.346696
0.344832
0.344034
0.343838
0.344385
0.345328
0.34659
0.348056
0.349709
0.351495
0.35341
0.35544
0.35759
0.359863
0.362268
0.364814
0.367512
0.370377
0.373421
0.392581
0.412726
0.438762
0.471793
0.513112
0.56323
0.625136
0.703692
0.82144
0.964643
1.11298
1.23881
1.31746
1.33583
1.30667
1.24899
1.17449
1.09327
1.01197
0.933278
0.853259
0.77692
0.708577
0.645091
0.58589
0.531561
0.483392
0.44345
0.414173
0.39725
0.39529
0.430999
0.660694
1.78335
0.393151
0.376661
0.363889
0.355276
0.349735
0.346372
0.34468
0.343978
0.343836
0.344472
0.345424
0.346713
0.348182
0.349835
0.351612
0.353518
0.355536
0.357675
0.359936
0.362329
0.364861
0.367547
0.370397
0.373425
0.413733
0.440543
0.474884
0.518331
0.571994
0.639615
0.728684
0.870128
1.04865
1.24057
1.41471
1.5419
1.60005
1.58157
1.50923
1.40978
1.29801
1.1856
1.07959
0.982161
0.888039
0.801963
0.727105
0.658982
0.596307
0.539305
0.488995
0.447251
0.41641
0.398061
0.395371
0.431063
0.663317
1.79202
0.41466
0.392299
0.374614
0.362454
0.354374
0.349185
0.346068
0.34454
0.343933
0.343846
0.344561
0.345529
0.346838
0.348309
0.349958
0.351727
0.353623
0.355631
0.357758
0.360007
0.362387
0.364907
0.36758
0.370408
0.373425
0.442188
0.477748
0.523214
0.580305
0.653636
0.754129
0.9208
1.13564
1.37217
1.59739
1.77955
1.89153
1.91493
1.84833
1.72478
1.57829
1.42595
1.28025
1.14814
1.0311
0.922354
0.826334
0.744945
0.672263
0.606218
0.546653
0.494307
0.450857
0.41826
0.398762
0.395476
0.431157
0.666257
1.80151
0.443673
0.413556
0.389358
0.372529
0.361104
0.35351
0.348658
0.345784
0.344411
0.343898
0.343873
0.344651
0.345643
0.346962
0.348435
0.350078
0.351839
0.353725
0.355723
0.357839
0.360076
0.362444
0.364952
0.367597
0.370408
0.373425
0.480411
0.527771
0.588168
0.667209
0.779845
0.972267
1.22292
1.50326
1.77975
2.01986
2.19343
2.27552
2.25181
2.12779
1.94699
1.75003
1.55534
1.37543
1.21667
1.07961
0.956003
0.849959
0.762076
0.684928
0.615631
0.553612
0.499331
0.453821
0.419837
0.399544
0.395608
0.431309
0.669409
1.81179
0.482772
0.442262
0.409385
0.386388
0.370563
0.359805
0.352677
0.34815
0.34552
0.344293
0.343869
0.343926
0.344742
0.345761
0.347083
0.348558
0.350194
0.351949
0.353825
0.355812
0.357917
0.360143
0.3625
0.364974
0.367597
0.370408
0.373425
0.532036
0.595601
0.680341
0.805575
1.02345
1.30848
1.63071
1.95699
2.25523
2.4942
2.64462
2.68376
2.60216
2.41311
2.17073
1.92134
1.68371
1.46959
1.28427
1.12726
0.988807
0.872775
0.778479
0.696982
0.624554
0.560191
0.503451
0.456338
0.421571
0.400419
0.39578
0.431501
0.672955
1.82308
0.535775
0.480999
0.436393
0.405209
0.383579
0.368665
0.358548
0.351873
0.347663
0.345274
0.344185
0.343831
0.343998
0.344832
0.345881
0.347202
0.348679
0.350308
0.352056
0.353921
0.355899
0.357993
0.360208
0.362527
0.364974
0.367597
0.370408
0.373425
0.602648
0.693047
0.831057
1.07348
1.39095
1.75259
2.12613
2.48071
2.78553
3.00941
3.12351
3.10784
2.95897
2.69885
2.39199
2.0894
1.80915
1.56149
1.35024
1.17367
1.0206
0.894727
0.794149
0.708433
0.632998
0.565583
0.506944
0.459096
0.423483
0.401399
0.395992
0.431774
0.676762
1.83529
0.608818
0.533544
0.47276
0.430575
0.401251
0.380862
0.366823
0.357331
0.351099
0.3472
0.345044
0.344089
0.343797
0.344082
0.344921
0.345999
0.347319
0.348797
0.350419
0.352159
0.354016
0.355983
0.358067
0.36024
0.362527
0.364974
0.367597
0.370408
0.373425
0.705343
0.856074
1.12173
1.46946
1.8678
2.28554
2.69333
3.06187
3.36016
3.5562
3.62167
3.54044
3.31637
2.98067
2.60778
2.25217
1.93026
1.6502
1.41399
1.21853
1.05125
0.915776
0.809084
0.719289
0.639924
0.570153
0.510764
0.462121
0.425591
0.4025
0.396261
0.432105
0.681072
1.84871
0.716192
0.606038
0.521884
0.464685
0.425051
0.397416
0.378219
0.365035
0.356155
0.350357
0.346764
0.344836
0.344005
0.343776
0.344169
0.345013
0.346117
0.347434
0.348913
0.350527
0.352261
0.354107
0.356065
0.358103
0.36024
0.362527
0.364974
0.367597
0.370408
0.373421
0.880423
1.1678
1.54353
1.97578
2.43439
2.89151
3.3198
3.69003
3.96988
4.12605
4.1314
3.97502
3.66936
3.25517
2.81589
2.40821
2.04609
1.7351
1.47511
1.2616
1.08066
0.935894
0.823284
0.72821
0.645798
0.57515
0.514946
0.465441
0.427919
0.403739
0.39659
0.432553
0.685709
1.86317
0.712835
0.901872
0.588884
0.51068
0.457002
0.419691
0.39368
0.37565
0.363303
0.355022
0.349649
0.346357
0.344647
0.343935
0.343768
0.344258
0.345106
0.346232
0.347547
0.349026
0.350633
0.352359
0.354197
0.356106
0.358103
0.36024
0.362527
0.364974
0.367597
0.370397
0.373414
1.21139
1.61296
2.07634
2.57242
3.07463
3.5576
3.99475
4.35573
4.60597
4.71083
4.6454
4.40569
4.0138
3.51974
3.01477
2.5566
2.15607
1.81578
1.53334
1.30273
1.10876
0.955063
0.834982
0.735784
0.652226
0.580619
0.519527
0.469088
0.430496
0.405134
0.397002
0.433086
0.690994
1.87908
0.685945
0.899027
1.24896
0.572916
0.500026
0.449537
0.414463
0.390043
0.373156
0.36163
0.353935
0.348978
0.345981
0.344481
0.343882
0.343774
0.344346
0.345202
0.346344
0.347659
0.349135
0.350736
0.352455
0.354241
0.356106
0.358103
0.36024
0.362527
0.364974
0.36758
0.370376
0.373406
1.67765
2.16957
2.69975
3.24268
3.77476
4.2722
4.7081
5.04989
5.25997
5.30264
5.15679
4.8272
4.34624
3.77242
3.20341
2.69683
2.25988
1.89201
1.58851
1.34181
1.1355
0.970874
0.844929
0.744083
0.659266
0.586609
0.52455
0.4731
0.433349
0.406711
0.397501
0.433781
0.696692
1.89613
0.661358
0.855758
1.24699
1.73278
0.55794
0.489658
0.442256
0.409369
0.386508
0.370743
0.360019
0.352896
0.348348
0.345645
0.34434
0.343844
0.343794
0.344432
0.3453
0.346454
0.347769
0.349242
0.350837
0.352502
0.35424
0.356106
0.358103
0.36024
0.362527
0.364952
0.367546
0.370355
0.373398
2.2556
2.81677
3.39613
3.97161
4.52199
5.02429
5.45025
5.76381
5.92358
5.89372
5.65913
5.235
4.66397
4.01188
3.38124
2.82865
2.3574
1.96372
1.64056
1.3788
1.15751
0.984328
0.855844
0.753184
0.666984
0.593175
0.530063
0.477517
0.436515
0.408494
0.398119
0.434599
0.703237
1.91489
0.638711
0.815143
1.18296
1.73271
2.32855
0.543484
0.47953
0.435158
0.404414
0.383083
0.368414
0.358474
0.351915
0.347775
0.345352
0.34422
0.343817
0.343831
0.344514
0.3454
0.346561
0.347877
0.349347
0.350887
0.352502
0.35424
0.356106
0.358103
0.36024
0.362499
0.364907
0.367511
0.370332
0.37339
2.92389
3.53583
4.14913
4.74493
5.30399
5.80341
6.21219
6.48906
6.58859
6.47661
6.14656
5.62526
4.96498
4.23727
3.54799
2.95204
2.44867
2.03095
1.68949
1.40909
1.17621
0.999097
0.867832
0.763174
0.675451
0.600379
0.536118
0.482385
0.440031
0.410516
0.398862
0.435645
0.710308
1.93484
0.617324
0.777156
1.12015
1.65009
2.33159
3.01404
0.529422
0.469651
0.428258
0.39961
0.379776
0.366177
0.35701
0.351016
0.347263
0.345102
0.344118
0.343791
0.343886
0.344594
0.345501
0.346665
0.347985
0.349398
0.350887
0.352502
0.35424
0.356106
0.358103
0.360207
0.362443
0.36486
0.367476
0.37031
0.373382
3.66255
4.3088
4.94276
5.54872
6.10916
6.60012
6.98561
7.21748
7.24691
7.04419
6.61391
5.99497
5.24794
4.4482
3.70369
3.06715
2.53386
2.0938
1.7293
1.43472
1.1967
1.01532
0.881008
0.774149
0.68475
0.608291
0.542775
0.487757
0.443944
0.412811
0.399779
0.436867
0.71851
1.95682
0.59694
0.741314
1.05878
1.56718
2.23244
3.02066
3.76786
0.515733
0.460045
0.42157
0.394969
0.376596
0.364052
0.355663
0.350209
0.346803
0.344885
0.344033
0.343765
0.343951
0.344672
0.345602
0.34677
0.348038
0.349396
0.350887
0.352502
0.35424
0.356106
0.358066
0.360142
0.362386
0.364812
0.367439
0.370286
0.373374
4.45196
5.11789
5.76127
6.36985
6.92728
7.40623
7.76285
7.94102
7.89057
7.58989
7.05686
6.342
5.51208
4.64461
3.84854
3.17425
2.61318
2.14468
1.76286
1.46268
1.21914
1.03314
0.8955
0.786219
0.694973
0.61699
0.550102
0.49369
0.448303
0.415426
0.400877
0.438326
0.727368
1.97987
0.577445
0.707528
0.998608
1.48407
2.13202
2.90652
3.7772
4.56857
0.502431
0.450737
0.415112
0.390503
0.373572
0.362094
0.35445
0.349483
0.346395
0.344699
0.343962
0.343747
0.344022
0.344751
0.345707
0.346819
0.348036
0.349396
0.350887
0.352502
0.354241
0.356065
0.357991
0.360074
0.362327
0.364763
0.367402
0.370262
0.373365
5.27244
5.94533
6.58968
7.19699
7.75009
8.21484
8.53658
8.65155
8.51181
8.10786
7.47211
6.66496
5.75714
4.82674
3.98293
3.27367
2.67717
2.18743
1.79931
1.49316
1.24373
1.05273
0.911451
0.799503
0.706223
0.626562
0.558175
0.500252
0.453169
0.418402
0.402225
0.439912
0.737749
2.00969
0.558779
0.675834
0.939851
1.40037
2.03024
2.79064
3.64859
4.5781
5.39448
0.489547
0.441761
0.408903
0.386258
0.370784
0.360327
0.353357
0.348834
0.346036
0.34454
0.343904
0.343738
0.344096
0.344835
0.345758
0.346813
0.348037
0.349396
0.350887
0.352502
0.354196
0.355982
0.357915
0.360005
0.362266
0.364713
0.367363
0.370238
0.373356
6.10415
6.77407
7.41519
8.02138
8.57146
9.0199
9.29945
9.34078
9.10331
8.5933
7.85734
6.96323
5.98335
4.99508
4.10731
3.35366
2.7308
2.23369
1.83887
1.52638
1.27065
1.07427
0.929017
0.814136
0.718613
0.637108
0.56708
0.507519
0.458607
0.42181
0.403825
0.441836
0.750951
2.04519
0.540899
0.646264
0.882973
1.31609
1.92663
2.67269
3.51853
4.4343
5.3998
6.22435
0.477117
0.433146
0.403003
0.382344
0.368266
0.358733
0.352374
0.348253
0.345721
0.344404
0.343858
0.34374
0.344181
0.34487
0.345755
0.346812
0.348037
0.349396
0.350887
0.352454
0.354106
0.355896
0.357836
0.359934
0.362204
0.364662
0.367324
0.370213
0.373347
6.92776
7.58955
8.22807
8.83748
9.38673
9.81571
10.0437
10.0003
9.6585
9.0425
8.21128
7.23691
6.19128
5.15021
4.20707
3.42057
2.7887
2.28372
1.88176
1.56254
1.30011
1.09793
0.948366
0.830267
0.732273
0.648738
0.576913
0.515575
0.464698
0.425703
0.40578
0.4444
0.768294
2.0805
0.523786
0.618792
0.828571
1.23155
1.82087
2.55216
3.38633
4.29031
5.23846
6.21954
7.03799
0.465184
0.424978
0.397566
0.378811
0.365994
0.357296
0.351491
0.347736
0.345445
0.344285
0.343825
0.343765
0.344222
0.344856
0.345757
0.346812
0.348036
0.349398
0.350837
0.352357
0.354013
0.355809
0.357755
0.359861
0.36214
0.364609
0.367283
0.370187
0.373337
7.72684
8.3806
9.02304
9.64154
10.1923
10.5963
10.7608
10.622
10.1718
9.45307
8.53368
7.48663
6.38171
5.27406
4.29031
3.49265
2.85115
2.33776
1.92821
1.60187
1.33233
1.12393
0.96968
0.848056
0.747345
0.661576
0.587784
0.524519
0.471525
0.430182
0.408532
0.447999
0.787421
2.1152
0.507433
0.593326
0.777291
1.14731
1.71291
2.42844
3.25153
4.14493
5.07948
6.03606
7.01595
7.81669
0.453874
0.417471
0.392663
0.375624
0.363944
0.356002
0.350699
0.347276
0.345202
0.344187
0.343821
0.343766
0.344214
0.344854
0.345757
0.346813
0.348038
0.349346
0.350734
0.352258
0.353918
0.355719
0.357672
0.359786
0.362074
0.364555
0.367241
0.37016
0.373328
8.48824
9.1423
9.79575
10.4306
10.9853
11.354
11.4419
11.198
10.639
9.82407
8.82517
7.71341
6.53271
5.37706
4.37974
3.57018
2.91841
2.39606
1.97845
1.64458
1.3675
1.15246
0.993152
0.867678
0.763985
0.675763
0.599814
0.534461
0.479205
0.436272
0.412423
0.45216
0.808461
2.14897
0.491959
0.569701
0.729739
1.06416
1.6029
2.30112
3.11331
3.9979
4.92096
5.85933
6.80335
7.76794
8.54578
0.443495
0.410718
0.388243
0.37275
0.362095
0.354837
0.349988
0.346864
0.344992
0.344132
0.343807
0.343741
0.344218
0.344854
0.345755
0.346819
0.347984
0.34924
0.35063
0.352156
0.353821
0.355627
0.357587
0.359709
0.362007
0.364499
0.367198
0.370133
0.373318
9.20424
9.86253
10.5349
11.1947
11.7589
12.0824
12.0768
11.7214
11.0579
10.1558
9.087
7.89156
6.65764
5.48725
4.47563
3.65346
2.99074
2.45885
2.0327
1.69087
1.40584
1.18373
1.01898
0.889318
0.782361
0.691449
0.61315
0.545535
0.489443
0.444317
0.416965
0.457149
0.831596
2.18152
0.477746
0.547897
0.686428
0.9831
1.49118
2.16997
2.97084
3.84818
4.76289
5.68637
6.60424
7.51826
8.45492
9.21988
0.434183
0.404644
0.384262
0.37016
0.360431
0.353789
0.349349
0.3465
0.344852
0.344089
0.343777
0.343741
0.344218
0.344856
0.345758
0.346769
0.347875
0.349132
0.350524
0.352052
0.353721
0.355533
0.3575
0.359631
0.361938
0.364442
0.367154
0.370107
0.373309
9.87138
10.5491
11.256
11.9404
12.5049
12.7682
12.6556
12.1877
11.4278
10.4498
9.29015
8.03791
6.79049
5.60485
4.57825
3.74274
3.06838
2.52635
2.09115
1.74094
1.44754
1.21794
1.04736
0.913167
0.802648
0.708811
0.62794
0.560166
0.502555
0.453296
0.422338
0.462967
0.857024
2.21257
0.464968
0.528225
0.647495
0.905343
1.37836
2.0349
2.82344
3.69463
4.60408
5.51736
6.41405
7.29064
8.16059
9.05743
9.82306
0.425842
0.399183
0.380678
0.367827
0.358931
0.352843
0.34878
0.346229
0.34476
0.344048
0.343779
0.343741
0.344214
0.34487
0.345706
0.346663
0.347766
0.349022
0.350415
0.351945
0.353619
0.355437
0.35741
0.35955
0.361867
0.364384
0.367111
0.370081
0.373299
10.4837
11.2015
11.9634
12.6723
13.2196
13.3994
13.1698
12.5941
11.75
10.6741
9.45546
8.19224
6.93125
5.72998
4.68777
3.83822
3.15155
2.59877
2.15399
1.79496
1.49277
1.25528
1.07848
0.939414
0.825039
0.728008
0.64741
0.578632
0.516813
0.463341
0.428559
0.469971
0.884993
2.24179
0.453511
0.510661
0.614013
0.833107
1.26538
1.89601
2.67047
3.53606
4.44309
5.35094
6.23299
7.07914
7.8976
8.71211
9.56963
10.3459
0.418375
0.394275
0.377454
0.365726
0.357576
0.351999
0.348342
0.34606
0.344704
0.344053
0.343779
0.343741
0.344222
0.344835
0.3456
0.346558
0.347655
0.348909
0.350304
0.351835
0.353514
0.355338
0.357318
0.359468
0.361795
0.364327
0.367069
0.370056
0.37329
11.0404
11.825
12.6598
13.3912
13.8941
13.9629
13.613
12.941
11.9908
10.8544
9.62778
8.3541
7.07976
5.86264
4.80431
3.94007
3.2404
2.67624
2.22136
1.85305
1.54168
1.29589
1.11252
0.968245
0.849693
0.753194
0.671778
0.598424
0.53232
0.474523
0.435892
0.478132
0.915743
2.26892
0.443264
0.494886
0.585751
0.769145
1.15442
1.75366
2.51142
3.37126
4.2783
5.18541
6.05934
6.88379
7.65991
8.40704
9.15957
9.98247
10.7872
0.411691
0.389866
0.374554
0.363829
0.356364
0.351335
0.348079
0.345979
0.344712
0.344053
0.343777
0.343766
0.344181
0.344749
0.345498
0.34645
0.347543
0.348793
0.35019
0.351724
0.353407
0.355237
0.357224
0.359384
0.361723
0.364271
0.367028
0.370032
0.373282
11.5468
12.4301
13.3496
14.0851
14.5126
14.4459
13.9826
13.1929
12.1809
11.0394
9.80603
8.52283
7.23562
6.00269
4.92788
4.04836
3.33505
2.75888
2.29335
1.91531
1.59435
1.3399
1.14961
0.999786
0.881866
0.784442
0.697622
0.619594
0.549141
0.487022
0.444334
0.487944
0.949614
2.29367
0.434122
0.480686
0.561621
0.714826
1.05006
1.6095
2.34592
3.19896
4.10791
5.01879
5.89113
6.70221
7.44727
8.13815
8.80428
9.4921
10.2822
11.145
0.405709
0.385906
0.371938
0.36213
0.355396
0.350946
0.347972
0.345991
0.344712
0.344048
0.343807
0.343765
0.344095
0.34467
0.345396
0.34634
0.34743
0.348675
0.350074
0.351609
0.353297
0.355133
0.357128
0.359301
0.361653
0.364217
0.366988
0.370008
0.373273
12.0128
13.0314
14.0333
14.7386
15.0532
14.8404
14.2409
13.387
12.3716
11.227
9.98874
8.69741
7.39821
6.14981
5.05833
4.16305
3.4355
2.84672
2.36999
1.98176
1.65082
1.38735
1.18982
1.04062
0.921325
0.817191
0.724886
0.642144
0.567378
0.500885
0.454251
0.499375
0.986859
2.31585
0.425981
0.467913
0.540736
0.669409
0.95558
1.46854
2.17508
3.01794
3.9299
4.84874
5.72603
6.53206
7.25625
7.90503
8.49924
9.07766
9.69797
10.4543
11.4178
0.400354
0.382342
0.369598
0.360759
0.354837
0.350805
0.347988
0.34599
0.344703
0.344089
0.343822
0.34374
0.34402
0.344591
0.345296
0.346227
0.347315
0.348554
0.349955
0.351493
0.353184
0.355028
0.357033
0.35922
0.361586
0.364164
0.366949
0.369985
0.373265
12.4562
13.6374
14.7065
15.3449
15.4855
15.1013
14.4326