/*--------------------------------*- C++ -*----------------------------------*\
  =========                 |
  \\      /  F ield         | OpenFOAM: The Open Source CFD Toolbox
   \\    /   O peration     | Website:  https://openfoam.org
    \\  /    A nd           | Version:  8
     \\/     M anipulation  |
\*---------------------------------------------------------------------------*/
FoamFile
{
    version     2.0;
    format      ascii;
    class       volScalarField;
    location    "0.1";
    object      p;
}
// * * * * * * * * * * * * * * * * * * * * * * * * * * * * * * * * * * * * * //

dimensions      [0 2 -2 0 0 0 0];

internalField   nonuniform List<scalar> 
15677
(
79.8441
79.4875
79.075
79.552
79.0632
79.0776
79.5271
79.0904
79.087
78.9723
79.5017
79.0918
79.0873
78.9813
78.8825
79.4799
79.094
79.0871
78.9805
78.8901
78.7888
79.4564
79.0963
79.0868
78.9816
78.89
78.7954
78.6776
79.4313
79.0989
79.0859
78.982
78.891
78.7954
78.6834
78.5453
79.4051
79.102
79.0845
78.982
78.8915
78.7963
78.6835
78.5504
78.385
79.3778
79.104
79.0826
78.9819
78.892
78.7969
78.6845
78.5506
78.3894
78.1894
79.3492
79.1054
79.0799
78.9814
78.8923
78.7975
78.6852
78.5517
78.3897
78.1931
77.9511
79.3197
79.107
79.0766
78.9811
78.8927
78.7982
78.686
78.5525
78.3909
78.1936
77.9541
77.6624
79.2897
79.108
79.0732
78.9812
78.8932
78.799
78.687
78.5536
78.392
78.195
77.9548
77.6646
77.3152
79.26
79.1079
79.0696
78.9815
78.8942
78.8002
78.6883
78.5551
78.3935
78.1964
77.9564
77.6655
77.3167
76.9018
79.2332
79.1065
79.066
78.9822
78.8957
78.802
78.6904
78.5571
78.3955
78.1983
77.9582
77.6674
77.3177
76.9023
76.4146
79.2102
79.1042
79.0623
78.9835
78.8982
78.8049
78.6934
78.5601
78.3984
78.2011
77.9608
77.6697
77.3199
76.9036
76.4141
75.8466
79.19
79.1021
79.0592
78.9853
78.9019
78.8093
78.698
78.5646
78.4026
78.205
77.9644
77.673
77.3228
76.9061
76.4156
75.845
75.1918
79.1724
79.1
79.0569
78.9876
78.907
78.8155
78.7048
78.5713
78.409
78.2109
77.9697
77.6778
77.3271
76.9098
76.4185
75.8468
75.189
74.4453
79.1571
79.0979
79.0551
78.9903
78.9133
78.8241
78.7143
78.581
78.4183
78.2195
77.9775
77.6847
77.3332
76.9152
76.4231
75.8502
75.191
74.4411
73.6033
79.1438
79.096
79.0538
78.9934
78.9202
78.8346
78.7273
78.5946
78.4317
78.2322
77.9891
77.695
77.3422
76.9229
76.4297
75.8556
75.1949
74.4434
73.5976
72.6639
79.1324
79.0942
79.0531
78.9969
78.9279
78.846
78.7432
78.6133
78.4506
78.2503
78.0059
77.71
77.3553
76.9342
76.4393
75.8637
75.2013
74.4477
73.6002
72.6566
71.6267
79.1234
79.0925
79.0528
79.0009
78.9361
78.8585
78.7605
78.636
78.4764
78.2758
78.0299
77.7319
77.3745
76.9507
76.4532
75.8753
75.2109
74.4552
73.6051
72.6594
71.6176
70.4932
79.1164
79.0908
79.0531
79.0051
78.9449
78.872
78.7794
78.6607
78.5078
78.3106
78.0635
77.7631
77.4024
76.9748
76.4736
75.8922
75.2247
74.4664
73.6136
72.6647
71.6208
70.4823
69.2674
79.1111
79.0892
79.0536
79.0098
78.9542
78.8863
78.7997
78.6877
78.542
78.353
78.1096
77.8067
77.4422
77.0098
76.5034
75.9169
75.2448
74.4826
73.6264
72.6743
71.6264
70.4857
69.2544
67.9543
79.1068
79.0879
79.0544
79.0144
78.9638
78.9014
78.8212
78.7167
78.5794
78.3992
78.1657
77.8665
77.4979
77.0597
76.5465
75.953
75.2743
74.5061
73.6449
72.6886
71.6369
70.4915
69.2579
67.9393
66.567
79.1035
79.0868
79.0554
79.0188
78.9733
78.917
78.8437
78.7475
78.6196
78.4498
78.2269
77.9394
77.5742
77.1295
76.608
76.0052
75.3173
74.5404
73.6719
72.7095
71.6527
70.5028
69.2638
67.9428
66.5494
65.1359
79.1008
79.0859
79.0563
79.0228
78.9821
78.9323
78.8671
78.7797
78.6623
78.5043
78.2941
78.0191
77.6673
77.2252
76.694
76.0797
75.3795
74.5908
73.7114
72.7398
71.6757
70.5198
69.2756
67.9482
66.5501
65.082
63.6017
79.0986
79.0852
79.0573
79.0265
78.99
78.9463
78.8899
78.813
78.7069
78.5621
78.3664
78.1065
77.7692
77.3422
76.8122
76.1841
75.4684
74.6637
73.7692
72.7843
71.7091
70.5445
69.2933
67.96
66.5541
65.0844
63.536
61.9501
79.0968
79.0846
79.0582
79.0299
78.9971
78.959
78.9109
78.8456
78.7532
78.6227
78.4432
78.2008
77.8812
77.4705
76.9569
76.3279
75.5931
74.768
73.8533
72.8497
71.7583
70.5806
69.3192
67.9777
66.5641
65.0844
63.5384
61.9209
60.2532
79.0954
79.0842
79.059
79.0329
79.0035
78.9704
78.9298
78.8756
78.7985
78.6854
78.5237
78.301
78.0022
77.6117
77.1158
76.5041
75.7651
74.9147
73.9738
72.945
71.8309
70.6339
69.357
68.0038
66.5801
65.0913
63.5319
61.913
60.2431
58.5185
79.0941
79.0838
79.0597
79.0357
79.0092
78.9806
78.9467
78.9026
78.84
78.7468
78.6071
78.4062
78.1309
77.7644
77.2911
76.698
75.9765
75.1174
74.1436
73.082
71.9371
70.713
69.4135
68.0424
66.6047
65.1044
63.538
61.9028
60.2261
58.5142
56.5705
79.0931
79.0834
79.0602
79.0382
79.0143
78.9897
78.9619
78.9269
78.8775
78.8033
78.689
78.5154
78.2661
77.9271
77.481
76.9124
76.2097
75.3674
74.3792
73.2758
72.0905
70.8295
69.4981
68.1008
66.6423
65.1261
63.5493
61.9102
60.2168
58.4951
56.5693
54.3892
79.0922
79.0832
79.0607
79.0405
79.0188
78.9978
78.9754
78.9485
78.9112
78.8543
78.7642
78.6226
78.4067
78.0984
77.6838
77.1451
76.4681
75.6438
74.6704
73.5454
72.3083
70.9984
69.6234
68.1891
66.7006
65.1611
63.5689
61.9208
60.2244
58.4878
56.5513
54.39
52.2
79.0915
79.083
79.0612
79.0426
79.0228
79.0049
78.9874
78.9678
78.9413
78.9001
78.8323
78.7213
78.545
78.2767
77.8976
77.3941
76.7492
75.9509
74.9935
73.8799
72.6123
71.2394
69.8064
68.3216
66.7908
65.2178
63.6018
61.9398
60.2348
58.4938
56.5442
54.3733
52.2022
50.0382
79.0909
79.0828
79.0617
79.0444
79.0264
79.0113
78.998
78.9849
78.9681
78.941
78.8934
78.8106
78.6723
78.4524
78.1206
77.6572
77.0508
76.2859
75.3534
74.2522
72.9911
71.5774
70.0691
68.5168
66.9281
65.308
63.6567
61.9713
60.2535
58.5039
56.547
54.366
52.1872
50.0405
47.9219
79.0826
79.0902
79.0621
79.046
79.0295
79.0169
79.0074
79.0001
78.9919
78.9774
78.948
78.8908
78.7877
78.6145
78.3407
77.9323
77.3703
76.6463
75.7472
74.6683
73.4143
72.0006
70.4396
68.7989
67.133
65.448
63.7461
62.0247
60.2836
58.5216
56.5558
54.3656
52.1797
50.0266
47.9238
45.8612
79.0625
79.0824
79.0893
79.0475
79.0323
79.0219
79.0158
79.0135
79.013
79.0098
78.9967
78.9627
78.8916
78.7615
78.5442
78.2044
77.7052
77.0291
76.1721
75.1252
73.8891
72.4752
70.9059
69.1994
67.4317
65.6598
63.8873
62.1128
60.3349
58.5495
56.5707
54.3718
52.1764
50.0181
47.9106
45.8627
43.8667
79.0487
79.0631
79.0823
79.0886
79.0348
79.0263
79.0232
79.0255
79.0317
79.0386
79.0401
79.0267
78.9846
78.894
78.729
78.4565
78.0373
77.4315
76.625
75.6199
74.4123
73.0099
71.4314
69.7064
67.8587
65.9717
64.1036
62.2538
60.4205
58.5973
56.5945
54.3821
52.1792
50.0115
47.9007
45.85
43.8674
41.9465
79.0369
79.0504
79.0639
79.0821
79.0878
79.0302
79.0298
79.0361
79.0483
79.0641
79.0785
79.0837
79.0676
79.0129
78.8959
78.686
78.3458
77.8319
77.1026
76.1489
74.9809
73.6015
72.0257
70.2805
68.4028
66.4211
64.4252
62.4721
60.5592
58.6786
56.6368
54.3996
52.184
50.0099
47.8905
45.8385
43.8549
41.9463
40.1067
79.0336
79.0398
79.0523
79.0648
79.082
79.0871
79.0356
79.0454
79.063
79.0867
79.1126
79.1344
79.1416
79.119
79.0457
78.8935
78.6272
78.2048
77.5795
76.7089
75.5914
74.247
72.6863
70.933
69.0222
66.9976
64.8922
62.7995
60.7763
58.8125
56.7109
54.4332
52.1937
50.0079
47.8837
45.8245
43.8415
41.934
40.1056
38.3513
79.0405
79.0381
79.0431
79.0543
79.0656
79.0819
79.0865
79.0537
79.0761
79.1067
79.1429
79.1793
79.2073
79.2137
79.1797
79.0801
78.8822
78.5458
78.0249
77.2701
76.2401
74.9429
73.4101
71.6614
69.7295
67.6575
65.4954
63.2787
61.1051
59.0248
56.8364
54.4961
52.2164
50.0083
47.8741
45.8121
43.8238
41.9186
40.0934
38.3493
36.6825
79.0607
79.0471
79.0429
79.0463
79.0562
79.0664
79.0818
79.0859
79.0876
79.1245
79.1697
79.2192
79.2657
79.2978
79.2993
79.2472
79.1118
78.8555
78.4336
77.7963
76.8931
75.6856
74.1939
72.4632
70.5228
68.4148
66.1896
63.9018
61.5904
59.3501
57.0393
54.6079
52.2651
50.0181
47.8639
45.7941
43.8053
41.897
40.0758
38.3371
36.6798
35.1013
79.0973
79.0701
79.0538
79.0478
79.0495
79.0581
79.0673
79.0817
79.0853
79.1403
79.1936
79.2546
79.3175
79.3727
79.4058
79.3966
79.318
79.1351
78.8056
78.2805
77.5076
76.4367
75.0345
73.3357
71.4004
69.2682
66.9902
64.6229
62.2257
59.8347
57.3553
54.7947
52.3589
50.0499
47.8591
45.7724
43.7786
41.8723
40.0504
38.3173
36.6675
35.0978
33.6071
79.1534
79.1103
79.079
79.0605
79.0525
79.0527
79.06
79.0681
79.0816
79.0848
79.2147
79.2861
79.3635
79.4391
79.5005
79.5297
79.5024
79.3865
79.1423
78.7226
78.0752
77.1465
75.8887
74.2762
72.3603
70.2174
67.8973
65.4588
62.965
60.4735
57.8313
55.0927
52.524
50.1222
47.8717
45.7517
43.7447
41.8367
40.0196
38.2882
36.6455
35.0853
33.603
32.1988
79.2323
79.1709
79.1219
79.0881
79.0671
79.0571
79.0557
79.0617
79.0689
79.0815
79.0843
79.3139
79.4044
79.4981
79.5847
79.6483
79.667
79.6118
79.4456
79.1239
78.5951
77.8047
76.6998
75.2368
73.4005
71.2611
68.9116
66.4112
63.8268
61.2214
58.4642
55.5482
52.796
50.2608
47.9197
45.7437
43.7074
41.7902
39.9749
38.2513
36.6128
35.0612
33.5903
32.1941
30.8742
79.337
79.2555
79.186
79.134
79.097
79.0735
79.0616
79.0586
79.0634
79.0697
79.0814
79.0839
79.4406
79.5507
79.6595
79.7537
79.8137
79.8132
79.718
79.4862
79.0683
78.4098
77.455
76.1535
74.4689
72.3984
70.0331
67.482
64.8143
62.0984
59.2107
56.1607
53.2193
50.4996
48.0279
45.7652
43.6775
41.7359
39.9158
38.1976
36.5698
35.0251
33.5641
32.1812
30.8689
29.6307
79.4706
79.3676
79.2748
79.2017
79.1457
79.1056
79.0797
79.0658
79.0615
79.0651
79.0705
79.0813
79.0835
79.5972
79.7262
79.8475
79.9444
79.993
79.962
79.8123
79.4969
78.9624
78.152
77.011
75.4938
73.5736
71.2625
68.673
65.9311
63.1092
60.0922
56.89
53.7965
50.8806
48.2273
45.8396
43.6712
41.6836
39.8442
38.1259
36.5074
34.9763
33.5248
32.1531
30.8559
29.6249
28.465
79.6355
79.5104
79.3919
79.2949
79.2169
79.1569
79.1137
79.0855
79.0699
79.0641
79.0667
79.0712
79.0812
79.0831
79.7852
79.9312
80.0607
80.1532
80.1801
80.1049
79.8834
79.4642
78.7907
77.8057
76.4572
74.7072
72.5407
69.9866
67.1808
64.2592
61.115
57.7583
54.4915
51.4094
48.5572
45.9945
43.7092
41.6485
39.7695
38.0372
36.4233
34.9054
33.4704
32.1107
30.8258
29.6116
28.4588
27.3739
79.8336
79.6868
79.5408
79.4175
79.3144
79.2313
79.1675
79.1215
79.0911
79.0738
79.0667
79.0681
79.072
79.0812
79.0828
80.0053
80.1647
80.2961
80.3747
80.3669
80.2311
79.918
79.3727
78.5366
77.354
75.7782
73.781
71.3612
68.568
65.5544
62.2866
58.7736
55.3262
52.0545
49.0259
46.266
43.816
41.6483
39.7052
37.9403
36.318
34.8093
33.3914
32.051
30.7806
29.5798
28.4453
27.3673
26.3537
80.0657
79.899
79.7247
79.5732
79.4422
79.3327
79.2448
79.1775
79.1288
79.0963
79.0775
79.069
79.0695
79.0726
79.0811
79.0826
80.2566
80.4239
80.5485
80.6011
80.543
80.3272
79.9005
79.205
78.1823
76.78
74.9592
72.7034
70.0297
67.0018
63.6156
59.9458
56.3102
52.8365
49.6068
46.6647
44.0232
41.7042
39.6658
37.8468
36.1994
34.6879
33.2838
31.9642
30.7158
29.532
28.4119
27.3536
26.3468
25.4009
80.3313
80.1485
79.946
79.7652
79.6042
79.4653
79.3498
79.2575
79.1868
79.1355
79.1012
79.0808
79.0712
79.0708
79.0732
79.0811
79.0824
80.5369
80.7042
80.8106
80.8223
80.6951
80.3777
79.8131
78.9424
77.7091
76.0666
73.9856
71.4663
68.5377
65.1119
61.2867
57.4561
53.7664
50.3181
47.1684
44.3435
41.8431
39.6692
37.7681
36.0771
34.5484
33.1471
31.8456
30.6217
29.4624
28.3616
27.3187
26.3329
25.3936
24.5117
80.6282
80.4353
80.2064
79.9965
79.804
79.633
79.4867
79.3657
79.2692
79.1954
79.1418
79.1057
79.0839
79.0732
79.0718
79.0738
79.0811
79.0822
80.8417
80.9985
81.0725
81.0252
80.8077
80.3643
79.6363
78.565
77.0983
75.1971
72.8469
70.0571
66.7126
62.8102
58.7787
54.8585
51.1715
47.7921
44.7588
42.0784
39.7371
37.7184
35.9594
34.3979
32.9874
31.6944
30.4928
29.3614
28.2876
27.2661
26.2965
25.3795
24.504
23.6823
80.9523
80.7579
80.5065
80.2691
80.0447
79.8399
79.6597
79.5064
79.3802
79.2798
79.2031
79.1474
79.1097
79.0866
79.0749
79.0728
79.0742
79.081
79.082
81.1643
81.2973
81.3214
81.1943
80.8624
80.2673
79.3492
78.0526
76.3311
74.1582
71.5263
68.3092
64.4566
60.2952
56.1295
52.181
48.5465
45.2795
42.3959
39.8824
37.7138
35.8567
34.2421
32.8098
31.5156
30.3279
29.2228
28.1802
27.1879
26.242
25.3419
24.4896
23.6739
22.9123
81.2969
81.113
80.8453
80.5842
80.3289
80.0891
79.8727
79.684
79.5243
79.3933
79.2894
79.2101
79.1524
79.1131
79.0889
79.0763
79.0735
79.0746
79.081
79.0819
81.4955
81.5882
81.5421
81.3112
80.8389
80.0644
78.9302
77.3844
75.3915
72.9296
69.8651
66.1144
61.948
57.5966
53.3625
49.4434
45.9136
42.8002
40.0948
37.7658
35.7792
34.0873
32.6171
31.312
30.131
29.0451
28.0325
27.0746
26.1599
25.2855
24.4509
23.6595
22.8997
22.2734
81.6529
81.495
81.2202
80.9414
80.6579
80.3835
80.1295
79.9025
79.7058
79.5402
79.4049
79.2978
79.2161
79.1566
79.116
79.0909
79.0775
79.0742
79.075
79.081
79.0818
81.8229
81.856
81.7159
81.3552
80.7143
79.7333
78.3567
76.5419
74.2565
71.3617
67.7414
63.6225
59.2044
54.7316
50.4966
46.6698
43.2957
40.3721
37.8681
35.7364
33.9375
32.4116
31.0837
29.9027
28.8311
27.8428
26.9184
26.041
25.1998
24.3929
23.6198
22.8858
22.269
21.7362
82.008
81.8957
81.6263
81.3387
81.0322
80.7252
80.4331
80.1659
79.929
79.7249
79.554
79.4148
79.3049
79.2211
79.16
79.1183
79.0925
79.0785
79.0747
79.0753
79.081
79.0817
82.1313
82.082
81.8219
81.3027
80.4651
79.2494
77.6079
75.5003
72.7842
69.3124
65.2707
60.8409
56.2417
51.7232
47.5615
43.8883
40.715
38.011
35.7258
33.7999
32.1908
30.8293
29.6404
28.5794
27.6128
26.7176
25.877
25.0758
24.3039
23.5606
22.8452
22.2595
21.7413
21.1766
82.3469
82.3042
82.0565
81.7722
81.4503
81.1147
80.7859
80.4774
80.198
79.952
79.7413
79.5656
79.423
79.3105
79.2249
79.1627
79.1202
79.0937
79.0793
79.0752
79.0755
79.081
79.0817
82.4023
82.2453
81.8362
81.1294
80.0652
78.5903
76.6574
74.1219
70.8081
66.8671
62.4643
57.7976
53.0958
48.6119
44.5938
41.1282
38.1926
35.7308
33.676
31.9599
30.5397
29.3394
28.2851
27.3391
26.4727
25.6659
24.9046
24.1753
23.4686
22.785
22.2187
21.7329
21.1767
20.5722
82.6505
82.7065
82.5008
82.2358
81.9094
81.5517
81.189
80.8399
80.5162
80.2255
79.9714
79.7548
79.5749
79.4292
79.3146
79.2277
79.1647
79.1216
79.0947
79.08
79.0756
79.0757
79.081
79.0816
82.6143
82.3216
81.7335
80.808
79.4908
77.7271
75.3687
72.2169
68.3964
64.0585
59.3728
54.5447
49.8178
45.443
41.6297
38.4162
35.7469
33.5425
31.7242
30.2181
28.9836
27.9396
27.0146
26.1784
25.407
24.684
23.9974
23.3357
22.6902
22.1582
21.6929
21.1645
20.5668
19.912
82.8968
83.0852
82.9464
82.721
82.4042
82.0337
81.6426
81.2548
80.8868
80.5492
80.2483
79.9869
79.7652
79.5816
79.4335
79.3175
79.2297
79.1661
79.1226
79.0955
79.0804
79.0759
79.0759
79.081
79.0816
82.7425
82.285
81.4856
80.3126
78.7101
76.5226
73.5336
69.8507
65.614
60.9592
56.0574
51.1368
46.4563
42.2576
38.7018
35.7756
33.3925
31.4544
29.8738
28.5749
27.5206
26.6272
25.8254
25.0935
24.4121
23.768
23.1516
22.5535
22.0611
21.6318
21.1245
20.5514
19.9044
19.195
83.0601
83.4199
83.3772
83.2161
82.9273
82.5567
82.1451
81.7229
81.3117
80.9263
80.576
80.2662
79.9984
79.7723
79.5859
79.4361
79.3192
79.2309
79.1669
79.1232
79.096
79.0808
79.0761
79.076
79.081
79.0816
82.76
82.1062
81.0649
79.609
77.5836
74.7576
71.2265
67.1223
62.5455
57.6267
52.565
47.6171
43.0523
39.0915
35.8375
33.2252
31.1409
29.4719
28.1265
27.0292
26.1483
25.3985
24.7139
24.0807
23.484
22.9141
22.3637
21.9214
21.5329
21.0621
20.5102
19.8882
19.1865
18.419
83.1118
83.687
83.7739
83.7066
83.4686
83.1143
82.6932
82.2432
81.7919
81.3591
80.958
80.5966
80.2789
80.0057
79.7763
79.588
79.4373
79.3199
79.2313
79.1673
79.1236
79.0963
79.081
79.0763
79.0761
79.081
79.0816
82.6365
81.7562
80.4346
78.555
75.8894
72.5215
68.5743
64.1153
59.2344
54.0931
48.9278
44.0214
39.6417
35.9757
33.0598
30.7797
28.9997
27.598
26.4819
25.5789
24.8634
24.2501
23.6764
23.136
22.6189
22.1187
21.7268
21.3905
20.9612
20.4457
19.8457
19.1701
18.4098
17.5793
83.0194
83.8603
84.114
84.1752
84.0152
83.6977
83.2818
82.8134
82.3274
81.8493
81.3969
80.9819
80.6106
80.2862
80.0091
79.7775
79.5882
79.4371
79.3196
79.2312
79.1673
79.1236
79.0964
79.0813
79.0765
79.0762
79.081
79.0816
82.3402
81.1961
79.4499
76.9323
73.733
69.9605
65.6502
60.8555
55.6973
50.3782
45.1734
40.3828
36.2574
32.9367
30.387
28.4496
26.9737
25.8334
24.9384
24.2209
23.6623
23.1781
22.7087
22.2555
21.8132
21.4759
21.1921
20.8157
20.3425
19.7789
19.1264
18.393
17.5698
16.671
82.7464
83.911
84.3717
84.6007
84.5511
84.2955
83.9032
83.4291
82.9163
82.397
81.8945
81.4247
80.9974
80.6179
80.2886
80.009
79.7763
79.5867
79.4357
79.3186
79.2305
79.1668
79.1234
79.0967
79.0816
79.0766
79.0762
79.081
79.0816
81.8296
80.2772
77.9016
74.861
71.2715
67.1329
62.4635
57.3464
51.9427
46.5009
41.3304
36.7342
32.9291
29.997
27.8328
26.2418
25.065
24.1773
23.4934
22.9519
22.5413
22.1784
21.8069
21.4354
21.162
20.9362
20.6134
20.1938
19.6731
19.0575
18.348
17.5524
16.6612
15.689
82.2458
83.808
84.5183
84.9593
85.0572
84.8934
84.5475
84.0842
83.5555
83.0014
82.4517
81.9273
81.4421
81.0044
80.619
80.2867
80.0058
79.773
79.5838
79.4334
79.3169
79.2292
79.166
79.1236
79.0972
79.0818
79.0766
79.0761
79.081
79.0817
80.9499
78.8054
75.9204
72.5017
68.5472
64.034
59.0077
53.5872
47.9807
42.4837
37.4301
33.1082
29.6841
27.1743
25.4069
24.1601
23.2734
22.6271
22.1433
21.7677
21.496
21.2468
20.967
20.7728
20.6153
20.352
19.987
19.5207
18.9489
18.2771
17.5062
16.6434
15.6791
14.6284
83.5122
81.3598
84.5205
85.2241
85.5111
85.4741
85.202
84.77
84.2397
83.6599
83.068
82.4909
81.9472
81.449
81.0039
80.6148
80.2811
80.0001
79.7679
79.5796
79.4302
79.3143
79.2274
79.166
79.1244
79.0975
79.0818
79.0765
79.076
79.081
79.0818
79.5253
76.9167
73.6652
69.8829
65.5449
60.6509
55.2747
49.5794
43.8264
38.3544
33.5071
29.5372
26.546
24.4825
23.1155
22.2053
21.5969
21.1796
20.8842
20.6642
20.5224
20.3794
20.2885
20.2165
20.0236
19.7197
19.3092
18.7925
18.1656
17.4331
16.5959
15.6608
14.6184
13.4837
84.3429
82.8728
79.9161
85.3626
85.8883
86.017
85.8513
85.4753
84.9616
84.3685
83.7418
83.1157
82.5143
81.9542
81.4466
80.9968
80.606
80.2722
79.9922
79.7612
79.5743
79.4259
79.3111
79.2272
79.1672
79.1248
79.0975
79.0816
79.0763
79.0759
79.081
79.0818
77.6988
74.765
71.1537
66.9812
62.2476
56.9701
51.259
45.3303
39.5017
34.1466
29.5978
26.0518
23.5348
21.9315
20.9611
20.3762
20.0322
19.8306
19.7116
19.6369
19.6162
19.6788
19.719
19.6144
19.3833
19.0356
18.5759
18.0049
17.3185
16.5208
15.6123
14.5996
13.4737
12.2496
85.3415
83.8565
81.7571
78.0857
86.1578
86.4994
86.4765
86.1866
85.7116
85.121
84.4698
83.8005
83.1439
82.5218
81.9498
81.4361
80.9841
80.5932
80.2606
79.9823
79.7532
79.5677
79.4208
79.3104
79.2289
79.1678
79.1248
79.0972
79.0813
79.0761
79.0757
79.081
79.0819
75.6189
72.3617
68.3566
63.7777
58.6388
52.9806
46.9598
40.8536
35.0356
29.8987
25.7395
22.6798
20.6666
19.5273
18.9439
18.6697
18.5751
18.5752
18.6207
18.6813
18.8846
19.0908
19.1028
18.963
18.6905
18.2955
17.7828
17.1533
16.4029
15.535
14.55
13.4544
12.2396
10.9208
86.2901
85.0484
82.9019
80.2745
76.0143
86.8923
87.0569
86.8868
86.4778
85.9092
85.2471
84.543
83.8354
83.1527
82.5153
81.9355
81.4188
80.9665
80.5771
80.2467
79.9708
79.7436
79.56
79.4194
79.3128
79.2296
79.1678
79.1244
79.0967
79.081
79.0759
79.0755
79.081
79.0821
73.2918
69.6717
65.2541
60.2543
54.7037
48.6747
42.3813
36.1703
30.4644
25.6524
21.9686
19.4454
17.953
17.2725
17.0617
17.0816
17.2206
17.4086
17.6068
17.9105
18.2709
18.4548
18.4361
18.2584
17.9412
17.4952
16.9254
16.2329
15.4136
14.4705
13.4037
12.2197
10.9108
9.49225
87.17
86.1934
84.3286
81.5875
78.54
73.7045
87.5654
87.5572
87.2452
86.723
86.0669
85.3393
84.5874
83.8468
83.1444
82.4969
81.9128
81.3956
80.945
80.5582
80.2309
79.9572
79.7324
79.5577
79.4226
79.3138
79.2296
79.1673
79.1236
79.0964
79.0808
79.0756
79.0753
79.0811
79.0822
70.6769
66.6762
61.8282
56.3945
50.4295
44.0474
37.5339
31.3094
25.8305
21.4517
18.319
16.3681
15.4012
15.1671
15.3108
15.6067
15.9632
16.3255
16.7897
17.2642
17.6073
17.7669
17.7151
17.4963
17.1309
16.63
15.9988
15.2386
14.3455
13.322
12.1681
10.8903
9.48251
7.95898
87.9802
87.2635
85.7132
83.2613
80.0269
76.5744
71.1075
88.1729
87.9969
87.5491
86.9204
86.1838
85.3966
84.6031
83.8374
83.1216
82.4683
81.8831
81.3676
80.9201
80.537
80.2124
79.9418
79.7289
79.5619
79.4239
79.3138
79.2289
79.166
79.1234
79.0963
79.0805
79.0752
79.075
79.0811
79.0824
67.756
63.3585
58.0626
52.1826
45.8037
39.0972
32.4345
26.308
21.1818
17.3405
14.8204
13.4622
13.0146
13.2084
13.6859
14.2391
14.7972
15.4536
16.1053
16.5656
16.8898
17.0232
16.9356
16.6724
16.2551
15.6952
14.9981
14.1654
13.1933
12.0842
10.8379
9.46156
7.9498
6.31424
88.7152
88.2581
87.0165
84.8991
81.9505
78.2669
74.3311
68.2041
88.7101
88.3726
87.7963
87.069
86.2586
85.4193
84.5936
83.8104
83.0866
82.4312
81.8475
81.3355
80.8924
80.5125
80.1917
79.9367
79.7344
79.5637
79.4239
79.3128
79.2272
79.166
79.1237
79.096
79.08
79.0748
79.0747
79.0811
79.0826
64.5142
59.7043
53.9409
47.6006
40.8137
33.8259
27.1085
21.2125
16.5704
13.3604
11.4971
10.7372
10.7934
11.3918
12.1809
12.9725
13.8597
14.724
15.3657
15.8108
16.1145
16.2194
16.0931
15.7822
15.3091
14.6858
13.9181
13.0078
11.9517
10.7518
9.40831
7.92893
6.30792
4.24752
89.3688
89.17
88.2401
86.4502
83.8412
80.4648
76.2621
71.7934
64.9797
89.173
88.6815
87.9855
87.1673
86.2916
85.4113
84.5628
83.7685
83.0413
82.387
81.8071
81.3001
80.8608
80.4853
80.1846
79.9438
79.7367
79.5637
79.4226
79.3105
79.2274
79.1669
79.1236
79.0955
79.0793
79.0742
79.0743
79.0811
79.0829
60.9399
55.6988
49.4425
42.6278
35.4456
28.2406
21.592
16.0778
12.0497
9.54845
8.36754
8.19792
8.73433
9.71124
10.7892
11.9555
13.0761
13.9361
14.5673
14.9959
15.2772
15.3511
15.1831
14.8208
14.2878
13.5967
12.7535
11.7606
10.6154
9.31987
7.87476
6.28773
4.2378
1.80161
89.936
89.9907
89.3772
87.9177
85.6402
82.6252
78.7644
73.9915
68.9545
61.4234
89.5581
88.9218
88.1145
87.2151
86.2876
85.3776
84.514
83.7143
82.9874
82.3371
81.7628
81.2602
80.8259
80.4758
80.1936
79.9467
79.7367
79.5619
79.4194
79.3112
79.2293
79.1674
79.1233
79.0948
79.0785
79.0736
79.0738
79.0812
79.0832
57.0198
51.3218
44.5421
37.2365
29.6844
22.3581
15.9341
10.9661
7.67185
5.93612
5.44419
5.84421
6.83214
8.1596
9.67322
11.1064
12.2307
13.0866
13.7063
14.1166
14.3735
14.4138
14.2009
13.7833
13.1862
12.4226
11.499
10.4187
9.17959
7.78395
6.23358
4.21356
1.78943
-0.6661
90.4127
90.7118
90.4179
89.2949
87.351
84.6869
81.2184
76.8251
71.4499
65.8122
57.5225
89.8626
89.0907
88.183
87.2183
86.2524
85.3222
84.4504
83.6499
82.9268
82.2825
81.713
81.2159
80.8133
80.4871
80.1971
79.9467
79.7345
79.5577
79.4208
79.3144
79.2306
79.1674
79.1226
79.0938
79.0776
79.0728
79.0733
79.0812
79.0835
52.7347
46.5474
39.2032
31.3918
23.5216
16.2098
10.1976
5.94387
3.48503
2.54765
2.73278
3.67261
5.07951
6.91784
8.7431
10.1917
11.3203
12.1714
12.7783
13.1686
13.3989
13.4028
13.1414
12.6647
11.999
11.1583
10.1497
8.97711
7.63961
6.14075
4.1565
1.76329
-0.674422
-3.11508
90.7954
91.3262
91.3518
90.5708
88.9675
86.6533
83.5673
79.5922
74.6435
68.6388
62.3657
53.2586
90.0828
89.1874
88.1978
87.1839
86.1912
85.2489
84.3745
83.5773
82.8607
82.2214
81.6581
81.1998
80.8274
80.4914
80.1971
79.9439
79.729
79.5601
79.4261
79.317
79.2313
79.167
79.1216
79.0925
79.0764
79.0719
79.0727
79.0813
79.0839
48.0596
41.3385
33.3788
25.0624
16.9644
9.84672
4.45803
1.07904
-0.469038
-0.601197
0.233782
1.67643
3.6804
5.88484
7.74248
9.2079
10.341
11.1866
11.7792
12.1474
12.3487
12.3133
11.9999
11.46
10.7213
9.7988
8.7005
7.4313
5.99242
4.0591
1.70288
-0.697458
-3.12192
-5.53575
91.0796
91.8284
92.1686
91.7341
90.4783
88.5173
85.8145
82.2461
77.7428
72.2246
65.5663
58.6122
48.6064
90.2168
89.2194
88.1672
87.1181
86.1083
85.161
84.289
83.4983
82.7868
82.1542
81.6377
81.2172
80.8327
80.4914
80.1936
79.9368
79.7326
79.5679
79.4304
79.3187
79.2314
79.1661
79.1202
79.0909
79.0749
79.0708
79.072
79.0814
79.0844
42.9586
35.6396
27.0092
18.2135
10.0327
3.34252
-1.19732
-3.56319
-4.15832
-3.50228
-2.05749
0.0877896
2.51964
4.77552
6.66825
8.15155
9.28899
10.1281
10.7047
11.0488
11.2184
11.1405
10.7714
10.164
9.34801
8.33938
7.14704
5.77827
3.90512
1.60058
-0.756088
-3.14469
-5.54181
-7.91982
91.262
92.2117
92.8586
92.7731
91.8721
90.2672
87.952
84.7915
80.7175
75.6772
69.5815
62.2427
54.545
43.5347
90.2734
89.1969
88.0989
87.0263
86.0079
85.0614
84.1957
83.4101
82.7055
82.129
81.6589
81.2236
80.8327
80.4871
80.1846
79.942
79.7438
79.5746
79.4336
79.3197
79.2309
79.1647
79.1183
79.089
79.0732
79.0696
79.0713
79.0815
79.0849
37.3717
29.367
20.0116
10.8066
2.76918
-3.20686
-6.67536
-7.92616
-7.56064
-6.15536
-3.87429
-1.22597
1.27612
3.58738
5.5173
7.01901
8.16038
8.9918
9.55079
9.86828
10.0036
9.87978
9.45115
8.77226
7.87465
6.77563
5.48638
3.68365
1.44007
-0.858673
-3.20265
-5.56493
-7.92504
-10.2537
91.3521
92.4709
93.409
93.6761
93.1366
91.8909
89.9666
87.2207
83.5734
78.9887
73.4113
66.7325
58.6782
50.1586
37.9914
90.2645
89.1289
87.9993
86.9133
85.8935
84.9527
84.0917
83.313
82.6748
82.1546
81.6666
81.2236
80.8274
80.4758
80.1919
79.9576
79.7536
79.5799
79.4359
79.32
79.2297
79.1627
79.116
79.0867
79.0713
79.0682
79.0706
79.0816
79.0854
31.211
22.4128
12.2908
2.82648
-4.74701
-9.68605
-11.8853
-11.964
-10.6652
-8.24988
-5.37053
-2.6292
-0.0515205
2.31811
4.28658
5.80695
6.95166
7.77415
8.31355
8.60195
8.69989
8.52682
8.03478
7.28035
6.29707
5.10477
3.38274
1.21062
-1.02188
-3.30572
-5.62257
-7.94803
-10.2581
-12.5237
91.3639
92.6168
93.8066
94.4263
94.2586
93.3755
91.8446
89.5207
86.3046
82.1658
77.0767
70.9672
63.6975
54.8809
45.4361
31.8941
90.2009
89.0234
87.8742
86.7837
85.7683
84.8314
83.9771
83.2761
82.7056
82.1637
81.6666
81.2172
80.8133
80.4856
80.2128
79.9713
79.7616
79.584
79.4372
79.3193
79.2278
79.16
79.1132
79.084
79.0691
79.0667
79.0698
79.0817
79.086
24.361
14.6365
3.75671
-5.70509
-12.3909
-15.9657
-16.7441
-15.6449
-13.1038
-9.96598
-6.96255
-4.12117
-1.46407
0.965671
2.97353
4.51249
5.65975
6.4718
6.98946
7.24606
7.30354
7.07764
6.51841
5.68458
4.61276
2.98929
0.900306
-1.25583
-3.47088
-5.7266
-8.00472
-10.2807
-12.5271
-14.7167
91.31
92.6667
94.0599
95.002
95.2175
94.7083
93.5706
91.6776
88.9
85.2056
80.5849
75.0061
68.3703
60.4961
50.8578
40.3448
25.1326
90.092
88.8872
87.7291
86.641
85.6283
84.6976
83.9331
83.3127
82.7164
82.1638
81.6589
81.1998
80.8261
80.5131
80.2314
79.9828
79.7682
79.5869
79.4374
79.3175
79.2249
79.1567
79.1098
79.0809
79.0667
79.0651
79.069
79.0818
79.0866
16.6418
5.85785
-5.6682
-14.71
-19.9929
-21.9118
-21.18
-18.5203
-15.0885
-11.7828
-8.64609
-5.7001
-2.96177
-0.471081
1.57639
3.13349
4.28215
5.08195
5.57554
5.7975
5.81125
5.52898
4.89886
3.98288
2.48211
0.495223
-1.57206
-3.70761
-5.89361
-8.10899
-10.336
-12.5491
-14.7191
-16.8201
91.202
92.6363
94.1882
95.4068
95.9841
95.8665
95.1296
93.6748
91.3474
88.1006
83.9379
78.8555
72.8055
65.6466
57.1496
46.6144
34.8479
17.5354
89.9464
88.7269
87.5683
86.4812
85.4736
84.6459
83.9766
83.3254
82.7164
82.1546
81.6377
81.2163
80.8615
80.5377
80.2474
79.9926
79.7733
79.5884
79.4362
79.3147
79.2211
79.1525
79.1058
79.0775
79.0642
79.0635
79.0681
79.0819
79.0872
7.77638
-4.16046
-16.0009
-24.0274
-27.3643
-27.3817
-24.6243
-20.8403
-17.1753
-13.6902
-10.4151
-7.36322
-4.5434
-1.99209
0.0944517
1.66861
2.81707
3.60257
4.06958
4.25387
4.22057
3.87841
3.17469
1.83289
-0.0262483
-1.98475
-4.02716
-6.13226
-8.27669
-10.4398
-12.6028
-14.7404
-16.8215
-18.8218
91.0497
92.5392
94.2112
95.659
96.5577
96.8158
96.4948
95.4945
93.6313
90.8421
87.1326
82.5249
77.007
70.5052
62.8227
53.6835
42.1506
28.9023
8.82172
89.7717
88.5479
87.3876
86.3039
85.4134
84.697
83.9912
83.3254
82.7056
82.1289
81.6585
81.261
80.8933
80.559
80.2612
80.0006
79.7765
79.5881
79.4336
79.3106
79.2162
79.1475
79.1012
79.0738
79.0615
79.0618
79.0673
79.082
79.0879
-2.70665
-15.5977
-27.1805
-33.4866
-34.2446
-31.6177
-27.3706
-23.2557
-19.3444
-15.6752
-12.2621
-9.10559
-6.20592
-3.59572
-1.4718
0.117564
1.26377
2.03256
2.47023
2.61379
2.53008
2.12534
0.999961
-0.69303
-2.51523
-4.44376
-6.45324
-8.51559
-10.6068
-12.7054
-14.7921
-16.8418
-18.8223
-20.7112
90.8624
92.3878
94.1467
95.7772
96.9573
97.5527
97.6248
97.104
95.7336
93.4173
90.1658
86.017
80.996
75.0705
68.1363
59.9272
50.128
37.4605
22.4575
-1.50241
89.5746
88.3456
87.1864
86.2346
85.4732
84.7139
83.9913
83.3128
82.6748
82.1546
81.7141
81.3013
80.9211
80.5779
80.2728
80.0062
79.7777
79.586
79.4293
79.305
79.2102
79.1418
79.0963
79.0699
79.0587
79.06
79.0665
79.0821
79.0887
-15.4716
-28.6709
-39.3622
-42.5323
-39.6128
-34.9269
-30.1864
-25.73
-21.5714
-17.7226
-14.1764
-10.9196
-7.94409
-5.27867
-3.12044
-1.51858
-0.37731
0.37198
0.777421
0.87713
0.740317
-0.0806225
-1.54773
-3.19251
-4.97821
-6.87055
-8.83555
-10.8441
-12.8706
-14.8927
-16.8912
-18.8414
-20.7104
-22.4748
90.6479
92.1932
94.0109
95.7801
97.2013
98.0968
98.5148
98.4498
97.6174
95.8106
93.0293
89.3353
84.7815
79.3825
73.0779
65.7313
56.9902
46.5153
32.5365
15.488
-14.2965
89.3502
88.1194
87.1072
86.3041
85.4927
84.714
83.9766
83.276
82.7061
82.2227
81.7643
81.3369
80.946
80.5939
80.2815
80.0092
79.7764
79.5817
79.4231
79.2979
79.2032
79.1355
79.0911
79.0658
79.0557
79.0582
79.0657
79.0823
79.0895
-32.1597
-43.533
-51.2339
-49.7048
-43.7448
-38.2273
-33.0066
-28.2213
-23.8299
-19.8135
-16.1437
-12.7948
-9.75036
-7.03567
-4.84779
-3.23723
-2.10429
-1.37767
-1.00756
-0.954143
-1.50465
-2.65498
-4.05965
-5.65941
-7.40435
-9.25005
-11.1603
-13.1044
-15.0549
-16.9892
-18.8881
-20.7272
-22.4742
-24.1076
90.4019
91.9644
93.8184
95.6862
97.3082
98.4677
99.1881
99.5202
99.2176
97.9836
95.7122
92.4781
88.376
83.457
77.7162
71.0615
63.3221
54.0421
42.8894
27.3894
8.07512
-32.0886
89.0979
88.0296
87.1875
86.3264
85.4927
84.697
83.9331
83.3137
82.7884
82.2843
81.8088
81.3689
80.9675
80.6066
80.2871
80.0092
79.7725
79.5751
79.415
79.2895
79.1953
79.1287
79.0855
79.0615
79.0527
79.0563
79.0648
79.0824
79.0903
-52.6725
-56.3279
-62.4501
-54.8975
-47.6748
-41.4202
-35.7653
-30.6863
-26.0891
-21.9244
-18.1463
-14.7178
-11.6148
-8.85933
-6.64831
-5.0341
-3.91361
-3.2133
-2.88105
-3.24195
-4.11097
-5.18134
-6.53053
-8.08337
-9.77856
-11.5683
-13.4142
-15.2833
-17.1469
-18.9827
-20.7715
-22.4909
-24.1067
-25.6004
90.1243
91.6972
93.5811
95.514
97.2955
98.6844
99.6679
100.338
100.512
99.8615
98.1774
95.4409
91.7853
87.3177
82.0749
76.0288
69.0508
60.9394
51.13
39.3064
22.1151
0.0958227
-54.2927
88.9968
88.1221
87.2129