/*--------------------------------*- C++ -*----------------------------------*\
  =========                 |
  \\      /  F ield         | OpenFOAM: The Open Source CFD Toolbox
   \\    /   O peration     | Website:  https://openfoam.org
    \\  /    A nd           | Version:  8
     \\/     M anipulation  |
\*---------------------------------------------------------------------------*/
FoamFile
{
    version     2.0;
    format      ascii;
    class       volVectorField;
    location    "0.33";
    object      U;
}
// * * * * * * * * * * * * * * * * * * * * * * * * * * * * * * * * * * * * * //

dimensions      [0 1 -1 0 0 0 0];

internalField   nonuniform List<vector> 
15677
(
(-0.0399015 9.66595 0)
(0.0484951 9.92199 0)
(-0.00181362 9.37829 0)
(0.0206523 9.97702 0)
(0.019892 9.78866 0)
(0.00731342 9.14125 0)
(0.025839 9.99515 0)
(0.0165373 9.92467 0)
(0.0111792 9.65398 0)
(0.00649142 8.96068 0)
(0.0263308 10.0025 0)
(0.0205523 9.97871 0)
(0.0165508 9.85203 0)
(0.00912487 9.53081 0)
(0.00515968 8.81703 0)
(0.0255702 10.0057 0)
(0.0215843 10.003 0)
(0.019406 9.94152 0)
(0.0153647 9.77951 0)
(0.00798034 9.41984 0)
(0.00424044 8.70239 0)
(0.0245087 10.0071 0)
(0.0218658 10.0147 0)
(0.021002 9.98479 0)
(0.0182522 9.90244 0)
(0.0138545 9.70811 0)
(0.00692502 9.32159 0)
(0.00354484 8.6102 0)
(0.0230969 10.0075 0)
(0.0217421 10.0205 0)
(0.0218692 10.0069 0)
(0.0201983 9.96498 0)
(0.0169613 9.86193 0)
(0.0124417 9.64084 0)
(0.00596844 9.23644 0)
(0.00295858 8.53618 0)
(0.0214089 10.0074 0)
(0.0211907 10.0233 0)
(0.0221522 10.0184 0)
(0.0212876 9.99809 0)
(0.0190529 9.94372 0)
(0.0156076 9.8223 0)
(0.0110788 9.57967 0)
(0.00507684 9.16417 0)
(0.00241873 8.47764 0)
(0.0195158 10.007 0)
(0.02033 10.0235 0)
(0.0221094 10.0241 0)
(0.02178 10.0162 0)
(0.020216 9.98815 0)
(0.0177197 9.92276 0)
(0.0141425 9.78538 0)
(0.0096854 9.52576 0)
(0.0041986 9.10456 0)
(0.00188716 8.43312 0)
(0.0175004 10.0063 0)
(0.0192736 10.0223 0)
(0.0216658 10.0271 0)
(0.021802 10.0261 0)
(0.0207466 10.0131 0)
(0.0188609 9.97856 0)
(0.0161738 9.9036 0)
(0.0125188 9.75243 0)
(0.00820336 9.48011 0)
(0.00328832 9.05742 0)
(0.00133479 8.40163 0)
(0.0153989 10.0056 0)
(0.0179643 10.0206 0)
(0.020933 10.0281 0)
(0.0214557 10.0315 0)
(0.0207795 10.0273 0)
(0.0193185 10.0103 0)
(0.0171873 9.97059 0)
(0.0143575 9.88721 0)
(0.0106807 9.7246 0)
(0.00658204 9.4435 0)
(0.00230441 9.0227 0)
(0.000739021 8.3829 0)
(0.0132618 10.0048 0)
(0.016481 10.0185 0)
(0.0198582 10.0274 0)
(0.0207806 10.034 0)
(0.0203987 10.0354 0)
(0.01924 10.0289 0)
(0.0174611 10.0092 0)
(0.0151318 9.96505 0)
(0.0121987 9.87461 0)
(0.00856667 9.70299 0)
(0.00477026 9.41669 0)
(0.00121259 9.00045 0)
(5.64069e-05 8.37669 0)
(0.0111595 10.0041 0)
(0.0148843 10.0162 0)
(0.0185069 10.0258 0)
(0.0197948 10.0345 0)
(0.019664 10.0396 0)
(0.0187132 10.0396 0)
(0.0171481 10.0319 0)
(0.0151043 10.0103 0)
(0.0126073 9.96285 0)
(0.00961764 9.86679 0)
(0.00611242 9.68864 0)
(0.00272101 9.40031 0)
(-1.53398e-05 8.99083 0)
(-0.000614292 8.383 0)
(0.00927025 10.0034 0)
(0.0131854 10.014 0)
(0.0169179 10.0235 0)
(0.0184993 10.0334 0)
(0.0185909 10.0412 0)
(0.0177873 10.0456 0)
(0.0163387 10.0453 0)
(0.0144254 10.0371 0)
(0.0121426 10.0146 0)
(0.00951314 9.96486 0)
(0.00653072 9.86476 0)
(0.00325753 9.68253 0)
(0.000396794 9.39502 0)
(-0.00137873 8.99416 0)
(-0.00140264 8.40195 0)
(0.00772475 10.0029 0)
(0.011622 10.0119 0)
(0.015131 10.0209 0)
(0.0169083 10.0313 0)
(0.0171799 10.0409 0)
(0.0164813 10.0483 0)
(0.0150779 10.053 0)
(0.0131866 10.0531 0)
(0.0109477 10.0453 0)
(0.00845282 10.0228 0)
(0.0057423 9.97199 0)
(0.00285645 9.8695 0)
(-6.23264e-05 9.68561 0)
(-0.00226137 9.40144 0)
(-0.00294166 9.0106 0)
(-0.00229261 8.43381 0)
(0.00641324 10.0024 0)
(0.0102295 10.0102 0)
(0.0133917 10.0184 0)
(0.0150516 10.0286 0)
(0.0154351 10.0392 0)
(0.0147989 10.0488 0)
(0.0133837 10.0569 0)
(0.0114303 10.0624 0)
(0.009112 10.0638 0)
(0.00656728 10.0573 0)
(0.00390281 10.0358 0)
(0.00118937 9.98516 0)
(-0.00148122 9.882 0)
(-0.00388383 9.69874 0)
(-0.00526802 9.42012 0)
(-0.00469667 9.04042 0)
(-0.00328061 8.47865 0)
(0.0053088 10.002 0)
(0.00897295 10.0087 0)
(0.0118128 10.0162 0)
(0.0131739 10.0257 0)
(0.0133737 10.0364 0)
(0.0127408 10.0475 0)
(0.0112592 10.058 0)
(0.00917077 10.0674 0)
(0.00667385 10.0747 0)
(0.00394023 10.0781 0)
(0.00112448 10.074 0)
(-0.00164021 10.0545 0)
(-0.00424824 10.0053 0)
(-0.00655653 9.90318 0)
(-0.00826421 9.72272 0)
(-0.00865078 9.45146 0)
(-0.0066488 9.08368 0)
(-0.00436153 8.53653 0)
(0.00438476 10.0016 0)
(0.00784051 10.0074 0)
(0.0103547 10.0143 0)
(0.011435 10.0231 0)
(0.0112579 10.0333 0)
(0.0103164 10.0448 0)
(0.00870471 10.0571 0)
(0.00640846 10.0691 0)
(0.00364188 10.0805 0)
(0.000602712 10.0904 0)
(-0.00251931 10.0969 0)
(-0.00554338 10.096 0)
(-0.00830488 10.0797 0)
(-0.010663 10.0333 0)
(-0.0124266 9.93391 0)
(-0.0132332 9.75817 0)
(-0.0124266 9.49577 0)
(-0.00880313 9.14049 0)
(-0.00553386 8.6073 0)
(0.00361072 10.0013 0)
(0.00682057 10.0062 0)
(0.00901187 10.0126 0)
(0.00980227 10.0206 0)
(0.00928374 10.0303 0)
(0.00782367 10.0415 0)
(0.00572813 10.0545 0)
(0.00314307 10.0685 0)
(1.22584e-05 10.0828 0)
(-0.00344456 10.0971 0)
(-0.00700855 10.1104 0)
(-0.0104623 10.1209 0)
(-0.0135939 10.1242 0)
(-0.0162085 10.1122 0)
(-0.0181301 10.0699 0)
(-0.0191292 9.9749 0)
(-0.0188041 9.80559 0)
(-0.0165944 9.55321 0)
(-0.0111479 9.21064 0)
(-0.00678477 8.69063 0)
(0.00297785 10.001 0)
(0.00590889 10.0052 0)
(0.00778009 10.011 0)
(0.00828291 10.0184 0)
(0.00742275 10.0274 0)
(0.00549615 10.0381 0)
(0.0026857 10.0509 0)
(-0.000615348 10.0658 0)
(-0.00421652 10.0823 0)
(-0.00821156 10.0997 0)
(-0.0123535 10.1178 0)
(-0.0163926 10.1355 0)
(-0.0200789 10.1509 0)
(-0.0231714 10.1595 0)
(-0.025447 10.1529 0)
(-0.026702 10.1159 0)
(-0.0266829 10.0268 0)
(-0.0249726 9.86526 0)
(-0.0211407 9.62374 0)
(-0.013675 9.29395 0)
(-0.00810738 8.7861 0)
(0.00247716 10.0008 0)
(0.00508602 10.0044 0)
(0.00665682 10.0096 0)
(0.00688066 10.0164 0)
(0.00569195 10.0247 0)
(0.00330521 10.0347 0)
(-0.000144776 10.047 0)
(-0.00442447 10.0618 0)
(-0.00903033 10.0794 0)
(-0.0137017 10.0992 0)
(-0.0185727 10.1206 0)
(-0.0233594 10.1433 0)
(-0.0277762 10.1664 0)
(-0.0315435 10.1877 0)
(-0.0343946 10.2026 0)
(-0.0360879 10.2025 0)
(-0.0364026 10.1719 0)
(-0.0350816 10.0898 0)
(-0.0317164 9.9373 0)
(-0.0260369 9.70715 0)
(-0.0163535 9.38976 0)
(-0.00947829 8.89288 0)
(0.00209247 10.0007 0)
(0.00438228 10.0037 0)
(0.00563495 10.0084 0)
(0.00559708 10.0145 0)
(0.00410095 10.0221 0)
(0.0012774 10.0315 0)
(-0.00279689 10.043 0)
(-0.00794794 10.0573 0)
(-0.0138687 10.0748 0)
(-0.0198957 10.0959 0)
(-0.0256728 10.1198 0)
(-0.031393 10.1462 0)
(-0.0367308 10.1746 0)
(-0.0413679 10.2039 0)
(-0.0450007 10.232 0)
(-0.047349 10.2542 0)
(-0.0481636 10.2614 0)
(-0.0472249 10.2383 0)
(-0.0442931 10.1644 0)
(-0.0389911 10.0216 0)
(-0.0312394 9.80297 0)
(-0.0191628 9.49753 0)
(-0.0108787 9.01026 0)
(0.00179596 10.0006 0)
(0.00381131 10.0032 0)
(0.00475293 10.0074 0)
(0.00443245 10.0129 0)
(0.00265566 10.0198 0)
(-0.000571002 10.0283 0)
(-0.0052345 10.039 0)
(-0.01123 10.0526 0)
(-0.018318 10.0695 0)
(-0.0260778 10.0905 0)
(-0.0336283 10.1158 0)
(-0.0405051 10.145 0)
(-0.0469886 10.1772 0)
(-0.0527156 10.2122 0)
(-0.0573428 10.2488 0)
(-0.0605574 10.2846 0)
(-0.0620782 10.3147 0)
(-0.061668 10.3301 0)
(-0.0591259 10.3154 0)
(-0.0542558 10.2503 0)
(-0.0467315 10.1178 0)
(-0.0366946 9.91059 0)
(-0.0220379 9.61622 0)
(-0.0122435 9.13663 0)
(0.00156321 10.0005 0)
(0.00334641 10.0028 0)
(0.00403041 10.0065 0)
(0.00343234 10.0114 0)
(0.00136017 10.0175 0)
(-0.00222912 10.0253 0)
(-0.0074337 10.0351 0)
(-0.0142242 10.0477 0)
(-0.0224386 10.0638 0)
(-0.0317334 10.0842 0)
(-0.0415252 10.1094 0)
(-0.0506635 10.14 0)
(-0.0585693 10.1753 0)
(-0.0656531 10.2144 0)
(-0.0715242 10.2569 0)
(-0.0758323 10.3015 0)
(-0.0782703 10.3458 0)
(-0.0785778 10.3847 0)
(-0.0765494 10.4089 0)
(-0.0720282 10.4031 0)
(-0.0648807 10.3475 0)
(-0.054853 10.2253 0)
(-0.0422864 10.0291 0)
(-0.0248633 9.74455 0)
(-0.013275 9.27014 0)
(0.00137798 10.0005 0)
(0.00296533 10.0025 0)
(0.00344005 10.0059 0)
(0.00262009 10.0102 0)
(0.000266101 10.0156 0)
(-0.00368932 10.0224 0)
(-0.00937769 10.0313 0)
(-0.0168979 10.0428 0)
(-0.0261726 10.0578 0)
(-0.0369459 10.0772 0)
(-0.0487211 10.1017 0)
(-0.0607074 10.1322 0)
(-0.0714339 10.1691 0)
(-0.0802116 10.2115 0)
(-0.0876382 10.2584 0)
(-0.0933173 10.3093 0)
(-0.0969095 10.3628 0)
(-0.0981385 10.4162 0)
(-0.0967895 10.4644 0)
(-0.0927155 10.4978 0)
(-0.0858161 10.5013 0)
(-0.0760499 10.4553 0)
(-0.0632089 10.3434 0)
(-0.0479672 10.1574 0)
(-0.0278289 9.88201 0)
(-0.0156037 9.41082 0)
(0.00122873 10.0004 0)
(0.00265062 10.0022 0)
(0.00295608 10.0053 0)
(0.00196548 10.0092 0)
(-0.000604124 10.0139 0)
(-0.00489269 10.0198 0)
(-0.0110545 10.0276 0)
(-0.0192269 10.038 0)
(-0.0294765 10.0517 0)
(-0.0416432 10.0698 0)
(-0.0553285 10.0932 0)
(-0.0698346 10.1229 0)
(-0.084121 10.1595 0)
(-0.0963475 10.2038 0)
(-0.105732 10.2543 0)
(-0.113139 10.31 0)
(-0.118189 10.3701 0)
(-0.120582 10.4331 0)
(-0.120102 10.4961 0)
(-0.116606 10.5538 0)
(-0.110022 10.5967 0)
(-0.100337 10.6097 0)
(-0.0875787 10.5732 0)
(-0.0716562 10.471 0)
(-0.0529774 10.2945 0)
(-0.0246799 10.0222 0)
(-0.0115227 9.49632 0)
(0.00110702 10.0004 0)
(0.00238925 10.002 0)
(0.00255854 10.0049 0)
(0.00143653 10.0083 0)
(-0.00128812 10.0125 0)
(-0.00582051 10.0176 0)
(-0.0123962 10.0242 0)
(-0.0211937 10.0332 0)
(-0.0323173 10.0456 0)
(-0.0457691 10.0621 0)
(-0.0612586 10.084 0)
(-0.0781945 10.1123 0)
(-0.0956309 10.1481 0)
(-0.112236 10.192 0)
(-0.12576 10.2447 0)
(-0.135371 10.3044 0)
(-0.142281 10.3697 0)
(-0.146161 10.4396 0)
(-0.146785 10.5125 0)
(-0.14403 10.5855 0)
(-0.137852 10.6529 0)
(-0.128283 10.7053 0)
(-0.115368 10.7275 0)
(-0.0992797 10.7003 0)
(-0.0796827 10.6072 0)
(-0.0569773 10.4376 0)
(-0.0201779 10.1939 0)
(-0.00295188 9.56214 0)
(0.00100663 10.0003 0)
(0.00217134 10.0018 0)
(0.00222637 10.0045 0)
(0.00100883 10.0076 0)
(-0.00182405 10.0112 0)
(-0.00652228 10.0156 0)
(-0.0133904 10.0212 0)
(-0.0227185 10.0288 0)
(-0.0346703 10.0394 0)
(-0.0492794 10.0543 0)
(-0.0664393 10.0743 0)
(-0.0856776 10.1009 0)
(-0.106159 10.1352 0)
(-0.126642 10.1782 0)
(-0.145474 10.2304 0)
(-0.159969 10.2925 0)
(-0.169288 10.3623 0)
(-0.175094 10.4379 0)
(-0.177157 10.5181 0)
(-0.175367 10.6013 0)
(-0.169725 10.6843 0)
(-0.160308 10.7614 0)
(-0.147236 10.823 0)
(-0.130667 10.8541 0)
(-0.110612 10.8355 0)
(-0.0864755 10.7507 0)
(-0.0601863 10.5946 0)
(-0.0215923 10.3672 0)
(0.00235328 9.61953 0)
(0.000922991 10.0003 0)
(0.00198906 10.0017 0)
(0.00195057 10.0041 0)
(0.000665014 10.007 0)
(-0.00224267 10.0102 0)
(-0.00704645 10.0139 0)
(-0.0141037 10.0186 0)
(-0.0237983 10.0248 0)
(-0.0364397 10.0336 0)
(-0.05214 10.0464 0)
(-0.0708126 10.0644 0)
(-0.0921925 10.0889 0)
(-0.115571 10.1211 0)
(-0.139815 10.1624 0)
(-0.163353 10.2136 0)
(-0.184191 10.2753 0)
(-0.199172 10.3478 0)
(-0.207529 10.4285 0)
(-0.211507 10.515 0)
(-0.21102 10.6059 0)
(-0.206112 10.6995 0)
(-0.196933 10.7923 0)
(-0.183679 10.8788 0)
(-0.166594 10.9492 0)
(-0.14574 10.9886 0)
(-0.120962 10.9783 0)
(-0.0920637 10.9025 0)
(-0.0622426 10.7643 0)
(-0.0244139 10.5371 0)
(0.00320144 9.67649 0)
(0.000852753 10.0003 0)
(0.00183582 10.0016 0)
(0.00172195 10.0038 0)
(0.000384589 10.0064 0)
(-0.00256839 10.0093 0)
(-0.00743215 10.0125 0)
(-0.0145992 10.0163 0)
(-0.0245226 10.0213 0)
(-0.0376346 10.0284 0)
(-0.054234 10.0389 0)
(-0.0743323 10.0544 0)
(-0.0976638 10.0764 0)
(-0.123752 10.1061 0)
(-0.151592 10.1451 0)
(-0.179713 10.1944 0)
(-0.206178 10.255 0)
(-0.228629 10.3272 0)
(-0.243451 10.4111 0)
(-0.250039 10.5034 0)
(-0.251358 10.6011 0)
(-0.247512 10.7029 0)
(-0.238733 10.8067 0)
(-0.225326 10.9091 0)
(-0.207634 11.0044 0)
(-0.185895 11.0831 0)
(-0.160074 11.1304 0)
(-0.130696 11.1282 0)
(-0.0974967 11.0624 0)
(-0.0640451 10.9414 0)
(-0.0270812 10.7027 0)
(0.00271694 9.74997 0)
(0.000793358 10.0003 0)
(0.00170625 10.0015 0)
(0.00153227 10.0036 0)
(0.000154647 10.006 0)
(-0.00282169 10.0085 0)
(-0.00771064 10.0112 0)
(-0.0149275 10.0143 0)
(-0.0249746 10.0182 0)
(-0.0383752 10.0238 0)
(-0.0555853 10.0321 0)
(-0.0768533 10.0447 0)
(-0.10203 10.0637 0)
(-0.130603 10.0905 0)
(-0.161827 10.1266 0)
(-0.194353 10.1733 0)
(-0.226328 10.232 0)
(-0.255415 10.3031 0)
(-0.278919 10.3868 0)
(-0.292774 10.4828 0)
(-0.296657 10.5872 0)
(-0.294388 10.6964 0)
(-0.286308 10.809 0)
(-0.27286 10.9227 0)
(-0.254528 11.0342 0)
(-0.231727 11.1377 0)
(-0.204679 11.2241 0)
(-0.173851 11.2792 0)
(-0.140445 11.2846 0)
(-0.103644 11.2295 0)
(-0.0667104 11.1207 0)
(-0.0299333 10.8828 0)
(0.00158403 9.8347 0)
(0.000742811 10.0002 0)
(0.0015961 10.0014 0)
(0.00137275 10.0034 0)
(-3.45284e-05 10.0056 0)
(-0.00301826 10.0078 0)
(-0.00790671 10.0101 0)
(-0.015129 10.0125 0)
(-0.0252207 10.0156 0)
(-0.0387708 10.0197 0)
(-0.0563535 10.0261 0)
(-0.0784174 10.0359 0)
(-0.105108 10.0513 0)
(-0.136044 10.0745 0)
(-0.170395 10.1073 0)
(-0.207093 10.1508 0)
(-0.244396 10.2065 0)
(-0.280021 10.2756 0)
(-0.311248 10.3584 0)
(-0.335066 10.4544 0)
(-0.346985 10.5632 0)
(-0.3471 10.6801 0)
(-0.340232 10.8008 0)
(-0.327001 10.9238 0)
(-0.308078 11.047 0)
(-0.284095 11.1669 0)
(-0.255535 11.2781 0)
(-0.223026 11.3717 0)
(-0.187517 11.4337 0)
(-0.150377 11.4463 0)
(-0.110518 11.4007 0)
(-0.0706075 11.3206 0)
(-0.0328766 11.0778 0)
(-0.000177522 9.92868 0)
(0.000699504 10.0002 0)
(0.001502 10.0013 0)
(0.00123816 10.0032 0)
(-0.000189281 10.0052 0)
(-0.00317039 10.0072 0)
(-0.00803987 10.0091 0)
(-0.0152354 10.011 0)
(-0.0253136 10.0132 0)
(-0.0389089 10.0161 0)
(-0.0566819 10.0207 0)
(-0.0792333 10.0281 0)
(-0.106961 10.0401 0)
(-0.139845 10.0589 0)
(-0.17719 10.0873 0)
(-0.217776 10.127 0)
(-0.26016 10.1792 0)
(-0.302148 10.2452 0)
(-0.341033 10.3259 0)
(-0.373724 10.4213 0)
(-0.396927 10.5304 0)
(-0.405791 10.6525 0)
(-0.400975 10.7819 0)
(-0.388447 10.9139 0)
(-0.369131 11.047 0)
(-0.343927 11.179 0)
(-0.313617 11.3067 0)
(-0.279028 11.4249 0)
(-0.241243 11.5249 0)
(-0.201283 11.5929 0)
(-0.160426 11.6112 0)
(-0.118323 11.5943 0)
(-0.0753593 11.5399 0)
(-0.03605 11.2683 0)
(-0.00211581 10.0295 0)
(0.000662442 10.0002 0)
(0.00142103 10.0013 0)
(0.00112429 10.0031 0)
(-0.000316552 10.0049 0)
(-0.00328759 10.0067 0)
(-0.00812535 10.0083 0)
(-0.0152715 10.0097 0)
(-0.0252945 10.0111 0)
(-0.0388585 10.013 0)
(-0.0566851 10.016 0)
(-0.0794874 10.0211 0)
(-0.107857 10.03 0)
(-0.142086 10.0447 0)
(-0.181919 10.0678 0)
(-0.226261 10.1024 0)
(-0.27342 10.1503 0)
(-0.321525 10.2125 0)
(-0.36792 10.29 0)
(-0.409467 10.3834 0)
(-0.442731 10.4922 0)
(-0.464214 10.6151 0)
(-0.468774 10.7507 0)
(-0.457798 10.8926 0)
(-0.438526 11.0355 0)
(-0.412207 11.178 0)
(-0.379982 11.3181 0)
(-0.342953 11.4528 0)
(-0.302348 11.5771 0)
(-0.259437 11.6826 0)
(-0.215128 11.7548 0)
(-0.171487 11.7977 0)
(-0.126738 11.8091 0)
(-0.0805043 11.7551 0)
(-0.0391459 11.4535 0)
(-0.00396926 10.135 0)
(0.00135079 10.0012 0)
(0.000618498 10.0002 0)
(0.00102693 10.0029 0)
(-0.000421379 10.0046 0)
(-0.00337729 10.0062 0)
(-0.00817504 10.0075 0)
(-0.0152566 10.0085 0)
(-0.0251955 10.0093 0)
(-0.0386737 10.0102 0)
(-0.0564535 10.0118 0)
(-0.079329 10.015 0)
(-0.108037 10.021 0)
(-0.143113 10.0319 0)
(-0.184684 10.0499 0)
(-0.232177 10.0782 0)
(-0.283998 10.1202 0)
(-0.337903 10.1777 0)
(-0.391574 10.2511 0)
(-0.441873 10.3414 0)
(-0.485253 10.4485 0)
(-0.517998 10.5716 0)
(-0.536499 10.7086 0)
(-0.535413 10.8577 0)
(-0.51701 11.0117 0)
(-0.489931 11.165 0)
(-0.455765 11.3161 0)
(-0.415991 11.4635 0)
(-0.372095 11.6043 0)
(-0.325496 11.7337 0)
(-0.277491 11.8428 0)
(-0.230365 11.9374 0)
(-0.183312 12.005 0)
(-0.134919 12.0216 0)
(-0.0856252 11.9645 0)
(-0.0420388 11.633 0)
(-0.00573856 10.2433 0)
(0.000941673 10.0028 0)
(0.00127032 10.0012 0)
(0.000566203 10.0002 0)
(-0.00050846 10.0044 0)
(-0.0034451 10.0058 0)
(-0.00819795 10.0069 0)
(-0.0152056 10.0075 0)
(-0.0250413 10.0077 0)
(-0.0383961 10.0077 0)
(-0.0560575 10.0081 0)
(-0.0788754 10.0095 0)
(-0.107692 10.013 0)
(-0.14323 10.0204 0)
(-0.185916 10.0337 0)
(-0.23564 10.056 0)
(-0.291418 10.0906 0)
(-0.351051 10.1414 0)
(-0.411689 10.2097 0)
(-0.470542 10.2957 0)
(-0.523998 10.3999 0)
(-0.568154 10.5217 0)
(-0.599103 10.6597 0)
(-0.613234 10.811 0)
(-0.605097 10.9734 0)
(-0.578014 11.139 0)
(-0.542133 11.3018 0)
(-0.499443 11.4607 0)
(-0.451805 11.6143 0)
(-0.400938 11.7601 0)
(-0.348303 11.893 0)
(-0.297181 12.0235 0)
(-0.246535 12.1401 0)
(-0.194635 12.2108 0)
(-0.142638 12.2295 0)
(-0.0904924 12.1669 0)
(-0.0446457 11.8062 0)
(-0.00735635 10.3525 0)
(-0.000585903 10.0042 0)
(0.000852937 10.0027 0)
(0.00117263 10.0011 0)
(0.000516462 10.0002 1.8764e-19)
(-0.00349628 10.0055 0)
(-0.00820061 10.0063 0)
(-0.0151296 10.0066 0)
(-0.0248509 10.0063 0)
(-0.0380576 10.0056 0)
(-0.0555515 10.0048 0)
(-0.0782184 10.0046 0)
(-0.106975 10.0059 0)
(-0.142682 10.0102 0)
(-0.185998 10.0193 0)
(-0.237185 10.0359 0)
(-0.295807 10.0633 0)
(-0.360367 10.1054 0)
(-0.427973 10.1663 0)
(-0.495096 10.2469 0)
(-0.558489 10.3469 0)
(-0.614107 10.466 0)
(-0.657768 10.6033 0)
(-0.685482 10.7564 0)
(-0.693759 10.922 0)
(-0.677157 11.0974 0)
(-0.640202 11.2738 0)
(-0.594664 11.4452 0)
(-0.542953 11.6108 0)
(-0.487207 11.7696 0)
(-0.429257 11.9187 0)
(-0.373097 12.0725 0)
(-0.317995 12.2239 0)
(-0.261786 12.3414 0)
(-0.205241 12.4128 0)
(-0.149745 12.431 0)
(-0.0949932 12.3615 0)
(-0.0469403 11.9727 0)
(-0.00879458 10.461 0)
(-0.00354396 10.0052 0)
(-0.000648519 10.004 0)
(0.000753687 10.0025 8.38117e-19)
(0.00107911 10.001 -5.94564e-19)
(0.000469128 10.0002 -3.74234e-19)
(-0.0081888 10.0058 0)
(-0.0150363 10.0058 0)
(-0.0246383 10.005 0)
(-0.0376828 10.0037 0)
(-0.0549769 10.002 0)
(-0.0774282 10.0003 0)
(-0.106004 9.99965 0)
(-0.141662 10.0011 0)
(-0.18524 10.0063 0)
(-0.237286 10.0178 0)
(-0.297813 10.0385 0)
(-0.365972 10.0722 0)
(-0.439659 10.1232 0)
(-0.515168 10.1956 0)
(-0.588267 10.29 0)
(-0.655293 10.4051 0)
(-0.711834 10.5402 0)
(-0.753532 10.6935 0)
(-0.776445 10.8619 0)
(-0.777342 11.0415 0)
(-0.750894 11.2291 0)
(-0.702991 11.4154 0)
(-0.647101 11.5943 0)
(-0.585969 11.7655 0)
(-0.521905 11.9278 0)
(-0.459962 12.0978 0)
(-0.399287 12.272 0)
(-0.337522 12.4229 0)
(-0.275927 12.539 0)
(-0.214973 12.6093 0)
(-0.156173 12.6253 0)
(-0.0990674 12.5479 0)
(-0.0489315 12.1322 0)
(-0.0100478 10.5674 0)
(-0.008183 10.0054 0)
(-0.00354393 10.0048 -1.79109e-18)
(-0.000699177 10.0037 -8.84074e-19)
(0.000660192 10.0023 4.1814e-19)
(0.000989483 10.0009 -3.95183e-19)
(0.000424266 10.0001 0)
(-0.0149319 10.0051 0)
(-0.0244126 10.0039 0)
(-0.0372893 10.002 0)
(-0.0543653 9.99941 0)
(-0.0765586 9.99655 0)
(-0.104869 9.99408 0)
(-0.140323 9.993 0)
(-0.183886 9.99483 0)
(-0.23633 10.0016 0)
(-0.298022 10.0162 0)
(-0.368645 10.042 0)
(-0.446847 10.0832 0)
(-0.529792 10.1444 0)
(-0.612878 10.2299 0)
(-0.691164 10.3395 0)
(-0.760647 10.4709 0)
(-0.816643 10.6228 0)
(-0.854744 10.7924 0)
(-0.871202 10.976 0)
(-0.863188 11.169 0)
(-0.825601 11.3679 0)
(-0.765817 11.563 0)
(-0.699001 11.7482 0)
(-0.628127 11.9234 0)
(-0.559483 12.1066 0)
(-0.492368 12.2968 0)
(-0.423806 12.47 0)
(-0.355579 12.6183 0)
(-0.288807 12.7315 0)
(-0.22376 12.7992 0)
(-0.161897 12.8117 0)
(-0.10269 12.7256 0)
(-0.0506403 12.2842 0)
(-0.0111228 10.6708 0)
(-0.0148475 10.0044 0)
(-0.00808036 10.0048 3.7773e-18)
(-0.00348423 10.0044 0)
(-0.000745603 10.0034 8.81805e-19)
(0.000573169 10.0021 1.3768e-22)
(0.000903673 10.0009 0)
(0.000381899 10.0001 0)
(-0.0241803 10.003 0)
(-0.0368882 10.0005 0)
(-0.0537393 9.99716 0)
(-0.0756501 9.9932 0)
(-0.103639 9.98915 0)
(-0.138779 9.98585 0)
(-0.182127 9.98459 0)
(-0.234623 9.9872 0)
(-0.296908 9.99616 0)
(-0.369095 10.0147 0)
(-0.450458 10.0467 0)
(-0.539016 10.0968 0)
(-0.631108 10.1698 0)
(-0.721161 10.2699 0)
(-0.803558 10.3961 0)
(-0.87406 10.5448 0)
(-0.927837 10.714 0)
(-0.960582 10.9 0)
(-0.968893 11.0984 0)
(-0.950478 11.304 0)
(-0.900569 11.5131 0)
(-0.828119 11.7158 0)
(-0.749907 11.9056 0)
(-0.673785 12.1021 0)
(-0.599157 12.3057 0)
(-0.522671 12.4947 0)
(-0.44645 12.6647 0)
(-0.372022 12.8088 0)
(-0.300383 12.9177 0)
(-0.231581 12.9818 0)
(-0.166925 12.9897 0)
(-0.105863 12.8945 0)
(-0.0520921 12.4286 0)
(-0.0120332 10.7704 0)
(-0.0239875 10.0021 0)
(-0.0145951 10.0037 4.91983e-22)
(-0.00783958 10.0042 0)
(-0.00342412 10.0039 -9.29792e-19)
(-0.000782229 10.0031 8.51755e-23)
(0.000492494 10.002 0)
(0.000821804 10.0008 0)
(0.000342032 10.0001 0)
(-0.0364862 9.99919 0)
(-0.0531123 9.99517 0)
(-0.0747321 9.99024 0)
(-0.102367 9.98478 0)
(-0.137119 9.9795 0)
(-0.180111 9.97549 0)
(-0.232403 9.97434 0)
(-0.294849 9.97825 0)
(-0.367899 9.99013 0)
(-0.451341 10.0136 0)
(-0.543917 10.0532 0)
(-0.642922 10.1136 0)
(-0.743775 10.2 0)
(-0.839888 10.3163 0)
(-0.925022 10.4603 0)
(-0.994862 10.6272 0)
(-1.04458 10.8139 0)
(-1.07014 11.0161 0)
(-1.06861 11.2287 0)
(-1.03839 11.4459 0)
(-0.975109 11.664 0)
(-0.889315 11.8724 0)
(-0.805083 12.0842 0)
(-0.722024 12.3014 0)
(-0.636264 12.504 0)
(-0.550646 12.6896 0)
(-0.467078 12.8546 0)
(-0.386806 12.9933 0)
(-0.310664 13.097 0)
(-0.23846 13.1563 0)
(-0.171285 13.1589 0)
(-0.108604 13.0544 0)
(-0.0533123 12.5652 0)
(-0.0127958 10.8657 0)
(-0.0361505 9.99802 0)
(-0.023527 10.0011 -2.09868e-18)
(-0.0140853 10.0029 0)
(-0.0076061 10.0036 0)
(-0.00334934 10.0035 2.78103e-18)
(-0.000809236 10.0028 0)
(0.000418207 10.0018 0)
(0.000743985 10.0007 7.81471e-19)
(0.000304694 10.0001 0)
(-0.0524913 9.99341 0)
(-0.0738209 9.98761 0)
(-0.10109 9.98092 0)
(-0.135411 9.97388 0)
(-0.17795 9.96743 0)
(-0.229857 9.96292 0)
(-0.292142 9.96229 0)
(-0.36552 9.96816 0)
(-0.450189 9.98388 0)
(-0.545495 10.0136 0)
(-0.649554 10.062 0)
(-0.75884 10.1344 0)
(-0.867775 10.2358 0)
(-0.968723 10.3697 0)
(-1.05495 10.5325 0)
(-1.12223 10.7182 0)
(-1.16592 10.9225 0)
(-1.18242 11.1405 0)
(-1.16944 11.3663 0)
(-1.12612 11.5939 0)
(-1.04853 11.8192 0)
(-0.955748 12.0505 0)
(-0.863436 12.2839 0)
(-0.767171 12.5003 0)
(-0.670538 12.6994 0)
(-0.576146 12.8798 0)
(-0.485642 13.0387 0)
(-0.399953 13.171 0)
(-0.319691 13.2687 0)
(-0.244445 13.3226 0)
(-0.175025 13.3192 0)
(-0.110946 13.2054 0)
(-0.0543275 12.6942 0)
(-0.0134289 10.9564 0)
(-0.0519723 9.99186 0)
(-0.0354097 9.99673 0)
(-0.0226362 10 -2.18406e-18)
(-0.0135963 10.0021 -2.06674e-18)
(-0.00735123 10.003 -3.90896e-18)
(-0.00325979 10.0031 0)
(-0.000826628 10.0025 -1.74553e-18)
(0.000350465 10.0017 -1.64827e-18)
(0.000670232 10.0007 7.7776e-19)
(0.00026984 10.0001 0)
(-0.0729236 9.98529 0)
(-0.0998283 9.97749 0)
(-0.133702 9.96891 0)
(-0.17573 9.96027 0)
(-0.227126 9.95277 0)
(-0.289019 9.94807 0)
(-0.362324 9.94852 0)
(-0.447565 9.95716 0)
(-0.544577 9.97781 0)
(-0.652174 10.015 0)
(-0.767752 10.074 0)
(-0.886866 10.1599 0)
(-1.00288 10.2779 0)
(-1.10714 10.4307 0)
(-1.19254 10.6134 0)
(-1.25521 10.818 0)
(-1.29083 11.0398 0)
(-1.29641 11.2728 0)
(-1.27044 11.5107 0)
(-1.21285 11.747 0)
(-1.12849 11.9964 0)
(-1.02617 12.2504 0)
(-0.918113 12.4836 0)
(-0.808899 12.6968 0)
(-0.701813 12.8905 0)
(-0.599125 13.0644 0)
(-0.502168 13.2162 0)
(-0.411523 13.3413 0)
(-0.327537 13.4324 0)
(-0.249596 13.4803 0)
(-0.178195 13.4706 0)
(-0.112924 13.3476 0)
(-0.0551632 12.8155 0)
(-0.0139497 11.0424 0)
(-0.0721754 9.98323 0)
(-0.0508631 9.99016 -2.33363e-18)
(-0.0339958 9.99531 2.30051e-18)
(-0.0217883 9.99897 -1.17669e-21)
(-0.0130767 10.0013 2.05974e-18)
(-0.00707483 10.0025 1.94767e-18)
(-0.00315601 10.0027 3.68039e-18)
(-0.00083427 10.0023 2.60674e-18)
(0.000289228 10.0015 -8.20201e-19)
(0.000600588 10.0006 0)
(0.000237454 10.0001 0)
(-0.0985897 9.97446 0)
(-0.132017 9.96449 0)
(-0.173511 9.95393 0)
(-0.224318 9.94376 0)
(-0.285656 9.93544 0)
(-0.358595 9.93102 0)
(-0.443911 9.93326 0)
(-0.541834 9.94566 0)
(-0.651754 9.9725 0)
(-0.771858 10.0188 0)
(-0.898718 10.0898 0)
(-1.02689 10.191 0)
(-1.14867 10.3271 0)
(-1.25441 10.5 0)
(-1.33687 10.7031 0)
(-1.39273 10.9268 0)
(-1.41822 11.1654 0)
(-1.41109 11.4124 0)
(-1.37067 11.6608 0)
(-1.30767 11.9226 0)
(-1.21357 12.1962 0)
(-1.09236 12.451 0)
(-0.968744 12.6813 0)
(-0.847009 12.8892 0)
(-0.730029 13.0762 0)
(-0.619616 13.2426 0)
(-0.516732 13.3865 0)
(-0.421605 13.5038 0)
(-0.334289 13.5878 0)
(-0.253985 13.6294 0)
(-0.180852 13.6133 0)
(-0.114575 13.4812 0)
(-0.0558432 12.9295 0)
(-0.0143742 11.1235 0)
(-0.0975611 9.97177 0)
(-0.0705915 9.98103 -3.46652e-21)
(-0.0487498 9.98833 0)
(-0.0326594 9.99394 -1.88996e-21)
(-0.0208977 9.99795 0)
(-0.0125262 10.0005 -2.05235e-18)
(-0.00677775 10.0019 -3.8794e-18)
(-0.0030378 10.0023 8.92374e-23)
(-0.00083233 10.0021 1.72931e-18)
(0.000234214 10.0014 -8.15826e-19)
(0.000535043 10.0005 7.69332e-19)
(0.000207503 10.0001 0)
(-0.130365 9.96058 0)
(-0.171324 9.9483 0)
(-0.22151 9.93576 0)
(-0.28219 9.9242 0)
(-0.354554 9.91544 0)
(-0.439578 9.91192 0)
(-0.537802 9.91683 0)
(-0.649088 9.93415 0)
(-0.772289 9.96861 0)
(-0.904864 10.0255 0)
(-1.04246 10.1104 0)
(-1.17861 10.2286 0)
(-1.30452 10.3841 0)
(-1.40966 10.5781 0)
(-1.48688 10.8019 0)
(-1.53367 11.0444 0)
(-1.54698 11.2991 0)
(-1.5254 11.5585 0)
(-1.48072 11.834 0)
(-1.40897 12.1218 0)
(-1.29382 12.3978 0)
(-1.15385 12.6504 0)
(-1.01512 12.8754 0)
(-0.881444 13.0764 0)
(-0.75522 13.2556 0)
(-0.637709 13.4136 0)
(-0.529447 13.5491 0)
(-0.43031 13.6583 0)
(-0.340046 13.735 0)
(-0.257687 13.77 0)
(-0.183054 13.7474 0)
(-0.115936 13.6065 0)
(-0.0563892 13.0363 0)
(-0.014717 11.1999 0)
(-0.129 9.95711 0)
(-0.0953752 9.96895 2.58812e-18)
(-0.0675617 9.97871 -2.55751e-18)
(-0.0467645 9.98658 2.41734e-18)
(-0.0312648 9.99262 0)
(-0.0199634 9.99697 0)
(-0.0119465 9.99982 2.04394e-18)
(-0.00646053 10.0014 -1.93069e-18)
(-0.00290528 10.002 1.19318e-22)
(-0.000820424 10.0018 8.60142e-19)
(0.00018553 10.0013 -8.11238e-19)
(0.000473519 10.0005 -7.63929e-19)
(0.000180118 10.0001 0)
(-0.16918 9.94331 0)
(-0.21874 9.92866 0)
(-0.278717 9.91422 0)
(-0.35037 9.90157 0)
(-0.434834 9.89288 0)
(-0.532903 9.89104 0)
(-0.644814 9.89969 0)
(-0.769975 9.92329 0)
(-0.906601 9.96695 0)
(-1.05132 10.0362 0)
(-1.19881 10.1368 0)
(-1.34151 10.2734 0)
(-1.46962 10.4496 0)
(-1.57186 10.6654 0)
(-1.64141 10.9099 0)
(-1.67685 11.1707 0)
(-1.67597 11.44 0)
(-1.65154 11.7283 0)
(-1.59886 12.0318 0)
(-1.50494 12.3239 0)
(-1.36864 12.5989 0)
(-1.21034 12.8467 0)
(-1.05715 13.0648 0)
(-0.912262 13.2576 0)
(-0.777494 13.428 0)
(-0.653538 13.577 0)
(-0.540449 13.7037 0)
(-0.43776 13.8047 0)
(-0.344911 13.8739 0)
(-0.260778 13.9023 0)
(-0.184858 13.8732 0)
(-0.117045 13.7238 0)
(-0.056822 13.1362 0)
(-0.0149909 11.2715 0)
(-0.167422 9.93888 0)
(-0.126063 9.95351 0)
(-0.0911652 9.96602 2.69003e-18)
(-0.0647304 9.97649 -5.1019e-18)
(-0.0447006 9.9849 4.82542e-18)
(-0.02981 9.99137 -4.56178e-18)
(-0.0189891 9.99604 0)
(-0.0113387 9.99914 2.03541e-18)
(-0.00612342 10.0009 -1.92105e-18)
(-0.00275979 10.0016 -1.8133e-18)
(-0.000797893 10.0016 0)
(0.000142881 10.0011 8.05517e-19)
(0.000416146 10.0004 0)
(0.000155801 10 0)
(-0.216023 9.92236 0)
(-0.275282 9.90536 0)
(-0.346163 9.88924 0)
(-0.42989 9.87593 0)
(-0.527466 9.86801 0)
(-0.639439 9.86881 0)
(-0.765669 9.88248 0)
(-0.905008 9.91387 0)
(-1.05493 9.96845 0)
(-1.21116 10.0519 0)
(-1.36735 10.1697 0)
(-1.5149 10.3263 0)
(-1.64302 10.5243 0)
(-1.73986 10.7621 0)
(-1.79926 11.0272 0)
(-1.82106 11.305 0)
(-1.81908 11.6051 0)
(-1.78771 11.9236 0)
(-1.71141 12.2337 0)
(-1.59485 12.5266 0)
(-1.43761 12.7979 0)
(-1.26168 13.0388 0)
(-1.09487 13.2484 0)
(-0.939594 13.432 0)
(-0.79701 13.5929 0)
(-0.667261 13.7326 0)
(-0.549887 13.8503 0)
(-0.444079 13.943 0)
(-0.348982 14.0047 0)
(-0.263333 14.0264 0)
(-0.186315 13.991 0)
(-0.117935 13.8335 0)
(-0.0571593 13.2296 0)
(-0.015206 11.3386 0)
(-0.213811 9.91677 0)
(-0.163562 9.93433 0)
(-0.12036 9.94984 0)
(-0.0872533 9.96322 5.36566e-18)
(-0.0617967 9.97437 -5.07776e-18)
(-0.042557 9.98331 4.80177e-18)
(-0.0283021 9.99018 0)
(-0.0179764 9.99516 -2.14375e-18)
(-0.0107032 9.99849 0)
(-0.00576725 10.0005 1.91067e-18)
(-0.00260016 10.0013 0)
(-0.000766342 10.0014 0)
(0.000107467 10.001 0)
(0.000364194 10.0004 7.78733e-19)
(0.000134585 10 3.75099e-19)
(-0.27191 9.89748 0)
(-0.341988 9.87828 0)
(-0.424895 9.86083 0)
(-0.521748 9.84746 0)
(-0.633362 9.84119 0)
(-0.759972 9.84582 0)
(-0.900963 9.86594 0)
(-1.05453 9.90681 0)
(-1.21734 9.97411 0)
(-1.38412 10.0736 0)
(-1.54752 10.2103 0)
(-1.6979 10.3881 0)
(-1.82363 10.6085 0)
(-1.9125 10.8686 0)
(-1.95919 11.1533 0)
(-1.98204 11.4639 0)
(-1.97455 11.7967 0)
(-1.91824 12.1247 0)
(-1.81747 12.4378 0)
(-1.67819 12.7284 0)
(-1.50055 12.9933 0)
(-1.3079 13.2257 0)
(-1.12842 13.4256 0)
(-0.963628 13.5991 0)
(-0.813976 13.7501 0)
(-0.679059 13.8802 0)
(-0.557915 13.9889 0)
(-0.449389 14.0733 0)
(-0.352356 14.1276 0)
(-0.265419 14.1428 0)
(-0.187475 14.1012 0)
(-0.118636 13.9359 0)
(-0.0574165 13.3167 0)
(-0.0153705 11.4013 0)
(-0.269191 9.89049 0)
(-0.208836 9.91107 0)
(-0.156002 9.92977 5.98433e-18)
(-0.115089 9.94635 5.66633e-18)
(-0.0832079 9.96058 5.36015e-18)
(-0.0587596 9.97238 -5.06733e-18)
(-0.040344 9.98182 0)
(-0.026743 9.98906 0)
(-0.0169264 9.99433 0)
(-0.0100415 9.99789 4.02839e-18)
(-0.00539411 10 1.89988e-18)
(-0.0024268 10.001 1.78979e-18)
(-0.000725791 10.0012 0)
(7.85652e-05 10.0009 -8.21053e-19)
(0.000317496 10.0004 -3.96186e-19)
(0.000115993 10 0)
(-0.337882 9.86853 0)
(-0.419915 9.8474 0)
(-0.515933 9.82914 0)
(-0.626894 9.8165 0)
(-0.753362 9.81297 0)
(-0.895175 9.8228 0)
(-1.05114 9.85101 0)
(-1.21872 9.90315 0)
(-1.39367 9.98504 0)
(-1.56975 10.1022 0)
(-1.73854 10.2594 0)
(-1.8895 10.4595 0)
(-2.01034 10.7029 0)
(-2.08852 10.9847 0)
(-2.13892 11.3042 0)
(-2.15821 11.6502 0)
(-2.12473 11.9959 0)
(-2.04214 12.3296 0)
(-1.91643 12.6422 0)
(-1.75471 12.9277 0)
(-1.55747 13.1842 0)
(-1.34912 13.4063 0)
(-1.158 13.5956 0)
(-0.984591 13.7585 0)
(-0.828614 13.8993 0)
(-0.689119 14.0198 0)
(-0.564685 14.1195 0)
(-0.453812 14.1958 0)
(-0.355122 14.2429 0)
(-0.267102 14.2517 0)
(-0.188382 14.204 0)
(-0.119178 14.0315 0)
(-0.0576045 13.3979 0)
(-0.0154959 11.4598 0)
(-0.334609 9.85987 0)
(-0.26288 9.88341 0)
(-0.198998 9.90543 -1.25898e-17)
(-0.149046 9.92545 1.78193e-20)