/*--------------------------------*- C++ -*----------------------------------*\
  =========                 |
  \\      /  F ield         | OpenFOAM: The Open Source CFD Toolbox
   \\    /   O peration     | Website:  https://openfoam.org
    \\  /    A nd           | Version:  8
     \\/     M anipulation  |
\*---------------------------------------------------------------------------*/
FoamFile
{
    version     2.0;
    format      ascii;
    class       surfaceScalarField;
    location    "0.05";
    object      phi;
}
// * * * * * * * * * * * * * * * * * * * * * * * * * * * * * * * * * * * * * //

dimensions      [1 0 -1 0 0 0 0];

internalField   nonuniform List<scalar> 
7690
(
4.93858e-08
3.07903e-06
2.4836e-05
-1.19236e-07
1.31833e-07
5.6275e-06
5.14101e-08
3.02781e-06
2.44104e-05
-4.16894e-07
2.50881e-05
-8.11938e-08
2.33925e-07
7.83519e-06
1.38204e-07
5.54098e-06
5.27402e-08
2.97524e-06
2.3969e-05
-7.06221e-07
2.49321e-05
-2.60686e-07
2.51021e-05
-5.57721e-08
3.47145e-07
1.0332e-05
2.47515e-07
7.72625e-06
1.43032e-07
5.45094e-06
5.34437e-08
2.92196e-06
2.34703e-05
-9.80063e-07
2.46932e-05
-4.67146e-07
2.50307e-05
-1.89099e-07
2.5118e-05
-4.53501e-08
4.53498e-07
1.31921e-05
3.72082e-07
1.0208e-05
2.58589e-07
7.61105e-06
1.46368e-07
5.35825e-06
5.35261e-08
2.86856e-06
2.29556e-05
-1.26022e-06
2.44079e-05
-6.94634e-07
2.49139e-05
-3.50126e-07
2.50815e-05
-1.52473e-07
2.51237e-05
-3.99911e-08
5.28851e-07
1.63768e-05
4.9495e-07
1.307e-05
3.93426e-07
1.00737e-05
2.67069e-07
7.49069e-06
1.48087e-07
5.26389e-06
5.34169e-08
2.81525e-06
2.24736e-05
-1.5388e-06
2.40892e-05
-9.41234e-07
2.47564e-05
-5.36942e-07
2.50162e-05
-2.84604e-07
2.51066e-05
-1.3519e-07
2.51308e-05
-4.11227e-08
5.63401e-07
1.98298e-05
5.90558e-07
1.62822e-05
5.31979e-07
1.29322e-05
4.10849e-07
9.93037e-06
2.7275e-07
7.36634e-06
1.48687e-07
5.1688e-06
5.30921e-08
2.76223e-06
2.2033e-05
-1.80708e-06
2.37528e-05
-1.20217e-06
2.45633e-05
-7.47954e-07
2.49218e-05
-4.42378e-07
2.50748e-05
-2.526e-07
2.51304e-05
-1.34599e-07
2.51324e-05
-4.31698e-08
5.72181e-07
2.34183e-05
6.44702e-07
1.9777e-05
6.47977e-07
1.61673e-05
5.63906e-07
1.27798e-05
4.24126e-07
9.77945e-06
2.7589e-07
7.23941e-06
1.48393e-07
5.07365e-06
5.22315e-08
2.71004e-06
2.16411e-05
-2.06706e-06
2.34178e-05
-1.47185e-06
2.43423e-05
-9.8094e-07
2.48001e-05
-6.26046e-07
2.50259e-05
-3.93267e-07
2.51254e-05
-2.47437e-07
2.51524e-05
-1.5436e-07
2.51836e-05
-9.59349e-08
5.71135e-07
2.72275e-05
6.70522e-07
2.33942e-05
7.22493e-07
1.97038e-05
7.00084e-07
1.60321e-05
5.90274e-07
1.26143e-05
4.3324e-07
9.62253e-06
2.76937e-07
7.11111e-06
1.46675e-07
4.97932e-06
5.07721e-08
2.65928e-06
2.12985e-05
-2.32916e-06
2.30987e-05
-1.74772e-06
2.41042e-05
-1.23355e-06
2.46546e-05
-8.35243e-07
2.49585e-05
-5.58511e-07
2.51123e-05
-3.79928e-07
2.51801e-05
-2.75044e-07
2.52484e-05
-2.18973e-07
2.49944e-05
4.40493e-08
5.67672e-07
3.14538e-05
6.85795e-07
2.72143e-05
7.65606e-07
2.33528e-05
7.95662e-07
1.96096e-05
7.45997e-07
1.58773e-05
6.10905e-07
1.24373e-05
4.38545e-07
9.46132e-06
2.75464e-07
6.98253e-06
1.43603e-07
4.88656e-06
4.89558e-08
2.61029e-06
2.10056e-05
-2.59654e-06
2.28006e-05
-2.03078e-06
2.38603e-05
-1.50346e-06
2.44908e-05
-1.06945e-06
2.48729e-05
-7.49346e-07
2.5088e-05
-5.34032e-07
2.52037e-05
-4.03239e-07
2.52884e-05
-3.14849e-07
2.49668e-05
-1.91037e-07
1.44975e-06
-1.40644e-06
5.65319e-07
3.62481e-05
6.9955e-07
3.14425e-05
7.96907e-07
2.71851e-05
8.5636e-07
2.32939e-05
8.63164e-07
1.94938e-05
7.85205e-07
1.5704e-05
6.25882e-07
1.22506e-05
4.39841e-07
9.2973e-06
2.71691e-07
6.85461e-06
1.39551e-07
4.79599e-06
4.69554e-08
2.56325e-06
2.07661e-05
-2.86561e-06
2.2526e-05
-2.3216e-06
2.36191e-05
-1.78934e-06
2.4315e-05
-1.32747e-06
2.47706e-05
-9.66889e-07
2.50504e-05
-7.11487e-07
2.52164e-05
-5.46535e-07
2.53006e-05
-4.15281e-07
2.4826e-05
-1.74069e-07
2.43112e-06
-1.17327e-06
-4.84437e-07
-9.23138e-07
5.67132e-07
4.16944e-05
7.16114e-07
3.62344e-05
8.27278e-07
3.14146e-05
9.03377e-07
2.71403e-05
9.41752e-07
2.32171e-05
9.24299e-07
1.93561e-05
8.17457e-07
1.55133e-05
6.34841e-07
1.20562e-05
4.37554e-07
9.13175e-06
2.66088e-07
6.72819e-06
1.34858e-07
4.70806e-06
4.48959e-08
2.51824e-06
2.05796e-05
-3.13688e-06
2.22805e-05
-2.61978e-06
2.33881e-05
-2.09024e-06
2.4134e-05
-1.60802e-06
2.46545e-05
-1.2111e-06
2.4999e-05
-9.15296e-07
2.52128e-05
-7.07685e-07
2.52851e-05
-5.30838e-07
2.45668e-05
-1.56045e-07
3.23405e-06
-9.77873e-07
-5.19594e-07
-1.13932e-06
-3.0018e-07
-6.2425e-07
5.7732e-07
4.79302e-05
7.38951e-07
4.16748e-05
8.6194e-07
3.62026e-05
9.4969e-07
3.13708e-05
1.00413e-06
2.708e-05
1.02114e-06
2.3122e-05
9.78648e-07
1.91963e-05
8.41853e-07
1.53072e-05
6.38431e-07
1.18558e-05
4.32171e-07
8.96592e-06
2.5908e-07
6.60403e-06
1.29919e-07
4.62297e-06
4.32663e-08
2.4748e-06
2.0443e-05
-3.41181e-06
2.20687e-05
-2.92471e-06
2.31736e-05
-2.40499e-06
2.39539e-05
-1.90979e-06
2.45278e-05
-1.48109e-06
2.49332e-05
-1.14496e-06
2.51901e-05
-8.9239e-07
2.52454e-05
-6.67797e-07
2.41922e-05
-1.56161e-07
3.94636e-06
-8.6928e-07
-3.17906e-07
-1.18082e-06
-5.53559e-07
-8.87313e-07
-1.53004e-07
-4.72689e-07
6.0238e-07
5.50883e-05
7.72509e-07
4.79003e-05
9.04783e-07
4.16353e-05
1.00154e-06
3.61536e-05
1.0656e-06
3.13119e-05
1.09853e-06
2.70048e-05
1.09427e-06
2.30082e-05
1.02487e-06
1.90145e-05
8.58961e-07
1.50875e-05
6.37068e-07
1.16514e-05
4.24291e-07
8.80091e-06
2.51407e-07
6.48255e-06
1.25502e-07
4.54061e-06
4.18929e-08
2.43269e-06
2.03544e-05
-3.68929e-06
2.18931e-05
-3.23583e-06
2.29806e-05
-2.73137e-06
2.37802e-05
-2.231e-06
2.43951e-05
-1.77675e-06
2.48524e-05
-1.40002e-06
2.5147e-05
-1.10162e-06
2.51781e-05
-8.24902e-07
2.37051e-05
-1.80718e-07
4.59671e-06
-8.07459e-07
-7.43009e-09
-1.18105e-06
-6.99623e-07
-1.03622e-06
-3.69371e-07
-6.72491e-07
-1.27233e-07
-3.47068e-07
6.41155e-07
5.22908e-05
8.23343e-07
5.50417e-05
9.60513e-07
4.78484e-05
1.06326e-06
4.15769e-05
1.13358e-06
3.60886e-05
1.17434e-06
3.12386e-05
1.1864e-06
2.69148e-05
1.15983e-06
2.28749e-05
1.0633e-06
1.88114e-05
8.68894e-07
1.48565e-05
6.31608e-07
1.14445e-05
4.14883e-07
8.63756e-06
2.43942e-07
6.36405e-06
1.21474e-07
4.46084e-06
4.04698e-08
2.39195e-06
2.03106e-05
-3.9703e-06
2.17549e-05
-3.55058e-06
2.28121e-05
-3.06684e-06
2.36175e-05
-2.56833e-06
2.4261e-05
-2.09662e-06
2.47609e-05
-1.68497e-06
2.50836e-05
-1.33634e-06
2.5067e-05
-9.90374e-07
2.31027e-05
-2.22653e-07
5.18967e-06
-7.74638e-07
3.66912e-07
-1.18314e-06
-7.46206e-07
-1.13601e-06
-5.87129e-07
-8.20108e-07
-2.90842e-07
-5.10607e-07
-1.08099e-07
-2.4077e-07
6.97479e-07
5.2311e-05
8.86386e-07
5.22317e-05
1.03591e-06
5.49706e-05
1.13981e-06
4.77757e-05
1.21287e-06
4.1501e-05
1.25727e-06
3.60086e-05
1.2757e-06
3.11519e-05
1.26651e-06
2.68103e-05
1.21831e-06
2.27216e-05
1.09356e-06
1.8588e-05
8.72493e-07
1.46163e-05
6.23222e-07
1.12365e-05
4.0477e-07
8.47679e-06
2.36724e-07
6.24867e-06
1.17458e-07
4.38361e-06
3.93111e-08
2.35232e-06
2.03068e-05
-4.2489e-06
2.16514e-05
-3.86643e-06
2.26691e-05
-3.40718e-06
2.34689e-05
-2.9178e-06
2.41299e-05
-2.43677e-06
2.46631e-05
-1.99855e-06
2.50002e-05
-1.60134e-06
2.49082e-05
-1.17731e-06
2.23815e-05
-2.69322e-07
5.718e-06
-7.51974e-07
7.78601e-07
-1.18772e-06
-7.18525e-07
-1.21245e-06
-7.76251e-07
-9.48648e-07
-4.79798e-07
-6.32994e-07
-2.50986e-07
-3.69644e-07
-9.42161e-08
-1.4857e-07
7.73442e-07
5.23079e-05
9.66083e-07
5.22352e-05
1.12154e-06
5.21501e-05
1.23807e-06
5.48767e-05
1.30863e-06
4.76838e-05
1.35269e-06
4.1409e-05
1.37242e-06
3.59148e-05
1.36844e-06
3.10525e-05
1.33955e-06
2.66912e-05
1.26931e-06
2.25476e-05
1.11601e-06
1.83456e-05
8.71167e-07
1.4369e-05
6.12588e-07
1.10289e-05
3.94577e-07
8.31891e-06
2.29534e-07
6.1364e-06
1.13964e-07
4.30865e-06
3.82871e-08
2.31367e-06
-4.51888e-06
2.03373e-05
2.15801e-05
-4.17702e-06
2.25511e-05
-3.74802e-06
2.33362e-05
-3.27407e-06
2.40044e-05
-2.79201e-06
2.45629e-05
-2.33618e-06
2.4898e-05
-1.89602e-06
2.46955e-05
-1.38852e-06
2.15394e-05
-3.35532e-07
6.17426e-06
-7.26599e-07
1.21082e-06
-1.18564e-06
-6.35795e-07
-1.27217e-06
-9.2279e-07
-1.06778e-06
-6.79383e-07
-7.51033e-07
-4.17495e-07
-4.68542e-07
-2.20294e-07
-2.45719e-07
-6.96078e-08
-8.10271e-08
8.7046e-07
5.22753e-05
1.06464e-06
5.2213e-05
1.22286e-06
5.21378e-05
1.34428e-06
5.2048e-05
1.42773e-06
5.4762e-05
1.4659e-06
4.75745e-05
1.48249e-06
4.13023e-05
1.4777e-06
3.58086e-05
1.45341e-06
3.09412e-05
1.40532e-06
2.65573e-05
1.31311e-06
2.23521e-05
1.13184e-06
1.80859e-05
8.65418e-07
1.41167e-05
6.01075e-07
1.08226e-05
3.84251e-07
8.16409e-06
2.23009e-07
6.02708e-06
1.10843e-07
4.23573e-06
3.76043e-08
2.27567e-06
-4.47532e-06
2.1537e-05
-6.44168e-06
2.04153e-05
2.24566e-05
-4.08204e-06
2.32206e-05
-3.63196e-06
2.38878e-05
-3.15707e-06
2.44583e-05
-2.68704e-06
2.47776e-05
-2.21549e-06
2.43986e-05
-1.59901e-06
2.05734e-05
-4.22865e-07
6.54702e-06
-7.09332e-07
1.65753e-06
-1.17481e-06
-5.05468e-07
-1.31778e-06
-1.0229e-06
-1.17406e-06
-8.77842e-07
-8.71429e-07
-6.03063e-07
-5.67666e-07
-3.69004e-07
-3.22135e-07
-1.68529e-07
-1.49001e-07
-4.3994e-08
-3.89447e-08
9.89728e-07
5.22015e-05
1.18314e-06
5.21603e-05
1.34189e-06
5.20978e-05
1.46516e-06
5.20209e-05
1.55245e-06
5.19274e-05
1.6037e-06
5.46286e-05
1.61134e-06
4.74495e-05
1.60084e-06
4.11826e-05
1.57404e-06
3.56909e-05
1.53049e-06
3.08185e-05
1.46433e-06
2.64081e-05
1.3509e-06
2.21345e-05
1.14103e-06
1.78113e-05
8.57076e-07
1.38611e-05
5.88913e-07
1.0618e-05
3.74507e-07
8.0124e-06
2.1716e-07
5.92042e-06
1.08446e-07
4.16447e-06
3.73352e-08
2.23789e-06
-4.40273e-06
2.23846e-05
-6.41591e-06
2.1512e-05
-6.31616e-06
2.05119e-05
2.31227e-05
-3.98372e-06
2.37821e-05
-3.52583e-06
2.43439e-05
-3.0424e-06
2.46222e-05
-2.53143e-06
2.39637e-05
-1.78065e-06
1.94893e-05
-5.1551e-07
6.82931e-06
-7.06232e-07
2.10152e-06
-1.15489e-06
-3.26619e-07
-1.35557e-06
-1.07556e-06
-1.26723e-06
-1.06206e-06
-9.92081e-07
-8.02832e-07
-6.74012e-07
-5.38142e-07
-4.0099e-07
-2.87683e-07
-2.05336e-07
-1.1131e-07
-8.3723e-08
-2.62544e-08
-1.44632e-08
1.13194e-06
5.20764e-05
1.32271e-06
5.20651e-05
1.47973e-06
5.20261e-05
1.60242e-06
5.19643e-05
1.69057e-06
5.18867e-05
1.74474e-06
5.17904e-05
1.76564e-06
5.44787e-05
1.74342e-06
4.73109e-05
1.70878e-06
4.10513e-05
1.66138e-06
3.55629e-05
1.60039e-06
3.06849e-05
1.51811e-06
2.62429e-05
1.38229e-06
2.18947e-05
1.1454e-06
1.75238e-05
8.46791e-07
1.36035e-05
5.76882e-07
1.04155e-05
3.65743e-07
7.86353e-06
2.12429e-07
5.81602e-06
1.06855e-07
4.09448e-06
3.68424e-08
2.20057e-06
-4.32494e-06
2.30455e-05
-6.34756e-06
2.2317e-05
-6.31757e-06
2.15142e-05
-6.11497e-06
2.06099e-05
2.36894e-05
-3.89052e-06
2.42224e-05
-3.40392e-06
2.44198e-05
-2.83976e-06
2.33524e-05
-1.9202e-06
1.83209e-05
-6.12901e-07
7.02146e-06
-7.08776e-07
2.52592e-06
-1.13226e-06
-1.01484e-07
-1.38203e-06
-1.08325e-06
-1.35012e-06
-1.22111e-06
-1.11056e-06
-1.00972e-06
-7.87708e-07
-7.26546e-07
-4.8824e-07
-4.25807e-07
-2.65382e-07
-1.94933e-07
-1.23888e-07
-6.99729e-08
-4.18927e-08
-1.39719e-08
-2.13818e-09
1.29734e-06
5.1872e-05
1.48386e-06
5.1918e-05
1.63726e-06
5.19108e-05
1.75715e-06
5.18749e-05
1.84362e-06
5.18151e-05
1.8977e-06
5.17378e-05
1.92077e-06
5.16394e-05
1.91189e-06
5.43147e-05
1.86328e-06
4.71603e-05
1.80625e-06
4.09098e-05
1.74056e-06
3.54257e-05
1.66494e-06
3.05405e-05
1.5665e-06
2.60606e-05
1.40891e-06
2.16325e-05
1.14559e-06
1.72256e-05
8.35529e-07
1.33451e-05
5.65676e-07
1.02154e-05
3.5832e-07
7.71726e-06
2.08791e-07
5.7136e-06
1.05053e-07
4.02576e-06
3.60898e-08
2.16399e-06
-4.24839e-06
2.36133e-05
-6.27152e-06
2.29701e-05
-6.2813e-06
2.22815e-05
-6.13047e-06
2.15305e-05
-5.8436e-06
2.06977e-05
2.40896e-05
-3.75742e-06
2.41393e-05
-3.12323e-06
2.25375e-05
-2.02504e-06
1.71351e-05
-7.35304e-07
7.12502e-06
-7.1764e-07
2.92694e-06
-1.11149e-06
1.60917e-07
-1.39675e-06
-1.04802e-06
-1.41962e-06
-1.35029e-06
-1.22348e-06
-1.21582e-06
-9.07144e-07
-9.31956e-07
-5.85111e-07
-5.83181e-07
-3.33556e-07
-2.94364e-07
-1.68277e-07
-1.26748e-07
-6.91272e-08
-4.05117e-08
-1.71047e-08
-6.35152e-09
2.68184e-09
1.46759e-06
4.70774e-05
1.66647e-06
5.16913e-05
1.81477e-06
5.17432e-05
1.92995e-06
5.17413e-05
2.01249e-06
5.17096e-05
2.06391e-06
5.16527e-05
2.08616e-06
5.15764e-05
2.07877e-06
5.14767e-05
2.04376e-06
5.41386e-05
1.97094e-06
4.69994e-05
1.89424e-06
4.07594e-05
1.81364e-06
3.52798e-05
1.72418e-06
3.03851e-05
1.61166e-06
2.58596e-05
1.43103e-06
2.13482e-05
1.14268e-06
1.6919e-05
8.241e-07
1.30867e-05
5.5574e-07
1.00177e-05
3.5202e-07
7.57355e-06
2.05025e-07
5.61309e-06
1.02786e-07
3.95851e-06
3.55845e-08
2.12791e-06
-4.07616e-06
2.39177e-05
-6.16164e-06
2.3504e-05
-6.23234e-06
2.29218e-05
-6.11257e-06
2.22643e-05
-5.86506e-06
2.15527e-05
-5.50492e-06
2.07698e-05
2.37167e-05
-3.33484e-06
2.15027e-05
-2.08887e-06
1.59839e-05
-8.74922e-07
7.13518e-06
-7.46698e-07
3.30044e-06
-1.0929e-06
4.507e-07
-1.40346e-06
-9.70979e-07
-1.4763e-06
-1.44515e-06
-1.32746e-06
-1.41287e-06
-1.02929e-06
-1.15059e-06
-6.91512e-07
-7.59872e-07
-4.11293e-07
-4.10367e-07
-2.20035e-07
-1.96519e-07
-1.00657e-07
-7.71892e-08
-3.43164e-08
-2.08692e-08
-4.21366e-09
-1.99414e-09
3.25063e-09
1.63185e-06
4.19209e-05
1.85055e-06
4.68941e-05
2.01186e-06
5.14962e-05
2.12088e-06
5.1555e-05
2.19758e-06
5.15595e-05
2.24409e-06
5.15331e-05
2.26294e-06
5.14798e-05
2.25409e-06
5.1405e-05
2.22024e-06
5.13042e-05
2.16135e-06
5.39526e-05
2.0675e-06
4.68299e-05
1.97504e-06
4.06013e-05
1.88084e-06
3.51258e-05
1.78079e-06
3.02182e-05
1.65412e-06
2.56381e-05
1.44923e-06
2.10426e-05
1.13766e-06
1.66058e-05
8.13281e-07
1.2829e-05
5.46694e-07
9.82261e-06
3.4573e-07
7.43229e-06
2.00683e-07
5.51459e-06
1.00769e-07
3.89276e-06
3.50538e-08
2.09236e-06
-3.43563e-06
2.30761e-05
-5.80405e-06
2.35604e-05
-6.09263e-06
2.33648e-05
-6.06718e-06
2.28771e-05
-5.85707e-06
2.2257e-05
-5.52389e-06
2.15724e-05
-5.09242e-06
2.0819e-05
2.02831e-05
-2.11585e-06
1.49108e-05
-1.01695e-06
7.05871e-06
-7.9978e-07
3.6304e-06
-1.07849e-06
7.59309e-07
-1.4038e-06
-8.53836e-07
-1.52324e-06
-1.50356e-06
-1.42075e-06
-1.59296e-06
-1.1504e-06
-1.37705e-06
-8.06024e-07
-9.55164e-07
-4.99284e-07
-5.43849e-07
-2.80461e-07
-2.80299e-07
-1.3855e-07
-1.24353e-07
-5.54832e-08
-4.29274e-08
-1.39893e-08
-8.85567e-09
1.13655e-09
-1.56121e-10
2.0804e-09
1.77973e-06
3.71818e-05
2.02554e-06
4.17457e-05
2.20724e-06
4.66997e-05
2.3293e-06
5.12898e-05
2.39869e-06
5.13567e-05
2.43838e-06
5.13684e-05
2.45161e-06
5.1348e-05
2.43877e-06
5.12989e-05
2.40324e-06
5.12259e-05
2.3454e-06
5.11242e-05
2.26599e-06
5.37583e-05
2.1556e-06
4.66531e-05
2.04901e-06
4.04362e-05
1.94524e-06
3.49639e-05
1.83573e-06
3.00386e-05
1.69464e-06
2.53942e-05
1.46401e-06
2.0717e-05
1.13151e-06
1.62877e-05
8.02729e-07
1.25727e-05
5.37696e-07
9.63011e-06
3.38778e-07
7.29356e-06
1.96488e-07
5.41823e-06
9.8544e-08
3.82869e-06
3.3759e-08
2.05813e-06
-2.12119e-06
1.89679e-05
-4.58487e-06
2.18565e-05
-5.52798e-06
2.29958e-05
-5.85668e-06
2.31547e-05
-5.78289e-06
2.28035e-05
-5.50612e-06
2.22399e-05
-5.09476e-06
2.15754e-05
-4.61223e-06
2.08411e-05
1.39459e-05
-1.15244e-06
6.90955e-06
-8.69215e-07
3.90271e-06
-1.074e-06
1.0773e-06
-1.39888e-06
-7.00776e-07
-1.55964e-06
-1.52597e-06
-1.50386e-06
-1.74961e-06
-1.26733e-06
-1.60458e-06
-9.26282e-07
-1.16713e-06
-5.97328e-07
-6.95484e-07
-3.50475e-07
-3.79293e-07
-1.83915e-07
-1.83116e-07
-8.19098e-08
-7.31764e-08
-2.70783e-08
-2.08968e-08
-3.55406e-09
-2.55595e-09
2.13219e-09
-4.40049e-13
6.15276e-10
1.90101e-06
3.2842e-05
2.18211e-06
3.70242e-05
2.39082e-06
4.15621e-05
2.53305e-06
4.6497e-05
2.61501e-06
5.10757e-05
2.64636e-06
5.11515e-05
2.65207e-06
5.11712e-05
2.63308e-06
5.11572e-05
2.59344e-06
5.11123e-05
2.53398e-06
5.10412e-05
2.45585e-06
5.09382e-05
2.36069e-06
5.35573e-05
2.23569e-06
4.64699e-05
2.11967e-06
4.02647e-05
2.00813e-06
3.47939e-05
1.89029e-06
2.98448e-05
1.73371e-06
2.51257e-05
1.47592e-06
2.03732e-05
1.12401e-06
1.59664e-05
7.91887e-07
1.2318e-05
5.27909e-07
9.44033e-06
3.31704e-07
7.15764e-06
1.91652e-07
5.32446e-06
9.48199e-08
3.76706e-06
3.19962e-08
2.02569e-06
-1.26436e-06
1.30875e-05
-2.83618e-06
1.72177e-05
-4.08236e-06
2.04102e-05
-5.04526e-06
2.21843e-05
-5.43222e-06
2.28043e-05
-5.3696e-06
2.26675e-05
-5.04299e-06
2.21888e-05
-4.58804e-06
2.15519e-05
-4.07323e-06
2.08322e-05
6.71289e-06
-9.57319e-07
4.1094e-06
-1.07791e-06
1.39234e-06
-1.39155e-06
-5.15935e-07
-1.58664e-06
-1.51349e-06
-1.57533e-06
-1.87988e-06
-1.37701e-06
-1.8264e-06
-1.04913e-06
-1.39245e-06
-7.04434e-07
-8.65353e-07
-4.3047e-07
-4.94697e-07
-2.37679e-07
-2.54797e-07
-1.14496e-07
-1.12764e-07
-4.42865e-08
-3.89504e-08
-1.07332e-08
-8.07748e-09
4.78033e-10
-3.39822e-10
9.19976e-10
-6.4966e-10
-5.23822e-10
1.99011e-06
2.89172e-05
2.3117e-06
3.27109e-05
2.55437e-06
3.68599e-05
2.7226e-06
4.13728e-05
2.82383e-06
4.62895e-05
2.86703e-06
5.08573e-05
2.86368e-06
5.09427e-05
2.8367e-06
5.09708e-05
2.79091e-06
5.09631e-05
2.72757e-06
5.09223e-05
2.64825e-06
5.08524e-05
2.55502e-06
5.07476e-05
2.44611e-06
5.33508e-05
2.31177e-06
4.62811e-05
2.18857e-06
4.00871e-05
2.07124e-06
3.46152e-05
1.94549e-06
2.96347e-05
1.77177e-06
2.48308e-05
1.48404e-06
2.00135e-05
1.11505e-06
1.56429e-05
7.7968e-07
1.20657e-05
5.17398e-07
9.25389e-06
3.23266e-07
7.02527e-06
1.84464e-07
5.23414e-06
8.99409e-08
3.70857e-06
3.04226e-08
1.99488e-06
-1.04876e-06
6.49563e-06
-1.82034e-06
1.20693e-05
-2.60209e-06
1.57357e-05
-3.53835e-06
1.89023e-05
-4.39605e-06
2.11478e-05
-4.83393e-06
2.22688e-05
-4.82005e-06
2.24451e-05
-4.48673e-06
2.20881e-05
-4.01238e-06
2.14917e-05
-3.47302e-06
2.07854e-05
4.24812e-06
-1.09815e-06
1.6943e-06
-1.38249e-06
-3.05029e-07
-1.60551e-06
-1.46786e-06
-1.63565e-06
-1.98148e-06
-1.47735e-06
-2.03623e-06
-1.17103e-06
-1.62664e-06
-8.18641e-07
-1.05274e-06
-5.2025e-07
-6.27471e-07
-3.00472e-07
-3.40799e-07
-1.54085e-07
-1.63039e-07
-6.63126e-08
-6.42104e-08
-2.08439e-08
-1.76755e-08
-2.71727e-09
-2.13686e-09
6.29449e-10
-7.15812e-10
-8.93965e-10
2.41463e-11
-2.01493e-09
2.04987e-06
2.54344e-05
2.41039e-06
2.88166e-05
2.69074e-06
3.25732e-05
2.89078e-06
3.66913e-05
3.01632e-06
4.11808e-05
3.07754e-06
4.60805e-05
3.08527e-06
5.0638e-05
3.04879e-06
5.07334e-05
2.99507e-06
5.07697e-05
2.92598e-06
5.0768e-05
2.84345e-06
5.07305e-05
2.74994e-06
5.0661e-05
2.64379e-06
5.05534e-05
2.5268e-06
5.31394e-05
2.38572e-06
4.60871e-05
2.25781e-06
3.9903e-05
2.13604e-06
3.44266e-05
2.00232e-06
2.94055e-05
1.80723e-06
2.45084e-05
1.48822e-06
1.96403e-05
1.10317e-06
1.5319e-05
7.65744e-07
1.18166e-05
5.04543e-07
9.07178e-06
3.11483e-07
6.89746e-06
1.75352e-07
5.14807e-06
8.50411e-08
3.65345e-06
2.85949e-08
1.96595e-06
-1.13117e-06
4.32831e-06
-1.52082e-06
6.19368e-06
-1.77198e-06
1.12367e-05
-2.33153e-06
1.45271e-05
-3.0177e-06
1.75228e-05
-3.6761e-06
1.99894e-05
-4.12182e-06
2.15707e-05
-4.15249e-06
2.21113e-05
-3.84558e-06
2.1922e-05
-3.36315e-06
2.13824e-05
-2.81499e-06
2.06938e-05
1.96958e-06
-1.37616e-06
-7.44939e-08
-1.61623e-06
-1.39099e-06
-1.68595e-06
-2.05415e-06
-1.56683e-06
-2.22937e-06
-1.28829e-06
-1.86444e-06
-9.37154e-07
-1.25575e-06
-6.19033e-07
-7.78091e-07
-3.72583e-07
-4.42473e-07
-2.01361e-07
-2.25478e-07
-9.38701e-08
-9.80098e-08
-3.44458e-08
-3.24671e-08
-7.7332e-09
-6.37442e-09
-2.28082e-10
-1.33607e-09
-7.30723e-10
-2.28308e-10
-2.19281e-09
-8.85009e-11
-3.2617e-09
2.09126e-06
2.24007e-05
2.48185e-06
2.5361e-05
2.79736e-06
2.87085e-05
3.03174e-06
3.24314e-05
3.18635e-06
3.65213e-05
3.26979e-06
4.09894e-05
3.29415e-06
4.58733e-05
3.26801e-06
5.04212e-05
3.20489e-06
5.05263e-05
3.12844e-06
5.05702e-05
3.04107e-06
5.05734e-05
2.94555e-06
5.05381e-05
2.84025e-06
5.04677e-05
2.72729e-06
5.03561e-05
2.60499e-06
5.29235e-05
2.45999e-06
4.58877e-05
2.32922e-06
3.97121e-05
2.20407e-06
3.42265e-05
2.05963e-06
2.91542e-05
1.83925e-06
2.41577e-05
1.48659e-06
1.92566e-05
1.0877e-06
1.49963e-05
7.48197e-07
1.1572e-05
4.87213e-07
8.89514e-06
2.96934e-07
6.77508e-06
1.6567e-07
5.06681e-06
7.95353e-08
3.60207e-06
2.63199e-08
1.93938e-06
-1.37152e-06
2.20707e-06
-1.56527e-06
4.36958e-06
-1.51106e-06
5.9303e-06
-1.65447e-06
1.05571e-05
-2.03698e-06
1.35444e-05
-2.51028e-06
1.63556e-05
-2.98589e-06
1.88529e-05
-3.34326e-06
2.07614e-05
-3.39215e-06
2.16583e-05
-3.11857e-06
2.1678e-05
-2.64838e-06
2.12163e-05
-2.11216e-06
2.05534e-05
1.65775e-07
-1.61976e-06
-1.28526e-06
-1.72571e-06
-2.09867e-06
-1.64548e-06
-2.40243e-06
-1.39808e-06
-2.10048e-06
-1.05642e-06
-1.47162e-06
-7.249e-07
-9.46517e-07
-4.53744e-07
-5.60978e-07
-2.56799e-07
-3.01604e-07
-1.27599e-07
-1.41829e-07
-5.2105e-08
-5.37486e-08
-1.49496e-08
-1.41722e-08
-1.79402e-09
-3.60896e-09
-4.42333e-11
-1.9285e-09
-6.75924e-10
-2.40885e-09
-1.28431e-09
-1.93016e-09
-2.76367e-09
2.12941e-06
1.97994e-05
2.53661e-06
2.23439e-05
2.87838e-06
2.52783e-05
3.14393e-06
2.85952e-05
3.32914e-06
3.22883e-05
3.43864e-06
3.63529e-05
3.48302e-06
4.08018e-05
3.4722e-06
4.5671e-05
3.41886e-06
5.02096e-05
3.33373e-06
5.03236e-05
3.24015e-06
5.03737e-05
3.14127e-06
5.03804e-05
3.03541e-06
5.03457e-05
2.92492e-06
5.0273e-05
2.8081e-06
5.01559e-05
2.68353e-06
5.2703e-05
2.53676e-06
4.56826e-05
2.40476e-06
3.95133e-05
2.27458e-06
3.40129e-05
2.11699e-06
2.88771e-05
1.86479e-06
2.37795e-05
1.47786e-06
1.88659e-05
1.06688e-06
1.46767e-05
7.24813e-07
1.13334e-05
4.66027e-07
8.7251e-06
2.80839e-07
6.65913e-06
1.54752e-07
4.99102e-06
7.30533e-08
3.55497e-06
2.42233e-08
1.91499e-06
-1.61589e-06
4.06648e-07
-1.8365e-06
2.47424e-06
-1.50405e-06
4.35939e-06
-1.44739e-06
5.72075e-06
-1.48353e-06
1.00011e-05
-1.71887e-06
1.2751e-05
-2.02278e-06
1.53912e-05
-2.32961e-06
1.78385e-05
-2.53882e-06
1.99081e-05
-2.57339e-06
2.11135e-05
-2.3272e-06
2.13573e-05
-1.88738e-06
2.0992e-05
-1.37716e-06
2.03628e-05
-1.1541e-06
-1.75485e-06
-2.11618e-06
-1.71248e-06
-2.55431e-06
-1.49817e-06
-2.33015e-06
-1.17282e-06
-1.69671e-06
-8.35162e-07
-1.13175e-06
-5.42997e-07
-6.97108e-07
-3.20503e-07
-3.92896e-07
-1.68017e-07
-1.97255e-07
-7.43529e-08
-8.2951e-08
-2.47977e-08
-2.6918e-08
-4.17961e-09
-8.99107e-09
1.38391e-09
-6.10962e-09
2.38872e-09
-7.87264e-09
3.29024e-09
-8.75431e-09
4.02311e-09
-6.34974e-09
2.17897e-06
1.75844e-05
2.58842e-06
1.97456e-05
2.94368e-06
2.22769e-05
3.23175e-06
2.51893e-05
3.44404e-06
2.84799e-05
3.58029e-06
3.21469e-05
3.64767e-06
3.61892e-05
3.65499e-06
4.06205e-05
3.61549e-06
4.54763e-05
3.54019e-06
5.00053e-05
3.43931e-06
5.01266e-05
3.33598e-06
5.01813e-05
3.22855e-06
5.01896e-05
3.11947e-06
5.01535e-05
3.00695e-06
5.00765e-05
2.88951e-06
4.99524e-05
2.76498e-06
5.24773e-05
2.61833e-06
4.54711e-05
2.48396e-06
3.93054e-05
2.34778e-06
3.3783e-05
2.17116e-06
2.85711e-05
1.88102e-06
2.33761e-05
1.4605e-06
1.84715e-05
1.03824e-06
1.43622e-05
6.96038e-07
1.11023e-05
4.4176e-07
8.56322e-06
2.6246e-07
6.55068e-06
1.42204e-07
4.92136e-06
6.67696e-08
3.51215e-06
2.25117e-08
1.8924e-06
-1.77249e-06
-1.00161e-06
-2.16098e-06
7.26166e-07
-1.69623e-06
2.66242e-06
-1.42801e-06
4.33686e-06
-1.32815e-06
5.56288e-06
-1.27248e-06
9.55207e-06
-1.38175e-06
1.21079e-05
-1.54144e-06
1.46016e-05
-1.68305e-06
1.69821e-05
-1.76027e-06
1.90949e-05
-1.73646e-06
2.05232e-05
-1.50201e-06
2.09725e-05
-1.09543e-06
2.07106e-05
-6.19164e-07
2.01222e-05
-2.10764e-06
-1.76789e-06
-2.68442e-06
-1.58718e-06
-2.55003e-06
-1.28295e-06
-1.92709e-06
-9.46498e-07
-1.33194e-06
-6.38492e-07
-8.51106e-07
-3.92062e-07
-5.00661e-07
-2.154e-07
-2.65928e-07
-1.01657e-07
-1.21683e-07
-3.76316e-08
-4.62174e-08
-7.59823e-09
-1.91026e-08
3.60727e-09
-1.38501e-08
7.26602e-09
-1.74474e-08
1.03727e-08
-2.08047e-08
1.37289e-08
-2.08896e-08
2.25047e-06
1.56998e-05
2.65023e-06
1.75206e-05
3.00568e-06
1.96819e-05
3.30437e-06
2.22031e-05
3.5355e-06
2.50973e-05
3.69478e-06
2.83655e-05
3.78521e-06
3.20102e-05
3.81316e-06
3.60325e-05
3.78923e-06
4.04486e-05
3.72732e-06
4.5291e-05
3.6368e-06
4.98096e-05
3.52819e-06
4.99361e-05
3.41842e-06
4.99931e-05
3.3101e-06
5.00007e-05
3.20118e-06
4.99612e-05
3.09004e-06
4.98779e-05
2.97441e-06
4.97449e-05
2.85202e-06
5.22456e-05
2.70447e-06
4.52521e-05
2.56752e-06
3.90867e-05
2.42082e-06
3.35339e-05
2.2188e-06
2.82332e-05
1.88492e-06
2.29509e-05
1.43201e-06
1.80766e-05
1.00163e-06
1.40553e-05
6.61971e-07
1.08809e-05
4.13594e-07
8.41114e-06
2.41631e-07
6.45058e-06
1.29783e-07
4.85794e-06
6.13117e-08
3.47317e-06
2.08954e-08
1.87152e-06
-1.81126e-06
-2.0736e-06
-2.40637e-06
-7.62094e-07
-1.9702e-06
9.95272e-07
-1.56999e-06
2.80047e-06
-1.31774e-06
4.32333e-06
-1.1638e-06
5.45174e-06
-1.02496e-06
9.19269e-06
-1.02316e-06
1.15876e-05
-1.04713e-06
1.39643e-05
-1.051e-06
1.62721e-05
-1.01127e-06
1.83697e-05
-8.98958e-07
1.99206e-05
-6.60092e-07
2.05376e-05
-2.84141e-07
2.03758e-05
1.45308e-07
1.98347e-05
-2.79298e-06
-1.66441e-06
-2.75805e-06
-1.38408e-06
-2.15904e-06
-1.05528e-06
-1.54454e-06
-7.37625e-07
-1.0225e-06
-4.70343e-07
-6.25874e-07
-2.69669e-07
-3.49442e-07
-1.34338e-07
-1.71671e-07
-5.37996e-08
-7.3929e-08
-1.21511e-08
-3.60148e-08
6.86396e-09
-2.65576e-08
1.43392e-08
-3.2261e-08
2.03894e-08
-3.89122e-08
2.67655e-08
-4.30084e-08
2.34843e-06
1.40845e-05
2.73125e-06
1.56169e-05
3.07584e-06
1.74489e-05
3.37295e-06
1.96122e-05
3.61199e-06
2.2126e-05
3.78663e-06
2.50056e-05
3.89636e-06
2.82552e-05
3.94473e-06
3.18801e-05
3.93754e-06
3.5886e-05
3.89053e-06
4.02872e-05
3.8132e-06
4.51162e-05
3.71604e-06
4.96231e-05
3.60343e-06
4.97521e-05
3.49546e-06
4.98087e-05
3.38988e-06
4.98131e-05
3.28473e-06
4.97677e-05
3.17748e-06
4.96762e-05
3.06582e-06
4.95324e-05
2.94459e-06
5.20068e-05
2.79625e-06
4.50243e-05
2.65283e-06
3.88551e-05
2.49073e-06
3.32619e-05
2.25561e-06
2.78619e-05
1.87313e-06
2.25087e-05
1.39113e-06
1.76857e-05
9.569e-07
1.3759e-05
6.21765e-07
1.06715e-05
3.81974e-07
8.2699e-06
2.20739e-07
6.35904e-06
1.18586e-07
4.80036e-06
5.62891e-08
3.43771e-06
1.94688e-08
1.85217e-06
-1.72936e-06
-2.88021e-06
-2.50688e-06
-1.97986e-06
-2.21002e-06
-5.28035e-07
-1.79849e-06
1.219e-06
-1.43574e-06
2.91461e-06
-1.17069e-06
4.32713e-06
-9.58041e-07
5.38238e-06
-7.40927e-07
8.9079e-06
-6.36279e-07
1.11747e-05
-5.41429e-07
1.34533e-05
-4.27599e-07
1.56877e-05
-2.74805e-07
1.77454e-05
-7.56757e-08
1.93365e-05
1.86707e-07
2.00671e-05
5.26181e-07
1.99949e-05
9.00617e-07
1.95054e-05
-2.9532e-06
-1.47444e-06
-2.38953e-06
-1.15811e-06
-1.7666e-06
-8.37164e-07
-1.21006e-06
-5.53495e-07
-7.68993e-07
-3.30206e-07
-4.49222e-07
-1.72484e-07
-2.34691e-07
-7.35738e-08
-1.12151e-07
-1.79466e-08
-6.19999e-08
1.12539e-08
-4.5837e-08
2.40437e-08
-5.3618e-08
3.39011e-08
-6.42647e-08
4.39178e-08
-7.33548e-08
2.47172e-06
1.26791e-05
2.83556e-06
1.39785e-05
3.1623e-06
1.55289e-05
3.44771e-06
1.7373e-05
3.68358e-06
1.954e-05
3.86373e-06
2.20491e-05
3.98569e-06
2.49172e-05
4.05088e-06
2.81505e-05
4.05914e-06
3.17604e-05
4.02829e-06
3.57502e-05
3.96481e-06
4.01372e-05
3.88125e-06
4.4952e-05
3.78167e-06
4.94453e-05
3.67392e-06
4.95738e-05
3.57163e-06
4.9627e-05
3.47257e-06
4.96254e-05
3.37376e-06
4.95718e-05
3.27259e-06
4.947e-05
3.16378e-06
4.93139e-05
3.04404e-06
5.17597e-05
2.89112e-06
4.47864e-05
2.73727e-06
3.86085e-05
2.55333e-06
3.29636e-05
2.27676e-06
2.74572e-05
1.84276e-06
2.20556e-05
1.33789e-06
1.73031e-05
9.033e-07
1.3476e-05
5.76778e-07
1.04756e-05
3.49893e-07
8.13993e-06
2.01346e-07
6.27581e-06
1.08289e-07
4.74818e-06
5.19788e-08
3.40525e-06
1.84792e-08
1.83391e-06
-1.55308e-06
-3.13494e-06
-2.44079e-06
-2.954e-06
-2.33802e-06
-1.85853e-06
-2.02177e-06
-3.10406e-07
-1.63235e-06
1.41092e-06
-1.28072e-06
3.02084e-06
-9.85488e-07
4.35155e-06
-7.1138e-07
5.35045e-06
-4.19506e-07
8.68863e-06
-2.2216e-07
1.08535e-05
-2.26021e-08
1.3047e-05
2.00418e-07
1.52117e-05
4.55718e-07
1.72139e-05
7.33357e-07
1.87902e-05
1.01431e-06
1.95792e-05
1.31796e-06
1.95773e-05
1.63173e-06
1.91407e-05
-2.6167e-06
-1.25204e-06
-1.99525e-06
-9.33613e-07
-1.4119e-06
-6.38941e-07
-9.29841e-07
-3.95797e-07
-5.66357e-07
-2.15814e-07
-3.12468e-07
-9.70926e-08
-1.63183e-07
-2.50561e-08
-9.95466e-08
1.68863e-08
-7.35455e-08
3.67316e-08
-8.29545e-08
5.14746e-08
-9.82212e-08
6.59179e-08
-1.13089e-07
2.61544e-06
1.14354e-05
2.96243e-06
1.25507e-05
3.26886e-06
1.38705e-05
3.53592e-06
1.54397e-05
3.75939e-06
1.72966e-05
3.93514e-06
1.94688e-05
4.06039e-06
2.19752e-05
4.13553e-06
2.48341e-05
4.15586e-06
2.80558e-05
4.14025e-06
3.16506e-05
4.09091e-06
3.56259e-05
4.02104e-06
3.99985e-05
3.93601e-06
4.47978e-05
3.84354e-06
4.92749e-05
3.7448e-06
4.93995e-05
3.65216e-06
4.94464e-05
3.56225e-06
4.94361e-05
3.47193e-06
4.93719e-05
3.3755e-06
4.9258e-05
3.26986e-06
4.90879e-05
3.14781e-06
5.15028e-05
2.98662e-06
4.45367e-05
2.81693e-06
3.83442e-05
2.6036e-06
3.26356e-05
2.27722e-06
2.70212e-05
1.79288e-06
2.15988e-05
1.27222e-06
1.69324e-05
8.42705e-07
1.32086e-05
5.3052e-07
1.02938e-05
3.19297e-07
8.02128e-06
1.83384e-07
6.20037e-06
9.95522e-08
4.70056e-06
4.89617e-08
3.37493e-06
1.81781e-08
1.81604e-06
-1.3358e-06
-2.839e-06
-2.23194e-06
-3.3517e-06
-2.31475e-06
-2.98486e-06
-2.16335e-06
-1.7235e-06
-1.8382e-06
-1.10094e-07
-1.4586e-06
1.58421e-06
-1.09742e-06
3.12905e-06
-7.60805e-07
4.398e-06
-4.24307e-07
5.35293e-06
-6.44123e-08
8.52846e-06
2.19497e-07
1.06095e-05
5.1537e-07
1.27308e-05
8.38256e-07
1.48285e-05
1.18154e-06
1.67656e-05
1.51374e-06
1.82909e-05
1.80899e-06
1.90882e-05
2.07533e-06
1.91332e-05
2.32105e-06
1.87494e-05
2.77307e-06
1.03225e-05
-2.22783e-06
-1.02384e-06
-1.62573e-06
-7.23598e-07
-1.10755e-06
-4.64561e-07
-7.01443e-07
-2.63607e-07
-4.06531e-07
-1.24273e-07
-2.29474e-07
-3.34673e-08
-1.51286e-07
2.38323e-08
-1.11779e-07
5.27511e-08
-1.21885e-07
7.3641e-08
-1.42245e-07
9.34371e-08
-1.63537e-07
3.10773e-06
1.12888e-05
3.39518e-06
1.24231e-05
3.64112e-06
1.37643e-05
3.84598e-06
1.53526e-05
4.00903e-06
1.72229e-05
4.12881e-06
1.94012e-05
4.20507e-06
2.19073e-05
4.23297e-06
2.47591e-05
4.22847e-06
2.797e-05
4.19189e-06
3.15518e-05
4.13553e-06
3.55128e-05
4.06458e-06
3.98701e-05
3.98828e-06
4.46519e-05
3.90748e-06
4.911e-05
3.82188e-06
4.92272e-05
3.74155e-06
4.92646e-05
3.66287e-06
4.92431e-05
3.57944e-06
4.91664e-05
3.48794e-06
4.90387e-05
3.38139e-06
4.88533e-05
3.25339e-06
5.1235e-05
3.07895e-06
4.42735e-05
2.88679e-06
3.80596e-05
2.63586e-06
3.22753e-05
2.25307e-06
2.6559e-05
1.72439e-06
2.11446e-05
1.19548e-06
1.65777e-05