/*--------------------------------*- C++ -*----------------------------------*\
  =========                 |
  \\      /  F ield         | OpenFOAM: The Open Source CFD Toolbox
   \\    /   O peration     | Website:  https://openfoam.org
    \\  /    A nd           | Version:  8
     \\/     M anipulation  |
\*---------------------------------------------------------------------------*/
FoamFile
{
    version     2.0;
    format      ascii;
    class       volScalarField;
    location    "0.23";
    object      epsilon;
}
// * * * * * * * * * * * * * * * * * * * * * * * * * * * * * * * * * * * * * //

dimensions      [0 2 -3 0 0 0 0];

internalField   nonuniform List<scalar> 
15677
(
59.7008
18.354
52.6125
8.08779
25.8897
50.1622
4.62728
13.2624
31.5746
50.4817
3.17786
7.72292
17.0791
37.2626
51.597
2.4895
5.04256
10.0237
20.8064
42.6337
53.6539
2.14571
3.62256
6.4606
12.158
24.5335
47.6464
55.7172
1.97986
2.82083
4.52371
7.72154
14.2697
28.2427
52.0046
57.6549
1.91169
2.35297
3.40104
5.30834
8.91206
16.4167
31.7427
55.6872
59.3534
1.88417
2.08028
2.72286
3.90791
6.01925
10.1011
18.5267
34.9411
58.7061
60.8563
1.87055
1.9394
2.30692
3.05467
4.35626
6.70413
11.2679
20.5586
37.7611
61.183
62.1229
1.86765
1.87831
2.05638
2.5206
3.34693
4.77425
7.35994
12.4115
22.4497
40.2246
63.1765
63.2377
1.86863
1.84884
1.91654
2.18579
2.71182
3.61378
5.16339
7.99722
13.4992
24.1944
42.3216
64.8037
64.1662
1.86954
1.83869
1.85192
1.98252
2.30649
2.88547
3.8569
5.53354
8.60159
14.5303
25.7582
44.1129
66.1092
64.9994
1.86978
1.83697
1.82112
1.86771
2.05119
2.41759
3.04205
4.08314
5.87952
9.17663
15.4807
27.1585
45.609
67.1698
65.7255
1.86978
1.83723
1.81049
1.81332
1.89811
2.11718
2.51815
3.18546
4.29114
6.20525
9.70966
16.3566
28.3801
46.8667
68.0349
66.3684
1.86974
1.83749
1.80819
1.78976
1.81538
1.93017
2.17841
2.60976
3.31565
4.48384
6.50515
10.2043
17.1409
29.4442
47.9126
68.7387
66.9573
1.86972
1.83759
1.8079
1.78273
1.77569
1.82143
1.96219
2.23478
2.69248
3.43447
4.65934
6.78141
10.6511
17.8421
30.3511
48.769
69.3423
67.4583
1.86971
1.83761
1.80792
1.78101
1.76145
1.76611
1.83166
1.99287
2.28593
2.76723
3.54157
4.81897
7.03007
11.054
18.4515
31.115
49.4782
69.8202
67.9661
1.8697
1.8376
1.80794
1.78068
1.75697
1.7439
1.76035
1.84301
2.02137
2.33212
2.83415
3.63775
4.96141
7.25289
11.4068
18.9767
31.7486
50.033
70.271
68.3611
1.8697
1.83759
1.80794
1.78064
1.7557
1.73587
1.72949
1.75735
1.85439
2.04747
2.37345
2.89372
3.72287
5.08745
7.44749
11.7125
19.4157
32.2572
50.4966
70.606
68.8326
1.8697
1.83758
1.80793
1.78062
1.75539
1.73315
1.71728
1.71797
1.75579
1.86552
2.07107
2.41012
2.94613
3.79733
5.19677
7.61481
11.9689
19.7753
32.6633
50.8326
70.9792
69.146
1.8697
1.83757
1.80792
1.7806
1.75532
1.73231
1.71267
1.70127
1.70841
1.75568
1.87597
2.09215
2.44237
2.9917
3.86151
5.28962
7.75497
12.1788
20.0591
32.9662
51.1202
71.2288
69.6133
1.8697
1.83757
1.80791
1.78057
1.75529
1.73205
1.71106
1.69445
1.68721
1.7008
1.75599
1.88556
2.11086
2.47048
3.03095
3.91571
5.36709
7.86816
12.3439
20.273
33.191
51.3096
71.5809
69.867
1.86971
1.83756
1.8079
1.78055
1.75526
1.73195
1.71052
1.69183
1.67799
1.67525
1.69448
1.75674
1.89443
2.12743
2.4949
3.06426
3.96087
5.42898
7.95743
12.4668
20.4268
33.339
51.4711
71.7848
70.3348
1.86971
1.83756
1.8079
1.78053
1.75523
1.73189
1.71033
1.69085
1.6742
1.6636
1.66476
1.68945
1.75813
1.90266
2.14217
2.51604
3.09241
3.99755
5.47822
8.02242
12.5532
20.5206
33.4271
51.5852
72.179
70.5793
1.86971
1.83756
1.80789
1.78051
1.7552
1.73183
1.71023
1.69047
1.67272
1.65853
1.65066
1.65618
1.68562
1.75996
1.91051
2.15558
2.53467
3.11627
4.02725
5.51413
8.06858
12.6036
20.5768
33.47
51.6575
72.4743
429.389
1.86971
1.83756
1.80789
1.7805
1.75518
1.73179
1.71017
1.69028
1.67214
1.6564
1.6443
1.63986
1.64877
1.68297
1.76263
1.9185
2.16824
2.55143
3.13658
4.05063
5.54084
8.09498
12.6295
20.5768
33.4638
51.778
88.8143
717.543
1.86971
1.83755
1.80788
1.78049
1.75517
1.73176
1.71011
1.69017
1.67187
1.65549
1.64153
1.63215
1.63029
1.6437
1.68233
1.76653
1.92702
2.18085
2.56727
3.15483
4.07
5.5587
8.11049
12.6258
20.5629
33.4655
52.6971
122.158
998.495
1.86971
1.83755
1.80788
1.78049
1.75515
1.73173
1.71007
1.69009
1.67171
1.65506
1.64034
1.62861
1.62141
1.62343
1.63966
1.68339
1.77198
1.9369
2.19429
2.58344
3.17216
4.08654
5.57135
8.11014
12.6131
20.5317
33.4891
55.2486
157.741
1247.08
1.86971
1.83755
1.80788
1.78048
1.75514
1.73171
1.71003
1.69002
1.6716
1.65482
1.63977
1.62698
1.61729
1.61328
1.61775
1.63974
1.68645
1.77975
1.94884
2.20963
2.60074
3.18989
4.10173
5.57951
8.1068
12.5877
20.4924
33.5861
59.8141
190.377
1476.24
1.86971
1.83755
1.80788
1.78047
1.75513
1.73169
1.71
1.68997
1.67151
1.65466
1.63946
1.62619
1.61537
1.60834
1.60687
1.61622
1.64159
1.69262
1.79061
1.96386
2.22765
2.62056
3.20911
4.11749
5.58648
8.09953
12.5582
20.4472
33.8362
64.5318
221.352
1670.78
1.86971
1.83755
1.80788
1.78047
1.75513
1.73167
1.70997
1.68992
1.67143
1.65454
1.63924
1.62576
1.61441
1.60596
1.60157
1.60408
1.61764
1.64644
1.70281
1.80556
1.98282
2.2497
2.64383
3.23158
4.13516
5.59467
8.09183
12.5263
20.397
34.3008
69.3306
248.61
1818.79
1.86971
1.83755
1.80788
1.78046
1.75512
1.73166
1.70995
1.68988
1.67137
1.65444
1.63908
1.62549
1.61388
1.60475
1.59897
1.59802
1.60527
1.62204
1.65597
1.71789
1.82548
2.00699
2.27665
2.67209
3.25814
4.1568
5.6061
8.08575
12.4933
20.3512
34.8565
73.6854
269.803
1933.78
1.86971
1.83755
1.80788
1.78046
1.75512
1.73165
1.70993
1.68985
1.67131
1.65436
1.63894
1.62528
1.61353
1.60409
1.59764
1.59503
1.5991
1.60947
1.63105
1.67128
1.73877
1.85167
2.03727
2.30993
2.70603
3.29054
4.1835
5.62229
8.08329
12.4589
20.3141
35.3931
77.0596
286.568
2026.24
1.83755
1.86975
1.80788
1.78046
1.75511
1.73163
1.70991
1.68982
1.67127
1.65429
1.63882
1.62512
1.61326
1.60368
1.59688
1.5935
1.59606
1.60324
1.6183
1.64665
1.69306
1.76678
1.88503
2.07502
2.35021
2.74725
3.32941
4.21663
5.6437
8.08445
12.4217
20.2723
35.8002
79.6476
300.177
2103.48
1.80788
1.83764
1.86982
1.78046
1.75511
1.73163
1.7099
1.68979
1.67123
1.65422
1.63873
1.62498
1.61304
1.60337
1.59639
1.59267
1.59454
1.60025
1.6121
1.63435
1.66932
1.72263
1.8029
1.92703
2.12104
2.399
2.7961
3.37604
4.25632
5.67095
8.08915
12.3823
20.2225
36.0816
81.6274
311.663
2170.47
1.78045
1.80804
1.83784
1.86989
1.75511
1.73162
1.70989
1.68977
1.6712
1.65416
1.63864
1.62486
1.61285
1.60313
1.59602
1.59216
1.59375
1.59882
1.60928
1.62866
1.65793
1.70049
1.76121
1.84855
1.97835
2.17653
2.45651
2.85396
3.43037
4.30306
5.70781
8.10001
12.3468
20.1608
36.2532
83.1832
321.642
2230.21
1.75511
1.78066
1.80836
1.83805
1.86997
1.73161
1.70988
1.68974
1.67117
1.65411
1.63858
1.62475
1.61269
1.60293
1.59572
1.5918
1.59327
1.59814
1.60812
1.62639
1.65321
1.69073
1.74154
1.81047
1.90485
2.04061
2.24196
2.52432
2.9205
3.49286
4.36284
5.75715
8.1188
12.3149
20.09
36.3489
84.4292
330.621
2284.87
1.7316
1.75536
1.78108
1.80868
1.83826
1.87004
1.70987
1.68973
1.67115
1.65407
1.63852
1.62466
1.61256
1.60276
1.59546
1.59152
1.59295
1.59779
1.60773
1.6258
1.652
1.6878
1.73441
1.79448
1.87171
1.97364
2.11443
2.31861
2.60151
2.99644
3.57131
4.43907
5.81508
8.14408
12.2874
20.0126
36.3803
85.4688
338.82
2335.46
1.70987
1.73189
1.75588
1.78151
1.80902
1.83848
1.87012
1.68971
1.67113
1.65403
1.63847
1.62458
1.61245
1.60261
1.59525
1.59129
1.59271
1.59759
1.60765
1.62598
1.65237
1.68808
1.73369
1.79088
1.86096
1.9473
2.05592
2.20149
2.40657
2.68937
3.09081
3.66949
4.52501
5.88089
8.17536
12.2643
19.9332
36.3725
86.3597
346.493
2383.04
1.6897
1.7102
1.73249
1.75641
1.78196
1.80936
1.8387
1.8702
1.67112
1.65399
1.63843
1.6245
1.61235
1.60248
1.59506
1.5911
1.59251
1.59745
1.60771
1.62645
1.65354
1.69017
1.73643
1.79353
1.86154
1.94258
2.03817
2.15394
2.30214
2.50736
2.7978
3.20782
3.77853
4.61926
5.95296
8.21198
12.2464
19.8541
36.3508
87.1523
353.679
2427.72
1.6711
1.69005
1.71087
1.73311
1.75695
1.78242
1.80972
1.83893
1.87029
1.65396
1.6384
1.62443
1.61228
1.60236
1.5949
1.59094
1.59235
1.59736
1.60782
1.62701
1.65496
1.69305
1.74107
1.79998
1.86917
1.94948
2.04064
2.14578
2.26802
2.41822
2.63287
2.93405
3.33655
3.89588
4.72038
6.03027
8.25333
12.2333
19.779
36.3098
87.8669
360.526
2470.21
1.65393
1.67148
1.69078
1.71156
1.73374
1.75751
1.78289
1.81008
1.83917
1.87037
1.63837
1.62437
1.61221
1.60225
1.59477
1.59081
1.59222
1.5973
1.60795
1.62759
1.6564
1.69607
1.7465
1.80855
1.88087
1.96405
2.05623
2.15846
2.2706
2.3988
2.56483
2.79238
3.08557
3.47619
4.02055
4.8269
6.11171
8.29851
12.2249
19.7088
36.2627
88.5331
366.995
2510.23
1.63835
1.65432
1.67227
1.69153
1.71228
1.73439
1.75809
1.78337
1.81045
1.83941
1.87046
1.62431
1.61216
1.60215
1.59466
1.59069
1.59212
1.59726
1.60809
1.62814
1.6578
1.69901
1.75195
1.81798
1.89502
1.98326
2.08015
2.18558
2.29674
2.41603
2.56232
2.74882
2.97124
3.25125
3.62584
4.1519
4.93745
6.19619
8.34679
12.2206
19.6447
36.2152
89.1542
373.205
2548.43
1.62427
1.63875
1.65514
1.67309
1.69231
1.71301
1.73506
1.75868
1.78387
1.81083
1.83966
1.87055
1.61212
1.60206
1.59457
1.59059
1.59202
1.59722
1.60823
1.62866
1.65913
1.70179
1.75718
1.82731
1.91019
2.0056
2.10964
2.2223
2.33872
2.4593
2.60046
2.77122
2.95363
3.16732
3.43048
3.78398
4.28808
5.0509
6.28264
8.39723
12.2213
19.5872
36.1703
89.7486
379.073
2584.3
1.61208
1.62464
1.6396
1.65598
1.67393
1.69311
1.71376
1.73575
1.75929
1.78438
1.81123
1.83991
1.87064
1.60197
1.5945
1.5905
1.59194
1.5972
1.60836
1.62915
1.66037
1.70438
1.76214
1.83623
1.92509
2.0294
2.14336
2.26617
2.39224
2.52085
2.66741
2.83879
3.008
3.17844
3.3762
3.62055
3.94886
4.42823
5.16601
6.37013
8.44932
12.2242
19.5358
36.1309
90.3117
384.721
2618.59
1.60189
1.61246
1.62546
1.64048
1.65685
1.67479
1.69394
1.71454
1.73646
1.75991
1.7849
1.81163
1.84017
1.87073
1.59445
1.59041
1.59187
1.59718
1.60849
1.62961
1.66152
1.70677
1.76678
1.84466
1.93938
2.05293
2.17925
2.31616
2.45534
2.59709
2.75654
2.94006
3.11228
3.27196
3.42281
3.59666
3.81952
4.1199
4.57095
5.28194
6.4578
8.50226
12.2301
19.4907
36.0973
90.8578
390.037
2650.6
1.59442
1.60217
1.61328
1.6263
1.64138
1.65775
1.67568
1.69479
1.71533
1.73718
1.76055
1.78544
1.81204
1.84043
1.87082
1.59031
1.5918
1.59717
1.60861
1.63003
1.66259
1.70898
1.77111
1.85253
1.95298
2.0757
2.21489
2.36982
2.52757
2.68692
2.86548
3.07034
3.25777
3.42152
3.56225
3.68494
3.82692
4.02239
4.29466
4.71493
5.39742
6.54488
8.55545
12.2392
19.4513
36.0704
91.3775
395.165
2681.24
1.59023
1.59469
1.60282
1.61411
1.62718
1.64232
1.65868
1.67659
1.69566
1.71615
1.73793
1.76121
1.78599
1.81245
1.84068
1.8709
1.59172
1.59715
1.60873
1.63041
1.66356
1.711
1.77512
1.85984
1.96582
2.09747
2.24956
2.4239
2.60602
2.79078
2.99455
3.22965
3.44288
3.62337
3.76703
3.87786
3.96278
4.06598
4.22788
4.47079
4.85848
5.51182
6.63074
8.60847
12.2504
19.4173
36.0497
91.8839
399.959
2709.67
1.59169
1.59023
1.59527
1.60346
1.61498
1.6281
1.64328
1.65965
1.67752
1.69657
1.71699
1.7387
1.76188
1.78654
1.81285
1.84093
1.87098
1.59712
1.60883
1.63077
1.66445
1.71285
1.77881
1.8666
1.97789
2.11807
2.28301
2.47739
2.6859
2.90522
3.1461
3.42161
3.67203
3.88128
4.04046
4.14965
4.21768
4.2543
4.3116
4.43462
4.64731
5.00147
5.62451
6.71488
8.66088
12.2632
19.3882
36.0351
92.3651
404.594
2736.92
1.59715
1.59156
1.59024
1.59585
1.60417
1.61588
1.62907
1.64427
1.66065
1.67849
1.6975
1.71785
1.73949
1.76254
1.78707
1.81323
1.84117
1.87106
1.6089
1.63108
1.66525
1.71454
1.7822
1.87283
1.98917
2.13743
2.31509
2.5297
2.76546
3.02389
3.31705
3.65312
3.95531
4.20813
4.39602
4.51456
4.5708
4.58072
4.55758
4.56174
4.64103
4.82097
5.14272
5.73486
6.79687
8.71235
12.2774
19.3635
36.0259
92.8345
408.893
2762.03
1.60905
1.59679
1.59124
1.59021
1.59649
1.60494
1.61681
1.63007
1.64529
1.66168
1.67948
1.69845
1.71873
1.74027
1.76319
1.78759
1.81361
1.8414
1.87114
1.63135
1.66597
1.71608
1.78529
1.87855
1.99965
2.15552
2.34569
2.58027
2.84381
3.14501
3.49921
3.92268
4.30929
4.628
4.86341
5.00349
5.05364
5.03275
4.96633
4.87084
4.81455
4.84646
4.99058
5.28106
5.84229
6.87639
8.76258
12.2925
19.3427
36.0213
93.2786
413.068
2786.13
1.63169
1.60835
1.59584
1.59086
1.59031
1.59715
1.60578
1.61777
1.63112
1.64634
1.66274
1.6805
1.69943
1.71961
1.74103
1.76382
1.78809
1.81397
1.84162
1.87122
1.6666
1.71746
1.78811
1.88382
2.00934
2.17236
2.37474
2.62867
2.92049
3.26777
3.68924
4.21852
4.74038
5.18123
5.49623
5.67703
5.72571
5.66745
5.53823
5.37393
5.19247
5.06845
5.04975
5.15565
5.41564
5.94633
6.95313
8.81136
12.3083
19.3255
36.022
93.7116
416.909
2805.51
1.6673
1.63039
1.60639
1.59479
1.59059
1.59057
1.59781
1.60668
1.61875
1.63221
1.64742
1.66384
1.68154
1.7004
1.72046
1.74177
1.76444
1.78858
1.81433
1.84184
1.87129
1.71869
1.79066
1.88864
2.01828
2.18801
2.40215
2.67463
2.99528
3.39103
3.88415
4.53683
5.2405
5.90012
6.38212
6.63906
6.69535
6.58559
6.36498
6.08924
5.80273
5.52092
5.32203
5.24977
5.31574
5.54582
6.04658
7.02695
8.85849
12.3246
19.3111
36.0248
94.119
420.155
2821.84
1.71998
1.66533
1.62672
1.60429
1.59389
1.59033
1.59101
1.59848
1.60766
1.61977
1.63334
1.64853
1.66496
1.68258
1.70134
1.72129
1.74249
1.76503
1.78905
1.81467
1.84205
1.87136
1.79295
1.89303
2.0265
2.20253
2.42789
2.71806
3.068
3.51325
4.0813
4.87764
5.81433
6.78693
7.59464
8.04509
8.13408
7.95749
7.59963
7.15128
6.68594
6.25127
5.85457
5.57405
5.4456
5.47046
5.67121
6.14286
7.09765
8.90386
12.341
19.2996
36.0303
94.4631
422.839
2839.49
1.79523
1.71714
1.65945
1.62285
1.60242
1.59307
1.59001
1.5916
1.59916
1.60869
1.62082
1.63452
1.64968
1.66608
1.6836
1.70226
1.7221
1.74318
1.76562
1.78951
1.81501
1.84225
1.87143
1.89703
2.03402
2.21599
2.45197
2.75903
3.13842
3.63291
4.27942
5.24249
6.46701
7.84794
9.13181
10.0111
10.2775
10.0333
9.48387
8.773
8.02555
7.32592
6.71722
6.19169
5.82335
5.63649
5.61951
5.79148
6.23486
7.16517
8.94736
12.3575
19.2901
36.0381
94.7498
425.775
2858.79
1.90088
1.79131
1.70808
1.65329
1.61933
1.6007
1.59233
1.58973
1.59228
1.59989
1.60978
1.62192
1.63572
1.65083
1.66716
1.68459
1.70316
1.72288
1.74386
1.76618
1.78996
1.81533
1.84245
1.87147
2.04095
2.22843
2.47443
2.79763
3.20626
3.74888
4.47864
5.63244
7.19724
9.07825
10.9842
12.513
13.2879
13.1433
12.3567
11.274
10.099
8.98105
8.00422
7.19743
6.53042
6.06889
5.82186
5.76269
5.90662
6.32284
7.22954
8.98896
12.3739
19.2837
36.045
95.0719
428.954
2879.75
2.04738
1.8956
1.77776
1.69871
1.64764
1.61605
1.59911
1.59165
1.58953
1.59304
1.60067
1.61091
1.62306
1.63691
1.65195
1.66822
1.68555
1.70402
1.72365
1.74452
1.76673
1.79039
1.81565
1.84255
1.87147
2.24001
2.49532
2.83398
3.27122
3.86059
4.67989
6.04676
7.99738
10.46
13.1274
15.5219
17.1175
17.5173
16.6693
15.0975
13.3108
11.5614
10.0064
8.71392
7.68805
6.86881
6.30971
6.00125
5.89983
6.01599
6.40682
7.29076
9.02861
12.3878
19.2788
36.0548
95.4194
432.46
2902.77
2.2505
2.04052
1.87565
1.76389
1.69004
1.64229
1.61296
1.59763
1.59106
1.58943
1.59385
1.60153
1.61206
1.62423
1.63807
1.65305
1.66924
1.68649
1.70487
1.7244
1.74516
1.76726
1.79081
1.8158
1.84255
1.87147
2.51487
2.86819
3.33308
3.96799
4.88425
6.48271
8.85585
11.9685
15.5222
18.9932
21.724
23.0956
22.7566
20.8541
18.2308
15.5666
13.1387
11.0873
9.44691
8.18485
7.20489
6.54495
6.17429
6.03103
6.11949
6.4867
7.34886
9.06135
12.4
19.2744
36.0661
95.8149
436.254
2927.8
2.53217
2.24153
2.01147
1.85547
1.75102
1.68178
1.63717
1.61004
1.59626
1.59057
1.58943
1.59469
1.60247
1.61321
1.62538
1.6392
1.65413
1.67024
1.68741
1.70569
1.72512
1.74578
1.76778
1.79102
1.8158
1.84255
1.87147
2.90055
3.39182
4.07152
5.09237
6.93591
9.75933
13.5764
18.1225
22.8613
27.0391
29.8259
30.5608
29.0285
25.6727
21.7183
18.0073
14.8064
12.2088
10.1947
8.68355
7.53678
6.77384
6.34071
6.15631
6.21734
6.56245
7.39664
9.08924
12.4136
19.2702
36.0824
96.242
440.451
2955.35
2.92878
2.52076
2.19936
1.98248
1.83672
1.73869
1.67382
1.63228
1.6073
1.59501
1.59018
1.58956
1.59553
1.60347
1.61431
1.62652
1.6403
1.65518
1.67121
1.6883
1.70649
1.72583
1.74639
1.76804
1.79102
1.8158
1.84255
1.87147
3.44774
4.17201
5.30439
7.4008
10.694
15.2567
20.8798
27.0479
32.9568
37.6068
40.0219
39.5809
36.3195
31.0786
25.5122
20.5961
16.54
13.3558
10.9489
9.18006
7.86269
6.99569
6.50034
6.27565
6.30974
6.62466
7.43721
9.11988
12.429
19.2674
36.1013
96.7316
445.002
2985.26
3.49598
2.91403
2.45949
2.15792
1.95548
1.8187
1.72676
1.66616
1.6276
1.60474
1.59388
1.5899
1.58988
1.59634
1.60451
1.6154
1.62765
1.64137
1.65621
1.67216
1.68917
1.70726
1.72651
1.74669
1.76804
1.79102
1.8158
1.84255
1.87147
4.27028
5.51852
7.87142
11.6462
16.9827
23.746
31.4702
39.3469
46.2693
50.9915
52.4468
50.1691
44.5789
37.0069
29.559
23.2957
18.3157
14.5144
11.7022
9.67063
8.18102
7.20998
6.65307
6.38909
6.38542
6.67745
7.48166
9.1536
12.4464
19.2648
36.1276
97.261
450.066
3018.24
4.35636
3.47739
2.82372
2.40025
2.11928
1.9295
1.80124
1.71524
1.65879
1.62313
1.60242
1.59287
1.58965
1.59044
1.59712
1.60556
1.61646
1.62875
1.64242
1.65721
1.67308
1.69001
1.70802
1.72685
1.74669
1.76804
1.79102
1.8158
1.84255
1.87143
5.73179
8.34345
12.6035
18.7293
26.6747
36.0455
46.0694
55.6005
63.2062
67.4146
67.1595
62.2785
53.7197
43.3777
33.8013
26.0697
20.112
15.6724
12.4478
10.1519
8.49045
7.41626
6.79886
6.48251
6.44954
6.73523
7.53041
9.19074
12.466
19.2649
36.1582
97.8732
455.57
3053.94
4.3324
5.91969
3.3401
2.73839
2.34496
2.08206
1.90431
1.78434
1.70412
1.65171
1.61884
1.60028
1.59196
1.58934
1.59113
1.59789
1.60662
1.6175
1.62983
1.64344
1.65819
1.67398
1.69084
1.70839
1.72685
1.74669
1.76804
1.79102
1.8158
1.84245
1.87136
8.81284
13.5551
20.4739
29.6226
40.6956
52.987
65.3712
76.3288
84.0894
87.0023
84.1326
75.8013
63.6249
50.1012
38.1815
28.8841
21.9097
16.8193
13.1802
10.6213
8.78987
7.61423
6.91942
6.56195
6.51964
6.7985
7.58391
9.23171
12.4884
19.2661
36.1995
98.5363
461.732
3093.38
4.10792
5.90092
9.22951
3.21477
2.65874
2.29169
2.04595
1.87988
1.76799
1.69342
1.64494
1.61481
1.59833
1.5912
1.58912
1.59188
1.59866
1.60766
1.61853
1.63089
1.64444
1.65914
1.67485
1.69124
1.70839
1.72685
1.74669
1.76804
1.79102
1.81565
1.84225
1.87129
14.4904
22.1976
32.5518
45.3495
59.9728
75.3598
89.9959
101.956
109.131
109.77
103.248
90.5754
74.1537
57.0823
42.6437
31.7081
23.6923
17.946
13.8948
11.0766
9.07842
7.77869
7.02221
6.6491
6.59634
6.86785
7.64266
9.27695
12.5138
19.2695
36.2475
99.3094
468.44
3135.86
3.91084
5.50394
9.24011
15.323
3.09872
2.58205
2.24006
2.01094
1.85624
1.75222
1.68314
1.6385
1.61109
1.59664
1.59056
1.58901
1.59265
1.59946
1.60869
1.61954
1.63192
1.64542
1.66007
1.67529
1.69124
1.70839
1.72685
1.74669
1.76804
1.79081
1.81533
1.84204
1.87122
23.8819
35.4312
49.9475
66.9165
85.3693
103.863
120.458
132.789
138.414
135.611
124.301
106.393
85.1505
64.2261
47.1362
34.5146
25.4455
19.0456
14.588
11.516
9.31895
7.91931
7.1353
6.74483
6.68034
6.9439
7.70724
9.32698
12.5428
19.2763
36.3112
100.149
476.009
3182.88
3.732
5.15829
8.51394
15.4076
25.3904
2.9874
2.5078
2.19003
1.97706
1.83343
1.73707
1.67333
1.63247
1.60777
1.5952
1.59007
1.58902
1.59342
1.60029
1.60969
1.62054
1.63292
1.64638
1.66053
1.67528
1.69124
1.70839
1.72685
1.74669
1.76778
1.79038
1.815
1.84183
1.87114
38.2319
54.443
73.7297
95.236
117.632
139.075
157.155
169.002
171.88
164.298
147.009
123.014
96.4551
71.4424
51.6119
37.2799
27.1581
20.1125
15.257
11.8827
9.52502
8.0745
7.2599
6.85007
6.77242
7.02734
7.77828
9.38237
12.576
19.2875
36.3856
101.137
484.251
3233.11
3.56347
4.84591
7.86778
14.1586
25.6577
40.7466
2.87996
2.43598
2.14167
1.94438
1.8115
1.72258
1.66409
1.627
1.60488
1.59396
1.58972
1.58914
1.59417
1.60114
1.61066
1.62154
1.63391
1.64685
1.66052
1.67528
1.69124
1.70839
1.72685
1.74638
1.76725
1.78994
1.81466
1.84161
1.87106
58.7938
80.3484
104.837
131.071
157.371
181.459
200.359
210.626
209.323
195.489
171.029
140.181
107.911
78.6482
56.0299
39.985
28.8212
21.1425
15.8153
12.197
9.75287
8.24598
7.39733
6.9659
6.87347
7.11896
7.85647
9.44379
12.614
19.3034
36.4822
102.214
493.652
3288.83
3.40333
4.55437
7.27586
13.0087
23.7165
41.3483
62.6976
2.77633
2.36671
2.09508
1.91297
1.79051
1.70888
1.65564
1.62214
1.60235
1.59293
1.58948
1.5894
1.59489
1.60201
1.61162
1.62253
1.63439
1.64684
1.66052
1.67528
1.69124
1.70839
1.72651
1.74577
1.76671
1.78949
1.81431
1.84139
1.87098
86.7157
114.09
144.015
175.017
205.071
231.375
250.223
257.534
250.381
228.735
195.976
157.636
119.372
85.7696
60.3564
42.6143
30.4276
22.0019
16.2937
12.5447
10.0051
8.43569
7.54909
7.09352
6.98448
7.21965
7.94263
9.51192
12.6576
19.3262
36.5962
103.45
503.852
3347.64
3.25112
4.28062
6.72041
11.9301
21.8927
38.5214
63.8229
92.4067
2.67659
2.30015
2.05037
1.88292
1.77064
1.69632
1.64808
1.61782
1.60017
1.59206
1.58931
1.58984
1.59558
1.6029
1.61258
1.62301
1.63437
1.64684
1.66052
1.67528
1.69124
1.70801
1.72581
1.74514
1.76616
1.78903
1.81396
1.84116
1.8709
122.927
156.371
191.808
227.539
261.145
289.105
306.767
309.431
294.545
263.513
221.453
175.134
130.706
92.7458
64.5637
45.1557
31.7688
22.7385
16.8228
12.9296
10.2845
8.64579
7.71689
7.2343
7.10656
7.33034
8.03756
9.58771
12.7079
19.3561
36.7412
104.781
515.645
3424.29
3.10665
4.02444
6.19707
10.9024
20.1432
35.8378
59.909
94.2544
130.765
2.58092
2.23647
2.00764
1.85451
1.75241
1.68504
1.64131
1.61396
1.59832
1.59132
1.58908
1.59039
1.59626
1.60385
1.61303
1.62299
1.63436
1.64684
1.66052
1.67528
1.69083
1.70725
1.7251
1.7445
1.76559
1.78856
1.81359
1.84092
1.87081
168.064
207.648
248.604
289.042
325.984
354.867
369.869
365.837
341.172
299.25
247.067
192.45
141.805
99.5266
68.6299
47.2779
32.9185
23.5532
17.4085
13.3562
10.5945
8.87873
7.90263
7.38974
7.24096
7.45219
8.14238
9.67193
12.7656
19.3967
36.9114
106.325
530.591
3516.46
2.96961
3.78627
5.70656
9.92085
18.4412
33.226
56.1884
89.0353
133.501
178.312
2.48956
2.17584
1.9673
1.82845
1.73603
1.67492
1.63526
1.61051
1.59673
1.59072
1.58892
1.591
1.59702
1.6043
1.61296
1.62299
1.63436
1.64684
1.66052
1.67485
1.69
1.70646
1.72437
1.74384
1.76501
1.78807
1.81322
1.84068
1.87073
222.469
268.187
314.738
359.967
400.004
428.817
439.235
426.092
389.521
335.361
272.453
209.395
152.579
106.073
72.0238
49.0974
34.1903
24.4549
18.0574
13.8292
10.9385
9.13726
8.10845
7.56157
7.38908
7.58625
8.25779
9.76579
12.8325
19.4483
37.1237
108.332
550.144
3609.07
2.83943
3.5673
5.25039
8.99139
16.7766
30.6493
52.5388
84.1092
126.715
182.012
235.225
2.40286
2.11877
1.93037
1.80505
1.72132
1.66584
1.62984
1.60749
1.5954
1.59022
1.58885
1.59175
1.59732
1.60425
1.61296
1.62299
1.63436
1.64685
1.66006
1.67396
1.68914
1.70566
1.72362
1.74316
1.76442
1.78757
1.81284
1.84043
1.87064
286.25
338.195
390.626
440.886
483.703
511.029
514.378
489.361
438.783
371.28
297.3
225.816
162.957
111.527
74.932
51.11
35.5983
25.4539
18.7767
14.3542
11.3207
9.42441
8.33675
7.75169
7.55251
7.73435
8.38602
9.87066
12.9096
19.5159
37.4203
110.991
571.41
3701.07
2.7159
3.36894
4.82978
8.11795
15.1509
28.0905
48.9088
79.2719
120.411
173.309
239.815
301.389
2.32165
2.06668
1.89726
1.78405
1.7081
1.6577
1.62502
1.60486
1.59423
1.58984
1.58906
1.59209
1.59716
1.60427
1.61295
1.62299
1.63439
1.64637
1.65912
1.67305
1.68827
1.70483
1.72285
1.74246
1.7638
1.78706
1.81244
1.84017
1.87055
359.435
417.983
476.913
532.632
577.699
601.491
594.592
554.656
488.134
406.508
321.35
241.594
171.581
116.195
78.1461
53.3373
37.1582
26.5614
19.5747
14.9372
11.7455
9.74356
8.59017
7.96224
7.7329
7.89646
8.52827
9.98796
12.9994
19.6158
37.8476
113.96
594.575
3791.5
2.60011
3.1872
4.4452
7.30238
13.5766
25.5482
45.2665
74.4513
114.258
165.417
228.694
306.583
376.558
2.24796
2.02011
1.8676
1.76519
1.69624
1.65042
1.62074
1.60254
1.59326
1.5898
1.58903
1.59197
1.59715
1.60427
1.61296
1.62301
1.6339
1.6454
1.65816
1.67212
1.68737
1.70399
1.72207
1.74174
1.76318
1.78653
1.81204
1.83991
1.87046
442.178
508.213
574.74
636.481
682.804
700.03
678.911
620.888
536.809
440.624
344.403
254.66
178.944
121.344
81.6992
55.8037
38.8873
27.7898
20.4605
15.5848
12.2177
10.0984
8.87162
8.19553
7.93268
8.07418
8.68592
10.1195
13.1226
19.7675
38.356
117.309
619.621
3879.67
2.495
3.02075
4.09817
6.5495
12.0712
23.0338
41.6002
69.5924
108.158
157.819
218.919
292.315
381.794
460.587
2.18247
1.97849
1.84103
1.74827
1.68561
1.64391
1.61692
1.60054
1.59278
1.58962
1.58873
1.59201
1.59715
1.60424
1.61302
1.62252
1.6329
1.64441
1.65717
1.67117
1.68645
1.70312
1.72126
1.74101
1.76253
1.78599
1.81163
1.83965
1.87037
535.042
610.151
685.964
754.392
799.993
806.191
766.128
686.965
584.139
473.3
363.434
265.786
187.045
127.024
85.6275
58.5354
40.8047
29.1532
21.444
16.3043
12.7427
10.493
9.18426
8.45414
8.15386
8.26948
8.86049
10.2941
13.2885
19.955
38.9582
121.105
646.791
3964.52
2.40174
2.87153
3.79016
5.86563
10.6518
20.5656
37.9135
64.6631
102.025
150.39
209.709
280.225
363.316
465
553.752
2.12427
1.94129
1.81724
1.7331
1.67609
1.63807
1.61357
1.59927
1.59233
1.58927
1.58875
1.59201
1.59715
1.60429
1.61257
1.62151
1.63188
1.6434
1.65617
1.6702
1.68551
1.70223
1.72043
1.74026
1.76187
1.78544
1.81122
1.8394
1.87028
639.207
725.907
813.704
889.13
930.175
919.144
854.9
751.865
629.575
500.219
379.596
277.986
195.949
133.285
89.9697
61.5611
42.9314
30.6664
22.5361
17.1035
13.3262
10.9316
9.53149
8.74079
8.39881
8.48432
9.08935
10.5163
13.4768
20.1833
39.6714
125.406
676.207
4045.33
2.31926
2.7389
3.52694
5.25846
9.33921
18.1664
34.2205
59.6484
95.7928
142.996
200.904
269.149
348.285
440.742
556.175
657.225
2.0725
1.90806
1.79594
1.71952
1.66752
1.63291
1.61123
1.59834
1.59185
1.5893
1.58875
1.59196
1.59731
1.60383
1.61159
1.62051
1.63084
1.64237
1.65513
1.6692
1.68455
1.70132
1.71959
1.73948
1.7612
1.78489
1.81082
1.83916
1.8702
756.77
859.754
963.058
1044.03
1073.95
1037.78
943.861
814.685
667.033
523.036
397.258
291.341
205.724
140.181
94.7666
64.9116
45.29
32.3458
23.7486
17.9911
13.9743
11.4187
9.91682
9.05852
8.6696
8.76478
9.37451
10.7561
13.6899
20.4577
40.5103
130.346
708.018
4120.89
2.24645
2.6204
3.30979
4.74058
8.15477
15.8607
30.5443
54.5456
89.4166
135.532
192.312
258.888
334.961
421.905
523.752
656.268
773.66
2.02642
1.87841
1.77688
1.70729
1.65992
1.62914
1.60966
1.59767
1.59192
1.5893
1.58872
1.59208
1.597
1.60288
1.61063
1.6195
1.62978
1.64132
1.65408
1.66817
1.68356
1.70038
1.71872
1.73869
1.76054
1.78437
1.81044
1.83892
1.87012
892.901
1019.56
1140.99
1222.94
1231.89
1160.99
1031.61
866.77
698.773
547.903
416.511
305.93
216.436
147.765
100.061
68.6192
47.9044
34.2092
25.0941
18.9759
14.6935
11.9592
10.3441
9.40996
9.02452
9.11218
9.67557
11.0143
13.9303
20.786
41.5051
135.952
742.615
4190.69
2.1822
2.51479
3.12593
4.30951
7.12745
13.6974
26.917
49.3636
82.8594
127.908
183.778
249.168
323.091
405.784
499.988
611.924
767.924
908.01
1.98542
1.85194
1.75975
1.69644
1.6542
1.62672
1.60874
1.59776
1.59191
1.58926
1.58901
1.59174
1.59623
1.60198
1.60964
1.61847
1.6287
1.64025
1.65301
1.66712
1.68256
1.69942
1.71784
1.73792
1.75989
1.78385
1.81007
1.83869
1.87004
1056.63
1216.67
1357.2
1431.31
1405.88
1287.27
1105.35
911.009
733.323
574.91
437.432
321.82
228.146
156.092
105.895
72.7174
50.8001
36.275
26.5861
20.0677
15.4904
12.5578
10.8164
9.8707
9.46427
9.47695
9.99272
11.2919
14.2016
21.1755
42.6739
142.462
779.954
4253.29
2.12548
2.42113
2.9672
3.95364
6.26426
11.7625
23.4063
44.1258
76.0949
120.035
175.157
239.779
312.281
392.05
480.334
581.867
705.728
895.578
1070.87
1.94893
1.82824
1.74453
1.68811
1.65063
1.62553
1.60888
1.59775
1.59184
1.58961
1.58904
1.59097
1.59554
1.60109
1.60864
1.61744
1.62759
1.63915
1.65191
1.66605
1.68153
1.69844
1.71697
1.73716
1.75926
1.78335
1.8097
1.83847
1.86996
1263.24
1469.5
1628.45
1682.56
1597.99
1395.84
1168.33
959.209
770.759
604.12
460.078
339.067
240.909
165.209
112.312
77.2401
54.0029
38.5625
28.2385
21.2762
16.3719
13.219
11.4352
10.4406
9.92469
9.85851
10.3253
11.5901
14.5072
21.6385
44.0583
149.898
820.71
4308.88
2.07533
2.33855
2.82783
3.6607
5.54856
10.0967
20.1502
38.91
69.1129
111.83
166.297
230.509
302.256
380.119
464.383
557.751
667.778
807.271
1047.92
1278.01
1.91635
1.80722
1.73265
1.68304
1.64906
1.62572
1.60887
1.59764
1.59231
1.58978
1.58882
1.59035
1.59484
1.60024
1.60761
1.6164
1.62647
1.63803
1.65079
1.66494
1.68048
1.69747
1.71612
1.73643
1.75865
1.78287
1.80935
1.83826
1.86989
1545.9
1820.76
1999.89
2000.7
1767.47
1489.09
1237.07
1011.37
811.092
635.547
484.471
357.706
254.765
175.161
119.35
82.2202
57.5389
41.0912
30.0654
22.6114
17.3441
14.0837
12.1985
11.0355
10.4036
10.2557
10.6741
11.9111
14.8531
22.1833
45.6975
158.594
864.717
4355.62
2.03079
2.26603
2.704
3.42254
4.96059
8.69139
17.2345
33.9128
61.9742
103.218
157.037
221.139
292.725
369.637
451.212
539.149
638.077
759.609
922.54
1248.43
1573.07
1.88751
1.79064
1.7255
1.68104
1.64933
1.62571
1.60871
1.5983
1.59276
1.58981
1.58888
1.5898
1.59412
1.5994
1.60656
1.61534
1.62533
1.63687
1.64966
1.66382
1.67945
1.69653
1.7153
1.73572
1.75806
1.7824
1.80901
1.83805
1.86982
2004.82
2389.84
2582.78
2282.63
1912.13
1590.44
1311.22
1067.35
854.242
669.15
510.6
377.745
269.74
185.98
127.044
87.6878
61.4327
43.8801
32.0808
24.0824
18.614
15.1478
12.9929
11.6519
10.8986
10.6669
11.0359
12.2564
15.2418
22.8313
47.6321
168.654
912.516
4393.32
1.99151
2.20229
2.5937
3.22581
4.47997
7.51634
14.664
29.2846
54.9182
94.2019
147.21
211.423
283.403
360.214
440.381
524.538
616.34
723.011
862.514
1064.71
1550.66
2118.28
1.86447
1.78085
1.72293
1.68141
1.64931
1.62549
1.60962
1.59924
1.59323
1.59018
1.58904
1.58935
1.59337
1.5986
1.60551
1.61427
1.62419
1.63569
1.64851
1.66271
1.67845
1.69562
1.7145
1.73503
1.75749
1.78194
1.80867
1.83784
1.86975
2853.96
3536.59
3058.45
2512.77
2065.29
1698.18
1390.09
1126.81
900.027
704.819
538.401
399.159
285.834
197.685
135.419
93.6686
65.7066
46.9472
34.2972
26.0016
20.1734
16.2527
13.8134
12.2858
11.4065
11.0911
11.4115
12.6261
15.6825
23.5884
49.9535
180.486
966.152
4419.66
1.95989
2.14668
2.49559
3.05911
4.09001
6.54531
12.445
25.0652
48.1582
85.0188
136.717
201.088
273.967
351.501
431.37
513.381
600.024
697.597
817.567
988.764
1267.49
2151.41
3298.35
1.85097
1.77764
1.72343
1.68139
1.64901
1.62667
1.6112
1.60051
1.5942
1.59068
1.58926
1.58908
1.59259
1.59782
1.60446
1.61316
1.62303
1.63449
1.64738
1.66163
1.67748
1.69474
1.71372
1.73436
1.75693
1.7815
1.80835
1.83765
1.86971
4971.02
4253.56
3394.92
2737.59