/*--------------------------------*- C++ -*----------------------------------*\
  =========                 |
  \\      /  F ield         | OpenFOAM: The Open Source CFD Toolbox
   \\    /   O peration     | Website:  https://openfoam.org
    \\  /    A nd           | Version:  8
     \\/     M anipulation  |
\*---------------------------------------------------------------------------*/
FoamFile
{
    version     2.0;
    format      ascii;
    class       volScalarField;
    location    "0.23";
    object      nut;
}
// * * * * * * * * * * * * * * * * * * * * * * * * * * * * * * * * * * * * * //

dimensions      [0 2 -1 0 0 0 0];

internalField   nonuniform List<scalar> 
15677
(
0.000168169
0.000652156
0.000148203
0.00151203
0.000443112
0.0001413
0.00267194
0.000878238
0.000381093
0.000142201
0.00391618
0.00152276
0.000687419
0.000354363
0.000145342
0.00501891
0.00236044
0.00114813
0.000586157
0.00034035
0.000151136
0.00583667
0.00332115
0.00178313
0.000948861
0.000529651
0.000332082
0.000156948
0.00633337
0.00430107
0.00257011
0.00146488
0.000821669
0.000492726
0.000327032
0.000162406
0.00656227
0.00518812
0.00345496
0.00213338
0.00125841
0.000737755
0.00046762
0.00032415
0.000167191
0.0066582
0.00589315
0.00435663
0.00292383
0.001843
0.00111312
0.000677747
0.000450575
0.000322571
0.000171424
0.00670541
0.006338
0.00518139
0.00378031
0.00255847
0.00163288
0.00100522
0.000634389
0.000438795
0.000322011
0.000174992
0.00671436
0.00655331
0.00584537
0.00462611
0.00336408
0.00228773
0.00147352
0.000924705
0.000602405
0.000430848
0.000321949
0.000178132
0.0067099
0.00666146
0.00629551
0.00537747
0.00419792
0.00304648
0.0020788
0.00134973
0.000862612
0.00057876
0.000425363
0.000322429
0.000180748
0.00670625
0.00669874
0.00652946
0.00596448
0.00498475
0.00385831
0.00279676
0.00191261
0.0012518
0.000814428
0.000560973
0.000421875
0.00032306
0.000183095
0.00670536
0.00670438
0.00664671
0.00635677
0.00565029
0.00465655
0.00358425
0.00259452
0.00177851
0.00117347
0.000776555
0.00054779
0.000419511
0.000323978
0.00018514
0.0067054
0.00670288
0.00668782
0.00656281
0.0061421
0.00536885
0.004382
0.00335788
0.00242868
0.00166871
0.00110994
0.000746761
0.000537671
0.000418288
0.00032482
0.000186951
0.00670554
0.00670167
0.00669633
0.00665648
0.00644674
0.00593378
0.00512148
0.00414942
0.00316925
0.00229063
0.00157823
0.00105821
0.000723018
0.000530399
0.000417397
0.000325871
0.00018861
0.00670562
0.00670122
0.00669707
0.00668486
0.0066048
0.00632172
0.00573771
0.00490445
0.00395166
0.00301006
0.00217531
0.00150307
0.00101616
0.000704529
0.000524659
0.000417275
0.000326802
0.000190021
0.00670564
0.00670113
0.00669667
0.00669163
0.00666368
0.00654118
0.00618836
0.00555728
0.00471499
0.00378212
0.0028754
0.00207829
0.00144072
0.000982075
0.000689611
0.000520792
0.000417195
0.000327882
0.000191452
0.00670562
0.00670116
0.00669637
0.00669272
0.00668226
0.00663449
0.00646784
0.00605812
0.00539419
0.00454919
0.00363679
0.0027609
0.00199682
0.00138915
0.000954154
0.000678247
0.000517659
0.000417714
0.000328857
0.000192564
0.00670561
0.00670119
0.00669623
0.00669268
0.00668725
0.00666909
0.00659803
0.00638948
0.00593514
0.00524743
0.00440475
0.00351187
0.00266382
0.00192863
0.00134648
0.000931867
0.000669071
0.000515923
0.000418111
0.000329925
0.000193893
0.00670559
0.00670122
0.00669616
0.00669259
0.00668817
0.00668079
0.00665141
0.00655615
0.00631111
0.0058201
0.00511688
0.00427888
0.00340501
0.00258181
0.00187181
0.00131173
0.000913868
0.000662496
0.000514451
0.000419019
0.000330952
0.000194775
0.00670558
0.00670124
0.00669611
0.00669256
0.00668813
0.00668422
0.00667168
0.00663036
0.00651136
0.0062333
0.005715
0.00500103
0.0041702
0.00331405
0.00251317
0.00182515
0.00128358
0.000900018
0.00065725
0.000514143
0.000419725
0.000331983
0.000196092
0.00670558
0.00670124
0.00669609
0.00669256
0.00668798
0.00668506
0.0066785
0.00666143
0.00660613
0.0064652
0.0061604
0.00561957
0.00489996
0.0040769
0.00323759
0.00245644
0.0017873
0.0012615
0.000889344
0.000654124
0.000513794
0.000420892
0.000333125
0.000196806
0.00670558
0.00670124
0.00669607
0.00669256
0.00668786
0.00668519
0.00668043
0.00667333
0.00664846
0.00658073
0.0064195
0.00609237
0.00553525
0.00481207
0.00399806
0.00317412
0.00241065
0.0017578
0.00124475
0.000881859
0.000651663
0.000514506
0.000421799
0.000334033
0.000198124
0.00670559
0.00670124
0.00669607
0.00669255
0.00668779
0.00668517
0.0066808
0.00667747
0.00666578
0.0066355
0.00655408
0.00637606
0.00603077
0.00546035
0.00473763
0.00393281
0.00312346
0.00237494
0.00173531
0.00123248
0.000876713
0.000651164
0.000514958
0.000423217
0.000335474
0.000198813
0.00670559
0.00670123
0.00669607
0.00669253
0.00668776
0.00668513
0.00668076
0.00667873
0.00667219
0.00665966
0.00662052
0.00652869
0.00633562
0.00597492
0.00539788
0.00467635
0.00388053
0.00308312
0.00234784
0.00171991
0.00122533
0.000874517
0.000650833
0.000516481
0.000424152
0.000336232
5.33569e-05
0.0067056
0.00670122
0.00669607
0.00669252
0.00668774
0.00668508
0.00668067
0.00667902
0.00667426
0.00666954
0.0066509
0.00660748
0.0065044
0.00629978
0.00592972
0.00534462
0.00462579
0.00383943
0.00305557
0.00233173
0.00171198
0.00122203
0.000873875
0.00065245
0.000517608
0.000426587
0.000283624
6.33173e-05
0.0067056
0.00670121
0.00669607
0.0066925
0.00668773
0.00668503
0.00668061
0.006679
0.0066748
0.00667322
0.00666375
0.0066456
0.00659344
0.0064832
0.00626866
0.00588769
0.005304
0.00459268
0.0038161
0.00303967
0.00232283
0.00170875
0.00122152
0.000875713
0.000654108
0.000519713
0.00042011
0.000219493
7.06896e-05
0.00670561
0.0067012
0.00669608
0.00669248
0.00668773
0.00668499
0.00668057
0.00667892
0.00667485
0.00667439
0.00666876
0.00666281
0.00663721
0.006584
0.00646646
0.00624233
0.00586503
0.00527994
0.00457049
0.00379935
0.00303059
0.00232002
0.00171017
0.00122531
0.000878843
0.000656483
0.00052096
0.000400243
0.000178051
7.61268e-05
0.00670562
0.00670119
0.00669609
0.00669246
0.00668773
0.00668495
0.00668054
0.00667883
0.00667479
0.00667461
0.00667049
0.00666997
0.00665741
0.00663618
0.0065746
0.00645189
0.00623386
0.00584843
0.00526197
0.00455645
0.00379207
0.0030303
0.00232479
0.00171774
0.00123195
0.000883597
0.000659856
0.000518857
0.000367475
0.000152566
8.05303e-05
0.00670562
0.00670118
0.0066961
0.00669244
0.00668774
0.00668492
0.00668052
0.00667874
0.00667473
0.00667454
0.00667096
0.0066726
0.00666619
0.0066613
0.00663026
0.00657346
0.00645096
0.006227
0.00583847
0.00525378
0.00455549
0.00379813
0.00304127
0.00233768
0.00172999
0.00124161
0.000890005
0.000662944
0.000512893
0.000336293
0.000134226
8.39228e-05
0.00670563
0.00670117
0.0066961
0.00669243
0.00668774
0.00668489
0.00668051
0.00667867
0.00667467
0.00667441
0.00667102
0.00667331
0.00666972
0.00667243
0.00665773
0.00663943
0.00657657
0.00645395
0.00622598
0.00584117
0.00526266
0.00456919
0.00381622
0.00306142
0.00235729
0.00174676
0.0012541
0.000897571
0.000665809
0.00050158
0.000306202
0.00012126
8.63311e-05
0.00670563
0.00670116
0.00669611
0.00669241
0.00668775
0.00668486
0.0066805
0.00667861
0.00667462
0.00667427
0.00667096
0.00667335
0.00667091
0.0066769
0.00667084
0.00667279
0.00664525
0.00658543
0.00646304
0.00624022
0.00585989
0.00528502
0.00459586
0.00384534
0.00309044
0.00238348
0.00176759
0.00126924
0.000906297
0.000667146
0.000486355
0.000280145
0.000112761
8.81134e-05
0.00670564
0.00670115
0.00669612
0.0066924
0.00668775
0.00668483
0.00668049
0.00667855
0.00667458
0.00667415
0.00667087
0.00667321
0.00667122
0.00667834
0.00667663
0.00668838
0.00668054
0.0066581
0.00660335
0.00648588
0.00626813
0.00589236
0.00532164
0.00463529
0.00388548
0.00312813
0.00241573
0.0017924
0.00128667
0.000915772
0.000667417
0.000469549
0.000260378
0.000106988
8.94961e-05
0.00670115
0.00670565
0.00669613
0.00669239
0.00668776
0.00668481
0.00668049
0.00667851
0.00667454
0.00667404
0.00667079
0.00667301
0.00667122
0.00667863
0.00667882
0.00669539
0.00669764
0.00669618
0.00668228
0.00663291
0.0065217
0.00631005
0.00594002
0.00537252
0.0046878
0.00393632
0.00317405
0.002454
0.00182078
0.0013063
0.000926992
0.000666546
0.000454703
0.000245189
0.000102938
9.0619e-05
0.00669613
0.00670115
0.00670567
0.00669237
0.00668777
0.00668478
0.00668049
0.00667846
0.00667452
0.00667395
0.0066707
0.00667283
0.00667113
0.00667854
0.00667953
0.00669813
0.0067055
0.0067152
0.00672468
0.00671669
0.00667533
0.00657202
0.00636792
0.00600298
0.00543824
0.00475302
0.00399778
0.00322815
0.00249765
0.00185262
0.00133061
0.000940531
0.000665299
0.000441907
0.000233406
0.000100055
9.15709e-05
0.00669236
0.00669617
0.00670117
0.00670569
0.00668778
0.00668476
0.00668049
0.00667842
0.00667449
0.00667388
0.00667063
0.00667267
0.00667101
0.00667832
0.00667969
0.00669906
0.00670876
0.00672427
0.0067466
0.00676268
0.00676434
0.00673236
0.00663871
0.00644274
0.006083
0.00551928
0.0048314
0.00406946
0.00328963
0.0025467
0.00189149
0.00135961
0.000954833
0.000664387
0.000431474
0.000224096
9.79485e-05
9.24035e-05
0.00668778
0.00669238
0.00669623
0.00670119
0.0067057
0.00668474
0.0066805
0.00667839
0.00667448
0.00667381
0.00667056
0.00667253
0.00667089
0.00667808
0.00667966
0.0066993
0.00671002
0.0067283
0.0067575
0.00678728
0.00681439
0.00682677
0.00680623
0.00672267
0.00653566
0.00617981
0.00561589
0.00492202
0.00415091
0.00335856
0.0026064
0.00193938
0.00139019
0.00096994
0.000664323
0.000422709
0.00021663
9.64131e-05
9.31523e-05
0.00668473
0.00668783
0.00669243
0.00669629
0.00670121
0.00670572
0.0066805
0.00667835
0.00667447
0.00667375
0.00667051
0.00667241
0.00667078
0.00667785
0.00667957
0.00669927
0.00671047
0.00673007
0.00676273
0.00680029
0.00684196
0.00688065
0.00690606
0.00689761
0.00682558
0.00664649
0.00629391
0.00572806
0.00502579
0.0042419
0.00344223
0.00267942
0.00199116
0.00142222
0.000985728
0.000664977
0.000415602
0.00021056
9.52628e-05
9.38349e-05
0.00668051
0.00668475
0.00668793
0.00669248
0.00669635
0.00670123
0.00670575
0.00667832
0.00667446
0.00667369
0.00667046
0.00667232
0.00667067
0.00667765
0.00667947
0.00669916
0.00671061
0.00673091
0.00676536
0.00680723
0.00685801
0.00691279
0.00696644
0.00700453
0.00700802
0.00694635
0.00677545
0.00642474
0.00585467
0.00514149
0.00435257
0.00354456
0.00275805
0.00204598
0.00145555
0.00100238
0.000666945
0.000409801
0.000205526
9.44173e-05
9.44677e-05
0.00667829
0.00668057
0.00668482
0.00668803
0.00669253
0.00669642
0.00670124
0.00670577
0.00667446
0.00667364
0.00667042
0.00667224
0.00667056
0.00667749
0.00667937
0.00669901
0.00671063
0.00673136
0.00676687
0.00681117
0.00686737
0.00693232
0.00700392
0.0070726
0.00712641
0.00714097
0.00708685
0.00692115
0.00657082
0.0059943
0.00528334
0.00448849
0.00365447
0.00284136
0.00210342
0.00148978
0.00101937
0.0006699
0.000405061
0.000201263
9.37709e-05
9.50545e-05
0.00667446
0.00667831
0.00668069
0.00668489
0.00668813
0.00669258
0.00669649
0.00670126
0.00670579
0.00667359
0.00667039
0.00667216
0.00667046
0.00667736
0.00667928
0.00669887
0.0067106
0.00673164
0.00676786
0.00681379
0.0068734
0.00694479
0.00702855
0.00711673
0.00720333
0.00727119
0.00729868
0.00725026
0.00708345
0.00673101
0.00616333
0.00545407
0.00463513
0.00377166
0.00292849
0.00216285
0.00152493
0.00103635
0.00067333
0.000401324
0.000197663
9.33011e-05
9.56059e-05
0.00667355
0.00667452
0.00667838
0.00668081
0.00668496
0.00668824
0.00669263
0.00669656
0.00670128
0.00670581
0.00667037
0.0066721
0.00667037
0.00667727
0.00667918
0.00669873
0.00671056
0.00673184
0.0067686
0.00681577
0.00687782
0.00695358
0.00704594
0.00714795
0.00725647
0.00735924
0.00744251
0.0074797
0.0074372
0.00726673
0.00692091
0.00636334
0.0056352
0.00478937
0.00389415
0.00301855
0.00222373
0.00156087
0.0010533
0.000677487
0.000398389
0.000194548
9.29365e-05
9.61194e-05
0.00667036
0.00667354
0.00667463
0.00667846
0.00668094
0.00668504
0.00668834
0.00669269
0.00669663
0.0067013
0.00670583
0.00667203
0.0066703
0.00667721
0.00667907
0.00669862
0.00671053
0.00673201
0.00676921
0.00681742
0.00688138
0.00696054
0.00705933
0.00717174
0.00729708
0.00742388
0.00754496
0.0076402
0.00768582
0.00764537
0.00749339
0.00715532
0.00657356
0.0058232
0.00494803
0.00401968
0.00311064
0.00228549
0.00159721
0.00107024
0.000682121
0.000396056
0.000191879
9.26819e-05
9.66046e-05
0.00667197
0.00667038
0.00667358
0.00667476
0.00667853
0.00668108
0.00668511
0.00668846
0.00669274
0.0066967
0.00670133
0.00670586
0.00667024
0.00667716
0.00667894
0.00669852
0.0067105
0.00673216
0.00676974
0.00681887
0.0068844
0.00696649
0.00707054
0.00719109
0.00733047
0.00747674
0.007625
0.00776035
0.00786686
0.007917
0.00790041
0.00776992
0.00741072
0.00679262
0.00601362
0.00510907
0.00414715
0.00320371
0.00234766
0.00163367
0.00108705
0.00068717
0.00039431
0.000189533
9.2482e-05
9.70557e-05
0.00667019
0.0066719
0.00667042
0.00667362
0.00667489
0.00667861
0.00668122
0.00668519
0.00668858
0.0066928
0.00669678
0.00670135
0.00670588
0.00667713
0.00667879
0.00669846
0.0067105
0.0067323
0.00677022
0.00682016
0.00688705
0.0069718
0.00708036
0.0072079
0.00735927
0.00752271
0.00769458
0.00785973
0.00800961
0.00812285
0.00820216
0.00821366
0.00806808
0.00768255
0.00702405
0.00620619
0.00527069
0.00427454
0.00329689
0.0024097
0.00166994
0.00110382
0.000692188
0.000393023
0.000187511
9.23554e-05
9.7483e-05
0.00667711
0.00667007
0.00667182
0.00667048
0.00667366
0.00667504
0.00667869
0.00668137
0.00668527
0.0066887
0.00669286
0.00669686
0.00670137
0.0067059
0.00667862
0.00669845
0.00671051
0.00673244
0.00677064
0.00682132
0.00688942
0.00697661
0.00708913
0.00722308
0.00738522
0.00756363
0.00775818
0.00795099
0.00813446
0.00829337
0.00844132
0.00855557
0.00855441
0.0083847
0.00796477
0.00726382
0.00639894
0.00542974
0.00440058
0.00338918
0.00247117
0.0017058
0.00112055
0.000697178
0.000392076
0.000185704
9.22547e-05
9.78787e-05
0.00667844
0.00667692
0.00666983
0.00667173
0.00667056
0.00667369
0.0066752
0.00667876
0.00668152
0.00668535
0.00668882
0.00669293
0.00669693
0.0067014
0.00670592
0.0066985
0.00671054
0.00673257
0.00677101
0.00682236
0.00689155
0.006981
0.00709705
0.00723706
0.00740903
0.00760107
0.00781698
0.00803821
0.00825461
0.00844985
0.00865013
0.0088408
0.00894427
0.00891957
0.00871656
0.00825471
0.00750879
0.00659539
0.00558592
0.00452423
0.00348009
0.00253167
0.00174107
0.00113704
0.000702119
0.000391418
0.000184141
9.22063e-05
9.82544e-05
0.00669862
0.00667771
0.00667658
0.00666962
0.00667163
0.00667066
0.00667372
0.00667537
0.00667884
0.00668168
0.00668543
0.00668894
0.00669299
0.00669701
0.00670143
0.00670594
0.00671056
0.00673269
0.00677134
0.0068233
0.00689348
0.006985
0.00710425
0.00725001
0.00743096
0.00763592
0.00787252
0.00812095
0.00837286
0.00860663
0.00885214
0.00910465
0.00928646
0.00936631
0.00930676
0.00906105
0.00855002
0.00775423
0.00679277
0.00573923
0.00464517
0.00356887
0.00259084
0.00177557
0.00115324
0.000706999
0.000390952
0.00018272
9.21665e-05
9.86004e-05
0.00671056
0.00669816
0.00667635
0.00667621
0.00666947
0.00667151
0.0066708
0.00667375
0.00667556
0.00667892
0.00668185
0.00668552
0.00668907
0.00669306
0.00669708
0.00670145
0.00670595
0.00673278
0.00677161
0.00682415
0.00689524
0.00698866
0.00711082
0.00726199
0.00745113
0.00766864
0.00792533
0.00819963
0.00848699
0.00876712
0.0090646
0.0093737
0.0096205
0.00977947
0.0098222
0.00971525
0.00941645
0.00884868
0.00799864
0.00698889
0.00588813
0.00476182
0.00365495
0.00264839
0.00180917
0.00116906
0.00071179
0.00039068
0.000181492
9.21661e-05
9.89298e-05
0.00673286
0.00670953
0.00669707
0.0066753
0.00667574
0.00666942
0.00667136
0.00667097
0.00667377
0.00667575
0.00667901
0.00668202
0.00668562
0.00668919
0.00669313
0.00669714
0.00670148
0.00670597
0.00677182
0.00682491
0.00689685
0.00699199
0.00711682
0.00727305
0.00746968
0.00769947
0.00797524
0.00827437
0.00859808
0.00892865
0.00928971
0.00966742
0.00997902
0.0102083
0.0103289
0.0103169
0.0101464
0.00978217
0.00914932
0.00824078
0.00718252
0.00603458
0.00487395
0.00373799
0.0027041
0.00184174
0.00118445
0.000716479
0.000390506
0.000180354
9.21635e-05
9.92314e-05
0.00677202
0.00673122
0.00670732
0.00669548
0.00667461
0.00667515
0.00666946
0.00667118
0.00667117
0.00667379
0.00667595
0.0066791
0.00668219
0.00668572
0.0066893
0.0066932
0.00669721
0.00670151
0.00670598
0.00682561
0.00689833
0.00699502
0.00712231
0.00728321
0.00748675
0.00772842
0.00802201
0.00834546
0.00870727
0.00909076
0.00951678
0.00998684
0.0103948
0.0107054
0.010898
0.0109525
0.0108586
0.0106029
0.0101582
0.00945105
0.00847977
0.00737151
0.00617814
0.00498167
0.00381777
0.00275777
0.00187318
0.00119935
0.000721044
0.000390474
0.000179377
9.21922e-05
9.95193e-05
0.0068263
0.00676925
0.00672772
0.00670514
0.00669356
0.00667427
0.00667441
0.00666959
0.00667098
0.00667139
0.00667382
0.00667616
0.00667921
0.00668235
0.00668582
0.00668941
0.00669327
0.00669727
0.00670154
0.006706
0.00689968
0.00699778
0.00712734
0.00729252
0.00750245
0.00775548
0.00806556
0.00841336
0.00881439
0.00925072
0.0097408
0.0103265
0.0108937
0.0113412
0.0116173
0.0117239
0.0116655
0.0114528
0.0110859
0.0105442
0.00975309
0.00871485
0.00755508
0.00631787
0.00508496
0.00389418
0.00280931
0.00190344
0.00121372
0.000725471
0.000390497
0.00017846
9.22132e-05
9.97494e-05
0.00690096
0.00682283
0.00676324
0.00672434
0.00670298
0.00669125
0.00667426
0.00667355
0.0066698
0.00667077
0.00667162
0.00667386
0.00667636
0.00667932
0.0066825
0.00668592
0.00668951
0.00669334
0.00669733
0.00670157
0.00670601
0.00700029
0.00713191
0.00730102
0.00751689
0.0077806
0.008106
0.00847828
0.00891812
0.00940536
0.00996342
0.0107017
0.011492
0.0121708
0.0125894
0.0127443
0.0126919
0.0124662
0.0120966
0.0115933
0.0109388
0.0100545
0.00894537
0.00773293
0.00645316
0.00518382
0.00396716
0.00285862
0.00193247
0.00122753
0.000729751
0.000390546
0.000177684
9.22509e-05
9.99427e-05
0.0070026
0.00689605
0.00681478
0.0067573
0.00672118
0.00670114
0.00668848
0.00667451
0.00667263
0.00667005
0.00667059
0.00667185
0.00667393
0.00667655
0.00667944
0.00668264
0.00668603
0.00668961
0.00669341
0.00669738
0.0067016
0.00670602
0.00713607
0.00730875
0.00753014
0.00780379
0.00814352
0.00854009
0.00901689
0.0095536
0.0101919
0.0111291
0.0121983
0.0131659
0.0138269
0.0140903
0.0140332
0.0137621
0.0133298
0.0127767
0.0121185
0.0113391
0.0103541
0.00917074
0.00790481
0.00658357
0.00527824
0.00403668
0.00290569
0.00196022
0.00124078
0.000733887
0.000390637
0.000177048
9.22787e-05
0.000100151
0.00713989
0.00699593
0.00688424
0.00680678
0.00675163
0.00671818
0.00669987
0.00668549
0.00667488
0.00667173
0.00667029
0.00667045
0.00667205
0.00667402
0.00667672
0.00667957
0.00668277
0.00668613
0.00668971
0.00669348
0.00669743
0.00670163
0.00670603
0.00731575
0.00754224
0.00782509
0.00817828
0.00859844
0.00910967
0.00969668
0.0104334
0.0116092
0.0129816
0.0142429
0.0151672
0.015651
0.0156782
0.015372
0.0148652
0.0142168
0.0134723
0.0126517
0.0117406
0.0106503
0.00939035
0.00807053
0.00670885
0.00536829
0.00410283
0.00295049
0.00198669
0.00125343
0.000737878
0.000390732
0.000176536
9.23218e-05
0.000100377
0.00732209
0.0071309
0.00697907
0.00687244
0.00679897
0.00674621
0.00671533
0.00669885
0.00668249
0.00667524
0.00667093
0.00667047
0.00667037
0.00667222
0.00667414
0.00667687
0.0066797
0.0066829
0.00668624
0.00668979
0.00669354
0.00669748
0.00670166
0.00670604
0.00755327
0.00784455
0.00821042
0.00865297
0.00919631
0.00983671
0.0106898
0.0121238
0.0137831
0.0152947
0.0164405
0.0171457
0.0173903
0.0171834
0.0166506
0.0159318
0.0150858
0.0141608
0.0131817
0.0121386
0.0109411
0.00960359
0.00822994
0.00682885
0.00545388
0.00416544
0.00299301
0.00201189
0.0012655
0.000741199
0.000390827
0.000175994
9.23655e-05
0.000100622
0.00756324
0.00731046
0.00710714
0.00696218
0.00686092
0.00679131
0.00674097
0.00671268
0.0066979
0.00667967
0.00667544
0.0066703
0.00667057
0.00667038
0.00667236
0.00667427
0.00667701
0.00667984
0.00668302
0.00668634
0.00668988
0.00669361
0.00669753
0.00670167
0.00670604
0.00786228
0.00824002
0.00870347
0.00927725
0.00997516
0.0109568
0.012646
0.0145457
0.0162371
0.017534
0.0184054
0.0188586
0.018891
0.0185017
0.0177965
0.0169118
0.0159037
0.0148219
0.0136974
0.0125278
0.0112247
0.00980984
0.00838289
0.00694352
0.00553558
0.00422455
0.00303328
0.00203581
0.00127547
0.000744051
0.000390946
0.000175427
9.24296e-05
0.000100889
0.00787817
0.00754811
0.00727761
0.00708333
0.00694566
0.00684965
0.00678371
0.00673606
0.00671013
0.00669694
0.00667729
0.00667535
0.0066699
0.00667057
0.00667045
0.00667247
0.00667442
0.00667715
0.00667998
0.00668313
0.00668645
0.00668996
0.00669368
0.00669756
0.00670167
0.00670604
0.00826718
0.00874994
0.00935321
0.0101122
0.0112264
0.0131502
0.0152306
0.0170286
0.0184039
0.0193728
0.0199747
0.0202236
0.020104
0.0195954
0.0187774
0.0177782
0.0166494
0.0154411
0.0141902
0.0129038
0.0114993
0.0100086
0.00852932
0.00705263
0.00561358
0.00428034
0.00307136
0.00205549
0.00128397
0.000747198
0.000391096
0.000174833
9.24932e-05
0.000101178
0.00829149
0.00785923
0.00750308
0.00724465
0.00706004
0.00692952
0.00683861
0.00677616
0.00673151
0.00670758
0.0066958
0.00667579
0.00667492
0.00666973
0.00667049
0.00667057
0.00667256
0.00667458
0.00667727
0.00668011
0.00668324
0.00668655
0.00669004
0.00669371
0.00669756
0.00670167
0.00670604
0.00879256
0.00942479
0.0102466
0.0114895
0.0136182
0.0158203
0.0176624
0.0190555
0.02006
0.0207451
0.0211448
0.0212544
0.0210413
0.0204686
0.0195898
0.0185228
0.017313
0.0160092
0.0146534
0.0132628
0.0117633
0.0101992
0.00866912
0.00715619
0.00568785
0.00433297
0.00310256
0.00207222
0.00129331
0.000750698
0.000391281
0.000174207
9.25838e-05
0.000101495
0.00883046
0.00826766
0.00779829
0.0074579
0.00721234
0.00703728
0.00691373
0.00682778
0.00676866
0.00672712
0.00670495
0.00669372
0.00667504
0.00667421
0.00666974
0.00667037
0.00667072
0.00667264
0.00667474
0.00667739
0.00668024
0.00668335
0.00668665
0.00669008
0.00669371
0.00669756
0.00670167
0.00670604
0.00949241
0.0103766
0.0117388
0.01404
0.016313
0.0181519
0.0195184
0.0205107
0.0212234
0.0217087
0.0219758
0.0220013
0.0217405
0.0211451
0.0202462
0.0191495
0.017893
0.0165225
0.0150832
0.0136024
0.0120153
0.0103815
0.00880229
0.00725436
0.00575837
0.00437604
0.003129
0.00209056
0.0013036
0.000754563
0.000391508
0.000173555
9.26741e-05
0.000101836
0.00955392
0.00880106
0.00818526
0.00773708
0.00741356
0.00718073
0.00701503
0.00689831
0.00681721
0.00676131
0.00672289
0.00670239
0.00669104
0.00667487
0.00667336
0.00666985
0.00667024
0.00667088
0.00667272
0.0066749
0.00667751
0.00668037
0.00668345
0.0066867
0.00669008
0.00669371
0.00669756
0.00670167
0.00670604
0.0105005
0.0119725
0.0144129
0.0167162
0.0185192
0.0198295
0.0207762
0.0214741
0.0219916
0.022351
0.0225394
0.0225207
0.0222443
0.0216555
0.020766
0.0196686
0.0183931
0.0169806
0.015478
0.0139206
0.0122546
0.010555
0.00892886
0.00734728
0.00581638
0.00441252
0.00315792
0.00211069
0.00131494
0.000758882
0.000391788
0.000172868
9.28009e-05
0.000102209
0.010612
0.00951707
0.00868921
0.00810266
0.0076769
0.00737013
0.0071498
0.0069933
0.00688328
0.00680702
0.00675403
0.00671901
0.00670011
0.00668782
0.00667502
0.00667249
0.00666999
0.00667013
0.00667104
0.00667281
0.00667505
0.00667763
0.0066805
0.0066835
0.0066867
0.00669008
0.00669371
0.00669756
0.00670167
0.00670603
0.0121916
0.0147363
0.0170414
0.0187877
0.020024
0.0209035
0.0215569
0.0220658
0.022465
0.022752
0.0228987
0.0228629
0.0225927
0.02203
0.0211703
0.0200933
0.0188201
0.0173859
0.0158375
0.0142169
0.0124806
0.0107197
0.00904887
0.00742354
0.00586567
0.00445238
0.00318957
0.0021328
0.00132747
0.000763648
0.00039212
0.000172158
9.29286e-05
0.000102611
0.0105704
0.0123864
0.00935444
0.00857875
0.00802125
0.00761788
0.00732759
0.00711957
0.00697212
0.00686872
0.00679737
0.00674713
0.00671542
0.00669864
0.00668459
0.00667525
0.00667171
0.00667012
0.00667005
0.00667119
0.0066729
0.00667519
0.00667774
0.00668057
0.00668349
0.0066867
0.00669008
0.00669371
0.00669756
0.00670166
0.00670602
0.0150115
0.0173011
0.0189789
0.0201318
0.0209316
0.0215207
0.0219914
0.02239
0.0227244
0.0229746
0.0231041
0.023069
0.0228192
0.0222956
0.0214791
0.0204372
0.0191821
0.0177423
0.0161629
0.0144912
0.012693
0.0108755
0.00914744
0.00748824
0.00591969
0.004496
0.00322423
0.00215712
0.00134131
0.000768977
0.000392529
0.000171408
9.3106e-05
0.000103051
0.0103217
0.0123468
0.0152358
0.00919834
0.0084703
0.00794124
0.00756003
0.00728596
0.00709009
0.00695155
0.0068547
0.0067881
0.00674064
0.00671215
0.00669748
0.00668164
0.00667541
0.00667107
0.0066702
0.00667002
0.00667132
0.00667301
0.00667533
0.0066778
0.00668057
0.00668349
0.0066867
0.00669008
0.00669371
0.00669753
0.00670163
0.00670601
0.0175073
0.0191109
0.0201766
0.0208905
0.0214031
0.0218152
0.0221826
0.0225243
0.0228292
0.0230656
0.0231935
0.0231711
0.0229515
0.022475
0.0217103
0.0207131
0.0194872
0.0180541
0.0164561
0.0147439
0.0128918
0.011003
0.00923111
0.00755906
0.00597895
0.00454377
0.00326224
0.00218389
0.00135662
0.000774957
0.000393009
0.000170641
9.32867e-05
0.00010352
0.0100775
0.0119927
0.0151694
0.0176607
0.00904971
0.00836337
0.00786273
0.00750337
0.00724532
0.00706141
0.00693164
0.00684119
0.00677918
0.0067346
0.00670928
0.00669642
0.00667915
0.00667538
0.0066706
0.00667024
0.00667003
0.00667144
0.00667312
0.00667541
0.00667779
0.00668057
0.00668349
0.0066867
0.00669008
0.00669368
0.00669748
0.0067016
0.00670599
0.0191982
0.0201769
0.0208029
0.0212325
0.0215722
0.021886
0.0222034
0.0225236
0.0228213
0.0230584
0.0231953
0.0231941
0.0230114
0.0225872
0.0218792
0.0209327
0.0197435
0.0183261
0.0167194
0.014976
0.0130529
0.011111
0.00932269
0.00763665
0.00604403
0.00459614
0.00330396
0.00221339
0.0013736
0.000781606
0.000393599
0.00016983
9.35355e-05
0.000104035
0.00984855
0.0116093
0.014815
0.0175614
0.0192431
0.00890611
0.0082579
0.00778584
0.00744797
0.00720575
0.00703359
0.00691241
0.00682824
0.00677075
0.00672925
0.00670665
0.00669533
0.00667737
0.00667513
0.0066703
0.00667022
0.00667008
0.00667155
0.00667317
0.00667541
0.00667778
0.00668057
0.00668349
0.0066867
0.00669004
0.00669361
0.00669743
0.00670157
0.00670598
0.0201465
0.0206857
0.0210295
0.0212886
0.0215329
0.0218011
0.022104
0.0224251
0.0227297
0.0229769
0.0231304
0.0231571
0.0230164
0.0226475
0.0219985
0.0211058
0.019958
0.018563
0.0169554
0.0151602
0.0131882
0.0112288
0.00942299
0.00772173
0.00611555
0.00465363
0.00334979
0.00224594
0.00139244
0.000789058
0.00039428
0.00016901
9.37932e-05
0.00010458
0.0096342
0.0112316
0.0143736
0.0173308
0.0190912
0.0200854
0.00876578
0.00815414
0.0077107
0.00739394
0.00716734
0.0070067
0.00689401
0.00681613
0.00676294
0.00672464
0.00670414
0.00669379
0.00667633
0.00667466
0.00667016
0.00667016
0.00667016
0.00667159
0.00667316
0.00667541
0.00667778
0.00668057
0.0066835
0.00668664
0.00668996
0.00669354
0.00669738
0.00670154
0.00670597
0.0205509
0.0208092
0.0209832
0.0211473
0.0213476
0.0216061
0.0219178
0.0222542
0.0225742
0.0228381
0.0230147
0.023075
0.0229801
0.022668
0.0220788
0.021241
0.0201373
0.0187691
0.0171383
0.0153132
0.0133346
0.0113573
0.00953289
0.00781511
0.00619423
0.00471683
0.00340022
0.00228189
0.00141339
0.000797397
0.00039512
0.000168143
9.41443e-05
0.000105177
0.00943144
0.0108724
0.0138854
0.017014
0.018934
0.019879
0.0203941
0.00862817
0.00805242
0.00763747
0.00734143
0.00713018
0.00698095
0.00687687
0.00680504
0.00675561
0.00672054
0.00670179
0.00669166
0.00667584
0.00667405
0.00667012
0.00667009
0.00667022
0.00667157
0.00667316
0.00667541
0.00667779
0.00668057
0.00668345
0.00668654
0.00668988
0.00669347
0.00669732
0.00670151
0.00670595
0.0205821
0.0206701
0.0207474
0.0208662
0.0210584
0.0213316
0.0216674
0.0220275
0.0223683
0.0226545
0.0228601
0.0229594
0.0229133
0.0226585
0.0221284
0.0213454
0.0202868
0.0189239
0.0172879
0.0154763
0.0134926
0.0114973
0.0096533
0.00791768
0.00628086
0.00478638
0.00345576
0.00232168
0.00143671
0.000806783
0.000396082
0.000167254
9.45134e-05
0.0001058
0.00923781
0.0105361
0.0133719
0.0166356
0.0187068
0.0197553
0.0201329
0.0203383
0.00849333
0.00795307
0.00756636
0.00729059
0.00709462
0.00695701
0.00686124
0.00679491
0.00674884
0.00671693
0.00669976
0.00668907
0.00667569
0.00667337
0.00667016
0.00666998
0.00667025
0.00667156
0.00667316
0.00667541
0.00667779
0.0066805
0.00668334
0.00668644
0.00668979
0.0066934
0.00669727
0.00670148
0.00670594
0.0203589
0.0203468
0.0203748
0.0204838
0.0206936
0.0209985
0.0213674
0.0217557
0.0221214
0.0224353
0.0226763
0.0228194
0.0228245
0.0226267
0.0221544
0.0214248
0.0203938
0.0190486
0.0174447
0.0156495
0.0136628
0.0116498
0.00978526
0.00803042
0.00637634
0.00486304
0.00351705
0.00236573
0.00146273
0.000817312
0.00039727
0.000166297
9.50076e-05
0.000106602
0.00905169
0.0102241
0.0128438
0.0162075
0.018436
0.0195746
0.0200123
0.020022
0.0200335
0.00836161
0.00785645
0.00749756
0.00724193
0.0070616
0.00693522
0.00684702
0.00678578
0.00674261
0.0067138
0.00669841
0.00668641
0.00667572
0.00667271
0.0066703
0.00666987
0.00667027
0.00667156
0.00667316
0.0066754
0.00667774
0.00668037
0.00668323
0.00668634
0.0066897
0.00669333
0.00669721
0.00670145
0.00670592
0.0199548
0.0198871
0.0199008
0.0200268
0.0202734
0.0206202
0.0210266
0.0214455
0.0218401
0.022188
0.0224708
0.0226623
0.0227203
0.0225787
0.022162
0.0214748
0.020478
0.0191763
0.0176081
0.0158329
0.0138458
0.0118157
0.00992981
0.0081544
0.00648166
0.00494764
0.00358472
0.00241463
0.00149177
0.000829215
0.000398627
0.000165331
9.5642e-05
0.00010755
0.00887237
0.0099359
0.0123095
0.0157308
0.0181338
0.0193657
0.0198431
0.019885
0.0196611
0.019555
0.00823324
0.00776301
0.00743173
0.00719675
0.00703157
0.0069154
0.0068341
0.00677762
0.006737
0.00671097
0.0066973
0.00668392
0.00667582
0.00667216
0.00667044
0.00666982
0.00667027
0.00667157
0.00667316
0.00667533
0.00667762
0.00668024
0.00668312
0.00668623
0.00668961
0.00669327
0.00669714
0.00670143
0.0067059
0.019413
0.0193243
0.0193506
0.0195156
0.0198105
0.0202044
0.0206496
0.0211009
0.0215297
0.0219188
0.0222501
0.0224941
0.0226059
0.0225193
0.0221547
0.0215118
0.020561
0.0193062
0.0177775
0.0160261
0.0140418
0.0119957
0.010088
0.00829079
0.00659793
0.00504123
0.00365972
0.00246895
0.00152429
0.000842608
0.000400313
0.00016412