# Residuals   
# Time        	p             	Ux            	Uy            	k             	epsilon       
0             	N/A	N/A	N/A	N/A
1e-05         	1.000000e+00	0.000000e+00	1.000000e+00	1.000000e+00	2.339895e-02
2e-05         	3.520370e-02	3.579167e-01	8.973730e-01	3.382309e-01	1.857716e-01
3e-05         	3.585962e-01	2.909908e-01	3.737842e-01	4.224951e-02	7.437392e-02
4e-05         	4.031180e-01	1.294856e-01	1.348274e-01	3.876988e-03	2.524971e-03
5e-05         	3.008474e-01	4.305609e-02	4.563497e-02	3.375557e-03	2.171323e-03
6e-05         	2.543158e-01	1.988749e-02	2.040257e-02	3.121728e-03	2.173637e-03
7e-05         	1.856008e-01	1.317001e-02	1.886817e-02	2.941870e-03	2.170717e-03
8e-05         	1.523244e-01	1.068529e-02	1.430026e-02	2.804551e-03	2.136070e-03
9e-05         	1.308926e-01	8.746708e-03	1.106165e-02	2.691345e-03	2.099172e-03
0.0001        	1.194582e-01	7.461263e-03	9.231837e-03	2.583134e-03	2.060591e-03
0.00011       	1.159854e-01	6.662205e-03	8.040647e-03	2.498050e-03	2.017204e-03
0.00012       	1.221852e-01	6.227769e-03	7.268696e-03	2.457389e-03	1.971854e-03
0.00013       	1.280081e-01	5.809159e-03	6.568003e-03	2.375166e-03	1.927000e-03
0.00014       	9.842876e-02	5.100589e-03	5.764430e-03	2.299374e-03	1.888333e-03
0.00015       	7.779370e-02	4.650558e-03	5.220856e-03	2.239693e-03	1.851257e-03
0.00016       	7.143720e-02	4.358037e-03	4.779782e-03	2.189499e-03	1.815562e-03
0.00017       	6.671825e-02	4.180151e-03	4.475361e-03	2.152217e-03	1.783088e-03
0.00018       	6.166445e-02	6.650811e-03	5.493037e-03	2.478610e-03	1.764432e-03
0.00019       	2.651209e-01	6.314818e-03	5.035421e-03	2.172310e-03	1.715873e-03
0.0002        	2.900376e-01	5.274508e-03	4.523997e-03	2.121789e-03	1.687025e-03
0.00021       	1.694002e-01	4.126183e-03	4.017806e-03	2.027925e-03	1.660457e-03
0.00022       	1.210024e-01	3.497008e-03	3.628250e-03	1.987073e-03	1.636025e-03
0.00023       	9.751113e-02	3.340178e-03	3.509443e-03	1.957840e-03	1.610430e-03
0.00024       	8.416730e-02	3.195786e-03	3.343606e-03	1.930531e-03	1.584735e-03
0.00025       	7.511982e-02	3.104354e-03	3.243278e-03	1.904738e-03	1.561807e-03
0.00026       	6.906979e-02	3.018725e-03	3.150604e-03	1.880505e-03	1.542313e-03
0.00027       	6.254094e-02	2.946030e-03	3.066872e-03	1.856013e-03	1.522868e-03
0.00028       	5.636720e-02	2.883828e-03	2.992420e-03	1.834904e-03	1.502774e-03
0.00029       	5.276315e-02	2.831093e-03	2.924860e-03	1.814024e-03	1.482974e-03
0.0003        	4.947165e-02	2.783573e-03	2.861484e-03	1.793942e-03	1.463692e-03
0.00031       	4.631690e-02	2.741122e-03	2.803495e-03	1.773164e-03	1.443401e-03
0.00032       	4.417132e-02	2.707300e-03	2.755103e-03	1.753530e-03	1.425689e-03
0.00033       	4.101540e-02	2.674544e-03	2.707215e-03	1.732267e-03	1.410244e-03
0.00034       	3.835934e-02	2.641091e-03	2.659344e-03	1.714132e-03	1.395727e-03
0.00035       	3.668213e-02	2.609685e-03	2.613680e-03	1.698319e-03	1.381319e-03
0.00036       	3.588515e-02	2.584210e-03	2.574194e-03	1.682557e-03	1.365520e-03
0.00037       	3.497364e-02	2.560491e-03	2.536147e-03	1.666875e-03	1.350008e-03
0.00038       	3.424299e-02	2.539211e-03	2.500154e-03	1.651239e-03	1.336957e-03
0.00039       	3.299599e-02	2.518883e-03	2.465486e-03	1.634294e-03	1.326082e-03
0.0004        	3.225305e-02	2.500542e-03	2.433721e-03	1.617513e-03	1.314695e-03
0.00041       	3.136382e-02	2.481890e-03	2.401733e-03	1.604415e-03	1.300919e-03
0.00042       	3.215082e-02	2.465033e-03	2.373538e-03	1.592533e-03	1.284939e-03
0.00043       	3.188397e-02	2.450506e-03	2.350288e-03	1.579096e-03	1.270543e-03
0.00044       	3.109289e-02	2.436791e-03	2.328390e-03	1.567211e-03	1.260017e-03
0.00045       	3.177534e-02	2.422860e-03	2.306056e-03	1.554476e-03	1.251985e-03
0.00046       	3.224886e-02	2.410186e-03	2.285248e-03	1.540640e-03	1.242697e-03
0.00047       	3.350080e-02	2.397142e-03	2.263857e-03	1.526355e-03	1.229213e-03
0.00048       	3.406669e-02	2.384399e-03	2.243362e-03	1.513450e-03	1.213175e-03
0.00049       	3.685312e-02	2.377156e-03	2.230549e-03	1.501468e-03	1.197983e-03
0.0005        	3.988633e-02	2.368390e-03	2.214701e-03	1.489133e-03	1.187404e-03
0.00051       	4.047986e-02	2.358433e-03	2.196875e-03	1.476855e-03	1.179420e-03
0.00052       	4.220520e-02	2.350127e-03	2.180658e-03	1.463615e-03	1.170825e-03
0.00053       	4.412350e-02	2.341868e-03	2.163227e-03	1.450714e-03	1.160981e-03
0.00054       	4.757204e-02	2.334706e-03	2.147282e-03	1.437769e-03	1.149669e-03
0.00055       	4.934440e-02	2.329914e-03	2.134907e-03	1.424431e-03	1.138912e-03
0.00056       	5.237468e-02	2.323231e-03	2.118683e-03	1.412705e-03	1.128456e-03
0.00057       	5.593638e-02	2.316551e-03	2.102660e-03	1.402148e-03	1.120203e-03
0.00058       	5.941870e-02	2.309244e-03	2.086007e-03	1.391534e-03	1.115303e-03
0.00059       	6.259981e-02	2.304432e-03	2.073487e-03	1.381661e-03	1.109836e-03
0.0006        	6.668002e-02	2.299691e-03	2.060392e-03	1.370898e-03	1.101446e-03
0.00061       	6.981972e-02	2.292485e-03	2.042660e-03	1.359198e-03	1.091253e-03
0.00062       	7.301869e-02	2.286839e-03	2.027221e-03	1.347406e-03	1.080345e-03
0.00063       	7.651279e-02	2.280421e-03	2.010607e-03	1.334839e-03	1.067925e-03
0.00064       	7.959429e-02	2.274844e-03	1.995270e-03	1.321762e-03	1.058959e-03
0.00065       	8.351365e-02	2.268237e-03	1.978517e-03	1.310306e-03	1.053752e-03
0.00066       	8.700669e-02	2.261576e-03	1.962222e-03	1.300191e-03	1.046694e-03
0.00067       	9.051805e-02	2.256061e-03	1.948165e-03	1.288956e-03	1.037953e-03
0.00068       	9.467022e-02	2.249079e-03	1.932983e-03	1.277268e-03	1.028123e-03
0.00069       	9.794708e-02	2.241156e-03	1.916836e-03	1.265241e-03	1.017271e-03
0.0007        	1.008342e-01	2.234985e-03	1.904312e-03	1.252307e-03	1.007247e-03
0.00071       	1.058973e-01	2.227366e-03	1.889825e-03	1.239990e-03	9.969965e-04
0.00072       	1.085626e-01	2.219017e-03	1.874539e-03	1.226949e-03	9.875135e-04
0.00073       	1.124236e-01	2.209791e-03	1.858071e-03	1.213562e-03	9.801451e-04
0.00074       	1.144938e-01	2.200235e-03	1.842012e-03	1.200132e-03	9.726744e-04
0.00075       	1.176155e-01	2.191771e-03	1.827840e-03	1.187853e-03	9.637529e-04
0.00076       	1.204406e-01	2.182419e-03	1.812876e-03	1.175910e-03	9.540037e-04
0.00077       	1.230507e-01	2.173576e-03	1.799456e-03	1.164121e-03	9.451901e-04
0.00078       	1.259099e-01	2.163546e-03	1.784429e-03	1.153221e-03	9.364277e-04
0.00079       	1.278234e-01	2.154595e-03	1.771527e-03	1.141612e-03	9.276130e-04
0.0008        	1.299106e-01	2.144618e-03	1.757524e-03	1.128972e-03	9.181889e-04
0.00081       	1.319805e-01	2.134028e-03	1.742618e-03	1.116236e-03	9.096255e-04
0.00082       	1.330558e-01	2.124708e-03	1.730572e-03	1.103418e-03	9.029204e-04
0.00083       	1.345546e-01	2.114100e-03	1.717103e-03	1.090826e-03	8.963681e-04
0.00084       	1.355126e-01	2.103129e-03	1.703503e-03	1.078001e-03	8.896134e-04
0.00085       	1.365751e-01	2.092580e-03	1.690525e-03	1.065521e-03	8.828153e-04
0.00086       	1.385605e-01	2.081294e-03	1.677024e-03	1.055627e-03	8.764864e-04
0.00087       	1.367084e-01	2.067994e-03	1.661567e-03	1.045718e-03	8.695284e-04
0.00088       	1.367543e-01	2.055851e-03	1.648381e-03	1.035320e-03	8.622816e-04
0.00089       	1.361023e-01	2.043570e-03	1.635604e-03	1.024967e-03	8.540764e-04
0.0009        	1.347408e-01	2.031432e-03	1.623331e-03	1.014194e-03	8.459733e-04
0.00091       	1.336403e-01	2.018412e-03	1.610063e-03	1.002962e-03	8.386370e-04
0.00092       	1.320443e-01	2.005910e-03	1.597468e-03	9.930341e-04	8.328977e-04
0.00093       	1.301743e-01	1.993743e-03	1.585671e-03	9.837805e-04	8.273942e-04
0.00094       	1.280662e-01	1.984661e-03	1.576319e-03	9.738651e-04	8.216524e-04
0.00095       	1.269824e-01	1.968744e-03	1.563862e-03	9.639393e-04	8.166524e-04
0.00096       	1.248783e-01	1.957155e-03	1.550563e-03	9.537841e-04	8.112822e-04
0.00097       	1.218436e-01	1.945899e-03	1.538935e-03	9.437578e-04	8.060698e-04
0.00098       	1.198077e-01	1.933530e-03	1.527685e-03	9.345143e-04	8.004454e-04
0.00099       	1.165565e-01	1.923311e-03	1.516303e-03	9.260754e-04	7.941988e-04
0.001         	1.136426e-01	1.912461e-03	1.504712e-03	9.186860e-04	7.877922e-04
0.00101       	1.107553e-01	1.901223e-03	1.494201e-03	9.119723e-04	7.804628e-04
0.00102       	1.082713e-01	1.890839e-03	1.482731e-03	9.044793e-04	7.727050e-04
0.00103       	1.064786e-01	1.880717e-03	1.471540e-03	8.969151e-04	7.662368e-04
0.00104       	1.031440e-01	1.869897e-03	1.460263e-03	8.896116e-04	7.606924e-04
0.00105       	1.004177e-01	1.859679e-03	1.449146e-03	8.824420e-04	7.559154e-04
0.00106       	9.809727e-02	1.850654e-03	1.441342e-03	8.749091e-04	7.522528e-04
0.00107       	9.504624e-02	1.839844e-03	1.427693e-03	8.669986e-04	7.486861e-04
0.00108       	9.281118e-02	1.830249e-03	1.417373e-03	8.590411e-04	7.451723e-04
0.00109       	9.063164e-02	1.821668e-03	1.407837e-03	8.510670e-04	7.410825e-04
0.0011        	8.839481e-02	1.813207e-03	1.398828e-03	8.436692e-04	7.367710e-04
0.00111       	8.707075e-02	1.804795e-03	1.389908e-03	8.367267e-04	7.321271e-04
0.00112       	8.499523e-02	1.796795e-03	1.380349e-03	8.296852e-04	7.270642e-04
0.00113       	8.405106e-02	1.788727e-03	1.371107e-03	8.223679e-04	7.214240e-04
0.00114       	8.367213e-02	1.780959e-03	1.362070e-03	8.151848e-04	7.156497e-04
0.00115       	8.317202e-02	1.773531e-03	1.353128e-03	8.079496e-04	7.096371e-04
0.00116       	8.230584e-02	1.766343e-03	1.344127e-03	8.011646e-04	7.041519e-04
0.00117       	8.226598e-02	1.759337e-03	1.335427e-03	7.955843e-04	6.983472e-04
0.00118       	8.244604e-02	1.752469e-03	1.327136e-03	7.903501e-04	6.926660e-04
0.00119       	8.300648e-02	1.745672e-03	1.319070e-03	7.850017e-04	6.875849e-04
0.0012        	8.337289e-02	1.738885e-03	1.311074e-03	7.799234e-04	6.831179e-04
0.00121       	8.315177e-02	1.732011e-03	1.302946e-03	7.752734e-04	6.795430e-04
0.00122       	8.342106e-02	1.724965e-03	1.294762e-03	7.708243e-04	6.763279e-04
0.00123       	8.347910e-02	1.717651e-03	1.286510e-03	7.662057e-04	6.733731e-04
0.00124       	8.327465e-02	1.710637e-03	1.279241e-03	7.616131e-04	6.699430e-04
0.00125       	8.319979e-02	1.703244e-03	1.271710e-03	7.569924e-04	6.666703e-04
0.00126       	8.225694e-02	1.695424e-03	1.263938e-03	7.524126e-04	6.641487e-04
0.00127       	8.120713e-02	1.687994e-03	1.256665e-03	7.479203e-04	6.610758e-04
0.00128       	8.009948e-02	1.680477e-03	1.249572e-03	7.432938e-04	6.576758e-04
0.00129       	7.974921e-02	1.672676e-03	1.242079e-03	7.385197e-04	6.537778e-04
0.0013        	7.802417e-02	1.664732e-03	1.234360e-03	7.336648e-04	6.496223e-04
0.00131       	7.530380e-02	1.656845e-03	1.226859e-03	7.288688e-04	6.454288e-04
0.00132       	7.352795e-02	1.648875e-03	1.219689e-03	7.243560e-04	6.419753e-04
0.00133       	7.136857e-02	1.640845e-03	1.212742e-03	7.201384e-04	6.383789e-04
0.00134       	6.904968e-02	1.632808e-03	1.205809e-03	7.160737e-04	6.348872e-04
0.00135       	6.658449e-02	1.624812e-03	1.199007e-03	7.119311e-04	6.316437e-04
0.00136       	6.417251e-02	1.616832e-03	1.192409e-03	7.078078e-04	6.281890e-04
0.00137       	6.169434e-02	1.608986e-03	1.185887e-03	7.037196e-04	6.250888e-04
0.00138       	5.913609e-02	1.601133e-03	1.179393e-03	6.998118e-04	6.218929e-04
0.00139       	5.691449e-02	1.593306e-03	1.173009e-03	6.959512e-04	6.184803e-04
0.0014        	5.391105e-02	1.585622e-03	1.166920e-03	6.921421e-04	6.149607e-04
0.00141       	5.082627e-02	1.577969e-03	1.160687e-03	6.886748e-04	6.116179e-04
0.00142       	4.853213e-02	1.570628e-03	1.154516e-03	6.853433e-04	6.090928e-04
0.00143       	4.625417e-02	1.563460e-03	1.148229e-03	6.822151e-04	6.065782e-04
0.00144       	4.365467e-02	1.556754e-03	1.142300e-03	6.791527e-04	6.037681e-04
0.00145       	4.125576e-02	1.550145e-03	1.136362e-03	6.761381e-04	6.005636e-04
0.00146       	3.789139e-02	1.544387e-03	1.131057e-03	6.731351e-04	5.979306e-04
0.00147       	3.573525e-02	1.537958e-03	1.125137e-03	6.702860e-04	5.953102e-04
0.00148       	3.307908e-02	1.531933e-03	1.119652e-03	6.677390e-04	5.926096e-04
0.00149       	3.076275e-02	1.525553e-03	1.113271e-03	6.652149e-04	5.901436e-04
0.0015        	2.855319e-02	1.519959e-03	1.107462e-03	6.627334e-04	5.879440e-04
0.00151       	2.519694e-02	1.514830e-03	1.102079e-03	6.601829e-04	5.855341e-04
0.00152       	2.306670e-02	1.509980e-03	1.096929e-03	6.575807e-04	5.835082e-04
0.00153       	2.127619e-02	1.504453e-03	1.091760e-03	6.549229e-04	5.814483e-04
0.00154       	1.935826e-02	1.499185e-03	1.086637e-03	6.521502e-04	5.793785e-04
0.00155       	1.770544e-02	1.494022e-03	1.081559e-03	6.494352e-04	5.772943e-04
0.00156       	1.622224e-02	1.488811e-03	1.076390e-03	6.467716e-04	5.750681e-04
0.00157       	1.492993e-02	1.483733e-03	1.071315e-03	6.443243e-04	5.726873e-04
0.00158       	1.359532e-02	1.478757e-03	1.066485e-03	6.420022e-04	5.702732e-04
0.00159       	1.163163e-02	1.473968e-03	1.061720e-03	6.397852e-04	5.680612e-04
0.0016        	1.066903e-02	1.468893e-03	1.057028e-03	6.375816e-04	5.666263e-04
0.00161       	1.005437e-02	1.463895e-03	1.052444e-03	6.354007e-04	5.650553e-04
0.00162       	9.674315e-03	1.458729e-03	1.047635e-03	6.332988e-04	5.633994e-04
0.00163       	9.273749e-03	1.453631e-03	1.043020e-03	6.312120e-04	5.616013e-04
0.00164       	9.050041e-03	1.448720e-03	1.038521e-03	6.292146e-04	5.597637e-04
0.00165       	1.057163e-02	1.443493e-03	1.033843e-03	6.272510e-04	5.580907e-04
0.00166       	1.098684e-02	1.438137e-03	1.029648e-03	6.252378e-04	5.562963e-04
0.00167       	1.101535e-02	1.433104e-03	1.024678e-03	6.232525e-04	5.543486e-04
0.00168       	1.051682e-02	1.428057e-03	1.020671e-03	6.211971e-04	5.523277e-04
0.00169       	9.620351e-03	1.423115e-03	1.016424e-03	6.192018e-04	5.501527e-04
0.0017        	9.793533e-03	1.418193e-03	1.011952e-03	6.171847e-04	5.480821e-04
0.00171       	9.269828e-03	1.413836e-03	1.008318e-03	6.153967e-04	5.461512e-04
0.00172       	1.003646e-02	1.409144e-03	1.003897e-03	6.136006e-04	5.443795e-04
0.00173       	9.807462e-03	1.404723e-03	9.992073e-04	6.119837e-04	5.427063e-04
0.00174       	9.104401e-03	1.400721e-03	9.957075e-04	6.103827e-04	5.410705e-04
0.00175       	8.774901e-03	1.396198e-03	9.912982e-04	6.088380e-04	5.394762e-04
0.00176       	8.774995e-03	1.391733e-03	9.869913e-04	6.072396e-04	5.379401e-04
0.00177       	9.061633e-03	1.387324e-03	9.830977e-04	6.056210e-04	5.363197e-04
0.00178       	8.916460e-03	1.383178e-03	9.792226e-04	6.039517e-04	5.345951e-04
0.00179       	8.938892e-03	1.379379e-03	9.750749e-04	6.022466e-04	5.329932e-04
0.0018        	9.049160e-03	1.375122e-03	9.709519e-04	6.005711e-04	5.314216e-04
0.00181       	9.437213e-03	1.371064e-03	9.671112e-04	5.989023e-04	5.299791e-04
0.00182       	8.993454e-03	1.367237e-03	9.634483e-04	5.973223e-04	5.285407e-04
0.00183       	8.561066e-03	1.363433e-03	9.592611e-04	5.957883e-04	5.271320e-04
0.00184       	8.160448e-03	1.359443e-03	9.553671e-04	5.943636e-04	5.256340e-04
0.00185       	8.303064e-03	1.355496e-03	9.517125e-04	5.929682e-04	5.241151e-04
0.00186       	8.582612e-03	1.351656e-03	9.478311e-04	5.916174e-04	5.225675e-04
0.00187       	8.277435e-03	1.347562e-03	9.440549e-04	5.903379e-04	5.210051e-04
0.00188       	8.028426e-03	1.343762e-03	9.404570e-04	5.891045e-04	5.197268e-04
0.00189       	7.829503e-03	1.340066e-03	9.365727e-04	5.879032e-04	5.184161e-04
0.0019        	8.217138e-03	1.336127e-03	9.331650e-04	5.866677e-04	5.172671e-04
0.00191       	9.305034e-03	1.332177e-03	9.294553e-04	5.854730e-04	5.162329e-04
0.00192       	8.330056e-03	1.328310e-03	9.256703e-04	5.843725e-04	5.152902e-04
0.00193       	9.675110e-03	1.324405e-03	9.224969e-04	5.832666e-04	5.141977e-04
0.00194       	8.148855e-03	1.320320e-03	9.189061e-04	5.821526e-04	5.130673e-04
0.00195       	7.959616e-03	1.316377e-03	9.154321e-04	5.810911e-04	5.118512e-04
0.00196       	7.617960e-03	1.312598e-03	9.121852e-04	5.800680e-04	5.107763e-04
0.00197       	8.290756e-03	1.308530e-03	9.085752e-04	5.791230e-04	5.096158e-04
0.00198       	8.063653e-03	1.304491e-03	9.056119e-04	5.781585e-04	5.084728e-04
0.00199       	7.592468e-03	1.301124e-03	9.021728e-04	5.771808e-04	5.072622e-04
0.002         	7.493369e-03	1.297822e-03	8.986537e-04	5.761648e-04	5.061152e-04
0.00201       	6.804862e-03	1.294543e-03	8.957166e-04	5.751355e-04	5.048439e-04
0.00202       	6.671539e-03	1.291153e-03	8.925267e-04	5.741266e-04	5.036746e-04
0.00203       	7.072765e-03	1.287716e-03	8.890327e-04	5.731087e-04	5.024587e-04
0.00204       	7.264909e-03	1.284147e-03	8.859613e-04	5.721235e-04	5.015979e-04
0.00205       	6.873508e-03	1.280945e-03	8.827060e-04	5.711292e-04	5.008864e-04
0.00206       	7.046658e-03	1.277314e-03	8.795159e-04	5.701388e-04	5.001227e-04
0.00207       	6.846536e-03	1.274265e-03	8.762832e-04	5.691843e-04	4.992650e-04
0.00208       	6.439741e-03	1.270888e-03	8.731111e-04	5.682181e-04	4.982854e-04
0.00209       	7.020846e-03	1.267715e-03	8.699321e-04	5.672614e-04	4.972175e-04
0.0021        	6.661656e-03	1.264416e-03	8.667654e-04	5.663001e-04	4.960598e-04
0.00211       	6.672710e-03	1.260901e-03	8.636353e-04	5.653573e-04	4.949315e-04
0.00212       	6.987458e-03	1.257669e-03	8.605536e-04	5.644049e-04	4.937002e-04
0.00213       	6.788194e-03	1.254376e-03	8.573349e-04	5.634483e-04	4.925591e-04
0.00214       	6.467948e-03	1.251460e-03	8.542523e-04	5.625134e-04	4.915153e-04
0.00215       	6.602122e-03	1.248258e-03	8.511536e-04	5.616334e-04	4.903413e-04
0.00216       	6.880163e-03	1.245155e-03	8.481079e-04	5.608026e-04	4.892171e-04
0.00217       	6.477777e-03	1.242010e-03	8.449749e-04	5.599578e-04	4.880669e-04
0.00218       	6.470340e-03	1.238632e-03	8.417767e-04	5.591681e-04	4.869412e-04
0.00219       	6.422288e-03	1.235604e-03	8.387274e-04	5.583826e-04	4.859155e-04
0.0022        	7.056216e-03	1.232385e-03	8.357446e-04	5.575480e-04	4.848306e-04
0.00221       	7.428803e-03	1.228986e-03	8.327982e-04	5.567587e-04	4.838101e-04
0.00222       	6.825116e-03	1.225850e-03	8.297285e-04	5.559685e-04	4.829536e-04
0.00223       	8.152673e-03	1.222575e-03	8.268591e-04	5.551924e-04	4.819765e-04
0.00224       	8.483738e-03	1.219429e-03	8.241397e-04	5.544170e-04	4.810021e-04
0.00225       	6.522860e-03	1.216278e-03	8.213138e-04	5.536243e-04	4.800267e-04
0.00226       	6.549674e-03	1.213108e-03	8.184616e-04	5.528669e-04	4.791507e-04
0.00227       	6.582967e-03	1.209726e-03	8.157778e-04	5.520867e-04	4.781887e-04
0.00228       	6.255105e-03	1.206562e-03	8.128652e-04	5.513418e-04	4.772675e-04
0.00229       	5.876410e-03	1.203493e-03	8.102194e-04	5.505806e-04	4.764249e-04
0.0023        	6.118389e-03	1.200466e-03	8.075467e-04	5.497999e-04	4.754690e-04
0.00231       	6.153347e-03	1.197404e-03	8.044898e-04	5.490371e-04	4.746010e-04
0.00232       	5.755377e-03	1.194519e-03	8.021143e-04	5.483031e-04	4.737653e-04
0.00233       	5.713603e-03	1.191553e-03	7.992212e-04	5.475878e-04	4.730099e-04
0.00234       	6.087706e-03	1.188610e-03	7.967685e-04	5.468621e-04	4.721045e-04
0.00235       	6.436943e-03	1.185428e-03	7.938908e-04	5.461234e-04	4.713006e-04
0.00236       	6.145208e-03	1.182784e-03	7.915356e-04	5.453719e-04	4.705910e-04
0.00237       	5.930463e-03	1.180270e-03	7.887391e-04	5.446021e-04	4.699369e-04
0.00238       	6.230534e-03	1.177315e-03	7.863977e-04	5.438248e-04	4.692415e-04
0.00239       	5.662069e-03	1.174910e-03	7.836836e-04	5.430987e-04	4.684882e-04
0.0024        	5.911016e-03	1.172193e-03	7.811116e-04	5.423801e-04	4.677359e-04
0.00241       	5.715676e-03	1.169480e-03	7.785832e-04	5.416966e-04	4.670093e-04
0.00242       	6.588169e-03	1.166688e-03	7.761125e-04	5.410116e-04	4.662888e-04
0.00243       	5.635780e-03	1.164180e-03	7.735228e-04	5.403491e-04	4.655627e-04
0.00244       	5.310404e-03	1.161514e-03	7.711929e-04	5.396848e-04	4.648064e-04
0.00245       	5.335523e-03	1.158853e-03	7.686603e-04	5.390572e-04	4.641243e-04
0.00246       	5.397202e-03	1.156211e-03	7.661067e-04	5.383982e-04	4.633513e-04
0.00247       	5.812748e-03	1.153544e-03	7.638457e-04	5.377463e-04	4.625879e-04
0.00248       	6.257935e-03	1.150608e-03	7.612654e-04	5.371063e-04	4.618162e-04
0.00249       	6.193867e-03	1.148010e-03	7.590388e-04	5.364950e-04	4.610511e-04
0.0025        	5.991209e-03	1.145478e-03	7.564111e-04	5.358704e-04	4.603063e-04
0.00251       	5.565273e-03	1.143258e-03	7.539994e-04	5.352719e-04	4.595581e-04
0.00252       	5.216524e-03	1.140647e-03	7.515211e-04	5.346489e-04	4.588015e-04
0.00253       	5.192180e-03	1.137992e-03	7.491203e-04	5.340234e-04	4.580375e-04
0.00254       	5.421698e-03	1.135261e-03	7.466247e-04	5.333887e-04	4.573019e-04
0.00255       	5.700552e-03	1.132545e-03	7.444772e-04	5.327610e-04	4.565799e-04
0.00256       	6.059553e-03	1.129813e-03	7.419490e-04	5.321303e-04	4.558590e-04
0.00257       	5.663301e-03	1.127068e-03	7.398435e-04	5.315215e-04	4.551491e-04
0.00258       	5.820580e-03	1.124166e-03	7.372590e-04	5.309300e-04	4.544463e-04
0.00259       	6.123387e-03	1.121401e-03	7.348572e-04	5.303435e-04	4.537788e-04
0.0026        	6.263393e-03	1.118470e-03	7.328100e-04	5.297695e-04	4.530991e-04
0.00261       	6.161922e-03	1.115952e-03	7.308223e-04	5.291993e-04	4.524196e-04
0.00262       	5.807415e-03	1.113179e-03	7.285393e-04	5.286319e-04	4.517939e-04
0.00263       	5.440444e-03	1.110533e-03	7.261503e-04	5.280601e-04	4.510533e-04
0.00264       	5.427597e-03	1.107788e-03	7.239007e-04	5.274620e-04	4.503153e-04
0.00265       	5.376366e-03	1.105040e-03	7.218081e-04	5.268546e-04	4.496237e-04
0.00266       	5.590276e-03	1.102382e-03	7.196553e-04	5.262452e-04	4.488556e-04
0.00267       	5.563744e-03	1.100044e-03	7.175037e-04	5.256561e-04	4.481237e-04
0.00268       	5.569207e-03	1.097841e-03	7.153814e-04	5.250646e-04	4.473380e-04
0.00269       	5.410602e-03	1.095366e-03	7.133279e-04	5.244407e-04	4.465455e-04
0.0027        	5.229411e-03	1.093194e-03	7.111696e-04	5.237989e-04	4.457549e-04
0.00271       	5.094814e-03	1.090953e-03	7.090742e-04	5.231487e-04	4.449568e-04
0.00272       	5.147692e-03	1.088634e-03	7.070816e-04	5.224707e-04	4.441734e-04
0.00273       	5.419526e-03	1.086130e-03	7.050707e-04	5.217785e-04	4.433786e-04
0.00274       	4.868918e-03	1.084093e-03	7.030303e-04	5.210931e-04	4.426572e-04
0.00275       	4.907485e-03	1.081979e-03	7.010218e-04	5.204566e-04	4.420189e-04
0.00276       	4.668560e-03	1.079985e-03	6.990381e-04	5.198609e-04	4.414244e-04
0.00277       	4.767188e-03	1.077783e-03	6.969686e-04	5.193422e-04	4.408580e-04
0.00278       	4.708217e-03	1.075552e-03	6.951653e-04	5.189046e-04	4.403320e-04
0.00279       	4.901883e-03	1.073251e-03	6.931104e-04	5.184749e-04	4.397734e-04
0.0028        	5.328105e-03	1.070883e-03	6.911566e-04	5.180263e-04	4.392348e-04
0.00281       	5.398221e-03	1.068591e-03	6.891884e-04	5.175736e-04	4.386784e-04
0.00282       	6.017803e-03	1.065974e-03	6.872684e-04	5.170747e-04	4.380996e-04
0.00283       	5.065842e-03	1.064027e-03	6.852901e-04	5.165356e-04	4.375293e-04
0.00284       	4.815144e-03	1.062033e-03	6.835474e-04	5.159915e-04	4.369015e-04
0.00285       	4.516861e-03	1.059783e-03	6.815263e-04	5.154333e-04	4.362447e-04
0.00286       	4.594509e-03	1.057500e-03	6.795302e-04	5.148804e-04	4.356081e-04
0.00287       	4.857050e-03	1.055243e-03	6.778265e-04	5.143332e-04	4.349859e-04
0.00288       	5.003985e-03	1.052954e-03	6.758664e-04	5.137690e-04	4.343052e-04
0.00289       	4.742867e-03	1.050618e-03	6.739924e-04	5.131911e-04	4.335980e-04
0.0029        	5.002676e-03	1.048216e-03	6.720417e-04	5.126022e-04	4.329568e-04
0.00291       	4.878676e-03	1.045815e-03	6.701802e-04	5.120232e-04	4.323451e-04
0.00292       	4.691929e-03	1.043583e-03	6.682868e-04	5.114483e-04	4.317134e-04
0.00293       	4.599384e-03	1.041350e-03	6.664230e-04	5.108662e-04	4.310778e-04
0.00294       	4.702858e-03	1.038933e-03	6.646095e-04	5.103008e-04	4.304983e-04
0.00295       	4.686726e-03	1.036680e-03	6.627686e-04	5.097276e-04	4.299399e-04
0.00296       	5.071679e-03	1.034268e-03	6.609590e-04	5.091399e-04	4.293691e-04
0.00297       	5.722122e-03	1.031685e-03	6.591802e-04	5.085622e-04	4.287536e-04
0.00298       	5.302421e-03	1.029446e-03	6.573777e-04	5.080188e-04	4.282139e-04
0.00299       	5.117074e-03	1.027442e-03	6.555277e-04	5.074926e-04	4.276867e-04
0.003         	5.342235e-03	1.025125e-03	6.536475e-04	5.069717e-04	4.271011e-04
0.00301       	5.123772e-03	1.022859e-03	6.518661e-04	5.064686e-04	4.265803e-04
0.00302       	5.212747e-03	1.021101e-03	6.501723e-04	5.059564e-04	4.259691e-04
0.00303       	5.696299e-03	1.019023e-03	6.485641e-04	5.054279e-04	4.254152e-04
0.00304       	5.688729e-03	1.017050e-03	6.471586e-04	5.048698e-04	4.247573e-04
0.00305       	5.136091e-03	1.015132e-03	6.454602e-04	5.043060e-04	4.241197e-04
0.00306       	4.529433e-03	1.013147e-03	6.435797e-04	5.037281e-04	4.235606e-04
0.00307       	4.721604e-03	1.011231e-03	6.419387e-04	5.031359e-04	4.228559e-04
0.00308       	4.627216e-03	1.009303e-03	6.403038e-04	5.025787e-04	4.222542e-04
0.00309       	4.420873e-03	1.007371e-03	6.387002e-04	5.020553e-04	4.215620e-04
0.0031        	4.617358e-03	1.005414e-03	6.370706e-04	5.015575e-04	4.208800e-04
0.00311       	4.855011e-03	1.003451e-03	6.354122e-04	5.010816e-04	4.202692e-04
0.00312       	4.687398e-03	1.001511e-03	6.338178e-04	5.006316e-04	4.195515e-04
0.00313       	4.564607e-03	9.994931e-04	6.322761e-04	5.001954e-04	4.189295e-04
0.00314       	4.766155e-03	9.974601e-04	6.306873e-04	4.997443e-04	4.183192e-04
0.00315       	4.769167e-03	9.955397e-04	6.291061e-04	4.992986e-04	4.176588e-04
0.00316       	4.626678e-03	9.938346e-04	6.275334e-04	4.988604e-04	4.170779e-04
0.00317       	4.883939e-03	9.916426e-04	6.259845e-04	4.984172e-04	4.165182e-04
0.00318       	4.473599e-03	9.900277e-04	6.243992e-04	4.979721e-04	4.159262e-04
0.00319       	4.622787e-03	9.878487e-04	6.228588e-04	4.975303e-04	4.154561e-04
0.0032        	4.440335e-03	9.859256e-04	6.213191e-04	4.970769e-04	4.149425e-04
0.00321       	4.180039e-03	9.842011e-04	6.197889e-04	4.966292e-04	4.144887e-04
0.00322       	4.197685e-03	9.822620e-04	6.182799e-04	4.961563e-04	4.140282e-04
0.00323       	4.116448e-03	9.802742e-04	6.167220e-04	4.956774e-04	4.134902e-04
0.00324       	4.213767e-03	9.782788e-04	6.152054e-04	4.952061e-04	4.129632e-04
0.00325       	4.186394e-03	9.762338e-04	6.136936e-04	4.946959e-04	4.124792e-04
0.00326       	4.439993e-03	9.742668e-04	6.121835e-04	4.941801e-04	4.119366e-04
0.00327       	4.366762e-03	9.723076e-04	6.107249e-04	4.936798e-04	4.113294e-04
0.00328       	4.232044e-03	9.703904e-04	6.091770e-04	4.931750e-04	4.107374e-04
0.00329       	4.120569e-03	9.684302e-04	6.076490e-04	4.926669e-04	4.102543e-04
0.0033        	4.289682e-03	9.664067e-04	6.061314e-04	4.921417e-04	4.096217e-04
0.00331       	4.377880e-03	9.644187e-04	6.046327e-04	4.916229e-04	4.090259e-04
0.00332       	4.807373e-03	9.624502e-04	6.031332e-04	4.910958e-04	4.084825e-04
0.00333       	5.162182e-03	9.604834e-04	6.016393e-04	4.905554e-04	4.080054e-04
0.00334       	4.281583e-03	9.585605e-04	6.001899e-04	4.899887e-04	4.074692e-04
0.00335       	5.164485e-03	9.565592e-04	5.986584e-04	4.894135e-04	4.068777e-04
0.00336       	4.676281e-03	9.546136e-04	5.971970e-04	4.888296e-04	4.063304e-04
0.00337       	4.818554e-03	9.523967e-04	5.958324e-04	4.882563e-04	4.058068e-04
0.00338       	4.896093e-03	9.502446e-04	5.943629e-04	4.876884e-04	4.053421e-04
0.00339       	3.922536e-03	9.491260e-04	5.929161e-04	4.871046e-04	4.047936e-04
0.0034        	3.861575e-03	9.474588e-04	5.914559e-04	4.865784e-04	4.042693e-04
0.00341       	3.814502e-03	9.457475e-04	5.900658e-04	4.860822e-04	4.038041e-04
0.00342       	3.823652e-03	9.440209e-04	5.886452e-04	4.855884e-04	4.032554e-04
0.00343       	3.871910e-03	9.423276e-04	5.872410e-04	4.851399e-04	4.027362e-04
0.00344       	3.860714e-03	9.406446e-04	5.858479e-04	4.846834e-04	4.022552e-04
0.00345       	3.859239e-03	9.389315e-04	5.844738e-04	4.842302e-04	4.016942e-04
0.00346       	3.888359e-03	9.372539e-04	5.830999e-04	4.837887e-04	4.011523e-04
0.00347       	3.897868e-03	9.355646e-04	5.817481e-04	4.833379e-04	4.005975e-04
0.00348       	3.966136e-03	9.338454e-04	5.804094e-04	4.828941e-04	4.000431e-04
0.00349       	4.076356e-03	9.320876e-04	5.790892e-04	4.824731e-04	3.995236e-04
0.0035        	4.202316e-03	9.303524e-04	5.777762e-04	4.820707e-04	3.990146e-04
0.00351       	4.236927e-03	9.286996e-04	5.764740e-04	4.816660e-04	3.984911e-04
0.00352       	4.573308e-03	9.269828e-04	5.751909e-04	4.812667e-04	3.980402e-04
0.00353       	5.257170e-03	9.251945e-04	5.739358e-04	4.808812e-04	3.975193e-04
0.00354       	4.525335e-03	9.234655e-04	5.726591e-04	4.804793e-04	3.970147e-04
0.00355       	4.408989e-03	9.217472e-04	5.713000e-04	4.800438e-04	3.965283e-04
0.00356       	4.898994e-03	9.201702e-04	5.699715e-04	4.795900e-04	3.960456e-04
0.00357       	4.381557e-03	9.185016e-04	5.686213e-04	4.791279e-04	3.955619e-04
0.00358       	4.679067e-03	9.167799e-04	5.673488e-04	4.786677e-04	3.951116e-04
0.00359       	5.318424e-03	9.147974e-04	5.662117e-04	4.782157e-04	3.946706e-04
0.0036        	4.968420e-03	9.134630e-04	5.651304e-04	4.777688e-04	3.942366e-04
0.00361       	4.219076e-03	9.119529e-04	5.641248e-04	4.773247e-04	3.938130e-04
0.00362       	5.072689e-03	9.102045e-04	5.629178e-04	4.768764e-04	3.934289e-04
0.00363       	4.111207e-03	9.084782e-04	5.614757e-04	4.764254e-04	3.929888e-04
0.00364       	3.853058e-03	9.068300e-04	5.602700e-04	4.759592e-04	3.925410e-04
0.00365       	4.086747e-03	9.051312e-04	5.590285e-04	4.755074e-04	3.921251e-04
0.00366       	3.986109e-03	9.034191e-04	5.578278e-04	4.750643e-04	3.916534e-04
0.00367       	3.628543e-03	9.016861e-04	5.566734e-04	4.746035e-04	3.911962e-04
0.00368       	3.844774e-03	9.000142e-04	5.554675e-04	4.741257e-04	3.906935e-04
0.00369       	4.045730e-03	8.983048e-04	5.542267e-04	4.736500e-04	3.901998e-04
0.0037        	3.925154e-03	8.966012e-04	5.531025e-04	4.731548e-04	3.896835e-04
0.00371       	3.850239e-03	8.949375e-04	5.518997e-04	4.726487e-04	3.891665e-04
0.00372       	3.740173e-03	8.933107e-04	5.506871e-04	4.721355e-04	3.886863e-04
0.00373       	3.794375e-03	8.918182e-04	5.494742e-04	4.716245e-04	3.881597e-04