/*--------------------------------*- C++ -*----------------------------------*\
  =========                 |
  \\      /  F ield         | OpenFOAM: The Open Source CFD Toolbox
   \\    /   O peration     | Website:  https://openfoam.org
    \\  /    A nd           | Version:  8
     \\/     M anipulation  |
\*---------------------------------------------------------------------------*/
FoamFile
{
    version     2.0;
    format      ascii;
    class       volScalarField;
    location    "1600";
    object      nut;
}
// * * * * * * * * * * * * * * * * * * * * * * * * * * * * * * * * * * * * * //

dimensions      [0 2 -1 0 0 0 0];

internalField   nonuniform List<scalar> 
15677
(
7.4799e-05
0.000154172
8.20038e-05
0.000258015
0.000137612
8.01536e-05
0.000722414
0.000177812
0.000111479
7.67017e-05
0.001806
0.000374853
0.000147541
0.000108621
7.42808e-05
0.00331824
0.000873531
0.000310303
0.000125439
0.000111449
7.26853e-05
0.00477633
0.00171996
0.00066532
0.000257517
0.000122943
0.000117701
7.16899e-05
0.00581853
0.00284079
0.00126583
0.000566564
0.000233988
0.000123108
0.000124313
7.09777e-05
0.00636649
0.00405887
0.00211282
0.00106479
0.000504584
0.000212526
0.000127189
0.000129326
7.05075e-05
0.00658967
0.00517054
0.00314432
0.00176636
0.000946967
0.000461275
0.000205268
0.000135486
0.000134155
7.01229e-05
0.00667776
0.00598075
0.00423153
0.00264939
0.00156224
0.000868195
0.000427868
0.000196436
0.000145061
0.000136583
6.98561e-05
0.00671613
0.00641389
0.00521223
0.0036423
0.00234402
0.00142891
0.000807913
0.000401308
0.000192017
0.000153628
0.000139315
6.96962e-05
0.0067148
0.00659629
0.00595674
0.00462935
0.00325083
0.00214029
0.00133224
0.000758804
0.000377158
0.000192614
0.000161919
0.000141468
6.96377e-05
0.00670855
0.00668363
0.00639448
0.00548082
0.0042014
0.00297758
0.0019942
0.00125707
0.000717425
0.000357794
0.00019532
0.000169076
0.000143126
6.96599e-05
0.00670618
0.00670345
0.00659103
0.00609889
0.00508649
0.00388299
0.00277767
0.00188347
0.00119498
0.000682658
0.000339902
0.000199098
0.000175725
0.000144348
6.97434e-05
0.00670579
0.00670345
0.00667463
0.00645425
0.00580021
0.00476782
0.00364053
0.00262568
0.00179501
0.00114353
0.000648556
0.000327807
0.000204176
0.000180929
0.000145322
6.99175e-05
0.00670585
0.00670181
0.00669492
0.00661939
0.00628298
0.00553136
0.00451115
0.00345176
0.00250554
0.00172335
0.00109793
0.000619987
0.000319261
0.000209104
0.000185816
0.000145976
7.0187e-05
0.00670592
0.00670104
0.00669782
0.00667433
0.00654077
0.00609608
0.00529868
0.00430335
0.00330114
0.00240909
0.00166274
0.00105782
0.000594747
0.000313708
0.000214454
0.000189259
0.000146448
7.05378e-05
0.00670594
0.00670085
0.00669741
0.00668929
0.00664235
0.0064397
0.00592054
0.00510002
0.00413332
0.0031794
0.00232957
0.00161148
0.00102196
0.000574929
0.000310431
0.000218901
0.000192881
0.000146633
7.09694e-05
0.00670594
0.00670083
0.00669692
0.0066924
0.00667629
0.00659536
0.00633595
0.00575989
0.00493104
0.00399323
0.00307956
0.00226376
0.00156677
0.000991992
0.000558438
0.00030871
0.000223554
0.000195061
0.00014657
7.14798e-05
0.00670594
0.00670083
0.00669669
0.00669261
0.00668623
0.00665564
0.00654054
0.00622966
0.00561571
0.00478759
0.00387719
0.00299734
0.00220873
0.00152961
0.000965831
0.000545438
0.000308344
0.000227372
0.000197049
0.000146374
7.20665e-05
0.00670594
0.00670082
0.00669662
0.00669238
0.00668852
0.00667677
0.00662901
0.00648035
0.00612719
0.00548828
0.00466617
0.00378091
0.00292939
0.002163
0.0014975
0.000944972
0.000535582
0.00030899
0.000231121
0.000198276
0.000145988
7.27245e-05
0.00670593
0.00670081
0.0066966
0.00669221
0.00668881
0.00668314
0.0066643
0.00659762
0.00641785
0.00603197
0.00537686
0.00456364
0.00370128
0.00287458
0.00212493
0.00147236
0.000927515
0.000529553
0.000310528
0.000234215
0.000199392
0.000145415
7.34497e-05
0.00670593
0.0067008
0.00669659
0.00669211
0.00668871
0.00668464
0.00667687
0.00664867
0.00656288
0.00635657
0.00594492
0.00528037
0.004478
0.00363628
0.0028289
0.00209582
0.00145149
0.000915381
0.000525458
0.000312616
0.000237279
0.000200138
0.000144697
7.42338e-05
0.00670593
0.0067008
0.00669658
0.00669206
0.00668861
0.0066848
0.00668076
0.00666876
0.00663073
0.00652707
0.00629749
0.00586731
0.00519839
0.00440724
0.00358448
0.00279426
0.00207268
0.00143755
0.000906453
0.000524542
0.000315538
0.000239065
0.000200393
0.000143839
7.50731e-05
0.00670592
0.0067008
0.00669656
0.00669202
0.00668854
0.00668468
0.00668173
0.00667582
0.00665979
0.0066113
0.00649082
0.00624365
0.00579947
0.00512926
0.00435027
0.00354391
0.00276832
0.00205837
0.00142788
0.000902661
0.000524855
0.000318977
0.000241278
0.00020038
0.000142881
7.59569e-05
0.00670591
0.0067008
0.00669655
0.006692
0.00668849
0.00668456
0.00668184
0.00667792
0.00667112
0.00664951
0.00659109
0.00645734
0.00619432
0.00574114
0.00507382
0.00430695
0.0035144
0.00275235
0.00204869
0.00142366
0.000902236
0.000528669
0.000322042
0.000243377
0.000200137
0.000141811
7.68825e-05
0.00670591
0.00670081
0.00669653
0.00669199
0.00668845
0.00668447
0.00668175
0.00667837
0.00667506
0.00666541
0.0066392
0.00657204
0.00642488
0.00615297
0.005695
0.00503027
0.0042737
0.00349525
0.00274327
0.00204913
0.00142642
0.000905373
0.000533115
0.00032599
0.000244901
0.000199628
0.00014068
7.78367e-05
0.0067059
0.00670081
0.00669652
0.00669199
0.00668841
0.00668441
0.00668165
0.00667833
0.00667619
0.00667138
0.00666051
0.00662904
0.00655343
0.00639983
0.00611683
0.00565505
0.0049985
0.00425657
0.00349038
0.00274866
0.00205561
0.00143257
0.000911575
0.000539062
0.000330103
0.000246251
0.000198977
0.000139472
7.88194e-05
0.00670589
0.00670082
0.00669651
0.00669199
0.00668838
0.00668437
0.00668157
0.00667821
0.00667637
0.00667331
0.00666916
0.00665533
0.00662009
0.00653976
0.00637478
0.00609051
0.00563601
0.00498652
0.00425236
0.00349401
0.00275634
0.00206649
0.00144276
0.000921419
0.000547048
0.000334816
0.000247385
0.000198102
0.000138229
7.98104e-05
0.00670589
0.00670083
0.00669649
0.00669199
0.00668835
0.00668434
0.00668149
0.0066781
0.0066763
0.00667373
0.00667228
0.00666653
0.00665217
0.00661364
0.0065264
0.00636182
0.00608158
0.00562443
0.00498006
0.00425441
0.00350494
0.00277138
0.0020835
0.00145902
0.000934179
0.000556665
0.000339811
0.000248415
0.000197166
0.000136974
8.09225e-05
0.00670588
0.00670084
0.00669648
0.006692
0.00668832
0.00668433
0.00668142
0.00667801
0.00667618
0.00667369
0.00667315
0.00667081
0.00666649
0.00665022
0.00660979
0.00652373
0.00635908
0.00607525
0.00562041
0.00498297
0.00426798
0.0035269
0.00279807
0.00210859
0.00147975
0.00095016
0.00056772
0.000345158
0.000249262
0.000196029
0.000135635
8.21566e-05
0.00670587
0.00670085
0.00669647
0.006692
0.00668829
0.00668432
0.00668136
0.00667794
0.00667605
0.00667355
0.00667327
0.0066721
0.00667233
0.00666713
0.00665218
0.00661373
0.00652603
0.00636121
0.00607685
0.00563019
0.00500351
0.00429686
0.00356069
0.00283356
0.00214067
0.00150563
0.000968686
0.0005802
0.000350724
0.000250067
0.000194789
0.000134172
8.33779e-05
0.00670587
0.00670085
0.00669645
0.00669201
0.00668826
0.00668432
0.0066813
0.00667789
0.00667593
0.0066734
0.00667316
0.00667233
0.0066743
0.00667427
0.00667231
0.00666108
0.00662033
0.00653476
0.006371
0.00609585
0.00565724
0.00503829
0.00433845
0.00360538
0.00287666
0.00217968
0.00153523
0.000990079
0.000594034
0.000356815
0.000250831
0.000193132
0.000132771
8.45781e-05
0.00670586
0.00670086
0.00669644
0.00669202
0.00668824
0.00668432
0.00668125
0.00667786
0.00667582
0.00667328
0.00667299
0.00667222
0.0066748
0.00667679
0.00668125
0.00668439
0.00667045
0.0066341
0.00655329
0.00639697
0.00612959
0.00569913
0.00508788
0.00439282
0.00366066
0.00292861
0.00222393
0.00157002
0.00101384
0.000609063
0.000363974
0.000251783
0.00019144
0.000131418
8.57493e-05
0.00670087
0.00670586
0.00669643
0.00669203
0.00668821
0.00668433
0.0066812
0.00667785
0.00667572
0.00667318
0.00667282
0.00667203
0.00667479
0.00667746
0.00668463
0.00669514
0.00669551
0.00668773
0.00665989
0.00658543
0.00643751
0.00617886
0.00575739
0.00515221
0.00446042
0.00372685
0.00298873
0.00227446
0.00160904
0.00104031
0.000626644
0.000372785
0.000252914
0.000189601
0.000130127
8.6884e-05
0.00669642
0.00670089
0.00670586
0.00669204
0.00668819
0.00668433
0.00668115
0.00667784
0.00667562
0.00667311
0.00667265
0.00667183
0.00667462
0.00667749
0.00668571
0.00669945
0.00670731
0.00671508
0.00671878
0.00669713
0.00663221
0.00649389
0.00624562
0.00583223
0.00523241
0.00454122
0.00380356
0.00305728
0.00233086
0.00165181
0.00107218
0.000647538
0.000381844
0.000254056
0.000187812
0.000128907
8.79785e-05
0.00669205
0.00669643
0.00670094
0.00670586
0.00668817
0.00668434
0.0066811
0.00667784
0.00667553
0.00667307
0.00667249
0.00667166
0.0066744
0.00667729
0.00668591
0.00670097
0.00671226
0.00672833
0.00674968
0.00675995
0.00674931
0.00669536
0.00656869
0.00633049
0.00592521
0.00532801
0.00463532
0.00389124
0.00313361
0.00239311
0.00170336
0.00111118
0.000669528
0.000391284
0.000255382
0.000185943
0.000127748
8.90276e-05
0.00668816
0.00669209
0.00669647
0.00670098
0.00670586
0.00668435
0.00668107
0.00667784
0.00667544
0.00667304
0.00667233
0.00667153
0.00667418
0.00667704
0.00668581
0.0067014
0.00671414
0.00673419
0.00676533
0.00679389
0.00681646
0.0068178
0.00677761
0.00666363
0.00643637
0.00603644
0.00544034
0.00474294
0.00398886
0.00321797
0.00246813
0.00176616
0.00115236
0.000692375
0.000401363
0.000256748
0.000184184
0.000126606
9.00298e-05
0.00668436
0.00668817
0.00669217
0.0066965
0.00670102
0.00670586
0.00668103
0.00667785
0.00667536
0.00667303
0.00667217
0.00667144
0.00667397
0.00667679
0.0066856
0.0067014
0.00671479
0.00673667
0.00677276
0.00681164
0.00685367
0.00688937
0.00690623
0.00687999
0.00677973
0.00656299
0.00616839
0.00556933
0.00486354
0.00409734
0.00331985
0.002559
0.00183345
0.00119683
0.000716304
0.000411665
0.000258266
0.000182507
0.000125528
9.09825e-05
0.006681
0.00668442
0.00668823
0.00669225
0.00669654
0.00670107
0.00670586
0.00667785
0.00667528
0.00667303
0.00667202
0.00667139
0.00667375
0.00667657
0.00668537
0.00670125
0.00671495
0.00673773
0.00677627
0.00682067
0.00687452
0.00693072
0.00698289
0.00701403
0.00700379
0.00691708
0.00671079
0.00631882
0.00571661
0.00499808
0.00422797
0.00344314
0.00265651
0.00190482
0.00124368
0.000740786
0.000422357
0.000259819
0.00018097
0.000124493
9.1886e-05
0.00667786
0.00668101
0.00668452
0.00668829
0.00669233
0.00669658
0.00670111
0.00670587
0.00667522
0.00667303
0.00667188
0.00667136
0.00667353
0.00667639
0.00668516
0.00670105
0.00671492
0.0067382
0.00677808
0.00682554
0.00688627
0.00695556
0.0070306
0.00709972
0.00714858
0.00715097
0.00707503
0.00687743
0.00648728
0.00587898
0.00516373
0.00438884
0.00357679
0.0027603
0.00198
0.00129179
0.000766014
0.000433115
0.000261492
0.000179505
0.000123535
9.27397e-05
0.00667516
0.00667793
0.00668107
0.00668464
0.00668835
0.00669242
0.00669662
0.00670115
0.00670587
0.00667304
0.00667175
0.00667136
0.00667331
0.00667627
0.00668497
0.00670085
0.00671482
0.00673842
0.00677912
0.00682846
0.00689329
0.00697054
0.00706082
0.00715433
0.00724404
0.0073095
0.00732756
0.00725911
0.00706273
0.00667155
0.00607464
0.00536394
0.00456325
0.00371889
0.00286975
0.00205813
0.0013415
0.000791477
0.000444153
0.000263192
0.00017817
0.000122628
9.3545e-05
0.00667305
0.00667514
0.00667805
0.00668114
0.00668475
0.00668842
0.0066925
0.00669667
0.00670119
0.00670588
0.00667163
0.00667138
0.00667308
0.00667622
0.00668478
0.00670066
0.0067147
0.00673854
0.00677981
0.00683049
0.00689806
0.00698041
0.00708094
0.00719139
0.00730813
0.00741651
0.00750076
0.00753104
0.00747127
0.00727336
0.00689237
0.00630681
0.00557626
0.00474676
0.00386818
0.00298354
0.00213876
0.00139221
0.000817467
0.0004551
0.000264962
0.000176897
0.000121797
9.43022e-05
0.00667152
0.00667311
0.00667517
0.00667818
0.00668121
0.00668486
0.0066885
0.00669258
0.00669672
0.00670123
0.00670589
0.00667141
0.00667285
0.00667623
0.00668459
0.00670048
0.00671459
0.00673861
0.00678033
0.00683209
0.00690167
0.00698778
0.00709555
0.00721805
0.00735498
0.00749266
0.00762294
0.0077221
0.00776412
0.00770896
0.00753465
0.00716818
0.00655395
0.00579644
0.00493638
0.00402186
0.00310068
0.00222112
0.00144383
0.000843354
0.000466236
0.000266809
0.000175755
0.000121017
9.50137e-05
0.00667144
0.00667142
0.00667323
0.0066752
0.00667831
0.00668129
0.00668498
0.00668858
0.00669266
0.00669677
0.00670127
0.0067059
0.00667263
0.00667629
0.00668437
0.00670032
0.00671449
0.00673868
0.00678077
0.00683346
0.00690465
0.00699386
0.00710726
0.00723871
0.00739164
0.00755222
0.00771525
0.00786301
0.00797746
0.00802709
0.00800202
0.00785576
0.00747084
0.00682139
0.00602292
0.00512862
0.00417836
0.00321979
0.0023047
0.00149578
0.000869597
0.000476967
0.000268796
0.000174676
0.000120308
9.56804e-05
0.00667242
0.00667147
0.00667131
0.00667335
0.00667525
0.00667844
0.00668139
0.00668509
0.00668867
0.00669274
0.00669683
0.00670131
0.00670591
0.00667639
0.0066841
0.0067002
0.00671443
0.00673877
0.00678117
0.00683468
0.00690723
0.00699918
0.00711724
0.00725612
0.0074221
0.00760174
0.00779222
0.00797574
0.0081426
0.00826748
0.00835364
0.00836528
0.00820623
0.00779337
0.00710539
0.00626118
0.00532199
0.00433521
0.00333942
0.00238857
0.00154792
0.000895475
0.00048737
0.000270763
0.000173715
0.000119646
9.63049e-05
0.00667652
0.00667208
0.00667151
0.00667121
0.00667347
0.00667531
0.00667857
0.00668149
0.0066852
0.00668876
0.00669282
0.00669689
0.00670135
0.00670592
0.00668378
0.00670012
0.0067144
0.00673887
0.00678156
0.00683581
0.00690954
0.00700399
0.00712605
0.00727162
0.0074489
0.00764444
0.0078601
0.00807547
0.00828233
0.00846244
0.00863072
0.00876225
0.00876509
0.00858296
0.00813312
0.00739949
0.00650822
0.00551865
0.00449069
0.00345846
0.00247236
0.00159982
0.000921637
0.000497468
0.000272807
0.00017281
0.000119048
9.68887e-05
0.00668341
0.00667653
0.00667156
0.00667156
0.00667113
0.00667358
0.00667539
0.00667869
0.0066816
0.00668531
0.00668886
0.0066929
0.00669696
0.00670139
0.00670593
0.00670012
0.00671441
0.006739
0.00678195
0.00683685
0.00691166
0.0070084
0.007134
0.0072858
0.00747317
0.00768287
0.00792152
0.00816785
0.00841219
0.00863581
0.00886751
0.00909086
0.00921707
0.00919917
0.00898332
0.0084874
0.00770147
0.00675977
0.00571905
0.00464522
0.00357655
0.00255533
0.00165121
0.000947699
0.000507267
0.000274834
0.00017201
0.000118491
9.74343e-05
0.00670022
0.00668231
0.00667645
0.00667104
0.00667161
0.00667109
0.00667368
0.00667549
0.00667881
0.00668173
0.00668541
0.00668897
0.00669298
0.00669702
0.00670142
0.00670594
0.00671445
0.00673915
0.00678231
0.00683781
0.00691361
0.00701245
0.00714126
0.00729894
0.00749539
0.00771843
0.00797886
0.00825361
0.00853661
0.00880471
0.00909043
0.00938847
0.00961035
0.00971794
0.0096667
0.00940574
0.00885401
0.00800919
0.00701288
0.00592079
0.00479703
0.00369197
0.00263686
0.0017019
0.000973267
0.000516764
0.000276773
0.000171248
0.000117989
9.79432e-05
0.00671451
0.0066998
0.00668028
0.00667641
0.00667057
0.00667164
0.00667108
0.00667377
0.00667562
0.00667892
0.00668187
0.00668552
0.00668908
0.00669306
0.00669708
0.00670146
0.00670595
0.00673929
0.00678264
0.00683869
0.00691541
0.00701617
0.00714793
0.00731114
0.00751584
0.00775182
0.00803296
0.00833411
0.00865519
0.00897461
0.00931919
0.00968426
0.00998708
0.0101948
0.0102696
0.01017
0.00985019
0.00923158
0.00832092
0.00726612
0.00612251
0.00494834
0.00380449
0.00271659
0.00175158
0.000998377
0.000525962
0.000278705
0.000170581
0.000117524
9.84181e-05
0.00673946
0.0067135
0.00669895
0.00667824
0.00667632
0.00667018
0.00667162
0.00667113
0.00667384
0.00667576
0.00667903
0.00668201
0.00668563
0.00668919
0.00669314
0.00669714
0.00670149
0.00670597
0.0067829
0.00683949
0.00691706
0.0070196
0.00715407
0.00732246
0.00753472
0.00778332
0.00808388
0.00841028
0.00877039
0.00914378
0.00955619
0.0100001
0.0103847
0.0106851
0.010863
0.0108839
0.0107146
0.0103181
0.00961945
0.00863537
0.00751843
0.00632169
0.00509843
0.00391403
0.00279419
0.00180009
0.00102294
0.000534849
0.000280611
0.000169944
0.000117105
9.88604e-05
0.00678313
0.00673772
0.00671127
0.00669809
0.00667657
0.00667608
0.00666993
0.00667155
0.00667123
0.0066739
0.00667593
0.00667914
0.00668217
0.00668574
0.0066893
0.00669321
0.0066972
0.00670152
0.00670598
0.00684019
0.00691858
0.00702273
0.00715972
0.00733291
0.00755217
0.00781299
0.00813154
0.00848293
0.00888366
0.0093115
0.00979108
0.0103407
0.0108445
0.0112523
0.0115294
0.0116432
0.0115746
0.0113058
0.0108107
0.0100172
0.00895155
0.0077688
0.00651736
0.00524622
0.00402049
0.00286951
0.00184723
0.00104686
0.000543434
0.000282448
0.000169383
0.000116716
9.92728e-05
0.00684086
0.00678015
0.00673388
0.00670897
0.00669681
0.00667543
0.00667564
0.00666981
0.00667142
0.00667137
0.00667394
0.00667611
0.00667925
0.00668232
0.00668584
0.0066894
0.00669329
0.00669726
0.00670155
0.00670599
0.00691995
0.00702559
0.00716492
0.00734252
0.0075683
0.00784076
0.00817599
0.00855261
0.00899446
0.00947502
0.0100225
0.0107079
0.0114015
0.0119771
0.0123655
0.0125586
0.012551
0.0123468
0.0119446
0.0113275
0.0104238
0.0092685
0.00801638
0.00670901
0.00539093
0.00412361
0.00294227
0.00189292
0.00107008
0.000551701
0.000284241
0.000168857
0.000116367
9.96058e-05
0.00692125
0.00683697
0.00677366
0.00673004
0.0067067
0.00669501
0.00667477
0.00667499
0.00666984
0.00667124
0.00667156
0.00667399
0.00667631
0.00667936
0.00668247
0.00668595
0.0066895
0.00669336
0.00669732
0.00670159
0.006706
0.00702816
0.00716965
0.00735131
0.00758317
0.0078666
0.00821738
0.00861945
0.00910119
0.00963229
0.0102567
0.0111214
0.0120681
0.0129032
0.0134609
0.0137292
0.0137575
0.0135695
0.0131883
0.0126237
0.0118647
0.0108375
0.00958509
0.00826042
0.00689617
0.00553197
0.00422344
0.00301258
0.00193703
0.00109254
0.000559659
0.000285958
0.000168389
0.000116086
9.98857e-05
0.00703053
0.00691584
0.00682805
0.00676703
0.0067264
0.00670442
0.00669281
0.00667456
0.00667416
0.00666999
0.00667104
0.00667177
0.00667404
0.00667649
0.00667948
0.00668261
0.00668605
0.0066896
0.00669343
0.00669737
0.00670162
0.00670601
0.00717393
0.0073593
0.00759683
0.00789049
0.00825589
0.00868313
0.00920233
0.00978378
0.010503
0.0115929
0.0128342
0.0139651
0.0147786
0.0151826
0.0152424
0.0150526
0.0146516
0.0140716
0.0133286
0.0124153
0.0112551
0.00989995
0.00850019
0.00707844
0.00566887
0.00431941
0.0030799
0.00197946
0.00111422
0.000567298
0.000287624
0.000168009
0.000115857
0.000100188
0.00717786
0.00702322
0.00690296
0.00681923
0.00676064
0.00672299
0.0067022
0.00669006
0.00667469
0.00667322
0.0066702
0.00667085
0.00667198
0.00667411
0.00667667
0.0066796
0.00668274
0.00668616
0.00668969
0.0066935
0.00669742
0.00670165
0.00670602
0.00736652
0.00760931
0.00791244
0.00829163
0.00874318
0.00929718
0.0099318
0.0107672
0.0121127
0.0136514
0.0150567
0.0161193
0.0167512
0.0169324
0.0167612
0.0163497
0.0157388
0.0149627
0.014041
0.0129703
0.0116729
0.0102115
0.00873495
0.00725548
0.00580144
0.00441253
0.00314429
0.00202017
0.00113505
0.000574625
0.000289002
0.000167698
0.000115608
0.000100516
0.00737304
0.00716802
0.00700493
0.00689008
0.00681071
0.00675456
0.00671979
0.00670065
0.00668696
0.00667502
0.00667226
0.00667043
0.00667069
0.00667218
0.00667419
0.00667683
0.00667973
0.00668287
0.00668627
0.00668978
0.00669357
0.00669747
0.00670168
0.00670602
0.00762062
0.00793249
0.00832468
0.00879923
0.00938589
0.0100786
0.0110477
0.0126557
0.0144567
0.0160754
0.0173268
0.0181613
0.0185664
0.0185394
0.0181702
0.0175712
0.0167798
0.0158295
0.0147424
0.0135202
0.0120868
0.010518
0.00896402
0.007427
0.00592899
0.00450252
0.00320583
0.00205912
0.00115506
0.000580719
0.000290199
0.000167362
0.00011535
0.000100871
0.00763084
0.00736027
0.0071423
0.00698658
0.00687757
0.00680244
0.00674878
0.0067167
0.00669948
0.00668379
0.00667538
0.00667138
0.00667062
0.0066706
0.00667234
0.00667431
0.00667698
0.00667986
0.00668299
0.00668637
0.00668986
0.00669364
0.00669751
0.00670169
0.00670602
0.00795069
0.00835504
0.00885106
0.00946911
0.0102253
0.0113373
0.0131925
0.0151987
0.0169559
0.0183204
0.0192893
0.0198826
0.0200975
0.0199173
0.0194064
0.0186697
0.0177395
0.0166472
0.0154169
0.0140562
0.0124928
0.0108181
0.00918677
0.00759274
0.00605147
0.00458917
0.00326458
0.00209636
0.0011717
0.000585941
0.000291503
0.000167008
0.000115069
0.000101255
0.00796697
0.00761428
0.00732473
0.00711651
0.00696869
0.00686539
0.00679436
0.00674316
0.00671382
0.00669844
0.00668076
0.00667562
0.00667067
0.00667073
0.00667058
0.00667248
0.00667444
0.00667711
0.00667999
0.0066831
0.00668648
0.00668994
0.00669371
0.00669754
0.00670169
0.00670602
0.00838279
0.00889866
0.00954758
0.0103713
0.0116257
0.0136991
0.0158485
0.0176743
0.0190825
0.0201159
0.0208268
0.0212345
0.0213199
0.0210463
0.0204501
0.0196256
0.0185995
0.0174003
0.0160529
0.0145706
0.0128869
0.0111101
0.00940284
0.00775249
0.00616888
0.00467236
0.00332063
0.00212717
0.00118595
0.000591705
0.000292971
0.000166626
0.00011478
0.00010167
0.00840758
0.00794604
0.00756555
0.00728907
0.00709132
0.00695123
0.0068535
0.00678639
0.00673783
0.0067111
0.00669742
0.00667813
0.00667558
0.00667022
0.00667074
0.00667064
0.00667258
0.00667458
0.00667723
0.00668013
0.0066832
0.00668658
0.00669002
0.00669374
0.00669754
0.00670169
0.00670602
0.00894223
0.00962181
0.0105148
0.0119035
0.0141607
0.0163968
0.0182357
0.0196336
0.0206733
0.0214356
0.0219614
0.0222485
0.0222601
0.0219428
0.0213079
0.0204384
0.0193548
0.0180814
0.0166431
0.015058
0.0132659
0.0113926
0.00961169
0.00790627
0.00628129
0.00475199
0.00336692
0.00215349
0.00120168
0.000598084
0.000294571
0.000166226
0.000114464
0.000102119
0.008981
0.00838097
0.00788013
0.00751668
0.00725417
0.00706672
0.00693419
0.00684187
0.00677849
0.00673292
0.00670842
0.00669627
0.00667636
0.00667521
0.00667
0.00667067
0.00667075
0.00667266
0.00667474
0.00667735
0.00668027
0.00668331
0.00668668
0.00669006
0.00669374
0.00669754
0.00670169
0.00670602
0.0096921
0.0106535
0.0121634
0.0145706
0.0168474
0.0186595
0.0200095
0.0210132
0.0217741
0.0223521
0.022762
0.0229819
0.0229619
0.0226376
0.021999
0.021118
0.0200085
0.0186895
0.0171845
0.0155151
0.0136274
0.0116643
0.00981295
0.00805413
0.00638873
0.00481818
0.00340647
0.00218247
0.00121907
0.000605151
0.000296388
0.000165797
0.000114146
0.000102604
0.00975622
0.00894775
0.00829182
0.00781395
0.00746881
0.00722004
0.0070427
0.00691755
0.00683048
0.00677062
0.00672828
0.00670568
0.00669434
0.00667544
0.00667456
0.00666996
0.00667056
0.00667089
0.00667273
0.00667491
0.00667746
0.00668041
0.00668341
0.00668674
0.00669005
0.00669374
0.00669754
0.00670169
0.00670602
0.0107855
0.0124054
0.0149285
0.0172107
0.0189701
0.0202485
0.0211878
0.0219092
0.022488
0.0229545
0.0233013
0.0234923
0.0234702
0.0231642
0.0225471
0.0216795
0.0205684
0.0192272
0.0176766
0.0159403
0.01397
0.0119243
0.0100062
0.00819624
0.0064786
0.00487479
0.00345
0.00221442
0.00123834
0.000613007
0.000298365
0.000165348
0.000113798
0.000103129
0.010904
0.00971416
0.00882614
0.0082026
0.007749
0.00742198
0.00718669
0.00701926
0.00690132
0.00681937
0.00676291
0.00672381
0.006703
0.0066918
0.00667514
0.00667375
0.00667004
0.00667042
0.00667106
0.0066728
0.00667507
0.00667756
0.00668054
0.00668345
0.00668674
0.00669005
0.00669374
0.00669754
0.00670169
0.00670602
0.0126293
0.0152346
0.0174997
0.019191
0.0203845
0.0212421
0.0218984
0.0224409
0.0229129
0.0233206
0.0236407
0.0238288
0.0238245
0.023554
0.0229754
0.0221389
0.0210446
0.0196996
0.0181212
0.0163335
0.0142929
0.0121724
0.0101916
0.00831485
0.00655538
0.00493723
0.003498
0.00224972
0.00125971
0.000621756
0.000300634
0.000164874
0.000113454
0.000103694
0.0108565
0.0128259
0.00953528
0.00870666
0.00811484
0.00768542
0.00737617
0.00715412
0.00699641
0.00688554
0.00680863
0.00675534
0.00671971
0.00670056
0.0066887
0.00667521
0.0066729
0.00667018
0.00667029
0.00667123
0.00667286
0.00667524
0.00667767
0.00668061
0.00668344
0.00668674
0.00669005
0.00669374
0.00669754
0.00670168
0.00670601
0.0154925
0.0177272
0.0193427
0.0204453
0.0212122
0.0217874
0.0222678
0.0227077
0.0231257
0.0235105
0.0238283
0.0240309
0.0240578
0.0238339
0.0233052
0.0225119
0.0214475
0.0201129
0.0185209
0.0166953
0.014596
0.0124084
0.0103457
0.00841611
0.00663987
0.00500623
0.00355104
0.00228877
0.00128349
0.000631526
0.000303101
0.000164376
0.000113079
0.000104305
0.0105839
0.0127747
0.015705
0.00936407
0.00858996
0.0080287
0.00762319
0.0073314
0.00712238
0.00697421
0.00687027
0.00679846
0.00674815
0.00671607
0.00669907
0.00668554
0.00667542
0.00667209
0.00667032
0.00667018
0.0066714
0.00667293
0.0066754
0.00667771
0.00668062
0.00668344
0.00668674
0.00669005
0.00669374
0.00669751
0.00670165
0.006706
0.0179049
0.0194422
0.0204525
0.0211252
0.0216106
0.0220121
0.022393
0.0227832
0.023183
0.0235685
0.0239003
0.0241293
0.0241966
0.0240265
0.0235548
0.0228127
0.0217873
0.0204734
0.0188793
0.0170273
0.0148798
0.0126027
0.0104769
0.00852744
0.00673292
0.00508259
0.00360975
0.00233209
0.00130999
0.00064248
0.000305969
0.000163862
0.00011272
0.000104962
0.010314
0.0123984
0.0156271
0.0180407
0.00920232
0.00847525
0.00794431
0.00756235
0.00728773
0.00709151
0.0069527
0.0068556
0.00678886
0.0067416
0.0067128
0.0066979
0.00668258
0.00667561
0.0066714
0.00667045
0.0066701
0.00667157
0.00667301
0.00667549
0.00667769
0.00668063
0.00668344
0.00668674
0.00669006
0.00669371
0.00669747
0.00670161
0.00670599
0.0195027
0.0204225
0.0210012
0.0213931
0.0217059
0.0220093
0.0223434
0.0227197
0.0231248
0.0235269
0.0238838
0.0241478
0.0242619
0.0241504
0.02374
0.0230537
0.0220732
0.0207875
0.0192002
0.0173311
0.0151091
0.0127668
0.0106205
0.00864997
0.0068356
0.00516724
0.00367487
0.00238023
0.00133962
0.000654732
0.00030908
0.00016332
0.000112329
0.00010567
0.0100608
0.0119849
0.0152754
0.0179279
0.0195276
0.00904729
0.00836231
0.0078618
0.00750295
0.00724524
0.00706159
0.00693195
0.00684165
0.00677992
0.00673561
0.00670995
0.00669685
0.00668002
0.00667567
0.00667086
0.00667054
0.00667005
0.00667172
0.00667302
0.00667551
0.00667768
0.00668063
0.00668344
0.00668674
0.00669002
0.00669364
0.00669742
0.00670158
0.00670598
0.0203676
0.0208548
0.0211529
0.0213722
0.0215864
0.0218437
0.0221668
0.0225533
0.0229797
0.0234091
0.0237993
0.0241047
0.0242706
0.0242207
0.0238735
0.0232455
0.0223135
0.0210611
0.0194869
0.0175712
0.0153008
0.0129449
0.0107778
0.00878497
0.0069491
0.00526122
0.00374728
0.0024339
0.00137278
0.000668646
0.000312758
0.000162827
0.000111976
0.000106429
0.00982482
0.0115724
0.0148321
0.0176887
0.0193627
0.0202875
0.0088968
0.00825137
0.00778131
0.0074451
0.00720403
0.00703268
0.00691215
0.00682869
0.00677165
0.00673028
0.00670737
0.00669582
0.00667803
0.00667554
0.00667046
0.0066706
0.00667004
0.00667182
0.00667299
0.00667552
0.00667768
0.00668063
0.00668345
0.00668668
0.00668994
0.00669357
0.00669737
0.00670155
0.00670597
0.0206966
0.0209031
0.0210275
0.0211457
0.0213124
0.0215596
0.0218965
0.0223095
0.0227677
0.0232321
0.0236621
0.0240147
0.024236
0.0242492
0.023966
0.023397
0.0225152
0.0212992
0.0197083
0.0177692
0.0155061
0.0131382
0.01095
0.0089338
0.00707479
0.00536576
0.00382796
0.0024938
0.00141009
0.000684371
0.000316737
0.000162265
0.000111592
0.000107244
0.00960331
0.0111772
0.0143337
0.0173715
0.0191991
0.0200703
0.0205221
0.00874988
0.00814274
0.007703
0.00738894
0.00716421
0.00700506
0.00689377
0.00681683
0.006764
0.00672564
0.00670493
0.00669456
0.00667678
0.00667522
0.0066702
0.00667064
0.00667001
0.00667184
0.00667298
0.00667552
0.00667769
0.00668062
0.00668341
0.00668658
0.00668986
0.0066935
0.00669731
0.00670152
0.00670595
0.0206525
0.0206835
0.0207029
0.0207703
0.020925
0.0211874
0.0215553
0.0220057
0.022503
0.0230085
0.0234843
0.0238889
0.0241687
0.0242458
0.0240261
0.0235157
0.0226844
0.0214779
0.0198885
0.0179781
0.0157259
0.0133477
0.0111386
0.00909789
0.00721431
0.00548226
0.00391821
0.00256106
0.00145213
0.000702315
0.00032132
0.000161775
0.000111278
0.000108115
0.00939362
0.0108054
0.0138041
0.0169978
0.0189701
0.0199409
0.0202528
0.0203915
0.00860636
0.00803677
0.00762707
0.00733462
0.00712616
0.00697942
0.00687703
0.00680597
0.00675688
0.00672156
0.0067026
0.00669268
0.00667607
0.00667477
0.00667004
0.00667065
0.00666998
0.00667186
0.00667298
0.00667551
0.00667771
0.00668054
0.00668331
0.00668648
0.00668977
0.00669343
0.00669726
0.00670149
0.00670594
0.0203483
0.0202689
0.0202326
0.0202838
0.0204525
0.0207486
0.021159
0.021654
0.0221959
0.0227482
0.0232755
0.0237366
0.0240771
0.0242181
0.0240608
0.0236076
0.0228058
0.0216213
0.0200757
0.018198
0.0159604
0.0135742
0.0113449
0.0092788
0.00736931
0.00561231
0.00401907
0.00263638
0.00149973
0.000722861
0.000326237
0.000161355
0.000110946
0.000109218
0.00919378
0.0104597
0.0132555
0.0165764
0.0187008
0.019759
0.0201291
0.0200702
0.0200064
0.00846645
0.00793384
0.00755372
0.00728268
0.00709087
0.0069561
0.00686177
0.00679604
0.00675027
0.00671794
0.00670053
0.00669036
0.00667572
0.00667429
0.00667
0.00667062
0.00666997
0.00667186
0.006673
0.0066755
0.00667767
0.00668041
0.0066832
0.00668637
0.00668969
0.00669336
0.0066972
0.00670145
0.00670593
0.0198513
0.0197105
0.0196517
0.0197132
0.0199158
0.0202576
0.0207181
0.0212626
0.0218539
0.0224589
0.0230434
0.0235651
0.023968
0.0241724
0.0240758
0.0236666
0.0229014
0.0217672
0.0202692
0.0184285
0.0162099
0.0138187
0.0115702
0.00947823
0.00754162
0.00575783
0.00413317
0.00272117
0.0015537
0.000746677
0.000331964
0.000160956
0.000110693
0.000110516
0.00900244
0.0101413
0.0126958
0.0161084
0.018402
0.0195515
0.0199614
0.0199348
0.019633
0.0194391
0.00833037
0.00783438
0.00748365
0.00723451
0.00705879
0.00693488
0.00684786
0.00678704
0.00674412
0.00671482
0.00669905
0.00668794
0.00667555
0.00667391
0.00667005
0.00667061
0.00666997
0.00667185
0.00667303
0.0066754
0.00667757
0.00668027
0.0066831
0.00668627
0.0066896
0.00669328
0.00669714
0.00670142
0.00670592
0.0192114
0.0190403
0.0189857
0.0190791
0.0193279
0.0197239
0.0202395
0.0208368
0.021483
0.0221471
0.0227946
0.0233805
0.0238469
0.0241136
0.0240731
0.0237107
0.0229953
0.0219147
0.0204682
0.018669
0.0164743
0.0140819
0.0118159
0.00969796
0.00773323
0.00592039
0.00426242