/*--------------------------------*- C++ -*----------------------------------*\
  =========                 |
  \\      /  F ield         | OpenFOAM: The Open Source CFD Toolbox
   \\    /   O peration     | Website:  https://openfoam.org
    \\  /    A nd           | Version:  8
     \\/     M anipulation  |
\*---------------------------------------------------------------------------*/
FoamFile
{
    version     2.0;
    format      ascii;
    class       volScalarField;
    location    "0.04";
    object      k;
}
// * * * * * * * * * * * * * * * * * * * * * * * * * * * * * * * * * * * * * //

dimensions      [0 2 -2 0 0 0 0];

internalField   nonuniform List<scalar> 
15677
(
235.849
283.364
375.889
440.628
491.846
535.059
572.69
603.305
621.355
626.817
624.235
611.362
585.45
539.744
484.657
432.87
385.025
343.308
310.391
289.609
275.309
262.308
254.573
250.189
246.138
242.408
239.041
235.756
232.359
228.837
225.307
221.933
218.865
216.199
213.967
530.489
903.494
1115.97
1261.77
1376.61
1473.13
1534.46
1492.67
1284.32
1030.78
886.84
839.003
829.906
799.162
705.098
595.036
507.643
445.897
403.108
372.908
350.324
332.616
319.623
309.343
301.002
293.946
287.826
282.367
277.395
272.902
268.942
265.538
262.638
260.174
258.07
346.324
727.564
966.095
1189.51
1425.78
1597.69
1659.71
1583.64
1370.34
1072.27
852.77
732.049
670.266
596.951
539.816
508.232
487.523
472.232
459.418
446.372
431.109
415.502
400.502
388.78
383.144
383.336
386.79
385.879
376.793
362.618
347.553
333.9
322.405
313.025
305.444
97.4564
210.891
302.807
376.155
435.793
482.607
529.78
573.207
601.628
586.852
597.026
651.422
746.506
820.681
752.636
623.255
522.417
479.864
483.121
509.043
548.799
574.406
566.893
524.477
480.728
444.611
415.342
391.438
371.822
355.59
342.083
330.836
321.471
313.657
307.1
193.515
342.713
430.161
496.855
556.635
611.907
653.708
676.463
675.664
655.98
659.904
709.185
740.614
660.864
515.834
406.692
355.804
345.179
348.918
357.987
371.011
385.798
394.523
393.779
383.312
367.215
351.456
338.126
327.199
318.194
310.589
304.079
298.441
293.497
289.115
138.492
241.129
294.016
327.321
350.889
369.697
386.02
398.135
399.784
392.08
376.538
347.049
302.036
251.898
215.021
196.4
193.587
201.096
215.723
233.957
251.565
263.077
267.98
269.033
268.224
266.417
264.102
261.568
259.009
256.538
254.213
252.061
250.085
248.274
246.619
77.7993
163.108
214.316
252.768
282.095
298.993
299.64
279.778
237.498
185.851
139.484
109.251
94.9655
95.4351
107.115
124.045
141.887
158.118
172.931
186.84
199.851
210.838
217.455
219.855
219.818
218.85
217.746
216.724
215.808
214.968
214.173
213.399
212.634
211.868
211.098
23.1597
38.5802
54.585
67.38
75.9824
78.4918
76.011
69.0999
61.9822
55.5371
50.8872
50.1869
52.287
58.2836
67.9517
79.6815
92.4793
105.044
116.73
127.92
138.249
146.828
153.268
158.004
161.489
164.044
165.912
167.274
168.261
168.968
169.466
169.809
170.034
170.173
170.248
7.34372
10.0259
14.8993
18.7633
21.9656
24.7446
27.271
29.7823
32.3645
34.9372
39.2773
45.4469
52.5699
59.5959
66.0703
72.4791
79.3273
86.598
94.135
101.778
109.199
115.653
120.634
124.458
127.498
129.948
131.938
133.559
134.88
135.954
136.82
137.513
138.062
138.493
138.825
12.5779
25.3101
33.783
40.1393
45.6253
50.4112
54.0088
55.1423
52.6123
47.98
47.6078
51.0291
56.5568
61.1734
63.2598
65.2788
68.1091
71.9047
76.4593
81.4392
86.5435
91.2957
95.3173
98.649
101.391
103.64
105.481
106.987
108.228
109.262
110.129
110.862
111.483
112.01
112.462
18.4881
29.4073
34.7928
37.7808
39.7772
41.3484
42.6037
43.8245
44.6887
44.834
44.5412
44.544
45.3295
46.9302
49.0401
51.6836
54.9808
58.7547
62.6892
66.6617
70.5802
74.162
77.1738
79.7116
81.8613
83.6902
85.2403
86.561
87.6864
88.6442
89.4579
90.1478
90.7317
91.2248
91.6415
11.7746
20.4369
24.661
26.3704
27.0056
27.3469
27.915
28.781
29.8471
31.0535
32.3962
33.9102
35.7024
37.8933
40.3504
42.9319
45.6757
48.5719
51.5812
54.6405
57.6828
60.5092
62.967
65.0777
66.8863
68.4362
69.7514
70.8699
71.8239
72.6401
73.341
73.9451
74.468
74.9225
75.3196
6.47765
11.8736
15.5918
18.6603
21.1718
23.1641
24.679
25.8184
26.7382
27.5973
28.4588
29.4236
30.6024
32.141
34.0059
36.0484
38.2857
40.6693
43.1402
45.6367
48.0878
50.3395
52.2854
53.9591
55.4004
56.6414
57.7097
58.6303
59.4239
60.1088
60.701
61.2137
61.6584
62.045
62.3819
6.42932
11.3418
14.5574
16.9409
18.8408
20.3546
21.5103
22.3539
22.9695
23.5061
24.1161
24.9044
25.9454
27.3001
28.8944
30.596
32.4173
34.3223
36.2742
38.237
40.1768
41.9817
43.5602
44.9244
46.1009
47.1141
47.9869
48.7396
49.3899
49.9527
50.441
50.8659
51.2366
51.5611
51.846
4.00648
7.74145
9.64014
11.0527
12.2678
13.3819
14.4394
15.4691
16.4961
17.5396
18.6082
19.7358
20.9721
22.3829
23.8927
25.4213
27.0047
28.6249
30.2588
31.8825
33.473
34.9426
36.2172
37.3126
38.2574
39.0728
39.777
40.3853
40.9111
41.3662
41.7607
42.1034
42.4017
42.6619
42.8895
3.93907
6.81088
8.47499
9.66707
10.6612
11.5522
12.3802
13.1678
13.9287
14.6756
15.4278
16.2187
17.123
18.2097
19.4132
20.6711
21.9973
23.3612
24.7351
26.0951
27.4216
28.6428
29.7007
30.6068
31.3821
32.0461
32.6153
33.104
33.5248
33.8879
34.2024
34.4759
34.7147
34.9242
35.109
2.14201
4.39441
5.65347
6.5706
7.34314
8.04128
8.69837
9.33069
9.95519
10.5939
11.2726
12.0215
12.8881
13.9255
15.0509
16.1895
17.3625
18.5515
19.7363
20.8985
22.0222
23.0469
23.9256
24.6696
25.2983
25.8314
26.2854
26.6732
27.0051
27.2901
27.5357
27.748
27.9324
28.0937
28.2358
1.81964
3.16682
4.07845
4.78371
5.39845
5.96561
6.50378
7.02121
7.51972
7.99456
8.46293
8.98033
9.6066
10.3943
11.2929
12.2264
13.2111
14.2217
15.2333
16.224
17.176
18.0357
18.7639
19.3725
19.8813
20.3067
20.6636
20.9643
21.2187
21.4353
21.6207
21.7807
21.9199
22.042
22.1503
1.00413
1.96542
2.61459
3.12696
3.57838
3.98232
4.34457
4.66614
4.95342
5.22797
5.53197
5.92053
6.44125
7.1187
7.90088
8.71083
9.55577
10.4179
11.278
12.1176
12.9193
13.6356
14.2329
14.7215
15.1203
15.448
15.7189
15.9439
16.1318
16.2898
16.4235
16.5378
16.6363
16.7222
16.7979
0.898699
1.24335
1.59793
1.92087
2.21359
2.47617
2.70761
2.91063
3.09617
3.28656
3.51221
3.80323
4.18406
4.67706
5.25322
5.86547
6.52371
7.2127
7.9117
8.5994
9.25453
9.83266
10.3062
10.6863
10.9909
11.2353
11.4318
11.5906
11.7195
11.8249
11.9121
11.9851
12.0471
12.1009
12.1484
0.55778
0.746639
0.93108
1.1159
1.29363
1.46031
1.61315
1.7457
1.86152
1.97067
2.09115
2.24931
2.47426
2.79243
3.18532
3.61788
4.10053
4.6172
5.1514
5.68417
6.19483
6.64364
7.00402
7.28585
7.50479
7.67396
7.80463
7.90558
7.98373
8.04451
8.09222
8.13021
8.16109
8.18692
8.20924
0.264363
0.409655
0.517282
0.631294
0.745385
0.857191
0.962419
1.05737
1.1431
1.22537
1.31189
1.41197
1.53568
1.69456
1.88793
2.1137
2.38508
2.70108
3.05085
3.41664
3.77688
4.09448
4.3461
4.53756
4.68
4.78389
4.85825
4.9104
4.94616
4.97008
4.98571
4.99576
5.00229
5.00682
5.01051
0.152064
0.28793
0.348853
0.404439
0.468398
0.537336
0.607187
0.67529
0.740517
0.803414
0.86477
0.92636
0.989354
1.05549
1.12656
1.2111
1.32237
1.4671
1.64398
1.84359
2.04922
2.23437
2.3813
2.4899
2.56553
2.6148
2.64398
2.65844
2.66272
2.66026
2.65374
2.64524
2.63625
2.6278
2.62063
0.099496
0.203275
0.251045
0.291672
0.334569
0.381537
0.430816
0.481032
0.530236
0.577714
0.623009
0.665325
0.70288
0.733404
0.756174
0.778138
0.807627
0.850081
0.907477
0.979514
1.05967
1.1348
1.19453
1.23664
1.26245
1.27467
1.27678
1.27144
1.26108
1.24762
1.23253
1.21696
1.20182
1.18777
1.17549
0.0865715
0.183193
0.219538
0.250209
0.280647
0.312895
0.347749
0.384006
0.420322
0.455661
0.489206
0.519407
0.543505
0.559181
0.566735
0.570313
0.574124
0.581016
0.592284
0.608501
0.628222
0.647316
0.662013
0.67109
0.674738
0.67385
0.669488
0.662654
0.654168
0.644638
0.634484
0.623975
0.613262
0.602415
0.59161
0.0783673
0.16361
0.19825
0.226774
0.253926
0.281105
0.309002
0.337485
0.365747
0.39286
0.417943
0.440005
0.457458
0.468782
0.473149
0.473478
0.47198
0.470246
0.469206
0.469268
0.470297
0.471718
0.472621
0.472557
0.471399
0.469225
0.466251
0.46271
0.458773
0.454563
0.450159
0.44561
0.440946
0.436181
0.431396
0.076603
0.161267
0.192612
0.218247
0.242526
0.266437
0.290212
0.313682
0.336642
0.358497
0.378475
0.395448
0.408613
0.417259
0.420788
0.421086
0.41955
0.417122
0.414456
0.411927
0.409725
0.407985
0.406639
0.405515
0.404468
0.403399
0.402244
0.401022
0.399702
0.39828
0.396765
0.395179
0.393545
0.391892
0.39027
0.0742702
0.155791
0.186621
0.211484
0.234531
0.256763
0.278407
0.299353
0.319369
0.338048
0.35478
0.368859
0.37981
0.387337
0.39103
0.392142
0.391668
0.390264
0.388411
0.386448
0.384639
0.383247
0.382374
0.381938
0.3818
0.38183
0.381919
0.381983
0.38197
0.381861
0.381654
0.381362
0.381005
0.380604
0.380183
0.0731729
0.154674
0.184019
0.207487
0.22918
0.250002
0.270107
0.289357
0.30747
0.324106
0.338831
0.351169
0.360845
0.367776
0.37169
0.373547
0.374154
0.374011
0.373488
0.372873
0.372414
0.372319
0.372657
0.373356
0.374298
0.37537
0.376438
0.377409
0.378239
0.37891
0.379428
0.379809
0.380071
0.380239
0.380328
0.0715021
0.151557
0.180463
0.203388
0.224343
0.244257
0.263321
0.281427
0.298338
0.31374
0.327323
0.338747
0.347857
0.354686
0.358999
0.361592
0.363193
0.364232
0.365027
0.365835
0.366874
0.368264
0.369996
0.371914
0.373858
0.375686
0.377382
0.378926
0.38029
0.381467
0.382467
0.383312
0.384027
0.38464
0.385161
211.193
207.626
204.003
200.349
196.668
192.942
189.163
185.327
181.433
177.478
173.455
169.383
165.387
161.601
158.072
154.837
151.92
149.337
147.097
145.205
143.671
142.509
255.416
252.064
248.903
246.013
243.399
241.079
239.084
237.444
236.188
235.369
235.075
235.383
236.3
237.663
239.071
240.382
241.473
242.22
242.508
242.231
241.227
239.481
296.91
287.691
279.584
272.501
266.327
260.948
256.268
252.216
248.732
245.775
243.311
241.333
239.849
238.799
238.091
237.621
237.288
237.017
236.746
236.43
236.038
235.554
299.593
291.247
283.629
276.709
270.443
264.775
259.656
255.054
250.945
247.309
244.12
241.381
239.126
237.308
235.834
234.647
233.696
232.935
232.322
231.826
231.414
231.06
284.123
278.462
273.106
268.085
263.386
259.061
255.126
251.586
248.436
245.672
243.289
241.298
239.723
238.519
237.613
236.945
236.47
236.147
235.943
235.824
235.75
235.687
245.057
243.431
241.73
239.994
238.261
236.57
234.955
233.45
232.083
230.879
229.857
229.033
228.421
228.009
227.768
227.671
227.686
227.787
227.946
228.149
228.389
228.653
210.673
210.501
210.244
209.94
209.613
209.29
209.001
208.77
208.623
208.584
208.677
208.925
209.334
209.88
210.537
211.272
212.043
212.814
213.569
214.292
214.971
215.608
170.959
172.257
173.46
174.575
175.616
176.593
177.522
178.418
179.298
180.18
181.082
182.018
182.976
183.942
184.919
185.907
186.903
187.902
188.901
189.898
190.89
191.874
139.816
141.468
143.081
144.656
146.196
147.706
149.187
150.64
152.069
153.485
154.901
156.325
157.735
159.109
160.451
161.766
163.055
164.318
165.551
166.748
167.904
169.023
113.591
115.416
117.226
119.015
120.784
122.533
124.261
125.971
127.662
129.338
131.002
132.644
134.243
135.783
137.269
138.707
140.101
141.454
142.769
144.049
145.296
146.511
92.6761
94.3738
96.0917
97.8263
99.5746
101.334
103.103
104.877
106.653
108.432
110.216
111.995
113.727
115.385
116.98
118.516
119.997
121.424
122.8
124.128
125.412
126.657
76.2755
77.8356
79.4228
81.0358
82.6735
84.3347
86.0181
87.7192
89.4333
91.1604
92.9008
94.6423
96.3435
97.9755
99.5444
101.055
102.511
103.917
105.275
106.589
107.863
109.097
63.218
64.602
66.0199
67.4709
68.9541
70.4686
72.0134
73.5874
75.1895
76.8189
78.4726
80.1395
81.7749
83.3506
84.8689
86.332
87.7434
89.1061
90.423
91.6967
92.9298
94.1252
52.589
53.8336
55.1115
56.4221
57.7652
59.14
60.5466
61.9848
63.4541
64.9543
66.485
68.035
69.5625
71.0382
72.4646
73.8441
75.179
76.4715
77.7237
78.9376
80.1153
81.2583
43.5444
44.6676
45.8245
47.0152
48.2397
49.4983
50.7909
52.1176
53.4783
54.8719
56.2988
57.7489
59.1825
60.5714
61.9171
63.2212
64.4855
65.7116
66.9011
68.0557
69.1769
70.2663
35.7
36.7333
37.7985
38.8957
40.0254
41.1876
42.383
43.612
44.8751
46.1727
47.5052
48.8633
50.2098
51.5178
52.7885
54.0229
55.2222
56.3875
57.52
58.621
59.6916
60.7329
28.7656
29.7169
30.7008
31.7174
32.7671
33.8501
34.9666
36.1171
37.3024
38.5232
39.78
41.0643
42.3411
43.5847
44.7959
45.9753
47.1234
48.2408
49.3283
50.3865
51.4164
52.4188
22.6275
23.5042
24.4131
25.355
26.3303
27.3394
28.3826
29.461
30.5753
31.7266
32.9154
34.134
35.3492
36.5362
37.6952
38.8265
39.9304
41.007
42.0567
43.0798
44.0768
45.0482
17.22
18.0172
18.8478
19.7123
20.6115
21.5462
22.5172
23.5258
24.5729
25.6592
26.7857
27.9446
29.1042
30.2399
31.3517
32.4396
33.5036
34.5439
35.5605
36.5536
37.5233
38.4698
12.5149
13.2266
13.9725
14.7535
15.5708
16.4254
17.3186
18.2517
19.2258
20.2417
21.3003
22.3949
23.4952
24.5778
25.642
26.687
27.7126
28.7182
29.7037
30.6689
31.6135
32.5375
8.51487
9.12878
9.77855
10.4653
11.1905
11.9554
12.7617
13.6105
14.503
15.4404
16.424
17.4476
18.4829
19.5071
20.5191
21.5176
22.5017
23.4704
24.4231
25.3592
26.2781
27.1794
5.2516
5.75261
6.29097
6.86809
7.48568
8.14558
8.8495
9.5991
10.396
11.2416
12.1375
13.0784
14.038
14.9947
15.9463
16.891
17.8273
18.7536
19.6687
20.5716
21.4613
22.3368
2.78881
3.15314
3.55707
4.00234
4.49093
5.02498
5.60653
6.23753
6.91989
7.65554
8.44631
9.28791
10.1568
11.0323
11.9114
12.7914
13.6701
14.5454
15.4152
16.2781
17.1324
17.9768
1.26177
1.46434
1.70353
1.98371
2.3089
2.68273
3.10839
3.58872
4.12625
4.72331
5.38212
6.09956
6.85525
7.62962
8.41851
9.2182
10.0254
10.837
11.6504
12.4633
13.2734
14.0787
0.61638
0.687016
0.777912
0.894842
1.04446
1.23407
1.47102
1.7622
2.11363
2.53038
3.01664
3.57174
4.1798
4.82288
5.49509
6.19115
6.90631
7.63634
8.37743
9.12617
9.87954
10.6347
0.43621
0.453709
0.477388
0.509581
0.553717
0.614672
0.699035
0.815219
0.973269
1.18428
1.45945
1.80636
2.21967
2.6871
3.20247
3.75929
4.35124
4.97241
5.6174
6.28136
6.95993
7.64912
0.39122
0.395292
0.400871
0.408508
0.419087
0.434026
0.455567
0.487169
0.534021
0.603635
0.706397
0.854653
1.05687
1.31538
1.63205
2.00537
2.43124
2.90409
3.4177
3.96581
4.54248
5.14217
0.380231
0.380777
0.381699
0.383133
0.385285
0.388479
0.39325
0.400488
0.41167
0.429226
0.457107
0.50127
0.568668
0.666187
0.802214
0.984512
1.21876
1.50749
1.84992
2.2425
2.67991
3.15604
0.380026
0.379219
0.378484
0.377861
0.377415
0.37725
0.377515
0.378437
0.380393
0.384029
0.390448
0.401481
0.419649
0.448074
0.49133
0.555334
0.647208
0.774721
0.945171
1.16389
1.43303
1.75124
0.384697
0.383033
0.381383
0.379762
0.378196
0.376694
0.375262
0.374012
0.373083
0.372698
0.373193
0.375127
0.379315
0.386792
0.39916
0.418729
0.448754
0.493642
0.559046
0.651643
0.778275
0.944183
141.734
141.249
141.079
141.174
141.535
142.168
237.562
236.066
234.873
233.966
233.351
233.062
234.902
234.178
233.519
232.951
232.484
232.119
230.719
230.471
230.353
230.241
230.141
230.091
235.615
235.558
235.576
235.589
235.617
235.696
228.798
228.83
228.856
228.88
228.894
228.884
215.888
215.856
215.869
215.917
215.996
216.122
192.384
192.423
192.467
192.519
192.583
192.655
169.57
169.565
169.579
169.608
169.653
169.717
147.121
147.137
147.154
147.173
147.196
147.222
127.283
127.301
127.316
127.326
127.333
127.336
109.724
109.752
109.77
109.777
109.774
109.761
94.7366
94.7691
94.7878
94.7927
94.7836
94.761
81.8442
81.8771
81.8951
81.8984
81.887
81.8607
70.825
70.8556
70.8719
70.8739
70.8616
70.835
61.2653
61.292
61.3059
61.307
61.2953
61.2708
52.9297
52.9526
52.9642
52.9645
52.9536
52.9314
45.5409
45.5596
45.5687
45.5685
45.559
45.54
38.9483
38.9634
38.9705
38.97
38.9617
38.9454
33.0021
33.0127
33.0175
33.0167
33.0102
32.9979
27.6302
27.6368
27.6395
27.6385
27.6337
27.6251
22.7724
22.7747
22.7753
22.7741
22.7712
22.7664
18.3945
18.3929
18.3913
18.39
18.3888
18.3878
14.4746
14.4691
14.4655
14.464
14.4645
14.4671
11.0036
10.9944
10.9889
10.9872
10.9893
10.9952
7.98369
7.97119
7.96395
7.96208
7.96558
7.97429
5.43158
5.41612
5.40727
5.40524
5.41004
5.42145
3.38403
3.36545
3.355
3.35294
3.35926
3.37378
1.9005
1.87945
1.86809
1.86625
1.87393
1.89142
1.01896
1.00156
0.992586
0.991303
0.997715
1.01263
143.078
144.366
146.045
148.104
150.525
153.293
156.394
159.808
163.514
167.482
171.679
176.042
180.443
184.813
189.16
193.475
197.735
201.919
206.004
209.984
213.895
217.752
233.402
233.785
233.544
232.682
231.31
229.603
227.927
226.604
225.893
225.861
226.686
228.411
230.892
233.852
237.093
240.493
243.985
247.538
251.151
254.85
258.682
262.614
231.848
231.569
231.253
230.922
230.62
230.412
230.38
230.601
231.17
232.187
233.762
235.996
238.908
242.453
246.657
251.573
257.274
263.853
271.413
280.064
289.919
301.089
230.088
230.035
229.879
229.754
229.768
229.984
230.442
231.198
232.32
233.888
235.998
238.727
242.075
245.991
250.493
255.608
261.364
267.791
274.921
282.776
291.371
300.711
235.749
235.685
235.47
235.221
235.044
235.005
235.149
235.529
236.186
237.166
238.524
240.335
242.62
245.355
248.543
252.175
256.241
260.726
265.605
270.842
276.384
282.122
228.737
228.458
228.193
227.963
227.78
227.661
227.624
227.698
227.922
228.331
228.956
229.819
230.907
232.18
233.616
235.188
236.862
238.603
240.371
242.127
243.832
245.451
215.924
215.369
214.782
214.164
213.53
212.893
212.27
211.678
211.136
210.668
210.297
210.053
209.953
209.978
210.099
210.287
210.512
210.748
210.97
211.156
211.29
211.35
192.243
191.328
190.389
189.442
188.489
187.534
186.579
185.625
184.673
183.724
182.775
181.827
180.895
179.985
179.074
178.145
177.181
176.167
175.09
173.942
172.713
171.399
169.217
168.132
167.017
165.866
164.679
163.454
162.189
160.886
159.55
158.18
156.773
155.334
153.896
152.466
151.024
149.561
148.068
146.538
144.969
143.369
141.743
140.086
146.644
145.445
144.213
142.946
141.644
140.303
138.921
137.494
136.019
134.49
132.902
131.261
129.579
127.887
126.183
124.465
122.731
120.982
119.218
117.44
115.65
113.851
126.721
125.477
124.195
122.873
121.506
120.091
118.624
117.1
115.518
113.874
112.164
110.388
108.588
106.796
105.011
103.234
101.469
99.7176
97.9824
96.2658
94.5706
92.9002
109.14
107.903
106.629
105.318
103.964
102.564
101.116
99.6165
98.0611
96.4459
94.7659
93.0272
91.2706
89.5309
87.8081
86.1022
84.4209
82.766
81.1387
79.54
77.9712
76.4333
94.1503
92.9475
91.7095
90.4333
89.1167
87.7569
86.3513
84.897
83.391
81.8311
80.2156
78.5509
76.8808
75.2389
73.6278
72.0486
70.5026
68.9905
67.5132
66.0715
64.6661
63.2976
81.2728
80.1204
78.9355
77.7168
76.4623
75.1701
73.8384
72.465
71.048
69.5854
68.0747
66.5248
64.9769
63.4629
61.9829
60.5372
59.126
57.7497
56.4089
55.104
53.835
52.6021
70.2723
69.172
68.0421
66.8811
65.6876
64.4601
63.1971
61.8971
60.5587
59.1803
57.7604
56.3085
54.8638
53.4557
52.0836
50.7483
49.4503
48.1894
46.9654
45.7781
44.6272
43.5125
60.733
59.6799
58.5996
57.4911
56.3533
55.1852
53.9857
52.7538
51.4886
50.1891
48.8544
47.4932
46.1427
44.8302
43.5552
42.3171
41.1153
39.9494
38.8192
37.7242
36.6639
35.6379
52.414
51.3991
50.3588
49.2922
48.1988
47.0777
45.9285
44.7507
43.5439
42.3076
41.041
39.7528
38.4781
37.2425
36.0454
34.8859
33.7633
32.6767
31.6261
30.6109
29.6308
28.6853
45.04
44.0559
43.048
42.0161
40.9599
39.879
38.7734
37.643
36.4874
35.3067
34.1006
32.8776
31.6712
30.5055
29.3794
28.2922
27.2427
26.2299
25.2531
24.312
23.4058
22.5338
38.4592
37.4997
36.5189
35.5168
34.4933
33.4485
32.3823
31.2947
30.1857
29.0553
27.9038
26.74
25.5963
24.4957
23.4372
22.4199
21.4424
20.5037
19.6025
18.7379
17.9091
17.1153
32.5253
31.5882
30.6323
29.658
28.6655
27.655
26.627
25.5817
24.5197
23.4417
22.3484
21.2486
20.173
19.1431
18.1578
17.2158
16.316
15.4569
14.6371
13.8552
13.11
12.4004
27.166
26.2516
25.3214
24.3761
23.4163
22.4425
21.4556
20.4565
19.4461
18.4256
17.3962
16.3669
15.3668
14.4156
13.512
12.6545
11.8417
11.072
10.3439
9.6557
9.00589
8.39319
22.3225
21.4338
20.5329
19.6208
18.6984
17.7669
16.8275
15.8817
14.931
13.9773
13.0223
12.0753
11.1635
10.3048
9.49744
8.73964
8.02955
7.36534
6.74505
6.16669
5.62839
5.12862
17.9616
17.1042
16.2387
15.3666
14.4894
13.6089
12.7267
11.8451
10.9663
10.0928
9.22737
8.37938
7.57402
6.82669
6.13527
5.49764
4.91163
4.37511
3.88579
3.44136
3.03967
2.67883
14.0625
13.2443
12.4232
11.6013
10.7806
9.9635
9.15273
8.35116
7.56204
6.78897
6.03598
5.31284
4.64221
4.03666
3.49373
3.01085
2.5852
2.21364
1.89262
1.6181
1.38566
1.19051
10.6176
9.84986
9.08579
8.3282
7.58011
6.84489
6.12632
5.42859
4.75636
4.11486
3.50985
2.95171
2.45926
2.04022
1.68989
1.40252
1.17128
0.98848
0.846011
0.736044
0.651587
0.586729
7.63108
6.92998
6.2414
5.56938
4.91827
4.29297
3.69886
3.14186
2.62825
2.16443
1.75638
1.41132
1.13735
0.930167
0.777311
0.666672
0.587537
0.531162
0.490869
0.461828
0.440706
0.425286
5.12371
4.51339
3.92823
3.37386
2.8563
2.38186
1.95672
1.58629
1.27431
1.02172
0.825909
0.681752
0.582264
0.516049
0.472245
0.443174
0.423649
0.410282
0.400924
0.394235
0.389392
0.385887
3.1384
2.65408
2.211
1.81539
1.47249
1.18556
0.954847
0.777069
0.645778
0.552606
0.488827
0.446843
0.420509
0.404251
0.394097
0.387649
0.383479
0.380741
0.378936
0.377764
0.377043
0.376649
1.73665
1.41384
1.14265
0.924134
0.755521
0.630726
0.541785
0.480478
0.439463
0.41277
0.395869
0.385568
0.379659
0.376428
0.37478
0.374088
0.373988
0.374266
0.374782
0.375443
0.376188
0.376978
0.934643
0.76718
0.640561
0.548967
0.484981
0.441539
0.412785
0.394234
0.382633
0.375703
0.371888
0.370162
0.36982
0.370316
0.371312
0.37259
0.374016
0.375499
0.377053
0.378656
0.380283
0.381935
220.8
223.297
226.295
229.764
233.612
237.692
241.842
245.944
250.001
254.168
258.618
263.093
267.651
276.642
291.969
309.428
336.165
373.819
418.624
467.97
519.498
568.807
605.945
622.168
630.144
630.418
623.637
603.76
574.208
539.224
497.677
446.393
380.139
286.591
239.408
265.729
268.238
271.165
274.591
278.595
283.245
288.45
294.114
300.199
306.845
314.436
323.206
334.119
348.505
368.832
394.6
428.946
477.315
549.4
644.986
748.807
818.752
841.74
865.182
949.046
1144.78
1399.44
1546.52
1524.2
1464.51
1385.18
1283.11
1144.69
932.787
551.193
311.48
320.806
332.373
346.692
364.11
384.263
405.09
421.502
426.458
420.109
413.609
413.066
418.44
428.152
439.528
451.37
462.582
475.764
494.369
521.216
567.693
648.729
703.629
797.022
975.982
1254.44
1509.75
1668.04
1689.96
1574.01
1372.52
1168.53
984.107
737.849
360.228
309.106
316.512
325.307
335.767
348.197
362.919
380.269
400.694
424.973
454.495
490.548
533.32
572.39
576.977
548.82
511.268
493.643
515.272
591.122
705.354
779.199
744.423
625.6
558.379
541.968
549.912
521.979
494.804
485.029
470.73
434.938
375.639
303.88
206.241
96.5741
287.109
291.516
296.493
302.189
308.817
316.69
326.265
338.135
352.816
369.948
387.154
397.573
396.482
386.309
371.845
359.452
349.878
345.499
360.025
418.049
525.107
633.033
652.792
610.792
592.383
598.846
594.594
576.812
547.595
509.486
468.051
423.295
371.101
299.065
172.415
247.006
248.656
250.462
252.438
254.589
256.911
259.38
261.934
264.445
266.679
268.29
268.723
267.187
261.83
250.348
233.142
215.741
201.858
194.717
197.543
213.267
241.919
275.072
300.775
318.762
333.285
344.78
346.886
339.47
327.613
312.75
293.144
264.32
217.488
126.893
211.692
212.395
213.095
213.791
214.49
215.206
215.96
216.779
217.687
218.661
219.506
219.502
217.168
210.621
199.582
186.334
172.319
157.642
141.935
124.911
108.326
95.3047
90.9675
100.48
125.439
167.517
215.955
257.174
278.521
279.829
264.348
235.979
199.2
151.06
71.417
170.677
170.59
170.439
170.203
169.851
169.344
168.633
167.646
166.292
164.439
161.91
158.466
153.797
147.479
139.088
129.019
118.142
106.826
94.6278
81.9452
69.7921
59.1706
52.0541
49.1443
48.5845
51.5651
56.7374
62.7463
69.0867
71.7501
69.8938
61.9545
49.8943
34.4066
20.5984
139.092
138.752
138.317
137.767
137.079
136.223
135.167
133.868
132.273
130.314
127.899
124.904
121.159
116.351
110.097
102.866
95.398
88.0214
80.9166
74.2453
68.0242
61.8141
55.2014
48.1892
41.5407
36.6292
33.5919
31.1258
28.7578
26.2517
23.4252
20.1395
16.2007
11.1456
7.91174
112.742
112.299
111.782
111.175
110.458
109.607
108.592
107.37
105.882
104.07
101.861
99.1722
95.9097
91.9677
87.3384
82.367
77.4964
73.0017
69.2055
66.3744
64.3501
62.4515
58.5442
53.7074
50.3242
50.1545
53.8273
57.1824
56.723
53.3368
48.4022
42.5682
35.7445
26.7894
13.1448
91.8839
91.474
90.9917
90.4203
89.7447
88.9473
88.0082
86.9039
85.6069
84.0832
82.2877
80.1809
77.7032
74.7811
71.2996
67.4843
63.6111
59.7657
56.0759
52.8126
50.1831
48.1111
46.5744
45.7946
45.7539
46.0569
46.0196
45.3354
44.2114
42.9975
41.3447
39.2441
36.1263
30.5106
19.0463
75.4925
75.1014
74.6542
74.1399
73.5458
72.8567
72.0541
71.1158
70.0151
68.7192
67.1947
65.4149
63.3375
60.9179
58.132
55.1275
52.0997
49.1135
46.2379
43.523
40.9864
38.5565
36.3543
34.5322
32.9813
31.6013
30.3485
29.2271
28.2921
27.6318
27.1655
26.3747
24.5274
20.2224
11.6353
62.4713
62.1375
61.7546
61.3145
60.8074
60.222
59.545
58.7606
57.8507
56.7948
55.5681
54.1427
52.4861
50.5567
48.3152
45.8752
43.3888
40.9118
38.5098
36.2413
34.162
32.2551
30.6726
29.4649
28.4829
27.613
26.7442
25.8087
24.6768
23.1971
21.2691
18.8357
15.8373
12.0785
6.68404
51.866
51.5818
51.2584
50.8891
50.466
49.9798
49.4195
48.7722
48.0227
47.1536
46.1446
44.9728
43.6128
42.0368
40.2318
38.2897
36.3213
34.3597
32.4415
30.6049
28.8888
27.2836
25.9199
24.8766
24.0929
23.4957
22.9835
22.4163
21.6171
20.5155
19.0635
17.226
14.8938
11.6816
6.69355
42.8619
42.6332
42.372
42.073
41.7296
41.3346
40.8792
40.3529
39.7441
39.0393
38.223
37.2771
36.1796
34.9009
33.4268
31.8313
30.2024
28.5637
26.9398
25.3546
23.8276
22.3249
20.9279
19.7095
18.6008
17.5496
16.5213
15.5069
14.4872
13.4344
12.3157
11.0784
9.60938
7.59951
3.91891
35.0502
34.8636
34.6522
34.4113
34.1357
33.8189
33.4534
33.0299
32.5383
31.9659
31.2986
30.5196
29.6097
28.5479
27.3232
25.9944
24.6336
23.2612
21.9016
20.583
19.3364
18.1493
17.0837
16.2014
15.4281
14.6892
13.9502
13.1917
12.4009
11.5644
10.6596
9.64426
8.4235
6.72902
3.86356
28.1577
28.0129
27.8489
27.6616
27.4462
27.1975
26.909
26.5734
26.1817
25.7235
25.1858
24.5523
23.8039
22.9215
21.8946
20.7711
19.6119
18.4333
17.2541
16.0945
14.9731
13.8688
12.8554
12.0131
11.2875
10.6308
10.0121
9.40293
8.77785
8.11838
7.4091
6.62229
5.69061
4.41985
2.1371
22.058
21.9467
21.8213
21.6787
21.515
21.3256
21.1047
20.8457
20.5402
20.1782
19.7475
19.2336
18.6204
17.8887
17.0278
16.078
15.0934
14.0919
13.0954
12.1285
11.2161
10.3414
9.57881
8.97635
8.48105
8.03212
7.57282
7.08571
6.57525
6.03973
5.47133
4.85213
4.13946
3.216
1.84066
16.6938
16.6148
16.5252
16.4228
16.3043
16.166
16.0031
15.8099
15.5793
15.3025
14.9688
14.564
14.0699
13.4687
12.7517
11.9537
11.1227
10.2761
9.43194
8.60884
7.82311
7.06663
6.41359
5.91461
5.54699
5.26283
5.0048
4.72884
4.41365
4.05486
3.65113
3.19635
2.6761
2.01473
1.03227
12.0338
11.9827
11.925
11.8587
11.781
11.6887
11.5776
11.4427
11.2776
11.0743
10.823
10.5117
10.1256
9.64782
9.06904
8.41922
7.74288
7.0612
6.39473
5.76303
5.17811
4.62777
4.15299
3.78298
3.50083
3.28616
3.10892
2.93543
2.74083
2.51369
2.25214
1.95659
1.62762
1.26458
0.913737
8.0867
8.06051
8.03043
7.99485
7.95168
7.8983
7.83132
7.74647
7.63835
7.50013
7.32307
7.09653
6.80804
6.44326
5.99488
5.49184
4.97384
4.46121
3.97156
3.52128
3.11887
2.74912
2.43934
2.21232
2.05114
1.93232
1.8301
1.72306
1.59805
1.45002
1.28556
1.10793
0.921988
0.736401
0.543587
4.8867
4.87901
4.87003
4.85856
4.84304
4.82139
4.79083
4.74786
4.688
4.60556
4.49354
4.3435
4.14591
3.89123
3.57665
3.228
2.88242
2.56029
2.27733
2.03987
1.84345
1.66878
1.5117
1.3788
1.26758
1.17396
1.09052
1.00765
0.916826
0.815411
0.707741
0.597292
0.487107
0.384838
0.241614
2.51127
2.5148
2.51919
2.52368
2.52718
2.52814
2.52452
2.51365
2.49203
2.4555
2.39916
2.31759
2.20557
2.05979
1.88273
1.69343
1.51751
1.36872
1.25312
1.16814
1.10394
1.04419
0.977209
0.905755
0.834317
0.765503
0.699161
0.633737
0.567558
0.500871
0.435945
0.376988
0.327154
0.271755
0.138495
1.10761
1.11794
1.1296
1.14188
1.15404
1.1652
1.17421
1.17967
1.17978
1.17262
1.15566
1.12655
1.08375
1.02736
0.960788
0.894446
0.839329
0.799305
0.773186
0.757619
0.74599
0.728785
0.697838
0.655685
0.60789
0.558152
0.508236
0.458615
0.409568
0.362489
0.318295
0.278612
0.240603
0.195186
0.0946453
0.56444
0.574174
0.583732
0.592911
0.601623
0.609705
0.616897
0.622816
0.62694
0.62861
0.627092
0.621781
0.612343
0.599332
0.58442
0.571158
0.562491
0.558703
0.558813
0.561174
0.562094
0.557538
0.54168
0.515531
0.482774
0.447579
0.411546
0.375462
0.340154
0.306591
0.27561
0.246145
0.216056
0.180112
0.0855015
0.421168
0.425408
0.429575
0.433574
0.437377
0.440946
0.444227
0.447146
0.449597
0.451431
0.452566
0.452991
0.452836
0.452509
0.45271
0.45424
0.457046
0.460952
0.465426
0.469433
0.470928
0.467772
0.456411
0.438239
0.415425
0.389969
0.362933
0.335211
0.307433
0.280191
0.253447
0.226513
0.197946
0.163009
0.0786434
0.385069
0.386452
0.387847
0.389204
0.390492
0.391686
0.392768
0.393734
0.394614
0.395406
0.396178
0.397053
0.398213
0.399903
0.40238
0.405632
0.409305
0.413114
0.416636
0.41917
0.419617
0.41656
0.407956
0.394618
0.377522
0.357604
0.33608
0.313567
0.290461
0.266941
0.24314
0.218817
0.192969
0.161228
0.0769897
0.376621
0.376939
0.377224
0.377459
0.377625
0.377706
0.377695
0.377599
0.377452
0.377321
0.377307
0.377539
0.378183
0.379402
0.381279
0.38365
0.386159
0.388509
0.390348
0.391179
0.390322
0.38677
0.379258
0.368292
0.354248
0.337706
0.319344
0.299628
0.278897
0.257369
0.235139
0.211985
0.186922
0.15589
0.074422
0.377253
0.377123
0.376922
0.376625
0.376212
0.375667
0.374982
0.374161
0.373231
0.37225
0.371311
0.370561
0.370142
0.37016
0.370652
0.371505
0.372442
0.373211
0.373527
0.373027
0.371221
0.367315
0.360367
0.350704
0.33844
0.323871
0.307455
0.289513
0.27038
0.25032
0.22947
0.207681
0.184074
0.154596
0.0731582
0.382379
0.381826
0.381172
0.380425
0.379558
0.37855
0.377386
0.376061
0.374592
0.373023
0.37142
0.369797
0.368227
0.366858
0.36584
0.365123
0.364548
0.363896
0.36292
0.36132
0.358688
0.354318
0.347446
0.338338
0.326974
0.313498
0.298232
0.281434
0.263394
0.244345
0.224393
0.203356
0.180311
0.151264
0.0713636
0.0703367
0.150101
0.177929
0.199875
0.21989
0.238861
0.256969
0.274118
0.290092
0.304622
0.31744
0.328324
0.337191
0.344135
0.348934
0.352274
0.35486
0.357097
0.359284
0.361668
0.364466
0.367609
0.370679
0.373726
0.376742
0.379669
0.382424