/*--------------------------------*- C++ -*----------------------------------*\
  =========                 |
  \\      /  F ield         | OpenFOAM: The Open Source CFD Toolbox
   \\    /   O peration     | Website:  https://openfoam.org
    \\  /    A nd           | Version:  8
     \\/     M anipulation  |
\*---------------------------------------------------------------------------*/
FoamFile
{
    version     2.0;
    format      ascii;
    class       surfaceScalarField;
    location    "0.04";
    object      phi;
}
// * * * * * * * * * * * * * * * * * * * * * * * * * * * * * * * * * * * * * //

dimensions      [1 0 -1 0 0 0 0];

internalField   nonuniform List<scalar> 
31053
(
-7.41868e-06
5.00072e-06
-7.11163e-06
-6.4934e-07
-7.79639e-07
-4.49345e-06
1.13901e-05
-8.75919e-06
3.04032e-05
-1.47263e-05
5.93539e-05
-2.43273e-05
0.000105144
-4.12865e-05
0.000178518
-6.93457e-05
0.000288371
-0.000106569
0.000429821
-0.000139078
0.000592478
-0.000161381
0.000758607
-0.00016624
0.000897833
-0.000140867
0.000972511
-7.81854e-05
0.000976361
-6.41187e-06
0.000938873
3.49972e-05
0.000878669
5.74338e-05
0.000809868
6.57079e-05
0.000740129
6.64324e-05
0.000671127
6.57399e-05
0.000605832
6.2421e-05
0.000555226
4.99741e-05
0.000525226
3.17784e-05
0.000505333
2.42238e-05
0.000489358
2.26062e-05
0.000474539
2.34575e-05
0.000461154
2.37296e-05
0.00044984
2.30607e-05
0.000440863
2.18264e-05
0.000434278
2.02415e-05
0.00043005
1.84051e-05
0.000428098
1.63823e-05
0.000428296
1.42399e-05
0.00043048
1.20436e-05
1.05954e-05
0.00043299
-0.000103532
0.000108616
-0.000224955
0.000120876
-0.000353177
0.000123867
-0.000482157
0.000120391
-0.000603988
0.000107312
-0.000707546
7.94801e-05
-0.000778935
3.04017e-05
-0.000805096
-4.28096e-05
-0.000774852
-0.000136362
-0.000677344
-0.000236058
-0.000525098
-0.00031318
-0.000346372
-0.000344709
-0.000158636
-0.000328559
2.83028e-05
-0.000265234
0.000171435
-0.000149666
0.000296272
-8.99247e-05
0.000411836
-5.81525e-05
0.000522471
-4.48852e-05
0.000632329
-4.33258e-05
0.0007436
-4.53635e-05
0.000855124
-4.88247e-05
0.000951333
-4.58811e-05
0.00102283
-3.93095e-05
0.00107859
-3.1093e-05
0.00112161
-1.99849e-05
0.00115014
-4.66042e-06
0.00116368
1.05533e-05
0.00116356
2.35251e-05
0.00115036
3.53049e-05
0.00112876
4.20905e-05
0.00110183
4.55381e-05
0.0010718
4.65946e-05
0.00104024
4.5949e-05
0.00100829
4.4124e-05
4.10776e-05
0.000977917
5.46697e-05
5.42171e-05
0.000118156
5.76657e-05
0.000184523
5.77993e-05
0.000249563
5.56946e-05
0.000308048
4.92348e-05
0.000352234
3.576e-05
0.000366997
1.61773e-05
0.000323669
1.14947e-06
0.000200353
-1.23025e-05
-1.57416e-05
-1.90664e-05
-0.000305641
-2.23526e-05
-0.000623395
-2.60637e-05
-0.000906773
-4.42322e-05
-0.00107769
-9.31048e-05
-0.00108697
-0.000139176
-0.000999112
-0.000176622
-0.000862019
-0.000194063
-0.000710566
-0.000195241
-0.000569279
-0.000183594
-0.000451572
-0.000162111
-0.000364039
-0.000135441
-0.000309312
-9.98002e-05
-0.000283604
-6.43318e-05
-0.000278442
-3.56773e-05
-0.000281828
-1.61251e-05
-0.00028453
-1.55117e-06
-0.000283291
9.66096e-06
-0.000277247
1.77576e-05
-0.000264689
2.29848e-05
-0.000248153
2.5759e-05
-0.000229137
2.6695e-05
-0.000209413
2.70232e-05
-0.000189406
2.60706e-05
-0.000169553
2.43807e-05
2.28972e-05
-0.000151278
0.000111172
-5.73418e-05
0.00022448
-5.60477e-05
0.000336879
-5.50317e-05
0.00044721
-5.51095e-05
0.00055036
-5.44104e-05
0.000635188
-4.95923e-05
0.000686201
-3.53812e-05
0.000689804
-3.01106e-06
0.000639006
3.78858e-05
0.000527239
9.19668e-05
0.000368471
0.000135512
0.000201928
0.000139333
7.30028e-05
8.33932e-05
5.67636e-06
-2.73383e-05
1.66204e-05
-0.000151056
6.43001e-05
-0.000225195
0.00012394
-0.000254531
0.000181524
-0.000253552
0.000231285
-0.000233991
0.000269644
-0.000201061
0.000290202
-0.000156593
0.000284361
-9.45184e-05
0.000258632
-3.91272e-05
0.00021732
5.14491e-06
0.000171422
2.93302e-05
0.000124159
4.53141e-05
8.08463e-05
5.26249e-05
4.38357e-05
5.44688e-05
1.32534e-05
5.33098e-05
-1.18356e-05
5.06231e-05
-3.25254e-05
4.71862e-05
-4.9125e-05
4.34436e-05
-6.28819e-05
3.96699e-05
-7.46536e-05
3.60127e-05
3.224e-05
-8.41216e-05
-5.20419e-05
-5.3049e-06
-0.000101318
-6.78815e-06
-0.000148373
-7.99468e-06
-0.000194747
-8.76225e-06
-0.000240351
-8.83178e-06
-0.000282458
-7.51048e-06
-0.000313772
-4.07746e-06
-0.000319268
2.47966e-06
-0.000295115
1.37304e-05
-0.000232255
2.91186e-05
-0.000134211
3.74827e-05
-2.10294e-05
2.60999e-05
6.88857e-05
-6.69515e-06
0.000103086
-6.18536e-05
4.4488e-05
-9.27816e-05
-6.81492e-05
-0.000112825
-0.000202089
-0.000120753
-0.000336053
-0.000119689
-0.000457845
-0.000112264
-0.000560374
-9.85428e-05
-0.000638223
-7.87142e-05
-0.000681264
-5.1411e-05
-0.000691496
-2.87851e-05
-0.000678415
-7.812e-06
-0.000657066
8.10822e-06
-0.000629935
1.83124e-05
-0.000602995
2.58216e-05
-0.000576992
2.86008e-05
-0.000552226
2.86764e-05
-0.000528788
2.73089e-05
-0.000506703
2.52084e-05
-0.000485975
2.28104e-05
-0.000466603
2.03817e-05
-0.000448581
1.80664e-05
1.62311e-05
-0.000432505
-4.91064e-05
4.3895e-05
-0.000102376
4.6575e-05
-0.000157976
4.76999e-05
-0.000213652
4.70153e-05
-0.000265996
4.36216e-05
-0.000309854
3.64675e-05
-0.000338222
2.44363e-05
-0.000343057
7.49736e-06
-0.000311757
-1.7336e-05
-0.000237072
-4.52549e-05
-0.000128674
-7.05541e-05
-1.15079e-05
-9.06308e-05
8.47972e-05
-0.000102588
0.000139008
-0.000115648
0.00015281
-0.000106248
0.000142762
-0.000102493
0.000120518
-9.82688e-05
9.36036e-05
-9.25568e-05
6.45353e-05
-8.29851e-05
3.40397e-05
-6.78611e-05
1.85495e-06
-4.63862e-05
-3.22146e-05
-1.72285e-05
-6.41445e-05
3.2055e-06
-8.67349e-05
1.48151e-05
-0.00010001
2.1407e-05
-0.000107048
2.53655e-05
-0.000108778
2.75537e-05
-0.000108752
2.85703e-05
-0.000108796
2.87118e-05
-0.000109675
2.81752e-05
-0.000111613
2.71312e-05
-0.000114553
2.57346e-05
-0.000118304
2.4117e-05
-0.000122634
2.23828e-05
2.04217e-05
-0.000126836
1.21536e-05
3.17118e-05
2.46617e-05
3.40363e-05
3.84222e-05
3.39064e-05
5.28289e-05
3.25721e-05
6.70402e-05
2.93684e-05
8.00492e-05
2.34103e-05
9.08363e-05
1.35922e-05
9.81809e-05
8.71458e-08
9.32639e-05
-1.24931e-05
7.32107e-05
-2.52944e-05
4.11323e-05
-3.85818e-05
1.45023e-06
-5.10753e-05
-3.98765e-05
-6.13935e-05
-8.62815e-05
-6.93525e-05
-0.000131471
-6.11384e-05
-0.000178135
-5.59001e-05
-0.000225159
-5.13137e-05
-0.000270828
-4.69605e-05
-0.000312337
-4.15542e-05
-0.000346203
-3.40717e-05
-0.000367991
-2.46689e-05
-0.000371773
-1.35038e-05
-0.000366388
-2.21012e-06
-0.000357974
6.38857e-06
-0.000349538
1.29743e-05
-0.000341471
1.73085e-05
-0.000333049
1.91455e-05
-0.000323988
1.95259e-05
-0.000314299
1.90403e-05
-0.000304152
1.80468e-05
-0.000293781
1.67791e-05
-0.000283419
1.53901e-05
-0.000273263
1.39787e-05
-0.000263472
1.26085e-05
1.14773e-05
-0.00025451
3.44175e-05
-2.68611e-06
7.05799e-05
-2.10523e-06
0.000107609
-3.10001e-06
0.00014498
-4.77506e-06
0.000181373
-6.99839e-06
0.000214453
-9.64144e-06
0.000240396
-1.23209e-05
0.000255135
-1.46179e-05
0.000261516
-1.88414e-05
0.000261511
-2.52523e-05
0.000254252
-3.12793e-05
0.000238192
-3.49698e-05
0.000211563
-3.47243e-05
0.00017329
-3.10416e-05
0.000133937
-2.1749e-05
9.54342e-05
-1.73606e-05
5.9908e-05
-1.5752e-05
2.79483e-05
-1.49701e-05
-1.37895e-06
-1.21889e-05
-2.88893e-05
-6.53862e-06
-5.38161e-05
2.92659e-07
-7.48014e-05
7.50853e-06
-8.84707e-05
1.14765e-05
-9.6139e-05
1.40682e-05
-9.89067e-05
1.57466e-05
-9.84347e-05
1.68383e-05
-9.67428e-05
1.74525e-05
-9.48555e-05
1.76354e-05
-9.32892e-05
1.74692e-05
-9.22681e-05
1.70195e-05
-9.18434e-05
1.63476e-05
-9.19718e-05
1.5511e-05
-9.25616e-05
1.45619e-05
-9.35067e-05
1.3548e-05
1.23965e-05
-9.44301e-05
1.30591e-05
-1.57484e-05
2.87019e-05
-1.7752e-05
4.41445e-05
-1.85475e-05
5.83325e-05
-1.89686e-05
7.01881e-05
-1.8861e-05
7.85517e-05
-1.8013e-05
8.24133e-05
-1.61923e-05
8.11001e-05
-1.33156e-05
7.21177e-05
-9.86975e-06
5.47529e-05
-7.89221e-06
3.07115e-05
-7.24174e-06
2.93095e-06
-7.19464e-06
-2.49061e-05
-6.88956e-06
-4.92181e-05
-6.72895e-06
-6.52692e-05
-5.68948e-06
-7.74294e-05
-5.17963e-06
-8.86595e-05
-4.49152e-06
-0.000100443
-3.15103e-06
-0.000111785
-8.0812e-07
-0.000120835
2.5432e-06
-0.000127125
6.61396e-06
-0.00013071
1.11218e-05
-0.000133452
1.42445e-05
-0.000135309
1.59505e-05
-0.000136191
1.66514e-05
-0.000135997
1.66652e-05
-0.000134721
1.61948e-05
-0.000132478
1.54094e-05
-0.000129441
1.44476e-05
-0.000125793
1.33849e-05
-0.000121706
1.2273e-05
-0.000117341
1.11581e-05
-0.000112844
1.00758e-05
-0.000108344
9.05766e-06
8.2145e-06
-0.000104152
8.31801e-06
-2.40695e-05
1.53715e-05
-2.48081e-05
2.17426e-05
-2.49215e-05
2.75902e-05
-2.48192e-05
3.28047e-05
-2.40795e-05
3.68775e-05
-2.2091e-05
3.88062e-05
-1.81281e-05
3.67063e-05
-1.12248e-05
2.68893e-05
-6.3975e-08
1.01253e-05
8.85274e-06
-1.26657e-05
1.5532e-05
-3.7763e-05
1.78891e-05
-6.03347e-05
1.56694e-05
-7.75882e-05
1.05157e-05
-8.76443e-05
4.35855e-06
-9.30763e-05
2.46626e-07
-9.63455e-05
-1.22853e-06
-9.88984e-05
-6.07522e-07
-0.000101237
1.52071e-06
-0.000103152
4.45375e-06
-0.000103688
7.14731e-06
-0.000101361
8.79095e-06
-9.70847e-05
9.96422e-06
-9.20348e-05
1.08958e-05
-8.69581e-05
1.15695e-05
-8.21786e-05
1.18802e-05
-7.78725e-05
1.18826e-05
-7.41938e-05
1.17243e-05
-7.12067e-05
1.14541e-05
-6.89016e-05
1.10731e-05
-6.7218e-05
1.05832e-05
-6.60685e-05
1.00024e-05
-6.53548e-05
9.35664e-06
-6.49841e-05
8.68228e-06
7.94941e-06
-6.47231e-05
-2.21715e-05
-1.89468e-06
-4.42237e-05
-2.75236e-06
-6.50218e-05
-4.12041e-06
-8.41934e-05
-5.64399e-06
-0.000101244
-7.02641e-06
-0.000115373
-7.95722e-06
-0.000125289
-8.21054e-06
-0.000128865
-7.64663e-06
-0.000122905
-6.03075e-06
-0.000110686
-3.41334e-06
-9.5332e-05
1.80116e-07
-7.96322e-05
2.21084e-06
-6.59149e-05
1.98063e-06
-5.53358e-05
-2.6253e-08
-4.90919e-05
-1.84502e-06
-4.64532e-05
-2.35208e-06
-4.6176e-05
-1.46302e-06
-4.69964e-05
2.59443e-07
-4.79438e-05
2.5162e-06
-4.89076e-05
5.46493e-06
-5.10649e-05
9.35264e-06
-5.36773e-05
1.14469e-05
-5.61032e-05
1.24286e-05
-5.80412e-05
1.28679e-05
-5.9364e-05
1.29227e-05
-5.9972e-05
1.25153e-05
-5.98763e-05
1.18108e-05
-5.91505e-05
1.10194e-05
-5.78676e-05
1.01897e-05
-5.61288e-05
9.35061e-06
-5.4057e-05
8.52591e-06
-5.17763e-05
7.73433e-06
-4.93972e-05
6.98912e-06
-4.7005e-05
6.30044e-06
5.73929e-06
-4.4785e-05
-4.79418e-06
2.90063e-06
-8.07245e-06
5.27188e-07
-1.05681e-05
-1.62306e-06
-1.28404e-05
-3.37065e-06
-1.52583e-05
-4.60602e-06
-1.7941e-05
-5.27415e-06
-2.09244e-05
-5.2229e-06
-2.4218e-05
-4.34817e-06
-2.77515e-05
-2.47981e-06
-3.07797e-05
-3.2201e-07
-3.22559e-05
1.68685e-06
-3.32105e-05
3.24338e-06
-3.51767e-05
3.95975e-06
-3.9612e-05
4.42601e-06
-4.53709e-05
3.93056e-06
-5.15078e-05
3.79978e-06
-5.69811e-05
4.024e-06
-6.13046e-05
4.59657e-06
-6.42164e-05
5.44155e-06
-6.53839e-05
6.6467e-06
-6.41656e-05
8.14757e-06
-6.1632e-05
8.92459e-06
-5.85499e-05
9.35595e-06
-5.53032e-05
9.62924e-06
-5.21363e-05
9.76215e-06
-4.93248e-05
9.70902e-06
-4.70031e-05
9.49374e-06
-4.51477e-05
9.16809e-06
-4.37072e-05
8.75252e-06
-4.26344e-05
8.28044e-06
-4.18793e-05
7.77304e-06
-4.13881e-05
7.24485e-06
-4.11079e-05
6.71051e-06
-4.09897e-05
6.18378e-06
5.64678e-06
-4.08958e-05
7.25201e-07
2.17632e-06
5.48669e-07
7.05249e-07
-1.23551e-06
1.63239e-07
-4.48001e-06
-1.23395e-07
-8.77697e-06
-3.05729e-07
-1.36225e-05
-4.24273e-07
-1.83571e-05
-4.83423e-07
-2.22538e-05
-4.44467e-07
-2.44837e-05
-2.42613e-07
-2.49377e-05
1.41271e-07
-2.40039e-05
7.54997e-07
-2.2331e-05
1.51925e-06
-2.06243e-05
2.2716e-06
-1.91197e-05
2.94409e-06
-1.8254e-05
3.08555e-06
-1.81223e-05
3.69045e-06
-1.87556e-05
4.68162e-06
-2.00723e-05
5.94018e-06
-2.19463e-05
7.34469e-06
-2.41572e-05
8.88909e-06
-2.64887e-05
1.05125e-05
-2.85416e-05
1.10089e-05
-3.01985e-05
1.10417e-05
-3.13935e-05
1.08507e-05
-3.20975e-05
1.04901e-05
-3.23721e-05
1.00053e-05
-3.22845e-05
9.42582e-06
-3.18769e-05
8.77832e-06
-3.12027e-05
8.09418e-06
-3.03213e-05
7.41318e-06
-2.92971e-05
6.76158e-06
-2.81886e-05
6.14761e-06
-2.70433e-05
5.57547e-06
-2.58991e-05
5.04889e-06
4.59743e-06
-2.48413e-05
-8.04099e-07
2.98143e-06
-4.5863e-06
4.48888e-06
-9.51715e-06
5.09597e-06
-1.49245e-05
5.28637e-06
-2.03882e-05
5.1606e-06
-2.55877e-05
4.77828e-06
-3.02737e-05
4.20601e-06
-3.4257e-05
3.54295e-06
-3.74039e-05
2.9092e-06
-3.96569e-05
2.40022e-06
-4.09754e-05
2.08007e-06
-4.14564e-05
2.00335e-06
-4.1411e-05
2.23998e-06
-4.12706e-05
2.81954e-06
-4.1358e-05
3.19026e-06
-4.15458e-05
3.89599e-06
-4.16262e-05
4.78041e-06
-4.14557e-05
5.78853e-06
-4.09682e-05
6.87654e-06
-4.00783e-05
8.01942e-06
-3.8737e-05
9.19168e-06
-3.71861e-05
9.47681e-06
-3.55891e-05
9.46175e-06
-3.40346e-05
9.31162e-06
-3.25812e-05
9.05049e-06
-3.12708e-05
8.70743e-06
-3.01348e-05
8.30098e-06
-2.91893e-05
7.84267e-06
-2.84399e-05
7.35338e-06
-2.78751e-05
6.85605e-06
-2.74725e-05
6.36589e-06
-2.72063e-05
5.88757e-06
-2.7049e-05
5.42366e-06
-2.69737e-05
4.97853e-06
4.53775e-06
-2.69096e-05
2.33565e-07
2.74829e-06
1.15422e-06
3.56869e-06
2.1791e-06
4.07176e-06
3.05336e-06
4.41301e-06
3.58857e-06
4.6265e-06
3.6364e-06
4.73179e-06
3.10231e-06
4.74178e-06
1.98394e-06
4.66332e-06
3.84259e-07
4.51158e-06
-1.5278e-06
4.31587e-06
-3.56008e-06
4.11762e-06
-5.54114e-06
3.99522e-06
-7.37605e-06
4.08168e-06
-9.1253e-06
4.5792e-06
-1.06336e-05
4.71031e-06
-1.21402e-05
5.41636e-06
-1.36967e-05
6.35279e-06
-1.5287e-05
7.3967e-06
-1.68806e-05
8.49019e-06
-1.84516e-05
9.61225e-06
-1.99673e-05
1.07309e-05
-2.12023e-05
1.07346e-05
-2.21049e-05
1.03856e-05
-2.26905e-05
9.91697e-06
-2.29945e-05
9.37272e-06
-2.30504e-05
8.77995e-06
-2.28916e-05
8.15736e-06
-2.25565e-05
7.52132e-06
-2.20831e-05
6.89238e-06
-2.15091e-05
6.29326e-06
-2.08684e-05
5.73528e-06
-2.01893e-05
5.21759e-06
-1.94963e-05
4.73893e-06
-1.88093e-05
4.29897e-06
3.91144e-06
-1.81764e-05
-3.10541e-06
5.85378e-06
-5.57636e-06
6.03976e-06
-7.78323e-06
6.27884e-06
-9.90054e-06
6.53064e-06
-1.2009e-05
6.73545e-06
-1.41345e-05
6.85807e-06
-1.6262e-05
6.87039e-06
-1.83524e-05
6.75525e-06
-2.0353e-05
6.51435e-06
-2.2206e-05
6.17185e-06
-2.38682e-05
5.78383e-06
-2.53144e-05
5.447e-06
-2.65088e-05
5.28314e-06
-2.73998e-05
5.47948e-06
-2.79035e-05
5.22404e-06
-2.81089e-05
5.6331e-06
-2.80439e-05
6.30037e-06
-2.77553e-05
7.12187e-06
-2.72734e-05
8.02325e-06
-2.66e-05
8.95503e-06
-2.57486e-05
9.89674e-06
-2.48751e-05
9.8776e-06
-2.4044e-05
9.57005e-06
-2.32821e-05
9.16941e-06
-2.25687e-05
8.6726e-06
-2.18847e-05
8.10811e-06
-2.12511e-05
7.5348e-06
-2.06974e-05
6.97769e-06
-2.0235e-05
6.43901e-06
-1.98568e-05
5.92316e-06
-1.95518e-05
5.43757e-06
-1.93096e-05
4.98204e-06
-1.91221e-05
4.55732e-06
-1.89814e-05
4.16362e-06
3.78882e-06
-1.8854e-05
7.56145e-07
5.09731e-06
1.20028e-06
5.59532e-06
1.515e-06
5.96382e-06
1.6983e-06
6.34707e-06
1.70994e-06
6.7236e-06
1.50515e-06
7.06276e-06
1.04596e-06
7.32966e-06
3.11082e-07
7.49049e-06
-6.92686e-07
7.51894e-06
-1.92936e-06
7.40996e-06
-3.34568e-06
7.20247e-06
-4.88871e-06
6.99354e-06
-6.52842e-06
6.92806e-06
-8.237e-06
7.19552e-06
-9.66943e-06
6.665e-06
-1.09649e-05
6.93854e-06
-1.2145e-05
7.49191e-06
-1.32276e-05
8.21722e-06
-1.42258e-05
9.03569e-06
-1.51315e-05
9.87631e-06
-1.59292e-05
1.07113e-05
-1.65266e-05
1.04914e-05
-1.69353e-05
9.99428e-06
-1.71792e-05
9.42774e-06
-1.72525e-05
8.75921e-06
-1.71676e-05
8.0355e-06
-1.69627e-05
7.34123e-06
-1.66699e-05
6.69517e-06
-1.6315e-05
6.09344e-06
-1.59178e-05
5.5344e-06
-1.54903e-05
5.01783e-06
-1.50443e-05
4.54294e-06
-1.45938e-05
4.11312e-06
-1.41535e-05
3.729e-06
3.3907e-06
-1.37502e-05
-2.03767e-08
5.11736e-06
-4.89439e-07
6.06404e-06
-1.29438e-06
6.76845e-06
-2.3783e-06
7.43072e-06
-3.68982e-06
8.03492e-06
-5.16446e-06
8.53736e-06
-6.73369e-06
8.89909e-06
-8.32155e-06
9.07892e-06
-9.85013e-06
9.04858e-06
-1.12608e-05
8.82232e-06
-1.25402e-05
8.48428e-06
-1.37142e-05
8.17084e-06
-1.48127e-05
8.03108e-06
-1.58026e-05
8.19152e-06
-1.64952e-05
7.36428e-06
-1.69655e-05
7.41654e-06
-1.72315e-05
7.76659e-06
-1.7308e-05
8.30355e-06
-1.72212e-05
8.95986e-06
-1.70197e-05
9.68686e-06
-1.6742e-05
1.04467e-05
-1.64317e-05
1.0194e-05
-1.60651e-05
9.63992e-06
-1.56393e-05
9.01342e-06
-1.52141e-05
8.34468e-06
-1.4833e-05
7.66434e-06
-1.44982e-05
7.01556e-06
-1.42045e-05
6.4098e-06
-1.39498e-05
5.84634e-06
-1.37322e-05
5.32374e-06
-1.35485e-05
4.84037e-06
-1.33944e-05
4.39449e-06
-1.32627e-05
3.98661e-06
-1.31456e-05
3.6166e-06
3.27672e-06
-1.30274e-05
4.73101e-07
4.64406e-06
9.30036e-07
5.6069e-06
1.30182e-06
6.39647e-06
1.60834e-06
7.12405e-06
1.84608e-06
7.7971e-06
1.9899e-06
8.39358e-06
2.00818e-06
8.88105e-06
1.86103e-06
9.2266e-06
1.49868e-06
9.41192e-06
8.72455e-07
9.45012e-06
-5.24655e-08
9.41158e-06
-1.27577e-06
9.39752e-06
-2.74161e-06
9.50156e-06
-4.36158e-06
9.81769e-06
-5.74998e-06
8.75941e-06
-6.97391e-06
8.64805e-06
-8.03017e-06
8.83133e-06
-8.91403e-06
9.19679e-06
-9.64212e-06
9.69828e-06
-1.02742e-05
1.03302e-05
-1.08437e-05
1.10284e-05
-1.12467e-05
1.0609e-05
-1.14469e-05
9.8514e-06
-1.14773e-05
9.05445e-06
-1.14066e-05
8.2838e-06
-1.12833e-05
7.55023e-06
-1.11232e-05
6.86393e-06
-1.09344e-05
6.22871e-06
-1.07255e-05
5.64448e-06
-1.05047e-05
5.10945e-06
-1.02795e-05
4.62104e-06
-1.0056e-05
4.17638e-06
-9.83706e-06
3.77249e-06
-9.62252e-06
3.40648e-06
3.07782e-06
-9.4196e-06
5.02511e-07
4.14186e-06
9.06711e-07
5.20304e-06
1.26489e-06
6.03869e-06
1.55677e-06
6.83267e-06
1.74527e-06
7.60922e-06
1.77324e-06
8.36641e-06
1.58697e-06
9.06839e-06
1.15514e-06
9.65984e-06
4.43072e-07
1.01258e-05
-5.71644e-07
1.04672e-05
-1.86603e-06
1.0709e-05
-3.35104e-06
1.08862e-05
-4.88493e-06
1.10399e-05
-6.3433e-06
1.12816e-05
-7.4608e-06
9.88265e-06
-8.32098e-06
9.51455e-06
-8.94744e-06
9.46476e-06
-9.37593e-06
9.63301e-06
-9.62247e-06
9.95337e-06
-9.72118e-06
1.04383e-05
-9.72846e-06
1.10458e-05
-9.67118e-06
1.05616e-05
-9.56128e-06
9.751e-06
-9.41547e-06
8.91761e-06
-9.25028e-06
8.12703e-06
-9.08056e-06
7.38834e-06
-8.91494e-06
6.70556e-06
-8.75822e-06
6.07865e-06
-8.61281e-06
5.50519e-06
-8.47968e-06
4.9819e-06
-8.35869e-06
4.50516e-06
-8.249e-06
4.07132e-06
-8.14918e-06
3.67692e-06
-8.05769e-06
3.31884e-06
2.99228e-06
-7.96863e-06
8.14381e-07
3.32896e-06
1.57877e-06
4.44018e-06
2.3113e-06
5.30784e-06
3.02532e-06
6.12052e-06
3.70434e-06
6.93235e-06
4.32539e-06
7.74783e-06
4.87369e-06
8.52299e-06
5.30163e-06
9.23512e-06
5.54723e-06
9.88371e-06
5.52277e-06
1.04954e-05
5.13125e-06
1.11045e-05
4.30162e-06
1.17203e-05
3.01372e-06
1.23329e-05
1.3339e-06
1.29675e-05
-2.50195e-07
1.14729e-05
-1.69299e-06
1.09639e-05
-2.91765e-06
1.06965e-05
-3.92178e-06
1.06448e-05
-4.7358e-06
1.07756e-05
-5.36101e-06
1.10724e-05
-5.79653e-06
1.14909e-05
-6.0567e-06
1.0831e-05
-6.21657e-06
9.91964e-06
-6.30966e-06
9.01893e-06
-6.34639e-06
8.17146e-06
-6.33725e-06
7.38635e-06
-6.29225e-06
6.66719e-06
-6.22023e-06
6.01274e-06
-6.12868e-06
5.41925e-06
-6.02387e-06
4.88222e-06
-5.91089e-06
4.39688e-06
-5.79393e-06
3.95862e-06
-5.67629e-06
3.56319e-06
-5.56064e-06
3.20673e-06
2.88651e-06
-5.45162e-06
7.64557e-07
2.56608e-06
1.51679e-06
3.68994e-06
2.17449e-06
4.65245e-06
2.7972e-06
5.50038e-06
3.44018e-06
6.29223e-06
4.08472e-06
7.10634e-06
4.67133e-06
7.93958e-06
5.1018e-06
8.80799e-06
5.27603e-06
9.71304e-06
5.10885e-06
1.06663e-05
4.56628e-06
1.16511e-05
3.64614e-06
1.26449e-05
2.37004e-06
1.3614e-05
8.17323e-07
1.4526e-05
-5.54413e-07
1.28503e-05
-1.73866e-06
1.21542e-05
-2.72588e-06
1.16901e-05
-3.52337e-06
1.14491e-05
-4.14048e-06
1.14e-05
-4.55983e-06
1.14995e-05
-4.76448e-06
1.17039e-05
-4.81593e-06
1.08906e-05
-4.81851e-06
9.92997e-06
-4.80577e-06
9.01347e-06
-4.77857e-06
8.15108e-06
-4.73837e-06
7.35249e-06
-4.68695e-06
6.62166e-06
-4.6269e-06
5.9581e-06
-4.56082e-06
5.35817e-06
-4.49127e-06
4.81722e-06
-4.42059e-06
4.3304e-06
-4.35098e-06
3.89282e-06
-4.284e-06
3.4997e-06
-4.22071e-06
3.1466e-06
2.82877e-06
-4.16007e-06
4.53887e-07
2.11348e-06
1.00371e-06
3.14165e-06
1.62128e-06
4.03671e-06
2.24112e-06
4.88263e-06
2.85612e-06
5.67963e-06
3.47607e-06
6.48908e-06
4.0549e-06
7.36376e-06
4.55332e-06
8.3129e-06
4.93146e-06
9.33859e-06
5.1478e-06
1.04541e-05
5.16198e-06
1.16415e-05
4.93421e-06
1.28778e-05
4.41408e-06
1.414e-05
3.56148e-06
1.53853e-05
2.61219e-06
1.38061e-05
1.62061e-06
1.31524e-05
6.48503e-07
1.26691e-05
-2.56341e-07
1.2361e-05
-1.04834e-06
1.21994e-05
-1.67969e-06
1.21387e-05
-2.12557e-06
1.21579e-05
-2.40374e-06
1.11766e-05
-2.58727e-06
1.01208e-05
-2.71119e-06
9.14424e-06
-2.79173e-06
8.23801e-06
-2.83825e-06
7.40492e-06
-2.8573e-06
6.64618e-06
-2.85471e-06
5.96054e-06
-2.83556e-06
5.34365e-06
-2.80422e-06
4.7901e-06
-2.76432e-06
4.29438e-06
-2.71907e-06
3.85109e-06
-2.67099e-06
3.45485e-06
-2.62209e-06
3.10064e-06
2.78413e-06
-2.57477e-06
1.73066e-07
1.94165e-06
4.54459e-07
2.86169e-06
8.52414e-07
3.64042e-06
1.28766e-06
4.4493e-06
1.68355e-06
5.28594e-06
2.05907e-06
6.11607e-06
2.42682e-06
6.99885e-06
2.7686e-06
7.97435e-06
3.05842e-06
9.05242e-06
3.26957e-06
1.02471e-05
3.34671e-06
1.15691e-05
3.24425e-06
1.29856e-05
2.94137e-06
1.4449e-05
2.42282e-06
1.59109e-05
1.81179e-06
1.44238e-05
1.1246e-06
1.38463e-05
4.25457e-07
1.3375e-05
-2.28258e-07
1.30217e-05
-8.11544e-07
1.27898e-05
-1.31569e-06
1.26502e-05
-1.71932e-06
1.25692e-05
-1.9845e-06
1.14491e-05
-2.14443e-06
1.02876e-05
-2.23856e-06
9.24467e-06
-2.29373e-06
8.29903e-06
-2.32486e-06
7.44145e-06
-2.34023e-06
6.66655e-06
-2.34421e-06
5.96909e-06
-2.33962e-06
5.34328e-06
-2.32863e-06
4.78295e-06
-2.31212e-06
4.28139e-06
-2.29051e-06
3.83267e-06
-2.2644e-06
3.43167e-06
-2.23421e-06
3.07309e-06
2.75229e-06
-2.19995e-06
7.4937e-08
1.86806e-06
2.12616e-07
2.72556e-06
4.20019e-07
3.4348e-06
6.91472e-07
4.17989e-06
9.91823e-07
4.98795e-06
1.27716e-06
5.83343e-06
1.54882e-06
6.73027e-06
1.80881e-06
7.71789e-06
2.04342e-06
8.82184e-06
2.24747e-06
1.00477e-05
2.41385e-06
1.1408e-05
2.51193e-06
1.28935e-05
2.4946e-06
1.44731e-05
2.3177e-06
1.60956e-05
2.01625e-06
1.47326e-05
1.60324e-06
1.42667e-05
1.11575e-06
1.38699e-05
5.97424e-07
1.35475e-05
9.60206e-08
1.32988e-05
-3.64538e-07
1.31184e-05
-7.73155e-07
1.29857e-05
-1.08678e-06
1.177e-05
-1.31109e-06
1.05187e-05
-1.4668e-06
9.40662e-06
-1.57314e-06
8.41113e-06
-1.64415e-06
7.51774e-06
-1.6892e-06
6.71646e-06
-1.71476e-06
5.99909e-06
-1.72526e-06
5.35784e-06
-1.72412e-06
4.7855e-06
-1.71416e-06
4.27481e-06
-1.6978e-06
3.81937e-06
-1.67709e-06
3.41375e-06
-1.6538e-06
3.05234e-06
2.73097e-06
-1.63018e-06
-1.07793e-08
1.88026e-06
1.183e-08
2.70457e-06
7.89342e-08
3.36955e-06
2.00274e-07
4.06067e-06
3.693e-07
4.82135e-06
5.38294e-07
5.66721e-06
6.82077e-07
6.58967e-06
8.16739e-07
7.58687e-06
9.51201e-07
8.69154e-06
1.07986e-06
9.92377e-06
1.20744e-06
1.12858e-05
1.32668e-06
1.27805e-05
1.39511e-06
1.44118e-05
1.34135e-06
1.61574e-05
1.16127e-06
1.49202e-05
8.89383e-07
1.45461e-05
5.50655e-07
1.42162e-05
1.73751e-07
1.39319e-05
-2.10581e-07
1.36907e-05
-5.7444e-07
1.34899e-05
-9.03844e-07
1.33228e-05
-1.1666e-06
1.204e-05
-1.36606e-06
1.07247e-05
-1.51317e-06
9.55981e-06
-1.61951e-06
8.52304e-06
-1.69522e-06
7.59855e-06
-1.74727e-06
6.77318e-06
-1.78115e-06
6.03722e-06
-1.80181e-06
5.38239e-06
-1.81287e-06
4.8001e-06
-1.81733e-06
4.2825e-06
-1.81758e-06
3.82254e-06
-1.81497e-06
3.41381e-06
-1.81063e-06
3.0504e-06
2.72697e-06
-1.80444e-06
1.65801e-08
1.86516e-06
3.79819e-08
2.68487e-06
7.44281e-08
3.33505e-06
1.34441e-07
4.00289e-06
2.23288e-07
4.73505e-06
3.40005e-07
5.55342e-06
4.67404e-07
6.46562e-06
5.88444e-07
7.46967e-06
7.03198e-07
8.58118e-06
8.11645e-07
9.82034e-06
9.09318e-07
1.11939e-05
9.85528e-07
1.27108e-05
1.02325e-06
1.43815e-05
9.81436e-07
1.62076e-05
8.48102e-07
1.50615e-05
6.37506e-07
1.47646e-05
3.69882e-07
1.44916e-05
6.53498e-08
1.42442e-05
-2.56796e-07
1.40207e-05
-5.76823e-07
1.38178e-05
-8.77229e-07
1.36311e-05
-1.12392e-06
1.2294e-05
-1.31721e-06
1.09247e-05
-1.46512e-06
9.71377e-06
-1.57623e-06
8.63968e-06
-1.65856e-06
7.68591e-06
-1.71832e-06
6.83753e-06
-1.7605e-06
6.08358e-06
-1.78953e-06
5.41522e-06
-1.80889e-06
4.82292e-06
-1.82119e-06
4.29793e-06
-1.82831e-06
3.8325e-06
-1.83158e-06
3.41966e-06
-1.83206e-06
3.05321e-06
2.72786e-06
-1.83082e-06
-8.72565e-09
1.8754e-06
-1.06249e-08
2.68849e-06
-2.46295e-09
3.32886e-06
1.95393e-08
3.98314e-06
5.99625e-08
4.69721e-06
1.21757e-07
5.49458e-06
1.99726e-07
6.39104e-06
2.74593e-07
7.39868e-06
3.42558e-07
8.51766e-06
4.12073e-07
9.7559e-06
4.76982e-07
1.11348e-05
5.20245e-07
1.26741e-05
5.27218e-07
1.43821e-05
4.75511e-07
1.62679e-05
3.62064e-07
1.5183e-05
1.90034e-07
1.49445e-05
-2.69853e-08
1.47165e-05
-2.75353e-07
1.45004e-05
-5.4174e-07
1.42948e-05
-8.12771e-07
1.40966e-05
-1.07565e-06
1.39018e-05
-1.29858e-06
1.25241e-05
-1.47894e-06
1.11116e-05
-1.62156e-06
9.86233e-06
-1.73243e-06
8.75594e-06
-1.81735e-06
7.77573e-06
-1.88265e-06
6.90729e-06
-1.93329e-06
6.13825e-06
-1.97223e-06
5.45784e-06
-2.00197e-06
4.85598e-06
-2.02451e-06
4.32349e-06
-2.04142e-06
3.85215e-06
-2.05392e-06
3.43463e-06
-2.06297e-06
3.0645e-06
2.73602e-06
-2.06911e-06
9.98453e-09
1.86692e-06
1.8111e-08
2.68209e-06
2.86412e-08
3.3203e-06
4.42995e-08
3.96975e-06
6.78792e-08
4.67623e-06
1.0154e-07
5.4639e-06
1.45697e-07
6.35029e-06
1.98786e-07
7.3495e-06
2.53375e-07
8.46754e-06
2.9992e-07
9.71447e-06
3.31029e-07
1.11095e-05
3.41923e-07
1.26699e-05
3.19863e-07
1.44117e-05
2.46599e-07
1.63497e-05
1.28671e-07
1.5309e-05
-3.31011e-08
1.51143e-05
-2.30689e-07
1.4922e-05
-4.54728e-07
1.47323e-05
-6.95668e-07
1.45436e-05
-9.43809e-07
1.43525e-05
-1.18928e-06
1.41551e-05
-1.40296e-06
1.27449e-05
-1.58103e-06
1.1296e-05
-1.72662e-06
1.00137e-05
-1.84408e-06
8.87868e-06
-1.93796e-06
7.87439e-06
-2.01269e-06
6.98635e-06
-2.07211e-06
6.2016e-06
-2.11908e-06
5.50838e-06
-2.15594e-06
4.89606e-06
-2.18458e-06
4.35505e-06
-2.20658e-06
3.87678e-06
-2.22321e-06
3.45365e-06
-2.23555e-06
3.07899e-06
2.74701e-06
-2.24459e-06
-6.67347e-09
1.87508e-06
-1.05135e-08
2.68763e-06
-1.1238e-08
3.32298e-06
-7.97882e-09
3.96872e-06
3.39171e-10
4.67047e-06
1.47395e-08
5.45243e-06
3.62093e-08
6.33218e-06
6.48436e-08
7.32471e-06
9.53166e-08
8.44147e-06
1.20175e-07
9.69464e-06
1.32984e-07
1.11024e-05
1.26449e-07
1.2683e-05
8.9583e-08
1.4456e-05
7.67491e-09
1.64401e-05
-1.08719e-07
1.54333e-05
-2.5999e-07
1.52734e-05
-4.41049e-07
1.51108e-05
-6.45681e-07
1.49446e-05
-8.67139e-07
1.47727e-05
-1.09826e-06
1.45912e-05
-1.33152e-06
1.43959e-05
-1.5398e-06
1.29601e-05
-1.71846e-06
1.1481e-05
-1.86912e-06
1.01701e-05
-1.99467e-06
9.00935e-06
-2.09841e-06
7.98275e-06
-2.18356e-06
7.07569e-06
-2.25308e-06
6.2749e-06
-2.30952e-06
5.56824e-06
-2.35505e-06
4.94469e-06
-2.39155e-06
4.39434e-06
-2.42058e-06
3.90833e-06
-2.44347e-06
3.47882e-06
-2.46133e-06
3.09891e-06
-2.475e-06
2.76254e-06
0.000421483
2.63407e-05
0.000407244
2.78282e-05
0.000392198
2.82777e-05
0.000376351
2.86782e-05
0.000359693
2.90412e-05
0.00034221
2.9374e-05
0.000323868
2.96866e-05
0.000304616
2.99986e-05
0.00028436
3.03465e-05
0.000262945
3.07913e-05
0.000240192
3.13914e-05
0.000216867
3.14534e-05
0.0001952
2.97882e-05
0.000175084
2.83752e-05
0.000156283
2.7214e-05
0.000138656
2.62076e-05
0.000122125
2.5287e-05
0.000106677
2.43897e-05
9.23536e-05
2.34549e-05
7.92549e-05
2.24214e-05
6.75366e-05
2.12307e-05
2.04982e-05
5.6102e-05
0.000937203
6.72202e-05
0.000896257
6.89294e-05
0.000853912
7.07682e-05
0.000810584
7.21375e-05
0.000766619
7.31238e-05
0.000722358
7.37392e-05
0.000678134
7.40002e-05
0.000634289
7.392e-05
0.00059117
7.35319e-05
0.000549067
7.29543e-05
0.000508109
7.24065e-05
0.000468163
7.14523e-05
0.000429031
6.89676e-05
0.000390357
6.70936e-05
0.000352067
6.55458e-05
0.000314118
6.41956e-05
0.000276498
6.29454e-05
0.00023922
6.17053e-05
0.000202315
6.03963e-05
0.000165828
5.89435e-05
0.000129815
5.72785e-05
5.47854e-05
9.55632e-05
-0.000125924
4.2016e-05
-0.000103468
4.66176e-05
-8.26466e-05
5.00865e-05
-6.37392e-05
5.33714e-05
-4.69795e-05
5.65055e-05
-3.25517e-05
5.94412e-05
-2.05737e-05
6.21231e-05
-1.10732e-05
6.45135e-05
-4.05689e-06
6.66372e-05
3.90584e-07
6.8622e-05
2.30475e-06
7.0606e-05
2.46712e-06
7.14021e-05
2.72161e-06
6.8817e-05
3.49689e-06
6.64162e-05
4.92289e-06
6.42255e-05
7.05504e-06
6.2151e-05
9.97344e-06
6.01118e-05
1.37008e-05
5.80603e-05
1.82168e-05
5.59591e-05
2.3463e-05
5.37733e-05
2.93321e-05
5.14826e-05
4.95881e-05
3.46004e-05
-8.50796e-05
4.27729e-05
-8.08994e-05
4.22431e-05
-7.356e-05
4.25632e-05
-6.35505e-05
4.31934e-05
-5.13213e-05
4.41176e-05
-3.73086e-05
4.52914e-05
-2.19923e-05
4.66701e-05
-5.85395e-06
4.82395e-05
1.07424e-05
5.0041e-05
2.71334e-05
5.21308e-05
4.30928e-05
5.45969e-05
5.75067e-05
5.69647e-05
6.84102e-05
5.79006e-05
7.59243e-05
5.89021e-05
8.03754e-05
5.97851e-05
8.20512e-05
6.04975e-05
8.11825e-05
6.10122e-05
7.79555e-05
6.13279e-05
7.25157e-05
6.14455e-05
6.49869e-05
6.13539e-05
5.54829e-05
6.10416e-05
6.00443e-05
4.50843e-05
-0.000412259
2.263e-05
-0.000394044
2.413e-05
-0.000376595
2.52129e-05
-0.000359695
2.639e-05
-0.000343165
2.76861e-05
-0.000326918
2.91334e-05
-0.000310942
3.0769e-05
-0.000295262
3.26197e-05
-0.000279886
3.47167e-05
-0.000264822
3.71066e-05
-0.000250015
3.98206e-05
-0.000235126
4.20937e-05
-0.000219616
4.23971e-05
-0.000203395
4.26777e-05
-0.000186553
4.29319e-05
-0.000169179
4.31042e-05
-0.00015135
4.31586e-05
-0.000133123
4.30721e-05
-0.000114545
4.28359e-05
-9.56734e-05
4.24494e-05
-7.65708e-05
4.19057e-05
4.15188e-05
-5.80786e-05
-0.000129373
2.51474e-05
-0.000130929
2.56632e-05
-0.000132252
2.65113e-05
-0.000133218
2.73304e-05
-0.000133691
2.81319e-05
-0.000133532
2.8945e-05
-0.000132592
2.97991e-05
-0.000130719
3.07162e-05
-0.000127752
3.1719e-05
-0.000123518
3.28405e-05
-0.000117863
3.41349e-05
-0.00011108
3.52817e-05
-0.000104171
3.54625e-05
-9.7248e-05
3.57307e-05
-9.03328e-05
3.59942e-05
-8.34728e-05
3.6223e-05
-7.6731e-05
3.63966e-05
-7.01791e-05
3.65031e-05
-6.38887e-05
3.6533e-05
-5.7927e-05
3.64775e-05
-5.23618e-05
3.63305e-05
3.58725e-05
-4.67255e-05
-0.000243876
1.45414e-05
-0.000234018
1.58355e-05
-0.000224336
1.68605e-05
-0.000214859
1.78857e-05
-0.000205604
1.89107e-05
-0.000196564
1.9938e-05
-0.000187717
2.09853e-05
-0.00017905
2.20827e-05
-0.000170563
2.32647e-05
-0.00016226
2.457e-05
-0.000154123
2.60305e-05