/*--------------------------------*- C++ -*----------------------------------*\
  =========                 |
  \\      /  F ield         | OpenFOAM: The Open Source CFD Toolbox
   \\    /   O peration     | Website:  https://openfoam.org
    \\  /    A nd           | Version:  8
     \\/     M anipulation  |
\*---------------------------------------------------------------------------*/
FoamFile
{
    version     2.0;
    format      ascii;
    class       volScalarField;
    location    "1500";
    object      k;
}
// * * * * * * * * * * * * * * * * * * * * * * * * * * * * * * * * * * * * * //

dimensions      [0 2 -2 0 0 0 0];

internalField   nonuniform List<scalar> 
15677
(
0.991117
0.87833
0.495836
0.398731
0.38043
0.375727
0.374331
0.373838
0.373577
0.373422
0.37333
0.373281
0.373257
0.373247
0.373245
0.373243
0.373242
0.373241
0.37324
0.373239
0.373239
0.373238
0.373238
0.373238
0.373238
0.373238
0.373238
0.373238
0.373238
0.373238
0.373238
0.373238
0.373239
0.373239
0.373239
1.19158
0.830651
0.479789
0.386787
0.3726
0.37044
0.370025
0.369926
0.369988
0.370042
0.370045
0.370013
0.369972
0.369936
0.369916
0.369906
0.369902
0.369899
0.369898
0.369896
0.369895
0.369894
0.369893
0.369893
0.369892
0.369892
0.369891
0.369891
0.369891
0.369891
0.36989
0.36989
0.36989
0.36989
0.36989
1.13849
0.693079
0.41431
0.358537
0.355676
0.359198
0.362047
0.364004
0.365276
0.366074
0.36654
0.36677
0.366847
0.366847
0.366823
0.366803
0.366789
0.36678
0.366773
0.366769
0.366765
0.366763
0.366761
0.36676
0.366759
0.366758
0.366758
0.366757
0.366757
0.366757
0.366757
0.366757
0.366757
0.366757
0.366757
1.04253
0.659391
0.359186
0.317485
0.329866
0.342603
0.350922
0.356113
0.359363
0.361406
0.362667
0.3634
0.363772
0.363917
0.363942
0.363932
0.363917
0.363905
0.363896
0.363889
0.363884
0.363879
0.363876
0.363873
0.363871
0.363869
0.363867
0.363866
0.363865
0.363864
0.363864
0.363863
0.363862
0.363862
0.363861
0.97765
0.668389
0.358555
0.295972
0.309228
0.326911
0.339383
0.347549
0.35285
0.356296
0.358515
0.359895
0.360687
0.361076
0.361205
0.361231
0.361223
0.361207
0.361193
0.361181
0.361172
0.361165
0.36116
0.361156
0.361153
0.361151
0.361149
0.361147
0.361146
0.361145
0.361144
0.361144
0.361143
0.361143
0.361143
0.936166
0.691832
0.368879
0.283168
0.292378
0.312646
0.328229
0.338955
0.346181
0.351025
0.354246
0.356336
0.357617
0.358321
0.358614
0.358713
0.358735
0.358728
0.358715
0.358701
0.358688
0.358678
0.358669
0.358663
0.358657
0.358653
0.358649
0.358646
0.358643
0.358641
0.35864
0.358638
0.358637
0.358635
0.358634
0.910305
0.716499
0.39242
0.284189
0.281981
0.300813
0.318035
0.330683
0.339574
0.34573
0.349943
0.352764
0.354569
0.35563
0.356118
0.356313
0.356376
0.356383
0.35637
0.356353
0.356336
0.356323
0.356312
0.356303
0.356296
0.356291
0.356286
0.356282
0.356279
0.356277
0.356275
0.356273
0.356272
0.356271
0.35627
0.892564
0.732681
0.424038
0.289423
0.275524
0.291592
0.309246
0.323127
0.333314
0.340603
0.345731
0.34926
0.351596
0.353038
0.353756
0.354077
0.354207
0.354245
0.354244
0.354228
0.354208
0.35419
0.354174
0.354161
0.35415
0.354141
0.354133
0.354127
0.354122
0.354117
0.354114
0.35411
0.354108
0.354105
0.354103
0.880408
0.744041
0.456344
0.300446
0.272409
0.284344
0.301625
0.31626
0.327454
0.335708
0.341663
0.345861
0.348715
0.350539
0.351491
0.351943
0.352139
0.352208
0.352217
0.352203
0.352181
0.352159
0.35214
0.352123
0.35211
0.352099
0.352089
0.352082
0.352076
0.352071
0.352067
0.352064
0.352061
0.352059
0.352057
0.870776
0.747498
0.484108
0.315595
0.272856
0.279334
0.295352
0.31021
0.322096
0.331132
0.337812
0.342623
0.345972
0.348176
0.34938
0.349988
0.350279
0.350399
0.350432
0.350424
0.3504
0.350371
0.350345
0.350323
0.350303
0.350287
0.350273
0.350262
0.350252
0.350244
0.350238
0.350233
0.350228
0.350224
0.35022
0.864004
0.750056
0.508146
0.331909
0.27459
0.275741
0.290136
0.304911
0.317246
0.326899
0.334201
0.33957
0.343385
0.345956
0.347398
0.348145
0.348513
0.348672
0.348724
0.348723
0.348699
0.348668
0.348637
0.34861
0.348587
0.348567
0.34855
0.348537
0.348526
0.348518
0.348511
0.348506
0.348502
0.348499
0.348496
0.859914
0.751215
0.527853
0.348029
0.278135
0.273346
0.285876
0.300319
0.312916
0.323051
0.330883
0.336751
0.340994
0.343916
0.34561
0.346531
0.347017
0.347246
0.347331
0.34734
0.347314
0.347275
0.347235
0.3472
0.347169
0.347142
0.34712
0.347101
0.347086
0.347074
0.347065
0.347057
0.34705
0.347044
0.347039
0.858207
0.751291
0.544164
0.363595
0.282937
0.271941
0.28245
0.296381
0.309084
0.31958
0.327861
0.334178
0.338831
0.342099
0.344022
0.345073
0.345629
0.345897
0.346006
0.34603
0.34601
0.345969
0.345924
0.345882
0.345846
0.345814
0.345789
0.345768
0.345752
0.34574
0.345731
0.345724
0.345718
0.345714
0.345709
0.858614
0.751126
0.556384
0.377667
0.288256
0.27138
0.279705
0.293026
0.305743
0.316522
0.325191
0.331914
0.336938
0.340513
0.342683
0.343936
0.344644
0.345007
0.345157
0.345191
0.345166
0.345117
0.345064
0.345014
0.34497
0.344932
0.3449
0.344874
0.344854
0.344839
0.344827
0.344818
0.344811
0.344804
0.344798
0.860404
0.751035
0.5662
0.390033
0.293757
0.271503
0.277589
0.290217
0.302867
0.31386
0.322863
0.329955
0.335349
0.33929
0.341698
0.343048
0.343796
0.344185
0.344374
0.344442
0.344435
0.344389
0.344331
0.344275
0.344224
0.344182
0.344148
0.344123
0.344105
0.344092
0.344084
0.344077
0.344072
0.344066
0.344061
0.86427
0.750833
0.572758
0.400237
0.299174
0.271919
0.275952
0.287895
0.300456
0.311631
0.320945
0.328414
0.334171
0.338345
0.340982
0.342623
0.343603
0.344145
0.344396
0.344483
0.344486
0.344444
0.344388
0.344332
0.344282
0.344241
0.344209
0.344186
0.34417
0.34416
0.344154
0.344151
0.344148
0.344145
0.344144
0.870486
0.750869
0.578084
0.40846
0.303928
0.27268
0.274738
0.286044
0.298492
0.309828
0.319456
0.327245
0.333307
0.338008
0.341023
0.342783
0.34384
0.344437
0.344737
0.344859
0.344883
0.344853
0.344805
0.344755
0.344712
0.344677
0.344652
0.344636
0.344627
0.344625
0.344626
0.344629
0.344632
0.344633
0.344634
0.87869
0.750936
0.58115
0.414987
0.308279
0.273746
0.273909
0.284584
0.296989
0.308516
0.318394
0.326602
0.333269
0.338218
0.341416
0.343361
0.344548
0.345242
0.345618
0.345796
0.345857
0.345856
0.34583
0.345799
0.345772
0.345754
0.345747
0.345747
0.345755
0.345768
0.345784
0.3458
0.345814
0.345823
0.345834
0.888865
0.750891
0.583132
0.419689
0.311778
0.274774
0.273412
0.283631
0.295933
0.307607
0.31798
0.326691
0.333603
0.33889
0.342376
0.344586
0.345992
0.346853
0.347357
0.347631
0.347763
0.347817
0.347836
0.347844
0.347854
0.347871
0.347898
0.347932
0.347972
0.348015
0.348057
0.348097
0.348132
0.348158
0.348186
0.900998
0.750914
0.583376
0.422861
0.314704
0.275859
0.273251
0.282916
0.295355
0.307478
0.318165
0.327176
0.334494
0.340284
0.344232
0.346782
0.348438
0.349497
0.350161
0.350567
0.350814
0.350967
0.351072
0.35116
0.351245
0.351333
0.351427
0.351524
0.351622
0.351718
0.351808
0.351891
0.351965
0.352025
0.352086
0.915044
0.75101
0.58303
0.424929
0.316858
0.276868
0.273373
0.282924
0.295444
0.307747
0.318786
0.328273
0.33624
0.342639
0.347066
0.349996
0.351968
0.35329
0.354177
0.35478
0.355206
0.355523
0.355777
0.356004
0.356219
0.35643
0.356638
0.356841
0.357037
0.357221
0.357391
0.357546
0.357684
0.357801
0.357916
0.930941
0.751197
0.582119
0.425522
0.318502
0.277869
0.273699
0.283143
0.295839
0.308482
0.320085
0.330292
0.338926
0.345987
0.350993
0.354396
0.356771
0.358442
0.35964
0.360528
0.361228
0.361802
0.362297
0.362748
0.363175
0.363586
0.36398
0.364355
0.364709
0.365037
0.365339
0.365612
0.365856
0.366067
0.366272
0.948595
0.751447
0.580345
0.425232
0.319458
0.278816
0.274318
0.283693
0.296703
0.309925
0.322226
0.33317
0.342592
0.350447
0.356157
0.360149
0.363042
0.365176
0.366801
0.3681
0.369203
0.370173
0.371042
0.371848
0.372611
0.373337
0.374026
0.374674
0.375278
0.375834
0.376344
0.376806
0.37722
0.377587
0.377934
0.967866
0.751758
0.577993
0.424428
0.320038
0.279766
0.275211
0.284764
0.29825
0.312113
0.325183
0.336995
0.347345
0.356147
0.362712
0.367438
0.37099
0.373734
0.375944
0.37782
0.379511
0.381067
0.382499
0.383843
0.385117
0.386326
0.387467
0.388535
0.389528
0.390442
0.391278
0.39204
0.392728
0.393344
0.393918
0.988649
0.75217
0.575237
0.422856
0.320181
0.280718
0.276365
0.286293
0.300371
0.315006
0.328987
0.341818
0.353259
0.363189
0.370788
0.376422
0.38081
0.38435
0.387349
0.390026
0.39255
0.394953
0.397213
0.399359
0.401404
0.403345
0.405175
0.406887
0.408477
0.409943
0.411289
0.412521
0.41364
0.414655
0.415583
1.01076
0.752682
0.57214
0.420703
0.320089
0.281746
0.277819
0.288297
0.303112
0.318659
0.333702
0.347717
0.360433
0.371693
0.380537
0.387284
0.392722
0.3973
0.40135
0.405124
0.408817
0.412439
0.415906
0.419225
0.422399
0.42542
0.428274
0.430951
0.433444
0.435753
0.437885
0.439847
0.441646
0.443295
0.44478
1.03409
0.753303
0.568797
0.418177
0.319852
0.282861
0.279554
0.290751
0.306453
0.323063
0.33933
0.354708
0.368898
0.381718
0.392042
0.400139
0.406893
0.4128
0.418232
0.42348
0.428775
0.434087
0.439248
0.444246
0.44907
0.453693
0.458085
0.462225
0.466102
0.469717
0.473076
0.47619
0.479068
0.48173
0.484091
1.05839
0.754031
0.565292
0.415376
0.319479
0.284129
0.281603
0.293688
0.310431
0.32826
0.345923
0.362856
0.37874
0.393374
0.405444
0.415173
0.423569
0.43117
0.438407
0.445629
0.453124
0.460824
0.468437
0.475893
0.483134
0.490102
0.496756
0.503069
0.509028
0.514627
0.519872
0.524772
0.529337
0.533599
0.537339
1.08361
0.754872
0.561666
0.412389
0.319029
0.285523
0.283948
0.297077
0.315006
0.33421
0.353441
0.372126
0.38993
0.406634
0.420737
0.432427
0.442826
0.452546
0.462098
0.47191
0.48235
0.493275
0.504203
0.515007
0.525631
0.536013
0.546083
0.555771
0.565024
0.573815
0.582141
0.59001
0.597441
0.604478
0.610652
1.1094
0.755818
0.558023
0.409302
0.318635
0.28712
0.286603
0.300936
0.3202
0.34094
0.36192
0.382568
0.402542
0.421605
0.438078
0.452121
0.464977
0.477368
0.489915
0.503157
0.517585
0.533024
0.548838
0.56485
0.580891
0.596743
0.612221
0.627225
0.641731
0.655752
0.669311
0.682419
0.695094
0.707359
0.718209
0.373243
0.37325
0.373258
0.373266
0.373274
0.373282
0.373291
0.3733
0.373309
0.373318
0.373328
0.373337
0.373347
0.373356
0.373365
0.373374
0.373382
0.373391
0.373399
0.373406
0.373414
0.373421
0.3699
0.36992
0.369942
0.369963
0.369986
0.370009
0.370032
0.370057
0.370082
0.370107
0.370134
0.370161
0.370187
0.370213
0.370239
0.370263
0.370287
0.370311
0.370333
0.370355
0.370377
0.370398
0.366773
0.366807
0.366842
0.366878
0.366914
0.366952
0.36699
0.36703
0.367071
0.367113
0.367155
0.367199
0.367243
0.367285
0.367325
0.367365
0.367404
0.367441
0.367478
0.367513
0.367547
0.36758
0.363883
0.363927
0.363973
0.36402
0.364068
0.364117
0.364168
0.36422
0.364274
0.364329
0.364386
0.364443
0.364501
0.364557
0.364611
0.364664
0.364716
0.364766
0.364815
0.364862
0.364908
0.364953
0.36117
0.361225
0.361282
0.36134
0.3614
0.361462
0.361526
0.361591
0.361658
0.361727
0.361797
0.36187
0.361941
0.362011
0.362078
0.362144
0.362208
0.36227
0.36233
0.362389
0.362446
0.362501
0.358665
0.358728
0.358793
0.35886
0.358929
0.359
0.359073
0.359148
0.359226
0.359305
0.359387
0.359471
0.359554
0.359635
0.359714
0.359791
0.359865
0.359938
0.360009
0.360078
0.360144
0.36021
0.356305
0.356378
0.356452
0.356529
0.356608
0.356689
0.356773
0.356859
0.356948
0.357039
0.357133
0.357228
0.357323
0.357416
0.357505
0.357593
0.357678
0.35776
0.357841
0.357919
0.357995
0.358068
0.35414
0.354218
0.354299
0.354381
0.354466
0.354554
0.354644
0.354737
0.354833
0.354932
0.355034
0.355138
0.355242
0.355343
0.355442
0.355539
0.355633
0.355724
0.355813
0.3559
0.355985
0.356067
0.352098
0.352183
0.35227
0.35236
0.352453
0.352549
0.352648
0.35275
0.352855
0.352964
0.353075
0.353189
0.353303
0.353413
0.35352
0.353625
0.353727
0.353826
0.353923
0.354017
0.354108
0.354197
0.350261
0.350348
0.350437
0.350528
0.350623
0.350721
0.350822
0.350926
0.351034
0.351145
0.351261
0.35138
0.351499
0.351615
0.35173
0.351841
0.35195
0.352056
0.35216
0.352261
0.352359
0.352455
0.348538
0.348628
0.34872
0.348815
0.348914
0.349017
0.349124
0.349234
0.349349
0.349467
0.349589
0.349715
0.349839
0.349961
0.350079
0.350195
0.350308
0.350418
0.350526
0.350632
0.350735
0.350836
0.347077
0.347161
0.347247
0.347336
0.347428
0.347524
0.347623
0.347726
0.347834
0.347947
0.348066
0.348189
0.348314
0.348437
0.348559
0.348679
0.348796
0.348911
0.349023
0.349132
0.349239
0.349343
0.345746
0.345823
0.345902
0.345986
0.346076
0.346171
0.346272
0.346378
0.346489
0.346604
0.346723
0.346845
0.346967
0.347086
0.347203
0.347318
0.347432
0.347544
0.347655
0.347765
0.347872
0.347979
0.344824
0.344882
0.344939
0.344999
0.345062
0.345127
0.345197
0.345272
0.345354
0.345444
0.345544
0.345653
0.345767
0.345883
0.345999
0.346114
0.346228
0.346339
0.346448
0.346554
0.346658
0.346761
0.34407
0.344089
0.344114
0.344155
0.344209
0.344272
0.344343
0.344419
0.3445
0.344584
0.344669
0.344754
0.344839
0.344926
0.345013
0.345104
0.345198
0.345294
0.345392
0.345492
0.345593
0.345696
0.344132
0.344102
0.344054
0.344007
0.343966
0.343931
0.343907
0.343893
0.343892
0.343907
0.34395
0.344013
0.34409
0.344173
0.344258
0.344343
0.344426
0.344507
0.344585
0.344662
0.344739
0.344822
0.344594
0.344495
0.344388
0.344293
0.344205
0.344126
0.344057
0.343999
0.343952
0.343913
0.343866
0.343823
0.343793
0.343778
0.343778
0.343793
0.343826
0.343878
0.343941
0.34401
0.344083
0.344166
0.345753
0.345549
0.345335
0.345141
0.344961
0.344793
0.344636
0.344493
0.344361
0.344239
0.344131
0.344034
0.343955
0.343894
0.343849
0.343817
0.343787
0.343757
0.343736
0.343724
0.343724
0.343747
0.348036
0.347655
0.347254
0.346886
0.34654
0.346214
0.345907
0.345624
0.345359
0.345113
0.344888
0.344685
0.344508
0.344357
0.344229
0.344121
0.34403
0.343955
0.343894
0.343844
0.343809
0.343802
0.351853
0.35123
0.350581
0.349976
0.349399
0.348845
0.348313
0.347801
0.347314
0.346856
0.346428
0.346034
0.345683
0.345378
0.345117
0.344892
0.3447
0.344535
0.344394
0.344272
0.344171
0.344113
0.357572
0.356609
0.355612
0.354676
0.353778
0.352912
0.352077
0.351273
0.350502
0.349767
0.34907
0.348418
0.347826
0.347299
0.346827
0.346409
0.346041
0.34572
0.345438
0.34519
0.344977
0.344832
0.365787
0.364349
0.36287
0.361478
0.360137
0.358839
0.357583
0.35637
0.355203
0.354083
0.353014
0.352006
0.351084
0.350258
0.349518
0.348855
0.348265
0.347739
0.347272
0.346854
0.346486
0.346208
0.377273
0.375178
0.373039
0.371021
0.369072
0.36718
0.365346
0.36357
0.361854
0.360204
0.358623
0.357126
0.355752
0.354516
0.353405
0.352407
0.351511
0.350708
0.349989
0.349343
0.348768
0.348321
0.393045
0.390044
0.387007
0.384137
0.381358
0.378656
0.376031
0.373484
0.37102
0.368644
0.366363
0.364199
0.362208
0.360414
0.358797
0.357342
0.356032
0.354855
0.353797
0.352843
0.35199
0.351315
0.414462
0.410215
0.405957
0.401926
0.398016
0.39421
0.390506
0.386908
0.383423
0.380059
0.376826
0.373756
0.370928
0.368378
0.366079
0.364007
0.36214
0.360459
0.358947
0.357582
0.35636
0.355378
0.44335
0.437391
0.431476
0.425865
0.420416
0.415105
0.409931
0.404901
0.400025
0.395316
0.390788
0.386486
0.382525
0.378954
0.375734
0.372834
0.370221
0.367869
0.365753
0.363843
0.362132
0.360742
0.482299
0.473953
0.465767
0.457982
0.450412
0.44303
0.435839
0.428848
0.422075
0.415536
0.409252
0.403285
0.397792
0.392842
0.388383
0.38437
0.380759
0.377512
0.374593
0.371963
0.369607
0.367674
0.535095
0.523314
0.511983
0.501209
0.490716
0.480469
0.470477
0.460762
0.451352
0.442278
0.433572
0.425323
0.417749
0.410939
0.404819
0.399319
0.394378
0.389942
0.38596
0.382378
0.379174
0.376527
0.607875
0.590601
0.574499
0.559387
0.544781
0.530575
0.516749
0.503316
0.490306
0.477758
0.465714
0.454304
0.443842
0.434461
0.426062
0.418547
0.411823
0.405808
0.400425
0.395596
0.391279
0.387679
0.714893
0.687939
0.663254
0.640481
0.618931
0.598379
0.578718
0.559889
0.541854
0.524594
0.508105
0.492507
0.478189
0.465325
0.453796
0.443489
0.434298
0.426114
0.418835
0.412346
0.406577
0.40176
0.373425
0.373425
0.373425
0.373425
0.373425
0.373425
0.370408
0.370408
0.370408
0.370408
0.370408
0.370408
0.367597
0.367597
0.367597
0.367597
0.367597
0.367597
0.364975
0.364975
0.364975
0.364975
0.364975
0.364975
0.362528
0.362528
0.362528
0.362528
0.362528
0.362528
0.360242
0.360242
0.360242
0.360242
0.360242
0.360242
0.358105
0.358105
0.358105
0.358105
0.358105
0.358105
0.356107
0.356107
0.356107
0.356107
0.356107
0.356107
0.354241
0.354241
0.354241
0.354241
0.354241
0.354241
0.352502
0.352501
0.352501
0.352501
0.352501
0.352501
0.350885
0.350884
0.350884
0.350884
0.350884
0.350885
0.349394
0.349392
0.349391
0.349391
0.349391
0.349393
0.348032
0.34803
0.34803
0.348029
0.348029
0.34803
0.34681
0.346803
0.346802
0.346802
0.346802
0.346808
0.345747
0.345743
0.345744
0.345744
0.345742
0.345745
0.344855
0.344839
0.344837
0.344836
0.344837
0.344851
0.344206
0.344196
0.344199
0.344198
0.344194
0.344202
0.343745
0.343717
0.343716
0.343714
0.343713
0.343738
0.343785
0.343752
0.343752
0.343751
0.343747
0.343777
0.344064
0.34402
0.344023
0.344021
0.344014
0.344054
0.344734
0.344672
0.344678
0.344676
0.344665
0.344721
0.346031
0.345944
0.345952
0.345948
0.345933
0.346013
0.348047
0.347933
0.347945
0.34794
0.34792
0.348025
0.350912
0.350762
0.350781
0.350775
0.350746
0.350883
0.354801
0.354608
0.354635
0.354628
0.354587
0.354765
0.359937
0.359693
0.359732
0.359723
0.359667
0.359892
0.366567
0.36626
0.366312
0.366302
0.366228
0.366512
0.375033
0.374658
0.374732
0.374718
0.374618
0.374966
0.385655
0.385187
0.385282
0.385266
0.38514
0.385575
0.39909
0.398509
0.398619
0.3986
0.398451
0.398993
0.373421
0.373414
0.373406
0.373398
0.37339
0.373382
0.373374
0.373365
0.373356
0.373347
0.373337
0.373328
0.373318
0.373309
0.3733
0.373291
0.373282
0.373274
0.373266
0.373258
0.37325
0.373243
0.370397
0.370376
0.370355
0.370333
0.37031
0.370286
0.370263
0.370238
0.370213
0.370187
0.37016
0.370134
0.370107
0.370081
0.370056
0.370031
0.370008
0.369985
0.369962
0.369941
0.36992
0.369899
0.36758
0.367547
0.367512
0.367476
0.36744
0.367402
0.367364
0.367324
0.367284
0.367242
0.367199
0.367155
0.367112
0.36707
0.367029
0.366989
0.36695
0.366913
0.366877
0.366841
0.366807
0.366773
0.364953
0.364908
0.364861
0.364813
0.364764
0.364714
0.364663
0.36461
0.364556
0.3645
0.364443
0.364386
0.364328
0.364273
0.364219
0.364166
0.364116
0.364066
0.364018
0.363972
0.363927
0.363883
0.362501
0.362445
0.362387
0.362328
0.362268
0.362205
0.362142
0.362076
0.362009
0.36194
0.361869
0.361797
0.361725
0.361656
0.361589
0.361523
0.361459
0.361398
0.361338
0.36128
0.361223
0.361169
0.360209
0.360143
0.360076
0.360007
0.359935
0.359863
0.359788
0.359711
0.359633
0.359553
0.35947
0.359387
0.359304
0.359224
0.359146
0.359071
0.358998
0.358927
0.358859
0.358792
0.358727
0.358665
0.358068
0.357993
0.357916
0.357838
0.357757
0.357674
0.357589
0.357502
0.357413
0.357321
0.357227
0.357132
0.357037
0.356944
0.356855
0.356768
0.356684
0.356603
0.356524
0.356447
0.356373
0.356301
0.356066
0.355983
0.355898
0.35581
0.355721
0.355629
0.355535
0.355439
0.35534
0.35524
0.355137
0.355032
0.354929
0.354829
0.354733
0.354639
0.354549
0.354461
0.354376
0.354294
0.354215
0.354138
0.354196
0.354106
0.354014
0.353919
0.353822
0.353722
0.35362
0.353516
0.353409
0.353299
0.353187
0.353072
0.352959
0.352849
0.352742
0.352639
0.352539
0.352443
0.352349
0.352259
0.352172
0.352088
0.352453
0.352356
0.352257
0.352155
0.352051
0.351945
0.351836
0.351724
0.35161
0.351494
0.351376
0.351256
0.351139
0.351025
0.350916
0.350811
0.350709
0.350611
0.350517
0.350426
0.350338
0.350254
0.350834
0.350732
0.350628
0.350521
0.350412
0.350302
0.350188
0.350073
0.349954
0.349833
0.349709
0.349583
0.349458
0.349337
0.34922
0.349108
0.348999
0.348894
0.348794
0.348698
0.348606
0.348518
0.349341
0.349235
0.349127
0.349017
0.348904
0.348789
0.348671
0.348551
0.348429
0.348305
0.34818
0.348055
0.347933
0.347817
0.347706
0.347601
0.347499
0.347403
0.34731
0.347222
0.347138
0.347057
0.347977
0.347868
0.347759
0.347648
0.347536
0.347423
0.347308
0.347193
0.347075
0.346956
0.346834
0.34671
0.346587
0.346468
0.346354
0.346244
0.346139
0.34604
0.345947
0.34586
0.34578
0.345704
0.346758
0.346652
0.346547
0.34644
0.34633
0.346218
0.346104
0.345987
0.34587
0.345753
0.345636
0.345523
0.345417
0.345321
0.345233
0.345153
0.345079
0.34501
0.344946
0.344886
0.344831
0.344777
0.345693
0.345587
0.345484
0.345383
0.345282
0.345184
0.345089
0.344997
0.344907
0.344819
0.344731
0.344642
0.344553
0.344464
0.344377
0.344295
0.344219
0.344149
0.344088
0.34404
0.344007
0.343985
0.344816
0.344731
0.344652
0.344573
0.344494
0.344412
0.344327
0.344241
0.344153
0.344067
0.343986
0.343913
0.34386
0.343832
0.343822
0.343825
0.343839
0.343863
0.343896
0.343937
0.343986
0.344022
0.34416
0.344074
0.343999
0.343928
0.343863
0.343808
0.343771
0.343752
0.343747
0.343755
0.343776
0.34381
0.34385
0.343881
0.343917
0.343962
0.344019
0.344085
0.344162
0.344248
0.344349
0.344446
0.343738
0.343712
0.343709
0.343718
0.343737
0.343764
0.343792
0.343819
0.343858
0.343911
0.343981
0.344065
0.344162
0.34427
0.344389
0.344518
0.344658
0.344811
0.344975
0.345154
0.345355
0.345551
0.343791
0.343795
0.343828
0.343874
0.343933
0.344004
0.34409
0.344193
0.344313
0.344453
0.344617
0.344805
0.345014
0.345244
0.34549
0.345753
0.346036
0.346338
0.34666
0.347003
0.347381
0.347747
0.344099
0.344154
0.344253
0.344371
0.344509
0.344669
0.344855
0.345072
0.345321
0.345611
0.345942
0.346314
0.346723
0.347159
0.347621
0.348107
0.348612
0.349135
0.349679
0.35025
0.350866
0.351462
0.344815
0.344955
0.345166
0.34541
0.345687
0.346002
0.346361
0.346768
0.347226
0.347733
0.348297
0.348922
0.349595
0.350304
0.351045
0.351816
0.352614
0.353439
0.354292
0.355181
0.356131
0.357054
0.346185
0.346459
0.346825
0.347238
0.3477
0.348218
0.348798
0.349445
0.350165
0.350964
0.351849
0.352823
0.353865
0.354953
0.356084
0.357254
0.358463
0.359707
0.360989
0.362317
0.36373
0.365108
0.348292
0.348735
0.349307
0.349949
0.350662
0.351455
0.352337
0.353316
0.3544
0.3556
0.356925
0.358379
0.359928
0.361541
0.363211
0.364935
0.36671
0.368532
0.370404
0.372337
0.374385
0.376396
0.351279
0.351951
0.3528
0.35375
0.3548
0.355965
0.357257
0.358688
0.360269
0.362016
0.363943
0.366053
0.368298
0.370629
0.373039
0.375522
0.378072
0.380687
0.383366
0.386125
0.389041
0.391924
0.355334
0.356313
0.357533
0.358892
0.360395
0.362061
0.363906
0.365946
0.368201
0.370689
0.373433
0.376435
0.379627
0.382939
0.386359
0.389879
0.39349
0.397187
0.400969
0.404856
0.408952
0.413037
0.360688
0.362076
0.363786
0.365691
0.367797
0.370131
0.372716
0.375576
0.378737
0.382229
0.386081
0.390298
0.39478
0.399429
0.404229
0.409164
0.414223
0.419397
0.424684
0.430109
0.435814
0.44156
0.367609
0.369542
0.3719
0.374526
0.377433
0.380659
0.384237
0.388198
0.392582
0.397428
0.40278
0.40864
0.414875
0.421344
0.428027
0.434903
0.441952
0.449162
0.456529
0.464078
0.471995
0.480064
0.37645
0.3791
0.38231
0.38589
0.389861
0.394273
0.399173
0.404607
0.410632
0.417307
0.424696
0.432811
0.441464
0.45046
0.459763
0.46934
0.479158
0.489191
0.499428
0.509903
0.520892
0.532317
0.387591
0.391199
0.395528
0.400359
0.405731
0.411717
0.418389
0.425821
0.434096
0.443301
0.453521
0.464761
0.476751
0.489213
0.502098
0.515362
0.528972
0.542909
0.557191
0.571929
0.587608
0.604447
0.401655
0.406485
0.41227
0.418763
0.426031
0.434181
0.443308
0.453509
0.464878
0.477511
0.491509
0.506891
0.523326
0.540489
0.558373
0.576995
0.596393
0.616623
0.637793
0.66014
0.684358
0.71085
0.373239
0.373239
0.373239
0.373238
0.373238
0.373238
0.373238
0.373237
0.373237
0.373237
0.373236
0.373236
0.373236
0.373237
0.373237
0.373238
0.373239
0.37324
0.373242
0.373244
0.373245
0.373248
0.373258
0.373282
0.373331
0.373423
0.373578
0.373838
0.37433
0.375724
0.380424
0.398722
0.495839
0.87848
0.991308
0.369889
0.36989
0.36989
0.36989
0.369891
0.369891
0.369892
0.369892
0.369893
0.369894
0.369894
0.369895
0.369896
0.369896
0.369897
0.369898
0.369899
0.3699
0.369902
0.369906
0.369915
0.369935
0.36997
0.370011
0.370043
0.370039
0.369985
0.369922
0.37002
0.370435
0.37259
0.386773
0.479789
0.83076
1.19169
0.366757
0.366757
0.366757
0.366757
0.366757
0.366757
0.366756
0.366757
0.366757
0.366757
0.366757
0.366758
0.36676
0.366762
0.366764
0.366768
0.366774
0.36678
0.36679
0.366805
0.366826
0.36685
0.36685
0.366774
0.366544
0.366078
0.365279
0.364005
0.362045
0.359193
0.355663
0.358516
0.414294
0.6931
1.13861
0.363862
0.363863
0.363864
0.363864
0.363866
0.363867
0.363868
0.36387
0.363871
0.363873
0.363875
0.363878
0.36388
0.363884
0.363888
0.363893
0.363899
0.363908
0.363919
0.363934
0.363943
0.363917
0.363772
0.3634
0.362665
0.361403
0.359358
0.356107
0.350913
0.34259
0.329849
0.317461
0.359167
0.659364
1.0427
0.361142
0.361142
0.361143
0.361143
0.361144
0.361144
0.361145
0.361146
0.361148
0.36115
0.361152
0.361156
0.36116
0.361165
0.361173
0.361183
0.361195
0.361211
0.361227
0.361236
0.361211
0.361082
0.360693
0.359901
0.358521
0.356302
0.352855
0.347553
0.339385
0.326909
0.309221
0.295958
0.358538
0.668347
0.977893
0.358635
0.358637
0.358638
0.35864
0.358643
0.358646
0.358648
0.358652
0.358655
0.35866
0.358664
0.35867
0.358677
0.358685
0.358695
0.358707
0.35872
0.358733
0.358739
0.358717
0.358617
0.358324
0.357618
0.356336
0.354245
0.351023
0.346177
0.33895
0.328223
0.31264
0.292373
0.283156
0.368856
0.691823
0.936519
0.356267
0.356268
0.356269
0.356271
0.356273
0.356275
0.356278
0.356282
0.356286
0.356291
0.356297
0.356304
0.356313
0.356325
0.356339
0.356356
0.356375
0.356388
0.356383
0.356321
0.356127
0.355638
0.354577
0.352772
0.349952
0.345739
0.339582
0.330692
0.318043
0.300819
0.281979
0.284169
0.392334
0.716313
0.910674
0.354102
0.354106
0.35411
0.354114
0.354119
0.354124
0.35413
0.354136
0.354143
0.354151
0.35416
0.35417
0.354183
0.354198
0.354216
0.354235
0.35425
0.354251
0.354212
0.354082
0.35376
0.353042
0.351599
0.349262
0.345731
0.340602
0.333312
0.323124
0.309243
0.29159
0.275517
0.289399
0.424045
0.732724
0.893065
0.352049
0.352052
0.352055
0.352059
0.352064
0.35207
0.352076
0.352084
0.352092
0.352102
0.352113
0.352127
0.352143
0.352162
0.352184
0.352207
0.352222
0.352214
0.352147
0.351952
0.351501
0.350549
0.348725
0.345871
0.341673
0.335719
0.327465
0.316271
0.301635
0.284348
0.272392
0.300407
0.456269
0.743919
0.880939
0.350216
0.350222
0.350229
0.350237
0.350246
0.350256
0.350266
0.350278
0.350289
0.350303
0.350318
0.350335
0.350356
0.350381
0.350408
0.350431
0.350437
0.350403
0.350282
0.34999
0.349383
0.348179
0.345974
0.342624
0.337811
0.33113
0.322092
0.310204
0.295343
0.27932
0.27283
0.315532
0.484026
0.747483
0.871373
0.348478
0.348483
0.348491
0.348499
0.348509
0.34852
0.348533
0.348546
0.348561
0.348578
0.348598
0.34862
0.348644
0.348672
0.348701
0.348724
0.348725
0.348676
0.348519
0.348152
0.347406
0.345964
0.343392
0.339577
0.334208
0.326907
0.317254
0.304918
0.290138
0.27573
0.274549
0.33183
0.50807
0.750075
0.864658
0.347024
0.347034
0.347047
0.347061
0.347077
0.347093
0.34711
0.347128
0.347147
0.347168
0.347191
0.347218
0.347249
0.347283
0.347319
0.347342
0.34733
0.347243
0.347012
0.346526
0.345606
0.343913
0.340991
0.336745
0.330877
0.323042
0.312904
0.300303
0.285852
0.273306
0.278065
0.347923
0.527771
0.751264
0.860621
0.345672
0.345682
0.345695
0.34571
0.345728
0.345748
0.34577
0.345793
0.345818
0.345845
0.345874
0.345905
0.345939
0.345975
0.346007
0.346022
0.345996
0.345889
0.345625
0.345071
0.344021
0.342096
0.338828
0.334174
0.327858
0.319577
0.309079
0.296372
0.28243
0.271899
0.282857
0.36349
0.544099
0.751348
0.858919
0.344758
0.344774
0.344793
0.344815
0.344837
0.344861
0.344887
0.344913
0.344941
0.344971
0.345003
0.345039
0.345079
0.345122
0.345162
0.345179
0.34514
0.344984
0.344618
0.343911
0.342661
0.340494
0.336918
0.331892
0.325167
0.316496
0.305713
0.292988
0.279654
0.271305
0.288148
0.377536
0.556293
0.751178
0.859322
0.343982
0.343998
0.344021
0.344047
0.344076
0.344108
0.344141
0.344176
0.344211
0.344246
0.344282
0.34432
0.344359
0.344396
0.344422
0.344412
0.344336
0.344152
0.343767
0.343022
0.341671
0.33926
0.33532
0.329928
0.322836
0.313832
0.302838
0.290181
0.277535
0.271417
0.293641
0.389927
0.566149
0.751081
0.861111
0.344043
0.344059
0.344082
0.344109
0.344139
0.344172
0.344207
0.344242
0.344277
0.344312
0.344347
0.344383
0.344418
0.344449
0.344466
0.344444
0.344345
0.344078
0.343533
0.342557
0.340921
0.338293
0.334115
0.328356
0.320889
0.311574
0.300394
0.287823
0.275863
0.271809
0.299039
0.400121
0.572673
0.750848
0.864972
0.344496
0.344512
0.344537
0.344564
0.344594
0.344627
0.34466
0.344694
0.344726
0.344757
0.344786
0.344812
0.344836
0.344852
0.344849
0.3448
0.34466
0.344349
0.343749
0.342697
0.340943
0.337918
0.33323
0.327172
0.319382
0.309757
0.298422
0.285966
0.274641
0.272556
0.303801
0.408392
0.578052
0.750867
0.871171
0.345641
0.345651
0.345672
0.345696
0.345721
0.345748
0.345775
0.345801
0.345823
0.345841
0.345853
0.34586
0.345858
0.345844
0.345802
0.345705
0.345503
0.345116
0.34442
0.343237
0.341299
0.338102
0.333137
0.326475
0.318284
0.308406
0.296875
0.284463
0.273771
0.273591
0.308146
0.414924
0.581088
0.750891
0.879331
0.347902
0.347898
0.347909
0.347922
0.347936
0.34795
0.347963
0.34797
0.34797
0.347961
0.347941
0.347907
0.347857
0.347784
0.347671
0.347486
0.347177
0.34666
0.345797
0.344398
0.342204
0.338727
0.33344
0.326536
0.317818
0.307466
0.295802
0.283491
0.27326
0.274609
0.311664
0.419693
0.583119
0.750803
0.889444
0.351699
0.351663
0.351645
0.351626
0.351606
0.351584
0.351556
0.35152
0.35147
0.351405
0.351319
0.351211
0.351074
0.350902
0.350673
0.350359
0.349908
0.349224
0.348162
0.346513
0.343971
0.340041
0.334273
0.326969
0.317969
0.307273
0.295159
0.282731
0.273053
0.27567
0.314599
0.422874
0.583338
0.750797
0.9015
0.357395
0.357307
0.357237
0.35716
0.357077
0.356987
0.356885
0.356767
0.356628
0.356461
0.356262
0.356025
0.355745
0.35541
0.354999
0.354487
0.353828
0.352913
0.351586
0.349623
0.346707
0.342301
0.335921
0.327981
0.318529
0.307507
0.295219
0.282694
0.273152
0.276662
0.316773
0.425038
0.583009
0.750853
0.91545
0.365582
0.365406
0.365244
0.365067
0.364874
0.364664
0.364433
0.364173
0.363879
0.363543
0.363157
0.362714