/*--------------------------------*- C++ -*----------------------------------*\
  =========                 |
  \\      /  F ield         | OpenFOAM: The Open Source CFD Toolbox
   \\    /   O peration     | Website:  https://openfoam.org
    \\  /    A nd           | Version:  8
     \\/     M anipulation  |
\*---------------------------------------------------------------------------*/
FoamFile
{
    version     2.0;
    format      ascii;
    class       volScalarField;
    location    "1500";
    object      nut;
}
// * * * * * * * * * * * * * * * * * * * * * * * * * * * * * * * * * * * * * //

dimensions      [0 2 -1 0 0 0 0];

internalField   nonuniform List<scalar> 
15677
(
7.48317e-05
0.000154181
0.000258073
0.000722818
0.00180656
0.00331917
0.00477688
0.00581868
0.00636658
0.00658973
0.00667779
0.00671615
0.0067148
0.00670854
0.00670615
0.00670573
0.00670577
0.00670581
0.00670581
0.00670578
0.00670576
0.00670574
0.00670573
0.00670572
0.00670571
0.0067057
0.00670569
0.00670568
0.00670567
0.00670567
0.00670567
0.00670566
0.00670566
0.00670566
0.00670566
8.20509e-05
0.000137572
0.000177798
0.00037502
0.000873826
0.00172058
0.00284131
0.00405909
0.00517074
0.00598093
0.00641391
0.00659627
0.00668363
0.00670346
0.00670348
0.00670187
0.00670114
0.00670098
0.006701
0.00670103
0.00670105
0.00670106
0.00670106
0.00670106
0.00670107
0.00670108
0.00670108
0.00670109
0.0067011
0.0067011
0.00670111
0.00670111
0.00670111
0.00670111
0.00670111
8.02024e-05
0.000111443
0.000147514
0.000310376
0.000665492
0.00126624
0.00211321
0.00314452
0.00423177
0.00521254
0.00595685
0.00639448
0.00659102
0.00667461
0.00669488
0.00669775
0.00669731
0.00669677
0.00669651
0.00669641
0.00669636
0.00669633
0.00669631
0.00669629
0.00669627
0.00669626
0.00669625
0.00669624
0.00669622
0.00669622
0.00669621
0.0066962
0.0066962
0.0066962
0.0066962
7.67477e-05
0.000108584
0.000125393
0.000257558
0.000566652
0.00106507
0.00176661
0.00264945
0.00364239
0.00462952
0.00548081
0.00609882
0.00645421
0.00661938
0.00667435
0.00668935
0.00669251
0.00669277
0.0066926
0.00669247
0.00669241
0.00669238
0.00669236
0.00669234
0.00669233
0.00669232
0.00669232
0.00669232
0.00669232
0.00669232
0.00669232
0.00669232
0.00669232
0.00669232
0.00669231
7.4321e-05
0.000111415
0.000122936
0.00023399
0.000504632
0.000947137
0.00156241
0.00234405
0.00325092
0.0042016
0.00508652
0.00580013
0.00628293
0.00654073
0.00664229
0.0066762
0.00668609
0.00668833
0.00668855
0.00668841
0.00668826
0.00668817
0.00668811
0.00668808
0.00668805
0.00668803
0.006688
0.00668798
0.00668797
0.00668795
0.00668794
0.00668793
0.00668792
0.00668791
0.00668791
7.27269e-05
0.000117722
0.000123036
0.000212513
0.000461249
0.000868305
0.00142897
0.00214018
0.00297747
0.00388297
0.00476766
0.00553114
0.00609594
0.00643962
0.00659534
0.00665568
0.00667689
0.00668334
0.00668493
0.00668516
0.00668509
0.006685
0.00668492
0.00668486
0.00668481
0.00668478
0.00668475
0.00668473
0.00668472
0.00668471
0.0066847
0.0066847
0.00668469
0.00668468
0.00668467
7.17149e-05
0.00012416
0.000127119
0.000205247
0.000427814
0.000807917
0.00133224
0.00199409
0.0027776
0.00364055
0.004511
0.00529841
0.00592033
0.00633581
0.00654042
0.00662888
0.00666411
0.00667659
0.00668039
0.00668127
0.00668133
0.00668121
0.00668111
0.00668104
0.00668098
0.00668094
0.0066809
0.00668086
0.00668083
0.0066808
0.00668078
0.00668076
0.00668074
0.00668073
0.00668072
7.10125e-05
0.000129486
0.000135628
0.000196328
0.000401196
0.000758738
0.00125692
0.00188313
0.00262532
0.0034515
0.00430298
0.00509961
0.00575958
0.00622943
0.00648021
0.00659758
0.00664876
0.006669
0.00667621
0.00667844
0.00667896
0.00667896
0.00667885
0.00667873
0.00667862
0.00667853
0.00667846
0.00667841
0.00667837
0.00667834
0.00667832
0.0066783
0.00667828
0.00667827
0.00667825
7.05267e-05
0.000133956
0.000144995
0.000192009
0.00037715
0.000717331
0.00119479
0.00179473
0.00250528
0.00330091
0.00413289
0.00493048
0.00561525
0.00612685
0.00641762
0.00656268
0.00663047
0.00665937
0.00667054
0.00667434
0.00667539
0.00667553
0.00667545
0.00667535
0.00667525
0.00667517
0.0066751
0.00667505
0.00667499
0.00667494
0.0066749
0.00667487
0.00667483
0.00667481
0.00667479
7.01395e-05
0.000136629
0.000153694
0.000192638
0.000357417
0.000682246
0.00114316
0.00172269
0.00240839
0.00317882
0.00399258
0.00478689
0.00548768
0.00603147
0.00635616
0.0065268
0.00661126
0.00664977
0.00666594
0.00667211
0.00667416
0.00667463
0.0066746
0.00667444
0.00667426
0.00667409
0.00667395
0.00667385
0.00667376
0.0066737
0.00667366
0.00667362
0.00667359
0.00667356
0.00667353
6.98657e-05
0.000139332
0.000161911
0.000195241
0.000339859
0.000648448
0.0010976
0.00166227
0.00232902
0.00307891
0.00387629
0.00466513
0.00537594
0.00594423
0.00629705
0.00649053
0.00659069
0.0066385
0.00665951
0.00666794
0.00667094
0.00667175
0.00667184
0.00667174
0.00667161
0.00667149
0.00667139
0.0066713
0.00667122
0.00667114
0.00667108
0.00667102
0.00667096
0.00667092
0.00667087
6.96998e-05
0.000141515
0.000169187
0.000199197
0.000327531
0.000619403
0.0010569
0.00161035
0.00226254
0.00299631
0.00377976
0.00456242
0.00527926
0.00586629
0.0062427
0.00645647
0.00657159
0.00662923
0.00665603
0.00666753
0.00667196
0.00667331
0.00667354
0.00667341
0.00667317
0.00667293
0.0066727
0.00667252
0.00667237
0.00667227
0.00667219
0.00667214
0.0066721
0.00667207
0.00667203
6.96299e-05
0.000143185
0.000175735
0.000204052
0.000318893
0.000594247
0.00102119
0.00156572
0.0022075
0.00292796
0.00369961
0.00447615
0.00519662
0.00579804
0.00619339
0.00642449
0.00655281
0.00661872
0.00665022
0.00666424
0.00666991
0.00667177
0.00667221
0.00667217
0.00667202
0.00667186
0.00667173
0.00667163
0.00667154
0.00667146
0.00667138
0.00667129
0.0066712
0.00667111
0.00667103
6.96462e-05
0.000144434
0.000181101
0.000209255
0.00031342
0.000574031
0.000990567
0.00152777
0.00216107
0.00287258
0.00363412
0.00440504
0.00512727
0.00573922
0.00615102
0.0063974
0.00653813
0.00661359
0.00665112
0.0066684
0.00667568
0.00667825
0.00667895
0.00667896
0.00667874
0.00667844
0.00667814
0.00667786
0.00667764
0.00667747
0.00667736
0.0066773
0.00667728
0.00667728
0.00667729
6.97183e-05
0.000145415
0.000185879
0.000214352
0.000309928
0.00055759
0.000964506
0.00149571
0.00212279
0.0028265
0.00358158
0.00434704
0.00507037
0.00569202
0.00611538
0.00637464
0.00652568
0.00660669
0.00664805
0.00666792
0.00667668
0.00667986
0.00668077
0.00668085
0.0066807
0.00668053
0.00668041
0.00668037
0.00668037
0.00668039
0.00668039
0.00668036
0.00668027
0.00668011
0.00667991
6.98741e-05
0.000146088
0.000189504
0.000219154
0.000308403
0.000544191
0.000942869
0.00146941
0.00209249
0.0027908
0.00354011
0.00430286
0.00502692
0.00565202
0.00608554
0.00635697
0.00651963
0.00661183
0.00665979
0.00668312
0.00669388
0.00669816
0.00669965
0.00670006
0.00670007
0.00669994
0.00669979
0.00669965
0.00669951
0.0066994
0.0066993
0.00669924
0.00669921
0.00669925
0.00669936
7.01244e-05
0.000146574
0.000192999
0.000223478
0.000307671
0.000534131
0.00092533
0.00144868
0.00206914
0.002764
0.00350938
0.00426873
0.00499192
0.00562867
0.0060761
0.00635398
0.00652162
0.00661687
0.0066674
0.00669249
0.00670426
0.0067091
0.00671088
0.00671148
0.00671163
0.00671163
0.0067116
0.00671158
0.00671158
0.0067116
0.00671164
0.0067117
0.00671176
0.00671181
0.00671183
7.04535e-05
0.000146814
0.000195343
0.000227726
0.000308583
0.000527793
0.000912251
0.0014328
0.00205294
0.00274674
0.00348923
0.00424792
0.0049785
0.00561691
0.00606878
0.00635517
0.00652907
0.00662875
0.00668265
0.00671003
0.00672317
0.00672888
0.0067312
0.00673216
0.00673261
0.00673288
0.0067331
0.00673331
0.00673354
0.00673378
0.00673401
0.00673422
0.00673441
0.00673454
0.00673465
7.08597e-05
0.000146776
0.000197332
0.000231038
0.000309662
0.000523328
0.000902941
0.00142331
0.00204311
0.00273598
0.00348064
0.00424292
0.00497061
0.00561135
0.00606818
0.00636229
0.00654503
0.00665157
0.00671054
0.00674143
0.00675681
0.00676391
0.00676707
0.00676863
0.00676957
0.00677032
0.006771
0.00677165
0.0067723
0.00677291
0.00677346
0.00677394
0.00677432
0.00677459
0.00677479
7.13412e-05
0.000146624
0.000198658
0.000234559
0.000312007
0.000521866
0.00089819
0.00141687
0.00204008
0.00273824
0.00348308
0.00424306
0.00497112
0.00561743
0.00608287
0.00638477
0.00657369
0.00668539
0.00674824
0.00678206
0.00679965
0.00680829
0.00681288
0.00681569
0.00681772
0.00681946
0.00682104
0.00682251
0.00682387
0.0068251
0.00682619
0.00682715
0.00682797
0.00682867
0.00682933
7.18946e-05
0.000146293
0.00019978
0.000237417
0.000314345
0.000521865
0.000896486
0.00141844
0.00204578
0.00274522
0.00349173
0.00425263
0.00498673
0.00564014
0.00611232
0.00642074
0.00661576
0.00673284
0.00679993
0.00683714
0.0068574
0.00686874
0.00687546
0.00688011
0.00688378
0.00688695
0.0068898
0.0068924
0.00689477
0.00689692
0.00689885
0.00690057
0.0069021
0.00690346
0.00690471
7.25159e-05
0.00014578
0.000200584
0.000239477
0.000317827
0.000524475
0.000898778
0.00142309
0.00205451
0.0027574
0.00350991
0.00427735
0.00501684
0.0056767
0.00615606
0.00647128
0.00667282
0.0067953
0.00686696
0.00690777
0.00693208
0.00694656
0.00695608
0.00696333
0.00696947
0.006975
0.00698009
0.00698477
0.00698906
0.00699294
0.00699644
0.00699959
0.00700239
0.00700489
0.00700716
7.31997e-05
0.000145127
0.000200936
0.000241572
0.000320825
0.000528597
0.000903858
0.00143144
0.00206901
0.00277967
0.00353923
0.0043137
0.00506041
0.00572823
0.00621563
0.00653842
0.00674731
0.00687593
0.00695217
0.00699927
0.00702874
0.00704818
0.00706236
0.00707393
0.00708403
0.00709313
0.0071014
0.00710894
0.00711582
0.00712206
0.00712771
0.00713282
0.00713742
0.00714155
0.00714532
7.39391e-05
0.000144347
0.000200995
0.00024361
0.00032433
0.000533808
0.000911977
0.00144509
0.00209038
0.00281112
0.00357857
0.00436173
0.00511748
0.00579476
0.00629155
0.00662387
0.00683997
0.00697399
0.00705864
0.00711253
0.00714867
0.00717457
0.00719479
0.00721207
0.00722765
0.00724203
0.0072554
0.00726777
0.00727914
0.00728953
0.00729897
0.00730752
0.00731523
0.00732217
0.00732845
7.47283e-05
0.00014346
0.000200811
0.000245233
0.000328205
0.000540675
0.000922991
0.00146292
0.00211836
0.00284916
0.00362752
0.00442157
0.00518848
0.00587749
0.00638585
0.00672819
0.006952
0.00709535
0.00718978
0.00725277
0.00729837
0.00733396
0.00736375
0.0073903
0.00741463
0.00743707
0.00745772
0.00747667
0.00749403
0.0075099
0.0075244
0.00753763
0.00754966
0.00756059
0.00757048
7.55588e-05
0.000142486
0.000200404
0.000246557
0.000332426
0.000549094
0.000936842
0.00148562
0.00215274
0.00289497
0.00368596
0.00449308
0.0052734
0.00597606
0.00649898
0.00685142
0.00708381
0.0072407
0.00734616
0.00742073
0.00747869
0.007527
0.00756907
0.00760728
0.00764278
0.00767609
0.00770741
0.00773673
0.00776401
0.00778921
0.00781238
0.00783358
0.00785291
0.00787051
0.00788631
7.64254e-05
0.000141437
0.000199805
0.0002477
0.000337
0.000558788
0.000953094
0.00151152
0.00219176
0.00294803
0.00375376
0.00457613
0.00537213
0.00609264
0.00663025
0.00699273
0.00724115
0.00741239
0.00753233
0.00762242
0.00769726
0.00776339
0.00782354
0.00788001
0.00793358
0.00798415
0.00803141
0.00807527
0.00811582
0.00815328
0.00818788
0.00821981
0.00824919
0.00827616
0.00830038
7.73178e-05
0.000140337
0.000199051
0.000248678
0.00034176
0.000569715
0.000971649
0.00154157
0.00223597
0.00300815
0.00383055
0.00467046
0.0054854
0.00622536
0.00677836
0.00715486
0.00742241
0.00761033
0.0077481
0.00785772
0.00795445
0.00804444
0.00812879
0.0082086
0.00828423
0.00835596
0.00842421
0.00848922
0.00855092
0.00860902
0.00866324
0.00871344
0.00875965
0.00880208
0.00883994
7.82332e-05
0.000139189
0.000198155
0.000249512
0.000346721
0.000581689
0.000992384
0.00157541
0.00228505
0.00307482
0.00391603
0.00477586
0.0056134
0.00637315
0.00694109
0.0073411
0.00762855
0.00783721
0.00799779
0.00813313
0.00825904
0.00838039
0.00849637
0.00860871
0.00871873
0.00882634
0.00893028
0.00902902
0.00912157
0.00920781
0.00928825
0.00936367
0.00943474
0.00950197
0.00956332
7.91585e-05
0.000138022
0.000197162
0.000250225
0.00035199
0.000594758
0.00101509
0.00161255
0.00233898
0.00314796
0.0040097
0.00489197
0.0057548
0.00653459
0.00712305
0.00754902
0.00785958
0.00809332
0.00828194
0.00844921
0.00861207
0.00877589
0.00893937
0.0091027
0.00926343
0.00941844
0.0095666
0.00970911
0.00984812
0.00998523
0.0101208
0.0102539
0.0103829
0.0105062
0.0106174
0.00670567
0.00670569
0.0067057
0.00670572
0.00670574
0.00670576
0.00670577
0.0067058
0.00670582
0.00670584
0.00670586
0.00670588
0.0067059
0.00670592
0.00670594
0.00670595
0.00670597
0.00670598
0.006706
0.00670601
0.00670602
0.00670603
0.00670112
0.00670114
0.00670116
0.00670118
0.00670121
0.00670123
0.00670125
0.00670127
0.00670129
0.00670132
0.00670134
0.00670137
0.0067014
0.00670142
0.00670145
0.00670148
0.00670151
0.00670154
0.00670157
0.0067016
0.00670163
0.00670166
0.00669622
0.00669628
0.00669633
0.00669639
0.00669645
0.00669652
0.00669658
0.00669665
0.00669672
0.0066968
0.00669687
0.00669694
0.00669702
0.00669708
0.00669715
0.00669721
0.00669727
0.00669733
0.00669738
0.00669744
0.00669749
0.00669753
0.00669234
0.00669239
0.00669245
0.0066925
0.00669256
0.00669262
0.00669267
0.00669273
0.00669279
0.00669286
0.00669292
0.00669299
0.00669306
0.00669313
0.0066932
0.00669327
0.00669334
0.00669341
0.00669348
0.00669355
0.00669361
0.00669368
0.00668795
0.00668803
0.00668812
0.00668821
0.0066883
0.0066884
0.00668851
0.00668861
0.00668873
0.00668884
0.00668896
0.00668908
0.0066892
0.00668931
0.00668942
0.00668952
0.00668962
0.00668971
0.0066898
0.00668989
0.00668997
0.00669005
0.00668471
0.00668478
0.00668486
0.00668494
0.00668502
0.0066851
0.00668518
0.00668526
0.00668535
0.00668543
0.00668553
0.00668562
0.00668572
0.00668582
0.00668593
0.00668603
0.00668614
0.00668624
0.00668634
0.00668645
0.00668655
0.00668665
0.00668076
0.00668086
0.00668096
0.00668107
0.00668118
0.00668131
0.00668144
0.00668158
0.00668173
0.00668188
0.00668204
0.0066822
0.00668236
0.0066825
0.00668264
0.00668277
0.0066829
0.00668301
0.00668313
0.00668324
0.00668334
0.00668345
0.00667828
0.00667836
0.00667845
0.00667853
0.00667861
0.00667869
0.00667877
0.00667886
0.00667894
0.00667902
0.00667912
0.00667922
0.00667933
0.00667944
0.00667957
0.0066797
0.00667983
0.00667996
0.0066801
0.00668023
0.00668036
0.00668048
0.00667482
0.0066749
0.00667498
0.00667508
0.00667519
0.00667532
0.00667547
0.00667562
0.0066758
0.00667598
0.00667617
0.00667636
0.00667654
0.00667671
0.00667686
0.00667699
0.00667712
0.00667725
0.00667737
0.00667748
0.0066776
0.00667772
0.00667355
0.0066736
0.00667365
0.0066737
0.00667374
0.00667377
0.0066738
0.00667382
0.00667383
0.00667385
0.00667388
0.00667394
0.00667402
0.00667412
0.00667425
0.00667439
0.00667454
0.0066747
0.00667485
0.006675
0.00667514
0.00667528
0.00667085
0.00667083
0.00667083
0.00667085
0.0066709
0.00667098
0.0066711
0.00667126
0.00667144
0.00667165
0.00667185
0.00667203
0.00667219
0.00667232
0.00667242
0.00667251
0.00667259
0.00667266
0.00667275
0.00667284
0.00667294
0.00667305
0.00667199
0.00667193
0.00667186
0.00667178
0.00667167
0.00667152
0.00667133
0.00667112
0.00667089
0.00667068
0.0066705
0.0066704
0.00667037
0.00667042
0.00667052
0.00667066
0.0066708
0.00667095
0.0066711
0.00667122
0.00667134
0.00667144
0.00667083
0.0066705
0.00667018
0.00666992
0.00666976
0.00666971
0.00666976
0.00666991
0.0066701
0.00667031
0.00667046
0.00667054
0.00667053
0.00667044
0.00667031
0.00667017
0.00667005
0.00666996
0.00666992
0.00666992
0.00666996
0.00667004
0.00667715
0.00667686
0.00667653
0.00667611
0.00667554
0.00667481
0.00667393
0.00667297
0.006672
0.00667113
0.00667043
0.00666996
0.00666973
0.00666969
0.00666976
0.00666988
0.00666999
0.00667007
0.00667009
0.00667006
0.00667
0.00666991
0.00667907
0.0066775
0.00667617
0.00667524
0.0066747
0.00667454
0.00667467
0.00667498
0.00667529
0.00667548
0.00667538
0.00667494
0.00667421
0.00667333
0.00667244
0.00667162
0.00667095
0.00667046
0.00667015
0.00666999
0.00666994
0.00666998
0.0066989
0.0066979
0.00669643
0.00669456
0.0066923
0.00668948
0.00668638
0.00668324
0.00668026
0.0066777
0.00667601
0.00667512
0.00667485
0.00667493
0.00667513
0.00667526
0.00667522
0.00667495
0.00667447
0.00667384
0.00667315
0.00667247
0.00671079
0.00670852
0.00670624
0.00670397
0.00670184
0.00670042
0.00669929
0.00669826
0.00669723
0.00669604
0.00669397
0.00669126
0.00668796
0.00668466
0.00668163
0.00667907
0.00667724
0.00667616
0.00667564
0.00667548
0.00667549
0.0066756
0.00673296
0.00672931
0.00672574
0.0067224
0.00671926
0.00671623
0.00671342
0.00671075
0.00670808
0.00670535
0.00670267
0.00670023
0.00669868
0.00669746
0.00669635
0.00669522
0.00669364
0.00669148
0.00668886
0.00668616
0.00668363
0.00668143
0.0067719
0.00676566
0.00675944
0.00675351
0.00674786
0.00674236
0.00673717
0.0067324
0.00672784
0.00672345
0.0067194
0.00671568
0.00671229
0.00670933
0.00670663
0.00670406
0.00670165
0.00669958
0.00669819
0.00669706
0.006696
0.00669495
0.00682573
0.00681745
0.00680919
0.00680114
0.00679324
0.00678543
0.00677768
0.00676994
0.00676237
0.00675491
0.00674779
0.00674111
0.0067349
0.00672942
0.0067247
0.00672051
0.00671683
0.00671364
0.00671077
0.00670823
0.00670594
0.00670393
0.00689966
0.00688757
0.00687545
0.00686363
0.00685207
0.00684073
0.00682963
0.00681878
0.0068083
0.00679837
0.00678888
0.00677976
0.00677116
0.0067632
0.00675576
0.0067489
0.00674257
0.00673689
0.00673168
0.006727
0.00672286
0.00671937
0.00700033
0.00698314
0.00696587
0.00694898
0.00693247
0.00691633
0.00690056
0.00688521
0.00687032
0.00685599
0.0068422
0.00682901
0.00681669
0.00680543
0.00679516
0.0067859
0.00677764
0.0067701
0.00676315
0.00675677
0.00675092
0.00674562
0.00713614
0.007112
0.00708776
0.00706404
0.00704085
0.00701817
0.00699604
0.00697447
0.00695353
0.00693326
0.00691371
0.00689501
0.00687762
0.00686179
0.00684739
0.00683433
0.00682251
0.00681177
0.00680197
0.00679299
0.0067848
0.00677748
0.00731662
0.00728334
0.00724988
0.00721708
0.00718497
0.00715355
0.00712286
0.00709293
0.00706382
0.00703559
0.00700832
0.00698222
0.006958
0.00693596
0.00691593
0.00689774
0.00688124
0.00686625
0.0068526
0.00684015
0.00682881
0.00681867
0.00755523
0.00750973
0.007464
0.0074191
0.00737511
0.00733202
0.00728986
0.00724871
0.00720865
0.00716977
0.00713217
0.00709622
0.00706285
0.00703253
0.00700499
0.00697997
0.00695727
0.00693665
0.00691791
0.00690086
0.00688535
0.00687152
0.00786724
0.00780586
0.00774408
0.00768331
0.00762367
0.00756521
0.00750796
0.00745198
0.0073974
0.00734436
0.00729301
0.00724388
0.00719831
0.00715693
0.00711939
0.00708534
0.00705446
0.00702646
0.00700104
0.00697793
0.00695693
0.00693819
0.00827649
0.00819371
0.00811057
0.00802855
0.00794788
0.00786872
0.00779118
0.0077154
0.00764155
0.00756984
0.00750046
0.0074341
0.00737254
0.00731662
0.00726586
0.00721984
0.00717814
0.00714038
0.00710619
0.00707519
0.00704709
0.00702205
0.00881064
0.0086986
0.00858766
0.0084786
0.00837097
0.00826478
0.00816031
0.00805789
0.00795784
0.00786054
0.00776645
0.00767666
0.00759369
0.00751866
0.00745079
0.00738939
0.00733379
0.00728343
0.00723783
0.00719649
0.00715906
0.00712568
0.00952681
0.00936456
0.00920833
0.00905926
0.00891498
0.0087739
0.0086355
0.00849989
0.00836738
0.00823822
0.00811259
0.00799183
0.00787958
0.00777786
0.00768608
0.00760351
0.00752931
0.00746259
0.00740246
0.00734809
0.00729884
0.00725478
0.0105769
0.0103301
0.0100869
0.00985842
0.00964391
0.00944061
0.00924622
0.00905926
0.00887916
0.0087066
0.00854179
0.00838496
0.0082393
0.00810638
0.00798506
0.00787468
0.00777485
0.00768511
0.00760479
0.00753298
0.00746872
0.00741178
0.00670604
0.00670604
0.00670604
0.00670604
0.00670604
0.00670604
0.00670167
0.00670167
0.00670167
0.00670167
0.00670167
0.00670167
0.00669756
0.00669756
0.00669756
0.00669756
0.00669756
0.00669756
0.00669371
0.00669371
0.00669371
0.00669371
0.00669371
0.00669371
0.00669009
0.00669008
0.00669008
0.00669008
0.00669008
0.00669009
0.0066867
0.0066867
0.0066867
0.0066867
0.0066867
0.0066867
0.0066835
0.00668349
0.00668349
0.00668349
0.00668349
0.00668349
0.00668055
0.00668055
0.00668055
0.00668055
0.00668055
0.00668055
0.00667777
0.00667776
0.00667776
0.00667775
0.00667776
0.00667776
0.00667535
0.00667535
0.00667535
0.00667535
0.00667535
0.00667534
0.0066731
0.00667309
0.00667309
0.00667309
0.00667309
0.00667309
0.00667147
0.00667145
0.00667144
0.00667143
0.00667144
0.00667146
0.00667009
0.00667012
0.00667014
0.00667013
0.00667011
0.00667008
0.0066698
0.00666968
0.00666962
0.00666961
0.00666966
0.00666977
0.00667011
0.00667025
0.00667034
0.00667034
0.00667024
0.00667009
0.00667189
0.00667154
0.00667137
0.00667135
0.00667149
0.00667182
0.00667592
0.00667627
0.00667646
0.00667645
0.00667626
0.00667591
0.00667999
0.00667944
0.00667925
0.00667922
0.00667936
0.00667986
0.00669449
0.00669453
0.00669452
0.00669451
0.00669449
0.00669442
0.00670291
0.00670276
0.00670277
0.00670275
0.00670269
0.00670279
0.0067176
0.00671736
0.00671735
0.00671732
0.00671726
0.00671744
0.00674288
0.00674244
0.00674239
0.00674234
0.0067423
0.00674265
0.00677373
0.00677333
0.00677328
0.00677323
0.00677317
0.00677345
0.00681349
0.00681291
0.00681287
0.0068128
0.00681271
0.00681315
0.00686452
0.0068638
0.00686378
0.00686369
0.00686355
0.00686409
0.0069287
0.0069278
0.00692778
0.00692767
0.00692749
0.00692817
0.00700949
0.00700844
0.00700846
0.00700833
0.00700806
0.00700885
0.00710902
0.00710783
0.00710793
0.00710778
0.00710737
0.00710825
0.00723271
0.00723114
0.0072312
0.00723102
0.00723061
0.00723182
0.00738389
0.0073823
0.00738243
0.00738222
0.00738166
0.00738281
0.00670603
0.00670602
0.00670601
0.006706
0.00670598
0.00670597
0.00670595
0.00670594
0.00670592
0.0067059
0.00670588
0.00670586
0.00670584
0.00670582
0.00670581
0.00670579
0.00670577
0.00670575
0.00670574
0.00670572
0.0067057
0.00670569
0.00670166
0.00670163
0.0067016
0.00670157
0.00670154
0.00670151
0.00670148
0.00670145
0.00670143
0.0067014
0.00670137
0.00670134
0.00670132
0.00670129
0.00670127
0.00670124
0.00670122
0.0067012
0.00670117
0.00670115
0.00670113
0.00670111
0.00669753
0.00669748
0.00669743
0.00669738
0.00669733
0.00669727
0.00669721
0.00669715
0.00669708
0.00669701
0.00669694
0.00669686
0.00669679
0.00669672
0.00669665
0.00669658
0.00669651
0.00669645
0.00669639
0.00669633
0.00669627
0.00669622
0.00669368
0.00669361
0.00669355
0.00669348
0.00669341
0.00669334
0.00669327
0.0066932
0.00669313
0.00669307
0.006693
0.00669293
0.00669287
0.00669281
0.00669275
0.00669269
0.00669263
0.00669257
0.00669252
0.00669247
0.00669241
0.00669236
0.00669005
0.00668997
0.00668988
0.0066898
0.00668971
0.00668961
0.00668952
0.00668941
0.00668931
0.00668919
0.00668907
0.00668895
0.00668883
0.0066887
0.00668859
0.00668847
0.00668837
0.00668826
0.00668816
0.00668807
0.00668797
0.00668789
0.00668665
0.00668655
0.00668644
0.00668634
0.00668624
0.00668613
0.00668603
0.00668592
0.00668582
0.00668572
0.00668563
0.00668553
0.00668545
0.00668536
0.00668528
0.0066852
0.00668513
0.00668505
0.00668498
0.00668491
0.00668484
0.00668477
0.00668344
0.00668334
0.00668323
0.00668312
0.00668301
0.00668289
0.00668276
0.00668263
0.00668249
0.00668234
0.00668218
0.00668201
0.00668185
0.00668168
0.00668152
0.00668137
0.00668122
0.00668108
0.00668095
0.00668083
0.00668071
0.0066806
0.00668048
0.00668035
0.00668022
0.00668009
0.00667995
0.00667982
0.00667968
0.00667955
0.00667943
0.00667931
0.0066792
0.0066791
0.00667901
0.00667893
0.00667885
0.00667878
0.00667871
0.00667864
0.00667857
0.00667851
0.00667844
0.00667838
0.00667771
0.00667759
0.00667747
0.00667735
0.00667723
0.0066771
0.00667697
0.00667683
0.00667668
0.00667651
0.00667633
0.00667613
0.00667593
0.00667572
0.00667553
0.00667534
0.00667517
0.00667501
0.00667486
0.00667473
0.00667462
0.00667451
0.00667527
0.00667513
0.00667498
0.00667483
0.00667467
0.00667451
0.00667436
0.00667421
0.00667408
0.00667396
0.00667387
0.00667381
0.00667377
0.00667375
0.00667374
0.00667374
0.00667373
0.00667372
0.0066737
0.00667369
0.00667368
0.00667367
0.00667303
0.00667291
0.00667281
0.00667271
0.00667262
0.00667254
0.00667246
0.00667237
0.00667227
0.00667214
0.00667198
0.00667178
0.00667156
0.00667134
0.00667112
0.00667092
0.00667074
0.0066706
0.0066705
0.00667042
0.00667037
0.00667034
0.00667142
0.00667132
0.0066712
0.00667107
0.00667092
0.00667076
0.0066706
0.00667045
0.00667033
0.00667026
0.00667025
0.00667032
0.00667047
0.00667066
0.00667089
0.00667111
0.00667131
0.0066715
0.00667165
0.00667179
0.00667193
0.00667207
0.00667001
0.00666992
0.00666986
0.00666985
0.00666988
0.00666996
0.00667007
0.0066702
0.00667033
0.00667042
0.00667044
0.00667036
0.00667019
0.00666997
0.00666973
0.00666952
0.00666938
0.00666934
0.00666939
0.00666953
0.00666974
0.00666998
0.00666988
0.00666995
0.00667002
0.00667004
0.00667001
0.00666993
0.00666981
0.00666967
0.00666957
0.00666955
0.00666971
0.00667008
0.0066707
0.0066715
0.00667241
0.00667334
0.00667423
0.00667502
0.00667567
0.0066762
0.00667665
0.00667706
0.00666995
0.00666989
0.00666992
0.00667005
0.00667034
0.0066708
0.00667143
0.00667221
0.00667308
0.00667394
0.00667467
0.00667515
0.00667529
0.00667513
0.0066748
0.00667444
0.0066742
0.0066742
0.00667451
0.00667518
0.0066762
0.00667752
0.00667237
0.00667305
0.00667374
0.00667437
0.00667485
0.00667512
0.00667517
0.00667503
0.00667481
0.00667466
0.00667481
0.0066755
0.00667694
0.00667926
0.00668205
0.00668505
0.00668805
0.00669087
0.00669325
0.00669522
0.0066969
0.00669813
0.00667557
0.00667545
0.0066754
0.00667553
0.006676
0.00667701
0.00667876
0.00668122
0.00668414
0.00668734
0.00669054
0.00669328
0.00669543
0.00669667
0.00669766
0.00669863
0.00669966
0.00670091
0.00670268
0.00670484
0.00670706
0.00670928
0.00668126
0.00668345
0.00668596
0.00668863
0.00669124
0.0066934
0.00669499
0.00669609
0.00669715
0.0066983
0.00669972
0.00670194
0.00670452
0.00670717
0.00670975
0.00671231
0.00671496
0.00671779
0.00672077
0.00672392
0.00672728
0.00673076
0.00669485
0.00669588
0.00669692
0.00669803
0.00669937
0.00670139
0.00670373
0.00670624
0.00670885
0.00671169
0.0067149
0.00671847
0.00672236
0.00672659
0.00673098
0.00673552
0.00674037
0.00674555
0.00675094
0.00675653
0.0067624
0.00676834
0.00670378
0.00670577
0.00670804
0.00671055
0.00671337
0.00671649
0.00672008
0.00672416
0.00672871
0.00673398
0.00673991
0.00674636
0.00675327
0.00676056
0.00676791
0.00677538
0.00678291
0.00679046
0.00679806
0.00680577
0.00681367
0.0068216
0.00671917
0.00672262
0.00672672
0.00673135
0.00673649
0.00674209
0.00674829
0.00675503
0.0067623
0.00677002
0.00677832
0.00678719
0.00679649
0.00680613
0.00681629
0.00682681
0.00683757
0.00684852
0.00685965
0.00687101
0.00688263
0.00689425
0.00674535
0.00675063
0.00675644
0.00676277
0.00676965
0.0067771
0.00678523
0.00679429
0.00680432
0.00681526
0.00682717
0.00684003
0.00685357
0.0068676
0.00688212
0.00689708
0.00691239
0.00692802
0.00694395
0.0069602
0.00697681
0.00699336
0.00677714
0.00678444
0.0067926
0.00680152
0.00681124
0.00682186
0.0068335
0.00684632
0.00686041
0.00687583
0.00689268
0.00691094
0.00693022
0.00695014
0.00697067
0.00699174
0.00701331
0.00703532
0.00705778
0.00708069
0.00710407
0.00712737
0.00681826
0.00682837
0.00683969
0.00685208
0.00686562
0.00688047
0.00689676
0.00691464
0.00693427
0.00695577
0.0069793
0.00700485
0.00703183
0.00705966
0.00708828
0.00711762
0.00714762
0.00717822
0.00720941
0.00724118
0.00727354
0.00730574
0.00687101
0.00688483
0.00690032
0.00691731
0.00693593
0.00695637
0.00697882
0.00700346
0.00703049
0.00706012
0.00709258
0.00712786
0.00716514
0.00720358
0.00724309
0.00728355
0.00732487
0.00736697
0.00740982
0.00745343
0.00749778
0.00754193
0.00693758
0.00695634
0.00697732
0.00700037
0.00702566
0.00705345
0.00708401
0.00711759
0.00715449
0.007195
0.00723942
0.00728772
0.00733874
0.00739131
0.00744525
0.00750043
0.00755669
0.00761396
0.0076722
0.00773141
0.00779153
0.00785133
0.00702132
0.0070464
0.00707452
0.00710547
0.00713953
0.00717705
0.00721837
0.00726382
0.00731376
0.00736857
0.00742865
0.007494
0.00756305
0.00763426
0.00770741
0.00778228
0.00785867
0.00793644
0.00801546
0.00809563
0.00817681
0.00825773
0.00712483
0.00715831
0.00719581
0.00723713
0.00728261
0.00733268
0.00738782
0.00744851
0.00751534
0.00758898
0.00767007
0.00775865
0.00785249
0.0079493
0.00804861
0.00815001
0.00825315
0.00835769
0.00846336
0.00857022
0.00867889
0.00878892
0.00725383
0.00729806
0.00734741
0.00740178
0.00746177
0.00752818
0.00760183
0.00768354
0.00777408
0.00787403
0.00798386
0.0081031
0.00822847
0.0083571
0.0084888
0.00862327
0.00876013
0.0088993
0.00904134
0.00918801
0.00934191
0.00950228
0.00741063
0.0074678
0.00753224
0.00760411
0.00768433
0.00777374
0.0078729
0.00798216
0.00810179
0.00823234
0.00837486
0.00852987
0.00869479
0.00886733
0.00904688
0.00923262
0.00942544
0.00962693
0.00983954
0.0100663
0.0103081
0.0105545
0.00670568
0.00670568
0.00670567
0.00670566
0.00670566
0.00670565
0.00670564
0.00670563
0.00670562
0.00670561
0.0067056
0.0067056
0.0067056
0.00670561
0.00670564
0.00670568
0.00670572
0.00670574
0.00670573
0.00670571
0.00670616
0.00670857
0.00671484
0.00671619
0.00667781
0.00658972
0.00636642
0.00581821
0.0047761
0.00331827
0.00180581
0.000722412
0.000257911
0.000154125
7.4819e-05
0.0067011
0.00670111
0.00670111
0.00670113
0.00670114
0.00670115
0.00670117
0.00670119
0.0067012
0.00670122
0.00670123
0.00670124
0.00670124
0.00670123
0.00670121
0.00670117
0.00670111
0.00670106
0.00670119
0.00670189
0.00670347
0.00670342
0.00668356
0.00659618
0.00641376
0.00598065
0.00517028
0.00405854
0.00284076
0.00172014
0.000873543
0.000374872
0.000177732
0.000137547
8.20333e-05
0.00669619
0.00669618
0.00669618
0.00669617
0.00669616
0.00669615
0.00669614
0.00669613
0.00669612
0.00669611
0.00669611
0.00669612
0.00669614
0.00669617
0.00669622
0.00669629
0.00669642
0.00669671
0.00669728
0.00669775
0.00669492
0.00667468
0.00659112
0.00639457
0.00595682
0.00521238
0.00423151
0.00314421
0.00211293
0.00126602
0.000665343
0.000310289
0.000147464
0.000111415
8.01854e-05
0.00669234
0.00669236
0.00669237
0.00669239
0.00669241
0.00669243
0.00669246
0.00669248
0.00669251
0.00669253
0.00669256
0.00669257
0.00669259
0.0066926
0.00669261
0.00669265
0.00669274
0.00669288