/*--------------------------------*- C++ -*----------------------------------*\
  =========                 |
  \\      /  F ield         | OpenFOAM: The Open Source CFD Toolbox
   \\    /   O peration     | Website:  https://openfoam.org
    \\  /    A nd           | Version:  8
     \\/     M anipulation  |
\*---------------------------------------------------------------------------*/
FoamFile
{
    version     2.0;
    format      ascii;
    class       surfaceScalarField;
    location    "1500";
    object      phi;
}
// * * * * * * * * * * * * * * * * * * * * * * * * * * * * * * * * * * * * * //

dimensions      [0 3 -1 0 0 0 0];

internalField   nonuniform List<scalar> 
31053
(
1.74444e-06
1.16443e-05
1.36384e-06
1.57479e-05
1.26642e-06
1.77356e-05
1.20201e-06
2.03091e-05
1.13145e-06
2.3307e-05
1.05805e-06
2.67437e-05
9.81364e-07
3.06882e-05
9.01084e-07
3.52155e-05
8.17581e-07
4.04109e-05
7.31696e-07
4.63728e-05
6.44729e-07
5.32141e-05
5.58419e-07
6.10644e-05
4.74702e-07
7.0073e-05
3.95644e-07
8.04112e-05
3.34711e-07
7.62514e-05
2.84556e-07
7.62406e-05
2.42983e-07
7.62321e-05
2.08309e-07
7.62252e-05
1.79213e-07
7.62196e-05
1.54665e-07
7.6215e-05
1.33855e-07
7.62113e-05
1.17549e-07
6.95985e-05
1.04739e-07
6.25568e-05
9.45052e-08
5.6228e-05
8.62113e-08
5.05396e-05
7.94076e-08
4.5427e-05
7.37642e-08
4.08316e-05
6.90396e-08
3.67012e-05
6.50483e-08
3.29886e-05
6.1652e-08
2.96517e-05
5.874e-08
2.66523e-05
5.62303e-08
2.39563e-05
5.40542e-08
2.15331e-05
5.21614e-08
1.9355e-05
1.73972e-05
5.05093e-08
9.63805e-07
1.06805e-05
1.5269e-06
1.51848e-05
1.51053e-06
1.7752e-05
1.45259e-06
2.03671e-05
1.39964e-06
2.33599e-05
1.34398e-06
2.67993e-05
1.28329e-06
3.07489e-05
1.2171e-06
3.52817e-05
1.14517e-06
4.04829e-05
1.06751e-06
4.64505e-05
9.84474e-07
5.32971e-05
8.96787e-07
6.11521e-05
8.05495e-07
7.01643e-05
7.11714e-07
8.0505e-05
6.32029e-07
7.63311e-05
5.60685e-07
7.6312e-05
4.9688e-07
7.62959e-05
4.39846e-07
7.62822e-05
3.88882e-07
7.62705e-05
3.43366e-07
7.62606e-05
3.0275e-07
7.62519e-05
2.69596e-07
6.96316e-05
2.42746e-07
6.25836e-05
2.20808e-07
5.62499e-05
2.02728e-07
5.05577e-05
1.8771e-07
4.5442e-05
1.75136e-07
4.08442e-05
1.64535e-07
3.67118e-05
1.55535e-07
3.29976e-05
1.47848e-07
2.96594e-05
1.41243e-07
2.66589e-05
1.35542e-07
2.3962e-05
1.30599e-07
2.1538e-05
1.263e-07
1.93593e-05
1.74009e-05
1.22546e-07
5.93776e-07
1.00868e-05
1.21012e-06
1.45685e-05
1.3385e-06
1.76236e-05
1.32867e-06
2.03769e-05
1.29833e-06
2.33903e-05
1.26213e-06
2.68355e-05
1.22168e-06
3.07894e-05
1.17643e-06
3.5327e-05
1.12539e-06
4.05339e-05
1.06767e-06
4.65082e-05
1.00261e-06
5.33622e-05
9.29993e-07
6.12247e-05
8.50311e-07
7.0244e-05
7.64643e-07
8.05907e-05
6.89122e-07
7.64066e-05
6.19252e-07
7.63819e-05
5.54883e-07
7.63602e-05
4.95782e-07
7.63413e-05
4.41699e-07
7.63246e-05
3.92394e-07
7.63099e-05
3.47613e-07
7.62967e-05
3.1037e-07
6.96689e-05
2.79701e-07
6.26143e-05
2.54297e-07
5.62753e-05
2.33122e-07
5.05789e-05
2.15367e-07
4.54597e-05
2.00387e-07
4.08592e-05
1.87676e-07
3.67245e-05
1.76829e-07
3.30085e-05
1.67527e-07
2.96687e-05
1.59513e-07
2.66669e-05
1.52583e-07
2.3969e-05
1.46569e-07
2.1544e-05
1.41339e-07
1.93645e-05
1.74055e-05
1.36783e-07
4.32161e-07
9.65466e-06
9.71612e-07
1.40291e-05
1.18865e-06
1.74066e-05
1.22535e-06
2.03403e-05
1.2125e-06
2.34032e-05
1.18522e-06
2.68628e-05
1.15129e-06
3.08233e-05
1.11203e-06
3.53662e-05
1.06715e-06
4.05788e-05
1.01591e-06
4.65595e-05
9.57408e-07
5.34207e-05
8.9081e-07
6.12913e-05
8.15715e-07
7.03191e-05
7.32553e-07
8.06739e-05
6.57915e-07
7.64813e-05
5.87872e-07
7.64519e-05
5.22634e-07
7.64255e-05
4.6225e-07
7.64017e-05
4.06676e-07
7.63802e-05
3.55826e-07
7.63607e-05
3.09582e-07
7.6343e-05
2.71247e-07
6.97072e-05
2.39855e-07
6.26457e-05
2.14028e-07
5.63011e-05
1.92673e-07
5.06003e-05
1.74923e-07
4.54775e-05
1.60087e-07
4.0874e-05
1.4762e-07
3.6737e-05
1.37088e-07
3.3019e-05
1.28146e-07
2.96776e-05
1.2052e-07
2.66745e-05
1.13993e-07
2.39755e-05
1.08387e-07
2.15497e-05
1.03561e-07
1.93693e-05
1.74097e-05
9.93991e-08
3.07386e-07
9.34731e-06
7.47857e-07
1.35886e-05
1.00346e-06
1.71511e-05
1.07646e-06
2.02673e-05
1.08106e-06
2.33986e-05
1.06253e-06
2.68814e-05
1.03343e-06
3.08524e-05
9.97306e-07
3.54024e-05
9.54967e-07
4.06211e-05
9.06207e-07
4.66082e-05
8.50362e-07
5.34765e-05
7.8663e-07
6.13551e-05
7.1434e-07
7.03914e-05
6.33368e-07
8.07548e-05
5.59614e-07
7.6555e-05
4.89662e-07
7.65219e-05
4.24067e-07
7.64911e-05
3.63161e-07
7.64626e-05
3.07127e-07
7.64363e-05
2.56055e-07
7.64118e-05
2.09967e-07
7.6389e-05
1.72204e-07
6.9745e-05
1.4173e-07
6.26762e-05
1.1708e-07
5.63258e-05
9.70742e-08
5.06203e-05
8.07758e-08
4.54938e-05
6.74383e-08
4.08873e-05
5.64746e-08
3.67479e-05
4.74194e-08
3.30281e-05
3.9909e-08
2.96851e-05
3.36541e-08
2.66808e-05
2.84289e-08
2.39807e-05
2.40515e-08
2.1554e-05
2.03791e-08
1.9373e-05
1.74127e-05
1.72943e-08
2.14657e-07
9.1327e-06
5.68397e-07
1.32349e-05
8.29166e-07
1.68903e-05
9.24463e-07
2.0172e-05
9.41771e-07
2.33813e-05
9.29187e-07
2.6894e-05
9.02377e-07
3.08792e-05
8.6656e-07
3.54382e-05
8.23408e-07
4.06643e-05
7.73172e-07
4.66585e-05
7.15448e-07
5.35343e-05
6.49577e-07
6.1421e-05
5.74923e-07
7.04661e-05
4.91269e-07
8.08385e-05
4.14933e-07
7.66314e-05
3.42457e-07
7.65944e-05
2.74574e-07
7.6559e-05
2.11805e-07
7.65254e-05
1.54497e-07
7.64936e-05
1.02868e-07
7.64634e-05
5.70398e-08
7.64349e-05
2.02773e-08
6.97817e-05
-8.6426e-09
6.27051e-05
-3.13482e-08
5.63485e-05
-4.91528e-08
5.06381e-05
-6.31023e-08
4.55078e-05
-7.40263e-08
4.08983e-05
-8.25758e-08
3.67565e-05
-8.92619e-08
3.30348e-05
-9.44812e-08
2.96903e-05
-9.8545e-08
2.66849e-05
-1.01694e-07
2.39839e-05
-1.04117e-07
2.15565e-05
-1.05961e-07
1.93749e-05
1.74141e-05
-1.07344e-07
1.52955e-07
8.97977e-06
4.31506e-07
1.29564e-05
6.78147e-07
1.66437e-05
7.85905e-07
2.00643e-05
8.11248e-07
2.33559e-05
8.01465e-07
2.69038e-05
7.74107e-07
3.09066e-05
7.35525e-07
3.54768e-05
6.88034e-07
4.07118e-05
6.32276e-07
4.67142e-05
5.68106e-07
5.35984e-05
4.95042e-07
6.1494e-05
4.12579e-07
7.05485e-05
3.20603e-07
8.09305e-05
2.37049e-07
7.67149e-05
1.58069e-07
7.66733e-05
8.45266e-08
7.66325e-05
1.71003e-08
7.65928e-05
-4.37179e-08
7.65544e-05
-9.75882e-08
7.65173e-05
-1.44302e-07
7.64816e-05
-1.80632e-07
6.98181e-05
-2.08127e-07
6.27326e-05
-2.28704e-07
5.63691e-05
-2.4391e-07
5.06533e-05
-2.5497e-07
4.55188e-05
-2.62851e-07
4.09061e-05
-2.68306e-07
3.67619e-05
-2.71922e-07
3.30384e-05
-2.74149e-07
2.96926e-05
-2.75335e-07
2.6686e-05
-2.75746e-07
2.39843e-05
-2.75586e-07
2.15563e-05
-2.7501e-07
1.93743e-05
1.74133e-05
-2.74137e-07
1.1068e-07
8.86911e-06
3.25256e-07
1.27418e-05
5.47232e-07
1.64217e-05
6.59032e-07
1.99525e-05
6.87418e-07
2.33276e-05
6.77032e-07
2.69142e-05
6.46257e-07
3.09374e-05
6.02034e-07
3.5521e-05
5.47056e-07
4.07668e-05
4.82232e-07
4.6779e-05
4.0762e-07
5.36731e-05
3.22913e-07
6.15787e-05
2.27791e-07
7.06437e-05
1.22359e-07
8.10359e-05
2.71736e-08
7.68101e-05
-6.22467e-08
7.67628e-05
-1.44901e-07
7.67152e-05
-2.19951e-07
7.66679e-05
-2.86751e-07
7.66212e-05
-3.44831e-07
7.65754e-05
-3.93883e-07
7.65306e-05
-4.30651e-07
6.98548e-05
-4.57128e-07
6.27591e-05
-4.75643e-07
5.63876e-05
-4.88065e-07
5.06657e-05
-4.95872e-07
4.55266e-05
-5.00226e-07
4.09105e-05
-5.02027e-07
3.67637e-05
-5.01967e-07
3.30383e-05
-5.00576e-07
2.96912e-05
-4.98258e-07
2.66837e-05
-4.95316e-07
2.39813e-05
-4.9198e-07
2.1553e-05
-4.88418e-07
1.93707e-05
1.74096e-05
-4.84758e-07
7.98253e-08
8.78928e-06
2.42163e-07
1.25795e-05
4.31362e-07
1.62325e-05
5.39961e-07
1.98439e-05
5.67059e-07
2.33005e-05
5.5273e-07
2.69285e-05
5.15654e-07
3.09744e-05
4.62977e-07
3.55737e-05
3.9753e-07
4.08322e-05
3.20332e-07
4.68562e-05
2.31547e-07
5.37618e-05
1.30994e-07
6.16793e-05
1.85365e-08
7.07561e-05
-1.05424e-07
8.11599e-05
-2.16669e-07
7.69214e-05
-3.20536e-07
7.68666e-05
-4.15866e-07
7.68105e-05
-5.01647e-07
7.67536e-05
-5.77059e-07
7.66966e-05
-6.41482e-07
7.66398e-05
-6.94488e-07
7.65837e-05
-7.32709e-07
6.98931e-05
-7.58698e-07
6.27851e-05
-7.75309e-07
5.64042e-05
-7.8483e-07
5.06752e-05
-7.8907e-07
4.55309e-05
-7.89443e-07
4.09109e-05
-7.87042e-07
3.67613e-05
-7.82705e-07
3.3034e-05
-7.77066e-07
2.96855e-05
-7.70607e-07
2.66773e-05
-7.63683e-07
2.39744e-05
-7.5656e-07
2.15458e-05
-7.49429e-07
1.93636e-05
1.74026e-05
-7.42427e-07
5.43791e-08
8.73488e-06
1.74227e-07
1.24596e-05
3.26999e-07
1.60797e-05
4.25849e-07
1.9745e-05
4.47757e-07
2.32786e-05
4.26282e-07
2.695e-05
3.80012e-07
3.10207e-05
3.16043e-07
3.56377e-05
2.37135e-07
4.09111e-05
1.4427e-07
4.69491e-05
3.76153e-08
5.38685e-05
-8.29508e-08
6.17999e-05
-2.17396e-07
7.08906e-05
-3.64994e-07
8.13075e-05
-4.9683e-07
7.70532e-05
-6.1931e-07
7.69891e-05
-7.31073e-07
7.69223e-05
-8.309e-07
7.68535e-05
-9.17767e-07
7.67835e-05
-9.90878e-07
7.67129e-05
-1.04966e-06
7.66424e-05
-1.09051e-06
6.99339e-05
-1.11665e-06
6.28112e-05
-1.13161e-06
5.64192e-05
-1.13817e-06
5.06818e-05
-1.13856e-06
4.55313e-05
-1.13452e-06
4.09068e-05
-1.12737e-06
3.67542e-05
-1.11815e-06
3.30248e-05
-1.10762e-06
2.9675e-05
-1.09636e-06
2.6666e-05
-1.0848e-06
2.39629e-05
-1.07325e-06
2.15343e-05
-1.06194e-06
1.93523e-05
1.73917e-05
-1.05101e-06
3.06383e-08
8.70425e-06
1.1505e-07
1.23752e-05
2.31804e-07
1.5963e-05
3.1507e-07
1.96617e-05
3.27946e-07
2.32657e-05
2.9622e-07
2.69817e-05
2.37817e-07
3.10791e-05
1.59624e-07
3.57158e-05
6.41668e-08
4.10066e-05
-4.77468e-08
4.7061e-05
-1.76042e-07
5.39968e-05
-3.20843e-07
6.19447e-05
-4.81995e-07
7.10517e-05
-6.58434e-07
8.14839e-05
-8.15519e-07
7.72103e-05
-9.60938e-07
7.71345e-05
-1.09308e-06
7.70544e-05
-1.21047e-06
7.69709e-05
-1.31186e-06
7.68849e-05
-1.39622e-06
7.67973e-05
-1.4628e-06
7.6709e-05
-1.50763e-06
6.99787e-05
-1.53473e-06
6.28383e-05
-1.54837e-06
5.64328e-05
-1.552e-06
5.06854e-05
-1.54832e-06
4.55276e-05
-1.53946e-06
4.0898e-05
-1.52705e-06
3.67418e-05
-1.51234e-06
3.301e-05
-1.49627e-06
2.96589e-05
-1.47955e-06
2.66493e-05
-1.46269e-06
2.3946e-05
-1.44606e-06
2.15177e-05
-1.42994e-06
1.93361e-05
1.73762e-05
-1.41449e-06
9.7326e-09
8.6945e-06
6.22114e-08
1.23227e-05
1.43917e-07
1.58813e-05
2.06625e-07
1.9599e-05
2.06776e-07
2.32655e-05
1.61832e-07
2.70266e-05
8.83972e-08
3.11525e-05
-7.01616e-09
3.58113e-05
-1.22205e-07
4.11218e-05
-2.56634e-07
4.71955e-05
-4.10416e-07
5.41506e-05
-5.83759e-07
6.2118e-05
-7.76426e-07
7.12444e-05
-9.87018e-07
8.16945e-05
-1.17414e-06
7.73974e-05
-1.34698e-06
7.73074e-05
-1.50363e-06
7.72111e-05
-1.64233e-06
7.71096e-05
-1.76152e-06
7.70041e-05
-1.85993e-06
7.68957e-05
-1.93658e-06
7.67857e-05
-1.98696e-06
7.00291e-05
-2.01599e-06
6.28674e-05
-2.02884e-06
5.64457e-05
-2.02968e-06
5.06863e-05
-2.02181e-06
4.55197e-05
-2.00781e-06
4.0884e-05
-1.98967e-06
3.67236e-05
-1.96891e-06
3.29893e-05
-1.94669e-06
2.96367e-05
-1.92385e-06
2.66265e-05
-1.90104e-06
2.39232e-05
-1.87869e-06
2.14953e-05
-1.85712e-06
1.93146e-05
1.73556e-05
-1.83654e-06
-7.60752e-09
8.70213e-06
1.44796e-08
1.23007e-05
6.19587e-08
1.58338e-05
1.00155e-07
1.95608e-05
8.40243e-08
2.32817e-05
2.29841e-08
2.70877e-05
-6.83393e-08
3.12439e-05
-1.83938e-07
3.59269e-05
-3.22031e-07
4.12599e-05
-4.82446e-07
4.73559e-05
-6.65571e-07
5.43337e-05
-8.71764e-07
6.23242e-05
-1.10076e-06
7.14734e-05
-1.35086e-06
8.19446e-05
-1.57288e-06
7.76194e-05
-1.77775e-06
7.75122e-05
-1.96322e-06
7.73965e-05
-2.12716e-06
7.72735e-05
-2.2677e-06
7.71446e-05
-2.38324e-06
7.70112e-05
-2.47252e-06
7.68749e-05
-2.53031e-06
7.00869e-05
-2.56249e-06
6.28995e-05
-2.57526e-06
5.64584e-05
-2.57364e-06
5.06846e-05
-2.5616e-06
4.55077e-05
-2.54226e-06
4.08646e-05
-2.51803e-06
3.66994e-05
-2.49076e-06
3.2962e-05
-2.46183e-06
2.96078e-05
-2.43229e-06
2.65969e-05
-2.40291e-06
2.38938e-05
-2.37421e-06
2.14666e-05
-2.34659e-06
1.9287e-05
1.73293e-05
-2.32029e-06
-2.38298e-08
8.72596e-06
-3.03597e-08
1.23072e-05
-1.61892e-08
1.58196e-05
-5.25754e-09
1.95499e-05
-4.09068e-08
2.33173e-05
-1.2076e-07
2.71675e-05
-2.32582e-07
3.13557e-05
-3.71097e-07
3.60654e-05
-5.35043e-07
4.14238e-05
-7.24697e-07
4.75455e-05
-9.40809e-07
5.45498e-05
-1.18397e-06
6.25673e-05
-1.45396e-06
7.17434e-05
-1.7488e-06
8.22395e-05
-2.01054e-06
7.78811e-05
-2.25208e-06
7.77538e-05
-2.47076e-06
7.76152e-05
-2.66406e-06
7.74668e-05
-2.82971e-06
7.73102e-05
-2.96574e-06
7.71473e-05
-3.07055e-06
7.69797e-05
-3.13791e-06
7.01543e-05
-3.17477e-06
6.29364e-05
-3.18848e-06
5.64721e-05
-3.18498e-06
5.06812e-05
-3.16903e-06
4.54917e-05
-3.14435e-06
4.08399e-05
-3.11383e-06
3.66689e-05
-3.0797e-06
3.29279e-05
-3.04364e-06
2.95717e-05
-3.0069e-06
2.65602e-05
-2.97041e-06
2.38573e-05
-2.93483e-06
2.1431e-05
-2.90061e-06
1.92527e-05
1.72968e-05
-2.86805e-06
-4.07285e-08
8.76668e-06
-7.37918e-08
1.23403e-05
-9.17491e-08
1.58376e-05
-1.09936e-07
1.95681e-05
-1.67882e-07
2.33753e-05
-2.69023e-07
2.72687e-05
-4.03678e-07
3.14903e-05
-5.67545e-07
3.62292e-05
-7.60002e-07
4.16163e-05
-9.81857e-07
4.77674e-05
-1.2343e-06
5.48022e-05
-1.51823e-06
6.28513e-05
-1.83357e-06
7.20587e-05
-2.17815e-06
8.2584e-05
-2.48429e-06
7.81873e-05
-2.7671e-06
7.80366e-05
-3.02345e-06
7.78716e-05
-3.25038e-06
7.76937e-05
-3.44516e-06
7.7505e-05
-3.60536e-06
7.73075e-05
-3.72897e-06
7.71034e-05
-3.80848e-06
7.02338e-05
-3.85194e-06
6.29799e-05
-3.86794e-06
5.64881e-05
-3.86348e-06
5.06767e-05
-3.84416e-06
4.54724e-05
-3.81439e-06
4.08102e-05
-3.77761e-06
3.66321e-05
-3.73649e-06
3.28868e-05
-3.69303e-06
2.95283e-05
-3.64875e-06
2.65159e-05
-3.60475e-06
2.38133e-05
-3.56183e-06
2.13881e-05
-3.52055e-06
1.92115e-05
1.72575e-05
-3.48128e-06
-5.80935e-08
8.82477e-06
-1.16318e-07
1.23985e-05
-1.65122e-07
1.58864e-05
-2.13504e-07
1.96165e-05
-2.96043e-07
2.34578e-05
-4.20526e-07
2.73931e-05
-5.80004e-07
3.16498e-05
-7.71318e-07
3.64206e-05
-9.94592e-07
4.18395e-05
-1.25124e-06
4.8024e-05
-1.54297e-06
5.5094e-05
-1.87109e-06
6.31794e-05
-2.23575e-06
7.24234e-05
-2.63471e-06
8.2983e-05
-2.98975e-06
7.85423e-05
-3.31831e-06
7.83652e-05
-3.61677e-06
7.817e-05
-3.88165e-06
7.79586e-05
-4.10972e-06
7.77331e-05
-4.29805e-06
7.74958e-05
-4.44411e-06
7.72494e-05
-4.53876e-06
7.03284e-05
-4.59117e-06
6.30323e-05
-4.61125e-06
5.65082e-05
-4.60714e-06
5.06726e-05
-4.58535e-06
4.54506e-05
-4.55108e-06
4.07759e-05
-4.50838e-06
3.65894e-05
-4.4604e-06
3.28388e-05
-4.40953e-06
2.94774e-05
-4.35756e-06
2.64639e-05
-4.30583e-06
2.37616e-05
-4.25531e-06
2.13376e-05
-4.20665e-06
1.91628e-05
1.72112e-05
-4.16032e-06
-7.5549e-08
8.90031e-06
-1.57905e-07
1.24808e-05
-2.3638e-07
1.59649e-05
-3.15344e-07
1.96954e-05
-4.24138e-07
2.35666e-05
-5.73531e-07
2.75425e-05
-7.59377e-07
3.18357e-05
-9.79809e-07
3.6641e-05
-1.23576e-06
4.20955e-05
-1.52932e-06
4.83176e-05
-1.8628e-06
5.54274e-05
-2.23803e-06
6.35546e-05
-2.65549e-06
7.28408e-05
-3.11293e-06
8.34404e-05
-3.52084e-06
7.89502e-05
-3.89931e-06
7.87436e-05
-4.24416e-06
7.85149e-05
-4.55135e-06
7.82658e-05
-4.81705e-06
7.79988e-05
-5.03776e-06
7.77165e-05
-5.21035e-06
7.7422e-05
-5.32361e-06
7.04417e-05
-5.38782e-06
6.30965e-05
-5.41427e-06
5.65347e-05
-5.41229e-06
5.06706e-05
-5.3894e-06
4.54277e-05
-5.35163e-06
4.07381e-05
-5.30371e-06
3.65415e-05
-5.24933e-06
3.27844e-05
-5.19131e-06
2.94194e-05
-5.13178e-06
2.64044e-05
-5.07234e-06
2.37021e-05
-5.01413e-06
2.12794e-05
-4.95797e-06
1.91066e-05
1.71576e-05
-4.9044e-06
-9.26627e-08
8.99297e-06
-1.9812e-07
1.25863e-05
-3.05077e-07
1.60718e-05
-4.14503e-07
1.98049e-05
-5.50574e-07
2.37027e-05
-7.25956e-07
2.77179e-05
-9.39246e-07
3.20489e-05
-1.18996e-06
3.68917e-05
-1.4799e-06
4.23854e-05
-1.81192e-06
4.86496e-05
-2.189e-06
5.58045e-05
-2.61356e-06
6.39792e-05
-3.08652e-06
7.33138e-05
-3.60584e-06
8.39598e-05
-4.07019e-06
7.94146e-05
-4.50237e-06
7.91758e-05
-4.8977e-06
7.89102e-05
-5.25149e-06
7.86196e-05
-5.55929e-06
7.83066e-05
-5.81691e-06
7.79741e-05
-6.02054e-06
7.76256e-05
-6.15641e-06
7.05776e-05
-6.23581e-06
6.31759e-05
-6.27147e-06
5.65703e-05
-6.27394e-06
5.06731e-05
-6.25182e-06
4.54056e-05
-6.21202e-06
4.06983e-05
-6.16002e-06
3.64895e-05
-6.1001e-06
3.27245e-05
-6.03556e-06
2.93548e-05
-5.96892e-06
2.63378e-05
-5.90206e-06
2.36353e-05
-5.83635e-06
2.12137e-05
-5.77276e-06
1.9043e-05
1.70968e-05
-5.71199e-06
-1.09183e-07
9.10215e-06
-2.36723e-07
1.27138e-05
-3.70818e-07
1.62059e-05
-5.0995e-07
1.9944e-05
-6.73632e-07
2.38663e-05
-8.75546e-07
2.79198e-05
-1.1168e-06
3.22902e-05
-1.39838e-06
3.71733e-05
-1.72302e-06
4.27101e-05
-2.09438e-06
4.9021e-05
-2.51615e-06
5.62263e-05
-2.99143e-06
6.44545e-05
-3.52179e-06
7.38441e-05
-4.10564e-06
8.45436e-05
-4.62937e-06
7.99383e-05
-5.11864e-06
7.96651e-05
-5.56817e-06
7.93597e-05
-5.97268e-06
7.90241e-05
-6.327e-06
7.86609e-05
-6.62621e-06
7.82733e-05
-6.86572e-06
7.78651e-05
-7.02864e-06
7.07405e-05
-7.12718e-06
6.32744e-05
-7.17546e-06
5.66186e-05
-7.18529e-06
5.06829e-05
-7.16637e-06
4.53867e-05
-7.12656e-06
4.06585e-05
-7.07212e-06
3.64351e-05
-7.00798e-06
3.26603e-05
-6.93799e-06
2.92848e-05
-6.86507e-06
2.62649e-05
-6.79143e-06
2.35616e-05
-6.71871e-06
2.1141e-05
-6.64808e-06
1.89724e-05
1.70291e-05
-6.58036e-06
-1.24932e-07
9.22707e-06
-2.73375e-07
1.28623e-05
-4.33115e-07
1.63656e-05
-6.00666e-07
2.01115e-05
-7.91565e-07
2.40572e-05
-1.01993e-06
2.81482e-05
-1.28912e-06
3.25594e-05
-1.60155e-06
3.74857e-05
-1.96094e-06
4.30695e-05
-2.37173e-06
4.94317e-05
-2.83847e-06
5.6693e-05
-3.36507e-06
6.49811e-05
-3.9539e-06
7.4433e-05
-4.60397e-06
8.51937e-05
-5.18921e-06
8.05235e-05
-5.73825e-06
8.02141e-05
-6.24523e-06
7.98667e-05
-6.70423e-06
7.94831e-05
-7.10938e-06
7.9066e-05
-7.45494e-06
7.86189e-05
-7.73544e-06
7.81456e-05
-7.93031e-06
7.09353e-05
-8.05245e-06
6.33965e-05
-8.11733e-06
5.66835e-05
-8.13802e-06
5.07036e-05
-8.12534e-06
4.5374e-05
-8.0881e-06
4.06213e-05
-8.0334e-06
3.63804e-05
-7.96689e-06
3.25938e-05
-7.89296e-06
2.92109e-05
-7.81501e-06
2.61869e-05
-7.73563e-06
2.34823e-05
-7.65674e-06
2.10621e-05
-7.57974e-06
1.88954e-05
1.6955e-05
-7.50563e-06
-1.39609e-07
9.36667e-06
-3.07624e-07
1.30303e-05
-4.91123e-07
1.65491e-05
-6.85405e-07
2.03058e-05
-9.02628e-07
2.42745e-05
-1.15681e-06
2.84024e-05
-1.45331e-06
3.28559e-05
-1.79594e-06
3.78283e-05
-2.1894e-06
4.34629e-05
-2.63901e-06
4.98814e-05
-3.15021e-06
5.72042e-05
-3.72785e-06
6.55587e-05
-4.37519e-06
7.50803e-05
-5.09209e-06
8.59106e-05
-5.74008e-06
8.11715e-05
-6.3508e-06
8.08248e-05
-6.91787e-06
8.04338e-05
-7.43473e-06
8e-05
-7.89476e-06
7.95261e-05
-8.29138e-06
7.90155e-05
-8.61816e-06
7.84724e-05
-8.85021e-06
7.11674e-05
-9.0009e-06
6.35472e-05
-9.08693e-06
5.67695e-05
-9.12258e-06
5.07392e-05
-9.11976e-06
4.53712e-05
-9.08827e-06
4.05898e-05
-9.03609e-06
3.63282e-05
-8.96957e-06
3.25273e-05
-8.89373e-06
2.91351e-05
-8.81249e-06
2.61057e-05
-8.72883e-06
2.33986e-05
-8.64501e-06
2.09782e-05
-8.56269e-06
1.88131e-05
1.68754e-05
-8.48307e-06
-1.53011e-07
9.51967e-06
-3.38943e-07
1.32162e-05
-5.44187e-07
1.67544e-05
-7.63159e-07
2.05248e-05
-1.00523e-06
2.45165e-05
-1.28402e-06
2.86812e-05
-1.60663e-06
3.31785e-05
-1.97821e-06
3.81999e-05
-2.40444e-06
4.38891e-05
-2.89156e-06
5.03685e-05
-3.44588e-06
5.77585e-05
-4.07328e-06
6.61861e-05
-4.77809e-06
7.57851e-05
-5.56133e-06
8.66938e-05
-6.27234e-06
8.18825e-05
-6.94581e-06
8.14983e-05
-7.57489e-06
8.10628e-05
-8.15239e-06
8.05775e-05
-8.67096e-06
8.00446e-05
-9.12318e-06
7.94677e-05
-9.50157e-06
7.88508e-05
-9.77629e-06
7.14421e-05
-9.96084e-06
6.37318e-05
-1.00731e-05
5.68818e-05
-1.01283e-05
5.07945e-05
-1.01396e-05
4.53824e-05
-1.01176e-05
4.05678e-05
-1.00713e-05
3.62818e-05
-1.00077e-05
3.24637e-05
-9.9325e-06
2.90599e-05
-9.85019e-06
2.60234e-05
-9.76418e-06
2.33126e-05
-9.67709e-06
2.08911e-05
-9.59088e-06
1.87269e-05
1.67915e-05
-9.50698e-06
-1.64948e-07
9.68461e-06
-3.669e-07
1.34181e-05
-5.91766e-07
1.69792e-05
-8.33019e-07
2.0766e-05
-1.09793e-06
2.47814e-05
-1.39965e-06
2.89829e-05
-1.74668e-06
3.35255e-05
-2.14542e-06
3.85986e-05
-2.60251e-06
4.43462e-05
-3.12505e-06
5.0891e-05
-3.72034e-06
5.83538e-05
-4.3953e-06
6.68611e-05
-5.15554e-06
7.65453e-05
-6.00347e-06
8.75417e-05
-6.77675e-06
8.26558e-05
-7.5131e-06
8.22347e-05
-8.20524e-06
8.1755e-05
-8.84545e-06
8.12177e-05
-9.42571e-06
8.06249e-05
-9.93769e-06
7.99797e-05
-1.03729e-05
7.9286e-05
-1.06958e-05
7.1765e-05
-1.09198e-05
6.39558e-05
-1.10636e-05
5.70256e-05
-1.11436e-05
5.08744e-05
-1.11737e-05
4.54125e-05
-1.11656e-05
4.05597e-05
-1.1129e-05
3.62452e-05
-1.10718e-05
3.24065e-05
-1.10004e-05
2.89885e-05
-1.09197e-05
2.59427e-05
-1.08338e-05
2.32266e-05
-1.07455e-05
2.08029e-05
-1.06573e-05
1.86386e-05
1.67049e-05
-1.05707e-05
-1.75291e-07
9.85989e-06
-3.91253e-07
1.36341e-05
-6.33361e-07
1.72213e-05
-8.94306e-07
2.1027e-05
-1.17968e-06
2.50668e-05
-1.50221e-06
2.93054e-05
-1.8715e-06
3.38948e-05
-2.29511e-06
3.90222e-05
-2.78054e-06
4.48317e-05
-3.33577e-06
5.14462e-05
-3.96908e-06
5.89871e-05
-4.68856e-06
6.75806e-05
-5.50119e-06
7.7358e-05
-6.41105e-06
8.84516e-05
-7.24481e-06
8.34895e-05
-8.04315e-06
8.3033e-05
-8.79849e-06
8.25103e-05
-9.50268e-06
8.19219e-05
-1.01471e-05
8.12693e-05
-1.07225e-05
8.05551e-05
-1.12194e-05
7.97829e-05
-1.1596e-05
7.21417e-05
-1.18651e-05
6.42249e-05
-1.20462e-05
5.72066e-05
-1.21563e-05
5.09846e-05
-1.22104e-05
4.54665e-05
-1.22209e-05
4.05703e-05
-1.21985e-05
3.62228e-05
-1.21517e-05
3.23598e-05
-1.20877e-05
2.89244e-05
-1.20119e-05
2.58669e-05
-1.19289e-05
2.31436e-05
-1.1842e-05
2.0716e-05
-1.17539e-05
1.85506e-05
1.66177e-05
-1.16667e-05
-1.8394e-07
1.00438e-05
-4.11781e-07
1.38619e-05
-6.68568e-07
1.74781e-05
-9.46465e-07
2.13049e-05
-1.24971e-06
2.537e-05
-1.59056e-06
2.96462e-05
-1.97958e-06
3.42838e-05
-2.4253e-06
3.9468e-05
-2.93607e-06
4.53424e-05
-3.5207e-06
5.20309e-05
-4.18844e-06
5.96549e-05
-4.94861e-06
6.83407e-05
-5.80968e-06
7.8219e-05
-6.77763e-06
8.94195e-05
-7.66905e-06
8.4381e-05
-8.52748e-06
8.38914e-05
-9.34518e-06
8.3328e-05
-1.01137e-05
8.26904e-05
-1.08238e-05
8.19794e-05
-1.14657e-05
8.1197e-05
-1.20286e-05
8.03458e-05
-1.24641e-05
7.25772e-05
-1.27839e-05
6.45448e-05
-1.3008e-05
5.74307e-05
-1.3154e-05
5.11306e-05
-1.32375e-05
4.555e-05
-1.32719e-05
4.06046e-05
-1.32684e-05
3.62193e-05
-1.32365e-05
3.23278e-05
-1.31839e-05
2.88717e-05
-1.31166e-05
2.57997e-05
-1.30398e-05
2.30668e-05
-1.29573e-05
2.06335e-05
-1.28721e-05
1.84654e-05
1.65321e-05
-1.27865e-05
-1.90843e-07
1.02347e-05
-4.2836e-07
1.40994e-05
-6.97223e-07
1.7747e-05
-9.89231e-07
2.15969e-05
-1.30754e-06
2.56883e-05
-1.66399e-06
3.00027e-05
-2.06992e-06
3.46898e-05
-2.53468e-06
3.99327e-05
-3.06738e-06
4.58751e-05
-3.67763e-06
5.26411e-05
-4.37567e-06
6.03529e-05
-5.17203e-06
6.91371e-05
-6.07679e-06
7.91238e-05
-7.09802e-06
9.04408e-05
-8.04328e-06
8.53262e-05
-8.95887e-06
8.4807e-05
-9.83713e-06
8.42063e-05
-1.06694e-05
8.35226e-05
-1.1446e-05
8.2756e-05
-1.21564e-05
8.19074e-05
-1.2789e-05
8.09784e-05
-1.32881e-05
7.30763e-05
-1.36641e-05
6.49208e-05
-1.39368e-05
5.77035e-05
-1.41245e-05
5.13182e-05
-1.42431e-05
4.56687e-05
-1.43067e-05
4.06683e-05
-1.43274e-05
3.624e-05
-1.43151e-05
3.23156e-05
-1.42782e-05
2.88349e-05
-1.42236e-05
2.57451e-05
-1.41567e-05
2.29999e-05
-1.40819e-05
2.05587e-05
-1.40026e-05
1.8386e-05
1.64509e-05
-1.39214e-05
-1.95993e-07
1.04306e-05
-4.4097e-07
1.43444e-05
-7.19308e-07
1.80253e-05
-1.02255e-06
2.19001e-05
-1.35302e-06
2.60188e-05
-1.7222e-06
3.03719e-05
-2.142e-06
3.51096e-05
-2.62249e-06
4.04132e-05
-3.17344e-06
4.64261e-05
-3.80521e-06
5.32729e-05
-4.52897e-06
6.10767e-05
-5.3565e-06
6.99646e-05
-6.29953e-06
8.00668e-05
-7.36836e-06
9.15096e-05
-8.36273e-06
8.63206e-05
-9.33169e-06
8.5776e-05
-1.02677e-05
8.51423e-05
-1.1162e-05
8.44169e-05
-1.20048e-05
8.35988e-05
-1.2785e-05
8.26875e-05
-1.34902e-05
8.16836e-05
-1.4057e-05
7.36431e-05
-1.4494e-05
6.53578e-05
-1.48208e-05
5.80303e-05
-1.50557e-05
5.15531e-05
-1.52152e-05
4.58281e-05
-1.53136e-05
4.07667e-05
-1.53637e-05
3.62901e-05
-1.53761e-05
3.2328e-05
-1.53598e-05
2.88186e-05
-1.53222e-05
2.57075e-05
-1.52692e-05
2.29469e-05
-1.52058e-05
2.04953e-05
-1.51357e-05
1.8316e-05
1.63772e-05
-1.5062e-05
-1.99399e-07
1.063e-05
-4.49656e-07
1.45947e-05
-7.34923e-07
1.83106e-05
-1.04655e-06
2.22117e-05
-1.38629e-06
2.63585e-05
-1.76525e-06
3.07508e-05
-2.19582e-06
3.55401e-05
-2.6886e-06
4.0906e-05
-3.25394e-06
4.69914e-05
-3.9029e-06
5.39218e-05
-4.64753e-06
6.18213e-05
-5.50081e-06
7.08179e-05
-6.47618e-06
8.10422e-05
-7.58616e-06
9.26196e-05
-8.62419e-06
8.73586e-05
-9.64187e-06
8.67937e-05
-1.06319e-05
8.61323e-05
-1.15857e-05
8.53707e-05
-1.24933e-05
8.45065e-05
-1.33435e-05
8.35377e-05
-1.41232e-05
8.24632e-05
-1.4761e-05
7.42809e-05
-1.52634e-05
6.58602e-05
-1.56495e-05
5.84163e-05
-1.59372e-05
5.18408e-05
-1.61431e-05
4.6034e-05
-1.62821e-05
4.09057e-05
-1.63672e-05
3.63752e-05
-1.64096e-05
3.23704e-05
-1.6419e-05
2.88279e-05
-1.64031e-05
2.56916e-05
-1.63686e-05
2.29124e-05
-1.63207e-05
2.04474e-05
-1.62637e-05
1.8259e-05
1.63144e-05
-1.62009e-05
-2.01211e-07
1.08312e-05
-4.54657e-07
1.48481e-05
-7.44388e-07
1.86003e-05
-1.06167e-06
2.2529e-05
-1.40781e-06
2.67047e-05
-1.79364e-06
3.11367e-05
-2.23181e-06
3.59783e-05
-2.73339e-06
4.14076e-05
-3.30921e-06
4.75672e-05
-3.97093e-06
5.45836e-05
-4.73141e-06
6.25818e-05
-5.6048e-06
7.16913e-05
-6.60617e-06
8.20436e-05
-7.75037e-06
9.37638e-05
-8.82609e-06
8.84343e-05
-9.88706e-06
8.78547e-05
-1.09265e-05
8.71717e-05
-1.19361e-05
8.63804e-05
-1.29064e-05
8.54768e-05
-1.38258e-05
8.44571e-05
-1.46809e-05
8.33184e-05
-1.53925e-05
7.49925e-05
-1.59644e-05
6.6432e-05
-1.64144e-05
5.88664e-05
-1.67603e-05
5.21866e-05
-1.70183e-05
4.6292e-05
-1.72036e-05
4.1091e-05
-1.73297e-05
3.65012e-05
-1.74082e-05
3.24489e-05
-1.7449e-05
2.88688e-05
-1.74606e-05
2.57032e-05
-1.745e-05
2.29018e-05
-1.74229e-05
2.04202e-05
-1.73839e-05
1.822e-05
1.62671e-05
-1.73366e-05
-2.01243e-07
1.10325e-05
-4.55877e-07
1.51027e-05
-7.47816e-07
1.88922e-05
-1.06822e-06
2.28494e-05
-1.41809e-06
2.70545e-05
-1.80798e-06
3.15265e-05
-2.25073e-06
3.6421e-05
-2.75771e-06
4.19145e-05
-3.34014e-06
4.81497e-05
-4.01019e-06
5.52536e-05
-4.78149e-06
6.33531e-05
-5.66926e-06
7.2579e-05
-6.69003e-06
8.30643e-05
-7.86115e-06
9.49349e-05
-8.96804e-06
8.95412e-05
-1.00663e-05
8.89529e-05
-1.11497e-05
8.82551e-05
-1.22108e-05
8.74415e-05
-1.32404e-05
8.65064e-05
-1.42273e-05
8.5444e-05
-1.51579e-05
8.4249e-05
-1.59451e-05
7.57797e-05
-1.65895e-05
6.70764e-05
-1.7108e-05
5.9385e-05
-1.75178e-05
5.25963e-05
-1.7835e-05
4.66092e-05
-1.80746e-05
4.13307e-05
-1.82501e-05
3.66767e-05
-1.83731e-05
3.25719e-05
-1.84537e-05
2.89494e-05
-1.85005e-05
2.575e-05
-1.85206e-05
2.29219e-05
-1.85203e-05
2.04198e-05
-1.85044e-05
1.82042e-05
-1.84769e-05
1.62396e-05
4.76241e-08
2.78135e-05
4.48269e-08
2.85527e-05
4.21194e-08
2.93116e-05
3.95009e-08
3.00906e-05
3.6975e-08
3.08904e-05
3.45404e-08
3.17114e-05
3.21996e-08
3.25542e-05
2.99504e-08
3.34195e-05
2.77945e-08
3.43077e-05
2.57284e-08
3.52196e-05
2.37526e-08
3.61557e-05
2.18869e-08
3.65907e-05
2.01912e-08
3.5553e-05
1.86414e-08
3.45447e-05
1.72207e-08
3.35649e-05
1.59105e-08
3.2613e-05
1.46987e-08
3.16881e-05
1.35707e-08
3.07894e-05
1.25179e-08
2.99163e-05
1.15292e-08
2.90678e-05
1.05988e-08
2.82435e-05
2.74425e-05
9.7194e-09
1.16002e-07
2.782e-05
1.0961e-07
2.85591e-05
1.03383e-07
2.93178e-05
9.73226e-08
3.00967e-05
9.14349e-08
3.08962e-05
8.57206e-08
3.17171e-05
8.01841e-08
3.25598e-05
7.48241e-08
3.34248e-05
6.96428e-08
3.43129e-05
6.46361e-08
3.52246e-05
5.98028e-08
3.61606e-05
5.52026e-08
3.65953e-05
5.09967e-08
3.55572e-05
4.71347e-08
3.45485e-05
4.35758e-08
3.35685e-05
4.02801e-08
3.26163e-05
3.7217e-08
3.16912e-05
3.43557e-08
3.07923e-05
3.16736e-08
2.99189e-05
2.91472e-08
2.90704e-05
2.67606e-08
2.82459e-05
2.74448e-05
2.44937e-08
1.29406e-07
2.78274e-05
1.22252e-07
2.85662e-05
1.15324e-07
2.93247e-05
1.08624e-07
3.01034e-05
1.02156e-07
3.09027e-05
9.59224e-08
3.17233e-05
8.99254e-08
3.25658e-05
8.4163e-08
3.34306e-05
7.86351e-08
3.43184e-05
7.33354e-08
3.52299e-05
6.82587e-08
3.61656e-05
6.34571e-08
3.66001e-05
5.90809e-08
3.55616e-05
5.50701e-08
3.45525e-05
5.1377e-08
3.35722e-05
4.79563e-08
3.26197e-05
4.47724e-08
3.16944e-05
4.1791e-08
3.07953e-05
3.8986e-08
2.99217e-05
3.63318e-08
2.9073e-05
3.38099e-08
2.82484e-05
2.74472e-05
3.14027e-08
9.36333e-08
2.78332e-05
8.8137e-08
2.85717e-05
8.29204e-08
2.93299e-05
7.79841e-08
3.01083e-05
7.33308e-08
3.09074e-05
6.89584e-08
3.17277e-05
6.48659e-08
3.25698e-05
6.10468e-08
3.34344e-05
5.74953e-08
3.4322e-05
5.41992e-08
3.52332e-05
5.11461e-08
3.61687e-05
4.83547e-08
3.66029e-05
4.58936e-08
3.5564e-05
4.37029e-08
3.45547e-05
4.17347e-08
3.35742e-05
3.99455e-08
3.26215e-05
3.83011e-08
3.1696e-05
3.677e-08
3.07968e-05
3.53287e-08
2.99232e-05
3.39546e-08
2.90744e-05
3.26324e-08
2.82497e-05
2.74485e-05
3.13463e-08
1.49438e-08
2.78355e-05
1.29537e-08
2.85737e-05
1.13351e-08
2.93316e-05
1.00852e-08
3.01095e-05
9.20133e-09
3.09083e-05
8.67554e-09
3.17282e-05
8.4995e-09
3.257e-05
8.65864e-09
3.34343e-05
9.13746e-09
3.43215e-05
9.91358e-09
3.52324e-05
1.09626e-08
3.61676e-05
1.22326e-08
3.66017e-05
1.36215e-08
3.55626e-05
1.50744e-08
3.45533e-05
1.65492e-08
3.35727e-05
1.80094e-08
3.26201e-05
1.9428e-08
3.16946e-05
2.07814e-08
3.07955e-05
2.20535e-08
2.99219e-05
2.32299e-08
2.90732e-05
2.43029e-08
2.82487e-05
2.74475e-05
2.52662e-08
-1.04526e-07
2.78327e-05
-1.01225e-07
2.85704e-05
-9.74244e-08
2.93278e-05
-9.31345e-08
3.01053e-05
-8.83657e-08
3.09035e-05
-8.31349e-08
3.1723e-05
-7.7461e-08
3.25644e-05
-7.13704e-08
3.34282e-05
-6.48922e-08
3.4315e-05
-5.80637e-08
3.52256e-05
-5.0926e-08
3.61605e-05
-4.36342e-08
3.65944e-05
-3.65404e-08
3.55555e-05
-2.96904e-08
3.45464e-05
-2.3117e-08
3.35661e-05
-1.68454e-08
3.26138e-05
-1.08915e-08
3.16886e-05
-5.26659e-09
3.07898e-05
2.48074e-11
2.99166e-05
4.98068e-09
2.90683e-05
9.60541e-09
2.8244e-05
2.74432e-05
1.39071e-08
-2.64375e-07
2.78229e-05
-2.5397e-07
2.856e-05
-2.42903e-07
2.93167e-05
-2.3119e-07
3.00935e-05
-2.18856e-07
3.08912e-05
-2.05928e-07
3.17101e-05
-1.92441e-07
3.25509e-05
-1.78438e-07
3.34142e-05
-1.63965e-07
3.43006e-05
-1.4908e-07
3.52107e-05
-1.33847e-07
3.61453e-05
-1.18558e-07
3.65791e-05
-1.03895e-07
3.55409e-05
-8.98918e-08
3.45324e-05
-7.65674e-08
3.35528e-05
-6.39313e-08
3.26012e-05
-5.19835e-08