/*--------------------------------*- C++ -*----------------------------------*\
  =========                 |
  \\      /  F ield         | OpenFOAM: The Open Source CFD Toolbox
   \\    /   O peration     | Website:  https://openfoam.org
    \\  /    A nd           | Version:  8
     \\/     M anipulation  |
\*---------------------------------------------------------------------------*/
FoamFile
{
    version     2.0;
    format      ascii;
    class       volScalarField;
    location    "0.18";
    object      p;
}
// * * * * * * * * * * * * * * * * * * * * * * * * * * * * * * * * * * * * * //

dimensions      [0 2 -2 0 0 0 0];

internalField   nonuniform List<scalar> 
15677
(
80.2238
79.8178
79.483
79.9721
79.4817
79.42
79.8919
79.5007
79.4296
79.3571
79.8724
79.5009
79.4301
79.3658
79.2634
79.8542
79.504
79.4306
79.3651
79.2709
79.1663
79.8313
79.5068
79.4307
79.3656
79.2709
79.173
79.0578
79.8065
79.5085
79.4305
79.3657
79.2717
79.173
79.0636
78.9274
79.7808
79.5096
79.4298
79.3654
79.2723
79.1738
79.0638
78.9325
78.7685
79.7539
79.5103
79.4287
79.3648
79.2727
79.1745
79.0645
78.9327
78.7729
78.5747
79.7259
79.5107
79.4272
79.3638
79.2731
79.1751
79.0653
78.9336
78.7733
78.5784
78.3386
79.6969
79.5106
79.4256
79.3628
79.2735
79.1757
79.0661
78.9345
78.7743
78.579
78.3415
78.0522
79.667
79.5095
79.424
79.362
79.2742
79.1766
79.067
78.9356
78.7755
78.5802
78.3422
78.0544
77.7077
79.636
79.5076
79.4227
79.3613
79.2751
79.1778
79.0683
78.9369
78.7769
78.5816
78.3437
78.0553
77.7091
77.2972
79.6077
79.5049
79.4217
79.361
79.2767
79.1797
79.0702
78.9389
78.7788
78.5835
78.3456
78.0571
77.71
77.2976
76.8132
79.5833
79.5016
79.4213
79.3611
79.2791
79.1826
79.0732
78.9418
78.7816
78.5862
78.3481
78.0594
77.7123
77.2989
76.8127
76.2488
79.5623
79.4984
79.4215
79.3617
79.2827
79.1871
79.0777
78.9462
78.7858
78.5901
78.3517
78.0627
77.7152
77.3014
76.8141
76.2471
75.5978
79.5446
79.4948
79.4223
79.3632
79.2876
79.1934
79.0842
78.9528
78.792
78.5958
78.3569
78.0674
77.7194
77.3051
76.817
76.2488
75.595
74.8555
79.5298
79.4907
79.4232
79.3653
79.2935
79.2021
79.0936
78.9623
78.8012
78.6043
78.3645
78.0742
77.7254
77.3104
76.8215
76.2522
75.5968
74.8513
74.018
79.5173
79.4863
79.4243
79.368
79.3
79.2127
79.1065
78.9757
78.8145
78.6168
78.3759
78.0843
77.7343
77.318
76.8281
76.2576
75.6008
74.8533
74.0123
73.0835
79.5068
79.482
79.4253
79.3712
79.3072
79.2242
79.1222
78.9942
78.8332
78.6348
78.3926
78.0992
77.7472
77.3291
76.8375
76.2655
75.6071
74.8578
74.0146
73.0762
72.0515
79.4983
79.4779
79.4265
79.375
79.315
79.2367
79.1394
79.0166
78.8588
78.66
78.4164
78.1208
77.7663
77.3455
76.8513
76.277
75.6166
74.8652
74.0196
73.0787
72.0425
70.9236
79.4917
79.4743
79.4277
79.3793
79.3233
79.2502
79.1581
79.0411
78.8899
78.6946
78.4497
78.1518
77.7939
77.3694
76.8715
76.2938
75.6303
74.8762
74.028
73.0842
72.0451
70.9128
69.7035
79.4866
79.4714
79.429
79.384
79.3322
79.2644
79.1782
79.0678
78.9238
78.7366
78.4954
78.1951
77.8334
77.4041
76.9011
76.3183
75.6503
74.8923
74.0407
73.0936
72.0511
70.9156
69.6908
68.3971
79.4825
79.4691
79.4302
79.3888
79.3415
79.2793
79.1996
79.0966
78.9609
78.7825
78.5511
78.2544
77.8887
77.4537
76.9439
76.3541
75.6794
74.9156
74.0591
73.1078
72.0614
70.9218
69.6936
68.3824
67.0167
79.4793
79.4673
79.4313
79.3933
79.3506
79.2947
79.2219
79.127
79.0008
78.8327
78.6119
78.3268
77.9645
77.523
77.0049
76.406
75.7221
74.9497
74.0858
73.1285
72.077
70.9329
69.7
68.3849
66.9984
65.5908
79.4766
79.4658
79.4324
79.3974
79.3591
79.3098
79.245
79.1589
79.043
78.8868
78.6786
78.406
78.057
77.6181
77.0904
76.48
75.784
74.9997
74.125
73.1586
72.0998
70.9497
69.7114
68.3909
66.9984
65.5317
64.0639
79.4745
79.4645
79.4333
79.4012
79.3668
79.3236
79.2676
79.1919
79.0873
78.9441
78.7504
78.4929
78.1582
77.7344
77.2079
76.5838
75.8723
75.0722
74.1825
73.2027
72.1329
70.9742
69.729
68.4022
67.0029
65.5375
63.9957
62.4209
79.4727
79.4636
79.434
79.4047
79.3738
79.3361
79.2883
79.2242
79.1331
79.0042
78.8266
78.5865
78.2696
77.8619
77.3518
76.7267
75.9963
75.1758
74.266
73.2676
72.1818
71.0099
69.7546
68.4197
67.0125
65.539
64.001
62.3958
60.7302
79.4712
79.4627
79.4346
79.4079
79.38
79.3473
79.307
79.2538
79.1779
79.0664
78.9065
78.6861
78.3898
78.0023
77.5099
76.902
76.1673
75.3217
74.3858
73.3623
72.2538
71.0628
69.7921
68.4455
67.0283
65.5452
63.9951
62.3852
60.7217
59.0059
79.47
79.4621
79.4352
79.4109
79.3856
79.3573
79.3238
79.2805
79.2191
79.1273
78.9893
78.7906
78.5177
78.1541
77.6842
77.0949
76.3776
75.5233
74.5547
73.4985
72.3594
71.1413
69.8481
68.4836
67.0525
65.5582
63.9991
62.3755
60.7053
59.0011
57.0658
79.469
79.4615
79.4358
79.4134
79.3906
79.3662
79.3388
79.3045
79.2562
79.1832
79.0705
78.8989
78.6521
78.3159
77.8731
77.3081
76.6096
75.7719
74.7889
73.6912
72.5118
71.2569
69.932
68.5414
67.0896
65.5798
64.0105
62.3803
60.6962
58.9827
57.0642
54.8928
79.4681
79.461
79.4364
79.4157
79.395
79.3741
79.3521
79.3259
79.2896
79.2338
79.1452
79.0054
78.7917
78.4862
78.0747
77.5396
76.8667
76.047
75.0786
73.9593
72.7283
71.4248
70.0563
68.629
67.1473
65.6146
64.03
62.3914
60.702
58.9747
57.047
54.8932
52.7188
79.4673
79.4606
79.4369
79.4177
79.3989
79.3812
79.3639
79.345
79.3193
79.2791
79.2127
79.1033
78.9291
78.6634
78.2873
77.7873
77.1465
76.3526
75.4001
74.292
73.0306
71.6643
70.2381
68.7603
67.2367
65.6708
64.0625
62.4097
60.7132
58.9801
57.0392
54.8775
52.7205
50.5693
79.4667
79.4603
79.4374
79.4194
79.4023
79.3874
79.3744
79.3619
79.3458
79.3197
79.2733
79.192
79.0556
78.838
78.509
78.0491
77.4465
76.686
75.7583
74.6625
73.4074
72.0003
70.4992
68.9541
67.3729
65.7602
64.1168
62.4406
60.7309
58.9907
57.0419
54.8695
52.7065
50.571
48.4641
79.46
79.466
79.4379
79.4209
79.4054
79.3929
79.3837
79.3769
79.3694
79.3558
79.3274
79.2716
79.1702
78.9991
78.7278
78.3226
77.7644
77.0446
76.1503
75.0766
73.8286
72.4213
70.8675
69.2344
67.5761
65.8991
64.2053
62.493
60.7604
59.0074
57.0506
54.8695
52.698
50.558
48.4654
46.416
79.4383
79.4597
79.4651
79.4223
79.4081
79.3978
79.3919
79.3902
79.3903
79.3878
79.3757
79.3429
79.2733
79.1452
78.9301
78.5933
78.0975
77.4256
76.5732
75.5314
74.301
72.8936
71.3312
69.6324
67.8728
66.1092
64.3452
62.5799
60.8106
59.0348
57.0648
54.8751
52.6951
50.5485
48.453
46.417
44.4348
79.4234
79.439
79.4593
79.4643
79.4105
79.4021
79.3992
79.402
79.4088
79.4163
79.4187
79.4064
79.3656
79.2768
79.1139
78.844
78.428
77.826
77.024
76.0238
74.8218
73.4256
71.854
70.1365
68.2971
66.4189
64.5596
62.7192
60.8949
59.0817
57.0883
54.8849
52.6971
50.5425
48.4423
46.405
44.4352
42.528
79.4126
79.425
79.4398
79.459
79.4635
79.4059
79.4057
79.4124
79.4252
79.4416
79.4568
79.463
79.4481
79.3948
79.2797
79.0722
78.7348
78.2244
77.4993
76.5504
75.3878
74.0144
72.4453
70.7076
68.838
66.8652
64.8786
62.9353
61.0318
59.1617
57.1296
54.9019
52.7014
50.5399
48.4327
46.3926
44.4232
42.5276
40.7016
79.4092
79.4154
79.4269
79.4407
79.4587
79.4628
79.4114
79.4217
79.4397
79.4639
79.4906
79.5132
79.5215
79.5003
79.4286
79.2785
79.0148
78.5954
77.9739
77.1078
75.9956
74.6569
73.1027
71.3567
69.4539
67.4381
65.3422
63.2598
61.2465
59.2938
57.2025
54.9345
52.7103
50.5376
48.4249
46.3793
44.409
42.5156
40.7005
38.9598
79.4163
79.4136
79.4186
79.4288
79.4415
79.4585
79.4621
79.4298
79.4526
79.4838
79.5206
79.5578
79.5867
79.5943
79.5618
79.464
79.2684
78.9348
78.4172
77.6665
76.6414
75.3497
73.8231
72.0815
70.1574
68.0941
65.9413
63.7351
61.5721
59.5035
57.326
54.9959
52.7318
50.5372
48.4151
46.3658
44.3919
42.4995
40.6883
38.958
37.3047
79.4368
79.4227
79.4184
79.4218
79.4307
79.4423
79.4582
79.4614
79.464
79.5014
79.5472
79.5973
79.6446
79.6779
79.6806
79.6302
79.4968
79.2429
78.824
78.1903
77.2914
76.0892
74.6035
72.8795
70.9467
68.847
66.6311
64.3537
62.053
59.8254
57.5262
55.1055
52.7789
50.5459
48.4041
46.3477
44.3724
42.4784
40.6703
38.9455
37.3022
35.7371
79.4738
79.4457
79.4294
79.4231
79.4249
79.4325
79.4431
79.458
79.4608
79.5169
79.5708
79.6324
79.696
79.7521
79.7864
79.7786
79.7018
79.5211
79.1942
78.6724
77.9033
76.837
75.4405
73.7481
71.82
69.696
67.4269
65.0698
62.6833
60.3052
57.8384
55.2893
52.8703
50.5759
48.3982
46.3251
44.3456
42.4529
40.6453
38.9255
37.2894
35.734
34.2566
79.5302
79.486
79.4548
79.4359
79.4277
79.4279
79.4343
79.4439
79.4577
79.4602
79.5917
79.6636
79.7417
79.8181
79.8805
79.911
79.8852
79.7712
79.5293
79.1125
78.4684
77.5439
76.291
74.6844
72.7755
70.6403
68.3289
65.9004
63.4171
60.9384
58.3091
55.5829
53.0322
50.6458
48.4091
46.3034
44.3108
42.4171
40.6136
38.8967
37.2674
35.7209
34.2529
32.8618
79.6094
79.5466
79.498
79.4637
79.4424
79.4322
79.4309
79.436
79.4446
79.4575
79.4597
79.6912
79.7823
79.8767
79.9641
80.0288
80.0489
79.9953
79.8312
79.5119
78.9861
78.1993
77.0987
75.641
73.811
71.679
69.3378
66.847
64.2729
61.6802
58.9359
56.0323
53.2993
50.7808
48.4545
46.2935
44.2724
42.3698
40.5688
38.8589
37.2349
35.6969
34.2395
32.8576
31.5505
79.7146
79.6312
79.5623
79.5097
79.4724
79.4487
79.4365
79.4337
79.4376
79.4454
79.4572
79.4592
79.8182
79.9289
80.0385
80.1336
80.1948
80.1957
80.1023
79.8726
79.4573
78.802
77.8509
76.554
74.8749
72.8112
70.4538
67.9118
65.2539
62.5506
59.6756
56.6379
53.7161
51.0144
48.5588
46.3124
44.2407
42.3143
40.5088
38.8052
37.1913
35.6609
34.2136
32.8438
31.5458
30.3201
79.8486
79.7431
79.6514
79.5776
79.5212
79.4808
79.4547
79.4407
79.4364
79.4392
79.4461
79.4569
79.4588
79.9751
80.1047
80.2269
80.3247
80.3745
80.3451
80.1972
79.884
79.3522
78.5451
77.4081
75.8957
73.9813
71.6775
69.0966
66.3639
63.5543
60.5496
57.3592
54.2858
51.3884
48.7526
46.3826
44.2315
42.2602
40.4362
38.7326
37.1288
35.6115
34.1742
32.8162
31.5318
30.3149
29.1674
80.014
79.8856
79.7688
79.671
79.5924
79.5322
79.4888
79.4604
79.4447
79.439
79.4407
79.4468
79.4566
79.4585
80.1633
80.31
80.4405
80.5339
80.562
80.4885
80.2689
79.852
79.1813
78.1997
76.8553
75.1103
72.95
70.4038
67.6067
64.6968
61.5644
58.2188
54.972
51.9088
49.0749
46.5317
44.2651
42.222
40.3596
38.643
37.0439
35.5406
34.1194
32.7736
31.5024
30.3007
29.1618
28.0888
80.2126
80.0616
79.9181
79.7937
79.69
79.6066
79.5426
79.4963
79.4658
79.4484
79.4415
79.4422
79.4475
79.4563
79.4581
80.3835
80.5437
80.6761
80.7558
80.7493
80.6151
80.3041
79.7611
78.9279
77.7488
76.1773
74.1852
71.7722
68.9867
65.9843
62.7275
59.2246
55.7971
52.5441
49.5345
46.7948
44.3656
42.2172
40.292
38.5441
36.9376
35.4438
34.0403
32.7136
31.4568
30.2696
29.1473
28.0829
27.0809
80.4453
80.2732
80.1023
79.9495
79.8179
79.7081
79.6199
79.5523
79.5035
79.4709
79.4519
79.4437
79.4435
79.4481
79.4561
79.4578
80.635
80.8032
80.9288
80.9825
80.9256
80.7116
80.2869
79.5938
78.574
77.1753
75.3588
73.1088
70.4415
67.4237
64.0478
60.3868
56.7707
53.3154
50.1045
47.1835
44.5639
42.2666
40.2479
38.4472
36.817
35.3214
33.9321
32.6268
31.3919
30.2213
29.1147
28.0681
27.0746
26.1399
80.7116
80.5218
80.3239
80.1416
79.9799
79.8406
79.7249
79.6323
79.5614
79.5101
79.4756
79.4552
79.4458
79.4447
79.4487
79.4558
79.4576
80.9152
81.0835
81.1911
81.2038
81.0779
80.7622
80.1997
79.3314
78.1011
76.4621
74.3859
71.8717
68.9519
65.5353
61.7173
57.9053
54.2338
50.8041
47.6754
44.8734
42.3958
40.2444
38.3636
36.6912
35.1798
33.7944
32.5077
31.2978
30.1517
29.0638
28.0341
27.0596
26.1333
25.2623
81.0093
80.8075
80.5847
80.373
80.1796
80.0083
79.8617
79.7405
79.6438
79.5698
79.5161
79.4799
79.4582
79.4476
79.4457
79.4492
79.4556
79.4573
81.2199
81.3779
81.4532
81.4069
81.1906
80.7489
80.0229
78.954
77.4901
75.5929
73.2467
70.4645
67.1277
63.2304
59.2162
55.3134
51.6445
48.2863
45.2759
42.6195
40.302
38.3066
36.5685
35.0258
33.6326
32.3555
31.1684
30.0507
28.9899
27.9808
27.0242
26.1181
25.2552
24.4442
81.3343
81.1287
80.8853
80.6456
80.4202
80.2151
80.0346
79.8811
79.7547
79.6542
79.5774
79.5216
79.4838
79.4607
79.4492
79.4466
79.4496
79.4554
79.4571
81.5423
81.6765
81.7023
81.576
81.2451
80.6516
79.7356
78.4413
76.7229
74.553
71.9276
68.7169
64.8666
60.7206
56.571
52.64
49.0264
45.7827
42.9232
40.4349
38.2911
36.4581
34.8647
33.4515
32.1745
31.0026
29.9118
28.8825
27.903
26.9689
26.0815
25.2397
24.4363
23.6831
81.6799
81.4822
81.2246
80.9606
80.7041
80.4641
80.2475
80.0585
79.8986
79.7675
79.6635
79.5841
79.5264
79.4871
79.4629
79.4506
79.4474
79.4499
79.4553
79.457
81.8729
81.9672
81.9229
81.6927
81.2212
80.4484
79.316
77.7727
75.7819
73.3257
70.266
66.5151
62.3618
58.0244
53.8065
49.9079
46.4012
43.3125
40.6326
38.3299
36.3691
34.702
33.2532
31.9673
30.8034
29.7331
28.7346
27.7895
26.8872
26.0242
25.202
24.4206
23.6723
23.0557
82.0372
81.8621
81.6
81.3177
81.0329
80.7583
80.504
80.2768
80.0799
79.9142
79.7788
79.6716
79.59
79.5305
79.4899
79.4647
79.4517
79.448
79.4502
79.4552
79.4568
82.1996
82.2344
82.0965
81.7362
81.096
80.1164
78.7418
76.9287
74.6479
71.7563
68.1335
64.0255
59.6191
55.1605
50.9445
47.1405
43.7911
40.8937
38.4165
36.3124
34.54
33.0394
31.7333
30.5715
29.5169
28.544
27.6333
26.7683
25.9392
25.1431
24.3821
23.6573
23.051
22.5282
82.3938
82.2604
82.0067
81.7148
81.4069
81.0996
80.8073
80.5398
80.3028
80.0986
79.9276
79.7884
79.6785
79.5947
79.5337
79.4921
79.4662
79.4526
79.4485
79.4505
79.4551
79.4567
82.5069
82.4597
82.2023
81.6832
80.8457
79.6316
77.9914
75.8874
73.173
69.6971
65.6651
61.2444
56.6563
52.1543
48.0139
44.3654
41.2184
38.5423
36.2852
34.3878
32.806
31.4703
30.3034
29.2615
28.3117
27.4316
26.6043
25.8151
25.0549
24.3218
23.6182
23.0402
22.5311
21.9738
82.7343
82.6661
82.4375
82.1481
81.8246
81.4888
81.1597
80.851
80.5714
80.3253
80.1147
79.9389
79.7963
79.6839
79.5983
79.5362
79.4938
79.4674
79.4533
79.4489
79.4506
79.4551
79.4566
82.7763
82.6218
82.2162
81.509
80.4448
78.9706
77.0407
74.5058
71.187
67.2547
62.8586
58.1996
53.5104
49.0452
45.0504
41.6116
38.7043
36.2719
34.2464
32.5597
31.1676
29.9934
28.9611
28.0343
27.1844
26.3923
25.644
24.9262
24.2308
23.5569
23.0007
22.5218
21.974
21.378
83.0399
83.065
82.8825
82.6114
82.2832
81.9253
81.5624
81.213
80.8892
80.5984
80.3442
80.1278
79.9479
79.8022
79.6878
79.601
79.538
79.4951
79.4683
79.4538
79.4492
79.4508
79.455
79.4564
82.9861
82.6966
82.1128
81.1865
79.8683
78.1065
75.7484
72.5914
68.7786
64.4449
59.7635
54.9441
50.2318
45.8778
42.0907
38.9062
36.267
34.0936
32.3056
30.8298
29.6239
28.6064
27.7035
26.8863
26.1312
25.4225
24.7484
24.0978
23.4633
22.9389
22.4826
21.9619
21.3735
20.7293
83.2886
83.4398
83.3288
83.0961
82.7774
82.4068
82.0154
81.6274
81.2592
80.9215
80.6207
80.3594
80.1378
79.9543
79.8063
79.6905
79.6028
79.5393
79.496
79.469
79.4542
79.4494
79.4508
79.455
79.4563
83.1114
82.6578
81.8641
80.6896
79.086
76.8982
73.9047
70.2286
65.9932
61.3395
56.4427
51.5324
46.8688
42.6938
39.1671
36.2723
33.9212
32.0155
30.4663
29.1983
28.1732
27.3064
26.5269
25.8138
25.1484
24.5182
23.9139
23.3263
22.8431
22.4202
21.9224
21.3578
20.7223
20.024
83.4547
83.7699
83.7604
83.5906
83.2999
82.9291
82.5173
82.0948
81.6834
81.298
80.9478
80.6381
80.3705
80.1445
79.9583
79.8087
79.692
79.6038
79.54
79.4965
79.4694
79.4545
79.4496
79.4509
79.455
79.4562
83.125
82.4764
81.4423
79.9845
77.956
75.1253
71.6004
67.495
62.9164
57.9993
52.9438
48.0082
43.4631
39.5291
36.3073
33.7287
31.6782
30.043
28.7299
27.6642
26.813
26.0901
25.4277
24.8131
24.232
23.6755
23.1368
22.703
22.3226
21.859
21.3171
20.7049
20.0161
19.2604
83.5097
84.0315
84.158
84.0805
83.8404
83.4861
83.0648
82.6144
82.163
81.7301
81.3291
80.9678
80.6503
80.3773
80.1481
79.9601
79.8096
79.6925
79.6042
79.5403
79.4968
79.4696
79.4546
79.4497
79.4508
79.455
79.4561
82.9966
82.123
80.8109
78.9282
76.2544
72.8909
68.941
64.4781
59.5961
54.457
49.2991
44.4074
40.0507
36.4149
33.5342
31.2901
29.5456
28.1789
27.096
26.2252
25.5399
24.9536
24.402
23.88
23.3783
22.8909
22.509
22.1798
21.7593
21.252
20.6629
19.9983
19.252
18.4349
83.4216
84.1982
84.4989
84.5481
84.3861
84.0687
83.6526
83.1838
82.6976
82.2195
81.7672
81.3523
80.9813
80.6572
80.3803
80.149
79.96
79.8092
79.6921
79.6039
79.5401
79.4967
79.4697
79.4548
79.4498
79.4508
79.455
79.4561
82.6939
81.5583
79.8251
77.2994
74.0986
70.3211
66.0063
61.2082
56.0485
50.7321
45.5364
40.7634
36.6646
33.3776
30.8661
28.9668
27.5282
26.4241
25.5632
24.8783
24.3503
23.8931
23.4458
23.0107
22.5834
22.2571
21.9821
21.6136
21.1499
20.5956
19.9553
19.2339
18.4261
17.5428
83.1544
84.2409
84.7577
84.9726
84.9209
84.6657
84.2732
83.7988
83.2857
82.7663
82.2639
81.7942
81.3672
80.988
80.6591
80.3799
80.1476
79.9583
79.8077
79.6909
79.603
79.5395
79.4964
79.4699
79.455
79.4498
79.4507
79.455
79.456
82.1744
80.6347
78.2721
75.2286
71.6271
67.4824
62.8088
57.6874
52.2818
46.8436
41.6846
37.1093
33.3347
30.4396
28.3166
26.7658
25.6278
24.7774
24.1284
23.62
23.2404
22.9045
22.555
22.2015
21.9412
21.7252
21.4119
21.0011
20.4909
19.8858
19.1898
18.4075
17.5337
16.5791
82.6606
84.1281
84.9056
85.3298
85.4258
85.2627
84.9166
84.4529
83.9239
83.3697
82.82
82.2959
81.8109
81.3736
80.9887
80.6568
80.3764
80.144
79.9552
79.8052
79.6889
79.6015
79.5387
79.4966
79.4702
79.4551
79.4497
79.4505
79.455
79.456
81.286
79.1534
76.2914
72.8596
68.8914
64.3723
59.3404
53.9142
48.3059
42.8142
37.7752
33.478
30.0883
27.619
25.8955
24.6908
23.8444
23.2365
22.7884
22.4463
22.2059
21.9837
21.7258
21.5478
21.4024
21.1496
20.795
20.3385
19.7782
19.1183
18.3623
17.5146
16.5698
15.539
83.818
81.7864
84.9103
85.5927
85.8784
85.8423
85.5701
85.1377
84.6071
84.0272
83.4353
82.8584
82.315
81.8172
81.3726
80.984
80.6508
80.3704
80.1387
79.9508
79.8017
79.6862
79.5998
79.5387
79.4972
79.4704
79.455
79.4496
79.4503
79.455
79.456
79.8452
77.2596
74.0272
70.2303
65.8774
60.9755
55.5923
49.8905
44.1363
38.6721
33.843
29.902
26.9492
24.9294
23.6088
22.7426
22.1759
21.7979
21.539
21.3529
21.2426
21.1267
21.0562
20.9992
20.8193
20.5269
20.1277
19.622
19.0078
18.2887
17.4682
16.5502
15.5296
14.4176
84.7327
83.1664
80.354
85.7301
86.2535
86.384
86.2182
85.842
85.328
84.7347
84.108
83.482
82.8809
82.3213
81.8142
81.365
80.9748
80.6417
80.3622
80.1318
79.9452
79.7972
79.6831
79.5995
79.5396
79.4975
79.4703
79.4548
79.4493
79.4501
79.455
79.456
78.0067
75.0942
71.5066
67.3179
62.5658
57.2786
51.559
45.6235
39.7951
34.451
29.9248
26.4121
23.9375
22.3809
21.4593
20.9199
20.619
20.4576
20.3756
20.3352
20.3464
20.4347
20.4943
20.4058
20.1885
19.8533
19.4062
18.8474
18.1752
17.3925
16.5027
15.5096
14.4082
13.2101
85.7047
84.2505
82.027
78.5386
86.5219
86.8646
86.8423
86.5521
86.0769
85.4861
84.8348
84.1656
83.5093
82.8877
82.3162
81.8032
81.3518
80.9616
80.6298
80.3521
80.1234
79.9383
79.7923
79.6825
79.6008
79.54
79.4973
79.47
79.4544
79.449
79.4498
79.455
79.4561
75.9072
72.6769
68.7003
64.1008
58.9399
53.2703
47.2398
41.1269
35.3116
30.1898
26.0582
23.0362
21.0692
19.9794
19.4469
19.2197
19.1694
19.2106
19.2937
19.3889
19.623
19.8542
19.8865
19.7638
19.5063
19.125
18.6262
18.0104
17.2757
16.4249
15.461
14.3877
13.2006
11.9116
86.6492
85.4125
83.2979
80.5223
76.4734
87.2569
87.4209
87.2512
86.8419
86.2732
85.611
84.9069
84.1996
83.5172
82.8804
82.3013
81.7854
81.3339
80.9453
80.6157
80.3402
80.1133
79.9309
79.791
79.6842
79.6015
79.5399
79.4968
79.4694
79.454
79.4487
79.4495
79.4551
79.4561
73.5602
69.973
65.5861
60.5611
54.9848
48.9426
42.6387
36.422
30.7225
25.9307
22.2796
19.7987
18.3558
17.7276
17.5694
17.6378
17.8221
18.0519
18.2885
18.6258
19.0164
19.2263
19.2292
19.0696
18.7687
18.3378
17.7834
17.1063
16.3048
15.381
14.338
13.1796
11.9022
10.5177
87.5299
86.5517
84.6893
81.9881
78.7605
74.1685
87.929
87.9198
87.6082
87.0857
86.4296
85.702
84.9502
84.21
83.5082
82.8613
82.2781
81.7618
81.3121
80.9261
80.5992
80.326
80.1027
79.9288
79.7933
79.6851
79.6013
79.5392
79.496
79.4689
79.4537
79.4483
79.4491
79.4551
79.4562
70.9252
66.9606
62.1463
56.6821
50.6871
44.2903
37.7661
31.5382
26.0706
21.7179
18.6233
16.7189
15.8047
15.6252
15.8233
16.1688
16.5716
16.9765
17.4785
17.9862
18.3606
18.5475
18.5185
18.3192
17.9715
17.4873
16.8732
16.1305
15.2573
14.2558
13.1289
11.8805
10.5085
9.02452
88.3393
87.6225
86.0677
83.6197
80.4271
76.7675
71.5768
88.5351
88.3581
87.9106
87.2818
86.5451
85.7581
84.9649
84.1997
83.4847
82.8321
82.2479
81.7334
81.2869
80.9042
80.5801
80.3114
80.0995
79.9319
79.7946
79.685
79.6004
79.538
79.4956
79.4687
79.4533
79.4478
79.4487
79.4552
79.4563
67.9803
63.6235
58.3642
52.4471
46.0337
39.3116
32.6392
26.5132
21.4045
17.5957
15.119
13.8113
13.4192
13.6698
14.203
14.8069
15.4123
16.111
16.8001
17.2949
17.6518
17.8138
17.7504
17.5084
17.1105
16.569
15.891
15.078
14.1286
13.0446
11.8289
10.4863
9.0157
7.428
89.0733
88.6157
87.3736
85.2497
82.3032
78.6622
74.5003
68.6755
89.071
88.7324
88.1565
87.429
86.6187
85.7796
84.9544
84.1719
83.449
82.7945
82.212
81.7011
81.2584
80.8789
80.5604
80.3067
80.1035
79.9336
79.7945
79.6839
79.5987
79.5376
79.4957
79.4684
79.4528
79.4472
79.4482
79.4552
79.4565
64.7113
59.947
54.2226
47.8378
41.0117
34.0084
27.2838
21.394
16.7769
13.6058
11.791
11.0853
11.1995
11.8564
12.7025
13.546
14.4804
15.3867
16.0673
16.5482
16.8861
17.0211
16.9208
16.6327
16.1809
15.5781
14.8318
13.944
12.9136
11.7425
10.4339
8.99349
7.42121
5.42122
89.7262
89.5255
88.5971
86.8038
84.1869
80.8059
76.6551
71.9373
65.4512
89.5325
89.0401
88.3442
87.526
86.6505
85.7706
84.9227
84.1293
83.403
82.7499
82.1713
81.6648
81.2258
80.853
80.5538
80.3119
80.1058
79.9334
79.793
79.6813
79.5987
79.5385
79.4956
79.4677
79.4521
79.4466
79.4477
79.4553
79.4567
61.1056
55.9152
49.7005
42.8324
35.6064
28.3878
21.7368
16.2364
12.2416
9.78557
8.65789
8.54557
9.14222
10.1792
11.3152
12.5337
13.7015
14.605
15.2764
15.7422
16.0594
16.1653
16.0251
15.6877
15.1781
14.5099
13.6909
12.7237
11.6078
10.3453
8.94026
7.39941
5.41227
3.06013
90.2927
90.3444
89.7329
88.2712
85.991
82.9599
79.0965
74.3808
69.0717
61.8926
89.9161
89.279
88.4719
87.5725
86.6454
85.7359
84.8732
84.0744
83.3488
82.6997
82.1259
81.6235
81.1925
80.8442
80.5605
80.3148
80.1056
79.9314
79.7897
79.6818
79.6002
79.5388
79.4951
79.4669
79.4512
79.4459
79.4471
79.4554
79.4569
57.1484
51.5071
44.7716
37.4021
29.803
22.4675
16.0482
11.1034
7.85091
6.1664
5.73191
6.192
7.24198
8.63095
10.2033
11.6886
12.8615
13.7621
14.4235
14.8727
15.1675
15.2419
15.0589
14.6686
14.0974
13.3595
12.4634
11.4124
10.2068
8.84943
7.34562
5.38728
3.04934
0.696063
90.7686
91.064
90.7721
89.6472
87.7032
85.0277
81.5455
77.1473
71.8335
65.9004
57.9864
90.2191
89.4467
88.5391
87.5746
86.6092
85.6797
84.8089
84.0096
83.2879
82.644
82.0746
81.5814
81.1809
80.8526
80.5642
80.3146
80.103
79.9274
79.7908
79.6847
79.6014
79.5387
79.4943
79.4657
79.45
79.4451
79.4464
79.4555
79.4571
52.8196
46.6958
39.3983
31.5122
23.5937
16.2803
10.2823
6.06218
3.65343
2.77257
3.01877
4.02097
5.49158
7.39242
9.27634
10.7785
11.9569
12.8542
13.5045
13.9357
14.206
14.2464
14.0175
13.5707
12.9339
12.1223
11.1447
10.0059
8.70709
7.2526
5.33105
3.0222
0.688094
-1.63924
91.1504
91.6773
91.7043
90.9219
89.3195
86.9963
83.9007
79.9126
74.9534
69.0155
62.4218
53.7139
90.4379
89.542
88.5527
87.5391
86.547
85.6057
84.7325
83.9367
83.2203
82.581
82.0222
81.5664
81.1914
80.8573
80.564
80.3113
80.0979
79.9293
79.7956
79.6872
79.602
79.5381
79.4931
79.4643
79.4487
79.4441
79.4457
79.4556
79.4575
48.0926
41.4422
33.5329
25.1302
16.9854
9.87912
4.51626
1.18124
-0.309165
-0.38028
0.518766
2.02588
4.09493
6.36189
8.27961
9.79973
10.984
11.8774
12.5154
12.9267
13.1706
13.1743
12.8962
12.3894
11.6831
10.7936
9.73082
8.50061
7.10636
5.2343
2.96303
0.663117
-1.64528
-3.92766
91.4334
92.1788
92.5193
92.0839
90.8302
88.8612
86.1498
82.5741
78.0552
72.5205
65.9342
58.6319
49.0501
90.5705
89.5728
88.521
87.4722
86.4634
85.5172
84.6466
83.8561
83.1443
82.5168
82.0034
81.5795
81.1972
80.857
80.5598
80.3049
80.1009
79.9365
79.7998
79.6888
79.6019
79.5371
79.4916
79.4626
79.4472
79.443
79.4449
79.4557
79.4578
42.929
35.6888
27.1134
18.22
9.99925
3.33953
-1.16172
-3.47395
-4.00495
-3.28421
-1.77273
0.438994
2.93583
5.25582
7.2096
8.74876
9.93887
10.8277
11.452
11.8416
12.0568
12.0211
11.6906
11.1201
10.3405
9.36947
8.21805
6.89428
5.08293
2.862
0.604889
-1.66947
-3.93268
-6.15684
91.6144
92.5619
93.2074
93.1215
92.2236
90.6123
88.2877
85.1221
81.0389
75.9811
69.8617
62.5995
54.524
43.9618
90.6258
89.5491
88.4515
87.3796
86.3624
85.4173
84.5516
83.7653
83.0666
82.4935
82.0194
81.5866
81.1969
80.8518
80.5518
80.3093
80.1113
79.9431
79.8029
79.6896
79.6013
79.5355
79.4896
79.4606
79.4454
79.4416
79.4441
79.4558
79.4582
37.266
29.35
20.0561
10.7464
2.68068
-3.23971
-6.65821
-7.84663
-7.41209
-5.939
-3.5885
-0.873927
1.69491
4.0712
6.06314
7.62209
8.81786
9.70112
10.3103
10.6763
10.8604
10.7825
10.3964
9.7587
8.90232
7.84648
6.60427
4.86411
2.70484
0.502918
-1.72684
-3.95719
-6.16083
-8.31134
91.7029
92.8206
93.7565
94.0228
93.4873
92.2373
90.3029
87.5521
83.8985
79.3028
73.7061
66.9947
59.0214
50.0903
38.3943
90.6157
89.4799
88.3509
87.266
86.2477
85.3066
84.4446
83.6726
83.0383
82.513
82.0279
81.5862
81.1905
80.842
80.5581
80.3238
80.121
79.9482
79.805
79.6896
79.5999
79.5334
79.4872
79.4582
79.4434
79.4401
79.4433
79.4559
79.4587
31.0125
22.3139
12.267
2.6989
-4.88799
-9.74015
-11.8828
-11.8911
-10.52
-8.03326
-5.08489
-2.2751
0.370137
2.80567
4.8373
6.41646
7.61748
8.49418
9.08666
9.42682
9.57748
9.45455
9.00965
8.30152
7.36532
6.22256
4.56533
2.47876
0.342844
-1.82883
-4.01436
-6.18552
-8.31421
-10.373
91.7132
92.9658
94.1532
94.771
94.6082
93.7232
92.1816
89.8528
86.6316
82.4849
77.3832
71.2524
63.9391
55.208
45.3113
32.2641
90.5509
89.3733
88.2253
87.136
86.1202
85.1818
84.335
83.6384
83.0618
82.5233
82.0275
81.5784
81.1784
80.8504
80.5776
80.3375
80.1289
79.9521
79.806
79.6887
79.5978
79.5306
79.4842
79.4554
79.4411
79.4385
79.4425
79.456
79.4592
24.0464
14.4339
3.65934
-5.89191
-12.5801
-16.0305
-16.7526
-15.5758
-12.9592
-9.75067
-6.67539
-3.76471
-1.03937
1.45734
3.52961
5.12903
6.33474
7.20367
7.77768
8.08986
8.20457
8.03378
7.52712
6.74575
5.72768
4.17181
2.17105
0.112254
-1.99017
-4.11669
-6.24215
-8.33872
-10.3751
-12.3244
91.658
93.0149
94.4061
95.3447
95.5656
95.0568
93.9089
92.01
89.2286
85.5278
80.898
75.3042
68.6451
60.714
51.1667
40.1517
25.4566
90.4409
89.2364
88.0798
86.9909
85.9762
85.0537
84.2944
83.6665
83.074
82.5228
82.0182
81.5637
81.1896
80.8762
80.5963
80.3489
80.1352
79.9547
79.8059
79.6868
79.5948
79.5271
79.4806
79.4522
79.4386
79.4368
79.4416
79.4561
79.4597
16.1814
5.51978
-5.82486
-14.9428
-20.2256
-21.9745
-21.1975
-18.4508
-14.9469
-11.5664
-8.35704
-5.34109
-2.53366
0.0251229
2.13832
3.7577
4.9672
5.82691
6.38059
6.66254
6.73878
6.51751
5.9465
5.08997
3.66127
1.76606
-0.201485
-2.22303
-4.279
-6.34435
-8.39423
-10.3993
-12.3254
-14.1462
91.5486
92.9832
94.5346
95.7475
96.3304
96.2155
95.4694
94.0075
91.6769
88.4252
84.2553
79.1624
73.0942
65.9107
57.34
46.9041
34.5658
17.7957
90.2946
89.0758
87.9164
86.8264
85.828
85.0061
84.3279
83.681
83.0735
82.5116
82.0002
81.5781
81.2228
80.9009
80.612
80.3583
80.1399
79.9559
79.8045
79.6837
79.5908
79.5227
79.4765
79.4486
79.4359
79.435
79.4408
79.4563
79.4603
7.13329
-4.66464
-16.1765
-24.3138
-27.618
-27.4411
-24.6453
-20.7747
-17.0333
-13.4723
-10.124
-7.00121
-4.11143
-1.49089
0.662753
2.30121
3.51317
4.362
4.89337
5.14281
5.1782
4.9041
4.26687
3.00306
1.24068
-0.614446
-2.53996
-4.51297
-6.50679
-8.49543
-10.4533
-12.349
-14.1477
-15.825
91.3954
92.8848
94.5576
95.9982
96.9021
97.1643
96.8365
95.8275
93.9614
91.1683
87.4535
82.8376
77.3074
70.7833
63.0762
53.8409
42.4239
28.4938
9.00482
90.1196
88.8939
87.7303
86.6565
85.7727
85.0456
84.3448
83.6804
83.0602
82.49
82.0186
81.6202
81.2548
80.9221
80.6255
80.3658
80.1428
79.9553
79.8016
79.6794
79.5857
79.5176
79.4719
79.4449
79.4332
79.4331
79.4399
79.4564
79.4609
-3.5561
-16.3507
-27.3198
-33.8181
-34.5033
-31.6729
-27.3981
-23.1898
-19.2013
-15.4555
-11.9683
-8.74002
-5.76959
-3.08905
-0.896568
0.759293
1.97195
2.80798
3.31496
3.52971
3.52211
3.19336
2.15321
0.56345
-1.14993
-2.95724
-4.83096
-6.74045
-8.65661
-10.5527
-12.4012
-14.1712
-15.825
-17.3413
91.2078
92.7325
94.4929
96.1155
97.2996
97.9002
97.9682
97.4376
96.0639
93.7445
90.4888
86.3344
81.3037
75.3643
68.4026
60.1713
50.2441
37.727
21.8593
-1.38046
89.9193
88.6855
87.5374
86.5929
85.8191
85.0653
84.3441
83.6648
83.0344
82.5128
82.071
81.6608
81.2825
80.9404
80.6365
80.3711
80.1436
79.9529
79.7971
79.6736
79.5795
79.5117
79.4668
79.4409
79.4303
79.4312
79.4391
79.4566
79.4616
-16.6578
-29.7339
-39.1677
-42.9993
-39.8099
-34.9981
-30.2122
-25.6633
-21.427
-17.5005
-13.879
-10.5498
-7.50286
-4.76601
-2.53771
-0.866965
0.344093
1.16507
1.64557
1.82369
1.77122
1.04518
-0.310825
-1.83985
-3.49806
-5.24928
-7.05729
-8.88801
-10.7111
-12.498
-14.2209
-15.8474
-17.3406
-18.6787
90.9899
92.5371
94.3571
96.1179
97.5415
98.4428
98.8597
98.7846
97.9477
96.1384
93.3538
89.6556
85.0954
79.6849
73.3652
65.9843
57.2267
46.5812
32.8133
14.5781
-14.2553
89.6881
88.4683
87.4649
86.6471
85.8419
85.0646
84.3259
83.6341
83.0622
82.5771
82.1216
81.6962
81.3067
80.9559
80.6448
80.3737
80.142
79.9484
79.7907
79.6663
79.5723
79.5053
79.4614
79.4367
79.4272
79.4292
79.4382
79.4568
79.4623
-33.6797
-44.318
-50.9339
-50.1653
-43.9232
-38.309
-33.0299
-28.1537
-23.6832
-19.5878
-15.842
-12.4201
-9.30366
-6.51653
-4.25703
-2.57498
-1.3685
-0.565028
-0.113016
0.026657
-0.421004
-1.44989
-2.73019
-4.19452
-5.79093
-7.4734
-9.20103
-10.9382
-12.6525
-14.3142
-15.8942
-17.3611
-18.6763
-19.8228
90.7363
92.3038
94.1645
96.0245
97.6463
98.8119
99.5338
99.8566
99.548
98.3115
96.0373
92.8004
88.6938
83.7675
78.0134
71.3423
63.5603
54.2747
42.8983
27.6853
6.58919
-31.7141
89.4457
88.3864
87.5278
86.6734
85.8411
85.0434
84.2897
83.6677
83.14
82.6392
82.166
81.7275
81.3275
80.968
80.6499
80.3733
80.1377
79.9414
79.7823
79.6576
79.5643
79.4983
79.4557
79.4323
79.4241
79.4272
79.4374
79.4569
79.463
-54.5972
-57.7846
-61.811
-55.3596
-47.8521
-41.5072
-35.7857
-30.6168
-25.9386
-21.6939
-17.8392
-14.3373
-11.162
-8.33328
-6.04907
-4.36052
-3.1622
-2.37891
-1.95749
-2.21518
-2.9548
-3.88947
-5.09316
-6.48816
-8.01153
-9.61147
-11.2447
-12.8733
-14.463
-15.9833
-17.405
-18.6953
-19.8189
-20.7608
90.4694
92.0286
93.9229
95.8532
97.6323
99.0266
100.014
100.676
100.843
100.189
98.5027
95.7641
92.1057
87.6331
82.3822
76.3204
69.3252
61.1634
51.3625
39.2532
22.3711
-1.91419
-54.7205
89.3539
88.4591
87.558
86.6725
85.8167
85.0009
84.3296