/*--------------------------------*- C++ -*----------------------------------*\
  =========                 |
  \\      /  F ield         | OpenFOAM: The Open Source CFD Toolbox
   \\    /   O peration     | Website:  https://openfoam.org
    \\  /    A nd           | Version:  8
     \\/     M anipulation  |
\*---------------------------------------------------------------------------*/
FoamFile
{
    version     2.0;
    format      ascii;
    class       volScalarField;
    location    "0.31";
    object      nut;
}
// * * * * * * * * * * * * * * * * * * * * * * * * * * * * * * * * * * * * * //

dimensions      [0 2 -1 0 0 0 0];

internalField   nonuniform List<scalar> 
15677
(
0.000168165
0.000652166
0.000148205
0.0015121
0.000443125
0.000141308
0.00267208
0.000878256
0.000381082
0.000142211
0.00391635
0.0015228
0.000687376
0.000354351
0.000145358
0.00501906
0.0023605
0.00114806
0.00058609
0.000340323
0.000151151
0.00583676
0.00332125
0.00178302
0.000948711
0.00052955
0.000332046
0.000156959
0.0063334
0.00430121
0.00256999
0.00146465
0.000821441
0.000492609
0.000326988
0.000162408
0.00656228
0.00518827
0.00345483
0.00213308
0.00125803
0.000737497
0.000467489
0.000324098
0.000167181
0.00665821
0.00589327
0.00435652
0.00292348
0.00184246
0.00111266
0.000677457
0.000450439
0.000322511
0.000171402
0.00670542
0.00633805
0.00518131
0.00377995
0.0025578
0.0016322
0.00100469
0.000634093
0.000438656
0.000321945
0.000174958
0.00671436
0.00655333
0.00584533
0.00462576
0.00336331
0.00228683
0.00147269
0.000924144
0.00060211
0.000430713
0.000321874
0.000178084
0.0067099
0.00666147
0.00629548
0.00537719
0.00419714
0.00304541
0.00207766
0.00134883
0.000862037
0.000578481
0.000425227
0.000322347
0.000180691
0.00670626
0.00669874
0.00652943
0.00596426
0.00498402
0.00385714
0.00279535
0.00191133
0.00125083
0.000813866
0.000560703
0.000421744
0.000322967
0.000183018
0.00670536
0.00670438
0.00664671
0.00635662
0.00564969
0.0046554
0.00358266
0.00259289
0.0017771
0.00117249
0.000776002
0.000547536
0.000419372
0.000323879
0.00018505
0.00670539
0.00670288
0.00668782
0.00656271
0.00614167
0.00536783
0.00438037
0.00335598
0.00242683
0.00166724
0.00110895
0.000746226
0.000537425
0.000418155
0.000324718
0.000186847
0.00670553
0.00670167
0.00669634
0.00665644
0.00644647
0.00593299
0.00511995
0.00414739
0.00316704
0.00228867
0.0015767
0.00105722
0.000722502
0.000530156
0.000417274
0.000325759
0.000188496
0.0067056
0.00670122
0.00669707
0.00668484
0.00660464
0.0063212
0.00573645
0.0049025
0.00394926
0.00300766
0.00217322
0.00150151
0.00101518
0.000704011
0.000524429
0.000417145
0.000326686
0.000189895
0.00670561
0.00670114
0.00669668
0.00669161
0.00666358
0.00654087
0.00618743
0.00555559
0.00471261
0.00377945
0.00287281
0.00207611
0.00143912
0.000981073
0.000689101
0.000520554
0.000417068
0.000327754
0.000191316
0.00670559
0.00670116
0.00669639
0.00669269
0.00668221
0.0066343
0.00646723
0.00605681
0.00539205
0.00454646
0.00363387
0.00275816
0.00199455
0.00138749
0.000953141
0.000677715
0.000517424
0.000417572
0.000328723
0.000192418
0.00670557
0.0067012
0.00669625
0.00669264
0.00668723
0.00666897
0.00659766
0.0063886
0.00593342
0.0052449
0.00440171
0.00350872
0.00266093
0.00192623
0.00134477
0.000930792
0.000668523
0.000515665
0.000417968
0.000329777
0.000193735
0.00670555
0.00670123
0.00669619
0.00669254
0.00668817
0.00668068
0.00665118
0.00655559
0.00630988
0.00581798
0.00511401
0.00427557
0.00340165
0.00257873
0.0018693
0.00130989
0.000912742
0.000661905
0.000514185
0.000418853
0.000330796
0.000194609
0.00670554
0.00670124
0.00669615
0.0066925
0.00668816
0.00668412
0.00667153
0.00662999
0.00651056
0.00623173
0.00571256
0.00499783
0.00416659
0.00331044
0.00250989
0.00182242
0.00128163
0.000898795
0.000656611
0.000513832
0.000419552
0.000331813
0.000195911
0.00670554
0.00670124
0.00669613
0.00669249
0.00668802
0.00668495
0.0066784
0.00666117
0.0066056
0.00646406
0.00615856
0.00561672
0.00489638
0.00407301
0.0032337
0.00245289
0.00178438
0.00125933
0.000887986
0.000653416
0.000513474
0.000420692
0.00033294
0.000196617
0.00670554
0.00670124
0.00669611
0.00669249
0.00668791
0.00668507
0.00668035
0.00667314
0.00664807
0.00657993
0.00641825
0.00609001
0.00553203
0.00480823
0.00399378
0.00316987
0.00240675
0.00175448
0.0012424
0.000880409
0.000650886
0.000514112
0.000421581
0.000333834
0.000197919
0.00670555
0.00670124
0.00669611
0.00669248
0.00668785
0.00668505
0.00668074
0.00667732
0.00666545
0.00663497
0.00655319
0.00637416
0.00602825
0.00545685
0.00473318
0.00392805
0.00311871
0.00237065
0.00173182
0.00122987
0.000874998
0.000650261
0.000514555
0.000422972
0.000335254
0.000198598
0.00670555
0.00670123
0.00669611
0.00669247
0.00668782
0.00668501
0.00668072
0.00667861
0.00667188
0.00665933
0.0066198
0.00652725
0.0063339
0.00597177
0.0053935
0.00467154
0.00387538
0.00307806
0.00234309
0.00171561
0.0012222
0.000872664
0.000649851
0.000515962
0.000423865
0.000335998
5.33157e-05
0.00670556
0.00670122
0.00669611
0.00669246
0.00668781
0.00668497
0.00668064
0.00667892
0.00667396
0.00666935
0.00665023
0.00660648
0.00650312
0.00629676
0.00592607
0.00534046
0.00462042
0.00383332
0.00304909
0.00232587
0.00170729
0.00121868
0.000871664
0.000651268
0.00051702
0.000426286
0.000283323
6.3227e-05
0.00670557
0.00670121
0.00669611
0.00669244
0.0066878
0.00668493
0.00668057
0.00667892
0.00667449
0.00667313
0.00666305
0.00664498
0.0065923
0.00648073
0.00626659
0.00588397
0.00529769
0.00458551
0.00380875
0.00303286
0.00231662
0.00170357
0.00121767
0.000873321
0.000652782
0.000519109
0.00041972
0.000219184
7.05408e-05
0.00670558
0.0067012
0.00669612
0.00669243
0.00668779
0.0066849
0.00668053
0.00667885
0.00667454
0.00667438
0.00666801
0.00666251
0.00663605
0.00658219
0.00646472
0.00623786
0.00585888
0.00527349
0.00456315
0.00379162
0.00302304
0.00231311
0.00170429
0.00122091
0.000876091
0.000655042
0.000520251
0.000399738
0.000177852
7.59215e-05
0.00670559
0.00670119
0.00669612
0.00669241
0.00668779
0.00668487
0.00668051
0.00667877
0.00667449
0.00667464
0.00666972
0.00666991
0.0066561
0.00663492
0.00657284
0.00644811
0.00622914
0.0058424
0.00525485
0.00454831
0.00378338
0.00302136
0.00231667
0.00171085
0.0012269
0.00088042
0.000658147
0.000518028
0.000366918
0.00015245
8.02631e-05
0.00670559
0.00670118
0.00669613
0.0066924
0.00668779
0.00668484
0.00668049
0.0066787
0.00667443
0.00667461
0.00667018
0.00667271
0.00666471
0.00666064
0.00662853
0.00657037
0.00644686
0.00622185
0.00583181
0.00524525
0.00454551
0.0037875
0.0030309
0.00232826
0.00172217
0.00123575
0.000886377
0.000661091
0.000511876
0.000335728
0.000134169
8.35924e-05
0.0067056
0.00670117
0.00669614
0.00669239
0.00668779
0.00668481
0.00668048
0.00667863
0.00667439
0.00667449
0.00667025
0.00667351
0.00666815
0.00667231
0.00665563
0.00663668
0.00657301
0.00644911
0.0062198
0.00583256
0.00525202
0.00455735
0.00380382
0.00304937
0.00234642
0.00173777
0.00124746
0.000893427
0.00066355
0.000500397
0.000305622
0.000121264
8.59434e-05
0.00670561
0.00670116
0.00669614
0.00669237
0.00668779
0.00668479
0.00668047
0.00667857
0.00667435
0.00667437
0.00667021
0.00667361
0.00666934
0.0066771
0.0066681
0.00667059
0.00664206
0.00658104
0.00645695
0.00623169
0.00584931
0.00527234
0.00458184
0.00383082
0.00307642
0.00237092
0.00175734
0.00126148
0.000901551
0.000664628
0.000484919
0.000279617
0.000112805
8.76731e-05
0.00670562
0.00670115
0.00669615
0.00669236
0.0066878
0.00668477
0.00668046
0.00667852
0.00667432
0.00667425
0.00667015
0.00667349
0.00666968
0.00667867
0.00667369
0.00668695
0.00667777
0.0066541
0.00659756
0.00647806
0.00625768
0.00587943
0.00530647
0.0046187
0.00386847
0.00311184
0.00240122
0.00178064
0.00127798
0.000910385
0.000664567
0.000467999
0.000259824
0.000107069
8.90065e-05
0.00670114
0.00670563
0.00669615
0.00669235
0.0066878
0.00668475
0.00668046
0.00667848
0.00667429
0.00667415
0.00667009
0.00667332
0.00666972
0.00667902
0.00667594
0.00669422
0.00669526
0.0066925
0.00667677
0.00662547
0.00651177
0.00629721
0.00592432
0.00535439
0.0046682
0.0039164
0.00315512
0.00243729
0.00180734
0.00129617
0.000920672
0.00066317
0.000452819
0.000244652
0.000103048
9.0083e-05
0.00669616
0.00670115
0.00670565
0.00669234
0.00668781
0.00668473
0.00668046
0.00667844
0.00667428
0.00667406
0.00667003
0.00667314
0.00666967
0.00667895
0.00667674
0.00669703
0.00670334
0.00671174
0.00671914
0.00670956
0.00666578
0.00655954
0.0063521
0.00598391
0.00541657
0.00472984
0.00397449
0.00320622
0.0024784
0.00183735
0.00131903
0.000933055
0.000661251
0.000439914
0.000232827
0.000100194
9.09899e-05
0.00669233
0.00669619
0.00670117
0.00670567
0.00668781
0.00668471
0.00668046
0.0066784
0.00667427
0.00667397
0.00666999
0.00667298
0.0066696
0.00667876
0.00667699
0.00669803
0.00670671
0.006721
0.00674097
0.00675584
0.00675511
0.00672024
0.00662311
0.00642334
0.00605999
0.00549341
0.00480417
0.00404233
0.00326422
0.00252463
0.00187371
0.00134631
0.00094611
0.000659822
0.000429093
0.000223498
9.81131e-05
9.17795e-05
0.00668782
0.00669235
0.00669625
0.00670118
0.00670569
0.00668469
0.00668047
0.00667836
0.00667427
0.0066739
0.00666995
0.00667283
0.00666953
0.00667853
0.00667704
0.00669832
0.00670805
0.00672518
0.00675201
0.00678061
0.00680541
0.00681493
0.00679091
0.00670338
0.00651202
0.00615213
0.00558516
0.00488993
0.00411929
0.00332928
0.00258074
0.00191851
0.00137488
0.000959766
0.000658944
0.000420215
0.000215986
9.66055e-05
9.24859e-05
0.00668468
0.00668786
0.0066924
0.00669631
0.0067012
0.00670571
0.00668047
0.00667833
0.00667427
0.00667383
0.00666993
0.0066727
0.00666946
0.00667831
0.00667701
0.00669834
0.00670857
0.00672705
0.00675741
0.00679377
0.00683317
0.00686906
0.00689107
0.0068786
0.00680189
0.00661794
0.00626088
0.00569169
0.00498818
0.00420532
0.00340804
0.00264926
0.0019668
0.00140465
0.000974139
0.000659035
0.000412795
0.00020988
9.54815e-05
9.31278e-05
0.00668048
0.00668471
0.00668795
0.00669246
0.00669637
0.00670122
0.00670573
0.00667829
0.00667427
0.00667376
0.00666992
0.00667258
0.0066694
0.00667811
0.00667698
0.00669826
0.00670878
0.00672798
0.00676019
0.00680086
0.00684938
0.00690138
0.00695159
0.00698561
0.00698438
0.00691769
0.00674121
0.00638546
0.00581208
0.00509758
0.00430952
0.00350421
0.00272274
0.00201784
0.0014354
0.000988908
0.00065979
0.000406709
0.000204811
9.46652e-05
9.37202e-05
0.00667827
0.00668054
0.00668478
0.00668805
0.00669251
0.00669644
0.00670124
0.00670576
0.00667428
0.0066737
0.00666992
0.00667247
0.00666936
0.00667794
0.00667693
0.00669815
0.00670885
0.00672851
0.00676182
0.00680496
0.0068589
0.00692108
0.00698925
0.00705384
0.00710282
0.00711185
0.00705193
0.00688066
0.00652492
0.00594459
0.00523168
0.00443726
0.00360704
0.0028004
0.00207098
0.00146695
0.00100448
0.000661733
0.000401681
0.00020051
9.40459e-05
9.42684e-05
0.00667429
0.00667829
0.00668066
0.00668486
0.00668815
0.00669257
0.0066965
0.00670126
0.00670578
0.00667363
0.00666992
0.00667237
0.00666932
0.00667779
0.00667689
0.00669804
0.00670888
0.00672886
0.00676292
0.0068077
0.00686508
0.00693372
0.00701403
0.00709812
0.00717983
0.0072421
0.00726324
0.00720807
0.00703496
0.00667724
0.00610489
0.00539291
0.0045748
0.0037161
0.00288115
0.00212579
0.00149893
0.00101976
0.000664475
0.000397592
0.00019687
9.36067e-05
9.47813e-05
0.00667358
0.00667436
0.00667836
0.00668078
0.00668493
0.00668825
0.00669262
0.00669657
0.00670128
0.0067058
0.00666994
0.00667226
0.0066693
0.00667766
0.00667685
0.00669794
0.00670889
0.00672913
0.00676377
0.0068098
0.00686964
0.00694268
0.00703158
0.0071295
0.00723307
0.00733016
0.00740689
0.00743694
0.0073869
0.00720932
0.00685795
0.00629426
0.00556336
0.00471933
0.00383014
0.00296436
0.00218162
0.00153149
0.001035
0.000667528
0.000394305
0.00019371
9.32694e-05
9.52585e-05
0.00666995
0.00667356
0.00667449
0.00667843
0.00668091
0.00668501
0.00668835
0.00669268
0.00669664
0.0067013
0.00670583
0.00667216
0.0066693
0.00667755
0.0066768
0.00669785
0.0067089
0.00672936
0.00676448
0.00681156
0.00687334
0.0069498
0.00704513
0.00715345
0.00727379
0.00739484
0.00750924
0.00759708
0.0076346
0.00758586
0.00742454
0.0070791
0.00649349
0.00574073
0.00486765
0.00394652
0.00304905
0.00223802
0.00156432
0.00105004
0.000671076
0.000391613
0.000191
9.30462e-05
9.57073e-05
0.00667207
0.00667001
0.00667359
0.00667463
0.00667851
0.00668105
0.00668509
0.00668847
0.00669273
0.00669671
0.00670132
0.00670585
0.00666931
0.00667745
0.00667674
0.00669779
0.00670891
0.00672956
0.00676509
0.0068131
0.00687649
0.0069559
0.0070565
0.00717297
0.00730729
0.00744776
0.00758922
0.00771698
0.00781502
0.00785616
0.00782924
0.0076874
0.00731939
0.00669786
0.00591913
0.00501751
0.00406426
0.00313435
0.0022945
0.00159709
0.00106498
0.000675016
0.000389446
0.000188602
9.28729e-05
9.61245e-05
0.00666934
0.00667195
0.0066701
0.00667361
0.00667478
0.00667859
0.00668119
0.00668517
0.00668858
0.00669279
0.00669679
0.00670135
0.00670588
0.00667734
0.00667668
0.00669776
0.00670894
0.00672975
0.00676564
0.00681448
0.00687925
0.00696134
0.00706648
0.00718996
0.00733623
0.00749384
0.00765879
0.00781618
0.00795731
0.0080611
0.00812918
0.00812776
0.00797005
0.0075756
0.00691357
0.00609896
0.00516775
0.00418169
0.00321934
0.00235063
0.00162955
0.00107966
0.000679153
0.000387727
0.000186532
9.27776e-05
9.65179e-05
0.00667723
0.00666931
0.00667183
0.00667021
0.00667364
0.00667494
0.00667866
0.00668134
0.00668525
0.0066887
0.00669286
0.00669686
0.00670137
0.0067059
0.00667662
0.00669778
0.00670898
0.00672993
0.00676612
0.00681572
0.00688173
0.00696629
0.00707542
0.00720532
0.00736234
0.00753491
0.00772242
0.00790731
0.0080818
0.00823092
0.00836699
0.00846716
0.00845194
0.0082695
0.00784076
0.00713643
0.00627737
0.00531526
0.00429744
0.00330334
0.00240598
0.00166151
0.00109408
0.000683226
0.000386387
0.000184673
9.27025e-05
9.68822e-05
0.00667658
0.00667694
0.0066692
0.00667169
0.00667033
0.00667366
0.00667512
0.00667874
0.0066815
0.00668533
0.00668882
0.00669292
0.00669694
0.0067014
0.00670592
0.00669784
0.00670901
0.00673008
0.00676655
0.00681684
0.00688397
0.00697081
0.0070835
0.00721947
0.00738632
0.00757254
0.00778127
0.00799447
0.0082017
0.00838684
0.00857471
0.00875042
0.00883839
0.00879865
0.00858255
0.00811227
0.00736383
0.00645724
0.00545931
0.00441063
0.00338557
0.00246022
0.00169277
0.00110838
0.000687239
0.000385316
0.000183061
9.26842e-05
9.72265e-05
0.00669795
0.00667608
0.00667647
0.00666911
0.00667155
0.00667048
0.00667367
0.0066753
0.00667882
0.00668166
0.00668542
0.00668894
0.00669299
0.00669701
0.00670142
0.00670594
0.00670902
0.0067302
0.00676692
0.00681785
0.006886
0.00697494
0.00709086
0.00723259
0.00740842
0.00760758
0.00783688
0.00807727
0.00831983
0.00854313
0.00877572
0.00901255
0.00917775
0.00924081
0.00916543
0.00890656
0.00838784
0.0075914
0.00663762
0.00559952
0.00452054
0.00346571
0.00251305
0.00172321
0.00112237
0.000691176
0.00038448
0.000181592
9.26684e-05
9.75437e-05
0.00670899
0.00669739
0.00667517
0.00667596
0.00666909
0.00667139
0.00667066
0.00667369
0.0066755
0.0066789
0.00668183
0.00668551
0.00668907
0.00669306
0.00669708
0.00670145
0.00670595
0.00673029
0.00676724
0.00681877
0.00688786
0.00697871
0.00709758
0.00724474
0.00742879
0.0076405
0.00788979
0.00815611
0.00843387
0.0087031
0.00898724
0.00928004
0.00950918
0.00964978
0.00967451
0.00955131
0.00923976
0.00866555
0.007817
0.00681647
0.00573588
0.00462702
0.00354321
0.00256424
0.00175272
0.00113596
0.000695026
0.000383815
0.000180315
9.26965e-05
9.78443e-05
0.00673038
0.00670795
0.00669593
0.00667449
0.00667536
0.00666914
0.0066712
0.00667087
0.0066737
0.00667571
0.00667898
0.006682
0.00668561
0.00668919
0.00669313
0.00669715
0.00670148
0.00670597
0.00676751
0.00681961
0.00688957
0.00698216
0.00710373
0.00725596
0.00744753
0.00767151
0.00793985
0.00823106
0.0085448
0.00886416
0.00921168
0.00957236
0.00986491
0.010074
0.0101745
0.0101438
0.00995731
0.00958139
0.00894403
0.00803956
0.00699221
0.00586719
0.00472884
0.00361773
0.00261361
0.00178121
0.00114913
0.000698778
0.000383292
0.000179136
9.27164e-05
9.81198e-05
0.00676778
0.00672883
0.00670583
0.00669417
0.00667409
0.00667465
0.00666928
0.00667099
0.0066711
0.00667372
0.00667592
0.00667908
0.00668217
0.00668571
0.0066893
0.0066932
0.00669721
0.00670151
0.00670598
0.00682039
0.00689114
0.00698531
0.00710936
0.00726629
0.0074648
0.00770067
0.00798681
0.00830237
0.00865378
0.00902603
0.00943855
0.00989025
0.0102769
0.0105649
0.0107351
0.0107686
0.0106562
0.0103857
0.00993139
0.00922242
0.00825824
0.00716404
0.00599525
0.00482599
0.00368905
0.002661
0.00180862
0.00116183
0.000702417
0.000382869
0.00017811
9.27716e-05
9.83815e-05
0.00682116
0.00676521
0.00672555
0.00670366
0.00669214
0.00667399
0.00667384
0.00666948
0.00667078
0.00667134
0.00667375
0.00667613
0.00667918
0.00668233
0.00668581
0.00668941
0.00669327
0.00669727
0.00670154
0.006706
0.00689259
0.00698818
0.00711452
0.00727575
0.0074807
0.00772793
0.00803056
0.00837046
0.00876073
0.00918612
0.00966237
0.0102272
0.0107697
0.0111919
0.0114434
0.0115268
0.0114476
0.0112176
0.010838
0.0102896
0.00950004
0.00847248
0.00733035
0.0061197
0.00491861
0.00375708
0.00270635
0.00183489
0.00117404
0.000705935
0.000382576
0.000177151
9.2813e-05
9.85908e-05
0.00689395
0.0068179
0.00675956
0.00672236
0.00670162
0.00668961
0.00667416
0.00667295
0.00666974
0.00667057
0.00667158
0.00667379
0.00667633
0.0066793
0.00668249
0.00668592
0.00668951
0.00669334
0.00669733
0.00670157
0.00670601
0.00699078
0.00711923
0.0072844
0.00749533
0.00775324
0.00807121
0.00843557
0.0088644
0.00934112
0.00988405
0.0105979
0.0113606
0.0120122
0.0124047
0.0125344
0.0124583
0.012212
0.0118263
0.0113127
0.0106548
0.00977615
0.00868173
0.00749072
0.00623992
0.00500682
0.00382181
0.00274959
0.00185999
0.00118573
0.000709322
0.000382317
0.000176318
9.2872e-05
9.8766e-05
0.00699319
0.0068893
0.0068102
0.00675395
0.00671938
0.00670022
0.00668677
0.0066745
0.00667205
0.00667
0.0066704
0.00667181
0.00667387
0.00667652
0.00667942
0.00668263
0.00668602
0.00668961
0.00669341
0.00669738
0.0067016
0.00670602
0.00712351
0.00729227
0.00750876
0.00777662
0.00810894
0.00849757
0.0089632
0.00948971
0.0101105
0.01102
0.0120611
0.0130032
0.0136394
0.0138764
0.0137919
0.0134947
0.0130403
0.0124711
0.0118044
0.0110247
0.0100498
0.00888557
0.00764504
0.0063555
0.0050907
0.00388324
0.00279072
0.00188391
0.0011969
0.000712579
0.000382155
0.000175639
9.29136e-05
9.89549e-05
0.00712744
0.00698685
0.00687793
0.00680252
0.00674858
0.00671651
0.00669916
0.00668383
0.00667489
0.0066712
0.00667024
0.00667028
0.00667201
0.00667397
0.0066767
0.00667955
0.00668277
0.00668613
0.00668971
0.00669347
0.00669744
0.00670163
0.00670603
0.00729941
0.00752104
0.00779809
0.00814393
0.00855611
0.0090561
0.00963295
0.010349
0.0114954
0.0128429
0.0140846
0.0149894
0.0154494
0.0154469
0.0151083
0.0145702
0.0138956
0.0131331
0.0123045
0.0113958
0.0103196
0.00908353
0.00779324
0.00646622
0.00517034
0.00394145
0.00282974
0.00190666
0.00120755
0.00071569
0.000382025
0.000175099
9.29773e-05
9.91596e-05
0.00730588
0.00711887
0.00697058
0.00686655
0.006795
0.00674336
0.00671385
0.00669823
0.00668098
0.00667521
0.00667048
0.0066704
0.00667024
0.00667218
0.00667409
0.00667685
0.00667969
0.00668289
0.00668623
0.0066898
0.00669354
0.00669749
0.00670165
0.00670604
0.00753224
0.00781773
0.00817631
0.00861083
0.00914288
0.00977287
0.010602
0.0120075
0.0136478
0.0151474
0.0162813
0.0169692
0.0171878
0.0169458
0.0163735
0.0156163
0.0147379
0.0137909
0.0128026
0.0117636
0.0105842
0.00927519
0.00793526
0.00657198
0.00524584
0.00399649
0.00286668
0.00192825
0.00121767
0.000718278
0.000381939
0.00017451
9.30374e-05
9.93811e-05
0.00754237
0.00729478
0.00709589
0.00695425
0.00685543
0.00678756
0.00673841
0.00671134
0.00669732
0.00667842
0.00667531
0.00666996
0.00667047
0.00667028
0.00667231
0.00667424
0.006677
0.00667982
0.00668301
0.00668634
0.00668988
0.00669361
0.00669754
0.00670167
0.00670604
0.00783564
0.00820614
0.00866152
0.00922399
0.00991099
0.0108657
0.0125294
0.0144172
0.0161043
0.0173963
0.0182575
0.0186921
0.0186951
0.0182648
0.0175126
0.0165818
0.0155343
0.014425
0.0132887
0.0121238
0.010842
0.00946012
0.00807109
0.00667273
0.00531731
0.00404846
0.00290161
0.00194868
0.001226
0.000720489
0.000381839
0.000173902
9.3127e-05
9.96221e-05
0.00785169
0.0075279
0.00726294
0.00707283
0.00693828
0.00684454
0.00678016
0.00673385
0.00670887
0.00669633
0.00667645
0.0066751
0.00666967
0.00667045
0.00667037
0.00667242
0.00667439
0.00667713
0.00667996
0.00668313
0.00668644
0.00668997
0.00669368
0.00669756
0.00670167
0.00670604
0.00823354
0.00870817
0.00930011
0.0100474
0.0111322
0.0130352
0.0151106
0.0169105
0.0182865
0.0192514
0.0198422
0.0200705
0.0199178
0.019363
0.0184911
0.0174385
0.0162629
0.0150209
0.0137544
0.0124721
0.0110914
0.00963793
0.00820073
0.00676851
0.00538489
0.0040975
0.00293457
0.00196545
0.00123309
0.000722942
0.000381759
0.00017326
9.32106e-05
9.98827e-05
0.00825808
0.00783357
0.00748417
0.00723097
0.00705028
0.00692266
0.00683384
0.00677277
0.00672951
0.00670636
0.00669488
0.00667528
0.00667457
0.00666958
0.00667036
0.00667052
0.00667251
0.00667455
0.00667726
0.0066801
0.00668324
0.00668654
0.00669005
0.00669371
0.00669756
0.00670167
0.00670604
0.00875096
0.00937185
0.0101811
0.0113928
0.0135061
0.0157093
0.0175575
0.0189552
0.0199604
0.0206411
0.0210287
0.0211157
0.0208663
0.0202424
0.0193038
0.0181765
0.016913
0.0155692
0.0141933
0.0128053
0.0113312
0.00980828
0.0083242
0.00685938
0.00544867
0.00414361
0.00296152
0.00197968
0.00124087
0.000725641
0.000381683
0.000172579
9.33331e-05
0.000100166
0.00878902
0.00823529
0.00777427
0.00744029
0.00719963
0.00702822
0.00690738
0.00682336
0.00676552
0.00672531
0.00670382
0.00669267
0.00667478
0.0066738
0.00666965
0.00667024
0.00667068
0.0066726
0.00667472
0.00667738
0.00668023
0.00668335
0.00668664
0.00669009
0.00669371
0.00669756
0.00670167
0.00670604
0.00943962
0.0103102
0.0116399
0.0139318
0.0162104
0.0180583
0.0194318
0.0204283
0.0211416
0.0216223
0.0218766
0.0218776
0.0215773
0.0209263
0.0199619
0.0187988
0.0174823
0.0160656
0.0146014
0.0131209
0.0115603
0.0099709
0.00844156
0.00694546
0.00550902
0.00418118
0.00298433
0.00199525
0.00124941
0.000728657
0.000381619
0.000171878
9.34485e-05
0.000100472
0.00950121
0.00876087
0.008155
0.00771471
0.00739721
0.00716894
0.00700666
0.00689245
0.00681318
0.00675837
0.00672131
0.00670134
0.0066898
0.00667477
0.00667294
0.00666979
0.00667011
0.00667085
0.00667269
0.00667488
0.0066775
0.00668036
0.00668345
0.00668669
0.00669008
0.00669371
0.00669756
0.00670167
0.00670604
0.0104331
0.0118725
0.0143089
0.0166212
0.0184349
0.0197537
0.0207069
0.0214094
0.0219282
0.0222832
0.0224581
0.0224128
0.0220935
0.0214446
0.0204844
0.0193151
0.0179738
0.0165093
0.0149769
0.0134172
0.0117778
0.0101256
0.00855291
0.00702679
0.00555865
0.00421291
0.00300922
0.00201231
0.00125881
0.00073196
0.000381574
0.00017112
9.36153e-05
0.000100806
0.0105435
0.009466
0.00865172
0.00807449
0.00765614
0.00735498
0.00713892
0.00698559
0.00687793
0.00680344
0.00675141
0.00671763
0.00669943
0.00668657
0.00667498
0.00667209
0.00666994
0.00667001
0.00667101
0.00667278
0.00667503
0.00667763
0.00668049
0.0066835
0.00668669
0.00669008
0.00669371
0.00669756
0.00670167
0.00670603
0.0120914
0.0146363
0.016953
0.0187108
0.0199566
0.0208442
0.0215051
0.0220199
0.0224216
0.0227045
0.0228366
0.0227716
0.0224547
0.0218273
0.0208919
0.019738
0.0183937
0.0169024
0.0153193
0.0136934
0.0119834
0.0102724
0.00865837
0.00709336
0.0056008
0.00424748
0.00303641
0.002031
0.00126915
0.00073569
0.000381536
0.000170358
9.37755e-05
0.000101163
0.0105032
0.0122866
0.00930729
0.00854388
0.00799511
0.00759867
0.00731361
0.00710956
0.00696507
0.00686387
0.00679415
0.00674481
0.00671418
0.00669811
0.00668343
0.00667522
0.00667135
0.00667007
0.00666996
0.00667116
0.00667288
0.00667517
0.00667775
0.00668056
0.0066835
0.0066867
0.00669008
0.00669371
0.00669756
0.00670165
0.00670602
0.014915
0.0172184
0.018908
0.0200708
0.0208799
0.0214786
0.0219589
0.0223653
0.0227034
0.0229494
0.0230626
0.0229951
0.0226945
0.0221013
0.0212043
0.0200808
0.0187499
0.0172481
0.0156296
0.0139494
0.0121768
0.0104112
0.0087449
0.00714975
0.00564698
0.00428518
0.00306612
0.00205151
0.00128055
0.000739738
0.000381542
0.000169515
9.40025e-05
0.000101553
0.0102596
0.0122497
0.015141
0.00915494
0.00843793
0.00791706
0.00754231
0.00727311
0.00708093
0.00694514
0.00685032
0.00678519
0.00673854
0.00671109
0.00669701
0.00668062
0.00667534
0.00667078
0.00667014
0.00666994
0.00667129
0.00667299
0.00667531
0.0066778
0.00668056
0.0066835
0.0066867
0.00669009
0.00669371
0.00669754
0.00670163
0.00670601
0.0174294
0.0190448
0.0201206
0.0208447
0.0213686
0.0217928
0.0221723
0.0225238
0.0228332
0.0230647
0.0231739
0.0231154
0.0228403
0.0222894
0.0214393
0.0203562
0.0190502
0.0175507
0.0159094
0.0141856
0.0123581
0.0105249
0.0088183
0.00721136
0.00569759
0.00432634
0.00309861
0.00207402
0.00129312
0.000744337
0.00038154
0.000168698
9.42268e-05
0.000101967
0.0100209
0.0119002
0.0150755
0.0175866
0.00900976
0.00833339
0.00784045
0.00748708
0.00723356
0.00705307
0.00692584
0.00683724
0.00677651
0.00673277
0.00670833
0.00669599
0.00667832
0.00667525
0.00667038
0.00667016
0.00666997
0.0066714
0.00667311
0.00667539
0.0066778
0.00668056
0.0066835
0.0066867
0.00669009
0.00669368
0.00669749
0.0067016
0.006706
0.0191359
0.0201249
0.0207618
0.0212039
0.0215577
0.0218866
0.0222185
0.0225501
0.0228525
0.0230833
0.0231984
0.0231569
0.0229139
0.0224102
0.0216122
0.0205756
0.0193023
0.0178147
0.0161609
0.0144027
0.012505
0.0106211
0.00889857
0.00727873
0.00575311
0.00437131
0.00313417
0.00209876
0.001307
0.000749389
0.000381633
0.000167764
9.45364e-05
0.000102419
0.00979731
0.0115233
0.0147187
0.0174901
0.0191839
0.0088693
0.00823024
0.00776538
0.00743307
0.00719504
0.00702604
0.00690718
0.00682466
0.00676831
0.0067277
0.00670578
0.00669487
0.00667683
0.00667493
0.00667015
0.00667013
0.00667004
0.0066715
0.00667317
0.00667539
0.0066778
0.00668057
0.0066835
0.0066867
0.00669005
0.00669361
0.00669743
0.00670157
0.00670598
0.0200978
0.0206483
0.0210055
0.0212802
0.0215416
0.0218277
0.0221472
0.022481
0.0227899
0.0230286
0.0231568
0.0231386
0.0229325
0.0224791
0.0217356
0.0207488
0.0195133
0.0180445
0.0163863
0.0145753
0.0126285
0.0107261
0.0089864
0.00735247
0.00581406
0.00442052
0.00317312
0.00212596
0.00132235
0.0007551
0.000381679
0.0001669
9.48535e-05
0.000102895
0.0095879
0.0111529
0.0142773
0.0172624
0.0190339
0.0200392
0.00873191
0.00812873
0.007692
0.00738037
0.00715763
0.00699988
0.00688929
0.0068129
0.00676068
0.0067233
0.00670332
0.0066931
0.00667601
0.00667441
0.00667005
0.00667006
0.00667014
0.00667154
0.00667318
0.00667539
0.0066778
0.00668056
0.00668351
0.00668665
0.00668997
0.00669354
0.00669738
0.00670154
0.00670597
0.0205167
0.020789
0.0209796
0.0211622
0.0213826
0.0216614
0.0219917
0.0223412
0.0226645
0.0229171
0.0230642
0.023075
0.0229096
0.0225081
0.0218198
0.0208842
0.0196895
0.0182444
0.0165611
0.0147186
0.0127621
0.0108406
0.00908255
0.00743323
0.00588101
0.00447441
0.00321581
0.00215591
0.00133934
0.000761405
0.000381908
0.000165871
9.52777e-05
0.000103412
0.00938958
0.0108017
0.0137909
0.0169456
0.0188787
0.0198338
0.0203622
0.00859705
0.00802918
0.00762045
0.00732914
0.00712143
0.00697482
0.00687263
0.00680212
0.00675355
0.00671935
0.00670107
0.00669082
0.00667567
0.00667376
0.00667006
0.00666997
0.00667022
0.00667152
0.00667318
0.00667539
0.0066778
0.00668056
0.00668346
0.00668655
0.00668988
0.00669347
0.00669733
0.00670151
0.00670595
0.0205651
0.0206704
0.0207669
0.0209071
0.021122
0.0214179
0.0217737
0.0221468
0.022489
0.0227606
0.0229325
0.0229774
0.0228559
0.0225069
0.0218735
0.020989
0.0198364
0.0183944
0.0167041
0.0148714
0.0129065
0.0109653
0.00918781
0.00752175
0.00595461
0.00453352
0.00326265
0.0021889
0.00135817
0.000768511
0.000382021
0.000164974
9.57312e-05
0.000103949
0.00919992
0.0104736
0.0132801
0.0165664
0.0186526
0.0197111
0.0201012
0.0203236
0.00846485
0.00793192
0.00755095
0.00727951
0.00708678
0.00695152
0.00685744
0.00679231
0.00674694
0.00671593
0.00669926
0.0066882
0.00667561
0.00667307
0.00667014
0.00666986
0.00667026
0.00667151
0.00667319
0.00667539
0.00667781
0.0066805
0.00668335
0.00668645
0.0066898
0.0066934
0.00669727
0.00670148
0.00670594
0.0203623
0.0203698
0.0204197
0.0205527
0.0207878
0.0211174
0.0215071
0.0219077
0.0222723
0.0225678
0.0227707
0.0228548
0.0227797
0.0224831
0.0219033
0.021069
0.0199414
0.0185152
0.0168538
0.0150337
0.013062
0.0111012
0.00930307
0.00761886
0.00603558
0.00459842
0.00331411
0.00222529
0.00137907
0.000776356
0.000382454
0.000163852
9.63147e-05
0.000104635
0.00901741
0.010169
0.0127557
0.0161369
0.0183824
0.0195309
0.0199801
0.0200066
0.0200392
0.00833566
0.0078373
0.00748369
0.00723199
0.00705457
0.0069303
0.00684361
0.00678352
0.00674094
0.00671292
0.006698
0.00668558
0.00667569
0.0066724
0.00667031
0.00666975
0.00667029
0.00667151
0.00667319
0.00667539
0.00667776
0.00668037
0.00668325
0.00668634
0.00668971
0.00669334
0.00669721
0.00670146
0.00670592
0.0199804
0.0199349
0.0199729
0.0201253
0.0203996
0.0207728
0.0212002
0.0216297
0.0220202
0.0223457
0.0225863
0.0227143
0.0226876
0.0224429
0.0219149
0.0211196
0.0200241
0.0186389
0.0170098
0.0152056
0.0132293
0.011249
0.00942924
0.00772545
0.00612471
0.00466978
0.00337071
0.00226547
0.00140225
0.000785307
0.000382664
0.000162943
9.70965e-05
0.000105431
0.00884125
0.0098881
0.012227
0.0156578
0.0180807
0.0193224
0.0198102
0.0198673
0.0196649
0.0195832
0.00820973
0.00774577
0.0074193
0.00718785
0.00702528
0.00691099
0.00683108
0.00677559
0.0067355
0.00671021
0.00669693
0.00668315
0.00667584
0.00667185
0.00667047
0.0066697
0.0066703
0.00667152
0.00667319
0.00667533
0.00667764
0.00668024
0.00668314
0.00668624
0.00668962
0.00669327
0.00669714
0.00670143
0.0067059
0.0194625
0.0193978
0.0194509
0.0196447
0.0199696
0.0203912
0.0208566
0.0213162
0.0217373
0.0221004
0.0223854
0.0225618
0.0225847
0.0223908
0.0219109
0.0211573
0.0201056
0.0187645
0.0171714
0.0153867
0.0134086
0.0114094
0.00956728
0.00784249
0.00622292
0.00474836
0.00343305
0.00230987
0.00142812
0.000795102