/*--------------------------------*- C++ -*----------------------------------*\
  =========                 |
  \\      /  F ield         | OpenFOAM: The Open Source CFD Toolbox
   \\    /   O peration     | Website:  https://openfoam.org
    \\  /    A nd           | Version:  8
     \\/     M anipulation  |
\*---------------------------------------------------------------------------*/
FoamFile
{
    version     2.0;
    format      ascii;
    class       volScalarField;
    location    "0.39";
    object      p;
}
// * * * * * * * * * * * * * * * * * * * * * * * * * * * * * * * * * * * * * //

dimensions      [0 2 -2 0 0 0 0];

internalField   nonuniform List<scalar> 
15677
(
82.2093
81.8034
81.4671
81.9576
81.4658
81.4056
81.8775
81.4848
81.4153
81.3442
81.858
81.4849
81.4158
81.353
81.2521
81.8398
81.488
81.4163
81.3523
81.2598
81.1572
81.817
81.4908
81.4165
81.3528
81.2598
81.1639
81.0513
81.7922
81.4925
81.4163
81.353
81.2606
81.164
81.0573
80.9241
81.7665
81.4936
81.4157
81.3528
81.2613
81.1648
81.0574
80.9293
80.769
81.7397
81.4941
81.4146
81.3522
81.2618
81.1656
81.0582
80.9296
80.7735
80.5796
81.7119
81.4943
81.4132
81.3514
81.2622
81.1663
81.0591
80.9305
80.7739
80.5834
80.3486
81.6828
81.4939
81.4116
81.3505
81.2628
81.167
81.0599
80.9315
80.7749
80.5839
80.3516
80.0682
81.6523
81.4928
81.41
81.3497
81.2635
81.168
81.061
80.9326
80.7762
80.5852
80.3524
80.0705
79.7306
81.6206
81.4911
81.4086
81.3491
81.2645
81.1693
81.0624
80.9341
80.7777
80.5867
80.3539
80.0714
79.7321
79.3282
81.5914
81.4887
81.4076
81.3487
81.2661
81.1713
81.0645
80.9362
80.7797
80.5887
80.3558
80.0732
79.7331
79.3287
78.8535
81.5666
81.4861
81.4072
81.3487
81.2685
81.1743
81.0675
80.9393
80.7827
80.5915
80.3584
80.0756
79.7353
79.3301
78.8532
78.2999
81.5455
81.4833
81.4074
81.3492
81.2719
81.1787
81.0721
80.9438
80.787
80.5955
80.362
80.0789
79.7383
79.3326
78.8546
78.2985
77.6614
81.5279
81.4797
81.4079
81.3504
81.2766
81.1849
81.0786
80.9504
80.7933
80.6014
80.3674
80.0837
79.7426
79.3362
78.8575
78.3001
77.6588
76.9335
81.513
81.4753
81.4084
81.3521
81.2823
81.1933
81.0878
80.9599
80.8026
80.61
80.3752
80.0907
79.7487
79.3416
78.862
78.3035
77.6607
76.9295
76.1126
81.5003
81.4706
81.4089
81.3545
81.2885
81.2036
81.1004
80.9731
80.8158
80.6225
80.3866
80.1009
79.7576
79.3493
78.8686
78.3089
77.6646
76.9316
76.1072
75.1971
81.4896
81.4659
81.4097
81.3574
81.2954
81.2147
81.1158
80.9912
80.8342
80.6404
80.4033
80.1158
79.7706
79.3605
78.8781
78.3169
77.6709
76.9361
76.1095
75.1902
74.1869
81.4809
81.4613
81.4105
81.3609
81.3028
81.2269
81.1325
81.0132
80.8594
80.6653
80.4269
80.1374
79.7897
79.3768
78.8919
78.3284
77.6804
76.9434
76.1145
75.1927
74.1783
73.0839
81.4741
81.4574
81.4115
81.3649
81.3108
81.2399
81.1507
81.0372
80.89
80.6994
80.4599
80.1681
79.8172
79.4007
78.9121
78.3451
77.6941
76.9544
76.1228
75.1981
74.181
73.0735
71.892
81.4687
81.4542
81.4124
81.3693
81.3192
81.2537
81.1704
81.0633
80.9233
80.7408
80.505
80.2109
79.8564
79.4352
78.9415
78.3695
77.7139
76.9703
76.1354
75.2074
74.1868
73.0763
71.8798
70.6174
81.4644
81.4516
81.4133
81.3739
81.328
81.2681
81.1911
81.0915
80.9597
80.7859
80.5599
80.2696
79.9111
79.4843
78.984
78.4051
77.7429
76.9935
76.1536
75.2215
74.197
73.0824
71.8825
70.6032
69.2727
81.4609
81.4494
81.4141
81.3782
81.3367
81.2829
81.2129
81.1212
80.9988
80.8353
80.6198
80.341
79.9859
79.5529
79.0445
78.4565
77.7853
77.0274
76.1802
75.242
74.2124
73.0933
71.8888
70.6057
69.2549
67.8862
81.4581
81.4477
81.4148
81.3821
81.3447
81.2974
81.2353
81.1524
81.0403
80.8884
80.6854
80.419
80.0772
79.6468
79.129
78.5298
77.8465
77.0768
76.219
75.2717
74.2349
73.1098
71.9
70.6116
69.2549
67.828
66.4036
81.4558
81.4462
81.4155
81.3856
81.352
81.3108
81.2573
81.1846
81.0836
80.9448
80.7561
80.5046
80.1771
79.7615
79.245
78.6323
77.9338
77.1485
76.2757
75.3153
74.2676
73.1339
71.9172
70.6226
69.2592
67.8339
66.3362
64.8097
81.4538
81.445
81.4162
81.3887
81.3586
81.3228
81.2775
81.2161
81.1285
81.0038
80.8311
80.5969
80.2868
79.8873
79.3869
78.7732
78.0561
77.2508
76.3581
75.3793
74.3157
73.1691
71.9423
70.6397
69.2685
67.8351
66.3416
64.7853
63.173
81.4522
81.444
81.4168
81.3915
81.3646
81.3336
81.2956
81.2451
81.1725
81.0648
80.9097
80.695
80.4053
80.0258
79.5428
78.9461
78.2247
77.3945
76.4762
75.4726
74.3866
73.2211
71.9791
70.6648
69.2838
67.841
66.3354
64.7746
63.1649
61.5073
81.4508
81.4432
81.4173
81.394
81.3699
81.3432
81.3119
81.2711
81.2128
81.1247
80.9912
80.7979
80.5314
80.1755
79.7147
79.1363
78.432
77.5932
76.6425
75.6066
74.4904
73.2982
72.034
70.7021
69.3073
67.8534
66.339
64.7647
63.1486
61.503
59.637
81.4497
81.4425
81.4178
81.3963
81.3746
81.3518
81.3264
81.2945
81.2491
81.1796
81.0711
80.9046
80.6639
80.3351
79.901
79.3466
78.6607
77.838
76.873
75.796
74.64
73.4115
72.116
70.7584
69.3433
67.8741
66.3498
64.7691
63.1393
61.4845
59.6358
57.5481
81.4487
81.4419
81.4183
81.3983
81.3787
81.3594
81.3393
81.3154
81.2817
81.2292
81.1445
81.0095
80.8016
80.5031
80.0999
79.5749
78.9141
78.109
77.158
76.0595
74.8525
73.5759
72.2376
70.8438
69.3993
67.9076
66.3683
64.7795
63.1445
61.4764
59.6186
57.5488
55.4652
81.4478
81.4413
81.4187
81.4
81.3824
81.3661
81.3507
81.3339
81.3108
81.2737
81.2109
81.1059
80.937
80.6779
80.3097
79.8193
79.1899
78.41
77.4744
76.3865
75.1491
73.8105
72.4153
70.9717
69.486
67.9618
66.3993
64.7966
63.1547
61.481
59.6106
57.5331
55.4671
53.4124
81.4471
81.4409
81.4191
81.4016
81.3857
81.3721
81.3608
81.3503
81.3367
81.3134
81.2704
81.1932
81.0617
80.8501
80.5285
80.0775
79.4859
78.7386
77.827
76.7507
75.5189
74.1396
72.6703
71.1605
69.6181
68.048
66.4511
64.8256
63.171
61.4904
59.6125
57.5249
55.4529
53.4142
51.4085
81.4405
81.4462
81.4195
81.403
81.3886
81.3773
81.3698
81.3649
81.3597
81.3488
81.3237
81.2716
81.1747
81.009
80.7444
80.3475
79.7996
79.0922
78.2131
77.158
75.9324
74.552
73.0301
71.4335
69.8154
68.1821
66.5359
64.8752
63.1984
61.5056
59.6198
57.524
55.4441
53.401
51.4099
49.4657
81.4199
81.44
81.4452
81.4042
81.3911
81.382
81.3777
81.3778
81.3801
81.3802
81.3711
81.3417
81.2763
81.1531
80.9441
80.6147
80.1283
79.468
78.6299
77.6056
76.3966
75.015
73.4835
71.8214
70.1033
68.385
66.6701
64.9577
63.2453
61.5305
59.6322
57.5282
55.4403
53.3912
51.3973
49.4667
47.5927
81.4053
81.4204
81.4396
81.4443
81.3934
81.3861
81.3848
81.3893
81.3982
81.4081
81.4132
81.4043
81.3673
81.283
81.1255
80.8623
80.4546
79.8632
79.0744
78.0905
76.9086
75.537
73.9951
72.3131
70.5155
68.6844
66.8761
65.0905
63.3246
61.5736
59.6529
57.5359
55.4406
53.384
51.386
49.4543
47.5932
45.7966
81.3954
81.4067
81.4211
81.4391
81.4433
81.3898
81.391
81.3994
81.4141
81.4328
81.4507
81.4599
81.4485
81.3994
81.2892
81.0877
80.7577
80.2566
79.5434
78.6096
77.4656
76.1152
74.5744
72.8707
71.0415
69.1164
67.183
65.2967
63.4538
61.6478
59.6899
57.5497
55.4425
53.3796
51.3753
49.4414
47.5808
45.7963
44.0823
81.3929
81.398
81.4084
81.4218
81.4386
81.4425
81.3965
81.4084
81.4283
81.4547
81.4838
81.5093
81.5208
81.5035
81.4362
81.2915
81.0343
80.6231
80.0119
79.1594
78.0642
76.7469
75.219
73.5053
71.6414
69.6717
67.6297
65.6071
63.6571
61.771
59.7561
57.5773
55.4478
53.3746
51.3656
49.4268
47.5661
45.7838
44.0813
42.4532
81.4012
81.397
81.401
81.41
81.4224
81.4381
81.4416
81.4163
81.4409
81.4741
81.5132
81.5531
81.5851
81.5962
81.5677
81.4748
81.2849
80.9585
80.45
79.7108
78.7009
77.4288
75.9265
74.2149
72.3277
70.3087
68.2082
66.0627
63.9664
61.9678
59.8695
57.6312
55.4638
53.3702
51.3528
49.4113
47.5476
45.7672
44.0686
42.4515
40.9107
81.4231
81.4072
81.4015
81.4039
81.4116
81.4231
81.4377
81.4408
81.452
81.4913
81.5393
81.592
81.6421
81.6786
81.685
81.639
81.5107
81.2631
80.852
80.2283
79.3424
78.1574
76.6938
74.9974
73.0989
71.0413
68.8757
66.6572
64.4245
62.271
60.0548
57.7291
55.5023
53.3727
51.3375
49.3902
47.526
45.7447
44.0499
42.4385
40.9084
39.4549
81.4615
81.4316
81.4136
81.406
81.4069
81.4131
81.4238
81.4372
81.44
81.5065
81.5625
81.6265
81.6928
81.7519
81.7895
81.7856
81.7134
81.5382
81.2181
80.7048
79.9467
78.895
77.5178
75.8505
73.9539
71.869
69.6476
67.3474
65.027
62.7246
60.3455
57.8958
55.5806
53.3933
51.3249
49.363
47.496
45.717
44.0236
42.4178
40.895
39.452
38.0847
81.5195
81.4732
81.4403
81.4199
81.4103
81.4097
81.4145
81.4245
81.4367
81.4393
81.583
81.6571
81.7377
81.8169
81.8824
81.9164
81.8947
81.7856
81.5496
81.14
80.5053
79.593
78.3563
76.7715
74.891
72.7915
70.5246
68.15
65.7306
63.3259
60.7861
58.1645
55.7229
53.4485
51.3254
49.3341
47.4564
45.678
43.9898
42.3877
40.8724
39.4381
38.0812
36.7981
81.6004
81.5354
81.4848
81.4488
81.426
81.4145
81.4125
81.4158
81.4252
81.4363
81.4385
81.6842
81.7777
81.8747
81.9649
82.0328
82.0566
82.0073
81.8483
81.5352
81.0174
80.2408
79.1536
77.714
75.9085
73.8087
71.5079
69.0674
66.554
64.0331
61.3761
58.5792
55.9617
53.5616
51.3547
49.3131
47.4106
45.6257
43.9417
42.3478
40.8386
39.4136
38.067
36.7941
35.5926
81.7073
81.6216
81.5505
81.4961
81.4571
81.4319
81.4185
81.4151
81.417
81.4258
81.4358
81.4378
81.813
81.9262
82.0384
82.1364
82.2009
82.2055
82.1166
81.8923
81.4837
80.8368
79.8969
78.6148
76.9559
74.9197
72.5986
70.1023
67.5012
64.8661
62.0757
59.142
56.339
53.7634
51.4347
49.3143
47.3669
45.5625
43.8767
42.2909
40.7928
39.3763
38.0406
36.7796
35.5881
34.4649
81.843
81.7351
81.6411
81.5652
81.507
81.465
81.4375
81.4224
81.4177
81.4182
81.4263
81.4354
81.4372
81.9717
82.1038
82.2285
82.3293
82.3825
82.3569
82.2137
81.9061
81.3814
80.5835
79.4586
77.9625
76.0705
73.7976
71.2576
68.5766
65.8307
62.9064
59.8168
56.8597
54.0928
51.5934
49.358
47.3388
45.4957
43.7961
42.2133
40.7272
39.3249
38
36.7514
35.5732
34.46
33.4117
82.0101
81.8792
81.7601
81.66
81.5795
81.5175
81.4726
81.4428
81.426
81.42
81.4194
81.4268
81.435
81.4366
82.1616
82.3107
82.4438
82.5403
82.5718
82.5021
82.2874
81.8764
81.2133
80.2415
78.9102
77.1831
75.0477
72.5361
69.785
66.9333
63.8757
60.6257
57.4922
54.5578
51.866
49.4686
47.3438
45.4375
43.7063
42.1155
40.6374
39.251
37.9433
36.7077
35.5434
34.4448
33.4064
32.4292
82.2104
82.0567
81.9108
81.7842
81.6784
81.5931
81.5274
81.4797
81.4479
81.4294
81.4221
81.4206
81.4271
81.4346
81.4361
82.3834
82.546
82.681
82.7636
82.7605
82.6304
82.3243
81.7875
80.9623
79.7937
78.2363
76.2639
73.8785
71.1318
68.1811
64.9923
61.5783
58.2589
55.1321
52.2636
49.6772
47.4027
45.4023
43.6176
42.003
40.523
39.1494
37.8613
36.6459
35.4968
34.4135
33.391
32.4236
31.5136
82.4446
82.2698
82.0965
81.9413
81.8076
81.6957
81.6058
81.5367
81.4864
81.4526
81.4326
81.424
81.4218
81.4274
81.4342
81.4356
82.6363
82.8068
82.935
82.9916
82.9382
82.7283
82.3087
81.622
80.6106
79.223
77.4218
75.1932
72.5565
69.5821
66.2664
62.6859
59.1708
55.8368
52.7651
49.9974
47.5417
45.4071
43.5416
41.8843
40.3884
39.019
37.7486
36.5564
35.4302
34.3641
33.3581
32.4078
31.5076
30.6611
82.7122
82.5197
82.3195
82.1348
81.9708
81.8295
81.7119
81.6176
81.5452
81.4925
81.4569
81.4356
81.4256
81.4229
81.4277
81.4338
81.4351
82.9178
83.0883
83.1984
83.214
83.0916
82.78
82.2227
81.361
80.1393
78.5121
76.4524
73.9616
71.0757
67.7091
63.962
60.2419
56.6843
53.3894
50.4132
47.7762
45.4724
43.4908
41.7673
40.2401
38.8632
37.6029
36.4331
35.3337
34.2932
33.3063
32.3736
31.4916
30.6549
29.868
83.0111
82.8065
82.5815
82.3674
82.1718
81.9984
81.8498
81.7268
81.6285
81.5531
81.4981
81.4608
81.4384
81.4269
81.4238
81.4279
81.4335
81.4347
83.2235
83.3835
83.4613
83.4178
83.205
82.7675
82.0467
80.9846
79.5296
77.6447
75.316
72.5595
69.2613
65.4222
61.4892
57.6906
54.1494
50.9401
48.0952
45.6151
43.4803
41.6607
40.0828
38.6863
37.4269
36.273
35.2003
34.19
33.2312
32.3196
31.4562
30.6386
29.8614
29.1306
83.337
83.1287
82.883
82.6411
82.4135
82.2062
82.0237
81.8684
81.7403
81.6383
81.5601
81.5031
81.4643
81.4407
81.4281
81.4246
81.428
81.4332
81.4343
83.5466
83.6828
83.7109
83.5874
83.26
82.6706
81.7597
80.4721
78.7628
76.6058
73.9992
70.8169
67.011
62.9317
58.8747
55.0616
51.5902
48.5094
45.8282
43.5265
41.5732
39.9208
38.4897
37.2226
36.0779
35.0269
34.0474
33.1219
32.2407
31.4001
30.602
29.8449
29.1233
28.4461
83.6834
83.4828
83.2232
82.957
82.6984
82.4562
82.2376
82.0467
81.8851
81.7524
81.6469
81.5663
81.5074
81.4672
81.4426
81.4291
81.4251
81.4281
81.4329
81.434
83.8778
83.9738
83.9318
83.7043
83.2361
82.4672
81.3398
79.8031
77.8215
75.3785
72.339
68.6202
64.5175
60.2567
56.1443
52.378
49.0283
46.1166
43.6269
41.5204
39.7566
38.2736
36.9882
35.8475
34.8138
33.8614
32.9707
32.1257
31.3177
30.5441
29.8073
29.1065
28.4363
27.8835
84.0411
83.8632
83.5992
83.3148
83.028
82.7513
82.4951
82.2659
82.0672
81.8998
81.7629
81.6544
81.5716
81.511
81.4696
81.4441
81.4299
81.4256
81.4282
81.4326
81.4336
84.2047
84.2411
84.1054
83.7477
83.1105
82.1345
80.7645
78.9577
76.6859
73.808
70.2076
66.136
61.7875
57.4164
53.3198
49.6633
46.4859
43.7792
41.5035
39.6038
38.0338
36.7197
35.5769
34.5586
33.6315
32.7731
31.9665
31.1975
30.4585
29.7478
29.0682
28.4201
27.879
27.4112
84.3979
84.2617
84.0062
83.7124
83.4025
83.0933
82.7991
82.5298
82.2909
82.0851
81.9125
81.7719
81.6607
81.5758
81.5138
81.4714
81.4452
81.4305
81.4259
81.4282
81.4324
81.4333
84.5121
84.4662
84.2108
83.6941
82.8592
81.6482
80.0122
77.9138
75.2082
71.7472
67.7399
63.3603
58.8382
54.436
50.43
46.945
43.9853
41.5128
39.4674
37.7815
36.4062
35.2582
34.2539
33.3532
32.5275
31.7582
31.0309
30.3335
29.6593
29.0074
28.3812
27.8663
27.4132
26.9151
84.7384
84.6672
84.4371
84.1459
83.8206
83.4829
83.152
82.8416
82.5602
82.3125
82.1002
81.923
81.779
81.6654
81.5789
81.5159
81.4728
81.4461
81.431
81.4261
81.4282
81.4321
81.4331
84.7812
84.6278
84.2239
83.5186
82.4565
80.9848
79.0581
76.5284
73.2188
69.3018
64.9323
60.3194
55.7056
51.3541
47.5104
44.2518
41.5469
39.3305
37.5258
36.0565
34.8737
33.8874
33.0161
32.2275
31.4981
30.8128
30.1603
29.5299
28.9162
28.3194
27.8271
27.4019
26.9147
26.3829
85.0438
85.0658
84.882
84.6092
84.2792
83.9196
83.5551
83.204
82.8785
82.5861
82.3303
82.1124
81.9311
81.7843
81.6688
81.5811
81.5173
81.4737
81.4466
81.4313
81.4263
81.4281
81.4319
81.4328
84.9904
84.7017
84.1192
83.1943
81.8774
80.117
77.7616
74.6095
70.8043
66.4849
61.8321
57.065
52.4393
48.2151
44.5972
41.6103
39.1884
37.2427
35.6836
34.4298
33.435
32.6046
31.8603
31.1779
30.5393
29.933
29.3505
28.7829
28.2259
27.7648
27.3629
26.9011
26.3784
25.8046
85.2921
85.44
85.328
85.0936
84.7733
84.4011
84.0082
83.6186
83.2488
82.9096
82.6073
82.3445
82.1215
81.9368
81.7877
81.6709
81.5824
81.5182
81.4743
81.447
81.4315
81.4263
81.428
81.4316
81.4325
85.1149
84.6615
83.8686
82.6946
81.0913
78.9045
75.9126
72.2377
68.0066
63.3668
58.5015
53.6512
49.0876
45.0604
41.7224
39.0431
36.9242
35.2569
33.9436
32.901
32.0877
31.4064
30.7824
30.2003
29.6471
29.1149
28.5978
28.0889
27.6694
27.3001
26.8618
26.3616
25.7979
25.1774
85.4575
85.7693
85.759
85.5878
85.2955
84.9233
84.51
84.0861
83.6732
83.2863
82.9347
82.6236
82.3545
82.1273
81.94
81.7894
81.6718
81.5829
81.5185
81.4745
81.4471
81.4315
81.4263
81.4279
81.4313
81.4323
85.1273
84.4783
83.4441
81.9858
79.9573
77.1256
73.5968
69.4878
64.911
60.0077
54.9877
50.1216
45.6919
41.9259
38.9137
36.5688
34.7647
33.3779
32.3064
31.4685
30.8288
30.2889
29.7787
29.2908
28.8176
28.3546
27.8986
27.5295
27.203
26.798
26.3212
25.7797
25.1699
24.4999
85.5115
86.0299
86.1559
86.0771
85.8355
85.4798
85.0572
84.6055
84.1527
83.7186
83.3162
82.9536
82.6347
82.3605
82.1301
81.9411
81.7898
81.6718
81.5828
81.5184
81.4745
81.447
81.4315
81.4263
81.4276
81.4311
81.432
84.9972
84.1222
82.8091
80.9258
78.2492
74.8779
70.9183
66.4478
61.565
56.4401
51.323
46.5123
42.2888
38.8429
36.1936
34.2014
32.7171
31.6077
30.7712
30.1295
29.6546
29.2483
28.8449
28.4453
28.0468
27.6484
27.335
27.0607
26.699
26.256
25.7381
25.1513
24.4919
23.7694
85.4221
86.1952
86.4961
86.5441
86.3806
86.0619
85.6445
85.1745
84.6871
84.2078
83.7542
83.3381
82.9659
82.6405
82.3625
82.1302
81.9404
81.7888
81.6709
81.5821
81.5179
81.4741
81.4468
81.4315
81.4262
81.4274
81.4308
81.4318
84.6922
83.5543
81.8199
79.2901
76.0787
72.2872
67.9577
63.1473
57.9842
52.6831
47.5352
42.857
38.9114
35.838
33.5803
31.9511
30.7856
29.9468
29.3359
28.8806
28.5611
28.2804
27.977
27.6597
27.3309
27.0793
26.8628
26.5542
26.1548
25.671
25.1088
24.4731
23.761
22.9821
85.1531
86.2363
86.7539
86.9678
86.9148
86.6583
86.2645
85.7889
85.2747
84.7543
84.2507
83.7799
83.3517
82.9715
82.6415
82.3612
82.128
81.9381
81.7867
81.6693
81.5809
81.5169
81.4735
81.4468
81.4314
81.426
81.4271
81.4306
81.4316
84.1701
82.6274
80.2596
77.2038
73.5852
69.4208
64.7263
59.5872
54.1757
48.7552
43.6531
39.1891
35.5903
32.9339
31.0874
29.8244
28.9715
28.3934
27.9971
27.7178
27.5442
27.3809
27.1707
26.9303
26.7541
26.6025
26.3526
26.0071
25.5674
25.0397
24.4296
23.7418
22.9736
22.1345
84.6576
86.1212
86.9007
87.3243
87.4191
87.2546
86.9072
86.4424
85.9124
85.3572
84.8065
84.2813
83.7954
83.357
82.9711
82.6383
82.3569
82.1238
81.9343
81.7837
81.6669
81.579
81.5157
81.4734
81.4468
81.4313
81.4257
81.4267
81.4303
81.4314
83.2787
81.1387
78.263
74.8124
70.821
66.2746
61.2144
55.7651
50.1489
44.679
39.7088
35.5423
32.3531
30.1487
28.7244
27.8244
27.2743
26.9446
26.751
26.6369
26.5995
26.5455
26.4223
26.3426
26.2708
26.0873
25.8016
25.4165
24.9337
24.3588
23.6973
22.9539
22.1257
21.2227
85.809
83.7813
86.904
87.5865
87.8711
87.8336
87.5602
87.1266
86.5949
86.014
85.4212
84.8434
84.2991
83.8004
83.3548
82.9654
82.6314
82.3502
82.1177
81.9294
81.7798
81.6637
81.5768
81.5155
81.4737
81.4467
81.4309
81.4254
81.4264
81.4301
81.4313
81.8306
79.229
75.9765
72.1543
67.7699
62.8318
57.4122
51.6816
45.9187
40.4829
35.7375
31.9498
29.2242
27.4964
26.4973
25.9519
25.6914
25.5965
25.5931
25.6332
25.7224
25.7702
25.8194
25.8504
25.7488
25.531
25.2068
24.7794
24.2502
23.6248
22.9084
22.1057
21.2139
20.2435
86.7254
85.1547
82.3417
87.723
88.2458
88.375
88.2078
87.8302
87.315
86.7208
86.0932
85.4664
84.8645
84.3041
83.7962
83.3462
82.9552
82.6213
82.3412
82.1102
81.9234
81.7748
81.6601
81.5763
81.516
81.4736
81.4463
81.4304
81.4249
81.426
81.4299
81.4312
79.9763
77.0415
73.4273
69.2043
64.4107
59.0774
53.3129
47.3433
41.5073
36.201
31.7769
28.4429
26.2242
24.987
24.4086
24.205
24.2192
24.3448
24.5187
24.7022
24.9089
25.146
25.3146
25.3187
25.1851
24.9306
24.5651
24.0923
23.5135
22.8341
22.0593
21.1935
20.2346
19.1934
87.6974
86.2417
84.0085
80.5108
88.5138
88.8554
88.8315
88.5399
88.0634
87.4714
86.8193
86.1493
85.4922
84.8699
84.2977
83.7841
83.3321
82.9412
82.6087
82.3304
82.1013
81.9162
81.769
81.6591
81.5771
81.516
81.4731
81.4456
81.4298
81.4245
81.4256
81.4297
81.4311
77.8549
74.596
70.5834
65.939
60.7254
54.9988
48.9146
42.7635
36.9439
31.8728
27.8654
25.0504
23.3694
22.6264
22.4579
22.5804
22.853
23.1842
23.5227
23.8392
24.2543
24.6234
24.7694
24.7447
24.5768
24.2828
23.8732
23.3518
22.72
21.9831
21.1462
20.2139
19.1846
18.0693
88.6414
87.405
85.2843
82.4905
78.4238
89.2476
89.4102
89.2388
88.8279
88.2579
87.5947
86.8899
86.1818
85.4988
84.8615
84.2817
83.7652
83.3132
82.924
82.5938
82.3179
82.0908
81.9072
81.7675
81.6603
81.5773
81.5155
81.4723
81.4447
81.4293
81.424
81.4251
81.4295
81.431
75.48
71.8548
67.421
62.3391
56.6977
50.587
44.2207
37.9631
32.2656
27.5415
24.0406
21.7974
20.6717
20.4173
20.643
21.0735
21.5874
22.1094
22.6004
23.1453
23.7065
24.0593
24.1811
24.1254
23.9208
23.5846
23.1277
22.5543
21.8662
21.0683
20.1657
19.1635
18.0606
16.8686
89.5214
88.5447
86.6787
83.9637
80.7097
76.0912
89.9186
89.9076
89.5941
89.07
88.4126
87.6841
86.9316
86.1908
85.4885
84.8412
84.2574
83.7407
83.2905
82.9041
82.5767
82.3032
82.0794
81.905
81.7693
81.6608
81.5767
81.5144
81.4711
81.444
81.4287
81.4234
81.4246
81.4292
81.4309
72.8078
68.7945
63.921
58.3867
52.3131
45.8356
39.2406
32.9713
27.5159
23.2523
20.3374
18.704
18.1385
18.3592
18.9597
19.6787
20.4166
21.1152
21.8597
22.5651
23.1154
23.4506
23.5465
23.4577
23.2136
22.8323
22.325
21.6964
20.9485
20.0861
19.1145
18.0392
16.86
15.589
90.33
89.6158
88.0592
85.6009
82.3867
78.6928
73.4623
90.5234
90.3443
89.8948
89.2644
88.5266
87.7387
86.9449
86.1792
85.4638
84.8109
84.2263
83.7114
83.2645
82.8815
82.557
82.2875
82.0752
81.9077
81.77
81.6601
81.5753
81.5129
81.4705
81.4435
81.4281
81.4227
81.424
81.429
81.4309
69.815
65.3979
60.0659
54.064
47.5572
40.7415
33.9911
27.8261
22.7444
19.0505
16.7869
15.785
15.7734
16.4494
17.4023
18.3898
19.3349
20.3177
21.2407
21.9393
22.478
22.7945
22.8625
22.7382
22.452
22.0225
21.4616
20.7745
19.9633
19.0331
17.9896
16.8384
15.5808
14.2289
91.0629
90.609
89.3668
87.2356
84.2717
80.6015
76.3936
70.5129
91.0579
90.717
90.139
89.41
88.5986
87.7588
86.9331
86.1502
85.427
84.7722
84.1894
83.6782
83.2353
82.8557
82.5359
82.2818
82.0792
81.9088
81.7693
81.6583
81.5733
81.5123
81.4702
81.4428
81.4273
81.4219
81.4234
81.4288
81.4309
66.4867
61.6494
55.8373
49.3511
42.4153
35.3053
28.4971
22.5748
18.0046
14.9795
13.4142
13.0504
13.5763
14.683
15.9646
17.2003
18.4682
19.6519
20.5734
21.2651
21.7914
22.0876
22.1258
21.9636
21.6325
21.1518
20.534
19.785
18.9074
17.9065
16.7883
15.5592
14.2224
12.5302
91.7147
91.5184
90.5918
88.794
86.1634
82.7581
78.5671
73.7892
67.229
91.5179
91.023
90.3251
89.5054
88.6289
87.7485
86.9002
86.1065
85.38
84.7267
84.1478
83.6411
83.2022
82.8282
82.5278
82.2875
82.0807
81.9079
81.767
81.6558
81.5729
81.5126
81.4698
81.442
81.4263
81.4211
81.4228
81.4286
81.4309
62.8095
57.5321
51.2126
44.2245
36.8711
29.5328
22.7954
17.274
13.3519
11.0777
10.2387
10.5051
11.5441
13.0536
14.6393
16.2485
17.7454
18.9348
19.8552
20.5394
21.0523
21.3268
21.3331
21.1304
20.7515
20.2167
19.5389
18.7249
17.7779
16.7037
15.5088
14.2013
12.522
10.55
92.2799
92.3364
91.7287
90.2651
87.9746
84.9239
81.0265
76.2567
70.8722
63.5988
91.8999
91.2602
90.4511
89.5504
88.6225
87.7126
86.8496
86.0506
85.3248
84.6756
84.1017
83.5993
83.1674
82.8174
82.5364
82.2895
82.0797
81.9051
81.7638
81.6557
81.574
81.5126
81.469
81.4408
81.4252
81.4201
81.4221
81.4283
81.431
58.7679
53.0238
46.1639
38.6534
30.9077
23.4403
16.9358
11.9878
8.84036
7.37811
7.27358
8.14913
9.67099
11.5537
13.5804
15.4558
16.9679
18.1638
19.0831
19.7592
20.2577
20.5087
20.481
20.2353
19.8059
19.2138
18.4731
17.5911
16.5724
15.4229
14.1509
12.4985
10.5403
8.58481
92.7541
93.0548
92.7684
91.644
89.6934
87.0024
83.4922
79.0474
73.6645
67.6396
59.6085
92.2012
91.4261
90.5167
89.551
88.585
87.6552
86.7842
85.9848
85.2629
84.6191
84.0497
83.5556
83.1541
82.8284
82.5386
82.2883
82.0762
81.901
81.7643
81.6581
81.5748
81.5122
81.4679
81.4394
81.4238
81.4189
81.4214
81.4281
81.4312
54.3407
48.0958
40.6513
32.6006
24.5149
17.0591
10.983
6.78509
4.52033
3.90616
4.52498
5.97901
7.94955
10.3571
12.6997
14.604
16.1331
17.3363
18.2543
18.9214
19.4042
19.6302
19.5663
19.2751
18.7923
18.1402
17.3337
16.3815
15.2889
14.0638
12.4465
10.5154
8.57764
6.65901
93.1342
93.6664
93.7005
92.9209
91.3151
88.9807
85.8628
81.8353
76.8157
70.7927
64.0893
55.2383
92.4182
91.5198
90.5288
89.5143
88.5217
87.5801
86.7068
85.911
85.1947
84.5555
83.9957
83.5392
83.1662
82.8311
82.5371
82.284
82.0711
81.9023
81.7684
81.6601
81.575
81.5112
81.4664
81.4377
81.4222
81.4176
81.4206
81.4279
81.4314
49.4996
42.7071
34.6249
26.0304
17.6966
10.4415
5.01533
1.73655
0.435473
0.678757
1.99367
3.98792
6.57916
9.36362
11.755
13.6909
15.2384
16.4493
17.3657
18.023
18.489
18.6882
18.5859
18.2466
17.7079
16.9932
16.1186
15.0942
13.9274
12.3571
10.4616
8.55516
6.65357
4.78408
93.4153
94.1659
94.5146
94.0843
92.8302
90.8542
88.1262
84.5179
79.947
74.3373
67.6488
60.2172
50.4616
92.5491
91.5489
90.4958
89.4462
88.437
87.4906
86.62
85.8296
85.118
84.4896
83.9755
83.5536
83.1701
82.8294
82.5318
82.2775
82.0734
81.9087
81.7721
81.6612
81.5745
81.5098
81.4646
81.4357
81.4204
81.4162
81.4197
81.4276
81.4316
44.2042
36.7976
28.0186
18.9022
10.4714
3.66288
-0.876925
-3.08988
-3.3803
-2.29515
-0.324809
2.40683
5.44396
8.29972
10.744
12.7143
14.2814
15.5003
16.4147
17.0614
17.5093
17.6798
17.537
17.1472
16.5501
15.7707
14.8263
13.7291
12.2174
10.3696
8.50308
6.63254
4.77948
2.96518
93.5943
94.5467
95.2011
95.1222
94.2269
92.6124
90.2767
87.0854
82.958
77.8352
71.6258
64.243
56.016
45.2437
92.6026
91.5238
90.425
89.3524
88.335
87.3898
86.5242
85.7382
85.0386
84.4649
83.9927
83.5588
83.1684
82.823
82.5238
82.2812
82.0829
81.9147
81.7747
81.6616
81.5734
81.5079
81.4622
81.4334
81.4184
81.4146
81.4187
81.4274
81.4319
38.389
30.2778
20.7427
11.1759
2.88299
-3.17693
-6.59768
-7.6346
-6.90325
-5.01462
-2.16046
1.10054
4.23108
7.16383
9.6651
11.6719
13.2597
14.4869
15.399
16.0343
16.4626
16.6027
16.4172
15.9748
15.3172
14.4714
13.4564
12.015
10.2266
8.41165
6.58221
4.75906
2.9614
1.2082
93.6809
94.8031
95.7478
96.023
95.4927
94.243
92.3027
89.533
85.8431
81.1914
75.5164
68.6994
60.5855
51.4777
39.5278
92.5908
91.4532
90.3233
89.2378
88.2193
87.2783
86.4166
85.6436
85.0089
84.4856
83.9994
83.557
83.1608
82.8132
82.5292
82.2947
82.092
81.9193
81.7762
81.6611
81.5716
81.5053
81.4594
81.4307
81.4161
81.4128
81.4177
81.4273
81.4322
31.9608
23.0299
12.697
2.83664
-4.98734
-9.95766
-12.053
-11.8488
-10.1212
-7.16029
-3.67201
-0.29133
2.93992
5.95504
8.5167
10.562
12.1717
13.4074
14.3169
14.9397
15.3471
15.455
15.2248
14.7278
14.0082
13.0952
11.7374
10.0205
8.26816
6.49233
4.71013
2.94187
1.20524
-0.48134
93.6893
94.9461
96.1417
96.7697
96.6142
95.7329
94.1902
91.8493
88.5994
84.4053
79.2358
73.0134
65.5785
56.6851
46.5827
33.2296
92.5244
91.3453
90.1965
89.1069
88.0911
87.1529
86.305
85.6082
85.0336
84.4939
83.9976
83.548
83.1488
82.8208
82.5477
82.3077
82.0992
81.9226
81.7767
81.6596
81.569
81.5021
81.456
81.4276
81.4135
81.4109
81.4167
81.4272
81.4325
24.7924
14.8995
3.78715
-6.08947
-13.0136
-16.5446
-17.1555
-15.6979
-12.6501
-8.91972
-5.27695
-1.76756
1.57108
4.67296
7.29804
9.38374
11.0163
12.2608
13.1672
13.7765
14.1616
14.2355
13.9588
13.4057
12.6233
11.3695
9.73873
8.06104
6.35002
4.62173
2.89468
1.18697
-0.483497
-2.09961
93.6323
94.9928
96.3915
97.3409
97.5709
97.0688
95.9241
94.0197
91.2172
87.4774
82.7895
77.1163
70.3524
62.2828
52.5494
41.2956
26.2304
92.413
91.2072
90.05
88.961
87.9465
87.0228
86.2633
85.6375
85.0438
84.492
83.9868
83.5333
83.1591
82.8454
82.5656
82.3184
82.1049
81.9246
81.776
81.6572
81.5655
81.4981
81.4521
81.424
81.4107
81.409
81.4156
81.4272
81.4329
16.6879
5.68666
-6.05276
-15.5254
-21.025
-22.7959
-21.8297
-18.7089
-14.7124
-10.7794
-6.97106
-3.32503
0.126097
3.31834
6.00948
8.13732
9.79354
11.047
11.9498
12.5445
12.9058
12.944
12.6194
12.0094
10.8889
9.36609
7.77838
6.1443
4.48104
2.80818
1.14213
-0.500218
-2.101
-3.64565
93.5212
94.9591
96.5169
97.7407
98.334
98.2278
97.4889
96.0278
93.6838
90.4014
86.1823
81.021
74.8622
67.5604
58.8339
48.1853
35.5691
18.3444
92.2653
91.0455
89.8857
88.7959
87.7962
86.9741
86.2979
85.6499
85.0417
84.4793
83.969
83.5468
83.191
82.8693
82.5806
82.3271
82.1089
81.9251
81.774
81.6536
81.561
81.4934
81.4475
81.4201
81.4078
81.4069
81.4145
81.4273
81.4333
7.35253
-4.854
-16.8303
-25.3345
-28.8104
-28.5724
-25.4697
-21.1473
-16.8785
-12.7298
-8.74706
-4.95912
-1.39181
1.89356
4.6529
6.8242
8.5047
9.76703
10.6657
11.2447
11.5807
11.5818
11.2082
10.2637
8.87969
7.40505
5.8638
4.27795
2.66989
1.0583
-0.542331
-2.116
-3.64639
-5.12049
93.3665
94.8587
96.537
97.9879
98.903
99.1754
98.8577
97.8554
95.9837
93.1681
89.413
84.7384
79.13
72.5046
64.6659
55.2563
43.5969
29.3403
9.2856
92.0891
90.8627
89.699
88.6238
87.7398
87.0148
86.3128
85.6477
85.0269
84.4579
83.9864
83.5875
83.2222
82.8897
82.5932
82.3338
82.111
81.9239
81.7705
81.6486
81.5554
81.4878
81.4425
81.416
81.4047
81.4049
81.4134
81.4274
81.4338
-3.68022
-16.9861
-28.4821
-35.3264
-36.1051
-33.0674
-28.3848
-23.6853
-19.13
-14.7569
-10.5954
-6.66272
-2.97703
0.403154
3.23197
5.44747
7.15252
8.4235
9.31726
9.87955
10.1888
10.1514
9.44826
8.24777
6.91856
5.49386
4.00189
2.47079
0.923498
-0.622909
-2.15522
-3.65946
-5.12061
-6.52813
93.1774
94.7045
96.4696
98.1013
99.2972
99.9087
99.9889
99.4699
98.0983
95.765
92.4776
88.2737
83.1756
77.1489
70.0756
61.6992
51.5789
38.7871
22.5319
-1.41795
91.8878
90.6536
89.5038
88.5592
87.7874
87.0324
86.3105
85.6305
85.0014
84.4798
84.0372
83.6272
83.249
82.9071
82.6034
82.3382
82.1111
81.9207
81.7653
81.6423
81.5487
81.4814
81.4371
81.4117
81.4015
81.4028
81.4122
81.4276
81.4343
-17.2236
-30.9209
-40.9283
-45.0387
-41.7665
-36.6145
-31.3736
-26.2891
-21.4419
-16.8435
-12.5031
-8.42547
-4.62113
-1.14601
1.75242
4.0122
5.74162
7.02071
7.90878
8.45322
8.73416
8.37374
7.4249
6.28788
5.01293
3.63895
2.20137
0.729941
-0.753283
-2.23218
-3.6955
-5.13163
-6.52783
-7.87405
92.9583
94.5074
96.3313
98.1
99.5353
100.448
100.878
100.818
99.9904
98.1759
95.3686
91.6299
87.012
81.5261
75.1108
67.6085
58.6924
47.8354
33.7567
15.0613
-14.6855
91.6558
90.434
89.4304
88.6146
87.8081
87.03
86.2906
85.6002
85.0283
84.5423
84.087
83.6617
83.2723
82.9217
82.6108
82.34
82.1087
81.9154
81.7582
81.6344
81.5409
81.4745
81.4313
81.4072
81.3983
81.4006
81.411
81.4278
81.4349
-34.8233
-46.1915
-53.3867
-52.6802
-46.1804
-40.163
-34.3764
-28.9154
-23.7847
-18.9677
-14.4529
-10.2333
-6.3125
-2.7443
0.222539
2.52577
4.27877
5.56512
6.44655
6.9718
6.93534
6.34265
5.4685
4.3912
3.16882
1.84883
0.469482
-0.939834
-2.35746
-3.76852
-5.16459
-6.53669
-7.87333
-9.1665
92.7037
94.2727
96.1365
98.0031
99.6359
100.813
101.548
101.888
101.595
100.362
98.0745
94.806
90.6509
85.6596
79.8231
73.0488
65.1364
55.6791
44.0742
28.5079
6.88178
-32.6571
91.4108
90.3513
89.4945
88.6387
87.8056
87.0071
86.2547
85.6328
85.1042
84.6035
84.1304
83.692
83.2921
82.9328
82.615
82.3388
82.1036
81.9077
81.7491
81.6251
81.5324
81.4671
81.4252
81.4025
81.3949
81.3984
81.4098
81.4281
81.4354
-56.5314
-60.4824
-64.9295
-58.2739
-50.4298
-43.6122
-37.3239
-31.5173
-26.1246
-21.1029
-16.4229
-12.0682
-8.03617
-4.37896
-1.34655
0.998181
2.77328
4.06564
4.93896
5.15154
4.89783
4.39355
3.58571
2.56327
1.39443
0.130671
-1.1892
-2.53592
-3.88821
-5.23364
-6.5664
-7.87998
-9.16569
-10.4147
92.4341
93.9962
95.8929
97.8285
99.6177
101.023
102.023
102.704
102.89
102.248
100.558
97.7975
94.0993
89.571
84.2488
78.0987
70.9936
62.6929
52.708
40.3555
23.0758
-1.78293
-56.4
91.3183
90.4251
89.5224
88.6361
87.7793
86.965
86.2938
85.7238
85.1784
84.6572
84.1688
83.7181
83.3079
82.94
82.6154
82.3341
82.0954
81.8974
81.7381