/*--------------------------------*- C++ -*----------------------------------*\
  =========                 |
  \\      /  F ield         | OpenFOAM: The Open Source CFD Toolbox
   \\    /   O peration     | Website:  https://openfoam.org
    \\  /    A nd           | Version:  8
     \\/     M anipulation  |
\*---------------------------------------------------------------------------*/
FoamFile
{
    version     2.0;
    format      ascii;
    class       volScalarField;
    location    "0.32";
    object      k;
}
// * * * * * * * * * * * * * * * * * * * * * * * * * * * * * * * * * * * * * //

dimensions      [0 2 -2 0 0 0 0];

internalField   nonuniform List<scalar> 
15677
(
0.334152
0.365019
0.294759
0.368727
0.357696
0.281051
0.37069
0.360082
0.366153
0.282786
0.371883
0.361634
0.36149
0.383387
0.288927
0.372609
0.363743
0.357754
0.368381
0.401776
0.300367
0.373038
0.365662
0.357861
0.358188
0.380191
0.419497
0.311876
0.373263
0.367179
0.359471
0.354616
0.361093
0.393408
0.434901
0.322691
0.373348
0.368304
0.361365
0.354795
0.353101
0.366976
0.406295
0.448026
0.332165
0.373349
0.369082
0.363072
0.356358
0.351151
0.353546
0.373647
0.418425
0.458856
0.340541
0.373314
0.369567
0.364447
0.358232
0.351952
0.348821
0.354838
0.380806
0.429246
0.467994
0.347594
0.373275
0.369825
0.365466
0.359969
0.353733
0.348407
0.347181
0.357181
0.387773
0.43898
0.475471
0.353787
0.37325
0.369927
0.366152
0.361401
0.355675
0.34978
0.345376
0.346358
0.359777
0.394579
0.447382
0.481869
0.358949
0.37324
0.369941
0.366551
0.36248
0.357432
0.351731
0.346219
0.342943
0.345924
0.362693
0.400826
0.454848
0.487129
0.363554
0.373239
0.369924
0.366739
0.36321
0.358862
0.353686
0.348078
0.343098
0.340875
0.345939
0.365565
0.406705
0.461172
0.491671
0.367566
0.37324
0.369909
0.366797
0.363636
0.359917
0.35539
0.350157
0.344748
0.340291
0.339199
0.346077
0.368484
0.411891
0.46677
0.495426
0.371118
0.37324
0.369901
0.366797
0.363834
0.360607
0.356734
0.352084
0.346872
0.341689
0.337806
0.337747
0.346414
0.371181
0.416681
0.471424
0.498741
0.374364
0.373239
0.369898
0.366787
0.363892
0.360988
0.357686
0.353683
0.348965
0.343818
0.338899
0.335564
0.336525
0.346823
0.37382
0.420752
0.475518
0.501599
0.377133
0.373238
0.369896
0.366777
0.3639
0.361136
0.358272
0.35488
0.350781
0.346042
0.340986
0.336344
0.333554
0.335456
0.347341
0.376115
0.424431
0.478892
0.50412
0.379927
0.373237
0.369896
0.36677
0.363894
0.361179
0.358541
0.35567
0.352204
0.348048
0.343308
0.338376
0.334011
0.331739
0.334568
0.347797
0.378274
0.427435
0.481848
0.506457
0.382114
0.373236
0.369895
0.366766
0.363888
0.361183
0.358646
0.356069
0.353199
0.349677
0.345477
0.340778
0.335974
0.331887
0.330126
0.333781
0.348284
0.380034
0.430119
0.484285
0.508464
0.384702
0.373236
0.369894
0.366762
0.363883
0.361175
0.358679
0.356241
0.353744
0.350864
0.347294
0.343097
0.338444
0.333786
0.329972
0.328695
0.333112
0.348665
0.381656
0.432198
0.486412
0.510563
0.386441
0.373236
0.369894
0.36676
0.363879
0.361166
0.358683
0.356304
0.354007
0.351546
0.348668
0.345092
0.340897
0.336322
0.331816
0.328279
0.327437
0.332538
0.349036
0.382864
0.434071
0.48818
0.512243
0.389003
0.373236
0.369893
0.366758
0.363876
0.361159
0.358678
0.356318
0.354123
0.351891
0.349498
0.346642
0.343055
0.338912
0.334428
0.330084
0.326798
0.326379
0.332044
0.349298
0.383996
0.435404
0.489767
0.514358
0.390417
0.373236
0.369893
0.366757
0.363874
0.361153
0.358672
0.356313
0.354166
0.35205
0.349948
0.347607
0.344773
0.341243
0.337157
0.332778
0.328597
0.325574
0.325497
0.331693
0.349562
0.384729
0.436689
0.491051
0.51578
0.392976
0.373237
0.369892
0.366756
0.363871
0.361148
0.358665
0.356302
0.354174
0.352109
0.350178
0.348141
0.345882
0.34314
0.339644
0.335653
0.331413
0.327415
0.324609
0.324869
0.331381
0.349729
0.385473
0.437459
0.492436
0.518301
0.394328
0.373237
0.369892
0.366756
0.36387
0.361145
0.358659
0.356291
0.354169
0.352121
0.350283
0.348417
0.346532
0.344385
0.341695
0.338336
0.334485
0.330379
0.32652
0.323918
0.324402
0.331318
0.349985
0.385903
0.438407
0.493315
0.519928
0.503763
0.373237
0.369891
0.366755
0.363868
0.361143
0.358654
0.356282
0.354159
0.352113
0.35032
0.34854
0.346896
0.345114
0.343087
0.340614
0.337355
0.333601
0.329649
0.326015
0.323643
0.324406
0.331393
0.350197
0.386395
0.438849
0.49527
0.528608
0.708774
0.373237
0.369891
0.366755
0.363867
0.361141
0.35865
0.356275
0.354149
0.352099
0.350325
0.348581
0.347081
0.345518
0.343955
0.342165
0.339754
0.336707
0.333265
0.329569
0.326066
0.323758
0.324571
0.331602
0.350497
0.386741
0.439756
0.495864
0.545312
0.882539
0.373238
0.36989
0.366755
0.363865
0.361139
0.358646
0.35627
0.35414
0.352084
0.350315
0.348582
0.347162
0.345717
0.344476
0.343097
0.34146
0.339507
0.336757
0.333434
0.329823
0.326398
0.324148
0.325004
0.332037
0.350903
0.387164
0.440431
0.495581
0.557952
1.02248
0.373238
0.36989
0.366755
0.363864
0.361138
0.358643
0.356266
0.354131
0.352071
0.350299
0.348566
0.347184
0.345798
0.344764
0.343639
0.342608
0.341495
0.339725
0.337143
0.333998
0.330515
0.32717
0.324965
0.325849
0.332784
0.351454
0.387743
0.440179
0.494081
0.567251
1.14293
0.373238
0.36989
0.366755
0.363863
0.361138
0.35864
0.356262
0.354124
0.352061
0.350283
0.348545
0.347177
0.345815
0.344902
0.343929
0.343333
0.342737
0.341861
0.340389
0.338062
0.335181
0.331881
0.328609
0.326352
0.327098
0.333832
0.352237
0.388233
0.439259
0.490918
0.573538
1.2398
0.373238
0.36989
0.366755
0.363862
0.361137
0.358638
0.35626
0.354118
0.352053
0.350269
0.348525
0.347156
0.345801
0.344953
0.344062
0.343758
0.343526
0.343254
0.342764
0.341747
0.339817
0.337179
0.333975
0.330675
0.328255
0.328774
0.335221
0.353207
0.388518
0.437343
0.485486
0.577581
1.3105
0.373238
0.369889
0.366755
0.363862
0.361137
0.358636
0.356258
0.354113
0.352046
0.350257
0.348508
0.347133
0.345776
0.344954
0.344106
0.343984
0.343998
0.344155
0.344373
0.344515
0.344015
0.342426
0.339981
0.336824
0.333391
0.330735
0.330887
0.33695
0.354348
0.388441
0.434067
0.478697
0.580078
1.36372
0.373239
0.369889
0.366755
0.363861
0.361137
0.358634
0.356256
0.354108
0.35204
0.350246
0.348493
0.347111
0.345749
0.34493
0.344108
0.344087
0.344259
0.344711
0.345459
0.346429
0.347207
0.347229
0.345965
0.343676
0.340467
0.336827
0.33379
0.333466
0.339028
0.355577
0.388099
0.42972
0.471879
0.582247
1.40541
0.369889
0.373242
0.366756
0.36386
0.361136
0.358632
0.356255
0.354104
0.352036
0.350237
0.348481
0.347091
0.345724
0.344899
0.344089
0.344115
0.344387
0.345036
0.346161
0.34774
0.349461
0.350947
0.351505
0.350542
0.34832
0.344978
0.340983
0.337464
0.336484
0.341395
0.357041
0.387309
0.425185
0.465495
0.584421
1.4395
0.366756
0.369899
0.37325
0.36386
0.361136
0.358631
0.356254
0.3541
0.352032
0.350228
0.348471
0.347074
0.345702
0.344868
0.344062
0.344105
0.344437
0.345214
0.346601
0.348623
0.35106
0.353631
0.35587
0.35697
0.356231
0.353996
0.35037
0.345914
0.341714
0.33994
0.344403
0.358795
0.38632
0.420719
0.459735
0.587093
1.46847
0.363859
0.366772
0.36992
0.373258
0.361136
0.358629
0.356253
0.354097
0.35203
0.350221
0.348463
0.347059
0.345683
0.344841
0.344033
0.344083
0.344446
0.345307
0.34687
0.349213
0.352187
0.355601
0.359098
0.362128
0.36372
0.36313
0.360726
0.3567
0.351568
0.34655
0.344221
0.348038
0.360716
0.385251
0.416566
0.45471
0.590054
1.49389
0.361136
0.363881
0.366806
0.369941
0.373266
0.358628
0.356253
0.354094
0.352028
0.350214
0.348456
0.347046
0.345667
0.344817
0.344007
0.344058
0.344437
0.34535
0.347039
0.349614
0.352991
0.357055
0.361549
0.366037
0.369843
0.371876
0.371274
0.368576
0.363919
0.357963
0.352521
0.349553
0.351947
0.36272
0.384348
0.412754
0.450367
0.593558
1.51679
0.358627
0.361164
0.363925
0.366841
0.369963
0.373274
0.356253
0.354091
0.352026
0.350208
0.34845
0.347034
0.345653
0.344796
0.343984
0.344034
0.344423
0.34537
0.347148
0.349902
0.353586
0.358157
0.36344
0.369103
0.374595
0.379158
0.381486
0.380745
0.377502
0.37205
0.365827
0.359888
0.355389
0.356077
0.364907
0.383527
0.409347
0.446726
0.597283
1.53771
0.356252
0.358658
0.361219
0.363971
0.366877
0.369985
0.373282
0.354088
0.352024
0.350202
0.348446
0.347023
0.345642
0.344778
0.343963
0.344014
0.344409
0.34538
0.347222
0.350117
0.354057
0.359035
0.364954
0.371572
0.378444
0.384946
0.390145
0.392655
0.391498
0.387534
0.382025
0.375491
0.367903
0.361638
0.360401
0.367149
0.382986
0.406272
0.443628
0.601374
1.55713
0.354086
0.356288
0.358721
0.361277
0.364018
0.366913
0.370008
0.373291
0.352023
0.350197
0.348443
0.347013
0.345632
0.344762
0.343946
0.343995
0.344396
0.345387
0.34728
0.350286
0.354444
0.359782
0.366236
0.373652
0.381674
0.389786
0.397192
0.402938
0.405339
0.40358
0.399832
0.394261
0.385971
0.376456
0.368205
0.364875
0.369591
0.382616
0.403618
0.441033
0.605558
1.57517
0.352023
0.354124
0.356362
0.358787
0.361335
0.364066
0.366951
0.370032
0.3733
0.350192
0.34844
0.347004
0.345625
0.344748
0.343931
0.34398
0.344386
0.345394
0.34733
0.35043
0.35477
0.360434
0.367389
0.375502
0.384515
0.394005
0.403276
0.411514
0.417509
0.419623
0.418393
0.414909
0.407513
0.397127
0.385425
0.375007
0.369437
0.372009
0.382625
0.401364
0.438841
0.609907
1.59214
0.350188
0.352065
0.354202
0.356438
0.358855
0.361396
0.364115
0.36699
0.370056
0.373309
0.348438
0.346996
0.345619
0.344735
0.343917
0.343967
0.344377
0.345401
0.347375
0.350558
0.355057
0.361006
0.36844
0.377241
0.387151
0.397863
0.408762
0.419147
0.427921
0.433999
0.437166
0.436575
0.431233
0.421601
0.408802
0.394695
0.38196
0.374099
0.374436
0.382736
0.399426
0.437047
0.614277
1.60796
0.348436
0.350229
0.352153
0.354284
0.356516
0.358924
0.361458
0.364166
0.367029
0.370081
0.373318
0.346988
0.345614
0.344724
0.343906
0.343955
0.34437
0.345408
0.347416
0.350674
0.355316
0.361521
0.369389
0.37888
0.389715
0.401572
0.413955
0.426249
0.437442
0.44661
0.454373
0.458815
0.456309
0.448588
0.436322
0.420842
0.404154
0.388992
0.378803
0.376871
0.382993
0.397812
0.435541
0.618633
1.62292
0.346981
0.348482
0.350317
0.352243
0.354367
0.356596
0.358995
0.361522
0.364219
0.36707
0.370107
0.373328
0.34561
0.344713
0.343897
0.343946
0.344365
0.345416
0.347455
0.35078
0.355553
0.361991
0.370259
0.380392
0.392198
0.405293
0.419106
0.433189
0.446568
0.458453
0.469847
0.479717
0.482457
0.477342
0.466732
0.451485
0.433102
0.413696
0.396034
0.383505
0.379291
0.38341
0.396431
0.434337
0.622977
1.63685
0.345608
0.34702
0.348576
0.350408
0.352336
0.354453
0.356679
0.359069
0.361588
0.364272
0.367112
0.370133
0.373337
0.344702
0.343889
0.343938
0.34436
0.345423
0.34749
0.350877
0.35577
0.362424
0.371061
0.381794
0.39453
0.408981
0.424403
0.440267
0.455744
0.470135
0.484788
0.499024
0.507631
0.507856
0.499436
0.485446
0.46691
0.445442
0.423224
0.403024
0.388159
0.381706
0.383967
0.39532
0.433341
0.627189
1.65005
0.344693
0.345649
0.347106
0.348673
0.350501
0.352431
0.354542
0.356764
0.359144
0.361655
0.364328
0.367155
0.37016
0.373347
0.343883
0.343932
0.344357
0.34543
0.347522
0.350966
0.355968
0.362821
0.371803
0.3831
0.396724
0.412505
0.429757
0.447725
0.465347
0.482206
0.499957
0.518248
0.531504
0.537885
0.534721
0.522338
0.504515
0.482426
0.457737
0.432652
0.409907
0.392734
0.384084
0.384554
0.394417
0.432572
0.631361
1.66227
0.343879
0.344718
0.345735
0.347194
0.348773
0.350598
0.35253
0.354633
0.356851
0.359222
0.361724
0.364384
0.367199
0.370187
0.373356
0.343926
0.344353
0.345436
0.347552
0.351048
0.356149
0.363186
0.372487
0.384315
0.398787
0.415855
0.434949
0.455425
0.47569
0.495153
0.51607
0.538396
0.555999
0.567131
0.570216
0.562772
0.545804
0.523745
0.497882
0.469877
0.441905
0.416638
0.397201
0.386444
0.385167
0.393698
0.431949
0.635338
1.67389
0.343922
0.343896
0.344779
0.345823
0.347285
0.348877
0.350697
0.352631
0.354727
0.356941
0.359302
0.361795
0.364442
0.367242
0.370213
0.373365
0.344349
0.345441
0.347578
0.351122
0.356315
0.36352
0.373118
0.385443
0.40072
0.419031
0.439948
0.463027
0.486556
0.509399
0.533806
0.560481
0.582489
0.598052
0.605729
0.604371
0.59174
0.569595
0.542961
0.513147
0.481772
0.450925
0.423177
0.401538
0.388765
0.385803
0.393121
0.431491
0.639252
1.68458
0.344346
0.343912
0.343938
0.344839
0.345917
0.347381
0.348985
0.3508
0.352735
0.354824
0.357033
0.359384
0.361867
0.3645
0.367284
0.370239
0.373374
0.345444
0.347601
0.351189
0.356467
0.363826
0.373697
0.386486
0.402526
0.422029
0.444744
0.470445
0.497414
0.524691
0.553835
0.585545
0.612469
0.632613
0.644493
0.647196
0.640137
0.621383
0.593496
0.562005
0.528113
0.493347
0.459662
0.429496
0.40573
0.391033
0.386454
0.39267
0.431134
0.642945
1.69476
0.345451
0.34431
0.343884
0.343985
0.344904
0.346016
0.34748
0.349096
0.350907
0.352843
0.354923
0.357127
0.359468
0.361939
0.364556
0.367325
0.370263
0.373382
0.347621
0.35125
0.356604
0.364106
0.374228
0.387448
0.404204
0.424845
0.449318
0.477625
0.508123
0.540343
0.575892
0.614684
0.647655
0.673241
0.689546
0.69568
0.691556
0.677361
0.651493
0.617326
0.580744
0.542693
0.504547
0.468081
0.435573
0.409763
0.393236
0.387116
0.392316
0.430892
0.646554
1.70408
0.347646
0.345378
0.344229
0.343846
0.344044
0.344972
0.34612
0.347584
0.349211
0.351017
0.352953
0.355026
0.357223
0.359551
0.362009
0.364611
0.367365
0.370287
0.373391
0.351305
0.356729
0.36436
0.374714
0.388333
0.40576
0.42748
0.453654
0.484522
0.518631
0.556174
0.598889
0.647678
0.690269
0.723325
0.74526
0.754786
0.752276
0.73895
0.715942
0.681907
0.640939
0.599073
0.556819
0.515328
0.476155
0.441392
0.413628
0.395364
0.387782
0.392049
0.430721
0.649944
1.71298
0.351364
0.34751
0.345202
0.344142
0.343812
0.344112
0.345045
0.346228
0.347692
0.349329
0.35113
0.353066
0.355132
0.357319
0.359632
0.362077
0.364664
0.367403
0.370311
0.373399
0.356841
0.364591
0.375158
0.389146
0.407197
0.429935
0.457743
0.491105
0.528893
0.572033
0.622347
0.683247
0.741457
0.788121
0.81842
0.832211
0.830219
0.815028
0.78954
0.755804
0.712488
0.664218
0.616908
0.570443
0.525662
0.483868
0.446944
0.417321
0.397412
0.388444
0.391848
0.430626
0.653237
1.72008
0.356956
0.351149
0.34717
0.345017
0.344064
0.343788
0.344187
0.345123
0.34634
0.347804
0.34945
0.351248
0.353181
0.355236
0.357412
0.359711
0.362142
0.364715
0.367441
0.370333
0.373406
0.3648
0.37556
0.38989
0.408522
0.432216
0.461581
0.49736
0.538855
0.587719
0.646029
0.721534
0.801065
0.871882
0.918998
0.939342
0.937342
0.917224
0.884371
0.843354
0.79684
0.743115
0.687069
0.634185
0.583531
0.535532
0.491211
0.452224
0.420837
0.399374
0.389101
0.391707
0.430582
0.655903
1.72605
0.365006
0.356637
0.350581
0.346814
0.344848
0.343996
0.343772
0.344268
0.345208
0.346457
0.347922
0.349575
0.351369
0.353296
0.355339
0.357502
0.359788
0.362206
0.364765
0.367477
0.370355
0.373414
0.375929
0.390569
0.40974
0.434329
0.465171
0.503276
0.54846
0.603063
0.669932
0.763137
0.869855
0.973802
1.05265
1.08981
1.08892
1.06149
1.01585
0.960107
0.900167
0.838866
0.773661
0.709415
0.650861
0.59606
0.544929
0.498181
0.457233
0.424176
0.40125
0.389745
0.391609
0.430586
0.658245
1.73248
0.376281
0.364555
0.355747
0.34999
0.346482
0.344694
0.343938
0.343767
0.344353
0.345299
0.346576
0.348045
0.349703
0.35149
0.353407
0.355438
0.35759
0.359863
0.362268
0.364814
0.367512
0.370377
0.373421
0.391195
0.410858
0.436282
0.468519
0.508851
0.557659
0.617965
0.694199
0.808281
0.947187
1.09103
1.2122
1.2859
1.29906
1.26479
1.20256
1.12461
1.04133
0.959472
0.881614
0.803993
0.73119
0.666904
0.608017
0.553851
0.504781
0.461971
0.42734
0.403036
0.390376
0.391559
0.430602
0.66068
1.73947
0.391776
0.375666
0.363215
0.354826
0.349431
0.346173
0.344552
0.34389
0.343772
0.344442
0.3454
0.346699
0.348172
0.349829
0.351608
0.353515
0.355535
0.357675
0.359936
0.362329
0.364861
0.367547
0.370397
0.373425
0.411893
0.438086
0.471632
0.514085
0.566422
0.632398
0.71894
0.856498
1.03072
1.21837
1.38822
1.51076
1.56363
1.53928
1.46106
1.35646
1.24094
1.1266
1.02053
0.924738
0.833964
0.752336
0.682293
0.6194
0.562303
0.511016
0.466446
0.430332
0.404735
0.390906
0.39153
0.43064
0.663489
1.74702
0.412835
0.390965
0.373699
0.361837
0.353951
0.348902
0.345885
0.344421
0.343852
0.34379
0.344531
0.345508
0.346825
0.348301
0.349952
0.351724
0.353621
0.35563
0.357758
0.360007
0.362387
0.364908
0.36758
0.370408
0.373425
0.439765
0.474526
0.518986
0.574735
0.646361
0.744126
0.906789
1.11747
1.35012
1.57161
1.74982
1.85714
1.87477
1.80139
1.67094
1.51847
1.3619
1.21424
1.0825
0.967851
0.863424
0.772801
0.697019
0.630212
0.570293
0.516896
0.470663
0.433155
0.406132
0.391365
0.391516
0.430732
0.666428
1.75526
0.441267
0.411779
0.388132
0.371691
0.360524
0.353117
0.348396
0.345617
0.344301
0.343823
0.343828
0.344622
0.345626
0.34695
0.348428
0.350072
0.351836
0.353723
0.355722
0.357838
0.360076
0.362444
0.364952
0.367597
0.370408
0.373425
0.47723
0.523573
0.582606
0.659867
0.769593
0.95798
1.20472
1.48163
1.75508
1.99217
2.16215
2.23942
2.20919
2.07718
1.88821
1.68422
1.48464
1.30259
1.14451
1.01056
0.892223
0.792544
0.711076
0.64046
0.577834
0.522432
0.474632
0.435465
0.40732
0.391874
0.39152
0.430828
0.669817
1.76417
0.479611
0.439919
0.407753
0.385263
0.369775
0.359265
0.352313
0.347907
0.345367
0.344191
0.343793
0.343889
0.344713
0.345747
0.347072
0.348552
0.35019
0.351946
0.353823
0.355811
0.357917
0.360143
0.3625
0.364974
0.367597
0.370408
0.373425
0.52788
0.590061
0.672936
0.795103
1.00898
1.29038
1.60966
1.93364
2.22992
2.46668
2.61384
2.64777
2.55854
2.35991
2.10775
1.85007
1.60675
1.39019
1.20576
1.05248
0.920225
0.811528
0.724463
0.650158
0.584939
0.527638
0.47787
0.437419
0.408622
0.392451
0.391538
0.431047
0.673378
1.77389
0.531632
0.477921
0.43424
0.403711
0.382523
0.367933
0.358049
0.351538
0.34744
0.345134
0.344091
0.343759
0.343967
0.344804
0.345868
0.347192
0.348674
0.350304
0.352053
0.35392
0.355898
0.357993
0.360208
0.362527
0.364974
0.367597
0.370408
0.373425
0.597139
0.685596
0.820421
1.05892
1.37305
1.73222
2.10419
2.45789
2.76205
2.98461
3.0956
3.07397
2.91589
2.64414
2.32558
2.01324
1.72636
1.47585
1.26558
1.0933
0.947309
0.82972
0.737188
0.659319
0.591626
0.531881
0.480604
0.439553
0.410052
0.393089
0.391586
0.431226
0.677478
1.78438
0.603301
0.529509
0.469935
0.428599
0.399849
0.379883
0.366148
0.356872
0.350791
0.346997
0.344918
0.344003
0.343732
0.344054
0.344896
0.345988
0.34731
0.348793
0.350415
0.352158
0.354015
0.355983
0.358067
0.36024
0.362527
0.364974
0.367597
0.370408
0.373425
0.69785
0.84534
1.10717
1.45183
1.84814
2.26499
2.67298
3.04242
3.34155
3.53711
3.59932
3.51087
3.27542
2.92552
2.53867
2.17165
1.84206
1.55867
1.32346
1.13276
0.973373
0.847104
0.749258
0.667961
0.597082
0.535463
0.483585
0.441883
0.411622
0.393822
0.391647
0.431624
0.68184
1.79581
0.708622
0.600666
0.518188
0.462092
0.423205
0.396118
0.377317
0.364414
0.355734
0.350076
0.34658
0.344721
0.343925
0.343717
0.344145
0.34499
0.346106
0.347426
0.348909
0.350524
0.352259
0.354107
0.356065
0.358104
0.36024
0.362527
0.364974
0.367597
0.370408
0.373421
0.869616
1.15331
1.52624
1.95683
2.4152
2.87352
3.30422
3.67744
3.9597
4.11603
4.11748
3.95196
3.6321
3.20062
2.74477
2.32385
1.95291
1.63802
1.37899
1.17064
0.998343
0.863667
0.760687
0.675029
0.601692
0.539366
0.486833
0.44443
0.413351
0.394627
0.391786
0.431922
0.686823
1.80811
0.705441
0.890971
0.583998
0.507285
0.454589
0.417985
0.392487
0.374821
0.362734
0.354637
0.349394
0.34619
0.344542
0.343863
0.343715
0.344235
0.345086
0.346222
0.34754
0.349022
0.350631
0.352358
0.354196
0.356106
0.358104
0.36024
0.362527
0.364974
0.367597
0.370397
0.373414
1.19698
1.59605
2.05812
2.55451
3.05883
3.54561
3.98779
4.35406
4.60822
4.71348
4.64285
4.3913
3.98167
3.46672
2.94227
2.46886
2.0583
1.7135
1.43192
1.20681
1.02217
0.879405
0.770064
0.68101
0.606718
0.543618
0.490375
0.447215
0.415249
0.395563
0.39191
0.432579
0.692234
1.82147
0.679239
0.888392
1.23458
0.568452
0.496872
0.447314
0.412897
0.388948
0.372398
0.361111
0.353585
0.348746
0.345831
0.344385
0.343817
0.343727
0.344324
0.345184
0.346335
0.347653
0.349132
0.350734
0.352454
0.354241
0.356106
0.358104
0.36024
0.362527
0.364974
0.36758
0.370376
0.373406
1.66106
2.15209
2.68308
3.22889
3.76601
4.27033
4.7142
5.06365
5.27891
5.32162
5.16845
4.82348
4.32054
3.72173
3.13007
2.60614
2.15787
1.78487
1.48209
1.24117
1.04481
0.892353
0.778017
0.687541
0.612199
0.548252
0.494239
0.450261
0.417347
0.396582
0.392185
0.433051
0.698318
1.83577
0.655283
0.845975
1.23295
1.71644
0.553819
0.486759
0.440218
0.407934
0.385507
0.370051
0.359547
0.352579
0.348139
0.34551
0.344253
0.343784
0.343752
0.34441
0.345285
0.346445
0.347764
0.349239
0.350836
0.352502
0.354241
0.356106
0.358104
0.360241
0.362527
0.364952
0.367546
0.370355
0.373398
2.23873
2.80129
3.38424
3.96575
4.52459
5.03721
5.47429
5.79781
5.96358
5.93261
5.68762
5.24367
4.64577
3.96419
3.30752
2.73537
2.2515
1.85204
1.52943
1.27369
1.06343
0.903352
0.78672
0.694676
0.61818
0.553306
0.498455
0.453595
0.419653
0.397782
0.392402
0.434041
0.70513
1.85126
0.633179
0.806211
1.16971
1.71678
2.31217
0.539712
0.47688
0.433297
0.403104
0.382172
0.367786
0.358048
0.351629
0.347585
0.345231
0.34414
0.343762
0.343798
0.344493
0.345387
0.346552
0.347873
0.349344
0.350886
0.352501
0.354241
0.356106
0.358104
0.360241
0.362499
0.364907
0.367511
0.370332
0.37339
2.90939
3.52569
4.14592
4.7514
5.32272
5.83623
6.25938
6.54828
6.65393
6.53871
6.19415
5.64775
4.95513
4.19312
3.47428
2.85649
2.33918
1.91502
1.57394
1.3003
1.07924
0.915407
0.79625
0.702477
0.624709
0.558819
0.503057
0.457245
0.422208
0.399084
0.392874
0.434863
0.712604
1.86767
0.612328
0.769036
1.10771
1.63476
2.31558
3.00031
0.525982
0.467237
0.426563
0.398419
0.37895
0.365609
0.356625
0.350757
0.347089
0.344992
0.344044
0.343735
0.343858
0.344573
0.345489
0.346657
0.347982
0.349396
0.350886
0.352502
0.354241
0.356106
0.358104
0.360208
0.362443
0.36486
0.367476
0.37031
0.373382
3.65384
4.30797
4.95266
5.57229
6.14917
6.65826
7.06135
7.30684
7.34162
7.13239
6.68241
6.03234
5.24703
4.40796
3.63026
2.96961
2.42106
1.97389
1.61014
1.32281
1.09655
0.928625
0.806693
0.711009
0.631841
0.564836
0.508083
0.461245
0.425018
0.400624
0.393261
0.436202
0.72128
1.88538
0.592437
0.734033
1.04716
1.55246
2.21665
3.00718
3.7602
0.512604
0.457853
0.420032
0.393891
0.37585
0.36354
0.355315
0.349973
0.346645
0.344785
0.343965
0.343712
0.343926
0.344652
0.345593
0.346763
0.348036
0.349395
0.350887
0.352502
0.354241
0.356107
0.358067
0.360142
0.362386
0.364812
0.367439
0.370286
0.373374
4.453
5.13076
5.78893
6.41557
6.99401
7.49532
7.87259
8.06523
8.0182
7.70648
7.1476
6.39493
5.52049
4.60852
3.77564
3.07495
2.49731
2.02155
1.64065
1.34737
1.11549
0.943122
0.818143
0.720349
0.639635
0.571406
0.513573
0.465627
0.428141
0.402304
0.393958
0.437595
0.730562
1.90387
0.57339
0.701063
0.987887
1.46999
2.1165
2.89263
3.76955
4.57088
0.499595
0.448758
0.413722
0.389533
0.372901
0.361632
0.354135
0.349269
0.346251
0.344608
0.343898
0.343697
0.343999
0.344732
0.3457
0.346813
0.348035
0.349395
0.350887
0.352502
0.354242
0.356066
0.357992
0.360075
0.362327
0.364763
0.367402
0.370262
0.373365
5.28755
5.97638
6.63999
7.27014
7.84921
8.34067
8.68563
8.81485
8.67522
8.2545
7.58588
6.73379
5.77503
4.79496
3.91071
3.1728
2.55883
2.06159
1.67378
1.37415
1.13624
0.959027
0.830701
0.730577
0.648159
0.578583
0.519572
0.470434
0.431577
0.404277
0.394673
0.439416
0.741709
1.92721
0.555134
0.670102
0.930065
1.38704
2.01508
2.77643
3.63959
4.57999
5.41093
0.486988
0.43998
0.407653
0.385387
0.37018
0.359909
0.353071
0.348639
0.345905
0.344456
0.343844
0.343691
0.344077
0.344819
0.345753
0.346808
0.348035
0.349395
0.350887
0.352503
0.354197
0.355983
0.357916
0.360005
0.362266
0.364713
0.367363
0.370238
0.373356
6.13753
6.82794
7.49312
8.12747
8.70882
9.18821
9.4927
9.54666
9.30455
8.7709
7.99442
7.04797
6.0107
4.96762
4.03587
3.25157
2.61039
2.10492
1.70974
1.40331
1.15893
0.976474
0.844482
0.741785
0.657483
0.586426
0.52613
0.475702
0.435401
0.406469
0.395653
0.44164
0.75554
1.95429
0.537629
0.641214
0.874159
1.30356
1.91194
2.65832
3.50835
4.43352
5.41515
6.25913
0.474819
0.43155
0.401882
0.381561
0.367721
0.358355
0.352114
0.348076
0.345602
0.344324
0.343801
0.343698
0.344166
0.344856
0.34575
0.346807
0.348036
0.349396
0.350889
0.352455
0.354107
0.355898
0.357837
0.359934
0.362204
0.364662
0.367324
0.370213
0.373347
6.98376
7.67082
8.33881
8.98216
9.56832
10.0319
10.2853
10.2514
9.89871
9.25128
8.37146
7.3373
6.22791
5.12702
4.13634
3.31748
2.66609
2.15179
1.74873
1.43505
1.18374
0.99561
0.859604
0.754069
0.667688
0.594999
0.5333
0.481487
0.439624
0.408993
0.396865
0.444559
0.774595
1.98023
0.520858
0.614362
0.820731
1.21988
1.80675
2.53776
3.37522
4.28717
5.24936
6.25233
7.09498
0.463133
0.423552
0.396561
0.378106
0.3655
0.356952
0.351254
0.347574
0.345333
0.34421
0.343774
0.343732
0.34421
0.344842
0.345752
0.346808
0.348036
0.349398
0.350838
0.352359
0.354015
0.35581
0.357756
0.359861
0.36214
0.364609
0.367283
0.370187
0.373337
7.80949
8.49404
9.17184
9.83083
10.4239
10.8651
11.054
10.9197
10.4512
9.69259
8.71639
7.60218
6.42731
5.25448
4.22025
3.38853
2.72617
2.2024
1.79094
1.46955
1.21084
1.01658
0.876198
0.767538
0.678862
0.604375
0.541144
0.487831
0.444314
0.411882
0.398488
0.449172
0.79454
2.00486
0.504822
0.589437
0.770423
1.13655
1.69944
2.41416
3.23967
4.13983
5.08647
6.06199
7.06955
7.89938
0.45205
0.416196
0.39176
0.374988
0.363496
0.355689
0.350481
0.347124
0.345096
0.34412
0.343781
0.343738
0.344201
0.34484
0.345752
0.34681
0.348039
0.349347
0.350736
0.352259
0.35392
0.355721
0.357674
0.359787
0.362075
0.364555
0.367241
0.370161
0.373327
8.60181
9.29266
9.98773
10.6696
11.272
11.6796
11.7886
11.5425
10.9569
10.0933
9.02949
7.84347
6.58577
5.36059
4.31049
3.46501
2.79089
2.257
1.83656
1.50698
1.24039
1.03955
0.894398
0.782304
0.691097
0.614634
0.549724
0.494801
0.44953
0.415711
0.401238
0.45336
0.817586
2.02763
0.48964
0.566281
0.723839
1.05434
1.59014
2.28708
3.10089
3.99108
4.92465
5.87935
6.84718
7.84515
8.65806
0.441872
0.409573
0.38743
0.372174
0.361689
0.354551
0.349785
0.34672
0.3449
0.34408
0.343774
0.343711
0.344204
0.344841
0.345752
0.346817
0.347985
0.349241
0.350632
0.352158
0.353823
0.355629
0.357589
0.35971
0.362007
0.364499
0.367198
0.370134
0.373318
9.35211
10.0534
10.7753
11.489
12.1052
12.4673
12.4776
12.112
11.4126
10.4533
9.3118
8.03355
6.71707
5.47427
4.40734
3.5472
2.86051
2.31579
1.8858
1.54752
1.27256
1.06466
0.91434
0.798486
0.704495
0.625855
0.559119
0.502464
0.45636
0.420909
0.403789
0.45976
0.841831
2.04845
0.475687
0.544887
0.68136
0.974254
1.47921
2.1563
2.95805
3.83992
4.76364
5.70143
6.6397
7.58219
8.55756
9.3644
0.432735
0.403614
0.383527
0.369637
0.360059
0.353523
0.349157
0.346374
0.344782
0.344046
0.343741
0.34371
0.344205
0.344846
0.345757
0.346768
0.347876
0.349133
0.350526
0.352054
0.353724
0.355535
0.357502
0.359632
0.361938
0.364442
0.367154
0.370107
0.373308
10.0584
10.7875
11.5513
12.2952
12.9146
13.2135
13.1095
12.6221
11.8173
10.7738
9.5316
8.18999
6.85693
5.59576
4.51108
3.63535
2.93523
2.37896
1.9388
1.59131
1.30749
1.09205
0.93616
0.816205
0.719158
0.63814
0.569406
0.512431
0.465029
0.426314
0.407803
0.465344
0.869332
2.06689
0.463138
0.525566
0.643143
0.89755
1.36725
2.02172
2.81046
3.68518
4.60228
5.52801
6.44256
7.34326
8.24598
9.18758
10.0023
0.424544
0.398254
0.380013
0.36735
0.358586
0.352592
0.348612
0.346131
0.344703
0.344
0.343741
0.343712
0.344204
0.344863
0.345705
0.346661
0.347767
0.349023
0.350417
0.351948
0.353622
0.355439
0.357412
0.359551
0.361867
0.364384
0.367111
0.370081
0.373299
10.7133
11.4918
12.3188
13.0919
13.6949
13.9043
13.6742
13.0695
12.1717
11.0194
9.71089
8.35531
7.00537
5.72519
4.62189
3.72966
3.01526
2.44667
1.99571
1.63848
1.3453
1.12186
0.959982
0.835575
0.735205
0.651571
0.582754
0.524798
0.474143
0.432748
0.411228
0.474131
0.898642
2.08301
0.45188
0.508299
0.610264
0.826375
1.2552
1.88346
2.65748
3.52567
4.4391
5.35775
6.25537
7.12248
7.96829
8.81969
9.72874
10.5627
0.417207
0.393435
0.376849
0.365284
0.357251
0.351779
0.348213
0.34598
0.344639
0.344002
0.343743
0.343716
0.344216
0.344827
0.345597
0.346556
0.347657
0.348911
0.350307
0.351839
0.353517
0.355341
0.35732
0.359469
0.361795
0.364327
0.367068
0.370056
0.37329
11.3168
12.1724
13.0803
13.8786
14.435
14.5244
14.1639
13.4537
12.438
11.2174
9.89827
8.52909
7.16225
5.86259
4.7399
3.83028
3.10072
2.51903
2.05663
1.68911
1.38608
1.15418
0.985912
0.856716
0.752715
0.668984
0.599179
0.537754
0.484081
0.439247
0.416746
0.482046
0.931112
2.09611
0.441807
0.49278
0.582494
0.763409
1.14523
1.74183
2.49859
3.36016
4.27245
5.18888
6.07643
6.91906
7.7187
8.49588
9.28944
10.1715
11.044
0.410637
0.389103
0.373995
0.363413
0.356081
0.351167
0.347973
0.345887
0.344643
0.344004
0.343747
0.343749
0.344173
0.34474
0.345495
0.346449
0.347545
0.348796
0.350193
0.351727
0.35341
0.35524
0.357226
0.359385
0.361723
0.364271
0.367027
0.370032
0.373282
11.8737
12.8403
13.8395
14.6415
15.1164
15.059
14.575
13.7346
12.649
11.4212
10.0927
8.71066
7.3272
6.00781
4.86509
3.93726
3.19169
2.59612
2.12158
1.74322
1.42987
1.18907
1.01403
0.879686
0.775362
0.690294
0.616309
0.551466
0.49446
0.447138
0.421488
0.493845
0.966669
2.10622
0.432816
0.478805
0.558758
0.709996
1.04187
1.59849
2.33342
3.18739
4.10051
5.01934
5.90362
6.73063
7.49584
8.2122
8.91055
9.64369
10.5016
11.443
0.404754
0.385204
0.371414
0.361769
0.355182
0.350808
0.34785
0.345892
0.344646
0.344008
0.343785
0.343746
0.344084
0.344661
0.345394
0.34634
0.347432
0.348678
0.350078
0.351614
0.353301
0.355137
0.35713
0.359302
0.361654
0.364217
0.366987
0.370009
0.373273
12.3939
13.5101
14.5963
15.3626
15.7119
15.4983
14.8648
13.952
12.8617
11.6287
10.2925
8.89896
7.49956
6.16053
4.99731
4.05053
3.28814
2.6779
2.19055
1.80078
1.47665
1.22655
1.04435
0.909224
0.80285
0.712361
0.634187
0.565803
0.505887
0.455071
0.428754
0.505598
1.00443
2.11395
0.424803
0.466232
0.538199
0.665284
0.948346
1.45841
2.16308
3.00613
3.92124
4.84678
5.73451
6.55456
7.29632
7.96652
8.5876
9.19972
9.87019
10.7033
11.7571
0.399475
0.381686
0.369143
0.360486
0.354661
0.350647
0.347858
0.345896
0.344649
0.34406
0.343797
0.343715
0.344008
0.344583
0.345294
0.346228
0.347318
0.348558
0.349959
0.351497
0.353188
0.355032
0.357035
0.359222
0.361586
0.364165
0.366948
0.369986