/*--------------------------------*- C++ -*----------------------------------*\
  =========                 |
  \\      /  F ield         | OpenFOAM: The Open Source CFD Toolbox
   \\    /   O peration     | Website:  https://openfoam.org
    \\  /    A nd           | Version:  8
     \\/     M anipulation  |
\*---------------------------------------------------------------------------*/
FoamFile
{
    version     2.0;
    format      ascii;
    class       surfaceScalarField;
    location    "0.26";
    object      phi;
}
// * * * * * * * * * * * * * * * * * * * * * * * * * * * * * * * * * * * * * //

dimensions      [0 3 -1 0 0 0 0];

internalField   nonuniform List<scalar> 
31053
(
6.40145e-07
1.27399e-05
8.6316e-07
1.5157e-05
3.57382e-07
1.23825e-05
9.488e-07
1.75544e-05
5.67565e-07
1.49468e-05
2.75238e-07
1.21072e-05
9.73475e-07
2.02153e-05
6.82324e-07
1.74396e-05
4.71109e-07
1.47509e-05
2.16687e-07
1.18905e-05
9.64857e-07
2.32486e-05
7.41075e-07
2.01566e-05
5.9707e-07
1.73136e-05
3.96998e-07
1.45706e-05
1.72249e-07
1.17183e-05
9.34927e-07
2.66899e-05
7.66164e-07
2.32235e-05
6.72252e-07
2.00814e-05
5.24387e-07
1.71863e-05
3.32872e-07
1.441e-05
1.37927e-07
1.15804e-05
8.89491e-07
3.06654e-05
7.69379e-07
2.66867e-05
7.14373e-07
2.31814e-05
6.05455e-07
2.00003e-05
4.55066e-07
1.70641e-05
2.78657e-07
1.42693e-05
1.10876e-07
1.14695e-05
8.31638e-07
3.51979e-05
7.57174e-07
3.06776e-05
7.34332e-07
2.66668e-05
6.53737e-07
2.31331e-05
5.36142e-07
1.99192e-05
3.91763e-07
1.6951e-05
2.31675e-07
1.41485e-05
8.84051e-08
1.13811e-05
7.65155e-07
4.03865e-05
7.33729e-07
3.52213e-05
7.38579e-07
3.06734e-05
6.79298e-07
2.66412e-05
5.85186e-07
2.30841e-05
4.69129e-07
1.98419e-05
3.3302e-07
1.68496e-05
1.89564e-07
1.40473e-05
6.87022e-08
1.13124e-05
6.92631e-07
4.63525e-05
7.00197e-07
4.042e-05
7.30991e-07
3.52289e-05
6.88139e-07
3.06646e-05
6.1121e-07
2.66152e-05
5.15652e-07
2.30376e-05
4.03644e-07
1.97713e-05
2.77188e-07
1.6762e-05
1.50543e-07
1.39655e-05
5.06205e-08
1.12618e-05
6.15908e-07
5.32167e-05
6.58103e-07
4.63946e-05
7.11908e-07
4.04391e-05
6.83188e-07
3.52338e-05
6.2013e-07
3.06556e-05
5.38968e-07
2.65919e-05
4.4489e-07
2.29963e-05
3.38564e-07
1.97099e-05
2.22893e-07
1.66896e-05
1.13318e-07
1.39028e-05
3.33786e-08
1.12284e-05
5.3695e-07
6.1059e-05
6.09249e-07
5.32656e-05
6.81776e-07
4.64248e-05
6.67329e-07
4.0455e-05
6.15323e-07
3.52386e-05
5.44833e-07
3.06498e-05
4.62838e-07
2.65739e-05
3.72144e-07
2.29627e-05
2.72766e-07
1.966e-05
1.69033e-07
1.66339e-05
7.69429e-08
1.38592e-05
1.64669e-08
1.12119e-05
4.57611e-07
7.00613e-05
5.55203e-07
6.1113e-05
6.41692e-07
5.33057e-05
6.41528e-07
4.64506e-05
5.9903e-07
4.04712e-05
5.36711e-07
3.52468e-05
4.62851e-07
3.06498e-05
3.82357e-07
2.65637e-05
2.9636e-07
2.29391e-05
2.05241e-07
1.96238e-05
1.14802e-07
1.65961e-05
4.07236e-08
1.38349e-05
-2.87275e-10
1.12122e-05
3.79586e-07
8.041e-05
4.97383e-07
7.01192e-05
5.92896e-07
6.11618e-05
6.05845e-07
5.33413e-05
5.72358e-07
4.64772e-05
5.16563e-07
4.04914e-05
4.48302e-07
3.52613e-05
3.73987e-07
3.06581e-05
2.96487e-07
2.65636e-05
2.16528e-07
2.29279e-05
1.35299e-07
1.96033e-05
5.95802e-08
1.65772e-05
4.28518e-09
1.38304e-05
-1.71167e-08
1.12293e-05
3.1676e-07
7.62528e-05
4.37085e-07
8.04703e-05
5.36828e-07
7.01752e-05
5.60596e-07
6.1207e-05
5.3558e-07
5.33781e-05
4.85381e-07
4.65084e-05
4.21038e-07
4.05187e-05
3.50224e-07
3.52851e-05
2.7723e-07
3.06774e-05
2.0418e-07
2.65759e-05
1.31964e-07
2.29312e-05
6.24108e-08
1.96005e-05
3.02064e-09
1.65785e-05
-3.25882e-08
1.38458e-05
-3.42133e-08
1.12635e-05
2.63455e-07
7.62433e-05
3.85417e-07
7.63045e-05
4.75147e-07
8.0532e-05
5.06497e-07
7.02293e-05
4.88791e-07
6.12538e-05
4.43506e-07
5.342e-05
3.8193e-07
4.65475e-05
3.12798e-07
4.05561e-05
2.41505e-07
3.53208e-05
1.71485e-07
3.07101e-05
1.04703e-07
2.66032e-05
4.21509e-08
2.29514e-05
-1.36477e-08
1.96171e-05
-5.5006e-08
1.66009e-05
-7.0056e-08
1.38817e-05
-5.15464e-08
1.13151e-05
2.18439e-07
7.6235e-05
3.38714e-07
7.629e-05
4.20542e-07
7.63591e-05
4.44755e-07
8.05937e-05
4.32299e-07
7.02858e-05
3.91016e-07
6.13063e-05
3.31266e-07
5.34707e-05
2.62451e-07
4.65979e-05
1.90874e-07
4.06067e-05
1.21005e-07
3.53713e-05
5.59585e-08
3.07588e-05
-2.46897e-09
2.66478e-05
-5.30478e-08
2.29908e-05
-9.28481e-08
1.9655e-05
-1.14465e-07
1.66453e-05
-1.08016e-07
1.39382e-05
-6.89536e-08
1.1384e-05
1.80615e-07
7.62298e-05
2.96576e-07
7.62772e-05
3.69893e-07
7.63407e-05
3.88466e-07
7.64154e-05
3.66958e-07
8.06591e-05
3.2806e-07
7.03488e-05
2.69113e-07
6.13685e-05
1.99366e-07
5.35337e-05
1.25923e-07
4.66628e-05
5.40685e-08
4.06737e-05
-1.21473e-08
3.54394e-05
-6.98973e-08
3.08262e-05
-1.17432e-07
2.67122e-05
-1.53455e-07
2.30515e-05
-1.7491e-07
1.97154e-05
-1.75053e-07
1.67123e-05
-1.46193e-07
1.40154e-05
-8.63007e-08
1.14703e-05
1.49017e-07
7.62216e-05
2.58623e-07
7.62678e-05
3.23152e-07
7.63239e-05
3.35248e-07
7.63939e-05
3.0675e-07
7.64756e-05
2.55295e-07
8.07319e-05
1.95589e-07
7.04223e-05
1.23573e-07
6.14443e-05
4.67014e-08
5.3613e-05
-2.89411e-08
4.67458e-05
-9.85858e-08
4.07601e-05
-1.5852e-07
3.5528e-05
-2.0615e-07
3.0915e-05
-2.39875e-07
2.67986e-05
-2.58557e-07
2.31351e-05
-2.59242e-07
1.97996e-05
-2.36251e-07
1.68024e-05
-1.84218e-07
1.41133e-05
-1.03327e-07
1.15737e-05
1.22811e-07
7.62162e-05
2.2451e-07
7.62557e-05
2.80201e-07
7.63107e-05
2.85493e-07
7.63736e-05
2.49487e-07
7.64511e-05
1.88172e-07
7.65427e-05
1.11324e-07
8.08161e-05
3.51984e-08
7.05107e-05
-4.68261e-08
6.15378e-05
-1.28145e-07
5.37122e-05
-2.0323e-07
4.68505e-05
-2.67679e-07
4.08693e-05
-3.18155e-07
3.564e-05
-3.52332e-07
3.10274e-05
-3.6907e-07
2.69091e-05
-3.67456e-07
2.32433e-05
-3.44957e-07
1.99083e-05
-2.97396e-07
1.69156e-05
-2.2161e-07
1.42316e-05
-1.19846e-07
1.16935e-05
1.01191e-07
7.62116e-05
1.93892e-07
7.62468e-05
2.40904e-07
7.6295e-05
2.39379e-07
7.63568e-05
1.95859e-07
7.64273e-05
1.24346e-07
7.6515e-05
3.39583e-08
7.66201e-05
-6.50412e-08
8.09164e-05
-1.54512e-07
7.06184e-05
-2.43661e-07
6.16533e-05
-3.26414e-07
5.38354e-05
-3.97561e-07
4.69803e-05
-4.53223e-07
4.10043e-05
-4.90413e-07
3.57781e-05
-5.07519e-07
3.11659e-05
-5.03811e-07
2.70455e-05
-4.78852e-07
2.33772e-05
-4.31024e-07
2.00419e-05
-3.57688e-07
1.70516e-05
-2.57856e-07
1.43696e-05
-1.3552e-07
1.1829e-05
8.47348e-08
6.95985e-05
1.66474e-07
7.6239e-05
2.05108e-07
7.62826e-05
1.96987e-07
7.63374e-05
1.4626e-07
7.64064e-05
6.47591e-08
7.64869e-05
-3.93014e-08
7.65882e-05
-1.56424e-07
7.67115e-05
-2.7548e-07
8.10373e-05
-3.75324e-07
7.075e-05
-4.68369e-07
6.17953e-05
-5.48764e-07
5.39866e-05
-6.11925e-07
4.7139e-05
-6.54402e-07
4.11683e-05
-6.74166e-07
3.59447e-05
-6.70187e-07
3.13322e-05
-6.42386e-07
2.7209e-05
-5.91299e-07
2.35375e-05
-5.16212e-07
2.02005e-05
-4.16239e-07
1.721e-05
-2.92338e-07
1.45264e-05
-1.50161e-07
1.19792e-05
7.21561e-08
6.25566e-05
1.44032e-07
6.96209e-05
1.72685e-07
7.62715e-05
1.58344e-07
7.63213e-05
1.00926e-07
7.63827e-05
1.00065e-08
7.64612e-05
-1.07307e-07
7.65549e-05
-2.42453e-07
7.66743e-05
-3.84983e-07
7.6821e-05
-5.22051e-07
8.11841e-05
-6.28916e-07
7.09106e-05
-7.21666e-07
6.19682e-05
-7.95179e-07
5.41698e-05
-8.45318e-07
4.733e-05
-8.69871e-07
4.1364e-05
-8.67557e-07
3.61421e-05
-8.38192e-07
3.15281e-05
-7.82896e-07
2.74006e-05
-7.03055e-07
2.37243e-05
-5.99201e-07
2.03834e-05
-4.72072e-07
1.73898e-05
-3.24548e-07
1.47008e-05
-1.63298e-07
1.21425e-05
6.23672e-08
5.62278e-05
1.25845e-07
6.25748e-05
1.45941e-07
6.96476e-05
1.23463e-07
7.63063e-05
6.00022e-08
7.63622e-05
-3.95225e-08
7.64323e-05
-1.69266e-07
7.65232e-05
-3.21788e-07
7.66342e-05
-4.87471e-07
7.67767e-05
-6.5407e-07
7.6953e-05
-8.06736e-07
8.13619e-05
-9.16098e-07
7.1105e-05
-1.00356e-06
6.21766e-05
-1.06447e-06
5.4389e-05
-1.09617e-06
4.75563e-05
-1.09741e-06
4.15939e-05
-1.06797e-06
3.63719e-05
-1.00916e-06
3.17543e-05
-9.2307e-07
2.76206e-05
-8.12323e-07
2.39375e-05
-6.78551e-07
2.05899e-05
-5.24289e-07
1.75895e-05
-3.53526e-07
1.4891e-05
-1.7417e-07
1.23167e-05
5.46328e-08
5.05397e-05
1.10999e-07
5.62426e-05
1.24161e-07
6.25965e-05
9.48953e-08
6.96762e-05
2.35864e-08
7.63428e-05
-8.35699e-08
7.64062e-05
-2.24626e-07
7.64876e-05
-3.93438e-07
7.65948e-05
-5.81402e-07
7.67281e-05
-7.77013e-07
7.68997e-05
-9.65983e-07
7.71122e-05
-1.13048e-06
8.15763e-05
-1.23693e-06
7.13384e-05
-1.31266e-06
6.24248e-05
-1.35483e-06
5.46476e-05
-1.36188e-06
4.78207e-05
-1.33391e-06
4.18598e-05
-1.27254e-06
3.66353e-05
-1.18027e-06
3.20115e-05
-1.06058e-06
2.78689e-05
-9.17114e-07
2.4176e-05
-7.52938e-07
2.08186e-05
-5.71496e-07
1.78075e-05
-3.78622e-07
1.50955e-05
-1.82749e-07
1.24994e-05
4.84405e-08
4.54262e-05
9.87892e-08
5.05519e-05
1.06338e-07
5.62605e-05
7.18789e-08
6.26196e-05
-5.68537e-09
6.97055e-05
-1.21959e-07
7.63811e-05
-2.73009e-07
7.64546e-05
-4.56676e-07
7.65509e-05
-6.65571e-07
7.6679e-05
-8.8911e-07
7.68402e-05
-1.11371e-06
7.70474e-05
-1.32184e-06
7.73036e-05
-1.49347e-06
8.18328e-05
-1.58987e-06
7.16156e-05
-1.64696e-06
6.27169e-05
-1.66325e-06
5.4949e-05
-1.63879e-06
4.81256e-05
-1.57597e-06
4.21632e-05
-1.47785e-06
3.69329e-05
-1.34861e-06
3.22995e-05
-1.19285e-06
2.81446e-05
-1.01562e-06
2.44387e-05
-8.2051e-07
2.10676e-05
-6.12885e-07
1.80417e-05
-3.96344e-07
1.53091e-05
-1.50578e-07
1.265e-05
4.3422e-08
4.0831e-05
8.86778e-08
4.54363e-05
9.16757e-08
5.05666e-05
5.33168e-08
5.6279e-05
-2.87366e-08
6.26426e-05
-1.51977e-07
6.97355e-05
-3.14149e-07
7.64223e-05
-5.10983e-07
7.65089e-05
-7.39057e-07
7.66243e-05
-9.88923e-07
7.67788e-05
-1.24789e-06
7.69744e-05
-1.49889e-06
7.72245e-05
-1.72197e-06
7.75321e-05
-1.89402e-06
8.21369e-05
-1.97268e-06
7.19413e-05
-2.00303e-06
6.30567e-05
-1.98552e-06
5.52957e-05
-1.92295e-06
4.84726e-05
-1.81951e-06
4.25049e-05
-1.68035e-06
3.72646e-05
-1.51094e-06
3.26176e-05
-1.3175e-06
2.84465e-05
-1.1055e-06
2.47237e-05
-8.79985e-07
2.13347e-05
-6.43451e-07
1.82888e-05
-3.91172e-07
1.55497e-05
-1.01763e-07
1.27518e-05
3.93066e-08
3.67001e-05
8.02639e-08
4.08394e-05
7.95551e-08
4.54484e-05
3.83305e-08
5.05816e-05
-4.68279e-08
5.62971e-05
-1.74815e-07
6.26655e-05
-3.4524e-07
6.97666e-05
-5.55987e-07
7.64673e-05
-8.01175e-07
7.6571e-05
-1.07531e-06
7.67107e-05
-1.3668e-06
7.68977e-05
-1.65928e-06
7.71348e-05
-1.93307e-06
7.74356e-05
-2.16464e-06
7.78027e-05
-2.32976e-06
8.2494e-05
-2.38158e-06
7.23199e-05
-2.37607e-06
6.34472e-05
-2.31703e-06
5.56898e-05
-2.20951e-06
4.88626e-05
-2.06027e-06
4.28848e-05
-1.87609e-06
3.76297e-05
-1.66435e-06
3.29645e-05
-1.43173e-06
2.87727e-05
-1.18494e-06
2.50286e-05
-9.26539e-07
2.16178e-05
-6.56192e-07
1.85539e-05
-3.67097e-07
1.5815e-05
-8.16698e-08
1.28334e-05
3.58953e-08
3.29894e-05
7.32394e-08
3.67071e-05
6.95034e-08
4.08495e-05
2.62152e-08
4.54605e-05
-6.09797e-08
5.05957e-05
-1.91989e-07
5.63143e-05
-3.67842e-07
6.26881e-05
-5.88743e-07
6.97993e-05
-8.51426e-07
7.65175e-05
-1.14738e-06
7.66431e-05
-1.46905e-06
7.6813e-05
-1.80101e-06
7.70394e-05
-2.12406e-06
7.73258e-05
-2.41452e-06
7.76854e-05
-2.64746e-06
7.81204e-05
-2.79655e-06
8.2909e-05
-2.8111e-06
7.27549e-05
-2.76075e-06
6.38909e-05
-2.65214e-06
5.61324e-05
-2.49348e-06
4.92958e-05
-2.2936e-06
4.33023e-05
-2.06159e-06
3.8027e-05
-1.80551e-06
3.33383e-05
-1.53322e-06
2.9121e-05
-1.24967e-06
2.53518e-05
-9.55397e-07
2.1917e-05
-6.5581e-07
1.88426e-05
-3.4557e-07
1.60789e-05
-7.66896e-08
1.29101e-05
3.30422e-08
2.96509e-05
6.73503e-08
3.29953e-05
6.11532e-08
3.67155e-05
1.63853e-08
4.08593e-05
-7.20156e-08
4.54716e-05
-2.04729e-07
5.06085e-05
-3.83827e-07
5.63303e-05
-6.11292e-07
6.27106e-05
-8.8665e-07
6.98346e-05
-1.20449e-06
7.65747e-05
-1.55353e-06
7.67276e-05
-1.92237e-06
7.69343e-05
-2.29258e-06
7.72079e-05
-2.64058e-06
7.75519e-05
-2.94094e-06
7.79789e-05
-3.16602e-06
7.84899e-05
-3.28825e-06
8.33861e-05
-3.25521e-06
7.32493e-05
-3.15064e-06
6.43894e-05
-2.98512e-06
5.66241e-05
-2.76946e-06
4.97716e-05
-2.51539e-06
4.37561e-05
-2.233e-06
3.84545e-05
-1.93165e-06
3.37367e-05
-1.61817e-06
2.94895e-05
-1.2959e-06
2.56923e-05
-9.71696e-07
2.22329e-05
-6.51656e-07
1.91487e-05
-3.34809e-07
1.6337e-05
-8.22509e-08
1.29924e-05
3.06378e-08
2.66504e-05
6.23859e-08
2.96558e-05
5.41988e-08
3.30023e-05
8.36859e-09
3.67235e-05
-8.06017e-08
4.08679e-05
-2.14024e-07
4.54809e-05
-3.94706e-07
5.06194e-05
-6.25964e-07
5.63449e-05
-9.09485e-07
6.27334e-05
-1.24317e-06
6.98733e-05
-1.6194e-06
7.66405e-05
-2.02197e-06
7.68272e-05
-2.43656e-06
7.70783e-05
-2.84002e-06
7.74074e-05
-3.20665e-06
7.78176e-05
-3.50774e-06
7.83206e-05
-3.71367e-06
7.89153e-05
-3.79824e-06
8.39292e-05
-3.70671e-06
7.38054e-05
-3.53921e-06
6.49435e-05
-3.30971e-06
5.71643e-05
-3.0326e-06
5.02889e-05
-2.72117e-06
4.42443e-05
-2.38704e-06
3.89099e-05
-2.03927e-06
3.41578e-05
-1.68353e-06
2.98771e-05
-1.32805e-06
2.60486e-05
-9.82738e-07
2.25639e-05
-6.49339e-07
1.94632e-05
-3.33777e-07
1.65886e-05
-1.11468e-07
1.31038e-05
2.85983e-08
2.3956e-05
5.81766e-08
2.66546e-05
4.83839e-08
2.96616e-05
1.8036e-09
3.30088e-05
-8.72701e-08
3.67302e-05
-2.2066e-07
4.08745e-05
-4.01687e-07
4.54879e-05
-6.34637e-07
5.0628e-05
-9.22834e-07
5.63583e-05
-1.26677e-06
6.2757e-05
-1.66274e-06
6.99166e-05
-2.09874e-06
7.67173e-05
-2.55432e-06
7.6945e-05
-3.01039e-06
7.72487e-05
-3.44136e-06
7.76421e-05
-3.81767e-06
7.81275e-05
-4.10793e-06
7.87149e-05
-4.28338e-06
7.94004e-05
-4.31851e-06
8.4541e-05
-4.15816e-06
7.44244e-05
-3.91922e-06
6.5553e-05
-3.62024e-06
5.77519e-05
-3.27778e-06
5.08455e-05
-2.90717e-06
4.47644e-05
-2.52038e-06
3.9391e-05
-2.12583e-06
3.46001e-05
-1.73269e-06
3.02818e-05
-1.35241e-06
2.64183e-05
-9.91925e-07
2.29065e-05
-6.50269e-07
1.97797e-05
-4.1564e-07
1.68927e-05
-1.2029e-07
1.32241e-05
2.68585e-08
2.15337e-05
5.45888e-08
2.39596e-05
4.3497e-08
2.66595e-05
-3.58356e-09
2.9667e-05
-9.24381e-08
3.3014e-05
-2.25259e-07
3.67348e-05
-4.05728e-07
4.08786e-05
-6.38808e-07
4.5492e-05
-9.29036e-07
5.06342e-05
-1.27889e-06
5.63704e-05
-1.68776e-06
6.2782e-05
-2.1482e-06
6.99661e-05
-2.64448e-06
7.68074e-05
-3.14961e-06
7.70842e-05
-3.64214e-06
7.74495e-05
-4.09204e-06
7.79165e-05
-4.46643e-06
7.8486e-05
-4.73416e-06
7.91657e-05
-4.86651e-06
7.99484e-05
-4.8407e-06
8.52235e-05
-4.60129e-06
7.51064e-05
-4.28411e-06
6.62169e-05
-3.91082e-06
5.8385e-05
-3.50066e-06
5.1439e-05
-3.07002e-06
4.53141e-05
-2.63074e-06
3.98959e-05
-2.1937e-06
3.50611e-05
-1.77077e-06
3.07001e-05
-1.37172e-06
2.67981e-05
-9.99678e-07
2.32559e-05
-8.05541e-07
2.01696e-05
-4.17131e-07
1.71896e-05
-1.30327e-07
1.33544e-05
2.53671e-08
1.93535e-05
5.15168e-08
2.15368e-05
3.93686e-08
2.39638e-05
-8.01192e-09
2.66639e-05
-9.64289e-08
2.9671e-05
-2.28308e-07
3.3017e-05
-4.07577e-07
3.67366e-05
-6.39657e-07
4.08794e-05
-9.29952e-07
4.54929e-05
-1.28242e-06
5.06378e-05
-1.69886e-06
5.63815e-05
-2.17548e-06
6.28093e-05
-2.7018e-06
7.00234e-05
-3.25595e-06
7.69138e-05
-3.80646e-06
7.72485e-05
-4.32741e-06
7.76848e-05
-4.78485e-06
7.82349e-05
-5.14544e-06
7.88973e-05
-5.37731e-06
7.96765e-05
-5.4539e-06
8.05616e-05
-5.35539e-06
8.59776e-05
-5.02856e-06
7.58509e-05
-4.62714e-06
6.69332e-05
-4.17647e-06
5.90608e-05
-3.69763e-06
5.20666e-05
-3.20745e-06
4.58908e-05
-2.71954e-06
4.04217e-05
-2.24685e-06
3.55372e-05
-1.80005e-06
3.11285e-05
-1.38612e-06
2.71845e-05
-1.24141e-06
2.36918e-05
-8.00765e-07
2.05532e-05
-4.19009e-07
1.74783e-05
-1.3812e-07
1.34926e-05
1.73973e-05
2.40831e-08
4.88753e-08
1.93561e-05
3.58636e-08
2.15403e-05
-1.16615e-08
2.39674e-05
-9.94954e-08
2.6667e-05
-2.30187e-07
2.96729e-05
-4.07819e-07
3.30173e-05
-6.38104e-07
3.67351e-05
-9.27043e-07
4.08765e-05
-1.27968e-06
4.54902e-05
-1.69962e-06
5.06385e-05
-2.18595e-06
5.6392e-05
-2.73244e-06
6.284e-05
-3.32318e-06
7.00906e-05
-3.9322e-06
7.70395e-05
-4.52076e-06
7.74419e-05
-5.05914e-06
7.79591e-05
-5.51226e-06
7.86017e-05
-5.84518e-06
7.93651e-05
-6.02759e-06
8.02502e-05
-6.03523e-06
8.12415e-05
-5.85407e-06
8.68031e-05
-5.43226e-06
7.6656e-05
-4.94255e-06
6.76993e-05
-4.41316e-06
5.97763e-05
-3.8662e-06
5.27253e-05
-3.31998e-06
4.64912e-05
-2.78964e-06
4.09645e-05
-2.2871e-06
3.60242e-05
-1.82074e-06
3.15631e-05
-1.72391e-06
2.7667e-05
-1.23364e-06
2.41247e-05
-7.93224e-07
2.09274e-05
-4.18326e-07
1.77585e-05
-1.43157e-07
1.36357e-05
1.73996e-05
4.65923e-08
2.78121e-05
2.20051e-08
3.28747e-08
1.93591e-05
-1.4678e-08
2.15433e-05
-1.01837e-07
2.39697e-05
-2.3119e-07
2.6668e-05
-4.06907e-07
2.9672e-05
-6.3486e-07
3.3014e-05
-9.21445e-07
3.67295e-05
-1.27247e-06
4.08693e-05
-1.69288e-06
4.54835e-05
-2.18397e-06
5.06366e-05
-2.74288e-06
5.64024e-05
-3.3586e-06
6.28754e-05
-4.0118e-06
7.01702e-05
-4.66944e-06
7.71882e-05
-5.28569e-06
7.76684e-05
-5.82991e-06
7.82768e-05
-6.26452e-06
7.9021e-05
-6.55541e-06
7.9893e-05
-6.67387e-06
8.08888e-05
-6.60112e-06
8.19885e-05
-6.32788e-06
8.76988e-05
-5.80569e-06
7.75191e-05
-5.22568e-06
6.85118e-05
-4.61792e-06
6.0528e-05
-4.00603e-06
5.34114e-05
-3.40947e-06
4.7111e-05
-2.8424e-06
4.15198e-05
-2.31469e-06
3.65182e-05
-2.26552e-06
3.21047e-05
-1.71421e-06
2.81476e-05
-1.2183e-06
2.45498e-05
-7.81172e-07
2.12903e-05
-4.14191e-07
1.80295e-05
-1.4555e-07
1.37813e-05
1.74021e-05
3.03166e-08
2.78157e-05
4.29337e-08
2.8552e-05
2.00273e-08
-1.71791e-08
1.93616e-05
-1.03611e-07
2.15451e-05
-2.31547e-07
2.39701e-05
-4.05188e-07
2.66663e-05
-6.30473e-07
2.96676e-05
-9.14032e-07
3.30066e-05
-1.26219e-06
3.67192e-05
-1.68087e-06
4.08573e-05
-2.173e-06
4.54725e-05
-2.73838e-06
5.06321e-05
-3.36991e-06
5.64137e-05
-4.05379e-06
6.29174e-05
-4.7643e-06
7.02651e-05
-5.46127e-06
7.73638e-05
-6.09412e-06
7.79326e-05
-6.62992e-06
7.86422e-05
-7.0311e-06
7.94967e-05
-7.26438e-06
8.04835e-05
-7.30601e-06
8.15937e-05
-7.14168e-06
8.28023e-05
-6.76909e-06
8.86621e-05
-6.14337e-06
7.84368e-05
-5.47287e-06
6.93668e-05
-4.78956e-06
6.13116e-05
-4.11806e-06
5.412e-05
-3.47682e-06
4.77455e-05
-2.87813e-06
4.20833e-05
-2.88074e-06
3.71334e-05
-2.25325e-06
3.26437e-05
-1.69187e-06
2.86212e-05
-1.19513e-06
2.49637e-05
-7.64115e-07
2.16402e-05
-4.06661e-07
1.82906e-05
-1.45588e-07
1.39269e-05
1.74042e-05
-1.92615e-08
2.78193e-05
2.67831e-08
2.85555e-05
3.94213e-08
2.93119e-05
1.81524e-08
-1.04942e-07
1.9363e-05
-2.31432e-07
2.1545e-05
-4.02927e-07
2.39678e-05
-6.25359e-07
2.66612e-05
-9.05471e-07
2.9659e-05
-1.24992e-06
3.29943e-05
-1.66529e-06
3.67036e-05
-2.15575e-06
4.084e-05
-2.7231e-06
4.54572e-05
-3.36334e-06
5.06255e-05
-4.06719e-06
5.64271e-05
-4.81507e-06
6.29681e-05
-5.57469e-06
7.03785e-05
-6.30096e-06
7.75706e-05
-6.93636e-06
7.8239e-05
-7.44853e-06
7.90596e-05
-7.79981e-06
8.00322e-05
-7.96127e-06
8.11387e-05
-7.91317e-06
8.23652e-05
-7.64814e-06
8.36814e-05
-7.17112e-06
8.96899e-05
-6.44075e-06
7.94047e-05
-5.68207e-06
7.02593e-05
-4.92822e-06
6.21217e-05
-4.20276e-06
5.48459e-05
-3.5224e-06
4.83897e-05
-3.58288e-06
4.27854e-05
-2.86536e-06
3.77455e-05
-2.22326e-06
3.31751e-05
-1.65782e-06
2.90839e-05
-1.1645e-06
2.53641e-05
-7.42484e-07
2.1976e-05
-3.96077e-07
1.85411e-05
-1.4369e-07
1.40706e-05
1.74052e-05
-1.05927e-07
2.78211e-05
-2.10436e-08
2.85588e-05
2.34787e-08
2.93152e-05
3.6061e-08
3.00898e-05
1.63814e-08
-2.30982e-07
1.93625e-05
-4.00325e-07
2.15424e-05
-6.19827e-07
2.39623e-05
-8.96262e-07
2.6652e-05
-1.23646e-06
2.96456e-05
-1.64747e-06
3.29765e-05
-2.13432e-06
3.66822e-05
-2.70032e-06
4.08173e-05
-3.34388e-06
4.54378e-05
-4.05934e-06
5.06176e-05
-4.8322e-06
5.64443e-05
-5.63693e-06
6.30304e-05
-6.43678e-06
7.05143e-05
-7.17914e-06
7.78134e-05
-7.80185e-06
7.85923e-05
-8.27326e-06
7.95331e-05
-8.5593e-06
8.06302e-05
-8.63439e-06
8.186e-05
-8.48558e-06
8.32026e-05
-8.11292e-06
8.46232e-05
-7.52835e-06
9.07775e-05
-6.69484e-06
8.04175e-05
-5.85261e-06
7.11837e-05
-5.03386e-06
6.29528e-05
-4.26047e-06
5.5584e-05
-4.3866e-06
4.91935e-05
-3.56437e-06
4.34844e-05
-2.82679e-06
3.8349e-05
-2.17746e-06
3.36948e-05
-1.61327e-06
2.95326e-05
-1.1275e-06
2.57491e-05
-7.16964e-07
2.22969e-05
-3.82986e-07
1.87804e-05
-1.40268e-07
1.42108e-05
1.74045e-05
-2.30302e-07
2.78194e-05
-1.04277e-07
2.85603e-05
-2.25343e-08
2.93183e-05
2.04036e-08
3.0093e-05
3.2855e-08
3.08897e-05
1.47147e-08
-3.97533e-07
1.93597e-05
-6.14111e-07
2.15367e-05
-8.86779e-07
2.39528e-05
-1.22244e-06
2.66379e-05
-1.62841e-06
2.96265e-05
-2.11031e-06
3.29525e-05
-2.67257e-06
3.66544e-05
-3.31546e-06
4.07888e-05
-4.03613e-06
4.54145e-05
-4.82423e-06
5.06097e-05
-5.65992e-06
5.64672e-05
-6.51369e-06
6.31073e-05
-7.34159e-06
7.06768e-05
-8.08551e-06
7.80971e-05
-8.67804e-06
7.89971e-05
-9.09245e-06
8.00662e-05
-9.29718e-06
8.1293e-05
-9.27309e-06
8.26475e-05
-9.01467e-06
8.41044e-05
-8.52933e-06
8.56242e-05
-7.83671e-06
9.19193e-05
-6.90411e-06
8.1469e-05
-5.98397e-06
7.21338e-05
-5.10681e-06
6.37992e-05
-5.30864e-06
5.6506e-05
-4.3654e-06
4.99945e-05
-3.51654e-06
4.41742e-05
-2.7679e-06
3.89395e-05
-2.11785e-06
3.41994e-05
-1.56003e-06
2.99651e-05
-1.08537e-06
2.61175e-05
-6.88406e-07
2.26023e-05
-3.67969e-07
1.90081e-05
-1.35697e-07
1.43465e-05
1.74016e-05
-3.94661e-07
2.78127e-05
-2.23584e-07
2.85582e-05
-1.02218e-07
2.93195e-05
-2.372e-08
3.00958e-05
1.75612e-08
3.08927e-05
2.9808e-08
3.17096e-05
1.31512e-08
-6.08381e-07
1.9354e-05
-8.77293e-07
2.15272e-05
-1.2083e-06
2.39387e-05
-1.60884e-06
2.66184e-05
-2.08495e-06
2.96011e-05
-2.64182e-06
3.29218e-05
-3.28111e-06
3.66201e-05
-4.0022e-06
4.07549e-05
-4.79804e-06
4.53884e-05
-5.65347e-06
5.06032e-05
-6.54518e-06
5.64987e-05
-7.43691e-06
6.32026e-05
-8.27927e-06
7.08705e-05
-9.00766e-06
7.84267e-05
-9.55313e-06
7.94578e-05
-9.89313e-06
8.06622e-05
-1.0002e-05
8.20219e-05
-9.86786e-06
8.35007e-05
-9.49273e-06
8.50678e-05
-8.89231e-06
8.66798e-05
-8.09376e-06
9.3109e-05
-7.06745e-06
8.25525e-05
-6.07624e-06
7.31032e-05
-6.36786e-06
6.48584e-05
-5.28579e-06
5.74264e-05
-4.30792e-06
5.07859e-05
-3.44327e-06
4.48495e-05
-2.69158e-06
3.95132e-05
-2.04699e-06
3.46863e-05
-1.50001e-06
3.03798e-05
-1.0394e-06
2.64685e-05
-6.57651e-07
2.2892e-05
-3.51584e-07
1.9224e-05
-1.30306e-07
1.44768e-05
1.7396e-05
-6.02758e-07
2.77991e-05
-3.81103e-07
2.8551e-05
-2.16342e-07
2.9317e-05
-9.97688e-08
3.00967e-05
-2.45991e-08
3.08953e-05
1.49504e-08
3.17124e-05
2.69234e-08
3.25535e-05
1.16927e-08
-8.68e-07
1.93447e-05
-1.19436e-06
2.15132e-05
-1.58931e-06
2.39192e-05
-2.05911e-06
2.65925e-05
-2.60951e-06
2.95688e-05
-3.24318e-06
3.28838e-05
-3.96118e-06
3.65791e-05
-4.75908e-06
4.07159e-05
-5.62551e-06
4.53604e-05
-6.54239e-06
5.06004e-05
-7.4801e-06
5.65419e-05
-8.39721e-06
6.33206e-05
-9.2377e-06
7.11006e-05
-9.93383e-06
7.88074e-05
-1.04138e-05
7.99784e-05
-1.06632e-05
8.13234e-05
-1.06634e-05
8.28174e-05
-1.041e-05
8.44179e-05
-9.91375e-06
8.60892e-05
-9.19868e-06
8.77847e-05
-8.29778e-06
9.43393e-05
-7.18468e-06
8.36609e-05
-7.58385e-06
7.43192e-05
-6.34512e-06
6.59177e-05
-5.2186e-06
5.83371e-05
-4.21906e-06
5.15617e-05
-3.34838e-06
4.55063e-05
-2.60114e-06
4.00673e-05
-1.96745e-06
3.51538e-05
-1.43506e-06
3.07755e-05
-9.90796e-07
2.68017e-05
-6.25489e-07
2.31659e-05
-3.34345e-07
1.9428e-05
-1.24358e-07
1.46012e-05
1.73871e-05
-8.59037e-07
2.77767e-05
-5.80347e-07
2.85367e-05
-3.66828e-07
2.93092e-05
-2.0852e-07
3.00938e-05
-9.68962e-08
3.08959e-05
-2.51719e-08
3.17148e-05
1.25707e-08
3.25562e-05
2.41988e-08
3.34194e-05
1.03358e-08
-1.18085e-06
1.93312e-05
-1.5702e-06
2.14941e-05
-2.03348e-06
2.38935e-05
-2.57675e-06
2.65598e-05
-3.20343e-06
2.95291e-05
-3.91584e-06
3.28385e-05
-4.7116e-06
3.65316e-05
-5.58237e-06
4.06728e-05
-6.51437e-06
4.53324e-05
-7.48366e-06
5.0604e-05
-8.45585e-06
5.66006e-05
-9.38293e-06
6.34658e-05
-1.02054e-05
7.13721e-05
-1.08505e-05
7.92442e-05
-1.12474e-05
8.05626e-05
-1.13915e-05
8.20515e-05
-1.12716e-05
8.36791e-05
-1.08924e-05
8.53965e-05
-1.02736e-05
8.71641e-05
-9.44597e-06
8.89329e-05
-8.44819e-06
9.56028e-05
-8.97849e-06
8.50556e-05
-7.56421e-06
7.55383e-05
-6.26865e-06
6.69678e-05
-5.11308e-06
5.92311e-05
-4.10369e-06
5.2317e-05
-3.23608e-06
4.61413e-05
-2.49987e-06
4.05998e-05
-1.88168e-06
3.56004e-05
-1.36683e-06
3.11515e-05
-9.40651e-07
2.71168e-05
-5.92637e-07
2.34242e-05
-3.16643e-07
1.96203e-05
-1.18084e-07
1.47193e-05
1.73741e-05
-1.16792e-06
2.77431e-05
-8.25406e-07
2.85134e-05
-5.57051e-07
2.92943e-05
-3.5188e-07
3.00855e-05
-2.00205e-07
3.08926e-05
-9.36264e-08
3.17151e-05
-2.54354e-08
3.25583e-05
1.04222e-08
3.34219e-05
2.16376e-08
3.43053e-05
9.07942e-09
-1.55179e-06
1.93128e-05
-2.0085e-06
2.14692e-05
-2.54433e-06
2.38611e-05
-3.16318e-06
2.65195e-05
-3.8683e-06
2.94815e-05
-4.65888e-06
3.27858e-05
-5.529e-06
3.64782e-05
-6.46836e-06
4.06268e-05
-7.45781e-06
4.53065e-05
-8.46902e-06
5.06172e-05
-9.46127e-06
5.66789e-05
-1.03829e-05
6.36433e-05
-1.11688e-05
7.16904e-05
-1.17448e-05
7.97416e-05
-1.20421e-05
8.12132e-05
-1.20674e-05
8.28474e-05
-1.18187e-05
8.46053e-05
-1.13101e-05
8.6433e-05
-1.05691e-05
8.82872e-05
-9.63306e-06
9.01177e-05
-1.05754e-05
9.71997e-05
-8.96728e-06
8.64586e-05
-7.47997e-06
7.67496e-05
-6.14569e-06
6.80004e-05
-4.97522e-06
6.01026e-05
-3.96696e-06
5.30479e-05
-3.11039e-06
4.67518e-05
-2.39083e-06
4.11089e-05
-1.79181e-06
3.60254e-05
-1.29678e-06
3.15076e-05
-8.89946e-07
2.74141e-05
-5.59617e-07
2.36672e-05
-2.98846e-07
1.98011e-05
-1.11662e-07
1.48309e-05
1.73566e-05
-1.53425e-06
2.76958e-05
-1.12066e-06
2.84787e-05
-7.90677e-07
2.927e-05
-5.32814e-07
3.00698e-05
-3.36204e-07
3.08838e-05
-1.91346e-07
3.17114e-05
-8.99507e-08
3.25583e-05
-2.53971e-08
3.34238e-05
8.49819e-09
3.43077e-05
1.92379e-08
3.52192e-05
7.92208e-09
-1.98451e-06
1.92888e-05
-2.5128e-06
2.14376e-05
-3.12337e-06
2.38213e-05
-3.82012e-06
2.64713e-05
-4.60342e-06
2.94261e-05
-5.46925e-06
3.2726e-05
-6.41011e-06
3.642e-05
-7.41078e-06
4.05798e-05
-8.44814e-06
4.52856e-05
-9.48788e-06
5.06438e-05
-1.04857e-05
5.67817e-05
-1.13839e-05
6.38585e-05
-1.21151e-05
7.20606e-05
-1.26045e-05
8.0304e-05
-1.27866e-05
8.19323e-05
-1.2682e-05
8.37107e-05
-1.22986e-05
8.55939e-05
-1.1659e-05
8.7523e-05
-1.07984e-05
8.94526e-05
-1.20808e-05
9.16232e-05
-1.05816e-05
9.8814e-05
-8.87907e-06
8.78577e-05
-7.33978e-06
7.79437e-05
-5.9835e-06
6.90087e-05
-4.81128e-06
6.0947e-05
-3.81381e-06
5.37513e-05
-2.97512e-06
4.73361e-05
-2.27672e-06
4.15938e-05
-1.69974e-06
3.64283e-05
-1.22624e-06
3.18439e-05
-8.39376e-07
2.76939e-05
-5.26935e-07
2.38953e-05
-2.81231e-07
1.99706e-05
-1.05219e-07
1.49361e-05
1.73338e-05
-1.96171e-06
2.76319e-05
-1.4703e-06
2.84301e-05
-1.07204e-06
2.92343e-05
-7.54897e-07
3.00447e-05
-5.07712e-07
3.08674e-05
-3.19871e-07
3.17021e-05
-1.81985e-07
3.25542e-05
-8.58851e-08
3.34235e-05
-2.5054e-08
3.43094e-05
6.79639e-09
3.52214e-05
1.6996e-08
3.61551e-05
6.86046e-09
-2.48256e-06
1.92585e-05
-3.08469e-06
2.1399e-05
-3.77245e-06
2.37736e-05
-4.54709e-06
2.6415e-05
-5.40605e-06
2.93629e-05
-6.34405e-06
3.266e-05
-7.34911e-06
3.63583e-05
-8.40246e-06
4.05341e-05
-9.47536e-06
4.52731e-05
-1.05301e-05
5.06882e-05
-1.15162e-05
5.6914e-05
-1.23731e-05
6.41165e-05
-1.30316e-05
7.24878e-05
-1.34174e-05
8.09348e-05
-1.3471e-05
8.27213e-05
-1.32285e-05
8.46406e-05
-1.27065e-05
8.66414e-05
-1.19367e-05
8.86613e-05
-1.35705e-05
9.09423e-05
-1.21123e-05
9.31539e-05
-1.04961e-05
0.000100431
-8.7237e-06
8.92416e-05
-7.15232e-06
7.91125e-05
-5.78965e-06
6.9987e-05
-4.62727e-06
6.17604e-05
-3.64886e-06
5.4425e-05
-2.83359e-06
4.78929e-05
-2.15991e-06
4.2054e-05
-1.60717e-06
3.68092e-05
-1.15611e-06
3.21606e-05
-7.89623e-07
2.79566e-05
-4.94968e-07
2.4109e-05
-2.63993e-07
2.01294e-05
-9.88639e-08
1.5035e-05
1.73051e-05
-2.45387e-06
2.7548e-05
-1.87788e-06
2.83643e-05
-1.40457e-06
2.91841e-05
-1.02183e-06
3.00077e-05
-7.17893e-07
3.08415e-05
-4.8174e-07
3.16851e-05
-3.0291e-07
3.25444e-05
-1.72134e-07
3.34191e-05
-8.14381e-08
3.43087e-05
-2.441e-08
3.52229e-05
5.30978e-09
3.61572e-05
1.4907e-08
3.6589e-05
5.90443e-09
-3.04761e-06
1.92215e-05
-3.72611e-06
2.13526e-05
-4.49125e-06
2.37178e-05
-5.3416e-06
2.63506e-05
-6.27361e-06
2.92925e-05
-7.27792e-06
3.25888e-05
-8.33937e-06
3.62952e-05
-9.43397e-06
4.04927e-05
-1.05298e-05
4.52729e-05
-1.15832e-05
5.07551e-05
-1.25402e-05
5.70811e-05
-1.33378e-05
6.44228e-05
-1.39059e-05
7.29762e-05
-1.4173e-05
8.16369e-05
-1.40877e-05
8.35804e-05
-1.37008e-05
8.56349e-05
-1.30391e-05
8.77438e-05
-1.50364e-05
9.01271e-05
-1.36374e-05
9.24674e-05
-1.20382e-05
9.46959e-05
-1.03301e-05
0.000102037
-8.51114e-06
9.06005e-05
-6.92648e-06
8.02494e-05
-5.57134e-06
7.09311e-05
-4.42878e-06
6.25403e-05
-3.47616e-06
5.50676e-05
-2.6887e-06
4.84217e-05
-2.0425e-06
4.24893e-05
-1.51523e-06
3.71684e-05
-1.08728e-06
3.24583e-05
-7.41184e-07
2.82028e-05
-4.63962e-07
2.4309e-05
-2.47292e-07
2.02778e-05
-9.26771e-08
1.51277e-05
1.72699e-05
-3.01242e-06
2.74409e-05
-2.34672e-06
2.82788e-05
-1.7923e-06
2.91168e-05
-1.33729e-06
2.99563e-05
-9.70389e-07
3.08035e-05
-6.79943e-07
3.16583e-05
-4.54954e-07
3.25268e-05
-2.853e-07
3.34087e-05
-1.61817e-07
3.43039e-05
-7.66296e-08
3.52219e-05
-2.34643e-08
3.61584e-05
4.03537e-09
3.65909e-05
1.29868e-08
3.55528e-05
5.07743e-09
-3.68166e-06
1.9177e-05
-4.43689e-06
2.12982e-05
-5.27753e-06
2.36537e-05
-6.20139e-06
2.62783e-05
-7.20118e-06
2.92157e-05
-8.26472e-06
3.25141e-05
-9.37202e-06
3.62333e-05
-1.04963e-05
4.04591e-05
-1.15996e-05
4.52893e-05
-1.26349e-05
5.08497e-05
-1.35451e-05
5.72883e-05
-1.42653e-05
6.47823e-05
-1.47268e-05
7.353e-05
-1.48629e-05
8.24121e-05
-1.46297e-05
8.45093e-05
-1.40951e-05
8.66909e-05
-1.64683e-05
8.91757e-05
-1.51501e-05
9.16399e-05
-1.3585e-05
9.40142e-05
-1.18707e-05
9.62366e-05
-1.00951e-05
0.000103621
-8.25181e-06
9.19258e-05
-6.67067e-06
8.13487e-05
-5.3353e-06
7.18376e-05
-4.2207e-06
6.32849e-05
-3.29926e-06
5.56781e-05
-2.54305e-06
4.89223e-05
-1.92593e-06
4.29e-05
-1.42507e-06
3.75062e-05
-1.02039e-06
3.27375e-05
-6.94371e-07
2.84332e-05
-4.34126e-07
2.44958e-05
-2.31254e-07
2.04164e-05
-8.67142e-08
1.52144e-05
1.72277e-05
-3.63947e-06
2.73076e-05
-2.87913e-06
2.81697e-05
-2.23764e-06
2.9029e-05
-1.70452e-06
2.98874e-05
-1.26842e-06
3.07508e-05
-9.17648e-07
3.16193e-05
-6.4098e-07
3.24993e-05
-4.27475e-07
3.33906e-05
-2.67163e-07
3.42932e-05
-1.5109e-07
3.52168e-05
-7.14876e-08
3.61572e-05
-2.2245e-08
3.65919e-05
2.98117e-09
3.55545e-05
1.12818e-08
3.45447e-05
4.35947e-09
-4.38469e-06
1.91248e-05
-5.21501e-06
2.12357e-05
-6.12928e-06
2.35816e-05
-7.12188e-06