/*--------------------------------*- C++ -*----------------------------------*\
  =========                 |
  \\      /  F ield         | OpenFOAM: The Open Source CFD Toolbox
   \\    /   O peration     | Website:  https://openfoam.org
    \\  /    A nd           | Version:  8
     \\/     M anipulation  |
\*---------------------------------------------------------------------------*/
FoamFile
{
    version     2.0;
    format      ascii;
    class       surfaceScalarField;
    location    "0.12";
    object      phi;
}
// * * * * * * * * * * * * * * * * * * * * * * * * * * * * * * * * * * * * * //

dimensions      [0 3 -1 0 0 0 0];

internalField   nonuniform List<scalar> 
31053
(
6.27704e-07
1.27523e-05
8.49583e-07
1.51581e-05
3.76236e-07
1.23761e-05
9.32271e-07
1.75573e-05
5.88721e-07
1.49456e-05
2.69507e-07
1.21066e-05
9.55906e-07
2.02164e-05
7.0684e-07
1.74392e-05
4.64574e-07
1.47506e-05
2.16002e-07
1.18906e-05
9.46897e-07
2.3249e-05
7.663e-07
2.01569e-05
5.89934e-07
1.73138e-05
3.96154e-07
1.45704e-05
1.72593e-07
1.1718e-05
9.16935e-07
2.669e-05
7.91301e-07
2.3224e-05
6.64925e-07
2.00819e-05
5.23678e-07
1.71863e-05
3.33467e-07
1.44095e-05
1.38033e-07
1.15799e-05
8.71515e-07
3.06654e-05
7.9404e-07
2.66872e-05
7.06879e-07
2.31821e-05
6.04949e-07
2.00006e-05
4.55959e-07
1.70638e-05
2.78756e-07
1.42688e-05
1.10888e-07
1.1469e-05
8.14036e-07
3.51975e-05
7.81419e-07
3.0678e-05
7.26661e-07
2.66674e-05
6.53403e-07
2.31336e-05
5.37328e-07
1.99193e-05
3.91896e-07
1.69507e-05
2.31694e-07
1.4148e-05
8.84318e-08
1.13806e-05
7.47345e-07
4.03867e-05
7.57246e-07
3.52217e-05
7.30584e-07
3.06741e-05
6.79065e-07
2.66418e-05
5.86593e-07
2.30843e-05
4.69325e-07
1.98418e-05
3.33079e-07
1.68493e-05
1.8962e-07
1.40468e-05
6.87388e-08
1.13119e-05
6.73154e-07
4.63542e-05
7.23457e-07
4.04205e-05
7.21897e-07
3.52303e-05
6.87897e-07
3.06653e-05
6.12775e-07
2.66156e-05
5.15905e-07
2.30378e-05
4.03773e-07
1.97712e-05
2.77306e-07
1.67616e-05
1.50607e-07
1.3965e-05
5.06543e-08
1.12612e-05
5.93141e-07
5.322e-05
6.82105e-07
4.63955e-05
7.01811e-07
4.04406e-05
6.83421e-07
3.52348e-05
6.21845e-07
3.06562e-05
5.3927e-07
2.65922e-05
4.45104e-07
2.29964e-05
3.38772e-07
1.97097e-05
2.23013e-07
1.66892e-05
1.13378e-07
1.39022e-05
3.34084e-08
1.12278e-05
5.09238e-07
6.10639e-05
6.34852e-07
5.32673e-05
6.71612e-07
4.64257e-05
6.67988e-07
4.0456e-05
6.17315e-07
3.52393e-05
5.45205e-07
3.06503e-05
4.6315e-07
2.65742e-05
3.7246e-07
2.29627e-05
2.72971e-07
1.96597e-05
1.69144e-07
1.66334e-05
7.69984e-08
1.38586e-05
1.64919e-08
1.12113e-05
4.2397e-07
7.00673e-05
5.83216e-07
6.11155e-05
6.32394e-07
5.33065e-05
6.42256e-07
4.64515e-05
6.01315e-07
4.0472e-05
5.37195e-07
3.52474e-05
4.63278e-07
3.06502e-05
3.82791e-07
2.65639e-05
2.96669e-07
2.2939e-05
2.05431e-07
1.96234e-05
1.14905e-07
1.65955e-05
4.07778e-08
1.38344e-05
-2.50412e-10
1.12116e-05
3.41048e-07
8.04149e-05
5.28235e-07
7.01223e-05
5.85367e-07
6.11626e-05
6.06583e-07
5.33422e-05
5.74868e-07
4.64779e-05
5.17193e-07
4.0492e-05
4.48858e-07
3.52618e-05
3.74549e-07
3.06584e-05
2.96909e-07
2.65636e-05
2.16816e-07
2.29277e-05
1.35477e-07
1.96029e-05
5.96673e-08
1.65766e-05
4.34198e-09
1.38298e-05
-1.7099e-08
1.12287e-05
2.77517e-07
7.62535e-05
4.69967e-07
8.04732e-05
5.31892e-07
7.01757e-05
5.61358e-07
6.12078e-05
5.38339e-07
5.33787e-05
4.86165e-07
4.65089e-05
4.21737e-07
4.05191e-05
3.50925e-07
3.52854e-05
2.77773e-07
3.06775e-05
2.04577e-07
2.65759e-05
1.32237e-07
2.29309e-05
6.25746e-08
1.96e-05
3.14656e-09
1.65778e-05
-3.25368e-08
1.38452e-05
-3.41857e-08
1.12628e-05
2.26669e-07
7.62408e-05
4.17625e-07
7.63059e-05
4.73358e-07
8.05317e-05
5.07205e-07
7.02299e-05
4.91909e-07
6.12542e-05
4.44471e-07
5.34204e-05
3.82778e-07
4.65479e-05
3.13651e-07
4.05564e-05
2.42178e-07
3.5321e-05
1.72e-07
3.07101e-05
1.05083e-07
2.6603e-05
4.24007e-08
2.29511e-05
-1.34707e-08
1.96166e-05
-5.49301e-08
1.66002e-05
-7.00057e-08
1.3881e-05
-5.15243e-08
1.13144e-05
1.86175e-07
7.62305e-05
3.68554e-07
7.62899e-05
4.21178e-07
7.63581e-05
4.45234e-07
8.05937e-05
4.3585e-07
7.02859e-05
3.92247e-07
6.13064e-05
3.32262e-07
5.34709e-05
2.63469e-07
4.65981e-05
1.9169e-07
4.06069e-05
1.21645e-07
3.53713e-05
5.64491e-08
3.07587e-05
-2.12183e-09
2.66475e-05
-5.27883e-08
2.29904e-05
-9.27071e-08
1.96544e-05
-1.14376e-07
1.66446e-05
-1.07968e-07
1.39375e-05
-6.89316e-08
1.13833e-05
1.53608e-07
7.62246e-05
3.23036e-07
7.6276e-05
3.72349e-07
7.63387e-05
3.88856e-07
7.64144e-05
3.7083e-07
8.06587e-05
3.29687e-07
7.03485e-05
2.70272e-07
6.13684e-05
2.00559e-07
5.35338e-05
1.26898e-07
4.66629e-05
5.48441e-08
4.06737e-05
-1.15353e-08
3.54393e-05
-6.9432e-08
3.08261e-05
-1.17073e-07
2.67118e-05
-1.53234e-07
2.30509e-05
-1.74767e-07
1.97147e-05
-1.74969e-07
1.67116e-05
-1.46142e-07
1.40147e-05
-8.62761e-08
1.14696e-05
1.27155e-07
7.62165e-05
2.81405e-07
7.62662e-05
3.2693e-07
7.63214e-05
3.35535e-07
7.63921e-05
3.10643e-07
7.64746e-05
2.57406e-07
8.0731e-05
1.96944e-07
7.04218e-05
1.2495e-07
6.1444e-05
4.78517e-08
5.36129e-05
-2.80145e-08
4.67457e-05
-9.78352e-08
4.076e-05
-1.57928e-07
3.55278e-05
-2.05688e-07
3.09147e-05
-2.39561e-07
2.67981e-05
-2.58342e-07
2.31345e-05
-2.59104e-07
1.97989e-05
-2.36163e-07
1.68016e-05
-1.84161e-07
1.41126e-05
-1.03302e-07
1.15729e-05
1.05491e-07
7.62117e-05
2.43676e-07
7.62542e-05
2.84953e-07
7.63082e-05
2.85702e-07
7.63713e-05
2.53156e-07
7.64496e-05
1.90581e-07
7.65414e-05
1.12913e-07
8.0815e-05
3.67716e-08
7.051e-05
-4.54827e-08
6.15374e-05
-1.2705e-07
5.37119e-05
-2.02328e-07
4.68502e-05
-2.66953e-07
4.0869e-05
-3.17581e-07
3.56397e-05
-3.51916e-07
3.1027e-05
-3.6877e-07
2.69086e-05
-3.67249e-07
2.32426e-05
-3.44816e-07
1.99075e-05
-2.97298e-07
1.69148e-05
-2.21544e-07
1.42308e-05
-1.19814e-07
1.16927e-05
8.76376e-08
7.62079e-05
2.0969e-07
7.62456e-05
2.46363e-07
7.62928e-05
2.39627e-07
7.63543e-05
1.99156e-07
7.64253e-05
1.26895e-07
7.65132e-05
3.57235e-08
7.66186e-05
-6.3284e-08
8.09151e-05
-1.52965e-07
7.06175e-05
-2.42381e-07
6.16527e-05
-3.25346e-07
5.38349e-05
-3.96689e-07
4.698e-05
-4.52525e-07
4.1004e-05
-4.89883e-07
3.57777e-05
-5.07122e-07
3.11654e-05
-5.03523e-07
2.70448e-05
-4.78645e-07
2.33765e-05
-4.3087e-07
2.00411e-05
-3.57576e-07
1.70508e-05
-2.57777e-07
1.43688e-05
-1.35488e-07
1.18282e-05
7.40021e-08
6.95956e-05
1.7924e-07
7.62383e-05
2.11075e-07
7.62809e-05
1.97428e-07
7.6335e-05
1.49145e-07
7.64043e-05
6.73225e-08
7.64848e-05
-3.74306e-08
7.65864e-05
-1.54547e-07
7.67099e-05
-2.73725e-07
8.10358e-05
-3.73837e-07
7.07489e-05
-4.67116e-07
6.17945e-05
-5.4773e-07
5.39859e-05
-6.11088e-07
4.71385e-05
-6.53747e-07
4.11678e-05
-6.73662e-07
3.59442e-05
-6.69805e-07
3.13317e-05
-6.42098e-07
2.72083e-05
-5.91076e-07
2.35367e-05
-5.1604e-07
2.01996e-05
-4.16105e-07
1.72091e-05
-2.9225e-07
1.45255e-05
-1.50116e-07
1.19783e-05
6.3517e-08
6.25545e-05
1.54435e-07
6.96204e-05
1.78987e-07
7.62704e-05
1.59118e-07
7.63192e-05
1.03446e-07
7.63807e-05
1.25135e-08
7.64591e-05
-1.05389e-07
7.65528e-05
-2.40507e-07
7.66724e-05
-3.83078e-07
7.68192e-05
-5.20349e-07
8.11824e-05
-6.27464e-07
7.09093e-05
-7.20453e-07
6.19672e-05
-7.94187e-07
5.4169e-05
-8.44525e-07
4.73293e-05
-8.69247e-07
4.13634e-05
-8.6707e-07
3.61415e-05
-8.3781e-07
3.15274e-05
-7.82592e-07
2.73998e-05
-7.02811e-07
2.37234e-05
-5.98999e-07
2.03825e-05
-4.7192e-07
1.73888e-05
-3.24438e-07
1.46999e-05
-1.63297e-07
1.21416e-05
5.52954e-08
5.62262e-05
1.3448e-07
6.25744e-05
1.52283e-07
6.96471e-05
1.2465e-07
7.63049e-05
6.22376e-08
7.63605e-05
-3.70965e-08
7.64303e-05
-1.67328e-07
7.6521e-05
-3.19812e-07
7.66321e-05
-4.85469e-07
7.67747e-05
-6.52209e-07
7.69511e-05
-8.05074e-07
8.136e-05
-9.1469e-07
7.11035e-05
-1.00239e-06
6.21754e-05
-1.06352e-06
5.4388e-05
-1.09542e-06
4.75555e-05
-1.09681e-06
4.15931e-05
-1.06748e-06
3.63712e-05
-1.00876e-06
3.17535e-05
-9.22738e-07
2.76197e-05
-8.12039e-07
2.39365e-05
-6.78322e-07
2.05889e-05
-5.24102e-07
1.75885e-05
-3.53452e-07
1.489e-05
-1.7443e-07
1.2316e-05
4.87459e-08
5.05385e-05
1.18323e-07
5.62424e-05
1.30328e-07
6.25964e-05
9.64491e-08
6.96753e-05
2.56124e-08
7.63415e-05
-8.12136e-08
7.64046e-05
-2.22665e-07
7.64856e-05
-3.91455e-07
7.65927e-05
-5.79344e-07
7.6726e-05
-7.75035e-07
7.68976e-05
-9.64162e-07
7.71102e-05
-1.12887e-06
8.15741e-05
-1.23558e-06
7.13367e-05
-1.31155e-06
6.24234e-05
-1.35392e-06
5.46465e-05
-1.36115e-06
4.78198e-05
-1.3333e-06
4.1859e-05
-1.27203e-06
3.66344e-05
-1.17983e-06
3.20106e-05
-1.0602e-06
2.78679e-05
-9.16793e-07
2.41749e-05
-7.52653e-07
2.08174e-05
-5.71317e-07
1.78063e-05
-3.78564e-07
1.50941e-05
-1.81275e-07
1.24973e-05
4.34569e-08
4.54253e-05
1.05141e-07
5.05517e-05
1.12208e-07
5.62605e-05
7.37059e-08
6.26191e-05
-3.78258e-09
6.97047e-05
-1.19653e-07
7.63799e-05
-2.71006e-07
7.64529e-05
-4.54687e-07
7.65488e-05
-6.63484e-07
7.66768e-05
-8.87049e-07
7.6838e-05
-1.11176e-06
7.70452e-05
-1.32006e-06
7.73014e-05
-1.49192e-06
8.18305e-05
-1.58858e-06
7.16137e-05
-1.6459e-06
6.27154e-05
-1.66236e-06
5.49478e-05
-1.63805e-06
4.81246e-05
-1.57533e-06
4.21623e-05
-1.4773e-06
3.69319e-05
-1.34812e-06
3.22985e-05
-1.19241e-06
2.81435e-05
-1.01522e-06
2.44375e-05
-8.2021e-07
2.10663e-05
-6.12643e-07
1.80404e-05
-3.95519e-07
1.53084e-05
-1.51069e-07
1.26484e-05
3.91327e-08
4.08303e-05
9.43039e-08
4.54361e-05
9.71905e-08
5.05667e-05
5.53261e-08
5.62789e-05
-2.69093e-08
6.26423e-05
-1.49709e-07
6.97348e-05
-3.12089e-07
7.6421e-05
-5.08974e-07
7.65072e-05
-7.36948e-07
7.66223e-05
-9.86803e-07
7.67765e-05
-1.24584e-06
7.69721e-05
-1.49698e-06
7.72221e-05
-1.72026e-06
7.75297e-05
-1.89253e-06
8.21344e-05
-1.97144e-06
7.19393e-05
-2.00198e-06
6.3055e-05
-1.98463e-06
5.52943e-05
-1.92217e-06
4.84714e-05
-1.81883e-06
4.25038e-05
-1.67972e-06
3.72635e-05
-1.51038e-06
3.26165e-05
-1.31696e-06
2.84453e-05
-1.10505e-06
2.47224e-05
-8.79536e-07
2.13332e-05
-6.42614e-07
1.82875e-05
-3.91126e-07
1.55484e-05
-1.03241e-07
1.27516e-05
3.55567e-08
3.66996e-05
8.53403e-08
4.08393e-05
8.47051e-08
4.54486e-05
4.04526e-08
5.05816e-05
-4.50517e-08
5.6297e-05
-1.72578e-07
6.26651e-05
-3.43133e-07
6.97658e-05
-5.53944e-07
7.6466e-05
-7.99039e-07
7.65693e-05
-1.07314e-06
7.67086e-05
-1.36468e-06
7.68954e-05
-1.65726e-06
7.71324e-05
-1.93121e-06
7.7433e-05
-2.16299e-06
7.78002e-05
-2.32832e-06
8.24913e-05
-2.38036e-06
7.23177e-05
-2.37503e-06
6.34454e-05
-2.31611e-06
5.56883e-05
-2.20868e-06
4.88613e-05
-2.0595e-06
4.28836e-05
-1.87537e-06
3.76285e-05
-1.66365e-06
3.29632e-05
-1.43111e-06
2.87713e-05
-1.18427e-06
2.50271e-05
-9.25516e-07
2.16161e-05
-6.55718e-07
1.85521e-05
-3.67436e-07
1.58126e-05
-8.03442e-08
1.2832e-05
3.25687e-08
3.2989e-05
7.78906e-08
3.6707e-05
7.43093e-08
4.08497e-05
2.83936e-08
4.54607e-05
-5.92425e-08
5.05958e-05
-1.89782e-07
5.63142e-05
-3.65706e-07
6.26877e-05
-5.86664e-07
6.97986e-05
-8.49256e-07
7.65162e-05
-1.14516e-06
7.66413e-05
-1.46686e-06
7.68108e-05
-1.7989e-06
7.7037e-05
-2.12209e-06
7.73232e-05
-2.41273e-06
7.76828e-05
-2.64586e-06
7.81177e-05
-2.79515e-06
8.29061e-05
-2.80989e-06
7.27525e-05
-2.75966e-06
6.3889e-05
-2.65115e-06
5.61307e-05
-2.49253e-06
4.92943e-05
-2.29271e-06
4.33009e-05
-2.06071e-06
3.80256e-05
-1.80469e-06
3.33368e-05
-1.53233e-06
2.91194e-05
-1.24852e-06
2.53501e-05
-9.54737e-07
2.19151e-05
-6.5603e-07
1.88407e-05
-3.45052e-07
1.60773e-05
-7.6419e-08
1.29084e-05
3.00504e-08
2.96505e-05
7.16685e-08
3.29952e-05
6.56463e-08
3.67157e-05
1.85756e-08
4.08595e-05
-7.03095e-08
4.54717e-05
-2.02553e-07
5.06086e-05
-3.81677e-07
5.63302e-05
-6.09182e-07
6.27102e-05
-8.84447e-07
6.98338e-05
-1.20222e-06
7.65733e-05
-1.55127e-06
7.67257e-05
-1.92017e-06
7.69321e-05
-2.2905e-06
7.72054e-05
-2.63865e-06
7.75492e-05
-2.93919e-06
7.79761e-05
-3.16446e-06
7.8487e-05
-3.28686e-06
8.33831e-05
-3.25395e-06
7.32468e-05
-3.14946e-06
6.43873e-05
-2.98399e-06
5.66222e-05
-2.76837e-06
4.97699e-05
-2.51431e-06
4.37545e-05
-2.23196e-06
3.84528e-05
-1.93054e-06
3.3735e-05
-1.6169e-06
2.94878e-05
-1.29515e-06
2.56905e-05
-9.71746e-07
2.22308e-05
-6.51107e-07
1.91467e-05
-3.34185e-07
1.63351e-05
-8.2127e-08
1.29905e-05
2.79127e-08
2.66501e-05
6.64417e-08
2.96557e-05
5.84123e-08
3.30024e-05
1.05412e-08
3.67237e-05
-7.89194e-08
4.08681e-05
-2.11878e-07
4.54811e-05
-3.92555e-07
5.06195e-05
-6.23832e-07
5.63448e-05
-9.07252e-07
6.2733e-05
-1.24085e-06
6.98724e-05
-1.61706e-06
7.6639e-05
-2.01969e-06
7.68253e-05
-2.43438e-06
7.7076e-05
-2.83798e-06
7.74048e-05
-3.20478e-06
7.78147e-05
-3.50604e-06
7.83177e-05
-3.71211e-06
7.89123e-05
-3.7968e-06
8.39259e-05
-3.70534e-06
7.38027e-05
-3.53788e-06
6.49412e-05
-3.30841e-06
5.71622e-05
-3.03131e-06
5.02869e-05
-2.7199e-06
4.42424e-05
-2.38571e-06
3.8908e-05
-2.03785e-06
3.41559e-05
-1.6826e-06
2.98752e-05
-1.32782e-06
2.60466e-05
-9.8211e-07
2.25618e-05
-6.48492e-07
1.9461e-05
-3.3343e-07
1.65864e-05
-1.11088e-07
1.31016e-05
2.60871e-08
2.39558e-05
6.20237e-08
2.66546e-05
5.23486e-08
2.96618e-05
3.93943e-09
3.3009e-05
-8.56046e-08
3.67304e-05
-2.18545e-07
4.08748e-05
-3.99544e-07
4.54881e-05
-6.32491e-07
5.06281e-05
-9.20578e-07
5.63582e-05
-1.26442e-06
6.27566e-05
-1.66035e-06
6.99157e-05
-2.09638e-06
7.67157e-05
-2.55204e-06
7.69429e-05
-3.00824e-06
7.72462e-05
-3.43937e-06
7.76393e-05
-3.81583e-06
7.81245e-05
-4.10622e-06
7.87118e-05
-4.28177e-06
7.93973e-05
-4.31695e-06
8.45375e-05
-4.15664e-06
7.44214e-05
-3.9177e-06
6.55505e-05
-3.61871e-06
5.77496e-05
-3.27626e-06
5.08433e-05
-2.90561e-06
4.47623e-05
-2.51879e-06
3.93889e-05
-2.12465e-06
3.4598e-05
-1.73209e-06
3.02795e-05
-1.35158e-06
2.6416e-05
-9.9094e-07
2.29043e-05
-6.49608e-07
1.97772e-05
-4.14976e-07
1.68903e-05
-1.20134e-07
1.32217e-05
2.452e-08
2.15336e-05
5.82682e-08
2.39596e-05
4.72401e-08
2.66597e-05
-1.49445e-09
2.96672e-05
-9.07841e-08
3.30142e-05
-2.23175e-07
3.6735e-05
-4.03597e-07
4.08788e-05
-6.36654e-07
4.54922e-05
-9.26765e-07
5.06343e-05
-1.2765e-06
5.63703e-05
-1.68532e-06
6.27816e-05
-2.14577e-06
6.99651e-05
-2.64211e-06
7.68058e-05
-3.14735e-06
7.7082e-05
-3.64003e-06
7.74469e-05
-4.09007e-06
7.79136e-05
-4.46459e-06
7.84829e-05
-4.7324e-06
7.91624e-05
-4.86478e-06
7.99451e-05
-4.83897e-06
8.52199e-05
-4.59954e-06
7.51033e-05
-4.28234e-06
6.62141e-05
-3.90902e-06
5.83824e-05
-3.49884e-06
5.14365e-05
-3.0682e-06
4.53118e-05
-2.62928e-06
3.98936e-05
-2.19274e-06
3.50586e-05
-1.7697e-06
3.06976e-05
-1.37047e-06
2.67956e-05
-9.98692e-07
2.32534e-05
-8.04659e-07
2.01669e-05
-4.16747e-07
1.71869e-05
-1.30045e-07
1.33518e-05
2.31688e-08
1.93534e-05
5.50599e-08
2.15368e-05
4.29143e-08
2.39639e-05
-5.97197e-09
2.66641e-05
-9.47842e-08
2.96712e-05
-2.26255e-07
3.30173e-05
-4.05462e-07
3.67369e-05
-6.375e-07
4.08797e-05
-9.27671e-07
4.54931e-05
-1.28002e-06
5.06378e-05
-1.69639e-06
5.63813e-05
-2.17299e-06
6.28088e-05
-2.69934e-06
7.00223e-05
-3.25359e-06
7.6912e-05
-3.80423e-06
7.72462e-05
-4.32532e-06
7.76822e-05
-4.78288e-06
7.82319e-05
-5.14355e-06
7.8894e-05
-5.37544e-06
7.96731e-05
-5.452e-06
8.05581e-05
-5.35342e-06
8.59737e-05
-5.02654e-06
7.58475e-05
-4.62507e-06
6.69302e-05
-4.17437e-06
5.90579e-05
-3.69556e-06
5.20639e-05
-3.20567e-06
4.58881e-05
-2.71819e-06
4.0419e-05
-2.24551e-06
3.55344e-05
-1.79858e-06
3.11257e-05
-1.38478e-06
2.71817e-05
-1.24024e-06
2.3689e-05
-8.00105e-07
2.05503e-05
-4.18405e-07
1.74753e-05
-1.3785e-07
1.34896e-05
1.73972e-05
2.20008e-08
5.23068e-08
1.93561e-05
3.92338e-08
2.15405e-05
-9.6692e-09
2.39676e-05
-9.78594e-08
2.66672e-05
-2.28163e-07
2.96732e-05
-4.05722e-07
3.30176e-05
-6.35948e-07
3.67354e-05
-9.24757e-07
4.08768e-05
-1.27727e-06
4.54904e-05
-1.69713e-06
5.06386e-05
-2.18343e-06
5.63918e-05
-2.72992e-06
6.28394e-05
-3.32073e-06
7.00894e-05
-3.92985e-06
7.70377e-05
-4.51855e-06
7.74395e-05
-5.05705e-06
7.79563e-05
-5.51024e-06
7.85986e-05
-5.84318e-06
7.93618e-05
-6.02554e-06
8.02466e-05
-6.03309e-06
8.12378e-05
-5.85181e-06
8.6799e-05
-5.42991e-06
7.66523e-05
-4.94017e-06
6.7696e-05
-4.41079e-06
5.97732e-05
-3.86406e-06
5.27223e-05
-3.3182e-06
4.64882e-05
-2.78795e-06
4.09615e-05
-2.28535e-06
3.60212e-05
-1.81911e-06
3.15601e-05
-1.72234e-06
2.76638e-05
-1.2326e-06
2.41215e-05
-7.92311e-07
2.09242e-05
-4.17687e-07
1.77551e-05
-1.42856e-07
1.36325e-05
1.73995e-05
4.99276e-08
2.78119e-05
2.01038e-08
3.60892e-08
1.93592e-05
-1.27303e-08
2.15435e-05
-1.0021e-07
2.397e-05
-2.29195e-07
2.66682e-05
-4.04828e-07
2.96723e-05
-6.32708e-07
3.30143e-05
-9.19157e-07
3.67298e-05
-1.27005e-06
4.08695e-05
-1.69038e-06
4.54836e-05
-2.18143e-06
5.06366e-05
-2.74033e-06
5.64022e-05
-3.35608e-06
6.28747e-05
-4.00935e-06
7.01689e-05
-4.66711e-06
7.71862e-05
-5.28347e-06
7.76659e-05
-5.82778e-06
7.82739e-05
-6.2624e-06
7.90178e-05
-6.55323e-06
7.98895e-05
-6.67157e-06
8.08851e-05
-6.59867e-06
8.19846e-05
-6.32528e-06
8.76944e-05
-5.80301e-06
7.75152e-05
-5.22299e-06
6.85082e-05
-4.61539e-06
6.05245e-05
-4.00379e-06
5.34079e-05
-3.40737e-06
4.71076e-05
-2.84031e-06
4.15164e-05
-2.31273e-06
3.65148e-05
-2.26351e-06
3.21012e-05
-1.71276e-06
2.81439e-05
-1.21701e-06
2.45462e-05
-7.80166e-07
2.12866e-05
-4.1353e-07
1.80258e-05
-1.45245e-07
1.37777e-05
1.74022e-05
3.33956e-08
2.78158e-05
4.60531e-08
2.85518e-05
1.82995e-08
-1.52723e-08
1.93618e-05
-1.01993e-07
2.15453e-05
-2.29578e-07
2.39703e-05
-4.03126e-07
2.66665e-05
-6.28326e-07
2.96679e-05
-9.11744e-07
3.30069e-05
-1.25977e-06
3.67195e-05
-1.67836e-06
4.08575e-05
-2.17044e-06
4.54726e-05
-2.73579e-06
5.0632e-05
-3.36733e-06
5.64134e-05
-4.05127e-06
6.29166e-05
-4.76186e-06
7.02637e-05
-5.45893e-06
7.73617e-05
-6.09187e-06
7.793e-05
-6.6277e-06
7.86392e-05
-7.02882e-06
7.94934e-05
-7.26196e-06
8.04799e-05
-7.3034e-06
8.15899e-05
-7.13887e-06
8.27982e-05
-6.76611e-06
8.86575e-05
-6.14034e-06
7.84325e-05
-5.46992e-06
6.93627e-05
-4.78684e-06
6.13076e-05
-4.1155e-06
5.4116e-05
-3.47434e-06
4.77416e-05
-2.87579e-06
4.20795e-05
-2.87822e-06
3.71295e-05
-2.25132e-06
3.26398e-05
-1.69018e-06
2.86171e-05
-1.19371e-06
2.49597e-05
-7.63089e-07
2.16362e-05
-4.05991e-07
1.82865e-05
-1.45293e-07
1.3923e-05
1.74044e-05
-1.73923e-08
2.78195e-05
2.96779e-08
2.85555e-05
4.2317e-08
2.93117e-05
1.65875e-08
-1.03333e-07
1.93631e-05
-2.29488e-07
2.15452e-05
-4.00882e-07
2.39681e-05
-6.23217e-07
2.66614e-05
-9.03184e-07
2.96593e-05
-1.2475e-06
3.29946e-05
-1.66278e-06
3.67039e-05
-2.15318e-06
4.08403e-05
-2.72049e-06
4.54573e-05
-3.36073e-06
5.06254e-05
-4.06461e-06
5.64268e-05
-4.81254e-06
6.29673e-05
-5.57225e-06
7.0377e-05
-6.29859e-06
7.75684e-05
-6.93403e-06
7.82363e-05
-7.44616e-06
7.90565e-05
-7.7973e-06
8.00287e-05
-7.95854e-06
8.1135e-05
-7.91019e-06
8.23612e-05
-7.64493e-06
8.36771e-05
-7.16774e-06
8.96849e-05
-6.43738e-06
7.94e-05
-5.67884e-06
7.02547e-05
-4.92515e-06
6.21172e-05
-4.19981e-06
5.48415e-05
-3.51963e-06
4.83854e-05
-3.57982e-06
4.27811e-05
-2.86287e-06
3.77411e-05
-2.22109e-06
3.31707e-05
-1.65596e-06
2.90793e-05
-1.16306e-06
2.53597e-05
-7.41449e-07
2.19717e-05
-3.95411e-07
1.85366e-05
-1.43395e-07
1.40664e-05
1.74054e-05
-1.04328e-07
2.78213e-05
-1.92396e-08
2.8559e-05
2.62007e-08
2.93153e-05
3.87349e-08
3.00896e-05
1.49692e-08
-2.29062e-07
1.93627e-05
-3.98296e-07
2.15426e-05
-6.17692e-07
2.39626e-05
-8.93979e-07
2.66522e-05
-1.23405e-06
2.96459e-05
-1.64496e-06
3.29768e-05
-2.13175e-06
3.66825e-05
-2.6977e-06
4.08175e-05
-3.34126e-06
4.54379e-05
-4.05672e-06
5.06175e-05
-4.82962e-06
5.64438e-05
-5.6344e-06
6.30295e-05
-6.43431e-06
7.05127e-05
-7.17671e-06
7.78111e-05
-7.79939e-06
7.85895e-05
-8.27068e-06
7.95299e-05
-8.55649e-06
8.06267e-05
-8.63129e-06
8.18561e-05
-8.48219e-06
8.31984e-05
-8.10928e-06
8.46186e-05
-7.52456e-06
9.07721e-05
-6.6911e-06
8.04122e-05
-5.84901e-06
7.11785e-05
-5.0304e-06
6.29478e-05
-4.25722e-06
5.55791e-05
-4.38293e-06
4.91886e-05
-3.56125e-06
4.34795e-05
-2.82406e-06
3.8344e-05
-2.17509e-06
3.36898e-05
-1.61136e-06
2.95277e-05
-1.12604e-06
2.57443e-05
-7.15925e-07
2.22922e-05
-3.8232e-07
1.87756e-05
-1.3997e-07
1.42064e-05
1.74047e-05
-2.28404e-07
2.78197e-05
-1.02713e-07
2.85606e-05
-2.08016e-08
2.93185e-05
2.29566e-08
3.0093e-05
3.53091e-08
3.08895e-05
1.3445e-08
-3.95518e-07
1.93599e-05
-6.11982e-07
2.15369e-05
-8.84499e-07
2.39531e-05
-1.22003e-06
2.66382e-05
-1.6259e-06
2.96268e-05
-2.10774e-06
3.29528e-05
-2.66996e-06
3.66547e-05
-3.31282e-06
4.0789e-05
-4.03349e-06
4.54146e-05
-4.82161e-06
5.06095e-05
-5.65733e-06
5.64668e-05
-6.51115e-06
6.31063e-05
-7.33907e-06
7.06751e-05
-8.08296e-06
7.80946e-05
-8.67539e-06
7.89942e-05
-9.08958e-06
8.0063e-05
-9.294e-06
8.12894e-05
-9.26957e-06
8.26435e-05
-9.01082e-06
8.41e-05
-8.52523e-06
8.56192e-05
-7.83249e-06
9.19135e-05
-6.89995e-06
8.14632e-05
-5.97994e-06
7.21281e-05
-5.10301e-06
6.37936e-05
-5.3043e-06
5.65004e-05
-4.36158e-06
4.99889e-05
-3.51317e-06
4.41686e-05
-2.76496e-06
3.89339e-05
-2.11542e-06
3.41939e-05
-1.55811e-06
2.99597e-05
-1.0839e-06
2.61122e-05
-6.87363e-07
2.25972e-05
-3.67305e-07
1.90029e-05
-1.35399e-07
1.43418e-05
1.74018e-05
-3.92659e-07
2.78131e-05
-2.21738e-07
2.85586e-05
-1.00692e-07
2.93198e-05
-2.20645e-08
3.00961e-05
1.99499e-08
3.08928e-05
3.2045e-08
3.17094e-05
1.20137e-08
-6.06259e-07
1.93542e-05
-8.75017e-07
2.15274e-05
-1.20589e-06
2.39389e-05
-1.60633e-06
2.66186e-05
-2.08237e-06
2.96014e-05
-2.6392e-06
3.29221e-05
-3.27848e-06
3.66204e-05
-3.99955e-06
4.07551e-05
-4.79541e-06
4.53884e-05
-5.65084e-06
5.06031e-05
-6.54258e-06
5.64982e-05
-7.43432e-06
6.32016e-05
-8.27665e-06
7.08688e-05
-9.00495e-06
7.84242e-05
-9.55022e-06
7.94549e-05
-9.88991e-06
8.06589e-05
-9.9984e-06
8.20182e-05
-9.86386e-06
8.34965e-05
-9.48839e-06
8.50631e-05
-8.88773e-06
8.66745e-05
-8.08908e-06
9.31026e-05
-7.06284e-06
8.25461e-05
-6.07184e-06
7.30969e-05
-6.36278e-06
6.48521e-05
-5.28118e-06
5.74201e-05
-4.30382e-06
5.07795e-05
-3.43966e-06
4.48433e-05
-2.68855e-06
3.9507e-05
-2.04453e-06
3.46803e-05
-1.49807e-06
3.03739e-05
-1.03792e-06
2.64628e-05
-6.56609e-07
2.28865e-05
-3.50926e-07
1.92184e-05
-1.30012e-07
1.44718e-05
1.73962e-05
-6.00643e-07
2.77995e-05
-3.79144e-07
2.85514e-05
-2.14546e-07
2.93174e-05
-9.82861e-08
3.0097e-05
-2.30265e-08
3.08956e-05
1.71791e-08
3.17125e-05
2.89469e-08
3.25533e-05
1.06773e-08
-8.6573e-07
1.93449e-05
-1.19195e-06
2.15135e-05
-1.5868e-06
2.39194e-05
-2.05654e-06
2.65928e-05
-2.6069e-06
2.95691e-05
-3.24055e-06
3.28841e-05
-3.95853e-06
3.65793e-05
-4.75643e-06
4.07161e-05
-5.62287e-06
4.53604e-05
-6.53975e-06
5.06002e-05
-7.47746e-06
5.65413e-05
-8.39454e-06
6.33195e-05
-9.23494e-06
7.10988e-05
-9.9309e-06
7.88049e-05
-1.04105e-05
7.99755e-05
-1.06596e-05
8.13201e-05
-1.06593e-05
8.28136e-05
-1.04055e-05
8.44136e-05
-9.90888e-06
8.60843e-05
-9.19358e-06
8.7779e-05
-8.2926e-06
9.43324e-05
-7.17967e-06
8.36539e-05
-7.57798e-06
7.43121e-05
-6.33966e-06
6.59105e-05
-5.21368e-06
5.83299e-05
-4.21471e-06
5.15546e-05
-3.34467e-06
4.54994e-05
-2.59807e-06
4.00606e-05
-1.96496e-06
3.51472e-05
-1.43311e-06
3.07691e-05
-9.89319e-07
2.67955e-05
-6.24454e-07
2.316e-05
-3.33699e-07
1.94221e-05
-1.24069e-07
1.45959e-05
1.73873e-05
-8.56771e-07
2.77772e-05
-5.78269e-07
2.85371e-05
-3.64909e-07
2.93096e-05
-2.06781e-07
3.00942e-05
-9.54616e-08
3.08962e-05
-2.36876e-08
3.17151e-05
1.46438e-08
3.25563e-05
2.60128e-08
3.34192e-05
9.43258e-09
-1.17845e-06
1.93314e-05
-1.5677e-06
2.14944e-05
-2.03091e-06
2.38938e-05
-2.57415e-06
2.65601e-05
-3.20081e-06
2.95294e-05
-3.9132e-06
3.28388e-05
-4.70895e-06
3.65319e-05
-5.57972e-06
4.0673e-05
-6.51171e-06
4.53324e-05
-7.48099e-06
5.06038e-05
-8.45315e-06
5.65999e-05
-9.38014e-06
6.34647e-05
-1.02024e-05
7.13703e-05
-1.08473e-05
7.92416e-05
-1.12437e-05
8.05597e-05
-1.13874e-05
8.20482e-05
-1.1267e-05
8.36752e-05
-1.08873e-05
8.5392e-05
-1.02682e-05
8.71589e-05
-9.44034e-06
8.89267e-05
-8.44255e-06
9.55952e-05
-8.97179e-06
8.50477e-05
-7.55785e-06
7.55303e-05
-6.26283e-06
6.69597e-05
-5.10789e-06
5.92231e-05
-4.0992e-06
5.23091e-05
-3.2323e-06
4.61336e-05
-2.49675e-06
4.05924e-05
-1.87917e-06
3.55933e-05
-1.36488e-06
3.11446e-05
-9.39187e-07
2.71102e-05
-5.91617e-07
2.3418e-05
-3.16012e-07
1.96141e-05
-1.178e-07
1.47137e-05
1.73743e-05
-1.16553e-06
2.77436e-05
-8.23178e-07
2.85139e-05
-5.55002e-07
2.92947e-05
-3.50009e-07
3.00859e-05
-1.98524e-07
3.0893e-05
-9.22433e-08
3.17154e-05
-2.40444e-08
3.25586e-05
1.23438e-08
3.3422e-05
2.32472e-08
3.43052e-05
8.27852e-09
-1.54929e-06
1.9313e-05
-2.00594e-06
2.14694e-05
-2.54173e-06
2.38614e-05
-3.16056e-06
2.65198e-05
-3.86567e-06
2.94819e-05
-4.65624e-06
3.27861e-05
-5.52636e-06
3.64785e-05
-6.46571e-06
4.0627e-05
-7.45513e-06
4.53065e-05
-8.4663e-06
5.06169e-05
-9.45847e-06
5.66783e-05
-1.038e-05
6.36422e-05
-1.11656e-05
7.16886e-05
-1.17413e-05
7.97392e-05
-1.2038e-05
8.12103e-05
-1.20628e-05
8.2844e-05
-1.18135e-05
8.46014e-05
-1.13045e-05
8.64283e-05
-1.05631e-05
8.82817e-05
-9.62692e-06
9.01111e-05
-1.05678e-05
9.71912e-05
-8.95996e-06
8.64498e-05
-7.47318e-06
7.67406e-05
-6.13958e-06
6.79914e-05
-4.96986e-06
6.00938e-05
-3.96238e-06
5.30392e-05
-3.10656e-06
4.67434e-05
-2.38769e-06
4.11009e-05
-1.78931e-06
3.60177e-05
-1.29485e-06
3.15003e-05
-8.88503e-07
2.74071e-05
-5.58616e-07
2.36606e-05
-2.98229e-07
1.97945e-05
-1.11383e-07
1.4825e-05
1.73568e-05
-1.53176e-06
2.76963e-05
-1.1183e-06
2.84792e-05
-7.88473e-07
2.92705e-05
-5.30806e-07
3.00703e-05
-3.34385e-07
3.08842e-05
-1.89727e-07
3.17118e-05
-8.86253e-08
3.25586e-05
-2.41045e-08
3.34241e-05
1.02725e-08
3.43078e-05
2.06485e-08
3.52191e-05
7.21418e-09
-1.98195e-06
1.9289e-05
-2.51021e-06
2.14379e-05
-3.12076e-06
2.38216e-05
-3.8175e-06
2.64717e-05
-4.60079e-06
2.94264e-05
-5.46662e-06
3.27263e-05
-6.40746e-06
3.64203e-05
-7.40811e-06
4.058e-05
-8.44543e-06
4.52857e-05
-9.48509e-06
5.06435e-05
-1.04828e-05
5.67811e-05
-1.13808e-05
6.38574e-05
-1.21116e-05
7.20589e-05
-1.26005e-05
8.03016e-05
-1.2782e-05
8.19295e-05
-1.26769e-05
8.37074e-05
-1.22929e-05
8.55899e-05
-1.16528e-05
8.75181e-05
-1.07919e-05
8.94466e-05
-1.20725e-05
9.16158e-05
-1.05733e-05
9.88046e-05
-8.87123e-06
8.78479e-05
-7.33265e-06
7.79337e-05
-5.97719e-06
6.89987e-05
-4.80582e-06
6.09372e-05
-3.80917e-06
5.37418e-05
-2.97127e-06
4.7327e-05
-2.27359e-06
4.15852e-05
-1.69726e-06
3.64201e-05
-1.22433e-06
3.18361e-05
-8.3796e-07
2.76865e-05
-5.25955e-07
2.38883e-05
-2.80631e-07
1.99637e-05
-1.04949e-07
1.493e-05
1.7334e-05
-1.95916e-06
2.76324e-05
-1.46785e-06
2.84306e-05
-1.0697e-06
2.92348e-05
-7.52732e-07
3.00452e-05
-5.05747e-07
3.08679e-05
-3.18107e-07
3.17025e-05
-1.80428e-07
3.25546e-05
-8.46238e-08
3.34238e-05
-2.3866e-08
3.43096e-05
8.42663e-09
3.52215e-05
1.82127e-08
3.6155e-05
6.23655e-09
-2.47998e-06
1.92588e-05
-3.08209e-06
2.13992e-05
-3.76985e-06
2.37739e-05
-4.54448e-06
2.64153e-05
-5.40344e-06
2.93632e-05
-6.34142e-06
3.26603e-05
-7.34646e-06
3.63586e-05
-8.39976e-06
4.05343e-05
-9.47258e-06
4.52732e-05
-1.05272e-05
5.0688e-05
-1.15131e-05
5.69134e-05
-1.23697e-05
6.41155e-05
-1.30277e-05
7.24862e-05
-1.3413e-05
8.09326e-05
-1.34659e-05
8.27185e-05
-1.32228e-05
8.46372e-05
-1.27002e-05
8.66373e-05
-1.19299e-05
8.86561e-05
-1.35617e-05
9.09359e-05
-1.21032e-05
9.31457e-05
-1.04872e-05
0.000100421
-8.71545e-06
8.92307e-05
-7.14493e-06
7.91015e-05
-5.78319e-06
6.99761e-05
-4.62173e-06
6.17497e-05
-3.6442e-06
5.44147e-05
-2.82974e-06
4.78832e-05
-2.1568e-06
4.20447e-05
-1.60472e-06
3.68005e-05
-1.15424e-06
3.21524e-05
-7.88239e-07
2.79488e-05
-4.94013e-07
2.41017e-05
-2.63411e-07
2.01222e-05
-9.86034e-08
1.50286e-05
1.73053e-05
-2.45129e-06
2.75486e-05
-1.87538e-06
2.83648e-05
-1.40214e-06
2.91846e-05
-1.01954e-06
3.00083e-05
-7.1577e-07
3.0842e-05
-4.7982e-07
3.16856e-05
-3.01204e-07
3.25448e-05
-1.70643e-07
3.34195e-05
-8.02465e-08
3.43091e-05
-2.33332e-08
3.52231e-05
6.79736e-09
3.61573e-05
1.59359e-08
3.65889e-05
5.35393e-09
-3.04501e-06
1.92217e-05
-3.72352e-06
2.13529e-05
-4.48866e-06
2.37181e-05
-5.33901e-06
2.63509e-05
-6.27101e-06
2.92928e-05
-7.2753e-06
3.25891e-05
-8.33671e-06
3.62956e-05
-9.43123e-06
4.04929e-05
-1.0527e-05
4.52729e-05
-1.15801e-05
5.0755e-05
-1.25369e-05
5.70806e-05
-1.33341e-05
6.44219e-05
-1.39016e-05
7.29748e-05
-1.41682e-05
8.16348e-05
-1.40821e-05
8.35778e-05
-1.36946e-05
8.56316e-05
-1.30322e-05
8.77396e-05
-1.50273e-05
9.01216e-05
-1.36277e-05
9.24604e-05
-1.20284e-05
9.4687e-05
-1.03207e-05
0.000102026
-8.50258e-06
9.05883e-05
-6.9189e-06
8.02372e-05
-5.56478e-06
7.09191e-05
-4.42321e-06
6.25287e-05
-3.4715e-06
5.50565e-05
-2.68488e-06
4.84112e-05
-2.03943e-06
4.24794e-05
-1.51282e-06
3.71591e-05
-1.08545e-06
3.24496e-05
-7.39838e-07
2.81946e-05
-4.63035e-07
2.43013e-05
-2.4673e-07
2.02703e-05
-9.24263e-08
1.5121e-05
1.72702e-05
-3.00984e-06
2.74416e-05
-2.3442e-06
2.82793e-05
-1.7898e-06
2.91174e-05
-1.3349e-06
2.99569e-05
-9.68133e-07
3.08041e-05
-6.77864e-07
3.16589e-05
-4.53085e-07
3.25273e-05
-2.83655e-07
3.34092e-05
-1.60393e-07
3.43043e-05
-7.55118e-08
3.52223e-05
-2.25035e-08
3.61587e-05
5.37884e-09
3.6591e-05
1.38416e-08
3.55528e-05
4.58662e-09
-3.67908e-06
1.91773e-05
-4.43432e-06
2.12986e-05
-5.27496e-06
2.3654e-05
-6.19882e-06
2.62787e-05
-7.19859e-06
2.92161e-05
-8.26209e-06
3.25145e-05
-9.36933e-06
3.62336e-05
-1.04934e-05
4.04594e-05
-1.15966e-05
4.52894e-05
-1.26316e-05
5.08497e-05
-1.35415e-05
5.7288e-05
-1.42613e-05
6.47815e-05
-1.47221e-05
7.35287e-05
-1.48575e-05
8.24102e-05
-1.46236e-05
8.45068e-05
-1.40882e-05
8.66876e-05
-1.6459e-05
8.91713e-05
-1.51401e-05
9.1634e-05
-1.35745e-05
9.40065e-05
-1.18604e-05
9.62267e-05
-1.00853e-05
0.000103608
-8.24302e-06
9.19124e-05
-6.66296e-06
8.13354e-05
-5.32869e-06
7.18246e-05
-4.21513e-06
6.32724e-05
-3.29464e-06
5.56663e-05
-2.53928e-06
4.89111e-05
-1.92292e-06
4.28895e-05
-1.42272e-06
3.74963e-05
-1.01861e-06
3.27284e-05
-6.93066e-07
2.84246e-05
-4.3323e-07
2.44878e-05
-2.30713e-07
2.04086e-05
-8.64735e-08
1.52075e-05
1.7228e-05
-3.6369e-06
2.73083e-05
-2.87661e-06
2.81702e-05
-2.23511e-06
2.90296e-05
-1.70206e-06
2.98881e-05
-1.26607e-06
3.07514e-05
-9.15436e-07
3.162e-05
-6.38949e-07
3.24999e-05
-4.25659e-07
3.33911e-05
-2.65581e-07
3.42937e-05
-1.49735e-07
3.52172e-05
-7.04473e-08
3.61576e-05
-2.14028e-08
3.65922e-05
4.1767e-09
3.55546e-05
1.19904e-08
3.45447e-05
3.91771e-09
-4.38214e-06
1.91251e-05
-5.21247e-06
2.12361e-05
-6.12674e-06