/*--------------------------------*- C++ -*----------------------------------*\
  =========                 |
  \\      /  F ield         | OpenFOAM: The Open Source CFD Toolbox
   \\    /   O peration     | Website:  https://openfoam.org
    \\  /    A nd           | Version:  8
     \\/     M anipulation  |
\*---------------------------------------------------------------------------*/
FoamFile
{
    version     2.0;
    format      ascii;
    class       volScalarField;
    location    "0.42";
    object      nut;
}
// * * * * * * * * * * * * * * * * * * * * * * * * * * * * * * * * * * * * * //

dimensions      [0 2 -1 0 0 0 0];

internalField   nonuniform List<scalar> 
15677
(
0.000168262
0.000652979
0.000148413
0.00151346
0.000442467
0.000141487
0.00267489
0.000875912
0.000381156
0.000142347
0.00392043
0.00151919
0.000686642
0.000354329
0.000145428
0.00502335
0.0023566
0.00114627
0.000585942
0.000340324
0.000151124
0.00584005
0.00331802
0.00178043
0.000948423
0.0005295
0.000332112
0.000156993
0.00633482
0.0042994
0.00256702
0.00146435
0.000821303
0.000492875
0.000327164
0.000162372
0.00656279
0.00518828
0.00345201
0.00213298
0.00125778
0.000738187
0.000467892
0.000324234
0.000167266
0.00665842
0.00589393
0.00435431
0.00292378
0.00184232
0.00111403
0.000678241
0.000450868
0.000322802
0.000171434
0.00670547
0.00633848
0.00517991
0.00378075
0.00255799
0.00163421
0.00100602
0.000635137
0.000439259
0.000322139
0.000175127
0.00671436
0.00655356
0.00584476
0.00462701
0.003364
0.00228958
0.00147482
0.000926255
0.000603271
0.000431181
0.000322262
0.000178219
0.00670988
0.00666155
0.00629538
0.00537863
0.00419838
0.00304887
0.00208072
0.00135234
0.000864175
0.00057958
0.000425931
0.000322632
0.000180962
0.00670625
0.00669879
0.00652965
0.00596553
0.0049857
0.00386113
0.00279939
0.00191633
0.00125433
0.000816291
0.000562025
0.000422246
0.000323445
0.000183327
0.00670538
0.00670441
0.00664682
0.00635736
0.0056515
0.00465959
0.00358757
0.00259926
0.00178235
0.00117692
0.000778533
0.000548599
0.000420155
0.000324221
0.000185446
0.00670544
0.0067029
0.00668789
0.00656322
0.0061433
0.00537176
0.0043858
0.00336345
0.00243388
0.00167374
0.0011132
0.000748663
0.000538826
0.000418628
0.00032526
0.000187327
0.00670561
0.00670167
0.00669639
0.00665671
0.00644772
0.00593624
0.00512538
0.00415543
0.00317567
0.00229727
0.00158342
0.00106194
0.000725273
0.000531209
0.000418031
0.000326187
0.000188971
0.00670572
0.00670121
0.00669713
0.00668501
0.00660543
0.00632348
0.00574126
0.0049104
0.00395889
0.00301812
0.00218248
0.00150899
0.00102021
0.000706556
0.000525849
0.000417614
0.000327306
0.000190549
0.00670576
0.00670112
0.00669672
0.00669175
0.00666408
0.00654232
0.00619115
0.00556262
0.00472242
0.00379113
0.00288435
0.00208657
0.00144711
0.000986216
0.000692039
0.000521608
0.000417887
0.000328294
0.00019184
0.00670576
0.00670114
0.00669642
0.00669282
0.00668255
0.0066352
0.00646979
0.00606239
0.0054011
0.00455846
0.00364704
0.00277128
0.00200581
0.00139609
0.000958699
0.000680436
0.00051895
0.000418111
0.000329431
0.000193269
0.00670576
0.00670117
0.00669627
0.00669278
0.00668747
0.00666957
0.00659932
0.0063925
0.00594091
0.0052562
0.00441552
0.0035238
0.00267522
0.00193864
0.00135397
0.000936563
0.000671777
0.000516837
0.000418911
0.000330462
0.000194282
0.00670576
0.00670119
0.00669619
0.00669268
0.00668836
0.00668113
0.00665231
0.00655818
0.00631535
0.00582764
0.00512722
0.00429154
0.00341833
0.00259461
0.00188273
0.00131987
0.00091908
0.000665002
0.00051595
0.000419522
0.000331587
0.000195677
0.00670576
0.0067012
0.00669615
0.00669264
0.00668831
0.00668449
0.0066724
0.0066317
0.00651427
0.00623902
0.00572395
0.00501346
0.00418458
0.00332912
0.00252729
0.00183716
0.00129241
0.000905586
0.000660465
0.000515253
0.000420679
0.000332711
0.000196478
0.00670576
0.0067012
0.00669612
0.00669263
0.00668814
0.00668525
0.00667917
0.00666229
0.00660824
0.00646944
0.00616727
0.00563086
0.00491426
0.00409326
0.00325437
0.00247209
0.00180061
0.00127147
0.000895626
0.000657104
0.000515604
0.000421527
0.00033374
0.000197879
0.00670576
0.0067012
0.00669611
0.00669261
0.00668802
0.00668533
0.00668109
0.00667385
0.00665023
0.00658367
0.00642453
0.00610194
0.00554813
0.00482849
0.00401666
0.00319308
0.00242833
0.0017727
0.00125539
0.000888561
0.000655625
0.000515921
0.000423024
0.000335179
0.00019861
0.00670576
0.00670119
0.00669611
0.00669259
0.00668795
0.00668526
0.00668147
0.00667774
0.00666749
0.00663731
0.00655798
0.00638361
0.00604104
0.00547595
0.00475712
0.00395404
0.0031446
0.00239416
0.00175163
0.00124508
0.000884729
0.000654909
0.000517238
0.000423905
0.000335994
5.3695e-05
0.00670576
0.00670118
0.00669611
0.00669257
0.00668792
0.00668517
0.00668144
0.00667882
0.00667395
0.00666056
0.0066241
0.00653437
0.00634341
0.00598943
0.00541637
0.00469739
0.00390358
0.00310687
0.00237087
0.00173978
0.00123936
0.000882927
0.000655818
0.000518305
0.000426529
0.000280933
6.41317e-05
0.00670576
0.00670117
0.00669612
0.00669254
0.0066879
0.00668509
0.00668135
0.00667897
0.00667608
0.00666979
0.00665463
0.00661096
0.0065104
0.00631217
0.00594401
0.00536433
0.0046523
0.00386979
0.00308547
0.00235786
0.00173347
0.00123733
0.000883865
0.000657435
0.000520628
0.000419283
0.000215202
7.17731e-05
0.00670575
0.00670116
0.00669613
0.00669252
0.0066879
0.00668502
0.00668129
0.00667886
0.00667664
0.00667305
0.00666768
0.00664712
0.00659973
0.00649415
0.00627862
0.00590925
0.00533331
0.00462431
0.00384787
0.00307094
0.00235119
0.0017324
0.00123915
0.000886732
0.000659751
0.000521711
0.000397648
0.000173412
7.73008e-05
0.00670575
0.00670116
0.00669613
0.00669249
0.0066879
0.00668496
0.00668124
0.0066787
0.00667668
0.00667396
0.00667278
0.006663
0.00664447
0.00659062
0.00647381
0.00626431
0.00589024
0.00530964
0.00460404
0.00383456
0.00306543
0.00235203
0.00173748
0.00124551
0.00089114
0.000663229
0.000519224
0.00036243
0.000148184
8.13148e-05
0.00670575
0.00670115
0.00669614
0.00669247
0.0066879
0.00668491
0.0066812
0.00667857
0.0066766
0.00667402
0.00667451
0.00666943
0.00666523
0.00663875
0.00658521
0.00647081
0.00625606
0.00587557
0.00529504
0.00459472
0.00383397
0.00307174
0.00236248
0.00174884
0.00125483
0.000897775
0.000666448
0.000512276
0.00033004
0.000132055
8.45658e-05
0.00670575
0.00670114
0.00669615
0.00669246
0.0066879
0.00668487
0.00668116
0.00667846
0.00667649
0.00667386
0.0066749
0.00667168
0.00667411
0.00666154
0.00664402
0.0065867
0.00647066
0.00625092
0.00587058
0.00529522
0.00460278
0.00384765
0.00308928
0.00238092
0.00176539
0.00126777
0.00090586
0.000669507
0.000499756
0.000302292
0.000119998
8.71265e-05
0.00670575
0.00670114
0.00669616
0.00669244
0.0066879
0.00668484
0.00668113
0.00667838
0.00667639
0.00667367
0.00667486
0.0066722
0.00667747
0.00667173
0.00667261
0.00664842
0.0065928
0.0064762
0.00625735
0.005883
0.00531237
0.00462485
0.00387391
0.00311705
0.00240703
0.00178708
0.00128396
0.000915488
0.00067081
0.000485086
0.000277871
0.000111296
8.90262e-05
0.00670575
0.00670113
0.00669616
0.00669242
0.00668791
0.00668481
0.0066811
0.00667831
0.00667629
0.0066735
0.0066747
0.00667213
0.00667843
0.00667577
0.00668545
0.00667964
0.00665869
0.006606
0.00649247
0.0062798
0.00591043
0.0053445
0.00466145
0.00391276
0.00315496
0.00244068
0.00181359
0.00130307
0.00092609
0.000671243
0.000469474
0.000257358
0.000105453
9.05201e-05
0.00670574
0.00670113
0.00669617
0.00669241
0.00668791
0.00668479
0.00668107
0.00667827
0.00667619
0.00667336
0.00667452
0.00667191
0.00667852
0.006677
0.00669075
0.00669457
0.00669235
0.0066767
0.00663111
0.00652321
0.00631725
0.00595362
0.00539281
0.00471276
0.00396421
0.00320296
0.00248159
0.0018449
0.00132563
0.000937968
0.000670907
0.000453781
0.000241982
0.000101461
9.17613e-05
0.00670112
0.00670575
0.00669617
0.0066924
0.00668791
0.00668477
0.00668104
0.00667824
0.00667609
0.00667327
0.00667433
0.00667168
0.00667832
0.00667716
0.00669249
0.00670113
0.00670857
0.00671357
0.00670872
0.00666857
0.00656899
0.00637059
0.00601412
0.00545738
0.00477903
0.00402846
0.00326086
0.00252976
0.00188057
0.0013506
0.000952344
0.000670299
0.000441357
0.000230219
9.86122e-05
9.28401e-05
0.00669618
0.00670113
0.00670576
0.00669239
0.00668791
0.00668476
0.00668102
0.00667822
0.00667599
0.00667321
0.00667413
0.00667147
0.00667805
0.00667698
0.00669281
0.00670352
0.00671593
0.0067317
0.00674982
0.00675097
0.00672101
0.00663118
0.00644269
0.00609283
0.00553975
0.00486092
0.00410524
0.00332858
0.00258473
0.00192111
0.0013805
0.000969909
0.000670728
0.00043077
0.000221095
9.65941e-05
9.38113e-05
0.00669238
0.00669621
0.00670115
0.00670576
0.00668792
0.00668474
0.006681
0.00667821
0.0066759
0.00667318
0.00667394
0.0066713
0.00667777
0.00667669
0.00669263
0.00670418
0.00671875
0.00674014
0.00677071
0.00679568
0.00680868
0.0067902
0.00671273
0.00653421
0.00619136
0.00564026
0.00495785
0.00419474
0.00340576
0.00264653
0.00197098
0.00141695
0.000988856
0.000672304
0.000422976
0.000213912
9.50876e-05
9.47046e-05
0.00668792
0.0066924
0.00669627
0.00670118
0.00670577
0.00668473
0.00668098
0.0066782
0.00667581
0.00667317
0.00667374
0.00667119
0.00667749
0.0066764
0.0066923
0.00670421
0.00671966
0.00674364
0.00678108
0.00681924
0.00685757
0.0068835
0.0068793
0.00681412
0.00664731
0.00630989
0.00575981
0.00507128
0.00429643
0.00349214
0.00272232
0.00203262
0.0014562
0.00100983
0.000675987
0.000416553
0.000208103
9.40026e-05
9.55411e-05
0.00668472
0.00668797
0.00669245
0.00669633
0.0067012
0.00670578
0.00668096
0.00667819
0.00667572
0.00667317
0.00667354
0.00667114
0.00667721
0.00667614
0.00669193
0.00670401
0.00671982
0.00674489
0.00678586
0.00683132
0.00688409
0.00693627
0.00697792
0.00698823
0.00693798
0.0067813
0.0064494
0.00589803
0.00520018
0.00441038
0.00359818
0.00281565
0.00209962
0.00149808
0.00103179
0.000680742
0.000411733
0.0002033
9.31531e-05
9.6327e-05
0.00668094
0.00668475
0.00668805
0.0066925
0.00669639
0.00670122
0.0067058
0.00667819
0.00667564
0.00667319
0.00667334
0.00667113
0.00667692
0.00667592
0.00669159
0.00670374
0.00671971
0.00674527
0.00678809
0.00683763
0.0068993
0.00696745
0.00703783
0.00709523
0.00712097
0.00708242
0.00693726
0.00660895
0.00605349
0.00534545
0.00455057
0.00372803
0.00291708
0.00217173
0.00154258
0.00105461
0.000686831
0.000408291
0.000199337
9.25435e-05
9.70735e-05
0.00667819
0.00668098
0.00668483
0.00668814
0.00669255
0.00669645
0.00670124
0.00670581
0.00667557
0.00667321
0.00667314
0.00667117
0.00667661
0.00667577
0.00669127
0.00670346
0.00671952
0.00674535
0.00678923
0.00684105
0.00690803
0.00698618
0.00707452
0.00716286
0.00723979
0.00728051
0.00725325
0.00711251
0.00678689
0.00622613
0.00552166
0.00472369
0.00387105
0.00302612
0.00224818
0.00158972
0.00107782
0.000694216
0.000406087
0.000195986
9.20407e-05
9.77776e-05
0.00667551
0.00667823
0.00668106
0.00668491
0.00668824
0.00669261
0.00669651
0.00670127
0.00670582
0.00667324
0.00667296
0.00667123
0.00667628
0.00667569
0.00669097
0.0067032
0.0067193
0.00674534
0.00678987
0.0068432
0.00691352
0.006998
0.00709853
0.00720648
0.00731687
0.00741144
0.00746906
0.00745216
0.00731315
0.00698148
0.00643342
0.00573558
0.00491052
0.00402325
0.00314167
0.00232853
0.0016389
0.00110208
0.000702614
0.000404712
0.000193186
9.16894e-05
9.84488e-05
0.00667326
0.00667549
0.00667834
0.00668115
0.00668499
0.00668833
0.00669266
0.00669658
0.00670129
0.00670583
0.00667279
0.00667131
0.00667593
0.00667569
0.00669068
0.00670295
0.00671908
0.00674528
0.00679026
0.00684477
0.00691743
0.00700622
0.00711543
0.00723727
0.00737002
0.00750031
0.00761505
0.00768607
0.00767843
0.00754052
0.00722036
0.00668072
0.00596219
0.00510738
0.00418392
0.00326271
0.002412
0.00168972
0.00112715
0.000711162
0.000404308
0.00019079
9.13846e-05
9.90801e-05
0.00667263
0.00667334
0.00667552
0.00667844
0.00668125
0.00668507
0.00668844
0.00669272
0.00669665
0.00670131
0.00670585
0.0066714
0.00667559
0.00667578
0.00669037
0.00670273
0.00671887
0.00674522
0.00679053
0.00684602
0.00692051
0.00701266
0.00712836
0.00726063
0.00741066
0.0075656
0.00771938
0.00785024
0.0079342
0.00793199
0.00782043
0.00751783
0.00694651
0.00619919
0.00531257
0.0043498
0.0033875
0.0024979
0.00174185
0.00115284
0.000720045
0.00040422
0.000188752
9.11812e-05
9.96819e-05
0.0066715
0.00667247
0.00667346
0.00667554
0.00667855
0.00668135
0.00668516
0.00668854
0.00669278
0.00669672
0.00670134
0.00670587
0.00667524
0.00667594
0.00669003
0.00670252
0.00671869
0.00674515
0.00679076
0.00684711
0.00692307
0.00701814
0.00713909
0.00727956
0.00744409
0.007619
0.00780105
0.00797367
0.00812114
0.00821379
0.00824486
0.00816405
0.00784291
0.00723402
0.00644149
0.00551992
0.00451873
0.00351519
0.00258551
0.00179485
0.00117911
0.000729045
0.000404881
0.000187001
9.09963e-05
0.000100245
0.00667491
0.0066716
0.00667229
0.00667358
0.00667558
0.00667866
0.00668146
0.00668525
0.00668865
0.00669284
0.00669679
0.00670136
0.00670588
0.00667616
0.00668962
0.00670234
0.00671853
0.00674511
0.00679097
0.00684808
0.00692531
0.00702301
0.00714842
0.00729595
0.00747288
0.00766533
0.00787212
0.00807606
0.00826927
0.00842838
0.00856113
0.00863197
0.0085386
0.0081891
0.0075402
0.00669729
0.00573028
0.00468968
0.00364403
0.00267401
0.00184836
0.0012057
0.00073827
0.000405689
0.000185486
9.08832e-05
0.000100781
0.00667641
0.00667441
0.0066717
0.00667212
0.00667371
0.00667564
0.00667877
0.00668158
0.00668533
0.00668876
0.0066929
0.00669687
0.00670139
0.0067059
0.00668914
0.00670221
0.00671842
0.00674509
0.00679119
0.00684897
0.00692729
0.00702741
0.00715671
0.00731074
0.0074987
0.00770637
0.00793707
0.00817017
0.00839912
0.00860697
0.00881334
0.00899491
0.00905743
0.00894101
0.00855357
0.00785716
0.00696253
0.00594057
0.00485927
0.00377268
0.00276271
0.001902
0.00123242
0.000747517
0.000406638
0.000184218
9.07756e-05
0.00010128
0.00668859
0.00667655
0.00667368
0.00667182
0.00667197
0.00667384
0.0066757
0.00667888
0.0066817
0.00668542
0.00668888
0.00669296
0.00669694
0.00670142
0.00670592
0.00670215
0.00671835
0.00674511
0.00679142
0.00684978
0.00692908
0.00703142
0.00716416
0.00732433
0.00752227
0.0077438
0.00799709
0.00825983
0.00852383
0.00877117
0.00903482
0.00930006
0.00947711
0.00951919
0.00936846
0.00893343
0.0081823
0.00723463
0.006155
0.005027
0.0039002
0.00285089
0.00195545
0.00125908
0.000756855
0.000407743
0.000183097
9.07195e-05
0.000101756
0.00670219
0.00668719
0.00667661
0.00667295
0.00667193
0.00667185
0.00667395
0.00667579
0.00667898
0.00668184
0.00668551
0.00668899
0.00669303
0.00669701
0.00670144
0.00670593
0.00671834
0.00674517
0.00679164
0.00685052
0.00693071
0.00703506
0.0071709
0.00733688
0.00754384
0.0077786
0.00805362
0.00834423
0.00864607
0.0089358
0.00924977
0.00958396
0.00984895
0.0100081
0.0100166
0.00981948
0.00932648
0.00851361
0.00750861
0.00637194
0.00519261
0.0040259
0.00293808
0.00200837
0.00128554
0.000766231
0.00040895
0.000182169
9.06631e-05
0.000102195
0.00671837
0.00670174
0.00668472
0.00667675
0.00667225
0.00667203
0.00667176
0.00667405
0.0066759
0.00667909
0.00668198
0.00668561
0.00668911
0.0066931
0.00669708
0.00670147
0.00670595
0.00674525
0.00679186
0.00685119
0.00693218
0.00703837
0.00717702
0.00734847
0.00756361
0.00781125
0.00810706
0.00842389
0.00876394
0.00910439
0.00947529
0.00987349
0.0102147
0.0104671
0.0105937
0.0105527
0.0102944
0.00973147
0.00884934
0.00778261
0.00658913
0.00535551
0.00414906
0.00302362
0.00206049
0.00131166
0.000775536
0.000410183
0.000181335
9.06439e-05
0.000102615
0.00674538
0.00671725
0.00670085
0.00668217
0.00667689
0.00667163
0.00667209
0.00667173
0.00667413
0.00667603
0.00667919
0.00668213
0.0066857
0.00668923
0.00669317
0.00669715
0.0067015
0.00670596
0.00679203
0.00685177
0.00693352
0.00704137
0.0071826
0.00735914
0.00758173
0.00784194
0.00815726
0.00849931
0.00887899
0.00927331
0.00971151
0.0101883
0.0106101
0.010952
0.0111756
0.0112471
0.0111336
0.0107951
0.0101479
0.00918818
0.00805552
0.00680499
0.00551549
0.00426849
0.00310709
0.00211154
0.00133731
0.000784771
0.000411488
0.000180582
9.062e-05
0.000103
0.00679218
0.00674346
0.00671491
0.00670004
0.00667977
0.00667691
0.00667113
0.00667209
0.00667176
0.0066742
0.00667618
0.00667929
0.00668228
0.0066858
0.00668934
0.00669324
0.00669721
0.00670153
0.00670597
0.00685228
0.00693472
0.00704408
0.00718769
0.00736891
0.00759836
0.0078707
0.00820406
0.00857111
0.00899203
0.00944068
0.00994674
0.010532
0.0110757
0.0115254
0.0118454
0.0120038
0.0119826
0.0117651
0.0113228
0.0105753
0.00952909
0.00832641
0.00701801
0.00567393
0.00438429
0.00318816
0.00216133
0.0013624
0.000793794
0.000412769
0.000179965
9.06252e-05
0.000103369
0.00685275
0.00678891
0.00673933
0.00671254
0.00669915
0.0066778
0.00667673
0.0066708
0.00667202
0.00667184
0.00667425
0.00667635
0.00667939
0.00668243
0.0066859
0.00668944
0.00669331
0.00669727
0.00670156
0.00670598
0.0069358
0.00704652
0.00719231
0.00737784
0.00761361
0.00789751
0.0082475
0.00863975
0.00910228
0.00960346
0.0101796
0.0109058
0.0116444
0.0122651
0.0126968
0.0129317
0.0129653
0.0128036
0.0124469
0.0118765
0.0110124
0.00987099
0.00859443
0.00722646
0.00582966
0.0044964
0.00326665
0.00220968
0.00138682
0.000802637
0.000414085
0.000179377
9.06228e-05
0.000103664
0.00693682
0.00684834
0.00678199
0.0067352
0.00671015
0.00669786
0.00667649
0.00667629
0.00667064
0.00667188
0.00667198
0.00667429
0.00667652
0.0066795
0.00668257
0.00668601
0.00668954
0.00669338
0.00669732
0.00670159
0.00670599
0.00704872
0.00719652
0.00738595
0.00762759
0.00792235
0.00828776
0.00870533
0.00920812
0.00975973
0.0104164
0.0113271
0.0123228
0.0132063
0.0138099
0.014121
0.014189
0.0140386
0.013695
0.0131699
0.0124512
0.0114569
0.0102126
0.00885869
0.00742993
0.00598186
0.00460473
0.00334238
0.00225647
0.00141052
0.00081129
0.00041538
0.000178906
9.06382e-05
0.000103912
0.00705075
0.00693074
0.0068386
0.00677502
0.00673117
0.00670772
0.00669594
0.00667575
0.0066756
0.00667064
0.0066717
0.00667214
0.00667433
0.00667669
0.00667961
0.00668271
0.00668611
0.00668964
0.00669345
0.00669737
0.00670162
0.00670601
0.00720034
0.00739331
0.00764039
0.00794523
0.00832505
0.00876763
0.00930813
0.00991013
0.010666
0.0118046
0.0130945
0.014273
0.0151344
0.0155851
0.0156881
0.0155372
0.0151718
0.0146259
0.0139175
0.0130387
0.0119051
0.0105521
0.00911833
0.00762801
0.0061299
0.00470918
0.00341528
0.00230158
0.00143343
0.000819656
0.000416689
0.000178501
9.06492e-05
0.00010418
0.00720384
0.00704257
0.00691681
0.00682891
0.00676811
0.00672732
0.0067053
0.00669359
0.00667551
0.00667471
0.00667076
0.00667149
0.00667233
0.00667439
0.00667686
0.00667973
0.00668283
0.00668621
0.00668972
0.00669352
0.00669742
0.00670165
0.00670602
0.00739998
0.00765206
0.00796621
0.00835953
0.00882625
0.0094017
0.010057
0.0109333
0.0123268
0.0139093
0.0153581
0.0164671
0.0171478
0.0173777
0.0172512
0.0168792
0.0163032
0.0155595
0.0146692
0.0136285
0.0123525
0.0108877
0.00937242
0.00782032
0.00627335
0.00480966
0.00348523
0.00234497
0.00145552
0.000827742
0.000417773
0.000178208
9.06688e-05
0.000104471
0.007406
0.0071929
0.00702294
0.00690291
0.00681957
0.00676138
0.0067237
0.00670295
0.0066906
0.00667563
0.00667372
0.00667094
0.0066713
0.0066725
0.00667447
0.006677
0.00667985
0.00668295
0.00668632
0.00668981
0.00669359
0.00669747
0.00670168
0.00670602
0.0076627
0.00798537
0.00839132
0.0088809
0.00948904
0.0102026
0.0112162
0.0128679
0.0147058
0.016363
0.017658
0.0185406
0.0189962
0.0190194
0.0186961
0.0181373
0.0173809
0.0164623
0.0154049
0.0142099
0.0127939
0.0112171
0.00962007
0.0080065
0.00641187
0.00490614
0.00355228
0.00238658
0.00147675
0.000834499
0.000418742
0.000177864
9.06896e-05
0.000104786
0.0076723
0.00739186
0.00716544
0.0070033
0.00688937
0.00681061
0.00675498
0.00672032
0.00670137
0.00668729
0.00667592
0.00667273
0.00667111
0.00667117
0.00667265
0.00667457
0.00667714
0.00667998
0.00668306
0.00668642
0.00668989
0.00669366
0.00669752
0.00670169
0.00670602
0.00800283
0.00842054
0.00893143
0.00957083
0.0103479
0.0115075
0.0133994
0.0154355
0.0172269
0.0186328
0.0196484
0.0202913
0.0205572
0.0204272
0.0199623
0.0192658
0.0183707
0.0173099
0.0161086
0.0147733
0.0132246
0.0115384
0.00986043
0.00818622
0.0065452
0.00499851
0.0036161
0.00242635
0.00149442
0.000840315
0.000419798
0.000177558
9.07232e-05
0.000105131
0.00801841
0.00765405
0.00735413
0.00713799
0.00698409
0.00687626
0.00680194
0.00674889
0.00671705
0.00670013
0.00668396
0.00667622
0.00667187
0.00667122
0.0066711
0.00667277
0.00667468
0.00667726
0.00668011
0.00668317
0.00668653
0.00668997
0.00669372
0.00669754
0.00670169
0.00670602
0.00844734
0.00897792
0.00964786
0.0104927
0.0117971
0.0138986
0.0160719
0.0179291
0.0193771
0.0204555
0.0212144
0.0216716
0.0218073
0.021583
0.0210318
0.0202468
0.0192555
0.0180875
0.0167688
0.0153111
0.0136405
0.0118495
0.0100927
0.00835918
0.00667318
0.00508745
0.00367681
0.00245929
0.00150956
0.000846761
0.000421032
0.000177187
9.07561e-05
0.000105506
0.00847126
0.00799566
0.0076025
0.00731635
0.00711112
0.00696541
0.00686353
0.00679348
0.00674296
0.00671403
0.00669902
0.00668085
0.00667632
0.00667123
0.00667124
0.00667111
0.00667287
0.00667481
0.00667738
0.00668024
0.00668327
0.00668663
0.00669005
0.00669375
0.00669754
0.00670169
0.00670602
0.00902063
0.00972079
0.0106353
0.0120759
0.0143515
0.016607
0.0184755
0.0199121
0.0209952
0.0218033
0.0223764
0.022712
0.0227726
0.0225033
0.0219121
0.0210808
0.020031
0.0187885
0.0173788
0.015818
0.0140382
0.0121488
0.0103161
0.00852515
0.00679543
0.00517277
0.00372692
0.0024874
0.00152629
0.00085394
0.000422373
0.000176852
9.08065e-05
0.000105916
0.00905859
0.00844226
0.00792623
0.00755092
0.0072793
0.00708492
0.00694722
0.00685112
0.00678513
0.00673735
0.00671115
0.00669789
0.00667832
0.0066761
0.00667084
0.00667119
0.00667117
0.00667294
0.00667496
0.00667748
0.00668037
0.00668337
0.00668673
0.00669008
0.00669376
0.00669754
0.00670169
0.00670602
0.00979004
0.0107737
0.0123367
0.0147521
0.0170453
0.0188862
0.0202739
0.0213188
0.0221226
0.0227448
0.0232005
0.0234678
0.0234959
0.0232187
0.0226227
0.0217785
0.0207014
0.0194124
0.0179357
0.0162907
0.0144153
0.012435
0.0105301
0.00868394
0.00691197
0.00524361
0.0037696
0.00251837
0.00154483
0.000861924
0.000423953
0.000176446
9.08544e-05
0.00010636
0.00985321
0.00902256
0.00834875
0.00785661
0.00750033
0.00724313
0.00705939
0.0069295
0.00683901
0.00677687
0.00673222
0.00670829
0.00669645
0.00667684
0.00667557
0.00667067
0.00667108
0.00667127
0.006673
0.00667511
0.00667759
0.0066805
0.00668347
0.00668678
0.00669008
0.00669376
0.00669754
0.00670169
0.00670602
0.010906
0.0125775
0.0151005
0.0173978
0.0191853
0.0205001
0.0214779
0.0222385
0.0228576
0.0233664
0.0237578
0.0239957
0.0240216
0.0237625
0.0231872
0.022355
0.0212749
0.0199626
0.0184399
0.0167281
0.0147703
0.0127071
0.0107344
0.00883542
0.00700822
0.00530414
0.00381654
0.00255254
0.00156539
0.00087086
0.000425675
0.00017608
9.09276e-05
0.000106847
0.0110249
0.00980766
0.00889548
0.00825525
0.00778822
0.00745091
0.00720784
0.00703451
0.00691224
0.00682717
0.00676865
0.00672736
0.00670539
0.0066941
0.00667615
0.0066748
0.00667064
0.00667093
0.0066714
0.00667305
0.00667526
0.00667768
0.00668063
0.00668351
0.00668678
0.00669007
0.00669376
0.00669754
0.00670169
0.00670602
0.0127992
0.0153991
0.0176774
0.0193962
0.0206245
0.0215176
0.0222088
0.0227866
0.0232962
0.0237447
0.0241091
0.0243445
0.024389
0.024166
0.023629
0.0228269
0.0217621
0.0204446
0.0188933
0.0171299
0.0151025
0.0129646
0.0109286
0.00896045
0.00709021
0.00537094
0.00386825
0.00259031
0.00158825
0.000880834
0.000427708
0.000175647
9.09966e-05
0.000107372
0.0109744
0.0129926
0.00962142
0.00877059
0.00816322
0.00772136
0.00740263
0.00717341
0.00701029
0.00689545
0.00681566
0.00676063
0.00672278
0.00670269
0.00669114
0.00667598
0.00667394
0.00667071
0.00667078
0.00667155
0.00667311
0.00667541
0.00667778
0.0066807
0.00668349
0.00668678
0.00669007
0.00669375
0.00669754
0.00670168
0.00670601
0.015651
0.017897
0.0195393
0.0206746
0.0214735
0.022079
0.0225893
0.0230612
0.0235149
0.02394
0.0243027
0.024554
0.0246314
0.0244564
0.0239697
0.0232101
0.0221737
0.020865
0.019299
0.0174974
0.0154118
0.0132072
0.0110881
0.00906693
0.00718043
0.00544475
0.00392533
0.00263211
0.00161372
0.000892054
0.000429951
0.000175243
9.11023e-05
0.000107948
0.0106934
0.012935
0.0158587
0.00944285
0.00864857
0.00807303
0.00765602
0.00735549
0.00713987
0.00698675
0.00687918
0.00680459
0.00675281
0.00671877
0.00670067
0.00668789
0.00667607
0.00667308
0.0066708
0.00667064
0.0066717
0.00667316
0.00667556
0.00667781
0.0066807
0.00668349
0.00668677
0.00669007
0.00669375
0.00669752
0.00670165
0.006706
0.0180682
0.0196313
0.0206722
0.0213731
0.0218838
0.0223095
0.0227164
0.0231364
0.0235712
0.0239975
0.0243757
0.0246555
0.0247757
0.0246566
0.0242279
0.0235189
0.0225202
0.0212305
0.0196608
0.0178322
0.0156986
0.0134047
0.0112237
0.00918401
0.00727982
0.00552641
0.00398845
0.00267849
0.00164215
0.00090464
0.000432582
0.000174805
9.12035e-05
0.000108566
0.010414
0.0125509
0.0157757
0.0182018
0.00927397
0.00852888
0.00798478
0.00759218
0.00730954
0.00710727
0.00696394
0.00686349
0.00679427
0.00674568
0.00671521
0.00669926
0.00668473
0.00667621
0.0066723
0.0066709
0.00667053
0.00667184
0.00667322
0.00667564
0.00667779
0.0066807
0.00668348
0.00668677
0.00669007
0.00669372
0.00669747
0.00670161
0.00670599
0.0196854
0.0206336
0.0212365
0.0216486
0.0219798
0.0223031
0.0226606
0.0230658
0.0235063
0.0239506
0.0243561
0.0246735
0.0248434
0.0247856
0.0244194
0.0237661
0.022811
0.0215476
0.019983
0.0181363
0.0159285
0.0135715
0.0113721
0.0093128
0.00738945
0.0056169
0.00405839
0.00273003
0.00167396
0.000918868
0.000435555
0.000174352
9.13557e-05
0.000109246
0.0101512
0.0121283
0.0154188
0.0180825
0.0197086
0.00911236
0.00841125
0.00789857
0.00752991
0.00726486
0.00707568
0.00694192
0.00684859
0.00678473
0.00673924
0.00671205
0.00669809
0.00668189
0.00667627
0.00667166
0.00667097
0.00667045
0.00667198
0.00667322
0.00667565
0.00667777
0.00668069
0.00668348
0.00668676
0.00669003
0.00669365
0.00669742
0.00670158
0.00670598
0.0205709
0.0210787
0.021392
0.0216236
0.0218517
0.0221262
0.0224716
0.0228872
0.0233502
0.0238237
0.024265
0.0246271
0.024852
0.0248586
0.0245574
0.0239624
0.0230546
0.0218225
0.0202693
0.0183752
0.0161207
0.0137527
0.0115347
0.00945459
0.00751052
0.0057173
0.00413607
0.00278746
0.00170965
0.000934944
0.000438976
0.000173951
9.15095e-05
0.000109967
0.00990601
0.0117049
0.0149756
0.0178261
0.019537
0.0204847
0.00895578
0.00829581
0.00781451
0.00746929
0.00722155
0.00704516
0.00692093
0.0068348
0.00677596
0.00673341
0.00670924
0.00669699
0.00667954
0.00667616
0.00667117
0.00667101
0.00667041
0.00667206
0.00667318
0.00667565
0.00667777
0.00668068
0.00668349
0.0066867
0.00668995
0.00669358
0.00669737
0.00670155
0.00670597
0.0209098
0.021127
0.021258
0.0213844
0.0215621
0.0218251
0.0221844
0.0226276
0.0231241
0.0236349
0.0241188
0.0245313
0.0248153
0.0248882
0.0246528
0.0241171
0.0232583
0.0220607
0.0204893
0.0185725
0.0163272
0.0139495
0.0117127
0.00961073
0.00764438
0.00582886
0.00422252
0.00285159
0.0017498
0.000953181
0.000443007
0.000173431
9.17285e-05
0.000110762
0.00967582
0.0112981
0.014473
0.0174926
0.0193555
0.0202575
0.0207248
0.00880319
0.00818288
0.00773276
0.00741048
0.00717971
0.00701601
0.00690147
0.00682223
0.00676786
0.00672825
0.00670664
0.0066958
0.00667794
0.00667587
0.00667081
0.00667104
0.00667035
0.00667207
0.00667315
0.00667564
0.00667777
0.00668066
0.00668344
0.0066866
0.00668987
0.00669351
0.00669732
0.00670151
0.00670596
0.0208623
0.0208946
0.020917
0.0209897
0.021154
0.0214323
0.0218236
0.0223057
0.0228432
0.0233974
0.0239301
0.0243981
0.0247444
0.0248844
0.0247145
0.0242377
0.0234284
0.0222389
0.0206691
0.0187817
0.0165486
0.0141629
0.0119075
0.0097827
0.00779254
0.005953
0.00431898
0.00292341
0.00179508
0.000974021
0.000447474
0.000173142
9.19733e-05
0.000111593
0.00945799
0.0109142
0.0139379
0.017108
0.0191096
0.0201121
0.0204429
0.0205888
0.00865436
0.00807277
0.00765352
0.00735363
0.00713973
0.00698899
0.00688377
0.00681073
0.00676037
0.00672382
0.00670415
0.00669401
0.00667696
0.00667544
0.00667058
0.00667103
0.00667028
0.00667207
0.00667313
0.00667562
0.00667778
0.00668058
0.00668333
0.00668649
0.00668978
0.00669344
0.00669726
0.00670148
0.00670595
0.0205413
0.0204609
0.0204246
0.0204797
0.0206582
0.020971
0.0214063
0.0219346
0.0225185
0.0231218
0.023709
0.0242372
0.024648
0.0248552
0.0247496
0.0243305
0.0235501
0.0223826
0.0208567
0.0190025
0.0167854
0.0143938
0.0121203
0.0099721
0.00795665
0.00609134
0.00442684
0.00300407
0.00184638
0.000997675
0.000453079
0.000172529
9.22868e-05
0.000112672
0.0092507
0.0105559
0.0133835
0.0166782
0.0188245
0.0199142
0.0203041
0.0202537
0.0201887
0.00850944
0.00796586
0.007577
0.0072993
0.00710267
0.00696442
0.00686764
0.00680022
0.00675334
0.00671987
0.00670191
0.00669173
0.00667642
0.00667495
0.00667047
0.00667097
0.00667024
0.00667206
0.00667313
0.00667559
0.00667773
0.00668044
0.00668323
0.00668639
0.00668969
0.00669336
0.00669721
0.00670144
0.00670594
0.0200231
0.0198781
0.019818
0.0198837
0.0200967
0.020457
0.0209439
0.0215229
0.022158
0.0228162
0.0234637
0.0240564
0.0245334
0.0248072
0.0247641
0.0243897
0.0236464
0.0225296
0.0210514
0.0192346
0.0170376
0.014643
0.0123526
0.0101806
0.00813852
0.00624565
0.00454774
0.0030949
0.00190452
0.00102518
0.000458954
0.000172471
9.2774e-05
0.000113945
0.00905285
0.010224
0.0128176
0.0162045
0.0185115
0.0196908
0.0201215
0.0201026
0.0198029
0.0195987
0.00836854
0.0078626
0.00750392
0.00724894
0.00706902
0.00694209
0.00685296
0.00679065
0.00674684
0.00671646
0.00670014
0.00668927
0.00667614
0.00667453
0.00667047
0.00667093
0.00667021
0.00667203
0.00667315
0.00667548
0.00667762
0.0066803
0.00668311
0.00668628
0.0066896
0.00669329
0.00669715
0.0067014
0.00670593
0.0193571
0.0191806
0.0191256
0.0192234
0.0194846
0.0199013
0.0204428
0.0210768
0.0217676
0.0224874
0.0232014
0.023862
0.0244062
0.0247453
0.0247605
0.0244342
0.0237418
0.022679
0.0212525
0.0194775
0.0173053
0.0149112
0.0126054
0.0104097
0.00834008
0.00641796
0.00468361
0.0031971
0.00197091
0.00105626
0.000466949
0.000171635
9.33411e-05
0.000115225
0.00886462