/*--------------------------------*- C++ -*----------------------------------*\
  =========                 |
  \\      /  F ield         | OpenFOAM: The Open Source CFD Toolbox
   \\    /   O peration     | Website:  https://openfoam.org
    \\  /    A nd           | Version:  8
     \\/     M anipulation  |
\*---------------------------------------------------------------------------*/
FoamFile
{
    version     2.0;
    format      ascii;
    class       volVectorField;
    location    "0.4";
    object      U;
}
// * * * * * * * * * * * * * * * * * * * * * * * * * * * * * * * * * * * * * //

dimensions      [0 1 -1 0 0 0 0];

internalField   nonuniform List<vector> 
15677
(
(-0.0199298 9.66509 0)
(0.0435643 9.92085 0)
(0.00237112 9.37834 0)
(0.0147252 9.97648 0)
(0.0185828 9.78801 0)
(0.00699955 9.14329 0)
(0.0279463 9.99434 0)
(0.0170563 9.92502 0)
(0.0106908 9.65583 0)
(0.00605755 8.96179 0)
(0.0260853 10.0015 0)
(0.0214331 9.97876 0)
(0.0163145 9.85421 0)
(0.00896732 9.532 0)
(0.00487954 8.81938 0)
(0.0249256 10.0047 0)
(0.0222804 10.0029 0)
(0.0190629 9.94368 0)
(0.0152687 9.7809 0)
(0.00782293 9.42207 0)
(0.00401025 8.70575 0)
(0.0239382 10.0062 0)
(0.0224347 10.0145 0)
(0.0206305 9.98685 0)
(0.0181255 9.90394 0)
(0.0137804 9.71044 0)
(0.00674924 9.32495 0)
(0.00334434 8.61426 0)
(0.0225962 10.0067 0)
(0.0222313 10.0201 0)
(0.0214095 10.0088 0)
(0.0199652 9.9665 0)
(0.0168644 9.86436 0)
(0.0123474 9.64431 0)
(0.00580563 9.24062 0)
(0.00278957 8.54086 0)
(0.0209049 10.0067 0)
(0.0216568 10.0224 0)
(0.0216786 10.0203 0)
(0.0209908 9.99962 0)
(0.0188339 9.94619 0)
(0.0154716 9.82585 0)
(0.0109919 9.58398 0)
(0.00493909 9.16903 0)
(0.00228175 8.48277 0)
(0.0189797 10.0063 0)
(0.0207877 10.0227 0)
(0.0215014 10.0263 0)
(0.0214155 10.0178 0)
(0.0199282 9.99065 0)
(0.0174581 9.92636 0)
(0.0140125 9.78979 0)
(0.00962139 9.5308 0)
(0.00409172 9.10991 0)
(0.00178264 8.43843 0)
(0.0168941 10.0057 0)
(0.0196702 10.0219 0)
(0.0209753 10.0292 0)
(0.0213551 10.0278 0)
(0.0203797 10.0156 0)
(0.0185228 9.98218 0)
(0.0159254 9.90808 0)
(0.0124192 9.75759 0)
(0.00817174 9.48568 0)
(0.00321809 9.063 0)
(0.00126375 8.40684 0)
(0.0147059 10.005 0)
(0.0183252 10.0204 0)
(0.0201245 10.0299 0)
(0.0209338 10.0332 0)
(0.0203263 10.0298 0)
(0.0188881 10.014 0)
(0.0168686 9.97509 0)
(0.0141528 9.89246 0)
(0.0106258 9.73035 0)
(0.00659368 9.44934 0)
(0.00227823 9.0282 0)
(0.000702599 8.38768 0)
(0.0123889 10.0043 0)
(0.0168066 10.0184 0)
(0.0189713 10.0292 0)
(0.0201545 10.0357 0)
(0.0198283 10.0379 0)
(0.0187056 10.0325 0)
(0.0170532 10.0137 0)
(0.0148697 9.97034 0)
(0.0120577 9.88048 0)
(0.0085721 9.70906 0)
(0.00483743 9.4225 0)
(0.00123938 9.00555 0)
(6.17054e-05 8.38069 0)
(0.0100925 10.0036 0)
(0.0152227 10.0162 0)
(0.0175449 10.0275 0)
(0.0190362 10.0361 0)
(0.0189764 10.042 0)
(0.0180573 10.0432 0)
(0.0166374 10.0363 0)
(0.0147634 10.0156 0)
(0.0124276 9.96877 0)
(0.00956345 9.87304 0)
(0.00619482 9.69475 0)
(0.00285734 9.40577 0)
(8.95972e-05 8.99517 0)
(-0.000556524 8.38583 0)
(0.00812459 10.0029 0)
(0.0135298 10.0138 0)
(0.015903 10.0252 0)
(0.0175902 10.035 0)
(0.0177615 10.0436 0)
(0.0169975 10.0491 0)
(0.0157108 10.0497 0)
(0.0139928 10.0424 0)
(0.0119014 10.0205 0)
(0.00944499 9.9712 0)
(0.00658825 9.8711 0)
(0.00343313 9.68834 0)
(0.000609167 9.39975 0)
(-0.00122 8.99732 0)
(-0.00130113 8.40315 0)
(0.00655874 10.0023 0)
(0.0118802 10.0116 0)
(0.0140758 10.0224 0)
(0.0158285 10.0329 0)
(0.0161891 10.0432 0)
(0.0155372 10.0518 0)
(0.0143166 10.0574 0)
(0.012649 10.0583 0)
(0.0106341 10.0513 0)
(0.00834869 10.0292 0)
(0.00581682 9.97848 0)
(0.00305255 9.87562 0)
(0.000216158 9.69077 0)
(-0.00194777 9.40504 0)
(-0.00270207 9.01213 0)
(-0.00214002 8.43287 0)
(0.00529826 10.0018 0)
(0.010374 10.0097 0)
(0.0122737 10.0197 0)
(0.0137784 10.0301 0)
(0.0142608 10.0414 0)
(0.0136794 10.0522 0)
(0.0124694 10.0612 0)
(0.0107726 10.0676 0)
(0.00871458 10.0697 0)
(0.00641926 10.0637 0)
(0.00397576 10.0424 0)
(0.00144707 9.9915 0)
(-0.00110416 9.88756 0)
(-0.00344286 9.70285 0)
(-0.00481241 9.42212 0)
(-0.00435431 9.0398 0)
(-0.00306734 8.475 0)
(0.00431297 10.0015 0)
(0.00896669 10.008 0)
(0.0106255 10.0172 0)
(0.011703 10.0271 0)
(0.0119882 10.0386 0)
(0.0114235 10.0508 0)
(0.0101691 10.0623 0)
(0.00837522 10.0725 0)
(0.00617957 10.0805 0)
(0.00373981 10.0845 0)
(0.00119376 10.0806 0)
(-0.0013427 10.061 0)
(-0.00377589 10.0111 0)
(-0.00597408 9.90778 0)
(-0.00763174 9.72532 0)
(-0.00802923 9.45137 0)
(-0.00618373 9.08033 0)
(-0.00407945 8.52951 0)
(0.0034919 10.0012 0)
(0.0076371 10.0067 0)
(0.009084 10.0151 0)
(0.00978009 10.0244 0)
(0.00964865 10.0354 0)
(0.00877587 10.0481 0)
(0.00741255 10.0613 0)
(0.00545324 10.0742 0)
(0.00303511 10.0863 0)
(0.000339816 10.0968 0)
(-0.00246144 10.1035 0)
(-0.00520884 10.1025 0)
(-0.00774206 10.0857 0)
(-0.00992781 10.0383 0)
(-0.0115906 9.93711 0)
(-0.0123767 9.75875 0)
(-0.0116084 9.493 0)
(-0.00819429 9.13377 0)
(-0.00517336 8.5962 0)
(0.00281888 10.001 0)
(0.0064367 10.0056 0)
(0.0076396 10.0132 0)
(0.00796798 10.0219 0)
(0.00745173 10.0323 0)
(0.00604834 10.0446 0)
(0.00420334 10.0586 0)
(0.00199735 10.0735 0)
(-0.00072601 10.0886 0)
(-0.00378234 10.1034 0)
(-0.00696966 10.117 0)
(-0.0100865 10.1275 0)
(-0.012931 10.1304 0)
(-0.0153156 10.1175 0)
(-0.0170693 10.0736 0)
(-0.017982 9.97621 0)
(-0.0176785 9.80359 0)
(-0.0155421 9.54712 0)
(-0.0103713 9.19982 0)
(-0.00633721 8.67466 0)
(0.00226392 10.0008 0)
(0.0053483 10.0047 0)
(0.00630721 10.0116 0)
(0.00627284 10.0196 0)
(0.00536461 10.0293 0)
(0.00348622 10.0411 0)
(0.000913461 10.0548 0)
(-0.00198024 10.0707 0)
(-0.00511127 10.088 0)
(-0.00863935 10.106 0)
(-0.0123389 10.1244 0)
(-0.0159749 10.1421 0)
(-0.0193074 10.1571 0)
(-0.0221033 10.165 0)
(-0.024147 10.157 0)
(-0.0252421 10.1179 0)
(-0.0251572 10.0256 0)
(-0.023524 9.86005 0)
(-0.0198111 9.6136 0)
(-0.0127049 9.27822 0)
(-0.00756242 8.76439 0)
(0.00182096 10.0007 0)
(0.00436143 10.004 0)
(0.00507751 10.0102 0)
(0.00470112 10.0176 0)
(0.00340641 10.0266 0)
(0.00105469 10.0376 0)
(-0.0021609 10.0509 0)
(-0.00602244 10.0666 0)
(-0.0101119 10.085 0)
(-0.0142404 10.1054 0)
(-0.0185924 10.1272 0)
(-0.0229006 10.15 0)
(-0.0268887 10.1728 0)
(-0.0302845 10.1933 0)
(-0.0328292 10.207 0)
(-0.0342904 10.2049 0)
(-0.0344588 10.1716 0)
(-0.0331005 10.0856 0)
(-0.0298836 9.92817 0)
(-0.0243826 9.69219 0)
(-0.015162 9.36827 0)
(-0.00882658 8.86452 0)
(0.00147896 10.0006 0)
(0.00351045 10.0035 0)
(0.00394722 10.009 0)
(0.00325346 10.0158 0)
(0.00158913 10.024 0)
(-0.00121443 10.0343 0)
(-0.00505971 10.0468 0)
(-0.00978461 10.062 0)
(-0.0151592 10.0803 0)
(-0.0205753 10.102 0)
(-0.0257438 10.1264 0)
(-0.0308978 10.1528 0)
(-0.0357215 10.1809 0)
(-0.0399021 10.2096 0)
(-0.0431439 10.2366 0)
(-0.0451761 10.257 0)
(-0.0457627 10.2616 0)
(-0.0446983 10.2351 0)
(-0.0417705 10.1564 0)
(-0.0367066 10.0078 0)
(-0.0292085 9.78233 0)
(-0.0177203 9.46935 0)
(-0.0101116 8.97426 0)
(0.00121146 10.0005 0)
(0.0028139 10.003 0)
(0.00295793 10.008 0)
(0.00192989 10.0141 0)
(-7.90419e-05 10.0217 0)
(-0.00330317 10.0311 0)
(-0.00774891 10.0428 0)
(-0.0133119 10.0572 0)
(-0.0198266 10.075 0)
(-0.0269265 10.0966 0)
(-0.0337782 10.1224 0)
(-0.0399851 10.1517 0)
(-0.0458547 10.1837 0)
(-0.0510277 10.218 0)
(-0.055167 10.2535 0)
(-0.0579691 10.2877 0)
(-0.0591674 10.3155 0)
(-0.05854 10.3276 0)
(-0.055907 10.3086 0)
(-0.0510969 10.2379 0)
(-0.0439203 10.0984 0)
(-0.0342316 9.88336 0)
(-0.0203205 9.58037 0)
(-0.0113772 9.09196 0)
(0.000997763 10.0004 0)
(0.00224598 10.0027 0)
(0.00213464 10.0072 0)
(0.00077999 10.0127 0)
(-0.00159303 10.0195 0)
(-0.00520382 10.0281 0)
(-0.0102023 10.0389 0)
(-0.0165598 10.0523 0)
(-0.0241766 10.0693 0)
(-0.0327666 10.0903 0)
(-0.0417886 10.116 0)
(-0.0501428 10.1468 0)
(-0.0573151 10.1819 0)
(-0.0637308 10.2204 0)
(-0.0690025 10.2618 0)
(-0.0727876 10.3049 0)
(-0.0747936 10.347 0)
(-0.0747781 10.3829 0)
(-0.0725563 10.4031 0)
(-0.0679926 10.3921 0)
(-0.0609802 10.3298 0)
(-0.051435 10.1996 0)
(-0.0393383 9.99434 0)
(-0.02285 9.69998 0)
(-0.0121884 9.21589 0)
(0.000824017 10.0004 0)
(0.00178031 10.0024 0)
(0.00144932 10.0065 0)
(-0.00016744 10.0115 0)
(-0.00289212 10.0175 0)
(-0.00690601 10.0252 0)
(-0.0124032 10.0351 0)
(-0.0194939 10.0475 0)
(-0.0281534 10.0633 0)
(-0.0381808 10.0833 0)
(-0.0491225 10.1084 0)
(-0.0602283 10.1391 0)
(-0.0700791 10.1758 0)
(-0.0780507 10.2177 0)
(-0.0847471 10.2636 0)
(-0.0897752 10.3129 0)
(-0.092809 10.3643 0)
(-0.0935906 10.4149 0)
(-0.0919296 10.4593 0)
(-0.0876995 10.4879 0)
(-0.0808299 10.4852 0)
(-0.0712964 10.4315 0)
(-0.0591026 10.3103 0)
(-0.0444718 10.114 0)
(-0.0253266 9.82789 0)
(-0.0130325 9.34601 0)
(0.000684663 10.0003 0)
(0.00139682 10.0022 0)
(0.00088247 10.0059 0)
(-0.000942252 10.0104 0)
(-0.0039447 10.0158 0)
(-0.00834017 10.0226 0)
(-0.0143389 10.0314 0)
(-0.0220893 10.0426 0)
(-0.0317125 10.0572 0)
(-0.0430997 10.076 0)
(-0.0558931 10.0999 0)
(-0.0694338 10.1299 0)
(-0.0827174 10.1665 0)
(-0.0939624 10.2102 0)
(-0.102458 10.2598 0)
(-0.109062 10.314 0)
(-0.113405 10.3719 0)
(-0.115206 10.4322 0)
(-0.114274 10.4916 0)
(-0.110494 10.5448 0)
(-0.103816 10.582 0)
(-0.0942544 10.5877 0)
(-0.081856 10.5423 0)
(-0.0667678 10.4296 0)
(-0.0487433 10.2417 0)
(-0.0213314 9.95751 0)
(-0.00779632 9.41942 0)
(0.00056839 10.0003 0)
(0.00107523 10.002 0)
(0.000408365 10.0055 0)
(-0.00158118 10.0096 0)
(-0.00478915 10.0144 0)
(-0.00947632 10.0204 0)
(-0.0159307 10.0279 0)
(-0.0243289 10.0379 0)
(-0.0348205 10.0511 0)
(-0.0474669 10.0684 0)
(-0.0620152 10.0908 0)
(-0.0779074 10.1195 0)
(-0.0942306 10.1553 0)
(-0.109691 10.1988 0)
(-0.122109 10.2505 0)
(-0.130729 10.3088 0)
(-0.136757 10.372 0)
(-0.139877 10.4392 0)
(-0.139889 10.5087 0)
(-0.136695 10.5773 0)
(-0.130282 10.6393 0)
(-0.120701 10.6849 0)
(-0.108038 10.6988 0)
(-0.0924484 10.6613 0)
(-0.0738513 10.5565 0)
(-0.0528415 10.3741 0)
(-0.0165816 10.1171 0)
(-0.000243551 9.47216 0)
(0.000469576 10.0003 0)
(0.000809625 10.0019 0)
(1.00223e-05 10.0051 0)
(-0.00210619 10.0088 0)
(-0.00546784 10.0132 0)
(-0.0103642 10.0184 0)
(-0.0171535 10.0249 0)
(-0.0261213 10.0334 0)
(-0.0374534 10.045 0)
(-0.0512384 10.0607 0)
(-0.0674175 10.0814 0)
(-0.0855447 10.1083 0)
(-0.104811 10.1427 0)
(-0.124009 10.1854 0)
(-0.141525 10.2368 0)
(-0.154764 10.2975 0)
(-0.162984 10.3653 0)
(-0.16783 10.4381 0)
(-0.169087 10.5149 0)
(-0.166676 10.5939 0)
(-0.160627 10.6716 0)
(-0.151049 10.7423 0)
(-0.138087 10.7961 0)
(-0.121914 10.8177 0)
(-0.102535 10.7876 0)
(-0.079862 10.6897 0)
(-0.0559177 10.5193 0)
(-0.0179093 10.2773 0)
(0.00422697 9.51549 0)
(0.000382342 10.0003 0)
(0.000584774 10.0018 0)
(-0.000325646 10.0048 0)
(-0.00253975 10.0082 0)
(-0.00601267 10.0121 0)
(-0.0110548 10.0167 0)
(-0.0180731 10.0223 0)
(-0.0274484 10.0295 0)
(-0.0395036 10.0392 0)
(-0.0543812 10.0529 0)
(-0.072042 10.0716 0)
(-0.0922555 10.0965 0)
(-0.114332 10.1289 0)
(-0.137161 10.17 0)
(-0.159201 10.2206 0)
(-0.17852 10.281 0)
(-0.192079 10.3515 0)
(-0.19922 10.4296 0)
(-0.202159 10.5126 0)
(-0.200833 10.5993 0)
(-0.195318 10.6877 0)
(-0.185793 10.7744 0)
(-0.172492 10.8534 0)
(-0.155658 10.9149 0)
(-0.135381 10.9435 0)
(-0.111572 10.9204 0)
(-0.0843513 10.83 0)
(-0.0565515 10.6764 0)
(-0.0208928 10.4332 0)
(0.00530796 9.55757 0)
(0.000309355 10.0003 0)
(0.000397014 10.0017 0)
(-0.000606948 10.0045 0)
(-0.00289886 10.0076 0)
(-0.00645055 10.0112 0)
(-0.0115892 10.0152 0)
(-0.0187544 10.02 0)
(-0.028398 10.026 0)
(-0.0409627 10.034 0)
(-0.0567669 10.0454 0)
(-0.0758447 10.0617 0)
(-0.0979652 10.0843 0)
(-0.122678 10.1143 0)
(-0.14899 10.1532 0)
(-0.175448 10.202 0)
(-0.200169 10.2616 0)
(-0.220865 10.332 0)
(-0.234077 10.4132 0)
(-0.23933 10.5021 0)
(-0.239543 10.5955 0)
(-0.234846 10.6922 0)
(-0.225502 10.7899 0)
(-0.211851 10.8851 0)
(-0.194254 10.9719 0)
(-0.172954 11.0404 0)
(-0.148009 11.0757 0)
(-0.119768 11.0593 0)
(-0.0884089 10.9775 0)
(-0.0574147 10.8398 0)
(-0.0231233 10.5837 0)
(0.00496562 9.61233 0)
(0.000247138 10.0003 0)
(0.000237963 10.0016 0)
(-0.000845001 10.0042 0)
(-0.00319696 10.0072 0)
(-0.00680289 10.0104 0)
(-0.0120003 10.0139 0)
(-0.0192499 10.0179 0)
(-0.0290545 10.0229 0)
(-0.0419472 10.0294 0)
(-0.0583993 10.0387 0)
(-0.0786693 10.0522 0)
(-0.102615 10.0718 0)
(-0.129754 10.0991 0)
(-0.159354 10.1353 0)
(-0.190075 10.1817 0)
(-0.220097 10.2394 0)
(-0.247147 10.3089 0)
(-0.268626 10.3902 0)
(-0.280669 10.4828 0)
(-0.283104 10.5829 0)
(-0.279682 10.687 0)
(-0.27077 10.7934 0)
(-0.256843 10.9 0)
(-0.238404 11.0032 0)
(-0.215894 11.0971 0)
(-0.189594 11.1721 0)
(-0.159963 11.2137 0)
(-0.127809 11.2035 0)
(-0.0931561 11.1312 0)
(-0.0590015 11.0046 0)
(-0.025375 10.7459 0)
(0.00395214 9.67634 0)
(0.0001945 10.0002 0)
(0.000102251 10.0015 0)
(-0.00104845 10.004 0)
(-0.00344555 10.0068 0)
(-0.00708683 10.0097 0)
(-0.0123146 10.0128 0)
(-0.0196016 10.0162 0)
(-0.029486 10.0202 0)
(-0.042567 10.0254 0)
(-0.0594317 10.0327 0)
(-0.0805338 10.0435 0)
(-0.106011 10.0597 0)
(-0.135482 10.0835 0)
(-0.168132 10.1165 0)
(-0.202905 10.1598 0)
(-0.238072 10.2149 0)
(-0.271398 10.2826 0)
(-0.300248 10.3632 0)
(-0.321743 10.4561 0)
(-0.331644 10.5606 0)
(-0.330212 10.6722 0)
(-0.322174 10.7868 0)
(-0.308171 10.9026 0)
(-0.288899 11.0176 0)
(-0.265008 11.128 0)
(-0.237042 11.2284 0)
(-0.205606 11.3094 0)
(-0.171599 11.3566 0)
(-0.136014 11.3521 0)
(-0.0985793 11.2882 0)
(-0.0617321 11.1874 0)
(-0.0277787 10.9195 0)
(0.00242801 9.74826 0)
(0.000149268 10.0002 0)
(-1.22864e-05 10.0014 0)
(-0.00122276 10.0038 0)
(-0.00365372 10.0064 0)
(-0.00731603 10.0091 0)
(-0.0125529 10.0118 0)
(-0.0198427 10.0146 0)
(-0.0297465 10.0178 0)
(-0.0429104 10.0218 0)
(-0.0600066 10.0274 0)
(-0.081638 10.0358 0)
(-0.108189 10.0487 0)
(-0.139621 10.0683 0)
(-0.175219 10.0971 0)
(-0.213782 10.1369 0)
(-0.253878 10.1886 0)
(-0.293338 10.2535 0)
(-0.32952 10.3323 0)
(-0.359452 10.4248 0)
(-0.380013 10.53 0)
(-0.38665 10.6468 0)
(-0.380215 10.7699 0)
(-0.36654 10.8946 0)
(-0.346565 11.0193 0)
(-0.321208 11.1419 0)
(-0.291283 11.259 0)
(-0.257619 11.3651 0)
(-0.221203 11.4512 0)
(-0.183154 11.5031 0)
(-0.14432 11.5031 0)
(-0.104803 11.4652 0)
(-0.0653152 11.3863 0)
(-0.0302647 11.0871 0)
(0.000759018 9.82638 0)
(0.000110218 10.0002 0)
(-0.000111309 10.0014 0)
(-0.00137417 10.0036 0)
(-0.00382862 10.0061 0)
(-0.00750131 10.0085 0)
(-0.0127319 10.0109 0)
(-0.0199995 10.0132 0)
(-0.0298789 10.0157 0)
(-0.0430474 10.0186 0)
(-0.0602384 10.0226 0)
(-0.0821657 10.0289 0)
(-0.109403 10.0388 0)
(-0.142219 10.0543 0)
(-0.180313 10.0781 0)
(-0.222571 10.113 0)
(-0.267318 10.1607 0)
(-0.312701 10.222 0)
(-0.356107 10.298 0)
(-0.394492 10.3889 0)
(-0.424578 10.4941 0)
(-0.443079 10.6121 0)
(-0.445217 10.7414 0)
(-0.432588 10.8757 0)
(-0.412247 11.01 0)
(-0.385451 11.143 0)
(-0.353359 11.2724 0)
(-0.317057 11.3952 0)
(-0.277717 11.5062 0)
(-0.236554 11.5966 0)
(-0.194619 11.6515 0)
(-0.153312 11.6733 0)
(-0.111526 11.6602 0)
(-0.0691696 11.5798 0)
(-0.0326249 11.2487 0)
(-0.000864718 9.9086 0)
(-0.000197681 10.0013 0)
(6.49908e-05 10.0002 0)
(-0.00150533 10.0035 0)
(-0.00397646 10.0058 0)
(-0.0076511 10.0081 0)
(-0.0128647 10.0101 0)
(-0.0200927 10.012 0)
(-0.0299164 10.0138 0)
(-0.0430331 10.0158 0)
(-0.0602176 10.0185 0)
(-0.0822643 10.0227 0)
(-0.109891 10.0299 0)
(-0.143603 10.0418 0)
(-0.183476 10.0607 0)
(-0.228888 10.0895 0)
(-0.278217 10.1317 0)
(-0.329242 10.1886 0)
(-0.379684 10.2608 0)
(-0.426466 10.3489 0)
(-0.466172 10.4529 0)
(-0.495284 10.5715 0)
(-0.510455 10.7025 0)
(-0.506774 10.8441 0)
(-0.486738 10.9892 0)
(-0.458739 11.1326 0)
(-0.424366 11.2728 0)
(-0.385079 11.4083 0)
(-0.342288 11.5359 0)
(-0.29739 11.6508 0)
(-0.251613 11.7436 0)
(-0.207032 11.8181 0)
(-0.162775 11.8612 0)
(-0.117893 11.8516 0)
(-0.0729665 11.7667 0)
(-0.0347574 11.4038 0)
(-0.00233817 9.99307 0)
(-0.00162164 10.0034 0)
(-0.000293276 10.0013 0)
(1.14014e-05 10.0002 0)
(-0.00410332 10.0056 0)
(-0.00777261 10.0076 0)
(-0.0129611 10.0095 0)
(-0.0201381 10.011 0)
(-0.0298852 10.0122 0)
(-0.0429103 10.0133 0)
(-0.0600152 10.0147 0)
(-0.0820504 10.0173 0)
(-0.109839 10.022 0)
(-0.14407 10.0305 0)
(-0.185115 10.0449 0)
(-0.232803 10.068 0)
(-0.286087 10.103 0)
(-0.342736 10.1537 0)
(-0.399946 10.2212 0)
(-0.454984 10.3055 0)
(-0.504328 10.4069 0)
(-0.544246 10.5247 0)
(-0.571078 10.657 0)
(-0.581531 10.8012 0)
(-0.570667 10.9548 0)
(-0.542041 11.11 0)
(-0.505481 11.2615 0)
(-0.462936 11.4082 0)
(-0.416197 11.5486 0)
(-0.36691 11.68 0)
(-0.316529 11.7971 0)
(-0.267815 11.9086 0)
(-0.219979 12.0019 0)
(-0.171581 12.0465 0)
(-0.12374 12.0377 0)
(-0.0765017 11.9459 0)
(-0.0366345 11.5521 0)
(-0.00366054 10.0781 0)
(-0.00421713 10.0054 0)
(-0.00173899 10.0032 0)
(-0.000405656 10.0012 0)
(-4.04451e-05 10.0002 4.50963e-20)
(-0.00787326 10.0073 0)
(-0.0130296 10.0089 0)
(-0.0201479 10.01 0)
(-0.0298054 10.0107 0)
(-0.0427124 10.0111 0)
(-0.0596864 10.0115 0)
(-0.0816153 10.0125 0)
(-0.109398 10.015 0)
(-0.14386 10.0205 0)
(-0.185602 10.0308 0)
(-0.234818 10.0484 0)
(-0.290996 10.0766 0)
(-0.352564 10.119 0)
(-0.416609 10.1795 0)
(-0.479671 10.2589 0)
(-0.538583 10.3566 0)
(-0.589427 10.4722 0)
(-0.628237 10.6045 0)
(-0.65133 10.7509 0)
(-0.655599 10.908 0)
(-0.636191 11.073 0)
(-0.597872 11.2376 0)
(-0.551988 11.3961 0)
(-0.500856 11.5481 0)
(-0.446527 11.6923 0)
(-0.390749 11.8259 0)
(-0.337001 11.9613 0)
(-0.284615 12.0905 0)
(-0.23188 12.183 0)
(-0.179593 12.2272 0)
(-0.128955 12.2169 0)
(-0.079666 12.1169 0)
(-0.0382285 11.6933 0)
(-0.00484674 10.1624 0)
(-0.00796481 10.007 0)
(-0.00431313 10.0051 0)
(-0.00186879 10.003 2.05215e-19)
(-0.000513751 10.0011 -1.42974e-19)
(-8.852e-05 10.0002 -8.85153e-20)
(-0.0130789 10.0083 0)
(-0.0201316 10.0092 0)
(-0.0296915 10.0094 0)
(-0.0424645 10.0091 0)
(-0.0592736 10.0086 0)
(-0.0810298 10.0082 0)
(-0.108684 10.0088 0)
(-0.143162 10.0115 0)
(-0.185239 10.0181 0)
(-0.235394 10.0308 0)
(-0.293554 10.0525 0)
(-0.358775 10.0869 0)
(-0.428886 10.1381 0)
(-0.500168 10.2098 0)
(-0.568482 10.3025 0)
(-0.630279 10.4147 0)
(-0.681316 10.5454 0)
(-0.717509 10.6926 0)
(-0.735289 10.8531 0)
(-0.731875 11.0227 0)
(-0.70262 11.1982 0)
(-0.653633 11.371 0)
(-0.597832 11.5355 0)
(-0.53783 11.6917 0)
(-0.475827 11.8381 0)
(-0.416164 11.9898 0)
(-0.358173 12.1425 0)
(-0.299956 12.2696 0)
(-0.242601 12.3597 0)
(-0.186706 12.4018 0)
(-0.133488 12.3885 0)
(-0.0824054 12.2793 0)
(-0.039533 11.8274 0)
(-0.00588595 10.2448 0)
(-0.013126 10.0079 0)
(-0.00800759 10.0066 -4.63529e-19)
(-0.00440021 10.0048 -2.16852e-19)
(-0.00199398 10.0028 1.00719e-19)
(-0.000619261 10.001 -9.35238e-20)
(-0.000133968 10.0002 0)
(-0.0200991 10.0085 0)
(-0.0295547 10.0083 0)
(-0.042185 10.0074 0)
(-0.058809 10.006 0)
(-0.0803484 10.0044 0)
(-0.107789 10.0032 0)
(-0.142125 10.0036 0)
(-0.184264 10.0068 0)
(-0.234905 10.015 0)
(-0.294324 10.0308 0)
(-0.3621 10.0577 0)
(-0.436789 10.0995 0)
(-0.515482 10.1608 0)
(-0.593577 10.2452 0)
(-0.666262 10.3526 0)
(-0.729683 10.4804 0)
(-0.77938 10.6268 0)
(-0.811289 10.7891 0)
(-0.822107 10.9633 0)
(-0.809532 11.1447 0)
(-0.769227 11.3298 0)
(-0.708758 11.5096 0)
(-0.642594 11.6788 0)
(-0.573536 11.8374 0)
(-0.507008 12.0021 0)
(-0.44242 12.1709 0)
(-0.377464 12.3209 0)
(-0.313715 12.4445 0)
(-0.252054 12.5307 0)
(-0.192873 12.5694 0)
(-0.137334 12.5517 0)
(-0.0847116 12.4331 0)
(-0.0405692 11.9541 0)
(-0.00677998 10.3244 0)
(-0.0200755 10.0078 0)
(-0.0130782 10.0073 9.7952e-19)
(-0.00799936 10.0061 0)
(-0.00448324 10.0044 2.12773e-19)
(-0.00211164 10.0026 4.1332e-23)
(-0.000720647 10.0009 0)
(-0.000177201 10.0001 0)
(-0.0294061 10.0073 0)
(-0.0418867 10.0059 0)
(-0.0583154 10.0037 0)
(-0.0796121 10.001 0)
(-0.10678 9.99835 0)
(-0.140864 9.9965 0)
(-0.182864 9.99675 0)
(-0.233647 10.0009 0)
(-0.293765 10.0114 0)
(-0.36322 10.0312 0)
(-0.441178 10.0643 0)
(-0.525558 10.115 0)
(-0.612625 10.1878 0)
(-0.696822 10.2865 0)
(-0.772698 10.4098 0)
(-0.836222 10.554 0)
(-0.882846 10.7166 0)
(-0.908691 10.8939 0)
(-0.910877 11.0812 0)
(-0.887722 11.2734 0)
(-0.835301 11.4669 0)
(-0.7627 11.6523 0)
(-0.685858 11.8246 0)
(-0.611527 12.0017 0)
(-0.539217 12.1835 0)
(-0.466324 12.3494 0)
(-0.394747 12.4953 0)
(-0.32582 12.6137 0)
(-0.260213 12.6949 0)
(-0.198104 12.7294 0)
(-0.140522 12.7065 0)
(-0.0866034 12.5779 0)
(-0.0413676 12.0734 0)
(-0.00753655 10.4006 0)
(-0.0292819 10.0064 0)
(-0.019891 10.007 5.81324e-23)
(-0.0129098 10.0066 0)
(-0.00798795 10.0056 -2.24824e-19)
(-0.00455668 10.0041 3.24791e-23)
(-0.00222187 10.0024 0)
(-0.000817248 10.0009 0)
(-0.000217864 10.0001 0)
(-0.0415823 10.0046 0)
(-0.0578083 10.0017 0)
(-0.0788496 9.99806 0)
(-0.105712 9.994 0)
(-0.139467 9.99023 0)
(-0.181185 9.98781 0)
(-0.231856 9.98832 0)
(-0.292245 9.99391 0)
(-0.36269 10.0074 0)
(-0.442863 10.0324 0)
(-0.53139 10.073 0)
(-0.625457 10.1339 0)
(-0.720409 10.2198 0)
(-0.809689 10.3342 0)
(-0.887283 10.4746 0)
(-0.949143 10.6359 0)
(-0.990806 10.8148 0)
(-1.00874 11.0068 0)
(-1.00066 11.2065 0)
(-0.965608 11.4083 0)
(-0.900157 11.6087 0)
(-0.81493 11.7981 0)
(-0.731926 11.9893 0)
(-0.650797 12.1837 0)
(-0.568557 12.3626 0)
(-0.48773 12.5241 0)
(-0.409954 12.6641 0)
(-0.336266 12.7764 0)
(-0.267114 12.8519 0)
(-0.20244 12.8813 0)
(-0.143097 12.8526 0)
(-0.0881111 12.7141 0)
(-0.041959 12.1853 0)
(-0.00816733 10.4731 0)
(-0.0413239 10.0034 0)
(-0.0289045 10.0054 -5.46758e-19)
(-0.0194787 10.0061 0)
(-0.0127401 10.006 0)
(-0.00796311 10.0051 6.61905e-19)
(-0.00462003 10.0038 0)
(-0.00232521 10.0023 0)
(-0.000909222 10.0008 1.76821e-19)
(-0.000255864 10.0001 0)
(-0.0573017 9.99994 0)
(-0.0780793 9.99543 0)
(-0.104619 9.99015 0)
(-0.138002 9.98467 0)
(-0.179339 9.97987 0)
(-0.229714 9.97713 0)
(-0.290053 9.97833 0)
(-0.360959 9.98603 0)
(-0.442514 10.0035 0)
(-0.533936 10.0347 0)
(-0.633213 10.0843 0)
(-0.736698 10.1571 0)
(-0.838741 10.2577 0)
(-0.931764 10.3891 0)
(-1.00932 10.5475 0)
(-1.06754 10.7264 0)
(-1.10224 10.9215 0)
(-1.11041 11.1275 0)
(-1.0905 11.3384 0)
(-1.04238 11.5486 0)
(-0.963144 11.754 0)
(-0.870636 11.9631 0)
(-0.779605 12.1722 0)
(-0.686606 12.364 0)
(-0.594848 12.5381 0)
(-0.506576 12.6934 0)
(-0.423093 12.8265 0)
(-0.345107 12.9319 0)
(-0.272829 13.0012 0)
(-0.205948 13.0249 0)
(-0.145113 12.9901 0)
(-0.0892712 12.8417 0)
(-0.0423727 12.2901 0)
(-0.00868555 10.5416 0)
(-0.0568701 9.99835 0)
(-0.0406845 10.002 0)
(-0.0281421 10.0042 -5.40564e-19)
(-0.0190701 10.0052 -5.02025e-19)
(-0.012552 10.0053 -9.32507e-19)
(-0.00792329 10.0047 0)
(-0.00467312 10.0035 -4.0225e-19)
(-0.0024211 10.0021 -3.73657e-19)
(-0.000996623 10.0007 1.73536e-19)
(-0.000291237 10.0001 0)
(-0.0773177 9.99309 0)
(-0.103525 9.98674 0)
(-0.136513 9.97973 0)
(-0.17741 9.97282 0)
(-0.227362 9.96717 0)
(-0.287416 9.96444 0)
(-0.358384 9.96692 0)
(-0.440671 9.97758 0)
(-0.533986 10.0001 0)
(-0.637002 10.039 0)
(-0.746966 10.0991 0)
(-0.859309 10.1853 0)
(-0.967321 10.3022 0)
(-1.06243 10.4519 0)
(-1.13793 10.6291 0)
(-1.19038 10.8257 0)
(-1.21604 11.0365 0)
(-1.21264 11.2555 0)
(-1.17946 11.4764 0)
(-1.11726 11.693 0)
(-1.03057 11.9193 0)
(-0.928433 12.1471 0)
(-0.823145 12.3538 0)
(-0.718728 12.5408 0)
(-0.618021 12.7085 0)
(-0.522882 12.8564 0)
(-0.43424 12.982 0)
(-0.352444 13.0799 0)
(-0.277453 13.1424 0)
(-0.208703 13.1602 0)
(-0.146631 13.119 0)
(-0.0901232 12.961 0)
(-0.0426365 12.3879 0)
(-0.00910461 10.6061 0)
(-0.0766688 9.99102 0)
(-0.0558848 9.9966 -6.11204e-19)
(-0.0394372 10.0005 5.71118e-19)
(-0.0273931 10.003 -1.97745e-22)
(-0.0186371 10.0044 4.92625e-19)
(-0.0123425 10.0047 4.57592e-19)
(-0.00786831 10.0042 8.50039e-19)
(-0.00471574 10.0032 5.92159e-19)
(-0.00250957 10.0019 -1.83368e-19)
(-0.00107925 10.0007 0)
(-0.000324053 10.0001 0)
(-0.102449 9.98371 0)
(-0.135028 9.97535 0)
(-0.175456 9.96656 0)
(-0.224905 9.95832 0)
(-0.28451 9.95207 0)
(-0.355243 9.94985 0)
(-0.437768 9.95434 0)
(-0.532189 9.96897 0)
(-0.637754 9.99791 0)
(-0.752488 10.0459 0)
(-0.872802 10.1182 0)
(-0.993115 10.2195 0)
(-1.10564 10.3541 0)
(-1.20089 10.5232 0)
(-1.2721 10.7196 0)
(-1.31653 10.9338 0)
(-1.33108 11.1595 0)
(-1.31436 11.3903 0)
(-1.26661 11.6194 0)
(-1.19779 11.8583 0)
(-1.10083 12.1045 0)
(-0.981383 12.3305 0)
(-0.862266 12.5324 0)
(-0.747069 12.7127 0)
(-0.638101 12.8728 0)
(-0.536743 13.0125 0)
(-0.443517 13.1299 0)
(-0.358401 13.2201 0)
(-0.281094 13.2756 0)
(-0.21079 13.2872 0)
(-0.147714 13.2396 0)
(-0.0907073 13.0722 0)
(-0.0427751 12.479 0)
(-0.0094378 10.6665 0)
(-0.101534 9.98102 0)
(-0.0752367 9.98876 -7.1037e-22)
(-0.053985 9.99466 0)
(-0.03822 9.99901 -3.44742e-22)
(-0.0266127 10.0019 0)
(-0.0181743 10.0035 -4.83478e-19)
(-0.0121112 10.0041 -8.9818e-19)
(-0.00779823 10.0038 -7.15695e-24)
(-0.00474798 10.0029 3.87421e-19)
(-0.00259037 10.0018 -1.79952e-19)
(-0.00115704 10.0006 1.67163e-19)
(-0.000354357 10.0001 0)
(-0.133571 9.97147 0)
(-0.17351 9.961 0)
(-0.222417 9.95046 0)
(-0.281468 9.94107 0)
(-0.351754 9.93463 0)
(-0.434144 9.93355 0)
(-0.529064 9.94098 0)
(-0.636231 9.96079 0)
(-0.754338 9.99756 0)
(-0.880661 10.0564 0)
(-1.01067 10.1425 0)
(-1.13773 10.2606 0)
(-1.253 10.4142 0)
(-1.34616 10.6034 0)
(-1.41068 10.8192 0)
(-1.44477 11.0504 0)
(-1.4462 11.2902 0)
(-1.41455 11.531 0)
(-1.36082 11.784 0)
(-1.28212 12.0445 0)
(-1.16548 12.29 0)
(-1.02914 12.5114 0)
(-0.896876 12.7065 0)
(-0.771672 12.8788 0)
(-0.655208 13.0303 0)
(-0.54831 13.1613 0)
(-0.451076 13.2702 0)
(-0.363115 13.3524 0)
(-0.283864 13.4009 0)
(-0.212292 13.4062 0)
(-0.14842 13.3523 0)
(-0.0910635 13.1758 0)
(-0.0428105 12.5637 0)
(-0.00969722 10.7229 0)
(-0.132337 9.96802 0)
(-0.0995344 9.97814 6.82651e-19)
(-0.0724786 9.98632 -6.3893e-19)
(-0.0521412 9.99279 5.9247e-19)
(-0.0369633 9.99758 0)
(-0.0257912 10.0008 0)
(-0.0176813 10.0027 4.74497e-19)
(-0.0118585 10.0035 -4.40706e-19)
(-0.00771307 10.0034 1.80741e-25)
(-0.00476961 10.0027 1.90154e-19)
(-0.00266342 10.0016 -1.76639e-19)
(-0.00122993 10.0006 -1.64058e-19)
(-0.000382052 10.0001 0)
(-0.171603 9.95607 0)
(-0.219937 9.94347 0)
(-0.27838 9.93128 0)
(-0.348083 9.92108 0)
(-0.430069 9.915 0)
(-0.525024 9.9159 0)
(-0.633055 9.92736 0)
(-0.753408 9.95373 0)
(-0.884117 9.99995 0)
(-1.0216 10.0713 0)
(-1.16032 10.173 0)
(-1.29257 10.3094 0)
(-1.4085 10.4832 0)
(-1.49713 10.6931 0)
(-1.55243 10.9281 0)
(-1.57388 11.1756 0)
(-1.56024 11.4276 0)
(-1.52348 11.6942 0)
(-1.46002 11.9708 0)
(-1.36012 12.2323 0)
(-1.22406 12.474 0)
(-1.07156 12.6884 0)
(-0.92702 12.875 0)
(-0.792668 13.0382 0)
(-0.669515 13.1805 0)
(-0.557767 13.3024 0)
(-0.457084 13.4026 0)
(-0.366726 13.4769 0)
(-0.285871 13.5183 0)
(-0.213291 13.5174 0)
(-0.148806 13.4572 0)
(-0.0912275 13.2722 0)
(-0.0427624 12.6423 0)
(-0.00989457 10.7754 0)
(-0.169996 9.95169 0)
(-0.12963 9.96437 0)
(-0.0956688 9.97508 6.74819e-19)
(-0.0698138 9.98397 -1.25443e-18)
(-0.0502478 9.99098 1.16424e-18)
(-0.0356511 9.99621 -1.08072e-18)
(-0.0249288 9.99979 0)
(-0.0171592 10.002 4.65807e-19)
(-0.0115853 10.0029 -4.32523e-19)
(-0.00761241 10.003 -4.01812e-19)
(-0.0047806 10.0024 0)
(-0.00272875 10.0015 1.73363e-19)
(-0.00129731 10.0005 0)
(-0.000406688 10.0001 0)
(-0.217509 9.93726 0)
(-0.275298 9.92258 0)
(-0.344341 9.90901 0)
(-0.425745 9.89845 0)
(-0.520395 9.89347 0)
(-0.628719 9.89736 0)
(-0.750429 9.91418 0)
(-0.884199 9.94866 0)
(-1.02729 10.0061 0)
(-1.17519 10.0918 0)
(-1.32129 10.2108 0)
(-1.45686 10.3669 0)
(-1.57109 10.5617 0)
(-1.65255 10.7925 0)
(-1.69607 11.0463 0)
(-1.70259 11.3084 0)
(-1.68506 11.5883 0)
(-1.63897 11.881 0)
(-1.55239 12.1605 0)
(-1.43119 12.4195 0)
(-1.27632 12.6547 0)
(-1.10865 12.8602 0)
(-0.952858 13.0371 0)
(-0.810283 13.1905 0)
(-0.681245 13.3231 0)
(-0.565318 13.4358 0)
(-0.461716 13.5273 0)
(-0.369374 13.5936 0)
(-0.287222 13.6281 0)
(-0.213863 13.6211 0)
(-0.148924 13.5549 0)
(-0.0912327 13.3617 0)
(-0.0426475 12.7152 0)
(-0.0100392 10.8242 0)
(-0.215472 9.93175 0)
(-0.166421 9.94711 0)
(-0.124362 9.96057 0)
(-0.0919519 9.97215 1.32483e-18)
(-0.0670892 9.98171 -1.22979e-18)
(-0.0482817 9.98926 1.14163e-18)
(-0.0342845 9.99489 0)
(-0.0240272 9.9988 -4.92112e-19)
(-0.0166085 10.0012 0)
(-0.0112907 10.0024 4.24532e-19)
(-0.0074972 10.0026 0)
(-0.00478095 10.0022 0)
(-0.0027861 10.0013 0)
(-0.00135755 10.0005 1.68534e-19)
(-0.000428227 10.0001 8.23138e-20)
(-0.272278 9.91484 0)
(-0.340593 9.89827 0)
(-0.421311 9.8837 0)
(-0.515427 9.87343 0)
(-0.623617 9.87048 0)
(-0.745988 9.87858 0)
(-0.881758 9.90224 0)
(-1.02892 9.94658 0)
(-1.18387 10.017 0)
(-1.34109 10.119 0)
(-1.49293 10.2569 0)
(-1.62962 10.4339 0)
(-1.73958 10.6503 0)
(-1.81114 10.9019 0)
(-1.84026 11.1731 0)
(-1.8445 11.4655 0)
(-1.81838 11.7741 0)
(-1.74729 12.0722 0)
(-1.63713 12.351 0)
(-1.49498 12.6046 0)
(-1.32223 12.8309 0)
(-1.14057 13.0261 0)
(-0.974632 13.1923 0)
(-0.824788 13.3352 0)
(-0.690643 13.4579 0)
(-0.571173 13.5613 0)
(-0.465143 13.6443 0)
(-0.37119 13.7029 0)
(-0.288017 13.7306 0)
(-0.214078 13.7177 0)
(-0.148821 13.6457 0)
(-0.0911076 13.4447 0)
(-0.04248 12.7827 0)
(-0.0101395 10.8695 0)
(-0.269763 9.90797 0)
(-0.210848 9.92604 0)
(-0.159408 9.9424 1.51392e-18)
(-0.11932 9.95694 1.40436e-18)
(-0.0881628 9.96936 1.30285e-18)
(-0.0642713 9.97957 -1.20874e-18)
(-0.0462448 9.98762 0)
(-0.0328665 9.99364 0)
(-0.0230879 9.99785 0)
(-0.0160308 10.0005 8.97495e-19)
(-0.0109759 10.0019 4.16734e-19)
(-0.00736694 10.0023 3.87055e-19)
(-0.00477101 10.002 0)
(-0.00283462 10.0012 -1.78078e-19)
(-0.00141019 10.0004 -8.70027e-20)
(-0.000447066 10.0001 0)
(-0.336918 9.88871 0)
(-0.416849 9.87055 0)
(-0.510288 9.85555 0)
(-0.618054 9.84642 0)
(-0.740557 9.84662 0)
(-0.877486 9.86037 0)
(-1.02746 9.89257 0)
(-1.1877 9.9486 0)
(-1.35366 10.034 0)
(-1.51879 10.1539 0)
(-1.67439 10.3123 0)
(-1.80975 10.5111 0)
(-1.91272 10.7494 0)
(-1.97155 11.021 0)
(-2.00052 11.3249 0)
(-1.99738 11.6491 0)
(-1.94451 11.9663 0)
(-1.8475 12.266 0)
(-1.71378 12.5406 0)
(-1.55142 12.7861 0)
(-1.36193 13.0017 0)
(-1.16758 13.1851 0)
(-0.992645 13.34 0)
(-0.836476 13.4722 0)
(-0.697968 13.5849 0)
(-0.575541 13.6792 0)
(-0.46753 13.7538 0)
(-0.372298 13.8049 0)
(-0.288345 13.8261 0)
(-0.213998 13.8075 0)
(-0.148539 13.73 0)
(-0.090878 13.5217 0)
(-0.0422707 12.8452 0)
(-0.010204 10.9115 0)
(-0.333883 9.88021 0)
(-0.263884 9.90089 0)