v  -0.011263  -0.07088  0.074847
v  -0.013524  -0.05094  0.045066
v  0.024425  -0.025976  0.086372
v  -0.068204  0.013946  0.079973
v  -0.097746  0.00245  0.023766
v  -0.069561  0.013549  0.05749
v  0.011351  -0.022665  0.088267
v  -0.070295  0.012224  0.029091
v  -0.07178  0.013141  0.035007
v  0.032046  -0.0070488  0.088195
v  -0.066899  0.0098166  0.008319
v  0.023006  0.027413  0.08799
v  -0.090252  0.035779  0.083516
v  0.02413  0.024439  0.085122
v  -0.12827  0.078049  0.0045661
v  -0.1459  0.10635  0.07524
v  -0.019935  -0.06495  0.072777
v  0.029795  -0.024479  0.084013
v  -0.020476  -0.032758  0.088893
v  -0.088458  0.025711  0.10102
v  -0.064452  0.011144  0.043283
v  -0.066813  0.010893  0.037275
v  -0.06946  0.010558  0.028155
v  -0.064004  0.011652  0.035413
v  0.028546  0.024396  0.081325
v  -0.10591  0.044649  0.046359
v  -0.14106  0.076572  0.08872
v  -0.15165  0.12197  0.046643
v  -0.14397  0.11039  0.054236
v  -0.13815  0.089  0.0036709
v  -0.1407  0.10214  0.02278
v  0.026621  -0.028715  0.045855
v  -0.011835  -0.077525  0.0059981
v  0.14346  -0.10713  0.048024
v  0.15904  -0.08575  0.071887
v  0.15367  -0.09488  0.048615
v  0.14161  -0.099925  0.046052
v  0.065979  -0.016058  0.068534
v  0.14219  -0.1023  0.0097636
v  0.14669  -0.082034  0.085734
v  0.11346  -0.002503  0.090229
v  0.013693  0.070807  0.070109
v  0.015483  0.065914  0.083541
v  0.063401  -0.024907  0.073473
v  0.1415  -0.10372  0.058681
v  0.14027  -0.10175  0.063491
v  0.091415  -0.038988  0.03399
v  0.063872  -0.011191  0.061428
v  0.14407  -0.082074  0.088716
v  0.051672  -0.0068681  0.005175
v  0.062902  -0.014122  0.030787
v  0.09646  -0.025786  0.088715
v  0.15574  -0.062144  0.088994
v  0.01367  0.062672  0.070895
v  0.14085  -0.04837  0.095192
v  0.019997  0.064478  0.069727
v  0.11503  -0.017169  0.091926
v  0.018175  0.05675  0.037303
v  0.01878  0.063555  0.048024
v  0.13568  -0.046342  0.085205
v  0.017804  0.063177  0.033923
v  0.21858  -0.027562  0.086931
v  0.19686  -0.059442  0.03641
v  0.24094  0.11394  0.0027869
v  -0.061277  0.19021  0.071165
v  0.2532  0.11649  0.1043
v  0.1814  0.078325  0.0048101
v  0.21196  0.17836  0.071098
v  0.22341  0.16698  0.017444
v  0.1806  0.13413  0.10059
v  -0.046453  0.24076  0.04901
v  -0.15525  0.1729  0.055321
v  0.10238  0.18616  0.086191
v  0.10283  0.14321  0.040135
v  0.10378  0.14722  0.05394
v  0.28534  -0.028252  0.017347
v  0.21434  0.034735  0.087057
v  -0.081942  0.12181  0.083248
v  0.18767  0.01421  0.0040395
v  0.20514  0.14286  0.078722
v  0.011648  0.11733  0.051273
v  0.023325  0.118  0.084464
v  0.037791  0.14667  0.076893
v  0.12323  0.14986  0.09115
v  0.10969  0.14754  0.074343
v  -0.0033834  0.23565  0.10428
v  -0.087173  0.20867  0.10471
v  0.1  0.1519  0.088175
v  0.099269  0.1398  0.014378
v  0.081588  0.19898  0.093108
v  0.086377  0.15628  0.085529
v  0.14522  -0.29081  0.026922
v  0.22552  -0.22264  0.093499
v  -0.17647  -0.3658  0.10428
v  0.28826  -0.096954  0.045855
v  -0.51008  -0.37729  0.10362
v  -0.63383  -0.2506  0.033233
v  -0.6493  -0.30987  0.10067
v  -0.66477  -0.42841  0.023765
v  -1.0154  -0.25054  0.080598
v  -0.96383  -0.24185  0.04901
v  -0.95352  -0.4247  0.0045685
v  -1.0618  -0.42775  0.042699
v  -0.29853  -0.37431  0.042644
v  -0.48011  -0.40645  0.068986
v  -0.40319  -0.40607  0.093941
v  -0.57866  -0.40555  0.033909
v  -0.76789  -0.32242  0.069273
v  -0.63492  -0.40555  0.024708
v  -0.76789  -0.40586  0.056155
v  -0.91098  -0.2575  0.074349
v  -1.0154  -0.35967  0.049279
v  -1.1958  -0.25442  0.030013
v  -0.062794  -0.21641  0.097525
v  -0.072562  -0.19314  0.066757
v  -0.067075  -0.20004  0.069126
v  -0.07996  -0.19391  0.076227
v  0.12417  -0.12814  0.085131
v  -0.10046  -0.18603  0.020215
v  -0.012137  -0.061711  0.022519
v  -0.063087  -0.03536  0.25415
v  -0.022265  -0.1904  0.090929
v  -0.077313  -0.19847  0.086627
v  -0.055134  -0.19674  0.067029
v  -0.05383  -0.2048  0.029162
v  -0.071584  -0.19295  0.045447
v  -0.077075  -0.1864  0.029262
v  -0.094533  -0.1792  0.010158
v  0.17158  -0.12689  0.078801
v  0.03028  -0.090669  0.10197
v  -0.10389  -0.18159  0.026722
v  0.1589  -0.13801  0.092652
v  0.06184  -0.033959  0.11402
v  0.062144  -0.019414  0.1028
v  -0.015198  -0.063118  0.0054274
v  -0.054374  -0.029219  0.2605
v  -0.022432  -0.05424  0.38052
v  -0.015587  -0.061893  0.39026
v  -0.10499  -0.14788  0.078395
v  -0.18369  -0.11719  0.060843
v  -0.1075  -0.14724  0.0050302
v  -0.20197  -0.051607  0.034021
v  -0.21784  0.052788  0.017441
v  -0.13437  -0.15942  0.092651
v  -0.046306  -0.13995  0.082978
v  -0.10368  -0.15171  0.073663
v  -0.12513  -0.16323  0.083604
v  -0.033626  -0.059655  0.077805
v  -0.097737  -0.15462  0.0344
v  -0.21474  -0.010727  0.0092137
