/*--------------------------------*- C++ -*----------------------------------*\
  =========                 |
  \\      /  F ield         | OpenFOAM: The Open Source CFD Toolbox
   \\    /   O peration     | Website:  https://openfoam.org
    \\  /    A nd           | Version:  8
     \\/     M anipulation  |
\*---------------------------------------------------------------------------*/
FoamFile
{
    version     2.0;
    format      ascii;
    class       volScalarField;
    location    "0.13";
    object      k;
}
// * * * * * * * * * * * * * * * * * * * * * * * * * * * * * * * * * * * * * //

dimensions      [0 2 -2 0 0 0 0];

internalField   nonuniform List<scalar> 
15677
(
0.334161
0.365034
0.294765
0.368733
0.357704
0.281044
0.370694
0.360086
0.366146
0.282768
0.371885
0.361638
0.361486
0.383351
0.28889
0.372611
0.363747
0.357749
0.368358
0.401712
0.3003
0.373038
0.365665
0.357857
0.358175
0.380147
0.419397
0.311812
0.373262
0.367182
0.359469
0.354609
0.361067
0.393327
0.434796
0.32261
0.373347
0.368307
0.361363
0.354791
0.353084
0.366928
0.406203
0.4479
0.332104
0.373348
0.369084
0.363069
0.356355
0.351142
0.353523
0.373588
0.418298
0.45875
0.34048
0.373313
0.369569
0.364444
0.358231
0.351947
0.34881
0.354807
0.380716
0.429118
0.467885
0.347558
0.373274
0.369826
0.365464
0.359969
0.353729
0.348403
0.347167
0.357134
0.387674
0.438824
0.475393
0.353773
0.373249
0.369927
0.366149
0.361402
0.355673
0.349781
0.345372
0.346341
0.359721
0.394444
0.44723
0.481803
0.358949
0.373239
0.369941
0.366548
0.362481
0.357431
0.351735
0.34622
0.342944
0.345899
0.362611
0.400677
0.454676
0.487097
0.363614
0.373239
0.369924
0.366737
0.363212
0.358861
0.353692
0.348082
0.343109
0.340872
0.345909
0.365467
0.406518
0.461002
0.491647
0.36767
0.37324
0.369908
0.366795
0.363637
0.359917
0.355399
0.350164
0.344765
0.3403
0.339202
0.346037
0.368356
0.41168
0.466584
0.495423
0.371268
0.37324
0.3699
0.366795
0.363835
0.360608
0.356744
0.352093
0.346894
0.341707
0.33783
0.337744
0.346359
0.37102
0.41643
0.471215
0.498764
0.374552
0.37324
0.369897
0.366786
0.363893
0.36099
0.357696
0.353693
0.34899
0.34384
0.338936
0.335585
0.336529
0.346743
0.373621
0.420455
0.475286
0.501638
0.377361
0.37324
0.369894
0.366777
0.3639
0.361138
0.358282
0.354891
0.350808
0.346069
0.341032
0.336382
0.333598
0.335446
0.347247
0.375868
0.424075
0.478626
0.504181
0.380195
0.37324
0.369893
0.366771
0.363894
0.361182
0.358551
0.355682
0.352232
0.348078
0.343359
0.338426
0.33408
0.331778
0.334571
0.347668
0.377971
0.427017
0.481549
0.506527
0.382414
0.37324
0.369892
0.366767
0.363887
0.361187
0.358655
0.356081
0.353229
0.349708
0.345533
0.340839
0.336059
0.331959
0.3302
0.333764
0.348136
0.379675
0.429627
0.483933
0.508543
0.385052
0.37324
0.36989
0.366765
0.36388
0.361181
0.358686
0.356255
0.353774
0.350896
0.347354
0.343166
0.33854
0.333884
0.330092
0.328766
0.333122
0.348477
0.381219
0.431625
0.486014
0.510653
0.38682
0.37324
0.36989
0.366763
0.363875
0.361173
0.358688
0.356319
0.354035
0.351577
0.348732
0.345165
0.341002
0.336444
0.33197
0.328412
0.327566
0.332524
0.348823
0.38237
0.433415
0.487718
0.512331
0.389438
0.37324
0.369889
0.366762
0.363871
0.361166
0.35868
0.356335
0.354148
0.351922
0.349565
0.346715
0.34317
0.339055
0.334608
0.330267
0.327006
0.326514
0.332087
0.349061
0.38341
0.434643
0.489239
0.514463
0.39089
0.37324
0.369888
0.366761
0.363868
0.361161
0.358671
0.356331
0.354185
0.352083
0.350013
0.347675
0.3449
0.341399
0.337354
0.333003
0.328875
0.32583
0.325743
0.331717
0.349289
0.384081
0.435842
0.490464
0.515884
0.393509
0.37324
0.369888
0.36676
0.363865
0.361157
0.358662
0.356322
0.354189
0.352146
0.350238
0.348207
0.346021
0.343295
0.339856
0.335927
0.33176
0.327768
0.324977
0.325117
0.331501
0.34948
0.384748
0.436505
0.491763
0.518419
0.394909
0.37324
0.369888
0.36676
0.363863
0.361153
0.358654
0.356313
0.354178
0.352162
0.350333
0.348486
0.346672
0.344528
0.341936
0.33866
0.334869
0.330781
0.326989
0.324388
0.324903
0.33153
0.349734
0.385122
0.437354
0.492597
0.520074
0.505266
0.373241
0.369888
0.366759
0.363862
0.361151
0.358648
0.356304
0.354164
0.352157
0.35036
0.348616
0.347027
0.345251
0.343365
0.340939
0.337733
0.334086
0.33032
0.326769
0.324401
0.325002
0.331683
0.349981
0.385561
0.437733
0.494474
0.528781
0.713855
0.373241
0.369887
0.366759
0.36386
0.361149
0.358644
0.356297
0.354151
0.352144
0.350355
0.348664
0.347196
0.34566
0.344245
0.342452
0.340198
0.33738
0.334087
0.33043
0.326964
0.324651
0.325339
0.332037
0.350356
0.385883
0.438546
0.495021
0.545637
0.892746
0.373241
0.369887
0.366758
0.363859
0.361147
0.35864
0.356291
0.354139
0.352129
0.350337
0.34867
0.347256
0.345874
0.344754
0.343372
0.342019
0.340229
0.337574
0.334407
0.330906
0.327551
0.325291
0.326042
0.332724
0.350877
0.386286
0.439132
0.494745
0.558702
1.03835
0.373241
0.369887
0.366758
0.363859
0.361146
0.358637
0.356286
0.35413
0.352116
0.350316
0.348657
0.347262
0.34597
0.345006
0.343924
0.343194
0.342181
0.340607
0.338209
0.335257
0.331956
0.328752
0.326534
0.327253
0.333756
0.351594
0.386906
0.438882
0.493282
0.568553
1.16561
0.373241
0.369887
0.366758
0.363858
0.361145
0.358634
0.356281
0.354122
0.352105
0.350296
0.348636
0.347241
0.345996
0.345108
0.344258
0.34392
0.343444
0.342769
0.341552
0.339538
0.336924
0.333853
0.330691
0.328416
0.32893
0.335183
0.352611
0.38743
0.437999
0.490199
0.575388
1.26999
0.373241
0.369887
0.366758
0.363857
0.361144
0.358632
0.356278
0.354115
0.352095
0.35028
0.348614
0.347212
0.345986
0.345131
0.344425
0.344304
0.344236
0.344186
0.344022
0.34339
0.341819
0.339505
0.336561
0.333395
0.330931
0.331155
0.337035
0.353882
0.387887
0.436178
0.48488
0.579947
1.34793
0.373241
0.369887
0.366758
0.363857
0.361143
0.35863
0.356275
0.35411
0.352086
0.350266
0.348595
0.347182
0.345958
0.345113
0.344486
0.344496
0.344692
0.345095
0.345694
0.346276
0.346232
0.345093
0.343045
0.340195
0.336902
0.334172
0.333934
0.339354
0.355408
0.388031
0.433088
0.478236
0.582887
1.40807
0.373241
0.369887
0.366758
0.363857
0.361142
0.358629
0.356272
0.354106
0.352079
0.350254
0.348577
0.347156
0.345927
0.345077
0.344489
0.344573
0.344932
0.345649
0.346806
0.348247
0.349584
0.350192
0.349482
0.347677
0.344811
0.341319
0.338151
0.337335
0.342126
0.357129
0.387936
0.429005
0.471595
0.585391
1.45647
0.369887
0.373245
0.366758
0.363856
0.361142
0.358628
0.35627
0.354102
0.352073
0.350244
0.348562
0.347134
0.345898
0.345039
0.344462
0.344586
0.345041
0.345963
0.347522
0.349596
0.351931
0.354126
0.355421
0.355138
0.353482
0.350534
0.346666
0.34295
0.341326
0.345349
0.359326
0.387646
0.424819
0.465375
0.5878
1.49703
0.366758
0.369897
0.373252
0.363856
0.361141
0.358626
0.356268
0.354098
0.352067
0.350236
0.348549
0.347114
0.345871
0.345003
0.344425
0.344565
0.345076
0.346126
0.347959
0.3505
0.353589
0.356949
0.360082
0.362097
0.362172
0.360603
0.357394
0.353042
0.348535
0.34594
0.349334
0.362032
0.387291
0.420769
0.459773
0.590644
1.53236
0.363856
0.366774
0.369918
0.37326
0.361141
0.358625
0.356267
0.354096
0.352063
0.350229
0.348538
0.347097
0.345848
0.34497
0.344388
0.344533
0.345071
0.346202
0.348218
0.351095
0.354751
0.35901
0.363508
0.367654
0.370362
0.370742
0.369086
0.365509
0.360412
0.354949
0.351759
0.354287
0.36511
0.386968
0.416989
0.454882
0.593678
1.56398
0.36114
0.363878
0.366808
0.369939
0.373267
0.358625
0.356265
0.354093
0.352059
0.350222
0.348528
0.347083
0.345828
0.344942
0.344354
0.344498
0.345051
0.346231
0.348371
0.351489
0.355569
0.36052
0.366091
0.371836
0.377017
0.380399
0.380922
0.379072
0.374844
0.368835
0.362963
0.359102
0.359767
0.368396
0.387023
0.413643
0.45069
0.59724
1.593
0.358624
0.361168
0.363922
0.366843
0.369961
0.373275
0.356264
0.354091
0.352055
0.350217
0.348519
0.347071
0.34581
0.344918
0.344324
0.344467
0.345026
0.346237
0.348463
0.351762
0.356164
0.36165
0.368068
0.375093
0.382144
0.388384
0.392311
0.392873
0.390529
0.385487
0.379322
0.373015
0.367265
0.365736
0.372127
0.387312
0.410659
0.447129
0.600911
1.61989
0.356263
0.358655
0.361223
0.363968
0.366878
0.369984
0.373284
0.354089
0.352052
0.350212
0.348512
0.347061
0.345794
0.344897
0.344298
0.344438
0.345003
0.346235
0.348521
0.35196
0.356625
0.362538
0.369635
0.377691
0.386261
0.394678
0.401889
0.406283
0.406572
0.403576
0.398709
0.392432
0.384156
0.376178
0.372111
0.375974
0.387932
0.408215
0.444051
0.604959
1.6452
0.354087
0.356299
0.358719
0.36128
0.364016
0.366915
0.370007
0.373292
0.35205
0.350208
0.348506
0.347052
0.34578
0.344879
0.344276
0.344414
0.344982
0.346232
0.348565
0.352113
0.356998
0.363282
0.370944
0.379857
0.389683
0.399894
0.409614
0.417757
0.422313
0.422168
0.419771
0.41522
0.406931
0.396289
0.385738
0.378938
0.379961
0.388969
0.406227
0.441506
0.60899
1.66896
0.352048
0.354125
0.356371
0.358785
0.361338
0.364064
0.366952
0.370031
0.373301
0.350205
0.3485
0.347044
0.345768
0.344863
0.344256
0.344393
0.344964
0.346229
0.348602
0.352241
0.357309
0.363925
0.372109
0.381762
0.392661
0.404391
0.416219
0.427242
0.436021
0.440595
0.441529
0.439985
0.433456
0.422686
0.409284
0.395862
0.386133
0.384121
0.390286
0.404679
0.439342
0.613246
1.69156
0.350201
0.352088
0.354205
0.356446
0.358853
0.361398
0.364114
0.36699
0.370056
0.37331
0.348495
0.347037
0.345757
0.34485
0.344239
0.344374
0.344949
0.346227
0.348636
0.352356
0.357581
0.364484
0.373162
0.383535
0.395393
0.408459
0.422105
0.435587
0.447635
0.456959
0.46335
0.465736
0.462304
0.453243
0.439531
0.423013
0.406459
0.393618
0.388444
0.391871
0.403561
0.437617
0.617377
1.71281
0.348491
0.350243
0.352174
0.354287
0.356523
0.358923
0.36146
0.364165
0.36703
0.370081
0.373319
0.347031
0.345748
0.34484
0.344224
0.344359
0.344936
0.346227
0.348667
0.352459
0.357827
0.364987
0.374107
0.385192
0.398028
0.41233
0.427616
0.443261
0.458127
0.471152
0.483161
0.491954
0.492527
0.486535
0.474374
0.45729
0.43734
0.417426
0.401327
0.392903
0.393552
0.402825
0.436176
0.621633
1.73309
0.347026
0.348533
0.350332
0.352261
0.354371
0.356602
0.358995
0.361523
0.364218
0.36707
0.370107
0.373328
0.345739
0.34483
0.34421
0.344345
0.344925
0.346227
0.348696
0.352555
0.358051
0.365445
0.374971
0.386713
0.400562
0.416179
0.433025
0.450675
0.468062
0.484318
0.500754
0.516339
0.523839
0.52174
0.512443
0.496636
0.475783
0.452122
0.428662
0.409187
0.397512
0.395333
0.402373
0.435077
0.625685
1.7521
0.345732
0.347066
0.348622
0.350423
0.352352
0.354457
0.356684
0.359068
0.361589
0.364272
0.367112
0.370133
0.373338
0.344823
0.344198
0.344332
0.344916
0.346229
0.348724
0.352643
0.358257
0.365867
0.375767
0.38812
0.402932
0.419968
0.438541
0.45816
0.477939
0.497145
0.517532
0.538575
0.553604
0.558823
0.553142
0.539805
0.519815
0.494828
0.46722
0.440068
0.417141
0.402219
0.397209
0.402187
0.434174
0.629795
1.77027
0.344817
0.345765
0.347152
0.348714
0.350517
0.352446
0.354546
0.356768
0.359144
0.361656
0.364327
0.367155
0.37016
0.373347
0.344186
0.344322
0.344908
0.346231
0.34875
0.352724
0.358445
0.366254
0.376502
0.389429
0.405156
0.423569
0.444077
0.465982
0.48817
0.510248
0.534355
0.560442
0.581491
0.594863
0.596674
0.586476
0.568393
0.5437
0.514247
0.482498
0.451549
0.425128
0.406981
0.39916
0.402232
0.433536
0.633655
1.7872
0.344175
0.344844
0.345841
0.347241
0.34881
0.350614
0.352542
0.354638
0.356854
0.359222
0.361724
0.364384
0.367199
0.370187
0.373356
0.344312
0.344901
0.346233
0.348774
0.352798
0.358618
0.36661
0.377179
0.390645
0.407242
0.42698
0.449425
0.474006
0.499091
0.524158
0.552028
0.583091
0.609769
0.629573
0.639977
0.637159
0.62147
0.597958
0.568082
0.533876
0.497832
0.463019
0.433094
0.411759
0.401175
0.402367
0.433038
0.637539
1.80341
0.344306
0.344176
0.344906
0.345918
0.347334
0.348909
0.350714
0.352642
0.354732
0.356943
0.359302
0.361795
0.364442
0.367242
0.370213
0.373365
0.344894
0.346235
0.348796
0.352866
0.358776
0.366937
0.377803
0.391773
0.409194
0.430208
0.454561
0.481882
0.510475
0.539339
0.571301
0.607664
0.640028
0.665906
0.682918
0.688856
0.680056
0.657859
0.628259
0.592778
0.553566
0.51311
0.474401
0.44099
0.416519
0.403231
0.402623
0.432765
0.641142
1.81842
0.344891
0.344289
0.344187
0.34497
0.346001
0.34743
0.349013
0.350817
0.352744
0.354829
0.357035
0.359384
0.361867
0.3645
0.367284
0.370239
0.373374
0.346237
0.348816
0.352928
0.35892
0.367235
0.378376
0.392817
0.411014
0.433251
0.459477
0.48953
0.521793
0.555547
0.592897
0.635295
0.673986
0.706238
0.729533
0.741838
0.741503
0.725181
0.6954
0.659063
0.61761
0.573184
0.528237
0.485628
0.448771
0.421231
0.405327
0.402965
0.432567
0.644757
1.83282
0.346243
0.344845
0.344259
0.344198
0.345037
0.346089
0.347529
0.349121
0.350923
0.35285
0.354928
0.357129
0.359468
0.361939
0.364556
0.367325
0.370263
0.373382
0.348832
0.352983
0.359051
0.367508
0.378901
0.393779
0.412704
0.436108
0.464155
0.496906
0.532933
0.572077
0.616488
0.66716
0.713635
0.753556
0.783727
0.801918
0.806912
0.798026
0.772395
0.733886
0.69017
0.642417
0.592614
0.543128
0.496642
0.456399
0.42587
0.40744
0.40337
0.432536
0.648067
1.84606
0.348854
0.346151
0.344743
0.344223
0.344225
0.345107
0.346184
0.347632
0.349233
0.351033
0.352959
0.355031
0.357225
0.359552
0.362009
0.364611
0.367364
0.370287
0.37339
0.353032
0.359169
0.367756
0.379381
0.394664
0.414269
0.438779
0.46858
0.503979
0.543861
0.588718
0.64087
0.703076
0.761668
0.812055
0.85105
0.875611
0.884748
0.878837
0.858565
0.821581
0.773129
0.721405
0.66706
0.611759
0.557714
0.507395
0.463842
0.430416
0.409554
0.403824
0.432568
0.6514
1.85879
0.353087
0.348686
0.345936
0.344632
0.344185
0.34427
0.345178
0.346286
0.347738
0.349349
0.351146
0.353072
0.355136
0.35732
0.359633
0.362076
0.364664
0.367403
0.370311
0.373398
0.359275
0.36798
0.379819
0.395476
0.415715
0.441267
0.472747
0.51073
0.554522
0.605284
0.665626
0.741935
0.819659
0.887881
0.939404
0.972142
0.984984
0.979438
0.958094
0.92315
0.872595
0.812953
0.752611
0.691417
0.630538
0.57194
0.517847
0.471076
0.434849
0.41165
0.404321
0.432647
0.654411
1.869
0.359385
0.352828
0.34828
0.345709
0.344531
0.344146
0.344329
0.345252
0.346393
0.347848
0.349468
0.351262
0.353187
0.35524
0.357413
0.359712
0.362142
0.364715
0.36744
0.370333
0.373406
0.368184
0.380216
0.396219
0.417046
0.443577
0.476654
0.517143
0.564848
0.621582
0.690707
0.784131
0.887158
0.984705
1.05852
1.10289
1.1203
1.11321
1.08633
1.04461
0.991576
0.92522
0.853173
0.783647
0.715382
0.64888
0.58576
0.527971
0.478078
0.439156
0.413717
0.404843
0.432799
0.65704
1.8776
0.368386
0.359006
0.352168
0.347855
0.3455
0.344442
0.344111
0.3444
0.345329
0.346506
0.347962
0.349592
0.351382
0.353301
0.355342
0.357503
0.359789
0.362206
0.364766
0.367477
0.370355
0.373414
0.380579
0.396896
0.41827
0.445716
0.480306
0.52321
0.574774
0.637495
0.716267
0.830149
0.963931
1.09895
1.21036
1.27828
1.30325
1.29465
1.25905
1.20436
1.13761
1.06334
0.97914
0.893588
0.81438
0.738865
0.666729
0.599139
0.537742
0.484834
0.443324
0.415742
0.405389
0.432958
0.659187
1.88689
0.380929
0.367853
0.357985
0.351482
0.347459
0.34531
0.34436
0.344083
0.344479
0.345412
0.346624
0.348082
0.349719
0.351501
0.353412
0.355441
0.35759
0.359864
0.362268
0.364814
0.367512
0.370377
0.373421
0.397519
0.41939
0.447692
0.483711
0.528924
0.584256
0.652985
0.742474
0.879774
1.04818
1.22561
1.38318
1.49423
1.54187
1.535
1.49058
1.4191
1.33127
1.23573
1.13765
1.03395
0.933978
0.844682
0.761791
0.684039
0.612051
0.547143
0.491331
0.447345
0.417717
0.405869
0.433121
0.661569
1.89704
0.398104
0.380201
0.366325
0.356929
0.350834
0.347089
0.345133
0.344287
0.344065
0.344564
0.345501
0.346746
0.348205
0.349845
0.351618
0.35352
0.355538
0.357675
0.359937
0.362328
0.364862
0.367546
0.370398
0.373424
0.420427
0.449515
0.486875
0.534284
0.593276
0.668064
0.769339
0.93209
1.13693
1.3588
1.56643
1.73006
1.82518
1.83919
1.78987
1.70181
1.58896
1.46419
1.33725
1.21358
1.08917
0.974107
0.874433
0.784094
0.700771
0.624474
0.556165
0.497564
0.451211
0.419381
0.4063
0.433318
0.664118
1.90806
0.421378
0.397139
0.377968
0.364755
0.355926
0.35022
0.346742
0.344969
0.344224
0.344058
0.344653
0.345598
0.346872
0.34833
0.349968
0.351733
0.353625
0.355632
0.357758
0.360007
0.362387
0.364908
0.36758
0.370408
0.373424
0.45121
0.489813
0.539298
0.601836
0.68275
0.796694
0.985838
1.22715
1.49323
1.75181
1.97187
2.1255
2.19076
2.15979
2.05956
1.92209
1.76418
1.60019
1.44039
1.29012
1.14431
1.01374
0.903521
0.805719
0.716898
0.636397
0.5648
0.503525
0.45443
0.420818
0.40679
0.433578
0.666995
1.92016
0.452738
0.420127
0.393928
0.375689
0.36326
0.354971
0.349635
0.346414
0.344817
0.344173
0.344064
0.344746
0.345704
0.346996
0.348453
0.350087
0.351844
0.353727
0.355724
0.357838
0.360076
0.362444
0.364953
0.367596
0.370408
0.373424
0.492557
0.543984
0.609951
0.697043
0.824249
1.03978
1.31638
1.62502
1.93339
2.21054
2.42713
2.55676
2.58014
2.49468
2.33693
2.14601
1.94088
1.73664
1.54347
1.3663
1.19888
1.05265
0.93184
0.826617
0.7324
0.647812
0.573046
0.508466
0.457187
0.42242
0.407362
0.433894
0.670051
1.93332
0.494991
0.451129
0.415564
0.39068
0.373519
0.361831
0.354053
0.349074
0.346107
0.344678
0.344132
0.344086
0.344838
0.345815
0.347117
0.348575
0.350204
0.351954
0.353826
0.355813
0.357917
0.360143
0.362499
0.364975
0.367596
0.370408
0.373424
0.548386
0.617654
0.710939
0.851676
1.09287
1.40292
1.75171
2.10744
2.44008
2.72043
2.9199
3.01327
2.98432
2.83648
2.61621
2.36923
2.11592
1.87135
1.64509
1.44129
1.25244
1.09063
0.959296
0.846754
0.747264
0.658717
0.57987
0.512685
0.460235
0.424211
0.408019
0.434294
0.673527
1.94781
0.552249
0.492944
0.444696
0.410991
0.387586
0.371436
0.360451
0.353168
0.348536
0.345824
0.344551
0.344101
0.344132
0.344929
0.345929
0.347235
0.348695
0.350317
0.35206
0.353923
0.3559
0.357993
0.360208
0.362526
0.364975
0.367596
0.370408
0.373424
0.624998
0.724434
0.878686
1.14434
1.48569
1.87189
2.27189
2.65697
2.9991
3.26957
3.43989
3.48608
3.39575
3.17915
2.89283
2.58844
2.28691
2.00265
1.7441
1.51439
1.30461
1.12749
0.985813
0.8661
0.76148
0.667743
0.58569
0.517335
0.463612
0.426216
0.40879
0.434776
0.677205
1.96352
0.63146
0.54963
0.483889
0.438313
0.406636
0.384611
0.369422
0.359117
0.352316
0.34802
0.345561
0.344436
0.344064
0.344199
0.345016
0.346044
0.34735
0.348812
0.350427
0.352164
0.354017
0.355984
0.358066
0.360241
0.362526
0.364975
0.367596
0.370408
0.373424
0.737519
0.905044
1.19367
1.56403
1.98483
2.42576
2.8594
3.25944
3.59859
3.84771
3.97803
3.96734
3.808
3.51781
3.16328
2.80115
2.45212
2.12932
1.83968
1.58504
1.35507
1.16309
1.01133
0.884634
0.77326
0.675445
0.592099
0.522467
0.467359
0.42847
0.409681
0.435369
0.681444
1.98087
0.749091
0.628142
0.536753
0.475016
0.432236
0.402442
0.381727
0.367469
0.357829
0.351498
0.34753
0.345317
0.344334
0.34403
0.344277
0.345103
0.346159
0.347464
0.348928
0.350535
0.352265
0.354108
0.356067
0.358103
0.360241
0.362526
0.364975
0.367596
0.370408
0.373421
0.930535
1.24052
1.63763
2.09025
2.56871
3.04668
3.49966
3.90263
4.228
4.44549
4.52607
4.45002
4.21554
3.8485
3.42489
3.00559
2.61035
2.25053
1.93124
1.65285
1.4036
1.19731
1.03579
0.900009
0.783316
0.683929
0.599166
0.528143
0.471527
0.431007
0.410731
0.436031
0.685912
1.99963
0.745022
0.952931
0.609031
0.524403
0.466567
0.426377
0.39837
0.378927
0.365579
0.356588
0.350716
0.347069
0.345098
0.344247
0.344006
0.344361
0.345191
0.346273
0.347575
0.34904
0.35064
0.352364
0.354197
0.356107
0.358103
0.360241
0.362526
0.364975
0.367596
0.370398
0.373413
1.28464
1.7064
2.18815
2.70078
3.2188
3.71925
4.17966
4.57537
4.87756
5.05422
5.07633
4.92779
4.61369
4.16808
3.6757
3.20056
2.76085
2.36575
2.01837
1.71755
1.45002
1.23007
1.05609
0.913145
0.794399
0.693287
0.606973
0.534428
0.476172
0.433874
0.411948
0.436794
0.691124
2.02038
0.714972
0.948851
1.32265
0.591269
0.51269
0.458409
0.420684
0.394413
0.376212
0.363754
0.355397
0.349971
0.346643
0.344905
0.344176
0.343995
0.344446
0.34528
0.346385
0.347684
0.34915
0.350742
0.35246
0.354241
0.356107
0.358103
0.360241
0.362526
0.364975
0.36758
0.370377
0.373406
1.77027
2.27871
2.82232
3.37619
3.9186
4.42934
4.88729
5.26724
5.53809
5.66567
5.62169
5.39507
4.99855
4.47417
3.91436
3.38534
2.90318
2.47469
2.10089
1.77899
1.49423
1.25719
1.07343
0.927631
0.806631
0.703627
0.61561
0.541403
0.48136
0.437116
0.413386
0.437661
0.696604
2.04272
0.687377
0.901092
1.31875
1.8247
0.574709
0.501373
0.45048
0.415149
0.390574
0.373589
0.361998
0.354258
0.349273
0.346261
0.344739
0.344121
0.343996
0.344532
0.345371
0.346494
0.347792
0.349257
0.350843
0.352507
0.354241
0.356107
0.358103
0.360241
0.362526
0.364952
0.367546
0.370355
0.373398
2.3621
2.93383
3.51963
4.09863
4.65255
5.1636
5.61129
5.96861
6.201
6.2721
6.15566
5.847
5.36699
4.76502
4.14004
3.55954
3.03716
2.57727
2.17872
1.83708
1.53064
1.28031
1.09255
0.943625
0.820151
0.715068
0.625182
0.549158
0.487168
0.440802
0.415058
0.438679
0.703058
2.06748
0.662046
0.855943
1.2496
1.82196
2.43251
0.55888
0.490361
0.442772
0.409776
0.386859
0.37106
0.360315
0.353182
0.348638
0.345927
0.344597
0.34408
0.34401
0.344616
0.345463
0.346601
0.347898
0.349362
0.350892
0.352507
0.354241
0.356107
0.358103
0.360241
0.362499
0.364907
0.367511
0.370333
0.37339
3.03574
3.65004
4.26071
4.85094
5.40582
5.90969
6.34147
6.67062
6.85817
6.86628
6.67238
6.2795
5.71665
5.03953
4.35228
3.72303
3.16282
2.67353
2.25188
1.88462
1.56157
1.30575
1.11364
0.961307
0.835116
0.727751
0.635813
0.557799
0.493688
0.444996
0.417046
0.439845
0.709864
2.09392
0.638331
0.813658
1.18156
1.7339
2.43184
3.12105
0.543577
0.479647
0.435294
0.404575
0.383277
0.368632
0.358719
0.352196
0.348071
0.345634
0.344476
0.344051
0.344038
0.344697
0.345557
0.346706
0.348004
0.349414
0.350891
0.352507
0.354241
0.356107
0.358103
0.360208
0.362443
0.36486
0.367476
0.37031
0.373382
3.76821
4.40641
5.02673
5.6166
6.16478
6.65667
7.06877
7.36514
7.50203
7.44151
7.16676
6.68938
6.04591
5.29704
4.55097
3.87593
3.28034
2.7636
2.3114
1.92482
1.59544
1.33373
1.13693
0.980876
0.851705
0.741834
0.647642
0.56745
0.501025
0.449795
0.419364
0.441264
0.717913
2.12332
0.615893
0.773845
1.11516
1.64552
2.32741
3.12296
3.86595
0.528743
0.469253
0.428062
0.399559
0.379836
0.366326
0.357251
0.35131
0.347565
0.345381
0.344373
0.344029
0.344084
0.344774
0.345654
0.346812
0.348055
0.349413
0.350891
0.352507
0.354241
0.356107
0.358066
0.360142
0.362385
0.364813
0.367439
0.370287
0.373374
4.53698
5.18234
5.79932
6.3805
6.91749
7.3952
7.78522
8.04463
8.12542
7.99176
7.63456
7.07429
6.35377
5.53734
4.73626
4.01852
3.38995
2.83661
2.36158
1.96864
1.63254
1.36452
1.16265
1.00256
0.870121
0.757499
0.660833
0.578254
0.509308
0.455293
0.422147
0.442871
0.726485
2.15435
0.594577
0.736379
1.05016
1.55727
2.22163
3.00419
3.8697
4.64291
0.51438
0.459205
0.421093
0.39474
0.376566
0.364203
0.355929
0.350515
0.347111
0.345164
0.344286
0.344003
0.344141
0.344853
0.345755
0.346862
0.348052
0.349412
0.350891
0.352507
0.354241
0.356066
0.357991
0.360074
0.362326
0.364764
0.367402
0.370263
0.373365
5.31972
5.95756
6.56177
7.12946
7.65415
8.11756
8.48373
8.70203
8.72166
8.51177
8.07256
7.43271
6.63982
5.76061
4.90852
4.15115
3.47854
2.89799
2.41607
2.0164
1.67316
1.39841
1.19109
1.0266
0.890592
0.774957
0.675575
0.590382
0.518684
0.461634
0.425399
0.444932
0.7366
2.19489
0.574298
0.701298
0.986705
1.46874
2.11489
2.88367
3.73795
4.6463
5.42801
0.500506
0.449532
0.414403
0.390163
0.373553
0.362286
0.354738
0.3498
0.346705
0.344976
0.344214
0.343981
0.344207
0.344939
0.345804
0.346856
0.348052
0.349412
0.350891
0.352507
0.354197
0.355983
0.357914
0.360005
0.362266
0.364713
0.367363
0.370238
0.373356
6.09418
6.71373
7.29945
7.85297
8.36721
8.81727
9.15788
9.33059
9.28462
8.99722
8.47849
7.7639
6.90421
5.9673
5.06823
4.25805
3.55286
2.96447
2.47522
2.0684
1.71761
1.4357
1.22252
1.05328
0.913376
0.794444
0.692088
0.604032
0.529339
0.468949
0.429362
0.447197
0.749506
2.24385
0.554991
0.668667
0.925197
1.37981
2.00665
2.76158
3.60478
4.50199
5.42735
6.19825
0.487152
0.440262
0.408055
0.385946
0.370833
0.360558
0.353665
0.349159
0.346347
0.344814
0.344152
0.343973
0.344289
0.344975
0.345798
0.346856
0.348052
0.349413
0.350892
0.352459
0.354107
0.355898
0.357836
0.359934
0.362203
0.364662
0.367324
0.370213
0.373347
6.84045
7.4346
8.00091
8.54353
9.05065
9.48891
9.80163
9.92377
9.80889
9.44485
8.85108
8.06791
7.14747
6.15802
5.19651
4.34756
3.6332
3.03642
2.53936
2.12499
1.76621
1.47669
1.25726
1.0829
0.938759
0.816232
0.710623
0.619443
0.541483
0.477468
0.434
0.450901
0.766207
2.29325
0.536604
0.63849
0.866228
1.2907
1.8965
2.63728
3.47011
4.35749
5.26959
6.18897
6.93215
0.474352
0.431486
0.402212
0.382141
0.368379
0.358998
0.3527
0.348585
0.34603
0.344673
0.344108
0.343994
0.344327
0.344959
0.345798
0.346856
0.348052
0.349414
0.350842
0.352362
0.354014
0.35581
0.357755
0.359861
0.36214
0.364609
0.367283
0.370187
0.373338
7.54057
8.1076
8.65868
9.19518
9.7
10.1281
10.4089
10.4752
10.2899
9.8526
9.19012
8.34531
7.3704
6.31043
5.30365
4.44409
3.71994
3.11422
2.60886
2.18648
1.81928
1.52172
1.29564
1.11577
0.967053
0.840621
0.731474
0.636884
0.555383
0.487376
0.440831
0.455269
0.785356
2.34263
0.519103
0.610688
0.810477
1.20191
1.7843
2.51006
3.33322
4.21239
5.11407
6.01508
6.90824
7.61045
0.462234
0.423431
0.396946
0.37871
0.366164
0.357593
0.351831
0.34807
0.345749
0.344559
0.3441
0.343993
0.344314
0.344956
0.345798
0.346856
0.348055
0.349362
0.35074
0.352262
0.35392
0.35572
0.357672
0.359786
0.362074
0.364555
0.367241
0.37016
0.373328
8.18072
8.72482
9.26135
9.79479
10.3015
10.725
10.9728
10.9789
10.7245
10.2197
9.49621
8.59716
7.54722
6.43725
5.41885
4.54806
3.81348
3.19824
2.68405
2.25321
1.87715
1.57112
1.33799
1.15224
0.998595
0.867948
0.754963
0.65669
0.571349
0.501207
0.450134
0.461762
0.806192
2.39145
0.502584
0.585105
0.758609
1.11417
1.67016
2.37938
3.19314
4.06594
4.95982
5.84748
6.71456
7.56432
8.2188
0.451122
0.41619
0.392202
0.375616
0.364167
0.356326
0.351048
0.347608
0.345514
0.3445
0.344083
0.34396
0.344316
0.344956
0.345798
0.346862
0.348003
0.349255
0.350637
0.35216
0.353823
0.355628
0.357587
0.359709
0.362007
0.364499
0.367198
0.370133
0.373319
8.75064
9.27523
9.81027
10.3514
10.8578
11.2715
11.4857
11.4301
11.111
10.5467
9.77064
8.79485
7.69352
6.573
5.54248
4.65985
3.91421
3.28883
2.76528
2.32549
1.94012
1.6252
1.38463
1.19265
1.03374
0.898561
0.781474
0.679225
0.593173
0.519874
0.461733
0.468713
0.829513
2.4394
0.487434
0.561672
0.711188
1.02845
1.55436
2.24493
3.04893
3.91694
4.80613
5.68431
6.53262
7.34667
8.1372
8.749
0.441158
0.409684
0.387929
0.372827
0.362366
0.355181
0.35034
0.347211
0.345361
0.344452
0.344043
0.343957
0.344316
0.344958
0.345804
0.346811
0.347896
0.349146
0.350531
0.352056
0.353723
0.355534
0.3575
0.359631
0.361938
0.364442
0.367155
0.370106
0.373309
9.24697
9.75931
10.3038
10.8652
11.375
11.766
11.9411
11.8258
11.4494
10.835
9.983
8.95713
7.84908
6.71792
5.67488
4.77981
4.02246
3.38632
2.85284
2.40363
2.0085
1.68427
1.4359
1.23733
1.07283
0.932849
0.81137
0.709687
0.622026
0.541618
0.475399
0.477781
0.856014
2.48588
0.473824
0.540654
0.668824
0.94594
1.43742
2.10656
2.8998
3.76412
4.65163
5.52476
6.3596
7.14723
7.89266
8.61011
9.18377
0.432237
0.403837
0.384083
0.370314
0.360738
0.354145
0.349726
0.346931
0.345256
0.344398
0.344041
0.343957
0.344314
0.344974
0.345754
0.346704
0.347788
0.349036
0.350423
0.351949
0.353621
0.355438
0.35741
0.35955
0.361867
0.364384
0.367111
0.37008
0.3733
9.65689
10.1709
10.7398
11.3308
11.8464
12.2023
12.3335
12.1653
11.7411
11.0537
10.1554
9.12805
8.01382
6.87213
5.81627
4.90824
4.13855
3.49101
2.94701
2.48787
2.08253
1.74858
1.49206
1.28659
1.11623
0.971135
0.851375
0.749198
0.65449
0.566568
0.492289
0.488466
0.88469
2.53065
0.461619
0.521988
0.632369
0.868682
1.32021
1.96429
2.74503
3.60618
4.49473
5.36731
6.19455
6.96254
7.67244
8.3368
8.97755
9.51536
0.424254
0.398585
0.380622
0.368044
0.359262
0.353239
0.349272
0.346755
0.345177
0.344396
0.344041
0.34396
0.344327
0.344938
0.345652
0.346598
0.34768
0.348923
0.350312
0.35184
0.353516
0.355339
0.357318
0.359468
0.361795
0.364326
0.367069
0.370055
0.373292
9.97662
10.5089
11.1194
11.7467
12.2624
12.5719
12.6575
12.4491
11.956
11.2284
10.3345
9.30702
8.18749
7.03559
5.96675
5.04532
4.2627
3.60313
3.04801
2.5784
2.16239
1.81833
1.55333
1.34069
1.16416
1.02178
0.902243
0.792496
0.690639
0.59538
0.512389
0.501762
0.918015
2.57293
0.4507
0.505278
0.601727
0.799952
1.20481
1.81844
2.58401
3.44181
4.33373
5.21014
6.03567
6.79139
7.47381
8.09292
8.66847
9.23039
9.73841
0.417113
0.393867
0.377501
0.365988
0.357968
0.352552
0.348999
0.346651
0.345175
0.344396
0.344043
0.343992
0.344288
0.344851
0.345555
0.34649
0.34757
0.348808
0.350199
0.351729
0.353409
0.355238
0.357224
0.359384
0.361723
0.36427
0.367029
0.37003
0.373283
10.2019
10.7747
11.4448
12.1081
12.6109
12.8664
12.9094
12.6486
12.1235
11.4064
10.5191
9.4931
8.3695
7.20805
6.1263
5.19112
4.39503
3.72281
3.15597
2.67535
2.24819
1.89364
1.61986
1.39975
1.22679
1.08487
0.95664
0.839356
0.730593
0.6281
0.53672
0.517858
0.954193
2.61259
0.440954
0.490253
0.575757
0.741187
1.09592
1.67065
2.41631
3.26965
4.16673
5.05118
5.88094
6.63159
7.2953
7.87814
8.39722
8.8797
9.35789
9.84335
0.410724
0.38962
0.374678
0.36418
0.356967
0.352146
0.348859
0.34665
0.345175
0.344397
0.344083
0.343994
0.344205
0.344772
0.34546
0.34638
0.347459
0.34869
0.350083
0.351615
0.353299
0.355135
0.357128
0.359301
0.361654
0.364216
0.366989
0.370006
0.373275
10.3302
10.9714
11.7156
12.4008
12.878
13.0831
13.0671
12.7973
12.289
11.5853
10.7071
9.68493
8.55895
7.38897
6.29463
5.34555
4.53554
3.85008
3.27091
2.77872
2.33993
1.97451
1.69163
1.4759
1.30325
1.15081
1.01397
0.889402
0.774082
0.665021
0.565274
0.53791
0.996051
2.64879
0.43227
0.476737
0.553444
0.691882
0.996916
1.52597
2.243
3.08841
3.99164
4.88809
5.72804
6.48084
7.13425
7.69086
8.16432
8.57712
8.96331
9.34809
9.82117
0.404994
0.385789
0.372194
0.362763
0.356385
0.351963
0.34886
0.346649
0.345176
0.344452
0.3441
0.343972
0.344138
0.344693
0.345367
0.346268
0.347346
0.348571
0.349965
0.351499
0.353186
0.35503
0.357033
0.35922
0.361586
0.364163
0.366951
0.369983
0.373267
10.3586
11.1042
11.914
12.6057
13.0447
13.2018
13.1709
12.9341
12.4493
11.762
10.8962
9.88064
8.7545
7.57749
6.47122
5.50828
4.68402
3.9848