/*--------------------------------*- C++ -*----------------------------------*\
  =========                 |
  \\      /  F ield         | OpenFOAM: The Open Source CFD Toolbox
   \\    /   O peration     | Website:  https://openfoam.org
    \\  /    A nd           | Version:  8
     \\/     M anipulation  |
\*---------------------------------------------------------------------------*/
FoamFile
{
    version     2.0;
    format      ascii;
    class       volScalarField;
    location    "0";
    object      CH4;
}
// * * * * * * * * * * * * * * * * * * * * * * * * * * * * * * * * * * * * * //

dimensions      [0 0 0 0 0 0 0];

internalField   nonuniform List<scalar> 
15677
(
7.85127e-49
1.68572e-48
5.10855e-48
3.62966e-48
7.73237e-48
4.1873e-47
6.51568e-48
1.66137e-47
5.45004e-47
3.65962e-46
1.02141e-47
4.53875e-47
9.73599e-47
4.66647e-46
3.82395e-45
1.51326e-47
1.11724e-46
2.60927e-46
7.73555e-46
4.85182e-45
4.07339e-44
2.21929e-47
2.23753e-46
8.41641e-46
1.83526e-45
7.71741e-45
5.16462e-44
4.49993e-43
3.28852e-47
3.94678e-46
2.32234e-45
6.05741e-45
1.65534e-44
8.07278e-44
5.71744e-43
4.99404e-42
4.95053e-47
6.56741e-46
5.19383e-45
2.09407e-44
5.02248e-44
1.63736e-43
8.85863e-43
6.37108e-42
5.37211e-41
7.5598e-47
1.06861e-45
1.01928e-44
5.93311e-44
1.91885e-43
4.49358e-43
1.73805e-42
9.83798e-42
6.89519e-41
5.65658e-40
1.16712e-46
1.73073e-45
1.86974e-44
1.39781e-43
6.57293e-43
1.69187e-42
4.46078e-42
1.88817e-41
1.06698e-40
7.31908e-40
5.77019e-39
1.8156e-46
2.80942e-45
3.31548e-44
2.93682e-43
1.81974e-42
6.77764e-42
1.57483e-41
4.61028e-41
2.02895e-40
1.13951e-39
7.53595e-39
5.71322e-38
2.83788e-46
4.5713e-45
5.77857e-44
5.78174e-43
4.33368e-42
2.22133e-41
6.76962e-41
1.51886e-40
4.81482e-40
2.16043e-39
1.18366e-38
7.53984e-38
5.51329e-37
4.43903e-46
7.43593e-45
9.97211e-44
1.09569e-42
9.42997e-42
6.02707e-41
2.57594e-40
6.60439e-40
1.50462e-39
5.03489e-39
2.24943e-38
1.19738e-37
7.36122e-37
5.27509e-36
6.67731e-46
1.2043e-44
1.70519e-43
2.0239e-42
1.94093e-41
1.45011e-40
7.93738e-40
2.84699e-39
6.36718e-39
1.51359e-38
5.19567e-38
2.28973e-37
1.18319e-36
7.13646e-36
5.13364e-35
9.4025e-46
1.86309e-44
2.88127e-43
3.65962e-42
3.84428e-41
3.23918e-40
2.11029e-39
9.94254e-39
2.99306e-38
6.18036e-38
1.52276e-37
5.27149e-37
2.28047e-36
1.16294e-35
7.05778e-35
4.98643e-34
1.26132e-45
2.68024e-44
4.60797e-43
6.47788e-42
7.37637e-41
6.87596e-40
5.11175e-39
2.91774e-38
1.18337e-37
3.05637e-37
6.01726e-37
1.51921e-36
5.26091e-36
2.26214e-35
1.171e-34
6.9788e-34
4.67572e-33
1.6169e-45
3.65847e-44
6.79144e-43
1.07471e-41
1.37261e-40
1.40068e-39
1.16188e-38
7.65367e-38
3.83884e-37
1.34772e-36
3.03894e-36
5.84047e-36
1.50367e-35
5.22142e-35
2.31127e-34
1.18191e-33
6.66966e-33
4.15843e-32
1.98428e-45
4.75755e-44
9.44758e-43
1.62635e-41
2.36809e-40
2.74391e-39
2.51102e-38
1.86045e-37
1.08992e-36
4.81852e-36
1.4714e-35
2.96364e-35
5.66771e-35
1.48016e-34
5.37452e-34
2.37545e-33
1.15464e-32
6.05441e-32
3.4895e-31
2.33316e-45
5.90834e-44
1.24741e-42
2.30889e-41
3.68577e-40
4.93043e-39
5.17853e-38
4.26144e-37
2.82976e-36
1.47922e-35
5.79053e-35
1.55e-34
2.86693e-34
5.50122e-34
1.51857e-33
5.59089e-33
2.36739e-32
1.07291e-31
5.19397e-31
2.74035e-30
2.62829e-45
7.01538e-44
1.56839e-42
3.09771e-41
5.34629e-40
7.90325e-39
9.70287e-38
9.24696e-37
6.86052e-36
4.09666e-35
1.91932e-34
6.68456e-34
1.59033e-33
2.76527e-33
5.5382e-33
1.58387e-32
5.65337e-32
2.24748e-31
9.43897e-31
4.17601e-30
2.00693e-29
2.82484e-45
7.96514e-44
1.88099e-42
3.94497e-41
7.29408e-40
1.17251e-38
1.60324e-37
1.80668e-36
1.56451e-35
1.04955e-34
5.65945e-34
2.38778e-33
7.45602e-33
1.60447e-32
2.74156e-32
5.71209e-32
1.61213e-31
5.45709e-31
2.02459e-30
7.79432e-30
3.13578e-29
1.36658e-28
2.90836e-45
8.61039e-44
2.15269e-42
4.77998e-41
9.41315e-40
1.62793e-38
2.43472e-37
3.07787e-36
3.18547e-35
2.51137e-34
1.52905e-33
7.47974e-33
2.86115e-32
8.10557e-32
1.62955e-31
2.76319e-31
5.77771e-31
1.57148e-30
5.0132e-30
1.71465e-29
6.01946e-29
2.19215e-28
8.61906e-28
2.89455e-45
8.89825e-44
2.34051e-42
5.51461e-41
1.15265e-39
2.13002e-38
3.44236e-37
4.78674e-36
5.59467e-35
5.32305e-34
3.83095e-33
2.12592e-32
9.48971e-32
3.32694e-31
8.66927e-31
1.63438e-30
2.73791e-30
5.6277e-30
1.46295e-29
4.33703e-29
1.36022e-28
4.33296e-28
1.42076e-27
5.02966e-27
2.80601e-45
8.87425e-44
2.42759e-42
6.03031e-41
1.3408e-39
2.63683e-38
4.56891e-37
6.89517e-36
8.91176e-35
9.63295e-34
8.43969e-33
5.56128e-32
2.82945e-31
1.15935e-30
3.72649e-30
8.96088e-30
1.60008e-29
2.62965e-29
5.25489e-29
1.28593e-28
3.52132e-28
1.00708e-27
2.89371e-27
8.52747e-27
2.7138e-26
2.66543e-45
8.60829e-44
2.42565e-42
6.27703e-41
1.47485e-39
3.09353e-38
5.72042e-37
9.28767e-36
1.30823e-34
1.57141e-33
1.57195e-32
1.27087e-31
7.69157e-31
3.58981e-30
1.35238e-29
4.00493e-29
8.9368e-29
1.5174e-28
2.43113e-28
4.65452e-28
1.06336e-27
2.67308e-27
6.92407e-27
1.79091e-26
4.73528e-26
1.35434e-25
2.49271e-45
8.1722e-44
2.35399e-42
6.28333e-41
1.54083e-39
3.42372e-38
6.77101e-37
1.17657e-35
1.78893e-34
2.351e-33
2.62483e-32
2.43235e-31
1.81414e-30
1.00931e-29
4.33516e-29
1.50561e-28
4.12101e-28
8.57006e-28
1.3856e-27
2.14414e-27
3.89289e-27
8.23964e-27
1.8866e-26
4.41523e-26
1.0258e-25
2.43307e-25
6.26859e-25
2.3038e-45
7.6298e-44
2.23289e-42
6.09987e-41
1.54527e-39
3.59064e-38
7.5419e-37
1.40561e-35
2.29381e-34
3.26426e-33
4.00166e-32
4.15128e-31
3.56216e-30
2.45346e-29
1.25668e-28
4.97721e-28
1.59677e-27
4.05021e-27
7.86869e-27
1.20924e-26
1.7936e-26
3.0591e-26
5.94659e-26
1.23631e-25
2.60681e-25
5.43723e-25
1.15977e-24
2.71077e-24
2.11056e-45
7.03258e-44
2.08057e-42
5.78094e-41
1.50079e-39
3.60825e-38
7.9418e-37
1.57628e-35
2.76684e-34
4.23777e-33
5.64174e-32
6.44561e-31
6.21159e-30
4.93697e-29
3.14216e-28
1.48325e-27
5.42407e-27
1.60977e-26
3.78865e-26
6.88018e-26
1.00343e-25
1.41476e-25
2.24353e-25
3.99128e-25
7.50658e-25
1.42467e-24
2.67341e-24
5.16622e-24
1.12148e-23
1.92124e-45
6.4192e-44
1.91184e-42
5.37578e-41
1.42118e-39
3.50628e-38
7.99822e-37
1.66712e-35
3.12499e-34
5.16303e-33
7.41639e-32
9.22922e-31
9.82382e-30
8.79278e-29
6.47287e-28
3.80627e-27
1.65647e-26
5.59737e-26
1.53771e-25
3.35993e-25
5.70962e-25
7.87327e-25
1.04547e-24
1.53389e-24
2.48472e-24
4.22126e-24
7.2228e-24
1.2278e-23
2.20369e-23
4.81889e-23
1.7412e-45
5.81674e-44
1.73787e-42
4.92467e-41
1.31908e-39
3.31801e-38
7.77753e-37
1.68304e-35
3.32061e-34
5.87545e-33
9.12904e-32
1.22919e-30
1.42899e-29
1.41624e-28
1.17677e-27
8.0164e-27
4.35375e-26
1.74717e-25
5.45711e-25
1.3881e-24
2.8173e-24
4.47554e-24
5.81285e-24
7.21805e-24
9.74349e-24
1.43382e-23
2.20259e-23
3.41852e-23
5.39296e-23
9.78739e-23
3.0334e-22
1.57354e-45
5.24291e-44
1.56654e-42
4.45807e-41
1.20487e-39
3.07424e-38
7.35588e-37
1.63805e-35
3.36144e-34
6.27511e-33
1.04731e-31
1.52969e-30
1.92901e-29
2.0931e-28
1.92978e-27
1.4869e-26
9.36782e-26
4.69812e-25
1.73828e-24
5.01739e-24
1.18127e-23
2.22591e-23
3.30076e-23
4.01753e-23
4.64043e-23
5.74482e-23
7.68136e-23
1.07241e-22
1.54434e-22
2.45735e-22
6.17248e-22
1.30138e-21
1.41975e-45
4.70815e-44
1.40304e-42
3.99754e-41
1.08643e-39
2.80037e-38
6.80448e-37
1.54864e-35
3.27522e-34
6.37178e-33
1.12486e-31
1.77026e-30
2.4282e-29
2.86504e-28
2.89821e-27
2.4832e-26
1.77255e-25
1.03216e-24
4.77613e-24
1.62804e-23
4.33943e-23
9.44899e-23
1.65125e-22
2.28136e-22
2.59178e-22
2.77606e-22
3.14765e-22
3.83879e-22
4.97115e-22
7.19628e-22
1.56302e-21
2.66969e-21
4.42962e-21
1.28027e-45
4.21764e-44
1.25043e-42
3.55728e-41
9.69309e-40
2.51567e-38
6.18237e-37
1.43046e-35
3.09582e-34
6.21714e-33
1.14622e-31
1.91318e-30
2.83626e-29
3.65015e-28
4.02416e-27
3.79121e-26
3.01538e-25
1.99178e-24
1.07062e-23
4.56475e-23
1.43191e-22
3.52091e-22
7.08374e-22
1.14689e-21
1.47374e-21
1.55972e-21
1.54587e-21
1.60912e-21
1.82134e-21
2.35823e-21
4.61891e-21
6.82678e-21
9.19185e-21
1.28503e-20
1.15476e-45
3.77299e-44
1.1103e-42
3.1458e-41
8.57202e-40
2.23381e-38
5.53438e-37
1.29654e-35
2.85589e-34
5.87698e-33
1.12038e-31
1.9573e-30
3.08596e-29
4.30643e-28
5.19187e-27
5.34232e-26
4.68249e-25
3.45147e-24
2.10646e-23
1.04343e-22
4.09309e-22
1.18007e-21
2.67376e-21
4.96566e-21
7.44284e-21
8.8864e-21
8.75419e-21
8.03994e-21
7.7901e-21
8.75411e-21
1.52422e-20
2.03918e-20
2.38125e-20
2.7038e-20
3.30338e-20
3.37338e-44
9.84182e-46
9.8316e-43
2.76748e-41
7.52311e-40
1.96377e-38
4.89223e-37
1.1568e-35
2.58274e-34
5.41563e-33
1.05939e-31
1.91723e-30
3.17129e-29
4.72058e-28
6.19113e-27
6.98373e-26
6.70087e-25
5.45313e-24
3.71863e-23
2.09312e-22
9.53781e-22
3.43666e-21
9.09406e-21
1.89656e-20
3.24934e-20
4.50745e-20
5.00255e-20
4.59721e-20
3.95463e-20
3.7762e-20
5.67211e-20
6.79299e-20
7.2182e-20
7.11439e-20
7.05706e-20
7.7054e-20
8.6884e-43
2.75543e-44
7.85397e-46
2.42387e-41
6.55777e-40
1.71096e-38
4.27679e-37
1.01823e-35
2.29718e-34
4.88751e-33
9.75338e-32
1.8139e-30
3.1143e-29
4.8759e-28
6.84193e-27
8.4229e-26
8.8824e-25
7.92953e-24
5.97952e-23
3.76551e-22
1.95083e-21
8.16195e-21
2.69678e-20
6.54139e-20
1.25469e-19
1.98297e-19
2.54833e-19
2.63774e-19
2.28287e-19
1.92578e-19
2.43032e-19
2.54475e-19
2.43981e-19
2.19519e-19
1.88873e-19
1.6721e-19
1.65665e-19
2.11458e-41
6.75615e-43
2.0589e-44
6.13876e-46
5.68015e-40
1.47815e-38
3.70048e-37
8.8542e-36
2.01388e-34
4.33425e-33
8.78518e-32
1.66875e-30
2.9491e-29
4.8029e-28
7.10774e-27
9.39072e-26
1.08443e-24
1.06659e-23
8.84019e-23
6.1655e-22
3.57768e-21
1.70234e-20
6.52674e-20
1.97426e-19
4.38537e-19
7.73436e-19
1.1289e-18
1.34889e-18
1.31464e-18
1.11229e-18
1.21173e-18
1.09251e-18
9.26357e-19
7.55686e-19
5.94233e-19
4.55399e-19
3.65104e-19
3.31995e-19
4.88941e-40
1.56069e-41
4.69088e-43
1.51259e-44
4.70506e-46
1.26637e-38
3.16974e-37
7.61088e-36
1.74241e-34
3.78514e-33
7.76856e-32
1.50034e-30
2.71177e-29
4.55403e-28
7.02685e-27
9.81851e-26
1.22076e-24
1.31929e-23
1.20746e-22
9.27303e-22
5.96822e-21
3.18369e-20
1.38828e-19
4.86829e-19
1.34627e-18
2.7372e-18
4.44264e-18
6.00875e-18
6.73647e-18
6.37564e-18
6.68907e-18
5.4215e-18
4.02174e-18
2.92138e-18
2.08766e-18
1.46177e-18
1.01164e-18
7.42616e-19
6.25435e-19
1.07544e-38
3.41891e-40
1.0039e-41
3.21561e-43
1.09299e-44
3.53876e-46
2.68688e-37
6.46627e-36
1.48842e-34
3.25924e-33
6.75928e-32
1.32303e-30
2.43404e-29
4.18669e-28
6.67478e-27
9.74854e-26
1.28563e-24
1.5009e-23
1.51442e-22
1.28706e-21
9.13724e-21
5.41386e-20
2.64853e-19
1.05612e-18
3.38146e-18
8.54074e-18
1.59008e-17
2.38116e-17
3.00721e-17
3.23979e-17
3.60144e-17
2.95237e-17
2.01145e-17
1.28994e-17
8.23718e-18
5.24497e-18
3.31226e-18
2.09188e-18
1.41865e-18
1.11516e-18
2.25145e-37
7.11405e-39
2.03269e-40
6.40723e-42
2.17568e-43
7.77231e-45
2.61262e-46
5.42533e-36
1.25476e-34
2.76765e-33
5.79339e-32
1.14695e-30
2.14064e-29
3.75231e-28
6.13771e-27
9.28224e-26
1.2829e-24
1.5935e-23
1.74261e-22
1.63808e-21
1.2896e-20
8.44235e-20
4.59318e-19
2.05582e-18
7.4813e-18
2.18406e-17
5.03701e-17
8.60169e-17
1.19509e-16
1.43326e-16
1.72225e-16
1.55886e-16
1.09708e-16
6.54632e-17
3.71007e-17
2.1142e-17
1.21365e-17
6.98101e-18
4.05858e-18
2.56234e-18
1.89263e-18
4.48695e-36
1.40728e-37
3.90527e-39
1.20619e-40
4.0521e-42
1.45286e-43
5.43993e-45
1.89465e-46
1.0424e-34
2.3159e-33
4.89175e-32
9.78627e-31
1.84909e-29
3.29145e-28
5.49455e-27
8.54138e-26
1.22526e-24
1.59948e-23
1.86675e-22
1.90799e-21
1.66679e-20
1.21238e-19
7.29963e-19
3.6375e-18
1.48622e-17
4.92735e-17
1.31046e-16
2.76141e-16
4.3413e-16
5.65736e-16
7.2691e-16
7.3405e-16
5.77064e-16
3.60218e-16
1.91655e-16
9.72494e-17
4.99749e-17
2.61032e-17
1.37904e-17
7.43649e-18
4.40048e-18
3.07228e-18
8.51074e-35
2.64806e-36
7.12234e-38
2.15026e-39
7.12137e-41
2.53735e-42
9.57441e-44
3.74765e-45
1.34959e-46
1.90579e-33
4.06448e-32
8.21794e-31
1.57067e-29
2.83296e-28
4.80832e-27
7.64046e-26
1.1289e-24
1.53352e-23
1.88641e-22
2.06393e-21
1.96666e-20
1.59235e-19
1.06722e-18
5.8941e-18
2.6837e-17
9.99045e-17
3.01391e-16
7.30168e-16
1.40854e-15
2.05206e-15
2.78172e-15
3.07762e-15
2.7133e-15
1.9012e-15
1.06736e-15
5.11995e-16
2.34769e-16
1.09732e-16
5.25683e-17
2.56961e-17
1.29403e-17
7.22041e-18
4.79035e-18
1.53667e-33
4.73807e-35
1.23461e-36
3.63913e-38
1.18396e-39
4.17797e-41
1.57182e-42
6.22187e-44
2.5415e-45
9.44182e-47
3.31465e-32
6.78227e-31
1.31182e-29
2.39545e-28
4.12423e-27
6.6724e-26
1.00952e-24
1.41575e-23
1.81714e-22
2.10154e-21
2.14992e-20
1.90448e-19
1.42514e-18
8.77686e-18
4.43501e-17
1.84104e-16
6.23444e-16
1.71052e-15
3.77892e-15
6.69849e-15
9.93243e-15
1.17975e-14
1.14188e-14
8.97457e-15
5.67009e-15
2.88868e-15
1.2596e-15
5.26141e-16
2.25384e-16
9.97417e-17
4.54145e-17
2.14888e-17
1.1368e-17
7.2013e-18
2.64073e-32
8.07162e-34
2.03173e-35
5.85424e-37
1.86689e-38
6.49975e-40
2.43168e-41
9.62595e-43
3.98808e-44
1.69605e-45
6.4889e-47
5.48413e-31
1.07552e-29
1.98952e-28
3.47155e-27
5.70456e-26
8.80119e-25
1.26646e-23
1.68234e-22
2.03572e-21
2.20761e-20
2.1054e-19
1.72863e-18
1.19212e-17
6.72815e-17
3.10319e-16
1.17222e-15
3.60712e-15
9.00291e-15
1.81807e-14
3.23721e-14
4.25449e-14
4.41697e-14
3.80364e-14
2.69213e-14
1.54585e-14
7.19854e-15
2.87495e-15
1.10191e-15
4.3565e-16
1.79283e-16
7.65039e-17
3.42025e-17
1.72395e-17
1.04719e-17
4.32014e-31
1.30893e-32
3.17876e-34
8.94758e-36
2.80158e-37
9.57881e-39
3.55115e-40
1.40282e-41
5.8247e-43
2.51988e-44
1.11361e-45
4.37968e-47
8.62544e-30
1.62008e-28
2.86694e-27
4.78079e-26
7.50248e-25
1.10284e-23
1.50656e-22
1.89176e-21
2.15245e-20
2.1818e-19
1.93347e-18
1.46691e-17
9.29675e-17
4.79654e-16
2.01506e-15
6.9169e-15
1.93344e-14
4.39488e-14
8.84706e-14
1.41119e-13
1.61717e-13
1.48786e-13
1.14983e-13
7.38426e-14
3.88064e-14
1.66327e-14
6.12588e-15
2.16931e-15
7.96803e-16
3.06781e-16
1.23377e-16
5.23799e-17
2.52666e-17
1.47741e-17
6.72212e-30
2.02399e-31
4.71496e-33
1.29743e-34
4.00638e-36
1.34376e-37
4.90353e-39
1.92864e-40
8.01354e-42
3.48045e-43
1.56875e-44
7.19221e-46
2.91284e-47
1.28831e-28
2.31808e-27
3.92609e-26
6.26183e-25
9.37746e-24
1.31121e-22
1.6974e-21
2.00972e-20
2.14306e-19
2.02323e-18
1.66051e-17
1.16061e-16
6.74224e-16
3.17295e-15
1.21217e-14
3.77816e-14
9.59747e-14
2.16391e-13
3.93671e-13
5.47452e-13
5.53623e-13
4.54925e-13
3.17719e-13
1.86428e-13
9.02756e-14
3.58434e-14
1.22562e-14
4.03631e-15
1.38566e-15
5.0195e-16
1.91229e-16
7.74526e-17
3.58983e-17
2.0277e-17
9.93025e-29
2.98375e-30
6.67566e-32
1.76894e-33
5.4524e-35
1.80715e-36
6.43051e-38
2.50065e-39
1.03993e-40
4.52833e-42
2.05216e-43
9.61802e-45
4.58502e-46
1.93356e-47
1.82675e-27
3.15193e-26
5.11516e-25
7.79764e-24
1.11267e-22
1.47763e-21
1.80864e-20
2.01249e-19
2.00347e-18
1.75517e-17
1.32959e-16
8.53792e-16
4.53578e-15
1.94364e-14
6.7453e-14
1.90888e-13
4.79645e-13
9.85369e-13
1.5611e-12
1.91167e-12
1.71919e-12
1.27055e-12
8.07404e-13
4.3583e-13
1.9574e-13
7.24611e-14
2.31493e-14
7.13218e-15
2.30143e-15
7.8845e-16
2.85879e-16
1.10925e-16
4.95802e-17
2.71387e-17
1.39109e-27
4.18105e-29
9.08127e-31
2.2837e-32
6.90575e-34
2.3398e-35
8.12391e-37
3.06412e-38
1.27052e-39
5.56202e-41
2.52919e-42
1.19298e-43
5.83198e-45
2.92633e-46
1.29091e-47
2.46091e-26
4.07892e-25
6.3386e-24
9.22103e-23
1.25211e-21
1.57644e-20
1.81866e-19
1.89401e-18
1.75298e-17
1.41956e-16
9.89558e-16
5.82343e-15
2.82394e-14
1.10056e-13
3.46821e-13
9.69678e-13
2.23835e-12
4.0019e-12
5.56822e-12
6.04562e-12
4.87001e-12
3.2602e-12
1.89832e-12
9.48952e-13
3.97827e-13
1.38157e-13
4.14764e-14
1.20227e-14
3.66553e-15
1.19327e-15
4.13537e-16
1.54306e-16
6.67323e-17
3.54957e-17
1.85015e-26
5.53219e-28
1.18581e-29
2.85552e-31
8.0613e-33
2.81775e-34
1.00925e-35
3.6109e-37
1.45481e-38
6.42588e-40
2.94579e-41
1.39473e-42
6.86941e-44
3.55109e-45
1.88462e-46
8.67271e-48
3.15677e-25
5.02339e-24
7.46118e-23
1.03456e-21
1.33513e-20
1.58914e-19
1.72075e-18
1.66949e-17
1.43013e-16
1.06678e-15
6.82377e-15
3.67285e-14
1.62374e-13
5.75187e-13
1.7908e-12
4.639e-12
9.31816e-12
1.4602e-11
1.79581e-11
1.74068e-11
1.26535e-11
7.7305e-12
4.15328e-12
1.93515e-12
7.61933e-13
2.49634e-13
7.08148e-14
1.94131e-14
5.61919e-15
1.74572e-15
5.80527e-16
2.09033e-16
8.7722e-17
4.54587e-17
2.34444e-25
6.90194e-27
1.45815e-28
3.54443e-30
8.93861e-32
3.016e-33
1.1906e-34
4.28595e-36
1.58322e-37
6.90397e-39
3.23222e-40
1.54278e-41
7.62801e-43
3.98492e-44
2.18888e-45
1.22484e-46
5.86742e-48
3.85721e-24
5.87868e-23
8.33358e-22
1.10055e-20
1.34686e-19
1.5095e-18
1.52644e-17
1.37256e-16
1.08369e-15
7.42126e-15
4.34657e-14
2.13699e-13
8.60611e-13
3.01507e-12
8.77579e-12
1.97922e-11
3.47967e-11
4.80774e-11
5.26201e-11
4.58744e-11
3.03238e-11
1.7035e-11
8.50308e-12
3.71579e-12
1.38191e-12
4.29436e-13
1.15696e-13
3.014e-14
8.31869e-15
2.47626e-15
7.92978e-16
2.76384e-16
1.12851e-16
5.71083e-17
2.83426e-24
8.19579e-26
1.65073e-27
4.27279e-29
1.02766e-30
2.82352e-32
1.23118e-33
5.05274e-35
1.76325e-36
6.8852e-38
3.2808e-39
1.61314e-40
8.02666e-42
4.21572e-43
2.34786e-44
1.36583e-45
8.03535e-47
4.00062e-48
4.48151e-23
6.52707e-22
8.82763e-21
1.10886e-19
1.28239e-18
1.34623e-17
1.26386e-16
1.04793e-15
7.59474e-15
4.76288e-14
2.55055e-13
1.14424e-12
4.56786e-12
1.51037e-11
3.83226e-11
7.55945e-11
1.16961e-10
1.43449e-10
1.40792e-10
1.11276e-10
6.74088e-11
3.50804e-11
1.63779e-11
6.75207e-12
2.38459e-12
7.0634e-13
1.81573e-13
4.51456e-14
1.19295e-14
3.41495e-15
1.05644e-15
3.57423e-16
1.42342e-16
7.04765e-17
3.26273e-23
9.35857e-25
1.71871e-26
4.68998e-28
1.26589e-29
2.65958e-31
9.93355e-33
5.37653e-34
2.07267e-35
6.98513e-37
2.99825e-38
1.56115e-39
8.02331e-41
4.23065e-42
2.37371e-43
1.40442e-44
8.62687e-46
5.32415e-47
2.75122e-48
4.93859e-22
6.87083e-21
8.86373e-20
1.05635e-18
1.14852e-17
1.12198e-16
9.71927e-16
7.39344e-15
4.90328e-14
2.81095e-13
1.37445e-12
6.12408e-12
2.33026e-11
6.7312e-11
1.49372e-10
2.58994e-10
3.55056e-10
3.89629e-10
3.45811e-10
2.4984e-10
1.3979e-10
6.78795e-11
2.98293e-11
1.16662e-11
3.93192e-12
1.11517e-12
2.74683e-13
6.5448e-14
1.66183e-14
4.58966e-15
1.37565e-15
4.52957e-16
1.76274e-16
8.54063e-17
3.56154e-22
1.03065e-23
1.69934e-25
4.4092e-27
1.49987e-28
3.24089e-30
6.1286e-32
4.26429e-33
2.34977e-34
7.99512e-36
2.67448e-37
1.3209e-38
7.47391e-40
4.05483e-41
2.27784e-42
1.36071e-43
8.5249e-45
5.51546e-46
3.56483e-47
1.91106e-48
5.1542e-21
6.85715e-20
8.42964e-19
9.48754e-18
9.62993e-17
8.6908e-16
6.90289e-15
4.79805e-14
2.90483e-13
1.51975e-12
7.38777e-12
3.16217e-11
1.05388e-10
2.6646e-10
5.1957e-10
7.97554e-10
9.7712e-10
9.68156e-10
7.84024e-10
5.22174e-10
2.71942e-10
1.24055e-10
5.16208e-11
1.9251e-11
6.2199e-12
1.69604e-12
4.01857e-13
9.20912e-14
2.25435e-14
6.02487e-15
1.75434e-15
5.63308e-16
2.14108e-16
9.71509e-17
3.67375e-21
1.08371e-22
1.69018e-24
3.46725e-26
1.47196e-27
4.58517e-29
5.36796e-31
1.81329e-32
2.03516e-33
9.75464e-35
2.84755e-36
1.00429e-37
5.985e-39
3.66833e-40
2.09665e-41
1.25161e-42
7.93713e-44
5.24998e-45
3.57118e-46
2.41541e-47
1.34452e-48
5.0954e-20
6.49149e-19
7.57867e-18
7.99773e-17
7.5149e-16
6.21659e-15
4.50295e-14
2.85035e-13
1.57209e-12
8.17454e-12
3.83508e-11
1.43833e-10
4.2e-10
9.34311e-10
1.614e-09
2.21469e-09
2.44931e-09
2.2128e-09
1.65011e-09
1.02164e-09
4.98914e-10
2.15198e-10
8.52635e-11
3.04629e-11
9.47402e-12
2.49302e-12
5.70213e-13
1.26089e-13
2.98478e-14
7.74049e-15
2.19421e-15
6.86719e-16
2.44384e-16
1.11575e-16
3.57927e-20
1.06957e-21
1.73824e-23
2.52207e-25
1.03145e-26
5.48504e-28
1.06858e-29
0
9.45067e-33
9.4068e-34
3.78527e-35
9.08313e-37
3.86494e-38
2.85846e-39
1.84988e-40
1.1069e-41
7.01225e-43
4.70775e-44
3.28146e-45
2.34456e-46
1.6601e-47
9.62365e-49
4.78209e-19
5.82759e-18
6.4168e-17
6.28929e-16
5.41886e-15
4.07937e-14
2.68217e-13
1.54211e-12
8.43634e-12
4.23717e-11
1.7377e-10
5.70893e-10
1.47006e-09
2.90616e-09
4.4966e-09
5.57605e-09
5.62545e-09
4.67982e-09
3.24274e-09
1.88141e-09
8.67636e-10
3.55978e-10
1.34981e-10
4.64006e-11
1.3942e-11
3.55242e-12
7.86767e-13
1.68384e-13
3.86518e-14
9.74699e-15
2.68835e-15
7.85768e-16
2.81294e-16
1.29739e-16
3.3081e-19
9.76277e-21
1.7616e-22
2.34516e-24
3.9006e-26
4.51371e-27
1.81999e-28
1.05109e-30
0
4.87644e-33
4.17633e-34
1.33604e-35
2.50378e-37
1.64818e-38
1.4326e-39
9.52502e-41
5.96208e-42
4.00366e-43
2.83991e-44
2.08359e-45
1.56395e-46
1.16227e-47
7.06142e-49
4.27082e-18
4.94893e-17
5.08612e-16
4.57752e-15
3.58225e-14
2.43835e-13
1.45003e-12
8.23624e-12
4.33987e-11
1.89689e-10
6.81114e-10
1.97927e-09
4.54894e-09
8.08536e-09
1.13283e-08
1.28269e-08
1.1921e-08
9.21671e-09
5.98474e-09
3.27852e-09
1.43715e-09
5.63943e-10
2.05604e-10
6.82676e-11
1.98839e-11
4.92015e-12
1.05812e-12
2.19788e-13
4.90261e-14
1.20138e-14
3.08688e-15
9.06793e-16
3.27883e-16
1.52932e-16
2.9204e-18
8.26484e-20
1.58223e-21
3.15057e-23
0
1.93916e-26
1.88216e-27
4.90334e-29
0
0
2.47574e-33
1.75846e-34
4.12799e-36
5.91494e-38
7.98952e-39
7.39984e-40
4.99273e-41
3.27529e-42
2.32973e-43
1.74362e-44
1.34637e-45
1.06444e-46
8.35218e-48
5.21906e-49
3.62978e-17
3.95441e-16
3.74251e-15
3.0551e-14
2.1524e-13
1.31783e-12
7.69577e-12
4.18604e-11
1.90899e-10
7.3067e-10
2.33115e-09
6.08159e-09
1.26259e-08
2.03737e-08
2.60799e-08
2.71975e-08
2.34847e-08
1.70141e-08
1.04327e-08
5.43359e-09
2.27758e-09
8.59022e-10
3.02396e-10
9.73217e-11
2.75574e-11
6.63959e-12
1.39008e-12
2.80818e-13
6.08222e-14
1.38531e-14
3.57527e-15
1.05998e-15
3.87524e-16
1.83004e-16
2.47463e-17
6.66972e-19
1.13367e-20
4.0495e-22
6.37493e-25
0
9.54493e-27
7.32399e-28
7.95304e-30
0
9.61403e-34
1.20885e-33
7.00455e-35
1.05286e-36
1.2866e-38
4.24672e-39
3.88871e-40
2.66251e-41
1.8353e-42
1.38236e-43
1.09132e-44
8.89169e-46
7.44805e-47
6.10401e-48
4.05127e-49
2.92419e-16
2.94791e-15
2.5293e-14
1.85018e-13
1.16456e-12
6.94685e-12
3.85464e-11
1.80416e-10
7.21197e-10
2.46702e-09
7.1197e-09
1.68872e-08
3.19423e-08
4.71072e-08
5.54559e-08
5.36331e-08
4.33353e-08
2.96287e-08
1.72731e-08
8.60579e-09
3.46793e-09
1.26281e-09
4.30838e-10
1.34806e-10
3.72047e-11
8.74838e-12
1.78631e-12
3.50672e-13
7.04514e-14
1.61158e-14
4.19599e-15
1.2567e-15
4.6508e-16
2.22659e-16
2.01058e-16
5.37144e-18
5.7017e-20
3.82242e-21
6.49673e-23
0
1.72538e-27
4.55405e-27
2.58118e-28
0
0
9.18681e-34
5.70847e-34
2.68914e-35
1.62067e-37
4.81225e-39
2.33922e-39
2.07047e-40
1.44524e-41
1.05006e-42
8.37795e-44
6.99222e-45
6.0479e-46
5.35385e-47
4.7192e-48
3.50846e-49
2.21511e-15
2.02579e-14
1.54975e-13
1.00457e-12
6.10191e-12
3.42714e-11
1.62671e-10
6.68241e-10
2.40226e-09
7.49686e-09
1.98343e-08
4.31127e-08
7.46747e-08
1.01079e-07
1.09969e-07
9.91785e-08
7.54344e-08
4.89712e-08
2.73043e-08
1.30839e-08
5.09317e-09
1.79769e-09
5.96339e-10
1.81881e-10
4.90301e-11
1.12681e-11
2.24152e-12
4.08054e-13
8.23566e-14
1.90067e-14
4.99682e-15
1.51343e-15
5.67687e-16
2.75955e-16
1.55569e-15
4.45354e-17
1.43462e-19
2.34084e-20
1.10646e-21
0
0
2.64019e-27
2.06658e-27
7.8658e-29
0
0
6.47452e-34
2.6681e-34
9.92598e-36
0
3.20805e-39
1.30161e-39
1.11761e-40
7.99502e-42
6.14728e-43
5.20836e-44
4.6226e-45
4.26822e-46
4.10343e-47
4.07598e-48
3.50813e-49
1.55742e-14
1.26268e-13
8.47544e-13
5.24262e-12
2.96836e-11
1.41726e-10
5.90934e-10
2.19554e-09
7.262e-09
2.09715e-08
5.12561e-08
1.02504e-07
1.63013e-07
2.0312e-07
2.05027e-07
1.73245e-07
1.24678e-07
7.72572e-08
4.14077e-08
1.91752e-08
7.24079e-09
2.48576e-09
8.03964e-10
2.39515e-10
6.31359e-11
1.41587e-11
2.62023e-12
4.79466e-13
9.76638e-14
2.27592e-14
6.04751e-15
1.85448e-15
7.06118e-16
3.49123e-16
1.13104e-14
3.80614e-16
0
6.86864e-20
9.06233e-21
2.35375e-22
0
0
2.02131e-27
8.89895e-28
1.83987e-29
0
0
4.06833e-34
1.24918e-34
3.43742e-36
0
2.07877e-39
7.32591e-40
6.12062e-41
4.51916e-42
3.70033e-43
3.34902e-44
3.20205e-45
3.23662e-46
3.52434e-47
4.07563e-48
4.05025e-49
9.95681e-14
6.99365e-13
4.42051e-12
2.52129e-11
1.20497e-10
5.05336e-10
1.91422e-09
6.59355e-09
2.03734e-08
5.48722e-08
1.24297e-07
2.29011e-07
3.34861e-07
3.85007e-07
3.61838e-07
2.87688e-07
1.96793e-07
1.16933e-07
6.05149e-08
2.71938e-08
9.99726e-09
3.34796e-09
1.05807e-09
3.08218e-10
7.93027e-11
1.66379e-11
3.09368e-12
5.71958e-13
1.17678e-13
2.7717e-14
7.45195e-15
2.31684e-15
8.97018e-16
4.52014e-16
7.51985e-14
3.30697e-15
0
0
3.23022e-20
3.22061e-21
1.51432e-23
0
0
1.25807e-27
3.61731e-28
1.86022e-30
0
1.7116e-34
2.39611e-34
5.88289e-35
1.0552e-36
0
1.33815e-39
4.17534e-40
3.40616e-41
2.62463e-42
2.31156e-43
2.27903e-44
2.40101e-45
2.76069e-46
3.52406e-47
4.71808e-48
5.2172e-49
5.63099e-13
3.66344e-12
2.10987e-11
1.00712e-10
4.22151e-10
1.61303e-09
5.69949e-09
1.85007e-08
5.38565e-08
1.35701e-07
2.84995e-07
4.83744e-07
6.50988e-07
6.92284e-07
6.07928e-07
4.56654e-07
2.98165e-07
1.70584e-07
8.55743e-08
3.74493e-08
1.34453e-08
4.40317e-09
1.36157e-09
3.87382e-10
9.38185e-11
1.97217e-11
3.71163e-12
6.93931e-13
1.44348e-13
3.43983e-14
9.36963e-15
2.95813e-15
1.16693e-15
6.00735e-16
4.39902e-13
2.71935e-14
0
0
8.55943e-21
1.44802e-20
1.01233e-21
0
0
4.48922e-28
6.84511e-28
1.38564e-28
0
0
1.81141e-34
1.38515e-34
2.79878e-35
2.35516e-37
0
8.70375e-40
2.41174e-40
1.93359e-41
1.58452e-42
1.55025e-43
1.69132e-44
2.03301e-45
2.76048e-46
4.10253e-47
6.10194e-48
7.07001e-49
2.98312e-12
1.74439e-11
8.3178e-11
3.47152e-10
1.32731e-09
4.75141e-09
1.59383e-08
4.92205e-08
1.35463e-07
3.19261e-07
6.20819e-07
9.70221e-07
1.20295e-06
1.18643e-06
9.77083e-07
6.962e-07
4.35612e-07
2.40853e-07
1.17519e-07
5.02395e-08
1.76625e-08
5.66677e-09
1.7146e-09
4.61944e-10
1.11599e-10
2.37752e-11
4.5338e-12
8.58089e-13
1.80649e-13
4.36088e-14
1.2052e-14
3.8711e-15
1.55964e-15
8.22626e-16
1.91078e-13
2.38083e-12
1.66608e-15
0
0
9.85946e-21
6.06702e-21
2.66256e-22
0
0
4.96065e-28
3.39701e-28
5.10723e-29
0
0
1.5329e-34
8.16747e-35
1.34375e-35
9.71592e-40
4.72504e-41
5.73064e-40
1.4147e-40
1.12865e-41
1.04742e-42
1.14381e-43
1.42243e-44
2.03285e-45
3.23594e-46
5.35219e-47
8.36341e-48
9.67475e-49
1.42674e-11
6.8115e-11
2.8257e-10
1.0751e-09
3.86078e-09
1.31944e-08
4.24741e-08
1.25351e-07
3.26144e-07
7.17345e-07
1.28873e-06
1.85338e-06
2.12053e-06
1.94575e-06
1.50865e-06
1.02375e-06
6.16151e-07
3.30346e-07
1.57251e-07
6.58489e-08
2.27191e-08
7.14891e-09
2.05909e-09
5.51294e-10
1.35098e-10
2.92102e-11
5.65149e-12
1.08409e-12
2.31274e-13
5.66366e-14
1.5909e-14
5.21043e-15
2.15026e-15
1.16607e-15
3.16071e-14
1.1826e-12
1.15417e-11
0
0
0
6.72323e-21
2.36756e-21
4.90277e-23
0
0
3.70714e-28
1.61715e-28
1.91784e-29
0
0
1.37107e-34
5.01259e-35
6.42609e-36
0
3.09017e-40
3.81721e-40
8.46873e-41
7.29211e-42
7.69769e-43
9.57839e-44
1.42211e-44
2.40051e-45
4.26696e-46
7.45937e-47
1.16886e-47
1.35646e-48
5.54166e-11
2.28516e-10
8.62234e-10
3.08364e-09
1.06116e-08
3.50474e-08
1.08908e-07
3.07394e-07
7.54169e-07
1.54256e-06
2.55428e-06
3.38034e-06
3.57681e-06
3.06453e-06
2.24628e-06
1.45748e-06
8.46758e-07
4.41585e-07
2.05635e-07
8.45459e-08
2.86775e-08
8.62684e-09
2.46273e-09
6.69644e-10
1.66763e-10
3.66586e-11
7.20735e-12
1.40335e-12
3.03831e-13
7.56097e-14
2.16325e-14
7.24418e-15
3.07305e-15
1.72082e-15
0
3.15935e-13
6.4129e-12
4.48222e-11
0
0
1.49534e-21
3.7533e-21
8.56339e-22
7.88408e-25
0
4.68687e-29
2.53035e-28
8.04682e-29
7.52974e-30
0
0
1.43507e-34
3.10467e-35
3.00852e-36
0
4.35885e-40
2.58235e-40
5.18038e-41
5.27894e-42
6.42188e-43
9.56851e-44
1.69042e-44
3.2012e-45
6.0581e-46
1.07103e-46
1.67574e-47
1.93316e-48
1.84039e-10
6.87566e-10
2.43668e-09
8.36681e-09
2.79667e-08
8.99338e-08
2.70359e-07
7.28299e-07
1.6776e-06
3.1778e-06
4.8404e-06
5.89892e-06
5.78933e-06
4.6505e-06
3.23633e-06
2.01562e-06
1.1342e-06
5.77001e-07
2.63499e-07
1.06588e-07
3.46806e-08
1.03204e-08
2.99645e-09
8.29265e-10
2.10333e-10
4.71091e-11
9.43095e-12
1.86738e-12
4.11057e-13
1.04171e-13
3.04361e-14
1.04562e-14
4.57922e-15
2.66182e-15
0
5.20837e-14
2.34998e-12
2.61046e-11
1.47769e-10
0
0
2.27562e-21
1.8371e-21
2.88991e-22
0
0
1.6131e-28
1.87801e-28
4.45183e-29
2.9051e-30
0
1.9906e-34
1.51284e-34
1.80902e-35
1.38579e-36
0
5.60987e-40
1.74799e-40
3.47859e-41
4.36018e-42
6.40671e-43
1.14078e-43
2.27779e-44
4.63138e-45
8.95206e-46
1.57992e-46
2.44529e-47
2.78753e-48
5.46635e-10
1.91391e-09
6.5141e-09
2.17937e-08
7.14011e-08
2.24445e-07
6.52237e-07
1.66967e-06
3.59106e-06
6.27398e-06
8.77966e-06
9.86894e-06
9.01613e-06
6.82078e-06
4.52592e-06
2.71595e-06
1.48499e-06
7.38908e-07
3.31646e-07
1.28851e-07
4.14154e-08
1.25473e-08
3.71361e-09
1.04865e-09
2.71614e-10
6.2149e-11
1.27004e-11
2.56319e-12
5.74991e-13
1.48774e-13
4.45304e-14
1.57577e-14
7.16093e-15
4.34815e-15
0
0
7.69815e-13
1.08675e-11
8.74566e-11
4.339e-10
0
0
1.77885e-21
8.37467e-22
9.47635e-23
0
0
2.48068e-28
1.68011e-28
2.591e-29
8.88644e-31
0
6.58511e-34
1.33951e-34
9.53381e-36
6.67867e-37
0
6.36075e-40
1.34567e-40
2.76855e-41
4.36874e-42
7.64456e-43
1.54512e-43
3.35521e-44
7.04393e-45
1.36134e-45
2.37608e-46
3.61538e-47
4.05643e-48
1.49907e-09
5.03521e-09
1.67198e-08
5.50744e-08
1.77889e-07
5.47226e-07
1.53211e-06
3.70444e-06
7.39437e-06
1.18721e-05
1.5259e-05
1.58616e-05
1.35469e-05
9.6967e-06
6.1613e-06
3.57551e-06
1.90528e-06
9.29539e-07
4.00438e-07
1.53359e-07
5.02015e-08
1.5517e-08
4.6933e-09
1.35608e-09
3.598e-10
8.43752e-11
1.76547e-11
3.64215e-12
8.34983e-13
2.21273e-13
6.81015e-14
2.49376e-14
1.18285e-14
7.56514e-15
0
0
2.08134e-13
4.32834e-12
3.84069e-11
2.56445e-10
1.17292e-09
0
9.68491e-23
1.20484e-21
3.79226e-22
3.23366e-23
0
0
4.41876e-28
1.57636e-28
1.34929e-29
9.43386e-32
0
1.07928e-33
9.27736e-35
4.90751e-36
3.66247e-37
5.66528e-39
8.13209e-40
1.18822e-40
2.80845e-41
5.29901e-42
1.03584e-42
2.30891e-43
5.24805e-44
1.10439e-44
2.11385e-45
3.62685e-46
5.40384e-47
5.948e-48
3.87883e-09
1.2708e-08
4.16465e-08
1.36087e-07
4.34791e-07
1.30702e-06
3.50589e-06
7.94749e-06
1.46338e-05
2.15331e-05
2.54426e-05
2.45443e-05
1.96892e-05
1.33986e-05
8.18681e-06
4.61029e-06
2.40091e-06
1.12189e-06
4.75055e-07
1.85054e-07
6.18051e-08
1.95341e-08
6.05404e-09
1.79544e-09
4.89688e-10
1.18128e-10
2.54009e-11
5.37497e-12
1.26352e-12
3.4417e-13
1.0937e-13
4.16537e-14
2.07861e-14
1.43888e-14
0
0
3.66953e-14
1.622e-12
1.65107e-11
1.14513e-10
6.84524e-10
2.98439e-09
0
7.26295e-22
8.07841e-22
1.85346e-22
1.17608e-23
0
0
7.34091e-28
1.27586e-28
5.01355e-30
0
5.08334e-33
1.08593e-33
5.36953e-35
2.98514e-36
2.66571e-37
1.23189e-38
9.19499e-40
1.19819e-40
3.61337e-41
7.30102e-42
1.5669e-42
3.71685e-43
8.48184e-44
1.77091e-44
3.33703e-45
5.60614e-46
8.15357e-47
8.77849e-48
9.61294e-09
3.11015e-08
1.01496e-07
3.30804e-07
1.04652e-06
3.06212e-06
7.8094e-06
1.64624e-05
2.78063e-05