/*--------------------------------*- C++ -*----------------------------------*\
  =========                 |
  \\      /  F ield         | OpenFOAM: The Open Source CFD Toolbox
   \\    /   O peration     | Website:  https://openfoam.org
    \\  /    A nd           | Version:  8
     \\/     M anipulation  |
\*---------------------------------------------------------------------------*/
FoamFile
{
    version     2.0;
    format      ascii;
    class       volScalarField;
    location    "0";
    object      k;
}
// * * * * * * * * * * * * * * * * * * * * * * * * * * * * * * * * * * * * * //

dimensions      [0 2 -2 0 0 0 0];

internalField   nonuniform List<scalar> 
15677
(
0.138113
0.460205
0.199373
0.409341
1.29139
0.391702
0.384511
0.677279
2.04495
0.404867
0.378297
0.432153
1.27289
2.0031
0.414298
0.375851
0.383217
0.590666
1.59463
1.97328
0.40946
0.374711
0.374179
0.399063
0.895917
1.77512
1.91874
0.406047
0.374114
0.372439
0.36886
0.467546
1.23707
1.8232
1.88233
0.406957
0.373705
0.372144
0.366738
0.371139
0.628831
1.4467
1.84908
1.86542
0.405494
0.373409
0.372134
0.367734
0.35795
0.394006
0.869483
1.56664
1.87543
1.84494
0.404758
0.373211
0.372085
0.368758
0.359852
0.354129
0.459528
1.07335
1.65773
1.88216
1.8312
0.404361
0.373116
0.371907
0.369425
0.36273
0.35283
0.358322
0.579251
1.24255
1.7064
1.88727
1.82101
0.404954
0.373119
0.371586
0.369652
0.364823
0.356433
0.346589
0.376212
0.728137
1.35618
1.74254
1.88887
1.81496
0.406286
0.373208
0.371206
0.369545
0.366104
0.359723
0.350081
0.343892
0.417235
0.870328
1.43988
1.76543
1.8907
1.81269
0.40829
0.373311
0.370862
0.36919
0.36671
0.362024
0.35453
0.344397
0.34636
0.485034
0.995435
1.49799
1.78266
1.89176
1.81391
0.410557
0.373367
0.370632
0.368719
0.366776
0.363433
0.357862
0.34915
0.340351
0.354703
0.565486
1.09396
1.54233
1.79391
1.89342
1.81757
0.414183
0.373373
0.370475
0.368302
0.366477
0.364092
0.360071
0.353435
0.34457
0.336968
0.371935
0.648953
1.17213
1.57328
1.80186
1.89505
1.82585
0.419058
0.37335
0.370343
0.367977
0.36603
0.364149
0.361334
0.356506
0.349351
0.340027
0.33708
0.399544
0.729812
1.23145
1.59558
1.80684
1.8983
1.8388
0.424364
0.373329
0.370218
0.367712
0.365609
0.36384
0.361815
0.358452
0.353062
0.345325
0.336671
0.338868
0.43392
0.80264
1.2764
1.61108
1.81036
1.90368
1.85413
0.430829
0.37331
0.370117
0.367489
0.365242
0.363418
0.361713
0.359439
0.3556
0.349694
0.341646
0.334072
0.343041
0.471975
0.864385
1.30963
1.62141
1.81351
1.91009
1.87346
0.438033
0.373292
0.370052
0.367311
0.364935
0.362998
0.361357
0.359629
0.357073
0.352819
0.346499
0.338426
0.332118
0.35073
0.509813
0.915201
1.33386
1.62842
1.81566
1.91842
1.89561
0.446012
0.373279
0.370019
0.36718
0.364688
0.362627
0.36092
0.359415
0.35758
0.354779
0.350162
0.343547
0.335603
0.331231
0.359888
0.547096
0.954395
1.35121
1.63193
1.81744
1.92769
1.92064
0.454788
0.373271
0.369993
0.367091
0.364499
0.36232
0.360497
0.359019
0.357534
0.355625
0.352591
0.347668
0.340892
0.333188
0.331358
0.370786
0.579836
0.985586
1.36165
1.63256
1.81887
1.93819
1.94846
0.464305
0.373265
0.369973
0.367031
0.364361
0.362078
0.360128
0.358581
0.35721
0.355787
0.353768
0.350547
0.345405
0.33849
0.331329
0.331957
0.38223
0.60847
1.00722
1.36789
1.63159
1.82008
1.95013
1.9791
0.474459
0.373262
0.369959
0.366988
0.364265
0.361894
0.359827
0.358173
0.356776
0.355575
0.354136
0.352069
0.348695
0.343363
0.33647
0.329812
0.333239
0.394194
0.631662
1.02245
1.36906
1.62909
1.82133
1.96308
2.01209
0.485232
0.373259
0.369948
0.366956
0.364198
0.361762
0.35959
0.357824
0.356337
0.355182
0.354036
0.352675
0.35054
0.347058
0.341625
0.334745
0.328776
0.33512
0.40546
0.649661
1.03177
1.36775
1.6251
1.82237
1.97691
2.04726
0.496479
0.373256
0.369941
0.366932
0.364149
0.361668
0.359415
0.35754
0.355941
0.354736
0.353687
0.352727
0.351358
0.349235
0.345695
0.340179
0.333434
0.328048
0.337428
0.414874
0.663485
1.03531
1.36425
1.61992
1.82335
1.99175
2.08416
0.508151
0.373255
0.369936
0.366913
0.364113
0.361599
0.35929
0.357324
0.355607
0.35431
0.353239
0.352455
0.351535
0.350313
0.348217
0.344653
0.339125
0.332438
0.327899
0.339719
0.423084
0.671815
1.03467
1.35778
1.61378
1.82453
2.00731
2.12257
0.520127
0.373253
0.369933
0.366897
0.364085
0.361546
0.359199
0.357166
0.355346
0.353936
0.352782
0.352026
0.351329
0.350682
0.3495
0.347457
0.343917
0.338378
0.331889
0.32806
0.342059
0.428958
0.677621
1.03204
1.3496
1.60714
1.82568
2.02351
2.16215
0.532375
0.373252
0.369931
0.366883
0.364063
0.361505
0.35913
0.357048
0.355152
0.353635
0.352361
0.351553
0.350922
0.350582
0.34997
0.349049
0.347238
0.343823
0.338337
0.331942
0.328491
0.344145
0.433705
0.678115
1.02651
1.34019
1.59996
1.82696
2.04016
2.20273
0.544701
0.37325
0.369929
0.366872
0.364045
0.361472
0.359078
0.356958
0.355007
0.353405
0.352011
0.3511
0.350433
0.350205
0.349947
0.349815
0.349135
0.347433
0.344077
0.338603
0.33226
0.32931
0.346171
0.436401
0.677025
1.01868
1.3297
1.59256
1.82829
2.0573
2.24388
0.558621
0.37325
0.369927
0.366863
0.36403
0.361446
0.359037
0.356887
0.354897
0.353229
0.351741
0.350713
0.349936
0.349709
0.349634
0.349963
0.350018
0.349546
0.348034
0.344785
0.33932
0.332999
0.330498
0.348007
0.438015
0.674301
1.0092
1.31862
1.58493
1.82982
2.07467
2.29036
0.574127
0.373249
0.369926
0.366855
0.364019
0.361424
0.359004
0.356831
0.354812
0.353092
0.351533
0.350405
0.349493
0.349191
0.349143
0.34969
0.350245
0.350618
0.350464
0.34927
0.346192
0.340727
0.334405
0.33204
0.349809
0.438228
0.669117
0.998753
1.30702
1.57733
1.83144
2.0944
2.34192
0.589325
0.373248
0.369925
0.36685
0.364009
0.361406
0.358977
0.356785
0.354744
0.352982
0.351371
0.350161
0.349134
0.348722
0.34858
0.349208
0.350036
0.35097
0.351834
0.352171
0.351315
0.348392
0.342882
0.336409
0.333992
0.351557
0.437924
0.662792
0.987476
1.2953
1.56974
1.8335
2.11651
2.39291
0.60419
0.373248
0.369924
0.366846
0.364002
0.361391
0.358956
0.356748
0.35469
0.352894
0.351243
0.349964
0.348851
0.348331
0.348037
0.348635
0.349574
0.350849
0.352391
0.353864
0.354691
0.354209
0.351434
0.3458
0.33907
0.336361
0.35337
0.437219
0.655462
0.975909
1.28349
1.56155
1.83601
2.13855
2.4432
0.618692
0.369923
0.373251
0.366842
0.363996
0.361379
0.358938
0.356717
0.354646
0.352821
0.351141
0.349805
0.348626
0.348006
0.347575
0.348073
0.348992
0.350424
0.352413
0.354652
0.35678
0.358158
0.358075
0.355407
0.349569
0.342415
0.339197
0.355402
0.435927
0.647675
0.96407
1.2706
1.55275
1.83875
2.16045
2.49254
0.632797
0.36684
0.369932
0.373258
0.363991
0.361369
0.358924
0.356691
0.35461
0.352761
0.351059
0.349673
0.348446
0.347737
0.347206
0.347584
0.348405
0.349844
0.352058
0.354834
0.357865
0.360722
0.362714
0.363028
0.360419
0.354236
0.346518
0.342517
0.35765
0.434674
0.639556
0.951145
1.25659
1.54446
1.84175
2.18211
2.54072
0.646445
0.363987
0.366853
0.369952
0.373265
0.361361
0.358911
0.356669
0.35458
0.352711
0.350991
0.349565
0.3483
0.347513
0.34691
0.347161
0.347883
0.349236
0.351493
0.354588
0.358253
0.362195
0.36586
0.368501
0.369201
0.366544
0.35989
0.351382
0.346379
0.360249
0.433284
0.63054
0.93693
1.24328
1.53672
1.84497
2.20351
2.5875
0.659584
0.361354
0.364004
0.366884
0.369972
0.373273
0.358901
0.356651
0.354555
0.352669
0.350935
0.349474
0.348181
0.347327
0.34667
0.346801
0.347435
0.348684
0.350864
0.354086
0.358177
0.36287
0.367831
0.372366
0.375675
0.376695
0.373888
0.366546
0.35708
0.350775
0.36317
0.432187
0.620786
0.923612
1.2307
1.52959
1.84847
2.22453
2.63269
0.672185
0.358892
0.361372
0.364044
0.366915
0.369992
0.37328
0.356635
0.354534
0.352634
0.350888
0.349397
0.348082
0.34717
0.346473
0.346498
0.347057
0.348208
0.350277
0.353486
0.357788
0.363033
0.36892
0.37496
0.380427
0.38437
0.385641
0.382488
0.374289
0.363581
0.355745
0.366924
0.431027
0.611446
0.910787
1.21891
1.52305
1.85217
2.24512
2.67617
0.684222
0.356622
0.358913
0.361417
0.364085
0.366948
0.370013
0.373288
0.354515
0.352604
0.350848
0.349332
0.347999
0.347038
0.346308
0.346244
0.346737
0.347805
0.349765
0.352911
0.357267
0.362845
0.369404
0.376598
0.383816
0.390211
0.394746
0.396103
0.392448
0.383084
0.37094
0.361892
0.371643
0.430856
0.603104
0.898596
1.20792
1.51712
1.8561
2.26521
2.71785
0.695697
0.3545
0.356642
0.358966
0.361465
0.364128
0.366981
0.370035
0.373297
0.352578
0.350814
0.349277
0.347929
0.346926
0.34617
0.34603
0.346469
0.347464
0.349327
0.352401
0.356748
0.362476
0.369514
0.377572
0.386178
0.394602
0.401913
0.406895
0.408207
0.403733
0.392999
0.380025
0.369551
0.37707
0.431195
0.595839
0.887119
1.19773
1.51179
1.86024
2.28475
2.75768
0.706597
0.352556
0.35452
0.356696
0.35902
0.361514
0.364172
0.367016
0.370057
0.373305
0.350785
0.34923
0.347869
0.34683
0.346053
0.345848
0.346241
0.347176
0.348955
0.351963
0.35628
0.362079
0.36941
0.378125
0.387827
0.397912
0.407564
0.415662
0.420977
0.421928
0.416435
0.405199
0.391294
0.37797
0.382804
0.432062
0.589595
0.876509
1.18835
1.507
1.86455
2.3037
2.79561
0.716937
0.350759
0.352571
0.354578
0.356753
0.359078
0.361566
0.364218
0.367052
0.37008
0.373314
0.349189
0.347818
0.346748
0.345954
0.345693
0.346048
0.346932
0.34864
0.351589
0.355876
0.361715
0.369236
0.378428
0.389028
0.400481
0.412109
0.42289
0.431686
0.436998
0.437397
0.432041
0.420276
0.403644
0.387199
0.388819
0.433703
0.584368
0.866736
1.17975
1.50276
1.86899
2.32202
2.83166
0.726717
0.349155
0.350773
0.352626
0.35464
0.356814
0.359137
0.361621
0.364266
0.36709
0.370104
0.373323
0.347774
0.346677
0.34587
0.34556
0.345883
0.346724
0.348373
0.351273
0.355533
0.361401
0.369067
0.378618
0.389943
0.402595
0.415916
0.42902
0.440871
0.450027
0.455159
0.45645
0.451329
0.436752
0.416952
0.3971
0.395142
0.435924
0.579997
0.857859
1.17189
1.499
1.87352
2.33967
2.86583
0.735956
0.347736
0.349158
0.350828
0.352686
0.354705
0.356878
0.3592
0.361677
0.364315
0.367128
0.370128
0.373333
0.346616
0.345798
0.345445
0.345742
0.346546
0.348145
0.351004
0.355243
0.36114
0.368929
0.378781
0.390699
0.404404
0.419304
0.434465
0.44903
0.461603
0.470964
0.477661
0.480124
0.472422
0.454448
0.431052
0.407544
0.401729
0.438593
0.576458
0.849783
1.16473
1.49571
1.87811
2.35664
2.89815
0.744671
0.346563
0.347734
0.349201
0.350887
0.35275
0.354774
0.356946
0.359265
0.361736
0.364366
0.367168
0.370154
0.373342
0.345735
0.345345
0.34562
0.346393
0.347952
0.350776
0.355
0.360925
0.368827
0.378948
0.391386
0.406006
0.422397
0.439582
0.456635
0.472313
0.485488
0.497079
0.505832
0.506212
0.495146
0.473155
0.445781
0.418401
0.408543
0.441652
0.573584
0.842525
1.15824
1.49287
1.88272
2.37291
2.92866
0.752869
0.345682
0.34654
0.347769
0.34925
0.350951
0.352819
0.354846
0.357016
0.359333
0.361797
0.364418
0.367209
0.37018
0.373351
0.345257
0.345513
0.346262
0.347787
0.350582
0.354795
0.360749
0.368759
0.379127
0.392039
0.407492
0.42524
0.444454
0.464104
0.482711
0.499438
0.515549
0.530113
0.537126
0.534518
0.519285
0.492678
0.460973
0.429541
0.415516
0.445
0.571367
0.83597
1.15236
1.49041
1.88733
2.38847
2.95742
0.760595
0.345181
0.34565
0.346546
0.34781
0.349305
0.35102
0.352892
0.354922
0.357091
0.359403
0.36186
0.364473
0.367251
0.370206
0.373361
0.345421
0.346148
0.347647
0.350415
0.354622
0.360606
0.368718
0.379317
0.392673
0.408903
0.427915
0.44905
0.47148
0.493298
0.513485
0.533951
0.554087
0.567248
0.571406
0.564804
0.544609
0.51281
0.476463
0.440842
0.422585
0.448587
0.56963
0.830118
1.14704
1.48831
1.89191
2.40333
2.98449
0.767826
0.345343
0.3451
0.345639
0.346559
0.347857
0.349366
0.351093
0.35297
0.355002
0.357168
0.359476
0.361926
0.364528
0.367292
0.370231
0.373369
0.346048
0.347526
0.350271
0.354475
0.360489
0.3687
0.379515
0.393286
0.41025
0.430461
0.453442
0.478615
0.504041
0.528263
0.553171
0.578946
0.598084
0.60849
0.608504
0.596841
0.570891
0.533366
0.492099
0.452189
0.429698
0.452326
0.568403
0.824855
1.14225
1.48653
1.89643
2.41748
3.00992
0.774652
0.345964
0.345238
0.345011
0.345634
0.346582
0.34791
0.349434
0.351171
0.353053
0.355085
0.357249
0.359552
0.361993
0.364583
0.367332
0.370256
0.373378
0.347421
0.350146
0.35435
0.360394
0.368697
0.379715
0.393877
0.411534
0.432888
0.457663
0.485533
0.514611
0.543712
0.574111
0.605969
0.631337
0.647891
0.653909
0.64832
0.630431
0.597905
0.554173
0.507746
0.463484
0.436793
0.456182
0.567496
0.820173
1.13793
1.48503
1.90087
2.43094
3.03382
0.78099
0.347334
0.345819
0.345102
0.344931
0.345636
0.346615
0.347968
0.349508
0.351254
0.35314
0.355172
0.357334
0.359629
0.362061
0.364636
0.367372
0.370281
0.373386
0.350035
0.354242
0.360317
0.368707
0.379915
0.394441
0.412752
0.435196
0.461715
0.492235
0.524993
0.559355
0.596703
0.636527
0.669026
0.692303
0.70424
0.703822
0.690859
0.665418
0.62545
0.57507
0.523288
0.474642
0.443819
0.46008
0.566987
0.815977
1.13404
1.48378
1.90521
2.44372
3.05619
0.787014
0.349946
0.347129
0.345599
0.344967
0.344872
0.345643
0.346657
0.348033
0.349589
0.351341
0.353232
0.355263
0.357421
0.359707
0.362126
0.364689
0.36741
0.370304
0.373395
0.354148
0.360252
0.368724
0.380109
0.394977
0.413902
0.43738
0.465584
0.498699
0.535196
0.575133
0.620062
0.670659
0.713764
0.745521
0.764203
0.76851
0.758811
0.736225
0.701697
0.653362
0.595921
0.538625
0.485594
0.450732
0.464001
0.566657
0.812241
1.13055
1.48275
1.90944
2.45582
3.07721
0.79252
0.354078
0.349643
0.346782
0.345378
0.344835
0.344839
0.345654
0.34671
0.348103
0.349677
0.351434
0.353329
0.355357
0.357508
0.359783
0.362191
0.36474
0.367447
0.370327
0.373402
0.360198
0.368746
0.380297
0.395483
0.414982
0.439438
0.46926
0.504902
0.545196
0.590954
0.643865
0.707376
0.767108
0.813348
0.841081
0.850451
0.842389
0.819512
0.784531
0.739177
0.681503
0.616608
0.553675
0.496283
0.457495
0.467883
0.566669
0.808908
1.12742
1.48192
1.91355
2.46728
3.09681
0.797105
0.36017
0.353668
0.349087
0.346434
0.345172
0.344703
0.344827
0.345672
0.346772
0.34818
0.349771
0.351532
0.353429
0.355452
0.357594
0.359858
0.362253
0.364789
0.367484
0.370349
0.37341
0.368772
0.380474
0.395956
0.415992
0.441369
0.472736
0.510829
0.554944
0.606645
0.667989
0.747067
0.829241
0.900521
0.945474
0.961561
0.953908
0.927041
0.886262
0.835773
0.777744
0.709749
0.637031
0.568373
0.506663
0.46408
0.471721
0.566787
0.805932
1.1246
1.48126
1.91752
2.4781
3.11279
0.800959
0.368823
0.359626
0.352851
0.348526
0.346109
0.344983
0.344579
0.344831
0.345697
0.346844
0.348264
0.349871
0.351635
0.353531
0.355545
0.357679
0.35993
0.362315
0.364838
0.367519
0.370371
0.373418
0.380644
0.396397
0.416932
0.443173
0.476008
0.516465
0.564382
0.622054
0.692503
0.790441
0.901068
1.00645
1.08355
1.1162
1.10925
1.07513
1.02238
0.958825
0.889723
0.817222
0.737977
0.657109
0.582668
0.5167
0.470456
0.475466
0.567055
0.803283
1.12207
1.48074
1.92134
2.48696
3.12622
0.805151
0.380829
0.368114
0.358446
0.35202
0.347998
0.34581
0.344808
0.34447
0.344849
0.345732
0.346923
0.348356
0.349976
0.35174
0.353631
0.355637
0.357761
0.360002
0.362375
0.364885
0.367554
0.370392
0.373425
0.396812
0.417805
0.444854
0.479078
0.521801
0.573457
0.637097
0.717576
0.837699
0.981889
1.12828
1.24832
1.31737
1.32351
1.28154
1.21195
1.12695
1.03633
0.945903
0.857361
0.766058
0.676768
0.596523
0.526371
0.476617
0.479032
0.567517
0.800926
1.11979
1.48035
1.92453
2.49447
3.14078
0.809697
0.397218
0.379919
0.366435
0.357244
0.351233
0.347506
0.34553
0.344647
0.344376
0.344876
0.345778
0.34701
0.348455
0.350083
0.351844
0.35373
0.355727
0.357842
0.360071
0.362433
0.364931
0.367588
0.370413
0.373428
0.418622
0.446417
0.481949
0.526832
0.582136
0.651747
0.743301
0.888271
1.0692
1.26068
1.43035
1.5485
1.59358
1.55979
1.47261
1.36039
1.2383
1.11742
1.00364
0.897846
0.793855
0.695942
0.609907
0.53566
0.482569
0.48243
0.568085
0.798829
1.11775
1.48011
1.92727
2.50269
3.15659
0.814622
0.419384
0.396073
0.377557
0.364728
0.356101
0.350488
0.347043
0.34527
0.344502
0.344302
0.344911
0.345837
0.347104
0.348558
0.35019
0.351948
0.353828
0.355815
0.357921
0.360139
0.36249
0.364976
0.367621
0.370423
0.373428
0.447883
0.484631
0.531563
0.590404
0.666002
0.769606
0.941042
1.15984
1.39775
1.62038
1.79503
1.89437
1.90102
1.81606
1.6758
1.51592
1.35363
1.20055
1.06215
0.938323
0.821226
0.714575
0.622799
0.544557
0.488293
0.485664
0.568729
0.796964
1.11616
1.47994
1.9303
2.51169
3.17377
0.819959
0.449209
0.417966
0.392777
0.375165
0.3631
0.355011
0.349779
0.34661
0.345028
0.344376
0.344252
0.344951
0.34591
0.347201
0.348664
0.350297
0.35205
0.353923
0.355903
0.357999
0.360206
0.362545
0.36502
0.367637
0.370423
0.373428
0.487149
0.536007
0.598265
0.679862
0.796275
0.994737
1.25096
1.53466
1.81088
2.0458
2.20839
2.27385
2.22954
2.0842
1.88509
1.67439
1.4703
1.28418
1.12064
0.978431
0.848035
0.732619
0.635184
0.553058
0.49378
0.488742
0.569427
0.795522
1.11485
1.47982
1.93366
2.52155
3.19243
0.825755
0.489381
0.447492
0.413389
0.389458
0.372879
0.361541
0.353967
0.349102
0.346207
0.344805
0.344263
0.344236
0.344996
0.345993
0.347299
0.34877
0.350402
0.352151
0.354017
0.355988
0.358074
0.360271
0.362599
0.365042
0.367637
0.370423
0.373428
0.540196
0.605744
0.693337
0.823026
1.0482
1.34041
1.66805
1.99662
2.2926
2.52335
2.65885
2.67699
2.57081
2.35759
2.09558
1.83235
1.58606
1.36696
1.17838
1.01783
0.874154
0.75003
0.647048
0.561163
0.499023
0.491665
0.570061
0.794351
1.11347
1.47973
1.93741
2.53235
3.21271
0.832045
0.543859
0.487292
0.441151
0.408816
0.386285
0.370683
0.360039
0.352964
0.348455
0.345835
0.3446
0.344148
0.344249
0.345045
0.346083
0.347399
0.348877
0.350507
0.352251
0.35411
0.356072
0.358148
0.360334
0.362626
0.365041
0.367636
0.370423
0.373428
0.612873
0.70644
0.849588
1.10051
1.42671
1.79582
2.17432
2.5299
2.83012
3.04227
3.13697
3.09553
2.91796
2.63098
2.30345
1.98719
1.69915
1.44779
1.23476
1.05623
0.899468
0.766776
0.658387
0.568875
0.504019
0.494074
0.570635
0.793126
1.11203
1.47974
1.94158
2.54422
3.23473
0.838891
0.619104
0.541298
0.47851
0.434873
0.404442
0.383227
0.36856
0.358591
0.352003
0.347841
0.345491
0.344415
0.344041
0.344284
0.345101
0.346177
0.3475
0.348984
0.35061
0.352349
0.3542
0.356153
0.358219
0.360365
0.362625
0.365041
0.367636
0.370423
0.373428
0.719158
0.875727
1.15102
1.50894
1.91671
2.34207
2.75431
3.12239
3.41335
3.59354
3.63449
3.52227
3.26529
2.90022
2.50588
2.13698
1.8083
1.52585
1.2893
1.09337
0.92388
0.782831
0.669201
0.576199
0.508143
0.496123
0.571301
0.791856
1.11052
1.4798
1.94624
2.55723
3.2587
0.846323
0.730361
0.616
0.528989
0.469903
0.428867
0.400217
0.380262
0.366506
0.357198
0.351086
0.347265
0.345178
0.34425
0.343957
0.344331
0.345163
0.346274
0.347602
0.34909
0.350713
0.352446
0.354289
0.356233
0.358255
0.360365
0.362625
0.365041
0.367637
0.370423
0.373425
0.901174
1.19929
1.58659
2.03012
2.49891
2.96392
3.39614
3.76421
4.03343
4.16885
4.14381
3.95081
3.60796
3.16208
2.70082
2.28043
1.91265
1.60057
1.34164
1.12907
0.947317
0.798179
0.67949
0.582227
0.511654
0.498374
0.572076
0.790537
1.10896
1.47996
1.95145
2.57156
3.28473
0.854437
0.726724
0.923554
0.597998
0.517151
0.46166
0.423057
0.396111
0.377386
0.364523
0.355862
0.350216
0.346731
0.344897
0.34411
0.343896
0.344385
0.345234
0.346372
0.347705
0.349195
0.350814
0.352541
0.354376
0.356272
0.358254
0.360365
0.362625
0.365041
0.367637
0.370413
0.373417
1.24494
1.65944
2.13584
2.64449
3.15787
3.64917
4.08969
4.44638
4.6819
4.76017
4.6577
4.37533
3.94197
3.41409
2.88684
2.41669
2.01166
1.67158
1.39153
1.1632
0.969726
0.812809
0.687973
0.587351
0.515512
0.500849
0.572975
0.789191
1.10733
1.48027
1.95731
2.58731
3.31308
0.863242
0.698614
0.920591
1.28424
0.58121
0.505836
0.453671
0.417401
0.39212
0.374602
0.362615
0.354587
0.349396
0.346243
0.34465
0.343998
0.343859
0.344444
0.345311
0.346471
0.347808
0.349298
0.350913
0.352634
0.354419
0.356271
0.358253
0.360365
0.362625
0.365042
0.36762
0.370392
0.37341
1.72727
2.23393
2.7789
3.33605
3.88063
4.38698
4.82548
5.16019
5.35044
5.35956
5.16923
4.79065
4.26401
3.65446
3.06304
2.5453
2.10505
1.73868
1.43884
1.19566
0.991071
0.824884
0.695191
0.592972
0.519755
0.503576
0.57402
0.787808
1.10568
1.48075
1.96388
2.60471
3.34385
0.87289
0.67283
0.875621
1.28248
1.7851
0.565401
0.494848
0.445886
0.411895
0.388249
0.371917
0.360787
0.353376
0.348633
0.34581
0.344441
0.34391
0.343848
0.344505
0.345395
0.34657
0.347912
0.349401
0.351012
0.352679
0.354417
0.356271
0.358253
0.360365
0.362626
0.36502
0.367587
0.370371
0.373402
2.32437
2.90252
3.49892
4.09067
4.65517
5.167
5.59436
5.89712
6.03068
5.95914
5.6719
5.19225
4.57148
3.88194
3.22892
2.66607
2.19271
1.80179
1.48349
1.22641
1.00866
0.835164
0.703117
0.599145
0.524428
0.506584
0.575231
0.786427
1.10398
1.48145
1.97132
2.62385
3.37739
0.883335
0.648983
0.833229
1.21653
1.78582
2.40113
0.550171
0.484122
0.438303
0.406548
0.384508
0.369336
0.359042
0.35224
0.347945
0.345438
0.344264
0.343839
0.343866
0.344566
0.345485
0.346668
0.348017
0.349502
0.351059
0.352677
0.354417
0.356271
0.358254
0.360365
0.362599
0.364975
0.367553
0.370349
0.373394
3.01559
3.64728
4.2803
4.89485
5.4699
5.97929
6.3876
6.64874
6.71421
6.55119
6.15974
5.57636
4.86248
4.09582
3.38429
2.77899
2.27471
1.86095
1.52549
1.25162
1.02362
0.846456
0.711829
0.605932
0.529579
0.509907
0.576639
0.785028
1.1023
1.48241
1.9797
2.6451
3.41372
0.894835
0.626484
0.793393
1.15155
1.70131
2.40562
3.11084
0.535365
0.473662
0.430938
0.401374
0.380907
0.366866
0.357397
0.351207
0.347335
0.345122
0.344113
0.343768
0.343905
0.344629
0.345578
0.346767
0.348121
0.34955
0.351057
0.352676
0.354417
0.356271
0.358254
0.360334
0.362544
0.36493
0.367518
0.370326
0.373386
3.78171
4.45095
5.10777
5.73535
6.31371
6.81478
7.197
7.40667
7.39253
7.12828
6.62745
5.94
5.13576
4.29575
3.52919
2.88423
2.35119
1.91624
1.55968
1.27296
1.04002
0.858868
0.721416
0.613402
0.535263
0.513587
0.578267
0.783684
1.1006
1.48372
1.98924
2.6685
3.45338
0.907223
0.605041
0.755766
1.08777
1.61619
2.30456
3.11961
3.89352
0.520957
0.463496
0.423808
0.396387
0.377454
0.36453
0.355893
0.350286
0.346794
0.344851
0.343989
0.343711
0.343956
0.344695
0.345675
0.346867
0.348171
0.349545
0.351056
0.352676
0.354417
0.356272
0.358219
0.36027
0.362488
0.364884
0.367483
0.370303
0.373378
4.60369
5.29631
5.96621
6.59946
7.17682
7.66556
8.0148
8.16241
8.05714
7.68346
7.07062
6.28108
5.39064
4.48174
3.66388
2.98207
2.42235
1.96099
1.5885
1.29626
1.058
0.872521
0.731975
0.621634
0.541545
0.517669
0.580161
0.782351
1.09899
1.48544
2.00002
2.69458
3.49613
0.92094
0.584534
0.720278
1.02505
1.53052
2.20187
3.00339
3.90566
4.72817
0.506966
0.453656
0.416936
0.391601
0.374184
0.362388
0.354547
0.349466
0.346321
0.344622
0.343885
0.34367
0.344016
0.344765
0.345777
0.346911
0.348167
0.349544
0.351056
0.352677
0.354418
0.356233
0.358146
0.360204
0.362431
0.364836
0.367446
0.37028
0.373369
5.46227
6.16616
6.84083
7.47628
8.0514
8.52488
8.83334
8.90714
8.69961
8.21057
7.48588
6.59829
5.62692
4.65407
3.78873
3.07282
2.47973
1.99858
1.6198
1.32168
1.07772
0.887545
0.743616
0.630717
0.548496
0.522207
0.582348
0.781154
1.09742
1.48768
2.01242
2.72335
3.54285
0.93854
0.564925
0.686901
0.963609
1.44401
2.09742
2.88503
3.77453
4.74095
5.5933
0.493423
0.444175
0.410343
0.387064
0.37118
0.360466
0.353344
0.348739
0.345911
0.344428
0.343801
0.343644
0.344085
0.344844
0.345825
0.346901
0.348166
0.349544
0.351057
0.352679
0.354376
0.356152
0.358072
0.360137
0.362372
0.364787
0.367409
0.370256
0.37336
6.33811
7.04331
7.7192
8.35758
8.93182
9.38665
9.64466
9.63167
9.31192
8.7045
7.87091
6.89105
5.8449
4.81324
3.9042
3.14578
2.5278
2.03925
1.65378
1.3494
1.09935
0.904084
0.75646
0.640752
0.556197
0.52726
0.584893
0.780009
1.09607
1.49057
2.02647
2.75551
3.60216
0.959775
0.546176
0.655667
0.904002
1.35666
1.99082
2.76416
3.64154
4.59377
5.60188
6.46764
0.480369
0.435089
0.404092
0.382895
0.368479
0.358742
0.35227
0.348096
0.345555
0.344261
0.343736
0.343638
0.344168
0.344873
0.345818
0.346898
0.348166
0.349545
0.351059
0.352633
0.354287
0.356069
0.357996
0.360069
0.362312
0.364738
0.36737
0.370231
0.373351
7.21124
7.91346
8.59213
9.23865
9.81379
10.2449
10.44
10.3265
9.88687
9.16139
8.22448
7.15955
6.04515
4.95984
3.99675
3.20679
2.57967
2.08322
1.69064
1.37961
1.12304
0.922294
0.770643
0.651852
0.564741
0.532905
0.587831
0.779134
1.09484
1.49422
2.04274
2.79768
3.67393
0.981664
0.528249
0.626721
0.846906
1.26878
1.88176
2.64034
3.50597
4.44603
5.43573
6.46523
7.33084
0.467851
0.426489
0.398348
0.379144
0.366053
0.357197
0.351312
0.347529
0.345245
0.34412
0.343693
0.343661
0.344205
0.344851
0.345816
0.346898
0.348167
0.34955
0.351011
0.352539
0.354198
0.355985
0.357918
0.359999
0.362251
0.364687
0.367331
0.370206
0.373342
8.06535
8.76582
9.4555
10.1166
10.694
11.093
11.2094
10.9822
10.4184
9.57881
8.54642
7.40446
6.22849
5.07683
4.07395
3.27247
2.63559
2.13071
1.73055
1.41248
1.14899
0.942339
0.786312
0.664144
0.574234
0.539217
0.591248
0.77836
1.09402
1.49892
2.06471
2.85088
3.74708
1.00451
0.511141
0.599944
0.79294
1.18098
1.77017
2.51299
3.36743
4.29653
5.27165
6.27471
7.30958
8.16374
0.456003
0.418601
0.393181
0.375772
0.363874
0.355814
0.350459
0.347026
0.344976
0.344012
0.343687
0.343655
0.344189
0.344845
0.345816
0.346901
0.348171
0.349501
0.350912
0.352443
0.354106
0.355899
0.357839
0.359928
0.362189
0.364635
0.367291
0.37018
0.373332
8.88737
9.59684
10.3068
10.9906
11.5702
11.922
11.942
11.5902
10.9021
9.95588
8.83745
7.62685
6.37384
5.1741
4.15687
3.3431
2.69579
2.18191
1.77373
1.4482
1.17737
0.964394
0.803627
0.67777
0.584795
0.546307
0.595199
0.778066
1.09331
1.50578
2.09402
2.9072
3.82179
1.0279
0.494982
0.575146
0.742869
1.09407
1.65621
2.38168
3.22511
4.14503
5.10782
6.09084
7.08615
8.11293
8.95137
0.445146
0.411521
0.388538
0.372744
0.36192
0.354577
0.349698
0.34658
0.344761
0.343957
0.343667
0.343616
0.344187
0.344845
0.345818
0.346911
0.34812
0.349399
0.350811
0.352346
0.354014
0.355812
0.357758
0.359855
0.362125
0.364582
0.36725
0.370154
0.373323
9.6705
10.3956
11.1357
11.853
12.4352
12.7215
12.6263
12.1428
11.3356
10.2931
9.09891
7.80157
6.4941
5.27815
4.24574
3.41893
2.7605
2.23705
1.82036
1.48696
1.20837
0.988635
0.822758
0.692886
0.596565
0.55427
0.599783
0.778242
1.09345
1.51616
2.12638
2.96759
3.89688
1.052
0.480166
0.552311
0.697245
1.00907
1.54023
2.24617
3.0782
3.99059
4.94423
5.91082
6.87675
7.84681
8.85374
9.68955
0.43542
0.40517
0.38437
0.370026
0.360169
0.353468
0.349017
0.346201
0.344627
0.343906
0.343622
0.343608
0.344187
0.344851
0.345825
0.346866
0.348014
0.349295
0.350709
0.352247
0.353919
0.355724
0.357676
0.359781
0.362059
0.364527
0.367209
0.370128
0.373314
10.4128
11.1703
11.9546
12.7072
13.2828
13.4789
13.2509
12.6348
11.7185
10.592
9.3019
7.94516
6.622
5.38919
4.34083
3.50018
2.82992
2.2963
1.8706
1.52891
1.24215
1.01524
0.843883
0.709665
0.609688
0.563264
0.605113
0.779014
1.09429
1.52849
2.16301
3.03113
3.9724
1.07606
0.466866
0.53179
0.656177
0.927327
1.42283
2.1064
2.926
3.83205
4.77982
5.73481
6.67696
7.60429
8.53525
9.51158
10.3632
0.426724
0.399475
0.38063
0.367588
0.358595
0.352472
0.348433
0.345937
0.34453
0.343846
0.343614
0.343608
0.344189
0.344873
0.345776
0.346765
0.347909
0.349191
0.350606
0.352147
0.353824
0.355634
0.357592
0.359706
0.361993
0.364472
0.367167
0.370103
0.373305
11.1116
11.9279
12.7786
13.5595
14.1025
14.1783
13.8054
13.0636
12.0523
10.8204
9.46719
8.09664
6.75754
5.50734
4.44229
3.58704
2.90425
2.35983
1.92461
1.5742
1.27886
1.04438
0.867179
0.728285
0.624353
0.573412
0.612444
0.780973
1.09627
1.54385
2.20321
3.09885
4.04708
1.10112
0.454955
0.513543
0.620717
0.851261
1.30499
1.96246
2.76787
3.6682
4.61314
5.56163
6.48686
7.37963
8.25093
9.13207
10.0818
10.9647
0.418956
0.394372
0.377276
0.365396
0.357178
0.351611
0.348006
0.345761
0.344447
0.343838
0.343614
0.343616
0.344205
0.344844
0.345673
0.346665
0.347805
0.349086
0.350503
0.352046
0.353727
0.355543
0.357507
0.359629
0.361925
0.364418
0.367127
0.370079
0.373296
11.7693
12.6757
13.6123
14.409
14.8762
14.8023
14.2826
13.4296
12.3021
11.0042
9.63966
8.25564
6.90061
5.63261
4.55023
3.67967
2.98362
2.42778
1.98251
1.62295
1.31864
1.0762
0.892814
0.748949
0.640727
0.587081
0.622187
0.784385
1.10021
1.56172
2.24852
3.16941
4.12133
1.1273
0.444318
0.49719
0.590959
0.78389
1.18897
1.81468
2.60324
3.49777
4.44253
5.38955
6.30495
7.17248
7.99524
8.79712
9.6237
10.5571
11.4962
0.412022
0.389801
0.374263
0.363422
0.355947
0.350964
0.347736
0.345644
0.344438
0.343838
0.343621
0.343655
0.344168
0.344764
0.345575
0.346566
0.347701
0.34898
0.350398
0.351944
0.353629
0.35545
0.35742
0.359551
0.361859
0.364365
0.367089
0.370056
0.373288
12.396
13.4323
14.4625
15.2445
15.5778
15.3343
14.6796
13.696
12.4997
11.1931
9.81836
8.42159
7.05088
5.76491
4.66468
3.77812
3.06813
2.50022
2.04437
1.67522
1.36157
1.11082
0.92095
0.771812
0.662444
0.60464
0.633146
0.788884
1.10577
1.5835
2.29797
3.24404
4.19186
1.15374
0.434845
0.482496
0.565675
0.726563
1.07957
1.66475
2.43173
3.31946
4.2661
5.21651
6.12915
6.98068
7.76713
8.50397
9.22724
9.99995
10.9256
11.9599
0.405831
0.3857
0.371552
0.361701
0.355003
0.350567
0.347582
0.345632
0.344438
0.343846
0.343667
0.343661
0.344084
0.344693
0.345481
0.346467
0.347598
0.348873
0.350293
0.351841
0.353529
0.355357
0.357333
0.359475
0.361795
0.364314
0.367051
0.370034
0.37328
13.0111
14.2218
15.3273
16.0368
16.1759
15.7628
14.9569
13.9017
12.6987
11.3853
10.002
8.59357
7.20782
5.90397
4.78553
3.88238
3.15778
2.57719
2.11021
1.73105
1.4077
1.14834
0.951677
0.801796
0.68979
0.623953
0.645488
0.795071
1.11376
1.60849
2.3533
3.32114
4.26014
1.17958
0.426423
0.4693
0.5439
0.678603
0.980204
1.51788
2.25448
3.13196
4.08176
5.04009
5.95702
6.80165
7.56337
8.25067
8.89013
9.52944
10.2507
11.1747
12.3612
0.400293
0.382015
0.369182
0.360361
0.354437
0.350367
0.347569
0.345632
0.344447
0.343906
0.343688
0.343638
0.344014
0.344627
0.345392
0.346368
0.347496
0.348767
0.350187
0.351738
0.353429
0.355262
0.357248
0.359401
0.361734
0.364264
0.367015
0.370012
0.373272
13.6469
15.0663
16.1808
16.7307
16.6408
16.0441
15.1632
14.1023
12.8958
11.5784
10.1888
8.77039
7.37063
6.04932
4.91252
3.99232
3.25253
2.65864
2.18
1.79038
1.457
1.18873
0.991367
0.838785
0.718919
0.644886
0.659057
0.802861
1.12386
1.63846
2.41332
3.40136
4.32506
1.20515
0.418931
0.45748
0.524886
0.638599
0.892005
1.37836
2.07681
2.93548
3.88718
4.85744
5.78568
6.63249
7.38056