/*--------------------------------*- C++ -*----------------------------------*\
  =========                 |
  \\      /  F ield         | OpenFOAM: The Open Source CFD Toolbox
   \\    /   O peration     | Website:  https://openfoam.org
    \\  /    A nd           | Version:  8
     \\/     M anipulation  |
\*---------------------------------------------------------------------------*/
FoamFile
{
    version     2.0;
    format      ascii;
    class       volScalarField;
    location    "0.02";
    object      epsilon;
}
// * * * * * * * * * * * * * * * * * * * * * * * * * * * * * * * * * * * * * //

dimensions      [0 2 -3 0 0 0 0];

internalField   nonuniform List<scalar> 
15677
(
59.7331
18.3675
52.6882
8.08588
26.0221
50.2294
4.62391
13.32
31.6625
50.5344
3.17527
7.74575
17.1338
37.3337
51.6321
2.4878
5.05158
10.0521
20.8496
42.6767
53.7205
2.14475
3.6258
6.47524
12.1805
24.5675
47.6875
55.8203
1.97949
2.82158
4.5313
7.73235
14.2901
28.2792
52.0767
57.7028
1.91155
2.35273
3.40494
5.3132
8.92406
16.4419
31.8089
55.7555
59.2823
1.88407
2.07992
2.72474
3.90987
6.02643
10.1162
18.5766
35.0129
58.7166
60.5501
1.87048
1.93922
2.3077
3.05526
4.36049
6.71317
11.3014
20.6159
37.7916
61.0058
61.5384
1.86762
1.87819
2.05657
2.5206
3.3494
4.77997
7.38122
12.4517
22.4825
40.0847
62.6963
62.3223
1.86863
1.84867
1.91653
2.18563
2.71328
3.61749
5.17671
8.02393
13.5267
24.1084
41.8807
63.9068
62.945
1.86958
1.83836
1.85187
1.98244
2.30741
2.88791
3.86514
5.55091
8.62252
14.4859
25.4524
43.2241
64.7275
63.3998
1.86986
1.83647
1.82111
1.86787
2.05189
2.41921
3.04703
4.09425
5.89456
9.15674
15.3013
26.511
44.1674
65.2532
63.7297
1.8699
1.83661
1.81043
1.81385
1.89878
2.11833
2.52097
3.19233
4.30151
6.19794
9.61345
15.9625
27.2821
44.7781
65.5851
64.047
1.86989
1.83678
1.80798
1.79056
1.81615
1.93114
2.17975
2.61363
3.32244
4.48234
6.45577
9.98619
16.4546
27.7944
45.1547
65.7983
64.2835
1.86989
1.83681
1.80752
1.78378
1.77718
1.82245
1.96247
2.23641
2.69651
3.43523
4.63482
6.6647
10.2643
16.7911
28.1211
45.34
65.8995
64.4888
1.8699
1.83679
1.80742
1.78222
1.76355
1.76712
1.83111
1.99271
2.28777
2.76847
3.52997
4.75714
6.81895
10.4591
17.0129
28.2615
45.3565
65.9631
64.6239
1.8699
1.83676
1.80735
1.78198
1.75948
1.74505
1.75905
1.84128
2.02138
2.33296
2.82916
3.60562
4.8468
6.92877
10.5911
17.0994
28.2595
45.3242
65.9799
64.7869
1.86991
1.83674
1.80729
1.78197
1.75847
1.73724
1.72784
1.7541
1.85286
2.04746
2.37167
2.87795
3.66142
4.91136
7.00445
10.6373
17.0947
28.2145
45.2298
65.9856
64.8846
1.86991
1.83673
1.80725
1.78196
1.75831
1.73475
1.71553
1.71369
1.7529
1.86443
2.07065
2.40351
2.91478
3.70211
4.95629
7.02885
10.6331
17.0596
28.1027
45.0714
65.9756
65.0511
1.86991
1.83672
1.80722
1.78194
1.75831
1.73409
1.71093
1.69623
1.70337
1.75338
1.87583
2.09071
2.42858
2.94227
3.73067
4.97199
7.02593
10.611
16.9774
27.9256
44.8666
65.9795
65.1558
1.86991
1.83671
1.8072
1.78192
1.75831
1.73395
1.70935
1.68889
1.68068
1.69661
1.75544
1.88704
2.10755
2.44809
2.96206
3.74354
4.97088
7.01311
10.5613
16.8472
27.704
44.6624
65.9859
65.3557
1.86991
1.83671
1.80719
1.7819
1.7583
1.73393
1.70885
1.68598
1.67048
1.66959
1.69412
1.76001
1.89756
2.12166
2.463
2.97337
3.74475
4.96461
6.98497
10.4829
16.6882
27.4706
44.4349
66.015
65.4778
1.86991
1.83671
1.80718
1.78188
1.75828
1.73391
1.70867
1.68487
1.66609
1.65682
1.66339
1.69439
1.76547
1.90755
2.13361
2.47354
2.97811
3.74307
4.95041
6.94184
10.3894
16.5182
27.2184
44.2281
66.0501
65.7127
1.86991
1.83671
1.80718
1.78187
1.75826
1.73387
1.70859
1.68442
1.66424
1.65099
1.64835
1.66164
1.69595
1.77198
1.91741
2.14373
2.48054
2.97996
3.73821
4.92908
6.8924
10.2887
16.3389
26.9723
43.9994
66.1334
65.8541
1.86991
1.83671
1.80717
1.78187
1.75825
1.73384
1.70852
1.68421
1.66345
1.6484
1.64125
1.64513
1.66201
1.69954
1.78009
1.9273
2.15243
2.48597
2.98085
3.73057
4.90617
6.83929
10.1848
16.1622
26.7138
43.8139
66.2022
66.1253
1.86991
1.83671
1.80716
1.78186
1.75823
1.73381
1.70845
1.68407
1.66307
1.64724
1.63799
1.63717
1.64513
1.66384
1.70609
1.78984
1.93738
2.1609
2.49165
2.98248
3.72357
4.88242
6.78731
10.0847
15.9827
26.4743
43.6007
66.3474
66.2954
1.86992
1.83671
1.80716
1.78185
1.75822
1.73378
1.7084
1.68398
1.66286
1.64669
1.6365
1.63347
1.63697
1.64636
1.66829
1.71572
1.80112
1.94841
2.17062
2.49932
2.98596
3.71842
4.86268
6.73994
9.98592
15.8128
26.2302
43.4499
66.4486
66.5846
1.86992
1.83671
1.80715
1.78184
1.75821
1.73376
1.70835
1.6839
1.66273
1.6464
1.6358
1.63178
1.63318
1.63804
1.64998
1.67745
1.72804
1.81439
1.96156
2.18313
2.51028
2.99274
3.71913
4.84759
6.6959
9.89436
15.6493
26.0113
43.2654
66.7032
66.8608
1.86992
1.83672
1.80714
1.78182
1.7582
1.73374
1.70832
1.68384
1.66263
1.64624
1.63546
1.63101
1.63146
1.63422
1.64141
1.65801
1.69074
1.74314
1.83051
1.97814
2.19969
2.52581
3.00508
3.7235
4.83669
6.65984
9.81284
15.5007
25.7952
43.1515
66.7081
67.1273
1.86992
1.83672
1.80713
1.78181
1.75819
1.73373
1.70829
1.68379
1.66256
1.64613
1.63527
1.63066
1.63069
1.63252
1.63757
1.6489
1.67202
1.70737
1.76161
1.85066
1.9993
2.22164
2.54706
3.02385
3.73362
4.83701
6.63359
9.74076
15.3614
25.6017
42.9931
66.7949
67.4073
1.86992
1.83673
1.80713
1.78179
1.75817
1.73372
1.70827
1.68375
1.6625
1.64605
1.63516
1.63047
1.63034
1.63178
1.63593
1.64499
1.66332
1.68989
1.72773
1.78458
1.87592
2.02639
2.24992
2.57548
3.04938
3.75325
4.84216
6.61275
9.67964
15.2381
25.3995
42.8433
66.9845
67.7121
1.86993
1.83673
1.80712
1.78178
1.75816
1.73371
1.70826
1.68372
1.66246
1.646
1.63508
1.63035
1.63017
1.63146
1.63526
1.64347
1.65969
1.6821
1.71174
1.75288
1.81306
1.90766
2.06041
2.28591
2.6116
3.0834
3.78135
4.85476
6.60589
9.63175
15.1159
25.2059
42.7113
67.2723
68.0309
1.83674
1.86996
1.80711
1.78176
1.75815
1.73371
1.70825
1.6837
1.66243
1.64596
1.63502
1.63026
1.63005
1.6313
1.63501
1.64299
1.65849
1.67917
1.70507
1.73859
1.78383
1.84845
1.94691
2.10264
2.33025
2.65661
3.12617
3.81802
4.87904
6.60877
9.59131
15.0027
25.0364
42.6192
67.6002
68.3806
1.80711
1.83685
1.87004
1.78174
1.75814
1.73371
1.70825
1.68369
1.6624
1.64593
1.63497
1.63018
1.62996
1.63119
1.6349
1.6429
1.6583
1.6785
1.70302
1.73327
1.77151
1.82207
1.89184
1.99504
2.15377
2.38395
2.71074
3.17843
3.86369
4.91324
6.62042
9.55909
14.9163
24.8957
42.5587
67.9665
68.7264
1.78172
1.80725
1.83707
1.87012
1.75812
1.73371
1.70826
1.68368
1.66239
1.6459
1.63493
1.6301
1.62986
1.63109
1.63482
1.64291
1.65847
1.6787
1.70293
1.73223
1.76782
1.81214
1.86883
1.94478
2.05287
2.21528
2.4473
2.7749
3.23993
3.91897
4.961
6.64702
9.55501
14.8502
24.7859
42.5365
68.3473
69.0638
1.75811
1.78189
1.80754
1.8373
1.8702
1.73371
1.70827
1.68369
1.66238
1.64589
1.63489
1.63002
1.62976
1.63099
1.63473
1.6429
1.65865
1.67915
1.70363
1.73294
1.7679
1.8103
1.86186
1.92591
2.00834
2.12193
2.28736
2.52133
2.84888
3.31116
3.99046
5.0267
6.69174
9.56106
14.8054
24.697
42.5428
68.7202
69.4417
1.73372
1.75834
1.78224
1.80784
1.83753
1.87028
1.70828
1.6837
1.66238
1.64588
1.63486
1.62994
1.62966
1.63088
1.63461
1.64283
1.65873
1.67951
1.70443
1.73432
1.76969
1.81201
1.86214
1.92229
1.99465
2.08432
2.20274
2.37134
2.60575
2.93284
3.40062
4.08267
5.10528
6.74886
9.57754
14.7731
24.6327
42.5638
69.1306
69.7938
1.7083
1.73405
1.75883
1.7826
1.80815
1.83777
1.87036
1.68371
1.66238
1.64588
1.63483
1.62985
1.62955
1.63075
1.63447
1.64269
1.6587
1.67969
1.70502
1.73566
1.772
1.81533
1.8661
1.92567
1.99474
2.07633
2.17368
2.29712
2.46707
2.70153
3.03698
3.51313
4.18672
5.19498
6.81548
9.60933
14.763
24.5925
42.6101
69.5356
70.092
1.68372
1.70872
1.73473
1.75932
1.78297
1.80847
1.83803
1.87045
1.66238
1.64587
1.63481
1.62977
1.62944
1.63062
1.63431
1.64251
1.65855
1.67968
1.70533
1.73667
1.77414
1.8191
1.87158
1.93278
2.00241
2.08177
2.17182
2.27738
2.4049
2.57562
2.82043
3.16635
3.63726
4.30102
5.29347
6.89076
9.65245
14.7662
24.5631
42.6694
69.8491
70.5354
1.66239
1.68419
1.70957
1.73542
1.75982
1.78334
1.8088
1.83829
1.87053
1.64587
1.63479
1.62969
1.62932
1.63049
1.63413
1.64228
1.65831
1.67952
1.70543
1.73732
1.77583
1.82261
1.87749
1.94147
2.01385
2.09519
2.18446
2.28362
2.39527
2.52769
2.71084
2.96861
3.30914
3.77128
4.42332
5.39912
6.97297
9.70425
14.7767
24.5587
42.7379
70.3826
70.7877
1.64588
1.66283
1.68512
1.71045
1.73613
1.76033
1.78372
1.80914
1.83855
1.87062
1.63477
1.6296
1.62921
1.63036
1.63395
1.64203
1.65801
1.67925
1.70534
1.73767
1.77708
1.82555
1.88312
1.95074
2.02709
2.11273
2.20545
2.30563
2.41209
2.52921
2.67879
2.87997
3.13229
3.464
3.91402
4.55131
5.50971
7.06038
9.7621
14.7982
24.5643
42.8649
70.7415
356.507
1.63475
1.64623
1.66372
1.68609
1.71136
1.73685
1.76084
1.78411
1.80949
1.83883
1.87071
1.62952
1.6291
1.63022
1.63377
1.64176
1.65767
1.6789
1.70511
1.7378
1.77798
1.82798
1.88807
1.9598
2.04127
2.13262
2.23126
2.3368
2.44583
2.55969
2.69627
2.86667
3.06663
3.31046
3.62884
4.06337
4.68394
5.62357
7.15135
9.82481
14.8299
24.581
42.9464
75.9795
475.53
1.62944
1.63497
1.64697
1.66464
1.68709
1.7123
1.73759
1.76137
1.78451
1.80985
1.83912
1.87081
1.62898
1.63009
1.6336
1.6415
1.65731
1.67851
1.70481
1.73778
1.77864
1.82999
1.89242
1.96815
2.05547
2.15416
2.26037
2.37406
2.49017
2.60852
2.74499
2.90695
3.07428
3.26715
3.50018
3.80147
4.21793
4.81955
5.73935
7.2445
9.89138
14.8691
24.6132
43.1352
85.9531
622.427
1.62887
1.62944
1.63546
1.64774
1.66561
1.68814
1.71325
1.73834
1.7619
1.78492
1.81023
1.83941
1.8709
1.62996
1.63342
1.64124
1.65695
1.6781
1.70446
1.73766
1.77913
1.83169
1.89629
1.97583
2.06891
2.17624
2.2923
2.41626
2.54255
2.67026
2.81469
2.98118
3.14264
3.30096
3.4799
3.6995
3.98081
4.37587
4.95667
5.85572
7.33867
9.96086
14.9138
24.6473
43.5549
99.039
746.804
1.62983
1.62871
1.62953
1.63597
1.64855
1.66662
1.68921
1.71424
1.73911
1.76245
1.78535
1.81062
1.83971
1.87099
1.63326
1.64099
1.65659
1.6777
1.7041
1.73749
1.77952
1.83317
1.8998
1.98292
2.08157
2.19769
2.32567
2.46326
2.60234
2.74315
2.90105
3.08101
3.24862
3.40239
3.54456
3.70275
3.90359
4.16415
4.53535
5.09366
5.97153
7.43291
10.032
14.9611
24.6905
44.4176
110.75
836.024
1.6331
1.6296
1.6285
1.62965
1.63654
1.64941
1.66767
1.69033
1.71525
1.73989
1.763
1.78579
1.81102
1.84
1.87108
1.64075
1.65625
1.67731
1.70375
1.7373
1.77984
1.83448
1.90304
1.98952
2.09353
2.21836
2.35866
2.51328
2.66993
2.82743
3.00356
3.20398
3.38708
3.54726
3.68461
3.80278
3.93433
4.1108
4.34897
4.69447
5.22946
6.08586
7.52634
10.1035
15.0109
24.7731
45.477
119.567
908.51
1.64055
1.63269
1.62925
1.62827
1.6298
1.63714
1.65031
1.66876
1.69148
1.71628
1.74068
1.76356
1.78624
1.81142
1.84029
1.87116
1.65591
1.67694
1.70341
1.73713
1.78014
1.8357
1.90608
1.99568
2.10487
2.23823
2.39083
2.56358
2.74314
2.92436
3.1238
3.35179
3.55842
3.73449
3.87636
3.9874
4.07321
4.17205
4.31935
4.5338
4.85247
5.36313
6.19794
7.6181
10.1746
15.0659
24.8855
46.3612
126.52
987.402
1.65561
1.63978
1.632
1.62887
1.62806
1.63001
1.6378
1.65126
1.6699
1.69266
1.71733
1.74149
1.76414
1.78669
1.81182
1.84057
1.87125
1.67658
1.7031
1.73697
1.78044
1.83685
1.90894
2.00147
2.11565
2.25725
2.42201
2.61348
2.81801
3.03127
3.26456
3.52871
3.76801
3.96897
4.12443
4.23503
4.30867
4.35332
4.41346
4.52734
4.71565
5.00801
5.49377
6.30704
7.70764
10.2454
15.1254
24.9992
47.0713
133.642
1083.04
1.67629
1.65432
1.63844
1.63129
1.62852
1.62787
1.63027
1.6385
1.65225
1.67109
1.69388
1.7184
1.7423
1.7647
1.78713
1.8122
1.84084
1.87132
1.7028
1.73684
1.78073
1.83795
1.91167
2.00692
2.12591
2.27539
2.45212
2.66265
2.89316
3.1423
3.42295
3.74117
4.02513
4.26231
4.44078
4.55847
4.62237
4.6462
4.64059
4.65629
4.7336
4.89305
5.15979
5.62059
6.41267
7.79464
10.3157
15.1867
25.1025
47.79
142.013
1191.04
1.70261
1.67465
1.65192
1.63709
1.63062
1.62818
1.62769
1.63059
1.63925
1.65329
1.67232
1.69514
1.71949
1.74309
1.76525
1.78756
1.81258
1.8411
1.8714
1.73672
1.78102
1.83901
1.91426
2.01207
2.13567
2.29259
2.4811
2.71073
2.96766
3.25538
3.59124
3.98747
4.34339
4.63351
4.84853
4.98158
5.03923
5.03774
4.99794
4.93271
4.89857
4.93673
5.06528
5.30683
5.743
6.51444
7.87888
10.3847
15.247
25.206
48.6445
151.564
1303.62
1.73673
1.7006
1.67145
1.64942
1.63581
1.62999
1.62787
1.62756
1.63097
1.64005
1.65439
1.6736
1.69641
1.72055
1.74386
1.76579
1.78799
1.81295
1.84135
1.87147
1.7813
1.84002
1.91671
2.01694
2.14492
2.30887
2.50893
2.75734
3.04077
3.36967
3.76697
4.25677
4.72529
5.1118
5.3866
5.54878
5.60298
5.57073
5.48097
5.36206
5.22761
5.1386
5.1354
5.2317
5.44846
5.86056
6.61214
7.96009
10.4519
15.3056
25.3225
49.6501
161.691
1397.07
1.78173
1.73428
1.6964
1.66809
1.64703
1.63463
1.6294
1.62758
1.62746
1.63142
1.64091
1.65554
1.67491
1.69767
1.72157
1.7446
1.76631
1.78841
1.81331
1.84159
1.87155
1.841
1.91903
2.02153
2.15366
2.32422
2.53555
2.80212
3.11208
3.48453
3.94815
4.54421
5.15862
5.7162
6.11936
6.33763
6.3947
6.31996
6.15791
5.95216
5.73694
5.52349
5.37496
5.32856
5.3918
5.58422
5.97298
6.70551
8.03793
10.5164
15.3633
25.4565
50.7547
170.424
1473.19
1.8421
1.77878
1.72871
1.69198
1.66482
1.64474
1.63352
1.62884
1.62731
1.62743
1.63193
1.64183
1.65673
1.67622
1.69889
1.72256
1.74531
1.76682
1.78882
1.81366
1.84182
1.87162
1.92124
2.02585
2.16188
2.33869
2.56093
2.84484
3.1814
3.59916
4.13193
4.84647
5.64279
6.44546
7.10615
7.47608
7.55449
7.4216
7.14751
6.80511
6.45114
6.12103
5.81874
5.60647
5.51542
5.54522
5.7138
6.08004
6.79443
8.1121
10.578
15.4206
25.6055
51.7415
177.653
1553.79
1.92348
1.83853
1.77128
1.72286
1.68773
1.66166
1.64257
1.63248
1.62833
1.62704
1.62747
1.63252
1.6428
1.65794
1.6775
1.70007
1.72351
1.74599
1.76731
1.78923
1.814
1.84205
1.87168
2.02997
2.1696
2.3523
2.58501
2.88539
3.24868
3.71243
4.31556
5.16201
6.18221
7.31191
8.36206
9.0823
9.2993
9.09985
8.65809
8.09598
7.51438
6.97687
6.51265
6.11196
5.83218
5.69539
5.6917
5.83713
6.18183
6.87882
8.18248
10.6368
15.4778
25.7429
52.5826
185.497
1633.43
2.03393
1.91919
1.82821
1.76344
1.71728
1.68362
1.65859
1.64052
1.63152
1.62787
1.62678
1.62758
1.63317
1.64379
1.65913
1.67875
1.70121
1.72442
1.74665
1.7678
1.78962
1.81433
1.84226
1.87172
2.17692
2.36509
2.60777
2.92377
3.31381
3.82314
4.49733
5.4914
6.78078
8.32335
9.89952
11.171
11.811
11.6777
11.0133
10.118
9.16789
8.28426
7.52709
6.90989
6.40187
6.05133
5.86808
5.83113
5.95379
6.27837
6.95867
8.24905
10.6927
15.5273
25.8644
53.5163
193.522
1712.21
2.1837
2.0287
1.90483
1.81752
1.75601
1.71193
1.67964
1.6556
1.63863
1.63063
1.62744
1.62655
1.62778
1.63386
1.64478
1.6603
1.67996
1.70231
1.7253
1.74729
1.76827
1.79001
1.81466
1.84237
1.87171
2.37725
2.62923
2.96007
3.37663
3.9302
4.67679
5.83593
7.43841
9.47463
11.7111
13.7375
15.0876
15.4084
14.6593
13.3063
11.7986
10.3573
9.10958
8.09829
7.3106
6.68726
6.26333
6.03325
5.96358
6.06371
6.36962
7.03403
8.31191
10.7391
15.5708
26.0033
54.5076
201.633
1790.68
2.38822
2.1773
2.00847
1.89011
1.80746
1.74892
1.70676
1.67575
1.65266
1.63692
1.62982
1.62706
1.62636
1.62805
1.63459
1.64577
1.66146
1.68114
1.70338
1.72615
1.74791
1.76873
1.7904
1.81482
1.84238
1.87171
2.64962
2.99444
3.43697
4.03287
4.85442
6.19612
8.15022
10.75
13.769
16.7514
19.1069
20.2763
19.9458
18.2567
15.9671
13.6834
11.6511
9.9822
8.68592
7.71243
6.96706
6.46774
6.19077
6.08913
6.16714
6.45563
7.10502
8.36344
10.7787
15.6199
26.1587
55.5306
209.904
1868.73
2.66752
2.38022
2.14869
1.98798
1.87629
1.79788
1.74209
1.70174
1.67197
1.64978
1.63537
1.62909
1.62672
1.62621
1.62838
1.63533
1.64676
1.66259
1.68229
1.70441
1.72696
1.74852
1.76919
1.79058
1.81482
1.84238
1.87171
3.02721
3.49478
4.13099
5.03117
6.57105
8.90762
12.1275
16.0337
20.1567
23.8147
26.25
26.8606
25.4569
22.4556
18.9669
15.7467
13.0321
10.892
9.28476
8.11293
7.24028
6.66424
6.34061
6.20784
6.26433
6.53652
7.16298
8.40711
10.8224
15.6754
26.3269
56.6116
217.915
1961.32
3.05553
2.65788
2.33937
2.12008
1.9688
1.86317
1.78868
1.73549
1.69687
1.66828
1.64701
1.63397
1.62844
1.62644
1.62612
1.62877
1.63608
1.64774
1.6637
1.68341
1.70539
1.72775
1.7491
1.76941
1.79057
1.81482
1.84238
1.87171
3.55014
4.22492
5.20823
6.95847
9.69987
13.5833
18.4613
23.8829
29.1178
33.2475
35.3715
34.9207
31.9407
27.2195
22.2658
17.958
14.4804
11.8281
9.88937
8.50972
7.50604
6.85259
6.48283
6.31988
6.35555
6.60246
7.21198
8.45489
10.8708
15.7377
26.5143
57.6769
227.056
2070.19
3.59726
3.04344
2.59937
2.29913
2.09332
1.95058
1.85055
1.77981
1.72912
1.69215
1.66468
1.64436
1.6327
1.62786
1.62621
1.62609
1.6292
1.63684
1.64871
1.66478
1.68449
1.70635
1.72851
1.74939
1.76939
1.79057
1.81482
1.84238
1.87172
4.31515
5.38664
7.35539
10.5154
15.0929
21.0072
27.8538
34.8984
41.1196
45.3586
46.6229
44.487
39.3603
32.4935
25.8167
20.2843
15.9762
12.7794
10.4945
8.90052
7.76353
7.03267
6.61757
6.42541
6.4298
6.65813
7.26541
8.50723
10.9246
15.8085
26.7102
58.8707
237.332
2205.41
4.39175
3.5834
2.95823
2.54262
2.26152
2.06783
1.93305
1.8384
1.77127
1.72296
1.68756
1.66117
1.64189
1.6316
1.62738
1.62603
1.62611
1.62967
1.63761
1.64966
1.66584
1.68553
1.70727
1.72889
1.74938
1.76938
1.79057
1.81482
1.84237
1.87168
5.56627
7.75811
11.3432
16.633
23.6279
31.9929
41.0281
49.6733
56.5892
60.3929
60.0868
55.5328
47.6442
38.2077
29.5684
22.693
17.5002
13.7359
11.0951
9.28323
8.01216
7.20444
6.74498
6.51158
6.49243
6.71874
7.32372
8.56466
10.9844
15.887
26.9317
60.2083
249.692
2366.46
4.37291
5.72467
3.45766
2.87729
2.48955
2.22563
2.04327
1.91615
1.8267
1.76304
1.71701
1.68309
1.65777
1.63966
1.63064
1.62696
1.62587
1.62619
1.63017
1.63838
1.6506
1.66687
1.68654
1.70773
1.72889
1.74937
1.76938
1.79057
1.81482
1.84226
1.87161
8.16051
12.1726
18.1828
26.2832
36.227
47.3787
58.6967
68.7549
75.8793
78.5076
75.7637
67.9731
56.691
44.2817
33.4681
25.1526
19.0351
14.6883
11.6869
9.65609
8.25143
7.3679
6.8494
6.58442
6.56056
6.78473
7.38738
8.62773
11.0507
15.9757
27.1839
61.7658
264.966
2515.8
4.17588
5.71423
8.51632
3.34112
2.80166
2.43877
2.19101
2.01957
1.8999
1.81546
1.75512
1.71124
1.67875
1.65457
1.63772
1.62981
1.62663
1.62573
1.62632
1.63069
1.63914
1.65153
1.66788
1.68706
1.70775
1.72889
1.74937
1.76939
1.79058
1.81465
1.84204
1.87154
12.9926
19.7238
28.9378
40.4892
53.8303
67.981
81.516
92.6064
99.2409
99.7539
93.566
81.6681
66.3744
50.6287
37.4644
27.6347
20.5653
15.6287
12.2661
10.0176
8.48094
7.50268
6.9379
6.66383
6.63469
6.85661
7.45691
8.69701
11.1245
16.0755
27.4733
63.7412
279.762
2652.07
4.00089
5.37712
8.54003
13.7233
3.23234
2.72925
2.38971
2.15756
1.99675
1.88428
1.80467
1.74748
1.70567
1.67464
1.65158
1.63608
1.6291
1.62634
1.62561
1.6265
1.63122
1.6399
1.65244
1.66839
1.68708
1.70776
1.72889
1.74938
1.76941
1.7904
1.81433
1.84182
1.87147
21.2362
31.5612
44.723
60.2771
77.3367
94.5435
110.049
121.582
126.802
124.064
113.319
96.4311
76.5519
57.1606
41.5087
30.1135
22.0777
16.5504
12.8297
10.3667
8.67152
7.61737
7.03467
6.75044
6.71538
6.93489
7.53284
8.77306
11.206
16.1874
27.8359
65.8343
293.6
2806.52
3.84013
5.08454
7.92362
13.8243
22.5931
3.12807
2.65929
2.34228
2.12534
1.97483
1.86931
1.79429
1.74014
1.7004
1.67079
1.64877
1.63466
1.62849
1.62611
1.62553
1.62672
1.63177
1.64066
1.6529
1.66841
1.68709
1.70776
1.72889
1.74939
1.76919
1.79001
1.81399
1.84158
1.8714
34.1216
48.8819
66.6344
86.6042
107.548
127.702
144.745
155.907
158.55
151.251
134.77
112.04
87.0732
63.7925
45.5567
32.5665
23.5611
17.4483
13.3753
10.658
8.83442
7.7433
7.14053
6.84493
6.80322
7.02015
7.61575
8.85638
11.2958
16.3174
28.2518
67.866
309.174
2977.27
3.68745
4.81901
7.38371
12.7366
22.8723
36.4253
3.02732
2.59167
2.29656
2.09437
1.95382
1.85495
1.78437
1.73323
1.69547
1.66716
1.64618
1.63344
1.62797
1.62591
1.62547
1.62698
1.63233
1.64104
1.65291
1.66842
1.68709
1.70775
1.72888
1.7491
1.76873
1.78961
1.81365
1.84134
1.87132
52.9179
72.8359
95.6635
120.297
145.136
167.98
185.937
195.665
194.323
181.004
157.598
128.252
97.7898
70.4449
49.5689
34.975
25.0068
18.3179
13.8316
10.9079
9.01416
7.88172
7.25644
6.94805
6.89885
7.11297
7.70616
8.94746
11.3951
16.4677
28.6816
70.1526
326.146
3147.98
3.54083
4.57074
6.89101
11.7559
21.1408
37.0296
56.5477
2.93008
2.52651
2.25263
2.06471
1.93371
1.84128
1.77509
1.72681
1.69083
1.66373
1.6438
1.63237
1.62752
1.62575
1.62545
1.62728
1.63262
1.64104
1.65292
1.66842
1.68708
1.70773
1.7285
1.74851
1.76826
1.78921
1.81329
1.84109
1.87124
78.8149
104.428
132.63
162.024
190.658
215.801
233.833
240.78
233.802
212.907
181.438
144.821
108.56
77.0466
53.5122
37.3239
26.4075
19.0456
14.2234
11.1845
9.2127
8.03401
7.38343
7.06062
7.00297
7.21397
7.80464
9.04693
11.5059
16.6338
29.1815
72.6442
343.421
3319.65
3.39982
4.33853
6.42864
10.8447
19.5388
34.4601
57.6641
84.1714
2.83656
2.46395
2.21058
2.03636
1.91462
1.82856
1.76652
1.72079
1.68643
1.6605
1.64164
1.63143
1.62713
1.62563
1.6255
1.62742
1.63261
1.64105
1.65292
1.66841
1.68706
1.70726
1.72773
1.7479
1.76778
1.78881
1.81293
1.84083
1.87116
112.811
144.443
178.156
212.321
244.59
271.509
288.511
291.001
276.509
246.457
205.905
161.505
119.256
83.5373
57.3593
39.6006
27.58
19.6706
14.6576
11.491
9.43227
8.20174
7.52264
7.18355
7.1163
7.3238
7.9118
9.15594
11.629
16.8292
29.7383
75.2716
361.388
3529.08
3.26459
4.12063
5.9912
9.98047
18.0138
32.0515
54.0519
86.0004
120.265
2.74695
2.40411
2.17045
2.00951
1.89695
1.81689
1.75854
1.7151
1.68225
1.65744
1.63969
1.6306
1.6268
1.62559
1.6255
1.62739
1.63262
1.64105
1.65291
1.66839
1.68654
1.70633
1.72694
1.74727
1.76729
1.78839
1.81257
1.84056
1.87108
155.633
193.423
232.709
271.664
307.388
335.377
349.891
345.884
321.828
281.097
230.612
178.083
129.768
89.8669
61.0881
41.5066
28.587
20.3634
15.1394
11.8311
9.67537
8.38665
7.67536
7.3178
7.23963
7.44313
8.02845
9.27568
11.769
17.0497
30.3574
78.0817
383.796
3757.64
3.13535
3.91602
5.57919
9.15866
16.5348
29.7226
50.6559
81.1204
122.977
165.461
2.66146
2.34712
2.13254
1.98474
1.88083
1.8061
1.75106
1.70971
1.67827
1.65455
1.63794
1.62989
1.62661
1.62555
1.62542
1.62738
1.63262
1.64105
1.6529
1.66787
1.68551
1.70537
1.72612
1.74663
1.7668
1.78798
1.81219
1.84028
1.87099
207.713
251.718
296.694
340.561
379.527
407.605
417.71
404.787
369.029
316.246
255.197
194.365
140.005
95.995
64.208
43.1437
29.7033
21.1321
15.6744
12.2089
9.94479
8.59067
7.84298
7.46443
7.3738
7.57274
8.1555
9.40813
11.9251
17.3004
31.0412
81.6821
409.235
3961.44
3.01225
3.72402
5.19392
8.37952
15.09
27.4311
47.3446
76.5619
116.559
169.146
220.037
2.58027
2.29341
2.09771
1.96228
1.86604
1.79606
1.74399
1.70456
1.67446
1.65183
1.63645
1.62941
1.62648
1.62545
1.62541
1.62738
1.63261
1.64104
1.65243
1.66685
1.68446
1.70437
1.72527
1.74597
1.76629
1.78755
1.81181
1.84
1.8709
269.245
319.605
370.593
419.637
461.541
488.289
491.493
466.885
417.304
351.336
279.342
210.194
149.895
101.114
66.8862
44.9579
30.9418
21.9858
16.269
12.6287
10.2437
8.81597
8.02706
7.62458
7.51972
7.71346
8.2941
9.55348
12.0993
17.5829
31.9568
85.9949
434.021
4141.75
2.89553
3.54395
4.83676
7.64478
13.6848
25.1591
44.0578
72.111
110.656
160.83
224.634
283.958
2.50406
2.24425
2.06626
1.9418
1.85238
1.78666
1.73728
1.69963
1.67081
1.64933
1.63534
1.62913
1.62635
1.62544
1.62541
1.62739
1.63262
1.64065
1.65151
1.66581
1.68337
1.70334
1.72439
1.74528
1.76577
1.78712
1.81141
1.83971
1.87081
340.322
397.456
455.099
509.752
554.054
577.412
570.53
531.184
465.823
385.859
302.783
225.445
158.135
105.503
69.8518
46.97
32.317
22.9345
16.9304
13.0958
10.5754
9.06494
8.22928
7.79947
7.67833
7.8662
8.4448
9.71293
12.2934
17.9695
33.1098
90.2291
457.91
4294.64
2.78623
3.37484
4.50893
6.95923
12.3321
22.9071
40.7638
67.6826
104.927
153.361
213.908
289.195
357.034
2.4346
2.20007
2.03777
1.92304
1.83969
1.7778
1.73087
1.69488
1.66743
1.64729
1.63474
1.62894
1.62634
1.62544
1.62542
1.62742
1.63233
1.63988
1.65058
1.66475
1.68225
1.70227
1.72347
1.74457
1.76524
1.78668
1.81102
1.83941
1.87071
421.143
485.967
551.366
612.165
657.857
674.779
653.833
596.573
513.802
419.38
325.31
238.106
165.181
110.353
73.137
49.2029
33.845
23.9897
17.6664
13.6157
10.944
9.34021
8.45146
7.99042
7.85065
8.03162
8.60885
9.88771
12.5534
18.4678
34.3041
94.7307
481.812
4420.02
2.68711
3.21661
4.21238
6.32769
11.0456
20.6867
37.4531
63.2231
99.2554
146.215
204.572
275.323
362.355
439.146
2.37249
2.16029
2.01186
1.90576
1.82785
1.76938
1.7247
1.69047
1.66466
1.64616
1.63446
1.62894
1.62634
1.62545
1.6255
1.62728
1.63176
1.63912
1.64963
1.66366
1.6811
1.70117
1.72253
1.74384
1.76469
1.78623
1.81062
1.83911
1.87062
512.292
586.43
661.234
728.799
773.87
779.877
740.147
661.927
560.547
451.552
343.946
248.904
172.948
115.713
76.7768
51.6815
35.5434
25.1637
18.486
14.1944
11.3535
9.64462
8.69558
8.19879
8.03764
8.20988
8.78679
10.116
12.8825
19.0071
35.5907
98.9809
507.743
4516.45
2.59908
3.07242
3.94989
5.75277
9.84148
18.5145
34.1309
58.7035
93.5555
139.233
195.83
263.68
344.27
443.676
530.568
2.31686
2.12435
1.98819
1.88977
1.81669
1.76134
1.719
1.68689
1.66316
1.64574
1.63446
1.62894
1.62635
1.62554
1.6255
1.62697
1.63121
1.63835
1.64868
1.66255
1.67992
1.70003
1.72155
1.74308
1.76413
1.78578
1.81022
1.83882
1.87053
614.961
700.913
787.809
862.331
902.885
891.772
828.058
726.183
605.484
478.101
359.793
260.763
181.501
121.635
80.8088
54.4331
37.4318
26.4702
19.3985
14.8388
11.8085
9.98124
8.96373
8.42594
8.2406
8.40167
9.01562
10.397
13.236
19.5888
36.9194
103.301
534.794
4589.59
2.52084
2.94374
3.7211
5.23876
8.73259
16.4093
30.8114
54.1127
87.7693
132.288
187.477
253.084
329.69
419.802
533.117
632.43
2.26691
2.09179
1.96648
1.87486
1.8061
1.75393
1.7144
1.68496
1.66265
1.64575
1.63446
1.62894
1.62648
1.62559
1.62545
1.62671
1.63067
1.63758
1.64771
1.66142
1.67871
1.69886
1.72053
1.74229
1.76356
1.78534
1.80984
1.83855
1.87044
731.114
833.706
936.067
1015.9
1045.3
1009.22
916.119
788.4
642.564
500.625
377.134
273.767
190.908
128.171
85.273
57.4872
39.5312
27.9241
20.4144
15.5561
12.3139
10.3533
9.25801
8.67345
8.46013
8.6463
9.29171
10.691
13.6112
20.2184
38.3042
107.572
563.355
4635.28
2.45118
2.82916
3.52299
4.7977
7.72875
14.3958
27.5158
49.4501
81.8559
125.282
179.332
243.268
316.856
401.416
501.048
631.557
747.265
2.22196
2.06217
1.9464
1.86084
1.79642
1.74804
1.71192
1.68431
1.66271
1.64575
1.63446
1.62913
1.62661
1.62563
1.62547
1.6265
1.63015
1.63682
1.64673
1.66027
1.67747
1.69765
1.71948
1.74148
1.76299
1.78491
1.80948
1.83828
1.87036
865.83
992.54
1112.67
1192.95
1201.39
1130.88
1002.87
839.973
673.993
525.192
396.061
287.994
201.237
135.374
90.2112
60.8748
41.864
29.5415
21.545
16.3538
12.8748
10.7642
9.58075
8.94239
8.74131
8.93889
9.57426
10.9958
14.016
20.8798
39.7492
112.064
594.428
4664.55
2.38899
2.72745
3.34908
4.42881
6.85934
12.5203
24.2746
44.7252
75.7839
118.132
171.246
233.98
305.418
385.802
477.72
587.52
741.493
879.991
2.18142
2.03506
1.92772
1.84812
1.78879
1.74484
1.71108
1.68445
1.66271
1.64574
1.63474
1.62941
1.62681
1.62575
1.62553
1.62632
1.62965
1.63606
1.64575
1.6591
1.6762
1.6964
1.71839
1.74067
1.76243
1.7845
1.80913
1.83802
1.87028
1027.79
1188.37
1326.55
1398.55
1372.35
1255.13
1075.66
883.758
708.208
551.892
416.652
303.515
212.549
143.299
95.6657
64.6282
44.4541
31.339
22.8018
17.2401
13.4965
11.2174
9.9337
9.28857
9.07872
9.23555
9.86179
11.3161
14.4378
21.5996
41.234
116.806
627.91
4663.62
2.33331
2.63737
3.19462
4.12393
6.1303
10.8543
21.1501
39.9611
69.5312
110.759
163.083
225.01
295.018
372.482
458.607
557.834
679.575
866.872
1040.58
2.14465
2.01006
1.91089
1.83819
1.7846
1.74375
1.71131
1.68445
1.66264
1.64616
1.63535
1.6299
1.62714
1.62592
1.62562
1.62619
1.62919
1.63531
1.64476
1.65792
1.6749
1.69513
1.71731
1.73987
1.76188
1.7841
1.80879
1.83777
1.87019
1231.71
1438.51
1594.54
1643.48
1559.82
1361.68
1137.75
931.427
745.277
580.783
438.962
320.386
224.901
151.995
101.678
68.78
47.3258
33.3343
24.1972
18.2232
14.1843
11.7157
10.391
9.70663
9.42118
9.53512
10.1562
11.6449
14.8956
22.3415
42.8269
122.019
666.519
4653.1
2.28319
2.55759
3.05678
3.87066
5.5225
9.43444
18.2633
35.2298
63.0902
103.087
154.703
216.159
285.37
360.94
443.044
534.328
641.816
779.078
1016.17
1244.02
2.11108
1.98773
1.89777
1.83269
1.78314
1.74409
1.71131
1.68431
1.66315
1.6473
1.63647
1.63062
1.62753
1.62612
1.62573
1.62611
1.62876
1.63457
1.64377
1.65673
1.67359
1.69386
1.71625
1.73909
1.76135
1.78371
1.80846
1.83752
1.87011
1507.57
1786.55
1953.67
1950.18
1724.97
1453.04
1205.43
982.963
785.198
611.873
463.013
338.642
238.334
161.506
108.287
73.3617
50.5032
35.545
25.7432
19.3114
14.9429
12.3648
10.9474
10.1333
9.76707
9.83789
10.4541
11.9926
15.3688
23.1422
44.511
127.971
709.164
4626.51
2.23784
2.48662
2.93388
3.65589
5.01992
8.23342
15.6866
30.7098
56.5187
95.0473
145.956
207.218
276.203
350.79
430.252
516.075
612.859
731.272
891.547
1211.55
1528.83
2.0813
1.97035
1.89041
1.83077
1.78361
1.74409
1.71107
1.68495
1.66468
1.64937
1.63798
1.63146
1.62799
1.62635
1.62587
1.62609
1.62837
1.63385
1.64279
1.65553
1.6723
1.69263
1.71521
1.73832
1.76082
1.78333
1.80814
1.83729
1.87004
1959.92
2331.03
2511.42
2222.95
1865.81
1552.14
1278.3
1038.19
827.873
645.109
488.786
358.29
252.872
171.864
115.525
78.4023
54.0093
37.9879
27.4521
20.5118
15.9336
13.1593
11.519
10.5662
10.1153
10.142
10.7603
12.3498
15.8745
23.9953
46.2955
135.21
749.958
4581.88
2.19788
2.42313
2.82443
3.47017
4.60744
7.22999
13.4339
26.536
50.0378
86.6466
136.688
197.958
267.239
341.67
419.713
501.851
591.412
695.672
830.885
1029.86
1502.02
2045.21
2.05802
1.96058
1.88786
1.83139
1.7836
1.74373
1.71191
1.68692
1.66748
1.6519
1.63975
1.63241
1.62852
1.62664
1.62604
1.62612
1.62805
1.63317
1.64182
1.65437
1.67106
1.69144
1.7142
1.73756
1.76031
1.78296
1.80783
1.83706
1.86996
2760.7
3425.54
2970.62
2446.15
2014.58
1657.25
1355.62
1096.74
873.093
680.366
516.21
379.298
268.515
183.086
123.418
83.926
57.8645
40.679
29.3338
22.0793
17.149
13.9794
12.1021
11.0031
10.4641
10.4488
11.0707
12.724
16.4138
24.8727
48.3647
142.776
797.586
4522.1
2.16656
2.36769
2.72715
3.30648
4.27203
6.40305
11.5019
22.7466
43.8434
78.1066
126.809
188.121
258.172
333.233
410.946
490.954
575.517
670.466
787.384
952.229
1225.4
2054.78
3149.32
2.04481
1.95726
1.88864
1.83138
1.78312
1.74483
1.71444
1.69055
1.6709
1.65464
1.64172
1.63348
1.62913
1.62698
1.62622
1.62621
1.62778
1.63251
1.6409
1.65327
1.66987
1.69029
1.71322
1.73682
1.7598
1.78259
1.80753
1.83685
1.86993
4769.27
4117.67
3295.4
2663.45
2166.23