/*--------------------------------*- C++ -*----------------------------------*\
  =========                 |
  \\      /  F ield         | OpenFOAM: The Open Source CFD Toolbox
   \\    /   O peration     | Website:  https://openfoam.org
    \\  /    A nd           | Version:  8
     \\/     M anipulation  |
\*---------------------------------------------------------------------------*/
FoamFile
{
    version     2.0;
    format      ascii;
    class       volScalarField;
    location    "0.02";
    object      nut;
}
// * * * * * * * * * * * * * * * * * * * * * * * * * * * * * * * * * * * * * //

dimensions      [0 2 -1 0 0 0 0];

internalField   nonuniform List<scalar> 
15677
(
0.00016826
0.000652992
0.000148416
0.00151353
0.000442531
0.00014149
0.00267498
0.00087611
0.000381017
0.000142349
0.00392047
0.00151969
0.000686243
0.000354113
0.00014544
0.00502341
0.00235751
0.00114549
0.000585367
0.000340245
0.000151322
0.0058403
0.00331933
0.00177931
0.000947336
0.000529299
0.000332264
0.000157238
0.0063355
0.00430093
0.00256556
0.00146224
0.000820982
0.000492936
0.000327369
0.000162544
0.00656369
0.0051897
0.00345026
0.00212992
0.00125761
0.000737855
0.000468102
0.000324161
0.000166998
0.00665941
0.00589523
0.00435233
0.00291987
0.0018417
0.00111323
0.000678324
0.000450466
0.000322069
0.000170574
0.0067065
0.00633961
0.00517776
0.00377612
0.00255682
0.00163358
0.00100588
0.000634024
0.000437836
0.000320766
0.000173361
0.00671534
0.0065547
0.0058425
0.00462182
0.00336229
0.00228929
0.00147448
0.000923914
0.000600686
0.000428986
0.000320106
0.000175572
0.00671073
0.00666297
0.0062929
0.00537306
0.00419621
0.00304909
0.00208046
0.00134845
0.000859704
0.000575988
0.0004231
0.000320166
0.00017733
0.00670692
0.00670083
0.0065269
0.0059597
0.00498318
0.00386205
0.00279966
0.00191108
0.00124725
0.000810256
0.00055831
0.000419812
0.000320641
0.000178615
0.00670583
0.00670702
0.00664409
0.00635128
0.0056487
0.00466135
0.00358898
0.00259331
0.00177213
0.0011671
0.000773315
0.000546596
0.00041835
0.000321016
0.000179545
0.00670568
0.00670587
0.00668562
0.00655629
0.00614022
0.00537432
0.00438902
0.00335785
0.00242071
0.00165963
0.00110536
0.000747208
0.000539685
0.000417478
0.000321237
0.000180439
0.00670566
0.00670489
0.00669498
0.0066493
0.00644426
0.00593924
0.00513101
0.0041516
0.00316048
0.00227822
0.00157098
0.00106014
0.000730329
0.000535266
0.000416756
0.000321967
0.000181108
0.00670562
0.00670457
0.00669653
0.00667705
0.00659955
0.00632626
0.00574973
0.00490994
0.00394337
0.00299427
0.00216386
0.00150462
0.00102951
0.00071909
0.000532029
0.000417384
0.00032272
0.000181688
0.00670557
0.00670454
0.00669678
0.00668341
0.00665599
0.00654481
0.00620268
0.00556706
0.00470879
0.00376375
0.00285853
0.00207685
0.00145833
0.00100832
0.000711268
0.000532034
0.000418574
0.000323277
0.00018207
0.00670554
0.00670457
0.00669693
0.00668429
0.00667296
0.00663676
0.00648431
0.006073
0.00539174
0.00452981
0.00361414
0.00275363
0.00201469
0.0014254
0.00099399
0.000709558
0.000533271
0.000419111
0.00032374
0.000182531
0.00670552
0.00670459
0.00669709
0.00668418
0.00667696
0.00666985
0.00661527
0.00641004
0.00593772
0.0052292
0.00437706
0.0034965
0.00267674
0.00196942
0.00140297
0.000989552
0.00071058
0.000534007
0.000419861
0.000324415
0.000182806
0.00670551
0.00670459
0.0066972
0.00668406
0.00667733
0.00668013
0.00666849
0.00658071
0.00631941
0.00580521
0.00508597
0.00425432
0.00340782
0.00261948
0.00193845
0.0013955
0.000990184
0.000711866
0.000535595
0.000421026
0.000324867
0.000183276
0.0067055
0.00670459
0.00669726
0.00668403
0.00667701
0.00668244
0.00668829
0.00665779
0.00652897
0.00622361
0.00568349
0.00496768
0.00415876
0.00334015
0.00258031
0.00192737
0.001396
0.000992316
0.000714758
0.0005379
0.000422238
0.000325609
0.000183571
0.0067055
0.00670458
0.00669728
0.00668402
0.00667672
0.00668251
0.00669465
0.0066906
0.00663061
0.00646381
0.00613131
0.00557901
0.00487187
0.00408359
0.00329408
0.00256483
0.00192779
0.00139909
0.00099716
0.000719311
0.000540648
0.000423515
0.000326165
0.000184134
0.0067055
0.00670458
0.00669728
0.00668401
0.00667655
0.00668219
0.00669622
0.00670334
0.00667753
0.00658608
0.00639128
0.00604626
0.0054901
0.00479357
0.00403285
0.00327496
0.0025644
0.00193175
0.00140639
0.00100518
0.000724972
0.000543722
0.000425079
0.000327175
0.000184478
0.0067055
0.00670459
0.00669728
0.006684
0.00667646
0.00668193
0.00669636
0.00670778
0.00669775
0.00664598
0.00653145
0.0063239
0.00596965
0.00541424
0.00474159
0.00401092
0.00327119
0.00256883
0.00194147
0.00141888
0.00101555
0.000731706
0.000547518
0.000426695
0.00032784
0.00018514
0.00670549
0.00670459
0.00669728
0.00668398
0.0066764
0.0066818
0.00669621
0.00670909
0.00670587
0.00667351
0.00660313
0.00647439
0.00626118
0.00590213
0.00536541
0.00471746
0.00400278
0.00327545
0.00258024
0.00195871
0.00143549
0.00102814
0.000739766
0.000551421
0.000428554
0.000329036
0.000185538
0.00670549
0.00670458
0.00669728
0.00668397
0.00667637
0.00668175
0.00669607
0.00670934
0.00670888
0.00668538
0.0066376
0.00655386
0.00641713
0.00620575
0.00586032
0.00533877
0.00470413
0.00400473
0.00328857
0.00260198
0.00198192
0.00145595
0.00104282
0.000748271
0.000555727
0.000430426
0.000329825
0.000186301
0.00670548
0.00670458
0.0066973
0.00668397
0.00667634
0.00668173
0.006696
0.00670928
0.00670986
0.00669014
0.00665317
0.00659302
0.00649885
0.00637168
0.00617273
0.00583174
0.00532064
0.00470227
0.00401853
0.00331412
0.00263179
0.00201078
0.00147948
0.00105904
0.00075774
0.000560416
0.000432727
0.000331238
0.000186781
0.00670547
0.00670458
0.00669731
0.00668398
0.00667633
0.00668171
0.00669596
0.00670915
0.00671008
0.00669185
0.00665971
0.006611
0.0065393
0.00645927
0.00634976
0.00614356
0.00580954
0.00531434
0.00471559
0.00404706
0.00334951
0.00266887
0.0020436
0.00150586
0.00107703
0.000768082
0.000565756
0.000434801
0.000332114
0.000187595
0.00670546
0.00670457
0.00669734
0.00668401
0.00667632
0.00668169
0.00669594
0.00670902
0.00671005
0.00669231
0.00666215
0.00661862
0.00655801
0.00650342
0.006443
0.00632224
0.00611818
0.00579875
0.00532601
0.00474483
0.00408641
0.00339404
0.00271084
0.0020809
0.00153563
0.00109697
0.000779607
0.000570989
0.000437272
0.000333768
0.000188373
0.00670544
0.00670455
0.00669737
0.00668404
0.00667631
0.00668166
0.0066959
0.00670889
0.00670994
0.00669234
0.00666278
0.00662148
0.00656599
0.00652465
0.00648962
0.00642038
0.00629433
0.00610434
0.00580787
0.00535364
0.00478623
0.00413613
0.00344596
0.00276035
0.00212305
0.00156781
0.0011185
0.000791757
0.000576755
0.000439745
0.000334639
0.000189123
0.00670543
0.00670454
0.00669741
0.00668409
0.00667631
0.00668161
0.00669585
0.00670877
0.00670981
0.00669224
0.00666273
0.00662227
0.00656905
0.00653432
0.00651173
0.00647004
0.00639119
0.00627836
0.00611032
0.00583204
0.00539477
0.00483914
0.00419561
0.00350557
0.00281626
0.00216788
0.00160192
0.00114189
0.000804818
0.000582847
0.000442729
0.000336204
0.000189911
0.00670541
0.00670452
0.00669746
0.00668415
0.00667631
0.00668156
0.00669578
0.00670863
0.00670966
0.00669212
0.00666248
0.00662235
0.00656999
0.00653847
0.00652174
0.0064936
0.00644108
0.00637407
0.00628162
0.00613119
0.00587063
0.00544871
0.00490344
0.00426425
0.00357312
0.00287676
0.00221806
0.00163969
0.00116682
0.00081854
0.000590043
0.000445966
0.000338117
0.00019077
0.0067054
0.0067045
0.0066975
0.00668422
0.00667632
0.00668149
0.00669568
0.0067085
0.00670952
0.00669202
0.00666219
0.00662225
0.0065702
0.00653999
0.00652599
0.00650413
0.0064652
0.00642375
0.00637551
0.00629984
0.00616699
0.0059229
0.00551535
0.00497849
0.00434216
0.00364793
0.0029425
0.00227312
0.00167866
0.00119294
0.000834615
0.00059834
0.000449598
0.00034001
0.000191667
0.00670448
0.00670538
0.00669755
0.00668429
0.00667632
0.00668141
0.00669557
0.00670835
0.00670938
0.00669193
0.00666192
0.00662214
0.00657024
0.00654038
0.00652748
0.00650844
0.00647595
0.00644807
0.00642432
0.0063921
0.00633349
0.00621717
0.00598897
0.00559433
0.00506444
0.00442911
0.00372962
0.00301421
0.00233048
0.00172001
0.00122388
0.000853819
0.000607063
0.000453357
0.000341944
0.000192651
0.0066976
0.00670447
0.00670536
0.00668437
0.00667634
0.00668133
0.00669544
0.00670821
0.00670924
0.00669188
0.0066617
0.00662208
0.00657027
0.00654026
0.0065278
0.0065098
0.00648029
0.00645932
0.00644846
0.00644018
0.00642453
0.00638208
0.00628214
0.00606851
0.00568606
0.0051613
0.00452482
0.0038184
0.0030908
0.00239118
0.00176889
0.00126028
0.000873796
0.000616084
0.000457132
0.00034396
0.000193628
0.00668445
0.00669773
0.00670444
0.00670533
0.00667635
0.00668123
0.0066953
0.00670805
0.0067091
0.00669184
0.00666155
0.00662208
0.00657036
0.0065399
0.00652758
0.00650992
0.00648153
0.00646429
0.00646036
0.00646456
0.00647218
0.00647223
0.00644614
0.00636155
0.00616208
0.00578951
0.00526894
0.00462921
0.00391349
0.00317211
0.00246227
0.00182675
0.00129627
0.000894488
0.000625262
0.000460985
0.000345931
0.000194575
0.00667636
0.00668465
0.00669793
0.00670441
0.0067053
0.00668114
0.00669515
0.00670789
0.00670897
0.00669182
0.00666145
0.00662212
0.00657051
0.00653941
0.00652711
0.00650951
0.00648149
0.00646599
0.00646593
0.0064771
0.00649771
0.00652053
0.00653593
0.00652515
0.00645581
0.00626886
0.00590524
0.00538706
0.00474135
0.00401487
0.0032672
0.00254582
0.001886
0.00133392
0.000915563
0.000634861
0.000464787
0.000347888
0.000195637
0.00668104
0.0066764
0.00668499
0.00669815
0.00670437
0.00670527
0.006695
0.00670773
0.00670885
0.00669183
0.0066614
0.00662221
0.00657072
0.00653886
0.00652653
0.00650887
0.00648097
0.00646621
0.00646827
0.00648344
0.00651129
0.00654731
0.00658663
0.0066166
0.00661954
0.00656412
0.00638917
0.0060323
0.00551488
0.00486185
0.00413367
0.00337847
0.0026326
0.00194705
0.00137279
0.00093744
0.000644528
0.000468652
0.000349964
0.000196639
0.00669484
0.00668079
0.00667648
0.00668536
0.00669838
0.00670432
0.00670524
0.00670757
0.00670873
0.00669184
0.0066614
0.00662233
0.00657098
0.00653831
0.00652589
0.00650815
0.00648023
0.00646585
0.00646905
0.00648655
0.00651893
0.00656242
0.00661536
0.00666997
0.00671593
0.00673131
0.00668618
0.00652116
0.00616988
0.00565166
0.00500356
0.00427278
0.00349424
0.00272177
0.00200962
0.00141171
0.000958994
0.000654046
0.000472589
0.000351802
0.000197461
0.00670741
0.0066944
0.00668036
0.00667659
0.00668577
0.00669862
0.00670426
0.0067052
0.00670862
0.00669187
0.00666143
0.00662246
0.00657129
0.00653777
0.00652524
0.00650742
0.00647944
0.00646511
0.00646908
0.00648802
0.00652343
0.00657187
0.00663307
0.00670176
0.00677289
0.0068329
0.00686161
0.0068241
0.00666471
0.00631734
0.00581162
0.00517023
0.00441804
0.00361322
0.00281261
0.00207295
0.00145068
0.0009808
0.000663938
0.000476351
0.000353564
0.000198716
0.00670852
0.00670707
0.00669365
0.00667991
0.00667672
0.00668621
0.00669887
0.00670419
0.00670517
0.00669191
0.00666148
0.00662261
0.00657165
0.00653726
0.00652462
0.00650672
0.00647866
0.00646423
0.0064687
0.00648862
0.0065262
0.00657822
0.00664554
0.00672319
0.0068095
0.00689528
0.00696939
0.00700904
0.00697839
0.00681867
0.00648902
0.00599822
0.00534268
0.00456776
0.00373433
0.00290419
0.00213652
0.00148944
0.00100245
0.000673546
0.000480308
0.000356178
0.000199431
0.00669196
0.00670857
0.00670649
0.00669285
0.00667946
0.00667687
0.00668668
0.00669911
0.00670411
0.00670514
0.00666156
0.00662278
0.00657204
0.0065368
0.00652404
0.00650606
0.00647793
0.00646329
0.00646803
0.0064887
0.00652799
0.00658275
0.00665513
0.00673992
0.00683669
0.00693854
0.0070396
0.0071251
0.00717361
0.00714871
0.00700502
0.00668892
0.00619041
0.00551802
0.00471908
0.00385672
0.00299597
0.0021998
0.00152821
0.00102352
0.000683221
0.000483895
0.000357335
5.01532e-05
0.00666166
0.00669264
0.00670873
0.00670584
0.006692
0.006679
0.00667706
0.00668718
0.00669936
0.00670402
0.00670512
0.00662295
0.00657245
0.00653639
0.0065235
0.00650545
0.00647727
0.00646236
0.00646724
0.00648854
0.00652915
0.00658619
0.0066629
0.00675406
0.00686006
0.00697357
0.00709235
0.0072056
0.00730085
0.00735529
0.0073531
0.00722927
0.00689676
0.00638429
0.00569412
0.00487052
0.00397857
0.00308715
0.00226243
0.0015666
0.00104393
0.000692833
0.000487854
0.000338562
5.50858e-05
0.00662312
0.00666283
0.00669395
0.00670883
0.00670512
0.00669109
0.00667855
0.00667729
0.0066877
0.0066996
0.00670392
0.00670509
0.00657289
0.00653603
0.00652301
0.0065049
0.00647669
0.00646146
0.00646639
0.00648821
0.00652991
0.00658896
0.00666951
0.00676629
0.00688134
0.00700594
0.00713862
0.00727074
0.00739494
0.00749664
0.00757584
0.0075982
0.00746717
0.00711466
0.0065792
0.00586923
0.00501993
0.00409872
0.00317693
0.002324
0.00160427
0.00106381
0.000701907
0.000490113
0.000307881
6.0316e-05
0.00657335
0.00662482
0.00666508
0.00669524
0.00670886
0.00670432
0.00669015
0.0066781
0.00667755
0.00668825
0.00669984
0.00670381
0.00670507
0.00653574
0.00652256
0.0065044
0.00647618
0.00646062
0.00646556
0.00648783
0.00653042
0.00659133
0.00667533
0.00677721
0.00690084
0.00703703
0.007184
0.00733156
0.00747647
0.00760795
0.0077367
0.0078433
0.00785903
0.00771355
0.00733852
0.00677262
0.00604014
0.00516594
0.00421605
0.00326467
0.00238412
0.001641
0.00108299
0.000710796
0.000490065
0.000274539
6.44056e-05
0.00653553
0.00657562
0.0066281
0.00666738
0.00669652
0.00670883
0.00670346
0.00668917
0.00667766
0.00667785
0.00668881
0.00670006
0.00670369
0.00670506
0.00652211
0.00650395
0.00647576
0.00645986
0.00646477
0.00648744
0.0065308
0.00659346
0.00668055
0.00678721
0.00691906
0.00706645
0.00722924
0.0073938
0.00755688
0.00771036
0.00787189
0.00803131
0.00813103
0.00813238
0.00796559
0.00756543
0.00696763
0.00620651
0.00530754
0.00432999
0.00334986
0.00244248
0.00167659
0.00110158
0.000719393
0.000484371
0.000251151
6.71197e-05
0.00652167
0.00653642
0.00657991
0.00663141
0.00666971
0.00669776
0.00670873
0.00670253
0.00668815
0.00667725
0.00667819
0.00668939
0.00670028
0.00670358
0.00670505
0.00650355
0.00647541
0.00645918
0.00646406
0.00648709
0.00653113
0.00659544
0.00668532
0.00679655
0.00693628
0.00709434
0.00727304
0.0074578
0.00764234
0.00781574
0.00800342
0.00820016
0.00835237
0.00843608
0.0084151
0.00822076
0.00779081
0.00716131
0.00636808
0.00544429
0.00443976
0.00343205
0.00249883
0.00171096
0.0011196
0.000726335
0.000476121
0.000237301
6.9029e-05
0.00650318
0.00652178
0.00653866
0.00658444
0.00663476
0.00667208
0.00669896
0.00670854
0.00670153
0.00668712
0.00667686
0.00667858
0.00668998
0.00670047
0.00670346
0.00670504
0.00647514
0.00645859
0.00646344
0.0064868
0.00653146
0.00659735
0.00668975
0.00680542
0.00695257
0.00712081
0.00731545
0.0075213
0.00773232
0.00793058
0.00814408
0.00837358
0.00856332
0.0086975
0.00875551
0.00870436
0.00847656
0.008013
0.00735142
0.00652346
0.00557481
0.0045448
0.0035109
0.00255297
0.00174404
0.00113669
0.000731833
0.000470014
0.000228488
7.08049e-05
0.00647498
0.00650384
0.00652239
0.00654132
0.00658915
0.00663813
0.00667448
0.00670011
0.00670827
0.00670046
0.00668607
0.00667652
0.006679
0.00669055
0.00670063
0.00670335
0.00670504
0.00645808
0.0064629
0.00648657
0.00653182
0.0065992
0.00669391
0.00681389
0.00696794
0.00714602
0.00735668
0.00758368
0.00782229
0.00805343
0.0083021
0.00856666
0.00879025
0.00896022
0.00906461
0.00908693
0.00899779
0.00873092
0.00823051
0.00753661
0.0066741
0.0056989
0.00464483
0.00358619
0.00260477
0.00177567
0.00115273
0.000737004
0.000466181
0.000220577
7.28056e-05
0.00645766
0.00647616
0.00650553
0.00652292
0.00654445
0.00659401
0.00664152
0.0066769
0.00670119
0.00670792
0.00669932
0.00668501
0.00667622
0.00667945
0.0066911
0.00670078
0.00670325
0.00670505
0.00646245
0.0064864
0.00653222
0.006601
0.00669786
0.006822
0.00698238
0.0071701
0.00739662
0.00764423
0.00791079
0.008179
0.00847672
0.00879017
0.00905133
0.00925502
0.00939153
0.0094533
0.00942903
0.00929368
0.00898222
0.00844223
0.00771498
0.00681968
0.0058167
0.00473973
0.00365778
0.00265411
0.00180576
0.00116789
0.000742352
0.000462563
0.000211611
7.49913e-05
0.00646211
0.00645757
0.00647893
0.00650708
0.00652353
0.00654806
0.00659896
0.00664495
0.00667934
0.00670218
0.00670747
0.00669813
0.00668397
0.00667598
0.0066799
0.00669161
0.0067009
0.00670315
0.00670505
0.0064863
0.00653267
0.00660276
0.00670163
0.00682973
0.00699595
0.00719316
0.00743495
0.00770233
0.00799769
0.00830681
0.00865951
0.00904071
0.00936125
0.00960798
0.00977722
0.00986308
0.00986576
0.00978169
0.00959101
0.00922938
0.00864732
0.00788577
0.00695934
0.0059283
0.0048295
0.00372563
0.00270096
0.00183432
0.0011824
0.000747432
0.000457537
0.000201891
7.7215e-05
0.00648629
0.00646082
0.00645807
0.00648187
0.00650858
0.00652431
0.00655212
0.00660399
0.0066484
0.00668176
0.00670309
0.00670692
0.0066969
0.00668298
0.0066758
0.00668036
0.00669209
0.006701
0.00670306
0.00670506
0.00653314
0.00660446
0.00670523
0.00683707
0.00700868
0.0072152
0.00747132
0.00775779
0.00808335
0.0084361
0.00884434
0.00930265
0.00972161
0.010052
0.0102689
0.0103775
0.0103851
0.0103057
0.0101455
0.00988922
0.00947166
0.00884519
0.00804879
0.00709255
0.0060338
0.00491419
0.00378972
0.0027453
0.00186142
0.0011962
0.000751626
0.000450775
0.000192331
7.90305e-05
0.00653369
0.00648383
0.00645878
0.00645892
0.00648492
0.00651008
0.00652533
0.0065566
0.00660903
0.00665187
0.00668415
0.00670388
0.00670628
0.00669566
0.00668206
0.00667567
0.00668082
0.00669253
0.00670109
0.00670298
0.00670507
0.00660611
0.00670866
0.00684399
0.00702061
0.00723614
0.00750551
0.0078108
0.00816768
0.00856413
0.00902541
0.00957363
0.010131
0.0106187
0.0109377
0.0110773
0.0110763
0.0109656
0.0107756
0.0105207
0.0101878
0.00970855
0.00903552
0.00820398
0.00721907
0.0061333
0.00499388
0.00385013
0.00278717
0.00188708
0.00120914
0.000754622
0.000442805
0.000184772
8.04798e-05
0.00660773
0.00652988
0.00647895
0.00645701
0.00646025
0.00648803
0.00651166
0.00652668
0.00656152
0.00661404
0.00665537
0.0066865
0.00670456
0.00670557
0.00669447
0.00668123
0.0066756
0.00668127
0.00669294
0.00670116
0.00670291
0.00670508
0.00671191
0.00685046
0.00703177
0.00725587
0.00753744
0.00786153
0.00824982
0.00868767
0.00920115
0.00986339
0.0106097
0.0113216
0.0118376
0.0120621
0.0120453
0.0118745
0.011603
0.0112736
0.0109059
0.0104861
0.00993965
0.00921815
0.00835139
0.00733882
0.00622697
0.0050688
0.00390692
0.00282662
0.00191129
0.00122109
0.000756441
0.000435552
0.000178984
8.19832e-05
0.00671501
0.00660252
0.00652148
0.00647426
0.00645564
0.00646218
0.00649116
0.00651337
0.00652842
0.00656688
0.00661902
0.00665889
0.00668876
0.00670509
0.00670482
0.00669332
0.00668047
0.00667557
0.00668171
0.00669332
0.00670122
0.00670285
0.00670509
0.0068565
0.00704217
0.00727432
0.00756716
0.00791
0.00832847
0.0088048
0.00937527
0.0101845
0.0111682
0.0121505
0.0129185
0.0133364
0.0133687
0.0131296
0.0127452
0.0122826
0.0117929
0.0112982
0.0107827
0.0101645
0.00939301
0.00849111
0.00745187
0.00631492
0.00513891
0.00396019
0.00286373
0.00193404
0.00123201
0.000757262
0.000429403
0.000173215
8.34497e-05
0.0068621
0.00670801
0.00658979
0.00651325
0.00646998
0.00645462
0.00646463
0.00649428
0.00651513
0.00653076
0.00657258
0.00662395
0.00666239
0.00669086
0.00670548
0.00670404
0.00669222
0.00667979
0.00667557
0.00668212
0.00669366
0.00670128
0.0067028
0.0067051
0.00705185
0.00729144
0.00759476
0.00795599
0.00840252
0.00891543
0.00955326
0.0105411
0.0117882
0.0130459
0.0140662
0.0147126
0.0149309
0.0147288
0.0142499
0.0136424
0.0129806
0.012322
0.0116927
0.0110759
0.0103827
0.0095601
0.00862333
0.00755839
0.00639774
0.00520439
0.00401007
0.00289854
0.00195537
0.00124064
0.000757693
0.000422757
0.000167738
8.4844e-05
0.00706073
0.00685313
0.00668955
0.00657718
0.00650546
0.00646617
0.00645401
0.0064675
0.00649727
0.00651657
0.00653376
0.00657856
0.00662881
0.00666576
0.00669275
0.00670575
0.00670324
0.00669119
0.00667918
0.00667561
0.00668252
0.00669396
0.00670133
0.00670276
0.0067051
0.00730727
0.00762033
0.00799924
0.00847139
0.00902073
0.00973851
0.0109248
0.0124301
0.0139264
0.0151529
0.0159989
0.0164298
0.0164317
0.0160167
0.0153264
0.0145181
0.0136704
0.0128481
0.0120838
0.0113636
0.0105936
0.00971944
0.00874827
0.00765843
0.00647578
0.00526552
0.00405671
0.00293117
0.00197266
0.0012478
0.000757929
0.000415859
0.000162877
8.61832e-05
0.00732155
0.00704911
0.00682734
0.00667118
0.00656507
0.00649821
0.00646283
0.00645393
0.00647087
0.00650014
0.0065179
0.00653742
0.00658469
0.00663346
0.00666892
0.00669445
0.0067059
0.00670244
0.00669022
0.00667864
0.00667567
0.00668289
0.00669423
0.00670135
0.00670272
0.0067051
0.00764401
0.00803953
0.00853505
0.0091221
0.00993066
0.0113191
0.0130521
0.0147267
0.0160915
0.0170764
0.0176803
0.0179026
0.0177284
0.0171541
0.0163036
0.0153351
0.0143293
0.0133586
0.0124658
0.0116436
0.0107968
0.00987111
0.00886617
0.00775218
0.00654912
0.00532259
0.00410027
0.00295764
0.0019872
0.00125548
0.000758054
0.00040925
0.000158358
8.74159e-05
0.00766534
0.00730729
0.00701334
0.00680155
0.00665343
0.00655356
0.00649148
0.00645998
0.00645442
0.00647484
0.00650284
0.00651929
0.00654169
0.00659076
0.00663782
0.00667188
0.00669595
0.00670596
0.00670165
0.00668932
0.00667817
0.00667576
0.00668323
0.0066944
0.00670134
0.00670271
0.0067051
0.00807681
0.00859389
0.00922052
0.0101263
0.0117065
0.0136233
0.0154124
0.0168483
0.0179067
0.0186222
0.0190163
0.0190809
0.0187863
0.0181106
0.0171542
0.0160707
0.0149409
0.0138437
0.0128336
0.0119138
0.0109916
0.0100152
0.00897725
0.00783999
0.00661791
0.00537584
0.00413555
0.00297994
0.002003
0.0012637
0.000758333
0.000402755
0.000154547
8.8766e-05
0.00810993
0.0076473
0.00725877
0.00697757
0.00677646
0.0066364
0.00654266
0.0064853
0.00645768
0.00645556
0.00647918
0.00650539
0.00652085
0.00654638
0.00659661
0.0066419
0.00667462
0.00669728
0.00670594
0.00670088
0.00668848
0.00667777
0.00667585
0.00668345
0.00669447
0.00670134
0.00670271
0.0067051
0.00864845
0.00931629
0.0103205
0.0120725
0.0141274
0.0159751
0.0174274
0.018504
0.0192718
0.0197749
0.0200195
0.0199811
0.019616
0.0188875
0.0178723
0.0167158
0.015496
0.0142964
0.0131831
0.0121725
0.0111777
0.0101517
0.0090818
0.0079222
0.00668235
0.00541896
0.00416525
0.00300416
0.00202015
0.00127266
0.000758686
0.000397077
0.000150683
9.02812e-05
0.00869733
0.00808865
0.00758131
0.00721009
0.00694268
0.00675223
0.0066201
0.00653236
0.00647968
0.00645597
0.00645741
0.00648369
0.00650787
0.00652262
0.00655127
0.00660222
0.00664573
0.00667717
0.00669845
0.00670586
0.00670014
0.00668772
0.00667742
0.00667591
0.00668353
0.00669451
0.00670134
0.00670272
0.0067051
0.00940905
0.0105085
0.0124082
0.01456
0.016423
0.0178519
0.0189055
0.0196779
0.020233
0.0205926
0.0207425
0.0206445
0.0202466
0.0195018
0.0184649
0.0172703
0.0159911
0.0147128
0.0135117
0.0124184
0.0113547
0.0102809
0.00918009
0.00799912
0.00673469
0.00545525
0.00419743
0.00303045
0.0020388
0.0012824
0.000759592
0.00039141
0.00014634
9.20876e-05
0.00949372
0.00866974
0.0080004
0.00751515
0.00716239
0.00690883
0.00672885
0.00660452
0.00652269
0.00647465
0.00645488
0.00646
0.00648819
0.00651031
0.00652459
0.00655633
0.00660753
0.0066493
0.00667951
0.00669947
0.00670573
0.00669943
0.00668703
0.0066772
0.00667592
0.00668357
0.00669451
0.00670134
0.00670276
0.00670509
0.0106864
0.0127096
0.0149244
0.0167716
0.0181509
0.0191535
0.0198954
0.0204573
0.0208755
0.0211474
0.0212431
0.0211165
0.0207122
0.0199769
0.0189455
0.01774
0.0164269
0.0150913
0.0138177
0.0126505
0.0115224
0.0104028
0.00927241
0.00806158
0.00677882
0.00549457
0.00423231
0.00305899
0.00205906
0.00129315
0.000760759
0.000385182
0.000141385
9.42666e-05
0.00946441
0.0108433
0.00854606
0.00791203
0.00745022
0.00711591
0.00687603
0.00670634
0.00658967
0.00651365
0.00647024
0.00645443
0.00646341
0.00649246
0.00651271
0.00652677
0.00656156
0.00661253
0.00665264
0.00668166
0.00670036
0.00670557
0.00669876
0.00668661
0.00667711
0.00667593
0.00668357
0.00669447
0.00670135
0.0067028
0.00670508
0.0129771
0.0152281
0.0170385
0.018352
0.0192864
0.019974
0.0205091
0.0209411
0.0212793
0.0215027
0.0215716
0.0214374
0.0210447
0.0203363
0.0193294
0.0181335
0.0168069
0.0154324
0.0141004
0.0128684
0.0116808
0.0105178
0.00934761
0.00811423
0.00682671
0.00553717
0.00427012
0.00308997
0.00208113
0.00130492
0.000761841
0.000377971
0.000135129
9.63046e-05
0.00928044
0.0108183
0.0131974
0.00842582
0.00782485
0.00738685
0.00707066
0.00684429
0.0066847
0.00657556
0.00650527
0.00646648
0.00645448
0.00646732
0.00649629
0.00651502
0.00652927
0.00656687
0.00661724
0.00665575
0.00668363
0.00670114
0.00670538
0.00669834
0.00668646
0.00667707
0.00667593
0.00668353
0.00669441
0.00670133
0.00670285
0.00670507
0.0154787
0.0172401
0.0184793
0.0193357
0.019954
0.0204387
0.0208504
0.0212101
0.0215071
0.0217079
0.0217682
0.0216405
0.0212716
0.0206016
0.0196323
0.0184603
0.0171359
0.0157377
0.01436
0.0130719
0.0118299
0.0106116
0.00941113
0.00817137
0.00687868
0.00558335
0.00431109
0.0031236
0.00210514
0.00131765
0.000762438
0.000368097
0.000128826
9.8037e-05
0.00910234
0.0105419
0.013162
0.0156715
0.00830939
0.00773916
0.00732504
0.00702666
0.00681363
0.00666396
0.00656221
0.00649757
0.00646337
0.00645515
0.00647152
0.0064996
0.00651694
0.00653211
0.00657217
0.00662165
0.00665865
0.00668543
0.00670181
0.00670523
0.0066982
0.00668638
0.00667707
0.00667592
0.00668345
0.00669423
0.00670128
0.00670291
0.00670506
0.0173902
0.0185522
0.0193262
0.0198664
0.0202849
0.0206512
0.0209974
0.021324
0.0216051
0.0217998
0.0218636
0.0217525
0.0214158
0.0207917
0.0198682
0.01873
0.0174192
0.0160097
0.0145973
0.0132612
0.0119513
0.010691
0.00948023
0.0082334
0.0069351
0.00563339
0.00435548
0.00316009
0.00213121
0.0013312
0.000761402
0.000357168
0.000124028
9.98532e-05
0.00893441
0.0102572
0.0128335
0.0156078
0.0174883
0.00819562
0.0076551
0.0072648
0.00698397
0.00678409
0.00664414
0.00654961
0.00649059
0.00646099
0.00645643
0.00647598
0.00650265
0.00651859
0.00653526
0.00657739
0.00662578
0.00666134
0.00668706
0.00670214
0.00670514
0.00669812
0.00668638
0.00667711
0.00667591
0.00668323
0.00669396
0.00670122
0.00670298
0.00670505
0.0185851
0.0192766
0.0197346
0.020077
0.0203801
0.0206855
0.0210055
0.0213244
0.0216057
0.0218051
0.0218811
0.0217941
0.0214957
0.0209221
0.0200493
0.0189514
0.0176625
0.016251
0.0148134
0.0134133
0.0120537
0.0107774
0.00955543
0.00830079
0.00699634
0.00568762
0.00440356
0.00319965
0.00215943
0.00134517
0.000758487
0.000347357
0.000119775
0.000101815
0.00877449
0.00998541
0.0124414
0.0153619
0.0173732
0.0185771
0.00808383
0.00757286
0.0072062
0.00694266
0.0067557
0.00662524
0.00653787
0.00648449
0.00645931
0.00645824
0.00648051
0.00650538
0.0065201
0.00653867
0.00658249
0.00662965
0.00666384
0.00668793
0.00670217
0.0067051
0.00669812
0.00668646
0.00667719
0.00667585
0.00668288
0.00669365
0.00670116
0.00670306
0.00670504
0.0192004
0.0195759
0.0198366
0.0200646
0.0203084
0.0205925
0.0209128
0.0212402
0.0215315
0.0217431
0.0218383
0.0217817
0.0215262
0.0210057
0.0201861
0.0191321
0.0178707
0.0164647
0.0149833
0.0135406
0.012165
0.0108717
0.0096373
0.00837399
0.00706281
0.00574639
0.00445562
0.00324249
0.00218983
0.00135907
0.000756057
0.000338317
0.000115089
0.000103726
0.00862084
0.00972918
0.0120258
0.0150287
0.0172045
0.0184056
0.0190924
0.00797388
0.00749269
0.00714933
0.00690283
0.00672849
0.0066074
0.00652723
0.00647931
0.00645829
0.00646053
0.00648493
0.00650783
0.00652158
0.00654226
0.00658743
0.00663328
0.00666515
0.00668805
0.00670218
0.0067051
0.00669819
0.0066866
0.00667741
0.00667575
0.00668251
0.00669331
0.00670109
0.00670315
0.00670504
0.0194019
0.0195797
0.0197253
0.0198926
0.0201169
0.0204071
0.0207449
0.0210907
0.0213983
0.0216281
0.0217489
0.0217282
0.0215189
0.0210529
0.0202873
0.0192791
0.0180488
0.0166282
0.0151238
0.0136776
0.0122859
0.0109744
0.00972647
0.00845355
0.00713495
0.00581005
0.00451195
0.00328883
0.00222224
0.00137409
0.000754208
0.000329097
0.000110436
0.000105568
0.00847276
0.00948365
0.0116044
0.0146403
0.0169597
0.0182799
0.0188638
0.0192025
0.00786594
0.0074148
0.00709432
0.00686453
0.00670265
0.00659103
0.0065178
0.00647493
0.00645787
0.00646322
0.00648913
0.00651007
0.0065231
0.00654598
0.00659218
0.00663518
0.0066653
0.00668812
0.00670218
0.00670514
0.00669834
0.00668703
0.00667777
0.00667567
0.00668211
0.00669293
0.006701
0.00670325
0.00670504
0.0193169
0.0193776
0.0194581
0.0196044
0.0198377
0.0201534
0.0205191
0.0208887
0.0212171
0.0214707
0.0216235
0.0216438
0.0214834
0.0210721
0.0203602
0.0193981
0.01818
0.0167611
0.0152726
0.0138247
0.012417
0.0110862
0.00982357
0.00854001
0.00721325
0.005879
0.00457287
0.00333881
0.00225718
0.0013903
0.000752191
0.00031912
0.000106321
0.000107722
0.00832955
0.00925043
0.0111869
0.0142111
0.0166698
0.0180908
0.0187484
0.0189165
0.0190319
0.00776038
0.00733945
0.0070413
0.00682809
0.00667881
0.00657627
0.00650941
0.00647129
0.00645799
0.00646625
0.00649302
0.00651215
0.00652472
0.00654978
0.00659474
0.00663536
0.00666538
0.00668812
0.00670217
0.00670523
0.00669876
0.00668773
0.00667818
0.0066756
0.00668169
0.00669252
0.0067009
0.00670335
0.00670505
0.0190316
0.0190203
0.0190756
0.0192301
0.0194945
0.019847
0.020246
0.0206423
0.0209957
0.0212796
0.0214708
0.0215367
0.021427
0.02107
0.0204105
0.0194799
0.0182847
0.0168991
0.0154295
0.0139821
0.012559
0.011208
0.00992933
0.008634
0.00729819
0.00595366
0.00463868
0.00339272
0.00229469
0.00140757
0.000749035
0.000309583
0.00010177
0.000109983
0.0081907
0.00903074
0.0107789
0.0137426
0.0163489
0.0178705
0.0185786
0.0187894
0.0186876
0.0186649
0.00765764
0.00726686
0.00699073
0.00679439
0.00665719
0.00656295
0.00650198
0.00646833
0.00645856
0.0064696
0.00649656
0.00651415
0.00652651
0.00655175
0.00659503
0.00663546
0.00666538
0.00668806
0.00670215
0.00670538
0.00669943
0.0066885
0.00667865
0.00667557
0.00668125
0.00669208
0.00670078
0.00670346
0.00670506
0.0185896
0.0185468
0.0186057
0.0187939
0.0191017
0.0194975
0.0199318
0.0203566
0.0207402
0.0210616
0.021298
0.0214135
0.0213557
0.0210519
0.0204369
0.0195434
0.0183905
0.0170416
0.0155944
0.01415
0.0127124
0.0113404
0.0100445
0.00873615
0.00739033
0.00603444
0.0047097
0.00345069
0.00233492
0.001425
0.00074579
0.00029848
9.72174e-05
0.000111926
0.00805597