/*--------------------------------*- C++ -*----------------------------------*\
  =========                 |
  \\      /  F ield         | OpenFOAM: The Open Source CFD Toolbox
   \\    /   O peration     | Website:  https://openfoam.org
    \\  /    A nd           | Version:  8
     \\/     M anipulation  |
\*---------------------------------------------------------------------------*/
FoamFile
{
    version     2.0;
    format      ascii;
    class       volScalarField;
    location    "0.02";
    object      p;
}
// * * * * * * * * * * * * * * * * * * * * * * * * * * * * * * * * * * * * * //

dimensions      [0 2 -2 0 0 0 0];

internalField   nonuniform List<scalar> 
15677
(
69.2803
68.8743
68.5389
69.0286
68.5376
68.4757
68.9485
68.5566
68.4853
68.4123
68.9289
68.5568
68.4858
68.421
68.3179
68.9107
68.5599
68.4862
68.4204
68.3255
68.22
68.8879
68.5627
68.4864
68.4208
68.3255
68.2268
68.1106
68.8631
68.5644
68.4862
68.421
68.3262
68.2269
68.1165
67.9789
68.8374
68.5655
68.4855
68.4207
68.3269
68.2276
68.1166
67.984
67.8184
68.8105
68.5662
68.4845
68.4201
68.3273
68.2283
68.1174
67.9842
67.8227
67.6229
68.7826
68.5666
68.483
68.4192
68.3278
68.229
68.1182
67.9851
67.8231
67.6262
67.3852
68.7536
68.5664
68.4814
68.4182
68.3283
68.2297
68.119
67.986
67.824
67.6268
67.3876
67.098
68.7236
68.5654
68.4799
68.4174
68.329
68.2306
68.1199
67.987
67.8252
67.628
67.3883
67.0994
66.7538
68.6926
68.5636
68.4785
68.4168
68.33
68.2318
68.1213
67.9885
67.8267
67.6295
67.3898
67.1002
66.7539
66.3446
68.6642
68.561
68.4776
68.4165
68.3316
68.2338
68.1233
67.9905
67.8287
67.6315
67.3917
67.102
66.7549
66.3436
65.8627
68.6397
68.558
68.4773
68.4167
68.3341
68.2368
68.1263
67.9935
67.8316
67.6343
67.3944
67.1044
66.7569
66.3447
65.8606
65.3013
68.6187
68.5549
68.4776
68.4174
68.3378
68.2413
68.1309
67.998
67.8359
67.6383
67.3982
67.1079
66.7599
66.3469
65.8618
65.298
64.6543
68.6012
68.5515
68.4785
68.4189
68.3427
68.2477
68.1375
68.0047
67.8424
67.6444
67.4037
67.1129
66.7643
66.3505
65.8644
65.2993
64.6496
63.9158
68.5865
68.5473
68.4796
68.4211
68.3487
68.2565
68.147
68.0144
67.8518
67.6532
67.4118
67.1201
66.7706
66.3558
65.8686
65.3022
64.651
63.9097
63.0817
68.5742
68.543
68.4807
68.4239
68.3553
68.2672
68.1601
68.0281
67.8653
67.6661
67.4236
67.1307
66.7798
66.3636
65.875
65.3071
64.6542
63.9112
63.0741
62.1497
68.5637
68.5387
68.4819
68.4273
68.3626
68.2788
68.1759
68.0467
67.8843
67.6844
67.4407
67.1461
66.7933
66.375
65.8844
65.3146
64.6598
63.9148
63.0758
62.1406
61.119
68.5554
68.5346
68.4832
68.4312
68.3705
68.2915
68.1932
68.0694
67.9102
67.71
67.465
67.1683
66.8129
66.3918
65.8982
65.3258
64.6684
63.921
63.0797
62.1424
61.1084
59.9905
68.5489
68.5311
68.4845
68.4356
68.379
68.3051
68.2121
68.0941
67.9416
67.745
67.4989
67.1998
66.8412
66.4163
65.9187
65.3422
64.6812
63.9307
63.0866
62.1467
61.1103
59.9782
58.7669
68.5438
68.5282
68.4859
68.4404
68.388
68.3195
68.2325
68.121
67.9758
67.7874
67.5451
67.2438
66.8813
66.4516
65.9486
65.3667
64.7004
63.9453
63.0974
62.1542
61.1148
59.9802
58.7529
57.4526
68.5399
68.526
68.4872
68.4453
68.3974
68.3346
68.254
68.15
68.0132
67.8337
67.6012
67.3037
66.9372
66.5018
65.9919
65.4026
64.729
63.9672
63.1138
62.166
61.1228
59.9849
58.7549
57.4367
56.0535
68.5367
68.5242
68.4885
68.4499
68.4067
68.3501
68.2765
68.1807
68.0534
67.8843
67.6625
67.3766
67.0136
66.5718
66.0536
65.4548
64.7714
64.0003
63.1385
62.184
61.1355
59.9933
58.7596
57.4387
56.0359
54.5772
68.5341
68.5228
68.4896
68.4542
68.4153
68.3654
68.2998
68.2128
68.0959
67.9387
67.7295
67.4562
67.1067
66.6675
66.1397
65.5292
64.8333
64.0495
63.176
62.2114
61.1549
60.0067
58.7683
57.4434
56.0378
54.5576
53.0323
68.532
68.5217
68.4907
68.458
68.4232
68.3794
68.3226
68.246
68.1405
67.9963
67.8017
67.5435
67.2085
66.7844
66.2578
65.6335
64.9218
64.1217
63.2323
62.2534
61.1848
60.0272
58.782
57.4521
56.0423
54.5594
53.0108
51.4282
68.5303
68.5209
68.4916
68.4615
68.4302
68.392
68.3435
68.2785
68.1866
68.0567
67.8783
67.6376
67.3202
66.9124
66.4023
65.777
65.0463
64.2254
63.3152
62.3167
61.2309
60.0591
58.8032
57.4658
56.0506
54.5635
53.0124
51.4048
49.7748
68.5289
68.5201
68.4925
68.4646
68.4366
68.4033
68.3624
68.3084
68.2317
68.1192
67.9586
67.7376
67.4409
67.0533
66.5608
65.9528
65.2179
64.3717
63.435
62.4105
61.301
60.1088
58.8367
57.4872
56.064
54.5714
53.016
51.4062
49.75
48.0812
68.5277
68.5195
68.4932
68.4675
68.4422
68.4135
68.3793
68.3354
68.2731
68.1805
68.0418
67.8425
67.5692
67.2055
66.7357
66.1463
65.4288
64.574
63.6044
62.5467
61.4055
60.1852
58.8894
57.5215
56.085
54.5838
53.023
51.4091
49.7514
48.0556
46.1913
68.5267
68.5191
68.4937
68.4701
68.4473
68.4225
68.3945
68.3595
68.3105
68.2368
68.1234
67.9513
67.7041
67.3678
66.925
66.3601
65.6615
64.8234
63.8395
62.7401
61.5581
60.3
58.9713
57.5764
56.1193
54.6038
53.0341
51.4149
49.7536
48.0575
46.1607
44.071
68.5259
68.5187
68.4942
68.4725
68.4518
68.4305
68.4079
68.3811
68.3441
68.2876
68.1983
68.0581
67.8442
67.5385
67.1271
66.5921
65.9191
65.0992
64.1302
63.0094
61.7758
60.4685
59.0954
57.6627
56.1753
54.6373
53.0523
51.4242
49.7582
48.0595
46.1597
44.0368
41.9309
68.5252
68.5183
68.4947
68.4747
68.4558
68.4377
68.4199
68.4003
68.374
68.3332
68.2661
68.1564
67.9819
67.7162
67.3402
66.8403
66.1994
65.4054
64.4526
63.3436
62.08
60.71
59.2787
57.7948
56.2648
54.6932
53.084
51.44
49.7653
48.0628
46.1585
44.0341
41.8977
39.8159
68.5246
68.518
68.4952
68.4765
68.4593
68.444
68.4305
68.4174
68.4007
68.3739
68.327
68.2453
68.1088
67.8912
67.5624
67.1026
66.5001
65.7394
64.8114
63.7152
62.4589
61.0489
59.5429
57.9914
56.4032
54.7842
53.1385
51.4688
49.7779
48.0673
46.158
44.0295
41.896
39.7812
37.7472
68.5178
68.5238
68.4956
68.4782
68.4625
68.4496
68.4399
68.4325
68.4244
68.4102
68.3814
68.3252
68.2237
68.0527
67.7817
67.3767
66.8185
66.0986
65.2041
64.1302
62.8816
61.4726
59.9153
58.2763
56.6109
54.9269
53.2292
51.5206
49.8028
48.0761
46.1577
44.0241
41.8905
39.7786
37.7105
35.7353
68.496
68.5175
68.523
68.4796
68.4652
68.4545
68.4482
68.446
68.4455
68.4425
68.4299
68.3967
68.3271
68.1992
67.9844
67.6479
67.1522
66.4801
65.6276
64.5857
63.3551
61.947
60.3829
58.68
56.9139
55.1431
53.3739
51.6092
49.8502
48.0959
46.1603
44.0173
41.8825
39.7712
37.7069
35.6969
33.7894
68.4808
68.4966
68.5172
68.5223
68.4677
68.4589
68.4556
68.4579
68.4641
68.4711
68.473
68.4605
68.4197
68.3311
68.1686
67.899
67.4832
66.8811
66.0789
65.0785
63.8766
62.4804
60.9083
59.1892
57.3456
55.4609
53.5955
51.7532
49.9346
48.1373
46.1727
44.0116
41.8705
39.76
37.6969
35.6923
33.7493
31.9181
68.4698
68.4826
68.4975
68.5169
68.5215
68.4628
68.4622
68.4684
68.4807
68.4965
68.5113
68.5173
68.5024
68.4494
68.3347
68.1277
67.7906
67.2801
66.5547
65.6056
64.4429
63.0698
61.5013
59.7636
57.8928
55.9163
53.9241
51.9768
50.0751
48.2153
46.2056
44.0139
41.8571
39.7426
37.6813
35.6797
33.7439
31.8765
30.1284
68.4662
68.4727
68.4846
68.4983
68.5167
68.5208
68.4679
68.4777
68.4953
68.519
68.5453
68.5677
68.576
68.5551
68.4839
68.3343
68.071
67.6517
67.0298
66.1633
65.0508
63.7124
62.1591
60.4144
58.5127
56.4966
54.3981
52.3116
50.297
48.3495
46.274
44.0347
41.8488
39.721
37.6573
35.6596
33.7285
31.8702
30.0854
28.4256
68.4729
68.4706
68.476
68.4866
68.4992
68.5164
68.5202
68.486
68.5083
68.539
68.5754
68.6124
68.6414
68.6492
68.6173
68.5202
68.3249
67.9915
67.4736
66.7223
65.6966
64.405
62.8793
61.1394
59.2178
57.1569
55.0054
52.7983
50.6332
48.5659
46.398
44.0893
41.8563
39.7014
37.6264
35.6285
33.7038
31.8518
30.0781
28.3811
26.8136
68.4931
68.4793
68.4755
68.4792
68.4885
68.5001
68.5162
68.5196
68.5198
68.5567
68.6021
68.6521
68.6994
68.733
68.7364
68.6866
68.5538
68.3001
67.8808
67.2464
66.3467
65.1441
63.659
61.9367
60.007
57.9114
55.6997
53.4254
51.1259
48.8983
46.6041
44.1978
41.8948
39.6945
37.5944
35.5876
33.6656
31.8224
30.0565
28.3723
26.7662
25.2978
68.5297
68.502
68.4862
68.4803
68.4824
68.4904
68.501
68.516
68.519
68.5724
68.6258
68.6873
68.751
68.8075
68.8424
68.8353
68.7591
68.5787
68.2515
67.7288
66.9587
65.8916
64.495
62.804
60.879
58.7598
56.4968
54.1459
51.7646
49.3898
46.9266
44.3868
41.9841
39.7149
37.5715
35.5422
33.6143
31.7768
30.0222
28.3471
26.7552
25.2439
23.9125
68.5859
68.5419
68.5113
68.4929
68.485
68.4856
68.4923
68.5018
68.5157
68.5185
68.6468
68.7186
68.7967
68.8736
68.9366
68.9679
68.9428
68.8292
68.5871
68.1694
67.5241
66.5982
65.3446
63.7388
61.8325
59.7021
57.3976
54.9773
52.5025
50.0314
47.4088
44.6904
42.1509
39.7823
37.572
35.5022
33.5551
31.7151
29.969
28.3075
26.7255
25.2262
23.783
22.5785
68.6649
68.6021
68.5541
68.5203
68.4995
68.4896
68.4886
68.4941
68.5027
68.5156
68.518
68.7463
68.8375
68.9323
69.0204
69.086
69.1068
69.0537
68.8894
68.5692
68.0421
67.2536
66.1517
64.6938
62.8656
60.7379
58.4035
55.922
53.3586
50.7768
48.0435
45.151
42.428
39.9223
37.6148
35.4812
33.4973
31.6418
29.8966
28.2464
26.6802
25.1919
23.7776
22.4084
21.2647
68.77
68.6864
68.6181
68.566
68.5292
68.5058
68.494
68.4915
68.4958
68.5035
68.5154
68.5176
68.8735
68.9846
69.0949
69.1909
69.253
69.2544
69.1609
68.9304
68.5137
67.8564
66.9035
65.6055
63.9271
61.8666
59.5154
56.9826
54.3367
51.6467
48.7864
45.7641
42.8559
40.1658
37.7242
35.4974
33.454
31.5659
29.809
28.1631
26.6109
25.1406
23.7429
22.4235
21.1502
20.0365
68.9042
68.7982
68.7068
68.6335
68.5776
68.5377
68.512
68.4983
68.4943
68.4975
68.5043
68.5152
68.5172
69.0309
69.1613
69.2844
69.3832
69.4336
69.4042
69.2555
68.9408
68.4069
67.5976
66.4588
64.946
63.0334
60.7345
58.1621
55.4413
52.6463
49.6589
46.4881
43.4331
40.551
37.9281
35.5728
33.4421
31.4998
29.715
28.0614
26.5168
25.0629
23.6859
22.3774
21.1528
19.9625
18.8949
69.0701
68.9409
68.8242
68.7266
68.6486
68.5888
68.5458
68.5178
68.5024
68.497
68.4991
68.5051
68.5151
68.5168
69.22
69.3677
69.4992
69.5934
69.6216
69.5474
69.3263
68.9072
68.2339
67.25
65.9043
64.1598
62.0027
59.4635
56.6774
53.7821
50.6682
47.3449
44.1213
41.079
38.2619
35.7323
33.481
31.4589
29.626
27.9493
26.401
24.958
23.6007
22.3142
21.0904
19.9471
18.8377
17.832
69.2695
69.1174
68.9736
68.8493
68.7459
68.6629
68.5993
68.5535
68.5234
68.5062
68.4995
68.5006
68.5058
68.5149
68.5165
69.4414
69.6027
69.7359
69.8158
69.8087
69.673
69.3598
68.814
67.9781
66.7969
65.2247
63.2344
60.8265
58.0503
55.0614
51.823
48.3436
44.9425
41.7158
38.7293
36.0075
33.5924
31.4596
29.5556
27.8376
26.2713
24.8287
23.4859
22.2225
21.0242
19.8791
18.8114
17.7825
16.8427
69.5033
69.33
69.1583
69.0052
68.8736
68.7641
68.6764
68.6093
68.5608
68.5286
68.5099
68.5019
68.502
68.5064
68.5148
68.5163
69.6941
69.8633
69.9893
70.0425
69.9842
69.7679
69.3404
68.6441
67.6217
66.2214
64.4054
62.1587
59.4985
56.4924
53.1336
49.4958
45.9076
42.4822
39.3003
36.4043
33.8035
31.5202
29.5172
27.7377
26.1374
24.6821
23.3438
22.0986
20.9266
19.8135
18.7443
17.7509
16.7977
15.9207
69.7708
69.58
69.3808
69.1978
69.0357
68.8965
68.7811
68.689
68.6186
68.5676
68.5334
68.5132
68.5041
68.5033
68.507
68.5147
68.5161
69.9756
70.1445
70.2517
70.2631
70.135
69.8163
69.2505
68.3791
67.1465
65.5069
63.4326
60.9234
58.0131
54.6114
50.815
47.0307
43.3908
39.9942
36.897
34.1214
31.6632
29.5257
27.6601
26.0086
24.5267
23.1812
21.9448
20.7942
19.71
18.6785
17.6848
16.7623
15.8792
15.0595
70.0698
69.8673
69.6429
69.4299
69.2358
69.0643
68.9178
68.7969
68.7006
68.6271
68.5738
68.5379
68.5163
68.506
68.5044
68.5076
68.5147
68.5159
70.2812
70.439
70.5131
70.4646
70.2454
69.8003
69.0709
67.9992
66.5339
64.6372
62.2945
59.5199
56.1953
52.3166
48.3287
44.4578
40.8243
37.5023
34.5251
31.8961
29.598
27.6159
25.8922
24.3698
23.0054
21.7672
20.6294
19.5698
18.5692
17.6162
16.6955
15.8389
15.0212
14.2553
70.3958
70.19
69.945
69.7039
69.4773
69.2714
69.0907
68.9373
68.8113
68.7112
68.6349
68.5794
68.5419
68.519
68.5077
68.5053
68.508
68.5146
68.5157
70.6039
70.7372
70.7608
70.6316
70.2973
69.7001
68.781
67.4846
65.7659
63.5984
60.979
57.7776
53.9429
49.8211
45.703
41.8082
38.2331
35.0274
32.2021
29.7413
27.6162
25.7956
24.2155
22.8215
21.5723
20.4381
19.3952
18.4224
17.5014
16.6233
15.7712
14.9759
14.2192
13.5056
70.7421
70.5446
70.2859
70.0205
69.7625
69.5212
69.3039
69.1147
68.955
68.8243
68.7207
68.6418
68.5844
68.5453
68.5213
68.5091
68.5062
68.5085
68.5145
68.5156
70.9343
71.0265
70.9793
70.7457
70.2705
69.4943
68.3593
66.8152
64.826
62.3744
59.3216
55.5845
51.4551
47.1488
42.9665
39.1064
35.6394
32.5892
29.9432
27.6673
25.7239
24.0677
22.6308
21.3627
20.2253
19.1913
18.239
17.3489
16.5036
15.6958
14.9078
14.1699
13.4693
12.887
71.0993
70.9251
70.6627
70.3792
70.0929
69.8167
69.5612
69.3333
69.1363
68.9707
68.8357
68.7291
68.6478
68.5886
68.5482
68.5232
68.5103
68.5068
68.5088
68.5145
68.5155
71.2598
71.2917
71.1504
70.7864
70.1426
69.1602
67.7844
65.9721
63.695
60.809
57.2014
53.1203
48.7459
44.3214
40.1413
36.3753
33.0649
30.205
27.7605
25.6816
23.9249
22.4333
21.1372
19.9915
18.9618
18.0236
17.1575
16.3459
15.5722
14.8299
14.102
13.4188
12.8588
12.3662
71.4552
71.323
71.0703
70.778
70.4687
70.1597
69.8658
69.5971
69.3595
69.1552
68.9844
68.8456
68.7361
68.6527
68.592
68.5505
68.5248
68.5113
68.5074
68.5091
68.5145
68.5154
71.5654
71.5144
71.2533
70.7308
69.8903
68.6748
67.035
64.9341
62.2257
58.7701
54.771
50.3847
45.8286
41.3585
37.2517
33.6396
30.5302
27.89
25.6637
23.7894
22.2209
20.8919
19.733
18.7053
17.7786
16.9314
16.147
15.4097
14.7031
14.0224
13.3511
12.8117
12.3481
11.8185
71.7945
71.7274
71.5014
71.2125
70.8883
70.5509
70.22
69.9096
69.6288
69.3822
69.1714
68.9959
68.8537
68.7417
68.6565
68.5946
68.5524
68.5261
68.5121
68.5078
68.5093
68.5144
68.5153
71.8325
71.6739
71.2646
70.5545
69.4889
68.0148
66.0881
63.5616
60.271
56.3785
52.0177
47.3874
42.7254
38.2899
34.3282
30.9252
28.0546
25.6567
23.6599
21.9938
20.6124
19.4423
18.4157
17.501
16.6723
15.9113
15.204
14.5366
13.8928
13.2701
12.744
12.3025
11.8006
11.2297
72.0986
72.1242
71.9458
71.6765
71.3485
70.9895
70.6248
70.2734
69.9478
69.6559
69.4012
69.1847
69.0051
68.8599
68.7458
68.6593
68.5966
68.5538
68.5271
68.5127
68.5082
68.5096
68.5144
68.5153
72.0399
71.7461
71.1593
70.2317
68.9135
67.156
64.8102
61.6897
57.9211
53.6192
48.9601
44.1628
39.4772
35.1557
31.4045
28.2574
25.6549
23.5149
21.7539
20.2962
19.0983
18.082
17.1824
16.3751
15.639
14.9596
14.3247
13.7228
13.138
12.6625
12.2351
11.7527
11.21
10.5897
72.3456
72.4961
72.3908
72.1612
71.8438
71.4729
71.0802
70.69
70.3197
69.9803
69.6783
69.4165
69.1949
69.0117
68.8642
68.7487
68.6613
68.598
68.5548
68.5279
68.5132
68.5085
68.5097
68.5144
68.5152
72.1631
71.7055
70.9103
69.7361
68.1385
65.9678
63.018
59.386
55.1739
50.5325
45.6504
40.7636
36.1331
31.9977
28.5127
25.6584
23.3452
21.4725
19.9487
18.6965
17.6766
16.8081
16.0292
15.3237
14.6753
14.0724
13.5054
12.965
12.5281
12.152
11.6851
11.1594
10.5695
9.89571
72.5106
72.8229
72.8205
72.655
72.3666
71.9967
71.5842
71.16
70.7463
70.3586
70.0067
69.6959
69.4278
69.2018
69.0159
68.8668
68.7504
68.6625
68.5988
68.5555
68.5284
68.5136
68.5088
68.5099
68.5144
68.5152
72.1756
71.524
70.4904
69.0404
67.0342
64.2521
60.7673
56.6731
52.0947
47.1832
42.1454
37.2411
32.7385
28.8535
25.6808
23.1471
21.1364
19.5342
18.2453
17.1932
16.3447
15.6169
14.9526
14.3431
13.777
13.246
12.7427
12.353
12.0166
11.5997
11.091
10.5182
9.87611
9.14601
72.5657
73.0812
73.2158
73.1435
72.9068
72.5544
72.1335
71.6821
71.2286
70.7932
70.3898
70.0268
69.7083
69.4349
69.2057
69.018
68.8679
68.751
68.6629
68.5992
68.5558
68.5287
68.5138
68.509
68.5099
68.5143
68.5152
72.0479
71.1731
69.8702
68.0147
65.3924
62.0622
58.1101
53.6355
48.7494
43.6204
38.4883
33.6373
29.3332
25.7559
22.9322
20.7382
19.036
17.7028
16.6433
15.784
15.099
14.5048
13.9487
13.4294
12.9404
12.4767
12.1266
11.8392
11.4633
11.0029
10.4489
9.8248
9.12737
8.33659
72.4802
73.2451
73.5546
73.6094
73.4515
73.1372
72.7226
72.2538
71.7661
71.2855
70.8305
70.4131
70.0404
69.7153
69.438
69.2068
69.0181
68.8677
68.7508
68.6628
68.5992
68.5558
68.5288
68.514
68.5091
68.51
68.5143
68.5152
71.7496
70.6215
68.9189
66.446
63.2704
59.4778
55.1406
50.3296
45.1718
39.8735
34.7124
29.9891
25.952
22.7326
20.2858
18.4421
17.0487
15.9789
15.1407
14.4657
13.9357
13.4678
13.0133
12.5785
12.1618
11.8555
11.6097
11.2833
10.8649
10.3579
9.75493
9.07548
8.31872
7.4615
72.2211
73.2859
73.812
74.0322
73.985
73.7336
73.3438
72.8704
72.3568
71.8355
71.3303
70.8577
70.4282
70.0473
69.7174
69.4378
69.2055
69.0166
68.8664
68.7498
68.6621
68.5987
68.5556
68.5291
68.5144
68.5092
68.51
68.5144
68.5153
71.2464
69.7356
67.4245
64.3983
60.7702
56.5942
51.9001
46.7725
41.3769
35.9651
30.8487
26.3311
22.6263
19.807
17.7558
16.2659
15.1765
14.3616
13.7349
13.2347
12.851
12.5016
12.1424
11.7868
11.5332
11.3343
11.0505
10.6819
10.2179
9.66087
9.00479
8.26572
7.44467
6.51515
71.7496
73.1745
73.9599
74.3884
74.4884
74.3296
73.9871
73.5257
72.9972
72.442
71.8899
71.3627
70.8746
70.4348
70.0481
69.7153
69.4345
69.2022
69.0137
68.864
68.748
68.6607
68.5979
68.5559
68.5296
68.5145
68.5092
68.5099
68.5144
68.5153
70.4002
68.3109
65.4571
61.9893
57.9825
53.4363
48.3912
42.967
37.3765
31.9187
26.9297
22.6972
19.3842
16.9976
15.3524
14.2137
13.4193
12.8482
12.4222
12.087
11.8406
11.6023
11.3322
11.1476
11.0057
10.7704
10.4456
10.0316
9.51854
8.90767
8.19412
7.39062
6.49996
5.49267
72.8756
70.9252
73.9687
74.6515
74.94
74.908
74.6401
74.211
73.6821
73.1022
72.5086
71.9289
71.3821
70.881
70.4338
70.0435
69.7095
69.4287
69.1971
69.0095
68.8607
68.7454
68.659
68.5981
68.5566
68.5299
68.5145
68.5091
68.5098
68.5144
68.5154
69.0148
66.4216
63.1442
59.3029
54.9177
49.9963
44.6078
38.9155
33.1862
27.7627
22.99
19.1199
16.2498
14.3187
13.0821
12.2866
11.7751
11.4355
11.1986
11.0182
10.9002
10.7657
10.6782
10.6115
10.4352
10.1605
9.79151
9.32878
8.76285
8.09391
7.31824
6.44526
5.4797
4.3903
73.8051
72.2593
69.5502
74.793
75.3152
75.4489
75.2874
74.9152
74.4039
73.8118
73.1845
72.5563
71.952
71.3886
70.8781
70.4263
70.0344
69.7005
69.4207
69.1904
69.0041
68.8563
68.7424
68.659
68.5991
68.557
68.5298
68.5143
68.509
68.5097
68.5144
68.5155
67.1724
64.2003
60.5627
56.3373
51.5605
46.2616
40.5441
34.6248
28.8277
23.5305
19.0664
15.6298
13.2431
11.7805
10.9478
10.4834
10.2408
10.1193
10.0597
10.0239
10.0257
10.0906
10.1297
10.0316
9.81816
9.50103
9.08455
8.5693
7.94648
7.21505
6.37229
5.42514
4.38003
3.206
74.7811
73.3598
71.1609
67.7241
75.5868
75.9294
75.9109
75.6249
75.1533
74.5648
73.9141
73.2436
72.5845
71.9591
71.3836
70.8672
70.4133
70.0215
69.6888
69.4108
69.1823
68.9974
68.8515
68.7419
68.6604
68.5997
68.557
68.5296
68.514
68.5087
68.5095
68.5144
68.5156
65.0103
61.719
57.7014
53.0729
47.8949
42.2206
36.1985
30.1079
24.3298
19.2604
15.1959
12.2548
10.3802
9.38899
8.94976
8.80133
8.81227
8.89497
9.00071
9.09965
9.3202
9.52451
9.53662
9.40453
9.15114
8.78831
8.32071
7.74897
7.06494
6.26636
5.35168
4.32657
3.19818
1.93608
75.7254
74.5251
72.4534
69.647
65.59
76.3242
76.4894
76.3237
75.9184
75.3529
74.6924
73.9882
73.2789
72.5931
71.9522
71.3689
70.8494
70.3954
70.0052
69.6748
69.3991
69.1723
68.99
68.8505
68.7438
68.6612
68.5997
68.5566
68.5291
68.5138
68.5085
68.5093
68.5145
68.5157
62.596
58.9585
54.5383
49.4918
43.9051
37.8641
31.5742
25.3854
19.7285
14.9942
11.4149
9.01889
7.67245
7.14684
7.08588
7.23639
7.48461
7.7575
8.01705
8.35445
8.72868
8.91243
8.89543
8.72681
8.43036
8.01834
7.49578
6.8634
6.11362
5.24322
4.25248
3.14566
1.92988
0.574254
76.6061
75.6622
73.8498
71.1444
67.8198
63.2139
76.9995
76.9924
76.6847
76.166
75.5126
74.786
74.0333
73.2904
72.5847
71.9333
71.3457
70.8258
70.3737
69.9862
69.6586
69.3852
69.1618
68.9882
68.853
68.7449
68.6612
68.5991
68.5559
68.5288
68.5135
68.5082
68.5091
68.5145
68.5158
59.903
55.8959
51.0556
45.5763
39.5764
33.186
26.6809
20.4861
15.0662
10.7756
7.75688
5.94125
5.12705
5.05383
5.35257
5.78333
6.25243
6.70191
7.22454
7.73
8.08934
8.25092
8.20256
7.99462
7.65184
7.18695
6.60543
5.90805
5.08785
4.14148
3.07076
1.87758
0.569583
-0.88376
77.4164
76.731
75.226
72.7896
69.5236
65.7544
60.5626
77.6093
77.435
76.9914
76.3659
75.6314
74.8446
74.0496
73.2811
72.5616
71.9042
71.3156
70.7975
70.3486
69.9645
69.6397
69.3705
69.1589
68.9916
68.8545
68.7449
68.6604
68.598
68.5556
68.5286
68.5132
68.5078
68.5088
68.5145
68.516
56.9066
52.5144
47.2354
41.3083
34.8946
28.1836
21.5354
15.4474
10.3911
6.64853
4.25149
3.03601
2.74729
3.10746
3.74453
4.43636
5.11026
5.85238
6.56082
7.05533
7.39861
7.53629
7.45418
7.20396
6.8114
6.28984
5.64519
4.87835
3.98329
2.95714
1.80205
0.517693
-0.886395
-2.43949
78.1522
77.7224
76.5305
74.4241
71.4204
67.683
63.4269
57.6086
78.1494
77.8139
77.2415
76.517
75.708
74.8682
74.0405
73.254
72.5262
71.8667
71.2796
70.7652
70.3202
69.9394
69.6199
69.3661
69.1633
68.9935
68.8545
68.7438
68.6589
68.5979
68.5558
68.5283
68.5127
68.5073
68.5084
68.5146
68.5162
53.5916
48.7983
43.0592
36.6682
29.8459
22.8585
16.1629
10.3159
5.7555
2.65448
0.922737
0.312446
0.533174
1.30291
2.25566
3.18945
4.19223
5.14152
5.84402
6.32685
6.65278
6.76469
6.6463
6.35066
5.90477
5.32259
4.61052
3.76984
2.7958
1.68591
0.442019
-0.937245
-2.4399
-4.39572
78.808
78.6302
77.7536
75.9828
73.3161
69.8455
65.6118
60.8116
54.3371
78.6155
78.1262
77.4336
76.6176
75.7425
74.8611
74.0099
73.2119
72.4804
71.8221
71.2389
70.729
70.2878
69.9134
69.6136
69.3718
69.1657
68.9935
68.853
68.7419
68.659
68.5986
68.5557
68.5278
68.512
68.5067
68.508
68.5147
68.5165
49.9447
44.7304
38.5043
31.6335
24.4157
17.2175
10.6001
5.14708
1.21283
-1.16961
-2.21109
-2.22488
-1.51863
-0.365924
0.879361
2.18865
3.42484
4.37435
5.07061
5.54078
5.84792
5.93207
5.77472
5.43046
4.92756
4.28072
3.49697
2.57831
1.52129
0.323596
-1.01271
-2.48866
-4.39575
-6.69027
79.3784
79.447
78.8885
77.4556
75.1326
72.0112
68.0684
63.2829
57.8988
50.7362
79.0039
78.3698
77.5655
76.6675
75.7399
74.828
73.9613
73.1574
72.4262
71.7718
71.1935
70.6878
70.2543
69.9048
69.6209
69.3749
69.1657
68.9916
68.8504
68.7424
68.6607
68.5991
68.5554
68.527
68.5112
68.5061
68.5075
68.5148
68.5168
45.9502
40.2879
33.5438
26.1755
18.5886
11.2779
4.89692
0.00347738
-3.18475
-4.79253
-5.13781
-4.57618
-3.41362
-1.90608
-0.223542
1.35317
2.59748
3.54737
4.23682
4.69321
4.98001
5.03426
4.83521
4.43902
3.87535
3.15983
2.30031
1.29971
0.155844
-1.13318
-2.56362
-4.44413
-6.6884
-8.97421
79.8588
80.1653
79.9257
78.8366
76.8591
74.0921
70.5264
66.062
60.6873
54.6851
46.7915
79.3118
78.5421
77.6366
76.6725
75.7057
74.773
73.8975
73.0927
72.3652
71.716
71.1422
70.6454
70.2428
69.914
69.6248
69.3749
69.1633
68.9882
68.8515
68.7454
68.662
68.5992
68.5547
68.526
68.5102
68.5052
68.507
68.5149
68.5171
41.5854
35.4429
28.14
20.258
12.3557
5.07218
-0.882978
-5.04785
-7.38903
-8.19022
-7.85189
-6.74513
-5.15902
-3.13795
-1.14284
0.453508
1.7067
2.65692
3.33877
3.7801
4.04488
4.06705
3.82347
3.37197
2.74379
1.9557
1.01651
-0.0696625
-1.30382
-2.68584
-4.52059
-6.73833
-8.96896
-11.2217
80.2455
80.7785
80.8546
80.1155
78.4906
76.0769
72.8922
68.8344
63.8176
57.8255
51.1671
42.4818
79.5355
78.6417
77.6536
76.6396
75.6452
74.6999
73.8216
73.0199
72.2977
71.653
71.0894
70.6305
70.2543
69.9189
69.6248
69.3718
69.1588
68.99
68.8563
68.748
68.6627
68.5987
68.5536
68.5247
68.509
68.5043
68.5064
68.515
68.5175
36.8224
30.1558
22.2434
13.8474
5.72377
-1.34705
-6.66243
-9.93862
-11.3585
-11.3472
-10.3531
-8.73841
-6.55159
-4.1629
-2.13123
-0.513698
0.748959
1.69917
2.37248
2.79738
3.03841
3.02622
2.7352
2.22505
1.52876
0.664396
-0.357956
-1.53297
-2.85914
-4.64499
-6.81489
-9.01654
-11.2149
-13.4157
80.5336
81.2812
81.6654
81.2801
80.0168
77.9607
75.1548
71.5049
66.9252
61.3392
54.7033
47.3392
37.7797
79.6728
78.6764
77.625
76.5749
75.5629
74.6121
73.7359
72.9393
72.2215
71.5883
71.0705
70.6447
70.2603
69.9189
69.6209
69.366
69.1618
68.9974
68.8607
68.7497
68.6629
68.5979
68.5522
68.5231
68.5076
68.5032
68.5057
68.5151
68.518
31.6221
24.3689
15.7928
6.91006
-1.28519
-7.90441
-12.3534
-14.6037
-15.0615
-14.2556
-12.6461
-10.324
-7.70736
-5.26284
-3.19194
-1.5518
-0.2794
0.670319
1.33406
1.74108
1.95654
1.90763
1.56629
0.994265
0.226443
-0.717498
-1.82607
-3.09163
-4.82159
-6.94148
-9.08972
-11.2615
-13.4087
-15.5432
80.7194
81.6669
82.3488
82.3184
81.4252
79.7331
77.3087
74.0645
69.9167
64.8044
58.6379
51.3292
43.1925
32.6515
79.7323
78.6562
77.5582
76.484
75.4629
74.5127
73.6409
72.8484
72.1433
71.5648
71.0878
70.652
70.2603
69.914
69.6135
69.3705
69.1724
69.0042
68.864
68.7507
68.6623
68.5964
68.5504
68.5212
68.5059
68.5019
68.505
68.5153
68.5184
25.9226
17.9971
8.70576
-0.589124
-8.62544
-14.5007
-17.8627
-18.9865
-18.4763
-16.9154
-14.4635
-11.636
-8.94462
-6.44055
-4.32793
-2.66413
-1.38191
-0.433289
0.219791
0.607401
0.795365
0.707351
0.312911
-0.324046
-1.16642
-2.19275
-3.38922
-5.05782
-7.12123
-9.21565
-11.3308
-13.4542
-15.5362
-17.593
80.8125
81.9293
82.893
83.2183
82.7021
81.3816
79.3427
76.5081
72.7868
68.1332
62.4864
55.7302
47.7122
38.7186
27.0438
79.726
78.5901
77.4597
76.3718
75.3489
74.4022
73.5339
72.755
72.1147
71.5858
71.0967
70.652
70.2542
69.9047
69.6199
69.3853
69.1824
69.0096
68.8663
68.7509
68.6611
68.5944
68.548
68.5189
68.504
68.5005
68.5042
68.5155
68.519
19.631
10.9267
0.886974
-8.66168
-16.2143
-21.0171
-23.1002
-23.0416
-21.5925
-19.0143
-15.9616
-13.0362
-10.2653
-7.69823
-5.54199
-3.85378
-2.5618
-1.61495
-0.973737
-0.607205
-0.448688
-0.578128
-1.02832
-1.73289
-2.65234
-3.76263
-5.36032
-7.36076
-9.39571
-11.4546
-13.5206
-15.5787
-17.5856
-19.551
80.8269
82.0788
83.2857
83.9627
83.8335
82.8923
81.2431
78.8247
75.5324
71.3249
66.1702
59.9917
52.6349
43.8597
33.8989
20.8709
79.6645
78.486
77.3358
76.2428
75.222
74.2775
73.4236
72.7207
72.1399
71.5965
71.0967
70.6446
70.2427
69.9135
69.6399
69.3993
69.1906
69.0137
68.8676
68.7502
68.6591
68.5918
68.5452
68.5162
68.5018
68.499
68.5034
68.5157
68.5195
12.6236
3.0106
-7.75078
-17.2769
-23.9253
-27.3227
-27.9834
-26.7378
-24.0395
-20.7362
-17.5542
-14.5249
-11.67
-9.03766
-6.83641
-5.12333
-3.82178
-2.87752
-2.24953
-1.90579
-1.77867
-1.95179
-2.46007
-3.23445
-4.2324
-5.74114
-7.66731
-9.63585
-11.6329
-13.6426
-15.6433
-17.6253
-19.543
-21.4019
80.7753
82.1321
83.536
84.5303
84.798
84.2511
82.9953
81.0002
78.1438
74.3795
69.6942
64.0503
57.3448
49.3703
39.7778
28.6969
14.0171
79.5574
78.3513
77.1917
76.0985
75.0782
74.1488
73.383
72.7508
72.1526
71.5965
71.0878
70.6304
70.2544
69.9398
69.659
69.4111
69.1972
69.0166
68.8677
68.7485
68.6563
68.5884
68.5418
68.5131
68.4994
68.4973
68.5026
68.5159
68.5201
4.71501
-5.94139
-17.2649
-26.3512
-31.5888
-33.2819
-32.4426
-29.6235
-26.0345
-22.5573
-19.2384
-16.1001
-13.159
-10.4598
-8.21269
-6.47456
-5.16391
-4.22327
-3.60994
-3.29072
-3.19694
-3.41577
-3.98406
-4.82949
-6.22209
-8.05428
-9.94374
-11.8714
-13.8186
-15.7635
-17.6874
-19.5808
-21.3928
-23.1316
80.6689
82.1044
83.6637
84.9255
85.5658
85.4338
84.5841
83.0189
80.6088
77.2906
73.0626
67.9177
61.8011
54.5713
45.9559
35.4728
23.0658
6.30708
79.4134
78.1924
77.0294
75.9344
74.9294
74.1012
73.4186
72.7658
72.1526
71.5857
71.0703
70.6455
70.2883
69.965
69.6752
69.4209
69.2022
69.018
68.8665
68.7456
68.6525
68.5842
68.5377
68.5097
68.4968
68.4957
68.5017
68.5161
68.5208
-4.37917
-16.1638
-27.6453
-35.7437
-38.9989
-38.7649
-35.9038
-31.9576
-28.1296
-24.4696
-21.0084
-17.7591
-14.7306
-11.9643
-9.67122
-7.90836
-6.58942
-5.65362
-5.05644
-4.76351
-4.70485
-4.9711
-5.60054
-6.83574
-8.54493
-10.3337
-12.1781
-14.0543
-15.9365
-17.8042
-19.6394
-21.4294
-23.1226
-24.7243
80.5183
82.0096
83.6873
85.1678
86.1365
86.4034
85.9822
84.8631
82.9122
80.0493
76.274
71.604
66.0238
59.4518
51.6977
42.4149
30.9478
16.9453
-2.53641
79.2404
78.0118
76.844
75.764
74.8744
74.1431
73.4362
72.7658
72.1398
71.5646
71.0896
70.6884
70.3209
69.9867
69.6891
69.4288
69.2054
69.0178
68.8639
68.7414
68.6476
68.5792
68.5332
68.506
68.4941
68.4939
68.5008
68.5163
68.5215
-15.1147
-27.8877
-38.8149
-45.2682
-45.902
-43.0125
-38.6695
-34.3849
-30.3081
-26.4604
-22.8563
-19.4966
-16.3818
-13.5493
-11.2111
-9.42449
-8.09845
-7.16888
-6.58944
-6.32444
-6.30245
-6.61728
-7.6306
-9.17334
-10.83
-12.5679
-14.3579
-16.1683
-17.9725
-19.7511
-21.4831
-23.1541
-24.7152
-26.1685
80.3327
81.8602
83.6243
85.2769
86.5291
87.1549
87.146
86.5006
85.036
82.6435
79.3245
75.1138
70.0315
64.0431
57.033
48.7529
38.7744
26.2035
10.2584
-12.9759
79.0418
77.8044
76.6505
75.701
74.9233
74.1636
73.4362
72.7507
72.1144
71.5886
71.143
70.7298
70.3493
70.0057
69.7007
69.4345
69.2066
69.0156
68.8596
68.7359
68.6416
68.5735
68.5283
68.5021
68.4913
68.4921
68.5
68.5165
68.5222
-28.2605
-41.3101
-50.6886
-54.4695
-51.2242
-46.3533
-41.4992
-36.8731
-32.5462
-28.5144
-24.7715
-21.305
-18.1071
-15.211
-12.8298
-11.0213
-9.68975
-8.76805
-8.20792
-7.97228
-7.98821
-8.68007
-9.98951
-11.4676
-13.0657
-14.7449
-16.4672
-18.1986
-19.9129
-21.5892
-23.2039
-24.7439
-26.1591
-27.454
80.1167
81.6673
83.4906
85.2727
86.7629
87.7077
88.0686
87.8776
86.9436
85.0573
82.2067
78.45
73.8366
68.3759
62.0071
54.5765
45.7676
35.0655
21.2392
2.91953
-25.9017
78.8118
77.5867
76.5791
75.7579
74.947
74.1636
73.4185
72.7204
72.1436
71.654
71.1947
70.7662
70.3743
70.0218
69.7095
69.4376
69.2054
69.0114
68.8534
68.7288
68.6345
68.5672
68.523
68.498
68.4883
68.4902
68.4991
68.5168
68.5229
-45.343
-55.9384
-62.4729
-61.6535
-55.3547
-49.6833
-44.3356
-39.3811
-34.8173
-30.6125
-26.7397
-23.1737
-19.8984
-16.9438
-14.5232
-12.6953
-11.3605
-10.4485
-9.90909
-9.70408
-10.0941
-11.0679
-12.2972
-13.7067
-15.2402
-16.8489
-18.4907
-20.1312
-21.7434
-23.304
-24.7898
-26.1872
-27.4439
-28.5745
79.8643
81.4361
83.3004
85.1746
86.857
88.0812
88.7713
88.9815
88.5698
87.2525
84.9094
81.6116
77.45
72.4724
66.6686
59.9476
52.1142
42.7736
31.3328
16.0559
-5.1355
-43.4455
78.569
77.5063
76.6448
75.7852
74.947
74.143
73.3826
72.7555
72.2227
71.7174
71.2401
70.7984
70.396
70.0346
69.7152
69.4377
69.2015
69.0048
68.8453
68.7204
68.6267
68.5604
68.5174
68.4937
68.4853
68.4883
68.4982
68.5171
68.5237
-66.3317
-69.4205
-73.3656
-66.8677
-59.3066
-52.9049
-47.1134
-41.8652
-37.0905
-32.7314
-28.743
-25.0888
-21.7456
-18.7396
-16.2848
-14.4414
-13.1059
-12.2055
-11.6884
-11.8589
-12.5188
-13.3934
-14.542
-15.8793
-17.3381
-18.8642
-20.414
-21.9521
-23.4493
-24.8829
-26.2268
-27.469
-28.5639
-29.521
79.597
81.1622
83.061
85.0006
86.8307
88.2944