/*--------------------------------*- C++ -*----------------------------------*\
  =========                 |
  \\      /  F ield         | OpenFOAM: The Open Source CFD Toolbox
   \\    /   O peration     | Website:  https://openfoam.org
    \\  /    A nd           | Version:  8
     \\/     M anipulation  |
\*---------------------------------------------------------------------------*/
FoamFile
{
    version     2.0;
    format      ascii;
    class       volScalarField;
    location    "0.06";
    object      epsilon;
}
// * * * * * * * * * * * * * * * * * * * * * * * * * * * * * * * * * * * * * //

dimensions      [0 2 -3 0 0 0 0];

internalField   nonuniform List<scalar> 
15677
(
3.52881e+06
890065
577964
474893
418128
377244
343988
315970
292091
272470
259066
248344
226278
189949
162757
145623
135928
129430
124466
118212
114839
115533
118311
121556
124679
127438
129684
131393
132604
133322
133594
133508
133164
132637
132032
1.21149e+07
3.59556e+06
2.09828e+06
1.51474e+06
1.20037e+06
1.00935e+06
904095
859216
850422
874776
904804
794108
595020
427840
319547
249498
206547
177495
157448
145070
138332
133616
131725
133619
138969
147201
156103
164093
170375
174664
176689
176492
174773
172242
169884
8.09092e+06
3.1243e+06
2.19985e+06
1.92281e+06
1.8855e+06
1.99512e+06
2.19915e+06
2.43833e+06
2.67468e+06
2.8e+06
2.62148e+06
2.03529e+06
1.32798e+06
796384
497900
314190
204863
139636
108061
96046.6
94537
100188
109259
118799
127796
136493
145199
153944
162442
170148
176385
180690
182869
183343
182996
4.25339e+06
2.01652e+06
1.6056e+06
1.4688e+06
1.42619e+06
1.43134e+06
1.45858e+06
1.48731e+06
1.48348e+06
1.42434e+06
1.25562e+06
1.01632e+06
787722
580877
414979
298055
216022
159944
123289
101896
94350.6
98156.7
111642
131129
145662
153322
157775
160334
161297
160852
159122
156282
152676
148596
144294
1.24851e+06
670643
605749
624126
686210
785462
861397
869185
778668
553985
326161
184255
113972
75430.3
54872
44614.4
40498
40575.8
43945
50480.2
60648.9
74668.9
90020.2
104843
117036
123430
123970
118379
110309
103055
97145.3
92385.8
88525.2
85377.6
82801.6
387355
210763
184215
180584
182524
184663
181438
169156
148438
132645
126808
107329
74143.3
46567.2
32593
27565.1
26725.1
28288.5
31853.4
36767.9
42228.4
46870.1
49971.2
51610.3
52171
52054.2
51676.5
51088.2
50312.6
49435.3
48535.9
47669.2
46869.9
46157.4
45539.6
201182
113721
104033
107115
116358
130151
142693
146981
137906
108721
66454.2
39649.8
28007.3
23086
21296.9
20946.3
21420.9
22528.8
24112.2
26058.5
28276.9
30534.9
32508
33830.9
34365.7
34176
33631.2
33024.3
32466.4
31986.3
31579.8
31233
30932.7
30667.8
30433.1
38872.8
27476.4
27071.3
28076.2
29837.8
31459.8
31605.7
29836.5
24302.6
19055.8
16361
16478.5
16441.4
15350.8
14161.5
13862.7
14368.6
15483.1
16891.7
18349.1
19591.2
20404.6
20823.3
21007.1
21078.8
21104.5
21105.6
21088.6
21060.4
21026.6
20991.1
20957.9
20928.3
20903.1
20883
53278.8
16556.9
10550.8
8483.33
7524.48
7010.14
6689.74
6497.52
6412.42
6433.37
6592.88
6872.05
7261.04
7816.9
8534.09
9346
10207.4
11084.1
11946.9
12786
13585.6
14295.7
14864.7
15263.6
15503.2
15615.9
15667.3
15701.1
15732.2
15764.4
15797.5
15831
15863.1
15886.4
15902.4
35526.5
13560.4
9120.72
7305.67
6326.61
5731.13
5350.62
5108.3
4966.84
4913.82
4945.04
5074.94
5316.89
5689.51
6177.92
6740.32
7381.56
8074.5
8786.4
9475.05
10090.4
10582.3
10965.4
11271.7
11514.4
11706.7
11860.3
11984.1
12084.5
12166.3
12233
12287
12330.8
12367
12397.8
52583.7
18345
11870.7
9145.07
7563.75
6492.84
5710.81
5122.61
4685.52
4382
4206.38
4154.67
4233.82
4457.1
4801.69
5210.44
5669.94
6160.09
6663.5
7166.13
7652.56
8089.37
8443.82
8721.31
8933.81
9092.69
9218.8
9322.82
9410.47
9485.15
9549.08
9603.93
9651.01
9691.36
9725.76
34626.8
13240.5
9006.07
7099.09
5937.43
5124.87
4521.51
4066.36
3729.35
3494.32
3355.51
3307.68
3351.55
3499.11
3740.2
4037.17
4380.47
4752.23
5132.37
5502.14
5852.04
6166.87
6433.29
6654.77
6837.52
6987.81
7111.55
7213.6
7297.88
7367.98
7426.96
7477.13
7520.3
7557.84
7590.83
26632.4
10319.3
7146.85
5749.66
4890.15
4272.42
3795.49
3418.9
3125.68
2908.63
2765.59
2697.16
2702.14
2786.89
2942.91
3141.52
3375.76
3635.97
3910.9
4191.32
4467.16
4720.52
4933.36
5110.34
5256.27
5375.57
5473.96
5556.78
5627.29
5687.78
5739.94
5785.07
5824.27
5858.41
5888.14
25284.8
9778.05
6667.9
5275.54
4409.1
3778.16
3289.98
2907.25
2612.15
2394.92
2252.48
2180.66
2171.02
2224.73
2334.5
2477.07
2645.61
2832.6
3031.42
3235.25
3440.09
3630.35
3794.37
3932.85
4049.45
4147.55
4230.26
4300.28
4359.85
4410.77
4454.55
4492.42
4525.38
4554.28
4579.78
13435.1
5424.99
3798.05
3115
2718.86
2448.88
2246.68
2087.58
1961.09
1863.66
1795.79
1760.58
1760.79
1801.72
1881.1
1984.45
2107.53
2244.65
2390.66
2541.52
2693.5
2837.77
2963.26
3070.88
3162.56
3240.25
3305.8
3361.8
3410
3451.69
3487.89
3519.43
3547
3571.18
3592.43
13381.5
5116.04
3456.12
2745.42
2334.78
2059.25
1858.81
1707.39
1592.76
1509.18
1454.69
1429.25
1431.75
1465.47
1527.37
1606.4
1699.62
1803.35
1914.1
2028.33
2144.54
2254.28
2351.11
2435.13
2507.55
2569.78
2623.2
2669.14
2708.75
2743
2772.72
2798.61
2821.25
2841.15
2858.8
8596.72
3550.58
2472.49
1999.54
1724.65
1542.3
1412.74
1317.99
1249.1
1201.46
1173.17
1163.83
1174.14
1206.23
1257.74
1320.8
1393.86
1474.35
1559.81
1648.29
1738.34
1824.03
1900.07
1966.52
2024.22
2074.12
2117.14
2154.23
2186.4
2214.41
2238.87
2260.3
2279.13
2295.72
2310.38
8401.81
3194.31
2129.87
1677.1
1421.94
1257.87
1145.28
1066.1
1011.09
975.388
956.681
953.388
965.844
995.322
1039.31
1091.67
1151.33
1216.42
1284.9
1355.7
1427.49
1495.87
1556.91
1610.48
1657.23
1697.9
1733.23
1763.92
1790.62
1813.89
1834.21
1852
1867.67
1881.54
1893.85
5445.83
2252.19
1561.74
1261.31
1089.44
978.16
901.886
848.84
813
791.221
781.914
784.384
799.066
826.917
865.399
909.617
959.089
1012.48
1068.55
1126.25
1184.73
1240.51
1290.42
1334.36
1372.84
1406.43
1435.71
1461.19
1483.4
1502.83
1519.89
1534.9
1548.15
1559.87
1570.26
5377.37
2034.18
1349.81
1062.75
904.144
804.873
739.096
694.978
666.463
650.417
644.998
649.399
663.804
688.851
722.284
760.073
801.9
846.701
893.421
941.326
989.775
1036.05
1077.49
1114.03
1146.1
1174.18
1198.72
1220.16
1238.92
1255.34
1269.76
1282.47
1293.7
1303.66
1312.49
3978.6
1568.02
1061.4
845.958
725.701
650.031
599.925
566.668
545.786
534.888
532.582
538.354
552.295
574.942
604.249
636.774
672.358
710.192
749.517
789.768
830.423
869.24
904.024
934.735
961.738
985.423
1006.17
1024.35
1040.27
1054.25
1066.58
1077.44
1087.03
1095.51
1103.01
3603.48
1356.05
896.271
705.07
600.519
536.022
494.193
467.081
450.65
442.728
441.958
447.951
460.733
480.729
506.122
534.036
564.34
596.409
629.714
663.751
698.105
730.9
760.295
786.266
809.125
829.201
846.815
862.267
875.83
887.75
898.239
907.483
915.644
922.863
929.263
2816.98
1079.65
720.739
570.494
488.014
437.1
404.215
383.156
370.765
365.314
365.755
371.804
383.501
401.227
423.365
447.399
473.329
500.668
528.991
557.91
587.075
614.903
639.845
661.89
681.305
698.368
713.351
726.505
738.059
748.216
757.156
765.037
771.998
778.158
783.623
2413.93
900.089
592.948
466.648
398.371
356.846
330.461
313.926
304.568
300.893
302.071
307.918
318.489
334.095
353.295
374.006
396.245
419.618
443.779
468.412
493.228
516.889
538.087
556.819
573.316
587.817
600.552
611.734
621.557
630.194
637.799
644.507
650.435
655.687
660.353
1898.82
713.39
472.205
373.076
319.615
287.285
266.957
254.484
247.783
245.687
247.603
253.363
263.026
276.866
293.617
311.534
330.672
350.712
371.37
392.39
413.531
433.661
451.677
467.586
481.59
493.895
504.698
514.182
522.513
529.84
536.292
541.985
547.019
551.483
555.453
1537.87
565.734
371.889
293.879
252.572
228.04
212.945
204.015
199.638
198.907
201.424
207.065
215.904
228.192
242.827
258.349
274.841
292.044
309.726
327.672
345.681
362.795
378.087
391.571
403.427
413.835
422.966
430.977
438.013
444.198
449.646
454.454
458.708
462.483
465.845
1153.74
430.886
285.659
226.924
195.866
177.654
166.804
160.829
158.452
158.964
162.06
167.641
175.794
186.756
199.577
213.051
227.282
242.064
257.205
272.525
287.856
302.383
315.332
326.725
336.725
345.488
353.167
359.898
365.804
370.994
375.564
379.597
383.167
386.337
389.163
253.171
333.493
216.371
170.144
146.872
134.08
127.139
123.962
123.478
125.163
128.782
134.296
141.822
151.605
162.841
174.538
186.821
199.524
212.486
225.555
238.586
250.888
261.817
271.403
279.794
287.131
293.546
299.16
304.079
308.398
312.198
315.551
318.519
321.157
323.509
1068.48
211.303
139.61
114.504
102.48
96.2793
93.4752
92.9706
94.1943
96.86
100.865
106.25
113.172
121.888
131.724
141.874
152.47
163.381
174.469
185.602
196.656
207.043
216.229
224.253
231.25
237.347
242.663
247.304
251.361
254.918
258.044
260.8
263.24
265.408
267.343
203.321
113.215
84.7377
73.3606
68.4001
66.5833
66.6459
68.0042
70.3727
73.6287
77.7702
82.8938
89.1845
96.9033
105.486
114.274
123.402
132.76
142.231
151.698
161.05
169.789
177.472
184.148
189.939
194.962
199.324
203.118
206.425
209.317
211.854
214.089
216.065
217.821
219.391
131008
129291
127076
124216
120578
116066
110647
104373
97378.1
89845.2
82010.1
74159.8
66692.8
59893.6
53847.3
48602.9
44176.8
40575.3
37819.6
35726.4
34103.8
32938.3
166813
162959
159090
155215
151315
147351
143315
139265
135323
131730
128934
127723
128832
133047
141670
154651
171242
189839
207869
222424
232197
236557
182457
179364
172207
163296
154331
146309
139681
134543
130884
128731
128066
128975
131518
135571
141104
147981
155608
163173
169880
175258
179006
180944
138871
131986
125011
118339
112327
107279
103467
101001
99916.6
100028
101242
103294
105847
108593
111255
113710
116000
118294
120695
123010
125126
126963
80356.2
77923.8
75601.9
73408.4
71437
69790.3
68559.5
67840.8
67663.1
68054.1
68980.6
70379.2
72104.4
73988.2
75923.4
77880.6
79873.4
81846.2
83752.8
85535.2
87139.1
88569.7
45136.6
44881
44609
44337.5
44102.2
43949.1
43908.3
44020.3
44321.6
44839.5
45589.6
46564.8
47702.9
48925.2
50180.6
51419
52628.6
53800.4
54922.5
55987.6
56997.4
57951.8
30336.4
30361.9
30380
30396.3
30417.5
30453.3
30515.1
30615.9
30769.4
30989
31287.5
31672.4
32132.5
32644.4
33190.6
33753.3
34316.7
34867.6
35395.6
35890.7
36343.7
36753
20990.9
21227.8
21458.1
21678.5
21892.9
22104.1
22324.1
22546.6
22775.3
23011.6
23255.7
23504.6
23755.5
24006.2
24257.8
24509
24757.7
25001.3
25238.3
25468.5
25692.7
25910.1
16010.6
16217.5
16426.2
16636
16846.4
17057
17268.1
17480.6
17694.1
17909.5
18127.6
18347.6
18564
18772.8
18974.4
19168.7
19355.7
19535.2
19706.8
19870.2
20025.5
20173.5
12511.9
12715.5
12922.6
13132.8
13345.9
13561.8
13779.7
13999
14218.5
14437.3
14656.1
14873
15082.1
15280.2
15468.6
15648.1
15819.6
15984
16141.9
16294.4
16442.4
16586.3
9835.76
10027.8
10223.4
10422.4
10624.7
10830.3
11039.1
11251
11465.7
11683.1
11902.9
12123.6
12339.2
12545.5
12743.1
12932.4
13114
13288.4
13456.2
13617.8
13773.9
13925.3
7693.25
7871.44
8054.12
8240.86
8431.39
8625.41
8822.58
9022.69
9226.26
9433.42
9644.05
9856.39
10064.6
10264.7
10457.4
10643.1
10822.3
10995.5
11163
11325.4
11483.3
11636.8
5979.04
6136.9
6299.21
6465.92
6637.07
6812.65
6992.65
7176.97
7365.6
7558.54
7755.85
7956.12
8153.9
8345.3
8530.65
8710.3
8884.58
9053.83
9218.36
9378.48
9534.31
9686.13
4657.62
4793.11
4933.24
5077.82
5226.76
5380.24
5538.44
5701.51
5869.51
6042.47
6220.39
6401.96
6582.19
6757.46
6928
7094.02
7255.79
7413.53
7567.44
7717.56
7863.99
8006.89
3657.21
3770.26
3887.78
4009.82
4136.48
4267.86
4404.09
4545.31
4691.67
4843.33
5000.5
5162.22
5324.07
5482.52
5637.49
5789.03
5937.19
6082.05
6223.67
6362.12
6497.43
6629.74
2912.42
3005.99
3103.62
3205.42
3311.57
3422.21
3537.51
3657.64
3782.79
3913.17
4049.04
4189.54
4330.66
4469.28
4605.25
4738.62
4869.47
4997.85
5123.82
5247.42
5368.7
5487.71
2354.81
2432.55
2513.9
2599.01
2688.05
2781.19
2878.64
2980.59
3087.17
3198.54
3314.87
3435.41
3556.8
3676.47
3794.36
3910.42
4024.67
4137.11
4247.75
4356.63
4463.77
4569.21
1931.23
1996.63
2065.17
2136.99
2212.26
2291.15
2373.81
2460.34
2550.91
2645.7
2744.9
2847.97
2952.11
3055.08
3156.81
3257.25
3356.38
3454.16
3550.61
3645.71
3739.48
3831.93
1602.11
1658.03
1716.71
1778.25
1842.76
1910.33
1981.14
2055.34
2133.1
2214.58
2299.95
2388.78
2478.67
2567.72
2655.85
2743.02
2829.19
2914.32
2998.42
3081.47
3163.46
3244.4
1340.06
1388.58
1439.48
1492.86
1548.84
1607.54
1669.09
1733.62
1801.28
1872.22
1946.61
2024.04
2102.47
2180.22
2257.24
2333.48
2408.91
2483.5
2557.24
2630.1
2702.09
2773.2
1127.09
1169.75
1214.51
1261.48
1310.75
1362.45
1416.67
1473.56
1533.22
1595.8
1661.44
1729.8
1799.06
1867.74
1935.8
2003.2
2069.9
2135.87
2201.11
2265.58
2329.29
2392.23
950.579
988.56
1028.43
1070.28
1114.2
1160.3
1208.67
1259.44
1312.7
1368.59
1427.23
1488.31
1550.21
1611.61
1672.46
1732.71
1792.34
1851.33
1909.64
1967.28
2024.22
2080.45
802.601
836.676
872.485
910.106
949.626
991.133
1034.72
1080.49
1128.54
1178.98
1231.93
1287.1
1343.03
1398.51
1453.49
1507.95
1561.84
1615.14
1667.83
1719.88
1771.3
1822.06
677.334
708.078
740.431
774.467
810.267
847.91
887.485
929.078
972.783
1018.7
1066.93
1117.21
1168.2
1218.81
1268.98
1318.67
1367.84
1416.47
1464.54
1512.02
1558.91
1605.18
570.679
598.498
627.83
658.745
691.318
725.625
761.746
799.762
839.76
881.827
926.059
972.217
1019.06
1065.58
1111.71
1157.42
1202.67
1247.41
1291.64
1335.33
1378.46
1421.02
479.509
504.717
531.358
559.5
589.216
620.578
653.661
688.545
725.308
764.034
804.809
847.413
890.699
933.719
976.416
1018.74
1060.66
1102.13
1143.12
1183.62
1223.6
1263.04
401.415
424.256
448.461
474.1
501.242
529.958
560.323
592.41
626.298
662.064
699.791
739.275
779.449
819.425
859.142
898.547
937.595
976.247
1014.47
1052.24
1089.53
1126.33
334.475
355.145
377.12
400.469
425.262
451.569
479.462
509.017
540.307
573.409
608.402
645.1
682.507
719.789
756.88
793.721
830.262
866.46
902.277
937.681
972.65
1007.16
277.127
295.788
315.702
336.937
359.563
383.651
409.273
436.503
465.416
496.088
528.595
562.767
597.677
632.538
667.278
701.836
736.156
770.189
803.892
837.228
870.163
902.67
228.084
244.873
262.867
282.133
302.744
324.77
348.284
373.362
400.077
428.507
458.726
490.582
523.208
555.862
588.469
620.963
653.285
685.382
717.209
748.722
779.881
810.644
32110.2
31498.4
31338.7
31714.2
32729.4
34527.5
236738
232100
222172
207676
189986
170850
181041
178796
174973
169917
164083
158315
128131
128231
127691
126768
125756
124975
89465.7
89783.8
89909.7
89841.7
89594.6
89169.5
58475.1
58477.6
58264.5
57824.4
57169.4
56274.4
36826.1
36549.2
36235.1
35880.8
35488.2
35063.1
25933.2
25757.9
25558.1
25338.6
25106
24866.6
20198
20102.2
20019.7
19949.7
19888
19831.5
16637.9
16601.4
16568.1
16539
16514.5
16493.9
13994.4
13984.2
13976.5
13970.8
13966.9
13964.9
11712
11710.8
11710.4
11711.1
11712.8
11715.1
9762.58
9764.57
9766.45
9768.12
9769.58
9770.8
8079.11
8081.43
8083.12
8084.2
8084.71
8084.61
6697.34
6700.24
6701.91
6702.43
6701.8
6699.99
5548.53
5551.06
5552.41
5552.63
5551.72
5549.68
4623.34
4625.82
4627.1
4627.2
4626.12
4623.86
3879.46
3881.71
3882.85
3882.92
3881.91
3879.81
3286.16
3288.33
3289.44
3289.51
3288.55
3286.54
2809.96
2811.98
2813.02
2813.11
2812.24
2810.4
2424.83
2426.71
2427.7
2427.79
2426.99
2425.3
2109.61
2111.34
2112.25
2112.34
2111.61
2110.07
1848.39
1849.97
1850.79
1850.88
1850.21
1848.8
1629.17
1630.6
1631.36
1631.43
1630.82
1629.52
1443.07
1444.37
1445.05
1445.11
1444.55
1443.36
1283.46
1284.63
1285.25
1285.29
1284.77
1283.69
1145.35
1146.42
1146.97
1147
1146.53
1145.53
1024.98
1025.94
1026.44
1026.47
1026.03
1025.12
919.427
920.302
920.748
920.768
920.363
919.53
826.441
827.216
827.608
827.623
827.26
826.515
37167.2
40279.5
43997.7
48279.2
53046
58189.8
63574.6
69041.2
74412.2
79502.2
84123.6
88065.4
91115.6
93253.7
94586.2
95231.4
95304.9
94911.2
94156.4
93226
92238.2
91270.1
153704
138489
123980
111483
101843
95336
91685.1
89903.3
89360.4
89508.5
89895.8
90364.1
90941.7
91573.7
92023.3
92289.2
92465.1
92465.9
91997.7
90955.3
89519.2
87908.3
154040
152031
152256
155412
161848
171144
181367
189178
192968
191339
183010
168535
151265
135381
122801
113609
106316
100096
94933.7
90903.4
87921
85818
124225
123244
122379
121685
121132
120671
120111
119177
117774
116069
114552
113822
114285
115902
118386
121782
123019
121679
117620
112643
108945
106564
88126.6
86572.3
84788.5
82776.5
80526.4
78065.3
75525.9
73148.4
71195.6
69870.2
69308.9
69583.7
70704
72637.9
74914.3
76874.1
78189.9
78984.9
79429.9
79750.1
80160.4
80816.5
54885
53164.4
51430.5
49716.9
48051.9
46472.2
45026.3
43769.9
42756.2
42026.6
41605.7
41499.3
41658.4
42013.2
42465.3
42917.5
43316.1
43649.6
43922.1
44144.3
44328.3
44484.9
34368.5
33481.5
32638.6
31849.7
31128.7
30485.3
29929.6
29470.3
29113
28858.3
28698.8
28626.9
28633.2
28689.8
28774.3
28855.3
28910.2
28933
28955
28975.4
28997.1
29022.9
24504.7
24043.7
23618.9
23233
22888.7
22586.7
22325.3
22101.3
21912.4
21756
21627.4
21520.5
21429.6
21347.9
21268.1
21184.1
21092.2
20990.5
20878
20753.7
20616.8
20466.2
19680.3
19442.7
19217.3
19003.3
18801.1
18610.6
18430.9
18260.7
18098
17940.7
17786.1
17632.6
17481.2
17331.7
17181.3
17028
16870.5
16708.4
16541.2
16369
16192.3
16011.3
16396.9
16224.9
16057.6
15894.4
15734.4
15576.7
15419.9
15262.2
15100.4
14932.3
14755.8
14570.1
14378.8
14185.3
13989.7
13791.8
13591.5
13388.4
13182.7
12975.5
12767.3
12559.2
13886.4
13731.4
13575.5
13417.2
13255.8
13090.4
12920.1
12743.7
12560.2
12368.3
12167.3
11957.5
11744.4
11532.2
11320.9
11110.5
10901.5
10694
10488.5
10285.6
10085.5
9888.98
11640.8
11488.8
11333.7
11174.9
11011.7
10843.6
10670
10490
10303.3
10109
9906.66
9696.91
9485.13
9275.64
9068.24
8863.24
8661.21
8462.63
8267.91
8077.35
7891.22
7709.91
9696.5
9545.88
9391.89
9234.07
9071.98
8905.22
8733.36
8556.03
8372.84
8183.44
7987.48
7786.12
7584.85
7387.89
7195.36
7007.47
6824.38
6646.26
6473.15
6305.08
6142.05
5984.11
8013.48
7870.41
7724.14
7574.5
7421.3
7264.31
7103.29
6938.01
6768.28
6593.95
6414.89
6232.34
6051.36
5875.76
5705.6
5540.89
5381.55
5227.43
5078.27
4934.11
4795
4661.05
6632.49
6499.21
6363.18
6224.25
6082.35
5937.42
5789.42
5638.29
5484.05
5326.75
5166.56
5004.82
4845.96
4693.09
4546.03
4404.59
4268.61
4137.94
4012.42
3891.95
3776.37
3665.56
5488.48
5368.27
5246.01
5121.69
4995.26
4866.7
4735.96
4603.01
4467.8
4330.48
4191.25
4051.36
3914.8
3784.14
3659.1
3539.46
3425
3315.52
3210.8
3110.65
3014.85
2923.23
4569.23
4462.64
4354.6
4245.1
4134.12
4021.64
3907.68
3792.25
3675.38
3557.12
3437.52
3317.64
3200.86
3089.45
2983.19
2881.9
2785.35
2693.29
2605.5
2521.77
2441.89
2365.71
3831.82
3738.38
3643.87
3548.3
3451.66
3353.97
3255.25
3155.52
3054.83
2953.24
2850.82
2748.41
2648.86
2554.02
2463.65
2377.53
2295.52
2217.46
2143.13
2072.33
2004.88
1940.64
3244.41
3162.65
3080.08
2996.7
2912.52
2827.54
2741.81
2655.33
2568.16
2480.34
2391.92
2303.63
2217.88
2136.27
2058.58
1984.62
1914.2
1847.11
1783.22
1722.4
1664.53
1609.47
2773.35
2701.57
2629.12
2556
2482.22
2407.8
2332.75
2257.12
2180.92
2104.2
2027.01
1949.95
1875.14
1803.98
1736.26
1671.82
1610.49
1552.12
1496.57
1443.7
1393.37
1345.49
2392.48
2328.96
2264.85
2200.15
2134.88
2069.05
2002.67
1935.78
1868.4
1800.57
1732.32
1664.21
1598.11
1535.24
1475.44
1418.56
1364.44
1312.96
1263.99
1217.41
1173.1
1130.95
2080.72
2023.97
1966.67
1908.82
1850.45
1791.57
1732.19
1672.35
1612.06
1551.37
1490.31
1429.38
1370.26
1314.05
1260.6
1209.78
1161.45
1115.5
1071.8
1030.26
990.753
953.191
1822.3
1771.06
1719.3
1667.04
1614.28
1561.04
1507.35
1453.22
1398.7
1343.81
1288.6
1233.51
1180.09
1129.31
1081.05
1035.19
991.617
950.211
910.872
873.499
837.997
804.279
1605.37
1558.65
1511.43
1463.73
1415.58
1366.97
1317.95
1268.53
1218.75
1168.65
1118.27
1068.04
1019.34
973.09
929.172
887.473
847.889
810.318
774.665
740.838
708.749
678.314
1421.16
1378.16
1334.71
1290.8
1246.47
1201.72
1156.59
1111.11
1065.31
1019.23
972.933
926.795
882.11
839.715
799.505
761.377
725.233
690.98
658.529
627.793
598.69
571.143
1263.12
1223.25
1182.96
1142.25
1101.14
1059.65
1017.83
975.692
933.286
890.656
847.856
805.253
764.044
725.003
688.032
653.035
619.919
588.598
558.986
530.999
504.56
479.592
1126.35
1089.15
1051.55
1013.57
975.224
936.547
897.569
858.328
818.87
779.243
739.506
700.011
661.871
625.803
591.715
559.515
529.114
500.429
473.376
447.875
423.847
401.219
1007.14
972.241
936.973
901.357
865.417
829.186
792.7
756.003
719.145
682.179
645.17
608.451
573.065
539.677
508.195
478.531
450.6
424.318
399.603
376.375
354.558
334.077
902.615
869.734
836.508
802.965
769.138
735.065
700.791
666.362
631.832
597.261
562.714
528.514
495.635
464.693
435.598
408.263
382.604
358.536
335.978
314.852
295.079
276.585
810.562
779.438
747.996
716.281
684.332
652.192
619.908
587.531
555.116
522.728
490.435
458.547
427.977
399.293
372.406
347.23
323.679
301.67
281.121
261.951
244.084
227.443
90484.2
89825.6
89151.8
88445.5
87680.2
86833.8
85907.6
84951.8
84069.7
83449.7
83317.6
84360.1
87218.7
92467.1
100060
109532
120162
130896
139288
152336
173899
211485
268524
336185
375765
387991
395628
407285
425674
451958
488740
545488
657222
1.01478e+06
3.94723e+06
86692.4
86031.8
85738
85758.5
86171.3
87004.5
88304.4
90145
92659
96070.7
100678
106495
111794
115232
116920
122046
132173
149353
172658
204294
249293
349598
526466
773253
998287
1.03344e+06
1.02262e+06
1.02664e+06
1.05693e+06
1.1332e+06
1.28468e+06
1.57516e+06
2.16157e+06
3.74078e+06
1.27308e+07
84625.2
83834.9
83218.4
82826.5
82705.4
82897.5
83414.8
84159
84698.8
84676.4
83700.9
81370.3
77736.4
73274.7
69156.2
69100
73710.5
88075.3
122173
201495
367060
661470
1.21821e+06
2.05555e+06
2.98013e+06
3.4983e+06
3.53802e+06
3.33097e+06
3.06536e+06
2.83246e+06
2.6709e+06
2.638e+06
2.89307e+06
3.93731e+06
1.03075e+07
105612
105343
105614
106586
108400
111136
114648
117835
118656
113853
102227
86954.9
73426.7
66241.9
64701.2
70265
84752.9
115630
176196
287984
466227
707639
945327
1.15906e+06
1.42892e+06
1.70528e+06
1.89199e+06
1.97212e+06
1.98547e+06
1.96134e+06
1.95595e+06
2.0182e+06
2.23388e+06
2.91552e+06
6.34963e+06
81948
83407.8
85456.7
88289.8
91991.6
96187.5
99647.5
100536
98793.8
94194.7
87267.7
78847.5
69590.6
60054.7
51134.8
44624.8
41936.4
44082.5
53528.2
75657
124734
252032
549924
935165
1.2581e+06
1.42375e+06
1.46997e+06
1.44282e+06
1.36456e+06
1.27441e+06
1.22156e+06
1.21665e+06
1.294e+06
1.59699e+06
3.38648e+06
44828.6
45386.9
46029.3
46768.9
47611.4
48574.7
49690.5
50937.5
52208.4
53237
53540.4
52343.6
49307.7
44585.6
39153.9
35177.7
34383.4
38673.5
49640.9
67399.4
84311.7
96972.1
135463
209504
300587
384159
419025
430033
432542
429227
425536
425390
438679
501117
875620
29183.1
29478.3
29828.2
30244.6
30741.1
31326.8
31983.6
32655
33135.8
33053.4
32398.3
31180.4
29729.1
28176.1
26527
24841.9
23256.8
21973.2
21428.6
21857.1
23523.7
26496.7
32060.5
42908.6
63948.4
98869.3
133359
150685
152998
142741
128828
119095
114199
116921
172613
20416.3
20469.2
20530.7
20601.1
20679.7
20765.3
20855
20943.9
21023.8
21081.2
21085.1
20965.1
20594.2
19831.4
18613.8
17117.5
15802.4
15057.8
15294.3
16853.2
19892
22920.2
23663.3
20395
18335.9
19183.1
22015.9
22980
23274.3
23411.1
22866.6
21963
21103.7
20776.4
27056.9
15914.9
15900
15880.7
15862.3
15845.8
15832.1
15821.1
15808.7
15778.3
15684.5
15464.5
15096.1
14589.5
13974.1
13258.3
12461.3
11619
10785.6
10006.7
9356.53
8888.48
8539.41
8205.98
7788.69
7318.45
6989.39
6755.7
6697.72
6823.97
7131.05
7745.44
8934.69
11457.5
18603.6
60873.2
12437.8
12398.8
12353.2
12299.3
12235.3
12159.1
12067.4
11955.6
11817.7
11645.3
11428
11156.8
10818.9
10383.6
9814.49
9126.45
8412.21
7719.1
7076.28
6507.84
6027.55
5620.5
5296.02
5072.13
4946.55
4908.27
4959.07
5109.71
5372.65
5781.87
6413.11
7442.71
9362.05
14162.3
38403.2
9774.43
9735.08
9688.44
9633.58
9569.25
9493.93
9405.7
9302.16
9179.94
9032.16
8843.74
8596.67
8283.71
7896.34
7432.72
6929.58
6424.64
5929.26
5455.76
5019.1
4637.89
4326.31
4138.92
4092.65
4170.87
4368.9
4689.38
5146.32
5757.06
6565.4
7661.24
9251.6
11961.8
18380.9
52688.7
7604.64
7568.71
7527.78
7480.64
7425.73
7361.09
7284.26
7192.22
7081.38
6947.48
6785.31
6588.9
6352.58
6071.03
5741.26
5378.76
5003.36
4629.18
4271.25
3945.8
3667.28
3444.39
3311.22
3278.52
3337.16
3491.29
3749.98
4124.88
4638.55
5328.47
6264.43
7599.13
9769
14614.3
39004.7
5892.86
5862.06
5826.59
5785.76
5738.65
5684.18
5621.02
5547.51
5461.45
5359.71
5237.23
5087.17
4905.22
4686.23
4430.11
4153.09
3873.75
3601.44
3346.55
3118.03
2924.38
2771.68
2687.03
2679.31
2743.63
2880.77
3091.26
3378.51
3751.02
4227.5
4850.31
5721.9
7144.75
10384.5
26884.5
4584.08
4558.52
4529.57
4496.54
4458.6
4414.73
4363.66
4303.88
4233.53
4150.3
4051.31
3933.04
3792.3
3626.67
3435.67
3233.06
3030.67
2834.34
2650.38
2484.49
2343.18
2232.27
2174.27
2178
2241.55
2372.88
2575.54
2852.78
3215.53
3682.74
4294.23
5146.59
6542.98
9697.96
25569.7
3602.16
3581.28
3557.5
3530.33
3499.22
3463.48
3422.27
3374.58
3319.14
3254.24
3177.43
3086.43
2979.32
2854.09
2710.93
2559.68
2409.3
2263.58
2126.1
2001.79
1895.76
1811.75
1764.55
1757.74
1787.17
1850.78
1946.97
2076.38
2243.71
2460.45
2752.43
3179.96
3909.83
5622.28
14071.6
2870.85
2853.65
2834.19
2812.04
2786.72
2757.63
2724.09
2685.25
2640.15
2587.62
2526.31
2454.79
2371.6
2275.47
2166.06
2050.19
1935.25
1823.56
1718.58
1623.32
1541.38
1475.31
1436.16
1427.74
1447.34
1495.73
1574.23
1685.31
1835.42
2037.67
2319.42
2743.43
3482.29
5217.05
13883.6
2322.26
2308.02
2291.88
2273.54
2252.63
2228.72
2201.3
2169.77
2133.37
2091.13
2041.98
1984.97
1919.12
1843.49
1757.9
1667.56
1578.27
1491.6
1409.48
1334.29
1268.52
1213.59
1177.61
1163.53
1169.43
1194.57
1239.4
1305.88
1398.39
1525.49
1704.53
1974.94
2444.52
3524.33
8563.33
1904
1892.03
1878.54
1863.27
1845.88
1826
1803.21
1777.01
1746.84
1712.04
1671.88
1625.58
1572.37
1511.53
1443.08
1370.87
1299.29
1229.56
1163.14
1101.83
1047.51
1001.07
968.853
953.696
954.426
970.416
1003.27
1055.27
1131.2
1240.3
1400.7
1652.23
2101.98
3167.23
8404.68
1578.16
1568.04
1556.61
1543.67
1528.98
1512.26
1493.17
1471.33
1446.23
1417.32
1384.05
1345.85
1302.09
1252.23
1196.28
1137.4
1078.98
1022.01
967.498
916.709
870.976
830.758
801.142
784.744
780.637
788.462
808.912
843.617
895.764
971.497
1082.75
1255.49
1558.89
2259.44
5504.64
1318.32
1309.67
1299.93
1288.92
1276.46
1262.29
1246.12
1227.62
1206.44
1182.14
1154.27
1122.35
1085.89
1044.42
997.953
949.125
900.659
853.195
807.587
764.834
726.021
691.414
665.162
649.66
644.266
648.817
664.049
691.826
735.298
800.537
899.442
1058.03
1345.95
2034.57
5403.66
1107.16
1099.77
1091.43
1081.99
1071.28
1059.14
1045.33
1029.6
1011.6
991.009
967.45
940.525
909.826
874.963
835.948
794.963
754.266
714.391
675.938
639.678
606.428
576.341
552.924
538.31
531.973
533.833
544.386
565.043
598.226
648.464
724.6
845.909
1063.68
1576.53
4020.99
932.116
925.797
918.667
910.604
901.465
891.087
879.282
865.831
850.484
832.96
812.947
790.111
764.109
734.612
701.625
666.986
632.588
598.851
566.316
535.526
507.133
481.255
460.78
447.596
441.273
441.788
449.51
465.797
492.827
534.648
599.252
704.131
896.21
1358.87
3623.35
785.498
780.084
773.979
767.078
759.26
750.386
740.294
728.802
715.701
700.757
683.709
664.278
642.173
617.115
589.103
559.691
530.479
501.829
474.143
447.859
423.472
401.018
383.013
371.068
364.835
364.274
369.657
382.004
403.058
436.001
487.085
569.962
721.174
1083.04
2836.78
661.494
656.856
651.634
645.738
639.064
631.491
622.884
613.086
601.92
589.187
574.668
558.126
539.314
517.992
494.157
469.125
444.251
419.835
396.203
373.713
352.769
333.355
317.571
306.865
300.924
299.69
303.355
312.691
329.195
355.55
397.058
465.372
591.893
900.096
2421.42
556.05
552.092
547.64
542.617
536.935
530.492
523.17
514.836
505.341
494.513
482.167
468.097
452.094
433.95
413.655
392.323
371.102
350.242
330.01
310.697
292.629
275.752
261.82
252.096
246.297
244.352
246.426
253.099
265.535
285.826
318.113
371.558
470.829
712.913
1904.91
466.039
462.677
458.899
454.642
449.829
444.372
438.173
431.116
423.074
413.9
403.432
391.497
377.909
362.488
345.218
327.038
308.923
291.082
273.737
257.128
241.517
226.822
214.503
205.652
200.003
197.473
198.179
202.513
211.376
226.373
250.719
291.722
369.26
562.444
1534.24
389.06
386.224
383.042
379.458
375.408
370.816
365.599
359.658
352.882
345.146
336.311
326.222
314.72
301.643
286.968
271.485
256.022
240.755
225.872
211.568
198.054
185.221
174.273
166.142
160.574
157.471
156.926
159.242
165.123
175.843
193.886
224.739
283.247
428.154
1148.68
323.189
320.82
318.163
315.173
311.794
307.962
303.606
298.642
292.973
286.491
279.075
270.589
260.892
249.837
237.396
224.229
211.04
197.98
185.208
172.888
161.186
149.976
140.239
132.759
127.271
123.646
121.909
122.282
125.276
131.933
144.301
166.929
212.214
328.508
253.368
266.866
264.909
262.717
260.249
257.461
254.297
250.696
246.586
241.884
236.495
230.313
223.218
215.083
205.774
195.258
184.083
172.849
161.688
150.735
140.13
130.004
120.221
111.576
104.718
99.3738
95.3709
92.6567
91.3197
91.6316
94.1413
99.8731
110.878
132.485
191.152
1069.77
218.804
217.209
215.425
213.417
211.146
208.566
205.625
202.261
198.401
193.963
188.852
182.963
176.177
168.376
159.518
150.06
140.51
130.986
121.609
112.496
103.753
95.2444
87.6128
81.3986
76.3272
72.2017
68.9144
66.4553
64.9324
64.6114
66.0291
70.3416
80.4939
106.268
193.205
102.006
58.1166
46.3371
42.4671
41.6322
42.3492
44.0398
46.4137
49.341
52.7874
56.7971
61.4879
67.0475
73.7227
81.0489
88.4981
96.1971
104.056
111.974
119.846
127.571
134.735
140.983
146.369
151.006
155
158.446
161.425
164.011
166.262
168.231
169.961
171.489
172.846
174.06
45.0881
30.1896
24.9971
23.5499
23.8268
25.0927
27.0466
29.4789
32.2942
35.4652
39.0297
43.0894
47.8067
53.3943
59.4748
65.6284
71.9668
78.4147
84.8821
91.2744
97.4994
103.215
108.147
112.35
115.928
118.977
121.581
123.813
125.733
127.395
128.839
130.102
131.215
132.202
133.083
25.2225
19.3418
15.5061
14.137
14.1089
14.9011
16.3274
18.2126
20.4694
23.0544
25.9793
29.3119
33.1744
37.7362
42.6917
47.7044
52.8658
58.1098
63.355
68.5134
73.4983
78.0261
81.8827
85.1236
87.8424
90.1254
92.0478
93.6736
95.0562
96.2392
97.2588
98.1442
98.9197
99.6054
100.217
19.2425
14.9353
11.3153
9.73885
9.27046
9.49931
10.2352
11.3958
12.9088
14.7476
16.9161
19.4567
22.4543
26.0353
29.9584
33.9508
38.0801
42.2862
46.4934
50.6188
54.5793
58.138