/*--------------------------------*- C++ -*----------------------------------*\
  =========                 |
  \\      /  F ield         | OpenFOAM: The Open Source CFD Toolbox
   \\    /   O peration     | Website:  https://openfoam.org
    \\  /    A nd           | Version:  8
     \\/     M anipulation  |
\*---------------------------------------------------------------------------*/
FoamFile
{
    version     2.0;
    format      ascii;
    class       volScalarField;
    location    "0.06";
    object      p;
}
// * * * * * * * * * * * * * * * * * * * * * * * * * * * * * * * * * * * * * //

dimensions      [1 -1 -2 0 0 0 0];

internalField   nonuniform List<scalar> 
15677
(
124307
124303
124304
124305
124305
124304
124300
124295
124286
124271
124249
124216
124135
123978
123826
123719
123648
123608
123577
123549
123534
123545
123559
123572
123584
123594
123604
123612
123620
123625
123628
123630
123631
123630
123634
84332
84225.9
84048.1
83839.4
83636
83449.3
83283.2
83127.4
82963.1
82824.7
82839.4
83049
83543.9
84287.9
84915.3
85366
85657.4
85813.3
85856.8
85768.8
85577.4
85306.1
85009
84722.6
84455.4
84210.5
83992.4
83805
83648.2
83518.5
83409
83322.6
83257.3
83204
83159.9
109673
109663
109633
109566
109447
109262
108996
108645
108234
107821
107535
107431
107521
107820
108237
108640
109037
109382
109657
109915
110174
110427
110654
110849
111014
111150
111263
111358
111434
111497
111556
111610
111663
111722
111790
95753.6
95771.4
95797.8
95824.7
95847.6
95865.4
95877.3
95877.3
95856.3
95801.2
95691.3
95603.8
95540.2
95457.8
95388.8
95306.6
95197.7
95059.4
94884.6
94669.1
94422.4
94162.5
93924.1
93732.9
93603.7
93533.3
93504.7
93475.9
93450.1
93425
93402
93381.9
93364.1
93345.9
93332.1
104587
104603
104626
104655
104689
104725
104754
104777
104796
104811
104806
104814
104827
104845
104869
104890
104910
104931
104958
104997
105054
105134
105225
105326
105436
105544
105637
105729
105816
105896
105967
106028
106079
106123
106157
99759.6
99761.7
99761.3
99757
99747.5
99733.5
99714.7
99689.4
99657.1
99610.1
99568
99501.4
99422.3
99337.7
99257.9
99181.9
99094.9
98994.3
98887.7
98782.7
98683.6
98596.8
98528.2
98473.3
98436.2
98411.2
98388.9
98370.4
98351.7
98335.1
98321.3
98309.8
98299.7
98289.2
98282.6
103136
103140
103144
103149
103154
103159
103163
103166
103167
103170
103170
103175
103166
103142
103122
103111
103111
103121
103141
103172
103213
103264
103321
103378
103412
103434
103450
103465
103479
103493
103505
103517
103527
103536
103542
100795
100796
100795
100791
100785
100776
100767
100757
100752
100751
100741
100722
100700
100679
100661
100644
100618
100579
100533
100487
100441
100396
100359
100332
100315
100302
100291
100279
100269
100260
100253
100247
100242
100237
100236
102435
102434
102433
102433
102434
102437
102440
102446
102457
102465
102468
102461
102447
102426
102405
102386
102373
102368
102369
102377
102390
102412
102431
102440
102447
102454
102459
102464
102470
102475
102479
102484
102489
102494
102495
101203
101203
101202
101201
101200
101198
101196
101194
101192
101191
101190
101191
101192
101194
101195
101194
101188
101177
101164
101147
101130
101116
101108
101103
101097
101091
101085
101079
101075
101070
101067
101064
101061
101058
101058
102053
102051
102051
102050
102050
102050
102049
102049
102048
102046
102043
102038
102031
102022
102014
102008
102003
102001
102001
102004
102007
102006
102005
102006
102007
102008
102010
102012
102014
102015
102017
102018
102019
102021
102021
101457
101456
101455
101454
101453
101452
101451
101450
101449
101449
101450
101451
101454
101456
101457
101457
101455
101451
101447
101445
101444
101445
101444
101442
101440
101437
101435
101432
101430
101428
101426
101424
101423
101422
101423
101878
101878
101878
101878
101878
101877
101876
101875
101872
101870
101866
101861
101856
101850
101844
101840
101836
101833
101828
101823
101818
101814
101812
101811
101811
101811
101811
101812
101812
101813
101813
101813
101814
101814
101815
101565
101564
101563
101562
101562
101561
101560
101560
101561
101562
101564
101566
101569
101573
101575
101577
101579
101581
101585
101587
101589
101590
101590
101590
101588
101587
101586
101585
101583
101582
101581
101581
101580
101580
101580
101792
101792
101792
101792
101792
101792
101791
101790
101789
101786
101783
101779
101774
101769
101763
101758
101752
101747
101743
101739
101735
101732
101731
101730
101729
101729
101729
101729
101729
101729
101729
101729
101729
101729
101729
101625
101625
101624
101624
101623
101623
101622
101622
101623
101624
101626
101628
101631
101635
101639
101642
101644
101646
101648
101649
101651
101651
101651
101650
101650
101649
101648
101647
101647
101646
101646
101645
101645
101645
101645
101741
101742
101742
101742
101742
101741
101741
101740
101739
101737
101734
101731
101727
101723
101719
101715
101712
101709
101706
101704
101702
101700
101699
101699
101699
101698
101698
101698
101698
101698
101698
101698
101697
101697
101697
101660
101660
101660
101659
101659
101659
101659
101659
101660
101661
101662
101664
101666
101668
101670
101671
101672
101673
101674
101674
101674
101674
101674
101674
101673
101673
101672
101672
101671
101671
101671
101670
101670
101670
101670
101714
101714
101714
101714
101714
101713
101713
101712
101711
101710
101708
101706
101704
101701
101699
101697
101695
101694
101692
101691
101690
101690
101689
101689
101688
101688
101688
101688
101688
101688
101687
101687
101687
101687
101687
101678
101677
101677
101677
101677
101677
101677
101677
101677
101678
101679
101679
101680
101681
101682
101683
101683
101683
101683
101683
101683
101682
101682
101682
101681
101681
101681
101680
101680
101680
101680
101679
101679
101679
101680
101700
101700
101700
101699
101699
101699
101699
101698
101698
101697
101696
101695
101694
101693
101691
101690
101690
101689
101688
101688
101687
101687
101686
101686
101686
101686
101685
101685
101685
101685
101685
101685
101685
101685
101685
101685
101685
101685
101685
101684
101684
101684
101684
101685
101685
101685
101685
101685
101686
101686
101686
101686
101686
101686
101685
101685
101685
101685
101684
101684
101684
101684
101683
101683
101683
101683
101683
101683
101683
101683
101693
101693
101693
101693
101693
101693
101692
101692
101692
101691
101691
101690
101690
101689
101689
101688
101688
101687
101687
101687
101686
101686
101686
101685
101685
101685
101685
101685
101685
101685
101685
101684
101684
101684
101684
101687
101687
101687
101687
101687
101687
101687
101687
101687
101687
101687
101687
101687
101687
101687
101687
101687
101686
101686
101686
101686
101686
101685
101685
101685
101685
101685
101685
101684
101684
101684
101684
101684
101684
101684
101690
101690
101690
101690
101689
101689
101689
101689
101689
101689
101688
101688
101688
101688
101687
101687
101687
101687
101686
101686
101686
101686
101686
101685
101685
101685
101685
101685
101685
101685
101685
101685
101685
101685
101685
101687
101687
101687
101687
101687
101687
101687
101687
101687
101687
101687
101687
101687
101687
101687
101687
101686
101686
101686
101686
101686
101686
101685
101685
101685
101685
101685
101685
101685
101685
101685
101685
101685
101685
101685
101688
101688
101688
101688
101688
101688
101688
101687
101687
101687
101687
101687
101687
101687
101687
101686
101686
101686
101686
101686
101686
101686
101685
101685
101685
101685
101685
101685
101685
101685
101685
101685
101685
101685
101685
101687
101687
101687
101687
101687
101687
101687
101687
101687
101686
101686
101686
101686
101686
101686
101686
101686
101686
101686
101686
101686
101685
101685
101685
101685
101685
101685
101685
101685
101685
101685
101685
101685
101685
101685
101687
101687
101687
101687
101687
101687
101686
101686
101686
101686
101686
101686
101686
101686
101686
101686
101686
101686
101686
101686
101685
101685
101685
101685
101685
101685
101685
101685
101685
101685
101685
101685
101685
101685
101685
101686
101686
101686
101686
101686
101686
101686
101686
101686
101686
101686
101686
101686
101686
101686
101686
101686
101686
101685
101685
101685
101685
101685
101685
101685
101685
101685
101685
101685
101685
101685
101685
101685
101685
101685
123634
123691
123778
123870
123966
124066
124172
124283
124399
124519
124643
124772
124904
125033
125159
125282
125400
125515
125626
125737
125851
125941
83144.5
83060.4
82952.8
82847.5
82745
82644
82545
82449
82356.2
82267.1
82181.4
82097.8
82015.2
81938.6
81867.9
81801.7
81738.2
81675.8
81615.7
81557.9
81500.8
81463.3
111870
111972
112086
112206
112335
112473
112618
112769
112925
113086
113248
113414
113580
113739
113888
114026
114151
114261
114356
114437
114501
114530
93346.8
93347.7
93342.2
93346.1
93357
93373.8
93393.8
93416.4
93443
93473.8
93507.4
93540
93565.8
93585.1
93598.1
93606.7
93611.1
93610.6
93605.3
93591.6
93578.8
93578.2
106161
106157
106153
106141
106122
106099
106072
106041
106008
105974
105938
105903
105873
105845
105817
105791
105768
105748
105729
105710
105692
105667
98302.4
98326.7
98345.9
98365
98385.6
98408.6
98433.8
98461
98490.1
98520.7
98552
98582.7
98610.6
98636.2
98658.2
98675.7
98687.3
98696.5
98702.6
98705.4
98706.8
98711.7
103523
103505
103488
103469
103448
103426
103402
103377
103352
103325
103299
103273
103249
103228
103209
103192
103177
103163
103150
103140
103127
103114
100249
100265
100278
100293
100309
100325
100344
100363
100382
100401
100421
100438
100453
100466
100477
100487
100496
100504
100510
100516
100521
100529
102480
102465
102451
102436
102419
102403
102385
102368
102350
102332
102314
102297
102282
102268
102256
102244
102233
102223
102214
102204
102195
102185
101067
101078
101088
101097
101108
101118
101129
101140
101151
101162
101173
101182
101190
101197
101203
101209
101214
101218
101223
101227
101231
101236
102010
102001
101992
101982
101972
101962
101951
101940
101930
101919
101908
101898
101890
101882
101874
101867
101861
101854
101848
101843
101837
101830
101427
101435
101441
101446
101452
101458
101464
101470
101475
101481
101486
101491
101494
101497
101500
101503
101505
101507
101509
101511
101512
101515
101808
101803
101797
101791
101785
101779
101773
101767
101762
101756
101750
101745
101740
101736
101732
101729
101725
101722
101719
101716
101713
101710
101582
101587
101590
101593
101596
101598
101601
101603
101606
101608
101610
101612
101613
101614
101615
101615
101616
101616
101617
101617
101618
101618
101725
101723
101720
101717
101713
101710
101707
101704
101701
101698
101695
101693
101691
101689
101688
101686
101684
101683
101681
101680
101679
101677
101646
101648
101649
101650
101651
101652
101653
101654
101655
101655
101656
101657
101657
101657
101657
101657
101657
101657
101657
101656
101656
101656
101695
101694
101693
101691
101689
101688
101686
101685
101684
101683
101682
101681
101680
101679
101678
101677
101676
101675
101675
101674
101673
101672
101670
101671
101672
101672
101672
101673
101673
101673
101673
101673
101673
101673
101672
101672
101672
101672
101671
101671
101670
101670
101670
101669
101686
101686
101685
101684
101684
101683
101682
101682
101681
101680
101680
101679
101679
101678
101677
101677
101676
101676
101675
101675
101675
101674
101680
101680
101680
101680
101680
101680
101680
101679
101679
101679
101679
101678
101678
101678
101677
101677
101677
101676
101676
101676
101675
101675
101684
101684
101684
101683
101683
101682
101682
101682
101681
101681
101681
101680
101680
101679
101679
101679
101678
101678
101678
101677
101677
101677
101683
101683
101683
101683
101682
101682
101682
101682
101682
101681
101681
101681
101680
101680
101680
101679
101679
101679
101679
101678
101678
101678
101684
101684
101684
101684
101683
101683
101683
101683
101682
101682
101682
101681
101681
101681
101681
101680
101680
101680
101679
101679
101679
101679
101684
101684
101684
101684
101683
101683
101683
101683
101683
101683
101682
101682
101682
101681
101681
101681
101681
101680
101680
101680
101680
101679
101684
101684
101684
101684
101684
101684
101684
101683
101683
101683
101683
101682
101682
101682
101682
101682
101681
101681
101681
101681
101680
101680
101684
101684
101684
101684
101684
101684
101684
101684
101683
101683
101683
101683
101683
101682
101682
101682
101682
101682
101681
101681
101681
101681
101685
101685
101685
101684
101684
101684
101684
101684
101684
101684
101683
101683
101683
101683
101683
101682
101682
101682
101682
101682
101681
101681
101685
101685
101685
101685
101684
101684
101684
101684
101684
101684
101684
101683
101683
101683
101683
101683
101683
101682
101682
101682
101682
101682
101685
101685
101685
101685
101685
101685
101684
101684
101684
101684
101684
101684
101684
101683
101683
101683
101683
101683
101682
101682
101682
101682
101685
101685
101685
101685
101685
101685
101685
101684
101684
101684
101684
101684
101684
101684
101683
101683
101683
101683
101683
101683
101682
101682
125972
125977
125974
125966
125956
125935
81459
81448.5
81441
81435.6
81431.9
81436.7
114541
114566
114562
114523
114452
114349
93559.8
93469.5
93372.6
93282.3
93190.7
93092.3
105662
105688
105718
105751
105784
105818
98705.7
98677.4
98645.6
98611.6
98575
98535.6
103109
103124
103139
103155
103171
103188
100528
100520
100511
100502
100492
100482
102179
102184
102189
102194
102199
102205
101236
101234
101231
101228
101227
101226
101827
101829
101831
101832
101833
101835
101515
101514
101513
101512
101512
101513
101709
101709
101710
101710
101710
101710
101618
101617
101617
101617
101617
101617
101676
101676
101676
101676
101676
101676
101656
101656
101655
101655
101655
101656
101672
101672
101672
101672
101672
101672
101669
101669
101669
101669
101669
101669
101674
101674
101674
101674
101674
101674
101675
101675
101674
101674
101674
101674
101677
101676
101676
101676
101676
101676
101677
101677
101677
101677
101677
101677
101679
101678
101678
101678
101678
101678
101679
101679
101679
101679
101679
101679
101680
101680
101680
101680
101680
101680
101681
101680
101680
101680
101680
101680
101681
101681
101681
101681
101681
101681
101681
101681
101681
101681
101681
101681
101682
101682
101682
101682
101681
101681
101682
101682
101682
101682
101682
101682
125876
125762
125631
125501
125369
125234
125095
124955
124812
124666
124520
124376
124242
124114
123993
123878
123769
123666
123570
123477
123388
123324
81441
81479.9
81541
81606.6
81677.8
81755.2
81838.4
81933.5
82054.1
82200.3
82366.8
82552
82733.6
82916.7
83099.2
83274.2
83438.4
83587.6
83718.8
83835.1
83937
84001
114287
114188
114063
113926
113785
113642
113497
113351
113214
113092
112977
112887
112840
112810
112784
112764
112753
112749
112748
112746
112737
112735
92973.1
92847.2
92734.7
92625
92520.1
92427.4
92348.2
92277.4
92211.9
92156.9
92124.2
92102.6
92090.8
92090.8
92087.2
92072.9
92060.4
92059.5
92080.5
92111.5
92133.8
92138.1
105880
105953
106018
106083
106150
106217
106284
106351
106418
106488
106560
106637
106716
106778
106816
106831
106832
106825
106808
106781
106744
106705
98479.8
98423.7
98374.1
98327.3
98282.5
98239.8
98199.2
98160.1
98122.2
98086.8
98054.5
98024.5
97997.2
97974.7
97955.6
97938.5
97921.2
97904.2
97890
97879.8
97871.5
97858.9
103212
103252
103289
103325
103363
103402
103441
103480
103518
103556
103592
103628
103663
103695
103724
103750
103771
103788
103805
103820
103832
103846
100457
100431
100407
100386
100366
100345
100325
100304
100283
100262
100241
100219
100197
100176
100157
100140
100124
100109
100096
100084
100073
100056
102214
102236
102254
102272
102291
102310
102329
102349
102369
102390
102411
102433
102457
102479
102501
102522
102541
102559
102577
102592
102607
102622
101218
101209
101200
101191
101182
101173
101164
101155
101145
101134
101122
101110
101096
101083
101070
101057
101045
101034
101023
101013
101004
100991
101838
101847
101856
101864
101873
101882
101891
101901
101912
101923
101935
101947
101961
101974
101987
102000
102013
102025
102037
102048
102058
102068
101511
101508
101505
101502
101499
101496
101492
101488
101484
101480
101475
101469
101463
101456
101449
101442
101435
101427
101420
101414
101407
101398
101711
101715
101719
101723
101727
101731
101735
101740
101745
101750
101755
101762
101768
101775
101782
101789
101796
101803
101810
101817
101823
101829
101617
101616
101616
101615
101614
101614
101613
101612
101611
101610
101608
101606
101603
101600
101597
101594
101590
101587
101583
101580
101576
101571
101677
101679
101681
101682
101684
101686
101687
101689
101691
101693
101695
101698
101701
101704
101708
101711
101714
101718
101721
101725
101728
101731
101656
101656
101656
101656
101656
101657
101657
101656
101656
101656
101655
101654
101653
101652
101651
101650
101649
101648
101646
101644
101643
101640
101672
101673
101674
101674
101675
101676
101677
101678
101679
101679
101680
101681
101682
101683
101684
101686
101687
101689
101690
101692
101694
101695
101669
101669
101670
101670
101670
101670
101671
101671
101671
101671
101671
101671
101671
101671
101671
101670
101670
101669
101669
101668
101667
101666
101674
101674
101675
101675
101675
101676
101676
101676
101677
101677
101678
101678
101679
101679
101680
101680
101681
101681
101682
101682
101683
101683
101674
101675
101675
101675
101675
101676
101676
101676
101676
101676
101677
101677
101677
101677
101677
101677
101677
101677
101677
101676
101676
101676
101676
101676
101677
101677
101677
101677
101677
101678
101678
101678
101678
101679
101679
101679
101679
101679
101680
101680
101680
101680
101681
101681
101677
101677
101678
101678
101678
101678
101678
101678
101678
101679
101679
101679
101679
101679
101679
101679
101679
101679
101679
101679
101679
101679
101678
101678
101678
101679
101679
101679
101679
101679
101679
101679
101679
101680
101680
101680
101680
101680
101680
101680
101680
101680
101680
101680
101679
101679
101679
101679
101679
101679
101680
101680
101680
101680
101680
101680
101680
101680
101680
101680
101680
101680
101680
101680
101680
101680
101680
101680
101680
101680
101680
101680
101680
101680
101680
101680
101680
101680
101680
101680
101681
101681
101681
101681
101681
101681
101681
101681
101680
101680
101680
101680
101680
101680
101681
101681
101681
101681
101681
101681
101681
101681
101681
101681
101681
101681
101681
101681
101681
101681
101681
101681
101681
101681
101681
101681
101681
101681
101681
101681
101681
101681
101681
101681
101681
101681
101681
101681
101681
101681
101681
101681
101681
101681
101681
101681
101681
101681
101681
101681
101681
101681
101681
101681
101681
101681
101681
101681
101681
101681
101681
101681
101681
101681
101681
101681
101681
101681
101681
101682
101682
101682
101682
101682
101682
101682
101682
101682
101682
101681
101681
101681
101681
101681
101681
101681
101682
101682
101682
101682
101682
101682
101682
101682
101682
101682
101682
101682
101682
101682
101682
101682
101682
101681
101681
101681
101681
101681
123315
123304
123297
123292
123286
123280
123274
123267
123259
123251
123244
123239
123242
123258
123284
123325
123380
123444
123517
123618
123764
123960
124184
124383
124496
124530
124543
124552
124556
124557
124555
124551
124546
124542
124544
84005.3
84031.8
84063.6
84096.7
84132.3
84172.3
84217.2
84268
84325.6
84386.9
84454.4
84537
84646.4
84793
84976
85175.6
85347.2
85446.3
85416.3
85261.3
84985.6
84526
83882.5
83307.2
82985.5
82945
83077
83257
83439.9
83625.3
83824.5
84042.4
84269.1
84463
84578
112740
112725
112710
112694
112672
112645
112610
112561
112489
112394
112272
112114
111906
111631
111302
110966
110640
110324
110018
109669
109293
108932
108657
108552
108585
108774
109126
109512
109861
110143
110341
110465
110531
110560
110571
92108.7
92123.3
92140
92154.7
92171.4
92190.1
92212.3
92254.9
92337.7
92471.4
92658.1
92894.7
93173.4
93482.6
93801.2
94086.6
94324.3
94517.4
94661.6
94764.3
94836.2
94871.3
94852
94794.6
94767.8
94794.1
94820.8
94846.6
94855.4
94844.6
94821.3
94794.1
94764.5
94735.7
94715.8
106653
106586
106514
106440
106362
106279
106198
106107
106005
105899
105791
105678
105556
105424
105285
105156
105037
104927
104834
104762
104696
104620
104571
104577
104579
104546
104511
104472
104425
104372
104325
104284
104248
104218
104197
97855.8
97872.1
97891.2
97910.1
97929.9
97955
97984.1
98018.9
98056.8
98099.2
98160.2
98237.9
98335.3
98454.3
98595.7
98747.9
98888.8
98998.1
99086.9
99171
99250.6
99320.1
99381.9
99424
99457.9
99509.8
99556.2
99591.6
99615.8
99632.9
99644.4
99649.9
99650.5
99647.6
99642.4
103862
103849
103832
103814
103794
103770
103742
103710
103676
103632
103571
103504
103438
103375
103321
103285
103261
103251
103257
103271
103279
103271
103253
103238
103227
103225
103230
103230
103227
103222
103214
103207
103200
103194
103190
100050
100056
100066
100076
100087
100101
100116
100132
100150
100171
100197
100230
100272
100321
100373
100423
100470
100506
100527
100540
100554
100573
100593
100621
100646
100660
100670
100687
100705
100721
100736
100747
100753
100756
100756
102637
102632
102625
102619
102613
102605
102597
102588
102579
102567
102554
102539
102515
102490
102470
102460
102458
102463
102476
102493
102512
102527
102542
102541
102532
102520
102504
102491
102485
102481
102479
102479
102480
102481
102483
100984
100985
100988
100992
100997
101002
101007
101014
101022
101031
101038
101045
101054
101067
101083
101102
101116
101127
101133
101133
101131
101128
101125
101125
101125
101126
101127
101130
101132
101134
101136
101137
101138
101138
101138
102080
102079
102077
102076
102074
102071
102069
102066
102064
102062
102059
102057
102055
102055
102055
102052
102051
102053
102057
102064
102072
102082
102091
102097
102100
102102
102103
102104
102103
102103
102103
102103
102103
102104
102104
101393
101393
101394
101395
101397
101399
101402
101404
101407
101410
101413
101415
101416
101417
101415
101416
101417
101419
101420
101421
101419
101415
101411
101408
101405
101404
101403
101404
101404
101405
101406
101407
101409
101410
101411
101836
101836
101835
101835
101835
101834
101834
101833
101833
101832
101832
101833
101834
101836
101840
101846
101852
101858
101863
101868
101875
101881
101888
101894
101900
101904
101907
101909
101910
101911
101912
101912
101912
101912
101912
101568
101568
101568
101569
101569
101570
101571
101572
101574
101575
101576
101577
101578
101577
101576
101573
101570
101566
101562
101558
101554
101549
101545
101540
101537
101535
101534
101533
101533
101533
101534
101535
101536
101537
101537
101735
101735
101735
101735
101735
101735
101735
101735
101735
101735
101735
101735
101736
101738
101741
101745
101749
101754
101760
101766
101773
101779
101786
101792
101796
101799
101802
101804
101805
101805
101806
101806
101806
101805
101805
101639
101639
101639
101639
101639
101640
101640
101641
101642
101642
101643
101644
101644
101644
101643
101642
101640
101638
101635
101632
101628
101624
101619
101615
101612
101610
101609
101608
101608
101608
101608
101609
101610
101610
101610
101697
101697
101697
101697
101697
101697
101697
101697
101697
101697
101697
101697
101698
101699
101700
101702
101704
101707
101710
101714
101718
101723
101727
101731
101735
101738
101740
101741
101742
101743
101743
101743
101743
101743
101743
101666
101666
101666
101666
101666
101666
101667
101667
101667
101668
101668
101668
101669
101669
101669
101668
101667
101667
101666
101665
101663
101660
101658
101655
101654
101652
101651
101650
101650
101650
101650
101650
101651
101651
101651
101684
101684
101684
101684
101684
101684
101685
101685
101685
101685
101685
101685
101685
101685
101686
101687
101688
101689
101691
101692
101694
101697
101699
101702
101704
101705
101707
101708
101709
101709
101710
101710
101710
101710
101710
101676
101675
101675
101675
101675
101676
101676
101676
101676
101676
101676
101677
101677
101677
101677
101677
101677
101677
101677
101676
101676
101675
101674
101673
101672
101671
101670
101670
101670
101670
101670
101670
101670
101670
101670
101681
101681
101681
101681
101681
101681
101681
101681
101681
101681
101681
101681
101681
101681
101682
101682
101683
101683
101684
101685
101686
101687
101688
101689
101690
101691
101692
101692
101693
101693
101693
101694
101694
101694
101694
101679
101679
101679
101679
101679
101679
101679
101679
101679
101679
101679
101679
101679
101679
101680
101680
101680
101680
101680
101680
101680
101679
101679
101679
101678
101678
101678
101678
101678
101678
101678
101678
101678
101678
101678
101681
101681
101681
101680
101680
101680
101680
101680
101680
101680
101680
101680
101681
101681
101681
101681
101681
101681
101682
101682
101682
101683
101683
101684
101684
101685
101685
101685
101686
101686
101686
101686
101686
101686
101686
101680
101680
101680
101680
101680
101680
101680
101680
101680
101680
101680
101680
101680
101680
101680
101680
101680
101680
101680
101680
101680
101680
101680
101680
101680
101680
101680
101680
101680
101680
101680
101680
101680
101680
101680
101681
101681
101681
101681
101681
101681
101681
101680
101680
101680
101680
101680
101680
101680
101680
101680
101681
101681
101681
101681
101681
101681
101681
101681
101682
101682
101682
101682
101682
101682
101683
101683
101683
101683
101683
101681
101681
101681
101681
101681
101681
101681
101680
101680
101680
101680
101680
101680
101680
101680
101680
101680
101680
101680
101680
101680
101680
101680
101680
101680
101680
101680
101680
101680
101680
101680
101680
101680
101680
101680
101681
101681
101681
101681
101681
101681
101681
101681
101681
101680
101680
101680
101680
101680
101680
101680
101680
101680
101680
101680
101680
101680
101680
101680
101680
101680
101680
101680
101681
101681
101681
101681
101681
101681
101681
101681
101681
101681
101681
101681
101681
101681
101681
101680
101680
101680
101680
101680
101680
101680
101680
101680
101680
101680
101680
101680
101680
101680
101680
101679
101679
101679
101679
101679
101679
101680
101680
101680
101680
101680
101681
101681
101681
101681
101681
101681
101681
101681
101680
101680
101680
101680
101680
101680
101680
101680
101680
101680
101679
101679
101679
101679
101679
101679
101679
101679
101679
101679
101679
101679
101679
101679
101679
101679
101679
101681
101681
101681
101681
101681
101681
101681
101680
101680
101680
101680
101680
101680
101680
101680
101679
101679
101679
101679
101679
101679
101679
101679
101679
101679
101679
101679
101679
101679
101679
101679
101679
101679
101679
101679
101686
101686
101686
101686
101686
101686
101686
101686
101686
101686
101686
101686
101685
101685
101685
101685
101685
101685
101685
101685
101685
101685
101685
101685
101685
101685
101685
101685
101685
101685
101685
101685
101685
101685
101685
101685
101685
101685
101685
101685
101685
101685
101685
101685
101685
101685
101685
101685
101685
101685
101685
101685
101685
101685
101685
101685
101685
101685
101685
101685
101685
101685
101685
101685
101685
101685
101685
101685
101685
101685
101685
101685
101685
101685
101685
101685
101685
101685
101685
101685
101685
101685
101685
101685
101685
101685
101685
101685
101684
101684
101684
101684
101684
101684
101684
101684
101684
101684
101684
101684
101684
101684
101685
101685
101684
101684
101684
101684
101684
101684
101684
101684
101684
101684
101684
101684
101684
101684
101684
101684
101684
101684
101684
101684
101684
101684
101684
101684
101684
101684
101684
101684
101684
101684
101684
101684
101684
101684
101684
101684
101684
101684
101684
101684
101684
101684
101684
101684
101684
101684
101684
101684
101684
101684
101684
101684
101684
101684
101684
101684
101684
101684
101684
101684
101684
101684
101684
101684
101684
101684
101684
101684
101684
101684
101684
101683
101683
101683
101683
101684
101684
101684
101684
101684
101684
101684
101684
101684
101683
101683
101683
101683
101683
101683
101683
101683
101683
101683
101683
101683
101683
101683
101683
101684
101684
101684
101684
101684
101684
101684
101683
101683
101683
101683
101683
101683
101683
101683
101683
101683
101683
101683
101683
101683
101683
101683
101683
101683
101683
101683
101683
101683
101683
101683
101683
101683
101683
101683
101683
101683
101683
101683
101683
101684
101683
101683
101683
101683
101683
101683
101683
101683
101683
101683
101683
101683
101683
101683
101683
101683
101683
101683
101683
101683
101683
101683
101683
101683
101683
101683
101683
101683
101683
101683
101683
101683
101683
101683
101683
101683
101682
101682
101682
101682
101682
101682
101682
101682
101682
101682
101682
101682
101682
101682
101682
101682
101682
101682
101682
101682
101682
101682
101682
101682
101682
101682
101682
101682
101682
101683
101683
101683
101683
101683
101683
101682
101682
101682
101682
101682
101682
101682
101682
101682
101682
101682
101682
101682
101682
101682
101682
101682
101682
101682
101682
101682
101682
101682
101682
101682
101682
101682
101682
101682
101682
101682
101682
101682
101683
101682
101682
101682
101682
101682
101682
101682
101682
101682
101682
101682
101682
101682
101682
101682
101682
101682
101682
101682
101682
101682
101682
101682
101682
101682
101682
101682
101682
101682
101682
101682
101682
101682
101682
101682
101682
101682
101682
101682
101682
101682
101682
101682
101682
101682
101682
101682
101682
101682
101682
101682
101682
101682
101681
101681
101681
101681
101681
101681
101681
101681
101681
101681
101681
101681
101681
101681
101682
101682
101682
101682
101681
101681
101681
101681
101681
101681
101681
101681
101681
101681
101681
101681
101681
101681
101681
101681
101681
101681
101681
101681
101681
101681
101681
101681
101681
101681
101681
101681
101681
101681
101681
101681
101681
101681
101681
101681
101681
101681
101681
101681
101681
101681
101681
101681
101681
101681
101681
101681
101681
101681
101681
101681
101681
101681
101681
101681
101681
101681
101681
101680
101680
101680
101680
101680
101680
101680
101681
101681
101681
101681
101681
101681
101681
101681
101681
101681
101681
101681
101681
101681
101681
101681
101681
101681
101681
101681
101681
101681
101681
101681
101680
101680
101680
101680
101680
101680
101680
101680
101680
101680
101680
101680
101680
101680
101680
101681
101681
101681
101681
101681
101681
101681
101681
101681
101681
101681
101681
101681
101681
101681
101681
101681
101680
101680
101680
101680
101680
101680
101680