/*--------------------------------*- C++ -*----------------------------------*\
  =========                 |
  \\      /  F ield         | OpenFOAM: The Open Source CFD Toolbox
   \\    /   O peration     | Website:  https://openfoam.org
    \\  /    A nd           | Version:  8
     \\/     M anipulation  |
\*---------------------------------------------------------------------------*/
FoamFile
{
    version     2.0;
    format      ascii;
    class       volScalarField;
    location    "0.06";
    object      rho;
}
// * * * * * * * * * * * * * * * * * * * * * * * * * * * * * * * * * * * * * //

dimensions      [1 -3 0 0 0 0 0];

internalField   nonuniform List<scalar> 
15677
(
1.4554
1.45599
1.45627
1.45633
1.45621
1.45594
1.45551
1.45488
1.45402
1.45284
1.45127
1.44919
1.44607
1.44221
1.43913
1.43725
1.43623
1.43588
1.43593
1.43621
1.43648
1.43692
1.43732
1.43765
1.43793
1.43817
1.43836
1.43852
1.43867
1.43882
1.43896
1.4391
1.43923
1.43935
1.43952
0.992423
0.992041
0.990381
0.988058
0.98558
0.983061
0.980519
0.977811
0.974711
0.971544
0.969437
0.968707
0.97074
0.976388
0.982181
0.986751
0.989868
0.99168
0.992441
0.991803
0.990097
0.987606
0.984911
0.982407
0.980169
0.978195
0.976504
0.975083
0.973895
0.972888
0.971978
0.971205
0.970569
0.969995
0.96948
1.26779
1.26793
1.26772
1.26702
1.26566
1.26356
1.26062
1.25693
1.25292
1.24941
1.24797
1.24851
1.25119
1.25622
1.2622
1.26744
1.27205
1.27553
1.27795
1.28016
1.2825
1.2849
1.2871
1.28892
1.29034
1.29139
1.29221
1.29288
1.29337
1.29373
1.29404
1.29427
1.29448
1.29476
1.29515
1.1083
1.10902
1.10943
1.10981
1.1101
1.11035
1.11055
1.11063
1.11042
1.10968
1.10805
1.1065
1.10522
1.10382
1.10271
1.10158
1.10018
1.09848
1.09643
1.09397
1.09124
1.08855
1.08625
1.08452
1.08345
1.08296
1.08278
1.08244
1.08202
1.08155
1.08109
1.08067
1.0803
1.07994
1.07965
1.20269
1.20295
1.20349
1.20426
1.2052
1.2063
1.20749
1.20877
1.21012
1.21137
1.21232
1.21324
1.2138
1.21405
1.21414
1.21414
1.2141
1.21408
1.21415
1.21438
1.21481
1.21552
1.21635
1.21729
1.21831
1.21927
1.21999
1.22068
1.2213
1.22186
1.22235
1.22276
1.22309
1.22337
1.22359
1.1489
1.14916
1.14937
1.14955
1.14968
1.14977
1.14978
1.14965
1.14934
1.14883
1.1484
1.14768
1.14681
1.14594
1.14514
1.14436
1.14344
1.14233
1.14112
1.13991
1.13873
1.13767
1.13681
1.13608
1.13556
1.13519
1.13484
1.13455
1.13426
1.134
1.13377
1.13357
1.1334
1.13322
1.13309
1.18746
1.18768
1.18792
1.18819
1.18849
1.18882
1.18917
1.18953
1.18987
1.19022
1.19048
1.19073
1.19071
1.19047
1.19023
1.19008
1.19003
1.19009
1.19025
1.19051
1.19088
1.19135
1.19188
1.19241
1.19266
1.19278
1.19283
1.19288
1.19293
1.19299
1.19304
1.19309
1.19314
1.19319
1.19321
1.16187
1.16193
1.16199
1.16203
1.16206
1.16208
1.16211
1.16216
1.16223
1.1623
1.16221
1.16204
1.16182
1.16161
1.16139
1.16116
1.16081
1.1603
1.15971
1.1591
1.15849
1.15789
1.15738
1.15699
1.15672
1.1565
1.15632
1.15613
1.15596
1.15582
1.1557
1.1556
1.15551
1.15542
1.15538
1.18265
1.18255
1.18248
1.18242
1.18238
1.18235
1.18234
1.18236
1.18243
1.18247
1.18245
1.18231
1.18211
1.18181
1.18151
1.18124
1.18104
1.18091
1.18086
1.18089
1.18097
1.18115
1.1813
1.18134
1.18136
1.18138
1.18139
1.18141
1.18143
1.18145
1.18147
1.1815
1.18154
1.18157
1.18157
1.16826
1.16824
1.16821
1.16818
1.16815
1.1681
1.16805
1.168
1.16794
1.16788
1.16783
1.16779
1.16775
1.1677
1.16764
1.16755
1.16741
1.16722
1.16699
1.16673
1.16646
1.16624
1.16609
1.16598
1.16587
1.16576
1.16566
1.16557
1.16549
1.16542
1.16536
1.1653
1.16526
1.16521
1.1652
1.17838
1.17833
1.17829
1.17825
1.17821
1.17817
1.17813
1.17808
1.17802
1.17795
1.17786
1.17775
1.1776
1.17742
1.17725
1.17709
1.17696
1.17686
1.17679
1.17675
1.17671
1.17663
1.17657
1.17652
1.1765
1.17647
1.17646
1.17645
1.17645
1.17645
1.17645
1.17645
1.17645
1.17645
1.17644
1.17158
1.17156
1.17154
1.17151
1.17148
1.17145
1.17141
1.17137
1.17132
1.17128
1.17124
1.17119
1.17115
1.1711
1.17102
1.17093
1.17082
1.1707
1.17058
1.17047
1.17039
1.17033
1.17026
1.17019
1.17012
1.17005
1.16999
1.16993
1.16988
1.16984
1.1698
1.16977
1.16974
1.16972
1.16972
1.17675
1.17672
1.17669
1.17666
1.17663
1.1766
1.17655
1.1765
1.17643
1.17635
1.17625
1.17614
1.17601
1.17586
1.17571
1.17557
1.17544
1.17533
1.17519
1.17504
1.17491
1.17479
1.17471
1.17465
1.1746
1.17456
1.17453
1.17451
1.17449
1.17447
1.17446
1.17445
1.17443
1.17443
1.17442
1.17315
1.17315
1.17313
1.17312
1.1731
1.17308
1.17306
1.17303
1.17301
1.17299
1.17296
1.17294
1.17291
1.17287
1.17282
1.17276
1.1727
1.17265
1.1726
1.17255
1.1725
1.17244
1.17238
1.17232
1.17226
1.17221
1.17216
1.17211
1.17207
1.17204
1.17201
1.17199
1.17197
1.17195
1.17195
1.17601
1.17601
1.176
1.17599
1.17598
1.17596
1.17593
1.17589
1.17584
1.17578
1.1757
1.1756
1.17548
1.17535
1.17521
1.17507
1.17493
1.17479
1.17466
1.17453
1.17442
1.17432
1.17424
1.17418
1.17413
1.17409
1.17405
1.17402
1.174
1.17398
1.17396
1.17394
1.17393
1.17391
1.1739
1.1742
1.17419
1.17418
1.17417
1.17415
1.17414
1.17412
1.1741
1.17409
1.17407
1.17405
1.17404
1.17402
1.174
1.17397
1.17393
1.17389
1.17384
1.17379
1.17373
1.17368
1.17362
1.17356
1.1735
1.17345
1.17341
1.17337
1.17333
1.1733
1.17327
1.17325
1.17323
1.17321
1.17319
1.17319
1.17574
1.17573
1.17572
1.17571
1.1757
1.17568
1.17566
1.17563
1.17559
1.17554
1.17548
1.1754
1.17531
1.1752
1.17509
1.17498
1.17488
1.17478
1.17468
1.17459
1.1745
1.17442
1.17436
1.1743
1.17426
1.17422
1.17419
1.17417
1.17414
1.17412
1.1741
1.17408
1.17407
1.17406
1.17404
1.17491
1.1749
1.17489
1.17488
1.17487
1.17486
1.17485
1.17484
1.17483
1.17481
1.1748
1.17478
1.17476
1.17474
1.1747
1.17466
1.17461
1.17456
1.17451
1.17445
1.1744
1.17434
1.17429
1.17424
1.1742
1.17416
1.17413
1.1741
1.17407
1.17405
1.17403
1.17402
1.174
1.17399
1.17398
1.17568
1.17567
1.17566
1.17566
1.17565
1.17563
1.17561
1.17559
1.17556
1.17552
1.17548
1.17543
1.17536
1.17529
1.17521
1.17514
1.17506
1.17499
1.17492
1.17485
1.17479
1.17473
1.17468
1.17463
1.1746
1.17457
1.17454
1.17452
1.1745
1.17448
1.17446
1.17445
1.17443
1.17442
1.17441
1.17538
1.17537
1.17536
1.17535
1.17534
1.17533
1.17532
1.17531
1.1753
1.17529
1.17527
1.17526
1.17523
1.1752
1.17517
1.17513
1.17508
1.17504
1.17499
1.17494
1.17489
1.17484
1.17479
1.17476
1.17472
1.17469
1.17467
1.17464
1.17462
1.17461
1.17459
1.17458
1.17456
1.17455
1.17455
1.17574
1.17573
1.17573
1.17572
1.17571
1.1757
1.17569
1.17567
1.17565
1.17563
1.1756
1.17556
1.17552
1.17547
1.17542
1.17537
1.17532
1.17527
1.17522
1.17517
1.17512
1.17507
1.17503
1.175
1.17497
1.17494
1.17492
1.1749
1.17488
1.17487
1.17485
1.17484
1.17483
1.17482
1.17482
1.17566
1.17566
1.17565
1.17564
1.17564
1.17563
1.17562
1.17562
1.17561
1.1756
1.17558
1.17557
1.17555
1.17552
1.17549
1.17546
1.17542
1.17538
1.17534
1.1753
1.17526
1.17522
1.17518
1.17515
1.17512
1.1751
1.17508
1.17506
1.17505
1.17503
1.17502
1.17501
1.175
1.17499
1.17499
1.17584
1.17583
1.17583
1.17582
1.17582
1.17581
1.17581
1.1758
1.17578
1.17577
1.17575
1.17573
1.17571
1.17568
1.17565
1.17561
1.17558
1.17554
1.1755
1.17546
1.17542
1.17539
1.17535
1.17533
1.1753
1.17528
1.17526
1.17525
1.17523
1.17522
1.17521
1.1752
1.17519
1.17519
1.17518
1.17584
1.17583
1.17583
1.17583
1.17583
1.17582
1.17582
1.17582
1.17581
1.17581
1.1758
1.17579
1.17578
1.17576
1.17574
1.17571
1.17568
1.17565
1.17562
1.17559
1.17556
1.17552
1.1755
1.17547
1.17545
1.17543
1.17541
1.1754
1.17539
1.17538
1.17537
1.17536
1.17535
1.17534
1.17534
1.17592
1.17592
1.17592
1.17592
1.17592
1.17592
1.17592
1.17592
1.17591
1.17591
1.1759
1.17589
1.17588
1.17587
1.17585
1.17582
1.1758
1.17577
1.17574
1.17571
1.17568
1.17566
1.17563
1.17561
1.17559
1.17557
1.17556
1.17555
1.17553
1.17553
1.17552
1.17551
1.1755
1.1755
1.17549
1.17593
1.17593
1.17594
1.17594
1.17594
1.17595
1.17595
1.17595
1.17596
1.17596
1.17596
1.17596
1.17596
1.17595
1.17593
1.17592
1.1759
1.17587
1.17585
1.17582
1.1758
1.17577
1.17575
1.17573
1.17571
1.1757
1.17568
1.17567
1.17566
1.17566
1.17565
1.17564
1.17564
1.17563
1.17563
1.17596
1.17597
1.17598
1.17599
1.176
1.176
1.17601
1.17602
1.17602
1.17603
1.17603
1.17603
1.17603
1.17603
1.17602
1.176
1.17599
1.17597
1.17594
1.17592
1.1759
1.17588
1.17586
1.17584
1.17582
1.17581
1.1758
1.17579
1.17578
1.17577
1.17577
1.17576
1.17576
1.17575
1.17575
1.17597
1.17599
1.176
1.17602
1.17603
1.17604
1.17605
1.17606
1.17607
1.17608
1.17609
1.17609
1.1761
1.1761
1.17609
1.17608
1.17606
1.17605
1.17603
1.17601
1.17599
1.17597
1.17595
1.17594
1.17592
1.17591
1.1759
1.17589
1.17589
1.17588
1.17587
1.17587
1.17586
1.17586
1.17586
1.17602
1.17603
1.17605
1.17606
1.17607
1.17609
1.1761
1.17611
1.17612
1.17614
1.17615
1.17616
1.17616
1.17616
1.17616
1.17615
1.17614
1.17612
1.1761
1.17609
1.17607
1.17605
1.17603
1.17602
1.17601
1.176
1.17599
1.17598
1.17598
1.17597
1.17597
1.17596
1.17596
1.17596
1.17595
1.17611
1.17611
1.17612
1.17612
1.17613
1.17614
1.17615
1.17616
1.17618
1.17619
1.1762
1.17621
1.17622
1.17622
1.17621
1.17621
1.1762
1.17618
1.17617
1.17615
1.17614
1.17612
1.17611
1.1761
1.17609
1.17608
1.17607
1.17606
1.17606
1.17606
1.17605
1.17605
1.17604
1.17604
1.17604
1.43966
1.44052
1.44173
1.44302
1.44436
1.44576
1.4472
1.44868
1.45018
1.45169
1.4532
1.45471
1.45621
1.45766
1.45904
1.46037
1.46165
1.4629
1.46411
1.46534
1.46661
1.46763
0.969283
0.968248
0.966906
0.965561
0.964231
0.962911
0.961614
0.960355
0.959139
0.957973
0.956856
0.955772
0.95471
0.953728
0.952825
0.951984
0.951177
0.950386
0.949632
0.948921
0.948241
0.947822
1.29559
1.29612
1.29675
1.2974
1.29815
1.299
1.29995
1.30101
1.30216
1.30342
1.30475
1.30618
1.30767
1.30916
1.31059
1.31194
1.3132
1.31434
1.31535
1.31625
1.317
1.3174
1.07967
1.07949
1.07923
1.07908
1.079
1.079
1.07905
1.07914
1.0793
1.07953
1.07982
1.08012
1.08037
1.08058
1.08073
1.08085
1.08094
1.08098
1.08097
1.08088
1.08079
1.08085
1.22346
1.22325
1.22306
1.22278
1.22242
1.22199
1.22151
1.22099
1.22044
1.21987
1.21928
1.21871
1.2182
1.21774
1.21729
1.21689
1.21654
1.21625
1.21598
1.21574
1.21552
1.21526
1.13326
1.13347
1.13361
1.13375
1.13391
1.13409
1.13429
1.13451
1.13475
1.13501
1.13528
1.13554
1.13578
1.136
1.13619
1.13633
1.13642
1.13648
1.13653
1.13654
1.13654
1.1366
1.19293
1.19263
1.19235
1.19204
1.19172
1.19137
1.19101
1.19063
1.19024
1.18984
1.18944
1.18905
1.18869
1.18836
1.18806
1.18779
1.18756
1.18734
1.18714
1.18699
1.18682
1.18665
1.15549
1.15563
1.15574
1.15585
1.15598
1.15611
1.15626
1.15641
1.15657
1.15673
1.15688
1.15702
1.15713
1.15721
1.15729
1.15735
1.15741
1.15745
1.15749
1.15752
1.15756
1.15762
1.18136
1.18115
1.18094
1.18072
1.18049
1.18024
1.18
1.17974
1.17948
1.17922
1.17895
1.1787
1.17847
1.17826
1.17806
1.17788
1.17772
1.17756
1.17741
1.17727
1.17713
1.17698
1.16528
1.16539
1.16547
1.16555
1.16564
1.16573
1.16582
1.16591
1.16601
1.16609
1.16618
1.16625
1.1663
1.16635
1.16638
1.16641
1.16644
1.16646
1.16648
1.1665
1.16652
1.16656
1.1763
1.17617
1.17604
1.1759
1.17575
1.17561
1.17546
1.1753
1.17515
1.175
1.17484
1.1747
1.17457
1.17445
1.17433
1.17422
1.17412
1.17403
1.17394
1.17385
1.17376
1.17366
1.16975
1.16981
1.16985
1.16989
1.16993
1.16997
1.17001
1.17005
1.17009
1.17013
1.17016
1.17018
1.1702
1.17021
1.17022
1.17023
1.17023
1.17024
1.17024
1.17024
1.17024
1.17025
1.17432
1.17423
1.17414
1.17404
1.17394
1.17384
1.17374
1.17364
1.17355
1.17345
1.17336
1.17327
1.17319
1.17312
1.17305
1.17298
1.17292
1.17286
1.17281
1.17276
1.17271
1.17266
1.17195
1.17196
1.17196
1.17196
1.17195
1.17195
1.17195
1.17194
1.17193
1.17193
1.17192
1.1719
1.17189
1.17187
1.17185
1.17184
1.17182
1.1718
1.17179
1.17178
1.17176
1.17175
1.17383
1.17376
1.17369
1.17361
1.17354
1.17346
1.17338
1.17331
1.17324
1.17316
1.17309
1.17303
1.17297
1.17292
1.17287
1.17282
1.17278
1.17273
1.17269
1.17266
1.17262
1.17258
1.17317
1.17315
1.17312
1.17309
1.17306
1.17303
1.173
1.17296
1.17292
1.17289
1.17285
1.17282
1.17278
1.17275
1.17271
1.17268
1.17265
1.17261
1.17258
1.17256
1.17253
1.1725
1.17399
1.17394
1.17387
1.17381
1.17374
1.17368
1.17362
1.17356
1.17349
1.17343
1.17338
1.17332
1.17326
1.17321
1.17316
1.17311
1.17306
1.17302
1.17298
1.17294
1.17291
1.17287
1.17396
1.17392
1.17388
1.17383
1.17379
1.17375
1.1737
1.17365
1.1736
1.17355
1.1735
1.17345
1.1734
1.17335
1.1733
1.17326
1.17321
1.17317
1.17313
1.1731
1.17306
1.17303
1.17437
1.17432
1.17427
1.17421
1.17416
1.1741
1.17404
1.17398
1.17393
1.17387
1.17381
1.17375
1.17369
1.17363
1.17358
1.17353
1.17348
1.17344
1.1734
1.17336
1.17332
1.17328
1.17452
1.17448
1.17443
1.17439
1.17434
1.17429
1.17423
1.17418
1.17413
1.17407
1.17401
1.17396
1.1739
1.17384
1.17379
1.17374
1.17369
1.17365
1.17361
1.17356
1.17352
1.17349
1.17479
1.17474
1.17469
1.17464
1.17458
1.17453
1.17448
1.17442
1.17436
1.1743
1.17425
1.17419
1.17413
1.17407
1.17402
1.17397
1.17392
1.17387
1.17383
1.17378
1.17374
1.1737
1.17496
1.17492
1.17487
1.17482
1.17477
1.17472
1.17467
1.17462
1.17456
1.17451
1.17445
1.17439
1.17433
1.17428
1.17422
1.17417
1.17412
1.17407
1.17403
1.17399
1.17394
1.1739
1.17515
1.17511
1.17506
1.17502
1.17497
1.17492
1.17486
1.17481
1.17476
1.1747
1.17464
1.17459
1.17453
1.17447
1.17442
1.17437
1.17432
1.17427
1.17422
1.17418
1.17414
1.17409
1.17531
1.17527
1.17523
1.17518
1.17514
1.17509
1.17504
1.17499
1.17493
1.17488
1.17482
1.17477
1.17471
1.17465
1.1746
1.17455
1.1745
1.17445
1.1744
1.17436
1.17432
1.17427
1.17547
1.17543
1.17539
1.17534
1.1753
1.17525
1.1752
1.17515
1.1751
1.17504
1.17499
1.17493
1.17488
1.17482
1.17477
1.17472
1.17467
1.17462
1.17457
1.17453
1.17449
1.17444
1.1756
1.17557
1.17552
1.17548
1.17544
1.17539
1.17535
1.1753
1.17525
1.17519
1.17514
1.17509
1.17503
1.17498
1.17493
1.17488
1.17483
1.17478
1.17473
1.17469
1.17464
1.1746
1.17573
1.17569
1.17565
1.17561
1.17557
1.17553
1.17548
1.17543
1.17538
1.17533
1.17528
1.17523
1.17517
1.17512
1.17507
1.17502
1.17497
1.17492
1.17488
1.17483
1.17479
1.17475
1.17584
1.1758
1.17577
1.17573
1.17569
1.17565
1.1756
1.17556
1.17551
1.17546
1.17541
1.17536
1.1753
1.17525
1.1752
1.17515
1.17511
1.17506
1.17502
1.17497
1.17493
1.17489
1.17594
1.1759
1.17587
1.17583
1.17579
1.17576
1.17571
1.17567
1.17562
1.17558
1.17553
1.17548
1.17543
1.17538
1.17533
1.17528
1.17523
1.17519
1.17514
1.1751
1.17505
1.17501
1.17602
1.17599
1.17596
1.17593
1.17589
1.17585
1.17581
1.17577
1.17573
1.17568
1.17563
1.17559
1.17554
1.17549
1.17544
1.17539
1.17535
1.1753
1.17526
1.17521
1.17517
1.17513
1.468
1.46816
1.4683
1.46846
1.46866
1.46876
0.947809
0.947769
0.94783
0.947967
0.948157
0.948472
1.31762
1.31803
1.31817
1.31797
1.31745
1.31662
1.08071
1.07973
1.07867
1.07768
1.07668
1.0756
1.21522
1.21555
1.21596
1.21643
1.21694
1.21749
1.13654
1.13624
1.13591
1.13556
1.13519
1.1348
1.18659
1.18676
1.18695
1.18715
1.18738
1.18762
1.1576
1.15752
1.15742
1.15733
1.15724
1.15714
1.17689
1.17695
1.177
1.17707
1.17713
1.17722
1.16655
1.16652
1.16648
1.16645
1.16643
1.16643
1.17361
1.17363
1.17365
1.17366
1.17367
1.17369
1.17024
1.17023
1.17022
1.17021
1.17021
1.17022
1.17264
1.17264
1.17264
1.17264
1.17264
1.17265
1.17174
1.17173
1.17172
1.17172
1.17172
1.17173
1.17256
1.17256
1.17256
1.17256
1.17256
1.17256
1.17249
1.17249
1.17248
1.17248
1.17248
1.17249
1.17286
1.17285
1.17285
1.17285
1.17285
1.17285
1.17301
1.17301
1.17301
1.17301
1.17301
1.17301
1.17326
1.17326
1.17326
1.17326
1.17326
1.17326
1.17347
1.17346
1.17346
1.17346
1.17346
1.17346
1.17368
1.17368
1.17368
1.17368
1.17368
1.17368
1.17388
1.17388
1.17388
1.17388
1.17387
1.17388
1.17407
1.17407
1.17407
1.17407
1.17407
1.17407
1.17425
1.17425
1.17425
1.17425
1.17425
1.17425
1.17442
1.17442
1.17442
1.17442
1.17442
1.17442
1.17458
1.17458
1.17458
1.17458
1.17458
1.17458
1.17473
1.17473
1.17472
1.17472
1.17472
1.17472
1.17486
1.17486
1.17486
1.17486
1.17486
1.17486
1.17499
1.17499
1.17499
1.17499
1.17499
1.17499
1.17511
1.17511
1.17511
1.17511
1.17511
1.17511
1.46842
1.46742
1.46619
1.46495
1.46365
1.46227
1.46082
1.45929
1.45768
1.45599
1.45423
1.45247
1.45077
1.44914
1.44757
1.44607
1.44464
1.4433
1.44204
1.44083
1.43968
1.43886
0.948749
0.949392
0.950301
0.951266
0.952293
0.953387
0.954532
0.95579
0.957307
0.959081
0.961035
0.963139
0.965121
0.967053
0.968958
0.970799
0.972571
0.974259
0.975793
0.977215
0.978519
0.979417
1.31624
1.31542
1.31435
1.31321
1.31208
1.31098
1.30991
1.30887
1.30797
1.30725
1.30659
1.30617
1.30619
1.30634
1.30649
1.30667
1.30693
1.30723
1.30755
1.30782
1.30799
1.30819
1.07427
1.07286
1.07161
1.0704
1.06925
1.06827
1.06744
1.06673
1.06608
1.06554
1.06526
1.06508
1.06501
1.06507
1.06513
1.0651
1.06513
1.06534
1.06581
1.06641
1.06689
1.06715
1.21835
1.21931
1.22021
1.22112
1.22206
1.223
1.22393
1.22486
1.22578
1.22671
1.22766
1.22868
1.22974
1.23062
1.23122
1.23158
1.23179
1.23191
1.23195
1.23187
1.23169
1.23149
1.13421
1.13362
1.13311
1.13263
1.13217
1.13175
1.13135
1.13097
1.1306
1.13028
1.12999
1.12974
1.12953
1.12936
1.12924
1.12913
1.12902
1.1289
1.1288
1.12874
1.12869
1.12859
1.18794
1.18846
1.18894
1.18942
1.18992
1.19043
1.19094
1.19146
1.19197
1.19248
1.19297
1.19346
1.19394
1.19439
1.1948
1.19517
1.19549
1.19575
1.19601
1.19625
1.19647
1.19669
1.15689
1.15662
1.15639
1.15619
1.156
1.15582
1.15563
1.15544
1.15525
1.15506
1.15487
1.15468
1.15448
1.15429
1.15413
1.15398
1.15384
1.15372
1.15361
1.15353
1.15343
1.15329
1.17735
1.17763
1.17788
1.17812
1.17837
1.17863
1.17889
1.17915
1.17943
1.17971
1.18
1.18031
1.18062
1.18093
1.18122
1.18151
1.18177
1.18203
1.18226
1.18249
1.18269
1.1829
1.16635
1.16627
1.16619
1.16612
1.16604
1.16597
1.16589
1.16581
1.16572
1.16563
1.16553
1.16542
1.1653
1.16517
1.16506
1.16494
1.16483
1.16473
1.16464
1.16455
1.16447
1.16435
1.17373
1.17387
1.17399
1.1741
1.17422
1.17434
1.17447
1.17461
1.17475
1.1749
1.17506
1.17524
1.17542
1.1756
1.17578
1.17595
1.17613
1.17629
1.17646
1.17661
1.17675
1.17689
1.1702
1.17018
1.17016
1.17014
1.17012
1.1701
1.17008
1.17006
1.17003
1.17
1.16997
1.16993
1.16988
1.16983
1.16977
1.16971
1.16966
1.1696
1.16955
1.1695
1.16944
1.16937
1.17266
1.17272
1.17278
1.17284
1.1729
1.17297
1.17304
1.17311
1.17319
1.17327
1.17336
1.17346
1.17356
1.17367
1.17378
1.17389
1.174
1.17411
1.17421
1.17432
1.17442
1.17452
1.17173
1.17174
1.17175
1.17176
1.17177
1.17178
1.17179
1.17181
1.17182
1.17183
1.17184
1.17184
1.17184
1.17184
1.17184
1.17184
1.17183
1.17183
1.17182
1.17182
1.17181
1.17179
1.17257
1.17262
1.17265
1.17269
1.17273
1.17278
1.17282
1.17287
1.17292
1.17298
1.17304
1.1731
1.17318
1.17325
1.17333
1.17341
1.17349
1.17357
1.17365
1.17373
1.17381
1.17388
1.1725
1.17252
1.17255
1.17257
1.1726
1.17263
1.17266
1.17269
1.17272
1.17275
1.17278
1.17282
1.17285
1.17288
1.17292
1.17295
1.17298
1.173
1.17303
1.17306
1.17308
1.17309
1.17287
1.1729
1.17294
1.17297
1.17301
1.17306
1.1731
1.17315
1.17319
1.17325
1.1733
1.17336
1.17342
1.17348
1.17354
1.1736
1.17367
1.17373
1.17379
1.17386
1.17392
1.17398
1.17302
1.17306
1.17309
1.17312
1.17316
1.1732
1.17324
1.17328
1.17333
1.17338
1.17342
1.17347
1.17352
1.17357
1.17362
1.17366
1.17371
1.17375
1.17379
1.17383
1.17387
1.17391
1.17327
1.17331
1.17335
1.17339
1.17343
1.17347
1.17352
1.17357
1.17362
1.17367
1.17373
1.17378
1.17384
1.1739
1.17396
1.17402
1.17407
1.17413
1.17418
1.17424
1.17429
1.17434
1.17348
1.17352
1.17356
1.1736
1.17364
1.17368
1.17373
1.17378
1.17383
1.17388
1.17393
1.17399
1.17405
1.1741
1.17415
1.17421
1.17426
1.1743
1.17435
1.1744
1.17444
1.17448
1.1737
1.17373
1.17378
1.17382
1.17386
1.17391
1.17395
1.174
1.17406
1.17411
1.17416
1.17422
1.17428
1.17434
1.17439
1.17445
1.1745
1.17455
1.1746
1.17465
1.1747
1.17475
1.1739
1.17394
1.17398
1.17402
1.17406
1.17411
1.17416
1.17421
1.17426
1.17431
1.17437
1.17443
1.17448
1.17454
1.17459
1.17464
1.17469
1.17474
1.17479
1.17484
1.17488
1.17492
1.17409
1.17413
1.17417
1.17421
1.17426
1.17431
1.17435
1.1744
1.17446
1.17451
1.17456
1.17462
1.17468
1.17473
1.17479
1.17484
1.17489
1.17494
1.17499
1.17503
1.17508
1.17512
1.17427
1.17431
1.17435
1.1744
1.17444
1.17449
1.17454
1.17459
1.17464
1.17469
1.17474
1.1748
1.17486
1.17491
1.17496
1.17501
1.17506
1.17511
1.17515
1.1752
1.17524
1.17528
1.17444
1.17448
1.17452
1.17457
1.17461
1.17466
1.1747
1.17475
1.1748
1.17486
1.17491
1.17497
1.17502
1.17507
1.17512
1.17517
1.17522
1.17527
1.17531
1.17535
1.17539
1.17543
1.1746
1.17464
1.17468
1.17472
1.17477
1.17481
1.17486
1.17491
1.17496
1.17501
1.17507
1.17512
1.17517
1.17522
1.17527
1.17532
1.17537
1.17541
1.17545
1.17549
1.17553
1.17557
1.17474
1.17478
1.17483
1.17487
1.17491
1.17496
1.17501
1.17506
1.1751
1.17516
1.17521
1.17526
1.17531
1.17536
1.17541
1.17545
1.1755
1.17554
1.17558
1.17562
1.17566
1.17569
1.17488
1.17492
1.17496
1.17501
1.17505
1.1751
1.17514
1.17519
1.17524
1.17529
1.17534
1.17539
1.17544
1.17549
1.17553
1.17558
1.17562
1.17566
1.1757
1.17574
1.17577
1.1758
1.17501
1.17505
1.17509
1.17513
1.17518
1.17522
1.17527
1.17531
1.17536
1.17541
1.17546
1.17551
1.17555
1.1756
1.17565
1.17569
1.17573
1.17577
1.1758
1.17584
1.17587
1.1759
1.17512
1.17517
1.17521
1.17525
1.17529
1.17533
1.17538
1.17542
1.17547
1.17552
1.17557
1.17561
1.17566
1.1757
1.17575
1.17579
1.17583
1.17586
1.1759
1.17593
1.17596
1.17599
1.43868
1.43849
1.43836
1.43824
1.43814
1.43805
1.43798
1.43793
1.4379
1.43787
1.43784
1.43781
1.43779
1.43772
1.43747
1.43709
1.43669
1.43615
1.4361
1.43687
1.4387
1.44171
1.44574
1.44987
1.45309
1.45512
1.45663
1.45784
1.45881
1.45955
1.46011
1.4605
1.46075
1.46086
1.46086
0.979621
0.980071
0.980576
0.981079
0.981577
0.982077
0.982582
0.983091
0.983606
0.984085
0.984533
0.984995
0.985529
0.98616
0.986953
0.987905
0.988711
0.988929
0.987928
0.985846
0.982895
0.978274
0.972507
0.968888
0.968477
0.970531
0.973775
0.977004
0.979835
0.982329
0.984682
0.987042
0.989252
0.990746
0.990983
1.30843
1.30842
1.30841
1.30839
1.30833
1.30822
1.30803
1.3077
1.30707
1.30615
1.30491
1.30327
1.30111
1.2983
1.29498
1.29169
1.28864
1.28579
1.28299
1.27911
1.27415
1.26836
1.26328
1.26066
1.25993
1.26096
1.26401
1.26774
1.27131
1.27425
1.2763
1.27748
1.27793
1.27782
1.27707
1.06697
1.06727
1.06757
1.06782
1.06802
1.06817
1.06825
1.06844
1.069
1.07008
1.07175
1.07401
1.07682
1.08008
1.08358
1.08679
1.0895
1.09173
1.09343
1.09475
1.09588
1.09688
1.09753
1.09772
1.0981
1.09892
1.0995
1.0999
1.1
1.09981
1.09943
1.09897
1.09843
1.09782
1.0969
1.2311
1.23053
1.22993
1.22931
1.22867
1.22798
1.2273
1.22648
1.2255
1.22447
1.22339
1.22225
1.22101
1.21967
1.21827
1.21701
1.21589
1.21488
1.21406
1.21338
1.21254
1.21109
1.20959
1.20878
1.20794
1.20667
1.2054
1.20418
1.20293
1.20171
1.20061
1.19965
1.19878
1.19801
1.19731
1.12858
1.12881
1.12907
1.12933
1.1296
1.12995
1.13034
1.13081
1.13132
1.13188
1.13265
1.1336
1.13477
1.13617
1.13784
1.13963
1.14129
1.14256
1.14354
1.14441
1.14515
1.14575
1.14637
1.14686
1.14707
1.14739
1.14759
1.1476
1.14747
1.14725
1.14699
1.14669
1.14634
1.14594
1.1454
1.19693
1.19685
1.19672
1.19659
1.19644
1.19626
1.19604
1.19578
1.1955
1.19511
1.19451
1.19385
1.19319
1.19257
1.19206
1.19174
1.19156
1.19153
1.19167
1.19188
1.19199
1.19189
1.19161
1.1913
1.19091
1.19048
1.19001
1.18942
1.18882
1.18823
1.18769
1.18722
1.18685
1.18662
1.18662
1.15324
1.15334
1.15348
1.15362
1.15379
1.15398
1.1542
1.15444
1.1547
1.15501
1.15537
1.15582
1.15639
1.15703
1.15771
1.15837
1.15899
1.15948
1.15979
1.16
1.16021
1.16047
1.16071
1.161
1.16126
1.16137
1.1613
1.16123
1.16117
1.16113
1.16112
1.1611
1.16109
1.16111
1.16123
1.1831
1.18306
1.183
1.18296
1.18291
1.18286
1.18281
1.18275
1.18268
1.1826
1.1825
1.1824
1.18218
1.18197
1.18181
1.18177
1.18182
1.18196
1.18218
1.18245
1.18274
1.18298
1.18322
1.18326
1.18322
1.18313
1.183
1.18291
1.18288
1.18288
1.1829
1.18294
1.183
1.18306
1.18315
1.16429
1.1643
1.16436
1.16442
1.16449
1.16457
1.16466
1.16476
1.16488
1.16501
1.16514
1.16526
1.16543
1.16564
1.1659
1.1662
1.16644
1.16664
1.1668
1.16688
1.16694
1.16699
1.16704
1.16711
1.16717
1.16724
1.1673
1.16737
1.16743
1.16749
1.16754
1.16758
1.16761
1.16764
1.16766
1.17704
1.17704
1.17703
1.17703
1.17702
1.17701
1.177
1.177
1.177
1.17701
1.17702
1.17704
1.17708
1.17713
1.17721
1.17724
1.17732
1.17741
1.17755
1.17771
1.17789
1.17809
1.17827
1.17841
1.17852
1.17859
1.17865
1.1787
1.17873
1.17877
1.1788
1.17883
1.17886
1.1789
1.17895
1.16933
1.16933
1.16936
1.16939
1.16943
1.16947
1.16952
1.16957
1.16963
1.1697
1.16977
1.16984
1.16991
1.16997
1.17003
1.17012
1.17021
1.17032
1.17042
1.17051
1.17058
1.17063
1.17067
1.17071
1.17075
1.1708
1.17084
1.17089
1.17094
1.17099
1.17104
1.17108
1.17112
1.17117
1.17121
1.17463
1.17463
1.17464
1.17465
1.17466
1.17467
1.17469
1.17471
1.17473
1.17476
1.1748
1.17485
1.17492
1.17501
1.17513
1.17528
1.17543
1.17558
1.17573
1.17587
1.17603
1.17619
1.17636
1.1765
1.17662
1.17671
1.17679
1.17686
1.17691
1.17695
1.17698
1.177
1.17703
1.17705
1.17707
1.17178
1.17178
1.1718
1.17182
1.17184
1.17187
1.17191
1.17195
1.17199
1.17204
1.17209
1.17215
1.17221
1.17227
1.17232
1.17237
1.17241
1.17245
1.17249
1.17253
1.17257
1.1726
1.17263
1.17265
1.17268
1.1727
1.17273
1.17276
1.17279
1.17282
1.17285
1.17288
1.1729
1.17293
1.17295
1.17395
1.17396
1.17397
1.17399
1.174
1.17402
1.17404
1.17407
1.17409
1.17413
1.17417
1.17422
1.17428
1.17436
1.17446
1.17458
1.17472
1.17486
1.175
1.17515
1.17531
1.17546
1.17561
1.17574
1.17584
1.17593
1.17599
1.17604
1.17608
1.17611
1.17613
1.17615
1.17616
1.17617
1.17618
1.17311
1.17311
1.17313
1.17314
1.17316
1.17319
1.17321
1.17324
1.17328
1.17332
1.17337
1.17342
1.17347
1.17353
1.17358
1.17364
1.17369
1.17374
1.17379
1.17382
1.17385
1.17388
1.17389
1.1739
1.17392
1.17393
1.17395
1.17397
1.17399
1.17401
1.17403
1.17405
1.17407
1.17409
1.1741
1.17403
1.17404
1.17405
1.17407
1.17408
1.1741
1.17412
1.17415
1.17417
1.1742
1.17424
1.17428
1.17433
1.1744
1.17447
1.17456
1.17466
1.17476
1.17487
1.17498
1.17509
1.17521
1.17532
1.17542
1.1755
1.17557
1.17563
1.17567
1.1757
1.17572
1.17574
1.17575
1.17576
1.17577
1.17578
1.17393
1.17393
1.17395
1.17396
1.17398
1.174
1.17402
1.17404
1.17407
1.1741
1.17414
1.17418
1.17423
1.17428
1.17434
1.17439
1.17444
1.1745
1.17455
1.1746
1.17464
1.17467
1.1747
1.17472
1.17473
1.17475
1.17476
1.17478
1.17479
1.1748
1.17482
1.17483
1.17484
1.17486
1.17487
1.17438
1.17439
1.1744
1.17441
1.17442
1.17444
1.17446
1.17448
1.1745
1.17453
1.17456
1.17459
1.17463
1.17468
1.17474
1.17481
1.17488
1.17495
1.17502
1.1751
1.17518
1.17526
1.17534
1.1754
1.17546
1.17551
1.17555
1.17558
1.17561
1.17563
1.17564
1.17565
1.17566
1.17567
1.17568
1.1745
1.17451
1.17452
1.17453
1.17454
1.17456
1.17458
1.1746
1.17462
1.17464
1.17467
1.17471
1.17474
1.17479
1.17484
1.17489
1.17494
1.17499
1.17503
1.17508
1.17512
1.17516
1.17519
1.17521
1.17523
1.17525
1.17526
1.17528
1.17529
1.1753
1.17531
1.17532
1.17533
1.17534
1.17535
1.17478
1.17479
1.17479
1.1748
1.17481
1.17483
1.17484
1.17486
1.17488
1.1749
1.17492
1.17495
1.17498
1.17502
1.17507
1.17512
1.17517
1.17522
1.17528
1.17533
1.17538
1.17544
1.17549
1.17553
1.17557
1.1756
1.17563
1.17565
1.17567
1.17568
1.17569
1.1757
1.17571
1.17572
1.17573
1.17495
1.17495
1.17496
1.17497
1.17498
1.17499
1.175
1.17502
1.17504
1.17506
1.17508
1.17511
1.17514
1.17517
1.17521
1.17525
1.1753
1.17534
1.17538
1.17542
1.17545
1.17548
1.17551
1.17553
1.17555
1.17557
1.17558
1.17559
1.1756
1.17561
1.17562
1.17562
1.17563
1.17564
1.17565
1.17514
1.17515
1.17516
1.17516
1.17517
1.17518
1.17519
1.17521
1.17522
1.17524
1.17526
1.17528
1.17531
1.17534
1.17538
1.17542
1.17546
1.17549
1.17553
1.17557
1.17561
1.17564
1.17567
1.1757
1.17572
1.17574
1.17576
1.17577
1.17579
1.17579
1.1758
1.17581
1.17581
1.17582
1.17582
1.1753
1.17531
1.17531
1.17532
1.17533
1.17534
1.17535
1.17536
1.17537
1.17539
1.17541
1.17543
1.17545
1.17548
1.17551
1.17554
1.17558
1.17561
1.17564
1.17567
1.1757
1.17572
1.17574
1.17576
1.17577
1.17578
1.17579
1.17579
1.1758
1.17581
1.17581
1.17581
1.17582
1.17582
1.17583
1.17546
1.17546
1.17547
1.17547
1.17548
1.17549
1.1755
1.17551
1.17552
1.17553
1.17555
1.17557
1.17559
1.17561
1.17564
1.17567
1.1757
1.17573
1.17576
1.17578
1.17581
1.17583
1.17585
1.17586
1.17587
1.17588
1.17589
1.17589
1.1759
1.1759
1.1759
1.17591
1.17591
1.17591
1.17591
1.17559
1.17559
1.1756
1.1756
1.17561
1.17562
1.17563
1.17563
1.17564
1.17566
1.17567
1.17569
1.17571
1.17573
1.17575
1.17578
1.1758
1.17583
1.17585
1.17587
1.17589
1.17591
1.17592
1.17593
1.17593
1.17593
1.17594
1.17593
1.17593
1.17593
1.17593
1.17593
1.17593
1.17593
1.17592
1.17571
1.17572
1.17572
1.17573
1.17573
1.17574
1.17574
1.17575
1.17576
1.17577
1.17578
1.1758
1.17581
1.17583
1.17585
1.17588
1.1759
1.17592
1.17594
1.17596
1.17598
1.17599
1.176
1.176
1.176
1.176
1.176
1.176
1.17599
1.17599
1.17598
1.17598
1.17597
1.17597
1.17596
1.17582
1.17582
1.17583
1.17583
1.17584
1.17584
1.17585
1.17585
1.17586
1.17587
1.17588
1.17589
1.17591
1.17592
1.17594
1.17596
1.17598
1.176
1.17602
1.17603
1.17605
1.17606
1.17606
1.17606
1.17606
1.17605
1.17605
1.17604
1.17603
1.17602
1.17601
1.176
1.176
1.17599
1.17597
1.17592
1.17592
1.17592
1.17593
1.17593
1.17593
1.17594
1.17594
1.17595
1.17596
1.17597
1.17598
1.17599
1.17601
1.17602
1.17604
1.17606
1.17607
1.17609
1.1761
1.17611
1.17612
1.17612
1.17612
1.17611
1.17611
1.1761
1.17609
1.17608
1.17607
1.17606
1.17605
1.17604
1.17603
1.17602
1.176
1.17601
1.17601
1.17601
1.17601
1.17602
1.17602
1.17602
1.17603
1.17604
1.17604
1.17605
1.17606
1.17608
1.17609
1.17611
1.17612
1.17614
1.17615
1.17616
1.17617
1.17617
1.17617
1.17617
1.17616
1.17615
1.17614
1.17613
1.17613
1.17612
1.17611
1.17611
1.1761
1.1761
1.1761
1.17627
1.17624
1.17623
1.17622
1.17622
1.17622
1.17622
1.17623
1.17624
1.17625
1.17626
1.17627
1.17627
1.17628
1.17627
1.17627
1.17626
1.17625
1.17623
1.17622
1.17621
1.17619
1.17618
1.17617
1.17616
1.17615
1.17615
1.17614
1.17614
1.17614
1.17613
1.17613
1.17613
1.17612
1.17612
1.17639
1.17636
1.17634
1.17632
1.17631
1.1763
1.1763
1.1763
1.1763
1.17631
1.17632
1.17632
1.17633
1.17633
1.17633
1.17632
1.17631
1.1763
1.17629
1.17628
1.17627
1.17626
1.17625
1.17624
1.17623
1.17622
1.17622
1.17622
1.17621
1.17621
1.17621
1.17621
1.1762
1.1762
1.1762
1.17645
1.17643
1.17641
1.17639
1.17638
1.17637
1.17636
1.17636
1.17636
1.17636
1.17637
1.17637
1.17637
1.17637
1.17637
1.17636
1.17636
1.17635
1.17634
1.17633
1.17632
1.17631
1.1763
1.17629
1.17629
1.17628
1.17628
1.17628
1.17627
1.17627
1.17627