/*--------------------------------*- C++ -*----------------------------------*\
  =========                 |
  \\      /  F ield         | OpenFOAM: The Open Source CFD Toolbox
   \\    /   O peration     | Website:  https://openfoam.org
    \\  /    A nd           | Version:  8
     \\/     M anipulation  |
\*---------------------------------------------------------------------------*/
FoamFile
{
    version     2.0;
    format      ascii;
    class       volVectorField;
    location    "0.06";
    object      U;
}
// * * * * * * * * * * * * * * * * * * * * * * * * * * * * * * * * * * * * * //

dimensions      [0 1 -1 0 0 0 0];

internalField   nonuniform List<vector> 
15677
(
(-0.275228 -140.676 0)
(-0.538202 -139.964 0)
(-0.854382 -135.006 0)
(-1.15374 -130.011 0)
(-1.46648 -125.019 0)
(-1.82744 -120.019 0)
(-2.24816 -115.006 0)
(-2.73233 -109.918 0)
(-3.27296 -104.63 0)
(-3.8316 -98.9991 0)
(-4.28733 -92.7465 0)
(-4.24154 -85.1479 0)
(-3.89568 -75.899 0)
(-2.75453 -70.5031 0)
(-1.14502 -68.6305 0)
(0.515436 -68.4514 0)
(2.2055 -68.8695 0)
(3.86373 -69.7322 0)
(5.3334 -71.6307 0)
(6.94385 -75.497 0)
(8.81533 -77.3847 0)
(10.416 -77.7489 0)
(11.7574 -77.9491 0)
(12.8586 -78.0907 0)
(13.7276 -78.1595 0)
(14.3904 -78.1878 0)
(14.8753 -78.1318 0)
(15.2104 -77.9093 0)
(15.428 -77.4453 0)
(15.5572 -76.8804 0)
(15.6252 -76.3092 0)
(15.6542 -75.7924 0)
(15.6623 -75.3636 0)
(15.6671 -75.0372 0)
(15.6958 -74.8155 0)
(-2.07705 135.259 0)
(-5.77857 134.308 0)
(-10.2735 130.346 0)
(-15.3042 126.091 0)
(-20.856 121.495 0)
(-26.7549 116.485 0)
(-32.8358 110.933 0)
(-38.8817 104.623 0)
(-44.5719 97.2559 0)
(-49.2177 88.0887 0)
(-51.7452 74.9258 0)
(-52.0366 59.1778 0)
(-47.9301 42.5205 0)
(-41.202 31.146 0)
(-32.8802 27.019 0)
(-24.6647 26.1416 0)
(-16.711 26.9887 0)
(-8.9853 28.9674 0)
(-1.74731 31.2615 0)
(4.63484 33.1987 0)
(10.3721 35.1804 0)
(15.4859 37.9387 0)
(19.8152 41.1846 0)
(23.408 44.7993 0)
(26.3732 48.7549 0)
(28.8325 52.9731 0)
(30.8617 57.2887 0)
(32.5215 61.4563 0)
(33.8657 65.2082 0)
(34.9486 68.5704 0)
(35.7878 71.5467 0)
(36.387 74.0496 0)
(36.7562 75.9549 0)
(36.9305 77.3211 0)
(36.9398 78.213 0)
(-0.0420223 77.7399 0)
(0.157654 74.3732 0)
(0.541453 70.0603 0)
(1.05423 64.7996 0)
(1.68039 58.3229 0)
(2.38324 50.1936 0)
(3.13995 39.7689 0)
(3.9574 26.3302 0)
(4.79432 9.16412 0)
(5.55628 -12.351 0)
(6.44845 -37.7653 0)
(6.9244 -62.0672 0)
(6.08525 -79.9058 0)
(3.93999 -90.2298 0)
(1.36197 -93.1622 0)
(-0.720196 -92.5794 0)
(-2.48822 -90.7246 0)
(-4.16588 -88.0127 0)
(-5.42792 -84.9674 0)
(-6.47003 -82.5078 0)
(-7.50544 -80.69 0)
(-8.43383 -79.3159 0)
(-9.19745 -78.3188 0)
(-9.8851 -77.4292 0)
(-10.5346 -76.5267 0)
(-11.1555 -75.574 0)
(-11.6497 -74.4049 0)
(-12.0021 -72.9175 0)
(-12.2478 -71.0802 0)
(-12.4143 -68.8857 0)
(-12.4914 -66.3786 0)
(-12.4712 -63.6139 0)
(-12.3558 -60.6529 0)
(-12.1832 -57.7317 0)
(-11.9509 -55.0058 0)
(1.14487 77.5889 0)
(3.00458 80.3449 0)
(4.94864 78.5297 0)
(7.04686 75.539 0)
(9.37576 71.6868 0)
(11.9786 67.0533 0)
(14.9052 61.7859 0)
(18.173 56.051 0)
(21.7804 50.0997 0)
(25.5446 44.4303 0)
(28.5338 39.1247 0)
(30.2415 32.9195 0)
(30.2947 25.5267 0)
(29.5691 17.6912 0)
(28.0901 11.1945 0)
(26.625 6.84024 0)
(25.3 4.29675 0)
(24.171 3.08267 0)
(23.2845 2.99468 0)
(22.6076 4.09254 0)
(22.0291 6.58116 0)
(21.3607 10.6804 0)
(20.4767 16.1991 0)
(19.2971 22.8161 0)
(17.8156 29.8791 0)
(16.0075 36.4075 0)
(13.9038 41.5139 0)
(11.7355 45.4964 0)
(9.56411 48.5651 0)
(7.48306 50.8543 0)
(5.54307 52.4717 0)
(3.77626 53.5146 0)
(2.19614 54.0763 0)
(0.795093 54.2659 0)
(-0.435449 54.2255 0)
(0.336357 27.0568 0)
(0.903313 27.0358 0)
(1.71004 24.1939 0)
(2.61734 20.3374 0)
(3.61656 15.3027 0)
(4.61832 8.77533 0)
(5.5528 0.245998 0)
(6.34642 -10.3468 0)
(6.87751 -22.7724 0)
(7.1875 -35.3875 0)
(7.38548 -44.0608 0)
(7.30033 -48.6785 0)
(7.16558 -50.0972 0)
(6.58446 -50.2217 0)
(5.41088 -49.5861 0)
(3.79056 -48.6887 0)
(1.82765 -47.7133 0)
(-0.399143 -46.7665 0)
(-2.82368 -45.8099 0)
(-5.41077 -44.7446 0)
(-8.10771 -43.4147 0)
(-10.6455 -41.6265 0)
(-12.6849 -39.2646 0)
(-14.0918 -36.2883 0)
(-14.8049 -32.7276 0)
(-14.9041 -28.6175 0)
(-14.5932 -23.9995 0)
(-14.1607 -19.6783 0)
(-13.6184 -16.0609 0)
(-12.9907 -13.1677 0)
(-12.3289 -10.9269 0)
(-11.6653 -9.2327 0)
(-11.0235 -7.97405 0)
(-10.4116 -7.05002 0)
(-9.83682 -6.37675 0)
(0.488986 29.4554 0)
(1.41693 32.6179 0)
(2.45078 32.3136 0)
(3.54631 31.425 0)
(4.71761 30.2948 0)
(5.9566 29.1881 0)
(7.1794 28.5037 0)
(8.30153 28.3584 0)
(9.16326 28.4587 0)
(9.28716 27.3464 0)
(9.02218 22.1813 0)
(8.65681 14.8259 0)
(8.04669 8.10081 0)
(7.17037 3.34458 0)
(6.09559 0.75567 0)
(4.93612 -0.364636 0)
(3.75 -0.550206 0)
(2.57547 0.0897154 0)
(1.4185 1.5467 0)
(0.250441 3.8446 0)
(-0.936613 6.93794 0)
(-2.13993 10.5116 0)
(-3.33043 14.0139 0)
(-4.50462 17.0907 0)
(-5.59312 19.4668 0)
(-6.45442 21.238 0)
(-7.04866 22.486 0)
(-7.36115 23.4388 0)
(-7.46186 24.2847 0)
(-7.46592 25.0534 0)
(-7.43056 25.7319 0)
(-7.38531 26.3169 0)
(-7.34703 26.8141 0)
(-7.33209 27.2299 0)
(-7.33463 27.5677 0)
(0.160261 5.57269 0)
(0.485182 4.79504 0)
(0.915109 3.19182 0)
(1.38016 1.13774 0)
(1.87512 -1.42482 0)
(2.36863 -4.60042 0)
(2.85174 -8.54003 0)
(3.35585 -13.3137 0)
(3.82434 -18.7679 0)
(4.26447 -24.1677 0)
(4.47144 -27.8548 0)
(3.96417 -28.7004 0)
(2.87142 -27.836 0)
(1.28606 -26.3892 0)
(-0.452005 -25.084 0)
(-2.11498 -24.0635 0)
(-3.74917 -23.2209 0)
(-5.3464 -22.4467 0)
(-6.88245 -21.5958 0)
(-8.30172 -20.5487 0)
(-9.52173 -19.2152 0)
(-10.3856 -17.6018 0)
(-10.8021 -15.854 0)
(-10.8065 -13.9822 0)
(-10.5633 -11.9809 0)
(-10.3043 -10.0664 0)
(-10.0401 -8.34989 0)
(-9.7648 -6.84598 0)
(-9.46954 -5.55221 0)
(-9.15405 -4.45182 0)
(-8.82441 -3.52229 0)
(-8.48849 -2.74035 0)
(-8.15194 -2.08393 0)
(-7.81572 -1.5335 0)
(-7.48487 -1.07145 0)
(0.479242 6.91138 0)
(1.34276 8.78117 0)
(2.33386 9.33308 0)
(3.3454 9.65728 0)
(4.38293 9.96717 0)
(5.39436 10.4325 0)
(6.32322 11.2464 0)
(7.00591 12.7829 0)
(7.31118 14.8623 0)
(7.10823 15.0085 0)
(6.38013 13.284 0)
(5.3672 10.1873 0)
(4.2209 6.72902 0)
(3.05531 3.62883 0)
(1.97803 1.57018 0)
(1.00679 0.531121 0)
(0.0721976 0.280362 0)
(-0.806658 0.676969 0)
(-1.63156 1.55239 0)
(-2.4245 2.79687 0)
(-3.16566 4.33371 0)
(-3.85962 6.00828 0)
(-4.51095 7.57366 0)
(-5.08641 8.86457 0)
(-5.51307 9.88892 0)
(-5.77213 10.6864 0)
(-5.90036 11.3626 0)
(-5.95055 11.9612 0)
(-5.96413 12.4924 0)
(-5.96127 12.9583 0)
(-5.95261 13.359 0)
(-5.94415 13.6844 0)
(-5.93905 13.9333 0)
(-5.94126 14.1193 0)
(-5.94161 14.2653 0)
(-0.147259 -18.4343 0)
(-0.322262 -18.4144 0)
(-0.50908 -17.8911 0)
(-0.680022 -17.3082 0)
(-0.841077 -16.6897 0)
(-0.98019 -16.0407 0)
(-1.07671 -15.3773 0)
(-1.06562 -14.7067 0)
(-0.794666 -14.0104 0)
(-0.271022 -13.316 0)
(0.30672 -12.602 0)
(0.693468 -11.867 0)
(0.707391 -11.2464 0)
(0.260145 -10.7683 0)
(-0.549405 -10.3721 0)
(-1.49739 -10.0159 0)
(-2.52083 -9.66294 0)
(-3.53642 -9.27291 0)
(-4.47953 -8.79103 0)
(-5.31153 -8.17787 0)
(-5.98493 -7.41235 0)
(-6.39333 -6.52865 0)
(-6.53794 -5.58888 0)
(-6.56946 -4.59964 0)
(-6.57732 -3.64007 0)
(-6.55221 -2.76825 0)
(-6.48461 -2.00399 0)
(-6.38023 -1.34111 0)
(-6.24628 -0.766466 0)
(-6.08975 -0.267965 0)
(-5.9177 0.165003 0)
(-5.73491 0.538721 0)
(-5.55316 0.846883 0)
(-5.37383 1.10457 0)
(-5.19535 1.33199 0)
(0.0332795 7.83218 0)
(0.0563411 8.16897 0)
(0.0457878 8.05786 0)
(0.0103877 7.77972 0)
(-0.0528562 7.38955 0)
(-0.144612 6.91292 0)
(-0.26268 6.36704 0)
(-0.408306 5.77096 0)
(-0.580648 5.14991 0)
(-0.775964 4.52049 0)
(-0.990852 3.88817 0)
(-1.21586 3.23038 0)
(-1.44368 2.56546 0)
(-1.68498 1.9667 0)
(-1.94662 1.59257 0)
(-2.23439 1.4573 0)
(-2.54112 1.51982 0)
(-2.86106 1.76013 0)
(-3.19353 2.16629 0)
(-3.54023 2.7236 0)
(-3.91152 3.41484 0)
(-4.27513 4.14981 0)
(-4.55513 4.78922 0)
(-4.70798 5.29062 0)
(-4.75517 5.71331 0)
(-4.74397 6.09786 0)
(-4.70373 6.45161 0)
(-4.65256 6.77237 0)
(-4.59996 7.05604 0)
(-4.55127 7.29968 0)
(-4.50863 7.50623 0)
(-4.47228 7.68423 0)
(-4.44313 7.83794 0)
(-4.42337 7.96664 0)
(-4.40483 8.07337 0)
(-0.124709 -14.2968 0)
(-0.270179 -13.5026 0)
(-0.407094 -12.589 0)
(-0.514231 -11.7163 0)
(-0.601447 -10.8705 0)
(-0.670027 -10.0543 0)
(-0.724128 -9.27603 0)
(-0.769658 -8.53866 0)
(-0.814192 -7.84343 0)
(-0.868656 -7.20201 0)
(-0.947484 -6.62495 0)
(-1.07019 -6.11221 0)
(-1.2661 -5.65742 0)
(-1.57046 -5.2405 0)
(-1.94973 -4.85888 0)
(-2.34284 -4.50458 0)
(-2.74343 -4.15942 0)
(-3.13134 -3.80453 0)
(-3.47891 -3.42197 0)
(-3.75007 -2.99359 0)
(-3.92992 -2.48162 0)
(-4.05934 -1.91754 0)
(-4.16508 -1.38542 0)
(-4.23925 -0.898042 0)
(-4.28291 -0.456524 0)
(-4.29533 -0.0623237 0)
(-4.27751 0.290403 0)
(-4.23515 0.606181 0)
(-4.17276 0.888506 0)
(-4.09569 1.14072 0)
(-4.00918 1.3662 0)
(-3.91757 1.5683 0)
(-3.82366 1.75004 0)
(-3.72801 1.91406 0)
(-3.62957 2.06264 0)
(-0.0392987 9.41523 0)
(-0.111116 8.34391 0)
(-0.20188 7.32774 0)
(-0.306666 6.39267 0)
(-0.426702 5.51224 0)
(-0.560182 4.68725 0)
(-0.706447 3.92511 0)
(-0.863863 3.23556 0)
(-1.03028 2.62953 0)
(-1.2022 2.11452 0)
(-1.37733 1.69318 0)
(-1.55489 1.36445 0)
(-1.73531 1.13066 0)
(-1.92213 0.998341 0)
(-2.11143 0.98531 0)
(-2.29181 1.07185 0)
(-2.46883 1.24211 0)
(-2.66236 1.48346 0)
(-2.87488 1.78991 0)
(-3.08104 2.13985 0)
(-3.24842 2.49901 0)
(-3.33468 2.83479 0)
(-3.35127 3.14141 0)
(-3.33413 3.42265 0)
(-3.2991 3.67952 0)
(-3.255 3.91284 0)
(-3.21025 4.1238 0)
(-3.1676 4.31263 0)
(-3.12917 4.47952 0)
(-3.09589 4.62514 0)
(-3.06768 4.75069 0)
(-3.04406 4.85771 0)
(-3.02495 4.9479 0)
(-3.01065 5.02302 0)
(-2.99444 5.08471 0)
(0.000514869 -9.19127 0)
(-0.00252445 -8.41297 0)
(-0.011009 -7.61617 0)
(-0.0250723 -6.87785 0)
(-0.0472012 -6.18129 0)
(-0.0795522 -5.52622 0)
(-0.125311 -4.92002 0)
(-0.188244 -4.37041 0)
(-0.271999 -3.88193 0)
(-0.380515 -3.4558 0)
(-0.518874 -3.08735 0)
(-0.691404 -2.76738 0)
(-0.901613 -2.48262 0)
(-1.15044 -2.21703 0)
(-1.40137 -1.97898 0)
(-1.62237 -1.76219 0)
(-1.81509 -1.54621 0)
(-1.96608 -1.31042 0)
(-2.09596 -1.02532 0)
(-2.24207 -0.680918 0)
(-2.39468 -0.302661 0)
(-2.52357 0.0491611 0)
(-2.61459 0.351921 0)
(-2.67419 0.62727 0)
(-2.70609 0.875301 0)
(-2.71525 1.0972 0)
(-2.70467 1.29532 0)
(-2.67844 1.47275 0)
(-2.64058 1.63215 0)
(-2.59423 1.77581 0)
(-2.54237 1.90579 0)
(-2.48759 2.02389 0)
(-2.43179 2.13172 0)
(-2.37515 2.23063 0)
(-2.31494 2.32179 0)
(-0.0756709 7.26851 0)
(-0.18615 6.37219 0)
(-0.303811 5.56133 0)
(-0.419472 4.82189 0)
(-0.535748 4.12823 0)
(-0.652653 3.48119 0)
(-0.770165 2.88983 0)
(-0.88603 2.36349 0)
(-1.00006 1.91227 0)
(-1.11018 1.54393 0)
(-1.2158 1.25965 0)
(-1.32156 1.05697 0)
(-1.43182 0.93146 0)
(-1.55783 0.879617 0)
(-1.68939 0.905996 0)
(-1.8201 0.989516 0)
(-1.94931 1.12046 0)
(-2.06569 1.29095 0)
(-2.15179 1.49872 0)
(-2.20038 1.73893 0)
(-2.22318 1.9624 0)
(-2.22087 2.15107 0)
(-2.20179 2.33212 0)
(-2.17286 2.50548 0)
(-2.13915 2.66654 0)
(-2.10328 2.81348 0)
(-2.06854 2.94612 0)
(-2.03614 3.06451 0)
(-2.00677 3.169 0)
(-1.98064 3.26019 0)
(-1.95764 3.33887 0)
(-1.93747 3.40593 0)
(-1.92013 3.46232 0)
(-1.90577 3.50906 0)
(-1.88939 3.54708 0)
(0.021458 -3.9721 0)
(0.0538334 -3.83895 0)
(0.078127 -3.58611 0)
(0.0948639 -3.30078 0)
(0.102791 -2.99513 0)
(0.100114 -2.67945 0)
(0.0838028 -2.36581 0)
(0.0485462 -2.06435 0)
(-0.00767098 -1.78605 0)
(-0.0900617 -1.53685 0)
(-0.20166 -1.31625 0)
(-0.339594 -1.12046 0)
(-0.500476 -0.943224 0)
(-0.677326 -0.774946 0)
(-0.848636 -0.613705 0)
(-1.00268 -0.44811 0)
(-1.14773 -0.262897 0)
(-1.28528 -0.0549481 0)
(-1.40873 0.183123 0)
(-1.51583 0.443275 0)
(-1.60646 0.712396 0)
(-1.67743 0.941291 0)
(-1.72303 1.12454 0)
(-1.74804 1.29 0)
(-1.7557 1.43949 0)
(-1.75061 1.5734 0)
(-1.7349 1.69249 0)
(-1.71066 1.79873 0)
(-1.68082 1.89396 0)
(-1.64711 1.97975 0)
(-1.61111 2.05746 0)
(-1.57421 2.12829 0)
(-1.53746 2.19322 0)
(-1.50099 2.25307 0)
(-1.46201 2.30847 0)
(-0.0180206 4.73848 0)
(-0.0662288 4.31001 0)
(-0.13312 3.87656 0)
(-0.210641 3.46867 0)
(-0.298082 3.0784 0)
(-0.392347 2.70768 0)
(-0.49122 2.36229 0)
(-0.592219 2.04834 0)
(-0.693042 1.77116 0)
(-0.792377 1.53484 0)
(-0.889685 1.34342 0)
(-0.984774 1.19815 0)
(-1.07797 1.09916 0)
(-1.16961 1.04611 0)
(-1.25654 1.0382 0)
(-1.33367 1.06322 0)
(-1.40041 1.11612 0)
(-1.45648 1.20433 0)
(-1.4962 1.33194 0)
(-1.51898 1.49643 0)
(-1.524 1.65843 0)
(-1.51109 1.78963 0)
(-1.49155 1.91087 0)
(-1.46832 2.02603 0)
(-1.44252 2.13288 0)
(-1.4158 2.2301 0)
(-1.38888 2.31746 0)
(-1.36348 2.39551 0)
(-1.33969 2.46457 0)
(-1.31777 2.52501 0)
(-1.29775 2.57732 0)
(-1.27949 2.62208 0)
(-1.26332 2.65989 0)
(-1.24894 2.69128 0)
(-1.23316 2.71695 0)
(0.0128118 -1.75459 0)
(0.0336231 -1.45413 0)
(0.0544596 -1.21988 0)
(0.0709164 -1.01984 0)
(0.081373 -0.839799 0)
(0.0819026 -0.675314 0)
(0.0690006 -0.527417 0)
(0.0404773 -0.397756 0)
(-0.00605735 -0.285241 0)
(-0.072453 -0.185659 0)
(-0.159632 -0.0933271 0)
(-0.266951 -0.00305589 0)
(-0.393212 0.0909817 0)
(-0.536138 0.19465 0)
(-0.675607 0.30354 0)
(-0.799803 0.416063 0)
(-0.912795 0.538739 0)
(-1.01249 0.672808 0)
(-1.09758 0.821287 0)
(-1.1637 0.989372 0)
(-1.20818 1.15782 0)
(-1.23418 1.30106 0)
(-1.24717 1.42244 0)
(-1.24934 1.5308 0)
(-1.24281 1.62726 0)
(-1.22967 1.71293 0)
(-1.21193 1.789 0)
(-1.19049 1.85655 0)
(-1.1664 1.91682 0)
(-1.14098 1.97089 0)
(-1.11494 2.01971 0)
(-1.08913 2.06401 0)
(-1.06401 2.10434 0)
(-1.03945 2.1412 0)
(-1.01388 2.17511 0)
(-0.0266659 3.22234 0)
(-0.072269 2.94022 0)
(-0.12426 2.68625 0)
(-0.179073 2.45838 0)
(-0.237297 2.24757 0)
(-0.297658 2.05263 0)
(-0.359544 1.87326 0)
(-0.422454 1.70975 0)
(-0.486394 1.56325 0)
(-0.551687 1.43521 0)
(-0.618674 1.3263 0)
(-0.687448 1.23766 0)
(-0.758477 1.17162 0)
(-0.830328 1.13088 0)
(-0.900573 1.11938 0)
(-0.96339 1.13135 0)
(-1.01817 1.16467 0)
(-1.06398 1.2203 0)
(-1.09978 1.30418 0)
(-1.12368 1.40637 0)
(-1.13047 1.50736 0)
(-1.12486 1.60273 0)
(-1.11318 1.69267 0)
(-1.09739 1.77564 0)
(-1.07883 1.85115 0)
(-1.05878 1.91904 0)
(-1.03821 1.97948 0)
(-1.01781 2.03302 0)
(-0.99834 2.08034 0)
(-0.979819 2.12187 0)
(-0.962583 2.15802 0)
(-0.946568 2.18912 0)
(-0.931785 2.21565 0)
(-0.918189 2.23815 0)
(-0.904097 2.25706 0)
(0.00944417 0.0287081 0)
(0.0190855 0.200531 0)
(0.0252972 0.309769 0)
(0.0268312 0.39926 0)
(0.021793 0.477068 0)
(0.0086561 0.543817 0)
(-0.0140038 0.599087 0)
(-0.0476706 0.643643 0)
(-0.0938968 0.679645 0)
(-0.153482 0.709403 0)
(-0.226689 0.73556 0)
(-0.313412 0.76139 0)
(-0.412405 0.790959 0)
(-0.520226 0.829419 0)
(-0.621831 0.876371 0)
(-0.71034 0.929517 0)
(-0.788493 0.992776 0)
(-0.856509 1.06746 0)
(-0.911712 1.15337 0)
(-0.950758 1.24748 0)
(-0.975032 1.34362 0)
(-0.987212 1.43392 0)
(-0.989765 1.51557 0)
(-0.984994 1.58847 0)
(-0.974995 1.65329 0)
(-0.96125 1.71077 0)
(-0.945027 1.7617 0)
(-0.927319 1.80682 0)
(-0.908512 1.84686 0)
(-0.889201 1.88256 0)
(-0.870072 1.91449 0)
(-0.851282 1.94309 0)
(-0.833352 1.96889 0)
(-0.816195 1.99238 0)
(-0.798755 2.014 0)
(-0.0150992 2.37473 0)
(-0.0472793 2.2662 0)
(-0.0812324 2.14708 0)
(-0.118952 2.03621 0)
(-0.15917 1.93092 0)
(-0.201411 1.83018 0)
(-0.245655 1.73392 0)
(-0.291848 1.6431 0)
(-0.340368 1.55868 0)
(-0.391547 1.48114 0)
(-0.445831 1.41114 0)
(-0.503869 1.34974 0)
(-0.566359 1.29855 0)
(-0.632883 1.26138 0)
(-0.697373 1.24567 0)
(-0.755602 1.24751 0)
(-0.805989 1.26486 0)
(-0.846633 1.29744 0)
(-0.877966 1.34411 0)
(-0.899553 1.40185 0)
(-0.910527 1.46638 0)
(-0.912319 1.53261 0)
(-0.907342 1.59541 0)
(-0.89758 1.65325 0)
(-0.88466 1.70574 0)
(-0.869822 1.75282 0)
(-0.854044 1.79464 0)
(-0.837918 1.8315 0)
(-0.822049 1.8639 0)
(-0.80691 1.89222 0)
(-0.792404 1.91689 0)
(-0.778751 1.93852 0)
(-0.766106 1.95763 0)
(-0.754354 1.97461 0)
(-0.742594 1.98968 0)
(0.00303893 1.01323 0)
(0.00146627 1.12977 0)
(-0.00343457 1.18189 0)
(-0.0123233 1.21534 0)
(-0.0260994 1.23846 0)
(-0.0455505 1.2535 0)
(-0.0718738 1.26148 0)
(-0.106544 1.26296 0)
(-0.149874 1.25885 0)
(-0.202211 1.25058 0)
(-0.263766 1.23988 0)
(-0.333814 1.22877 0)
(-0.411373 1.21962 0)
(-0.495185 1.21542 0)
(-0.57359 1.21949 0)
(-0.640224 1.23075 0)
(-0.697306 1.24972 0)
(-0.74477 1.27962 0)
(-0.782036 1.32148 0)
(-0.809637 1.37182 0)
(-0.827385 1.42744 0)
(-0.835701 1.48378 0)
(-0.836244 1.53644 0)
(-0.831213 1.5844 0)
(-0.822326 1.62758 0)
(-0.810865 1.66616 0)
(-0.797725 1.7005 0)
(-0.783827 1.73102 0)
(-0.769651 1.75809 0)
(-0.755276 1.78217 0)
(-0.741289 1.80381 0)
(-0.728095 1.8234 0)
(-0.715586 1.84126 0)
(-0.70382 1.85757 0)
(-0.692053 1.87242 0)
(-0.0108767 2.05531 0)
(-0.0330653 2.05946 0)
(-0.0584927 2.01002 0)
(-0.0862722 1.95574 0)
(-0.117055 1.90022 0)
(-0.150337 1.84431 0)
(-0.186099 1.7882 0)
(-0.224637 1.73204 0)
(-0.265961 1.67576 0)
(-0.310309 1.61952 0)
(-0.357773 1.56404 0)
(-0.408414 1.51072 0)
(-0.462376 1.46195 0)
(-0.519581 1.42108 0)
(-0.574989 1.39408 0)
(-0.62393 1.379 0)
(-0.667354 1.37546 0)
(-0.705723 1.38433 0)
(-0.736492 1.40537 0)
(-0.759233 1.43642 0)
(-0.774062 1.47464 0)
(-0.780715 1.51618 0)
(-0.780789 1.55668 0)
(-0.776162 1.59461 0)
(-0.768342 1.62943 0)
(-0.758476 1.66099 0)
(-0.747424 1.68934 0)
(-0.735873 1.71464 0)
(-0.724184 1.73716 0)
(-0.712765 1.75736 0)
(-0.701857 1.77559 0)
(-0.691434 1.79195 0)
(-0.681592 1.80647 0)
(-0.672355 1.81924 0)
(-0.663096 1.83035 0)
(-0.00287068 1.56608 0)
(-0.0126295 1.66128 0)
(-0.0248109 1.68945 0)
(-0.0406073 1.69841 0)
(-0.0602835 1.69655 0)
(-0.0840761 1.68686 0)
(-0.112654 1.6707 0)
(-0.146343 1.64865 0)
(-0.185267 1.62112 0)
(-0.229415 1.58875 0)
(-0.27862 1.55285 0)
(-0.332763 1.51572 0)
(-0.391347 1.48012 0)
(-0.453946 1.44885 0)
(-0.511777 1.42598 0)
(-0.561329 1.41212 0)
(-0.605738 1.40755 0)
(-0.644297 1.4125 0)
(-0.676623 1.42663 0)
(-0.701712 1.44912 0)
(-0.719487 1.47806 0)
(-0.729487 1.51016 0)
(-0.732861 1.54185 0)
(-0.731397 1.57177 0)
(-0.726533 1.5994 0)
(-0.719357 1.62459 0)
(-0.710686 1.64739 0)
(-0.701134 1.66794 0)
(-0.691147 1.68647 0)
(-0.681029 1.70317 0)
(-0.670982 1.71817 0)
(-0.661166 1.73159 0)
(-0.651721 1.74357 0)
(-0.64269 1.75425 0)
(-0.633591 1.76379 0)
(-0.00976175 2.05112 0)
(-0.0265217 2.10217 0)
(-0.048282 2.08266 0)
(-0.0705394 2.05046 0)
(-0.0956443 2.01352 0)
(-0.122792 1.97276 0)
(-0.152271 1.92815 0)
(-0.184127 1.87968 0)
(-0.218525 1.82759 0)
(-0.255644 1.77267 0)
(-0.29607 1.7163 0)
(-0.340196 1.66019 0)
(-0.387924 1.60646 0)
(-0.438827 1.5571 0)
(-0.486956 1.5184 0)
(-0.530153 1.49206 0)
(-0.56932 1.47666 0)
(-0.604079 1.47129 0)
(-0.633869 1.47503 0)
(-0.657979 1.48677 0)
(-0.67592 1.50506 0)
(-0.686995 1.52738 0)
(-0.691975 1.55059 0)
(-0.692383 1.57321 0)
(-0.689498 1.59453 0)
(-0.684315 1.61423 0)
(-0.677593 1.63221 0)
(-0.669904 1.64846 0)
(-0.661669 1.66308 0)
(-0.653195 1.67616 0)
(-0.644705 1.68781 0)
(-0.636372 1.69813 0)
(-0.628339 1.70725 0)
(-0.620676 1.71528 0)
(-0.612955 1.72234 0)
(-0.00414879 1.91331 0)
(-0.0141478 1.99963 0)
(-0.027335 2.01259 0)
(-0.0429507 2.00556 0)
(-0.0613593 1.98819 0)
(-0.0827675 1.96333 0)
(-0.107426 1.93203 0)
(-0.135651 1.89482 0)
(-0.167822 1.85233 0)
(-0.204148 1.80557 0)
(-0.244841 1.75577 0)
(-0.289658 1.70439 0)
(-0.338271 1.65319 0)
(-0.390054 1.60437 0)
(-0.439314 1.56485 0)
(-0.483244 1.53652 0)
(-0.523032 1.51775 0)
(-0.558443 1.50784 0)
(-0.589126 1.50594 0)
(-0.614658 1.51107 0)
(-0.634658 1.52205 0)
(-0.648253 1.53693 0)
(-0.655868 1.55318 0)
(-0.658862 1.56942 0)
(-0.658416 1.58495 0)
(-0.655464 1.59944 0)
(-0.650735 1.6127 0)
(-0.644794 1.62473 0)
(-0.638075 1.63554 0)
(-0.630912 1.64521 0)
(-0.623558 1.65383 0)
(-0.616212 1.66148 0)
(-0.609033 1.66828 0)
(-0.6021 1.67432 0)
(-0.595089 1.67968 0)
(-0.00559515 2.12665 0)
(-0.0167696 2.20555 0)
(-0.0313889 2.19866 0)
(-0.0471164 2.17494 0)
(-0.0650127 2.14353 0)
(-0.0851832 2.10616 0)
(-0.107688 2.06356 0)
(-0.132964 2.01624 0)
(-0.16132 1.96458 0)
(-0.19304 1.90913 0)
(-0.228438 1.85079 0)
(-0.267671 1.79086 0)
(-0.310802 1.73121 0)
(-0.357739 1.67418 0)
(-0.403577 1.62741 0)
(-0.445303 1.59266 0)
(-0.483827 1.56774 0)
(-0.518805 1.55166 0)
(-0.54982 1.54338 0)
(-0.576424 1.54181 0)
(-0.598193 1.54581 0)
(-0.614061 1.55383 0)
(-0.62413 1.56375 0)
(-0.629576 1.57424 0)
(-0.631484 1.58457 0)
(-0.630736 1.59434 0)
(-0.628043 1.60334 0)
(-0.623969 1.61149 0)
(-0.618959 1.61879 0)
(-0.613357 1.62527 0)
(-0.607431 1.631 0)
(-0.601384 1.63604 0)
(-0.595379 1.64045 0)
(-0.589516 1.64433 0)
(-0.583593 1.64771 0)
(-0.00157207 2.09214 0)
(-0.00693748 2.18735 0)
(-0.0149065 2.19652 0)
(-0.0253076 2.18504 0)
(-0.0383336 2.16326 0)
(-0.0541697 2.1337 0)
(-0.0731711 2.09747 0)
(-0.0957119 2.05526 0)
(-0.121946 2.00766 0)
(-0.152126 1.95528 0)
(-0.18639 1.89905 0)
(-0.224838 1.84028 0)
(-0.267494 1.7808 0)
(-0.314308 1.72292 0)
(-0.36038 1.67442 0)
(-0.40262 1.63729 0)
(-0.442029 1.60931 0)
(-0.47829 1.58953 0)
(-0.511027 1.57689 0)
(-0.539825 1.57036 0)
(-0.564273 1.56885 0)
(-0.583126 1.57116 0)
(-0.596189 1.57559 0)
(-0.604508 1.58093 0)
(-0.609102 1.58646 0)
(-0.610819 1.59179 0)
(-0.610356 1.59672 0)
(-0.60828 1.60115 0)
(-0.605046 1.60507 0)
(-0.601016 1.6085 0)
(-0.596476 1.61147 0)
(-0.591647 1.61404 0)
(-0.586706 1.61625 0)
(-0.581771 1.61815 0)
(-0.576803 1.6198 0)
(-0.000491098 2.16099 0)
(-0.0032333 2.2608 0)
(-0.00712077 2.27237 0)
(-0.0144648 2.26015 0)
(-0.0240099 2.2368 0)
(-0.0366743 2.20597 0)
(-0.0525304 2.16861 0)
(-0.0718337 2.12501 0)
(-0.0948753 2.07557 0)
(-0.121901 2.02089 0)
(-0.153141 1.96195 0)
(-0.188825 1.90017 0)
(-0.229161 1.83747 0)
(-0.274322 1.77621 0)
(-0.319695 1.72442 0)
(-0.362056 1.68408 0)
(-0.402272 1.65272 0)
(-0.439953 1.62925 0)
(-0.474675 1.61256 0)
(-0.505987 1.60155 0)
(-0.533443 1.59513 0)
(-0.555591 1.59236 0)
(-0.571929 1.59187 0)
(-0.583376 1.59254 0)
(-0.590888 1.5937 0)
(-0.595285 1.59495 0)
(-0.597254 1.5961 0)
(-0.59737 1.59705 0)
(-0.596099 1.59777 0)
(-0.593822 1.59826 0)
(-0.59084 1.59856 0)
(-0.587394 1.5987 0)
(-0.583668 1.5987 0)
(-0.579803 1.5986 0)
(-0.575967 1.59843 0)
(0.00500443 2.12691 0)
(0.00962303 2.23107 0)
(0.0131218 2.25906 0)
(0.0115018 2.26196 0)
(0.0070436 2.25087 0)
(-0.00209923 2.22946 0)
(-0.0148766 2.19929 0)
(-0.0319729 2.16117 0)
(-0.0533274 2.11582 0)
(-0.0791498 2.06404 0)
(-0.109554 2.00698 0)
(-0.144743 1.94621 0)
(-0.18495 1.88377 0)
(-0.230464 1.82209 0)
(-0.276734 1.76924 0)
(-0.320422 1.72737 0)
(-0.362426 1.694 0)
(-0.402345 1.668 0)
(-0.439757 1.64827 0)
(-0.474205 1.6337 0)
(-0.505232 1.62322 0)
(-0.531178 1.61609 0)
(-0.551229 1.61126 0)
(-0.566188 1.60772 0)
(-0.57696 1.60485 0)
(-0.584339 1.60228 0)
(-0.589006 1.59985 0)
(-0.591539 1.59746 0)
(-0.592417 1.59509 0)
(-0.592038 1.59274 0)
(-0.590728 1.59043 0)
(-0.588751 1.58819 0)
(-0.586298 1.58601 0)
(-0.58354 1.58394 0)
(-0.580911 1.58201 0)
(0.0158126 2.07368 0)
(0.0273853 2.20681 0)
(0.0364904 2.25703 0)
(0.0389201 2.27546 0)
(0.0372199 2.27628 0)
(0.0308699 2.26322 0)
(0.0202354 2.23907 0)
(0.00494224 2.20501 0)
(-0.0147937 2.16214 0)
(-0.0391856 2.11157 0)
(-0.0683292 2.05484 0)
(-0.102539 1.99383 0)
(-0.142194 1.93077 0)
(-0.187797 1.86819 0)
(-0.23492 1.8142 0)
(-0.280056 1.77095 0)
(-0.324064 1.73586 0)
(-0.366501 1.70775 0)
(-0.406922 1.68549 0)
(-0.444855 1.66793 0)
(-0.479825 1.65399 0)
(-0.509951 1.64307 0)
(-0.534086 1.63442 0)
(-0.55291 1.6271 0)
(-0.567275 1.62055 0)
(-0.577944 1.61445 0)
(-0.585589 1.60865 0)
(-0.59079 1.60308 0)
(-0.594044 1.59773 0)
(-0.595769 1.5926 0)
(-0.596317 1.58771 0)
(-0.595972 1.5831 0)
(-0.594945 1.57876 0)
(-0.59343 1.57472 0)
(-0.592173 1.57098 0)
(15.7573 -74.6404 0)
(15.4547 -74.5429 0)
(15.0366 -74.5655 0)
(14.5755 -74.7221 -2.87268e-17)
(14.0661 -75.0272 0)
(13.5045 -75.4964 0)
(12.8938 -76.1442 0)
(12.2376 -76.9812 0)
(11.5394 -78.0111 3.03142e-17)
(10.8021 -79.2142 0)
(10.0241 -80.5458 0)
(9.21082 -81.9444 -3.11677e-17)
(8.40512 -83.3247 0)
(7.645 -84.6421 -3.26735e-17)
(6.9307 -85.8949 0)
(6.25672 -87.0893 0)
(5.61987 -88.2252 0)
(5.01592 -89.2836 3.54101e-17)
(4.43389 -90.2512 0)
(3.89243 -91.1263 1.85272e-17)
(3.39478 -91.794 0)
(2.89851 -92.3066 0)
(36.9132 78.9757 0)
(37.1342 79.6823 0)
(37.2395 80.2566 0)
(37.1362 80.7339 3.92138e-17)
(36.8378 81.1516 0)
(36.3486 81.534 0)
(35.6608 81.8995 -7.7365e-17)
(34.764 82.2666 0)
(33.6462 82.6537 -1.20487e-16)
(32.2922 83.0803 7.98225e-17)
(30.6893 83.5703 8.0388e-17)
(28.8299 84.1554 4.23819e-17)
(26.7179 84.8498 0)
(24.3659 85.6263 4.36177e-17)
(21.795 86.4659 0)
(19.0326 87.3525 0)
(16.1041 88.2674 0)
(13.0353 89.186 -1.31654e-16)
(9.86531 90.0743 0)
(6.60306 90.8656 -2.29221e-17)
(3.25919 91.4818 0)
(-0.049664 91.8518 -4.56624e-17)
(-11.6156 -51.5759 0)
(-11.219 -47.3171 0)
(-10.8136 -43.1477 0)
(-10.3743 -39.138 0)
(-9.93028 -35.3149 0)
(-9.49005 -31.6845 6.61425e-17)
(-9.06554 -28.231 6.38394e-17)
(-8.67062 -24.9314 0)
(-8.32026 -21.7535 6.49581e-17)
(-8.03068 -18.661 -6.53152e-17)
(-7.8206 -15.6184 -6.54412e-17)
(-7.69911 -12.6177 0)
(-7.6375 -9.72807 0)
(-7.60086 -7.02603 0)
(-7.58057 -4.53252 7.07673e-17)
(-7.57335 -2.27459 0)
(-7.57342 -0.270854 0)
(-7.57494 1.46681 6.78957e-17)
(-7.57231 2.93322 0)
(-7.55406 4.13087 0)
(-7.51623 5.06596 0)
(-7.52779 5.74349 3.48327e-17)
(-1.82079 53.9919 0)
(-3.2183 53.515 0)
(-4.40889 52.9728 0)
(-5.41773 52.4579 -8.36726e-17)
(-6.21703 52.0551 0)
(-6.8098 51.8208 8.21052e-17)
(-7.20596 51.7629 0)
(-7.39638 51.8676 0)
(-7.39158 52.1416 0)
(-7.19454 52.5808 0)
(-6.80332 53.1838 -1.7311e-16)
(-6.23018 53.9454 0)
(-5.53833 54.831 0)
(-4.79992 55.7731 0)
(-4.02461 56.7468 8.7234e-17)
(-3.22377 57.7182 1.82711e-16)
(-2.41763 58.6369 0)
(-1.60802 59.4759 0)
(-0.796118 60.214 0)
(-0.00327454 60.8337 0)
(0.76051 61.3056 9.36595e-17)
(1.57666 61.5856 0)
(-9.20953 -5.70031 -1.52873e-16)
(-8.56011 -5.00486 0)
(-8.00235 -4.39948 -1.64351e-16)
(-7.49528 -3.84977 8.09331e-17)
(-7.03348 -3.31178 0)
(-6.61668 -2.72601 -1.63759e-16)
(-6.23517 -2.04269 -1.68294e-16)
(-5.88312 -1.21427 -1.6912e-16)
(-5.54887 -0.21253 0)
(-5.22952 0.961109 0)
(-4.91958 2.29746 1.67259e-16)
(-4.6035 3.77777 0)
(-4.25987 5.3199 0)
(-3.87213 6.82799 0)
(-3.43936 8.25767 -3.5384e-16)
(-2.95643 9.58135 -1.76776e-16)
(-2.43164 10.7454 0)
(-1.86986 11.7009 -1.84006e-16)
(-1.2705 12.4238 0)
(-0.641296 12.8962 1.86409e-16)
(0.022048 13.1102 -9.14382e-17)
(0.663472 13.068 0)
(-7.26653 27.9191 1.80763e-16)
(-7.08734 28.252 -1.90016e-16)
(-6.86057 28.518 3.84257e-16)
(-6.61655 28.7359 1.91937e-16)
(-6.3534 28.9247 0)
(-6.07098 29.0927 0)
(-5.76277 29.2499 1.96295e-16)
(-5.41997 29.4077 1.96878e-16)
(-5.03033 29.5791 0)
(-4.57882 29.7774 0)
(-4.05147 30.0124 0)
(-3.43858 30.2945 0)
(-2.76896 30.6257 0)
(-2.07394 30.9884 2.0277e-16)
(-1.35648 31.3611 2.0769e-16)
(-0.61632 31.7203 -2.0785e-16)
(0.138787 32.049 0)
(0.897668 32.3308 2.13418e-16)
(1.6558 32.5536 0)
(2.40104 32.709 -2.37277e-18)
(3.12625 32.7948 2.13182e-16)
(3.85379 32.8136 -2.19843e-16)
(-7.14214 -0.531252 -1.76707e-16)
(-6.7827 0.140905 1.87013e-16)
(-6.42674 0.812302 -1.88525e-16)
(-6.06193 1.47365 1.59705e-18)
(-5.69369 2.12568 1.92791e-16)
(-5.32593 2.77065 0)
(-4.96004 3.40951 0)
(-4.59766 4.04813 0)
(-4.23866 4.69069 0)
(-3.88302 5.33999 3.95268e-16)
(-3.52986 5.99728 0)
(-3.17636 6.65657 0)
(-2.81089 7.2942 0)
(-2.42589 7.88969 -2.03486e-16)
(-2.01938 8.43562 0)
(-1.59087 8.92527 4.18861e-16)
(-1.14287 9.34791 0)
(-0.677825 9.69346 0)
(-0.202117 9.95325 0)
(0.290832 10.1199 -2.16721e-16)
(0.796287 10.1876 -2.17689e-16)
(1.28372 10.1523 2.24995e-16)
(-5.91358 14.4282 1.90621e-16)
(-5.83167 14.6207 0)
(-5.69892 14.8177 0)
(-5.53578 15.0201 -4.10505e-16)
(-5.34401 15.2296 -8.96458e-19)
(-5.11494 15.4517 -2.06933e-16)
(-4.85006 15.6797 -4.15731e-16)
(-4.55401 15.9066 0)
(-4.21746 16.14 -4.18996e-16)
(-3.84135 16.3804 -1.78008e-18)
(-3.42344 16.6278 -4.21117e-16)
(-2.96642 16.8762 4.22337e-16)
(-2.49193 17.1163 0)
(-2.0199 17.3414 0)
(-1.55127 17.5495 0)
(-1.08612 17.7383 2.21313e-16)
(-0.62517 17.9058 0)
(-0.169385 18.0499 0)
(0.276365 18.1695 0)
(0.708787 18.2648 0)
(1.12848 18.3366 0)
(1.55059 18.3893 0)
(-5.03107 1.61628 0)
(-4.8771 1.98147 0)
(-4.72205 2.35605 2.1024e-16)
(-4.55828 2.73797 -7.35182e-19)
(-4.38829 3.12723 2.13135e-16)
(-4.21116 3.5238 6.39307e-16)
(-4.02548 3.92993 4.26948e-16)
(-3.83052 4.34135 0)
(-3.62645 4.75505 4.29868e-16)
(-3.41171 5.17009 -4.31073e-16)
(-3.18515 5.58441 4.31474e-16)
(-2.94444 5.99173 1.40969e-18)
(-2.6881 6.37539 0)
(-2.41566 6.72361 0)
(-2.12826 7.03458 0)
(-1.82791 7.30734 1.43428e-18)
(-1.51623 7.54105 0)
(-1.19476 7.73482 0)
(-0.865021 7.88763 0)
(-0.528434 7.99868 0)
(-0.189261 8.06664 0)
(0.148594 8.08577 0)
(-4.37358 8.18921 0)
(-4.32223 8.33002 2.25956e-16)
(-4.2432 8.47533 -4.5405e-16)
(-4.14977 8.62524 2.28015e-16)
(-4.04015 8.77998 -4.57415e-16)
(-3.91219 8.93982 -8.60677e-19)
(-3.7642 9.10501 -4.58876e-16)
(-3.59467 9.27582 0)
(-3.4027 9.45134 0)
(-3.18625 9.6284 0)
(-2.94332 9.80497 0)
(-2.67654 9.97906 -4.62206e-16)
(-2.39827 10.1446 0)
(-2.11953 10.2967 0)
(-1.84152 10.4343 0)
(-1.56486 10.5567 -4.80424e-16)
(-1.29043 10.6637 0)
(-1.01925 10.7555 -4.85631e-16)
(-0.752523 10.833 -4.88047e-16)
(-0.491666 10.8975 2.45034e-16)
(-0.236627 10.9515 0)
(0.0212354 10.9985 2.54223e-16)
(-3.55361 2.25565 0)
(-3.49772 2.50429 -4.84863e-16)
(-3.43486 2.75656 2.42805e-16)
(-3.36459 3.00979 0)
(-3.28831 3.2643 0)
(-3.20543 3.52034 -4.8802e-16)
(-3.1151 3.77785 4.88509e-16)
(-3.01646 4.03647 -4.89553e-16)
(-2.90808 4.29566 4.89726e-16)
(-2.7887 4.55427 0)
(-2.65771 4.81008 0)
(-2.51372 5.0589 0)
(-2.35606 5.29135 0)
(-2.18566 5.50136 0)
(-2.00383 5.68886 -5.02913e-16)
(-1.81226 5.85426 0)
(-1.61232 5.99785 0)
(-1.40534 6.11984 5.1107e-16)
(-1.19247 6.22027 5.13204e-16)
(-0.974858 6.29893 -2.57462e-16)
(-0.754742 6.35528 -2.5844e-16)
(-0.535198 6.38809 -2.66833e-16)
(-2.97869 5.15188 0)
(-2.96343 5.24083 2.65347e-16)
(-2.92822 5.33736 0)
(-2.88396 5.44042 5.30732e-16)
(-2.82972 5.54924 0)
(-2.76421 5.66325 0)
(-2.68701 5.78154 0)
(-2.59704 5.90175 5.30178e-16)
(-2.49327 6.02227 -5.29562e-16)
(-2.37506 6.14286 5.28438e-16)
(-2.24126 6.26296 0)
(-2.09282 6.38056 5.25973e-16)
(-1.93637 6.49113 0)
(-1.77779 6.59156 -5.3695e-16)
(-1.61772 6.68155 5.41078e-16)
(-1.45652 6.76105 0)
(-1.2947 6.83034 5.47023e-16)