/*--------------------------------*- C++ -*----------------------------------*\
  =========                 |
  \\      /  F ield         | OpenFOAM: The Open Source CFD Toolbox
   \\    /   O peration     | Website:  https://openfoam.org
    \\  /    A nd           | Version:  8
     \\/     M anipulation  |
\*---------------------------------------------------------------------------*/
FoamFile
{
    version     2.0;
    format      ascii;
    class       volVectorField;
    location    "1700";
    object      U;
}
// * * * * * * * * * * * * * * * * * * * * * * * * * * * * * * * * * * * * * //

dimensions      [0 1 -1 0 0 0 0];

internalField   nonuniform List<vector> 
15677
(
(-2.53765 9.06508 0)
(0.791329 10.3666 0)
(0.128835 10.0153 0)
(0.00640706 10.0051 0)
(0.0282704 10.0104 0)
(0.0300683 10.0104 0)
(0.0275064 10.0096 0)
(0.0251495 10.0086 0)
(0.0229477 10.0075 0)
(0.0206672 10.0065 0)
(0.0183232 10.0054 0)
(0.0159762 10.0044 0)
(0.0136789 10.0036 0)
(0.0114945 10.0028 0)
(0.00963744 10.0022 0)
(0.00814383 10.0017 0)
(0.0069104 10.0014 0)
(0.0058835 10.0011 0)
(0.00502247 10.0009 0)
(0.00429675 10.0007 0)
(0.00368376 10.0006 0)
(0.00318296 10.0005 0)
(0.00278724 10.0004 0)
(0.00247289 10.0003 0)
(0.0022197 10.0003 0)
(0.00201304 10.0003 0)
(0.00184238 10.0002 0)
(0.00169999 10.0002 0)
(0.00158008 10.0002 0)
(0.00147826 10.0002 0)
(0.00139116 10.0002 0)
(0.0013162 10.0002 0)
(0.00125134 10.0001 0)
(0.00119453 10.0001 0)
(0.00114467 10.0001 0)
(-1.33221 8.26628 0)
(0.665867 10.1117 0)
(-0.0358596 10.0874 0)
(0.0130818 10.0516 0)
(0.0455087 10.0449 0)
(0.0398257 10.0408 0)
(0.0369487 10.0375 0)
(0.0352517 10.0344 0)
(0.0333532 10.0314 0)
(0.0312083 10.0282 0)
(0.0288911 10.025 0)
(0.0264226 10.0217 0)
(0.023831 10.0185 0)
(0.0211535 10.0154 0)
(0.018673 10.0128 0)
(0.0165025 10.0107 0)
(0.0145573 10.0091 0)
(0.0128146 10.0077 0)
(0.0112537 10.0066 0)
(0.00985607 10.0057 0)
(0.00860712 10.0049 0)
(0.00753983 10.0042 0)
(0.00666901 10.0038 0)
(0.00595889 10.0034 0)
(0.00537485 10.0031 0)
(0.00489051 10.0028 0)
(0.00448574 10.0026 0)
(0.00414497 10.0024 0)
(0.00385611 10.0023 0)
(0.00360971 10.0022 0)
(0.00339834 10.0021 0)
(0.0032162 10.002 0)
(0.00305856 10.0019 0)
(0.00292055 10.0019 0)
(0.00279906 10.0018 0)
(-0.415289 7.73538 0)
(0.294361 9.68014 0)
(-0.0468432 10.0468 0)
(0.0452018 10.0707 0)
(0.0439709 10.063 0)
(0.0376651 10.0572 0)
(0.0368584 10.0531 0)
(0.0357917 10.0496 0)
(0.0343105 10.0462 0)
(0.0326288 10.0428 0)
(0.0307433 10.0393 0)
(0.0286237 10.0355 0)
(0.0262686 10.0316 0)
(0.0237069 10.0275 0)
(0.0212294 10.0239 0)
(0.0189867 10.0209 0)
(0.0169134 10.0184 0)
(0.0150031 10.0162 0)
(0.0132484 10.0143 0)
(0.0116419 10.0126 0)
(0.0101775 10.0111 0)
(0.00890266 10.0099 0)
(0.00784435 10.0089 0)
(0.00696768 10.0081 0)
(0.00623712 10.0075 0)
(0.00562467 10.0069 0)
(0.0051082 10.0065 0)
(0.00467019 10.0061 0)
(0.00429676 10.0058 0)
(0.00397683 10.0055 0)
(0.00370156 10.0053 0)
(0.00346396 10.0051 0)
(0.00325825 10.0049 0)
(0.0030779 10.0047 0)
(0.00291671 10.0046 0)
(-0.0848124 7.35154 0)
(0.0985354 9.29159 0)
(-0.00443396 9.94021 0)
(0.0508026 10.0625 0)
(0.03839 10.0714 0)
(0.0371694 10.0682 0)
(0.0368755 10.0644 0)
(0.0356614 10.0608 0)
(0.0342419 10.0574 0)
(0.0326666 10.054 0)
(0.03087 10.0504 0)
(0.0288151 10.0466 0)
(0.0264792 10.0425 0)
(0.0238622 10.0381 0)
(0.0212634 10.0339 0)
(0.018876 10.0303 0)
(0.0166413 10.0272 0)
(0.0145623 10.0243 0)
(0.0126385 10.0218 0)
(0.0108679 10.0196 0)
(0.0092483 10.0175 0)
(0.00783778 10.0158 0)
(0.00667063 10.0143 0)
(0.00570871 10.0131 0)
(0.00491209 10.0121 0)
(0.00424906 10.0112 0)
(0.00369445 10.0105 0)
(0.00322825 10.0099 0)
(0.0028345 10.0093 0)
(0.00250049 10.0089 0)
(0.002216 10.0085 0)
(0.00197299 10.0082 0)
(0.00176492 10.0079 0)
(0.0015841 10.0076 0)
(0.00141991 10.0074 0)
(-0.00295729 7.08044 0)
(0.0303473 8.97585 0)
(0.0200042 9.80238 0)
(0.042116 10.0343 0)
(0.0346535 10.0735 0)
(0.0357022 10.0774 0)
(0.0349661 10.0752 0)
(0.0337112 10.072 0)
(0.0323248 10.0686 0)
(0.0307335 10.0652 0)
(0.0289017 10.0615 0)
(0.0268054 10.0576 0)
(0.0244164 10.0533 0)
(0.0217155 10.0486 0)
(0.0189915 10.044 0)
(0.0164577 10.0398 0)
(0.0140649 10.0361 0)
(0.011827 10.0326 0)
(0.00975228 10.0295 0)
(0.00784509 10.0266 0)
(0.00610818 10.0239 0)
(0.00460754 10.0216 0)
(0.00338001 10.0196 0)
(0.0023821 10.018 0)
(0.00156836 10.0165 0)
(0.000902519 10.0153 0)
(0.000355698 10.0143 0)
(-9.50575e-05 10.0135 0)
(-0.000467986 10.0127 0)
(-0.000777629 10.0121 0)
(-0.00103559 10.0115 0)
(-0.00125094 10.011 0)
(-0.00143089 10.0106 0)
(-0.00158392 10.0102 0)
(-0.00172703 10.0098 0)
(0.00796097 6.89222 0)
(0.0126103 8.71998 0)
(0.0253145 9.6531 0)
(0.0339018 9.99235 0)
(0.0322951 10.0692 0)
(0.0331487 10.0837 0)
(0.032177 10.0848 0)
(0.0309427 10.0827 0)
(0.0294662 10.0796 0)
(0.0277213 10.0763 0)
(0.0257063 10.0726 0)
(0.0234008 10.0686 0)
(0.0207769 10.0642 0)
(0.0178133 10.0592 0)
(0.014817 10.0543 0)
(0.0120229 10.0496 0)
(0.00938301 10.0453 0)
(0.00691914 10.0412 0)
(0.00464613 10.0374 0)
(0.00257394 10.0338 0)
(0.000709516 10.0304 0)
(-0.000875106 10.0274 0)
(-0.00214541 10.0248 0)
(-0.00315373 10.0226 0)
(-0.00395353 10.0208 0)
(-0.00458761 10.0191 0)
(-0.00509005 10.0178 0)
(-0.00548794 10.0166 0)
(-0.00580271 10.0155 0)
(-0.00605141 10.0146 0)
(-0.00624758 10.0138 0)
(-0.00640169 10.0131 0)
(-0.00652177 10.0125 0)
(-0.00661685 10.012 0)
(-0.00671281 10.0115 0)
(0.00557335 6.75971 0)
(0.00874672 8.51585 0)
(0.0228979 9.50805 0)
(0.0285608 9.94171 0)
(0.0298708 10.06 0)
(0.0301426 10.0882 0)
(0.0291599 10.094 0)
(0.0278184 10.0936 0)
(0.0261007 10.0912 0)
(0.0240513 10.0881 0)
(0.0216797 10.0845 0)
(0.0189681 10.0804 0)
(0.0158923 10.0758 0)
(0.0124359 10.0706 0)
(0.00895551 10.0652 0)
(0.00572058 10.06 0)
(0.00267814 10.0551 0)
(-0.000143591 10.0502 0)
(-0.00272299 10.0456 0)
(-0.00504438 10.0412 0)
(-0.00709632 10.037 0)
(-0.00879909 10.0332 0)
(-0.0101236 10.0299 0)
(-0.011137 10.027 0)
(-0.0119055 10.0245 0)
(-0.0124823 10.0224 0)
(-0.0129095 10.0205 0)
(-0.0132205 10.0189 0)
(-0.0134416 10.0175 0)
(-0.0135935 10.0163 0)
(-0.0136926 10.0152 0)
(-0.0137512 10.0143 0)
(-0.0137787 10.0134 0)
(-0.0137843 10.0127 0)
(-0.0138062 10.012 0)
(0.00297249 6.66408 0)
(0.00730249 8.35775 0)
(0.0188365 9.37472 0)
(0.0246605 9.88747 0)
(0.0269331 10.0487 0)
(0.0268576 10.0923 0)
(0.0258078 10.1039 0)
(0.0241953 10.1059 0)
(0.0220971 10.1044 0)
(0.0195868 10.1016 0)
(0.0166764 10.098 0)
(0.0133534 10.0938 0)
(0.0095993 10.089 0)
(0.00540587 10.0834 0)
(0.00120892 10.0774 0)
(-0.00267104 10.0716 0)
(-0.00629756 10.0658 0)
(-0.00963504 10.0601 0)
(-0.0126542 10.0546 0)
(-0.0153325 10.0492 0)
(-0.0176531 10.0439 0)
(-0.0195256 10.039 0)
(-0.020929 10.0348 0)
(-0.0219515 10.0311 0)
(-0.0226777 10.0278 0)
(-0.0231755 10.025 0)
(-0.0234985 10.0226 0)
(-0.0236889 10.0204 0)
(-0.0237799 10.0185 0)
(-0.0237973 10.0169 0)
(-0.0237614 10.0154 0)
(-0.0236876 10.0141 0)
(-0.0235866 10.013 0)
(-0.0234678 10.012 0)
(-0.0233865 10.011 0)
(0.00159263 6.59544 0)
(0.00593632 8.23743 0)
(0.014968 9.25792 0)
(0.0210969 9.83313 0)
(0.0235088 10.0372 0)
(0.0232259 10.0974 0)
(0.0219294 10.1156 0)
(0.0198916 10.1202 0)
(0.0172624 10.1199 0)
(0.014116 10.1175 0)
(0.0104668 10.114 0)
(0.00630661 10.1096 0)
(0.00162216 10.1044 0)
(-0.00358455 10.0982 0)
(-0.00876516 10.0916 0)
(-0.0135278 10.0849 0)
(-0.0179515 10.0781 0)
(-0.021992 10.0713 0)
(-0.0256106 10.0645 0)
(-0.0287768 10.0578 0)
(-0.0314666 10.0512 0)
(-0.0335747 10.0451 0)
(-0.0350912 10.0396 0)
(-0.0361322 10.0348 0)
(-0.0368074 10.0306 0)
(-0.0372041 10.0269 0)
(-0.0373914 10.0237 0)
(-0.0374237 10.0209 0)
(-0.0373433 10.0184 0)
(-0.0371833 10.0162 0)
(-0.0369691 10.0142 0)
(-0.0367201 10.0125 0)
(-0.036449 10.0109 0)
(-0.0361651 10.0096 0)
(-0.0359471 10.0083 0)
(0.000856136 6.54629 0)
(0.00445455 8.14766 0)
(0.0114957 9.16179 0)
(0.0173923 9.78217 0)
(0.0196426 10.0272 0)
(0.0191012 10.1047 0)
(0.0173605 10.1297 0)
(0.0147352 10.1374 0)
(0.011397 10.1384 0)
(0.00741283 10.1365 0)
(0.00279727 10.133 0)
(-0.00245697 10.1283 0)
(-0.00835948 10.1227 0)
(-0.0148965 10.1158 0)
(-0.0213706 10.1082 0)
(-0.0272944 10.1004 0)
(-0.0327676 10.0924 0)
(-0.0377347 10.0842 0)
(-0.0421456 10.0759 0)
(-0.0459593 10.0675 0)
(-0.0491426 10.0592 0)
(-0.0515703 10.0514 0)
(-0.0532454 10.0444 0)
(-0.0543208 10.0383 0)
(-0.0549382 10.0328 0)
(-0.0552108 10.0281 0)
(-0.0552281 10.0238 0)
(-0.0550602 10.0201 0)
(-0.0547618 10.0168 0)
(-0.054375 10.0139 0)
(-0.0539326 10.0113 0)
(-0.0534589 10.009 0)
(-0.0529692 10.007 0)
(-0.0524726 10.0051 0)
(-0.0520796 10.0035 0)
(0.000277396 6.51569 0)
(0.00288107 8.0829 0)
(0.0082258 9.08643 0)
(0.0134177 9.73755 0)
(0.0153159 10.0203 0)
(0.0143381 10.1153 0)
(0.0119563 10.1475 0)
(0.00855539 10.1583 0)
(0.0042978 10.1607 0)
(-0.000758751 10.1592 0)
(-0.00660397 10.1557 0)
(-0.0132483 10.1508 0)
(-0.0206999 10.1445 0)
(-0.0289325 10.1366 0)
(-0.0370589 10.1278 0)
(-0.0444688 10.1187 0)
(-0.0512879 10.1091 0)
(-0.0574465 10.0991 0)
(-0.06288 10.0889 0)
(-0.067534 10.0786 0)
(-0.0713634 10.0682 0)
(-0.0742159 10.0583 0)
(-0.0761096 10.0494 0)
(-0.0772437 10.0415 0)
(-0.0778007 10.0345 0)
(-0.0779267 10.0283 0)
(-0.0777373 10.0228 0)
(-0.077323 10.018 0)
(-0.0767541 10.0137 0)
(-0.076085 10.0099 0)
(-0.0753573 10.0065 0)
(-0.0746023 10.0034 0)
(-0.0738385 10.0008 0)
(-0.0730742 9.9984 0)
(-0.0724627 9.99629 0)
(-0.000244316 6.50221 0)
(0.00127998 8.0395 0)
(0.00502976 9.03129 0)
(0.00914956 9.70208 0)
(0.0104589 10.0181 0)
(0.0088228 10.1303 0)
(0.0055962 10.1697 0)
(0.00119907 10.1837 0)
(-0.00422297 10.1875 0)
(-0.0106234 10.1865 0)
(-0.0180021 10.183 0)
(-0.0263776 10.1775 0)
(-0.0357591 10.1704 0)
(-0.0461078 10.1614 0)
(-0.0563009 10.1511 0)
(-0.0655738 10.1403 0)
(-0.0740853 10.1288 0)
(-0.0817471 10.1167 0)
(-0.0884768 10.1042 0)
(-0.0942028 10.0913 0)
(-0.0988646 10.0784 0)
(-0.102274 10.0659 0)
(-0.104465 10.0546 0)
(-0.105694 10.0446 0)
(-0.106196 10.0356 0)
(-0.106155 10.0277 0)
(-0.105722 10.0206 0)
(-0.105013 10.0144 0)
(-0.104117 10.0088 0)
(-0.103104 10.0038 0)
(-0.102029 9.99943 0)
(-0.100929 9.99553 0)
(-0.0998284 9.99206 0)
(-0.0987342 9.98898 0)
(-0.0978563 9.98625 0)
(-0.00069262 6.50269 0)
(-0.000294234 8.01653 0)
(0.00180353 8.99578 0)
(0.00456267 9.67783 0)
(0.00499956 10.0223 0)
(0.00246692 10.1509 0)
(-0.00183366 10.1973 0)
(-0.00747929 10.2144 0)
(-0.0143425 10.2196 0)
(-0.0223941 10.2191 0)
(-0.031651 10.2154 0)
(-0.0421439 10.2094 0)
(-0.0538872 10.2013 0)
(-0.0668299 10.1908 0)
(-0.0795628 10.1787 0)
(-0.0911321 10.1658 0)
(-0.101737 10.152 0)
(-0.111266 10.1373 0)
(-0.119615 10.122 0)
(-0.12669 10.1062 0)
(-0.132412 10.09 0)
(-0.136543 10.0745 0)
(-0.139136 10.0603 0)
(-0.140516 10.0476 0)
(-0.140977 10.0363 0)
(-0.140758 10.0261 0)
(-0.140048 10.0171 0)
(-0.138994 10.0091 0)
(-0.137713 10.002 0)
(-0.136292 9.99562 0)
(-0.1348 9.98998 0)
(-0.133287 9.98496 0)
(-0.131781 9.98051 0)
(-0.130288 9.97657 0)
(-0.129092 9.97307 0)
(-0.00114971 6.51503 0)
(-0.00193657 8.01287 0)
(-0.00158043 8.97955 0)
(-0.000421543 9.66659 0)
(-0.00115602 10.0342 0)
(-0.00484104 10.1781 0)
(-0.0104685 10.2312 0)
(-0.0176355 10.2513 0)
(-0.0262407 10.2578 0)
(-0.0362792 10.2577 0)
(-0.0477918 10.2537 0)
(-0.0608281 10.247 0)
(-0.0754112 10.2377 0)
(-0.0914809 10.2255 0)
(-0.107285 10.2112 0)
(-0.12164 10.1959 0)
(-0.134796 10.1793 0)
(-0.146613 10.1615 0)
(-0.156959 10.1429 0)
(-0.165714 10.1235 0)
(-0.172771 10.1036 0)
(-0.177832 10.0842 0)
(-0.180964 10.0666 0)
(-0.182573 10.0507 0)
(-0.183029 10.0364 0)
(-0.182631 10.0237 0)
(-0.181618 10.0123 0)
(-0.180176 10.0022 0)
(-0.178452 9.99311 0)
(-0.176557 9.98505 0)
(-0.174578 9.97788 0)
(-0.172579 9.97151 0)
(-0.170595 9.96586 0)
(-0.16863 9.96086 0)
(-0.167063 9.95643 0)
(-0.00169025 6.53985 0)
(-0.00374684 8.02713 0)
(-0.00520457 8.98187 0)
(-0.00586088 9.6693 0)
(-0.00807081 10.0551 0)
(-0.0131844 10.2128 0)
(-0.02041 10.2723 0)
(-0.0293891 10.2951 0)
(-0.0400576 10.3028 0)
(-0.0524454 10.3029 0)
(-0.0666219 10.2986 0)
(-0.0826627 10.291 0)
(-0.100608 10.2803 0)
(-0.120388 10.2661 0)
(-0.139851 10.2493 0)
(-0.157542 10.2311 0)
(-0.173766 10.2113 0)
(-0.188354 10.1899 0)
(-0.201137 10.1673 0)
(-0.211961 10.1437 0)
(-0.220687 10.1194 0)
(-0.226938 10.0956 0)
(-0.230789 10.0738 0)
(-0.232741 10.054 0)
(-0.233253 10.0363 0)
(-0.232697 10.0204 0)
(-0.231369 10.0062 0)
(-0.229504 9.99345 0)
(-0.227286 9.9821 0)
(-0.224855 9.97198 0)
(-0.222322 9.96298 0)
(-0.219765 9.95498 0)
(-0.217226 9.94788 0)
(-0.214712 9.94159 0)
(-0.212721 9.93603 0)
(-0.00231398 6.57756 0)
(-0.00576048 8.05797 0)
(-0.00910362 9.00208 0)
(-0.0117879 9.68683 0)
(-0.0157719 10.0863 0)
(-0.0225997 10.256 0)
(-0.0317082 10.3212 0)
(-0.0428045 10.3465 0)
(-0.0558765 10.3551 0)
(-0.0709966 10.3554 0)
(-0.0882724 10.3506 0)
(-0.107812 10.342 0)
(-0.129677 10.3297 0)
(-0.153803 10.3132 0)
(-0.177571 10.2935 0)
(-0.199203 10.272 0)
(-0.219075 10.2485 0)
(-0.236978 10.223 0)
(-0.2527 10.1959 0)
(-0.26605 10.1674 0)
(-0.276844 10.1379 0)
(-0.284605 10.1089 0)
(-0.289408 10.0822 0)
(-0.291861 10.0579 0)
(-0.292526 10.0361 0)
(-0.29186 10.0164 0)
(-0.290229 9.9988 0)
(-0.287926 9.98303 0)
(-0.285176 9.96894 0)
(-0.282158 9.95637 0)
(-0.279006 9.94518 0)
(-0.275823 9.93522 0)
(-0.272658 9.92639 0)
(-0.269518 9.91855 0)
(-0.267057 9.91163 0)
(-0.00301357 6.62837 0)
(-0.00797429 8.10494 0)
(-0.0133079 9.03936 0)
(-0.0182123 9.71935 0)
(-0.0242618 10.1284 0)
(-0.0330891 10.3083 0)
(-0.0443705 10.3784 0)
(-0.0578978 10.406 0)
(-0.0737248 10.4154 0)
(-0.0919758 10.4157 0)
(-0.112804 10.4103 0)
(-0.136359 10.4005 0)
(-0.162742 10.3864 0)
(-0.191888 10.3674 0)
(-0.220645 10.3444 0)
(-0.246872 10.3193 0)
(-0.271029 10.2915 0)
(-0.292856 10.2614 0)
(-0.312092 10.2291 0)
(-0.328498 10.1951 0)
(-0.341838 10.1596 0)
(-0.351503 10.1246 0)
(-0.357557 10.0922 0)
(-0.360727 10.0627 0)
(-0.361691 10.036 0)
(-0.361004 10.012 0)
(-0.359115 9.99041 0)
(-0.356382 9.97105 0)
(-0.353085 9.95372 0)
(-0.349443 9.93825 0)
(-0.345625 9.92447 0)
(-0.341757 9.9122 0)
(-0.337899 9.9013 0)
(-0.334063 9.89164 0)
(-0.331094 9.8831 0)
(-0.0037778 6.69215 0)
(-0.0103661 8.16718 0)
(-0.0178149 9.09318 0)
(-0.0251236 9.76704 0)
(-0.033512 10.1821 0)
(-0.0446222 10.3701 0)
(-0.0583633 10.4445 0)
(-0.0746383 10.4739 0)
(-0.0935756 10.4839 0)
(-0.115359 10.4841 0)
(-0.140202 10.478 0)
(-0.168309 10.467 0)
(-0.199815 10.4509 0)
(-0.234676 10.429 0)
(-0.269154 10.4025 0)
(-0.30068 10.3733 0)
(-0.329814 10.3409 0)
(-0.35624 10.3056 0)
(-0.379641 10.2675 0)
(-0.399715 10.2272 0)
(-0.416166 10.185 0)
(-0.428218 10.1432 0)
(-0.435901 10.1043 0)
(-0.440073 10.0688 0)
(-0.441543 10.0366 0)
(-0.440977 10.0075 0)
(-0.43892 9.98128 0)
(-0.435805 9.95773 0)
(-0.431975 9.93663 0)
(-0.427699 9.91777 0)
(-0.423186 9.90095 0)
(-0.418592 9.88597 0)
(-0.413987 9.87265 0)
(-0.409396 9.86083 0)
(-0.405895 9.85037 0)
(-0.00459387 6.76851 0)
(-0.0129268 8.24417 0)
(-0.0226164 9.16272 0)
(-0.032496 9.8296 0)
(-0.0434692 10.2477 0)
(-0.0571309 10.4418 0)
(-0.0736127 10.5197 0)
(-0.0929428 10.5506 0)
(-0.115335 10.561 0)
(-0.141053 10.561 0)
(-0.170372 10.5541 0)
(-0.203553 10.5416 0)
(-0.240794 10.5234 0)
(-0.282092 10.4985 0)
(-0.32305 10.4682 0)
(-0.360621 10.4346 0)
(-0.395474 10.3972 0)
(-0.427236 10.3561 0)
(-0.45552 10.3118 0)
(-0.479958 10.2645 0)
(-0.500174 10.2148 0)
(-0.51519 10.1653 0)
(-0.524972 10.1192 0)
(-0.530516 10.0768 0)
(-0.532774 10.0383 0)
(-0.53254 10.0034 0)
(-0.530462 9.97182 0)
(-0.527063 9.94345 0)
(-0.522759 9.91799 0)
(-0.517876 9.89521 0)
(-0.51267 9.87486 0)
(-0.507333 9.85672 0)
(-0.50195 9.84058 0)
(-0.496561 9.82624 0)
(-0.49253 9.81354 0)
(-0.00545248 6.85695 0)
(-0.0156378 8.3351 0)
(-0.0276974 9.24725 0)
(-0.0402907 9.90657 0)
(-0.0540599 10.3251 0)
(-0.0705178 10.5235 0)
(-0.0899989 10.6041 0)
(-0.112677 10.636 0)
(-0.138861 10.6468 0)
(-0.16889 10.6464 0)
(-0.20312 10.6386 0)
(-0.241893 10.6247 0)
(-0.285483 10.6043 0)
(-0.33394 10.5762 0)
(-0.382146 10.5418 0)
(-0.426528 10.5036 0)
(-0.467882 10.4608 0)
(-0.505769 10.4136 0)
(-0.539727 10.3624 0)
(-0.569306 10.3076 0)
(-0.594041 10.2497 0)
(-0.612704 10.1917 0)
(-0.625159 10.1374 0)
(-0.632541 10.0874 0)
(-0.63596 10.0417 0)
(-0.636347 10.0002 0)
(-0.634468 9.9626 0)
(-0.630947 9.92873 0)
(-0.626282 9.89829 0)
(-0.620866 9.871 0)
(-0.615012 9.84659 0)
(-0.608952 9.82481 0)
(-0.602785 9.8054 0)
(-0.596582 9.78814 0)
(-0.592053 9.77284 0)
(-0.00633643 6.95677 0)
(-0.0184803 8.43923 0)
(-0.0330056 9.3458 0)
(-0.0484431 9.99712 0)
(-0.0651739 10.414 0)
(-0.0846527 10.615 0)
(-0.107373 10.6975 0)
(-0.133664 10.7302 0)
(-0.163938 10.7411 0)
(-0.198631 10.7403 0)
(-0.238189 10.7316 0)
(-0.283049 10.7161 0)
(-0.333576 10.6935 0)
(-0.389887 10.6622 0)
(-0.446107 10.6236 0)
(-0.498077 10.5805 0)
(-0.546743 10.5321 0)
(-0.59159 10.4784 0)
(-0.632074 10.4199 0)
(-0.667656 10.357 0)
(-0.697765 10.2902 0)
(-0.72087 10.2229 0)
(-0.736684 10.1597 0)
(-0.746482 10.1012 0)
(-0.751539 10.0476 0)
(-0.752933 9.99868 0)
(-0.751561 9.95433 0)
(-0.748158 9.91425 0)
(-0.743314 9.87815 0)
(-0.737501 9.84574 0)
(-0.731096 9.8167 0)
(-0.724378 9.79075 0)
(-0.717462 9.76759 0)
(-0.710466 9.74697 0)
(-0.705513 9.72867 0)
(-0.00723065 7.06709 0)
(-0.0214189 8.55557 0)
(-0.0384901 9.4572 0)
(-0.0568614 10.1004 0)
(-0.0767034 10.514 0)
(-0.0993805 10.716 0)
(-0.125542 10.7996 0)
(-0.155679 10.8328 0)
(-0.190312 10.8436 0)
(-0.229989 10.8424 0)
(-0.275257 10.8328 0)
(-0.326651 10.8159 0)
(-0.384655 10.791 0)
(-0.449486 10.7564 0)
(-0.514461 10.7136 0)
(-0.574794 10.6656 0)
(-0.631593 10.6114 0)
(-0.684268 10.551 0)
(-0.732184 10.4849 0)
(-0.774707 10.4134 0)
(-0.811146 10.3371 0)
(-0.839604 10.2599 0)
(-0.859585 10.1869 0)
(-0.872497 10.1192 0)
(-0.879784 10.0568 0)
(-0.882681 9.99975 0)
(-0.882225 9.94784 0)
(-0.879272 9.90082 0)
(-0.874516 9.85838 0)
(-0.868517 9.8202 0)
(-0.861724 9.78594 0)
(-0.854474 9.75526 0)
(-0.846896 9.72784 0)
(-0.839173 9.70337 0)
(-0.833921 9.68165 0)
(-0.00812397 7.18686 0)
(-0.0244122 8.68295 0)
(-0.044101 9.58032 0)
(-0.0654513 10.2153 0)
(-0.0885177 10.6242 0)
(-0.114528 10.8259 0)
(-0.144294 10.91 0)
(-0.178473 10.9434 0)
(-0.217695 10.9541 0)
(-0.262628 10.9524 0)
(-0.313927 10.9419 0)
(-0.372252 10.9236 0)
(-0.43822 10.8966 0)
(-0.512182 10.8588 0)
(-0.586615 10.8119 0)
(-0.656061 10.759 0)
(-0.721811 10.6989 0)
(-0.783194 10.6317 0)
(-0.839493 10.5577 0)
(-0.889962 10.4773 0)
(-0.933775 10.391 0)
(-0.968612 10.3033 0)
(-0.993692 10.2199 0)
(-1.01054 10.1422 0)
(-1.02078 10.0703 0)
(-1.0258 10.0044 0)
(-1.02678 9.94415 0)
(-1.02472 9.88946 0)
(-1.02041 9.83997 0)
(-1.01452 9.79536 0)
(-1.00759 9.75523 0)
(-1 9.71924 0)
(-0.991908 9.68701 0)
(-0.983584 9.65821 0)
(-0.978222 9.63258 0)
(-0.00900583 7.31496 0)
(-0.027425 8.82008 0)
(-0.0497688 9.71389 0)
(-0.0741292 10.3405 0)
(-0.100472 10.7438 0)
(-0.129915 10.944 0)
(-0.16341 11.028 0)
(-0.201776 11.0614 0)
(-0.245768 11.0719 0)
(-0.29617 11.0698 0)
(-0.353764 11.0585 0)
(-0.41935 11.0388 0)
(-0.4937 11.0098 0)
(-0.577334 10.9691 0)
(-0.661869 10.9182 0)
(-0.741135 10.8605 0)
(-0.816625 10.7946 0)
(-0.887604 10.7206 0)
(-0.953259 10.6388 0)
(-1.01273 10.5493 0)
(-1.06505 10.4527 0)
(-1.1074 10.354 0)
(-1.13863 10.2597 0)
(-1.16038 10.1713 0)
(-1.17441 10.0892 0)
(-1.1823 10.0136 0)
(-1.18537 9.94437 0)
(-1.18475 9.88128 0)
(-1.18137 9.82405 0)
(-1.176 9.77232 0)
(-1.16925 9.7257 0)
(-1.16161 9.68379 0)
(-1.15322 9.64618 0)
(-1.14449 9.61251 0)
(-1.13928 9.5825 0)
(-0.00986556 7.45014 0)
(-0.0304227 8.96561 0)
(-0.0554199 9.85648 0)
(-0.0827917 10.4747 0)
(-0.112426 10.8715 0)
(-0.145355 11.0694 0)
(-0.182655 11.1529 0)
(-0.225309 11.1861 0)
(-0.274194 11.1964 0)
(-0.330218 11.1938 0)
(-0.394305 11.1819 0)
(-0.467407 11.1611 0)
(-0.550477 11.1303 0)
(-0.644239 11.0869 0)
(-0.739442 11.0323 0)
(-0.829172 10.97 0)
(-0.915151 10.8986 0)
(-0.996592 10.818 0)
(-1.07258 10.7283 0)
(-1.14214 10.6298 0)
(-1.20416 10.5228 0)
(-1.25525 10.4127 0)
(-1.29381 10.307 0)
(-1.32154 10.2074 0)
(-1.34036 10.1146 0)
(-1.35199 10.0287 0)
(-1.35793 9.94973 0)
(-1.35944 9.87757 0)
(-1.35758 9.81192 0)
(-1.35323 9.75242 0)
(-1.34711 9.69866 0)
(-1.33979 9.65021 0)
(-1.33141 9.60665 0)
(-1.32254 9.56757 0)
(-1.31783 9.53266 0)
(-0.0106908 7.59111 0)
(-0.0333707 9.11813 0)
(-0.0609881 10.0066 0)
(-0.0913368 10.6166 0)
(-0.124245 11.0063 0)
(-0.160668 11.2011 0)
(-0.201804 11.2837 0)
(-0.248794 11.3166 0)
(-0.302633 11.3267 0)
(-0.36437 11.3238 0)
(-0.435076 11.3113 0)
(-0.515868 11.2896 0)
(-0.607903 11.2573 0)
(-0.712154 11.2115 0)
(-0.818496 11.1536 0)
(-0.919248 11.0872 0)
(-1.01641 11.0106 0)
(-1.10914 10.9237 0)
(-1.19641 10.8265 0)
(-1.27717 10.7191 0)
(-1.35014 10.6017 0)
(-1.41129 10.4802 0)
(-1.45846 10.3628 0)
(-1.49337 10.2517 0)
(-1.51809 10.1475 0)
(-1.5345 10.0508 0)
(-1.54422 9.96154 0)
(-1.54868 9.87968 0)
(-1.54905 9.80496 0)
(-1.54636 9.73705 0)
(-1.54143 9.67553 0)
(-1.53489 9.61996 0)
(-1.52692 9.56986 0)
(-1.51829 9.52484 0)
(-1.51451 9.48451 0)
(-0.011473 7.73656 0)
(-0.0362348 9.2762 0)
(-0.0664128 10.1628 0)
(-0.0996708 10.7646 0)
(-0.1358 11.147 0)
(-0.17568 11.3382 0)
(-0.220633 11.4195 0)
(-0.271957 11.4521 0)
(-0.33076 11.462 0)
(-0.398235 11.4589 0)
(-0.47561 11.446 0)
(-0.56418 11.4236 0)
(-0.665334 11.3902 0)
(-0.780323 11.3424 0)
(-0.898159 11.2817 0)
(-1.01041 11.2116 0)
(-1.11938 11.1304 0)
(-1.22414 11.0377 0)
(-1.32363 10.9334 0)
(-1.41668 10.8174 0)
(-1.50186 10.6899 0)
(-1.57445 10.5571 0)
(-1.63161 10.4279 0)
(-1.67503 10.305 0)
(-1.7069 10.1893 0)
(-1.72922 10.0812 0)
(-1.74378 9.98117 0)
(-1.75214 9.88906 0)
(-1.75561 9.80472 0)
(-1.75532 9.72782 0)
(-1.75225 9.65795 0)
(-1.7471 9.59467 0)
(-1.74004 9.53748 0)
(-1.7321 9.48597 0)
(-1.72981 9.43971 0)
(-0.0121997 7.88516 0)
(-0.0389806 9.43834 0)
(-0.0716332 10.3236 0)
(-0.107704 10.9175 0)
(-0.146965 11.2921 0)
(-0.190228 11.4794 0)
(-0.238942 11.5593 0)
(-0.294548 11.5914 0)
(-0.35827 11.6012 0)
(-0.431445 11.598 0)
(-0.515462 11.585 0)
(-0.611813 11.5622 0)
(-0.722139 11.528 0)
(-0.847997 11.4788 0)
(-0.977565 11.4158 0)
(-1.10169 11.3427 0)
(-1.22297 11.2575 0)
(-1.34045 11.1596 0)
(-1.45302 11.0488 0)
(-1.55942 10.9249 0)
(-1.6581 10.7876 0)
(-1.74355 10.6438 0)
(-1.81213 10.5031 0)
(-1.86549 10.3683 0)
(-1.90589 10.2408 0)
(-1.93544 10.1212 0)
(-1.95605 10.01 0)
(-1.9694 9.90715 0)
(-1.97697 9.81268 0)
(-1.98001 9.72627 0)
(-1.97961 9.64754 0)
(-1.97658 9.57603 0)
(-1.97108 9.51126 0)
(-1.96441 9.45278 0)
(-1.96429 9.40009 0)
(-0.0128751 8.03571 0)
(-0.0415928 9.60326 0)
(-0.0766095 10.4876 0)
(-0.115371 11.0738 0)
(-0.157644 11.4407 0)
(-0.20418 11.6237 0)
(-0.256558 11.7021 0)
(-0.316346 11.7338 0)
(-0.384884 11.7436 0)
(-0.463659 11.7404 0)
(-0.554221 11.7274 0)
(-0.658275 11.7046 0)
(-0.777725 11.67 0)
(-0.914455 11.6199 0)
(-1.05589 11.5552 0)
(-1.19216 11.4798 0)
(-1.32614 11.3913 0)
(-1.45691 11.2891 0)
(-1.58335 11.1726 0)
(-1.70412 11.0415 0)
(-1.81755 10.8953 0)
(-1.91732 10.741 0)
(-1.9989 10.589 0)
(-2.06376 10.4427 0)
(-2.1142 10.3034 0)
(-2.15242 10.1721 0)
(-2.18043 10.0494 0)
(-2.20008 9.9356 0)
(-2.21295 9.83063 0)
(-2.22044 9.73432 0)
(-2.22376 9.64629 0)
(-2.22382 9.5661 0)
(-2.22074 9.49328 0)
(-2.21615 9.42738 0)
(-2.21917 9.3678 0)
(-0.0134587 8.18683 0)
(-0.0439985 9.76936 0)
(-0.0812582 10.6533 0)
(-0.122575 11.232 0)
(-0.167725 11.5912 0)
(-0.217398 11.7698 0)
(-0.273312 11.8467 0)
(-0.337147 11.878 0)
(-0.410354 11.8878 0)
(-0.494574 11.8849 0)
(-0.591518 11.8722 0)
(-0.703118 11.8496 0)
(-0.831539 11.815 0)
(-0.979021 11.7645 0)
(-1.13234 11.699 0)
(-1.28086 11.622 0)
(-1.42783 11.5311 0)
(-1.57237 11.4254 0)
(-1.71336 11.3042 0)
(-1.84945 11.1668 0)
(-1.97887 11.0126 0)
(-2.09445 10.8487 0)
(-2.1906 10.6861 0)
(-2.2686 10.5285 0)
(-2.33076 10.3776 0)
(-2.37938 10.2347 0)
(-2.41658 10.1006 0)
(-2.4443 9.97577 0)
(-2.46421 9.86025 0)
(-2.47777 9.7539 0)
(-2.48632 9.65641 0)
(-2.4908 9.56734 0)
(-2.4913 9.48625 0)
(-2.4898 9.41271 0)
(-2.49704 9.34592 0)
(0.00108566 10.0001 0)
(0.00101135 10.0001 0)
(0.000940384 10.0001 0)
(0.000871623 10.0001 -7.55683e-19)
(0.000804922 10.0001 0)
(0.000740356 10.0001 0)
(0.000677976 10.0001 0)
(0.000617805 10.0001 0)
(0.000559852 10.0001 8.56315e-19)
(0.000504124 10.0001 0)
(0.000450679 10.0001 0)
(0.000399889 10 -9.03368e-19)
(0.000352724 10 0)
(0.000309674 10 -8.81797e-19)
(0.00027018 10 0)
(0.000233779 10 0)
(0.000200074 10 0)
(0.000168719 10 8.21659e-19)
(0.00013942 10 0)
(0.000111927 10 3.95709e-19)
(8.58773e-05 10 0)
(6.08193e-05 10 0)
(0.00266037 10.0017 0)
(0.00248116 10.0016 0)
(0.00230932 10.0016 0)
(0.00214214 10.0015 7.97292e-19)
(0.00197895 10.0014 0)
(0.0018199 10.0013 0)
(0.00166515 10.0012 -1.71883e-18)
(0.00151476 10.0011 0)
(0.00136878 10.0011 -2.7085e-18)
(0.00122721 10.001 1.84997e-18)
(0.0010901 10.0009 1.88922e-18)
(0.000958396 10.0009 9.52262e-19)
(0.000835053 10.0008 0)
(0.000721865 10.0008 9.29823e-19)
(0.000617504 10.0007 0)
(0.000520842 10.0007 0)
(0.000430932 10.0007 0)
(0.000346949 10.0006 -2.60063e-18)
(0.000268167 10.0006 0)
(0.000193945 10.0006 -4.17621e-19)
(0.00012361 10.0006 0)
(5.70595e-05 10.0006 -8.46542e-19)
(0.00274617 10.0044 0)
(0.00253145 10.0042 0)
(0.00232652 10.004 0)
(0.0021289 10.0038 0)
(0.0019374 10.0036 0)
(0.0017522 10.0033 1.76134e-18)
(0.0015735 10.0032 1.8056e-18)
(0.00140137 10.003 0)
(0.00123583 10.0028 1.89526e-18)
(0.00107687 10.0026 -1.94108e-18)
(0.000924508 10.0024 -1.98147e-18)
(0.00077955 10.0023 0)
(0.000644738 10.0022 0)
(0.000521738 10.002 0)
(0.000408805 10.0019 1.91879e-18)
(0.000304533 10.0018 0)
(0.000207758 10.0018 0)
(0.000117467 10.0017 1.8216e-18)
(3.27618e-05 10.0016 0)
(-4.72159e-05 10.0016 0)
(-0.000123281 10.0015 0)
(-0.000193993 10.0015 8.90172e-19)
(0.00126831 10.0071 0)
(0.0010905 10.0067 0)
(0.00092092 10.0063 0)
(0.000761696 10.006 -1.76115e-18)
(0.000611188 10.0056 0)
(0.000469402 10.0053 1.84934e-18)
(0.000336498 10.005 0)
(0.000212497 10.0047 0)
(9.73227e-05 10.0044 0)
(-9.15902e-06 10.0041 0)
(-0.000107065 10.0038 -4.15278e-18)
(-0.000196187 10.0035 0)
(-0.000275498 10.0033 0)
(-0.000344418 10.0031 0)
(-0.000404948 10.0029 2.01259e-18)
(-0.000458658 10.0028 3.95916e-18)
(-0.000506807 10.0027 0)
(-0.000550464 10.0025 0)
(-0.000590563 10.0024 0)
(-0.000628027 10.0024 0)
(-0.000663856 10.0023 1.81088e-18)
(-0.000695568 10.0022 0)
(-0.00182041 10.0094 -3.12727e-18)
(-0.00189571 10.0088 0)
(-0.00196702 10.0083 -3.61006e-18)
(-0.0020232 10.0078 1.85003e-18)
(-0.00206623 10.0072 0)
(-0.00209646 10.0068 -3.88307e-18)
(-0.00211386 10.0063 -3.97619e-18)
(-0.00211853 10.0058 -4.07101e-18)
(-0.00211072 10.0054 0)
(-0.0020908 10.005 0)
(-0.00205915 10.0046 4.34929e-18)
(-0.00201688 10.0042 0)
(-0.00196699 10.0039 0)
(-0.00191161 10.0036 0)
(-0.00185291 10.0034 -8.44025e-18)
(-0.00179248 10.0032 -4.15214e-18)
(-0.00173157 10.003 0)
(-0.00167119 10.0028 -4.01447e-18)
(-0.00161216 10.0027 0)
(-0.00155534 10.0026 3.87507e-18)
(-0.00150209 10.0025 -1.90246e-18)
(-0.00144939 10.0024 0)
(-0.0067049 10.0108 3.28733e-18)
(-0.006602 10.0101 -3.69877e-18)
(-0.00650386 10.0094 7.58009e-18)
(-0.00638381 10.0086 3.8826e-18)
(-0.00624408 10.008 0)
(-0.00608567 10.0073 0)
(-0.0059088 10.0066 4.16833e-18)
(-0.00571379 10.006 4.26597e-18)
(-0.00550117 10.0054 0)
(-0.00527166 10.0049 0)
(-0.00502607 10.0044 0)
(-0.00476762 10.0039 0)
(-0.00450574 10.0035 0)
(-0.00424698 10.0031 4.49022e-18)
(-0.0039936 10.0028 4.42116e-18)
(-0.00374718 10.0025 -4.35247e-18)
(-0.00350882 10.0023 0)
(-0.00327939 10.0021 4.2108e-18)
(-0.00305945 10.002 0)
(-0.00284961 10.0019 6.59552e-22)
(-0.00265201 10.0018 3.99605e-18)
(-0.00246441 10.0017 -4.12826e-18)
(-0.0136489 10.0111 -3.45415e-18)
(-0.0132784 10.0102 3.88269e-18)
(-0.0129277 10.0092 -3.977e-18)
(-0.0125457 10.0083 6.38145e-22)
(-0.0121351 10.0074 4.17043e-18)
(-0.0116977 10.0065 0)
(-0.0112343 10.0057 0)
(-0.0107454 10.0049 0)
(-0.0102322 10.0041 0)
(-0.00969577 10.0034 9.34477e-18)
(-0.0091377 10.0028 0)
(-0.0085642 10.0022 0)
(-0.00799402 10.0017 0)
(-0.00744013 10.0012 -4.69867e-18)
(-0.00690479 10.0009 0)
(-0.00638945 10.0006 9.11891e-18)
(-0.00589498 10.0003 0)
(-0.00542193 10.0001 0)
(-0.00497043 9.99996 0)
(-0.00454063 9.99984 -4.26794e-18)
(-0.00413592 9.99976 -4.19378e-18)
(-0.00375686 9.99971 4.33243e-18)
(-0.0230228 10.0099 3.62647e-18)
(-0.0222747 10.0087 0)
(-0.0215702 10.0075 0)
(-0.0208223 10.0063 -8.53952e-18)
(-0.0200335 10.0051 1.76846e-21)
(-0.0192076 10.004 -4.47216e-18)
(-0.0183459 10.003 -9.14909e-18)
(-0.0174495 10.002 0)
(-0.0165202 10.0011 -9.5638e-18)
(-0.01556 10.0002 5.12991e-21)
(-0.0145713 9.99944 -9.95481e-18)
(-0.0135647 9.99873 1.00235e-17)
(-0.0125716 9.99811 0)
(-0.0116137 9.9976 0)
(-0.0106933 9.99718 0)
(-0.00981133 9.99684 4.77848e-18)
(-0.00896843 9.99658 0)
(-0.0081646 9.99638 0)
(-0.00739925 9.99623 0)
(-0.00667174 9.99614 0)
(-0.00598739 9.9961 0)
(-0.00535217 9.99609 0)
(-0.0353077 10.0069 0)
(-0.0340441 10.0053 0)
(-0.0328605 10.0038 4.37364e-18)
(-0.0316175 10.0023 -2.8394e-21)
(-0.0303184 10.0009 4.5822e-18)
(-0.028969 9.9995 1.4047e-17)
(-0.0275718 9.99822 9.57013e-18)
(-0.0261287 9.99701 0)
(-0.0246423 9.99588 9.99412e-18)
(-0.0231161 9.99484 -1.02076e-17)
(-0.0215537 9.9939 1.0392e-17)
(-0.0199712 9.99307 8.82466e-21)
(-0.0184172 9.99237 0)
(-0.0169248 9.99179 0)
(-0.0154959 9.99134 0)
(-0.0141312 9.99099 8.6022e-21)
(-0.0128303 9.99073 0)
(-0.0115926 9.99055 0)
(-0.0104165 9.99045 0)
(-0.00930008 9.99041 0)
(-0.00825132 9.99043 0)
(-0.007285 9.9905 0)
(-0.0510797 10.0017 0)
(-0.0491292 9.99971 4.4776e-18)
(-0.0473119 9.99779 -9.1597e-18)
(-0.0454149 9.99594 4.68291e-18)
(-0.0434428 9.99417 -9.57803e-18)
(-0.0414044 9.9925 1.00379e-20)
(-0.0393038 9.99093 -1.00181e-17)
(-0.0371439 9.98946 0)
(-0.0349291 9.9881 0)
(-0.0326641 9.98687 0)
(-0.0303546 9.98577 0)
(-0.0280242 9.98481 -1.09179e-17)
(-0.0257433 9.98402 0)
(-0.02356 9.9834 0)
(-0.0214756 9.98293 0)
(-0.0194896 9.98259 -1.04482e-17)
(-0.017601 9.98237 0)
(-0.0158077 9.98225 -1.01597e-17)
(-0.0141067 9.98222 -1.0005e-17)
(-0.0124942 9.98228 4.92392e-18)
(-0.0109819 9.9824 0)
(-0.00959746 9.98259 5.00397e-18)