/*--------------------------------*- C++ -*----------------------------------*\
  =========                 |
  \\      /  F ield         | OpenFOAM: The Open Source CFD Toolbox
   \\    /   O peration     | Website:  https://openfoam.org
    \\  /    A nd           | Version:  8
     \\/     M anipulation  |
\*---------------------------------------------------------------------------*/
FoamFile
{
    version     2.0;
    format      ascii;
    class       volScalarField;
    location    "0.07";
    object      nut;
}
// * * * * * * * * * * * * * * * * * * * * * * * * * * * * * * * * * * * * * //

dimensions      [0 2 -1 0 0 0 0];

internalField   nonuniform List<scalar> 
15677
(
0.000168252
0.000653022
0.000148416
0.00151374
0.000442451
0.000141507
0.00267551
0.000875787
0.000381135
0.000142375
0.00392132
0.00151887
0.000686593
0.000354236
0.000145458
0.00502431
0.00235604
0.00114629
0.000585594
0.000340247
0.000151204
0.00584083
0.00331725
0.00178058
0.000947657
0.000529265
0.00033201
0.000156999
0.00633514
0.00429854
0.00256736
0.0014631
0.000820818
0.000492475
0.000326994
0.000162436
0.00656291
0.0051876
0.00345258
0.00213126
0.001257
0.000737195
0.000467461
0.000324116
0.000167217
0.00665848
0.00589343
0.00435506
0.00292169
0.00184118
0.00111217
0.000677365
0.000450457
0.000322563
0.000171435
0.00670551
0.00633831
0.00518066
0.00377849
0.0025565
0.00163152
0.00100452
0.000634113
0.000438743
0.000321998
0.000174998
0.00671438
0.00655353
0.00584523
0.00462482
0.00336225
0.00228609
0.00147248
0.000924193
0.000602252
0.000430807
0.000321956
0.000178126
0.00670992
0.00666157
0.0062956
0.00537677
0.00419648
0.00304478
0.00207749
0.00134893
0.000862295
0.000578651
0.000425378
0.000322425
0.000180731
0.00670629
0.00669878
0.00652954
0.00596424
0.00498383
0.00385679
0.00279534
0.00191153
0.00125127
0.000814215
0.000560973
0.000421882
0.000323073
0.00018308
0.00670543
0.00670439
0.00664678
0.00635685
0.00564983
0.0046554
0.00358292
0.00259325
0.0017778
0.00117313
0.000776538
0.000547801
0.000419574
0.000323978
0.000185124
0.00670549
0.00670284
0.00668788
0.00656292
0.00614192
0.00536814
0.00438093
0.00335658
0.00242783
0.00166822
0.0011099
0.0007468
0.000537787
0.000418332
0.000324828
0.000186935
0.00670568
0.00670157
0.00669642
0.00665657
0.00644669
0.00593348
0.00512074
0.00414828
0.00316837
0.00229004
0.00157815
0.00105828
0.000723249
0.000530521
0.000417474
0.000325876
0.000188587
0.00670579
0.00670106
0.0066972
0.0066849
0.00660482
0.00632171
0.00573731
0.00490363
0.00395087
0.00300944
0.00217521
0.0015032
0.00101656
0.000704803
0.000524887
0.000417349
0.000326806
0.000190001
0.00670585
0.0067009
0.00669685
0.00669161
0.00666374
0.00654124
0.00618819
0.00555684
0.00471438
0.00378161
0.00287532
0.00207851
0.00144132
0.000982602
0.000690125
0.000521027
0.000417293
0.000327893
0.000191429
0.00670587
0.00670086
0.00669661
0.00669262
0.00668239
0.00663453
0.00646778
0.006058
0.00539381
0.00454888
0.00363677
0.00276124
0.00199762
0.00139002
0.000955099
0.000678808
0.000518008
0.000417827
0.000328864
0.000192546
0.00670588
0.00670084
0.00669652
0.00669249
0.00668745
0.00666904
0.00659803
0.00638957
0.00593496
0.00524739
0.00440483
0.00351236
0.00266477
0.00192989
0.00134796
0.000932986
0.000669935
0.000516288
0.000418243
0.00032995
0.000193874
0.00670589
0.00670082
0.0066965
0.00669231
0.00668848
0.00668061
0.00665149
0.00655628
0.00631105
0.00582032
0.00511708
0.00427953
0.0034061
0.00258346
0.00187386
0.00131363
0.000915523
0.000663384
0.000514942
0.000419198
0.000330978
0.000194764
0.00670589
0.00670081
0.0066965
0.00669221
0.00668854
0.0066839
0.00667188
0.0066304
0.00651136
0.00623369
0.00571525
0.00500185
0.00417143
0.00331608
0.00251568
0.00182793
0.00128623
0.000901866
0.000658557
0.000514704
0.000419914
0.000332027
0.000196081
0.00670589
0.0067008
0.00669649
0.00669215
0.00668847
0.00668459
0.00667884
0.00666128
0.00660625
0.00646569
0.0061606
0.00562054
0.00490132
0.0040792
0.00324042
0.00246004
0.0017911
0.00126478
0.000891936
0.000655436
0.000514466
0.000421164
0.000333191
0.000196812
0.00670589
0.0067008
0.00669649
0.00669212
0.00668841
0.00668461
0.0066809
0.00667296
0.0066488
0.00658108
0.00641956
0.00609351
0.00553657
0.00481441
0.00400114
0.00317859
0.00241554
0.00176272
0.00124892
0.000884601
0.000653557
0.000515367
0.000422092
0.000334108
0.000198132
0.00670588
0.0067008
0.00669648
0.00669209
0.00668838
0.00668451
0.00668138
0.0066769
0.00666636
0.00663553
0.00655424
0.00637739
0.00603169
0.00546263
0.00474107
0.00393805
0.00312913
0.00238121
0.00174129
0.00123757
0.00088063
0.000653066
0.000515854
0.000423606
0.000335601
0.000198837
0.00670587
0.0067008
0.00669647
0.00669208
0.00668836
0.00668442
0.00668141
0.00667801
0.00667298
0.00665932
0.00662104
0.00652977
0.00633592
0.00597754
0.0054016
0.00468156
0.00388623
0.00309063
0.00235596
0.00172809
0.00123199
0.000878572
0.000653571
0.000517816
0.000424637
0.000336383
5.33944e-05
0.00670587
0.00670081
0.00669646
0.00669207
0.00668834
0.00668436
0.00668136
0.00667819
0.00667521
0.00666888
0.00665186
0.00660788
0.00650469
0.00630303
0.0059326
0.00534884
0.00463211
0.00384964
0.00306669
0.00234273
0.00172177
0.00122934
0.000879437
0.000655403
0.00051898
0.000427077
0.000284006
6.34647e-05
0.00670586
0.00670082
0.00669645
0.00669207
0.00668833
0.00668432
0.00668131
0.00667812
0.00667583
0.00667235
0.00666506
0.00664527
0.00659446
0.0064862
0.00626951
0.00589238
0.00531282
0.00460414
0.00382775
0.00305222
0.00233548
0.00172013
0.001231
0.000881958
0.000657452
0.000521502
0.000420824
0.000219942
7.09715e-05
0.00670585
0.00670083
0.00669643
0.00669207
0.00668831
0.00668429
0.00668126
0.00667801
0.00667592
0.00667339
0.00667026
0.00666194
0.00663909
0.00658551
0.00646673
0.00624846
0.00587335
0.00528969
0.00458292
0.0038134
0.00304578
0.00233509
0.00172424
0.00123649
0.000886115
0.000660641
0.000522802
0.000401331
0.000178274
7.65393e-05
0.00670585
0.00670084
0.00669642
0.00669207
0.00668828
0.00668427
0.00668122
0.00667792
0.00667587
0.00667355
0.00667209
0.00666881
0.00665985
0.00663612
0.00657668
0.00645804
0.00624069
0.0058576
0.00527401
0.00457153
0.00381001
0.00304979
0.00234382
0.00173474
0.00124516
0.000892396
0.000664716
0.000521101
0.000368749
0.000152644
8.1093e-05
0.00670584
0.00670085
0.00669641
0.00669208
0.00668826
0.00668427
0.00668118
0.00667785
0.0066758
0.00667346
0.00667258
0.00667129
0.00666887
0.00666031
0.00663436
0.00657779
0.00645734
0.00623524
0.00585001
0.00527044
0.00457579
0.00382137
0.00306536
0.00236085
0.0017502
0.00125759
0.000900369
0.000668574
0.00051566
0.000337642
0.000134176
8.46446e-05
0.00670583
0.00670086
0.0066964
0.00669208
0.00668824
0.00668427
0.00668115
0.0066778
0.00667572
0.00667332
0.00667264
0.00667195
0.00667248
0.00667109
0.00666282
0.00664197
0.00658192
0.00646188
0.00623768
0.00585799
0.00528428
0.00459507
0.00384503
0.00309096
0.0023853
0.00177091
0.00127294
0.00090981
0.000672447
0.00050504
0.000307575
0.000121085
8.7202e-05
0.00670583
0.00670087
0.00669639
0.00669209
0.00668821
0.00668428
0.00668111
0.00667777
0.00667565
0.00667319
0.00667258
0.00667198
0.00667367
0.00667544
0.00667604
0.00667449
0.00664969
0.00659275
0.0064741
0.00625653
0.00588197
0.00531279
0.00462841
0.00388092
0.00312643
0.0024171
0.00179614
0.00129165
0.000920574
0.000674986
0.000490446
0.000281552
0.000112484
8.9125e-05
0.00670582
0.00670088
0.00669638
0.0066921
0.00668819
0.00668429
0.00668107
0.00667775
0.00667557
0.00667309
0.00667248
0.00667183
0.00667396
0.00667685
0.00668181
0.00669
0.00668448
0.00666492
0.00661415
0.00650128
0.00628991
0.00592106
0.00535699
0.00467597
0.00392907
0.00317162
0.00245593
0.00182614
0.00131275
0.000932461
0.000676475
0.000474324
0.00026185
0.000106625
9.06427e-05
0.00670088
0.00670582
0.00669637
0.0066921
0.00668817
0.0066843
0.00668103
0.00667775
0.0066755
0.00667302
0.00667237
0.00667165
0.00667395
0.00667713
0.00668396
0.00669695
0.0067014
0.00670264
0.00669287
0.00664792
0.00654282
0.00633865
0.00597691
0.005417
0.00473802
0.00398949
0.00322645
0.00250172
0.00186032
0.00133698
0.000947041
0.000677363
0.000460263
0.000246738
0.000102491
9.1895e-05
0.00669636
0.00670091
0.00670583
0.00669211
0.00668815
0.00668431
0.00668099
0.00667775
0.00667542
0.00667297
0.00667226
0.00667148
0.00667385
0.00667704
0.00668465
0.00669966
0.00670919
0.00672144
0.00673506
0.00673145
0.00669599
0.00660016
0.00640538
0.00605013
0.00549401
0.004815
0.0040621
0.00329066
0.00255416
0.00189883
0.00136628
0.000964505
0.000678246
0.000448269
0.000235078
9.95308e-05
9.29723e-05
0.00669211
0.00669638
0.00670095
0.00670583
0.00668814
0.00668433
0.00668096
0.00667776
0.00667535
0.00667294
0.00667214
0.00667134
0.00667373
0.00667682
0.0066848
0.00670057
0.00671242
0.00673043
0.00675684
0.0067772
0.00678469
0.0067601
0.006676
0.0064909
0.00614254
0.00558857
0.0049066
0.00414685
0.00336413
0.00261303
0.00194644
0.00140159
0.000983455
0.000679437
0.000438552
0.00022586
9.73411e-05
9.39254e-05
0.00668812
0.00669215
0.00669641
0.00670099
0.00670584
0.00668434
0.00668093
0.00667777
0.00667528
0.00667293
0.00667202
0.00667124
0.0066736
0.00667658
0.00668477
0.00670079
0.00671364
0.00673442
0.00676782
0.00680157
0.00683449
0.00685426
0.00684325
0.00677098
0.00659715
0.00625422
0.00570131
0.00501389
0.00424356
0.00344635
0.00268538
0.00200537
0.00143944
0.00100334
0.000682248
0.00043062
0.00021856
9.57315e-05
9.4792e-05
0.00668435
0.00668815
0.00669223
0.00669645
0.00670103
0.00670584
0.0066809
0.00667779
0.00667521
0.00667294
0.0066719
0.00667118
0.00667346
0.00667636
0.00668468
0.00670077
0.00671409
0.00673617
0.00677311
0.00681442
0.00686193
0.00690796
0.00694268
0.00694563
0.0068876
0.00672366
0.00638611
0.00583239
0.00513611
0.0043518
0.0035475
0.00277435
0.00206935
0.0014799
0.00102506
0.000685951
0.000424466
0.000212589
9.4493e-05
9.55875e-05
0.00668088
0.00668441
0.00668821
0.0066923
0.0066965
0.00670107
0.00670585
0.0066778
0.00667515
0.00667295
0.00667178
0.00667115
0.00667331
0.00667617
0.00668458
0.00670065
0.00671422
0.006737
0.0067758
0.00682132
0.00687788
0.00693998
0.0070033
0.00705298
0.00707059
0.0070243
0.00687144
0.00653758
0.00598019
0.00527438
0.0044852
0.00367123
0.00287129
0.0021382
0.00152222
0.00104726
0.000690863
0.000419641
0.000207638
9.35679e-05
9.63306e-05
0.00667781
0.0066809
0.00668452
0.00668827
0.00669238
0.00669654
0.00670111
0.00670585
0.00667509
0.00667296
0.00667166
0.00667115
0.00667314
0.00667603
0.00668448
0.00670051
0.00671424
0.00673745
0.00677736
0.00682524
0.00688723
0.00695945
0.00704074
0.00712124
0.00718961
0.00722135
0.00718575
0.00703824
0.00670702
0.00614485
0.00544269
0.00465034
0.00380725
0.00297523
0.00221115
0.00156708
0.00106948
0.000697143
0.000416061
0.000203508
9.28323e-05
9.70226e-05
0.00667505
0.00667788
0.00668097
0.00668463
0.00668834
0.00669245
0.00669659
0.00670115
0.00670586
0.00667298
0.00667155
0.00667118
0.00667296
0.00667595
0.00668439
0.00670036
0.00671422
0.00673773
0.00677838
0.00682786
0.00689327
0.00697194
0.00706545
0.00716551
0.00726708
0.00735237
0.00740038
0.00737427
0.00722835
0.0068932
0.0063432
0.00564719
0.00482926
0.00395299
0.00308545
0.00228767
0.00161386
0.00109255
0.000704296
0.000413549
0.000200009
9.22803e-05
9.76765e-05
0.006673
0.00667504
0.00667801
0.00668105
0.00668475
0.00668842
0.00669253
0.00669664
0.00670119
0.00670587
0.00667145
0.00667122
0.00667277
0.00667593
0.00668429
0.00670023
0.00671418
0.00673793
0.00677914
0.00682987
0.00689771
0.00698078
0.00708299
0.00719694
0.00732069
0.00744138
0.00754597
0.00760689
0.00758981
0.00744425
0.00711998
0.00658114
0.00586558
0.00501812
0.00410643
0.0032008
0.00236719
0.00166216
0.00111626
0.000712208
0.000411982
0.000197065
9.18291e-05
9.82869e-05
0.00667136
0.00667307
0.00667508
0.00667815
0.00668114
0.00668486
0.00668849
0.00669261
0.00669669
0.00670123
0.00670588
0.00667126
0.00667257
0.00667597
0.00668417
0.0067001
0.00671414
0.0067381
0.00677977
0.00683155
0.0069013
0.00698781
0.00709654
0.00722096
0.00736184
0.00750694
0.00765011
0.0077702
0.00784349
0.00783172
0.00771152
0.00740282
0.00683346
0.00609273
0.00521464
0.00426543
0.00332005
0.00244894
0.00171166
0.00114022
0.000720276
0.00041114
0.000194529
9.14934e-05
9.88665e-05
0.00667131
0.00667128
0.00667319
0.00667513
0.00667828
0.00668123
0.00668498
0.00668858
0.00669268
0.00669675
0.00670127
0.00670589
0.00667238
0.00667606
0.006684
0.00669999
0.00671411
0.00673826
0.00678031
0.00683303
0.00690436
0.00699387
0.0071079
0.00724055
0.00739582
0.0075607
0.00773174
0.00789301
0.00802895
0.00811063
0.00813062
0.00803996
0.00771391
0.00710749
0.00632625
0.0054149
0.00442755
0.0034418
0.00253231
0.00176192
0.00116475
0.000728476
0.000410841
0.000192378
9.12126e-05
9.94061e-05
0.0066722
0.00667136
0.0066712
0.00667332
0.00667519
0.00667841
0.00668134
0.00668509
0.00668867
0.00669276
0.00669681
0.00670131
0.0067059
0.00667619
0.00668378
0.0066999
0.00671409
0.00673841
0.0067808
0.00683436
0.00690706
0.00699928
0.00711786
0.00725762
0.00742518
0.00760748
0.00780287
0.00799497
0.0081759
0.008323
0.00844291
0.00850103
0.00839839
0.00804537
0.0073993
0.006569
0.00561671
0.00459128
0.00356506
0.00261656
0.00181262
0.00118961
0.000736827
0.000410979
0.000190494
9.10083e-05
9.99195e-05
0.00667634
0.00667189
0.00667143
0.00667112
0.00667345
0.00667527
0.00667855
0.00668145
0.0066852
0.00668876
0.00669283
0.00669687
0.00670135
0.00670592
0.00668349
0.00669986
0.0067141
0.00673856
0.00678127
0.00683558
0.00690948
0.0070042
0.00712676
0.00727308
0.00745162
0.00764908
0.00786801
0.00808879
0.00830477
0.0084997
0.00869184
0.00885849
0.00890855
0.00878376
0.00839434
0.00770312
0.00682161
0.00581952
0.00475496
0.00368826
0.00270102
0.00186343
0.00121462
0.000745232
0.000411512
0.000188894
9.08345e-05
0.000100395
0.00668315
0.00667637
0.0066714
0.0066715
0.00667107
0.00667357
0.00667536
0.00667867
0.00668157
0.00668531
0.00668886
0.00669291
0.00669694
0.00670139
0.00670593
0.00669988
0.00671415
0.00673873
0.0067817
0.00683668
0.00691167
0.00700869
0.00713481
0.00728733
0.00747584
0.00768715
0.00792833
0.00817835
0.00842869
0.00866221
0.00891036
0.00915884
0.00932088
0.00935108
0.00919321
0.00875807
0.00801461
0.00708066
0.00602267
0.00491626
0.00381042
0.00278502
0.00191403
0.00123958
0.000753709
0.000412148
0.000187477
9.07136e-05
0.000100849
0.00670001
0.00668208
0.00667632
0.00667092
0.00667156
0.00667105
0.00667368
0.00667547
0.00667879
0.00668171
0.00668542
0.00668897
0.00669299
0.00669701
0.00670142
0.00670594
0.00671422
0.00673891
0.0067821
0.00683768
0.00691366
0.0070128
0.00714214
0.00730054
0.00749811
0.00772264
0.00798526
0.00826291
0.00855034
0.00882525
0.00912245
0.00943816
0.00968588
0.00983021
0.00982768
0.00962505
0.00913428
0.00833173
0.0073431
0.00622877
0.0050751
0.00393074
0.00286806
0.00196414
0.00126438
0.000762135
0.000412934
0.000186297
9.061e-05
0.000101267
0.00671431
0.00669963
0.0066801
0.00667631
0.00667048
0.00667161
0.00667106
0.00667378
0.0066756
0.00667891
0.00668185
0.00668552
0.00668908
0.00669306
0.00669707
0.00670146
0.00670595
0.00673908
0.00678245
0.00683858
0.00691548
0.00701654
0.00714882
0.00731277
0.00751859
0.00775602
0.00803922
0.00834294
0.00866783
0.00899241
0.00934525
0.00972311
0.0100445
0.0102791
0.0103913
0.0103407
0.0100793
0.00952157
0.00865285
0.00760527
0.00643546
0.0052313
0.00404881
0.00294968
0.0020135
0.00128885
0.000770594
0.000413831
0.000185225
9.05434e-05
0.000101666
0.00673927
0.00671332
0.00669882
0.00667812
0.00667625
0.00667013
0.00667161
0.00667113
0.00667386
0.00667576
0.00667902
0.00668201
0.00668563
0.00668919
0.00669314
0.00669714
0.00670149
0.00670596
0.00678273
0.00683939
0.00691713
0.00701996
0.00715494
0.00732405
0.00753744
0.00778746
0.00809004
0.00841891
0.00878262
0.00916026
0.00957917
0.0100331
0.0104319
0.0107522
0.0109578
0.0110163
0.0108958
0.0105574
0.00991926
0.00897662
0.00786614
0.00664095
0.00538407
0.00416379
0.00302938
0.00206187
0.0013129
0.000778947
0.000414777
0.000184338
9.04863e-05
0.000102032
0.00678298
0.00673755
0.00671114
0.006698
0.00667649
0.00667605
0.00666991
0.00667156
0.00667124
0.00667392
0.00667594
0.00667914
0.00668217
0.00668574
0.0066893
0.00669321
0.0066972
0.00670152
0.00670598
0.00684011
0.00691864
0.00702306
0.00716054
0.00733442
0.00755478
0.00781699
0.00813754
0.00849137
0.00889558
0.00932708
0.0098125
0.0103711
0.0108869
0.0113106
0.0116085
0.0117501
0.0117188
0.0114983
0.0110606
0.0103268
0.00930198
0.00812481
0.00684409
0.00553389
0.00427494
0.00310682
0.00210906
0.00133642
0.000787238
0.000415778
0.000183534
9.04558e-05
0.000102383
0.00684079
0.00678001
0.00673377
0.00670889
0.00669676
0.00667539
0.00667564
0.00666982
0.00667145
0.0066714
0.00667397
0.00667613
0.00667925
0.00668232
0.00668585
0.0066894
0.00669328
0.00669725
0.00670155
0.00670599
0.00692001
0.00702588
0.00716565
0.00734392
0.00757075
0.00784455
0.00818175
0.00856077
0.00900595
0.00948981
0.0100432
0.0107379
0.0114426
0.0120317
0.0124367
0.0126508
0.0126706
0.0125031
0.0121483
0.0115878
0.0107431
0.00962788
0.00838046
0.00704341
0.00568149
0.00438236
0.00318178
0.0021549
0.00135935
0.000795304
0.000416792
0.00018282
9.04296e-05
0.000102663
0.0069213
0.00683689
0.00677357
0.00672998
0.00670666
0.006695
0.00667477
0.00667502
0.00666988
0.00667129
0.0066716
0.00667402
0.00667633
0.00667937
0.00668248
0.00668595
0.0066895
0.00669335
0.00669731
0.00670159
0.006706
0.00702844
0.00717032
0.00735258
0.00758543
0.00787014
0.00822284
0.00862719
0.00911211
0.0096463
0.0102772
0.0111514
0.0121084
0.0129555
0.0135273
0.0138127
0.013862
0.0137011
0.0133559
0.012838
0.0121349
0.011166
0.00995306
0.00863232
0.00723773
0.00582593
0.00448602
0.00325411
0.00219927
0.0013816
0.000803211
0.000417822
0.000182195
9.04208e-05
0.000102898
0.0070308
0.00691587
0.00682802
0.00676701
0.00672638
0.00670442
0.00669285
0.00667459
0.00667422
0.00667004
0.0066711
0.00667182
0.00667408
0.00667652
0.00667949
0.00668262
0.00668606
0.00668959
0.00669343
0.00669736
0.00670162
0.00670601
0.00717457
0.00736047
0.0075989
0.00789375
0.00826098
0.00869035
0.00921258
0.00979703
0.0105235
0.0116221
0.012872
0.0140128
0.0148387
0.0152577
0.0153354
0.0151669
0.0147931
0.0142488
0.013552
0.0126943
0.0115921
0.010276
0.00887956
0.00742671
0.00596655
0.00458589
0.00332372
0.00224207
0.00140312
0.000810924
0.000418879
0.000181703
9.0418e-05
0.000103152
0.00717846
0.00702344
0.00690303
0.00681926
0.00676064
0.00672301
0.00670225
0.00669015
0.00667475
0.0066733
0.00667028
0.00667092
0.00667205
0.00667415
0.0066767
0.00667961
0.00668275
0.00668616
0.00668968
0.0066935
0.00669741
0.00670165
0.00670602
0.00736763
0.0076112
0.00791544
0.00829634
0.00874984
0.00930672
0.00994422
0.0107873
0.0121401
0.013685
0.0150978
0.0161708
0.0168158
0.0170131
0.0168605
0.0164707
0.015887
0.0151467
0.0142713
0.0132564
0.0120174
0.010595
0.00912134
0.00761001
0.00610288
0.00468192
0.00339052
0.00228325
0.00142388
0.000818371
0.000419782
0.000181321
9.04173e-05
0.000103429
0.00737411
0.00716853
0.00700517
0.00689021
0.00681077
0.00675461
0.00671985
0.00670072
0.00668711
0.0066751
0.00667237
0.00667052
0.00667077
0.00667225
0.00667425
0.00667686
0.00667974
0.00668288
0.00668627
0.00668977
0.00669357
0.00669746
0.00670168
0.00670602
0.00762244
0.00793527
0.008329
0.00880531
0.00939472
0.0100902
0.0110671
0.0126802
0.0144848
0.0161091
0.017369
0.0182146
0.0186337
0.0186233
0.018273
0.0176958
0.0169316
0.0160172
0.0149768
0.0138111
0.0124371
0.010908
0.00935685
0.00778735
0.00623456
0.00477406
0.00345451
0.00232275
0.00144385
0.000824613
0.000420571
0.000180904
9.04247e-05
0.000103728
0.0076326
0.00736122
0.0071428
0.00698687
0.00687771
0.00680253
0.00674888
0.0067168
0.00669958
0.00668398
0.00667549
0.00667151
0.00667073
0.00667069
0.00667242
0.00667436
0.00667701
0.00667988
0.006683
0.00668637
0.00668985
0.00669363
0.00669751
0.00670169
0.00670602
0.00795337
0.00835906
0.00885663
0.00947724
0.0102359
0.0113558
0.0132134
0.0152211
0.0169824
0.0183538
0.0193323
0.0199375
0.0201667
0.0200031
0.0195109
0.0187957
0.0178924
0.0168359
0.0156527
0.0143494
0.0128468
0.0112131
0.00958531
0.00795843
0.00636135
0.0048623
0.00351566
0.00236056
0.00146047
0.000829979
0.000421468
0.0001805
9.04362e-05
0.000104056
0.00796958
0.00761581
0.00732564
0.00711703
0.00696896
0.00686555
0.0067945
0.00674331
0.00671397
0.00669858
0.00668099
0.00667576
0.00667082
0.00667085
0.00667068
0.00667256
0.0066745
0.00667715
0.00668002
0.00668311
0.00668648
0.00668993
0.0066937
0.00669754
0.00670169
0.00670602
0.00838665
0.00890385
0.00955508
0.010381
0.0116433
0.0137163
0.0158655
0.0176941
0.0191082
0.0201497
0.020871
0.0212909
0.0213907
0.0211334
0.0205553
0.0197516
0.0187518
0.017588
0.0162879
0.0148639
0.0132428
0.0115087
0.00980601
0.00812301
0.00648307
0.00494665
0.00357401
0.00239189
0.00147472
0.000835949
0.000422489
0.00018005
9.04567e-05
0.000104411
0.00841135
0.00794845
0.00756698
0.00728995
0.00709178
0.00695151
0.00685371
0.00678658
0.00673803
0.00671129
0.00669759
0.00667838
0.00667575
0.00667038
0.00667087
0.00667074
0.00667266
0.00667465
0.00667727
0.00668016
0.00668321
0.00668658
0.00669001
0.00669374
0.00669754
0.00670169
0.00670602
0.00894726
0.00962884
0.0105238
0.0119202
0.0141741
0.0164087
0.0182496
0.0196524
0.0206991
0.0214703
0.0220067
0.0223063
0.0223321
0.0220306
0.021413
0.0205633
0.0195051
0.0182665
0.0168754
0.0153494
0.0136217
0.0117931
0.0100183
0.0082809
0.00659964
0.00502713
0.00362208
0.00241864
0.00149048
0.000842587
0.000423651
0.000179627
9.04836e-05
0.0001048
0.00898594
0.00838448
0.00788235
0.00751804
0.00725495
0.00706717
0.0069345
0.00684212
0.00677875
0.00673317
0.00670865
0.00669648
0.0066766
0.00667541
0.00667016
0.00667081
0.00667086
0.00667275
0.00667481
0.00667739
0.0066803
0.00668332
0.00668668
0.00669005
0.00669374
0.00669753
0.00670169
0.00670602
0.00969891
0.010662
0.0121795
0.0145805
0.0168548
0.0186682
0.0200222
0.0210317
0.0218001
0.0223873
0.0228082
0.0230407
0.0230346
0.0227256
0.0221034
0.021241
0.0201557
0.0188705
0.0174125
0.0158029
0.0139814
0.0120652
0.0102217
0.00843196
0.00671097
0.00509406
0.003663
0.00244814
0.00150795
0.000850008
0.000424982
0.000179145
9.0522e-05
0.000105221
0.00976294
0.00895241
0.00829505
0.00781601
0.00747
0.00722076
0.00704316
0.0069179
0.00683079
0.00677094
0.00672856
0.00670596
0.00669463
0.00667567
0.00667478
0.00667013
0.00667071
0.00667101
0.00667282
0.00667497
0.0066775
0.00668043
0.00668342
0.00668674
0.00669004
0.00669374
0.00669753
0.00670169
0.00670602
0.010794
0.0124206
0.0149351
0.0172142
0.0189742
0.0202558
0.0211997
0.0219272
0.0225138
0.0229899
0.0233479
0.0235516
0.0235432
0.0232518
0.0226501
0.0217999
0.0207116
0.019403
0.0178989
0.0162228
0.0143204
0.0123242
0.0104159
0.00857609
0.00680289
0.00515134
0.00370797
0.00248069
0.00152735
0.000858292
0.000426497
0.000178711
9.05717e-05
0.000105684
0.0109127
0.00972059
0.00883042
0.00820557
0.00775081
0.00742306
0.00718739
0.00701974
0.00690172
0.00681973
0.00676328
0.00672413
0.0067033
0.00669216
0.00667537
0.00667399
0.00667022
0.00667057
0.00667117
0.00667289
0.00667514
0.0066776
0.00668057
0.00668346
0.00668674
0.00669004
0.00669374
0.00669754
0.00670169
0.00670602
0.0126438
0.0152389
0.0175
0.0191912
0.020387
0.0212482
0.0219093
0.022458
0.0229382
0.0233558
0.0236875
0.0238882
0.0238973
0.0236407
0.0230765
0.022256
0.0211831
0.0198694
0.0183364
0.016609
0.014638
0.0125694
0.0106006
0.00869514
0.0068812
0.00521461
0.00375747
0.00251668
0.00154893
0.000867599
0.000428247
0.000178193
9.06356e-05
0.000106182
0.0108652
0.0128397
0.00954119
0.00871051
0.00811746
0.00768703
0.00737719
0.00715482
0.00699693
0.00688598
0.00680904
0.00675576
0.00672005
0.00670086
0.0066891
0.00667544
0.00667315
0.00667036
0.00667044
0.00667135
0.00667295
0.0066753
0.00667771
0.00668064
0.00668345
0.00668674
0.00669004
0.00669374
0.00669754
0.00670168
0.00670601
0.0154952
0.017725
0.0193397
0.0204437
0.0212131
0.0217919
0.0222772
0.0227237
0.0231503
0.0235454
0.023875
0.0240902
0.0241301
0.0239193
0.0234038
0.0226252
0.0215807
0.0202758
0.0187281
0.0169625
0.0149341
0.0128007
0.0107525
0.00879659
0.00696733
0.00528457
0.00381208
0.00255653
0.00157299
0.000878036
0.000430239
0.00017774
9.07184e-05
0.00010673
0.0105923
0.0127879
0.0157068
0.0093693
0.0085933
0.00803105
0.00762468
0.00733238
0.00712309
0.00697476
0.00687076
0.0067989
0.00674859
0.00671643
0.00669937
0.00668595
0.00667566
0.00667235
0.00667051
0.00667033
0.00667152
0.00667302
0.00667547
0.00667775
0.00668065
0.00668345
0.00668674
0.00669004
0.00669374
0.00669751
0.00670165
0.006706
0.0179009
0.0194367
0.0204475
0.0211216
0.0216095
0.0220147
0.0224008
0.0227981
0.0232069
0.0236032
0.0239469
0.0241883
0.0242681
0.0241103
0.0236507
0.0229218
0.0219146
0.0206287
0.0190775
0.0172849
0.015209
0.0129893
0.0108817
0.00890809
0.00706218
0.00536205
0.00387244
0.00260076
0.00159988
0.000889825
0.000432565
0.000177179
9.08188e-05
0.000107317
0.0103217
0.0124121
0.0156292
0.0180357
0.00920676
0.00847823
0.00794648
0.00756374
0.00728869
0.00709224
0.00695329
0.00685613
0.00678934
0.00674207
0.00671318
0.00669822
0.006683
0.00667586
0.00667166
0.00667064
0.00667025
0.00667169
0.00667309
0.00667556
0.00667773
0.00668066
0.00668345
0.00668674
0.00669005
0.0066937
0.00669746
0.00670162
0.00670599
0.0194952
0.0204149
0.020994
0.0213873
0.0217027
0.02201
0.0223497
0.0227336
0.0231484
0.0235616
0.0239304
0.0242064
0.0243324
0.0242324
0.0238328
0.0231582
0.0221942
0.0209347
0.0193885
0.0175779
0.0154296
0.0131486
0.0110231
0.00903076
0.00716676
0.00544797
0.00393931
0.00264994
0.00163001
0.000903121
0.000435219
0.000176723
9.09501e-05
0.000107963
0.0100674
0.0119985
0.0152793
0.0179226
0.019519
0.00905112
0.00836505
0.00786382
0.00750427
0.0072462
0.00706233
0.00693257
0.0068422
0.00678043
0.00673609
0.00671034
0.00669718
0.00668042
0.00667593
0.0066711
0.00667074
0.0066702
0.00667185
0.00667311
0.00667558
0.00667772
0.00668066
0.00668345
0.00668674
0.00669001
0.00669363
0.00669741
0.00670158
0.00670598
0.0203579
0.0208448
0.0211435
0.0213641
0.0215811
0.0218428
0.022172
0.0225668
0.0230033
0.0234439
0.0238459
0.0241631
0.0243401
0.0243006
0.023963
0.0233452
0.0224278
0.0211997
0.019665
0.0178084
0.0156142
0.0133218
0.011178
0.00916581
0.00728224
0.00554338
0.00401356
0.00270475
0.00166383
0.000918235
0.000438352
0.000176132
9.11041e-05
0.000108649
0.00983042
0.0115851
0.0148388
0.017683
0.0193536
0.0202762
0.0089002
0.00825392
0.0077832
0.00744636
0.00720499
0.00703344
0.00691279
0.00682926
0.00677217
0.00673076
0.00670777
0.00669616
0.0066784
0.00667581
0.0066707
0.0066708
0.00667019
0.00667195
0.00667308
0.00667559
0.00667772
0.00668065
0.00668346
0.00668668
0.00668993
0.00669356
0.00669736
0.00670155
0.00670596
0.0206844
0.0208908
0.0210156
0.0211355
0.0213054
0.0215573
0.021901
0.0223229
0.0227916
0.0232673
0.0237089
0.0240726
0.0243044
0.024327
0.0240521
0.0234916
0.0226227
0.021429
0.0198776
0.0179988
0.0158125
0.0135099
0.0113477
0.00931455
0.0074099
0.00564949
0.0040962
0.002766
0.00170195
0.000935396
0.000441942
0.000175703
9.13083e-05
0.000109406
0.0096081
0.0111888
0.0143422
0.0173656
0.0191893
0.0200579
0.020508
0.00875296
0.00814514
0.00770478
0.00739016
0.00716516
0.00700582
0.00689443
0.00681741
0.00676454
0.00672612
0.00670535
0.00669495
0.00667712
0.00667551
0.00667043
0.00667084
0.00667016
0.00667197
0.00667306
0.00667559
0.00667773
0.00668064
0.00668341
0.00668658
0.00668985
0.00669349
0.00669731
0.00670152
0.00670595
0.0206379
0.0206687
0.020689
0.0207583
0.0209165
0.0211843
0.0215596
0.0220195
0.0225276
0.0230444
0.0235313
0.0239465
0.024236
0.0243214
0.0241086
0.0236051
0.0227849
0.0216004
0.0200511
0.0182005
0.0160252
0.0137139
0.0115334
0.00947841
0.00755121
0.00576766
0.00418841
0.00283463
0.00174501
0.000955043
0.00044623
0.000175108
9.15436e-05
0.0001102
0.00939771
0.0108158
0.013814
0.0169926
0.01896
0.0199277
0.0202374
0.020375
0.00860921
0.00803904
0.00762875
0.0073358
0.0071271
0.00698018
0.00687769
0.00680656
0.00675743
0.00672204
0.00670302
0.0066931
0.00667638
0.00667508
0.00667027
0.00667086
0.00667012
0.00667198
0.00667306
0.00667558
0.00667775
0.00668057
0.00668331
0.00668648
0.00668977
0.00669342
0.00669725
0.00670149
0.00670594
0.0203311
0.0202523
0.020217
0.0202704
0.0204431
0.0207451
0.0211636
0.0216686
0.0222215
0.0227847
0.0233226
0.0237938
0.0241433
0.0242916
0.0241397
0.0236918
0.0229005
0.0217383
0.0202319
0.0184134
0.0162526
0.0139348
0.0117364
0.00965895
0.00770776
0.00589947
0.00429159
0.00291178
0.00179385
0.00097754
0.000451177
0.000174759
9.18587e-05
0.000111228
0.00919732
0.0104687
0.0132668
0.0165724
0.0186905
0.0197454
0.0201127
0.0200523
0.019988
0.00846912
0.00793599
0.0075553
0.00728381
0.00709178
0.00695685
0.00686242
0.00679663
0.00675082
0.0067184
0.00670095
0.0066908
0.00667601
0.00667462
0.00667022
0.00667083
0.00667011
0.00667198
0.00667308
0.00667556
0.00667771
0.00668043
0.00668321
0.00668637
0.00668968
0.00669335
0.00669719
0.00670146
0.00670593
0.0198324
0.0196922
0.0196346
0.0196986
0.0199058
0.0202542
0.0207235
0.0212785
0.0218805
0.0224959
0.0230906
0.023622
0.0240333
0.0242438
0.024151
0.0237465
0.0229919
0.0218793
0.0204196
0.0186371
0.016495
0.0141733
0.0119581
0.00985778
0.00788132
0.00604665
0.00440728
0.00299872
0.00184942
0.00100352
0.000457162
0.000174214
9.22938e-05
0.000112457
0.0090056
0.0101486
0.0127082
0.0161064
0.018392
0.0195373
0.0199443
0.0199155
0.0196134
0.0194191
0.00833288
0.00783641
0.00748511
0.00723559
0.00705967
0.00693561
0.00684851
0.00678762
0.00674467
0.00671527
0.00669946
0.00668841
0.00667584
0.00667425
0.00667026
0.00667082
0.00667011
0.00667197
0.00667311
0.00667546
0.0066776
0.00668029
0.0066831
0.00668626
0.00668959
0.00669328
0.00669713
0.00670142
0.00670592
0.019191
0.0190207
0.0189674
0.0190639
0.0193175
0.0197208
0.0202463
0.0208543
0.0215102
0.0221843
0.0228419
0.0234372
0.0239112
0.0241829
0.0241453
0.0237874
0.023082
0.0220222
0.020613
0.0188711
0.0167523
0.0144302
0.0121996
0.0100765
0.0080738
0.00621117
0.00453746
0.00309721
0.00191295
0.00103357
0.000464134
0.000174032
9.2919e-05
0.000113681
0.00882276