/*--------------------------------*- C++ -*----------------------------------*\
  =========                 |
  \\      /  F ield         | OpenFOAM: The Open Source CFD Toolbox
   \\    /   O peration     | Website:  https://openfoam.org
    \\  /    A nd           | Version:  8
     \\/     M anipulation  |
\*---------------------------------------------------------------------------*/
FoamFile
{
    version     2.0;
    format      ascii;
    class       volScalarField;
    location    "0.07";
    object      p;
}
// * * * * * * * * * * * * * * * * * * * * * * * * * * * * * * * * * * * * * //

dimensions      [0 2 -2 0 0 0 0];

internalField   nonuniform List<scalar> 
15677
(
73.8244
73.4184
73.0828
73.5726
73.0814
73.0187
73.4925
73.1005
73.0283
72.954
73.473
73.1006
73.0288
72.9627
72.8577
73.4548
73.1037
73.0292
72.9621
72.8653
72.7572
73.4319
73.1065
73.0294
72.9625
72.8653
72.7639
72.6442
73.4071
73.1083
73.0292
72.9627
72.8661
72.764
72.65
72.5078
73.3814
73.1094
73.0285
72.9624
72.8667
72.7647
72.6502
72.5129
72.3413
73.3546
73.1101
73.0275
72.9618
72.8672
72.7655
72.6509
72.5131
72.3456
72.1377
73.3266
73.1105
73.0261
72.9609
72.8676
72.7661
72.6517
72.514
72.346
72.1414
71.8894
73.2978
73.1105
73.0245
72.96
72.8682
72.7669
72.6526
72.515
72.3471
72.142
71.8923
71.588
73.2678
73.1095
73.023
72.9592
72.8689
72.7678
72.6536
72.5161
72.3483
72.1432
71.8931
71.5901
71.225
73.237
73.1077
73.0218
72.9587
72.87
72.7692
72.655
72.5176
72.3498
72.1448
71.8946
71.591
71.2264
70.7922
73.2087
73.1052
73.0209
72.9585
72.8717
72.7712
72.6571
72.5197
72.3519
72.1468
71.8966
71.5929
71.2273
70.7925
70.2814
73.1844
73.1023
73.0208
72.9588
72.8744
72.7744
72.6603
72.5229
72.3549
72.1496
71.8992
71.5954
71.2297
70.7939
70.2807
69.685
73.1636
73.0994
73.0213
72.9598
72.8783
72.7792
72.6651
72.5276
72.3594
72.1538
71.903
71.5989
71.2328
70.7965
70.2822
69.6832
68.9964
73.1462
73.0961
73.0224
72.9616
72.8836
72.7859
72.6722
72.5346
72.3661
72.1599
71.9086
71.6038
71.2372
70.8003
70.2853
69.6849
68.9932
68.2098
73.1317
73.0922
73.0236
72.9641
72.89
72.7952
72.6821
72.5448
72.3758
72.169
71.9168
71.6111
71.2437
70.806
70.29
69.6885
68.9952
68.2052
67.3209
73.1195
73.088
73.025
72.9672
72.897
72.8065
72.6958
72.559
72.3899
72.1823
71.9289
71.6219
71.2531
70.8141
70.297
69.6942
68.9994
68.2074
67.3148
66.3268
73.1092
73.0839
73.0264
72.9709
72.9047
72.8187
72.7124
72.5785
72.4097
72.2013
71.9465
71.6377
71.2669
70.826
70.3071
69.7027
69.0062
68.2122
67.3172
66.319
65.2266
73.101
73.0801
73.028
72.9752
72.9132
72.832
72.7306
72.6023
72.4367
72.228
71.9717
71.6606
71.2871
70.8434
70.3218
69.715
69.0163
68.2201
67.3226
66.3217
65.2169
64.0208
73.0947
73.0768
73.0296
72.98
72.9222
72.8464
72.7505
72.6281
72.4696
72.2645
72.007
71.6934
71.3164
70.8688
70.3433
69.7329
69.0309
68.2319
67.3316
66.3276
65.2198
64.0092
62.7125
73.0898
73.0742
73.0313
72.9852
72.9317
72.8615
72.7718
72.6563
72.5054
72.3089
72.0553
71.7392
71.3583
70.9057
70.3748
69.759
69.0523
68.2491
67.3452
66.3378
65.2263
64.0123
62.6989
61.3069
73.0859
73.0721
73.0328
72.9905
72.9417
72.8774
72.7944
72.6867
72.5445
72.3573
72.114
71.8019
71.4167
70.9582
70.4203
69.7972
69.0835
68.2741
67.365
66.3531
65.2374
64.0191
62.702
61.291
59.8157
73.0829
73.0704
73.0343
72.9955
72.9516
72.8938
72.8181
72.7189
72.5866
72.4103
72.1782
71.8784
71.4969
71.0316
70.4851
69.8525
69.1291
68.3108
67.3938
66.3755
65.2544
64.0312
62.7091
61.2939
59.7961
58.267
73.0804
73.0691
73.0357
73
72.9608
72.9099
72.8425
72.7526
72.6313
72.4673
72.2485
71.9619
71.5946
71.1323
70.5758
69.9312
69.1951
68.3643
67.436
66.4081
65.2792
64.0496
62.7217
61.3008
59.7965
58.2064
56.6043
73.0784
73.0681
73.037
73.0042
72.9691
72.9246
72.8665
72.7875
72.678
72.5278
72.3243
72.0536
71.7015
71.2552
70.7003
70.0415
69.2893
68.4419
67.4978
66.4558
65.3153
64.0764
62.7411
61.3134
59.8019
58.2123
56.5347
54.8116
73.0768
73.0673
73.0381
73.0079
72.9766
72.9379
72.8885
72.8217
72.7263
72.5911
72.4047
72.1524
71.819
71.39
70.8526
70.1931
69.4213
68.5527
67.5875
66.526
65.3684
64.1156
62.7694
61.333
59.813
58.2149
56.5401
54.7863
52.96
73.0754
73.0666
73.039
73.0114
72.9833
72.9499
72.9083
72.853
72.7737
72.6567
72.4889
72.2573
71.9458
71.5382
71.0198
70.379
69.6032
68.7085
67.7161
66.6281
65.4467
64.1735
62.8109
61.3619
59.8311
58.2228
56.5353
54.7757
52.9496
51.06
73.0743
73.0661
73.0398
73.0146
72.9893
72.9606
72.9261
72.8813
72.8172
72.721
72.5762
72.3674
72.0807
71.6985
71.2041
70.5834
69.8267
68.9235
67.8971
66.7749
65.5612
64.2594
62.8728
61.4046
59.8588
58.2384
56.5412
54.7669
52.9335
51.0538
48.9133
73.0734
73.0657
73.0405
73.0174
72.9947
72.9701
72.942
72.9067
72.8564
72.78
72.6618
72.4817
72.2224
71.8692
71.4036
70.8091
70.0729
69.1884
68.1477
66.9823
65.7263
64.3857
62.9652
61.4691
59.9011
58.2638
56.5554
54.7737
52.9254
51.036
48.9104
46.4935
73.0726
73.0653
73.0411
73.02
72.9994
72.9785
72.9562
72.9293
72.8916
72.8333
72.7405
72.5938
72.3695
72.0487
71.6164
71.0539
70.3455
69.481
68.4572
67.2702
65.9603
64.5685
63.102
61.5666
59.9665
58.3043
56.5791
54.7879
52.9335
51.029
48.8936
46.4926
44.0546
73.0719
73.065
73.0418
73.0222
73.0037
72.986
72.9688
72.9495
72.9231
72.8812
72.8116
72.697
72.5142
72.2354
71.8407
71.3156
70.6417
69.8056
68.8001
67.6269
66.2864
64.8288
63.3015
61.7124
60.0672
58.3691
56.6179
54.8107
52.948
51.0366
48.8865
46.4773
44.0554
41.6264
73.0714
73.0648
73.0423
73.0242
73.0074
72.9927
72.9799
72.9674
72.9511
72.9239
72.8754
72.7903
72.6474
72.4193
72.0743
71.5918
70.9591
70.1592
69.1815
68.0233
66.6921
65.1933
63.5871
61.9267
60.2199
58.4714
56.6817
54.8485
52.9707
51.0508
48.8915
46.4697
44.0418
41.6274
39.232
73.0645
73.0707
73.0428
73.0259
73.0107
72.9986
72.9898
72.9833
72.9759
72.962
72.9325
72.8741
72.768
72.5888
72.3048
71.8802
71.2949
70.5391
69.5982
68.4656
67.1444
65.6486
63.9889
62.2356
60.4468
58.629
56.7845
54.9113
53.0076
51.0728
48.9037
46.4718
44.0338
41.6149
39.2328
36.8869
73.0433
73.0643
73.07
73.0275
73.0137
73.0038
72.9985
72.9974
72.998
72.9959
72.9834
72.9492
72.8764
72.7425
72.5176
72.1653
71.6463
70.942
70.0469
68.9503
67.6508
66.1582
64.4934
62.673
60.7767
58.8661
56.9454
55.014
53.0691
51.1081
48.9233
46.481
44.033
41.6058
39.2209
36.8873
34.6028
73.0288
73.0441
73.0641
73.0693
73.0163
73.0085
73.0063
73.0099
73.0176
73.0259
73.0287
73.0161
72.9736
72.8809
72.7108
72.4291
71.9944
71.3648
70.5244
69.4739
68.2075
66.7306
65.0603
63.2249
61.2466
59.2138
57.1903
55.1768
53.1706
51.1671
48.955
46.4961
44.0384
41.6017
39.2103
36.8756
34.6023
32.3896
73.0186
73.0306
73.0451
73.0639
73.0686
73.0126
73.0132
73.0209
73.0349
73.0525
73.0688
73.0756
73.0603
73.0049
72.8851
72.669
72.3174
71.7848
71.0268
70.0327
68.811
67.3624
65.6997
63.8479
61.8432
59.7127
57.5526
55.4269
53.3333
51.2656
49.0091
46.5213
44.0479
41.6023
39.2024
36.8633
34.5908
32.3883
30.2559
73.0161
73.0216
73.0327
73.046
73.0637
73.068
73.0192
73.0308
73.0503
73.0762
73.1045
73.1285
73.1375
73.1158
73.0415
72.8857
72.6116
72.1753
71.5275
70.6228
69.4574
68.0497
66.408
64.5536
62.5198
60.35
58.076
55.7999
53.5856
51.4255
49.1016
46.5669
44.0649
41.6048
39.1973
36.8511
34.5764
32.3767
30.2538
28.2079
73.0245
73.0207
73.025
73.0348
73.047
73.0635
73.0674
73.0394
73.064
73.0971
73.1361
73.1754
73.206
73.2145
73.1813
73.0804
72.8779
72.532
71.9943
71.2127
70.1423
68.7885
67.1816
65.3384
63.2894
61.0763
58.7489
56.343
53.9652
51.6765
49.2552
46.649
44.0995
41.6121
39.1917
36.8397
34.5599
32.3601
30.242
28.205
26.25
73.0469
73.0312
73.0258
73.0284
73.0369
73.048
73.0634
73.0668
73.076
73.1157
73.1641
73.217
73.2669
73.3023
73.306
73.2548
73.1176
72.8555
72.4219
71.7646
70.8296
69.5745
68.0165
66.1991
64.1491
61.906
59.5195
57.0453
54.522
52.058
49.5004
46.7907
44.1677
41.6334
39.1875
36.8248
34.5416
32.339
30.2229
28.1929
26.2463
24.3846
73.0863
73.0563
73.0383
73.0309
73.0318
73.0389
73.0489
73.0632
73.0663
73.1321
73.189
73.2539
73.321
73.3803
73.4171
73.4104
73.3325
73.1472
72.8105
72.2715
71.4749
70.3665
68.9084
67.132
65.0959
62.8369
60.4038
57.8535
55.2464
52.6219
49.8783
47.0233
44.2928
41.6846
39.1933
36.8078
34.5168
32.3137
30.1973
28.1715
26.2339
24.3801
22.6128
73.1462
73.0992
73.0659
73.0454
73.0358
73.0351
73.0408
73.0499
73.0631
73.0659
73.211
73.2868
73.369
73.4495
73.5158
73.5492
73.5246
73.4092
73.1618
72.7335
72.0694
71.1128
69.8111
68.133
66.1267
63.8668
61.4006
58.7853
56.0843
53.3601
50.4421
47.3888
44.5068
41.7892
39.225
36.7965
34.486
32.2785
30.1647
28.1413
26.2099
24.3674
22.6077
20.9346
73.2298
73.1635
73.1119
73.0753
73.0522
73.0406
73.0383
73.0427
73.0508
73.063
73.0654
73.3158
73.4117
73.5111
73.6035
73.6726
73.696
73.6438
73.4778
73.152
72.6129
71.8029
70.6652
69.1509
67.2381
64.9935
62.5087
59.8408
57.0551
54.2185
51.186
47.941
44.8514
41.979
39.3056
36.8063
34.4562
32.2331
30.1188
28.1014
26.1752
24.341
22.5945
20.9287
19.3487
73.3404
73.2527
73.18
73.1244
73.0846
73.0589
73.0453
73.0413
73.0446
73.0517
73.0629
73.0651
73.4494
73.5659
73.6814
73.7824
73.8487
73.8534
73.7614
73.5294
73.1065
72.4356
71.4579
70.1182
68.3737
66.2142
63.7268
61.0199
58.1603
55.2184
52.0566
48.6768
45.3798
42.2946
39.4662
36.86
34.4425
32.1839
30.0584
28.0446
26.128
24.3018
22.5657
20.9152
19.3421
17.8532
73.4814
73.3705
73.274
73.1962
73.1365
73.0935
73.0653
73.0497
73.0443
73.0463
73.0526
73.0628
73.0647
73.6143
73.7509
73.88
73.9846
74.0403
74.015
73.8686
73.5527
73.0121
72.1872
71.0195
69.4579
67.468
65.0533
62.3226
59.4012
56.3627
53.077
49.5452
46.0925
42.788
39.7453
36.987
34.4671
32.1459
29.9895
27.9691
26.0604
24.2474
22.5223
20.884
19.3284
17.8461
16.4457
73.6552
73.5202
73.3975
73.2946
73.2119
73.1482
73.102
73.0714
73.054
73.0471
73.048
73.0534
73.0627
73.0644
73.8123
73.9671
74.1057
74.2068
74.2416
74.1727
73.9547
73.5346
72.8538
71.8519
70.4723
68.6707
66.4231
63.7489
60.7794
57.6542
54.2514
50.5704
46.9416
43.4632
40.1934
37.2234
34.5567
32.1394
29.9264
27.8803
25.9698
24.1691
22.4609
20.8366
19.2949
17.832
16.4379
15.1229
73.864
73.7051
73.5544
73.4238
73.3148
73.2269
73.1592
73.11
73.0772
73.058
73.0497
73.0496
73.0542
73.0626
73.0642
74.044
74.2136
74.3554
74.4437
74.4446
74.3156
74.0063
73.4597
72.6151
71.4129
69.8011
67.7438
65.23
62.2968
59.0964
55.5849
51.7581
47.9515
44.2763
40.8181
37.6172
34.7452
32.1889
29.8877
27.7918
25.8612
24.0636
22.372
20.7683
19.2435
17.7963
16.4236
15.1146
13.8815
74.1088
73.9274
73.7478
73.5874
73.4492
73.3338
73.241
73.1696
73.1176
73.0826
73.0618
73.0522
73.0511
73.0549
73.0626
73.064
74.309
74.4879
74.6242
74.6876
74.6391
74.4309
74.0082
73.3111
72.2784
70.8535
68.9908
66.6654
63.8817
60.6934
57.0832
53.116
49.1299
45.2511
41.5792
38.1792
35.0771
32.3253
29.8951
27.7202
25.7475
23.9357
22.252
20.6693
19.1687
17.7413
16.3858
15.1001
13.8728
12.7181
74.3891
74.1886
73.9805
73.7891
73.6194
73.4732
73.3516
73.2541
73.1792
73.1246
73.0877
73.0654
73.0546
73.0524
73.0556
73.0626
73.0638
74.6049
74.7854
74.9049
74.9286
74.8121
74.503
73.9428
73.0702
71.8255
70.1567
68.0275
65.4262
62.3714
58.7529
54.6527
50.4869
46.3969
42.4993
38.8732
35.5655
32.5893
29.9764
27.6842
25.6427
23.797
22.1054
20.5353
19.0598
17.6601
16.3273
15.0602
13.858
12.7089
11.6289
74.7031
74.489
74.2543
74.0319
73.829
73.6494
73.4955
73.3681
73.2663
73.1881
73.1311
73.0923
73.0686
73.0566
73.0536
73.0562
73.0625
73.0636
74.9275
75.0992
75.1878
75.1539
74.9482
74.5141
73.791
72.7177
71.2377
69.3065
66.8989
64.0156
60.5195
56.3787
52.0341
47.7254
43.5881
39.719
36.1782
32.9945
30.1674
27.7085
25.5628
23.6591
21.9422
20.3705
18.9124
17.5419
16.2401
14.9985
13.8162
12.6939
11.6191
10.6102
75.0467
74.8272
74.57
74.3179
74.0813
73.8662
73.677
73.516
73.3832
73.2774
73.1962
73.137
73.0965
73.0714
73.0584
73.0546
73.0566
73.0625
73.0635
75.2702
75.4199
75.4605
75.3481
75.0293
74.4447
73.5324
72.2334
70.4971
68.2879
65.5915
62.2625
58.2198
53.784
49.2491
44.8571
40.7253
36.9308
33.5131
30.4814
27.8226
25.5289
23.5353
21.7718
20.1836
18.7303
17.3818
16.113
14.9056
13.7516
12.6502
11.6038
10.599
9.6594
75.4134
75.2
74.9267
74.6485
74.3791
74.1273
73.9003
73.7022
73.5345
73.3968
73.2873
73.2035
73.1422
73.1001
73.0738
73.0599
73.0554
73.0571
73.0625
73.0634
75.6238
75.7352
75.7076
75.4932
75.0356
74.2732
73.1456
71.5976
69.5861
67.085
63.9435
60.0488
55.6617
50.9802
46.3177
41.9019
37.8296
34.1551
30.895
28.0392
25.5636
23.4429
21.6046
19.9815
18.5205
17.1831
15.9408
14.7701
13.6533
12.5829
11.5585
10.5837
9.64411
8.87117
75.7943
75.6018
75.3219
75.0234
74.7238
74.4357
74.1692
73.9312
73.7248
73.551
73.4088
73.296
73.2097
73.1465
73.1031
73.0758
73.0611
73.0561
73.0574
73.0625
73.0633
75.9762
76.0302
75.9111
75.5688
74.9446
73.9774
72.6089
70.7905
68.4868
65.5443
61.8203
57.5335
52.8447
47.9826
43.2601
38.8835
34.9247
31.4121
28.3394
25.6784
23.3968
21.454
19.7718
18.2877
16.9513
15.7265
14.5866
13.5098
12.4796
11.4888
10.5371
9.62991
8.86436
8.20678
76.1773
76.0246
75.7508
75.4406
75.1159
74.7933
74.4869
74.2068
73.9586
73.7447
73.5653
73.419
73.3033
73.2148
73.15
73.1055
73.0775
73.0621
73.0567
73.0577
73.0625
73.0633
76.3122
76.2865
76.0504
75.5519
74.7331
73.5338
71.901
69.7921
67.052
63.5106
59.3504
54.7121
49.7887
44.8186
40.1072
35.8317
32.0359
28.7212
25.8596
23.4076
21.3267
19.5637
18.0368
16.689
15.4736
14.3573
13.3157
12.3288
11.3808
10.4655
9.58228
8.85638
8.21082
7.50964
76.5472
76.4575
76.2064
75.8965
75.5542
75.201
74.8559
74.5326
74.2399
73.9824
73.7616
73.5773
73.4275
73.3091
73.2188
73.1528
73.1074
73.0788
73.063
73.0572
73.058
73.0625
73.0632
76.6136
76.4834
76.102
75.4185
74.3762
72.9196
70.9991
68.4583
65.1041
61.0901
56.5403
51.6215
46.5361
41.5307
36.8972
32.7784
29.1878
26.0998
23.4669
21.2331
19.3562
17.7726
16.3983
15.1831
14.0845
13.0724
12.1246
11.2231
10.3531
9.50921
8.80787
8.20488
7.51015
6.75949
76.8855
76.8866
76.6788
76.3848
76.0357
75.6583
75.2774
74.9114
74.5726
74.2683
74.0023
73.7756
73.5869
73.4339
73.3134
73.2217
73.1548
73.1089
73.0799
73.0636
73.0576
73.0582
73.0625
73.0632
76.859
76.5971
76.041
75.1423
73.8497
72.1086
69.76
66.593
62.7411
58.3151
53.451
48.3194
43.1384
38.1642
33.6682
29.7536
26.402
23.5623
21.1702
19.1595
17.4866
16.0799
14.8544
13.7671
12.7807
11.8682
11.0096
10.189
9.39273
8.73418
8.15678
7.50005
6.75348
5.93986
77.1704
77.2947
77.1553
76.8971
76.5552
76.163
75.7515
75.3449
74.9596
74.6065
74.2918
74.0184
73.7863
73.5939
73.4384
73.3163
73.2237
73.1563
73.1099
73.0806
73.0641
73.058
73.0584
73.0625
73.0632
77.0241
76.6019
75.8402
74.6976
73.1233
70.9571
67.9752
64.2983
60.0273
55.2657
50.1456
44.8571
39.641
34.7593
30.4538
26.7831
23.6969
21.1207
18.9759
17.1893
15.7178
14.4838
13.4023
12.4378
11.5586
10.7408
9.96677
9.22276
8.61426
8.08215
7.45161
6.73816
5.93043
5.04575
77.3767
77.6618
77.6199
77.4217
77.1053
76.7108
76.2768
75.8336
75.4031
75.0001
74.6341
74.3103
74.0302
73.7936
73.5982
73.4411
73.3181
73.2249
73.1571
73.1106
73.0811
73.0645
73.0582
73.0585
73.0625
73.0631
77.0822
76.4696
75.4724
74.05
72.0527
69.2521
65.76
61.6689
57.0511
51.9988
46.6653
41.2719
36.0806
31.3505
27.2829
23.8886
21.0872
18.7835
16.8881
15.3237
14.0488
12.9818
12.0386
11.1917
10.4144
9.68635
8.99234
8.43953
7.95938
7.37529
6.68813
5.91255
5.03501
4.07447
77.4764
77.9642
78.0537
77.9444
77.676
77.2955
76.8498
76.3767
75.9041
75.4517
75.0327
74.6552
74.3233
74.0377
73.7976
73.6003
73.4422
73.3187
73.2254
73.1575
73.1109
73.0814
73.0647
73.0584
73.0586
73.0625
73.0632
77.0035
76.1712
74.8994
73.0552
70.4272
67.125
63.2316
58.7896
53.8546
48.5405
43.0357
37.5932
32.4891
27.9677
24.1799
21.0879
18.584
16.5565
14.909
13.562
12.4775
11.5709
10.7601
10.0248
9.34412
8.70102
8.20241
7.78064
7.24934
6.60911
5.86077
5.01638
4.06296
3.02089
77.438
78.1763
78.4344
78.4477
78.2542
77.9081
77.4654
76.9718
76.4623
75.9625
75.4902
75.057
74.6695
74.3307
74.041
73.7988
73.6005
73.4419
73.3184
73.2252
73.1574
73.1109
73.0815
73.065
73.0586
73.0587
73.0625
73.0632
76.7562
75.6654
73.9767
71.5098
68.3935
64.7072
60.4637
55.6857
50.4498
44.9049
39.2776
33.8484
28.8957
24.637
21.165
18.3945
16.1951
14.4434
13.0389
11.9026
11.001
10.2477
9.56282
8.93336
8.34401
7.90222
7.53794
7.06616
6.47945
5.77838
4.96316
4.04366
3.00878
1.87814
77.2255
78.2695
78.7367
78.9108
78.824
78.5373
78.1158
77.6144
77.0761
76.533
76.0085
75.5184
75.0727
74.6768
74.3331
74.0408
73.7974
73.5989
73.4405
73.3173
73.2244
73.1569
73.1107
73.0819
73.0654
73.0587
73.0587
73.0625
73.0632
76.2951
74.8063
72.5131
69.5725
66.0898
62.0574
57.4663
52.3583
46.8417
41.1051
35.4129
30.0646
25.328
21.3815
18.2545
15.8183
13.9255
12.4454
11.2767
10.3431
9.61611
9.00845
8.44276
7.91336
7.53318
7.23023
6.81742
6.29132
5.64455
4.87737
3.98906
2.98844
1.86569
0.638818
76.7884
78.2124
78.9325
79.3099
79.3666
79.1687
78.791
78.2982
77.7419
77.162
76.5883
76.0416
75.5359
75.0797
74.6777
74.3309
74.0375
73.7939
73.5958
73.438
73.3154
73.2229
73.1561
73.111
73.0824
73.0655
73.0587
73.0587
73.0625
73.0633
75.4723
73.4196
70.6745
67.3827
63.5595
59.1739
54.2332
48.8057
43.0365
37.1571
31.4657
26.2699
21.8119
18.2208
15.461
13.3661
11.7776
10.5619
9.62019
8.88021
8.31905
7.84907
7.39602
7.08639
6.85104
6.50157
6.03593
5.45086
4.73906
3.9
2.93231
1.84442
0.626218
-0.704676
77.9601
75.9796
78.9895
79.6185
79.8597
79.7849
79.4783
79.0144
78.4545
77.847
77.229
76.6277
76.0615
75.5426
75.0788
74.6731
74.3249
74.0314
73.7886
73.5914
73.4345
73.3126
73.2212
73.1562
73.1117
73.0827
73.0656
73.0587
73.0586
73.0626
73.0633
74.1307
71.6741
68.5975
64.9705
60.7921
56.0461
50.7584
45.0284
39.044
33.0806
27.4635
22.493
18.3713
15.1712
12.7937
11.0417
9.75144
8.79104
8.06642
7.51018
7.10571
6.76563
6.54737
6.39069
6.11138
5.71122
5.1882
4.53927
3.75699
2.83991
1.78648
0.604274
-0.717404
-2.16024
78.8657
77.3764
74.6496
79.8053
80.2784
80.3657
80.162
79.7518
79.2063
78.5836
77.929
77.2767
76.6508
76.068
75.5396
75.0712
74.6638
74.3156
74.0231
73.7816
73.5857
73.4299
73.3095
73.2211
73.1573
73.1122
73.0827
73.0654
73.0585
73.0585
73.0626
73.0634
72.4457
69.7016
66.3019
62.3191
57.7749
52.6653
47.0381
41.0305
34.8784
28.9002
23.436
18.7621
15.0276
12.2458
10.2587
8.84636
7.84573
7.13007
6.61147
6.22882
5.97205
5.88734
5.83347
5.63638
5.30911
4.85384
4.26865
3.55056
2.69188
1.69046
0.544344
-0.740002
-2.17309
-3.73601
79.8303
78.4468
76.3363
72.9919
80.5936
80.8877
80.8236
80.4964
79.9876
79.3654
78.6847
77.9874
77.3043
76.6576
76.0628
75.5284
75.0577
74.6503
74.3034
74.0128
73.773
73.5785
73.4248
73.309
73.2226
73.1579
73.1122
73.0824
73.0651
73.0583
73.0583
73.0626
73.0635
70.5441
67.5147
63.7663
59.415
54.4982
49.0251
43.0716
36.82
30.5592
24.6445
19.4148
15.1042
11.7994
9.45438
7.85926
6.7796
6.05786
5.57499
5.25105
5.03191
5.05333
5.14857
5.05945
4.81825
4.43879
3.9238
3.27132
2.4783
1.53698
0.444442
-0.801927
-2.19641
-3.74896
-5.4404
80.7681
79.5964
77.5852
74.9792
71.1287
81.3242
81.4416
81.2315
80.7862
80.1842
79.4908
78.7571
78.0214
77.3122
76.6501
76.0475
75.5101
75.0393
74.6335
74.2889
74.0005
73.7626
73.5709
73.4237
73.311
73.2234
73.158
73.1118
73.0819
73.0648
73.058
73.0581
73.0626
73.0636
68.4325
65.088
60.9774
56.2485
50.9546
45.1215
38.8607
32.4092
26.1107
20.3458
15.432
11.5445
8.70199
6.80343
5.59644
4.83937
4.38391
4.12136
3.98075
4.06234
4.28073
4.34766
4.22002
3.93079
3.49474
2.91506
2.18973
1.31566
0.28505
-0.905849
-2.26033
-3.77303
-5.45336
-7.28184
81.6415
80.7242
78.9559
76.4096
73.4085
69.0631
81.9913
81.9375
81.587
81.0293
80.3404
79.5817
78.8001
78.0314
77.3025
76.6303
76.0236
75.4858
75.0168
74.6138
74.272
73.9859
73.7516
73.5689
73.4264
73.3122
73.2235
73.1574
73.111
73.0816
73.0646
73.0577
73.0578
73.0626
73.0638
66.0806
62.409
57.9268
52.8127
47.1384
40.9518
34.4105
27.8154
21.5623
16.0392
11.5191
8.10489
5.74682
4.2968
3.46944
3.02206
2.81932
2.7645
2.95223
3.2472
3.44323
3.47922
3.30954
2.96822
2.47087
1.8211
1.01703
0.05541
-1.07157
-2.36841
-3.83895
-5.47815
-7.29473
-9.26881
82.4432
81.7831
80.3149
78.0062
75.0255
71.6399
66.7593
82.5918
82.3724
81.8875
81.2243
80.4552
79.6371
78.814
78.0203
77.2781
76.6001
75.9924
75.4566
74.9908
74.5912
74.2522
73.9707
73.7485
73.5725
73.428
73.3122
73.2226
73.1563
73.1108
73.0815
73.0642
73.0573
73.0575
73.0626
73.0639
63.4766
59.4714
54.609
49.1018
43.0436
36.5137
29.7284
23.0609
16.9485
11.7613
7.70559
4.80364
2.9422
1.9359
1.47545
1.3232
1.3592
1.66634
2.08784
2.36376
2.53536
2.5375
2.32216
1.92439
1.3606
0.635041
-0.254069
-1.31012
-2.54087
-3.95142
-5.54609
-7.32015
-9.28119
-11.4104
83.169
82.764
81.6008
79.6031
76.8504
73.4679
69.6393
64.205
83.1218
82.743
82.131
81.3699
80.5274
79.6573
78.8023
77.9912
77.2411
76.5613
75.9553
75.4232
74.9614
74.5651
74.2317
73.966
73.7531
73.5746
73.428
73.3111
73.2211
73.1562
73.111
73.0813
73.0638
73.0568
73.0572
73.0627
73.0641
60.6166
56.2721
51.0195
45.1088
38.6634
31.8051
24.826
18.1742
12.3078
7.54882
4.01786
1.65523
0.293219
-0.280485
-0.389513
-0.262211
0.177772
0.743805
1.15133
1.40643
1.55126
1.51656
1.25164
0.792664
0.156995
-0.65044
-1.63124
-2.78892
-4.13104
-5.66316
-7.38998
-9.30671
-11.42
-14.1186
83.8136
83.6618
82.804
81.1239
78.6843
75.5415
71.704
67.3949
61.3975
83.5772
83.0466
82.3159
81.4647
80.5574
79.6467
78.769
77.9469
77.1936
76.5152
75.9133
75.3857
74.9277
74.5382
74.2252
73.972
73.7557
73.5746
73.4265
73.3091
73.2213
73.157
73.111
73.0808
73.0631
73.0562
73.0568
73.0627
73.0644
57.4996
52.8091
47.1524
40.8244
33.9871
26.8242
19.7203
13.1907
7.68194
3.43689
0.478539
-1.32974
-2.1985
-2.35526
-2.13032
-1.5449
-0.814361
-0.255297
0.136959
0.369242
0.484858
0.410066
0.0913029
-0.433919
-1.14727
-2.04304
-3.12248
-4.38919
-5.85041
-7.51183
-9.37842
-11.4455
-14.1316
-17.342
84.3717
84.4689
83.9198
82.5583
80.4389
77.627
74.0499
69.7177
64.9086
58.3376
83.9546
83.2813
82.4405
81.5087
80.55
79.6099
78.7174
77.8901
77.1376
76.4634
75.8665
75.343
74.8931
74.5293
74.2327
73.9753
73.7558
73.5726
73.4238
73.3097
73.2231
73.1576
73.1107
73.08
73.0623
73.0556
73.0563
73.0628
73.0646
54.1259
49.0788
42.9988
36.2329
29.0011
21.5736
14.4371
8.15249
3.11405
-0.541918
-2.89402
-4.14517
-4.53381
-4.29272
-3.53881
-2.6217
-1.88836
-1.33694
-0.961372
-0.754001
-0.670258
-0.788705
-1.16584
-1.76269
-2.55987
-3.55072
-4.73598
-6.11926
-7.70713
-9.50527
-11.5182
-14.1628
-17.3586
-20.6229
84.8391
85.1774
84.94
83.9023
82.1024
79.6275
76.4058
72.3558
67.5108
62.1873
55.0275
84.2515
83.4446
82.5043
81.5079
80.5113
79.5513
78.6508
77.8231
77.0746
76.4058
75.8134
75.2992
74.8814
74.5387
74.2369
73.9754
73.7532
73.569
73.425
73.3129
73.2246
73.1577
73.1101
73.079
73.0613
73.0547
73.0557
73.0628
73.0649
50.4945
45.0751
38.5427
31.3137
23.6955
16.0665
9.01349
3.10783
-1.35258
-4.35893
-6.08691
-6.78843
-6.71579
-5.86054
-4.72086
-3.78684
-3.05056
-2.50743
-2.15
-1.96982
-1.92087
-2.08675
-2.52709
-3.20129
-4.08874
-5.18162
-6.48004
-7.98729
-9.70909
-11.6501
-14.2408
-17.393
-20.6359
-23.9141
85.2126
85.7803
85.8545
85.1469
83.6715
81.5305
78.6705
74.9962
70.46
65.0931
59.2412
51.4687
84.4643
83.5355
82.5143
81.4693
80.4462
79.4745
78.5719
77.7478
77.0049
76.3407
75.759
75.2841
74.8931
74.5439
74.237
73.9721
73.7486
73.5711
73.4302
73.3157
73.2254
73.1574
73.109
73.0777
73.06
73.0538
73.0551
73.0629
73.0653
46.6019
40.7861
33.7597
26.0403
18.0593
10.3243
3.49724
-1.89009
-5.67649
-7.99136
-9.09187
-9.26022
-8.48173
-7.17595
-5.99928
-5.04708
-4.30749
-3.77325
-3.43554
-3.28503
-3.27397
-3.49132
-4.00003
-4.75755
-5.7419
-6.94393
-8.3628
-10.0012
-11.8629
-14.3819
-17.4782
-20.6671
-23.9251
-27.1884
85.4876
86.2719
86.6534
86.2809
85.1373
83.3323
80.8326
77.5378
73.3973
68.3738
62.4802
56.0809
47.6608
84.5913
83.5619
82.4789
81.3991
80.3594
79.3831
78.4832
77.6646
76.9263
76.2741
75.7399
75.2985
74.8995
74.544
74.2328
73.9662
73.7519
73.5789
73.4349
73.3176
73.2256
73.1565
73.1076
73.076
73.0586
73.0526
73.0544
73.063
73.0657
42.4401
36.1851
28.6078
20.3722
12.0804
4.37538
-2.05477
-6.78594
-9.82125
-11.4221
-11.9054
-11.2611
-9.96257
-8.59794
-7.38135
-6.40925
-5.6658
-5.14111
-4.82484
-4.70658
-4.73672
-5.00985
-5.5923
-6.43932
-7.5274
-8.84564
-10.392
-12.1676
-14.6071
-17.6309
-20.7528
-23.9554
-27.1983
-30.4308
85.6612
86.6456
87.3275
87.293
86.4886
85.0233
82.888
79.9718
76.2246
71.6202
66.1155
59.691
52.7174
43.6022
84.6411
83.5338
82.4056
81.3029
80.2551
79.28
78.3852
77.571
76.8459
76.2504
75.7574
75.3063
74.8995
74.5388
74.2253
73.971
73.763
73.5861
73.4384
73.3188
73.2252
73.1551
73.1057
73.074
73.0568
73.0514
73.0536
73.0631
73.0661
37.988
31.2303
23.0306
14.2653
5.75931
-1.73585
-7.57716
-11.5259
-13.7562
-14.6405
-14.1838
-12.9382
-11.5623
-10.1342
-8.87415
-7.88012
-7.13229
-6.61788
-6.32477
-6.2415
-6.31638
-6.6498
-7.31153
-8.25438
-9.45292
-10.8943
-12.5744
-14.9278
-17.872
-20.9114
-24.0417
-27.2295
-30.4396
-33.6236
85.743
86.8957
87.8645
88.1718
87.7135
86.5918
84.8258
82.2947
78.9372
74.741
69.6842
63.708
56.7452
49.1636
39.2832
84.6258
83.4602
82.301
81.1856
80.1369
79.1659
78.2748
77.475
76.817
76.2716
75.7668
75.3063
74.8932
74.5294
74.2321
73.9864
73.7736
73.5919
73.4409
73.3191
73.224
73.153
73.1033
73.0717
73.0548
73.0499
73.0528
73.0633
73.0666
33.2144
25.868
16.9611
7.68251
-0.882577
-7.94469
-12.9991
-16.0592
-17.4586
-17.2485
-16.0922
-14.7484
-13.289
-11.7921
-10.4845
-9.46647
-8.71375
-8.21032
-7.94219
-7.89678
-8.02007
-8.41842
-9.1651
-10.2101
-11.5256
-13.0962
-15.3542
-18.2118
-21.1639
-24.2051
-27.3179
-30.4716
-33.6311
-36.7449
85.7471
87.0331
88.2514
88.9007
88.7996
88.0251
86.6326
84.496
81.5335
77.7363
73.106
67.6139
61.1758
53.6624
45.4271
34.6827
84.556
83.3491
82.1712
81.0517
80.0056
79.0374
78.1615
77.4402
76.8423
76.2828
75.7668
75.2986
74.8815
74.5386
74.2529
74.0012
73.7822
73.5963
73.4424
73.3184
73.222
73.1503
73.1004
73.0689
73.0525
73.0483
73.0519
73.0634
73.0671
28.0723
20.0181
10.3131
0.601418
-7.79986
-14.1689
-18.2465
-20.3428
-20.4621
-19.4314
-18.1499
-16.7
-15.1497
-13.5781
-12.219
-11.1749
-10.4167
-9.92501
-9.68376
-9.67913
-9.85461
-10.3226
-11.1598
-12.313
-13.7514
-15.8993
-18.6596
-21.5184
-24.4664
-27.4871
-30.5617
-33.6634
-36.7511
-39.7717
85.6861
87.0749
88.4961
89.459
89.7266
89.3105
88.2938
86.5618
84.0047
80.6074
76.3867
71.3449
65.4364
58.5433
50.4629
41.5098
29.7697
84.4412
83.2078
82.0215
80.9024
79.8575
78.9052
78.1202
77.4704
76.8556
76.2829
75.7575
75.2842
74.8936
74.5659
74.2729
74.0136
73.7892
73.5994
73.4426
73.3167
73.2191
73.1469
73.0969
73.0657
73.05
73.0466
73.051
73.0635
73.0677
22.4905
13.5601
2.98134
-6.97714
-14.9211
-20.3045
-23.248
-23.823
-22.9733
-21.782
-20.3648
-18.7993
-17.1505
-15.4983
-14.0838
-13.0116
-12.2474
-11.7682
-11.5557
-11.5948
-11.8263
-12.3686
-13.3017
-14.5684
-16.5821
-19.2284
-21.9826
-24.8316
-27.757
-30.7363
-33.7544
-36.7833
-39.7765
-42.682
85.5714
87.0366
88.6175
89.8501
90.4665
90.426
89.7939
88.4763
86.3384
83.3484
79.5312
74.9129
69.4858
63.1796
55.8362
47.1692
37.4137
24.5007
84.29
83.0426
81.8536
80.7334
79.7048
78.8567
78.1559
77.486
76.8557
76.2718
75.74
75.2998
74.9287
74.5923
74.2899
74.0239
73.7946
73.601
73.4415
73.3138
73.2152
73.1426
73.0927
73.0622
73.0474
73.0449
73.0501
73.0637
73.0683
16.3601
6.30834
-5.14947
-15.0153
-22.1311
-26.2235
-27.3326
-26.7281
-25.6709
-24.3066
-22.7415
-21.0506
-19.296
-17.5579
-16.0842
-14.982
-14.2113
-13.7453
-13.5634
-13.6491
-13.9404
-14.5614
-15.5952
-17.4334
-19.9382
-22.5687
-25.3066
-28.1305
-31.0132
-33.9328
-36.8744
-39.8085
-42.6852
-45.4539
85.4131
86.9322
88.6344
90.0922
91.0189
91.3379
91.1069
90.2214
88.5193
85.9499
82.5376
78.3278
73.3434
67.5583
60.8716
53.0819
43.8037
33.1392
18.8136
84.1102
82.856
81.6627
80.5586
79.6484
78.8986
78.1741
77.486
76.8425
76.2505
75.7597
75.3442
74.9627
74.615
74.3045
74.0323
73.7981
73.6009
73.4388
73.3096
73.2102
73.1374
73.0881
73.0584
73.0446
73.043
73.0492
73.0639
73.0689
9.50092
-2.0322
-14.1653
-23.4085
-29.2229
-31.0801
-30.7444
-29.8423
-28.5576
-27.0064
-25.2818
-23.4566
-21.5895
-19.7605
-18.2244
-17.0903
-16.3128
-15.8608
-15.7114
-15.8465
-16.2009
-16.9047
-18.5037
-20.8222
-23.2976
-25.9032
-28.6119
-31.3919
-34.214
-37.055
-39.8989
-42.7165
-45.4555
-48.0667
85.2204
86.7742
88.564
90.2033
91.4019
92.0438
92.1918
91.7652
90.5291
88.3993
85.4012
81.5927
77.0249
71.7076
65.5918
58.5413
50.308
40.3891
28.6962
12.6291
83.9051
82.6425
81.4646
80.4939
79.6975
78.9198
78.1742
77.4706
76.8171
76.2749
75.8148
75.3873
74.9923
74.6348
74.3166
74.0383
73.7994
73.5988
73.4344
73.3039
73.204
73.1315
73.083
73.0543
73.0416
73.0411
73.0483
73.0641
73.0696
1.60202
-11.9293
-24.083
-31.8365
-35.0997
-35.1246
-34.3885
-33.1662
-31.629
-29.8777
-27.984
-26.017
-24.032
-22.108
-20.5067
-19.3394
-18.5549
-18.1179
-18.0026
-18.1894
-18.6101
-19.87
-21.9342
-24.2049
-26.6431
-29.2128
-31.8751
-34.5935
-37.3369
-40.0796
-42.8052
-45.4858
-48.0671
-50.5016
84.9976
86.5736
88.4228
90.2012
91.6334
92.5627
93.0438
93.0557
92.3313
90.6801
88.1133
84.7084
80.5399
75.652
70.0353
63.6153
56.2155
47.5458
36.9611
24.1309
5.83864
83.6686
82.4199
81.3909
80.5509
79.7218
78.9199
78.1561
77.4403
76.8468
76.3424
75.8684
75.425
75.0183
74.6516
74.3259
74.0416
73.7982
73.5944
73.4281
73.2966
73.1967
73.125
73.0775
73.0501
73.0386
73.0392
73.0473
73.0643
73.0703
-8.01869
-24.1804
-34.3656
-39.0776
-39.9468
-39.4009
-38.244
-36.6859
-34.8748
-32.9117
-30.8425
-28.7283
-26.6213
-24.5999
-22.9315
-21.7303
-20.9389
-20.5176
-20.4379
-20.6785
-21.6507
-23.355
-25.3469
-27.5642
-29.9563
-32.4744
-35.073
-37.7127
-40.3588
-42.9837
-45.5718
-48.0958
-50.5
-52.7385
84.7387
86.3353
88.2251
90.1041
91.7311
92.9136
93.6852
94.0807
93.8626
92.7541
90.6615
87.6718
83.8956
79.4081
74.2382
68.355
61.6549
53.9243
44.8411
33.5598
19.5353
-1.74646
83.4206
82.3368
81.4566
80.5788
79.7219
78.8988
78.1203
77.476
76.9283
76.408
75.9155
75.4584
75.0408
74.6649
74.3318
74.0418
73.7942
73.5876
73.4197
73.2878
73.1886
73.118
73.0717
73.0456
73.0354
73.0372
73.0464
73.0645
73.0711
-20.91
-38.091
-44.2648
-45.2773
-45.0551
-43.8703
-42.2663
-40.3712
-38.2787
-36.0942
-33.847
-31.5829
-29.3523
-27.2325
-25.4966
-24.2614
-23.4634
-23.0587
-23.0159
-23.8095
-25.2075
-26.8076
-28.7249
-30.8822
-33.2144
-35.6647
-38.1833
-40.7266
-43.2566
-45.7457
-48.1777
-50.526
-52.7362
-54.7606