/*--------------------------------*- C++ -*----------------------------------*\
  =========                 |
  \\      /  F ield         | OpenFOAM: The Open Source CFD Toolbox
   \\    /   O peration     | Website:  https://openfoam.org
    \\  /    A nd           | Version:  8
     \\/     M anipulation  |
\*---------------------------------------------------------------------------*/
FoamFile
{
    version     2.0;
    format      ascii;
    class       volScalarField;
    location    "0.26";
    object      epsilon;
}
// * * * * * * * * * * * * * * * * * * * * * * * * * * * * * * * * * * * * * //

dimensions      [0 2 -3 0 0 0 0];

internalField   nonuniform List<scalar> 
15677
(
59.6997
18.3529
52.6135
8.08719
25.8911
50.1639
4.62697
13.263
31.5784
50.4839
3.17769
7.72316
17.0812
37.2685
51.5995
2.48941
5.04266
10.0248
20.8102
42.6414
53.6553
2.14566
3.6226
6.46119
12.1602
24.5391
47.6538
55.717
1.97984
2.82084
4.52403
7.72273
14.2731
28.2494
52.0101
57.6528
1.91169
2.35296
3.40122
5.30904
8.91401
16.4211
31.7498
55.6897
59.3488
1.88416
2.08027
2.72296
3.90832
6.02042
10.1038
18.5319
34.9478
58.7048
60.8497
1.87055
1.9394
2.30697
3.05493
4.35699
6.7058
11.2714
20.5645
37.7668
61.1779
62.1142
1.86766
1.87831
2.0564
2.52076
3.3474
4.77533
7.36212
12.4156
22.4558
40.2289
63.1676
63.227
1.86863
1.84884
1.91655
2.18589
2.71213
3.61449
5.16481
7.9999
13.5038
24.2006
42.3244
64.7913
64.1546
1.86954
1.83869
1.85192
1.98257
2.30668
2.88594
3.85784
5.5353
8.60471
14.5355
25.7644
44.1142
66.0939
64.9847
1.86978
1.83697
1.82112
1.86773
2.0513
2.4179
3.04268
4.0843
5.88157
9.18019
15.4864
27.1648
45.6096
67.1522
65.7089
1.86978
1.83723
1.81049
1.81332
1.89816
2.11736
2.51857
3.18625
4.2925
6.2076
9.71367
16.3627
28.3867
46.8658
68.0147
66.3499
1.86974
1.8375
1.80819
1.78975
1.81539
1.93027
2.17867
2.61029
3.31656
4.48539
6.50779
10.2087
17.1478
29.4511
47.9112
68.7159
66.9374
1.86972
1.8376
1.80789
1.78271
1.77568
1.82146
1.96233
2.23512
2.69308
3.43549
4.66107
6.78435
10.6562
17.8497
30.3589
48.7673
69.3175
67.4366
1.86971
1.83761
1.80792
1.78099
1.76143
1.7661
1.83172
1.99307
2.28632
2.76791
3.54269
4.82087
7.03339
11.0597
18.4602
31.1238
49.4767
69.7933
67.943
1.86971
1.8376
1.80794
1.78067
1.75694
1.74387
1.76035
1.8431
2.0216
2.33255
2.83489
3.63897
4.96351
7.25658
11.4133
18.9866
31.7588
50.0319
70.2422
68.3362
1.86971
1.83759
1.80794
1.78063
1.75568
1.73583
1.72946
1.75736
1.8545
2.04773
2.3739
2.89449
3.72419
5.08976
7.45166
11.7199
19.4271
32.2691
50.496
70.5754
68.8059
1.86971
1.83758
1.80793
1.78061
1.75537
1.73312
1.71723
1.71793
1.75581
1.86564
2.07133
2.41059
2.94695
3.79874
5.19933
7.61949
11.9773
19.7883
32.677
50.8329
70.9465
69.1176
1.86971
1.83757
1.80791
1.78059
1.75529
1.73228
1.71261
1.70121
1.70837
1.75569
1.87608
2.0924
2.44285
2.99254
3.86303
5.29243
7.76023
12.1883
20.074
32.9819
51.1211
71.1946
69.5824
1.86971
1.83756
1.8079
1.78057
1.75526
1.73202
1.711
1.69438
1.68714
1.70075
1.75599
1.88566
2.11109
2.47094
3.03182
3.91732
5.37018
7.87403
12.3545
20.2897
33.2084
51.3118
71.5443
69.8344
1.86971
1.83756
1.8079
1.78054
1.75523
1.73192
1.71046
1.69176
1.6779
1.67517
1.6944
1.75673
1.89448
2.12762
2.49533
3.06512
3.96259
5.43232
7.9639
12.4786
20.4454
33.3591
51.4739
71.7467
70.2992
1.86971
1.83756
1.80789
1.78052
1.7552
1.73186
1.71027
1.69079
1.67411
1.6635
1.66465
1.68936
1.75805
1.90267
2.1423
2.51641
3.09326
3.9993
5.48182
8.02949
12.5664
20.5413
33.4484
51.5892
72.1384
70.5418
1.86971
1.83755
1.80789
1.78051
1.75518
1.73181
1.71018
1.69041
1.67263
1.65842
1.65053
1.65603
1.68544
1.75983
1.91043
2.15561
2.53495
3.11705
4.02906
5.51793
8.07626
12.6177
20.5989
33.4948
51.6627
72.4318
428.872
1.86971
1.83755
1.80788
1.7805
1.75516
1.73177
1.71012
1.69023
1.67205
1.65628
1.64416
1.63967
1.64855
1.68278
1.76238
1.9183
2.16815
2.55158
3.13726
4.05237
5.54476
8.10298
12.6451
20.6017
33.4904
51.7839
88.7771
715.864
1.86971
1.83755
1.80788
1.78049
1.75515
1.73174
1.71007
1.69012
1.67179
1.65538
1.6414
1.63194
1.63006
1.64342
1.68192
1.76614
1.92666
2.18056
2.56721
3.15529
4.0716
5.56263
8.11905
12.642
20.5887
33.4933
52.7064
122.112
995.045
1.86971
1.83755
1.80788
1.78048
1.75513
1.73172
1.71002
1.69005
1.67164
1.65496
1.64021
1.6284
1.62119
1.62307
1.63922
1.68289
1.77141
1.9363
2.19374
2.58309
3.17234
4.08792
5.57523
8.1188
12.63
20.5594
33.5188
55.2657
157.604
1241.57
1.86971
1.83755
1.80788
1.78047
1.75512
1.73169
1.70998
1.68998
1.67153
1.65473
1.63965
1.62678
1.61707
1.61289
1.61736
1.63915
1.68577
1.77894
1.94794
2.20874
2.60002
3.1897
4.10277
5.58319
8.11552
12.6057
20.5215
33.6185
59.8369
190.107
1468.3
1.86971
1.83755
1.80788
1.78047
1.75512
1.73168
1.70995
1.68993
1.67144
1.65457
1.63935
1.62599
1.61516
1.60794
1.60648
1.61551
1.64083
1.69165
1.78946
1.96257
2.22631
2.61934
3.2084
4.11805
5.58975
8.10839
12.5764
20.4778
33.8727
64.5548
220.916
1660.24
1.86971
1.83755
1.80788
1.78046
1.75511
1.73166
1.70993
1.68989
1.67137
1.65446
1.63915
1.62557
1.61422
1.60556
1.60118
1.60333
1.6168
1.64542
1.7015
1.80398
1.98103
2.24778
2.64197
3.23019
4.13506
5.59748
8.10016
12.5452
20.4291
34.3409
69.3502
247.982
1805.84
1.86971
1.83755
1.80788
1.78046
1.75511
1.73164
1.70991
1.68985
1.67131
1.65437
1.63899
1.62531
1.6137
1.60437
1.5986
1.59727
1.6044
1.62095
1.65453
1.71611
1.82336
2.00457
2.27401
2.66943
3.25591
4.15587
5.6081
8.09407
12.5121
20.3845
34.8995
73.6977
269.001
1918.63
1.86972
1.83755
1.80788
1.78046
1.7551
1.73163
1.70989
1.68982
1.67126
1.65429
1.63886
1.62511
1.61336
1.60372
1.59727
1.59428
1.59821
1.60835
1.62955
1.66937
1.73641
1.84886
2.03405
2.30638
2.70239
3.28727
4.18153
5.62342
8.0904
12.4778
20.3482
35.4389
77.0669
285.613
2009.04
1.83755
1.86975
1.80788
1.78045
1.7551
1.73162
1.70988
1.68979
1.67122
1.65422
1.63874
1.62496
1.6131
1.60332
1.59653
1.59277
1.59519
1.60211
1.61676
1.64466
1.69055
1.7637
1.88136
2.07082
2.34557
2.74241
3.32489
4.2134
5.64363
8.09106
12.4404
20.3077
35.8485
79.6494
299.089
2084.35
1.80788
1.83764
1.86982
1.78045
1.7551
1.73161
1.70987
1.68976
1.67118
1.65416
1.63865
1.62483
1.61289
1.60303
1.59605
1.59196
1.59368
1.59912
1.61057
1.63231
1.66671
1.71936
1.79892
1.92232
2.11564
2.39303
2.78983
3.37
4.2516
5.66947
8.09477
12.4004
20.2581
36.1312
81.6289
310.464
2149.48
1.78045
1.80803
1.83784
1.86989
1.75509
1.7316
1.70986
1.68974
1.67115
1.6541
1.63857
1.62471
1.61271
1.6028
1.5957
1.59147
1.5929
1.59771
1.60779
1.6266
1.65526
1.6971
1.757
1.84346
1.97235
2.1697
2.44895
2.84597
3.42257
4.29656
5.70457
8.1038
12.3639
20.1968
36.3063
83.1843
320.341
2207.44
1.75509
1.78066
1.80835
1.83805
1.86997
1.7316
1.70985
1.68972
1.67113
1.65405
1.63851
1.62461
1.61256
1.60261
1.59541
1.59113
1.59245
1.59705
1.60665
1.62431
1.6505
1.68726
1.73719
1.80511
1.8984
2.03305
2.23341
2.51489
2.91053
3.48298
4.3541
5.75152
8.12061
12.3306
20.1257
36.4021
84.434
329.234
2260.36
1.73159
1.75535
1.78108
1.80868
1.83826
1.87004
1.70985
1.6897
1.67111
1.65401
1.63846
1.62453
1.61243
1.60245
1.59517
1.59087
1.59215
1.59673
1.60629
1.62375
1.64928
1.68428
1.72994
1.78891
1.86492
1.96552
2.10501
2.30801
2.58989
2.98411
3.55882
4.42739
5.80672
8.14355
12.3016
20.0482
36.4384
85.4783
337.352
2309.25
1.70984
1.73188
1.75586
1.78151
1.80902
1.83848
1.87012
1.68968
1.67109
1.65397
1.63841
1.62445
1.61232
1.60231
1.59496
1.59066
1.59192
1.59655
1.60624
1.62395
1.64966
1.68454
1.72916
1.78519
1.85392
1.93874
2.04579
2.18983
2.39353
2.6752
3.07557
3.65358
4.51
5.86938
8.17227
12.2765
19.9684
36.4319
86.3763
344.956
2355.14
1.68967
1.71017
1.73248
1.7564
1.78196
1.80936
1.8387
1.8702
1.67108
1.65394
1.63837
1.62438
1.61223
1.60219
1.59479
1.59049
1.59175
1.59644
1.60632
1.62445
1.65086
1.68664
1.73187
1.78774
1.85433
1.93374
2.02754
2.14136
2.28777
2.49146
2.78033
3.18879
3.75877
4.60043
5.93807
8.20595
12.2567
19.8883
36.4123
87.1768
352.075
2398.19
1.67106
1.69002
1.71085
1.73309
1.75694
1.78241
1.80971
1.83893
1.87029
1.65391
1.63834
1.62431
1.61216
1.60208
1.59464
1.59034
1.59161
1.59637
1.60645
1.62504
1.65231
1.68954
1.73651
1.79414
1.86183
1.9404
2.02961
2.13264
2.25264
2.40069
2.61327
2.91221
3.31311
3.87188
4.69743
6.01164
8.24424
12.2409
19.8127
36.3745
87.9013
358.862
2439.06
1.65388
1.67145
1.69076
1.71154
1.73373
1.7575
1.78288
1.81008
1.83917
1.87037
1.63831
1.62425
1.6121
1.60198
1.59451
1.59022
1.5915
1.59633
1.60661
1.62565
1.65378
1.69259
1.74195
1.80268
1.87344
1.95478
2.04488
2.14478
2.25444
2.38006
2.54312
2.76784
3.0587
3.44766
3.9916
4.79943
6.08908
8.28602
12.2306
19.7415
36.3307
88.5774
365.276
2477.52
1.63829
1.65427
1.67224
1.69151
1.71226
1.73438
1.75808
1.78337
1.81045
1.83941
1.87046
1.6242
1.61205
1.60189
1.59441
1.59011
1.5914
1.5963
1.60678
1.62624
1.65522
1.69557
1.74743
1.81211
1.88754
1.97385
2.06853
2.17144
2.27987
2.39624
2.53925
2.72186
2.94078
3.21833
3.59155
4.11763
4.90512
6.16927
8.33083
12.2234
19.6764
36.2858
89.2102
371.431
2514.17
1.62416
1.63869
1.65509
1.67306
1.69229
1.71299
1.73505
1.75867
1.78387
1.81083
1.83966
1.87055
1.612
1.6018
1.59432
1.59002
1.59132
1.59629
1.60694
1.62679
1.65659
1.69839
1.7527
1.82146
1.90268
1.99609
2.0978
2.20778
2.32123
2.43858
2.57594
2.74225
2.9205
3.13052
3.39095
3.74341
4.2479
5.01331
6.25123
8.37763
12.2212
19.6178
36.2438
89.8153
377.253
2548.55
1.61197
1.62454
1.63955
1.65594
1.6739
1.69309
1.71374
1.73574
1.75928
1.78438
1.81123
1.83991
1.87064
1.60172
1.59426
1.58994
1.59126
1.59628
1.6071
1.62732
1.65787
1.70102
1.75769
1.83042
1.91758
2.01983
2.13135
2.25131
2.37419
2.49926
2.6416
2.80787
2.97203
3.13797
3.33215
3.57343
3.90108
4.38166
5.12293
6.33402
8.4259
12.2223
19.5656
36.2071
90.3911
382.85
2581.37
1.60165
1.61235
1.62537
1.64043
1.65681
1.67476
1.69392
1.71452
1.73645
1.7599
1.7849
1.81163
1.84017
1.87073
1.5942
1.58986
1.59119
1.59628
1.60725
1.6278
1.65906
1.70346
1.76239
1.83888
1.9319
2.04332
2.16711
2.301
2.43679
2.5747
2.72951
2.90731
3.07366
3.22777
3.37393
3.54454
3.76478
4.06449
4.51763
5.233
6.41686
8.47504
12.2254
19.5194
36.1758
90.9473
388.128
2612
1.59417
1.60194
1.61317
1.62621
1.64134
1.65772
1.67565
1.69477
1.71532
1.73718
1.76054
1.78544
1.81204
1.84043
1.87082
1.58977
1.59113
1.59628
1.60739
1.62825
1.66016
1.70571
1.76676
1.8468
1.94552
2.06608
2.20265
2.35442
2.50855
2.66376
2.83726
3.03578
3.21656
3.37375
3.50852
3.62658
3.76564
3.95933
4.23115
4.6545
5.34257
6.499
8.52438
12.2315
19.479
36.152
91.4805
393.207
2641.27
1.58971
1.59445
1.6026
1.61401
1.6271
1.64227
1.65865
1.67656
1.69565
1.71613
1.73793
1.7612
1.78599
1.81245
1.84068
1.8709
1.59107
1.59628
1.60752
1.62866
1.66116
1.70777
1.77082
1.85416
1.95841
2.08785
2.23725
2.40828
2.58656
2.76687
2.96515
3.19325
3.39901
3.57194
3.70849
3.81321
3.89381
3.99473
4.15586
4.39893
4.79085
5.45077
6.57986
8.5735
12.24
19.444
36.133
91.996
397.969
2668.4
1.59105
1.58973
1.59504
1.60327
1.61488
1.62803
1.64324
1.65962
1.6775
1.69655
1.71697
1.7387
1.76187
1.78654
1.81285
1.84093
1.87098
1.59626
1.60764
1.62903
1.66208
1.70966
1.77456
1.86097
1.97052
2.10848
2.27066
2.4616
2.66608
2.88059
3.11547
3.38327
3.62531
3.82593
3.97678
4.07853
4.14061
4.1736
4.2296
4.35308
4.56642
4.9259
5.55712
6.65896
8.62204
12.2502
19.4139
36.1217
92.4913
402.558
2694.38
1.5963
1.59095
1.58977
1.59563
1.60399
1.61579
1.629
1.64423
1.66062
1.67847
1.69748
1.71784
1.73948
1.76254
1.78707
1.81323
1.84117
1.87106
1.60773
1.62937
1.66292
1.71139
1.77799
1.86725
1.98185
2.12786
2.30271
2.51377
2.74532
2.99858
3.28517
3.61267
3.90542
4.14833
4.32648
4.43616
4.48504
4.48966
4.46403
4.46827
4.54959
4.73174
5.05923
5.66106
6.73591
8.66967
12.2618
19.3883
36.1135
92.9681
406.83
2718.31
1.60789
1.59597
1.59066
1.58978
1.59628
1.60478
1.61672
1.63001
1.64525
1.66165
1.67946
1.69844
1.71872
1.74026
1.76319
1.78759
1.81361
1.8414
1.87114
1.62965
1.66366
1.71296
1.78112
1.87303
1.99237
2.14599
2.33331
2.56424
2.82339
3.11905
3.46611
3.87999
4.25574
4.56288
4.78677
4.91627
4.95756
4.93006
4.8596
4.76334
4.70895
4.74441
4.89271
5.18967
5.76208
6.81042
8.71612
12.2744
19.3666
36.1128
93.427
410.961
2741.24
1.63001
1.60723
1.59507
1.59032
1.58992
1.59694
1.60564
1.61768
1.63106
1.6463
1.66272
1.68048
1.69942
1.7196
1.74103
1.76382
1.78809
1.81397
1.84162
1.87122
1.66431
1.71437
1.78398
1.87833
2.00211
2.16287
2.36236
2.61256
2.89982
3.2412
3.65499
4.17353
4.6826
5.1095
5.41058
5.57854
5.61648
5.55023
5.41604
5.2498
5.06996
4.95011
4.93682
5.04896
5.31638
5.85976
6.88224
8.76119
12.2878
19.3484
36.1147
93.8655
414.779
2759.67
1.66503
1.62876
1.60534
1.59407
1.59008
1.59025
1.59761
1.60656
1.61867
1.63216
1.64739
1.66382
1.68153
1.70039
1.72045
1.74176
1.76444
1.78857
1.81433
1.84184
1.87129
1.71563
1.78657
1.8832
2.0111
2.17856
2.38978
2.65846
2.97439
3.3639
3.84883
4.48947
5.17801
5.82037
6.28494
6.52594
6.56887
6.44929
6.22276
5.94483
5.65943
5.38237
5.19041
5.12576
5.2001
5.43877
5.95377
6.9512
8.80472
12.3016
19.3332
36.1191
94.2874
417.991
2775.2
1.71695
1.66314
1.6252
1.6033
1.59321
1.5898
1.59074
1.59828
1.60755
1.61969
1.6333
1.6485
1.66494
1.68257
1.70133
1.72128
1.74248
1.76503
1.78905
1.81467
1.84205
1.87136
1.7889
1.88763
2.01937
2.19312
2.41554
2.70184
3.04691
3.48562
4.04495
4.82776
5.74671
6.69836
7.48397
7.9139
7.98578
7.79644
7.43101
6.98014
6.51659
6.08709
5.69903
5.42871
5.31037
5.34584
5.55646
6.04388
7.0172
8.84659
12.3158
19.3208
36.1276
94.6347
420.656
2791.97
1.79121
1.71421
1.6574
1.62143
1.6015
1.59243
1.58951
1.59136
1.59897
1.6086
1.62075
1.63448
1.64965
1.66606
1.68358
1.70225
1.72209
1.74318
1.76561
1.78951
1.81501
1.84225
1.87143
1.89168
2.02694
2.20663
2.43964
2.74277
3.11716
3.60482
4.24202
5.18991
6.39406
7.75044
9.0075
9.8604
10.1039
9.84241
9.28198
8.56705
7.82178
7.1291
6.53059
6.01834
5.66394
5.48998
5.48595
5.6692
6.12999
7.08014
8.88673
12.33
19.3106
36.1361
94.9328
423.564
2810.28
1.89556
1.78742
1.70535
1.65139
1.61802
1.59985
1.59173
1.58927
1.59208
1.59971
1.6097
1.62186
1.63568
1.6508
1.66714
1.68458
1.70315
1.72288
1.74386
1.76618
1.78996
1.81533
1.84245
1.87147
2.03391
2.21911
2.46212
2.78134
3.18486
3.72035
4.44017
5.57709
7.11908
8.9724
10.8475
12.3442
13.089
12.9199
12.1166
11.0258
9.8513
8.74138
7.77771
6.987
6.33859
5.89516
5.66405
5.62026
5.77684
6.21192
7.14002
8.92507
12.3442
19.3034
36.1454
95.257
426.724
2830.18
2.04038
1.89046
1.77414
1.69616
1.64587
1.61484
1.59832
1.5911
1.58911
1.59285
1.60051
1.61083
1.62301
1.63688
1.65193
1.6682
1.68554
1.70402
1.72365
1.74452
1.76673
1.79039
1.81565
1.84255
1.87147
2.23073
2.48304
2.81767
3.2497
3.83162
4.64035
5.9887
7.91442
10.3469
12.9803
15.3387
16.898
17.2644
16.3904
14.8031
13.0118
11.2685
9.72813
8.4559
7.45273
6.65797
6.1215
5.8322
5.7487
5.8794
6.28991
7.19689
8.9616
12.3564
19.298
36.1558
95.6195
430.199
2851.99
2.24126
2.03371
1.87087
1.76053
1.68768
1.64066
1.61185
1.5969
1.59055
1.58904
1.59367
1.60139
1.61199
1.62418
1.63804
1.65303
1.66923
1.68648
1.70486
1.72439
1.74516
1.76726
1.79081
1.8158
1.84255
1.87147
2.50262
2.85188
3.31144
3.93857
4.84367
6.42209
8.76868
11.8495
15.3676
18.8004
21.4911
22.8225
22.4464
20.5159
17.8781
15.2133
12.7977
10.7685
9.156
7.92384
6.9747
6.34222
5.99412
5.87121
5.97654
6.36409
7.2508
8.99174
12.3671
19.2929
36.1703
96.0166
433.967
2875.7
2.51994
2.23254
2.00518
1.85105
1.7479
1.6796
1.63567
1.60902
1.59559
1.5901
1.58908
1.59452
1.60235
1.61314
1.62534
1.63917
1.65411
1.67023
1.6874
1.70569
1.72512
1.74578
1.76778
1.79102
1.8158
1.84255
1.87147
2.88423
3.37005
4.04166
5.05086
6.87297
9.66864
13.4531
17.9633
22.6641
26.802
29.5459
30.236
28.6611
25.2735
21.3049
17.5973
14.4155
11.848
9.86996
8.39634
7.28705
6.55663
6.14959
5.98794
6.06817
6.43442
7.29508
9.01741
12.379
19.2882
36.187
96.4629
438.13
2901.74
2.91246
2.50885
2.19108
1.97667
1.83262
1.73581
1.67181
1.63089
1.60637
1.5944
1.58976
1.58926
1.59537
1.60337
1.61425
1.62648
1.64028
1.65517
1.6712
1.68829
1.70648
1.72583
1.74639
1.76804
1.79102
1.8158
1.84255
1.87147
3.42585
4.14175
5.26209
7.33578
10.6005
15.1305
20.719
26.8521
32.7249
37.3357
39.7053
39.2123
35.899
30.6192
25.037
20.1279
16.0978
12.9521
10.5899
8.86644
7.59343
6.76416
6.29849
6.09902
6.15454
6.49217
7.33267
9.04561
12.3926
19.2843
36.2101
96.9537
442.65
2930.01
3.47398
2.89814
2.44857
2.1503
1.95012
1.81492
1.72411
1.66431
1.62633
1.60391
1.59333
1.58952
1.58964
1.59619
1.60442
1.61534
1.62761
1.64135
1.6562
1.67215
1.68916
1.70726
1.72651
1.74669
1.76804
1.79102
1.81581
1.84255
1.87147
4.23966
5.47542
7.80458
11.5506
16.8551
23.5864
31.2808
39.1296
46.0228
50.7081
52.1127
49.7705
44.1127
36.4896
29.022
22.7687
17.8217
14.0675
11.3088
9.33064
7.89239
6.96436
6.44078
6.20447
6.22517
6.54115
7.37383
9.07662
12.4079
19.2813
36.2367
97.5075
447.676
2961.1
4.32549
3.45593
2.80923
2.39023
2.11226
1.92456
1.79777
1.71281
1.6571
1.62196
1.60167
1.59236
1.58927
1.59025
1.59698
1.60549
1.61641
1.62872
1.6424
1.6572
1.67307
1.69001
1.70802
1.72685
1.74669
1.76804
1.79102
1.8158
1.84255
1.87143
5.68796
8.27516
12.5063
18.6015
26.5188
35.867
45.8748
55.3927
62.9802
67.1534
66.8368
61.8696
53.2185
42.8068
33.2036
25.4839
19.566
15.1825
12.0203
9.78586
8.18275
7.15689
6.57643
6.29128
6.28495
6.59475
7.41894
9.11076
12.4253
19.2799
36.2725
98.1207
453.135
2994.76
4.3023
5.87528
3.32069
2.72514
2.33576
2.07562
1.89978
1.78116
1.7019
1.65017
1.61779
1.5996
1.59151
1.58899
1.59097
1.59776
1.60655
1.61745
1.62981
1.64343
1.65818
1.67397
1.69083
1.70839
1.72685
1.74669
1.76804
1.79102
1.8158
1.84245
1.87136
8.74344
13.457
20.3472
29.4724
40.5318
52.8215
65.2137
76.1805
83.9363
86.8117
83.8594
75.4072
63.1018
49.4821
37.5248
28.24
21.3122
16.2866
12.7189
10.2296
8.46355
7.3415
6.68856
6.36505
6.35024
6.65343
7.46842
9.14841
12.4452
19.2806
36.3141
98.8142
459.256
3031.8
4.08093
5.85757
9.15982
3.19716
2.64664
2.28328
2.04006
1.87574
1.76509
1.6914
1.64355
1.61387
1.59773
1.59078
1.58881
1.59174
1.59855
1.60761
1.61849
1.63087
1.64443
1.65913
1.67485
1.69124
1.70839
1.72685
1.74669
1.76804
1.79102
1.81565
1.84225
1.87129
14.3919
22.0728
32.409
45.2033
59.8413
75.2609
89.9404
101.939
109.122
109.712
103.07
90.2248
73.6234
56.421
41.9303
31.0068
23.0439
17.3714
13.4005
10.66
8.73406
7.49486
6.78411
6.44594
6.42159
6.71769
7.52273
9.18995
12.4678
19.2829
36.3688
99.5888
465.898
3071.71
3.88658
5.46517
9.17264
15.225
3.0827
2.57101
2.23239
2.00557
1.85248
1.7496
1.68132
1.63725
1.61025
1.59611
1.59019
1.58874
1.59253
1.59937
1.60864
1.61951
1.6319
1.64541
1.66006
1.67528
1.69124
1.70839
1.72685
1.74669
1.76804
1.79081
1.81533
1.84204
1.87122
23.7598
35.2971
49.8208
66.8222
85.3343
103.909
120.595
132.999
138.64
135.76
124.272
106.117
84.6281
63.5289
46.3684
33.7572
24.7473
18.4301
14.0617
11.0753
8.95961
7.62595
6.88917
6.53471
6.49964
6.78811
7.58237
9.23587
12.4938
19.2885
36.4328
100.466
473.423
3115.67
3.71017
5.12357
8.45394
15.3123
25.2722
2.97288
2.49777
2.18307
1.97219
1.83003
1.73471
1.6717
1.63136
1.60703
1.59472
1.58974
1.58878
1.59331
1.6002
1.60964
1.62052
1.6329
1.64637
1.66052
1.67528
1.69124
1.70839
1.72685
1.74669
1.76778
1.79038
1.815
1.84183
1.87114
38.1075
54.3372
73.6745
95.2673
117.785
139.374
157.603
169.559
172.45
164.74
147.184
122.843
95.9551
70.7152
50.7924
36.468
26.4114
19.4574
14.7
11.4221
9.15281
7.77052
7.00481
6.6322
6.58507
6.86531
7.64793
9.28669
12.5235
19.2979
36.515
101.456
481.561
3162.67
3.54387
4.81483
7.81414
14.0706
25.5441
40.6326
2.86684
2.42691
2.13538
1.93998
1.80844
1.72046
1.66263
1.62601
1.60422
1.59354
1.58943
1.58894
1.59406
1.60107
1.61062
1.62151
1.63389
1.64685
1.66052
1.67528
1.69124
1.70839
1.72685
1.74639
1.76725
1.78994
1.81466
1.84161
1.87106
58.7096
80.3329
104.934
131.329
157.831
182.149
201.267
211.676
210.362
196.315
171.465
140.145
107.446
77.8961
55.1611
39.1202
28.0274
20.449
15.2327
11.7193
9.36633
7.93014
7.13221
6.73937
6.67868
6.94999
7.72004
9.34299
12.5576
19.3125
36.6128
102.578
490.912
3214.48
3.38579
4.52666
7.22786
12.9286
23.6103
41.2417
62.6348
2.76452
2.35855
2.08943
1.90903
1.78777
1.70699
1.65435
1.62126
1.60177
1.59255
1.58922
1.58924
1.59479
1.60195
1.61158
1.62251
1.63438
1.64684
1.66052
1.67528
1.69124
1.70839
1.72651
1.74577
1.76672
1.78949
1.81431
1.84139
1.87098
86.7397
114.253
144.375
175.633
205.994
232.63
251.773
259.248
252.026
230.039
196.726
157.761
118.954
84.9973
59.4404
41.6984
29.5885
21.2767
15.6892
12.0478
9.60251
8.10655
7.27274
6.85731
6.78135
7.04294
7.7994
9.40549
12.5969
19.3331
36.7354
103.862
500.946
3269.22
3.23549
4.25602
6.67764
11.8576
21.7942
38.4194
63.771
92.4672
2.66601
2.29284
2.04531
1.87941
1.76821
1.69464
1.64693
1.61703
1.59967
1.59172
1.58905
1.58971
1.59549
1.60285
1.61255
1.623
1.63436
1.64684
1.66052
1.67528
1.69125
1.70802
1.72582
1.74514
1.76616
1.78903
1.81396
1.84116
1.8709
123.152
156.828
192.568
228.676
262.721
291.137
309.175
311.999
296.94
265.384
222.564
175.44
130.343
91.9564
63.6026
44.1903
30.8917
21.986
16.1939
12.4115
9.86403
8.30174
7.42792
6.98722
6.89408
7.14501
7.88682
9.47483
12.6424
19.3613
36.8836
105.268
512.696
3340.03
3.09277
4.0027
6.15921
10.8371
20.0522
35.7412
59.8549
94.3294
131.046
2.57148
2.22997
2.00315
1.85139
1.75026
1.68356
1.64029
1.61326
1.59788
1.59102
1.58886
1.59028
1.59618
1.60381
1.613
1.62298
1.63436
1.64684
1.66052
1.67529
1.69083
1.70725
1.7251
1.7445
1.7656
1.78856
1.81359
1.84092
1.87081
168.611
208.539
249.931
290.901
328.447
357.932
373.383
369.465
344.457
301.768
248.576
192.953
141.502
98.7226
67.6253
46.2712
32.009
22.7702
16.7523
12.8142
10.1539
8.51792
7.59948
7.13047
7.01797
7.25717
7.98312
9.55209
12.6946
19.3995
37.0648
106.87
527.34
3425.04
2.95735
3.76711
5.67325
9.8628
18.3573
33.1345
56.1336
89.0952
133.798
178.932
2.48118
2.17008
1.96332
1.8257
1.73412
1.6736
1.63435
1.6099
1.59634
1.59045
1.58871
1.59091
1.59695
1.60427
1.61294
1.62299
1.63436
1.64684
1.66053
1.67485
1.69
1.70647
1.72437
1.74384
1.76501
1.78807
1.81322
1.84068
1.87073
223.478
269.681
316.837
362.795
403.641
433.215
444.129
430.988
393.825
338.59
274.388
210.104
152.338
105.255
70.9828
48.0552
33.2446
23.638
17.3706
13.2606
10.4753
8.75759
7.78933
7.28859
7.15428
7.38053
8.08938
9.63792
12.7557
19.4483
37.2846
108.962
546.888
3509.61
2.82865
3.55041
5.22119
8.9408
16.6997
30.5628
52.4833
84.1574
126.975
182.645
236.323
2.39547
2.11371
1.92686
1.80262
1.71963
1.66467
1.62904
1.60695
1.59505
1.58998
1.58867
1.59167
1.59725
1.60422
1.61294
1.62299
1.63436
1.64685
1.66006
1.67396
1.68915
1.70566
1.72363
1.74316
1.76442
1.78757
1.81284
1.84043
1.87064
287.888
340.493
393.744
444.983
488.853
517.106
520.947
495.727
444.215
375.267
299.674
226.732
162.778
110.698
73.8598
50.0284
34.6122
24.599
18.0557
13.7556
10.8321
9.0235
7.99963
7.46328
7.30439
7.51617
8.20642
9.73388
12.8255
19.5137
37.5945
111.734
567.467
3593.64
2.70646
3.35423
4.80442
8.0736
15.0802
28.0088
48.8526
79.3089
120.641
173.871
240.912
303.119
2.31517
2.06223
1.89417
1.7819
1.70661
1.65667
1.62431
1.60438
1.59393
1.58963
1.5889
1.59202
1.59711
1.60425
1.61294
1.62298
1.63438
1.64637
1.65912
1.67306
1.68827
1.70484
1.72286
1.74246
1.76381
1.78706
1.81244
1.84017
1.87055
361.893
421.324
481.351
538.357
584.77
609.638
603.136
562.67
494.774
411.277
324.165
242.714
171.454
115.356
77.0397
52.2119
36.1269
25.6639
18.8154
14.3049
11.2282
9.31871
8.23276
7.65643
7.46988
7.66574
8.3361
9.84072
12.9084
19.6079
38.0421
114.754
590.64
3675.25
2.59187
3.17447
4.42332
7.26369
13.5129
25.4712
45.2097
74.4777
114.461
165.922
229.668
308.281
379.093
2.24229
2.0162
1.86488
1.76329
1.69492
1.6495
1.62011
1.60212
1.59299
1.58961
1.5889
1.59192
1.5971
1.60425
1.61295
1.62301
1.6339
1.6454
1.65816
1.67213
1.68738
1.70399
1.72207
1.74175
1.76318
1.78653
1.81204
1.83991
1.87046
445.681
512.889
580.853
644.283
692.283
710.673
689.714
630.689
544.702
446.177
347.65
255.95
178.862
120.496
80.5549
54.6294
37.8054
26.8446
19.658
14.9146
11.6682
9.64656
8.49132
7.87012
7.65241
7.8298
8.47992
9.96123
13.0199
19.7584
38.5555
118.249
614.568
3755.07
2.48781
3.00979
4.07945
6.51606
12.0144
22.9616
41.5427
69.6084
108.336
158.272
219.795
293.812
384.237
464.122
2.17751
1.97505
1.83863
1.74659
1.68444
1.6431
1.61637
1.60017
1.59254
1.58947
1.58862
1.59197
1.59711
1.60423
1.61301
1.62252
1.6329
1.64441
1.65718
1.67118
1.68646
1.70313
1.72127
1.74101
1.76254
1.78599
1.81163
1.83965
1.87037
539.862
616.475
694.214
764.846
812.454
819.769
779.435
698.641
593.29
479.616
367.039
267.222
187.015
126.165
84.4413
57.3064
39.6659
28.154
20.5928
15.5914
12.1569
10.0107
8.77814
8.10663
7.85412
8.00936
8.63956
10.1201
13.1753
19.9337
39.19
122.016
641.712
3830.9
2.39546
2.8621
3.77421
5.83706
10.6019
20.4984
37.8555
64.6689
102.177
150.796
210.497
281.563
365.443
468.344
558.523
2.11993
1.93827
1.81512
1.73162
1.67506
1.63736
1.61309
1.59895
1.59213
1.58914
1.58865
1.59197
1.59712
1.60429
1.61257
1.62152
1.63189
1.64341
1.65617
1.6702
1.68552
1.70224
1.72044
1.74026
1.76188
1.78544
1.81122
1.8394
1.87028
645.584
734.331
824.726
902.956
946.261
936.073
870.885
765.438
639.951
507.166
383.507
279.586
195.977
132.415
88.7365
60.2706
41.7285
29.6064
21.63
16.3425
12.6995
10.415
9.09626
8.36835
8.07734
8.20639
8.84849
10.3248
13.3462
20.1644
39.8875
126.506
669.379
3903.83
2.31378
2.73075
3.5133
5.2342
9.29668
18.1042
34.1621
59.6442
95.9218
143.358
201.616
270.35
350.169
443.599
560.608
663.522
2.0687
1.90541
1.79408
1.71821
1.66661
1.63228
1.61081
1.59807
1.59168
1.58919
1.58867
1.59194
1.59729
1.60383
1.61159
1.62052
1.63085
1.64238
1.65515
1.66921
1.68456
1.70133
1.7196
1.73949
1.76121
1.7849
1.81083
1.83916
1.8702
765.128
870.943
977.692
1062.1
1094.34
1058.41
962.6
830.108
678.415
530.519
401.507
293.122
205.817
139.299
93.4804
63.5515
44.0144
31.2171
22.7805
17.1757
13.3015
10.8635
9.44882
8.65804
8.32396
8.4628
9.10982
10.5435
13.5493
20.4186
40.773
131.28
700.997
3971.33
2.24167
2.61332
3.29817
4.72014
8.11837
15.8035
30.486
54.5315
89.5221
135.853
192.956
259.974
336.641
424.403
527.434
662.06
781.793
2.0231
1.87607
1.77524
1.70614
1.65912
1.62859
1.6093
1.59744
1.59177
1.5892
1.58866
1.59206
1.59699
1.60288
1.61063
1.61951
1.62979
1.64133
1.65409
1.66818
1.68357
1.70039
1.71873
1.7387
1.76054
1.78437
1.81044
1.83892
1.87012
903.88
1034.43
1160.33
1246.28
1257.24
1185.55
1053.06
883.704
711.003
555.971
421.13
307.909
216.599
146.869
98.7143
67.1801
46.5465
33.0025
24.0558
18.0991
13.9687
11.3604
9.83922
8.97809
8.64693
8.78025
9.38506
10.7837
13.7685
20.754
41.7163
137.117
732.934
4035.21
2.17803
2.50863
3.11601
4.29228
7.09649
13.6461
26.8592
49.3398
82.9412
128.189
184.36
250.155
324.603
407.989
503.156
616.54
775.243
918.623
1.9825
1.84989
1.7583
1.69542
1.65349
1.62626
1.60842
1.59756
1.59178
1.58918
1.58896
1.59173
1.59623
1.60199
1.60966
1.61849
1.62871
1.64026
1.65302
1.66714
1.68257
1.69943
1.71785
1.73792
1.7599
1.78385
1.81007
1.83869
1.87004
1070.95
1236.43
1382.64
1461.13
1436.8
1315.76
1129
929.204
746.465
583.609
442.451
324.013
228.383
155.176
104.479
71.188
49.3482
34.9795
25.468
19.1214
14.7069
11.9101
10.2704
9.39725
9.04713
9.11325
9.67725
11.0386
14.0321
21.1113
42.9455
143.234
769.657
4092.67
2.12184
2.41575
2.95871
3.93914
6.23805
11.7174
23.3501
44.0932
76.1532
120.276
175.679
240.679
313.655
394.023
483.095
585.749
711.377
904.538
1084.58
1.94637
1.82643
1.74325
1.68722
1.65003
1.62512
1.60859
1.59758
1.59173
1.58955
1.58901
1.59097
1.59555
1.60111
1.60865
1.61746
1.62761
1.63917
1.65192
1.66606
1.68154
1.69845
1.71698
1.73717
1.75927
1.78336
1.8097
1.83847
1.86996
1282.16
1495.87
1662.04
1720.28
1634.75
1427.52
1193.79
978.739
784.868
613.487
465.52
341.486
241.221
164.267
110.814
75.6068
52.4435
37.1657
27.0297
20.2511
15.5222
12.5163
10.8345
9.9155
9.46637
9.46292
9.98354
11.3207
14.3128
21.5866
44.2235
150.894
806.483
4146.49
2.07215
2.33386
2.82052
3.64846
5.52644
10.0582
20.0966
38.8699
69.148
112.031
166.762
231.329
303.512
381.903
466.829
561.08
672.413
814.009
1059.05
1295.96
1.91411
1.80563
1.73153
1.68228
1.64853
1.62536
1.60862
1.5975
1.59223
1.58974
1.58881
1.59036
1.59486
1.60026
1.60763
1.61642
1.62649
1.63805
1.65081
1.66496
1.6805
1.69748
1.71613
1.73644
1.75866
1.78287
1.80935
1.83825
1.86989
1570.93
1857.06
2044.62
2047.53
1808.91
1523.34
1264.4
1032.28
826.199
645.607
490.351
360.356
255.148
174.181
117.756
80.4662
55.8557
39.5783
28.7531
21.497
16.4199
13.3083
11.5298
10.4567
9.90374
9.82781
10.3089
11.6184
14.6543
22.0833
45.9262
158.843
848.983
4193.66
2.02801
2.26193
2.69768
3.41215
4.94201
8.65837
17.184
33.8671
61.9872
103.378
157.444
221.883
293.878
371.266
453.409
542.066
641.976
765.032
930.435
1262.55
1596.48
1.88554
1.78925
1.72455
1.68037
1.64886
1.62539
1.60851
1.59819
1.5927
1.58979
1.58888
1.58982
1.59414
1.59944
1.60659
1.61537
1.62536
1.6369
1.64968
1.66384
1.67947
1.69655
1.71531
1.73573
1.75807
1.7824
1.80901
1.83804
1.86982
2042.33
2441.46
2642.88
2336.51
1957.18
1627.24
1340.42
1089.63
870.347
679.902
516.918
380.621
270.183
184.946
125.334
85.7927
59.6062
42.2339
30.6503
22.8667
17.5904
14.2811
12.2533
11.0186
10.3574
10.2093
10.6484
11.9511
15.0149
22.7469
47.6794
168.969
891.435
4237.88
1.98907
2.19871
2.58821
3.21699
4.46445
7.48816
14.6179
29.2354
54.9114
94.3206
147.558
212.093
284.463
361.714
442.381
527.134
619.714
727.48
868.767
1073.95
1569.66
2151.72
1.86276
1.77968
1.72209
1.68082
1.6489
1.62522
1.60946
1.59916
1.5932
1.59018
1.58906
1.58938
1.5934
1.59864
1.60554
1.6143
1.62421
1.63572
1.64853
1.66273
1.67847
1.69564
1.71451
1.73504
1.7575
1.78195
1.80868
1.83784
1.86975
2911.3
3616.2
3129.05
2571.58
2113.6
1737.32
1421
1150.38
917.077
716.232
545.133
402.238
286.314
196.571
133.566
91.6071
63.7136
45.1471
32.7314
24.6494
19.0239
15.29
13.0012
11.5984
10.8264
10.6049
11.0102
12.3016
15.4576
23.4387
50.0323
179.526
940.192
4276.19
1.95778
2.14356
2.49081
3.05159
4.07704
6.52155
12.4039
25.0152
48.135
85.0982
137.004
201.683
274.938
352.889
433.21
515.731
602.996
701.418
822.618
995.924
1278.47
2177.86
3353.37
1.84952
1.7766
1.72267
1.68087
1.64866
1.62645
1.61109
1.60046
1.59419
1.5907
1.58929
1.58913
1.59264
1.59787
1.6045
1.6132
1.62307
1.63452
1.6474
1.66166
1.6775
1.69476
1.71374
1.73437
1.75694
1.7815
1.80835
1.83764
1.86971
5072.43
4346.19
3470.79
2799.81
2272.75
1851.4
1505.09