/*--------------------------------*- C++ -*----------------------------------*\
  =========                 |
  \\      /  F ield         | OpenFOAM: The Open Source CFD Toolbox
   \\    /   O peration     | Website:  https://openfoam.org
    \\  /    A nd           | Version:  8
     \\/     M anipulation  |
\*---------------------------------------------------------------------------*/
FoamFile
{
    version     2.0;
    format      ascii;
    class       volScalarField;
    location    "0.02";
    object      p;
}
// * * * * * * * * * * * * * * * * * * * * * * * * * * * * * * * * * * * * * //

dimensions      [0 2 -2 0 0 0 0];

internalField   nonuniform List<scalar> 
15677
(
59.9795
59.6229
59.2101
59.6874
59.1983
59.2119
59.6625
59.2255
59.2213
59.1053
59.6371
59.2269
59.2215
59.1143
59.0137
59.6153
59.2292
59.2214
59.1136
59.0213
58.9173
59.5919
59.2315
59.221
59.1147
59.0212
58.9239
58.8024
59.5667
59.234
59.2202
59.115
59.0222
58.9239
58.8082
58.665
59.5406
59.2371
59.2188
59.1151
59.0227
58.9249
58.8083
58.6699
58.4978
59.5133
59.2392
59.2168
59.115
59.0232
58.9255
58.8092
58.6701
58.5019
58.2935
59.4847
59.2406
59.2142
59.1145
59.0236
58.9261
58.8099
58.6712
58.5023
58.2967
58.0447
59.4552
59.2423
59.2109
59.1143
59.024
58.9268
58.8107
58.672
58.5034
58.2972
58.0469
57.7433
59.4253
59.2434
59.2076
59.1144
59.0246
58.9276
58.8118
58.6732
58.5045
58.2986
58.0475
57.7444
57.3811
59.3955
59.2434
59.2041
59.1148
59.0256
58.9289
58.8132
58.6747
58.5061
58.3
58.0491
57.7453
57.3811
56.9497
59.3689
59.2422
59.2006
59.1157
59.0273
58.9309
58.8153
58.6768
58.5082
58.3021
58.051
57.7471
57.3821
56.9485
56.4405
59.346
59.2401
59.1971
59.1171
59.0299
58.9339
58.8186
58.68
58.5113
58.3051
58.0538
57.7495
57.3842
56.9497
56.4382
55.8461
59.3261
59.2381
59.1943
59.1191
59.0339
58.9385
58.8235
58.6848
58.5159
58.3094
58.0578
57.7531
57.3872
56.952
56.4395
55.8424
55.1592
59.3087
59.2361
59.1921
59.1217
59.0393
58.9451
58.8306
58.6919
58.5227
58.3157
58.0636
57.7583
57.3918
56.9557
56.4421
55.8439
55.1542
54.3735
59.2936
59.2342
59.1905
59.1247
59.046
58.9542
58.8407
58.7022
58.5326
58.325
58.0721
57.7659
57.3983
56.9612
56.4466
55.8469
55.1559
54.3669
53.4838
59.2805
59.2323
59.1895
59.1282
59.0534
58.9653
58.8545
58.7166
58.5469
58.3386
58.0845
57.777
57.4079
56.9693
56.4532
55.8521
55.1592
54.3689
53.4757
52.4869
59.2694
59.2307
59.189
59.132
59.0615
58.9774
58.8712
58.7363
58.5669
58.358
58.1025
57.7932
57.4221
56.9813
56.4631
55.86
55.1651
54.3725
53.4779
52.4771
51.381
59.2605
59.2292
59.1891
59.1363
59.0703
58.9906
58.8894
58.7603
58.5942
58.385
58.1282
57.8166
57.4427
56.9989
56.4777
55.8717
55.1742
54.3792
53.4818
52.4796
51.3695
50.166
59.2536
59.2277
59.1896
59.141
59.0797
59.0049
58.9094
58.7864
58.6274
58.4219
58.164
57.8499
57.4726
57.0247
56.4992
55.8892
55.1879
54.3896
53.4894
52.4838
51.3722
50.1526
48.8436
59.2484
59.2263
59.1904
59.146
59.0895
59.02
58.9308
58.8148
58.6635
58.4667
58.2128
57.8963
57.515
57.0621
56.5309
55.9151
55.2082
54.4051
53.501
52.4922
51.3767
50.1555
48.8283
47.4173
59.2443
59.2252
59.1915
59.1511
59.0997
59.0359
58.9534
58.8454
58.7029
58.5155
58.2721
57.9597
57.5742
57.1152
56.5769
55.9532
55.2388
54.4287
53.5186
52.505
51.3857
50.1602
48.8314
47.3999
45.8923
59.241
59.2243
59.1926
59.1558
59.1098
59.0523
58.9772
58.8778
58.7453
58.5688
58.3367
58.0367
57.655
57.1894
56.6423
56.0087
55.284
54.4641
53.5453
52.5245
51.3996
50.1698
48.8361
47.4032
45.8728
44.2752
59.2384
59.2235
59.1938
59.1602
59.1191
59.0685
59.0017
58.9117
58.7902
58.6262
58.4075
58.1208
57.7535
57.2909
56.7338
56.088
55.3501
54.5169
53.5858
52.5543
51.4208
50.1846
48.8461
47.4079
45.8762
44.2535
42.5744
59.2363
59.2229
59.1949
59.1642
59.1275
59.0833
59.0257
58.9467
58.8372
58.687
58.4836
58.213
57.8611
57.4148
56.8593
56.1991
55.4448
54.5944
53.6465
52.5999
51.4536
50.2072
48.8614
47.4181
45.8806
44.2569
42.5504
40.7983
59.2346
59.2224
59.196
59.1678
59.1351
59.0967
59.0478
58.981
58.8857
58.7507
58.5644
58.3124
57.9793
57.5503
57.0126
56.3519
55.5778
54.7058
53.736
52.6687
51.504
50.2425
48.8852
47.4336
45.8907
44.2609
42.5539
40.772
38.9581
59.2332
59.222
59.1969
59.1711
59.1418
59.1087
59.0677
59.0125
58.9333
58.8166
58.6491
58.4179
58.1068
57.6994
57.1808
56.539
55.7611
54.8627
53.8652
52.7706
51.5808
50.2976
48.9226
47.4579
45.906
44.2707
42.5573
40.7755
38.93
37.057
59.232
59.2216
59.1976
59.1742
59.1479
59.1195
59.0855
59.0409
58.977
58.8811
58.7368
58.5285
58.2423
57.8605
57.3661
56.7447
55.9862
55.0796
54.0478
52.9183
51.6951
50.3819
48.9816
47.4967
45.9303
44.2853
42.5664
40.7781
38.9337
37.0281
34.9312
59.2311
59.2214
59.1983
59.177
59.1533
59.129
59.1015
59.0663
59.0164
58.9404
58.8228
58.6433
58.3846
58.032
57.5667
56.9717
56.2341
55.3467
54.3009
53.1278
51.8617
50.5084
49.0728
47.5589
45.9699
44.309
42.5799
40.7863
38.9356
37.0331
34.8967
32.5265
59.2302
59.2212
59.1989
59.1794
59.158
59.1375
59.1156
59.0891
59.0517
58.9939
58.9017
58.7559
58.5324
58.2123
57.7805
57.2178
56.5084
55.6414
54.6134
53.4192
52.0989
50.6936
49.2108
47.6561
46.0342
44.3483
42.6021
40.7981
38.9426
37.0351
34.8978
32.4873
30.0665
59.2296
59.221
59.1995
59.1816
59.1623
59.1451
59.1282
59.1093
59.0832
59.0419
58.9731
58.8594
58.6776
58.3999
58.0058
57.4809
56.8063
55.9682
54.9591
53.78
52.4299
50.9586
49.4141
47.8045
46.1362
44.4136
42.6402
40.8182
38.9522
37.0414
34.8959
32.4868
30.028
27.6238
59.229
59.2208
59.2001
59.1835
59.166
59.1518
59.1394
59.1273
59.1113
59.0848
59.0371
58.953
58.8113
58.5845
58.2405
57.7585
57.1254
56.3241
55.3434
54.1803
52.841
51.3297
49.7062
48.0246
46.2935
44.5189
42.7051
40.854
38.9693
37.0487
34.8975
32.4809
30.0294
27.583
25.2148
59.2207
59.2283
59.2006
59.1852
59.1693
59.1577
59.1493
59.1432
59.1363
59.123
59.0944
59.0371
58.9323
58.7546
58.4719
58.0482
57.463
56.7062
55.763
54.6263
53.2985
51.7923
50.117
48.3425
46.5286
44.6833
42.812
40.9172
39.0016
37.0624
34.8991
32.4773
30.023
27.5835
25.1714
22.8495
59.2011
59.2206
59.2275
59.1867
59.1723
59.1629
59.1581
59.1573
59.1584
59.1569
59.1454
59.1124
59.0411
58.9088
58.6856
58.3345
57.8161
57.1113
56.2145
55.1146
53.8097
52.3086
50.6309
48.7915
46.8701
44.931
42.9812
41.0238
39.0613
37.0902
34.906
32.4719
30.0174
27.5744
25.1709
22.8036
20.5421
59.188
59.2018
59.2205
59.2268
59.1749
59.1676
59.1659
59.1699
59.1781
59.1871
59.1908
59.1794
59.1385
59.0476
58.8795
58.5994
58.1658
57.5362
56.6946
55.6416
54.3709
52.8872
51.2064
49.3556
47.3549
45.2934
43.2388
41.1953
39.1655
37.1449
34.9261
32.4699
30.0072
27.5648
25.1587
22.8023
20.4938
18.3057
59.1771
59.1898
59.2027
59.2204
59.2261
59.1717
59.1728
59.181
59.1955
59.2138
59.231
59.2391
59.2254
59.172
59.0543
58.8401
58.49
57.9581
57.1997
56.2037
54.9786
53.5245
51.8534
49.9893
47.9665
45.8105
43.6184
41.4595
39.3365
37.2444
34.9727
32.4794
29.9975
27.548
25.1441
22.7867
20.4916
18.2551
16.1511
59.1752
59.1802
59.1919
59.2037
59.2204
59.2255
59.1789
59.1908
59.2109
59.2374
59.2667
59.292
59.3027
59.2831
59.2111
59.0576
58.7854
58.3503
57.7027
56.7968
55.6288
54.2168
52.5685
50.7042
48.6561
46.4657
44.1634
41.8524
39.6037
37.412
35.0641
32.5141
29.9965
27.5291
25.1194
22.7669
20.4722
18.2517
16.0973
14.0885
59.1841
59.18
59.1836
59.1939
59.2046
59.2203
59.2249
59.1995
59.2246
59.2584
59.2984
59.339
59.3715
59.382
59.3513
59.2529
59.0526
58.7085
58.1716
57.3897
56.3174
54.9602
53.348
51.4971
49.4368
47.2073
44.8571
42.4199
40.0051
37.6785
35.2244
32.5929
30.0183
27.5159
25.0896
22.7339
20.4469
18.2281
16.0921
14.0311
12.158
59.2069
59.191
59.185
59.1871
59.196
59.2055
59.2203
59.2243
59.2367
59.277
59.3264
59.3807
59.4325
59.47
59.4763
59.4278
59.2931
59.0331
58.6009
57.944
57.0081
55.7505
54.1883
52.3649
50.3059
48.05
45.6453
43.1457
40.5888
38.0835
35.4857
32.7406
30.0822
27.5227
25.0623
22.6925
20.4049
18.1967
16.0635
14.0196
12.0369
10.2856
59.2469
59.2166
59.1979
59.19
59.1904
59.1979
59.2064
59.2202
59.2238
59.2936
59.3514
59.4177
59.4866
59.5482
59.5876
59.5838
59.5087
59.3259
58.991
58.4529
57.6562
56.5464
55.0852
53.304
51.2611
48.9921
46.5448
43.9739
41.3394
38.6766
35.8889
32.9905
30.2138
27.569
25.052
22.6499
20.3511
18.1451
16.0253
13.9852
12.0313
10.1333
8.45118
59.3075
59.2602
59.2259
59.205
59.195
59.1937
59.1998
59.2074
59.2202
59.2233
59.3735
59.4506
59.5346
59.6175
59.6865
59.7229
59.7014
59.5888
59.3436
58.9167
58.2531
57.2959
55.9923
54.3107
52.2992
50.0318
47.5545
44.9231
42.1998
39.4435
36.4846
33.3836
30.4467
27.6809
25.0782
22.6209
20.2924
18.0781
15.9634
13.9393
11.993
10.1383
8.34353
6.73003
59.392
59.3254
59.2725
59.2354
59.2119
59.1998
59.1969
59.2017
59.2083
59.2202
59.2229
59.4797
59.5773
59.6791
59.7743
59.8467
59.8733
59.8241
59.6608
59.3368
58.7986
57.9888
56.8501
55.3337
53.4171
51.1667
48.6738
45.9934
43.1904
40.3272
37.2602
33.9708
30.8212
27.8913
25.1669
22.625
20.2436
18.0024
15.8826
13.8663
11.9404
10.0906
8.34377
6.64501
5.10675
59.504
59.4158
59.3412
59.285
59.2447
59.2185
59.2045
59.2
59.2035
59.2091
59.2201
59.2225
59.6152
59.734
59.8524
59.9567
60.0264
60.0344
59.9452
59.7156
59.2941
58.6239
57.6459
56.3051
54.5584
52.3949
49.9014
47.1853
44.3124
41.3494
38.1593
34.7425
31.3881
28.2393
25.3496
22.6877
20.2242
17.933
15.7895
13.7714
11.8571
10.0318
8.28168
6.6321
5.03173
3.56911
59.6466
59.5354
59.436
59.3575
59.2972
59.2536
59.2249
59.2089
59.2029
59.2052
59.21
59.2201
59.2222
59.7825
59.922
60.0545
60.1627
60.2219
60.1998
60.056
59.742
59.2025
58.378
57.21
55.6472
53.6551
51.2364
48.4989
45.5679
42.5127
39.2049
35.6436
32.141
28.7751
25.6641
22.8384
20.2585
17.889
15.699
13.6606
11.7485
9.93865
8.21713
6.56196
5.00678
3.50363
2.11702
59.8226
59.6876
59.5608
59.4569
59.3733
59.3089
59.2621
59.231
59.2132
59.2057
59.2069
59.2108
59.2201
59.2219
59.9835
60.1417
60.284
60.3889
60.4271
60.3611
60.1454
59.7268
59.047
58.0454
56.6657
54.8631
52.6136
49.935
46.9588
43.8208
40.4011
36.6977
33.027
29.4953
26.1589
23.1131
20.3736
17.893
15.6298
13.549
11.6204
9.81679
8.11333
6.49413
4.93229
3.4697
2.06055
0.750321
60.0339
59.8756
59.7193
59.5874
59.4771
59.3883
59.3199
59.2702
59.2368
59.2172
59.2083
59.2084
59.2116
59.2201
59.2216
60.219
60.3923
60.5378
60.6299
60.6341
60.5077
60.2002
59.655
58.8113
57.6096
55.998
53.9403
51.4246
48.4875
45.2777
41.7539
37.9111
34.0698
30.3498
26.8335
23.5583
20.6034
17.9697
15.602
13.4541
11.4881
9.67208
7.97837
6.38011
4.86133
3.39263
2.01979
0.700959
-0.533507
60.2817
60.102
59.9148
59.7527
59.6129
59.4961
59.4024
59.3303
59.2777
59.2423
59.221
59.2109
59.2099
59.2123
59.2201
59.2214
60.4881
60.6709
60.8108
60.8779
60.8323
60.6264
60.2054
59.5096
58.4781
57.0542
55.1924
52.867
50.0822
46.8881
43.2695
39.2922
35.278
31.3621
27.6409
24.1752
20.9915
18.1507
15.6384
13.394
11.3677
9.51968
7.8176
6.23312
4.73778
3.31772
1.9412
0.655141
-0.577352
-1.73782
60.5655
60.3681
60.1502
59.9567
59.7848
59.6368
59.5139
59.4155
59.3399
59.2848
59.2473
59.2245
59.2132
59.2111
59.2129
59.2201
59.2212
60.7885
60.9728
61.0957
61.1228
61.009
60.7019
60.1434
59.2725
58.0295
56.3625
54.2348
51.6349
48.578
44.9554
40.8502
36.6625
32.5426
28.6038
24.9209
21.5401
18.4754
15.7677
13.3889
11.275
9.37422
7.64589
6.05726
4.5802
3.1855
1.86158
0.575405
-0.626831
-1.77725
-2.86613
60.8832
60.674
60.4273
60.2023
59.9967
59.8146
59.659
59.5303
59.4276
59.3488
59.2912
59.2519
59.2277
59.2152
59.2122
59.2135
59.2201
59.2211
61.1159
61.2911
61.3827
61.3518
61.1487
60.7167
59.9956
58.9245
57.4472
55.5187
53.1147
50.2323
46.7362
42.596
38.2358
33.9046
29.7339
25.8161
22.2107
18.9465
16.0241
13.4645
11.228
9.24949
7.47605
5.8672
4.39038
3.01848
1.72177
0.490638
-0.707744
-1.82949
-2.90207
-3.9223
61.2306
61.0183
60.7467
60.492
60.252
60.0337
59.8421
59.6793
59.5453
59.4387
59.3569
59.2971
59.2561
59.2306
59.217
59.2132
59.2139
59.2201
59.2209
61.4634
61.6162
61.6592
61.5499
61.2337
60.6514
59.7417
58.446
56.7135
54.5097
51.8167
48.4908
44.4553
40.0125
35.4634
31.0458
26.8727
23.0208
19.5302
16.4101
13.6489
11.2489
9.16064
7.3199
5.67393
4.18311
2.81567
1.54608
0.344214
-0.797747
-1.9116
-2.95667
-3.95656
-4.90499
61.601
61.3975
61.1075
60.8267
60.5534
60.2976
60.0675
59.8671
59.6977
59.5589
59.4486
59.3641
59.3023
59.2597
59.233
59.2185
59.214
59.2144
59.2201
59.2208
61.8219
61.9358
61.9102
61.6989
61.2443
60.485
59.361
57.8178
55.813
53.317
50.1816
46.3019
41.9195
37.235
32.5552
28.1046
23.9809
20.239
16.8967
13.944
11.3588
9.12639
7.18991
5.4873
3.96749
2.59234
1.33114
0.160364
-0.950039
-2.0066
-3.03985
-4.01272
-4.94293
-5.72655
61.9853
61.8059
61.5069
61.2063
60.9025
60.6096
60.3392
60.0981
59.8895
59.7141
59.5708
59.4572
59.3703
59.3066
59.2626
59.2349
59.2197
59.2147
59.2147
59.2201
59.2207
62.1791
62.2351
62.1176
61.7788
61.1585
60.1955
58.8324
57.0215
54.7246
51.792
48.093
43.8247
39.1465
34.2772
29.5263
25.1026
21.0808
17.4899
14.3249
11.5585
9.16036
7.10072
5.31722
3.75158
2.35549
1.09282
-0.0658408
-1.14163
-2.16421
-3.13949
-4.09634
-5.00036
-5.74913
-6.41913
62.3714
62.2354
61.9399
61.6285
61.2995
60.9715
60.6605
60.3765
60.1253
59.9092
59.7283
59.581
59.4645
59.3754
59.3101
59.265
59.2366
59.2207
59.2153
59.215
59.2201
59.2207
62.5203
62.496
62.2611
61.767
60.9536
59.7604
58.1355
56.0352
53.3101
49.8057
45.6777
41.0623
36.1431
31.1536
26.4008
22.0659
18.1952
14.791
11.8276
9.26203
7.05835
5.17381
3.54267
2.11162
0.835876
-0.318156
-1.37825
-2.3631
-3.30195
-4.20006
-5.08439
-5.8025
-6.42519
-7.13756
62.7441
62.675
62.3994
62.0895
61.743
61.3841
61.0337
60.7058
60.4093
60.1489
59.926
59.7403
59.5894
59.4703
59.3793
59.3128
59.2669
59.2379
59.2216
59.2158
59.2153
59.2201
59.2206
62.8271
62.698
62.3176
61.6402
60.6056
59.1574
57.2476
54.7281
51.4228
47.4517
42.9324
38.0259
32.9327
27.8972
23.2118
19.0227
15.3462
12.1586
9.41536
7.06086
5.05559
3.34624
1.86535
0.565431
-0.594074
-1.64367
-2.60935
-3.50767
-4.36698
-5.19178
-5.88615
-6.47785
-7.14931
-7.91598
63.0849
63.1109
62.8754
62.5829
62.2299
61.8468
61.4601
61.0889
60.7454
60.4374
60.1686
59.9398
59.7498
59.5958
59.4746
59.3823
59.3148
59.2683
59.2389
59.2222
59.2161
59.2155
59.2201
59.2206
63.0789
62.8177
62.263
61.3727
60.0906
58.3631
56.0422
52.934
49.1305
44.7359
39.8871
34.7569
29.5615
24.551
19.9953
16.0012
12.5545
9.60669
7.09677
4.95928
3.15343
1.61743
0.283364
-0.8897
-1.93743
-2.88703
-3.76283
-4.57903
-5.36287
-5.99597
-6.56051
-7.20795
-7.93391
-8.76982
63.3724
63.5261
63.3552
63.1001
62.7549
62.3569
61.9397
61.5273
61.1367
60.779
60.4606
60.1844
59.9503
59.7566
59.6002
59.4775
59.3842
59.3163
59.2693
59.2397
59.2227
59.2164
59.2156
59.2201
59.2205
63.2516
62.8303
62.0706
60.9395
59.384
57.252
54.3353
50.7067
46.4627
41.7146
36.6007
31.3107
26.0784
21.1566
16.7852
13.0274
9.83833
7.14669
4.87809
2.9599
1.35197
-0.0141886
-1.20592
-2.25685
-3.19755
-4.05196
-4.84245
-5.58079
-6.17065
-6.67341
-7.2909
-7.99753
-8.7892
-9.70044
63.5816
63.9009
63.8229
63.6296
63.3103
62.9104
62.4707
62.0216
61.5852
61.1768
60.8062
60.4787
60.196
59.9574
59.7608
59.6028
59.4791
59.3854
59.3171
59.27
59.2402
59.2231
59.2167
59.2158
59.2201
59.2205
63.3195
62.7083
61.7141
60.3143
58.3593
55.6278
52.1792
48.1071
43.4983
38.4537
33.1273
27.7337
22.5251
17.7508
13.6112
10.1232
7.21241
4.78739
2.76356
1.06383
-0.349863
-1.55105
-2.60553
-3.53939
-4.37822
-5.14229
-5.85189
-6.39323
-6.85029
-7.40786
-8.08219
-8.8542
-9.71936
-10.711
63.6855
64.2121
64.2598
64.1571
63.8861
63.5005
63.0495
62.5706
62.0918
61.6333
61.2089
60.8269
60.4914
60.2032
59.9613
59.7629
59.6039
59.4798
59.3858
59.3175
59.2703
59.2404
59.2233
59.2169
59.2159
59.2201
59.2205
63.254
62.4243
61.1655
59.3685
56.8142
53.5493
49.6648
45.2261
40.2983
34.9963
29.5028
24.0613
18.9371
14.3659
10.4992
7.30709
4.68822
2.53495
0.755594
-0.729187
-1.95409
-2.99604
-3.91882
-4.74114
-5.48331
-6.16173
-6.67061
-7.0772
-7.58733
-8.20409
-8.94078
-9.7846
-10.729
-11.8082
63.6533
64.4347
64.6438
64.6653
64.4693
64.1184
63.6707
63.1716
62.6561
62.1499
61.6714
61.2327
60.8407
60.4985
60.2064
59.9623
59.7629
59.6036
59.4794
59.3856
59.3174
59.2703
59.2405
59.2236
59.2171
59.2159
59.2201
59.2205
63.0257
61.9478
60.2938
57.9001
54.8183
51.1318
46.8849
42.1123
36.8912
31.3654
25.7532
20.324
15.3458
11.0294
7.47047
4.59327
2.27411
0.393255
-1.14517
-2.42065
-3.46332
-4.3524
-5.14962
-5.866
-6.51657
-6.98854
-7.3596
-7.81912
-8.38693
-9.06785
-9.8731
-10.7946
-11.825
-12.9995
63.4523
64.5409
64.9503
65.1338
65.0442
64.7526
64.3266
63.8202
63.276
62.7266
62.1955
61.6991
61.2479
60.8475
60.5005
60.2059
59.9609
59.7612
59.6021
59.4783
59.3848
59.3168
59.27
59.2408
59.2239
59.2172
59.2159
59.2201
59.2206
62.6011
61.1457
58.9026
55.9895
52.5035
48.4629
43.8734
38.7808
33.2887
27.5777
21.9022
16.5501
11.7796
7.76523
4.54205
1.99246
-0.0243463
-1.63595
-2.93957
-4.0128
-4.88061
-5.62394
-6.30186
-6.91779
-7.35459
-7.68455
-8.10688
-8.62407
-9.25463
-10.0052
-10.8853
-11.891
-13.0148
-14.2921
63.0435
64.5025
65.1518
65.5395
65.5921
65.389
65.0071
64.5097
63.9481
63.362
62.7816
62.2281
61.716
61.2543
60.8481
60.4981
60.2023
59.9572
59.758
59.5995
59.4764
59.3834
59.3159
59.2702
59.2413
59.2241
59.2172
59.2159
59.2201
59.2206
61.8425
59.8322
57.0806
53.7784
49.9487
45.5624
40.6352
35.2348
29.4991
23.65
17.9745
12.768
8.26491
4.59354
1.72723
-0.487861
-2.20416
-3.55277
-4.62943
-5.5085
-6.20969
-6.81457
-7.37938
-7.77088
-8.05997
-8.4395
-8.91774
-9.49762
-10.1963
-11.0223
-11.9838
-13.0809
-14.3059
-15.694
64.2855
62.2865
65.2184
65.8565
66.0914
66.0104
65.6995
65.2314
64.6667
64.0535
63.429
62.8206
62.2474
61.7221
61.2529
60.843
60.4918
60.1961
59.9517
59.7536
59.5961
59.4737
59.3814
59.3159
59.2711
59.2416
59.2241
59.2171
59.2158
59.2201
59.2207
60.5778
58.1001
54.9737
51.3365
47.1622
42.4284
37.1673
31.4758
25.5327
19.6022
13.9969
9.00589
4.82527
1.53084
-0.964187
-2.84323
-4.26456
-5.35854
-6.21736
-6.9114
-7.45447
-7.92817
-8.25346
-8.48899
-8.82502
-9.25867
-9.79775
-10.4456
-11.2182
-12.1259
-13.176
-14.372
-15.7062
-17.2132
65.1188
63.7595
61.0086
66.0556
66.5179
66.5969
66.3884
65.9741
65.4243
64.7963
64.1356
63.4764
62.8433
62.2534
61.7185
61.2448
60.8333
60.4821
60.1875
59.9446
59.7479
59.5915
59.4702
59.3812
59.3172
59.2715
59.2416
59.2239
59.2169
59.2156
59.2201
59.2207
58.9049
56.096
52.6437
48.6629
44.1379
39.0544
33.4667
27.5082
21.4036
15.4581
9.99866
5.29122
1.48184
-1.40962
-3.52568
-5.0718
-6.20634
-7.05562
-7.70695
-8.22547
-8.61887
-8.83165
-8.98927
-9.26785
-9.65514
-10.1477
-10.7527
-11.4742
-12.3271
-13.3232
-14.4693
-15.7722
-17.2239
-18.8584
66.1071
64.7436
62.7897
59.3296
66.8438
67.126
67.0556
66.724
66.2111
65.5843
64.8979
64.194
63.5038
62.8496
62.2475
61.7067
61.2308
60.8195
60.4697
60.177
59.9361
59.7409
59.586
59.4695
59.383
59.3178
59.2715
59.2413
59.2236
59.2167
59.2155
59.2201
59.2208
56.9711
53.8761
50.0825
45.7493
40.8676
35.4344
29.5327
23.3397
17.1305
11.2455
6.01012
1.65032
-1.74715
-4.21807
-5.95367
-7.17358
-8.03158
-8.64756
-9.10221
-9.45471
-9.56361
-9.59225
-9.7873
-10.113
-10.556
-11.1125
-11.789
-12.5902
-13.5302
-14.6219
-15.8717
-17.2897
-18.8675
-20.638
67.0424
65.9185
63.9338
61.4483
57.4028
67.5714
67.6802
67.4647
67.015
66.4088
65.7104
64.9707
64.228
63.5112
62.8414
62.2315
61.6878
61.2119
60.8022
60.4549
60.1648
59.9258
59.7326
59.5847
59.472
59.3837
59.3178
59.2711
59.2408
59.2233
59.2164
59.2153
59.2201
59.2209
54.8289
51.4265
47.2808
42.587
37.344
31.5642
25.3671
18.9826
12.7372
6.99555
2.06234
-1.89254
-4.84689
-6.88795
-8.24676
-9.15015
-9.74376
-10.1384
-10.4073
-10.4519
-10.3589
-10.4172
-10.6532
-11.0301
-11.5337
-12.1593
-12.9133
-13.8009
-14.8352
-16.0298
-17.3915
-18.9331
-20.6457
-22.5609
67.9092
67.0428
65.3362
62.7579
59.8479
55.2793
68.2376
68.177
67.8214
67.2595
66.566
65.8019
65.0139
64.2378
63.501
62.8209
62.2069
61.6628
61.1889
60.7821
60.4381
60.1504
59.914
59.7303
59.5879
59.473
59.3837
59.3172
59.2702
59.2405
59.2231
59.2161
59.215
59.2201
59.2211
52.4582
48.7378
44.2307
39.1689
33.5611
27.4409
20.9748
14.4535
8.25207
2.74209
-1.81422
-5.31611
-7.80616
-9.41536
-10.4055
-11.0047
-11.347
-11.5326
-11.4657
-11.2913
-11.2215
-11.3123
-11.593
-12.0254
-12.5944
-13.295
-14.1329
-15.1138
-16.2499
-17.5554
-19.0372
-20.711
-22.5672
-24.635
68.7065
68.0927
66.6913
64.4015
61.3204
58.0502
52.9315
68.8382
68.613
68.1232
67.4557
66.6817
65.8578
65.0278
64.2262
63.4759
62.79
62.175
61.6329
61.1624
60.7596
60.4185
60.134
59.9104
59.7347
59.5893
59.473
59.383
59.3159
59.27
59.2404
59.2227
59.2157
59.2147
59.2201
59.2212
49.8493
45.8036
40.9261
35.4888
29.513
23.0628
16.3637
9.77427
3.70838
-1.47941
-5.59107
-8.60283
-10.6169
-11.7988
-12.4323
-12.7414
-12.8459
-12.6629
-12.3564
-12.2016
-12.1574
-12.2837
-12.6129
-13.1053
-13.7452
-14.5269
-15.4554
-16.537
-17.7827
-19.2071
-20.8174
-22.632
-24.6396
-26.8721
69.4291
69.0666
67.9666
66.002
63.2021
59.7058
56.0315
50.3478
69.3686
68.9848
68.368
67.6025
66.7548
65.8783
65.0159
64.1966
63.4382
62.7503
62.1371
61.5988
61.133
60.7338
60.3965
60.1288
59.9161
59.7365
59.5893
59.472
59.3812
59.3159
59.2703
59.2401
59.2222
59.2152
59.2144
59.2201
59.2214
46.9977
42.6206
37.3624
31.5397
25.1933
18.4284
11.5452
4.9728
-0.856384
-5.63347
-9.24287
-11.7387
-13.2741
-14.0393
-14.331
-14.3649
-14.0608
-13.6137
-13.3223
-13.1892
-13.173
-13.3378
-13.7193
-14.2768
-14.9933
-15.8625
-16.8889
-18.0787
-19.4421
-20.9934
-22.7404
-24.7036
-26.8735
-29.6942
70.0714
69.9576
69.1627
67.5173
65.045
61.8385
57.8974
53.7807
47.5241
69.8248
69.2897
68.5543
67.6983
66.7853
65.8677
64.9821
64.1517
63.3898
62.7033
62.0942
61.5613
61.0997
60.705
60.3891
60.1361
59.9184
59.7365
59.5879
59.4695
59.3814
59.3168
59.2703
59.2396
59.2215
59.2147
59.2139
59.2201
59.2216
43.9028
39.1863
33.5329
27.3129
20.5928
13.5363
6.53621
0.083376
-5.40175
-9.68619
-12.7478
-14.7135
-15.7762
-16.1396
-16.1061
-15.6806
-15.0824
-14.6445
-14.3698
-14.2605
-14.2748
-14.4813
-14.9195
-15.5472
-16.3464
-17.31
-18.4415
-19.7473
-21.2365
-22.9225
-24.814
-26.9335
-29.6991
-33.0511
70.6284
70.7578
70.272
68.95
66.7985
63.9297
60.3032
55.8802
51.2989
44.4608
70.2034
69.5258
68.6801
67.7432
66.7783
65.8308
64.9301
64.0941
63.3328
62.6504
62.0473
61.5191
61.0627
60.6949
60.3985
60.139
59.9184
59.7347
59.5846
59.4702
59.3834
59.3174
59.27
59.2389
59.2207
59.214
59.2135
59.2201
59.2219
40.5646
35.4963
29.4295
22.794
15.6978
8.38868
1.36144
-4.85303
-9.88599
-13.6062
-16.0882
-17.5215
-18.1241
-18.1037
-17.5446
-16.7865
-16.1896
-15.762
-15.5057
-15.4224
-15.4697
-15.7216
-16.221
-16.9244
-17.8126
-18.8776
-20.1219
-21.5515
-23.1741
-25.0024
-27.0447
-29.7629
-33.0566
-36.4564
71.0956
71.4597
71.2849
70.2933
68.4665
65.9264
62.6589
58.5786
53.6543
48.5925
41.1595
70.5016
69.6904
68.745
67.743
66.7396
65.7718
64.8627
64.026
63.2687
62.5928
61.9947
61.4724
61.0493
60.7067
60.4021
60.139
59.9161
59.7303
59.586
59.4737
59.3849
59.3175
59.2693
59.2379
59.2197
59.2132
59.2129
59.2201
59.2222
36.9806
31.5449
25.0363
17.9625
10.4991
2.99901
-3.94341
-9.78995
-14.2674
-17.366
-19.2519
-20.1601
-20.3205
-19.6955
-18.7534
-17.9846
-17.3894
-16.9733
-16.7371
-16.6821
-16.7653
-17.0661
-17.6316
-18.4165
-19.4002
-20.5737
-21.9384
-23.4993
-25.2627
-27.2388
-29.8814
-33.1252
-36.4574
-39.8462
71.4696
72.0568
72.1912
71.5362
70.043
67.8325
64.9151
61.2118
56.6646
51.2275
45.6709
37.6196
70.7157
69.7824
68.7558
67.7048
66.6744
65.6944
64.7828
63.9496
63.199
62.5284
61.9368
61.4552
61.0641
60.7112
60.4021
60.1361
59.9104
59.7327
59.5916
59.4765
59.3856
59.3171
59.2683
59.2365
59.2184
59.2122
59.2123
59.2201
59.2225
33.1476
27.3206
20.3309
12.7954
4.98893
-2.61059
-9.33085
-14.676
-18.5061
-20.9437
-22.2308
-22.6299
-22.1005
-21.0326
-20.0623
-19.2824
-18.6891
-18.2855
-18.0713
-18.0472
-18.1693
-18.523
-19.1595
-20.0318
-21.1177
-22.4069
-23.8992
-25.5985
-27.5078
-30.0846
-33.2498
-36.5215
-39.8456
-43.1806
71.7455
72.5438
72.9814
72.6674
71.5168
69.6417
67.0759
63.7397
59.5863
54.57
48.614
42.5441
33.8389
70.8439
69.8098
68.721
67.6347
66.5872
65.602
64.6929
63.8664
63.1213
62.4576
61.915
61.4734
61.0696
60.7112
60.3985
60.1288
59.9141
59.741
59.5962
59.4783
59.3858
59.3162
59.2668
59.2349
59.2169
59.2111
59.2116
59.2201
59.2229
29.0584
22.799
15.2748
7.25551
-0.84356
-8.41095
-14.7445
-19.4576
-22.5671
-24.3231
-25.0217
-24.6315
-23.5949
-22.4798
-21.4795
-20.6876
-20.0964
-19.7063
-19.5161
-19.5255
-19.6898
-20.1003
-20.8131
-21.7787
-22.9734
-24.3851
-26.0119
-27.8547
-30.366
-33.4643
-36.6437
-39.9115
-43.1777
-46.4401
71.9203
72.9143
73.6457
73.6753
72.8763
71.3428
69.1341
66.1676
62.3948
57.7915
52.3113
45.8317
39.2209
29.8164
70.8948
69.7824
68.648
67.5382
66.482
65.4977
64.595
63.7739
63.0358
62.4306
61.9373
61.4801
61.0696
60.7067
60.3891
60.1341
59.926
59.7481
59.5996
59.4795
59.3854
59.3148
59.2649
59.2329
59.2152
59.2099
59.2108
59.2201
59.2234
24.6932
17.9393
9.81158
1.30033
-6.9996
-14.3584
-20.1214
-24.0826
-26.4213
-27.4939
-27.2838
-26.3106
-25.2109
-24.0457
-23.0129
-22.2079
-21.6189
-21.2436
-21.0795
-21.1253
-21.3349
-21.8066
-22.6006
-23.6655
-24.9754
-26.516
-28.2821
-30.7269
-33.7601
-36.8618
-40.0312
-43.2428
-46.4362
-49.6081
72.0033
73.163
74.1724
74.5482
74.1086
72.9243
71.0779
68.4888
65.0965
60.8884
55.8447
49.9099
42.8992
35.7149
25.5449
70.8803
69.7093
68.5434
67.4202
66.3626
65.3841
64.4862
63.672
63.003
62.4577
61.9453
61.4801
61.0641
60.6949
60.3967
60.1507
59.9364
59.7537
59.6022
59.4798
59.3842
59.3127
59.2625
59.2305
59.2132
59.2084
59.21
59.2202
59.2238
20.0221
12.6894
3.87887
-5.10596
-13.4589
-20.3897
-25.3934
-28.5022
-30.0467
-30.0646
-29.1796
-28.125
-26.9579
-25.7385
-24.6705
-23.8512
-23.2647
-22.9056
-22.7696
-22.8547
-23.1131
-23.6499
-24.5304
-25.7002
-27.1309
-28.8049
-31.1718
-34.1371
-37.1651
-40.2508
-43.366
-46.4962
-49.6053
-52.6404
72.0086
73.3002
74.5493
75.2693
75.2003
74.3728
72.8941
70.6913
67.6865
63.868
59.2375
53.7687
47.3896
39.835
32.0353
21.0036
70.811
69.5985
68.413
67.2851
66.232
65.2575
64.3662
63.6327
63.0355
62.4671
61.9453
61.4734
61.0493
60.7052
60.4189
60.1652
59.9449
59.7582
59.6036
59.4791
59.3822
59.31
59.2596
59.2277
59.2108
59.2068
59.2091
59.2202
59.2243
15.0016
6.97359
-2.6029
-11.9841
-20.1771
-26.4236
-30.4903
-32.6739
-32.9881
-32.2168
-31.2255
-30.0836
-28.8437
-27.5659
-26.4601
-25.6256
-25.0419
-24.7002
-24.5946
-24.7218
-25.0323
-25.6384
-26.6099
-27.8897
-29.4452
-31.7173
-34.6015
-37.5529
-40.5586
-43.5912
-46.6231
-49.6646
-52.6366
-55.4841
71.9484
73.3425
74.7857
75.8177
76.1303
75.6753
74.5682
72.7619
70.1544
66.7281
62.4975
57.4659
51.5898
44.7739
36.6584
28.1832
16.1636
70.6965
69.4567
68.2622
67.1368
66.0864
65.1176
64.3197
63.6714
63.0466
62.4671
61.9373
61.4551
61.0629
60.7343
60.4385
60.1774
59.952
59.7613
59.6039
59.4774
59.3793
59.3065
59.2561
59.2245
59.2083
59.2052
59.2082
59.2202
59.2249
9.56277
0.673849
-9.72589
-19.3386
-27.0803
-32.363
-35.3412
-36.061
-35.4468
-34.536
-33.4302
-32.1937
-30.8756
-29.5355
-28.3895
-27.5389
-26.9583
-26.6354
-26.5624
-26.7346
-27.1003
-27.7792
-28.846
-30.239
-32.3883
-35.1717
-38.032
-40.9537
-43.9046
-46.8519
-49.7897
-52.6954
-55.483
-58.1035
71.8341
73.305
74.9008
76.1975
76.8699
76.8084
76.0853
74.6846
72.4884
69.4615
65.6265
61.0081
55.6005
49.3347
42.0868
33.3912
24.1616
10.9849
70.5449
69.2905
68.0956
66.971
65.925
65.0633
64.3653
63.6843
63.0466
62.4577
61.9149
61.4727
61.1003
60.7603
60.4554
60.1879
59.9574
59.763
59.6028
59.4745
59.3753
59.3022
59.2519
59.221
59.2056
59.2034
59.2073
59.2203
59.2255
3.59693
-6.38666
-17.6012
-27.1321
-34.066
-38.0797
-39.2983
-38.8862
-38.0892
-37.0291
-35.7992
-34.4611
-33.0599
-31.6542
-30.4659
-29.5986
-29.0216
-28.7188
-28.6804
-28.9003
-29.3239
-30.0786
-31.2431
-33.2245
-35.8759
-38.6224
-41.4438
-44.3067
-47.1697
-50.0151
-52.8157
-55.5404
-58.0995
-60.4471
71.6755
73.2013
74.9134
76.427
77.4183
77.7365
77.4188
76.442
74.6732
72.0592
68.6212
64.4029
59.4267
53.6698
47.0302
39.3546
30.0557
19.9721
5.40922
70.3641
69.1055
67.9086
66.7866
65.8621
65.1168
64.3803
63.6843
63.0355
62.4305
61.9371
61.5199
61.1338
60.7829
60.4702
60.1964
59.961
59.7628
59.6001
59.4702
59.3703
59.2971
59.2472
59.2171
59.2028
59.2016
59.2064
59.2203
59.2261
-3.07843
-14.5097
-26.2594
-35.3169
-40.9022
-42.7675
-42.5982
-41.9152
-40.9179
-39.6981
-38.3354
-36.89
-35.4019
-33.9281
-32.6959
-31.8115
-31.2387
-30.9573
-30.9554
-31.225
-31.7088
-32.5406
-34.2864
-36.7578
-39.3548
-42.0499
-44.806
-47.5773
-50.3304
-53.035
-55.656
-58.1563
-60.4424
-62.4655
71.4819
73.0434
74.8403
76.5253
77.794
78.455
78.5272
78.0022
76.6908
74.5085
71.4771
67.652
63.0838
57.7817
51.702
44.7045
36.6045
26.6719
15.626
-0.629597
70.1608
68.8967
67.6998
66.7145
65.9245
65.1341
64.3803
63.6714
63.0029
62.458
61.9957
61.5624
61.1633
60.8029
60.4826
60.2025
59.9623
59.7608
59.5957
59.4645
59.3641
59.2911
59.2421
59.2131
59.1999
59.1998
59.2055
59.2204
59.2268
-10.8006
-24.0083
-35.8392
-43.4736
-46.5576
-46.6668
-46.1216
-45.1494
-43.929
-42.5404
-41.0393
-39.4823
-37.9051
-36.3618
-35.0849
-34.1835
-33.6155
-33.3569
-33.3928
-33.7137
-34.258
-35.6623
-37.8822
-40.2763
-42.8054
-45.4249
-48.0834
-50.7368
-53.3442
-55.8675
-58.2652
-60.4975
-62.4595
-64.1133
71.261
72.8424
74.6971
76.5117
78.0152
78.9818
79.4036
79.3127
78.5049
76.7931
74.1855
70.7565
66.5791
61.6975
56.1019
49.7256
42.3833
33.8647
23.274
11.1801
-7.20994
69.9298
68.6624
67.6179
66.7868
65.9443
65.1341
64.3653
63.6326
63.0363
62.5296
62.0487
61.6
61.1898
60.8201
60.492
60.2059
59.9612
59.7565
59.5894
59.4572
59.3568
59.2846
59.2366
59.2088
59.1968
59.1979
59.2046
59.2205
59.2276
-20.1159
-36.0139
-45.584
-50.4936
-51.1983
-50.7853
-49.8511
-48.5754
-47.1141
-45.5491
-43.9076
-42.2376
-40.5708
-38.9581
-37.6369
-36.7191
-36.1569
-35.9219
-35.9965
-36.3685
-37.4849
-39.343
-41.4558
-43.7603
-46.1991
-48.7118
-51.2436
-53.7449
-56.1667
-58.466
-60.5993
-62.5137
-64.1068
-65.3407
71.0083
72.6073
74.498
76.4046
78.1001
79.3355
80.0688
80.3607
80.0517
78.875
76.7339
73.7128
69.9201
65.4301
60.2721
54.4152
47.7656
40.0944
31.1783
19.9078
6.74098
-14.4323
69.6692
68.5702
67.7011
66.8094
65.9443
65.1168
64.3195
63.6726
63.1228
62.5945
62.0957
61.6341
61.2127
60.8337
60.4982
60.2063
59.9574
59.7497
59.581
59.4484
59.3486
59.2775
59.2308
59.2043
59.1936
59.1959