/*--------------------------------*- C++ -*----------------------------------*\
  =========                 |
  \\      /  F ield         | OpenFOAM: The Open Source CFD Toolbox
   \\    /   O peration     | Website:  https://openfoam.org
    \\  /    A nd           | Version:  8
     \\/     M anipulation  |
\*---------------------------------------------------------------------------*/
FoamFile
{
    version     2.0;
    format      ascii;
    class       volScalarField;
    location    "0.02";
    object      epsilon;
}
// * * * * * * * * * * * * * * * * * * * * * * * * * * * * * * * * * * * * * //

dimensions      [0 2 -3 0 0 0 0];

internalField   nonuniform List<scalar> 
15677
(
59.7325
18.3671
52.6884
8.08567
26.0219
50.2297
4.62377
13.32
31.6609
50.5345
3.17517
7.74588
17.1325
37.3338
51.6307
2.48773
5.05173
10.051
20.8503
42.6763
53.7115
2.14471
3.62595
6.47427
12.1812
24.5685
47.6786
55.8146
1.97948
2.8217
4.53048
7.73306
14.2918
28.2726
52.0628
57.7055
1.91154
2.3528
3.40427
5.31382
8.9258
16.4383
31.7959
55.7439
59.2985
1.88407
2.07996
2.72421
3.91038
6.028
10.1146
18.5676
34.9978
58.7216
60.5972
1.87048
1.93922
2.30732
3.05565
4.36184
6.71256
11.2956
20.6036
37.787
61.048
61.6221
1.86762
1.87818
2.05634
2.52089
3.35049
4.77983
7.37754
12.4429
22.4743
40.1128
62.7865
62.4413
1.86863
1.84867
1.91641
2.18582
2.71412
3.61758
5.17433
8.01769
13.5185
24.1211
41.9574
64.0478
63.1252
1.86958
1.83835
1.85183
1.98254
2.30803
2.8881
3.86359
5.54646
8.6155
14.4885
25.5005
43.3606
64.9277
63.6537
1.86986
1.83645
1.82109
1.86791
2.0523
2.41944
3.04602
4.09101
5.88894
9.15473
15.3251
26.6085
44.3795
65.504
64.0075
1.8699
1.8366
1.81042
1.81389
1.89901
2.11855
2.52033
3.18996
4.29711
6.19449
9.623
16.0196
27.4484
45.0573
65.853
64.3484
1.86989
1.83677
1.80797
1.79059
1.81624
1.93132
2.17937
2.61193
3.31908
4.47884
6.45864
10.0167
16.5619
28.0237
45.4749
66.0764
64.6531
1.86989
1.83681
1.80752
1.7838
1.77722
1.82259
1.96227
2.23524
2.69401
3.43221
4.63497
6.68057
10.3275
16.9425
28.3968
45.7063
66.1875
64.9201
1.8699
1.83679
1.80742
1.78223
1.76358
1.76721
1.83103
1.99197
2.286
2.76609
3.52918
4.76541
6.85505
10.5482
17.2008
28.6065
45.7453
66.2413
65.0799
1.8699
1.83676
1.80735
1.78199
1.7595
1.7451
1.75903
1.84086
2.02022
2.33121
2.82818
3.60994
4.8673
6.9795
10.704
17.3532
28.6342
45.7165
66.2423
65.2621
1.86991
1.83674
1.8073
1.78197
1.75848
1.73727
1.72785
1.7539
1.85218
2.04628
2.37081
2.88017
3.67308
4.9407
7.07031
10.8001
17.3762
28.6031
45.6251
66.2339
65.3764
1.86991
1.83673
1.80725
1.78197
1.75831
1.73477
1.71555
1.71362
1.7526
1.86374
2.07002
2.40464
2.92141
3.71955
4.99556
7.12873
10.8165
17.3563
28.5135
45.4551
66.1967
65.5643
1.86991
1.83672
1.80722
1.78194
1.75831
1.7341
1.71096
1.69622
1.70325
1.75311
1.87546
2.09127
2.43232
2.95281
3.75501
5.03262
7.14008
10.806
17.2984
28.3393
45.2292
66.1809
65.6815
1.86991
1.83672
1.8072
1.78192
1.75832
1.73397
1.70938
1.68892
1.68066
1.69653
1.75531
1.88735
2.10967
2.4545
2.9775
3.78007
5.04292
7.13482
10.7748
17.1808
28.1104
45.0015
66.16
65.8993
1.86991
1.83671
1.80719
1.7819
1.75831
1.73394
1.70888
1.68603
1.67053
1.66961
1.69426
1.76024
1.89878
2.12558
2.47285
2.99605
3.79114
5.04113
7.11919
10.7103
17.0218
27.8626
44.7459
66.1727
66.0312
1.86991
1.83671
1.80719
1.78188
1.75828
1.73392
1.7087
1.68492
1.66616
1.65689
1.66357
1.69467
1.76623
1.90997
2.13988
2.48781
3.00705
3.79274
5.03467
7.087
10.6205
16.8446
27.5909
44.5112
66.1953
66.285
1.86991
1.83671
1.80718
1.78187
1.75826
1.73388
1.70861
1.68447
1.66432
1.65108
1.64854
1.66207
1.69652
1.77352
1.92141
2.15281
2.49892
3.01277
3.79198
5.02132
7.04199
10.5184
16.654
27.3217
44.2559
66.2592
66.4379
1.86991
1.83671
1.80717
1.78186
1.75824
1.73384
1.70854
1.68425
1.66353
1.6485
1.64144
1.6456
1.66258
1.70065
1.78271
1.93315
2.16427
2.50756
3.01667
3.79012
5.00229
6.99045
10.4107
16.4634
27.04
44.0435
66.3184
66.7303
1.86991
1.83671
1.80716
1.78186
1.75823
1.73381
1.70847
1.68412
1.66315
1.64734
1.63817
1.63763
1.64572
1.66474
1.70801
1.79376
1.94518
2.17524
2.51588
3.02177
3.78618
4.98189
6.93939
10.3044
16.2692
26.7765
43.8036
66.4487
66.9141
1.86991
1.83671
1.80716
1.78185
1.75822
1.73378
1.70842
1.68402
1.66294
1.64678
1.63667
1.63391
1.63759
1.64722
1.66981
1.71868
1.80652
1.95823
2.18732
2.52639
3.0284
3.78632
4.96538
6.89035
10.1985
16.0848
26.5087
43.6291
66.5425
67.2292
1.86992
1.83671
1.80715
1.78183
1.7582
1.73376
1.70837
1.68394
1.6628
1.64649
1.63596
1.63221
1.63379
1.63888
1.65134
1.68
1.73229
1.82155
1.97356
2.20246
2.54036
3.03943
3.78929
4.9507
6.84564
10.1024
15.9076
26.267
43.418
66.7867
67.5284
1.86992
1.83672
1.80714
1.78182
1.75819
1.73374
1.70833
1.68387
1.6627
1.64632
1.63561
1.63142
1.63205
1.63504
1.64271
1.66031
1.69447
1.74905
1.83979
1.99273
2.22211
2.55972
3.05597
3.79731
4.94534
6.81133
10.0152
15.7454
26.0275
43.2813
66.7647
67.8143
1.86992
1.83672
1.80714
1.78181
1.75818
1.73373
1.7083
1.68382
1.66263
1.64621
1.63542
1.63105
1.63126
1.63332
1.63884
1.65108
1.67553
1.71276
1.76968
1.86265
2.01714
2.24801
2.58568
3.07981
3.81334
4.94842
6.7848
9.93982
15.5937
25.813
43.0966
66.8374
68.1175
1.86992
1.83673
1.80713
1.78179
1.75817
1.73372
1.70828
1.68378
1.66257
1.64613
1.6353
1.63085
1.63089
1.63255
1.63716
1.64709
1.66672
1.69508
1.73534
1.79551
1.89142
2.04846
2.28136
2.62013
3.11188
3.83998
4.95865
6.76854
9.87728
15.4629
25.5904
42.9125
67.0067
68.4626
1.86993
1.83673
1.80712
1.78178
1.75816
1.73371
1.70827
1.68375
1.66252
1.64608
1.63521
1.63072
1.6307
1.6322
1.63647
1.64552
1.66305
1.6872
1.71921
1.76349
1.82774
1.92778
2.08799
2.32401
2.6638
3.15446
3.87644
4.97997
6.76937
9.83256
15.3299
25.3712
42.756
67.2891
68.8266
1.83674
1.86996
1.80711
1.78176
1.75815
1.73371
1.70826
1.68373
1.66249
1.64603
1.63515
1.63063
1.63057
1.63202
1.63619
1.64499
1.66179
1.68422
1.71252
1.74918
1.79839
1.86809
1.97305
2.13736
2.3767
2.71862
3.20782
3.92419
5.01521
6.77785
9.78996
15.2134
25.1832
42.6367
67.6313
69.1245
1.80711
1.83685
1.87004
1.78174
1.75813
1.73371
1.70826
1.68372
1.66246
1.646
1.6351
1.63054
1.63047
1.6319
1.63605
1.64486
1.66155
1.68349
1.71044
1.7439
1.7862
1.84187
1.91792
2.029
2.19778
2.44119
2.78485
3.27357
3.98388
5.06266
6.80038
9.77499
15.1263
25.0321
42.5577
67.9496
69.5574
1.78172
1.80725
1.83707
1.87012
1.75812
1.73371
1.70827
1.68371
1.66244
1.64598
1.63506
1.63045
1.63037
1.63179
1.63595
1.64484
1.66164
1.68362
1.71029
1.74286
1.78265
1.83228
1.89542
1.97927
2.09689
2.27116
2.51801
2.86452
3.35162
4.05632
5.12857
6.84848
9.78126
15.0671
24.9069
42.4874
68.3626
69.9703
1.75811
1.78189
1.80754
1.8373
1.8702
1.73371
1.70828
1.68371
1.66244
1.64596
1.63502
1.63037
1.63027
1.63168
1.63584
1.64479
1.66176
1.68398
1.71088
1.74352
1.78277
1.83067
1.889
1.96138
2.0536
2.17883
2.35808
2.60895
2.95692
3.44294
4.15099
5.22016
6.91756
9.80166
15.0219
24.8026
42.4837
68.7336
70.4534
1.73371
1.75834
1.78224
1.80784
1.83753
1.87028
1.70829
1.68372
1.66243
1.64596
1.63499
1.63028
1.63016
1.63156
1.6357
1.64469
1.66178
1.68424
1.71155
1.74476
1.78452
1.8325
1.88967
1.9585
2.04128
2.14339
2.27585
2.46078
2.71401
3.06355
3.5594
4.27439
5.33039
7.00274
9.84212
15.0083
24.7388
42.4982
69.2744
70.7207
1.7083
1.73405
1.75883
1.7826
1.80815
1.83778
1.87036
1.68373
1.66243
1.64595
1.63496
1.63019
1.63005
1.63143
1.63555
1.64454
1.6617
1.68432
1.71199
1.74593
1.78667
1.83579
1.89385
1.96252
2.04254
2.13724
2.25001
2.3906
2.57922
2.83533
3.19755
3.70758
4.41607
5.45701
7.10273
9.90182
15.0139
24.6994
42.541
69.6443
371.368
1.68375
1.70873
1.73472
1.75932
1.78297
1.80847
1.83803
1.87045
1.66244
1.64595
1.63493
1.6301
1.62994
1.63129
1.63538
1.64432
1.66151
1.68424
1.71219
1.74675
1.78859
1.83938
1.89933
1.96999
2.05115
2.14444
2.25059
2.37507
2.52359
2.71628
2.98799
3.36763
3.87413
4.57381
5.59811
7.21609
9.97669
15.0317
24.6817
42.5987
76.2133
533.233
1.66244
1.68421
1.70958
1.73542
1.75982
1.78334
1.8088
1.83829
1.87053
1.64595
1.63491
1.63002
1.62982
1.63115
1.63519
1.64408
1.66123
1.68401
1.71217
1.74723
1.79003
1.84263
1.90506
1.97876
2.06316
2.15924
2.26581
2.38513
2.51907
2.67638
2.88893
3.18203
3.55968
4.0586
4.74533
5.75092
7.34119
10.0632
15.0678
24.6855
42.8132
89.5455
725.976
1.64595
1.66288
1.68514
1.71046
1.73613
1.76033
1.78372
1.80914
1.83855
1.87062
1.63489
1.62993
1.62971
1.63102
1.635
1.6438
1.6609
1.68368
1.71198
1.74742
1.79107
1.8453
1.9104
1.9879
2.07664
2.17772
2.28882
2.41074
2.54154
2.68568
2.86765
3.10994
3.40198
3.77239
4.25917
4.92958
5.91401
7.47569
10.1598
15.1186
24.7027
43.3941
106.922
863.209
1.63487
1.6463
1.66376
1.6861
1.71136
1.73685
1.76084
1.78411
1.80949
1.83883
1.87071
1.62984
1.62959
1.63088
1.63481
1.64352
1.66053
1.68328
1.71167
1.74743
1.79179
1.84748
1.91506
1.99673
2.09081
2.19817
2.31614
2.44493
2.58036
2.72399
2.89659
3.11037
3.35646
3.64611
4.00426
4.47451
5.12479
6.08526
7.61765
10.2645
15.1791
24.7444
44.6779
119.866
966.866
1.62976
1.63509
1.64704
1.66468
1.68711
1.7123
1.73759
1.76137
1.78451
1.80985
1.83912
1.87081
1.62948
1.63074
1.63463
1.64324
1.66015
1.68284
1.71129
1.7473
1.79231
1.8493
1.91917
2.00483
2.10488
2.21999
2.34634
2.48464
2.62916
2.7801
2.9564
3.16798
3.38578
3.62816
3.91152
4.25397
4.7024
5.32846
6.26287
7.76502
10.3752
15.2472
24.8392
45.9286
129.541
1079.88
1.62936
1.62975
1.63557
1.64781
1.66565
1.68815
1.71325
1.73834
1.7619
1.78492
1.81023
1.83941
1.8709
1.63061
1.63445
1.64297
1.65977
1.68239
1.71089
1.74709
1.79268
1.85084
1.92287
2.01233
2.11821
2.24224
2.37909
2.52887
2.68543
2.84854
3.03677
3.25865
3.47846
3.69343
3.92406
4.19362
4.51816
4.94035
5.53912
6.44488
7.91599
10.4901
15.3274
24.9772
46.8884
139.414
1219.2
1.63048
1.6292
1.62982
1.63608
1.64862
1.66665
1.68922
1.71424
1.73911
1.76245
1.78535
1.81062
1.83971
1.87099
1.63427
1.6427
1.6594
1.68195
1.71048
1.74685
1.79298
1.8522
1.92627
2.01931
2.13082
2.26389
2.41317
2.57766
2.74875
2.9277
3.13342
3.37486
3.60849
3.82886
4.03218
4.24319
4.49076
4.79431
5.18717
5.75465
6.62967
8.06898
10.609
15.4171
25.1074
47.8667
151.472
1370.53
1.63411
1.63024
1.62898
1.62991
1.63664
1.64947
1.6677
1.69034
1.71525
1.73989
1.763
1.78579
1.81102
1.84
1.87108
1.64244
1.65903
1.68153
1.71008
1.7466
1.79324
1.85344
1.92945
2.02588
2.14285
2.28486
2.44687
2.62938
2.81974
3.01807
3.24611
3.51446
3.77186
4.00847
4.21919
4.40054
4.58307
4.80059
5.07657
5.4396
5.97299
6.81531
8.22289
10.7306
15.511
25.2472
49.116
164.825
1519.2
1.64223
1.63367
1.62986
1.62874
1.63004
1.63724
1.65037
1.66879
1.69148
1.71627
1.74068
1.76357
1.78624
1.81142
1.84029
1.87116
1.65868
1.68114
1.70971
1.74638
1.79349
1.85461
1.93247
2.03207
2.15436
2.30513
2.47985
2.68147
2.89639
3.12118
3.37674
3.67965
3.96975
4.23323
4.46057
4.64911
4.7966
4.94086
5.12154
5.3632
5.69467
6.1918
7.00065
8.3767
10.8535
15.6075
25.4237
50.5697
178.185
1651.92
1.65837
1.64141
1.63294
1.62947
1.62851
1.63023
1.63789
1.65131
1.66993
1.69267
1.71733
1.74149
1.76414
1.78669
1.81181
1.84057
1.87125
1.68076
1.70936
1.74619
1.79374
1.85572
1.93534
2.03792
2.16538
2.32463
2.51197
2.73331
2.97472
3.23442
3.52852
3.87534
4.20859
4.50971
4.76468
4.96693
5.11805
5.21811
5.31373
5.45056
5.65223
5.95069
6.41033
7.18459
8.52921
10.9757
15.7075
25.6333
52.0831
190.687
1765.96
1.68045
1.65701
1.63997
1.63217
1.62909
1.6283
1.63047
1.63859
1.6523
1.67111
1.69388
1.7184
1.7423
1.76471
1.78713
1.8122
1.84083
1.87133
1.70904
1.74601
1.794
1.85681
1.93809
2.04348
2.17591
2.34329
2.54314
2.78453
3.05333
3.35184
3.69873
4.10882
4.49904
4.852
5.14733
5.37373
5.53031
5.62541
5.66268
5.69882
5.78488
5.94148
6.20388
6.62692
7.3659
8.6791
11.096
15.8103
25.8602
53.5451
201.452
1863.57
1.70882
1.6787
1.65446
1.63851
1.63146
1.62873
1.62811
1.63077
1.63934
1.65334
1.67234
1.69513
1.71948
1.7431
1.76526
1.78756
1.81258
1.84109
1.8714
1.74587
1.79427
1.85786
1.94072
2.04874
2.18596
2.36105
2.57325
2.83468
3.13128
3.47161
3.87945
4.3783
4.85637
5.28246
5.63754
5.90182
6.07094
6.15449
6.17086
6.128
6.09339
6.12189
6.22964
6.45243
6.83981
7.54334
8.82524
11.2137
15.9146
26.0904
54.8615
210.739
1949.27
1.74586
1.70665
1.67528
1.65181
1.63715
1.63078
1.62839
1.62795
1.63113
1.64014
1.65443
1.67361
1.69641
1.72054
1.74386
1.76579
1.78799
1.81294
1.84134
1.87148
1.79453
1.85887
1.94322
2.05374
2.19551
2.37788
2.60221
2.88329
3.20791
3.59293
4.06782
4.67149
5.28312
5.83513
6.28279
6.60853
6.80033
6.86995
6.84417
6.75424
6.6119
6.49487
6.45931
6.515
6.69542
7.04761
7.71585
8.96687
11.3283
16.019
26.3117
56.0348
218.836
2017.35
1.79495
1.74319
1.70212
1.67168
1.64926
1.63588
1.63015
1.62808
1.62783
1.63157
1.64099
1.65558
1.67492
1.69766
1.72157
1.7446
1.76632
1.78841
1.81331
1.84159
1.87155
1.85985
1.94558
2.05846
2.20454
2.39379
2.62995
2.92999
3.2828
3.71493
4.26115
4.983
5.76592
6.53137
7.15812
7.58783
7.82254
7.87485
7.78527
7.60379
7.37517
7.11215
6.90083
6.79512
6.79585
6.93196
7.24927
7.88267
9.10365
11.4399
16.1222
26.5211
57.0866
225.193
2075.73
1.86098
1.7917
1.73712
1.69735
1.66819
1.64683
1.63469
1.62955
1.6278
1.62777
1.63207
1.6419
1.65677
1.67622
1.69888
1.72255
1.74531
1.76682
1.78882
1.81366
1.84182
1.87162
1.94783
2.0629
2.21303
2.40879
2.65639
2.97454
3.35573
3.83642
4.4563
5.31023
6.3051
7.36665
8.32307
8.98049
9.29933
9.33783
9.15414
8.82835
8.43596
8.03246
7.62641
7.30903
7.12752
7.07078
7.16126
7.44405
8.04336
9.23539
11.5482
16.2237
26.7201
57.9164
230.59
2139.94
1.95014
1.857
1.78346
1.73075
1.69275
1.66482
1.64452
1.63358
1.629
1.62753
1.62778
1.63265
1.64287
1.65797
1.6775
1.70006
1.7235
1.746
1.76732
1.78923
1.814
1.84204
1.87168
2.06712
2.22099
2.42289
2.68146
3.01685
3.42653
3.95606
4.65089
5.65282
6.90513
8.34796
9.77378
10.8886
11.4518
11.5019
11.1963
10.6555
10.004
9.34004
8.72363
8.15209
7.71732
7.45492
7.33865
7.38273
7.63141
8.19757
9.36207
11.6532
16.323
26.8839
58.6277
236.412
2213.63
2.07124
1.9453
1.84561
1.77485
1.72467
1.68833
1.66155
1.64233
1.63254
1.6285
1.62726
1.62787
1.63329
1.64386
1.65916
1.67874
1.7012
1.72442
1.74666
1.7678
1.78963
1.81433
1.84226
1.87172
2.22854
2.43614
2.70513
3.05691
3.49501
4.07261
4.84384
6.0118
7.56774
9.47553
11.5041
13.2828
14.4192
14.6777
14.2441
13.4145
12.3807
11.3088
10.3116
9.44481
8.68628
8.12366
7.77595
7.59856
7.59591
7.81115
8.34545
9.48369
11.7546
16.4069
27.0268
59.3907
243.043
2297.65
2.23559
2.06528
1.92938
1.83381
1.7667
1.71885
1.68405
1.65837
1.64029
1.63158
1.62805
1.62702
1.62803
1.63398
1.64485
1.66033
1.67996
1.7023
1.7253
1.7473
1.76828
1.79002
1.81465
1.84237
1.87172
2.44873
2.72741
3.09477
3.56095
4.18514
5.03516
6.38785
8.2897
10.7372
13.4927
16.1286
18.13
19.0479
18.7148
17.5379
15.9848
14.3172
12.7316
11.3426
10.1908
9.22577
8.5261
8.08944
7.84982
7.80046
7.98265
8.48704
9.60014
11.8394
16.4798
27.1838
60.261
250.469
2396.31
2.46016
2.22825
2.04276
1.91305
1.82271
1.75894
1.71324
1.67987
1.65528
1.63844
1.63071
1.62764
1.62681
1.62828
1.6347
1.64584
1.66147
1.68114
1.70337
1.72614
1.74792
1.76874
1.7904
1.81481
1.84238
1.87172
2.74857
3.13056
3.62415
4.29308
5.22545
6.78031
9.06341
12.1126
15.703
19.3761
22.5177
24.4958
24.8577
23.5797
21.3668
18.8815
16.4418
14.2557
12.4227
10.9555
9.76721
8.92286
8.39441
8.09189
7.99635
8.14563
8.62213
9.69666
11.9122
16.561
27.3643
61.2274
259.132
2509.69
2.76729
2.45088
2.19628
2.01996
1.89775
1.81216
1.75146
1.70779
1.67582
1.65223
1.63677
1.62992
1.62727
1.62664
1.62859
1.63543
1.64682
1.6626
1.68228
1.70439
1.72696
1.74852
1.7692
1.79058
1.81482
1.84238
1.87172
3.16468
3.68458
4.39637
5.41543
7.18709
9.87863
13.5781
18.0922
22.9593
27.4993
30.9209
32.5121
31.8877
29.2559
25.6934
22.0664
18.7248
15.8613
13.5396
11.7322
10.3073
9.31224
8.68998
8.32442
8.18355
8.30027
8.73368
9.77905
11.9927
16.6524
27.5673
62.3551
269.022
2639.09
3.19439
2.75586
2.40507
2.16432
1.99866
1.88324
1.80204
1.74425
1.70252
1.67187
1.64929
1.63525
1.62921
1.62696
1.62653
1.62896
1.63618
1.64779
1.66371
1.68339
1.70538
1.72775
1.74911
1.76941
1.79058
1.81482
1.84238
1.87172
3.74247
4.4954
5.60585
7.60495
10.7239
15.1094
20.6166
26.8055
32.9673
38.1942
41.5356
42.2573
40.1332
35.698
30.4643
25.4943
21.1334
17.527
14.6811
12.5142
10.8426
9.69269
8.97553
8.5472
8.36196
8.42747
8.82866
9.86976
12.0819
16.755
27.8047
63.6442
280.304
2782.05
3.79214
3.17973
2.68997
2.35999
2.13451
1.97846
1.8693
1.79228
1.73729
1.69741
1.66803
1.64647
1.63389
1.62859
1.62671
1.62647
1.62938
1.63694
1.64876
1.66479
1.68447
1.70633
1.72851
1.74939
1.7694
1.79057
1.81482
1.84238
1.87172
4.5908
5.79723
8.03013
11.5875
16.683
23.2337
30.8423
38.8042
46.146
51.7332
54.4925
53.7495
49.5452
42.8355
35.6153
29.1167
23.6345
19.2321
15.835
13.295
11.3702
10.0629
9.25053
8.76008
8.50924
8.53555
8.93297
9.9697
12.1809
16.8713
28.0775
65.1228
292.903
2932.36
4.67256
3.77453
3.08343
2.62617
2.31801
2.10619
1.95905
1.85589
1.78289
1.73057
1.69246
1.66428
1.64384
1.6327
1.62806
1.62651
1.62647
1.62984
1.6377
1.64971
1.66584
1.68551
1.70725
1.72888
1.74939
1.76939
1.79057
1.81482
1.84237
1.87168
5.98939
8.4585
12.4583
18.2765
25.9036
35.0001
44.8923
54.5892
62.8433
68.3071
69.8427
66.9414
60.0323
50.5774
41.0751
32.8838
26.1961
20.9572
16.9903
14.0688
11.8873
10.4218
9.51459
8.9363
8.63464
8.65402
9.0476
10.0799
12.2907
17.0025
28.3936
66.8017
306.219
3086.03
4.64821
6.15931
3.63158
2.99214
2.56679
2.27807
2.07895
1.94036
1.84299
1.77386
1.72408
1.68764
1.66066
1.64145
1.63167
1.62761
1.62635
1.62652
1.63032
1.63847
1.65065
1.66687
1.68652
1.70772
1.72889
1.74938
1.76939
1.79058
1.81481
1.84226
1.87162
8.88504
13.3263
19.87
28.5888
39.2139
51.1206
63.3374
74.5745
83.3087
88.0073
87.549
81.7213
71.4672
58.8176
46.769
36.7477
28.7887
22.6846
18.1368
14.8304
12.3915
10.7684
9.73413
9.08662
8.77242
8.784
9.17364
10.2013
12.4124
17.1513
28.756
68.6233
320.08
3234.28
4.42295
6.14071
9.25997
3.49954
2.90734
2.51019
2.23962
2.05271
1.92239
1.8306
1.76517
1.71781
1.68297
1.65725
1.63936
1.63077
1.62724
1.6262
1.62663
1.63083
1.63922
1.65157
1.66788
1.68704
1.70774
1.72889
1.74938
1.7694
1.79058
1.81465
1.84204
1.87155
14.1806
21.4456
31.2571
43.4253
57.3884
72.2185
86.6396
99.0577
107.676
110.816
107.484
97.9189
83.6933
67.441
52.6227
40.6632
31.3858
24.3991
19.2662
15.5753
12.8809
11.058
9.92198
9.25215
8.92395
8.92675
9.31225
10.3352
12.5477
17.3195
29.1654
70.5487
333.645
3376.37
4.22315
5.75635
9.26703
14.9372
3.3773
2.8265
2.45566
2.20256
2.02747
1.90515
1.81871
1.7568
1.71176
1.67856
1.6541
1.63758
1.63
1.62693
1.62608
1.62679
1.63136
1.63998
1.65247
1.66838
1.68706
1.70774
1.72889
1.74939
1.76941
1.7904
1.81432
1.84181
1.87147
22.986
33.8806
47.5852
63.6086
81.0829
98.7809
115.125
128.206
135.951
136.601
129.437
115.315
96.5349
76.3301
58.5655
44.5894
33.9638
26.0877
20.3714
16.3
13.2915
11.3066
10.1295
9.43463
9.09078
9.08365
9.46476
10.4828
12.6978
17.5104
29.6078
72.5743
346.73
3520.6
4.04126
5.42188
8.56946
15.0138
24.3593
3.26077
2.74865
2.40308
2.16691
2.00326
1.88864
1.8073
1.74877
1.70604
1.67444
1.65114
1.63605
1.62933
1.62667
1.62598
1.62698
1.6319
1.64074
1.65293
1.6684
1.68707
1.70774
1.72889
1.74939
1.7692
1.79001
1.81399
1.84158
1.8714
36.4325
51.6532
69.7121
89.8083
110.785
131.134
148.975
162.053
168.014
165.12
153.12
133.655
109.807
85.3706
64.5316
48.4896
36.5033
27.7397
21.4466
16.909
13.6449
11.5821
10.359
9.63608
9.27462
9.25622
9.63261
10.6457
12.8652
17.7225
30.1121
74.476
360.322
3670.91
3.86978
5.12042
7.95639
13.8154
24.598
38.7165
3.14865
2.67365
2.35251
2.13272
1.98008
1.87283
1.79641
1.74124
1.70072
1.67057
1.64839
1.63473
1.62876
1.62645
1.62591
1.62722
1.63246
1.64112
1.65294
1.66841
1.68707
1.70774
1.72888
1.74911
1.76873
1.78962
1.81364
1.84134
1.87132
55.5908
75.6453
98.304
122.487
146.791
169.449
188.238
200.496
203.613
196.03
178.188
152.663
123.328
94.4552
70.4617
52.3328
38.988
29.3465
22.3501
17.4335
14.0374
11.888
10.6132
9.85875
9.47743
9.44622
9.81746
10.8257
13.0513
17.9677
30.6021
76.6797
374.313
3852.2
3.70609
4.84022
7.39987
12.7241
22.7278
39.2552
59.1193
3.04082
2.60159
2.30403
2.10002
1.95794
1.85779
1.78625
1.73425
1.69572
1.66692
1.64587
1.63357
1.62827
1.62627
1.62588
1.62751
1.63274
1.64112
1.65295
1.66841
1.68706
1.70772
1.7285
1.74851
1.76827
1.78921
1.81329
1.84108
1.87124
81.357
106.505
133.777
161.882
189.223
213.761
232.834
243.304
242.372
228.896
204.256
172.06
136.924
103.486
76.3059
56.0933
41.4043
30.6964
23.1283
18.0168
14.4743
12.228
10.8953
10.1052
9.70138
9.65558
10.0212
11.0249
13.2612
18.2302
31.2159
78.7352
391.289
4054.6
3.54952
4.57916
6.88008
11.7112
20.9874
36.539
60.1331
86.4684
2.93744
2.53258
2.25771
2.06882
1.93695
1.84383
1.77688
1.72772
1.691
1.66348
1.64358
1.63255
1.62784
1.62613
1.62592
1.62765
1.63274
1.64113
1.65295
1.6684
1.68704
1.70725
1.72773
1.7479
1.76779
1.78881
1.81293
1.84082
1.87116
114.35
144.585
176.283
208.033
238.074
264.001
282.572
290.113
283.801
263.22
230.922
191.578
150.434
112.381
82.0219
59.7497
43.4338
31.8586
23.9934
18.6662
14.961
12.6065
11.2088
10.3783
9.94893
9.88652
10.2461
11.2464
13.4944
18.5486
31.8041
81.4326
411.139
4281.41
3.40008
4.33512
6.39038
10.752
19.3344
33.9807
56.4078
88.1463
121.341
2.83866
2.46674
2.2136
2.03932
1.91754
1.83105
1.76818
1.72157
1.68653
1.66024
1.6415
1.63165
1.62749
1.62609
1.62591
1.62761
1.63274
1.64113
1.65295
1.66839
1.68652
1.70632
1.72694
1.74728
1.7673
1.7884
1.81256
1.84056
1.87108
154.846
189.934
225.749
260.848
293.254
320.02
337.148
340.431
327.311
298.465
257.791
210.966
163.724
121.07
87.575
62.8195
45.181
33.1503
24.9563
19.3902
15.5041
13.0286
11.5575
10.6813
10.2229
10.1416
10.4948
11.4926
13.7624
18.8884
32.5788
84.4688
432.169
4519.38
3.25785
4.10701
5.93121
9.83882
17.7361
31.5137
52.8887
83.2585
123.851
163.922
2.74467
2.40418
2.17201
2.01216
1.89988
1.81926
1.76004
1.71575
1.68228
1.65719
1.63962
1.63089
1.62728
1.62603
1.62582
1.6276
1.63274
1.64112
1.65293
1.66787
1.6855
1.70535
1.72611
1.74663
1.7668
1.78798
1.81219
1.84028
1.87099
202.773
242.34
281.961
320.174
354.636
381.611
396.149
393.649
372.243
334.081
284.49
230.011
176.681
129.497
92.2317
65.461
47.1222
34.5877
26.0296
20.1983
16.1108
13.4998
11.946
11.018
10.5263
10.4237
10.7702
11.7684
14.0609
19.3009
33.4604
88.0863
457.01
4742.61
3.12286
3.89409
5.50343
8.97576
16.1797
29.0921
49.4665
78.6681
117.644
167.372
214.002
2.65563
2.34535
2.13386
1.98756
1.8837
1.80831
1.75238
1.71022
1.67822
1.65431
1.638
1.63037
1.62713
1.62593
1.62581
1.6276
1.63274
1.64112
1.65247
1.66685
1.68444
1.70436
1.72526
1.74597
1.7663
1.78755
1.8118
1.84
1.8709
257.769
301.441
344.661
385.87
422.117
448.528
459.063
449.053
417.891
369.537
310.693
248.534
189.211
136.547
96.2346
68.394
49.2814
36.1889
27.2269
21.1013
16.7893
14.0265
12.3794
11.3924
10.8629
10.736
11.0762
12.0766
14.4027
19.7772
34.5887
92.1033
480.418
4951.46
2.99521
3.69552
5.10778
8.16734
14.6662
26.6952
46.0749
74.1962
111.9
159.658
218.391
271.038
2.57224
2.29161
2.09949
1.96519
1.86879
1.79808
1.74513
1.70493
1.67434
1.65169
1.63681
1.63006
1.62699
1.62592
1.62581
1.6276
1.63274
1.64073
1.65155
1.66582
1.68336
1.70333
1.72438
1.74528
1.76578
1.78712
1.81141
1.8397
1.87081
319.303
366.843
413.665
457.957
495.719
520.516
525.267
505.831
463.543
404.359
336.13
266.393
199.662
142.597
100.674
71.6535
51.6853
37.9744
28.5641
22.1111
17.5489
14.6158
12.8632
11.8092
11.2363
11.0823
11.4138
12.4213
14.7909
20.3959
35.9338
96.4718
507.883
5138.48
2.87596
3.51009
4.74545
7.41457
13.206
24.3207
42.6781
69.7478
106.333
152.685
208.915
276.229
334.3
2.49641
2.24341
2.06841
1.94473
1.85499
1.78847
1.73822
1.69986
1.67076
1.64956
1.63615
1.62986
1.62698
1.62592
1.62582
1.62765
1.63246
1.63997
1.65062
1.66475
1.68224
1.70226
1.72347
1.74458
1.76525
1.78668
1.81102
1.83941
1.87071
386.83
438.282
489.063
536.757
575.643
597.296
594.004
563.116
508.538
438.144
360.583
281.23
208.606
149.291
105.598
75.2785
54.364
39.9672
30.0588
23.2414
18.3997
15.2755
13.4038
12.2734
11.651
11.4665
11.7869
12.8058
15.2947
21.1891
37.4046
101.339
532.731
5308.82
2.76799
3.33758
4.41827
6.72137
11.8153
21.9784
39.2631
65.2638
100.812
146.014
200.619
264.625
339.985
403.049
2.42875
2.20008
2.04018
1.92592
1.84212
1.77937
1.73159
1.69516
1.66785
1.64837
1.63585
1.62986
1.62698
1.62593
1.62591
1.62751
1.63189
1.63921
1.64968
1.66367
1.68109
1.70116
1.72252
1.74384
1.7647
1.78624
1.81062
1.83911
1.87062
459.959
515.818
571.346
622.923
662.208
678.478
664.382
620.048
552.298
470.572
380.826
293.893
218.472
156.697
111.064
79.3117
57.3505
42.1928
31.7303
24.5071
19.3532
16.0144
14.0079
12.7905
12.1113
11.8922
12.1986
13.3044
15.9424
22.0479
39.1508
105.297
562.922
5451.85
2.67224
3.18107
4.12912
6.09104
10.5089
19.685
35.8326
60.7113
95.245
139.468
192.843
254.853
325.723
408.769
476.751
2.36826
2.16101
2.01445
1.90856
1.83003
1.7707
1.72548
1.69136
1.66626
1.64792
1.63585
1.62985
1.62699
1.62603
1.62592
1.62722
1.63135
1.63844
1.64873
1.66256
1.67991
1.70002
1.72154
1.74308
1.76414
1.78579
1.81022
1.83882
1.87053
538.69
600.064
661.637
717.553
755.751
763.439
735.411
675.831
594.35
497.35
398.052
307.81
229.348
164.889
117.129
83.8001
60.6816
44.6794
33.6006
25.9247
20.4217
16.8418
14.6828
13.3661
12.6219
12.3625
12.7327
13.9321
16.6346
23.0461
40.7813
110.414
591.6
5585.06
2.58727
3.04179
3.87819
5.52837
9.30362
17.4611
32.3992
56.0752
89.57
132.914
185.358
245.948
314.238
391.069
481.96
555.353
2.31405
2.12566
1.99088
1.89239
1.81859
1.76273
1.72058
1.6893
1.6657
1.64793
1.63585
1.62986
1.62713
1.62609
1.62588
1.62698
1.63082
1.63768
1.64776
1.66144
1.6787
1.69885
1.72053
1.74229
1.76356
1.78534
1.80984
1.83855
1.87044
623.742
692.584
762.05
822.29
856.519
851.36
806.119
729.787
629.088
520.09
416.92
323.086
241.324
173.943
123.857
88.7944
64.3973
47.4582
35.6932
27.5123
21.6186
17.7678
15.4363
14.0065
13.1868
12.9758
13.3959
14.594
17.4026
24.0571
42.7438
115.25
623.29
5679.63
2.51173
2.91795
3.66213
5.04575
8.21616
15.3289
28.9838
51.3524
83.7427
126.254
177.986
237.618
304.123
377.523
459.674
559.464
639.684
2.26535
2.09356
1.96914
1.87723
1.80815
1.75641
1.71791
1.68859
1.66577
1.64793
1.63584
1.63006
1.62728
1.62613
1.62591
1.62678
1.63031
1.63692
1.64679
1.66029
1.67747
1.69764
1.71947
1.74148
1.76299
1.78491
1.80948
1.83828
1.87036
717.006
796.453
876.058
939.274
964.625
941.482
875.614
774.616
658.585
544.936
437.545
339.822
254.488
183.937
131.313
94.3485
68.5405
50.5626
38.034
29.2893
22.9582
18.8028
16.2762
14.7165
13.926
13.7335
14.0897
15.3006
18.1985
25.2046
44.711
121.117
662.236
5750.78
2.4444
2.80809
3.47357
4.64247
7.27352
13.3334
25.6158
46.5505
77.7285
119.404
170.584
229.629
295.011
366.04
443.605
530.957
642.275
732.15
2.22148
2.06422
1.94894
1.86351
1.79994
1.75297
1.71699
1.68874
1.66577
1.64791
1.63615
1.63037
1.62749
1.62627
1.62598
1.62663
1.62982
1.63616
1.64581
1.65913
1.6762
1.6964
1.71839
1.74067
1.76243
1.7845
1.80913
1.83802
1.87027
822.357
917.227
1009
1071.02
1080.93
1032.92
934.252
812.829
690.816
572.019
460.032
358.11
268.928
194.95
139.566
100.519
73.1569
54.0285
40.6503
31.2762
24.4555
19.9577
17.2094
15.6483
14.8386
14.5224
14.8148
16.0306
19.0592
26.4134
46.9526
127.786
706.689
5783.62
2.38423
2.7108
3.30695
4.30925
6.48195
11.5533
22.3585
41.6912
71.5031
112.283
163.024
221.795
286.601
356.153
430.504
511.835
605.144
733.43
837.934
2.18174
2.03721
1.93077
1.85279
1.79541
1.75176
1.71723
1.68873
1.6657
1.64837
1.63682
1.6309
1.62785
1.62646
1.62608
1.62652
1.62937
1.63541
1.64483
1.65795
1.67491
1.69513
1.71731
1.73987
1.76188
1.7841
1.80879
1.83777
1.87019
947.254
1064.77
1168.19
1224.38
1205.54
1112.27
984.761
854.783
725.967
601.464
484.476
378.033
284.722
207.055
148.68
107.362
78.2934
57.8932
43.571
33.4945
26.1256
21.2421
18.4366
16.8001
15.7874
15.3374
15.5586
16.7924
19.9723
27.7052
49.4891
135.275
760.573
5777.32
2.33015
2.62466
3.1588
4.0329
5.82229
10.0252
19.3396
36.8466
65.0565
104.814
155.168
213.939
278.662
347.477
419.784
496.785
582.433
684.028
839.571
968.424
2.14552
2.01312
1.9166
1.84683
1.79381
1.75211
1.71722
1.68859
1.66626
1.64958
1.63803
1.63167
1.62829
1.62668
1.62621
1.62647
1.62895
1.63468
1.64384
1.65676
1.6736
1.69386
1.71625
1.73908
1.76135
1.78371
1.80846
1.83752
1.87011
1106.68
1255.33
1376.88
1403.74
1318.16
1181.79
1040.95
900.878
764.259
633.398
510.959
399.661
301.935
220.317
158.721
114.935
83.997
62.1944
46.8249
35.9656
27.9824
22.9325
19.9555
17.998
16.7634
16.1677
16.3187
17.5858
20.9133
29.1667
52.2011
144.74
820.424
5749.32
2.28129
2.5481
3.02693
3.7996
5.27633
8.7354
16.6387
32.2006
58.4453
96.9282
146.873
205.871
270.971
339.73
410.936
485.105
565.052
657.131
772.859
976.751
1145.82
2.11341
1.99434
1.90863
1.84473
1.79428
1.75211
1.71698
1.6893
1.66788
1.65174
1.63967
1.63258
1.62879
1.62694
1.62636
1.62647
1.62859
1.63397
1.64287
1.65557
1.67232
1.69264
1.71521
1.73831
1.76082
1.78333
1.80814
1.83729
1.87004
1333.49
1545.94
1648.24
1572.34
1418.79
1260.75
1103.93
951.776
806.02
667.981
539.564
423.044
320.617
234.791
169.741
123.288
90.3125
66.9689
50.4409
38.7094
30.4255
25.0258
21.5367
19.2292
17.7544
17.0055
17.0938
18.3862
21.9509
30.6593
55.4217
156.506
890.76
5685.86
2.23826
2.47969
2.90954
3.59897
4.82803
7.65613
14.2622
27.8948
51.8927
88.6289
137.987
197.375
263.292
332.644
403.614
476.105
552.215
637.025
740.668
883.641
1188.15
1434.16
2.08826
1.98377
1.90585
1.84537
1.79428
1.75175
1.71791
1.6914
1.67083
1.65438
1.64156
1.63361
1.62936
1.62725
1.62652
1.62653
1.62828
1.63329
1.6419
1.65442
1.67108
1.69145
1.7142
1.73756
1.76031
1.78295
1.80783
1.83707
1.86996
1734.29
1951.68
1906.28
1725.28
1537.35
1352.58
1176.09
1008.63
851.829
705.46
570.388
448.224
340.799
250.514
181.785
132.466
97.2799
72.2505
54.4438
42.3134
33.4484
27.2065
23.1634
20.4792
18.7491
17.8452
17.8651
19.2333
22.9871
32.3752
59.2246
169.374
982.867
5571.07
2.20446
2.42
2.80517
3.42311
4.46336
6.76444
12.2141
23.9689
45.6008
80.136
128.42
188.205
255.349
325.952
397.505
469.356
543.022
622.75
717.471
844.487
1046.9
1609.63
2050.33
2.07398
1.98018
1.90665
1.84536
1.79379
1.75297
1.72063
1.69524
1.67444
1.65729
1.64366
1.63477
1.63003
1.62763
1.62672
1.62665
1.62803
1.63264
1.64098
1.65332
1.66989
1.6903
1.71322
1.73682
1.7598
1.78259
1.80754
1.83685
1.86993
2387.83
2401.48
2168.05
1929.25