/*--------------------------------*- C++ -*----------------------------------*\
  =========                 |
  \\      /  F ield         | OpenFOAM: The Open Source CFD Toolbox
   \\    /   O peration     | Website:  https://openfoam.org
    \\  /    A nd           | Version:  8
     \\/     M anipulation  |
\*---------------------------------------------------------------------------*/
FoamFile
{
    version     2.0;
    format      ascii;
    class       volScalarField;
    location    "400";
    object      epsilon;
}
// * * * * * * * * * * * * * * * * * * * * * * * * * * * * * * * * * * * * * //

dimensions      [0 2 -3 0 0 0 0];

internalField   nonuniform List<scalar> 
15677
(
1182.95
450.739
1558.81
85.8081
451.641
1455.7
19.8101
116.595
388.098
1275.68
7.2126
35.926
104.769
360.488
1158.74
3.82901
14.3042
37.2919
92.6116
360.975
1085.82
2.64035
7.1807
17.1131
35.2343
94.1111
365.87
1041.84
2.1617
4.33781
9.17331
17.2853
33.6944
99.4641
372.43
1011.33
1.97289
3.0344
5.58339
9.92074
17.0554
33.9511
109.066
372.999
991.458
1.90448
2.3828
3.79243
6.27437
10.1563
16.6769
35.4053
119.13
372.057
975.529
1.87844
2.06059
2.83779
4.30786
6.63501
10.1317
16.7227
38.3555
129.175
368.177
964.666
1.86721
1.92147
2.31394
3.19098
4.6375
6.78506
10.0785
17.0197
42.278
137.069
363.484
958.289
1.86735
1.86801
2.02991
2.53926
3.44669
4.83084
6.83196
10.0828
17.6961
46.4359
143.372
358.902
956.21
1.86899
1.84318
1.89333
2.15979
2.71925
3.62206
4.9345
6.84577
10.1395
18.7112
50.6984
147.97
354.963
957.282
1.86962
1.83738
1.83764
1.94879
2.27419
2.8558
3.73575
4.98854
6.85047
10.2823
19.9369
54.5549
151.412
351.829
961.002
1.86972
1.83718
1.81463
1.84527
2.00977
2.36874
2.95467
3.80764
5.01392
6.8636
10.5437
21.189
58.144
153.507
349.483
968.647
1.8697
1.83753
1.8089
1.80067
1.86355
2.06596
2.44299
3.02448
3.85089
5.02461
6.89733
10.8345
22.5249
61.0839
154.867
347.834
980.288
1.86967
1.83769
1.80791
1.78609
1.79397
1.88812
2.11363
2.49965
3.07209
3.87516
5.03065
6.95001
11.1761
23.749
63.5872
155.369
346.849
995.491
1.86965
1.83772
1.80788
1.782
1.76782
1.79444
1.91109
2.15253
2.54152
3.10339
3.88733
5.03591
7.02023
11.5093
24.9375
65.3997
155.358
346.467
1014.36
1.86964
1.8377
1.80793
1.78103
1.75908
1.75497
1.79653
1.93158
2.18315
2.57169
3.12247
3.89206
5.0434
7.09307
11.8553
25.95
66.7407
155.078
346.595
1036.95
1.86964
1.83769
1.80793
1.78084
1.75639
1.74004
1.74515
1.80067
1.94883
2.20665
2.59233
3.13317
3.89156
5.05069
7.17198
12.1706
26.8158
67.542
154.467
347.101
1063.27
1.86964
1.83768
1.8079
1.78081
1.75564
1.73474
1.72375
1.73809
1.80496
1.96285
2.22395
2.6059
3.1372
3.88907
5.05888
7.24574
12.4569
27.4695
67.9587
153.464
348.142
1093.34
1.86964
1.83767
1.80788
1.78079
1.75542
1.73302
1.71524
1.71032
1.73263
1.80887
1.97374
2.23635
2.61368
3.1366
3.88409
5.06519
7.31286
12.6904
27.9418
67.8994
152.326
349.682
1127.04
1.86964
1.83766
1.80786
1.78076
1.75533
1.73249
1.71208
1.69843
1.69873
1.72848
1.81207
1.98199
2.24467
2.6175
3.13405
3.87691
5.07027
7.36807
12.875
28.2247
67.6504
151.141
351.608
1164.34
1.86964
1.83766
1.80784
1.78072
1.75527
1.73231
1.71096
1.69367
1.68325
1.68923
1.72498
1.81463
1.98807
2.25013
2.61794
3.12879
3.86892
5.07065
7.4083
12.9957
28.3098
67.113
149.799
353.969
1205.06
1.86965
1.83765
1.80783
1.7807
1.75522
1.73221
1.71055
1.69185
1.67657
1.67049
1.68087
1.72226
1.8167
1.99261
2.25337
2.61728
3.12257
3.85924
5.06889
7.43529
13.0699
28.257
66.3237
148.408
356.676
1249.1
1.86965
1.83764
1.80783
1.78067
1.75518
1.73214
1.71036
1.69116
1.67382
1.66201
1.65886
1.67423
1.72014
1.81856
1.99622
2.25559
2.61587
3.11551
3.84993
5.06435
7.44334
13.0672
28.1103
65.3998
146.952
359.776
1296.24
1.86965
1.83764
1.80783
1.78065
1.75515
1.73208
1.71025
1.69085
1.6727
1.65834
1.64838
1.64963
1.66867
1.71895
1.82083
1.99978
2.25785
2.61421
3.11004
3.83985
5.05628
7.43778
13.041
27.8301
64.3441
145.504
363.186
1346.25
1.86966
1.83763
1.80783
1.78064
1.75513
1.73202
1.71016
1.69067
1.67221
1.65676
1.64361
1.63758
1.64132
1.66484
1.71934
1.82401
2.004
2.26082
2.61469
3.10494
3.83256
5.04575
7.42315
12.9805
27.4597
63.2082
144.036
366.918
1398.94
1.86966
1.83763
1.80783
1.78062
1.75512
1.73198
1.7101
1.69055
1.67195
1.65603
1.64149
1.63187
1.6274
1.63594
1.66303
1.72109
1.8287
2.00997
2.26597
2.61701
3.105
3.82623
5.03483
7.39763
12.8758
27.0305
62.0106
142.61
370.916
1453.57
1.86966
1.83762
1.80783
1.78061
1.75511
1.73194
1.71005
1.69045
1.67178
1.65566
1.64051
1.62919
1.62064
1.62101
1.63167
1.66396
1.72502
1.83601
2.01865
2.2744
2.62265
3.10739
3.82467
5.02551
7.36414
12.7494
26.5576
60.7924
141.2
375.171
1516.57
1.86967
1.83762
1.80783
1.78059
1.7551
1.73191
1.71
1.69037
1.67166
1.65542
1.64
1.62788
1.61743
1.61343
1.61496
1.63208
1.66713
1.73251
1.84679
2.03133
2.28694
2.63365
3.11411
3.82689
5.01721
7.32756
12.6065
26.0605
59.5619
139.85
380.181
1588.76
1.86967
1.83761
1.80784
1.78058
1.75509
1.73188
1.70997
1.6903
1.67155
1.65524
1.63969
1.6272
1.61585
1.60963
1.60662
1.61493
1.63469
1.67386
1.74423
1.86233
2.049
2.30529
2.65073
3.12764
3.83365
5.01374
7.28955
12.4566
25.5508
58.3508
138.412
386.112
1662.47
1.86967
1.83761
1.80784
1.78057
1.75509
1.73185
1.70995
1.69023
1.67147
1.6551
1.63946
1.62679
1.61502
1.60768
1.60247
1.60578
1.61709
1.64089
1.68594
1.76145
1.88373
2.07328
2.33045
2.67526
3.14903
3.84755
5.01565
7.25442
12.3026
25.0432
57.0295
136.914
392.238
1737.3
1.86967
1.8376
1.80784
1.78056
1.75509
1.73183
1.70993
1.69018
1.6714
1.65498
1.63928
1.62649
1.61451
1.60665
1.60034
1.60106
1.6078
1.62301
1.65286
1.70414
1.78532
1.91259
2.10519
2.3641
2.70814
3.17896
3.87047
5.02241
7.22103
12.1524
24.4905
55.6281
135.517
398.598
1812.5
1.8376
1.86971
1.80784
1.78055
1.75509
1.73181
1.70991
1.69013
1.67134
1.65487
1.63913
1.62626
1.61415
1.60602
1.59918
1.5986
1.60301
1.61363
1.63479
1.67175
1.72968
1.81748
1.95006
2.14655
2.407
2.75089
3.2181
3.90264
5.03638
7.19615
11.991
23.9054
54.3069
134.241
405.016
1887.65
1.80785
1.83769
1.86978
1.78054
1.75509
1.73179
1.7099
1.69008
1.6713
1.65478
1.63901
1.62607
1.61386
1.60559
1.59847
1.59729
1.60053
1.60885
1.62541
1.65426
1.69859
1.76429
1.85921
1.99801
2.1982
2.46094
2.80401
3.26786
3.94385
5.06062
7.17389
11.8257
23.3605
53.0845
133.064
411.59
1962.07
1.78054
1.80801
1.83789
1.86986
1.75509
1.73177
1.70989
1.69004
1.67126
1.65469
1.6389
1.6259
1.61362
1.60525
1.59796
1.59651
1.59923
1.60643
1.62075
1.64545
1.68221
1.73516
1.80934
1.91253
2.05754
2.26221
2.52638
2.86889
3.32819
3.99571
5.09714
7.16602
11.6809
22.8614
51.95
132.019
418.11
2035.52
1.75509
1.78074
1.80833
1.83809
1.86994
1.73175
1.70988
1.69
1.67123
1.65461
1.63882
1.62576
1.61341
1.60497
1.59756
1.59597
1.59847
1.60523
1.61851
1.64136
1.67447
1.72072
1.78313
1.86685
1.97842
2.13066
2.33887
2.60505
2.94577
3.40023
4.06488
5.15155
7.17123
11.5545
22.4086
50.9186
131.058
424.65
2107.33
1.73174
1.75534
1.78115
1.80866
1.8383
1.87002
1.70987
1.68997
1.67121
1.65454
1.63875
1.62562
1.61324
1.60474
1.59723
1.59557
1.59797
1.60458
1.61753
1.63977
1.67152
1.71488
1.77155
1.84495
1.93875
2.05953
2.21783
2.43018
2.69691
3.03549
3.49316
4.1573
5.22081
7.18672
11.4496
22.0029
49.9698
130.24
430.993
2177.48
1.70987
1.73202
1.75586
1.78158
1.809
1.83851
1.8701
1.68994
1.67119
1.65447
1.63869
1.6255
1.6131
1.60454
1.59695
1.59524
1.5976
1.60419
1.61713
1.63943
1.67098
1.71371
1.76857
1.83785
1.92297
2.02788
2.15725
2.32223
2.53569
2.80327
3.15014
3.61373
4.2654
5.30333
7.21745
11.364
21.6417
49.1205
129.486
437.322
2245.38
1.68991
1.7102
1.73261
1.7564
1.78202
1.80934
1.83873
1.87019
1.67117
1.65441
1.63864
1.62538
1.61298
1.60435
1.59671
1.59497
1.5973
1.60392
1.61699
1.63959
1.67164
1.71491
1.76987
1.83834
1.92087
2.01984
2.13657
2.27538
2.44438
2.65894
2.93658
3.29509
3.75079
4.38735
5.39783
7.26205
11.3002
21.3231
48.3434
128.871
443.379
2311.15
1.67116
1.69025
1.71088
1.73321
1.75694
1.78247
1.8097
1.83895
1.87027
1.65436
1.6386
1.62527
1.61288
1.60418
1.5965
1.59474
1.59706
1.60373
1.61695
1.63997
1.67278
1.71736
1.77379
1.84368
1.92676
2.02461
2.13675
2.26651
2.41443
2.58812
2.81556
3.10823
3.45971
3.90348
4.52143
5.5033
7.31874
11.2518
21.0431
47.6558
128.296
449.399
2374.31
1.65431
1.67154
1.69096
1.71157
1.73383
1.75751
1.78293
1.81007
1.83918
1.87036
1.63857
1.62517
1.6128
1.60402
1.59632
1.59453
1.59685
1.60358
1.61697
1.64041
1.67407
1.72018
1.77893
1.85181
1.9378
2.03824
2.1514
2.27867
2.41886
2.57618
2.77125
3.01966
3.30515
3.64401
4.07098
4.66727
5.61855
7.38476
11.2231
20.7995
47.0273
127.845
455.109
2435.04
1.63855
1.65467
1.67233
1.6917
1.71229
1.73447
1.75809
1.78341
1.81044
1.83942
1.87045
1.62508
1.61274
1.60386
1.59616
1.59434
1.59667
1.60345
1.61702
1.64087
1.67538
1.72302
1.78429
1.86119
1.95192
2.05751
2.17553
2.30656
2.44698
2.59905
2.78182
3.00538
3.25253
3.52804
3.84837
4.25306
4.82283
5.74163
7.46002
11.2045
20.587
46.4783
127.42
460.749
2493.03
1.625
1.63895
1.65545
1.67315
1.69246
1.71303
1.73513
1.75868
1.7839
1.81083
1.83967
1.87054
1.61268
1.60371
1.59604
1.59417
1.59649
1.60333
1.61707
1.6413
1.67663
1.72574
1.78954
1.87064
1.9674
2.0805
2.20612
2.34516
2.49212
2.64782
2.83076
3.05007
3.27335
3.51108
3.7729
4.07134
4.44781
4.98777
5.87189
7.5419
11.2052
20.405
45.9783
127.102
466.078
2548.43
1.61265
1.62533
1.63979
1.65626
1.67399
1.69324
1.71378
1.73581
1.75929
1.78441
1.81122
1.83992
1.87063
1.60356
1.59593
1.59401
1.59633
1.60322
1.6171
1.64169
1.67779
1.72829
1.79454
1.87975
1.98276
2.10526
2.24149
2.39175
2.5499
2.71602
2.90841
3.13632
3.36137
3.57656
3.79582
4.03614
4.31173
4.65607
5.16095
6.00738
7.63001
11.2114
20.2454
45.5438
126.799
471.292
2601.1
1.60343
1.61301
1.62609
1.64066
1.6571
1.67485
1.69405
1.71456
1.73651
1.75992
1.78493
1.81163
1.84018
1.87072
1.59585
1.59385
1.59618
1.60311
1.61712
1.64203
1.67885
1.73063
1.79923
1.88836
1.99754
2.12983
2.27928
2.44503
2.61815
2.80013
3.00954
3.25664
3.49541
3.71759
3.91496
4.10694
4.31642
4.56241
4.87408
5.34015
6.1473
7.72269
11.2254
20.1097
45.149
126.584
476.224
2651.15
1.59581
1.60363
1.6138
1.62687
1.64157
1.65797
1.67574
1.69488
1.71536
1.73723
1.76056
1.78546
1.81204
1.84044
1.87081
1.59369
1.59602
1.60299
1.61712
1.64232
1.6798
1.73275
1.80356
1.89638
2.0116
2.15358
2.31677
2.50225
2.69616
2.89885
3.13201
3.40796
3.6721
3.9122
4.12041
4.28847
4.44287
4.61384
4.82241
5.10066
5.52529
6.2907
7.81875
11.2496
19.9921
44.8066
126.381
480.989
2698.58
1.59355
1.59604
1.60416
1.61461
1.62769
1.6425
1.65887
1.67666
1.69574
1.71618
1.73797
1.76122
1.78601
1.81245
1.84069
1.8709
1.59587
1.60287
1.6171
1.64256
1.68062
1.73465
1.80752
1.90378
2.02484
2.17621
2.35321
2.55981
2.78056
3.01242
3.27616
3.59101
3.89221
4.16306
4.39148
4.57184
4.69674
4.80199
4.92617
5.08996
5.33073
5.71461
6.4364
7.91721
11.2798
19.8932
44.4944
126.244
485.522
2743.43
1.59576
1.59341
1.59655
1.6047
1.61547
1.62855
1.64346
1.65981
1.67759
1.69663
1.71702
1.73873
1.76189
1.78655
1.81285
1.84093
1.87098
1.60275
1.61707
1.64276
1.68134
1.73634
1.8111
1.91055
2.03719
2.19754
2.38828
2.61652
2.86604
3.13698
3.44451
3.8099
4.16184
4.478
4.74059
4.93977
5.07426
5.1393
5.18258
5.25118
5.36435
5.56215
5.90595
6.58312
8.01738
11.3152
19.8077
44.2244
126.115
489.831
2785.84
1.60269
1.59549
1.59321
1.59708
1.60529
1.61637
1.62946
1.64445
1.66078
1.67856
1.69755
1.71788
1.73951
1.76256
1.78708
1.81324
1.84117
1.87106
1.61702
1.64293
1.68197
1.73783
1.81431
1.9167
2.04861
2.21744
2.42178
2.67167
2.95075
3.26573
3.63355
4.07221
4.49285
4.87408
5.18904
5.42094
5.5658
5.63078
5.61588
5.58294
5.58685
5.644
5.79398
6.09776
6.72994
8.11803
11.3545
19.7368
43.9783
126.036
493.972
2825.79
1.61707
1.60215
1.59493
1.59297
1.59768
1.60594
1.61729
1.63041
1.64547
1.66179
1.67955
1.6985
1.71876
1.74029
1.76321
1.78759
1.81361
1.8414
1.87114
1.64304
1.6825
1.73916
1.81719
1.92226
2.0591
2.23589
2.45353
2.72464
3.03392
3.39682
3.83371
4.37549
4.90438
5.38104
5.77642
6.06106
6.2258
6.2802
6.24498
6.12626
6.00139
5.93124
5.92702
6.02522
6.28845
6.87545
8.21875
11.397
19.6759
43.7649
125.962
497.834
2863.52
1.64328
1.61609
1.60089
1.59431
1.59284
1.59834
1.60665
1.61825
1.6314
1.64651
1.66283
1.68057
1.69947
1.71964
1.74105
1.76384
1.78809
1.81398
1.84162
1.87122
1.68295
1.74032
1.81977
1.92729
2.06867
2.25291
2.48341
2.77501
3.11509
3.52907
4.04067
4.70614
5.40362
6.04662
6.56819
6.93845
7.13793
7.17882
7.09347
6.91997
6.66991
6.43621
6.2825
6.21173
6.2549
6.47751
7.0202
8.31888
11.4417
19.6262
43.571
125.926
501.596
2894.33
1.68352
1.64165
1.61362
1.59954
1.59384
1.59282
1.59901
1.60744
1.61922
1.63245
1.64759
1.66391
1.6816
1.70043
1.72049
1.74178
1.76445
1.78858
1.81433
1.84184
1.87129
1.74133
1.82205
1.93184
2.0774
2.26855
2.51136
2.82255
3.19392
3.66084
4.25127
5.06097
5.98076
6.90376
7.66134
8.17163
8.43358
8.45997
8.29915
8.01281
7.65702
7.24563
6.88548
6.63884
6.49662
6.48195
6.66183
7.16296
8.41798
11.488
19.5838
43.4013
125.889
504.577
2920.51
1.74247
1.6811
1.63736
1.61102
1.59838
1.59346
1.59291
1.5997
1.60831
1.62023
1.63355
1.64869
1.66503
1.68264
1.70137
1.72132
1.7425
1.76505
1.78905
1.81468
1.84205
1.87137
1.82408
1.93594
2.08535
2.28294
2.53738
2.86721
3.2701
3.79041
4.46345
5.44106
6.63872
7.94258
9.11763
9.91716
10.2931
10.3158
10.0518
9.59559
9.03961
8.45462
7.85113
7.34708
6.99852
6.78032
6.70624
6.84128
7.30291
8.51534
11.5353
19.5499
43.2486
125.885
507.227
2948.87
1.8262
1.73901
1.67428
1.63283
1.60875
1.59734
1.59316
1.59318
1.60038
1.60926
1.62126
1.6347
1.64982
1.66613
1.68365
1.70229
1.72212
1.7432
1.76563
1.78951
1.81501
1.84225
1.87144
1.93964
2.09257
2.29618
2.56155
2.90907
3.34335
3.91638
4.67674
5.84776
7.37863
9.15737
10.9034
12.2582
12.9385
12.9935
12.6079
11.9171
11.0645
10.1686
9.30811
8.48298
7.81855
7.35978
7.06164
6.9268
7.01567
7.4393
8.6108
11.5831
19.5213
43.1292
125.883
509.981
2979.94
1.94332
1.82144
1.72861
1.66719
1.62871
1.60665
1.59638
1.59285
1.59365
1.60106
1.61028
1.62232
1.63588
1.65095
1.66721
1.68463
1.70318
1.72291
1.74387
1.7662
1.78996
1.81534
1.84245
1.87147
2.09916
2.30834
2.58399
2.94832
3.41343
4.03798
4.8917
6.28081
8.19442
10.5334
12.9884
15.1194
16.478
16.797
16.2931
15.3043
14.0413
12.6911
11.3885
10.2101
9.1367
8.29717
7.72091
7.33951
7.14283
7.18473
7.57188
8.70361
11.6309
19.5019
43.0329
125.895
513.188
3013.62
2.10545
1.93691
1.80598
1.7179
1.6607
1.62483
1.60469
1.59549
1.59249
1.59427
1.60177
1.61137
1.62343
1.63706
1.65206
1.66826
1.68559
1.70404
1.72367
1.74453
1.76674
1.79039
1.81565
1.84255
1.87147
2.31958
2.60478
2.98513
3.48021
4.15503
5.10923
6.7378
9.07489
12.0463
15.3354
18.4429
20.79
21.8785
21.5223
20.181
18.3781
16.3969
14.4538
12.6846
11.1512
9.807
8.78004
8.08026
7.61295
7.35366
7.34837
7.69993
8.79397
11.6724
19.4865
42.931
125.903
516.487
3050.56
2.33001
2.09708
1.91422
1.79022
1.70805
1.65453
1.62116
1.60286
1.59469
1.59219
1.59499
1.60253
1.6125
1.62454
1.63822
1.65315
1.66929
1.68653
1.70489
1.72442
1.74517
1.76728
1.79081
1.81581
1.84255
1.87147
2.62415
3.01965
3.54367
4.26777
5.3301
7.21462
10.0065
13.6686
17.8986
22.1657
25.7864
28.0682
28.518
27.1093
24.6227
21.7891
18.9488
16.3268
14.0399
12.1216
10.4886
9.2642
8.43623
7.88105
7.5588
7.5062
7.82389
8.86999
11.7087
19.4731
42.8287
125.925
520.371
3090.68
2.64163
2.31914
2.06406
1.89137
1.77568
1.69866
1.64863
1.61769
1.60117
1.59397
1.59198
1.59577
1.60335
1.61363
1.62565
1.63934
1.65421
1.67028
1.68744
1.70571
1.72514
1.74579
1.7678
1.79102
1.81581
1.84255
1.87147
3.05219
3.60389
4.37677
5.55454
7.70608
10.9751
15.3724
20.6298
26.2136
31.3705
35.2403
37.0578
36.4107
33.5218
29.5658
25.4878
21.6586
18.2829
15.4368
13.1108
11.1761
9.74715
8.78728
8.14309
7.75775
7.65867
7.92737
8.93555
11.7499
19.46
42.7186
125.971
524.358
3134.71
3.08107
2.62762
2.27116
2.03129
1.87028
1.76177
1.68963
1.64299
1.61443
1.59961
1.59335
1.59188
1.59661
1.60424
1.61473
1.62676
1.64043
1.65525
1.67125
1.68833
1.7065
1.72585
1.7464
1.76805
1.79102
1.81581
1.84255
1.87147
3.66129
4.48272
5.78223
8.20628
11.9673
17.1315
23.4823
30.5082
37.4242
43.2483
46.9668
47.8046
45.5248
40.6948
34.9437
29.4201
24.4868
20.2956
16.8585
14.1089
11.8641
10.2263
9.13243
8.39835
7.95044
7.78576
8.01647
9.00842
11.7964
19.4506
42.6129
126.018
529.064
3182.66
3.71168
3.0626
2.55781
2.22428
2.00099
1.85006
1.74836
1.68094
1.63761
1.61137
1.59818
1.59285
1.59191
1.59744
1.60517
1.61581
1.62785
1.6415
1.65628
1.67219
1.6892
1.70728
1.72654
1.7467
1.76805
1.79102
1.81581
1.84255
1.87147
4.58641
6.01073
8.70914
12.9699
18.921
26.4115
34.9724
43.8216
51.9079
58.0269
61.0536
60.2896
55.7837
48.5391
40.6807
33.5301
27.3952
22.34
18.2897
15.1066
12.5475
10.6992
9.47069
8.64667
8.11265
7.89534
8.11517
9.08952
11.8494
19.4418
42.4969
126.122
533.932
3235.27
4.67833
3.6878
2.95937
2.49073
2.18094
1.97191
1.83051
1.73541
1.6726
1.63249
1.60852
1.59689
1.59247
1.5921
1.59822
1.60614
1.61685
1.62893
1.64253
1.65727
1.67311
1.69004
1.70803
1.72688
1.74669
1.76805
1.79102
1.81581
1.84255
1.87144
6.23772
9.21039
13.9711
20.718
29.3759
39.5333
50.4382
61.0201
69.9575
75.8434
77.5045
74.4285
67.0696
56.9471
46.6956
37.7624
30.3484
24.3941
19.7166
16.0958
13.2222
11.1637
9.80163
8.85792
8.25261
8.01677
8.22471
9.18004
11.9098
19.44
42.392
126.209
539.642
3292.74
4.64645
6.43934
3.52981
2.86256
2.42867
2.13931
1.94378
1.81161
1.72293
1.6646
1.62763
1.6059
1.59575
1.5922
1.59252
1.59897
1.60713
1.61787
1.63
1.64355
1.65825
1.674
1.69087
1.7084
1.72688
1.74669
1.76805
1.79102
1.81581
1.84245
1.87136
9.70617
14.9606
22.5016
32.3375
44.1245
57.1592
70.3901
82.4527
91.759
96.7317
96.2348
90.074
79.2316
65.7988
52.9058
42.0647
33.3144
26.4385
21.1276
17.0697
13.8845
11.6189
10.0836
9.04029
8.40776
8.15158
8.34646
9.28112
11.9785
19.4421
42.2756
126.395
545.655
3355.74
4.38673
6.40817
10.145
3.3868
2.77307
2.36908
2.09906
1.91656
1.79338
1.71093
1.65696
1.62301
1.60355
1.59476
1.59189
1.5931
1.5997
1.60813
1.61887
1.63105
1.64453
1.6592
1.67487
1.69128
1.7084
1.72688
1.74669
1.76805
1.79102
1.81565
1.84225
1.87129
15.9293
24.2544
35.2631
48.6873
63.8831
79.8428
95.2172
108.346
117.38
120.617
117.073
107.025
92.0943
74.9681
59.2313
46.389
36.2648
28.4564
22.5129
18.023
14.5322
12.0062
10.327
9.24259
8.58025
8.30155
8.48226
9.39464
12.0579
19.4487
42.1769
126.561
552.591
3424.81
4.15959
5.95168
10.1318
16.7871
3.25589
2.68724
2.31154
2.06014
1.89029
1.77582
1.69944
1.64969
1.61867
1.60148
1.59394
1.59161
1.59378
1.60042
1.60913
1.61985
1.63208
1.6455
1.66013
1.6753
1.69128
1.7084
1.72688
1.74669
1.76805
1.79081
1.81533
1.84204
1.87122
25.9613
38.126
53.1726
70.5245
89.2304
107.992
125.169
138.797
146.766
147.316
139.77
125.039
105.468
84.3303
65.5975
50.6921
39.1751
30.4341
23.8649
18.9516
15.0808
12.3398
10.5969
9.46756
8.77256
8.4687
8.63338
9.52286
12.1485
19.4653
42.0694
126.858
560.127
3500.36
3.95568
5.5541
9.30387
16.8386
27.4831
3.13105
2.60447
2.25596
2.02256
1.86498
1.75896
1.68846
1.64284
1.61477
1.59971
1.59324
1.59144
1.5945
1.60116
1.61013
1.62082
1.63308
1.64645
1.66059
1.67529
1.69128
1.7084
1.72688
1.7467
1.76779
1.79038
1.815
1.84183
1.87114
40.9039
57.5428
77.0157
98.4349
120.569
141.855
160.355
173.771
179.735
176.542
164.009
143.843
119.16
93.767
71.9366
54.9362
42.0251
32.3608
25.178
19.7342
15.5524
12.7097
10.8971
9.71822
8.98736
8.6556
8.8015
9.66768
12.2541
19.4886
41.9841
127.171
568.576
3583.48
3.76481
5.1977
8.56433
15.463
27.7024
43.3916
3.01123
2.5247
2.2024
1.98639
1.84069
1.74285
1.6781
1.6366
1.61136
1.59819
1.59268
1.59137
1.59523
1.60192
1.6111
1.62177
1.63407
1.6469
1.66059
1.67529
1.69128
1.7084
1.72688
1.74639
1.76727
1.78995
1.81467
1.84161
1.87106
61.7678
83.3085
107.369
132.793
158.117
181.529
200.756
213.106
215.988
207.915
189.425
163.154
132.984
103.169
78.1885
59.0903
44.7984
34.2281
26.2806
20.4056
16.0742
13.1204
11.2315
9.99805
9.22771
8.86525
8.98917
9.83182
12.3751
19.5312
41.9016
127.616
578.168
3674.18
3.58469
4.86677
7.89331
14.1883
25.6115
43.9274
65.5593
2.89617
2.44799
2.15092
1.9517
1.81746
1.72762
1.66862
1.63106
1.60838
1.59689
1.59226
1.5914
1.59595
1.6027
1.61206
1.62274
1.63456
1.64688
1.66059
1.67529
1.69128
1.7084
1.72653
1.74578
1.76673
1.7895
1.81432
1.84139
1.87098
89.3659
115.976
144.557
173.757
201.929
226.989
246.235
256.52
255.11
240.982
215.624
182.691
146.767
112.44
84.3034
63.1285
47.4822
35.7923
27.2255
21.1475
16.6526
13.5773
11.6046
10.3111
9.49721
9.10091
9.19944
10.0178
12.5173
19.5845
41.842
128.182
588.52
3774.08
3.41453
4.55753
7.267
12.9915
23.6375
40.9612
66.5969
94.7994
2.78585
2.37448
2.10162
1.91856
1.7955
1.71365
1.66013
1.62613
1.60577
1.59579
1.59196
1.59156
1.59666
1.60351
1.61303
1.62319
1.63455
1.64688
1.66059
1.67529
1.69128
1.70803
1.72584
1.74515
1.76618
1.78904
1.81396
1.84116
1.8709
124.218
155.806
188.656
221.306
251.942
278.113
296.549
303.605
296.585
275.232
242.208
202.189
160.351
121.498
90.2399
67.0302
49.726
37.1324
28.2693
21.9687
17.2947
14.0861
12.0214
10.6621
9.80003
9.36636
9.43582
10.2295
12.6815
19.6641
41.8082
128.811
600.867
3903.01
3.25392
4.26937
6.67884
11.852
21.7459
38.1308
62.6134
96.5368
131.586
2.68037
2.30433
2.05461
1.88726
1.77535
1.70111
1.65254
1.62175
1.6035
1.59486
1.59176
1.59184
1.59736
1.60438
1.61349
1.62315
1.63455
1.64688
1.66059
1.6753
1.69086
1.70726
1.72512
1.74451
1.76561
1.78856
1.8136
1.84092
1.87081
166.504
202.768
239.536
275.303
308.026
334.711
351.353
353.84
339.812
310.135
268.788
221.406
173.607
130.275
95.964
70.286
51.649
38.6133
29.424
22.879
18.0083
14.6536
12.488
11.0564
10.1409
9.66601
9.70263
10.4706
12.8752
19.7667
41.8154
129.826
616.173
4061.69
3.10246
4.00241
6.12896
10.7641
19.9067
35.3785
58.8024
91.4097
134.199
176.009
2.5799
2.23768
2.0103
1.85859
1.75725
1.68986
1.64574
1.61785
1.60156
1.59409
1.59158
1.59228
1.59812
1.60477
1.61343
1.62314
1.63455
1.64688
1.66059
1.67487
1.69003
1.70648
1.72439
1.74385
1.76503
1.78808
1.81322
1.84068
1.87072
216.08
256.605
296.951
335.572
370.026
396.538
410.201
406.6
384.138
345.155
295.007
240.138
186.424
138.716
100.728
73.0761
53.7749
40.252
30.7034
23.8891
18.8023
15.2872
13.0108
11.4999
10.5254
10.005
10.0047
10.7466
13.1015
19.9032
41.8535
130.879
637.624
4225.74
2.95938
3.75724
5.61919
9.73121
18.1103
32.6628
55.0642
86.5323
127.8
179.606
227.784
2.48472
2.17509
1.96978
1.83285
1.74099
1.67976
1.63965
1.61437
1.5999
1.59343
1.59141
1.59291
1.59842
1.60469
1.61343
1.62314
1.63455
1.6469
1.66012
1.67399
1.68917
1.70568
1.72365
1.74317
1.76443
1.78758
1.81284
1.84043
1.87063
272.54
316.933
360.64
401.964
437.817
463.313
472.554
461.171
428.88
379.791
320.56
258.213
198.711
145.717
104.809
76.162
56.1283
42.0677
32.1225
25.0113
19.6866
15.9953
13.5972
11.9994
10.9597
10.3891
10.348
11.0627
13.3679
20.0877
41.9599
133.211
659.019
4395.76
2.82415
3.5362
5.15063
8.76259
16.3586
29.9656
51.3407
81.7361
121.8
171.773
232.37
286.335
2.39573
2.11806
1.93349
1.80974
1.72639
1.67069
1.63421
1.61128
1.59848
1.59291
1.59149
1.59317
1.59826
1.6047
1.61343
1.62314
1.63456
1.64644
1.65918
1.67308
1.6883
1.70485
1.72288
1.74247
1.76382
1.78707
1.81245
1.84018
1.87054
335.349
383.374
430.435
474.499
511.392
534.744
537.775
516.767
473.369
413.599
345.189
275.49
208.864
151.709
109.322
79.5782
58.7363
44.0816
33.6981
26.2592
20.6723
16.7871
14.2554
12.5622
11.4508
10.8252
10.7391
11.4268
13.6853
20.353
42.2691
135.066
684.647
4570.04
2.69771
3.33515
4.7228
7.86276
14.6597
27.2848
47.5981
76.9407
115.926
164.6
222.865
291.773
350.939
2.3151
2.06713
1.90098
1.789
1.71327
1.66257
1.62935
1.60856
1.5973
1.59275
1.59138
1.59303
1.59826
1.6047
1.61343
1.62319
1.63407
1.64548
1.65822
1.67216
1.68741
1.70401
1.72209
1.74176
1.76319
1.78654
1.81204
1.83992
1.87045
403.995
455.705
506.453
553.485
590.9
610.514
605.124
572.579
517.001
446.209
368.681
289.711
217.538
158.329
114.315
83.3629
61.6287
46.3173
35.449
27.6478
21.7714
17.6728
14.9949
13.1967
12.0066
11.3206
11.1863
11.8464
14.1239
20.7946
42.6118
138.537
710.661
4747.73
2.58311
3.15229
4.33738
7.03275
13.0301
24.6299
43.8231
72.088
110.07
157.661
214.439
280.238
356.93
420.908
2.24352
2.02164
1.87186
1.77039
1.70151
1.65529
1.62501
1.60622
1.59664
1.59247
1.59106
1.59307
1.59826
1.60469
1.61348
1.62273
1.63306
1.6445
1.65724
1.67121
1.68649
1.70314
1.72129
1.74103
1.76255
1.786
1.81163
1.83967
1.87036
478.159
534.048
589.201
639.523
676.592
690.211
673.777
627.841
559.259
477.311
387.961
301.835
227.104
165.642
119.841
87.5578
64.8386
48.801
37.3959
29.1936
22.9973
18.6636
15.8253
13.9118
12.6353
11.8842
11.6978
12.421
14.7405
21.3088
43.3534
141.413
741.102
4928.02
2.48147
2.98933
3.99611
6.27836
11.4894
22.0186
40.0175
67.1441
104.14
150.818
206.45
270.415
342.828
427.01
495.806
2.17998
1.98101
1.84579
1.75371
1.69096
1.64876
1.62119
1.60467
1.59606
1.59207
1.59108
1.59307
1.59826
1.60477
1.61302
1.62175
1.63205
1.64351
1.65624
1.67024
1.68555
1.70226
1.72047
1.74028
1.76189
1.78546
1.81122
1.83942
1.87027
557.949
619.091
679.788
733.633
768.721
773.28
742.893
681.889
599.712
502.815
404.37
315.179
237.647
173.718
125.957
92.2082
68.4021
51.5612
39.5615
30.9148
24.3645
19.7716
16.7571
14.717
13.3468
12.5239
12.3909
13.1779
15.4459
22.0256
44.0836
146.302
773.253
5108.1
2.39159
2.84525
3.70473
5.60873
10.0571
19.4752
36.1941
62.0918
98.0722
143.935
198.725
261.355
331.366
409.541
501.501
575.728
2.12352
1.94472
1.82245
1.73875
1.68147
1.64297
1.61845
1.60354
1.59552
1.59211
1.59108
1.59302
1.59842
1.60437
1.61204
1.62079
1.63101
1.64249
1.65521
1.66925
1.6846
1.70135
1.71962
1.73951
1.76122
1.78492
1.81082
1.83918
1.87018
644.23
712.461
780.251
837.278
867.595
859.103
811.782
734.171
632.999
524.513
422.397
329.845
249.256
182.632
132.722
97.3632
72.3583
54.629
41.9705
32.8309
25.8886
21.0096
17.8013
15.6227
14.1489
13.3843
13.2966
14.0159
16.2792
22.8396
45.4437
150.899
809.566
5288.44
2.31226
2.71687
3.46467
5.03781
8.76423
17.0273
32.3761
56.9267
91.8189
136.913
191.08
252.852
321.149
396.078
479.477
580.485
661.719
2.0733
1.91233
1.80157
1.72531
1.67303
1.63865
1.61663
1.60278
1.59559
1.59211
1.59105
1.59317
1.59812
1.60349
1.61107
1.61981
1.62996
1.64145
1.65417
1.66823
1.68362
1.70041
1.71876
1.73873
1.76055
1.78439
1.81043
1.83895
1.8701
739.088
817.25
893.765
952.656
973.424
947.551
879.908
777.674
661.391
548.345
442.167
345.941
262.021
192.46
140.2
103.074
76.7489
58.0377
44.6492
34.963
27.586
22.3911
18.9695
16.6375
15.2202
14.4877
14.2906
14.9507
17.2116
23.9266
46.907
157.667
850.299
5464.39
2.24228
2.60254
3.26283
4.56253
7.64392
14.7202
28.5968
51.6565
85.3418
129.663
183.374
244.659
311.93
384.53
463.531
552.198
665.217
756.49
2.02865
1.88344
1.78282
1.71334
1.66657
1.63589
1.61563
1.60289
1.59559
1.59207
1.59138
1.59291
1.59734
1.60268
1.61009
1.61883
1.62889
1.64039
1.65311
1.66718
1.68262
1.69946
1.71787
1.73796
1.7599
1.78388
1.81005
1.83872
1.87001
846.637
938.799
1025.77
1081.71
1088.63
1038.72
937.951
815.075
692.683
574.484
463.816
363.574
276.032
203.278
148.457
109.396
81.6178
61.8225
47.6256
37.3329
29.4737
23.9298
20.2716
17.984
16.5765
15.678
15.3709
15.9726
18.2917
25.1623
49.1521
164.991
894.644
5637.44
2.18053
2.50108
3.08972
4.17017
6.7007
12.6464
24.9251
46.3047
78.6136
122.097
175.47
236.594
303.386
374.591
450.378
533.201
628.13
759.113
865.674
1.98892
1.85758
1.76611
1.70402
1.66254
1.63459
1.61579
1.60289
1.59551
1.59247
1.5915
1.59227
1.59664
1.60189
1.60909
1.61782
1.62781
1.6393
1.65203
1.66611
1.6816
1.69849
1.717
1.73721
1.75927
1.78339
1.80969
1.8385
1.86993
974.599
1087.14
1181.3
1235.44
1216.06
1119.49
988.662
856.704
727.173
603.129
487.477
382.846
291.377
215.162
157.556
116.382
87.0101
66.0199
50.9287
39.9632
31.5695
25.6381
21.9895
19.6712
18.0205
16.9472
16.5273
17.0929
19.4834
26.7179
51.8054
174.575
946.651
5801.97
2.12599
2.41151
2.93865
3.84746
5.91675
10.8516
21.5057
40.9502
71.6229
114.133
167.226
228.476
295.297
365.842
439.636
518.087
605.484
709.356
869.425
1001.43
1.95349
1.8346
1.75292
1.69833
1.66084
1.63482
1.61579
1.60277
1.59606
1.59275
1.5914
1.59183
1.59593
1.60113
1.60809
1.61681
1.62672
1.63818
1.65093
1.66501
1.68056
1.69753
1.71615
1.73648
1.75866
1.78292
1.80933
1.83829
1.86986
1138.27
1274.67
1395.03
1425.22
1334.71
1191.72
1046.19
903.193
765.246
634.508
513.295
403.859
308.135
228.182
167.56
124.086
92.9707
70.6664
54.5874
42.8768
33.8895
27.8829
24.1258
21.4502
19.5399
18.2834
17.7545
18.2956
20.8292
28.5108
55.3224
186.321
1002.22
5959.84
2.07764
2.33278
2.80502
3.58469
5.27201
9.32723
18.4328
35.796
64.4304
105.695
158.487
220.104
287.434
358.019
430.757
506.379
588.011
682.351
801.57
1013.51
1186.31
1.92205
1.81626
1.74495
1.69618
1.66115
1.63482
1.61563
1.60354
1.59665
1.59292
1.59158
1.59154
1.59519
1.60039
1.60709
1.61577
1.62562
1.63704
1.64981
1.6639
1.67953
1.6966
1.71533
1.73578
1.75806
1.78245
1.80898
1.83809
1.86978
1371.3
1585.42
1694.77
1609.01
1443.29
1275.81
1112.08
955.499
807.431
668.917
541.435
426.714
326.381
242.402
178.527
132.559
99.5427
75.7974
58.6302
46.0944
36.9292
30.6588
26.3627
23.3053
21.1201
19.6744
19.0398
19.5858
22.3105
30.6456
59.6517
200.621
1068.25
6105.84
2.03493
2.26358
2.6862
3.36879
4.74452
8.05328
15.7144
31.0015
57.2794
96.7869
149.092
211.252
279.554
350.851
423.419
497.369
575.088
662.126
768.883
917.626
1237.69
1491.55
1.89667
1.80542
1.74221
1.69662
1.66115
1.63459
1.61663
1.60469
1.59731
1.59344
1.59176
1.59139
1.59446
1.59966
1.6061
1.6147
1.62452
1.63587
1.64868
1.66281
1.67853
1.69571
1.71453
1.7351
1.75748
1.782
1.80865
1.83789
1.86971
1819.71
2047.84
1984.05
1778.67
1573.63
1375.52
1189.09
1015.11
854.549
706.771
572.105
451.518
346.18
257.875
190.504
141.845
106.765
81.4458
63.0818
50.2994
40.6727
33.5522
28.6818
25.2191
22.7454
21.1064
20.3751
20.9564
23.945
33.1445
64.8771
218.911
1139.83
6241.73
2.00022
2.20311
2.58054
3.1871
4.31589
6.99815
13.352
26.6122
50.3921
87.6442
138.943
201.662
271.368
344.065
417.307
490.639
565.878
647.627
745.59
877.163
1090.77
1688.05
2154.64
1.88177
1.80202
1.74279
1.69662
1.66083
1.6359
1.61849
1.60625
1.59851
1.5941
1.59196
1.59136
1.59375
1.59894
1.60514
1.6136
1.62342
1.63468
1.64756
1.66176
1.67756
1.69485
1.71375
1.73445
1.75692
1.78157
1.80832
1.8377
1.86967
2509.16
2536.2
2271.72
2001.93
1738.13