/*--------------------------------*- C++ -*----------------------------------*\
  =========                 |
  \\      /  F ield         | OpenFOAM: The Open Source CFD Toolbox
   \\    /   O peration     | Website:  https://openfoam.org
    \\  /    A nd           | Version:  8
     \\/     M anipulation  |
\*---------------------------------------------------------------------------*/
FoamFile
{
    version     2.0;
    format      ascii;
    class       volScalarField;
    location    "400";
    object      k;
}
// * * * * * * * * * * * * * * * * * * * * * * * * * * * * * * * * * * * * * //

dimensions      [0 2 -2 0 0 0 0];

internalField   nonuniform List<scalar> 
15677
(
0.99154
0.878709
1.19177
0.495983
0.831008
1.13862
0.398763
0.479959
0.693335
1.0427
0.380438
0.386828
0.414435
0.659578
0.977966
0.375731
0.37261
0.358584
0.359294
0.66855
0.936489
0.374332
0.370445
0.355689
0.317531
0.35855
0.691701
0.91103
0.373838
0.370028
0.359204
0.329886
0.296002
0.368844
0.717102
0.893159
0.373577
0.369928
0.36205
0.342611
0.309251
0.283174
0.392578
0.732111
0.881419
0.373422
0.36999
0.364006
0.350928
0.326924
0.292399
0.284204
0.423505
0.744531
0.871952
0.37333
0.370043
0.365278
0.356119
0.339393
0.312662
0.282006
0.289378
0.456245
0.747406
0.865467
0.373281
0.370046
0.366076
0.359367
0.347558
0.328244
0.300836
0.275544
0.300392
0.483675
0.749981
0.861649
0.373257
0.370013
0.366542
0.361409
0.352857
0.338969
0.318055
0.291624
0.272405
0.315298
0.507809
0.750965
0.860403
0.373248
0.369972
0.366772
0.36267
0.356301
0.346192
0.330701
0.309276
0.284377
0.272829
0.331754
0.527184
0.751158
0.861046
0.373246
0.369936
0.366849
0.363403
0.358521
0.351034
0.339589
0.323155
0.301661
0.279364
0.274534
0.347443
0.543614
0.75099
0.863275
0.373245
0.369915
0.366849
0.363775
0.359901
0.354254
0.345743
0.333337
0.316294
0.295397
0.275779
0.277936
0.363226
0.555415
0.750985
0.867848
0.373244
0.369905
0.366826
0.363919
0.360693
0.356343
0.349956
0.340621
0.327483
0.310259
0.29019
0.273337
0.282846
0.376744
0.565261
0.750904
0.874787
0.373244
0.369899
0.366806
0.363944
0.361081
0.357624
0.352777
0.345748
0.335735
0.32214
0.304965
0.285944
0.271958
0.287882
0.389236
0.571445
0.751013
0.883808
0.373243
0.369896
0.366792
0.363933
0.361211
0.358328
0.354581
0.349277
0.34169
0.33117
0.317297
0.300404
0.282512
0.27136
0.293488
0.3988
0.576754
0.75101
0.894941
0.373243
0.369894
0.366784
0.363917
0.361237
0.35862
0.355641
0.351612
0.345888
0.337846
0.32695
0.312997
0.296458
0.279807
0.271478
0.298536
0.407095
0.57951
0.750987
0.908178
0.373243
0.369891
0.366778
0.363903
0.36123
0.358718
0.35613
0.353054
0.348741
0.342657
0.334255
0.323124
0.309171
0.293163
0.277661
0.271864
0.303346
0.412993
0.581215
0.751006
0.923482
0.373243
0.36989
0.366774
0.363893
0.361215
0.358738
0.356325
0.353772
0.350563
0.346005
0.339625
0.330952
0.319675
0.305883
0.290337
0.276099
0.272611
0.30731
0.417638
0.581121
0.751069
0.94081
0.373243
0.369888
0.366772
0.363885
0.361202
0.358729
0.356389
0.354092
0.351514
0.348211
0.343439
0.336818
0.327965
0.316656
0.30302
0.288118
0.274839
0.273615
0.310781
0.420264
0.580568
0.75121
0.960045
0.373243
0.369887
0.36677
0.363878
0.361191
0.358713
0.356397
0.354218
0.351965
0.349416
0.346006
0.341063
0.334289
0.325325
0.314038
0.300695
0.286236
0.274126
0.274622
0.313355
0.422099
0.579325
0.751336
0.981111
0.373243
0.369887
0.366768
0.363873
0.361182
0.358697
0.356386
0.354252
0.352164
0.350022
0.347444
0.343991
0.338946
0.332051
0.323062
0.311874
0.298761
0.284954
0.273575
0.275673
0.315397
0.422047
0.57705
0.751583
1.00386
0.373243
0.369886
0.366767
0.363869
0.361176
0.358683
0.35637
0.354247
0.352235
0.350308
0.34819
0.345693
0.342209
0.337077
0.330173
0.321209
0.310169
0.297409
0.283951
0.273568
0.276669
0.316781
0.421518
0.57434
0.751822
1.02816
0.373244
0.369886
0.366766
0.363866
0.361171
0.358672
0.356354
0.354228
0.352247
0.350421
0.348563
0.346614
0.34412
0.340669
0.335595
0.328704
0.319835
0.308938
0.296383
0.283519
0.273739
0.277675
0.317523
0.420329
0.571078
0.752223
1.05387
0.373244
0.369885
0.366765
0.363864
0.361166
0.358663
0.356341
0.354206
0.352234
0.350447
0.348728
0.34709
0.345168
0.342869
0.339536
0.334446
0.327633
0.318874
0.308254
0.29614
0.283616
0.274164
0.278632
0.31791
0.418236
0.56754
0.752636
1.08081
0.373244
0.369885
0.366764
0.363862
0.361163
0.358656
0.35633
0.354186
0.352214
0.350434
0.348785
0.347304
0.345735
0.344129
0.341901
0.338644
0.333819
0.327261
0.318786
0.308342
0.296347
0.283992
0.274922
0.279618
0.317862
0.415642
0.563638
0.753179
1.10882
0.373244
0.369885
0.366764
0.363861
0.36116
0.35865
0.35632
0.354169
0.352192
0.350406
0.348788
0.347377
0.34602
0.344819
0.343245
0.341398
0.338584
0.333926
0.327488
0.319115
0.308808
0.29696
0.284793
0.276007
0.280659
0.317681
0.412665
0.559629
0.753769
1.1375
0.373244
0.369884
0.366763
0.36386
0.361158
0.358646
0.356313
0.354156
0.352172
0.350376
0.348766
0.347379
0.34614
0.345148
0.344018
0.343062
0.341545
0.338913
0.33446
0.328216
0.320006
0.309864
0.298198
0.286208
0.277405
0.281817
0.317328
0.409411
0.555402
0.754605
1.17013
0.373244
0.369884
0.366763
0.363859
0.361156
0.358642
0.356306
0.354145
0.352155
0.350349
0.348735
0.347349
0.34617
0.345277
0.344462
0.344032
0.34332
0.342123
0.339812
0.33566
0.329724
0.321762
0.311786
0.300187
0.288129
0.279168
0.283146
0.316852
0.405982
0.551194
0.755782
1.20698
0.373244
0.369884
0.366763
0.363859
0.361154
0.35864
0.356301
0.354136
0.352141
0.350327
0.348705
0.347309
0.346153
0.345303
0.344674
0.344532
0.344376
0.344083
0.343372
0.341598
0.337886
0.332236
0.324436
0.314527
0.302847
0.290629
0.281287
0.284653
0.316432
0.402468
0.546442
0.757464
1.24402
0.373244
0.369884
0.366762
0.363858
0.361152
0.358637
0.356296
0.354128
0.352129
0.350307
0.348678
0.34727
0.346114
0.345277
0.344748
0.344774
0.344961
0.345279
0.345633
0.345649
0.344441
0.341133
0.335744
0.328073
0.318105
0.306264
0.293679
0.283812
0.286412
0.316069
0.398569
0.54111
0.759303
1.28108
0.373244
0.369884
0.366762
0.363858
0.361151
0.358635
0.356292
0.354122
0.352118
0.350292
0.348654
0.347235
0.346072
0.34523
0.344746
0.344865
0.345259
0.34598
0.347066
0.348247
0.349004
0.348425
0.345524
0.340373
0.332719
0.322616
0.310417
0.29735
0.286722
0.288349
0.315947
0.394543
0.535818
0.761435
1.31778
0.369884
0.373248
0.366762
0.363857
0.36115
0.358634
0.356288
0.354117
0.352109
0.350278
0.348633
0.347205
0.346033
0.34518
0.344707
0.344876
0.345386
0.34636
0.347951
0.349943
0.352015
0.353616
0.353703
0.351203
0.346199
0.338487
0.328055
0.315386
0.301607
0.290091
0.290715
0.316074
0.390769
0.530676
0.763594
1.35395
0.366762
0.369894
0.373255
0.363857
0.361149
0.358632
0.356285
0.354113
0.3521
0.350267
0.348615
0.347179
0.345997
0.345133
0.344657
0.344843
0.345421
0.346547
0.34847
0.351035
0.354048
0.357142
0.359668
0.360449
0.35828
0.35335
0.345391
0.334519
0.321133
0.3065
0.294316
0.293704
0.316448
0.387407
0.525705
0.766063
1.38931
0.363857
0.366778
0.369915
0.373262
0.361148
0.358631
0.356282
0.354109
0.352093
0.350257
0.348599
0.347157
0.345966
0.345091
0.344608
0.344797
0.345405
0.346625
0.348761
0.351725
0.355419
0.359608
0.363838
0.367362
0.368806
0.366905
0.361868
0.353544
0.341967
0.327721
0.312612
0.299654
0.297037
0.317202
0.384341
0.520977
0.768364
1.42376
0.361147
0.363879
0.366811
0.369937
0.37327
0.35863
0.35628
0.354106
0.352087
0.350249
0.348585
0.347139
0.345938
0.345055
0.344562
0.344749
0.345371
0.346644
0.348921
0.352161
0.356348
0.361351
0.366863
0.372339
0.376878
0.378957
0.37715
0.371883
0.362912
0.350485
0.335934
0.320298
0.30561
0.300741
0.318314
0.381741
0.516548
0.770727
1.45705
0.358629
0.361174
0.363923
0.366845
0.36996
0.373277
0.356278
0.354103
0.352082
0.350242
0.348572
0.347123
0.345913
0.345023
0.344522
0.344706
0.345333
0.346637
0.349005
0.352446
0.356996
0.362612
0.369103
0.376079
0.382858
0.388434
0.391008
0.389173
0.383379
0.373606
0.361081
0.346234
0.32885
0.312149
0.304778
0.319809
0.379422
0.512608
0.772884
1.4892
0.356276
0.35866
0.361229
0.363969
0.36688
0.369983
0.373285
0.3541
0.352077
0.350235
0.348561
0.347109
0.345891
0.344995
0.344486
0.344666
0.345297
0.346622
0.349052
0.35264
0.357477
0.363566
0.37082
0.378973
0.38751
0.395651
0.40217
0.40515
0.402975
0.396487
0.386895
0.37436
0.357678
0.338198
0.319211
0.309155
0.321559
0.377563
0.508899
0.77519
1.52
0.354098
0.35631
0.358724
0.361285
0.364017
0.366917
0.370006
0.373293
0.352073
0.35023
0.348551
0.347097
0.345872
0.344971
0.344454
0.344632
0.345264
0.346605
0.349083
0.352784
0.357851
0.364341
0.372214
0.381317
0.391265
0.401455
0.410897
0.418317
0.421395
0.418719
0.412782
0.403548
0.389107
0.370173
0.348264
0.326742
0.313816
0.323645
0.375952
0.505662
0.777259
1.54953
0.352069
0.354135
0.356382
0.35879
0.361343
0.364065
0.366954
0.37003
0.373302
0.350225
0.348542
0.347086
0.345854
0.34495
0.344426
0.344601
0.345235
0.34659
0.349107
0.3529
0.358156
0.364992
0.373423
0.383329
0.394457
0.406338
0.418162
0.428896
0.436922
0.439962
0.438288
0.4332
0.42204
0.4052
0.383611
0.358964
0.334679
0.318743
0.325916
0.374751
0.502588
0.779516
1.57764
0.350221
0.352108
0.354214
0.356456
0.358857
0.361402
0.364115
0.366992
0.370055
0.373311
0.348535
0.347077
0.345837
0.344932
0.3444
0.344573
0.345209
0.346577
0.349127
0.353003
0.35842
0.365552
0.374496
0.385163
0.397324
0.410662
0.424497
0.437992
0.449749
0.458291
0.463087
0.462844
0.455874
0.442208
0.422487
0.397873
0.370208
0.342957
0.323888
0.328469
0.373804
0.499977
0.781519
1.60442
0.348528
0.350261
0.352191
0.354295
0.356532
0.358927
0.361464
0.364166
0.367031
0.37008
0.373319
0.347069
0.345823
0.344916
0.344376
0.344547
0.345186
0.346565
0.349146
0.353094
0.358656
0.36605
0.375451
0.386855
0.400044
0.414703
0.430317
0.446191
0.4611
0.473841
0.485057
0.492276
0.490186
0.480617
0.463859
0.440815
0.412834
0.381899
0.351508
0.329205
0.331036
0.373304
0.497496
0.783706
1.62979
0.347062
0.348567
0.350348
0.352277
0.354379
0.35661
0.358999
0.361527
0.364219
0.367072
0.370106
0.373329
0.345809
0.344902
0.344355
0.344524
0.345164
0.346553
0.349161
0.353176
0.358869
0.366502
0.376317
0.388396
0.402632
0.418668
0.435942
0.453979
0.471654
0.487993
0.50419
0.519073
0.524984
0.520165
0.507242
0.486823
0.460016
0.428353
0.393931
0.360262
0.334708
0.333662
0.372931
0.495429
0.785656
1.65384
0.345798
0.347099
0.348652
0.350438
0.352366
0.354464
0.356691
0.359072
0.361592
0.364273
0.367113
0.370133
0.373338
0.344891
0.344334
0.344502
0.345143
0.346541
0.349174
0.353249
0.359062
0.366915
0.377112
0.389816
0.40504
0.422538
0.441612
0.461735
0.481986
0.501552
0.522118
0.543093
0.557471
0.56105
0.552581
0.535567
0.510896
0.479914
0.444293
0.406207
0.369156
0.340343
0.336313
0.372937
0.493467
0.78774
1.67655
0.344882
0.345826
0.347183
0.34874
0.350531
0.352458
0.354553
0.356774
0.359148
0.361658
0.364328
0.367156
0.37016
0.373347
0.344314
0.344482
0.345124
0.34653
0.349184
0.353313
0.359234
0.36729
0.377841
0.39113
0.40729
0.426198
0.447264
0.469764
0.49256
0.515208
0.539818
0.566336
0.587436
0.600177
0.600292
0.587214
0.56538
0.535899
0.500349
0.460521
0.418631
0.378126
0.346062
0.33901
0.37303
0.491856
0.789637
1.69798
0.344298
0.344906
0.345894
0.347269
0.348833
0.350627
0.352553
0.354644
0.35686
0.359225
0.361727
0.364385
0.367199
0.370187
0.373357
0.344464
0.345106
0.346518
0.349191
0.353369
0.359387
0.367628
0.378507
0.392346
0.409393
0.429653
0.452702
0.477951
0.503751
0.529548
0.558176
0.590068
0.617367
0.637317
0.647117
0.642532
0.623826
0.596433
0.561629
0.521156
0.476915
0.431111
0.387114
0.351815
0.341724
0.373258
0.490309
0.79159
1.71817
0.344451
0.34429
0.344963
0.345964
0.347359
0.348929
0.350725
0.352651
0.354738
0.356948
0.359305
0.361798
0.364443
0.367243
0.370213
0.373365
0.345089
0.346507
0.349196
0.353416
0.359522
0.367932
0.379112
0.393464
0.411351
0.432911
0.457909
0.48596
0.515356
0.545083
0.578003
0.615517
0.648974
0.675651
0.69292
0.698275
0.687593
0.662175
0.62849
0.587897
0.542193
0.493364
0.443568
0.396064
0.357566
0.344455
0.37361
0.489059
0.793422
1.73715
0.345078
0.344425
0.344286
0.345022
0.346041
0.347453
0.34903
0.350827
0.352752
0.354834
0.357039
0.359387
0.36187
0.364501
0.367285
0.370239
0.373374
0.346496
0.349198
0.353456
0.359641
0.368203
0.379658
0.394487
0.413164
0.435968
0.462877
0.49371
0.526855
0.561598
0.600081
0.643895
0.684078
0.717693
0.741998
0.754672
0.753727
0.735331
0.702044
0.661335
0.614515
0.563327
0.509768
0.455931
0.40493
0.363276
0.347173
0.37412
0.487858
0.79522
1.75501
0.346493
0.345021
0.344381
0.344284
0.345086
0.346124
0.347551
0.349135
0.350933
0.352857
0.354933
0.357133
0.359471
0.361941
0.364557
0.367325
0.370264
0.373382
0.349197
0.35349
0.359745
0.368444
0.38015
0.395419
0.414832
0.438822
0.467584
0.501159
0.538145
0.578395
0.624109
0.676452
0.72478
0.766574
0.798431
0.817846
0.823266
0.813653
0.785648
0.74324
0.694771
0.641314
0.584432
0.52604
0.468138
0.413667
0.36892
0.349887
0.374661
0.486891
0.796976
1.77174
0.349206
0.346387
0.344903
0.344334
0.344296
0.345153
0.346213
0.347651
0.349244
0.351041
0.352965
0.355035
0.357228
0.359554
0.36201
0.364612
0.367365
0.370288
0.373391
0.353516
0.359835
0.368659
0.380591
0.396263
0.416361
0.441469
0.472013
0.508275
0.549192
0.595263
0.648877
0.71305
0.773895
0.826635
0.86793
0.894495
0.905011
0.899487
0.878252
0.838456
0.785586
0.728622
0.668144
0.605398
0.542103
0.480135
0.42224
0.374466
0.352565
0.375312
0.485967
0.798605
1.78748
0.353555
0.349019
0.346149
0.344776
0.344295
0.344329
0.345222
0.34631
0.347755
0.349358
0.351153
0.353076
0.35514
0.357323
0.359635
0.362078
0.364665
0.367403
0.370311
0.373398
0.359912
0.368848
0.380987
0.397026
0.417756
0.443914
0.476154
0.515034
0.559934
0.612006
0.673971
0.752589
0.833037
0.904106
0.958457
0.993893
1.00901
1.00493
0.983848
0.947583
0.893627
0.828905
0.762725
0.694876
0.626127
0.557889
0.491877
0.430615
0.3799
0.355213
0.375974
0.48522
0.800274
1.80027
0.360002
0.353271
0.348579
0.3459
0.344665
0.344249
0.344379
0.345292
0.346413
0.347863
0.349476
0.351268
0.35319
0.355244
0.357415
0.359714
0.362144
0.364716
0.367441
0.370334
0.373406
0.369014
0.381341
0.397718
0.419028
0.446163
0.480009
0.521421
0.570296
0.628423
0.699352
0.79546
0.901655
1.00249
1.07957
1.12717
1.14768
1.14317
1.11786
1.07623
1.02142
0.950933
0.873003
0.796925
0.721394
0.646536
0.573347
0.503329
0.438773
0.385194
0.357808
0.376702
0.484512
0.80153
1.81111
0.36919
0.359591
0.352567
0.348124
0.345676
0.344565
0.344205
0.344443
0.345365
0.346522
0.347975
0.349598
0.351387
0.353304
0.355345
0.357505
0.359791
0.362207
0.364767
0.367477
0.370356
0.373414
0.381656
0.398341
0.420186
0.448228
0.483586
0.527429
0.580208
0.644393
0.725177
0.842113
0.979387
1.11791
1.23277
1.30424
1.33293
1.328
1.29544
1.24255
1.17574
1.09919
1.01003
0.917657
0.831073
0.747593
0.666551
0.58843
0.514463
0.446683
0.390345
0.360351
0.377435
0.484006
0.802746
1.82282
0.381972
0.368618
0.358513
0.351841
0.347708
0.345472
0.344473
0.344169
0.344515
0.345443
0.346637
0.348092
0.349724
0.351505
0.353414
0.355444
0.357592
0.359866
0.362269
0.364815
0.367512
0.370377
0.373421
0.398902
0.421239
0.450124
0.486899
0.533055
0.589629
0.659887
0.75161
0.892278
1.06435
1.24523
1.40609
1.52061
1.57224
1.56982
1.5299
1.46219
1.37655
1.28092
1.18006
1.07047
0.962621
0.86502
0.773382
0.686112
0.603101
0.52525
0.454345
0.395327
0.362827
0.378094
0.483571
0.803905
1.83559
0.399445
0.381195
0.367017
0.357406
0.351169
0.347318
0.345282
0.34439
0.344142
0.344596
0.345528
0.346757
0.348213
0.349849
0.351621
0.353522
0.35554
0.357677
0.359939
0.36233
0.364863
0.367547
0.370398
0.373424
0.422196
0.45186
0.489963
0.538309
0.598552
0.674927
0.77865
0.94499
1.15351
1.37862
1.58909
1.75565
1.85436
1.87306
1.82928
1.74687
1.63878
1.51683
1.3899
1.263
1.13176
1.00765
0.898626
0.798682
0.705169
0.617327
0.535681
0.461725
0.400148
0.364927
0.378686
0.483152
0.805433
1.8494
0.423095
0.398417
0.378867
0.365382
0.356374
0.350532
0.346952
0.345105
0.344317
0.344126
0.344681
0.34562
0.34688
0.348336
0.349971
0.351735
0.353626
0.355634
0.35776
0.360009
0.362388
0.364909
0.36758
0.370408
0.373424
0.453455
0.492792
0.543205
0.606992
0.689545
0.806119
0.998965
1.24383
1.51281
1.77365
1.99578
2.15203
2.22126
2.19606
2.10283
1.9725
1.82062
1.66028
1.50075
1.3469
1.19333
1.05248
0.931775
0.823421
0.723681
0.631087
0.545727
0.468849
0.40419
0.366743
0.37935
0.482702
0.806836
1.86448
0.454918
0.421766
0.395088
0.376507
0.363852
0.355388
0.349922
0.346606
0.34494
0.344256
0.344123
0.344771
0.345721
0.347003
0.348457
0.350089
0.351846
0.353728
0.355726
0.35784
0.360078
0.362445
0.364954
0.367597
0.370408
0.373424
0.49541
0.547761
0.614976
0.703754
0.833725
1.05296
1.33292
1.64402
1.95394
2.23213
2.44999
2.58211
2.6102
2.53205
2.38322
2.20129
2.00372
1.80416
1.61169
1.43069
1.25462
1.09686
0.964355
0.847543
0.74162
0.644359
0.555413
0.474787
0.407667
0.368765
0.380151
0.482279
0.808747
1.88079
0.497765
0.453225
0.417051
0.391739
0.374293
0.362383
0.354439
0.349339
0.346281
0.344789
0.344206
0.344135
0.344861
0.345828
0.347123
0.348578
0.350205
0.351955
0.353827
0.355815
0.357918
0.360145
0.3625
0.364976
0.367597
0.370408
0.373424
0.552014
0.622531
0.717551
0.861144
1.10597
1.4191
1.76986
2.12638
2.45893
2.73896
2.93895
3.03498
3.01196
2.87354
2.66461
2.42885
2.18488
1.94622
1.7212
1.51344
1.31512
1.14052
0.996246
0.871025
0.758961
0.657147
0.563473
0.479891
0.411519
0.371033
0.381018
0.481832
0.810482
1.8986
0.555789
0.495613
0.446597
0.412353
0.388591
0.372161
0.360965
0.353525
0.34878
0.345979
0.344652
0.344167
0.344169
0.34495
0.345938
0.347239
0.348696
0.350317
0.352061
0.353924
0.355901
0.357994
0.36021
0.362528
0.364976
0.367597
0.370408
0.373424
0.629711
0.730922
0.888077
1.15725
1.50134
1.889
2.28901
2.67282
3.01296
3.2817
3.45197
3.50141
3.41884
3.21443
2.9424
2.65182
2.36168
2.08471
1.8281
1.59438
1.37439
1.18324
1.02735
0.893829
0.775721
0.667852
0.57041
0.485536
0.415797
0.373564
0.382111
0.481439
0.812862
1.91791
0.636088
0.55304
0.486314
0.440061
0.407932
0.385553
0.370096
0.359594
0.352646
0.348245
0.345702
0.344528
0.34413
0.344227
0.345035
0.346051
0.347354
0.348813
0.350427
0.352164
0.354018
0.355986
0.358068
0.360242
0.362528
0.364976
0.367597
0.370408
0.373424
0.743868
0.914289
1.20628
1.57907
2.00082
2.44096
2.87216
3.26854
3.60361
3.84963
3.97966
3.97337
3.82432
3.54978
3.21305
2.86771
2.53236
2.21838
1.93147
1.67288
1.43204
1.22484
1.05759
0.91596
0.789888
0.677064
0.578086
0.491794
0.420558
0.376429
0.383261
0.481021
0.815059
1.93898
0.755388
0.632602
0.539853
0.477252
0.4339
0.403658
0.382606
0.368096
0.358271
0.351803
0.347735
0.345444
0.344416
0.34409
0.344299
0.345119
0.346163
0.347466
0.348927
0.350534
0.352265
0.354109
0.356068
0.358104
0.360242
0.362528
0.364976
0.367597
0.370408
0.373421
0.939603
1.25276
1.65199
2.10508
2.58199
3.05639
3.50409
3.90073
4.2199
4.4331
4.51359
4.44379
4.22291
3.8757
3.47394
3.07476
2.69568
2.34635
2.03067
1.74848
1.48779
1.26517
1.08695
0.934684
0.80207
0.687248
0.586596
0.498744
0.425871
0.379635
0.384761
0.480713
0.818017
1.96188
0.751103
0.961908
0.61306
0.527275
0.468693
0.427939
0.399506
0.379746
0.366161
0.356996
0.350995
0.347254
0.345211
0.344322
0.344059
0.344379
0.345204
0.346275
0.347576
0.349039
0.350639
0.352364
0.354198
0.356109
0.358104
0.360242
0.362528
0.364976
0.367597
0.370398
0.373413
1.29651
1.72005
2.20183
2.71223
3.22562
3.71928
4.17126
4.55784
4.85174
5.02325
5.04607
4.90642
4.61005
4.18914
3.72315
3.27178
2.85091
2.46808
2.12527
1.82086
1.54144
1.30416
1.11171
0.950762
0.815529
0.698549
0.59605
0.506482
0.431811
0.383299
0.386315
0.480408
0.820871
1.98681
0.720458
0.957498
1.33427
0.594993
0.515422
0.460404
0.422145
0.395473
0.376975
0.364294
0.355773
0.350226
0.34681
0.345007
0.344243
0.344042
0.344461
0.345291
0.346386
0.347684
0.349148
0.350741
0.35246
0.354241
0.356109
0.358104
0.360242
0.362528
0.364976
0.36758
0.370377
0.373406
1.78328
2.29129
2.83205
3.38038
3.91464
4.41508
4.8613
5.22927
5.48989
5.61189
5.57014
5.35587
4.982
4.48783
3.95939
3.45805
2.99757
2.58322
2.21501
1.88982
1.59288
1.33683
1.13292
0.968504
0.830434
0.711112
0.606576
0.515117
0.438478
0.387418
0.388333
0.480342
0.824552
2.01398
0.692414
0.909018
1.32998
1.83728
0.578236
0.503934
0.452344
0.416513
0.391561
0.374296
0.362497
0.354603
0.349505
0.346412
0.344831
0.34418
0.344037
0.344545
0.345379
0.346495
0.347791
0.349255
0.350841
0.352507
0.354241
0.356109
0.358104
0.360242
0.362528
0.364953
0.367546
0.370355
0.373398
2.37377
2.94201
3.52146
4.0912
4.6332
5.1303
5.56285
5.90533
6.12579
6.19144
6.07956
5.78758
5.33588
4.77017
4.18189
3.63321
3.13549
2.69167
2.29979
1.95528
1.63554
1.36468
1.15627
0.988122
0.846971
0.725102
0.618323
0.524781
0.445975
0.392195
0.390355
0.480408
0.828381
2.04348
0.666753
0.863291
1.2602
1.8342
2.44358
0.562177
0.492753
0.444512
0.411048
0.387776
0.371715
0.360774
0.353497
0.348849
0.346063
0.34468
0.344133
0.344044
0.344627
0.345469
0.346601
0.347896
0.34936
0.35089
0.352507
0.354241
0.356109
0.358104
0.360242
0.3625
0.364908
0.367512
0.370333
0.37339
3.04273
3.64987
4.25031
4.82736
5.3665
5.85264
6.26575
6.57725
6.75153
6.755
6.56887
6.19783
5.66958
5.03518
4.39027
3.79714
3.26467
2.79345
2.37962
2.00904
1.67171
1.3952
1.182
1.00985
0.86535
0.740711
0.631465
0.535628
0.454446
0.397625
0.393025
0.480622
0.832943
2.0757
0.642675
0.820517
1.1917
1.7459
2.44285
3.1274
0.546652
0.481878
0.436916
0.405758
0.384127
0.369236
0.359141
0.352485
0.348264
0.345757
0.344551
0.344099
0.344066
0.344708
0.345562
0.346706
0.348001
0.349412
0.350889
0.352507
0.354241
0.356109
0.358104
0.36021
0.362444
0.364862
0.367476
0.37031
0.373382
3.76662
4.39361
4.99971
5.57256
6.10107
6.5713
6.96107
7.2371
7.35987
7.29634
7.03344
6.58379
5.98171
5.28236
4.58445
3.94999
3.38528
2.88867
2.44466
2.05437
1.71114
1.42869
1.21039
1.03393
0.885814
0.758159
0.646207
0.547842
0.464035
0.403976
0.395783
0.481165
0.838249
2.11057
0.619898
0.780146
1.12489
1.6574
2.33894
3.12978
3.86379
0.531611
0.471329
0.429571
0.400656
0.380621
0.366883
0.357639
0.351576
0.347742
0.345491
0.344442
0.344075
0.344105
0.344786
0.345656
0.346811
0.348051
0.34941
0.350888
0.352507
0.354241
0.356109
0.358067
0.360144
0.362387
0.364814
0.367439
0.370287
0.373374
4.52265
5.15272
5.75172
6.31198
6.82525
7.27714
7.64108
7.87768
7.94411
7.80997
7.46957
6.94351
6.2715
5.51159
4.76465
4.09204
3.49758
2.96584
2.49932
2.10356
1.75417
1.46546
1.24175
1.06067
0.908643
0.777703
0.662786
0.561638
0.474961
0.41126
0.399378
0.481914
0.843886
2.14865
0.598274
0.742129
1.05936
1.56905
2.23369
3.01268
3.86885
4.62834
0.517049
0.461131
0.422493
0.395755
0.377292
0.364716
0.356287
0.350759
0.347274
0.345264
0.344349
0.344048
0.344158
0.344863
0.345754
0.34686
0.348048
0.349411
0.350888
0.352507
0.354241
0.356067
0.357993
0.360076
0.362328
0.364765
0.367402
0.370263
0.373365
5.28868
5.90754
6.48999
7.03287
7.52949
7.96268
8.29898
8.4923
8.49814
8.29126
7.87455
7.2758
6.53873
5.72315
4.93127
4.22366
3.58814
3.03051
2.55844
2.15697
1.80112
1.50583
1.27639
1.09038
0.934165
0.799637
0.681483
0.577283
0.487427
0.419842
0.403337
0.483164
0.851398
2.1973
0.577712
0.706526
0.995309
1.48025
2.1274
2.89372
3.74036
4.63415
5.39719
0.502984
0.451314
0.4157
0.3911
0.374223
0.362761
0.355068
0.350025
0.346855
0.345067
0.344273
0.344025
0.344219
0.344945
0.3458
0.346855
0.348048
0.34941
0.350889
0.352507
0.354197
0.355984
0.357916
0.360007
0.362267
0.364714
0.367364
0.370238
0.373356
6.0433
6.64013
7.20052
7.72503
8.20656
8.62176
8.92861
9.07469
9.01654
8.73661
8.2466
7.58021
6.78368
5.91754
5.08482
4.32932
3.66392
3.10033
2.62242
2.21496
1.85236
1.55016
1.31467
1.12343
0.962723
0.824299
0.702624
0.595076
0.501763
0.429817
0.408294
0.485233
0.859908
2.25644
0.558142
0.673402
0.933179
1.39095
2.01939
2.77297
3.61015
4.49515
5.40033
6.14784
0.489444
0.441908
0.409254
0.386812
0.371453
0.360996
0.35397
0.349367
0.346484
0.344899
0.344208
0.344011
0.344294
0.344979
0.345794
0.346855
0.348048
0.34941
0.35089
0.352459
0.354107
0.355899
0.357837
0.359936
0.362205
0.364663
0.367324
0.370213
0.373347
6.76695
7.33509
7.87217
8.38132
8.85085
9.24909
9.5242
9.61896
9.49477
9.14342
8.58488
7.85695
7.00695
6.09542
5.20739
4.41759
3.74561
3.1757
2.69163
2.2779
1.90824
1.59882
1.35699
1.16018
0.9947
0.852072
0.726583
0.615406
0.518275
0.441647
0.414256
0.487587
0.874156
2.3168
0.539511
0.642769
0.873557
1.30139
1.90929
2.64968
3.478
4.35539
5.25047
6.14373
6.86013
0.476465
0.433005
0.403321
0.382942
0.368953
0.359405
0.352982
0.348777
0.346159
0.344754
0.344157
0.344022
0.344328
0.344965
0.345795
0.346855
0.348048
0.349412
0.350841
0.352362
0.354015
0.355812
0.357757
0.359863
0.362141
0.36461
0.367284
0.370187
0.373338
7.44278
7.98009
8.49782
8.99654
9.45793
9.84039
10.0797
10.12
9.92916
9.51022
8.88944
8.10673
7.20938
6.23634
5.30957
4.51261
3.83363
3.25703
2.76646
2.34615
1.96915
1.65221
1.40372
1.20107
1.03052
0.883382
0.753804
0.63868
0.537447
0.455651
0.422747
0.493552
0.886924
2.37851
0.521782
0.614553
0.817127
1.21206
1.79699
2.52319
3.3432
4.2143
5.10181
5.981
6.84322
7.51578
0.464178
0.424835
0.397973
0.379452
0.366696
0.357969
0.352093
0.348252
0.345872
0.344631
0.344138
0.344015
0.344318
0.344963
0.345795
0.346855
0.348051
0.34936
0.350739
0.352262
0.35392
0.355722
0.357674
0.359788
0.362076
0.364556
0.367242
0.37016
0.373329
8.05693
8.56876
9.06893
9.55911
10.0162
10.3877
10.5908
10.5726
10.3173
9.83673
9.16105
8.33057
7.36811
6.35343
5.41934
4.61478
3.92839
3.3447
2.84729
2.42012
2.03548
1.71071
1.4553
1.24652
1.07062
0.918703
0.784756
0.665457
0.55977
0.475431
0.435541
0.498492
0.905186
2.44098
0.505049
0.588607
0.764569
1.12371
1.68261
2.393
3.20479
4.07126
4.95333
5.82279
6.66383
7.47913
8.09976
0.452912
0.417491
0.393153
0.376305
0.364661
0.356677
0.351296
0.347781
0.345622
0.344555
0.344113
0.343986
0.344322
0.344963
0.345794
0.34686
0.348
0.349253
0.350636
0.352161
0.353824
0.35563
0.357589
0.359712
0.362009
0.3645
0.367199
0.370133
0.373319
8.60171
9.08944
9.58273
10.0734
10.5251
10.8821
11.0498
10.9732
10.6583
10.1236
9.40092
8.50378
7.49931
6.4788
5.53706
4.72452
4.03028
3.43911
2.9345
2.50015
2.10758
1.77471
1.51212
1.29701
1.11549
0.95853
0.820027
0.696259
0.590671
0.503013
0.450794
0.50898
0.922205
2.50382
0.489702
0.564861
0.716457
1.0373
1.56643
2.25881
3.0619
3.92511
4.8046
5.66735
6.49396
7.27874
8.03315
8.60749
0.442808
0.41089
0.388812
0.373467
0.362826
0.355513
0.350577
0.347365
0.345444
0.344496
0.344078
0.343986
0.344322
0.344965
0.3458
0.34681
0.347894
0.349145
0.350531
0.352057
0.353724
0.355537
0.357502
0.359633
0.36194
0.364443
0.367156
0.370106
0.373311
9.07281
9.54495
10.0415
10.5432
10.989
11.3218
11.4519
11.3199
10.9526
10.3724
9.58334
8.64584
7.63902
6.61267
5.66306
4.84216
4.13967
3.54061
3.02845
2.58661
2.18582
1.84458
1.5746
1.35294
1.1656
1.00342
0.860104
0.738344
0.632354
0.535611
0.471104
0.517759
0.945145
2.56683
0.47591
0.543571
0.673503
0.954056
1.44899
2.12047
2.91374
3.77463
4.6543
5.51447
6.33076
7.09401
7.80822
8.48747
9.0223
0.433761
0.404957
0.384903
0.370911
0.361174
0.354463
0.349937
0.347051
0.345325
0.344448
0.34408
0.343986
0.344318
0.344979
0.345753
0.346704
0.347788
0.349035
0.350423
0.35195
0.353623
0.35544
0.357413
0.359553
0.361869
0.364385
0.367113
0.37008
0.373302
9.45915
9.92779
10.4403
10.9626
11.4054
11.7032
11.7934
11.6127
11.2016
10.5571
9.7313
8.79584
7.78717
6.75518
5.79757
4.96801
4.25689
3.64955
3.12945
2.6798
2.27052
1.92067
1.6431
1.41473
1.2214
1.05378
0.914132
0.793653
0.67988
0.574347
0.495202
0.534969
0.968518
2.62897
0.463539
0.524668
0.636543
0.875976
1.33116
1.97805
2.75963
3.61857
4.50094
5.36268
6.17414
6.92122
7.60508
8.23701
8.83779
9.3352
0.425665
0.399625
0.381386
0.368609
0.35968
0.353523
0.349438
0.346855
0.345257
0.344453
0.34408
0.343986
0.344328
0.344945
0.345654
0.346598
0.34768
0.348923
0.350313
0.351842
0.353518
0.355342
0.357321
0.35947
0.361797
0.364327
0.367071
0.370054
0.373293
9.7568
10.2365
10.7801
11.3278
11.7663
12.0209
12.0714
11.8531
11.3807
10.7046
9.88554
8.95324
7.94354
6.90631
5.94072
5.10228
4.38218
3.76617
3.23778
2.77999
2.36192
2.00324
1.71793
1.48273
1.28323
1.12071
0.983367
0.854775
0.733576
0.619159
0.527232
0.550915
0.997911
2.6905
0.452469
0.507747
0.605468
0.806428
1.21504
1.83184
2.59898
3.45565
4.34287
5.21031
6.02239
6.76023
7.42024
8.01261
8.55509
9.0765
9.54221
0.418423
0.394835
0.378222
0.36653
0.358342
0.352775
0.349137
0.346766
0.345264
0.344453
0.344078
0.344015
0.344294
0.344861
0.345559
0.346491
0.347571
0.348808
0.3502
0.351731
0.353411
0.355242
0.357227
0.359386
0.361726
0.364271
0.36703
0.370029
0.373285
9.96147
10.4718
11.0601
11.6365
12.0627
12.2707
12.2841
12.0177
11.5202
10.8554
10.0449
9.11724
8.10764
7.06586
6.09248
5.24505
4.51569
3.89066
3.35361
2.88735
2.46023
2.0925
1.79931
1.55711
1.36422
1.20451
1.05778
0.921354
0.793006
0.671182
0.56475
0.577324
1.03131
2.74987
0.442587
0.492532
0.579138
0.746902
1.10533
1.68354
2.43139
3.28456
4.17826
5.05542
5.87372
6.60895
7.25351
7.81337
8.30575
8.75525
9.19342
9.63397
0.411944
0.390533
0.37537
0.364665
0.357262
0.352334
0.349019
0.346777
0.345264
0.344448
0.344113
0.344023
0.344218
0.344783
0.345466
0.346382
0.347461
0.348692
0.350085
0.351618
0.353302
0.355139
0.357132
0.359303
0.361657
0.364217
0.366991
0.370005
0.373277
10.0718
10.6333
11.2828
11.8771
12.289
12.4519
12.4133
12.1403
11.6585
11.0075
10.2077
9.28668
8.2787
7.23336
6.25265
5.39626
4.65745
4.02308
3.47703
3.00198
2.5655
2.18853
1.88729
1.65323
1.46346
1.29245
1.1365
0.992521
0.857952
0.728871
0.612758
0.604828
1.0699
2.80764
0.433784
0.478839
0.556529
0.696893
1.00549
1.53821
2.25793
3.10403
4.00507
4.89572
5.72599
6.46544
7.10223
7.63923
8.09
8.4768
8.83104
9.17802
9.60534
0.406145
0.386662
0.372812
0.363145
0.356634
0.35218
0.349037
0.346777
0.345257
0.344496
0.344138
0.344011
0.344156
0.344705
0.345375
0.346271
0.347349
0.348573
0.349967
0.351503
0.353189
0.355034
0.357037
0.359223
0.36159
0.364164
0.366952
0.369981
0.37327
10.0802
10.7291
11.4281
12.05
12.4354
12.5494
12.4983
12.2546
11.7928
11.1584
10.372
9.45996
8.45558
7.40808
6.42077