/*--------------------------------*- C++ -*----------------------------------*\
  =========                 |
  \\      /  F ield         | OpenFOAM: The Open Source CFD Toolbox
   \\    /   O peration     | Website:  https://openfoam.org
    \\  /    A nd           | Version:  8
     \\/     M anipulation  |
\*---------------------------------------------------------------------------*/
FoamFile
{
    version     2.0;
    format      ascii;
    class       volScalarField;
    location    "0.03";
    object      epsilon;
}
// * * * * * * * * * * * * * * * * * * * * * * * * * * * * * * * * * * * * * //

dimensions      [0 2 -3 0 0 0 0];

internalField   nonuniform List<scalar> 
15677
(
5.2099e+06
1.4161e+06
920959
769860
698801
657063
628652
606442
584503
552748
487983
378543
283443
214320
171717
146526
131040
120096
112534
107566
105840
107440
110773
114778
118746
122465
125828
128774
131276
133337
134971
136217
137137
137794
138246
1.47237e+07
4.28381e+06
2.48532e+06
1.82264e+06
1.49352e+06
1.31321e+06
1.20198e+06
1.13154e+06
1.09234e+06
1.07344e+06
1.03986e+06
831156
579134
383010
270382
218629
185090
164337
153099
148115
146110
143193
138304
135737
135886
137717
141459
146228
151105
155548
159237
161853
163243
163526
163073
1.22024e+07
4.64216e+06
3.4064e+06
3.10574e+06
3.14249e+06
3.3299e+06
3.61427e+06
3.95546e+06
4.25316e+06
4.28221e+06
3.73668e+06
2.61694e+06
1.55226e+06
858658
499610
285319
170941
117913
97208.3
92333.2
96938.3
107933
120652
132084
140920
147371
152653
157747
163082
168704
174489
180282
185891
191161
196004
7.76305e+06
3.52351e+06
2.6893e+06
2.43162e+06
2.36518e+06
2.38194e+06
2.4114e+06
2.39704e+06
2.30321e+06
2.07956e+06
1.72985e+06
1.38818e+06
1.14837e+06
931135
639525
390117
225873
140937
103518
90680.5
94534.7
112979
146623
182455
208232
214975
209219
198929
189835
182854
177601
173521
170126
167085
164213
4.33422e+06
2.02078e+06
1.62326e+06
1.51383e+06
1.50607e+06
1.55378e+06
1.64557e+06
1.74111e+06
1.78497e+06
1.75776e+06
1.63165e+06
1.34486e+06
923450
485446
226153
122073
81844.2
65348.7
61559.7
66173.4
75331.9
85742
96470.5
107542
117363
123738
125818
123749
119486
114417
109653
105533
102055
99135
96675.3
1.32959e+06
734941
630976
605297
601956
605834
611327
610893
603491
575353
501436
370034
245110
149341
109758
90855
70518.2
54246.5
46510.8
46706.4
51486.2
58199.4
63339.5
65696.6
65416.9
63765.1
61708.5
59703.7
57955.6
56483
55218
54105.7
53116.7
52236.4
51455.6
225658
164235
161847
166202
174394
186257
203778
212532
206773
179694
127216
73940.3
44811.9
32600.7
28109.3
26162.9
25548.6
25725.6
26780.4
28416.2
30270.5
32163.3
33902.9
35416.8
36593.7
37110.5
37041.6
36627
36089.3
35557.3
35070.4
34632.8
34238.3
33878.7
33553.7
24286.8
23953.9
25384
27119.7
28556.2
29408.6
29315.3
28329
25948.8
22993.8
17735.6
15825.5
18433
24038.9
23589.6
20443.6
17520.7
16290
16490.5
17630.1
19145
20494.9
21374.3
21876.9
22113.7
22203.9
22228.3
22226.5
22209.9
22181.3
22144.8
22103.9
22061.6
22020.2
21982.2
58859.3
17610.8
10806.9
8357.36
7132.88
6457.8
6099.94
5956.01
5949.24
6104.78
6391.81
6767.56
7365.03
8149.76
8682.41
9152.14
9711.07
10423.7
11196.3
11981.8
12753.9
13455.5
14071.2
14605.7
15010.7
15275.3
15419.4
15512.7
15583.2
15641.9
15692.7
15737.1
15776
15810
15839.5
45512.4
18970.8
13019.1
9653.69
7476.55
6046.39
5126.16
4582.46
4302.64
4208.64
4260.12
4440.72
4748.22
5140.23
5539.39
5931.64
6363.67
6855.99
7409.21
8001.64
8595.11
9114.92
9536.69
9874.64
10150.8
10378
10563.7
10716.9
10844.4
10951.4
11042.1
11119.4
11185.8
11243
11292.4
22842
8304.89
5664.26
4809.38
4413.65
4170.73
3967.71
3767.59
3573.8
3409.93
3306.88
3282.06
3348.8
3516.59
3768.67
4069.3
4411.54
4782.46
5171.2
5568.89
5967.13
6338.69
6656.95
6918.58
7129.69
7297.22
7436.2
7554.93
7657.64
7746.79
7824.05
7890.5
7946.78
7994.4
8034.6
14088.6
5807.59
4141.83
3461.85
3103.62
2886.62
2736.46
2618.25
2517.46
2425.47
2342.77
2303.5
2320.71
2412.96
2572.18
2774.37
3011.17
3270.63
3544.35
3818.97
4086.47
4330.23
4538.71
4714.07
4860.83
4983.3
5085.5
5170.82
5242.09
5301.76
5352.01
5394.77
5431.68
5464.01
5492.7
16709.6
6405.22
4453.39
3475.51
2805.51
2315.17
1958.88
1708.6
1541.48
1435.92
1381.32
1374.95
1418.96
1516.63
1655.65
1813.02
1984.99
2166.05
2351.28
2535.49
2715.27
2878.8
3018.92
3132.78
3224.66
3300.51
3364.08
3417.78
3463.36
3502.17
3535.3
3563.68
3588.1
3609.2
3627.46
15932.9
4852.79
2861.91
2084.64
1663.51
1397.28
1218.7
1093.26
989.18
911.648
864.988
849.595
870.322
933.734
1029.69
1138.32
1253.74
1372.99
1493.03
1611.54
1726.01
1829.64
1916.85
1987.53
2044.85
2091.5
2129.61
2160.82
2186.49
2207.71
2225.38
2240.27
2253
2264.07
2273.86
10264.2
4517.24
3408.02
2932.62
2637.26
2383.33
2090.71
1713.81
1284.78
919.885
699.493
593.451
561.112
583.223
643.412
717.8
795.998
872.378
945.499
1014.94
1080
1137.21
1184.36
1222.49
1253.03
1276.83
1295.35
1309.74
1320.96
1329.69
1336.46
1341.7
1345.77
1348.95
1351.45
6515.49
3112.62
2520.79
2247.85
2021.6
1780.02
1500.75
1198.93
907.124
668.323
504.572
402.659
352.017
347.345
381.121
429.048
481.125
532.621
580.984
624.798
663.293
694.723
718.657
736.315
748.948
757.362
762.274
764.462
764.807
763.814
761.905
759.417
756.623
753.747
751.026
1968.38
1175.2
1060.97
1000.53
926.092
822.581
706.017
593.251
495.183
416.062
352.254
289.741
230.178
210.072
228.073
258.749
292.026
325.375
356.557
383.694
405.617
421.384
431.353
436.675
438.391
437.372
434.346
429.887
424.45
418.392
411.996
405.488
399.043
392.796
386.917
245.969
312.731
331.48
332.033
322.878
303.038
278.118
252.54
228.347
205.364
182.874
163.605
150.74
147.711
146.749
150.24
162.728
182.355
203.089
221.119
234.573
242.358
245.416
245.208
242.478
238.031
232.458
226.189
219.544
212.762
206.025
199.472
193.204
187.282
181.874
148.99
121.529
116.996
116.848
116.897
115.996
114.081
111.339
107.115
99.9744
91.7467
85.4455
81.0558
77.3558
71.9563
69.5546
74.2133
85.5019
98.5332
110.205
118.645
122.787
123.44
121.656
118.306
114.081
109.451
104.667
99.8705
95.1453
90.5424
86.0925
81.8138
77.7161
73.8173
65.3935
46.7338
45.0348
46.4673
48.6843
50.7743
52.2301
52.7231
52.0255
49.9018
46.9799
44.0973
41.5522
38.7926
34.9482
32.2738
32.6766
36.0655
41.1262
46.2745
49.8635
51.2464
50.8052
49.1055
46.7976
44.2909
41.7936
39.3874
37.0914
34.9078
32.8386
30.8876
29.0625
27.3713
25.8717
43.8074
32.1888
28.3138
26.767
26.4748
26.9764
27.7111
28.2088
28.1783
27.4857
26.0368
24.0212
21.7559
19.1876
16.5581
14.7798
14.1932
14.6704
15.9493
17.5002
18.6375
18.9885
18.5973
17.7578
16.7537
15.741
14.7987
13.9429
13.16
12.4325
11.7482
11.1002
10.4843
9.89837
9.33902
30.9548
18.6444
16.5355
16.1537
16.3124
16.6837
17.0519
17.2219
17.0474
16.4231
15.3271
13.8496
12.1563
10.3964
8.86744
7.77799
7.14874
6.94226
7.05499
7.32441
7.52268
7.52031
7.30622
6.97898
6.62672
6.29395
5.99557
5.73072
5.49219
5.27227
5.06536
4.86935
4.6839
4.50965
4.35005
29.8443
18.4047
15.1365
13.7993
13.0929
12.6642
12.3555
12.0376
11.5812
10.897
9.95989
8.81363
7.56826
6.34889
5.3637
4.67194
4.22235
3.97773
3.88537
3.87722
3.87624
3.8275
3.72712
3.60296
3.47757
3.36317
3.26342
3.17657
3.09931
3.02845
2.96185
2.89847
2.83804
2.78067
2.72671
27.5735
15.3271
12.1605
10.8645
10.1965
9.75272
9.36723
8.94799
8.43284
7.78719
7.01266
6.14822
5.25999
4.42422
3.77156
3.31105
2.99378
2.79436
2.68119
2.62194
2.58307
2.54139
2.49277
2.44234
2.396
2.35596
2.32233
2.29397
2.26934
2.24694
2.22589
2.20578
2.18649
2.16803
2.1506
26.7403
15.3274
11.686
10.0701
9.1023
8.40693
7.82415
7.27001
6.69715
6.07728
5.40848
4.71494
4.03783
3.42247
2.95191
2.62226
2.39463
2.24599
2.15496
2.10185
2.06873
2.04354
2.02138
2.00172
1.98527
1.97219
1.96201
1.95395
1.9472
1.94108
1.93515
1.92922
1.92324
1.91731
1.91155
24.5254
13.3185
10.0682
8.55377
7.6832
7.06347
6.53625
6.03091
5.51519
4.97717
4.42164
3.86698
3.34103
2.87297
2.51939
2.27307
2.10256
1.99038
1.92085
1.88047
1.85763
1.84406
1.83488
1.82831
1.82447
1.82264
1.82209
1.82241
1.82312
1.82387
1.82443
1.82467
1.82454
1.82402
1.82311
23.7318
13.2007
9.66663
8.0264
7.04319
6.34677
5.78023
5.26857
4.77502
4.28652
3.80442
3.34033
2.91188
2.53713
2.25836
2.06661
1.93602
1.85145
1.8004
1.77261
1.75961
1.75523
1.75502
1.75692
1.76003
1.76391
1.76838
1.77296
1.77729
1.78118
1.78448
1.78713
1.78913
1.79057
1.79154
22.1977
11.899
8.65293
7.14335
6.25676
5.62723
5.1147
4.65401
4.21549
3.78931
3.37705
2.98744
2.63293
2.32638
2.10074
1.94717
1.84424
1.77942
1.74262
1.72576
1.72176
1.72505
1.73143
1.73901
1.74707
1.75511
1.76285
1.77
1.77637
1.78188
1.7866
1.79058
1.79388
1.79658
1.79871
21.6191
11.759
8.37982
6.78787
5.84578
5.1929
4.67969
4.23573
3.82779
3.44267
3.07876
2.74127
2.43884
2.18065
1.99336
1.86792
1.78574
1.73603
1.71039
1.70166
1.70428
1.71404
1.72623
1.73863
1.7503
1.7615
1.77208
1.78186
1.79069
1.79854
1.8054
1.81131
1.81636
1.82069
1.82432
20.8878
11.049
7.8017
6.29092
5.40542
4.79195
4.31084
3.8993
3.52703
3.18106
2.8589
2.56379
2.30194
2.0804
1.92141
1.8165
1.7496
1.71181
1.69574
1.69446
1.70345
1.71767
1.73411
1.75111
1.76817
1.78454
1.79986
1.81392
1.82662
1.83794
1.84793
1.8567
1.86437
1.87109
1.87676
138483
138327
137711
136446
134339
131357
127498
122794
117307
111128
104366
97194.3
89964
82996.8
76434.3
70382.9
64917.8
60084
55897.4
52350.4
49418.4
47054.7
161620
159527
157321
154977
152463
149780
146992
144272
141730
139536
138001
137688
138871
142232
148357
156415
165208
174284
183107
191058
197430
201714
202024
208757
212074
210942
205220
195916
184404
172298
161039
151579
144415
139758
137645
137633
139275
142067
145509
149162
152754
156088
159010
161434
160880
156555
151540
145887
139752
133258
126823
121166
116367
112465
109484
107410
106151
105560
105466
105806
106548
107683
109077
110604
112182
113732
94389.1
92085.8
89632.4
87108.8
84596.9
82191.5
79987.4
78161.3
76761.7
75788.5
75287.7
75196.4
75441.6
75909.3
76523.5
77239
78026.8
78862.9
79720.3
80567.2
81372.4
82128.5
50902.2
50507.2
50067.9
49597.2
49117.2
48657.6
48252.4
47938
47753.7
47714.4
47848
48164.1
48644
49251.3
49957.1
50734.7
51557.7
52394.5
53224.2
54036.6
54833.9
55622.6
33383.5
33357.8
33328.1
33301.7
33282.9
33280.1
33307
33370.7
33458.4
33589.3
33779.1
34038.6
34363.6
34739.8
35157.3
35606.9
36079.8
36567.5
37061.8
37555.5
38042.9
38526.1
22092
22352.4
22605.3
22852.2
23094.7
23333
23571.6
23814.8
24066.6
24330.5
24610.4
24906.9
25213.2
25523
25835.4
26150.2
26466.5
26783.9
27105.4
27432.3
27765.5
28104.6
15991.3
16274.7
16559.5
16839.6
17116.2
17390.7
17664.8
17940
18218.3
18501.3
18791.2
19087.8
19384.3
19675.3
19960.9
20241.1
20516.2
20786.4
21052.1
21313.7
21572
21828.7
11449
11720.9
11996.5
12275
12556.4
12840.7
13127.6
13416.9
13709.1
14004.1
14301.7
14599.4
14889
15166.7
15437.2
15700.1
15955.4
16203.9
16446.6
16684.6
16918.8
17149.9
8165.23
8395.78
8632.3
8874.56
9122.48
9376
9635.09
9899.72
10169.9
10445.6
10726.9
11011.9
11292.8
11564.2
11826.7
12083.2
12331.8
12573.4
12808.4
13037.6
13261.3
13480.6
5599.24
5791.68
5990.79
6196.35
6408.4
6626.91
6851.84
7083.35
7321.57
7566.49
7818.04
8074.27
8328.08
8574.55
8814.07
9048.26
9277.74
9502.12
9721.45
9936.24
10147
10354.1
3708.17
3858.53
4015.46
4179.05
4349.45
4526.82
4711.3
4903.03
5102.16
5308.87
5523.33
5744.14
5965.26
6182.12
6394.8
6603.46
6808.73
7010.63
7209.14
7404.52
7597.04
7787.04
2332.07
2444.35
2562.7
2687.19
2818.06
2955.58
3100.01
3251.62
3410.66
3577.38
3752.03
3933.58
4117.11
4298.79
4478.59
4656.53
4832.65
5007
5179.65
5350.77
5520.45
5688.83
1388.61
1465.1
1546.88
1634.2
1727.37
1826.7
1932.52
2045.16
2165.01
2292.43
2427.82
2570.58
2716.96
2863.78
3010.9
3158.19
3305.58
3452.94
3600.08
3746.9
3893.33
4039.35
771.407
818.206
869.164
924.585
984.821
1050.22
1121.16
1198.07
1281.42
1371.7
1469.44
1574.46
1684.16
1796.17
1910.32
2026.44
2144.35
2263.82
2384.56
2506.32
2628.88
2752.05
394.817
418.408
444.835
474.435
507.558
544.584
585.914
632.033
683.471
740.802
804.652
875.211
950.976
1030.37
1113.28
1199.51
1288.85
1381.04
1475.78
1572.78
1671.75
1772.38
184.147
194.231
205.277
217.656
231.785
248.068
266.918
288.824
314.358
344.145
378.876
419.039
464.104
513.304
566.674
624.171
685.651
750.905
819.716
891.843
967.02
1044.94
73.9314
77.538
81.2891
85.2306
89.4911
94.2768
99.8689
106.626
114.991
125.502
138.801
155.517
175.838
199.698
227.324
258.9
294.531
334.244
378.004
425.71
477.202
532.252
26.1689
27.7585
29.1055
30.2638
31.2754
32.1965
33.1127
34.1461
35.4615
37.2711
39.8556
43.552
48.6353
55.336
64.0214
75.0958
88.9704
106.029
126.599
150.906
179.051
210.979
9.44194
10.0658
10.6157
11.0625
11.3951
11.6138
11.7309
11.7733
11.7825
11.814
11.9377
12.2371
12.7963
13.691
15.0287
16.9593
19.6928
23.518
28.8163
36.0575
45.7613
58.3962
4.41668
4.67045
4.90132
5.09982
5.25513
5.36043
5.41298
5.4169
5.38087
5.31943
5.25137
5.19884
5.18448
5.22499
5.3363
5.54016
5.8717
6.39008
7.19487
8.45045
10.4237
13.5316
2.75714
2.86409
2.96968
3.06805
3.15351
3.22114
3.2674
3.29087
3.29282
3.27685
3.24897
3.21708
3.19026
3.17539
3.17649
3.19704
3.24156
3.31844
3.44468
3.6542
4.01308
4.64703
2.16741
2.2165
2.26587
2.31432
2.35933
2.39864
2.42995
2.45165
2.46325
2.46546
2.4602
2.45055
2.44067
2.43432
2.4339
2.44095
2.45655
2.48198
2.51998
2.57693
2.667
2.82022
1.92127
1.94576
1.9709
1.99589
2.01985
2.0417
2.06035
2.07493
2.0849
2.09025
2.09166
2.09048
2.08872
2.08833
2.09086
2.0974
2.10865
2.12503
2.14709
2.17605
2.21489
2.27053
1.82811
1.83897
1.85022
1.86154
1.87247
1.88255
1.89131
1.89828
1.90316
1.90586
1.90669
1.90633
1.90589
1.90651
1.90914
1.9145
1.92304
1.93506
1.95072
1.97027
1.99435
2.02454
1.794
1.79769
1.80159
1.80543
1.80893
1.81183
1.81392
1.81504
1.81511
1.8141
1.81223
1.80992
1.80795
1.80712
1.80802
1.81113
1.81674
1.82503
1.83608
1.84993
1.86668
1.88671
1.79881
1.79691
1.79502
1.79306
1.79085
1.7882
1.78496
1.78114
1.7767
1.77172
1.76639
1.76109
1.75647
1.75314
1.75153
1.75192
1.7545
1.75937
1.76653
1.77596
1.78762
1.80158
1.82324
1.81664
1.81035
1.80416
1.79789
1.79136
1.78433
1.77652
1.76811
1.75926
1.75023
1.74143
1.73358
1.72721
1.72262
1.72002
1.71951
1.72112
1.7248
1.7305
1.73811
1.74761
1.87406
1.86169
1.84947
1.83737
1.82538
1.81349
1.80158
1.78961
1.77745
1.76515
1.75286
1.74089
1.72977
1.72016
1.71236
1.70656
1.70287
1.70128
1.70169
1.70402
1.70814
1.71395
45087
43700.3
42936.7
42786.1
43238.3
44467.4
205037
207808
209129
208831
206908
203522
163287
164488
165159
165287
164872
163911
114961
115658
115999
115999
115639
114869
82517.5
82529.5
82540.4
82539.8
82510.7
82467
56113
56247.2
56295.4
56271.5
56175.4
55992.4
38765.8
38754.2
38745.9
38738
38727.4
38716.9
28278.3
28279.2
28275.9
28270.9
28264.2
28253.6
21951.9
21941.7
21936.8
21936.5
21940.4
21949.3
17263.9
17261.9
17261.1
17262.1
17265.1
17269.2
13589.6
13589
13589.7
13591.3
13594
13597.9
10457.3
10457.5
10458.4
10460.1
10462.6
10465.8
7881.62
7881.31
7881.86
7883.17
7885.26
7888.23
5772.08
5770.88
5770.73
5771.64
5773.63
5776.67
4111.46
4110.04
4109.63
4110.23
4111.83
4114.43
2812.46
2810.48
2809.66
2810.03
2811.58
2814.29
1821.34
1818.81
1817.64
1817.86
1819.46
1822.41
1082.14
1078.81
1077.18
1077.29
1079.14
1082.7
557.642
553.72
551.749
551.758
553.75
557.69
224.562
220.551
218.495
218.412
220.305
224.158
62.9434
60.1609
58.7823
58.6904
59.8873
62.4881
14.5464
13.6018
13.1577
13.1175
13.4793
14.3336
4.86777
4.64754
4.5384
4.52291
4.60013
4.78486
2.87209
2.81143
2.77811
2.77049
2.78816
2.83189
2.28614
2.26168
2.24751
2.24312
2.24832
2.26324
2.03231
2.01966
2.01221
2.00952
2.01151
2.01835
1.89236
1.88515
1.88088
1.87921
1.88007
1.88368
1.80593
1.80151
1.7989
1.79785
1.7983
1.80044
1.75075
1.74787
1.7462
1.74551
1.74578
1.74717
1.71582
1.7138
1.71264
1.71217
1.71236
1.71336
46400.4
48793.2
51758.1
55330.6
59526.4
64343
69754.9
75708.2
82119.1
88874.5
95832.5
102770
109320
115229
120409
124793
128342
131046
132929
134037
134458
134410
199608
194783
187928
179627
170634
161583
152992
145250
138639
134475
132734
132521
133618
135434
137585
139856
142008
143966
145734
147355
148882
150332
162245
159943
157057
153626
149824
145912
142274
139327
137564
137583
139808
144619
151960
161276
171628
181549
189364
193571
193719
190739
185499
179482
113533
111913
110317
108814
107508
106477
105726
105297
105250
105598
106549
108314
110977
114503
118880
124082
130002
135963
141378
145901
150116
154028
82036.3
81246.1
80419.6
79562.8
78702.7
77862.7
77061.2
76316.3
75652
75112.3
74778.6
74777.9
75199.5
76121
77494.8
79231.3
81379.6
83744.5
86205.9
88690.1
91149.5
93538
55448.8
54603.3
53741.2
52863.3
51972.1
51106.4
50284.3
49513.2
48818.3
48227.6
47770.7
47478
47372.2
47440.8
47656
47998.1
48428.2
48910.8
49412.6
49906
50370.8
50795.3
38452.1
37945.6
37439.4
36931.9
36429
35938.2
35466.6
35021.4
34610.4
34242.2
33925.4
33670.3
33484.9
33360.5
33279.9
33220.8
33205.4
33221.6
33256.9
33302.9
33353.5
33401.6
28069.5
27720.1
27378.5
27044.9
26718.1
26395.4
26076.7
25762.9
25454.7
25154.3
24862.3
24579.1
24310
24057.2
23816.7
23584.7
23357.3
23129.9
22898.7
22663.4
22422.5
22174.8
21823.5
21563.7
21303.9
21042.1
20777.6
20510
20239
19964.7
19686.6
19404.7
19118.4
18829
18543.3
18265.2
17992.4
17722.8
17454.5
17185.9
16915
16640.7
16361.6
16085
17155.7
16923.9
16689.6
16452
16210.2
15963.1
15710.8
15454.2
15193.2
14923.1
14642.2
14350.1
14054.2
13761
13470.7
13183.1
12898
12615.8
12336.6
12060.3
11787.2
11518
13490.7
13271.7
13048.9
12821.4
12588.6
12350
12105
11854.1
11595.7
11329.1
11053.5
10770.5
10487.8
10210.9
9939.93
9674.71
9415.32
9161.79
8914.17
8672.52
8436.97
8207.71
10364.4
10157.5
9947.34
9733.57
9515.68
9293.15
9065.73
8833.83
8597.24
8354.11
8104.1
7848.66
7594.73
7347.67
7107.6
6874.55
6648.47
6429.16
6216.69
6011.05
5812.21
5620.38
7794.82
7604.41
7411.88
7216.86
7019.05
6818.19
6614.04
6406.8
6195.87
5981.1
5762.4
5541.34
5324.07
5114.96
4913.82
4720.48
4534.78
4356.55
4185.66
4021.93
3865.18
3715.32
5693.97
5524.71
5354.46
5183.06
5010.31
4836.37
4660.88
4483.81
4305.14
4124.88
3943.04
3761.04
3583.89
3415.07
3254.31
3101.34
2955.88
2817.67
2686.41
2561.8
2443.58
2331.66
4042.41
3895.29
3748.06
3600.71
3453.3
3305.96
3158.83
3012.06
2865.69
2719.85
2574.66
2431.36
2293.92
2164.82
2043.65
1929.98
1823.43
1723.62
1630.2
1542.81
1461.16
1384.97
2753.72
2629.42
2506.02
2383.66
2262.58
2143.01
2025.22
1909.44
1795.81
1684.47
1575.59
1470.08
1370.78
1279.25
1194.91
1117.23
1045.72
979.918
919.422
863.87
812.889
766.163
1773.17
1671.49
1571.74
1474.2
1379.14
1286.85
1197.59
1111.58
1029.02
950.045
874.739
803.689
738.654
680.35
628.107
581.321
539.43
501.98
468.552
438.752
412.222
388.582
1045.17
966.362
890.53
817.952
748.869
683.493
622.013
564.599
511.35
462.267
417.279
376.585
340.952
310.405
284.227
261.783
242.518
225.982
211.726
199.294
188.231
178.131
531.944
476.133
424.075
375.964
331.928
292.035
256.287
224.62
196.895
172.913
152.428
135.284
121.477
110.593
101.995
95.1451
89.5897
84.9429
80.8845
77.1696
73.6388
70.2202
210.231
177.745
149.212
124.65
103.93
86.7906
72.8756
61.7708
53.0398
46.2647
41.0801
37.2298
34.5107
32.6505
31.3753
30.4684
29.7469
29.0623
28.3027
27.3881
26.2585
24.8502
57.7281
44.8614
35.0564
27.7883
22.4994
18.693
15.971
14.0358
12.6746
11.74
11.1327
10.7873
10.6461
10.6372
10.6912
10.745
10.7458
10.6535
10.4431
10.1045
9.64271
9.08426
13.236
10.0842
8.10192
6.84696
6.04213
5.51887
5.17631
4.95566
4.8235
4.76101
4.75664
4.8001
4.87532
4.95994
5.03281
5.07497
5.07202
5.01618
4.90442
4.74133
4.53671
4.30083
4.53351
3.88637
3.52039
3.30433
3.17058
3.08499
3.03086
3.00048
2.99037
2.99851
3.02245
3.05762
3.09574
3.1273
3.14446
3.14144
3.1152
3.06533
2.99429
2.90673
2.8086
2.70637
2.76564
2.60491
2.50893
2.44648
2.40317
2.37271
2.35259
2.34184
2.33987
2.34562
2.35724
2.37154
2.38397
2.39035
2.38785
2.37499
2.35148
2.31856
2.27839
2.23338
2.18626
2.13867
2.23951
2.17923
2.13659
2.10435
2.07946
2.06076
2.04779
2.04023
2.03756
2.03882
2.04264
2.04705
2.04966
2.04856
2.04271
2.03174
2.01604
1.99648
1.97424
1.9505
1.92628
1.90248
2.00567
1.97269
1.94639
1.92504
1.90799
1.89498
1.88586
1.88036
1.87805
1.87826
1.88002
1.88214
1.88328
1.88248
1.87931
1.87374
1.86606
1.85675
1.84633
1.83534
1.82429
1.81353
1.87499
1.85328
1.83523
1.8204
1.80864
1.79988
1.79403
1.79091
1.7902
1.79142
1.79395
1.79698
1.79963
1.80133
1.80183
1.8011
1.79926
1.79647
1.79299
1.7891
1.78513
1.78138
1.79417
1.77917
1.7667
1.75666
1.74905
1.74387
1.74107
1.74055
1.74209
1.7454
1.75003
1.75542
1.7609
1.76597
1.77044
1.77422
1.77732
1.77978
1.78176
1.78348
1.78512
1.78679
1.74277
1.73257
1.7244
1.71825
1.7142
1.71227
1.71249
1.7148
1.71909
1.72514
1.73264
1.74116
1.75001
1.75864
1.7668
1.77429
1.781
1.78723
1.7932
1.79911
1.80514
1.8115
1.71062
1.70427
1.6997
1.69698
1.69619
1.69741
1.70072
1.7061
1.71341
1.72245
1.73293
1.74439
1.75636
1.76833
1.78014
1.79176
1.80332
1.81485
1.82647
1.83823
1.85015
1.86224
133999
133405
132584
131486
130051
128226
125979
123304
120214
116725
112897
108906
105211
102923
102506
105259
110837
118834
130262
146521
173000
217995
291379
391659
504475
565607
592107
609720
628743
654985
695480
766185
917939
1.41629e+06
5.2365e+06
151266
151495
151129
149969
148005
145405
142435
139363
136494
134443
133623
134243
137110
141894
144486
146790
151478
162346
182779
215606
265408
372935
566423
824465
1.04325e+06
1.0893e+06
1.11108e+06
1.1526e+06
1.22468e+06
1.33679e+06
1.51854e+06
1.85031e+06
2.5215e+06
4.3483e+06
1.49566e+07
174846
171199
167354
163404
159455
155639
152083
148844
145781
142317
137329
129620
119136
107046
96407.8
91915.6
96683
116828
169308
283248
497215
855549
1.54395e+06
2.62362e+06
3.78788e+06
4.37978e+06
4.3714e+06
4.07739e+06
3.7337e+06
3.44728e+06
3.26235e+06
3.22156e+06
3.52604e+06
4.79379e+06
1.25749e+07
157386
160483
164086
168464
173969
181065
190291
201854
214026
219911
210943
182762
146641
113253
94871.7
91277.9
105092
144998
236105
410484
670333
947139
1.14231e+06
1.39854e+06
1.75369e+06
2.11994e+06
2.35915e+06
2.46483e+06
2.48636e+06
2.46355e+06
2.44789e+06
2.51684e+06
2.78334e+06
3.64823e+06
8.05755e+06
95887.3
98341.1
101209
104566
108512
113059
117751
121386
122803
120439
113974
104607
94389.1
84775.7
75142.9
66924.1
63362.5
68525.1
87022.2
133603
258781
554707
994305
1.38774e+06
1.64565e+06
1.76313e+06
1.79097e+06
1.74985e+06
1.6592e+06
1.57554e+06
1.53411e+06
1.5475e+06
1.66326e+06
2.07319e+06
4.45024e+06
51374.3
52175.3
53081.3
54106
55271.3
56618.1
58207.7
60095.7
62246.8
64411.5
66063.4
66113.9
63379.5
57839.5
51037.5
46784.4
47424.2
55684.2
70566.7
86903.3
108016
164274
274318
402090
531853
598461
624658
633924
634781
629982
626923
631889
660687
773356
1.41791e+06
33590.8
33932.1
34310.6
34727.3
35191
35708
36272.2
36835.4
37247
37257
36677.5
35453.4
33916
32130.6
30126.9
28117.6
26295.1
25114.6
24642.1
25207.4
27301.1
32179.6
45302
78023.4
141956
206892
240465
248181
239363
219274
204125
194093
189776
198728
306205
22074
22117.1
22164.4
22213.2
22261.4
22306.2
22344.1
22371.6
22385.1
22370.7
22285.1
22038.9
21504
20571.6
19149.9
17578.9
16423.2
16241.8
17510.7
20493.1
23828.3
24419
19267.8
17477.7
20869.2
27904.3
33335.3
37505.1
39084.8
39146.5
37860.4
35746.8
33086.1
30810.2
33546.3
15937.6
15910.2
15878.6
15842.2
15800.5
15752.5
15696.8
15628.8
15535.5
15383.9
15105.4
14684.6
14139.7
13522.4
12821.3
12044.4
11258.8
10492.4
9795.62
9242.41
8776.56
8247.62
7482.47
6755.7
6270.98
5848.44
5536.03
5302.47
5145.83
5098.86
5227.05
5693.52
6940.05
10876.7
35307.6
11362.9
11313.6
11256.4
11189.9
11112.3
11021
10912.9
10783.7
10627.9
10438.4
10206.2
9923.89
9578.89
9148.73
8618.38
8015.96
7417.61
6860.29
6366.9
5946.69
5592.84
5206.02
4770.44
4372.93
4052.73
3827.3
3692.12
3643.12
3683.33
3830.88
4128.84
4680.42
5778.35
8630.5
23313.7
8077.61
8037.12
7989.09
7932.29
7865.05
7786.76
7696.34
7592.08
7471.41
7329.79
7158.27
6942.19
6674.91
6350.08
5972.92
5570.55
5169.59
4777.59
4402.37
4053.18
3741.84
3472.81
3272.04
3154.66
3115.71
3150.62
3258.33
3436.19
3675.87
3993.25
4434.54
5120.82
6408.32
9842.87
30026.6
5513.92
5484.73
5451.82
5414.24
5370.65
5319.38
5258.46
5185.68
5098.54
4994.21
4869.29
4719.78
4541.38
4329.67
4082.85
3813.08
3535.97
3263.86
3005.26
2768.33
2563.22
2389.95
2266.66
2197.87
2167.94
2156.71
2162.05
2188.9
2245.17
2343.52
2511.54
2812.57
3418.41
5013.82
13558.1
3634.69
3615.99
3594.4
3569.4
3540.33
3506.39
3466.63
3419.93
3364.91
3299.83
3222.31
3128.74
3012.57
2872.18
2708.11
2528.33
2344.61
2159.7
1978.43
1804.91
1644.11
1498.72
1389.11
1327.93
1311.36
1338.2
1415.6
1557.57
1779.78
2103.08
2551.76
3170.62
4096.03
6057.73
16517
2273.49
2263.33
2251.85
2238.69
2223.32
2205.13
2183.35
2157.08
2125.24
2086.52
2039.29
1981.47
1910.24
1823.48
1721.26
1608.76
1492.82
1375.47
1258.79
1145.21
1037.57
941.68
876.189
852.626
866.344
911.162
987.87
1093.79
1223.57
1412.63
1693.56
2134.81
2952.35
5046.76
16704.7
1347.82
1345.05
1341.56
1337.17
1331.59
1324.48
1315.4
1303.85
1289.17
1270.49
1246.81
1216.67
1179.22
1133.11
1077.39
1014.35
947.405
877.056
803.565
727.954
655.982
598.617
580.514
617.812
732.154
964.498
1349.22
1807.03
2210.94
2522.27
2789.97
3101.16
3606.59
4795.45
11013.5
745.693
748.181
750.804
753.334
755.549
757.188
757.925
757.365
755.006
750.01
741.745
729.556
712.657
689.917
660.214
623.916
582.508
536.428
486.739
435.83
388.38
354.55
359.554
412.423
523.455
699.72
952.562
1257.59
1569.57
1861.75
2116.56
2358.93
2656.66
3302.29
6900.57
380.543
386.215
392.219
398.387
404.588
410.65
416.362
421.46
425.621
428.434
429.395
427.856
423.04
414.017
399.682
379.483
354.056
323.941
291.041
258.08
227.784
208.727
225.914
284.157
352.026
426.494
518.22
628.499
753.319
880.312
991.398
1070.69
1137.58
1270.86
2162.96
175.738
180.913
186.551
192.485
198.636
204.892
211.113
217.127
222.726
227.649
231.57
234.042
234.422
232.002
225.528
213.833
197.577
178.245
159.392
147.013
144.176
147.078
150.716
161.863
180.962
205.834
232.433
260.518
290.158
318.454
340.131
349.374
347.791
324.828
243.329
70.0988
73.7934
77.5924
81.467
85.3893
89.3266
93.2446
97.1091
100.883
104.505
107.828
110.573
112.28
112.152
109.084
102.12
91.9153
80.1792
70.2674
66.9113
70.9016
78.0013
81.8462
84.8024
89.0463
94.9488
101.437
106.584
110.253
112.926
114.229
114.176
113.675
116.09
135.341
24.5998
25.9981
27.5369
29.14
30.7771
32.4176
34.0361
35.6268
37.2051
38.8003
40.431
42.048
43.443
44.1146
43.3416
40.8395
36.8405
32.8159
30.3362
30.7737
34.3683
38.9627
41.9395
43.534
44.9654
46.4848
47.7501
48.2956
47.9226
46.7093
44.8797
42.8488
41.3872
42.433
58.4758
8.99379
9.51283
10.04
10.5702
11.0955
11.6083
12.1057
12.5948
13.0958
13.6333
14.2244
14.8787
15.5242
15.9569
15.8741
15.1798
14.1124
13.2737
13.1249
14.0293
16.1418
19.0287
21.6053
23.391
24.8273
25.7985
26.1696
26.0693
25.5953
25.0141
24.6989
25.0885
26.5026
30.0357
41.468
4.23576
4.38253
4.5381
4.69676
4.85471
5.00864
5.15721
5.30316
5.45268
5.61643
5.80705
6.03197
6.27527
6.48136
6.56443
6.49982
6.38724
6.40326
6.71777
7.43319
8.58192
10.1467
11.8537
13.3528
14.609
15.5255
16.036
16.1802
16.0485
15.774
15.5234
15.4811
15.9762
18.2189
31.1488
2.67567
2.72478
2.77549
2.82677
2.8776
2.92727
2.97579
3.02448
3.07622
3.13527
3.20561
3.28991
3.38578
3.47788
3.54363
3.58022
3.62961
3.75718
4.02981
4.49725
5.19406
6.16579
7.33434
8.49248
9.55361
10.4275
11.084
11.5535
11.9173
12.2863
12.7609
13.5111
14.8758
18.2373
30.1381
2.12155
2.13695
2.15273
2.16849
2.18396
2.19894
2.2135
2.22845
2.24509
2.26521
2.29088
2.3241
2.36522
2.41125
2.45801
2.50758
2.57901
2.70158
2.90655
3.22281
3.67341
4.30789
5.11097
5.95521
6.77748
7.5206
8.15384
8.67668
9.12043
9.54214
10.029
10.7481
12.1097
15.2934
27.8472
1.89272
1.89756
1.90232
1.90678
1.91076
1.91421
1.91724
1.92023
1.92385
1.92908
1.93713
1.9492
1.96603
1.98778
2.01515
2.05204
2.10882
2.20197
2.35041
2.57459
2.89602
3.35292
3.94782
4.60125
5.27375
5.92821
6.54348
7.12189
7.68953
8.28948
9.00305
9.98249
11.6067
15.2318
26.8261
1.80834
1.80876
1.80867
1.80808
1.80695
1.80531
1.80323
1.80092
1.79874
1.79723
1.79722
1.79983
1.80598
1.81595
1.83151
1.85671
1.89886
1.96889
2.07986
2.24664
2.48654
2.83038
3.28577
3.79813
4.34063
4.88749
5.42179
5.93866
6.44874
6.98223
7.60691
8.4766
9.96652
13.1702
24.3703
1.77876
1.77753
1.77579
1.77341
1.77034
1.76653
1.76204
1.75699
1.75167
1.74652
1.74218
1.73898
1.73764
1.73909
1.74521
1.75989
1.78867
1.83963
1.92289
2.0508
2.23819
2.51047
2.87704
3.29705
3.75368
4.23039
4.71617
5.20955
5.72298
6.29141
6.98641
7.95921
9.57247
13.0648
23.5932
1.78651
1.7842
1.78129
1.77775
1.7735
1.76847
1.76266
1.75609
1.74882
1.7411
1.73331
1.7258
1.71907
1.71408
1.71252
1.71808
1.73591
1.77275
1.8366
1.93747
2.08781
2.30892
2.60984
2.95867
3.34326
3.75154
4.17508
4.61211
5.07192
5.58296
6.20858
7.0863
8.57697
11.7838
22.0869
1.81245
1.80874
1.80432
1.79917
1.79317
1.78621
1.77825
1.76931
1.75954
1.74913
1.73836
1.7275
1.71666
1.70619
1.6982
1.69685
1.70624
1.73186
1.78075
1.86136
1.98445
2.16849
2.4227
2.7211
3.05488
3.41572
3.79851
4.20476
4.64726
5.15829
5.8067
6.73944
8.31247
11.6611
21.5299
1.86486
1.85923
1.85257
1.84497
1.8363
1.82645
1.81532
1.80288
1.78918
1.77437
1.7587
1.74251
1.72645
1.71148
1.69901
1.69174
1.6936
1.70956
1.74655
1.81213
1.91523
2.07174
2.29028
2.54908
2.84128
3.16086
3.5046
3.87487
4.28426
4.76239
5.371
6.2478
7.74341
10.9659
20.8078
20.3998
10.9167
7.61601
6.05589
5.13943
4.51438
4.03708
3.64039
3.2911
2.97397
2.68404
2.42217
2.19273
2.00102
1.86558
1.77811
1.72454
1.69725
1.6894
1.69482
1.70936
1.73057
1.75448
1.77914
1.80323
1.82614
1.84753
1.86719
1.88505
1.90114
1.91557
1.92847
1.94
1.95035
1.95938
19.7744
10.4104
7.2169
5.72292
4.84791
4.25151
3.79763
3.42329
3.09801
2.80708
2.54492
2.31138
2.10938
1.9434
1.82877
1.75656
1.71455
1.69613
1.69384
1.70541
1.72903
1.76065
1.79507
1.82989
1.86401
1.89666
1.92733
1.95575
1.98181
2.00556
2.02711
2.04661
2.06424
2.08021
2.09415
19.5304
10.3347
7.10233
5.57812
4.68866
4.08933
3.64048
3.27705
2.96669
2.69344
2.45053
2.2366
2.05374
1.90583
1.80566
1.74482
1.71244
1.70069
1.70632
1.72731
1.76124
1.80439
1.85141
1.89945
1.94688
1.99253
2.03563
2.07577
2.11278
2.14667
2.17758
2.20571
2.23126
2.25452
2.27487
19.3091
10.1183
6.92005
5.42141
4.54871
3.96178
3.52401
3.17185
2.87355
2.61329
2.38458
2.1858
2.01769