/*--------------------------------*- C++ -*----------------------------------*\
  =========                 |
  \\      /  F ield         | OpenFOAM: The Open Source CFD Toolbox
   \\    /   O peration     | Website:  https://openfoam.org
    \\  /    A nd           | Version:  8
     \\/     M anipulation  |
\*---------------------------------------------------------------------------*/
FoamFile
{
    version     2.0;
    format      ascii;
    class       volScalarField;
    location    "0.03";
    object      nut;
}
// * * * * * * * * * * * * * * * * * * * * * * * * * * * * * * * * * * * * * //

dimensions      [0 2 -1 0 0 0 0];

internalField   nonuniform List<scalar> 
15677
(
0.00122713
0.00641319
0.016697
0.0277643
0.0386102
0.0489937
0.058739
0.0675952
0.0751231
0.0808857
0.0842242
0.08498
0.0850617
0.0856372
0.086864
0.0888023
0.0903199
0.0929757
0.096521
0.1008
0.105183
0.110054
0.114037
0.117292
0.119913
0.121987
0.123567
0.124747
0.125615
0.126248
0.126708
0.12705
0.127314
0.12753
0.127721
0.00173504
0.0144132
0.0351184
0.0560849
0.0733327
0.0849649
0.0923631
0.0968022
0.0983872
0.0984506
0.0967588
0.0908546
0.0862906
0.0844951
0.081692
0.0818418
0.0849476
0.0903004
0.0954525
0.100759
0.105638
0.109527
0.112752
0.115605
0.118253
0.121793
0.125025
0.127809
0.130123
0.131943
0.13327
0.134149
0.134684
0.134975
0.135078
0.0016299
0.0151894
0.0354398
0.0562655
0.0759226
0.0936549
0.108385
0.119441
0.126674
0.129186
0.125284
0.11472
0.100287
0.0848713
0.071549
0.0625563
0.0629023
0.0695012
0.0783543
0.0881845
0.0986081
0.107553
0.114129
0.11939
0.123976
0.128014
0.131515
0.134478
0.136949
0.13901
0.140763
0.142274
0.143573
0.144701
0.145682
0.00140187
0.0105108
0.0246932
0.0393845
0.0534015
0.0660631
0.0766032
0.0844223
0.0887662
0.0915407
0.0915844
0.0904372
0.0882678
0.082502
0.072591
0.0633272
0.0600265
0.0645646
0.073392
0.0858
0.0972294
0.110764
0.119305
0.125456
0.129506
0.131582
0.13228
0.132894
0.133506
0.13417
0.13482
0.13538
0.135823
0.136166
0.136436
0.00115424
0.0097683
0.021419
0.0330411
0.0441702
0.0546282
0.0638869
0.0715518
0.077334
0.0806624
0.0809756
0.0773324
0.0677888
0.0545258
0.0470035
0.0536439
0.0718014
0.0946774
0.114283
0.122345
0.123907
0.123791
0.123831
0.124329
0.125098
0.125916
0.126319
0.126186
0.125745
0.125214
0.124745
0.12446
0.124369
0.124415
0.124546
0.000778588
0.00495037
0.0109055
0.0168122
0.0224671
0.0277894
0.0326
0.036925
0.0396599
0.0402529
0.0395016
0.036227
0.031968
0.0307465
0.0376706
0.0488343
0.0646134
0.0823848
0.0996168
0.113541
0.123601
0.127969
0.129339
0.128727
0.126925
0.124598
0.122352
0.12053
0.119151
0.118148
0.117476
0.117074
0.116878
0.116834
0.116897
0.000431156
0.00283272
0.00584132
0.00890896
0.0120269
0.0152116
0.0183029
0.0209021
0.0223203
0.0228111
0.0219579
0.0206319
0.0255253
0.0382129
0.0545485
0.0707212
0.0864812
0.100686
0.110223
0.115397
0.118164
0.119249
0.11956
0.119743
0.119863
0.119916
0.119805
0.119649
0.119505
0.119417
0.119396
0.119438
0.119528
0.119653
0.119803
0.000205041
0.000816353
0.001763
0.00269767
0.00364944
0.00459615
0.00549467
0.00617537
0.00690886
0.00769209
0.0100759
0.0161289
0.0336499
0.0526635
0.0666198
0.076924
0.0867424
0.0947898
0.101033
0.105799
0.109379
0.111981
0.113683
0.114759
0.115448
0.115929
0.116317
0.116676
0.117038
0.117409
0.117785
0.118155
0.118515
0.118856
0.119171
0.000275356
0.00218474
0.00538264
0.00887502
0.0124172
0.0159794
0.0195543
0.023157
0.0268756
0.0307313
0.0352131
0.041329
0.0490746
0.0579222
0.066827
0.0751793
0.0828568
0.0890006
0.0939253
0.0979638
0.101309
0.103982
0.106104
0.107859
0.109327
0.110538
0.111521
0.112345
0.113058
0.113687
0.114249
0.114755
0.115211
0.115622
0.115992
0.000252736
0.00174769
0.00378021
0.00611059
0.00891616
0.0123359
0.0164158
0.0210806
0.0262112
0.0317357
0.0376311
0.0439109
0.0505888
0.0575979
0.0641647
0.069932
0.0751198
0.0797678
0.0839695
0.0877975
0.0912785
0.0942627
0.0966937
0.0986785
0.10033
0.101725
0.102919
0.103949
0.104844
0.105625
0.106309
0.106911
0.107441
0.107909
0.108323
0.000200861
0.00163007
0.00436048
0.00757962
0.0109997
0.0145181
0.0181457
0.0219417
0.0259783
0.0303168
0.0349564
0.0399407
0.0452655
0.0509015
0.056293
0.0611667
0.0656967
0.0699014
0.0737974
0.0774019
0.0807325
0.0836709
0.086134
0.0881814
0.0898857
0.0913077
0.0925072
0.0935307
0.0944123
0.0951769
0.0958439
0.096428
0.0969409
0.0973929
0.0977927
0.000170971
0.00146791
0.00346238
0.00585822
0.00859355
0.0116178
0.0148759
0.0183273
0.0219372
0.0256782
0.0295434
0.0335561
0.0378691
0.0424679
0.046965
0.0511433
0.0551418
0.0589543
0.0625709
0.0659605
0.0691048
0.0718701
0.0741765
0.0760924
0.0776924
0.079036
0.0801707
0.0811343
0.0819574
0.0826647
0.0832765
0.0838093
0.0842768
0.0846902
0.0850584
0.000180965
0.00141627
0.00312626
0.00488473
0.00671268
0.00868439
0.0108638
0.0132635
0.0158716
0.0186672
0.0216441
0.024872
0.028418
0.0323547
0.0363572
0.0401712
0.0438754
0.0474299
0.0507995
0.0539545
0.056879
0.0594433
0.0615741
0.0633277
0.0647732
0.0659733
0.0669771
0.0678232
0.0685415
0.0691561
0.069686
0.0701467
0.0705507
0.0709085
0.0712281
0.00017812
0.00149601
0.00350312
0.00557777
0.00756744
0.00942049
0.0111236
0.0127266
0.0142854
0.0158785
0.01752
0.0194206
0.0217355
0.0244934
0.027524
0.0305836
0.0336697
0.0367038
0.0396198
0.0423689
0.0449195
0.0471524
0.0489992
0.0505122
0.0517536
0.0527759
0.0536222
0.0543272
0.0549189
0.0554196
0.0558472
0.0562164
0.056539
0.0568245
0.0570805
0.000153832
0.00122678
0.00262794
0.00392835
0.00506449
0.00599437
0.00670855
0.00726697
0.00785026
0.00880076
0.0104131
0.0124603
0.0146512
0.0169777
0.0193601
0.0217784
0.0242754
0.0267858
0.0292359
0.031562
0.0337191
0.0355941
0.0371278
0.0383695
0.0393734
0.0401843
0.0408414
0.0413768
0.0418164
0.0421805
0.0424854
0.042744
0.0429667
0.0431622
0.0433368
0.00013221
0.000784073
0.0017309
0.00261426
0.00334756
0.00392912
0.00440707
0.00482039
0.00542095
0.00651634
0.00803758
0.0096439
0.0109417
0.0124245
0.0139819
0.0156318
0.0173932
0.0192034
0.0209942
0.022707
0.0242975
0.0256723
0.0267816
0.0276599
0.028348
0.0288823
0.0292951
0.0296147
0.0298598
0.0300505
0.0302005
0.0303216
0.0304221
0.030508
0.0305832
8.87197e-05
0.000501283
0.00104516
0.00155348
0.00202569
0.00247856
0.00295494
0.00350725
0.00418892
0.00500068
0.00583946
0.00664382
0.00744027
0.00848688
0.00964967
0.0108364
0.0120646
0.013313
0.0145382
0.0156964
0.0167503
0.0176306
0.0183051
0.0188036
0.0191527
0.0193825
0.0195281
0.0196074
0.0196388
0.0196374
0.0196147
0.0195799
0.0195396
0.0194991
0.0194613
0.00029737
0.000392611
0.000638258
0.000933217
0.00126242
0.00164658
0.00208853
0.00259224
0.00314491
0.00371892
0.00429723
0.00493036
0.00565939
0.006449
0.00714998
0.00778585
0.00844658
0.00917396
0.0099204
0.0106223
0.011232
0.0117012
0.0120014
0.0121678
0.0122389
0.0122286
0.0121594
0.0120486
0.0119106
0.0117566
0.0115957
0.0114349
0.0112796
0.011134
0.0110015
0.000180369
0.000387327
0.000616389
0.000866705
0.00114421
0.00145144
0.00178408
0.00212836
0.00246637
0.00278941
0.00311554
0.00349145
0.00392599
0.00436195
0.00473057
0.00506183
0.00543048
0.00586462
0.00630795
0.00671916
0.00705661
0.00727547
0.00737133
0.00737603
0.00731211
0.00719915
0.00705357
0.00688779
0.00671103
0.00653016
0.00635023
0.00617496
0.00600702
0.00584826
0.0057001
7.91213e-05
0.000256431
0.000458754
0.000664899
0.000876225
0.00109499
0.00131702
0.00153752
0.00175191
0.00197108
0.00222045
0.00251316
0.00285043
0.00320064
0.00348872
0.00366193
0.00376287
0.00385067
0.00396647
0.00410536
0.00422866
0.00428864
0.00428802
0.00424169
0.00416681
0.00407636
0.0039793
0.00388153
0.00378674
0.0036974
0.00361506
0.00354062
0.00347442
0.00341635
0.00336574
5.30279e-05
0.000226641
0.000393988
0.000554287
0.000713117
0.000875401
0.00104041
0.00121021
0.00138725
0.00157616
0.0017943
0.00204626
0.00233634
0.0026484
0.00292292
0.00309534
0.00316396
0.00314634
0.00309244
0.003046
0.00302402
0.00301008
0.0029977
0.00298697
0.00297897
0.00297405
0.00297322
0.0029771
0.00298612
0.00300063
0.00302077
0.00304656
0.00307787
0.00311472
0.00315724
3.74551e-05
0.000200821
0.000375608
0.000540618
0.000700048
0.000858348
0.00101947
0.00118791
0.00136772
0.00156656
0.00179605
0.00206882
0.00239341
0.00276585
0.00311216
0.00336024
0.00348128
0.00347111
0.00337553
0.00325782
0.00318021
0.00315179
0.00317203
0.00322402
0.00329346
0.00337117
0.00345201
0.00353405
0.0036172
0.00370183
0.00378807
0.00387567
0.00396395
0.00405184
0.00413632
3.612e-05
0.000202198
0.000382302
0.000558895
0.000733946
0.000909933
0.00109061
0.00128091
0.00148702
0.00171767
0.00198475
0.00230319
0.00268707
0.0031362
0.00356339
0.00390607
0.00413555
0.00423804
0.00423626
0.00418243
0.00413903
0.00414119
0.00419338
0.00427898
0.00437991
0.00448465
0.00458751
0.00468649
0.00478145
0.00487285
0.00496112
0.00504635
0.00512838
0.0052069
0.0052813
3.33651e-05
0.000204545
0.000407211
0.000613345
0.000818583
0.00102557
0.00123893
0.00146467
0.00171063
0.00198702
0.0023071
0.00268663
0.00313828
0.00365916
0.00415592
0.00456657
0.00486987
0.00505656
0.00514168
0.00516483
0.00517435
0.00520506
0.00526423
0.0053421
0.0054273
0.00551165
0.00559107
0.00566462
0.00573246
0.00579517
0.00585329
0.00590717
0.00595697
0.00600266
0.00604375
3.23613e-05
0.000203121
0.000405926
0.000618885
0.000840526
0.00107313
0.00131972
0.00158516
0.00187669
0.00220412
0.00257981
0.00301708
0.00352448
0.0040951
0.00462781
0.00506669
0.00540159
0.00562866
0.00576277
0.00583402
0.00587742
0.00591892
0.0059677
0.00602172
0.00607646
0.00612833
0.00617558
0.00621792
0.00625572
0.00628958
0.00632003
0.0063475
0.00637231
0.00639469
0.00641469
2.96779e-05
0.000201111
0.000414241
0.000646675
0.000891234
0.00114854
0.00142297
0.00172066
0.00204942
0.00241869
0.00283887
0.00331899
0.0038616
0.00445265
0.00498863
0.00542087
0.00574838
0.00597483
0.0061172
0.00620109
0.00625331
0.00629263
0.00632853
0.00636339
0.00639678
0.00642729
0.00645438
0.00647813
0.00649886
0.006517
0.00653291
0.00654692
0.00655924
0.00657007
0.0065795
2.87194e-05
0.000198625
0.000409236
0.000641937
0.000895421
0.00116969
0.00146764
0.0017943
0.00215642
0.00256203
0.00301887
0.00353163
0.00409655
0.00469325
0.00521766
0.00562938
0.00593652
0.00614854
0.00628464
0.00636789
0.00642048
0.00645777
0.00648817
0.00651529
0.00653985
0.00656173
0.00658084
0.00659721
0.00661113
0.00662291
0.00663296
0.00664154
0.00664885
0.00665505
0.00666028
2.68616e-05
0.000196471
0.00041351
0.000659942
0.000927029
0.00121605
0.00153121
0.00187819
0.00226358
0.00269414
0.00317503
0.0037067
0.00427973
0.0048693
0.00537336
0.00575952
0.00604272
0.00623744
0.00636355
0.00644302
0.00649623
0.00653387
0.00656337
0.0065864
0.00660504
0.0066219
0.00663736
0.00665138
0.00666396
0.00667521
0.00668502
0.00669347
0.00670074
0.00670703
0.00671244
2.61622e-05
0.000194932
0.000409443
0.00065606
0.000930295
0.00123172
0.0015631
0.00192913
0.0023354
0.00278704
0.00328671
0.00383134
0.00440753
0.00498716
0.00547167
0.00583593
0.00609998
0.00628104
0.00639968
0.00647806
0.00653453
0.00657453
0.00660329
0.00662925
0.00665507
0.0066786
0.00669967
0.00671815
0.00673396
0.00674726
0.00675852
0.00676809
0.00677622
0.00678316
0.00678903
2.52768e-05
0.000194162
0.00041409
0.000668909
0.000951804
0.00126311
0.00160604
0.00198523
0.0024056
0.00287094
0.00338187
0.00393256
0.00450678
0.00507459
0.00554126
0.00588755
0.00613727
0.00630917
0.00642436
0.00650494
0.0065601
0.00660772
0.0066512
0.00669009
0.00672328
0.00675196
0.00677645
0.00679713
0.00681463
0.00682939
0.00684184
0.0068523
0.00686107
0.00686842
0.00687458
0.12782
0.127751
0.12756
0.127225
0.126733
0.126086
0.125293
0.124372
0.123347
0.122252
0.121127
0.120028
0.119041
0.118255
0.117718
0.117457
0.117475
0.117751
0.118247
0.118908
0.119676
0.120499
0.135123
0.135077
0.134981
0.134835
0.134642
0.13442
0.134203
0.134012
0.133929
0.134083
0.134639
0.135552
0.137032
0.139172
0.141188
0.143009
0.144491
0.145622
0.146425
0.146939
0.147208
0.14728
0.146858
0.148224
0.149283
0.149932
0.150094
0.149791
0.149109
0.148192
0.14716
0.146102
0.145072
0.144108
0.143248
0.142632
0.142307
0.142178
0.142184
0.142297
0.142415
0.142535
0.142662
0.142798
0.136843
0.137332
0.137714
0.137986
0.138154
0.138219
0.138201
0.138137
0.138015
0.137822
0.137555
0.137229
0.13688
0.136451
0.135952
0.135421
0.134893
0.134356
0.133948
0.133662
0.133487
0.133404
0.12488
0.125408
0.125979
0.126592
0.127241
0.127913
0.128584
0.129235
0.129829
0.130347
0.130733
0.130994
0.13113
0.131146
0.131066
0.130917
0.130725
0.130513
0.130302
0.130111
0.12995
0.129827
0.117062
0.117407
0.117899
0.118514
0.119225
0.120007
0.120826
0.12163
0.122365
0.123044
0.123636
0.12412
0.12449
0.124757
0.124946
0.125076
0.125164
0.12522
0.125254
0.125276
0.125296
0.125319
0.11999
0.120254
0.120594
0.121005
0.121475
0.122
0.122563
0.123144
0.123717
0.12426
0.124756
0.125186
0.125532
0.125792
0.125976
0.126096
0.126163
0.126188
0.126181
0.126148
0.126097
0.126031
0.119596
0.120117
0.120667
0.121244
0.121842
0.122456
0.123079
0.123703
0.124319
0.124917
0.125488
0.126017
0.126482
0.126873
0.127192
0.127445
0.127637
0.127774
0.127864
0.127913
0.127926
0.127908
0.116557
0.117339
0.11813
0.118926
0.119723
0.120519
0.12131
0.122092
0.12286
0.123611
0.124337
0.12503
0.125665
0.126232
0.126734
0.127172
0.127552
0.127874
0.128144
0.128363
0.128535
0.128663
0.109045
0.110095
0.111145
0.112194
0.11324
0.114282
0.115316
0.116341
0.117352
0.118345
0.119316
0.120253
0.121129
0.121927
0.122656
0.123318
0.123915
0.124452
0.124932
0.125356
0.125729
0.126052
0.0986101
0.0998687
0.101131
0.102395
0.103659
0.104921
0.10618
0.107432
0.108676
0.109908
0.111125
0.112314
0.113442
0.114489
0.11546
0.116361
0.117193
0.117961
0.118667
0.119315
0.119907
0.120446
0.0859352
0.0873507
0.0887794
0.0902189
0.0916669
0.0931211
0.094579
0.0960382
0.0974962
0.0989502
0.100397
0.101823
0.103189
0.104469
0.105669
0.106794
0.107849
0.108837
0.109761
0.110624
0.11143
0.11218
0.0721266
0.073638
0.0751714
0.0767252
0.0782975
0.0798867
0.0814907
0.0831072
0.0847338
0.0863679
0.0880066
0.0896351
0.0912076
0.0926954
0.094103
0.0954348
0.0966951
0.0978873
0.0990148
0.100081
0.101088
0.10204
0.0579563
0.0594913
0.0610594
0.0626589
0.0642887
0.0659474
0.0676335
0.0693454
0.0710813
0.072839
0.0746161
0.0763971
0.0781317
0.0797868
0.0813662
0.0828732
0.0843111
0.0856828
0.0869911
0.0882389
0.0894287
0.0905628
0.0441439
0.0456237
0.0471469
0.0487132
0.0503221
0.0519733
0.0536662
0.0553999
0.0571736
0.058986
0.0608356
0.0627071
0.0645476
0.0663204
0.0680276
0.0696712
0.0712532
0.0727753
0.0742392
0.0756463
0.0769983
0.0782967
0.0312666
0.0326007
0.0339905
0.0354362
0.0369381
0.0384966
0.0401118
0.0417842
0.0435139
0.045301
0.0471454
0.049033
0.0509104
0.0527387
0.0545179
0.056248
0.0579293
0.0595615
0.0611448
0.062679
0.0641642
0.0656007
0.0199487
0.0210123
0.0221488
0.023359
0.0246438
0.0260038
0.0274401
0.0289538
0.0305462
0.0322181
0.0339707
0.0357915
0.0376289
0.0394427
0.0412304
0.0429896
0.044718
0.0464135
0.0480741
0.0496978
0.0512832
0.0528284
0.0112466
0.0119084
0.0126396
0.0134485
0.0143429
0.0153293
0.0164135
0.0176014
0.0188975
0.0203056
0.0218281
0.0234551
0.0251385
0.0268362
0.028541
0.0302467
0.0319478
0.0336394
0.0353173
0.0369775
0.0386164
0.0402304
0.00576723
0.00604523
0.0063581
0.00671395
0.00712323
0.00759874
0.00815563
0.00881117
0.00958387
0.0104921
0.011552
0.0127668
0.0141019
0.0155151
0.0169895
0.0185105
0.0200656
0.0216451
0.0232412
0.0248479
0.0264605
0.0280748
0.00339358
0.00348977
0.00359117
0.00370047
0.00382168
0.00396025
0.00412372
0.00432251
0.00457074
0.00488701
0.00529534
0.00582081
0.00647315
0.00724928
0.00814979
0.00916708
0.010287
0.0114925
0.012767
0.0140964
0.0154703
0.0168816
0.00316567
0.0031508
0.00314805
0.00315734
0.00317774
0.00320896
0.00325143
0.00330648
0.00337647
0.00346518
0.00357824
0.00372319
0.00390648
0.00413438
0.00441745
0.00476646
0.00519082
0.00569684
0.00628641
0.0069567
0.00770141
0.00851223
0.00411979
0.00402812
0.00395528
0.00390185
0.0038682
0.00385427
0.00385995
0.0038841
0.00392637
0.00398586
0.00406143
0.00415117
0.00425121
0.00435825
0.00447163
0.00459094
0.00471505
0.00484085
0.00496245
0.00507312
0.00517095
0.00526744
0.00526415
0.00516861
0.00507917
0.00500103
0.00493818
0.00489358
0.00486924
0.00486615
0.00488421
0.00492285
0.00498064
0.00505491
0.00514044
0.00523194
0.0053269
0.00542326
0.00551856
0.0056081
0.00568161
0.00571848
0.00568399
0.00553591
0.00603126
0.00597046
0.00590812
0.00584744
0.00579194
0.00574515
0.00571013
0.00568944
0.00568488
0.0056971
0.00572609
0.00577064
0.00582718
0.00589119
0.00596007
0.00603176
0.00610458
0.0061766
0.00624417
0.00629913
0.00632357
0.00628249
0.00640912
0.00637915
0.00634664
0.00631262
0.0062787
0.00624684
0.00621929
0.00619835
0.0061861
0.00618413
0.00619337
0.00621407
0.00624478
0.0062828
0.00632602
0.00637273
0.00642153
0.00647116
0.00652009
0.00656562
0.00660209
0.00661734
0.00657676
0.00656186
0.00654547
0.00652783
0.00650944
0.00649106
0.00647377
0.00645886
0.00644777
0.00644194
0.00644246
0.00645011
0.00646475
0.00648525
0.00651046
0.00653925
0.0065706
0.00660357
0.00663721
0.00667032
0.00670089
0.00672507
0.00665817
0.00664868
0.00663818
0.00662686
0.00661504
0.00660313
0.00659143
0.0065805
0.00657109
0.00656421
0.0065608
0.00656174
0.00656729
0.00657712
0.00659082
0.00660779
0.00662741
0.00664908
0.00667213
0.00669588
0.00671935
0.00674111
0.0067105
0.00670047
0.0066913
0.00668243
0.00667315
0.00666312
0.00665281
0.00664242
0.0066325
0.00662382
0.00661718
0.00661324
0.00661251
0.00661514
0.00662083
0.00662949
0.00664075
0.00665424
0.00666955
0.00668623
0.00670369
0.00672123
0.00678454
0.0067692
0.00675309
0.00673726
0.0067222
0.00670799
0.00669462
0.00668279
0.00667201
0.00666173
0.00665203
0.00664378
0.00663756
0.00663397
0.00663318
0.00663509
0.00663952
0.00664634
0.00665526
0.00666597
0.00667809
0.00669119
0.00686845
0.00685023
0.00683137
0.00681179
0.006792
0.00677219
0.00675252
0.00673302
0.00671461
0.0066977
0.00668249
0.0066693
0.00665913
0.00665106
0.00664486
0.00664092
0.00663923
0.00663999
0.00664306
0.00664822
0.00665521
0.00666376
0.121507
0.122364
0.122761
0.122649
0.12202
0.120957
0.147333
0.147423
0.14747
0.147481
0.14745
0.147367
0.142906
0.142976
0.143052
0.143133
0.143218
0.143295
0.133327
0.133247
0.13321
0.133207
0.133237
0.133308
0.129683
0.129538
0.129466
0.129468
0.129543
0.12969
0.125325
0.125316
0.125304
0.12529
0.125275
0.125256
0.125996
0.125995
0.125991
0.125986
0.12598
0.12597
0.127918
0.127958
0.127971
0.127961
0.127926
0.127865
0.128754
0.128805
0.128823
0.128809
0.128763
0.128684
0.126241
0.126295
0.126313
0.126296
0.126244
0.126155
0.120742
0.120791
0.120807
0.12079
0.12074
0.120656
0.112578
0.112623
0.112637
0.112621
0.112575
0.112499
0.102534
0.102573
0.102585
0.102572
0.102532
0.102466
0.0911435
0.0911755
0.0911857
0.0911743
0.0911413
0.0910866
0.0789542
0.0789778
0.078985
0.0789761
0.0789509
0.0789094
0.0663201
0.0663325
0.0663351
0.0663281
0.0663116
0.0662855
0.0535934
0.0535906
0.0535863
0.0535807
0.0535738
0.0535653
0.0410185
0.0409951
0.0409807
0.0409753
0.040979
0.0409916
0.0288548
0.0288104
0.0287845
0.0287775
0.0287893
0.0288196
0.0175494
0.0174818
0.0174415
0.0174307
0.0174493
0.017495
0.00886594
0.00877753
0.00872567
0.0087128
0.00873886
0.00880143
0.00535681
0.00538112
0.0053918
0.00538473
0.00535924
0.0053186
0.00553981
0.00565868
0.00571859
0.00571877
0.00565859
0.00553791
0.00631073
0.00640146
0.00644852
0.00645115
0.00640928
0.00632367
0.00665767
0.00671078
0.00673827
0.00674025
0.0067169
0.00666839
0.00675793
0.00678754
0.00680251
0.0068034
0.00679037
0.00676322
0.00676395
0.00677951
0.00678707
0.00678714
0.00677985
0.00676499
0.00673633
0.00674377
0.00674711
0.00674671
0.00674267
0.00673482
0.00670081
0.00670377
0.00670482
0.00670422
0.006702
0.00669807
0.00666933
0.00666993
0.00666983
0.00666916
0.00666797
0.00666619
0.119786
0.118831
0.117954
0.117214
0.11667
0.116371
0.11635
0.11662
0.117169
0.117963
0.11895
0.120052
0.121168
0.122225
0.123187
0.124024
0.124716
0.125252
0.125625
0.125838
0.125898
0.12583
0.147303
0.147206
0.146884
0.14629
0.145384
0.144138
0.142546
0.140638
0.138491
0.136188
0.13448
0.133568
0.132893
0.132603
0.132534
0.132568
0.132647
0.132712
0.132733
0.132701
0.132617
0.132483
0.143298
0.143237
0.143152
0.14303
0.142902
0.14284
0.142867
0.143036
0.143431
0.143984
0.144669
0.145455
0.146305
0.147159
0.147932
0.148492
0.148686
0.148415
0.147708
0.146647
0.145388
0.144057
0.133382
0.133473
0.133678
0.134015
0.134441
0.134862
0.135294
0.135717
0.136049
0.136409
0.136785
0.13712
0.137405
0.137623
0.137777
0.137868
0.137899
0.137827
0.137598
0.137189
0.136662
0.136052
0.129837
0.129961
0.130121
0.130305
0.1305
0.13069
0.130855
0.130975
0.131028
0.130997
0.13086
0.130599
0.130248
0.129759
0.129195
0.128575
0.127942
0.127309
0.12669
0.126091
0.125509
0.124936
0.125224
0.125176
0.12513
0.125081
0.125022
0.124952
0.124861
0.124733
0.124551
0.124296
0.123944
0.123475
0.122891
0.122223
0.121491
0.120691
0.119884
0.119124
0.118437
0.117852
0.117397
0.117095
0.125996
0.126052
0.126094
0.126114
0.126107
0.126065
0.125978
0.125835
0.125626
0.12534
0.124968
0.124507
0.123974
0.123396
0.122791
0.122181
0.121598
0.121062
0.120585
0.12017
0.119831
0.119571
0.127836
0.127834
0.127798
0.127724
0.127606
0.127438
0.127214
0.126929
0.126578
0.126158
0.125666
0.125105
0.124496
0.123861
0.123212
0.122559
0.121912
0.121277
0.120661
0.120072
0.119513
0.118985
0.128566
0.128411
0.128209
0.127959
0.127658
0.127302
0.126889
0.126417
0.125884
0.125286
0.124621
0.123893
0.123124
0.122335
0.121533
0.120721
0.119905
0.119089
0.118276
0.11747
0.116672
0.115888
0.125933
0.125575
0.125168
0.124708
0.124193
0.123621
0.12299
0.122298
0.121543
0.120719
0.119821
0.118853
0.117843
0.116815
0.115774
0.114724
0.11367
0.112613
0.111556
0.110502
0.109452
0.108406
0.120326
0.119752
0.119125
0.118443
0.117704
0.116905
0.116043
0.115117
0.114122
0.113055
0.111912
0.110698
0.109445
0.108182
0.106913
0.105641
0.104368
0.103096
0.101828
0.100566
0.0993106
0.0980638
0.112068
0.111283
0.110443
0.109548
0.108593
0.107578
0.106498
0.105352
0.104135
0.102844
0.101474
0.10003
0.0985514
0.0970715
0.0955931
0.0941192
0.0926521
0.0911942
0.0897478
0.0883153
0.0868986
0.0855002
0.101941
0.100956
0.0999171
0.098822
0.0976682
0.0964529
0.0951732
0.0938266
0.0924092
0.0909175
0.0893476
0.0877073
0.0860405
0.084384
0.0827406
0.0811128
0.0795031
0.0779135
0.0763459
0.0748021
0.0732835
0.0717918
0.0904783
0.0893128
0.0880941
0.0868202
0.0854891
0.0840989
0.0826469
0.0811306
0.0795474
0.0778946
0.076169
0.0743805
0.0725774
0.0707993
0.0690484
0.0673266
0.0656358
0.0639774
0.0623527
0.0607629
0.0592091
0.0576929
0.0782276
0.0768997
0.0755213
0.0740911
0.0726079
0.0710707
0.0694781
0.0678289
0.0661215
0.0643544
0.0625257
0.0606474
0.0587711
0.0569372
0.055147
0.0534015
0.0517014
0.0500475
0.0484401
0.0468795
0.0453661
0.0439001
0.0655444
0.0640798
0.0625696
0.0610141
0.0594133
0.0577677
0.0560775
0.054343
0.0525643
0.0507413
0.0488741
0.0469764
0.0451014
0.0432881
0.0415368
0.039847
0.0382184
0.0366506
0.0351433
0.0336963
0.032309
0.030981
0.05278
0.0512067
0.0495965
0.0479512
0.0462728
0.0445631
0.0428242
0.0410581
0.039267
0.037453
0.0356184
0.033779
0.0319878
0.0302818
0.02866
0.0271214
0.0256648
0.0242892
0.0229939
0.0217779
0.0206402
0.0195792
0.0401826
0.0385383
0.036872
0.0351873
0.0334878
0.0317771
0.0300592
0.0283389
0.0266213
0.0249124
0.0232193
0.0215628
0.0199954
0.0185498
0.0172236
0.0160129
0.0149123
0.0139163
0.0130183
0.0122103
0.0114832
0.0108274
0.0280146
0.0263643
0.0247181
0.0230795
0.0214531
0.0198445
0.0182614
0.0167136
0.0152142
0.0137789
0.0124261
0.0111836
0.0100942
0.00917006
0.00839255
0.00774077
0.00719369
0.00673186
0.00633813
0.00599804
0.0057
0.00543524
0.0167958
0.0153438
0.0139315
0.0125657
0.0112576
0.0100218
0.00887632
0.00783972
0.00692756
0.00614829
0.00550135
0.00498221
0.00458379
0.00428351
0.00405424
0.0038753
0.00373128
0.00361094
0.00350621
0.0034115
0.00332305
0.00323865
0.00841901
0.00757946
0.00681134
0.00612347
0.00552247
0.00501114
0.00458746
0.0042449
0.00397363
0.00376201
0.00359797
0.003471
0.00337323
0.00329689
0.00323591
0.00318718
0.00314901
0.00312079
0.00310269
0.0030957
0.00310148
0.00312091
0.00521576
0.00511802
0.00502223
0.0049158
0.00480031
0.0046828
0.00456955
0.00446369
0.00436572
0.00427457
0.00418876
0.00410799
0.0040348
0.0039726
0.00392394
0.00389129
0.00387687
0.00388168
0.00390799
0.00395631
0.00402686
0.00411944
0.00553648
0.00569562
0.00573739
0.00570661
0.00563976
0.00555836
0.00547276
0.00538708
0.00530266
0.00522002
0.00513999
0.00506524
0.00500134
0.00495308
0.0049234
0.00491438
0.00492696
0.00496145
0.00501672
0.00509017
0.0051779
0.0052745
0.00630143
0.00634824
0.0063278
0.00627708
0.00621456
0.00614843
0.00608195
0.00601641
0.00595258
0.00589157
0.00583506
0.00578634
0.00574998
0.00572889
0.00572407
0.00573556
0.00576261
0.00580314
0.00585434
0.00591259
0.0059741
0.00603528
0.00663224
0.00661932
0.00658489
0.00654172
0.00649556
0.00644892
0.00640304
0.00635873
0.0063169
0.00627882
0.00624622
0.00622135
0.00620667
0.00620283
0.00620931
0.00622512
0.00624847
0.00627722
0.00630906
0.00634186
0.00637378
0.00640354
0.00673244
0.0067088
0.00667876
0.00664638
0.00661363
0.00658162
0.00655109
0.00652275
0.00649741
0.00647598
0.00645949
0.00644893
0.00644515
0.00644778
0.00645587
0.00646828
0.00648356
0.00650041
0.00651769
0.00653452
0.0065503
0.00656472
0.00674266
0.00672044
0.00669658
0.00667261
0.00664946
0.00662777
0.00660807
0.00659085
0.00657662
0.00656589
0.00655898
0.00655629
0.0065579
0.00656311
0.00657101
0.00658065
0.00659125
0.00660226
0.00661335
0.006624
0.00663392
0.00664296
0.00671929
0.00670085
0.00668262
0.00666534
0.00664956
0.00663568
0.00662405
0.00661496
0.00660871
0.00660533
0.00660509
0.00660791
0.00661351
0.00662125
0.00663022
0.00663972
0.00664924
0.00665856
0.00666716
0.00667559
0.00668452
0.00669434
0.00668758
0.00667349
0.00666051
0.00664912
0.00663964
0.00663233
0.00662742
0.00662504
0.00662524
0.00662814
0.00663345
0.0066408
0.00664971
0.00665911
0.00666928
0.00668064
0.00669348
0.00670712
0.00672174
0.00673714
0.0067528
0.00676777
0.0066596
0.00665012
0.00664232
0.00663649
0.00663283
0.00663153
0.00663266
0.006636
0.00664149
0.00664867
0.00665816
0.00667062
0.00668518
0.00670153
0.0067193
0.00673803
0.00675696
0.0067761
0.00679532
0.00681434
0.00683275
0.00685062
0.125607
0.125302
0.124941
0.124502
0.123949
0.123237
0.12231
0.121098
0.119522
0.1175
0.114977
0.11203
0.108861
0.105592
0.102411
0.0989021
0.0954579
0.0924535
0.0901048
0.0887054
0.0868834
0.0857407
0.0852189
0.0852344
0.0846022
0.0812666
0.0754569
0.0678296
0.0588983
0.0490815
0.0386326
0.0277343
0.0166395
0.00636991
0.00122878
0.132282
0.132072
0.131685
0.131068
0.130125
0.12883
0.127163
0.125119
0.122723
0.119935
0.117148
0.114877
0.112271
0.109438
0.10594
0.10149
0.09642
0.0914972
0.0861458
0.0828984
0.0823331
0.0845931
0.0861644
0.0906706
0.0970424
0.0990811
0.0991983
0.0975786
0.0930564
0.0855894
0.0738912
0.0565493
0.0354101
0.0145231
0.00174353
0.14295
0.142021
0.140961
0.139738
0.138339
0.136696
0.13474
0.1324
0.12962
0.126399
0.122779
0.118749
0.114134
0.108273
0.100161
0.090332
0.0807373
0.0716663
0.0645126
0.0635842
0.0722586
0.0854878
0.100539
0.114861
0.125699
0.129914
0.127601
0.120444
0.109379
0.0945977
0.076789
0.0569692
0.035929
0.0154177
0.00164577
0.135553
0.135199
0.134775
0.13427
0.133727
0.133201
0.132766
0.132506
0.132352
0.131984
0.130138
0.126337
0.120549
0.112477
0.0993181
0.0881814
0.0755211
0.066552
0.062193
0.0657626
0.0752958
0.0846172
0.0895212
0.0914195
0.0923262
0.0922543
0.0893642
0.0850249
0.0772596
0.066706
0.0539844
0.0398563
0.025013
0.0106548
0.00141888
0.124574
0.124444
0.124427
0.124585
0.124904
0.125352
0.125849
0.126244
0.126337
0.125944
0.125261
0.124658
0.124311
0.124309
0.124301
0.12223
0.113297
0.0926998
0.0687681
0.0512684
0.0473196
0.0577567
0.0714167
0.0802146
0.0830292
0.0821319
0.0784122
0.0724466
0.0645018
0.0550511
0.0444743
0.0332478
0.0215498
0.00983393
0.00116403
0.116975
0.116957
0.117059
0.117327
0.117815
0.118582
0.119683
0.121168
0.123079
0.125323
0.127459
0.128984
0.129211
0.127298
0.122104
0.110637
0.0957189
0.077861
0.0601843
0.0447237
0.0346684
0.0305342
0.03422
0.0390982
0.0421901
0.0426092
0.0416131
0.038281
0.03381
0.0287768
0.0232411
0.0173768
0.0112724
0.00512673
0.000795148
0.119391
0.119252
0.119143
0.119073
0.119054
0.119099
0.11921
0.119368
0.119522
0.119612
0.119529
0.119372
0.119152
0.118783
0.117556
0.114572
0.108971
0.0985256
0.0842884
0.0690172
0.0534574
0.037868
0.0254192
0.0209035
0.0229203
0.0245728
0.0243893
0.0231962
0.0206451
0.0174265
0.0139605
0.0104449
0.00690161
0.00334554
0.000477148
0.118557
0.118241
0.1179
0.117544
0.11718
0.116813
0.116454
0.116107
0.115763
0.115392
0.114915
0.114219
0.113127
0.1114
0.10877
0.105148
0.100226
0.0937165
0.0852691
0.0749896
0.0642588
0.050257
0.0310522
0.0154287
0.00988453
0.00772796
0.00723062
0.00665461
0.00610052
0.00510322
0.00407181
0.00300906
0.00194672
0.000870922
0.000228282
0.11532
0.114946
0.114531
0.114072
0.113563
0.112999
0.112368
0.111654
0.110827
0.109839
0.108629
0.10717
0.105438
0.10335
0.100711
0.0973925
0.0933769
0.0884691
0.082332
0.0745372
0.0660167
0.0569255
0.0478685
0.0398963
0.0335247
0.0287817
0.0246666
0.020924
0.0174631
0.0141643
0.0109456
0.00774837
0.00461826
0.00182719
0.000232141
0.107684
0.107264
0.10679
0.106254
0.105647
0.104957
0.104172
0.103274
0.102242
0.101049
0.0996575
0.0980148
0.0960444
0.093635
0.0906837
0.0872588
0.0835097
0.0794158
0.0749192
0.0699528
0.064493
0.0582916
0.0517276
0.0455111
0.0396859
0.0342162
0.0290518
0.0241846
0.0196236
0.0153627
0.0114085
0.0077835
0.00453543
0.00180451
0.000202153
0.0972517
0.0968471
0.0963904
0.095873
0.0952844
0.0946133
0.0938451
0.092961
0.0919361
0.0907367
0.089317
0.0876189
0.0855836
0.0831411
0.0802373
0.076957
0.0734169
0.0696032
0.0655043
0.0611114
0.0564192
0.0512825
0.0459732
0.0409785
0.0362444
0.0317474
0.0274479
0.0233101
0.0193333
0.0154928
0.0117785
0.0082064
0.00484492
0.00191181