/*--------------------------------*- C++ -*----------------------------------*\
  =========                 |
  \\      /  F ield         | OpenFOAM: The Open Source CFD Toolbox
   \\    /   O peration     | Website:  https://openfoam.org
    \\  /    A nd           | Version:  8
     \\/     M anipulation  |
\*---------------------------------------------------------------------------*/
FoamFile
{
    version     2.0;
    format      ascii;
    class       volScalarField;
    location    "0.03";
    object      T;
}
// * * * * * * * * * * * * * * * * * * * * * * * * * * * * * * * * * * * * * //

dimensions      [0 0 0 1 0 0 0];

internalField   nonuniform List<scalar> 
15677
(
296.615
296.509
296.474
296.484
296.527
296.602
296.712
296.862
297.06
297.322
297.667
298.03
298.383
298.687
298.884
298.998
299.062
299.096
299.1
299.073
298.995
298.847
298.664
298.546
298.458
298.391
298.338
298.296
298.262
298.23
298.201
298.173
298.146
298.12
298.097
296.303
295.703
295.34
295.114
294.988
294.948
295.007
295.189
295.511
296.024
296.834
297.965
299.091
299.739
300.044
300.181
300.237
300.225
300.148
300.031
299.874
299.685
299.484
299.28
299.073
298.864
298.657
298.46
298.284
298.134
298.013
297.92
297.855
297.814
297.789
300.743
300.527
300.4
300.313
300.248
300.192
300.124
300.019
299.838
299.556
299.203
298.862
298.43
297.895
297.457
297.295
297.335
297.535
297.783
298.016
298.215
298.376
298.505
298.618
298.72
298.822
298.925
299.024
299.11
299.184
299.248
299.307
299.364
299.419
299.474
299.747
299.534
299.451
299.392
299.351
299.323
299.309
299.312
299.34
299.412
299.544
299.733
299.99
300.277
300.519
300.65
300.695
300.704
300.704
300.696
300.666
300.592
300.477
300.34
300.204
300.086
300
299.949
299.935
299.949
299.982
300.024
300.067
300.108
300.146
302.505
302.371
302.246
302.115
301.973
301.817
301.646
301.458
301.254
301.037
300.791
300.548
300.317
300.052
299.809
299.701
299.715
299.783
299.867
299.953
300.04
300.127
300.212
300.294
300.378
300.462
300.551
300.644
300.742
300.841
300.935
301.022
301.099
301.168
301.227
302.48
302.334
302.221
302.11
301.997
301.879
301.756
301.635
301.521
301.421
301.342
301.268
301.247
301.198
301.102
301.005
300.931
300.891
300.884
300.896
300.918
300.946
300.976
301.009
301.046
301.084
301.122
301.16
301.196
301.228
301.257
301.283
301.307
301.329
301.349
302.474
302.508
302.478
302.409
302.309
302.186
302.039
301.864
301.653
301.431
301.218
301.051
300.947
300.896
300.866
300.855
300.858
300.873
300.899
300.935
300.979
301.025
301.072
301.118
301.163
301.208
301.252
301.293
301.332
301.367
301.399
301.427
301.452
301.474
301.493
301.715
301.765
301.774
301.76
301.721
301.659
301.582
301.492
301.387
301.278
301.186
301.14
301.091
301.038
301
300.977
300.967
300.97
300.983
301.005
301.034
301.068
301.104
301.138
301.171
301.202
301.23
301.256
301.279
301.3
301.317
301.333
301.347
301.36
301.371
301.162
301.15
301.143
301.137
301.13
301.123
301.113
301.103
301.091
301.079
301.069
301.055
301.033
301.009
300.989
300.976
300.969
300.968
300.974
300.988
301.007
301.031
301.056
301.081
301.106
301.129
301.149
301.168
301.184
301.199
301.212
301.224
301.234
301.243
301.251
301.182
301.162
301.15
301.138
301.126
301.112
301.096
301.079
301.061
301.04
301.018
300.995
300.971
300.947
300.927
300.914
300.907
300.905
300.909
300.918
300.931
300.947
300.963
300.979
300.995
301.009
301.021
301.033
301.042
301.051
301.059
301.066
301.072
301.078
301.083
301.124
301.122
301.12
301.117
301.111
301.102
301.091
301.077
301.059
301.038
301.015
300.989
300.961
300.933
300.909
300.89
300.876
300.867
300.864
300.864
300.869
300.877
300.886
300.896
300.905
300.914
300.923
300.93
300.936
300.942
300.947
300.952
300.956
300.959
300.963
301.016
301.021
301.024
301.023
301.019
301.012
301.002
300.988
300.971
300.952
300.93
300.906
300.881
300.856
300.833
300.816
300.803
300.794
300.789
300.787
300.788
300.792
300.796
300.802
300.807
300.812
300.817
300.821
300.825
300.828
300.832
300.834
300.837
300.839
300.842
300.966
300.976
300.981
300.982
300.98
300.975
300.967
300.955
300.94
300.921
300.9
300.876
300.851
300.825
300.801
300.781
300.765
300.753
300.744
300.738
300.735
300.734
300.735
300.736
300.738
300.741
300.743
300.745
300.747
300.749
300.751
300.752
300.753
300.755
300.756
300.85
300.842
300.838
300.834
300.829
300.823
300.815
300.805
300.793
300.779
300.765
300.751
300.738
300.725
300.713
300.703
300.694
300.686
300.679
300.674
300.671
300.669
300.668
300.668
300.668
300.669
300.67
300.671
300.672
300.672
300.673
300.674
300.675
300.676
300.676
300.882
300.869
300.857
300.845
300.83
300.813
300.793
300.768
300.741
300.716
300.694
300.678
300.667
300.659
300.653
300.647
300.642
300.638
300.633
300.629
300.625
300.622
300.621
300.619
300.619
300.618
300.618
300.618
300.619
300.619
300.619
300.619
300.62
300.62
300.62
300.857
300.84
300.824
300.808
300.789
300.765
300.739
300.709
300.679
300.65
300.626
300.61
300.6
300.595
300.593
300.593
300.591
300.59
300.588
300.585
300.583
300.58
300.578
300.577
300.576
300.575
300.575
300.575
300.574
300.574
300.574
300.574
300.574
300.574
300.574
300.786
300.768
300.747
300.726
300.705
300.684
300.663
300.643
300.625
300.608
300.592
300.579
300.569
300.563
300.561
300.56
300.56
300.56
300.559
300.558
300.556
300.554
300.553
300.552
300.551
300.55
300.549
300.549
300.549
300.549
300.548
300.548
300.548
300.548
300.548
300.643
300.639
300.631
300.623
300.615
300.607
300.599
300.591
300.584
300.577
300.569
300.563
300.557
300.553
300.551
300.55
300.549
300.547
300.546
300.545
300.543
300.542
300.54
300.539
300.539
300.538
300.538
300.538
300.538
300.537
300.537
300.537
300.537
300.537
300.537
300.57
300.57
300.57
300.569
300.567
300.565
300.562
300.56
300.557
300.554
300.551
300.549
300.547
300.545
300.543
300.542
300.541
300.54
300.539
300.539
300.538
300.537
300.536
300.536
300.535
300.535
300.535
300.535
300.535
300.535
300.536
300.536
300.536
300.536
300.536
300.554
300.555
300.555
300.554
300.554
300.553
300.552
300.551
300.55
300.548
300.547
300.546
300.545
300.544
300.543
300.543
300.543
300.542
300.542
300.541
300.54
300.539
300.539
300.538
300.538
300.538
300.538
300.538
300.539
300.539
300.539
300.539
300.539
300.539
300.539
300.545
300.545
300.545
300.545
300.545
300.545
300.545
300.544
300.544
300.543
300.542
300.542
300.541
300.54
300.54
300.54
300.54
300.54
300.539
300.539
300.539
300.539
300.539
300.539
300.539
300.539
300.539
300.539
300.539
300.539
300.539
300.539
300.539
300.539
300.54
300.545
300.545
300.545
300.544
300.544
300.544
300.544
300.543
300.543
300.542
300.542
300.541
300.541
300.541
300.541
300.541
300.541
300.541
300.541
300.54
300.54
300.54
300.54
300.54
300.54
300.54
300.54
300.54
300.54
300.54
300.54
300.54
300.54
300.54
300.54
300.541
300.541
300.541
300.541
300.541
300.541
300.541
300.541
300.541
300.54
300.54
300.54
300.54
300.539
300.539
300.539
300.539
300.539
300.539
300.539
300.539
300.539
300.539
300.539
300.539
300.54
300.54
300.54
300.54
300.54
300.54
300.54
300.54
300.54
300.54
300.541
300.541
300.541
300.541
300.541
300.541
300.541
300.541
300.54
300.54
300.54
300.54
300.54
300.539
300.539
300.539
300.539
300.539
300.539
300.539
300.539
300.539
300.539
300.539
300.54
300.54
300.54
300.54
300.54
300.54
300.54
300.54
300.54
300.54
300.54
300.539
300.539
300.54
300.54
300.539
300.539
300.539
300.539
300.539
300.539
300.539
300.539
300.539
300.539
300.539
300.539
300.539
300.539
300.539
300.539
300.539
300.539
300.539
300.539
300.539
300.539
300.539
300.54
300.54
300.54
300.54
300.54
300.54
300.54
300.54
300.539
300.539
300.539
300.539
300.539
300.539
300.539
300.539
300.539
300.539
300.539
300.539
300.539
300.539
300.539
300.539
300.539
300.539
300.539
300.539
300.539
300.539
300.539
300.539
300.539
300.539
300.539
300.539
300.54
300.54
300.54
300.54
300.54
300.54
300.54
300.538
300.538
300.538
300.538
300.538
300.538
300.538
300.538
300.538
300.538
300.538
300.538
300.538
300.538
300.538
300.538
300.538
300.538
300.538
300.538
300.538
300.538
300.539
300.539
300.539
300.539
300.539
300.539
300.539
300.54
300.54
300.54
300.54
300.54
300.54
300.538
300.538
300.538
300.538
300.538
300.538
300.538
300.538
300.538
300.538
300.538
300.538
300.538
300.538
300.538
300.538
300.538
300.538
300.538
300.538
300.538
300.538
300.538
300.539
300.539
300.539
300.539
300.539
300.539
300.539
300.54
300.54
300.54
300.54
300.54
300.537
300.538
300.538
300.538
300.538
300.538
300.538
300.538
300.538
300.537
300.537
300.537
300.537
300.537
300.537
300.538
300.538
300.538
300.538
300.538
300.538
300.538
300.538
300.538
300.538
300.539
300.539
300.539
300.539
300.539
300.539
300.54
300.54
300.54
300.54
300.537
300.537
300.537
300.537
300.537
300.537
300.537
300.537
300.537
300.537
300.537
300.537
300.537
300.537
300.537
300.537
300.537
300.537
300.537
300.538
300.538
300.538
300.538
300.538
300.538
300.539
300.539
300.539
300.539
300.539
300.539
300.539
300.54
300.54
300.54
298.07
298.039
298.007
297.976
297.948
297.924
297.908
297.9
297.902
297.915
297.94
297.976
298.02
298.067
298.117
298.166
298.214
298.258
298.299
298.335
298.368
298.396
297.768
297.755
297.757
297.774
297.808
297.857
297.917
297.987
298.064
298.149
298.238
298.329
298.421
298.508
298.592
298.67
298.744
298.812
298.873
298.927
298.973
299.009
299.542
299.636
299.75
299.887
300.045
300.224
300.419
300.626
300.84
301.055
301.268
301.471
301.659
301.825
301.972
302.1
302.211
302.304
302.382
302.445
302.493
302.527
300.185
300.228
300.275
300.329
300.392
300.462
300.537
300.617
300.7
300.783
300.867
300.947
301.021
301.086
301.143
301.192
301.233
301.267
301.295
301.317
301.334
301.347
301.293
301.366
301.433
301.495
301.549
301.6
301.651
301.704
301.762
301.825
301.892
301.963
302.034
302.103
302.169
302.228
302.282
302.33
302.37
302.404
302.43
302.45
301.373
301.402
301.433
301.465
301.499
301.534
301.569
301.606
301.645
301.685
301.726
301.767
301.808
301.847
301.883
301.917
301.948
301.976
302
302.022
302.04
302.055
301.515
301.543
301.572
301.601
301.631
301.662
301.693
301.725
301.757
301.79
301.824
301.858
301.892
301.924
301.954
301.983
302.009
302.033
302.055
302.075
302.092
302.107
301.386
301.408
301.431
301.454
301.478
301.502
301.527
301.553
301.579
301.606
301.633
301.661
301.687
301.713
301.737
301.76
301.781
301.801
301.82
301.837
301.853
301.867
301.264
301.283
301.303
301.323
301.344
301.366
301.388
301.41
301.433
301.457
301.481
301.505
301.528
301.551
301.572
301.592
301.612
301.63
301.647
301.663
301.678
301.693
301.093
301.108
301.125
301.141
301.159
301.177
301.195
301.214
301.233
301.253
301.273
301.293
301.314
301.333
301.351
301.369
301.386
301.402
301.417
301.432
301.446
301.46
300.97
300.983
300.996
301.009
301.024
301.039
301.054
301.07
301.086
301.103
301.12
301.138
301.155
301.172
301.188
301.203
301.218
301.233
301.247
301.26
301.273
301.286
300.848
300.858
300.869
300.881
300.893
300.905
300.918
300.932
300.946
300.96
300.975
300.99
301.005
301.02
301.034
301.047
301.061
301.074
301.086
301.098
301.11
301.122
300.76
300.769
300.777
300.787
300.796
300.807
300.817
300.828
300.84
300.852
300.864
300.877
300.89
300.902
300.915
300.927
300.938
300.95
300.961
300.972
300.982
300.993
300.68
300.687
300.695
300.702
300.711
300.719
300.728
300.738
300.748
300.758
300.769
300.78
300.791
300.802
300.812
300.823
300.833
300.843
300.853
300.863
300.873
300.882
300.623
300.628
300.634
300.64
300.646
300.653
300.66
300.668
300.676
300.685
300.694
300.703
300.713
300.722
300.731
300.74
300.75
300.758
300.767
300.776
300.785
300.793
300.576
300.58
300.585
300.589
300.594
300.6
300.606
300.612
300.618
300.625
300.633
300.641
300.649
300.657
300.665
300.672
300.68
300.688
300.696
300.704
300.711
300.719
300.549
300.551
300.554
300.557
300.56
300.564
300.568
300.572
300.577
300.582
300.588
300.594
300.6
300.606
300.613
300.619
300.626
300.633
300.639
300.646
300.652
300.659
300.538
300.538
300.539
300.54
300.542
300.543
300.545
300.548
300.55
300.553
300.557
300.561
300.565
300.57
300.575
300.58
300.585
300.59
300.595
300.601
300.606
300.612
300.536
300.536
300.536
300.536
300.536
300.537
300.537
300.538
300.538
300.54
300.541
300.543
300.545
300.547
300.55
300.553
300.557
300.56
300.564
300.568
300.572
300.576
300.539
300.539
300.539
300.538
300.538
300.538
300.538
300.538
300.538
300.538
300.538
300.538
300.538
300.539
300.54
300.541
300.542
300.544
300.546
300.548
300.55
300.553
300.539
300.539
300.539
300.539
300.539
300.539
300.539
300.538
300.538
300.538
300.538
300.538
300.538
300.538
300.538
300.538
300.538
300.538
300.539
300.539
300.54
300.541
300.54
300.54
300.54
300.54
300.54
300.54
300.54
300.54
300.539
300.539
300.539
300.539
300.539
300.538
300.538
300.538
300.538
300.538
300.538
300.538
300.538
300.538
300.54
300.54
300.54
300.54
300.54
300.54
300.54
300.54
300.54
300.539
300.539
300.539
300.539
300.539
300.539
300.539
300.539
300.539
300.538
300.538
300.538
300.538
300.54
300.54
300.54
300.54
300.54
300.54
300.54
300.54
300.54
300.54
300.54
300.54
300.539
300.539
300.539
300.539
300.539
300.539
300.539
300.539
300.539
300.539
300.54
300.54
300.54
300.54
300.54
300.54
300.54
300.54
300.54
300.54
300.54
300.54
300.54
300.54
300.54
300.54
300.539
300.539
300.539
300.539
300.539
300.539
300.54
300.54
300.54
300.54
300.54
300.54
300.54
300.54
300.54
300.54
300.54
300.54
300.54
300.54
300.54
300.54
300.54
300.54
300.54
300.54
300.54
300.54
300.54
300.54
300.54
300.54
300.54
300.54
300.54
300.54
300.54
300.54
300.54
300.54
300.54
300.54
300.54
300.54
300.54
300.54
300.54
300.54
300.54
300.54
300.54
300.54
300.54
300.54
300.54
300.54
300.54
300.54
300.54
300.54
300.54
300.54
300.54
300.54
300.54
300.54
300.54
300.54
300.54
300.54
300.54
300.54
300.54
300.54
300.54
300.54
300.54
300.54
300.54
300.54
300.54
300.54
300.54
300.54
300.54
300.54
300.54
300.54
300.54
300.54
300.54
300.54
300.54
300.54
300.54
300.54
300.54
300.54
300.54
300.54
300.54
300.54
300.54
300.54
300.54
300.54
300.54
300.54
300.54
300.54
300.54
300.54
300.54
300.54
300.54
300.54
298.422
298.44
298.448
298.444
298.429
298.403
299.046
299.079
299.092
299.086
299.059
299.015
302.559
302.585
302.594
302.59
302.569
302.533
301.355
301.361
301.363
301.36
301.353
301.341
302.469
302.485
302.491
302.489
302.477
302.457
302.066
302.072
302.074
302.073
302.068
302.06
302.119
302.126
302.129
302.129
302.124
302.116
301.876
301.88
301.881
301.881
301.879
301.875
301.702
301.704
301.706
301.706
301.705
301.702
301.467
301.469
301.47
301.47
301.469
301.468
301.293
301.294
301.295
301.295
301.294
301.293
301.128
301.129
301.129
301.129
301.129
301.129
300.998
300.999
300.999
300.999
300.999
300.999
300.887
300.887
300.888
300.888
300.888
300.888
300.797
300.798
300.798
300.798
300.798
300.798
300.723
300.723
300.723
300.723
300.723
300.723
300.662
300.662
300.663
300.663
300.663
300.663
300.615
300.615
300.615
300.615
300.615
300.615
300.578
300.578
300.578
300.578
300.579
300.579
300.554
300.554
300.554
300.554
300.554
300.554
300.542
300.541
300.541
300.541
300.542
300.542
300.538
300.538
300.538
300.538
300.539
300.539
300.538
300.538
300.538
300.538
300.538
300.539
300.539
300.539
300.539
300.539
300.539
300.539
300.539
300.539
300.539
300.539
300.539
300.539
300.54
300.54
300.54
300.54
300.54
300.54
300.54
300.54
300.54
300.54
300.54
300.54
300.54
300.54
300.54
300.54
300.54
300.54
300.54
300.54
300.54
300.54
300.54
300.54
300.54
300.54
300.54
300.54
300.54
300.54
298.37
298.333
298.293
298.248
298.2
298.148
298.094
298.04
297.987
297.936
297.891
297.854
297.829
297.815
297.813
297.822
297.839
297.864
297.893
297.924
297.956
297.988
298.967
298.922
298.867
298.804
298.735
298.66
298.58
298.497
298.41
298.321
298.231
298.14
298.054
297.974
297.901
297.838
297.785
297.746
297.722
297.715
297.72
297.74
302.492
302.45
302.393
302.321
302.234
302.13
302.01
301.872
301.715
301.539
301.343
301.129
300.906
300.682
300.465
300.259
300.071
299.905
299.763
299.645
299.549
299.472
301.328
301.311
301.289
301.263
301.231
301.193
301.148
301.095
301.035
300.967
300.891
300.808
300.721
300.636
300.553
300.475
300.403
300.339
300.285
300.238
300.196
300.155
302.433
302.409
302.379
302.342
302.299
302.249
302.193
302.132
302.066
301.998
301.928
301.86
301.795
301.736
301.682
301.633
301.583
301.531
301.473
301.408
301.338
301.265
302.047
302.03
302.01
301.987
301.961
301.932
301.901
301.867
301.83
301.792
301.752
301.71
301.669
301.63
301.591
301.554
301.519
301.484
301.45
301.418
301.387
301.358
302.103
302.087
302.069
302.049
302.027
302.002
301.976
301.948
301.918
301.887
301.854
301.821
301.787
301.754
301.722
301.691
301.66
301.63
301.6
301.571
301.543
301.516
301.865
301.85
301.834
301.817
301.798
301.778
301.756
301.734
301.71
301.685
301.659
301.632
301.604
301.578
301.552
301.526
301.501
301.477
301.454
301.431
301.409
301.387
301.693
301.678
301.663
301.647
301.63
301.612
301.593
301.573
301.552
301.531
301.508
301.484
301.46
301.437
301.414
301.392
301.37
301.349
301.328
301.308
301.288
301.27
301.46
301.447
301.433
301.418
301.403
301.387
301.37
301.353
301.335
301.316
301.296
301.276
301.256
301.236
301.217
301.198
301.18
301.162
301.145
301.128
301.112
301.096
301.287
301.274
301.261
301.248
301.234
301.22
301.205
301.19
301.174
301.158
301.141
301.123
301.106
301.089
301.073
301.057
301.042
301.027
301.013
300.999
300.986
300.974
301.123
301.111
301.099
301.087
301.075
301.062
301.049
301.035
301.021
301.007
300.992
300.977
300.962
300.948
300.934
300.92
300.907
300.895
300.883
300.871
300.86
300.849
300.993
300.983
300.972
300.962
300.951
300.939
300.928
300.916
300.904
300.891
300.879
300.866
300.853
300.841
300.83
300.818
300.808
300.798
300.788
300.779
300.77
300.762
300.883
300.873
300.864
300.854
300.844
300.834
300.824
300.813
300.803
300.792
300.781
300.77
300.759
300.748
300.738
300.729
300.72
300.711
300.703
300.695
300.688
300.681
300.793
300.785
300.776
300.768
300.759
300.75
300.741
300.732
300.723
300.713
300.704
300.695
300.686
300.677
300.669
300.661
300.654
300.647
300.64
300.634
300.628
300.623
300.719
300.712
300.704
300.696
300.688
300.681
300.673
300.665
300.657
300.649
300.642
300.634
300.626
300.619
300.612
300.606
300.6
300.595
300.59
300.585
300.581
300.577
300.659
300.653
300.646
300.64
300.633
300.626
300.62
300.613
300.607
300.601
300.595
300.588
300.583
300.578
300.573
300.569
300.565
300.561
300.558
300.555
300.553
300.55
300.612
300.607
300.601
300.596
300.59
300.585
300.58
300.575
300.571
300.566
300.562
300.558
300.555
300.552
300.549
300.547
300.545
300.543
300.542
300.541
300.54
300.54
300.577
300.572
300.568
300.564
300.561
300.557
300.554
300.551
300.548
300.546
300.544
300.542
300.541
300.54
300.539
300.539
300.539
300.538
300.538
300.538
300.539
300.539
300.553
300.551
300.548
300.546
300.544
300.543
300.542
300.541
300.54
300.54
300.54
300.539
300.54
300.54
300.54
300.54
300.54
300.54
300.541
300.541
300.541
300.542
300.541
300.541
300.54
300.539
300.539
300.539
300.539
300.539
300.539
300.539
300.539
300.54
300.54
300.54
300.54
300.541
300.541
300.541
300.541
300.542
300.542
300.542
300.539
300.539
300.539
300.539
300.539
300.539
300.539
300.54
300.54
300.54
300.54
300.541
300.541
300.541
300.541
300.542
300.542
300.542
300.542
300.542
300.543
300.543
300.539
300.539
300.539
300.539
300.539
300.54
300.54
300.54
300.54
300.541
300.541
300.541
300.541
300.541
300.542
300.542
300.542
300.542
300.542
300.542
300.542
300.542
300.539
300.539
300.54
300.54
300.54
300.54
300.54
300.54
300.541
300.541
300.541
300.541
300.541
300.541
300.542
300.542
300.542
300.542
300.542
300.542
300.542
300.542
300.54
300.54
300.54
300.54
300.54
300.54
300.541
300.541
300.541
300.541
300.541
300.541
300.541
300.541
300.542
300.542
300.542
300.542
300.542
300.542
300.542
300.542
300.54
300.54
300.54
300.54
300.54
300.541
300.541
300.541
300.541
300.541
300.541
300.541
300.541
300.541
300.541
300.542
300.542
300.542
300.542
300.542
300.542
300.542
300.54
300.54
300.54
300.541
300.541
300.541
300.541
300.541
300.541
300.541
300.541
300.541
300.541
300.541
300.541
300.541
300.541
300.541
300.541
300.541
300.541
300.541
300.54
300.54
300.541
300.541
300.541
300.541
300.541
300.541
300.541
300.541
300.541
300.541
300.541
300.541
300.541
300.541
300.541
300.541
300.541
300.541
300.541
300.541
300.54
300.541
300.541
300.541
300.541
300.541
300.541
300.541
300.541
300.541
300.541
300.541
300.541
300.541
300.541
300.541
300.541
300.541
300.541
300.541
300.541
300.541
300.541
300.541
300.541
300.541
300.541
300.541
300.541
300.541
300.541
300.541
300.541
300.541
300.541
300.541
300.541
300.541
300.541
300.541
300.541
300.541
300.541
300.541
298.016
298.04
298.066
298.094
298.123
298.153
298.186
298.221
298.263
298.318
298.387
298.477
298.603
298.819
298.974
299.048
299.074
299.07
299.039
298.978
298.867
298.675
298.378
298.029
297.668
297.318
297.047
296.839
296.68
296.562
296.478
296.426
296.408
296.432
296.523
297.764
297.789
297.829
297.89
297.973
298.08
298.211
298.366
298.542
298.735
298.937
299.145
299.359
299.579
299.791
299.968
300.101
300.192
300.22
300.17
300.045
299.763
299.154
298.068
296.934
296.113
295.596
295.279
295.107
295.063
295.114
295.257
295.501
295.884
296.513
299.415
299.368
299.321
299.271
299.219
299.161
299.092
299.012
298.92
298.826
298.731
298.634
298.527
298.403
298.249
298.056
297.829
297.583
297.382
297.337
297.49
297.923
298.461
298.884
299.206
299.536
299.809
299.988
300.096
300.168
300.23
300.301
300.394
300.53
300.761
300.116
300.078
300.038
299.996
299.959
299.932
299.926
299.951
300.011
300.105
300.228
300.366
300.501
300.611
300.682
300.713
300.723
300.726
300.721
300.669
300.517
300.251
299.958
299.696
299.506
299.373
299.298
299.269
299.265
299.281
299.311
299.355
299.418
299.505
299.725
301.201
301.141
301.072
300.995
300.909
300.815
300.718
300.622
300.531
300.444
300.359
300.275
300.193
300.109
300.024
299.94
299.86
299.785
299.731
299.737
299.88
300.123
300.373
300.595
300.836
301.068
301.276
301.473
301.658
301.829
301.986
302.13
302.264
302.393
302.533
301.335
301.315
301.293
301.268
301.242
301.212
301.179
301.143
301.106
301.068
301.031
300.997
300.966
300.937
300.911
300.888
300.878
300.891
300.94
301.026
301.13
301.221
301.272
301.301
301.371
301.45
301.547
301.657
301.776
301.897
302.015
302.129
302.241
302.357
302.508
301.493
301.474
301.452
301.427
301.398
301.365
301.33
301.291
301.25
301.207
301.162
301.116
301.07
301.024
300.976
300.932
300.895
300.867
300.85
300.846
300.856
300.888
300.952
301.079
301.263
301.481
301.706
301.917
302.09
302.236
302.357
302.456
302.528
302.564
302.543
301.372
301.361
301.348
301.334
301.318
301.3
301.28
301.257
301.231
301.203
301.172
301.139
301.104
301.068
301.034
301.005
300.984
300.972
300.97
300.982
301.007
301.049
301.11
301.167
301.227
301.335
301.457
301.575
301.677
301.766
301.836
301.885
301.904
301.902
301.855
301.257
301.249
301.24
301.229
301.218
301.204
301.189
301.172
301.154
301.132
301.109
301.085
301.059
301.034
301.01
300.991
300.978
300.972
300.973
300.982
300.997
301.019
301.045
301.068
301.085
301.097
301.109
301.12
301.129
301.137
301.142
301.146
301.147
301.147
301.147
301.086
301.081
301.076
301.07
301.063
301.055
301.046
301.036
301.024
301.012
300.997
300.982
300.965
300.948
300.932
300.919
300.909
300.905
300.906
300.912
300.924
300.941
300.963
300.984
301.003
301.02
301.035
301.048
301.059
301.068
301.076
301.084
301.091
301.098
301.108
300.966
300.963
300.959
300.955
300.951
300.946
300.94
300.933
300.926
300.917
300.908
300.898
300.888
300.878
300.87
300.864
300.863
300.866
300.874
300.887
300.904
300.927
300.951
300.975
300.997
301.016
301.031
301.044
301.054
301.061
301.065
301.068
301.068
301.065
301.057
300.843
300.841
300.839
300.836
300.833
300.83
300.826
300.822
300.818
300.813
300.807
300.802
300.796
300.791
300.787
300.785
300.786
300.79
300.797
300.808
300.823
300.842
300.864
300.884
300.903
300.919
300.933
300.943
300.951
300.956
300.958
300.958
300.955
300.951
300.945
300.757
300.756
300.755
300.753
300.752
300.75
300.748
300.746
300.743
300.741
300.738
300.736
300.734
300.732
300.733
300.735
300.739
300.747
300.757
300.77
300.786
300.805
300.825
300.844
300.861
300.876
300.888
300.897
300.904
300.907
300.908
300.907
300.904
300.898
300.887
300.677
300.676
300.675
300.674
300.673
300.673
300.672
300.67
300.669
300.668
300.667
300.667
300.666
300.666
300.668
300.67
300.674
300.679
300.685
300.691
300.699
300.706
300.714
300.722
300.73
300.739
300.747
300.754
300.76
300.764
300.767
300.769
300.771
300.774
300.779
300.62
300.62
300.62
300.62
300.619
300.619
300.619
300.618
300.618
300.618
300.618
300.618
300.619
300.621
300.623
300.625
300.629
300.632
300.635
300.639
300.642
300.645
300.65
300.657
300.669
300.685
300.706
300.727
300.746
300.763
300.776
300.787
300.797
300.806
300.817
300.575
300.575
300.575
300.575
300.575
300.575
300.575
300.575
300.575
300.575
300.576
300.577
300.578
300.579
300.581
300.583
300.585
300.586
300.587
300.587
300.587
300.587
300.59
300.597
300.609
300.628
300.651
300.676
300.7
300.723
300.741
300.757
300.77
300.783
300.797
300.549
300.549
300.549
300.549
300.55
300.55
300.55
300.55
300.55
300.551
300.551
300.552
300.553
300.554
300.556
300.557
300.558
300.559
300.559
300.559
300.559
300.561
300.565
300.573
300.584
300.598
300.612
300.628
300.645
300.662
300.68
300.698
300.715
300.732
300.748
300.539
300.539
300.539
300.539
300.539
300.539
300.54
300.54
300.54
300.54
300.54
300.541
300.542
300.543
300.544
300.546
300.547
300.548
300.549
300.55
300.552
300.553
300.556
300.561
300.566
300.573
300.579
300.585
300.592
300.599
300.606
300.614
300.621
300.628
300.632
300.539
300.539
300.539
300.539
300.538
300.538
300.538
300.538
300.538
300.538
300.538
300.538
300.539
300.539
300.54
300.541
300.542
300.542
300.543
300.544
300.545
300.547
300.549
300.551
300.553
300.555
300.557
300.56
300.562
300.564
300.566
300.567
300.568
300.569
300.568
300.542
300.542
300.542
300.542
300.542
300.542
300.541
300.541
300.541
300.541
300.541
300.541
300.542
300.542
300.543
300.544
300.544
300.545
300.546
300.546
300.546
300.546
300.547
300.548
300.549
300.55
300.551
300.552
300.553
300.554
300.555
300.555
300.556
300.556
300.556
300.542
300.542
300.542
300.542
300.542
300.542
300.542
300.542
300.542
300.542
300.542
300.542
300.542
300.542
300.542
300.542
300.542
300.543
300.543
300.543
300.543
300.543
300.544
300.544
300.545
300.546
300.546
300.547
300.547
300.548
300.548
300.548
300.548
300.548
300.547
300.543
300.543
300.543
300.543
300.543
300.543
300.543
300.543
300.543
300.543
300.543
300.543
300.543
300.543
300.543
300.543
300.543
300.544
300.544
300.544
300.544
300.544
300.544
300.544
300.545
300.545
300.546
300.546
300.546
300.547
300.547
300.547
300.547
300.548
300.548
300.542
300.542
300.542
300.542
300.542
300.542
300.542
300.542
300.542
300.542
300.542
300.542
300.542
300.542
300.542
300.542
300.542
300.542
300.542
300.542
300.542
300.542
300.542
300.543
300.543
300.543
300.543
300.544
300.544
300.544
300.544
300.544
300.544
300.544
300.544
300.542
300.542
300.542
300.542
300.542
300.542
300.542
300.542
300.542
300.542
300.542
300.542
300.542
300.542
300.542
300.542
300.542
300.542
300.542
300.542
300.542
300.542
300.542
300.542
300.543
300.543
300.543
300.543
300.543
300.544
300.544
300.544
300.544
300.544
300.544
300.542
300.542
300.542
300.542
300.542
300.542
300.542
300.542
300.542
300.542
300.542
300.542
300.541
300.541
300.541
300.541
300.541
300.541
300.541
300.541
300.541
300.541
300.541
300.541
300.542
300.542
300.542
300.542
300.542
300.542
300.542
300.542
300.542
300.542
300.542
300.542
300.542
300.542
300.542
300.542
300.542
300.542
300.542
300.541
300.541
300.541
300.541
300.541
300.541
300.541
300.541
300.541
300.541
300.541
300.541
300.541
300.541
300.541
300.541
300.541
300.541
300.541
300.541
300.542
300.542
300.542
300.542
300.542
300.542
300.542
300.541
300.541
300.541
300.541
300.541
300.541
300.541
300.541
300.541
300.541
300.541
300.541
300.541
300.541
300.54
300.54
300.54
300.54
300.54
300.54
300.54
300.54
300.54
300.54
300.54
300.54
300.541
300.541
300.541
300.541
300.541
300.541
300.541
300.541
300.541
300.541
300.541
300.541
300.541
300.541
300.541
300.541
300.541
300.541
300.541
300.541
300.54
300.54
300.54
300.54
300.54
300.54
300.54
300.54
300.54
300.54
300.54
300.54
300.54
300.54
300.54
300.54
300.54
300.54
300.54
300.54
300.54
300.54
300.54
300.54
300.541
300.541
300.541
300.541
300.541
300.541
300.541
300.541
300.54
300.54
300.54
300.54
300.54
300.54
300.54
300.54
300.54
300.54
300.539
300.539
300.539
300.539
300.539
300.539
300.539
300.539
300.539
300.539
300.54
300.54
300.54
300.54
300.54
300.54
300.539
300.541
300.541
300.541
300.541
300.541
300.541
300.54
300.54
300.54
300.54
300.54
300.54
300.54
300.539
300.539
300.539
300.539
300.539
300.539
300.539
300.539
300.539
300.539
300.539
300.539
300.539
300.539
300.539
300.539
300.539
300.539
300.539
300.539
300.539
300.539
300.537
300.537
300.537
300.537
300.537
300.537
300.537
300.537
300.537
300.537
300.537
300.537
300.537
300.537
300.537
300.537
300.537
300.537
300.537
300.537
300.537
300.538
300.538
300.538
300.538
300.538
300.539
300.539
300.539
300.539
300.539
300.539
300.539
300.54
300.54
300.536
300.536
300.536
300.537
300.537
300.537
300.537
300.537
300.537
300.537
300.537
300.537
300.537
300.537
300.537
300.537
300.537
300.537
300.537
300.537
300.537
300.537
300.538
300.538
300.538
300.538
300.539
300.539
300.539
300.539
300.539
300.539
300.539
300.539
300.539
300.536
300.536
300.536
300.536
300.536
300.536
300.536
300.536
300.536
300.536
300.536
300.536
300.536
300.536
300.536
300.537
300.537
300.537
300.537
300.537
300.537
300.537
300.538
300.538
300.538
300.538
300.538
300.539
300.539
300.539
300.539
300.539
300.539
300.539
300.539
300.536
300.536
300.536
300.536
300.536
300.536
300.536
300.536
300.536
300.536
300.536
300.536
300.536
300.536
300.536
300.536
300.536
300.537
300.537
300.537
300.537
300.537
300.537
300.538
300.538
300.538
300.538
300.539
300.539
300.539
300.539
300.539
300.539
300.539
300.539
300.535
300.535
300.536
300.536
300.536