/*--------------------------------*- C++ -*----------------------------------*\
  =========                 |
  \\      /  F ield         | OpenFOAM: The Open Source CFD Toolbox
   \\    /   O peration     | Website:  https://openfoam.org
    \\  /    A nd           | Version:  8
     \\/     M anipulation  |
\*---------------------------------------------------------------------------*/
FoamFile
{
    version     2.0;
    format      ascii;
    class       volScalarField;
    location    "600";
    object      k;
}
// * * * * * * * * * * * * * * * * * * * * * * * * * * * * * * * * * * * * * //

dimensions      [0 2 -2 0 0 0 0];

internalField   nonuniform List<scalar> 
15677
(
0.99154
0.87871
1.19176
0.495982
0.83101
1.13861
0.398763
0.479958
0.693342
1.04267
0.380438
0.386828
0.414435
0.659597
0.977926
0.375731
0.37261
0.358583
0.359293
0.668574
0.936401
0.374332
0.370445
0.355688
0.317529
0.35856
0.691676
0.910983
0.373838
0.370028
0.359203
0.329884
0.296
0.368859
0.717266
0.893021
0.373577
0.369928
0.362049
0.34261
0.309249
0.283175
0.392661
0.732013
0.881301
0.373422
0.36999
0.364006
0.350928
0.326922
0.292394
0.284215
0.423461
0.744679
0.871791
0.37333
0.370043
0.365278
0.356118
0.339391
0.312658
0.282004
0.289387
0.456317
0.747439
0.865265
0.373281
0.370047
0.366076
0.359367
0.347556
0.328242
0.300832
0.275542
0.300413
0.483717
0.750028
0.861397
0.373257
0.370013
0.366542
0.361409
0.352856
0.338967
0.31805
0.291619
0.272406
0.315317
0.50789
0.750999
0.860094
0.373248
0.369972
0.366771
0.36267
0.3563
0.34619
0.330698
0.309272
0.284371
0.272832
0.331806
0.52723
0.751203
0.860707
0.373245
0.369936
0.366848
0.363403
0.35852
0.351032
0.339586
0.323151
0.301654
0.279359
0.274542
0.347485
0.543719
0.751024
0.862881
0.373245
0.369915
0.366848
0.363774
0.3599
0.354253
0.345741
0.333334
0.316288
0.29539
0.275774
0.277951
0.36331
0.555491
0.751018
0.867364
0.373244
0.369905
0.366825
0.363919
0.360692
0.356342
0.349954
0.340619
0.327478
0.310253
0.290181
0.273334
0.282873
0.376823
0.565425
0.750924
0.874217
0.373243
0.3699
0.366805
0.363943
0.36108
0.357623
0.352774
0.345746
0.33573
0.322134
0.304956
0.285934
0.271957
0.287917
0.389378
0.571565
0.751037
0.883136
0.373243
0.369897
0.366792
0.363933
0.36121
0.358327
0.354579
0.349274
0.341686
0.331165
0.317289
0.300393
0.282502
0.271362
0.293538
0.398945
0.576961
0.751034
0.89415
0.373243
0.369894
0.366783
0.363917
0.361236
0.358619
0.355639
0.35161
0.345883
0.337842
0.326942
0.312987
0.296446
0.279795
0.271482
0.298607
0.407304
0.5797
0.751015
0.907248
0.373243
0.369892
0.366778
0.363903
0.361228
0.358718
0.356128
0.353052
0.348737
0.342652
0.334247
0.323115
0.309158
0.293148
0.27765
0.271872
0.303432
0.413211
0.581485
0.751035
0.922395
0.373243
0.36989
0.366774
0.363893
0.361214
0.358738
0.356323
0.35377
0.350559
0.346001
0.339617
0.330944
0.319662
0.305867
0.29032
0.276083
0.272622
0.307427
0.417937
0.581407
0.751103
0.939537
0.373243
0.369889
0.366771
0.363885
0.3612
0.358729
0.356386
0.35409
0.35151
0.348207
0.343431
0.336809
0.327951
0.316641
0.302999
0.288092
0.274826
0.273638
0.310915
0.420557
0.580886
0.75125
0.958576
0.373243
0.369888
0.366769
0.363879
0.361189
0.358713
0.356395
0.354216
0.351961
0.349412
0.345999
0.341054
0.334275
0.325309
0.314014
0.300668
0.286212
0.274103
0.274643
0.313527
0.422497
0.579685
0.751411
0.979402
0.373243
0.369887
0.366767
0.363874
0.361181
0.358698
0.356383
0.354251
0.352159
0.350018
0.347437
0.343982
0.338931
0.332035
0.323036
0.311846
0.298726
0.284911
0.273558
0.275707
0.315582
0.422473
0.577499
0.751645
1.0019
0.373243
0.369887
0.366766
0.36387
0.361174
0.358684
0.356367
0.354246
0.35223
0.350305
0.348183
0.345683
0.342194
0.33706
0.330145
0.321179
0.310125
0.297362
0.283914
0.273534
0.276696
0.317012
0.421985
0.574797
0.75195
1.02591
0.373243
0.369886
0.366765
0.363867
0.361169
0.358672
0.356352
0.354228
0.352242
0.350418
0.348555
0.346605
0.344106
0.34065
0.335564
0.32867
0.319788
0.308892
0.296328
0.283448
0.273699
0.27771
0.31776
0.420858
0.571652
0.752344
1.05131
0.373243
0.369886
0.366764
0.363865
0.361165
0.358663
0.356338
0.354206
0.35223
0.350445
0.34872
0.347082
0.345154
0.342847
0.339506
0.334414
0.327586
0.318818
0.30817
0.296046
0.283534
0.274114
0.278662
0.318195
0.418833
0.568124
0.752816
1.07788
0.373243
0.369886
0.366764
0.363863
0.361162
0.358656
0.356327
0.354186
0.352209
0.350432
0.348776
0.347298
0.345719
0.344108
0.341876
0.338608
0.333755
0.327182
0.318688
0.308242
0.296239
0.283892
0.274853
0.279646
0.318158
0.416292
0.564357
0.753381
1.10553
0.373243
0.369886
0.366763
0.363862
0.361159
0.358651
0.356318
0.354169
0.352187
0.350405
0.348779
0.347371
0.346002
0.344802
0.343218
0.341347
0.338514
0.333848
0.327392
0.319
0.308681
0.296824
0.284659
0.275916
0.280677
0.317991
0.413379
0.56036
0.754019
1.13382
0.373242
0.369886
0.366763
0.363861
0.361157
0.358646
0.35631
0.354156
0.352168
0.350375
0.348757
0.347374
0.346123
0.345133
0.343983
0.34301
0.341482
0.338829
0.334356
0.328089
0.319858
0.309691
0.298015
0.286034
0.277282
0.281815
0.317651
0.410185
0.556286
0.754871
1.16595
0.373242
0.369885
0.366762
0.36386
0.361155
0.358643
0.356304
0.354145
0.352151
0.350348
0.348726
0.347344
0.346153
0.345263
0.344426
0.343987
0.343256
0.342037
0.339701
0.335514
0.329547
0.321557
0.311558
0.299949
0.287905
0.279007
0.283121
0.317203
0.40682
0.552091
0.756077
1.2022
0.373242
0.369885
0.366762
0.363859
0.361153
0.35864
0.356299
0.354136
0.352137
0.350326
0.348696
0.347304
0.346135
0.34529
0.344638
0.344486
0.344313
0.343997
0.343249
0.341439
0.337687
0.331998
0.324164
0.314229
0.30254
0.29034
0.281073
0.284587
0.316758
0.403363
0.547518
0.757812
1.2386
0.373242
0.369885
0.366762
0.363858
0.361152
0.358638
0.356294
0.354129
0.352124
0.350307
0.348668
0.347265
0.346095
0.345264
0.34471
0.344728
0.344899
0.345192
0.345507
0.345479
0.344222
0.340865
0.335428
0.327715
0.317718
0.305869
0.293311
0.283539
0.286314
0.3164
0.399528
0.542263
0.75968
1.27497
0.373242
0.369885
0.366761
0.363858
0.361151
0.358636
0.35629
0.354122
0.352114
0.35029
0.348644
0.34723
0.346052
0.345215
0.344707
0.344819
0.345196
0.345892
0.346936
0.348071
0.34877
0.348128
0.345164
0.339954
0.332252
0.322116
0.309913
0.296883
0.286364
0.28821
0.31623
0.395511
0.537176
0.761884
1.31096
0.369885
0.373246
0.366761
0.363858
0.36115
0.358634
0.356287
0.354117
0.352105
0.350277
0.348623
0.3472
0.346011
0.345164
0.344666
0.344827
0.345322
0.346271
0.34782
0.349763
0.351772
0.353298
0.353304
0.350725
0.345651
0.337882
0.327417
0.314748
0.30102
0.289634
0.290511
0.316331
0.391811
0.532108
0.76409
1.34636
0.366761
0.369896
0.373253
0.363857
0.361149
0.358632
0.356284
0.354113
0.352097
0.350266
0.348605
0.347173
0.345975
0.345116
0.344614
0.344792
0.345354
0.346456
0.348337
0.350852
0.353799
0.35681
0.35924
0.359918
0.357653
0.352638
0.344615
0.333708
0.320332
0.305768
0.293727
0.293402
0.316657
0.388442
0.527354
0.766621
1.38095
0.363857
0.366777
0.369917
0.373261
0.361148
0.358631
0.356281
0.354109
0.35209
0.350256
0.348589
0.347151
0.345943
0.345073
0.344561
0.344742
0.345334
0.34653
0.348625
0.351538
0.355165
0.359267
0.36339
0.366791
0.368107
0.366088
0.360953
0.352556
0.340949
0.326724
0.311687
0.298886
0.296621
0.317325
0.385435
0.522694
0.769083
1.41457
0.361147
0.363879
0.366811
0.369938
0.373268
0.35863
0.356279
0.354106
0.352085
0.350248
0.348576
0.347132
0.345915
0.345036
0.344513
0.344691
0.345296
0.346543
0.348777
0.351968
0.356088
0.361002
0.366402
0.371741
0.376124
0.378044
0.376098
0.370715
0.361669
0.349215
0.334677
0.319111
0.304629
0.300174
0.318348
0.382807
0.518433
0.771494
1.44706
0.358629
0.361174
0.363924
0.366845
0.369961
0.373276
0.356277
0.354103
0.35208
0.350241
0.348564
0.347116
0.345891
0.345004
0.344471
0.344644
0.345253
0.346529
0.348853
0.352244
0.356727
0.362254
0.36863
0.375462
0.382067
0.387449
0.38983
0.387828
0.381905
0.372052
0.359478
0.344625
0.327351
0.31091
0.304043
0.319724
0.38053
0.514551
0.773843
1.47835
0.356276
0.35866
0.361229
0.363969
0.36688
0.369983
0.373284
0.354101
0.352075
0.350235
0.348554
0.347103
0.34587
0.344976
0.344434
0.344603
0.345213
0.346508
0.34889
0.352426
0.357195
0.363196
0.370335
0.378339
0.386692
0.394616
0.400895
0.403641
0.401274
0.394641
0.384928
0.372305
0.355648
0.336329
0.317677
0.308211
0.321343
0.378608
0.511015
0.776183
1.50832
0.354099
0.35631
0.358724
0.361285
0.364017
0.366916
0.370007
0.373293
0.352072
0.35023
0.348545
0.347091
0.345852
0.344952
0.344403
0.344567
0.345177
0.346486
0.348912
0.352556
0.357553
0.363953
0.371712
0.380666
0.390425
0.400382
0.409556
0.416683
0.419485
0.416585
0.410441
0.401022
0.386509
0.367644
0.345965
0.324865
0.312646
0.323273
0.377026
0.507825
0.778458
1.53698
0.352068
0.354136
0.356382
0.35879
0.361343
0.364065
0.366954
0.370031
0.373301
0.350225
0.348537
0.347082
0.345835
0.344932
0.344376
0.344536
0.345147
0.346467
0.348927
0.35266
0.35784
0.364583
0.372897
0.382654
0.393592
0.405234
0.41677
0.427172
0.43485
0.437562
0.435578
0.430189
0.418841
0.401962
0.380503
0.356172
0.332417
0.317305
0.325369
0.375728
0.504922
0.780747
1.56426
0.350221
0.352108
0.354215
0.356456
0.358858
0.361402
0.364115
0.366992
0.370055
0.37331
0.34853
0.347073
0.345821
0.344916
0.344353
0.34451
0.345121
0.346451
0.348942
0.352751
0.358087
0.365119
0.373941
0.384457
0.396427
0.409525
0.423062
0.436199
0.447558
0.455679
0.460034
0.459353
0.452055
0.438216
0.418506
0.394103
0.366861
0.340261
0.322166
0.32773
0.374746
0.502335
0.782956
1.59019
0.348524
0.350262
0.352191
0.354296
0.356532
0.358927
0.361464
0.364166
0.367031
0.370081
0.373319
0.347066
0.345809
0.344902
0.344333
0.344488
0.3451
0.34644
0.348958
0.352835
0.358309
0.365596
0.374865
0.386111
0.399106
0.413524
0.428836
0.444339
0.458816
0.471074
0.481726
0.488327
0.485749
0.475845
0.458947
0.435985
0.408318
0.377931
0.348337
0.327155
0.330163
0.374096
0.500007
0.785184
1.61473
0.34706
0.348564
0.350349
0.352277
0.354379
0.35661
0.358999
0.361527
0.364219
0.367072
0.370106
0.373328
0.345797
0.34489
0.344316
0.344469
0.345082
0.346431
0.348974
0.352914
0.358512
0.36603
0.375703
0.387614
0.401645
0.417435
0.434405
0.452065
0.469289
0.485101
0.500649
0.514752
0.519948
0.514599
0.501355
0.480857
0.454229
0.423009
0.389285
0.356572
0.332289
0.332615
0.373687
0.497955
0.787319
1.63797
0.345788
0.347098
0.34865
0.350438
0.352366
0.354465
0.356691
0.359072
0.361592
0.364273
0.367113
0.370133
0.373338
0.344881
0.344299
0.344453
0.345067
0.346425
0.348992
0.352989
0.358701
0.36643
0.376476
0.388998
0.404004
0.421242
0.440005
0.459748
0.479537
0.498549
0.518406
0.538482
0.551939
0.554714
0.545695
0.528396
0.503739
0.473066
0.43804
0.400823
0.364906
0.33753
0.335089
0.373512
0.496119
0.789465
1.65987
0.344873
0.345817
0.347181
0.348739
0.350531
0.352458
0.354553
0.356774
0.359148
0.361658
0.364328
0.367156
0.37016
0.373347
0.344284
0.344438
0.345055
0.346422
0.349011
0.35306
0.358877
0.366802
0.377191
0.390285
0.406209
0.424841
0.445577
0.467684
0.490014
0.512092
0.535951
0.561481
0.581508
0.593188
0.592425
0.578805
0.556753
0.527408
0.492331
0.453285
0.412455
0.373279
0.342833
0.337578
0.373547
0.49452
0.791512
1.68053
0.34427
0.344898
0.345887
0.347268
0.348831
0.350627
0.352553
0.354644
0.35686
0.359225
0.361727
0.364385
0.367199
0.370187
0.373356
0.344425
0.345044
0.346419
0.349029
0.353127
0.35904
0.367145
0.377853
0.391484
0.408279
0.428242
0.450937
0.47577
0.501087
0.526301
0.554148
0.584986
0.611092
0.629786
0.638393
0.632884
0.61368
0.586178
0.55167
0.511871
0.468623
0.424096
0.381637
0.348153
0.340078
0.373669
0.493085
0.793555
1.69995
0.344415
0.344266
0.344956
0.345958
0.347358
0.348928
0.350725
0.352651
0.354738
0.356948
0.359305
0.361798
0.364443
0.367243
0.370213
0.373365
0.345034
0.346418
0.349046
0.353189
0.359191
0.367463
0.378466
0.392601
0.410219
0.431461
0.456077
0.483682
0.512565
0.54168
0.573791
0.610197
0.642364
0.667624
0.683453
0.687505
0.675893
0.650072
0.616434
0.576336
0.53154
0.48395
0.43567
0.389929
0.353455
0.342576
0.373914
0.491844
0.795498
1.71822
0.345028
0.344394
0.344266
0.345015
0.346036
0.347452
0.349029
0.350827
0.352752
0.354834
0.357039
0.359387
0.361869
0.364501
0.367285
0.370239
0.373374
0.346414
0.349062
0.353246
0.359329
0.367755
0.379032
0.393636
0.412031
0.434498
0.460997
0.491353
0.523944
0.558022
0.595653
0.638304
0.677105
0.709156
0.731804
0.742872
0.740555
0.721286
0.687756
0.647307
0.601229
0.551217
0.499173
0.447112
0.398113
0.358702
0.34506
0.37428
0.490733
0.797415
1.73535
0.346418
0.344976
0.344353
0.344267
0.345079
0.346119
0.347549
0.349134
0.350932
0.352857
0.354933
0.357133
0.359471
0.361941
0.364557
0.367325
0.370263
0.373382
0.349072
0.353297
0.359455
0.368022
0.379551
0.394593
0.413718
0.437355
0.465683
0.49875
0.535132
0.574657
0.619455
0.670548
0.717377
0.757443
0.787428
0.804962
0.808659
0.797678
0.768943
0.726532
0.678602
0.626185
0.570783
0.514211
0.458366
0.406149
0.363872
0.347522
0.374722
0.489776
0.79924
1.75143
0.349091
0.34632
0.344862
0.344308
0.344283
0.345145
0.34621
0.347649
0.349244
0.35104
0.352965
0.355035
0.357228
0.359554
0.36201
0.364612
0.367365
0.370287
0.37339
0.353339
0.359568
0.368266
0.380026
0.395474
0.415281
0.440027
0.470119
0.505845
0.546107
0.591395
0.644025
0.706799
0.765949
0.816757
0.855948
0.880359
0.888826
0.881544
0.859043
0.818766
0.766226
0.71015
0.651065
0.590139
0.528995
0.469384
0.414006
0.368937
0.34995
0.375228
0.488923
0.801016
1.76649
0.35339
0.348914
0.346088
0.344738
0.344268
0.344318
0.345213
0.346306
0.347753
0.349357
0.351152
0.353076
0.355139
0.357323
0.359635
0.362078
0.364665
0.367403
0.370311
0.373398
0.359665
0.368484
0.380459
0.396281
0.416723
0.442517
0.474294
0.512616
0.556818
0.608057
0.668957
0.745967
0.824436
0.893307
0.945316
0.97832
0.991052
0.984826
0.962031
0.924702
0.870623
0.806663
0.741795
0.675746
0.609197
0.543466
0.480127
0.421657
0.373883
0.352336
0.375781
0.488186
0.802713
1.77877
0.35977
0.353121
0.348485
0.345844
0.344629
0.344222
0.344369
0.345283
0.34641
0.34786
0.349475
0.351268
0.35319
0.355243
0.357415
0.359714
0.362143
0.364716
0.367441
0.370334
0.373406
0.368676
0.38085
0.397019
0.418051
0.444826
0.478207
0.519048
0.567192
0.624448
0.694203
0.78845
0.892378
0.990756
1.06526
1.11018
1.12795
1.12083
1.0933
1.05005
0.994459
0.924306
0.847663
0.773396
0.700125
0.627881
0.557577
0.490566
0.429083
0.378689
0.354672
0.37637
0.48753
0.804123
1.78914
0.368871
0.359378
0.352431
0.348037
0.345624
0.344531
0.344179
0.344433
0.345356
0.346519
0.347972
0.349598
0.351386
0.353304
0.355345
0.357505
0.359791
0.362207
0.364767
0.367477
0.370356
0.373414
0.381197
0.397688
0.419268
0.44696
0.48186
0.525126
0.577158
0.640441
0.719916
0.834733
0.969534
1.10548
1.21768
1.28629
1.31192
1.30385
1.26839
1.21314
1.14483
1.06781
0.979503
0.889024
0.804817
0.72411
0.646132
0.571291
0.500676
0.436261
0.38335
0.356952
0.376983
0.487035
0.805335
1.80036
0.381537
0.368323
0.358319
0.351716
0.347627
0.345422
0.344439
0.344142
0.344506
0.345434
0.346634
0.348089
0.349723
0.351505
0.353414
0.355444
0.357592
0.359866
0.362269
0.364815
0.367513
0.370377
0.373421
0.398289
0.420376
0.448928
0.485257
0.530843
0.586667
0.655994
0.746257
0.884596
1.05411
1.23249
1.39082
1.50254
1.55093
1.54492
1.50134
1.4303
1.34209
1.245
1.14398
1.03581
0.930527
0.835928
0.74762
0.663897
0.584578
0.510437
0.44319
0.387847
0.359166
0.377529
0.486629
0.806662
1.81254
0.398861
0.380791
0.366747
0.357227
0.351051
0.347241
0.345233
0.344357
0.344116
0.344586
0.345519
0.346754
0.34821
0.349848
0.351621
0.353522
0.35554
0.357677
0.359938
0.36233
0.364863
0.367547
0.370398
0.373424
0.421383
0.450733
0.488409
0.536198
0.595699
0.671117
0.773233
0.937111
1.14311
1.36593
1.57421
1.73834
1.83404
1.84895
1.80085
1.71407
1.60209
1.47724
1.34882
1.22204
1.09278
0.971946
0.866607
0.77059
0.681136
0.597414
0.519842
0.449846
0.392185
0.361039
0.378019
0.486223
0.808156
1.82574
0.422315
0.397871
0.378497
0.365132
0.356205
0.350419
0.346878
0.345057
0.344284
0.344101
0.344671
0.345612
0.346877
0.348333
0.349969
0.351734
0.353626
0.355634
0.35776
0.360009
0.362388
0.364909
0.36758
0.370408
0.373424
0.452387
0.49132
0.541197
0.604258
0.685827
0.800669
0.991003
1.23349
1.50048
1.75958
1.97989
2.13375
2.19958
2.16981
2.07133
1.93575
1.77927
1.6156
1.45447
1.30096
1.14991
1.01306
0.896749
0.792961
0.697816
0.609785
0.52887
0.456247
0.395815
0.362655
0.378581
0.485803
0.809778
1.84008
0.453889
0.421034
0.394586
0.376163
0.363616
0.355227
0.349814
0.346534
0.344894
0.344224
0.344099
0.34476
0.345713
0.346999
0.348455
0.350088
0.351845
0.353728
0.355725
0.35784
0.360078
0.362445
0.364953
0.367597
0.370408
0.373424
0.494008
0.545848
0.612357
0.700128
0.828277
1.04503
1.3228
1.63227
1.94101
2.21812
2.4345
2.56412
2.58819
2.50443
2.34918
2.16094
1.95794
1.75451
1.56024
1.37975
1.20669
1.05365
0.926268
0.814684
0.713918
0.621673
0.537543
0.461573
0.398931
0.364455
0.379236
0.485394
0.811633
1.85563
0.496407
0.45225
0.416378
0.391272
0.373968
0.362159
0.354284
0.349234
0.346212
0.344744
0.344175
0.344112
0.34485
0.345821
0.347119
0.348576
0.350204
0.351954
0.353827
0.355815
0.357918
0.360145
0.3625
0.364976
0.367597
0.370408
0.373424
0.550181
0.620015
0.714007
0.855726
1.09815
1.40933
1.75885
2.11479
2.44711
2.72677
2.92554
3.01874
2.99078
2.84538
2.62858
2.38527
2.13492
1.89178
1.66471
1.45754
1.26268
1.09349
0.955069
0.835748
0.729424
0.633088
0.544743
0.466138
0.402376
0.366461
0.37999
0.48498
0.813634
1.87254
0.554005
0.494322
0.445701
0.411726
0.38815
0.371852
0.360749
0.353376
0.348678
0.345913
0.344608
0.344136
0.34415
0.344937
0.345932
0.347235
0.348694
0.350316
0.35206
0.353924
0.355901
0.357994
0.36021
0.362528
0.364976
0.367597
0.370408
0.373424
0.627275
0.727445
0.882712
1.14959
1.49201
1.87884
2.27888
2.66336
3.00435
3.2734
3.44254
3.48854
3.39973
3.1866
2.90497
2.60541
2.30783
2.0257
1.76672
1.53364
1.31748
1.13241
0.983078
0.856129
0.744344
0.642599
0.550917
0.471175
0.406193
0.368708
0.380872
0.484592
0.815952
1.89087
0.633692
0.551339
0.485126
0.439227
0.40734
0.385134
0.3698
0.359386
0.352502
0.348145
0.345637
0.344483
0.344095
0.344211
0.345022
0.346044
0.347349
0.348811
0.350426
0.352164
0.354017
0.355986
0.358068
0.360242
0.362528
0.364976
0.367597
0.370408
0.373424
0.740439
0.908989
1.19883
1.57021
1.99153
2.43232
2.86511
3.26362
3.60068
3.84759
3.97632
3.96559
3.80858
3.52319
3.17485
2.8189
2.47494
2.15507
1.86544
1.60748
1.37078
1.17025
1.01024
0.875839
0.756891
0.650752
0.557732
0.476745
0.410432
0.371224
0.381891
0.484218
0.818448
1.91082
0.751967
0.63031
0.53829
0.476146
0.433112
0.403095
0.382205
0.367812
0.35807
0.351663
0.347638
0.345381
0.344373
0.344055
0.344284
0.345107
0.346157
0.347461
0.348925
0.350534
0.352265
0.354109
0.356068
0.358104
0.360242
0.362528
0.364976
0.367597
0.370408
0.373421
0.934373
1.24553
1.64361
2.09666
2.57482
3.05171
3.5028
3.90313
4.22537
4.43984
4.51851
4.44284
4.21181
3.85122
3.43555
3.02398
2.63505
2.27904
1.96027
1.67866
1.42236
1.20692
1.03656
0.892447
0.767649
0.659756
0.56527
0.482916
0.415147
0.374061
0.38309
0.483893
0.821365
1.93247
0.747815
0.956715
0.610977
0.525822
0.467651
0.427192
0.398969
0.379362
0.365888
0.356803
0.350859
0.347161
0.34515
0.344279
0.344025
0.344364
0.345192
0.34627
0.347572
0.349037
0.350638
0.352363
0.354198
0.356108
0.358104
0.360242
0.362528
0.364976
0.367597
0.370398
0.373413
1.28951
1.71212
2.19423
2.70645
3.22317
3.72144
4.17877
4.57059
4.86851
5.04137
5.06144
4.91398
4.60481
4.16762
3.68516
3.21947
2.78742
2.39712
2.05084
1.74694
1.47207
1.24239
1.05874
0.90669
0.779528
0.669728
0.573622
0.489765
0.420407
0.377256
0.384482
0.483613
0.824521
1.95601
0.717491
0.952526
1.32742
0.593076
0.514052
0.459415
0.421433
0.394959
0.376606
0.364031
0.355586
0.350096
0.34672
0.344948
0.344201
0.344009
0.344447
0.345279
0.34638
0.34768
0.349147
0.35074
0.352459
0.354241
0.356108
0.358104
0.360242
0.362528
0.364976
0.36758
0.370377
0.373406
1.77578
2.28444
2.82752
3.37996
3.91995
4.42727
4.88079
5.25548
5.52084
5.64391
5.59801
5.3735
4.98374
4.47005
3.92238
3.40468
2.93165
2.50903
2.13696
1.81218
1.51986
1.27216
1.07773
0.922417
0.792669
0.680788
0.582894
0.497385
0.426287
0.380883
0.386129
0.483418
0.828223
1.98156
0.689722
0.904468
1.3234
1.83008
0.576444
0.502637
0.451406
0.415834
0.39107
0.373943
0.362244
0.354423
0.349379
0.346326
0.344774
0.34414
0.344006
0.344531
0.345368
0.346489
0.347787
0.349253
0.350841
0.352506
0.354241
0.356108
0.358104
0.360242
0.362528
0.364953
0.367546
0.370355
0.373398
2.36755
2.93857
3.52281
4.09926
4.64953
5.15579
5.59755
5.94807
6.17372
6.23975
6.12179
5.81665
5.34559
4.75685
4.1464
3.57923
3.06758
2.61471
2.2186
1.87435
1.55966
1.29758
1.09868
0.939814
0.807235
0.693078
0.593211
0.505884
0.432881
0.384995
0.388054
0.483442
0.832286
2.00933
0.664284
0.859132
1.25399
1.82724
2.4378
0.560489
0.491523
0.44362
0.4104
0.387307
0.371376
0.360531
0.353325
0.348728
0.34598
0.344625
0.344094
0.344015
0.344613
0.345459
0.346596
0.347893
0.349358
0.350889
0.352506
0.354241
0.356108
0.358104
0.360242
0.3625
0.364908
0.367512
0.370333
0.37339
3.04017
3.65267
4.2607
4.84721
5.3971
5.89464
6.31878
6.63947
6.81905
6.82171
6.62707
6.23952
5.6881
5.02696
4.35683
3.74305
3.19527
2.71423
2.2958
1.92567
1.59348
1.32552
1.12181
0.959087
0.823409
0.70676
0.604717
0.515387
0.440295
0.389704
0.390257
0.48358
0.837045
2.03945
0.640395
0.816704
1.18583
1.73906
2.43714
3.12535
0.545057
0.480711
0.436068
0.405141
0.383678
0.368912
0.358908
0.35232
0.348149
0.345679
0.344499
0.344062
0.344039
0.344693
0.345552
0.3467
0.347998
0.34941
0.350888
0.352506
0.354241
0.356108
0.358104
0.36021
0.362444
0.364861
0.367476
0.37031
0.373382
3.77054
4.40582
5.02239
5.60732
6.14903
6.63284
7.03538
7.3215
7.44927
7.38326
7.10893
6.63905
6.00976
5.27982
4.55358
3.89629
3.31491
2.80776
2.35903
1.96905
1.63046
1.35626
1.14739
0.980471
0.841406
0.722025
0.617582
0.526044
0.448661
0.395114
0.392811
0.483926
0.842363
2.07213
0.617783
0.776656
1.11932
1.6507
2.33285
3.12743
3.86824
0.530101
0.470222
0.428765
0.400068
0.380193
0.366574
0.357417
0.351418
0.347631
0.345417
0.344391
0.344038
0.344082
0.344771
0.345647
0.346804
0.348048
0.349408
0.350888
0.352506
0.354241
0.356108
0.358067
0.360144
0.362387
0.364814
0.36744
0.370287
0.373374
4.53618
5.17753
5.78965
6.36456
6.89342
7.36104
7.73934
7.98664
8.05733
7.91853
7.56337
7.01308
6.3097
5.51529
4.73687
4.03924
3.42678
2.88391
2.41227
2.01622
1.67091
1.39008
1.17568
1.00423
0.861482
0.739094
0.632005
0.538034
0.458132
0.401384
0.39577
0.484609
0.84857
2.1075
0.596305
0.738942
1.05409
1.56246
2.22733
3.00918
3.87245
4.64227
0.515619
0.460082
0.421727
0.395195
0.376884
0.364421
0.356075
0.350608
0.347168
0.345193
0.3443
0.34401
0.344138
0.344847
0.345746
0.346854
0.348045
0.349408
0.350888
0.352506
0.354241
0.356067
0.357993
0.360076
0.362328
0.364765
0.367402
0.370263
0.373365
5.31494
5.94768
6.54586
7.10584
7.62046
8.07148
8.42356
8.62786
8.63673
8.42254
7.9874
7.36027
6.58761
5.73359
4.9071
4.17231
3.51743
2.94783
2.46992
2.06751
1.71513
1.4273
1.20699
1.03065
0.883917
0.758221
0.648223
0.55157
0.4689
0.408642
0.399272
0.485668
0.855664
2.15279
0.575872
0.703626
0.990351
1.47379
2.12081
2.88928
3.7417
4.64649
5.42362
0.501631
0.450321
0.414974
0.390568
0.373836
0.36248
0.354866
0.349882
0.346753
0.345
0.344225
0.343986
0.344201
0.34493
0.345793
0.346849
0.348045
0.349408
0.350888
0.352506
0.354197
0.355984
0.357916
0.360007
0.362267
0.364714
0.367364
0.370238
0.373356
6.08472
6.69806
7.27656
7.82067
8.3226
8.75766
9.08155
9.23848
9.18161
8.89129
8.37898
7.68001
6.8437
5.93523
5.06478
4.27965
3.59335
3.01686
2.53234
2.12324
1.76346
1.46825
1.24167
1.06008
0.909021
0.7797
0.666512
0.566904
0.481194
0.417131
0.403394
0.487244
0.865444
2.20727
0.556417
0.670768
0.928544
1.38464
2.01264
2.76772
3.60961
4.50381
5.42422
6.18948
0.488165
0.440971
0.408567
0.386308
0.371086
0.36073
0.353778
0.34923
0.346388
0.344835
0.344162
0.343974
0.344277
0.344963
0.345787
0.346848
0.348045
0.349408
0.350889
0.352458
0.354107
0.355899
0.357837
0.359936
0.362205
0.364663
0.367324
0.370213
0.373347
6.82578
7.41265
7.97032
8.50156
8.99387
9.41403
9.70718
9.81215
9.68697
9.32185
8.73708
7.97245
7.07857
6.12087
5.19133
4.36938
3.67519
3.09137
2.59987
2.18376
1.81624
1.51328
1.28006
1.09285
0.937143
0.803869
0.687192
0.58435
0.495302
0.427051
0.408382
0.489764
0.878513
2.26279
0.537891
0.640378
0.869266
1.29525
1.90243
2.64377
3.47583
4.36097
5.2689
6.18195
6.9187
0.475259
0.432122
0.402672
0.382467
0.368605
0.359152
0.3528
0.348647
0.346067
0.344693
0.344113
0.343987
0.344312
0.344948
0.345788
0.346848
0.348045
0.349409
0.35084
0.352361
0.354015
0.355811
0.357757
0.359863
0.362141
0.36461
0.367284
0.370187
0.373338
7.52047
8.07888
8.61963
9.14283
9.62962
10.036
10.294
10.3432
10.1487
9.71251
9.06166
8.23829
7.29308
6.2689
5.29686
4.4659
3.76332
3.17173
2.67285
2.2494
1.87381
1.56275
1.32255
1.12937
0.96867
0.831109
0.710647
0.604257
0.511564
0.438789
0.415493
0.494031
0.893184
2.31908
0.520259
0.612377
0.813201
1.20614
1.79008
2.51674
3.33964
4.21718
5.11571
6.01146
6.8972
7.59232
0.463045
0.424004
0.397361
0.379003
0.366367
0.35773
0.35192
0.348128
0.345785
0.344572
0.344095
0.34398
0.344302
0.344946
0.345788
0.346848
0.348048
0.349357
0.350738
0.352262
0.35392
0.355722
0.357674
0.359788
0.362076
0.364556
0.367242
0.37016
0.373328
8.15486
8.68955
9.21449
9.73191
10.2172
10.6149
10.8371
10.826
10.5641
10.0628
9.35348
8.47862
7.46264
6.39189
5.41011
4.56963
3.85813
3.25829
2.75163
2.3205
1.93652
1.61703
1.36951
1.17004
1.00402
0.861852
0.73729
0.627091
0.530436
0.455207
0.425701
0.499473
0.910031
2.37574
0.503619
0.586613
0.761025
1.11805
1.6757
2.38613
3.20006
4.07182
4.96327
5.84696
6.70784
7.54948
8.19564
0.451849
0.41671
0.392577
0.37588
0.36435
0.356449
0.351131
0.347663
0.345539
0.344498
0.34407
0.34395
0.344306
0.344946
0.345787
0.346853
0.347996
0.349251
0.350635
0.35216
0.353823
0.35563
0.357589
0.359712
0.362009
0.3645
0.367199
0.370133
0.373319
8.71949
9.23261
9.7536
10.2746
10.7566
11.1415
11.3281
11.2565
10.9321
10.3735
9.61385
8.66645
7.60279
6.52338
5.53144
4.68093
3.95998
3.35141
2.83654
2.39738
2.00469
1.67647
1.42133
1.21531
1.04364
0.89655
0.767655
0.653321
0.556404
0.477882
0.43826
0.506907
0.928843
2.43244
0.488361
0.563022
0.713307
1.03195
1.55959
2.25162
3.05619
3.92367
4.81112
5.68613
6.52982
7.33699
8.11934
8.72179
0.441813
0.410156
0.388269
0.373067
0.362532
0.355298
0.350421
0.347253
0.345364
0.34444
0.344035
0.34395
0.344305
0.344947
0.345792
0.346803
0.34789
0.349143
0.350529
0.352056
0.353724
0.355536
0.357502
0.359633
0.36194
0.364443
0.367156
0.370106
0.37331
9.21078
9.71016
10.2376
10.7733
11.2523
11.6137
11.762
11.6324
11.2529
10.646
9.81433
8.82051
7.75171
6.66359
5.66116
4.80013
4.06921
3.45139
2.92789
2.48034
2.07863
1.74139
1.47837
1.26556
1.08797
0.935733
0.802188
0.689098
0.591306
0.504623
0.453879
0.516013
0.950505
2.48867
0.474656
0.541865
0.670695
0.949056
1.44227
2.11307
2.90723
3.77148
4.65784
5.5286
6.35969
7.14225
7.88052
8.58945
9.15371
0.432831
0.404268
0.384392
0.370533
0.360895
0.354258
0.349789
0.346943
0.345246
0.344392
0.344037
0.34395
0.344301
0.344962
0.345744
0.346697
0.347783
0.349033
0.350422
0.35195
0.353622
0.35544
0.357413
0.359553
0.361869
0.364385
0.367112
0.37008
0.373301
9.61658
10.1152
10.6623
11.2221
11.701
12.0276
12.1344
11.9537
11.5282
10.8517
9.97703
8.98278
7.90935
6.81265
5.79948
4.9275
4.18609
3.55853
3.02594
2.56962
2.1586
1.81208
1.54097
1.32117
1.13747
0.979789
0.848791
0.736184
0.631141
0.536123
0.47334
0.528256
0.974728
2.5441
0.462367
0.523078
0.634044
0.871412
1.32463
1.97053
2.75248
3.61397
4.5019
5.37277
6.19713
6.96096
7.66563
8.3227
8.95478
9.48324
0.424796
0.398978
0.380905
0.368252
0.359416
0.353329
0.349296
0.346749
0.345178
0.344397
0.344036
0.343949
0.344311
0.344928
0.345644
0.346591
0.347675
0.34892
0.350311
0.351841
0.353518
0.355342
0.357321
0.35947
0.361797
0.364327
0.367071
0.370055
0.373292
9.93308
10.4461
11.0283
11.6176
12.094
12.3768
12.4423
12.222
11.7302
11.0161
10.1463
9.15274
8.07547
6.97051
5.9465
5.06322
4.31084
3.67303
3.13089
2.66543
2.24478
1.88875
1.60939
1.38247
1.19243
1.03847
0.908761
0.788488
0.676295
0.57305
0.497689
0.54316
1.00267
2.59815
0.451376
0.50626
0.603235
0.802332
1.20878
1.82432
2.59136
3.44984
4.3416
5.21688
6.04025
6.79275
7.47079
8.08476
8.65305
9.20689
9.70567
0.417609
0.394227
0.377769
0.366192
0.358092
0.35259
0.348998
0.34666
0.345184
0.344396
0.344033
0.343977
0.344275
0.344844
0.345548
0.346484
0.347566
0.348805
0.350199
0.35173
0.353411
0.355241
0.357227
0.359387
0.361726
0.364272
0.36703
0.37003
0.373284
10.156
10.7031
11.3355
11.9569
12.4218
12.6566
12.6837
12.4107
11.8881
11.184
10.3208
9.32956
8.24955
7.13693
6.10219
5.20734
4.44357
3.79501
3.24286
2.76787
2.33729
1.97154
1.68383
1.44961
1.26456
1.11224
0.973623
0.845863
0.726873
0.615888
0.527932
0.563093
1.03424
2.65051
0.441568
0.491139
0.57712
0.743275
1.09943
1.6761
2.42344
3.27777
4.17508
5.05891
5.88711
6.63527
7.2956
7.87406
8.38826
8.86381
9.33525
9.81176
0.411182
0.389962
0.374942
0.364346
0.357023
0.352153
0.348879
0.34667
0.345183
0.344391
0.344068
0.343984
0.344197
0.344766
0.345454
0.346375
0.347456
0.348689
0.350083
0.351617
0.353301
0.355138
0.357132
0.359304
0.361657
0.364217
0.36699
0.370006
0.373276
10.2822
10.8872
11.5856
12.2278
12.6781
12.8654
12.8369
12.5527
12.0448
11.3533
10.499
9.512
8.43077
7.31144
6.26628
5.35975
4.58424
3.92449
3.36186
2.87693
2.43612
2.06046
1.76429
1.53643
1.35317
1.19002
1.04271
0.90784
0.782655
0.664772
0.565074
0.58735
1.07146
2.70071
0.432834
0.477537
0.554682
0.693726
0.999995
1.53095
2.24981
3.09647
4.00027
4.89654
5.73547
6.4864
7.13714
7.69034
8.15965
8.56797
8.94808
9.32812
9.7919
0.405431
0.386125
0.372409
0.362841
0.356401
0.351998
0.348896
0.346669
0.345175
0.344437
0.344091
0.34397
0.344133
0.344688
0.345361
0.346263
0.347343
0.34857
0.349965
0.351502
0.353189
0.355034
0.357037
0.359223
0.361589
0.364165
0.366952
0.369983
0.373268
10.3083
11.0054
11.7585
12.4306
12.8524
12.9857
12.9406
12.6861
12.1973
11.5213
10.6787
9.6984
8.61793