/*--------------------------------*- C++ -*----------------------------------*\
  =========                 |
  \\      /  F ield         | OpenFOAM: The Open Source CFD Toolbox
   \\    /   O peration     | Website:  https://openfoam.org
    \\  /    A nd           | Version:  8
     \\/     M anipulation  |
\*---------------------------------------------------------------------------*/
FoamFile
{
    version     2.0;
    format      ascii;
    class       volVectorField;
    location    "0.26";
    object      U;
}
// * * * * * * * * * * * * * * * * * * * * * * * * * * * * * * * * * * * * * //

dimensions      [0 1 -1 0 0 0 0];

internalField   nonuniform List<vector> 
15677
(
(-0.0199314 9.66506 0)
(0.0435758 9.92084 0)
(0.00238371 9.37798 0)
(0.0147397 9.97646 0)
(0.0186172 9.78773 0)
(0.00702272 9.1422 0)
(0.0279649 9.99433 0)
(0.0171159 9.92478 0)
(0.0107402 9.65483 0)
(0.00608798 8.95976 0)
(0.026113 10.0015 0)
(0.021515 9.97852 0)
(0.0164076 9.85329 0)
(0.00902964 9.53003 0)
(0.00491514 8.81627 0)
(0.0249601 10.0047 0)
(0.0223918 10.0026 0)
(0.019202 9.94279 0)
(0.0153907 9.77901 0)
(0.00789724 9.41897 0)
(0.00404618 8.70151 0)
(0.0239843 10.0062 0)
(0.0225719 10.0142 0)
(0.0208205 9.98599 0)
(0.018311 9.90211 0)
(0.0139256 9.70742 0)
(0.0068273 9.32066 0)
(0.00337893 8.60895 0)
(0.0226439 10.0067 0)
(0.0224155 10.0199 0)
(0.0216558 10.008 0)
(0.0202219 9.96471 0)
(0.0170863 9.86141 0)
(0.0124995 9.64006 0)
(0.00588102 9.23518 0)
(0.00282 8.53462 0)
(0.0209597 10.0067 0)
(0.0218805 10.0223 0)
(0.0219905 10.0194 0)
(0.0213256 9.99785 0)
(0.0191413 9.94329 0)
(0.0157072 9.82167 0)
(0.0111395 9.57854 0)
(0.00500577 9.16258 0)
(0.00230526 8.47578 0)
(0.0190439 10.0063 0)
(0.0210485 10.0226 0)
(0.0218971 10.0254 0)
(0.0218397 10.016 0)
(0.0203317 9.98778 0)
(0.0177879 9.92224 0)
(0.0142432 9.7844 0)
(0.00975245 9.52429 0)
(0.00414416 9.10265 0)
(0.00179652 8.43094 0)
(0.0169729 10.0057 0)
(0.0199972 10.0218 0)
(0.0214577 10.0283 0)
(0.0218861 10.026 0)
(0.0209002 10.0127 0)
(0.0189596 9.97809 0)
(0.0162512 9.90273 0)
(0.0126261 9.75109 0)
(0.00827544 9.4783 0)
(0.0032511 9.05519 0)
(0.00126495 8.39913 0)
(0.0147609 10.0051 0)
(0.0187083 10.0203 0)
(0.0207151 10.0291 0)
(0.0215863 10.0314 0)
(0.0209733 10.027 0)
(0.0194481 10.0099 0)
(0.0173038 9.96979 0)
(0.0144484 9.886 0)
(0.010792 9.72292 0)
(0.00665959 9.44134 0)
(0.00228602 9.02012 0)
(0.000688272 8.38005 0)
(0.0124488 10.0044 0)
(0.0172939 10.0183 0)
(0.0196754 10.0284 0)
(0.020944 10.0339 0)
(0.0206103 10.035 0)
(0.0194044 10.0284 0)
(0.0176134 10.0084 0)
(0.0152688 9.96391 0)
(0.0122993 9.87305 0)
(0.00868146 9.70095 0)
(0.00485451 9.41417 0)
(0.00121541 8.99752 0)
(1.41104e-05 8.3735 0)
(0.0101737 10.0036 0)
(0.0158088 10.016 0)
(0.0183862 10.0267 0)
(0.0199844 10.0343 0)
(0.0199239 10.0392 0)
(0.0189126 10.0392 0)
(0.01734 10.0311 0)
(0.0152817 10.0092 0)
(0.0127592 9.96137 0)
(0.00972817 9.86488 0)
(0.00623061 9.68623 0)
(0.00281363 9.39743 0)
(2.87902e-05 8.98754 0)
(-0.000621399 8.37945 0)
(0.00822032 10.0029 0)
(0.0142175 10.0136 0)
(0.0168945 10.0243 0)
(0.0187202 10.0333 0)
(0.0188976 10.0407 0)
(0.0180338 10.0451 0)
(0.016576 10.0445 0)
(0.014648 10.036 0)
(0.0123384 10.0131 0)
(0.00967889 9.96302 0)
(0.00665271 9.86247 0)
(0.00337728 9.67974 0)
(0.000490717 9.39176 0)
(-0.00132703 8.99049 0)
(-0.00139073 8.39802 0)
(0.00668437 10.0022 0)
(0.0126836 10.0113 0)
(0.0152326 10.0215 0)
(0.017164 10.0312 0)
(0.0175392 10.0404 0)
(0.0167794 10.0478 0)
(0.0153674 10.0522 0)
(0.0134611 10.052 0)
(0.0111935 10.0439 0)
(0.00866601 10.021 0)
(0.00592182 9.96979 0)
(0.00299129 9.86682 0)
(3.85424e-05 9.68244 0)
(-0.00215774 9.39779 0)
(-0.00287057 9.00654 0)
(-0.00226503 8.42948 0)
(0.00552854 10.0017 0)
(0.011283 10.0093 0)
(0.0136035 10.0188 0)
(0.0153435 10.0283 0)
(0.0158541 10.0386 0)
(0.015156 10.0482 0)
(0.0137319 10.056 0)
(0.0117643 10.0613 0)
(0.00941528 10.0624 0)
(0.00683527 10.0556 0)
(0.00413383 10.0337 0)
(0.00139112 9.98258 0)
(-0.00132024 9.87894 0)
(-0.00375455 9.69517 0)
(-0.00513941 9.41606 0)
(-0.00459752 9.03595 0)
(-0.00323732 8.47392 0)
(0.0045649 10.0014 0)
(0.00991735 10.0076 0)
(0.0121203 10.0163 0)
(0.0135001 10.0254 0)
(0.0138567 10.0358 0)
(0.0131672 10.0469 0)
(0.0116736 10.0572 0)
(0.00957248 10.0662 0)
(0.00704321 10.0732 0)
(0.00427152 10.0764 0)
(0.00141884 10.0718 0)
(-0.00138516 10.052 0)
(-0.00403346 10.0023 0)
(-0.00638218 9.89972 0)
(-0.00811413 9.71874 0)
(-0.00849851 9.44699 0)
(-0.00651724 9.07879 0)
(-0.00430397 8.53137 0)
(0.00378248 10.0011 0)
(0.00869393 10.0063 0)
(0.010719 10.0142 0)
(0.0117962 10.0227 0)
(0.0117975 10.0326 0)
(0.0108232 10.0442 0)
(0.00919339 10.0562 0)
(0.00688666 10.068 0)
(0.00408672 10.0791 0)
(0.00100675 10.0886 0)
(-0.00215625 10.0948 0)
(-0.005229 10.0935 0)
(-0.00803645 10.0768 0)
(-0.0104359 10.0299 0)
(-0.0122363 9.93004 0)
(-0.0130709 9.75376 0)
(-0.0122512 9.49088 0)
(-0.00863671 9.13517 0)
(-0.00546313 8.60169 0)
(0.00314511 10.0009 0)
(0.00759248 10.0053 0)
(0.00943491 10.0123 0)
(0.0101952 10.0202 0)
(0.0098682 10.0295 0)
(0.00840814 10.0407 0)
(0.00630061 10.0535 0)
(0.00370564 10.0673 0)
(0.000542233 10.0813 0)
(-0.00295737 10.0953 0)
(-0.00656911 10.1083 0)
(-0.0100733 10.1184 0)
(-0.0132571 10.1214 0)
(-0.0159226 10.1089 0)
(-0.0178854 10.0661 0)
(-0.0189192 9.9706 0)
(-0.0186318 9.80075 0)
(-0.0163946 9.54787 0)
(-0.0109441 9.20486 0)
(-0.00670385 8.68456 0)
(0.00262107 10.0008 0)
(0.00659887 10.0044 0)
(0.00825387 10.0107 0)
(0.00871144 10.0179 0)
(0.00804483 10.0266 0)
(0.00614764 10.0373 0)
(0.00334024 10.0499 0)
(4.02042e-05 10.0645 0)
(-0.00359043 10.0808 0)
(-0.00762939 10.0979 0)
(-0.0118226 10.1156 0)
(-0.0159167 10.133 0)
(-0.0196595 10.148 0)
(-0.0228094 10.1563 0)
(-0.0251389 10.1492 0)
(-0.0264363 10.1117 0)
(-0.0264494 10.022 0)
(-0.0247904 9.85996 0)
(-0.020915 9.61793 0)
(-0.0134321 9.28768 0)
(-0.00801865 8.77954 0)
(0.00220478 10.0006 0)
(0.00570715 10.0037 0)
(0.00717109 10.0093 0)
(0.00734749 10.0159 0)
(0.00634716 10.0239 0)
(0.00401816 10.0338 0)
(0.000584404 10.0459 0)
(-0.00367654 10.0605 0)
(-0.00829672 10.0778 0)
(-0.013012 10.0973 0)
(-0.0179365 10.1185 0)
(-0.0227826 10.1408 0)
(-0.0272611 10.1636 0)
(-0.0310916 10.1845 0)
(-0.0340048 10.199 0)
(-0.0357555 10.1983 0)
(-0.0361137 10.1673 0)
(-0.0348213 10.0846 0)
(-0.0315246 9.93154 0)
(-0.0257835 9.70085 0)
(-0.0160698 9.383 0)
(-0.00938599 8.88581 0)
(0.00188559 10.0005 0)
(0.00494984 10.0032 0)
(0.0061848 10.0082 0)
(0.00610576 10.0141 0)
(0.00478825 10.0214 0)
(0.00204628 10.0306 0)
(-0.00199453 10.0419 0)
(-0.00711438 10.056 0)
(-0.0130308 10.0732 0)
(-0.0190865 10.094 0)
(-0.0249175 10.1177 0)
(-0.0307006 10.1437 0)
(-0.0361057 10.1717 0)
(-0.0408118 10.2007 0)
(-0.0445137 10.2284 0)
(-0.0469293 10.2501 0)
(-0.0478046 10.2568 0)
(-0.0469101 10.2332 0)
(-0.0440043 10.1587 0)
(-0.0387898 10.0153 0)
(-0.030957 9.79617 0)
(-0.0188369 9.49025 0)
(-0.0107881 9.00265 0)
(0.00163828 10.0005 0)
(0.00434323 10.0028 0)
(0.00532866 10.0072 0)
(0.00498593 10.0125 0)
(0.00337618 10.0191 0)
(0.000250464 10.0274 0)
(-0.00436185 10.038 0)
(-0.0103138 10.0512 0)
(-0.0173837 10.0679 0)
(-0.0251532 10.0886 0)
(-0.0327412 10.1136 0)
(-0.0396818 10.1424 0)
(-0.0462374 10.1743 0)
(-0.0520395 10.2089 0)
(-0.0567423 10.2451 0)
(-0.0600321 10.2805 0)
(-0.0616257 10.3102 0)
(-0.06128 10.3251 0)
(-0.0587842 10.3098 0)
(-0.0539353 10.2442 0)
(-0.0465215 10.111 0)
(-0.0363818 9.90327 0)
(-0.0216755 9.6084 0)
(-0.0121857 9.12845 0)
(0.00144317 10.0004 0)
(0.0038492 10.0024 0)
(0.00461585 10.0064 0)
(0.00402776 10.0111 0)
(0.00211481 10.017 0)
(-0.00135594 10.0245 0)
(-0.006494 10.0341 0)
(-0.0132288 10.0464 0)
(-0.0214106 10.0622 0)
(-0.0307018 10.0823 0)
(-0.0405114 10.1072 0)
(-0.0496953 10.1375 0)
(-0.0576743 10.1724 0)
(-0.0648391 10.2111 0)
(-0.0707931 10.2532 0)
(-0.0751838 10.2975 0)
(-0.0777032 10.3413 0)
(-0.0780895 10.3797 0)
(-0.0761295 10.4034 0)
(-0.0716561 10.397 0)
(-0.0645283 10.3408 0)
(-0.0546335 10.218 0)
(-0.0419462 10.0213 0)
(-0.0244754 9.73615 0)
(-0.0131396 9.26151 0)
(0.00128701 10.0004 0)
(0.00344766 10.0022 0)
(0.00403205 10.0057 0)
(0.00324948 10.0099 0)
(0.00105337 10.0151 0)
(-0.00276565 10.0217 0)
(-0.00837245 10.0303 0)
(-0.0158259 10.0415 0)
(-0.0250545 10.0562 0)
(-0.0358091 10.0753 0)
(-0.0475894 10.0995 0)
(-0.0596003 10.1296 0)
(-0.0703798 10.1662 0)
(-0.0792404 10.2083 0)
(-0.0867572 10.2548 0)
(-0.0925266 10.3052 0)
(-0.0962079 10.3583 0)
(-0.097525 10.4113 0)
(-0.0962613 10.4589 0)
(-0.0922607 10.4918 0)
(-0.0854139 10.4948 0)
(-0.0756605 10.4481 0)
(-0.0629841 10.3356 0)
(-0.0475999 10.149 0)
(-0.0272509 9.87324 0)
(-0.0142034 9.4018 0)
(0.00116048 10.0003 0)
(0.00311828 10.002 0)
(0.00355037 10.0052 0)
(0.00262334 10.009 0)
(0.000212495 10.0135 0)
(-0.00392351 10.0192 0)
(-0.00998565 10.0267 0)
(-0.0180802 10.0368 0)
(-0.0282711 10.0502 0)
(-0.0404047 10.0679 0)
(-0.0540802 10.091 0)
(-0.0685979 10.1203 0)
(-0.0829151 10.1566 0)
(-0.0952026 10.2005 0)
(-0.10468 10.2507 0)
(-0.112184 10.3059 0)
(-0.117332 10.3656 0)
(-0.119823 10.4281 0)
(-0.119439 10.4907 0)
(-0.116036 10.5479 0)
(-0.109531 10.5903 0)
(-0.0999006 10.6026 0)
(-0.0871571 10.5655 0)
(-0.0714209 10.4626 0)
(-0.0524525 10.2856 0)
(-0.0236281 10.0131 0)
(-0.00921875 9.4867 0)
(0.00105681 10.0003 0)
(0.00284625 10.0018 0)
(0.00315393 10.0047 0)
(0.00211745 10.0081 0)
(-0.000444922 10.0121 0)
(-0.004812 10.017 0)
(-0.0112698 10.0234 0)
(-0.0199749 10.0321 0)
(-0.0310271 10.0441 0)
(-0.044432 10.0603 0)
(-0.0598972 10.0818 0)
(-0.0768292 10.1098 0)
(-0.0942835 10.1453 0)
(-0.110926 10.1888 0)
(-0.124517 10.241 0)
(-0.134228 10.3004 0)
(-0.141247 10.3652 0)
(-0.145235 10.4346 0)
(-0.145965 10.5071 0)
(-0.143313 10.5796 0)
(-0.137236 10.6465 0)
(-0.127751 10.6983 0)
(-0.114899 10.7199 0)
(-0.0988048 10.692 0)
(-0.0793622 10.5983 0)
(-0.0571342 10.4282 0)
(-0.0192816 10.1839 0)
(-0.0014156 9.55186 0)
(0.00097099 10.0003 0)
(0.00262021 10.0016 0)
(0.002822 10.0044 0)
(0.00170752 10.0075 0)
(-0.000957374 10.0109 0)
(-0.00547961 10.0151 0)
(-0.0122145 10.0204 0)
(-0.0214343 10.0277 0)
(-0.0332985 10.038 0)
(-0.0478463 10.0526 0)
(-0.0649679 10.0723 0)
(-0.0841873 10.0985 0)
(-0.10467 10.1324 0)
(-0.125176 10.1749 0)
(-0.14405 10.2268 0)
(-0.15862 10.2885 0)
(-0.168052 10.3579 0)
(-0.173976 10.433 0)
(-0.176154 10.5128 0)
(-0.174479 10.5955 0)
(-0.168948 10.6779 0)
(-0.159639 10.7544 0)
(-0.14666 10.8155 0)
(-0.130148 10.846 0)
(-0.110069 10.8267 0)
(-0.086331 10.7413 0)
(-0.0608862 10.5844 0)
(-0.0212105 10.3563 0)
(0.00263904 9.6086 0)
(0.000899262 10.0002 0)
(0.00243142 10.0015 0)
(0.00254361 10.0041 0)
(0.00137799 10.0069 0)
(-0.00135585 10.0099 0)
(-0.00597411 10.0134 0)
(-0.0128852 10.0179 0)
(-0.0224575 10.0238 0)
(-0.0349945 10.0323 0)
(-0.050615 10.0448 0)
(-0.0692339 10.0625 0)
(-0.0905805 10.0865 0)
(-0.113945 10.1183 0)
(-0.138195 10.1592 0)
(-0.16176 10.21 0)
(-0.182646 10.2713 0)
(-0.19771 10.3433 0)
(-0.206189 10.4236 0)
(-0.210295 10.5096 0)
(-0.209933 10.6001 0)
(-0.205148 10.6931 0)
(-0.196089 10.7854 0)
(-0.182954 10.8713 0)
(-0.165957 10.9411 0)
(-0.145149 10.9799 0)
(-0.12041 10.969 0)
(-0.0918746 10.8924 0)
(-0.0623003 10.7535 0)
(-0.0245497 10.5257 0)
(0.00355793 9.66497 0)
(0.000838794 10.0002 0)
(0.002273 10.0014 0)
(0.00231148 10.0038 0)
(0.00111071 10.0063 0)
(-0.00166377 10.009 0)
(-0.00633402 10.012 0)
(-0.0133438 10.0156 0)
(-0.0231327 10.0204 0)
(-0.036126 10.0272 0)
(-0.0526268 10.0373 0)
(-0.0726509 10.0525 0)
(-0.0959328 10.0741 0)
(-0.121991 10.1035 0)
(-0.14982 10.142 0)
(-0.17795 10.1909 0)
(-0.204448 10.2511 0)
(-0.226953 10.3228 0)
(-0.241866 10.4062 0)
(-0.248587 10.4981 0)
(-0.250044 10.5953 0)
(-0.246334 10.6966 0)
(-0.237688 10.7999 0)
(-0.22441 10.9017 0)
(-0.206838 10.9964 0)
(-0.185184 11.0745 0)
(-0.159473 11.1213 0)
(-0.13002 11.1183 0)
(-0.0970227 11.0517 0)
(-0.0640733 10.93 0)
(-0.0272848 10.6907 0)
(0.00317652 9.73807 0)
(0.000787419 10.0002 0)
(0.00213945 10.0013 0)
(0.00211678 10.0035 0)
(0.000892211 10.0059 0)
(-0.00190096 10.0083 0)
(-0.00658994 10.0108 0)
(-0.0136402 10.0137 0)
(-0.0235418 10.0174 0)
(-0.0368112 10.0227 0)
(-0.0539075 10.0307 0)
(-0.0750809 10.0429 0)
(-0.100185 10.0615 0)
(-0.128711 10.088 0)
(-0.159907 10.1236 0)
(-0.192424 10.1699 0)
(-0.224413 10.2281 0)
(-0.253538 10.2988 0)
(-0.277102 10.3819 0)
(-0.291057 10.4775 0)
(-0.295085 10.5814 0)
(-0.292966 10.6901 0)
(-0.285032 10.8022 0)
(-0.271728 10.9154 0)
(-0.253528 11.0263 0)
(-0.230853 11.1292 0)
(-0.203958 11.215 0)
(-0.173275 11.2693 0)
(-0.139581 11.274 0)
(-0.102989 11.2182 0)
(-0.0666843 11.1087 0)
(-0.030122 10.8703 0)
(0.00208976 9.82209 0)
(0.000743454 10.0002 0)
(0.00202633 10.0013 0)
(0.00195324 10.0033 0)
(0.000713497 10.0055 0)
(-0.00208302 10.0076 0)
(-0.00676619 10.0097 0)
(-0.013814 10.012 0)
(-0.0237507 10.0148 0)
(-0.0371585 10.0187 0)
(-0.054614 10.0247 0)
(-0.0765669 10.0343 0)
(-0.103163 10.0493 0)
(-0.134026 10.0721 0)
(-0.16833 10.1044 0)
(-0.205003 10.1474 0)
(-0.242299 10.2028 0)
(-0.277941 10.2714 0)
(-0.309211 10.3536 0)
(-0.333097 10.4491 0)
(-0.345128 10.5574 0)
(-0.3454 10.6738 0)
(-0.338694 10.794 0)
(-0.325619 10.9165 0)
(-0.306848 11.0391 0)
(-0.283008 11.1584 0)
(-0.25463 11.269 0)
(-0.222305 11.362 0)
(-0.186916 11.4232 0)
(-0.149451 11.435 0)
(-0.109733 11.3888 0)
(-0.0705517 11.3081 0)
(-0.0331163 11.0646 0)
(0.000393959 9.91518 0)
(0.000705627 10.0002 0)
(0.00192995 10.0012 0)
(0.00181619 10.0032 0)
(0.000566336 10.0052 0)
(-0.00222206 10.007 0)
(-0.00688195 10.0088 0)
(-0.0138963 10.0105 0)
(-0.023811 10.0125 0)
(-0.0372546 10.0152 0)
(-0.0548887 10.0194 0)
(-0.0773147 10.0265 0)
(-0.10493 10.0381 0)
(-0.137716 10.0566 0)
(-0.174986 10.0845 0)
(-0.215526 10.1238 0)
(-0.257886 10.1755 0)
(-0.299871 10.2411 0)
(-0.338777 10.3213 0)
(-0.371517 10.4161 0)
(-0.394797 10.5247 0)
(-0.403782 10.6462 0)
(-0.399137 10.7751 0)
(-0.386783 10.9066 0)
(-0.367635 11.0391 0)
(-0.342597 11.1706 0)
(-0.312474 11.2976 0)
(-0.27809 11.4152 0)
(-0.240434 11.5146 0)
(-0.200639 11.5818 0)
(-0.159538 11.5993 0)
(-0.117498 11.582 0)
(-0.0753302 11.5267 0)
(-0.0362681 11.2541 0)
(-0.00149875 10.0154 0)
(0.000673269 10.0002 0)
(0.0018472 10.0012 0)
(0.00169972 10.003 0)
(0.000444781 10.0049 0)
(-0.0023276 10.0065 0)
(-0.00695218 10.0079 0)
(-0.0139113 10.0092 0)
(-0.0237636 10.0104 0)
(-0.0371675 10.012 0)
(-0.0548452 10.0148 0)
(-0.0775096 10.0196 0)
(-0.105751 10.0282 0)
(-0.139864 10.0425 0)
(-0.179594 10.0651 0)
(-0.223858 10.0993 0)
(-0.270971 10.1468 0)
(-0.319054 10.2084 0)
(-0.365449 10.2854 0)
(-0.407022 10.3783 0)
(-0.440343 10.4867 0)
(-0.461911 10.609 0)
(-0.466605 10.744 0)
(-0.455813 10.8853 0)
(-0.436728 11.0276 0)
(-0.410594 11.1696 0)
(-0.378571 11.3091 0)
(-0.341751 11.4432 0)
(-0.301317 11.5668 0)
(-0.258516 11.6716 0)
(-0.214413 11.7431 0)
(-0.17063 11.7853 0)
(-0.125959 11.796 0)
(-0.0804298 11.741 0)
(-0.039335 11.4386 0)
(-0.00332121 10.1204 0)
(0.00177542 10.0011 0)
(0.000634468 10.0002 0)
(0.00159937 10.0029 0)
(0.000344889 10.0046 0)
(-0.00240695 10.0061 0)
(-0.00698842 10.0072 0)
(-0.013878 10.008 0)
(-0.0236398 10.0086 0)
(-0.0369507 10.0093 0)
(-0.0545729 10.0106 0)
(-0.0772995 10.0135 0)
(-0.105866 10.0193 0)
(-0.140808 10.0297 0)
(-0.182256 10.0474 0)
(-0.229641 10.0753 0)
(-0.281381 10.1168 0)
(-0.335241 10.1738 0)
(-0.388893 10.2467 0)
(-0.439196 10.3364 0)
(-0.482607 10.4431 0)
(-0.515417 10.5656 0)
(-0.534013 10.702 0)
(-0.533074 10.8505 0)
(-0.514871 11.004 0)
(-0.487995 11.1566 0)
(-0.454044 11.3071 0)
(-0.414495 11.4539 0)
(-0.370792 11.594 0)
(-0.324364 11.7228 0)
(-0.276478 11.8312 0)
(-0.229552 11.9252 0)
(-0.182495 11.9919 0)
(-0.134146 12.0076 0)
(-0.0855087 11.9496 0)
(-0.0421841 11.6173 0)
(-0.00506357 10.228 0)
(0.00151232 10.0028 0)
(0.00169234 10.0011 0)
(0.000587773 10.0001 0)
(0.000261465 10.0044 0)
(-0.00246598 10.0057 0)
(-0.00699932 10.0066 0)
(-0.0138108 10.007 0)
(-0.0234641 10.0071 0)
(-0.0366451 10.0069 0)
(-0.0541414 10.007 0)
(-0.0768011 10.0081 0)
(-0.105465 10.0114 0)
(-0.140854 10.0184 0)
(-0.183397 10.0314 0)
(-0.232991 10.0532 0)
(-0.288655 10.0874 0)
(-0.348204 10.1376 0)
(-0.4088 10.2054 0)
(-0.467637 10.2909 0)
(-0.521102 10.3945 0)
(-0.565295 10.5158 0)
(-0.596317 10.6532 0)
(-0.610554 10.8039 0)
(-0.602579 10.9657 0)
(-0.575715 11.1307 0)
(-0.540063 11.2928 0)
(-0.497609 11.4511 0)
(-0.450192 11.6041 0)
(-0.399522 11.7493 0)
(-0.347089 11.8814 0)
(-0.296119 12.0114 0)
(-0.245633 12.1272 0)
(-0.193794 12.1968 0)
(-0.141875 12.2147 0)
(-0.0903309 12.1513 0)
(-0.0447485 11.7898 0)
(-0.00668668 10.3366 0)
(0.00018839 10.0042 0)
(0.00142163 10.0026 0)
(0.00158953 10.001 0)
(0.000543346 10.0001 4.23497e-20)
(-0.00251044 10.0053 0)
(-0.00699176 10.006 0)
(-0.0137203 10.0061 0)
(-0.0232547 10.0057 0)
(-0.0362824 10.0048 0)
(-0.0536044 10.0038 0)
(-0.0761048 10.0033 0)
(-0.104698 10.0043 0)
(-0.140243 10.0083 0)
(-0.183401 10.017 0)
(-0.234436 10.0332 0)
(-0.29292 10.0602 0)
(-0.357361 10.1019 0)
(-0.424882 10.1622 0)
(-0.491966 10.2423 0)
(-0.555347 10.3417 0)
(-0.610978 10.4603 0)
(-0.654683 10.597 0)
(-0.682479 10.7495 0)
(-0.690876 10.9144 0)
(-0.674454 11.0891 0)
(-0.63774 11.2649 0)
(-0.592452 11.4357 0)
(-0.540982 11.6007 0)
(-0.485464 11.7588 0)
(-0.427735 11.9073 0)
(-0.371819 12.0605 0)
(-0.31689 12.2111 0)
(-0.260768 12.3276 0)
(-0.204369 12.3981 0)
(-0.148995 12.4155 0)
(-0.0947767 12.3452 0)
(-0.046999 11.9556 0)
(-0.00815813 10.4444 0)
(-0.0025497 10.005 0)
(0.000129029 10.0039 0)
(0.00131869 10.0025 1.92729e-19)
(0.00149065 10.0009 -1.34268e-19)
(0.000501116 10.0001 -8.31234e-20)
(-0.00697231 10.0055 0)
(-0.0136145 10.0054 0)
(-0.0230251 10.0044 0)
(-0.0358863 10.0029 0)
(-0.0530029 10.0009 0)
(-0.0752805 9.99909 0)
(-0.103684 9.99812 0)
(-0.13917 9.99924 0)
(-0.182575 10.0042 0)
(-0.234452 10.0153 0)
(-0.294818 10.0356 0)
(-0.36283 10.0688 0)
(-0.436394 10.1193 0)
(-0.511819 10.1911 0)
(-0.584882 10.285 0)
(-0.651901 10.3995 0)
(-0.70846 10.534 0)
(-0.75021 10.6867 0)
(-0.773215 10.8545 0)
(-0.774246 11.0334 0)
(-0.747999 11.2203 0)
(-0.700357 11.406 0)
(-0.64473 11.5842 0)
(-0.583849 11.7548 0)
(-0.520037 11.9164 0)
(-0.458346 12.0858 0)
(-0.397927 12.2592 0)
(-0.33633 12.4092 0)
(-0.27481 12.5244 0)
(-0.214075 12.5939 0)
(-0.155431 12.6092 0)
(-0.0987874 12.5309 0)
(-0.0489404 12.1143 0)
(-0.0094666 10.5502 0)
(-0.00695573 10.0051 0)
(-0.0025438 10.0047 -4.35405e-19)
(7.90475e-05 10.0036 -2.03663e-19)
(0.00122138 10.0023 9.45866e-20)
(0.00139501 10.0009 -8.78289e-20)
(0.000461108 10.0001 0)
(-0.0135007 10.0047 0)
(-0.0227845 10.0034 0)
(-0.0354736 10.0012 0)
(-0.0523677 9.99844 0)
(-0.0743813 9.99535 0)
(-0.102511 9.99261 0)
(-0.137783 9.99125 0)
(-0.181161 9.99275 0)
(-0.233421 9.9992 0)
(-0.294933 10.0134 0)
(-0.365384 10.0387 0)
(-0.443434 10.0794 0)
(-0.526253 10.1402 0)
(-0.609255 10.2251 0)
(-0.687511 10.3341 0)
(-0.756992 10.465 0)
(-0.813011 10.6162 0)
(-0.851172 10.7852 0)
(-0.867733 10.9681 0)
(-0.85987 11.1604 0)
(-0.822503 11.3586 0)
(-0.762997 11.5531 0)
(-0.696459 11.7376 0)
(-0.62586 11.912 0)
(-0.557492 12.0946 0)
(-0.490639 12.2841 0)
(-0.422326 12.4564 0)
(-0.354294 12.6039 0)
(-0.287617 12.7162 0)
(-0.222832 12.7831 0)
(-0.161158 12.7948 0)
(-0.102342 12.7079 0)
(-0.0505951 12.2656 0)
(-0.0106129 10.653 0)
(-0.0134017 10.0041 0)
(-0.00684681 10.0046 9.20154e-19)
(-0.00248261 10.0043 0)
(3.42829e-05 10.0033 1.99842e-19)
(0.00113086 10.0021 3.30911e-23)
(0.00130319 10.0008 0)
(0.000423328 10.0001 0)
(-0.022541 10.0024 0)
(-0.0350553 9.99977 0)
(-0.0517203 9.99622 0)
(-0.0734471 9.99204 0)
(-0.101249 9.98773 0)
(-0.136198 9.98416 0)
(-0.17935 9.98259 0)
(-0.231648 9.98487 0)
(-0.293736 9.99346 0)
(-0.365731 10.0116 0)
(-0.446916 10.0431 0)
(-0.535317 10.0927 0)
(-0.62728 10.1652 0)
(-0.717253 10.2647 0)
(-0.799623 10.3903 0)
(-0.87013 10.5384 0)
(-0.923936 10.7069 0)
(-0.956751 10.8923 0)
(-0.965175 11.09 0)
(-0.946927 11.2949 0)
(-0.897255 11.5033 0)
(-0.825099 11.7052 0)
(-0.747193 11.8943 0)
(-0.671366 12.0902 0)
(-0.597019 12.293 0)
(-0.520805 12.4812 0)
(-0.444844 12.6503 0)
(-0.370655 12.7937 0)
(-0.29913 12.9018 0)
(-0.230614 12.965 0)
(-0.166186 12.9721 0)
(-0.105447 12.8761 0)
(-0.0519916 12.4094 0)
(-0.0116041 10.7521 0)
(-0.0223289 10.0016 0)
(-0.0131428 10.0034 1.23899e-22)
(-0.0066065 10.004 0)
(-0.00241701 10.0038 -2.11161e-19)
(-1.43057e-06 10.0031 1.87339e-23)
(0.00104679 10.002 0)
(0.00121523 10.0007 0)
(0.000387773 10.0001 0)
(-0.0346405 9.99848 0)
(-0.0510739 9.99426 0)
(-0.0725054 9.98911 0)
(-0.0999485 9.98341 0)
(-0.134503 9.97787 0)
(-0.177289 9.97357 0)
(-0.229372 9.9721 0)
(-0.291605 9.97566 0)
(-0.364445 9.98715 0)
(-0.447685 10.0102 0)
(-0.540076 10.0493 0)
(-0.63892 10.1092 0)
(-0.739645 10.1951 0)
(-0.83568 10.3107 0)
(-0.920795 10.4541 0)
(-0.990645 10.6203 0)
(-1.0404 10.8064 0)
(-1.06603 11.0079 0)
(-1.06464 11.2198 0)
(-1.03459 11.4362 0)
(-0.971566 11.6536 0)
(-0.886091 11.8612 0)
(-0.802178 12.0724 0)
(-0.719419 12.2888 0)
(-0.633964 12.4904 0)
(-0.548641 12.6752 0)
(-0.46536 12.8396 0)
(-0.385358 12.9774 0)
(-0.30935 13.0804 0)
(-0.237448 13.1389 0)
(-0.170547 13.1406 0)
(-0.108125 13.0354 0)
(-0.0531575 12.5454 0)
(-0.012451 10.8468 0)
(-0.0342796 9.99733 0)
(-0.0218627 10.0006 -5.13726e-19)
(-0.0126365 10.0025 0)
(-0.00636499 10.0034 0)
(-0.00233839 10.0034 6.21705e-19)
(-2.80902e-05 10.0028 0)
(0.000969115 10.0018 0)
(0.00113125 10.0007 1.66046e-19)
(0.000354536 10.0001 0)
(-0.0504385 9.99253 0)
(-0.0715721 9.98652 0)
(-0.0986453 9.97959 0)
(-0.132764 9.97231 0)
(-0.17509 9.96557 0)
(-0.226776 9.96076 0)
(-0.288836 9.95979 0)
(-0.361987 9.96529 0)
(-0.446435 9.98061 0)
(-0.54153 10.0099 0)
(-0.645399 10.0578 0)
(-0.754522 10.1297 0)
(-0.86333 10.2305 0)
(-0.964205 10.3637 0)
(-1.05041 10.526 0)
(-1.11771 10.7109 0)
(-1.16145 10.9146 0)
(-1.17803 11.1319 0)
(-1.16519 11.3569 0)
(-1.12207 11.5837 0)
(-1.04475 11.8082 0)
(-0.952293 12.0389 0)
(-0.860299 12.2714 0)
(-0.764367 12.4869 0)
(-0.668071 12.6852 0)
(-0.574012 12.8648 0)
(-0.483819 13.0229 0)
(-0.398423 13.1544 0)
(-0.31832 13.2513 0)
(-0.243383 13.3044 0)
(-0.174286 13.3003 0)
(-0.110411 13.1857 0)
(-0.0541205 12.6737 0)
(-0.0131665 10.9371 0)
(-0.0498869 9.991 0)
(-0.0335351 9.99607 0)
(-0.0209805 9.99955 -5.07988e-19)
(-0.012134 10.0018 -4.71675e-19)
(-0.00610535 10.0028 -8.75949e-19)
(-0.00224648 10.003 0)
(-4.57025e-05 10.0025 -3.77788e-19)
(0.00089793 10.0017 -3.50896e-19)
(0.0010512 10.0006 1.62959e-19)
(0.000323604 10.0001 0)
(-0.0706589 9.98423 0)
(-0.0973589 9.97621 0)
(-0.131026 9.96738 0)
(-0.172836 9.95848 0)
(-0.224002 9.95068 0)
(-0.285658 9.94567 0)
(-0.358723 9.94577 0)
(-0.443725 9.95402 0)
(-0.540505 9.97425 0)
(-0.647886 10.011 0)
(-0.763268 10.0694 0)
(-0.882221 10.1549 0)
(-0.998111 10.2722 0)
(-1.1023 10.4244 0)
(-1.18769 10.6064 0)
(-1.25038 10.8104 0)
(-1.28606 11.0314 0)
(-1.29173 11.2636 0)
(-1.26591 11.5007 0)
(-1.20854 11.7362 0)
(-1.12445 11.9849 0)
(-1.02244 12.2381 0)
(-0.914733 12.4703 0)
(-0.805893 12.6826 0)
(-0.699183 12.8756 0)
(-0.596865 13.0487 0)
(-0.50024 13.1997 0)
(-0.409911 13.3241 0)
(-0.326113 13.4144 0)
(-0.248483 13.4615 0)
(-0.177454 13.4511 0)
(-0.112341 13.3273 0)
(-0.0549074 12.7945 0)
(-0.0137636 11.0225 0)
(-0.0698685 9.9822 0)
(-0.0487774 9.98933 -5.74665e-19)
(-0.0321383 9.99468 5.36696e-19)
(-0.0201125 9.99852 -2.74139e-22)
(-0.011609 10.001 4.62771e-19)
(-0.00582548 10.0023 4.29854e-19)
(-0.00214033 10.0026 7.98379e-19)
(-5.40114e-05 10.0023 5.56129e-19)
(0.000833074 10.0015 -1.72194e-19)
(0.000975096 10.0005 0)
(0.000294839 10.0001 0)
(-0.0961028 9.97321 0)
(-0.129312 9.96301 0)
(-0.170585 9.95219 0)
(-0.221158 9.94174 0)
(-0.282249 9.93311 0)
(-0.354934 9.92836 0)
(-0.439996 9.93023 0)
(-0.537669 9.94223 0)
(-0.647349 9.96863 0)
(-0.767231 10.0144 0)
(-0.893894 10.0849 0)
(-1.02191 10.1856 0)
(-1.14356 10.3211 0)
(-1.24924 10.4933 0)
(-1.3317 10.6957 0)
(-1.38758 10.9187 0)
(-1.41312 11.1566 0)
(-1.40609 11.4028 0)
(-1.36585 11.6503 0)
(-1.30306 11.9114 0)
(-1.20921 12.1841 0)
(-1.08835 12.4379 0)
(-0.965125 12.6672 0)
(-0.843805 12.8743 0)
(-0.727238 13.0606 0)
(-0.617229 13.2261 0)
(-0.514702 13.3693 0)
(-0.419915 13.4859 0)
(-0.332817 13.5692 0)
(-0.252822 13.61 0)
(-0.180106 13.5932 0)
(-0.113953 13.4603 0)
(-0.0555421 12.9079 0)
(-0.0142552 11.1032 0)
(-0.0950196 9.97056 0)
(-0.0682893 9.98004 -8.62476e-22)
(-0.0466935 9.98755 0)
(-0.0307732 9.99334 -4.39638e-22)
(-0.0192143 9.99753 0)
(-0.0110545 10.0003 -4.5417e-19)
(-0.00552607 10.0018 -8.43675e-19)
(-0.0020204 10.0023 2.18182e-23)
(-5.31782e-05 10.0021 3.63849e-19)
(0.000774534 10.0014 -1.68988e-19)
(0.000903001 10.0005 1.5697e-19)
(0.000268234 10.0001 0)
(-0.127641 9.95914 0)
(-0.168366 9.94661 0)
(-0.218314 9.9338 0)
(-0.278743 9.92195 0)
(-0.350843 9.91287 0)
(-0.435597 9.90899 0)
(-0.533554 9.91352 0)
(-0.644581 9.93042 0)
(-0.767536 9.96443 0)
(-0.899886 10.0208 0)
(-1.03729 10.1052 0)
(-1.17328 10.2228 0)
(-1.29906 10.3777 0)
(-1.40414 10.571 0)
(-1.48137 10.7941 0)
(-1.52818 11.0359 0)
(-1.54155 11.2898 0)
(-1.52009 11.5484 0)
(-1.47556 11.8231 0)
(-1.40399 12.11 0)
(-1.28915 12.3849 0)
(-1.14956 12.6365 0)
(-1.01126 12.8607 0)
(-0.878043 13.0609 0)
(-0.752267 13.2393 0)
(-0.635196 13.3965 0)
(-0.527319 13.5312 0)
(-0.428546 13.6398 0)
(-0.338529 13.7157 0)
(-0.256475 13.75 0)
(-0.1823 13.7267 0)
(-0.115285 13.5851 0)
(-0.0560454 13.0142 0)
(-0.0146553 11.179 0)
(-0.126206 9.9557 0)
(-0.0928451 9.96777 6.42046e-19)
(-0.0653058 9.97776 -6.00906e-19)
(-0.0446684 9.98584 5.56879e-19)
(-0.0293699 9.99206 0)
(-0.0182757 9.99658 0)
(-0.0104712 9.99957 4.45727e-19)
(-0.0052063 10.0013 -4.13935e-19)
(-0.00188781 10.0019 2.75601e-23)
(-4.24226e-05 10.0018 1.78572e-19)
(0.000722115 10.0013 -1.6587e-19)
(0.000834707 10.0004 -1.54053e-19)
(0.000243875 10 0)
(-0.166202 9.94166 0)
(-0.215508 9.92676 0)
(-0.275229 9.91204 0)
(-0.346614 9.89908 0)
(-0.430799 9.89005 0)
(-0.528584 9.88784 0)
(-0.640218 9.8961 0)
(-0.765112 9.91927 0)
(-0.901488 9.96246 0)
(-1.04598 10.0312 0)
(-1.19327 10.1312 0)
(-1.33582 10.2672 0)
(-1.46381 10.4429 0)
(-1.56599 10.6579 0)
(-1.63554 10.9017 0)
(-1.67101 11.1617 0)
(-1.67019 11.4302 0)
(-1.64586 11.7178 0)
(-1.59329 12.0203 0)
(-1.49959 12.3113 0)
(-1.36364 12.5853 0)
(-1.20578 12.8322 0)
(-1.05306 13.0494 0)
(-0.908668 13.2414 0)
(-0.774382 13.411 0)
(-0.6509 13.5592 0)
(-0.538227 13.6852 0)
(-0.435924 13.7855 0)
(-0.343352 13.854 0)
(-0.259519 13.8817 0)
(-0.184092 13.852 0)
(-0.116373 13.7019 0)
(-0.0564383 13.1136 0)
(-0.0149774 11.2502 0)
(-0.164353 9.93728 0)
(-0.123289 9.95216 0)
(-0.0887043 9.9649 6.34667e-19)
(-0.06242 9.97559 -1.17975e-18)
(-0.0425949 9.9842 1.09457e-18)
(-0.0279111 9.99084 -1.01575e-18)
(-0.0172967 9.99567 0)
(-0.00986013 9.99891 4.37613e-19)
(-0.00486767 10.0008 -4.06241e-19)
(-0.00174226 10.0016 -3.77387e-19)
(-2.21242e-05 10.0016 0)
(0.000675898 10.0011 1.62792e-19)
(0.000770513 10.0004 0)
(0.000222161 10 0)
(-0.212771 9.9205 0)
(-0.271754 9.90323 0)
(-0.342361 9.88682 0)
(-0.425806 9.87319 0)
(-0.523088 9.86491 0)
(-0.634766 9.86534 0)
(-0.760709 9.87859 0)
(-0.899777 9.90954 0)
(-1.04945 9.96363 0)
(-1.20545 10.0466 0)
(-1.36144 10.1638 0)
(-1.50883 10.3198 0)
(-1.63684 10.5171 0)
(-1.73363 10.7542 0)
(-1.79303 11.0186 0)
(-1.81486 11.2955 0)
(-1.81291 11.5949 0)
(-1.78158 11.9125 0)
(-1.70541 12.2215 0)
(-1.58911 12.5134 0)
(-1.43229 12.7836 0)
(-1.25685 13.0236 0)
(-1.09056 13.2323 0)
(-0.935814 13.4151 0)
(-0.793745 13.5752 0)
(-0.664502 13.7142 0)
(-0.547575 13.8312 0)
(-0.442173 13.9232 0)
(-0.347385 13.9842 0)
(-0.26203 14.0054 0)
(-0.185535 13.9692 0)
(-0.117248 13.8111 0)
(-0.0567389 13.2065 0)
(-0.0152328 11.3169 0)
(-0.210444 9.91496 0)
(-0.160525 9.93279 0)
(-0.117685 9.94854 0)
(-0.0847186 9.96216 1.24598e-18)
(-0.059476 9.97352 -1.15619e-18)
(-0.0404483 9.98266 1.073e-18)
(-0.0263981 9.98969 0)
(-0.0162797 9.99482 -4.62329e-19)
(-0.00922206 9.99828 0)
(-0.00451163 10.0003 3.98728e-19)
(-0.00158243 10.0013 0)
(6.28002e-06 10.0014 0)
(0.000636846 10.001 0)
(0.000712008 10.0004 1.58252e-19)
(0.000203087 10 7.72897e-20)
(-0.268363 9.89541 0)
(-0.338142 9.87592 0)
(-0.420758 9.85817 0)
(-0.517317 9.84446 0)
(-0.628624 9.83782 0)
(-0.754929 9.84206 0)
(-0.895628 9.86176 0)
(-1.04892 9.90217 0)
(-1.21147 9.96897 0)
(-1.37803 10.0679 0)
(-1.54123 10.2041 0)
(-1.69145 10.3813 0)
(-1.81708 10.601 0)
(-1.90589 10.8604 0)
(-1.95258 11.1442 0)
(-1.97543 11.4541 0)
(-1.9679 11.786 0)
(-1.91165 12.1129 0)
(-1.81104 12.4249 0)
(-1.67207 12.7145 0)
(-1.4949 12.9784 0)
(-1.30279 13.2097 0)
(-1.12389 13.4088 0)
(-0.959668 13.5815 0)
(-0.810564 13.7317 0)
(-0.676183 13.8611 0)
(-0.555516 13.9692 0)
(-0.447418 14.0529 0)
(-0.350724 14.1066 0)
(-0.264075 14.1212 0)
(-0.186678 14.0789 0)
(-0.11794 13.913 0)
(-0.0569629 13.2931 0)
(-0.0154312 11.3792 0)
(-0.2655 9.88847 0)
(-0.205513 9.90933 0)
(-0.153101 9.92829 1.42573e-18)
(-0.112316 9.94512 1.32184e-18)
(-0.0806628 9.95958 1.22574e-18)
(-0.0564378 9.97158 -1.13673e-18)
(-0.0382304 9.9812 0)
(-0.0248342 9.98861 0)
(-0.0152265 9.99402 0)
(-0.00855865 9.9977 8.43136e-19)
(-0.00413844 9.99993 3.91433e-19)
(-0.0014106 10.001 3.63512e-19)
(4.28004e-05 10.0012 0)
(0.000603822 10.0009 -1.67215e-19)
(0.000659205 10.0003 -8.16927e-20)
(0.000186228 10 0)
(-0.334021 9.86623 0)
(-0.415729 9.8448 0)
(-0.511441 9.82623 0)
(-0.622099 9.81324 0)
(-0.748251 9.80933 0)
(-0.889751 9.81875 0)
(-1.04542 9.84652 0)
(-1.21273 9.89819 0)
(-1.38742 9.97958 0)
(-1.56327 10.0962 0)
(-1.73187 10.2528 0)
(-1.88268 10.4523 0)
(-2.00339 10.695 0)
(-2.08152 10.976 0)
(-2.13189 11.2948 0)
(-2.15109 11.64 0)
(-2.11758 11.9846 0)
(-2.03508 12.3172 0)
(-1.90956 12.6287 0)
(-1.7482 12.9132 0)
(-1.55149 13.1686 0)
(-1.34374 13.3897 0)
(-1.15326 13.5781 0)
(-0.980459 13.7402 0)
(-0.825062 13.8803 0)
(-0.686131 14.0001 0)
(-0.562203 14.0992 0)
(-0.451779 14.1749 0)
(-0.353457 14.2213 0)
(-0.265721 14.2297 0)
(-0.187566 14.1813 0)
(-0.118475 14.0081 0)
(-0.057122 13.3739 0)
(-0.0155832 11.4374 0)
(-0.330568 9.85763 0)
(-0.259247 9.88147 0)
(-0.195856 9.90375 -3.01626e-18)
(-0.146015 9.92404 4.20065e-21)