/*--------------------------------*- C++ -*----------------------------------*\
  =========                 |
  \\      /  F ield         | OpenFOAM: The Open Source CFD Toolbox
   \\    /   O peration     | Website:  https://openfoam.org
    \\  /    A nd           | Version:  8
     \\/     M anipulation  |
\*---------------------------------------------------------------------------*/
FoamFile
{
    version     2.0;
    format      ascii;
    class       volVectorField;
    location    "0.19";
    object      U;
}
// * * * * * * * * * * * * * * * * * * * * * * * * * * * * * * * * * * * * * //

dimensions      [0 1 -1 0 0 0 0];

internalField   nonuniform List<vector> 
15677
(
(-0.0199314 9.66506 0)
(0.0435744 9.92084 0)
(0.00238132 9.37803 0)
(0.0147379 9.97646 0)
(0.0186112 9.78776 0)
(0.00701802 9.14239 0)
(0.0279628 9.99433 0)
(0.0171055 9.92481 0)
(0.0107305 9.655 0)
(0.00608113 8.96014 0)
(0.0261098 10.0015 0)
(0.021501 9.97855 0)
(0.0163896 9.85344 0)
(0.00901608 9.53039 0)
(0.00490595 8.81691 0)
(0.0249563 10.0047 0)
(0.022373 10.0027 0)
(0.0191754 9.94293 0)
(0.0153644 9.77935 0)
(0.00787878 9.41959 0)
(0.00403515 8.70245 0)
(0.0239791 10.0062 0)
(0.0225489 10.0143 0)
(0.0207845 9.98612 0)
(0.0182715 9.90244 0)
(0.0138898 9.70801 0)
(0.00680452 9.32159 0)
(0.00336591 8.61023 0)
(0.0226393 10.0067 0)
(0.0223846 10.0199 0)
(0.0216095 10.0081 0)
(0.0201678 9.96502 0)
(0.0170326 9.86198 0)
(0.0124555 9.64096 0)
(0.00585428 9.23646 0)
(0.00280507 8.53628 0)
(0.0209548 10.0067 0)
(0.0218433 10.0223 0)
(0.021932 10.0196 0)
(0.021256 9.99816 0)
(0.0190679 9.94384 0)
(0.0156405 9.82254 0)
(0.0110875 9.5798 0)
(0.00497531 9.16426 0)
(0.00228847 8.47785 0)
(0.0190383 10.0063 0)
(0.0210055 10.0226 0)
(0.021823 10.0255 0)
(0.0217519 10.0163 0)
(0.0202363 9.98832 0)
(0.0176961 9.92309 0)
(0.0141641 9.78562 0)
(0.00969305 9.52594 0)
(0.00411016 9.10475 0)
(0.00177787 8.43343 0)
(0.0169658 10.0057 0)
(0.0199434 10.0218 0)
(0.0213682 10.0284 0)
(0.0217766 10.0263 0)
(0.0207782 10.0133 0)
(0.0188398 9.97893 0)
(0.016142 9.90393 0)
(0.0125356 9.75271 0)
(0.008209 9.48038 0)
(0.00321359 9.05772 0)
(0.00124434 8.40205 0)
(0.0147622 10.0051 0)
(0.0186458 10.0203 0)
(0.0206055 10.0292 0)
(0.021452 10.0317 0)
(0.0208226 10.0275 0)
(0.0192962 10.0107 0)
(0.0171608 9.97096 0)
(0.014323 9.88758 0)
(0.0106906 9.72496 0)
(0.00658619 9.44387 0)
(0.00224497 9.02312 0)
(0.000665653 8.38343 0)
(0.0124463 10.0044 0)
(0.0172111 10.0183 0)
(0.0195451 10.0285 0)
(0.0207819 10.0342 0)
(0.0204289 10.0356 0)
(0.0192166 10.0292 0)
(0.0174323 10.0096 0)
(0.0151042 9.96546 0)
(0.0121585 9.87505 0)
(0.00856944 9.70344 0)
(0.00477405 9.41716 0)
(0.0011706 9.00098 0)
(-6.33117e-06 8.37735 0)
(0.0101702 10.0036 0)
(0.0157126 10.0161 0)
(0.01823 10.0268 0)
(0.0197901 10.0346 0)
(0.0197049 10.0397 0)
(0.0186843 10.04 0)
(0.0171158 10.0323 0)
(0.0150729 10.0107 0)
(0.012574 9.96333 0)
(0.00957243 9.86731 0)
(0.00610783 9.68918 0)
(0.00272571 9.4009 0)
(-1.26461e-05 8.99149 0)
(-0.000648406 8.38378 0)
(0.00821805 10.0029 0)
(0.0141028 10.0136 0)
(0.0167118 10.0245 0)
(0.018489 10.0336 0)
(0.0186358 10.0413 0)
(0.0177587 10.0459 0)
(0.0163028 10.0457 0)
(0.0143892 10.0375 0)
(0.0121031 10.0151 0)
(0.00947354 9.96542 0)
(0.00648195 9.86537 0)
(0.00324317 9.68317 0)
(0.000391304 9.39572 0)
(-0.00137941 8.99494 0)
(-0.00142021 8.40285 0)
(0.00665995 10.0023 0)
(0.0125456 10.0113 0)
(0.015019 10.0217 0)
(0.0168913 10.0315 0)
(0.0172289 10.0409 0)
(0.0164512 10.0486 0)
(0.0150385 10.0533 0)
(0.0131455 10.0535 0)
(0.0109014 10.0458 0)
(0.00840465 10.0234 0)
(0.00569651 9.97264 0)
(0.00280463 9.87021 0)
(-0.000115621 9.68637 0)
(-0.00226286 9.40226 0)
(-0.00292889 9.01152 0)
(-0.00229709 8.43484 0)
(0.00550213 10.0018 0)
(0.0111401 10.0094 0)
(0.0133562 10.0189 0)
(0.0150247 10.0287 0)
(0.0154887 10.0392 0)
(0.0147674 10.049 0)
(0.0133396 10.0572 0)
(0.0113842 10.0628 0)
(0.00905876 10.0643 0)
(0.00651059 10.0579 0)
(0.00384667 10.0365 0)
(0.00114356 9.98591 0)
(-0.00152269 9.88282 0)
(-0.00391532 9.69962 0)
(-0.00525373 9.42107 0)
(-0.00466146 9.04146 0)
(-0.00327241 8.47981 0)
(0.00453367 10.0014 0)
(0.00975474 10.0077 0)
(0.0118474 10.0165 0)
(0.0131345 10.0257 0)
(0.0134293 10.0364 0)
(0.01271 10.0477 0)
(0.0112093 10.0583 0)
(0.00911901 10.0677 0)
(0.00661349 10.0751 0)
(0.00387492 10.0787 0)
(0.00105998 10.0746 0)
(-0.00170071 10.0552 0)
(-0.0043024 10.0061 0)
(-0.00660309 9.90411 0)
(-0.00828803 9.72372 0)
(-0.00862373 9.45254 0)
(-0.00658719 9.08485 0)
(-0.00434231 8.53781 0)
(0.00374669 10.0011 0)
(0.00851235 10.0064 0)
(0.0104154 10.0143 0)
(0.0113877 10.023 0)
(0.0113076 10.0332 0)
(0.0102886 10.0449 0)
(0.00864735 10.0573 0)
(0.00634976 10.0695 0)
(0.00357378 10.081 0)
(0.00052831 10.091 0)
(-0.00259484 10.0975 0)
(-0.00562108 10.0967 0)
(-0.00838026 10.0806 0)
(-0.0107298 10.0342 0)
(-0.0124784 9.93496 0)
(-0.0132609 9.75929 0)
(-0.0123882 9.49699 0)
(-0.00871314 9.1418 0)
(-0.00550495 8.60871 0)
(0.00310608 10.0009 0)
(0.00739201 10.0053 0)
(0.00910254 10.0125 0)
(0.00974406 10.0205 0)
(0.00931901 10.0301 0)
(0.00779476 10.0415 0)
(0.00566206 10.0546 0)
(0.00307369 10.0687 0)
(-6.49066e-05 10.0832 0)
(-0.00352883 10.0976 0)
(-0.00709677 10.1111 0)
(-0.010553 10.1216 0)
(-0.0136852 10.1251 0)
(-0.0162979 10.1132 0)
(-0.0182061 10.071 0)
(-0.0191838 9.97606 0)
(-0.0188392 9.80684 0)
(-0.0165443 9.55456 0)
(-0.0110275 9.21208 0)
(-0.00674933 8.69218 0)
(0.00257998 10.0008 0)
(0.00637942 10.0045 0)
(0.00789406 10.0109 0)
(0.00821894 10.0182 0)
(0.00743798 10.0271 0)
(0.00545947 10.038 0)
(0.00260712 10.0509 0)
(-0.000698293 10.066 0)
(-0.00430478 10.0826 0)
(-0.00830638 10.1002 0)
(-0.0124532 10.1184 0)
(-0.0164957 10.1362 0)
(-0.0201837 10.1517 0)
(-0.023277 10.1605 0)
(-0.0255483 10.154 0)
(-0.0267862 10.1171 0)
(-0.0267381 10.028 0)
(-0.0250167 9.86663 0)
(-0.0210782 9.62521 0)
(-0.0135228 9.29552 0)
(-0.00806799 8.78777 0)
(0.00216228 10.0006 0)
(0.00546849 10.0038 0)
(0.00678472 10.0095 0)
(0.00681489 10.0162 0)
(0.00568414 10.0244 0)
(0.00325711 10.0346 0)
(-0.000237733 10.047 0)
(-0.00452384 10.0619 0)
(-0.00913249 10.0796 0)
(-0.0138088 10.0996 0)
(-0.0186842 10.1212 0)
(-0.0234751 10.144 0)
(-0.0278946 10.1672 0)
(-0.0316642 10.1886 0)
(-0.034515 10.2037 0)
(-0.0362021 10.2036 0)
(-0.0364951 10.1732 0)
(-0.0351359 10.0912 0)
(-0.0317711 9.93881 0)
(-0.025961 9.70875 0)
(-0.0161684 9.39146 0)
(-0.00943935 8.89467 0)
(0.00184179 10.0005 0)
(0.0046905 10.0032 0)
(0.00577262 10.0083 0)
(0.00553406 10.0144 0)
(0.00407063 10.0219 0)
(0.0012136 10.0313 0)
(-0.00290363 10.043 0)
(-0.00806595 10.0574 0)
(-0.0139904 10.075 0)
(-0.0200191 10.0962 0)
(-0.0257981 10.1203 0)
(-0.0315221 10.1468 0)
(-0.0368638 10.1753 0)
(-0.0415041 10.2049 0)
(-0.0451387 10.2331 0)
(-0.0474859 10.2554 0)
(-0.0482915 10.2627 0)
(-0.0473256 10.2398 0)
(-0.0443467 10.1659 0)
(-0.0390577 10.0232 0)
(-0.0311497 9.8047 0)
(-0.0189438 9.49935 0)
(-0.0108457 9.01215 0)
(0.00159285 10.0005 0)
(0.0040598 10.0028 0)
(0.00489323 10.0073 0)
(0.00437631 10.0128 0)
(0.00260559 10.0196 0)
(-0.000650417 10.0282 0)
(-0.00535678 10.039 0)
(-0.0113668 10.0526 0)
(-0.0184617 10.0697 0)
(-0.0262245 10.0908 0)
(-0.0337722 10.1163 0)
(-0.0406497 10.1455 0)
(-0.0471371 10.1779 0)
(-0.0528682 10.213 0)
(-0.0574981 10.2498 0)
(-0.0607139 10.2857 0)
(-0.0622324 10.316 0)
(-0.0618102 10.3315 0)
(-0.0592361 10.3169 0)
(-0.0543072 10.252 0)
(-0.0468121 10.1195 0)
(-0.0365906 9.91245 0)
(-0.0217911 9.61816 0)
(-0.0122477 9.1386 0)
(0.00139603 10.0004 0)
(0.00355 10.0025 0)
(0.00416553 10.0065 0)
(0.0033836 10.0114 0)
(0.0012931 10.0174 0)
(-0.00232233 10.0252 0)
(-0.00757135 10.0351 0)
(-0.0143809 10.0477 0)
(-0.0226041 10.0639 0)
(-0.0319055 10.0844 0)
(-0.0416964 10.1098 0)
(-0.050829 10.1405 0)
(-0.0587348 10.176 0)
(-0.0658228 10.2152 0)
(-0.071698 10.2578 0)
(-0.0760084 10.3027 0)
(-0.0784464 10.3471 0)
(-0.0787501 10.3861 0)
(-0.0767061 10.4104 0)
(-0.072147 10.4048 0)
(-0.0649317 10.3492 0)
(-0.0549481 10.2272 0)
(-0.0421718 10.0311 0)
(-0.0246001 9.74658 0)
(-0.0132057 9.27232 0)
(0.00123808 10.0004 0)
(0.00313502 10.0022 0)
(0.0035659 10.0058 0)
(0.00257654 10.0102 0)
(0.000185085 10.0155 0)
(-0.00379637 10.0224 0)
(-0.00952928 10.0313 0)
(-0.017074 10.0428 0)
(-0.0263605 10.0579 0)
(-0.0371422 10.0774 0)
(-0.0489213 10.1021 0)
(-0.0609037 10.1326 0)
(-0.0716225 10.1697 0)
(-0.0804004 10.2123 0)
(-0.0878318 10.2594 0)
(-0.093514 10.3104 0)
(-0.0971068 10.3641 0)
(-0.0983342 10.4176 0)
(-0.0969797 10.4659 0)
(-0.0928868 10.4995 0)
(-0.0859459 10.5031 0)
(-0.0760969 10.4572 0)
(-0.0633238 10.3454 0)
(-0.0478432 10.1595 0)
(-0.0273851 9.88435 0)
(-0.0142775 9.4133 0)
(0.00110968 10.0003 0)
(0.00279545 10.002 0)
(0.00307364 10.0053 0)
(0.00192398 10.0092 0)
(-0.000695334 10.0139 0)
(-0.00501288 10.0198 0)
(-0.0112195 10.0276 0)
(-0.0194211 10.038 0)
(-0.0296863 10.0518 0)
(-0.041864 10.0699 0)
(-0.0555557 10.0934 0)
(-0.0700634 10.1233 0)
(-0.0843443 10.1601 0)
(-0.0965623 10.2045 0)
(-0.105947 10.2552 0)
(-0.113357 10.3111 0)
(-0.118408 10.3713 0)
(-0.120802 10.4344 0)
(-0.120319 10.4976 0)
(-0.116815 10.5555 0)
(-0.110209 10.5985 0)
(-0.100476 10.6116 0)
(-0.0876282 10.5753 0)
(-0.0717869 10.4731 0)
(-0.052714 10.2968 0)
(-0.0237717 10.0249 0)
(-0.00929953 9.49887 0)
(0.00100402 10.0003 0)
(0.00251562 10.0018 0)
(0.00266191 10.0049 0)
(0.00139466 10.0084 0)
(-0.00138721 10.0125 0)
(-0.00595204 10.0176 0)
(-0.0125742 10.0242 0)
(-0.0214054 10.0333 0)
(-0.032548 10.0456 0)
(-0.0460137 10.0622 0)
(-0.0615127 10.0842 0)
(-0.0784531 10.1127 0)
(-0.0958908 10.1486 0)
(-0.11249 10.1927 0)
(-0.126003 10.2455 0)
(-0.135612 10.3054 0)
(-0.142526 10.3708 0)
(-0.146407 10.4409 0)
(-0.147029 10.514 0)
(-0.144268 10.5871 0)
(-0.138081 10.6547 0)
(-0.128484 10.7072 0)
(-0.11552 10.7295 0)
(-0.0993122 10.7024 0)
(-0.0797554 10.6095 0)
(-0.0574105 10.44 0)
(-0.0194325 10.1964 0)
(-0.00147737 9.5647 0)
(0.000916087 10.0003 0)
(0.00228353 10.0017 0)
(0.00231717 10.0045 0)
(0.000969156 10.0077 0)
(-0.0019301 10.0113 0)
(-0.00666344 10.0157 0)
(-0.0135804 10.0213 0)
(-0.0229472 10.0289 0)
(-0.0349215 10.0395 0)
(-0.0495467 10.0544 0)
(-0.0667194 10.0746 0)
(-0.0859658 10.1012 0)
(-0.106452 10.1357 0)
(-0.126935 10.1788 0)
(-0.14576 10.2312 0)
(-0.160243 10.2934 0)
(-0.169561 10.3634 0)
(-0.175368 10.4391 0)
(-0.177429 10.5196 0)
(-0.175634 10.6029 0)
(-0.169982 10.686 0)
(-0.160552 10.7633 0)
(-0.147451 10.825 0)
(-0.130816 10.8563 0)
(-0.110614 10.8378 0)
(-0.0867523 10.7531 0)
(-0.0611811 10.597 0)
(-0.0213789 10.3696 0)
(0.00256875 9.62209 0)
(0.000842227 10.0002 0)
(0.00209038 10.0016 0)
(0.00202955 10.0041 0)
(0.000624264 10.0071 0)
(-0.00235389 10.0102 0)
(-0.00719602 10.014 0)
(-0.0143043 10.0187 0)
(-0.0240423 10.0249 0)
(-0.0367114 10.0338 0)
(-0.0524299 10.0466 0)
(-0.0711173 10.0647 0)
(-0.0925092 10.0892 0)
(-0.115896 10.1215 0)
(-0.140145 10.1629 0)
(-0.163683 10.2143 0)
(-0.184513 10.2762 0)
(-0.19948 10.3488 0)
(-0.207832 10.4298 0)
(-0.211809 10.5164 0)
(-0.211316 10.6075 0)
(-0.2064 10.7012 0)
(-0.197207 10.7942 0)
(-0.18394 10.8807 0)
(-0.16681 10.9513 0)
(-0.145868 10.9909 0)
(-0.120994 10.9807 0)
(-0.0923243 10.9049 0)
(-0.0626163 10.7668 0)
(-0.0247248 10.5397 0)
(0.00348925 9.6791 0)
(0.000779723 10.0002 0)
(0.00192861 10.0015 0)
(0.00179265 10.0039 0)
(0.000342248 10.0065 0)
(-0.0026843 10.0094 0)
(-0.00758907 10.0126 0)
(-0.0148091 10.0164 0)
(-0.0247796 10.0215 0)
(-0.0379248 10.0286 0)
(-0.0545471 10.0391 0)
(-0.0746616 10.0547 0)
(-0.098007 10.0767 0)
(-0.124107 10.1066 0)
(-0.151957 10.1456 0)
(-0.180083 10.1951 0)
(-0.206549 10.2559 0)
(-0.228989 10.3282 0)
(-0.243793 10.4122 0)
(-0.250374 10.5047 0)
(-0.251688 10.6026 0)
(-0.247834 10.7046 0)
(-0.239041 10.8085 0)
(-0.225618 10.9111 0)
(-0.207899 11.0065 0)
(-0.1861 11.0854 0)
(-0.160243 11.1329 0)
(-0.130643 11.1308 0)
(-0.0974999 11.065 0)
(-0.0644132 10.944 0)
(-0.0274746 10.7054 0)
(0.00311284 9.75296 0)
(0.000726486 10.0002 0)
(0.00179234 10.0014 0)
(0.00159535 10.0036 0)
(0.00010828 10.0061 0)
(-0.00294156 10.0086 0)
(-0.0078741 10.0113 0)
(-0.0151458 10.0144 0)
(-0.0252427 10.0184 0)
(-0.0386809 10.024 0)
(-0.0559197 10.0323 0)
(-0.0772087 10.045 0)
(-0.1024 10.064 0)
(-0.130987 10.091 0)
(-0.162225 10.1271 0)
(-0.194761 10.174 0)
(-0.226742 10.2327 0)
(-0.255829 10.3041 0)
(-0.27932 10.3879 0)
(-0.293153 10.484 0)
(-0.297025 10.5887 0)
(-0.294747 10.6981 0)
(-0.286654 10.8108 0)
(-0.273189 10.9247 0)
(-0.254829 11.0363 0)
(-0.231994 11.14 0)
(-0.20494 11.2265 0)
(-0.174098 11.2817 0)
(-0.140245 11.2872 0)
(-0.103498 11.2322 0)
(-0.0670505 11.1234 0)
(-0.030326 10.8859 0)
(0.00202886 9.83778 0)
(0.000680869 10.0002 0)
(0.00167689 10.0013 0)
(0.00142887 10.0034 0)
(-8.39252e-05 10.0057 0)
(-0.00314176 10.0079 0)
(-0.00807604 10.0102 0)
(-0.0153547 10.0127 0)
(-0.0254985 10.0157 0)
(-0.0390898 10.02 0)
(-0.0567059 10.0263 0)
(-0.0787968 10.0363 0)
(-0.105507 10.0517 0)
(-0.136457 10.0749 0)
(-0.170823 10.1078 0)
(-0.207538 10.1514 0)
(-0.244852 10.2073 0)
(-0.280482 10.2765 0)
(-0.311707 10.3594 0)
(-0.335509 10.4556 0)
(-0.347402 10.5646 0)
(-0.347502 10.6816 0)
(-0.34062 10.8025 0)
(-0.327369 10.9257 0)
(-0.308421 11.0491 0)
(-0.284406 11.1692 0)
(-0.255854 11.2805 0)
(-0.223356 11.3742 0)
(-0.187794 11.4363 0)
(-0.150159 11.4489 0)
(-0.110275 11.4035 0)
(-0.0709461 11.3237 0)
(-0.0333331 11.0811 0)
(0.000330567 9.93166 0)
(0.000641598 10.0002 0)
(0.00157852 10.0013 0)
(0.00128799 10.0032 0)
(-0.000241442 10.0053 0)
(-0.00329692 10.0073 0)
(-0.00821448 10.0092 0)
(-0.0154678 10.0112 0)
(-0.0255999 10.0134 0)
(-0.0392394 10.0164 0)
(-0.0570496 10.021 0)
(-0.079633 10.0284 0)
(-0.107386 10.0405 0)
(-0.140289 10.0594 0)
(-0.177649 10.0878 0)
(-0.218253 10.1276 0)
(-0.260654 10.1799 0)
(-0.302655 10.2461 0)
(-0.341544 10.3269 0)
(-0.374231 10.4224 0)
(-0.397414 10.5317 0)
(-0.406246 10.654 0)
(-0.40141 10.7836 0)
(-0.388861 10.9158 0)
(-0.369519 11.049 0)
(-0.344289 11.1812 0)
(-0.313974 11.309 0)
(-0.2794 11.4274 0)
(-0.241556 11.5275 0)
(-0.201577 11.5956 0)
(-0.160293 11.614 0)
(-0.11808 11.5975 0)
(-0.0757532 11.5432 0)
(-0.0365014 11.2716 0)
(-0.00156755 10.0327 0)
(0.000607975 10.0002 0)
(0.00149398 10.0012 0)
(0.00116822 10.0031 0)
(-0.000371221 10.005 0)
(-0.00341667 10.0068 0)
(-0.00830472 10.0084 0)
(-0.0155098 10.0099 0)
(-0.0255882 10.0113 0)
(-0.0391989 10.0132 0)
(-0.057066 10.0163 0)
(-0.0799044 10.0215 0)
(-0.108305 10.0304 0)
(-0.142561 10.0451 0)
(-0.182413 10.0683 0)
(-0.226771 10.103 0)
(-0.27395 10.151 0)
(-0.322074 10.2133 0)
(-0.36848 10.2909 0)
(-0.41003 10.3845 0)
(-0.443287 10.4935 0)
(-0.464746 10.6165 0)
(-0.469269 10.7523 0)
(-0.458265 10.8944 0)
(-0.438967 11.0374 0)
(-0.412621 11.1801 0)
(-0.380386 11.3204 0)
(-0.343357 11.4552 0)
(-0.302717 11.5797 0)
(-0.259713 11.6852 0)
(-0.215412 11.7576 0)
(-0.171441 11.8008 0)
(-0.126587 11.8125 0)
(-0.0808837 11.7584 0)
(-0.0395869 11.457 0)
(-0.00339488 10.1384 0)
(0.00142067 10.0012 0)
(0.000568012 10.0002 0)
(0.00106513 10.003 0)
(-0.000478607 10.0047 0)
(-0.00350846 10.0063 0)
(-0.00835857 10.0077 0)
(-0.0155002 10.0087 0)
(-0.0254957 10.0095 0)
(-0.0390227 10.0105 0)
(-0.0568458 10.0121 0)
(-0.0797608 10.0153 0)
(-0.108504 10.0214 0)
(-0.143612 10.0323 0)
(-0.18521 10.0504 0)
(-0.232724 10.0788 0)
(-0.284562 10.1209 0)
(-0.338489 10.1785 0)
(-0.392182 10.252 0)
(-0.442491 10.3424 0)
(-0.48587 10.4498 0)
(-0.518605 10.573 0)
(-0.537077 10.7102 0)
(-0.535948 10.8595 0)
(-0.517512 11.0137 0)
(-0.490403 11.167 0)
(-0.456218 11.3184 0)
(-0.41644 11.4659 0)
(-0.37251 11.6068 0)
(-0.325859 11.7364 0)
(-0.277755 11.8456 0)
(-0.230624 11.9405 0)
(-0.183369 12.0083 0)
(-0.134821 12.025 0)
(-0.0859954 11.968 0)
(-0.0424554 11.6366 0)
(-0.00514639 10.2469 0)
(0.00097523 10.0028 0)
(0.00133682 10.0011 0)
(0.000520359 10.0002 0)
(-0.000568675 10.0045 0)
(-0.00357826 10.006 0)
(-0.00838492 10.007 0)
(-0.0154538 10.0077 0)
(-0.0253473 10.0079 0)
(-0.0387525 10.008 0)
(-0.0564596 10.0084 0)
(-0.07932 10.0098 0)
(-0.108176 10.0135 0)
(-0.14375 10.0209 0)
(-0.186469 10.0343 0)
(-0.236223 10.0566 0)
(-0.292023 10.0913 0)
(-0.351674 10.1421 0)
(-0.412337 10.2106 0)
(-0.471211 10.2967 0)
(-0.524675 10.4011 0)
(-0.568827 10.5231 0)
(-0.599761 10.6612 0)
(-0.613858 10.8126 0)
(-0.605674 10.9753 0)
(-0.578554 11.141 0)
(-0.542646 11.3039 0)
(-0.499939 11.463 0)
(-0.452272 11.6168 0)
(-0.401356 11.7627 0)
(-0.348683 11.8957 0)
(-0.297489 12.0265 0)
(-0.246788 12.1434 0)
(-0.194734 12.2141 0)
(-0.142601 12.2329 0)
(-0.0908514 12.1706 0)
(-0.0450383 11.81 0)
(-0.00677848 10.3563 0)
(-0.000648093 10.0043 0)
(0.000882674 10.0027 0)
(0.00123449 10.001 0)
(0.000474926 10.0001 4.21923e-20)
(-0.00363251 10.0056 0)
(-0.00839088 10.0065 0)
(-0.0153816 10.0068 0)
(-0.025162 10.0065 0)
(-0.0384208 10.0059 0)
(-0.0559622 10.0051 0)
(-0.078674 10.005 0)
(-0.107473 10.0064 0)
(-0.14322 10.0106 0)
(-0.186575 10.0198 0)
(-0.237797 10.0365 0)
(-0.29645 10.064 0)
(-0.361033 10.1062 0)
(-0.428659 10.1672 0)
(-0.495809 10.2479 0)
(-0.559222 10.348 0)
(-0.614845 10.4673 0)
(-0.658498 10.6048 0)
(-0.686193 10.758 0)
(-0.694433 10.9238 0)
(-0.67778 11.0993 0)
(-0.640786 11.2759 0)
(-0.595221 11.4475 0)
(-0.543475 11.6132 0)
(-0.487686 11.7722 0)
(-0.429691 11.9214 0)
(-0.373529 12.0755 0)
(-0.318366 12.2272 0)
(-0.26201 12.3447 0)
(-0.205378 12.4162 0)
(-0.149772 12.4347 0)
(-0.0953317 12.3654 0)
(-0.0473068 11.9767 0)
(-0.00825868 10.4649 0)
(-0.00368094 10.0053 0)
(-0.000712161 10.0041 0)
(0.000778376 10.0025 1.92012e-19)
(0.00113489 10.0009 -1.33768e-19)
(0.00043167 10.0001 -8.28145e-20)
(-0.00838353 10.006 0)
(-0.0152918 10.006 0)
(-0.0249534 10.0053 0)
(-0.0380518 10.0039 0)
(-0.0553952 10.0023 0)
(-0.0778933 10.0007 0)
(-0.106514 10.0001 0)
(-0.142217 10.0016 0)
(-0.185836 10.0069 0)
(-0.237923 10.0184 0)
(-0.298489 10.0392 0)
(-0.36668 10.073 0)
(-0.440392 10.1241 0)
(-0.515922 10.1966 0)
(-0.589048 10.2911 0)
(-0.656092 10.4064 0)
(-0.712635 10.5416 0)
(-0.754321 10.6951 0)
(-0.77721 10.8637 0)
(-0.778067 11.0434 0)
(-0.751567 11.2311 0)
(-0.703621 11.4176 0)
(-0.647691 11.5967 0)
(-0.586512 11.768 0)
(-0.522406 11.9305 0)
(-0.460445 12.1008 0)
(-0.39977 12.2752 0)
(-0.337917 12.4261 0)
(-0.276141 12.5424 0)
(-0.215155 12.6129 0)
(-0.156261 12.6292 0)
(-0.099377 12.552 0)
(-0.0492663 12.1364 0)
(-0.00957559 10.5715 0)
(-0.00837823 10.0055 0)
(-0.00368192 10.0049 -4.33773e-19)
(-0.000765406 10.0038 -2.02904e-19)
(0.000680082 10.0023 9.42351e-20)
(0.0010394 10.0009 -8.75024e-20)
(0.00039065 10.0001 0)
(-0.0151924 10.0053 0)
(-0.0247312 10.0042 0)
(-0.0376628 10.0023 0)
(-0.0547903 9.99973 0)
(-0.0770322 9.99693 0)
(-0.105389 9.9945 0)
(-0.14089 9.99349 0)
(-0.184499 9.99537 0)
(-0.236989 10.0023 0)
(-0.298725 10.0169 0)
(-0.369387 10.0428 0)
(-0.447625 10.084 0)
(-0.530596 10.1454 0)
(-0.613702 10.231 0)
(-0.692016 10.3408 0)
(-0.761515 10.4723 0)
(-0.817507 10.6243 0)
(-0.855591 10.7941 0)
(-0.872021 10.9778 0)
(-0.863966 11.171 0)
(-0.826324 11.3701 0)
(-0.766489 11.5654 0)
(-0.699623 11.7507 0)
(-0.628701 11.926 0)
(-0.560035 12.1095 0)
(-0.492902 12.3 0)
(-0.424308 12.4732 0)
(-0.355995 12.6217 0)
(-0.28904 12.7351 0)
(-0.223983 12.8031 0)
(-0.16204 12.8158 0)
(-0.102966 12.7299 0)
(-0.0509389 12.2886 0)
(-0.0107299 10.6751 0)
(-0.0151069 10.0046 0)
(-0.00827817 10.005 9.16699e-19)
(-0.00362574 10.0045 0)
(-0.000813495 10.0035 1.99096e-19)
(0.000588458 10.0022 3.3365e-23)
(0.000947909 10.0008 0)
(0.000351887 10.0001 0)
(-0.0245043 10.0032 0)
(-0.0372653 10.0008 0)
(-0.0541692 9.99748 0)
(-0.0761314 9.99357 0)
(-0.104169 9.98957 0)
(-0.139358 9.98633 0)
(-0.182755 9.98513 0)
(-0.2353 9.98781 0)
(-0.297633 9.99685 0)
(-0.369866 10.0154 0)
(-0.451273 10.0476 0)
(-0.539869 10.0977 0)
(-0.631986 10.1709 0)
(-0.72206 10.2711 0)
(-0.804482 10.3974 0)
(-0.874997 10.5463 0)
(-0.928766 10.7156 0)
(-0.961491 10.9018 0)
(-0.96977 11.1003 0)
(-0.951311 11.3061 0)
(-0.901341 11.5154 0)
(-0.828828 11.7182 0)
(-0.750568 11.9082 0)
(-0.674414 12.1049 0)
(-0.599762 12.3088 0)
(-0.523239 12.4979 0)
(-0.446969 12.6681 0)
(-0.372472 12.8124 0)
(-0.300647 12.9216 0)
(-0.231836 12.9858 0)
(-0.167121 12.9939 0)
(-0.106105 12.899 0)
(-0.052353 12.4331 0)
(-0.0117287 10.7749 0)
(-0.0243078 10.0023 0)
(-0.0148585 10.0039 1.18683e-22)
(-0.00804444 10.0044 0)
(-0.00356542 10.0041 -2.10372e-19)
(-0.000852491 10.0032 1.98994e-23)
(0.000503304 10.002 0)
(0.000860415 10.0007 0)
(0.00031539 10.0001 0)
(-0.0368692 9.99946 0)
(-0.0535459 9.99549 0)
(-0.0752187 9.99061 0)
(-0.102906 9.98521 0)
(-0.137709 9.97999 0)
(-0.180752 9.97604 0)
(-0.233096 9.97495 0)
(-0.295594 9.97894 0)
(-0.368695 9.9909 0)
(-0.452187 10.0145 0)
(-0.544809 10.0541 0)
(-0.643852 10.1147 0)
(-0.744731 10.2012 0)
(-0.840862 10.3176 0)
(-0.92602 10.4617 0)
(-0.99587 10.6287 0)
(-1.04558 10.8156 0)
(-1.07111 11.018 0)
(-1.06955 11.2307 0)
(-1.03928 11.4481 0)
(-0.975928 11.6663 0)
(-0.890068 11.8749 0)
(-0.805799 12.087 0)
(-0.722707 12.3045 0)
(-0.636913 12.5071 0)
(-0.551249 12.6929 0)
(-0.467631 12.8582 0)
(-0.387294 12.9971 0)
(-0.31096 13.101 0)
(-0.238741 13.1605 0)
(-0.171533 13.1633 0)
(-0.108818 13.0591 0)
(-0.053536 12.57 0)
(-0.0125827 10.8704 0)
(-0.036526 9.9983 0)
(-0.0238535 10.0014 -5.11788e-19)
(-0.01436 10.0031 0)
(-0.00780925 10.0038 0)
(-0.00349214 10.0036 6.1938e-19)
(-0.00088202 10.0029 0)
(0.00042462 10.0019 0)
(0.000777011 10.0007 1.6543e-19)
(0.000281186 10.0001 0)
(-0.0529313 9.99373 0)
(-0.074311 9.98798 0)
(-0.101634 9.98134 0)
(-0.13601 9.97436 0)
(-0.178602 9.96797 0)
(-0.230563 9.96352 0)
(-0.292904 9.96297 0)
(-0.366338 9.96891 0)
(-0.451063 9.98472 0)
(-0.54642 10.0145 0)
(-0.650526 10.0631 0)
(-0.759851 10.1355 0)
(-0.86881 10.2371 0)
(-0.969775 10.3711 0)
(-1.05602 10.5341 0)
(-1.12331 10.7199 0)
(-1.16699 10.9244 0)
(-1.18346 11.1425 0)
(-1.17044 11.3684 0)
(-1.12707 11.5962 0)
(-1.0494 11.8216 0)
(-0.956559 12.0533 0)
(-0.864203 12.2869 0)
(-0.767902 12.5034 0)
(-0.671232 12.7027 0)
(-0.576799 12.8833 0)
(-0.486237 13.0425 0)
(-0.400478 13.1749 0)
(-0.320023 13.2729 0)
(-0.244746 13.327 0)
(-0.175322 13.3238 0)
(-0.111137 13.2103 0)
(-0.0545157 12.6992 0)
(-0.0133048 10.9613 0)
(-0.0523995 9.99218 0)
(-0.0357945 9.99701 0)
(-0.0229804 10.0003 -5.06068e-19)
(-0.0138657 10.0023 -4.69899e-19)
(-0.00755662 10.0032 -8.72667e-19)
(-0.00340415 10.0032 0)
(-0.000901994 10.0026 -3.7638e-19)
(0.000352602 10.0017 -3.49594e-19)
(0.000697744 10.0006 1.62355e-19)
(0.000249229 10.0001 0)
(-0.0734207 9.98566 0)
(-0.100376 9.97791 0)
(-0.134307 9.96938 0)
(-0.176393 9.96081 0)
(-0.227845 9.95337 0)
(-0.289796 9.94875 0)
(-0.36316 9.94928 0)
(-0.448461 9.958 0)
(-0.545531 9.97874 0)
(-0.653183 10.0161 0)
(-0.768807 10.0751 0)
(-0.88796 10.1612 0)
(-1.004 10.2793 0)
(-1.10827 10.4322 0)
(-1.19369 10.615 0)
(-1.25636 10.8198 0)
(-1.29197 11.0417 0)
(-1.29751 11.2748 0)
(-1.2715 11.5129 0)
(-1.21386 11.7493 0)
(-1.12944 11.9991 0)
(-1.02704 12.2533 0)
(-0.918931 12.4866 0)
(-0.809682 12.7 0)
(-0.702561 12.894 0)
(-0.599834 13.0681 0)
(-0.502807 13.2201 0)
(-0.412085 13.3454 0)
(-0.327908 13.4367 0)
(-0.249915 13.4848 0)
(-0.178538 13.4754 0)
(-0.113099 13.3526 0)
(-0.0553187 12.8207 0)
(-0.0139078 11.0475 0)
(-0.0726521 9.9836 0)
(-0.0513041 9.99048 -5.72476e-19)
(-0.0344077 9.99558 5.34666e-19)
(-0.022122 9.9992 -2.68583e-22)
(-0.0133479 10.0015 4.61034e-19)
(-0.00728263 10.0026 4.28243e-19)
(-0.0033021 10.0028 7.95399e-19)
(-0.000912347 10.0024 5.54058e-19)
(0.000286955 10.0016 -1.71555e-19)
(0.000622704 10.0006 0)
(0.0002195 10.0001 0)
(-0.099145 9.97488 0)
(-0.132624 9.96497 0)
(-0.17418 9.95446 0)
(-0.225049 9.94435 0)
(-0.286447 9.9361 0)
(-0.359448 9.93176 0)
(-0.444827 9.93408 0)
(-0.542813 9.94657 0)
(-0.652794 9.97351 0)
(-0.772952 10.0199 0)
(-0.899859 10.091 0)
(-1.02807 10.1924 0)
(-1.14987 10.3286 0)
(-1.25562 10.5016 0)
(-1.3381 10.7048 0)
(-1.39396 10.9287 0)
(-1.41942 11.1674 0)
(-1.41226 11.4146 0)
(-1.3718 11.663 0)
(-1.30876 11.9252 0)
(-1.21459 12.1991 0)
(-1.0933 12.454 0)
(-0.969625 12.6844 0)
(-0.847853 12.8926 0)
(-0.730834 13.0799 0)
(-0.62038 13.2464 0)
(-0.517416 13.3906 0)
(-0.422206 13.5081 0)
(-0.334701 13.5923 0)
(-0.254321 13.6341 0)
(-0.181238 13.6183 0)
(-0.114742 13.4865 0)
(-0.0559688 12.9349 0)
(-0.0144049 11.1288 0)
(-0.098086 9.97219 0)
(-0.0710878 9.9814 -8.52175e-22)
(-0.0492305 9.98864 0)
(-0.0330532 9.9942 -4.33046e-22)
(-0.0212327 9.99817 0)
(-0.0128008 10.0007 -4.52467e-19)
(-0.00698752 10.0021 -8.40519e-19)
(-0.00318549 10.0025 1.95335e-23)
(-0.0009131 10.0022 3.62494e-19)
(0.000227707 10.0014 -1.68362e-19)
(0.000551891 10.0005 1.56389e-19)
(0.000191965 10.0001 0)
(-0.130981 9.96105 0)
(-0.171995 9.94883 0)
(-0.222247 9.93635 0)
(-0.282994 9.92486 0)
(-0.355423 9.91617 0)
(-0.440511 9.91273 0)
(-0.538802 9.91773 0)
(-0.650154 9.93515 0)
(-0.773417 9.96971 0)
(-0.906046 10.0267 0)
(-1.04369 10.1118 0)
(-1.17988 10.23 0)
(-1.3058 10.3857 0)
(-1.41095 10.5798 0)
(-1.48818 10.8037 0)
(-1.53496 11.0464 0)
(-1.54825 11.3012 0)
(-1.52664 11.5607 0)
(-1.48193 11.8366 0)
(-1.41014 12.1246 0)
(-1.29493 12.4006 0)
(-1.15487 12.6534 0)
(-1.01607 12.8787 0)
(-0.882355 13.08 0)
(-0.756084 13.2594 0)
(-0.638528 13.4176 0)
(-0.53018 13.5533 0)
(-0.430951 13.6628 0)
(-0.340501 13.7397 0)
(-0.258038 13.7749 0)
(-0.183477 13.7526 0)
(-0.116104 13.612 0)
(-0.0564868 13.0419 0)
(-0.0148098 11.2053 0)
(-0.129573 9.95758 0)
(-0.0959271 9.96936 6.39591e-19)
(-0.0681148 9.97906 -5.98613e-19)
(-0.0472165 9.98688 5.5477e-19)
(-0.0316597 9.99288 0)
(-0.0203022 9.99719 0)
(-0.0122234 10 4.44057e-19)
(-0.0066725 10.0016 -4.12388e-19)
(-0.00305477 10.0021 2.55199e-23)
(-0.000904093 10.0019 1.77908e-19)
(0.00017487 10.0013 -1.65256e-19)
(0.000485247 10.0005 -1.53482e-19)
(0.000166709 10.0001 0)
(-0.169862 9.94383 0)
(-0.219478 9.92925 0)
(-0.279526 9.91488 0)
(-0.351252 9.9023 0)
(-0.435785 9.89369 0)
(-0.533922 9.89193 0)
(-0.645903 9.90067 0)
(-0.771131 9.92437 0)
(-0.907819 9.96814 0)
(-1.05259 10.0376 0)
(-1.20012 10.1382 0)
(-1.34286 10.2749 0)
(-1.47098 10.4513 0)
(-1.57322 10.6672 0)
(-1.64279 10.9118 0)
(-1.67822 11.1727 0)
(-1.67731 11.4421 0)
(-1.65287 11.7308 0)
(-1.60015 12.0344 0)
(-1.50619 12.3266 0)
(-1.36984 12.6019 0)
(-1.21144 12.8499 0)
(-1.05819 13.0683 0)
(-0.913246 13.2613 0)
(-0.778419 13.432 0)
(-0.654411 13.5812 0)
(-0.541231 13.7082 0)
(-0.438442 13.8094 0)
(-0.34541 13.8788 0)
(-0.261145 13.9074 0)
(-0.185312 13.8785 0)
(-0.11722 13.7295 0)
(-0.0568937 13.1421 0)
(-0.0151365 11.2771 0)
(-0.168042 9.9394 0)
(-0.126672 9.95398 0)
(-0.091796 9.96642 6.32245e-19)
(-0.0652401 9.97683 -1.17526e-18)
(-0.0451533 9.9852 1.09042e-18)
(-0.0302098 9.99162 -1.01192e-18)
(-0.0193303 9.99625 0)
(-0.0116178 9.99932 4.35973e-19)
(-0.0063372 10.0011 -4.04724e-19)
(-0.00291132 10.0018 -3.7598e-19)
(-0.000884611 10.0017 0)
(0.000128249 10.0012 1.62189e-19)
(0.000423105 10.0004 0)
(0.000144169 10 0)
(-0.216775 9.92294 0)
(-0.276092 9.90601 0)
(-0.347049 9.88996 0)
(-0.430857 9.87672 0)
(-0.528505 9.86888 0)
(-0.640549 9.86978 0)
(-0.766849 9.88354 0)
(-0.906256 9.91504 0)
(-1.05624 9.96973 0)
(-1.21252 10.0533 0)
(-1.36875 10.1712 0)
(-1.51632 10.3279 0)
(-1.64446 10.526 0)
(-1.74131 10.764 0)
(-1.80071 11.0292 0)
(-1.82251 11.3071 0)
(-1.82051 11.6075 0)
(-1.78911 11.9262 0)
(-1.71279 12.2364 0)
(-1.5962 12.5295 0)
(-1.43891 12.801 0)
(-1.26289 13.0422 0)
(-1.096 13.2521 0)
(-0.940657 13.4359 0)
(-0.798 13.5971 0)
(-0.668189 13.737 0)
(-0.550719 13.855 0)
(-0.4448 13.9478 0)
(-0.349525 14.0098 0)
(-0.263715 14.0318 0)
(-0.186796 13.9965 0)
(-0.118122 13.8393 0)
(-0.0572075 13.2356 0)
(-0.0153961 11.3444 0)
(-0.214482 9.91735 0)
(-0.16423 9.93485 0)
(-0.121076 9.95029 0)
(-0.0878211 9.96361 1.24123e-18)
(-0.0623063 9.97471 -1.15181e-18)
(-0.0430159 9.9836 1.06895e-18)
(-0.0287047 9.99043 0)
(-0.0183196 9.99537 -4.60595e-19)
(-0.0109842 9.99867 0)
(-0.00598285 10.0006 3.97241e-19)
(-0.00275387 10.0014 0)
(-0.000856189 10.0015 0)
(8.80086e-05 10.0011 0)
(0.000366742 10.0004 1.57666e-19)
(0.000124389 10 7.70036e-20)
(-0.272738 9.89812 0)
(-0.342875 9.87899 0)
(-0.425863 9.86162 0)
(-0.522804 9.84833 0)
(-0.634493 9.84214 0)
(-0.761176 9.84687 0)
(-0.902238 9.86709 0)
(-1.05587 9.90807 0)
(-1.21874 9.97548 0)
(-1.38557 10.075 0)
(-1.549 10.2119 0)
(-1.6994 10.3898 0)
(-1.82515 10.6103 0)
(-1.91402 10.8706 0)
(-1.96072 11.1553 0)
(-1.98359 11.4662 0)
(-1.97607 11.7992 0)
(-1.91974 12.1273 0)
(-1.81894 12.4405 0)
(-1.67964 12.7313 0)
(-1.50196 12.9966 0)
(-1.30921 13.2292 0)
(-1.12965 13.4294 0)
(-0.964777 13.6031 0)
(-0.815034 13.7544 0)
(-0.680042 13.8848 0)
(-0.558795 13.9937 0)
(-0.45015 14.0783 0)
(-0.352942 14.1329 0)
(-0.265818 14.1483 0)
(-0.187978 14.1069 0)
(-0.118839 13.9419 0)
(-0.0574442 13.3229 0)
(-0.0155983 11.4072 0)
(-0.269912 9.89113 0)
(-0.209567 9.91165 0)
(-0.156813 9.93026 1.42024e-18)
(-0.115717 9.94679 1.31677e-18)
(-0.083775 9.96096 1.22107e-18)
(-0.0592773 9.97271 -1.13242e-18)
(-0.0408062 9.9821 0)
(-0.0271476 9.9893 0)
(-0.0172716 9.99454 0)
(-0.0103243 9.99806 8.39981e-19)
(-0.00561145 10.0002 3.89972e-19)
(-0.00258211 10.0011 3.62159e-19)
(-0.000819146 10.0013 0)
(5.54941e-05 10.001 -1.66596e-19)
(0.000316618 10.0003 -8.13904e-20)
(0.000106986 10 0)
(-0.338794 9.86923 0)
(-0.420883 9.84817 0)
(-0.516988 9.83 0)
(-0.628043 9.81744 0)
(-0.754591 9.814 0)
(-0.896475 9.82393 0)
(-1.05251 9.85224 0)
(-1.22016 9.90449 0)
(-1.39515 9.9865 0)
(-1.57128 10.1038 0)
(-1.7401 10.2611 0)
(-1.89108 10.4613 0)
(-2.01192 10.7048 0)
(-2.09012 10.9867 0)
(-2.14055 11.3064 0)
(-2.15983 11.6527 0)
(-2.12633 11.9984 0)
(-2.04374 12.3322 0)
(-1.91801 12.645 0)
(-1.75627 12.9308 0)
(-1.55899 13.1876 0)
(-1.35054 13.4099 0)
(-1.15934 13.5995 0)
(-0.985828 13.7627 0)
(-0.829743 13.9037 0)
(-0.690158 14.0245 0)
(-0.565614 14.1245 0)
(-0.454611 14.201 0)
(-0.355751 14.2483 0)
(-0.267518 14.2574 0)
(-0.188903 14.2099 0)
(-0.119399 14.0377 0)
(-0.0576152 13.4043 0)
(-0.0157536 11.4659 0)
(-0.335383 9.86057 0)
(-0.263675 9.88404 0)
(-0.199914 9.90597 -3.00462e-18)
(-0.149736 9.92593 4.17292e-21)
(-0.110271 9.94349 -2.58244e-18)