/*--------------------------------*- C++ -*----------------------------------*\
  =========                 |
  \\      /  F ield         | OpenFOAM: The Open Source CFD Toolbox
   \\    /   O peration     | Website:  https://openfoam.org
    \\  /    A nd           | Version:  8
     \\/     M anipulation  |
\*---------------------------------------------------------------------------*/
FoamFile
{
    version     2.0;
    format      ascii;
    class       volScalarField;
    location    "0.06";
    object      p;
}
// * * * * * * * * * * * * * * * * * * * * * * * * * * * * * * * * * * * * * //

dimensions      [0 2 -2 0 0 0 0];

internalField   nonuniform List<scalar> 
15677
(
66.025
65.619
65.2834
65.7733
65.2821
65.2193
65.6931
65.3011
65.229
65.1548
65.6736
65.3013
65.2295
65.1635
65.0585
65.6554
65.3044
65.2299
65.1628
65.0661
64.9581
65.6326
65.3072
65.2301
65.1633
65.0661
64.9648
64.8451
65.6078
65.3089
65.2299
65.1634
65.0669
64.9649
64.851
64.7088
65.5821
65.31
65.2292
65.1632
65.0675
64.9656
64.8511
64.7139
64.5424
65.5552
65.3107
65.2282
65.1625
65.068
64.9663
64.8519
64.7142
64.5468
64.3391
65.5273
65.3112
65.2267
65.1616
65.0684
64.967
64.8527
64.7151
64.5472
64.3427
64.0909
65.4984
65.3111
65.2252
65.1607
65.069
64.9677
64.8535
64.7161
64.5483
64.3433
64.0938
63.7897
65.4685
65.3102
65.2237
65.16
65.0697
64.9687
64.8546
64.7172
64.5495
64.3446
64.0946
63.7918
63.4269
65.4376
65.3084
65.2224
65.1595
65.0708
64.97
64.856
64.7187
64.551
64.3461
64.0961
63.7927
63.4283
62.9944
65.4094
65.3059
65.2216
65.1593
65.0725
64.9721
64.8581
64.7208
64.5531
64.3481
64.0981
63.7946
63.4291
62.9947
62.4838
65.3851
65.3029
65.2214
65.1596
65.0752
64.9753
64.8613
64.724
64.5561
64.351
64.1007
63.7971
63.4316
62.996
62.4831
61.8877
65.3642
65.3
65.222
65.1605
65.0791
64.98
64.8661
64.7287
64.5606
64.3551
64.1045
63.8005
63.4346
62.9986
62.4846
61.8859
61.1995
65.3468
65.2967
65.223
65.1623
65.0843
64.9868
64.8731
64.7357
64.5672
64.3612
64.1101
63.8055
63.4391
63.0025
62.4877
61.8876
61.1963
60.4133
65.3323
65.2928
65.2243
65.1648
65.0908
64.9961
64.8831
64.7458
64.577
64.3703
64.1183
63.8128
63.4455
63.0081
62.4925
61.8912
61.1983
60.4087
59.5249
65.3201
65.2886
65.2257
65.1679
65.0978
65.0073
64.8967
64.76
64.5911
64.3836
64.1304
63.8236
63.4549
63.0162
62.4994
61.897
61.2025
60.4109
59.5187
58.5313
65.3098
65.2845
65.2271
65.1716
65.1055
65.0195
64.9134
64.7796
64.6108
64.4026
64.148
63.8394
63.4687
63.0281
62.5095
61.9054
61.2092
60.4157
59.5212
58.5236
57.4317
65.3016
65.2807
65.2286
65.1759
65.1139
65.0328
64.9315
64.8033
64.6379
64.4293
64.1732
63.8623
63.489
63.0455
62.5242
61.9177
61.2194
60.4236
59.5266
58.5262
57.422
56.2265
65.2953
65.2774
65.2303
65.1807
65.1229
65.0472
64.9514
64.8291
64.6707
64.4657
64.2085
63.895
63.5183
63.0709
62.5457
61.9356
61.234
60.4354
59.5356
58.5322
57.4249
56.215
54.919
65.2904
65.2747
65.2319
65.1859
65.1324
65.0623
64.9727
64.8573
64.7065
64.5101
64.2567
63.9408
63.5601
63.1078
62.5772
61.9617
61.2554
60.4526
59.5492
58.5423
57.4314
56.218
54.9054
53.5142
65.2865
65.2726
65.2335
65.1911
65.1424
65.0782
64.9953
64.8877
64.7456
64.5585
64.3154
64.0035
63.6186
63.1603
62.6227
61.9999
61.2866
60.4776
59.569
58.5576
57.4425
56.2249
54.9085
53.4984
52.024
65.2834
65.271
65.2349
65.1961
65.1523
65.0946
65.0189
64.9199
64.7877
64.6115
64.3796
64.0799
63.6987
63.2336
62.6875
62.0552
61.3322
60.5142
59.5978
58.58
57.4595
56.2369
54.9156
53.5013
52.0044
50.4763
65.281
65.2697
65.2363
65.2007
65.1614
65.1106
65.0434
64.9535
64.8323
64.6685
64.4499
64.1634
63.7963
63.3343
62.7781
62.1339
61.3982
60.5678
59.64
58.6125
57.4843
56.2554
54.9282
53.5081
52.0048
50.4158
48.8147
65.279
65.2686
65.2376
65.2048
65.1697
65.1253
65.0673
64.9884
64.879
64.7289
64.5256
64.255
63.9032
63.4572
62.9026
62.2441
61.4923
60.6453
59.7017
58.6603
57.5203
56.2822
54.9476
53.5208
52.0102
50.4217
48.7452
47.0233
65.2773
65.2678
65.2387
65.2086
65.1772
65.1386
65.0893
65.0225
64.9273
64.7922
64.6059
64.3538
64.0207
63.5919
63.0548
62.3957
61.6243
60.7561
59.7914
58.7304
57.5734
56.3213
54.9759
53.5404
52.0213
50.4242
48.7506
46.998
45.1731
65.276
65.2672
65.2396
65.212
65.1839
65.1506
65.1091
65.0538
64.9746
64.8578
64.6901
64.4587
64.1475
63.7401
63.222
62.5815
61.8061
60.9118
59.9199
58.8325
57.6517
56.3792
55.0174
53.5692
52.0394
50.4321
48.7458
46.9874
45.1627
43.2746
65.2749
65.2667
65.2404
65.2151
65.1899
65.1612
65.1269
65.0821
65.0181
64.922
64.7773
64.5688
64.2823
63.9003
63.4062
62.7858
62.0294
61.1268
60.1008
58.9792
57.7662
56.4651
55.0793
53.6119
52.0671
50.4477
48.7517
46.9787
45.1467
43.2684
41.1297
65.2739
65.2662
65.2411
65.218
65.1953
65.1707
65.1428
65.1075
65.0573
64.981
64.8629
64.683
64.4239
64.0709
63.6056
63.0114
62.2756
61.3915
60.3513
59.1865
57.9312
56.5912
55.1716
53.6764
52.1093
50.4731
48.7659
46.9854
45.1385
43.2506
41.1268
38.7121
65.2731
65.2659
65.2417
65.2205
65.2001
65.1792
65.1569
65.1301
65.0925
65.0343
64.9416
64.795
64.5709
64.2504
63.8183
63.2561
62.5481
61.684
60.6607
59.4743
58.165
56.774
55.3083
53.7738
52.1747
50.5136
48.7895
46.9996
45.1466
43.2436
41.1101
38.7113
36.2757
65.2725
65.2656
65.2423
65.2228
65.2043
65.1867
65.1694
65.1502
65.1239
65.0821
65.0126
64.8982
64.7155
64.437
64.0425
63.5177
62.8442
62.0084
61.0035
59.8308
58.491
57.0342
55.5077
53.9195
52.2753
50.5783
48.8283
47.0224
45.1611
43.2513
41.103
38.6959
36.2765
33.85
65.2719
65.2653
65.2429
65.2248
65.208
65.1933
65.1806
65.1682
65.1519
65.1248
65.0765
64.9914
64.8487
64.6208
64.276
63.7938
63.1614
62.362
61.3847
60.2271
58.8965
57.3985
55.7931
54.1336
52.4279
50.6805
48.892
47.0601
45.1837
43.2654
41.1079
38.6883
36.2629
33.8511
31.4584
65.2651
65.2712
65.2434
65.2265
65.2113
65.1992
65.1905
65.184
65.1767
65.1629
65.1335
65.0752
64.9692
64.7902
64.5064
64.0821
63.4971
62.7417
61.8012
60.6691
59.3486
57.8535
56.1948
54.4424
52.6547
50.838
48.9947
47.1229
45.2206
43.2874
41.1201
38.6904
36.2548
33.8385
31.4592
29.1162
65.2439
65.2649
65.2705
65.228
65.2143
65.2045
65.1992
65.1981
65.1988
65.1967
65.1844
65.1502
65.0776
64.9438
64.7191
64.3671
63.8484
63.1444
62.2498
61.1536
59.8547
58.3629
56.6989
54.8795
52.9843
51.0749
49.1555
47.2254
45.2821
43.3226
41.1397
38.6995
36.2541
33.8294
31.4473
29.1165
26.8351
65.2293
65.2446
65.2646
65.2698
65.2169
65.2091
65.207
65.2106
65.2184
65.2267
65.2296
65.2171
65.1747
65.0822
64.9123
64.6308
64.1964
63.567
62.727
61.6771
60.4113
58.9351
57.2655
55.4311
53.4539
51.4224
49.4002
47.388
45.3834
43.3815
41.1713
38.7146
36.2594
33.8253
31.4367
29.1049
26.8347
24.625
65.2191
65.2311
65.2456
65.2644
65.2691
65.2132
65.2138
65.2216
65.2357
65.2534
65.2697
65.2766
65.2614
65.2062
65.0865
64.8706
64.5192
63.9869
63.2293
62.2357
61.0145
59.5665
57.9046
56.0538
54.0501
51.9209
49.7621
47.6379
45.5458
43.4798
41.2253
38.7398
36.2688
33.8259
31.4287
29.0925
26.8231
24.6238
22.4945
65.2167
65.2222
65.2333
65.2465
65.2642
65.2685
65.2199
65.2314
65.2511
65.277
65.3053
65.3294
65.3385
65.3169
65.2428
65.0872
64.8133
64.3773
63.7298
62.8255
61.6606
60.2536
58.6126
56.759
54.7263
52.5576
50.2851
48.0106
45.7979
43.6395
41.3176
38.7853
36.2858
33.8283
31.4236
29.0804
26.8087
24.6121
22.4925
20.4499
65.2251
65.2213
65.2256
65.2353
65.2475
65.2641
65.2679
65.2401
65.2647
65.2979
65.3369
65.3763
65.4071
65.4156
65.3826
65.2819
65.0795
64.7338
64.1965
63.4152
62.3452
60.9921
59.3858
57.5435
55.4954
53.2834
50.9574
48.5531
46.1771
43.8902
41.4709
38.8672
36.3202
33.8355
31.4179
29.0689
26.7921
24.5955
22.4806
20.447
18.4953
65.2475
65.2318
65.2264
65.229
65.2374
65.2485
65.2639
65.2673
65.2767
65.3165
65.3649
65.4179
65.4679
65.5034
65.5073
65.4561
65.3191
65.0572
64.6239
63.967
63.0324
61.7777
60.2203
58.4037
56.3546
54.1126
51.7275
49.2548
46.7332
44.2711
41.7158
39.0085
36.3882
33.8566
31.4136
29.0539
26.7738
24.5744
22.4616
20.4349
18.4916
16.6333
65.2871
65.2569
65.239
65.2314
65.2323
65.2394
65.2494
65.2637
65.2668
65.3329
65.3898
65.4548
65.5219
65.5814
65.6182
65.6117
65.5339
65.3488
65.0124
64.4737
63.6774
62.5695
61.1119
59.3362
57.3009
55.043
52.6112
50.0623
47.4569
44.8343
42.093
39.2407
36.5129
33.9076
31.4193
29.0368
26.749
24.549
22.4359
20.4134
18.4792
16.6289
14.8649
65.3469
65.2999
65.2665
65.246
65.2364
65.2356
65.2414
65.2503
65.2636
65.2664
65.4118
65.4876
65.5699
65.6506
65.7169
65.7504
65.726
65.6107
65.3635
64.9355
64.2717
63.3155
62.0143
60.3368
58.3313
56.0724
53.6073
50.9934
48.294
45.5717
42.6561
39.6055
36.7263
34.0118
31.4506
29.0253
26.718
24.5137
22.4033
20.3832
18.4552
16.616
14.8598
13.19
65.4305
65.3642
65.3126
65.276
65.2528
65.2412
65.2388
65.2433
65.2513
65.2635
65.2659
65.5166
65.6126
65.7121
65.8045
65.8738
65.8973
65.8453
65.6795
65.3538
64.815
64.0054
62.8681
61.3543
59.4422
57.1985
54.7147
52.0481
49.264
46.4292
43.3989
40.1567
37.0702
34.201
31.5308
29.0348
26.688
24.4682
22.3573
20.3432
18.4205
16.5896
14.8466
13.1842
11.6075
65.5413
65.4535
65.3807
65.325
65.2852
65.2595
65.2458
65.2419
65.2451
65.2522
65.2634
65.2655
65.6503
65.7668
65.8825
65.9835
66.05
66.0548
65.9629
65.7312
65.3085
64.6379
63.6605
62.3213
60.5774
58.4186
55.9322
53.2265
50.3683
47.4282
44.2685
40.8914
37.5975
34.5156
31.6907
29.088
26.674
24.4189
22.2968
20.2864
18.3732
16.5505
14.8178
13.1707
11.601
10.1154
65.6823
65.5713
65.4747
65.3969
65.3372
65.2941
65.2659
65.2503
65.2448
65.2468
65.253
65.2633
65.2652
65.8153
65.9519
66.0811
66.1858
66.2416
66.2165
66.0703
65.7546
65.2142
64.3896
63.2223
61.6611
59.6719
57.2581
54.5284
51.6084
48.5714
45.2878
41.7585
38.3088
35.0078
31.9688
29.2142
26.698
24.3804
22.2277
20.2107
18.3055
16.496
14.7743
13.1395
11.5872
10.1082
8.71103
65.8562
65.7211
65.5983
65.4954
65.4126
65.3488
65.3026
65.272
65.2545
65.2476
65.2485
65.2539
65.2632
65.2649
66.0133
66.1682
66.3068
66.4081
66.443
66.3742
66.1564
65.7366
65.056
64.0544
62.6753
60.8741
58.6273
55.954
52.9857
49.8619
46.461
42.7824
39.1565
35.6814
32.4154
29.4495
26.7867
24.3734
22.1641
20.1217
18.2148
16.4176
14.7129
13.092
11.5536
10.0941
8.70334
7.39142
66.065
65.906
65.7552
65.6245
65.5155
65.4275
65.3598
65.3106
65.2777
65.2586
65.2502
65.2501
65.2547
65.2631
65.2646
66.2451
66.4148
66.5566
66.6451
66.6461
66.5173
66.2081
65.6618
64.8175
63.6156
62.0042
59.9474
57.4344
54.5022
51.3031
47.7933
43.9687
40.1648
36.4929
33.0384
29.8416
26.974
24.4219
22.1248
20.0328
18.106
16.312
14.624
13.0237
11.5023
10.0584
8.68899
7.3832
6.15316
66.3098
66.1283
65.9487
65.7882
65.65
65.5345
65.4416
65.3702
65.3182
65.2832
65.2624
65.2527
65.2516
65.2554
65.263
65.2644
66.5101
66.6891
66.8254
66.889
66.8407
66.6326
66.2101
65.5132
64.4809
63.0563
61.1941
58.8693
56.0863
52.8992
49.2904
45.3252
41.3417
37.4659
33.7976
30.4017
27.3041
24.557
22.1312
19.9605
17.9918
16.1839
14.5038
12.9246
11.4274
10.0033
8.6511
7.36862
6.14445
4.99277
66.5902
66.3896
66.1814
65.9899
65.8201
65.674
65.5523
65.4548
65.3798
65.3252
65.2882
65.2659
65.255
65.2529
65.256
65.263
65.2642
66.8061
66.9866
67.1062
67.1301
67.0137
66.7048
66.1448
65.2725
64.028
62.3596
60.2309
57.6302
54.5762
50.959
46.8605
42.697
38.6098
34.7156
31.0935
27.7903
24.8189
22.211
19.9234
17.8863
16.0447
14.3569
12.7905
11.3185
9.92215
8.59264
7.32868
6.12965
4.98358
3.90651
66.9042
66.69
66.4553
66.2327
66.0298
65.8501
65.6962
65.5688
65.4669
65.3887
65.3317
65.2929
65.2691
65.2571
65.254
65.2566
65.263
65.2641
67.1287
67.3004
67.3892
67.3554
67.1498
66.716
65.9931
64.92
63.4403
61.5094
59.1024
56.2197
52.7246
48.5852
44.2426
39.9364
35.8023
31.937
28.4006
25.2217
22.3998
19.9461
17.8052
15.9061
14.1933
12.6255
11.171
9.80391
8.50543
7.26703
6.08778
4.96854
3.89669
2.89056
67.2478
67.0283
66.771
66.5188
66.2822
66.067
65.8777
65.7166
65.5838
65.4779
65.3968
65.3375
65.297
65.2719
65.2588
65.255
65.2571
65.263
65.2639
67.4715
67.6212
67.6619
67.5497
67.2311
66.6466
65.7345
64.4358
62.6997
60.491
57.7951
54.4668
50.4251
45.991
41.4583
37.0691
32.9409
29.1506
25.7376
22.7111
20.0579
17.7696
15.781
14.0221
12.4381
10.9887
9.6437
8.3783
7.17412
6.02317
4.92485
3.88135
2.87948
1.94252
67.6146
67.4011
67.1277
66.8494
66.5799
66.3281
66.1011
65.9029
65.7351
65.5974
65.4878
65.404
65.3427
65.3006
65.2743
65.2603
65.2559
65.2575
65.2629
65.2638
67.8251
67.9366
67.9091
67.6948
67.2373
66.4752
65.3478
63.8
61.7888
59.288
56.1471
52.2532
47.8673
43.1876
38.5276
34.115
30.0467
26.3767
23.1218
20.2715
17.8018
15.6868
13.8536
12.2352
10.7783
9.44479
8.20605
7.03859
5.92488
4.85757
3.83603
2.86403
1.92728
1.15663
67.9955
67.8029
67.5229
67.2243
66.9247
66.6365
66.3699
66.1319
65.9254
65.7516
65.6093
65.4965
65.4102
65.347
65.3035
65.2763
65.2616
65.2566
65.2579
65.2629
65.2638
68.1775
68.2316
68.1127
67.7704
67.1464
66.1794
64.8111
62.9929
60.6895
57.7474
54.0239
49.738
45.0506
40.1904
35.4708
31.0978
27.1433
23.6357
20.5685
17.9135
15.638
13.701
12.0241
10.5447
9.21244
7.99143
6.855
5.78147
4.75425
3.76639
2.81743
1.913
1.14983
0.494252
68.3786
68.2257
67.9519
67.6416
67.3168
66.9941
66.6877
66.4075
66.1592
65.9453
65.7659
65.6196
65.5038
65.4153
65.3505
65.306
65.2779
65.2626
65.2571
65.2582
65.2629
65.2637
68.5136
68.4879
68.252
67.7536
66.935
65.7358
64.1032
61.9945
59.2546
55.7137
51.554
46.9167
41.9948
37.027
32.3187
28.0472
24.2562
20.9469
18.0912
15.6453
13.5709
11.814
10.2924
8.94925
7.73807
6.62552
5.58723
4.60346
3.65838
2.74584
1.86538
1.14173
0.498255
-0.200775
68.7485
68.6586
68.4075
68.0975
67.7551
67.4018
67.0566
66.7333
66.4406
66.183
65.9622
65.7779
65.628
65.5096
65.4192
65.3532
65.3079
65.2793
65.2634
65.2576
65.2584
65.2629
65.2636
68.815
68.6849
68.3036
67.6203
66.5781
65.1216
63.2013
60.6607
57.3068
53.2931
48.7439
43.8261
38.7423
33.7395
29.1095
24.9951
21.4097
18.3275
15.701
13.4737
11.6034
10.026
8.65716
7.44661
6.35219
5.34375
4.39925
3.50073
2.63347
1.79229
1.09323
0.492176
-0.200296
-0.948619
69.0869
69.0878
68.8799
68.5858
68.2366
67.8591
67.4782
67.1121
66.7732
66.469
66.2029
65.9761
65.7875
65.6344
65.5139
65.4222
65.3553
65.3093
65.2803
65.2641
65.2581
65.2586
65.2629
65.2636
69.0605
68.7986
68.2427
67.3441
66.0516
64.3105
61.9621
58.7953
54.9436
50.5179
45.6543
40.5238
35.3447
30.3734
25.8813
21.9716
18.6256
15.7923
13.4068
11.4029
9.7368
8.33646
7.11646
6.03383
5.05149
4.1426
3.28719
2.46947
1.67586
1.01953
0.444091
-0.21051
-0.954629
-1.76565
69.3718
69.496
69.3564
69.0981
68.7561
68.3638
67.9523
67.5456
67.1603
66.8071
66.4924
66.2189
65.9868
65.7944
65.6388
65.5168
65.4242
65.3567
65.3103
65.2811
65.2646
65.2584
65.2588
65.2629
65.2636
69.2256
68.8034
68.0419
66.8994
65.3251
63.159
60.1773
56.5004
52.2295
47.4681
42.3486
37.0612
31.8472
26.9688
22.6678
19.0024
15.9223
13.3528
11.215
9.43552
7.97106
6.74348
5.66743
4.70765
3.83247
3.01818
2.2472
1.50596
0.899672
0.36944
-0.258943
-0.970029
-1.77506
-2.65685
69.5781
69.863
69.8211
69.6228
69.3063
68.9116
68.4776
68.0343
67.6038
67.2007
66.8347
66.5108
66.2308
65.9941
65.7987
65.6415
65.5185
65.4253
65.3576
65.311
65.2816
65.2649
65.2586
65.2589
65.2629
65.2635
69.2837
68.6712
67.674
66.2517
64.2545
61.454
57.9618
53.8706
49.2527
44.2006
38.8677
33.4755
28.2866
23.5603
19.4977
16.1092
13.3144
11.0178
9.12974
7.57262
6.30505
5.24452
4.30688
3.46458
2.69122
1.96658
1.27551
0.725009
0.246742
-0.335274
-1.02005
-1.79302
-2.66757
-3.62488
69.6779
70.1655
70.2549
70.1455
69.8769
69.4963
69.0506
68.5774
68.1047
67.6523
67.2332
66.8557
66.5238
66.2382
65.9981
65.8008
65.6426
65.5192
65.4258
65.358
65.3113
65.2818
65.2651
65.2588
65.259
65.2629
65.2635
69.205
68.3728
67.101
65.2568
62.6289
59.3265
55.4329
50.9907
46.0554
40.7414
35.2373
29.7963
24.6949
20.1777
16.3954
13.3098
10.813
8.79304
7.15314
5.8137
4.73659
3.8366
3.03138
2.30071
1.62384
0.984002
0.487881
0.0680711
-0.461151
-1.09909
-1.84479
-2.68627
-3.63636
-4.67482
69.6395
70.3776
70.6356
70.6488
70.4551
70.109
69.6662
69.1725
68.663
68.1631
67.6907
67.2575
66.87
66.5312
66.2415
65.9992
65.8009
65.6424
65.5189
65.4256
65.3579
65.3113
65.2819
65.2654
65.259
65.2591
65.2629
65.2636
68.9577
67.867
66.1783
63.7114
60.5948
56.9082
52.6643
47.8859
42.6497
37.1048
31.4782
26.0508
21.1012
16.8472
13.3813
10.6177
8.42592
6.68209
5.28556
4.15704
3.26295
2.51637
1.83698
1.21208
0.626486
0.187505
-0.174622
-0.64424
-1.22865
-1.92718
-2.73948
-3.65572
-4.68691
-5.81351
69.427
70.4708
70.9379
71.1119
71.025
70.7382
70.3166
69.8151
69.2767
68.7336
68.209
67.7189
67.2732
66.8772
66.5335
66.2412
65.9978
65.7993
65.6409
65.5177
65.4248
65.3573
65.3111
65.2822
65.2657
65.2591
65.2591
65.2629
65.2636
68.4966
67.0079
64.7146
61.7737
58.2906
54.2577
49.666
44.5574
39.0404
33.3039
27.6124
22.2661
17.5331
13.5918
10.4715
8.04276
6.15808
4.68621
3.5258
2.60015
1.88088
1.27993
0.71973
0.194831
-0.182031
-0.482505
-0.892967
-1.41669
-2.06091
-2.82526
-3.71032
-4.70731
-5.82594
-7.04824
68.9899
70.4137
71.1338
71.5111
71.5676
71.3696
70.9918
70.4989
69.9425
69.3626
68.7888
68.2421
67.7364
67.2801
66.8781
66.5313
66.2379
65.9943
65.7962
65.6384
65.5158
65.4233
65.3565
65.3114
65.2828
65.2659
65.2591
65.259
65.2629
65.2636
67.6738
65.621
62.8756
59.5834
55.7595
51.3733
46.4318
41.0035
35.2338
29.3544
23.664
18.4705
14.0165
10.4312
7.67868
5.59182
4.01187
2.80481
1.8717
1.13989
0.586525
0.123293
-0.324299
-0.629843
-0.862188
-1.20899
-1.67204
-2.25449
-2.96345
-3.79936
-4.76343
-5.84729
-7.06082
-8.38656
70.1615
68.1811
71.1908
71.8197
72.0607
71.9859
71.6791
71.2151
70.6551
70.0476
69.4295
68.8281
68.2619
67.743
67.2792
66.8735
66.5253
66.2318
65.9889
65.7918
65.6349
65.513
65.4215
65.3566
65.3121
65.2831
65.2659
65.259
65.259
65.2629
65.2637
66.3321
63.8752
60.7981
57.1704
52.9912
48.2443
42.9556
37.2246
31.2396
25.2762
19.6603
14.6925
10.5753
7.38168
5.01206
3.26867
1.98743
1.03607
0.320274
-0.227613
-0.624188
-0.957505
-1.17067
-1.32357
-1.59967
-1.99691
-2.5171
-3.16312
-3.94224
-4.85579
-5.9052
-7.08286
-8.39926
-9.83626
71.0671
69.5777
66.851
72.0065
72.4795
72.5666
72.3629
71.9525
71.4069
70.7841
70.1295
69.4771
68.8512
68.2684
67.74
67.2715
66.8641
66.5159
66.2234
65.9819
65.7861
65.6302
65.5099
65.4214
65.3577
65.3125
65.2831
65.2658
65.2588
65.2588
65.2629
65.2638
64.6468
61.9021
58.5018
54.5181
49.9729
44.862
39.2336
33.2248
27.0721
21.0939
15.6312
10.9604
7.23099
4.45633
2.47775
1.07458
0.0833947
-0.622875
-1.1324
-1.50653
-1.75532
-1.83358
-1.88263
-2.07571
-2.39951
-2.8516
-3.43366
-4.14851
-5.00367
-6.00115
-7.14275
-8.42195
-9.84909
-11.4054
72.0316
70.6481
68.5376
65.1929
72.7947
73.0887
73.0244
72.6972
72.1882
71.566
70.8851
70.1878
69.5047
68.858
68.2631
67.7287
67.258
66.8506
66.5037
66.2131
65.9733
65.7789
65.6252
65.5093
65.4229
65.3583
65.3125
65.2828
65.2654
65.2586
65.2587
65.2629
65.2639
62.7446
59.7145
55.9653
51.6128
46.6947
41.2201
35.265
29.0121
22.7506
16.8362
11.6083
7.30128
4.00221
1.66495
0.0789734
-0.990984
-1.70284
-2.17598
-2.49062
-2.70109
-2.67193
-2.57045
-2.6545
-2.89142
-3.26713
-3.77864
-4.42766
-5.21708
-6.15445
-7.24256
-8.48383
-9.8725
-11.4183
-13.1022
72.9693
71.7978
69.7865
67.1802
63.3292
73.5252
73.6425
73.4323
72.9868
72.3848
71.6913
70.9575
70.2218
69.5125
68.8504
68.2478
67.7104
67.2396
66.8338
66.4892
66.2008
65.9629
65.7712
65.624
65.5114
65.4238
65.3583
65.3121
65.2823
65.2652
65.2584
65.2584
65.2629
65.264
60.6323
57.287
53.1752
48.4449
43.1494
37.3145
31.0519
24.5989
18.2997
12.5353
7.62363
3.74029
0.904159
-0.985953
-2.18318
-2.93003
-3.3752
-3.62771
-3.75878
-3.66869
-3.44272
-3.36926
-3.49155
-3.7762
-4.20817
-4.78403
-5.50553
-6.37556
-7.40175
-8.58766
-9.93637
-11.4425
-13.1152
-14.935
73.8426
72.9255
71.1572
68.6106
65.609
61.2629
74.1922
74.1383
73.7877
73.2299
72.5408
71.782
71.0004
70.2317
69.5028
68.8305
68.2238
67.6861
67.2171
66.8141
66.4723
66.1862
65.9519
65.7692
65.6267
65.5125
65.4238
65.3577
65.3114
65.282
65.2649
65.2581
65.2582
65.263
65.2641
58.2795
54.6068
50.1232
45.0074
39.331
33.1423
26.599
20.0024
13.7487
8.22632
3.70881
0.299407
-2.05164
-3.49254
-4.30953
-4.74619
-4.93824
-4.98272
-4.78553
-4.48214
-4.27821
-4.23538
-4.39937
-4.73577
-5.22868
-5.87423
-6.67405
-7.63114
-8.75313
-10.0443
-11.5083
-13.14
-14.9479
-16.9121
74.6443
73.9843
72.5162
70.2074
67.2262
63.8399
58.9583
74.7927
74.5731
74.0881
73.4247
72.6555
71.8374
71.0143
70.2205
69.4783
68.8003
68.1926
67.6568
67.1911
66.7915
66.4525
66.171
65.9487
65.7728
65.6283
65.5125
65.4229
65.3566
65.3111
65.2818
65.2646
65.2577
65.2579
65.263
65.2643
55.6744
51.6678
46.8036
41.2943
35.2338
28.7014
21.914
15.2448
9.13192
3.9459
-0.106624
-3.00317
-4.8569
-5.85339
-6.30288
-6.44393
-6.39687
-6.07934
-5.64839
-5.36371
-5.18386
-5.17451
-5.38379
-5.77626
-6.3352
-7.05608
-7.94044
-8.9914
-10.2165
-11.6207
-13.2079
-14.9734
-16.9245
-19.0423
75.37
74.9652
73.8021
71.8043
69.0512
65.6681
61.8386
56.4028
75.3226
74.9436
74.3314
73.5702
72.7277
71.8575
71.0025
70.1913
69.4412
68.7614
68.1555
67.6233
67.1616
66.7653
66.432
66.1663
65.9534
65.7748
65.6283
65.5114
65.4214
65.3565
65.3113
65.2816
65.2641
65.2572
65.2575
65.263
65.2645
52.813
48.4668
43.2121
37.2989
30.8508
23.9897
17.0082
10.3548
4.48819
-0.269158
-3.79636
-6.1529
-7.5065
-8.06973
-8.16722
-8.02825
-7.57704
-7.00055
-6.58321
-6.31896
-6.16548
-6.19256
-6.451
-6.90423
-7.53458
-8.33683
-9.3123
-10.4642
-11.8
-13.3248
-15.0432
-16.9501
-19.0518
-21.7352
76.0144
75.8628
75.0052
73.3252
70.8854
67.742
63.9036
59.5933
53.594
75.7779
75.2471
74.5163
73.6649
72.7575
71.8468
70.9691
70.147
69.3937
68.7153
68.1134
67.5858
67.1279
66.7384
66.4254
66.1722
65.956
65.7748
65.6267
65.5094
65.4216
65.3573
65.3114
65.2811
65.2634
65.2566
65.2571
65.263
65.2647
49.6944
45.0018
39.3425
33.0117
26.1712
19.0052
11.8988
5.36778
-0.14083
-4.38375
-7.3377
-9.13918
-9.99882
-10.1444
-9.90741
-9.31002
-8.56809
-7.99818
-7.59569
-7.35384
-7.22911
-7.29582
-7.60763
-8.12661
-8.83409
-9.72407
-10.7975
-12.0577
-13.5117
-15.1648
-17.0217
-19.0775
-21.7481
-24.9383
76.5724
76.6699
76.121
74.7596
72.6401
69.8277
66.2499
61.9166
57.1058
50.5324
76.1552
75.4817
74.6408
73.7089
72.7501
71.81
70.9175
70.0902
69.3376
68.6634
68.0666
67.5431
67.0933
66.7294
66.4329
66.1755
65.956
65.7728
65.624
65.5099
65.4234
65.3579
65.311
65.2803
65.2626
65.2559
65.2566
65.2631
65.2649
46.3187
41.2692
35.1861
28.4168
21.1815
13.7507
6.61169
0.325852
-4.71203
-8.36527
-10.7123
-11.9559
-12.3347
-12.0818
-11.3154
-10.386
-9.64089
-9.07819
-8.69193
-8.4745
-8.38113
-8.49097
-8.86061
-9.45064
-10.2413
-11.2257
-12.4042
-13.7801
-15.3597
-17.1483
-19.1501
-21.7794
-24.9549
-28.196
77.0397
77.3783
77.1411
76.1036
74.3036
71.8284
68.6061
64.5551
59.7086
54.3831
47.2203
76.452
75.6449
74.7045
73.708
72.7113
71.7513
70.8508
70.0231
69.2746
68.6058
68.0134
67.4993
67.0815
66.7389
66.4371
66.1756
65.9534
65.7692
65.6252
65.5131
65.4249
65.358
65.3104
65.2793
65.2616
65.2551
65.2561
65.2632
65.2652
42.685
37.2627
30.7268
23.4939
15.8718
8.23937
1.18386
-4.72271
-9.18204
-12.185
-13.9072
-14.6004
-14.5172
-13.6496
-12.497
-11.5503
-10.8017
-10.2469
-9.87822
-9.68743
-9.62829
-9.78495
-10.2172
-10.8839
-11.7641
-12.8497
-14.1405
-15.6393
-17.3516
-19.2817
-21.8573
-24.9893
-28.2089
-31.4609
77.4131
77.9811
78.0555
77.3481
75.8728
73.7316
70.8711
67.1961
62.6585
57.2897
51.4353
43.6592
76.6647
75.7357
74.7144
73.6693
72.6462
71.6744
70.7718
69.9478
69.2049
68.5407
67.959
67.4842
67.0932
66.744
66.4371
66.1722
65.9488
65.7714
65.6304
65.5159
65.4257
65.3576
65.3093
65.278
65.2603
65.2541
65.2554
65.2632
65.2656
38.7897
32.9706
25.9401
18.2163
10.231
2.49249
-4.33687
-9.72467
-13.5094
-15.8202
-16.9141
-17.0734
-16.2836
-14.9649
-13.7749
-12.8095
-12.0572
-11.5106
-11.1611
-10.9994
-10.9775
-11.1849
-11.6848
-12.4341
-13.4104
-14.6042
-16.0143
-17.6431
-19.4939
-21.9979
-25.0743
-28.2402
-31.4717
-34.7056
77.6881
78.4726
78.8544
78.4821
77.3386
75.5336
73.0336
69.7381
65.5965
60.5713
54.6754
48.273
39.8486
76.7915
75.762
74.6789
73.5991
72.5594
71.583
70.6831
69.8646
69.1263
68.4741
67.9399
67.4985
67.0996
66.7441
66.4329
66.1663
65.9521
65.7791
65.6351
65.5179
65.4259
65.3567
65.3079
65.2763
65.2589
65.2529
65.2547
65.2633
65.266
34.6248
28.3659
20.784
12.5435
4.24718
-3.4614
-9.89354
-14.6247
-17.6576
-19.2536
-19.7295
-19.0753
-17.7649
-16.3869
-15.1564
-14.1706
-13.4138
-12.8762
-12.5475
-12.4173
-12.4359
-12.6983
-13.2711
-14.109
-15.188
-16.497
-18.0334
-19.7979
-22.2224
-25.2264
-28.3256
-31.5022
-34.7155
-37.915
77.8615
78.8461
79.5283
79.4942
78.6899
77.2247
75.0891
72.1725
68.4244
63.8186
58.3118
51.8846
44.9073
35.787
76.8412
75.7338
74.6055
73.5027
72.455
71.4799
70.585
69.7709
69.0458
68.4504
67.9574
67.5063
67.0996
66.7389
66.4254
66.1711
65.9632
65.7863
65.6386
65.519
65.4254
65.3553
65.306
65.2743
65.2571
65.2516
65.2539
65.2634
65.2664
30.1692
23.407
15.202
6.43135
-2.07934
-9.57786
-15.4207
-19.3688
-21.596
-22.4746
-22.0095
-20.7532
-19.365
-17.9231
-16.6485
-15.6402
-14.8784
-14.3504
-14.0441
-13.9481
-14.0106
-14.3324
-14.9836
-15.9163
-17.1046
-18.5354
-20.204
-22.5422
-25.4666
-28.4836
-31.5882
-34.7468
-37.9237
-41.0707
77.9431
79.0961
80.0652
80.3728
79.9148
78.7932
77.0271
74.4957
71.1375
66.9402
61.8817
55.903
48.9369
41.351
31.4645
76.8258
75.6601
74.5008
73.3854
72.3367
71.3657
70.4746
69.6748
69.0168
68.4715
67.9667
67.5063
67.0932
66.7294
66.4322
66.1865
65.9737
65.792
65.6411
65.5192
65.4242
65.3533
65.3036
65.272
65.2551
65.2502
65.2531
65.2636
65.2669
25.3914
18.0399
9.1271
-0.157295
-8.72705
-15.7921
-20.8475
-23.9062
-25.3018
-25.0849
-23.9193
-22.5644
-21.0921
-19.5808
-18.2581
-17.2252
-16.4578
-15.94
-15.6578
-15.5988
-15.7087
-16.0944
-16.8294
-17.863
-19.1671
-20.7255
-22.9678
-25.8052
-28.7348
-31.7507
-34.8348
-37.9558
-41.0782
-44.1507
77.9472
79.2333
80.4519
81.1017
81.0008
80.2265
78.8341
76.6973
73.7344
69.9362
65.3045
59.8102
53.3693
45.8519
37.6116
26.86
76.7559
75.549
74.3709
73.2514
72.2054
71.2371
70.3613
69.64
69.0422
68.4827
67.9667
67.4985
67.0815
66.7386
66.4529
66.2013
65.9823
65.7964
65.6425
65.5186
65.4222
65.3505
65.3006
65.2692
65.2528
65.2486
65.2522
65.2637
65.2674
20.2446
12.1846
2.47296
-7.24483
-15.6505
-22.0218
-26.0999
-28.194
-28.3082
-27.2697
-25.9785
-24.517
-22.9534
-21.3666
-19.9918
-18.932
-18.1583
-17.6514
-17.3952
-17.3759
-17.5368
-17.9911
-18.8153
-19.9557
-21.381
-23.5125
-26.252
-29.088
-32.0106
-35.003
-38.0454
-41.1106
-44.1568
-47.1314
77.8861
79.275
80.6965
81.6598
81.9278
81.5119
80.4953
78.7634
76.2059
72.8079
68.586
63.5424
57.6315
50.7351
42.6501
33.6911
21.9423
76.641
75.4075
74.2212
73.1021
72.0572
71.1049
70.32
69.6702
69.0554
68.4827
67.9574
67.4841
67.0936
66.7659
66.4729
66.2136
65.9893
65.7995
65.6427
65.5169
65.4193
65.3471
65.2971
65.266
65.2503
65.2469
65.2513
65.2638
65.268
14.6573
5.72032
-4.86558
-14.8304
-22.7779
-28.163
-31.1063
-31.6777
-30.8218
-29.6224
-28.1951
-26.6175
-24.9546
-23.2866
-21.8556
-20.7669
-19.9863
-19.4908
-19.2623
-19.2856
-19.5012
-20.0284
-20.9471
-22.1993
-24.1956
-26.8203
-29.551
-32.3743
-35.2712
-38.2187
-41.201
-44.1891
-47.1361
-49.9904
77.7712
79.2366
80.8178
82.0508
82.6676
82.6273
81.9955
80.6779
78.54
75.5494
71.7312
67.1116
61.6824
55.3733
48.0262
39.3539
29.5914
16.6679
76.4898
75.2423
74.0533
72.9331
71.9044
71.0563
70.3556
69.6857
69.0554
68.4715
67.9398
67.4997
67.1286
66.7922
66.4899
66.2239
65.9946
65.8011
65.6416
65.5139
65.4154
65.3428
65.293
65.2624
65.2476
65.2451
65.2504
65.264
65.2686
8.52053
-1.53865
-13.0038
-22.8761
-29.994
-34.0878
-35.1952
-34.5859
-33.5223
-32.1494
-30.5737
-28.8701
-27.1007
-25.3459
-23.8549
-22.7351
-21.947
-21.4637
-21.2646
-21.3331
-21.607
-22.2113
-23.2289
-25.0483
-27.5304
-30.1365
-32.848
-35.643
-38.4938
-41.3779
-44.2795
-47.1681
-49.9935
-52.7055
77.6128
79.1321
80.8345
82.2927
83.2198
83.5391
83.3084
82.4232
80.7211
78.1514
74.7383
70.5273
65.5412
59.7538
53.0638
45.2699
35.9856
25.3129
10.9745
76.3099
75.0556
73.8623
72.7582
71.848
71.0983
70.3738
69.6857
69.0422
68.4503
67.9595
67.544
67.1626
66.8149
66.5044
66.2322
65.9981
65.8009
65.6389
65.5097
65.4103
65.3376
65.2883
65.2586
65.2448
65.2433
65.2495
65.2642
65.2692
1.65348
-9.88707
-22.0275
-31.2771
-37.0918
-38.9496
-38.6108
-37.7036
-36.4121
-34.8519
-33.116
-31.2774
-29.3948
-27.5483
-25.9936
-24.841
-24.0449
-23.5744
-23.4063
-23.5226
-23.858
-24.5431
-26.1215
-28.4159
-30.8657
-33.4438
-36.1229
-38.8705
-41.6568
-44.4582
-47.2576
-50.0249
-52.707
-55.2557
77.4201
78.974
80.764
82.4036
83.6027
84.2449
84.3933
83.967
82.731
80.6011
77.6025
73.7931
69.2239
63.9046
57.7861
50.732
42.4939
32.568
20.8653
4.78212
76.1047
74.8421
73.6641
72.6935
71.897
71.1193
70.3738
69.6702
69.0167
68.4746
68.0145
67.587
67.1921
66.8346
66.5165
66.2382
65.9994
65.7988
65.6345
65.504
65.4041
65.3317
65.2832
65.2545
65.2419
65.2414
65.2485
65.2643
65.2699
-6.2553
-19.7921
-31.9534
-39.7136
-42.9739
-42.9987
-42.2591
-41.0315
-39.4871
-37.7261
-35.8205
-33.8394
-31.8379
-29.8953
-28.2744
-27.0874
-26.2829
-25.8258
-25.6903
-25.8565
-26.2562
-27.4929
-29.531
-31.7746
-34.1841
-36.723
-39.352
-42.0341
-44.7376
-47.4363
-50.1125
-52.7374
-55.2559
-57.622
77.1972
78.7733
80.6226
82.4014
83.834
84.7637
85.2452
85.2574
84.5334
82.8822
80.3151
76.9095
72.7398
67.8503
62.2314
55.8085
48.4046
39.7295
29.1367
16.2949
-2.01875
75.8682
74.6193
73.5904
72.7504
71.9213
71.1194
70.3557
69.6399
69.0464
68.5421
68.0681
67.6247
67.2181
66.8514
66.5258
66.2415
65.9982
65.7945
65.6282
65.4967
65.3968
65.3252
65.2777
65.2503
65.2388
65.2395
65.2476
65.2645
65.2706
-15.889
-32.0484
-42.2474
-46.9619
-47.8256
-47.2802
-46.1195
-44.5556
-42.7368
-40.7635
-38.6816
-36.5523
-34.4279
-32.3866
-30.6974
-29.475
-28.6621
-28.2191
-28.1172
-28.3353
-29.2818
-30.9573
-32.92
-35.1068
-37.4668
-39.9504
-42.5118
-45.111
-47.7127
-50.2887
-52.8222
-55.2847
-57.6203
-59.7824
76.9382
78.5349
80.4249
82.3041
83.9315
85.1144
85.8864
86.2823
86.0646
84.9564
82.8637
79.8735
76.0964
71.6075
66.4358
60.5502
53.8467
46.1118
37.0225
25.7319
11.6935
-9.61927
75.6201
74.5362
73.6561
72.7782
71.9214
71.0983
70.3198
69.6755
69.1279
68.6076
68.1151
67.6581
67.2406
66.8647
66.5317
66.2417
65.9942
65.7876
65.6198
65.4879
65.3887
65.3181
65.2719
65.2458
65.2356
65.2375
65.2466
65.2647
65.2713
-28.7938
-45.9627
-52.1594
-53.1689
-52.9394
-51.7557
-50.147
-48.2457
-46.1451