# Region type : patch inlet
# Faces  :    120
# Area   :    4.800000e-04
# Time        	average(p)
0             	0.000000e+00
0.000119048   	6.895984e+04
0.000260204   	2.991478e+02
0.000428132   	1.931701e+02
0.000627546   	1.489700e+02
0.000861857   	1.253879e+02
0.00113063    	1.109245e+02
0.00143647    	1.011276e+02
0.00177901    	9.396347e+01
0.00215269    	8.849912e+01
0.00256571    	8.397924e+01
0.00303035    	8.005045e+01
0.00352818    	7.676901e+01
0.0040675     	7.392431e+01
0.00460682    	7.158495e+01
0.00514614    	6.962549e+01
0.00568545    	6.795518e+01
0.00622477    	6.651840e+01
0.00676409    	6.527318e+01
0.00730341    	6.418996e+01
0.00784273    	6.325193e+01
0.00838205    	6.244039e+01
0.00892136    	6.173563e+01
0.00946068    	6.112312e+01
0.01          	6.059088e+01
0.0105556     	6.012119e+01
0.0111111     	5.972247e+01
0.0116667     	5.938606e+01
0.0122222     	5.910670e+01
0.0127778     	5.887674e+01
0.0133333     	5.869115e+01
0.0138889     	5.854683e+01
0.0144444     	5.843663e+01
0.015         	5.835582e+01
0.0155556     	5.830281e+01
0.0161111     	5.827067e+01
0.0166667     	5.826038e+01
0.0172222     	5.826746e+01
0.0177778     	5.829054e+01
0.0183333     	5.832420e+01
0.0188889     	5.836968e+01
0.0194444     	5.842728e+01
0.02          	5.848754e+01
0.0205882     	5.855457e+01
0.0211765     	5.862943e+01
0.0217647     	5.870678e+01
0.0223529     	5.878851e+01
0.0229412     	5.887305e+01
0.0235294     	5.896127e+01
0.0241176     	5.905106e+01
0.0247059     	5.913907e+01
0.0252941     	5.922874e+01
0.0258824     	5.931344e+01
0.0264706     	5.940294e+01
0.0270588     	5.948871e+01
0.0276471     	5.956866e+01
0.0282353     	5.964383e+01
0.0288235     	5.971889e+01
0.0294118     	5.979088e+01
0.03          	5.985463e+01
0.0305556     	5.991604e+01
0.0311111     	5.997285e+01
0.0316667     	6.002755e+01
0.0322222     	6.007941e+01
0.0327778     	6.012291e+01
0.0333333     	6.016956e+01
0.0338889     	6.021624e+01
0.0344444     	6.025866e+01
0.035         	6.028925e+01
0.0355556     	6.033024e+01
0.0361111     	6.036738e+01
0.0366667     	6.040908e+01
0.0372222     	6.043925e+01
0.0377778     	6.047347e+01
0.0383333     	6.050394e+01
0.0388889     	6.053472e+01
0.0394444     	6.056445e+01
0.04          	6.058603e+01
0.0405556     	6.061435e+01
0.0411111     	6.064274e+01
0.0416667     	6.067260e+01
0.0422222     	6.070124e+01
0.0427778     	6.073378e+01
0.0433333     	6.076319e+01
0.0438889     	6.078424e+01
0.0444444     	6.082114e+01
0.045         	6.085430e+01
0.0455556     	6.088078e+01
0.0461111     	6.091802e+01
0.0466667     	6.095806e+01
0.0472222     	6.100350e+01
0.0477778     	6.104741e+01
0.0483333     	6.108652e+01
0.0488889     	6.113912e+01
0.0494444     	6.120023e+01
0.05          	6.126152e+01
0.0505556     	6.131987e+01
0.0511111     	6.139564e+01
0.0516667     	6.147514e+01
0.0522222     	6.155245e+01
0.0527778     	6.164608e+01
0.0533333     	6.175001e+01
0.0538889     	6.186371e+01
0.0544444     	6.199199e+01
0.055         	6.211627e+01
0.0555556     	6.226698e+01
0.0561111     	6.243199e+01
0.0566667     	6.261241e+01
0.0572222     	6.280814e+01
0.0577778     	6.302527e+01
0.0583333     	6.325879e+01
0.0588889     	6.350082e+01
0.0594444     	6.377455e+01
0.06          	6.406945e+01
0.0605556     	6.438458e+01
0.0611111     	6.472343e+01
0.0616667     	6.507101e+01
0.0622222     	6.544845e+01
0.0627778     	6.583956e+01
0.0633333     	6.625528e+01
0.0638889     	6.668388e+01
0.0644444     	6.712486e+01
0.065         	6.757786e+01
0.0655556     	6.804244e+01
0.0661111     	6.851377e+01
0.0666667     	6.899465e+01
0.0672222     	6.948368e+01
0.0677778     	6.997726e+01
0.0683333     	7.046989e+01
0.0688889     	7.095760e+01
0.0694444     	7.144176e+01
0.07          	7.191393e+01
0.0705556     	7.237385e+01
0.0711111     	7.281640e+01
0.0716667     	7.323464e+01
0.0722222     	7.362735e+01
0.0727778     	7.399319e+01
0.0733333     	7.432611e+01
0.0738889     	7.462837e+01
0.0744444     	7.489131e+01
0.075         	7.511700e+01
0.0755556     	7.530578e+01
0.0761111     	7.545773e+01
0.0766667     	7.556993e+01
0.0772222     	7.565598e+01
0.0777778     	7.570992e+01
0.0783333     	7.572203e+01
0.0788889     	7.571632e+01
0.0794444     	7.568028e+01
0.08          	7.562040e+01
0.0805556     	7.554513e+01
0.0811111     	7.545390e+01
0.0816667     	7.535197e+01
0.0822222     	7.523096e+01
0.0827778     	7.510410e+01
0.0833333     	7.496987e+01
0.0838889     	7.482683e+01
0.0844444     	7.468093e+01
0.085         	7.453326e+01
0.0855556     	7.438617e+01
0.0861111     	7.423930e+01
0.0866667     	7.409396e+01
0.0872222     	7.395081e+01
0.0877778     	7.381250e+01
0.0883333     	7.367296e+01
0.0888889     	7.354153e+01
0.0894444     	7.341489e+01
0.09          	7.329556e+01
0.0905556     	7.318099e+01
0.0911111     	7.307777e+01
0.0916667     	7.297723e+01
0.0922222     	7.287115e+01
0.0927778     	7.278458e+01
0.0933333     	7.268951e+01
0.0938889     	7.262944e+01
0.0944444     	7.256425e+01
0.095         	7.247828e+01
0.0955556     	7.242566e+01
0.0961111     	7.237844e+01
0.0966667     	7.234327e+01
0.0972222     	7.227679e+01
0.0977778     	7.226951e+01
0.0983333     	7.223340e+01
0.0988889     	7.218870e+01
0.0994444     	7.217455e+01
0.1           	7.216426e+01
0.100556      	7.215787e+01
0.101111      	7.216897e+01
0.101667      	7.216966e+01
0.102222      	7.212599e+01
0.102778      	7.213515e+01
0.103333      	7.214557e+01
0.103889      	7.215856e+01
0.104444      	7.213523e+01
0.105         	7.215198e+01
0.105556      	7.213843e+01
0.106111      	7.214143e+01
0.106667      	7.216282e+01
0.107222      	7.218620e+01
0.107778      	7.219962e+01
0.108333      	7.222301e+01
0.108889      	7.224607e+01
0.109444      	7.227121e+01
0.11          	7.229880e+01
0.110556      	7.232659e+01
0.111111      	7.235511e+01
0.111667      	7.236536e+01
0.112222      	7.239054e+01
0.112778      	7.241935e+01
0.113333      	7.244583e+01
0.113889      	7.247206e+01
0.114444      	7.249986e+01
0.115         	7.252714e+01
0.115556      	7.255380e+01
0.116111      	7.255769e+01
0.116667      	7.258104e+01
0.117222      	7.260527e+01
0.117778      	7.263060e+01
0.118333      	7.265569e+01
0.118889      	7.268069e+01
0.119444      	7.270507e+01
0.12          	7.272920e+01
0.120556      	7.275404e+01
0.121111      	7.273877e+01
0.121667      	7.275925e+01
0.122222      	7.278202e+01
0.122778      	7.280405e+01
0.123333      	7.282435e+01
0.123889      	7.284522e+01
0.124444      	7.286506e+01
0.125         	7.283573e+01
0.125556      	7.286016e+01
0.126111      	7.287876e+01
0.126667      	7.289565e+01
0.127222      	7.291356e+01
0.127778      	7.293018e+01
0.128333      	7.294332e+01
0.128889      	7.296212e+01
0.129444      	7.297477e+01
0.13          	7.297325e+01
0.130556      	7.298986e+01
0.131111      	7.300438e+01
0.131667      	7.301812e+01
0.132222      	7.303139e+01
0.132778      	7.304453e+01
0.133333      	7.305639e+01
0.133889      	7.306899e+01
0.134444      	7.306725e+01
0.135         	7.309077e+01
0.135556      	7.310998e+01
0.136111      	7.311125e+01
0.136667      	7.312205e+01
0.137222      	7.313311e+01
0.137778      	7.313027e+01
0.138333      	7.315453e+01
0.138889      	7.316395e+01
0.139444      	7.296891e+01
0.14          	7.303366e+01
0.140556      	7.300867e+01
0.141111      	7.298531e+01
0.141667      	7.298118e+01
0.142222      	7.299410e+01
0.142778      	7.300281e+01
0.143333      	7.300848e+01
0.143889      	7.301245e+01
0.144444      	7.301792e+01
0.145         	7.302307e+01
0.145556      	7.302921e+01
0.146111      	7.303425e+01
0.146667      	7.304005e+01
0.147222      	7.304490e+01
0.147778      	7.305085e+01
0.148333      	7.305551e+01
0.148889      	7.304208e+01
0.149444      	7.304233e+01
0.15          	7.312453e+01
0.150556      	7.306430e+01
0.151111      	7.305853e+01
0.151667      	7.304166e+01
0.152222      	7.303874e+01
0.152778      	7.304369e+01
0.153333      	7.306058e+01
0.153889      	7.306411e+01
0.154444      	7.306711e+01
0.155         	7.306909e+01
0.155556      	7.307050e+01
0.156111      	7.307318e+01
0.156667      	7.307671e+01
0.157222      	7.308134e+01
0.157778      	7.308572e+01
0.158333      	7.308858e+01
0.158889      	7.309200e+01
0.159444      	7.309501e+01
0.16          	7.309812e+01
0.160556      	7.310179e+01
0.161111      	7.310503e+01
0.161667      	7.310850e+01
0.162222      	7.311134e+01
0.162778      	7.311528e+01
0.163333      	7.311813e+01
0.163889      	7.312101e+01
0.164444      	7.312386e+01
0.165         	7.312705e+01
0.165556      	7.313026e+01
0.166111      	7.313433e+01
0.166667      	7.313719e+01
0.167222      	7.314021e+01
0.167778      	7.314429e+01
0.168333      	7.314606e+01
0.168889      	7.314861e+01
0.169444      	7.315212e+01
0.17          	7.315502e+01
0.170556      	7.315912e+01
0.171111      	7.316145e+01
0.171667      	7.316481e+01
0.172222      	7.316781e+01
0.172778      	7.317059e+01
0.173333      	7.317279e+01
0.173889      	7.317618e+01
0.174444      	7.317960e+01
0.175         	7.318245e+01
0.175556      	7.318516e+01
0.176111      	7.324097e+01
0.176667      	7.322049e+01
0.177222      	7.321657e+01
0.177778      	7.319734e+01
0.178333      	7.316384e+01
0.178889      	7.315022e+01
0.179444      	7.318432e+01
0.18          	7.318959e+01
0.180556      	7.318728e+01
0.181111      	7.319219e+01
0.181667      	7.319276e+01
0.182222      	7.318814e+01
0.182778      	7.320106e+01
0.183333      	7.320190e+01
0.183889      	7.319459e+01
0.184444      	7.319796e+01
0.185         	7.320009e+01
0.185556      	7.319766e+01
0.186111      	7.319185e+01
0.186667      	7.319298e+01
0.187222      	7.319851e+01
0.187778      	7.320775e+01
0.188333      	7.321265e+01
0.188889      	7.321233e+01
0.189444      	7.320679e+01
0.19          	7.320641e+01
0.190556      	7.320392e+01
0.191111      	7.320166e+01
0.191667      	7.319998e+01
0.192222      	7.319973e+01
0.192778      	7.320053e+01
0.193333      	7.320298e+01
0.193889      	7.320823e+01
0.194444      	7.321077e+01
0.195         	7.321296e+01
0.195556      	7.321471e+01
0.196111      	7.321616e+01
0.196667      	7.321722e+01
0.197222      	7.321792e+01
0.197778      	7.321832e+01
0.198333      	7.321859e+01
0.198889      	7.321924e+01
0.199444      	7.322076e+01
0.2           	7.322122e+01
0.200556      	7.322271e+01
0.201111      	7.322457e+01
0.201667      	7.322675e+01
0.202222      	7.322887e+01
0.202778      	7.323048e+01
0.203333      	7.323149e+01
0.203889      	7.323333e+01
0.204444      	7.323430e+01
0.205         	7.323665e+01
0.205556      	7.323777e+01
0.206111      	7.323835e+01
0.206667      	7.323938e+01
0.207222      	7.323968e+01
0.207778      	7.324021e+01
0.208333      	7.324165e+01
0.208889      	7.324277e+01
0.209444      	7.324462e+01
0.21          	7.324609e+01
0.210556      	7.324795e+01
0.211111      	7.324969e+01
0.211667      	7.325128e+01
0.212222      	7.325351e+01
0.212778      	7.325463e+01
0.213333      	7.325504e+01
0.213889      	7.325603e+01
0.214444      	7.325706e+01
0.215         	7.325962e+01
0.215556      	7.326009e+01
0.216111      	7.326067e+01
0.216667      	7.326146e+01
0.217222      	7.326301e+01
0.217778      	7.326470e+01
0.218333      	7.326669e+01
0.218889      	7.326822e+01
0.219444      	7.326971e+01
0.22          	7.327119e+01
0.220556      	7.327455e+01
0.221111      	7.327515e+01
0.221667      	7.327512e+01
0.222222      	7.327571e+01
0.222778      	7.327674e+01
0.223333      	7.327780e+01
0.223889      	7.327810e+01
0.224444      	7.327923e+01
0.225         	7.328089e+01
0.225556      	7.328242e+01
0.226111      	7.328415e+01
0.226667      	7.328709e+01
0.227222      	7.328884e+01
0.227778      	7.329070e+01
0.228333      	7.329227e+01
0.228889      	7.329468e+01
0.229444      	7.329762e+01
0.23          	7.329869e+01
0.230556      	7.329976e+01
0.231111      	7.330072e+01
0.231667      	7.330122e+01
0.232222      	7.330181e+01
0.232778      	7.330217e+01
0.233333      	7.330368e+01
0.233889      	7.330601e+01
0.234444      	7.330940e+01
0.235         	7.331132e+01
0.235556      	7.331585e+01
0.236111      	7.331674e+01
0.236667      	7.331860e+01
0.237222      	7.332030e+01
0.237778      	7.332196e+01
0.238333      	7.332368e+01
0.238889      	7.332529e+01
0.239444      	7.332694e+01
0.24          	7.332865e+01
0.240556      	7.333025e+01
0.241111      	7.333198e+01
0.241667      	7.333384e+01
0.242222      	7.333559e+01
0.242778      	7.333729e+01
0.243333      	7.333902e+01
0.243889      	7.334070e+01
0.244444      	7.334218e+01
0.245         	7.334366e+01
0.245556      	7.334519e+01
0.246111      	7.334669e+01
0.246667      	7.334815e+01
0.247222      	7.334970e+01
0.247778      	7.335124e+01
0.248333      	7.335278e+01
0.248889      	7.335426e+01
0.249444      	7.335576e+01
0.25          	7.335718e+01
0.250556      	7.335861e+01
0.251111      	7.335996e+01
0.251667      	7.336137e+01
0.252222      	7.336269e+01
0.252778      	7.336398e+01
0.253333      	7.336535e+01
0.253889      	7.336661e+01
0.254444      	7.336799e+01
0.255         	7.336930e+01
0.255556      	7.337067e+01
0.256111      	7.337190e+01
0.256667      	7.337272e+01
0.257222      	7.337395e+01
0.257778      	7.337521e+01
0.258333      	7.337665e+01
0.258889      	7.337781e+01
0.259444      	7.337924e+01
0.26          	7.338102e+01
0.260556      	7.338207e+01
0.261111      	7.338339e+01
0.261667      	7.338412e+01
0.262222      	7.338558e+01
0.262778      	7.338724e+01
0.263333      	7.338809e+01
0.263889      	7.338866e+01
0.264444      	7.338915e+01
0.265         	7.339008e+01
0.265556      	7.339073e+01
0.266111      	7.339262e+01
0.266667      	7.339376e+01
0.267222      	7.339471e+01
0.267778      	7.339554e+01
0.268333      	7.339619e+01
0.268889      	7.339785e+01
0.269444      	7.339931e+01
0.27          	7.340002e+01
0.270556      	7.340083e+01
0.271111      	7.340164e+01
0.271667      	7.340256e+01
0.272222      	7.340364e+01
0.272778      	7.340458e+01
0.273333      	7.340565e+01
0.273889      	7.340880e+01
0.274444      	7.340985e+01
0.275         	7.341047e+01
0.275556      	7.341061e+01
0.276111      	7.341081e+01
0.276667      	7.341088e+01
0.277222      	7.341150e+01
0.277778      	7.341350e+01
0.278333      	7.341435e+01
0.278889      	7.341564e+01
0.279444      	7.341692e+01
0.28          	7.341802e+01
0.280556      	7.341963e+01
0.281111      	7.342486e+01
0.281667      	7.346736e+01
0.282222      	7.345833e+01
0.282778      	7.344215e+01
0.283333      	7.343835e+01
0.283889      	7.343586e+01
0.284444      	7.344335e+01
0.285         	7.345607e+01
0.285556      	7.345637e+01
0.286111      	7.344707e+01
0.286667      	7.344188e+01
0.287222      	7.344398e+01
0.287778      	7.344450e+01
0.288333      	7.344594e+01
0.288889      	7.344516e+01
0.289444      	7.345600e+01
0.29          	7.345765e+01
0.290556      	7.345543e+01
0.291111      	7.345383e+01
0.291667      	7.344901e+01
0.292222      	7.345553e+01
0.292778      	7.345915e+01
0.293333      	7.345929e+01
0.293889      	7.345971e+01
0.294444      	7.345729e+01
0.295         	7.345368e+01
0.295556      	7.345515e+01
0.296111      	7.345609e+01
0.296667      	7.345870e+01
0.297222      	7.346123e+01
0.297778      	7.346289e+01
0.298333      	7.346525e+01
0.298889      	7.348375e+01
0.299444      	7.348333e+01
0.3           	7.347980e+01
0.300556      	7.346748e+01
0.301111      	7.346132e+01
0.301667      	7.348622e+01
0.302222      	7.348869e+01
0.302778      	7.348667e+01
0.303333      	7.347731e+01
0.303889      	7.347092e+01
0.304444      	7.347167e+01
0.305         	7.347250e+01
0.305556      	7.347809e+01
0.306111      	7.348106e+01
0.306667      	7.348315e+01
0.307222      	7.348450e+01
0.307778      	7.348610e+01
0.308333      	7.348554e+01
0.308889      	7.348408e+01
0.309444      	7.348553e+01
0.31          	7.348772e+01
0.310556      	7.349588e+01
0.311111      	7.349767e+01
0.311667      	7.349669e+01
0.312222      	7.350061e+01
0.312778      	7.350197e+01
0.313333      	7.350044e+01
0.313889      	7.350202e+01
0.314444      	7.351825e+01
0.315         	7.351731e+01
0.315556      	7.351415e+01
0.316111      	7.351295e+01
0.316667      	7.351088e+01
0.317222      	7.350507e+01
0.317778      	7.350034e+01
0.318333      	7.350186e+01
0.318889      	7.350367e+01
0.319444      	7.351068e+01
0.32          	7.351351e+01
0.320556      	7.351489e+01
0.321111      	7.351528e+01
0.321667      	7.351652e+01
0.322222      	7.351610e+01
0.322778      	7.351544e+01
0.323333      	7.351679e+01
0.323889      	7.351744e+01
0.324444      	7.353089e+01
0.325         	7.353259e+01
0.325556      	7.353022e+01
0.326111      	7.352276e+01
0.326667      	7.352269e+01
0.327222      	7.352195e+01
0.327778      	7.352340e+01
0.328333      	7.352607e+01
0.328889      	7.352788e+01
0.329444      	7.353188e+01
0.33          	7.353424e+01
0.330556      	7.353495e+01
0.331111      	7.353464e+01
0.331667      	7.353595e+01
0.332222      	7.353562e+01
0.332778      	7.353585e+01
0.333333      	7.353747e+01
0.333889      	7.353824e+01
0.334444      	7.354050e+01
0.335         	7.354281e+01
0.335556      	7.354345e+01
0.336111      	7.354502e+01
0.336667      	7.354698e+01
0.337222      	7.354717e+01
0.337778      	7.354820e+01
0.338333      	7.354969e+01
0.338889      	7.355008e+01
0.339444      	7.356288e+01
0.34          	7.356410e+01
0.340556      	7.356210e+01
0.341111      	7.355539e+01
0.341667      	7.355482e+01
0.342222      	7.355393e+01
0.342778      	7.355709e+01
0.343333      	7.355973e+01
0.343889      	7.356108e+01
0.344444      	7.357690e+01
0.345         	7.357812e+01
0.345556      	7.357516e+01
0.346111      	7.356768e+01
0.346667      	7.356660e+01
0.347222      	7.356532e+01
0.347778      	7.357988e+01
0.348333      	7.358162e+01
0.348889      	7.358120e+01
0.349444      	7.357810e+01
0.35          	7.357818e+01
0.350556      	7.358862e+01
0.351111      	7.359109e+01
0.351667      	7.359022e+01
0.352222      	7.358594e+01
0.352778      	7.358284e+01
0.353333      	7.358393e+01
0.353889      	7.358418e+01
0.354444      	7.358904e+01
0.355         	7.359099e+01
0.355556      	7.359194e+01
0.356111      	7.360556e+01
0.356667      	7.360720e+01
0.357222      	7.360556e+01
0.357778      	7.359971e+01
0.358333      	7.359859e+01
0.358889      	7.359720e+01
0.359444      	7.359940e+01
0.36          	7.360129e+01
0.360556      	7.360287e+01
0.361111      	7.360932e+01
0.361667      	7.361153e+01
0.362222      	7.361250e+01
0.362778      	7.361326e+01
0.363333      	7.361451e+01
0.363889      	7.361423e+01
0.364444      	7.362395e+01
0.365         	7.362540e+01
0.365556      	7.362451e+01
0.366111      	7.362162e+01
0.366667      	7.362208e+01
0.367222      	7.362148e+01
0.367778      	7.362298e+01
0.368333      	7.362547e+01
0.368889      	7.362644e+01
0.369444      	7.362851e+01
0.37          	7.363132e+01
0.370556      	7.363334e+01
0.371111      	7.363627e+01
0.371667      	7.363776e+01
0.372222      	7.363801e+01
0.372778      	7.363829e+01
0.373333      	7.363966e+01
0.373889      	7.364047e+01
0.374444      	7.364329e+01
0.375         	7.364514e+01
0.375556      	7.364586e+01
0.376111      	7.364729e+01
0.376667      	7.364985e+01
0.377222      	7.365050e+01
0.377778      	7.365195e+01
0.378333      	7.365451e+01
0.378889      	7.365526e+01
0.379444      	7.365629e+01
0.38          	7.365843e+01
0.380556      	7.365899e+01
0.381111      	7.366075e+01
0.381667      	7.366267e+01
0.382222      	7.366345e+01
0.382778      	7.366496e+01
0.383333      	7.366746e+01
0.383889      	7.366839e+01
0.384444      	7.367882e+01
0.385         	7.368020e+01
0.385556      	7.367894e+01
0.386111      	7.367570e+01
0.386667      	7.367572e+01
0.387222      	7.367529e+01
0.387778      	7.367678e+01
0.388333      	7.367843e+01
0.388889      	7.368041e+01
0.389444      	7.368490e+01
0.39          	7.368821e+01
0.390556      	7.368928e+01
0.391111      	7.369012e+01
0.391667      	7.369127e+01
0.392222      	7.369138e+01
0.392778      	7.369152e+01
0.393333      	7.369328e+01
0.393889      	7.369444e+01
0.394444      	7.369720e+01
0.395         	7.369931e+01
0.395556      	7.370095e+01
0.396111      	7.370252e+01
0.396667      	7.370423e+01
0.397222      	7.370491e+01
0.397778      	7.370473e+01
0.398333      	7.370476e+01
0.398889      	7.370508e+01
0.399444      	7.370630e+01
0.4           	7.371068e+01
0.400556      	7.371344e+01
0.401111      	7.371505e+01
0.401667      	7.371641e+01
0.402222      	7.371792e+01
0.402778      	7.371914e+01
0.403333      	7.372011e+01
0.403889      	7.372204e+01
0.404444      	7.372310e+01
0.405         	7.372309e+01
0.405556      	7.372327e+01
0.406111      	7.372393e+01
0.406667      	7.372459e+01
0.407222      	7.372926e+01
0.407778      	7.373167e+01
0.408333      	7.373332e+01
0.408889      	7.373494e+01
0.409444      	7.373672e+01
0.41          	7.373783e+01
0.410556      	7.373833e+01
0.411111      	7.374001e+01
0.411667      	7.374069e+01
0.412222      	7.374056e+01
0.412778      	7.374081e+01
0.413333      	7.374183e+01
0.413889      	7.374295e+01
0.414444      	7.374759e+01
0.415         	7.374964e+01
0.415556      	7.375158e+01
0.416111      	7.375291e+01
0.416667      	7.375451e+01
0.417222      	7.375531e+01
0.417778      	7.375595e+01
0.418333      	7.375753e+01
0.418889      	7.375849e+01
0.419444      	7.375981e+01
0.42          	7.376199e+01
0.420556      	7.376323e+01
0.421111      	7.376501e+01
0.421667      	7.376672e+01
0.422222      	7.376771e+01
0.422778      	7.376771e+01
0.423333      	7.376811e+01
0.423889      	7.376879e+01
0.424444      	7.376906e+01
0.425         	7.376964e+01
0.425556      	7.377126e+01
0.426111      	7.377250e+01
0.426667      	7.377374e+01
0.427222      	7.377620e+01
0.427778      	7.377773e+01
0.428333      	7.377920e+01
0.428889      	7.378103e+01
0.429444      	7.378353e+01
0.43          	7.378538e+01
0.430556      	7.378625e+01
0.431111      	7.378691e+01
0.431667      	7.378826e+01
0.432222      	7.378940e+01
0.432778      	7.378953e+01
0.433333      	7.379015e+01
0.433889      	7.379109e+01
0.434444      	7.379129e+01
0.435         	7.379205e+01
0.435556      	7.379365e+01
0.436111      	7.379472e+01
0.436667      	7.379611e+01
0.437222      	7.379815e+01
0.437778      	7.379919e+01
0.438333      	7.380034e+01
0.438889      	7.380207e+01
0.439444      	7.380402e+01
0.44          	7.380609e+01
0.440556      	7.380705e+01
0.441111      	7.380781e+01
0.441667      	7.380851e+01
0.442222      	7.380827e+01
0.442778      	7.380851e+01
0.443333      	7.380978e+01
0.443889      	7.381053e+01
0.444444      	7.381165e+01
0.445         	7.381363e+01
0.445556      	7.381678e+01
0.446111      	7.381900e+01
0.446667      	7.381950e+01
0.447222      	7.381983e+01
0.447778      	7.381991e+01
0.448333      	7.382058e+01
0.448889      	7.382087e+01
0.449444      	7.382185e+01
0.45          	7.382254e+01
0.450556      	7.382398e+01
0.451111      	7.382491e+01
0.451667      	7.382644e+01
0.452222      	7.382756e+01
0.452778      	7.382916e+01
0.453333      	7.383031e+01
0.453889      	7.383170e+01
0.454444      	7.383224e+01
0.455         	7.383322e+01
0.455556      	7.383370e+01
0.456111      	7.383478e+01
0.456667      	7.383527e+01
0.457222      	7.383661e+01
0.457778      	7.383702e+01
0.458333      	7.383780e+01
0.458889      	7.383970e+01
0.459444      	7.384032e+01
0.46          	7.384140e+01
0.460556      	7.384293e+01
0.461111      	7.384323e+01
0.461667      	7.384371e+01
0.462222      	7.384517e+01
0.462778      	7.384554e+01
0.463333      	7.384626e+01
0.463889      	7.384804e+01
0.464444      	7.384837e+01
0.465         	7.384938e+01
0.465556      	7.385121e+01
0.466111      	7.385160e+01
0.466667      	7.385218e+01
0.467222      	7.385360e+01
0.467778      	7.385372e+01
0.468333      	7.385434e+01
0.468889      	7.385576e+01
0.469444      	7.385620e+01
0.47          	7.385699e+01
0.470556      	7.385885e+01
0.471111      	7.385936e+01
0.471667      	7.386024e+01
0.472222      	7.386123e+01
0.472778      	7.386298e+01
0.473333      	7.386317e+01
0.473889      	7.386351e+01
0.474444      	7.386407e+01
0.475         	7.386549e+01
0.475556      	7.386580e+01
0.476111      	7.386610e+01
0.476667      	7.386669e+01
0.477222      	7.386832e+01
0.477778      	7.386881e+01
0.478333      	7.386957e+01
0.478889      	7.387046e+01
0.479444      	7.387239e+01
0.48          	7.387282e+01
0.480556      	7.387316e+01
0.481111      	7.387360e+01
0.481667      	7.387477e+01
0.482222      	7.387529e+01
0.482778      	7.387570e+01
0.483333      	7.387623e+01
0.483889      	7.387701e+01
0.484444      	7.387848e+01
0.485         	7.387882e+01
0.485556      	7.387955e+01
0.486111      	7.388016e+01
0.486667      	7.388098e+01
0.487222      	7.388170e+01
0.487778      	7.388234e+01
0.488333      	7.388290e+01
0.488889      	7.388361e+01
0.489444      	7.388429e+01
0.49          	7.388503e+01
0.490556      	7.388575e+01
0.491111      	7.388659e+01
0.491667      	7.388722e+01
0.492222      	7.388783e+01
0.492778      	7.388849e+01
0.493333      	7.388934e+01
0.493889      	7.389004e+01
0.494444      	7.389058e+01
0.495         	7.389107e+01
0.495556      	7.389158e+01
0.496111      	7.389229e+01
0.496667      	7.389289e+01
0.497222      	7.389353e+01
0.497778      	7.389392e+01
0.498333      	7.389465e+01
0.498889      	7.389554e+01
0.499444      	7.389647e+01
0.5           	7.389717e+01
