/*--------------------------------*- C++ -*----------------------------------*\
  =========                 |
  \\      /  F ield         | OpenFOAM: The Open Source CFD Toolbox
   \\    /   O peration     | Website:  https://openfoam.org
    \\  /    A nd           | Version:  8
     \\/     M anipulation  |
\*---------------------------------------------------------------------------*/
FoamFile
{
    version     2.0;
    format      ascii;
    class       volScalarField;
    location    "0.41";
    object      epsilon;
}
// * * * * * * * * * * * * * * * * * * * * * * * * * * * * * * * * * * * * * //

dimensions      [0 2 -3 0 0 0 0];

internalField   nonuniform List<scalar> 
15677
(
59.6989
18.3521
52.6136
8.0869
25.8906
50.1653
4.62684
13.2626
31.5802
50.4863
3.17763
7.72288
17.0819
37.2738
51.6041
2.48937
5.04245
10.0251
20.8132
42.6516
53.6607
2.14565
3.62245
6.46131
12.1616
24.5458
47.6673
55.7224
1.97983
2.82074
4.52407
7.72345
14.2768
28.2597
52.0254
57.656
1.91168
2.35289
3.40123
5.3094
8.91606
16.4273
31.7634
55.7035
59.3494
1.88416
2.08023
2.72294
3.90852
6.02159
10.1073
18.5408
34.963
58.7155
60.8463
1.87055
1.93938
2.30696
3.05503
4.35769
6.70782
11.2766
20.5753
37.7824
61.1834
62.1071
1.86766
1.87831
2.05639
2.52081
3.34783
4.77656
7.36529
12.4224
22.4683
40.2431
63.1676
63.215
1.86863
1.84884
1.91654
2.18591
2.71239
3.61527
5.16677
8.00407
13.5121
24.2138
42.3367
64.7848
64.1395
1.86954
1.8387
1.85192
1.98257
2.30684
2.88644
3.8591
5.53792
8.60998
14.5449
25.778
44.1232
66.0815
64.9636
1.86979
1.83698
1.82112
1.86773
2.05139
2.41821
3.0435
4.08601
5.88493
9.18634
15.4969
27.1779
45.6159
67.1341
65.6836
1.86978
1.83724
1.81049
1.81332
1.89819
2.11755
2.5191
3.18738
4.29469
6.21155
9.72075
16.3738
28.3995
46.868
67.9908
66.3201
1.86975
1.8375
1.80819
1.78974
1.8154
1.93036
2.179
2.61103
3.31801
4.48797
6.51239
10.2165
17.1596
29.463
47.9103
68.6866
66.9042
1.86973
1.8376
1.8079
1.78271
1.77567
1.82149
1.96252
2.23559
2.69404
3.43721
4.66407
6.78942
10.6647
17.8619
30.3703
48.7637
69.2834
67.4001
1.86972
1.83762
1.80792
1.78099
1.76141
1.76609
1.8318
1.99334
2.28694
2.76905
3.54468
4.82417
7.03902
11.0688
18.4732
31.135
49.4709
69.7555
67.9034
1.86971
1.83761
1.80794
1.78067
1.75692
1.74384
1.76035
1.84323
2.02196
2.33329
2.8362
3.64114
4.96717
7.2626
11.4231
19.0003
31.77
50.0252
70.2008
68.2942
1.86971
1.83759
1.80793
1.78063
1.75565
1.7358
1.72942
1.75738
1.85468
2.04817
2.37474
2.8959
3.72656
5.09362
7.45825
11.7305
19.4418
32.2813
50.4882
70.532
68.7608
1.86971
1.83758
1.80792
1.78062
1.75534
1.73308
1.71717
1.71789
1.75585
1.86585
2.07182
2.41148
2.94847
3.80121
5.20354
7.6265
11.9889
19.8045
32.69
50.8262
70.9003
69.0705
1.86971
1.83757
1.80791
1.78059
1.75527
1.73225
1.71255
1.70114
1.70833
1.75574
1.87631
2.09292
2.44379
2.99409
3.86566
5.29681
7.76791
12.201
20.0917
32.9977
51.1144
71.1473
69.5322
1.86972
1.83757
1.8079
1.78057
1.75523
1.73199
1.71094
1.6943
1.68705
1.70069
1.75603
1.8859
2.11161
2.47186
3.03341
3.91999
5.37495
7.88227
12.3686
20.31
33.2255
51.3077
71.4952
69.7822
1.86972
1.83756
1.80789
1.78055
1.7552
1.7319
1.7104
1.69167
1.67779
1.67504
1.69431
1.75675
1.89469
2.1281
2.49623
3.06669
3.96541
5.43727
7.97296
12.4939
20.4676
33.3811
51.4711
71.6969
70.2437
1.86972
1.83756
1.80789
1.78053
1.75518
1.73184
1.71021
1.6907
1.674
1.66333
1.6645
1.68924
1.75801
1.90281
2.14271
2.51723
3.0948
4.00209
5.48714
8.03917
12.5838
20.5672
33.4714
51.5893
72.0878
70.4842
1.86972
1.83756
1.80788
1.78051
1.75515
1.73179
1.71013
1.69032
1.67252
1.65824
1.65036
1.6558
1.68525
1.75974
1.91047
2.1559
2.53564
3.11847
4.03196
5.52347
8.08704
12.6362
20.6265
33.5252
51.667
72.3804
428.186
1.86972
1.83756
1.80788
1.7805
1.75514
1.73175
1.71007
1.69015
1.67195
1.6561
1.64398
1.63938
1.64831
1.68252
1.76215
1.9182
2.16826
2.55211
3.13857
4.05518
5.55062
8.11416
12.6666
20.6352
33.5246
51.7906
88.7263
713.912
1.86972
1.83755
1.80788
1.78049
1.75512
1.73172
1.71002
1.69005
1.6717
1.65519
1.64123
1.63162
1.6298
1.643
1.68147
1.76575
1.92635
2.18044
2.56747
3.15635
4.0743
5.56856
8.13148
12.6646
20.624
33.5302
52.7185
122.046
991.117
1.86972
1.83755
1.80788
1.78049
1.75511
1.7317
1.70998
1.68997
1.67156
1.65478
1.64005
1.62806
1.62092
1.62256
1.63879
1.68231
1.7708
1.93572
2.19329
2.58299
3.17307
4.0904
5.58128
8.1317
12.6541
20.5986
33.5599
55.289
157.439
1235.32
1.86972
1.83755
1.80788
1.78048
1.7551
1.73168
1.70994
1.68991
1.67145
1.65456
1.63951
1.62645
1.6168
1.61233
1.6169
1.63833
1.68497
1.77801
1.94698
2.20785
2.59946
3.18996
4.10489
5.58923
8.12879
12.6325
20.5639
33.6652
59.8686
189.795
1459.19
1.86972
1.83755
1.80788
1.78047
1.7551
1.73166
1.70992
1.68986
1.67137
1.65442
1.63922
1.62568
1.6149
1.60738
1.606
1.61461
1.63986
1.69049
1.78813
1.96112
2.22486
2.61815
3.20804
4.11964
5.59544
8.12239
12.6043
20.5242
33.9275
64.5913
220.415
1647.96
1.86972
1.83755
1.80788
1.78047
1.75509
1.73164
1.70989
1.68982
1.67131
1.65431
1.63902
1.62528
1.61397
1.60501
1.60069
1.6024
1.61574
1.64417
1.6999
1.8021
1.97893
2.24559
2.63998
3.22899
4.13589
5.6028
8.11402
12.5752
20.479
34.4033
69.3862
247.26
1790.53
1.86972
1.83755
1.80788
1.78047
1.75509
1.73163
1.70988
1.68979
1.67125
1.65422
1.63888
1.62503
1.61347
1.60385
1.59812
1.59633
1.6033
1.61961
1.65278
1.71394
1.82078
2.00164
2.27087
2.66639
3.25364
4.15569
5.61258
8.10829
12.543
20.4382
34.9683
73.7336
268.066
1900.44
1.86972
1.83755
1.80788
1.78046
1.75509
1.73162
1.70986
1.68976
1.6712
1.65415
1.63875
1.62485
1.61315
1.60323
1.59682
1.59336
1.59711
1.60696
1.6277
1.66702
1.73351
1.84539
2.03007
2.30205
2.69803
3.2836
4.18003
5.6269
8.10374
12.5099
20.405
35.5154
77.0997
284.492
1988.1
1.83755
1.86975
1.80788
1.78046
1.75509
1.73161
1.70985
1.68973
1.67116
1.65409
1.63865
1.62471
1.61291
1.60285
1.59611
1.59188
1.5941
1.60072
1.61488
1.64219
1.68743
1.75983
1.87674
2.06551
2.33972
2.7364
3.31952
4.21021
5.64566
8.10396
12.4733
20.3684
35.932
79.6847
297.799
2060.77
1.80788
1.83764
1.86982
1.78046
1.75508
1.7316
1.70984
1.68971
1.67113
1.65403
1.63857
1.62459
1.61271
1.60259
1.59566
1.59111
1.59262
1.59774
1.60874
1.62979
1.66345
1.71524
1.79385
1.91626
2.10869
2.38533
2.7818
3.36248
4.24635
5.66968
8.10666
12.4338
20.3215
36.2201
81.6669
309.032
2123.3
1.78045
1.80803
1.83784
1.8699
1.75508
1.73159
1.70983
1.68968
1.67111
1.65399
1.63849
1.62449
1.61255
1.60238
1.59533
1.59066
1.59189
1.59637
1.60599
1.62405
1.65192
1.69281
1.75162
1.83686
1.9645
2.1607
2.43896
2.83545
3.41251
4.28877
5.70234
8.11397
12.3968
20.2625
36.4038
83.2313
318.775
2178.74
1.75508
1.78066
1.80835
1.83805
1.86997
1.73158
1.70983
1.68967
1.67108
1.65394
1.63843
1.6244
1.61241
1.60221
1.59507
1.59035
1.59148
1.59575
1.60488
1.62178
1.64713
1.68286
1.73159
1.79812
1.88989
2.02298
2.22193
2.50216
2.89709
3.46983
4.34301
5.74593
8.12795
12.3626
20.1935
36.5024
84.4886
327.562
2229.12
1.73158
1.75534
1.78108
1.80868
1.83826
1.87005
1.70982
1.68965
1.67106
1.65391
1.63838
1.62432
1.61229
1.60207
1.59485
1.59012
1.59121
1.59547
1.60456
1.62125
1.64591
1.67983
1.72419
1.78162
1.85592
1.95462
2.0922
2.29349
2.57388
2.9671
3.5417
4.41186
5.79709
8.14776
12.332
20.117
36.5505
85.5495
335.565
2275.56
1.70982
1.73187
1.75585
1.78151
1.80902
1.83848
1.87012
1.68964
1.67105
1.65387
1.63834
1.62425
1.6122
1.60195
1.59466
1.58994
1.59103
1.59533
1.60456
1.62151
1.64633
1.68009
1.72335
1.77774
1.84457
1.92718
2.03195
2.17368
2.37533
2.65529
3.05408
3.63118
4.48928
5.85489
8.17275
12.3049
20.0385
36.5478
86.4584
343.09
2318.96
1.68962
1.71015
1.73247
1.75639
1.78196
1.80936
1.8387
1.8702
1.67103
1.65384
1.63831
1.62419
1.61211
1.60184
1.5945
1.5898
1.59089
1.59527
1.60469
1.62206
1.64759
1.68222
1.72603
1.78018
1.84473
1.9218
2.01293
2.12384
2.26752
2.46886
2.7553
3.16132
3.73021
4.57367
5.91825
8.20218
12.2824
19.9587
36.5336
87.2812
350.104
2359.61
1.67102
1.68998
1.71082
1.73308
1.75693
1.78242
1.80971
1.83893
1.87029
1.65382
1.63827
1.62414
1.61204
1.60174
1.59437
1.58967
1.59078
1.59524
1.60487
1.62271
1.64909
1.68517
1.73069
1.78652
1.85207
1.92811
2.01444
2.11428
2.23086
2.37557
2.5849
2.88028
3.27863
3.83643
4.664
5.98586
8.23564
12.2639
19.8829
36.5046
88.02
356.834
2398.05
1.65379
1.67141
1.69072
1.71152
1.73372
1.7575
1.78289
1.81008
1.83917
1.87037
1.63825
1.62409
1.61199
1.60166
1.59425
1.58957
1.59069
1.59523
1.60508
1.62337
1.65063
1.68829
1.73618
1.79506
1.86358
1.94224
2.02924
2.12561
2.23148
2.3531
2.51147
2.73163
3.01865
3.40489
3.94816
4.75851
6.05673
8.27223
12.2498
19.8115
36.4668
88.7225
363.149
2434.19
1.63822
1.65419
1.6722
1.69147
1.71224
1.73437
1.75807
1.78337
1.81045
1.83941
1.87046
1.62404
1.61194
1.60158
1.59416
1.58949
1.59062
1.59524
1.60528
1.62401
1.65213
1.69133
1.74171
1.80452
1.87764
1.96114
2.05253
2.15163
2.25586
2.36768
2.5055
2.68184
2.89501
3.1685
3.53929
4.06515
4.85605
6.12981
8.31135
12.2394
19.7461
36.429
89.3707
369.264
2468.49
1.624
1.63863
1.65502
1.67302
1.69226
1.71297
1.73504
1.75867
1.78387
1.81083
1.83966
1.87055
1.6119
1.6015
1.59408
1.58941
1.59056
1.59525
1.60548
1.62462
1.65355
1.69421
1.74704
1.81391
1.89278
1.98327
2.08152
2.18743
2.29631
2.4086
2.53996
2.69911
2.87052
3.07439
3.33003
3.68053
4.1857
4.95541
6.20421
8.35218
12.2329
19.6863
36.3935
90.0052
374.991
2500.66
1.61186
1.6244
1.63949
1.65587
1.67386
1.69306
1.71373
1.73573
1.75928
1.78438
1.81123
1.83991
1.87064
1.60143
1.59402
1.58935
1.59052
1.59527
1.60567
1.62518
1.65489
1.69691
1.75211
1.82292
1.9077
2.00694
2.11485
2.23052
2.3485
2.46803
2.60367
2.76172
2.91759
3.07599
3.26405
3.50026
3.8266
4.30869
5.05563
6.27901
8.39424
12.2292
19.6333
36.3624
90.5962
380.56
2531.24
1.60137
1.61225
1.62523
1.64037
1.65675
1.67473
1.69389
1.7145
1.73644
1.7599
1.7849
1.81163
1.84018
1.87073
1.59397
1.58928
1.59047
1.59529
1.60585
1.62571
1.65613
1.6994
1.75686
1.83145
1.92205
2.0304
2.15046
2.27982
2.4104
2.54231
2.68978
2.85836
3.01511
3.1599
3.29807
3.46284
3.67771
3.97684
4.4331
5.15571
6.35355
8.43682
12.2296
19.5863
36.3379
91.1833
385.749
2559.78
1.59395
1.60168
1.61307
1.6261
1.64128
1.65766
1.67562
1.69474
1.7153
1.73717
1.76054
1.78544
1.81204
1.84043
1.87082
1.58921
1.59043
1.59531
1.60602
1.62619
1.65727
1.70171
1.76131
1.83943
1.93572
2.05315
2.18589
2.33291
2.48151
2.63029
2.7958
2.98413
3.15401
3.30027
3.42493
3.53488
3.66886
3.85829
4.12954
4.55769
5.25494
6.42715
8.47959
12.2313
19.5449
36.3182
91.7303
390.807
2586.94
1.58915
1.59423
1.60236
1.61391
1.627
1.64222
1.6586
1.67653
1.69562
1.71612
1.73792
1.7612
1.78599
1.81245
1.84069
1.8709
1.59038
1.59533
1.60618
1.62664
1.65832
1.70383
1.76542
1.84686
1.94865
2.07493
2.22041
2.38651
2.55895
2.73236
2.92199
3.13888
3.33242
3.49279
3.61728
3.71143
3.78429
3.88096
4.03963
4.2828
4.68142
5.35242
6.49928
8.52205
12.2349
19.5088
36.3065
92.2774
395.487
2612.12
1.59037
1.5892
1.59483
1.60306
1.61478
1.62794
1.64318
1.65957
1.67747
1.69653
1.71696
1.73869
1.76187
1.78654
1.81285
1.84093
1.87098
1.59533
1.60631
1.62704
1.65928
1.70577
1.76922
1.85373
1.96082
2.09558
2.25376
2.43959
2.63797
2.84508
3.07058
3.32607
3.55446
3.74074
3.87749
3.96642
4.01801
4.04424
4.09745
4.22055
4.43486
4.80301
5.44768
6.56953
8.56386
12.2407
19.4776
36.2977
92.7846
400.059
2636.14
1.59538
1.5903
1.58928
1.59543
1.60381
1.61569
1.62892
1.64418
1.66058
1.67844
1.69746
1.71783
1.73948
1.76254
1.78707
1.81323
1.84117
1.87106
1.60643
1.62741
1.66015
1.70754
1.77271
1.86007
1.97221
2.115
2.28577
2.49157
2.71678
2.96212
3.23849
3.55239
3.82983
4.05634
4.21807
4.31251
4.34848
4.34345
4.31282
4.3164
4.39993
4.58494
4.92234
5.54032
6.63757
8.60476
12.2479
19.4508
36.2977
93.2933
404.256
2658.27
1.6066
1.59509
1.59006
1.58934
1.59608
1.60462
1.61663
1.62994
1.6452
1.66161
1.67944
1.69842
1.71871
1.74026
1.76319
1.78759
1.81361
1.8414
1.87114
1.62771
1.66093
1.70916
1.7759
1.86591
1.98279
2.13317
2.31635
2.54189
2.79446
3.08165
3.41766
3.81642
4.17468
4.4628
4.66734
4.77871
4.80445
4.765
4.68682
4.58829
4.53615
4.57661
4.73086
5.03878
5.62999
6.70319
8.64455
12.2562
19.4278
36.3
93.7617
408.371
2679.4
1.62809
1.60599
1.59425
1.58976
1.58954
1.59673
1.6055
1.61759
1.631
1.64625
1.66268
1.68046
1.6994
1.71959
1.74102
1.76382
1.78809
1.81397
1.84162
1.87122
1.66161
1.71061
1.77881
1.87128
1.99259
2.15009
2.34539
2.59009
2.87052
3.2029
3.60487
4.1066
4.59522
4.99932
5.27718
5.42322
5.44238
5.3617
5.21802
5.04738
4.86914
4.75527
4.75008
4.87163
5.15153
5.71634
6.76619
8.68305
12.2653
19.4085
36.3052
94.2316
412.123
2696.38
1.66235
1.62691
1.60418
1.5933
1.58955
1.58994
1.5974
1.60645
1.61858
1.63211
1.64734
1.66379
1.68151
1.70038
1.72044
1.74176
1.76444
1.78858
1.81433
1.84184
1.87129
1.71191
1.78144
1.8762
2.00164
2.16583
2.37281
2.63588
2.94473
3.32476
3.79714
4.41902
5.08347
5.6979
6.13374
6.34779
6.36747
6.23016
5.99224
5.70916
5.42427
5.15395
4.97256
4.91966
5.00706
5.26007
5.79915
6.82647
8.72014
12.2751
19.392
36.3158
94.6611
415.32
2710.65
1.71326
1.66056
1.62348
1.60222
1.59248
1.58926
1.59049
1.59807
1.60745
1.6196
1.63325
1.64846
1.66492
1.68255
1.70132
1.72128
1.74248
1.76503
1.78905
1.81467
1.84205
1.87136
1.78381
1.88068
2.00996
2.18044
2.39859
2.67917
3.01694
3.44572
3.99173
4.75344
5.64425
6.56234
7.31216
7.70806
7.75049
7.53821
7.15807
6.70096
6.2386
5.8162
5.44134
5.18701
5.08462
5.13697
5.36405
5.87826
6.88396
8.75573
12.2852
19.3784
36.3263
95.0346
417.939
2726.08
1.78616
1.71064
1.655
1.61984
1.60049
1.59176
1.58899
1.59115
1.59877
1.60851
1.62067
1.63443
1.64961
1.66604
1.68357
1.70225
1.72209
1.74318
1.76561
1.78951
1.81501
1.84225
1.87143
1.88478
2.01759
2.194
2.4227
2.72002
3.08692
3.56422
4.18722
5.11134
6.28319
7.60061
8.81506
9.62529
9.83053
9.53838
8.95686
8.23209
7.48768
6.80442
6.22124
5.72989
5.39773
5.2444
5.26124
5.4633
5.95357
6.93861
8.78977
12.2955
19.367
36.3404
95.3366
420.84
2742.88
1.88871
1.78255
1.70203
1.64916
1.61655
1.59893
1.5911
1.58879
1.59189
1.59953
1.60962
1.62178
1.63564
1.65077
1.66712
1.68456
1.70314
1.72288
1.74386
1.76618
1.78996
1.81533
1.84245
1.87147
2.02462
2.20654
2.4452
2.75853
3.15438
3.67907
4.38367
5.49403
6.99978
8.80939
10.6361
12.0827
12.7791
12.5683
11.7341
10.6252
9.44723
8.34695
7.40254
6.63682
6.01816
5.60396
5.3986
5.37984
5.55772
6.02505
6.99045
8.82222
12.306
19.3589
36.3506
95.6876
423.949
2761.12
2.03113
1.88384
1.76961
1.6931
1.64382
1.61349
1.59748
1.59051
1.58867
1.59268
1.60034
1.61076
1.62294
1.63684
1.6519
1.66818
1.68553
1.70401
1.72364
1.74452
1.76673
1.79039
1.81565
1.84255
1.87147
2.21821
2.46614
2.79481
3.219
3.78965
4.58205
5.90107
7.78707
10.1719
12.7527
15.0557
16.559
16.8719
15.9528
14.3345
12.529
10.7897
9.26898
8.02718
7.05983
6.30463
5.80501
5.54694
5.49276
5.6473
6.09274
7.03951
8.85308
12.315
19.3526
36.367
96.0532
427.412
2781.07
2.22878
2.02474
1.86474
1.75635
1.68485
1.63876
1.61061
1.59612
1.59002
1.58865
1.59351
1.60124
1.61192
1.62412
1.63801
1.65301
1.66921
1.68647
1.70486
1.72439
1.74516
1.76726
1.79081
1.8158
1.84255
1.87147
2.48575
2.82898
3.28054
3.8959
4.78357
6.33005
8.63392
11.6642
15.127
18.5021
21.1336
22.4042
21.9686
19.9881
17.3183
14.6432
12.2399
10.2414
8.67144
7.48683
6.58782
6.00033
5.68922
5.60004
5.73211
6.15671
7.08583
8.87849
12.3229
19.3466
36.382
96.4846
431.128
2802.72
2.50309
2.22041
1.9969
1.84539
1.74404
1.67699
1.63393
1.60789
1.59488
1.58962
1.58873
1.59437
1.60223
1.61307
1.62529
1.63914
1.65409
1.67022
1.68739
1.70568
1.72512
1.74578
1.76778
1.79102
1.8158
1.84255
1.87147
2.86131
3.33894
3.99827
4.98904
6.77676
9.52724
13.2591
17.7133
22.3575
26.4382
29.1219
29.7458
28.102
24.6553
20.6513
16.9368
13.7757
11.2507
9.32803
7.91435
6.86629
6.18939
5.82534
5.70179
5.81224
6.217
7.12376
8.90009
12.3319
19.3408
36.4068
96.9336
435.273
2826.44
2.88951
2.49245
2.17994
1.96906
1.82741
1.73225
1.66942
1.6293
1.60535
1.59375
1.58933
1.58896
1.59522
1.60327
1.61419
1.62644
1.64025
1.65515
1.67119
1.68829
1.70648
1.72582
1.74639
1.76804
1.79102
1.8158
1.84255
1.87147
3.39453
4.09767
5.1987
7.23573
10.4533
14.9295
20.463
26.5437
32.3677
36.9283
39.2376
38.6685
35.2693
29.9142
24.2893
19.3754
15.3745
12.2833
9.98984
8.33906
7.13875
6.37179
5.95524
5.79812
5.88783
6.26645
7.15588
8.92379
12.3421
19.3357
36.4298
97.4671
439.741
2852.13
3.44244
2.87582
2.43355
2.14008
1.94312
1.81013
1.72086
1.66212
1.62487
1.603
1.59274
1.58912
1.58941
1.59604
1.60434
1.61528
1.62758
1.64133
1.65618
1.67214
1.68916
1.70726
1.72651
1.74669
1.76804
1.79102
1.8158
1.84255
1.87147
4.19494
5.41049
7.70101
11.3983
16.6488
23.3276
30.977
38.7907
45.6536
50.3003
51.6417
49.2036
43.4303
35.7054
28.1821
21.9238
17.0141
13.3268
10.6504
8.7579
7.40401
6.54722
6.07896
5.88918
5.94938
6.30838
7.19099
8.94981
12.3538
19.3315
36.467
98.0249
444.733
2880.32
4.2802
3.42521
2.78891
2.37651
2.10289
1.91814
1.79338
1.70983
1.6551
1.62063
1.60084
1.59182
1.58886
1.59007
1.59683
1.60542
1.61635
1.62869
1.64238
1.65719
1.67307
1.69001
1.70802
1.72685
1.74669
1.76804
1.79102
1.8158
1.84255
1.87143
5.62157
8.1686
12.3499
18.3915
26.2601
35.5732
45.5643
55.0808
62.6671
66.8144
66.4219
61.322
52.5077
41.9541
32.275
24.5474
18.6745
14.3701
11.3038
9.16818
7.66111
6.71547
6.19655
5.96394
6.00132
6.35422
7.22939
8.97841
12.3671
19.3283
36.5023
98.6893
450.148
2910.72
4.2582
5.80755
3.29296
2.70666
2.32322
2.06704
1.89391
1.77715
1.69919
1.64836
1.61659
1.59886
1.59101
1.58862
1.59081
1.59762
1.60649
1.6174
1.62978
1.64341
1.65817
1.67397
1.69083
1.70839
1.72685
1.74669
1.76804
1.79102
1.8158
1.84245
1.87136
8.63421
13.2971
20.1348
29.2164
40.2524
52.5473
64.9734
75.9899
83.7817
86.6382
83.5786
74.9315
62.3916
48.5737
36.5123
27.2137
20.3375
15.4033
11.9452
9.56772
7.90929
6.8764
6.29346
6.02737
6.05787
6.40433
7.27141
9.00986
12.3824
19.3273
36.5572
99.3911
456.203
2944.09
4.04155
5.79146
9.04897
3.17211
2.6298
2.27184
2.03224
1.8704
1.76145
1.68894
1.6419
1.61279
1.59707
1.59033
1.58847
1.5916
1.59843
1.60755
1.61844
1.63084
1.64441
1.65912
1.67485
1.69124
1.70839
1.72685
1.74669
1.76804
1.79102
1.81565
1.84225
1.87129
14.2293
21.8594
32.1577
44.9417
59.6091
75.1024
89.8914
102.007
109.266
109.828
103.019
89.8818
72.946
55.471
40.8394
29.8929
21.9875
16.4185
12.5707
9.95478
8.14797
7.00977
6.3759
6.09678
6.11948
6.45912
7.31742
9.04452
12.3998
19.3283
36.6112
100.225
462.822
2979.86
3.85142
5.40624
9.06502
15.0608
3.06002
2.55571
2.222
1.99847
1.84763
1.7463
1.6791
1.63578
1.60929
1.59551
1.58979
1.58844
1.5924
1.59926
1.60858
1.61947
1.63188
1.6454
1.66005
1.67528
1.69124
1.70839
1.72686
1.74669
1.76804
1.79081
1.81533
1.84204
1.87122
23.5465
35.0524
49.5796
66.6355
85.2629
104.012
120.909
133.511
139.26
136.317
124.557
105.972
84.0166
62.5515
45.2049
32.5587
23.611
17.409
13.1771
10.328
8.34666
7.12362
6.46636
6.17279
6.18663
6.51905
7.36783
9.08272
12.4201
19.3314
36.6911
101.12
470.222
3019.16
3.6787
5.07118
8.35808
15.1516
25.0601
2.95237
2.48392
2.17366
1.96577
1.82566
1.73174
1.66971
1.63004
1.60618
1.59418
1.58938
1.58852
1.59318
1.60011
1.60959
1.62048
1.63288
1.64636
1.66051
1.67528
1.69124
1.7084
1.72686
1.74669
1.76778
1.79038
1.815
1.84183
1.87114
37.8705
54.118
73.5351
95.2847
118.041
139.94
158.507
170.75
173.762
165.908
147.921
122.962
95.4415
69.7241
49.5621
35.1877
25.1973
18.3699
13.7621
10.6392
8.5167
7.24898
6.5657
6.25607
6.25987
6.5846
7.4231
9.12493
12.4432
19.339
36.7739
102.175
478.377
3060.84
3.51574
4.76825
7.7288
13.922
25.3369
40.404
2.84836
2.41442
2.1269
1.93421
1.80452
1.7178
1.66086
1.62484
1.60346
1.59305
1.5891
1.58871
1.59394
1.60099
1.61057
1.62149
1.63388
1.64684
1.66051
1.67528
1.69124
1.7084
1.72686
1.74639
1.76726
1.78995
1.81466
1.84161
1.87106
58.5133
80.2413
105.04
131.735
158.642
183.442
203.05
213.831
212.614
198.278
172.77
140.59
107.06
76.9037
53.8694
37.7611
26.7377
19.297
14.25
10.9059
8.70445
7.38716
6.6749
6.34738
6.33981
6.65632
7.48372
9.17153
12.4702
19.3492
36.8889
103.335
487.499
3106.68
3.36071
4.48537
7.15189
12.7934
23.4149
41.0196
62.4596
2.74793
2.34733
2.08182
1.90386
1.78426
1.70462
1.65277
1.62021
1.60109
1.59211
1.58892
1.58906
1.59467
1.60189
1.61153
1.62249
1.63436
1.64683
1.66051
1.67528
1.69125
1.7084
1.72651
1.74578
1.76672
1.7895
1.81431
1.84139
1.87098
86.695
114.443
144.923
176.673
207.651
234.981
254.785
262.698
255.49
232.986
198.711
158.588
118.72
84.014
58.0922
40.2633
28.2253
20.0704
14.668
11.2005
8.91191
7.53962
6.79506
6.44757
6.42714
6.73479
7.55024
9.22317
12.501
19.3679
37.0158
104.682
497.613
3154.61
3.21319
4.21961
6.61032
11.7355
21.6122
38.2026
63.6039
92.4629
2.65118
2.28282
2.03852
1.8748
1.76509
1.69254
1.64552
1.61609
1.59907
1.59132
1.58876
1.58956
1.59537
1.6028
1.6125
1.62298
1.63434
1.64684
1.66052
1.67529
1.69125
1.70802
1.72582
1.74515
1.76617
1.78903
1.81396
1.84116
1.8709
123.423
157.508
193.816
230.659
265.588
294.955
313.832
317.117
301.898
269.496
225.328
176.697
130.281
90.9905
62.2017
42.6819
29.4668
20.733
15.13
11.5264
9.14138
7.70798
6.92738
6.55759
6.5226
6.82068
7.62326
9.28032
12.5373
19.3912
37.1804
106.206
508.96
3216.49
3.07302
3.97071
6.10001
10.7277
19.8837
35.533
59.6772
94.3332
131.381
2.55827
2.22107
1.99712
1.84731
1.74749
1.68168
1.63903
1.61241
1.59734
1.59066
1.58858
1.59015
1.59607
1.60376
1.61296
1.62297
1.63434
1.64684
1.66052
1.67529
1.69084
1.70726
1.72511
1.74451
1.7656
1.78856
1.8136
1.84092
1.87081
169.412
209.974
252.198
294.21
332.971
363.704
380.161
376.649
351.19
307.211
252.201
194.675
141.626
97.7799
66.175
44.7012
30.531
21.4657
15.641
11.8872
9.39538
7.89408
7.07326
6.6785
6.62705
6.91469
7.70345
9.34375
12.5789
19.4253
37.3742
107.944
523.839
3289.26
2.93991
3.73913
5.62156
9.76595
18.2025
32.9358
55.9515
89.0586
134.136
179.823
2.46949
2.16222
1.958
1.82208
1.73167
1.67194
1.63322
1.60914
1.59587
1.59012
1.58846
1.5908
1.59685
1.60423
1.6129
1.62298
1.63435
1.64684
1.66053
1.67486
1.69001
1.70648
1.72438
1.74384
1.76502
1.78807
1.81322
1.84068
1.87073
225.077
272.19
320.51
367.896
410.36
441.51
453.554
440.646
402.593
345.501
278.935
212.315
152.658
104.339
69.4915
46.4327
31.7082
22.2763
16.2067
12.2868
9.67675
8.09998
7.23422
6.81147
6.7414
7.01763
7.79152
9.41418
12.6277
19.4696
37.6092
110.29
542.575
3361.37
2.81332
3.52602
5.17627
8.8567
16.5582
30.3746
52.2991
84.0917
127.224
183.524
238.029
2.38518
2.10679
1.92217
1.79942
1.71744
1.66319
1.62803
1.60628
1.59462
1.58968
1.58845
1.59157
1.59716
1.60419
1.6129
1.62298
1.63435
1.64686
1.66007
1.67397
1.68916
1.70567
1.72363
1.74317
1.76442
1.78757
1.81284
1.84043
1.87064
290.598
344.456
399.288
452.439
498.405
528.578
533.584
508.255
455.241
383.748
305.182
229.446
163.297
109.807
72.3343
48.3483
33.0113
23.1739
16.8333
12.7296
9.98862
8.32792
7.41195
6.9578
6.86672
7.13034
7.88831
9.4924
12.6845
19.5267
37.9567
113.217
563.427
3431.28
2.69303
3.3331
4.76572
8.00044
14.9516
27.8317
48.6686
79.2187
120.82
174.586
242.573
305.936
2.30616
2.05616
1.89003
1.77906
1.70466
1.65534
1.62341
1.60378
1.59354
1.58936
1.5887
1.59194
1.59702
1.60422
1.61291
1.62298
1.63438
1.64638
1.65913
1.67307
1.68828
1.70485
1.72287
1.74247
1.76381
1.78706
1.81244
1.84017
1.87055
366.08
427.193
489.332
548.836
597.914
625.023
619.561
578.425
508.23
421.391
330.65
245.929
172.143
114.488
75.4778
50.4689
34.4546
24.1684
17.5276
13.2205
10.3344
8.5804
7.60833
7.11893
7.00412
7.25382
7.99461
9.57967
12.7505
19.6177
38.4153
116.623
585.45
3498.81
2.58015
3.15623
4.39026
7.20047
13.398
25.3059
45.0278
74.3676
114.579
166.505
231.053
310.988
383.353
2.23442
2.01086
1.86121
1.76077
1.69319
1.64832
1.61931
1.60158
1.59264
1.58937
1.58872
1.59184
1.59703
1.60423
1.61292
1.62301
1.6339
1.64541
1.65817
1.67214
1.68739
1.70401
1.72208
1.74176
1.76318
1.78653
1.81204
1.83991
1.87046
451.772
521.211
591.923
658.618
709.931
730.776
710.482
649.958
560.696
457.948
355.107
259.594
179.702
119.656
78.9544
52.8172
36.0541
25.2706
18.2974
13.7649
10.7179
8.86012
7.8254
7.29643
7.15491
7.38909
8.11164
9.67665
12.8432
19.747
39.0049
120.203
609.488
3563.14
2.4776
2.99408
4.05141
6.46208
11.9132
22.8089
41.3649
69.4822
108.402
158.741
220.961
296.086
388.276
470.2
2.17062
1.97034
1.83539
1.74435
1.6829
1.64205
1.61565
1.59969
1.59223
1.58925
1.58846
1.5919
1.59704
1.60421
1.613
1.62253
1.6329
1.64443
1.65719
1.67119
1.68647
1.70314
1.72128
1.74102
1.76254
1.78599
1.81163
1.83965
1.87037
548.368
627.826
709.224
784.097
835.669
845.424
805.029
721.617
611.86
493.029
375.32
271.239
188.025
125.359
82.7994
55.4181
37.8267
26.4926
19.1507
14.3684
11.1431
9.17
8.06535
7.492
7.3204
7.53724
8.24
9.80545
12.9664
19.9228
39.6298
124.435
635.152
3623.78
2.38655
2.84853
3.75057
5.79156
10.5143
20.3591
37.6834
64.5301
102.198
151.165
211.474
283.496
368.825
474.02
566.865
2.11389
1.93411
1.81225
1.72963
1.67369
1.63641
1.61244
1.59852
1.59185
1.58894
1.5885
1.59191
1.59707
1.60427
1.61255
1.62152
1.63189
1.64342
1.65619
1.67022
1.68554
1.70225
1.72045
1.74027
1.76188
1.78544
1.81122
1.8394
1.87028
656.936
749.526
844.841
928.431
976.233
968.076
901.667
792.202
661.069
521.963
392.5
284.018
197.179
131.65
87.05
58.298
39.7914
27.8472
20.0966
15.0374
11.6143
9.51313
8.33052
7.70743
7.50224
7.69998
8.40872
9.96862
13.1113
20.1209
40.4269
128.963
662.454
3680.73
2.306
2.71898
3.49333
5.19614
9.22297
17.9786
33.9979
59.4961
95.9026
143.64
202.429
271.992
353.045
448.294
568.283
674.662
2.0634
1.90174
1.79153
1.71644
1.66539
1.63144
1.61023
1.59769
1.59142
1.589
1.58853
1.59188
1.59724
1.60382
1.61158
1.62052
1.63086
1.6424
1.65516
1.66923
1.68457
1.70134
1.71961
1.7395
1.76121
1.7849
1.81083
1.83916
1.8702
780.092
891.227
1004.4
1095.38
1132.33
1097.44
998.762
860.622
701.669
546.501
411.287
298.017
207.235
138.58
91.7452
61.4852
41.9679
29.3482
21.1445
15.7783
12.136
9.89274
8.62332
7.94476
7.70174
7.90952
8.61841
10.1458
13.2735
20.3766
41.281
134.24
692.126
3733.04
2.23487
2.60307
3.28124
4.68846
8.05642
15.6915
30.3312
54.3776
89.4689
136.058
193.626
261.369
339.092
428.376
533.638
672.241
796.281
2.01843
1.87283
1.77297
1.70457
1.65802
1.62783
1.60878
1.5971
1.59153
1.58903
1.58853
1.59201
1.59695
1.60287
1.61063
1.61952
1.62981
1.64135
1.65411
1.66821
1.68359
1.70041
1.71874
1.73871
1.76055
1.78437
1.81045
1.83892
1.87012
923.524
1061.32
1195.58
1289.23
1304.51
1232.09
1094.58
917.345
736.074
573.253
431.775
313.315
218.257
146.202
96.925
65.009
44.3771
31.0103
22.3045
16.598
12.7129
10.3121
8.94637
8.20568
7.96217
8.16572
8.83958
10.337
13.4618
20.667
42.3301
140.074
722.874
3781.92
2.17209
2.49967
3.10156
4.26591
7.04479
13.5489
26.7155
49.1835
82.8591
128.325
184.905
251.339
326.702
411.369
508.352
624.468
788.221
937.586
1.97839
1.84702
1.75629
1.69402
1.65251
1.62558
1.60795
1.59725
1.59157
1.58902
1.58885
1.59168
1.59619
1.60198
1.60965
1.6185
1.62873
1.64028
1.65304
1.66716
1.68259
1.69945
1.71786
1.73793
1.75991
1.78385
1.81007
1.83869
1.87004
1096.65
1272.13
1428.95
1515.97
1494.48
1369.92
1174.97
965.484
773.508
602.304
454.039
329.979
230.304
154.566
102.629
68.8989
47.0405
32.8484
23.5869
17.5036
13.3496
10.7746
9.3018
8.54588
8.2833
8.43266
9.0727
10.5444
13.6757
21.0204
43.5035
146.668
756.762
3826.09
2.11663
2.40792
2.94627
3.91714
6.19512
11.6345
23.2193
43.9378
76.0473
120.351
176.113
241.678
315.458
396.921
487.489
592.275
721.214
920.478
1109.09
1.94274
1.82389
1.74147
1.68596
1.64915
1.62449
1.60815
1.59729
1.59153
1.58941
1.58891
1.59093
1.59551
1.6011
1.60866
1.61748
1.62763
1.63919
1.65195
1.66609
1.68156
1.69847
1.71699
1.73718
1.75928
1.78335
1.80971
1.83846
1.86997
1316.07
1543.4
1723.04
1789.62
1703.48
1487.97
1243.48
1017.84
814.02
633.697
478.123
348.055
243.424
163.716
108.893
73.1835
49.9792
34.8775
25.0021
18.5018
14.0509
11.2831
9.76519
8.96442
8.6185
8.71135
9.31842
10.7707
13.9186
21.4357
44.8692
154.232
791.215
3868.01
2.06758
2.327
2.80975
3.63004
5.49085
9.98916
19.9794
38.7189
69.0234
112.052
167.094
232.165
305.062
384.405
470.589
566.543
680.356
825.851
1078.89
1328.02
1.9109
1.80337
1.72994
1.68116
1.64773
1.62478
1.60822
1.59724
1.59205
1.58962
1.58872
1.59033
1.59483
1.60026
1.60764
1.61644
1.62652
1.63807
1.65084
1.66499
1.68052
1.69751
1.71615
1.73645
1.75867
1.78287
1.80936
1.83825
1.86989
1615.67
1922.22
2125.73
2133.73
1886.66
1588.96
1317.99
1074.34
857.567
667.414
504.029
367.564
257.649
173.686
115.749
77.8892
53.2131
37.1121
26.5598
19.5995
14.8206
11.9451
10.3338
9.39989
8.96741
9.00236
9.57897
11.0154
14.2012
21.9142
46.4785
162.541
829.233
3906.41
2.02399
2.25594
2.6883
3.39664
4.9126
8.60065
17.0801
33.7238
61.8495
103.351
157.684
222.573
295.209
373.439
456.658
546.718
648.533
774.463
944.399
1287.75
1638.14
1.8827
1.78724
1.72313
1.67934
1.64811
1.62486
1.60814
1.59795
1.59255
1.58968
1.5888
1.58979
1.59413
1.59944
1.6066
1.61539
1.62539
1.63693
1.64971
1.66387
1.67949
1.69657
1.71533
1.73574
1.75809
1.7824
1.80902
1.83804
1.86982
2108.95
2533.9
2751.9
2436.04
2042.07
1698.08
1397.95
1134.7
903.985
703.357
531.706
388.489
272.986
184.497
123.222
83.0373
56.7598
39.5652
28.2695
20.8024
15.8207
12.7546
10.9232
9.85109
9.32958
9.30706
9.85395
11.2871
14.5157
22.497
48.2689
172.292
867.745
3944.42
1.98552
2.19346
2.58
3.20382
4.44015
7.44015
14.5279
29.1022
54.7667
94.2533
147.714
212.649
285.599
363.605
445.215
531.146
625.264
735.146
879.759
1090.38
1603.49
2210.89
1.86025
1.77789
1.72078
1.67986
1.64822
1.62474
1.60913
1.59895
1.59306
1.59008
1.58899
1.58935
1.59339
1.59865
1.60556
1.61432
1.62425
1.63575
1.64857
1.66276
1.6785
1.69567
1.71454
1.73505
1.75751
1.78194
1.80868
1.83783
1.86975
3012.86
3758.69
3257.58
2680.68
2205.14
1813.14
1482.36
1198.4
952.965
741.331
561.036
410.766
289.409
196.148
131.322
88.6427
60.6325
42.2475
30.1381
22.362
17.0393
13.5906
11.531
10.3168
9.70511
9.6255
10.1485
11.5805
14.8887
23.1471
50.4536
182.985
909.449
3981.67
1.95465
2.13896
2.48361
3.04031
4.05692
6.4819
12.3271
24.8939
47.9889
84.9991
137.085
202.115
275.897
354.535
435.697
519.237
607.761
707.863
831.422
1008.61
1298.1
2224.77
3450.51
1.84729
1.77495
1.72147
1.67999
1.64804
1.62601
1.61079
1.60026
1.59406
1.59061
1.58923
1.58911
1.59263
1.59789
1.60452
1.61323
1.62311
1.63456
1.64744
1.6617
1.67753
1.69479
1.71377
1.73438
1.75696
1.7815
1.80836
1.83763
1.86971
5252.3
4512.7
3609.61
2916.06
2369.99
1931.54
1569.88