/*--------------------------------*- C++ -*----------------------------------*\
  =========                 |
  \\      /  F ield         | OpenFOAM: The Open Source CFD Toolbox
   \\    /   O peration     | Website:  https://openfoam.org
    \\  /    A nd           | Version:  8
     \\/     M anipulation  |
\*---------------------------------------------------------------------------*/
FoamFile
{
    version     2.0;
    format      ascii;
    class       volScalarField;
    location    "0.36";
    object      p;
}
// * * * * * * * * * * * * * * * * * * * * * * * * * * * * * * * * * * * * * //

dimensions      [0 2 -2 0 0 0 0];

internalField   nonuniform List<scalar> 
15677
(
81.728
81.3715
80.958
81.436
80.9462
80.9598
81.4111
80.9734
80.9692
80.8528
81.3857
80.9748
80.9695
80.8618
80.761
81.3639
80.9771
80.9694
80.8611
80.7686
80.665
81.3405
80.9794
80.969
80.8622
80.7685
80.6717
80.5512
81.3154
80.982
80.9682
80.8625
80.7695
80.6717
80.557
80.416
81.2892
80.9852
80.9668
80.8627
80.7701
80.6727
80.5571
80.4211
80.2525
81.262
80.9872
80.965
80.8625
80.7706
80.6733
80.5581
80.4213
80.2569
80.0536
81.2335
80.9885
80.9624
80.862
80.771
80.674
80.5589
80.4224
80.2573
80.0574
79.8121
81.2042
80.99
80.9591
80.8617
80.7715
80.6747
80.5598
80.4233
80.2586
80.0579
79.8151
79.5201
81.1745
80.991
80.9558
80.8619
80.7722
80.6756
80.5609
80.4245
80.2597
80.0593
79.8158
79.5224
79.17
81.1448
80.9909
80.9523
80.8624
80.7732
80.6769
80.5624
80.4261
80.2613
80.0608
79.8175
79.5233
79.1715
78.754
81.118
80.9896
80.9487
80.8632
80.7749
80.6789
80.5645
80.4282
80.2634
80.0628
79.8193
79.5252
79.1725
78.7546
78.2647
81.095
80.9878
80.9452
80.8646
80.7775
80.682
80.5678
80.4314
80.2664
80.0657
79.822
79.5276
79.1748
78.7559
78.2644
77.6956
81.0748
80.9861
80.9423
80.8666
80.7813
80.6865
80.5725
80.4361
80.2708
80.0698
79.8257
79.531
79.1778
78.7585
78.2659
77.6941
77.0407
81.0573
80.9844
80.9401
80.8692
80.7866
80.6928
80.5794
80.443
80.2774
80.0758
79.8312
79.5359
79.1821
78.7622
78.2689
77.6959
77.038
76.2954
81.0419
80.9828
80.9385
80.8722
80.7932
80.7016
80.5892
80.4528
80.2869
80.0847
79.8392
79.543
79.1884
78.7676
78.2734
77.6994
77.0401
76.2914
75.4563
81.0287
80.9815
80.9374
80.8756
80.8003
80.7124
80.6024
80.4667
80.3005
80.0976
79.8509
79.5534
79.1974
78.7754
78.2801
77.7048
77.044
76.2937
75.4508
74.5217
81.0179
80.9802
80.937
80.8794
80.8082
80.724
80.6186
80.4856
80.3196
80.1159
79.8679
79.5686
79.2107
78.7868
78.2898
77.7129
77.0504
76.2981
75.4534
74.5147
73.4916
81.0092
80.9786
80.937
80.8837
80.8168
80.7369
80.6361
80.5086
80.3457
80.1416
79.8922
79.5907
79.2301
78.8035
78.3038
77.7246
77.06
76.3055
75.4583
74.5175
73.4829
72.3679
81.0026
80.9771
80.9375
80.8884
80.8259
80.7507
80.6554
80.5336
80.3774
80.1767
79.926
79.6221
79.2582
78.8278
78.3243
77.7415
77.0739
76.3167
75.4668
74.5228
73.486
72.3574
71.1548
80.9976
80.9758
80.9384
80.8934
80.8356
80.7654
80.676
80.5609
80.4118
80.2193
79.9723
79.6659
79.2981
78.8629
78.3542
77.7663
77.094
76.3328
75.4795
74.5323
73.4916
72.3607
71.1423
69.8579
80.9936
80.9748
80.9395
80.8986
80.8456
80.7809
80.6979
80.5903
80.4496
80.2658
80.0287
79.7259
79.3539
78.9128
78.3974
77.8024
77.1234
76.3563
75.498
74.5465
73.502
72.3665
71.1457
69.8433
68.4903
80.9905
80.9739
80.9407
80.9034
80.8555
80.7969
80.7209
80.6215
80.4902
80.3168
80.0901
79.7989
79.4303
78.9826
78.4588
77.8546
77.1663
76.3906
75.5248
74.5672
73.5176
72.3776
71.1515
69.8467
68.4732
67.0827
80.9881
80.9732
80.9419
80.9078
80.8646
80.8126
80.7447
80.6542
80.5333
80.3717
80.1576
79.8788
79.5234
79.0783
78.5447
77.9289
77.2284
76.4407
75.5641
74.5974
73.5404
72.3944
71.1631
69.852
68.4738
67.0295
65.5766
80.9861
80.9727
80.9431
80.9118
80.873
80.8271
80.7681
80.688
80.5785
80.4299
80.2302
79.9664
79.6254
79.1951
78.6626
78.033
77.3169
76.5133
75.6216
74.6415
73.5735
72.4188
71.1805
69.8635
68.4776
67.0318
65.5115
63.9578
80.9845
80.9723
80.9442
80.9154
80.8805
80.8403
80.7895
80.7212
80.6252
80.4909
80.3074
80.061
79.7374
79.3232
78.8069
78.1761
77.441
76.617
75.705
74.7063
73.6222
72.4544
71.206
69.8809
68.4873
67.0316
65.5139
63.9293
62.2987
80.9832
80.9719
80.9453
80.9187
80.8873
80.8521
80.8089
80.7517
80.6711
80.5541
80.3883
80.1615
79.8585
79.4643
78.9654
78.3516
77.6119
76.7626
75.8245
74.8007
73.694
72.507
71.2432
69.9065
68.5029
67.0382
65.5072
63.9212
62.289
60.6068
80.9822
80.9717
80.9463
80.9217
80.8933
80.8626
80.8263
80.7792
80.7132
80.6162
80.4723
80.2671
79.9874
79.6169
79.1402
78.5447
77.8221
76.9638
75.9929
74.9363
73.7989
72.5851
71.2988
69.9443
68.5268
67.0508
65.5129
63.9109
62.272
60.6029
58.7109
80.9813
80.9715
80.9472
80.9244
80.8986
80.872
80.8418
80.8039
80.7513
80.6732
80.5547
80.3767
80.1229
79.7796
79.3298
78.7583
78.054
77.2119
76.2263
75.128
73.9504
72.6998
71.3819
70.0014
68.5634
67.0717
65.5235
63.9178
62.2625
60.5838
58.71
56.5947
80.9806
80.9713
80.948
80.9269
80.9034
80.8804
80.8557
80.826
80.7855
80.7248
80.6306
80.4845
80.2638
79.951
79.5322
78.9902
78.311
77.4864
76.5149
75.3946
74.1653
72.8661
71.5049
70.0879
68.6202
67.1055
65.5422
63.9276
62.2695
60.5762
58.692
56.5958
54.4788
80.98
80.9712
80.9488
80.929
80.9076
80.8879
80.8681
80.8457
80.816
80.7711
80.6992
80.5837
80.4025
80.1295
79.7458
79.2385
78.5909
77.7915
76.8352
75.7255
74.4653
73.1034
71.6847
70.2175
68.7081
67.1603
65.5736
63.9454
62.2789
60.5814
58.6847
56.579
54.4812
52.3969
80.9794
80.9711
80.9495
80.9309
80.9114
80.8945
80.879
80.8632
80.8433
80.8126
80.7609
80.6735
80.5304
80.3054
79.9686
79.501
78.8912
78.1244
77.1922
76.094
74.8394
73.4362
71.9426
70.4085
68.8419
67.2476
65.6263
63.9753
62.2962
60.5904
58.6867
56.5715
54.4661
52.3994
50.366
80.9711
80.9789
80.9501
80.9327
80.9147
80.9004
80.8887
80.8788
80.8675
80.8495
80.8161
80.7543
80.6463
80.4679
80.1888
79.7756
79.2096
78.4828
77.5831
76.5061
75.2575
73.8532
72.3065
70.6846
69.0414
67.3833
65.7122
64.0259
62.3243
60.6065
58.6943
56.5702
54.4583
52.3852
50.368
48.396
80.9507
80.971
80.9782
80.9342
80.9176
80.9056
80.8974
80.8926
80.889
80.8824
80.8653
80.8267
80.7507
80.6153
80.3925
80.0474
79.5434
78.8638
78.0052
76.959
75.7269
74.3212
72.7648
71.0768
69.3327
67.5887
65.8482
64.1099
62.3724
60.6319
58.7073
56.575
54.4539
52.3763
50.3545
48.3976
46.4965
80.9355
80.9515
80.9711
80.9776
80.9203
80.9102
80.905
80.9048
80.9081
80.9116
80.9091
80.8913
80.8442
80.7483
80.5776
80.2994
79.8749
79.2646
78.4554
77.4497
76.2448
74.8489
73.2818
71.5738
69.7495
67.8915
66.0568
64.2447
62.4531
60.676
58.7283
56.5832
54.4551
52.3685
50.3442
48.3845
46.4974
44.675
80.9225
80.9373
80.9526
80.9711
80.977
80.9143
80.9118
80.9157
80.9251
80.9375
80.948
80.9488
80.9278
80.8676
80.7448
80.529
80.1829
79.6637
78.9305
77.975
76.8081
75.4334
73.8673
72.1373
70.2812
68.3284
66.3674
64.4538
62.5845
60.7516
58.7663
56.5975
54.4574
52.3651
50.3327
48.3725
46.4844
44.6751
42.9368
80.9178
80.9256
80.9395
80.9537
80.9712
80.9765
80.9178
80.9253
80.9401
80.9604
80.9826
81
81.0022
80.9743
80.895
80.7366
80.4641
80.0357
79.4053
78.5315
77.4134
76.0719
74.5187
72.7785
70.8874
68.8898
66.8193
64.7682
62.7908
60.877
58.8339
56.6262
54.4635
52.3604
50.324
48.3572
46.4705
44.6622
42.936
41.2849
80.923
80.9226
80.9291
80.9417
80.9547
80.9712
80.976
80.9339
80.9535
80.9808
81.0132
81.0454
81.0684
81.0694
81.0295
80.9235
80.719
80.3762
79.8493
79.0898
78.0574
76.7611
75.2335
73.4954
71.5808
69.5335
67.4042
65.2293
63.1043
61.0769
58.9495
56.6816
54.4807
52.3568
50.3114
48.3426
46.4513
44.6462
42.923
41.2832
39.7208
80.9411
80.9298
80.9277
80.9327
80.9439
80.9558
80.9713
80.9756
80.9653
80.999
81.0404
81.0857
81.1273
81.1541
81.1495
81.091
80.9488
80.6855
80.2569
79.6137
78.7063
77.4976
76.0087
74.2859
72.3598
70.2737
68.0789
65.8306
63.5683
61.3843
59.1378
56.7818
54.5207
52.3604
50.2968
48.3216
46.4307
44.6232
42.9049
41.2702
39.7183
38.2445
80.9752
80.9507
80.9369
80.9328
80.9362
80.946
80.9569
80.9714
80.9753
81.015
81.0646
81.1214
81.1795
81.2293
81.2565
81.2407
81.1551
80.965
80.6282
80.0963
79.3177
78.2433
76.8412
75.1475
73.2233
71.1097
68.8589
66.5284
64.1779
61.8441
59.4329
56.9517
54.6014
52.3825
50.2852
48.2951
46.4008
44.5963
42.878
41.2499
39.7051
38.2414
36.8552
81.0285
80.9884
80.9601
80.944
80.9379
80.9396
80.9481
80.9579
80.9715
80.975
81.0861
81.1533
81.2259
81.2962
81.3516
81.3743
81.3398
81.2164
80.9645
80.5373
79.8829
78.9489
77.6884
76.0776
74.1695
72.0414
69.7448
67.3396
64.8897
62.4528
59.88
57.2252
54.7469
52.4399
50.2872
48.2672
46.362
44.5573
42.845
41.2193
39.6826
38.2279
36.8514
35.5507
81.104
81.0462
81.0006
80.9697
80.951
80.9429
80.943
80.9501
80.959
80.9716
80.9748
81.1815
81.2673
81.3557
81.4362
81.4932
81.5048
81.4419
81.2677
80.9377
80.4011
79.6038
78.4939
77.0294
75.1968
73.0682
70.7378
68.2664
65.7221
63.1684
60.4777
57.6467
54.9906
52.5563
50.3187
48.2475
46.3169
44.5058
42.7969
41.1801
39.6485
38.2034
36.8377
35.5464
34.3283
81.2049
81.1276
81.062
81.0132
80.979
80.9578
80.9477
80.9462
80.9521
80.9601
80.9718
80.9746
81.3039
81.4086
81.5115
81.5991
81.6519
81.6435
81.54
81.2996
80.8731
80.2065
79.2449
77.939
76.2541
74.1897
71.8389
69.3117
66.6793
64.0109
61.1862
58.2178
55.3747
52.763
50.4019
48.2509
46.2746
44.4433
42.7327
41.1231
39.6034
38.1658
36.8111
35.5323
34.3235
33.1851
81.3342
81.2359
81.1476
81.0782
81.0255
80.988
80.9644
80.9523
80.9494
80.954
80.9611
80.9719
80.9744
81.4556
81.5786
81.6933
81.7829
81.8236
81.7841
81.6254
81.3008
80.7573
79.9387
78.791
77.2701
75.3511
73.0489
70.478
67.7657
64.986
62.0269
58.9021
55.9036
53.0991
50.5653
48.2977
46.2484
44.3778
42.6526
41.0462
39.5376
38.115
36.7703
35.5038
34.3092
33.1798
32.1174
81.4942
81.3744
81.2611
81.1684
81.094
81.0372
80.9967
80.9706
80.9568
80.9525
80.9558
80.9621
80.972
80.9744
81.638
81.7774
81.8997
81.9842
82.0024
81.918
81.6869
81.2579
80.575
79.5815
78.2266
76.4737
74.3103
71.7682
68.9858
66.1001
63.0073
59.722
56.546
53.5724
50.8446
48.4128
46.2564
44.3214
42.5639
40.9489
39.4484
38.0409
36.714
35.4601
34.279
33.1652
32.1117
31.1214
81.6868
81.546
81.4058
81.2875
81.1886
81.1091
81.0484
81.0049
80.9766
80.961
80.9554
80.9575
80.9632
80.9722
80.9743
81.8519
82.004
82.1274
82.1973
82.1801
82.0343
81.711
81.1554
80.3095
79.1182
77.5363
75.5372
73.1226
70.3451
67.3603
64.1362
60.6867
57.3238
54.1568
51.2505
48.628
46.3196
44.2889
42.4769
40.8373
39.3344
37.9398
36.6319
35.3986
34.2324
33.1333
32.0968
31.1154
30.1933
81.9127
81.7527
81.585
81.4391
81.313
81.2076
81.1233
81.0589
81.0127
80.9823
80.965
80.9583
80.959
80.9642
80.9723
80.9743
82.0963
82.2556
82.3714
82.4145
82.3462
82.1198
81.6821
80.9757
79.9427
78.5316
76.705
74.4484
71.7824
68.7744
65.4234
61.8077
58.2482
54.8728
51.7622
48.9563
46.4648
44.2975
42.4032
40.7201
39.2006
37.8096
36.5195
35.3089
34.166
33.0841
32.0634
31.1002
30.187
29.3293
82.1715
81.996
81.801
81.6266
81.471
81.3369
81.2255
81.1366
81.0688
81.02
80.9876
80.9688
80.961
80.9605
80.965
80.9725
80.9744
82.3689
82.5274
82.6242
82.6256
82.4875
82.1586
81.5823
80.7001
79.456
77.8045
75.7181
73.1995
70.2813
66.88
63.0983
59.3333
55.7333
52.3981
49.3822
46.7072
44.3689
42.356
40.6051
39.0535
37.6544
36.374
35.1858
34.0693
33.0132
32.0118
31.0653
30.1715
29.3227
28.5256
82.4608
82.2759
82.0554
81.8527
81.6664
81.5009
81.3592
81.2422
81.149
81.078
81.0268
80.9926
80.9724
80.9633
80.9619
80.9658
80.9726
80.9745
82.6653
82.8124
82.876
82.8176
82.5883
82.1327
81.3921
80.3085
78.8305
76.9202
74.5651
71.7777
68.446
64.5737
60.5958
56.7542
53.1715
49.9207
47.0362
44.5189
42.351
40.5015
38.8978
37.4784
36.1984
35.0258
33.9361
32.9098
31.9366
31.0115
30.1354
29.307
28.5187
27.7782
82.7764
82.5909
82.3488
82.1195
81.9021
81.7034
81.5285
81.3798
81.2575
81.1604
81.0865
81.033
80.9971
80.9755
80.9652
80.9632
80.9665
80.9728
80.9746
82.9786
83.1011
83.114
82.9748
82.6302
82.0219
81.0904
79.7808
78.0473
75.8652
73.229
70.0147
66.1778
62.0547
57.9545
54.0988
50.5844
47.4618
44.7417
42.404
40.419
38.7383
37.2831
35.9946
34.8309
33.7624
32.7672
31.8271
30.9324
30.0796
29.2696
28.5026
27.7707
27.0861
83.1117
82.9376
82.6803
82.4281
82.1806
81.9477
81.7374
81.5538
81.3986
81.2714
81.1707
81.0941
81.0386
81.001
80.9783
80.9669
80.9643
80.9671
80.973
80.9747
83.2995
83.3809
83.3226
83.0788
82.5928
81.8042
80.6556
79.0958
77.0903
74.619
71.5491
67.802
63.6572
59.3539
55.1986
51.3877
47.9943
45.0412
42.5136
40.3723
38.5785
37.0689
35.761
34.6007
33.5494
32.581
31.6758
30.8172
29.9968
29.2121
28.4642
27.7545
27.0751
26.5145
83.4576
83.3103
83.047
82.7781
82.5034
82.2367
81.9895
81.7684
81.5767
81.4155
81.2838
81.1798
81.1008
81.0433
81.0044
80.9807
80.9684
80.9653
80.9677
80.9731
80.9748
83.6159
83.6367
83.4835
83.1088
82.4532
81.4569
80.0647
78.235
75.9361
73.0297
69.4034
65.2917
60.9023
56.4888
52.3471
48.6449
45.424
42.6764
40.3638
38.4308
36.8327
35.4938
34.3305
33.2941
32.3508
31.4778
30.6578
29.8764
29.126
28.4051
27.7153
27.0592
26.5104
26.0349
83.8018
83.7009
83.4442
83.1674
82.8706
82.5722
82.2878
82.0272
81.7961
81.597
81.4303
81.2946
81.1877
81.1063
81.0473
81.0071
80.9827
80.9696
80.9662
80.9683
80.9733
80.975
83.9124
83.8497
83.5755
83.0413
82.1877
80.9553
79.2972
77.173
74.4408
70.9559
66.9098
62.4914
57.9287
53.4819
49.4295
45.8985
42.8955
40.383
38.3021
36.5846
35.1832
34.0124
32.9892
32.0721
31.2318
30.449
29.7096
29.0008
28.316
27.6549
27.0192
26.498
26.0387
25.5349
84.1287
84.0984
83.8646
83.5922
83.2811
82.9551
82.6347
82.3337
82.0607
81.8204
81.6146
81.4429
81.3037
81.1941
81.1108
81.0505
81.0094
80.9843
80.9707
80.9669
80.9687
80.9734
80.9751
84.1704
83.9991
83.5747
82.8516
81.7701
80.2772
78.3257
75.7709
72.4388
68.484
64.0777
59.4267
54.7706
50.373
46.4821
43.1772
40.4295
38.1741
36.3356
34.8366
33.6298
32.6227
31.7344
30.931
30.1882
29.4907
28.8271
28.1865
27.563
26.9578
26.4578
26.0272
25.5345
24.9961
84.4195
84.4888
84.2983
84.0464
83.7317
83.3846
83.0313
82.6905
82.3741
82.0897
81.841
81.6292
81.4533
81.3108
81.199
81.1143
81.053
81.0113
80.9857
80.9717
80.9676
80.9692
80.9736
80.9753
84.3684
84.0603
83.4557
82.5124
81.1764
79.3927
77.0131
73.839
69.9969
65.6432
60.9551
56.1485
51.4788
47.2072
43.5409
40.5076
38.0437
36.0603
34.4693
33.1879
32.1712
31.3221
30.5626
29.8669
29.2163
28.5991
28.0064
27.4295
26.8634
26.396
25.9876
25.5199
24.991
24.4093
84.6521
84.8546
84.7325
84.5213
84.2174
83.8584
83.4777
83.0991
82.7392
82.4087
82.114
81.8579
81.6408
81.461
81.316
81.2026
81.1168
81.0549
81.0127
80.9868
80.9724
80.9681
80.9695
80.9737
80.9756
84.4816
84.0073
83.1901
81.9978
80.3744
78.1644
75.1503
71.4396
67.177
62.5047
57.6027
52.711
48.1015
44.0253
40.638
37.9124
35.7525
34.0492
32.706
31.6381
30.8052
30.1073
29.4699
28.8759
28.3121
27.77
27.2437
26.7264
26.2996
25.9253
25.4802
24.9737
24.4023
23.7738
84.8006
85.1756
85.1511
85.0054
84.7306
84.3726
83.9724
83.5603
83.158
82.7806
82.4373
82.1335
81.8708
81.6491
81.4663
81.3195
81.205
81.1186
81.0562
81.0138
80.9876
80.9731
80.9686
80.9699
80.9739
80.9759
84.483
83.811
82.7502
81.2732
79.2245
76.3711
72.8074
68.6694
64.063
59.1257
54.0672
49.1577
44.6799
40.8632
37.8008
35.4103
33.5666
32.1456
31.0465
30.1856
29.5286
28.9742
28.4522
27.9539
27.4713
26.9995
26.5352
26.1597
25.8272
25.4167
24.9329
24.3843
23.7661
23.0882
84.8364
85.428
85.5348
85.4843
85.2614
84.9207
84.512
84.0731
83.6317
83.2077
82.8143
82.4596
82.1478
81.8795
81.6542
81.4693
81.3214
81.2063
81.1196
81.0571
81.0145
80.9882
80.9735
80.9691
80.9703
80.974
80.9761
84.3422
83.442
82.0992
80.1961
77.5016
74.0973
70.1104
65.6124
60.6983
55.5381
50.3808
45.5243
41.2502
37.7521
35.0522
33.0154
31.4931
30.3518
29.49
28.8277
28.3377
27.919
27.5055
27.0968
26.6901
26.2839
25.9642
25.6848
25.3167
24.8676
24.3423
23.7479
23.08
22.3489
84.7272
85.5855
85.8609
85.9403
85.7967
85.494
85.0914
84.6351
84.1599
83.6915
83.2477
82.8401
82.4755
82.1566
81.8842
81.6565
81.4704
81.322
81.2067
81.12
81.0575
81.0149
80.9886
80.9742
80.9696
80.9706
80.9742
80.9764
84.0272
82.8616
81.0918
78.5443
75.3061
71.4897
67.1336
62.2942
57.0991
51.7614
46.5711
41.8445
37.8458
34.7189
32.4105
30.738
29.5363
28.6679
28.0342
27.5609
27.2285
26.9374
26.6255
26.3006
25.9646
25.7073
25.4858
25.1717
24.7655
24.275
23.7049
23.0614
22.3403
21.5522
84.4361
85.6194
86.1039
86.3527
86.3206
86.081
85.7031
85.2422
84.7411
84.2324
83.7393
83.2778
82.8577
82.4845
82.1606
81.8853
81.6564
81.4699
81.3214
81.2063
81.1199
81.0575
81.015
80.9893
80.9748
80.97
80.9709
80.9744
80.9767
83.4969
81.9203
79.5141
76.433
72.7969
68.6078
63.8853
58.7171
53.2729
47.814
42.6668
38.1515
34.497
31.7862
29.8894
28.5845
27.6977
27.0925
26.676
26.3811
26.1969
26.0251
25.8081
25.5612
25.38
25.2242
24.9689
24.6175
24.1706
23.6357
23.0172
22.3213
21.5434
20.6945
83.9168
85.4982
86.2349
86.6973
86.8142
86.6675
86.3371
85.888
85.3719
84.8293
84.2899
83.7747
83.2975
82.8668
82.4873
82.1601
81.8835
81.6541
81.4678
81.3198
81.2052
81.1191
81.057
81.0157
80.9902
80.9753
80.9703
80.9711
80.9746
80.977
82.5951
80.4188
77.4926
74.0257
70.0176
65.4455
60.3577
54.8792
49.229
43.7183
38.6998
34.4788
31.2318
28.9722
27.4984
26.5585
25.9768
25.6227
25.4115
25.2843
25.2384
25.1779
25.0492
24.9656
24.8904
24.7023
24.4107
24.0194
23.5289
22.9463
22.276
21.524
20.6856
19.7724
85.1839
83.0094
86.2205
86.9474
87.255
87.2364
86.9809
86.564
86.0473
85.4799
84.8992
84.3321
83.7973
83.3067
82.8682
82.4848
82.1559
81.8789
81.65
81.4645
81.3173
81.2033
81.1177
81.0576
81.0169
80.9908
80.9756
80.9705
80.9713
80.9748
80.9773
81.1407
78.4899
75.1894
71.3519
66.9511
61.9883
56.5412
50.7809
44.9822
39.5024
34.705
30.8596
28.0743
26.2911
25.2437
24.6605
24.371
24.2545
24.2361
24.2656
24.3485
24.3917
24.438
24.4667
24.3614
24.1387
23.8083
23.3742
22.8369
22.2033
21.4776
20.6658
19.7635
18.7825
86.0261
84.5229
81.5357
87.0705
87.6184
87.7669
87.619
87.2591
86.76
86.1801
85.5655
84.9502
84.3585
83.8069
83.3065
82.863
82.4776
82.1484
81.8721
81.6443
81.46
81.3137
81.2006
81.1181
81.0593
81.0177
80.9912
80.9758
80.9706
80.9715
80.975
80.9776
79.2742
76.2907
72.6235
68.3859
63.5787
58.2212
52.4291
46.4287
40.5542
35.2001
30.7201
27.3253
25.0453
23.7529
23.1278
22.8888
22.8767
22.9837
23.1452
23.3205
23.523
23.7585
23.9262
23.9278
23.7903
23.5305
23.1585
22.6785
22.0912
21.4031
20.6184
19.7432
18.7735
17.7214
87.034
85.5201
83.3788
79.6651
87.8735
88.2365
88.2326
87.9598
87.5004
86.9239
86.2856
85.628
84.9818
84.369
83.8049
83.2982
82.8521
82.4663
82.1381
81.8634
81.6373
81.4542
81.3091
81.2006
81.1203
81.0603
81.0182
80.9913
80.9758
80.9707
80.9715
80.9752
80.9779
77.1469
73.8335
69.7625
65.1073
59.8824
54.1318
48.0193
41.8357
35.9741
30.8507
26.7832
23.9046
22.1612
21.3638
21.1505
21.2403
21.4894
21.8049
22.1337
22.4443
22.8586
23.2285
23.3735
23.3461
23.174
22.8745
22.4579
21.9289
21.2882
20.5422
19.695
18.7529
17.7126
16.5863
87.9916
86.7232
84.5395
81.8595
77.5462
88.6161
88.8011
88.6492
88.2567
87.7031
87.0547
86.3631
85.6667
84.9939
84.3653
83.7931
83.283
82.8364
82.4517
82.1255
81.853
81.6285
81.4471
81.3086
81.2035
81.1216
81.0608
81.0182
80.9911
80.9759
80.9707
80.9716
80.9754
80.9783
74.7665
71.0806
66.5855
61.4962
55.8458
49.7109
43.3152
37.0224
31.2784
26.497
22.9317
20.6227
19.4341
19.1264
19.3096
19.7103
20.2037
20.7129
21.1967
21.7397
22.3027
22.6562
22.777
22.7186
22.5094
22.1673
21.7031
21.1218
20.4244
19.6169
18.7037
17.6915
16.5776
15.3748
88.8806
87.879
85.9798
83.1917
80.0814
75.1829
89.2973
89.3086
89.0139
88.5076
87.866
87.1516
86.4117
85.6818
84.9889
84.3496
83.7728
83.2618
82.8165
82.4343
82.1108
81.8405
81.6181
81.4457
81.3124
81.2051
81.1222
81.0607
81.0178
80.9912
80.9759
80.9707
80.9716
80.9756
80.9787
72.0892
68.0117
63.0728
57.5349
51.4547
44.9522
38.326
32.0177
26.5103
22.1839
19.2009
17.4998
16.8715
17.0405
17.6011
18.2933
19.0137
19.7023
20.4439
21.1506
21.7027
22.0389
22.1337
22.042
21.7932
21.4057
20.8907
20.2538
19.4962
18.6239
17.6416
16.5561
15.3662
14.0848
89.7
88.9599
87.3776
84.8827
81.591
78.0677
72.5231
89.9129
89.7554
89.3242
88.7108
87.9881
87.2137
86.4316
85.676
84.9692
84.3237
83.7453
83.2357
82.7933
82.4144
82.0936
81.8259
81.6156
81.4507
81.3144
81.2058
81.122
81.06
81.018
80.9914
80.9759
80.9706
80.9715
80.9758
80.9791
69.0956
64.6088
59.207
53.206
46.6948
39.8526
33.068
26.8589
21.7187
17.9569
15.6217
14.5509
14.4771
15.1035
16.0194
16.983
17.9137
18.8913
19.815
20.5149
21.0558
21.3733
21.4404
21.3131
21.022
20.586
20.0171
19.3213
18.5001
17.56
16.5055
15.3445
14.0767
12.7144
90.444
89.9652
88.694
86.5371
83.536
79.7866
75.7685
69.5462
90.4583
90.1383
89.5779
88.8652
88.0682
87.2409
86.4261
85.6524
84.9371
84.2891
83.7119
83.2055
82.7671
82.3914
82.0739
81.8217
81.622
81.4532
81.3152
81.2054
81.1208
81.0605
81.0186
80.9914
80.9757
80.9704
80.9714
80.9761
80.9796
65.7697
60.8564
54.9698
48.4899
41.5516
34.4125
27.5658
21.5927
16.9571
13.8589
12.2194
11.7862
12.2511
13.3104
14.5581
15.7731
17.032
18.2144
19.1367
19.83
20.3588
20.6564
20.6937
20.5284
20.1922
19.7049
19.0789
18.3209
17.4332
16.4222
15.2933
14.0548
12.7085
11.0078
91.1068
90.8875
89.9305
88.1046
85.4473
82.0107
77.731
73.1663
66.237
90.9293
90.4544
89.7735
88.9693
88.1063
87.2375
86.3991
85.6139
84.8947
84.2474
83.6736
83.1719
82.7371
82.3653
82.068
81.8301
81.6251
81.454
81.3146
81.2036
81.1217
81.0617
81.019
80.9912
80.9754
80.9702
80.9713
80.9763
80.9801
62.0987
56.7383
50.3392
43.3635
36.0093
28.6374
21.8551
16.2751
12.2804
9.92885
9.01366
9.21075
10.1904
11.6551
13.2102
14.8045
16.2967
17.4849
18.4064
19.0927
19.6086
19.8847
19.8903
19.6846
19.3006
18.7589
18.0727
17.2496
16.2925
15.2085
14.0034
12.6872
10.9996
9.01894
91.683
91.7184
91.0803
89.5881
87.2665
84.1961
80.2655
75.4018
70.2535
62.5833
91.3224
90.7018
89.909
89.0228
88.1073
87.208
86.3541
85.5629
84.8435
84.1998
83.6313
83.1336
82.7035
82.3571
82.0781
81.8337
81.626
81.4531
81.3121
81.205
81.1239
81.0626
81.019
80.9908
80.9749
80.9698
80.9711
80.9767
80.9807
58.068
52.2328
45.2877
37.7968
30.0504
22.5426
15.9851
10.9696
7.74268
6.19962
6.01781
6.82485
8.2894
10.1302
12.1325
13.9977
15.5052
16.7004
17.6213
18.3
18.8019
19.0551
19.0269
18.7782
18.3437
17.7448
16.9956
16.1046
15.0759
13.9171
12.636
10.9754
9.00924
7.05192
92.1684
92.4494
92.1334
90.9809
88.9969
86.2821
82.7502
78.2749
72.7932
67.0273
58.5714
91.6348
90.8779
89.9838
89.0314
88.0768
87.1567
86.294
85.5015
84.7856
84.1475
83.5834
83.091
82.6925
82.3697
82.0826
81.8347
81.6247
81.4497
81.3142
81.2088
81.1257
81.0631
81.0187
80.9902
80.9742
80.9693
80.9708
80.977
80.9813
53.6573
47.3119
39.7758
31.7522
23.6642
16.1582
10.0191
5.74465
3.39442
2.69712
3.23833
4.62517
6.54078
8.91265
11.2362
13.1303
14.655
15.858
16.7782
17.4487
17.9355
18.1642
18.1002
17.8062
17.3185
16.6596
15.8449
14.8839
13.7819
12.5486
10.9224
8.98377
7.04538
5.13648
92.56
93.0734
93.0792
92.2717
90.6324
88.272
85.1287
81.0794
76.035
69.9066
63.4863
54.1813
91.8628
90.9813
90.0045
89.0022
88.02
87.0873
86.2214
85.4318
84.7219
84.0886
83.5302
83.0766
82.7079
82.3752
82.0838
81.8329
81.6201
81.4529
81.32
81.2119
81.1269
81.0631
81.0181
80.9893
80.9734
80.9686
80.9705
80.9774
80.9819
48.8395
41.936
33.7547
25.1958
16.8548
9.53468
4.03445
0.670731
-0.720388
-0.561495
0.676296
2.60504
5.14736
7.9018
10.2738
12.1998
13.7435
14.9548
15.8741
16.5357
17.0065
17.2091
17.1071
16.7655
16.2221
15.501
14.6186
13.5859
12.411
10.8323
8.92906
7.02262
5.13131
3.27968
92.8527
93.5849
93.9074
93.4494
92.1613
90.1585
87.4043
83.7691
79.1796
73.5508
66.7496
59.627
49.3866
92.0042
91.0198
89.9795
88.9412
87.9415
87.003
86.1391
85.3556
84.6505
84.0232
83.5119
83.0954
82.7146
82.3765
82.0814
81.8268
81.6246
81.4613
81.3249
81.2142
81.1276
81.0627
81.0172
80.9881
80.9723
80.9679
80.9701
80.9778
80.9826
43.5766
36.0468
27.1597
18.0864
9.6391
2.74592
-1.8793
-4.18401
-4.56743
-3.56684
-1.67261
0.99907
3.99318
6.81811
9.2432
11.204
12.7679
13.9881
14.9063
15.5582
16.0119
16.1868
16.045
15.6535
15.0522
14.2669
13.3154
12.2113
10.6914
8.83645
6.97004
5.10932
3.27534
1.48826
93.0432
93.9774
94.6081
94.502
93.5725
91.93
89.5687
86.3486
82.1972
77.0578
70.8357
63.333
55.4426
44.1539
92.0677
91.0034
89.9165
88.8541
87.8451
86.907
86.0489
85.2701
84.5713
84.0003
83.5346
83.1033
82.716
82.3735
82.0735
81.8331
81.6365
81.4687
81.3288
81.2158
81.1276
81.0618
81.0158
80.9866
80.9709
80.9669
80.9696
80.9783
80.9833
37.8046
29.5556
19.9005
10.3804
2.0579
-4.11094
-7.62581
-8.75965
-8.12232
-6.3177
-3.53466
-0.327586
2.75843
5.66014
8.1425
10.1403
11.7258
12.9552
13.8723
14.514
14.9495
15.0951
14.9115
14.4681
13.8073
12.9565
11.936
10.4875
8.69233
6.87857
5.05828
3.25375
1.48477
-0.228382
93.1407
94.2451
95.1686
95.418
94.8535
93.5741
91.6088
88.8101
85.0937
80.4203
74.7303
67.9082
59.6667
50.9267
38.4276
92.0653
90.9411
89.8219
88.7456
87.7346
86.8016
85.9478
85.1753
84.5431
84.0276
83.544
83.1049
82.7122
82.3634
82.082
81.8495
81.6471
81.4747
81.3318
81.2166
81.127
81.0604
81.0139
80.9847
80.9694
80.9659
80.9691
80.9788
80.984
31.4336
22.3485
11.876
2.05839
-5.81041
-10.9181
-13.1102
-13.0068
-11.3723
-8.49101
-5.06752
-1.74323
1.44274
4.42669
6.96983
9.00694
10.6153
11.8546
12.7704
13.4011
13.8172
13.932
13.7051
13.2083
12.4866
11.5704
10.2071
8.48468
6.73458
4.96818
3.20416
1.46411
-0.230982
-1.86301
93.1595
94.3991
95.5753
96.1801
95.9909
95.0781
93.5107
91.1405
87.863
83.6452
78.4559
72.2198
64.7888
55.7591
46.0619
32.1254
92.0078
90.8409
89.7016
88.6201
87.613
86.6836
85.8358
85.1411
84.5757
84.0386
83.5458
83.1001
82.6994
82.3745
82.1038
81.864
81.6559
81.4796
81.3338
81.2166
81.1256
81.0583
81.0116
80.9825
80.9676
80.9647
80.9685
80.9792
80.9848
24.3432
14.2769
2.98794
-6.86147
-13.8409
-17.5422
-18.2444
-16.89
-13.9297
-10.2723
-6.69786
-3.24628
0.0463897
3.11696
5.72415
7.80265
9.43513
10.6848
11.5992
12.2183
12.614
12.6967
12.425
11.8737
11.0914
9.83463
8.20003
6.52651
4.82534
3.11542
1.4167
-0.250393
-1.86479
-3.41065
93.1122
94.4566
95.8369
96.7666
96.9639
96.4289
95.2591
93.3257
90.4943
86.7298
82.02
76.3292
69.5521
61.4975
51.6173
40.8154
25.1328
91.9048
90.7099
89.561
88.4814
87.4766
86.5526
85.7949
85.1798
84.5885
84.0406
83.5399
83.0842
82.7137
82.4029
82.1233
81.8765
81.6634
81.4833
81.3347
81.2156
81.1234
81.0555
81.0087
80.9798
80.9656
80.9635
80.9679
80.9797
80.9855
16.3427
5.14912
-6.84828
-16.3076
-21.8625
-23.8424
-22.9508
-19.9326
-16.0137
-12.1587
-8.4207
-4.83392
-1.42961
1.73136
4.40551
6.52742
8.18522
9.44571
10.3586
10.9654
11.3397
11.3892
11.0716
10.466
9.34616
7.82242
6.24131
4.61878
2.97429
1.33019
-0.295249
-1.88266
-3.4116
-4.86868
93.0102
94.4331
95.9729
97.1808
97.7432
97.6038
96.8387
95.3493
92.9751
89.6665
85.4247
80.2432
74.0694
66.754
58.0566
47.2467
35.1489
17.2663
91.7646
90.5544
89.4045
88.3254
87.3249
86.5043
85.8405
85.1947
84.5907
84.0334
83.5203
83.1024
82.7501
82.4286
82.1403
81.8873
81.6694
81.4856
81.3344
81.2135
81.1203
81.0519
81.0052
80.9769
80.9634
80.9621
80.9672
80.9802
80.9863
7.1417
-5.28111
-17.668
-26.1227
-29.6806
-29.667
-26.6206
-22.3929
-18.2074
-14.1394
-10.2291
-6.50219
-2.98248
0.271888
3.01544
5.18241
6.86652
8.13823
9.0495
9.64349
9.99547
10.0107
9.6476
8.70841
7.32732
5.86298
4.33589
2.77055
1.19205
-0.378784
-1.92455
-3.42766
-4.8689
-6.23705
92.8637
94.3426
96.003
97.4412
98.328
98.5678
98.2228
97.1932
95.2899
92.4468
88.6675
83.972
78.345
71.7076
63.8529
54.4921
42.6474
29.0157
8.23369
91.5951
90.38
89.2279
88.1515
87.2684
86.5577
85.8577
85.1971
84.5821
84.0096
83.5429
83.1482
82.783
82.451
82.1552
81.8962
81.6736
81.4863
81.3325
81.2101
81.1161
81.0475
81.0012
80.9736
80.9611
80.9607
80.9666
80.9807
80.9871
-3.73863
-17.2296
-29.4224
-36.1316
-37.0223
-34.2023
-29.5568
-24.9598
-20.4903
-16.2005
-12.1142
-8.24452
-4.60711
-1.25742
1.55718
3.7704
5.48156
6.7648
7.67437
8.25509
8.58399
8.5651
7.87392
6.68134
5.36727
3.96086
2.49225
0.992919
-0.51268
-2.00442
-3.46637
-4.88291
-6.23652
-7.51797
92.6818
94.1973
95.9453
97.5668
98.7373
99.3176
99.3694
98.8244
97.4207
95.0579
91.7451
87.5186
82.4015
76.3574
69.276
60.8783
50.8357
37.8157
22.3651
-2.46639
91.4028
90.1821
89.0303
88.0861
87.3307
86.5774
85.8603
85.1868
84.5533
84.0373
83.5997
83.1897
82.8121
82.4711
82.1679
81.903
81.6757
81.4851
81.3291
81.2053
81.1108
81.0424
80.9968
80.9701
80.9586
80.9592
80.9659
80.9812
80.988
-17.0125
-30.927
-42.2755
-45.7686
-42.787
-37.7626
-32.5768
-27.5957
-22.8371
-18.3257
-14.0638
-10.0512
-6.29566
-2.85023
0.0360292
2.2961
4.03475
5.32967
6.23747
6.80456
7.11046
6.77074
5.83688
4.72138
3.47026
2.12417
0.721803
-0.705377
-2.13303
-3.54205
-4.91814
-6.2482
-7.51692
-8.71706
92.4725
94.0084
95.8158
97.5763
98.9898
99.873
100.274
100.189
99.3301
97.4842
94.6497
90.8872
86.2485
80.7454
74.3131
66.8078
57.8615
47.122
32.7445
15.1751
-15.7211
91.1831
89.9596
88.9553
88.1584
87.3531
86.5802
85.8482
85.1523
84.5868
84.1066
83.6513
83.2267
82.8383
82.4884
82.1779
81.9071
81.6756
81.4818
81.3239
81.1991
81.1045
81.0368
80.992
80.9665
80.956
80.9577
80.9653
80.9816
80.9889
-34.368
-46.5684
-54.9026
-53.4676
-47.2513
-41.3315
-35.6138
-30.2571
-25.2196
-20.494
-16.0612
-11.9087
-8.03726
-4.49753
-1.54021
0.766588
2.5327
3.83927
4.74517
5.2991
5.29015
4.72194
3.87827
2.83223
1.64398
0.364411
-0.96667
-2.31776
-3.6645
-4.9891
-6.27988
-7.5263
-8.7156
-9.84171
92.2314
93.785
95.6293
97.4885
99.104
100.254
100.96
101.275
100.952
99.687
97.3703
94.0764
89.8993
84.8885
79.0363
72.2451
64.3362
54.834
43.3973
27.4438
7.5447
-34.1247
90.9347
89.8745
89.0387
88.1838
87.3562
86.5661
85.8071
85.1924
84.6704
84.1697
83.6973
83.2602
82.8612
82.5024
82.1847
81.9084
81.6728
81.4762
81.3167
81.1915
81.0974
81.0305
80.987
80.9626
80.9533
80.9561
80.9646
80.982
80.9898
-55.799
-60.2367
-66.8579
-59.097
-51.5338
-44.8086
-38.5975
-32.8983
-27.6047
-22.6793
-18.0856
-13.8003
-9.81777
-6.18723
-3.16092
-0.808478
0.984564
2.30244
3.20704
3.45077
3.22862
2.76704
2.0009
1.02113
-0.100106
-1.30966
-2.56693
-3.83988
-5.10468
-6.34586
-7.55439
-8.72273
-9.83993
-10.9023
91.9579
93.523
95.3977
97.3221
99.0977
100.479
101.451
102.107
102.265
101.591
99.8698
97.0818
93.3601
88.8115
83.4708
77.3066
70.1841
61.8927
51.8446
39.7201
22.0177
-0.632506
-57.1568
90.8386
89.9702
89.0674
88.1871
87.3397
86.5174
85.8545
85.2921
84.7465
84.2261
83.7392
83.2897
82.8801
82.5125