# Region type : patch inlet
# Faces  :    120
# Area   :    4.800000e-04
# Time        	average(p)
0             	1.013250e+05
0.01          	1.013250e+05
0.02          	1.013250e+05
0.03          	1.013250e+05
0.04          	1.013250e+05
0.05          	1.013250e+05
