/*--------------------------------*- C++ -*----------------------------------*\
  =========                 |
  \\      /  F ield         | OpenFOAM: The Open Source CFD Toolbox
   \\    /   O peration     | Website:  https://openfoam.org
    \\  /    A nd           | Version:  8
     \\/     M anipulation  |
\*---------------------------------------------------------------------------*/
FoamFile
{
    version     2.0;
    format      ascii;
    class       volScalarField;
    location    "0.45";
    object      k;
}
// * * * * * * * * * * * * * * * * * * * * * * * * * * * * * * * * * * * * * //

dimensions      [0 2 -2 0 0 0 0];

internalField   nonuniform List<scalar> 
15677
(
52.5645
31.0105
45.3349
56.4621
64.024
69.0904
73.4992
79.5263
88.9122
102.565
120.048
138.035
151.935
159.649
158.689
152.945
140.759
125.29
109.175
92.8173
76.8386
62.4984
50.8753
42.2088
35.5289
29.9648
25.3143
21.3714
17.9796
15.0693
12.7041
10.8178
9.30942
8.09835
7.08515
185.578
299.883
362.461
400.309
425.818
443.97
458.244
471.999
488.437
508.021
517.438
477.261
400.704
332.074
295.562
277.621
262.849
242.35
215.016
185.422
157.834
136.66
121.01
108.951
99.3438
91.4548
84.8127
79.1094
74.1237
69.6799
65.6332
61.9552
58.6539
55.735
53.1964
151.96
288.931
375.619
449.322
521.958
595.115
666.054
731.382
780.421
791.307
735.842
612.854
470.402
342.463
255.667
210.263
181.825
162.671
149.308
142.669
139.868
134.753
129.505
124.842
120.645
116.716
112.964
109.364
105.883
103.187
101.515
100.793
100.803
101.408
102.458
107.336
197.584
265.782
317.928
362.376
400.964
432.838
455.067
461.436
450.261
420.175
377.935
333.348
289.265
252.2
223.994
201.802
175.684
152.719
134.688
119.25
105.84
94.6923
85.8115
79.5738
75.7716
73.97
73.7301
74.27
75.6681
77.9212
80.7221
83.9428
87.4569
91.1252
45.8422
97.0446
133.174
160.967
186.122
209.876
232.952
255.457
274.974
282.542
277.222
259.783
232.639
196.709
169.02
149.238
133.349
118.209
104.616
91.9791
79.9989
70.5638
63.1154
58.3145
56.8271
57.8438
61.1435
67.4456
76.1543
86.7218
98.8157
112.008
125.852
139.947
153.971
8.82868
18.7076
28.0572
35.0804
41.39
47.1803
52.4519
56.969
60.2639
60.2292
58.9525
56.4241
53.9082
50.9416
48.3504
46.373
44.8748
43.6326
42.7854
42.8601
43.3721
44.3294
45.395
46.7365
48.7401
51.7842
56.2016
62.1466
69.5474
78.216
87.9573
98.4834
109.403
120.278
130.764
13.6911
17.6865
21.0263
23.2315
25.1088
26.7333
27.4343
27.4887
27.0207
26.8129
27.2581
28.4075
30.0066
31.9458
33.6352
34.9741
36.1726
37.3678
38.7569
40.6145
43.1906
46.4756
50.4217
55.1201
60.6978
67.2419
74.8424
83.5585
93.4153
104.28
115.537
126.618
137.081
146.578
154.993
18.6158
29.4502
39.028
48.3527
56.5704
59.6284
54.7601
43.8657
33.1019
27.1037
25.766
26.9112
29.1706
31.9213
34.6175
36.7853
38.9004
41.3825
44.3629
47.9085
52.0806
56.7039
61.4943
66.3791
71.4022
76.7087
82.3239
88.202
94.2268
100.271
106.236
112.042
117.618
122.901
127.841
5.81149
10.3875
14.2869
16.7374
17.1443
16.9697
17.0522
17.5856
18.9225
20.8669
23.2988
26.1255
29.3462
33.0126
36.7086
40.2304
43.7228
47.2879
51.0839
55.1701
59.5815
64.2591
69.0575
73.9658
78.9027
83.6028
87.7991
91.5731
94.9701
98.0248
100.841
103.556
106.278
109.029
111.794
3.33635
6.86794
10.0977
12.8076
15.3881
17.8501
20.2651
22.559
24.7272
26.8673
29.073
31.4512
34.1128
37.2265
40.7161
44.3494
48.1978
52.197
56.4386
60.9648
65.7138
70.2325
73.8556
76.3005
78.156
79.9216
81.7147
83.5237
85.3134
87.0588
88.7818
90.5176
92.2713
94.031
95.7805
7.07657
11.0103
14.3068
16.869
19.0874
21.1149
23.0535
24.9803
26.9542
29.0263
31.2524
33.7043
36.4819
39.6997
43.0437
46.3885
49.9082
53.5767
57.4087
61.4304
65.6677
69.9114
73.7868
77.1693
80.0417
82.413
84.3911
86.0807
87.5727
88.9314
90.1958
91.389
92.5222
93.5985
94.6139
6.82728
12.3717
15.8064
18.45
20.7588
22.9138
25.0051
27.0898
29.2131
31.4145
33.729
36.2045
38.9173
41.9739
45.1943
48.4375
51.838
55.4141
59.0754
62.8346
66.6481
70.248
73.3561
75.9364
78.114
80.0185
81.7033
83.1877
84.5062
85.6823
86.7355
87.6818
88.5344
89.3046
90.007
8.03349
13.0111
16.7142
19.5603
22.0252
24.3071
26.509
28.6992
30.9297
33.2419
35.6553
38.1756
40.8674
43.8181
46.836
49.796
52.8249
55.9557
59.2155
62.5978
66.0666
69.4344
72.4993
75.2436
77.6011
79.5927
81.2755
82.688
83.8961
84.9401
85.8496
86.6468
87.3485
87.9677
88.5149
8.15926
14.1728
18.0102
20.9259
23.4434
25.7678
28.001
30.2062
32.4283
34.7047
37.0722
39.5733
42.2627
45.2071
48.1952
51.0951
54.026
57.0125
60.0632
63.1735
66.3198
69.2801
71.8543
74.0732
75.9914
77.6543
79.0886
80.3202
81.3756
82.2802
83.0571
83.7264
84.3057
84.8096
85.2504
8.78611
14.6941
18.7298
21.796
24.4367
26.8723
29.202
31.4876
33.7728
36.0931
38.4825
40.9759
43.6167
46.4631
49.308
52.0393
54.7797
57.5594
60.3923
63.2646
66.163
68.9333
71.4103
73.5717
75.4242
76.9982
78.3339
79.4688
80.4346
81.2578
81.9604
82.5604
83.0728
83.5098
83.8818
8.99225
15.5581
19.721
22.863
25.5571
28.0279
30.3849
32.6943
35.0001
37.336
39.7302
42.2113
44.8134
47.5849
50.3194
52.9199
55.5133
58.1347
60.7985
63.5105
66.248
68.8456
71.141
73.1307
74.8462
76.3178
77.5732
78.64
79.5444
80.3097
80.9566
81.5027
81.9632
82.3509
82.6764
9.39896
16.1123
20.4712
23.7412
26.5322
29.0817
31.505
33.8682
36.2139
38.5728
40.9686
43.4225
45.9588
48.6134
51.1851
53.6001
55.9934
58.4141
60.8855
63.4251
66.0163
68.5157
70.7638
72.738
74.4482
75.9155
77.1664
78.2281
79.1259
79.883
80.5195
81.0529
81.4981
81.8677
82.1721
9.64143
16.8705
21.3571
24.7117
27.5701
30.1779
32.6485
35.0496
37.4236
39.7982
42.1921
44.6181
47.0892
49.6272
52.0332
54.2547
56.4343
58.6344
60.9024
63.2549
65.688
68.0685
70.2361
72.161
73.8478
75.3096
76.5643
77.6331
78.5381
79.3005
79.9398
80.4734
80.9166
81.2826
81.5822
9.92292
17.4226
22.0947
25.5625
28.5058
31.1839
33.7147
36.1661
38.5798
40.9805
43.3805
45.7834
48.1888
50.6016
52.823
54.8247
56.7573
58.6996
60.7124
62.8323
65.0702
67.3096
69.3929
71.2751
72.9451
74.4063
75.6706
76.7547
77.6775
78.4581
79.1148
79.6644
80.1219
80.5003
80.8106
10.1614
18.1149
22.9146
26.4699
29.4802
32.2112
34.7896
37.2844
39.7345
42.1601
44.5671
46.9492
49.2922
51.5828
53.6188
55.3926
57.0611
58.7181
60.4437
62.291
64.2868
66.3349
68.2812
70.0739
71.6922
73.1276
74.3831
75.4692
76.4004
77.1931
77.8638
78.4283
78.901
79.2949
79.6208
10.3667
18.6459
23.5894
27.2419
30.3319
33.1331
35.7748
38.326
40.8237
43.2848
45.709
48.0803
50.3706
52.5466
54.4001
55.9424
57.3348
58.685
60.0898
61.6225
63.3284
65.1377
66.9082
68.5777
70.1127
71.4954
72.7204
73.7918
74.7194
75.5161
76.196
76.7731
77.261
77.6716
78.0153
10.5442
19.1903
24.2731
28.014
31.1739
34.0361
36.7333
39.3351
41.8775
44.3739
46.8181
49.1847
51.4316
53.5055
55.1884
56.507
57.6244
58.6605
59.7259
60.915
62.2919
63.8164
65.3641
66.8668
68.2811
69.5789
70.7466
71.7813
72.6873
73.4737
74.1517
74.7332
75.2299
75.653
76.012
10.6987
19.6702
24.8804
28.706
31.9356
34.8605
37.6161
40.2723
42.8638
45.4009
47.8718
50.2426
52.4578
54.4445
55.973
57.0819
57.934
58.6579
59.3794
60.2091
61.2305
62.4367
63.7259
65.027
66.2881
67.4724
68.5579
69.535
70.4024
71.1647
71.8297
72.4067
72.9056
73.3359
73.706
10.8251
20.1199
25.4487
29.352
32.6455
35.6283
38.4385
41.1465
43.786
46.3645
48.8655
51.2471
53.4416
55.358
56.7527
57.6723
58.2776
58.7051
59.0908
59.5602
60.2148
61.0815
62.086
63.1581
64.2394
65.2855
66.2669
67.1671
67.9794
68.7038
69.3442
69.9071
70.4001
70.8309
71.2066
10.9271
20.5151
25.9516
29.9265
33.2803
36.3186
39.182
41.9413
44.6291
47.2507
49.7854
52.1843
54.3693
56.2324
57.5159
58.27
58.6509
58.8074
58.8779
59.0008
59.2933
59.8149
60.5223
61.3491
62.2331
63.1235
63.9844
64.7931
65.5374
66.2124
66.8185
67.3589
67.8387
68.2637
68.6395
11.0046
20.8682
26.4013
30.4404
33.8484
36.9373
39.8498
42.6571
45.3911
48.0551
50.6249
53.0458
55.2306
57.0571
58.2534
58.8573
59.0491
58.9729
58.7553
58.5546
58.5046
58.6894
59.1001
59.677
60.3559
61.0816
61.8124
62.5202
63.1875
63.8051
64.3695
64.8809
65.3416
65.7555
66.1264
11.0597
21.1721
26.7901
30.8862
34.3432
37.4785
40.4364
43.2886
46.0665
48.7717
51.3771
53.8234
56.0159
57.8207
58.9424
59.424
59.4738
59.1926
58.7244
58.2247
57.8553
57.7375
57.8644
58.1983
58.6747
59.2354
59.8341
60.4379
61.0248
61.5813
62.1004
62.5791
63.0174
63.4167
63.7794
11.0911
21.4309
27.1227
31.2685
34.7686
37.945
40.9437
43.8367
46.6548
49.3987
52.0388
54.5119
56.7176
58.512
59.5756
59.9704
59.9026
59.4522
58.7714
58.0221
57.3605
56.9558
56.8397
56.9476
57.2338
57.6377
58.11
58.6135
59.1221
59.6188
60.093
60.5389
60.9542
61.3382
61.6916
11.1024
21.6446
27.3995
31.5878
35.1253
38.3378
41.3725
44.3018
47.1561
49.9354
52.6081
55.1085
57.3309
59.1237
60.1471
60.4843
60.3209
59.7357
58.8809
57.9222
57.0224
56.3561
56.0163
55.9376
56.0532
56.316
56.6741
57.0869
57.5249
57.9677
58.4017
58.8186
59.2137
59.5844
59.9301
11.0934
21.8133
27.6225
31.8476
35.4172
38.6605
41.7261
44.6866
47.5727
50.3834
53.0863
55.613
57.8547
59.6532
60.6526
60.9513
60.717
60.0279
59.0351
57.9063
56.8099
55.9375
55.3885
55.1539
55.1302
55.2727
55.5337
55.8699
56.249
56.6477
57.0497
57.4443
57.8247
58.1868
58.5285
5.90846
4.7055
3.69014
2.89814
2.33312
1.97667
1.76676
1.61905
1.50938
1.49718
1.65481
2.03021
2.64255
3.3943
4.08673
4.49141
4.47064
4.13741
3.70075
3.65461
5.69608
9.59654
50.0294
46.2259
42.6613
39.5686
37.0829
35.2659
34.178
33.8838
34.1473
35.3817
38.8881
45.7971
57.165
72.0571
88.8923
105.982
121.331
128.919
127.364
124.135
119.127
111.916
104.23
107.404
111.966
118.24
126.697
137.772
151.526
167.283
183.583
199.2
215.588
235.813
263.847
305.795
369.506
461.914
583.979
716.815
833.54
908.369
929.347
901.647
95.8049
102.151
109.272
117.504
126.893
137.652
148.605
156.554
163.617
175.047
196.204
227.27
266.022
309.281
354.343
399.14
441.084
477.98
507.354
528.402
539.53
541.105
172.515
198.321
228.004
262.002
300.109
339.484
376.843
406.431
422.303
422.842
410.814
392.05
373.844
360.464
352.974
351.02
353.088
356.977
360.984
363.918
365.545
366.138
144.274
162.293
181.729
202.121
222.926
243.544
263.36
281.966
298.6
312.094
321.821
326.803
325.692
320.251
312.395
303.399
296.377
291.504
288.678
287.122
286.294
285.868
165.107
177.346
189.66
202.324
215.607
229.099
242.933
256.822
270.282
282.434
292.295
298.66
300.617
298.429
292.957
285.331
276.769
268.362
261.083
255.456
251.403
248.676
134.535
143.745
153.586
163.928
174.618
185.679
197.094
208.69
219.986
230.39
239.428
246.523
251.079
252.887
252.241
249.514
245.414
240.648
235.791
231.324
227.562
224.639
115.941
121.998
128.787
136.329
144.601
153.539
163.034
172.914
182.918
192.699
201.842
209.835
216.1
220.396
222.802
223.48
222.765
220.933
218.333
215.298
212.146
209.252
98.3602
102.265
106.834
112.098
118.02
124.493
131.509
139.021
146.927
155.066
163.211
171.004
177.923
183.631
188.036
191.133
193.006
193.833
193.66
192.76
191.356
189.706
95.9988
98.0283
100.382
103.129
106.328
110.02
114.233
118.971
124.212
129.905
135.951
142.145
148.117
153.56
158.327
162.312
165.458
167.757
169.276
170.11
170.38
170.239
91.0009
92.4197
94.0074
95.7926
97.8109
100.103
102.709
105.662
108.981
112.673
116.719
121.038
125.42
129.659
133.647
137.286
140.497
143.224
145.443
147.159
148.406
149.246
89.2606
90.2939
91.3984
92.5986
93.917
95.3755
96.9982
98.8093
100.832
103.084
105.577
108.288
111.114
113.945
116.722
119.385
121.877
124.148
126.161
127.892
129.333
130.496
85.8807
86.7475
87.65
88.5964
89.5973
90.6654
91.8145
93.0595
94.4153
95.8961
97.5133
99.261
101.085
102.928
104.765
106.567
108.305
109.95
111.476
112.863
114.097
115.171
84.3726
85.0207
85.6798
86.3571
87.0595
87.7943
88.5695
89.3934
90.2748
91.2224
92.2437
93.337
94.4719
95.6178
96.7641
97.8984
99.0073
100.077
101.094
102.046
102.925
103.722
83.0973
83.6263
84.1461
84.6598
85.1719
85.6876
86.2129
86.7542
87.3182
87.9114
88.5396
89.2029
89.8844
90.568
91.2494
91.9237
92.5851
93.2276
93.8454
94.4332
94.9876
95.5016
82.5467
82.9925
83.4108
83.8032
84.1723
84.5216
84.8555
85.1793
85.499
85.8205
86.1501
86.4907
86.8369
87.1827
87.5276
87.8704
88.2089
88.5409
88.8643
89.1773
89.4792
89.7657
81.9623
82.4073
82.8085
83.1641
83.4749
83.7428
83.9708
84.1635
84.3263
84.4657
84.5886
84.7013
84.8076
84.9104
85.0132
85.1178
85.2253
85.3359
85.4498
85.5671
85.6887
85.8122
81.2252
81.7216
82.1615
82.5406
82.8571
83.1107
83.3024
83.4353
83.5135
83.5437
83.5348
83.4947
83.435
83.3664
83.2967
83.2313
83.1741
83.1281
83.0953
83.0776
83.0764
83.0911
80.0915
80.6816
81.2084
81.6644
82.0449
82.3466
82.5683
82.7097
82.7723
82.767
82.6983
82.5769
82.4193
82.2432
82.0607
81.8816
81.7133
81.5614
81.4303
81.3233
81.2434
81.191
78.549
79.252
79.8904
80.454
80.9352
81.3279
81.6275
81.8319
81.937
81.9539
81.8876
81.7473
81.552
81.3245
81.0815
80.8368
80.6016
80.3847
80.1931
80.0322
79.9062
79.817
76.6079
77.4293
78.1902
78.8781
79.4827
79.9948
80.407
80.714
80.9105
80.9953
80.9832
80.8777
80.6973
80.4678
80.2098
79.9413
79.6769
79.429
79.2072
79.0192
78.8711
78.766
74.3553
75.2862
76.1654
76.9788
77.7138
78.3584
78.9021
79.3365
79.6552
79.8516
79.9281
79.9003
79.7786
79.589
79.3554
79.0989
78.8376
78.587
78.3596
78.1654
78.0126
77.9058
71.896
72.9178
73.9007
74.8296
75.6901
76.4678
77.1493
77.7232
78.1801
78.5132
78.7156
78.7916
78.7622
78.6468
78.4701
78.2559
78.0249
77.7954
77.5824
77.3986
77.2541
77.1554
69.3523
70.4386
71.5019
72.5269
73.4976
74.3979
75.2122
75.9259
76.5267
77.0045
77.3528
77.5643
77.6456
77.6293
77.5352
77.3877
77.2094
77.0207
76.8388
76.6787
76.5523
76.4685
66.8451
67.9649
69.0795
70.1742
71.2322
72.236
73.1683
74.0123
74.7525
75.3755
75.8714
76.2313
76.4506
76.5455
76.5515
76.4888
76.3809
76.2488
76.1116
75.986
75.8859
75.8221
64.4871
65.6075
66.7415
67.8752
68.9918
70.0733
71.1014
72.0574
72.9235
73.6833
74.323
74.8291
75.1902
75.4178
75.5338
75.5668
75.5415
75.4781
75.3963
75.3141
75.2468
75.2075
62.3743
63.4645
64.5861
65.7268
66.8704
67.9996
69.0955
70.1386
71.1093
71.9888
72.7602
73.4051
73.9039
74.2616
74.499
74.6386
74.7022
74.7149
74.6962
74.664
74.6351
74.6239
60.5786
61.6134
62.6949
63.8129
64.9527
66.0982
67.231
68.3317
69.3799
70.3554
71.2386
72.0067
72.6327
73.1143
73.4688
73.7156
73.8754
73.9697
74.0188
74.0416
74.055
74.0744
59.1396
60.1035
61.1255
62.1976
63.3075
64.4405
65.5801
66.7077
67.8033
68.846
69.8148
70.6839
71.4192
72.0117
72.4743
72.8231
73.0762
73.2528
73.3721
73.4526
73.5115
73.5638
12.82
12.7602
7.27176
2.87523
3.19485
7.94123
105.693
97.3972
84.6244
60.8298
42.0966
47.5721
827.902
702.402
549.188
396.113
292.696
297.245
529.065
494.609
443.009
387.506
360.108
362.64
364.045
357.049
347.374
339.667
334.954
336.595
284.658
282.463
280.535
279.286
278.902
278.681
246.16
243.901
242.586
242.095
242.335
243.284
221.796
219.316
217.802
217.189
217.329
218.164
206.108
203.055
200.924
199.682
199.227
199.442
187.227
184.389
182.189
180.695
179.877
179.643
168.995
166.847
164.812
163.051
161.674
160.761
148.953
147.652
146.163
144.666
143.279
142.109
130.666
129.905
128.877
127.722
126.527
125.384
115.443
114.925
114.193
113.326
112.384
111.426
103.91
103.463
102.872
102.186
101.449
100.698
95.5612
95.1267
94.6121
94.0542
93.4883
92.9423
89.7155
89.2899
88.8428
88.3998
87.9937
87.6499
85.6894
85.294
84.9234
84.5976
84.3482
84.2
82.9312
82.5845
82.2963
82.0865
81.9853
82.0148
81.0196
80.7272
80.5193
80.4172
80.444
80.6223
79.6494
79.4078
79.2732
79.2568
79.3848
79.6743
78.6107
78.4128
78.3327
78.3798
78.5777
78.9385
77.7662
77.602
77.5578
77.6451
77.882
78.2769
77.0317
76.8904
76.8669
76.9731
77.2227
77.621
76.3604
76.2334
76.2188
76.3276
76.5697
76.9489
75.7297
75.6118
75.5985
75.699
75.9205
76.266
75.1318
75.0212
75.0059
75.0926
75.2865
75.5911
74.5669
74.4652
74.448
74.5198
74.6845
74.9464
74.039
73.9498
73.9334
73.9927
74.1304
74.3521
73.5534
73.4822
73.4708
73.522
73.6372
73.8233
12.2757
14.6404
14.1482
12.2674
7.79125
3.93578
2.56103
2.2684
2.27274
2.10865
1.6762
1.30562
1.19454
1.20738
1.26012
1.23789
1.17815
1.23291
1.45364
1.77724
2.16685
2.57155
56.5258
63.0195
67.9602
73.6971
79.8953
87.1069
94.625
100.285
104.149
102.892
88.9921
74.1727
61.2068
51.084
43.2754
37.1967
32.5794
29.7226
28.6771
28.584
29.3159
30.7231
381.974
490.801
608.553
722.004
817.509
879.855
893.827
849.225
746.065
608.642
474.258
365.188
288.628
237.625
204.077
181.319
165.253
153.147
142.868
132.843
122.65
112.774
389.934
430.816
467.44
491.344
498.097
490.509
466.852
426.127
375.031
323.47
279.482
241.567
208.705
181.343
159.831
143.945
132.472
123.522
114.348
103.134
93.6763
86.5211
342.073
344.89
346.602
345.588
341.937
338.103
335.308
334.542
337.512
346.061
361.609
380.208
395.065
400.066
391.119
364.946
323.675
272.978
222.97
180.512
148.702
125.522
277.898
276.65
275.663
275.051
275.113
276.276
278.875
283.098
288.496
294.171
295.818
291.969
282.244
267.623
248.808
227.383
205.184
184.052
165.06
148.072
132.93
119.641
244.314
245.258
246.758
248.676
250.915
253.26
255.313
256.406
255.786
252.573
246.299
237.221
226.434
215.444
205.345
196.823
190.064
184.829
180.565
177.369
174.505
171.141
219.019
219.596
220.406
221.33
222.203
222.804
222.871
222.098
220.16
216.843
212.082
206.125
199.553
192.986
186.784
181.13
176.044
171.42
166.667
161.651
156.61
151.632
199.675
199.701
199.947
200.323
200.69
200.889
200.749
200.128
198.853
196.854
194.127
190.721
186.884
182.836
178.695
174.553
170.401
166.184
161.867
157.499
153.191
149.046
179.262
178.569
178.036
177.605
177.197
176.715
176.059
175.136
173.887
172.255
170.219
167.802
165.081
162.21
159.205
155.988
152.521
148.804
144.862
140.965
137.277
133.87
159.645
158.231
156.993
155.9
154.91
153.972
153.029
152.026
150.916
149.665
148.248
146.674
144.967
143.147
141.249
139.289
137.292
135.299
133.361
131.522
129.804
128.217
140.554
138.656
136.905
135.305
133.847
132.521
131.313
130.208
129.188
128.231
127.316
126.43
125.597
124.835
124.139
123.499
122.909
122.358
121.828
121.291
120.712
120.097
123.746
121.743
119.868
118.147
116.627
115.334
114.273
113.452
112.881
112.569
112.518
112.702
113.136
113.738
114.448
115.219
116.007
116.774
117.485
118.117
118.654
119.089
109.988
108.213
106.571
105.101
103.85
102.862
102.179
101.832
101.845
102.205
102.985
104.122
105.53
107.092
108.727
110.362
111.936
113.401
114.72
115.868
116.832
117.604
99.567
98.1709
96.9316
95.8936
95.1109
94.6368
94.5193
94.769
95.4544
96.5858
98.1338
100.042
102.175
104.382
106.562
108.635
110.535
112.213
113.637
114.787
115.664
116.273
92.1486
91.1842
90.4095
89.8685
89.6132
89.6867
90.1249
90.9859
92.2641
93.945
95.9862
98.3023
100.727
103.099
105.322
107.326
109.06
110.494
111.614
112.421
112.917
113.115
87.1826
86.6371
86.3089
86.2366
86.4548
87.0156
87.9439
89.246
90.9078
92.8913
95.1329
97.5276
99.9014
102.105
104.062
105.723
107.058
108.057
108.725
109.076
109.132
108.929
84.0257
83.8451
83.8942
84.201
84.8024
85.7174
86.9519
88.4931
90.3072
92.3378
94.5077
96.706
98.7705
100.58
102.085
103.26
104.097
104.605
104.802
104.719
104.385
103.833
82.0828
82.1888
82.5226
83.1019
83.9443
85.0533
86.4174
88.007
89.7742
91.6534
93.5641
95.4017
97.0297
98.3618
99.3734
100.06
100.432
100.512
100.331
99.9174
99.3082
98.5379
80.8745
81.1792
81.6947
82.4267
83.378
84.5385
85.8834
87.3727
88.9523
90.5556
92.1068
93.5156
94.6768
95.5371
96.0925
96.3546
96.3458
96.0965
95.6373
95.0035
94.2286
93.343
80.0488
80.4678
81.0703
81.8512
82.8028
83.9048
85.1248
86.419
87.7332
89.0057
90.1711
91.1564
91.8873
92.338
92.5198
92.4547
92.1709
91.6995
91.0736
90.3253
89.4847
88.5763
79.3781
79.8392
80.4517
81.2026
82.0767
83.0485
84.083
85.1367
86.1601
87.1001
87.9031
88.514
88.8844
89.0118
88.9161
88.6227
88.1615
87.5636
86.859
86.0756
85.2383
84.3654
78.734
79.1825
79.7499
80.4184
81.1689
81.974
82.7995
83.6058
84.3502
84.9891
85.4808
85.7846
85.8779
85.7703
85.4846
85.0482
84.4898
83.8372
83.1163
82.35
81.558
80.7523
78.06
78.4596
78.9485
79.5067
80.1139
80.7433
81.3636
81.9407
82.4391
82.8246
83.0645
83.1357
83.0285
82.7604
82.3558
81.8407
81.2409
80.5802
79.8794
79.1565
78.4263
77.6957
77.3462
77.6774
78.0726
78.5122
78.9758
79.4392
79.8748
80.2542
80.5489
80.7311
80.7814
80.6834
80.4376
80.0667
79.5941
79.0431
78.4355
77.7909
77.1255
76.4528
75.7832
75.1198
76.609
76.8655
77.1658
77.4917
77.8243
78.142
78.4214
78.6391
78.7713
78.8009
78.7119
78.4943
78.1564
77.7228
77.2145
76.6515
76.0518
75.431
74.8012
74.1723
73.5513
72.9382
75.8758
76.0606
76.2739
76.4994
76.72
76.9168
77.0702
77.1597
77.1705
77.0868
76.8972
76.5971
76.199
75.7274
75.2008
74.636
74.0475
73.4474
72.8447
72.2463
71.6569
71.0744
75.1748
75.2971
75.4364
75.5787
75.7085
75.8096
75.8644
75.8592
75.7792
75.6128
75.3519
74.9947
74.5563
74.0605
73.5229
72.9576
72.3764
71.7885
71.2007
70.6176
70.0425
69.472
74.5301
74.602
74.6826
74.7599
74.82
74.8483
74.8316
74.7562
74.6104
74.3849
74.0737
73.6767
73.2101
72.6965
72.1495
71.5809
71.0002
70.4146
69.8293
69.2477
68.6722
68.0989
73.9593
73.9939
74.0316
74.0618
74.0722
74.0499
73.9824
73.8579
73.6666
73.4005
73.0546
72.6299
72.1426
71.6145
71.0574
70.4812
69.894
69.3017
68.7086
68.1174
67.5305
66.944
3.00681
3.37725
3.7858
4.31744
4.97571
5.81484
6.91003
8.39675
10.5045
13.6114
18.3133
25.0885
34.1196
45.9635
60.6744
77.1284
93.4987
108.572
122.199
130.646
134.251
134.379
127.085
115.105
99.0234
83.154
71.1506
63.5961
59.6103
57.333
54.1648
48.0334
37.9301
25.142
52.4786
32.2948
33.7857
35.8433
38.5439
41.85
45.7908
50.4566
55.9894
62.5896
70.5265
80.1091
91.9387
107.147
127.329
155.201
187.694
215.707
234.438
243.755
248.592
261.109
293.777
360.882
441.204
485.561
476.932
456.61
439.083
425.252
411.899
395.453
372.346
337.802
280.498
176.954
105.276
99.8985
95.161
91.2158
88.26
86.4963
86.1599
87.2017
89.9107
93.4135
97.6433
102.802
109.698
121.896
141.093
153.135
157.833
162.236
167.647
181.684
218.102
304.493
441.824
598.676
735.752
799.22
789.582
738.538
670.39
596.905
521.937
447.493
372.602
284.978
150.572
82.1407
79.1083
76.8206
75.2595
74.4432
74.2006
74.5019
75.7214
78.1905
82.4273
89.0537
98.3308
109.564
119.581
127.019
136.111
150.24
169.796
187.214
203.902
233.333
275.095
324.646
374.366
420.542
454.068
466.625
460.439
436.528
402.939
363.041
317.777
265.457
198.286
108.45
111.549
102.037
93.5654
86.1774
79.8763
74.6141
70.3251
66.8171
64.1961
62.4898
61.7061
61.9686
64.3123
68.4449
74.6079
81.0362
85.891
90.5431
100.598
119.431
148.545
190.063
241.415
284.51
315.606
328.867
327.249
311.025
285.179
257.21
228.46
198.322
164.905
122.957
59.2539
109.913
102.327
94.8853
87.8984
81.7637
76.6717
72.3384
68.3928
64.7379
61.3263
58.0979
55.0539
52.2883
49.955
48.1255
46.7504
46.0184
45.7786
46.1285
48.3111
52.1733
57.978
65.3051
72.6525
79.736
84.689
86.2705
84.9124
79.7744
72.5355
63.7376
53.5729
41.8786
27.7545
15.0769
167.28
163.024
157.369
150.163
141.541
132.091
122.823
114.543
107.324
100.549
93.6283
86.5922
79.5561
72.4984
65.3842
58.5702
52.3664
46.9101
42.4053
38.7919
35.8453
33.1632
30.678
28.4007
26.189
23.9491
21.6609
19.3565
17.0743
14.8737
12.7801
10.7726
8.76684
6.67473
6.2546
147.747
144.758
141.516
138.073
134.525
130.998
127.604
123.483
118.464
112.538
105.919
98.9132
91.6935
83.8888
75.8106
68.3788
61.9819
56.3551
51.2746
46.6927
42.5842
38.7855
35.4082
32.5488
30.0491
27.8294
25.8006
23.8413
21.8906
19.8974
17.806
15.5359
12.9339
9.59507
4.90378
145.975
143.668
141.213
138.635
135.968
133.167
130.306
127.263
123.803
119.63
114.434
108.205
101.216
93.8728
86.6194
79.5944
72.9265
66.6301
60.8104
55.5052
50.6635
46.1014
42.0049
38.5573
35.5642
32.8856
30.4235
28.105
25.8688
23.6557
21.3935
18.9789
16.2206
12.6922
8.84004
131.461
129.754
127.961
126.076
124.101
122.044
119.91
117.693
115.391
112.992
110.444
107.722
104.717
101.05
96.0909
89.2043
81.8625
74.6459
67.9266
61.814
56.1952
50.8427
46.0462
42.0451
38.6097
35.5714
32.8185
30.2663
27.8388
25.4609
23.048
20.4818
17.5482
13.7029
6.94002
127.122
126.348
125.473
124.495
123.416
122.236
120.943
119.498
117.837
115.868
113.471
110.479
106.668
101.885
95.8653
89.1979
82.6005
76.2271
70.1605
64.4295
59.0159
53.7102
48.8109
44.6145
40.9324
37.6366
34.6631
31.9349
29.3691
26.8825
24.3805
21.731
18.698
14.7242
9.11027
119.665
119.445
119.274
119.134
118.99
118.78
118.419
117.805
116.777
115.277
113.248
110.626
107.351
103.322
98.2741
92.2737
85.8562
79.3423
72.9673
66.8807
61.1287
55.5487
50.4252
46.0381
42.1691
38.7562
35.6953
32.8861
30.2404
27.6731
25.0891
22.3554
19.2323
15.1301
8.12921
119.376
119.57
119.711
119.778
119.744
119.57
119.187
118.523
117.48
115.949
113.815
110.962
107.255
102.549
96.7777
90.4606
84.1714
78.0492
72.1614
66.5185
61.1115
55.7689
50.7724
46.4521
42.6511
39.2493
36.1546
33.2924
30.5902
27.9707
25.3406
22.566
19.4014
15.2551
8.88289
118.11
118.483
118.773
118.948
118.969
118.798
118.362
117.587
116.386
114.653
112.28
109.218
105.346
100.655
95.2571
89.4781
83.6321
77.8415
72.1828
66.6876
61.362
56.0427
51.0335
46.6879
42.8554
39.4151
36.2632
33.3577
30.6301
27.9993
25.3678
22.5989
19.4463
15.2987
8.34195
116.637
116.928
117.136
117.229
117.165
116.888
116.327
115.412
114.063
112.195
109.726
106.578
102.686
98.0174
92.6209
86.8843
81.2263
75.7401
70.4399
65.3114
60.3206
55.2891
50.4907
46.2831
42.5461
39.1829
36.1113
33.2583
30.5554
27.9303
25.2935
22.5131
19.343
15.177
8.52606
113.193
113.324
113.368
113.295
113.061
112.616
111.903
110.858
109.412
107.495
105.042
101.989
98.2999
93.967
89.0631
83.9453
78.8898
73.9103
69.0285
64.2344
59.5046
54.6781
50.0283
45.9221
42.2559
38.9415
35.901
33.062
30.3622
27.7449
25.1248
22.3712
19.2401
15.1167
8.23987
108.757
108.746
108.65
108.439
108.079
107.529
106.738
105.654
104.219
102.373
100.063
97.242
93.8801
89.966
85.544
80.891
76.2749
71.7287
67.2422
62.7933
58.3549
53.776
49.3173
45.3473
41.7806
38.5416
35.5623
32.7795
30.131
27.5482
24.9457
22.1996
19.0743
14.9608
8.22751
103.454
103.334
103.136
102.836
102.404
101.804
100.996
99.9356
98.5758
96.87
94.7748
92.2544
89.2838
85.8504
81.9829
77.9096
73.8307
69.7445
65.6399
61.5032
57.3199
52.9576
48.6742
44.8385
41.3768
38.2206
35.3063
32.5733
29.9603
27.3991
24.8174
22.0957
18.9963
14.9115
8.06788
98.039
97.8572
97.6062
97.2657
96.8112
96.2142
95.4424
94.4604
93.2313
91.718
89.8853
87.702
85.1422
82.183
78.8274
75.2446
71.5968
67.8829
64.0965
60.2308
56.2806
52.1283
48.0233
44.3271
40.975
37.905
35.0587
32.3805
29.8142
27.2978
24.7482
22.045
18.9534
14.8635
8.03954
92.7909
92.5845
92.3198
91.9799
91.5451
90.9924
90.2961
89.4281
88.3587
87.0574
85.4941
83.6391
81.4627
78.9315
76.0269
72.8727
69.6004
66.2064
62.6909
59.0586
55.316
51.3589
47.429
43.8761
40.6402
37.6626
34.8878
32.2664
29.7456
27.2618
24.7357
22.0486
18.9677
14.8858
7.96458
88.0291
87.8267
87.5759
87.2632
86.8728
86.3867
85.7844
85.0432
84.1389
83.0451
81.7338
80.1744
78.3311
76.1593
73.621
70.8037
67.821
64.6767
61.3816
57.9511
54.3999
50.6336
46.8813
43.4761
40.3602
37.4778
34.7798
32.2139
29.7274
27.2648
24.7518
22.0701
18.9879
14.8977
7.93882
83.8554
83.6725
83.4506
83.1783
82.8433
82.4312
81.9254
81.3072
80.5554
79.646
78.5513
77.238
75.664
73.7753
71.5197
68.9613
66.2049
63.2628
60.1559
56.9084
53.5404
49.964
46.3934
43.1414
40.1511
37.3704
34.7485
32.238
29.7938
27.361
24.8661
22.1923
19.1076
14.9973
7.92902
80.2942
80.137
79.948
79.7182
79.4376
79.0947
78.6755
78.1639
77.5408
76.7829
75.8617
74.7406
73.3725
71.696
69.6504
67.2862
64.7059
61.9316
58.993
55.9205
52.7359
49.3546
45.9722
42.8785
40.0163
37.3368
34.7895
32.3349
29.9286
27.5186
25.0341
22.3592
19.2618
15.1208
7.94734
77.289
77.1556
76.9962
76.8032
76.5686
76.2826
75.9334
75.5062
74.9829
74.3404
73.549
72.5694
71.3507
69.8276
67.936
65.7207
63.2859
60.6618
57.8847
54.9873
51.9908
48.8108
45.622
42.6899
39.9611
37.3796
34.9081
32.5079
30.1379
27.7491
25.2728
22.5941
19.4795
15.2981
7.98238
74.7549
74.6389
74.501
74.3346
74.1331
73.8881
73.589
73.222
72.7695
72.2083
71.5075
70.6265
69.5124
68.0988
66.3228
64.2288
61.9235
59.4437
56.829
54.1122
51.3103
48.3382
45.3474
42.5789
39.9761
37.4937
35.0946
32.7443
30.4055
28.0325
25.5585
22.8698
19.731
15.5007
8.03507
72.6006
72.4929
72.3657
72.2136
72.0308
71.8098
71.541
71.2112
70.8032
70.2938
69.6518
68.8362
67.794
66.4608
64.7773
62.7913
60.611
58.2775
55.831
53.3016
50.7008
47.9405
45.1481
42.5422
40.0641
37.6757
35.344
33.0388
30.7269
28.3657
25.8905
23.1881
20.0208
15.7349
8.09926
70.7481
70.6382
70.5102
70.3594
70.1808
69.9676
69.7107
69.3979
69.0123
68.5311
67.9237
67.1497
66.158
64.8877
63.2859
61.4042
59.3515
57.1702
54.899
52.5635
50.1678
47.6208
45.025
42.5746
40.217
37.9167
35.6464
33.3804
31.0899
28.7354
26.2542
23.5335
20.3331
15.9864
8.17291
69.1421
69.0191
68.8787
68.7165
68.5282
68.3078
68.0468
67.7338
67.3527
66.8817
66.2912
65.5429
64.5887
63.3728
61.8495
60.0745
58.155
56.1326
54.0427
51.9048
49.7153
47.3795
44.9765
42.6741
40.4284
38.2088
35.9928
33.7599
31.4855
29.1334
26.6426
23.9005
20.6641
16.2527
8.25211
67.7525
67.6057
67.4412
67.2555
67.0447
66.8034
66.5242
66.1965
65.8055
65.3307
64.7446
64.0116
63.0876
61.9228
60.479
58.8151
57.0344
55.1762
53.2708
51.331
49.3447
47.2132
44.9921
42.8311
40.6891
38.5418
36.3728
34.1668
31.9035
29.5493
27.0453
24.2787
21.0037
16.5253
8.33425
66.5706
66.3894
66.1899
65.9689
65.7234
65.4488
65.1388
64.7839
64.3709
63.8813
63.2902
62.5653
61.6673
60.5525
59.1901
57.641
56.0029
54.3109
52.5897
50.8447
49.0559
47.1211
45.0704
43.0386
40.9901
38.9063
36.7768
34.5917
32.3347
29.9749
27.4546
24.6613
21.3454
16.7978
8.41402
11.0766
21.966
27.8214
32.0765
35.6735
38.9441
42.0379
45.0278
47.944
50.7854
53.5184
56.0729
58.3374
60.1485
61.1361
61.4089
61.1201
60.3463
59.2363
57.9589
56.6879
55.6306
54.9034
54.5042
54.3678
54.4011
54.5755
54.845
55.174
55.5366
55.9139
56.293
56.6649
57.024
57.3667
11.0323
22.0825
27.9747
32.2534
35.8718
39.1645
42.2817
45.2965
48.2392
51.1082
53.8693
56.4516
58.7416
60.5725
61.5628
61.8251
61.5039
60.6715
59.4741
58.0808
56.6695
55.4602
54.5902
54.0517
53.8118
53.7676
53.8735
54.0923
54.3858
54.7253
55.0894
55.463
55.8353
56.1991
56.5494
10.9635
22.137
28.0551
32.3513
35.9863
39.296
42.4312
45.4651
48.4281
51.3185
54.1019
56.7076
59.0216
60.8752
61.8793
62.1447
61.8127
60.9499
59.6995
58.2298
56.72
55.4052
54.4316
53.7991
53.4785
53.3835
53.4427
53.629
53.902
54.2305
54.5912
54.9671
55.346
55.7194
56.081
10.884
22.1541
28.0844
32.388
36.031