/*--------------------------------*- C++ -*----------------------------------*\
  =========                 |
  \\      /  F ield         | OpenFOAM: The Open Source CFD Toolbox
   \\    /   O peration     | Website:  https://openfoam.org
    \\  /    A nd           | Version:  8
     \\/     M anipulation  |
\*---------------------------------------------------------------------------*/
FoamFile
{
    version     2.0;
    format      ascii;
    class       volScalarField;
    location    "0.45";
    object      p;
}
// * * * * * * * * * * * * * * * * * * * * * * * * * * * * * * * * * * * * * //

dimensions      [1 -1 -2 0 0 0 0];

internalField   nonuniform List<scalar> 
15677
(
111459
111463
111462
111462
111461
111459
111456
111451
111444
111433
111416
111385
111332
111251
111175
111104
111053
111015
110988
110974
110971
110976
110981
110983
110981
110978
110976
110974
110972
110971
110970
110969
110968
110968
110967
93863.7
93823.4
93756.1
93677.8
93604.2
93543.1
93498.9
93471.6
93458.1
93460.7
93495.6
93624.5
93806.2
93999.3
94090.8
94086.5
93999.1
93877.2
93772.3
93696.1
93653.7
93617.2
93573.7
93534.2
93500.7
93471.7
93446.9
93426.2
93409.3
93396
93385.6
93377.7
93371.8
93367.4
93362.2
105879
105877
105870
105853
105821
105766
105686
105584
105470
105362
105302
105255
105264
105312
105343
105341
105321
105326
105398
105499
105633
105806
105977
106132
106266
106380
106477
106558
106626
106682
106728
106768
106802
106832
106860
97654.5
97662.4
97672.5
97681.5
97688.3
97692.5
97692.7
97685.5
97665.7
97639.2
97614.1
97610.3
97616
97626.6
97635
97639.7
97639.8
97634
97634.5
97658.7
97684.9
97692.6
97676.9
97641.3
97590.8
97533.6
97472.5
97407.7
97341.6
97276
97212.4
97151.4
97094
97040
96989.8
103421
103432
103440
103445
103450
103458
103466
103476
103487
103495
103499
103505
103507
103500
103490
103474
103447
103417
103398
103387
103397
103436
103478
103510
103536
103558
103577
103594
103611
103627
103641
103653
103664
103674
103684
99903.6
99903.9
99899.2
99888.9
99872.3
99850.2
99821.9
99786.2
99744.4
99697
99649
99601.8
99554.2
99505.6
99466.1
99436.2
99412.5
99394.6
99380.6
99368.4
99356.1
99344
99333.6
99323.6
99313.3
99302.3
99289.8
99276.4
99264
99254.2
99246.8
99241.2
99237.3
99234.8
99232
102400
102396
102391
102387
102383
102380
102380
102384
102390
102401
102416
102433
102453
102477
102498
102514
102526
102534
102536
102537
102537
102537
102538
102539
102540
102544
102547
102551
102554
102557
102561
102568
102574
102580
102585
100231
100228
100226
100225
100225
100229
100236
100246
100259
100273
100287
100299
100305
100304
100298
100289
100277
100265
100252
100238
100223
100210
100201
100195
100193
100195
100198
100201
100204
100208
100210
100213
100215
100216
100217
101840
101841
101840
101839
101837
101833
101830
101825
101819
101813
101809
101804
101800
101797
101797
101799
101804
101811
101819
101829
101841
101855
101869
101883
101895
101900
101904
101909
101912
101913
101912
101909
101906
101903
101900
100835
100836
100836
100835
100833
100830
100826
100822
100818
100815
100813
100811
100808
100804
100800
100795
100789
100784
100777
100770
100762
100755
100749
100747
100749
100755
100760
100765
100769
100773
100777
100781
100786
100790
100794
101472
101472
101472
101472
101472
101471
101470
101467
101465
101461
101457
101454
101451
101448
101448
101448
101450
101453
101458
101463
101471
101479
101487
101494
101494
101496
101497
101497
101497
101497
101496
101495
101494
101493
101491
101049
101049
101049
101049
101050
101050
101050
101050
101050
101051
101051
101051
101051
101049
101047
101044
101041
101037
101034
101030
101026
101022
101018
101016
101020
101023
101025
101027
101030
101032
101034
101037
101039
101041
101044
101304
101304
101304
101304
101304
101304
101304
101304
101303
101302
101301
101298
101296
101294
101293
101292
101292
101292
101293
101295
101297
101300
101304
101306
101305
101305
101305
101304
101304
101303
101303
101302
101301
101301
101299
101154
101154
101154
101154
101154
101154
101154
101155
101155
101155
101155
101155
101154
101153
101152
101150
101148
101145
101143
101140
101138
101135
101133
101132
101133
101133
101134
101134
101135
101136
101137
101138
101139
101140
101140
101250
101251
101251
101251
101251
101251
101250
101250
101249
101248
101247
101245
101243
101240
101238
101237
101235
101234
101233
101232
101232
101231
101232
101231
101231
101230
101230
101230
101230
101229
101229
101229
101229
101228
101227
101206
101206
101205
101205
101205
101205
101204
101204
101204
101203
101203
101202
101201
101200
101198
101196
101193
101191
101189
101186
101184
101182
101180
101179
101178
101178
101178
101178
101178
101178
101178
101179
101179
101180
101179
101245
101245
101245
101245
101244
101244
101243
101243
101242
101240
101239
101237
101235
101232
101230
101227
101225
101223
101221
101219
101217
101216
101215
101214
101213
101213
101213
101212
101212
101212
101212
101213
101213
101213
101212
101239
101239
101238
101238
101237
101237
101236
101235
101234
101233
101232
101231
101229
101227
101225
101222
101220
101217
101214
101212
101209
101207
101206
101205
101204
101204
101204
101204
101204
101204
101205
101205
101206
101206
101205
101260
101259
101259
101259
101258
101257
101256
101255
101254
101253
101251
101249
101247
101244
101241
101238
101235
101233
101230
101228
101226
101224
101223
101222
101221
101221
101221
101221
101221
101222
101222
101223
101223
101223
101223
101266
101266
101265
101265
101264
101263
101262
101261
101260
101259
101257
101255
101253
101251
101248
101245
101242
101239
101236
101234
101231
101229
101228
101227
101227
101227
101227
101227
101228
101228
101229
101230
101230
101231
101231
101282
101282
101281
101281
101280
101279
101277
101276
101275
101273
101271
101269
101266
101263
101260
101257
101254
101251
101248
101246
101244
101242
101241
101240
101240
101240
101240
101241
101241
101242
101243
101243
101244
101245
101244
101294
101293
101293
101292
101291
101289
101288
101287
101285
101283
101281
101279
101277
101274
101270
101267
101264
101261
101258
101256
101254
101252
101251
101250
101250
101250
101250
101251
101252
101253
101253
101254
101255
101256
101256
101308
101307
101306
101305
101304
101303
101301
101300
101298
101296
101294
101291
101288
101285
101282
101279
101276
101273
101270
101267
101265
101263
101262
101262
101262
101262
101262
101263
101264
101265
101266
101267
101268
101269
101269
101320
101320
101319
101318
101316
101315
101313
101311
101309
101307
101305
101302
101300
101297
101293
101290
101287
101284
101281
101278
101276
101274
101273
101273
101273
101273
101274
101274
101275
101276
101277
101278
101280
101281
101281
101333
101332
101331
101330
101329
101327
101325
101323
101321
101319
101316
101314
101311
101308
101304
101301
101298
101295
101292
101289
101287
101285
101284
101284
101284
101284
101285
101286
101287
101288
101289
101290
101291
101292
101292
101345
101344
101343
101342
101340
101338
101336
101334
101332
101330
101327
101325
101322
101319
101315
101312
101309
101306
101303
101300
101298
101296
101295
101294
101294
101295
101295
101296
101297
101299
101300
101301
101302
101303
101303
101357
101356
101355
101353
101351
101349
101347
101345
101343
101340
101338
101335
101332
101329
101326
101323
101319
101316
101313
101311
101308
101307
101305
101305
101305
101305
101306
101307
101308
101309
101310
101311
101313
101314
101314
101367
101367
101365
101364
101362
101360
101358
101355
101353
101350
101348
101345
101342
101339
101336
101332
101329
101326
101323
101321
101318
101317
101315
101315
101315
101315
101316
101317
101318
101319
101320
101321
101323
101324
101324
101377
101377
101375
101374
101372
101370
101367
101365
101362
101360
101357
101354
101351
101348
101345
101342
101339
101336
101333
101330
101328
101326
101325
101324
101324
101324
101325
101326
101327
101328
101329
101330
101332
101333
101333
101387
101386
101384
101383
101381
101378
101376
101374
101371
101368
101366
101363
101360
101357
101353
101350
101348
101345
101342
101339
101337
101335
101334
101333
101333
101333
101333
101334
101335
101336
101337
101339
101340
101341
101341
110979
111022
111060
111101
111144
111188
111235
111284
111335
111389
111444
111503
111558
111619
111671
111734
111782
111847
111893
111958
111995
112069
93357
93331
93298.1
93264.2
93227.7
93187.9
93144.6
93097.1
93045.3
92989.4
92926.9
92856.8
92780.6
92699.1
92611.7
92519.5
92427.8
92346.1
92289.3
92249.9
92226.7
92231.7
106877
106906
106936
106966
106996
107026
107055
107083
107108
107131
107151
107170
107184
107194
107204
107213
107221
107234
107259
107297
107358
107432
96941.3
96871.7
96792.3
96712.7
96637.7
96570.2
96517.6
96490.8
96484
96495.5
96530.4
96584.3
96646
96713.1
96782.2
96842.5
96879.7
96894.4
96898.1
96910.7
96925.6
96946
103688
103682
103677
103671
103666
103666
103664
103667
103685
103733
103803
103892
103991
104083
104153
104192
104200
104179
104136
104083
104027
103971
99238.2
99241.8
99244
99245.8
99246.5
99244
99243.6
99244.1
99251.4
99260
99274.9
99299.3
99333.3
99374.6
99419.6
99466.9
99516.8
99571.4
99624.5
99671.5
99715
99757.5
102586
102581
102580
102578
102572
102559
102539
102512
102481
102447
102408
102366
102323
102281
102240
102201
102165
102132
102101
102075
102050
102026
100228
100243
100258
100276
100297
100320
100346
100374
100405
100438
100473
100508
100542
100573
100602
100629
100654
100675
100695
100713
100729
100745
101884
101868
101850
101832
101812
101791
101768
101743
101717
101690
101662
101634
101607
101582
101558
101536
101516
101497
101478
101459
101440
101420
100807
100823
100840
100856
100874
100892
100911
100931
100950
100969
100988
101006
101021
101034
101045
101054
101063
101071
101077
101082
101085
101087
101481
101471
101460
101450
101438
101427
101415
101403
101391
101379
101367
101355
101345
101334
101324
101314
101305
101296
101288
101280
101272
101262
101053
101063
101073
101084
101094
101105
101116
101127
101137
101147
101156
101165
101173
101179
101185
101189
101193
101195
101197
101199
101199
101199
101295
101290
101285
101280
101275
101270
101266
101262
101258
101254
101251
101248
101246
101244
101242
101240
101239
101237
101235
101234
101232
101230
101146
101150
101155
101160
101165
101170
101175
101180
101184
101189
101194
101198
101202
101205
101208
101211
101213
101215
101217
101218
101219
101221
101226
101223
101221
101219
101217
101216
101215
101214
101213
101213
101213
101213
101214
101214
101215
101216
101218
101219
101220
101221
101222
101224
101183
101184
101186
101187
101189
101191
101193
101195
101197
101199
101201
101203
101205
101207
101209
101211
101213
101215
101217
101218
101220
101223
101213
101211
101209
101208
101208
101207
101207
101207
101207
101207
101208
101208
101209
101211
101212
101214
101215
101217
101219
101220
101222
101225
101208
101207
101207
101208
101208
101208
101209
101209
101210
101210
101211
101212
101213
101215
101216
101217
101219
101220
101222
101224
101226
101229
101225
101223
101222
101221
101221
101220
101220
101220
101220
101220
101220
101221
101221
101222
101223
101224
101225
101227
101228
101230
101231
101235
101233
101231
101231
101230
101230
101230
101230
101230
101230
101230
101230
101230
101231
101231
101232
101233
101234
101235
101236
101238
101239
101242
101247
101245
101244
101243
101243
101242
101242
101242
101241
101241
101241
101241
101242
101242
101243
101243
101244
101245
101246
101247
101248
101251
101258
101256
101256
101255
101255
101254
101254
101254
101254
101253
101253
101253
101254
101254
101254
101255
101255
101256
101256
101257
101258
101260
101271
101269
101268
101268
101267
101267
101267
101266
101266
101266
101266
101266
101266
101266
101266
101266
101267
101267
101267
101268
101268
101270
101283
101281
101280
101280
101279
101279
101279
101279
101278
101278
101278
101278
101278
101278
101278
101278
101278
101278
101279
101279
101279
101280
101295
101293
101292
101292
101291
101291
101291
101291
101290
101290
101290
101290
101290
101290
101290
101290
101290
101290
101290
101290
101290
101291
101306
101304
101303
101303
101303
101302
101302
101302
101302
101302
101302
101302
101302
101302
101302
101302
101301
101301
101301
101301
101301
101301
101317
101315
101314
101314
101314
101313
101313
101313
101313
101313
101313
101313
101313
101313
101313
101313
101313
101312
101312
101312
101311
101311
101327
101325
101324
101324
101324
101324
101324
101324
101324
101324
101324
101324
101324
101324
101324
101324
101324
101323
101323
101322
101322
101321
101336
101334
101333
101333
101333
101333
101333
101334
101334
101334
101334
101335
101335
101335
101335
101335
101334
101334
101333
101333
101332
101331
101345
101342
101342
101342
101342
101342
101342
101343
101343
101344
101344
101344
101345
101345
101345
101345
101344
101344
101344
101343
101342
101341
112093
112090
112099
112103
112102
112113
92268.8
92344.3
92429.2
92500.4
92527.5
92493.8
107516
107631
107738
107816
107834
107786
96970.5
97015.6
97080.8
97138
97183.7
97212.7
103926
103890
103853
103825
103814
103818
99787.1
99802.2
99816.1
99826.3
99830.5
99829.2
102010
102001
101992
101986
101986
101988
100757
100760
100762
100761
100755
100746
101406
101393
101382
101373
101365
101358
101088
101082
101076
101070
101064
101056
101257
101250
101244
101238
101232
101224
101199
101196
101194
101191
101187
101183
101228
101227
101225
101223
101221
101220
101220
101221
101221
101221
101222
101223
101223
101225
101227
101228
101230
101233
101223
101226
101229
101231
101234
101238
101225
101229
101232
101235
101238
101244
101228
101233
101237
101240
101244
101250
101234
101239
101243
101246
101250
101256
101241
101247
101250
101254
101258
101264
101250
101255
101259
101263
101266
101272
101259
101265
101268
101272
101275
101280
101270
101275
101278
101281
101285
101289
101280
101285
101288
101291
101294
101298
101291
101295
101298
101301
101304
101307
101302
101305
101308
101311
101314
101316
101312
101316
101318
101321
101323
101325
101322
101326
101328
101331
101333
101334
101332
101335
101338
101340
101343
101344
101342
101345
101348
101350
101352
101353
112099
112031
112000
111942
111900
111846
111801
111751
111703
111652
111601
111548
111495
111444
111394
111346
111300
111256
111214
111173
111138
111092
92450.4
92412.5
92368.3
92329.9
92302.6
92301.5
92332.4
92377.2
92436.8
92520.9
92618
92716.1
92807.4
92890.3
92967.2
93036.6
93098.1
93151.6
93197.5
93237.5
93273
93300.1
107714
107617
107502
107390
107289
107206
107142
107104
107075
107058
107046
107038
107025
107011
106993
106970
106945
106919
106892
106864
106825
106798
97199.9
97172.5
97142.4
97115.9
97103.2
97097.8
97093
97091
97098.4
97086.7
97044.6
96983.1
96923.5
96877.3
96844.3
96823.9
96813.1
96815.2
96839.8
96879.5
96924.8
96965.3
103843
103886
103930
103977
104025
104073
104123
104174
104224
104258
104257
104220
104167
104110
104061
104025
104004
103992
103981
103978
103976
103974
99811.7
99782.5
99753
99719.7
99681.1
99636.9
99587.3
99537.6
99480.3
99420
99363
99317.9
99284.9
99261.4
99241.3
99221.4
99198.9
99175.8
99150.8
99124
99098.1
99074.5
102000
102020
102039
102061
102084
102110
102139
102170
102205
102241
102280
102320
102361
102401
102439
102475
102506
102527
102535
102533
102529
102529
100732
100708
100684
100658
100629
100598
100564
100530
100494
100457
100419
100378
100336
100295
100254
100214
100174
100136
100104
100079
100061
100045
101360
101363
101367
101372
101379
101388
101399
101412
101428
101446
101467
101491
101516
101541
101567
101593
101619
101644
101669
101694
101717
101741
101051
101040
101029
101017
101005
100991
100977
100961
100945
100927
100909
100890
100871
100852
100833
100815
100798
100782
100767
100754
100741
100728
101222
101221
101222
101223
101225
101229
101234
101240
101249
101258
101268
101281
101294
101309
101323
101339
101355
101371
101387
101402
101417
101433
101180
101176
101172
101169
101166
101163
101160
101157
101154
101151
101147
101143
101137
101131
101125
101119
101113
101106
101099
101092
101085
101078
101219
101220
101221
101222
101224
101226
101230
101234
101239
101244
101251
101258
101265
101274
101282
101290
101299
101307
101315
101324
101331
101339
101222
101224
101225
101227
101229
101232
101235
101237
101240
101243
101245
101247
101249
101250
101250
101250
101249
101248
101246
101244
101241
101237
101232
101236
101239
101242
101246
101250
101254
101259
101264
101269
101274
101279
101284
101289
101293
101298
101302
101306
101309
101313
101316
101318
101238
101243
101247
101251
101255
101259
101264
101268
101273
101278
101282
101286
101289
101292
101295
101296
101298
101298
101299
101299
101298
101296
101244
101250
101254
101258
101263
101268
101273
101278
101283
101287
101292
101296
101300
101303
101306
101309
101311
101313
101315
101317
101318
101319
101250
101256
101261
101266
101270
101275
101280
101285
101290
101294
101298
101302
101306
101308
101311
101313
101314
101315
101316
101317
101317
101317
101257
101264
101268
101273
101278
101283
101287
101292
101296
101301
101305
101308
101311
101314
101316
101318
101320
101321
101322
101323
101324
101325
101265
101271
101276
101281
101285
101290
101295
101299
101303
101307
101311
101314
101317
101319
101321
101323
101324
101325
101326
101327
101328
101328
101273
101279
101284
101288
101293
101298
101302
101306
101310
101314
101317
101320
101322
101325
101326
101328
101329
101330
101331
101332
101333
101334
101282
101288
101292
101297
101301
101305
101310
101313
101317
101320
101323
101326
101329
101331
101332
101334
101335
101336
101337
101338
101338
101340
101291
101297
101301
101305
101310
101314
101318
101321
101325
101328
101331
101333
101335
101337
101339
101340
101341
101342
101343
101344
101345
101346
101300
101306
101310
101314
101318
101322
101326
101329
101333
101336
101338
101341
101343
101345
101346
101347
101348
101349
101350
101351
101352
101353
101310
101315
101319
101323
101327
101331
101334
101338
101341
101344
101346
101349
101351
101352
101354
101355
101356
101357
101358
101358
101359
101361
101319
101324
101328
101332
101336
101340
101343
101347
101350
101352
101355
101357
101359
101361
101362
101363
101364
101365
101366
101366
101367
101368
101329
101333
101337
101341
101345
101349
101352
101356
101359
101361
101364
101366
101368
101369
101370
101371
101372
101373
101373
101374
101374
101376
101338
101343
101347
101351
101355
101358
101362
101365
101368
101370
101373
101375
101377
101378
101379
101380
101380
101381
101381
101381
101382
101383
101348
101352
101356
101360
101364
101368
101371
101374
101377
101380
101382
101384
101385
101387
101387
101388
101388
101389
101389
101389
101389
101390
101357
101361
101365
101369
101373
101377
101380
101383
101386
101389
101391
101393
101394
101395
101396
101396
101396
101396
101396
101395
101395
101396
111082
111085
111085
111087
111088
111090
111092
111095
111098
111101
111104
111104
111103
111099
111096
111100
111118
111143
111178
111226
111290
111367
111436
111487
111517
111534
111544
111551
111556
111559
111561
111563
111562
111565
111559
93308
93312.7
93315.1
93317.7
93320.9
93324.7
93329.8
93336.6
93345.7
93358.6
93376.8
93401.4
93433.9
93471.3
93499.8
93551.2
93643.1
93755.2
93859
93913.8
93893.1
93790.7
93614.9
93434.5
93308.4
93280.8
93285.8
93305.4
93335.8
93379.9
93440.1
93513.6
93592.6
93660.4
93700.2
106776
106746
106715
106681
106640
106591
106532
106463
106380
106281
106166
106036
105901
105769
105670
105601
105553
105534
105503
105466
105427
105362
105294
105275
105318
105376
105488
105608
105715
105800
105858
105894
105912
105920
105922
96995.4
97028.4
97064.5
97104.8
97149.4
97197.4
97247.6
97299.1
97351.3
97404
97453.1
97492.2
97520.3
97540.6
97558.1
97576.8
97590
97598.9
97609.6
97623.9
97626.3
97625.6
97610.6
97596.5
97592
97613
97637.4
97656
97662
97660.2
97654.5
97646.7
97637.1
97626.7
97618.7
103966
103953
103940
103925
103909
103891
103872
103853
103831
103806
103778
103750
103718
103683
103657
103639
103622
103591
103557
103528
103504
103488
103490
103483
103471
103458
103442
103426
103407
103391
103378
103366
103355
103347
103340
99056.6
99051.7
99046.6
99041.3
99036.2
99035
99038.7
99047.1
99060.2
99077
99095
99112.7
99131.1
99151.8
99175.8
99202.8
99232.5
99264.5
99299.1
99336.5
99377.1
99423.2
99471.5
99513.1
99554.7
99604.9
99655.7
99699.6
99735
99762.1
99781.2
99793.4
99799.9
99802.7
99802.2
102521
102515
102504
102495
102490
102485
102480
102480
102480
102482
102483
102484
102484
102484
102486
102487
102488
102488
102487
102486
102485
102484
102482
102479
102476
102474
102473
102473
102473
102473
102473
102472
102472
102471
102471
100029
100030
100032
100033
100034
100034
100032
100032
100035
100039
100042
100048
100064
100084
100110
100137
100164
100189
100211
100231
100248
100264
100277
100286
100294
100299
100304
100307
100309
100310
100310
100310
100310
100309
100309
101757
101763
101769
101775
101781
101786
101789
101790
101788
101785
101784
101783
101773
101767
101762
101757
101755
101752
101751
101752
101756
101761
101768
101775
101781
101786
101790
101792
101794
101794
101794
101794
101793
101793
101792
100715
100712
100709
100705
100702
100698
100695
100693
100690
100689
100687
100685
100690
100692
100703
100716
100729
100742
100754
100766
100777
100786
100793
100797
100799
100800
100800
100799
100799
100799
100799
100799
100799
100799
100799
101444
101447
101450
101453
101457
101460
101463
101466
101468
101471
101473
101473
101471
101472
101461
101453
101448
101443
101439
101436
101435
101435
101437
101440
101443
101446
101448
101450
101451
101452
101452
101452
101452
101452
101452
101072
101070
101067
101064
101060
101057
101053
101049
101045
101042
101038
101034
101031
101027
101028
101034
101038
101042
101047
101051
101055
101059
101060
101061
101063
101063
101063
101064
101064
101064
101064
101064
101064
101065
101065
101346
101346
101346
101346
101346
101347
101347
101347
101347
101347
101347
101346
101346
101345
101345
101339
101334
101331
101327
101325
101324
101323
101324
101325
101327
101328
101329
101331
101331
101332
101333
101333
101333
101333
101333
101236
101233
101232
101230
101228
101226
101224
101221
101219
101216
101212
101209
101205
101201
101197
101195
101195
101195
101195
101195
101196
101196
101196
101195
101195
101195
101195
101196
101196
101197
101197
101198
101198
101198
101199
101323
101322
101322
101322
101322
101321
101321
101320
101319
101318
101317
101315
101314
101312
101310
101310
101306
101304
101302
101300
101299
101299
101299
101300
101301
101302
101302
101303
101304
101304
101305
101305
101306
101306
101306
101298
101296
101295
101294
101294
101293
101291
101290
101289
101287
101285
101282
101280
101277
101274
101270
101269
101268
101266
101266
101265
101264
101263
101263
101263
101263
101263
101263
101264
101265
101265
101266
101266
101266
101267
101322
101321
101321
101321
101321
101320
101320
101319
101318
101318
101316
101315
101314
101312
101311
101310
101308
101307
101306
101305
101304
101304
101304
101305
101305
101306
101307
101308
101308
101309
101310
101310
101311
101311
101311
101318
101317
101317
101317
101316
101316
101316
101315
101314
101313
101312
101311
101309
101308
101306
101304
101303
101302
101301
101301
101300
101300
101299
101299
101300
101300
101300
101301
101301
101302
101303
101303
101303
101304
101304
101326
101326
101325
101325
101325
101325
101325
101324
101324
101323
101323
101322
101321
101320
101319
101319
101318
101317
101317
101317
101317
101317
101317
101318
101319
101319
101320
101321
101322
101322
101323
101323
101324
101324
101324
101328
101328
101328
101328
101327
101327
101327
101326
101326
101326
101325
101324
101324
101323
101322
101322
101321
101321
101321
101321
101321
101321
101321
101322
101322
101323
101323
101324
101325
101325
101326
101326
101327
101327
101327
101334
101334
101334
101333
101333
101333
101332
101332
101332
101331
101331
101330
101330
101329
101329
101329
101329
101329
101329
101329
101330
101330
101331
101332
101333
101334
101335
101335
101336
101337
101338
101338
101339
101339
101339
101339
101339
101339
101338
101338
101337
101337
101336
101336
101336
101335
101335
101334
101334
101334
101334
101334
101334
101334
101335
101335
101336
101337
101338
101339
101339
101340
101341
101342
101343
101343
101344
101344
101345
101345
101345
101345
101345
101344
101344
101343
101343
101342
101341
101341
101340
101340
101339
101339
101339
101339
101339
101340
101340
101341
101342
101343
101344
101345
101346
101347
101348
101349
101350
101351
101352
101352
101353
101353
101354
101351
101352
101351
101351
101350
101349
101348
101348
101347
101346
101346
101345
101344
101344
101344
101344
101344
101345
101345
101346
101347
101348
101349
101351
101352
101353
101354
101355
101356
101357
101358
101358
101359
101360
101360
101359
101359
101358
101357
101356
101356
101355
101354
101353
101352
101351
101350
101350
101349
101349
101349
101349
101350
101351
101352
101353
101354
101355
101357
101358
101359
101361
101362
101363
101364
101364
101365
101366
101366
101367
101366
101366
101365
101364
101363
101362
101361
101360
101359
101357
101356
101355
101355
101354
101354
101354
101354
101355
101356
101357
101358
101359
101361
101362
101364
101365
101366
101367
101369
101370
101370
101371
101372
101373
101373
101373
101373
101372
101371
101370
101368
101367
101366
101364
101363
101362
101361
101360
101359
101359
101359
101359
101359
101360
101361
101363
101364
101366
101368
101369
101371
101372
101373
101374
101375
101376
101377
101378
101379
101379
101380
101380
101379
101377
101376
101374
101373
101371
101370
101368
101367
101366
101364
101364
101363
101363
101363
101364
101365
101366
101367
101369
101371
101373
101374
101376
101377
101379
101380
101381
101382
101383
101384
101384
101385
101387
101386
101385
101384
101382
101380
101379
101377
101375
101373
101372
101370
101369
101368
101367
101367
101368
101368
101369
101370
101372
101374
101376
101377
101379
101381
101382
101384
101385
101386
101387
101388
101389
101390
101390
101393
101392
101391
101389
101387
101386
101384
101382
101380
101378
101376
101374
101373
101372
101371
101371
101372
101372
101373
101375
101376
101378
101380
101382
101384
101385
101387
101389
101390
101391
101392
101393
101394
101395
101396
101396
101395
101394
101392
101390
101388
101385
101383
101380
101377
101374
101372
101369
101365
101362
101359
101357
101354
101351
101348
101346
101344
101343
101342
101342
101342
101342
101343
101344
101345
101346
101347
101348
101349
101349
101406
101405
101403
101401
101399
101397
101394
101392
101389
101386
101383
101380
101377
101374
101371
101368
101366
101363
101360
101358
101355
101353
101352
101351
101350
101350
101351
101351
101352
101353
101354
101355
101356
101357
101357
101414
101413
101411
101409
101407
101405
101402
101399
101397
101394
101391
101388
101385
101382
101379
101376
101374
101371
101368
101366
101363
101361
101360
101359
101358
101358
101358
101359
101359
101360
101361
101362
101363
101364
101364
101421
101420
101418
101416
101414
101411
101409
101406
101403
101401
101398
101395
101392
101389
101386
101383
101381
101378
101376
101373
101371
101368
101367
101366
101365
101365
101365
101365
101365
101366
101367
101368
101369
101370
101369
101427
101426
101424
101422
101420
101417
101415
101412
101409
101406
101404
101401
101398
101395
101392
101390
101387
101384
101382
101379
101377
101375
101373
101371
101371
101370
101370
101370
101370
101371
101372
101372
101373
101374
101373
101432
101431
101429
101427
101425
101422
101420
101417
101414
101412
101409
101406
101403
101400
101397
101395
101392
101390
101387
101385
101382
101380
101378
101376
101375
101375
101374
101374
101374
101375
101375
101376
101377
101377
101377
101437
101435
101434
101432
101429
101427
101424
101421
101419
101416
101413
101410
101407
101405
101402
101399
101397
101394
101392
101389
101387
101384
101382
101380
101379
101378
101377
101377
101377
101377
101378
101378
101379
101379
101379
101440
101439
101437
101435
101433
101430
101428
101425
101422
101420
101417
101414
101411
101408
101406
101403
101401
101398
101396
101393
101390
101388
101385
101383
101382
101381
101380
101379
101379
101379
101379
101380
101380
101381
101380
101443
101442
101440
101438
101436
101434
101431
101428
101425
101423
101420
101417
101414
101412
101409
101406
101404
101401
101399
101396
101393
101391
101388
101386
101384
101383
101382
101381
101380
101380
101380
101381
101381
101381
101381
101446
101445
101443
101441
101439
101436
101434
101431
101428
101425
101423
101420
101417
101414
101412
101409
101407
101404
101402
101399
101396
101393
101390
101388
101386
101384
101383
101382
101381
101381
101381
101381
101381
101381
101380
101448
101447
101445
101443
101441
101438
101436
101433
101430
101428
101425
101422
101419
101417
101414
101412
101409
101406
101404
101401
101398
101395
101392
101389
101387
101385
101383
101382
101381
101380
101380
101380
101380
101380
101379
101450
101448
101447
101445
101442
101440
101437
101435
101432
101429
101427
101424
101421
101419
101416
101413
101411
101408
101406
101403
101399
101396
101393
101390
101387
101385
101383
101381
101380
101379
101379
101379
101379
101379
101378
101451
101450
101448
101446
101444
101442
101439
101436
101434
101431
101428
101426
101423
101420
101418
101415
101412
101410
101407
101404
101401
101397
101394
101391
101388
101385
101383
101381
101379
101378
101377
101377
101376
101376
101376
101452
101451
101449
101447
101445
101443
101440
101438
101435
101432
101430
101427
101424
101421
101419
101416
101414
101411
101408
101405
101402
101398
101394
101391
101387
101384
101382
101379
101377
101376
101375
101374
101374
101374
101373
101453
101452
101450
101448
101446
101444
101441
101439
101436
101433
101431
101428
101425
101423
101420
101417
101415
101412
101409
101406
101402
101398
101395
101391
101387
101384
101381
101378
101375
101373
101372
101371
101370
101370
101369
101454
101453
101451
101449
101447
101445
101442
101440
101437
101434
101432
101429
101426
101424
101421
101418
101416
101413
101410
101406
101403
101399