/*--------------------------------*- C++ -*----------------------------------*\
  =========                 |
  \\      /  F ield         | OpenFOAM: The Open Source CFD Toolbox
   \\    /   O peration     | Website:  https://openfoam.org
    \\  /    A nd           | Version:  8
     \\/     M anipulation  |
\*---------------------------------------------------------------------------*/
FoamFile
{
    version     2.0;
    format      ascii;
    class       volScalarField;
    location    "0.45";
    object      T;
}
// * * * * * * * * * * * * * * * * * * * * * * * * * * * * * * * * * * * * * //

dimensions      [0 0 0 1 0 0 0];

internalField   nonuniform List<scalar> 
15677
(
298.048
298.112
298.188
298.258
298.328
298.402
298.48
298.561
298.646
298.733
298.821
298.905
298.987
299.04
299.049
299.014
298.959
298.919
298.901
298.884
298.857
298.826
298.796
298.763
298.728
298.7
298.677
298.659
298.644
298.632
298.621
298.611
298.6
298.587
298.571
298.134
298.152
298.145
298.148
298.166
298.203
298.257
298.333
298.438
298.59
298.815
299.135
299.485
299.688
299.731
299.651
299.495
299.286
299.071
298.899
298.793
298.742
298.717
298.7
298.687
298.677
298.668
298.659
298.65
298.641
298.632
298.625
298.618
298.612
298.607
300.054
299.986
299.954
299.931
299.906
299.873
299.828
299.765
299.678
299.567
299.455
299.355
299.235
299.06
298.853
298.678
298.588
298.56
298.607
298.723
298.884
299.057
299.201
299.314
299.403
299.473
299.527
299.567
299.594
299.61
299.616
299.614
299.605
299.59
299.57
299.705
299.643
299.616
299.595
299.576
299.557
299.537
299.517
299.498
299.48
299.456
299.414
299.358
299.297
299.258
299.262
299.305
299.408
299.521
299.641
299.747
299.824
299.867
299.883
299.878
299.866
299.846
299.822
299.797
299.773
299.75
299.729
299.708
299.689
299.669
300.639
300.603
300.563
300.516
300.461
300.399
300.328
300.247
300.153
300.052
299.944
299.836
299.735
299.649
299.589
299.539
299.495
299.466
299.46
299.466
299.491
299.519
299.543
299.558
299.565
299.564
299.559
299.552
299.545
299.541
299.542
299.546
299.554
299.562
299.572
300.437
300.429
300.408
300.382
300.351
300.315
300.275
300.231
300.186
300.14
300.097
300.059
300.02
299.982
299.958
299.936
299.927
299.927
299.932
299.943
299.957
299.967
299.973
299.974
299.972
299.966
299.954
299.939
299.92
299.899
299.879
299.859
299.841
299.826
299.813
299.991
299.989
299.991
299.996
300.004
300.014
300.026
300.03
300.03
300.025
300.017
300.006
299.996
299.988
299.983
299.979
299.976
299.974
299.974
299.975
299.978
299.981
299.983
299.986
299.988
299.989
299.988
299.985
299.981
299.976
299.971
299.965
299.96
299.956
299.952
300.033
300.046
300.059
300.074
300.094
300.12
300.152
300.184
300.205
300.211
300.209
300.201
300.191
300.178
300.164
300.149
300.135
300.121
300.108
300.094
300.081
300.067
300.055
300.044
300.033
300.024
300.016
300.008
300
299.991
299.981
299.971
299.961
299.952
299.943
300.316
300.292
300.252
300.205
300.156
300.113
300.083
300.067
300.061
300.062
300.066
300.073
300.081
300.088
300.092
300.094
300.095
300.094
300.092
300.089
300.086
300.083
300.079
300.075
300.071
300.067
300.063
300.06
300.056
300.053
300.049
300.046
300.042
300.039
300.035
300.232
300.233
300.232
300.23
300.226
300.221
300.215
300.209
300.202
300.194
300.187
300.18
300.173
300.165
300.157
300.15
300.142
300.134
300.126
300.117
300.108
300.099
300.09
300.083
300.076
300.069
300.062
300.056
300.049
300.043
300.037
300.032
300.026
300.021
300.017
300.126
300.126
300.127
300.128
300.129
300.131
300.132
300.133
300.133
300.134
300.134
300.134
300.133
300.132
300.131
300.129
300.126
300.123
300.119
300.114
300.109
300.103
300.097
300.092
300.086
300.081
300.077
300.072
300.068
300.064
300.06
300.056
300.053
300.05
300.047
300.2
300.198
300.195
300.192
300.189
300.186
300.183
300.18
300.176
300.173
300.169
300.165
300.161
300.156
300.151
300.146
300.141
300.135
300.128
300.121
300.114
300.106
300.098
300.091
300.084
300.078
300.071
300.066
300.06
300.056
300.051
300.047
300.044
300.04
300.037
300.143
300.143
300.143
300.144
300.145
300.145
300.146
300.146
300.146
300.146
300.146
300.146
300.145
300.143
300.141
300.138
300.135
300.131
300.126
300.12
300.113
300.106
300.1
300.093
300.086
300.081
300.075
300.07
300.066
300.061
300.058
300.054
300.051
300.048
300.046
300.176
300.175
300.173
300.171
300.17
300.168
300.167
300.165
300.163
300.161
300.16
300.157
300.155
300.152
300.149
300.145
300.141
300.136
300.131
300.124
300.117
300.109
300.101
300.094
300.087
300.081
300.075
300.069
300.064
300.06
300.056
300.052
300.049
300.046
300.044
300.155
300.155
300.154
300.154
300.154
300.154
300.154
300.154
300.154
300.154
300.153
300.153
300.152
300.15
300.147
300.145
300.141
300.137
300.132
300.126
300.12
300.112
300.105
300.097
300.091
300.084
300.078
300.073
300.068
300.064
300.06
300.057
300.054
300.051
300.049
300.171
300.169
300.168
300.167
300.166
300.165
300.164
300.164
300.163
300.162
300.161
300.16
300.159
300.157
300.155
300.152
300.148
300.144
300.138
300.132
300.125
300.118
300.11
300.103
300.096
300.089
300.084
300.078
300.073
300.069
300.065
300.062
300.059
300.056
300.054
300.166
300.165
300.165
300.164
300.164
300.164
300.163
300.163
300.163
300.163
300.163
300.162
300.161
300.16
300.158
300.156
300.153
300.149
300.144
300.139
300.132
300.125
300.117
300.11
300.104
300.098
300.092
300.087
300.082
300.078
300.074
300.071
300.068
300.066
300.064
300.177
300.176
300.175
300.174
300.173
300.172
300.172
300.171
300.17
300.169
300.168
300.168
300.167
300.166
300.164
300.162
300.16
300.156
300.152
300.147
300.14
300.133
300.126
300.12
300.113
300.107
300.102
300.097
300.092
300.088
300.085
300.082
300.079
300.077
300.075
300.179
300.178
300.177
300.177
300.176
300.176
300.176
300.175
300.175
300.175
300.174
300.174
300.173
300.172
300.171
300.169
300.167
300.164
300.16
300.156
300.15
300.143
300.137
300.13
300.124
300.119
300.113
300.109
300.105
300.101
300.098
300.095
300.093
300.091
300.089
300.187
300.185
300.184
300.183
300.183
300.182
300.182
300.182
300.181
300.181
300.18
300.18
300.179
300.179
300.178
300.177
300.175
300.173
300.17
300.165
300.16
300.154
300.148
300.142
300.136
300.131
300.126
300.122
300.118
300.115
300.112
300.11
300.108
300.106
300.104
300.193
300.192
300.191
300.19
300.19
300.189
300.189
300.189
300.188
300.188
300.187
300.187
300.187
300.186
300.186
300.185
300.184
300.182
300.179
300.176
300.171
300.166
300.16
300.154
300.149
300.144
300.14
300.136
300.132
300.129
300.127
300.124
300.123
300.121
300.12
300.2
300.198
300.198
300.197
300.197
300.196
300.196
300.195
300.195
300.195
300.194
300.194
300.194
300.194
300.193
300.193
300.192
300.191
300.189
300.186
300.182
300.177
300.172
300.167
300.162
300.157
300.153
300.15
300.146
300.144
300.141
300.139
300.138
300.136
300.135
300.208
300.206
300.205
300.205
300.204
300.204
300.203
300.203
300.202
300.202
300.202
300.201
300.201
300.201
300.201
300.201
300.201
300.201
300.199
300.197
300.193
300.189
300.184
300.179
300.175
300.171
300.167
300.163
300.16
300.158
300.156
300.154
300.152
300.151
300.15
300.215
300.213
300.212
300.212
300.211
300.211
300.211
300.21
300.21
300.209
300.209
300.209
300.209
300.209
300.209
300.21
300.21
300.21
300.209
300.207
300.204
300.2
300.196
300.192
300.188
300.184
300.18
300.177
300.174
300.172
300.17
300.168
300.167
300.166
300.165
300.222
300.221
300.22
300.219
300.219
300.218
300.218
300.217
300.217
300.216
300.216
300.216
300.216
300.216
300.217
300.218
300.218
300.219
300.218
300.217
300.215
300.212
300.208
300.204
300.2
300.196
300.193
300.19
300.188
300.185
300.184
300.182
300.181
300.18
300.179
300.229
300.228
300.227
300.226
300.226
300.225
300.225
300.224
300.224
300.223
300.223
300.223
300.223
300.223
300.224
300.225
300.226
300.227
300.227
300.227
300.225
300.222
300.219
300.215
300.212
300.209
300.205
300.203
300.2
300.198
300.197
300.195
300.194
300.193
300.192
300.236
300.235
300.234
300.233
300.233
300.232
300.232
300.231
300.231
300.23
300.23
300.229
300.23
300.23
300.231
300.232
300.234
300.235
300.236
300.236
300.235
300.232
300.23
300.226
300.223
300.22
300.217
300.215
300.213
300.211
300.209
300.208
300.207
300.206
300.205
300.243
300.241
300.241
300.24
300.239
300.239
300.238
300.238
300.237
300.237
300.236
300.236
300.236
300.236
300.237
300.239
300.241
300.242
300.244
300.244
300.243
300.242
300.239
300.237
300.234
300.231
300.228
300.226
300.224
300.222
300.221
300.219
300.218
300.218
300.217
300.249
300.248
300.247
300.246
300.246
300.245
300.244
300.244
300.243
300.243
300.242
300.242
300.242
300.242
300.243
300.245
300.247
300.249
300.251
300.252
300.252
300.25
300.248
300.246
300.243
300.241
300.238
300.236
300.234
300.233
300.231
300.23
300.229
300.228
300.228
300.255
300.254
300.253
300.252
300.251
300.251
300.25
300.25
300.249
300.248
300.248
300.247
300.247
300.248
300.249
300.251
300.253
300.255
300.257
300.258
300.259
300.258
300.256
300.254
300.252
300.25
300.247
300.245
300.244
300.242
300.241
300.24
300.239
300.238
300.237
298.544
298.508
298.466
298.417
298.365
298.31
298.254
298.197
298.135
298.07
298.015
297.992
298.001
298.044
298.094
298.147
298.189
298.204
298.183
298.078
297.848
297.541
298.596
298.571
298.535
298.492
298.441
298.383
298.318
298.25
298.189
298.162
298.171
298.217
298.325
298.447
298.552
298.605
298.581
298.467
298.332
298.219
298.106
297.965
299.536
299.479
299.409
299.325
299.228
299.119
299.004
298.89
298.79
298.717
298.683
298.696
298.762
298.889
299.059
299.257
299.445
299.599
299.719
299.812
299.88
299.918
299.642
299.604
299.559
299.503
299.435
299.356
299.269
299.184
299.112
299.063
299.042
299.049
299.084
299.159
299.262
299.369
299.44
299.44
299.399
299.36
299.332
299.308
299.584
299.6
299.616
299.631
299.644
299.658
299.676
299.699
299.727
299.758
299.788
299.819
299.849
299.88
299.913
299.947
299.983
300.027
300.061
300.076
300.088
300.106
299.796
299.776
299.76
299.749
299.74
299.732
299.723
299.71
299.698
299.685
299.673
299.664
299.657
299.652
299.647
299.642
299.637
299.634
299.634
299.637
299.646
299.662
299.946
299.939
299.932
299.926
299.921
299.918
299.917
299.92
299.923
299.927
299.935
299.945
299.957
299.969
299.979
299.985
299.988
299.987
299.985
299.983
299.984
299.987
299.932
299.917
299.902
299.888
299.875
299.863
299.854
299.847
299.843
299.842
299.843
299.847
299.854
299.862
299.87
299.876
299.88
299.882
299.88
299.878
299.875
299.873
300.029
300.02
300.011
300.001
299.991
299.982
299.973
299.966
299.96
299.957
299.956
299.957
299.961
299.966
299.971
299.976
299.981
299.984
299.986
299.986
299.985
299.984
300.011
300.003
299.994
299.984
299.975
299.965
299.956
299.947
299.94
299.934
299.931
299.93
299.932
299.936
299.941
299.947
299.953
299.958
299.963
299.967
299.97
299.972
300.043
300.037
300.031
300.024
300.017
300.01
300.002
299.995
299.988
299.982
299.977
299.975
299.975
299.977
299.981
299.986
299.992
299.999
300.004
300.01
300.014
300.017
300.034
300.029
300.024
300.018
300.013
300.007
300.001
299.995
299.99
299.984
299.98
299.977
299.977
299.978
299.98
299.984
299.989
299.994
299.999
300.005
300.01
300.015
300.042
300.038
300.034
300.03
300.025
300.02
300.015
300.011
300.006
300.002
299.998
299.995
299.992
299.99
299.989
299.99
299.992
299.995
300
300.005
300.01
300.015
300.041
300.037
300.033
300.029
300.025
300.021
300.018
300.014
300.01
300.007
300.004
300.001
299.999
299.998
299.997
299.997
299.998
300
300.002
300.006
300.011
300.016
300.046
300.042
300.038
300.034
300.031
300.027
300.024
300.021
300.018
300.015
300.012
300.01
300.008
300.007
300.006
300.006
300.007
300.008
300.01
300.012
300.016
300.02
300.051
300.047
300.043
300.039
300.035
300.032
300.029
300.026
300.023
300.021
300.019
300.017
300.016
300.015
300.015
300.015
300.016
300.017
300.019
300.021
300.024
300.027
300.06
300.056
300.052
300.048
300.044
300.041
300.038
300.035
300.032
300.03
300.028
300.026
300.025
300.025
300.025
300.025
300.026
300.027
300.029
300.031
300.033
300.036
300.072
300.067
300.063
300.059
300.055
300.052
300.048
300.045
300.042
300.04
300.038
300.037
300.036
300.036
300.036
300.036
300.037
300.038
300.04
300.042
300.044
300.047
300.086
300.082
300.077
300.073
300.069
300.066
300.062
300.059
300.056
300.054
300.052
300.05
300.049
300.049
300.049
300.049
300.05
300.051
300.052
300.054
300.056
300.058
300.101
300.097
300.093
300.088
300.085
300.081
300.077
300.074
300.071
300.069
300.067
300.065
300.064
300.063
300.063
300.063
300.064
300.065
300.066
300.067
300.068
300.07
300.117
300.113
300.108
300.104
300.1
300.097
300.093
300.09
300.087
300.085
300.083
300.081
300.08
300.079
300.079
300.079
300.079
300.08
300.08
300.081
300.082
300.083
300.132
300.128
300.124
300.12
300.116
300.113
300.109
300.106
300.104
300.101
300.099
300.098
300.096
300.096
300.095
300.095
300.095
300.095
300.096
300.096
300.097
300.097
300.148
300.143
300.139
300.135
300.132
300.128
300.125
300.122
300.119
300.117
300.115
300.114
300.113
300.112
300.111
300.111
300.111
300.111
300.111
300.112
300.112
300.112
300.162
300.158
300.154
300.15
300.147
300.143
300.14
300.137
300.135
300.133
300.131
300.13
300.129
300.128
300.127
300.127
300.127
300.127
300.127
300.127
300.127
300.127
300.177
300.172
300.168
300.165
300.161
300.158
300.155
300.152
300.15
300.148
300.146
300.145
300.144
300.143
300.143
300.143
300.143
300.142
300.142
300.142
300.142
300.142
300.19
300.186
300.182
300.178
300.175
300.172
300.169
300.166
300.164
300.162
300.16
300.159
300.158
300.158
300.157
300.157
300.157
300.157
300.157
300.157
300.157
300.156
300.203
300.199
300.195
300.191
300.188
300.185
300.182
300.179
300.177
300.175
300.173
300.172
300.171
300.171
300.171
300.171
300.171
300.171
300.171
300.171
300.17
300.17
300.215
300.211
300.207
300.203
300.2
300.197
300.194
300.191
300.189
300.187
300.186
300.184
300.184
300.183
300.183
300.183
300.183
300.183
300.183
300.183
300.183
300.183
300.226
300.222
300.218
300.215
300.211
300.208
300.205
300.203
300.2
300.199
300.197
300.196
300.195
300.195
300.195
300.195
300.195
300.195
300.195
300.195
300.195
300.195
300.235
300.232
300.228
300.225
300.222
300.219
300.216
300.213
300.211
300.209
300.208
300.207
300.206
300.205
300.205
300.205
300.206
300.206
300.206
300.206
300.206
300.206
297.243
296.964
296.725
296.566
296.744
297.154
297.789
297.601
297.444
297.427
297.539
297.799
299.928
299.892
299.851
299.864
299.901
299.86
299.289
299.279
299.279
299.295
299.302
299.284
300.136
300.182
300.228
300.257
300.255
300.216
299.685
299.716
299.742
299.756
299.754
299.734
299.994
300.005
300.013
300.014
300.005
299.986
299.871
299.87
299.869
299.866
299.861
299.855
299.983
299.983
299.981
299.978
299.974
299.969
299.973
299.973
299.973
299.972
299.971
299.97
300.021
300.024
300.025
300.026
300.027
300.027
300.02
300.026
300.031
300.036
300.04
300.044
300.021
300.028
300.036
300.043
300.051
300.058
300.022
300.029
300.037
300.045
300.053
300.062
300.025
300.032
300.04
300.048
300.057
300.066
300.032
300.039
300.046
300.054
300.062
300.07
300.041
300.047
300.054
300.061
300.068
300.076
300.051
300.056
300.063
300.069
300.076
300.082
300.061
300.067
300.072
300.078
300.084
300.089
300.073
300.078
300.083
300.088
300.093
300.098
300.086
300.091
300.095
300.1
300.104
300.107
300.1
300.104
300.108
300.112
300.115
300.119
300.114
300.118
300.122
300.125
300.128
300.131
300.129
300.132
300.136
300.139
300.142
300.144
300.143
300.147
300.15
300.153
300.155
300.157
300.158
300.161
300.164
300.167
300.169
300.171
300.171
300.175
300.178
300.18
300.183
300.184
300.184
300.187
300.19
300.193
300.195
300.197
300.196
300.199
300.202
300.205
300.207
300.209
300.207
300.211
300.213
300.216
300.218
300.22
297.458
297.689
297.886
298.056
298.184
298.272
298.323
298.337
298.305
298.205
298.09
297.987
297.959
297.973
298.016
298.065
298.112
298.165
298.223
298.281
298.333
298.375
297.883
297.931
297.975
298.017
298.066
298.109
298.143
298.196
298.3
298.411
298.458
298.449
298.416
298.38
298.35
298.325
298.306
298.295
298.311
298.34
298.368
298.389
299.847
299.856
299.862
299.845
299.787
299.687
299.566
299.44
299.318
299.194
299.06
298.919
298.797
298.713
298.675
298.678
298.718
298.788
298.883
298.997
299.117
299.232
299.259
299.243
299.237
299.239
299.246
299.263
299.288
299.326
299.362
299.345
299.265
299.164
299.088
299.057
299.059
299.099
299.166
299.249
299.336
299.413
299.475
299.526
300.16
300.104
300.049
300.006
299.98
299.971
299.97
299.969
299.952
299.921
299.894
299.877
299.872
299.872
299.872
299.866
299.85
299.823
299.784
299.74
299.695
299.657
299.705
299.675
299.648
299.629
299.62
299.621
299.63
299.642
299.653
299.663
299.675
299.693
299.717
299.746
299.775
299.798
299.811
299.813
299.803
299.786
299.769
299.757
299.965
299.949
299.935
299.926
299.921
299.92
299.92
299.92
299.919
299.917
299.916
299.917
299.92
299.923
299.925
299.923
299.917
299.905
299.894
299.887
299.883
299.88
299.848
299.842
299.838
299.835
299.833
299.832
299.83
299.828
299.825
299.822
299.819
299.817
299.816
299.816
299.816
299.816
299.815
299.815
299.815
299.817
299.82
299.824
299.965
299.964
299.963
299.964
299.965
299.966
299.967
299.967
299.966
299.964
299.962
299.959
299.957
299.955
299.953
299.951
299.948
299.945
299.943
299.941
299.939
299.938
299.969
299.97
299.971
299.971
299.972
299.972
299.972
299.97
299.968
299.964
299.96
299.956
299.952
299.948
299.944
299.94
299.936
299.933
299.931
299.929
299.928
299.928
300.028
300.031
300.034
300.036
300.037
300.038
300.038
300.038
300.038
300.037
300.036
300.034
300.032
300.029
300.025
300.021
300.017
300.013
300.01
300.007
300.005
300.003
300.047
300.05
300.052
300.053
300.054
300.054
300.054
300.054
300.053
300.052
300.049
300.046
300.042
300.037
300.032
300.027
300.022
300.017
300.013
300.009
300.007
300.004
300.064
300.07
300.077
300.083
300.089
300.093
300.096
300.096
300.096
300.094
300.09
300.086
300.08
300.074
300.068
300.062
300.056
300.051
300.047
300.043
300.04
300.038
300.069
300.077
300.084
300.091
300.097
300.102
300.105
300.107
300.107
300.105
300.101
300.094
300.088
300.081
300.074
300.068
300.062
300.057
300.053
300.05
300.047
300.045
300.074
300.081
300.088
300.095
300.101
300.106
300.11
300.112
300.112
300.112
300.109
300.106
300.1
300.095
300.089
300.083
300.079
300.075
300.072
300.069
300.068
300.067
300.078
300.085
300.092
300.098
300.103
300.108
300.111
300.112
300.112
300.111
300.109
300.106
300.101
300.097
300.093
300.089
300.086
300.084
300.082
300.081
300.081
300.081
300.083
300.089
300.095
300.1
300.105
300.108
300.111
300.112
300.112
300.111
300.109
300.106
300.104
300.101
300.098
300.097
300.096
300.095
300.095
300.096
300.097
300.098
300.088
300.094
300.099
300.103
300.107
300.11
300.112
300.113
300.113
300.112
300.111
300.109
300.108
300.107
300.106
300.106
300.106
300.106
300.107
300.109
300.11
300.112
300.095
300.099
300.104
300.107
300.11
300.113
300.114
300.115
300.116
300.116
300.115
300.115
300.115
300.116
300.116
300.117
300.118
300.119
300.121
300.123
300.124
300.126
300.102
300.106
300.11
300.114
300.116
300.119
300.12
300.122
300.123
300.124
300.124
300.125
300.126
300.127
300.129
300.13
300.132
300.133
300.135
300.137
300.139
300.14
300.111
300.115
300.119
300.122
300.125
300.127
300.13
300.131
300.133
300.135
300.136
300.138
300.139
300.141
300.143
300.144
300.146
300.148
300.149
300.151
300.153
300.154
300.122
300.126
300.13
300.133
300.136
300.139
300.141
300.143
300.146
300.148
300.15
300.152
300.154
300.156
300.157
300.159
300.161
300.162
300.163
300.165
300.166
300.167
300.134
300.138
300.142
300.145
300.149
300.152
300.154
300.157
300.16
300.162
300.164
300.166
300.168
300.17
300.172
300.173
300.175
300.176
300.176
300.177
300.178
300.178
300.147
300.151
300.155
300.159
300.162
300.166
300.169
300.172
300.174
300.177
300.179
300.181
300.183
300.185
300.186
300.187
300.188
300.188
300.188
300.189
300.189
300.189
300.16
300.165
300.169
300.173
300.176
300.18
300.183
300.186
300.189
300.191
300.193
300.195
300.197
300.198
300.199
300.199
300.199
300.199
300.199
300.199
300.198
300.198
300.174
300.178
300.183
300.187
300.19
300.194
300.197
300.2
300.203
300.205
300.207
300.208
300.209
300.21
300.21
300.21
300.209
300.209
300.208
300.207
300.206
300.206
300.187
300.192
300.196
300.2
300.204
300.207
300.211
300.213
300.216
300.218
300.219
300.22
300.22
300.22
300.22
300.219
300.218
300.217
300.216
300.215
300.214
300.213
300.2
300.205
300.209
300.213
300.217
300.22
300.223
300.225
300.227
300.229
300.23
300.23
300.23
300.229
300.229
300.227
300.226
300.225
300.223
300.222
300.22
300.219
300.212
300.216
300.221
300.224
300.228
300.231
300.234
300.236
300.237
300.238
300.239
300.239
300.238
300.237
300.236
300.234
300.233
300.231
300.229
300.227
300.226
300.224
300.223
300.227
300.231
300.235
300.238
300.241
300.243
300.245
300.246
300.247
300.247
300.246
300.245
300.244
300.242
300.24
300.238
300.236
300.234
300.233
300.231
300.229
298.408
298.423
298.434
298.445
298.457
298.47
298.485
298.504
298.529
298.559
298.595
298.635
298.677
298.723
298.774
298.816
298.842
298.878
298.943
299.018
299.06
299.057
299.001
298.912
298.815
298.712
298.607
298.501
298.397
298.297
298.203
298.114
298.029
297.935
297.867
298.396
298.398
298.4
298.404
298.408
298.415
298.423
298.433
298.446
298.462
298.482
298.509
298.545
298.597
298.686
298.841
299.055
299.288
299.491
299.633
299.699
299.65
299.45
299.085
298.737
298.489
298.319
298.201
298.116
298.055
298.017
297.998
297.996
298.002
297.969
299.314
299.372
299.426
299.474
299.513
299.542
299.558
299.559
299.546
299.514
299.46
299.378
299.26
299.089
298.856
298.648
298.545
298.532
298.56
298.641
298.762
298.946
299.141
299.275
299.379
299.494
299.605
299.689
299.747
299.787
299.814
299.833
299.852
299.884
299.955
299.56
299.585
299.61
299.635
299.66
299.686
299.711
299.735
299.755
299.768
299.771
299.751
299.709
299.641
299.559
299.471
299.431
299.433
299.468
299.523
299.537
299.527
299.485
299.454
299.444
299.438
299.439
299.446
299.457
299.47
299.483
299.496
299.512
299.534
299.596
299.63
299.612
299.597
299.586
299.58
299.578
299.58
299.585
299.593
299.598
299.599
299.592
299.574
299.554
299.543
299.538
299.54
299.554
299.571
299.59
299.613
299.649
299.706
299.783
299.87
299.961
300.053
300.139
300.215
300.283
300.343
300.396
300.442
300.484
300.525
299.752
299.75
299.753
299.76
299.773
299.791
299.813
299.834
299.853
299.866
299.874
299.878
299.881
299.884
299.889
299.895
299.904
299.919
299.938
299.956
299.972
299.991
300.014
300.042
300.073
300.108
300.149
300.189
300.228
300.263
300.294
300.323
300.35
300.376
300.4
299.879
299.878
299.878
299.878
299.879
299.88
299.881
299.882
299.881
299.88
299.878
299.876
299.876
299.877
299.88
299.883
299.887
299.892
299.9
299.91
299.921
299.935
299.949
299.963
299.977
299.99
300.001
300.011
300.019
300.024
300.028
300.03
300.03
300.031
300.033
299.829
299.833
299.838
299.843
299.85
299.857
299.865
299.872
299.879
299.887
299.899
299.915
299.935
299.958
299.982
300.005
300.026
300.045
300.062
300.079
300.096
300.112
300.128
300.142
300.154
300.165
300.174
300.182
300.189
300.195
300.2
300.205
300.209
300.212
300.212
299.937
299.936
299.935
299.933
299.931
299.929
299.926
299.923
299.922
299.922
299.925
299.932
299.942
299.954
299.969
299.983
299.996
300.009
300.02
300.029
300.037
300.044
300.049
300.052
300.053
300.053
300.052
300.049
300.046
300.043
300.039
300.035
300.031
300.027
300.025
299.928
299.928
299.927
299.928
299.929
299.93
299.933
299.937
299.942
299.95
299.96
299.971
299.984
299.998
300.013
300.028
300.043
300.057
300.071
300.084
300.096
300.108
300.12
300.13
300.139
300.147
300.154
300.161
300.167
300.174
300.18
300.185
300.191
300.196
300.202
300.001
299.999
299.997
299.996
299.994
299.993
299.993
299.994
299.995
299.997
300
300.004
300.009
300.016
300.025
300.035
300.045
300.054
300.062
300.071
300.079
300.087
300.093
300.097
300.1
300.102
300.103
300.103
300.103
300.102
300.101
300.099
300.097
300.095
300.094
300.002
300.001
299.999
299.998
299.998
299.998
299.998
300
300.003
300.007
300.012
300.019
300.028
300.037
300.048
300.059
300.07
300.081
300.091
300.1
300.109
300.118
300.126
300.134
300.14
300.146
300.151
300.156
300.16
300.164
300.168
300.172
300.176
300.181
300.185
300.036
300.035
300.033
300.032
300.031
300.03
300.03
300.031
300.033
300.036
300.04
300.045
300.051
300.058
300.066
300.075
300.083
300.091
300.099
300.106
300.113
300.12
300.126
300.131
300.135
300.138
300.14
300.142
300.143
300.144
300.144
300.144
300.144
300.144
300.144
300.044
300.042
300.041
300.04
300.039
300.039
300.04
300.042
300.044
300.048
300.052
300.058
300.065
300.073
300.082
300.091
300.1
300.109
300.117
300.125
300.133
300.141
300.148
300.153
300.158
300.162
300.165
300.169
300.171
300.174
300.177
300.179
300.182
300.185
300.188
300.066
300.065
300.065
300.064
300.064
300.064
300.064
300.066
300.068
300.071
300.075
300.079
300.085
300.091
300.099
300.106
300.114
300.122
300.129
300.136
300.143
300.149
300.155
300.159
300.163
300.166
300.168
300.17
300.171
300.173
300.174
300.174
300.175
300.176
300.177
300.081
300.08
300.079
300.079
300.079
300.08
300.08
300.082
300.084
300.087
300.09
300.095
300.1
300.106
300.113
300.12
300.127
300.134
300.141
300.148
300.155
300.162
300.169
300.174
300.178
300.181
300.184
300.187
300.189
300.19
300.192
300.194
300.195
300.197
300.199
300.099
300.098
300.098
300.099
300.099
300.099
300.1
300.101
300.103
300.105
300.107
300.111
300.115
300.12
300.126
300.132
300.138
300.145
300.152
300.158
300.165
300.171
300.177
300.181
300.185
300.188
300.19
300.191
300.193
300.194
300.195
300.196
300.196
300.197
300.198
300.113
300.113
300.113
300.113
300.113
300.114
300.114
300.115
300.117
300.119
300.121
300.124
300.127
300.131
300.136
300.142
300.148
300.154
300.161
300.167
300.173
300.179
300.185
300.189
300.193
300.196
300.198
300.201
300.202
300.204
300.205
300.207
300.208
300.209
300.211
300.127
300.127
300.127
300.127
300.127
300.128
300.128
300.129
300.13
300.131
300.133
300.135
300.138
300.141
300.146
300.151
300.157
300.163
300.169
300.175
300.181
300.187
300.192
300.196
300.2
300.202
300.205
300.206
300.208
300.209
300.21
300.21
300.211
300.212
300.213
300.141
300.141
300.141
300.141
300.14
300.14
300.141
300.141
300.141
300.142
300.143
300.145
300.147
300.15
300.155
300.16
300.165
300.171
300.177
300.183
300.189
300.194
300.199
300.203
300.206
300.209
300.211
300.212
300.214
300.215
300.216
300.217
300.218
300.219
300.22
300.154
300.154
300.154
300.153
300.153
300.152
300.152
300.152
300.152
300.152
300.153
300.154
300.156
300.159
300.163
300.167
300.173
300.178
300.184
300.19
300.196
300.201
300.206
300.209
300.212
300.215
300.216
300.218
300.219
300.22
300.221
300.222
300.222
300.223
300.224
300.167
300.166
300.165
300.165
300.164
300.163
300.162
300.162
300.161
300.161
300.161
300.162
300.164
300.166
300.17
300.175
300.18
300.185
300.191
300.197
300.202
300.207
300.212
300.215
300.218
300.22
300.222
300.223
300.224
300.225
300.226
300.226
300.227
300.227
300.228
300.178
300.177
300.176
300.175
300.174
300.173
300.172
300.171
300.17
300.17
300.169
300.17
300.171
300.173
300.177
300.181
300.187
300.192
300.198
300.203
300.208
300.213
300.218
300.221
300.223
300.225
300.227
300.228
300.229
300.23
300.23
300.231
300.231
300.232
300.233
300.188
300.187
300.185
300.184
300.183
300.181
300.18
300.179
300.178
300.177
300.177
300.177
300.178
300.18
300.184
300.188
300.193
300.199
300.204
300.209
300.215
300.219
300.223
300.226
300.229
300.23
300.231
300.232
300.233
300.234
300.234
300.235
300.235
300.236
300.236
300.197
300.195
300.194
300.192
300.191
300.189
300.188
300.186
300.185
300.184
300.184
300.184
300.185
300.187
300.19
300.195
300.2
300.205
300.21
300.215
300.22
300.225
300.229
300.231
300.233
300.235
300.236
300.237
300.237
300.238
300.238
300.239
300.239
300.239
300.24
300.204
300.203
300.201
300.2
300.198
300.196
300.195
300.193
300.192
300.191
300.19
300.19
300.191
300.193
300.197
300.201
300.206
300.211
300.216
300.221
300.226
300.23
300.234
300.236
300.238
300.239
300.24
300.241
300.241
300.242
300.242
300.242
300.243
300.243
300.243
300.211
300.21
300.208
300.206
300.204
300.203
300.201
300.199
300.198
300.197
300.196
300.196
300.197
300.199
300.203
300.207
300.212
300.217
300.222
300.227
300.231
300.235
300.238
300.241
300.242
300.243
300.244
300.245
300.245
300.246
300.246
300.246
300.246
300.247
300.247
300.217
300.216
300.214
300.212
300.21
300.208
300.207
300.205
300.204
300.203
300.202
300.202
300.203
300.205
300.208
300.213
300.218
300.223
300.227
300.232
300.236
300.24
300.243
300.245
300.246
300.247
300.248
300.249
300.249
300.249
300.249
300.25
300.25
300.25
300.25
300.223
300.221
300.219
300.217
300.216
300.214
300.212
300.21
300.209
300.208
300.207
300.208
300.209
300.211
300.214
300.218
300.223
300.228
300.233
300.237
300.241
300.245
300.247
300.249
300.25
300.251
300.252
300.252
300.252
300.253
300.253
300.253
300.253
300.253
300.253
300.228
300.226
300.224
300.222
300.22
300.219
300.217
300.215
300.214
300.213
300.213
300.213
300.214
300.216
300.219
300.224
300.228
300.233
300.238
300.242
300.246
300.249
300.251
300.253
300.254
300.255
300.255
300.256
300.256
300.256
300.256
300.256
300.256
300.256
300.256
300.261
300.26
300.259
300.258
300.258
300.257
300.256
300.256
300.255
300.254
300.253
300.253
300.253
300.253
300.255
300.256
300.259
300.261
300.263
300.265
300.266
300.265
300.264
300.262
300.26
300.258
300.256
300.254
300.253
300.251
300.25
300.249
300.248
300.247
300.247
300.267
300.266
300.265
300.264
300.264
300.263
300.262
300.262
300.261
300.26
300.259
300.259
300.259
300.259
300.26
300.262
300.264
300.267
300.269
300.271
300.272
300.272
300.271
300.27
300.268
300.266
300.264
300.262
300.261
300.259
300.258
300.257
300.256
300.256
300.255
300.273
300.272
300.271
300.27
300.269
300.269
300.268
300.267
300.266
300.265
300.265
300.264
300.264
300.264
300.265
300.266
300.269
300.271
300.274
300.276
300.277
300.277
300.277
300.275
300.274
300.272
300.27
300.268
300.267
300.265
300.264
300.263
300.262
300.262
300.261
300.278
300.277
300.276
300.275
300.274
300.274
300.273
300.272
300.271