/*--------------------------------*- C++ -*----------------------------------*\
  =========                 |
  \\      /  F ield         | OpenFOAM: The Open Source CFD Toolbox
   \\    /   O peration     | Website:  https://openfoam.org
    \\  /    A nd           | Version:  8
     \\/     M anipulation  |
\*---------------------------------------------------------------------------*/
FoamFile
{
    version     2.0;
    format      ascii;
    class       volScalarField;
    location    "1600";
    object      k;
}
// * * * * * * * * * * * * * * * * * * * * * * * * * * * * * * * * * * * * * //

dimensions      [0 2 -2 0 0 0 0];

internalField   nonuniform List<scalar> 
15677
(
0.991542
0.87871
1.19175
0.495982
0.831014
1.13858
0.398763
0.479957
0.693351
1.04262
0.380438
0.386828
0.414437
0.659632
0.977847
0.37573
0.37261
0.358583
0.359291
0.668619
0.936289
0.374332
0.370445
0.355688
0.317525
0.358578
0.691746
0.91082
0.373838
0.370028
0.359203
0.329881
0.295996
0.368885
0.717332
0.892812
0.373577
0.369928
0.362049
0.342608
0.309243
0.283175
0.392699
0.732118
0.881021
0.373421
0.36999
0.364005
0.350926
0.326917
0.292385
0.284217
0.423533
0.744761
0.871435
0.373329
0.370043
0.365277
0.356117
0.339388
0.31265
0.281993
0.289397
0.456409
0.747529
0.864813
0.373281
0.370047
0.366075
0.359366
0.347553
0.328236
0.30082
0.275529
0.30044
0.483828
0.750113
0.860858
0.373257
0.370014
0.366541
0.361408
0.352853
0.338963
0.318041
0.291602
0.272395
0.315366
0.508029
0.7511
0.859412
0.373248
0.369972
0.366771
0.362669
0.356298
0.346187
0.33069
0.309257
0.284349
0.272823
0.331883
0.527382
0.751245
0.859958
0.373245
0.369936
0.366848
0.363402
0.358517
0.351029
0.339578
0.323139
0.301634
0.279333
0.27454
0.347596
0.543903
0.751042
0.86202
0.373244
0.369916
0.366848
0.363774
0.359897
0.35425
0.345734
0.333324
0.316271
0.295363
0.275745
0.277961
0.363459
0.555693
0.750997
0.866328
0.373243
0.369906
0.366824
0.363918
0.360689
0.356339
0.349948
0.34061
0.327463
0.310229
0.290149
0.273302
0.2829
0.377015
0.56569
0.750814
0.87302
0.373242
0.369901
0.366804
0.363943
0.361078
0.35762
0.352768
0.345738
0.335716
0.322114
0.304926
0.285891
0.271926
0.287963
0.389642
0.571827
0.750889
0.881767
0.373242
0.369898
0.366791
0.363933
0.361208
0.358324
0.354573
0.349267
0.341672
0.331147
0.317261
0.300352
0.282455
0.271327
0.293607
0.399259
0.577269
0.750874
0.89259
0.373241
0.369895
0.366782
0.363917
0.361234
0.358617
0.355634
0.351603
0.34587
0.337825
0.326915
0.31295
0.296399
0.279734
0.271447
0.298713
0.407694
0.580016
0.750805
0.905473
0.373241
0.369894
0.366776
0.363904
0.361226
0.358715
0.356123
0.353045
0.348724
0.342636
0.33422
0.323081
0.309111
0.293084
0.277589
0.271838
0.303571
0.413643
0.581854
0.75078
0.920398
0.373241
0.369892
0.366772
0.363894
0.361211
0.358736
0.356318
0.353763
0.350548
0.345985
0.339591
0.330912
0.319614
0.305806
0.29025
0.275999
0.272592
0.307608
0.418456
0.581788
0.750824
0.93728
0.373241
0.369891
0.366769
0.363887
0.361197
0.358728
0.356381
0.354083
0.351499
0.348191
0.343406
0.336778
0.327903
0.316583
0.302924
0.287997
0.274746
0.273612
0.311132
0.421101
0.581292
0.750919
0.956066
0.373241
0.36989
0.366767
0.36388
0.361186
0.358713
0.356389
0.354211
0.351951
0.349396
0.345975
0.341023
0.334226
0.325252
0.313935
0.300573
0.286112
0.273992
0.274618
0.313789
0.423144
0.580119
0.751086
0.976587
0.373241
0.369889
0.366765
0.363876
0.361178
0.358698
0.356377
0.354247
0.352148
0.350003
0.347415
0.343949
0.338883
0.331978
0.322954
0.311752
0.298611
0.284771
0.273452
0.275687
0.315873
0.423149
0.57801
0.751255
0.998795
0.373241
0.369888
0.366764
0.363872
0.361171
0.358684
0.356361
0.354243
0.352219
0.350291
0.348162
0.345649
0.342148
0.337003
0.33006
0.32108
0.309995
0.297215
0.283775
0.27339
0.276667
0.317343
0.422704
0.5753
0.75158
1.02245
0.373241
0.369888
0.366763
0.363869
0.361166
0.358673
0.356345
0.354225
0.35223
0.350406
0.348532
0.346571
0.344064
0.340589
0.335473
0.328565
0.319653
0.308748
0.29616
0.283245
0.273542
0.277684
0.318111
0.421647
0.572254
0.751896
1.04752
0.373241
0.369888
0.366762
0.363867
0.361162
0.358665
0.356332
0.354204
0.352218
0.350435
0.348696
0.347051
0.345113
0.342779
0.339417
0.334314
0.327449
0.318657
0.307955
0.295809
0.283311
0.273933
0.27862
0.318574
0.419678
0.568713
0.752402
1.07368
0.373241
0.369887
0.366762
0.363865
0.361159
0.358658
0.356321
0.354185
0.352197
0.350424
0.348752
0.347272
0.345675
0.344039
0.341798
0.338502
0.333589
0.326983
0.318451
0.307998
0.295977
0.283634
0.274635
0.279597
0.318542
0.417193
0.56506
0.752901
1.10097
0.373241
0.369887
0.366761
0.363863
0.361156
0.358652
0.356312
0.354169
0.352175
0.350398
0.348755
0.347348
0.345955
0.344739
0.343143
0.341215
0.338339
0.333654
0.327161
0.318732
0.30839
0.296515
0.284342
0.275662
0.280594
0.318383
0.414323
0.561043
0.753577
1.12883
0.373242
0.369887
0.366761
0.363862
0.361154
0.358648
0.356305
0.354156
0.352156
0.350369
0.348733
0.347354
0.346074
0.34508
0.343902
0.342873
0.341323
0.338626
0.334115
0.327804
0.319532
0.309324
0.297626
0.285655
0.276975
0.281711
0.318036
0.411188
0.557101
0.754344
1.1605
0.373242
0.369887
0.366761
0.363861
0.361152
0.358644
0.356299
0.354145
0.35214
0.350343
0.348704
0.347326
0.346105
0.345215
0.34433
0.343855
0.343096
0.341834
0.339446
0.335201
0.329172
0.321135
0.3111
0.299475
0.287449
0.278644
0.28296
0.317613
0.407862
0.552884
0.755591
1.19617
0.373242
0.369887
0.366761
0.36386
0.361151
0.358641
0.356293
0.354136
0.352126
0.350321
0.348674
0.347287
0.346089
0.345245
0.344542
0.34437
0.344155
0.343792
0.342974
0.341096
0.337273
0.331524
0.323639
0.313666
0.301967
0.289794
0.280637
0.284389
0.317121
0.404458
0.548462
0.757231
1.232
0.373242
0.369886
0.36676
0.36386
0.361149
0.358639
0.356289
0.354129
0.352114
0.350303
0.348648
0.34725
0.346052
0.345222
0.344618
0.344614
0.344747
0.344988
0.345227
0.34512
0.34378
0.34034
0.334833
0.327063
0.317031
0.305175
0.292659
0.283018
0.286033
0.316765
0.400653
0.543277
0.759171
1.26772
0.373242
0.369886
0.36676
0.363859
0.361148
0.358637
0.356285
0.354123
0.352104
0.350287
0.348625
0.347216
0.346012
0.345177
0.34462
0.344709
0.345049
0.34569
0.346654
0.347703
0.348305
0.347563
0.344503
0.339212
0.33145
0.32128
0.30908
0.296105
0.285746
0.287882
0.316486
0.396591
0.538333
0.761278
1.30308
0.369886
0.373245
0.36676
0.363859
0.361147
0.358635
0.356282
0.354117
0.352096
0.350274
0.348605
0.347187
0.345973
0.345128
0.344584
0.344723
0.34518
0.346075
0.347537
0.349391
0.351294
0.352702
0.352587
0.349898
0.344733
0.336899
0.326405
0.313748
0.300098
0.288891
0.290109
0.316545
0.392939
0.533347
0.763576
1.33779
0.36676
0.369897
0.373253
0.363858
0.361147
0.358633
0.35628
0.354113
0.352088
0.350262
0.348587
0.347162
0.345938
0.345083
0.344536
0.344693
0.345218
0.346266
0.34806
0.35048
0.353314
0.356195
0.358481
0.359016
0.356624
0.351508
0.343419
0.332488
0.319141
0.304675
0.292828
0.292879
0.316803
0.389514
0.528718
0.766007
1.37171
0.363858
0.366776
0.369918
0.37326
0.361146
0.358632
0.356277
0.354109
0.352082
0.350253
0.348572
0.34714
0.345907
0.345042
0.344488
0.344649
0.345206
0.346348
0.348356
0.351172
0.354679
0.358641
0.362605
0.365833
0.366981
0.364817
0.359571
0.351107
0.339487
0.325308
0.310379
0.297786
0.295979
0.317338
0.386538
0.52415
0.768573
1.40462
0.361145
0.36388
0.36681
0.369939
0.373268
0.358631
0.356275
0.354105
0.352076
0.350244
0.348559
0.347121
0.34588
0.345006
0.344443
0.344603
0.345173
0.34637
0.34852
0.351611
0.355607
0.360373
0.3656
0.370746
0.374924
0.376647
0.374538
0.369035
0.359925
0.347469
0.332977
0.317523
0.3033
0.299361
0.318287
0.38385
0.520001
0.770988
1.43642
0.358629
0.361172
0.363924
0.366844
0.369961
0.373276
0.356274
0.354102
0.352071
0.350237
0.348547
0.347105
0.345857
0.344975
0.344402
0.344559
0.345136
0.346364
0.348606
0.3519
0.356257
0.36163
0.367823
0.374444
0.380816
0.385955
0.388108
0.385924
0.379874
0.369961
0.357374
0.342556
0.325437
0.309314
0.303056
0.319488
0.381579
0.516141
0.773448
1.46699
0.356272
0.35866
0.361227
0.36397
0.36688
0.369984
0.373284
0.354099
0.352067
0.350231
0.348537
0.347092
0.345836
0.344947
0.344366
0.344519
0.345099
0.346348
0.348653
0.352095
0.35674
0.362584
0.369532
0.377311
0.385409
0.393055
0.399049
0.401534
0.398965
0.3922
0.382399
0.369731
0.353149
0.334043
0.315782
0.30701
0.321006
0.379594
0.512718
0.775789
1.49627
0.354097
0.356307
0.358724
0.361284
0.364017
0.366916
0.370007
0.373292
0.352064
0.350225
0.348528
0.34708
0.345817
0.344924
0.344335
0.344484
0.345066
0.34633
0.348681
0.352236
0.357112
0.363357
0.37092
0.37964
0.389126
0.398777
0.407622
0.414417
0.416922
0.413801
0.407475
0.397917
0.383391
0.364653
0.343257
0.322635
0.311216
0.322722
0.37798
0.509548
0.778178
1.5242
0.352061
0.354135
0.356379
0.35879
0.361342
0.364066
0.366953
0.370031
0.373301
0.35022
0.348521
0.347069
0.345801
0.344903
0.344308
0.344454
0.345036
0.346313
0.348701
0.352347
0.357411
0.364002
0.372121
0.381638
0.39229
0.403603
0.414774
0.42479
0.432084
0.434462
0.432189
0.42654
0.415067
0.398217
0.376953
0.352993
0.329815
0.315618
0.324698
0.376625
0.50676
0.780467
1.55079
0.350216
0.3521
0.354213
0.356453
0.358857
0.361401
0.364115
0.366992
0.370056
0.37331
0.348514
0.34706
0.345787
0.344886
0.344284
0.344427
0.34501
0.346298
0.348717
0.352442
0.357665
0.36455
0.373181
0.383457
0.395133
0.407884
0.421027
0.433733
0.444642
0.452323
0.456247
0.45517
0.447608
0.433674
0.414054
0.38993
0.363159
0.337253
0.32019
0.3268
0.375568
0.504185
0.78279
1.576
0.348509
0.350256
0.352184
0.354294
0.356529
0.358927
0.361463
0.364167
0.367031
0.370081
0.373319
0.347052
0.345775
0.344872
0.344264
0.344405
0.344988
0.346286
0.348733
0.352527
0.357889
0.365032
0.374115
0.385126
0.397824
0.411885
0.426781
0.441816
0.455786
0.467522
0.477609
0.483629
0.480632
0.470481
0.453537
0.430742
0.403454
0.373658
0.344885
0.324891
0.329106
0.374773
0.501951
0.785017
1.59987
0.347046
0.348549
0.350343
0.352271
0.354377
0.356608
0.358998
0.361526
0.364219
0.367071
0.370107
0.373328
0.345764
0.34486
0.344246
0.344385
0.34497
0.346276
0.348748
0.352604
0.358092
0.365467
0.374957
0.386635
0.400373
0.415803
0.432342
0.449504
0.466177
0.481398
0.496276
0.509622
0.514175
0.508396
0.494941
0.47447
0.448112
0.417393
0.384393
0.352646
0.329674
0.331403
0.374291
0.499907
0.787265
1.62241
0.345755
0.347083
0.348636
0.350433
0.35236
0.354463
0.356689
0.359072
0.361591
0.364273
0.367113
0.370133
0.373338
0.344849
0.34423
0.344368
0.344955
0.34627
0.348765
0.352677
0.358278
0.365865
0.375727
0.388019
0.402733
0.419612
0.437937
0.457162
0.476363
0.494728
0.513826
0.533007
0.545606
0.54769
0.538252
0.520801
0.496272
0.465993
0.43161
0.395269
0.360473
0.334548
0.333709
0.373974
0.49815
0.789412
1.64366
0.344841
0.345786
0.347167
0.348726
0.350526
0.352453
0.354551
0.356772
0.359147
0.361658
0.364328
0.367156
0.37016
0.373347
0.344215
0.344354
0.344942
0.346266
0.348782
0.352746
0.358451
0.366232
0.376435
0.389298
0.40493
0.423202
0.443498
0.465076
0.48679
0.508174
0.5312
0.555715
0.574712
0.585443
0.58396
0.56996
0.547838
0.518751
0.484222
0.445983
0.406198
0.368311
0.339468
0.336013
0.373885
0.496554
0.791565
1.66364
0.344202
0.344866
0.345858
0.347254
0.34882
0.350621
0.352548
0.354642
0.356858
0.359225
0.361727
0.364385
0.367199
0.370187
0.373356
0.344341
0.344932
0.346263
0.3488
0.352812
0.358612
0.366571
0.377091
0.390487
0.406985
0.426585
0.448832
0.473128
0.497813
0.522295
0.549245
0.578962
0.603887
0.621423
0.629004
0.622775
0.603266
0.575813
0.541718
0.50265
0.460398
0.417101
0.376109
0.344393
0.338314
0.373933
0.495193
0.793613
1.68243
0.344332
0.344201
0.344925
0.345932
0.347344
0.348918
0.35072
0.352647
0.354736
0.356947
0.359305
0.361797
0.364443
0.367243
0.370213
0.373365
0.344922
0.346262
0.348818
0.352875
0.358762
0.366887
0.377699
0.391594
0.408908
0.429779
0.453935
0.480992
0.509224
0.537578
0.568737
0.603925
0.634774
0.658684
0.673237
0.676213
0.663923
0.637917
0.604488
0.564988
0.521135
0.474752
0.427904
0.38382
0.349287
0.340603
0.374061
0.493954
0.795654
1.70006
0.344917
0.344314
0.344206
0.344985
0.346012
0.347439
0.34902
0.350822
0.352749
0.354832
0.357038
0.359387
0.361869
0.364501
0.367285
0.370239
0.373374
0.346261
0.348835
0.352934
0.358903
0.36718
0.378264
0.392624
0.410708
0.432794
0.458816
0.488606
0.520519
0.553798
0.590428
0.631771
0.669115
0.699628
0.720761
0.730463
0.72707
0.707224
0.673684
0.633651
0.588395
0.539559
0.488957
0.438548
0.391405
0.354118
0.342872
0.374302
0.492908
0.797584
1.71658
0.346266
0.344869
0.344278
0.344213
0.345049
0.346098
0.347536
0.349126
0.350927
0.352854
0.354931
0.357132
0.359471
0.361941
0.364557
0.367325
0.370263
0.373382
0.348848
0.352988
0.359033
0.367452
0.378787
0.393581
0.412389
0.435634
0.463469
0.495948
0.531614
0.570293
0.614031
0.66371
0.708924
0.747245
0.77547
0.791357
0.79366
0.781677
0.752545
0.710368
0.663113
0.61178
0.557815
0.50294
0.44898
0.398828
0.358863
0.345109
0.374639
0.491957
0.799498
1.73205
0.34887
0.346173
0.344761
0.344237
0.344237
0.345116
0.346191
0.347637
0.349236
0.351036
0.352962
0.355034
0.357227
0.359554
0.36201
0.364612
0.367365
0.370287
0.37339
0.353035
0.359152
0.367703
0.379271
0.39447
0.413957
0.438302
0.467885
0.502999
0.542501
0.586891
0.638387
0.699589
0.75691
0.805729
0.842887
0.865362
0.872127
0.863513
0.840179
0.799779
0.747794
0.692708
0.635012
0.57581
0.516637
0.459157
0.406061
0.363499
0.34731
0.375024
0.491159
0.801295
1.74653
0.353091
0.348703
0.345952
0.344644
0.344197
0.344279
0.345184
0.34629
0.347741
0.349351
0.351148
0.353074
0.355138
0.357322
0.359635
0.362078
0.364665
0.367403
0.370311
0.373398
0.359257
0.367931
0.379717
0.395292
0.415413
0.440801
0.472059
0.509747
0.553146
0.603436
0.663102
0.738325
0.814673
0.881258
0.930943
0.961694
0.972394
0.964499
0.940529
0.902633
0.848801
0.785797
0.722291
0.657976
0.593462
0.529995
0.469046
0.413081
0.368012
0.349463
0.375471
0.490433
0.803073
1.75828
0.359369
0.352836
0.34829
0.345717
0.344541
0.344153
0.344335
0.345255
0.346395
0.34785
0.34947
0.351264
0.353188
0.355242
0.357415
0.359714
0.362143
0.364716
0.367441
0.370334
0.373406
0.368134
0.380122
0.396049
0.416763
0.443133
0.47599
0.51618
0.563486
0.619747
0.688141
0.780356
0.881874
0.977657
1.04953
1.09187
1.10722
1.09802
1.0689
1.02469
0.968871
0.899418
0.824207
0.751732
0.680578
0.610708
0.542974
0.47862
0.419871
0.372384
0.351566
0.375939
0.48983
0.804513
1.76817
0.36834
0.358997
0.352168
0.347857
0.345507
0.344448
0.344114
0.344403
0.34533
0.346506
0.347962
0.349593
0.351383
0.353302
0.355344
0.357505
0.359791
0.362207
0.364766
0.367477
0.370356
0.373414
0.380486
0.39674
0.418008
0.445301
0.479677
0.522285
0.573455
0.635702
0.713672
0.826239
0.958435
1.09162
1.20094
1.26666
1.28945
1.27877
1.24114
1.18436
1.11532
1.03845
0.951351
0.862845
0.780908
0.702736
0.627492
0.555541
0.48786
0.426414
0.376609
0.353609
0.376447
0.489352
0.805787
1.77891
0.380841
0.367818
0.357968
0.351473
0.347461
0.345314
0.344362
0.344083
0.344479
0.34541
0.346623
0.34808
0.349718
0.351502
0.353413
0.355443
0.357592
0.359865
0.362269
0.364815
0.367513
0.370377
0.373421
0.397364
0.419148
0.447308
0.483123
0.52805
0.583003
0.651258
0.739878
0.875825
1.04267
1.21829
1.37372
1.48239
1.52757
1.51839
1.47189
1.39851
1.30877
1.21113
1.11065
1.00423
0.901511
0.809704
0.724382
0.643775
0.567673
0.49675
0.432706
0.380677
0.35559
0.376892
0.488991
0.807147
1.79058
0.397954
0.380129
0.366283
0.356903
0.350827
0.347088
0.345133
0.344285
0.344062
0.344561
0.345497
0.346743
0.348203
0.349844
0.351618
0.35352
0.355539
0.357677
0.359938
0.36233
0.364863
0.367547
0.370398
0.373424
0.420185
0.449155
0.486329
0.533468
0.592102
0.666418
0.766779
0.928221
1.13163
1.35182
1.55737
1.71856
1.81096
1.82226
1.77053
1.68045
1.56583
1.43935
1.31051
1.1846
1.05764
0.939997
0.838013
0.745459
0.659522
0.579351
0.505283
0.438735
0.384586
0.357255
0.377305
0.488598
0.808711
1.80324
0.421143
0.397011
0.377889
0.364704
0.355906
0.350212
0.346737
0.344964
0.344219
0.344052
0.344648
0.345593
0.346867
0.348326
0.349966
0.351732
0.353625
0.355633
0.357759
0.360009
0.362388
0.364909
0.36758
0.370408
0.373424
0.45085
0.489296
0.538538
0.600743
0.681191
0.794205
0.982154
1.22223
1.48685
1.74354
1.96121
2.11202
2.17424
2.14034
2.03765
1.89823
1.73874
1.57324
1.41171
1.25935
1.11112
0.978102
0.865738
0.765918
0.674706
0.590567
0.513452
0.444508
0.387841
0.358691
0.377766
0.488226
0.81038
1.817
0.452385
0.419921
0.393797
0.375604
0.363221
0.354951
0.349623
0.346405
0.344809
0.344164
0.344054
0.344738
0.345697
0.34699
0.348449
0.350085
0.351843
0.353727
0.355725
0.35784
0.360078
0.362445
0.364953
0.367597
0.370408
0.373424
0.492036
0.543259
0.60893
0.695569
0.82186
1.03635
1.31197
1.61942
1.92614
2.20111
2.41494
2.54137
2.56139
2.47282
2.31262
2.11989
1.91337
1.70782
1.51312
1.33398
1.1642
1.01562
0.892798
0.78572
0.689314
0.601312
0.521263
0.449292
0.390629
0.360285
0.378319
0.487824
0.812314
1.83192
0.494476
0.450814
0.41536
0.390546
0.373452
0.361794
0.35403
0.349058
0.346094
0.344666
0.344121
0.344074
0.344829
0.345807
0.34711
0.34857
0.350201
0.351952
0.353826
0.355814
0.357918
0.360145
0.3625
0.364976
0.367597
0.370408
0.373424
0.547655
0.61667
0.709527
0.849401
1.08975
1.39908
1.74697
2.10138
2.43214
2.70995
2.90624
2.996
2.9634
2.81232
2.58966
2.34108
2.08661
1.84096
1.61332
1.40765
1.21648
1.05237
0.919112
0.804843
0.703337
0.611589
0.527726
0.45338
0.393707
0.36206
0.378937
0.48746
0.814378
1.84815
0.551525
0.492474
0.44439
0.41079
0.38748
0.371375
0.360413
0.353141
0.348516
0.345807
0.344536
0.344086
0.344119
0.344917
0.34592
0.347227
0.34869
0.350314
0.352059
0.353923
0.355901
0.357994
0.36021
0.362528
0.364976
0.367597
0.370408
0.373424
0.623998
0.723037
0.876508
1.14154
1.48243
1.86805
2.26709
2.65067
2.9906
3.25811
3.42477
3.46693
3.37268
3.15281
2.86424
2.55848
2.25608
1.97097
1.7112
1.47969
1.26759
1.08817
0.944616
0.823272
0.716771
0.62011
0.533251
0.457885
0.397112
0.364041
0.379684
0.487073
0.816793
1.86574
0.630461
0.548963
0.483442
0.438023
0.406476
0.384516
0.369361
0.359077
0.352286
0.347996
0.345541
0.344417
0.344046
0.344185
0.345003
0.346034
0.347342
0.348807
0.350424
0.352162
0.354017
0.355985
0.358068
0.360242
0.362528
0.364976
0.367597
0.370408
0.373424
0.736086
0.902915
1.19114
1.56133
1.98188
2.42223
2.85479
3.25308
3.58963
3.83526
3.9614
3.94625
3.78279
3.48937
3.13281
2.76962
2.42003
2.09663
1.80594
1.54955
1.31723
1.12289
0.969264
0.841005
0.727977
0.627397
0.539337
0.462855
0.400884
0.366258
0.38052
0.486749
0.819371
1.88486
0.747645
0.627204
0.536131
0.474601
0.432004
0.402299
0.381635
0.367407
0.357786
0.351465
0.347502
0.345294
0.344313
0.344009
0.344262
0.345089
0.346148
0.347455
0.348922
0.350531
0.352263
0.354108
0.356067
0.358104
0.360242
0.362528
0.364976
0.367597
0.370408
0.373421
0.92842
1.23818
1.63542
2.08813
2.56639
3.04372
3.49544
3.89631
4.21857
4.43197
4.50778
4.42689
4.18816
3.81803
3.39271
2.97272
2.57726
2.21711
1.89693
1.61684
1.36517
1.15645
0.993037
0.855842
0.737568
0.635428
0.546051
0.468347
0.40507
0.368743
0.381537
0.486416
0.822416
1.90558
0.743636
0.950851
0.608167
0.523845
0.466229
0.42617
0.398235
0.378838
0.365516
0.356542
0.350679
0.347038
0.345072
0.344224
0.343984
0.344344
0.345176
0.346261
0.347566
0.349034
0.350636
0.352362
0.354197
0.356108
0.358104
0.360242
0.362528
0.364976
0.367597
0.370398
0.373413
1.28246
1.70457
2.18676
2.69959
3.21741
3.7171
4.17597
4.56911
4.86756
5.03945
5.05619
4.90247
4.58409
4.13566
3.64196
3.16657
2.72701
2.33187
1.98378
1.6813
1.41128
1.18878
1.01295
0.868549
0.748142
0.644297
0.55347
0.474428
0.409727
0.371541
0.382677
0.486183
0.825673
1.92809
0.713692
0.946854
1.3206
0.590519
0.512234
0.458106
0.420492
0.394284
0.376125
0.363691
0.355348
0.349932
0.346609
0.344877
0.344151
0.343972
0.344429
0.345264
0.346373
0.347675
0.349144
0.350739
0.352458
0.354241
0.356108
0.358104
0.360242
0.362528
0.364976
0.36758
0.370377
0.373406
1.76877
2.2779
2.8221
3.37624
3.91838
4.42817
4.88419
5.26098
5.52734
5.64938
5.59945
5.36738
4.96669
4.43984
3.87921
3.35042
2.86883
2.44061
2.06628
1.74277
1.45545
1.21579
1.02999
0.882567
0.759819
0.654106
0.561682
0.481172
0.414916
0.374698
0.384075
0.48597
0.829556
1.95245
0.686274
0.899193
1.3168
1.82348
0.574107
0.500964
0.450201
0.414969
0.39045
0.373502
0.361933
0.354207
0.349231
0.346227
0.34471
0.344095
0.343972
0.344514
0.345355
0.346482
0.347783
0.349251
0.350839
0.352506
0.354241
0.356108
0.358104
0.360242
0.362528
0.364953
0.367546
0.370355
0.373398
2.36182
2.93439
3.52088
4.10016
4.65371
5.1635
5.60877
5.96218
6.1892
6.25394
6.13101
5.81675
5.3328
4.72885
4.10361
3.52388
3.00252
2.54324
2.14436
1.8012
1.49211
1.23885
1.04878
0.898056
0.772737
0.664974
0.57079
0.488669
0.420714
0.378271
0.385646
0.485909
0.833719
1.97887
0.661155
0.854249
1.24765
1.82087
2.43265
0.558349
0.489985
0.442514
0.409607
0.38674
0.370974
0.360249
0.35313
0.348595
0.345891
0.344567
0.344053
0.343986
0.344597
0.345448
0.346589
0.347889
0.349356
0.350889
0.352505
0.354241
0.356108
0.358104
0.360242
0.3625
0.364908
0.367512
0.370333
0.37339
3.03703
3.65227
4.2637
4.85419
5.4085
5.91073
6.33942
6.66376
6.84494
6.84584
6.64501
6.24653
5.68009
5.00156
4.3147
3.6868
3.12811
2.63978
2.21804
1.84929
1.52327
1.2642
1.06952
0.915195
0.787053
0.677035
0.580913
0.497019
0.427208
0.382333
0.387585
0.485988
0.83874
2.00741
0.63756
0.81221
1.17975
1.73278
2.43219
3.12297
0.543098
0.4793
0.435056
0.404416
0.383162
0.368547
0.358653
0.352143
0.348028
0.345598
0.344445
0.344024
0.344015
0.344678
0.345543
0.346694
0.347995
0.349408
0.350888
0.352506
0.354241
0.356108
0.358104
0.36021
0.362444
0.364861
0.367476
0.37031
0.373382
3.77138
4.41056
5.0317
5.62176
6.16911
6.65883
7.06701
7.35748
7.4869
7.41837
7.13635
6.65352
6.00693
5.25733
4.51235
3.8393
3.24574
2.73039
2.27826
1.88994
1.55735
1.29208
1.09243
0.934185
0.802946
0.690448
0.592187
0.506344
0.434501
0.38696
0.389773
0.486255
0.844143
2.03829
0.615218
0.772552
1.11349
1.64448
2.32774
3.1252
3.86993
0.528309
0.468931
0.427842
0.399408
0.379725
0.366243
0.357187
0.351258
0.347521
0.345345
0.344343
0.344001
0.344062
0.344757
0.345639
0.346799
0.348046
0.349407
0.350887
0.352506
0.354241
0.356109
0.358067
0.360144
0.362387
0.364814
0.36744
0.370287
0.373374
4.54229
5.18869
5.80649
6.38777
6.92358
7.39842
7.78345
8.03568
8.10784
7.96547
7.60086
7.03542
6.31237
5.49594
4.69672
3.98164
3.35568
2.80405
2.32896
1.93416
1.59463
1.32277
1.11777
0.955252
0.820629
0.705393
0.604774
0.516784
0.442717
0.392271
0.392363
0.48672
0.850728
2.07153
0.593988
0.735228
1.04855
1.5563
2.22203
3.00645
3.87414
4.64925
0.513983
0.458906
0.420888
0.394597
0.37646
0.364123
0.355866
0.350463
0.347067
0.345128
0.344256
0.343975
0.344121
0.344834
0.345739
0.346849
0.348044
0.349407
0.350888
0.352506
0.354242
0.356067
0.357993
0.360076
0.362328
0.364765
0.367402
0.370263
0.373365
5.32749
5.96633
6.57139
7.13905
7.66206
8.12168
8.48155
8.69118
8.70104
8.48193
8.03536
7.39076
6.59601
5.71759
4.86816
4.11418
3.4447
2.86589
2.3839
1.98228
1.63541
1.35653
1.14579
0.978649
0.840329
0.722079
0.61886
0.528507
0.452001
0.398412
0.395292
0.487735
0.857875
2.11402
0.573781
0.700296
0.985125
1.4677
2.1153
2.88601
3.74246
4.65322
5.43694
0.500141
0.449254
0.414214
0.390028
0.373453
0.36221
0.354677
0.34975
0.346663
0.344941
0.344185
0.343955
0.344186
0.344918
0.345788
0.346844
0.348044
0.349407
0.350888
0.352506
0.354197
0.355984
0.357916
0.360007
0.362267
0.364714
0.367364
0.370238
0.373356
6.10463
6.72519
7.31182
7.86509
8.37696
8.82203
9.15467
9.31711
9.26042
8.96355
8.43767
7.71886
6.85801
5.92273
5.02717
4.22112
3.51929
2.93273
2.44343
2.03459
1.68
1.39368
1.1768
1.00465
0.862307
0.740746
0.634665
0.541708
0.462532
0.405529
0.398815
0.488934
0.868281
2.16457
0.554531
0.667811
0.923673
1.37865
2.00694
2.7639
3.60941
4.50906
5.43693
6.21005
0.486813
0.440007
0.407881
0.38582
0.370739
0.360485
0.353607
0.34911
0.346306
0.344783
0.344125
0.343946
0.344265
0.344952
0.345783
0.346844
0.348044
0.349407
0.35089
0.352458
0.354107
0.355899
0.357838
0.359936
0.362205
0.364663
0.367324
0.370213
0.373347
6.85389
7.4491
8.01634
8.55835
9.06219
9.49381
9.79654
9.90687
9.7807
9.40719
8.80663
8.01979
7.09892
6.11198
5.15494
4.31057
3.59975
3.00494
2.50788
2.09143
1.72871
1.43453
1.2111
1.03358
0.886852
0.761664
0.652442
0.556629
0.474523
0.41382
0.402892
0.491365
0.88137
2.21565
0.536191
0.63777
0.864791
1.28941
1.89658
2.63943
3.47468
4.36475
5.27943
6.20148
6.94715
0.474039
0.431254
0.402054
0.382025
0.368291
0.35893
0.352644
0.348539
0.345994
0.344645
0.344079
0.343962
0.344301
0.344939
0.345785
0.346845
0.348045
0.349409
0.35084
0.352361
0.354015
0.355812
0.357757
0.359863
0.362141
0.36461
0.367284
0.370187
0.373338
7.5574
8.12551
8.67743
9.21297
9.71306
10.1323
10.4005
10.4545
10.2576
9.81095
9.14209
8.29419
7.31958
6.26321
5.26156
4.40687
3.68648
3.08288
2.57759
2.15313
1.78187
1.47941
1.24904
1.06574
0.914286
0.785141
0.672492
0.573539
0.488237
0.423514
0.408804
0.494769
0.896997
2.26671
0.518728
0.610085
0.809162
1.20051
1.78414
2.51193
3.33757
4.21952
5.12417
6.0279
6.92401
7.62906
0.461947
0.423224
0.396803
0.378604
0.366083
0.357529
0.351779
0.34803
0.345718
0.344528
0.344064
0.343957
0.344293
0.344938
0.345786
0.346846
0.348048
0.349357
0.350739
0.352262
0.353921
0.355722
0.357674
0.359788
0.362076
0.364556
0.367242
0.37016
0.373328
8.20131
8.74687
9.28432
9.81599
10.3164
10.7286
10.9612
10.954
10.688
10.1743
9.44476
8.54313
7.49453
6.38896
5.37606
4.51045
3.77988
3.16692
2.65291
2.22001
1.8398
1.52865
1.29095
1.10152
0.944955
0.811522
0.695138
0.592786
0.503998
0.437013
0.416909
0.499917
0.913843
2.31754
0.502244
0.584596
0.757453
1.11268
1.66974
2.38091
3.19714
4.0728
4.96975
5.8606
6.73055
7.58374
8.24135
0.450864
0.416007
0.392073
0.37552
0.364093
0.356268
0.351004
0.347575
0.345479
0.344459
0.344043
0.343931
0.344297
0.344939
0.345785
0.346851
0.347997
0.349251
0.350636
0.352161
0.353824
0.355631
0.35759
0.359712
0.362009
0.3645
0.367199
0.370133
0.373319
8.77555
9.3013
9.83674
10.374
10.8727
11.273
11.4702
11.4011
11.0707
10.4978
9.71596
8.73843
7.63924
6.52347
5.49882
4.62169
3.88032
3.25742
2.73418
2.29239
1.90281
1.58257
1.33716
1.14125
0.979228
0.841168
0.720788
0.614731
0.525518
0.455333
0.426936
0.505876
0.933825
2.36752
0.487127
0.561239
0.710226
1.0269
1.55366
2.24608
3.05251
3.92339
4.81575
5.69716
6.54888
7.36606
8.16081
8.77634
0.440929
0.409524
0.387814
0.372741
0.362299
0.355133
0.350306
0.347173
0.34531
0.344405
0.344011
0.343932
0.344298
0.344941
0.345791
0.346802
0.34789
0.349144
0.35053
0.352057
0.353725
0.355537
0.357503
0.359633
0.36194
0.364443
0.367156
0.370106
0.37331
9.27703
9.79049
10.3345
10.8888
11.3862
11.7636
11.9218
11.7932
11.4059
10.783
9.92575
8.89877
7.79308
6.667
5.63018
4.74094
3.98814
3.3547
2.82168
2.37054
1.97118
1.64147
1.388
1.18528
1.01747
0.8745
0.749802
0.644459
0.554036
0.47667
0.438859
0.514173
0.955504
2.41635
0.473548
0.540284
0.668028
0.944398
1.43645
2.10729
2.90288
3.77005
4.66078
5.53725
6.37544
7.16674
7.91573
8.63825
9.21681
0.432037
0.403698
0.383981
0.370238
0.360684
0.354109
0.349684
0.346871
0.345198
0.344361
0.344015
0.343934
0.344295
0.344957
0.345743
0.346696
0.347784
0.349034
0.350423
0.351951
0.353623
0.355441
0.357413
0.359553
0.361869
0.364385
0.367112
0.37008
0.373301
9.69299
10.2076
10.7737
11.3543
11.8531
12.1958
12.3115
12.13
11.6953
10.9994
10.0962
9.06775
7.95603
6.81968
5.77037
4.86848
4.10364
3.45905
2.91569
2.45472
2.04516
1.70561
1.44376
1.23393
1.06005
0.911839
0.788764
0.683198
0.58621
0.50135
0.453723
0.52377
0.981026
2.46333
0.461373
0.521669
0.631739
0.867241
1.319
1.96461
2.74757
3.61151
4.50329
5.37926
6.20993
6.98138
7.69531
8.36375
9.01074
9.55489
0.424083
0.398464
0.380533
0.367985
0.359226
0.353194
0.349202
0.346685
0.345134
0.344368
0.344016
0.343935
0.344306
0.344923
0.345643
0.346591
0.347677
0.348922
0.350313
0.351842
0.353519
0.355343
0.357322
0.359471
0.361797
0.364327
0.367071
0.370055
0.373292
10.0197
10.5509
11.1546
11.7671
12.2646
12.5629
12.6361
12.4135
11.9092
11.1728
10.2736
9.24482
8.12784
6.98149
5.9195
5.00452
4.22705
3.57068
3.01641
2.54511
2.12492
1.77517
1.50467
1.28747
1.10722
0.961415
0.83858
0.725884
0.622272
0.53
0.471583
0.536605
1.00897
2.50815
0.450484
0.504996
0.601246
0.798674
1.20343
1.81834
2.58598
3.44646
4.34158
5.22142
6.05042
6.80962
7.49561
8.11922
8.69949
9.26941
9.78555
0.416969
0.393764
0.377434
0.365951
0.357919
0.352468
0.348914
0.3466
0.345144
0.34437
0.344016
0.343965
0.344271
0.344841
0.345548
0.346485
0.347568
0.348807
0.3502
0.351732
0.353412
0.355242
0.357228
0.359387
0.361726
0.364272
0.36703
0.37003
0.373284
10.2528
10.8204
11.4775
12.1242
12.6104
12.8597
12.8933
12.6148
12.0768
11.35
10.4568
9.42916
8.30799
7.15219
6.07754
5.14912
4.35848
3.68973
3.12397
2.64182
2.21057
1.85027
1.57088
1.34602
1.16901
1.02348
0.892168
0.772398
0.662389
0.562792
0.493771
0.551624
1.04166
2.55012
0.440769
0.490004
0.575393
0.740117
1.09443
1.67018
2.41771
3.27358
4.17379
5.06169
5.89494
6.64903
7.31625
7.90283
8.42692
8.915
9.40361
9.89965
0.410606
0.389544
0.37464
0.364127
0.356868
0.352043
0.348801
0.346615
0.345147
0.344367
0.344052
0.343973
0.344194
0.344764
0.345454
0.346376
0.347457
0.348691
0.350085
0.351619
0.353303
0.35514
0.357133
0.359304
0.361657
0.364217
0.36699
0.370006
0.373275
10.3882
11.0179
11.7435
12.4129
12.884
13.0838
13.0593
12.767
12.2435
11.5289
10.6439
9.61949
8.49564
7.3313
6.24424
5.30219
4.49792
3.81623
3.23837
2.74485
2.30209
1.93092
1.64236
1.42164
1.24469
1.08866
0.948998
0.822431
0.706367
0.600131
0.520267
0.571217
1.07788
2.58897
0.432117
0.476516
0.553167
0.691052
0.995409
1.52517
2.24385
3.0916
3.99784
4.89773
5.74121
6.49744
7.1542
7.71431
8.19177
8.61011
9.00312
9.40097
9.88498
0.404913
0.385748
0.372135
0.362645
0.356261
0.351897
0.348823
0.346618
0.345142
0.344416
0.344078
0.34396
0.34413
0.344686
0.345362
0.346265
0.347346
0.348573
0.349968
0.351504
0.353191
0.355035
0.357038
0.359224
0.36159
0.364165
0.366952
0.369983
0.373267
10.4249
11.1487
11.9334
12.6332
13.0742
13.2164
13.1731
12.9108
12.4062
11.7068
10.8328
9.8141