/*--------------------------------*- C++ -*----------------------------------*\
  =========                 |
  \\      /  F ield         | OpenFOAM: The Open Source CFD Toolbox
   \\    /   O peration     | Website:  https://openfoam.org
    \\  /    A nd           | Version:  8
     \\/     M anipulation  |
\*---------------------------------------------------------------------------*/
FoamFile
{
    version     2.0;
    format      ascii;
    class       volScalarField;
    location    "0.27";
    object      epsilon;
}
// * * * * * * * * * * * * * * * * * * * * * * * * * * * * * * * * * * * * * //

dimensions      [0 2 -3 0 0 0 0];

internalField   nonuniform List<scalar> 
15677
(
59.7285
18.3628
52.6872
8.08312
26.0246
50.237
4.62209
13.3234
31.6576
50.5471
3.17401
7.74874
17.1284
37.3439
51.6446
2.48693
5.05384
10.0482
20.8572
42.6997
53.6893
2.14422
3.62743
6.4726
12.1852
24.5823
47.7049
55.7465
1.9793
2.82265
4.52957
7.73568
14.2989
28.2897
52.0617
57.6796
1.91148
2.35329
3.40383
5.31576
8.92843
16.4466
31.7912
55.7411
59.3729
1.88406
2.08023
2.72405
3.91179
6.02839
10.1188
18.5586
34.9913
58.7546
60.8702
1.8705
1.93934
2.30734
3.05663
4.36138
6.7145
11.2873
20.5933
37.8119
61.2246
62.131
1.86764
1.87828
2.05648
2.52152
3.34977
4.78038
7.37159
12.4331
22.4871
40.2743
63.21
63.238
1.86863
1.84884
1.91655
2.18619
2.71336
3.6174
5.1705
8.01041
13.5232
24.234
42.3691
64.8274
64.1608
1.86955
1.83871
1.85192
1.98266
2.30728
2.88759
3.86129
5.54173
8.6165
14.5568
25.7994
44.1563
66.1232
64.9841
1.86979
1.837
1.82113
1.86775
2.05156
2.41879
3.04475
4.08832
5.88889
9.19331
15.5097
27.2003
45.6482
67.1741
65.7015
1.86979
1.83726
1.81052
1.81335
1.89825
2.11782
2.51978
3.18875
4.29715
6.21578
9.72825
16.3874
28.4221
46.8999
68.0283
66.3365
1.86975
1.83752
1.80823
1.78978
1.81543
1.93048
2.17935
2.61183
3.31955
4.49063
6.51697
10.2245
17.1737
29.4857
47.9397
68.7227
66.917
1.86972
1.83761
1.80793
1.78275
1.77571
1.82155
1.96268
2.23603
2.69498
3.43891
4.667
6.79433
10.6731
17.8764
30.3916
48.7915
69.316
67.4121
1.86971
1.83763
1.80794
1.78103
1.76145
1.76614
1.83188
1.99358
2.2875
2.77013
3.5466
4.82731
7.04424
11.0776
18.4873
31.1555
49.4949
69.7873
67.9116
1.8697
1.83762
1.80795
1.7807
1.75696
1.74389
1.76041
1.84335
2.02228
2.33397
2.83746
3.64322
4.97055
7.26805
11.4319
19.0142
31.788
50.0475
70.2293
68.3025
1.8697
1.8376
1.80794
1.78065
1.75569
1.73584
1.72948
1.75746
1.85486
2.04858
2.37556
2.89731
3.72884
5.09716
7.4638
11.7394
19.4546
32.2982
50.5066
70.5608
68.7653
1.8697
1.83759
1.80792
1.78064
1.75537
1.73312
1.71723
1.71795
1.75595
1.8661
2.07234
2.41242
2.95003
3.80361
5.20721
7.63214
11.9973
19.8169
32.704
50.8438
70.9267
69.0762
1.8697
1.83759
1.80791
1.78061
1.75529
1.73227
1.71261
1.70119
1.70841
1.7559
1.87663
2.09354
2.44485
2.99577
3.86819
5.30053
7.77342
12.2093
20.1027
33.011
51.1286
71.175
69.5341
1.8697
1.83758
1.8079
1.78059
1.75526
1.73201
1.71099
1.69433
1.68712
1.70078
1.75622
1.88629
2.11232
2.47303
3.03518
3.92256
5.37867
7.88776
12.3764
20.3206
33.2362
51.3222
71.5218
69.7868
1.86971
1.83757
1.80789
1.78056
1.75523
1.73191
1.71045
1.69168
1.67787
1.67509
1.69445
1.75699
1.89514
2.12889
2.49748
3.06852
3.96804
5.44099
7.97826
12.5016
20.477
33.3919
51.4832
71.7252
70.2443
1.86971
1.83757
1.80789
1.78055
1.7552
1.73184
1.71026
1.6907
1.67407
1.66335
1.66461
1.68938
1.7583
1.90335
2.14358
2.51855
3.09669
4.00471
5.49081
8.04445
12.5912
20.5767
33.4804
51.6031
72.1203
70.4857
1.86971
1.83757
1.80788
1.78053
1.75518
1.73179
1.71017
1.69031
1.67259
1.65824
1.65046
1.65588
1.68544
1.76008
1.91107
2.15684
2.53701
3.1204
4.03461
5.52716
8.09223
12.6435
20.6352
33.535
51.6802
72.4148
428.393
1.86971
1.83756
1.80788
1.78052
1.75516
1.73176
1.71011
1.69013
1.67201
1.65608
1.64408
1.63941
1.64845
1.68274
1.76255
1.91885
2.16927
2.55355
3.14055
4.05787
5.5543
8.11944
12.674
20.6446
33.5348
51.8016
88.7488
714.895
1.86971
1.83756
1.80788
1.78051
1.75515
1.73173
1.71006
1.69002
1.67175
1.65517
1.64131
1.63162
1.62992
1.64314
1.68175
1.7662
1.92708
2.18151
2.56897
3.15838
4.07703
5.57233
8.13673
12.6722
20.6338
33.5399
52.7281
122.062
993.26
1.86971
1.83756
1.80788
1.7805
1.75514
1.7317
1.71002
1.68995
1.67161
1.65474
1.64012
1.62805
1.62102
1.62265
1.63899
1.68263
1.77131
1.93651
2.19443
2.58456
3.17516
4.09319
5.5851
8.13734
12.6621
20.6088
33.5691
55.297
157.51
1238.6
1.86971
1.83756
1.80788
1.78049
1.75513
1.73168
1.70999
1.68989
1.6715
1.65452
1.63957
1.62643
1.61688
1.61239
1.61705
1.63859
1.68535
1.7786
1.94786
2.20907
2.6011
3.19212
4.10777
5.59321
8.1346
12.641
20.5751
33.6747
59.8764
189.941
1463.74
1.86971
1.83756
1.80788
1.78049
1.75512
1.73166
1.70996
1.68984
1.67142
1.65438
1.63927
1.62565
1.61497
1.60742
1.60612
1.61482
1.64016
1.69097
1.78882
1.96209
2.22617
2.61988
3.21029
4.12262
5.59963
8.12848
12.6136
20.5355
33.9385
64.6001
220.651
1653.67
1.86971
1.83756
1.80788
1.78048
1.75512
1.73165
1.70993
1.6898
1.67135
1.65427
1.63907
1.62525
1.61403
1.60505
1.6008
1.60259
1.616
1.64454
1.70048
1.8029
1.98001
2.247
2.64179
3.23132
4.139
5.60715
8.12052
12.5846
20.493
34.414
69.4006
247.597
1797.06
1.86971
1.83755
1.80788
1.78048
1.75511
1.73163
1.70991
1.68977
1.6713
1.65419
1.63892
1.625
1.61352
1.60387
1.59822
1.59651
1.60353
1.61994
1.65328
1.71463
1.82169
2.00283
2.27238
2.66829
3.25607
4.1589
5.61708
8.11487
12.5541
20.4523
34.9822
73.7562
268.477
1907.6
1.86971
1.83755
1.80788
1.78047
1.75511
1.73162
1.7099
1.68974
1.67125
1.65412
1.6388
1.62482
1.6132
1.60325
1.59691
1.59353
1.59733
1.60727
1.62815
1.66764
1.73432
1.84642
2.03137
2.30364
2.70001
3.28608
4.18329
5.63144
8.11099
12.5214
20.4222
35.5301
77.1301
284.975
1995.7
1.83755
1.86975
1.80788
1.78047
1.7551
1.73161
1.70988
1.68972
1.67121
1.65406
1.63869
1.62468
1.61295
1.60287
1.59619
1.59204
1.59431
1.60101
1.61531
1.64278
1.68818
1.76078
1.87789
2.0669
2.3414
2.73841
3.32201
4.21344
5.65036
8.11138
12.4864
20.3858
35.9511
79.725
298.314
2068.71
1.80788
1.83765
1.86982
1.78046
1.7551
1.7316
1.70987
1.68969
1.67117
1.654
1.63861
1.62456
1.61276
1.60261
1.59574
1.59128
1.59284
1.59804
1.60915
1.63036
1.66417
1.71614
1.79493
1.91753
2.11016
2.38704
2.7838
3.36489
4.24954
5.67439
8.11441
12.4471
20.3423
36.2407
81.7135
309.609
2131.43
1.78046
1.80803
1.83785
1.86989
1.7551
1.7316
1.70986
1.68967
1.67114
1.65396
1.63853
1.62446
1.61259
1.6024
1.59541
1.59083
1.5921
1.59667
1.6064
1.62463
1.65265
1.69369
1.75267
1.83807
1.96586
2.16222
2.44064
2.83735
3.41479
4.29181
5.70711
8.12198
12.4117
20.2836
36.43
83.2897
319.364
2187.01
1.7551
1.78067
1.80835
1.83805
1.86997
1.73159
1.70986
1.68966
1.67112
1.65392
1.63847
1.62437
1.61245
1.60224
1.59514
1.59053
1.5917
1.59606
1.6053
1.62238
1.64787
1.68376
1.73263
1.7993
1.89121
2.0244
2.22342
2.50374
2.8988
3.47186
4.34586
5.7504
8.13634
12.3775
20.2177
36.53
84.5516
328.197
2237.44
1.73158
1.75535
1.78109
1.80868
1.83827
1.87004
1.70985
1.68964
1.6711
1.65388
1.63842
1.6243
1.61234
1.6021
1.59493
1.5903
1.59144
1.59579
1.605
1.62187
1.64668
1.68075
1.72526
1.78283
1.85723
1.956
2.0936
2.29488
2.57524
2.9685
3.5434
4.41417
5.80111
8.1559
12.348
20.1419
36.5849
85.6249
336.218
2283.87
1.70984
1.73188
1.75587
1.78152
1.80902
1.83848
1.87012
1.68963
1.67108
1.65385
1.63837
1.62423
1.61224
1.60198
1.59474
1.59012
1.59126
1.59565
1.60501
1.62214
1.64713
1.68104
1.72446
1.77898
1.84591
1.92859
2.03334
2.175
2.37649
2.65631
3.05509
3.6322
4.49076
5.8582
8.18073
12.3208
20.0654
36.5843
86.5401
343.771
2327.23
1.68962
1.71017
1.73247
1.7564
1.78196
1.80936
1.83871
1.8702
1.67106
1.65382
1.63834
1.62417
1.61215
1.60187
1.59458
1.58998
1.59112
1.59559
1.60515
1.62272
1.64841
1.68321
1.72718
1.78148
1.84614
1.92326
2.01437
2.12517
2.26862
2.46966
2.75586
3.16152
3.73018
4.5741
5.92068
8.20954
12.2987
19.9869
36.5732
87.374
350.816
2367.78
1.67105
1.68998
1.71085
1.73309
1.75695
1.78242
1.80971
1.83893
1.87028
1.6538
1.6383
1.62412
1.61208
1.60178
1.59445
1.58986
1.59101
1.59557
1.60534
1.62338
1.64994
1.6862
1.7319
1.78788
1.85355
1.92965
2.01596
2.11568
2.232
2.37633
2.58523
2.87997
3.27765
3.83514
4.66315
5.98709
8.24222
12.2799
19.9121
36.5496
88.1233
357.555
2406.1
1.65378
1.67143
1.69071
1.71154
1.73372
1.75751
1.78289
1.81008
1.83917
1.87037
1.63827
1.62407
1.61202
1.60169
1.59433
1.58976
1.59093
1.59556
1.60554
1.62405
1.65149
1.68935
1.73744
1.7965
1.86515
1.94389
2.03087
2.12714
2.23272
2.35391
2.51178
2.73105
3.01702
3.40244
3.94528
4.75603
6.05649
8.27775
12.2657
19.842
36.5147
88.8339
363.924
2442.05
1.63825
1.65418
1.67222
1.69147
1.71226
1.73437
1.75809
1.78337
1.81045
1.83941
1.87046
1.62403
1.61197
1.60161
1.59424
1.58968
1.59086
1.59557
1.60575
1.6247
1.65301
1.69242
1.74302
1.80604
1.87932
1.96292
2.05432
2.15332
2.25726
2.36864
2.50591
2.68123
2.89306
3.16526
3.53501
4.06029
4.85161
6.12783
8.31561
12.2547
19.7773
36.4817
89.4984
370.022
2476.19
1.62399
1.63865
1.65501
1.67304
1.69226
1.71299
1.73505
1.75868
1.78387
1.81083
1.83966
1.87055
1.61193
1.60154
1.59416
1.5896
1.5908
1.59559
1.60595
1.62531
1.65444
1.69532
1.74839
1.81549
1.89456
1.9852
2.08349
2.18933
2.29794
2.40979
2.54058
2.69863
2.86853
3.07077
3.32477
3.67399
4.1785
4.94872
6.20022
8.35494
12.2478
19.7185
36.4493
90.1362
375.832
2508.1
1.6119
1.62439
1.63951
1.65586
1.67388
1.69306
1.71374
1.73574
1.75928
1.78438
1.81123
1.83991
1.87064
1.60147
1.5941
1.58953
1.59075
1.5956
1.60615
1.62588
1.65578
1.69803
1.75348
1.82456
1.90957
2.00901
2.11701
2.23266
2.35041
2.46952
2.60462
2.76152
2.91574
3.07229
3.25837
3.49257
3.81739
4.29878
5.04636
6.27279
8.39532
12.2431
19.666
36.4227
90.7506
381.36
2538.48
1.60141
1.61228
1.62523
1.64039
1.65674
1.67474
1.69389
1.71452
1.73645
1.75991
1.78491
1.81163
1.84018
1.87073
1.59405
1.58947
1.59071
1.59563
1.60633
1.6264
1.65703
1.70054
1.75826
1.83312
1.92399
2.03259
2.15281
2.28225
2.41264
2.54419
2.69117
2.85861
3.01361
3.15635
3.29223
3.45459
3.66706
3.96451
4.42011
5.14359
6.34484
8.43604
12.2425
19.6196
36.4008
91.3355
386.65
2566.73
1.59403
1.60172
1.6131
1.6261
1.64129
1.65766
1.67563
1.69475
1.71531
1.73718
1.76055
1.78545
1.81204
1.84043
1.87082
1.5894
1.59066
1.59565
1.60649
1.62688
1.65817
1.70285
1.76272
1.84114
1.93772
2.05544
2.18842
2.33561
2.48412
2.63261
2.79774
2.98499
3.1531
3.29718
3.41925
3.52636
3.65757
3.84436
4.11372
4.54131
5.23968
6.41577
8.47677
12.2434
19.5787
36.3859
91.9117
391.654
2593.65
1.58934
1.5943
1.60241
1.61393
1.627
1.64223
1.6586
1.67654
1.69563
1.71613
1.73793
1.76121
1.786
1.81245
1.84069
1.8709
1.59062
1.59566
1.60665
1.62733
1.65922
1.70497
1.76684
1.84859
1.9507
2.07731
2.22309
2.38943
2.56191
2.73517
2.92458
3.14052
3.33231
3.49047
3.61218
3.70307
3.77257
3.86611
4.02199
4.26311
4.66131
5.33383
6.48505
8.51709
12.2459
19.543
36.3758
92.452
396.445
2618.54
1.59061
1.58937
1.5949
1.6031
1.6148
1.62794
1.64319
1.65957
1.67748
1.69654
1.71697
1.7387
1.76188
1.78654
1.81285
1.84093
1.87098
1.59567
1.60679
1.62774
1.66018
1.70691
1.77065
1.85548
1.9629
2.09803
2.25656
2.44271
2.64124
2.84839
3.07389
3.32861
3.55537
3.73947
3.87335
3.95876
4.00643
4.0288
4.07856
4.19879
4.41102
4.77897
5.4255
6.5523
8.55664
12.2504
19.5122
36.3729
92.9931
400.956
2642.29
1.59571
1.59052
1.58945
1.5955
1.60385
1.61571
1.62892
1.64418
1.66058
1.67845
1.69747
1.71784
1.73948
1.76254
1.78707
1.81323
1.84117
1.87106
1.6069
1.6281
1.66105
1.70869
1.77414
1.86183
1.97431
2.11751
2.28866
2.49485
2.72033
2.9659
3.24249
3.55589
3.83191
4.05639
4.21527
4.30603
4.3377
4.3281
4.29313
4.293
4.37366
4.55653
4.89399
5.51439
6.61723
8.59519
12.2564
19.4854
36.3747
93.4908
405.269
2664.11
1.60707
1.5954
1.59028
1.58951
1.59614
1.60466
1.61664
1.62995
1.64521
1.66162
1.67944
1.69843
1.71872
1.74027
1.76319
1.78759
1.81361
1.8414
1.87114
1.62841
1.66183
1.7103
1.77733
1.86768
1.98492
2.13572
2.31931
2.54531
2.79828
3.08584
3.42221
3.82078
4.17802
4.46445
4.66632
4.77394
4.79512
4.75057
4.66715
4.56384
4.50782
4.5455
4.69788
5.00596
5.60015
6.67963
8.63258
12.2633
19.463
36.3794
93.9964
409.322
2685
1.62878
1.60643
1.59456
1.58999
1.58969
1.59679
1.60554
1.6176
1.63101
1.64626
1.66269
1.68046
1.69941
1.7196
1.74103
1.76382
1.78809
1.81397
1.84162
1.87122
1.66252
1.71176
1.78024
1.87306
1.99474
2.15268
2.34841
2.59362
2.87456
3.20739
3.6098
4.11176
4.59995
5.00297
5.2786
5.42102
5.43536
5.34909
5.19941
5.02285
4.83945
4.72162
4.71376
4.83384
5.11412
5.6825
6.73935
8.66863
12.2711
19.4435
36.3898
94.4525
413.186
2701.69
1.66326
1.62756
1.60463
1.59362
1.58975
1.59006
1.59745
1.60648
1.61858
1.63212
1.64734
1.66379
1.68151
1.70038
1.72045
1.74177
1.76444
1.78858
1.81433
1.84184
1.87129
1.71309
1.78288
1.87798
2.00381
2.16846
2.3759
2.63953
2.94895
3.32945
3.80243
4.42512
5.09
5.70431
6.13879
6.34968
6.36446
6.22092
5.97607
5.68591
5.39438
5.11857
4.93322
4.87786
4.96428
5.21796
5.76124
6.79632
8.70326
12.2794
19.4276
36.3996
94.9213
416.33
2715.76
1.71443
1.66141
1.62413
1.60267
1.59276
1.58946
1.59059
1.59812
1.60749
1.61961
1.63326
1.64846
1.66492
1.68255
1.70133
1.72128
1.74248
1.76504
1.78905
1.81467
1.84205
1.87136
1.7853
1.88249
2.01215
2.18312
2.40174
2.68295
3.02132
3.45058
3.99744
4.76069
5.65296
6.57232
7.32248
7.71655
7.75455
7.5355
7.14704
6.68116
6.21038
5.78054
5.39988
5.14168
5.03715
5.08905
5.31718
5.83624
6.85048
8.73638
12.2881
19.4136
36.4182
95.2802
419.035
2730.92
1.78765
1.71175
1.65586
1.62049
1.60089
1.59202
1.58918
1.59124
1.59882
1.60854
1.62067
1.63444
1.64962
1.66604
1.68357
1.70225
1.72209
1.74318
1.76562
1.78951
1.81501
1.84225
1.87143
1.88666
2.01983
2.19672
2.42593
2.72392
3.09145
3.56928
4.19344
5.11983
6.29412
7.61439
8.83165
9.64305
9.84594
9.54737
8.95625
8.22019
7.4645
6.77106
6.17949
5.68204
5.34617
5.19109
5.20809
5.41164
5.90746
6.90183
8.76797
12.2971
19.4027
36.4297
95.6142
421.886
2747.46
1.89059
1.78396
1.70315
1.65002
1.61712
1.59928
1.59134
1.58897
1.59197
1.59957
1.60964
1.62179
1.63565
1.65077
1.66713
1.68456
1.70315
1.72288
1.74386
1.76618
1.78996
1.81533
1.84245
1.87147
2.02698
2.20934
2.44852
2.76255
3.15906
3.68437
4.39047
5.50369
7.01264
8.82654
10.6587
12.1107
12.8094
12.5953
11.7516
10.6291
9.43578
8.32087
7.36405
6.58876
5.96366
5.54597
5.33934
5.3214
5.50127
5.97487
6.95039
8.798
12.3061
19.3942
36.447
95.9476
425.097
2765.35
2.03352
1.88564
1.77104
1.69421
1.64457
1.614
1.5978
1.59073
1.58883
1.59275
1.60039
1.61078
1.62295
1.63685
1.6519
1.66819
1.68553
1.70402
1.72365
1.74452
1.76673
1.79039
1.81565
1.84255
1.87147
2.22119
2.46961
2.79898
3.22384
3.79522
4.58945
5.9118
7.80154
10.1919
12.7806
15.0931
16.605
16.9214
15.997
14.3648
12.5402
10.7803
9.24073
7.98369
7.00534
6.2433
5.74047
5.48167
5.429
5.5861
6.03853
6.99622
8.82649
12.314
19.3883
36.4595
96.3572
428.502
2784.95
2.2318
2.02701
1.86654
1.75776
1.68582
1.63944
1.61108
1.59642
1.59022
1.5888
1.59357
1.60128
1.61194
1.62413
1.63801
1.65301
1.66922
1.68648
1.70486
1.72439
1.74516
1.76726
1.79081
1.8158
1.84255
1.87147
2.48948
2.83339
3.28559
3.90176
4.79151
6.34171
8.64974
11.6862
15.159
18.5476
21.1942
22.4772
22.0457
20.0562
17.3663
14.665
12.2344
10.2118
8.62324
7.4259
6.51955
5.92914
5.61792
5.53099
5.6662
6.09853
7.03939
8.84988
12.3209
19.3819
36.485
96.763
432.345
2806.15
2.5069
2.22329
1.99915
1.84716
1.74526
1.67786
1.63455
1.60832
1.59515
1.5898
1.58886
1.59442
1.60226
1.61309
1.6253
1.63915
1.65409
1.67022
1.6874
1.70569
1.72512
1.74578
1.76778
1.79102
1.8158
1.84255
1.87147
2.86607
3.34436
4.00457
4.99748
6.78921
9.54416
13.2828
17.7481
22.409
26.5112
29.2171
29.8573
28.2165
24.755
20.7221
16.9723
13.7759
11.2207
9.27547
7.84704
6.79105
6.11153
5.748
5.62748
5.74169
6.15496
7.07463
8.86974
12.3287
19.3766
36.5032
97.2713
436.429
2829.38
2.89436
2.49612
2.18276
1.97126
1.82893
1.73335
1.67022
1.62987
1.60573
1.59399
1.58949
1.58907
1.59527
1.6033
1.6142
1.62645
1.64025
1.65515
1.67119
1.68829
1.70649
1.72583
1.74639
1.76804
1.79102
1.8158
1.84255
1.87147
3.40041
4.10463
5.20781
7.24895
10.471
14.9541
20.4992
26.599
32.4498
37.0424
39.3822
38.8326
35.4331
30.0541
24.3886
19.428
15.3823
12.2539
9.93332
8.2655
7.05655
6.28727
5.87193
5.71862
5.81275
6.20102
7.10442
8.89147
12.3377
19.3709
36.5413
97.7703
441.046
2854.47
3.44843
2.88047
2.43711
2.1428
1.945
1.8115
1.72187
1.66285
1.62539
1.60333
1.59296
1.58926
1.5895
1.59608
1.60437
1.61529
1.62759
1.64133
1.65619
1.67214
1.68916
1.70726
1.72651
1.74669
1.76804
1.79102
1.8158
1.84255
1.87147
4.20257
5.42051
7.71525
11.4166
16.6734
23.3637
31.0333
38.878
45.7821
50.4743
51.8549
49.4375
43.6568
35.8948
28.3155
21.9967
17.0313
13.2989
10.5903
8.67825
7.31491
6.4561
5.98974
5.80459
5.87063
6.24
7.13691
8.91529
12.3478
19.3673
36.5684
98.4049
445.985
2881.95
4.28798
3.431
2.79334
2.3799
2.1052
1.91984
1.79464
1.71076
1.65576
1.6211
1.60114
1.59202
1.58901
1.59014
1.59687
1.60544
1.61636
1.6287
1.64238
1.65719
1.67307
1.69001
1.70802
1.72685
1.74669
1.76804
1.79102
1.8158
1.84255
1.87143
5.63231
8.18392
12.3689
18.4155
26.2944
35.6279
45.6529
55.2182
62.8644
67.0723
66.7265
61.6449
52.8115
42.2024
32.4483
24.6439
18.7026
14.3444
11.2406
9.08263
7.56521
6.61781
6.10151
5.87493
5.91937
6.28255
7.17236
8.94138
12.3595
19.3635
36.6245
99.0267
451.565
2911.55
4.26577
5.81833
3.29838
2.71078
2.3261
2.06913
1.89547
1.7783
1.70003
1.64895
1.61701
1.59912
1.59119
1.58875
1.59087
1.59765
1.60651
1.61741
1.62979
1.64341
1.65817
1.67397
1.69083
1.70839
1.72685
1.74669
1.76804
1.79102
1.8158
1.84245
1.87136
8.65013
13.3169
20.1581
29.2477
40.303
52.6334
65.1145
76.2036
84.0773
87.0095
84.0008
75.3644
62.7876
48.8905
36.7308
27.3366
20.3781
15.3806
11.8793
9.47646
7.80669
6.77229
6.1934
5.93449
5.97233
6.32899
7.21105
8.97005
12.3727
19.3628
36.6653
99.8246
457.599
2943.9
4.04845
5.80193
9.06431
3.17701
2.63329
2.27444
2.03415
1.87182
1.76249
1.68969
1.64244
1.61316
1.5973
1.59048
1.58858
1.59165
1.59846
1.60757
1.61845
1.63085
1.64441
1.65912
1.67485
1.69124
1.70839
1.72686
1.74669
1.76804
1.79102
1.81564
1.84225
1.87129
14.2485
21.8816
32.1859
44.9863
59.689
75.2417
90.1144
102.332
109.696
110.346
103.586
90.4461
73.449
55.8654
41.1082
30.0448
22.0419
16.3994
12.5023
9.85796
8.03876
6.90006
6.27144
5.99958
6.02988
6.37968
7.25331
9.00148
12.3882
19.3637
36.7471
100.612
464.38
2978.57
3.85749
5.4155
9.0796
15.0781
3.06411
2.55887
2.22438
2.0002
1.84891
1.74723
1.67977
1.63625
1.60961
1.59571
1.58991
1.58853
1.59244
1.59928
1.6086
1.61948
1.63188
1.6454
1.66006
1.67528
1.69124
1.7084
1.72686
1.74669
1.76804
1.79081
1.81533
1.84204
1.87122
23.5657
35.0769
49.6183
66.7068
85.3953
104.237
121.254
133.99
139.866
137.017
125.298
106.688
84.6407
63.0319
45.5286
32.7418
23.6802
17.3941
13.1065
10.2257
8.23168
7.009
6.35697
6.07073
6.09246
6.43498
7.29947
9.03613
12.4055
19.3671
36.8092
101.621
471.834
3016.35
3.6837
5.07912
8.37045
15.1673
25.0744
2.95606
2.48682
2.17581
1.96732
1.8268
1.73256
1.6703
1.63045
1.60645
1.59435
1.58949
1.58859
1.59322
1.60013
1.6096
1.62049
1.63288
1.64637
1.66052
1.67528
1.69124
1.7084
1.72686
1.74669
1.76778
1.79038
1.815
1.84183
1.87114
37.8882
54.1502
73.598
95.4068
118.262
140.296
159.024
171.432
174.586
166.824
148.862
123.849
96.1993
70.2979
49.9446
35.4039
25.2821
18.3594
13.6894
10.5322
8.39667
7.12889
6.45079
6.14856
6.16053
6.49533
7.34993
9.07411
12.4264
19.3728
36.9264
102.639
480.119
3056.5
3.52019
4.77478
7.73904
13.935
25.3473
40.4123
2.85172
2.41705
2.12883
1.93559
1.80553
1.71853
1.66137
1.62519
1.60368
1.59319
1.58919
1.58877
1.59397
1.601
1.61057
1.62149
1.63388
1.64684
1.66051
1.67528
1.69125
1.7084
1.72686
1.74639
1.76725
1.78994
1.81466
1.84161
1.87106
58.5339
80.2952
105.152
131.946
159
183.986
203.797
214.767
213.696
199.441
173.934
141.665
107.963
77.5773
54.3139
38.0119
26.8387
19.2912
14.1754
10.7947
8.57884
7.26096
6.5538
6.23374
6.23463
6.56116
7.40506
9.11615
12.4492
19.3866
37.023
103.918
489.431
3100.07
3.36471
4.49116
7.1603
12.8034
23.4199
41.0202
62.4649
2.75095
2.34971
2.08353
1.90508
1.78515
1.70525
1.6532
1.62051
1.60128
1.59222
1.58899
1.5891
1.59468
1.60189
1.61154
1.6225
1.63437
1.64684
1.66051
1.67528
1.69125
1.7084
1.72651
1.74578
1.76672
1.78949
1.81431
1.84139
1.87098
86.7316
114.546
145.126
177.026
208.209
235.781
255.822
263.936
256.864
234.419
200.115
159.865
119.776
84.7927
58.6014
40.55
28.343
20.0685
14.5918
11.0848
8.78014
7.4066
6.667
6.32701
6.31531
6.63296
7.46536
9.16218
12.4774
19.3997
37.1873
105.268
499.613
3145.74
3.21674
4.22477
6.61777
11.7434
21.612
38.1923
63.5957
92.4766
2.65388
2.28494
2.04002
1.87587
1.76586
1.69307
1.64589
1.61634
1.59922
1.59141
1.58881
1.58959
1.59537
1.6028
1.61251
1.62299
1.63434
1.64684
1.66052
1.67529
1.69125
1.70802
1.72582
1.74515
1.76616
1.78903
1.81396
1.84116
1.8709
123.502
157.703
194.167
231.223
266.424
296.082
315.217
318.691
303.585
271.215
226.986
178.185
131.498
91.8785
62.7778
43.0052
29.5989
20.7347
15.0522
11.4059
9.00279
7.56734
6.79148
6.42921
6.40321
6.71125
7.53121
9.21333
12.5077
19.4288
37.3413
106.897
511.356
3203.76
3.07614
3.97525
6.10671
10.7346
19.8805
35.5129
59.6482
94.3254
131.428
2.56068
2.22294
1.99841
1.84823
1.74814
1.68213
1.63933
1.61261
1.59746
1.59072
1.58861
1.59016
1.59607
1.60378
1.61297
1.62297
1.63435
1.64684
1.66052
1.6753
1.69084
1.70726
1.72511
1.7445
1.7656
1.78856
1.81359
1.84092
1.87081
169.577
210.322
252.772
295.069
334.168
365.227
381.932
378.577
353.197
309.222
254.121
196.382
143.01
98.7807
66.8195
45.0567
30.6759
21.4717
15.5618
11.7614
9.24927
7.7449
6.9285
6.54124
6.49901
6.79659
7.60324
9.26932
12.5456
19.4564
37.5668
108.715
526.251
3271.49
2.94264
3.74309
5.62753
9.77221
18.198
32.9099
55.9039
89.014
134.152
179.947
2.47162
2.16384
1.95911
1.82286
1.7322
1.6723
1.63346
1.60929
1.59595
1.59015
1.58846
1.5908
1.59687
1.60425
1.61291
1.62298
1.63435
1.64685
1.66053
1.67486
1.69001
1.70648
1.72438
1.74384
1.76501
1.78807
1.81322
1.84068
1.87073
225.388
272.771
321.399
369.146
412.004
443.48
455.726
442.92
404.911
347.803
281.12
214.247
154.212
105.455
70.1963
46.8165
31.8679
22.2876
16.1262
12.1553
9.52229
7.9412
7.07943
6.66409
6.60346
6.88959
7.68184
9.33166
12.5871
19.5041
37.8127
111.21
545.932
3336.82
2.8157
3.52946
5.18159
8.86213
16.5538
30.3456
52.2404
84.0139
127.179
183.604
238.287
2.38704
2.10817
1.92309
1.80006
1.71788
1.66347
1.62821
1.60638
1.59466
1.58967
1.58846
1.59161
1.5972
1.6042
1.6129
1.62298
1.63436
1.64686
1.66007
1.67397
1.68916
1.70567
1.72363
1.74316
1.76442
1.78757
1.81284
1.84043
1.87064
291.135
345.371
400.604
454.186
500.566
531.012
536.129
510.838
457.846
386.332
307.633
231.604
165.025
111.024
73.0921
48.7645
33.1881
23.1916
16.7517
12.592
9.82488
8.15834
7.24575
6.79886
6.71739
6.99086
7.76778
9.40005
12.6375
19.5596
38.1809
114.519
566.769
3399.32
2.69509
3.33604
4.77042
8.00557
14.9483
27.8019
48.6024
79.1201
120.72
174.572
242.773
306.404
2.30777
2.0573
1.89079
1.77957
1.705
1.65556
1.62354
1.60383
1.59353
1.58936
1.58876
1.59198
1.59703
1.60422
1.61291
1.62299
1.63439
1.64639
1.65913
1.67307
1.68828
1.70485
1.72286
1.74247
1.76381
1.78706
1.81244
1.84017
1.87055
366.94
428.565
491.204
551.176
600.627
627.882
622.404
581.251
511.087
424.244
333.365
248.318
174.024
115.795
76.2956
50.9221
34.6514
24.1937
17.4452
13.0763
10.1603
8.3986
7.42913
6.94675
6.84167
7.10115
7.86146
9.47604
12.6953
19.6467
38.7181
118.034
589.966
3457.37
2.58193
3.1587
4.39435
7.20546
13.396
25.2773
44.958
74.253
114.442
166.404
231.117
311.379
384.121
2.23577
2.01178
1.86182
1.76117
1.69345
1.64847
1.61936
1.60156
1.59265
1.58944
1.58879
1.59185
1.59702
1.60422
1.61292
1.62302
1.6339
1.64541
1.65817
1.67214
1.68739
1.704
1.72208
1.74175
1.76318
1.78653
1.81204
1.83991
1.87046
453.077
523.195
594.484
661.617
713.159
733.943
713.495
652.943
563.762
461.056
358.083
262.183
181.716
121.063
79.8402
53.3127
36.2737
25.3051
18.2143
13.6135
10.5323
8.66448
7.63134
7.10901
6.97727
7.22106
7.96376
9.56011
12.7749
19.7872
39.296
122.254
614.328
3510.9
2.4791
2.99612
4.0549
6.4669
11.9128
22.7829
41.2948
69.3577
108.235
158.583
220.897
296.287
388.942
471.38
2.17172
1.97106
1.83586
1.74465
1.68307
1.64209
1.61561
1.59969
1.59233
1.58934
1.58847
1.59188
1.59703
1.60421
1.61301
1.62253
1.6329
1.64443
1.65719
1.67119
1.68647
1.70314
1.72127
1.74102
1.76254
1.78599
1.81163
1.83965
1.87037
550.276
630.588
712.598
787.746
839.264
848.688
808.039
724.662
615.093
496.378
378.521
274.001
190.187
126.879
83.7624
55.9619
38.073
26.5379
19.0675
14.2092
10.9445
8.95864
7.85426
7.28704
7.12514
7.35156
8.07532
9.66987
12.8859
19.9427
40.0738
126.626
641.155
3558.44
2.38781
2.85018
3.75343
5.79609
10.5153
20.337
37.6162
64.4012
102.009
150.955
211.325
283.519
369.23
475.065
568.603
2.11474
1.93466
1.81259
1.72982
1.67373
1.63635
1.61245
1.59866
1.59198
1.58895
1.58847
1.59188
1.59706
1.60429
1.61256
1.62152
1.63189
1.64342
1.65619
1.67022
1.68553
1.70225
1.72045
1.74027
1.76188
1.78544
1.81122
1.8394
1.87029
659.595
753.263
849.116
932.583
979.891
971.13
904.466
795.206
664.431
525.511
395.892
286.971
199.508
133.296
88.1007
58.8972
40.0685
27.9054
20.0136
14.8695
11.4011
9.28387
8.09987
7.48217
7.28652
7.49322
8.21917
9.80901
13.0066
20.1658
40.8434
132.06
669.484
3600.45
2.30701
2.7203
3.49553
5.20029
9.22479
17.9613
33.9362
59.3681
95.7004
143.39
202.201
271.897
353.209
448.977
569.842
677.141
2.06402
1.90212
1.79174
1.71648
1.66529
1.63143
1.61041
1.59787
1.59144
1.58896
1.58848
1.59187
1.59726
1.60382
1.61157
1.62051
1.63086
1.6424
1.65516
1.66923
1.68457
1.70134
1.7196
1.73949
1.76121
1.78489
1.81083
1.83915
1.8702
783.716
896.178
1009.53
1099.66
1135.55
1099.89
1001.12
863.492
705.116
550.213
414.886
301.181
209.749
140.37
92.8956
62.1479
42.2807
29.4217
21.0622
15.601
11.9064
9.64302
8.37016
7.69603
7.46225
7.67546
8.3966
9.95582
13.154
20.3919
41.9157
137.671
700.019
3634.63
2.23565
2.60412
3.2828
4.69207
8.05927
15.6797
30.2774
54.2553
89.261
135.779
193.334
261.16
339.104
428.736
534.675
674.51
799.669
2.01885
1.87306
1.773
1.70443
1.65801
1.62807
1.60902
1.59711
1.59147
1.58898
1.58852
1.59204
1.59695
1.60285
1.61061
1.61951
1.6298
1.64135
1.65411
1.6682
1.68359
1.7004
1.71874
1.73871
1.76054
1.78436
1.81044
1.83892
1.87012
928.309
1067.64
1201.24
1292.89
1306.62
1233.4
1096.26
920.035
739.576
577.135
435.599
316.712
220.977
148.153
98.1886
65.7444
44.7311
31.1017
22.2234
16.4101
12.4645
10.039
8.66726
7.9297
7.68911
7.89454
8.58061
10.1155
13.3104
20.7142
42.9583
144.663
733.355
3661.49
2.17263
2.50049
3.10256
4.26884
7.04833
13.5419
26.6712
49.0715
82.6535
128.027
184.562
251.038
326.56
411.541
508.949
625.963
791.344
942.126
1.97861
1.84703
1.7561
1.69399
1.65282
1.6259
1.60797
1.59716
1.59149
1.58901
1.58889
1.59168
1.59615
1.60194
1.60963
1.61849
1.62872
1.64028
1.65304
1.66716
1.68259
1.69944
1.71786
1.73793
1.7599
1.78385
1.81007
1.83868
1.87005
1102.76
1279.74
1434.32
1518.11
1494.18
1369.47
1175.93
967.98
777.047
606.36
458.105
333.631
233.254
156.698
104.021
69.7175
47.4419
32.9606
23.5074
17.3037
13.0799
10.4746
8.99264
8.23221
7.96573
8.11869
8.7723
10.284
13.5024
21.0384
44.3906
152.12
768.851
3682.08
2.11693
2.40855
2.94681
3.91932
6.19886
11.6315
23.1852
43.8399
75.8516
120.046
175.731
241.3
315.195
396.891
487.871
593.129
723.294
924.512
1114.88
1.94269
1.82365
1.74142
1.68636
1.64957
1.62452
1.60804
1.59719
1.59151
1.58945
1.58889
1.59088
1.59546
1.60107
1.60863
1.61746
1.62762
1.63919
1.65195
1.66608
1.68156
1.69847
1.71699
1.73717
1.75927
1.78335
1.80971
1.83846
1.86997
1323.26
1551.81
1727.67
1786.81
1698.97
1485.7
1243.74
1020.08
817.573
637.932
482.449
351.988
246.632
166.052
110.431
74.097
50.435
35.0137
24.9245
18.2884
13.7567
10.9519
9.41469
8.60057
8.25071
8.34873
8.97093
10.4684
13.7078
21.4803
45.8443
161.024
806.901
3696.01
2.06753
2.32742
2.80995
3.63145
5.49438
9.98875
19.9551
38.6376
68.8448
111.75
166.688
231.725
304.692
384.228
470.71
567.178
681.452
828.622
1084.14
1334.71
1.91053
1.80332
1.73044
1.6817
1.64777
1.62463
1.60807
1.5972
1.59211
1.5896
1.58861
1.59024
1.59478
1.60021
1.60761
1.61642
1.62651
1.63807
1.65084
1.66498
1.68052
1.6975
1.71614
1.73644
1.75866
1.78286
1.80935
1.83824
1.8699
1622.5
1932.05
2121.07
2120.4
1878.16
1585
1317.41
1076.25
861.112
671.832
508.636
371.807
261.142
176.252
117.452
78.9104
53.7308
37.2756
26.4843
19.3703
14.4979
11.5711
9.92838
8.97939
8.54306
8.58496
9.17829
10.6654
13.9557
21.9445
47.7019
170.929
845.273
3706.19
2.02354
2.25597
2.68821
3.39728
4.91556
8.60224
17.0647
33.6599
61.6941
103.064
157.268
222.085
294.75
373.125
456.612
547.009
649.453
775.718
947.82
1293.99
1643.01
1.88259
1.7879
1.72381
1.67939
1.64792
1.62468
1.6081
1.59804
1.59253
1.58955
1.58865
1.5897
1.59407
1.59939
1.60657
1.61537
1.62537
1.63692
1.64971
1.66387
1.67949
1.69657
1.71532
1.73573
1.75807
1.78239
1.80901
1.83803
1.86982
2115.75
2524.55
2724.1
2414.31
2030.18
1692.21
1396.4
1136.22
907.502
707.962
536.616
393.071
276.795
187.319
125.11
84.1802
57.3473
39.7591
28.1956
20.5542
15.4585
12.3236
10.4557
9.36677
8.84199
8.82785
9.39506
10.8815
14.2285
22.5304
49.7492
181.98
886.333
3711.82
1.98536
2.19303
2.57951
3.20375
4.44237
7.44288
14.5194
29.0548
54.6379
93.9927
147.302
212.129
285.065
363.178
445.005
531.263
625.717
736.359
880.974
1094.94
1607.77
2202.63
1.86102
1.77876
1.72084
1.67962
1.64799
1.62469
1.60926
1.59892
1.59289
1.5899
1.58884
1.58926
1.59332
1.59859
1.60552
1.6143
1.62424
1.63574
1.64857
1.66276
1.6785
1.69566
1.71453
1.73504
1.7575
1.78193
1.80868
1.83783
1.86976
2983.96
3703.9
3215.2
2653.21
2189.74
1805.23
1479.76
1199.49
956.441
746.135
566.273
415.718
293.567
199.255
133.418
89.9216
61.2977
42.4744
30.0643
22.0865
16.6231
13.0942
10.9932
9.76093
9.14676
9.07838
9.62238
11.1173
14.5477
23.189
52.1437
194.448
926.842
3716.94
1.95557
2.13893
2.4827
3.03944
4.05825
6.48501
12.3238
24.8611
47.8875
84.7731
136.695
201.58
275.304
354.007
435.352
519.165
608.051
708.439
832.893
1009.57
1303.35
2204.88
3394.73
1.84834
1.77503
1.72116
1.6797
1.64798
1.6262
1.61077
1.60003
1.59383
1.59043
1.58908
1.58898
1.59256
1.59782
1.60448
1.6132
1.62309
1.63455
1.64744
1.66169
1.67753
1.69479
1.71375
1.73437
1.75694
1.78149
1.80836
1.83763
1.86972
5137.9
4439.05
3559.83
2883.66
2351.21
1921.64
1566.23
1265.35
1007.48