# Region type : patch outlet
# Faces  :    121
# Area   :    4.800000e-04
# Time        	average(T)
0             	3.000000e+02
5.99988e-07   	3.000016e+02
1.31994e-06   	3.000036e+02
2.18383e-06   	3.000059e+02
3.22041e-06   	3.000086e+02
4.46426e-06   	3.000118e+02
5.95679e-06   	3.000155e+02
7.74784e-06   	3.000199e+02
9.89671e-06   	3.000251e+02
1.24748e-05   	3.000312e+02
1.55679e-05   	3.000384e+02
1.92796e-05   	3.000468e+02
2.37333e-05   	3.000567e+02
2.90767e-05   	3.000684e+02
3.54889e-05   	3.000822e+02
4.31835e-05   	3.000985e+02
5.24113e-05   	3.001178e+02
6.34765e-05   	3.001409e+02
7.64484e-05   	3.001679e+02
9.13487e-05   	3.001990e+02
0.000108172   	3.002345e+02
0.000126906   	3.002744e+02
0.00014604    	3.003159e+02
0.000165063   	3.003577e+02
0.00018416    	3.004004e+02
0.000203369   	3.004441e+02
0.000222654   	3.004886e+02
0.000241977   	3.005338e+02
0.000261299   	3.005794e+02
0.000280661   	3.006256e+02
0.000300022   	3.006723e+02
0.000319422   	3.007194e+02
0.000338822   	3.007668e+02
0.000358222   	3.008147e+02
0.000377622   	3.008628e+02
0.000397022   	3.009113e+02
0.000416461   	3.009602e+02
0.0004359     	3.010094e+02
0.000455339   	3.010589e+02
0.000474779   	3.011087e+02
0.000494218   	3.011587e+02
0.000513657   	3.012090e+02
0.000533096   	3.012595e+02
0.000552535   	3.013103e+02
0.000571975   	3.013614e+02
0.000591414   	3.014127e+02
0.000610853   	3.014644e+02
0.000630292   	3.015163e+02
0.000649732   	3.015686e+02
0.000669171   	3.016211e+02
0.00068861    	3.016740e+02
0.000708049   	3.017273e+02
0.000727489   	3.017809e+02
0.000746969   	3.018351e+02
0.000766408   	3.018896e+02
0.000785847   	3.019446e+02
0.000805164   	3.020000e+02
0.000822097   	3.020492e+02
0.000837394   	3.020942e+02
0.00085149    	3.021363e+02
0.000864807   	3.021767e+02
0.000877583   	3.022162e+02
0.000889995   	3.022553e+02
0.000902157   	3.022946e+02
0.000914144   	3.023343e+02
0.000926021   	3.023748e+02
0.000937836   	3.024165e+02
0.00094962    	3.024596e+02
0.000961405   	3.025045e+02
0.00097322    	3.025517e+02
0.000985082   	3.026014e+02
0.000997022   	3.026542e+02
0.00100904    	3.027107e+02
0.00102118    	3.027714e+02
0.00103342    	3.028368e+02
0.00104581    	3.029079e+02
0.00105835    	3.029853e+02
0.00107103    	3.030697e+02
0.00108388    	3.031622e+02
0.0010969     	3.032636e+02
0.00111009    	3.033748e+02
0.00112346    	3.034968e+02
0.00113701    	3.036304e+02
0.00115073    	3.037762e+02
0.00116462    	3.039349e+02
0.00117867    	3.041066e+02
0.00119287    	3.042913e+02
0.00120721    	3.044892e+02
0.0012217     	3.046992e+02
0.00123631    	3.049201e+02
0.00125101    	3.051499e+02
0.00126581    	3.053871e+02
0.00128072    	3.056296e+02
0.00129568    	3.058741e+02
0.00131068    	3.061181e+02
0.00132574    	3.063589e+02
0.00134083    	3.065935e+02
0.00135591    	3.068190e+02
0.00137103    	3.070336e+02
0.00138611    	3.072349e+02
0.0014012     	3.074222e+02
0.00141626    	3.075943e+02
0.00143129    	3.077507e+02
0.0014463     	3.078913e+02
0.00146128    	3.080163e+02
0.00147623    	3.081259e+02
0.00149113    	3.082209e+02
0.00150601    	3.083027e+02
0.00152083    	3.083730e+02
0.00153563    	3.084336e+02
0.00155037    	3.084862e+02
0.0015651     	3.085328e+02
0.00157979    	3.085755e+02
0.00159446    	3.086164e+02
0.00160908    	3.086584e+02
0.00162367    	3.087048e+02
0.00163824    	3.087588e+02
0.00165281    	3.088243e+02
0.00166735    	3.089061e+02
0.00168186    	3.090100e+02
0.00169638    	3.091429e+02
0.00171087    	3.093129e+02
0.00172536    	3.095302e+02
0.00173986    	3.098067e+02
0.00175432    	3.101553e+02
0.00176879    	3.105920e+02
0.00178325    	3.111337e+02
0.00179772    	3.117976e+02
0.00181216    	3.125983e+02
0.0018266     	3.135510e+02
0.00184104    	3.146640e+02
0.00185546    	3.159357e+02
0.00186987    	3.173591e+02
0.00188426    	3.189088e+02
0.00189865    	3.205571e+02
0.00191302    	3.222540e+02
0.00192735    	3.239593e+02
0.00194169    	3.256331e+02
0.00195601    	3.272336e+02
0.00197029    	3.287235e+02
0.00198456    	3.300924e+02
0.00199879    	3.313097e+02
0.00201301    	3.323713e+02
0.00202719    	3.332844e+02
0.00204135    	3.340614e+02
0.00205549    	3.347192e+02
0.0020696     	3.352759e+02
0.00208369    	3.357481e+02
0.00209775    	3.361509e+02
0.00211176    	3.364972e+02
0.00212574    	3.367995e+02
0.00213971    	3.370675e+02
0.00215364    	3.373091e+02
0.00216755    	3.375305e+02
0.00218142    	3.377356e+02
0.00219526    	3.379282e+02
0.00220907    	3.381102e+02
0.00222286    	3.382831e+02
0.00223662    	3.384472e+02
0.00225034    	3.386026e+02
0.00226403    	3.387483e+02
0.0022777     	3.388849e+02
0.00229132    	3.390130e+02
0.00230491    	3.391337e+02
0.00231849    	3.392480e+02
0.00233201    	3.393565e+02
0.00234551    	3.394602e+02
0.00235896    	3.395592e+02
0.00237237    	3.396543e+02
0.00238575    	3.397462e+02
0.00239908    	3.398354e+02
0.00241237    	3.399225e+02
0.00242561    	3.400079e+02
0.00243881    	3.400923e+02
0.00245196    	3.401760e+02
0.00246504    	3.402591e+02
0.00247808    	3.403421e+02
0.00249105    	3.404253e+02
0.00250397    	3.405094e+02
0.00251683    	3.405945e+02
0.00252962    	3.406807e+02
0.00254237    	3.407687e+02
0.00255505    	3.408583e+02
0.00256767    	3.409496e+02
0.00258022    	3.410425e+02
0.00259272    	3.411368e+02
0.00260517    	3.412329e+02
0.00261755    	3.413304e+02
0.00262988    	3.414292e+02
0.00264216    	3.415294e+02
0.00265438    	3.416308e+02
0.00266656    	3.417329e+02
0.00267871    	3.418361e+02
0.00269081    	3.419401e+02
0.00270287    	3.420449e+02
0.00271489    	3.421503e+02
0.00272689    	3.422564e+02
0.00273885    	3.423629e+02
0.0027508     	3.424698e+02
0.00276272    	3.425772e+02
0.00277462    	3.426847e+02
0.00278653    	3.427926e+02
0.00279841    	3.429006e+02
0.00281029    	3.430087e+02
0.00282216    	3.431168e+02
0.00283402    	3.432250e+02
0.00284589    	3.433333e+02
0.00285775    	3.434415e+02
0.00286962    	3.435498e+02
0.0028815     	3.436584e+02
0.00289338    	3.437669e+02
0.00290529    	3.438757e+02
0.00291719    	3.439847e+02
0.00292912    	3.440940e+02
0.00294104    	3.442036e+02
0.00295298    	3.443137e+02
0.00296495    	3.444243e+02
0.00297693    	3.445355e+02
0.00298894    	3.446473e+02
0.00300094    	3.447597e+02
0.00301297    	3.448728e+02
0.00302502    	3.449873e+02
0.00303708    	3.451028e+02
0.00304917    	3.452193e+02
0.00306126    	3.453369e+02
0.00307337    	3.454556e+02
0.0030855     	3.455758e+02
0.00309765    	3.456975e+02
0.0031098     	3.458206e+02
0.00312198    	3.459454e+02
0.00313415    	3.460719e+02
0.00314635    	3.462004e+02
0.00315854    	3.463308e+02
0.00317076    	3.464635e+02
0.00318297    	3.465985e+02
0.00319519    	3.467358e+02
0.00320741    	3.468756e+02
0.00321963    	3.470182e+02
0.00323184    	3.471636e+02
0.00324406    	3.473121e+02
0.00325628    	3.474637e+02
0.00326849    	3.476187e+02
0.00328071    	3.477772e+02
0.0032929     	3.479390e+02
0.0033051     	3.481045e+02
0.00331729    	3.482738e+02
0.00332947    	3.484465e+02
0.00334164    	3.486231e+02
0.00335379    	3.488031e+02
0.00336594    	3.489869e+02
0.00337807    	3.491739e+02
0.00339017    	3.493639e+02
0.00340228    	3.495572e+02
0.00341436    	3.497532e+02
0.00342642    	3.499514e+02
0.00343849    	3.501522e+02
0.00345053    	3.503546e+02
0.00346257    	3.505588e+02
0.00347458    	3.507641e+02
0.00348658    	3.509703e+02
0.00349857    	3.511777e+02
0.00351055    	3.513856e+02
0.0035225     	3.515938e+02
0.00353445    	3.518025e+02
0.00354638    	3.520113e+02
0.00355831    	3.522206e+02
0.00357021    	3.524299e+02
0.0035821     	3.526393e+02
0.00359398    	3.528494e+02
0.00360585    	3.530601e+02
0.00361771    	3.532722e+02
0.00362955    	3.534857e+02
0.00364139    	3.537019e+02
0.00365323    	3.539213e+02
0.00366505    	3.541439e+02
0.00367687    	3.543708e+02
0.00368867    	3.546026e+02
0.00370046    	3.548405e+02
0.00371226    	3.550856e+02
0.00372404    	3.553387e+02
0.00373581    	3.556008e+02
0.00374759    	3.558737e+02
0.00375934    	3.561581e+02
0.00377109    	3.564559e+02
0.00378284    	3.567685e+02
0.00379457    	3.570970e+02
0.0038063     	3.574433e+02
0.00381803    	3.578086e+02
0.00382977    	3.581943e+02
0.00384147    	3.586004e+02
0.00385318    	3.590287e+02
0.00386489    	3.594806e+02
0.0038766     	3.599579e+02
0.00388828    	3.604629e+02
0.00389997    	3.609988e+02
0.00391166    	3.615720e+02
0.00392334    	3.621932e+02
0.00393501    	3.628793e+02
0.00394667    	3.636383e+02
0.00395833    	3.644445e+02
0.00397       	3.652774e+02
0.00398166    	3.661209e+02
0.0039933     	3.669605e+02
0.00400494    	3.677875e+02
0.00401658    	3.685933e+02
0.00402822    	3.693702e+02
0.00403984    	3.701089e+02
0.00405146    	3.708075e+02
0.00406308    	3.714616e+02
0.0040747     	3.720682e+02
0.00408629    	3.726255e+02
0.00409789    	3.731349e+02
0.00410948    	3.735953e+02
0.00412108    	3.740089e+02
0.00413265    	3.743770e+02
0.00414422    	3.747025e+02
0.0041558     	3.749871e+02
0.00416737    	3.752324e+02
0.00417894    	3.754394e+02
0.00419049    	3.756089e+02
0.00420204    	3.757427e+02
0.00421359    	3.758424e+02
0.00422514    	3.759096e+02
0.00423667    	3.759464e+02
0.00424819    	3.759542e+02
0.00425972    	3.759333e+02
0.00427125    	3.758849e+02
0.00428277    	3.758103e+02
0.00429428    	3.757108e+02
0.00430578    	3.755868e+02
0.00431728    	3.754392e+02
0.00432879    	3.752682e+02
0.00434029    	3.750733e+02
0.00435177    	3.748551e+02
0.00436325    	3.746128e+02
0.00437473    	3.743465e+02
0.00438621    	3.740564e+02
0.00439767    	3.737430e+02
0.00440912    	3.734041e+02
0.00442058    	3.730406e+02
0.00443204    	3.726542e+02
0.00444347    	3.722478e+02
0.0044549     	3.718227e+02
0.00446634    	3.713811e+02
0.00447775    	3.709241e+02
0.00448916    	3.704514e+02
0.00450057    	3.699676e+02
0.00451198    	3.694773e+02
0.00452336    	3.689855e+02
0.00453475    	3.684943e+02
0.00454613    	3.680063e+02
0.0045575     	3.675238e+02
0.00456886    	3.670475e+02
0.00458022    	3.665802e+02
0.00459156    	3.661242e+02
0.0046029     	3.656810e+02
0.00461424    	3.652521e+02
0.00462557    	3.648387e+02
0.00463689    	3.644425e+02
0.0046482     	3.640631e+02
0.00465952    	3.637007e+02
0.00467083    	3.633556e+02
0.00468212    	3.630285e+02
0.00469341    	3.627188e+02
0.0047047     	3.624264e+02
0.004716      	3.621510e+02
0.00472729    	3.618921e+02
0.00473858    	3.616493e+02
0.00474984    	3.614223e+02
0.00476111    	3.612104e+02
0.00477238    	3.610131e+02
0.00478364    	3.608298e+02
0.00479491    	3.606606e+02
0.00480617    	3.605050e+02
0.00481744    	3.603627e+02
0.00482871    	3.602332e+02
0.00483997    	3.601159e+02
0.00485124    	3.600105e+02
0.00486251    	3.599163e+02
0.00487377    	3.598329e+02
0.00488504    	3.597599e+02
0.00489631    	3.596968e+02
0.00490757    	3.596434e+02
0.00491884    	3.595991e+02
0.00493011    	3.595637e+02
0.00494137    	3.595368e+02
0.00495264    	3.595183e+02
0.0049639     	3.595079e+02
0.00497517    	3.595052e+02
0.00498644    	3.595098e+02
0.00499773    	3.595215e+02
0.00500902    	3.595400e+02
0.00502031    	3.595651e+02
0.00503161    	3.595964e+02
0.0050429     	3.596336e+02
0.00505419    	3.596764e+02
0.00506548    	3.597245e+02
0.00507677    	3.597777e+02
0.00508806    	3.598348e+02
0.00509936    	3.598974e+02
0.00511065    	3.599634e+02
0.00512194    	3.600336e+02
0.00513323    	3.601078e+02
0.00514452    	3.601857e+02
0.00515581    	3.602672e+02
0.00516711    	3.603520e+02
0.0051784     	3.604399e+02
0.00518969    	3.605306e+02
0.00520098    	3.606239e+02
0.00521227    	3.607194e+02
0.00522357    	3.608172e+02
0.00523486    	3.609173e+02
0.00524615    	3.610193e+02
0.00525744    	3.611229e+02
0.00526873    	3.612281e+02
0.00528002    	3.613347e+02
0.00529132    	3.614426e+02
0.00530261    	3.615513e+02
0.0053139     	3.616601e+02
0.00532519    	3.617686e+02
0.00533648    	3.618764e+02
0.00534778    	3.619833e+02
0.00535907    	3.620887e+02
0.00537036    	3.621925e+02
0.00538165    	3.622942e+02
0.00539294    	3.623936e+02
0.00540423    	3.624904e+02
0.00541553    	3.625844e+02
0.00542682    	3.626756e+02
0.00543811    	3.627637e+02
0.0054494     	3.628482e+02
0.00546069    	3.629289e+02
0.00547199    	3.630054e+02
0.00548328    	3.630775e+02
0.00549457    	3.631452e+02
0.00550586    	3.632080e+02
0.00551715    	3.632664e+02
0.00552844    	3.633203e+02
0.00553974    	3.633695e+02
0.00555103    	3.634137e+02
0.00556232    	3.634533e+02
0.00557361    	3.634879e+02
0.00558493    	3.635172e+02
0.00559625    	3.635412e+02
0.00560757    	3.635594e+02
0.00561889    	3.635715e+02
0.00563022    	3.635772e+02
0.00564154    	3.635762e+02
0.00565286    	3.635682e+02
0.00566418    	3.635533e+02
0.00567553    	3.635313e+02
0.00568688    	3.635021e+02
0.00569823    	3.634655e+02
0.00570958    	3.634211e+02
0.00572093    	3.633690e+02
0.00573228    	3.633094e+02
0.00574366    	3.632416e+02
0.00575504    	3.631657e+02
0.00576642    	3.630812e+02
0.0057778     	3.629872e+02
0.00578918    	3.628836e+02
0.00580059    	3.627709e+02
0.00581201    	3.626503e+02
0.00582342    	3.625222e+02
0.00583483    	3.623874e+02
0.00584624    	3.622464e+02
0.00585768    	3.620990e+02
0.00586913    	3.619457e+02
0.00588057    	3.617874e+02
0.00589201    	3.616244e+02
0.00590345    	3.614567e+02
0.0059149     	3.612851e+02
0.00592637    	3.611092e+02
0.00593785    	3.609297e+02
0.00594932    	3.607468e+02
0.0059608     	3.605608e+02
0.00597227    	3.603719e+02
0.00598375    	3.601804e+02
0.00599525    	3.599880e+02
0.00600676    	3.597934e+02
0.00601827    	3.595963e+02
0.00602978    	3.593965e+02
0.00604129    	3.591941e+02
0.00605279    	3.589891e+02
0.0060643     	3.587814e+02
0.00607581    	3.585712e+02
0.00608732    	3.583581e+02
0.00609883    	3.581418e+02
0.00611033    	3.579221e+02
0.00612184    	3.576988e+02
0.00613335    	3.574717e+02
0.00614486    	3.572408e+02
0.00615636    	3.570055e+02
0.00616787    	3.567657e+02
0.00617938    	3.565213e+02
0.00619089    	3.562718e+02
0.0062024     	3.560177e+02
0.0062139     	3.557580e+02
0.00622541    	3.554934e+02
0.00623692    	3.552240e+02
0.00624843    	3.549492e+02
0.00625994    	3.546700e+02
0.00627144    	3.543875e+02
0.00628295    	3.541001e+02
0.00629446    	3.538093e+02
0.00630597    	3.535190e+02
0.00631748    	3.532239e+02
0.00632898    	3.529286e+02
0.00634049    	3.526327e+02
0.00635196    	3.523383e+02
0.00636343    	3.520431e+02
0.00637491    	3.517475e+02
0.00638638    	3.514554e+02
0.00639785    	3.511634e+02
0.00640932    	3.508754e+02
0.00642079    	3.505899e+02
0.00643223    	3.503119e+02
0.00644366    	3.500394e+02
0.0064551     	3.497744e+02
0.00646653    	3.495187e+02
0.00647797    	3.492735e+02
0.0064894     	3.490399e+02
0.0065008     	3.488188e+02
0.0065122     	3.486103e+02
0.0065236     	3.484146e+02
0.006535      	3.482319e+02
0.0065464     	3.480621e+02
0.00655779    	3.479048e+02
0.00656915    	3.477604e+02
0.00658051    	3.476280e+02
0.00659187    	3.475070e+02
0.00660323    	3.473970e+02
0.0066146     	3.472975e+02
0.00662596    	3.472078e+02
0.00663728    	3.471278e+02
0.0066486     	3.470567e+02
0.00665992    	3.469940e+02
0.00667124    	3.469391e+02
0.00668257    	3.468914e+02
0.00669389    	3.468504e+02
0.00670517    	3.468156e+02
0.00671646    	3.467863e+02
0.00672774    	3.467619e+02
0.00673902    	3.467419e+02
0.00675031    	3.467260e+02
0.00676159    	3.467136e+02
0.00677287    	3.467044e+02
0.00678416    	3.466980e+02
0.00679544    	3.466939e+02
0.00680669    	3.466919e+02
0.00681793    	3.466917e+02
0.00682917    	3.466930e+02
0.00684042    	3.466956e+02
0.00685166    	3.466993e+02
0.00686291    	3.467038e+02
0.00687415    	3.467089e+02
0.00688539    	3.467144e+02
0.00689664    	3.467202e+02
0.00690788    	3.467263e+02
0.00691913    	3.467324e+02
0.00693037    	3.467384e+02
0.00694162    	3.467443e+02
0.00695286    	3.467500e+02
0.0069641     	3.467553e+02
0.00697535    	3.467602e+02
0.00698659    	3.467645e+02
0.00699784    	3.467682e+02
0.00700908    	3.467713e+02
0.00702032    	3.467736e+02
0.00703157    	3.467751e+02
0.00704281    	3.467758e+02
0.00705406    	3.467729e+02
0.0070653     	3.467715e+02
0.00707654    	3.467668e+02
0.00708779    	3.467610e+02
0.00709903    	3.467544e+02
0.00711028    	3.467467e+02
0.00712152    	3.467381e+02
0.00713276    	3.467284e+02
0.00714401    	3.467177e+02
0.00715525    	3.467060e+02
0.0071665     	3.466932e+02
0.00717774    	3.466794e+02
0.00718898    	3.466645e+02
0.00720023    	3.466485e+02
0.00721147    	3.466314e+02
0.00722272    	3.466132e+02
0.00723396    	3.465939e+02
0.0072452     	3.465735e+02
0.00725649    	3.465520e+02
0.00726779    	3.465293e+02
0.00727908    	3.465056e+02
0.00729037    	3.464810e+02
0.00730166    	3.464552e+02
0.00731295    	3.464285e+02
0.00732424    	3.464008e+02
0.00733553    	3.463721e+02
0.00734682    	3.463425e+02
0.00735811    	3.463120e+02
0.0073694     	3.462806e+02
0.00738069    	3.462482e+02
0.00739198    	3.462150e+02
0.00740327    	3.461810e+02
0.00741456    	3.461461e+02
0.00742585    	3.461106e+02
0.00743714    	3.460742e+02
0.00744843    	3.460372e+02
0.00745972    	3.459994e+02
0.00747101    	3.459610e+02
0.0074823     	3.459220e+02
0.00749359    	3.458823e+02
0.00750488    	3.458421e+02
0.00751617    	3.458006e+02
0.00752746    	3.457591e+02
0.00753875    	3.457171e+02
0.00755004    	3.456745e+02
0.00756133    	3.456313e+02
0.00757267    	3.455865e+02
0.00758401    	3.455421e+02
0.00759536    	3.454973e+02
0.0076067     	3.454520e+02
0.00761804    	3.454062e+02
0.00762938    	3.453599e+02
0.00764073    	3.453131e+02
0.00765207    	3.452658e+02
0.00766341    	3.452180e+02
0.00767476    	3.451696e+02
0.0076861     	3.451206e+02
0.00769744    	3.450712e+02
0.00770878    	3.450213e+02
0.00772013    	3.449711e+02
0.00773147    	3.449205e+02
0.00774281    	3.448696e+02
0.00775415    	3.448186e+02
0.0077655     	3.447676e+02
0.00777684    	3.447166e+02
0.00778818    	3.446656e+02
0.00779952    	3.446149e+02
0.00781087    	3.445645e+02
0.00782221    	3.445144e+02
0.00783355    	3.444646e+02
0.0078449     	3.444153e+02
0.00785624    	3.443665e+02
0.00786758    	3.443181e+02
0.00787892    	3.442702e+02
0.00789027    	3.442227e+02
0.00790161    	3.441758e+02
0.00791301    	3.441292e+02
0.00792442    	3.440832e+02
0.00793582    	3.440378e+02
0.00794723    	3.439929e+02
0.00795863    	3.439487e+02
0.00797003    	3.439051e+02
0.00798144    	3.438655e+02
0.00799284    	3.438231e+02
0.00800425    	3.437846e+02
0.00801565    	3.437466e+02
0.00802706    	3.437091e+02
0.00803846    	3.436720e+02
0.00804986    	3.436354e+02
0.00806127    	3.435992e+02
0.00807267    	3.435635e+02
0.00808408    	3.435283e+02
0.00809548    	3.434935e+02
0.00810689    	3.434592e+02
0.00811829    	3.434253e+02
0.00812969    	3.433919e+02
0.0081411     	3.433591e+02
0.0081525     	3.433267e+02
0.00816391    	3.432947e+02
0.00817531    	3.432632e+02
0.00818672    	3.432319e+02
0.00819812    	3.432011e+02
0.00820952    	3.431707e+02
0.00822093    	3.431407e+02
0.00823233    	3.431111e+02
0.00824374    	3.430821e+02
0.00825514    	3.430536e+02
0.00826655    	3.430256e+02
0.00827795    	3.429982e+02
0.00828935    	3.429714e+02
0.00830068    	3.429454e+02
0.00831201    	3.429201e+02
0.00832334    	3.428955e+02
0.00833467    	3.428716e+02
0.008346      	3.428484e+02
0.00835733    	3.428261e+02
0.00836866    	3.428025e+02
0.00837998    	3.427799e+02
0.00839131    	3.427582e+02
0.00840264    	3.427375e+02
0.00841397    	3.427177e+02
0.0084253     	3.426989e+02
0.00843663    	3.426811e+02
0.00844796    	3.426644e+02
0.00845929    	3.426487e+02
0.00847062    	3.426341e+02
0.00848194    	3.426204e+02
0.00849327    	3.426078e+02
0.0085046     	3.425962e+02
0.00851593    	3.425854e+02
0.00852726    	3.425757e+02
0.00853859    	3.425669e+02
0.00854992    	3.425589e+02
0.00856125    	3.425518e+02
0.00857257    	3.425456e+02
0.0085839     	3.425401e+02
0.00859523    	3.425354e+02
0.00860656    	3.425314e+02
0.00861789    	3.425281e+02
0.00862922    	3.425254e+02
0.00864055    	3.425233e+02
0.00865188    	3.425218e+02
0.0086632     	3.425209e+02
0.00867453    	3.425206e+02
0.00868586    	3.425208e+02
0.00869719    	3.425216e+02
0.00870852    	3.425226e+02
0.00871985    	3.425241e+02
0.00873118    	3.425259e+02
0.00874251    	3.425282e+02
0.00875383    	3.425309e+02
0.00876516    	3.425339e+02
0.00877649    	3.425373e+02
0.00878782    	3.425411e+02
0.00879915    	3.425452e+02
0.00881048    	3.425496e+02
0.00882181    	3.425543e+02
0.00883314    	3.425593e+02
0.00884446    	3.425646e+02
0.00885579    	3.425701e+02
0.00886712    	3.425760e+02
0.00887845    	3.425821e+02
0.00888978    	3.425884e+02
0.00890111    	3.425950e+02
0.00891244    	3.426018e+02
0.00892377    	3.426087e+02
0.0089351     	3.426158e+02
0.00894642    	3.426231e+02
0.00895775    	3.426305e+02
0.00896908    	3.426381e+02
0.00898041    	3.426458e+02
0.00899174    	3.426535e+02
0.00900307    	3.426614e+02
0.0090144     	3.426693e+02
0.00902573    	3.426772e+02
0.00903705    	3.426852e+02
0.00904838    	3.426931e+02
0.00905971    	3.427009e+02
0.00907104    	3.427087e+02
0.00908237    	3.427164e+02
0.0090937     	3.427240e+02
0.00910503    	3.427315e+02
0.00911636    	3.427388e+02
0.00912768    	3.427460e+02
0.00913901    	3.427531e+02
0.00915034    	3.427599e+02
0.00916167    	3.427665e+02
0.009173      	3.427729e+02
0.00918433    	3.427790e+02
0.00919566    	3.427849e+02
0.00920699    	3.427905e+02
0.00921831    	3.427958e+02
0.00922964    	3.428009e+02
0.00924097    	3.428057e+02
0.0092523     	3.428102e+02
0.00926363    	3.428144e+02
0.00927496    	3.428183e+02
0.00928629    	3.428202e+02
0.00929762    	3.428234e+02
0.00930894    	3.428246e+02
0.00932027    	3.428255e+02
0.0093316     	3.428261e+02
0.00934293    	3.428265e+02
0.00935426    	3.428266e+02
0.00936559    	3.428265e+02
0.00937692    	3.428261e+02
0.00938825    	3.428254e+02
0.00939957    	3.428245e+02
0.0094109     	3.428234e+02
0.00942223    	3.428219e+02
0.00943356    	3.428202e+02
0.00944489    	3.428182e+02
0.00945622    	3.428159e+02
0.00946755    	3.428133e+02
0.00947888    	3.428105e+02
0.00949021    	3.428073e+02
0.00950153    	3.428038e+02
0.00951286    	3.428000e+02
0.00952419    	3.427958e+02
0.00953552    	3.427914e+02
0.00954685    	3.427866e+02
0.00955818    	3.427815e+02
0.00956951    	3.427761e+02
0.00958084    	3.427703e+02
0.00959216    	3.427642e+02
0.00960349    	3.427577e+02
0.00961482    	3.427509e+02
0.00962615    	3.427438e+02
0.00963748    	3.427363e+02
0.00964881    	3.427285e+02
0.00966014    	3.427203e+02
0.00967147    	3.427117e+02
0.00968279    	3.427028e+02
0.00969412    	3.426934e+02
0.00970545    	3.426836e+02
0.00971678    	3.426734e+02
0.00972811    	3.426628e+02
0.00973944    	3.426518e+02
0.00975077    	3.426403e+02
0.0097621     	3.426285e+02
0.00977342    	3.426162e+02
0.00978475    	3.426035e+02
0.00979608    	3.425904e+02
0.00980741    	3.425769e+02
0.00981874    	3.425630e+02
0.00983007    	3.425486e+02
0.0098414     	3.425339e+02
0.00985273    	3.425188e+02
0.00986405    	3.425034e+02
0.00987538    	3.424875e+02
0.00988671    	3.424713e+02
0.00989804    	3.424548e+02
0.00990937    	3.424379e+02
0.0099207     	3.424207e+02
0.00993203    	3.424031e+02
0.00994336    	3.423853e+02
0.00995468    	3.423671e+02
0.00996601    	3.423486e+02
0.00997734    	3.423299e+02
0.00998867    	3.423108e+02
0.01          	3.422915e+02
0.0100115     	3.422718e+02
0.010023      	3.422518e+02
0.0100345     	3.422316e+02
0.010046      	3.422111e+02
0.0100576     	3.421904e+02
0.0100691     	3.421695e+02
0.0100806     	3.421484e+02
0.0100921     	3.421272e+02
0.0101036     	3.421058e+02
0.0101152     	3.420843e+02
0.0101267     	3.420627e+02
0.0101382     	3.420410e+02
0.0101497     	3.420192e+02
0.0101612     	3.419973e+02
0.0101728     	3.419755e+02
0.0101843     	3.419536e+02
0.0101958     	3.419317e+02
0.0102073     	3.419098e+02
0.0102188     	3.418879e+02
0.0102304     	3.418661e+02
0.0102419     	3.418444e+02
0.0102534     	3.418227e+02
0.010265      	3.418010e+02
0.0102765     	3.417795e+02
0.010288      	3.417581e+02
0.0102996     	3.417367e+02
0.0103111     	3.417155e+02
0.0103226     	3.416945e+02
0.0103342     	3.416736e+02
0.0103457     	3.416529e+02
0.0103572     	3.416323e+02
0.0103688     	3.416119e+02
0.0103803     	3.415917e+02
0.0103918     	3.415716e+02
0.0104034     	3.415518e+02
0.0104149     	3.415321e+02
0.0104265     	3.415126e+02
0.010438      	3.414933e+02
0.0104496     	3.414742e+02
0.0104611     	3.414553e+02
0.0104727     	3.414366e+02
0.0104842     	3.414180e+02
0.0104958     	3.413997e+02
0.0105073     	3.413815e+02
0.0105189     	3.413636e+02
0.0105304     	3.413458e+02
0.010542      	3.413282e+02
0.0105535     	3.413108e+02
0.0105651     	3.412936e+02
0.0105766     	3.412765e+02
0.0105882     	3.412597e+02
0.0105998     	3.412430e+02
0.0106113     	3.412266e+02
0.0106229     	3.412103e+02
0.0106345     	3.411942e+02
0.010646      	3.411784e+02
0.0106576     	3.411627e+02
0.0106691     	3.411473e+02
0.0106807     	3.411320e+02
0.0106923     	3.411170e+02
0.0107038     	3.411022e+02
0.0107154     	3.410907e+02
0.010727      	3.410795e+02
0.0107386     	3.410684e+02
0.0107501     	3.410575e+02
0.0107617     	3.410468e+02
0.0107733     	3.410362e+02
0.0107849     	3.410257e+02
0.0107964     	3.410154e+02
0.010808      	3.410052e+02
0.0108196     	3.409952e+02
0.0108312     	3.409854e+02
0.0108428     	3.409757e+02
0.0108543     	3.409661e+02
0.0108659     	3.409567e+02
0.0108775     	3.409475e+02
0.0108891     	3.409384e+02
0.0109006     	3.409295e+02
0.0109122     	3.409207e+02
0.0109238     	3.409121e+02
0.0109354     	3.409037e+02
0.0109469     	3.408955e+02
0.0109585     	3.408874e+02
0.0109701     	3.408795e+02
0.0109817     	3.408717e+02
0.0109933     	3.408642e+02
0.0110049     	3.408568e+02
0.0110165     	3.408496e+02
0.0110281     	3.408426e+02
0.0110396     	3.408358e+02
0.0110512     	3.408292e+02
0.0110628     	3.408228e+02
0.0110744     	3.408166e+02
0.011086      	3.408105e+02
0.0110976     	3.408047e+02
0.0111092     	3.407990e+02
0.0111208     	3.407935e+02
0.0111324     	3.407882e+02
0.011144      	3.407831e+02
0.0111556     	3.407782e+02
0.0111672     	3.407734e+02
0.0111787     	3.407689e+02
0.0111903     	3.407645e+02
0.0112019     	3.407602e+02
0.0112135     	3.407562e+02
0.0112251     	3.407523e+02
0.0112367     	3.407486e+02
0.0112483     	3.407451e+02
0.0112599     	3.407417e+02
0.0112715     	3.407385e+02
0.0112831     	3.407354e+02
0.0112947     	3.407326e+02
0.0113063     	3.407299e+02
0.0113178     	3.407273e+02
0.0113294     	3.407249e+02
0.011341      	3.407227e+02
0.0113526     	3.407206e+02
0.0113642     	3.407187e+02
0.0113758     	3.407169e+02
0.0113874     	3.407153e+02
0.011399      	3.407138e+02
0.0114106     	3.407125e+02
0.0114223     	3.407113e+02
0.0114339     	3.407103e+02
0.0114455     	3.407094e+02
0.0114571     	3.407087e+02
0.0114687     	3.407081e+02
0.0114803     	3.407077e+02
0.0114919     	3.407074e+02
0.0115035     	3.407073e+02
0.0115151     	3.407073e+02
0.0115267     	3.407074e+02
0.0115383     	3.407077e+02
0.0115499     	3.407081e+02
0.0115615     	3.407086e+02
0.0115731     	3.407093e+02
0.0115848     	3.407102e+02
0.0115964     	3.407111e+02
0.011608      	3.407122e+02
0.0116196     	3.407135e+02
0.0116312     	3.407149e+02
0.0116428     	3.407164e+02
0.0116544     	3.407180e+02
0.011666      	3.407198e+02
0.0116776     	3.407218e+02
0.0116892     	3.407238e+02
0.0117008     	3.407260e+02
0.0117124     	3.407283e+02
0.011724      	3.407308e+02
0.0117356     	3.407333e+02
0.0117473     	3.407360e+02
0.0117589     	3.407389e+02
0.0117705     	3.407418e+02
0.0117821     	3.407449e+02
0.0117937     	3.407481e+02
0.0118053     	3.407514e+02
0.0118169     	3.407549e+02
0.0118285     	3.407584e+02
0.0118401     	3.407621e+02
0.0118517     	3.407659e+02
0.0118633     	3.407699e+02
0.0118749     	3.407739e+02
0.0118865     	3.407780e+02
0.0118981     	3.407823e+02
0.0119098     	3.407867e+02
0.0119214     	3.407911e+02
0.011933      	3.407957e+02
0.0119446     	3.408004e+02
0.0119562     	3.408051e+02
0.0119678     	3.408100e+02
0.0119794     	3.408149e+02
0.011991      	3.408199e+02
0.0120027     	3.408250e+02
0.0120143     	3.408302e+02
0.0120259     	3.408355e+02
0.0120375     	3.408408e+02
0.0120492     	3.408462e+02
0.0120608     	3.408516e+02
0.0120724     	3.408571e+02
0.012084      	3.408627e+02
0.0120957     	3.408683e+02
0.0121073     	3.408739e+02
0.0121189     	3.408797e+02
0.0121305     	3.408854e+02
0.0121422     	3.408912e+02
0.0121538     	3.408971e+02
0.0121654     	3.409029e+02
0.012177      	3.409088e+02
0.0121886     	3.409148e+02
0.0122003     	3.409208e+02
0.0122119     	3.409268e+02
0.0122235     	3.409328e+02
0.0122351     	3.409389e+02
0.0122468     	3.409450e+02
0.0122584     	3.409511e+02
0.01227       	3.409573e+02
0.0122816     	3.409634e+02
0.0122933     	3.409696e+02
0.0123049     	3.409759e+02
0.0123165     	3.409821e+02
0.0123281     	3.409883e+02
0.0123398     	3.409946e+02
0.0123514     	3.410009e+02
0.012363      	3.410072e+02
0.0123747     	3.410136e+02
0.0123863     	3.410199e+02
0.012398      	3.410263e+02
0.0124096     	3.410327e+02
0.0124213     	3.410391e+02
0.0124329     	3.410455e+02
0.0124445     	3.410519e+02
0.0124562     	3.410584e+02
0.0124678     	3.410648e+02
0.0124795     	3.410713e+02
0.0124911     	3.410778e+02
0.0125027     	3.410843e+02
0.0125144     	3.410908e+02
0.012526      	3.410973e+02
0.0125377     	3.411038e+02
0.0125493     	3.411104e+02
0.012561      	3.411169e+02
0.0125726     	3.411235e+02
0.0125842     	3.411301e+02
0.0125959     	3.411355e+02
0.0126075     	3.411408e+02
0.0126192     	3.411461e+02
0.0126308     	3.411514e+02
0.0126425     	3.411567e+02
0.0126541     	3.411621e+02
0.0126658     	3.411674e+02
0.0126775     	3.411728e+02
0.0126891     	3.411781e+02
0.0127008     	3.411834e+02
0.0127124     	3.411888e+02
0.0127241     	3.411941e+02