/*--------------------------------*- C++ -*----------------------------------*\
  =========                 |
  \\      /  F ield         | OpenFOAM: The Open Source CFD Toolbox
   \\    /   O peration     | Website:  https://openfoam.org
    \\  /    A nd           | Version:  8
     \\/     M anipulation  |
\*---------------------------------------------------------------------------*/
FoamFile
{
    version     2.0;
    format      ascii;
    class       volScalarField;
    location    "0.06";
    object      k;
}
// * * * * * * * * * * * * * * * * * * * * * * * * * * * * * * * * * * * * * //

dimensions      [0 2 -2 0 0 0 0];

internalField   nonuniform List<scalar> 
15677
(
0.33416
0.365033
0.294767
0.368732
0.357707
0.281047
0.370693
0.360088
0.366151
0.282772
0.371884
0.361638
0.361489
0.383358
0.288894
0.37261
0.363747
0.357752
0.368364
0.401722
0.300315
0.373038
0.365665
0.35786
0.358178
0.380155
0.419416
0.311819
0.373263
0.367181
0.359471
0.354609
0.361073
0.393346
0.43481
0.322632
0.373348
0.368306
0.361365
0.354791
0.353089
0.36694
0.406217
0.447933
0.332117
0.373349
0.369082
0.363071
0.356354
0.351145
0.353529
0.373597
0.418336
0.458776
0.340517
0.373314
0.369567
0.364446
0.35823
0.351949
0.348813
0.354812
0.380745
0.429155
0.467936
0.347592
0.373275
0.369823
0.365465
0.359967
0.353731
0.348402
0.347169
0.35715
0.387705
0.438893
0.47544
0.353821
0.37325
0.369925
0.366151
0.3614
0.355675
0.349778
0.345373
0.346348
0.359742
0.394504
0.447305
0.481876
0.359004
0.37324
0.369939
0.36655
0.36248
0.357433
0.351731
0.34622
0.342944
0.345913
0.36265
0.400746
0.454791
0.487169
0.363658
0.37324
0.369922
0.366738
0.36321
0.358863
0.353687
0.348082
0.343105
0.340879
0.345927
0.365514
0.40663
0.461131
0.491748
0.367715
0.37324
0.369907
0.366796
0.363636
0.359919
0.355392
0.350163
0.344758
0.340304
0.339207
0.346063
0.368434
0.411813
0.466754
0.495542
0.371309
0.37324
0.3699
0.366796
0.363834
0.36061
0.356737
0.352091
0.346885
0.341708
0.337825
0.337757
0.346399
0.37112
0.416608
0.471428
0.498901
0.374586
0.373239
0.369897
0.366786
0.363893
0.360991
0.35769
0.353691
0.34898
0.343839
0.338925
0.33559
0.33654
0.346802
0.373755
0.420681
0.475552
0.501788
0.377391
0.373238
0.369896
0.366776
0.363901
0.361139
0.358276
0.354889
0.350797
0.346066
0.341017
0.33638
0.333589
0.335473
0.347319
0.376041
0.424371
0.478939
0.504344
0.380222
0.373237
0.369895
0.366769
0.363896
0.361182
0.358545
0.35568
0.352221
0.348073
0.343341
0.338419
0.334058
0.331781
0.334587
0.347766
0.378202
0.427371
0.481915
0.506714
0.382434
0.373236
0.369895
0.366765
0.36389
0.361185
0.35865
0.356078
0.353217
0.349703
0.345513
0.340826
0.336028
0.331946
0.330176
0.333798
0.348257
0.379951
0.430055
0.484368
0.508746
0.385057
0.373236
0.369895
0.366761
0.363885
0.361177
0.358683
0.356251
0.353762
0.35089
0.347333
0.343147
0.338502
0.333857
0.330041
0.328751
0.333141
0.348628
0.381562
0.432135
0.486507
0.510871
0.386821
0.373236
0.369895
0.366759
0.363881
0.361168
0.358688
0.356314
0.354025
0.351571
0.348708
0.345144
0.34096
0.336402
0.331899
0.328363
0.327511
0.332563
0.348993
0.382767
0.434007
0.488284
0.512571
0.389415
0.373236
0.369894
0.366757
0.363878
0.36116
0.358682
0.356327
0.354141
0.351915
0.349539
0.346692
0.343122
0.338999
0.334521
0.33019
0.3269
0.326458
0.332082
0.349261
0.38389
0.435332
0.489876
0.514707
0.390853
0.373236
0.369894
0.366756
0.363875
0.361153
0.358675
0.356322
0.354182
0.352073
0.349989
0.347653
0.344844
0.341334
0.337257
0.3329
0.328722
0.325698
0.325606
0.331735
0.349517
0.384616
0.43661
0.491162
0.516146
0.393451
0.373236
0.369893
0.366755
0.363873
0.361149
0.358668
0.356311
0.354189
0.352133
0.350218
0.348184
0.345957
0.343229
0.33975
0.33579
0.331561
0.327579
0.324762
0.324979
0.331439
0.349699
0.385352
0.437371
0.492549
0.518692
0.394824
0.373236
0.369893
0.366755
0.363871
0.361145
0.358661
0.3563
0.354182
0.352145
0.350319
0.348457
0.346608
0.344466
0.341809
0.33849
0.334649
0.330564
0.326701
0.324096
0.324581
0.331418
0.34996
0.385779
0.43831
0.49343
0.520335
0.504517
0.373237
0.369893
0.366754
0.363869
0.361143
0.358656
0.356291
0.354171
0.352138
0.350352
0.34858
0.34697
0.345188
0.343214
0.340768
0.337518
0.333806
0.329879
0.326283
0.323905
0.324611
0.33151
0.350188
0.386262
0.438749
0.495386
0.529042
0.710362
0.373237
0.369892
0.366754
0.363867
0.361141
0.358652
0.356283
0.354159
0.352123
0.350352
0.348622
0.34715
0.345587
0.344086
0.342301
0.33993
0.336964
0.333558
0.329888
0.326373
0.324053
0.324821
0.331754
0.350505
0.386623
0.439646
0.495988
0.545808
0.885327
0.373237
0.369892
0.366754
0.363866
0.361139
0.358648
0.356278
0.354148
0.352108
0.350337
0.348625
0.347222
0.345784
0.344606
0.343223
0.341676
0.339783
0.337053
0.333769
0.330188
0.326769
0.324505
0.325316
0.332253
0.350951
0.387037
0.440321
0.495711
0.558571
1.0266
0.373237
0.369891
0.366754
0.363865
0.361138
0.358645
0.356273
0.354139
0.352095
0.350318
0.348609
0.347235
0.345866
0.344886
0.34376
0.342829
0.341749
0.340039
0.337504
0.334408
0.330961
0.327649
0.325427
0.326261
0.333075
0.351544
0.38765
0.440072
0.494223
0.568008
1.14865
0.373238
0.369891
0.366754
0.363864
0.361137
0.358642
0.356269
0.354131
0.352084
0.350299
0.348588
0.347218
0.345887
0.345011
0.344046
0.343552
0.342993
0.342176
0.340774
0.338522
0.335715
0.332464
0.329211
0.326937
0.327614
0.334219
0.352392
0.388135
0.439164
0.491076
0.574461
1.2473
0.373238
0.369891
0.366754
0.363863
0.361137
0.358639
0.356267
0.354125
0.352074
0.350283
0.348567
0.347191
0.345875
0.345044
0.344182
0.343971
0.343779
0.34357
0.343164
0.342254
0.340421
0.337859
0.334711
0.331434
0.32899
0.329424
0.335721
0.353435
0.38849
0.437268
0.485686
0.578628
1.31973
0.373238
0.36989
0.366754
0.363862
0.361137
0.358637
0.356264
0.354119
0.352066
0.35027
0.348548
0.347163
0.345849
0.34503
0.34424
0.344184
0.344244
0.344468
0.34479
0.345054
0.344668
0.343195
0.340843
0.337752
0.334343
0.331655
0.331698
0.337596
0.35467
0.388441
0.434038
0.478911
0.581267
1.37461
0.373238
0.36989
0.366755
0.363861
0.361136
0.358635
0.356262
0.354114
0.35206
0.350258
0.348532
0.347138
0.34582
0.344997
0.344245
0.344262
0.344492
0.345017
0.345877
0.346973
0.3479
0.348069
0.346943
0.344766
0.341631
0.338015
0.334932
0.334475
0.339834
0.356019
0.388158
0.429739
0.472145
0.583505
1.41792
0.36989
0.373242
0.366755
0.363861
0.361136
0.358633
0.356261
0.354109
0.352054
0.350248
0.348518
0.347116
0.345792
0.344961
0.34422
0.344277
0.344604
0.34533
0.346572
0.348285
0.350168
0.351836
0.352578
0.351781
0.349689
0.346432
0.342455
0.338874
0.337724
0.342414
0.357632
0.387497
0.425286
0.465782
0.585771
1.45358
0.366755
0.3699
0.37325
0.36386
0.361136
0.358632
0.35626
0.354106
0.35205
0.350239
0.348506
0.347097
0.345767
0.344926
0.344186
0.344259
0.344642
0.345496
0.347001
0.349162
0.351771
0.354546
0.35701
0.358334
0.35779
0.355708
0.352172
0.347728
0.34344
0.341453
0.345658
0.359635
0.386616
0.420896
0.460062
0.588456
1.48412
0.363859
0.366772
0.36992
0.373257
0.361136
0.35863
0.356259
0.354102
0.352046
0.350231
0.348496
0.347081
0.345744
0.344895
0.344152
0.344229
0.34464
0.345574
0.347259
0.349742
0.352894
0.356526
0.360276
0.363582
0.365445
0.365085
0.362852
0.358922
0.353786
0.348648
0.346091
0.349602
0.361793
0.385753
0.41686
0.455052
0.591462
1.51108
0.361136
0.363881
0.366806
0.369942
0.373265
0.358629
0.356258
0.354099
0.352043
0.350224
0.348487
0.347066
0.345725
0.344868
0.34412
0.344197
0.344622
0.345605
0.347414
0.350131
0.353688
0.35798
0.362744
0.367544
0.371685
0.374041
0.373704
0.3712
0.366636
0.360656
0.355097
0.351897
0.353869
0.364133
0.385
0.413134
0.450748
0.594954
1.53552
0.358628
0.361163
0.363925
0.366841
0.369963
0.373274
0.356258
0.354096
0.352041
0.350218
0.34848
0.347054
0.345709
0.344845
0.344091
0.344167
0.3446
0.345614
0.347507
0.350402
0.35427
0.359073
0.36464
0.37064
0.376511
0.381476
0.384184
0.383749
0.380713
0.37535
0.36913
0.363091
0.358279
0.358427
0.366623
0.384441
0.409812
0.447103
0.598667
1.55796
0.356257
0.358659
0.361219
0.363971
0.366876
0.369986
0.373282
0.354094
0.352039
0.350212
0.348474
0.347042
0.345695
0.344824
0.344067
0.344141
0.344579
0.345615
0.347568
0.3506
0.354724
0.359938
0.366149
0.37312
0.380404
0.387364
0.39304
0.395995
0.395178
0.391439
0.386076
0.379595
0.371834
0.365148
0.363234
0.369303
0.384158
0.406864
0.444028
0.602736
1.5789
0.354091
0.356293
0.358722
0.361277
0.364018
0.366913
0.370009
0.373291
0.352037
0.350207
0.348469
0.347032
0.345683
0.344807
0.344045
0.344118
0.34456
0.345614
0.347614
0.350754
0.355093
0.360668
0.367419
0.3752
0.383656
0.392268
0.40022
0.406529
0.409437
0.40806
0.404629
0.399296
0.391004
0.381218
0.372415
0.368236
0.372096
0.384218
0.404375
0.441403
0.606851
1.59844
0.352036
0.354129
0.356366
0.358788
0.361335
0.364066
0.366951
0.370032
0.3733
0.350202
0.348465
0.347023
0.345673
0.344791
0.344026
0.344098
0.344544
0.345613
0.347653
0.350884
0.355402
0.3613
0.368555
0.377041
0.386504
0.396523
0.406392
0.415279
0.421924
0.424619
0.423902
0.420876
0.41369
0.403222
0.391123
0.379989
0.373411
0.374925
0.384433
0.402242
0.439232
0.611187
1.61689
0.350198
0.352077
0.354207
0.356442
0.358855
0.361396
0.364116
0.36699
0.370057
0.373309
0.348461
0.347015
0.345664
0.344777
0.34401
0.344081
0.34453
0.345613
0.347689
0.351
0.355674
0.361853
0.369587
0.378764
0.389135
0.400397
0.411933
0.423031
0.432561
0.439393
0.443318
0.443434
0.438558
0.429082
0.416089
0.401427
0.38779
0.378733
0.377791
0.384873
0.400498
0.437402
0.615428
1.63417
0.348459
0.350239
0.352164
0.354288
0.35652
0.358925
0.361458
0.364166
0.367029
0.370082
0.373318
0.347007
0.345657
0.344765
0.343996
0.344066
0.344518
0.345614
0.347722
0.351104
0.355919
0.36235
0.370516
0.380383
0.391687
0.40411
0.417157
0.430213
0.442242
0.452293
0.461034
0.466492
0.464736
0.457462
0.445264
0.429446
0.412015
0.395737
0.384142
0.380685
0.385505
0.399019
0.435913
0.619789
1.65057
0.347001
0.348503
0.350327
0.352253
0.354372
0.3566
0.358996
0.361522
0.364219
0.36707
0.370107
0.373328
0.345652
0.344754
0.343984
0.344053
0.344509
0.345616
0.347752
0.351201
0.356142
0.362805
0.371367
0.381875
0.394152
0.407823
0.422322
0.437204
0.451481
0.464347
0.476881
0.488055
0.491921
0.487572
0.477345
0.462043
0.443141
0.422773
0.403757
0.389581
0.383611
0.386318
0.397873
0.434681
0.623961
1.6659
0.345647
0.347039
0.348595
0.350417
0.352345
0.354458
0.356682
0.359069
0.361588
0.364272
0.367112
0.370134
0.373337
0.344743
0.343973
0.344043
0.344501
0.345619
0.347781
0.351289
0.356347
0.363222
0.372151
0.383257
0.396465
0.411497
0.427622
0.444314
0.460736
0.476186
0.492106
0.507856
0.517935
0.519372
0.511699
0.497987
0.479227
0.457023
0.433594
0.411777
0.395007
0.386532
0.387177
0.396964
0.433708
0.628187
1.68046
0.344734
0.345685
0.347125
0.34869
0.35051
0.35244
0.354546
0.356766
0.359145
0.361655
0.364328
0.367155
0.370161
0.373347
0.343964
0.344033
0.344494
0.345621
0.347807
0.35137
0.356535
0.363606
0.372876
0.384543
0.398639
0.415004
0.432969
0.451789
0.470396
0.488376
0.507496
0.527471
0.542457
0.550462
0.54856
0.536862
0.519161
0.496634
0.470954
0.444379
0.419732
0.400377
0.389472
0.388074
0.396286
0.432916
0.632164
1.69402
0.343956
0.344759
0.345767
0.347213
0.348788
0.350607
0.352537
0.354637
0.356853
0.359222
0.361724
0.364384
0.367199
0.370187
0.373356
0.344025
0.344488
0.345624
0.347832
0.351444
0.356707
0.363958
0.373545
0.38574
0.400683
0.418335
0.438151
0.459497
0.480778
0.501415
0.523787
0.547939
0.567485
0.580553
0.585382
0.579204
0.562806
0.540667
0.5141
0.484812
0.455043
0.427568
0.40566
0.392399
0.38901
0.395761
0.432316
0.636161
1.70692
0.34402
0.343968
0.34482
0.345852
0.347304
0.348891
0.350706
0.352638
0.354731
0.356943
0.359302
0.361795
0.364442
0.367242
0.370213
0.373365
0.344481
0.345626
0.347854
0.351512
0.356864
0.364281
0.374161
0.38685
0.402597
0.421491
0.443138
0.4671
0.491671
0.515738
0.541677
0.570304
0.594438
0.6122
0.621992
0.622453
0.611031
0.589277
0.56231
0.531479
0.498489
0.465514
0.435238
0.410827
0.395292
0.389971
0.395401
0.431839
0.63987
1.71885
0.344478
0.344008
0.343998
0.34488
0.345942
0.347399
0.348997
0.350809
0.352741
0.354827
0.357034
0.359384
0.361867
0.3645
0.367284
0.370239
0.373374
0.345627
0.347873
0.351574
0.357007
0.364576
0.374727
0.387877
0.404384
0.42447
0.447921
0.474513
0.502548
0.5311
0.561849
0.595627
0.62485
0.647435
0.661755
0.666705
0.661475
0.643793
0.616044
0.58391
0.548643
0.511899
0.475731
0.442701
0.415856
0.398131
0.390953
0.395136
0.431503
0.643585
1.73024
0.345632
0.344437
0.343982
0.344037
0.344944
0.346038
0.347498
0.349106
0.350915
0.352848
0.354927
0.357129
0.359468
0.361939
0.364556
0.367325
0.370263
0.373382
0.347889
0.351629
0.357138
0.364846
0.375245
0.388824
0.406045
0.427268
0.452481
0.481685
0.513275
0.546819
0.58404
0.625023
0.660482
0.688767
0.707829
0.716591
0.714763
0.702307
0.677277
0.642911
0.605318
0.56549
0.524968
0.485646
0.449928
0.420727
0.400902
0.391943
0.394991
0.431246
0.64699
1.7407
0.34791
0.345551
0.344349
0.34394
0.344088
0.345011
0.346139
0.3476
0.34922
0.351024
0.352957
0.355029
0.357225
0.359551
0.362009
0.364611
0.367365
0.370287
0.373391
0.351679
0.357255
0.365092
0.37572
0.389695
0.407584
0.429885
0.456803
0.488572
0.523803
0.562712
0.607151
0.658288
0.703624
0.739689
0.764731
0.777263
0.777461
0.76635
0.744861
0.711308
0.669714
0.626405
0.581936
0.537642
0.495221
0.456896
0.425427
0.403593
0.392934
0.394899
0.431093
0.650402
1.75071
0.351733
0.347763
0.345364
0.344255
0.343901
0.344151
0.345082
0.346245
0.347707
0.349337
0.351137
0.35307
0.355134
0.35732
0.359633
0.362076
0.364664
0.367403
0.370311
0.373399
0.357361
0.365315
0.376153
0.390495
0.409006
0.432324
0.460877
0.495146
0.534086
0.578621
0.630715
0.694179
0.755495
0.805571
0.839371
0.85658
0.857711
0.845156
0.821644
0.789056
0.745737
0.696317
0.647066
0.597914
0.549879
0.504432
0.463587
0.429944
0.406195
0.393919
0.394904
0.430987
0.653498
1.75873
0.35747
0.351504
0.347405
0.345168
0.34417
0.34387
0.344223
0.345157
0.346356
0.347818
0.349458
0.351255
0.353185
0.355239
0.357413
0.359712
0.362142
0.364715
0.367441
0.370333
0.373406
0.365517
0.376546
0.391227
0.410315
0.434589
0.4647
0.501393
0.544067
0.594346
0.654524
0.73289
0.815933
0.890602
0.941651
0.965854
0.967472
0.950486
0.920068
0.880642
0.834761
0.780419
0.722603
0.66722
0.613372
0.561648
0.513259
0.469991
0.434271
0.408701
0.394888
0.394929
0.430973
0.656181
1.76547
0.365715
0.357133
0.350913
0.347032
0.344989
0.344095
0.343848
0.344301
0.345238
0.346471
0.347934
0.349582
0.351375
0.353299
0.355341
0.357503
0.359788
0.362206
0.364765
0.367477
0.370355
0.373414
0.376905
0.391894
0.411519
0.436687
0.468276
0.507303
0.553687
0.609722
0.678604
0.775008
0.885572
0.993644
1.07674
1.1182
1.12151
1.09792
1.05541
1.00186
0.943042
0.881746
0.815195
0.748472
0.686804
0.628271
0.572929
0.521693
0.476103
0.438404
0.411107
0.395844
0.394981
0.430984
0.658381
1.77275
0.377248
0.36524
0.35621
0.350298
0.346684
0.344825
0.34403
0.343836
0.344385
0.345327
0.34659
0.348055
0.349709
0.351495
0.35341
0.35544
0.35759
0.359863
0.362268
0.364814
0.367512
0.370377
0.373421
0.392509
0.412623
0.438626
0.471609
0.512872
0.562896
0.624664
0.703102
0.820696
0.96362
1.11159
1.23698
1.31514
1.33302
1.30342
1.24542
1.17073
1.08945
1.00822
0.929674
0.849893
0.773831
0.705767
0.642585
0.583711
0.529728
0.481919
0.442342
0.413409
0.396779
0.395054
0.431011
0.660827
1.78068
0.393081
0.3766
0.363854
0.355256
0.349717
0.34636
0.344673
0.343975
0.343834
0.344472
0.345423
0.346712
0.348181
0.349835
0.351613
0.353518
0.355537
0.357676
0.359936
0.362329
0.364861
0.367547
0.370397
0.373424
0.413645
0.440416
0.474709
0.5181
0.571665
0.639149
0.728115
0.869417
1.04765
1.2392
1.41292
1.5396
1.59718
1.57815
1.50533
1.40554
1.29361
1.1812
1.07532
0.97812
0.88432
0.798594
0.724072
0.6563
0.593989
0.537365
0.487442
0.446084
0.415607
0.39757
0.395127
0.43107
0.663451
1.78928
0.414576
0.392226
0.37457
0.362429
0.354349
0.349167
0.346056
0.344533
0.34393
0.343844
0.344561
0.345528
0.346837
0.348309
0.349958
0.351727
0.353623
0.355631
0.357758
0.360007
0.362387
0.364908
0.36758
0.370408
0.373425
0.442081
0.477588
0.522994
0.579984
0.653181
0.75359
0.92013
1.13469
1.37088
1.59569
1.77738
1.88878
1.91153
1.8443
1.72023
1.57339
1.42091
1.27526
1.14335
1.02662
0.918277
0.822682
0.741691
0.669406
0.603765
0.544609
0.492675
0.449632
0.417423
0.398253
0.395223
0.431165
0.6664
1.79869
0.443574
0.413467
0.389305
0.372497
0.361071
0.353484
0.34864
0.345773
0.344405
0.343895
0.343872
0.344651
0.345642
0.346961
0.348434
0.350077
0.35184
0.353725
0.355723
0.357839
0.360076
0.362444
0.364952
0.367597
0.370408
0.373425
0.480279
0.527573
0.587861
0.666771
0.779341
0.971648
1.22204
1.50207
1.77822
2.01792
2.19095
2.27236
2.2479
2.12317
1.94181
1.7445
1.54968
1.36986
1.21136
1.07469
0.95157
0.846028
0.758602
0.6819
0.613045
0.551466
0.497623
0.452549
0.418972
0.399015
0.395346
0.431311
0.669558
1.80889
0.482652
0.442157
0.40932
0.386347
0.37052
0.359771
0.352653
0.348134
0.34551
0.344288
0.343866
0.343925
0.344741
0.345761
0.347083
0.348558
0.350194
0.351949
0.353825
0.355812
0.357917
0.360143
0.3625
0.364974
0.367597
0.370408
0.373425
0.531872
0.595324
0.679935
0.80511
1.02289
1.30769
1.62967
1.95568
2.2536
2.49212
2.64192
2.68026
2.59777
2.40792
2.16493
1.91519
1.67745
1.46346
1.27846
1.12191
0.984021
0.868567
0.774791
0.693787
0.621839
0.557947
0.50168
0.455025
0.420675
0.399868
0.395505
0.431506
0.673117
1.82008
0.535624
0.480874
0.436314
0.405157
0.383524
0.36862
0.358515
0.35185
0.347648
0.345265
0.34418
0.343827
0.343998
0.34483
0.34588
0.347201
0.348679
0.350308
0.352056
0.353922
0.355899
0.357993
0.360208
0.362527
0.364974
0.367597
0.370408
0.373425
0.602414
0.692695
0.830654
1.07299
1.39027
1.75171
2.12507
2.47944
2.78394
3.00732
3.12067
3.10404
2.95415
2.69312
2.38561
2.08266
1.80232
1.55482
1.34394
1.1679
1.01547
0.890248
0.79025
0.705074
0.630158
0.563257
0.505118
0.457737
0.42255
0.400823
0.395706
0.431771
0.676931
1.83219
0.608602
0.533386
0.472664
0.430509
0.401182
0.380805
0.36678
0.357299
0.351078
0.347186
0.345036
0.344085
0.343794
0.344081
0.34492
0.345999
0.347318
0.348797
0.350419
0.35216
0.354016
0.355983
0.358067
0.36024
0.362527
0.364974
0.367597
0.370408
0.373424
0.705052
0.855757
1.12134
1.46889
1.86709
2.28473
2.69243
3.06081
3.35879
3.55424
3.6188
3.53642
3.31115
2.97443
2.60085
2.24487
1.92289
1.64303
1.40723
1.21235
1.04579
0.911033
0.80498
0.715773
0.63698
0.567757
0.508878
0.460711
0.424619
0.401896
0.395959
0.432108
0.681259
1.84547
0.71593
0.605819
0.521756
0.464601
0.424962
0.397344
0.378165
0.364994
0.356125
0.350337
0.346751
0.344829
0.344
0.343773
0.344169
0.345011
0.346116
0.347433
0.348912
0.350527
0.352261
0.354107
0.356066
0.358103
0.36024
0.362527
0.364974
0.367597
0.370408
0.373421
0.880181
1.16753
1.54311
1.97524
2.43383
2.89099
3.3193
3.68943
3.96893
4.12437
4.1286
3.97084
3.6638
3.24848
2.80845
2.40039
2.03822
1.72745
1.46791
1.25504
1.07488
0.930896
0.818983
0.724562
0.642764
0.572675
0.512992
0.463973
0.426903
0.403103
0.396273
0.432542
0.685905
1.85981
0.712576
0.901668
0.588698
0.510558
0.456893
0.419599
0.393611
0.375597
0.363264
0.354994
0.349631
0.346345
0.34464
0.343931
0.343766
0.344257
0.345105
0.346231
0.347547
0.349025
0.350633
0.352359
0.354197
0.356106
0.358103
0.36024
0.362527
0.364974
0.367597
0.370397
0.373414
1.21121
1.61271
2.076
2.5721
3.07445
3.55763
3.99492
4.35585
4.60566
4.70959
4.64277
4.40141
4.00794
3.51263
3.00686
2.54831
2.14773
1.80768
1.52572
1.29579
1.10267
0.949819
0.830515
0.732023
0.649092
0.578056
0.517498
0.467557
0.429428
0.404464
0.396663
0.433085
0.691214
1.87555
0.685709
0.898827
1.24883
0.572727
0.499874
0.449426
0.414375
0.389976
0.373106
0.361593
0.353909
0.348961
0.34597
0.344475
0.343878
0.343771
0.344345
0.3452
0.346343
0.347658
0.349135
0.350736
0.352455
0.354241
0.356106
0.358103
0.36024
0.362527
0.364974
0.36758
0.370376
0.373406
1.6775
2.16943
2.69968
3.24282
3.77526
4.27311
4.70929
5.05103
5.26052
5.30198
5.1544
4.82288
4.34013
3.76494
3.19507
2.68809
2.25111
1.8835
1.58051
1.33453
1.12911
0.965427
0.840321
0.740196
0.65602
0.583948
0.522437
0.471498
0.432225
0.406
0.397143
0.433759
0.696922
1.89244
0.661104
0.855559
1.24688
1.73269
0.557716
0.489508
0.442149
0.409283
0.386444
0.370694
0.359984
0.352872
0.348333
0.345635
0.344334
0.34384
0.343791
0.344431
0.345299
0.346452
0.347768
0.349242
0.350837
0.352503
0.354241
0.356106
0.358103
0.36024
0.362527
0.364952
0.367546
0.370355
0.373398
2.25558
2.81696
3.39662
3.97255
4.52355
5.02646
5.45281
5.76626
5.9252
5.89375
5.65705
5.23067
4.65765
4.00405
3.37251
2.8195
2.34822
1.95483
1.6322
1.37119
1.15088
0.978706
0.851078
0.749156
0.663613
0.590405
0.527854
0.475834
0.435326
0.407737
0.397731
0.434593
0.703503
1.91099
0.638412
0.814893
1.18286
1.73266
2.3286
0.543266
0.47939
0.435056
0.404332
0.383022
0.368369
0.358442
0.351893
0.347761
0.345343
0.344215
0.343813
0.34383
0.344513
0.345398
0.346559
0.347877
0.349347
0.350887
0.352502
0.354241
0.356106
0.358103
0.36024
0.362499
0.364907
0.367512
0.370332
0.37339
2.92422
3.53666
4.15053
4.74706
5.30704
5.8073
6.21653
6.49312
6.59144
6.4774
6.14482
5.62097
4.95849
4.22916
3.53891
2.94252
2.43912
2.0217
1.68079
1.40121
1.16937
0.993282
0.86289
0.758989
0.671941
0.597486
0.533802
0.480612
0.43877
0.409706
0.398451
0.435607
0.710583
1.93073
0.61703
0.776837
1.11998
1.65004
2.33166
3.01445
0.529217
0.469519
0.428159
0.399532
0.379719
0.366135
0.35698
0.350995
0.347249
0.345094
0.344113
0.343787
0.343884
0.344592
0.345499
0.346664
0.347985
0.349398
0.350886
0.352502
0.354241
0.356106
0.358103
0.360207
0.362443
0.36486
0.367476
0.37031
0.373382
3.66355
4.31064
4.9455
5.55252
6.1142
6.60622
6.99213
7.22341
7.25111
7.04579
6.61253
5.99075
5.24132
4.43983
3.69429
3.05729
2.52397
2.08421
1.72034
1.42662
1.18963
1.00929
0.875871
0.769789
0.681084
0.60526
0.540339
0.48588
0.442599
0.411941
0.399327
0.436857
0.718836
1.95243
0.596661
0.740984
1.05853
1.56704
2.23247
3.02108
3.76894
0.51554
0.45992
0.421475
0.394895
0.376542
0.364012
0.355635
0.350189
0.34679
0.344877
0.344028
0.34376
0.343949
0.34467
0.345601
0.346769
0.348038
0.349396
0.350886
0.352502
0.354241
0.356106
0.358066
0.360142
0.362386
0.364812
0.367439
0.370286
0.373374
4.45399
5.12119
5.76584
6.37585
6.93488
7.41505
7.77191
7.94899
7.89617
7.59229
7.05586
6.33786
5.50536
4.63602
3.83886
3.16408
2.60297
2.13483
1.75367
1.45433
1.21183
1.02688
0.890146
0.781662
0.691131
0.613803
0.54753
0.491697
0.446863
0.414484
0.400394
0.438312
0.727708
1.9752
0.577181
0.707203
0.998345
1.48384
2.13191
2.90682
3.77827
4.57069
0.502251
0.450621
0.415021
0.390434
0.373521
0.362056
0.354423
0.349465
0.346382
0.344692
0.343957
0.343741
0.344019
0.344749
0.345707
0.346819
0.348036
0.349396
0.350886
0.352502
0.354241
0.356065
0.357992
0.360074
0.362327
0.364763
0.367402
0.370262
0.373365
5.27595
5.95059
6.59665
7.20583
7.76088
8.2269
8.54847
8.66164
8.51878
8.11104
7.47148
6.66093
5.75035
4.81797
3.973
3.26322
2.66672
2.17735
1.78987
1.48455
1.23615
1.04621
0.905855
0.794726
0.702182
0.6232
0.555448
0.498126
0.451619
0.417382
0.401686
0.439932
0.738167
2.00463
0.558531
0.675513
0.939593
1.40012
2.03002
2.79071
3.64944
4.58017
5.39806
0.489379
0.441653
0.408817
0.386193
0.370736
0.360291
0.353332
0.348816
0.346024
0.344533
0.343898
0.343732
0.344094
0.344835
0.345759
0.346812
0.348036
0.349396
0.350886
0.352502
0.354196
0.355982
0.357915
0.360005
0.362266
0.364713
0.367363
0.370238
0.373356
6.10961
6.78188
7.42523
8.03378
8.58611
9.03564
9.31434
9.35295
9.11155
8.59719
7.85708
6.95933
5.97653
4.98615
4.09716
3.34299
2.72014
2.22338
1.82915
1.51748
1.26277
1.06745
0.92315
0.809112
0.714349
0.633546
0.564177
0.50524
0.456932
0.420691
0.403247
0.441845
0.751399
2.03959
0.54067
0.645949
0.882717
1.31586
1.92634
2.67259
3.51904
4.43599
5.40325
6.22986
0.476964
0.433044
0.402921
0.382283
0.36822
0.358699
0.35235
0.348236
0.34571
0.344394
0.34385
0.343736
0.344183
0.344871
0.345755
0.346811
0.348036
0.349396
0.350887
0.352455
0.354106
0.355897
0.357836
0.359934
0.362204
0.364662
0.367324
0.370213
0.373347
6.93576
7.60061
8.24199
8.85425
9.40588
9.8354
10.0616
10.0144
9.66788
9.04705
8.21137
7.23316
6.18444
5.14115
4.19674
3.40972
2.77782
2.27315
1.87175
1.55333
1.2919
1.0908
0.942198
0.824965
0.727757
0.644949
0.573809
0.513122
0.462875
0.42448
0.405123
0.444463
0.768889
2.07427
0.523575
0.61849
0.828316
1.23133
1.82056
2.55192
3.38659
4.2915
5.24133
6.22485
7.04596
0.465045
0.424882
0.397488
0.378753
0.36595
0.357263
0.351468
0.347719
0.345432
0.344274
0.34382
0.343767
0.344225
0.344855
0.345756
0.346811
0.348036
0.349398
0.350837
0.352357
0.354013
0.355809
0.357755
0.359861
0.36214
0.364609
0.367283
0.370187
0.373337
7.73802
8.39577
9.04179
9.66356
10.2163
10.6201
10.7814
10.6378
10.1822
9.45823
8.53413
7.48304
6.37487
5.26491
4.27984
3.4816
2.84003
2.32691
1.91789
1.59232
1.32376
1.11644
0.963176
0.842441
0.742542
0.657529
0.58445
0.521864
0.469535
0.428821
0.407812
0.448027
0.788047
2.10834
0.507241
0.59304
0.777035
1.14712
1.7126
2.42811
3.25157
4.14578
5.08163
6.04048
7.02356
7.8277
0.453747
0.417379
0.392588
0.375568
0.363901
0.35597
0.350675
0.347257
0.345185
0.34418
0.343823
0.343771
0.344214
0.344852
0.345756
0.346812
0.348038
0.349346
0.350734
0.352258
0.353918
0.355719
0.357672
0.359786
0.362074
0.364555
0.367241
0.37016
0.373328
8.50342
9.16262
9.82053
10.459
11.0148
11.3817
11.4649
11.2151
10.6503
9.82979
8.82596
7.70999
6.52589
5.36784
4.36913
3.55893
2.90703
2.38491
1.9678
1.63465
1.35854
1.14458
0.986272
0.861712
0.758858
0.671422
0.596215
0.531574
0.477014
0.434741
0.411544
0.452262
0.809328
2.14136
0.491786
0.569435
0.729485
1.064
1.60261
2.30073
3.11317
3.99842
4.92264
5.86275
6.8097
7.77833
8.5606
0.443378
0.410627
0.388172
0.372695
0.362054
0.354805
0.349962
0.346841
0.344982
0.344136
0.343813
0.34374
0.344216
0.344852
0.345755
0.346819
0.347984
0.34924
0.35063
0.352156
0.353821
0.355627
0.357587
0.359709
0.362007
0.364499
0.367198
0.370133
0.373318
9.22428
9.88897
10.5668
11.23
11.7937
12.1133
12.1016
11.7397
11.0698
10.1621
9.08814
7.8883
6.65085
5.47797
4.46487
3.642
2.97909
2.44738
2.02168
1.68055
1.39645
1.17542
1.01168
0.882957
0.776866
0.68677
0.609247
0.542376
0.486982
0.442517
0.415978
0.457205
0.832481
2.17313
0.477589
0.547649
0.686178
0.982961
1.49093
2.16955
2.97056
3.84843
4.76409
5.68913
6.60922
7.52689
8.46855
9.23928
0.434071
0.404555
0.384193
0.370107
0.36039
0.353754
0.349318
0.346485
0.344857
0.344097
0.343777
0.343738
0.344216
0.344855
0.345759
0.346769
0.347875
0.349132
0.350523
0.352052
0.353721
0.355533
0.3575
0.359631
0.361938
0.364442
0.367155
0.370107
0.373308
9.89761
10.5833
11.2953
11.9825
12.5453
12.8017
12.6818
12.2067
11.4404
10.4565
9.29159
8.03479
6.78375
5.59551
4.56734
3.73105
3.05645
2.51455
2.07975
1.73019
1.43769
1.20916
1.0396
0.906363
0.796737
0.703747
0.623685
0.556635
0.49971
0.451221
0.421135
0.463105
0.858228
2.20325
0.464826
0.527996
0.647241
0.905212
1.37817
2.03448
2.82306
3.69465
4.60488
5.51946
6.41813
7.29743
8.17183
9.07496
9.84801
0.425733
0.399096
0.380611
0.367774
0.358885
0.352802
0.348759
0.346235
0.344772
0.344047
0.343775
0.343737
0.344214
0.344871
0.345706
0.346662
0.347765
0.349021
0.350415
0.351945
0.353619
0.355437
0.35741
0.35955
0.361867
0.364384
0.367111
0.370081
0.373299
10.5174
11.2449
12.0109
12.7194
13.2639
13.4346
13.1967
12.6138
11.7632
10.6813
9.45717
8.18929
6.92458
5.72058
4.67671
3.8263
3.13931
2.5866
2.14218
1.78374
1.48242
1.24598
1.07021
0.932112
0.818658
0.722503
0.642672
0.574594
0.513546
0.460903
0.427187
0.470039
0.886238
2.23153
0.453379
0.510453
0.613736
0.832975
1.26524
1.89563
2.67004
3.53591
4.44356
5.35248
6.23618
7.08474
7.90639
8.72627
9.5919
10.3777
0.418267
0.39419
0.377388
0.365667
0.357523
0.351971
0.348349
0.346077
0.344703
0.344046
0.343775
0.34374
0.344225
0.344835
0.345599
0.346556
0.347654
0.348908
0.350303
0.351836
0.353515
0.355338
0.357319
0.359467
0.361795
0.364327
0.367069
0.370056
0.37329
11.0833
11.8787
12.716
13.4427
13.9407
13.9988
13.6403
12.9613
12.0045
10.8619
9.62978
8.35136
7.07316
5.85321
4.7931
3.9279
3.22785
2.66369
2.2091
1.84133
1.53078
1.28602
1.10368
0.960388
0.842779
0.747088
0.666399
0.593823
0.528549
0.471703
0.434218
0.478315
0.917392
2.25753
0.443139
0.494696
0.585463
0.769003
1.15434
1.75333
2.51097
3.37098
4.2785
5.18649
6.06179
6.88821
7.66715
8.41795
9.17703
10.0105
10.8272
0.411584
0.389782
0.37448
0.36376
0.356328
0.351344
0.3481
0.345978
0.344703
0.344046
0.343777
0.343771
0.344182
0.344747
0.345496
0.346449
0.347542
0.348792
0.35019
0.351724
0.353407
0.355237
0.357224
0.359384
0.361723
0.364271
0.367028
0.370032
0.373282
11.5999
12.4953
13.4135
14.1394
14.56
14.4817
14.0101
13.2136
12.1949
11.0473
9.80837
8.52033
7.22914
5.99324
4.91651
4.03594
3.32216
2.74592
2.28061
1.90306
1.58287
1.32941
1.14014
0.991309
0.874235
0.77756
0.691539
0.614352
0.544815
0.48371
0.442401
0.488018
0.951372
2.28116
0.434001
0.480513
0.561332
0.71465
1.05003
1.60924
2.34547
3.1986
4.10791
5.01948
5.89296
6.7057
7.45299
8.1471
8.81733
9.51331
10.3172
11.194
0.405602
0.385814
0.371852
0.362084
0.355409
0.350973
0.347969
0.345977
0.344702
0.344047
0.343813
0.343767
0.344093
0.344667
0.345395
0.346339
0.347429
0.348674
0.350073
0.351609
0.353297
0.355134
0.357128
0.359301
0.361653
0.364217
0.366988
0.370008
0.373273
12.0766
13.1084
14.1037
14.7945
15.0974
14.8754
14.2685
13.408
12.3861
11.2354
9.99148
8.6952
7.39188
6.14035
5.04682
4.15038
3.42226
2.83333
2.35674
1.96893
1.63871
1.3762
1.17965
1.03132
0.912791
0.809471
0.718026
0.636196
0.562401
0.497052
0.4519
0.499634
0.989061
2.30194
0.42586
0.467756
0.540454
0.669196
0.955575
1.46836
2.17466
3.01754
3.92975
4.84914
5.72736
6.53476
7.26083
7.91203
8.50991
9.09266
9.72364
10.4973
11.4753
0.400235
0.382235
0.36954
0.360775
0.354873
0.350801
0.34797
0.345977
0.344702
0.344097
0.343824
0.343736
0.344017
0.344589
0.345295
0.346226
0.347314
0.348554
0.349955
0.351493
0.353184
0.355029
0.357033
0.35922
0.361585
0.364165
0.366949
0.369985
0.373265
12.5304
13.7282
14.7843
15.3976
15.5258
15.1356
14.4602