/*--------------------------------*- C++ -*----------------------------------*\
  =========                 |
  \\      /  F ield         | OpenFOAM: The Open Source CFD Toolbox
   \\    /   O peration     | Website:  https://openfoam.org
    \\  /    A nd           | Version:  8
     \\/     M anipulation  |
\*---------------------------------------------------------------------------*/
FoamFile
{
    version     2.0;
    format      ascii;
    class       volScalarField;
    location    "0.06";
    object      p;
}
// * * * * * * * * * * * * * * * * * * * * * * * * * * * * * * * * * * * * * //

dimensions      [0 2 -2 0 0 0 0];

internalField   nonuniform List<scalar> 
15677
(
77.8715
77.4655
77.1301
77.6198
77.1288
77.0667
77.5396
77.1478
77.0764
77.0033
77.5201
77.1479
77.0769
77.0121
76.9088
77.5019
77.151
77.0773
77.0114
76.9164
76.8108
77.479
77.1539
77.0775
77.0118
76.9164
76.8174
76.7011
77.4542
77.1556
77.0773
77.012
76.9171
76.8175
76.707
76.5693
77.4285
77.1567
77.0766
77.0117
76.9177
76.8183
76.7071
76.5744
76.4089
77.4017
77.1573
77.0756
77.0111
76.9182
76.819
76.7079
76.5747
76.4133
76.2133
77.3737
77.1577
77.0741
77.0102
76.9186
76.8196
76.7087
76.5756
76.4137
76.2169
75.975
77.3448
77.1576
77.0725
77.0092
76.9192
76.8203
76.7095
76.5765
76.4147
76.2175
75.978
75.6863
77.3148
77.1566
77.071
77.0084
76.9199
76.8212
76.7105
76.5776
76.4159
76.2187
75.9787
75.6885
75.3392
77.2838
77.1548
77.0696
77.0078
76.9209
76.8225
76.7118
76.579
76.4173
76.2202
75.9802
75.6894
75.3407
74.9259
77.2554
77.1522
77.0687
77.0075
76.9225
76.8245
76.7138
76.5811
76.4193
76.2222
75.9821
75.6912
75.3416
74.9263
74.4388
77.2309
77.1492
77.0684
77.0077
76.925
76.8275
76.7169
76.5841
76.4222
76.2249
75.9847
75.6936
75.3439
74.9276
74.4383
73.8711
77.2099
77.1461
77.0688
77.0084
76.9286
76.832
76.7215
76.5886
76.4265
76.2289
75.9883
75.6969
75.3468
74.9301
74.4398
73.8695
73.2166
77.1924
77.1426
77.0696
77.01
76.9336
76.8385
76.7281
76.5953
76.4329
76.2347
75.9936
75.7017
75.3511
74.9339
74.4427
73.8712
73.2138
72.4706
77.1778
77.1386
77.0707
77.0122
76.9397
76.8473
76.7376
76.6049
76.4422
76.2434
76.0014
75.7086
75.3572
74.9392
74.4473
73.8746
73.2157
72.4664
71.6292
77.1654
77.1342
77.0718
77.015
76.9463
76.858
76.7507
76.6185
76.4556
76.256
76.0129
75.7189
75.3661
74.947
74.4539
73.88
73.2197
72.4685
71.6236
70.6906
77.155
77.1299
77.073
77.0184
76.9536
76.8696
76.7665
76.6371
76.4745
76.2742
76.0297
75.7339
75.3793
74.9582
74.4635
73.8881
73.2261
72.473
71.6259
70.6834
69.6544
77.1467
77.1259
77.0744
77.0223
76.9615
76.8823
76.7839
76.6598
76.5003
76.2996
76.0538
75.7558
75.3985
74.9747
74.4774
73.8997
73.2356
72.4804
71.6309
70.6859
69.6455
68.5222
77.1402
77.1224
77.0757
77.0268
76.97
76.896
76.8028
76.6844
76.5316
76.3344
76.0874
75.787
75.4264
74.9989
74.4978
73.9166
73.2495
72.4916
71.6394
70.6914
69.6481
68.5114
67.2977
77.1352
77.1196
77.0771
77.0316
76.979
76.9104
76.8232
76.7114
76.5658
76.3768
76.1334
75.8306
75.4662
75.0339
74.5276
73.9413
73.2696
72.5077
71.6522
70.7009
69.6541
68.5142
67.285
65.9868
77.1312
77.1173
77.0785
77.0365
76.9885
76.9255
76.8447
76.7404
76.6032
76.423
76.1894
75.8903
75.5218
75.0837
74.5707
73.9774
73.299
72.5313
71.6707
70.7152
69.6645
68.5206
67.2878
65.9721
64.6018
77.128
77.1156
77.0797
77.0412
76.9978
76.9411
76.8673
76.7712
76.6434
76.4736
76.2507
75.9632
75.598
75.1535
74.6321
74.0296
73.342
72.5656
71.6977
70.7361
69.6803
68.5317
67.2943
65.9746
64.5835
63.1712
77.1255
77.1142
77.0809
77.0454
77.0065
76.9564
76.8907
76.8034
76.686
76.528
76.3178
76.0428
75.6911
75.2491
74.7181
74.1041
73.4042
72.6159
71.7371
70.7664
69.7032
68.5486
67.3058
65.9807
64.5836
63.1122
61.6396
77.1234
77.1131
77.082
77.0493
77.0144
76.9705
76.9135
76.8367
76.7307
76.5858
76.39
76.1302
75.7929
75.366
74.8362
74.2084
73.4931
72.6889
71.7949
70.8108
69.7366
68.5733
67.3235
65.9921
64.5882
63.118
61.5715
59.9919
77.1217
77.1122
77.083
77.0528
77.0215
76.9831
76.9345
76.8693
76.7769
76.6463
76.4668
76.2245
75.9049
75.4942
74.9808
74.352
73.6177
72.7931
71.8789
70.8761
69.7858
68.6093
67.3493
66.0098
64.5978
63.1196
61.5768
59.9668
58.2965
77.1203
77.1115
77.0838
77.056
77.0278
76.9945
76.9535
76.8992
76.8221
76.709
76.5472
76.3246
76.0258
75.6353
75.1397
74.5281
73.7895
72.9396
71.9993
70.9714
69.8583
68.6626
67.3872
66.0357
64.6138
63.1259
61.571
59.9563
58.288
56.5674
77.1191
77.1109
77.0845
77.0589
77.0335
77.0047
76.9704
76.9263
76.8637
76.7704
76.6306
76.4298
76.1544
75.788
75.3148
74.7219
74.0007
73.1421
72.169
71.1083
69.9644
68.7416
67.4436
66.0742
64.6383
63.1391
61.5752
59.9467
58.2718
56.5626
54.622
77.1181
77.1104
77.0851
77.0615
77.0386
77.0138
76.9856
76.9505
76.9012
76.8268
76.7124
76.5388
76.2896
75.9506
75.5046
74.9362
74.2338
73.3918
72.4043
71.3018
70.1176
68.8579
67.5279
66.1324
64.6757
63.1609
61.5868
59.9517
58.2627
56.5443
54.6204
52.443
77.1173
77.11
77.0856
77.0639
77.0431
77.0218
76.9991
76.9722
76.9348
76.8778
76.7877
76.646
76.4301
76.1218
75.7073
75.1687
74.492
73.6681
72.6952
71.571
70.335
69.0265
67.653
66.2206
64.7339
63.1961
61.6066
59.963
58.2687
56.5364
54.6033
52.4434
50.2629
77.1166
77.1097
77.0861
77.0661
77.0471
77.029
77.0111
76.9914
76.9649
76.9236
76.8557
76.7446
76.5682
76.3
75.9209
75.4176
74.7729
73.9749
73.018
71.9051
70.6386
69.2671
67.8357
66.3527
64.8239
63.2528
61.6395
59.9816
58.28
56.5419
54.5956
52.4278
50.2646
48.1071
77.116
77.1094
77.0866
77.0679
77.0507
77.0353
77.0218
77.0086
76.9917
76.9645
76.9167
76.8339
76.6955
76.4756
76.1438
75.6805
75.0743
74.3097
73.3775
72.2771
71.017
69.6046
68.098
66.5475
64.9609
63.3429
61.6943
60.0129
58.2981
56.5528
54.5985
52.4199
50.2506
48.1088
45.9955
77.1092
77.1153
77.087
77.0696
77.0539
77.0409
77.0312
77.0237
77.0155
77.0009
76.9714
76.9141
76.8109
76.6376
76.3637
75.9554
75.3936
74.6698
73.7711
72.6928
71.4397
70.0271
68.4678
66.8291
65.1653
63.4827
61.7835
60.0659
58.328
56.5699
54.6073
52.42
50.2422
48.0959
45.9968
43.941
77.0874
77.1089
77.1145
77.071
77.0567
77.0459
77.0396
77.0372
77.0366
77.0333
77.0201
76.9859
76.9147
76.7846
76.5671
76.2274
75.7282
75.0523
74.1957
73.1493
71.9139
70.5012
68.9334
67.2288
65.4634
63.6941
61.9244
60.1536
58.3789
56.5977
54.6219
52.4258
50.2395
48.0865
45.9845
43.9419
41.9531
77.0723
77.0881
77.1086
77.1137
77.0591
77.0503
77.047
77.0492
77.0553
77.062
77.0634
77.0499
77.0076
76.917
76.7519
76.4793
76.0601
75.4544
74.6482
73.6435
72.4366
71.0352
69.4581
67.7349
65.8895
64.0053
62.1401
60.294
58.464
56.6453
54.6459
52.436
50.2417
48.0806
45.9738
43.9299
41.9535
40.0396
77.0613
77.074
77.0889
77.1083
77.113
77.0542
77.0536
77.0597
77.0719
77.0875
77.1018
77.1069
77.0906
77.0357
76.9186
76.7087
76.3684
75.8545
75.1254
74.1721
73.0047
71.6261
70.0516
68.3081
66.4326
64.4537
62.4608
60.5115
58.6021
56.7262
54.6879
52.4535
50.2463
48.0783
45.9644
43.9176
41.9416
40.0392
38.2064
77.0576
77.0642
77.076
77.0898
77.1081
77.1123
77.0593
77.0691
77.0866
77.1101
77.1359
77.1575
77.1645
77.1419
77.0684
76.9161
76.6497
76.2272
75.6019
74.7316
73.6146
72.2709
70.7113
68.9596
67.0509
65.0289
62.9266
60.8378
58.8182
56.8594
54.7617
52.4868
50.2558
48.0763
45.9569
43.9045
41.9275
40.0272
38.2053
36.4577
77.0644
77.0621
77.0674
77.078
77.0907
77.1078
77.1117
77.0774
77.0997
77.1302
77.1662
77.2025
77.2303
77.2365
77.2023
77.1025
76.9045
76.5681
76.0471
75.2924
74.2628
72.9661
71.4342
69.6869
67.7569
65.6874
63.5283
61.3155
59.1458
57.0708
54.8865
52.5492
50.2781
48.0764
45.9474
43.8913
41.9104
40.0112
38.1931
36.4558
34.7956
77.0845
77.0708
77.0669
77.0707
77.08
77.0916
77.1076
77.1111
77.1112
77.148
77.193
77.2423
77.2886
77.3206
77.3218
77.2696
77.1341
76.8776
76.4555
75.8182
74.9152
73.7082
72.2173
70.4877
68.549
66.4432
64.2209
61.9369
59.6293
57.3948
55.0884
52.6602
50.3262
48.0859
45.9369
43.8735
41.8912
39.9903
38.1752
36.4434
34.7931
33.2211
77.1211
77.0935
77.0776
77.0718
77.0739
77.0819
77.0925
77.1074
77.1105
77.1637
77.2169
77.2777
77.3404
77.3954
77.4283
77.4189
77.3401
77.157
76.8274
76.3022
75.5293
74.4586
73.0571
71.3592
69.4253
67.2952
65.0198
62.6561
60.2626
57.8774
55.4029
52.8458
50.4191
48.117
45.9318
43.8514
41.8648
39.965
38.1503
36.4235
34.7804
33.2179
31.7336
77.1771
77.1334
77.1028
77.0844
77.0765
77.0771
77.0838
77.0933
77.1072
77.11
77.2379
77.3092
77.3864
77.4618
77.523
77.552
77.5244
77.4083
77.1639
76.744
76.0965
75.1679
73.9104
72.2986
70.384
68.2428
65.9252
63.49
60.9998
58.514
55.8767
53.1419
50.5829
48.1884
45.9439
43.8305
41.8305
39.9295
38.1188
36.3948
34.7584
33.2049
31.7299
30.3318
77.2559
77.1937
77.1456
77.1119
77.091
77.0811
77.0801
77.0856
77.0942
77.107
77.1095
77.337
77.4273
77.5209
77.6071
77.6705
77.689
77.6335
77.4671
77.145
76.6161
75.8257
74.7208
73.2583
71.4229
69.285
66.9376
64.4403
61.8592
59.2594
56.5072
53.5947
50.8527
48.3256
45.9909
43.8218
41.7929
39.8827
38.0744
36.3573
34.7261
33.181
31.7165
30.3276
29.0137
77.3606
77.2779
77.2096
77.1576
77.1207
77.0974
77.0856
77.0831
77.0873
77.095
77.1069
77.1091
77.4635
77.5734
77.682
77.7759
77.8356
77.8348
77.7393
77.5072
77.0891
76.4304
75.4755
74.1742
72.4902
70.4209
68.0574
65.5089
62.8443
60.1337
57.2508
54.2042
51.2732
48.5621
46.0975
43.8424
41.7624
39.8281
38.0149
36.3039
34.6826
33.1451
31.6907
30.3139
29.0089
27.7764
77.4942
77.3895
77.2984
77.2252
77.1693
77.1293
77.1036
77.0899
77.0859
77.089
77.0958
77.1067
77.1087
77.6199
77.7486
77.8697
77.9662
78.0145
77.9832
77.8331
77.5174
76.9826
76.172
75.031
73.5141
71.5947
69.285
66.6979
63.9585
61.1418
58.1292
54.93
51.8473
48.94
46.2944
43.915
41.755
39.7752
37.9431
36.2318
34.6204
33.0959
31.6514
30.2863
28.995
27.7712
26.6169
77.6592
77.5315
77.4155
77.3183
77.2403
77.1805
77.1375
77.1094
77.094
77.0886
77.0906
77.0966
77.1066
77.1084
77.8076
77.9534
78.0826
78.1747
78.2012
78.1256
77.9037
77.4841
76.8103
75.8251
74.4767
72.7271
70.5616
68.0094
65.2057
62.2889
59.1487
55.7944
52.5383
49.4653
46.621
44.0675
41.7911
39.7388
37.8677
36.1429
34.536
33.0252
31.5968
30.2438
28.9656
27.757
26.6113
25.5318
77.8573
77.7071
77.5644
77.4408
77.3376
77.2547
77.1911
77.1452
77.115
77.0979
77.0911
77.0922
77.0973
77.1065
77.1081
78.0273
78.1865
78.3176
78.3958
78.3875
78.2512
77.9378
77.392
76.5556
75.3729
73.7972
71.8005
69.3821
66.5905
63.5813
60.3169
56.8055
53.3688
50.106
47.086
44.3354
41.8953
39.7368
37.8021
36.0453
34.4305
32.9288
31.5179
30.1839
28.9201
27.726
26.5969
25.5257
24.5173
78.0896
77.9183
77.7483
77.5962
77.4653
77.356
77.2683
77.2011
77.1525
77.1202
77.1015
77.0935
77.0936
77.098
77.1064
77.1078
78.2782
78.4453
78.5697
78.6217
78.563
78.3467
77.9196
77.2236
76.2006
74.7981
72.9775
70.7227
68.05
65.0259
61.6426
57.9733
54.3483
50.8833
47.6619
44.7299
42.0987
39.79
37.7609
35.9505
34.3112
32.8073
31.4101
30.0973
28.8553
27.6777
26.5643
25.5111
24.5109
23.57
78.3554
78.1665
77.9696
77.7881
77.627
77.4884
77.3731
77.281
77.2104
77.1593
77.1251
77.1049
77.0957
77.0949
77.0986
77.1063
77.1076
78.558
78.7251
78.8313
78.8423
78.7145
78.3965
77.8314
76.9602
75.7266
74.0839
72.0036
69.4846
66.5591
63.1358
59.3099
55.4892
51.8081
48.368
45.2282
42.4145
39.9248
37.7616
35.8699
34.1876
32.667
31.2732
29.9786
28.7613
27.6083
26.5135
25.477
24.4961
23.5633
22.6862
78.6526
78.4518
78.2301
78.0192
77.8266
77.6559
77.5098
77.389
77.2927
77.219
77.1656
77.1296
77.108
77.0977
77.096
77.0992
77.1062
77.1075
78.8622
79.0188
79.0926
79.0446
78.8263
78.3823
77.6538
76.582
75.1148
73.2139
70.8635
68.0764
64.7338
60.8292
56.8068
52.8948
49.2156
45.8464
42.8241
40.1553
37.825
35.8174
34.068
32.5152
31.1128
29.8272
28.6323
27.5074
26.4397
25.4239
24.4607
23.5482
22.679
21.8621
78.9771
78.7726
78.5303
78.2916
78.067
77.8625
77.6826
77.5296
77.4035
77.3033
77.2268
77.1712
77.1337
77.1107
77.0994
77.0969
77.0997
77.1062
77.1073
79.184
79.3169
79.3411
79.213
78.8801
78.2843
77.3657
76.0685
74.3469
72.1734
69.5438
66.328
62.4717
58.3182
54.1598
50.219
46.5944
43.3388
40.4667
37.9653
35.8081
33.9624
32.3575
30.9339
29.6476
28.4673
27.3688
26.3323
25.3461
24.4054
23.5116
22.6637
21.854
21.0952
79.3224
79.1257
78.8694
78.6064
78.3508
78.1115
77.8955
77.7069
77.5474
77.4166
77.3129
77.2338
77.1762
77.1371
77.113
77.1008
77.0978
77.1001
77.1061
77.1072
79.5141
79.607
79.5611
79.3291
78.8556
78.0805
76.9456
75.3995
73.4056
70.9458
67.8818
64.1258
59.9662
55.6211
51.3938
47.4846
43.9661
40.8647
38.1713
35.855
33.8801
32.1997
30.7392
29.4428
28.2696
27.1909
26.1847
25.2327
24.3238
23.4544
22.6259
21.8386
21.0842
20.4627
79.6792
79.5052
79.2445
78.9633
78.6795
78.4056
78.152
77.9252
77.7287
77.5633
77.4282
77.3213
77.2398
77.1805
77.14
77.115
77.102
77.0985
77.1004
77.1061
77.1071
79.8403
79.8736
79.7342
79.3721
78.7299
77.7481
76.3711
74.5552
72.2715
69.3763
65.7493
61.6363
57.2235
52.7566
48.5305
44.715
41.3529
38.4419
35.9505
33.832
32.045
30.5307
29.2125
28.0401
26.9761
25.9949
25.0767
24.2049
23.3694
22.5671
21.8
21.0695
20.4579
19.9308
80.0354
79.9032
79.6509
79.3602
79.0533
78.7469
78.4553
78.1884
77.9517
77.7479
77.5772
77.4381
77.3284
77.2447
77.1839
77.1423
77.1166
77.103
77.099
77.1007
77.1061
77.107
80.1472
80.0985
79.8395
79.3188
78.4794
77.2631
75.6207
73.5141
70.7968
67.3175
63.2815
58.8558
54.2611
49.7502
45.5987
41.9378
38.7772
36.0865
33.8144
31.9019
30.3049
28.9551
27.7759
26.7233
25.7642
24.8758
24.0411
23.2453
22.4789
21.7398
21.0303
20.4475
19.9336
19.3717
80.3755
80.3085
80.0815
79.7934
79.471
79.1361
78.8077
78.4996
78.2204
77.9747
77.7643
77.5888
77.4463
77.334
77.2486
77.1865
77.1442
77.1179
77.1038
77.0995
77.101
77.1061
77.107
80.4162
80.2603
79.8531
79.1443
78.0783
76.6022
74.6702
72.1329
68.8114
64.8761
60.4764
55.8124
51.1162
46.6412
42.6344
39.182
36.26
33.8122
31.7708
30.0683
28.6604
27.4717
26.427
25.4894
24.6301
23.8299
23.0744
22.3502
21.6487
20.9691
20.4079
19.9248
19.3719
18.771
80.6809
80.7071
80.5263
80.2565
79.9295
79.5726
79.2105
78.8617
78.5384
78.248
77.9941
77.7778
77.5981
77.4526
77.3382
77.2514
77.1885
77.1456
77.1189
77.1045
77.0999
77.1012
77.106
77.1069
80.6257
80.3349
79.7497
78.8219
77.502
75.7386
73.3784
70.2194
66.4045
62.0683
57.3835
52.5591
47.8391
43.4744
39.6739
36.4747
33.8196
31.6298
29.8253
28.333
27.1107
26.0784
25.1628
24.3348
23.5704
22.8537
22.1726
21.5157
20.8754
20.3462
19.8855
19.3603
18.7664
18.1167
80.9294
81.0817
80.9724
80.7411
80.4237
80.0542
79.6637
79.2763
78.9087
78.5714
78.2708
78.0097
77.7883
77.6049
77.4569
77.3411
77.2534
77.1899
77.1467
77.1197
77.105
77.1002
77.1014
77.106
77.1069
80.751
80.296
79.5011
78.3252
76.7203
74.5309
71.5358
67.8584
63.6216
58.966
54.066
49.1503
44.4783
40.2912
36.7499
33.839
31.4709
29.5478
27.9812
26.6962
25.6542
24.7722
23.9798
23.2558
22.5812
21.9431
21.332
20.7384
20.2504
19.8233
19.3207
18.7511
18.1095
17.405
81.0955
81.4116
81.4038
81.2356
80.9462
80.5766
80.1657
79.744
79.3332
78.9482
78.5983
78.2888
78.0212
77.7954
77.6091
77.4596
77.3428
77.2546
77.1908
77.1473
77.1202
77.1053
77.1005
77.1015
77.106
77.1069
80.7647
80.1149
79.0797
77.6208
75.5911
72.7592
69.2337
65.1279
60.5486
55.63
50.5713
45.6298
41.0752
37.1278
33.8898
31.2937
29.225
27.5714
26.2401
25.1567
24.2882
23.5497
22.8743
22.2488
21.6586
21.0944
20.5491
20.1102
19.7256
19.2575
18.7103
18.0925
17.397
16.6342
81.1507
81.6733
81.8014
81.7254
81.4867
81.1336
80.7134
80.2639
79.8131
79.3807
78.98
78.6189
78.3015
78.0286
77.7993
77.6113
77.4607
77.3435
77.2551
77.1912
77.1477
77.1205
77.1055
77.1007
77.1016
77.106
77.1069
80.6366
79.7619
78.4489
76.5653
73.8908
70.5273
66.5777
62.1153
57.2332
52.0929
46.9317
42.0334
37.6659
34.015
31.1165
28.8533
27.0895
25.7035
24.6017
23.7126
23.0094
22.4072
21.8425
21.3096
20.7988
20.304
19.9164
19.5828
19.1577
18.6454
18.0504
17.3795
16.6256
15.8006
81.063
81.8401
82.1424
82.1931
82.0325
81.7164
81.3014
80.8336
80.3481
79.8705
79.4185
79.0038
78.633
78.3089
78.0319
77.8006
77.6115
77.4606
77.3433
77.255
77.1912
77.1477
77.1206
77.1058
77.1009
77.1017
77.106
77.1069
80.3344
79.1979
77.4641
74.9381
71.7377
67.9613
63.6478
58.8509
53.6918
48.3744
43.175
38.3944
34.2832
30.9793
28.4482
26.5285
25.0692
23.9449
23.0643
22.3607
21.8143
21.341
20.8803
20.4344
19.9981
19.6652
19.3852
19.012
18.5432
17.9833
17.3364
16.6079
15.7916
14.8993
80.7964
81.8831
82.4014
82.6177
82.5674
82.3136
81.9222
81.4488
80.9365
80.4178
79.9158
79.4464
79.0194
78.6403
78.3113
78.0319
77.7994
77.61
77.4592
77.3423
77.2543
77.1907
77.1475
77.1209
77.1061
77.101
77.1017
77.106
77.1069
79.8157
78.2753
75.9127
72.8701
69.2702
65.1275
60.4562
55.3367
49.9323
44.4931
39.3298
34.7457
30.957
28.0431
25.8987
24.326
23.1662
22.2946
21.6252
21.0974
20.699
20.3467
19.9838
19.6194
19.3511
19.1291
18.8104
18.3942
17.8784
17.267
16.5637
15.7733
14.89
13.9252
80.3035
81.7709
82.5497
82.9751
83.0725
82.9107
82.5659
82.1033
81.5752
81.0217
80.4725
79.9486
79.4638
79.0265
78.6414
78.3094
78.0288
77.7961
77.6071
77.4569
77.3405
77.2529
77.19
77.1478
77.1214
77.1063
77.101
77.1016
77.1061
77.107
78.9283
76.7957
73.9349
70.5053
66.5397
62.0235
56.9947
51.5714
45.9647
40.4719
35.4278
31.1201
27.7144
25.2243
23.4776
22.2495
21.3802
20.7502
20.2809
19.9189
19.6594
19.4205
19.1491
18.9609
18.808
18.5488
18.1883
17.7258
17.1593
16.4923
15.7281
14.8712
13.9157
12.8732
81.4615
79.4306
82.555
83.2385
83.5254
83.4906
83.2197
82.7885
82.2588
81.6797
81.0884
80.5118
79.9686
79.4708
79.026
78.6372
78.3038
78.0231
77.7911
77.603
77.4536
77.3379
77.2513
77.1901
77.1485
77.1217
77.1063
77.1009
77.1016
77.1061
77.1071
77.4895
74.905
71.6751
67.8812
63.5319
58.6339
53.2548
47.5568
41.8045
36.3388
31.5033
27.5502
24.5792
22.5365
21.1909
20.2999
19.7091
19.3082
19.0274
18.8209
18.691
18.5582
18.4748
18.4082
18.2203
17.9209
17.5151
17.0029
16.3816
15.6546
14.8248
13.8965
12.8636
11.7382
82.3782
80.8109
78.0003
83.3765
83.901
84.0327
83.8682
83.4931
82.9801
82.3877
81.7617
81.1361
80.5353
79.9757
79.4684
79.0189
78.6284
78.295
78.0152
77.7845
77.5976
77.4492
77.3349
77.2512
77.1912
77.149
77.1217
77.1062
77.1007
77.1014
77.1061
77.1072
75.6542
72.744
69.1597
64.975
60.2275
54.9454
49.2312
43.3001
37.4738
32.1275
27.5934
24.0663
21.5712
19.9897
19.0414
18.4759
18.1498
17.9646
17.8602
17.7988
17.79
17.8618
17.9089
17.8102
17.5843
17.2415
16.7871
16.221
15.5408
14.7492
13.849
12.844
11.7286
10.515
83.3519
81.897
79.6732
76.1885
84.17
84.5138
84.4927
84.2037
83.7296
83.1397
82.4892
81.8205
81.1644
80.5429
79.9713
79.458
79.0063
78.6157
78.2834
78.0054
77.7763
77.5908
77.4445
77.3344
77.2526
77.1917
77.149
77.1215
77.1059
77.1005
77.1013
77.1061
77.1073
73.5593
70.332
66.3595
61.765
56.6099
50.9468
44.9228
38.8151
33.0018
27.8767
23.7351
20.6964
18.7066
17.5898
17.0289
16.7743
16.6979
16.7145
16.7744
16.8483
17.0626
17.2775
17.2967
17.1631
16.8963
16.5067
15.9998
15.3758
14.6321
13.7712
12.7954
11.7084
10.5053
9.19844
84.298
83.0607
80.9462
78.1715
74.128
84.9066
85.0718
84.9032
84.4951
83.9273
83.266
82.5625
81.8556
81.1733
80.5364
79.957
79.4407
78.9888
78.5997
78.2696
77.9937
77.7664
77.5836
77.4434
77.3364
77.2535
77.1918
77.1486
77.121
77.1056
77.1003
77.1011
77.1062
77.1074
71.2176
67.634
63.2522
58.2336
52.6645
46.6303
40.3342
34.1232
28.4251
23.6284
19.965
17.4647
15.9967
15.3394
15.1514
15.1912
15.3484
15.5528
15.7656
16.0815
16.4525
16.6455
16.6345
16.4633
16.1523
15.7122
15.1488
14.4624
13.6507
12.7154
11.6588
10.4847
9.18875
7.78358
85.1804
84.2016
82.3392
79.6391
76.4138
71.8285
85.5805
85.5724
85.2619
84.7404
84.0852
83.3583
82.607
81.867
81.1652
80.5181
79.9344
79.4176
78.9674
78.5809
78.2535
77.9798
77.756
77.5817
77.446
77.3375
77.2535
77.1912
77.1479
77.1207
77.1054
77.1
77.1008
77.1062
77.1076
68.5884
64.6282
59.8203
54.364
48.3781
41.991
35.4757
29.2537
23.7864
19.4267
16.3171
14.3906
13.4488
13.2383
13.4051
13.721
14.0958
14.4746
14.9526
15.4389
15.7929
15.962
15.9183
15.7066
15.3479
14.8535
14.2293
13.4761
12.5914
11.5766
10.434
9.16752
7.77406
6.26576
85.9916
85.2741
83.7191
81.272
78.082
74.4256
69.2427
86.1883
86.0124
85.566
84.9381
84.2023
83.4158
82.6229
81.8577
81.1425
80.4895
79.9048
79.3897
78.9426
78.5593
78.2346
77.9653
77.753
77.5851
77.4475
77.3375
77.2527
77.1902
77.1476
77.1206
77.105
77.0996
77.1005
77.1063
77.1077
65.65
61.2987
56.0474
50.1402
43.7378
37.0272
30.3646
24.2442
19.1343
15.3157
12.8209
11.4882
11.0662
11.284
11.7847
12.3579
12.9345
13.6066
14.2716
14.7442
15.0798
15.2231
15.1441
14.8886
14.4787
13.9259
13.2365
12.4116
11.4489
10.3497
9.116
7.75238
6.25676
4.64008
86.7273
86.269
85.0265
82.9033
79.9591
76.3217
72.1635
66.3478
86.7259
86.3884
85.8135
85.0869
84.2773
83.4385
82.6135
81.8308
81.1075
80.4525
79.8693
79.3578
78.9144
78.5343
78.215
77.9608
77.7574
77.5871
77.4475
77.3364
77.2513
77.19
77.1478
77.1203
77.1046
77.0991
77.1002
77.1064
77.108
62.3883
57.631
51.9166
45.5438
38.731
31.7408
25.0268
19.1418
14.521
11.337
9.50074
8.76707
8.84909
9.47168
10.284
11.0958
12.0009
12.8803
13.5359
13.9937
14.3094
14.4247
14.3076
14.005
13.5399
12.9245
12.1653
11.2639
10.2183
9.02948
7.70006
6.23516
4.63317
2.59373
87.3819
87.1805
86.2516
84.4587
81.8439
78.4662
74.3194
69.6061
63.1305
87.1892
86.6978
86.0029
85.1854
84.3104
83.4307
82.5828
81.789
81.0622
80.4085
79.8291
79.3218
78.8821
78.5085
78.2088
77.9665
77.7599
77.5871
77.4461
77.3345
77.2514
77.1908
77.1478
77.1198
77.1039
77.0986
77.0997
77.1064
77.1082
58.791
53.6095
47.4071
40.5535
33.3433
26.1395
19.4991
14.0019
10.0003
7.5276
6.37489
6.23176
6.79413
7.79525
8.8964
10.0825
11.2203
12.0962
12.7419
13.1836
13.4775
13.5624
13.4042
13.0509
12.5267
11.8443
11.0107
10.0278
8.89428
7.61135
6.18199
4.61211
2.58451
0.178563
87.9502
88.0011
87.389
85.9275
83.649
80.6208
76.7611
72.05
66.7464
59.5802
87.5745
86.9384
86.1322
85.2334
84.3065
83.3971
82.5341
81.7349
81.0086
80.3588
79.7842
79.2809
78.849
78.5
78.216
77.9697
77.76
77.5852
77.4435
77.335
77.2531
77.1913
77.1474
77.119
77.1031
77.0979
77.0993
77.1065
77.1085
54.8439
49.2135
42.4929
35.1411
27.5602
20.2407
13.8315
8.88722
5.62415
3.91879
3.45563
3.88214
4.89591
6.24768
7.78406
9.23642
10.3787
11.2509
11.8855
12.3096
12.5797
12.6318
12.4293
12.0216
11.434
10.6802
9.76735
8.69828
7.47229
6.09099
4.55849
2.56008
0.167236
-2.25163
88.4278
88.7224
88.43
87.3049
85.3624
82.6894
79.2104
74.8162
69.508
63.5821
55.6838
87.8792
87.1077
86.2009
85.2367
84.2715
83.3418
82.4706
81.6707
80.9482
80.3035
79.7332
79.239
78.8378
78.5091
78.22
77.9698
77.7575
77.5818
77.4446
77.3381
77.2544
77.1914
77.1468
77.118
77.1021
77.0971
77.0987
77.1066
77.1089
50.5269
44.4164
37.1371
29.2718
21.3739
14.0774
8.08796
3.86473
1.44081
0.534648
0.748563
1.71459
3.14721
5.00949
6.85673
8.32521
9.47231
10.3403
10.9628
11.3674
11.6117
11.6281
11.3781
10.9121
10.257
9.42714
8.43046
7.27066
5.94796
4.46531
2.50394
0.140607
-2.26026
-4.6659
88.8114
89.3375
89.3639
88.5811
86.9799
84.659
81.5661
77.5813
72.6267
66.6958
60.1115
51.423
88.0998
87.2046
86.2159
85.2025
84.2104
83.2687
82.395
81.5984
80.8812
80.241
79.681
79.2245
78.849
78.5141
78.2201
77.9666
77.753
77.5838
77.4495
77.3407
77.2552
77.191
77.1457
77.1167
77.101
77.0961
77.0982
77.1068
77.1093
45.8137
39.1796
31.292
22.9134
14.7916
7.70238
2.34531
-0.997495
-2.50827
-2.60931
-1.74605
-0.277541
1.75167
3.9791
5.85951
7.34532
8.49746
9.36053
9.96944
10.3528
10.5689
10.5468
10.2457
9.71749
8.99057
8.08026
6.99536
5.74066
4.31827
2.40686
0.0813594
-2.28437
-4.67267
-7.04749
89.0962
89.8408
90.1806
89.7448
88.4918
86.525
83.8161
80.243
75.7277
70.1985
63.6209
56.3309
46.7726
88.2341
87.2369
86.1855
85.1368
84.1277
83.181
82.3097
81.5183
80.8056
80.1769
79.6626
79.2383
78.8552
78.5142
78.2161
77.9609
77.7562
77.5911
77.4539
77.3425
77.2553
77.1901
77.1443
77.1151
77.0995
77.095
77.0975
77.1069
77.1097
40.6664
33.4461
24.8965
16.031
7.83486
1.19089
-3.30866
-5.6344
-6.19144
-5.50526
-4.03289
-1.86237
0.593302
2.87313
4.78903
6.29321
7.4503
8.30757
8.90138
9.26135
9.44678
9.38317
9.02738
8.43299
7.63001
6.63502
5.45784
4.10526
2.2545
-0.0202989
-2.34253
-4.69569
-7.05333
-9.38688
89.2788
90.2255
90.8705
90.7839
89.8865
88.2771
85.9549
82.7915
78.7109
73.6573
67.5447
60.2937
52.2337
41.7
88.2909
87.2146
86.1172
85.0451
84.0276
83.0818
82.2153
81.4281
80.7281
80.1542
79.6796
79.2458
78.8552
78.5092
78.2088
77.9655
77.7668
77.598
77.4573
77.3435
77.2548
77.1887
77.1425
77.1132
77.0979
77.0938
77.0968
77.1071
77.1102
35.0229
27.131
17.8678
8.58969
0.549115
-5.35861
-8.78106
-9.98962
-9.58706
-8.15306
-5.84534
-3.17383
-0.646907
1.68867
3.64215
5.16537
6.32711
7.17752
7.75457
8.08895
8.24106
8.13272
7.7186
7.05402
6.17096
5.08736
3.81492
2.03456
-0.178826
-2.4452
-4.75286
-7.07645
-9.39186
-11.6723
89.3689
90.486
91.4213
91.6869
91.1515
89.9032
87.9711
85.2223
81.5707
76.9779
71.3862
64.6834
56.7239
47.8123
36.1514
88.2822
87.1467
86.0178
84.9325
83.9137
82.9718
82.1088
81.3355
80.7004
80.1746
79.6886
79.2459
78.8491
78.5001
78.2153
77.9802
77.7768
77.6034
77.4596
77.3437
77.2536
77.1867
77.1402
77.1109
77.0959
77.0924
77.096
77.1073
77.1107
28.7924
20.1231
10.1126
0.579124
-6.98357
-11.8282
-13.982
-14.0178
-12.6848
-10.2422
-7.3393
-4.57357
-1.97091
0.423377
2.41593
3.95852
5.1244
5.96676
6.52525
6.8316
6.94758
6.79123
6.31508
5.57653
4.60961
3.43442
1.73538
-0.406356
-2.6069
-4.8556
-7.13337
-9.41491
-11.6763
-13.89
89.3807
90.6328
91.8197
92.4368
92.2738
91.3902
89.851
87.524
84.3043
80.1595
75.0612
68.9366
61.6341
52.9203
43.0479
30.0433
88.2187
87.0413
85.8931
84.8034
83.7869
82.8476
81.9995
81.302
80.725
80.1855
79.6886
79.2384
78.8378
78.5089
78.2352
77.9943
77.785
77.6076
77.4609
77.343
77.2517
77.1841
77.1373
77.1082
77.0937
77.0908
77.0952
77.1075
77.1113
21.8535
12.2767
1.54452
-7.96999
-14.6371
-18.0872
-18.8293
-17.6878
-15.1164
-11.9558
-8.9274
-6.06172
-3.37957
-0.924655
1.10788
2.66985
3.83917
4.6721
5.20999
5.48576
5.56266
5.35494
4.81319
3.9971
2.94336
1.34324
-0.714579
-2.83922
-5.01879
-7.23657
-9.47122
-11.6989
-13.893
-16.0261
89.3268
90.6834
92.0742
93.0121
93.2326
92.725
91.5793
89.6823
86.9021
83.2025
78.5748
72.9853
66.334
58.4162
48.89
37.905
23.2615
88.11
86.9055
85.7486
84.6591
83.6436
82.7198
81.9596
81.3314
80.7378
80.1855
79.6797
79.2245
78.8494
78.535
78.2542
78.006
77.7916
77.6104
77.461
77.3413
77.2488
77.1807
77.1339
77.1052
77.0914
77.0892
77.0944
77.1077
77.1119
14.0212
3.4029
-7.8936
-16.9744
-22.2421
-24.0004
-23.2534
-20.5516
-17.0982
-13.7678
-10.6067
-7.63662
-4.87299
-2.35653
-0.283726
1.29726
2.46899
3.29081
3.80593
4.04844
4.08317
3.82077
3.21003
2.31354
0.837115
-1.11795
-3.15351
-5.25357
-7.40105
-9.5745
-11.754
-13.9149
-16.0281
-18.0677
89.2187
90.6532
92.2042
93.4166
93.9988
93.8847
93.1409
91.6811
89.3516
86.1006
81.9317
76.8414
70.7785
63.6047
55.0502
44.64
32.3384
15.6319
87.9649
86.7459
85.586
84.4953
83.4956
82.6729
81.9944
81.3465
80.7378
80.1748
79.6627
79.2395
78.883
78.5602
78.2704
78.0159
77.7967
77.6119
77.4599
77.3385
77.245
77.1765
77.1299
77.1018
77.0888
77.0875
77.0935
77.1079
77.1126
5.01334
-6.73289
-18.1915
-26.2941
-29.5931
-29.4377
-26.6851
-22.867
-19.1789
-15.67
-12.3713
-9.29535
-6.44991
-3.87215
-1.75955
-0.160504
1.01218
1.82098
2.31097
2.51741
2.5069
2.18662
1.50402
0.187999
-1.63804
-3.56445
-5.57098
-7.63719
-9.73953
-11.8565
-13.9684
-16.0492
-18.0686
-20.0029
89.0668
90.5562
92.2287
93.6688
94.572
94.8346
94.5089
93.5023
91.6374
88.8447
85.1302
80.5154
74.9886
68.4712
60.776
51.5601
40.1739
26.2888
6.87929
87.791
86.5649
85.4008
84.3258
83.4412
82.7139
82.0121
81.3466
80.7251
80.1542
79.6816
79.282
78.9156
78.5819
78.2843
78.0238
77.7999
77.6116
77.4572
77.3343
77.2402
77.1716
77.1254
77.0981
77.0861
77.0858
77.0927
77.1081
77.1133
-5.62666
-18.3589
-29.2729
-35.7433
-36.4377
-33.6465
-29.4253
-25.2734
-21.3413
-17.6498
-14.2136
-11.0329
-8.10728
-5.46987
-3.31903
-1.70363
-0.531914
0.261648
0.723973
0.891517
0.832739
0.451668
-0.646277
-2.30446
-4.09352
-5.98563
-7.95556
-9.97571
-12.0208
-14.0694
-16.1007
-18.0888
-20.0026
-21.819
88.8803
90.4051
92.1655
93.7876
94.971
95.5715
95.6415
95.1134
93.7413
91.4224
88.1665
84.0121
78.9829
73.0478
66.0944
57.8774
47.9732
35.4926
19.6804
-3.45932
87.5917
86.3574
85.2082
84.2631
83.4891
82.7345
82.0121
81.3315
80.7004
80.1776
79.7345
79.3233
78.9438
78.6008
78.2958
78.0294
77.801
77.6095
77.453
77.3288
77.2342
77.1659
77.1205
77.0942
77.0833
77.084
77.0918
77.1084
77.114
-18.6649
-31.6684
-41.051
-44.8679
-41.7113
-36.9536
-32.2269
-27.7387
-23.5619
-19.6919
-16.1228
-12.8418
-9.83985
-7.1463
-4.96016
-3.33096
-2.1627
-1.38697
-0.954962
-0.82907
-0.939077
-1.73
-3.16029
-4.77048
-6.51861
-8.37051
-10.2928
-12.2552
-14.2316
-16.1994
-18.138
-20.0213
-21.8182
-23.5059
88.6635
90.2109
92.031
93.7915
95.2143
96.1152
96.5337
96.4612
95.6264
93.8178
91.033
87.3341
82.774
77.3656
71.0513
63.6805
54.9397
44.321
30.5959
12.4287
-16.2756
87.3614
86.1406
85.1367
84.3189
83.5129
82.7345
81.9945
81.3021
80.7289
80.2425
79.7859
79.3593
78.9687
78.6167
78.3046
78.0324
77.7998
77.6053
77.4468
77.3217
77.2271
77.1596
77.1152
77.0901
77.0803
77.0821
77.0909
77.1086
77.1148
-35.6004
-46.1644
-52.7437
-51.9866
-45.7985
-40.2466
-35.0326
-30.2216
-25.8139
-21.7772
-18.0849
-14.7115
-11.64
-8.89613
-6.67919
-5.03978
-3.87815
-3.12315
-2.72419
-2.64276
-3.16007
-4.27056
-5.63884
-7.19949
-8.9026
-10.7047
-12.5684
-14.4621
-16.3583
-18.2337
-20.0679
-21.8359
-23.5059
-25.0573
88.4109
89.9788
91.8397
93.6995
95.3205
96.4854
97.2084
97.5339
97.2277
95.9926
93.7183
90.4802
86.3727
81.4468
75.6956
69.0311
61.2612
51.9951
40.6493
25.4865
4.47213
-33.6545
87.1195
86.0599
85.2014
84.3463
83.513
82.714
81.9596
81.3364
80.8074
80.3055
79.831
79.3913
78.9901
78.6294
78.3101
78.0325
77.7958
77.5986
77.4387
77.3133
77.2193
77.1528
77.1096
77.0858
77.0773
77.0802
77.0901
77.1089
77.1156
-56.4021
-59.5389
-63.5501
-57.1445
-49.7021
-43.4277
-37.7778
-32.6786
-28.0665
-23.8824
-20.0821
-16.6287
-13.4979
-10.7119
-8.47046
-6.82566
-5.67451
-4.94346
-4.58052
-4.90719
-5.73259
-6.76379
-8.07186
-9.58117
-11.2314
-12.9737
-14.7688
-16.5831
-18.388
-20.16
-21.8796
-23.5222
-25.0559
-26.4623
88.1445
89.7047
91.5993
93.5295
95.3079
96.7013
97.6889
98.3539
98.5236
97.8718
96.1855
93.4458
89.7858
85.3121
80.0621
74.0043
67.0171
58.8692
49.0908
37.0158
20.1918
-3.99743
-56.5557
87.0289
86.1344