/*--------------------------------*- C++ -*----------------------------------*\
  =========                 |
  \\      /  F ield         | OpenFOAM: The Open Source CFD Toolbox
   \\    /   O peration     | Website:  https://openfoam.org
    \\  /    A nd           | Version:  8
     \\/     M anipulation  |
\*---------------------------------------------------------------------------*/
FoamFile
{
    version     2.0;
    format      ascii;
    class       volScalarField;
    location    "0.1";
    object      epsilon;
}
// * * * * * * * * * * * * * * * * * * * * * * * * * * * * * * * * * * * * * //

dimensions      [0 2 -3 0 0 0 0];

internalField   nonuniform List<scalar> 
15677
(
84.7429
23.3496
71.0721
9.36505
34.3548
72.3831
5.04176
15.9075
56.5751
79.2129
3.33632
8.63307
25.4311
81.8815
90.5916
2.5559
5.3939
12.7868
38.7781
104.53
100.02
2.17381
3.77041
7.46936
18.4753
52.7731
121.72
107.136
1.99027
2.88672
4.9297
10.0296
24.9879
65.6196
133.711
112.755
1.9151
2.38373
3.57637
6.22526
12.9273
31.7066
76.3578
141.997
116.965
1.88527
2.09362
2.80176
4.29992
7.61678
16.0277
38.0221
85.1722
147.455
120.534
1.87036
1.94425
2.3423
3.23104
5.03666
9.08888
19.0625
43.902
92.039
151.219
123.195
1.8667
1.87947
2.0709
2.60197
3.65152
5.79544
10.5226
22.0697
49.0587
97.5329
153.573
125.586
1.86747
1.8485
1.92155
2.22307
2.85192
4.07417
6.52107
11.9597
24.8709
53.6915
101.644
155.246
127.278
1.86839
1.83727
1.85297
1.99875
2.37108
3.09923
4.47187
7.24159
13.3118
27.5774
57.5807
104.916
156.159
129.008
1.86868
1.83503
1.82018
1.87374
2.08021
2.51731
3.33026
4.86178
7.91267
14.6475
30.0176
60.9771
107.235
156.91
130.197
1.86871
1.83508
1.80896
1.81586
1.91037
2.16266
2.65455
3.55471
5.22165
8.56916
15.8832
32.2996
63.6828
109.126
157.156
131.63
1.8687
1.83523
1.80655
1.79017
1.81968
1.94976
2.24186
2.78776
3.76144
5.56702
9.17517
17.0711
34.2524
66.0235
110.359
157.484
132.584
1.86869
1.83527
1.80623
1.78245
1.77703
1.82893
1.99025
2.31983
2.91115
3.95662
5.88287
9.75327
18.1215
36.0311
67.7833
111.406
157.553
133.781
1.86868
1.83525
1.80624
1.78052
1.76159
1.76837
1.84284
2.03204
2.39315
3.02659
4.13385
6.17769
10.2653
19.0987
37.4783
69.2714
112.007
157.717
134.619
1.86867
1.83521
1.80624
1.78011
1.75664
1.74421
1.76394
1.85983
2.0726
2.4618
3.1311
4.29592
6.43606
10.7366
19.9307
38.7385
70.324
112.493
157.778
135.663
1.86866
1.83518
1.80622
1.78003
1.75517
1.73543
1.73021
1.76403
1.87757
2.11119
2.5241
3.22545
4.43664
6.66809
11.1424
20.668
39.7236
71.1525
112.705
157.929
136.435
1.86866
1.83515
1.80619
1.77998
1.75475
1.7324
1.71692
1.72018
1.76534
1.89545
2.1466
2.58009
3.30701
4.55996
6.86629
11.4991
21.2743
40.5181
71.6705
112.829
158.046
137.409
1.86866
1.83513
1.80615
1.77992
1.75461
1.73142
1.71186
1.70178
1.7123
1.76845
1.91242
2.17863
2.62861
3.37753
4.66416
7.03615
11.797
21.7716
41.0947
72.0085
112.802
158.293
138.127
1.86866
1.83511
1.80613
1.77987
1.75452
1.73108
1.71003
1.69428
1.68872
1.70665
1.77239
1.92822
2.20666
2.67053
3.43688
4.75167
7.17711
12.0412
22.1518
41.4896
72.1266
112.731
158.497
139.085
1.86866
1.83509
1.80611
1.77982
1.75445
1.73092
1.70937
1.69136
1.67848
1.67806
1.70213
1.77675
1.94239
2.23123
2.70614
3.48657
4.82353
7.29118
12.2293
22.4255
41.7297
72.0929
112.564
158.898
139.752
1.86866
1.83508
1.8061
1.77978
1.75439
1.7308
1.70909
1.69024
1.67423
1.66503
1.66861
1.69917
1.78092
1.95531
2.25264
2.73649
3.52748
4.88154
7.37805
12.3691
22.5971
41.7928
71.9691
112.426
159.194
140.735
1.86866
1.83507
1.80608
1.77974
1.75434
1.73071
1.70893
1.68976
1.6725
1.65933
1.65274
1.66116
1.6967
1.78553
1.96727
2.27173
2.76239
3.56145
4.92608
7.44368
12.4533
22.679
41.7487
71.7408
112.158
159.768
141.362
1.86866
1.83506
1.80608
1.77971
1.7543
1.73063
1.70881
1.6895
1.67176
1.65687
1.64552
1.64266
1.65473
1.6962
1.79077
1.97892
2.28909
2.78506
3.58859
4.96039
7.4818
12.5018
22.6636
41.6313
71.3938
112.006
160.16
142.362
1.86866
1.83506
1.80607
1.77969
1.75426
1.73056
1.70871
1.68931
1.67139
1.65576
1.64232
1.63392
1.63364
1.65052
1.69694
1.79696
1.99067
2.3057
2.80513
3.61147
4.98351
7.50837
12.496
22.6086
41.403
71.0266
111.716
160.909
142.987
1.86866
1.83505
1.80607
1.77966
1.75423
1.73051
1.70864
1.68917
1.67114
1.65518
1.64085
1.62984
1.62343
1.62759
1.64828
1.6993
1.80466
2.00348
2.32236
2.82434
3.6305
5.00106
7.50821
12.4722
22.4947
41.1063
70.5825
111.582
161.382
143.949
1.86866
1.83505
1.80607
1.77964
1.75421
1.73046
1.70857
1.68905
1.67096
1.65481
1.6401
1.62788
1.61861
1.61618
1.6226
1.64909
1.70417
1.8147
2.01803
2.34025
2.84329
3.64789
5.01113
7.50208
12.4223
22.3264
40.7578
70.145
111.32
162.388
144.815
1.86867
1.83504
1.80607
1.77963
1.75418
1.73042
1.70852
1.68896
1.67081
1.65455
1.63964
1.62684
1.61629
1.61051
1.60986
1.62269
1.65207
1.71236
1.82772
2.03533
2.36009
2.86353
3.66436
5.01784
7.4877
12.3468
22.1263
40.374
69.67
111.22
162.7
145.657
1.86867
1.83504
1.80607
1.77962
1.75417
1.73038
1.70848
1.68888
1.67069
1.65435
1.6393
1.62621
1.61505
1.60764
1.60366
1.60887
1.62477
1.65849
1.72441
1.84472
2.05621
2.38333
2.88604
3.68208
5.02353
7.46441
12.2571
21.903
39.9684
69.2002
111.007
163.39
146.49
1.86867
1.83504
1.80608
1.77961
1.75415
1.73035
1.70845
1.68881
1.67059
1.65418
1.63903
1.62576
1.61429
1.60607
1.60055
1.6018
1.61063
1.63024
1.66997
1.74135
1.86658
2.08203
2.41083
2.91253
3.70213
5.02975
7.43781
12.1589
21.6664
39.5452
68.6789
110.788
164.336
147.345
1.86867
1.83503
1.80608
1.7796
1.75414
1.73032
1.70842
1.68875
1.67051
1.65403
1.63881
1.62542
1.61375
1.60511
1.59883
1.59815
1.60341
1.61577
1.64105
1.687
1.76413
1.8946
2.11359
2.44414
2.94377
3.72658
5.03801
7.41141
12.0563
21.4218
39.0724
68.1225
110.635
165.427
148.199
1.83502
1.86871
1.80607
1.77959
1.75413
1.7303
1.70839
1.68869
1.67044
1.65391
1.63862
1.62514
1.61333
1.60445
1.59777
1.59614
1.59969
1.60844
1.6262
1.65833
1.71063
1.79405
1.92971
2.1525
2.48398
2.98143
3.75608
5.0504
7.38649
11.9543
21.1504
38.5577
67.596
110.523
166.604
149.072
1.80607
1.83512
1.8688
1.77959
1.75413
1.73028
1.70837
1.68865
1.67039
1.6538
1.63845
1.62489
1.61297
1.60393
1.59703
1.5949
1.59765
1.60471
1.6188
1.64386
1.68281
1.74216
1.83218
1.97342
2.19926
2.53178
3.02588
3.79224
5.06775
7.36659
11.8445
20.8573
38.0692
67.098
110.52
167.848
149.915
1.77959
1.80621
1.8353
1.86888
1.75412
1.73026
1.70836
1.68861
1.67034
1.65371
1.63832
1.62468
1.61267
1.6035
1.59644
1.59405
1.59641
1.60272
1.61516
1.63692
1.66922
1.71599
1.78287
1.87989
2.02645
2.25541
2.58797
3.07867
3.83526
5.09141
7.34878
11.7325
20.5844
37.6
66.6424
110.55
169.086
150.77
1.75413
1.77979
1.80651
1.8355
1.86897
1.73025
1.70834
1.68857
1.6703
1.65362
1.6382
1.6245
1.6124
1.60314
1.59595
1.59339
1.59557
1.60156
1.61331
1.63376
1.66319
1.70403
1.75924
1.8344
1.93838
2.09047
2.32113
2.65374
3.13943
3.88607
5.12518
7.342
11.6361
20.3293
37.1666
66.2348
110.623
170.362
151.573
1.73024
1.75439
1.78021
1.80681
1.8357
1.86906
1.70833
1.68854
1.67027
1.65355
1.63811
1.62434
1.61218
1.60283
1.59553
1.59284
1.59492
1.60079
1.61234
1.63248
1.66107
1.69976
1.74989
1.81458
1.89816
2.00945
2.16588
2.3981
2.72872
3.20955
3.95162
5.17331
7.34605
11.5529
20.0988
36.7613
65.8619
110.76
171.594
152.385
1.70832
1.73053
1.75492
1.78064
1.80713
1.8359
1.86916
1.68851
1.67025
1.65349
1.63803
1.62419
1.61199
1.60255
1.59517
1.59238
1.59439
1.60023
1.61177
1.63207
1.66074
1.69921
1.74807
1.80912
1.88385
1.97635
2.09407
2.2546
2.48611
2.81388
3.29676
4.03539
5.23257
7.3581
11.4848
19.8895
36.397
65.5323
110.919
172.85
153.131
1.68848
1.70863
1.73114
1.75547
1.78108
1.80745
1.83611
1.86926
1.67022
1.65344
1.63796
1.62407
1.61183
1.60231
1.59486
1.59199
1.59395
1.59977
1.61139
1.63201
1.66126
1.70054
1.74992
1.81064
1.88285
1.96885
2.07062
2.19467
2.35679
2.58689
2.91986
3.4062
4.13043
5.30151
7.38185
11.4311
19.7042
36.0688
65.238
111.125
174.033
153.886
1.6702
1.6888
1.70929
1.73176
1.75604
1.78153
1.80777
1.83633
1.86936
1.65339
1.63791
1.62396
1.6117
1.6021
1.59459
1.59165
1.59357
1.5994
1.61111
1.63209
1.66207
1.70272
1.7538
1.81628
1.88947
1.97428
2.0705
2.18194
2.31202
2.47478
2.71248
3.05317
3.52882
4.2354
5.37897
7.41619
11.3913
19.5409
35.7754
64.9838
111.333
175.239
154.568
1.65335
1.67056
1.68949
1.70997
1.7324
1.75662
1.782
1.80811
1.83655
1.86946
1.63787
1.62387
1.61159
1.60191
1.59436
1.59135
1.59324
1.59909
1.6109
1.63223
1.66298
1.7051
1.75851
1.82412
1.90048
1.98811
2.08506
2.19248
2.31068
2.44648
2.6237
2.87233
3.20241
3.66242
4.34883
5.46398
7.45889
11.3639
19.3992
35.5144
64.7609
111.58
176.347
155.261
1.63782
1.65371
1.67132
1.6902
1.71067
1.73306
1.75722
1.78248
1.80845
1.83678
1.86956
1.62379
1.61151
1.60173
1.59416
1.5911
1.59295
1.59882
1.61074
1.6324
1.66389
1.70746
1.76328
1.83285
1.914
2.00685
2.10863
2.21915
2.33551
2.46055
2.61451
2.8117
3.05182
3.36574
3.80665
4.46984
5.55523
7.50846
11.347
19.2768
35.2823
64.5722
111.817
177.483
155.876
1.62371
1.63821
1.6545
1.67209
1.69093
1.71139
1.73375
1.75784
1.78297
1.8088
1.83702
1.86967
1.61144
1.60158
1.59401
1.59087
1.59271
1.59859
1.61061
1.63258
1.66479
1.70971
1.76789
1.84151
1.92852
2.02874
2.13798
2.25607
2.37782
2.50363
2.65068
2.82874
3.02106
3.25106
3.54399
3.96035
4.59673
5.65124
7.56369
11.3402
19.1724
35.0775
64.4077
112.085
178.501
156.504
1.61137
1.62406
1.63905
1.65531
1.67289
1.69169
1.71213
1.73445
1.75847
1.78347
1.80916
1.83726
1.86978
1.60145
1.59389
1.59068
1.5925
1.59839
1.61051
1.63275
1.66563
1.71181
1.77227
1.84981
1.94278
2.05205
2.17155
2.30031
2.43228
2.56654
2.71891
2.89652
3.07197
3.25048
3.46331
3.73398
4.12138
4.72833
5.75083
7.62318
11.3421
19.0834
34.8966
64.2704
112.336
179.557
157.055
1.60131
1.61172
1.62487
1.6399
1.65614
1.67372
1.69246
1.7129
1.73518
1.75912
1.78399
1.80953
1.83752
1.86989
1.5938
1.59052
1.59231
1.59822
1.61042
1.63293
1.66643
1.71376
1.77639
1.85764
1.95647
2.07508
2.20722
2.35064
2.49648
2.64476
2.81087
3.00117
3.17899
3.34361
3.50046
3.68757
3.93414
4.28911
4.86357
5.85271
7.68602
11.3482
19.008
34.7378
64.1523
112.611
180.478
157.62
1.59371
1.60153
1.61252
1.62569
1.64079
1.65701
1.67456
1.69327
1.71368
1.73593
1.75979
1.78452
1.80991
1.83777
1.87
1.59035
1.59216
1.59808
1.61036
1.6331
1.66717
1.71556
1.78023
1.86496
1.96948
2.09734
2.24258
2.40454
2.56978
2.73676
2.9233
3.13647
3.33052
3.49895
3.64296
3.76929
3.92198
4.1399
4.46174
5.00102
5.95593
7.75095
11.3604
18.9448
34.5983
64.0552
112.865
181.452
158.109
1.59018
1.59392
1.60212
1.61331
1.62655
1.6417
1.6579
1.67543
1.6941
1.7145
1.7367
1.76047
1.78506
1.81028
1.83801
1.8701
1.59201
1.59797
1.61033
1.63328
1.66786
1.71721
1.78379
1.87175
1.98177
2.11862
2.27694
2.45877
2.64918
2.8428
3.05617
3.3017
3.52362
3.71023
3.85718
3.96914
4.05491
4.16547
4.34826
4.63696
5.13935
6.0593
7.81705
11.3776
18.8922
34.4762
63.9731
113.137
182.271
158.613
1.59187
1.59006
1.59445
1.60269
1.61416
1.62745
1.64265
1.65883
1.67633
1.69496
1.71533
1.7375
1.76117
1.78559
1.81064
1.83825
1.8702
1.59786
1.61033
1.63346
1.66851
1.71874
1.78708
1.87802
1.99332
2.13875
2.31006
2.51234
2.72991
2.95937
3.21171
3.50021
3.76216
3.98017
4.14439
4.2548
4.32115
4.35527
4.41635
4.55795
4.81261
5.27698
6.16203
7.88362
11.3983
18.8488
34.3693
63.9069
113.384
183.166
159.047
1.59776
1.59161
1.58995
1.59495
1.60332
1.61504
1.6284
1.64362
1.65979
1.67724
1.69585
1.7162
1.73831
1.76186
1.7861
1.81099
1.83848
1.8703
1.61031
1.63365
1.66912
1.72015
1.7901
1.88381
2.0041
2.15764
2.3418
2.5647
2.8102
3.08004
3.38675
3.73895
4.05621
4.32146
4.51753
4.63914
4.69355
4.69812
4.66841
4.67244
4.76766
4.98766
5.41363
6.26353
7.94998
11.4217
18.8132
34.2759
63.8523
113.645
183.886
159.492
1.61032
1.59726
1.59117
1.58975
1.59552
1.60402
1.61596
1.62939
1.64462
1.66079
1.67819
1.69676
1.71708
1.73912
1.76253
1.7866
1.81134
1.83871
1.87039
1.63381
1.6697
1.72148
1.7929
1.88915
2.01413
2.17527
2.37205
2.61528
2.88921
3.20307
3.57298
4.01636
4.42276
4.75881
5.007
5.15353
5.20331
5.17612
5.09948
4.99254
4.93183
4.976
5.1594
5.5485
6.36319
8.01562
11.447
18.7844
34.1943
63.8092
113.882
184.707
159.875
1.63398
1.60944
1.59618
1.5906
1.58966
1.59613
1.6048
1.61691
1.63043
1.64565
1.66181
1.67916
1.6977
1.71796
1.73991
1.76318
1.78708
1.81167
1.83893
1.87049
1.67021
1.72271
1.79549
1.89409
2.02344
2.19169
2.40076
2.66364
2.96644
3.32765
3.76702
4.32036
4.86842
5.33399
5.66844
5.86094
5.91212
5.84767
5.70561
5.52476
5.32601
5.19278
5.18229
5.3263
5.68044
6.46044
8.08005
11.4737
18.7611
34.1232
63.7748
114.126
185.344
160.205
1.67072
1.63247
1.60732
1.5949
1.59015
1.58972
1.59675
1.60565
1.61789
1.63152
1.64671
1.66287
1.68015
1.69864
1.71882
1.74068
1.76381
1.78755
1.81199
1.83915
1.87057
1.72381
1.79788
1.89867
2.03207
2.20698
2.42786
2.70954
3.04172
3.45262
3.96583
4.64717
5.38497
6.08053
6.59301
6.86973
6.93334
6.8183
6.58219
6.2844
5.97321
5.66719
5.45379
5.38568
5.48802
5.8086
6.5548
8.14294
11.5011
18.7429
34.061
63.7484
114.35
185.975
160.477
1.72489
1.6685
1.6286
1.60492
1.59378
1.58978
1.58998
1.59738
1.60659
1.6189
1.63265
1.64781
1.66395
1.68114
1.69956
1.71967
1.74143
1.76443
1.788
1.81231
1.83936
1.87066
1.80004
1.90291
2.04008
2.22124
2.45337
2.75293
3.11488
3.57645
4.16675
4.99687
5.97734
7.00052
7.85655
8.34148
8.44598
8.26664
7.89026
7.41264
6.91284
6.44334
6.01437
5.71353
5.58513
5.64424
5.93242
6.6459
8.20394
11.5291
18.7285
34.0068
63.7287
114.541
186.445
160.795
1.80211
1.72175
1.66234
1.62433
1.60278
1.59277
1.58935
1.59043
1.59802
1.60759
1.61996
1.63382
1.64893
1.66503
1.68211
1.70045
1.72049
1.74216
1.76502
1.78844
1.81261
1.83957
1.87074
1.9068
2.0475
2.23455
2.47733
2.79392
3.18579
3.69766
4.36857
5.37117
6.65071
8.09978
9.45513
10.3943
10.6937
10.4532
9.88324
9.13396
8.3384
7.58847
6.9327
6.3657
5.97078
5.77979
5.79471
6.0515
6.73348
8.26289
11.557
18.7178
33.9592
63.7159
114.695
186.974
161.12
1.91043
1.79784
1.71232
1.65571
1.62046
1.6008
1.59186
1.58893
1.591
1.59869
1.60866
1.62106
1.63501
1.65005
1.66607
1.68306
1.70133
1.72129
1.74286
1.7656
1.78886
1.81292
1.83977
1.87078
2.05434
2.24695
2.49982
2.83268
3.25422
3.81518
4.57159
5.77129
7.40358
9.37237
11.3766
12.9977
13.8389
13.7176
12.9129
11.783
10.5424
9.35233
8.30597
7.43789
6.71919
6.22439
5.969
5.93924
6.16559
6.81734
8.31951
11.5849
18.7097
33.9232
63.7057
114.874
187.518
161.502
2.0606
1.90474
1.78379
1.70233
1.64961
1.61684
1.59899
1.59101
1.58858
1.59168
1.59943
1.60978
1.62221
1.63621
1.65115
1.66709
1.68398
1.70218
1.72207
1.74355
1.76616
1.78928
1.81321
1.83987
1.87079
2.25853
2.52086
2.86936
3.31997
3.92857
4.77701
6.19664
8.22809
10.7993
13.5936
16.1171
17.822
18.2866
17.4409
15.8181
13.9477
12.0984
10.4421
9.05787
7.95474
7.0727
6.4733
6.15224
6.07769
6.27453
6.89735
8.37389
11.6122
18.7048
33.8941
63.696
115.062
188.139
161.881
2.26892
2.05327
1.88407
1.76914
1.69311
1.64386
1.61344
1.59729
1.59025
1.58832
1.59242
1.60024
1.61094
1.62338
1.63736
1.65223
1.66807
1.68488
1.70301
1.72284
1.74422
1.7667
1.78968
1.81335
1.83986
1.87079
2.54061
2.90404
3.38282
4.0379
4.98614
6.64465
9.11249
12.3548
16.0645
19.7024
22.5898
24.0808
23.795
21.8614
19.1418
16.3476
13.7784
11.5925
9.83529
8.47861
7.42406
6.71658
6.32907
6.20997
6.3783
6.97361
8.42572
11.6353
18.7014
33.8642
63.6879
115.285
188.741
162.334
2.55798
2.25938
2.02319
1.86289
1.75556
1.68435
1.63837
1.61024
1.59572
1.58959
1.58819
1.59321
1.60115
1.6121
1.62455
1.63849
1.65328
1.66903
1.68576
1.70382
1.72358
1.74487
1.76722
1.78987
1.81334
1.83986
1.87079
2.93691
3.44272
4.14368
5.19986
7.11103
10.0434
14.0113
18.7417
23.6841
28.066
31.032
31.8887
30.3864
26.9521
22.8431
18.946
15.556
12.7867
10.6289
9.00475
7.77117
6.95334
6.49916
6.3361
6.47691
7.04585
8.46854
11.6554
18.699
33.8335
63.6829
115.515
189.444
162.769
2.9655
2.54588
2.21572
1.99287
1.84322
1.74259
1.67593
1.63313
1.60723
1.59428
1.58905
1.58818
1.59403
1.60212
1.61322
1.6257
1.63959
1.65431
1.66997
1.68663
1.70462
1.72431
1.74549
1.76749
1.78987
1.81334
1.83986
1.87079
3.49983
4.24672
5.41837
7.59018
11.007
15.7414
21.5761
27.9821
34.139
39.0266
41.6387
41.3133
38.0459
32.6638
26.871
21.7032
17.4044
14.0083
11.4294
9.52861
8.11202
7.18281
6.66232
6.45612
6.57045
7.10546
8.50504
11.6778
18.6968
33.8025
63.6837
115.793
190.102
163.302
3.54904
2.94984
2.4824
2.17247
1.96467
1.82439
1.73009
1.66784
1.62813
1.60442
1.59297
1.58863
1.58835
1.59483
1.60314
1.61432
1.62684
1.64065
1.65531
1.67088
1.68746
1.70539
1.72501
1.74581
1.76749
1.78987
1.81334
1.83986
1.87078
4.34766
5.63922
8.07591
11.9894
17.5184
24.5194
32.5127
40.6762
47.8878
52.8789
54.5448
52.3675
46.7206
38.9281
31.1683
24.5788
19.2977
15.242
12.2286
10.0459
8.44479
7.40436
6.81835
6.56998
6.64672
7.15619
8.54524
11.703
18.6969
33.7718
63.6881
116.072
190.909
163.795
4.43611
3.52926
2.85618
2.42068
2.13222
1.93762
1.80618
1.71802
1.66007
1.62336
1.60184
1.59179
1.5883
1.5888
1.59559
1.60419
1.6154
1.62795
1.64169
1.65629
1.67177
1.68828
1.70615
1.72537
1.74582
1.7675
1.78987
1.81334
1.83987
1.87074
5.8593
8.56385
12.9778
19.317
27.5253
37.1938
47.5374
57.3999
65.3352
69.844
69.81
65.0038
56.3212
45.6617
35.6741
27.5333
21.2119
16.474
13.0188
10.5529
8.7679
7.61739
6.96702
6.66352
6.7112
7.21193
8.58956
11.7312
18.6979
33.7421
63.6984
116.415
191.632
164.419
4.41061
6.05324
3.38669
2.76735
2.36319
2.09356
1.91144
1.78857
1.70638
1.65262
1.6188
1.59948
1.59073
1.58789
1.58942
1.59634
1.60526
1.61647
1.62905
1.64271
1.65724
1.67263
1.68909
1.70652
1.72537
1.74582
1.7675
1.78987
1.81335
1.83977
1.87066
9.04927
13.9609
21.1142
30.5505
41.9476
54.5865
67.3343
78.6667
86.8007
90.049
87.4077
79.1136
66.7275
52.7705
40.3267
30.5297
23.126
17.6924
13.7937
11.0464
9.07988
7.82125
7.08937
6.743
6.78162
7.27316
8.63846
11.7629
18.7007
33.7135
63.7215
116.75
192.581
164.972
4.17717
6.03264
9.48001
3.25627
2.68462
2.30795
2.05612
1.88609
1.77156
1.6952
1.64549
1.61449
1.59733
1.58983
1.58756
1.59013
1.59711
1.60632
1.61752
1.63012
1.6437
1.65816
1.67349
1.68948
1.70651
1.72537
1.74582
1.76749
1.78987
1.81321
1.83956
1.87057
14.927
22.89
33.5566
46.7037
61.6984
77.4726
92.5128
104.895
112.495
113.509
107.22
94.5326
77.7948
60.1548
45.0664
33.5343
25.0211
18.887
14.5476
11.5235
9.37932
7.98961
7.19352
6.83026
6.85855
7.34045
8.69249
11.7986
18.7066
33.688
63.7529
117.173
193.386
165.701
3.97195
5.61946
9.48913
15.7869
3.13576
2.60515
2.25449
2.01987
1.86158
1.75518
1.68448
1.63872
1.61051
1.59548
1.58908
1.58736
1.59087
1.5979
1.60736
1.61855
1.63115
1.64467
1.65908
1.6739
1.68947
1.70651
1.72537
1.74582
1.76749
1.78967
1.81291
1.83935
1.87048
24.6249
36.5115
51.4023
68.7646
87.6219
106.535
123.576
136.385
142.499
140.119
129.041
111.05
89.3624
67.7147
49.8372
36.5169
26.8811
20.0491
15.2761
11.9816
9.6272
8.13333
7.30814
6.92612
6.94267
7.41444
8.75228
11.839
18.7156
33.6652
63.8024
117.577
194.538
166.324
3.78615
5.25934
8.7338
15.8714
26.1783
3.02044
2.52833
2.20275
1.98482
1.83797
1.73946
1.67426
1.63238
1.60697
1.59388
1.58848
1.58728
1.59163
1.59872
1.60839
1.61957
1.63217
1.64564
1.65953
1.67388
1.68946
1.70651
1.72537
1.74581
1.76722
1.78927
1.81261
1.83914
1.87039
39.385
55.9959
75.6972
97.6216
120.443
142.334
160.907
173.304
176.751
169.649
152.586
128.419
101.264
75.3548
54.5882
39.4509
28.6926
21.1718
15.975
12.3609
9.8392
8.29198
7.4344
7.03154
7.03477
7.49586
8.81854
11.8846
18.7291
33.6487
63.865
118.099
195.448
167.175
3.61145
4.93445
8.06072
14.5756
26.45
41.9649
2.90931
2.45411
2.15281
1.95106
1.81529
1.72444
1.66463
1.62663
1.60388
1.59252
1.58804
1.58733
1.59238
1.59957
1.60939
1.62058
1.6332
1.64611
1.6595
1.67388
1.68946
1.70651
1.72537
1.74549
1.76669
1.78885
1.8123
1.83892
1.8703
60.4406
82.4314
107.351
134.01
160.745
185.308
204.76
215.667
215.036
201.75
177.504
146.377
113.337
82.9863
59.2741
42.3142
30.4444
22.2489
16.5535
12.6855
10.0737
8.46731
7.57365
7.1476
7.13573
7.58553
8.89202
11.9365
18.747
33.6369
63.9514
118.593
196.9
167.889
3.44571
4.63182
7.44477
13.3801
24.4448
42.5778
64.4294
2.80226
2.38262
2.10474
1.91866
1.7936
1.71025
1.65584
1.62154
1.60118
1.59137
1.58773
1.58752
1.59311
1.60044
1.61036
1.62164
1.63369
1.64607
1.6595
1.67387
1.68947
1.70652
1.72501
1.74485
1.76614
1.78842
1.81198
1.8387
1.8702
88.9087
116.728
147.077
178.493
208.981
235.787
255.258
263.328
256.98
235.967
203.403
164.659
125.427
90.5297
63.8565
45.0879
32.1268
23.1405
17.0485
13.0447
10.3333
8.66129
7.72744
7.27552
7.24655
7.68432
8.9736
11.9951
18.7719
33.6382
64.0601
119.244
197.94
168.88
3.28841
4.34808
6.86756
12.259
22.5565
39.6734
65.5734
94.7001
2.69936
2.31401
2.05867
1.88769
1.77311
1.69726
1.64799
1.61702
1.59884
1.59041
1.58751
1.58791
1.5938
1.60133
1.61143
1.62214
1.63363
1.64608
1.6595
1.67388
1.68948
1.70614
1.72429
1.7442
1.76558
1.78798
1.81166
1.83847
1.8701
125.681
159.551
195.38
231.492
265.515
294.003
312.383
315.966
302.059
271.763
229.876
183.007
137.395
97.9175
68.303
47.7562
33.5213
23.9039
17.5964
13.4427
10.6211
8.87618
7.89749
7.41668
7.36831
7.79321
9.0642
12.0621
18.8031
33.6465
64.1981
119.866
199.813
169.943
3.13929
4.08286
6.32433
11.1913
20.7447
36.9094
61.5744
96.5721
133.627
2.60076
2.24844
2.01469
1.85844
1.75433
1.68561
1.64097
1.61299
1.59686
1.58959
1.58723
1.58841
1.59449
1.60238
1.61191
1.62206
1.63364
1.64608
1.6595
1.6739
1.68908
1.70538
1.72356
1.74353
1.765
1.78753
1.81132
1.83824
1.87
171.353
211.311
252.596
293.351
330.67
360.11
375.961
373.069
349.611
308.556
256.522
201.191
149.124
105.093
72.5868
49.9715
34.716
24.749
18.2033
13.8838
10.9404
9.11445
8.08573
7.57258
7.50225
7.91329
9.16497
12.1378
18.8452
33.6661
64.3724
120.677
201.262
171.417
2.99805
3.83652
5.81573
10.1723
18.982
34.2185
57.7638
91.2662
136.388
181.704
2.50672
2.18609
1.97323
1.83166
1.73747
1.67517
1.63469
1.60938
1.59517
1.58892
1.58699
1.58899
1.59539
1.60285
1.61177
1.62207
1.63364
1.64607
1.65953
1.67348
1.68827
1.7046
1.72281
1.74284
1.7644
1.78706
1.81098
1.838
1.86989
226.218
272.22
318.992
364.424
404.768
434.175
445.636
433.941
398.876
345.748
282.965
219.012
160.517
112.011
76.1479
51.8705
36.0396
25.6856
18.8761
14.3733
11.2948
9.37887
8.29427
7.74489
7.64973
8.04578
9.27696
12.2246
18.8956
33.7097
64.5836
121.637
203.79
172.605
2.86409
3.60997
5.34325
9.20805
17.258
31.5631
54.0256
86.2481
129.519
185.424
239.058
2.41757
2.12747
1.93532
1.80764
1.72234
1.66581
1.62908
1.60621
1.59373
1.58834
1.58688
1.5899
1.59572
1.60268
1.61177
1.62207
1.63363
1.64611
1.65908
1.67261
1.68744
1.7038
1.72204
1.74213
1.76379
1.78658
1.81063
1.83776
1.86978
290.323
342.406
394.879
445.161
488.18
516.172
520.855
497.714
449.033
382.766
308.885
236.308
171.495
117.764
79.2003
53.9748
37.5071
26.7243
19.6225
14.9165
11.6885
9.67248
8.52548
7.93549
7.81228
8.19199
9.40172
12.3229
18.9624
33.7652
64.8976
123.024
206.363
174.382
2.73709
3.40541
4.90828
8.30251
15.5738
28.925
50.3065
81.322
123.128
176.649
243.658
305.516
2.33418
2.07403
1.90137
1.78609
1.70877
1.65742
1.62408
1.60344
1.59246
1.58789
1.58727
1.59026
1.59541
1.60271
1.61177
1.62206
1.63369
1.64564
1.65815
1.67174
1.6866
1.70298
1.72126
1.7414
1.76316
1.78609
1.81028
1.83751
1.86967
363.619
422.075
480.768
536.242
581.368
605.962
600.841
563.379
499.254
419.108
334.021
252.953
180.617
122.69
82.5804
56.3081
39.1353
27.8768
20.4508
15.5197
12.1258
9.9986
8.78194
8.14642
7.99157
8.35349
9.54044
12.4359
19.0411
33.8759
65.3589
124.432
209.859
175.739
2.61819
3.21837
4.51087
7.45765
13.9429
26.3023
46.5729
76.413
116.896
168.682
232.488
310.711
380.763
2.2586
2.02631
1.87099
1.76676
1.69659
1.64992
1.61964
1.60098
1.59141
1.58807
1.58725
1.58994
1.59541
1.60271
1.61177
1.62214
1.6332
1.64465
1.65721
1.67085
1.68573
1.70215
1.72046
1.74066
1.76252
1.78558
1.80991
1.83726
1.86956
446.155
511.744
577.636
638.741
684.949
703.241
684.583
629.842
548.78
454.357
358.173
266.761
188.413
128.134
86.3246
58.8965
40.9427
29.1563
21.3703
16.1895
12.6116
10.3608
9.06647
8.37991
8.18953
8.53178
9.6952
12.564
19.1625
34.0413
65.9241
126.201
213.192
178.024
2.51038
3.04735
4.15274
6.67829
12.3834
23.7064
42.8116
71.463
110.721
161.025
222.662
296.442
386.007
464.564
2.19152
1.9837
1.8438
1.74943
1.68568
1.64321
1.61564
1.59887
1.59119
1.58791
1.58669
1.59
1.59541
1.60268
1.61191
1.62164
1.63215
1.64367
1.65626
1.66993
1.68485
1.70129
1.71964
1.73989
1.76185
1.78505
1.80953
1.83702
1.86946
538.351
612.519
687.07
754.323
799.651
807.438
770.855
696.03
596.962
488.202
378.17
278.53
197.002
134.15
90.4725
61.7686
42.9494
30.5771
22.3911
16.933
13.151
10.763
9.38206
8.63839
8.40806
8.72884
9.86735
12.7389
19.3298
34.286
66.5839
128.004
217.702
179.615
2.41483
2.8943
3.83528
5.97106
10.9132
21.1565
39.0251
66.4372
104.511
153.545
213.423
284.341
367.62
469.036
557.082
2.13195
1.94566
1.81947
1.73391
1.67591
1.63715
1.61216
1.59793
1.59075
1.58724
1.58673
1.59
1.59541
1.60286
1.61143
1.62056
1.63112
1.64268
1.65528
1.669
1.68395
1.70042
1.7188
1.73911
1.76117
1.78452
1.80916
1.83678
1.86935
641.28
726.208
811.793
885.299
926.112
917.64
858.333
760.973
643.302
516.183
395.164
291.445
206.457
140.795
95.0664
64.9549
45.1776
32.1545
23.5241
17.7581
13.7497
11.2093
9.73189
8.9243
8.64955
8.94651
10.0956
12.9662
19.5416
34.5649
67.3701
130.345
221.66
182.563
2.33042
2.75844
3.56406
5.34388
9.55464
18.676
35.2274
61.3182
98.1976
146.103
204.604
273.283
352.648
445.041
559.698
659.351
2.07903
1.91171
1.7977
1.72
1.66707
1.63182
1.6102
1.597
1.58989
1.5873
1.58673
1.58994
1.59572
1.60238
1.61035
1.61954
1.63008
1.64166
1.65427
1.66804
1.68303
1.69953
1.71795
1.73831
1.76047
1.78398
1.8088
1.83655
1.86925
756.726
856.658
956.207
1034.53
1064.7
1032.71
945.737
823.871
681.642
539.909
413.737
305.596
216.853
148.128
100.151
68.4887
47.6509
33.9055
24.7811
18.673
14.4132
11.7038
10.1191
9.24045
8.9159
9.23095
10.3847
13.2217
19.7808
34.9369
68.2904
132.68
227.219
184.429
2.25598
2.63716
3.34096
4.80984
8.32923
16.2907
31.442
56.1013
91.731
138.59
196.007
263.059
339.414
426.382
527.857
658.829
773.847
2.03195
1.88143
1.77822
1.70745
1.65925
1.6285
1.60864
1.59583
1.58999
1.5873
1.58669
1.59026
1.59539
1.60131
1.60936
1.61852
1.62901
1.64061
1.65324
1.66705
1.68209
1.69863
1.71708
1.73749
1.75978
1.78346
1.80844
1.83632
1.86916
889.478
1010.72
1126.67
1205.38
1215.78
1151.64
1031.86
876.178
714.128
565.75
433.987
321.069
228.264
156.209
105.773
72.4044
50.3942
35.8476
26.1744
19.6862
15.1476
12.2507
10.5471
9.58896
9.26466
9.58037
10.6949
13.5011
20.072
35.3553
69.3813
135.726
231.654
188.175
2.19035
2.52915
3.1525
4.36584
7.26739
14.0523
27.7021
50.7942
85.0702
130.909
187.472
253.39
327.649
410.46
504.465
615.662
769.062
905.247
1.9901
1.85441
1.76067
1.69632
1.65404
1.62609
1.60715
1.59597
1.58999
1.58724
1.58725
1.5899
1.59447
1.60041
1.60836
1.61748
1.62791
1.63955
1.65219
1.66604
1.68113
1.6977
1.71619
1.73669
1.7591
1.78295
1.8081
1.8361
1.86906
1047.73
1199.16
1331.91
1402.53
1381.14
1273.22
1104.41
920.595
749.446
593.801
455.999
337.941
240.759
165.097
111.979
76.7378
53.4339
37.9996
27.7169
20.8064
15.9586
12.8542
11.0184
10.0442
9.69673
9.94593
11.0245
13.8121
20.3992
35.8869
70.6447
138.711
238.389
190.409
2.13245
2.43345
2.99004
3.99986
6.37605
12.0507
24.0785
45.4201
78.1856
122.967
178.847
244.062
316.961
396.924
485.171
586.28
709.002
894.899
1062.92
1.95288
1.83017
1.7451
1.68857
1.65047
1.62422
1.60734
1.59597
1.58988
1.58791
1.58727
1.58898
1.59378
1.59954
1.60733
1.61643
1.6268
1.63845
1.65112
1.66501
1.68015
1.69676
1.71532
1.73591
1.75845
1.78246
1.80776
1.83589
1.86897
1246.56
1438.93
1586.82
1638.47
1563.1
1377.96
1166.37
968.922
787.677
624.13
479.836
356.277
254.4
174.848
118.815
81.5246
56.7963
40.3802
29.4216
22.0424
16.8519
13.5174
11.6329
10.6038
10.1481
10.3275
11.3751
14.1514
20.7887
36.4817
72.1364
142.563
243.089
195.089
2.0813
2.34915
2.84761
3.69897
5.63784
10.3286
20.7145
40.0589
71.0638
114.674
169.974
234.857
307.071
385.203
469.539
562.76
672.169
810.181
1045.3
1263.82
1.9196
1.80871
1.73387
1.68349
1.64811
1.62449
1.60734
1.59583
1.59076
1.58808
1.58688
1.5884
1.59308
1.59869
1.60628
1.61537
1.62566
1.63733
1.65003
1.66395
1.67915
1.69583
1.71448
1.73516
1.75782
1.78198
1.80743
1.83569
1.86888
1517.28
1767.84
1933.39
1936.62
1724.16
1468.01
1233.95
1021.18
828.844
656.763
505.533
376.119
269.235
185.508
126.324
86.7987
60.5071
43.0078
31.301
23.4025
17.8321
14.3804
12.3846
11.1837
10.6159
10.725
11.7458
14.5272
21.226
37.2169
73.8267
146.355
251.261
197.776
2.03584
2.27517
2.72119
3.45437
5.03219
8.87627
17.7001
34.9136
63.7652
105.947
160.684
225.551
297.688
374.943
456.689
544.631
643.404
764.226
925.592
1242.13
1549.01
1.89018
1.79283
1.72668
1.68055
1.64846
1.62448
1.60714
1.597
1.59121
1.5879
1.587
1.5879
1.59235
1.59787
1.60522
1.61429
1.62452
1.63619
1.64892
1.66286
1.67817
1.69494
1.71366
1.73443
1.7572
1.78152
1.80712
1.83549
1.8688
1943.75
2297.79
2477.62
2202.24
1862.21
1566.04
1306.88
1077.26
872.894
691.676
533.088
397.483
285.294
197.115
134.54
92.5904
64.59
45.8996
33.3671
24.8935
19.1052
15.4318
13.159
11.7795
11.0974
11.1376
12.1387
14.9376
21.7379
38.0442
75.8361
151.069
256.297
1121.48
1.99579
2.2101
2.60864
3.25296
4.53799
7.66286
15.0422
30.1415
56.5342
96.7853
150.8
215.888
288.523
365.762
446.18
530.478
622.323
729.034
868.019
1069.16
1541.47
2077.01
1.86787
1.78297
1.72303
1.68103
1.64846
1.62421
1.60865
1.59795
1.59142
1.58835
1.58724
1.58751
1.5916
1.59708
1.60416
1.6132
1.62336
1.63501
1.6478
1.6618
1.67722
1.69407
1.71287
1.73372
1.7566
1.78106
1.80681
1.8353
1.86871
2742.45
3370.45
2924.26
2420.69
2009.34
1670.7
1384.59
1136.9
919.683
728.779
562.448
420.349
302.582
209.688
143.489
98.9239
69.0645
49.0704
35.6287
26.8281
20.6522
16.5107
13.9497
12.387
11.5899
11.5651
12.5538
15.3908
22.3163
39.0446
78.057
155.947
300.045
2077.42
1.9649
2.15345
2.50848
3.08262
4.13744
6.66132
12.748
25.7862
49.5918
87.4271
140.213
205.585
279.245
357.308
437.512
519.751
606.632
704.471
825.107
996.729
1277.02
2148.84
3223.34
1.85424
1.77851
1.72365
1.68103
1.6481
1.6261
1.61024
1.59891
1.59249
1.58894
1.58752
1.58733
1.59084
1.59632
1.60312
1.61208
1.62221
1.63381
1.64669
1.66076
1.6763
1.69324
1.7121
1.73304
1.75602
1.78063
1.8065
1.83511
1.86867
4752.74
4046.12
3245.44
2637
2161.13
1780.41
1466.37
1199.73
968.987
767.917