/*--------------------------------*- C++ -*----------------------------------*\
  =========                 |
  \\      /  F ield         | OpenFOAM: The Open Source CFD Toolbox
   \\    /   O peration     | Website:  https://openfoam.org
    \\  /    A nd           | Version:  8
     \\/     M anipulation  |
\*---------------------------------------------------------------------------*/
FoamFile
{
    version     2.0;
    format      ascii;
    class       volScalarField;
    location    "0.1";
    object      nut;
}
// * * * * * * * * * * * * * * * * * * * * * * * * * * * * * * * * * * * * * //

dimensions      [0 2 -1 0 0 0 0];

internalField   nonuniform List<scalar> 
15677
(
0.000101486
0.000509368
8.51688e-05
0.00129645
0.00037602
8.67453e-05
0.0024322
0.000782906
0.000312702
9.49107e-05
0.00370501
0.00140357
0.000550654
0.00030134
0.000108519
0.00486386
0.00222954
0.000975002
0.000446454
0.000293855
0.000119813
0.00574068
0.00319697
0.0016034
0.000729096
0.000399284
0.00029077
0.00012835
0.00628514
0.00419607
0.00240144
0.00120993
0.000600579
0.000376197
0.000290248
0.000135099
0.00654039
0.00510688
0.00331161
0.00188173
0.000970963
0.000526427
0.000364972
0.0002918
0.000140146
0.00664748
0.00583839
0.0042455
0.00270218
0.00153887
0.000818448
0.00048267
0.000360725
0.00029419
0.00014442
0.00670104
0.00630533
0.00510393
0.00360307
0.00227595
0.00129588
0.000718699
0.000456407
0.000360193
0.000297582
0.000147598
0.00671339
0.00653429
0.00579855
0.00449736
0.00312911
0.00195643
0.00112792
0.000649801
0.000441155
0.000362543
0.000300846
0.000150457
0.00670965
0.00664955
0.00627027
0.00529341
0.00402158
0.00275705
0.00172173
0.00100234
0.00060301
0.000433385
0.00036582
0.000304483
0.000152485
0.0067058
0.00669194
0.00651638
0.00591602
0.00486572
0.00363116
0.00247067
0.00153765
0.000910605
0.000570663
0.000429961
0.000370229
0.000307485
0.000154559
0.0067046
0.00669986
0.00664124
0.00633333
0.00557849
0.00449665
0.00331729
0.00223762
0.00139688
0.000840569
0.000548922
0.00042987
0.000374205
0.000310832
0.000155991
0.00670445
0.0066991
0.00668507
0.0065498
0.00610364
0.00526856
0.00418576
0.00305353
0.00205283
0.001284
0.000788743
0.000534523
0.000430869
0.000378924
0.000313252
0.000157715
0.0067045
0.00669809
0.00669416
0.00665123
0.00642953
0.00587819
0.00499296
0.00391596
0.00283729
0.00190039
0.00119623
0.00074914
0.000524822
0.000433657
0.000382556
0.000316195
0.00015886
0.00670454
0.00669767
0.00669492
0.00668232
0.00659687
0.00629474
0.00566352
0.00474449
0.0036872
0.00265512
0.00177783
0.00112548
0.000719462
0.000519143
0.000436149
0.000386818
0.000318162
0.000160295
0.00670455
0.00669754
0.00669444
0.00668986
0.00665998
0.00652937
0.00615108
0.0054604
0.00452604
0.00349045
0.00250477
0.00167645
0.00107008
0.00069697
0.000515308
0.000439787
0.000389968
0.000320751
0.000161298
0.00670454
0.0066975
0.00669408
0.00669109
0.00668025
0.00662904
0.00645154
0.00600671
0.00527442
0.00433353
0.00332422
0.00237843
0.00159477
0.00102503
0.000679701
0.000514019
0.000442742
0.000393694
0.000322442
0.000162546
0.00670452
0.00669747
0.0066939
0.00669104
0.00668586
0.00666614
0.00659081
0.00636463
0.00586876
0.00510551
0.00416699
0.00318252
0.00227451
0.00152739
0.000989498
0.000667259
0.00051335
0.000446449
0.000396424
0.000324659
0.000163465
0.00670451
0.00669745
0.00669381
0.00669088
0.00668698
0.00667872
0.00664784
0.00654533
0.00627963
0.00573856
0.00495552
0.00402262
0.00306387
0.00218812
0.00147272
0.000961533
0.000657745
0.000514328
0.000449455
0.000399657
0.000326182
0.000164628
0.00670449
0.00669743
0.00669376
0.0066908
0.006687
0.00668236
0.00666961
0.0066252
0.00649721
0.0061945
0.00561921
0.00482269
0.0038997
0.00296434
0.00211713
0.00142865
0.000939418
0.000651491
0.000515398
0.00045296
0.000401998
0.000328081
0.000165484
0.00670448
0.00669742
0.00669372
0.00669075
0.00668683
0.00668315
0.00667703
0.00665838
0.00659991
0.00644701
0.00611239
0.00551052
0.00470771
0.00379543
0.00288179
0.00205943
0.00139336
0.000922646
0.000647141
0.000517708
0.000455782
0.000404735
0.000329476
0.000166628
0.00670447
0.00669742
0.00669369
0.00669072
0.00668668
0.00668317
0.00667917
0.00667092
0.00664568
0.00657258
0.00639721
0.00603516
0.00541495
0.00460864
0.00370819
0.00281424
0.00201305
0.0013659
0.000910503
0.000645079
0.000519572
0.000459226
0.00040676
0.000331105
0.000167424
0.00670445
0.00669742
0.00669367
0.00669069
0.00668657
0.00668305
0.00667959
0.00667514
0.00666442
0.00663191
0.00654423
0.00634863
0.00596645
0.00533071
0.00452523
0.00363643
0.00276011
0.00197715
0.00134582
0.000901927
0.000644238
0.000522842
0.000461584
0.000408913
0.000332369
0.000168598
0.00670444
0.00669742
0.00669366
0.00669067
0.00668648
0.00668293
0.00667953
0.00667629
0.00667138
0.00665788
0.00661661
0.00651666
0.00630467
0.00590423
0.00526029
0.00445627
0.00357903
0.0027181
0.00195042
0.00133105
0.00089747
0.000645181
0.00052558
0.000464332
0.000410777
0.000333887
0.000169346
0.00670443
0.00669743
0.00669365
0.00669066
0.00668642
0.00668283
0.00667937
0.00667645
0.00667362
0.00666836
0.0066497
0.00660259
0.00648996
0.00626409
0.00585286
0.00519973
0.00440015
0.00353408
0.00268742
0.00193272
0.00132434
0.000895667
0.000647462
0.000528505
0.000466748
0.000412541
0.000334977
0.000170542
0.00670441
0.00669744
0.00669365
0.00669065
0.00668636
0.00668275
0.00667922
0.00667635
0.00667413
0.00667217
0.00666367
0.00664362
0.00658804
0.00646871
0.00622885
0.00580608
0.00515469
0.0043617
0.00350662
0.0026706
0.00192463
0.00132074
0.000897561
0.000650369
0.000531336
0.000468989
0.000414164
0.000336494
0.00017129
0.0067044
0.00669745
0.00669365
0.00669065
0.00668632
0.00668269
0.00667909
0.00667621
0.00667409
0.00667329
0.00666901
0.00666189
0.00663657
0.006578
0.00644562
0.00620373
0.00578104
0.00512514
0.00433556
0.00348801
0.00266102
0.00192153
0.00132352
0.000901152
0.000653741
0.000534674
0.000471431
0.00041574
0.000337369
0.00017244
0.00670438
0.00669746
0.00669366
0.00669066
0.0066863
0.00668264
0.00667898
0.00667609
0.00667392
0.00667342
0.00667073
0.00666933
0.00665888
0.00663306
0.00656755
0.00643552
0.00619098
0.00575936
0.00510299
0.00431849
0.00347928
0.00265961
0.00192566
0.0013301
0.000906882
0.000658497
0.000538167
0.000473558
0.000417174
0.000338949
0.000173475
0.00670437
0.00669746
0.00669368
0.00669068
0.00668628
0.0066826
0.00667888
0.00667601
0.00667374
0.00667327
0.00667105
0.00667194
0.00666836
0.00665924
0.00663128
0.00656699
0.00643253
0.00618047
0.00574585
0.00509204
0.0043152
0.00348346
0.0026694
0.00193771
0.00134095
0.000915269
0.000664029
0.000541612
0.000475629
0.000418534
0.0003397
0.000174482
0.00670436
0.00669746
0.00669369
0.00669069
0.00668626
0.00668256
0.00667879
0.00667594
0.00667359
0.00667307
0.00667093
0.00667253
0.00667188
0.00667084
0.0066621
0.00663705
0.00656996
0.00643344
0.00617821
0.00574706
0.00509882
0.00432728
0.00350055
0.0026889
0.00195585
0.00135655
0.000925718
0.000670293
0.000545132
0.000477577
0.000419877
0.000341018
0.000175476
0.00670436
0.00669746
0.00669369
0.00669071
0.00668626
0.00668254
0.00667872
0.0066759
0.00667346
0.00667288
0.0066707
0.00667243
0.0066728
0.00667539
0.00667603
0.00667248
0.00664412
0.00657889
0.0064417
0.0061919
0.00576443
0.00511979
0.004353
0.00352909
0.00271721
0.00198024
0.001376
0.000938138
0.000677019
0.00054869
0.000479734
0.000421289
0.000342285
0.000176497
0.00670436
0.00669746
0.00669369
0.00669072
0.00668626
0.00668252
0.00667865
0.00667587
0.00667335
0.00667271
0.00667047
0.00667215
0.00667277
0.00667674
0.00668168
0.00668922
0.00668195
0.00665819
0.00659713
0.00646483
0.00621942
0.00579632
0.00515591
0.00439205
0.00356885
0.00275396
0.00201029
0.00139928
0.000952406
0.00068469
0.000552836
0.000481947
0.000422541
0.000343543
0.000177516
0.00669745
0.00670438
0.00669369
0.00669073
0.00668626
0.00668251
0.0066786
0.00667585
0.00667326
0.00667258
0.00667025
0.00667184
0.00667244
0.00667689
0.0066834
0.00669648
0.0067001
0.00669921
0.00668407
0.00662767
0.00650135
0.00626174
0.00584408
0.00520666
0.00444453
0.00361947
0.00279867
0.00204582
0.00142595
0.000968639
0.000693826
0.000557414
0.000484114
0.000423815
0.000344805
0.000178558
0.00669367
0.00669747
0.00670442
0.00669073
0.00668626
0.0066825
0.00667855
0.00667584
0.00667318
0.00667247
0.00667007
0.00667155
0.00667206
0.00667664
0.00668356
0.00669905
0.00670822
0.0067193
0.00673008
0.00672001
0.00667161
0.00655295
0.00632046
0.0059078
0.0052732
0.00451017
0.00368061
0.00285115
0.00208634
0.00145506
0.00098866
0.000704685
0.000562127
0.000486097
0.000424888
0.000345976
0.000179564
0.00669073
0.00669366
0.00669749
0.00670445
0.00668626
0.00668249
0.00667851
0.00667584
0.00667312
0.00667239
0.0066699
0.00667131
0.00667167
0.00667628
0.00668319
0.0066997
0.00671124
0.00672863
0.00675329
0.00677
0.00676968
0.00673057
0.00662134
0.00639685
0.00598894
0.00535507
0.00458874
0.00375182
0.00291067
0.002132
0.00149048
0.00101313
0.000716286
0.000566767
0.000488127
0.000425976
0.000347159
0.000180583
0.00668627
0.00669075
0.00669366
0.00669751
0.00670449
0.00668247
0.00667847
0.00667583
0.00667306
0.00667232
0.00666976
0.00667111
0.00667132
0.00667591
0.00668267
0.00669963
0.00671212
0.0067324
0.00676459
0.00679618
0.0068242
0.00683454
0.00680691
0.00670777
0.00649175
0.00608709
0.00545305
0.00468014
0.00383277
0.00297726
0.00218772
0.00153259
0.00103932
0.000728622
0.000571605
0.000489942
0.000427081
0.000348243
0.000181541
0.00668246
0.00668632
0.0066908
0.00669365
0.00669753
0.00670452
0.00667844
0.00667582
0.00667301
0.00667226
0.00666964
0.00667095
0.006671
0.00667558
0.00668214
0.00669932
0.00671218
0.00673373
0.00676965
0.00680945
0.00685351
0.00689334
0.00691715
0.00690154
0.00681347
0.00660513
0.00620323
0.00556609
0.00478418
0.00392275
0.00305788
0.00225573
0.00157772
0.00106723
0.000741541
0.000576297
0.000491863
0.000428032
0.000349329
0.000182509
0.00667841
0.00668251
0.00668642
0.00669085
0.00669365
0.00669754
0.00670456
0.0066758
0.00667297
0.00667221
0.00666953
0.00667082
0.00667071
0.00667529
0.00668165
0.00669894
0.00671195
0.0067341
0.00677186
0.00681592
0.00686971
0.00692706
0.00698197
0.0070184
0.00701532
0.00693811
0.00673728
0.00633614
0.00569394
0.00490072
0.00403284
0.0031568
0.0023289
0.00162598
0.00109637
0.000754767
0.00058113
0.000493662
0.000428984
0.000350314
0.000183398
0.00667578
0.00667843
0.0066826
0.00668652
0.00669089
0.00669365
0.00669756
0.00670459
0.00667293
0.00667216
0.00666944
0.00667072
0.00667044
0.00667506
0.00668121
0.00669856
0.00671163
0.0067341
0.00677284
0.00681928
0.00687868
0.00694695
0.00702152
0.00709168
0.0071438
0.00715119
0.00708104
0.00688642
0.00648503
0.00583506
0.00504229
0.00416764
0.0032634
0.00240654
0.00167602
0.00112665
0.00076846
0.000585664
0.000495487
0.000429819
0.000351302
0.000184299
0.00667289
0.0066758
0.00667849
0.00668269
0.00668663
0.00669094
0.00669365
0.00669758
0.00670463
0.00667211
0.00666936
0.00667064
0.00667019
0.0066749
0.00668081
0.00669821
0.0067113
0.00673397
0.0067733
0.00682125
0.00688406
0.00695899
0.00704659
0.00713805
0.00722643
0.00729273
0.00731301
0.00724737
0.00705086
0.0066476
0.00600587
0.00521358
0.00431181
0.00337649
0.00248784
0.00172727
0.00115736
0.000782552
0.000590489
0.00049723
0.000430672
0.000352191
0.000185111
0.00667205
0.00667288
0.00667587
0.00667856
0.00668279
0.00668674
0.00669098
0.00669366
0.0066976
0.00670467
0.0066693
0.00667057
0.00666996
0.00667479
0.00668045
0.0066979
0.00671099
0.0067338
0.00677354
0.00682261
0.00688777
0.00696707
0.00706359
0.00716982
0.00728207
0.00738683
0.00746867
0.00749843
0.0074382
0.00723639
0.00684078
0.00620828
0.00539522
0.00446451
0.00349475
0.00257183
0.00177979
0.00118773
0.000796861
0.000595071
0.000498977
0.000431421
0.000353081
0.000185938
0.00666925
0.00667203
0.0066729
0.00667593
0.00667864
0.00668289
0.00668687
0.00669103
0.00669366
0.00669762
0.00670471
0.0066705
0.00666975
0.00667473
0.00668011
0.00669763
0.00671072
0.00673363
0.00677369
0.00682367
0.00689061
0.00697323
0.00707626
0.00719324
0.0073234
0.00745427
0.00757762
0.00767142
0.00770934
0.00765087
0.00746597
0.00707646
0.00642196
0.00558525
0.00462213
0.0036164
0.00265767
0.00183343
0.0012178
0.00081121
0.000599537
0.000500533
0.000432172
0.000353878
0.000186671
0.00667044
0.00666921
0.00667203
0.00667292
0.00667599
0.00667873
0.006683
0.006687
0.00669107
0.00669368
0.00669764
0.00670475
0.00666956
0.00667472
0.00667977
0.0066974
0.00671048
0.00673349
0.00677381
0.00682457
0.00689296
0.00697839
0.00708665
0.00721184
0.00735654
0.00750808
0.00766087
0.00779862
0.00790368
0.00794578
0.00791114
0.00774778
0.00733381
0.00664065
0.00577698
0.00478225
0.00374023
0.00274463
0.00188762
0.00124742
0.000825417
0.000604085
0.000502001
0.000432825
0.000354673
0.00018742
0.0066694
0.00667036
0.00666919
0.00667203
0.00667296
0.00667605
0.00667883
0.00668312
0.00668714
0.00669112
0.00669369
0.00669767
0.0067048
0.00667473
0.00667942
0.00669722
0.0067103
0.00673338
0.00677391
0.00682537
0.00689498
0.00698294
0.00709563
0.00722777
0.0073847
0.00755399
0.00773177
0.00790172
0.00805419
0.00816586
0.00823739
0.00823086
0.00805152
0.0076102
0.006873
0.00597084
0.00494357
0.00386464
0.00283186
0.00194189
0.00127649
0.000839435
0.000608643
0.000503359
0.00043348
0.000355384
0.000188076
0.00667475
0.00666914
0.00667027
0.00666917
0.00667202
0.00667302
0.00667611
0.00667895
0.00668324
0.00668728
0.00669116
0.00669371
0.0066977
0.00670484
0.00667904
0.0066971
0.00671017
0.00673331
0.00677403
0.0068261
0.00689677
0.00698705
0.00710359
0.00724205
0.00740987
0.00759437
0.0077956
0.00799476
0.00818345
0.008345
0.00849197
0.00859878
0.00857885
0.00837439
0.00789746
0.0071147
0.00616432
0.00510308
0.00398806
0.00291863
0.00199576
0.0013053
0.0008532
0.000613134
0.000504655
0.000434049
0.000356087
0.00018875
0.00667864
0.00667463
0.00666876
0.00667018
0.00666918
0.006672
0.00667309
0.00667617
0.00667908
0.00668336
0.00668742
0.00669121
0.00669373
0.00669773
0.00670487
0.00669706
0.00671009
0.00673328
0.00677414
0.00682677
0.00689839
0.0069908
0.00711075
0.00725517
0.00743286
0.00763107
0.00785414
0.00808265
0.00830607
0.00850675
0.00871061
0.00890104
0.00899648
0.00895211
0.0087132
0.00819287
0.00736282
0.00635982
0.00525948
0.00410948
0.0030042
0.00204893
0.0013334
0.000866635
0.000617542
0.000505857
0.000434619
0.00035672
0.000189333
0.00669711
0.00667759
0.00667438
0.00666838
0.00667008
0.00666922
0.00667198
0.00667319
0.00667622
0.00667922
0.00668349
0.00668757
0.00669125
0.00669376
0.00669776
0.00670491
0.00671003
0.00673327
0.00677425
0.00682738
0.00689988
0.00699424
0.00711725
0.00726731
0.00745397
0.00766511
0.00790921
0.00816551
0.00842566
0.00866687
0.00891914
0.00917643
0.00935767
0.00942872
0.00934835
0.00906534
0.0084941
0.00761283
0.00655737
0.00541247
0.00422808
0.00308809
0.00210107
0.0013607
0.000879697
0.000621825
0.000507011
0.000435115
0.000357336
0.000189933
0.00670996
0.00669661
0.00667575
0.00667412
0.00666806
0.00666996
0.00666929
0.00667195
0.0066733
0.00667628
0.00667938
0.00668363
0.00668772
0.0066913
0.00669378
0.00669779
0.00670494
0.00673327
0.00677433
0.00682796
0.00690125
0.0069974
0.00712318
0.00727856
0.00747336
0.00769701
0.00796147
0.00824402
0.00854049
0.00882954
0.00913629
0.00945389
0.0097055
0.00986336
0.0098962
0.00976695
0.00942912
0.00879917
0.00786191
0.0067546
0.00556195
0.00434355
0.00316979
0.00215192
0.0013872
0.000892341
0.000625983
0.000508082
0.000435612
0.000357903
0.00019045
0.00673326
0.00670882
0.00669559
0.00667411
0.00667377
0.00666785
0.00666981
0.0066694
0.00667192
0.00667343
0.00667634
0.00667954
0.00668377
0.00668787
0.00669134
0.00669381
0.00669782
0.00670498
0.00677437
0.00682849
0.00690254
0.00700032
0.00712863
0.00728898
0.00749117
0.00772706
0.00801081
0.00831843
0.00865195
0.0089926
0.00936498
0.00975445
0.0100752
0.0103092
0.0104277
0.0104043
0.0102094
0.00980397
0.00910665
0.00810886
0.00694964
0.00570682
0.00445475
0.00324882
0.00220125
0.00141284
0.00090454
0.000629984
0.000509114
0.000436043
0.000358434
0.00019098
0.00677437
0.00673141
0.00670649
0.0066942
0.00667291
0.00667328
0.00666775
0.00666963
0.00666954
0.00667188
0.00667357
0.00667641
0.00667971
0.00668391
0.006688
0.00669138
0.00669384
0.00669786
0.00670501
0.00682899
0.00690376
0.00700302
0.00713366
0.00729861
0.00750758
0.00775532
0.00805702
0.0083891
0.00876134
0.00915587
0.00959492
0.0100799
0.0105014
0.0108218
0.0110184
0.0110692
0.0109614
0.0106785
0.0101899
0.0094156
0.00835274
0.00714143
0.00584837
0.00456127
0.00332489
0.00224888
0.00143756
0.000916275
0.000633843
0.000510071
0.00043648
0.000358949
0.000191437
0.00682946
0.00677125
0.0067276
0.00670409
0.00669232
0.00667216
0.00667261
0.00666778
0.00666942
0.00666971
0.00667185
0.00667371
0.00667649
0.00667989
0.00668405
0.00668813
0.00669143
0.00669387
0.00669789
0.00670503
0.00690488
0.00700551
0.00713832
0.00730748
0.00752273
0.00778179
0.00810004
0.00845655
0.00886859
0.00931674
0.0098214
0.0104254
0.0110111
0.011474
0.0117597
0.0118687
0.0118036
0.0115733
0.0111756
0.0105865
0.00972518
0.00859282
0.00732825
0.00598685
0.00466326
0.00339784
0.00229471
0.00146132
0.00092752
0.000637523
0.000510994
0.000436853
0.000359407
0.000191831
0.00690593
0.00682558
0.00676476
0.00672383
0.00670172
0.00669008
0.00667184
0.00667179
0.00666791
0.0066692
0.00666989
0.00667183
0.00667386
0.00667659
0.00668005
0.00668419
0.00668825
0.00669147
0.0066939
0.00669793
0.00670506
0.00700778
0.00714261
0.00731565
0.00753671
0.00780645
0.00814001
0.00852109
0.00897246
0.00947214
0.0100463
0.0108067
0.011621
0.0123215
0.0127558
0.0129185
0.0128651
0.0126285
0.0122368
0.0116982
0.0109924
0.0100344
0.00882841
0.00750921
0.00612142
0.00476079
0.00346757
0.00233863
0.0014841
0.000938286
0.00064106
0.000511845
0.00043724
0.000359799
0.000192154
0.00700985
0.00690056
0.006817
0.00675822
0.0067203
0.00669943
0.0066873
0.00667189
0.00667087
0.00666811
0.00666899
0.00667007
0.00667184
0.00667401
0.00667669
0.00668022
0.00668434
0.00668836
0.00669152
0.00669392
0.00669797
0.00670508
0.00714653
0.00732312
0.00754961
0.0078293
0.00817716
0.00858266
0.0090714
0.0096211
0.0102772
0.0112407
0.0123386
0.013333
0.014016
0.0142937
0.0142416
0.0139658
0.0135181
0.0129378
0.0122394
0.0114042
0.0103419
0.00905883
0.00768406
0.00625151
0.0048539
0.00353405
0.0023806
0.00150588
0.000948534
0.000644403
0.00051267
0.00043751
0.000360131
0.000192534
0.0071501
0.00700266
0.00688812
0.00680842
0.006752
0.006717
0.00669779
0.00668417
0.00667215
0.00666993
0.00666834
0.00666881
0.00667023
0.00667187
0.00667414
0.00667681
0.00668037
0.00668447
0.00668846
0.00669156
0.00669395
0.006698
0.00670511
0.00732992
0.00756147
0.00785039
0.00821167
0.00864092
0.00916442
0.009765
0.0105214
0.0117273
0.0131318
0.0144229
0.0153731
0.0158776
0.0159177
0.0156142
0.0150993
0.0144312
0.0136547
0.012789
0.0118176
0.0106459
0.00928342
0.0078526
0.00637672
0.00494265
0.00359729
0.0024206
0.00152666
0.000958323
0.000647621
0.000513325
0.000437773
0.000360447
0.000192921
0.00733604
0.00714049
0.00698504
0.00687561
0.00680007
0.00674609
0.00671382
0.00669654
0.00668095
0.00667249
0.00666905
0.00666853
0.00666871
0.00667037
0.00667194
0.00667426
0.00667693
0.00668052
0.00668461
0.00668856
0.0066916
0.00669398
0.00669804
0.00670512
0.00757231
0.00786974
0.00824369
0.00869552
0.0092514
0.00990606
0.0107808
0.0122482
0.0139412
0.0154833
0.0166567
0.0173867
0.0176512
0.0174561
0.0169241
0.0161944
0.015325
0.0143637
0.0133349
0.0122271
0.0109445
0.00950146
0.00801465
0.00649683
0.00502709
0.00365731
0.00245862
0.00154642
0.000967568
0.000650281
0.000513899
0.000438016
0.000360843
0.000193377
0.00758207
0.00732369
0.00711578
0.00696728
0.00686341
0.00679193
0.00674038
0.00671087
0.00669546
0.00667787
0.00667275
0.00666833
0.00666865
0.00666867
0.00667047
0.00667203
0.00667437
0.00667706
0.00668066
0.00668474
0.00668865
0.00669164
0.006694
0.00669806
0.00670513
0.00788741
0.00827326
0.00874624
0.00933281
0.0100458
0.0110508
0.012776
0.0147097
0.0164313
0.0177563
0.0186543
0.0191315
0.0191832
0.0188047
0.0180983
0.0172003
0.0161657
0.015044
0.0138658
0.0126275
0.0112355
0.00971228
0.00817006
0.00661167
0.00510728
0.00371421
0.0024947
0.00156522
0.000975081
0.000652568
0.000514501
0.000438347
0.000361199
0.000193828
0.00790318
0.00756617
0.00728966
0.00709092
0.00694993
0.00685152
0.00678391
0.00673497
0.00670809
0.00669442
0.00667516
0.00667276
0.00666784
0.00666868
0.00666871
0.00667054
0.00667214
0.00667447
0.0066772
0.0066808
0.00668487
0.00668873
0.00669167
0.00669401
0.00669806
0.00670513
0.00830043
0.00879301
0.00940935
0.0101844
0.0113233
0.0132853
0.0153991
0.0172266
0.0186299
0.019626
0.0202539
0.0205261
0.0204247
0.0199255
0.0191046
0.0180897
0.0169317
0.0156804
0.0143723
0.0130137
0.0115169
0.00991522
0.0083187
0.00672118
0.00518332
0.00376801
0.00252886
0.00158072
0.000981443
0.000655076
0.000515201
0.000438633
0.000361649
0.000194368
0.00832471
0.00788334
0.0075196
0.0072554
0.0070666
0.006933
0.00683991
0.00677597
0.00673001
0.00670536
0.00669323
0.0066733
0.00667245
0.00666759
0.00666863
0.0066688
0.00667061
0.00667226
0.00667457
0.00667734
0.00668093
0.006685
0.00668881
0.00669169
0.006694
0.00669806
0.00670513
0.00883596
0.00948163
0.0103205
0.0115891
0.0137576
0.0159923
0.0178633
0.0192841
0.0203159
0.0210274
0.0214518
0.0215835
0.0213874
0.0208227
0.0199392
0.0188543
0.0176129
0.0162635
0.0148477
0.0133819
0.0117871
0.0101097
0.00846046
0.00682533
0.00525531
0.00381892
0.00255689
0.00159391
0.000988355
0.000657874
0.000515929
0.000439042
0.000362032
0.000194886
0.0088741
0.00829976
0.00782049
0.00747277
0.00722181
0.00704285
0.00691648
0.00682854
0.00676805
0.00672532
0.00670257
0.00669123
0.00667225
0.00667183
0.00666754
0.00666854
0.00666893
0.00667066
0.00667238
0.00667467
0.00667748
0.00668106
0.00668512
0.00668884
0.00669168
0.00669399
0.00669806
0.00670513
0.00954996
0.0104522
0.0118407
0.0141836
0.0164882
0.0183555
0.0197495
0.0207684
0.0215066
0.0220163
0.0223066
0.022353
0.0221084
0.02152
0.0206147
0.0194979
0.0182076
0.0167892
0.0152877
0.0137291
0.0120444
0.0102952
0.00859525
0.00692413
0.00532325
0.00386036
0.00258063
0.00160841
0.00099595
0.000660937
0.000516786
0.000439365
0.000362543
0.000195522
0.00961208
0.00884343
0.00821489
0.00775723
0.00742682
0.00718898
0.00701967
0.00690036
0.00681744
0.0067603
0.00672081
0.00669984
0.00668864
0.00667189
0.00667104
0.00666762
0.00666842
0.00666907
0.00667072
0.00667251
0.00667477
0.00667761
0.00668119
0.00668518
0.00668884
0.00669167
0.00669399
0.00669806
0.00670512
0.0105778
0.0120772
0.0145604
0.0168944
0.0187256
0.0200632
0.0210355
0.0217571
0.022297
0.0226784
0.0228887
0.0228905
0.0226301
0.0220477
0.0211504
0.020031
0.0187196
0.0172572
0.0156904
0.0140535
0.012288
0.0104713
0.00872299
0.00701751
0.00537904
0.00389536
0.00260662
0.00162436
0.0010042
0.000664375
0.00051767
0.000439865
0.000362961
0.000196109
0.0106907
0.00957366
0.0087284
0.00812969
0.00769503
0.00738185
0.00715689
0.00699707
0.00688467
0.00680671
0.00675271
0.00671664
0.00669724
0.00668537
0.00667196
0.00667018
0.00666777
0.00666831
0.00666921
0.00667078
0.00667263
0.00667487
0.00667775
0.00668125
0.00668519
0.00668884
0.00669167
0.006694
0.00669806
0.00670511
0.0122991
0.014887
0.0172226
0.0189973
0.0202606
0.0211643
0.021839
0.0223673
0.0227855
0.0230927
0.023261
0.0232461
0.0229923
0.022436
0.0215675
0.0204668
0.0191557
0.0176698
0.0160556
0.0143541
0.0125168
0.0106376
0.00884347
0.00709356
0.00542645
0.00393356
0.00263507
0.00164193
0.00101329
0.000668119
0.00051877
0.000440236
0.000363551
0.000196852
0.0106473
0.0124965
0.00940664
0.00861463
0.00804572
0.00763408
0.00733785
0.00712557
0.00697506
0.00686947
0.00679651
0.00674541
0.00671282
0.00669564
0.00668202
0.00667219
0.00666938
0.00666792
0.00666824
0.00666935
0.00667085
0.00667275
0.00667497
0.00667782
0.00668125
0.00668519
0.00668884
0.00669168
0.00669401
0.00669804
0.00670508
0.0151649
0.0174854
0.019192
0.0203714
0.021194
0.0218016
0.0222881
0.0227017
0.0230527
0.0233225
0.0234741
0.0234612
0.0232289
0.0227119
0.0218859
0.0208187
0.0195239
0.0180307
0.0163842
0.0146305
0.0127305
0.0107937
0.00894156
0.00715793
0.0054785
0.00397529
0.00266626
0.0016613
0.00102327
0.000672358
0.000519819
0.000440856
0.000364024
0.000197511
0.0103927
0.0124552
0.015392
0.00924606
0.00850294
0.00796326
0.0075744
0.00729486
0.00709506
0.0069537
0.00685482
0.00678682
0.00673859
0.00670934
0.00669442
0.00667891
0.00667241
0.0066687
0.00666805
0.00666819
0.00666947
0.00667093
0.00667287
0.00667501
0.00667782
0.00668125
0.00668519
0.00668884
0.00669169
0.006694
0.006698
0.00670506
0.0176945
0.0193275
0.0204195
0.0211546
0.0216831
0.022107
0.0224849
0.0228384
0.0231587
0.0234151
0.0235667
0.0235684
0.0233679
0.0228986
0.0221238
0.0210999
0.0198324
0.0183443
0.016678
0.0148831
0.0129287
0.0109202
0.0090247
0.00722839
0.00553573
0.00402095
0.00270047
0.00168269
0.00103424
0.000676942
0.000521182
0.000441282
0.00036472
0.00019838
0.010142
0.0120935
0.0153236
0.0178509
0.00909317
0.0083929
0.00788244
0.00751601
0.00725292
0.0070654
0.00693304
0.00684076
0.00677755
0.00673222
0.00670632
0.00669333
0.00667625
0.00667247
0.00666819
0.00666814
0.00666819
0.00666957
0.00667102
0.00667292
0.006675
0.00667782
0.00668125
0.00668519
0.00668884
0.00669167
0.00669398
0.00669796
0.00670503
0.0194181
0.020423
0.0210688
0.0215116
0.0218595
0.0221791
0.0225031
0.0228332
0.0231465
0.0234052
0.0235681
0.0235934
0.0234316
0.0230152
0.0222964
0.0213217
0.0200892
0.0186153
0.0169393
0.0151127
0.0130875
0.0110273
0.00911582
0.00730561
0.00559871
0.00407096
0.00273806
0.00170631
0.0010463
0.000682181
0.000522445
0.00044205
0.000365284
0.000199121
0.00990694
0.0117011
0.0149626
0.0177498
0.0194656
0.00894555
0.00828448
0.00780336
0.00745897
0.00721212
0.00703666
0.00691313
0.00682733
0.0067688
0.0067266
0.00670359
0.00669221
0.00667432
0.00667232
0.00666785
0.00666817
0.00666823
0.00666968
0.00667106
0.00667291
0.00667499
0.00667782
0.00668125
0.00668518
0.00668881
0.00669164
0.00669395
0.00669793
0.006705
0.0203954
0.0209533
0.0213079
0.0215718
0.0218175
0.0220872
0.0223942
0.022725
0.0230464
0.0233177
0.0235002
0.0235561
0.0234378
0.0230771
0.0224166
0.0214942
0.0203014
0.0188485
0.0171708
0.0152931
0.0132211
0.0111443
0.00921577
0.00739032
0.00566808
0.00412583
0.00277938
0.00173245
0.00105964
0.000687795
0.00052415
0.000442545
0.000366113
0.000200135
0.00968698
0.0113139
0.0145127
0.0175133
0.0193116
0.0203362
0.00880145
0.00817792
0.00772615
0.0074034
0.00717256
0.0070089
0.0068941
0.00681481
0.00676071
0.00672177
0.006701
0.00669066
0.00667315
0.00667196
0.00666766
0.00666818
0.00666831
0.00666972
0.00667104
0.0066729
0.00667499
0.00667782
0.00668125
0.00668512
0.00668873
0.0066916
0.00669392
0.00669789
0.00670497
0.0208197
0.0210869
0.0212629
0.0214246
0.0216215
0.0218785
0.0221934
0.0225403
0.0228795
0.0231708
0.0233796
0.0234717
0.0234007
0.0230969
0.0224951
0.0216261
0.0204758
0.0190486
0.0173483
0.015443
0.0133659
0.0112722
0.00932542
0.00748334
0.00574456
0.0041861
0.00282486
0.00176139
0.00107433
0.000694291
0.000525693
0.000443503
0.000366828
0.000200986
0.00947911
0.0109458
0.0140145
0.0171901
0.0191476
0.0201276
0.0206634
0.00866023
0.00807355
0.00765096
0.00734943
0.00713432
0.00698237
0.00687643
0.00680335
0.00675315
0.00671751
0.00669858
0.00668857
0.00667257
0.00667144
0.0066676
0.00666818
0.00666836
0.00666968
0.00667103
0.0066729
0.006675
0.00667782
0.00668119
0.006685
0.00668864
0.00669156
0.00669389
0.00669786
0.00670494
0.0208589
0.0209465
0.0210183
0.0211296
0.0213151
0.0215854
0.0219247
0.0222972
0.0226604
0.0229776
0.0232191
0.0233525
0.0233314
0.0230845
0.0225405
0.0217247
0.0206184
0.0191971
0.0174939
0.0156035
0.0135227
0.0114119
0.00944574
0.00758554
0.00582893
0.0042524
0.00287496
0.00179346
0.00109066
0.000701146
0.000527841
0.000444088
0.000367813
0.000202167
0.0092808
0.0106014
0.0134901
0.0168044
0.0189132
0.0199973
0.0204
0.0206137
0.00852196
0.00797169
0.00757799
0.00729723
0.00709778
0.00695774
0.00686032
0.00679289
0.00674621
0.00671377
0.00669642
0.00668598
0.00667237
0.00667085
0.00666765
0.00666812
0.00666835
0.00666967
0.00667103
0.00667291
0.00667501
0.00667775
0.00668106
0.00668487
0.00668855
0.00669151
0.00669387
0.00669782
0.00670491
0.0206321
0.020612
0.0206291
0.0207272
0.0209285
0.0212301
0.0216039
0.0220074
0.0223993
0.0227484
0.0230286
0.023208
0.0232385
0.0230479
0.0225601
0.0217965
0.0207185
0.019317
0.0176472
0.0157745
0.013692
0.0115643
0.00957774
0.00769791
0.00592207
0.00432544
0.00293025
0.00182904
0.00110872
0.000709193
0.000529755
0.000445306
0.000368769
0.000203432
0.00909031
0.0102822
0.0129505
0.0163683
0.0186347
0.0198098
0.0202742
0.020295
0.0203038
0.00838698
0.00787271
0.00750746
0.0072473
0.00706387
0.00693534
0.00684567
0.00678344
0.00673977
0.00671055
0.00669503
0.00668331
0.00667239
0.0066703
0.00666776
0.006668
0.00666836
0.00666967
0.00667104
0.00667292
0.00667497
0.00667761
0.00668093
0.00668474
0.00668846
0.00669147
0.00669384
0.00669779
0.00670487
0.0202146
0.0201336
0.0201329
0.0202458
0.020483
0.0208272
0.0212406
0.0216783
0.0221036
0.022491
0.0228163
0.0230457
0.023129
0.0229932
0.0225597
0.0218391
0.0207974
0.0194405
0.0178076
0.0159562
0.0138745
0.0117303
0.00972248
0.00782152
0.00602497
0.00440603
0.00299132
0.00186858
0.00112885
0.000717815
0.0005325
0.000446001
0.00037015
0.000205189
0.00890672
0.00998802
0.0124046
0.0158825
0.0183244
0.0195933
0.0200995
0.0201548
0.0199287
0.0198106
0.00825556
0.00777705
0.00744002
0.007201
0.00703307
0.00691498
0.00683239
0.00677506
0.006734
0.00670763
0.00669392
0.00668079
0.00667256
0.00666981
0.00666783
0.00666795
0.00666836
0.00666968
0.00667106
0.00667286
0.00667487
0.00667747
0.0066808
0.00668461
0.00668835
0.00669143
0.00669381
0.00669776
0.00670483
0.0196525
0.0195467
0.0195564
0.0197068
0.0199924
0.020385
0.0208399
0.0213146
0.0217789
0.022212
0.0225889
0.0228718
0.0230082
0.0229258
0.0225447
0.0218703
0.0208756
0.0195666
0.0179745
0.0161482
0.0140703
0.0119107
0.00988106
0.0079575
0.00613871
0.00449508
0.00305889
0.00191254
0.00115125