/*--------------------------------*- C++ -*----------------------------------*\
  =========                 |
  \\      /  F ield         | OpenFOAM: The Open Source CFD Toolbox
   \\    /   O peration     | Website:  https://openfoam.org
    \\  /    A nd           | Version:  8
     \\/     M anipulation  |
\*---------------------------------------------------------------------------*/
FoamFile
{
    version     2.0;
    format      ascii;
    class       surfaceScalarField;
    location    "0.1";
    object      phi;
}
// * * * * * * * * * * * * * * * * * * * * * * * * * * * * * * * * * * * * * //

dimensions      [1 0 -1 0 0 0 0];

internalField   nonuniform List<scalar> 
31053
(
1.25558e-06
1.44505e-05
1.63902e-06
1.76703e-05
7.03232e-07
1.37496e-05
1.77181e-06
2.05738e-05
1.08151e-06
1.72949e-05
5.30125e-07
1.32194e-05
1.79967e-06
2.37307e-05
1.27301e-06
2.03857e-05
9.0774e-07
1.69172e-05
3.95655e-07
1.2821e-05
1.77237e-06
2.73073e-05
1.36227e-06
2.36454e-05
1.13372e-06
2.01598e-05
7.63433e-07
1.65464e-05
3.01832e-07
1.25181e-05
1.71033e-06
3.13565e-05
1.3948e-06
2.72794e-05
1.25348e-06
2.35258e-05
1.01443e-06
1.99054e-05
6.32678e-07
1.62141e-05
2.37158e-07
1.22806e-05
1.6229e-06
3.60303e-05
1.39243e-06
3.13643e-05
1.31337e-06
2.72197e-05
1.15559e-06
2.33808e-05
8.87351e-07
1.96488e-05
5.22873e-07
1.5928e-05
1.89824e-07
1.20915e-05
1.51643e-06
4.1355e-05
1.36642e-06
3.60625e-05
1.3381e-06
3.13398e-05
1.22803e-06
2.7143e-05
1.04251e-06
2.32232e-05
7.65138e-07
1.9406e-05
4.31791e-07
1.56867e-05
1.50438e-07
1.19413e-05
1.396e-06
4.74494e-05
1.32191e-06
4.14066e-05
1.33953e-06
3.60613e-05
1.26059e-06
3.13025e-05
1.12369e-06
2.70588e-05
9.24961e-07
2.30626e-05
6.52913e-07
1.91854e-05
3.5052e-07
1.5487e-05
1.17624e-07
1.18234e-05
1.26468e-06
5.44562e-05
1.26149e-06
4.75179e-05
1.32192e-06
4.14245e-05
1.2672e-06
3.60494e-05
1.16016e-06
3.12624e-05
1.0106e-06
2.69722e-05
8.09693e-07
2.29063e-05
5.44932e-07
1.89917e-05
2.80008e-07
1.53244e-05
8.82477e-08
1.17346e-05
1.12552e-06
6.25165e-05
1.18821e-06
5.45389e-05
1.2865e-06
4.75537e-05
1.25507e-06
4.14307e-05
1.16898e-06
3.60363e-05
1.04773e-06
3.12241e-05
8.95522e-07
2.68868e-05
6.91847e-07
2.27604e-05
4.45635e-07
1.88259e-05
2.15366e-07
1.51968e-05
6.17787e-08
1.1672e-05
9.8206e-07
7.17236e-05
1.10458e-06
6.26109e-05
1.23499e-06
5.45908e-05
1.22794e-06
4.75741e-05
1.15863e-06
4.14361e-05
1.0549e-06
3.60278e-05
9.30127e-07
3.11898e-05
7.73774e-07
2.68062e-05
5.77482e-07
2.26286e-05
3.50598e-07
1.86902e-05
1.55872e-07
1.51017e-05
3.7371e-08
1.16342e-05
8.37643e-07
8.22913e-05
1.01291e-06
7.18276e-05
1.16877e-06
6.26776e-05
1.18641e-06
5.46246e-05
1.13287e-06
4.75941e-05
1.04168e-06
4.14477e-05
9.32133e-07
3.6026e-05
8.0315e-07
3.11621e-05
6.51473e-07
2.67323e-05
4.62755e-07
2.2516e-05
2.59656e-07
1.85853e-05
1.0065e-07
1.50378e-05
1.37049e-08
1.16202e-05
6.95276e-07
9.44383e-05
9.155e-07
8.24028e-05
1.08924e-06
7.19077e-05
1.13046e-06
6.27248e-05
1.09284e-06
5.46581e-05
1.01235e-06
4.76216e-05
9.12023e-07
4.1468e-05
7.97518e-07
3.60336e-05
6.7264e-07
3.11412e-05
5.24706e-07
2.667e-05
3.47804e-07
2.24267e-05
1.7315e-07
1.8512e-05
4.6948e-08
1.50043e-05
-9.00015e-09
1.16291e-05
5.80826e-07
8.95483e-05
8.14618e-07
9.45554e-05
9.98276e-07
8.24944e-05
1.06033e-06
7.19678e-05
1.03854e-06
6.27715e-05
9.68511e-07
5.46998e-05
8.74728e-07
4.76591e-05
7.67876e-07
4.15e-05
6.56493e-07
3.60501e-05
5.34695e-07
3.11308e-05
3.9312e-07
2.66235e-05
2.34545e-07
2.23642e-05
8.75512e-08
1.8471e-05
-5.03632e-09
1.50001e-05
-3.1365e-08
1.16606e-05
4.84216e-07
8.95304e-05
7.28377e-07
8.965e-05
8.98463e-07
9.4656e-05
9.76769e-07
8.25666e-05
9.69782e-07
7.20279e-05
9.10362e-07
6.28272e-05
8.22222e-07
5.47525e-05
7.19611e-07
4.77099e-05
6.14182e-07
4.15427e-05
5.05419e-07
3.60789e-05
3.88353e-07
3.11345e-05
2.5899e-07
2.65976e-05
1.19349e-07
2.23317e-05
3.46911e-09
1.84622e-05
-5.5927e-08
1.50248e-05
-5.38019e-08
1.17144e-05
4.03244e-07
8.95148e-05
6.50577e-07
8.96236e-05
8.10302e-07
8.97388e-05
8.81328e-07
9.47383e-05
8.8666e-07
8.26398e-05
8.3763e-07
7.20978e-05
7.54928e-07
6.28946e-05
6.5493e-07
5.48201e-05
5.51379e-07
4.77733e-05
4.47686e-07
4.16e-05
3.42847e-07
3.61233e-05
2.3551e-07
3.11561e-05
1.19014e-07
2.6597e-05
3.83934e-09
2.2331e-05
-7.94941e-08
1.84857e-05
-1.06569e-07
1.50776e-05
-7.59265e-08
1.17902e-05
3.35991e-07
8.95034e-05
5.80549e-07
8.96002e-05
7.28469e-07
8.97062e-05
7.93947e-07
8.98138e-05
7.90042e-07
9.48236e-05
7.50078e-07
8.27241e-05
6.72659e-07
7.21802e-05
5.74383e-07
6.29785e-05
4.70446e-07
5.49017e-05
3.67244e-07
4.78532e-05
2.66579e-07
4.1675e-05
1.70167e-07
3.61864e-05
7.32009e-08
3.12007e-05
-2.45516e-08
2.66249e-05
-1.11902e-07
2.23632e-05
-1.62037e-07
1.85413e-05
-1.56361e-07
1.51579e-05
-9.75388e-08
1.18876e-05
2.8072e-07
8.9489e-05
5.17527e-07
8.95818e-05
6.52711e-07
8.96766e-05
7.1083e-07
8.97768e-05
7.00381e-07
8.98927e-05
6.48145e-07
9.49218e-05
5.75118e-07
8.28217e-05
4.77865e-07
7.22805e-05
3.72007e-07
6.30777e-05
2.66469e-07
5.50019e-05
1.65124e-07
4.79532e-05
7.17683e-08
4.17709e-05
-1.52318e-08
3.62734e-05
-9.62603e-08
3.12718e-05
-1.71013e-07
2.66837e-05
-2.27885e-07
2.24293e-05
-2.43554e-07
1.86285e-05
-2.0485e-07
1.52651e-05
-1.18408e-07
1.20057e-05
2.35339e-07
8.94791e-05
4.60703e-07
8.95612e-05
5.82643e-07
8.96525e-05
6.32473e-07
8.97425e-05
6.14349e-07
8.98522e-05
5.53221e-07
8.99841e-05
4.62605e-07
9.50343e-05
3.65129e-07
8.29387e-05
2.56052e-07
7.23973e-05
1.45962e-07
6.31975e-05
4.0729e-08
5.51247e-05
-5.45324e-08
4.80767e-05
-1.38979e-07
4.1893e-05
-2.11229e-07
3.63876e-05
-2.71713e-07
3.13721e-05
-3.19527e-07
2.67754e-05
-3.43438e-07
2.25292e-05
-3.2298e-07
1.87465e-05
-2.51662e-07
1.53981e-05
-1.3843e-07
1.21438e-05
1.97759e-07
8.94713e-05
4.09559e-07
8.95456e-05
5.17857e-07
8.96267e-05
5.5905e-07
8.97135e-05
5.32884e-07
8.98134e-05
4.62005e-07
8.99399e-05
3.58359e-07
9.00884e-05
2.3654e-07
9.51678e-05
1.22457e-07
8.30733e-05
5.74038e-09
7.25367e-05
-1.06128e-07
6.33426e-05
-2.06744e-07
5.52738e-05
-2.93533e-07
4.82293e-05
-3.6376e-07
4.20445e-05
-4.16273e-07
3.65316e-05
-4.51589e-07
3.1504e-05
-4.68957e-07
2.69012e-05
-4.56545e-07
2.26627e-05
-3.99807e-07
1.88944e-05
-2.96453e-07
1.55558e-05
-1.5712e-07
1.23006e-05
1.69011e-07
8.17058e-05
3.63748e-07
8.95324e-05
4.58132e-07
8.9606e-05
4.90636e-07
8.96826e-05
4.56515e-07
8.97792e-05
3.75791e-07
8.9896e-05
2.58634e-07
9.00396e-05
1.18387e-07
9.02111e-05
-2.81985e-08
9.53196e-05
-1.54206e-07
8.32323e-05
-2.75464e-07
7.27041e-05
-3.84594e-07
6.35169e-05
-4.77336e-07
5.54553e-05
-5.50147e-07
4.84145e-05
-6.0065e-07
4.22283e-05
-6.28225e-07
3.6708e-05
-6.34094e-07
3.16696e-05
-6.16568e-07
2.70613e-05
-5.6643e-07
2.28291e-05
-4.7328e-07
1.90709e-05
-3.3838e-07
1.57366e-05
-1.74414e-07
1.24747e-05
1.46977e-07
7.34377e-05
3.26039e-07
8.17575e-05
4.03351e-07
8.95879e-05
4.27301e-07
8.96569e-05
3.85583e-07
8.9743e-05
2.95407e-07
8.98561e-05
1.64956e-07
8.99897e-05
6.13015e-09
9.01564e-05
-1.65447e-07
9.03494e-05
-3.33001e-07
9.54974e-05
-4.672e-07
8.34219e-05
-5.88189e-07
7.29037e-05
-6.90441e-07
6.37274e-05
-7.69411e-07
5.56731e-05
-8.22133e-07
4.86352e-05
-8.47039e-07
4.24467e-05
-8.44603e-07
3.6919e-05
-8.16062e-07
3.18693e-05
-7.60843e-07
2.72555e-05
-6.71762e-07
2.30273e-05
-5.42311e-07
1.92744e-05
-3.7712e-07
1.5939e-05
-1.90027e-07
1.26644e-05
1.29784e-07
6.60072e-05
2.95119e-07
7.34812e-05
3.57481e-07
8.1804e-05
3.69088e-07
8.96337e-05
3.20311e-07
8.97116e-05
2.21405e-07
8.98134e-05
7.83839e-08
8.99427e-05
-9.85285e-08
9.00989e-05
-2.94892e-07
9.02869e-05
-4.94698e-07
9.05102e-05
-6.80141e-07
9.57078e-05
-8.17394e-07
8.36466e-05
-9.33138e-07
7.31434e-05
-1.02205e-06
6.39784e-05
-1.08045e-06
5.59306e-05
-1.10643e-06
4.88942e-05
-1.09976e-06
4.27023e-05
-1.0619e-06
3.71652e-05
-9.94978e-07
3.21034e-05
-8.99838e-07
2.74833e-05
-7.71059e-07
2.32557e-05
-6.06081e-07
1.95029e-05
-4.12116e-07
1.61607e-05
-2.03817e-07
1.2868e-05
1.16175e-07
5.93293e-05
2.6945e-07
6.60442e-05
3.19534e-07
7.35197e-05
3.20311e-07
8.18414e-05
2.6084e-07
8.96825e-05
1.54145e-07
8.97753e-05
-3.50436e-10
8.98922e-05
-1.94325e-07
9.0043e-05
-4.1464e-07
9.02197e-05
-6.4624e-07
9.04375e-05
-8.7166e-07
9.06993e-05
-1.07069e-06
9.5956e-05
-1.2053e-06
8.39153e-05
-1.30864e-06
7.34281e-05
-1.37668e-06
6.42736e-05
-1.40694e-06
5.62306e-05
-1.39918e-06
4.9194e-05
-1.35492e-06
4.29958e-05
-1.27659e-06
3.74468e-05
-1.16831e-06
3.23716e-05
-1.0314e-06
2.77433e-05
-8.63078e-07
2.35122e-05
-6.63793e-07
1.97542e-05
-4.43096e-07
1.63997e-05
-2.15693e-07
1.30835e-05
1.05258e-07
5.3326e-05
2.47918e-07
5.9361e-05
2.88013e-07
6.60763e-05
2.79959e-07
7.35498e-05
2.11678e-07
8.18809e-05
9.38562e-08
8.97393e-05
-7.07545e-08
8.98458e-05
-2.8035e-07
8.99827e-05
-5.23209e-07
9.01526e-05
-7.85515e-07
9.0358e-05
-1.05028e-06
9.06138e-05
-1.29758e-06
9.09214e-05
-1.50508e-06
9.62518e-05
-1.62912e-06
8.42336e-05
-1.71173e-06
7.3762e-05
-1.75032e-06
6.46164e-05
-1.74434e-06
5.65761e-05
-1.69597e-06
4.95356e-05
-1.60802e-06
4.33273e-05
-1.48554e-06
3.77638e-05
-1.33318e-06
3.2673e-05
-1.15382e-06
2.80336e-05
-9.46522e-07
2.37945e-05
-7.14961e-07
2.00257e-05
-4.69766e-07
1.66536e-05
-2.25491e-07
1.33089e-05
9.64102e-08
4.79314e-05
2.2968e-07
5.33534e-05
2.61724e-07
5.93877e-05
2.46425e-07
6.61006e-05
1.71706e-07
7.35811e-05
4.49911e-08
8.19266e-05
-1.32498e-07
8.98011e-05
-3.55974e-07
8.99259e-05
-6.19475e-07
9.008e-05
-9.10791e-07
9.02769e-05
-1.21362e-06
9.0519e-05
-1.50843e-06
9.08199e-05
-1.77289e-06
9.11855e-05
-1.98138e-06
9.66016e-05
-2.08573e-06
8.46063e-05
-2.13796e-06
7.41489e-05
-2.13774e-06
6.50101e-05
-2.0876e-06
5.69684e-05
-1.99148e-06
4.99193e-05
-1.85529e-06
4.36969e-05
-1.68513e-06
3.81154e-05
-1.48719e-06
3.30059e-05
-1.26532e-06
2.83518e-05
-1.0206e-06
2.40997e-05
-7.59072e-07
2.03147e-05
-4.91911e-07
1.69198e-05
-2.3328e-07
1.3542e-05
8.91638e-08
4.30819e-05
2.14112e-07
4.79551e-05
2.39726e-07
5.33758e-05
2.18444e-07
5.94074e-05
1.39187e-07
6.61253e-05
6.14103e-09
7.36171e-05
-1.81156e-07
8.19753e-05
-4.20762e-07
8.98704e-05
-7.02619e-07
9.001e-05
-1.0207e-06
9.0189e-05
-1.35965e-06
9.04206e-05
-1.70053e-06
9.07063e-05
-2.02123e-06
9.10645e-05
-2.29561e-06
9.14974e-05
-2.49638e-06
9.70108e-05
-2.57027e-06
8.50378e-05
-2.58138e-06
7.45929e-05
-2.5332e-06
6.54565e-05
-2.43061e-06
5.74078e-05
-2.2811e-06
5.03449e-05
-2.09228e-06
4.41036e-05
-1.87225e-06
3.85e-05
-1.62806e-06
3.33681e-05
-1.36447e-06
2.86951e-05
-1.08465e-06
2.44248e-05
-7.95851e-07
2.06184e-05
-5.09509e-07
1.71958e-05
-2.39104e-07
1.37811e-05
8.31812e-08
3.87257e-05
2.00737e-07
4.31026e-05
2.21234e-07
4.7974e-05
1.95028e-07
5.33917e-05
1.12685e-07
5.94269e-05
-2.46941e-08
6.61536e-05
-2.18535e-07
7.36545e-05
-4.70207e-07
8.20288e-05
-7.72052e-07
8.99409e-05
-1.11421e-06
9.01026e-05
-1.48669e-06
9.03136e-05
-1.8715e-06
9.05868e-05
-2.24697e-06
9.09284e-05
-2.58668e-06
9.13532e-05
-2.86256e-06
9.18621e-05
-3.04487e-06
9.74844e-05
-3.07604e-06
8.55327e-05
-3.03545e-06
7.50959e-05
-2.92972e-06
6.59558e-05
-2.76776e-06
5.78943e-05
-2.55954e-06
5.08117e-05
-2.3152e-06
4.45461e-05
-2.044e-06
3.89154e-05
-1.75379e-06
3.37567e-05
-1.45047e-06
2.90604e-05
-1.13823e-06
2.47668e-05
-8.25183e-07
2.09338e-05
-5.22828e-07
1.74794e-05
-2.42694e-07
1.40237e-05
7.81975e-08
3.48065e-05
1.89192e-07
3.87439e-05
2.05592e-07
4.31186e-05
1.75367e-07
4.7987e-05
9.10017e-08
5.34071e-05
-4.91396e-08
5.94491e-05
-2.46995e-07
6.61821e-05
-5.06624e-07
7.36946e-05
-8.23151e-07
8.20808e-05
-1.19055e-06
9.00162e-05
-1.59344e-06
9.0207e-05
-2.01932e-06
9.04567e-05
-2.44733e-06
9.07835e-05
-2.85101e-06
9.11904e-05
-3.20175e-06
9.1691e-05
-3.46826e-06
9.22846e-05
-3.61936e-06
9.8028e-05
-3.59568e-06
8.60938e-05
-3.49231e-06
7.56588e-05
-3.32069e-06
6.65086e-05
-3.09294e-06
5.84272e-05
-2.8223e-06
5.13183e-05
-2.52046e-06
4.5022e-05
-2.19789e-06
3.93587e-05
-1.86315e-06
3.41688e-05
-1.52264e-06
2.94444e-05
-1.18111e-06
2.51225e-05
-8.47453e-07
2.12582e-05
-5.31418e-07
1.77681e-05
-2.51097e-07
1.42748e-05
7.40171e-08
3.12842e-05
1.79182e-07
3.48224e-05
1.92286e-07
3.87575e-05
1.58773e-07
4.31291e-05
7.3217e-08
4.79991e-05
-6.85213e-08
5.34245e-05
-2.68453e-07
5.94706e-05
-5.32849e-07
6.62116e-05
-8.58901e-07
7.37312e-05
-1.2448e-06
8.21342e-05
-1.67892e-06
9.00993e-05
-2.14238e-06
9.03252e-05
-2.61991e-06
9.06256e-05
-3.08538e-06
9.10155e-05
-3.50987e-06
9.14971e-05
-3.86081e-06
9.20826e-05
-4.10467e-06
9.27702e-05
-4.2118e-06
9.86451e-05
-4.12048e-06
8.67223e-05
-3.94436e-06
7.62823e-05
-3.69905e-06
6.71142e-05
-3.40081e-06
5.90051e-05
-3.06498e-06
5.18621e-05
-2.70499e-06
4.55283e-05
-2.3321e-06
3.98269e-05
-1.95521e-06
3.46007e-05
-1.5806e-06
2.98434e-05
-1.21374e-06
2.54885e-05
-8.62278e-07
2.1589e-05
-5.41789e-07
1.80587e-05
-3.09095e-07
1.45839e-05
7.04817e-08
2.81213e-05
1.70473e-07
3.12983e-05
1.80903e-07
3.48341e-05
1.44703e-07
3.87661e-05
5.86045e-08
4.31387e-05
-8.38893e-08
4.80126e-05
-2.8445e-07
5.34405e-05
-5.51173e-07
5.94919e-05
-8.82769e-07
6.62362e-05
-1.28074e-06
7.37664e-05
-1.73777e-06
8.21909e-05
-2.2394e-06
9.01916e-05
-2.76271e-06
9.04644e-05
-3.28691e-06
9.08249e-05
-3.78317e-06
9.12874e-05
-4.2179e-06
9.18533e-05
-4.55547e-06
9.25337e-05
-4.76328e-06
9.33225e-05
-4.81263e-06
9.93376e-05
-4.64178e-06
8.74195e-05
-4.3834e-06
7.6966e-05
-4.0585e-06
6.77711e-05
-3.68608e-06
5.96254e-05
-3.28387e-06
5.24402e-05
-2.86643e-06
4.60617e-05
-2.44545e-06
4.03164e-05
-2.02941e-06
3.5049e-05
-1.62481e-06
3.02542e-05
-1.23587e-06
2.58618e-05
-8.74718e-07
2.19218e-05
-6.70303e-07
1.84199e-05
-2.95593e-07
1.48794e-05
6.7474e-08
2.52778e-05
1.62869e-07
2.81337e-05
1.71117e-07
3.13083e-05
1.32719e-07
3.48412e-05
4.65663e-08
3.87736e-05
-9.60692e-08
4.31492e-05
-2.96212e-07
4.80244e-05
-5.63432e-07
5.34554e-05
-8.97555e-07
5.95073e-05
-1.30262e-06
6.62574e-05
-1.7747e-06
7.38013e-05
-2.30442e-06
8.22515e-05
-2.87411e-06
9.02993e-05
-3.45316e-06
9.06284e-05
-4.01824e-06
9.10586e-05
-4.53518e-06
9.16038e-05
-4.96655e-06
9.22647e-05
-5.27689e-06
9.30481e-05
-5.43382e-06
9.3944e-05
-5.41203e-06
0.000100108
-5.15006e-06
8.81855e-05
-4.80206e-06
7.77088e-05
-4.39272e-06
6.8477e-05
-3.94424e-06
6.02849e-05
-3.47602e-06
5.30487e-05
-3.0032e-06
4.66186e-05
-2.53712e-06
4.08234e-05
-2.08612e-06
3.55099e-05
-1.65516e-06
3.06731e-05
-1.25124e-06
2.62382e-05
-1.08327e-06
2.23347e-05
-6.53024e-07
1.87773e-05
-2.88225e-07
1.51676e-05
6.48978e-08
2.27184e-05
1.56217e-07
2.52887e-05
1.62661e-07
2.81423e-05
1.22475e-07
3.13141e-05
3.6611e-08
3.4847e-05
-1.05713e-07
3.87817e-05
-3.04712e-07
4.31577e-05
-5.71076e-07
4.80345e-05
-9.05495e-07
5.3464e-05
-1.31385e-06
5.95179e-05
-1.79488e-06
6.62758e-05
-2.34325e-06
7.38362e-05
-2.94737e-06
8.23215e-05
-3.58212e-06
9.0426e-05
-4.21215e-06
9.08209e-05
-4.80866e-06
9.13312e-05
-5.3329e-06
9.19705e-05
-5.74679e-06
9.27353e-05
-6.01424e-06
9.36288e-05
-6.10551e-06
9.46372e-05
-5.99914e-06
0.000100956
-5.63682e-06
8.90193e-05
-5.19287e-06
7.8508e-05
-4.69634e-06
6.9228e-05
-4.17174e-06
6.09794e-05
-3.63935e-06
5.36839e-05
-3.11421e-06
4.71948e-05
-2.60733e-06
4.1344e-05
-2.12534e-06
3.59796e-05
-1.67432e-06
3.10959e-05
-1.55039e-06
2.67051e-05
-1.06293e-06
2.27445e-05
-6.36891e-07
1.91259e-05
-2.7968e-07
1.54472e-05
2.04221e-05
6.26769e-08
1.50389e-07
2.27281e-05
1.55327e-07
2.52962e-05
1.13689e-07
2.81471e-05
2.83447e-08
3.13187e-05
-1.1334e-07
3.48533e-05
-3.10712e-07
3.87878e-05
-5.75252e-07
4.31641e-05
-9.08353e-07
4.80379e-05
-1.31716e-06
5.34667e-05
-1.80247e-06
5.95239e-05
-2.36211e-06
6.62911e-05
-2.98942e-06
7.38753e-05
-3.66592e-06
8.24033e-05
-4.36238e-06
9.05749e-05
-5.03482e-06
9.10462e-05
-5.64988e-06
9.16485e-05
-6.16731e-06
9.23918e-05
-6.54741e-06
9.32688e-05
-6.75597e-06
9.4279e-05
-6.76639e-06
9.54037e-05
-6.56421e-06
0.000101882
-6.09334e-06
8.99188e-05
-5.54949e-06
7.936e-05
-4.96506e-06
7.002e-05
-4.36587e-06
6.17048e-05
-3.77247e-06
5.43412e-05
-3.19948e-06
4.77863e-05
-2.65614e-06
4.18743e-05
-2.14899e-06
3.64539e-05
-2.07544e-06
3.16207e-05
-1.52667e-06
2.71687e-05
-1.03822e-06
2.31458e-05
-6.17613e-07
1.94638e-05
-2.69518e-07
1.57167e-05
2.04307e-05
1.45283e-07
3.26479e-05
5.88265e-08
1.48946e-07
2.27346e-05
1.06132e-07
2.53002e-05
2.14472e-08
2.81507e-05
-1.19365e-07
3.13235e-05
-3.14806e-07
3.48574e-05
-5.76855e-07
3.87913e-05
-9.07513e-07
4.31637e-05
-1.3147e-06
4.80349e-05
-1.8008e-06
5.34636e-05
-2.36605e-06
5.95247e-05
-3.00773e-06
6.63067e-05
-3.7128e-06
7.39204e-05
-4.45967e-06
8.24993e-05
-5.21056e-06
9.07498e-05
-5.91327e-06
9.13099e-05
-6.53304e-06
9.20149e-05
-7.02695e-06
9.28715e-05
-7.35629e-06
9.38688e-05
-7.48917e-06
9.5001e-05
-7.40564e-06
9.62442e-05
-7.09713e-06
0.000102885
-6.5121e-06
9.08801e-05
-5.86673e-06
8.02602e-05
-5.19547e-06
7.08484e-05
-4.5249e-06
6.24562e-05
-3.87519e-06
5.50161e-05
-3.2591e-06
4.83886e-05
-2.68499e-06
4.24099e-05
-2.66451e-06
3.70425e-05
-2.0479e-06
3.21417e-05
-1.49291e-06
2.76233e-05
-1.00745e-06
2.35356e-05
-5.94862e-07
1.97891e-05
-2.58117e-07
1.59747e-05
2.04363e-05
1.43383e-07
3.26621e-05
1.36669e-07
3.35163e-05
5.50866e-08
9.96133e-08
2.27379e-05
1.5666e-08
2.5303e-05
-1.24116e-07
2.81543e-05
-3.17458e-07
3.13262e-05
-5.76581e-07
3.48589e-05
-9.04041e-07
3.87883e-05
-1.30813e-06
4.31567e-05
-1.79246e-06
4.80252e-05
-2.35908e-06
5.34537e-05
-3.00833e-06
5.95229e-05
-3.73157e-06
6.63239e-05
-4.51356e-06
7.39732e-05
-5.32477e-06
8.26128e-05
-6.11929e-06
9.09562e-05
-6.83898e-06
9.16166e-05
-7.44666e-06
9.24348e-05
-7.89937e-06
9.34143e-05
-8.15977e-06
9.45386e-05
-8.20208e-06
9.57965e-05
-8.01189e-06
9.71578e-05
-7.5891e-06
0.00010396
-6.88689e-06
9.18986e-05
-6.14032e-06
8.12036e-05
-5.38536e-06
7.17077e-05
-4.64835e-06
6.32284e-05
-3.94754e-06
5.57038e-05
-3.29421e-06
4.89973e-05
-3.32967e-06
4.30745e-05
-2.63253e-06
3.76268e-05
-2.00444e-06
3.26531e-05
-1.44967e-06
2.80655e-05
-9.70824e-07
2.39115e-05
-5.69576e-07
2.01005e-05
-2.45851e-07
1.62205e-05
2.04391e-05
9.39725e-08
3.26711e-05
1.34577e-07
3.35306e-05
1.28241e-07
3.44083e-05
5.14678e-08
1.07975e-08
2.27401e-05
-1.27855e-07
2.53057e-05
-3.19029e-07
2.81559e-05
-5.74965e-07
3.13261e-05
-8.98762e-07
3.4854e-05
-1.29875e-06
3.87785e-05
-1.77949e-06
4.31425e-05
-2.34437e-06
4.8008e-05
-2.99605e-06
5.34393e-05
-3.72938e-06
5.95192e-05
-4.53433e-06
6.63437e-05
-5.38836e-06
7.40361e-05
-6.2545e-06
8.27484e-05
-7.08057e-06
9.11985e-05
-7.80068e-06
9.19708e-05
-8.37816e-06
9.29133e-05
-8.77034e-06
9.40241e-05
-8.94526e-06
9.52809e-05
-8.88215e-06
9.66656e-05
-8.5751e-06
9.81424e-05
-8.03263e-06
0.000105104
-7.21245e-06
9.29691e-05
-6.36749e-06
8.21844e-05
-5.53393e-06
7.25922e-05
-4.73614e-06
6.40162e-05
-3.99053e-06
5.63995e-05
-4.08611e-06
4.97531e-05
-3.29254e-06
4.3734e-05
-2.57853e-06
3.82007e-05
-1.94755e-06
3.31508e-05
-1.39788e-06
2.84925e-05
-9.29947e-07
2.42718e-05
-5.42516e-07
2.03971e-05
-2.33082e-07
1.64535e-05
2.04407e-05
6.68165e-09
3.26744e-05
8.60948e-08
3.35394e-05
1.26e-07
3.44225e-05
1.2e-07
3.53213e-05
4.79706e-08
-1.30786e-07
2.27421e-05
-3.19795e-07
2.53065e-05
-5.72421e-07
2.81548e-05
-8.923e-07
3.132e-05
-1.28755e-06
3.48424e-05
-1.76347e-06
3.87614e-05
-2.32439e-06
4.31202e-05
-2.97468e-06
4.79847e-05
-3.71197e-06
5.34206e-05
-4.53038e-06
5.95144e-05
-5.41318e-06
6.6368e-05
-6.33113e-06
7.41131e-05
-7.24144e-06
8.29099e-05
-8.08352e-06
9.14815e-05
-8.78587e-06
9.23781e-05
-9.31298e-06
9.34552e-05
-9.62666e-06
9.47046e-05
-9.6992e-06
9.60968e-05
-9.51819e-06
9.76073e-05
-9.08662e-06
9.91947e-05
-8.4213e-06
0.000106311
-7.48519e-06
9.40853e-05
-6.54698e-06
8.31963e-05
-5.64091e-06
7.3496e-05
-4.78924e-06
6.48142e-05
-4.95155e-06
5.72642e-05
-4.04336e-06
5.05034e-05
-3.22705e-06
4.43822e-05
-2.50666e-06
3.87597e-05
-1.8791e-06
3.3632e-05
-1.33979e-06
2.89023e-05
-8.8614e-07
2.46154e-05
-5.14388e-07
2.06783e-05
-2.20102e-07
1.66736e-05
2.04422e-05
-1.33082e-07
3.2674e-05
3.11554e-09
3.35424e-05
7.85318e-08
3.44312e-05
1.17658e-07
3.53356e-05
1.11945e-07
3.62602e-05
4.45917e-08
-3.19968e-07
2.27423e-05
-5.69262e-07
2.53046e-05
-8.85126e-07
2.8148e-05
-1.27527e-06
3.13074e-05
-1.74557e-06
3.48235e-05
-2.30101e-06
3.87359e-05
-2.94718e-06
4.3091e-05
-3.68385e-06
4.79554e-05
-4.50844e-06
5.33979e-05
-5.40896e-06
5.95097e-05
-6.36268e-06
6.63998e-05
-7.33509e-06
7.42073e-05
-8.27531e-06
8.31018e-05
-9.116e-06
9.18113e-05
-9.77991e-06
9.28443e-05
-1.02375e-05
9.40651e-05
-1.04539e-05
9.54581e-05
-1.04093e-05
9.69864e-05
-1.01004e-05
9.86193e-05
-9.53882e-06
0.00010031
-8.75049e-06
0.000107575
-7.70329e-06
9.52402e-05
-6.67824e-06
8.42325e-05
-5.70721e-06
7.44131e-05
-5.94567e-06
6.58074e-05
-4.90308e-06
5.81233e-05
-3.96548e-06
5.12414e-05
-3.1387e-06
4.5014e-05
-2.41985e-06
3.93003e-05
-1.80201e-06
3.40942e-05
-1.27736e-06
2.92935e-05
-8.40551e-07
2.49415e-05
-4.85801e-07
2.09439e-05
-2.07143e-07
1.68806e-05
2.0442e-05
-3.19705e-07
3.26706e-05
-1.31004e-07
3.35414e-05
-8.12239e-11
3.44338e-05
7.13472e-08
3.53441e-05
1.0957e-07
3.62745e-05
1.04089e-07
3.72226e-05
4.13242e-08
-5.65724e-07
2.27399e-05
-8.7759e-07
2.52974e-05
-1.26248e-06
2.81348e-05
-1.72669e-06
3.12876e-05
-2.27567e-06
3.47963e-05
-2.9158e-06
3.8703e-05
-3.64854e-06
4.30546e-05
-4.47384e-06
4.79201e-05
-5.38352e-06
5.3372e-05
-6.36027e-06
5.95076e-05
-7.37668e-06
6.64419e-05
-8.39061e-06
7.43227e-05
-9.34444e-06
8.33298e-05
-1.01635e-05
9.21941e-05
-1.0769e-05
9.33749e-05
-1.11366e-05
9.47467e-05
-1.12388e-05
9.62861e-05
-1.10646e-05
9.7949e-05
-1.06198e-05
9.96987e-05
-9.92605e-06
0.000101484
-9.01756e-06
0.000108888
-7.86575e-06
9.64265e-05
-6.76201e-06
8.52864e-05
-7.09034e-06
7.55568e-05
-5.89189e-06
6.67955e-05
-4.81195e-06
5.89692e-05
-3.85907e-06
5.19614e-05
-3.0316e-06
4.56256e-05
-2.32178e-06
3.982e-05
-1.71894e-06
3.45357e-05
-1.21226e-06
2.96652e-05
-7.94165e-07
2.52498e-05
-4.57259e-07
2.1194e-05
-1.94396e-07
1.70749e-05
2.04393e-05
-5.61993e-07
3.26605e-05
-3.09546e-07
3.35375e-05
-1.28444e-07
3.44322e-05
-2.88985e-09
3.53463e-05
6.45512e-08
3.62828e-05
1.01732e-07
3.72369e-05
9.64421e-08
3.82131e-05
3.81716e-08
-8.69949e-07
2.27325e-05
-1.24957e-06
2.52842e-05
-1.7075e-06
2.81148e-05
-2.24945e-06
3.12597e-05
-2.88227e-06
3.47614e-05
-3.60875e-06
3.86623e-05
-4.43074e-06
4.30109e-05
-5.34311e-06
4.78793e-05
-6.33294e-06
5.3345e-05
-7.37882e-06
5.95102e-05
-8.44626e-06
6.64976e-05
-9.48663e-06
7.44645e-05
-1.04348e-05
8.36004e-05
-1.12124e-05
9.26366e-05
-1.17376e-05
9.39748e-05
-1.19963e-05
9.55027e-05
-1.19694e-05
9.71892e-05
-1.16552e-05
9.89827e-05
-1.107e-05
0.000100841
-1.02449e-05
0.00010271
-9.2209e-06
0.000110241
-7.97302e-06
9.76364e-05
-8.40872e-06
8.66036e-05
-7.03245e-06
7.66965e-05
-5.78686e-06
6.77698e-05
-4.68584e-06
5.97956e-05
-3.72952e-06
5.26591e-05
-2.91027e-06
4.6214e-05
-2.21586e-06
4.03169e-05
-1.63218e-06
3.49556e-05
-1.14593e-06
3.00169e-05
-7.47805e-07
2.55403e-05
-4.29179e-07
2.14287e-05
-1.81982e-07
1.72569e-05
2.0432e-05
-8.62381e-07
3.26414e-05
-5.41212e-07
3.35267e-05
-2.98713e-07
3.44277e-05
-1.25305e-07
3.53441e-05
-5.29292e-09
3.62846e-05
5.81472e-08
3.7245e-05
9.41454e-08
3.82275e-05
8.89962e-08
3.92295e-05
3.51219e-08
-1.23685e-06
2.27195e-05
-1.68847e-06
2.52644e-05
-2.22312e-06
2.8087e-05
-2.84787e-06
3.1224e-05
-3.56654e-06
3.47183e-05
-4.38235e-06
3.86133e-05
-5.29259e-06
4.29601e-05
-6.28787e-06
4.78345e-05
-7.35178e-06
5.33183e-05
-8.45636e-06
5.95203e-05
-9.56103e-06
6.65717e-05
-1.06097e-05
7.46388e-05
-1.15329e-05
8.392e-05
-1.22469e-05
9.31447e-05
-1.26711e-05
9.46481e-05
-1.28037e-05
9.63353e-05
-1.26346e-05
9.81669e-05
-1.21732e-05
0.000100084
-1.14463e-05
0.000102041
-1.0493e-05
0.000103981
-9.36055e-06
0.000111628
-9.9271e-06
9.91535e-05
-8.34921e-06
8.79194e-05
-6.91334e-06
7.78222e-05
-5.63939e-06
6.87229e-05
-4.53144e-06
6.05972e-05
-3.58234e-06
5.33311e-05
-2.77893e-06
4.6777e-05
-2.10503e-06
4.07897e-05
-1.54362e-06
3.53533e-05
-1.07953e-06
3.03486e-05
-7.0215e-07
2.58132e-05
-4.01824e-07
2.16485e-05
-1.70019e-07
1.74268e-05
2.04194e-05
-1.22452e-06
3.26079e-05
-8.28455e-07
3.35068e-05
-5.19596e-07
3.44161e-05
-2.87188e-07
3.53389e-05
-1.21629e-07
3.62818e-05
-7.30559e-09
3.72464e-05
5.21391e-08
3.82354e-05
8.68087e-08
3.92439e-05
8.17686e-08
4.02693e-05
3.21691e-08
-1.66995e-06
2.27004e-05
-2.19726e-06
2.52371e-05
-2.81354e-06
2.80515e-05
-3.52343e-06
3.11801e-05
-4.33111e-06
3.46666e-05
-5.23574e-06
3.85562e-05
-6.23074e-06
4.29032e-05
-7.30381e-06
4.77869e-05
-8.43248e-06
5.32945e-05
-9.5832e-06
5.95422e-05
-1.07081e-05
6.66696e-05
-1.17467e-05
7.48519e-05
-1.26231e-05
8.42952e-05
-1.3252e-05
9.37239e-05
-1.35558e-05
9.53985e-05
-1.35465e-05
9.72457e-05
-1.32253e-05
9.92176e-05
-1.26131e-05
0.00010125
-1.17457e-05
0.000103293
-1.06699e-05
0.000105289
-1.16748e-05
0.000113374
-9.87081e-06
0.000100674
-8.21673e-06
8.9222e-05
-6.74295e-06
7.89253e-05
-5.45749e-06
6.96486e-05
-4.35536e-06
6.13701e-05
-3.42262e-06
5.39747e-05
-2.64127e-06
4.73132e-05
-1.99174e-06
4.12378e-05
-1.45487e-06
3.57286e-05
-1.01408e-06
3.06605e-05
-6.57634e-07
2.60689e-05
-3.75449e-07
2.18538e-05
-1.58578e-07
1.75853e-05
2.0401e-05
-1.65216e-06
3.25576e-05
-1.17457e-06
3.34723e-05
-7.93445e-07
3.43953e-05
-4.97004e-07
3.53265e-05
-2.74922e-07
3.6276e-05
-1.17392e-07
3.72429e-05
-8.92465e-09
3.82364e-05
4.65309e-08
3.92516e-05
7.97274e-08
4.02838e-05
7.47566e-08
4.1342e-05
2.93104e-08
-2.17226e-06
2.26741e-05
-2.77996e-06
2.52025e-05
-3.48055e-06
2.80079e-05
-4.27884e-06
3.11274e-05
-5.17544e-06
3.4606e-05
-6.16595e-06
3.84916e-05
-7.24144e-06
4.28412e-05
-8.38396e-06
4.77384e-05
-9.56602e-06
5.3277e-05
-1.07472e-05
5.95808e-05
-1.18751e-05
6.67974e-05
-1.28824e-05
7.51102e-05
-1.36903e-05
8.4732e-05
-1.42134e-05
9.43798e-05
-1.43786e-05
9.6229e-05
-1.42146e-05
9.82335e-05
-1.37351e-05
0.000100338
-1.29708e-05
0.000102474
-1.19669e-05
0.000104588
-1.33334e-05
0.000106947
-1.1631e-05
0.000115133
-9.72781e-06
0.000102184
-8.02257e-06
9.0501e-05
-6.53079e-06
7.99982e-05
-5.24905e-06
7.05421e-05
-4.16371e-06
6.2111e-05
-3.25487e-06
5.45882e-05
-2.50036e-06
4.78218e-05
-1.87805e-06
4.1661e-05
-1.36727e-06
3.60818e-05
-9.50204e-07
3.0953e-05
-6.14677e-07
2.63081e-05
-3.50217e-07
2.20454e-05
-1.47693e-07
1.77329e-05
2.0376e-05
-2.14837e-06
3.24873e-05
-1.58282e-06
3.34206e-05
-1.12327e-06
3.43597e-05
-7.57322e-07
3.53049e-05
-4.73494e-07
3.62628e-05
-2.61982e-07
3.72365e-05
-1.12624e-07
3.82323e-05
-1.01641e-08
3.92522e-05
4.12989e-08
4.02913e-05
7.28883e-08
4.13566e-05
6.79574e-08
4.24406e-05
2.65349e-08
-2.7476e-06
2.26408e-05
-3.4387e-06
2.516e-05
-4.22687e-06
2.79556e-05
-5.11386e-06
3.10656e-05
-6.09689e-06
3.45372e-05
-7.16977e-06
3.84202e-05
-8.31826e-06
4.27755e-05
-9.52e-06
4.76921e-05
-1.0741e-05
5.32704e-05
-1.19365e-05
5.96416e-05
-1.30471e-05
6.69613e-05
-1.40017e-05
7.54203e-05
-1.472e-05
8.52371e-05
-1.51172e-05
9.51168e-05
-1.51281e-05
9.7141e-05
-1.48004e-05
9.92975e-05
-1.41585e-05
0.000101525
-1.3244e-05
0.00010375
-1.4987e-05
0.000106241
-1.33114e-05
0.000108626
-1.1484e-05
0.000116888
-9.51101e-06
0.000103672
-7.7779e-06
9.17477e-05
-6.28621e-06
8.10351e-05
-5.0213e-06
7.13995e-05
-3.96192e-06
6.2818e-05
-3.08286e-06
5.51707e-05
-2.35877e-06
4.83025e-05
-1.76573e-06
4.20594e-05
-1.2817e-06
3.64132e-05
-8.88513e-07
3.12268e-05
-5.73552e-07
2.65314e-05
-3.26205e-07
2.22238e-05
-1.37394e-07
1.78703e-05
2.03443e-05
-2.71677e-06
3.23932e-05
-2.05612e-06
3.33486e-05
-1.51164e-06
3.43064e-05
-1.07027e-06
3.52681e-05
-7.199e-07
3.62404e-05
-4.49075e-07
3.72226e-05
-2.48406e-07
3.82252e-05
-1.07338e-07
3.92474e-05
-1.10224e-08
4.02916e-05
3.64522e-08
4.13639e-05
6.6281e-08
4.24552e-05
6.13702e-08
4.29498e-05
2.38793e-08
-3.39845e-06
2.26e-05
-4.17617e-06
2.5109e-05
-5.05257e-06
2.78941e-05
-6.02609e-06
3.0995e-05
-7.09274e-06
3.44604e-05
-8.24124e-06
3.83432e-05
-9.45354e-06
4.27088e-05
-1.07012e-05
4.7652e-05
-1.19462e-05
5.32796e-05
-1.31368e-05
5.97304e-05
-1.42094e-05
6.71677e-05
-1.50901e-05
7.5789e-05
-1.56976e-05
8.58161e-05
-1.59511e-05
9.59384e-05
-1.57956e-05
9.81349e-05
-1.52972e-05
0.000100435
-1.44923e-05
0.000102772
-1.66279e-05
0.000105389
-1.49986e-05
0.000107927
-1.31704e-05
0.000110311
-1.12484e-05
0.000118625
-9.23307e-06
0.000105127
-7.49375e-06
9.29549e-05
-6.01781e-06
8.20314e-05
-4.78081e-06
7.22183e-05
-3.75456e-06
6.34897e-05
-2.90975e-06
5.57216e-05
-2.21872e-06
4.87555e-05
-1.6559e-06
4.24336e-05
-1.19897e-06
3.67236e-05
-8.29407e-07
3.14826e-05
-5.34392e-07
2.67395e-05
-3.03479e-07
2.23899e-05
-1.277e-07
1.79979e-05
2.03055e-05
-3.36014e-06
3.22728e-05
-2.59766e-06
3.32526e-05
-1.96205e-06
3.42327e-05
-1.43875e-06
3.52135e-05
-1.01593e-06
3.62027e-05
-6.81483e-07
3.71994e-05
-4.23808e-07
3.82106e-05
-2.34179e-07
3.92398e-05
-1.01555e-07
4.02861e-05
-1.15126e-08
4.13638e-05
3.19853e-08
4.24624e-05
5.98923e-08
4.29643e-05
5.50673e-08
4.17335e-05
2.1437e-08
-4.12741e-06
2.25509e-05
-4.99271e-06
2.50489e-05
-5.95543e-06
2.78236e-05
-7.01332e-06
3.09158e-05
-8.15743e-06
3.43766e-05
-9.37332e-06
3.82628e-05
-1.06372e-05
4.26445e-05
-1.1917e-05
4.76223e-05
-1.31679e-05
5.331e-05
-1.43338e-05
5.98536e-05
-1.53474e-05
6.74238e-05
-1.61326e-05
7.62228e-05
-1.66102e-05
8.64738e-05
-1.67054e-05
9.6847e-05
-1.63734e-05
9.92099e-05
-1.57008e-05
0.000101642
-1.82464e-05
0.000104389
-1.6687e-05
0.000107077
-1.48751e-05
0.000109631
-1.29259e-05
0.000111988
-1.09383e-05
0.000120329
-8.90667e-06
0.000106539
-7.18026e-06
9.41171e-05
-5.73343e-06
8.29839e-05
-4.53309e-06
7.29967e-05
-3.54551e-06
6.41254e-05
-2.73828e-06
5.62412e-05
-2.08162e-06
4.91812e-05
-1.54963e-06
4.27842e-05
-1.11965e-06
3.70139e-05
-7.73082e-07
3.17212e-05
-4.97308e-07
2.69333e-05
-2.8208e-07
2.25442e-05
-1.18608e-07
1.81164e-05
2.02588e-05
-4.08101e-06
3.21228e-05
-3.21101e-06
3.31301e-05
-2.47651e-06
3.41343e-05
-1.86554e-06
3.5138e-05
-1.36413e-06
3.61466e-05
-9.60202e-07
3.71607e-05
-6.4201e-07
3.81868e-05
-3.97817e-07
3.92246e-05
-2.19415e-07
4.02779e-05
-9.53216e-08
4.13577e-05
-1.16431e-08
4.2462e-05
2.78866e-08
4.29713e-05
5.38102e-08
4.17473e-05
4.92533e-08
4.055e-05
1.91804e-08
-4.9351e-06
2.24931e-05
-5.88628e-06
2.498e-05
-6.93373e-06
2.77442e-05
-8.07032e-06
3.08287e-05
-9.28454e-06
3.42877e-05
-1.05566e-05
3.81819e-05