/*--------------------------------*- C++ -*----------------------------------*\
  =========                 |
  \\      /  F ield         | OpenFOAM: The Open Source CFD Toolbox
   \\    /   O peration     | Website:  https://openfoam.org
    \\  /    A nd           | Version:  8
     \\/     M anipulation  |
\*---------------------------------------------------------------------------*/
FoamFile
{
    version     2.0;
    format      ascii;
    class       volScalarField;
    location    "0.04";
    object      p;
}
// * * * * * * * * * * * * * * * * * * * * * * * * * * * * * * * * * * * * * //

dimensions      [0 2 -2 0 0 0 0];

internalField   nonuniform List<scalar> 
15677
(
70.0234
69.6174
69.282
69.7717
69.2807
69.2188
69.6915
69.2997
69.2284
69.1555
69.672
69.2999
69.2289
69.1642
69.061
69.6538
69.303
69.2293
69.1635
69.0686
68.9632
69.631
69.3058
69.2295
69.164
69.0686
68.9699
68.8538
69.6062
69.3075
69.2293
69.1641
69.0694
68.97
68.8596
68.7222
69.5804
69.3086
69.2286
69.1639
69.07
68.9707
68.8598
68.7273
68.5621
69.5536
69.3093
69.2276
69.1632
69.0705
68.9714
68.8606
68.7276
68.5665
68.3669
69.5256
69.3097
69.2261
69.1623
69.0709
68.9721
68.8613
68.7285
68.5669
68.3706
68.1291
69.4967
69.3095
69.2245
69.1613
69.0714
68.9728
68.8621
68.7294
68.5679
68.3711
68.1321
67.8409
69.4667
69.3085
69.223
69.1606
69.0721
68.9737
68.8631
68.7305
68.5691
68.3724
68.1328
67.8432
67.4945
69.4357
69.3067
69.2216
69.16
69.0731
68.975
68.8645
68.732
68.5706
68.3739
68.1343
67.844
67.4959
67.0818
69.4072
69.3041
69.2207
69.1597
69.0747
68.9769
68.8665
68.734
68.5726
68.3758
68.1362
67.8458
67.4969
67.0823
66.5956
69.3828
69.3011
69.2204
69.1598
69.0772
68.9799
68.8695
68.737
68.5755
68.3785
68.1387
67.8482
67.4991
67.0836
66.5951
66.0288
69.3618
69.298
69.2207
69.1605
69.0809
68.9844
68.8741
68.7415
68.5797
68.3825
68.1424
67.8515
67.502
67.0861
66.5965
66.0272
65.3753
69.3443
69.2945
69.2216
69.1621
69.0858
68.9908
68.8808
68.7482
68.5861
68.3883
68.1477
67.8563
67.5063
67.0898
66.5995
66.0288
65.3725
64.6303
69.3296
69.2904
69.2226
69.1642
69.0919
68.9997
68.8902
68.7578
68.5954
68.397
68.1555
67.8632
67.5124
67.0952
66.604
66.0323
65.3744
64.6262
63.7903
69.3172
69.286
69.2237
69.167
69.0984
69.0103
68.9032
68.7714
68.6088
68.4096
68.167
67.8735
67.5213
67.1029
66.6106
66.0377
65.3783
64.6283
63.7847
62.8532
69.3068
69.2817
69.2249
69.1704
69.1057
69.0219
68.9191
68.7899
68.6276
68.4277
68.1838
67.8885
67.5344
67.1141
66.6202
66.0457
65.3847
64.6328
63.787
62.8459
61.8186
69.2984
69.2777
69.2262
69.1743
69.1136
69.0346
68.9363
68.8126
68.6534
68.4531
68.2077
67.9103
67.5537
67.1306
66.6341
66.0573
65.3943
64.6402
63.792
62.8484
61.8096
60.6881
69.2919
69.2741
69.2276
69.1787
69.1221
69.0482
68.9553
68.8372
68.6847
68.4879
68.2413
67.9414
67.5815
67.1547
66.6544
66.0742
65.4081
64.6513
63.8005
62.854
61.8123
60.6774
59.4656
69.2869
69.2713
69.229
69.1835
69.1311
69.0626
68.9756
68.8641
68.7188
68.5301
68.2873
67.985
67.6212
67.1897
66.6842
66.0988
65.4282
64.6675
63.8132
62.8634
61.8183
60.6802
59.453
58.1569
69.2829
69.269
69.2303
69.1884
69.1405
69.0777
68.9971
68.893
68.7561
68.5763
68.3432
68.0447
67.6768
67.2394
66.7272
66.1349
65.4575
64.6909
63.8317
62.8777
61.8286
60.6865
59.4558
58.1422
56.7745
69.2797
69.2673
69.2315
69.193
69.1498
69.0932
69.0196
68.9237
68.7962
68.6268
68.4043
68.1174
67.7529
67.3091
66.7886
66.187
65.5004
64.7253
63.8586
62.8985
61.8444
60.6976
59.4622
58.1448
56.7562
55.3465
69.2771
69.2659
69.2326
69.1973
69.1584
69.1085
69.0429
68.9558
68.8388
68.6812
68.4713
68.1969
67.8458
67.4046
66.8744
66.2614
65.5626
64.7755
63.898
62.9288
61.8672
60.7145
59.4737
58.1509
56.7563
55.2876
53.8178
69.275
69.2648
69.2337
69.2011
69.1663
69.1225
69.0657
68.9891
68.8833
68.7388
68.5435
68.2841
67.9475
67.5213
66.9924
66.3656
65.6513
64.8483
63.9558
62.9732
61.9006
60.7391
59.4914
58.1622
56.7608
55.2934
53.7497
52.1735
69.2733
69.2639
69.2347
69.2046
69.1733
69.1351
69.0867
69.0216
68.9294
68.7992
68.6201
68.3783
68.0593
67.6493
67.1368
66.509
65.7757
64.9524
64.0396
63.0383
61.9496
60.775
59.5171
58.1798
56.7704
55.2949
53.7551
52.1484
50.4816
69.2719
69.2632
69.2355
69.2077
69.1797
69.1465
69.1055
69.0515
68.9746
68.8618
68.7004
68.4783
68.18
67.7903
67.2954
66.6848
65.9473
65.0987
64.1598
63.1334
62.022
60.8282
59.5548
58.2057
56.7863
55.3012
53.7492
52.1378
50.4732
48.7561
69.2707
69.2626
69.2362
69.2106
69.1854
69.1566
69.1225
69.0785
69.0161
68.9231
68.7837
68.5832
68.3084
67.9427
67.4703
66.8784
66.1582
65.3009
64.3292
63.27
62.1279
60.907
59.6111
58.2441
56.8107
55.3143
53.7534
52.1282
50.4568
48.7513
46.8147
69.2697
69.2621
69.2368
69.2132
69.1904
69.1656
69.1376
69.1026
69.0535
68.9794
68.8654
68.6922
68.4434
68.1051
67.6598
67.0923
66.3909
65.5503
64.5641
63.4633
62.2809
61.0231
59.6953
58.3022
56.848
55.336
53.7649
52.1331
50.4476
48.7329
46.8131
44.6411
69.2689
69.2617
69.2373
69.2156
69.1949
69.1737
69.1511
69.1242
69.0871
69.0303
68.9404
68.7992
68.5837
68.276
67.8622
67.3245
66.6488
65.8261
64.8546
63.7321
62.4979
61.1914
59.8201
58.3901
56.906
55.371
53.7846
52.1443
50.4535
48.7249
46.796
44.6414
42.467
69.2682
69.2613
69.2377
69.2177
69.1989
69.1808
69.163
69.1435
69.1171
69.076
69.0083
68.8976
68.7216
68.454
68.0756
67.573
66.9294
66.1325
65.177
64.0657
62.801
61.4316
60.0025
58.5219
56.9958
55.4275
53.8173
52.1628
50.4648
48.7304
46.7883
44.6259
42.4686
40.3172
69.2676
69.2611
69.2382
69.2196
69.2024
69.1871
69.1737
69.1606
69.1438
69.1168
69.0693
68.9867
68.8488
68.6293
68.2981
67.8357
67.2303
66.4668
65.536
64.4371
63.1788
61.7685
60.2642
58.7162
57.1324
55.5173
53.8718
52.1938
50.4826
48.7411
46.7911
44.6179
42.4546
40.3189
38.2115
69.2608
69.2669
69.2386
69.2212
69.2056
69.1927
69.1831
69.1757
69.1676
69.1531
69.1238
69.0668
68.9639
68.7911
68.5178
68.1102
67.5492
66.8264
65.929
64.8522
63.6008
62.1903
60.6334
58.9972
57.3363
55.6567
53.9607
52.2465
50.5123
48.758
46.7999
44.618
42.4461
40.3059
38.2128
36.1629
69.239
69.2605
69.266
69.2227
69.2084
69.1977
69.1914
69.1892
69.1886
69.1855
69.1724
69.1385
69.0676
68.9378
68.7208
68.3817
67.8834
67.2085
66.353
65.308
64.0744
62.6636
61.0981
59.3962
57.6337
55.8674
54.1011
52.3338
50.5629
48.7856
46.8143
44.6237
42.4433
40.2963
38.2004
36.1638
34.1812
69.2239
69.2397
69.2602
69.2653
69.2108
69.2021
69.1988
69.2011
69.2073
69.2142
69.2157
69.2024
69.1604
69.0701
68.9054
68.6334
68.2149
67.6101
66.805
65.8016
64.5963
63.1968
61.6219
59.9013
58.0589
56.1779
54.3161
52.4737
50.6475
48.8328
46.838
44.6336
42.4452
40.2903
38.1896
36.1518
34.1814
32.2742
69.2129
69.2256
69.2405
69.2599
69.2645
69.206
69.2053
69.2116
69.2239
69.2396
69.254
69.2593
69.2432
69.1886
69.0719
68.8624
68.5228
68.0097
67.2816
66.3295
65.1636
63.7868
62.2144
60.4735
58.6008
56.6252
54.636
52.6903
50.785
48.9132
46.8796
44.6508
42.4496
40.2877
38.18
36.1394
34.1695
32.2737
30.4479
69.2093
69.2158
69.2276
69.2414
69.2597
69.2638
69.2111
69.221
69.2385
69.2621
69.2881
69.3098
69.317
69.2946
69.2214
69.0695
68.8037
68.3819
67.7575
66.8883
65.7727
64.4307
62.8731
61.1238
59.2179
57.1991
55.1005
53.0156
51.0002
49.0457
46.9528
44.6836
42.4586
40.2854
38.1722
36.1261
34.1554
32.2617
30.4466
28.7063
69.2161
69.2137
69.2191
69.2296
69.2423
69.2594
69.2632
69.2292
69.2516
69.2821
69.3183
69.3547
69.3826
69.389
69.3552
69.2557
69.0581
68.7223
68.2021
67.4484
66.42
65.125
63.595
61.8499
59.9226
57.8563
55.7007
53.4919
51.3266
49.2561
47.0768
44.7454
42.4803
40.285
38.1623
36.1126
34.1382
32.2456
30.4344
28.7041
27.0516
69.2363
69.2225
69.2186
69.2223
69.2316
69.2431
69.2592
69.2626
69.2631
69.2999
69.3451
69.3945
69.4409
69.4731
69.4745
69.4226
69.2874
69.0314
68.61
67.9736
67.0716
65.8661
64.3769
62.6494
60.7133
58.6105
56.3917
54.1116
51.8084
49.5787
47.2776
44.8553
42.5276
40.2938
38.1514
36.0945
34.1188
32.2245
30.4163
28.6917
27.0486
25.4845
69.2729
69.2453
69.2294
69.2234
69.2255
69.2335
69.244
69.259
69.262
69.3156
69.3689
69.4298
69.4926
69.5477
69.5808
69.5717
69.4932
69.3106
68.9814
68.457
67.685
66.6155
65.2156
63.5197
61.5882
59.4609
57.1888
54.8289
52.4397
50.0594
47.5905
45.0396
42.6194
40.3241
38.1456
36.0719
34.092
32.199
30.3912
28.6715
27.0359
25.4807
24.0045
69.329
69.2852
69.2545
69.2361
69.2281
69.2287
69.2353
69.2449
69.2587
69.2615
69.3899
69.4612
69.5385
69.6141
69.6754
69.7046
69.6773
69.5615
69.3175
68.8983
68.2516
67.324
66.0678
64.4578
62.5454
60.4068
58.0923
55.6608
53.1747
50.6937
48.0621
45.3339
42.7816
40.3942
38.1567
36.0503
34.0572
32.1632
30.3595
28.6426
27.0136
25.4677
24
22.6102
69.4078
69.3456
69.2974
69.2636
69.2426
69.2327
69.2317
69.2371
69.2457
69.2585
69.261
69.489
69.5794
69.673
69.7594
69.8229
69.8416
69.7864
69.6204
69.2988
68.7706
67.981
66.8773
65.4162
63.5828
61.4474
59.1028
56.6089
54.0319
51.4367
48.69
45.7841
43.0494
40.5296
38.2023
36.0406
34.0189
32.1159
30.3147
28.6048
26.981
25.4433
23.9867
22.6051
21.2993
69.5126
69.4298
69.3614
69.3093
69.2724
69.249
69.2372
69.2346
69.2389
69.2465
69.2584
69.2606
69.6155
69.7255
69.8341
69.9282
69.9881
69.9875
69.8923
69.6606
69.243
68.585
67.6311
66.331
64.6486
62.5815
60.2206
57.6754
55.0145
52.3084
49.4308
46.3907
43.467
40.7637
38.3069
36.0597
33.9873
32.0604
30.2546
28.5509
26.9371
25.407
23.9602
22.5914
21.2937
20.0692
69.6461
69.5413
69.4502
69.3769
69.321
69.281
69.2551
69.2414
69.2374
69.2405
69.2473
69.2582
69.2602
69.7719
69.9007
70.0219
70.1185
70.167
70.1359
69.9861
69.6708
69.1366
68.3268
67.1869
65.6713
63.7536
61.4463
58.8621
56.1262
53.3137
50.3062
47.1132
44.0376
41.1384
38.5012
36.1301
33.9783
32.0064
30.182
28.4782
26.8744
25.3574
23.9205
22.563
21.2797
20.063
18.9166
69.8111
69.6834
69.5673
69.47
69.392
69.3321
69.2891
69.261
69.2455
69.2401
69.2421
69.2481
69.2581
69.2598
69.9596
70.1054
70.2348
70.327
70.3536
70.2783
70.0568
69.6376
68.9645
67.9801
66.6328
64.8847
62.721
60.1714
57.3709
54.458
51.3226
47.9741
44.725
41.6598
38.8242
36.2797
34.0121
31.9683
30.1054
28.3885
26.7893
25.2861
23.8653
22.52
21.2494
20.0488
18.91
17.838
70.0092
69.859
69.7162
69.5925
69.4893
69.4064
69.3427
69.2968
69.2665
69.2494
69.2426
69.2436
69.2488
69.2579
69.2595
70.1792
70.3385
70.4697
70.548
70.5399
70.4039
70.0908
69.5455
68.7098
67.528
65.9535
63.9583
61.542
58.7532
55.7474
52.4875
48.9816
45.5514
42.2962
39.2847
36.5435
34.113
31.9638
30.0379
28.2896
26.6829
25.189
23.7858
22.4594
21.2034
20.0167
18.8955
17.831
16.8298
70.2414
70.0701
69.9
69.748
69.6169
69.5076
69.4199
69.3527
69.3041
69.2718
69.253
69.245
69.245
69.2494
69.2578
69.2592
70.4301
70.5972
70.7217
70.7739
70.7153
70.4994
70.0726
69.3771
68.3548
66.9533
65.1339
62.8808
60.2103
57.1891
53.8098
50.1456
46.5266
43.0689
39.8558
36.9331
34.312
32.0135
29.994
28.1927
26.5621
25.0664
23.6771
22.3721
21.1377
19.9678
18.8617
17.8163
16.8225
15.8885
70.5072
70.3182
70.1213
69.9398
69.7787
69.64
69.5247
69.4325
69.3619
69.3108
69.2766
69.2564
69.2471
69.2463
69.25
69.2577
69.259
70.7098
70.8769
70.9832
70.9943
70.8667
70.549
69.9843
69.1137
67.8808
66.2391
64.16
61.6428
58.7197
55.2997
51.4783
47.6632
43.9889
40.5568
37.4261
34.6223
32.1433
29.9908
28.1093
26.4363
24.9246
23.5391
22.2524
21.0429
19.8974
18.8102
17.7809
16.8075
15.8809
15.0103
70.8043
70.6034
70.3817
70.1708
69.9782
69.8075
69.6614
69.5405
69.4442
69.3705
69.317
69.2811
69.2594
69.2491
69.2474
69.2506
69.2576
69.2588
71.0138
71.1705
71.2444
71.1965
70.9784
70.5347
69.8066
68.7353
67.2689
65.369
63.0199
60.2347
56.8946
52.9937
48.9762
45.0704
41.3988
38.0383
35.0259
32.3678
30.049
28.0526
26.3137
24.7705
23.377
22.0998
20.9129
19.7956
18.7354
17.727
16.7707
15.8657
15.0023
14.1915
71.1287
70.9242
70.6818
70.4431
70.2185
70.014
69.8341
69.681
69.555
69.4548
69.3782
69.3227
69.2851
69.2621
69.2508
69.2483
69.251
69.2576
69.2587
71.3355
71.4684
71.4927
71.3647
71.0321
70.4365
69.5183
68.2217
66.5008
64.3283
61.7001
58.4862
54.6325
50.483
46.3301
42.3962
38.78
35.534
32.6726
30.1827
28.0376
26.2036
24.6095
23.1957
21.9185
20.7466
19.6559
18.6271
17.648
16.7147
15.8275
14.9867
14.1827
13.4297
71.4737
71.277
71.0207
70.7578
70.5022
70.2628
70.0468
69.8583
69.6988
69.568
69.4643
69.3852
69.3276
69.2885
69.2644
69.2522
69.2492
69.2514
69.2575
69.2585
71.6655
71.7583
71.7125
71.4806
71.0073
70.2325
69.0979
67.5524
65.5591
63.1003
60.0376
56.2834
52.1266
47.7859
43.5648
39.6634
36.1542
33.0633
30.3815
28.0773
26.1151
24.447
22.9975
21.7111
20.547
19.4767
18.4783
17.5337
16.6319
15.7696
14.9474
14.167
13.4179
12.801
71.8303
71.6564
71.3957
71.1145
70.8307
70.5569
70.3032
70.0765
69.88
69.7147
69.5796
69.4727
69.3912
69.3318
69.2914
69.2663
69.2534
69.2498
69.2518
69.2575
69.2584
71.9914
72.0248
71.8854
71.5234
70.8813
69.8998
68.5231
66.7076
64.4245
61.5301
57.904
53.7927
49.383
44.9212
40.7022
36.8955
33.5436
30.6441
28.1651
26.0595
24.2857
22.784
21.4771
20.3148
19.26
18.287
17.3765
16.5119
15.6832
14.8879
14.1268
13.4029
12.7956
12.2723
72.1863
72.0542
71.8019
71.5112
71.2044
70.898
70.6064
70.3395
70.1029
69.8992
69.7284
69.5894
69.4797
69.3961
69.3352
69.2937
69.2679
69.2544
69.2504
69.2521
69.2574
69.2584
72.2981
72.2493
71.9904
71.4697
70.6304
69.4143
67.7721
65.6659
62.9488
59.4696
55.4343
51.0106
46.4197
41.9148
37.7714
34.1202
30.9707
28.2925
26.0335
24.1346
22.5513
21.2145
20.0467
19.0043
18.0543
17.174
16.3469
15.5581
14.7983
14.0659
13.3621
12.785
12.2748
11.7173
72.5262
72.4592
72.2322
71.9441
71.6218
71.287
70.9587
70.6506
70.3715
70.1259
69.9155
69.74
69.5976
69.4853
69.3999
69.3378
69.2955
69.2692
69.2552
69.2508
69.2523
69.2574
69.2583
72.5668
72.4108
72.0036
71.2948
70.2289
68.7528
66.8208
64.2833
60.9612
57.0258
52.627
47.9657
43.274
38.8058
34.8081
31.3664
28.4566
26.022
23.9946
22.3063
20.9126
19.7371
18.704
17.7765
16.9263
16.1341
15.3859
14.6685
13.9734
13.3002
12.7438
12.2658
11.7171
11.1209
72.8313
72.8575
72.6767
72.407
72.0801
71.7233
71.3613
71.0126
70.6893
70.399
70.1452
69.9289
69.7493
69.6038
69.4894
69.4027
69.3398
69.2969
69.2702
69.2558
69.2512
69.2525
69.2574
69.2582
72.776
72.485
71.8997
70.9718
69.6518
67.8882
65.5274
62.367
58.5514
54.2155
49.5322
44.7108
39.996
35.639
31.8487
28.6613
26.0194
23.8437
22.0538
20.5763
19.3686
18.3497
17.4458
16.6279
15.8724
15.1636
14.4896
13.8393
13.2051
12.6815
12.225
11.7051
11.1159
10.4713
73.0794
73.2317
73.1225
72.8913
72.574
72.2045
71.8142
71.4269
71.0593
70.7222
70.4217
70.1607
69.9393
69.756
69.6081
69.4923
69.4046
69.3412
69.2979
69.271
69.2562
69.2515
69.2527
69.2573
69.2582
72.9007
72.4456
71.6505
70.4744
68.869
66.6785
63.6816
60.0029
55.7658
51.1107
46.2125
41.3003
36.6342
32.4559
28.9258
26.0278
23.6739
21.7658
20.2146
18.9448
17.9177
17.0493
16.2687
15.5548
14.8889
14.2585
13.6543
13.0671
12.5842
12.1621
11.6641
11.1001
10.4637
9.76467
73.245
73.5612
73.5536
73.3854
73.0961
72.7267
72.3159
71.8943
71.4836
71.0987
70.749
70.4396
70.1721
69.9463
69.7602
69.6107
69.4939
69.4058
69.342
69.2986
69.2715
69.2566
69.2517
69.2528
69.2573
69.2581
72.9139
72.2638
71.2283
69.7687
67.7375
64.9034
61.3762
57.2694
52.6899
47.7719
42.7151
37.7777
33.2299
29.2924
26.0669
23.4849
21.4314
19.7936
18.4783
17.4106
16.5574
15.8326
15.1689
14.5533
13.9718
13.415
12.8764
12.443
12.063
11.6001
11.0579
10.4461
9.7562
8.99937
73.2997
73.8223
73.9507
73.8749
73.6364
73.2834
72.8633
72.4139
71.9632
71.531
71.1304
70.7695
70.4522
70.1794
69.9503
69.7623
69.6118
69.4946
69.4063
69.3424
69.2989
69.2717
69.2568
69.2519
69.2529
69.2573
69.2581
72.7851
71.91
70.5961
68.7107
66.0336
62.6681
58.7172
54.2537
49.3712
44.2315
39.0726
34.1789
29.8193
26.1795
23.2948
21.047
19.2994
17.93
16.8448
15.9718
15.2841
14.6957
14.1426
13.6195
13.1172
12.6296
12.2478
11.9191
11.4989
10.9922
10.4027
9.73811
8.99042
8.17179
73.2112
73.9886
74.2912
74.3421
74.1817
73.8658
73.4509
72.9832
72.4979
72.0205
71.5687
71.1542
70.7835
70.4595
70.1827
69.9514
69.7624
69.6116
69.4944
69.4061
69.3424
69.2989
69.2718
69.2571
69.2521
69.2529
69.2573
69.2582
72.4819
71.3445
69.6085
67.0796
63.8771
60.0989
55.7838
50.9856
45.8259
40.5092
35.3125
30.5373
26.435
23.1437
20.6278
18.7247
17.2827
16.1758
15.3123
14.625
14.0944
13.6348
13.1858
12.7495
12.3214
11.995
11.7201
11.3521
10.8886
10.3347
9.69378
8.97202
8.16248
7.27713
72.9435
74.0309
74.5497
74.7662
74.7162
74.4625
74.0713
73.5981
73.0861
72.5675
72.0657
71.5964
71.1696
70.7907
70.4618
70.1826
69.9502
69.7609
69.6102
69.4933
69.4054
69.3418
69.2987
69.2722
69.2574
69.2522
69.2529
69.2573
69.2582
71.9615
70.4189
68.0531
65.0082
61.4064
57.2616
52.5882
47.4673
42.0622
36.624
31.4638
26.8859
23.1072
20.2074
18.0796
16.5247
15.3832
14.5298
13.878
13.3669
12.9844
12.6459
12.2944
11.9395
11.6785
11.4623
11.1491
10.7386
10.2285
9.62359
8.92675
8.14358
7.26759
6.31037
72.4486
73.9177
74.6972
75.1231
75.2208
75.0592
74.7146
74.2522
73.7243
73.171
72.622
72.0984
71.6138
71.1767
70.7917
70.4599
70.1794
69.9469
69.758
69.6079
69.4915
69.404
69.3411
69.299
69.2726
69.2575
69.2522
69.2529
69.2573
69.2582
71.071
68.9353
66.072
62.6402
58.6721
54.1534
49.1224
43.6975
38.0901
32.5984
27.5578
23.2574
19.863
17.3884
15.6599
14.4509
13.6008
12.9897
12.5384
12.1934
11.9498
11.7246
11.4646
11.2851
11.139
10.8859
10.5313
10.0749
9.51453
8.85445
8.09726
7.24818
6.30072
5.26653
73.6066
71.5722
74.7016
75.3857
75.6731
75.6386
75.368
74.9369
74.4075
73.8287
73.2375
72.6612
72.1182
71.6206
71.1761
70.7875
70.4542
70.1737
69.9418
69.7538
69.6046
69.4889
69.4023
69.3412
69.2997
69.2729
69.2575
69.2521
69.2528
69.2573
69.2583
69.628
67.0412
63.809
60.0124
55.6602
50.7595
45.378
39.678
33.925
28.4605
23.6293
19.6843
16.7261
14.7005
13.3746
12.504
11.9334
11.5519
11.2896
11.1002
10.9864
10.8672
10.7943
10.7359
10.5551
10.2623
9.86287
9.35709
8.74253
8.02289
7.20077
6.28084
5.25683
4.14063
74.523
72.9532
70.1376
75.5228
76.048
76.1801
76.0159
75.6412
75.1284
74.5362
73.9104
73.2851
72.6845
72.1252
71.6182
71.1689
70.7786
70.4453
70.1657
69.9351
69.7484
69.6001
69.4859
69.4022
69.3422
69.3001
69.2729
69.2573
69.2519
69.2526
69.2573
69.2584
67.7895
64.8772
61.2899
57.102
52.3515
47.0664
41.3494
35.4161
29.589
24.2441
19.7149
16.1972
13.7165
12.1537
11.2266
10.6826
10.3776
10.2124
10.1268
10.0827
10.0901
10.1749
10.232
10.1417
9.9234
9.58759
9.13997
8.58093
7.90796
7.12429
6.23241
5.23651
4.13092
2.92766
75.4966
74.039
71.8117
68.3223
76.3161
76.6605
76.6398
76.3512
75.8773
75.2877
74.6375
73.9691
73.3133
72.692
72.1207
71.6077
71.1562
70.7658
70.4338
70.1559
69.927
69.7416
69.5953
69.4854
69.4036
69.3428
69.3001
69.2726
69.257
69.2517
69.2525
69.2573
69.2585
65.6914
62.4613
58.4856
53.8879
48.7295
43.063
37.0358
30.9256
25.1112
19.9878
15.852
12.8241
10.8502
9.75392
9.21566
8.98374
8.92921
8.96635
9.04547
9.13677
9.36662
9.59404
9.62363
9.499
9.24013
8.85797
8.3584
7.74197
7.00621
6.15381
5.18711
4.11015
2.91795
1.62269
76.4427
75.2027
73.0842
70.3068
66.2586
77.0526
77.2183
77.0502
76.6423
76.0749
75.4138
74.7107
74.004
73.3221
72.6855
72.1063
71.5903
71.1387
70.7498
70.4199
70.1442
69.917
69.7343
69.5942
69.4873
69.4044
69.3428
69.2996
69.2721
69.2567
69.2514
69.2522
69.2574
69.2586
63.3459
59.7594
55.3744
50.3523
44.7796
38.7414
32.4415
26.2275
20.5282
15.7337
12.0772
9.58912
8.1388
7.50371
7.33974
7.40326
7.58316
7.80865
8.04087
8.37382
8.75994
8.96585
8.96567
8.80387
8.5013
8.06922
7.51371
6.83559
6.03242
5.1064
4.0598
2.8966
1.61306
0.221092
77.325
76.3436
74.4773
71.7738
68.5465
63.9552
77.7262
77.7187
77.4086
76.8875
76.2326
75.506
74.755
74.0153
73.3138
72.667
72.0837
71.5672
71.1172
70.7309
70.4037
70.1302
69.9065
69.7324
69.5968
69.4884
69.4044
69.3422
69.2989
69.2718
69.2565
69.2511
69.252
69.2574
69.2587
60.7128
56.7499
51.9386
46.4785
40.4883
34.0966
27.5768
21.3511
15.8828
11.5259
8.42434
6.51173
5.58943
5.40288
5.59509
5.93574
6.3339
6.73423
7.23142
7.73436
8.104
8.28662
8.25425
8.05238
7.70271
7.21689
6.60127
5.85695
4.98159
3.97697
2.8454
1.59113
0.211692
-1.28168
78.1362
77.4162
75.8575
73.4066
70.2139
66.5551
61.3655
78.3339
78.1585
77.7125
77.0849
76.3494
75.5633
74.7707
74.0059
73.291
72.6384
72.054
71.5392
71.0923
70.7093
70.3848
70.1157
69.9035
69.7358
69.5982
69.4884
69.4036
69.3411
69.2986
69.2716
69.2561
69.2507
69.2517
69.2574
69.2589
57.7709
53.4169
48.1619
42.2503
35.843
29.1267
22.4587
16.3342
11.2232
7.40835
4.92319
3.60623
3.20556
3.44892
3.97635
4.57529
5.17587
5.86951
6.55345
7.04325
7.39509
7.55245
7.48535
7.24028
6.8399
6.29637
5.61629
4.8011
3.84865
2.7605
1.53912
0.189431
-1.29058
-2.89021
78.8718
78.4112
77.1651
75.0381
72.091
68.4505
64.2899
58.4671
78.8713
78.5343
77.9598
77.2336
76.4243
75.5859
74.7612
73.9789
73.2559
72.6013
72.0185
71.5072
71.0641
70.6843
70.3652
70.1112
69.9079
69.7377
69.5982
69.4872
69.4021
69.341
69.2988
69.2713
69.2556
69.2502
69.2513
69.2575
69.2591
54.5061
49.7459
44.0273
37.6493
30.8303
23.8334
17.1129
11.2233
6.60199
3.42286
1.59797
0.882018
0.987262
1.63705
2.47736
3.31575
4.24501
5.14591
5.82112
6.2968
6.6293
6.75928
6.6547
6.3631
5.90827
5.30287
4.55382
3.66298
2.62859
1.45212
0.136567
-1.31278
-2.89704
-4.91329
79.5264
79.3229
78.3904
76.5938
73.976
70.5951
66.445
61.7298
55.2469
79.3343
78.8434
78.149
77.3319
76.4572
75.578
74.7304
73.937
73.2106
72.5572
71.9782
71.4712
71.0318
70.6585
70.3589
70.1168
69.9104
69.7377
69.5967
69.4853
69.4022
69.3417
69.2988
69.2708
69.255
69.2497
69.2509
69.2576
69.2594
50.9059
45.7211
39.5138
32.6539
25.436
18.224
11.5762
6.07423
2.07274
-0.393482
-1.53284
-1.6562
-1.06872
-0.0388429
1.09148
2.30465
3.46688
4.36492
5.03081
5.49111
5.80254
5.90285
5.75784
5.41628
4.90305
4.23147
3.40885
2.43762
1.31656
0.047387
-1.36644
-2.9188
-4.92242
-7.2979
80.0946
80.1436
79.5281
78.0629
75.7813
72.7503
68.8871
64.173
58.8681
51.694
79.7195
79.0839
78.2781
77.3797
76.4533
75.5442
74.6816
73.8828
73.1569
72.5075
71.9332
71.4303
70.9986
70.6499
70.3661
70.12
69.9104
69.7357
69.5941
69.4858
69.4039
69.3422
69.2984
69.27
69.2542
69.249
69.2504
69.2577
69.2597
46.9561
41.3218
34.5951
27.2354
19.6452
12.3159
5.89841
0.949492
-2.31232
-4.00932
-4.45695
-4.00855
-2.96783
-1.5858
-0.0193704
1.4605
2.6279
3.52297
4.17867
4.62209
4.91055
4.97871
4.79021
4.39506
3.81937
3.07723
2.17646
1.12019
-0.0919242
-1.45782
-2.97283
-4.94752
-7.30904
-9.69398
80.5721
80.8652
80.5692
79.4405
77.4949
74.8193
71.3371
66.9398
61.629
55.7023
47.7952
80.0241
79.2531
78.3467
77.3829
76.4181
75.4889
74.618
73.8186
73.0965
72.4521
71.8822
71.3883
70.9873
70.6589
70.37
70.12
69.9078
69.7322
69.5952
69.4888
69.4052
69.3423
69.2977
69.269
69.2532
69.2481
69.2499
69.2578
69.26
42.6363
36.5209
29.234
21.359
13.4499
6.14185
0.143396
-4.08387
-6.5049
-7.40046
-7.16867
-6.17862
-4.71726
-2.8234
-0.945388
0.551455
1.72453
2.61628
3.26065
3.68553
3.94895
3.98237
3.74715
3.29463
2.65235
1.83528
0.851855
-0.293752
-1.60093
-3.06627
-5.00409
-7.33638
-9.70228
-12.0706
80.9555
81.4804
81.5034
80.717
79.1126
76.7893
73.6934
69.7058
64.7485
58.8154
52.2305
43.5319
80.2445
79.3498
78.3615
77.3486
76.3569
75.4157
74.5424
73.7462
73.0294
72.3896
71.8299
71.3737
70.9985
70.6639
70.37
70.1167
69.9033
69.7342
69.6
69.4914
69.4059
69.3418
69.2967
69.2677
69.252
69.2472
69.2493
69.2579
69.2604
37.9201
31.2798
23.3829
14.9924
6.85694
-0.245538
-5.61192
-8.95762
-10.4634
-10.5513
-9.66772
-8.17306
-6.11331
-3.85322
-1.94108
-0.425971
0.753095
1.6409
2.27266
2.67715
2.91336
2.90925
2.62393
2.11022
1.39721
0.500895
-0.569355
-1.80824
-3.21321
-5.10138
-7.39613
-9.72722
-12.077
-14.4109
81.2402
81.9838
82.3205
81.8809
80.6247
78.6555
75.9439
72.3682
67.8507
62.3194
55.7398
48.449
38.879
80.3786
79.382
78.331
77.2828
76.2741
75.3279
74.4571
73.6661
72.9538
72.3255
71.8116
71.3875
71.0046
70.6638
70.366
70.111
69.9064
69.7415
69.6044
69.4931
69.406
69.3409
69.2952
69.2661
69.2505
69.2461
69.2486
69.258
69.2608
32.7694
25.5411
16.9799
8.09971
-0.11261
-6.77113
-11.2797
-13.6065
-14.156
-13.4539
-11.9587
-9.75971
-7.27204
-4.95848
-3.00979
-1.47525
-0.290173
0.592878
1.21058
1.59277
1.79941
1.75484
1.41595
0.837214
0.0494062
-0.930193
-2.09111
-3.42599
-5.25346
-7.49798
-9.78598
-12.1009
-14.4163
-16.7053
81.4227
82.3686
83.0109
82.9204
82.0196
80.4079
78.0832
74.9174
70.8349
65.7798
59.6655
52.4122
44.3511
33.8037
80.4353
79.3596
78.2627
77.1911
76.174
75.2287
74.3626
73.5759
72.8763
72.3027
71.8284
71.3949
71.0046
70.6588
70.3587
70.1156
69.917
69.7483
69.6077
69.4941
69.4055
69.3395
69.2934
69.2641
69.2488
69.2448
69.2479
69.2582
69.2613
27.1213
19.2194
9.94148
0.645567
-7.41353
-13.3365
-16.7669
-17.9741
-17.5608
-16.108
-13.7745
-11.0726
-8.51255
-6.14204
-4.15458
-2.59983
-1.40894
-0.531592
0.0705425
0.42832
0.602847
0.514786
0.118824
-0.52875
-1.39519
-2.46177
-3.71606
-5.47287
-7.65605
-9.88879
-12.1586
-14.4403
-16.7098
-18.942
81.5127
82.6291
83.5621
83.8239
83.2849
82.0342
80.0998
77.3487
73.6955
69.1016
63.5089
56.8045
48.8425
39.9291
28.2514
80.4266
79.2916
78.1632
77.0784
76.06
75.1186
74.2561
73.4833
72.8485
72.3231
71.8373
71.3949
70.9984
70.6497
70.3651
70.1302
69.9269
69.7537
69.61
69.4943
69.4043
69.3375
69.291
69.2618
69.2469
69.2434
69.2471
69.2583
69.2618
20.8855
12.2031
2.17409
-7.38059
-14.9639
-19.8238
-21.9834
-22.0145
-20.6674
-18.2024
-15.2712
-12.4739
-9.83675
-7.4062
-5.37834
-3.80293
-2.60662
-1.736
-1.15113
-0.820034
-0.68028
-0.814949
-1.27149
-1.9915
-2.94011
-4.09637
-5.77135
-7.88268
-10.0498
-12.2614
-14.4978
-16.7337
-18.9454
-21.107
81.5244
82.7759
83.9609
84.5743
84.4075
83.5213
81.98
79.6508
76.4297
72.2842
67.1855
61.0603
53.7561
45.0391
35.1638
22.1391
80.363
79.1861
78.0384
76.9493
75.9332
74.9944
74.1467
73.4497
72.873
72.3338
71.8373
71.3874
70.9871
70.6584
70.3849
70.1442
69.9351
69.7578
69.6113
69.4936
69.4023
69.3348
69.2881
69.2591
69.2447
69.2418
69.2463
69.2585
69.2624
13.94
4.34611
-6.40906
-15.9484
-22.6377
-26.1021
-26.8466
-25.6966
-23.1064
-19.9203
-16.8623
-13.9635
-11.2455
-8.75281
-6.6835
-5.08727
-3.88609
-3.02346
-2.45771
-2.15569
-2.05348
-2.23793
-2.7584
-3.55417
-4.58762
-6.16278
-8.18967
-10.2807
-12.4235
-14.6008
-16.7905
-18.9689
-21.1093
-23.1865
81.4705
82.8264
84.2157
85.1502
85.3667
84.8562
83.7086
81.8096
79.028
75.3279
70.7003
65.1109
58.4592
50.5394
41.0093
30.0201
15.3526
80.2543
79.0503
77.8939
76.8049
75.7899
74.8665
74.1068
73.4789
72.8857
72.3337
71.8282
71.3734
70.9986
70.6844
70.4038
70.1559
69.9416
69.7606
69.6114
69.4918
69.3994
69.3314
69.2847
69.256
69.2423
69.2402
69.2454
69.2587
69.263
6.09914
-4.54117
-15.8657
-24.9753
-30.2657
-32.0357
-31.2865
-28.5704
-25.0944
-21.7369
-18.5446
-15.5399
-12.7388
-10.1829
-8.0717
-6.45486
-5.24966
-4.39653
-3.8519
-3.58144
-3.51964
-3.75696
-4.34451
-5.21861
-6.66855
-8.59167
-10.5932
-12.6564
-14.7639
-16.8934
-19.0243
-21.1321
-23.1879
-25.1675
81.3624
82.7961
84.3459
85.5553
86.1334
86.0161
85.2703
83.8086
81.4779
78.2265
74.0581
68.9685
62.9061
55.7318
47.1751
36.76
24.4523
7.71621
80.1091
78.8907
77.7313
76.6411
75.6419
74.8196
74.1415
73.4939
72.8856
72.3229
71.8112
71.3883
71.0321
70.7095
70.42
70.1656
69.9466
69.762
69.6102
69.4889
69.3956
69.3272
69.2807
69.2526
69.2397
69.2385
69.2446
69.2589
69.2636
-2.92026
-14.6938
-26.1875
-34.322
-37.6422
-37.4936
-34.7314
-30.8942
-27.1816
-23.6439
-20.3124
-17.2001
-14.3153
-11.6963
-9.54348
-7.9068
-6.69887
-5.85695
-5.33559
-5.09929
-5.08075
-5.37389
-6.03109
-7.31833
-9.11071
-11.002
-12.9713
-14.9976
-17.0565
-19.1261
-21.1857
-23.2098
-25.1679
-27.0386
81.2104
82.6991
84.3706
85.8081
86.7072
86.9662
86.6385
85.63
83.7639
80.971
77.2573
72.6437
67.1179
60.6012
52.9054
43.687
32.2946
18.401
-1.04567
79.9352
78.7097
77.546
76.4715
75.5874
74.8605
74.159
73.4939
72.8728
72.3023
71.83
71.4307
71.0645
70.7311
70.4338
70.1735
69.9498
69.7617
69.6075
69.4847
69.3907
69.3222
69.2761
69.2489
69.237
69.2368
69.2437
69.2591
69.2643
-13.5746
-26.3434
-37.2996
-43.8021
-44.5136
-41.7199
-37.4828
-33.3096
-29.3511
-25.6289
-22.1579
-18.9389
-15.9719
-13.2912
-11.0982
-9.44314
-8.23419
-7.40547
-6.9097
-6.71013
-6.73761
-7.08917
-8.15512
-9.77716
-11.5294
-13.3832
-15.3127
-17.2896
-19.288
-21.2857
-23.2612
-25.1889
-27.0378
-28.7865
81.0239
82.548
84.3074
85.9273
87.1068
87.7035
87.7712
87.2413
85.8679
83.5488
80.2939
76.1411
71.1136
65.1799
58.2272
50.0095
40.1024
27.6144
11.7902
-11.3959
79.7359
78.5021
77.3534
76.4088
75.6352
74.8809
74.159
73.4787
72.848
72.3256
71.8828
71.4718
71.0927
70.7499
70.4452
70.179
69.9509
69.7596
69.6032
69.4792
69.3846
69.3165
69.2712
69.245
69.2342
69.2349
69.2428
69.2594
69.265
-26.6338
-39.6841
-49.115
-52.9609
-49.8103
-45.0415
-40.2962
-35.7844
-31.5791
-27.6763
-24.0703
-20.7489
-17.7033
-14.9642
-12.7336
-11.0625
-9.8548
-9.04164
-8.57384
-8.41348
-8.48964
-9.24424
-10.635
-12.2057
-13.9137
-15.7241
-17.6027
-19.5185
-21.4448
-23.3586
-25.2378
-27.0571
-28.786
-30.4048
80.8071
82.3538
84.173
85.9317
87.3508
88.2477
88.6635
88.5892
87.753
85.9442
83.1604
79.4634
74.9055
69.4992
63.1864
55.8164
47.0748
36.4529
22.7192
4.53611
-24.2275
79.5056
78.2853
77.2819
76.4644
75.6588
74.8808
74.1412
73.4492
72.8765
72.3903
71.934
71.5078
71.1174
70.7658
70.4539
70.182
69.9496
69.7553
69.597
69.4721
69.3776
69.3102
69.2659
69.2409
69.2312
69.2331
69.2419
69.2596
69.2658
-43.5984
-54.2202
-60.8521
-60.1103
-53.9166
-48.3497
-43.1143
-38.2774
-33.8388
-29.767
-26.0355
-22.6192
-19.5017
-16.7097
-14.4457
-12.762
-11.5584
-10.7634
-10.326
-10.2074
-10.6838
-11.7501
-13.0755
-14.5934
-16.2531
-18.0104
-19.827
-21.6708
-23.5137
-25.3318
-27.1035
-28.8048
-30.4035
-31.8836
80.5545
82.1217
83.9817
85.8401
87.4577
88.6185
89.3384
89.662
89.3543
88.1188
85.8456
82.6097
78.5047
73.5814
67.8325
61.1697
53.4005
44.1336
32.7848
17.612
-3.42106
-41.6265
79.2636
78.2045
77.3464
76.4916
75.6588
74.8602
74.1063
73.4835
72.9547
72.4532
71.979
71.5397
71.1388
70.7783
70.4593
70.182
69.9456
69.7486
69.5888
69.4636
69.3697
69.3033
69.2603
69.2366
69.2281
69.2311
69.241
69.2599
69.2666
-64.4421
-67.6439
-71.7017
-65.2931
-57.84
-51.5467
-45.8724
-40.7447
-36.0994
-31.8777
-28.0356
-24.5366
-21.3569
-18.52
-16.2288
-14.5369
-13.341
-12.5671
-12.1627
-12.4449
-13.2212
-14.2048
-15.4666
-16.9298
-18.5333
-20.2274
-21.972
-23.7332
-25.4818
-27.1935
-28.848
-30.4206
-31.8817
-33.2146
80.2881
81.8476
83.7413
85.6704
87.4459
88.835
89.8191
90.4822