/*--------------------------------*- C++ -*----------------------------------*\
  =========                 |
  \\      /  F ield         | OpenFOAM: The Open Source CFD Toolbox
   \\    /   O peration     | Website:  https://openfoam.org
    \\  /    A nd           | Version:  8
     \\/     M anipulation  |
\*---------------------------------------------------------------------------*/
FoamFile
{
    version     2.0;
    format      ascii;
    class       surfaceScalarField;
    location    "0.04";
    object      phi;
}
// * * * * * * * * * * * * * * * * * * * * * * * * * * * * * * * * * * * * * //

dimensions      [0 3 -1 0 0 0 0];

internalField   nonuniform List<scalar> 
31053
(
6.27736e-07
1.27523e-05
8.49647e-07
1.51581e-05
3.76338e-07
1.23759e-05
9.32372e-07
1.75573e-05
5.8893e-07
1.49455e-05
2.69661e-07
1.21063e-05
9.5605e-07
2.02163e-05
7.07162e-07
1.7439e-05
4.64903e-07
1.47503e-05
2.1622e-07
1.189e-05
9.47089e-07
2.3249e-05
7.66746e-07
2.01567e-05
5.90457e-07
1.73135e-05
3.96631e-07
1.45698e-05
1.7293e-07
1.17171e-05
9.17181e-07
2.66899e-05
7.91885e-07
2.32238e-05
6.65664e-07
2.00815e-05
5.24444e-07
1.71857e-05
3.34177e-07
1.44086e-05
1.38485e-07
1.15786e-05
8.71821e-07
3.06654e-05
7.94778e-07
2.6687e-05
7.07861e-07
2.31816e-05
6.06038e-07
1.99999e-05
4.57084e-07
1.70628e-05
2.7973e-07
1.42674e-05
1.11522e-07
1.14671e-05
8.14384e-07
3.51974e-05
7.82327e-07
3.06778e-05
7.27916e-07
2.6667e-05
6.54853e-07
2.31328e-05
5.38914e-07
1.99181e-05
3.93454e-07
1.6949e-05
2.33045e-07
1.41458e-05
8.92771e-08
1.13778e-05
7.47746e-07
4.03866e-05
7.58374e-07
3.52214e-05
7.32152e-07
3.06736e-05
6.80925e-07
2.66409e-05
5.88697e-07
2.3083e-05
4.71529e-07
1.984e-05
3.35225e-07
1.68469e-05
1.9142e-07
1.40437e-05
6.98207e-08
1.1308e-05
6.7361e-07
4.63541e-05
7.24823e-07
4.04202e-05
7.2385e-07
3.52297e-05
6.90231e-07
3.06643e-05
6.15464e-07
2.66141e-05
5.18828e-07
2.30357e-05
4.06797e-07
1.97685e-05
2.80167e-07
1.67581e-05
1.52931e-07
1.39606e-05
5.20124e-08
1.1256e-05
5.93639e-07
5.322e-05
6.83747e-07
4.63952e-05
7.04188e-07
4.04399e-05
6.86273e-07
3.52337e-05
6.25194e-07
3.06545e-05
5.42996e-07
2.659e-05
4.49098e-07
2.29934e-05
3.42803e-07
1.97058e-05
2.26728e-07
1.66843e-05
1.1632e-07
1.38963e-05
3.51359e-08
1.12209e-05
5.09779e-07
6.10639e-05
6.36827e-07
5.32669e-05
6.7446e-07
4.64249e-05
6.71446e-07
4.04547e-05
6.21402e-07
3.52374e-05
5.49832e-07
3.06477e-05
4.68224e-07
2.65708e-05
3.77784e-07
2.29584e-05
2.78227e-07
1.96543e-05
1.73881e-07
1.66268e-05
8.07409e-08
1.38507e-05
1.86853e-08
1.12022e-05
4.24589e-07
7.00672e-05
5.85577e-07
6.11151e-05
6.35769e-07
5.33056e-05
6.46402e-07
4.645e-05
6.06237e-07
4.04698e-05
5.4284e-07
3.52444e-05
4.69568e-07
3.06464e-05
3.89556e-07
2.65591e-05
3.03629e-07
2.2933e-05
2.12174e-07
1.9616e-05
1.20937e-07
1.65866e-05
4.55064e-08
1.38238e-05
2.42697e-09
1.11997e-05
3.41802e-07
8.04148e-05
5.31016e-07
7.01218e-05
5.89327e-07
6.11616e-05
6.11503e-07
5.33405e-05
5.80737e-07
4.64755e-05
5.23986e-07
4.04887e-05
4.56518e-07
3.52575e-05
3.82932e-07
3.0653e-05
3.05769e-07
2.65569e-05
2.25785e-07
2.29194e-05
1.4407e-07
1.95929e-05
6.72759e-08
1.65648e-05
1.01814e-08
1.38161e-05
-1.38363e-08
1.12136e-05
2.78458e-07
7.62533e-05
4.73189e-07
8.04726e-05
5.36489e-07
7.01746e-05
5.67138e-07
6.12059e-05
5.45275e-07
5.33759e-05
4.94254e-07
4.65052e-05
4.30944e-07
4.05143e-05
3.61131e-07
3.52793e-05
2.88763e-07
3.067e-05
2.16013e-07
2.65667e-05
1.43669e-07
2.29198e-05
7.33912e-08
1.95868e-05
1.25395e-08
1.65624e-05
-2.5418e-08
1.38277e-05
-3.02108e-08
1.12438e-05
2.27804e-07
7.62407e-05
4.21201e-07
7.63053e-05
4.78637e-07
8.05305e-05
5.13923e-07
7.02278e-05
5.00032e-07
6.12512e-05
4.54014e-07
5.34162e-05
3.93726e-07
4.65424e-05
3.25912e-07
4.05495e-05
2.55563e-07
3.53125e-05
1.86191e-07
3.06998e-05
1.19654e-07
2.65907e-05
5.67722e-08
2.29365e-05
-1.07495e-10
1.95994e-05
-4.34342e-08
1.65805e-05
-6.14108e-08
1.38589e-05
-4.672e-08
1.12905e-05
1.87467e-07
7.62303e-05
3.72446e-07
7.62894e-05
4.27049e-07
7.63569e-05
4.52952e-07
8.05914e-05
4.45275e-07
7.02826e-05
4.03408e-07
6.13018e-05
3.45163e-07
5.34647e-05
2.78042e-07
4.65903e-05
2.07767e-07
4.05973e-05
1.38927e-07
3.53597e-05
7.45231e-08
3.07449e-05
1.61889e-08
2.66313e-05
-3.50273e-08
2.29714e-05
-7.63449e-08
1.96323e-05
-1.00552e-07
1.66196e-05
-9.76659e-08
1.39098e-05
-6.33384e-08
1.13539e-05
1.55021e-07
7.62244e-05
3.27229e-07
7.62756e-05
3.78758e-07
7.63377e-05
3.97437e-07
7.64124e-05
3.81653e-07
8.06551e-05
3.42624e-07
7.03433e-05
2.85344e-07
6.13616e-05
2.17721e-07
5.35251e-05
1.46e-07
4.66521e-05
7.55951e-08
4.06606e-05
1.04602e-08
3.54238e-05
-4.67427e-08
3.08079e-05
-9.44527e-08
2.66907e-05
-1.31507e-07
2.30265e-05
-1.55109e-07
1.96869e-05
-1.58471e-07
1.66804e-05
-1.34094e-07
1.39806e-05
-7.98771e-08
1.14337e-05
1.2866e-07
7.62164e-05
2.85877e-07
7.62658e-05
3.33822e-07
7.63205e-05
3.44892e-07
7.63902e-05
3.22681e-07
7.64714e-05
2.72252e-07
8.07254e-05
2.144e-07
7.04143e-05
1.44985e-07
6.14343e-05
7.03377e-08
5.36007e-05
-3.37319e-09
4.6731e-05
-7.14422e-08
4.07425e-05
-1.30341e-07
3.55074e-05
-1.7766e-07
3.08911e-05
-2.1192e-07
2.67711e-05
-2.32232e-07
2.31037e-05
-2.35706e-07
1.97641e-05
-2.16834e-07
1.67631e-05
-1.70281e-07
1.4071e-05
-9.59808e-08
1.15297e-05
1.0706e-07
7.62116e-05
2.484e-07
7.62538e-05
2.92263e-07
7.63074e-05
2.95746e-07
7.63696e-05
2.66288e-07
7.64466e-05
2.0709e-07
7.65366e-05
1.32931e-07
8.08069e-05
5.99602e-08
7.04993e-05
-1.92433e-08
6.15239e-05
-9.8064e-08
5.36954e-05
-1.71008e-07
4.68306e-05
-2.3388e-07
4.08461e-05
-2.83517e-07
3.56133e-05
-3.17707e-07
3.09969e-05
-3.35539e-07
2.68744e-05
-3.36218e-07
2.32042e-05
-3.17377e-07
1.98647e-05
-2.74948e-07
1.68678e-05
-2.05657e-07
1.41807e-05
-1.11433e-07
1.16411e-05
8.9242e-08
7.62078e-05
2.14639e-07
7.62454e-05
2.5402e-07
7.62921e-05
2.50261e-07
7.63528e-05
2.13251e-07
7.64227e-05
1.449e-07
7.65088e-05
5.79774e-08
7.66115e-05
-3.66987e-08
8.09036e-05
-1.22621e-07
7.06027e-05
-2.08585e-07
6.16344e-05
-2.88529e-07
5.38129e-05
-3.57473e-07
4.69542e-05
-4.11705e-07
4.09742e-05
-4.48348e-07
3.57439e-05
-4.65989e-07
3.11273e-05
-4.64057e-07
2.70023e-05
-4.42232e-07
2.3329e-05
-3.99066e-07
1.99888e-05
-3.3195e-07
1.69941e-05
-2.39656e-07
1.43089e-05
-1.25967e-07
1.17671e-05
7.56213e-08
6.95956e-05
1.84392e-07
7.62381e-05
2.19004e-07
7.62804e-05
2.08549e-07
7.63338e-05
1.64065e-07
7.6402e-05
8.66465e-08
7.64809e-05
-1.31586e-08
7.658e-05
-1.25013e-07
7.66998e-05
-2.38974e-07
8.10199e-05
-3.34779e-07
7.07289e-05
-4.2422e-07
6.17701e-05
-5.01665e-07
5.39571e-05
-5.62709e-07
4.71052e-05
-6.04013e-07
4.11299e-05
-6.23718e-07
3.59016e-05
-6.20962e-07
3.12842e-05
-5.95767e-07
2.71558e-05
-5.48804e-07
2.34788e-05
-4.7951e-07
2.01364e-05
-3.86911e-07
1.71414e-05
-2.71711e-07
1.44546e-05
-1.39442e-07
1.19066e-05
6.51456e-08
6.25545e-05
1.59755e-07
6.96203e-05
1.87106e-07
7.627e-05
1.70616e-07
7.63183e-05
1.1904e-07
7.63788e-05
3.29609e-08
7.64557e-05
-7.93493e-08
7.65471e-05
-2.08318e-07
7.66633e-05
-3.44495e-07
7.68054e-05
-4.75647e-07
8.11608e-05
-5.77925e-07
7.08826e-05
-6.66816e-07
6.19353e-05
-7.37384e-07
5.41318e-05
-7.8562e-07
4.72868e-05
-8.09452e-07
4.13156e-05
-8.07757e-07
3.60884e-05
-7.80453e-07
3.14689e-05
-7.28751e-07
2.73358e-05
-6.54185e-07
2.36534e-05
-5.57371e-07
2.03068e-05
-4.38876e-07
1.73085e-05
-3.01416e-07
1.46166e-05
-1.51479e-07
1.2058e-05
5.69304e-08
5.62262e-05
1.39926e-07
6.25743e-05
1.60498e-07
6.96469e-05
1.36411e-07
7.63042e-05
7.83499e-08
7.6359e-05
-1.57282e-08
7.64275e-05
-1.39784e-07
7.65161e-05
-2.8529e-07
7.66241e-05
-4.43436e-07
7.67622e-05
-6.02607e-07
7.69323e-05
-7.48419e-07
8.13313e-05
-8.52787e-07
7.10686e-05
-9.36282e-07
6.21342e-05
-9.94395e-07
5.43406e-05
-1.02461e-06
4.7502e-05
-1.02579e-06
4.15337e-05
-9.97816e-07
3.63058e-05
-9.42057e-07
3.16822e-05
-8.60737e-07
2.75423e-05
-7.56579e-07
2.38526e-05
-6.31248e-07
2.04992e-05
-4.87085e-07
1.74942e-05
-3.27931e-07
1.4793e-05
-1.61465e-07
1.22195e-05
5.03811e-08
5.05385e-05
1.2384e-07
5.62423e-05
1.38565e-07
6.25962e-05
1.08345e-07
6.96749e-05
4.20794e-08
7.63404e-05
-5.91449e-08
7.64024e-05
-1.93899e-07
7.64816e-05
-3.54949e-07
7.65858e-05
-5.34287e-07
7.67149e-05
-7.21029e-07
7.68806e-05
-9.01336e-07
7.70852e-05
-1.05812e-06
8.15366e-05
-1.15931e-06
7.12916e-05
-1.23114e-06
6.23709e-05
-1.27085e-06
5.45868e-05
-1.27704e-06
4.77532e-05
-1.24986e-06
4.17857e-05
-1.19096e-06
3.65547e-05
-1.10296e-06
3.19244e-05
-9.89431e-07
2.77752e-05
-8.54094e-07
2.40755e-05
-6.99929e-07
2.0712e-05
-5.30245e-07
1.76965e-05
-3.505e-07
1.49821e-05
-1.67159e-07
1.23867e-05
4.50883e-08
4.54253e-05
1.10681e-07
5.05517e-05
1.20429e-07
5.62604e-05
8.56335e-08
6.26189e-05
1.28609e-08
6.97042e-05
-9.71095e-08
7.63784e-05
-2.4131e-07
7.64498e-05
-4.1657e-07
7.65432e-05
-6.15862e-07
7.66674e-05
-8.29187e-07
7.68231e-05
-1.0434e-06
7.70227e-05
-1.24166e-06
7.72688e-05
-1.4048e-06
8.17821e-05
-1.49586e-06
7.15563e-05
-1.5493e-06
6.26493e-05
-1.56368e-06
5.48735e-05
-1.5392e-06
4.80426e-05
-1.4782e-06
4.20729e-05
-1.38383e-06
3.68356e-05
-1.26033e-06
3.21953e-05
-1.11239e-06
2.80335e-05
-9.44985e-07
2.43205e-05
-7.61673e-07
2.09435e-05
-5.67431e-07
1.79134e-05
-3.64909e-07
1.51798e-05
-1.35569e-07
1.25222e-05
4.07603e-08
4.08303e-05
9.98309e-08
4.54361e-05
1.0538e-07
5.05668e-05
6.72109e-08
5.62789e-05
-1.02264e-08
6.2642e-05
-1.26934e-07
6.9734e-05
-2.81765e-07
7.64189e-05
-4.69636e-07
7.65029e-05
-6.87247e-07
7.66146e-05
-9.25674e-07
7.67639e-05
-1.17264e-06
7.69523e-05
-1.4117e-06
7.71927e-05
-1.62375e-06
7.74877e-05
-1.78668e-06
8.20729e-05
-1.86011e-06
7.18671e-05
-1.88723e-06
6.29729e-05
-1.86861e-06
5.52029e-05
-1.80707e-06
4.83714e-05
-1.7068e-06
4.23959e-05
-1.57295e-06
3.71482e-05
-1.41108e-06
3.2494e-05
-1.22729e-06
2.83158e-05
-1.02704e-06
2.45859e-05
-8.15071e-07
2.11911e-05
-5.93215e-07
1.81417e-05
-3.57832e-07
1.54021e-05
-8.64797e-08
1.26087e-05
3.71821e-08
3.66996e-05
9.08248e-08
4.08393e-05
9.28386e-08
4.54487e-05
5.22376e-08
5.05817e-05
-2.84317e-08
5.62971e-05
-1.4976e-07
6.26649e-05
-3.12506e-07
6.97647e-05
-5.13787e-07
7.6463e-05
-7.47769e-07
7.65634e-05
-1.00937e-06
7.66983e-05
-1.28738e-06
7.68786e-05
-1.566e-06
7.71066e-05
-1.82632e-06
7.73953e-05
-2.04581e-06
7.77469e-05
-2.20128e-06
8.24141e-05
-2.24811e-06
7.2228e-05
-2.2401e-06
6.33444e-05
-2.18103e-06
5.55769e-05
-2.07593e-06
4.87406e-05
-1.93151e-06
4.27545e-05
-1.75454e-06
3.74917e-05
-1.5523e-06
3.2819e-05
-1.33145e-06
2.86202e-05
-1.0983e-06
2.48691e-05
-8.5504e-07
2.14529e-05
-6.02151e-07
1.83861e-05
-3.31566e-07
1.56472e-05
-6.28203e-08
1.26715e-05
3.41934e-08
3.2989e-05
8.33114e-08
3.67071e-05
8.23506e-08
4.08498e-05
4.005e-08
4.54609e-05
-4.27577e-08
5.05961e-05
-1.67059e-07
5.63144e-05
-3.35028e-07
6.26874e-05
-5.46117e-07
6.9797e-05
-7.96938e-07
7.65122e-05
-1.07941e-06
7.66335e-05
-1.38626e-06
7.67972e-05
-1.70259e-06
7.70152e-05
-2.0099e-06
7.72902e-05
-2.28545e-06
7.7635e-05
-2.50527e-06
7.80508e-05
-2.64428e-06
8.28103e-05
-2.65444e-06
7.26423e-05
-2.60261e-06
6.3766e-05
-2.49537e-06
5.59963e-05
-2.34083e-06
4.91499e-05
-2.14779e-06
4.31477e-05
-1.92513e-06
3.78645e-05
-1.68087e-06
3.31685e-05
-1.42244e-06
2.89443e-05
-1.1545e-06
2.51686e-05
-8.78295e-07
2.17291e-05
-5.98487e-07
1.8653e-05
-3.06749e-07
1.58911e-05
-5.7214e-08
1.27287e-05
3.16744e-08
2.96505e-05
7.70134e-08
3.29953e-05
7.35647e-08
3.67159e-05
3.0098e-08
4.08598e-05
-5.40072e-08
4.54721e-05
-1.80022e-07
5.0609e-05
-3.51133e-07
5.63305e-05
-5.68579e-07
6.27098e-05
-8.31639e-07
6.98317e-05
-1.13515e-06
7.65679e-05
-1.46821e-06
7.67154e-05
-1.81981e-06
7.69144e-05
-2.17219e-06
7.71775e-05
-2.50262e-06
7.75074e-05
-2.78654e-06
7.79162e-05
-2.99761e-06
7.84042e-05
-3.10962e-06
8.32654e-05
-3.07304e-06
7.31128e-05
-2.96833e-06
6.42389e-05
-2.80591e-06
5.64614e-05
-2.59651e-06
4.95986e-05
-2.35159e-06
4.35742e-05
-2.08108e-06
3.82647e-05
-1.79392e-06
3.35399e-05
-1.49666e-06
2.92864e-05
-1.19313e-06
2.54834e-05
-8.89557e-07
2.20201e-05
-5.89571e-07
1.89358e-05
-2.92839e-07
1.61267e-05
-6.15962e-08
1.27903e-05
2.95346e-08
2.66501e-05
7.17104e-08
2.96558e-05
6.61909e-08
3.30027e-05
2.19314e-08
3.6724e-05
-6.28254e-08
4.08686e-05
-1.89602e-07
4.54817e-05
-3.62274e-07
5.06202e-05
-5.83415e-07
5.63453e-05
-8.54385e-07
6.27326e-05
-1.17318e-06
6.98698e-05
-1.53238e-06
7.66321e-05
-1.91631e-06
7.68119e-05
-2.31119e-06
7.70534e-05
-2.69461e-06
7.73695e-05
-3.04171e-06
7.77625e-05
-3.32501e-06
7.82436e-05
-3.5162e-06
7.88108e-05
-3.5906e-06
8.3783e-05
-3.49671e-06
7.36412e-05
-3.33079e-06
6.47638e-05
-3.10661e-06
5.69715e-05
-2.83826e-06
5.00853e-05
-2.53871e-06
4.40318e-05
-2.21915e-06
3.86899e-05
-1.88827e-06
3.39316e-05
-1.55205e-06
2.96454e-05
-1.218e-06
2.58119e-05
-8.94292e-07
2.23249e-05
-5.82657e-07
1.92256e-05
-2.89489e-07
1.63546e-05
-8.48591e-08
1.28752e-05
2.77048e-08
2.39558e-05
6.72205e-08
2.66546e-05
5.99863e-08
2.9662e-05
1.51972e-08
3.30094e-05
-6.97304e-08
3.67309e-05
-1.96564e-07
4.08756e-05
-3.69615e-07
4.5489e-05
-5.92432e-07
5.06292e-05
-8.67966e-07
5.63589e-05
-1.19668e-06
6.27561e-05
-1.57495e-06
6.99123e-05
-1.99105e-06
7.67068e-05
-2.42524e-06
7.6926e-05
-2.85904e-06
7.72179e-05
-3.26765e-06
7.75954e-05
-3.6226e-06
7.80601e-05
-3.89381e-06
7.86212e-05
-4.05395e-06
7.92741e-05
-4.07923e-06
8.43655e-05
-3.91813e-06
7.42285e-05
-3.68297e-06
6.53402e-05
-3.39194e-06
5.75252e-05
-3.06118e-06
5.06077e-05
-2.70547e-06
4.45181e-05
-2.33632e-06
3.9138e-05
-1.96217e-06
3.43417e-05
-1.59146e-06
3.00188e-05
-1.23421e-06
2.61518e-05
-8.97452e-07
2.26396e-05
-5.79888e-07
1.9516e-05
-3.58143e-07
1.66279e-05
-9.39524e-08
1.29691e-05
2.61315e-08
2.15336e-05
6.33965e-08
2.39597e-05
5.47451e-08
2.66599e-05
9.62219e-09
2.96676e-05
-7.51336e-08
3.30148e-05
-2.0151e-07
3.67359e-05
-3.74074e-07
4.088e-05
-5.9707e-07
4.54937e-05
-8.74629e-07
5.06358e-05
-1.20912e-06
5.63713e-05
-1.59988e-06
6.2781e-05
-2.0396e-06
6.99609e-05
-2.51301e-06
7.67946e-05
-2.9939e-06
7.70608e-05
-3.46149e-06
7.74117e-05
-3.88674e-06
7.78596e-05
-4.23803e-06
7.84044e-05
-4.48556e-06
7.90528e-05
-4.60227e-06
7.97971e-05
-4.56728e-06
8.50147e-05
-4.32921e-06
7.48747e-05
-4.01849e-06
6.59667e-05
-3.65626e-06
5.81202e-05
-3.26112e-06
5.11634e-05
-2.84883e-06
4.50306e-05
-2.43096e-06
3.96068e-05
-2.01759e-06
3.47678e-05
-1.6193e-06
3.04039e-05
-1.24573e-06
2.65001e-05
-8.99971e-07
2.29597e-05
-7.14142e-07
1.9872e-05
-3.58405e-07
1.68924e-05
-1.03081e-07
1.30722e-05
2.47723e-08
1.93534e-05
6.01231e-08
2.15368e-05
5.02967e-08
2.39641e-05
4.9957e-09
2.66645e-05
-7.93575e-08
2.96718e-05
-2.04915e-07
3.30182e-05
-3.76377e-07
3.67382e-05
-5.98463e-07
4.08814e-05
-8.7616e-07
4.54952e-05
-1.21326e-06
5.064e-05
-1.61141e-06
5.63829e-05
-2.06682e-06
6.28083e-05
-2.5693e-06
7.00172e-05
-3.09748e-06
7.68982e-05
-3.62078e-06
7.72201e-05
-4.11412e-06
7.76391e-05
-4.54469e-06
7.81662e-05
-4.88049e-06
7.87993e-05
-5.09119e-06
7.95418e-05
-5.15213e-06
8.0382e-05
-5.04555e-06
8.5731e-05
-4.72262e-06
7.55789e-05
-4.33087e-06
6.66413e-05
-3.89484e-06
5.8754e-05
-3.43483e-06
5.17494e-05
-2.96706e-06
4.55667e-05
-2.50425e-06
4.00934e-05
-2.05807e-06
3.52066e-05
-1.63878e-06
3.0797e-05
-1.25324e-06
2.68533e-05
-1.11197e-06
2.33576e-05
-7.06276e-07
2.02199e-05
-3.58168e-07
1.71474e-05
-1.09927e-07
1.31822e-05
1.73972e-05
2.35949e-08
5.73085e-08
1.93562e-05
4.65039e-08
2.15406e-05
1.14913e-09
2.39679e-05
-8.26541e-08
2.66678e-05
-2.07149e-07
2.96741e-05
-3.77087e-07
3.30189e-05
-5.97499e-07
3.67372e-05
-8.73965e-07
4.08792e-05
-1.21132e-06
4.54933e-05
-1.61296e-06
5.06415e-05
-2.07788e-06
5.63939e-05
-2.59996e-06
6.28389e-05
-3.16359e-06
7.00833e-05
-3.74341e-06
7.70208e-05
-4.30175e-06
7.74077e-05
-4.80989e-06
7.79043e-05
-5.23396e-06
7.85197e-05
-5.54053e-06
7.92486e-05
-5.70106e-06
8.00907e-05
-5.69341e-06
8.10299e-05
-5.5057e-06
8.65141e-05
-5.09092e-06
7.63389e-05
-4.61463e-06
6.73611e-05
-4.104e-06
5.94231e-05
-3.58026e-06
5.23626e-05
-3.0606e-06
4.61231e-05
-2.55883e-06
4.05942e-05
-2.08613e-06
3.56539e-05
-1.65062e-06
3.11944e-05
-1.55137e-06
2.72927e-05
-1.09919e-06
2.37505e-05
-6.95332e-07
2.05571e-05
-3.55596e-07
1.73931e-05
-1.14304e-07
1.32965e-05
1.73996e-05
5.48714e-08
2.78119e-05
2.16659e-08
4.32569e-08
1.93594e-05
-2.05716e-09
2.15438e-05
-8.52204e-08
2.39705e-05
-2.08499e-07
2.66691e-05
-3.76644e-07
2.96736e-05
-5.94863e-07
3.30163e-05
-8.69136e-07
3.67324e-05
-1.20504e-06
4.08729e-05
-1.60726e-06
4.54876e-05
-2.07692e-06
5.06406e-05
-2.6112e-06
5.64051e-05
-3.19916e-06
6.28745e-05
-3.82187e-06
7.01618e-05
-4.44703e-06
7.71661e-05
-5.03006e-06
7.76279e-05
-5.54142e-06
7.82117e-05
-5.9449e-06
7.89241e-05
-6.20806e-06
7.97556e-05
-6.30425e-06
8.07015e-05
-6.21691e-06
8.17411e-05
-5.93918e-06
8.73623e-05
-5.42775e-06
7.7152e-05
-4.86547e-06
6.81226e-05
-4.28119e-06
6.01241e-05
-3.69715e-06
5.29991e-05
-3.13128e-06
4.66955e-05
-2.59666e-06
4.11047e-05
-2.10259e-06
3.61059e-05
-2.04438e-06
3.16874e-05
-1.53468e-06
2.77282e-05
-1.07915e-06
2.41343e-05
-6.80497e-07
2.0882e-05
-3.5023e-07
1.7629e-05
-1.16502e-07
1.3413e-05
1.74024e-05
4.04703e-08
2.78159e-05
5.08582e-08
2.85518e-05
1.9825e-08
-4.73775e-09
1.93621e-05
-8.72111e-08
2.15458e-05
-2.0919e-07
2.39712e-05
-3.75384e-07
2.66679e-05
-5.91086e-07
2.96698e-05
-8.62516e-07
3.30097e-05
-1.19575e-06
3.67231e-05
-1.59642e-06
4.08621e-05
-2.06727e-06
4.54779e-05
-2.608e-06
5.06374e-05
-3.21152e-06
5.64175e-05
-3.86421e-06
6.29168e-05
-4.54081e-06
7.02555e-05
-5.20202e-06
7.7338e-05
-5.79865e-06
7.78851e-05
-6.29904e-06
7.85659e-05
-6.66711e-06
7.93831e-05
-6.87153e-06
8.03229e-05
-6.89078e-06
8.13754e-05
-6.71304e-06
8.25149e-05
-6.33856e-06
8.82731e-05
-5.72795e-06
7.80145e-05
-5.08015e-06
6.89216e-05
-4.42543e-06
6.08523e-05
-3.78657e-06
5.36544e-05
-3.18052e-06
4.72794e-05
-2.61858e-06
4.16207e-05
-2.60468e-06
3.66662e-05
-2.02287e-06
3.21755e-05
-1.50624e-06
2.81553e-05
-1.05232e-06
2.45061e-05
-6.61746e-07
2.11935e-05
-3.42345e-07
1.78549e-05
-1.1691e-07
1.35299e-05
1.74047e-05
-6.98855e-09
2.78199e-05
3.6541e-08
2.85557e-05
4.69772e-08
2.93118e-05
1.80743e-08
-8.8748e-08
1.93636e-05
-2.09395e-07
2.1546e-05
-3.73566e-07
2.39694e-05
-5.86568e-07
2.66634e-05
-8.54748e-07
2.96621e-05
-1.1845e-06
3.29984e-05
-1.58211e-06
3.67088e-05
-2.05152e-06
4.08463e-05
-2.59438e-06
4.54643e-05
-3.20664e-06
5.06325e-05
-3.87903e-06
5.64323e-05
-4.59224e-06
6.29683e-05
-5.31453e-06
7.0368e-05
-6.00177e-06
7.75411e-05
-6.59799e-06
7.81841e-05
-7.07223e-06
7.8971e-05
-7.3886e-06
7.99002e-05
-7.52029e-06
8.09524e-05
-7.45009e-06
8.21125e-05
-7.17335e-06
8.33497e-05
-6.69764e-06
8.92428e-05
-5.98742e-06
7.89218e-05
-5.25694e-06
6.97531e-05
-4.53708e-06
6.16028e-05
-3.84943e-06
5.43234e-05
-3.20919e-06
4.787e-05
-3.24466e-06
4.22607e-05
-2.57739e-06
3.72207e-05
-1.9851e-06
3.26544e-05
-1.46755e-06
2.85706e-05
-1.01953e-06
2.48639e-05
-6.3969e-07
2.14908e-05
-3.32372e-07
1.80703e-05
-1.15808e-07
1.36457e-05
1.74058e-05
-8.99283e-08
2.7822e-05
-9.16343e-09
2.85594e-05
3.28473e-08
2.93155e-05
4.32456e-08
3.00897e-05
1.6415e-08
-2.09246e-07
1.93635e-05
-3.71386e-07
2.15439e-05
-5.81614e-07
2.39644e-05
-8.46317e-07
2.66549e-05
-1.17207e-06
2.96496e-05
-1.56559e-06
3.29819e-05
-2.03169e-06
3.6689e-05
-2.57348e-06
4.08254e-05
-3.18927e-06
4.54469e-05
-3.87332e-06
5.06268e-05
-4.61127e-06
5.64513e-05
-5.37787e-06
6.30316e-05
-6.13699e-06
7.05033e-05
-6.83709e-06
7.77803e-05
-7.41767e-06
7.85295e-05
-7.84875e-06
7.94312e-05
-8.0982e-06
8.04781e-05
-8.14291e-06
8.16452e-05
-7.97274e-06
8.29118e-05
-7.59062e-06
8.42427e-05
-7.01125e-06
9.02667e-05
-6.20357e-06
7.98684e-05
-5.39548e-06
7.06115e-05
-4.61659e-06
6.237e-05
-3.88663e-06
5.50008e-05
-3.97795e-06
4.86033e-05
-3.21107e-06
4.28944e-05
-2.529e-06
3.77646e-05
-1.93348e-06
3.31203e-05
-1.42031e-06
2.89713e-05
-9.81982e-07
2.52062e-05
-6.15005e-07
2.17734e-05
-3.20661e-07
1.82752e-05
-1.13422e-07
1.37591e-05
1.74054e-05
-2.08847e-07
2.78209e-05
-8.87992e-08
2.85613e-05
-1.10678e-08
2.9319e-05
2.9377e-08
3.00932e-05
3.9665e-08
3.08896e-05
1.48473e-08
-3.68993e-07
1.93611e-05
-5.76448e-07
2.15387e-05
-8.37583e-07
2.39557e-05
-1.15904e-06
2.66419e-05
-1.54782e-06
2.96319e-05
-2.00931e-06
3.29595e-05
-2.54773e-06
3.66632e-05
-3.16319e-06
4.07993e-05
-3.85273e-06
4.54263e-05
-4.60603e-06
5.06216e-05
-5.40337e-06
5.64768e-05
-6.21562e-06
6.31103e-05
-6.99947e-06
7.06656e-05
-7.69789e-06
7.80605e-05
-8.24538e-06
7.89261e-05
-8.61708e-06
7.995e-05
-8.78375e-06
8.11189e-05
-8.72903e-06
8.24015e-05
-8.45047e-06
8.37717e-05
-7.95859e-06
8.51901e-05
-7.27577e-06
9.13389e-05
-6.37528e-06
8.08482e-05
-5.49576e-06
7.14906e-05
-4.6648e-06
6.31482e-05
-4.82025e-06
5.58431e-05
-3.93788e-06
4.93301e-05
-3.1509e-06
4.35163e-05
-2.46278e-06
3.82939e-05
-1.87044e-06
3.35705e-05
-1.36632e-06
2.93557e-05
-9.40817e-07
2.5532e-05
-5.88271e-07
2.20411e-05
-3.07534e-07
1.84693e-05
-1.09995e-07
1.38691e-05
1.74029e-05
-3.66496e-07
2.7815e-05
-2.02882e-07
2.85598e-05
-8.72897e-08
2.93206e-05
-1.26886e-08
3.00965e-05
2.61351e-08
3.0893e-05
3.62406e-08
3.17095e-05
1.33695e-08
-5.71239e-07
1.93559e-05
-8.28812e-07
2.15299e-05
-1.14586e-06
2.39425e-05
-1.52952e-06
2.66236e-05
-1.98556e-06
2.96081e-05
-2.519e-06
3.29308e-05
-3.13131e-06
3.66313e-05
-3.8217e-06
4.07683e-05
-4.5831e-06
4.54034e-05
-5.40038e-06
5.06186e-05
-6.25043e-06
5.65116e-05
-7.09733e-06
6.32081e-05
-7.89231e-06
7.08601e-05
-8.57199e-06
7.83871e-05
-9.06946e-06
7.93785e-05
-9.36449e-06
8.05308e-05
-9.43407e-06
8.1824e-05
-9.26942e-06
8.32205e-05
-8.87599e-06
8.46891e-05
-8.27268e-06
8.6187e-05
-7.48924e-06
9.24528e-05
-6.50199e-06
8.18544e-05
-5.55846e-06
7.23843e-05
-5.78961e-06
6.41175e-05
-4.77401e-06
5.66792e-05
-3.86498e-06
5.00442e-05
-3.06837e-06
4.41219e-05
-2.38197e-06
3.88055e-05
-1.79845e-06
3.40026e-05
-1.30733e-06
2.97222e-05
-8.97067e-07
2.58408e-05
-5.60068e-07
2.22936e-05
-2.93358e-07
1.86527e-05
-1.05781e-07
1.39749e-05
1.73978e-05
-5.66103e-07
2.78024e-05
-3.53976e-07
2.85533e-05
-1.9642e-07
2.93187e-05
-8.54157e-08
3.00978e-05
-1.40246e-08
3.0896e-05
2.3121e-08
3.17127e-05
3.29767e-08
3.25534e-05
1.19837e-08
-8.20194e-07
1.93473e-05
-1.13284e-06
2.15169e-05
-1.51121e-06
2.39242e-05
-1.96132e-06
2.65994e-05
-2.48871e-06
2.95778e-05
-3.09588e-06
3.28954e-05
-3.78371e-06
3.65934e-05
-4.5477e-06
4.07329e-05
-5.37647e-06
4.53795e-05
-6.25199e-06
5.06201e-05
-7.14484e-06
5.65592e-05
-8.01387e-06
6.33297e-05
-8.8037e-06
7.10918e-05
-9.44783e-06
7.87654e-05
-9.8768e-06
7.98908e-05
-1.00791e-05
8.11758e-05
-1.0039e-05
8.25936e-05
-9.75574e-06
8.41002e-05
-9.24373e-06
8.56601e-05
-8.53016e-06
8.72279e-05
-7.65044e-06
9.36013e-05
-6.58414e-06
8.28801e-05
-6.90546e-06
7.35002e-05
-5.73819e-06
6.50817e-05
-4.68766e-06
5.75019e-05
-3.76444e-06
5.07402e-05
-2.96759e-06
4.47075e-05
-2.28979e-06
3.92968e-05
-1.71989e-06
3.44151e-05
-1.24495e-06
3.00701e-05
-8.51655e-07
2.61324e-05
-5.30969e-07
2.25312e-05
-2.78499e-07
1.88254e-05
-1.01003e-07
1.40759e-05
1.73895e-05
-8.11863e-07
2.77814e-05
-5.45101e-07
2.85401e-05
-3.40771e-07
2.93117e-05
-1.89416e-07
3.00955e-05
-8.31471e-08
3.08971e-05
-1.50761e-08
3.17155e-05
2.03348e-08
3.25565e-05
2.98707e-08
3.34193e-05
1.06861e-08
-1.12019e-06
1.93346e-05
-1.49326e-06
2.14989e-05
-1.9372e-06
2.39001e-05
-2.4579e-06
2.65686e-05
-3.0586e-06
2.95406e-05
-3.74143e-06
3.28531e-05
-4.50392e-06
3.65496e-05
-5.33769e-06
4.06941e-05
-6.22896e-06
4.53565e-05
-7.15387e-06
5.06292e-05
-8.0781e-06
5.66234e-05
-8.9539e-06
6.34799e-05
-9.72231e-06
7.13663e-05
-1.03121e-05
7.92007e-05
-1.0655e-05
8.04667e-05
-1.075e-05
8.18868e-05
-1.05892e-05
8.3427e-05
-1.01814e-05
8.50379e-05
-9.55008e-06
8.668e-05
-8.72915e-06
8.83066e-05
-7.75946e-06
9.47766e-05
-8.19023e-06
8.41649e-05
-6.85088e-06
7.46128e-05
-5.63805e-06
6.60321e-05
-4.56747e-06
5.8305e-05
-3.64135e-06
5.1414e-05
-2.85265e-06
4.52703e-05
-2.18929e-06
3.97662e-05
-1.63695e-06
3.48071e-05
-1.18053e-06
3.03989e-05
-8.05415e-07
2.64068e-05
-5.01501e-07
2.27542e-05
-2.63242e-07
1.89876e-05
-9.58664e-08
1.41717e-05
1.73774e-05
-1.10808e-06
2.77497e-05
-7.80119e-07
2.85183e-05
-5.23248e-07
2.92979e-05
-3.26934e-07
3.00881e-05
-1.81947e-07
3.08944e-05
-8.05066e-08
3.17163e-05
-1.58411e-08
3.25591e-05
1.77766e-08
3.34222e-05
2.6928e-08
3.43052e-05
9.47557e-09
-1.47594e-06
1.93173e-05
-1.91367e-06
2.14754e-05
-2.42735e-06
2.38695e-05
-3.02075e-06
2.65307e-05
-3.6969e-06
2.9496e-05
-4.45491e-06
3.28041e-05
-5.28882e-06
3.65007e-05
-6.18828e-06
4.06535e-05
-7.13416e-06
4.53368e-05
-8.0981e-06
5.06492e-05
-9.03938e-06
5.67089e-05
-9.9065e-06
6.36641e-05
-1.06349e-05
7.16891e-05
-1.11521e-05
7.96978e-05
-1.13924e-05
8.11091e-05
-1.13667e-05
8.26643e-05
-1.1077e-05
8.43227e-05
-1.05418e-05
8.60296e-05
-9.79233e-06
8.77432e-05
-8.86918e-06
8.94163e-05
-9.66929e-06
9.62556e-05
-8.13651e-06
8.54505e-05
-6.73745e-06
7.57122e-05
-5.49668e-06
6.69613e-05
-4.41959e-06
5.90832e-05
-3.50078e-06
5.20621e-05
-2.72735e-06
4.58084e-05
-2.08328e-06
4.02125e-05
-1.55148e-06
3.51781e-05
-1.11524e-06
3.07088e-05
-7.59102e-07
2.66644e-05
-4.72046e-07
2.2963e-05
-2.47875e-07
1.91396e-05
-9.05336e-08
1.42623e-05
1.73608e-05
-1.45942e-06
2.77049e-05
-1.06328e-06
2.84855e-05
-7.47313e-07
2.92751e-05
-5.00509e-07
3.00736e-05
-3.12409e-07
3.08864e-05
-1.73966e-07
3.17133e-05
-7.74857e-08
3.25595e-05
-1.63259e-08
3.34246e-05
1.54417e-08
3.4308e-05
2.41474e-08
3.52191e-05
8.35115e-09
-1.89104e-06
1.92947e-05
-2.39761e-06
2.14457e-05
-2.98324e-06
2.3832e-05
-3.65163e-06
2.64854e-05
-4.40309e-06
2.94442e-05
-5.23355e-06
3.27488e-05
-6.13546e-06
3.64479e-05
-7.0936e-06
4.06129e-05
-8.08474e-06
4.53234e-05
-9.07446e-06
5.06842e-05
-1.00183e-05
5.68207e-05
-1.08587e-05
6.38878e-05
-1.15287e-05
7.20657e-05
-1.19556e-05
8.02611e-05
-1.20778e-05
8.18202e-05
-1.19208e-05
8.35081e-05
-1.14969e-05
8.52778e-05
-1.08334e-05
8.70706e-05
-9.96941e-06
8.88435e-05
-1.10738e-05
9.08208e-05
-9.62413e-06
9.77433e-05
-8.01211e-06
8.67252e-05
-6.57402e-06
7.67896e-05
-5.3215e-06
6.78632e-05
-4.25023e-06
5.98326e-05
-3.34743e-06
5.26822e-05
-2.59522e-06
4.63204e-05
-1.97414e-06
4.06352e-05
-1.46505e-06
3.55279e-05
-1.05015e-06
3.09998e-05
-7.13247e-07
2.69056e-05
-4.42996e-07
2.31581e-05
-2.32626e-07
1.92817e-05
-8.51245e-08
1.43474e-05
1.73393e-05
-1.86951e-06
2.76441e-05
-1.39866e-06
2.84394e-05
-1.01716e-06
2.92413e-05
-7.13517e-07
3.005e-05
-4.76949e-07
3.08713e-05
-2.97262e-07
3.17048e-05
-1.65509e-07
3.25562e-05
-7.41029e-08
3.34248e-05
-1.65317e-08
3.43101e-05
1.33267e-08
3.52217e-05
2.15264e-08
3.6155e-05
7.30945e-09
-2.36905e-06
1.92661e-05
-2.94673e-06
2.14092e-05
-3.60675e-06
2.37871e-05
-4.35028e-06
2.64326e-05
-5.17473e-06
2.93854e-05
-6.07479e-06
3.26881e-05
-7.03847e-06
3.63928e-05
-8.04688e-06
4.0575e-05
-9.0711e-06
4.532e-05
-1.00731e-05
5.07391e-05
-1.10022e-05
5.69642e-05
-1.17977e-05
6.41568e-05
-1.23912e-05
7.25013e-05
-1.27108e-05
8.08941e-05
-1.27017e-05
8.26011e-05
-1.24056e-05
8.44167e-05
-1.18443e-05
8.62887e-05
-1.10543e-05
8.81555e-05
-1.24755e-05
9.02451e-05
-1.10454e-05
9.22421e-05
-9.49411e-06
9.92253e-05
-7.82736e-06
8.79785e-05
-6.36947e-06
7.78375e-05
-5.12e-06
6.8733e-05
-4.06511e-06
6.05503e-05
-3.18561e-06
5.32726e-05
-2.45921e-06
4.68054e-05
-1.86389e-06
4.1034e-05
-1.37905e-06
3.58568e-05
-9.85958e-07
3.12725e-05
-6.68389e-07
2.7131e-05
-4.1465e-07
2.33402e-05
-2.17661e-07
1.94143e-05
-7.97446e-08
1.44272e-05
1.73122e-05
-2.34191e-06
2.75643e-05
-1.78972e-06
2.83769e-05
-1.33616e-06
2.91937e-05
-9.6956e-07
3.0015e-05
-6.78556e-07
3.08469e-05
-4.52561e-07
3.16891e-05
-2.81524e-07
3.25472e-05
-1.56588e-07
3.3421e-05
-7.03652e-08
3.431e-05
-1.64644e-08
3.52236e-05
1.14236e-08
3.61575e-05
1.90636e-08
3.65889e-05
6.35953e-09
-2.91169e-06
1.92311e-05
-3.56303e-06
2.13654e-05
-4.29779e-06
2.37346e-05
-5.1145e-06
2.63724e-05
-6.0096e-06
2.93202e-05
-6.97373e-06
3.26234e-05
-7.99165e-06
3.63375e-05
-9.03914e-06
4.05431e-05
-1.0084e-05
4.53309e-05
-1.10819e-05
5.08187e-05
-1.19786e-05
5.71451e-05
-1.27111e-05
6.44767e-05
-1.32102e-05
7.30006e-05
-1.34073e-05
8.15998e-05
-1.32565e-05
8.3452e-05
-1.28155e-05
8.53879e-05
-1.21165e-05
8.73509e-05
-1.38684e-05
8.95485e-05
-1.2474e-05
9.16738e-05
-1.09184e-05
9.36664e-05
-9.29102e-06
0.000100689
-7.59253e-06
8.92016e-05
-6.13275e-06
7.88503e-05
-4.8991e-06
6.9567e-05
-3.86951e-06
6.12342e-05
-3.01898e-06
5.38324e-05
-2.32188e-06
4.72634e-05
-1.75431e-06
4.14093e-05
-1.29443e-06
3.61653e-05
-9.23402e-07
3.15275e-05
-6.24928e-07
2.73413e-05
-3.87211e-07
2.35097e-05
-2.03139e-07
1.95377e-05
-7.44806e-08
1.45016e-05
1.72789e-05
-2.87841e-06
2.74622e-05
-2.23982e-06
2.82954e-05
-1.70821e-06
2.91298e-05
-1.2722e-06
2.99662e-05
-9.20766e-07
3.0811e-05
-6.42692e-07
3.16639e-05
-4.27402e-07
3.25309e-05
-2.6517e-07
3.34117e-05
-1.47224e-07
3.4306e-05
-6.6289e-08
3.52233e-05
-1.61294e-08
3.61592e-05
9.72277e-09
3.65912e-05
1.67888e-08
3.55528e-05
5.5244e-09
-3.52105e-06
1.91891e-05
-4.24659e-06
2.13142e-05
-5.05442e-06
2.36746e-05
-5.94238e-06
2.63052e-05
-6.90322e-06
2.92497e-05
-7.92467e-06
3.25564e-05
-8.98657e-06
3.62849e-05
-1.00617e-05
4.05208e-05
-1.11117e-05
4.53607e-05
-1.20886e-05
5.09287e-05
-1.29351e-05
5.73691e-05
-1.35862e-05
6.48528e-05
-1.39744e-05
7.35677e-05
-1.40366e-05
8.238e-05
-1.37356e-05
8.4372e-05
-1.31469e-05
8.64183e-05
-1.52449e-05
8.87274e-05
-1.39059e-05
9.09804e-05
-1.23602e-05
9.31155e-05
-1.07058e-05
9.50812e-05
-9.02672e-06
0.000102123
-7.31808e-06
9.03869e-05
-5.87217e-06
7.98234e-05
-4.66521e-06
7.03627e-05
-3.6679e-06
6.18831e-05
-2.85069e-06
5.43612e-05
-2.18545e-06
4.76946e-05
-1.64659e-06
4.17615e-05
-1.2121e-06
3.6454e-05
-8.62998e-07
3.17656e-05
-5.83112e-07
2.75372e-05
-3.6087e-07
2.36674e-05
-1.89191e-07
1.96524e-05
-6.93937e-08
1.4571e-05
1.7239e-05
-3.48115e-06
2.73351e-05
-2.75131e-06
2.81913e-05
-2.1358e-06
2.90462e-05
-1.62462e-06
2.99008e-05
-1.20672e-06
3.0761e-05
-8.70733e-07
3.16271e-05
-6.05864e-07
3.25051e-05
-4.01586e-07
3.33948e-05
-2.48318e-07
3.42962e-05
-1.37467e-07
3.52189e-05
-6.18951e-08
3.61586e-05
-1.55249e-08
3.65927e-05
8.23143e-09
3.55548e-05
1.47763e-08
3.45447e-05
4.78823e-09
-4.19734e-06
1.91398e-05
-4.99566e-06
2.12555e-05
-5.87502e-06
2.36072e-05