/*--------------------------------*- C++ -*----------------------------------*\
  =========                 |
  \\      /  F ield         | OpenFOAM: The Open Source CFD Toolbox
   \\    /   O peration     | Website:  https://openfoam.org
    \\  /    A nd           | Version:  8
     \\/     M anipulation  |
\*---------------------------------------------------------------------------*/
FoamFile
{
    version     2.0;
    format      ascii;
    class       volScalarField;
    location    "0.35";
    object      alphat;
}
// * * * * * * * * * * * * * * * * * * * * * * * * * * * * * * * * * * * * * //

dimensions      [1 -1 -1 0 0 0 0];

internalField   nonuniform List<scalar> 
15677
(
0.000700914
0.00104861
0.00388375
0.00707458
0.0100607
0.0130095
0.0160632
0.0193441
0.0229674
0.0270411
0.0312903
0.03498
0.0385797
0.0416927
0.0429373
0.0429902
0.0424698
0.0418562
0.0412242
0.040558
0.0398498
0.0391874
0.0384511
0.0375617
0.0365083
0.0352819
0.0339351
0.0325276
0.031104
0.0297023
0.0283528
0.0270773
0.0258894
0.024793
0.0237835
0.000905686
0.00697253
0.0181294
0.0292324
0.0381378
0.0446585
0.0497808
0.0539671
0.0579101
0.0614372
0.0632258
0.0620533
0.0611533
0.0603154
0.058818
0.0568265
0.0546101
0.0529465
0.0518805
0.0511477
0.0511107
0.0508224
0.0506244
0.0504298
0.050197
0.0498705
0.0494357
0.0489723
0.0485312
0.0481644
0.0478708
0.0476398
0.0474584
0.0473072
0.0471595
0.00113244
0.0112345
0.0262607
0.0417356
0.0561803
0.0689471
0.0796965
0.0880346
0.0934088
0.0948911
0.0913937
0.0829878
0.0715444
0.0582542
0.0492471
0.0445406
0.0415876
0.0401724
0.0405549
0.0421173
0.0434703
0.0453829
0.04887
0.0511811
0.052907
0.0540981
0.0550113
0.0557808
0.0564367
0.0568422
0.0570818
0.0572491
0.0574481
0.0577375
0.0581523
0.000931854
0.00671337
0.0159179
0.0254245
0.0344925
0.0427665
0.0499367
0.0555386
0.0589362
0.0608667
0.0615773
0.0609028
0.0592147
0.0564141
0.0535997
0.0508945
0.0475788
0.0424578
0.0360056
0.0300265
0.0270807
0.0310589
0.0348171
0.0374214
0.0396771
0.0397176
0.039856
0.0403672
0.0412385
0.0425453
0.0441294
0.045822
0.0474734
0.0489655
0.0502224
0.00071496
0.00585321
0.012783
0.0199245
0.0270249
0.0338327
0.0401645
0.0457436
0.0502238
0.052951
0.0545051
0.0542381
0.0524721
0.0496438
0.0455739
0.040377
0.034574
0.0284404
0.024416
0.0269461
0.036247
0.0431751
0.0482018
0.0487864
0.0488133
0.0503874
0.0531474
0.0564437
0.05978
0.0628951
0.0656799
0.0681006
0.0701557
0.0718549
0.0732114
0.000361834
0.00177682
0.00403429
0.00640857
0.00878271
0.0111058
0.0133021
0.0152265
0.0164779
0.0173035
0.0180111
0.017994
0.017833
0.0176772
0.0178121
0.0187289
0.0212246
0.0259601
0.0323253
0.0388414
0.043988
0.0509639
0.0560451
0.057566
0.0577387
0.0578225
0.0578609
0.0578461
0.0578081
0.0577737
0.0577476
0.0577602
0.0578293
0.0578958
0.0579377
0.000222395
0.000983364
0.00234949
0.00374978
0.00515511
0.00662725
0.00826074
0.0101418
0.0123416
0.0149629
0.0181114
0.0218102
0.0263379
0.0318126
0.0377974
0.0438722
0.050012
0.0560565
0.062469
0.0678399
0.0707356
0.0705638
0.0688489
0.0665384
0.0651522
0.0647216
0.06484
0.0650559
0.0651489
0.0650865
0.0649332
0.0647164
0.0644446
0.0641318
0.0638303
0.00020203
0.00164701
0.00402909
0.00686678
0.010097
0.0136781
0.0175827
0.0217866
0.0263006
0.0311446
0.0363522
0.0419376
0.0479118
0.0540003
0.0595377
0.064202
0.0681335
0.0713016
0.0736456
0.0754267
0.076715
0.0772502
0.0768701
0.0756246
0.0737992
0.0716292
0.0693915
0.0673965
0.0657546
0.0643942
0.0631885
0.0621514
0.0613163
0.0606874
0.0602085
0.000260989
0.00177002
0.00466406
0.00823643
0.0123074
0.0168267
0.0217676
0.0270993
0.0327614
0.0386692
0.0447215
0.0508403
0.0567616
0.0623912
0.067077
0.0707364
0.0736485
0.0759895
0.0778533
0.0793304
0.0804717
0.0811768
0.0814338
0.0812711
0.0807
0.0797612
0.0785824
0.0773371
0.0761425
0.0750245
0.0739876
0.07303
0.0721449
0.0713411
0.070629
0.000232222
0.00225421
0.005501
0.00943915
0.0139434
0.018951
0.0244016
0.03022
0.0363103
0.0425555
0.0488398
0.0549877
0.0608747
0.0663639
0.0708129
0.0742121
0.0768713
0.0789014
0.0804349
0.0815693
0.082334
0.0827338
0.082763
0.082473
0.0819882
0.0814222
0.0807987
0.0800639
0.0791891
0.0782421
0.0772882
0.0763752
0.075536
0.0747789
0.0740991
0.000265584
0.00213481
0.00553081
0.00972877
0.0145329
0.0198622
0.025649
0.0318138
0.0382588
0.0448634
0.0515054
0.0579749
0.0640854
0.0696065
0.0739362
0.0770916
0.07942
0.0810925
0.0822496
0.0830067
0.0834261
0.083586
0.0835713
0.0833997
0.0831024
0.0827048
0.0822304
0.0817019
0.0811438
0.0805846
0.0800383
0.0795142
0.0790177
0.0785511
0.0781205
0.000253877
0.00236923
0.00594902
0.0103478
0.015377
0.0209364
0.0269392
0.033296
0.0398955
0.046607
0.0532843
0.0597579
0.0658475
0.0713611
0.0756559
0.0787477
0.0809229
0.0823538
0.0831871
0.08354
0.0835291
0.0832203
0.0827595
0.0822573
0.081756
0.081278
0.0808248
0.080391
0.0799681
0.0795454
0.0791277
0.0787215
0.078333
0.0779677
0.0776313
0.000266303
0.00231142
0.0059473
0.0104442
0.0155963
0.0213023
0.02747
0.0339926
0.0407558
0.0476295
0.0544602
0.0610608
0.0672346
0.072785
0.0770532
0.0800612
0.0821146
0.0833791
0.083998
0.0841007
0.0838229
0.0832707
0.0826068
0.0819131
0.0812414
0.0806138
0.0800383
0.0795139
0.0790362
0.0786005
0.0782031
0.0778412
0.0775128
0.077216
0.076949
0.000261692
0.0024133
0.00612098
0.0106793
0.0158859
0.0216404
0.0278547
0.0344273
0.0412402
0.0481724
0.0550681
0.0617597
0.068055
0.0737074
0.0780456
0.0810921
0.0831505
0.0843779
0.0849045
0.0848445
0.0843063
0.0834399
0.0824477
0.0814498
0.0805014
0.0796323
0.0788522
0.0781597
0.0775487
0.0770116
0.0765403
0.0761272
0.0757658
0.0754498
0.0751738
0.000265951
0.00239063
0.00610342
0.0106699
0.0158849
0.0216502
0.0278836
0.0344947
0.0413743
0.0484007
0.0554167
0.0622261
0.0686153
0.0743848
0.0788383
0.0819736
0.0840907
0.0853357
0.0858359
0.0857081
0.0850619
0.0840484
0.0828961
0.0817274
0.0806104
0.0795764
0.0786388
0.0778017
0.0770628
0.0764144
0.0758474
0.0753524
0.0749204
0.0745433
0.0742133
0.000264637
0.00245016
0.00620618
0.010809
0.0160547
0.0218435
0.0280916
0.0347082
0.0415865
0.0486144
0.0556438
0.0625035
0.0689997
0.0748943
0.0794574
0.0826743
0.084848
0.0861312
0.0866544
0.0865334
0.0858739
0.0848119
0.0835711
0.0822864
0.0810351
0.079865
0.0788004
0.0778469
0.0769957
0.0762408
0.0755746
0.0749887
0.074475
0.0740245
0.0736288
0.000266243
0.00245173
0.00621619
0.0108123
0.0160391
0.0218041
0.0280336
0.0346449
0.0415334
0.0485861
0.0556657
0.0625936
0.0691699
0.0751667
0.0798462
0.0831777
0.0854607
0.086842
0.0874459
0.0873815
0.0867478
0.0856796
0.0844099
0.0830857
0.0817874
0.0805583
0.0794196
0.0783806
0.0774466
0.0766132
0.0758723
0.0752153
0.0746336
0.0741184
0.073662
0.000266385
0.00249835
0.00628842
0.0109005
0.0161345
0.0218972
0.0281136
0.034703
0.0415628
0.048582
0.0556406
0.062565
0.0691559
0.0752016
0.079961
0.0833887
0.0857792
0.0872729
0.0879887
0.0880296
0.0874875
0.0864832
0.0852402
0.083906
0.0825733
0.0812981
0.0801113
0.0790271
0.0780482
0.0771711
0.0763886
0.0756915
0.0750699
0.0745161
0.0740211
0.00026734
0.00251734
0.00632752
0.0109472
0.016178
0.0219292
0.0281277
0.0346941
0.0415272
0.04851
0.0555334
0.0624217
0.0690125
0.0750722
0.0798737
0.0833668
0.0858432
0.0874382
0.0882661
0.0884261
0.0880076
0.0871251
0.0859948
0.0847515
0.0834778
0.082232
0.0810511
0.0799552
0.0789529
0.0780448
0.0772265
0.0764915
0.0758322
0.075241
0.0747101
0.000268096
0.00256061
0.00640425
0.011047
0.0162911
0.0220451
0.0282344
0.0347786
0.0415782
0.0485115
0.0554765
0.0623103
0.0688266
0.0748313
0.0796178
0.0831316
0.0856596
0.0873314
0.0882555
0.0885255
0.0882251
0.0874581
0.0864295
0.0852783
0.0840919
0.0829237
0.0818052
0.0807539
0.0797787
0.0788819
0.0780625
0.0773168
0.0766402
0.0760272
0.0754723
0.000269159
0.0025945
0.00647235
0.0111418
0.0164047
0.0221684
0.0283564
0.034886
0.0416571
0.0485438
0.055432
0.0621759
0.0685961
0.0745229
0.0792495
0.0827378
0.0852754
0.0869894
0.0879828
0.0883429
0.0881472
0.0874891
0.0865611
0.085498
0.0843846
0.0832756
0.0822048
0.0811919
0.0802472
0.0793748
0.0785747
0.0778444
0.0771799
0.0765766
0.0760294
0.000270208
0.00263885
0.00656109
0.0112678
0.0165607
0.0223451
0.0285419
0.0350648
0.0418124
0.0486546
0.0554643
0.0621143
0.068422
0.0742138
0.0788239
0.0822368
0.084739
0.0864561
0.0874868
0.0879123
0.0878033
0.0872431
0.0864107
0.085436
0.0844017
0.0833621
0.0823514
0.0813901
0.0804895
0.0796547
0.0788865
0.0781832
0.0775416
0.0769576
0.0764267
0.000271374
0.00268075
0.00664894
0.0113978
0.0167276
0.0225413
0.0287565
0.0352828
0.0420148
0.0488194
0.0555529
0.0621012
0.0682775
0.0739096
0.0783798
0.0816806
0.0841061
0.0857866
0.0868197
0.0872819
0.0872376
0.0867605
0.0860154
0.0851255
0.0841708
0.0832041
0.0822592
0.081357
0.0805089
0.0797205
0.0789933
0.0783262
0.0777165
0.0771607
0.0766548
0.000272521
0.00272652
0.00674561
0.0115424
0.0169158
0.0227661
0.0290073
0.0355446
0.0422677
0.0490416
0.0557104
0.0621548
0.0681956
0.0736587
0.0779642
0.0811169
0.0834283
0.0850349
0.0860359
0.0865051
0.0865015
0.0860904
0.0854216
0.0846102
0.0837322
0.0828383
0.0819613
0.0811215
0.0803303
0.0795936
0.0789131
0.0782881
0.0777165
0.0771951
0.0767203
0.000273658
0.0027714
0.00684254
0.0116902
0.0171114
0.0230035
0.0292768
0.0358319
0.0425534
0.0493038
0.0559198
0.0622633
0.068175
0.0734765
0.0775866
0.0805747
0.0827469
0.0842496
0.0851876
0.0856353
0.0856483
0.0852853
0.0846807
0.0839405
0.0831354
0.0823129
0.0815041
0.0807284
0.079997
0.0793155
0.0786857
0.0781074
0.0775785
0.0770962
0.0766571
0.000274729
0.00281709
0.00694173
0.0118424
0.017314
0.0232511
0.0295603
0.0361376
0.0428626
0.0495954
0.0561656
0.0624164
0.0682038
0.0733354
0.0772558
0.0800799
0.0820941
0.0834696
0.084319
0.08472
0.0847271
0.0843944
0.0838423
0.083166
0.0824296
0.0816769
0.0809366
0.0802267
0.0795575
0.0789344
0.0783592
0.0778315
0.0773494
0.0769104
0.0765112
0.000275715
0.00286167
0.00703939
0.0119933
0.0175161
0.0234997
0.0298466
0.036449
0.0431817
0.0499009
0.0564321
0.0626008
0.0682738
0.073251
0.0770027
0.0796338
0.0814852
0.0827205
0.0834631
0.0837968
0.0837781
0.0834595
0.0829484
0.0823288
0.0816574
0.0809732
0.0803019
0.0796596
0.0790554
0.0784942
0.0779772
0.0775041
0.0770731
0.0766814
0.076326
0.000276586
0.00290533
0.00713514
0.0121414
0.0177148
0.0237442
0.030129
0.0367573
0.0434994
0.0502072
0.0567039
0.0628045
0.0683677
0.0731998
0.0767778
0.0792372
0.0809296
0.0820167
0.0826403
0.0828914
0.0828303
0.0825109
0.0820297
0.0814593
0.0808487
0.0802313
0.079629
0.0790557
0.078519
0.0780226
0.0775675
0.0771526
0.0767763
0.0764357
0.0761278
0.000277325
0.00294723
0.00722704
0.0122835
0.0179054
0.0239789
0.0304002
0.0370536
0.0438057
0.0505038
0.0569693
0.0630113
0.068472
0.0731719
0.0765931
0.0788959
0.0804165
0.08136
0.0818589
0.0820169
0.0819001
0.081566
0.081103
0.0805733
0.0800175
0.0794631
0.0789281
0.0784234
0.0779547
0.0775244
0.0771327
0.0767781
0.0764586
0.0761714
0.075913
0.000277872
0.00298654
0.00731323
0.0124169
0.0180844
0.0241994
0.0306549
0.0373317
0.0440929
0.0507819
0.0572182
0.0632061
0.0685738
0.0731523
0.076428
0.0785793
0.0799476
0.0807446
0.0811177
0.0811759
0.0809923
0.0806302
0.0801726
0.0796722
0.0791619
0.0786632
0.0781896
0.077749
0.0773447
0.0769778
0.0766473
0.0763512
0.076087
0.0758517
0.0756418
0.0224729
0.020542
0.0181585
0.0155659
0.0133197
0.0114197
0.00988492
0.00874632
0.00793362
0.00733689
0.00678202
0.00609234
0.00520284
0.00419796
0.00325917
0.0025156
0.00199599
0.001846
0.00209902
0.00259175
0.00295167
0.00300161
0.0469313
0.0465977
0.0462163
0.0456941
0.0450625
0.0444174
0.0436829
0.0432048
0.0426435
0.0425152
0.0433373
0.044088
0.043429
0.0410357
0.0382921
0.0359836
0.0342631
0.0334347
0.032505
0.0304423
0.0283759
0.0266177
0.058913
0.0602997
0.0622231
0.0644413
0.0667039
0.0689552
0.0709213
0.07225
0.0727183
0.0721341
0.0703203
0.0676473
0.0649717
0.0637614
0.0645285
0.0673921
0.0713238
0.0748956
0.0769174
0.0768528
0.0749034
0.0712605
0.0515494
0.0526674
0.0530844
0.0534886
0.0541411
0.0551826
0.05628
0.0570472
0.0577732
0.0577675
0.0567323
0.0558053
0.0548796
0.0539423
0.0529876
0.0519947
0.0513108
0.0509489
0.050846
0.0508141
0.0505866
0.0501176
0.0746395
0.0754674
0.0754305
0.074407
0.0724952
0.0699
0.0668736
0.063222
0.0601251
0.0572171
0.0552098
0.0537036
0.0528217
0.0522382
0.0518787
0.0516251
0.0514818
0.0514799
0.0515616
0.0515143
0.0513389
0.0509226
0.0579695
0.057952
0.0578947
0.0577146
0.0574063
0.0566934
0.05553
0.0538119
0.0517398
0.04961
0.0478072
0.0467513
0.0461022
0.0458708
0.0459111
0.0460746
0.0463065
0.0465804
0.046876
0.0471718
0.047445
0.0476831
0.0634595
0.0629852
0.0625121
0.0620141
0.0614364
0.0606926
0.0596976
0.0584526
0.0569348
0.0552209
0.0534456
0.0518068
0.0504189
0.0493924
0.0487304
0.0483653
0.0482228
0.0482428
0.0483844
0.0486221
0.0489392
0.049326
0.0596568
0.0590605
0.0586031
0.0582411
0.0579218
0.057577
0.0571429
0.056575
0.0558457
0.0549519
0.0539205
0.0528187
0.0517514
0.0508088
0.0500417
0.0494721
0.0490986
0.0489045
0.048867
0.0489652
0.0491835
0.0495127
0.0696291
0.068297
0.0670232
0.065825
0.0647084
0.0636664
0.0626776
0.0617103
0.0607278
0.0596966
0.0585973
0.0574286
0.0562386
0.0550864
0.0540076
0.0530383
0.0522092
0.0515478
0.0510713
0.0507849
0.0506844
0.0507584
0.0731743
0.0719099
0.0706345
0.0693672
0.0681243
0.0669169
0.0657494
0.0646184
0.0635122
0.0624128
0.0612997
0.060163
0.0590107
0.0578742
0.0567707
0.0557234
0.0547557
0.0538896
0.053145
0.0525406
0.0520935
0.0518114
0.0775386
0.07669
0.0757398
0.0746976
0.0735761
0.07239
0.0711539
0.0698812
0.0685819
0.0672614
0.0659193
0.0645593
0.0632128
0.0619057
0.0606401
0.0594246
0.0582729
0.0572015
0.0562276
0.0553659
0.0546255
0.0540118
0.077233
0.0766905
0.0760905
0.075423
0.0746802
0.0738576
0.0729532
0.0719676
0.0709038
0.0697666
0.068561
0.0673001
0.0660233
0.0647655
0.0635327
0.0623323
0.0611729
0.0600647
0.0590185
0.0580453
0.0571556
0.0563587
0.0766695
0.0763273
0.0759438
0.0755104
0.0750176
0.0744558
0.0738161
0.0730908
0.0722745
0.0713642
0.0703596
0.06927
0.0681319
0.0669825
0.0658331
0.0646939
0.063575
0.062486
0.0614366
0.0604363
0.0594944
0.0586198
0.0749056
0.0746185
0.0743265
0.0740199
0.0736883
0.0733204
0.0729039
0.0724266
0.0718764
0.0712423
0.0705157
0.0696955
0.0688051
0.0678741
0.0669143
0.0659377
0.0649556
0.0639789
0.0630179
0.0620827
0.0611829
0.0603273
0.0738587
0.0734734
0.0731087
0.072759
0.0724171
0.0720738
0.071718
0.0713369
0.0709168
0.0704433
0.0699027
0.0692868
0.0686059
0.0678784
0.0671117
0.0663144
0.0654962
0.064667
0.0638368
0.0630152
0.0622115
0.0614349
0.0731739
0.072655
0.0721675
0.0717107
0.0712818
0.0708761
0.0704863
0.0701027
0.0697132
0.0693043
0.0688612
0.0683722
0.0678395
0.0672713
0.0666685
0.0660352
0.0653771
0.0647015
0.0640161
0.0633292
0.0626493
0.0619848
0.0731046
0.0724378
0.0718019
0.0712005
0.0706356
0.0701072
0.0696128
0.0691472
0.0687024
0.068268
0.0678313
0.0673815
0.0669176
0.0664405
0.0659458
0.0654321
0.0649007
0.0643551
0.0638
0.0632412
0.0626852
0.0621388
0.0733921
0.0726089
0.0718468
0.0711125
0.0704122
0.0697502
0.0691288
0.0685478
0.0680041
0.067492
0.0670028
0.0665291
0.0660711
0.0656264
0.0651863
0.0647451
0.0643002
0.0638512
0.0633996
0.0629481
0.0625008
0.0620625
0.074019
0.0731387
0.0722692
0.0714177
0.0705924
0.0698009
0.069049
0.0683407
0.0676774
0.0670583
0.0664795
0.0659385
0.0654396
0.0649802
0.0645489
0.0641372
0.0637392
0.0633515
0.0629723
0.0626017
0.0622411
0.0618929
0.0747462
0.07381
0.0728719
0.071941
0.0710236
0.0701293
0.0692689
0.0684475
0.0676715
0.0669418
0.0662609
0.0656319
0.0650647
0.0645592
0.0641033
0.0636872
0.0633029
0.0629445
0.062608
0.062291
0.0619924
0.0617126
0.0753229
0.0743995
0.0734566
0.0725034
0.0715488
0.0705982
0.0696656
0.0687624
0.0678953
0.0670707
0.0662944
0.0655791
0.0649338
0.0643659
0.0638642
0.0634193
0.0630226
0.062667
0.0623469
0.062058
0.0617973
0.0615634
0.0757515
0.074864
0.073946
0.073004
0.0720459
0.0710805
0.0701134
0.0691598
0.0682342
0.0673426
0.0664927
0.065698
0.0649828
0.0643545
0.0638004
0.0633146
0.0628894
0.0625179
0.0621938
0.0619118
0.0616679
0.0614589
0.0760236
0.0751923
0.0743226
0.0734188
0.0724871
0.0715348
0.0705703
0.0696007
0.0686364
0.0677
0.0667957
0.06594
0.0651623
0.0644738
0.0638714
0.0633406
0.0628786
0.0624793
0.0621366
0.0618453
0.0616004
0.0613982
0.0761417
0.0753789
0.0745727
0.0737255
0.0728413
0.0719257
0.0709856
0.0700295
0.069067
0.0681045
0.0671652
0.0662661
0.065438
0.0646975
0.0640418
0.0634691
0.0629664
0.062532
0.0621608
0.0618478
0.0615882
0.0613779
0.076135
0.0754458
0.0747103
0.0739295
0.0731056
0.0722422
0.0713444
0.0704193
0.0694755
0.0685227
0.0675694
0.0666396
0.0657759
0.0649943
0.0642943
0.0636743
0.0631329
0.0626601
0.0622542
0.0619111
0.061626
0.0613954
0.0760474
0.075432
0.074769
0.0740578
0.0732996
0.0724961
0.0716511
0.0707695
0.0698583
0.0689263
0.0679838
0.0670483
0.0661571
0.0653439
0.0646074
0.0639471
0.0633624
0.062852
0.0624086
0.0620306
0.0617138
0.0614516
0.0759221
0.0753803
0.0747893
0.074148
0.0734564
0.0727155
0.0719274
0.0710957
0.0702256
0.0693241
0.0684006
0.0674725
0.0665771
0.0657404
0.0649718
0.0642765
0.0636528
0.0631007
0.0626186
0.0622023
0.0618499
0.0615521
0.0757871
0.075322
0.0748052
0.074235
0.0736111
0.0729336
0.0722039
0.0714244
0.0705991
0.0697335
0.0688354
0.0679211
0.0670269
0.0661814
0.0653914
0.0646627
0.0640026
0.0634104
0.0628863
0.0624285
0.0620346
0.061703
0.0756412
0.0752634
0.0748296
0.0743376
0.0737867
0.0731767
0.0725083
0.0717834
0.071005
0.0701779
0.0693084
0.0684116
0.0675228
0.0666715
0.0658661
0.0651136
0.0644186
0.0637869
0.0632204
0.0627188
0.0622804
0.0619099
0.0754464
0.075175
0.0748421
0.0744446
0.0739809
0.0734503
0.0728528
0.0721899
0.0714641
0.0706794
0.0698417
0.068965
0.0680839
0.0672288
0.0664096
0.0656344
0.0649099
0.0642403
0.0636304
0.0630833
0.0625981
0.0621829
0.00285309
0.00170783
0.00122032
0.00157324
0.00276443
0.00397363
0.0242323
0.0215086
0.0175362
0.0124145
0.00881197
0.00767028
0.0661411
0.0593145
0.051589
0.0436497
0.0376777
0.0374359
0.0491002
0.0474158
0.0457862
0.0444381
0.0438919
0.0445272
0.0503905
0.0497443
0.0492566
0.0490851
0.0496972
0.0511337
0.0479079
0.0482114
0.048653
0.0494211
0.0502162
0.0511489
0.0498617
0.0506583
0.0517033
0.0529996
0.0545708
0.0564322
0.0500265
0.0508098
0.0518145
0.053033
0.0544521
0.0560306
0.0510647
0.0516408
0.0524278
0.0534121
0.0545694
0.0558582
0.0517463
0.0519141
0.0522817
0.052839
0.0535696
0.054446
0.0536161
0.0533779
0.053317
0.0534212
0.0537133
0.0541752
0.0557267
0.0552026
0.0548131
0.0545714
0.0544878
0.054542
0.0578564
0.0571746
0.0565901
0.0561226
0.0557844
0.0555831
0.0595276
0.058798
0.058127
0.0575507
0.0570827
0.0567346
0.0606676
0.0599451
0.0592697
0.0586746
0.0581736
0.0577796
0.0612938
0.060621
0.0599987
0.0594479
0.0589816
0.0586066
0.0615479
0.0609593
0.0604241
0.059956
0.0595683
0.0592715
0.061578
0.0610916
0.0606597
0.0602942
0.060006
0.0598051
0.0615042
0.0611196
0.0607905
0.0605271
0.0603383
0.0602326
0.0614033
0.061108
0.0608693
0.0606955
0.0605939
0.0605711
0.061314
0.0610883
0.0609201
0.0608158
0.060781
0.0608202
0.0612485
0.06107
0.0609492
0.0608909
0.0608988
0.0609759
0.0612069
0.0610529
0.0609563
0.0609201
0.060947
0.0610408
0.0611886
0.0610399
0.060947
0.0609118
0.0609354
0.061028
0.0611947
0.0610367
0.0609326
0.0608836
0.0608904
0.0609542
0.0612292
0.0610498
0.0609246
0.0608495
0.0608265
0.0608553
0.0613023
0.0610962
0.0609392
0.0608312
0.0607717
0.0607602
0.0614228
0.0611856
0.0609951
0.0608511
0.0607526
0.0606989
0.061597
0.06133
0.0611073
0.0609283
0.060792
0.0606977
0.0618356
0.0615428
0.0612917
0.0610814
0.0609108
0.0607794
0.00398187
0.00356778
0.00287755
0.00220259
0.00167475
0.00142133
0.00125866
0.00110841
0.000925724
0.000775669
0.000871161
0.00104221
0.00154901
0.00178416
0.00191661
0.00235657
0.00331173
0.00476989
0.00684909
0.00944572
0.012512
0.0160153
0.00758543
0.00752773
0.00736627
0.00733062
0.00755428
0.00801567
0.00871312
0.00968044
0.0109597
0.0125163
0.0141955
0.0158357
0.0174798
0.0193849
0.0213141
0.023705
0.0265652
0.0296533
0.0328245
0.0358304
0.0385266
0.0408366
0.0422768
0.0479944
0.0534485
0.0583241
0.0624012
0.0654938
0.0673031
0.0682575
0.0679542
0.0670027
0.0660918
0.0659022
0.0658137
0.0653602
0.0644977
0.0630531
0.0611614
0.0592479
0.0578908
0.0579795
0.0598044
0.0627785
0.0455538
0.0467679
0.0481588
0.0489273
0.0491003
0.0488227
0.0483749
0.0483248
0.0493847
0.0512823
0.0528468
0.0530321
0.0518743
0.0503761
0.0493033
0.0488582
0.0488649
0.0493942
0.0503836
0.0514927
0.0524003
0.0528769
0.052708
0.0546311
0.0560974
0.0580605
0.0605371
0.0634808
0.0667963
0.0700302
0.072906
0.0757987
0.0776634
0.0780618
0.0771189
0.075034
0.0721579
0.069009
0.066141
0.0639373
0.0624734
0.0613702
0.0603629
0.0593348
0.0526012
0.0543261
0.0563167
0.0585587
0.0609613
0.0633787
0.0656315
0.0675493
0.0686663
0.0682574
0.0676974
0.0669297
0.06608
0.0652948
0.0645992
0.0639542
0.0633249
0.0627033
0.0619546
0.0610986
0.0601454
0.0590839
0.0584399
0.0604895
0.0626027
0.0646464
0.0665371
0.0681424
0.0693684
0.0701554
0.0705023
0.0705052
0.0703355
0.070104
0.0699098
0.0698044
0.0697851
0.0698103
0.0698163
0.0697349
0.0696199
0.0693989
0.0690358
0.0685402
0.057571
0.0589783
0.0603572
0.0616512
0.0628104
0.0637946
0.0645803
0.0651661
0.065575
0.065855
0.0660548
0.0662089
0.0663386
0.0664562
0.0665611
0.0666458
0.0666941
0.066688
0.0666269
0.0665261
0.0664104
0.0663097
0.0571055
0.058225
0.0593389
0.060424
0.0614492
0.0623989
0.0632675
0.0640572
0.0647728
0.0654206
0.066005
0.0665207
0.0669499
0.0672983
0.0676282
0.0679208
0.068163
0.06836
0.0685239
0.0686694
0.0688119
0.0689641
0.0553187
0.0561231
0.0569548
0.0578006
0.0586464
0.0594745
0.0602783
0.061049
0.0617797
0.062465
0.0631005
0.0636805
0.0641995
0.0646587
0.0650041
0.065265
0.0654797
0.0656639
0.0658337
0.066005
0.0661931
0.0664118
0.0547117
0.055264
0.055874
0.0565335
0.0572326
0.0579605
0.0587123
0.0594767
0.0602428
0.0610053
0.0617571
0.0624861
0.0631689
0.0637917
0.0643587
0.0648826
0.0653778
0.0658588
0.0663364
0.0668247
0.0673359
0.0678803
0.054781
0.0550924
0.0554625
0.0559004
0.056401
0.0569549
0.0575659
0.0582231
0.0589192
0.0596469
0.0603997
0.0611749
0.0619368
0.0626738
0.0633912
0.0640951
0.0647909
0.0654823
0.0661743
0.0668663
0.0675604
0.0682547
0.0555905
0.0557005
0.0558908
0.0561611
0.0565135
0.056937
0.0574482
0.0580405
0.0587083
0.0594484
0.0602577
0.0611269
0.0620276
0.0629369
0.0638523
0.0647718
0.065697
0.0666255
0.0675461
0.0684614
0.0693667
0.070257
0.0565982
0.0565812
0.0566558
0.0568188
0.0570725
0.0574129
0.0578653
0.0584195
0.0590749
0.0598299
0.0606802
0.0616158
0.0626101
0.0636332
0.0646756
0.0657312
0.0667946
0.0678613
0.0689349
0.0700057
0.0710723
0.0721401
0.0575845
0.0575137
0.0575482
0.0576776
0.0578969
0.058238
0.0586957
0.059266
0.059954
0.0607591
0.0616791
0.062704
0.0637968
0.0649096
0.0660485
0.0671949
0.0683359
0.0694631
0.0705761
0.0716543
0.0726921
0.0736858
0.0584258
0.0583794
0.0584278
0.0585706
0.0588296
0.0592024
0.0596947
0.0603085
0.0610443
0.0619
0.0628709
0.0639424
0.0650686
0.066202
0.0673455
0.0684734
0.0695735
0.0706456
0.0716638
0.0726298
0.073542
0.0743986
0.0591408
0.0591458
0.0592427
0.0594444
0.0597563
0.0601826
0.0607263
0.0613875
0.0621639
0.0630502
0.0640377
0.0651071
0.0662024
0.0672987
0.0683736
0.0694144
0.0704098
0.0713455
0.0722229
0.0730412
0.0738006
0.0745027
0.0597405
0.0598111
0.0599746
0.0602379
0.0606058
0.0610808
0.0616629
0.0623492
0.0631338
0.0640077
0.0649577
0.0659584
0.0669721
0.0679566
0.0689035
0.0697915
0.07062
0.0713869
0.0720926
0.0727389
0.0733293
0.0738678
0.0602439
0.0603771
0.0605976
0.0609101
0.0613167
0.061817
0.0624078
0.0630829
0.0638335
0.0646469
0.0655097
0.0664002
0.0672786
0.0681102
0.0688853
0.0696004
0.0702546
0.0708493
0.0713878
0.0718744
0.0723144
0.0727134
0.0606471
0.0608263
0.0610839
0.0614215
0.0618386
0.0623322
0.0628959
0.0635207
0.0641966
0.0649114
0.0656514
0.0663962
0.0671098
0.0677694
0.0683714
0.0689161
0.0694058
0.069845
0.0702389
0.0705936
0.0709151
0.0712096
0.0609405
0.0611427
0.0614112
0.0617466
0.0621432
0.0625969
0.0630997
0.0636434
0.0642183
0.0648111
0.0654096
0.0659966
0.0665456
0.0670425
0.067488
0.0678857
0.0682409
0.0685597
0.0688486
0.0691139
0.0693618
0.0695979
0.0611175
0.0613185
0.0615725
0.0618772
0.0622263
0.0626169
0.0630395
0.0634858
0.0639458
0.0644096
0.0648671
0.0653061
0.0657086
0.0660678
0.0663881
0.0666752
0.0669362
0.0671779
0.067407
0.0676295
0.0678507
0.0680752
0.0611814
0.0613597
0.0615784
0.061834
0.0621216
0.0624354
0.0627681
0.0631121
0.0634594
0.0638027
0.0641353
0.0644499
0.0647364
0.0649938
0.0652285
0.0654481
0.0656599
0.065871
0.0660872
0.0663135
0.0665535
0.0668101
0.0611485
0.0612896
0.0614609
0.0616586
0.0618777
0.0621128
0.062358
0.0626073
0.0628554
0.0630978
0.0633316
0.0635544
0.0637625
0.0639589
0.0641517
0.0643486
0.0645566
0.0647817
0.0650282
0.0652988
0.0655951
0.0659172
0.0610436
0.0611431
0.0612643
0.0614036
0.0615569
0.0617201
0.0618889
0.0620598
0.06223
0.0623983
0.0625657
0.0627341
0.062905
0.0630836
0.063278
0.0634951
0.0637405
0.0640178
0.0643288
0.0646733
0.0650499
0.0654559
0.0609083
0.0609655
0.0610387
0.0611253
0.0612222
0.0613268
0.0614369
0.0615514
0.0616705
0.0617962
0.0619331
0.0620871
0.0622627
0.0624651
0.062701
0.0629751
0.0632902
0.0636465
0.0640424
0.0644746
0.0649386
0.0654291
0.0607775
0.0607973
0.0608306
0.0608756
0.0609308
0.0609953
0.0610693
0.0611539
0.0612523
0.0613698
0.0615138
0.0616932
0.0619129
0.0621755
0.0624845
0.0628414
0.0632447
0.0636912
0.0641756
0.0646917
0.0652325
0.0657911
0.0606828
0.0606752
0.0606813
0.0607006
0.0607333
0.0607804
0.0608441
0.0609284
0.0610389
0.0611832
0.0613711
0.061612
0.0619082
0.0622571
0.0626581
0.0631081
0.0636016
0.0641319
0.0646911
0.0652709
0.0658634
0.0664611
0.0606539
0.0606327
0.060628
0.0606409
0.0606734
0.0607286
0.0608107
0.0609257
0.0610811
0.0612857
0.0615493
0.0618795
0.0622726
0.0627192
0.063214
0.0637498
0.0643177
0.0649089
0.0655144
0.0661257
0.066735
0.0673356
0.0607169
0.0606982
0.060702
0.0607309
0.0607884
0.0608792
0.0610095
0.0611861
0.0614166
0.0617087
0.0620701
0.0625034
0.0629965
0.0635333
0.0641053
0.0647017
0.0653123
0.0659283
0.0665416
0.0671448
0.0677315
0.0682964
0.0190628
0.0213924
0.0237506
0.0260474
0.0281826
0.0301466
0.0319713
0.033653
0.0351612
0.0364573
0.0375094
0.038343
0.0390829
0.0399498
0.0411577
0.042665
0.0443533
0.046129
0.0477955
0.0481029
0.0473713
0.0453695
0.0405637
0.0357838
0.0305559
0.0254403
0.0211843
0.0176598
0.0146909
0.0120249
0.00947982
0.00689703
0.00396391
0.00107056
0.000703615
0.0421985
0.0431012
0.043968
0.0448833
0.0459623
0.0473198
0.0489233
0.050572
0.0520251
0.0527325
0.053609
0.0545676
0.0554652
0.0561037
0.0564728
0.0571581
0.0577701
0.0585278
0.0600202
0.0612784
0.0619522
0.062478
0.0648568
0.0672695
0.0686555
0.0669316
0.0644058
0.0619951
0.0589509
0.0536828
0.045714
0.0339455
0.0201866
0.00765258
0.000966562
0.0655169
0.067628
0.0701125
0.0725409
0.0751116
0.077879
0.0803541
0.0818703
0.081756
0.079802
0.0765208
0.0728737
0.0690197
0.0649427
0.0608068
0.0572858
0.0530931
0.0510737
0.0506725
0.0514235
0.055173
0.0648937
0.0761875
0.086862
0.0935589
0.0951841
0.0922218
0.0858505
0.0769272
0.065931
0.0531468
0.0391432
0.0244423
0.0103431
0.0010756
0.0530994
0.0532139
0.0532631
0.0532538
0.0532255
0.0533015
0.0535779
0.0541324
0.0549266
0.0554697
0.0556971
0.0536661
0.0491281
0.0412212
0.0350185
0.0308866
0.0344514
0.0388254
0.0425099
0.0454452
0.0488219
0.0525828
0.0559102
0.0581199
0.0593722
0.0588124
0.0575529
0.0539009
0.0483724
0.0413282
0.0332219
0.024413
0.0151884
0.0063406
0.000880188
0.058362
0.0574485
0.0564033
0.0552219
0.0539115
0.0525219
0.0511255
0.0497921
0.0485376
0.0472755
0.0457947
0.0440129
0.0418748
0.038592
0.0338277
0.0282316
0.0246671
0.0241612
0.0260984
0.0297322
0.0338211
0.0384107
0.0430301
0.0462211
0.0475188
0.0467276
0.0447005
0.0408686
0.0359359
0.0302737
0.024127
0.0177004
0.0113472
0.00521417
0.0006531
0.0580469
0.0571856
0.0561969
0.0551032
0.0539518
0.052796
0.0516744
0.050563
0.049318
0.0478399
0.046133
0.0441116
0.0413268
0.0379317
0.0345992
0.031193
0.0282725
0.0247904
0.0213871
0.0184816
0.0159155
0.0143429
0.0135096
0.0131319
0.0129697
0.0126189
0.0119663
0.011293
0.00988133
0.00821314
0.00646975
0.00468966
0.00294419
0.0012797
0.000308966
0.0679972
0.0674125
0.0667005
0.0658715
0.064964
0.0640574
0.0632547
0.0626546
0.0623373
0.0623693
0.0627607
0.063492
0.0644222
0.0652521
0.0654531
0.0643177
0.0614337
0.0571955
0.0520574
0.046564
0.0413755
0.0363047
0.0313911
0.0269634
0.0229355
0.0193437
0.016183
0.0134256
0.0110061
0.00884173
0.00682195
0.00486889
0.00295596
0.00119739
0.000235276
0.0662492
0.0662149
0.066199
0.0662107
0.0662684
0.0664003
0.0665563
0.0667581
0.0670416
0.0674519
0.0680177
0.068712
0.0694692
0.0702437
0.0707109
0.0707139
0.0702306
0.0691925
0.0674953
0.0650096
0.0615737
0.0568712
0.0512092
0.0453604
0.0395442
0.0339642
0.0286462
0.0236396
0.0189669
0.0146557
0.0107607
0.0073019
0.00429394
0.00178022
0.00020855
0.0691021
0.0692208
0.0693615
0.06953
0.0697175
0.0698999
0.0701001
0.0703139
0.0705417
0.0707974
0.0711325
0.0716269
0.0723322
0.0731659
0.0740821
0.0747055
0.0748011
0.07431
0.0731225
0.0711095
0.0681481
0.0639662
0.0586598
0.0529138
0.0469005
0.0408124
0.034822
0.0290131
0.0234757
0.0182782
0.0134684
0.00908445
0.00518796
0.00199024
0.000281884
0.0666203
0.0668206
0.0670611
0.0673513
0.0677061
0.0681443
0.0686933
0.0693897
0.0702783
0.0714021
0.0727721
0.0743413
0.0760059
0.0775224
0.0786638
0.0792911
0.0793612
0.078744
0.0773788
0.075193
0.072074
0.0678203
0.062483
0.0566795
0.0505725
0.0442871
0.0379914
0.031791
0.0258044
0.0201359
0.0148743
0.0100969
0.00588706
0.00240334
0.000254466
0.0683352
0.0686985
0.0691143
0.0695946
0.0701526
0.0708036
0.0715647
0.0724529
0.073482
0.0746562
0.0759595
0.0773513
0.0787302
0.0800093
0.0810523
0.0817133
0.0818802
0.0814029
0.080182
0.0781273
0.0751302
0.0709127
0.0655908
0.0597394
0.0534931
0.0469806
0.040371
0.033817
0.0274577
0.0214128
0.015781
0.0106474
0.0061106
0.00239018
0.000288516
0.0688017
0.0692387
0.0697494
0.0703446
0.0710352
0.0718313
0.0727416