/*--------------------------------*- C++ -*----------------------------------*\
  =========                 |
  \\      /  F ield         | OpenFOAM: The Open Source CFD Toolbox
   \\    /   O peration     | Website:  https://openfoam.org
    \\  /    A nd           | Version:  8
     \\/     M anipulation  |
\*---------------------------------------------------------------------------*/
FoamFile
{
    version     2.0;
    format      ascii;
    class       volScalarField;
    location    "0.35";
    object      nut;
}
// * * * * * * * * * * * * * * * * * * * * * * * * * * * * * * * * * * * * * //

dimensions      [0 2 -1 0 0 0 0];

internalField   nonuniform List<scalar> 
15677
(
0.000539452
0.000806943
0.00298915
0.00544579
0.00774589
0.0100185
0.0123734
0.0149051
0.0177028
0.0208501
0.0241356
0.0269929
0.0297848
0.0321989
0.03316
0.0331993
0.0327968
0.0323223
0.0318349
0.0313211
0.0307755
0.0302655
0.0296978
0.0290114
0.0281975
0.0272496
0.0262085
0.0251204
0.0240198
0.0229359
0.0218923
0.0209059
0.0199872
0.0191391
0.018358
0.000829436
0.00638789
0.0166183
0.0268138
0.0350063
0.041021
0.0457619
0.0496522
0.0533263
0.0566214
0.0583136
0.0572367
0.0563743
0.0555388
0.0541134
0.0522555
0.0501983
0.0486583
0.0476815
0.0470211
0.047007
0.0467658
0.0466056
0.0464463
0.0462498
0.0459664
0.0455815
0.0451703
0.0447785
0.044453
0.0441933
0.0439896
0.04383
0.0436973
0.0435673
0.000919115
0.00911763
0.0213131
0.0338777
0.0456177
0.0560139
0.0647933
0.071633
0.0760739
0.0773374
0.0745054
0.0676537
0.0582785
0.0473752
0.0400069
0.0361757
0.0337674
0.0326035
0.0328857
0.0341065
0.035151
0.0366506
0.0394272
0.0412604
0.0426275
0.0435679
0.0442903
0.0449013
0.0454236
0.0457462
0.0459368
0.0460705
0.0462299
0.0464617
0.0467932
0.000826391
0.00595226
0.0141113
0.0225365
0.0305721
0.0379047
0.0442615
0.0492341
0.0522625
0.0539957
0.0546438
0.0540451
0.0525325
0.0500346
0.0475423
0.045166
0.0422395
0.0376986
0.0319693
0.026662
0.024051
0.0275942
0.0309498
0.0332879
0.0353243
0.0353955
0.0355557
0.0360481
0.0368618
0.0380636
0.0395109
0.0410519
0.0425521
0.0439054
0.0450432
0.00059881
0.00490131
0.0107016
0.0166759
0.0226116
0.0282976
0.0335794
0.0382252
0.0419466
0.0442002
0.045472
0.045226
0.043735
0.041363
0.0379692
0.033645
0.028817
0.0237088
0.0203532
0.0224575
0.030204
0.0359707
0.0401507
0.0406291
0.0406426
0.0419455
0.0442382
0.0469792
0.0497545
0.0523463
0.0546637
0.0566786
0.0583894
0.059804
0.0609325
0.000313249
0.00153808
0.00349199
0.00554691
0.00760184
0.00961314
0.0115155
0.0131838
0.0142707
0.01499
0.0156077
0.0155962
0.0154597
0.0153282
0.0154495
0.0162486
0.0184168
0.0225289
0.0280558
0.0337137
0.0381832
0.0442424
0.0486593
0.0499844
0.050135
0.0502049
0.050233
0.0502118
0.0501718
0.0501362
0.0501083
0.0501158
0.0501752
0.0502333
0.0502693
0.000187433
0.000828767
0.00198011
0.00316023
0.00434457
0.00558514
0.00696159
0.00854653
0.0103998
0.0126079
0.0152597
0.0183748
0.022188
0.0267995
0.0318419
0.0369623
0.0421399
0.0472389
0.0526486
0.0571798
0.0596222
0.0594732
0.0580201
0.0560641
0.0548858
0.0545121
0.0546004
0.0547747
0.0548458
0.0547862
0.0546514
0.0544644
0.0542325
0.0539671
0.0537123
0.00017388
0.00141752
0.00346764
0.00590979
0.00868965
0.0117713
0.0151314
0.018749
0.0226333
0.0268016
0.0312827
0.0360888
0.0412291
0.0464677
0.0512325
0.0552461
0.0586291
0.0613549
0.0633719
0.0649053
0.0660149
0.0664751
0.0661472
0.0650692
0.0634924
0.061619
0.0596863
0.0579625
0.0565439
0.0553685
0.0543268
0.0534304
0.052708
0.0521635
0.0517484
0.000221375
0.00150137
0.00395618
0.00698637
0.0104395
0.0142731
0.0184643
0.0229874
0.0277911
0.0328038
0.03794
0.0431334
0.0481598
0.0529389
0.0569161
0.0600216
0.0624918
0.0644759
0.0660539
0.0673021
0.0682635
0.0688536
0.0690601
0.0689184
0.0684311
0.0676319
0.0666306
0.0655738
0.0645606
0.0636125
0.0627335
0.0619222
0.0611727
0.0604921
0.0598897
0.000198952
0.00193122
0.00471272
0.0080864
0.0119449
0.0162344
0.020903
0.0258864
0.0311022
0.0364502
0.0418314
0.0470952
0.052135
0.0568341
0.0606432
0.0635537
0.0658308
0.0675695
0.0688831
0.0698548
0.0705095
0.0708525
0.070878
0.0706232
0.0702013
0.0697112
0.0691724
0.0685385
0.067785
0.06697
0.0661493
0.0653639
0.0646419
0.0639906
0.0634053
0.000226109
0.0018175
0.00470873
0.00828271
0.0123728
0.01691
0.0218368
0.0270856
0.0325732
0.0381969
0.0438526
0.0493614
0.0545649
0.0592667
0.0629529
0.0656385
0.0676191
0.0690402
0.0700215
0.0706619
0.0710145
0.0711454
0.0711278
0.0709838
0.0707309
0.0703926
0.0699891
0.0695396
0.069065
0.0685895
0.0681251
0.0676797
0.067258
0.0668618
0.0664965
0.000216997
0.00202503
0.0050847
0.00884423
0.0131425
0.0178938
0.0230239
0.0284561
0.0340956
0.0398305
0.0455356
0.0510662
0.0562682
0.060978
0.0646468
0.0672879
0.069146
0.0703683
0.0710802
0.0713818
0.0713724
0.0711083
0.0707162
0.0702817
0.0698509
0.0694401
0.0690507
0.0686781
0.068315
0.0679521
0.0675936
0.067245
0.0669116
0.0665983
0.0663092
0.000227066
0.00197084
0.00507097
0.00890525
0.0132981
0.0181633
0.023422
0.0289834
0.03475
0.040611
0.0464354
0.0520638
0.0573284
0.0620613
0.0657
0.0682638
0.0700133
0.0710896
0.0716153
0.0717008
0.0714618
0.0709888
0.0704194
0.0698296
0.069257
0.0687221
0.0682316
0.0677848
0.0673779
0.067007
0.0666688
0.066361
0.0660817
0.0658295
0.0656026
0.000223445
0.00206057
0.00522628
0.00911824
0.0135637
0.0184769
0.0237825
0.0293939
0.0352104
0.0411283
0.0470149
0.0527268
0.0581001
0.0629243
0.0666268
0.0692267
0.0709832
0.0720305
0.0724796
0.0724281
0.0719686
0.0712289
0.0703833
0.0695293
0.0687189
0.0679764
0.06731
0.0667183
0.0661964
0.0657375
0.0653348
0.0649819
0.0646729
0.0644029
0.0641674
0.000226875
0.00203936
0.00520659
0.00910203
0.0135507
0.0184688
0.0237862
0.0294257
0.0352944
0.0412883
0.0472734
0.0530824
0.0585329
0.0634545
0.0672531
0.0699269
0.0717321
0.072793
0.0732185
0.0731083
0.0725559
0.0716903
0.0707058
0.0697095
0.0687567
0.0678748
0.0670752
0.0663615
0.0657315
0.0651788
0.0646955
0.0642736
0.0639054
0.0635842
0.0633037
0.00022585
0.00209103
0.00529648
0.0092246
0.0137013
0.0186415
0.0239737
0.0296203
0.03549
0.0414874
0.0474857
0.053339
0.0588818
0.063911
0.067804
0.0705482
0.0724022
0.0734963
0.0739421
0.0738383
0.0732751
0.0723686
0.0713098
0.070213
0.069145
0.0681464
0.0672378
0.0664241
0.0656978
0.0650536
0.0644851
0.0639851
0.0635466
0.0631623
0.0628252
0.000227139
0.00209162
0.00530313
0.00922412
0.0136832
0.0186014
0.0239159
0.0295561
0.0354328
0.0414497
0.0474893
0.0533997
0.0590098
0.0641255
0.068117
0.0709583
0.0729051
0.0740824
0.0745965
0.0745405
0.0739988
0.0730866
0.0720027
0.0708727
0.0697649
0.0687162
0.0677448
0.0668584
0.0660617
0.0653508
0.0647189
0.0641586
0.0636625
0.0632232
0.0628346
0.00022728
0.00213158
0.00536523
0.00930019
0.0137658
0.0186824
0.0239862
0.029608
0.0354606
0.041449
0.047471
0.0533782
0.0590009
0.064158
0.0682176
0.071141
0.0731794
0.0744527
0.0750623
0.0750962
0.0746328
0.0737752
0.0727141
0.0715752
0.0704378
0.0693496
0.0683369
0.0674118
0.0665766
0.0658282
0.0651606
0.0645658
0.0640355
0.063563
0.0631411
0.000228055
0.00214741
0.00539766
0.00933842
0.0138006
0.0187066
0.0239943
0.0295957
0.0354247
0.0413813
0.0473726
0.0532485
0.0588705
0.0640393
0.0681345
0.0711134
0.0732248
0.0745843
0.0752892
0.0754245
0.0750662
0.0743122
0.073347
0.0722856
0.0711984
0.0701352
0.0691275
0.0681924
0.0673372
0.0665624
0.0658643
0.0652373
0.0646749
0.0641705
0.0637179
0.000228693
0.00218426
0.00546295
0.00942328
0.0138967
0.0188049
0.0240846
0.029667
0.0354672
0.0413814
0.0473225
0.0531516
0.0587098
0.0638313
0.0679134
0.0709098
0.073065
0.0744898
0.0752768
0.0755057
0.0752481
0.0745925
0.073714
0.072731
0.0717182
0.0707211
0.0697664
0.0688693
0.068037
0.0672719
0.0665727
0.0659364
0.0653591
0.0648361
0.0643628
0.000229576
0.00221294
0.00552048
0.00950321
0.0139922
0.0189082
0.0241863
0.0297557
0.035531
0.041405
0.0472803
0.0530323
0.0585082
0.0635629
0.0675938
0.0705682
0.0727315
0.0741922
0.0750381
0.0753438
0.0751754
0.0746125
0.0738196
0.0729117
0.071961
0.0710143
0.0701002
0.0692357
0.0684295
0.067685
0.0670022
0.0663791
0.0658122
0.0652974
0.0648305
0.000230456
0.00225062
0.00559582
0.00961013
0.0141243
0.0190578
0.024343
0.0299064
0.0356615
0.0414972
0.0473052
0.0529768
0.0583564
0.0632957
0.0672269
0.0701368
0.0722699
0.0737331
0.0746108
0.0749722
0.0748776
0.0743982
0.0736868
0.0728542
0.0719709
0.0710833
0.0702204
0.0693998
0.0686312
0.0679187
0.0672631
0.0666629
0.0661154
0.065617
0.065164
0.000231432
0.00228618
0.0056703
0.0097202
0.0142655
0.0192237
0.0245242
0.0300901
0.0358315
0.0416348
0.0473774
0.052962
0.0582293
0.0630322
0.0668439
0.0696582
0.0717257
0.0731577
0.0740374
0.0744301
0.0743907
0.0739822
0.0733452
0.0725848
0.0717693
0.0709438
0.0701371
0.0693668
0.0686428
0.0679698
0.0673491
0.0667798
0.0662594
0.0657851
0.0653533
0.000232395
0.00232506
0.00575237
0.00984292
0.0144252
0.0194142
0.0247366
0.0303116
0.036045
0.0418219
0.047509
0.0530047
0.0581561
0.0628147
0.0664858
0.0691736
0.0711438
0.0725128
0.0733652
0.0737639
0.0737592
0.073407
0.072835
0.0721416
0.0713916
0.0706281
0.0698792
0.0691621
0.0684866
0.0678576
0.0672767
0.0667432
0.0662553
0.0658103
0.065405
0.000233348
0.00236317
0.00583463
0.00996829
0.014591
0.0196154
0.0249648
0.0305547
0.0362864
0.0420429
0.0476848
0.0530941
0.0581353
0.0626558
0.0661603
0.0687077
0.0705592
0.0718396
0.0726383
0.0730187
0.0730283
0.0727171
0.0722
0.0715674
0.0708794
0.0701768
0.069486
0.0688236
0.068199
0.067617
0.0670793
0.0665856
0.066134
0.0657223
0.0653476
0.000234247
0.00240199
0.00591885
0.0100974
0.0147629
0.0198254
0.0252051
0.0308136
0.0365481
0.0422893
0.0478918
0.0532219
0.0581568
0.0625324
0.065875
0.0682825
0.0699992
0.0711713
0.0718945
0.0722351
0.0722397
0.0719545
0.0714823
0.0709041
0.0702748
0.0696318
0.0689994
0.068393
0.0678214
0.0672893
0.066798
0.0663474
0.0659357
0.0655609
0.0652203
0.000235074
0.00243985
0.00600178
0.0102255
0.0149344
0.0200362
0.0254479
0.0310774
0.0368182
0.0425475
0.0481165
0.0533765
0.0582137
0.0624574
0.0656561
0.067899
0.069477
0.0705296
0.0711617
0.0714451
0.0714279
0.0711548
0.0707176
0.0701878
0.069614
0.0690294
0.0684558
0.067907
0.0673909
0.0669115
0.0664699
0.0660658
0.0656975
0.0653631
0.0650599
0.000235803
0.00247694
0.00608308
0.0103512
0.015103
0.0202437
0.0256874
0.0313387
0.0370873
0.0428066
0.0483461
0.0535477
0.0582911
0.062411
0.0654615
0.067558
0.0690005
0.0699266
0.0704575
0.0706706
0.0706173
0.0703437
0.069932
0.0694443
0.0689224
0.0683947
0.0678801
0.0673902
0.0669316
0.0665074
0.0661184
0.065764
0.0654424
0.0651514
0.0648889
0.000236421
0.00251253
0.00616112
0.0104719
0.0152648
0.0204427
0.0259173
0.0315899
0.0373467
0.0430576
0.0485702
0.0537217
0.0583776
0.0623847
0.0653014
0.0672644
0.0685604
0.0693642
0.0697889
0.0699227
0.069822
0.0695359
0.0691399
0.068687
0.0682119
0.067738
0.0672808
0.0668493
0.0664487
0.0660809
0.065746
0.0654429
0.0651697
0.0649242
0.0647041
0.000236876
0.00254592
0.0062343
0.0105851
0.0154167
0.0206298
0.0261333
0.0318257
0.03759
0.0432929
0.0487804
0.0538857
0.0584621
0.0623656
0.0651582
0.0669921
0.0681582
0.0688372
0.0691547
0.0692035
0.069046
0.0687362
0.0683448
0.067917
0.0674808
0.0670545
0.0666496
0.0662728
0.0659272
0.0656134
0.0653307
0.0650774
0.0648514
0.0646502
0.0644715
0.0173425
0.0158445
0.0139988
0.0119937
0.0102573
0.00878914
0.00760356
0.00672364
0.00609527
0.00563363
0.00520441
0.00467222
0.00398767
0.00321536
0.00249471
0.001924
0.00152536
0.00140928
0.00160099
0.00197409
0.00224492
0.00227814
0.0433636
0.0430716
0.0427384
0.0422752
0.0417118
0.0411389
0.0404868
0.0400763
0.0395974
0.0395238
0.0403399
0.041095
0.0405386
0.0383592
0.0358397
0.0337124
0.0321198
0.0313508
0.03048
0.0285398
0.0265828
0.0249045
0.0474043
0.0485117
0.0500453
0.0518123
0.053611
0.0553982
0.0569591
0.058015
0.0583874
0.0579254
0.0564848
0.0543619
0.0522414
0.0513081
0.0519686
0.0543086
0.0574954
0.0603779
0.0619937
0.0619
0.0602632
0.0572481
0.0462307
0.0472342
0.0476039
0.0479594
0.0485362
0.04946
0.0504324
0.0511092
0.0517507
0.0517426
0.0508145
0.0499814
0.0491509
0.0483115
0.0474558
0.0465708
0.04597
0.045658
0.0455672
0.0455314
0.045308
0.04485
0.0621217
0.0628226
0.0628025
0.0619493
0.060346
0.0581641
0.0556151
0.0525425
0.0499321
0.0474845
0.0457926
0.0445238
0.0437796
0.0432922
0.0430032
0.0428117
0.0427178
0.0427427
0.0428367
0.0428229
0.042701
0.0423796
0.0502951
0.0502773
0.0502271
0.0500719
0.0498051
0.049185
0.0481709
0.0466723
0.0448647
0.0430065
0.0414315
0.0405043
0.0399312
0.0397216
0.0397488
0.0398837
0.040078
0.0403082
0.0405572
0.0408061
0.0410347
0.0412316
0.0534059
0.0530116
0.0526189
0.0522063
0.051728
0.0511118
0.0502862
0.0492515
0.0479875
0.046558
0.0450766
0.0437104
0.0425557
0.041706
0.0411635
0.0408712
0.0407664
0.0407981
0.0409316
0.0411447
0.0414237
0.0417617
0.0512656
0.05074
0.0503341
0.0500099
0.0497222
0.0494122
0.0490254
0.0485244
0.0478854
0.0471064
0.0462107
0.0452564
0.0443341
0.0435207
0.0428591
0.042368
0.0420458
0.0418778
0.0418446
0.0419276
0.0421137
0.0423951
0.0590496
0.0579266
0.0568529
0.0558438
0.0549044
0.0540285
0.0531983
0.0523865
0.0515622
0.0506964
0.0497723
0.0487888
0.0477867
0.0468166
0.0459092
0.0450947
0.0443989
0.0438452
0.043448
0.043212
0.0431336
0.043204
0.0626044
0.0615107
0.0604084
0.0593133
0.0582393
0.0571959
0.0561872
0.0552103
0.0542555
0.0533075
0.0523486
0.0513706
0.0503811
0.0494065
0.0484612
0.0475651
0.0467381
0.0459987
0.0453637
0.0448491
0.0444691
0.0442306
0.0660055
0.0652881
0.0644839
0.0636012
0.0626508
0.061645
0.0605964
0.0595163
0.0584134
0.0572922
0.0561526
0.0549975
0.0538537
0.0527435
0.0516685
0.0506361
0.0496581
0.0487482
0.0479212
0.0471894
0.0465611
0.0460414
0.0659629
0.0654938
0.0649759
0.0643999
0.0637596
0.0630512
0.062273
0.0614257
0.060512
0.0595359
0.058502
0.0574214
0.0563281
0.0552517
0.0541975
0.0531714
0.052181
0.0512348
0.050342
0.0495119
0.0487532
0.048074
0.0653652
0.0650764
0.064752
0.0643849
0.063967
0.0634901
0.0629466
0.0623298
0.061635
0.0608597
0.0600036
0.0590747
0.0581043
0.0571241
0.0561438
0.0551723
0.0542181
0.0532895
0.0523947
0.051542
0.0507391
0.0499935
0.0639351
0.0636885
0.0634371
0.0631731
0.0628878
0.0625716
0.0622139
0.0618042
0.0613324
0.060789
0.0601667
0.0594646
0.0587028
0.0579065
0.057086
0.0562512
0.055412
0.0545775
0.0537567
0.0529581
0.0521897
0.0514589
0.0630012
0.062675
0.0623655
0.0620687
0.0617783
0.0614867
0.0611841
0.0608599
0.0605021
0.0600985
0.0596375
0.0591118
0.0585306
0.0579094
0.0572546
0.0565737
0.0558749
0.0551667
0.0544576
0.0537559
0.0530696
0.0524056
0.0624351
0.0619929
0.061577
0.061187
0.060821
0.0604748
0.0601421
0.0598147
0.0594822
0.059133
0.0587546
0.0583369
0.0578819
0.0573964
0.0568813
0.0563402
0.0557778
0.0552004
0.0546147
0.0540278
0.0534468
0.052878
0.0623587
0.0617919
0.0612509
0.0607391
0.0602584
0.0598089
0.0593882
0.0589921
0.0586135
0.0582437
0.0578718
0.0574885
0.0570929
0.056686
0.0562637
0.0558251
0.0553714
0.0549053
0.0544311
0.0539537
0.0534784
0.0530104
0.0626037
0.0619367
0.0612873
0.0606617
0.0600651
0.0595012
0.0589719
0.0584772
0.0580142
0.0575781
0.0571616
0.0567581
0.0563679
0.0559889
0.0556135
0.0552371
0.0548574
0.0544741
0.0540884
0.0537028
0.0533206
0.0529448
0.0631284
0.0623789
0.0616385
0.0609133
0.0602105
0.0595365
0.0588964
0.0582934
0.0577289
0.0572018
0.0567092
0.0562488
0.0558241
0.0554328
0.0550654
0.0547146
0.0543753
0.0540445
0.053721
0.0534047
0.0530967
0.0527982
0.0637434
0.0629459
0.0621467
0.0613537
0.0605721
0.0598103
0.0590775
0.0583781
0.0577174
0.0570961
0.0565166
0.0559812
0.0554984
0.0550681
0.05468
0.0543257
0.0539983
0.0536929
0.053406
0.0531357
0.0528809
0.0526411
0.0642282
0.0634416
0.0626384
0.0618263
0.061013
0.0602033
0.059409
0.05864
0.0579016
0.0571997
0.0565389
0.0559299
0.0553807
0.0548973
0.0544703
0.0540916
0.0537538
0.053451
0.0531784
0.0529323
0.0527101
0.0525099
0.0645883
0.0638321
0.0630499
0.0622473
0.0614311
0.0606088
0.0597851
0.0589729
0.0581846
0.0574253
0.0567017
0.0560252
0.0554164
0.0548816
0.05441
0.0539966
0.0536348
0.0533185
0.0530426
0.0528026
0.0525949
0.0524164
0.0648151
0.0641068
0.0633657
0.0625957
0.0618018
0.0609905
0.060169
0.0593431
0.0585219
0.0577245
0.0569545
0.056226
0.0555638
0.0549777
0.054465
0.0540133
0.0536202
0.0532804
0.0529888
0.0527409
0.0525326
0.0523602
0.0649114
0.0642615
0.0635744
0.0628525
0.0620991
0.061319
0.0605181
0.0597037
0.0588839
0.0580642
0.0572643
0.0564987
0.0557937
0.0551633
0.0546052
0.0541178
0.05369
0.0533204
0.0530046
0.0527383
0.0525176
0.0523387
0.0649018
0.0643146
0.0636878
0.0630223
0.0623202
0.0615844
0.0608196
0.0600315
0.0592275
0.058416
0.0576041
0.0568123
0.0560769
0.0554116
0.0548157
0.054288
0.0538273
0.053425
0.0530797
0.0527878
0.0525455
0.0523497
0.0648238
0.0642996
0.0637343
0.0631281
0.0624818
0.0617971
0.061077
0.0603259
0.0595496
0.0587557
0.057953
0.0571563
0.0563975
0.0557052
0.0550782
0.0545163
0.0540187
0.0535844
0.0532071
0.0528856
0.0526163
0.0523939
0.0647141
0.0642527
0.0637487
0.0632018
0.0626122
0.0619807
0.0613091
0.0606003
0.0598589
0.059091
0.0583043
0.0575139
0.0567515
0.0560391
0.0553848
0.054793
0.0542622
0.0537924
0.0533823
0.0530282
0.0527287
0.0524761
0.0645965
0.0642006
0.0637597
0.0632734
0.0627412
0.0621636
0.0615416
0.0608772
0.0601739
0.0594364
0.0586713
0.0578926
0.0571311
0.0564112
0.0557386
0.0551184
0.0545566
0.0540527
0.0536068
0.0532174
0.0528825
0.0526015
0.06447
0.0641485
0.0637783
0.0633585
0.0628885
0.0623682
0.0617983
0.0611803
0.0605168
0.0598119
0.0590712
0.0583072
0.0575502
0.0568253
0.0561396
0.055499
0.0549076
0.05437
0.0538881
0.0534613
0.0530886
0.0527746
0.0643021
0.0640714
0.0637871
0.0634477
0.0630519
0.0625991
0.0620895
0.0615242
0.0609054
0.0602365
0.0595226
0.0587757
0.0580251
0.0572969
0.0565994
0.0559395
0.0553228
0.054753
0.0542341
0.0537687
0.0533561
0.0530042
0.00216207
0.00129318
0.000923524
0.00119159
0.0020966
0.00301608
0.0226338
0.0200486
0.016317
0.0115411
0.00819443
0.00714059
0.0530416
0.0474602
0.0412031
0.0348256
0.0300622
0.0298912
0.0438844
0.0423122
0.0407927
0.039533
0.0389837
0.0394876
0.0419562
0.0414318
0.0410333
0.0408902
0.0413927
0.0425791
0.0414181
0.0416787
0.0420588
0.0427243
0.0434172
0.0442322
0.0422199
0.0428956
0.043779
0.044874
0.0462011
0.0477735
0.0428348
0.0435109
0.0443764
0.0454259
0.046649
0.0480118
0.0434683
0.0439624
0.0446344
0.0454738
0.0464606
0.0475606
0.0441768
0.0443251
0.0446432
0.0451234
0.045752
0.0465066
0.045706
0.0455059
0.0454566
0.0455479
0.0457994
0.0461959
0.0475358
0.0470907
0.0467603
0.0465559
0.0464866
0.046535
0.0493437
0.0487627
0.048265
0.0478672
0.0475796
0.0474086
0.0507777
0.0501548
0.0495825
0.0490911
0.0486921
0.0483947
0.0517522
0.0511346
0.050558
0.05005
0.0496223
0.0492849
0.0522898
0.0517138
0.0511822
0.0507115
0.0503129
0.0499911
0.0525077
0.0520033
0.0515456
0.0511453
0.0508136
0.050558
0.052533
0.0521156
0.051746
0.0514331
0.051186
0.0510121
0.052468
0.0521375
0.0518556
0.0516297
0.0514674
0.0513747
0.0523787
0.0521245
0.0519197
0.0517703
0.0516825
0.0516607
0.0522983
0.0521037
0.0519592
0.0518692
0.0518384
0.0518699
0.0522377
0.0520838
0.0519798
0.0519292
0.0519349
0.0519992
0.0521974
0.0520649
0.0519816
0.05195
0.0519721
0.0520511
0.0521772
0.0520496
0.0519697
0.051939
0.0519585
0.0520369
0.0521781
0.052043
0.0519536
0.0519113
0.0519166
0.0519709
0.0522035
0.0520504
0.0519432
0.0518788
0.0518588
0.0518838
0.0522621
0.0520866
0.0519524
0.05186
0.0518091
0.0517999
0.0523614
0.0521595
0.0519969
0.0518739
0.0517898
0.0517451
0.0525066
0.0522796
0.0520895
0.0519368
0.0518205
0.0517413
0.0527068
0.0524579
0.0522437
0.0520643
0.0519189
0.0518082
0.00302492
0.00271348
0.00219032
0.0016781
0.00127672
0.00108415
0.000960447
0.000846066
0.000706741
0.000592293
0.000665391
0.000796452
0.00118458
0.0013654
0.00146782
0.00180627
0.00254027
0.00366121
0.00526052
0.00725936
0.00962168
0.0123224
0.00706579
0.0070149
0.00686779
0.00683715
0.00704705
0.00747673
0.00812401
0.00902012
0.0102038
0.0116438
0.0131943
0.0147076
0.0162248
0.017984
0.0197638
0.0219703
0.0246112
0.0274628
0.0303916
0.0331671
0.0356546
0.0377863
0.0337806
0.0383782
0.0427754
0.0467134
0.0500107
0.0525165
0.0539911
0.0547761
0.0545446
0.0537853
0.0530585
0.0529088
0.0528375
0.0524749
0.051793
0.050654
0.0491614
0.0476539
0.0465934
0.0466952
0.0481935
0.0506148
0.0403715
0.0414409
0.0426762
0.0433629
0.0435253
0.0432873
0.0429001
0.0428632
0.0438083
0.0454983
0.0468999
0.0470851
0.0460778
0.0447656
0.0438274
0.0434406
0.0434461
0.0439068
0.0447714
0.0457377
0.046523
0.0469289
0.043874
0.0454556
0.0466585
0.0482746
0.0503168
0.0527451
0.0554779
0.0581372
0.0604958
0.0628702
0.0644013
0.0647301
0.0639569
0.0622391
0.0598605
0.0572469
0.0548615
0.0530276
0.0518087
0.0508899
0.0500509
0.0491947
0.0455026
0.0470161
0.0487617
0.0507287
0.0528393
0.0549665
0.0569545
0.0586552
0.0596631
0.0593438
0.0588872
0.0582441
0.057528
0.056866
0.0562777
0.055731
0.0551949
0.0546644
0.054022
0.0532842
0.0524595
0.0515393
0.0494622
0.0511841
0.0529594
0.0546747
0.0562585
0.0575988
0.0586161
0.0592605
0.0595318
0.0595115
0.0593449
0.0591255
0.0589363
0.0588225
0.0587825
0.0587815
0.058769
0.0586902
0.0585881
0.0583995
0.0580928
0.0576729
0.0493434
0.0505672
0.0517667
0.0528944
0.0539074
0.0547709
0.0554644
0.0559863
0.056356
0.0566148
0.0568053
0.056958
0.0570907
0.0572136
0.0573259
0.0574209
0.0574832
0.0574954
0.057457
0.0573823
0.057293
0.0572161
0.0486206
0.0495717
0.0505169
0.0514366
0.0523041
0.0531064
0.0538386
0.0545023
0.0551014
0.0556419
0.0561273
0.0565536
0.0569055
0.0571886
0.0574555
0.0576906
0.0578827
0.0580365
0.0581624
0.0582732
0.0583816
0.0584981
0.0472564
0.0479511
0.0486688
0.0493986
0.0501291
0.0508446
0.0515395
0.0522064
0.0528397
0.0534347
0.0539879
0.054494
0.0549487
0.0553523
0.0556583
0.0558917
0.0560852
0.0562523
0.0564068
0.0565622
0.0567315
0.0569272
0.0466535
0.0471245
0.0476441
0.0482055
0.0488001
0.0494188
0.0500574
0.0507062
0.051356
0.052002
0.052638
0.0532541
0.0538301
0.0543542
0.0548303
0.0552694
0.0556839
0.0560862
0.0564856
0.0568943
0.0573225
0.0577786
0.0467405
0.0470083
0.047326
0.0477017
0.0481309
0.0486059
0.0491298
0.0496935
0.0502904
0.0509145
0.0515605
0.0522259
0.0528803
0.0535137
0.0541305
0.0547359
0.0553348
0.0559299
0.0565257
0.0571216
0.0577192
0.0583173
0.0474162
0.0475098
0.0476718
0.0479021
0.0482021
0.0485625
0.0489975
0.0495014
0.0500694
0.0506987
0.0513866
0.0521253
0.0528904
0.0536626
0.0544397
0.0552202
0.0560054
0.0567932
0.0575743
0.0583508
0.059119
0.0598746
0.0482797
0.0482648
0.0483285
0.0484674
0.0486837
0.0489738
0.0493594
0.0498317
0.0503905
0.0510342
0.0517592
0.0525573
0.0534055
0.0542787
0.0551686
0.05607
0.0569785
0.05789
0.0588078
0.0597234
0.0606359
0.06155
0.0491198
0.0490581
0.0490868
0.0491965
0.0493827
0.0496726
0.0500619
0.050547
0.0511324
0.0518174
0.0526002
0.0534723
0.0544023
0.0553494
0.0563188
0.0572946
0.0582659
0.0592255
0.0601731
0.0610911
0.0619748
0.0628211
0.0498382
0.0497968
0.0498371
0.0499579
0.0501777
0.0504944
0.0509129
0.0514351
0.0520612
0.0527895
0.0536162
0.0545287
0.055488
0.0564538
0.0574284
0.0583901
0.0593283
0.0602429
0.0611118
0.0619364
0.0627155
0.0634476
0.0504477
0.0504497
0.0505309
0.0507016
0.0509661
0.0513282
0.0517902
0.0523524
0.0530128
0.0537669
0.0546074
0.0555178
0.0564504
0.0573841
0.0582997
0.0591865
0.0600346
0.0608321
0.06158
0.0622776
0.0629251
0.063524
0.050958
0.0510156
0.0511534
0.0513764
0.0516885
0.0520919
0.0525865
0.0531701
0.0538375
0.0545811
0.0553897
0.0562418
0.0571052
0.0579439
0.0587509
0.0595079
0.0602144
0.0608685
0.0614707
0.0620224
0.0625265
0.0629865
0.0513853
0.0514959
0.0516822
0.0519471
0.0522921
0.052717
0.053219
0.0537931
0.0544315
0.0551237
0.0558581
0.0566164
0.0573645
0.0580731
0.0587337
0.0593433
0.0599011
0.0604083
0.0608677
0.061283
0.0616585
0.0619988
0.0517259
0.051876
0.0520939
0.0523801
0.0527341
0.0531534
0.0536324
0.0541637
0.0547387
0.055347
0.055977
0.0566112
0.0572192
0.0577813
0.0582945
0.058759
0.0591768
0.0595516
0.0598879
0.0601908
0.0604654
0.0607166
0.0519725
0.0521424
0.0523697
0.052654
0.0529907
0.0533761
0.0538034
0.0542658
0.0547548
0.0552594
0.0557689
0.0562689
0.0567368
0.0571603
0.0575402
0.0578795
0.0581827
0.0584548
0.0587014
0.058928
0.0591397
0.0593406
0.0521196
0.0522887
0.0525039
0.0527622
0.0530585
0.0533902
0.0537495
0.0541289
0.0545204
0.0549151
0.0553047
0.0556786
0.0560218
0.0563281
0.0566012
0.0568463
0.0570691
0.0572754
0.0574711
0.0576611
0.0578499
0.0580407
0.0521702
0.0523205
0.0525056
0.0527223
0.0529664
0.0532329
0.0535156
0.0538081
0.0541036
0.0543958
0.0546791
0.0549472
0.0551914
0.0554109
0.0556112
0.0557986
0.0559794
0.0561595
0.056344
0.0565371
0.0567418
0.0569597
0.0521386
0.0522574
0.0524024
0.0525698
0.0527557
0.0529553
0.0531636
0.0533756
0.0535866
0.053793
0.0539921
0.0541819
0.0543593
0.0545269
0.0546913
0.0548593
0.0550367
0.0552287
0.0554389
0.0556696
0.0559221
0.0561958
0.0520457
0.0521295
0.0522319
0.0523497
0.0524797
0.0526181
0.0527614
0.0529066
0.0530514
0.0531946
0.0533371
0.0534805
0.0536262
0.0537785
0.0539442
0.0541293
0.0543385
0.0545748
0.0548399
0.0551335
0.0554543
0.0557995
0.0519272
0.0519753
0.0520369
0.0521099
0.0521918
0.0522804
0.0523738
0.052471
0.0525722
0.0526791
0.0527956
0.0529267
0.0530763
0.0532488
0.0534497
0.0536833
0.0539517
0.0542553
0.0545927
0.054961
0.0553562
0.0557734
0.0518127
0.0518293
0.0518568
0.0518945
0.0519409
0.0519954
0.0520579
0.0521297
0.0522132
0.052313
0.0524356
0.0525883
0.0527754
0.052999
0.0532623
0.0535663
0.0539099
0.0542903
0.054703
0.0551427
0.0556034
0.0560788
0.0517291
0.0517225
0.051727
0.0517428
0.05177
0.0518096
0.0518634
0.0519348
0.0520286
0.0521513
0.0523111
0.0525162
0.0527684
0.0530656
0.0534072
0.0537905
0.054211
0.0546627
0.0551391
0.0556332
0.056138
0.0566467
0.0517017
0.0516836
0.0516788
0.0516892
0.0517163
0.0517627
0.0518321
0.0519297
0.0520617
0.0522357
0.05246
0.0527411
0.0530759
0.0534563
0.0538778
0.0543342
0.0548181
0.0553218
0.0558377
0.0563586
0.0568778
0.0573892
0.0517526
0.0517367
0.0517392
0.0517631
0.0518114
0.0518882
0.0519987
0.0521487
0.0523446
0.0525932
0.0529008
0.0532697
0.0536897
0.054147
0.0546343
0.0551425
0.0556627
0.0561877
0.0567103
0.0572243
0.0577243
0.0582053
0.0146707
0.016465
0.0182812
0.0200501
0.0216945
0.0232067
0.0246112
0.0259048
0.0270639
0.0280583
0.0288629
0.0294976
0.0300591
0.0307174
0.0316377
0.0327905
0.0340827
0.0354459
0.0367286
0.0369676
0.036405
0.0348568
0.0311463
0.0274611
0.0234387
0.0195071
0.0162382
0.0135321
0.0112536
0.00920878
0.00725796
0.00527945
0.00303379
0.000819253
0.000538542
0.0390483
0.0398833
0.0406855
0.0415324
0.0425307
0.0437866
0.0452693
0.046793
0.0481351
0.0487845
0.0495839
0.0504532
0.0512605
0.0518218
0.0521342
0.0527432
0.0532912
0.0539869
0.0553726
0.0565538
0.057217
0.0577706
0.0600491
0.0623065
0.0635781
0.0619433
0.0595588
0.0572839
0.0544309
0.0495314
0.0421483
0.0312736
0.0185828
0.00704029
0.000888939
0.0528365
0.0545529
0.0565696
0.0585391
0.060621
0.0628593
0.0648594
0.0660815
0.065983
0.0643981
0.0617511
0.0588192
0.0557274
0.0524681
0.049174
0.0463857
0.0430433
0.0414434
0.041149
0.0417855
0.044868
0.0528593
0.0621492
0.0708996
0.0763644
0.0776638
0.0751868
0.0699279
0.0626057
0.05362
0.0432033
0.0318115
0.019862
0.00840468
0.000874052
0.0471149
0.0472038
0.0472338
0.0472115
0.0471721
0.0472256
0.0474586
0.047939
0.0486334
0.0491137
0.0493201
0.0475257
0.0435105
0.0365088
0.0310094
0.0273445
0.0304945
0.0343602
0.0376123
0.0401985
0.0431739
0.046492
0.0494435
0.051409
0.0525184
0.0520075
0.0508786
0.0476422
0.0427539
0.0365291
0.0293663
0.0215819
0.0134288
0.00560688
0.000778518
0.0483853
0.0476301
0.0467657
0.0457884
0.0447046
0.0435562
0.0424033
0.041303
0.0402678
0.0392278
0.0380093
0.0365415
0.0347777
0.0320638
0.0281176
0.0234753
0.0205182
0.0201032
0.0217197
0.0247465
0.0281516
0.0319752
0.0358297
0.0385008
0.0395995
0.0389576
0.0372856
0.0341057
0.0300025
0.0252849
0.0201577
0.0147927
0.00948545
0.00435957
0.000546152
0.05064
0.0498877
0.0490247
0.0480705
0.0470662
0.0460575
0.0450763
0.0441025
0.0430103
0.0417134
0.0402168
0.0384458
0.0360098
0.0330423
0.030131
0.0271578
0.0246087
0.0215716
0.0186043
0.0160711
0.0138343
0.0124619
0.0117327
0.0114007
0.0112563
0.0109475
0.0103774
0.00979025
0.00856436
0.00711732
0.005606
0.00406342
0.00255106
0.00110888
0.000267744
0.057218
0.0567283
0.0561338
0.0554402
0.0546788
0.0539171
0.0532434
0.0527396
0.0524738
0.0525024
0.0528339
0.053452
0.0542386
0.0549413
0.0551138
0.0541598
0.0517326
0.0481644
0.0438382
0.039213
0.0348447
0.0305757
0.026439
0.0227115
0.0193201
0.0162955
0.0136335
0.0113109
0.00927276
0.00744942
0.00574779
0.00410231
0.00249059
0.00100889
0.00019824
0.0571744
0.0571456
0.0571321
0.057143
0.0571952
0.0573126
0.0574491
0.0576233
0.0578673
0.0582206
0.0587086
0.0593047
0.0599528
0.0606135
0.061006
0.0609966
0.0605674
0.0596605
0.0581865
0.0560344
0.0530656
0.049007
0.0441237
0.0390814
0.0340687
0.0292606
0.0246787
0.0203654
0.0163399
0.012626
0.00927057
0.00629084
0.00369946
0.00153378
0.000179682
0.0586069
0.058705
0.0588218
0.058962
0.0591187
0.059272
0.0594417
0.0596242
0.0598197
0.0600393
0.0603248
0.0607488
0.0613552
0.0620701
0.0628556
0.0633917
0.0634792
0.0630681
0.0620646
0.0603585
0.0578456
0.0542956
0.04979
0.0449109
0.0398052
0.0346366
0.0295516
0.0246213
0.0199217
0.0155108
0.0114291
0.00770893
0.00440241
0.00168887
0.000239199
0.0571145
0.0572885
0.0574967
0.0577482
0.0580548
0.0584329
0.058906
0.0595055
0.0602702
0.0612368
0.0624155
0.0637639
0.0651916
0.0664912
0.0674642
0.067996
0.0680499
0.0675147
0.0663384
0.0644591
0.061781
0.0581316
0.0535556
0.0485808
0.0433467
0.0379599
0.0325643
0.0272502
0.0221192
0.0172607
0.0127506
0.00865544
0.00504672
0.00206031
0.00021815
0.0581602
0.0584682
0.0588214
0.0592294
0.0597036
0.0602573
0.060905
0.0616613
0.0625376
0.0635381
0.0646491
0.0658366
0.0670134
0.0681063
0.0690048
0.0695748
0.0697231
0.0693221
0.0682872
0.0665411
0.0639914
0.0604009
0.0558677
0.0508829
0.0455619
0.0400143
0.0343843
0.0288018
0.0233854
0.0182369
0.0134403
0.00906809
0.00520424
0.00203565
0.000245721
0.0587889
0.0591639