/*--------------------------------*- C++ -*----------------------------------*\
  =========                 |
  \\      /  F ield         | OpenFOAM: The Open Source CFD Toolbox
   \\    /   O peration     | Website:  https://openfoam.org
    \\  /    A nd           | Version:  8
     \\/     M anipulation  |
\*---------------------------------------------------------------------------*/
FoamFile
{
    version     2.0;
    format      ascii;
    class       surfaceScalarField;
    location    "0.35";
    object      phi;
}
// * * * * * * * * * * * * * * * * * * * * * * * * * * * * * * * * * * * * * //

dimensions      [1 0 -1 0 0 0 0];

internalField   nonuniform List<scalar> 
31053
(
-5.35742e-06
1.21864e-05
-7.02337e-06
9.72623e-06
-8.47183e-06
1.10626e-05
-1.02541e-05
1.31358e-05
-1.27449e-05
1.56516e-05
-1.6e-05
1.83444e-05
-1.96614e-05
2.0871e-05
-2.28105e-05
2.27289e-05
-2.35435e-05
2.29844e-05
-1.76324e-05
1.93553e-05
3.84542e-06
7.18206e-06
4.98303e-05
-1.33754e-05
0.000118293
-3.12019e-05
0.000194681
-3.36799e-05
0.000250624
-1.49957e-05
0.000284193
7.61869e-06
0.000297208
2.83296e-05
0.000296688
4.1929e-05
0.000288895
4.92282e-05
0.000279768
5.05235e-05
0.000271325
4.98224e-05
0.000263398
4.60162e-05
0.000255244
4.28102e-05
0.000245672
4.11582e-05
0.000233923
4.05798e-05
0.000220041
4.02372e-05
0.000205379
3.87863e-05
0.000191249
3.62486e-05
0.00017819
3.33757e-05
0.000166391
3.04967e-05
0.000155942
2.76932e-05
0.000146722
2.5156e-05
0.000138821
2.26619e-05
0.000132396
2.01217e-05
1.79357e-05
0.000126833
-6.79901e-05
8.01982e-05
-0.000152245
9.39979e-05
-0.000246315
0.000105139
-0.000348028
0.000114843
-0.000454997
0.000122607
-0.000564047
0.000127379
-0.00067062
0.000127433
-0.000767976
0.000120082
-0.000846296
0.000101305
-0.000892224
6.52787e-05
-0.000894139
9.08508e-06
-0.000827919
-7.96049e-05
-0.000699128
-0.000159994
-0.000524216
-0.000208593
-0.00036481
-0.000174409
-0.000228259
-0.000128941
-0.000111108
-8.88446e-05
-6.21779e-06
-6.3013e-05
9.22554e-05
-4.93113e-05
0.000188655
-4.59631e-05
0.000285032
-4.66475e-05
0.000371791
-4.08193e-05
0.000447216
-3.26831e-05
0.000512042
-2.37316e-05
0.000566417
-1.38511e-05
0.000609597
-2.99753e-06
0.000643917
4.42701e-06
0.000669939
1.01977e-05
0.000688419
1.48772e-05
0.000700663
1.82425e-05
0.000708089
2.02664e-05
0.000712151
2.10983e-05
0.000713808
2.10137e-05
0.000713715
2.02253e-05
1.85577e-05
0.000713107
-6.0982e-06
8.62928e-05
-7.23862e-06
9.51376e-05
-5.28641e-06
0.000103185
-1.95545e-06
0.00011151
1.37114e-06
0.000119275
3.55525e-06
0.000125186
3.49192e-06
0.000127482
-1.66812e-07
0.000123718
-9.33025e-06
0.000110432
-2.85934e-05
8.44933e-05
-6.28947e-05
4.3326e-05
-0.000147011
4.43993e-06
-0.000285526
-2.15656e-05
-0.00046079
-3.34601e-05
-0.000604311
-3.10546e-05
-0.000696686
-3.66519e-05
-0.000721329
-6.42532e-05
-0.0006838
-0.000100541
-0.000598456
-0.000134638
-0.000486802
-0.000157591
-0.000365944
-0.000167501
-0.00025195
-0.000154845
-0.00014684
-0.000137832
-4.87509e-05
-0.000121859
4.42068e-05
-0.000106837
0.000133532
-9.23367e-05
0.000216023
-7.80881e-05
0.000291077
-6.48782e-05
0.00035909
-5.31598e-05
0.000420344
-4.30328e-05
0.000475065
-3.44776e-05
0.000523524
-2.73824e-05
0.000566115
-2.15993e-05
0.000603307
-1.69838e-05
-1.30798e-05
0.000634932
3.9943e-05
4.6351e-05
7.9823e-05
5.526e-05
0.000121255
6.17568e-05
0.000165541
6.72298e-05
0.000213372
7.14515e-05
0.000264688
7.38827e-05
0.000318504
7.36841e-05
0.000372361
6.98864e-05
0.000421243
6.15855e-05
0.000455822
4.99681e-05
0.000459699
3.95354e-05
0.000429407
3.48513e-05
0.000374742
3.32605e-05
0.000308093
3.33878e-05
0.000258404
1.88088e-05
0.00023763
-1.56638e-05
0.000251665
-7.80471e-05
0.000288278
-0.000136884
0.000336857
-0.000182965
0.000390322
-0.000210875
0.000445268
-0.000222327
0.00049622
-0.000205736
0.00054378
-0.000185379
0.000589162
-0.000167271
0.000633201
-0.000150938
0.000675683
-0.0001349
0.000715799
-0.000118299
0.000752459
-0.000101638
0.000784701
-8.55029e-05
0.000811898
-7.03237e-05
0.000833777
-5.64414e-05
0.000850397
-4.40749e-05
0.000862069
-3.33291e-05
0.000869262
-2.42234e-05
-1.69303e-05
0.000873083
1.83516e-05
2.79445e-05
3.6129e-05
3.74244e-05
5.58104e-05
4.20119e-05
7.71857e-05
4.57839e-05
9.98506e-05
4.87076e-05
0.000123361
5.02832e-05
0.000147141
4.98031e-05
0.000170543
4.63723e-05
0.000193085
3.89161e-05
0.000216755
2.61525e-05
0.000248618
7.51019e-06
0.000293054
-9.76585e-06
0.00035282
-2.67111e-05
0.000433203
-4.72489e-05
0.000515063
-6.33372e-05
0.000583304
-8.42647e-05
0.000605933
-0.000100925
0.000582184
-0.000113335
0.000521667
-0.000122566
0.000439225
-0.000128524
0.000348366
-0.000131548
0.000262888
-0.000120306
0.000183448
-0.000105966
0.000107334
-9.11696e-05
3.29444e-05
-7.65501e-05
-3.92453e-05
-6.27087e-05
-0.00010737
-5.01688e-05
-0.000169402
-3.95955e-05
-0.000224198
-3.06879e-05
-0.000271286
-2.3212e-05
-0.000310711
-1.69872e-05
-0.00034296
-1.17932e-05
-0.000368644
-7.61193e-06
-0.000388498
-4.33771e-06
-1.51633e-06
-0.000403877
3.6883e-05
-8.90867e-06
7.8324e-05
-3.9854e-06
0.000123003
-2.63327e-06
0.000171207
-2.38161e-06
0.000223142
-3.1845e-06
0.000278592
-5.11742e-06
0.000336731
-8.28044e-06
0.000395939
-1.27715e-05
0.000453411
-1.84872e-05
0.000504507
-2.48677e-05
0.000542796
-3.07008e-05
0.000569735
-3.66256e-05
0.000587276
-4.41663e-05
0.00059439
-5.42693e-05
0.000586911
-5.57805e-05
0.000564356
-6.16263e-05
0.000531659
-6.81435e-05
0.000492665
-7.42586e-05
0.000449458
-7.92783e-05
0.000403957
-8.29464e-05
0.00035796
-8.54805e-05
0.000314915
-7.72053e-05
0.000273365
-6.43655e-05
0.000231706
-4.94602e-05
0.000188598
-3.33873e-05
0.000143357
-1.74127e-05
9.54098e-05
-2.16247e-06
4.87264e-05
7.14658e-06
4.15172e-06
1.39419e-05
-3.79299e-05
1.89238e-05
-7.69696e-05
2.21064e-05
-0.000112527
2.38152e-05
-0.000144401
2.43067e-05
-0.000172655
2.39552e-05
2.29237e-05
-0.000197058
-1.27841e-06
-7.63848e-06
4.58443e-06
-9.85666e-06
1.37088e-05
-1.17665e-05
2.5173e-05
-1.38553e-05
3.82638e-05
-1.62861e-05
5.2342e-05
-1.92076e-05
6.68384e-05
-2.27914e-05
8.12826e-05
-2.72331e-05
9.55154e-05
-3.2742e-05
0.000110084
-3.94648e-05
0.000126719
-4.73725e-05
0.000146362
-5.63175e-05
0.000168327
-6.61957e-05
0.000190897
-7.69222e-05
0.00020805
-7.30217e-05
0.000218262
-7.19313e-05
0.000219586
-6.95598e-05
0.000211126
-6.58832e-05
0.000192644
-6.08702e-05
0.000164083
-5.44464e-05
0.000125261
-4.6709e-05
8.28374e-05
-3.48233e-05
4.21006e-05
-2.36635e-05
7.1331e-06
-1.45195e-05
-1.91049e-05
-7.16764e-06
-3.65107e-05
-2.10625e-08
-4.59061e-05
7.21595e-06
-5.23661e-05
1.35884e-05
-5.63736e-05
1.79322e-05
-5.81431e-05
2.06765e-05
-5.81954e-05
2.21424e-05
-5.70157e-05
2.2618e-05
-5.51e-05
2.23745e-05
-5.28223e-05
2.1662e-05
2.08059e-05
-5.07185e-05
5.69555e-06
-1.33179e-05
1.21019e-05
-1.62455e-05
1.91352e-05
-1.87806e-05
2.68572e-05
-2.15557e-05
3.53406e-05
-2.47451e-05
4.45919e-05
-2.84311e-05
5.45176e-05
-3.26855e-05
6.49059e-05
-3.75852e-05
7.54224e-05
-4.32175e-05
8.56953e-05
-4.96915e-05
9.53917e-05
-5.70171e-05
0.000104315
-6.51824e-05
0.000112244
-7.40609e-05
0.000118598
-8.32049e-05
0.000121577
-7.5937e-05
0.000122034
-7.2328e-05
0.000120389
-6.78579e-05
0.000116776
-6.22165e-05
0.000111164
-5.5208e-05
0.000103287
-4.65209e-05
9.18107e-05
-3.51887e-05
7.62377e-05
-1.92128e-05
5.56278e-05
-3.02386e-06
3.3754e-05
7.37723e-06
1.15656e-05
1.50391e-05
-9.13759e-06
2.06979e-05
-2.61656e-05
2.42588e-05
-3.89916e-05
2.64275e-05
-4.87074e-05
2.76592e-05
-5.61735e-05
2.81514e-05
-6.20768e-05
2.80544e-05
-6.69517e-05
2.75001e-05
-7.1167e-05
2.65978e-05
-7.49392e-05
2.54419e-05
2.4024e-05
-7.81488e-05
2.6597e-06
-1.59842e-05
6.18241e-06
-1.97748e-05
1.05403e-05
-2.31455e-05
1.56999e-05
-2.67228e-05
2.15843e-05
-3.06379e-05
2.81095e-05
-3.49657e-05
3.51732e-05
-3.976e-05
4.26378e-05
-4.50624e-05
5.03052e-05
-5.08998e-05
5.7867e-05
-5.72711e-05
6.49607e-05
-6.41324e-05
7.10836e-05
-7.13314e-05
7.54364e-05
-7.84451e-05
7.70599e-05
-8.48669e-05
7.60883e-05
-7.50048e-05
7.27113e-05
-6.89928e-05
6.70439e-05
-6.22343e-05
5.93718e-05
-5.45897e-05
5.01364e-05
-4.60195e-05
4.02777e-05
-3.67109e-05
3.1469e-05
-2.64318e-05
2.63798e-05
-1.41753e-05
2.75336e-05
-4.22916e-06
2.88247e-05
6.0412e-06
2.94591e-05
1.43605e-05
3.04052e-05
1.97105e-05
3.14507e-05
2.31742e-05
3.25912e-05
2.52501e-05
3.39492e-05
2.6267e-05
3.55763e-05
2.64923e-05
3.74615e-05
2.61402e-05
3.95566e-05
2.53777e-05
4.17974e-05
2.43327e-05
4.4113e-05
2.31043e-05
2.18375e-05
4.62804e-05
1.45499e-06
-1.74332e-05
2.82356e-06
-2.11366e-05
4.10942e-06
-2.44237e-05
5.40052e-06
-2.80052e-05
6.80873e-06
-3.20362e-05
8.44352e-06
-3.65892e-05
1.04005e-05
-4.17042e-05
1.27659e-05
-4.74133e-05
1.56195e-05
-5.37371e-05
1.90264e-05
-6.06599e-05
2.30334e-05
-6.81194e-05
2.75331e-05
-7.58086e-05
3.22174e-05
-8.31056e-05
3.66504e-05
-8.92751e-05
3.93613e-05
-7.76946e-05
4.0712e-05
-7.03251e-05
4.07706e-05
-6.2277e-05
3.97206e-05
-5.35264e-05
3.76795e-05
-4.39679e-05
3.448e-05
-3.35037e-05
2.98671e-05
-2.18137e-05
2.33723e-05
-7.67553e-06
1.52992e-05
3.84355e-06
1.02062e-05
1.11297e-05
7.72387e-06
1.68392e-05
6.45294e-06
2.09764e-05
5.85124e-06
2.37689e-05
5.62163e-06
2.54717e-05
5.57079e-06
2.63092e-05
5.58137e-06
2.64728e-05
5.59126e-06
2.61217e-05
5.5719e-06
2.5388e-05
5.51646e-06
2.43799e-05
5.42913e-06
2.3184e-05
2.1831e-05
5.4297e-06
9.54301e-07
-1.83925e-05
2.22457e-06
-2.24124e-05
3.84344e-06
-2.60487e-05
5.75302e-06
-2.99217e-05
7.86892e-06
-3.41599e-05
1.0096e-05
-3.88253e-05
1.23383e-05
-4.39567e-05
1.44924e-05
-4.95791e-05
1.6435e-05
-5.56932e-05
1.80214e-05
-6.22618e-05
1.90777e-05
-6.91935e-05
1.94032e-05
-7.61552e-05
1.88343e-05
-8.25619e-05
1.73232e-05
-8.77935e-05
1.5601e-05
-7.60011e-05
1.36152e-05
-6.83687e-05
1.14509e-05
-6.01427e-05
9.25325e-06
-5.13595e-05
7.34629e-06
-4.20927e-05
6.12681e-06
-3.23169e-05
6.15194e-06
-2.18732e-05
8.52993e-06
-1.00891e-05
1.31388e-05
-7.92469e-07
1.59826e-05
8.26001e-06
1.84029e-05
1.43947e-05
2.0731e-05
1.86264e-05
2.30695e-05
2.14103e-05
2.54506e-05
2.30721e-05
2.78737e-05
2.38689e-05
3.03215e-05
2.40092e-05
3.27687e-05
2.36601e-05
3.51881e-05
2.29553e-05
3.75546e-05
2.20014e-05
3.98456e-05
2.0882e-05
1.9688e-05
4.19788e-05
3.43821e-07
-1.87352e-05
5.67401e-07
-2.26349e-05
6.64166e-07
-2.61444e-05
6.87381e-07
-2.99437e-05
6.97738e-07
-3.41691e-05
7.39064e-07
-3.88653e-05
8.51357e-07
-4.40676e-05
1.06188e-06
-4.97882e-05
1.37828e-06
-5.60082e-05
1.78778e-06
-6.26699e-05
2.24726e-06
-6.96517e-05
2.75139e-06
-7.66584e-05
3.345e-06
-8.31554e-05
3.99557e-06
-8.84455e-05
4.32161e-06
-7.63297e-05
4.45771e-06
-6.85085e-05
4.47009e-06
-6.01597e-05
4.33349e-06
-5.12282e-05
3.97214e-06
-4.17372e-05
3.33983e-06
-3.16909e-05
2.39876e-06
-2.09394e-05
1.08358e-06
-8.77883e-06
-1.21145e-06
1.4931e-06
-1.07389e-06
8.11327e-06
-8.94451e-08
1.34015e-05
1.26743e-06
1.72608e-05
2.75577e-06
1.99137e-05
4.24786e-06
2.15721e-05
5.68001e-06
2.24293e-05
7.02496e-06
2.26574e-05
8.27606e-06
2.24025e-05
9.43778e-06
2.17878e-05
1.05185e-05
2.09152e-05
1.15282e-05
1.98672e-05
1.86992e-05
1.25119e-05
1.90016e-07
-1.89279e-05
4.1509e-07
-2.28629e-05
7.34696e-07
-2.64672e-05
1.11834e-06
-3.0331e-05
1.51398e-06
-3.45689e-05
1.87868e-06
-3.92347e-05
2.16131e-06
-4.43556e-05
2.30265e-06
-4.99358e-05
2.24344e-06
-5.59562e-05
1.91825e-06
-6.23531e-05
1.25043e-06
-6.89936e-05
1.94724e-07
-7.56139e-05
-1.26719e-06
-8.17063e-05
-3.14739e-06
-8.65798e-05
-4.89196e-06
-7.45992e-05
-6.59579e-06
-6.68188e-05
-8.20406e-06
-5.85655e-05
-9.61182e-06
-4.98346e-05
-1.07452e-05
-4.06179e-05
-1.15513e-05
-3.0899e-05
-1.18504e-05
-2.06545e-05
-1.1178e-05
-9.46533e-06
-8.8699e-06
-8.26979e-07
-7.45595e-06
6.68932e-06
-6.02994e-06
1.19664e-05
-4.47954e-06
1.57022e-05
-2.79769e-06
1.82248e-05
-1.01141e-06
1.97797e-05
8.39552e-07
2.05732e-05
2.71349e-06
2.07793e-05
4.56993e-06
2.05425e-05
6.3741e-06
1.99809e-05
8.09615e-06
1.91902e-05
9.71343e-06
1.82466e-05
1.72251e-05
1.11837e-05
-1.39681e-07
-1.87875e-05
-4.01553e-07
-2.26003e-05
-7.81375e-07
-2.60867e-05
-1.26087e-06
-2.98507e-05
-1.82392e-06
-3.4005e-05
-2.45703e-06
-3.86006e-05
-3.14892e-06
-4.36627e-05
-3.89083e-06
-4.91927e-05
-4.67738e-06
-5.51684e-05
-5.51691e-06
-6.15123e-05
-6.43185e-06
-6.80773e-05
-7.43534e-06
-7.46092e-05
-8.49814e-06
-8.06422e-05
-9.64272e-06
-8.54342e-05
-1.08159e-05
-7.34254e-05
-1.20562e-05
-6.55781e-05
-1.33372e-05
-5.72847e-05
-1.46296e-05
-4.85427e-05
-1.58988e-05
-3.93496e-05
-1.71051e-05
-2.96937e-05
-1.82187e-05
-1.95421e-05
-1.92149e-05
-8.47026e-06
-2.06837e-05
6.4132e-07
-2.09371e-05
6.94098e-06
-2.07593e-05
1.17871e-05
-2.03066e-05
1.52481e-05
-1.96682e-05
1.75851e-05
-1.89149e-05
1.90256e-05
-1.81043e-05
1.97619e-05
-1.72798e-05
1.99547e-05
-1.64742e-05
1.97365e-05
-1.57089e-05
1.92155e-05
-1.49986e-05
1.84791e-05
-1.43498e-05
1.75964e-05
1.66158e-05
-1.37424e-05
-2.42408e-07
-1.85449e-05
-5.23503e-07
-2.2319e-05
-8.27318e-07
-2.57826e-05
-1.168e-06
-2.95097e-05
-1.5683e-06
-3.36043e-05
-2.05485e-06
-3.81137e-05
-2.65294e-06
-4.30642e-05
-3.38689e-06
-4.84584e-05
-4.29239e-06
-5.42625e-05
-5.41098e-06
-6.03932e-05
-6.79454e-06
-6.66932e-05
-8.50953e-06
-7.28935e-05
-1.05975e-05
-7.85534e-05
-1.30548e-05
-8.2976e-05
-1.5358e-05
-7.11214e-05
-1.76504e-05
-6.32848e-05
-1.99297e-05
-5.50044e-05
-2.21757e-05
-4.62955e-05
-2.43548e-05
-3.7169e-05
-2.6416e-05
-2.76308e-05
-2.82722e-05
-1.76836e-05
-2.96212e-05
-7.1189e-06
-3.01477e-05
1.17163e-06
-3.07959e-05
7.59235e-06
-3.12114e-05
1.22059e-05
-3.14006e-05
1.54405e-05
-3.13943e-05
1.75823e-05
-3.12308e-05
1.88653e-05
-3.09478e-05
1.94821e-05
-3.05796e-05
1.95899e-05
-3.01564e-05
1.93161e-05
-2.97012e-05
1.87633e-05
-2.92335e-05
1.80133e-05
-2.87662e-05
1.71305e-05
1.61691e-05
-2.8319e-05
-3.75897e-07
-1.81673e-05
-8.72493e-07
-2.18205e-05
-1.47704e-06
-2.51759e-05
-2.19989e-06
-2.87845e-05
-3.04389e-06
-3.27577e-05
-4.00626e-06
-3.71483e-05
-5.08742e-06
-4.19796e-05
-6.28943e-06
-4.72525e-05
-7.6193e-06
-5.29283e-05
-9.08929e-06
-5.89183e-05
-1.07201e-05
-6.50569e-05
-1.25441e-05
-7.10633e-05
-1.46066e-05
-7.64841e-05
-1.69674e-05
-8.06074e-05
-1.92578e-05
-6.88238e-05
-2.15979e-05
-6.09376e-05
-2.39869e-05
-5.26083e-05
-2.64217e-05
-4.38537e-05
-2.88924e-05
-3.46913e-05
-3.13808e-05
-2.51352e-05
-3.38663e-05
-1.51906e-05
-3.61482e-05
-4.82989e-06
-3.82404e-05
3.27057e-06
-3.98911e-05
9.24935e-06
-4.12441e-05
1.35649e-05
-4.23459e-05
1.65481e-05
-4.32366e-05
1.84783e-05
-4.39515e-05
1.95854e-05
-4.45213e-05
2.00568e-05
-4.49716e-05
2.00451e-05
-4.53244e-05
1.96732e-05
-4.55967e-05
1.90398e-05
-4.58038e-05
1.82234e-05
-4.59568e-05
1.7286e-05
1.62737e-05
-4.60598e-05
-4.20281e-07
-1.77455e-05
-9.32539e-07
-2.13064e-05
-1.52984e-06
-2.45766e-05
-2.22926e-06
-2.80828e-05
-3.03982e-06
-3.19445e-05
-3.97412e-06
-3.6211e-05
-5.05044e-06
-4.08999e-05
-6.29535e-06
-4.60037e-05
-7.73759e-06
-5.14816e-05
-9.40831e-06
-5.72426e-05
-1.1341e-05
-6.31186e-05
-1.35728e-05
-6.8825e-05
-1.61472e-05
-7.39023e-05
-1.91125e-05
-7.76336e-05
-2.19205e-05
-6.60079e-05
-2.47415e-05
-5.81087e-05
-2.75893e-05
-4.97527e-05
-3.04713e-05
-4.09636e-05
-3.33884e-05
-3.17661e-05
-3.63319e-05
-2.21832e-05
-3.92777e-05
-1.22359e-05
-4.19072e-05
-2.19173e-06
-4.42227e-05
5.59437e-06
-4.627e-05
1.13046e-05
-4.80505e-05
1.5353e-05
-4.95805e-05
1.80852e-05
-5.08811e-05
1.97857e-05
-5.19762e-05
2.06867e-05
-5.28902e-05
2.09768e-05
-5.36471e-05
2.08077e-05
-5.42699e-05
2.03011e-05
-5.4779e-05
1.95537e-05
-5.51936e-05
1.86419e-05
-5.55298e-05
1.76254e-05
1.65512e-05
-5.58046e-05
-5.04698e-07
-1.72389e-05
-1.16101e-06
-2.0648e-05
-1.93637e-06
-2.37988e-05
-2.82455e-06
-2.71918e-05
-3.83186e-06
-3.0934e-05
-4.97252e-06
-3.50668e-05
-6.26206e-06
-3.96063e-05
-7.71768e-06
-4.45435e-05
-9.35886e-06
-4.98352e-05
-1.12088e-05
-5.53867e-05
-1.32952e-05
-6.10254e-05
-1.56518e-05
-6.64607e-05
-1.83203e-05
-7.12252e-05
-2.13563e-05
-7.45879e-05
-2.42395e-05
-6.31156e-05
-2.71389e-05
-5.52003e-05
-3.00679e-05
-4.68147e-05
-3.3039e-05
-3.79836e-05
-3.60612e-05
-2.87347e-05
-3.91383e-05
-1.90969e-05
-4.22685e-05
-9.09605e-06
-4.51889e-05
7.3787e-07
-4.7807e-05
8.22106e-06
-5.01447e-05
1.36505e-05
-5.22189e-05
1.74348e-05
-5.40485e-05
1.9922e-05
-5.56543e-05
2.13981e-05
-5.70571e-05
2.20959e-05
-5.8278e-05
2.22035e-05
-5.93369e-05
2.18722e-05
-6.0253e-05
2.12222e-05
-6.10434e-05
2.03488e-05
-6.17245e-05
1.9327e-05
-6.23103e-05
1.82146e-05
1.70555e-05
-6.28117e-05
-5.22516e-07
-1.67147e-05
-1.16502e-06
-2.00036e-05
-1.92316e-06
-2.30385e-05
-2.79974e-06
-2.63128e-05
-3.80879e-06
-2.99222e-05
-4.96895e-06
-3.39034e-05
-6.30198e-06
-3.82696e-05
-7.83133e-06
-4.301e-05
-9.58192e-06
-4.80799e-05
-1.15801e-05
-5.33832e-05
-1.38538e-05
-5.87456e-05
-1.64335e-05
-6.38742e-05
-1.93539e-05
-6.82971e-05
-2.26563e-05
-7.12767e-05
-2.57457e-05
-6.00181e-05
-2.88107e-05
-5.21272e-05
-3.18688e-05
-4.37486e-05
-3.49357e-05
-3.49086e-05
-3.80241e-05
-2.5638e-05
-4.11422e-05
-1.59704e-05
-4.42901e-05
-5.93949e-06
-4.71723e-05
3.62827e-06
-4.97794e-05
1.08359e-05
-5.21163e-05
1.59947e-05
-5.41977e-05
1.95231e-05
-5.60399e-05
2.17707e-05
-5.76609e-05
2.30252e-05
-5.90802e-05
2.35208e-05
-6.03176e-05
2.34461e-05
-6.13926e-05
2.29521e-05
-6.23242e-05
2.21582e-05
-6.31298e-05
2.11587e-05
-6.38259e-05
2.00267e-05
-6.44268e-05
1.88187e-05
1.75779e-05
-6.49463e-05
-5.68763e-07
-1.61445e-05
-1.28661e-06
-1.92841e-05
-2.12397e-06
-2.21993e-05
-3.08832e-06
-2.53463e-05
-4.19362e-06
-2.88144e-05
-5.45629e-06
-3.26379e-05
-6.89478e-06
-3.68279e-05
-8.52963e-06
-4.13715e-05
-1.03835e-05
-4.62219e-05
-1.24811e-05
-5.1281e-05
-1.4849e-05
-5.63723e-05
-1.75161e-05
-6.1201e-05
-2.05138e-05
-6.52926e-05
-2.38788e-05
-6.7904e-05
-2.70088e-05
-5.68809e-05
-3.00899e-05
-4.9039e-05
-3.31353e-05
-4.06962e-05
-3.61584e-05
-3.18784e-05
-3.91712e-05
-2.26182e-05
-4.21821e-05
-1.29523e-05
-4.51947e-05
-2.91948e-06
-4.79441e-05
6.3847e-06
-5.0404e-05
1.33024e-05
-5.25954e-05
1.81924e-05
-5.45389e-05
2.14724e-05
-5.62545e-05
2.34918e-05
-5.77626e-05
2.45384e-05
-5.90831e-05
2.4846e-05
-6.02356e-05
2.4603e-05
-6.12387e-05
2.39592e-05
-6.21099e-05
2.30332e-05
-6.28653e-05
2.19175e-05
-6.35195e-05
2.0684e-05
-6.40855e-05
1.93876e-05
1.80695e-05
-6.45744e-05
-5.84407e-07
-1.55589e-05
-1.3059e-06
-1.85612e-05
-2.15018e-06
-2.13535e-05
-3.12714e-06
-2.43676e-05
-4.25258e-06
-2.7687e-05
-5.54523e-06
-3.13431e-05
-7.02605e-06
-3.53446e-05
-8.71777e-06
-3.96769e-05
-1.06445e-05
-4.42919e-05
-1.2831e-05
-4.90907e-05
-1.53025e-05
-5.38966e-05
-1.80841e-05
-5.84147e-05
-2.11999e-05
-6.21713e-05
-2.46738e-05
-6.44241e-05
-2.787e-05
-5.3679e-05
-3.0979e-05
-4.59245e-05
-3.40108e-05
-3.76588e-05
-3.69762e-05
-2.89075e-05
-3.98846e-05
-1.97043e-05
-4.27426e-05
-1.00887e-05
-4.55506e-05
-1.05788e-07
-4.80709e-05
8.91033e-06
-5.0292e-05
1.55285e-05
-5.22429e-05
2.01481e-05
-5.39498e-05
2.31836e-05
-5.54366e-05
2.49828e-05
-5.67261e-05
2.58318e-05
-5.784e-05
2.59635e-05
-5.87986e-05
2.55648e-05
-5.96208e-05
2.47844e-05
-6.0324e-05
2.37392e-05
-6.09243e-05
2.25203e-05
-6.14359e-05
2.11979e-05
-6.18714e-05
1.98254e-05
1.84427e-05
-6.22424e-05
-6.10698e-07
-1.49473e-05
-1.36846e-06
-1.78025e-05
-2.25503e-06
-2.04658e-05
-3.27879e-06
-2.33425e-05
-4.45444e-06
-2.65099e-05
-5.79985e-06
-2.9996e-05
-7.3353e-06
-3.38072e-05
-9.08304e-06
-3.79269e-05
-1.10669e-05
-4.23056e-05
-1.33114e-05
-4.68433e-05
-1.58415e-05
-5.13634e-05
-1.86805e-05
-5.55721e-05
-2.18492e-05
-5.89986e-05
-2.53641e-05
-6.09046e-05
-2.85769e-05
-5.04619e-05
-3.16739e-05
-4.28233e-05
-3.46593e-05
-3.46693e-05
-3.75384e-05
-2.60244e-05
-4.0316e-05
-1.69227e-05
-4.29946e-05
-7.40604e-06
-4.55747e-05
2.47837e-06
-4.78362e-05
1.11757e-05
-4.97847e-05
1.74804e-05
-5.14586e-05
2.18253e-05
-5.28915e-05
2.46196e-05
-5.41129e-05
2.62071e-05
-5.51498e-05
2.68713e-05
-5.60261e-05
2.68422e-05
-5.67636e-05
2.63045e-05
-5.73818e-05
2.54045e-05
-5.78978e-05
2.42571e-05
-5.83272e-05
2.29513e-05
-5.86832e-05
2.15555e-05
-5.89775e-05
2.01213e-05
1.86868e-05
-5.92199e-05
-6.25889e-07
-1.43209e-05
-1.39662e-06
-1.70311e-05
-2.29693e-06
-1.95647e-05
-3.33694e-06
-2.23016e-05
-4.53272e-06
-2.53131e-05
-5.90332e-06
-2.86242e-05
-7.46998e-06
-3.22392e-05
-9.25568e-06
-3.61397e-05
-1.12845e-05
-4.0275e-05
-1.3581e-05
-4.45449e-05
-1.61686e-05
-4.87735e-05
-1.90686e-05
-5.26696e-05
-2.22971e-05
-5.57672e-05
-2.58629e-05
-5.73356e-05
-2.91e-05
-4.72218e-05
-3.21938e-05
-3.97267e-05
-3.51436e-05
-3.17167e-05
-3.79497e-05
-2.32155e-05
-4.06121e-05
-1.42577e-05
-4.31287e-05
-4.88681e-06
-4.54943e-05
4.84668e-06
-4.75143e-05
1.31981e-05
-4.92054e-05
1.91738e-05
-5.06145e-05
2.32365e-05
-5.17819e-05
2.5789e-05
-5.27426e-05
2.71697e-05
-5.35273e-05
2.76578e-05
-5.4163e-05
2.74796e-05
-5.46734e-05
2.68164e-05
-5.50792e-05
2.58115e-05
-5.5398e-05
2.45771e-05
-5.56455e-05
2.31998e-05
-5.58346e-05
2.17457e-05
-5.59764e-05
2.02644e-05
1.87922e-05
-5.60804e-05
-6.43746e-07
-1.36767e-05
-1.43488e-06
-1.62395e-05
-2.35793e-06
-1.86411e-05
-3.4227e-06
-2.12362e-05
-4.64498e-06
-2.40901e-05
-6.04361e-06
-2.72247e-05
-7.63972e-06
-3.06422e-05
-9.45625e-06
-3.43221e-05
-1.15174e-05
-3.82127e-05
-1.38478e-05
-4.22132e-05
-1.64708e-05
-4.6149e-05
-1.94069e-05
-4.97318e-05
-2.26705e-05
-5.25017e-05
-2.62656e-05
-5.37384e-05
-2.95163e-05
-4.39693e-05
-3.26048e-05
-3.66363e-05
-3.55255e-05
-2.87941e-05
-3.82735e-05
-2.04658e-05
-4.08436e-05
-1.1686e-05
-4.32289e-05
-2.49986e-06
-4.54198e-05
7.03922e-06
-4.72387e-05
1.50185e-05
-4.87132e-05
2.06497e-05
-4.98976e-05
2.44222e-05
-5.08381e-05
2.67307e-05
-5.15747e-05
2.79074e-05
-5.21419e-05
2.8226e-05
-5.25692e-05
2.79079e-05
-5.28822e-05
2.71303e-05
-5.31028e-05
2.60328e-05
-5.32491e-05
2.47242e-05
-5.33367e-05
2.32881e-05
-5.33783e-05
2.1788e-05
-5.33846e-05
2.02715e-05
1.87731e-05
-5.33645e-05
-6.54665e-07
-1.30218e-05
-1.45627e-06
-1.54376e-05
-2.39045e-06
-1.77066e-05
-3.46769e-06
-2.01586e-05
-4.70426e-06
-2.28531e-05
-6.11938e-06
-2.58091e-05
-7.73447e-06
-2.90265e-05
-9.57265e-06
-3.24833e-05
-1.16582e-05
-3.61264e-05
-1.40155e-05
-3.98551e-05
-1.66677e-05
-4.34958e-05
-1.96346e-05
-4.6764e-05
-2.2929e-05
-4.92062e-05
-2.65516e-05
-5.01145e-05
-2.98182e-05
-4.07015e-05
-3.29094e-05
-3.35439e-05
-3.58157e-05
-2.58867e-05
-3.85281e-05
-1.77524e-05
-4.10368e-05
-9.17627e-06
-4.33307e-05
-2.04959e-07
-4.53964e-05
9.10573e-06
-4.70681e-05
1.6691e-05
-4.83817e-05
2.1964e-05
-4.93971e-05
2.54382e-05
-5.01656e-05
2.74998e-05
-5.07309e-05
2.84734e-05
-5.11307e-05
2.86263e-05
-5.13968e-05
2.81746e-05
-5.15564e-05
2.72903e-05
-5.16321e-05
2.61089e-05
-5.1643e-05
2.47354e-05
-5.16046e-05
2.32501e-05
-5.15297e-05
2.17136e-05
-5.14286e-05
2.0171e-05
1.86549e-05
-5.13098e-05
-6.65709e-07
-1.2356e-05
-1.47821e-06
-1.46249e-05
-2.42368e-06
-1.67609e-05
-3.51266e-06
-1.90694e-05
-4.76137e-06
-2.16041e-05
-6.18899e-06
-2.43812e-05
-7.81692e-06
-2.73982e-05
-9.6683e-06
-3.06316e-05
-1.17675e-05
-3.40268e-05
-1.4139e-05
-3.74831e-05
-1.68063e-05
-4.0828e-05
-1.97891e-05
-4.37806e-05
-2.31002e-05
-4.58944e-05
-2.67395e-05
-4.64745e-05
-3.00178e-05
-3.74226e-05
-3.31145e-05
-3.04466e-05
-3.60171e-05
-2.29835e-05
-3.8713e-05
-1.50559e-05
-4.11889e-05
-6.69983e-06
-4.34301e-05
2.03666e-06
-4.54193e-05
1.10954e-05
-4.69981e-05
1.82702e-05
-4.82075e-05
2.31737e-05
-4.91118e-05
2.63428e-05
-4.97658e-05
2.81541e-05
-5.02163e-05
2.89242e-05
-5.0503e-05
2.89133e-05
-5.06597e-05
2.83315e-05
-5.07147e-05
2.73455e-05
-5.06915e-05
2.6086e-05
-5.06096e-05
2.46536e-05
-5.04848e-05
2.31254e-05
-5.03299e-05
2.15589e-05
-5.01552e-05
1.99966e-05
1.84691e-05
-4.9969e-05
-6.7273e-07
-1.16832e-05
-1.49054e-06
-1.3807e-05
-2.4408e-06
-1.58105e-05
-3.53448e-06
-1.79756e-05
-4.78797e-06
-2.03504e-05
-6.22057e-06
-2.29484e-05
-7.85367e-06
-2.5765e-05
-9.71043e-06
-2.87746e-05
-1.18151e-05
-3.19219e-05
-1.41923e-05
-3.51056e-05
-1.68655e-05
-3.81546e-05
-1.98547e-05
-4.07911e-05
-2.3173e-05
-4.25758e-05
-2.68208e-05
-4.28264e-05
-3.0107e-05
-3.41361e-05
-3.32106e-05
-2.73427e-05
-3.61173e-05
-2.00765e-05
-3.88122e-05
-1.23608e-05
-4.12791e-05
-4.2327e-06
-4.35005e-05
4.25822e-06
-4.54565e-05
1.30515e-05
-4.6991e-05
1.98048e-05
-4.81483e-05
2.4331e-05
-4.89948e-05
2.71894e-05
-4.95878e-05
2.87472e-05
-4.9976e-05
2.93125e-05
-5.02008e-05
2.91382e-05
-5.0297e-05
2.84278e-05
-5.02936e-05
2.73423e-05
-5.0215e-05
2.60074e-05
-5.00807e-05
2.45195e-05
-4.9907e-05
2.29518e-05
-4.97066e-05
2.13587e-05
-4.94899e-05
1.97801e-05
1.82444e-05
-4.92648e-05
-6.78247e-07
-1.10049e-05
-1.49856e-06
-1.29867e-05
-2.45011e-06
-1.48589e-05
-3.5443e-06
-1.68813e-05
-4.79762e-06
-1.9097e-05
-6.22928e-06
-2.15167e-05
-7.86058e-06
-2.41336e-05
-9.7145e-06
-2.69206e-05
-1.18152e-05
-2.98211e-05
-1.41874e-05
-3.27334e-05
-1.68547e-05
-3.54872e-05
-1.98377e-05
-3.7808e-05
-2.31505e-05
-3.92629e-05
-2.67952e-05
-3.91816e-05
-3.00823e-05
-3.08488e-05
-3.31902e-05
-2.42347e-05
-3.61038e-05
-1.71628e-05
-3.88068e-05
-9.65771e-06
-4.12814e-05
-1.75804e-06
-4.35079e-05
6.48477e-06
-4.54645e-05
1.5008e-05
-4.69941e-05
2.13345e-05
-4.81416e-05
2.54784e-05
-4.89746e-05
2.80224e-05
-4.95514e-05
2.9324e-05
-4.99217e-05
2.96828e-05
-5.01278e-05
2.93443e-05
-5.02051e-05
2.85051e-05
-5.01831e-05
2.73204e-05
-5.00865e-05
2.59107e-05
-4.99351e-05
2.43681e-05
-4.97452e-05
2.2762e-05
-4.95298e-05
2.11434e-05
-4.92991e-05
1.95496e-05
1.80066e-05
-4.90612e-05
-6.82254e-07
-1.03226e-05
-1.49968e-06
-1.21692e-05
-2.44682e-06
-1.39118e-05
-3.53571e-06
-1.57924e-05
-4.78279e-06
-1.78499e-05
-6.20704e-06
-2.00924e-05
-7.82947e-06
-2.25111e-05
-9.67281e-06
-2.50772e-05
-1.1761e-05
-2.77328e-05
-1.41186e-05
-3.03757e-05
-1.67694e-05
-3.28364e-05
-1.97346e-05
-3.48426e-05
-2.30299e-05
-3.59676e-05
-2.66595e-05
-3.55519e-05
-2.99385e-05
-2.75698e-05
-3.3045e-05
-2.11281e-05
-3.5964e-05
-1.42437e-05
-3.86789e-05
-6.94285e-06
-4.11707e-05
7.33836e-07
-4.34187e-05
8.73275e-06
-4.53997e-05
1.6989e-05
-4.69532e-05
2.28879e-05
-4.81228e-05
2.6648e-05
-4.89761e-05
2.88757e-05
-4.95714e-05
2.99192e-05
-4.99584e-05
3.00699e-05
-5.01797e-05
2.95656e-05
-5.02709e-05
2.85963e-05
-5.02618e-05
2.73113e-05
-5.0177e-05
2.5826e-05
-5.00366e-05
2.42278e-05
-4.98569e-05
2.25823e-05
-4.96509e-05
2.09375e-05
-4.9429e-05
1.93277e-05
1.77768e-05
-4.91991e-05
-6.66866e-07
-9.65568e-06
-1.47777e-06
-1.13582e-05
-2.41928e-06
-1.29702e-05
-3.50156e-06
-1.47101e-05
-4.74017e-06
-1.66113e-05
-6.1535e-06
-1.8679e-05
-7.76209e-06
-2.09024e-05
-9.5883e-06
-2.32509e-05
-1.16559e-05
-2.56652e-05
-1.39894e-05
-2.80422e-05
-1.66128e-05
-3.02129e-05
-1.95484e-05
-3.1907e-05
-2.28132e-05
-3.27028e-05
-2.64144e-05
-3.19507e-05
-2.96746e-05
-2.43096e-05
-3.27713e-05
-1.80314e-05
-3.56904e-05
-1.13245e-05
-3.84155e-05
-4.21773e-06
-4.09276e-05
3.24604e-06
-4.32055e-05
1.10107e-05
-4.52253e-05
1.90088e-05
-4.68217e-05
2.44843e-05
-4.80355e-05
2.78618e-05
-4.8933e-05
2.97731e-05
-4.95715e-05
3.05577e-05
-5.00005e-05
3.04989e-05
-5.02618e-05
2.9827e-05
-5.03911e-05
2.87257e-05
-5.04179e-05
2.73382e-05
-5.03668e-05
2.57749e-05
-5.02578e-05
2.41189e-05
-5.01073e-05
2.24319e-05
-4.99284e-05
2.07587e-05
-4.97315e-05
1.91309e-05
-4.95246e-05
1.757e-05
0.00011053
3.35818e-05
9.35255e-05
3.39722e-05
7.65291e-05
3.38603e-05
5.94025e-05
3.38713e-05
4.21463e-05
3.38812e-05
2.51065e-05
3.35801e-05
8.75957e-06
3.28609e-05
-6.23624e-06
3.14566e-05
-1.80521e-05
2.83433e-05
-2.50354e-05
2.35623e-05
-2.60289e-05
1.75968e-05
-2.09816e-05
1.13054e-05
-1.18546e-05
6.27939e-06
-1.2201e-06
4.00083e-06
8.44563e-06
4.3871e-06
1.49272e-05
6.67102e-06
1.6788e-05
1.06757e-05
1.38435e-05
1.47961e-05
8.90702e-06
1.62698e-05
6.31354e-06
1.34285e-05
7.75881e-06
8.94718e-06
4.62491e-06
1.31086e-05
0.000715081
3.16339e-05
0.000718654
3.04366e-05
0.000723486
2.90704e-05
0.000730676
2.67286e-05
0.000741486
2.31098e-05
0.000757257
1.7831e-05
0.000779932
1.01892e-05
0.000811737
-3.8137e-07
0.000851468
-1.14495e-05
0.000899999
-2.50739e-05
0.000957597
-4.01317e-05
0.00102282
-5.40798e-05
0.00108978
-6.0878e-05
0.00115517
-6.15623e-05
0.00121519
-5.57667e-05
0.00126494
-4.31082e-05
0.00129866
-2.2985e-05
0.00131044
3.1305e-06
0.00129529
3.15375e-05
0.00124994
5.89549e-05
0.00117487
8.42756e-05
0.000106826
0.00107294
0.00067152
-4.96571e-06
0.000700847
1.09957e-06
0.000723839
6.07187e-06
0.000740808
9.74668e-06
0.000752092
1.18066e-05
0.000757578
1.22888e-05
0.00075666
1.09814e-05
0.000747538
8.52606e-06
0.000729822
5.98116e-06
0.000700849
3.56497e-06
0.000658626
1.70652e-06
0.000604114
2.23207e-08
0.000544232
-1.44064e-06
0.000484971
-2.81287e-06
0.000431839
-3.08765e-06
0.000388189
1.96625e-07
0.000356258
8.68286e-06
0.000334822
2.43662e-05
0.000318936
4.73562e-05
0.000307412
7.05232e-05
0.000298467
9.33516e-05
0.000115537
0.00028997
0.000883406
-1.53221e-05
0.000885761
-1.25726e-06
0.00087968
1.21765e-05
0.000862579
2.68806e-05
0.000832451
4.19731e-05
0.000787583
5.72128e-05
0.000726246
7.23828e-05
0.000647652
8.71898e-05
0.000552562
0.000101128
0.00044265
0.00011351
0.000319875
0.000124549
0.000188251
0.000131724
5.70823e-05
0.00012978
-6.9536e-05
0.000123861
-0.000187981
0.000115409
-0.000294305
0.000106497
-0.000384491
9.88029e-05
-0.000454286
9.41499e-05
-0.000500057
9.31538e-05
-0.000524747
9.52949e-05
-0.000530836
9.95821e-05
0.000104714
-0.000519788
-0.000416074
-3.05953e-06
-0.000421164
3.91786e-06
-0.000422655
1.37711e-05
-0.000420053
2.4431e-05
-0.000413967
3.60813e-05
-0.000405234
4.87205e-05
-0.000394614
6.20477e-05
-0.000382611
7.54867e-05
-0.00036957
8.83793e-05
-0.000355739
9.99395e-05
-0.00034078
0.000109805
-0.00032486
0.000115968
-0.000310103
0.00011513
-0.000299152
0.000112928
-0.000293967
0.000110174
-0.000295132
0.00010756
-0.000302216
0.00010576
-0.000313451
0.000105263
-0.000326455
0.000106035
-0.000338782
0.000107506
-0.000348314
0.000109005
0.000110161
-0.000353864
-0.000233439
3.338e-05
-0.000265569
3.61151e-05
-0.000291033
3.93138e-05
-0.000309697
4.31849e-05
-0.000321622
4.81061e-05
-0.000327088
5.42988e-05
-0.000326687
6.17696e-05
-0.000321314
7.02468e-05
-0.000312231
7.94343e-05
-0.00030108
8.89268e-05
-0.000289304
9.81583e-05
-0.000278487
0.000105269
-0.000270362
0.000107103
-0.000265283