/*--------------------------------*- C++ -*----------------------------------*\
  =========                 |
  \\      /  F ield         | OpenFOAM: The Open Source CFD Toolbox
   \\    /   O peration     | Website:  https://openfoam.org
    \\  /    A nd           | Version:  8
     \\/     M anipulation  |
\*---------------------------------------------------------------------------*/
FoamFile
{
    version     2.0;
    format      ascii;
    class       volScalarField;
    location    "0.35";
    object      rho;
}
// * * * * * * * * * * * * * * * * * * * * * * * * * * * * * * * * * * * * * //

dimensions      [1 -3 0 0 0 0 0];

internalField   nonuniform List<scalar> 
15677
(
1.29931
1.29949
1.29928
1.29909
1.29884
1.29855
1.2982
1.29782
1.29739
1.29693
1.29644
1.2959
1.29528
1.29485
1.29485
1.29491
1.29494
1.29496
1.29494
1.29491
1.29486
1.29479
1.29475
1.29473
1.29474
1.29477
1.29481
1.29487
1.29494
1.29501
1.2951
1.2952
1.2953
1.29541
1.29554
1.09193
1.09153
1.09093
1.0902
1.08945
1.08867
1.08782
1.0869
1.08596
1.08505
1.08424
1.08415
1.08477
1.086
1.08694
1.08748
1.08789
1.08813
1.08807
1.08776
1.0873
1.08674
1.08623
1.08577
1.08534
1.08493
1.08456
1.08417
1.0838
1.08349
1.08321
1.08298
1.08278
1.08261
1.08245
1.2321
1.23218
1.23214
1.23195
1.23155
1.23089
1.23001
1.22897
1.22787
1.22698
1.22667
1.22666
1.22763
1.22963
1.23096
1.23123
1.23159
1.23215
1.23321
1.23488
1.23667
1.23825
1.2395
1.24044
1.24115
1.2417
1.24206
1.2423
1.24245
1.24255
1.24261
1.24264
1.24266
1.24269
1.24275
1.12762
1.12787
1.12802
1.12815
1.12823
1.12826
1.12822
1.12805
1.1277
1.12725
1.12689
1.12689
1.1272
1.12751
1.12742
1.12684
1.12641
1.12625
1.12626
1.12619
1.12597
1.12556
1.12495
1.12417
1.12322
1.12211
1.12094
1.11981
1.11873
1.11774
1.11689
1.11619
1.11565
1.11524
1.11498
1.19396
1.19421
1.19448
1.1948
1.19517
1.1956
1.1961
1.19668
1.19732
1.19798
1.19865
1.19926
1.19977
1.20019
1.20028
1.20008
1.19978
1.19956
1.19961
1.19987
1.20007
1.20028
1.20052
1.20078
1.20104
1.20126
1.20139
1.20146
1.2015
1.20152
1.20153
1.20153
1.20152
1.20151
1.20152
1.15511
1.15522
1.1553
1.15535
1.15534
1.15528
1.15515
1.15494
1.15467
1.15434
1.15398
1.15374
1.15352
1.15325
1.15293
1.15265
1.15246
1.1523
1.15218
1.1521
1.15203
1.15193
1.15179
1.15168
1.15167
1.15173
1.15185
1.15204
1.15221
1.15234
1.15246
1.15254
1.15255
1.15254
1.15255
1.18653
1.18654
1.18654
1.18655
1.18657
1.18658
1.18662
1.18666
1.18671
1.18679
1.18687
1.18696
1.18703
1.18706
1.18703
1.18694
1.18681
1.18666
1.18653
1.18643
1.1864
1.18648
1.18664
1.18683
1.18705
1.18729
1.18754
1.1877
1.18786
1.18801
1.18813
1.18823
1.1883
1.18835
1.18837
1.16189
1.1619
1.16191
1.16194
1.16196
1.16198
1.162
1.16202
1.16203
1.16204
1.16206
1.16207
1.16209
1.16211
1.16211
1.16211
1.16211
1.16212
1.16212
1.1621
1.16209
1.16209
1.16211
1.16222
1.16233
1.16245
1.1626
1.16276
1.1629
1.16301
1.16312
1.16322
1.16332
1.16341
1.16349
1.17894
1.17894
1.17893
1.17893
1.17892
1.17891
1.1789
1.17888
1.17884
1.1788
1.17874
1.17868
1.17861
1.17855
1.17852
1.17851
1.17853
1.17857
1.17863
1.17872
1.17884
1.17898
1.17917
1.17924
1.17929
1.17934
1.17937
1.17939
1.17939
1.1794
1.17939
1.17938
1.17936
1.17934
1.17932
1.16723
1.16725
1.16727
1.16729
1.16731
1.16734
1.16737
1.16741
1.16745
1.1675
1.16754
1.16759
1.16764
1.16768
1.1677
1.16771
1.16771
1.16771
1.1677
1.1677
1.1677
1.16769
1.16768
1.16779
1.1679
1.16799
1.16808
1.16816
1.16824
1.16832
1.16839
1.16846
1.16853
1.16859
1.16866
1.17459
1.17459
1.17459
1.17459
1.17459
1.17458
1.17458
1.17456
1.17455
1.17453
1.17451
1.1745
1.17448
1.17446
1.17447
1.17449
1.17452
1.17457
1.17463
1.1747
1.17477
1.17486
1.17494
1.17491
1.17491
1.17491
1.1749
1.1749
1.17489
1.17488
1.17487
1.17486
1.17484
1.17483
1.17481
1.16995
1.16997
1.16999
1.17
1.17002
1.17004
1.17006
1.17008
1.17011
1.17013
1.17017
1.17021
1.17024
1.17028
1.1703
1.17031
1.17032
1.17032
1.17033
1.17033
1.17033
1.17033
1.1703
1.17039
1.17044
1.17048
1.17051
1.17055
1.17058
1.17061
1.17064
1.17067
1.17069
1.17072
1.17075
1.1728
1.17281
1.17281
1.17282
1.17282
1.17282
1.17283
1.17283
1.17283
1.17282
1.17282
1.17281
1.1728
1.17279
1.1728
1.17282
1.17284
1.17287
1.17291
1.17294
1.17297
1.17301
1.17307
1.17304
1.17304
1.17304
1.17304
1.17303
1.17303
1.17302
1.17301
1.173
1.17298
1.17297
1.17296
1.17117
1.17118
1.17119
1.1712
1.17121
1.17122
1.17123
1.17124
1.17125
1.17127
1.17129
1.17132
1.17134
1.17137
1.17138
1.1714
1.17141
1.17142
1.17143
1.17143
1.17143
1.17143
1.17141
1.17145
1.17146
1.17147
1.17148
1.17149
1.17149
1.1715
1.17151
1.17152
1.17152
1.17153
1.17153
1.17224
1.17224
1.17225
1.17225
1.17226
1.17226
1.17226
1.17226
1.17226
1.17226
1.17226
1.17226
1.17225
1.17225
1.17226
1.17227
1.17229
1.17231
1.17233
1.17234
1.17236
1.17238
1.17241
1.1724
1.1724
1.1724
1.1724
1.17239
1.17239
1.17238
1.17238
1.17237
1.17236
1.17236
1.17234
1.17174
1.17175
1.17176
1.17176
1.17176
1.17177
1.17177
1.17177
1.17178
1.17179
1.1718
1.17182
1.17183
1.17185
1.17187
1.17189
1.1719
1.17191
1.17192
1.17193
1.17194
1.17194
1.17194
1.17195
1.17196
1.17196
1.17197
1.17197
1.17197
1.17197
1.17197
1.17197
1.17197
1.17197
1.17196
1.17216
1.17217
1.17217
1.17217
1.17217
1.17217
1.17217
1.17217
1.17217
1.17217
1.17217
1.17217
1.17218
1.17218
1.17219
1.1722
1.17222
1.17223
1.17225
1.17227
1.17229
1.1723
1.17232
1.17232
1.17233
1.17233
1.17234
1.17234
1.17234
1.17234
1.17234
1.17233
1.17233
1.17233
1.17232
1.17206
1.17207
1.17207
1.17207
1.17207
1.17208
1.17208
1.17208
1.17209
1.17209
1.1721
1.17211
1.17212
1.17213
1.17215
1.17216
1.17218
1.17219
1.17221
1.17222
1.17224
1.17225
1.17227
1.17228
1.17229
1.17229
1.1723
1.1723
1.17231
1.17231
1.17231
1.17232
1.17232
1.17232
1.17231
1.17226
1.17227
1.17227
1.17227
1.17227
1.17227
1.17227
1.17227
1.17227
1.17227
1.17227
1.17227
1.17228
1.17228
1.17229
1.17231
1.17232
1.17234
1.17236
1.17238
1.1724
1.17242
1.17244
1.17245
1.17247
1.17248
1.17249
1.17249
1.1725
1.17251
1.17251
1.17251
1.17252
1.17252
1.17251
1.1723
1.1723
1.17231
1.17231
1.1723
1.1723
1.1723
1.1723
1.1723
1.1723
1.17231
1.17231
1.17232
1.17233
1.17234
1.17236
1.17238
1.17239
1.17241
1.17243
1.17246
1.17248
1.1725
1.17252
1.17253
1.17255
1.17256
1.17257
1.17258
1.17258
1.17259
1.1726
1.1726
1.17261
1.17261
1.17242
1.17242
1.17243
1.17243
1.17242
1.17242
1.17242
1.17242
1.17241
1.17241
1.17241
1.17241
1.17242
1.17243
1.17244
1.17245
1.17247
1.17249
1.17251
1.17253
1.17256
1.17258
1.1726
1.17262
1.17264
1.17266
1.17268
1.17269
1.1727
1.17271
1.17272
1.17272
1.17273
1.17274
1.17274
1.17249
1.1725
1.1725
1.1725
1.17249
1.17249
1.17249
1.17248
1.17248
1.17248
1.17248
1.17248
1.17249
1.17249
1.17251
1.17252
1.17254
1.17255
1.17258
1.1726
1.17262
1.17265
1.17268
1.1727
1.17272
1.17274
1.17276
1.17277
1.17278
1.1728
1.17281
1.17281
1.17282
1.17283
1.17284
1.17258
1.17259
1.17259
1.17259
1.17258
1.17258
1.17258
1.17257
1.17257
1.17256
1.17256
1.17256
1.17256
1.17257
1.17258
1.17259
1.17261
1.17263
1.17265
1.17267
1.1727
1.17272
1.17275
1.17277
1.1728
1.17282
1.17284
1.17285
1.17287
1.17288
1.17289
1.1729
1.17291
1.17292
1.17293
1.17266
1.17267
1.17267
1.17266
1.17266
1.17265
1.17265
1.17264
1.17264
1.17263
1.17263
1.17263
1.17263
1.17264
1.17264
1.17266
1.17267
1.17269
1.17271
1.17273
1.17276
1.17278
1.17281
1.17283
1.17286
1.17288
1.1729
1.17292
1.17293
1.17295
1.17296
1.17297
1.17299
1.173
1.173
1.17274
1.17275
1.17275
1.17274
1.17274
1.17273
1.17272
1.17272
1.17271
1.1727
1.1727
1.1727
1.1727
1.1727
1.17271
1.17272
1.17273
1.17275
1.17276
1.17279
1.17281
1.17284
1.17286
1.17289
1.17291
1.17294
1.17296
1.17298
1.17299
1.17301
1.17302
1.17304
1.17305
1.17306
1.17307
1.17282
1.17282
1.17282
1.17281
1.1728
1.1728
1.17279
1.17278
1.17277
1.17277
1.17276
1.17276
1.17276
1.17276
1.17276
1.17277
1.17279
1.1728
1.17282
1.17284
1.17286
1.17289
1.17291
1.17294
1.17296
1.17298
1.17301
1.17303
1.17304
1.17306
1.17308
1.17309
1.1731
1.17311
1.17312
1.17289
1.17289
1.17288
1.17288
1.17287
1.17286
1.17285
1.17284
1.17284
1.17283
1.17282
1.17282
1.17281
1.17281
1.17282
1.17283
1.17284
1.17285
1.17286
1.17288
1.1729
1.17293
1.17295
1.17298
1.173
1.17303
1.17305
1.17307
1.17309
1.1731
1.17312
1.17314
1.17315
1.17316
1.17316
1.17295
1.17295
1.17295
1.17294
1.17293
1.17292
1.17291
1.1729
1.17289
1.17288
1.17288
1.17287
1.17287
1.17287
1.17287
1.17288
1.17288
1.1729
1.17291
1.17293
1.17295
1.17297
1.17299
1.17302
1.17304
1.17306
1.17308
1.1731
1.17312
1.17314
1.17316
1.17317
1.17319
1.1732
1.1732
1.17301
1.17301
1.17301
1.173
1.17299
1.17298
1.17297
1.17296
1.17295
1.17294
1.17293
1.17292
1.17292
1.17291
1.17292
1.17292
1.17293
1.17294
1.17295
1.17297
1.17298
1.17301
1.17303
1.17305
1.17307
1.17309
1.17312
1.17314
1.17316
1.17317
1.17319
1.17321
1.17322
1.17323
1.17323
1.17307
1.17307
1.17306
1.17305
1.17304
1.17303
1.17302
1.17301
1.173
1.17298
1.17297
1.17297
1.17296
1.17296
1.17296
1.17296
1.17297
1.17298
1.17299
1.173
1.17302
1.17304
1.17306
1.17308
1.1731
1.17312
1.17314
1.17316
1.17318
1.1732
1.17322
1.17324
1.17325
1.17326
1.17326
1.29583
1.29648
1.29715
1.29784
1.29856
1.2993
1.30005
1.30084
1.30161
1.30234
1.30313
1.30395
1.30473
1.3056
1.30644
1.30749
1.30854
1.30989
1.31108
1.31289
1.31482
1.31757
1.08227
1.08187
1.08138
1.08088
1.08033
1.0797
1.07895
1.07807
1.07693
1.07569
1.07431
1.07283
1.07129
1.06976
1.06841
1.06736
1.06672
1.06646
1.06643
1.06666
1.06746
1.06879
1.24277
1.24299
1.24333
1.24374
1.24421
1.24471
1.24512
1.24536
1.24543
1.24528
1.24493
1.24438
1.24368
1.24271
1.24167
1.24091
1.24051
1.24045
1.24073
1.24157
1.24294
1.24477
1.11504
1.11502
1.11512
1.11529
1.11548
1.1157
1.11595
1.11618
1.11638
1.11644
1.11646
1.11653
1.11655
1.11655
1.11657
1.11646
1.11618
1.11588
1.11584
1.11602
1.11651
1.11746
1.20151
1.20128
1.20108
1.2011
1.20133
1.20178
1.20245
1.20327
1.20415
1.20497
1.20566
1.20618
1.20654
1.20664
1.20639
1.20586
1.20516
1.20441
1.20367
1.20296
1.20228
1.20158
1.15259
1.15265
1.15266
1.15264
1.15262
1.15266
1.15278
1.15298
1.15325
1.15355
1.15389
1.15424
1.15455
1.15481
1.15503
1.15523
1.15541
1.15561
1.1558
1.156
1.15622
1.15647
1.18825
1.18814
1.18802
1.18787
1.18768
1.18745
1.18716
1.18682
1.18645
1.18607
1.18566
1.18523
1.18477
1.1843
1.18383
1.18336
1.18291
1.18247
1.18208
1.18173
1.18143
1.18113
1.16368
1.16398
1.16428
1.16459
1.16491
1.16524
1.16558
1.16591
1.16624
1.16655
1.16684
1.1671
1.16731
1.16747
1.16759
1.16768
1.16774
1.16779
1.16782
1.16785
1.16788
1.16789
1.17916
1.17903
1.17889
1.17873
1.17857
1.17838
1.17819
1.17798
1.17776
1.17753
1.17731
1.17709
1.17687
1.17664
1.1764
1.17615
1.17591
1.17568
1.17546
1.17525
1.17506
1.17485
1.16884
1.16906
1.16928
1.1695
1.16973
1.16996
1.17019
1.17041
1.17061
1.17081
1.17099
1.17116
1.17129
1.17139
1.17147
1.17152
1.17154
1.17155
1.17153
1.1715
1.17145
1.17139
1.17473
1.17464
1.17455
1.17447
1.17438
1.1743
1.17423
1.17415
1.17408
1.17401
1.17393
1.17386
1.17379
1.17371
1.17364
1.17356
1.17348
1.17341
1.17333
1.17327
1.1732
1.17311
1.17086
1.17096
1.17106
1.17117
1.17128
1.17139
1.17151
1.17162
1.17173
1.17184
1.17194
1.17204
1.17212
1.17219
1.17225
1.17229
1.17232
1.17234
1.17235
1.17235
1.17235
1.17233
1.17294
1.17289
1.17284
1.1728
1.17275
1.17271
1.17268
1.17265
1.17262
1.1726
1.17259
1.17258
1.17258
1.17258
1.17258
1.17258
1.17258
1.17258
1.17257
1.17256
1.17256
1.17255
1.17159
1.17162
1.17166
1.1717
1.17174
1.17178
1.17183
1.17187
1.17192
1.17196
1.17201
1.17205
1.17209
1.17213
1.17217
1.1722
1.17223
1.17226
1.17228
1.1723
1.17232
1.17234
1.17234
1.17229
1.17226
1.17223
1.17221
1.17219
1.17217
1.17215
1.17214
1.17213
1.17213
1.17213
1.17214
1.17215
1.17216
1.17218
1.17219
1.17221
1.17223
1.17225
1.17226
1.1723
1.172
1.17199
1.17199
1.17199
1.17199
1.17199
1.172
1.172
1.172
1.17201
1.17201
1.17202
1.17203
1.17205
1.17206
1.17208
1.1721
1.17212
1.17214
1.17216
1.17218
1.17222
1.17232
1.17229
1.17226
1.17224
1.17221
1.17219
1.17216
1.17214
1.17213
1.17211
1.1721
1.17209
1.17208
1.17208
1.17208
1.17209
1.1721
1.17211
1.17213
1.17214
1.17216
1.1722
1.17233
1.17231
1.17229
1.17228
1.17227
1.17225
1.17223
1.17222
1.1722
1.17218
1.17217
1.17215
1.17214
1.17213
1.17213
1.17213
1.17213
1.17214
1.17215
1.17216
1.17217
1.17221
1.17252
1.17249
1.17247
1.17245
1.17243
1.1724
1.17238
1.17236
1.17233
1.17231
1.17229
1.17227
1.17225
1.17223
1.17222
1.17221
1.17221
1.17221
1.17221
1.17221
1.17222
1.17225
1.17261
1.17259
1.17258
1.17256
1.17255
1.17253
1.17251
1.17249
1.17246
1.17244
1.17242
1.17239
1.17237
1.17235
1.17234
1.17232
1.17231
1.17231
1.1723
1.1723
1.1723
1.17233
1.17274
1.17272
1.17271
1.1727
1.17268
1.17266
1.17264
1.17262
1.1726
1.17257
1.17255
1.17252
1.1725
1.17248
1.17246
1.17244
1.17243
1.17242
1.17241
1.1724
1.1724
1.17242
1.17284
1.17283
1.17282
1.17281
1.17279
1.17278
1.17276
1.17274
1.17272
1.1727
1.17268
1.17265
1.17263
1.17261
1.17259
1.17257
1.17255
1.17254
1.17252
1.17251
1.17251
1.17251
1.17293
1.17292
1.17291
1.17291
1.1729
1.17288
1.17287
1.17285
1.17283
1.17281
1.17279
1.17277
1.17275
1.17273
1.17271
1.17269
1.17267
1.17265
1.17264
1.17263
1.17261
1.17261
1.17301
1.173
1.173
1.17299
1.17299
1.17298
1.17296
1.17295
1.17294
1.17292
1.1729
1.17288
1.17286
1.17284
1.17282
1.1728
1.17278
1.17276
1.17274
1.17273
1.17272
1.17271
1.17308
1.17307
1.17307
1.17307
1.17307
1.17306
1.17305
1.17304
1.17303
1.17301
1.173
1.17298
1.17296
1.17294
1.17292
1.1729
1.17288
1.17286
1.17284
1.17283
1.17281
1.17279
1.17314
1.17313
1.17313
1.17314
1.17313
1.17313
1.17313
1.17312
1.17311
1.1731
1.17308
1.17307
1.17305
1.17303
1.17301
1.17299
1.17297
1.17295
1.17294
1.17292
1.1729
1.17288
1.17319
1.17319
1.17319
1.17319
1.1732
1.1732
1.17319
1.17319
1.17318
1.17318
1.17316
1.17315
1.17313
1.17312
1.1731
1.17308
1.17306
1.17304
1.17302
1.173
1.17299
1.17295
1.17324
1.17323
1.17324
1.17324
1.17325
1.17325
1.17325
1.17325
1.17325
1.17325
1.17324
1.17323
1.17321
1.1732
1.17318
1.17316
1.17314
1.17312
1.1731
1.17308
1.17306
1.17303
1.17328
1.17327
1.17328
1.17329
1.17329
1.1733
1.17331
1.17331
1.17331
1.17331
1.1733
1.1733
1.17329
1.17327
1.17326
1.17324
1.17322
1.1732
1.17318
1.17316
1.17314
1.1731
1.17331
1.1733
1.17331
1.17332
1.17333
1.17334
1.17335
1.17336
1.17336
1.17337
1.17336
1.17336
1.17335
1.17334
1.17333
1.17331
1.17329
1.17327
1.17325
1.17323
1.17321
1.17317
1.31961
1.32065
1.32138
1.32029
1.31854
1.31749
1.07063
1.07283
1.07472
1.07568
1.07536
1.07418
1.24698
1.24978
1.25207
1.25339
1.25333
1.25241
1.11887
1.12063
1.12243
1.12409
1.12592
1.12763
1.20102
1.20063
1.2004
1.20041
1.20063
1.20091
1.15669
1.15674
1.15679
1.15674
1.15659
1.15637
1.181
1.18097
1.18101
1.18108
1.18116
1.18125
1.16789
1.16775
1.16761
1.16746
1.16727
1.16702
1.17476
1.17466
1.17461
1.17457
1.17453
1.17446
1.17135
1.17121
1.1711
1.17099
1.17087
1.17072
1.17307
1.17299
1.17292
1.17286
1.1728
1.17273
1.17231
1.17226
1.17222
1.17217
1.17212
1.17206
1.17252
1.17251
1.17249
1.17247
1.17244
1.17242
1.17232
1.17233
1.17233
1.17232
1.17232
1.17233
1.17227
1.1723
1.17231
1.17232
1.17233
1.17236
1.17219
1.17224
1.17226
1.17228
1.1723
1.17234
1.17217
1.17222
1.17225
1.17227
1.17229
1.17235
1.17218
1.17223
1.17226
1.17229
1.17231
1.17237
1.17222
1.17228
1.1723
1.17233
1.17236
1.17242
1.1723
1.17235
1.17237
1.1724
1.17243
1.17248
1.17239
1.17244
1.17246
1.17248
1.17251
1.17255
1.1725
1.17253
1.17255
1.17258
1.1726
1.17263
1.1726
1.17263
1.17265
1.17267
1.17269
1.17271
1.17271
1.17273
1.17274
1.17276
1.17277
1.17278
1.1728
1.17281
1.17283
1.17284
1.17285
1.17285
1.17289
1.1729
1.17291
1.17292
1.17292
1.17292
1.17298
1.17297
1.17298
1.17299
1.17299
1.17298
1.17306
1.17305
1.17305
1.17306
1.17306
1.17304
1.17313
1.17312
1.17312
1.17313
1.17313
1.1731
1.1732
1.17319
1.17319
1.17319
1.17319
1.17316
1.31636
1.31484
1.31376
1.31256
1.31176
1.31102
1.31049
1.31008
1.30985
1.30961
1.30925
1.30857
1.30764
1.30669
1.30575
1.30466
1.30369
1.30282
1.30198
1.30118
1.3004
1.2997
1.07354
1.0731
1.07258
1.07217
1.07197
1.07208
1.07252
1.07321
1.07409
1.07494
1.07589
1.07671
1.07735
1.0779
1.07844
1.07895
1.07939
1.07976
1.08004
1.08029
1.08054
1.08072
1.25151
1.25056
1.24952
1.24855
1.24776
1.24711
1.24656
1.24612
1.24585
1.24575
1.24565
1.24559
1.2456
1.24557
1.24531
1.24479
1.2441
1.2433
1.24247
1.24166
1.24092
1.24032
1.12836
1.12854
1.12847
1.12832
1.12808
1.12787
1.12761
1.12741
1.12729
1.12712
1.12679
1.12629
1.12579
1.12533
1.12494
1.12472
1.12473
1.12499
1.12536
1.12584
1.12634
1.12676
1.20135
1.20186
1.2023
1.20272
1.20313
1.20355
1.20402
1.20457
1.20514
1.20564
1.20593
1.20595
1.20579
1.20557
1.20543
1.20545
1.20559
1.20573
1.20584
1.20593
1.20603
1.20612
1.156
1.15548
1.15493
1.15435
1.15371
1.15304
1.15234
1.15163
1.15089
1.1502
1.1496
1.14912
1.14865
1.14822
1.14786
1.14755
1.14729
1.14706
1.14684
1.14665
1.14651
1.14638
1.18151
1.1818
1.18209
1.18238
1.1827
1.18305
1.18344
1.18385
1.18428
1.18473
1.1852
1.18568
1.18619
1.1867
1.18718
1.18762
1.18798
1.18818
1.18829
1.18835
1.18837
1.18843
1.16674
1.16633
1.16595
1.16555
1.16515
1.16475
1.16436
1.16397
1.16359
1.16321
1.16283
1.16242
1.16198
1.16154
1.1611
1.16065
1.16024
1.15988
1.15959
1.15935
1.15914
1.15893
1.17451
1.17456
1.17464
1.17473
1.17485
1.17498
1.17513
1.17531
1.17552
1.17575
1.17599
1.17624
1.17651
1.17678
1.17705
1.17733
1.17761
1.17788
1.17815
1.1784
1.17866
1.17891
1.17061
1.17042
1.17025
1.17008
1.16991
1.16973
1.16956
1.16938
1.16919
1.169
1.16879
1.16858
1.16836
1.16813
1.16792
1.16771
1.1675
1.16731
1.16712
1.16695
1.16678
1.16661
1.17273
1.17272
1.17274
1.17276
1.1728
1.17284
1.1729
1.17297
1.17304
1.17314
1.17324
1.17336
1.17349
1.17363
1.17378
1.17393
1.17409
1.17425
1.1744
1.17454
1.17469
1.17484
1.17202
1.17197
1.17192
1.17188
1.17183
1.17177
1.17171
1.17165
1.17158
1.17151
1.17144
1.17135
1.17127
1.17118
1.17108
1.17099
1.17089
1.17079
1.1707
1.1706
1.1705
1.1704
1.1724
1.1724
1.17241
1.17242
1.17243
1.17245
1.17247
1.1725
1.17254
1.17258
1.17263
1.17269
1.17276
1.17283
1.1729
1.17297
1.17305
1.17313
1.1732
1.17327
1.17334
1.17341
1.1723
1.17231
1.17231
1.17231
1.17231
1.17232
1.17233
1.17233
1.17234
1.17235
1.17236
1.17236
1.17235
1.17234
1.17233
1.17231
1.17228
1.17225
1.17221
1.17217
1.17212
1.17206
1.17233
1.17236
1.17238
1.17239
1.17241
1.17244
1.17246
1.17249
1.17253
1.17256
1.1726
1.17264
1.17269
1.17272
1.17276
1.1728
1.17283
1.17286
1.17289
1.17291
1.17293
1.17295
1.17231
1.17235
1.17238
1.1724
1.17243
1.17246
1.17249
1.17252
1.17255
1.17258
1.17261
1.17264
1.17266
1.17268
1.17269
1.17269
1.17269
1.17268
1.17267
1.17265
1.17263
1.1726
1.17232
1.17237
1.17241
1.17244
1.17247
1.17251
1.17254
1.17258
1.17262
1.17266
1.17269
1.17273
1.17275
1.17278
1.1728
1.17281
1.17282
1.17283
1.17283
1.17283
1.17283
1.17283
1.17235
1.17241
1.17245
1.17248
1.17252
1.17256
1.1726
1.17264
1.17267
1.17271
1.17274
1.17277
1.17279
1.1728
1.17281
1.17281
1.17281
1.1728
1.1728
1.17279
1.17277
1.17276
1.1724
1.17246
1.1725
1.17254
1.17258
1.17262
1.17266
1.1727
1.17273
1.17276
1.17279
1.17281
1.17283
1.17284
1.17284
1.17284
1.17284
1.17284
1.17283
1.17283
1.17282
1.17282
1.17247
1.17253
1.17257
1.17261
1.17265
1.17269
1.17272
1.17275
1.17278
1.17281
1.17283
1.17284
1.17286
1.17286
1.17286
1.17286
1.17285
1.17285
1.17284
1.17283
1.17282
1.17282
1.17255
1.17261
1.17265
1.17268
1.17272
1.17275
1.17278
1.17281
1.17283
1.17285
1.17287
1.17288
1.17288
1.17289
1.17288
1.17288
1.17287
1.17287
1.17286
1.17285
1.17285
1.17285
1.17264
1.17269
1.17272
1.17276
1.17279
1.17281
1.17284
1.17286
1.17288
1.17289
1.1729
1.17291
1.17291
1.17291
1.17291
1.1729
1.1729
1.17289
1.17289
1.17288
1.17287
1.17289
1.17273
1.17277
1.1728
1.17282
1.17285
1.17287
1.17289
1.17291
1.17292
1.17293
1.17294
1.17294
1.17294
1.17294
1.17294
1.17293
1.17293
1.17293
1.17292
1.17292
1.17292
1.17293
1.17281
1.17284
1.17287
1.17289
1.17291
1.17293
1.17295
1.17296
1.17297
1.17298
1.17298
1.17298
1.17298
1.17298
1.17298
1.17298
1.17297
1.17297
1.17297
1.17297
1.17297
1.17299
1.17288
1.17291
1.17293
1.17295
1.17297
1.17298
1.173
1.17301
1.17301
1.17302
1.17302
1.17303
1.17303
1.17303
1.17303
1.17303
1.17303
1.17303
1.17303
1.17303
1.17304
1.17306
1.17296
1.17297
1.17299
1.17301
1.17302
1.17304
1.17305
1.17306
1.17306
1.17307
1.17307
1.17308
1.17308
1.17308
1.17308
1.17309
1.17309
1.17309
1.17309
1.1731
1.1731
1.17312
1.17302
1.17303
1.17305
1.17306
1.17308
1.17309
1.1731
1.17311
1.17312
1.17313
1.17313
1.17314
1.17314
1.17314
1.17315
1.17315
1.17316
1.17316
1.17316
1.17317
1.17317
1.17319
1.17309
1.17309
1.17311
1.17312
1.17314
1.17315
1.17316
1.17317
1.17318
1.17319
1.17319
1.1732
1.17321
1.17321
1.17322
1.17322
1.17322
1.17323
1.17323
1.17324
1.17324
1.17326
1.17315
1.17315
1.17317
1.17318
1.1732
1.17321
1.17322
1.17323
1.17324
1.17325
1.17326
1.17327
1.17328
1.17328
1.17329
1.17329
1.17329
1.1733
1.1733
1.1733
1.1733
1.17332
1.17321
1.17321
1.17323
1.17325
1.17326
1.17328
1.17329
1.1733
1.17331
1.17332
1.17333
1.17334
1.17334
1.17335
1.17335
1.17336
1.17336
1.17336
1.17336
1.17336
1.17336
1.17337
1.29938
1.29926
1.29918
1.29911
1.29907
1.29905
1.29905
1.29911
1.29919
1.29934
1.29958
1.29987
1.30021
1.30056
1.30091
1.30114
1.30135
1.30139
1.30132
1.30122
1.30123
1.3016
1.30236
1.30307
1.30365
1.30415
1.3046
1.30504
1.30544
1.30581
1.30613
1.30639
1.30658
1.30676
1.30652
1.08066
1.08067
1.08067
1.08067
1.08067
1.08068
1.0807
1.08075
1.0808
1.08092
1.08117
1.08154
1.08202
1.08262
1.08322
1.08371
1.08404
1.08411
1.08393
1.08354
1.08276
1.08148
1.08006
1.07966
1.07986
1.08053
1.08138
1.08224
1.08304
1.08381
1.0846
1.08544
1.0863
1.08697
1.08732
1.24
1.23968
1.2394
1.23919
1.23903
1.23894
1.23889
1.23893
1.23904
1.23919
1.23917
1.23894
1.23852
1.23775
1.23656
1.23498
1.23348
1.23237
1.23143
1.23065
1.22967
1.22767
1.22588
1.22514
1.22516
1.22559
1.22656
1.2277
1.22875
1.22959
1.23015
1.23047
1.23061
1.23063
1.23059
1.12703
1.12734
1.12766
1.128
1.12834
1.12867
1.12895
1.1292
1.12941
1.12942
1.12931
1.12921
1.12912
1.12908
1.12929
1.12954
1.12976
1.12996
1.13022
1.13053
1.13082
1.13101
1.1308
1.13054
1.13051
1.13085
1.13119
1.13137
1.13142
1.13138
1.1313
1.13118
1.13104
1.13087
1.1306
1.20619
1.20613
1.20608
1.20602
1.20594
1.20584
1.20569
1.20553
1.20537
1.20515
1.20483
1.20446
1.20407
1.2036
1.20308
1.2026
1.2022
1.20186
1.20159
1.20147
1.20139
1.20126
1.20096
1.20052
1.19998
1.19945
1.19886
1.19829
1.19776
1.1973
1.19691
1.19657
1.19627
1.19603
1.19582
1.14627
1.14629
1.1463
1.1463
1.1463
1.14631
1.14638
1.14649
1.14666
1.14687
1.14711
1.14737
1.14766
1.14798
1.1483
1.14859
1.14888
1.14922
1.14958
1.14999
1.15044
1.15094
1.15145
1.15185
1.15222
1.15267
1.15312
1.15349
1.15378
1.15397
1.15408
1.15412
1.1541
1.15405
1.15396
1.18839
1.18834
1.18824
1.18815
1.1881
1.18807
1.18803
1.188
1.18797
1.18793
1.18788
1.18783
1.18776
1.18767
1.1876
1.18755
1.18752
1.1875
1.18749
1.18746
1.18742
1.18737
1.1873
1.18721
1.18713
1.18705
1.187
1.18696
1.18692
1.1869
1.18688
1.18686
1.18685
1.18684
1.18682
1.15872
1.15871
1.1587
1.15869
1.15864
1.15857
1.15853
1.15853
1.15854
1.15856
1.15857
1.15863
1.15873
1.15888
1.15908
1.15931
1.15955
1.15977
1.15998
1.16017
1.16033
1.16047
1.16058
1.16067
1.16072
1.16075
1.16077
1.16078
1.16077
1.16076
1.16074
1.16072
1.1607
1.16068
1.16067
1.17908
1.17913
1.17918
1.17924
1.17928
1.17931
1.17931
1.17929
1.17924
1.17918
1.17916
1.17907
1.17891
1.17876
1.17861
1.17847
1.17836
1.17825
1.17817
1.17812
1.1781
1.17811
1.17815
1.1782
1.17825
1.1783
1.17834
1.17838
1.1784
1.17842
1.17843
1.17843
1.17844
1.17844
1.17845
1.16643
1.16639
1.16635
1.1663
1.16625
1.1662
1.16615
1.16611
1.16606
1.166
1.16593
1.16589
1.16589
1.16591
1.16601
1.16612
1.16622
1.16632
1.16643
1.16652
1.16661
1.16667
1.1667
1.16671
1.1667
1.16668
1.16666
1.16663
1.16661
1.16658
1.16656
1.16653
1.16651
1.16649
1.16647
1.17495
1.17497
1.17499
1.175
1.17501
1.17502
1.17502
1.17502
1.17501
1.17499
1.17495
1.1749
1.17484
1.17477
1.17459
1.17447
1.17436
1.17427
1.17419
1.17412
1.17407
1.17403
1.17404
1.17406
1.17408
1.17409
1.17411
1.17413
1.17414
1.17415
1.17415
1.17416
1.17416
1.17416
1.17416
1.17032
1.17029
1.17025
1.17021
1.17016
1.17011
1.17006
1.17001
1.16996
1.1699
1.16984
1.16978
1.16971
1.16964
1.16966
1.16968
1.16969
1.16971
1.16973
1.16974
1.16975
1.16976
1.16974
1.16972
1.16971
1.16969
1.16967
1.16965
1.16964
1.16962
1.16961
1.16959
1.16958
1.16956
1.16955
1.17347
1.17346
1.17345
1.17344
1.17342
1.17341
1.17339
1.17337
1.17334
1.1733
1.17327
1.17322
1.17317
1.17312
1.17306
1.17294
1.17286
1.17279
1.17273
1.17268
1.17264
1.17261
1.1726
1.1726
1.1726
1.1726
1.17261
1.17261
1.17262
1.17262
1.17262
1.17262
1.17262
1.17262
1.17262
1.17203
1.172
1.17197
1.17194
1.17192
1.17188
1.17185
1.17181
1.17176
1.17171
1.17165
1.17159
1.17152
1.17146
1.17138
1.17136
1.17132
1.17129
1.17127
1.17124
1.17122
1.17119
1.17116
1.17113
1.17111
1.17109
1.17108
1.17108
1.17107
1.17107
1.17107
1.17106
1.17105
1.17104
1.17103
1.17298
1.17297
1.17296
1.17295
1.17294
1.17292
1.1729
1.17287
1.17284
1.1728
1.17276
1.17272
1.17267
1.17262
1.17257
1.1725
1.17244
1.17239
1.17234
1.1723
1.17227
1.17224
1.17223
1.17222
1.17222
1.17222
1.17222
1.17222
1.17222
1.17222
1.17223
1.17223
1.17223
1.17223
1.17222
1.17259
1.17257
1.17256
1.17254
1.17252
1.1725
1.17248
1.17245
1.17242
1.17238
1.17234
1.17229
1.17224
1.17219
1.17213
1.17208
1.17204
1.172
1.17197
1.17193
1.1719
1.17187
1.17184
1.17182
1.1718
1.17179
1.17178
1.17178
1.17178
1.17178
1.17178
1.17178
1.17178
1.17177
1.17176
1.17284
1.17283
1.17282
1.17281
1.17279
1.17278
1.17276
1.17274
1.17271
1.17268
1.17265
1.17262
1.17258
1.17254
1.1725
1.17246
1.17242
1.17238
1.17235
1.17232
1.17229
1.17227
1.17225
1.17224
1.17223
1.17223
1.17223
1.17223
1.17224
1.17224
1.17224
1.17225
1.17225
1.17225
1.17224
1.17275
1.17273
1.17272
1.17271
1.1727
1.17268
1.17266
1.17265
1.17262
1.1726
1.17257
1.17254
1.17251
1.17247
1.17244
1.1724
1.17237
1.17234
1.17231
1.17228
1.17226
1.17223
1.17221
1.1722
1.17218
1.17218
1.17217
1.17217
1.17217
1.17217
1.17217
1.17217
1.17217
1.17217
1.17216
1.17281
1.1728
1.17279
1.17278
1.17277
1.17276
1.17274
1.17273
1.17271
1.17269
1.17267
1.17264
1.17262
1.17259
1.17257
1.17254
1.17252
1.17249
1.17247
1.17245
1.17243
1.17241
1.1724
1.17239
1.17239
1.17238
1.17239
1.17239
1.17239
1.1724
1.1724
1.1724
1.17241
1.17241
1.1724
1.17279
1.17279
1.17278
1.17277
1.17276
1.17275
1.17274
1.17273
1.17271
1.17269
1.17268
1.17266
1.17264
1.17262
1.1726
1.17258
1.17256
1.17254
1.17252
1.1725
1.17248
1.17247
1.17245
1.17244
1.17243
1.17243
1.17243
1.17243
1.17244
1.17244
1.17245
1.17245
1.17245
1.17245
1.17245
1.17282
1.17283
1.17282
1.17281
1.1728
1.17279
1.17278
1.17277
1.17276
1.17275
1.17273
1.17272
1.17271
1.17269
1.17268
1.17266
1.17265
1.17263
1.17262
1.1726
1.17259
1.17257
1.17256
1.17256
1.17255
1.17256
1.17256
1.17256
1.17257
1.17258
1.17258
1.17259
1.17259
1.17259
1.17258
1.17285
1.17286
1.17285
1.17284
1.17283
1.17283
1.17282
1.17281
1.1728
1.17279
1.17278
1.17277
1.17276
1.17275
1.17273
1.17272
1.17271
1.1727
1.17268
1.17267
1.17266
1.17264
1.17263
1.17263
1.17263
1.17263
1.17263
1.17264
1.17264
1.17265
1.17266
1.17266
1.17267
1.17267
1.17266
1.1729
1.17291
1.1729
1.17289
1.17289
1.17288
1.17287
1.17286
1.17285
1.17284
1.17284
1.17283
1.17282
1.17281
1.1728
1.17279
1.17278
1.17277
1.17276
1.17275
1.17273
1.17272
1.17272
1.17271
1.17271
1.17272
1.17272
1.17273
1.17274
1.17275
1.17275
1.17276
1.17276
1.17277
1.17276
1.17296
1.17296
1.17296
1.17295
1.17294
1.17294
1.17293
1.17292
1.17291
1.1729
1.1729
1.17289
1.17288
1.17287
1.17286
1.17285
1.17284
1.17283
1.17282
1.17281
1.1728
1.17279
1.17279
1.17278
1.17279
1.17279
1.17279
1.1728
1.17281
1.17282
1.17283
1.17283
1.17284
1.17284
1.17284
1.17302
1.17303
1.17302
1.17302
1.17301
1.173
1.17299
1.17298
1.17298
1.17297
1.17296
1.17295
1.17294
1.17294
1.17293
1.17292
1.17291
1.1729
1.17289
1.17288
1.17287
1.17286
1.17285
1.17285
1.17286
1.17286
1.17287
1.17288
1.17289
1.17289
1.1729
1.17291
1.17292
1.17292
1.17292
1.1731
1.1731
1.17309
1.17308
1.17308
1.17307
1.17306
1.17305
1.17304
1.17303
1.17302
1.17301
1.17301
1.173
1.17299
1.17298
1.17297
1.17295
1.17294
1.17293
1.17292
1.17292
1.17291
1.17291
1.17292
1.17292
1.17293
1.17294
1.17295
1.17296
1.17297
1.17298
1.17298
1.17299
1.17299
1.17317
1.17317
1.17316
1.17315
1.17314
1.17313
1.17312
1.17311
1.1731
1.17309
1.17308
1.17307
1.17306
1.17305
1.17304
1.17303
1.17302
1.17301
1.173
1.17299
1.17298
1.17297
1.17297
1.17297
1.17297
1.17298
1.17299
1.173
1.17301
1.17302
1.17303
1.17304
1.17305
1.17305
1.17305
1.17323
1.17323
1.17322
1.17321
1.1732
1.17319
1.17318
1.17317
1.17316
1.17315
1.17314
1.17313
1.17311
1.1731
1.17309
1.17308
1.17307
1.17305
1.17304
1.17303
1.17303
1.17302
1.17302
1.17302
1.17303
1.17303
1.17304
1.17305
1.17306
1.17307
1.17309
1.17309
1.1731
1.17311
1.17311
1.1733
1.17329
1.17328
1.17327
1.17326
1.17325
1.17324
1.17322
1.17321
1.1732
1.17319
1.17317
1.17316
1.17315
1.17313
1.17312
1.17311
1.1731
1.17309
1.17308
1.17307
1.17306
1.17306
1.17307
1.17307
1.17308
1.17309
1.1731
1.17311
1.17312
1.17314
1.17315
1.17315
1.17316
1.17316
1.17335
1.17335
1.17334
1.17332
1.17331
1.1733
1.17329
1.17327
1.17326
1.17324
1.17323
1.17321
1.1732
1.17319
1.17317
1.17316
1.17315
1.17313
1.17312
1.17311
1.17311
1.1731
1.1731
1.17311
1.17311
1.17312
1.17313
1.17314
1.17316
1.17317
1.17318
1.17319
1.1732
1.17321
1.17321
1.17313
1.17312
1.17312
1.17311
1.1731
1.17308
1.17307
1.17306
1.17305
1.17303
1.17302
1.17301
1.17301
1.17301
1.17301
1.17301
1.17301
1.17302
1.17303
1.17304
1.17306
1.17307
1.17309
1.17311
1.17313
1.17315
1.17317
1.17319
1.17321
1.17323
1.17325
1.17326
1.17328
1.17329
1.17328
1.17318
1.17318
1.17317
1.17316
1.17315
1.17314
1.17312
1.17311
1.17309
1.17308
1.17307
1.17306
1.17305
1.17305
1.17305
1.17305
1.17306
1.17306
1.17307
1.17308
1.17309
1.17311
1.17313
1.17314
1.17316
1.17318
1.1732
1.17322
1.17324
1.17325
1.17327
1.17329
1.1733
1.17331
1.17331
1.17323
1.17323
1.17322
1.17321
1.1732
1.17318
1.17317
1.17315
1.17314
1.17312
1.17311
1.1731
1.17309
1.17309
1.17309
1.17309
1.1731
1.1731
1.17311
1.17312
1.17313
1.17314
1.17315
1.17317
1.17319
1.17321
1.17322
1.17324
1.17326
1.17328
1.17329
1.17331
1.17332
1.17333
1.17332
1.17327
1.17327
1.17326
1.17325
1.17324
1.17322
1.17321
1.17319