/*--------------------------------*- C++ -*----------------------------------*\
  =========                 |
  \\      /  F ield         | OpenFOAM: The Open Source CFD Toolbox
   \\    /   O peration     | Website:  https://openfoam.org
    \\  /    A nd           | Version:  8
     \\/     M anipulation  |
\*---------------------------------------------------------------------------*/
FoamFile
{
    version     2.0;
    format      ascii;
    class       volScalarField;
    location    "0.1";
    object      nut;
}
// * * * * * * * * * * * * * * * * * * * * * * * * * * * * * * * * * * * * * //

dimensions      [0 2 -1 0 0 0 0];

internalField   nonuniform List<scalar> 
15677
(
0.000168252
0.000653024
0.000148416
0.00151375
0.000442449
0.000141509
0.00267554
0.000875773
0.000381134
0.000142378
0.00392136
0.00151884
0.000686589
0.000354231
0.000145459
0.00502436
0.002356
0.00114628
0.000585571
0.00034024
0.000151212
0.00584087
0.0033172
0.00178057
0.000947608
0.000529246
0.000332004
0.000157003
0.00633517
0.00429849
0.00256734
0.00146302
0.000820781
0.000492444
0.000326979
0.000162449
0.00656294
0.00518756
0.00345255
0.00213117
0.00125693
0.000737117
0.000467417
0.000324111
0.000167224
0.00665852
0.00589339
0.00435501
0.00292161
0.00184107
0.00111203
0.000677274
0.000450421
0.000322542
0.000171451
0.00670554
0.00633825
0.00518061
0.00377843
0.00255634
0.00163132
0.00100436
0.00063402
0.000438676
0.000321988
0.000175012
0.00671441
0.00655347
0.00584519
0.00462479
0.00336203
0.00228583
0.00147223
0.000924008
0.00060211
0.000430751
0.00032193
0.000178148
0.00670993
0.00666152
0.00629559
0.00537676
0.00419624
0.00304449
0.00207714
0.00134864
0.000862032
0.000578514
0.000425286
0.000322412
0.000180758
0.00670629
0.00669875
0.00652958
0.00596422
0.00498359
0.00385648
0.00279489
0.00191113
0.00125085
0.000813931
0.00056077
0.000421809
0.000323044
0.000183102
0.00670539
0.00670439
0.00664681
0.00635675
0.00564964
0.00465511
0.00358241
0.00259277
0.00177719
0.00117264
0.000776134
0.000547612
0.000419454
0.000323962
0.000185141
0.00670542
0.00670289
0.00668788
0.00656283
0.00614184
0.00536788
0.00438041
0.00335604
0.00242705
0.0016675
0.00110921
0.000746381
0.000537521
0.000418238
0.000324804
0.00018695
0.00670556
0.00670168
0.00669638
0.00665652
0.00644669
0.00593326
0.00512028
0.00414771
0.00316746
0.0022891
0.00157714
0.00105753
0.000722689
0.000530262
0.000417355
0.000325856
0.000188603
0.00670563
0.00670122
0.00669711
0.0066849
0.00660482
0.00632152
0.00573696
0.00490307
0.00394992
0.00300831
0.00217388
0.00150204
0.00101556
0.000704221
0.000524541
0.000417235
0.000326785
0.000190014
0.00670564
0.00670113
0.0066967
0.00669166
0.0066637
0.00654113
0.00618797
0.00555631
0.00471348
0.00378035
0.00287373
0.00207692
0.00143978
0.000981501
0.000689336
0.000520681
0.000417159
0.000327866
0.000191438
0.00670562
0.00670115
0.0066964
0.00669274
0.00668229
0.00663449
0.00646769
0.00605754
0.00539305
0.00454758
0.00363503
0.00275926
0.00199554
0.00138824
0.00095363
0.000677983
0.00051756
0.00041768
0.000328838
0.000192552
0.0067056
0.00670119
0.00669625
0.00669269
0.00668727
0.0066691
0.00659798
0.0063892
0.00593441
0.00524614
0.00440308
0.0035101
0.00266224
0.00192737
0.00134563
0.000931353
0.000668827
0.000515826
0.000418078
0.000329907
0.000193872
0.00670559
0.00670122
0.00669618
0.00669259
0.00668819
0.0066808
0.0066514
0.00655603
0.00631072
0.00581919
0.00511548
0.00427716
0.00340327
0.00258024
0.00187062
0.00131089
0.000913386
0.000662256
0.00051436
0.000418987
0.000330931
0.000194759
0.00670558
0.00670123
0.00669613
0.00669255
0.00668815
0.00668423
0.00667168
0.00663031
0.00651117
0.00623275
0.00571398
0.00499954
0.00416846
0.00331229
0.00251166
0.00182395
0.00128277
0.000899535
0.000657019
0.000514051
0.000419691
0.000331963
0.000196065
0.00670558
0.00670124
0.0066961
0.00669254
0.00668799
0.00668505
0.0066785
0.00666141
0.00660604
0.00646489
0.00615977
0.00561841
0.0048984
0.00407512
0.00323587
0.00245491
0.00178614
0.00126068
0.000888868
0.000653891
0.000513704
0.000420859
0.000333101
0.000196787
0.00670558
0.00670123
0.00669609
0.00669254
0.00668787
0.00668518
0.00668042
0.00667333
0.00664841
0.00658056
0.00641915
0.00609158
0.005534
0.00481045
0.00399628
0.00317235
0.00240915
0.0017566
0.00124395
0.000881381
0.00065143
0.000514412
0.00042176
0.000334007
0.000198093
0.00670558
0.00670123
0.00669608
0.00669253
0.0066878
0.00668515
0.00668078
0.00667747
0.00666573
0.00663542
0.00655388
0.00637553
0.00602992
0.00545903
0.00473593
0.00393093
0.00312171
0.0023734
0.00173414
0.00123165
0.000876216
0.00065092
0.000514861
0.000423184
0.000335452
0.000198783
0.00670559
0.00670122
0.00669608
0.00669252
0.00668777
0.00668511
0.00668074
0.00667874
0.00667213
0.00665963
0.00662038
0.00652835
0.00633513
0.00597393
0.0053964
0.00467458
0.00387872
0.00308132
0.00234629
0.00171863
0.00122445
0.000874004
0.000650582
0.000516378
0.000424106
0.000336202
5.33535e-05
0.0067056
0.00670121
0.00669608
0.0066925
0.00668775
0.00668506
0.00668065
0.00667902
0.00667419
0.00666954
0.00665076
0.00660728
0.00650411
0.006299
0.00592863
0.00534318
0.004624
0.00383736
0.00305361
0.00233003
0.00171068
0.00122113
0.000873331
0.000652179
0.000517495
0.000426492
0.000283597
6.3309e-05
0.0067056
0.0067012
0.00669609
0.00669248
0.00668774
0.00668502
0.00668058
0.00667901
0.00667471
0.00667324
0.00666359
0.00664551
0.0065932
0.00648261
0.00626804
0.00588659
0.00530224
0.00459059
0.00381403
0.00303771
0.00232113
0.0017074
0.00122058
0.000875143
0.000653821
0.000519583
0.000420058
0.000219467
7.06771e-05
0.00670561
0.00670119
0.00669609
0.00669246
0.00668774
0.00668498
0.00668054
0.00667893
0.00667476
0.00667442
0.00666857
0.0066628
0.00663695
0.00658364
0.00646611
0.00624134
0.00586355
0.00527817
0.00456842
0.00379722
0.00302856
0.00231824
0.00170874
0.00122429
0.000878231
0.000656175
0.000520805
0.000400179
0.000178019
7.61075e-05
0.00670562
0.00670118
0.0066961
0.00669245
0.00668774
0.00668494
0.00668051
0.00667883
0.0066747
0.00667464
0.00667029
0.00667
0.0066571
0.00663599
0.00657426
0.00645108
0.00623281
0.00584697
0.00526011
0.0045543
0.00378982
0.00302809
0.00232286
0.00171618
0.00123084
0.000882924
0.000659511
0.000518703
0.000367409
0.00015255
8.05051e-05
0.00670562
0.00670117
0.00669611
0.00669243
0.00668774
0.0066849
0.0066805
0.00667875
0.00667464
0.00667458
0.00667076
0.00667264
0.00666585
0.00666126
0.00662989
0.00657289
0.00645014
0.00622588
0.00583692
0.0052517
0.00455311
0.00379561
0.00303888
0.00233558
0.00172831
0.00124039
0.000889275
0.000662592
0.000512725
0.000336241
0.000134215
8.38912e-05
0.00670563
0.00670116
0.00669611
0.00669242
0.00668775
0.00668487
0.00668049
0.00667868
0.00667458
0.00667444
0.00667082
0.00667336
0.00666936
0.00667246
0.00665721
0.00663898
0.00657594
0.00645305
0.00622473
0.00583936
0.00526036
0.00456657
0.00381349
0.00305882
0.002355
0.00174492
0.00125279
0.000896784
0.000665404
0.000501409
0.000306143
0.000121257
8.62929e-05
0.00670563
0.00670116
0.00669612
0.0066924
0.00668775
0.00668485
0.00668048
0.00667862
0.00667454
0.00667431
0.00667076
0.00667341
0.00667055
0.00667695
0.00667029
0.00667254
0.00664474
0.00658469
0.00646198
0.00623866
0.00585783
0.00528246
0.00459296
0.00384233
0.00308758
0.00238097
0.00176558
0.00126777
0.000905422
0.000666718
0.000486148
0.000280095
0.000112764
8.80693e-05
0.00670564
0.00670115
0.00669613
0.00669239
0.00668776
0.00668482
0.00668047
0.00667856
0.0066745
0.00667419
0.00667068
0.00667327
0.00667086
0.0066784
0.00667608
0.00668815
0.00668014
0.00665749
0.00660242
0.00648458
0.00626632
0.00588999
0.00531876
0.00463206
0.00388216
0.00312497
0.00241294
0.00179019
0.00128507
0.000914822
0.000666946
0.000469347
0.000260324
0.000106995
8.94467e-05
0.00670114
0.00670565
0.00669614
0.00669237
0.00668777
0.0066848
0.00668047
0.00667851
0.00667447
0.00667408
0.0066706
0.00667308
0.00667088
0.0066787
0.00667829
0.00669516
0.00669727
0.00669561
0.00668146
0.00663177
0.00652013
0.00630793
0.00593731
0.00536925
0.00468418
0.00393261
0.00317053
0.00245092
0.00181833
0.0013045
0.000925893
0.000666038
0.000454453
0.000245134
0.000102949
9.05649e-05
0.00669614
0.00670115
0.00670567
0.00669236
0.00668777
0.00668477
0.00668047
0.00667847
0.00667445
0.00667399
0.00667053
0.0066729
0.0066708
0.0066786
0.00667901
0.00669792
0.00670514
0.00671468
0.00672387
0.00671564
0.00667391
0.00657011
0.00636541
0.00599982
0.00543452
0.00474894
0.00399362
0.00322423
0.00249422
0.00184993
0.00132862
0.000939307
0.00066467
0.000441657
0.000233352
0.000100068
9.15121e-05
0.00669235
0.00669617
0.00670117
0.00670568
0.00668778
0.00668475
0.00668048
0.00667843
0.00667443
0.00667391
0.00667047
0.00667273
0.0066707
0.00667839
0.0066792
0.00669886
0.00670842
0.00672377
0.00674577
0.00676166
0.00676301
0.0067306
0.00663639
0.00643976
0.00607933
0.00551501
0.00482678
0.0040648
0.00328523
0.00254289
0.00188845
0.0013574
0.000953406
0.000663743
0.000431174
0.000224034
9.79648e-05
9.23403e-05
0.00668779
0.00669237
0.00669623
0.00670118
0.0067057
0.00668473
0.00668048
0.00667839
0.00667442
0.00667384
0.00667041
0.00667259
0.00667059
0.00667815
0.00667918
0.00669911
0.00670968
0.00672781
0.00675668
0.00678631
0.0068131
0.0068251
0.00680405
0.00671988
0.00653214
0.00617554
0.00561098
0.00491677
0.00414564
0.00335364
0.00260211
0.00193593
0.00138768
0.000968355
0.000663517
0.0004224
0.000216571
9.64327e-05
9.30847e-05
0.00668472
0.00668784
0.00669242
0.0066963
0.0067012
0.00670572
0.00668049
0.00667836
0.00667441
0.00667378
0.00667037
0.00667247
0.00667049
0.00667793
0.00667911
0.00669909
0.00671015
0.0067296
0.00676194
0.00679933
0.0068407
0.00687901
0.006904
0.00689497
0.00682223
0.00664234
0.00628895
0.00572241
0.00501979
0.00423597
0.00343668
0.00267452
0.00198721
0.00141943
0.000983914
0.000664167
0.000415265
0.000210489
9.52843e-05
9.37632e-05
0.0066805
0.00668474
0.00668793
0.00669247
0.00669636
0.00670122
0.00670574
0.00667833
0.00667441
0.00667372
0.00667033
0.00667237
0.0066704
0.00667773
0.00667903
0.00669898
0.00671031
0.00673045
0.00676459
0.00680629
0.00685677
0.00691118
0.00696438
0.00700193
0.00700477
0.00694238
0.00677058
0.00641898
0.00584819
0.00513467
0.00434584
0.00353819
0.00275243
0.0020415
0.00145238
0.00100036
0.000665884
0.000409412
0.00020546
9.44428e-05
9.43919e-05
0.0066783
0.00668056
0.00668481
0.00668803
0.00669252
0.00669642
0.00670124
0.00670577
0.00667441
0.00667366
0.0066703
0.00667229
0.00667031
0.00667756
0.00667895
0.00669885
0.00671034
0.00673092
0.00676612
0.00681026
0.00686615
0.00693073
0.00700188
0.00707002
0.00712321
0.007137
0.00708206
0.00691551
0.00656418
0.00598691
0.00527558
0.00448067
0.00364712
0.00283499
0.00209835
0.00148627
0.00101712
0.000668785
0.000404655
0.000201184
9.37978e-05
9.4975e-05
0.00667442
0.00667832
0.00668068
0.00668488
0.00668813
0.00669258
0.00669649
0.00670126
0.00670579
0.00667361
0.00667028
0.00667221
0.00667023
0.00667743
0.00667887
0.00669872
0.00671033
0.00673122
0.00676713
0.0068129
0.0068722
0.00694322
0.00702653
0.00711416
0.00720014
0.00726727
0.0072939
0.00724453
0.00707672
0.00672339
0.00615492
0.00544507
0.00462608
0.00376322
0.00292125
0.00215716
0.00152097
0.00103391
0.000672102
0.000400855
0.000197588
9.33324e-05
9.55224e-05
0.00667356
0.00667448
0.00667839
0.0066808
0.00668496
0.00668824
0.00669263
0.00669656
0.00670128
0.00670581
0.00667027
0.00667213
0.00667015
0.00667734
0.00667879
0.00669859
0.0067103
0.00673144
0.0067679
0.00681491
0.00687665
0.00695204
0.00704394
0.00714541
0.00725329
0.00735532
0.00743774
0.00747399
0.00743037
0.00725887
0.00691224
0.00635354
0.00562475
0.00477905
0.00388462
0.00301039
0.00221734
0.00155646
0.00105059
0.000676099
0.000397897
0.00019446
9.2969e-05
9.60323e-05
0.00667026
0.00667356
0.0066746
0.00667846
0.00668093
0.00668503
0.00668834
0.00669269
0.00669663
0.0067013
0.00670583
0.00667206
0.00667009
0.00667727
0.00667869
0.00669848
0.00671028
0.00673162
0.00676854
0.00681658
0.00688024
0.00695903
0.00705736
0.00716922
0.00729391
0.00741996
0.00754017
0.00763447
0.00767895
0.0076374
0.00748421
0.00714493
0.00656229
0.00581141
0.00493639
0.00400893
0.00310149
0.00227839
0.00159231
0.00106733
0.000680582
0.00039549
0.000191792
9.2719e-05
9.65137e-05
0.00667199
0.00667029
0.00667359
0.00667473
0.00667853
0.00668107
0.00668511
0.00668846
0.00669274
0.00669671
0.00670132
0.00670585
0.00667005
0.00667721
0.00667858
0.0066984
0.00671026
0.00673179
0.00676909
0.00681805
0.0068833
0.00696502
0.0070686
0.0071886
0.00732732
0.00747282
0.00762019
0.00775459
0.00785994
0.00790895
0.00789111
0.00775895
0.00739832
0.00677949
0.00600026
0.00509596
0.00413514
0.00319353
0.00233978
0.00162826
0.00108384
0.000685508
0.000393707
0.000189434
9.252e-05
9.69615e-05
0.00667002
0.00667191
0.00667035
0.00667362
0.00667487
0.00667861
0.00668121
0.00668518
0.00668857
0.0066928
0.00669678
0.00670135
0.00670588
0.00667717
0.00667845
0.00669834
0.00671027
0.00673194
0.00676958
0.00681937
0.00688598
0.00697036
0.00707846
0.00720545
0.00735614
0.0075188
0.00768977
0.00785394
0.00800263
0.00811473
0.00819274
0.00820241
0.00805503
0.00766817
0.00700896
0.00619128
0.00525617
0.00426123
0.00328561
0.00240102
0.00166401
0.0011003
0.000690412
0.000392346
0.00018741
9.23981e-05
9.73852e-05
0.00667713
0.00666992
0.00667182
0.00667042
0.00667366
0.00667502
0.00667869
0.00668136
0.00668526
0.00668869
0.00669286
0.00669686
0.00670137
0.0067059
0.0066783
0.00669834
0.00671029
0.0067321
0.00677002
0.00682055
0.00688837
0.0069752
0.00708727
0.00722068
0.00738212
0.00755974
0.00775338
0.00794517
0.00812739
0.00828515
0.00843178
0.0085441
0.00854095
0.00836948
0.00794826
0.00724657
0.00638202
0.0054137
0.00438592
0.00337681
0.00246166
0.00169933
0.00111675
0.000695271
0.000391368
0.000185592
9.22984e-05
9.77778e-05
0.00667815
0.00667692
0.00666971
0.00667173
0.00667051
0.00667369
0.00667518
0.00667876
0.00668152
0.00668534
0.00668882
0.00669292
0.00669693
0.0067014
0.00670592
0.00669839
0.00671032
0.00673224
0.00677041
0.00682162
0.00689053
0.00697963
0.00709524
0.0072347
0.00740597
0.00759722
0.00781219
0.00803235
0.00824746
0.00844152
0.00864047
0.00882912
0.00893044
0.00890378
0.00869899
0.00823587
0.00748939
0.00657641
0.00556831
0.00450822
0.00346657
0.00252131
0.00173405
0.00113293
0.000700088
0.000390632
0.000184025
9.22542e-05
9.81502e-05
0.00669852
0.00667745
0.00667657
0.00666953
0.00667162
0.00667063
0.00667372
0.00667536
0.00667884
0.00668168
0.00668543
0.00668894
0.00669299
0.00669701
0.00670143
0.00670594
0.00671035
0.00673236
0.00677075
0.00682258
0.0068925
0.00698367
0.00710248
0.00724769
0.00742795
0.00763213
0.00786775
0.00811506
0.00836567
0.00859823
0.00884233
0.00909271
0.00927225
0.00934998
0.00928839
0.00904088
0.0085287
0.00773257
0.00677166
0.00571993
0.00462771
0.0035542
0.00257962
0.00176799
0.00114882
0.000704835
0.000390144
0.000182595
9.22155e-05
9.84933e-05
0.00671035
0.00669805
0.00667617
0.00667617
0.0066694
0.00667149
0.00667077
0.00667374
0.00667554
0.00667892
0.00668184
0.00668552
0.00668907
0.00669306
0.00669708
0.00670145
0.00670595
0.00673245
0.00677104
0.00682345
0.00689429
0.00698736
0.0071091
0.00725972
0.00744818
0.00766492
0.00792057
0.00819375
0.0084798
0.00875863
0.0090546
0.00936144
0.00960584
0.00976252
0.00980301
0.00969399
0.00939347
0.00882472
0.00797461
0.00696561
0.00586723
0.00474305
0.00363915
0.00263631
0.00180103
0.00116434
0.000709498
0.000389789
0.00018136
9.22189e-05
9.88197e-05
0.00673254
0.00670931
0.00669692
0.00667518
0.00667568
0.00666937
0.00667133
0.00667095
0.00667376
0.00667574
0.00667901
0.00668201
0.00668562
0.00668919
0.00669313
0.00669715
0.00670148
0.00670597
0.00677128
0.00682424
0.00689593
0.00699073
0.00711515
0.00727084
0.0074668
0.00769581
0.00797052
0.00826856
0.00859093
0.00892005
0.00927942
0.00965472
0.00996375
0.0101906
0.0103087
0.0102944
0.010122
0.00975616
0.00912259
0.00821428
0.00715699
0.00601168
0.00485383
0.00372105
0.00269116
0.00183303
0.00117942
0.000714056
0.000389602
0.000180218
9.22176e-05
9.91187e-05
0.00677149
0.00673091
0.00670713
0.00669531
0.00667453
0.00667507
0.00666942
0.00667115
0.00667116
0.00667378
0.00667595
0.0066791
0.00668218
0.00668572
0.0066893
0.0066932
0.00669721
0.00670151
0.00670598
0.00682496
0.00689744
0.00699381
0.00712069
0.00728106
0.00748394
0.00772484
0.00801736
0.00833977
0.00870013
0.00908199
0.0095062
0.0099737
0.0103788
0.0106866
0.0108764
0.0109284
0.0108323
0.0105748
0.0101289
0.00942139
0.00845071
0.00734384
0.00615326
0.00496015
0.00379971
0.00274398
0.00186392
0.00119401
0.00071849
0.00038948
0.000179231
9.22497e-05
9.9404e-05
0.00682567
0.00676874
0.00672746
0.00670496
0.00669337
0.00667423
0.00667431
0.00666958
0.00667094
0.00667138
0.0066738
0.00667615
0.0066792
0.00668234
0.00668582
0.00668941
0.00669327
0.00669727
0.00670154
0.006706
0.00689882
0.00699661
0.00712576
0.00729044
0.00749973
0.00775198
0.008061
0.00840778
0.00880724
0.00924183
0.00973008
0.010313
0.0108769
0.0113211
0.011594
0.0116977
0.0116369
0.0114222
0.0110539
0.0105114
0.00972038
0.00868317
0.00752522
0.00629104
0.00506204
0.003875
0.00279468
0.00189362
0.00120808
0.000722793
0.000389483
0.000178307
9.22717e-05
9.96318e-05
0.00690013
0.00682222
0.00676281
0.00672412
0.00670281
0.00669104
0.00667425
0.00667345
0.00666979
0.00667074
0.00667162
0.00667385
0.00667635
0.00667932
0.00668249
0.00668592
0.00668951
0.00669334
0.00669733
0.00670157
0.00670601
0.00699916
0.00713039
0.007299
0.00751425
0.00777719
0.00810156
0.00847283
0.00891098
0.00939645
0.00995268
0.010688
0.0114747
0.0121496
0.0125646
0.0127162
0.0126608
0.0124327
0.0120614
0.0115571
0.0109023
0.0100186
0.00891101
0.00770085
0.00642439
0.0051595
0.00394688
0.00284317
0.0019221
0.00122159
0.000726941
0.000389504
0.000177522
9.23121e-05
9.98231e-05
0.00700151
0.00689525
0.00681425
0.00675693
0.00672097
0.00670102
0.00668826
0.00667451
0.00667254
0.00667004
0.00667055
0.00667184
0.00667392
0.00667654
0.00667944
0.00668264
0.00668603
0.00668961
0.00669341
0.00669738
0.0067016
0.00670602
0.00713461
0.00730679
0.00752758
0.00780048
0.00813921
0.00853477
0.00900977
0.00954477
0.0101812
0.0111153
0.0121807
0.0131445
0.0138018
0.0140614
0.0140006
0.0137263
0.0132917
0.012737
0.0120781
0.0112988
0.010315
0.00913366
0.0078705
0.0065529
0.00525253
0.00401532
0.00288942
0.00194931
0.00123454
0.000730949
0.000389551
0.00017688
9.23412e-05
0.000100029
0.00713847
0.00699488
0.00688354
0.00680631
0.0067513
0.00671799
0.00669978
0.00668527
0.00667489
0.00667164
0.00667028
0.00667042
0.00667205
0.00667401
0.00667671
0.00667957
0.00668277
0.00668613
0.0066897
0.00669348
0.00669743
0.00670163
0.00670603
0.00731388
0.00753977
0.00782188
0.00817412
0.00859324
0.00910262
0.009688
0.0104227
0.0115953
0.0129642
0.0142223
0.0151433
0.0156232
0.0156463
0.015336
0.0148256
0.0141744
0.0134283
0.0126071
0.0116965
0.0106078
0.00935054
0.00803399
0.0066763
0.0053412
0.00408038
0.00293343
0.00197527
0.00124691
0.000734816
0.000389613
0.000176364
9.23866e-05
0.000100253
0.00732029
0.00712953
0.00697814
0.00687181
0.00679854
0.00674589
0.00671516
0.00669877
0.00668229
0.00667524
0.00667086
0.00667046
0.00667035
0.00667221
0.00667413
0.00667687
0.0066797
0.00668289
0.00668624
0.00668979
0.00669354
0.00669748
0.00670166
0.00670604
0.0075509
0.00784145
0.0082064
0.00864789
0.00918936
0.00982822
0.0106792
0.0121102
0.0137665
0.0152757
0.0164189
0.0171209
0.0173614
0.0171498
0.0166123
0.0158892
0.0150399
0.0141128
0.0131331
0.0120907
0.0108954
0.00956104
0.00819116
0.00679445
0.00542549
0.00414204
0.00297519
0.00199995
0.00125871
0.000738031
0.000389684
0.000175815
9.24314e-05
0.000100495
0.00756095
0.00730871
0.00710593
0.00696135
0.00686033
0.0067909
0.00674069
0.00671253
0.00669783
0.00667951
0.00667543
0.00667025
0.00667056
0.00667036
0.00667235
0.00667427
0.00667701
0.00667984
0.00668301
0.00668634
0.00668988
0.00669361
0.00669753
0.00670167
0.00670604
0.00785933
0.00823614
0.00869852
0.00927044
0.00996688
0.0109463
0.0126328
0.0145303
0.0162201
0.0175151
0.0183839
0.0188337
0.0188617
0.0184672
0.0177566
0.016867
0.0158549
0.0147706
0.0136452
0.0124763
0.0111758
0.0097646
0.00834193
0.0069073
0.00550567
0.00420021
0.00301473
0.00202339
0.00126844
0.000740794
0.00038977
0.000175241
9.24983e-05
0.00010076
0.00787533
0.00754591
0.00727606
0.00708225
0.00694489
0.00684911
0.00678333
0.00673582
0.00670999
0.00669687
0.00667718
0.00667532
0.00666987
0.00667055
0.00667044
0.00667246
0.00667442
0.00667714
0.00667997
0.00668313
0.00668645
0.00668996
0.00669368
0.00669756
0.00670167
0.00670604
0.00826349
0.00874512
0.00934656
0.0101041
0.011216
0.0131377
0.0152165
0.0170135
0.0183875
0.0193544
0.0199534
0.0201987
0.0200744
0.0195604
0.0187365
0.0177318
0.0165984
0.0153869
0.0141346
0.0128489
0.0114472
0.00996066
0.00848619
0.00701473
0.00558222
0.00425507
0.0030521
0.00204266
0.00127674
0.00074384
0.00038989
0.00017464
9.25636e-05
0.000101046
0.00828794
0.00785651
0.0075011
0.00724327
0.00705903
0.0069288
0.0068381
0.0067758
0.00673129
0.00670744
0.0066957
0.00667573
0.00667488
0.00666971
0.00667047
0.00667056
0.00667255
0.00667458
0.00667727
0.00668011
0.00668324
0.00668655
0.00669004
0.00669371
0.00669756
0.00670167
0.00670604
0.00878792
0.00941837
0.0102387
0.0114794
0.0136064
0.0158076
0.0176491
0.0190412
0.0200441
0.020727
0.0211236
0.0212293
0.0210115
0.0204331
0.0195483
0.0184753
0.0172603
0.0159526
0.0145949
0.0132048
0.0117081
0.0101488
0.00862389
0.00711666
0.00565509
0.00430679
0.00308272
0.00205903
0.00128586
0.000747228
0.000390035
0.000174006
9.26575e-05
0.000101359
0.00882596
0.00826428
0.00779584
0.00745613
0.00721105
0.00703633
0.00691307
0.00682731
0.00676834
0.00672693
0.00670483
0.00669361
0.00667502
0.00667416
0.00666973
0.00667035
0.00667072
0.00667263
0.00667474
0.00667739
0.00668024
0.00668334
0.00668665
0.00669008
0.00669371
0.00669756
0.00670167
0.00670604
0.00948628
0.010369
0.0117289
0.0140291
0.0163016
0.0181401
0.0195058
0.0204968
0.0212078
0.0216907
0.0219546
0.021976
0.0217104
0.0211093
0.0202042
0.0191011
0.0178389
0.0164638
0.0150221
0.0135414
0.0119574
0.0103285
0.00875501
0.00721323
0.00572427
0.0043491
0.00310866
0.00207698
0.0012959
0.000750966
0.000390224
0.000173346
9.27503e-05
0.000101696
0.00954801
0.00879675
0.00818222
0.00773488
0.0074119
0.00717952
0.00701415
0.0068977
0.00681679
0.00676102
0.00672273
0.00670228
0.0066909
0.00667486
0.00667331
0.00666984
0.00667022
0.00667088
0.00667271
0.00667489
0.00667751
0.00668037
0.00668345
0.0066867
0.00669008
0.00669371
0.00669756
0.00670167
0.00670604
0.0104933
0.0119631
0.0144029
0.0167059
0.0185087
0.0198184
0.020764
0.0214606
0.0219762
0.0223331
0.0225181
0.0224953
0.0222141
0.0216195
0.0207236
0.0196196
0.0183379
0.0169203
0.0154146
0.013857
0.0121939
0.0104997
0.0088796
0.0073046
0.00578117
0.00438491
0.00313702
0.00209668
0.00130696
0.000755144
0.000390451
0.000172649
9.2881e-05
0.000102065
0.0106049
0.00951146
0.00868531
0.00809992
0.00767483
0.00736858
0.00714869
0.0069925
0.00688273
0.00680664
0.00675377
0.00671887
0.00670003
0.00668769
0.00667502
0.00667244
0.00666999
0.00667011
0.00667104
0.0066728
0.00667505
0.00667762
0.0066805
0.0066835
0.0066867
0.00669008
0.00669371
0.00669756
0.00670167
0.00670603
0.0121828
0.0147272
0.0170322
0.0187783
0.0200142
0.0208928
0.0215452
0.0220527
0.0224499
0.0227343
0.0228776
0.0228375
0.0225623
0.0219938
0.0211276
0.0200438
0.018764
0.0173242
0.0157721
0.0141509
0.0124173
0.010662
0.00899771
0.00737955
0.0058295
0.00442404
0.00316805
0.0021183
0.00131917
0.000759756
0.000390735
0.000171929
9.30125e-05
0.000102462
0.0105637
0.012378
0.00934936
0.00857519
0.00801868
0.00761595
0.00732616
0.00711855
0.0069714
0.00686823
0.00679705
0.0067469
0.0067153
0.00669859
0.00668447
0.00667525
0.00667166
0.00667011
0.00667004
0.00667119
0.0066729
0.00667519
0.00667774
0.00668057
0.00668349
0.0066867
0.00669008
0.00669371
0.00669756
0.00670166
0.00670602
0.0150033
0.0172931
0.0189706
0.0201229
0.0209221
0.0215104
0.0219803
0.0223775
0.02271
0.0229574
0.0230832
0.0230437
0.0227888
0.0222593
0.0214362
0.0203873
0.0191252
0.0176793
0.0160957
0.0144229
0.0126273
0.0108156
0.00909468
0.00744313
0.00588248
0.00446683
0.00320202
0.00214208
0.00133265
0.000764898
0.000391078
0.000171167
9.31943e-05
0.000102896
0.0103156
0.0123388
0.0152281
0.00919367
0.00846696
0.00793885
0.00755824
0.00728466
0.00708917
0.0069509
0.00685427
0.00678782
0.00674044
0.00671205
0.00669743
0.00668154
0.0066754
0.00667103
0.0066702
0.00667001
0.00667132
0.006673
0.00667533
0.00667779
0.00668057
0.00668349
0.0066867
0.00669008
0.00669371
0.00669753
0.00670163
0.00670601
0.0175003
0.0191036
0.0201687
0.020882
0.0213942
0.0218058
0.0221725
0.022513
0.0228158
0.0230491
0.0231731
0.0231461
0.0229212
0.0224388
0.0216673
0.0206629
0.0194297
0.01799
0.0163873
0.0146736
0.012824
0.0109413
0.00917698
0.00751271
0.00594058
0.00451368
0.00323925
0.00216823
0.00134757
0.000770672
0.000391496
0.000170387
9.33809e-05
0.00010336
0.0100718
0.0119852
0.0151623
0.0176543
0.00904532
0.00836027
0.00786055
0.00750173
0.00724414
0.00706058
0.00693107
0.00684081
0.00677893
0.00673443
0.00670919
0.00669638
0.00667907
0.00667537
0.00667057
0.00667023
0.00667002
0.00667144
0.00667311
0.00667541
0.00667779
0.00668057
0.00668349
0.0066867
0.00669008
0.00669368
0.00669748
0.0067016
0.00670599
0.0191917
0.02017
0.0207954
0.0212247
0.0215644
0.0218782
0.022195
0.0225138
0.0228092
0.0230429
0.0231755
0.0231695
0.0229815
0.0225511
0.0218361
0.0208822
0.0196854
0.0182611
0.0166492
0.0149037
0.0129832
0.0110478
0.00926707
0.00758892
0.00600436
0.00456502
0.00328009
0.00219705
0.00136409
0.000777102
0.000391999
0.000169562
9.36344e-05
0.000103867
0.00984314
0.011602
0.0148086
0.0175556
0.0192372
0.00890202
0.00825506
0.00778385
0.00744647
0.00720469
0.00703286
0.00691191
0.0068279
0.00677053
0.0067291
0.00670657
0.00669529
0.00667732
0.00667511
0.00667028
0.00667021
0.00667007
0.00667155
0.00667317
0.00667541
0.00667778
0.00668057
0.00668349
0.0066867
0.00669004
0.00669361
0.00669743
0.00670157
0.00670598
0.0201402
0.0206792
0.0210228
0.0212821
0.0215268
0.0217953
0.0220976
0.0224172
0.022719
0.0229625
0.0231115
0.0231332
0.0229869
0.0226115
0.0219554
0.0210551
0.0198994
0.0184971
0.0168838
0.0150865
0.013117
0.0111639
0.00936572
0.00767247
0.00607445
0.00462135
0.00332495
0.00222883
0.00138242
0.000784274
0.0003926
0.000168726
9.3901e-05
0.000104404
0.00962916
0.0112244
0.0143674
0.0173258
0.0190859
0.0200796
0.00876203
0.00815158
0.0077089
0.0073926
0.0071664
0.00700605
0.00689357
0.00681584
0.00676274
0.00672453
0.00670407
0.00669373
0.0066763
0.00667464
0.00667014
0.00667016
0.00667015
0.00667159
0.00667316
0.00667541
0.00667778
0.00668057
0.0066835
0.00668665
0.00668996
0.00669354
0.00669738
0.00670154
0.00670597
0.0205451
0.0208036
0.0209781
0.0211429
0.021344
0.0216028
0.0219138
0.0222483
0.0225651
0.0228249
0.0229967
0.0230519
0.0229512
0.0226323
0.0220357
0.02119
0.0200782
0.0187023
0.0170656
0.0152383
0.0132617
0.0112906
0.00947379
0.00776414
0.00615153
0.00468324
0.00337427
0.00226392
0.00140278
0.000792328
0.000393327
0.000167841
9.42571e-05
0.000104992
0.00942683
0.0108655
0.0138793
0.0170094
0.0189295
0.0198736
0.0203886
0.00862476
0.00805013
0.00763586
0.00734023
0.00712936
0.00698038
0.00687649
0.00680478
0.00675543
0.00672044
0.00670173
0.00669158
0.00667582
0.00667403
0.00667011
0.00667009
0.00667022
0.00667157
0.00667316
0.00667541
0.00667779
0.00668057
0.00668345
0.00668655
0.00668988
0.00669347
0.00669732
0.00670151
0.00670595
0.0205773
0.0206662
0.0207445
0.0208645
0.0210577
0.0213312
0.021666
0.0220236
0.0223608
0.0226425
0.0228433
0.0229372
0.022885
0.0226232
0.0220854
0.0212942
0.0202272
0.0188565
0.0172144
0.0154
0.013418
0.0114286
0.0095922
0.0078648
0.00623638
0.00475131
0.00342857
0.0023027
0.00142544
0.000801344
0.000394181
0.000166945
9.46407e-05
0.000105605
0.00923364
0.0105296
0.0133659
0.0166312
0.0187028
0.0197506
0.0201279
0.0203339
0.00849026
0.00795104
0.00756492
0.00728954
0.00709391
0.00695652
0.00686091
0.00679469
0.00674868
0.00671685
0.00669972
0.00668899
0.00667568
0.00667336
0.00667016
0.00666999
0.00667024
0.00667156
0.00667316
0.00667541
0.00667779
0.0066805
0.00668334
0.00668644
0.00668979
0.0066934
0.00669727
0.00670148
0.00670594
0.0203558
0.0203454
0.0203748
0.0204853
0.0206962
0.0210012
0.0213685
0.0217537
0.0221154
0.0224247
0.0226606
0.0227982
0.0227969
0.0225919
0.0221114
0.0213734
0.0203338
0.0189806
0.0173704
0.0155719
0.0135864
0.011579
0.00972194
0.00797542
0.00632986
0.00482631
0.00348844
0.00234564
0.00145067
0.000811493
0.000395222
0.000165964
9.51403e-05
0.000106393
0.00904796
0.0102181
0.0128381
0.0162032
0.0184321
0.0195703
0.0200076
0.0200178
0.020031
0.00835888
0.00785467
0.00749629
0.007241
0.00706098
0.00693479
0.00684673
0.0067856
0.00674247
0.00671373
0.00669838
0.00668635
0.00667571
0.00667271
0.0066703
0.00666988
0.00667026
0.00667156
0.00667316
0.00667541
0.00667774
0.00668037
0.00668323
0.00668634
0.0066897
0.00669334
0.00669721
0.00670145
0.00670592
0.0199543
0.0198888
0.0199043
0.020032
0.0202797
0.020626
0.02103
0.0214453
0.0218357
0.0221788
0.0224565
0.0226423
0.0226936
0.0225443
0.0221192
0.0214232
0.0204177
0.0191078
0.0175329
0.0157539
0.0137674
0.0117425
0.00986406
0.00809704
0.00643294
0.00490903
0.00355452
0.00239323
0.00147885
0.000822904
0.000396428
0.000164989
9.58014e-05
0.000107321
0.00886901
0.00993058
0.0123043
0.0157266
0.01813
0.0193615
0.0198386
0.019881
0.0196586
0.019555
0.00823086
0.00776145
0.00743061
0.00719595
0.00703103
0.00691502
0.00683386
0.00677746
0.00673688
0.00671091
0.00669728
0.00668389
0.00667583
0.00667217
0.00667044
0.00666982
0.00667026
0.00667157
0.00667317
0.00667533
0.00667762
0.00668024
0.00668312
0.00668623
0.00668961
0.00669327
0.00669714
0.00670143
0.0067059
0.0194156
0.0193295
0.019358
0.0195248
0.0198203
0.0202128
0.0206551
0.0211025
0.0215268
0.0219112
0.0222373
0.0224752
0.02258
0.0224853
0.022112
0.0214601
0.0205005
0.0192371
0.0177014
0.0159457
0.0139613
0.01192
0.0100196
0.00823079
0.0065467
0.00500045
0.00362763
0.00244609
0.00151033
0.000835777
0.000397919