/*--------------------------------*- C++ -*----------------------------------*\
  =========                 |
  \\      /  F ield         | OpenFOAM: The Open Source CFD Toolbox
   \\    /   O peration     | Website:  https://openfoam.org
    \\  /    A nd           | Version:  8
     \\/     M anipulation  |
\*---------------------------------------------------------------------------*/
FoamFile
{
    version     2.0;
    format      ascii;
    class       volScalarField;
    location    "0.23";
    object      epsilon;
}
// * * * * * * * * * * * * * * * * * * * * * * * * * * * * * * * * * * * * * //

dimensions      [0 2 -3 0 0 0 0];

internalField   nonuniform List<scalar> 
15677
(
1.04458e+06
175135
117676
97750.5
80006.7
62810.2
49022.1
41239.9
39239.6
42646.4
51182.6
63314.9
76124.6
83732.8
84422.8
81099.6
78620.9
77439.2
74378
70347.3
65209.3
60529.4
56789.8
53840.2
51530.6
49844.6
48782.5
48270.2
48185.7
48353
48716.9
49179.1
49668.8
50157.2
50639
5.39434e+06
1.53803e+06
871291
617314
480945
394765
339962
312461
306810
326304
369440
406994
395756
306093
225685
175413
138672
117204
104177
95766.3
90185.1
86624
84564.8
85164.6
87033.9
88951.3
90203.4
90885.3
91096.6
90902.7
90307.4
89317.3
88109
86832.8
85581.8
3.27491e+06
1.24092e+06
828264
674787
615286
610771
650645
728619
826359
928973
994182
933017
719094
476556
319741
226319
157993
109720
77623
63844.2
59823
60988.4
64930.7
69873.8
74554.4
78714.4
82391.3
85656.7
88567.6
91151
93412
95340.8
96923.1
98155.6
99077.8
1.64534e+06
748125
579555
519881
493799
487187
493099
508488
525295
530077
512613
454355
371567
290569
220643
163553
120492
90780.1
71929.2
61201.9
56674.9
57563.7
62175.5
70548.6
78524.6
84233.8
88052.9
91026.1
93448.2
95290.8
96477.6
97014.8
96973
96461.8
95540.3
530404
275081
240777
241666
258030
289961
337334
378498
391868
362075
271544
163147
90219.4
55302.2
39271
31439.4
28075.9
27933.2
30435.7
35422
42862.5
52157.3
61740.1
70822
78730
84600.5
87336.8
87226.9
84473.2
80379
76695.6
73700.4
71292.6
69314.2
67656
153566
86142.6
76820
76739.1
78813.1
82382.4
85595.3
86017.5
81579.3
68634.4
55880.9
49291.4
44963.5
37109.1
27789.9
22296.6
20594.1
21427.7
24021
27926.4
32500.3
36802.4
40146.4
42460.1
43928.3
44749.2
45101.9
45165
44963.6
44569.7
44121.5
43692.4
43296.7
42941.1
42629.7
75891.4
46416.9
45766
50074.1
56645.9
59414.3
56567.5
47490
35145.1
25838.2
19874.9
16286.7
14332.8
13491.7
13677
14753.2
16587.5
18750
21030.4
23355.3
25760.1
28216.5
30449
32151.1
33120.3
33429.6
33268.4
32826.8
32360.3
31947.9
31610.4
31342.3
31130
30959.9
30825.2
19144.6
12261.4
11356.9
11521.6
12037.9
11866.6
10632.3
9775.99
9694.76
10021.8
10214.8
10112.4
9929.93
9940.16
10400.3
11348
12739.4
14430
16276.8
18105.8
19702.2
20851.3
21587.9
22059.1
22391.3
22619.4
22762.1
22841.4
22881.1
22899.9
22909.5
22915.4
22920.7
22925.8
22932.2
55969.3
17531.2
10694.8
8087.41
6732.08
5961.88
5528.98
5317.11
5267.47
5321.16
5475.14
5760.71
6228.5
6951.29
7918.11
9001.56
10172.9
11389.5
12618.9
13834.2
15019.9
16064.6
16872.4
17449.9
17828.4
18051.1
18156.3
18181.2
18184.1
18185.9
18192.2
18199.4
18204.9
18208.2
18208.7
37950.8
13963.8
9146.5
7130.94
6017.32
5324.72
4875.43
4592.51
4441.36
4406.62
4492.38
4710.3
5083.46
5649.14
6384.34
7211.67
8122.63
9089.44
10065.5
10986.3
11805.5
12505.5
13076.1
13529.5
13880.5
14146.1
14340.8
14479.3
14576
14644.4
14692.9
14727.2
14751.6
14769.2
14781.8
41723.2
14563.9
9379.37
7234.49
6027.98
5247.9
4712.66
4344.27
4107.16
3986.77
3979.48
4093.51
4342.92
4747.17
5276.09
5868.22
6518.19
7208.95
7925.95
8646.09
9338.53
9948.02
10441
10828.1
11125.8
11349
11511
11624.7
11710.8
11779.1
11834.6
11880.1
11917.5
11948
11972.3
29412.7
10853.1
7071.51
5488.05
4615.12
4070.59
3713.21
3480.48
3344.37
3291.61
3316.74
3426.52
3633.31
3953.78
4366.38
4826.88
5328.73
5850.38
6375.62
6892.36
7391.9
7849.13
8228.3
8538.27
8788.55
8988.89
9148.57
9275.93
9378.18
9460.96
9528.58
9584.31
9630.67
9669.55
9702.45
27458.7
10053.3
6575.63
5108.9
4282.13
3751.91
3393.02
3149.86
2995.77
2918.25
2910.33
2973.29
3112.35
3336.41
3628.29
3956.16
4319.74
4708.22
5109.48
5510.72
5901.11
6259.52
6562.71
6814.84
7022.32
7191.5
7328.2
7437.55
7526.35
7600.44
7663.24
7716.97
7763.2
7803.13
7837.65
21856.2
8174.34
5347.45
4154.43
3494.05
3081.24
2809.7
2631.55
2523.51
2474.26
2476.88
2534.18
2650.58
2832.13
3061.55
3312.13
3583.39
3868.76
4161.41
4458.04
4755.32
5030.55
5268.42
5470.19
5639.87
5781.84
5900.41
5999.55
6082.84
6153.26
6213.2
6264.61
6309
6347.62
6381.44
19068.6
7231.36
4795.06
3754.09
3165.84
2789.71
2536.39
2365.44
2256.53
2199.35
2187.92
2221.34
2301.98
2434.4
2606.61
2797.52
3005.17
3224.29
3450.53
3679.41
3909.09
4123.6
4311.4
4472.86
4610.68
4727.75
4826.85
4910.52
4981
5040.58
5091.88
5136.54
5175.73
5210.33
5240.99
16726
6329.56
4165.49
3247.17
2736.75
2416.45
2204.49
2063.53
1974.88
1929.24
1920.91
1949.02
2014.58
2120.01
2255.57
2404.95
2565.48
2734.64
2909.56
3089.17
3268.86
3438.61
3588.61
3718.83
3831.17
3927.71
4010.54
4081.64
4142.81
4195.64
4241.5
4281.52
4316.64
4347.62
4375.3
14204.4
5541.45
3719
2931.09
2483.56
2196.87
2003.5
1872.39
1787.59
1740.69
1726.89
1744.28
1793.16
1874.9
1981.12
2098.52
2226.09
2361.04
2500.96
2643.89
2787.75
2924.39
3045.98
3152.44
3245.14
3325.6
3395.33
3455.7
3508
3553.32
3592.65
3627.07
3657.49
3684.55
3708.73
13607
5147.66
3389.01
2643.72
2229.4
1968.95
1795.88
1679.7
1604.86
1563.42
1550.62
1564.28
1604.58
1672.25
1759.44
1855.05
1958.82
2068.65
2182.73
2299.44
2417.29
2529.7
2630.24
2718.75
2796.3
2864.04
2923.14
2974.69
3019.69
3059.06
3093.58
3123.95
3150.76
3174.55
3195.83
11188.8
4443.1
3006.14
2381.98
2027.21
1799.88
1646.22
1541.32
1472.26
1432.2
1417.23
1425.25
1456.11
1510.28
1581.58
1660.6
1746.68
1837.9
1932.76
2029.93
2128.25
2222.32
2306.8
2381.54
2447.39
2505.26
2556.05
2600.62
2639.75
2674.14
2704.4
2731.08
2754.68
2775.6
2794.16
11150.2
4262.78
2825.29
2213.45
1871.72
1655.83
1511.48
1413.64
1349.43
1312.02
1297.4
1303.19
1329.05
1374.87
1435.03
1501.79
1574.56
1651.74
1732.06
1814.45
1897.94
1978.02
2050.14
2114.17
2170.77
2220.69
2264.65
2303.35
2337.43
2367.45
2393.93
2417.31
2438.01
2456.34
2472.63
9822.59
3856.49
2592.16
2046.45
1737.69
1540.28
1406.8
1315.31
1254.37
1217.76
1201.95
1204.63
1225.12
1263.14
1314.16
1371.17
1433.49
1499.69
1568.65
1639.45
1711.31
1780.36
1842.71
1898.2
1947.41
1990.94
2029.38
2063.31
2093.25
2119.68
2143.03
2163.68
2181.95
2198.15
2212.52
9651.18
3704.2
2460.18
1929.49
1632.17
1443.67
1317.06
1230.56
1172.77
1137.44
1120.95
1120.96
1137
1168.92
1212.7
1261.98
1316.02
1373.51
1433.46
1495.06
1557.65
1617.9
1672.39
1721
1764.19
1802.47
1836.35
1866.3
1892.78
1916.18
1936.89
1955.21
1971.44
1985.84
1998.62
8932.54
3465.24
2313.94
1819.38
1540.53
1362.69
1242.52
1159.88
1104.01
1068.97
1051.52
1049.42
1061.97
1089
1126.92
1169.94
1217.28
1267.72
1320.37
1374.52
1429.59
1482.67
1530.75
1573.72
1611.97
1645.94
1676.05
1702.72
1726.34
1747.25
1765.76
1782.17
1796.71
1809.61
1821.08
8669.69
3325.71
2208.87
1732.27
1464.66
1294.19
1178.74
1098.89
1044.44
1009.74
991.592
987.834
997.602
1020.68
1053.82
1091.72
1133.58
1178.25
1224.93
1272.97
1321.86
1369.05
1411.86
1450.18
1484.35
1514.75
1541.75
1565.7
1586.95
1605.78
1622.48
1637.3
1650.45
1662.12
1672.5
8217.83
3164.81
2105.19
1651.79
1396.41
1233.25
1122.41
1045.39
992.496
958.282
939.683
934.641
942.168
962.005
991.205
1024.88
1062.2
1102.11
1143.85
1186.84
1230.64
1272.96
1311.41
1345.89
1376.7
1404.16
1428.6
1450.32
1469.62
1486.77
1502
1515.52
1527.54
1538.23
1547.74
7962.56
3048.78
2021.97
1583.74
1337.33
1179.97
1073
998.484
947.041
913.377
894.518
888.488
894.204
911.385
937.329
967.501
1001.07
1037.03
1074.67
1113.48
1153.06
1191.36
1226.22
1257.54
1285.58
1310.64
1333
1352.92
1370.66
1386.45
1400.51
1413.02
1424.16
1434.08
1442.91
7663.34
2933.2
1944.46
1522.35
1284.83
1132.99
1029.59
957.368
907.268
874.156
855.145
848.337
852.578
867.565
890.81
918.074
948.523
981.205
1015.46
1050.82
1086.92
1121.91
1153.82
1182.57
1208.38
1231.52
1252.21
1270.71
1287.23
1301.98
1315.14
1326.89
1337.37
1346.73
1355.09
7444.83
2839.41
1878.65
1469.17
1238.94
1091.76
991.46
921.265
872.378
839.806
820.722
813.304
816.34
829.516
850.524
875.378
903.245
933.219
964.683
997.199
1030.45
1062.75
1092.29
1118.98
1143.03
1164.65
1184.07
1201.49
1217.1
1231.09
1243.62
1254.84
1264.89
1273.88
1281.93
7232.51
2753.6
1819.82
1422.05
1198.43
1055.43
957.882
889.491
841.699
809.64
790.539
782.643
784.697
796.38
815.54
838.404
864.145
891.898
921.08
951.29
982.248
1012.39
1040.05
1065.14
1087.82
1108.31
1126.8
1143.45
1158.45
1171.95
1184.09
1195
1204.81
1213.62
1221.54
7059.9
2680.36
1768.6
1380.69
1162.74
1023.37
928.24
861.451
814.645
783.068
763.993
755.727
756.981
767.438
785.078
806.31
830.315
856.265
883.609
911.975
941.117
969.584
995.803
1019.68
1041.38
1061.07
1078.93
1095.11
1109.76
1123
1134.97
1145.79
1155.55
1164.37
1172.32
51223.3
51986.3
52648
53128.5
53405.4
53440.3
53184.3
52546.5
51387.8
49582.1
47043.5
43773.2
39952.5
35831.9
31667.3
27661.8
23967.6
20688.7
17886.8
15587.7
13794.4
12496.6
83883.5
81763.2
79651.4
77554.2
75478
73427.9
71404.2
69399.6
67398.2
65377.6
63314.3
61209.5
59132.3
57170.7
55424.1
54060.7
53322
53450
54504.4
56919.3
60632.6
65083.7
99983.5
100316
99032.6
96320.1
92615.1
88402.5
84106.4
80040.1
76402.4
73295.4
70744.4
68723.5
67176.9
66034.4
65261.9
64883.4
64897.8
65369.5
66333.1
67800.7
69746
72102.5
94064.9
91708.9
88871.3
85620.7
82070
78391.6
74779.6
71403.8
68406.3
65881.4
63875.7
62415.8
61508.2
61101
61103.1
61482.5
62205.4
63247.8
64598.4
66252.3
68202.2
70425.2
65990.1
64263.3
62606.6
61035.8
59565.4
58216.2
57017.3
56005.2
55206.6
54647.7
54363.8
54344.3
54596.4
55083.1
55771
56632.1
57651.1
58817.9
60109.4
61492.2
62933
64404.2
42483.9
42462.7
42423
42381.8
42355.4
42360.5
42416.2
42540.3
42749.4
43056.5
43473.8
44006.2
44639
45349.7
46126.9
46959.2
47825
48700.1
49565.8
50409.6
51225.8
52011.3
30822.7
30971.3
31144.5
31343
31568.3
31824
32114.8
32446.3
32824.5
33254.8
33742.3
34286.5
34871
35474.7
36088.4
36703.3
37310.7
37902.7
38472.2
39013.4
39522.2
39995.8
23058.2
23312.7
23576.2
23850.4
24137
24437.5
24753.2
25085
25433.5
25801.7
26190.8
26596.7
27006.8
27411.2
27808.8
28197.8
28576
28941.8
29294.5
29633.4
29958.9
30269.8
18296.1
18481.9
18675.3
18876.1
19084.6
19301.2
19526.5
19761.2
20005.8
20261.3
20528.3
20805.3
21083.8
21364.3
21642.1
21913.8
22175.1
22425.6
22665.5
22894.9
23114
23322.1
14872.7
15047.7
15224.9
15404
15585.1
15768.3
15953.9
16141.6
16331.4
16522.9
16715.4
16906.6
17092.4
17273.3
17449.7
17621.4
17788.2
17949.9
18106.8
18259.2
18407.6
18551.4
12072.4
12252.1
12431.2
12609.6
12787
12963.5
13139
13313.5
13486.9
13659.2
13830.7
14000
14163
14318
14465.6
14605.7
14738.9
14865.9
14987.3
15103.6
15215.5
15323
9807.91
9990.03
10172.5
10354.6
10535.7
10715.3
10892.8
11067.6
11239.2
11407.9
11574
11736.5
11891.1
12035.7
12171.4
12298.9
12419
12532.4
12639.8
12741.9
12839.3
12932.1
7939.46
8113.29
8288.71
8465.17
8642.23
8819.47
8996.41
9172.56
9347.38
9520.43
9691.36
9858.72
10018.1
10166.8
10306
10436.3
10558.5
10673.4
10781.6
10883.8
10980.4
11071.7
6474.99
6633.47
6795.03
6959.05
7125
7292.29
7460.51
7629.52
7799.03
7968.59
8137.64
8304.43
8464.21
8614.18
8754.98
8887.27
9011.65
9128.74
9239.06
9343.02
9441.08
9533.48
5323.78
5463.93
5607.81
5755.15
5905.78
6059.48
6216.01
6375.11
6536.54
6700.07
6865.24
7030.17
7189.82
7340.86
7483.52
7618.13
7745.09
7864.78
7977.61
8084.08
8184.69
8279.73
4447.25
4568.55
4694.03
4823.47
4956.69
5093.52
5233.97
5378.06
5525.72
5676.46
5829.58
5983.63
6134.04
6277.66
6414.6
6544.99
6669.03
6786.94
6898.97
7005.39
7106.49
7202.45
3770.9
3875.78
3984.74
4097.79
4215.05
4336.36
4461.33
4589.92
4722.1
4857.81
4996.81
5137.81
5276.65
5410.31
5538.79
5662.09
5780.29
5893.48
6001.8
6105.38
6204.39
6298.95
3249.33
3339.34
3433.27
3531.13
3632.99
3738.86
3848.7
3962.44
4080.01
4201.34
4326.33
4453.9
4580.34
4702.88
4821.44
4935.98
5046.48
5152.97
5255.48
5354.09
5448.86
5539.86
2840.54
2918.57
3000.12
3085.29
3174.17
3266.84
3363.34
3463.71
3567.94
3676.01
3787.89
3902.67
4017.05
4128.5
4236.91
4342.2
4444.32
4543.24
4638.95
4731.47
4820.83
4907.04
2513.33
2581.82
2653.46
2728.36
2806.64
2888.39
2973.72
3062.7
3155.38
3251.82
3352.02
3455.23
3558.51
3659.58
3758.3
3854.6
3948.39
4039.62
4128.25
4214.28
4297.7
4378.5
2248.51
2309.13
2372.61
2439.06
2508.59
2581.31
2657.32
2736.72
2819.61
2906.05
2996.11
3089.16
3182.57
3274.28
3364.16
3452.12
3538.07
3621.97
3703.75
3783.39
3860.86
3936.15
2030.75
2084.94
2141.72
2201.19
2263.48
2328.69
2396.94
2468.32
2542.95
2620.91
2702.28
2786.54
2871.33
2954.78
3036.77
3117.23
3196.05
3273.19
3348.58
3422.2
3493.99
3563.96
1849.96
1898.74
1949.9
2003.53
2059.74
2118.63
2180.33
2244.94
2312.55
2383.28
2457.22
2533.9
2611.2
2687.43
2762.48
2836.26
2908.7
2979.74
3049.31
3117.39
3183.93
3248.91
1698.66
1742.86
1789.23
1837.88
1888.91
1942.43
1998.53
2057.34
2118.94
2183.46
2250.98
2321.1
2391.89
2461.81
2530.74
2598.63
2665.39
2730.96
2795.3
2858.36
2920.1
2980.5
1571.58
1611.8
1654.04
1698.38
1744.93
1793.78
1845.04
1898.81
1955.19
2014.3
2076.22
2140.6
2205.69
2270.04
2333.58
2396.23
2457.93
2518.62
2578.25
2636.78
2694.17
2750.39
1464.77
1501.52
1540.12
1580.69
1623.3
1668.05
1715.05
1764.38
1816.16
1870.48
1927.46
1986.76
2046.77
2106.18
2164.91
2222.89
2280.06
2336.36
2391.74
2446.17
2499.61
2552.03
1375.24
1408.92
1444.32
1481.54
1520.65
1561.76
1604.96
1650.33
1697.99
1748.03
1800.57
1855.3
1910.75
1965.71
2020.1
2073.86
2126.93
2179.25
2230.78
2281.48
2331.31
2380.26
1300.65
1331.61
1364.16
1398.4
1434.39
1472.23
1512.01
1553.82
1597.75
1643.91
1692.41
1742.98
1794.27
1845.16
1895.58
1945.48
1994.79
2043.47
2091.47
2138.75
2185.27
2231.01
1239.07
1267.62
1297.65
1329.24
1362.44
1397.35
1434.05
1472.62
1513.15
1555.76
1600.54
1647.27
1694.71
1741.83
1788.57
1834.88
1880.72
1926.02
1970.75
2014.86
2058.31
2101.06
1188.88
1215.33
1243.14
1272.38
1303.11
1335.4
1369.32
1404.95
1442.39
1481.73
1523.07
1566.23
1610.06
1653.63
1696.9
1739.83
1782.38
1824.51
1866.16
1907.31
1947.9
1987.9
11464.3
10344.1
9258.8
8310.6
7477.24
6734.36
70556.1
76049.1
79036.8
78559.7
74496.3
67566.9
75132
78946.3
83161.7
87833.4
93160.4
99467.7
73127.6
76332.3
79698.8
83204.7
86797.3
90331.3
65919
67403.2
68782.2
70019.9
71085.6
71961.2
52646.3
53076
53408
53640.8
53776.8
53820
40253.3
40262.2
40217.5
40123.1
39986.6
39815.9
30391.9
30303
30182.6
30035.7
29866.5
29678.9
23371.5
23251.9
23120.7
22978.5
22827.2
22669.8
18571.5
18463.7
18349.9
18231.3
18109.1
17984
15330.3
15235.5
15138.2
15038.5
14936.5
14833
12938.9
12860
12779.5
12697.6
12614.4
12530
11085.5
11022.7
10958.5
10893.1
10826.3
10758.4
9555.04
9507.45
9458.23
9407.56
9355.57
9302.3
8309.78
8275.85
8239.68
8201.49
8161.38
8119.4
7238.2
7214.87
7189.48
7162.15
7132.93
7101.84
6338.66
6324.28
6307.78
6289.25
6268.73
6246.24
5581.2
5573.36
5563.53
5551.76
5538.1
5522.57
4948.52
4945.48
4940.54
4933.75
4925.13
4914.7
4419.01
4419.17
4417.59
4414.29
4409.27
4402.55
3975.03
3977.29
3977.92
3976.94
3974.36
3970.18
3600.85
3604.35
3606.34
3606.84
3605.84
3603.36
3283.69
3287.84
3290.6
3291.97
3291.95
3290.54
3013.15
3017.57
3020.69
3022.52
3023.05
3022.28
2780.98
2785.42
2788.65
2790.66
2791.47
2791.05
2580.66
2584.97
2588.14
2590.18
2591.07
2590.82
2407.05
2411.14
2414.17
2416.12
2416.99
2416.79
2256.08
2259.92
2262.75
2264.57
2265.36
2265.12
2124.52
2128.1
2130.72
2132.37
2133.05
2132.75
2009.8
2013.12
2015.52
2017
2017.57
2017.2
6204.06
5805.91
5482.76
5253.34
5128.56
5106.2
5170.91
5306.5
5494.4
5717.54
5961.42
6211.82
6445.12
6630.72
6761.04
6854.09
6940.88
7044.34
7178.42
7348.04
7556.12
7821.44
60257.1
53637
47306.1
42219.9
38387.3
35658.9
33805.8
32569.1
31720.7
31131
30576.8
29992.8
29261.1
28325.9
27299.3
26291.9
25265.5
24141
22938.7
21860.6
20993.6
20352.9
106592
114446
123741
134121
144729
153406
157210
155854
149120
137495
122242
105545
90237.2
78125.4
69164.2
62288.4
56965
52881.8
49810.5
47488.1
45680.5
44286.2
93357.5
95930.1
98408.8
100637
102421
103485
103641
103009
101727
100244
98608
96408.2
93709.2
90602.3
86904.9
82573.3
77683.8
72375.6
67949.4
64555.8
62193.8
60780.9
72399.5
72409.2
72259
71935.9
71455.8
70852.3
70171.4
69459.3
68755.1
68088.9
67475.9
66936.5
66269.8
65221.2
63804.3
62094.7
60273.5
58489.7
56859.1
55439.6
54257.6
53317.4
53555.9
52997.4
52383
51720
51016
50280.3
49521.7
48746.7
47957.1
47148.4
46307.6
45417.6
44475.9
43491.7
42475
41439.5
40406.9
39397.9
38427
37507.3
36641.1
35817
39419.2
38802.4
38168
37517.3
36854.8
36183.8
35507.5
34827.3
34143.3
33453
32751.4
32041.4
31341.7
30665.7
30013.5
29386.7
28786.9
28215.4
27672.9
27159.5
26676.3
26222.1
29316.4
28787
28252.2
27714.7
27175.9
26637.1
26098.9
25561.4
25023.9
24484.6
23940.9
23393.3
22854
22332.4
21827.4
21341.9
20877.5
20433.7
20008.9
19601.3
19209
18830
22377.2
21954.1
21528.9
21101.6
20672.9
20243.4
19813.4
19382.8
18952.3
18521.9
18091
17662.2
17246.5
16850.7
16473
16112
15766.7
15435.9
15118.7
14814.5
14522.5
14242.5
17756.5
17430.2
17102.8
16774.8
16446.5
16117.9
15788.8
15459.1
15128.3
14795.6
14460
14122.9
13792.1
13473.3
13165.5
12868.2
12580.7
12302.2
12032.4
11771.2
11518.1
11272.5
14648.3
14384.8
14119.5
13852.1
13582.7
13311.2
13037.2
12760.6
12480.9
12198.1
11912.2
11625
11343.8
11073.8
10814
10563.9
10322.8
10090.4
9866.17
9649.83
9441.04
9239.66
12377.4
12158
11936.7
11713.4
11488.1
11260.7
11030.9
10798.5
10562.6
10322.9
10079.1
9832.63
9590.11
9356.09
9130.12
8911.71
8700.45
8495.93
8297.84
8105.92
7920.1
7740.54
10628.7
10438.6
10246.5
10052.1
9855.12
9655.48
9452.93
9247.23
9038.15
8825.48
8609
8389.91
8174.48
7967.24
7767.75
7575.71
7390.82
7212.85
7041.61
6876.9
6718.52
6566.35
9192.04
9025.81
8857.35
8686.55
8513.32
8337.57
8159.23
7978.23
7794.54
7608.1
7418.8
7227.73
7039.59
6858.2
6683.49
6515.36
6353.65
6198.17
6048.74
5905.2
5767.38
5635.29
8023.09
7874.16
7723
7569.51
7413.68
7255.5
7095
6932.21
6767.2
6600.07
6430.98
6260.95
6094.48
5934.72
5781.27
5634.02
5492.83
5357.47
5227.72
5103.32
4983.98
4869.48
7019.2
6886.66
6752.29
6616.07
6477.99
6338.04
6196.22
6052.5
5906.84
5759.24
5609.96
5460.46
5314.64
5175
5041.04
4912.3
4788.61
4669.81
4555.73
4446.18
4340.96
4240.09
6175.25
6057.55
5938.35
5817.65
5695.41
5571.64
5446.33
5319.46
5191.06
5061.15
4929.79
4797.86
4668.79
4544.83
4425.6
4311.04
4201.25
4096.04
3995.11
3898.19
3805.01
3715.45
5461.8
5357.42
5251.74
5144.74
5036.4
4926.71
4815.65
4703.21
4589.35
4474.06
4357.28
4239.8
4124.75
4014.29
3908.24
3806.46
3708.77
3614.97
3524.87
3438.29
3355.12
3275.26
4862.32
4769.47
4675.43
4580.18
4483.68
4385.92
4286.85
4186.45
4084.67
3981.48
3876.85
3771.5
3668.3
3569.21
3474.06
3382.68
3294.89
3210.53
3129.47
3051.57
2976.69
2904.71
4357.03
4273.97
4189.78
4104.41
4017.83
3930.01
3840.91
3750.5
3658.73
3565.59
3471.04
3375.78
3282.4
3192.68
3106.49
3023.66
2944.06
2867.57
2794.07
2723.46
2655.64
2590.53
3930.13
3855.27
3779.29
3702.15
3623.82
3544.26
3463.44
3381.33
3297.9
3213.14
3127.03
3040.22
2955.07
2873.25
2794.62
2719.07
2646.48
2576.76
2509.81
2445.55
2383.89
2324.74
3567.65
3499.63
3430.49
3360.2
3288.74
3216.07
3142.17
3067.01
2990.59
2912.89
2833.91
2754.26
2676.13
2601.05
2528.92
2459.64
2393.12
2329.28
2268.03
2209.3
2152.99
2099.04
3258.3
3195.97
3132.56
3068.01
3002.32
2935.46
2867.41
2798.15
2727.69
2656.03
2583.19
2509.73
2437.69
2368.5
2302.08
2238.33
2177.19
2118.57
2062.41
2008.62
1957.13
1907.88
2992.83
2935.32
2876.74
2817.07
2756.29
2694.4
2631.37
2567.21
2501.93
2435.54
2368.08
2300.07
2233.43
2169.48
2108.15
2049.36
1993.04
1939.13
1887.55
1838.23
1791.1
1746.07
2763.88
2710.48
2656.06
2600.6
2544.08
2486.51
2427.89
2368.22
2307.52
2245.82
2183.16
2120.06
2058.29
1999.08
1942.37
1888.09
1836.17
1786.55
1739.15
1693.89
1650.72
1609.54
2565.56
2515.74
2464.96
2413.2
2360.45
2306.73
2252.04
2196.41
2139.85
2082.4
2024.12
1965.5
1908.19
1853.34
1800.87
1750.74
1702.86
1657.16
1613.58
1572.03
1532.46
1494.78
2393.17
2346.54
2299.01
2250.57
2201.23
2151
2099.9
2047.96
1995.21
1941.69
1887.47
1832.99
1779.82
1729.01
1680.48
1634.18
1590.02
1547.93
1507.84
1469.69
1433.39
1398.87
2242.95
2199.22
2154.66
2109.27
2063.06
2016.06
1968.3
1919.8
1870.61
1820.77
1770.35
1719.78
1670.48
1623.44
1578.58
1535.82
1495.09
1456.32
1419.43
1384.35
1351.01
1319.32
2111.9
2070.85
2029.05
1986.49
1943.22
1899.26
1854.65
1809.41
1763.6
1717.27
1670.46
1623.57
1577.93
1534.42
1492.97
1453.5
1415.92
1380.17
1346.17
1313.87
1283.18
1254.02
1997.6
1959.05
1919.83
1879.96
1839.48
1798.44
1756.85
1714.77
1672.22
1629.24
1585.88
1542.5
1500.31
1460.11
1421.82
1385.37
1350.66
1317.64
1286.25
1256.4
1228.06
1201.13
8080.79
8299.03
8558.48
8855.05
9179.38
9521.37
9878.73
10268.2
10737.4
11377.7
12337.7
13841.3
16208.7
19886.4
25468.5
33458.7
44111.5
57920
75455
97331.5
123707
154954
185812
210786
231663
246188
252800
253276
250265
248225
250033
260724
296993
446928
1.73332e+06
19999.3
19767.9
19641.1
19629.1
19767.7
20090.9
20639
21466.1
22650.7
24314.1
26632.3
29878.1
34488.8
41156.7
50911.1
64728.6
83567.6
109577
146731
194513
249108
296720
331129
393963
542482
818709
1.1597e+06
1.36962e+06
1.35797e+06
1.30191e+06
1.30159e+06
1.39327e+06
1.67895e+06
2.55238e+06
7.6923e+06
43356.9
42656.9
42089.3
41710.7
41579.6
41767.9
42370.4
43498.3
45287.2
47891.2
51399.1
55833.9
61284
67897.4
75717.8
84371.7
93253.9
101563
105922
112675
129372
169666
244690
370671
613932
1.04536e+06
1.64944e+06
2.13876e+06
2.3598e+06
2.33776e+06
2.15654e+06
1.91875e+06
1.84725e+06
2.15881e+06
4.42994e+06
60254
60093.1
60250.7
60817.9
61886.7
63558.9
65944.4
69152.4
73224.1
77604.7
80578.4
81962.1
82320.5
82891.4
84294.3
87327.3
93488.2
107444
140514
199593
269346
334151
350788
378726
441552
538986
641128
673715
680708
670440
659034
635472
620035
625089
823217
52834.3
52662.7
52623.5
52746.9
53060.6
53518.4
53939
53945.4
53181.8
51437.2
49146.2
46689.2
44328.6
43549.2
45649.7
53999.9
72282.4
107154
160670
237827
338045
401487
390795
366331
407017
518249
615428
629471
587625
530360
488153
474637
512768
711913
2.05642e+06
35282.5
34995.8
34692.8
34375
34045.6
33709.5
33372.6
33033.6
32672.3
32224
31583.3
30634.8
29392.6
28224.1
27870.1
29597.5
34557.4
43859.3
58917.7
81290.6
111632
151463
181374
191142
193751
191952
183453
166511
148516
137449
135175
143643
172752
266857
833799
25955.2
25842.2
25720.3
25599.8
25492.4
25411.2
25367.5
25363
25367.4
25278.8
24839.1
23798.5
22222.7
20365.9
18600.6
17404.8
16975.7
17263
18312.6
20301.9
23452.6
27176.7
28542.2
28245.5
27810
28225.9
30784.2
35616.5
39070
40589.2
41706.1
43684.8
48078.1
59001.1
100298
18599.1
18500.9
18392.7
18271
18132.5
17971.8
17781.5
17551.8
17269
16915.3
16466.7
15898.7
15182.5
14373.8
13630.6
13203.4
13212.1
13378.7
13193.4
12235.7
11032.7
10062.5
9314.9
8609.27
7513.56
6779.07
6405.38
6294.02
6323.69
6680.16
7399
8293.71
9218.56
10904.5
15827.9
14074.7
14004.2
13925.9
13838.8
13741.7
13632.7
13507.5
13357.9
13167.3
12906.3
12543.5
12064.3
11467.3
10769
10020.8
9342.95
8803.53
8401
8090.09
7783.51
7509.32
7209.78
6617.11
6018.78
5538.02
5215.42
5041.72
4999.95
5090.9
5353.91
5870.78
6829.34
8858.74
14600.3
48475.9
11115.2
11036.1
10947
10846.3
10732
10601.2
10450.4
10274.7
10067.9
9822
9528.3
9179.05
8769.77
8302.32
7788.66
7273.83
6794.58
6352.92
5945.27
5568.57
5226.29
4912.54
4646.07
4450.83
4337.66
4311.02
4372.14
4521.75
4769.31
5139.51
5686.22
6532.62
8012.06
11417.6
26273.2
9112.06
9047.79
8975.34
8893.75
8801.93
8698.51
8581.61
8448.27
8294
8111.14
7887.56
7616.72
7294.75
6919.29
6497.16
6064.92
5657.01
5289.3
4977.61
4728.84
4533.43
4368.18
4266.69
4256.9
4337
4519.97
4813
5224.93
5780.2
6525.7
7558.73
9111.01
11866.7
18675.8
57033
7624.83
7564.45
7496.71
7420.66
7335.07
7238.48
7128.99
7004.26
6861.39
6696.84
6506.49
6286.27
6032.72
5743.73
5422.15
5090.56
4771.81
4474.21
4204.77
3969.52
3771.96
3610.45
3509.59
3486.35
3541.08
3674.06
3885.87
4180.31
4573.04
5093.66
5801.35
6834.09
8582.04
12627.7
33276.9
6470.24
6421.89
6367.46
6306.24
6237.42
6160.03
6072.91
5974.3
5861.49
5729.64
5576.56
5399.39
5195.67
4963.39
4703.42
4433.31
4170.79
3921.81
3692.49
3489.22
3319.9
3191.14
3133.54
3160.25
3271.21
3470.93
3761.72
4150.96
4652.16
5292.69
6132.75
7319.53
9283.96
13820.6
37528.8
5552.44
5511.84
5466.07
5414.44
5356.11
5290.16
5215.28
5130.07
5032.76
4921.33
4793.58
4647.01
4479.42
4289.06
4076.77
3855.39
3637.3
3427.92
3233.17
3058.12
2908.81
2790.01
2723.39
2720
2780.47
2913.08
3126.87
3436.79
3866.79
4452.66
5253.94
6392.26
8209.77
12144.7
31030.4
4798.8
4765.87
4728.82
4687
4639.69
4586.12
4525.27
4455.68
4375.14
4282.19
4175.28
4052.54
3912.83
3754.66
3577.88
3392.98
3210.93
3035.29
2869.82
2718.65
2587.03
2479.97
2419.31
2415.52
2468.44
2581.18
2757.25
3002.75
3328.39
3753.94
4320.29
5122.45
6432.36
9363.52
23734.3
4178.23
4150.27
4118.68
4082.93
4042.4
3996.36
3943.92
3884.03
3815.45
3736.8
3646.57
3543.22
3425.1
3291.2
3141.71
2985.62
2832.09
2683.09
2541.05
2408.43
2290.57
2190.97
2126.34
2105.41
2127.17
2193.38
2309.87
2484.38
2732.11
3079.37
3575.62
4328.38
5625.38
8558.77
22514.7
3661.1
3637.51
3610.87
3580.76
3546.65
3507.86
3463.43
3412.42
3353.86
3286.71
3209.78
3121.78
3021.41
2907.29
2780.3
2647.36
2516.06
2388.34
2266.41
2152.91
2051.41
1964.37
1905.75
1882.77
1894.56
1941.98
2027.95
2157.3
2338.93
2589.1
2939.99
3462.99
4351.71
6370.86
15896.4
3227.06
3206.73
3183.75
3157.66
3127.98
3094.18
3055.6
3011.51
2961.04
2903.25
2837.08
2761.4
2675.08
2577.04
2467.19
2352.73
2239.63
2129.25
2023.44
1924.14
1833.59
1753.43
1695.65
1667.08
1667.16
1695.48
1755.93
1853.57
1998.01
2207.63
2517.98
3006.61
3880.75
5938.43
15892
2861.55
2843.87
2823.84
2801.19
2775.47
2746.08
2712.49
2674.08
2630.15
2579.91
2522.49
2456.96
2382.35
2297.75
2203.22
2104.19
2006.13
1910.36
1818.4
1732
1653.35
1583.66
1532.93
1507.1
1505.65
1528.73
1578.89
1660.14
1779.85
1951.79
2202.1
2587.19
3256.75
4787.24
11866.5
2551.76
2536.31
2518.77
2498.83
2476.14
2450.3
2420.82
2387.17
2348.74
2304.84
2254.71
2197.56
2132.56
2058.94
1976.74
1890.59
1805.23
1721.81
1641.59
1566.05
1496.97
1435.04
1388.66
1363.82
1360.33
1378.29
1420.35
1490.54
1596.13
1751.01
1982.13
2348.17
3005.48
4558.08
12061.1
2289.71
2276.03
2260.49
2242.82
2222.71
2199.82
2173.74
2144
2110.09
2071.43
2027.36
1977.2
1920.25
1855.85
1784.05
1708.87
1634.42
1561.66
1491.66
1425.73
1365.49
1311.76
1272.15
1251.54
1249.85
1267.46
1306.68
1371.02
1466.85
1605.82
1810.25
2128.18
2686.3
3970.01
9967.51
2067.19
2054.94
2041.05
2025.29
2007.37
1987.01
1963.83
1937.43
1907.37
1873.14
1834.19
1789.93
1739.76
1683.11
1620.05
1554.11
1488.87
1425.15
1363.88
1306.2
1253.54
1206.65
1172.15
1154.38
1153.57
1170.2
1206.76
1266.7
1356.29
1487.14
1681.68
1988.62
2537.5
3828.51
10030.1
1878.88
1867.81
1855.28
1841.09
1824.98
1806.69
1785.92
1762.3
1735.45
1704.94
1670.28
1630.98
1586.53
1536.44
1480.77
1422.67
1365.26
1309.24
1255.44
1204.88
1158.86
1118.19
1088.92
1074.83
1075.98
1093.36
1129.18
1186.67
1271.66
1394.68
1575.98
1859.31
2360.47
3524.7
9037.29
1719.58
1709.48
1698.07
1685.17
1670.56
1654
1635.23
1613.93
1589.78
1562.38
1531.34
1496.21
1456.57
1411.99
1362.56
1311.06
1260.25
1210.75
1163.27
1118.74
1078.38
1042.99
1018.12
1007.12
1010.14
1027.94
1062.62
1117.27
1197.68
1314.24
1486.79
1758.22
2242.38
3379.28
8832.79
1585.29
1575.96
1565.45
1553.59
1540.19
1525.04
1507.9
1488.51
1466.57
1441.76
1413.72
1382.07
1346.45
1306.5
1262.3
1216.34
1171.08
1127.05
1084.89
1045.45
1009.85
978.927
957.748
949.334
953.869
972.233
1006.42
1059.46
1136.76
1248.21
1412.56
1669.93
2126.6
3192.96
8276.1
1472.49
1463.77
1453.95
1442.9
1430.45
1416.42
1400.59
1382.73
1362.59
1339.89
1314.31
1285.53
1253.24
1217.13
1177.29
1135.96
1095.33
1055.87
1018.17
982.979
951.368
924.173
906.066
899.779
905.527
924.293
958.001
1009.59
1084.34
1191.67
1349.55
1596.84
2036.88
3069.86
8029.51
1378.3
1370
1360.69
1350.23
1338.49
1325.3
1310.48
1293.82
1275.09
1254.06
1230.46
1204.02
1174.44
1141.49
1105.23
1067.73
1030.94
995.279
961.273
929.627
901.335
877.239
861.675
857.13
863.842
882.887
916.114
966.383
1038.81
1142.45
1294.58
1532.5
1955.3
2946.04
7688.2
1300.24
1292.19
1283.19
1273.13
1261.87
1249.27
1235.17
1219.39
1201.73
1181.99
1159.93
1135.33
1107.93
1077.52
1044.18
1009.8
976.169
943.636
912.682
883.964
858.418
836.885
823.414
820.288
827.759
846.975
879.709
928.764
999.113
1099.55
1246.84
1477.23
1887.16
2849.95
7471.37
1236.19
1228.23
1219.36
1209.49
1198.5
1186.25
1172.6
1157.41
1140.5
1121.7
1100.79
1077.59
1051.89
1023.48
992.482
960.622
929.542
899.556
871.099
844.781
821.492
802.066
790.312
788.337
796.403
815.716
847.979
895.946
964.46
1062.06
1205.02
1428.51
1826.05
2759.88
7242.91
1184.31
1176.28
1167.38
1157.51
1146.58
1134.45
1121.03
1106.16
1089.71
1071.52
1051.42
1029.23
1004.79
977.92
948.729
918.856
889.813
861.873
835.434
811.068
789.62
771.916
761.561
760.516
769.044
788.395
820.209
867.196
934.085
1029.21
1168.43
1386.07
1773.47
2684.72
7066.9
6884.43
2607.44
1717.99
1339.93
1127.6
991.817
899.074
833.87
788.052
756.976
737.962
729.382
729.919
739.264
755.526
775.285
797.735
822.084
847.814
874.582
902.174
929.241
954.292
977.228
998.196
1017.35
1034.82
1050.75
1065.27
1078.48
1090.5
1101.42
1111.33
1120.33
1128.49
6719.22
2537.91
1669.45
1300.76
1093.8
961.461
871.025
807.362
762.517
731.956
713.048
704.226
704.162
712.557
727.644
746.16
767.317
790.359
814.799
840.327
866.76
892.832
917.108
939.482
960.08
979.031
996.454
1012.46
1027.15
1040.63
1052.97
1064.27
1074.6
1084.03
1092.63
6576.23
2477.53
1627.27
1266.7
1064.42
935.084
846.665
784.361
740.386
710.303
691.531
682.54
682.042
689.72
703.926
721.526
741.752
763.884
787.465
812.212
837.973
863.537
887.497
909.731
930.348
949.454
967.152
983.531
998.678
1012.67
1025.58
1037.47
1048.42
1058.47
1067.7
6451.81
2424.7
1590.3
1236.85
1038.68
911.983
825.347
764.249
721.058
691.421
672.804
663.715
662.906
670.054
683.615
700.564
720.157
741.707
764.788
789.144
814.65
840.132
864.18
886.648
907.624
927.198
945.452
962.462
978.297
993.021
1006.69
1019.37
1031.11
1041.95