/*--------------------------------*- C++ -*----------------------------------*\
  =========                 |
  \\      /  F ield         | OpenFOAM: The Open Source CFD Toolbox
   \\    /   O peration     | Website:  https://openfoam.org
    \\  /    A nd           | Version:  8
     \\/     M anipulation  |
\*---------------------------------------------------------------------------*/
FoamFile
{
    version     2.0;
    format      ascii;
    class       volScalarField;
    location    "0.23";
    object      nut;
}
// * * * * * * * * * * * * * * * * * * * * * * * * * * * * * * * * * * * * * //

dimensions      [0 2 -1 0 0 0 0];

internalField   nonuniform List<scalar> 
15677
(
0.000718329
0.00179087
0.00568743
0.00938653
0.0129334
0.0167543
0.0211876
0.0260494
0.0316962
0.0383837
0.0452594
0.0518588
0.0574669
0.062503
0.0658552
0.0687922
0.0707262
0.0716237
0.0728322
0.073894
0.074667
0.0752421
0.0756354
0.0759002
0.076123
0.0763829
0.0767087
0.0770713
0.0773809
0.0777038
0.0779917
0.078216
0.0784007
0.0785577
0.0786978
0.00124161
0.010315
0.0262579
0.0443587
0.0622036
0.0780546
0.0901949
0.0959495
0.0966745
0.0932971
0.0905702
0.0905348
0.0875352
0.0831661
0.0772747
0.0735164
0.0735509
0.0767921
0.0802028
0.0844176
0.0889324
0.0932713
0.0967771
0.0997247
0.102251
0.103973
0.105107
0.105779
0.10609
0.106118
0.105983
0.105698
0.105344
0.10497
0.104598
0.00105141
0.00893375
0.0211331
0.0344384
0.0476004
0.0603237
0.0720281
0.0820052
0.0901651
0.0962603
0.0992072
0.0977849
0.0914072
0.0819579
0.0733356
0.0661713
0.0595062
0.0546881
0.0563542
0.0623903
0.070755
0.0803467
0.0889411
0.0956212
0.100805
0.104699
0.107708
0.110077
0.11194
0.11341
0.114574
0.115503
0.116236
0.116803
0.117236
0.000836071
0.00522116
0.0128878
0.0217843
0.0314447
0.040876
0.0496851
0.0572356
0.0630466
0.0667166
0.0672747
0.0662629
0.0626125
0.057354
0.0516712
0.0469812
0.0442366
0.0443511
0.0476449
0.0544328
0.0621453
0.0710355
0.0822716
0.090276
0.0963985
0.101026
0.104583
0.107376
0.109558
0.11122
0.112451
0.113337
0.11395
0.114331
0.114572
0.000573921
0.00480015
0.0106505
0.016717
0.0229038
0.0288776
0.0343386
0.0387971
0.0415525
0.0417507
0.0402366
0.0373058
0.0365837
0.0408308
0.0487097
0.0585797
0.0690553
0.0794861
0.0885791
0.0957313
0.099042
0.100634
0.102838
0.105524
0.108056
0.110139
0.111602
0.112211
0.112226
0.111841
0.11137
0.110922
0.110539
0.110257
0.110063
0.000379181
0.00210456
0.00476242
0.00745539
0.0101608
0.0126748
0.0149298
0.0167975
0.0180831
0.0203733
0.0240024
0.0291569
0.0384082
0.0500635
0.0634714
0.075597
0.0852707
0.0930947
0.0990874
0.103028
0.105783
0.107308
0.107741
0.107476
0.107
0.106402
0.105811
0.105269
0.10487
0.104595
0.104361
0.104172
0.104043
0.10396
0.103913
0.000299569
0.00270222
0.0053497
0.00772975
0.00975304
0.0113558
0.0124298
0.0133439
0.0148174
0.0186671
0.0256237
0.0360007
0.0490295
0.0632141
0.0756704
0.0851336
0.0913912
0.0958942
0.0992361
0.101667
0.10338
0.104556
0.105379
0.105896
0.106071
0.105971
0.105606
0.105109
0.104591
0.104107
0.103678
0.103309
0.102998
0.102738
0.102513
0.000189343
0.00110327
0.00237443
0.00354189
0.00462858
0.00591808
0.00823317
0.0132939
0.0211647
0.031095
0.0419805
0.0528177
0.0633832
0.0731462
0.0810171
0.0867759
0.0912636
0.0948938
0.0978931
0.100322
0.102126
0.10319
0.103627
0.103655
0.103477
0.103217
0.102921
0.102629
0.102346
0.102077
0.101827
0.101596
0.101386
0.101195
0.101025
0.000270787
0.00237929
0.00610679
0.0105467
0.0154001
0.0205984
0.0261345
0.0320472
0.0383768
0.045122
0.0523268
0.0598686
0.0674948
0.0748647
0.0808995
0.0855966
0.0894212
0.0925604
0.095135
0.0972331
0.098934
0.100219
0.101094
0.101627
0.101896
0.101961
0.101892
0.101745
0.101551
0.101346
0.101147
0.100959
0.100783
0.10062
0.100473
0.000237895
0.0025273
0.00629088
0.0108461
0.0160522
0.0218361
0.0281171
0.0347891
0.0417103
0.0487438
0.0557159
0.0624592
0.0688436
0.0747808
0.0797293
0.083724
0.0870968
0.0899842
0.0924532
0.0945136
0.0961551
0.0973594
0.0981975
0.0987714
0.0991522
0.0993904
0.0995225
0.0995764
0.0995734
0.0995329
0.0994693
0.0993924
0.0993089
0.099223
0.0991386
0.00024552
0.00234788
0.00590809
0.0102133
0.0151266
0.0206099
0.026626
0.0331094
0.0399495
0.0469845
0.0540367
0.0608705
0.0672882
0.0731591
0.0779447
0.0817177
0.0848371
0.0874617
0.0896992
0.0916158
0.0932359
0.094504
0.095428
0.0960847
0.0965409
0.0968468
0.0970403
0.0971507
0.0972078
0.097231
0.0972328
0.0972212
0.0972014
0.0971766
0.0971489
0.000218517
0.00246943
0.00611309
0.0104946
0.0154695
0.0209682
0.0269242
0.0332527
0.0398241
0.0464955
0.0531463
0.0595908
0.0656817
0.0713074
0.0759352
0.0796041
0.0826406
0.0851785
0.0873038
0.0890775
0.0905543
0.0917305
0.0926112
0.0932646
0.093747
0.0941011
0.0943588
0.0945447
0.0946776
0.0947719
0.0948382
0.0948845
0.0949165
0.0949384
0.094953
0.000213561
0.00222302
0.00552252
0.00950986
0.0140776
0.0191909
0.0248125
0.0308804
0.0372919
0.0438991
0.0505594
0.0570785
0.0632765
0.0690081
0.0736991
0.0773766
0.0803823
0.0828751
0.0849586
0.0867014
0.088153
0.0893058
0.0901788
0.0908382
0.0913376
0.0917159
0.092002
0.0922175
0.0923808
0.092507
0.0926061
0.0926852
0.0927495
0.0928022
0.092846
0.000197921
0.0022857
0.0056222
0.00962
0.0141558
0.0191725
0.0246175
0.0304246
0.036503
0.0427404
0.0490565
0.0552842
0.0612794
0.0669086
0.0715831
0.0752766
0.0782945
0.0807777
0.0828294
0.0845354
0.0859655
0.0871091
0.0879859
0.0886598
0.0891823
0.0895901
0.0899108
0.0901648
0.0903676
0.0905309
0.0906638
0.0907731
0.0908641
0.0909405
0.0910054
0.000189117
0.00209941
0.00515712
0.00883179
0.0130354
0.0177377
0.0229053
0.0284849
0.0343957
0.0405242
0.0467572
0.052949
0.0589468
0.0646125
0.0693473
0.0731082
0.0761918
0.0787324
0.0808347
0.0825801
0.0840386
0.0852048
0.0861033
0.0868001
0.0873471
0.0877808
0.0881277
0.0884073
0.088634
0.0888193
0.088973
0.089102
0.0892116
0.0893053
0.0893862
0.000181033
0.0021028
0.00515212
0.00879982
0.0129407
0.0175297
0.0225267
0.0278829
0.0335305
0.0393764
0.0453427
0.0513056
0.0571285
0.0626826
0.0673728
0.0711311
0.0742321
0.0768016
0.0789383
0.0807259
0.0822251
0.0834311
0.0843665
0.0850976
0.0856769
0.0861412
0.0865174
0.0868249
0.0870787
0.0872898
0.0874669
0.0876165
0.0877438
0.0878529
0.0879471
0.000171432
0.00198507
0.00483429
0.00824291
0.0121377
0.016493
0.0212802
0.0264554
0.0319535
0.037684
0.0435491
0.049435
0.0552083
0.0607422
0.0654391
0.0692197
0.0723568
0.0749698
0.0771541
0.0789875
0.0805325
0.0817816
0.0827555
0.0835215
0.0841326
0.0846261
0.0850289
0.0853608
0.0856363
0.0858667
0.0860606
0.0862251
0.0863657
0.0864868
0.0865917
0.000168995
0.00197028
0.00482464
0.00823239
0.012095
0.0163725
0.0210314
0.0260314
0.0313187
0.0368159
0.0424488
0.0481252
0.0537239
0.0591296
0.0637549
0.0675052
0.070639
0.0732666
0.0754776
0.0773449
0.0789278
0.0802152
0.0812248
0.082023
0.0826632
0.083183
0.0836095
0.0839627
0.0842576
0.0845058
0.084716
0.0848951
0.0850484
0.0851806
0.0852951
0.000158323
0.00191539
0.0046383
0.00787812
0.0115664
0.0156778
0.0201857
0.0250516
0.0302206
0.0356163
0.0411531
0.0467408
0.0522622
0.0576054
0.062192
0.0659252
0.0690571
0.0716942
0.0739231
0.0758139
0.0774242
0.0787404
0.0797772
0.0806008
0.0812643
0.0818053
0.0822511
0.0826219
0.0829327
0.0831952
0.0834181
0.0836087
0.0837723
0.0839136
0.0840359
0.000158141
0.00185568
0.00453869
0.00774276
0.0113804
0.0154173
0.0198241
0.0245642
0.0295893
0.0348304
0.0402119
0.0456573
0.0510552
0.0562995
0.0608208
0.0645168
0.0676303
0.0702626
0.0724961
0.0743986
0.0760252
0.0773604
0.0784163
0.0792581
0.0799386
0.0804953
0.0809555
0.0813393
0.0816619
0.081935
0.0821675
0.0823668
0.0825382
0.0826865
0.0828152
0.000151598
0.00181481
0.00441068
0.00750435
0.0110249
0.0149461
0.0192425
0.0238788
0.0288058
0.033956
0.0392495
0.0446107
0.0499316
0.0551091
0.0595826
0.0632476
0.0663422
0.0689649
0.071196
0.0731015
0.0747355
0.0760807
0.0771478
0.078001
0.0786926
0.0792599
0.0797302
0.0801233
0.0804546
0.0807357
0.0809756
0.0811815
0.081359
0.0815128
0.0816464
0.000150711
0.00176189
0.00430962
0.0073555
0.0108194
0.0146707
0.0188825
0.023421
0.028241
0.033281
0.0384647
0.043726
0.0489595
0.0540645
0.0584859
0.0621159
0.0651871
0.0677947
0.0700172
0.0719187
0.0735524
0.0749003
0.0759717
0.07683
0.0775273
0.0781004
0.0785764
0.0789751
0.0793117
0.0795978
0.0798424
0.0800526
0.0802341
0.0803916
0.0805286
0.000146873
0.00172357
0.00420559
0.00717328
0.0105547
0.0143227
0.0184522
0.0229097
0.0276498
0.0326128
0.0377233
0.0429119
0.0480802
0.0531278
0.0575048
0.0611026
0.0641498
0.0667397
0.0689491
0.0708413
0.0724683
0.0738122
0.0748815
0.0757391
0.0764366
0.0770106
0.077488
0.0778884
0.0782268
0.0785148
0.0787613
0.0789734
0.0791568
0.079316
0.0794547
0.000145418
0.00168435
0.00412321
0.00704245
0.0103665
0.0140679
0.0181231
0.0225018
0.0271619
0.0320469
0.0370831
0.0422001
0.0473052
0.0522972
0.0566307
0.060196
0.0632176
0.0657868
0.0679791
0.0698567
0.071471
0.0728043
0.073865
0.0747157
0.0754075
0.075977
0.0764507
0.0768481
0.0771841
0.0774702
0.0777152
0.077926
0.0781083
0.0782666
0.0784046
0.000142847
0.00165155
0.00404053
0.00690259
0.0101658
0.0138043
0.0177954
0.0221093
0.0267048
0.0315268
0.0365026
0.0415599
0.0466109
0.0515535
0.0558467
0.05938
0.0623749
0.0649207
0.0670918
0.0689496
0.0705449
0.0718604
0.0729053
0.073742
0.0744214
0.0749797
0.0754435
0.0758322
0.0761605
0.0764396
0.0766785
0.0768839
0.0770613
0.0772153
0.0773494
0.000141352
0.00162065
0.00397161
0.0067908
0.0100058
0.013591
0.0175246
0.0217783
0.0263124
0.031074
0.0359916
0.0409922
0.0459916
0.050887
0.0551404
0.0586411
0.0616071
0.0641262
0.0662715
0.0681035
0.0696727
0.0709623
0.0719829
0.072797
0.0734556
0.0739948
0.0744409
0.0748135
0.0751271
0.0753929
0.0756195
0.0758139
0.0759813
0.0761263
0.0762522
0.000139559
0.00159341
0.00390698
0.00668411
0.00985372
0.0133908
0.0172742
0.0214759
0.0259572
0.0306663
0.0355327
0.0404821
0.045434
0.0502844
0.0544984
0.0579653
0.0608997
0.0633881
0.0655022
0.0673018
0.0688364
0.0700908
0.0710772
0.0718587
0.0724863
0.0729965
0.0734154
0.0737627
0.0740528
0.0742969
0.0745037
0.0746797
0.0748305
0.0749601
0.0750721
0.000138219
0.00156844
0.00385049
0.00659243
0.00972315
0.0132179
0.017056
0.0212103
0.0256429
0.030303
0.0351215
0.0400227
0.0449291
0.0497352
0.0539091
0.05734
0.0602395
0.0626924
0.0647692
0.0665285
0.0680194
0.0692277
0.0701686
0.0709057
0.0714907
0.07196
0.0723403
0.0726511
0.0729072
0.0731195
0.0732968
0.0734456
0.0735712
0.0736778
0.0737686
0.000136893
0.00154603
0.00379872
0.00650803
0.00960332
0.0130601
0.0168578
0.0209698
0.0253587
0.0299744
0.0347487
0.0396046
0.044467
0.0492292
0.0533616
0.0567538
0.0596144
0.0620264
0.064059
0.0657698
0.0672065
0.0683569
0.0692396
0.0699193
0.0704483
0.0708636
0.0711922
0.0714539
0.0716635
0.0718323
0.0719689
0.0720799
0.0721705
0.0722447
0.0723058
0.000135795
0.00152563
0.00375239
0.00643292
0.0094966
0.012919
0.01668
0.0207532
0.0251016
0.0296757
0.0344082
0.0392206
0.0440399
0.0487575
0.0528465
0.0561969
0.059014
0.0613794
0.0633607
0.0650138
0.0663856
0.0674654
0.0682764
0.0688848
0.0693436
0.0696905
0.0699532
0.0701518
0.0703015
0.0704138
0.0704973
0.0705588
0.0706033
0.0706348
0.0706565
0.078775
0.0787164
0.0785194
0.0781578
0.0776117
0.076857
0.075866
0.0746032
0.0730298
0.0711145
0.0688374
0.0662134
0.0633502
0.0603905
0.0574338
0.054564
0.0518416
0.04929
0.0468786
0.0445108
0.0420161
0.03917
0.104049
0.103293
0.102491
0.101634
0.100711
0.0997129
0.0986306
0.0974556
0.0961814
0.0948055
0.0933334
0.0917958
0.0902781
0.0888755
0.0876597
0.0866899
0.0859796
0.0855571
0.0853269
0.0850856
0.0848627
0.0846781
0.117665
0.117961
0.117982
0.117708
0.117168
0.116404
0.115465
0.114388
0.113207
0.111947
0.110633
0.109299
0.108002
0.106791
0.105686
0.104674
0.10386
0.103168
0.102643
0.102309
0.102189
0.1023
0.114777
0.114871
0.114819
0.114641
0.11435
0.113963
0.113492
0.112947
0.112312
0.111586
0.11078
0.109923
0.109069
0.108256
0.107562
0.106947
0.106453
0.106118
0.105958
0.105948
0.106061
0.106284
0.109952
0.109938
0.109973
0.110032
0.110098
0.110151
0.110171
0.110134
0.110048
0.109906
0.109689
0.109448
0.109161
0.108864
0.1086
0.108421
0.108337
0.108321
0.108362
0.108478
0.108685
0.108984
0.103916
0.103995
0.10412
0.10428
0.104468
0.104677
0.104897
0.105122
0.105347
0.105572
0.1058
0.106039
0.106294
0.106575
0.106865
0.10713
0.107366
0.107587
0.107798
0.108004
0.108206
0.108397
0.102285
0.102052
0.101855
0.101695
0.10157
0.101479
0.101419
0.101389
0.101387
0.101414
0.101469
0.101556
0.101673
0.101817
0.101986
0.102177
0.102384
0.102606
0.102841
0.103088
0.103345
0.103611
0.100819
0.100579
0.100342
0.100112
0.0998908
0.0996811
0.0994852
0.099305
0.0991417
0.0989983
0.0988785
0.0987868
0.0987287
0.0987065
0.0987197
0.0987672
0.0988477
0.0989593
0.0991006
0.0992696
0.0994646
0.0996846
0.100296
0.100083
0.099858
0.0996228
0.0993802
0.0991327
0.0988834
0.0986356
0.0983929
0.0981595
0.0979406
0.0977435
0.097579
0.097456
0.0973745
0.0973334
0.0973297
0.0973612
0.0974259
0.0975218
0.0976466
0.0978012
0.0990654
0.0989884
0.0988922
0.0987784
0.0986487
0.0985052
0.09835
0.0981858
0.0980152
0.0978415
0.0976683
0.0975006
0.0973475
0.097218
0.097115
0.0970399
0.0969934
0.0969751
0.0969844
0.09702
0.0970804
0.0971651
0.0971686
0.0972203
0.0972549
0.0972727
0.0972741
0.0972601
0.0972318
0.0971908
0.0971391
0.0970794
0.0970148
0.0969494
0.0968887
0.0968374
0.0967985
0.0967731
0.0967622
0.0967666
0.0967866
0.0968219
0.0968723
0.0969388
0.0950373
0.0951793
0.0953099
0.0954289
0.0955358
0.0956307
0.0957136
0.0957848
0.0958449
0.0958952
0.0959379
0.0959753
0.096009
0.0960416
0.0960755
0.0961125
0.0961542
0.0962016
0.0962553
0.0963156
0.0963826
0.0964571
0.0929685
0.093162
0.0933483
0.0935272
0.0936985
0.0938621
0.0940181
0.0941666
0.094308
0.0944426
0.0945712
0.0946938
0.0948088
0.0949163
0.0950185
0.0951169
0.0952131
0.0953082
0.095403
0.0954981
0.0955938
0.0956914
0.091152
0.0913753
0.0915946
0.0918095
0.0920198
0.0922252
0.0924257
0.0926215
0.092813
0.0930006
0.0931844
0.0933634
0.0935335
0.0936928
0.0938429
0.0939853
0.0941211
0.0942514
0.094377
0.0944985
0.0946163
0.0947315
0.0895504
0.0897945
0.0900352
0.0902724
0.0905063
0.0907372
0.0909653
0.0911909
0.0914143
0.0916358
0.0918557
0.0920723
0.09228
0.0924757
0.0926603
0.092835
0.0930006
0.093158
0.0933079
0.0934512
0.0935884
0.0937209
0.0881278
0.0883923
0.0886532
0.0889103
0.0891638
0.0894136
0.0896601
0.089904
0.0901457
0.0903855
0.0906231
0.0908571
0.0910815
0.0912932
0.0914934
0.0916831
0.0918631
0.0920344
0.0921975
0.0923531
0.0925015
0.0926439
0.0867887
0.0870757
0.0873585
0.0876372
0.0879119
0.0881829
0.0884495
0.088712
0.0889705
0.0892256
0.0894776
0.0897251
0.0899618
0.0901847
0.090395
0.0905939
0.0907825
0.0909615
0.0911318
0.0912939
0.0914484
0.0915961
0.0855077
0.0858168
0.0861213
0.086421
0.086716
0.0870063
0.087292
0.0875731
0.0878496
0.0881216
0.0883894
0.0886513
0.0889006
0.0891342
0.0893537
0.0895604
0.0897556
0.0899402
0.0901151
0.0902811
0.0904388
0.090589
0.0842631
0.0845944
0.0849208
0.0852423
0.0855587
0.0858698
0.0861757
0.0864762
0.0867715
0.0870614
0.0873461
0.0876235
0.0878867
0.0881322
0.0883619
0.0885772
0.0887795
0.08897
0.0891498
0.0893196
0.0894804
0.0896329
0.0830547
0.0834052
0.0837516
0.0840934
0.0844303
0.084762
0.0850882
0.0854087
0.0857233
0.0860319
0.0863345
0.0866287
0.086907
0.0871658
0.0874069
0.0876321
0.0878428
0.0880404
0.088226
0.0884007
0.0885652
0.0887206
0.0818957
0.082262
0.082625
0.0829842
0.083339
0.083689
0.0840338
0.0843729
0.0847061
0.0850329
0.0853531
0.0856643
0.0859581
0.0862308
0.0864843
0.0867203
0.0869404
0.0871462
0.0873388
0.0875193
0.0876888
0.0878482
0.0807858
0.0811658
0.0815432
0.0819175
0.0822881
0.0826545
0.083016
0.0833723
0.0837226
0.0840666
0.0844038
0.0847314
0.0850406
0.0853272
0.0855932
0.0858405
0.0860706
0.0862851
0.0864854
0.0866726
0.0868478
0.0870121
0.0797185
0.0801113
0.0805022
0.0808908
0.0812763
0.0816581
0.0820355
0.0824079
0.0827747
0.0831351
0.0834887
0.0838322
0.0841564
0.0844568
0.0847353
0.0849939
0.0852342
0.0854578
0.0856661
0.0858604
0.0860419
0.0862115
0.0786745
0.0790814
0.0794872
0.0798911
0.0802925
0.0806907
0.0810848
0.0814741
0.0818578
0.0822353
0.0826056
0.0829655
0.0833051
0.0836196
0.0839109
0.084181
0.0844318
0.0846647
0.0848814
0.0850832
0.0852712
0.0854466
0.0776253
0.0780495
0.0784732
0.0788956
0.0793161
0.0797337
0.0801475
0.0805566
0.0809601
0.081357
0.0817464
0.0821248
0.0824815
0.0828115
0.0831169
0.0833997
0.0836617
0.0839048
0.0841305
0.0843402
0.0845353
0.084717
0.0765339
0.07698
0.0774265
0.0778727
0.0783175
0.0787598
0.0791986
0.0796327
0.080061
0.0804823
0.0808956
0.0812967
0.0816745
0.0820234
0.0823456
0.0826435
0.0829189
0.0831737
0.0834098
0.0836287
0.0838319
0.0840206
0.0753592
0.0758326
0.0763079
0.0767841
0.0772599
0.0777341
0.0782053
0.078672
0.0791328
0.079586
0.0800304
0.0804613
0.0808665
0.0812399
0.081584
0.0819011
0.0821935
0.0824632
0.0827124
0.0829426
0.0831557
0.083353
0.0740595
0.0745654
0.0750755
0.0755884
0.0761029
0.0766172
0.0771296
0.0776383
0.0781412
0.0786363
0.0791218
0.0795921
0.0800339
0.08044
0.0808132
0.0811561
0.0814712
0.0817609
0.0820273
0.0822726
0.0824986
0.0827072
0.0725975
0.0731398
0.0736895
0.0742453
0.0748054
0.0753681
0.0759311
0.0764919
0.0770481
0.0775969
0.0781357
0.0786578
0.0791478
0.0795976
0.08001
0.0803876
0.0807334
0.08105
0.08134
0.0816057
0.0818494
0.0820731
0.0709445
0.0715246
0.0721166
0.0727192
0.0733305
0.0739485
0.0745704
0.0751935
0.0758143
0.0764294
0.077035
0.0776232
0.0781757
0.0786826
0.0791466
0.0795705
0.0799573
0.0803102
0.080632
0.0809256
0.0811935
0.0814381
0.0356156
0.0314752
0.0278661
0.0253414
0.0239219
0.0235333
0.0847107
0.0848999
0.0849974
0.0849992
0.0850214
0.0851378
0.102766
0.103701
0.104968
0.106547
0.108394
0.110464
0.106688
0.107341
0.108194
0.109194
0.110281
0.111395
0.109432
0.110063
0.11074
0.11141
0.112064
0.112707
0.10854
0.108596
0.108647
0.108763
0.108963
0.109234
0.103825
0.103999
0.104198
0.104431
0.104702
0.105013
0.099884
0.100076
0.100302
0.100562
0.100855
0.101179
0.0979675
0.0981558
0.0983757
0.0986256
0.0989032
0.0992061
0.0972762
0.0974211
0.0975929
0.0977897
0.0980093
0.0982484
0.0970209
0.0971232
0.0972444
0.0973829
0.097537
0.0977044
0.0965269
0.0965958
0.0966776
0.0967713
0.0968753
0.0969878
0.0957643
0.0958149
0.0958725
0.0959362
0.096005
0.0960776
0.0948088
0.0948495
0.0948925
0.0949372
0.0949828
0.0950284
0.0938048
0.0938393
0.0938724
0.0939035
0.0939321
0.0939575
0.0927304
0.0927593
0.092785
0.0928069
0.0928246
0.0928376
0.0916837
0.0917082
0.0917277
0.0917421
0.0917509
0.0917538
0.0906756
0.090695
0.0907086
0.0907161
0.0907173
0.0907119
0.0897183
0.089733
0.089741
0.0897423
0.0897365
0.0897237
0.0888053
0.0888155
0.0888186
0.0888144
0.0888027
0.0887834
0.087933
0.0879397
0.0879387
0.08793
0.0879135
0.087889
0.0870979
0.0871021
0.0870983
0.0870863
0.0870661
0.0870377
0.0862993
0.0863021
0.0862965
0.0862825
0.0862599
0.0862288
0.0855369
0.0855394
0.0855332
0.0855181
0.0854943
0.0854616
0.0848105
0.0848135
0.0848075
0.0847924
0.0847682
0.084735
0.084118
0.0841223
0.0841173
0.0841029
0.0840792
0.0840461
0.0834554
0.0834614
0.0834579
0.0834448
0.0834221
0.0833899
0.0828158
0.082824
0.0828223
0.0828109
0.0827898
0.0827588
0.0821898
0.0822002
0.0822007
0.0821913
0.082172
0.0821428
0.0815654
0.0815779
0.0815806
0.0815733
0.0815562
0.0815292
0.0240182
0.0250595
0.0266182
0.0286577
0.0311389
0.033765
0.0363388
0.0387102
0.040785
0.0424931
0.0437773
0.0445744
0.0448855
0.0448695
0.0446027
0.0441731
0.0436314
0.043028
0.0424214
0.0418656
0.041405
0.0410766
0.0853516
0.0854532
0.0848083
0.0828912
0.0807516
0.0795642
0.0794066
0.08007
0.0813606
0.0830073
0.0847721
0.0864635
0.0877384
0.0886497
0.0891709
0.0892792
0.0890536
0.0885324
0.0877455
0.086784
0.0857228
0.0846131
0.112625
0.114884
0.117409
0.12023
0.122916
0.125048
0.126397
0.126971
0.126766
0.125863
0.124474
0.122971
0.12181
0.121176
0.120943
0.120876
0.120827
0.12072
0.120517
0.120193
0.119742
0.119187
0.112425
0.113332
0.114223
0.115111
0.116019
0.116997
0.118115
0.119338
0.120848
0.122535
0.124268
0.125916
0.12741
0.128524
0.129263
0.12965
0.129724
0.129532
0.129207
0.12872
0.128059
0.127221
0.113261
0.113759
0.114281
0.114837
0.115443
0.116106
0.11683
0.117609
0.118424
0.119244
0.120036
0.120756
0.121254
0.121752
0.122216
0.122633
0.123012
0.123348
0.123623
0.123828
0.123971
0.124057
0.109491
0.109714
0.109982
0.110295
0.11065
0.11104
0.111454
0.111878
0.112302
0.112711
0.113097
0.113456
0.11379
0.114107
0.114413
0.114703
0.11497
0.115207
0.115408
0.115566
0.115668
0.115717
0.10527
0.105463
0.10569
0.105948
0.106234
0.106543
0.106871
0.107212
0.107562
0.107917
0.108273
0.108627
0.108967
0.109286
0.109582
0.10985
0.110088
0.110291
0.110455
0.110577
0.110655
0.110686
0.101451
0.101662
0.101901
0.102163
0.102446
0.102745
0.103055
0.103372
0.10369
0.104004
0.104309
0.104597
0.104854
0.105075
0.105258
0.105403
0.105511
0.105579
0.105607
0.105594
0.105538
0.10544
0.0994763
0.0997048
0.0999482
0.100203
0.100467
0.100735
0.101004
0.101269
0.101525
0.10177
0.101996
0.102197
0.102362
0.102487
0.10257
0.102611
0.102611
0.10257
0.102488
0.102367
0.102207
0.10201
0.0984693
0.0986597
0.0988552
0.0990529
0.0992497
0.0994419
0.0996256
0.0997965
0.09995
0.100081
0.100185
0.100254
0.100284
0.100273
0.100222
0.100133
0.100008
0.0998487
0.099657
0.0994357
0.0991868
0.0989127
0.0978521
0.0979679
0.0980815
0.0981903
0.0982919
0.0983833
0.0984614
0.0985228
0.0985636
0.0985799
0.098568
0.0985239
0.0984458
0.0983363
0.098197
0.0980297
0.0978363
0.0976188
0.0973792
0.0971196
0.0968418
0.0965478
0.0970705
0.0971125
0.0971483
0.097176
0.0971935
0.0971983
0.0971878
0.0971591
0.0971088
0.0970334
0.0969298
0.0967953
0.096632
0.0964445
0.0962347
0.0960045
0.0957556
0.0954901
0.0952098
0.0949168
0.0946129
0.0943003
0.0961079
0.0960876
0.096059
0.0960202
0.0959695
0.0959049
0.0958243
0.0957255
0.0956061
0.0954637
0.0952957
0.0951009
0.0948835
0.0946497
0.0944009
0.0941388
0.0938648
0.0935807
0.0932877
0.0929873
0.0926804
0.0923683
0.0950227
0.0949596
0.0948861
0.0948011
0.094703
0.0945903
0.0944616
0.094315
0.0941488
0.0939612
0.0937502
0.0935151
0.093261
0.0929946
0.0927173
0.0924306
0.0921358
0.0918341
0.0915267
0.0912144
0.0908983
0.0905792
0.0939225
0.0938237
0.0937141
0.0935922
0.0934569
0.093307
0.0931411
0.092958
0.0927561
0.0925341
0.0922906
0.0920256
0.0917453
0.0914565
0.0911599
0.0908567
0.0905477
0.0902338
0.0899157
0.0895939
0.089269
0.0889415
0.0927844
0.0926633
0.092531
0.0923865
0.0922286
0.0920561
0.091868
0.0916627
0.0914389
0.0911952
0.0909302
0.0906449
0.0903457
0.0900393
0.0897262
0.089407
0.0890827
0.0887541
0.088422
0.0880871
0.08775
0.0874113
0.0916866
0.0915487
0.0913994
0.0912376
0.0910623
0.0908724
0.0906666
0.0904438
0.0902025
0.0899413
0.0896587
0.0893549
0.0890373
0.088713
0.088383
0.0880484
0.0877103
0.0873694
0.0870261
0.0866808
0.0863339
0.0859858
0.0906336
0.0904824
0.0903192
0.0901431
0.0899531
0.0897479
0.0895266
0.0892878
0.0890303
0.0887525
0.088453
0.0881326
0.0877991
0.0874605
0.0871177
0.0867714
0.0864223
0.086071
0.085718
0.0853638
0.0850091
0.0846541
0.0896353
0.089472
0.0892963
0.0891073
0.0889038
0.088685
0.0884496
0.0881966
0.0879246
0.0876325
0.0873189
0.0869847
0.0866384
0.0862881
0.0859346
0.0855785
0.0852204
0.084861
0.0845008
0.0841403
0.0837798
0.0834198
0.0886862
0.088512
0.0883249
0.0881242
0.0879088
0.0876778
0.0874302
0.0871649
0.0868808
0.0865767
0.0862513
0.0859059
0.0855492
0.0851895
0.0848274
0.0844637
0.0840989
0.0837337
0.0833685
0.0830038
0.0826399
0.0822773
0.087784
0.0875999
0.0874029
0.087192
0.0869664
0.0867252
0.0864675
0.0861923
0.0858984
0.0855849
0.0852506
0.0848966
0.0845322
0.0841655
0.0837975
0.0834285
0.0830593
0.0826903
0.0823219
0.0819545
0.0815884
0.0812238
0.0869263
0.0867339
0.0865285
0.0863093
0.0860754
0.0858262
0.0855605
0.0852775
0.0849763
0.0846556
0.0843145
0.0839541
0.0835839
0.0832121
0.0828394
0.0824664
0.0820934
0.081721
0.0813496
0.0809793
0.0806105
0.0802434
0.0861124
0.0859132
0.0857012
0.0854754
0.0852351
0.0849796
0.0847078
0.084419
0.084112
0.0837857
0.0834392
0.0830736
0.0826982
0.0823217
0.0819444
0.0815668
0.0811895
0.0808127
0.0804369
0.0800622
0.0796891
0.0793175
0.0853415
0.0851371
0.0849198
0.0846889
0.0844436
0.084183
0.0839063
0.0836124
0.0833002
0.0829687
0.0826166
0.0822451
0.0818636
0.0814807
0.0810969
0.0807125
0.080328
0.0799439
0.0795604
0.0791779
0.0787966
0.0784169
0.0846123
0.0844035
0.0841819
0.0839466
0.0836967
0.0834313
0.0831495
0.08285
0.0825318
0.0821935
0.0818338
0.0814537
0.0810628
0.0806697
0.080275
0.0798792
0.0794827
0.079086
0.0786897
0.078294
0.0778993
0.0775061
0.0839213
0.0837084
0.0834824
0.0832423
0.0829871
0.0827158
0.0824271
0.0821199
0.0817927
0.081444
0.0810721
0.0806782
0.0802719
0.0798623
0.0794501
0.0790358
0.0786202
0.0782039
0.0777876
0.0773717
0.076957
0.0765439
0.083263
0.0830452
0.0828135
0.0825668
0.082304
0.0820238
0.0817247
0.0814053
0.0810639
0.0806986
0.0803075
0.0798917
0.0794614
0.0790263
0.0785874
0.0781455
0.0777018
0.077257
0.0768123
0.0763684
0.0759261
0.0754862
0.0826292
0.0824042
0.082164
0.0819074
0.0816328
0.0813387
0.0810233
0.0806849
0.0803213
0.0799306
0.0795105
0.0790619
0.0785963
0.0781243
0.0776475
0.0771672
0.076685
0.0762021
0.0757201
0.07524
0.0747631
0.0742901
0.0820089
0.081773
0.0815198
0.0812477
0.080955
0.0806397
0.0802997
0.0799329
0.0795367
0.079109
0.0786471
0.0781525
0.0776379
0.077116
0.0765888
0.0760584
0.0755271
0.0749967
0.0744691
0.0739458
0.0734283
0.0729175
0.081389
0.0811363
0.0808635
0.0805684
0.080249
0.0799028
0.0795274
0.0791201
0.0786783
0.0781993
0.0776808
0.0771247
0.0765463
0.0759604
0.0753702
0.0747786
0.0741886
0.0736027
0.0730232
0.0724518
0.0718903
0.0713397
0.0408912
0.0407628
0.0407
0.040706
0.0407725
0.0408772
0.0409846
0.0410507
0.0410329
0.0409082
0.0407013
0.0405208
0.0405804
0.0411695
0.0425615
0.0448156
0.0477302
0.0510911
0.054672
0.0581972
0.0612825
0.0635265
0.0635766
0.0615341
0.0584278
0.054902
0.0501456
0.0444372
0.0384044
0.0320838
0.025398
0.0183101
0.0109342
0.00403749
0.000850043
0.0836195
0.0827053
0.0816695
0.0806153
0.0795557
0.0784716
0.0774548
0.0765465
0.0757678
0.0751113
0.0745942
0.0742618
0.0742143
0.0746401
0.0758171
0.0779615
0.0811716
0.0855371
0.091066
0.0970953
0.102059
0.103319
0.0985832
0.0898821
0.0807114
0.0758245
0.0752107
0.0749866
0.0726421
0.0669511
0.0574061
0.0445942
0.02876
0.0123383
0.00139684
0.118593
0.11799
0.117306
0.116534
0.115704
0.114828
0.113929
0.113073
0.112344
0.111851
0.111665
0.111793
0.112191
0.112729
0.113204
0.113441
0.113054
0.111576
0.109593
0.108172
0.107386
0.106663
0.0964149
0.0787275
0.0648665
0.0584268
0.0575854
0.05659
0.0542827
0.0492939
0.0421922
0.0330499
0.0223135
0.0103674
0.00116188
0.126427
0.125728
0.124957
0.124085
0.123178
0.122302
0.121544
0.120998
0.120738
0.120675
0.120177
0.119124
0.11662
0.112218
0.105503
0.0971393
0.088377
0.0808033
0.0760522
0.0769149
0.0794381
0.0781916
0.0685082
0.0530699
0.0402962
0.0327679
0.0292761
0.0270617
0.0243955
0.021173
0.0175901
0.0134682
0.00868356
0.00394963
0.000662957
0.124141
0.124254
0.124364
0.124468
0.124558
0.124595
0.124523
0.124238
0.123505
0.122302
0.120497
0.117757
0.113386
0.106692
0.0974129
0.0838172
0.0692688
0.0618735
0.0628198
0.0671548
0.0720011
0.0740514
0.0692935
0.0612581
0.0546935
0.0517072
0.0507911
0.0493684
0.0465618
0.0421741
0.0361681
0.0282569
0.018594
0.00810119
0.000900136
0.115753
0.115814
0.115838
0.115797
0.115653
0.115351
0.114816
0.113975
0.112717
0.11084
0.108041
0.103893
0.0978286
0.088987
0.077395
0.065224
0.054129
0.0462156
0.0428282
0.0430632
0.0455731
0.048662
0.0500416
0.0497344
0.0477255
0.0446361
0.0419539
0.0398537
0.0371771
0.0335513
0.0285469
0.0221784
0.0143916
0.00615769
0.00066637
0.11072
0.110796
0.110856
0.11089
0.110883
0.110813
0.110641
0.110312
0.109736
0.108744
0.107099
0.104644
0.101181
0.0964361
0.0899391
0.0811511
0.0703854
0.0589416
0.0476887
0.0375514
0.0302121
0.0260865
0.0241259
0.0223114
0.0203405
0.0187528
0.0173211
0.0159229
0.0144939
0.012603
0.0103103
0.00773347
0.00499052
0.00225301
0.000329074
0.105366
0.105348
0.105301
0.105212
0.105062
0.104827
0.104473
0.103953
0.103206
0.102145
0.10065
0.0985296
0.0954972
0.0911459
0.0849767
0.0768789
0.0674329
0.0572317
0.0468193
0.0368071
0.0278884
0.0215428
0.0186507
0.0172173
0.0155082
0.013597
0.0115981
0.00961646
0.00781265
0.0061313
0.00460537
0.0032226
0.00193659
0.000785075
0.000177668
0.101856
0.10177
0.101655
0.101501
0.101294
0.101015
0.100636
0.100117
0.0994023
0.0984094
0.0970332
0.0951464
0.0925831
0.0891175
0.0844938
0.0787262
0.0721241
0.0650053
0.0578466
0.0511637
0.0453854
0.0406749
0.0373166
0.0348086
0.0324093
0.0297728
0.0268154
0.0235273
0.0200311
0.0163641
0.0125892
0.00880315
0.00515784
0.00200977
0.000257989
0.0987049
0.0985754
0.0984137
0.0982111
0.0979565
0.0976351
0.0972276
0.0967088
0.0960458
0.0951957
0.0941027
0.0926938
0.0908732
0.0885144
0.0854779
0.0817892
0.0776148
0.0730446
0.0682172
0.0632933
0.0583913
0.0533713
0.0483445
0.043445
0.0385163
0.0335815
0.028695
0.0239479
0.0194263
0.0151948
0.0112959
0.00775666
0.00460398
0.00192024
0.000210352
0.0963316
0.0961989
0.0960398
0.0958482
0.0956162
0.0953333
0.0949857
0.0945546
0.0940144
0.0933302
0.0924556
0.0913384
0.0899144
0.0881026
0.085823
0.0831251
0.0801306
0.0768656
0.0733554
0.0695931
0.0655105
0.0608259
0.0555697
0.0501555
0.0446915
0.0391725
0.0337055
0.0284048
0.0233277
0.0185142
0.0139836
0.00973849
0.00580407
0.00235546
0.000272372
0.0940758
0.0939401
0.0937796
0.0935889
0.0933611
0.0930872
0.0927561
0.0923532
0.0918601
0.0912536
0.0905044
0.0895757
0.0884214
0.086983
0.0851997
0.0830987
0.0807462
0.0781126
0.0751461
0.071759
0.0678173
0.0629999
0.0573135
0.0513118
0.0451825
0.0390512
0.0330771
0.0274083
0.022132
0.0172833
0.0128639
0.00886545
0.00528499
0.00219869
0.000227586
0.0921472
0.0920162
0.0918633
0.0916841
0.091473
0.0912228
0.0909243
0.0905651
0.0901291
0.0895939
0.088936
0.0881242
0.0871183
0.0858645
0.0843018
0.0824389
0.0803132
0.0778739
0.0750468
0.0717257
0.0677651
0.0628348
0.0569473
0.0507423
0.0444091
0.0381171