/*--------------------------------*- C++ -*----------------------------------*\
  =========                 |
  \\      /  F ield         | OpenFOAM: The Open Source CFD Toolbox
   \\    /   O peration     | Website:  https://openfoam.org
    \\  /    A nd           | Version:  8
     \\/     M anipulation  |
\*---------------------------------------------------------------------------*/
FoamFile
{
    version     2.0;
    format      ascii;
    class       volScalarField;
    location    "0.23";
    object      p;
}
// * * * * * * * * * * * * * * * * * * * * * * * * * * * * * * * * * * * * * //

dimensions      [1 -1 -2 0 0 0 0];

internalField   nonuniform List<scalar> 
15677
(
117634
117636
117634
117631
117627
117621
117614
117604
117593
117578
117560
117534
117507
117472
117392
117295
117209
117138
117068
117000
116940
116894
116856
116826
116804
116787
116776
116767
116760
116753
116746
116740
116734
116728
116726
88827.1
88766.6
88663.3
88540
88420.5
88313.6
88225.7
88159.9
88110.1
88068
88072.5
88173.2
88364.9
88733.2
89178.3
89528.6
89776.7
89933.5
90024
90047.9
89991.8
89868.7
89727.2
89591.2
89463.7
89349.9
89252.4
89169.4
89098.7
89039.1
88989.3
88945.3
88908.3
88875.1
88847
107543
107537
107519
107481
107413
107310
107165
106972
106729
106454
106179
105997
105935
106012
106232
106498
106779
107063
107317
107524
107721
107915
108090
108242
108372
108478
108564
108633
108691
108737
108774
108808
108837
108866
108897
97026.4
97034.8
97047
97060.4
97073
97083.1
97088.3
97086.4
97072
97038.8
96979.2
96890.4
96833.6
96777.8
96713.3
96662.8
96598
96517
96417
96288.8
96131.1
95956.8
95788.7
95642.3
95527.8
95449
95402.8
95381.3
95360
95340.1
95323.8
95309.6
95297.2
95285.5
95278
103570
103579
103592
103610
103631
103655
103682
103705
103723
103737
103750
103746
103764
103793
103833
103874
103913
103950
103986
104027
104077
104136
104199
104266
104337
104413
104484
104546
104608
104667
104721
104770
104814
104853
104886
99987.1
99988.5
99988
99984.6
99976.2
99961.4
99939.5
99910
99871.1
99827.3
99784.3
99740.6
99678.5
99610.9
99544.9
99488.5
99430.9
99361.1
99282.2
99202.2
99125.2
99056.4
99000.1
98956.5
98925.2
98896.9
98875
98855.5
98839.2
98821.8
98806.8
98794.4
98783.9
98773.4
98765.9
102685
102687
102690
102693
102695
102695
102695
102696
102696
102700
102707
102716
102717
102709
102694
102676
102662
102657
102661
102675
102698
102733
102773
102808
102829
102849
102868
102883
102896
102908
102919
102928
102937
102945
102950
100581
100582
100581
100580
100577
100574
100571
100568
100563
100554
100546
100539
100533
100529
100523
100515
100497
100473
100446
100418
100388
100363
100344
100331
100323
100315
100305
100297
100290
100284
100278
100274
100270
100266
100265
102083
102082
102081
102082
102084
102087
102093
102097
102099
102098
102093
102086
102075
102060
102046
102035
102028
102026
102028
102036
102049
102055
102058
102062
102067
102072
102077
102081
102084
102088
102091
102095
102097
102100
102102
100993
100992
100992
100991
100990
100988
100988
100988
100988
100990
100992
100995
100998
101001
101000
100996
100990
100982
100972
100964
100959
100959
100958
100956
100953
100950
100946
100942
100939
100937
100935
100933
100931
100929
100930
101748
101748
101748
101748
101748
101748
101747
101746
101744
101741
101737
101731
101724
101717
101712
101709
101708
101709
101711
101706
101702
101699
101697
101697
101698
101699
101701
101702
101703
101704
101705
101705
101706
101707
101707
101237
101237
101236
101234
101233
101232
101231
101231
101231
101232
101233
101235
101237
101237
101237
101235
101233
101232
101232
101236
101239
101240
101241
101240
101239
101237
101235
101233
101232
101230
101229
101228
101227
101227
101227
101588
101588
101588
101587
101587
101586
101585
101584
101582
101579
101576
101572
101568
101564
101561
101559
101556
101551
101546
101541
101537
101534
101533
101532
101532
101533
101534
101535
101535
101535
101536
101536
101536
101536
101536
101349
101349
101348
101347
101346
101346
101345
101345
101345
101346
101347
101347
101348
101348
101349
101350
101353
101356
101358
101361
101362
101363
101363
101362
101361
101360
101359
101358
101357
101356
101355
101355
101354
101354
101354
101514
101514
101514
101514
101513
101513
101512
101511
101509
101507
101505
101502
101498
101495
101490
101486
101482
101478
101474
101472
101469
101468
101467
101467
101467
101467
101467
101468
101468
101468
101468
101468
101468
101468
101468
101399
101399
101398
101398
101397
101397
101396
101396
101397
101397
101398
101398
101400
101402
101404
101405
101407
101409
101410
101411
101411
101411
101411
101410
101410
101409
101408
101407
101407
101406
101406
101405
101405
101405
101405
101480
101480
101479
101479
101479
101478
101478
101476
101475
101473
101471
101468
101465
101461
101458
101455
101452
101450
101448
101447
101445
101445
101444
101444
101444
101444
101444
101444
101444
101444
101444
101444
101444
101444
101444
101423
101422
101422
101422
101421
101421
101421
101421
101422
101422
101423
101424
101425
101426
101427
101427
101428
101429
101429
101429
101429
101429
101428
101428
101427
101427
101426
101426
101425
101425
101425
101424
101424
101424
101425
101461
101461
101461
101461
101460
101460
101459
101458
101457
101455
101453
101451
101449
101447
101445
101444
101442
101441
101440
101439
101438
101438
101437
101437
101437
101437
101437
101437
101437
101437
101437
101437
101437
101437
101437
101435
101435
101434
101434
101434
101434
101434
101434
101434
101434
101434
101434
101435
101435
101435
101435
101435
101435
101435
101435
101434
101434
101434
101433
101433
101433
101432
101432
101432
101432
101432
101431
101431
101431
101431
101451
101451
101451
101450
101450
101450
101449
101448
101448
101447
101446
101444
101443
101442
101441
101440
101439
101438
101438
101437
101437
101436
101436
101436
101436
101436
101435
101435
101435
101435
101435
101435
101435
101435
101435
101440
101440
101440
101439
101439
101439
101439
101439
101438
101438
101438
101438
101438
101438
101438
101437
101437
101437
101437
101436
101436
101436
101435
101435
101435
101435
101435
101434
101434
101434
101434
101434
101434
101434
101434
101446
101445
101445
101445
101445
101445
101444
101444
101443
101442
101442
101441
101440
101439
101439
101438
101438
101437
101437
101437
101436
101436
101436
101436
101435
101435
101435
101435
101435
101435
101435
101435
101435
101435
101435
101441
101441
101441
101441
101440
101440
101440
101440
101439
101439
101439
101439
101438
101438
101438
101437
101437
101437
101436
101436
101436
101436
101436
101435
101435
101435
101435
101435
101435
101435
101435
101435
101435
101435
101435
101443
101443
101442
101442
101442
101442
101441
101441
101441
101440
101440
101439
101439
101438
101438
101437
101437
101437
101436
101436
101436
101436
101436
101435
101435
101435
101435
101435
101435
101435
101435
101435
101435
101435
101435
101441
101440
101440
101440
101440
101440
101439
101439
101439
101439
101438
101438
101438
101437
101437
101437
101436
101436
101436
101436
101436
101435
101435
101435
101435
101435
101435
101435
101435
101435
101435
101435
101435
101435
101435
101441
101441
101440
101440
101440
101440
101439
101439
101439
101438
101438
101438
101437
101437
101436
101436
101436
101436
101435
101435
101435
101435
101435
101435
101435
101435
101435
101435
101435
101435
101435
101435
101435
101435
101435
101440
101439
101439
101439
101439
101439
101438
101438
101438
101438
101437
101437
101436
101436
101436
101436
101435
101435
101435
101435
101435
101435
101435
101435
101435
101435
101435
101435
101435
101435
101435
101435
101435
101435
101435
101439
101439
101439
101439
101438
101438
101438
101438
101437
101437
101437
101436
101436
101436
101435
101435
101435
101435
101434
101434
101434
101434
101434
101434
101434
101434
101435
101435
101435
101435
101435
101435
101435
101435
101435
101438
101438
101438
101438
101438
101437
101437
101437
101437
101436
101436
101436
101435
101435
101435
101434
101434
101434
101434
101434
101434
101434
101434
101434
101434
101434
101434
101434
101434
101435
101435
101435
101435
101435
101435
116726
116763
116816
116871
116928
116988
117053
117123
117198
117276
117358
117445
117533
117621
117707
117792
117876
117957
118037
118116
118194
118268
88837.6
88785.5
88717
88648.2
88578.3
88505.7
88430.3
88352.1
88270.9
88187.2
88101.6
88014.2
87926.9
87845.3
87770.5
87702.1
87639.5
87582.1
87529.3
87479.7
87432.3
87398
108927
108974
109030
109090
109151
109218
109290
109368
109450
109538
109630
109727
109831
109936
110041
110145
110248
110349
110446
110539
110628
110698
95293.8
95293.4
95282.3
95273.3
95269.3
95269.7
95272.6
95278.3
95286.2
95295.7
95307.6
95320.6
95331.5
95342
95352.4
95362
95370.6
95377.6
95382.9
95386.1
95386
95393.4
104904
104916
104927
104932
104933
104929
104923
104913
104902
104888
104874
104860
104848
104838
104830
104823
104817
104813
104810
104808
104808
104804
98776.7
98789.2
98798.9
98809.8
98822.4
98836.2
98851.3
98867.8
98885.6
98904.4
98923.9
98942.9
98959.5
98974.8
98989.2
99002.6
99014.9
99026.1
99036.1
99044.8
99053.1
99064.5
102937
102924
102912
102900
102886
102872
102856
102841
102824
102807
102790
102774
102760
102748
102737
102728
102719
102711
102704
102698
102692
102685
100275
100289
100300
100311
100324
100337
100351
100365
100380
100395
100411
100425
100438
100449
100459
100468
100477
100485
100493
100499
100507
100516
102089
102077
102066
102054
102041
102028
102015
102001
101987
101973
101960
101946
101934
101924
101916
101908
101901
101894
101887
101881
101875
101869
100938
100948
100956
100965
100974
100983
100992
101002
101011
101020
101029
101037
101044
101050
101055
101060
101065
101069
101073
101077
101082
101087
101699
101691
101684
101676
101667
101659
101651
101642
101634
101626
101618
101610
101603
101597
101592
101588
101583
101579
101575
101571
101567
101563
101232
101238
101243
101248
101253
101258
101263
101268
101272
101277
101281
101284
101287
101290
101292
101294
101296
101298
101299
101301
101303
101305
101531
101527
101523
101519
101514
101509
101505
101500
101496
101491
101487
101483
101480
101477
101474
101471
101469
101467
101465
101463
101461
101458
101356
101359
101362
101364
101367
101369
101371
101373
101375
101377
101378
101379
101380
101381
101381
101382
101382
101382
101383
101383
101383
101383
101465
101463
101461
101459
101456
101454
101451
101449
101447
101445
101443
101442
101440
101439
101438
101437
101436
101435
101433
101432
101431
101429
101406
101407
101409
101409
101410
101411
101412
101412
101413
101414
101414
101415
101415
101415
101415
101415
101415
101414
101414
101414
101414
101414
101442
101442
101440
101439
101438
101437
101436
101435
101435
101434
101433
101432
101431
101430
101429
101429
101428
101427
101427
101426
101426
101425
101425
101425
101426
101426
101426
101426
101426
101426
101426
101426
101426
101426
101426
101425
101425
101425
101424
101424
101424
101424
101423
101423
101436
101435
101435
101434
101434
101433
101433
101432
101432
101431
101431
101430
101430
101429
101429
101428
101428
101428
101427
101427
101426
101426
101431
101431
101431
101431
101431
101431
101431
101431
101431
101430
101430
101430
101430
101429
101429
101429
101428
101428
101428
101427
101427
101427
101434
101434
101434
101434
101433
101433
101433
101432
101432
101432
101431
101431
101431
101430
101430
101430
101429
101429
101429
101428
101428
101428
101434
101434
101433
101433
101433
101433
101433
101433
101432
101432
101432
101432
101431
101431
101431
101430
101430
101430
101429
101429
101429
101429
101435
101434
101434
101434
101434
101434
101433
101433
101433
101433
101432
101432
101432
101432
101431
101431
101431
101431
101430
101430
101430
101429
101435
101434
101434
101434
101434
101434
101434
101434
101433
101433
101433
101433
101432
101432
101432
101432
101431
101431
101431
101431
101430
101430
101435
101435
101435
101435
101434
101434
101434
101434
101434
101434
101433
101433
101433
101433
101432
101432
101432
101432
101431
101431
101431
101431
101435
101435
101435
101435
101435
101435
101434
101434
101434
101434
101434
101434
101433
101433
101433
101433
101432
101432
101432
101432
101431
101431
101435
101435
101435
101435
101435
101435
101435
101435
101434
101434
101434
101434
101434
101433
101433
101433
101433
101433
101432
101432
101432
101432
101435
101435
101435
101435
101435
101435
101435
101435
101435
101435
101434
101434
101434
101434
101434
101433
101433
101433
101433
101432
101432
101432
101435
101435
101435
101435
101435
101435
101435
101435
101435
101435
101435
101434
101434
101434
101434
101434
101433
101433
101433
101433
101433
101432
101435
101435
101435
101435
101435
101435
101435
101435
101435
101435
101435
101435
101435
101434
101434
101434
101434
101434
101433
101433
101433
101433
118303
118306
118305
118303
118303
118313
87382.4
87376.5
87377.8
87378.3
87375.6
87373.9
110754
110832
110898
110954
110997
111024
95391.9
95351.8
95302
95244
95176.1
95095.2
104813
104846
104881
104917
104955
104993
99067.5
99052.6
99035.9
99019.1
99002.8
98986.7
102685
102699
102713
102727
102739
102752
100520
100515
100509
100504
100499
100495
101868
101874
101879
101885
101889
101894
101089
101087
101085
101084
101083
101082
101562
101564
101566
101568
101569
101571
101305
101304
101304
101303
101303
101303
101458
101458
101459
101459
101460
101460
101383
101383
101382
101382
101382
101382
101429
101429
101429
101429
101429
101429
101413
101413
101413
101413
101412
101412
101425
101425
101424
101424
101424
101424
101423
101422
101422
101422
101422
101422
101426
101426
101425
101425
101425
101425
101426
101426
101426
101426
101426
101425
101428
101427
101427
101427
101427
101427
101428
101428
101428
101428
101428
101427
101429
101429
101429
101429
101428
101428
101430
101430
101429
101429
101429
101429
101430
101430
101430
101430
101430
101430
101431
101431
101431
101430
101430
101430
101431
101431
101431
101431
101431
101431
101432
101432
101431
101431
101431
101431
101432
101432
101432
101432
101432
101431
101432
101432
101432
101432
101432
101432
118279
118196
118124
118046
117967
117886
117804
117720
117635
117549
117462
117376
117294
117216
117142
117071
117005
116942
116882
116824
116767
116721
87374.5
87400.6
87440.7
87481.5
87521.1
87559.9
87601.6
87650.8
87711.5
87782.3
87862.5
87953.6
88042.7
88130.6
88214.6
88290
88356.4
88414
88464.9
88511.2
88552.9
88576.6
111067
111074
111047
111007
110960
110905
110843
110780
110722
110672
110619
110573
110540
110508
110480
110460
110448
110443
110436
110422
110406
110402
94988.8
94885.6
94798.8
94720.5
94650.5
94589.3
94533.3
94479.1
94424.5
94372.7
94336.5
94309.1
94286.7
94267.1
94248
94231.7
94226.3
94235.1
94246.5
94256.4
94270.3
94279.7
105044
105107
105165
105222
105278
105335
105394
105455
105517
105581
105645
105709
105768
105815
105846
105862
105869
105868
105860
105845
105823
105802
98954.8
98917.8
98886
98856.2
98827.1
98798.5
98770.5
98742.8
98715.9
98690.2
98665.3
98640
98613.3
98588.3
98566.2
98545.6
98525.9
98507.3
98489.4
98473.6
98460.5
98444.6
102775
102807
102836
102865
102894
102924
102953
102983
103012
103042
103072
103102
103133
103162
103189
103215
103239
103260
103280
103297
103313
103330
100483
100465
100449
100433
100417
100400
100383
100366
100348
100329
100310
100290
100268
100246
100224
100202
100181
100161
100141
100123
100106
100087
101905
101921
101937
101952
101967
101983
101999
102016
102033
102051
102069
102089
102110
102131
102152
102171
102191
102209
102227
102244
102260
102277
101077
101068
101060
101052
101043
101034
101024
101013
101002
100991
100978
100964
100948
100933
100917
100902
100886
100871
100856
100841
100827
100811
101575
101583
101590
101597
101605
101613
101621
101630
101639
101648
101658
101669
101681
101694
101706
101718
101730
101742
101754
101766
101776
101787
101302
101298
101295
101292
101288
101284
101280
101276
101271
101265
101258
101251
101243
101234
101225
101216
101207
101198
101189
101180
101170
101161
101461
101464
101467
101470
101473
101477
101480
101484
101488
101493
101498
101503
101508
101514
101520
101527
101533
101540
101546
101553
101559
101565
101382
101381
101380
101379
101378
101377
101376
101374
101372
101370
101368
101365
101362
101358
101354
101349
101345
101340
101336
101331
101326
101320
101429
101431
101432
101433
101434
101435
101436
101437
101438
101439
101441
101444
101446
101449
101451
101454
101457
101460
101463
101466
101469
101472
101412
101412
101412
101412
101411
101411
101411
101410
101409
101408
101407
101406
101405
101404
101402
101400
101399
101397
101394
101392
101390
101387
101424
101424
101425
101425
101425
101426
101426
101427
101427
101428
101428
101429
101429
101430
101431
101432
101433
101434
101435
101436
101438
101439
101422
101422
101422
101422
101422
101422
101421
101421
101421
101421
101421
101420
101420
101420
101419
101418
101418
101417
101416
101415
101414
101413
101425
101425
101425
101425
101425
101425
101425
101425
101425
101426
101426
101426
101426
101426
101426
101427
101427
101427
101428
101428
101429
101429
101425
101425
101425
101425
101425
101425
101425
101425
101425
101425
101425
101425
101425
101425
101425
101424
101424
101424
101424
101423
101423
101422
101427
101427
101427
101427
101427
101427
101427
101427
101427
101427
101427
101427
101427
101427
101427
101427
101427
101427
101427
101427
101427
101427
101427
101427
101427
101427
101427
101427
101427
101427
101427
101427
101427
101427
101427
101427
101427
101427
101427
101427
101426
101426
101426
101426
101428
101428
101428
101428
101428
101428
101428
101428
101428
101428
101428
101428
101428
101428
101428
101428
101428
101428
101428
101428
101428
101428
101429
101429
101429
101429
101429
101429
101429
101429
101429
101429
101429
101428
101428
101428
101428
101428
101428
101428
101428
101428
101428
101428
101429
101429
101429
101429
101429
101429
101429
101429
101429
101429
101429
101429
101429
101429
101429
101429
101429
101429
101429
101429
101428
101429
101430
101430
101430
101430
101430
101430
101430
101430
101430
101430
101430
101430
101430
101429
101429
101429
101429
101429
101429
101429
101429
101429
101430
101430
101430
101430
101430
101430
101430
101430
101430
101430
101430
101430
101430
101430
101430
101430
101430
101430
101430
101429
101429
101430
101431
101431
101431
101431
101431
101431
101431
101431
101431
101431
101431
101431
101430
101430
101430
101430
101430
101430
101430
101430
101430
101430
101431
101431
101431
101431
101431
101431
101431
101431
101431
101431
101431
101431
101431
101431
101431
101431
101431
101431
101430
101430
101430
101430
101432
101432
101432
101432
101432
101432
101432
101432
101432
101432
101431
101431
101431
101431
101431
101431
101431
101431
101431
101431
101431
101431
116709
116708
116712
116716
116720
116724
116729
116734
116739
116744
116748
116753
116758
116763
116770
116779
116787
116796
116802
116819
116854
116898
116973
117065
117164
117250
117312
117350
117372
117379
117378
117373
117367
117362
117361
88574.7
88580.3
88584.2
88587.2
88590.4
88593.8
88597.6
88602.4
88608.5
88616.7
88627.5
88641.9
88662.2
88690.9
88730.9
88779.5
88835.7
88891.9
88953
89052.4
89219.2
89454.4
89667.3
89774.8
89723.8
89561.2
89397.7
89295.1
89247.9
89254.7
89298.1
89364.3
89449.9
89538.1
89600.6
110410
110395
110381
110367
110352
110333
110311
110286
110257
110223
110182
110129
110055
109951
109801
109609
109384
109121
108845
108621
108416
108273
108361
108527
108620
108625
108637
108686
108759
108846
108922
108963
108976
108968
108950
94263.5
94279.6
94300.9
94324.6
94353.7
94389.5
94432.3
94481.2
94535.9
94606.7
94709
94835.2
94984.7
95152.4
95324.8
95459
95537
95549.2
95488
95388.5
95285.5
95303.7
95399.3
95495.8
95511
95462.3
95426.6
95429.6
95459.9
95499.3
95539.2
95571.7
95593.1
95600.1
95591.3
105774
105733
105687
105637
105582
105522
105461
105394
105328
105262
105182
105094
104996
104897
104805
104730
104672
104599
104512
104456
104497
104539
104564
104516
104409
104280
104166
104103
104066
104047
104043
104050
104064
104081
104100
98433.2
98442
98454.3
98467
98481.2
98496.4
98511.2
98530.2
98549.5
98570
98598.1
98632.6
98678.2
98742.7
98815.6
98886.8
98943.2
98988
99031.6
99076.7
99110.2
99166.6
99235
99245.5
99215.4
99161.5
99109.1
99076.6
99069.9
99076.2
99086.1
99102
99124.8
99149.3
99169.2
103345
103340
103330
103319
103307
103294
103278
103260
103240
103217
103192
103160
103122
103072
103024
102983
102946
102913
102884
102863
102844
102822
102806
102801
102798
102802
102809
102817
102829
102842
102854
102862
102866
102867
102866
100075
100076
100078
100080
100082
100085
100087
100090
100093
100095
100095
100099
100104
100111
100125
100134
100139
100145
100155
100167
100176
100177
100177
100187
100204
100223
100241
100259
100273
100286
100296
100304
100309
100312
100312
102294
102296
102296
102296
102297
102297
102298
102298
102299
102299
102300
102302
102303
102306
102306
102308
102309
102310
102309
102304
102297
102282
102260
102237
102224
102213
102206
102200
102196
102194
102193
102194
102195
102197
102198
100800
100798
100797
100796
100794
100793
100792
100791
100789
100786
100782
100777
100769
100759
100747
100736
100727
100719
100713
100710
100710
100712
100716
100723
100729
100735
100739
100743
100746
100748
100749
100750
100750
100750
100750
101800
101801
101802
101803
101804
101804
101805
101806
101807
101809
101811
101814
101818
101825
101834
101845
101854
101863
101870
101876
101876
101872
101864
101856
101850
101845
101841
101838
101836
101835
101834
101835
101836
101837
101839
101153
101152
101151
101150
101150
101149
101148
101147
101146
101145
101143
101140
101136
101130
101121
101111
101101
101090
101079
101071
101065
101063
101065
101067
101067
101068
101069
101070
101072
101073
101075
101076
101077
101078
101078
101573
101573
101573
101574
101574
101574
101574
101574
101574
101574
101574
101575
101577
101581
101586
101593
101601
101610
101619
101627
101635
101639
101641
101641
101642
101643
101644
101644
101644
101645
101645
101645
101645
101645
101646
101316
101315
101315
101314
101314
101314
101314
101314
101313
101313
101312
101311
101309
101306
101301
101295
101288
101280
101272
101264
101255
101248
101244
101242
101240
101239
101238
101238
101238
101239
101239
101240
101241
101242
101243
101475
101476
101476
101476
101476
101476
101476
101475
101475
101474
101474
101474
101475
101476
101479
101483
101488
101493
101500
101507
101515
101522
101530
101535
101539
101542
101544
101546
101547
101547
101548
101548
101548
101548
101547
101385
101384
101384
101384
101384
101384
101384
101384
101384
101384
101384
101383
101383
101381
101379
101376
101372
101367
101362
101357
101351
101344
101338
101333
101329
101326
101324
101323
101323
101323
101323
101324
101325
101326
101327
101440
101440
101440
101440
101440
101440
101440
101439
101439
101438
101438
101438
101438
101438
101439
101440
101443
101446
101449
101454
101458
101464
101470
101476
101481
101485
101488
101490
101491
101492
101493
101493
101493
101493
101492
101412
101412
101411
101411
101411
101411
101411
101411
101411
101411
101411
101411
101411
101410
101409
101408
101406
101404
101402
101399
101396
101392
101388
101385
101382
101379
101377
101375
101375
101374
101375
101375
101376
101376
101377
101430
101429
101429
101429
101429
101429
101429
101428
101428
101428
101427
101427
101427
101427
101427
101427
101428
101429
101431
101433
101435
101438
101442
101445
101449
101452
101454
101456
101457
101458
101459
101459
101459
101459
101459
101422
101422
101422
101422
101421
101421
101421
101421
101421
101421
101421
101421
101420
101420
101420
101419
101419
101418
101417
101416
101415
101413
101412
101410
101409
101407
101406
101405
101405
101405
101405
101405
101405
101406
101406
101427
101427
101427
101427
101427
101427
101426
101426
101426
101426
101425
101425
101425
101425
101425
101425
101425
101425
101426
101427
101428
101429
101431
101432
101434
101436
101437
101439
101440
101440
101441
101441
101441
101441
101441
101426
101426
101426
101425
101425
101425
101425
101425
101425
101425
101424
101424
101424
101424
101424
101423
101423
101423
101423
101422
101422
101421
101421
101421
101420
101420
101420
101419
101419
101419
101419
101419
101419
101420
101420
101428
101427
101427
101427
101427
101427
101427
101427
101426
101426
101426
101426
101425
101425
101425
101425
101425
101425
101425
101425
101426
101426
101427
101428
101429
101430
101431
101432
101432
101433
101433
101433
101433
101434
101434
101428
101428
101427
101427
101427
101427
101427
101427
101426
101426
101426
101426
101426
101425
101425
101425
101425
101425
101425
101425
101425
101425
101425
101425
101425
101425
101425
101425
101425
101425
101425
101425
101426
101426
101426
101428
101428
101428
101428
101428
101428
101427
101427
101427
101427
101427
101426
101426
101426
101426
101426
101425
101425
101425
101426
101426
101426
101427
101427
101428
101428
101429
101429
101430
101430
101430
101430
101431
101431
101431
101429
101429
101429
101428
101428
101428
101428
101428
101427
101427
101427
101427
101426
101426
101426
101426
101426
101426
101426
101426
101426
101426
101426
101426
101426
101427
101427
101427
101427
101427
101428
101428
101428
101428
101428
101429
101429
101429
101429
101429
101428
101428
101428
101428
101428
101427
101427
101427
101427
101426
101426
101426
101426
101426
101426
101426
101426
101427
101427
101427
101428
101428
101428
101429
101429
101429
101429
101430
101430
101430
101429
101429
101429
101429
101429
101429
101429
101428
101428
101428
101428
101427
101427
101427
101426
101426
101426
101426
101426
101426
101426
101426
101427
101427
101427
101427
101428
101428
101428
101428
101428
101429
101429
101429
101429
101430
101430
101430
101429
101429
101429
101429
101429
101428
101428
101428
101427
101427
101427
101427
101426
101426
101426
101426
101426
101426
101426
101427
101427
101427
101428
101428
101428
101428
101429
101429
101429
101429
101429
101430
101430
101430
101430
101430
101429
101429
101429
101429
101428
101428
101428
101428
101427
101427
101427
101426
101426
101426
101426
101426
101426
101426
101427
101427
101427
101427
101428
101428
101428
101429
101429
101429
101429
101429
101429
101438
101438
101437
101437
101437
101437
101437
101436
101436
101436
101435
101435
101435
101434
101434
101434
101434
101433
101433
101433
101433
101433
101433
101434
101434
101434
101434
101434
101434
101434
101434
101435
101435
101435
101434
101437
101437
101437
101436
101436
101436
101436
101435
101435
101435
101434
101434
101434
101433
101433
101433
101433
101433
101433
101433
101433
101433
101433
101433
101433
101433
101434
101434
101434
101434
101434
101434
101435
101435
101434
101436
101436
101436
101436
101436
101435
101435
101435
101434
101434
101434
101433
101433
101433
101432
101432
101432
101432
101432
101432
101432
101432
101432
101432
101433
101433
101433
101433
101434
101434
101434
101434
101434
101434
101434
101435
101435
101435
101435
101435
101435
101434
101434
101434
101433
101433
101433
101432
101432
101432
101432
101431
101431
101431
101431
101431
101431
101432
101432
101432
101432
101433
101433
101433
101433
101434
101434
101434
101434
101434
101435
101435
101435
101434
101434
101434
101434
101433
101433
101433
101432
101432
101432
101431
101431
101431
101431
101431
101431
101431
101431
101431
101431
101431
101431
101432
101432
101432
101433
101433
101433
101433
101434
101434
101434
101434
101434
101434
101434
101434
101433
101433
101433
101432
101432
101432
101431
101431
101431
101430
101430
101430
101430
101430
101430
101430
101430
101430
101431
101431
101431
101431
101432
101432
101432
101433
101433
101433
101434
101433
101434
101433
101433
101433
101433
101433
101432
101432
101432
101431
101431
101431
101430
101430
101430
101430
101429
101429
101429
101429
101429
101429
101430
101430
101430
101430
101431
101431
101432
101432
101432
101433
101433
101433
101433
101433
101433
101433
101433
101432
101432
101432
101432
101431
101431
101431
101430
101430
101430
101429
101429
101429
101429
101429
101429
101429
101429
101429
101429
101429
101430
101430
101431
101431
101431
101432
101432
101433
101433
101433
101432
101432
101432
101432
101432
101432
101431
101431
101431
101430
101430
101430
101429
101429
101429
101429
101428
101428
101428
101428
101428
101428
101428
101428
101429
101429
101429
101430
101430
101431
101431
101432
101432
101432
101432
101432
101432
101432
101432
101431
101431
101431
101431
101430
101430
101430
101429
101429
101429
101428
101428
101428
101428
101427
101427
101427
101427
101427
101428
101428
101428
101429
101429
101429
101430
101430
101431
101431
101432
101432
101432
101431
101431
101431
101431
101431
101430
101430
101430
101430
101429
101429
101429
101428
101428
101428
101427
101427
101427
101427
101427
101427
101427
101427
101427
101427
101428
101428
101429
101429
101430
101430
101431
101431
101431
101431
101431
101431
101431
101430
101430
101430
101430
101429
101429
101429
101428
101428
101428
101427
101427
101427
101427
101426
101426
101426
101426
101426
101426
101426
101426
101427
101427
101428
101428
101429
101429
101430
101431
101430
101431
101431
101430
101430
101430
101430
101430
101429
101429
101429
101428
101428
101428
101427
101427
101427
101426
101426
101426
101426
101425
101425
101425
101425
101425
101426
101426
101426
101427
101427
101428
101429
101429
101430
101430
101430
101430
101430
101430
101430
101429
101429
101429
101429
101428
101428
101428
101427
101427
101427
101426
101426
101426
101425
101425
101425
101425
101424
101424
101424
101425
101425
101425
101426
101426
101427
101427
101428
101429
101429
101430
101430
101430
101430
101429
101429
101429
101429
101428
101428
101428
101427
101427
101427
101426
101426
101426
101425
101425
101425
101424
101424
101424
101424
101424
101424
101424
101424
101424
101425
101426
101426
101427
101428
101428
101430
101430
101429
101429
101429
101429
101429
101428
101428
101428
101427
101427
101427
101426
101426
101426
101425
101425
101425
101424
101424
101423