/*--------------------------------*- C++ -*----------------------------------*\
  =========                 |
  \\      /  F ield         | OpenFOAM: The Open Source CFD Toolbox
   \\    /   O peration     | Website:  https://openfoam.org
    \\  /    A nd           | Version:  8
     \\/     M anipulation  |
\*---------------------------------------------------------------------------*/
FoamFile
{
    version     2.0;
    format      ascii;
    class       surfaceScalarField;
    location    "0.23";
    object      phi;
}
// * * * * * * * * * * * * * * * * * * * * * * * * * * * * * * * * * * * * * //

dimensions      [1 0 -1 0 0 0 0];

internalField   nonuniform List<scalar> 
31053
(
-1.56267e-05
1.77412e-05
-2.92145e-05
1.677e-05
-4.43619e-05
1.97164e-05
-6.24912e-05
2.4022e-05
-8.52826e-05
2.9788e-05
-0.000113926
3.66875e-05
-0.000149018
4.42075e-05
-0.000190468
5.16827e-05
-0.000237232
5.81932e-05
-0.000286614
6.20885e-05
-0.000332771
6.01633e-05
-0.000360774
4.32617e-05
-0.000351174
6.78454e-06
-0.000285385
-4.79275e-05
-0.00018475
-8.29249e-05
-6.46808e-05
-0.000101983
6.24506e-05
-0.00010872
0.000190119
-0.000108633
0.000312648
-0.000102681
0.000426268
-9.30225e-05
0.000528809
-8.11489e-05
0.000610873
-6.09133e-05
0.000673771
-4.20524e-05
0.000720612
-2.62792e-05
0.000753866
-1.29903e-05
0.000776302
-2.48254e-06
0.000790699
5.24972e-06
0.00079927
1.0743e-05
0.000803742
1.44618e-05
0.000805484
1.67497e-05
0.000805584
1.78735e-05
0.000804892
1.80659e-05
0.000804105
1.74787e-05
0.000803695
1.63437e-05
1.54081e-05
0.00080287
-9.01723e-05
0.000107943
-0.000200632
0.000127267
-0.000324554
0.00014369
-0.000459512
0.000159047
-0.000603104
0.000173469
-0.000752732
0.000186428
-0.000904991
0.000196604
-0.00105465
0.0002015
-0.00119339
0.000197105
-0.00130854
0.000177445
-0.00138147
0.000133345
-0.00138805
5.01197e-05
-0.00131228
-6.86688e-05
-0.00114879
-0.000211134
-0.000958155
-0.000273318
-0.000755573
-0.000304281
-0.000552933
-0.000311015
-0.00035415
-0.000307022
-0.000163514
-0.0002929
1.5264e-05
-0.000271357
0.000181262
-0.000246717
0.000319975
-0.000199257
0.000433886
-0.000155659
0.000527391
-0.000119557
0.00060407
-8.95139e-05
0.000667044
-6.53559e-05
0.000719397
-4.7048e-05
0.000763289
-3.31221e-05
0.000800146
-2.23898e-05
0.000831028
-1.41395e-05
0.000856864
-7.97604e-06
0.000877211
-2.29903e-06
0.000892664
2.01045e-06
0.000903895
5.09998e-06
6.78928e-06
0.000912506
1.91104e-06
0.000105831
9.45104e-06
0.00011951
2.20251e-05
0.000130884
3.81257e-05
0.000142689
5.69838e-05
0.000154326
7.84495e-05
0.000164642
0.000102759
0.000171938
0.000130226
0.000173643
0.000160971
0.000165926
0.000194543
0.00014338
0.000229368
9.79492e-05
0.00026492
1.38891e-05
0.000266131
-7.06774e-05
0.000209331
-0.000155244
0.000129709
-0.000194518
4.43448e-05
-0.000219678
-3.62318e-05
-0.000231149
-0.000110012
-0.0002339
-0.000174582
-0.000228923
-0.000228775
-0.00021772
-0.000272854
-0.000203194
-0.000302272
-0.000170358
-0.000320742
-0.000137662
-0.000332325
-0.000108402
-0.00033914
-8.30885e-05
-0.000342602
-6.22485e-05
-0.000343899
-4.60599e-05
-0.000343106
-3.41822e-05
-0.000340455
-2.52755e-05
-0.000336489
-1.83101e-05
-0.000332169
-1.24758e-05
-0.000326566
-8.0626e-06
-0.000319972
-4.72696e-06
-0.000312739
-2.26462e-06
-2.27144e-07
-0.000305842
5.03047e-05
5.57592e-05
0.000100189
6.98732e-05
0.000152141
7.92008e-05
0.000208266
8.68625e-05
0.000270388
9.25385e-05
0.000340144
9.52654e-05
0.000419093
9.34125e-05
0.000508624
8.45914e-05
0.000608609
6.64721e-05
0.000715109
3.74638e-05
0.000811387
2.29232e-06
0.00086996
-4.4069e-05
0.000892224
-9.2386e-05
0.000881215
-0.000143682
0.000850731
-0.000163536
0.000815031
-0.000183506
0.000780466
-0.000196145
0.000749233
-0.00020225
0.000723526
-0.000202815
0.000704023
-0.00019782
0.000688232
-0.000187
0.000672087
-0.000153835
0.000651932
-0.000117147
0.000625697
-8.18236e-05
0.000592498
-4.95599e-05
0.000552185
-2.16084e-05
0.000505167
1.2729e-06
0.000456235
1.50315e-05
0.000405788
2.54201e-05
0.000355635
3.20643e-05
0.000307713
3.56433e-05
0.00026288
3.69471e-05
0.000221654
3.66567e-05
0.000184221
3.53097e-05
3.30565e-05
0.000151063
1.64312e-05
3.94499e-05
3.75519e-05
4.88865e-05
6.28214e-05
5.4075e-05
9.14229e-05
5.84234e-05
0.000122487
6.16575e-05
0.000154912
6.3056e-05
0.000187041
6.15342e-05
0.00021647
5.54444e-05
0.000240807
4.24583e-05
0.000259422
1.9213e-05
0.00027483
-1.27491e-05
0.000274405
-4.32259e-05
0.00026486
-8.2383e-05
0.000244757
-0.00012312
0.000215514
-0.000133906
0.000173902
-0.000141565
0.000120532
-0.000142515
5.68055e-05
-0.000138325
-1.58621e-05
-0.00013001
-9.56102e-05
-0.000117999
-0.000180034
-0.00010257
-0.000256224
-7.76932e-05
-0.000318571
-5.48797e-05
-0.000364321
-3.61636e-05
-0.000392353
-2.16157e-05
-0.000404007
-1.0047e-05
-0.000403496
6.74949e-07
-0.000397692
9.14174e-06
-0.0003887
1.6358e-05
-0.000376813
2.01136e-05
-0.000363089
2.18621e-05
-0.000348489
2.22926e-05
-0.000333746
2.18661e-05
-0.000319388
2.09083e-05
1.98812e-05
-0.00030625
2.69394e-05
1.24823e-05
5.92291e-05
1.65714e-05
9.55422e-05
1.77368e-05
0.000136491
1.74469e-05
0.000182674
1.54454e-05
0.000234312
1.13812e-05
0.000290171
5.63347e-06
0.000346683
-1.11795e-06
0.0003982
-9.11782e-06
0.000430536
-1.31907e-05
0.000434225
-1.65323e-05
0.000418772
-2.79096e-05
0.000387803
-5.15673e-05
0.000347974
-8.34699e-05
0.00030875
-9.48454e-05
0.000269408
-0.00010236
0.000230556
-0.0001038
0.000192462
-0.000100384
0.000154921
-9.26118e-05
0.000117197
-8.03915e-05
7.81269e-05
-6.35863e-05
3.95844e-05
-3.91975e-05
1.33148e-06
-1.66464e-05
-3.58499e-05
1.0255e-06
-6.86431e-05
1.11953e-05
-9.68905e-05
1.82267e-05
-0.000119213
2.30237e-05
-0.000135836
2.57999e-05
-0.000146699
2.72477e-05
-0.000154328
2.77681e-05
-0.000160028
2.75864e-05
-0.000164589
2.68775e-05
-0.000168487
2.57868e-05
-0.000171994
2.44351e-05
2.27724e-05
-0.000174867
6.73709e-06
5.74402e-06
1.65405e-05
6.76995e-06
2.72819e-05
6.99885e-06
3.80348e-05
6.69773e-06
4.78111e-05
5.67404e-06
5.56529e-05
3.544e-06
6.07331e-05
5.59265e-07
6.50053e-05
-5.38087e-06
6.82146e-05
-1.23115e-05
7.56302e-05
-2.0584e-05
8.87735e-05
-2.96537e-05
0.000100874
-3.99923e-05
0.000100823
-5.15318e-05
8.09982e-05
-6.36946e-05
4.86145e-05
-6.25359e-05
8.215e-06
-6.20365e-05
-3.6475e-05
-5.91741e-05
-8.26796e-05
-5.42332e-05
-0.000128075
-4.72506e-05
-0.000170185
-3.82992e-05
-0.000205949
-2.78333e-05
-0.000229287
-1.58666e-05
-0.000239649
-6.29141e-06
-0.000241443
2.80022e-06
-0.000241578
1.13002e-05
-0.000240634
1.72538e-05
-0.000238435
2.07909e-05
-0.00023531
2.26403e-05
-0.000231398
2.33007e-05
-0.000226771
2.31088e-05
-0.000221546
2.23318e-05
-0.000215888
2.11919e-05
-0.000209975
1.98492e-05
-0.000203989
1.84263e-05
1.71188e-05
-0.000198357
1.81613e-05
-1.2422e-05
3.74512e-05
-1.25251e-05
5.69199e-05
-1.24748e-05
7.57373e-05
-1.21254e-05
9.25621e-05
-1.11558e-05
0.000105105
-9.00406e-06
0.000111701
-6.03879e-06
0.000111706
-5.38655e-06
0.000106715
-7.31624e-06
9.80195e-05
-1.18791e-05
8.70999e-05
-1.87175e-05
7.46092e-05
-2.74776e-05
6.06674e-05
-3.75552e-05
4.49042e-05
-4.78882e-05
2.92337e-05
-4.6822e-05
1.31069e-05
-4.5867e-05
-3.34601e-06
-4.26902e-05
-2.02538e-05
-3.73044e-05
-3.77791e-05
-2.97083e-05
-5.61709e-05
-1.98881e-05
-7.68452e-05
-7.14155e-06
-9.67106e-05
4.02321e-06
-0.000113711
1.07404e-05
-0.000126696
1.58154e-05
-0.00013477
1.94068e-05
-0.000139403
2.19148e-05
-0.000142104
2.35185e-05
-0.000143747
2.43087e-05
-0.00014485
2.44275e-05
-0.000145726
2.4006e-05
-0.000146526
2.31519e-05
-0.000147313
2.19978e-05
-0.00014812
2.06731e-05
-0.000148955
1.92767e-05
1.77907e-05
-0.000149614
-6.81682e-06
-5.61906e-06
-1.2476e-05
-6.88065e-06
-1.68355e-05
-8.13101e-06
-1.94842e-05
-9.49384e-06
-1.9668e-05
-1.09914e-05
-1.60502e-05
-1.26434e-05
-7.68184e-06
-1.44321e-05
3.24295e-06
-1.63408e-05
1.41805e-05
-1.8289e-05
2.25923e-05
-2.03325e-05
2.65171e-05
-2.26917e-05
2.43811e-05
-2.53998e-05
1.50603e-05
-2.83038e-05
-1.92881e-06
-3.09824e-05
-2.14927e-05
-2.73371e-05
-4.29281e-05
-2.45054e-05
-6.47429e-05
-2.09415e-05
-8.54881e-05
-1.66185e-05
-0.000103711
-1.15389e-05
-0.000117584
-6.06334e-06
-0.000125616
8.52015e-07
-0.000130661
9.02585e-06
-0.000135154
1.51953e-05
-0.000138548
1.91757e-05
-0.000140759
2.15871e-05
-0.000141725
2.28533e-05
-0.000141502
2.32702e-05
-0.000140243
2.30277e-05
-0.000138141
2.23051e-05
-0.00013541
2.1258e-05
-0.000132269
1.99951e-05
-0.000128906
1.8621e-05
-0.000125473
1.72269e-05
-0.000122068
1.58611e-05
1.46065e-05
-0.000118895
-2.5479e-07
-5.35819e-06
-9.50761e-07
-6.17821e-06
-2.13734e-06
-6.93739e-06
-3.79731e-06
-7.82613e-06
-5.90049e-06
-8.87949e-06
-8.41555e-06
-1.01184e-05
-1.12943e-05
-1.15419e-05
-1.44924e-05
-1.31295e-05
-1.7904e-05
-1.48619e-05
-2.14474e-05
-1.6771e-05
-2.52248e-05
-1.88931e-05
-2.94454e-05
-2.11543e-05
-3.43925e-05
-2.33286e-05
-4.0398e-05
-2.49466e-05
-4.67729e-05
-2.09367e-05
-5.37248e-05
-1.75295e-05
-6.13765e-05
-1.32668e-05
-6.99568e-05
-8.01677e-06
-8.00003e-05
-1.47595e-06
-9.02735e-05
4.22848e-06
-9.91464e-05
9.74332e-06
-0.000104361
1.42595e-05
-0.000106663
1.75144e-05
-0.000107242
1.97706e-05
-0.00010681
2.11694e-05
-0.000105796
2.18517e-05
-0.000104494
2.19805e-05
-0.000103134
2.16802e-05
-0.000101861
2.10434e-05
-0.000100747
2.01545e-05
-9.98349e-05
1.90921e-05
-9.91329e-05
1.79277e-05
-9.86146e-05
1.67165e-05
-9.82434e-05
1.5497e-05
1.42583e-05
-9.78889e-05
-8.43206e-07
-4.52275e-06
-1.53304e-06
-5.49663e-06
-2.09284e-06
-6.38675e-06
-2.61571e-06
-7.31345e-06
-3.2154e-06
-8.29142e-06
-4.02191e-06
-9.32516e-06
-5.17241e-06
-1.04068e-05
-6.80067e-06
-1.1519e-05
-9.0525e-06
-1.26308e-05
-1.21541e-05
-1.36935e-05
-1.64302e-05
-1.46444e-05
-2.22367e-05
-1.53789e-05
-2.98992e-05
-1.57016e-05
-3.95499e-05
-1.53354e-05
-4.87397e-05
-1.1782e-05
-5.75065e-05
-8.79596e-06
-6.52687e-05
-5.53632e-06
-7.10487e-05
-2.26638e-06
-7.47223e-05
2.17122e-06
-7.88123e-05
8.29369e-06
-8.33855e-05
1.42934e-05
-8.73519e-05
1.82066e-05
-9.03027e-05
2.04489e-05
-9.22313e-05
2.16854e-05
-9.32131e-05
2.21393e-05
-9.337e-05
2.19982e-05
-9.28198e-05
2.14208e-05
-9.16847e-05
2.05367e-05
-9.01068e-05
1.94585e-05
-8.82266e-05
1.82682e-05
-8.61657e-05
1.7026e-05
-8.40182e-05
1.57757e-05
-8.18547e-05
1.45489e-05
-7.97282e-05
1.33668e-05
1.22703e-05
-7.77436e-05
-1.53289e-06
-2.98432e-06
-3.4867e-06
-3.53701e-06
-5.81451e-06
-4.05268e-06
-8.48205e-06
-4.63902e-06
-1.14493e-05
-5.31649e-06
-1.46772e-05
-6.08845e-06
-1.81234e-05
-6.95067e-06
-2.17426e-05
-7.88844e-06
-2.54898e-05
-8.87059e-06
-2.93289e-05
-9.83964e-06
-3.32606e-05
-1.0696e-05
-3.73318e-05
-1.12891e-05
-4.16132e-05
-1.14e-05
-4.62822e-05
-1.06445e-05
-5.08724e-05
-7.17215e-06
-5.58643e-05
-3.78496e-06
-6.15091e-05
1.2554e-07
-6.71425e-05
3.38189e-06
-7.19184e-05
6.96098e-06
-7.46887e-05
1.10776e-05
-7.60639e-05
1.56814e-05
-7.63147e-05
1.84686e-05
-7.58408e-05
1.99852e-05
-7.49354e-05
2.07894e-05
-7.38003e-05
2.10127e-05
-7.25775e-05
2.07832e-05
-7.13654e-05
2.02159e-05
-7.02293e-05
1.94074e-05
-6.92002e-05
1.84357e-05
-6.82887e-05
1.73625e-05
-6.74937e-05
1.62363e-05
-6.68068e-05
1.50936e-05
-6.62157e-05
1.3962e-05
-6.57065e-05
1.28614e-05
1.17877e-05
-6.52205e-05
-5.23508e-07
-2.4632e-06
-1.0921e-06
-2.97099e-06
-1.71791e-06
-3.42979e-06
-2.46165e-06
-3.89855e-06
-3.40104e-06
-4.38087e-06
-4.62012e-06
-4.87371e-06
-6.2089e-06
-5.36694e-06
-8.26168e-06
-5.84152e-06
-1.0873e-05
-6.26608e-06
-1.41295e-05
-6.59093e-06
-1.80966e-05
-6.7379e-06
-2.28071e-05
-6.58898e-06
-2.82381e-05
-5.98057e-06
-3.41998e-05
-4.69572e-06
-3.91006e-05
-2.28338e-06
-4.29438e-05
4.70086e-08
-4.62279e-05
3.40043e-06
-4.96925e-05
6.83821e-06
-5.32094e-05
1.04703e-05
-5.65812e-05
1.4443e-05
-5.94825e-05
1.85773e-05
-6.14808e-05
2.04625e-05
-6.27103e-05
2.12113e-05
-6.32816e-05
2.1358e-05
-6.33111e-05
2.10402e-05
-6.29089e-05
2.03795e-05
-6.21723e-05
1.94783e-05
-6.11849e-05
1.84192e-05
-6.00206e-05
1.72708e-05
-5.87446e-05
1.60863e-05
-5.74112e-05
1.49027e-05
-5.60632e-05
1.37455e-05
-5.47338e-05
1.26325e-05
-5.34475e-05
1.15749e-05
1.05916e-05
-5.22516e-05
-1.29625e-06
-1.16335e-06
-2.8568e-06
-1.40662e-06
-4.6501e-06
-1.63232e-06
-6.66095e-06
-1.8831e-06
-8.87072e-06
-2.16594e-06
-1.12611e-05
-2.47746e-06
-1.38144e-05
-2.80694e-06
-1.6515e-05
-3.13336e-06
-1.93521e-05
-3.42029e-06
-2.23254e-05
-3.60781e-06
-2.54489e-05
-3.60333e-06
-2.87551e-05
-3.27055e-06
-3.23578e-05
-2.36421e-06
-3.6645e-05
-3.93754e-07
-4.05583e-05
1.64304e-06
-4.43131e-05
3.81381e-06
-4.723e-05
6.32811e-06
-4.94877e-05
9.10639e-06
-5.11791e-05
1.21717e-05
-5.22807e-05
1.5554e-05
-5.27027e-05
1.90084e-05
-5.25667e-05
2.03347e-05
-5.20955e-05
2.07473e-05
-5.1406e-05
2.06751e-05
-5.05905e-05
2.02307e-05
-4.97197e-05
1.95141e-05
-4.88454e-05
1.86089e-05
-4.80049e-05
1.75832e-05
-4.72202e-05
1.64902e-05
-4.64992e-05
1.53691e-05
-4.58427e-05
1.42496e-05
-4.52478e-05
1.31537e-05
-4.47096e-05
1.2097e-05
-4.42223e-05
1.109e-05
1.01317e-05
-4.37603e-05
-2.70477e-07
-8.93389e-07
-6.33544e-07
-1.04405e-06
-1.09609e-06
-1.17027e-06
-1.69364e-06
-1.28606e-06
-2.4735e-06
-1.38663e-06
-3.48741e-06
-1.46417e-06
-4.7886e-06
-1.50644e-06
-6.42748e-06
-1.49529e-06
-8.44397e-06
-1.40473e-06
-1.0854e-05
-1.19884e-06
-1.36233e-05
-8.35325e-07
-1.66695e-05
-2.25543e-07
-2.01135e-05
1.07887e-06
-2.37072e-05
3.19924e-06
-2.70795e-05
5.01566e-06
-3.03839e-05
7.11894e-06
-3.34768e-05
9.42215e-06
-3.6279e-05
1.19103e-05
-3.87367e-05
1.46316e-05
-4.07214e-05
1.75415e-05
-4.21749e-05
2.0465e-05
-4.30733e-05
2.1236e-05
-4.35051e-05
2.1182e-05
-4.35623e-05
2.07351e-05
-4.33285e-05
1.99995e-05
-4.28748e-05
1.90628e-05
-4.22607e-05
1.7997e-05
-4.15343e-05
1.68589e-05
-4.07339e-05
1.56917e-05
-3.98912e-05
1.45283e-05
-3.90338e-05
1.33939e-05
-3.81836e-05
1.2305e-05
-3.73574e-05
1.1272e-05
-3.65665e-05
1.03003e-05
9.39797e-06
-3.58319e-05
-9.86401e-07
9.46459e-08
-2.13563e-06
1.06933e-07
-3.42657e-06
1.22705e-07
-4.85494e-06
1.44552e-07
-6.41813e-06
1.79318e-07
-8.11147e-06
2.32425e-07
-9.9317e-06
3.17577e-07
-1.18781e-05
4.55542e-07
-1.39569e-05
6.79134e-07
-1.61883e-05
1.03836e-06
-1.86211e-05
1.60407e-06
-2.13157e-05
2.47632e-06
-2.40498e-05
3.82081e-06
-2.67327e-05
5.89121e-06
-2.90009e-05
7.29213e-06
-3.10173e-05
9.14353e-06
-3.27775e-05
1.11905e-05
-3.4268e-05
1.34089e-05
-3.54461e-05
1.58177e-05
-3.6217e-05
1.83203e-05
-3.6583e-05
2.08389e-05
-3.66235e-05
2.12838e-05
-3.64236e-05
2.09886e-05
-3.6054e-05
2.03712e-05
-3.55732e-05
1.95238e-05
-3.50279e-05
1.85223e-05
-3.44539e-05
1.74273e-05
-3.38767e-05
1.62855e-05
-3.33145e-05
1.51329e-05
-3.27793e-05
1.39963e-05
-3.22768e-05
1.28942e-05
-3.18082e-05
1.1839e-05
-3.1373e-05
1.08389e-05
-3.09696e-05
9.8989e-06
9.01869e-06
-3.05887e-05
-9.76742e-09
1.04636e-07
-1.28579e-07
2.26063e-07
-3.56629e-07
3.51077e-07
-7.13473e-07
5.01819e-07
-1.22616e-06
6.92301e-07
-1.929e-06
9.35529e-07
-2.85848e-06
1.24733e-06
-4.05139e-06
1.64876e-06
-5.54082e-06
2.16899e-06
-7.35197e-06
2.85009e-06
-9.49949e-06
3.75245e-06
-1.19864e-05
4.96455e-06
-1.47982e-05
6.63465e-06
-1.78819e-05
8.9778e-06
-2.05821e-05
9.99584e-06
-2.30304e-05
1.15958e-05
-2.51985e-05
1.33631e-05
-2.70701e-05
1.52855e-05
-2.85885e-05
1.73415e-05
-2.97446e-05
1.94822e-05
-3.05817e-05
2.16822e-05
-3.10474e-05
2.17552e-05
-3.12119e-05
2.11584e-05
-3.11496e-05
2.03137e-05
-3.09198e-05
1.92983e-05
-3.05694e-05
1.81758e-05
-3.01355e-05
1.69969e-05
-2.96477e-05
1.58008e-05
-2.9129e-05
1.4617e-05
-2.85967e-05
1.34666e-05
-2.80641e-05
1.23638e-05
-2.75418e-05
1.13187e-05
-2.70383e-05
1.03373e-05
-2.656e-05
9.42211e-06
8.57548e-06
-2.61155e-05
-9.747e-07
1.08006e-06
-1.9902e-06
1.24235e-06
-3.05112e-06
1.41288e-06
-4.15932e-06
1.61099e-06
-5.31291e-06
1.84699e-06
-6.51101e-06
2.13488e-06
-7.75592e-06
2.49368e-06
-9.05493e-06
2.94942e-06
-1.04215e-05
3.53747e-06
-1.18718e-05
4.30263e-06
-1.34202e-05
5.30338e-06
-1.50823e-05
6.62971e-06
-1.68603e-05
8.41624e-06
-1.87462e-05
1.08682e-05
-2.04243e-05
1.16787e-05
-2.19792e-05
1.31559e-05
-2.3373e-05
1.47625e-05
-2.45663e-05
1.64847e-05
-2.55227e-05
1.83043e-05
-2.62293e-05
2.01953e-05
-2.66774e-05
2.21371e-05
-2.68615e-05
2.19456e-05
-2.68425e-05
2.11452e-05
-2.66764e-05
2.01528e-05
-2.64087e-05
1.90354e-05
-2.60759e-05
1.78472e-05
-2.57055e-05
1.66303e-05
-2.53184e-05
1.5417e-05
-2.4929e-05
1.42308e-05
-2.45476e-05
1.3088e-05
-2.41816e-05
1.20002e-05
-2.38349e-05
1.09742e-05
-2.35092e-05
1.00136e-05
-2.32051e-05
9.11972e-06
8.29148e-06
-2.29197e-05
-1.25616e-08
1.09243e-06
-1.47965e-07
1.37753e-06
-3.89928e-07
1.65459e-06
-7.51028e-07
1.9718e-06
-1.25098e-06
2.34663e-06
-1.91016e-06
2.79371e-06
-2.74738e-06
3.33053e-06
-3.77832e-06
3.97997e-06
-5.01393e-06
4.77274e-06
-6.46097e-06
5.74942e-06
-8.12313e-06
6.96549e-06
-9.99809e-06
8.50493e-06
-1.20717e-05
1.04907e-05
-1.43045e-05
1.31027e-05
-1.62262e-05
1.36027e-05
-1.79465e-05
1.48791e-05
-1.94567e-05
1.62763e-05
-2.07452e-05
1.77775e-05
-2.18018e-05
1.93657e-05
-2.26226e-05
2.10214e-05
-2.32058e-05
2.27258e-05
-2.3524e-05
2.22692e-05
-2.36329e-05
2.12589e-05
-2.35866e-05
2.0111e-05
-2.34278e-05
1.88808e-05
-2.31901e-05
1.76131e-05
-2.28992e-05
1.63428e-05
-2.25753e-05
1.50961e-05
-2.22339e-05
1.3892e-05
-2.18867e-05
1.27433e-05
-2.15425e-05
1.16582e-05
-2.12074e-05
1.06411e-05
-2.08862e-05
9.69402e-06
-2.05818e-05
8.81676e-06
8.00795e-06
-2.0297e-05
-5.46848e-07
1.63896e-06
-1.1479e-06
1.97822e-06
-1.80482e-06
2.3111e-06
-2.51831e-06
2.68483e-06
-3.28973e-06
3.11754e-06
-4.12321e-06
3.62662e-06
-5.02545e-06
4.23214e-06
-6.00384e-06
4.95767e-06
-7.06397e-06
5.83215e-06
-8.20996e-06
6.89468e-06
-9.44714e-06
8.20201e-06
-1.07839e-05
9.84119e-06
-1.22307e-05
1.19374e-05
-1.37995e-05
1.46719e-05
-1.52069e-05
1.50112e-05
-1.65097e-05
1.61837e-05
-1.76804e-05
1.74495e-05
-1.8697e-05
1.87972e-05
-1.95409e-05
2.02132e-05
-2.01983e-05
2.1683e-05
-2.06596e-05
2.31916e-05
-2.09058e-05
2.25197e-05
-2.09824e-05
2.13397e-05
-2.09343e-05
2.00667e-05
-2.07973e-05
1.87474e-05
-2.06001e-05
1.7419e-05
-2.03646e-05
1.61101e-05
-2.01073e-05
1.48414e-05
-1.98402e-05
1.36273e-05
-1.95721e-05
1.24773e-05
-1.9309e-05
1.13969e-05
-1.90548e-05
1.03887e-05
-1.88121e-05
9.45288e-06
-1.85823e-05
8.58825e-06
7.79206e-06
-1.83653e-05
-1.31666e-07
1.76992e-06
-3.46111e-07
2.19185e-06
-6.32556e-07
2.59663e-06
-9.9893e-07
3.05014e-06
-1.45765e-06
3.57507e-06
-2.0224e-06
4.19e-06
-2.70752e-06
4.91573e-06
-3.52733e-06
5.77577e-06
-4.49404e-06
6.797e-06
-5.61685e-06
8.01547e-06
-6.89867e-06
9.48174e-06
-8.33226e-06
1.12727e-05
-9.90466e-06
1.35079e-05
-1.15923e-05
1.63581e-05
-1.30549e-05
1.64731e-05
-1.43751e-05
1.75039e-05
-1.55443e-05
1.86194e-05
-1.65534e-05
1.98076e-05
-1.73942e-05
2.1056e-05
-1.80601e-05
2.23514e-05
-1.85461e-05
2.36805e-05
-1.88282e-05
2.28049e-05
-1.89482e-05
2.14626e-05
-1.89474e-05
2.00687e-05
-1.88587e-05
1.86612e-05
-1.87077e-05
1.72704e-05
-1.85144e-05
1.59191e-05
-1.82943e-05
1.46232e-05
-1.80589e-05
1.33937e-05
-1.78171e-05
1.22372e-05
-1.75755e-05
1.11568e-05
-1.73389e-05
1.01534e-05
-1.71107e-05
9.22589e-06
-1.68933e-05
8.37189e-06
7.58835e-06
-1.66888e-05
-3.49758e-07
2.11874e-06
-7.48958e-07
2.58998e-06
-1.19801e-06
3.04447e-06
-1.69924e-06
3.55e-06
-2.25452e-06
4.1288e-06
-2.86495e-06
4.79866e-06
-3.53145e-06
5.58025e-06
-4.25898e-06
6.50106e-06
-5.05864e-06
7.59418e-06
-5.94748e-06
8.90157e-06
-6.9496e-06
1.04809e-05
-8.08575e-06
1.24057e-05
-9.36119e-06
1.47801e-05
-1.07639e-05
1.77578e-05
-1.20118e-05
1.77188e-05
-1.31587e-05
1.86493e-05
-1.41887e-05
1.96485e-05
-1.50884e-05
2.07071e-05
-1.58466e-05
2.18145e-05
-1.64539e-05
2.29597e-05
-1.6903e-05
2.41309e-05
-1.71704e-05
2.30739e-05
-1.72922e-05
2.15861e-05
-1.73048e-05
2.0083e-05
-1.72378e-05
1.85958e-05
-1.71145e-05
1.71487e-05
-1.69531e-05
1.57592e-05
-1.67679e-05
1.44393e-05
-1.65692e-05
1.31963e-05
-1.63651e-05
1.20342e-05
-1.61612e-05
1.0954e-05
-1.59616e-05
9.95482e-06
-1.57693e-05
9.03435e-06
-1.55859e-05
8.18926e-06
7.41556e-06
-1.54125e-05
-1.78597e-07
2.29622e-06
-4.13346e-07
2.82345e-06
-6.99973e-07
3.32965e-06
-1.04565e-06
3.89401e-06
-1.46027e-06
4.54153e-06
-1.95453e-06
5.29075e-06
-2.53757e-06
6.16084e-06
-3.2156e-06
7.17632e-06
-3.9962e-06
8.37167e-06
-4.88851e-06
9.79041e-06
-5.8991e-06
1.14877e-05
-7.03332e-06
1.35358e-05
-8.29102e-06
1.60335e-05
-9.65836e-06
1.91208e-05
-1.08611e-05
1.89179e-05
-1.19603e-05
1.97456e-05
-1.29458e-05
2.06316e-05
-1.38081e-05
2.15676e-05
-1.45388e-05
2.2544e-05
-1.51306e-05
2.35508e-05
-1.55774e-05
2.45775e-05
-1.58541e-05
2.33508e-05
-1.59934e-05
2.17258e-05
-1.60288e-05
2.01189e-05
-1.59874e-05
1.85549e-05
-1.58906e-05
1.70525e-05
-1.57556e-05
1.56248e-05
-1.55955e-05
1.42797e-05
-1.54203e-05
1.30217e-05
-1.52377e-05
1.18522e-05
-1.50534e-05
1.07702e-05
-1.48716e-05
9.77355e-06
-1.46954e-05
8.85856e-06
-1.45268e-05
8.02102e-06
7.25633e-06
-1.43673e-05
-2.56278e-07
2.55124e-06
-5.53989e-07
3.11974e-06
-8.9128e-07
3.66532e-06
-1.26953e-06
4.27041e-06
-1.69279e-06
4.96268e-06
-2.16785e-06
5.76341e-06
-2.70467e-06
6.69494e-06
-3.31453e-06
7.78308e-06
-4.00723e-06
9.06088e-06
-4.79238e-06
1.05716e-05
-5.6794e-06
1.23704e-05
-6.67686e-06
1.45285e-05
-7.78976e-06
1.71413e-05
-9.01285e-06
2.03384e-05
-1.01036e-05
2.0004e-05
-1.1112e-05
2.07499e-05
-1.20254e-05
2.15414e-05
-1.28326e-05
2.23717e-05
-1.35239e-05
2.32327e-05
-1.40909e-05
2.41157e-05
-1.45266e-05
2.50114e-05
-1.48045e-05
2.36276e-05
-1.49537e-05
2.18741e-05
-1.50052e-05
2.01698e-05
-1.49829e-05
1.85322e-05
-1.49072e-05
1.69765e-05
-1.47947e-05
1.55121e-05
-1.46576e-05
1.41426e-05
-1.45055e-05
1.28695e-05
-1.43455e-05
1.16922e-05
-1.41831e-05
1.06078e-05
-1.40221e-05
9.61266e-06
-1.38655e-05
8.702e-06
-1.37153e-05
7.87072e-06
7.11349e-06
-1.35725e-05
-1.76875e-07
2.72682e-06
-3.99965e-07
3.34133e-06
-6.68058e-07
3.93171e-06
-9.86067e-07
4.58647e-06
-1.35972e-06
5.33411e-06
-1.79534e-06
6.19647e-06
-2.30003e-06
7.19673e-06
-2.88219e-06
8.36193e-06
-3.55032e-06
9.72526e-06
-4.31178e-06
1.13289e-05
-5.1728e-06
1.32266e-05
-6.13796e-06
1.54884e-05
-7.20842e-06
1.82059e-05
-8.37789e-06
2.15016e-05
-9.41684e-06
2.10374e-05
-1.03774e-05
2.17054e-05
-1.12499e-05
2.24092e-05
-1.20251e-05
2.31426e-05
-1.26943e-05
2.38982e-05
-1.32499e-05
2.46678e-05
-1.36846e-05
2.54432e-05
-1.39708e-05
2.39113e-05
-1.41343e-05
2.20356e-05
-1.42035e-05
2.02373e-05
-1.42015e-05
1.85289e-05
-1.41473e-05
1.69212e-05
-1.40559e-05
1.54198e-05
-1.39391e-05
1.4025e-05
-1.38062e-05
1.27359e-05
-1.36641e-05
1.15495e-05
-1.35181e-05
1.04614e-05
-1.33723e-05
9.46644e-06
-1.32295e-05
8.55884e-06
-1.30918e-05
7.73265e-06
6.98189e-06
-1.29606e-05
-2.02833e-07
2.92831e-06
-4.46417e-07
3.58338e-06
-7.25955e-07
4.2095e-06
-1.04484e-06
4.90335e-06
-1.40806e-06
5.69505e-06
-1.82185e-06
6.60765e-06
-2.29345e-06
7.66534e-06
-2.83118e-06
8.89625e-06
-3.44418e-06
1.03344e-05
-4.14168e-06
1.2022e-05
-4.93223e-06
1.40122e-05
-5.82262e-06
1.63732e-05
-6.81595e-06
1.91931e-05
-7.90832e-06
2.25872e-05
-8.88579e-06
2.20088e-05
-9.79572e-06
2.26095e-05
-1.06282e-05
2.32363e-05
-1.13741e-05
2.38834e-05
-1.20247e-05
2.4544e-05
-1.25721e-05
2.52107e-05
-1.30087e-05
2.58757e-05
-1.33049e-05
2.42039e-05
-1.34835e-05
2.22113e-05
-1.35705e-05
2.03218e-05
-1.35888e-05
1.85449e-05
-1.35557e-05
1.68863e-05
-1.34849e-05
1.53474e-05
-1.3388e-05
1.39267e-05
-1.32739e-05
1.26206e-05
-1.31495e-05
1.1424e-05
-1.302e-05
1.0331e-05
-1.28894e-05
9.33507e-06
-1.27606e-05
8.42932e-06
-1.26357e-05
7.60702e-06
6.86155e-06
-1.2516e-05
-1.71833e-07
3.09882e-06
-3.85625e-07
3.79566e-06
-6.37084e-07
4.45922e-06
-9.29354e-07
5.19364e-06
-1.26764e-06
6.03106e-06
-1.65803e-06
6.99542e-06
-2.10723e-06
8.11156e-06
-2.62254e-06
9.40815e-06
-3.2116e-06
1.09196e-05
-3.8821e-06
1.2688e-05
-4.64117e-06
1.47663e-05
-5.49454e-06
1.72209e-05
-6.445e-06
2.01372e-05
-7.48968e-06
2.36248e-05
-8.42569e-06
2.29383e-05
-9.29998e-06
2.34776e-05
-1.01042e-05
2.40345e-05
-1.08301e-05
2.46036e-05
-1.14697e-05
2.51781e-05
-1.20151e-05
2.57509e-05
-1.24589e-05
2.63145e-05
-1.27692e-05
2.45099e-05
-1.29664e-05
2.24047e-05
-1.30747e-05
2.04268e-05
-1.31147e-05
1.8582e-05
-1.3103e-05
1.68721e-05
-1.30532e-05
1.52954e-05
-1.29762e-05
1.38478e-05
-1.28806e-05
1.25234e-05
-1.27734e-05
1.13153e-05
-1.26596e-05
1.02159e-05
-1.25432e-05
9.21755e-06
-1.24273e-05
8.31232e-06
-1.23139e-05
7.49269e-06
6.75139e-06
-1.22046e-05
-1.74564e-07
3.27209e-06
-3.85698e-07
4.00531e-06
-6.31216e-07
4.70304e-06
-9.14204e-07
5.47468e-06
-1.23922e-06
6.35385e-06
-1.61176e-06
7.36541e-06
-2.03817e-06
8.53505e-06
-2.52556e-06
9.89219e-06
-3.08162e-06
1.14718e-05
-3.71435e-06
1.33164e-05
-4.43147e-06
1.54784e-05
-5.23948e-06
1.80233e-05
-6.14219e-06
2.10335e-05
-7.1383e-06
2.46137e-05
-8.03517e-06
2.38285e-05
-8.8776e-06
2.43135e-05
-9.65785e-06
2.48084e-05
-1.03682e-05
2.53078e-05
-1.10011e-05
2.58049e-05
-1.15487e-05
2.62927e-05
-1.20035e-05
2.67636e-05
-1.23311e-05
2.48325e-05
-1.25495e-05
2.26186e-05
-1.26809e-05
2.05544e-05
-1.27444e-05
1.86421e-05
-1.27559e-05
1.68805e-05
-1.27283e-05
1.52651e-05
-1.26722e-05
1.37893e-05
-1.25961e-05
1.24452e-05
-1.25067e-05
1.1224e-05
-1.24092e-05
1.01168e-05
-1.23076e-05
9.11449e-06
-1.2205e-05
8.20838e-06
-1.21035e-05
7.39009e-06
6.65174e-06
-1.2005e-05
-1.60389e-07
3.43124e-06
-3.57579e-07
4.20108e-06
-5.88597e-07
4.93243e-06
-8.56424e-07
5.74064e-06
-1.16553e-06
6.66081e-06
-1.52123e-06
7.71864e-06
-1.92947e-06
8.94048e-06
-2.39683e-06
1.03563e-05
-2.93035e-06
1.20016e-05
-3.53731e-06
1.39191e-05
-4.22488e-06
1.61611e-05
-4.99938e-06
1.87922e-05
-5.86505e-06
2.18929e-05
-6.82202e-06
2.55635e-05
-7.68663e-06
2.46864e-05
-8.50283e-06
2.51231e-05
-9.26391e-06
2.5563e-05
-9.96296e-06
2.60004e-05
-1.05928e-05
2.64285e-05
-1.11462e-05
2.68398e-05
-1.16153e-05
2.72267e-05
-1.19634e-05
2.51751e-05
-1.22055e-05
2.2856e-05
-1.23624e-05
2.0707e-05
-1.24517e-05
1.87276e-05
-1.24882e-05
1.69137e-05
-1.24845e-05
1.52584e-05
-1.24508e-05
1.37529e-05
-1.23954e-05
1.23874e-05
-1.23248e-05
1.11514e-05
-1.22445e-05
1.00346e-05
-1.21584e-05
9.02672e-06
-1.20697e-05
8.11819e-06
-1.19809e-05
7.29983e-06
6.56314e-06
-1.18935e-05
-1.58438e-07
3.5885e-06
-3.49617e-07
4.39091e-06
-5.72256e-07
5.15352e-06
-8.29414e-07
5.99602e-06
-1.12539e-06
6.95475e-06
-1.46526e-06
8.05618e-06
-1.85482e-06
9.32735e-06
-2.30046e-06
1.07989e-05
-2.80912e-06
1.25067e-05
-3.38805e-06
1.4494e-05
-4.04447e-06
1.68129e-05
-4.78493e-06
1.95274e-05
-5.61432e-06
2.27161e-05
-6.53411e-06
2.64763e-05
-7.36886e-06
2.55145e-05
-8.16134e-06
2.5909e-05
-8.90572e-06
2.63008e-05
-9.5958e-06
2.6684e-05
-1.0225e-05
2.70513e-05
-1.07864e-05
2.73948e-05
-1.12722e-05
2.77062e-05
-1.1643e-05
2.55401e-05
-1.19113e-05
2.31191e-05
-1.20958e-05
2.08869e-05
-1.22128e-05
1.88406e-05
-1.22764e-05
1.69737e-05
-1.22984e-05
1.52772e-05
-1.22887e-05
1.37403e-05
-1.22555e-05
1.23515e-05
-1.22052e-05
1.10988e-05
-1.21433e-05
9.97055e-06
-1.20739e-05
8.95543e-06
-1.20002e-05
8.04283e-06
-1.19247e-05
7.22287e-06
-1.18494e-05
6.48646e-06
0.000787571
3.41887e-05
0.000768271
3.75792e-05
0.000746359
4.01656e-05
0.000721928
4.26208e-05
0.000695031
4.49763e-05
0.000665728
4.72212e-05
0.000634088
4.93353e-05
0.000600196
5.12961e-05
0.000564145
5.3085e-05
0.000526028
5.46925e-05
0.000485985
5.60907e-05
0.000445194
5.62384e-05
0.00040648
5.3421e-05
0.000369982
5.05446e-05
0.000335635
4.7745e-05
0.000303396
4.50092e-05
0.000273235
4.23295e-05
0.000245126
3.97076e-05
0.00021903
3.7149e-05
0.000194892
3.46558e-05
0.000172645
3.221e-05
3.01301e-05
0.000151521
0.000931509
1.51777e-05
0.000948855
2.02229e-05
0.000963171
2.58358e-05
0.000974291
3.14835e-05
0.000982125
3.7122e-05
0.000986617
4.27066e-05
0.000987708
4.82204e-05
0.000985311
5.36704e-05
0.000979272
5.91005e-05
0.000969339
6.46049e-05
0.000955047
7.03674e-05
0.000935371
7.59059e-05
0.000909397
7.93936e-05
0.000877053
8.28962e-05
0.000838567
8.62466e-05
0.000794202
8.93988e-05
0.000744255
9.23066e-05
0.000689075
9.49213e-05
0.000629072
9.71885e-05
0.000564711
9.90543e-05
0.000496486
0.000100469
0.000100781
0.000425865
-0.000295978
5.12863e-06
-0.000286044
1.01131e-05
-0.000275176
1.47972e-05
-0.000263619
1.9761e-05
-0.000252497
2.58413e-05
-0.000241833
3.18953e-05
-0.000231886
3.81358e-05
-0.000223044
4.47042e-05
-0.000215782
5.17253e-05
-0.000210599
5.93261e-05
-0.000207944
6.76302e-05
-0.000207506
7.54064e-05
-0.000207863
7.97076e-05
-0.000208654
8.3664e-05
-0.000209698
8.7281e-05
-0.000210768
9.04747e-05
-0.000211613
9.31668e-05
-0.000211953
9.52877e-05
-0.00021151
9.67775e-05
-0.000210015
9.75958e-05
-0.000207219
9.77122e-05
9.76248e-05
-0.000204024
0.000106116
5.02718e-05
6.43627e-05
5.2061e-05
2.55425e-05
5.38124e-05
-9.67254e-06
5.5176e-05
-3.99712e-05
5.63425e-05
-6.54021e-05
5.75275e-05
-8.59599e-05
5.88957e-05
-0.000101657
6.06007e-05
-0.000112504
6.27681e-05
-0.000118482
6.54963e-05
-0.000119559
6.88964e-05
-0.000116168
7.2197e-05
-0.000109756
7.34647e-05
-0.00010085
7.49101e-05
-8.97465e-05
7.63156e-05
-7.6716e-05
7.75659e-05
-6.20089e-05
7.85679e-05
-4.58789e-05
7.92479e-05
-2.85732e-05
7.95499e-05
-1.03461e-05
7.94322e-05
8.53456e-06
7.88712e-05
7.75429e-05
2.86492e-05
-0.000286771
3.07327e-05
-0.000269379
3.46037e-05
-0.000253543
3.79067e-05
-0.000239483
4.10411e-05
-0.000227292
4.40742e-05
-0.00021693
4.70851e-05
-0.000208278
5.01624e-05
-0.000201161
5.34e-05
-0.000195368
5.68913e-05
-0.000190683
6.0728e-05
-0.000186837
6.4966e-05
-0.000183191
6.84713e-05
-0.000178738
6.89372e-05
-0.000173163
6.92689e-05
-0.000166357
6.94504e-05
-0.000158263
6.94204e-05
-0.000148872
6.91326e-05
-0.000138214
6.85549e-05
-0.000126363
6.7669e-05
-0.00011342
6.64688e-05
-9.95207e-05
6.4959e-05
6.34086e-05
-8.53866e-05
-0.000174691
3.05874e-05
-0.000172744
3.26917e-05
-0.000169912
3.51131e-05
-0.000166391
3.75625e-05
-0.000162309
4.00377e-05
-0.000157716
4.25413e-05
-0.000152582
4.50808e-05
-0.000146794
4.76682e-05
-0.000140163
5.03175e-05
-0.000132429
5.30512e-05
-0.000123318
5.59135e-05
-0.000112987
5.8198e-05
-0.000102338
5.83429e-05
-9.14098e-05
5.83915e-05
-8.02042e-05
5.82918e-05
-6.87749e-05
5.80335e-05
-5.72135e-05
5.76095e-05
-4.56415e-05
5.70164e-05
-3.41967e-05
5.62544e-05
-2.30303e-05
5.53272e-05
-1.22989e-05