/*--------------------------------*- C++ -*----------------------------------*\
  =========                 |
  \\      /  F ield         | OpenFOAM: The Open Source CFD Toolbox
   \\    /   O peration     | Website:  https://openfoam.org
    \\  /    A nd           | Version:  8
     \\/     M anipulation  |
\*---------------------------------------------------------------------------*/
FoamFile
{
    version     2.0;
    format      ascii;
    class       volScalarField;
    location    "200";
    object      k;
}
// * * * * * * * * * * * * * * * * * * * * * * * * * * * * * * * * * * * * * //

dimensions      [0 2 -2 0 0 0 0];

internalField   nonuniform List<scalar> 
15677
(
0.991542
0.87871
1.19176
0.495982
0.831011
1.1386
0.398763
0.479958
0.693343
1.04266
0.380438
0.386828
0.414436
0.659604
0.977892
0.375731
0.37261
0.358584
0.359293
0.668582
0.936395
0.374332
0.370445
0.355689
0.317528
0.358565
0.691759
0.910892
0.373838
0.370028
0.359204
0.329884
0.295999
0.368865
0.717124
0.893001
0.373577
0.369929
0.36205
0.342609
0.309247
0.283174
0.392601
0.732185
0.881219
0.373422
0.36999
0.364006
0.350927
0.326921
0.292392
0.284207
0.423561
0.744557
0.871712
0.37333
0.370043
0.365278
0.356118
0.33939
0.312656
0.281999
0.289388
0.456308
0.747432
0.865193
0.373281
0.370047
0.366076
0.359366
0.347555
0.328239
0.300829
0.275536
0.300417
0.483742
0.749997
0.861337
0.373257
0.370013
0.366542
0.361408
0.352855
0.338965
0.318048
0.291613
0.272402
0.315331
0.507886
0.750977
0.860049
0.373248
0.369972
0.366772
0.36267
0.3563
0.346188
0.330696
0.309267
0.284366
0.272828
0.331806
0.527267
0.751131
0.860674
0.373246
0.369936
0.366849
0.363403
0.358519
0.351031
0.339584
0.323147
0.30165
0.279351
0.274538
0.347507
0.543692
0.750953
0.86288
0.373245
0.369915
0.366849
0.363774
0.359899
0.354252
0.345739
0.333331
0.316284
0.295383
0.275767
0.277946
0.363305
0.555501
0.750927
0.867418
0.373245
0.369904
0.366826
0.363918
0.360691
0.356341
0.349952
0.340616
0.327475
0.310247
0.290174
0.273324
0.282868
0.376835
0.565335
0.750807
0.874337
0.373245
0.369899
0.366806
0.363943
0.36108
0.357621
0.352773
0.345743
0.335727
0.322129
0.30495
0.285925
0.271948
0.287908
0.389341
0.571527
0.750896
0.883345
0.373245
0.369895
0.366792
0.363932
0.36121
0.358326
0.354577
0.349272
0.341683
0.33116
0.317283
0.300385
0.282492
0.271351
0.293529
0.398911
0.57681
0.750886
0.894477
0.373245
0.369892
0.366784
0.363916
0.361236
0.358618
0.355638
0.351608
0.345881
0.337837
0.326937
0.31298
0.296438
0.279785
0.271471
0.298577
0.407212
0.579568
0.750831
0.907705
0.373245
0.369889
0.366779
0.363902
0.361229
0.358716
0.356126
0.35305
0.348734
0.342648
0.334242
0.323108
0.309151
0.29314
0.277639
0.271858
0.303403
0.41311
0.581245
0.750839
0.923023
0.373245
0.369887
0.366776
0.363891
0.361214
0.358736
0.356322
0.353767
0.350556
0.345996
0.339613
0.330937
0.319656
0.305859
0.290312
0.276074
0.272611
0.307363
0.417748
0.581144
0.75089
0.940357
0.373244
0.369885
0.366774
0.363882
0.361202
0.358727
0.356386
0.354087
0.351507
0.348203
0.343427
0.336803
0.327947
0.316634
0.302994
0.288089
0.274817
0.273612
0.310845
0.420377
0.580581
0.751004
0.959619
0.373244
0.369884
0.366772
0.363875
0.361192
0.35871
0.356394
0.354214
0.351959
0.349408
0.345995
0.341049
0.334271
0.325304
0.314012
0.300666
0.286206
0.274101
0.274627
0.313412
0.422192
0.579309
0.75113
0.980711
0.373243
0.369884
0.366771
0.363869
0.361184
0.358694
0.356384
0.354248
0.352158
0.350014
0.347433
0.343977
0.338928
0.33203
0.323036
0.311845
0.298729
0.284922
0.273553
0.275673
0.315463
0.422134
0.577055
0.751336
1.00348
0.373242
0.369885
0.36677
0.363865
0.361178
0.358678
0.356369
0.354242
0.352229
0.350301
0.34818
0.345679
0.342191
0.337056
0.330147
0.321181
0.310137
0.297376
0.283919
0.273545
0.276677
0.316832
0.421599
0.574286
0.751582
1.02785
0.373241
0.369885
0.366769
0.363861
0.361174
0.358665
0.356355
0.354222
0.352242
0.350414
0.348552
0.346601
0.344103
0.340649
0.33557
0.328675
0.319803
0.308905
0.296348
0.283487
0.273717
0.277675
0.317583
0.420382
0.571038
0.751965
1.05356
0.37324
0.369886
0.366767
0.363858
0.36117
0.358656
0.356343
0.354199
0.352231
0.35044
0.348718
0.347077
0.345152
0.342849
0.339512
0.334418
0.327601
0.31884
0.308219
0.296105
0.283584
0.274141
0.278641
0.317952
0.418312
0.567477
0.752337
1.08059
0.373239
0.369888
0.366765
0.363856
0.361166
0.358648
0.356334
0.354177
0.352212
0.350426
0.348776
0.347293
0.345719
0.34411
0.341878
0.338616
0.333787
0.327227
0.318751
0.308307
0.296313
0.283961
0.274905
0.279619
0.317904
0.415684
0.56355
0.75292
1.1086
0.373238
0.369889
0.366762
0.363855
0.361164
0.358643
0.356327
0.354159
0.352193
0.350398
0.34878
0.347366
0.346004
0.344801
0.343222
0.341369
0.338552
0.333893
0.327454
0.31908
0.308774
0.296927
0.284765
0.275986
0.280667
0.31772
0.412715
0.559567
0.753418
1.13737
0.373237
0.36989
0.36676
0.363855
0.361162
0.358641
0.356321
0.354145
0.352178
0.350365
0.34876
0.347368
0.346126
0.345131
0.343996
0.343035
0.341516
0.338881
0.334427
0.328182
0.319973
0.309831
0.298168
0.28618
0.277391
0.281817
0.317367
0.40945
0.555281
0.754375
1.17002
0.373237
0.36989
0.366757
0.363855
0.361161
0.358639
0.356316
0.354135
0.352165
0.350335
0.348732
0.347337
0.346157
0.345261
0.344441
0.344008
0.343293
0.342093
0.339781
0.335627
0.329692
0.321732
0.311758
0.300161
0.288107
0.279152
0.283154
0.316885
0.406014
0.551124
0.755382
1.20692
0.373236
0.369891
0.366755
0.363855
0.36116
0.358639
0.356311
0.354127
0.352153
0.350307
0.348705
0.347294
0.34614
0.345288
0.344654
0.344509
0.344351
0.344056
0.343342
0.341568
0.337857
0.332209
0.324412
0.314505
0.302827
0.29061
0.281277
0.284655
0.316461
0.402504
0.546323
0.757165
1.24406
0.373236
0.369891
0.366753
0.363856
0.36116
0.358639
0.356308
0.354121
0.352139
0.350282
0.34868
0.347249
0.346101
0.345261
0.344727
0.344753
0.344939
0.345255
0.345607
0.345623
0.344417
0.341112
0.335725
0.328057
0.31809
0.30625
0.293666
0.283802
0.286418
0.3161
0.398597
0.540993
0.759039
1.28108
0.373235
0.369891
0.366752
0.363857
0.361161
0.358639
0.356304
0.354115
0.352125
0.350258
0.348657
0.347203
0.346059
0.345209
0.344725
0.344845
0.345238
0.345958
0.347043
0.348226
0.348985
0.348411
0.345513
0.340366
0.332714
0.322611
0.31041
0.29734
0.286714
0.288354
0.315966
0.394558
0.535782
0.76099
1.31791
0.369891
0.373239
0.366752
0.363857
0.361161
0.35864
0.3563
0.354108
0.352108
0.350236
0.348635
0.347158
0.346019
0.345151
0.344684
0.344854
0.345366
0.34634
0.347932
0.349927
0.352004
0.353611
0.353703
0.351207
0.346206
0.338495
0.328059
0.315385
0.301599
0.29008
0.290718
0.316092
0.390806
0.530504
0.763442
1.35398
0.366752
0.369902
0.373246
0.363858
0.361161
0.35864
0.356297
0.354101
0.352091
0.350216
0.348611
0.347116
0.345984
0.345094
0.344633
0.34482
0.3454
0.346528
0.348454
0.351025
0.354044
0.357146
0.35968
0.360469
0.358303
0.353375
0.345411
0.334532
0.321136
0.306492
0.294303
0.293703
0.316461
0.387413
0.525755
0.765535
1.38944
0.363857
0.366769
0.369922
0.373254
0.36116
0.35864
0.356293
0.354094
0.352074
0.350198
0.348588
0.347078
0.345957
0.345043
0.344587
0.344776
0.345386
0.346608
0.348749
0.351719
0.355422
0.359622
0.363863
0.367398
0.368851
0.366952
0.361911
0.353579
0.341987
0.327725
0.312602
0.299634
0.297023
0.31721
0.384397
0.520806
0.768274
1.42377
0.36116
0.363878
0.366804
0.369943
0.373262
0.358639
0.35629
0.354088
0.352058
0.350184
0.348565
0.347046
0.345939
0.345001
0.344557
0.344738
0.345359
0.346633
0.348913
0.352161
0.356359
0.361375
0.366903
0.372394
0.376945
0.379033
0.377224
0.371947
0.362958
0.350509
0.335936
0.320279
0.305574
0.300715
0.318304
0.381752
0.516663
0.770231
1.4571
0.358639
0.361185
0.363921
0.366839
0.369965
0.37327
0.356288
0.354082
0.352044
0.350171
0.348544
0.347023
0.345931
0.344972
0.344547
0.344719
0.345342
0.346643
0.349012
0.352457
0.357018
0.362648
0.369158
0.376154
0.38295
0.388541
0.391119
0.389276
0.383461
0.37366
0.361107
0.346227
0.328811
0.312089
0.304724
0.319788
0.379494
0.512498
0.772813
1.4891
0.356286
0.35867
0.361238
0.363965
0.366876
0.369987
0.373279
0.354079
0.352034
0.350162
0.348526
0.347009
0.345932
0.344958
0.34456
0.344723
0.345346
0.346665
0.349092
0.352678
0.357519
0.363621
0.370895
0.37907
0.38763
0.395792
0.402322
0.405302
0.403106
0.396586
0.386956
0.374378
0.357649
0.338125
0.319111
0.309069
0.321507
0.377588
0.50907
0.774786
1.51987
0.354078
0.356322
0.358734
0.361293
0.364012
0.366914
0.370009
0.373288
0.352027
0.350155
0.348511
0.347002
0.345939
0.344958
0.344594
0.344752
0.345379
0.346712
0.349187
0.352877
0.357938
0.364429
0.372319
0.381445
0.391421
0.401636
0.411097
0.418525
0.421589
0.418878
0.412898
0.403609
0.389101
0.370101
0.348137
0.326586
0.31368
0.323566
0.376032
0.505653
0.777221
1.54922
0.352025
0.35412
0.356396
0.358799
0.361349
0.36406
0.366952
0.370032
0.373297
0.35015
0.3485
0.347
0.345949
0.34497
0.344645
0.344806
0.345441
0.346794
0.349316
0.353091
0.358327
0.365149
0.373581
0.383502
0.394658
0.406569
0.418419
0.429168
0.437189
0.440202
0.438481
0.433326
0.42208
0.405147
0.383471
0.358757
0.334443
0.318542
0.325786
0.374785
0.502833
0.779235
1.57722
0.350148
0.352069
0.354204
0.356471
0.358866
0.361407
0.364109
0.366992
0.370055
0.373306
0.348491
0.347
0.345957
0.344989
0.344705
0.344876
0.345529
0.346913
0.349485
0.35334
0.358728
0.36583
0.374755
0.385416
0.397595
0.410961
0.424827
0.438343
0.450104
0.458627
0.463385
0.463068
0.455992
0.442201
0.422354
0.39763
0.36989
0.342615
0.323605
0.328284
0.373862
0.500083
0.781545
1.60379
0.348484
0.350192
0.35216
0.35429
0.356547
0.358934
0.361467
0.364161
0.367032
0.37008
0.373316
0.346998
0.345959
0.345009
0.344764
0.344953
0.345633
0.347061
0.34969
0.35363
0.359163
0.366515
0.375878
0.387252
0.400434
0.415105
0.430747
0.446647
0.461565
0.474296
0.485485
0.49264
0.490427
0.480699
0.463769
0.440561
0.412449
0.381432
0.351031
0.328814
0.330801
0.373314
0.497834
0.783581
1.62898
0.346992
0.348524
0.350284
0.352253
0.354377
0.356626
0.359005
0.361529
0.364214
0.367073
0.370105
0.373326
0.345952
0.345022
0.34481
0.345027
0.345742
0.347224
0.34992
0.353954
0.359633
0.367226
0.376992
0.389018
0.403222
0.419237
0.436522
0.454579
0.472266
0.4886
0.504779
0.519615
0.525406
0.520397
0.507248
0.486602
0.459592
0.427777
0.393274
0.359614
0.334184
0.333343
0.372948
0.495668
0.785768
1.65278
0.345933
0.347022
0.348612
0.35038
0.352349
0.354465
0.356706
0.359078
0.361593
0.364269
0.367114
0.370131
0.373335
0.345024
0.344835
0.345085
0.345841
0.347387
0.350159
0.3543
0.360132
0.367965
0.378116
0.390756
0.405927
0.423371
0.442426
0.462545
0.4828
0.502362
0.522921
0.543863
0.558132
0.561511
0.552765
0.535447
0.510486
0.479261
0.443471
0.405313
0.368299
0.339658
0.335917
0.372884
0.493905
0.787802
1.67523
0.345012
0.345934
0.347099
0.348706
0.35048
0.352446
0.354555
0.356788
0.359152
0.36166
0.364325
0.367157
0.370157
0.373345
0.344832
0.345116
0.345919
0.347532
0.35039
0.354646
0.36064
0.368717
0.379248
0.39248
0.408577
0.427408
0.448432
0.470881
0.493658
0.516296
0.540907
0.56741
0.58841
0.600953
0.600761
0.587299
0.565069
0.53523
0.499399
0.459394
0.417447
0.377021
0.345186
0.338497
0.372955
0.492238
0.789874
1.69638
0.344798
0.345004
0.345967
0.347185
0.348804
0.350583
0.352545
0.354648
0.356873
0.35923
0.361728
0.364383
0.3672
0.370184
0.373354
0.345114
0.345962
0.347645
0.350593
0.354971
0.361134
0.36946
0.380367
0.394181
0.411176
0.431351
0.454342
0.4795
0.505253
0.531013
0.559639
0.591533
0.618748
0.6385
0.647979
0.642955
0.623739
0.595851
0.560622
0.519834
0.475416
0.429583
0.385716
0.350721
0.341101
0.373131
0.49087
0.791864
1.71623
0.345079
0.344721
0.345021
0.346008
0.347281
0.348906
0.350689
0.352646
0.354742
0.35696
0.359309
0.361799
0.364442
0.367243
0.37021
0.373363
0.345964
0.34771
0.35075
0.355253
0.361588
0.370165
0.381447
0.395831
0.413703
0.435192
0.460128
0.488055
0.517401
0.547042
0.579931
0.617459
0.650849
0.67733
0.694257
0.699139
0.687874
0.661819
0.627538
0.586457
0.540415
0.49142
0.441638
0.39433
0.356221
0.343679
0.373483
0.489598
0.793822
1.73489
0.345925
0.344973
0.344622
0.34505
0.346061
0.347384
0.349011
0.350798
0.352749
0.354839
0.35705
0.359392
0.361871
0.3645
0.367285
0.370235
0.373371
0.347719
0.350845
0.355472
0.361978
0.370803
0.382453
0.397397
0.416123
0.438898
0.465761
0.496453
0.529551
0.564128
0.602533
0.646354
0.686458
0.719838
0.743761
0.755934
0.754386
0.735302
0.701276
0.65989
0.612535
0.561001
0.507305
0.453538
0.402813
0.361653
0.346257
0.373864
0.488564
0.795741
1.75235
0.347677
0.345768
0.34482
0.344533
0.345095
0.346127
0.347494
0.34912
0.350908
0.352853
0.354938
0.357142
0.359476
0.361943
0.364557
0.367326
0.37026
0.373379
0.350867
0.35561
0.362284
0.37135
0.383357
0.398843
0.418395
0.442427
0.471186
0.504625
0.541555
0.581493
0.62708
0.679359
0.727422
0.768763
0.800103
0.819009
0.823908
0.81371
0.785037
0.741868
0.692685
0.638674
0.581459
0.522977
0.465221
0.411124
0.366982
0.348785
0.374415
0.487599
0.797579
1.76871
0.350827
0.347433
0.345513
0.344674
0.344468
0.345152
0.346205
0.347609
0.349232
0.351021
0.35296
0.35504
0.357237
0.35956
0.362014
0.364613
0.367365
0.370284
0.373387
0.355657
0.36249
0.371785
0.384133
0.400138
0.420485
0.445732
0.476342
0.512497
0.553336
0.598898
0.652329
0.716072
0.775912
0.827477
0.867858
0.893923
0.904235
0.898575
0.877088
0.836877
0.783358
0.725717
0.66471
0.601674
0.53836
0.476632
0.419222
0.372192
0.351289
0.374928
0.486844
0.799411
1.78398
0.355632
0.350468
0.347005
0.345261
0.344551
0.344431
0.345218
0.346296
0.347726
0.349347
0.351136
0.353069
0.355143
0.357331
0.359642
0.362082
0.364666
0.367404
0.370307
0.373395
0.362584
0.372097
0.384766
0.401262
0.422363
0.448776
0.481176
0.520001
0.564801
0.616161
0.677828
0.754937
0.832342
0.900405
0.952941
0.987872
1.00347
1.00032
0.980115
0.944381
0.890584
0.825515
0.758795
0.690502
0.621543
0.553383
0.487727
0.427085
0.377248
0.35372
0.375582
0.486123
0.80112
1.7963
0.362596
0.355134
0.349795
0.346584
0.345039
0.344449
0.34443
0.345291
0.346398
0.347846
0.349467
0.351253
0.353181
0.355246
0.357422
0.359722
0.362149
0.364719
0.367441
0.37033
0.373402
0.372277
0.385245
0.402203
0.424014
0.451536
0.485652
0.527085
0.57585
0.633081
0.703393
0.795834
0.895229
0.989219
1.06244
1.1094
1.13144
1.12964
1.10732
1.06824
1.01524
0.945845
0.868094
0.791742
0.715924
0.640979
0.567995
0.498472
0.434677
0.382151
0.356108
0.376169
0.485574
0.802638
1.80663
0.372362
0.361923
0.354145
0.349118
0.346208
0.344841
0.344352
0.344461
0.345369
0.34651
0.347968
0.349591
0.351372
0.353291
0.355345
0.357512
0.3598
0.362214
0.36477
0.367478
0.370352
0.37341
0.385569
0.402954
0.425433
0.453999
0.489749
0.533708
0.586391
0.6495
0.728994
0.838965
0.964297
1.09057
1.1973
1.26677
1.29803
1.29801
1.27133
1.22412
1.16209
1.08904
1.00226
0.910837
0.824388
0.740863
0.659908
0.582149
0.508836
0.441995
0.386864
0.358406
0.37687
0.485137
0.803878
1.81793
0.385782
0.371482
0.360505
0.353148
0.348495
0.345869
0.344669
0.344266
0.344518
0.345453
0.346631
0.348092
0.349718
0.351491
0.353399
0.355442
0.357598
0.359875
0.362277
0.364819
0.367513
0.370373
0.373417
0.403521
0.426618
0.456167
0.493464
0.539851
0.596358
0.665334
0.754675
0.88426
1.03864
1.20132
1.34859
1.45697
1.51043
1.51489
1.48389
1.42556
1.3486
1.26023
1.1649
1.05933
0.953462
0.856564
0.765219
0.678267
0.595811
0.518804
0.449001
0.391405
0.360645
0.377408
0.484832
0.805329
1.8302
0.40395
0.384653
0.369483
0.359077
0.352225
0.34792
0.345567
0.344522
0.344199
0.344595
0.345542
0.346759
0.348219
0.349845
0.351606
0.353504
0.355536
0.357682
0.359949
0.362338
0.364867
0.367547
0.370394
0.373421
0.42758
0.458045
0.496805
0.545508
0.605725
0.680562
0.780451
0.931222
1.1164
1.31754
1.5087
1.66365
1.75999
1.78525
1.75305
1.68368
1.58845
1.47813
1.36101
1.24181
1.11646
0.995652
0.888105
0.788901
0.696006
0.60895
0.528346
0.455726
0.395735
0.362485
0.377949
0.484485
0.806851
1.8436
0.428363
0.402536
0.381873
0.367474
0.357747
0.35136
0.347393
0.345299
0.344397
0.344154
0.344685
0.345639
0.346892
0.348347
0.34997
0.351718
0.353606
0.355627
0.357764
0.360021
0.362398
0.364913
0.36758
0.370404
0.373421
0.459652
0.499782
0.550692
0.614498
0.695204
0.806243
0.979054
1.19542
1.4351
1.67095
1.87551
2.02375
2.09543
2.08205
2.00525
1.89192
1.75611
1.61009
1.46276
1.31879
1.17311
1.03708
0.918835
0.811824
0.713079
0.621541
0.537483
0.462101
0.399305
0.36408
0.378496
0.484169
0.808624
1.85818
0.461007
0.426622
0.398702
0.379086
0.365598
0.356489
0.350549
0.346914
0.345063
0.344297
0.344132
0.344782
0.345745
0.347024
0.348472
0.350092
0.351828
0.353705
0.355716
0.357844
0.36009
0.362455
0.364958
0.367597
0.370404
0.373421
0.502425
0.55542
0.622702
0.709286
0.831896
1.0269
1.27376
1.55068
1.83005
2.08454
2.28802
2.41679
2.45293
2.39233
2.26482
2.10366
1.92501
1.7421
1.56394
1.39489
1.22875
1.07746
0.948569
0.833904
0.729445
0.633581
0.546145
0.467365
0.402348
0.365833
0.379197
0.483815
0.810551
1.87404
0.504692
0.458914
0.421358
0.394877
0.376477
0.363813
0.355298
0.349794
0.346481
0.344856
0.344219
0.344133
0.34488
0.345857
0.347152
0.348597
0.350211
0.351936
0.353803
0.355803
0.357923
0.360158
0.362511
0.36498
0.367597
0.370403
0.373421
0.559736
0.630376
0.722831
0.85722
1.074
1.34998
1.66201
1.98258
2.28514
2.54392
2.73372
2.832
2.82339
2.70872
2.52612
2.3147
2.09217
1.87209
1.66319
1.46924
1.28287
1.11653
0.97716
0.85502
0.745078
0.645023
0.553307
0.471828
0.405706
0.367805
0.379923
0.483526
0.81271
1.89135
0.563479
0.502234
0.451697
0.416139
0.391287
0.373982
0.36211
0.354174
0.349093
0.346094
0.344676
0.344159
0.344162
0.344975
0.345972
0.347277
0.348719
0.350327
0.35204
0.353898
0.355888
0.357999
0.360223
0.362538
0.36498
0.367597
0.370403
0.373421
0.637583
0.73586
0.882038
1.11981
1.42319
1.76786
2.12666
2.47409
2.78566
3.03647
3.20169
3.25994
3.19899
3.02508
2.78455
2.52176
2.25526
1.99842
1.75935
1.54108
1.33501
1.15401
1.00446
0.875101
0.759902
0.654399
0.559357
0.476741
0.409422
0.369985
0.380843
0.483192
0.815222
1.91007
0.643923
0.560556
0.492328
0.444599
0.411232
0.387842
0.37159
0.360488
0.353116
0.348444
0.345753
0.344519
0.344101
0.344218
0.345065
0.34609
0.347398
0.34884
0.35044
0.352143
0.35399
0.355972
0.358074
0.360256
0.362538
0.36498
0.367597
0.370403
0.37342
0.748417
0.906224
1.16396
1.49291
1.86772
2.26155
2.64997
3.01016
3.31883
3.55116
3.68232
3.69244
3.57308
3.33636
3.03652
2.72232
2.41249
2.11979
1.85147
1.60971
1.38469
1.18962
1.03032
0.894004
0.771833
0.662323
0.566002
0.482155
0.413535
0.372447
0.381821
0.482974
0.817849
1.93057
0.759591
0.64056
0.546866
0.482669
0.437914
0.406509
0.384524
0.369299
0.358949
0.352125
0.347841
0.345448
0.344383
0.344045
0.344289
0.345152
0.346208
0.347515
0.348958
0.350548
0.352242
0.354081
0.356054
0.358112
0.360257
0.362539
0.364981
0.367597
0.370403
0.373416
0.929712
1.20628
1.55898
1.96152
2.38726
2.81261
3.21642
3.57771
3.87348
4.07824
4.1671
4.12232
3.94005
3.63855
3.27928
2.91451
2.56255
2.23521
1.93875
1.67451
1.43148
1.22308
1.05448
0.909143
0.78192
0.671034
0.573309
0.488131
0.418102
0.375186
0.383047
0.482716
0.821189
1.95262
0.756056
0.950622
0.621051
0.533687
0.473554
0.431465
0.401944
0.381332
0.36711
0.357494
0.351199
0.347289
0.345179
0.344268
0.344001
0.344366
0.345238
0.346326
0.347629
0.349073
0.350653
0.352338
0.35417
0.356096
0.358113
0.360257
0.362539
0.364981
0.367598
0.370393
0.373409
1.24671
1.62144
2.04947
2.50421
2.96257
3.4048
3.81237
4.16524
4.43969
4.60901
4.64848
4.5434
4.29531
3.92853
3.51084
3.09704
2.70449
2.34387
2.02051
1.73492
1.47494
1.254
1.07367
0.921931
0.793014
0.680586
0.581354
0.494733
0.423171
0.378291
0.384363
0.482636
0.824418
1.97674
0.727221
0.948072
1.2822
0.602601
0.521245
0.464744
0.425217
0.397536
0.378267
0.365027
0.356123
0.350338
0.346792
0.344948
0.344172
0.343971
0.344446
0.345326
0.346442
0.347741
0.349185
0.350754
0.352431
0.354214
0.356097
0.358113
0.360258
0.36254
0.364982
0.367582
0.370372
0.373402
1.68045
2.13195
2.61303
3.10081
3.57649
4.02372
4.42584
4.76262
5.00865
5.13567
5.11978
4.95043
4.63516
4.20399
3.72984
3.26905
2.83763
2.44517
2.09618
1.79041
1.51457
1.27828
1.08984
0.935975
0.805206
0.691076
0.590217
0.502034
0.428815
0.381764
0.386044
0.482524
0.828839
2.00263
0.700023
0.905161
1.28182
1.73215
0.585307
0.509202
0.456195
0.419167
0.39329
0.375336
0.363052
0.354837
0.349548
0.346357
0.34475
0.344094
0.343954
0.344527
0.345415
0.346557
0.347849
0.349293
0.35085
0.352476
0.354214
0.356097
0.358113
0.360258
0.36254
0.36496
0.367549
0.37035
0.373394
2.20941
2.71451
3.22847
3.73308
4.21365
4.6567
5.04636
5.361
5.57256
5.65127
5.57518
5.33906
4.95678
4.46335
3.93548
3.43001
2.96148
2.5386
2.16525
1.84048
1.54531
1.29866
1.10755
0.951379
0.818605
0.702602
0.599989
0.510117
0.435098
0.385717
0.387775
0.482655
0.83298
2.03078
0.674621
0.863608
1.22217
1.73502
2.27732
0.568661
0.497496
0.447903
0.413323
0.389213
0.372543
0.361187
0.353646
0.348843
0.34598
0.344581
0.344033
0.343952
0.344609
0.345507
0.34667
0.347954
0.349398
0.350894
0.352474
0.354214
0.356097
0.358113
0.360258
0.362513
0.364915
0.367514
0.370327
0.373387
2.80943
3.34683
3.87634
4.38452
4.86048
5.29272
5.66493
5.95268
6.12449
6.14969
6.00974
5.70583
5.25817
4.7057
4.12734
3.57962
3.07571
2.62377
2.22728
1.87896
1.57101
1.32092
1.12692
0.968266
0.833324
0.715274
0.610767
0.519072
0.44211
0.390148
0.390021
0.482916
0.83869
2.06104
0.650414
0.823957
1.16233
1.66002
2.28491
2.89261
0.552545
0.486126
0.439882
0.407696
0.385314
0.369894
0.359448
0.352574
0.348224
0.345654
0.344436
0.343986
0.343965
0.344691
0.345601
0.34678
0.348056
0.349448
0.35089
0.352473
0.354214
0.356096
0.358112
0.360225
0.362457
0.364868
0.367478
0.370304
0.373379
3.45704
4.00815
4.53888
5.04049
5.50522
5.92251
6.27405
6.53103
6.6583
6.62555
6.41934
6.04816
5.53808
4.93064
4.30532
3.71778
3.18011
2.70037
2.27491
1.91114
1.59907
1.34521
1.14808
0.986766
0.849485
0.729204
0.622659
0.528999
0.449931
0.395281
0.392156
0.48358
0.844383
2.09351
0.627251
0.785817
1.1031
1.58332
2.19772
2.90582
3.55335
0.536929
0.475111
0.432148
0.402303
0.381605
0.367412
0.357874
0.351624
0.347676
0.345376
0.344313
0.343946
0.344001
0.344773
0.345699
0.346889
0.348103
0.349446
0.350888
0.352473
0.354213
0.356095
0.358074
0.360159
0.3624
0.36482
0.367442
0.370281
0.373371
4.13016
4.67937
5.20024
5.68826
6.13804
6.53862
6.86751
7.09024
7.16849
7.0742
6.80077
6.3643
5.79589
5.13817
4.46958
3.84449
3.27452
2.7595
2.31482
1.94633
1.62967
1.37169
1.1712
1.00702
0.867177
0.74451
0.635779
0.540008
0.458684
0.400988
0.395222
0.484219
0.851496
2.12854
0.605083
0.749241
1.04426
1.50573
2.10736
2.80949
3.57201
4.23599
0.521819
0.46448
0.424726
0.397158
0.378117
0.365155
0.356473
0.35078
0.347188
0.345136
0.344208
0.343905
0.344053
0.344858
0.345804
0.346942
0.348098
0.349446
0.350887
0.352473
0.354213
0.356053
0.357998
0.360091
0.36234
0.364771
0.367404
0.370257
0.373363
4.80826
5.34332
5.84654
6.31713
6.75138
7.1353
7.44013
7.6251
7.65012
7.49177
7.15163
6.6532
6.03153
5.32869
4.62043
3.95984
3.34806
2.8092
2.35858
1.98475
1.66303
1.40056
1.19643
1.02917
0.886525
0.761314
0.650248
0.552216
0.468449
0.407717
0.39789
0.48573
0.859803
2.17258
0.583893
0.714391
0.986053
1.4269
2.0147
2.70888
3.46886
4.25854
4.9185
0.507243
0.45427
0.417639
0.392312
0.374938
0.36314
0.355223
0.350027
0.346755
0.344928
0.344122
0.343873
0.344119
0.344953
0.345856
0.34694
0.348097
0.349446
0.350889
0.352475
0.354168
0.355969
0.35792
0.360022
0.362279
0.36472
0.367365
0.370232
0.373355
5.47279
5.98483
6.46586
6.91919
7.33978
7.70808
7.98737
8.13073
8.09878
7.8752
7.47033
6.91444
6.2454
5.50279
4.75824
4.05054
3.41004
2.8638
2.40648
2.02672
1.69939
1.43202
1.22395
1.05337
0.907668
0.77974
0.666185
0.565749
0.479409
0.41508
0.402128
0.486945
0.870091
2.22511
0.563675
0.681439
0.928919
1.34689
1.91934
2.6049
3.36092
4.1498
4.94184
5.5808
0.493237
0.44452
0.410958
0.387886
0.372092
0.361337
0.354104
0.349355
0.346373
0.344751
0.344049
0.343856
0.344205
0.345
0.345854
0.346941
0.348097
0.349446
0.350893
0.352429
0.354078
0.355884
0.357842
0.359951
0.362217
0.364668
0.367325
0.370206
0.373347
6.10724
6.59046
7.04979
7.48912
7.89933
8.25339
8.50494
8.60244
8.51071
8.22216
7.75591
7.14813
6.43815
5.66112
4.86715
4.12705
3.47814
2.92367
2.45892
2.07257
1.73903
1.46628
1.25394
1.07978
0.930742
0.799908
0.683716
0.580722
0.491603
0.423956
0.405642
0.490228
0.886999
2.27558
0.544424
0.650521
0.873407
1.26597
1.82107
2.49717
3.24909
4.03651
4.82743
5.60032
6.20499
0.479851
0.43533
0.404851
0.383921
0.369541
0.359719
0.3531
0.348753
0.346037
0.344597
0.343992
0.343871
0.344254
0.344994
0.345857
0.346942
0.348098
0.349448
0.350848
0.352335
0.353986
0.355798
0.357762
0.359877
0.362152
0.364614
0.367284
0.370181
0.373338
6.6963
7.15129
7.593
8.02312
8.42743
8.76826
8.98801
9.03599
8.88265
8.53106
8.00805
7.35469
6.61057
5.78575
4.95895
4.21091
3.55277
2.98929
2.51631
2.12264
1.78224
1.50358
1.28659
1.10853
0.955864
0.82193
0.702935
0.597276
0.505324
0.433495
0.412698
0.493632
0.901195
2.32654
0.526135
0.621709
0.820154
1.18466
1.71989
2.38522
3.13308
3.91951
4.7095
5.47881
6.21487
6.77482
0.467224
0.42694
0.399379
0.380363
0.36725
0.358265
0.352199
0.348216
0.345739
0.344465
0.343973
0.343869
0.344252
0.344997
0.345858
0.346941
0.348103
0.349397
0.350751
0.352237
0.353893
0.35571
0.35768
0.359802
0.362086
0.364559
0.367242
0.370154
0.373328
7.23068
7.66209
8.09024
8.5152
8.91649
9.24675
9.4332
9.42683
9.21215
8.80103
8.22667
7.53462
6.74372
5.89051
5.05914
4.30256
3.63449
3.06117
2.57912
2.17732
1.82932
1.54416
1.32209
1.13967
0.983138
0.84589
0.723975
0.615484
0.520468
0.447521
0.41971
0.499312
0.9249
2.37307
0.508936
0.594991
0.769829
1.10366
1.61599
2.26869
3.01222
3.79876
4.58892
5.35563
6.08365
6.76886
7.28339
0.455695
0.419432
0.39447
0.377167
0.365188
0.356955
0.351387
0.347732
0.345478
0.344384
0.343951
0.343844
0.344261
0.344998
0.345857
0.346945
0.348056
0.349291
0.350649
0.352138
0.353797
0.355621
0.357596
0.359725
0.362018
0.364503
0.3672
0.370127
0.373319
7.70568
8.11547
8.54055
8.96768
9.36466
9.68163
9.83341
9.77126
9.49757
9.03145
8.41168
7.66892
6.85525
6.00435
5.16805
4.40251
3.72383
3.13982
2.6478
2.23702
1.8806
1.58828
1.36062
1.17334
1.01265
0.871884
0.746814
0.635476
0.540934
0.464529
0.430641
0.506363
0.94302
2.42008
0.493237
0.570449
0.723061
1.02391
1.50978
2.14738
2.88577
3.67338
4.46597
5.23177
5.95337
6.62449
7.2535
7.72517
0.445393
0.41271
0.390063
0.374292
0.36333
0.355774
0.350651
0.347299
0.345288
0.344324
0.343918
0.343847
0.344262
0.344997
0.345861
0.346892
0.347953
0.349182
0.350544
0.352035
0.3537
0.35553
0.35751
0.359646
0.361948
0.364445
0.367156
0.370101
0.37331
8.11735
8.52043
8.9494
9.38486
9.77563
10.0697
10.1838
10.0666
9.73778
9.22154
8.54398
7.78086
6.97624
6.12737
5.28605
4.51122
3.82133
3.22579
2.72285
2.30214
1.9364
1.63616
1.40237
1.20964
1.04445
0.89985
0.77164
0.66168
0.566101
0.484483
0.440781
0.514186
0.974579
2.45878
0.479192
0.548473
0.680631
0.946567
1.40185
2.02122
2.75307
3.54235
4.33966
5.10794
5.82529
6.48434
7.08837
7.65484
8.09448
0.436194
0.406686
0.386102
0.371702
0.361652
0.354701
0.349989
0.346964
0.34516
0.344276
0.343921
0.343847
0.344255
0.345006
0.34581
0.346783
0.347847
0.349069
0.350435
0.35193
0.3536
0.355437
0.357422
0.359564
0.361876
0.364386
0.367113
0.370075
0.373301
8.46204
8.86267
9.30643
9.76205
10.1466
10.4067
10.48
10.3109
9.93145
9.35174
8.65334
7.90249
7.10648
6.25966
5.41339
4.62913
3.9275
3.3196
2.80475
2.3731
1.99705
1.68807
1.4474
1.24862
1.07849
0.929981
0.803627
0.693429
0.592795
0.504616
0.454775
0.52609
1.00028
2.49898
0.466638
0.529045
0.643668
0.873513
1.29311
1.89037
2.61354
3.40453
4.20872
4.9831
5.70067
6.35016
6.93392
7.464
7.96216
8.37272
0.427977
0.40128
0.382537
0.369364
0.360129
0.353731
0.349462
0.346752
0.345089
0.344281
0.343922
0.343846
0.344259
0.344961
0.345706
0.346672
0.347739
0.348954
0.350323
0.351823
0.353498
0.355341
0.357331
0.359481
0.361804
0.364328
0.367072
0.37005
0.373292
8.72838
9.13985
9.61251
10.0907
10.4684
10.6861
10.7182
10.5033
10.0584
9.45767
8.77214
8.03321
7.24573
6.40115
5.55025
4.75658
4.04278
3.42172
2.89397
2.45029
2.06286
1.74419
1.49563
1.29021
1.11492
0.968361
0.841719
0.725657
0.619781
0.527202
0.468671
0.537142
1.0397
2.52558
0.455428
0.511746
0.612214
0.80781
1.18562
1.75523
2.46668
3.25878
4.07168
4.85587
5.57843
6.2238
6.79085
7.29059
7.7417
8.1714
8.55693
0.420633
0.396424
0.379324
0.367243
0.358751
0.352947
0.349139
0.346653
0.345095
0.344281
0.343919
0.343873
0.344212
0.344865
0.345608
0.34656
0.347628
0.348836
0.350207
0.351714
0.353394
0.355243
0.357239
0.359396
0.361732
0.364271
0.367032
0.370026
0.373284
8.91166
9.35226
9.8651
10.3681
10.7311
10.9022
10.8934
10.6225
10.1589
9.5716
8.89926
8.17243
7.39357
6.55165
5.69664
4.89378
4.16754
3.5326
2.99092
2.53409
2.1341
1.80468
1.54708
1.33455
1.16098
1.01349
0.879442
0.757635
0.647339
0.54943
0.4857
0.554759
1.07891
2.54989
0.445431
0.496274
0.585332
0.751023
1.08387
1.61753
2.3122
3.10388
3.92683
4.72449
5.45714
6.10412
6.66101
7.13549
7.54523
7.9147
8.27209
8.63673
0.414062
0.392056
0.376415
0.365326
0.357623
0.352478
0.349011
0.34666
0.345096
0.344277
0.343953
0.343875
0.344124
0.34478
0.345514
0.346446
0.347514
0.348716
0.350089
0.351602
0.353288
0.355142
0.357144
0.359313
0.361662
0.364216
0.366992
0.370002
0.373275
9.01066
9.4972
10.0645
10.5814
10.9284
11.0503
10.987
10.7121
10.2639
9.69164
9.03357
8.31927
7.54935
6.71074
5.85238
5.04076
4.30198
3.65254
3.09594
2.62479
2.21098
1.86958
1.60179
1.39035
1.21474
1.05751
0.916126
0.788845
0.67421
0.573008
0.503196
0.570845
1.1328
2.55255
0.436521
0.482412
0.56214
0.70273
0.991198
1.48231
2.15122
2.93869
3.77226
4.58687
5.33494
5.9897
6.54297
7.00002
7.37534
7.69096
7.97684
8.2547
8.60875
0.408172
0.388111
0.373788
0.363743
0.35696
0.352312
0.349024
0.34666
0.34509
0.344326
0.343977
0.343862
0.344058
0.344698
0.345423
0.346329
0.347397
0.348594
0.349967
0.351488
0.353179
0.355039
0.357051
0.359232
0.361595
0.364162
0.366954
0.369979
0.373267
9.01531
9.57945
10.1903
10.7304
11.0504
11.1185
11.047
10.7998
10.3706
9.81577
9.17345
8.47252
7.71217
6.87776
6.01705