/*--------------------------------*- C++ -*----------------------------------*\
  =========                 |
  \\      /  F ield         | OpenFOAM: The Open Source CFD Toolbox
   \\    /   O peration     | Website:  https://openfoam.org
    \\  /    A nd           | Version:  8
     \\/     M anipulation  |
\*---------------------------------------------------------------------------*/
FoamFile
{
    version     2.0;
    format      ascii;
    class       volScalarField;
    location    "1100";
    object      nut;
}
// * * * * * * * * * * * * * * * * * * * * * * * * * * * * * * * * * * * * * //

dimensions      [0 2 -1 0 0 0 0];

internalField   nonuniform List<scalar> 
15677
(
7.48316e-05
0.000154182
0.000258074
0.000722819
0.00180655
0.00331916
0.00477685
0.00581866
0.00636659
0.00658976
0.00667781
0.00671618
0.00671483
0.00670855
0.00670615
0.00670572
0.00670574
0.00670576
0.00670574
0.00670571
0.00670568
0.00670566
0.00670565
0.00670564
0.00670564
0.00670565
0.00670565
0.00670566
0.00670566
0.00670567
0.00670567
0.00670567
0.00670568
0.00670568
0.00670568
8.20517e-05
0.000137573
0.000177802
0.000375031
0.00087385
0.00172062
0.00284136
0.00405913
0.00517076
0.00598093
0.00641388
0.00659623
0.00668359
0.00670344
0.00670348
0.00670189
0.00670118
0.00670104
0.00670108
0.00670113
0.00670116
0.00670118
0.00670118
0.00670118
0.00670117
0.00670116
0.00670115
0.00670114
0.00670113
0.00670112
0.00670111
0.0067011
0.0067011
0.00670109
0.00670109
8.02042e-05
0.000111442
0.00014752
0.000310398
0.000665534
0.00126631
0.0021133
0.00314462
0.00423187
0.00521263
0.00595693
0.00639456
0.00659109
0.00667465
0.0066949
0.00669774
0.00669728
0.00669672
0.00669644
0.00669632
0.00669625
0.00669621
0.00669619
0.00669618
0.00669617
0.00669617
0.00669617
0.00669618
0.00669618
0.00669619
0.00669619
0.0066962
0.0066962
0.0066962
0.00669621
7.67511e-05
0.000108579
0.000125402
0.000257579
0.000566699
0.00106514
0.0017667
0.00264956
0.00364251
0.00462963
0.00548088
0.00609885
0.0064542
0.00661936
0.00667435
0.00668937
0.00669256
0.00669285
0.0066927
0.0066926
0.00669256
0.00669254
0.00669252
0.0066925
0.00669248
0.00669246
0.00669243
0.00669241
0.00669239
0.00669237
0.00669236
0.00669234
0.00669233
0.00669232
0.00669231
7.43254e-05
0.000111408
0.000122937
0.000234024
0.000504695
0.000947242
0.00156255
0.00234422
0.00325111
0.00420179
0.00508669
0.00580027
0.00628304
0.00654082
0.00664233
0.0066762
0.00668606
0.00668827
0.00668847
0.00668829
0.00668813
0.00668802
0.00668795
0.00668791
0.00668789
0.00668788
0.00668787
0.00668787
0.00668787
0.00668787
0.00668787
0.00668788
0.00668788
0.00668788
0.00668788
7.27336e-05
0.000117722
0.000123027
0.000212531
0.000461308
0.000868379
0.00142906
0.00214027
0.00297758
0.00388308
0.00476776
0.00553121
0.00609598
0.00643961
0.00659534
0.00665571
0.00667694
0.00668342
0.00668504
0.00668531
0.00668527
0.0066852
0.00668513
0.00668507
0.00668502
0.00668497
0.00668492
0.00668488
0.00668484
0.00668481
0.00668478
0.00668475
0.00668473
0.00668471
0.00668469
7.17204e-05
0.000124128
0.000127105
0.000205266
0.000427868
0.000808015
0.00133236
0.00199423
0.00277776
0.00364071
0.00451115
0.00529855
0.00592045
0.00633592
0.00654047
0.00662889
0.00666408
0.00667652
0.00668028
0.00668113
0.00668115
0.00668102
0.0066809
0.00668081
0.00668075
0.00668071
0.00668068
0.00668066
0.00668064
0.00668064
0.00668063
0.00668062
0.00668062
0.00668062
0.00668062
7.1021e-05
0.000129506
0.000135643
0.000196335
0.000401234
0.000758783
0.00125695
0.00188314
0.00262531
0.00345148
0.00430295
0.00509958
0.00575955
0.0062294
0.00648019
0.00659757
0.00664878
0.00666908
0.00667632
0.00667859
0.00667915
0.00667917
0.00667908
0.00667897
0.00667887
0.00667878
0.0066787
0.00667863
0.00667856
0.0066785
0.00667845
0.0066784
0.00667836
0.00667833
0.00667829
7.05343e-05
0.000133921
0.000144978
0.00019201
0.000377168
0.000717374
0.00119484
0.00179476
0.00250528
0.0033009
0.00413286
0.00493046
0.00561524
0.00612685
0.00641762
0.00656266
0.00663039
0.00665925
0.00667036
0.00667412
0.00667515
0.00667527
0.00667518
0.00667506
0.00667495
0.00667486
0.00667479
0.00667473
0.00667469
0.00667465
0.00667463
0.00667461
0.00667459
0.00667458
0.00667457
7.01474e-05
0.00013663
0.000153683
0.000192626
0.000357403
0.0006822
0.00114306
0.00172252
0.00240814
0.00317852
0.00399225
0.00478657
0.0054874
0.00603123
0.00635597
0.00652666
0.00661119
0.00664978
0.00666602
0.00667225
0.00667433
0.00667482
0.00667482
0.00667469
0.00667454
0.00667439
0.00667426
0.00667415
0.00667404
0.00667395
0.00667386
0.00667379
0.00667372
0.00667366
0.00667361
6.98736e-05
0.000139331
0.000161899
0.000195217
0.000339822
0.000648385
0.00109748
0.00166209
0.00232875
0.00307857
0.00387591
0.00466475
0.00537561
0.00594398
0.00629686
0.00649038
0.00659051
0.00663825
0.00665918
0.00666758
0.00667058
0.00667141
0.00667151
0.0066714
0.00667125
0.0066711
0.00667097
0.00667086
0.00667076
0.00667068
0.00667062
0.00667057
0.00667053
0.0066705
0.00667048
6.97076e-05
0.000141518
0.000169177
0.000199166
0.000327445
0.000619234
0.00105661
0.0016099
0.00226194
0.00299557
0.00377895
0.0045616
0.00527852
0.00586565
0.00624215
0.00645599
0.00657127
0.00662908
0.00665602
0.00666761
0.00667207
0.00667344
0.00667371
0.00667362
0.00667343
0.00667323
0.00667304
0.00667287
0.00667271
0.00667258
0.00667246
0.00667236
0.00667227
0.00667218
0.00667211
6.96357e-05
0.000143185
0.000175727
0.00020401
0.000318774
0.000594031
0.00102084
0.00156522
0.00220686
0.00292714
0.00369868
0.00447519
0.00519572
0.00579728
0.00619281
0.00642409
0.0065524
0.0066182
0.00664961
0.00666362
0.00666936
0.00667133
0.00667183
0.00667183
0.00667166
0.00667145
0.00667125
0.00667106
0.0066709
0.00667076
0.00667064
0.00667053
0.00667044
0.00667037
0.00667032
6.96508e-05
0.000144437
0.000181094
0.000209212
0.000313261
0.000573688
0.000989997
0.00152694
0.00216001
0.00287131
0.00363264
0.00440349
0.00512582
0.00573795
0.00614989
0.00639627
0.0065373
0.0066131
0.00665094
0.00666834
0.00667565
0.00667823
0.00667894
0.00667898
0.00667881
0.00667857
0.00667832
0.00667809
0.00667789
0.00667772
0.00667759
0.00667749
0.00667742
0.00667736
0.00667731
6.97213e-05
0.000145417
0.000185886
0.000214314
0.000309736
0.000557181
0.000963859
0.0014948
0.00212159
0.00282506
0.00357993
0.00434529
0.00506864
0.00569043
0.00611421
0.00637392
0.00652485
0.00660574
0.00664683
0.00666683
0.00667581
0.00667926
0.00668037
0.00668059
0.00668047
0.00668024
0.00667999
0.00667977
0.00667957
0.00667941
0.00667926
0.00667911
0.00667895
0.00667878
0.0066786
6.98746e-05
0.000146084
0.000189506
0.000219116
0.000308177
0.00054367
0.000941974
0.00146809
0.00209075
0.00278871
0.0035378
0.00430029
0.00502446
0.00564994
0.00608326
0.00635486
0.00651802
0.00661054
0.00665911
0.00668258
0.00669342
0.0066978
0.00669936
0.0066998
0.00669982
0.00669967
0.00669948
0.00669928
0.0066991
0.00669894
0.00669882
0.00669873
0.0066987
0.00669873
0.00669883
7.01227e-05
0.000146574
0.000193024
0.000223455
0.000307416
0.000533518
0.00092432
0.00144722
0.00206724
0.00276167
0.00350671
0.00426602
0.00498912
0.00562555
0.00607365
0.00635175
0.00651973
0.00661531
0.00666618
0.00669153
0.00670345
0.00670846
0.00671038
0.00671104
0.0067112
0.00671116
0.00671106
0.00671094
0.00671085
0.00671078
0.00671074
0.00671074
0.00671076
0.00671078
0.00671078
7.04487e-05
0.000146815
0.000195362
0.000227703
0.000308296
0.000527047
0.000910955
0.0014309
0.00205036
0.00274364
0.00348572
0.00424387
0.00497437
0.00561357
0.00606593
0.00635251
0.00652669
0.00662671
0.00668088
0.00670859
0.00672199
0.00672792
0.00673042
0.00673148
0.00673193
0.00673213
0.00673223
0.00673231
0.00673239
0.00673249
0.00673262
0.00673276
0.00673289
0.00673299
0.00673308
7.08515e-05
0.000146775
0.000197376
0.000231039
0.000309341
0.000522466
0.000901488
0.00142122
0.00204039
0.00273256
0.00347641
0.00423859
0.00496625
0.00560742
0.00606461
0.00635885
0.00654184
0.00664872
0.00670797
0.00673924
0.00675501
0.00676232
0.00676575
0.00676745
0.0067684
0.006769
0.00676945
0.00676985
0.00677024
0.00677064
0.00677103
0.00677139
0.00677172
0.00677199
0.00677222
7.1329e-05
0.000146623
0.000198696
0.000234572
0.000311656
0.000520865
0.000896406
0.00141434
0.00203643
0.00273369
0.00347838
0.0042381
0.00496608
0.00561223
0.00607788
0.00638033
0.0065696
0.00668173
0.00674495
0.00677921
0.00679716
0.00680629
0.00681115
0.00681402
0.00681598
0.00681751
0.00681883
0.00682003
0.00682115
0.00682222
0.00682321
0.00682413
0.00682498
0.00682574
0.00682647
7.18782e-05
0.000146303
0.000199836
0.00023747
0.000313961
0.000520702
0.000894498
0.00141542
0.00204192
0.00274054
0.00348626
0.00424643
0.00498027
0.00563377
0.00610622
0.00641513
0.00661061
0.00672819
0.0067957
0.00683326
0.00685422
0.00686601
0.00687299
0.00687767
0.0068812
0.0068841
0.00688664
0.00688894
0.00689108
0.00689308
0.00689495
0.00689669
0.00689829
0.00689974
0.0069011
7.2495e-05
0.000145788
0.000200646
0.000239497
0.000317453
0.000523189
0.000896569
0.00141969
0.00205
0.00275196
0.00350327
0.00426999
0.00500913
0.005669
0.00614863
0.00646435
0.00666644
0.00678941
0.00686144
0.00690293
0.00692789
0.00694286
0.00695263
0.00695984
0.00696576
0.00697095
0.00697567
0.00698005
0.00698412
0.00698792
0.00699143
0.00699466
0.00699761
0.00700026
0.00700267
7.31731e-05
0.00014513
0.000201017
0.000241595
0.000320396
0.000527214
0.000901325
0.00142766
0.00206386
0.00277303
0.00353145
0.00430504
0.00505125
0.00571901
0.00620666
0.00652994
0.0067394
0.00686849
0.0069453
0.0069931
0.00702327
0.00704323
0.00705761
0.00706908
0.00707887
0.00708756
0.00709544
0.0071027
0.00710943
0.00711567
0.00712144
0.00712674
0.00713158
0.00713593
0.00713988
7.3907e-05
0.000144358
0.00020109
0.000243639
0.00032384
0.000532217
0.00090898
0.00144054
0.00208434
0.00280351
0.00356956
0.00435164
0.00510672
0.00578379
0.00628079
0.0066136
0.00683026
0.00696475
0.00705015
0.00710474
0.00714161
0.00716801
0.00718836
0.00720543
0.00722061
0.00723455
0.00724754
0.0072597
0.00727104
0.00728156
0.00729126
0.00730015
0.00730821
0.00731547
0.00732198
7.46896e-05
0.000143467
0.000200915
0.000245303
0.0003276
0.000538857
0.000919667
0.00145786
0.00211137
0.0028404
0.00361712
0.00440984
0.00517587
0.00586457
0.00637302
0.00671587
0.00694021
0.00708411
0.00717926
0.007243
0.00728935
0.00732538
0.0073552
0.00738144
0.00740532
0.0074273
0.00744765
0.00746652
0.00748403
0.00750025
0.00751522
0.00752897
0.0075415
0.00755284
0.00756301
7.55138e-05
0.000142505
0.000200527
0.000246609
0.000331751
0.000546976
0.000932988
0.00147967
0.00214472
0.00288494
0.00367402
0.00447955
0.00525879
0.00596087
0.00648384
0.00683674
0.00706961
0.00722707
0.00733326
0.0074086
0.00746727
0.00751594
0.00755791
0.00759571
0.00763071
0.00766364
0.00769482
0.00772429
0.00775197
0.00777779
0.00780166
0.00782359
0.00784358
0.00786169
0.0078778
7.63732e-05
0.000141452
0.000199935
0.000247793
0.000336278
0.000556473
0.00094883
0.00150503
0.00218275
0.0029366
0.00374009
0.00456057
0.00535515
0.00607492
0.00661255
0.00697548
0.00722414
0.00739598
0.00751663
0.00760748
0.00768295
0.0077493
0.00780922
0.00786523
0.00791837
0.00796872
0.00801609
0.0080604
0.00810169
0.0081401
0.00817573
0.00820864
0.00823887
0.00826647
0.00829102
7.72585e-05
0.000140364
0.000199205
0.000248742
0.000340886
0.000567022
0.000966805
0.00153415
0.00222579
0.00299521
0.00381501
0.00465268
0.00546587
0.00620489
0.00675783
0.00713448
0.00740231
0.00759078
0.00772923
0.00783952
0.00793676
0.00802683
0.00811085
0.00819022
0.00826555
0.00833736
0.00840615
0.00847211
0.00853504
0.00859451
0.0086501
0.00870153
0.00874872
0.00879183
0.00883
7.81659e-05
0.000139214
0.000198311
0.000249616
0.000345824
0.000578781
0.000987029
0.00156701
0.00227357
0.00306019
0.0038984
0.00475558
0.00559092
0.00634965
0.00691753
0.00731714
0.00760489
0.00781404
0.0079752
0.00811109
0.00823734
0.0083586
0.00847421
0.00858625
0.00869635
0.00880457
0.00890959
0.00900977
0.00910399
0.00919201
0.00927424
0.00935132
0.0094238
0.00949206
0.00955393
7.90834e-05
0.00013806
0.000197346
0.000250296
0.000350894
0.000591378
0.00100902
0.00160314
0.00232608
0.00313151
0.00398982
0.00486898
0.0057293
0.00650789
0.00709574
0.00752133
0.00783206
0.00806619
0.00825527
0.00842294
0.00858599
0.0087497
0.00891305
0.00907659
0.00923805
0.00939435
0.00954438
0.00968931
0.00983119
0.00997145
0.0101101
0.010246
0.0103771
0.0105018
0.0106136
0.00670569
0.00670571
0.00670572
0.00670574
0.00670575
0.00670577
0.00670579
0.00670581
0.00670583
0.00670585
0.00670586
0.00670588
0.0067059
0.00670592
0.00670594
0.00670596
0.00670597
0.00670598
0.006706
0.00670601
0.00670602
0.00670603
0.0067011
0.00670112
0.00670114
0.00670117
0.00670119
0.00670121
0.00670124
0.00670126
0.00670129
0.00670131
0.00670134
0.00670137
0.0067014
0.00670142
0.00670145
0.00670148
0.00670151
0.00670154
0.00670157
0.0067016
0.00670163
0.00670166
0.00669624
0.00669629
0.00669634
0.0066964
0.00669646
0.00669652
0.00669659
0.00669666
0.00669673
0.0066968
0.00669687
0.00669694
0.00669702
0.00669708
0.00669715
0.00669721
0.00669727
0.00669733
0.00669738
0.00669744
0.00669749
0.00669753
0.00669233
0.00669239
0.00669244
0.0066925
0.00669256
0.00669262
0.00669267
0.00669273
0.0066928
0.00669286
0.00669293
0.00669299
0.00669306
0.00669313
0.0066932
0.00669327
0.00669334
0.00669341
0.00669348
0.00669355
0.00669362
0.00669368
0.00668792
0.00668801
0.0066881
0.00668819
0.00668829
0.00668839
0.00668849
0.0066886
0.00668872
0.00668884
0.00668896
0.00668908
0.0066892
0.00668931
0.00668942
0.00668952
0.00668962
0.00668971
0.0066898
0.00668988
0.00668997
0.00669005
0.00668472
0.00668479
0.00668487
0.00668495
0.00668502
0.0066851
0.00668518
0.00668527
0.00668535
0.00668544
0.00668553
0.00668562
0.00668572
0.00668582
0.00668593
0.00668603
0.00668614
0.00668624
0.00668634
0.00668645
0.00668655
0.00668665
0.00668067
0.00668077
0.00668088
0.006681
0.00668112
0.00668125
0.00668139
0.00668154
0.00668169
0.00668185
0.00668202
0.00668218
0.00668234
0.00668249
0.00668263
0.00668277
0.00668289
0.00668301
0.00668312
0.00668323
0.00668334
0.00668344
0.00667831
0.00667839
0.00667846
0.00667854
0.00667861
0.00667869
0.00667877
0.00667884
0.00667892
0.00667901
0.0066791
0.0066792
0.00667931
0.00667943
0.00667956
0.00667969
0.00667982
0.00667996
0.00668009
0.00668022
0.00668035
0.00668048
0.00667461
0.00667471
0.00667482
0.00667494
0.00667507
0.00667521
0.00667537
0.00667555
0.00667574
0.00667593
0.00667613
0.00667633
0.00667651
0.00667668
0.00667684
0.00667698
0.00667711
0.00667723
0.00667735
0.00667747
0.00667759
0.00667771
0.00667359
0.00667362
0.00667365
0.00667368
0.00667371
0.00667373
0.00667375
0.00667376
0.00667377
0.00667379
0.00667383
0.00667389
0.00667398
0.00667409
0.00667422
0.00667437
0.00667452
0.00667468
0.00667484
0.00667499
0.00667513
0.00667527
0.00667048
0.0066705
0.00667054
0.00667059
0.00667068
0.0066708
0.00667096
0.00667114
0.00667135
0.00667157
0.00667179
0.00667198
0.00667215
0.00667228
0.00667238
0.00667247
0.00667255
0.00667263
0.00667272
0.00667282
0.00667292
0.00667303
0.00667202
0.00667191
0.0066718
0.00667169
0.00667155
0.00667138
0.00667118
0.00667096
0.00667073
0.00667053
0.00667037
0.00667029
0.00667028
0.00667035
0.00667046
0.00667061
0.00667077
0.00667093
0.00667107
0.0066712
0.00667132
0.00667143
0.00667018
0.00666992
0.00666969
0.00666952
0.00666944
0.00666945
0.00666957
0.00666976
0.00666999
0.00667021
0.00667037
0.00667046
0.00667044
0.00667035
0.00667023
0.00667009
0.00666998
0.0066699
0.00666987
0.00666988
0.00666993
0.00667001
0.00667709
0.00667672
0.00667632
0.00667582
0.00667519
0.00667442
0.00667353
0.00667258
0.00667165
0.00667083
0.00667018
0.00666977
0.00666959
0.00666959
0.00666969
0.00666982
0.00666994
0.00667002
0.00667005
0.00667003
0.00666997
0.00666989
0.00667786
0.00667649
0.00667541
0.00667469
0.00667432
0.00667428
0.0066745
0.00667484
0.00667517
0.00667534
0.00667522
0.00667475
0.00667401
0.00667314
0.00667226
0.00667147
0.00667082
0.00667036
0.00667007
0.00666993
0.0066699
0.00666995
0.00669835
0.00669724
0.00669561
0.00669366
0.0066913
0.00668848
0.00668544
0.00668239
0.00667954
0.00667714
0.00667564
0.00667488
0.0066747
0.00667483
0.00667505
0.00667519
0.00667515
0.00667487
0.00667439
0.00667377
0.00667309
0.00667242
0.00670973
0.0067075
0.00670529
0.0067031
0.00670121
0.00669991
0.00669884
0.00669785
0.00669685
0.00669564
0.00669351
0.00669075
0.00668749
0.00668424
0.00668127
0.00667879
0.00667704
0.00667603
0.00667555
0.00667542
0.00667545
0.00667557
0.00673144
0.00672792
0.00672451
0.00672131
0.00671828
0.00671538
0.00671267
0.00671007
0.00670746
0.00670479
0.00670218
0.00669989
0.00669841
0.00669723
0.00669615
0.00669504
0.00669343
0.00669126
0.00668866
0.006686
0.0066835
0.00668134
0.00676947
0.00676347
0.0067575
0.0067518
0.00674632
0.00674103
0.00673606
0.00673144
0.00672699
0.00672271
0.00671879
0.00671516
0.00671186
0.00670897
0.00670632
0.00670379
0.00670143
0.00669941
0.00669807
0.00669696
0.00669592
0.00669489
0.00682303
0.00681499
0.00680697
0.00679914
0.00679142
0.00678377
0.00677615
0.00676858
0.00676116
0.00675382
0.00674686
0.00674031
0.00673424
0.00672887
0.00672426
0.00672014
0.00671654
0.0067134
0.00671058
0.00670808
0.00670582
0.00670385
0.00689623
0.00688445
0.00687263
0.00686109
0.00684978
0.00683867
0.00682777
0.00681712
0.00680685
0.00679714
0.00678781
0.00677883
0.00677035
0.00676251
0.00675515
0.00674836
0.00674213
0.00673652
0.00673139
0.00672678
0.0067227
0.00671927
0.00699607
0.00697925
0.00696236
0.00694583
0.00692964
0.00691378
0.00689828
0.00688317
0.00686853
0.00685443
0.00684085
0.00682784
0.00681569
0.00680457
0.00679443
0.0067853
0.00677714
0.00676968
0.00676282
0.00675651
0.00675073
0.00674549
0.00713098
0.00710728
0.00708348
0.00706019
0.00703738
0.00701506
0.00699324
0.00697198
0.00695131
0.00693132
0.00691202
0.00689356
0.00687638
0.00686073
0.00684649
0.00683358
0.00682189
0.00681126
0.00680156
0.00679268
0.00678457
0.00677733
0.00731045
0.00727768
0.00724475
0.00721244
0.00718078
0.00714978
0.00711947
0.00708989
0.00706111
0.00703321
0.00700624
0.00698043
0.00695646
0.00693465
0.00691482
0.00689682
0.00688047
0.00686562
0.00685211
0.00683977
0.00682853
0.0068185
0.007548
0.00750306
0.00745792
0.00741359
0.00737011
0.0073275
0.00728578
0.00724504
0.00720536
0.00716686
0.00712963
0.00709402
0.00706098
0.00703094
0.00700364
0.00697884
0.00695633
0.00693589
0.00691731
0.0069004
0.00688502
0.00687131
0.007859
0.00779813
0.00773697
0.00767681
0.00761776
0.00755983
0.00750307
0.00744757
0.00739344
0.00734085
0.00728994
0.00724123
0.00719603
0.00715499
0.00711775
0.00708397
0.00705333
0.00702554
0.00700032
0.00697739
0.00695655
0.00693795
0.00826731
0.00818497
0.00810242
0.00802103
0.00794097
0.00786238
0.00778539
0.00771013
0.0076368
0.00756561
0.00749675
0.0074309
0.0073698
0.00731429
0.0072639
0.0072182
0.00717679
0.00713929
0.00710533
0.00707455
0.00704664
0.00702177
0.00880068
0.00868882
0.00857839
0.00846996
0.00836298
0.00825742
0.00815354
0.0080517
0.00795224
0.00785554
0.00776203
0.00767282
0.0075904
0.00751586
0.00744844
0.00738744
0.0073322
0.00728216
0.00723684
0.00719576
0.00715855
0.00712537
0.00951712
0.00935428
0.00919805
0.00904937
0.00890565
0.0087652
0.00862743
0.00849245
0.00836061
0.00823216
0.00810728
0.00798725
0.00787568
0.00777454
0.00768326
0.00760116
0.00752739
0.00746106
0.00740128
0.00734723
0.00729826
0.00725446
0.010572
0.0103228
0.0100781
0.00984882
0.00963416
0.00943114
0.00923731
0.00905102
0.00887148
0.00869942
0.00853526
0.00837924
0.00823444
0.00810232
0.00798168
0.00787188
0.00777256
0.00768327
0.00760336
0.00753192
0.007468
0.00741138
0.00670604
0.00670604
0.00670604
0.00670604
0.00670604
0.00670604
0.00670167
0.00670167
0.00670167
0.00670167
0.00670167
0.00670167
0.00669756
0.00669756
0.00669756
0.00669756
0.00669756
0.00669756
0.00669371
0.00669371
0.00669371
0.00669371
0.00669371
0.00669371
0.00669009
0.00669008
0.00669008
0.00669008
0.00669008
0.00669009
0.0066867
0.0066867
0.0066867
0.0066867
0.0066867
0.0066867
0.00668349
0.00668349
0.00668349
0.00668349
0.00668349
0.00668349
0.00668055
0.00668055
0.00668055
0.00668055
0.00668055
0.00668055
0.00667776
0.00667776
0.00667775
0.00667775
0.00667776
0.00667777
0.00667535
0.00667535
0.00667535
0.00667535
0.00667535
0.00667535
0.00667309
0.00667308
0.00667309
0.00667309
0.00667309
0.0066731
0.00667147
0.00667145
0.00667144
0.00667144
0.00667145
0.00667148
0.00667007
0.00667011
0.00667013
0.00667013
0.00667011
0.00667009
0.00666979
0.00666968
0.00666963
0.00666963
0.00666969
0.0066698
0.00667009
0.00667024
0.00667033
0.00667033
0.00667025
0.0066701
0.00667186
0.00667153
0.00667139
0.00667139
0.00667156
0.00667191
0.0066759
0.00667626
0.00667645
0.00667645
0.00667626
0.00667591
0.00667995
0.00667944
0.00667929
0.00667931
0.00667949
0.00668004
0.00669446
0.00669452
0.00669453
0.00669454
0.00669455
0.0066945
0.00670286
0.00670276
0.0067028
0.00670281
0.0067028
0.00670293
0.00671755
0.00671736
0.0067174
0.00671742
0.00671741
0.00671765
0.00674282
0.00674246
0.00674248
0.00674251
0.00674254
0.00674296
0.00677366
0.00677335
0.00677339
0.00677342
0.00677344
0.00677382
0.00681342
0.00681295
0.00681301
0.00681305
0.00681306
0.00681362
0.00686444
0.00686386
0.00686397
0.00686401
0.006864
0.00686468
0.00692862
0.00692788
0.00692802
0.00692807
0.00692805
0.0069289
0.00700941
0.00700856
0.00700877
0.00700883
0.00700875
0.00700974
0.00710894
0.00710799
0.00710832
0.00710839
0.00710822
0.00710933
0.00723265
0.00723136
0.00723168
0.00723177
0.00723163
0.00723312
0.00738381
0.00738257
0.00738302
0.00738312
0.00738288
0.00738437
0.00670603
0.00670602
0.00670601
0.006706
0.00670598
0.00670597
0.00670595
0.00670594
0.00670592
0.0067059
0.00670588
0.00670586
0.00670584
0.00670582
0.0067058
0.00670578
0.00670576
0.00670574
0.00670572
0.0067057
0.00670569
0.00670567
0.00670166
0.00670163
0.0067016
0.00670157
0.00670154
0.00670151
0.00670148
0.00670145
0.00670143
0.0067014
0.00670137
0.00670135
0.00670132
0.0067013
0.00670127
0.00670125
0.00670123
0.00670121
0.00670119
0.00670117
0.00670114
0.00670112
0.00669753
0.00669749
0.00669743
0.00669738
0.00669733
0.00669727
0.00669721
0.00669715
0.00669708
0.00669701
0.00669694
0.00669687
0.00669679
0.00669672
0.00669664
0.00669658
0.00669651
0.00669644
0.00669638
0.00669632
0.00669627
0.00669621
0.00669368
0.00669361
0.00669355
0.00669348
0.00669341
0.00669334
0.00669327
0.0066932
0.00669313
0.00669306
0.006693
0.00669293
0.00669286
0.0066928
0.00669274
0.00669269
0.00669263
0.00669258
0.00669252
0.00669247
0.00669242
0.00669236
0.00669005
0.00668997
0.00668988
0.0066898
0.00668971
0.00668962
0.00668952
0.00668942
0.00668931
0.0066892
0.00668908
0.00668896
0.00668884
0.00668872
0.0066886
0.00668849
0.00668838
0.00668828
0.00668818
0.00668809
0.006688
0.00668792
0.00668665
0.00668655
0.00668645
0.00668634
0.00668624
0.00668613
0.00668603
0.00668593
0.00668583
0.00668573
0.00668563
0.00668553
0.00668544
0.00668536
0.00668528
0.0066852
0.00668512
0.00668504
0.00668497
0.0066849
0.00668482
0.00668475
0.00668345
0.00668334
0.00668323
0.00668312
0.00668301
0.00668289
0.00668277
0.00668264
0.0066825
0.00668235
0.0066822
0.00668204
0.00668187
0.00668171
0.00668156
0.00668141
0.00668128
0.00668115
0.00668102
0.00668091
0.0066808
0.0066807
0.00668048
0.00668036
0.00668023
0.00668009
0.00667996
0.00667983
0.00667969
0.00667956
0.00667944
0.00667932
0.00667922
0.00667912
0.00667902
0.00667894
0.00667886
0.00667879
0.00667871
0.00667864
0.00667856
0.00667849
0.00667841
0.00667834
0.00667771
0.0066776
0.00667748
0.00667736
0.00667724
0.00667712
0.00667699
0.00667685
0.0066767
0.00667654
0.00667636
0.00667617
0.00667597
0.00667578
0.0066756
0.00667543
0.00667528
0.00667514
0.00667502
0.00667491
0.00667481
0.00667472
0.00667528
0.00667514
0.00667499
0.00667484
0.00667469
0.00667453
0.00667438
0.00667424
0.00667411
0.00667401
0.00667393
0.00667387
0.00667383
0.00667382
0.0066738
0.00667379
0.00667377
0.00667375
0.00667371
0.00667368
0.00667364
0.00667361
0.00667304
0.00667293
0.00667283
0.00667274
0.00667266
0.00667258
0.0066725
0.00667242
0.00667232
0.00667219
0.00667203
0.00667184
0.00667163
0.00667142
0.00667123
0.00667106
0.00667092
0.00667082
0.00667076
0.00667073
0.00667072
0.00667072
0.00667144
0.00667133
0.00667122
0.00667109
0.00667095
0.0066708
0.00667064
0.00667051
0.0066704
0.00667035
0.00667037
0.00667046
0.00667063
0.00667084
0.00667106
0.00667128
0.00667147
0.00667163
0.00667175
0.00667185
0.00667194
0.00667203
0.00667003
0.00666995
0.00666991
0.00666991
0.00666995
0.00667004
0.00667016
0.0066703
0.00667043
0.00667052
0.00667053
0.00667045
0.00667029
0.00667008
0.00666987
0.00666971
0.00666963
0.00666966
0.0066698
0.00667004
0.00667034
0.00667067
0.00666992
0.00667
0.00667006
0.00667009
0.00667006
0.00666998
0.00666987
0.00666975
0.00666967
0.0066697
0.00666991
0.00667035
0.00667104
0.00667189
0.00667284
0.0066738
0.00667468
0.00667542
0.00667601
0.00667645
0.00667681
0.00667713
0.00666998
0.00666994
0.00666998
0.00667015
0.00667046
0.00667096
0.00667163
0.00667244
0.00667332
0.00667418
0.0066749
0.00667534
0.00667544
0.00667525
0.00667492
0.00667461
0.00667445
0.00667457
0.00667507
0.00667596
0.00667725
0.00667882
0.00667248
0.00667317
0.00667386
0.00667448
0.00667496
0.00667522
0.00667525
0.0066751
0.0066749
0.00667481
0.00667506
0.00667591
0.00667757
0.0066801
0.00668304
0.00668615
0.00668922
0.00669202
0.00669429
0.00669619
0.00669772
0.00669876
0.00667559
0.00667548
0.00667547
0.00667564
0.00667617
0.00667728
0.00667914
0.0066817
0.00668471
0.00668796
0.00669118
0.00669386
0.00669593
0.00669711
0.00669811
0.00669912
0.00670023
0.00670162
0.00670368
0.00670593
0.0067082
0.00671048
0.00668148
0.00668371
0.00668626
0.00668897
0.00669159
0.00669371
0.00669523
0.00669634
0.00669743
0.00669862
0.00670014
0.00670254
0.0067052
0.00670792
0.00671055
0.0067132
0.00671596
0.00671894
0.00672203
0.00672533
0.00672884
0.00673249
0.00669496
0.00669602
0.00669708
0.00669821
0.0066996
0.00670172
0.00670412
0.00670667
0.00670933
0.00671225
0.00671556
0.00671923
0.00672327
0.00672764
0.00673215
0.00673686
0.00674196
0.00674737
0.00675294
0.00675877
0.00676492
0.00677113
0.00670396
0.00670599
0.0067083
0.00671086
0.00671374
0.00671693
0.00672061
0.00672479
0.00672947
0.00673488
0.00674096
0.00674755
0.00675466
0.0067621
0.00676961
0.00677727
0.00678494
0.00679266
0.00680045
0.0068084
0.00681656
0.00682476
0.00671944
0.00672296
0.00672715
0.00673186
0.00673709
0.00674278
0.0067491
0.00675593
0.00676329
0.00677113
0.00677958
0.0067886
0.00679809
0.00680798
0.00681839
0.00682915
0.00684014
0.00685134
0.00686275
0.00687441
0.00688636
0.00689831
0.00674572
0.00675107
0.00675696
0.00676339
0.00677036
0.00677791
0.00678616
0.00679538
0.00680556
0.00681668
0.00682878
0.00684185
0.00685565
0.00686995
0.00688477
0.00690001
0.00691563
0.00693158
0.00694787
0.00696452
0.00698154
0.00699851
0.00677761
0.006785
0.00679327
0.0068023
0.00681215
0.0068229
0.0068347
0.00684771
0.00686199
0.00687763
0.00689472
0.00691327
0.00693286
0.00695311
0.00697398
0.00699541
0.00701735
0.00703977
0.00706267
0.00708606
0.00710994
0.00713374
0.00681885
0.00682908
0.00684053
0.00685306
0.00686677
0.00688179
0.00689828
0.00691639
0.00693626
0.00695804
0.00698188
0.00700777
0.00703513
0.00706336
0.0070924
0.00712217
0.00715262
0.00718371
0.00721543
0.00724777
0.00728073
0.00731351
0.00687175
0.00688572
0.00690137
0.00691854
0.00693737
0.00695803
0.00698072
0.00700563
0.00703297
0.00706295
0.0070958
0.00713151
0.00716925
0.00720817
0.00724817
0.00728914
0.007331
0.00737367
0.00741715
0.00746142
0.00750645
0.00755123
0.00693849
0.00695743
0.00697862
0.0070019
0.00702744
0.00705551
0.00708637
0.00712029
0.00715757
0.00719849
0.00724339
0.00729222
0.00734379
0.00739693
0.00745146
0.00750724
0.00756413
0.00762207
0.00768102
0.00774098
0.00780183
0.00786227
0.00702243
0.00704775
0.00707611
0.00710734
0.0071417
0.00717956
0.00722125
0.00726712
0.00731752
0.00737285
0.00743352
0.00749951
0.00756923
0.00764113
0.00771497
0.00779053
0.00786763
0.00794614
0.00802594
0.0081069
0.00818884
0.00827036
0.00712617
0.00715993
0.00719773
0.00723938
0.00728522
0.00733572
0.00739131
0.00745252
0.00751993
0.0075942
0.00767599
0.00776533
0.00785996
0.00795756
0.00805766
0.00815986
0.00826382
0.00836919
0.00847571
0.0085834
0.00869278
0.00880319
0.00725543
0.00729999
0.00734972
0.0074045
0.00746496
0.00753188
0.00760609
0.00768841
0.00777962
0.00788033
0.00799101
0.0081112
0.00823757
0.00836717
0.0084998
0.00863517
0.00877293
0.00891298
0.00905585
0.00920317
0.00935737
0.00951745
0.00741257
0.00747016
0.00753505
0.00760743
0.0076882
0.00777821
0.00787804
0.00798806
0.00810856
0.0082401
0.0083837
0.00853981
0.00870571
0.00887906
0.0090595
0.00924625
0.00943993
0.00964205
0.00985495
0.0100814
0.0103221
0.0105666
0.00670567
0.00670566
0.00670566
0.00670566
0.00670566
0.00670565
0.00670565
0.00670566
0.00670566
0.00670566
0.00670567
0.00670568
0.00670569
0.0067057
0.00670573
0.00670576
0.00670578
0.0067058
0.00670576
0.00670573
0.00670616
0.00670855
0.00671482
0.00671616
0.00667778
0.00658969
0.00636641
0.00581822
0.00477612
0.00331828
0.00180582
0.000722411
0.00025791
0.000154125
7.48191e-05
0.00670111
0.00670112
0.00670112
0.00670113
0.00670113
0.00670113
0.00670113
0.00670113
0.00670113
0.00670113
0.00670112
0.00670112
0.00670111
0.0067011
0.00670109
0.00670106
0.00670102
0.006701
0.00670115
0.00670187
0.00670347
0.00670345
0.0066836
0.00659622
0.00641379
0.00598065
0.00517027
0.0040585
0.00284072
0.00172011
0.00087352
0.000374862
0.000177728
0.000137547
8.20326e-05
0.00669619
0.00669618
0.00669618
0.00669618
0.00669618
0.00669618
0.00669619
0.00669619
0.0066962
0.00669621
0.00669623
0.00669625
0.00669627
0.0066963
0.00669633
0.00669639
0.0066965
0.00669677
0.00669731
0.00669776
0.0066949
0.00667464
0.00659106
0.00639449
0.00595674
0.00521229
0.00423141
0.00314412
0.00211284
0.00126596
0.000665309
0.000310272
0.000147459
0.000111416
8.01839e-05
0.00669234
0.00669235
0.00669236
0.00669236
0.00669237
0.00669237
0.00669238
0.00669238
0.00669239
0.00669239
0.0066924
0.0066924
0.00669241
0.00669243
0.00669245
0.00669251