/*--------------------------------*- C++ -*----------------------------------*\
  =========                 |
  \\      /  F ield         | OpenFOAM: The Open Source CFD Toolbox
   \\    /   O peration     | Website:  https://openfoam.org
    \\  /    A nd           | Version:  8
     \\/     M anipulation  |
\*---------------------------------------------------------------------------*/
FoamFile
{
    version     2.0;
    format      ascii;
    class       surfaceScalarField;
    location    "1100";
    object      phi;
}
// * * * * * * * * * * * * * * * * * * * * * * * * * * * * * * * * * * * * * //

dimensions      [0 3 -1 0 0 0 0];

internalField   nonuniform List<scalar> 
31053
(
1.74433e-06
1.16444e-05
1.36367e-06
1.57479e-05
1.26619e-06
1.77357e-05
1.20171e-06
2.03092e-05
1.13106e-06
2.33071e-05
1.05757e-06
2.67437e-05
9.80775e-07
3.06883e-05
9.00368e-07
3.52156e-05
8.16717e-07
4.04111e-05
7.30655e-07
4.6373e-05
6.43482e-07
5.32143e-05
5.56925e-07
6.10647e-05
4.72919e-07
7.00733e-05
3.93519e-07
8.04116e-05
3.32255e-07
7.62517e-05
2.81759e-07
7.6241e-05
2.39835e-07
7.62324e-05
2.04796e-07
7.62255e-05
1.75321e-07
7.62199e-05
1.50374e-07
7.62154e-05
1.29144e-07
7.62117e-05
1.12435e-07
6.95988e-05
9.92458e-08
6.25572e-05
8.86593e-08
5.62283e-05
8.00418e-08
5.054e-05
7.29445e-08
4.54272e-05
6.70405e-08
4.08318e-05
6.20878e-08
3.67014e-05
5.79026e-08
3.29888e-05
5.4344e-08
2.96518e-05
5.13015e-08
2.66524e-05
4.86874e-08
2.39564e-05
4.64314e-08
2.15332e-05
4.44761e-08
1.9355e-05
1.73972e-05
4.27759e-08
9.63556e-07
1.06808e-05
1.52646e-06
1.5185e-05
1.50991e-06
1.77522e-05
1.45175e-06
2.03673e-05
1.3986e-06
2.33602e-05
1.34269e-06
2.67996e-05
1.28175e-06
3.07493e-05
1.21526e-06
3.52821e-05
1.14298e-06
4.04834e-05
1.06492e-06
4.6451e-05
9.81418e-07
5.32978e-05
8.93157e-07
6.11529e-05
8.01175e-07
7.01653e-05
7.06563e-07
8.05062e-05
6.26073e-07
7.63322e-05
5.53904e-07
7.63131e-05
4.89253e-07
7.6297e-05
4.31346e-07
7.62834e-05
3.7948e-07
7.62718e-05
3.33027e-07
7.62619e-05
2.91444e-07
7.62533e-05
2.57388e-07
6.96329e-05
2.29719e-07
6.25848e-05
2.07045e-07
5.6251e-05
1.88315e-07
5.05587e-05
1.7273e-07
4.54428e-05
1.59674e-07
4.08449e-05
1.4867e-07
3.67124e-05
1.39341e-07
3.29981e-05
1.31391e-07
2.96598e-05
1.24582e-07
2.66592e-05
1.18724e-07
2.39623e-05
1.13663e-07
2.15382e-05
1.09271e-07
1.93594e-05
1.74011e-05
1.05442e-07
5.93415e-07
1.00874e-05
1.20943e-06
1.4569e-05
1.3375e-06
1.76241e-05
1.32738e-06
2.03775e-05
1.29674e-06
2.33909e-05
1.26022e-06
2.68362e-05
1.21942e-06
3.07901e-05
1.17378e-06
3.53278e-05
1.12231e-06
4.05348e-05
1.06407e-06
4.65093e-05
9.98402e-07
5.33634e-05
9.25058e-07
6.12263e-05
8.44495e-07
7.02459e-05
7.57762e-07
8.05929e-05
6.81201e-07
7.64088e-05
6.1026e-07
7.63841e-05
5.44792e-07
7.63625e-05
4.84556e-07
7.63436e-05
4.29305e-07
7.63271e-05
3.78794e-07
7.63124e-05
3.32778e-07
7.62993e-05
2.94393e-07
6.96713e-05
2.62705e-07
6.26165e-05
2.36403e-07
5.62773e-05
2.14457e-07
5.05806e-05
1.96052e-07
4.54612e-05
1.80541e-07
4.08604e-05
1.6741e-07
3.67255e-05
1.56241e-07
3.30093e-05
1.46703e-07
2.96693e-05
1.38521e-07
2.66674e-05
1.31476e-07
2.39693e-05
1.25386e-07
2.15443e-05
1.20102e-07
1.93647e-05
1.74057e-05
1.15502e-07
4.3181e-07
9.65551e-06
9.70879e-07
1.40299e-05
1.18754e-06
1.74074e-05
1.2239e-06
2.03411e-05
1.2107e-06
2.3404e-05
1.18307e-06
2.68638e-05
1.14877e-06
3.08244e-05
1.10909e-06
3.53674e-05
1.06374e-06
4.05802e-05
1.01197e-06
4.6561e-05
9.52823e-07
5.34226e-05
8.85452e-07
6.12936e-05
8.09419e-07
7.03219e-05
7.25115e-07
8.06772e-05
6.49356e-07
7.64845e-05
5.78157e-07
7.64553e-05
5.11729e-07
7.64289e-05
4.50114e-07
7.64053e-05
3.93272e-07
7.63839e-05
3.41114e-07
7.63645e-05
2.93537e-07
7.63469e-05
2.53987e-07
6.97108e-05
2.21533e-07
6.2649e-05
1.94803e-07
5.6304e-05
1.72702e-07
5.06027e-05
1.54358e-07
4.54796e-05
1.39073e-07
4.08757e-05
1.26286e-07
3.67383e-05
1.15545e-07
3.302e-05
1.06485e-07
2.96784e-05
9.88091e-08
2.66751e-05
9.22793e-08
2.39759e-05
8.67004e-08
2.15499e-05
8.19137e-08
1.93695e-05
1.74098e-05
7.77887e-08
3.07078e-07
9.34841e-06
7.47201e-07
1.35897e-05
1.00244e-06
1.71522e-05
1.07508e-06
2.02684e-05
1.07935e-06
2.33998e-05
1.06048e-06
2.68827e-05
1.03102e-06
3.08538e-05
9.9451e-07
3.54039e-05
9.5174e-07
4.06229e-05
9.02478e-07
4.66103e-05
8.46041e-07
5.3479e-05
7.81584e-07
6.13581e-05
7.08405e-07
7.03951e-05
6.26341e-07
8.07593e-05
5.51511e-07
7.65594e-05
4.80447e-07
7.65263e-05
4.13702e-07
7.64957e-05
3.51603e-07
7.64674e-05
2.94334e-07
7.64412e-05
2.41991e-07
7.64169e-05
1.94615e-07
7.63942e-05
1.55701e-07
6.97497e-05
1.24251e-07
6.26804e-05
9.88053e-08
5.63294e-05
7.81849e-08
5.06233e-05
6.14429e-08
4.54963e-05
4.7819e-08
4.08893e-05
3.67039e-08
3.67494e-05
2.76092e-08
3.30291e-05
2.01438e-08
2.96858e-05
1.39944e-08
2.66812e-05
8.90994e-09
2.39809e-05
4.68922e-09
2.15541e-05
1.17075e-09
1.9373e-05
1.74127e-05
-1.77547e-09
2.14452e-07
9.13394e-06
5.6788e-07
1.32363e-05
8.28285e-07
1.68918e-05
9.2324e-07
2.01735e-05
9.40241e-07
2.33828e-05
9.2736e-07
2.68955e-05
9.00255e-07
3.08809e-05
8.64126e-07
3.54401e-05
8.20634e-07
4.06664e-05
7.70001e-07
4.66609e-05
7.11806e-07
5.35372e-05
6.45348e-07
6.14245e-05
5.69958e-07
7.04705e-05
4.85383e-07
8.08438e-05
4.08133e-07
7.66366e-05
3.34703e-07
7.65998e-05
2.65824e-07
7.65646e-05
2.02014e-07
7.65312e-05
1.43619e-07
7.64996e-05
9.08714e-08
7.64696e-05
4.39183e-08
7.64412e-05
6.1738e-09
6.97875e-05
-2.35423e-08
6.27101e-05
-4.68508e-08
5.63527e-05
-6.50671e-08
5.06416e-05
-7.92503e-08
4.55105e-05
-9.025e-08
4.09003e-05
-9.87437e-08
3.67579e-05
-1.05271e-07
3.30357e-05
-1.10259e-07
2.96908e-05
-1.14046e-07
2.6685e-05
-1.16899e-07
2.39838e-05
-1.19026e-07
2.15562e-05
-1.20593e-07
1.93746e-05
1.74139e-05
-1.21728e-07
1.52782e-07
8.98114e-06
4.31098e-07
1.29579e-05
6.77478e-07
1.66454e-05
7.84967e-07
2.0066e-05
8.10073e-07
2.33577e-05
8.00073e-07
2.69055e-05
7.72516e-07
3.09085e-05
7.33734e-07
3.54788e-05
6.86034e-07
4.07141e-05
6.30031e-07
4.67169e-05
5.65562e-07
5.36017e-05
4.92106e-07
6.1498e-05
4.09128e-07
7.05534e-05
3.16483e-07
8.09365e-05
2.32257e-07
7.67208e-05
1.52566e-07
7.66794e-05
7.82676e-08
7.66388e-05
1.00378e-08
7.65994e-05
-5.1628e-08
7.65612e-05
-1.06377e-07
7.65244e-05
-1.53965e-07
7.64888e-05
-1.91025e-07
6.98245e-05
-2.19063e-07
6.27382e-05
-2.39987e-07
5.63737e-05
-2.55348e-07
5.06569e-05
-2.66388e-07
4.55215e-05
-2.741e-07
4.0908e-05
-2.79268e-07
3.67631e-05
-2.82511e-07
3.30389e-05
-2.84312e-07
2.96926e-05
-2.85046e-07
2.66857e-05
-2.85005e-07
2.39838e-05
-2.84412e-07
2.15556e-05
-2.83436e-07
1.93736e-05
1.74126e-05
-2.8221e-07
1.1059e-07
8.87054e-06
3.25012e-07
1.27435e-05
5.4683e-07
1.64236e-05
6.5845e-07
1.99543e-05
6.86682e-07
2.33294e-05
6.76178e-07
2.6916e-05
6.45324e-07
3.09393e-05
6.01045e-07
3.55231e-05
5.46026e-07
4.07691e-05
4.81152e-07
4.67818e-05
4.06462e-07
5.36764e-05
3.21615e-07
6.15828e-05
2.26265e-07
7.06488e-05
1.20493e-07
8.10423e-05
2.49479e-08
7.68164e-05
-6.48698e-08
7.67693e-05
-1.47966e-07
7.67219e-05
-2.23507e-07
7.66749e-05
-2.90843e-07
7.66286e-05
-3.49487e-07
7.6583e-05
-3.99086e-07
7.65384e-05
-4.36266e-07
6.98617e-05
-4.62977e-07
6.27649e-05
-4.81537e-07
5.63922e-05
-4.93821e-07
5.06692e-05
-5.01332e-07
4.5529e-05
-5.05257e-07
4.09119e-05
-5.06532e-07
3.67644e-05
-5.05885e-07
3.30383e-05
-5.03878e-07
2.96906e-05
-5.00941e-07
2.66828e-05
-4.97401e-07
2.39802e-05
-4.93505e-07
2.15517e-05
-4.89433e-07
1.93695e-05
1.74085e-05
-4.85322e-07
7.98777e-08
8.79066e-06
2.42186e-07
1.25812e-05
4.31339e-07
1.62344e-05
5.39878e-07
1.98458e-05
5.66936e-07
2.33024e-05
5.5261e-07
2.69304e-05
5.15592e-07
3.09763e-05
4.63018e-07
3.55757e-05
3.97714e-07
4.08344e-05
3.2068e-07
4.68588e-05
2.32063e-07
5.3765e-05
1.31654e-07
6.16832e-05
1.92951e-08
7.07611e-05
-1.04627e-07
8.11662e-05
-2.15867e-07
7.69276e-05
-3.19763e-07
7.68732e-05
-4.15166e-07
7.68173e-05
-5.0107e-07
7.67608e-05
-5.76649e-07
7.67041e-05
-6.41265e-07
7.66476e-05
-6.94437e-07
7.65915e-05
-7.32705e-07
6.99e-05
-7.58579e-07
6.27907e-05
-7.74902e-07
5.64085e-05
-7.83974e-07
5.06783e-05
-7.87628e-07
4.55327e-05
-7.8731e-07
4.09116e-05
-7.84149e-07
3.67612e-05
-7.79018e-07
3.30331e-05
-7.72584e-07
2.96842e-05
-7.65353e-07
2.66756e-05
-7.57701e-07
2.39726e-05
-7.49905e-07
2.1544e-05
-7.42167e-07
1.93618e-05
1.7401e-05
-7.34629e-07
5.45005e-08
8.73617e-06
1.7446e-07
1.24613e-05
3.27361e-07
1.60815e-05
4.26298e-07
1.97469e-05
4.48295e-07
2.32804e-05
4.2696e-07
2.69517e-05
3.80901e-07
3.10224e-05
3.17214e-07
3.56394e-05
2.38656e-07
4.0913e-05
1.46196e-07
4.69513e-05
3.99852e-08
5.38712e-05
-8.01159e-08
6.18033e-05
-2.14094e-07
7.08951e-05
-3.61227e-07
8.13133e-05
-4.92649e-07
7.7059e-05
-6.14746e-07
7.69953e-05
-7.26171e-07
7.69288e-05
-8.25708e-07
7.68604e-05
-9.12332e-07
7.67908e-05
-9.8522e-07
7.67205e-05
-1.04374e-06
7.66501e-05
-1.08423e-06
6.99405e-05
-1.10989e-06
6.28164e-05
-1.1242e-06
5.64229e-05
-1.12999e-06
5.06841e-05
-1.12951e-06
4.55322e-05
-1.12451e-06
4.09066e-05
-1.11638e-06
3.67531e-05
-1.10617e-06
3.30229e-05
-1.09468e-06
2.96727e-05
-1.08252e-06
2.66634e-05
-1.07012e-06
2.39602e-05
-1.0578e-06
2.15316e-05
-1.0458e-06
1.93498e-05
1.73895e-05
-1.03427e-06
3.08024e-08
8.70536e-06
1.1541e-07
1.23766e-05
2.32419e-07
1.59645e-05
3.15928e-07
1.96633e-05
3.29045e-07
2.32673e-05
2.97619e-07
2.69831e-05
2.39608e-07
3.10804e-05
1.61905e-07
3.57171e-05
6.70378e-08
4.10079e-05
-4.41951e-08
4.70625e-05
-1.71729e-07
5.39987e-05
-3.15703e-07
6.19473e-05
-4.75977e-07
7.10554e-05
-6.5148e-07
8.14888e-05
-8.07703e-07
7.72153e-05
-9.52292e-07
7.71398e-05
-1.08365e-06
7.70601e-05
-1.20031e-06
7.6977e-05
-1.301e-06
7.68915e-05
-1.38469e-06
7.68042e-05
-1.45056e-06
7.67159e-05
-1.49461e-06
6.99845e-05
-1.52083e-06
6.28426e-05
-1.53347e-06
5.64355e-05
-1.536e-06
5.06866e-05
-1.53116e-06
4.55274e-05
-1.5211e-06
4.08966e-05
-1.5075e-06
3.67395e-05
-1.49163e-06
3.30071e-05
-1.47446e-06
2.96555e-05
-1.45672e-06
2.66457e-05
-1.43892e-06
2.39424e-05
-1.42146e-06
2.15142e-05
-1.40458e-06
1.93329e-05
1.73733e-05
-1.38846e-06
9.9758e-09
8.69539e-06
6.28049e-08
1.23238e-05
1.44923e-07
1.58824e-05
2.08045e-07
1.96002e-05
2.08594e-07
2.32667e-05
1.64106e-07
2.70276e-05
9.12352e-08
3.11533e-05
-3.48582e-09
3.58118e-05
-1.17849e-07
4.11222e-05
-2.51321e-07
4.7196e-05
-4.04022e-07
5.41514e-05
-5.7617e-07
6.21195e-05
-7.67533e-07
7.12467e-05
-9.76699e-07
8.1698e-05
-1.16249e-06
7.7401e-05
-1.33403e-06
7.73114e-05
-1.48943e-06
7.72155e-05
-1.62692e-06
7.71145e-05
-1.74496e-06
7.70095e-05
-1.84224e-06
7.69015e-05
-1.9177e-06
7.67914e-05
-1.96687e-06
7.00337e-05
-1.99461e-06
6.28704e-05
-2.0061e-06
5.6447e-05
-2.00553e-06
5.0686e-05
-1.99622e-06
4.55181e-05
-1.9808e-06
4.08811e-05
-1.96128e-06
3.67199e-05
-1.93921e-06
3.2985e-05
-1.91577e-06
2.96321e-05
-1.89183e-06
2.66217e-05
-1.868e-06
2.39185e-05
-1.84475e-06
2.14909e-05
-1.82238e-06
1.93105e-05
1.73521e-05
-1.80109e-06
-7.36548e-09
8.70274e-06
1.5194e-08
1.23012e-05
6.32284e-08
1.58343e-05
1.0201e-07
1.95614e-05
8.64594e-08
2.32823e-05
2.60603e-08
2.7088e-05
-6.44955e-08
3.12438e-05
-1.79171e-07
3.59265e-05
-3.16175e-07
4.12592e-05
-4.75332e-07
4.73552e-05
-6.57034e-07
5.43331e-05
-8.61641e-07
6.23241e-05
-1.08889e-06
7.1474e-05
-1.33706e-06
8.19461e-05
-1.55726e-06
7.76212e-05
-1.76035e-06
7.75145e-05
-1.94408e-06
7.73992e-05
-2.10634e-06
7.72768e-05
-2.24525e-06
7.71484e-05
-2.35918e-06
7.70154e-05
-2.4468e-06
7.6879e-05
-2.50293e-06
7.00898e-05
-2.53343e-06
6.29009e-05
-2.54451e-06
5.64581e-05
-2.54118e-06
5.06827e-05
-2.52745e-06
4.55043e-05
-2.50648e-06
4.08602e-05
-2.48071e-06
3.66942e-05
-2.45199e-06
3.29563e-05
-2.42175e-06
2.96018e-05
-2.39103e-06
2.6591e-05
-2.36058e-06
2.38881e-05
-2.33094e-06
2.14613e-05
-2.30249e-06
1.92821e-05
1.7325e-05
-2.27546e-06
-2.34824e-08
8.72622e-06
-2.94278e-08
1.23072e-05
-1.45437e-08
1.58194e-05
-2.8499e-09
1.95497e-05
-3.77422e-08
2.33171e-05
-1.16774e-07
2.7167e-05
-2.27632e-07
3.13547e-05
-3.65002e-07
3.60638e-05
-5.27605e-07
4.14218e-05
-7.15708e-07
4.75433e-05
-9.30058e-07
5.45475e-05
-1.17124e-06
6.25653e-05
-1.43903e-06
7.17418e-05
-1.73142e-06
8.22385e-05
-1.99085e-06
7.78807e-05
-2.23012e-06
7.77537e-05
-2.44658e-06
7.76157e-05
-2.63772e-06
7.74679e-05
-2.80126e-06
7.73119e-05
-2.93521e-06
7.71494e-05
-3.03788e-06
7.69817e-05
-3.10315e-06
7.01551e-05
-3.13795e-06
6.29357e-05
-3.14962e-06
5.64697e-05
-3.14414e-06
5.06772e-05
-3.12628e-06
4.54865e-05
-3.09978e-06
4.08337e-05
-3.06759e-06
3.6662e-05
-3.03192e-06
3.29206e-05
-2.99447e-06
2.95644e-05
-2.9565e-06
2.6553e-05
-2.91892e-06
2.38505e-05
-2.88236e-06
2.14247e-05
-2.84729e-06
1.9247e-05
1.72917e-05
-2.81399e-06
-4.02643e-08
8.76648e-06
-7.2625e-08
1.23395e-05
-8.97195e-08
1.58365e-05
-1.06957e-07
1.9567e-05
-1.63952e-07
2.33741e-05
-2.64081e-07
2.72672e-05
-3.97572e-07
3.14882e-05
-5.60071e-07
3.62263e-05
-7.5093e-07
4.16127e-05
-9.70941e-07
4.77633e-05
-1.22128e-06
5.47978e-05
-1.50285e-06
6.28468e-05
-1.81554e-06
7.20545e-05
-2.15715e-06
8.25801e-05
-2.46049e-06
7.8184e-05
-2.74053e-06
7.80338e-05
-2.99418e-06
7.78694e-05
-3.21847e-06
7.76922e-05
-3.41067e-06
7.75041e-05
-3.56833e-06
7.7307e-05
-3.68934e-06
7.71027e-05
-3.76634e-06
7.02321e-05
-3.80738e-06
6.29767e-05
-3.82105e-06
5.64834e-05
-3.81435e-06
5.06705e-05
-3.79291e-06
4.5465e-05
-3.76118e-06
4.0802e-05
-3.72262e-06
3.66234e-05
-3.67989e-06
3.28779e-05
-3.635e-06
2.95195e-05
-3.58945e-06
2.65075e-05
-3.54434e-06
2.38054e-05
-3.50045e-06
2.13808e-05
-3.45832e-06
1.92049e-05
1.72517e-05
-3.4183e-06
-5.75271e-08
8.82401e-06
-1.14943e-07
1.2397e-05
-1.62748e-07
1.58843e-05
-2.10009e-07
1.96142e-05
-2.91405e-07
2.34555e-05
-4.14682e-07
2.73904e-05
-5.72787e-07
3.16463e-05
-7.62502e-07
3.64161e-05
-9.83915e-07
4.18341e-05
-1.23842e-06
4.80178e-05
-1.5277e-06
5.50871e-05
-1.85306e-06
6.31722e-05
-2.21462e-06
7.2416e-05
-2.61008e-06
8.29756e-05
-2.96183e-06
7.85358e-05
-3.28714e-06
7.83591e-05
-3.58242e-06
7.81646e-05
-3.84419e-06
7.7954e-05
-4.06921e-06
7.77292e-05
-4.25455e-06
7.74923e-05
-4.39757e-06
7.72457e-05
-4.48932e-06
7.03238e-05
-4.53897e-06
6.30263e-05
-4.55644e-06
5.65009e-05
-4.54987e-06
5.06639e-05
-4.52581e-06
4.5441e-05
-4.48946e-06
4.07656e-05
-4.44489e-06
3.65788e-05
-4.39525e-06
3.28282e-05
-4.34292e-06
2.94672e-05
-4.28969e-06
2.64542e-05
-4.23685e-06
2.37526e-05
-4.18537e-06
2.13293e-05
-4.13587e-06
1.91554e-05
1.72047e-05
-4.08882e-06
-7.48996e-08
8.89891e-06
-1.56336e-07
1.24784e-05
-2.33675e-07
1.59617e-05
-3.11349e-07
1.96919e-05
-4.1881e-07
2.3563e-05
-5.66802e-07
2.75384e-05
-7.51069e-07
3.18305e-05
-9.6967e-07
3.66347e-05
-1.22349e-06
4.20879e-05
-1.51461e-06
4.83089e-05
-1.8453e-06
5.54178e-05
-2.21736e-06
6.35442e-05
-2.63126e-06
7.28299e-05
-3.08469e-06
8.3429e-05
-3.48882e-06
7.89399e-05
-3.86356e-06
7.87338e-05
-4.20476e-06
7.85058e-05
-4.50838e-06
7.82576e-05
-4.7706e-06
7.79914e-05
-4.98787e-06
7.77096e-05
-5.15701e-06
7.74149e-05
-5.26701e-06
7.04338e-05
-5.32816e-06
6.30875e-05
-5.35176e-06
5.65245e-05
-5.34713e-06
5.06593e-05
-5.32184e-06
4.54157e-05
-5.28191e-06
4.07257e-05
-5.23208e-06
3.6529e-05
-5.17602e-06
3.27722e-05
-5.11655e-06
2.94077e-05
-5.05577e-06
2.63935e-05
-4.99525e-06
2.3692e-05
-4.93611e-06
2.12702e-05
-4.87914e-06
1.90984e-05
1.71504e-05
-4.82488e-06
-9.19311e-08
8.99084e-06
-1.96367e-07
1.25828e-05
-3.02061e-07
1.60674e-05
-4.10042e-07
1.97999e-05
-5.44597e-07
2.36975e-05
-7.18383e-07
2.77122e-05
-9.29883e-07
3.2042e-05
-1.17853e-06
3.68833e-05
-1.46608e-06
4.23755e-05
-1.79535e-06
4.86382e-05
-2.16929e-06
5.57917e-05
-2.59029e-06
6.39653e-05
-3.05924e-06
7.32989e-05
-3.57403e-06
8.39438e-05
-4.03411e-06
7.94e-05
-4.4621e-06
7.91618e-05
-4.85331e-06
7.8897e-05
-5.2031e-06
7.86074e-05
-5.507e-06
7.82953e-05
-5.76078e-06
7.79634e-05
-5.96056e-06
7.76146e-05
-6.09284e-06
7.05661e-05
-6.16892e-06
6.31636e-05
-6.20152e-06
5.65571e-05
-6.2012e-06
5.0659e-05
-6.17659e-06
4.53911e-05
-6.13459e-06
4.06837e-05
-6.08067e-06
3.64751e-05
-6.01909e-06
3.27106e-05
-5.95314e-06
2.93418e-05
-5.88529e-06
2.63256e-05
-5.8174e-06
2.36241e-05
-5.7508e-06
2.12036e-05
-5.68645e-06
1.90341e-05
1.7089e-05
-5.62501e-06
-1.08373e-07
9.09921e-06
-2.34791e-07
1.27093e-05
-3.67503e-07
1.62001e-05
-5.05039e-07
1.99374e-05
-6.67028e-07
2.38595e-05
-8.67154e-07
2.79123e-05
-1.10641e-06
3.22813e-05
-1.38569e-06
3.71626e-05
-1.70768e-06
4.26975e-05
-2.07598e-06
4.90065e-05
-2.49427e-06
5.621e-05
-2.9656e-06
6.44366e-05
-3.4915e-06
7.38248e-05
-4.07029e-06
8.45226e-05
-4.58928e-06
7.9919e-05
-5.07389e-06
7.96464e-05
-5.51888e-06
7.9342e-05
-5.91896e-06
7.90075e-05
-6.26898e-06
7.86453e-05
-6.56398e-06
7.82584e-05
-6.79929e-06
7.785e-05
-6.95834e-06
7.07252e-05
-7.05334e-06
6.32586e-05
-7.0984e-06
5.66021e-05
-7.10535e-06
5.06659e-05
-7.0839e-06
4.53696e-05
-7.04189e-06
4.06417e-05
-6.98555e-06
3.64188e-05
-6.91981e-06
3.26449e-05
-6.84846e-06
2.92704e-05
-6.77439e-06
2.62515e-05
-6.69978e-06
2.35495e-05
-6.62623e-06
2.11301e-05
-6.55488e-06
1.89627e-05
1.70206e-05
-6.48655e-06
-1.24041e-07
9.22326e-06
-2.71251e-07
1.28565e-05
-4.29486e-07
1.63583e-05
-5.95298e-07
2.01032e-05
-7.84333e-07
2.40486e-05
-1.01073e-06
2.81387e-05
-1.27771e-06
3.25483e-05
-1.58762e-06
3.74725e-05
-1.9441e-06
4.3054e-05
-2.35154e-06
4.94139e-05
-2.81445e-06
5.66729e-05
-3.3367e-06
6.49588e-05
-3.92061e-06
7.44087e-05
-4.56513e-06
8.51671e-05
-5.14517e-06
8.0499e-05
-5.6891e-06
8.01904e-05
-6.19112e-06
7.9844e-05
-6.64531e-06
7.94617e-05
-7.04579e-06
7.90458e-05
-7.3868e-06
7.85994e-05
-7.66279e-06
7.8126e-05
-7.85354e-06
7.09159e-05
-7.97197e-06
6.3377e-05
-8.03354e-06
5.66637e-05
-8.05131e-06
5.06837e-05
-8.03609e-06
4.53544e-05
-7.99669e-06
4.06023e-05
-7.94017e-06
3.63622e-05
-7.87212e-06
3.25768e-05
-7.79691e-06
2.91952e-05
-7.7179e-06
2.61725e-05
-7.63762e-06
2.34693e-05
-7.55797e-06
2.10504e-05
-7.48032e-06
1.88851e-05
1.6946e-05
-7.40566e-06
-1.38654e-07
9.36191e-06
-3.05342e-07
1.30232e-05
-4.87214e-07
1.65402e-05
-6.79623e-07
2.02957e-05
-8.94819e-07
2.42638e-05
-1.14685e-06
2.83908e-05
-1.44094e-06
3.28424e-05
-1.78081e-06
3.78124e-05
-2.17109e-06
4.34442e-05
-2.61705e-06
4.98599e-05
-3.12408e-06
5.718e-05
-3.69698e-06
6.55317e-05
-4.33896e-06
7.50507e-05
-5.04981e-06
8.5878e-05
-5.69214e-06
8.11413e-05
-6.29734e-06
8.07956e-05
-6.85905e-06
8.04058e-05
-7.37074e-06
7.99734e-05
-7.82577e-06
7.95008e-05
-8.21754e-06
7.89912e-05
-8.53955e-06
7.8448e-05
-8.76729e-06
7.11437e-05
-8.91414e-06
6.35238e-05
-8.99681e-06
5.67464e-05
-9.02954e-06
5.07164e-05
-9.02424e-06
4.53491e-05
-8.99067e-06
4.05687e-05
-8.93675e-06
3.63083e-05
-8.86881e-06
3.25089e-05
-8.7918e-06
2.91182e-05
-8.70958e-06
2.60903e-05
-8.62512e-06
2.33848e-05
-8.54062e-06
2.09659e-05
-8.45772e-06
1.88022e-05
1.68658e-05
-8.37761e-06
-1.51973e-07
9.51389e-06
-3.36483e-07
1.32077e-05
-5.39983e-07
1.67437e-05
-7.56958e-07
2.05126e-05
-9.96856e-07
2.45037e-05
-1.27331e-06
2.86672e-05
-1.5933e-06
3.31624e-05
-1.9619e-06
3.8181e-05
-2.3847e-06
4.3867e-05
-2.86786e-06
5.0343e-05
-3.41767e-06
5.77298e-05
-4.03995e-06
6.6154e-05
-4.73896e-06
7.57497e-05
-5.51566e-06
8.66547e-05
-6.22058e-06
8.18462e-05
-6.88812e-06
8.14631e-05
-7.51146e-06
8.10291e-05
-8.08345e-06
8.05454e-05
-8.59674e-06
8.00141e-05
-9.04384e-06
7.94383e-05
-9.41726e-06
7.88214e-05
-9.68753e-06
7.14139e-05
-9.86819e-06
6.37045e-05
-9.97704e-06
5.68552e-05
-1.00294e-05
5.07688e-05
-1.00383e-05
4.53579e-05
-1.00144e-05
4.05448e-05
-9.96644e-06
3.62604e-05
-9.90155e-06
3.2444e-05
-9.82533e-06
2.90419e-05
-9.74216e-06
2.60071e-05
-9.65544e-06
2.32981e-05
-9.56777e-06
2.08782e-05
-9.48106e-06
1.87155e-05
1.67815e-05
-9.39674e-06
-1.63843e-07
9.67773e-06
-3.64284e-07
1.34081e-05
-5.87296e-07
1.69667e-05
-8.26424e-07
2.07518e-05
-1.08902e-06
2.47663e-05
-1.38823e-06
2.89664e-05
-1.73244e-06
3.35066e-05
-2.12797e-06
3.85765e-05
-2.58136e-06
4.43204e-05
-3.09966e-06
5.08613e-05
-3.69009e-06
5.83202e-05
-4.35954e-06
6.68235e-05
-5.11355e-06
7.65037e-05
-5.95446e-06
8.74956e-05
-6.72122e-06
8.2613e-05
-7.45126e-06
8.21932e-05
-8.13733e-06
8.17152e-05
-8.77173e-06
8.11798e-05
-9.34643e-06
8.05888e-05
-9.8531e-06
7.99449e-05
-1.02832e-05
7.92515e-05
-1.06016e-05
7.17323e-05
-1.08217e-05
6.39246e-05
-1.09622e-05
5.69957e-05
-1.10394e-05
5.0846e-05
-1.10672e-05
4.53858e-05
-1.10573e-05
4.05349e-05
-1.10193e-05
3.62224e-05
-1.0961e-05
3.23857e-05
-1.08886e-05
2.89696e-05
-1.08072e-05
2.59258e-05
-1.07207e-05
2.32115e-05
-1.06319e-05
2.07895e-05
-1.05433e-05
1.86268e-05
1.66946e-05
-1.04564e-05
-1.74113e-07
9.85185e-06
-3.8847e-07
1.36225e-05
-6.2862e-07
1.72069e-05
-8.87315e-07
2.10105e-05
-1.17024e-06
2.50492e-05
-1.49008e-06
2.92863e-05
-1.85637e-06
3.38729e-05
-2.27653e-06
3.89966e-05
-2.75801e-06
4.48019e-05
-3.3087e-06
5.1412e-05
-3.93682e-06
5.89483e-05
-4.6504e-06
6.75371e-05
-5.45638e-06
7.73097e-05
-6.35875e-06
8.8398e-05
-7.18559e-06
8.34398e-05
-7.97726e-06
8.29848e-05
-8.7262e-06
8.24641e-05
-9.42432e-06
8.18779e-05
-1.00629e-05
8.12274e-05
-1.06329e-05
8.05149e-05
-1.11245e-05
7.97431e-05
-1.14966e-05
7.21044e-05
-1.17619e-05
6.41899e-05
-1.19398e-05
5.71736e-05
-1.20474e-05
5.09536e-05
-1.20993e-05
4.54377e-05
-1.21083e-05
4.05438e-05
-1.20846e-05
3.61987e-05
-1.20368e-05
3.23379e-05
-1.1972e-05
2.89048e-05
-1.18956e-05
2.58494e-05
-1.18121e-05
2.3128e-05
-1.17248e-05
2.07022e-05
-1.16364e-05
1.85384e-05
1.66071e-05
-1.15489e-05
-1.82695e-07
1.00345e-05
-4.08842e-07
1.38486e-05
-6.63568e-07
1.74616e-05
-9.39093e-07
2.1286e-05
-1.23974e-06
2.53498e-05
-1.57775e-06
2.96243e-05
-1.96357e-06
3.42587e-05
-2.40563e-06
3.94387e-05
-2.91218e-06
4.53085e-05
-3.49197e-06
5.19918e-05
-4.15419e-06
5.96105e-05
-4.90808e-06
6.8291e-05
-5.76207e-06
7.81636e-05
-6.72209e-06
8.9358e-05
-7.6062e-06
8.43239e-05
-8.45761e-06
8.38362e-05
-9.26864e-06
8.32751e-05
-1.00309e-05
8.26401e-05
-1.07351e-05
8.19316e-05
-1.13713e-05
8.11511e-05
-1.1929e-05
8.03008e-05
-1.236e-05
7.25354e-05
-1.26761e-05
6.45061e-05
-1.28972e-05
5.73947e-05
-1.30408e-05
5.10972e-05
-1.31225e-05
4.55194e-05
-1.31554e-05
4.05767e-05
-1.31509e-05
3.61941e-05
-1.31181e-05
3.23052e-05
-1.30649e-05
2.88515e-05
-1.29972e-05
2.57817e-05
-1.292e-05
2.30508e-05
-1.28372e-05
2.06194e-05
-1.27518e-05
1.8453e-05
1.65213e-05
-1.2666e-05
-1.89525e-07
1.02241e-05
-4.25255e-07
1.40844e-05
-6.9195e-07
1.77283e-05
-9.81474e-07
2.15755e-05
-1.29705e-06
2.56654e-05
-1.6505e-06
2.99777e-05
-2.05304e-06
3.46612e-05
-2.51391e-06
3.98996e-05
-3.04214e-06
4.58367e-05
-3.64727e-06
5.25969e-05
-4.33945e-06
6.03027e-05
-5.12916e-06
6.90807e-05
-6.02642e-06
7.90609e-05
-7.03928e-06
9.03708e-05
-7.97686e-06
8.52615e-05
-8.88513e-06
8.47445e-05
-9.75647e-06
8.41465e-05
-1.05822e-05
8.34659e-05
-1.13528e-05
8.27022e-05
-1.20575e-05
8.18559e-05
-1.26849e-05
8.09282e-05
-1.31797e-05
7.30302e-05
-1.35521e-05
6.48785e-05
-1.38221e-05
5.76647e-05
-1.40076e-05
5.12827e-05
-1.41246e-05
4.56364e-05
-1.4187e-05
4.06392e-05
-1.42068e-05
3.62139e-05
-1.41939e-05
3.22923e-05
-1.41566e-05
2.88142e-05
-1.41016e-05
2.57268e-05
-1.40345e-05
2.29837e-05
-1.39595e-05
2.05444e-05
-1.388e-05
1.83736e-05
1.644e-05
-1.37988e-05
-1.94605e-07
1.04187e-05
-4.37706e-07
1.43275e-05
-7.13772e-07
1.80043e-05
-1.01441e-06
2.18761e-05
-1.34203e-06
2.5993e-05
-1.70804e-06
3.03437e-05
-2.12426e-06
3.50775e-05
-2.60064e-06
4.0376e-05
-3.14686e-06
4.63829e-05
-3.77322e-06
5.32233e-05
-4.4908e-06
6.10203e-05
-5.3113e-06
6.99012e-05
-6.24644e-06
7.99961e-05
-7.30646e-06
9.14309e-05
-8.29282e-06
8.62479e-05
-9.25418e-06
8.57059e-05
-1.0183e-05
8.50753e-05
-1.10707e-05
8.43535e-05
-1.19074e-05
8.35388e-05
-1.2682e-05
8.26304e-05
-1.33821e-05
8.16282e-05
-1.39447e-05
7.35928e-05
-1.43784e-05
6.53122e-05
-1.47028e-05
5.7989e-05
-1.49358e-05
5.15157e-05
-1.50938e-05
4.57945e-05
-1.51913e-05
4.07367e-05
-1.52408e-05
3.62633e-05
-1.52527e-05
3.23042e-05
-1.52361e-05
2.87976e-05
-1.51983e-05
2.56889e-05
-1.51452e-05
2.29306e-05
-1.50817e-05
2.04809e-05
-1.50116e-05
1.83035e-05
1.63663e-05
-1.49379e-05
-1.97934e-07
1.06166e-05
-4.46222e-07
1.45757e-05
-7.29113e-07
1.82872e-05
-1.03804e-06
2.21851e-05
-1.37478e-06
2.63298e-05
-1.75043e-06
3.07194e-05
-2.17722e-06
3.55043e-05
-2.66568e-06
4.08644e-05
-3.22605e-06
4.69433e-05
-3.86931e-06
5.38666e-05
-4.60742e-06
6.17584e-05
-5.45332e-06
7.07471e-05
-6.42039e-06
8.09631e-05
-7.52117e-06
9.25317e-05
-8.55087e-06
8.72776e-05
-9.56068e-06
8.67157e-05
-1.05434e-05
8.6058e-05
-1.14904e-05
8.53006e-05
-1.2392e-05
8.44404e-05
-1.32366e-05
8.34751e-05
-1.40113e-05
8.2403e-05
-1.46453e-05
7.42268e-05
-1.51447e-05
6.58117e-05
-1.55286e-05
5.83728e-05
-1.58148e-05
5.18019e-05
-1.60196e-05
4.59993e-05
-1.61579e-05
4.0875e-05
-1.62426e-05
3.6348e-05
-1.62848e-05
3.23464e-05
-1.6294e-05
2.88068e-05
-1.62781e-05
2.5673e-05
-1.62435e-05
2.28961e-05
-1.61957e-05
2.04331e-05
-1.61388e-05
1.82466e-05
1.63036e-05
-1.60761e-05
-1.99677e-07
1.08163e-05
-4.51062e-07
1.48271e-05
-7.38313e-07
1.85745e-05
-1.05277e-06
2.24995e-05
-1.39579e-06
2.66728e-05
-1.77815e-06
3.11017e-05
-2.21237e-06
3.59385e-05
-2.70942e-06
4.13615e-05
-3.28001e-06
4.75139e-05
-3.93574e-06
5.45223e-05
-4.68939e-06
6.25121e-05
-5.55505e-06
7.16127e-05
-6.54774e-06
8.19558e-05
-7.68236e-06
9.36663e-05
-8.74943e-06
8.83447e-05
-9.80232e-06
8.77686e-05
-1.08343e-05
8.709e-05
-1.18371e-05
8.63035e-05
-1.28013e-05
8.54046e-05
-1.37153e-05
8.43891e-05
-1.45658e-05
8.32535e-05
-1.52739e-05
7.49348e-05
-1.58432e-05
6.6381e-05
-1.62915e-05
5.88212e-05
-1.66361e-05
5.21466e-05
-1.68935e-05
4.62566e-05
-1.70784e-05
4.10599e-05
-1.72043e-05
3.64739e-05
-1.72827e-05
3.24249e-05
-1.73236e-05
2.88477e-05
-1.73354e-05
2.56848e-05
-1.7325e-05
2.28856e-05
-1.7298e-05
2.04061e-05
-1.72593e-05
1.82078e-05
1.62566e-05
-1.72122e-05
-1.99605e-07
1.10159e-05
-4.52076e-07
1.50796e-05
-7.41438e-07
1.88639e-05
-1.05892e-06
2.2817e-05
-1.40556e-06
2.70194e-05
-1.79183e-06
3.1488e-05
-2.23044e-06
3.63771e-05
-2.73267e-06
4.18637e-05
-3.30963e-06
4.80908e-05
-3.97342e-06
5.51861e-05
-4.73758e-06
6.32762e-05
-5.61727e-06
7.24924e-05
-6.62901e-06
8.29676e-05
-7.79019e-06
9.48274e-05
-8.88817e-06
8.94426e-05
-9.9781e-06
8.88585e-05
-1.1054e-05
8.81658e-05
-1.21083e-05
8.73578e-05
-1.31319e-05
8.64282e-05
-1.41137e-05
8.53708e-05
-1.50401e-05
8.41798e-05
-1.58241e-05
7.57189e-05
-1.64664e-05
6.70233e-05
-1.69837e-05
5.93384e-05
-1.73927e-05
5.25556e-05
-1.77097e-05
4.65736e-05
-1.79493e-05
4.12996e-05
-1.8125e-05
3.66495e-05
-1.82484e-05
3.25482e-05
-1.83293e-05
2.89287e-05
-1.83765e-05
2.5732e-05
-1.83971e-05
2.29063e-05
-1.83972e-05
2.04062e-05
-1.83818e-05
1.81924e-05
-1.83547e-05
1.62295e-05
3.98778e-08
2.78135e-05
3.70787e-08
2.85527e-05
3.43768e-08
2.93115e-05
3.17729e-08
3.00906e-05
2.92666e-08
3.08903e-05
2.68581e-08
3.17113e-05
2.45463e-08
3.25542e-05
2.23301e-08
3.34194e-05
2.02076e-08
3.43077e-05
1.8177e-08
3.52196e-05
1.62351e-08
3.61557e-05
1.44034e-08
3.65907e-05
1.27385e-08
3.55529e-05
1.12196e-08
3.45446e-05
9.82865e-09
3.35649e-05
8.55052e-09
3.2613e-05
7.37149e-09
3.16881e-05
6.28033e-09
3.07894e-05
5.26649e-09
2.99162e-05
4.32149e-09
2.90678e-05
3.43703e-09
2.82435e-05
2.74425e-05
2.60721e-09
9.88962e-08
2.782e-05
9.25091e-08
2.85591e-05
8.62931e-08
2.93178e-05
8.02526e-08
3.00966e-05
7.43907e-08
3.08962e-05
6.87101e-08
3.1717e-05
6.32119e-08
3.25597e-05
5.78966e-08
3.34248e-05
5.27627e-08
3.43128e-05
4.78082e-08
3.52245e-05
4.30292e-08
3.61605e-05
3.84876e-08
3.65953e-05
3.4341e-08
3.55571e-05
3.05426e-08
3.45484e-05
2.705e-08
3.35684e-05
2.38266e-08
3.26162e-05
2.08397e-08
3.16911e-05
1.80616e-08
3.07922e-05
1.54672e-08
2.99188e-05
1.30354e-08
2.90702e-05
1.07467e-08
2.82457e-05
2.74447e-05
8.58227e-09
1.08172e-07
2.78273e-05
1.0106e-07
2.85662e-05
9.41687e-08
2.93246e-05
8.75053e-08
3.01033e-05
8.10739e-08
3.09026e-05
7.48781e-08
3.17232e-05
6.89196e-08
3.25656e-05
6.31986e-08
3.34305e-05
5.77131e-08
3.43183e-05
5.24595e-08
3.52298e-05
4.74313e-08
3.61655e-05
4.26841e-08
3.66e-05
3.83655e-08
3.55614e-05
3.44188e-08
3.45524e-05
3.07949e-08
3.3572e-05
2.74511e-08
3.26196e-05
2.43498e-08
3.16942e-05
2.14584e-08
3.07951e-05
1.87485e-08
2.99215e-05
1.61958e-08
2.90728e-05
1.37787e-08
2.82482e-05
2.74469e-05
1.148e-08
7.21508e-08
2.7833e-05
6.67623e-08
2.85716e-05
6.16351e-08
2.93298e-05
5.67744e-08
3.01081e-05
5.21836e-08
3.09072e-05
4.7864e-08
3.17275e-05
4.38149e-08
3.25697e-05
4.00331e-08
3.34343e-05
3.65129e-08
3.43218e-05
3.32457e-08
3.5233e-05
3.02198e-08
3.61685e-05
2.74588e-08
3.66028e-05
2.50312e-08
3.55638e-05
2.28809e-08
3.45545e-05
2.0959e-08
3.35739e-05
1.92239e-08
3.26213e-05
1.76394e-08
3.16957e-05
1.61752e-08
3.07965e-05
1.48052e-08
2.99229e-05
1.35077e-08
2.90741e-05
1.22644e-08
2.82494e-05
2.74482e-05
1.10598e-08
-3.91153e-09
2.78351e-05
-5.72012e-09
2.85734e-05
-7.18859e-09
2.93312e-05
-8.31583e-09
3.01093e-05
-9.10351e-09
3.0908e-05
-9.55581e-09
3.1728e-05
-9.67995e-09
3.25698e-05
-9.48642e-09
3.34341e-05
-8.98935e-09
3.43213e-05
-8.20666e-09
3.52323e-05
-7.16029e-09
3.61675e-05
-5.89606e-09
3.66015e-05
-4.51269e-09
3.55624e-05
-3.06056e-09
3.45531e-05
-1.58185e-09
3.35725e-05
-1.11432e-10
3.26198e-05
1.32215e-09
3.16943e-05
2.69595e-09
3.07952e-05
3.99178e-09
2.99216e-05
5.19558e-09
2.90729e-05
6.29713e-09
2.82483e-05
2.74472e-05
7.29034e-09
-1.1862e-07
2.7832e-05
-1.1507e-07
2.85698e-05
-1.11064e-07
2.93272e-05
-1.06608e-07
3.01048e-05
-1.01712e-07
3.09031e-05
-9.63884e-08
3.17227e-05
-9.0656e-08
3.25641e-05
-8.45366e-08
3.34279e-05
-7.80571e-08
3.43149e-05
-7.12501e-08
3.52255e-05
-6.41529e-08
3.61604e-05
-5.69132e-08
3.65943e-05
-4.98758e-08
3.55554e-05
-4.30815e-08
3.45463e-05
-3.65615e-08
3.35659e-05
-3.03397e-08
3.26136e-05
-2.44325e-08
3.16884e-05
-1.88509e-08
3.07896e-05
-1.36009e-08
2.99163e-05
-8.68456e-09
2.9068e-05
-4.0994e-09
2.82437e-05
2.74429e-05
1.62702e-10
-2.72103e-07
2.78219e-05
-2.61404e-07
2.85591e-05
-2.50093e-07
2.93159e-05
-2.38185e-07
3.00929e-05
-2.25704e-07
3.08906e-05
-2.12675e-07
3.17096e-05
-1.99132e-07
3.25505e-05
-1.85114e-07
3.34139e-05
-1.70665e-07
3.43004e-05
-1.55838e-07
3.52106e-05
-1.40693e-07
3.61452e-05
-1.25512e-07
3.65791e-05
-1.10967e-07
3.55409e-05
-9.70861e-08
3.45324e-05
-8.38849e-08
3.35527e-05