/*--------------------------------*- C++ -*----------------------------------*\
  =========                 |
  \\      /  F ield         | OpenFOAM: The Open Source CFD Toolbox
   \\    /   O peration     | Website:  https://openfoam.org
    \\  /    A nd           | Version:  8
     \\/     M anipulation  |
\*---------------------------------------------------------------------------*/
FoamFile
{
    version     2.0;
    format      ascii;
    class       volScalarField;
    location    "1000";
    object      epsilon;
}
// * * * * * * * * * * * * * * * * * * * * * * * * * * * * * * * * * * * * * //

dimensions      [0 2 -3 0 0 0 0];

internalField   nonuniform List<scalar> 
15677
(
1182.95
450.74
1558.79
85.8083
451.645
1455.67
19.8101
116.596
388.105
1275.62
7.2126
35.9264
104.771
360.502
1158.67
3.82901
14.3044
37.2927
92.6151
360.991
1085.64
2.64035
7.18075
17.1135
35.2353
94.1169
365.847
1041.78
2.1617
4.33782
9.17348
17.2858
33.6963
99.4617
372.53
1011.07
1.97289
3.0344
5.58348
9.921
17.0561
33.9532
109.112
372.959
991.258
1.90448
2.3828
3.79248
6.2745
10.1567
16.6779
35.4116
119.12
372.09
975.243
1.87844
2.06059
2.83782
4.30794
6.63526
10.1322
16.7243
38.3597
129.205
368.211
964.3
1.86721
1.92147
2.31396
3.19102
4.63765
6.78534
10.0793
17.0219
42.2909
137.093
363.506
957.826
1.86735
1.86801
2.02991
2.53928
3.44679
4.83101
6.83237
10.0837
17.7003
46.4468
143.41
358.916
955.635
1.86899
1.84318
1.89333
2.15981
2.71931
3.62216
4.93476
6.84627
10.1408
18.7146
50.7216
147.996
354.961
956.644
1.86962
1.83738
1.83764
1.94879
2.27422
2.85587
3.73592
4.98883
6.85111
10.2837
19.9454
54.5746
151.459
351.81
960.247
1.86973
1.83717
1.81463
1.84527
2.00979
2.36878
2.95478
3.80783
5.01434
6.86438
10.5468
21.1966
58.1788
153.548
349.451
967.701
1.8697
1.83753
1.8089
1.80067
1.86356
2.06598
2.44306
3.0246
3.85116
5.02502
6.89865
10.8372
22.5393
61.1171
154.933
347.783
979.15
1.86967
1.83769
1.80791
1.78609
1.79397
1.88812
2.11366
2.49973
3.07227
3.87543
5.03135
6.95121
11.1814
23.7634
63.6403
155.437
346.783
994.117
1.86966
1.83771
1.80789
1.782
1.76782
1.79444
1.9111
2.15258
2.54163
3.10358
3.88771
5.03658
7.02234
11.5146
24.9596
65.4554
155.439
346.381
1012.71
1.86965
1.8377
1.80793
1.78102
1.75908
1.75496
1.79654
1.93161
2.18321
2.57182
3.12272
3.89254
5.04444
7.09523
11.8633
25.9744
66.8191
155.17
346.499
1034.96
1.86965
1.83768
1.80793
1.78084
1.75639
1.74003
1.74514
1.80067
1.94887
2.20673
2.59248
3.13345
3.89211
5.05179
7.17521
12.1792
26.8509
67.623
154.582
346.986
1060.9
1.86965
1.83767
1.80791
1.7808
1.75564
1.73473
1.72375
1.73809
1.80497
1.96289
2.22404
2.60607
3.13756
3.88971
5.0604
7.24918
12.4695
27.5074
68.071
153.593
348.008
1090.48
1.86965
1.83766
1.80788
1.78077
1.75543
1.73301
1.71523
1.71031
1.73263
1.80888
1.97378
2.23645
2.61389
3.13699
3.88489
5.0669
7.31771
12.7038
27.9941
68.0196
152.479
349.505
1123.7
1.86965
1.83765
1.80787
1.78074
1.75534
1.73247
1.71207
1.69841
1.69872
1.72847
1.81208
1.98204
2.24478
2.61773
3.13447
3.8778
5.07234
7.37326
12.8942
28.2798
67.7874
151.297
351.449
1160.34
1.86965
1.83765
1.80785
1.78071
1.75528
1.73229
1.71096
1.69364
1.68324
1.6892
1.72497
1.81463
1.98811
2.25024
2.61817
3.12926
3.86995
5.07324
7.41553
13.0153
28.3833
67.2716
150.012
353.749
1200.42
1.86966
1.83764
1.80784
1.78068
1.75523
1.73219
1.71055
1.69183
1.67656
1.67046
1.68084
1.72223
1.81669
1.99263
2.25346
2.6175
3.12309
3.86039
5.07174
7.44261
13.0972
28.3362
66.5105
148.618
356.478
1243.61
1.86966
1.83763
1.80784
1.78066
1.7552
1.73211
1.71037
1.69112
1.67382
1.66197
1.65882
1.67418
1.72009
1.81852
1.99621
2.25563
2.61608
3.11599
3.85118
5.06752
7.45331
13.0967
28.1983
65.5978
147.228
359.516
1289.9
1.86966
1.83763
1.80784
1.78064
1.75517
1.73205
1.71026
1.69081
1.6727
1.65829
1.64835
1.64957
1.66859
1.71884
1.82073
1.9997
2.25784
2.61426
3.11046
3.84117
5.05995
7.44841
13.0738
27.9309
64.578
145.783
362.938
1338.84
1.86967
1.83762
1.80784
1.78062
1.75514
1.732
1.71018
1.69063
1.67221
1.6567
1.64359
1.6375
1.64123
1.66474
1.71918
1.82383
2.00382
2.26066
2.61464
3.10524
3.83371
5.04966
7.43519
13.018
27.5744
63.4562
144.387
366.616
1390.46
1.86967
1.83762
1.80784
1.78061
1.75513
1.73196
1.71011
1.69051
1.67196
1.65597
1.64148
1.63177
1.62733
1.63582
1.66279
1.72084
1.82839
2.00961
2.26559
2.61674
3.10496
3.82742
5.03906
7.4104
12.9182
27.1541
62.2955
142.97
370.617
1443.86
1.86967
1.83761
1.80784
1.78059
1.75512
1.73192
1.71006
1.69041
1.67179
1.65559
1.6405
1.62908
1.62058
1.62083
1.63141
1.66364
1.72464
1.83549
2.01805
2.27372
2.62203
3.10707
3.82529
5.02945
7.37856
12.7948
26.6945
61.0932
141.636
374.824
1505.36
1.86967
1.83761
1.80784
1.78058
1.75511
1.73189
1.71002
1.69033
1.67167
1.65535
1.64
1.62777
1.61738
1.61322
1.61478
1.63174
1.66669
1.73189
1.846
2.03036
2.28583
2.63244
3.11327
3.82717
5.0214
7.34231
12.6564
26.2068
59.9007
140.306
379.815
1575.67
1.86968
1.8376
1.80784
1.78057
1.7551
1.73186
1.70998
1.69026
1.67156
1.65517
1.63969
1.62708
1.6158
1.60941
1.60646
1.61449
1.6342
1.67318
1.7433
1.86113
2.04752
2.30354
2.64881
3.1259
3.83328
5.01696
7.30534
12.509
25.7097
58.7072
138.951
385.686
1647.33
1.86968
1.8376
1.80784
1.78056
1.7551
1.73183
1.70996
1.6902
1.67148
1.65503
1.63946
1.62666
1.61497
1.60745
1.60231
1.60532
1.61655
1.64017
1.68492
1.76008
1.88197
2.07109
2.32784
2.67232
3.14621
3.84597
5.01837
7.26989
12.359
25.2107
57.4284
137.495
391.787
1719.9
1.86968
1.83759
1.80785
1.78055
1.75509
1.73181
1.70994
1.69014
1.67141
1.65491
1.63927
1.62636
1.61445
1.6064
1.60016
1.60059
1.60723
1.62225
1.65177
1.70266
1.78334
1.91005
2.10204
2.36032
2.70386
3.17465
3.86743
5.02411
7.23717
12.2105
24.6707
56.0488
136.194
398.082
1792.72
1.83759
1.86972
1.80785
1.78054
1.75509
1.73179
1.70992
1.6901
1.67135
1.6548
1.63912
1.62612
1.61408
1.60576
1.59899
1.59811
1.60242
1.61285
1.63367
1.67018
1.72757
1.81467
1.94648
2.14212
2.4017
2.74484
3.21187
3.89762
5.03641
7.21058
12.0524
24.0945
54.7726
134.968
404.491
1865.23
1.80785
1.83769
1.86979
1.78053
1.75509
1.73177
1.70991
1.69005
1.67131
1.65471
1.63899
1.62593
1.61378
1.6053
1.59826
1.59676
1.59991
1.60804
1.62424
1.65264
1.69637
1.76131
1.8553
1.99303
2.19209
2.45364
2.79571
3.25914
3.93638
5.05817
7.18854
11.8882
23.5616
53.5723
133.896
410.977
1936.99
1.78053
1.80801
1.83788
1.86987
1.75509
1.73175
1.7099
1.69001
1.67127
1.65463
1.63889
1.62576
1.61354
1.60495
1.59774
1.59594
1.59856
1.60558
1.61953
1.64377
1.67992
1.73205
1.80522
1.90714
2.05074
2.2539
2.51656
2.85771
3.3164
3.98502
5.09181
7.17607
11.744
23.0695
52.4806
132.904
417.522
2007.51
1.75509
1.78073
1.80833
1.83808
1.86995
1.73174
1.70989
1.68998
1.67124
1.65455
1.6388
1.62562
1.61333
1.60467
1.59732
1.59537
1.59776
1.60432
1.61724
1.63962
1.67211
1.71752
1.77884
1.86118
1.97114
2.12151
2.3278
2.59199
2.93103
3.38461
4.04991
5.14149
7.17927
11.6181
22.626
51.4707
132.051
423.978
2076.46
1.73173
1.75535
1.78114
1.80866
1.83829
1.87002
1.70989
1.68995
1.67122
1.65449
1.63873
1.62549
1.61316
1.60443
1.59698
1.59493
1.59721
1.60361
1.61617
1.63794
1.66905
1.71155
1.7671
1.83906
1.93107
2.04971
2.20569
2.41561
2.67988
3.01635
3.47234
4.13627
5.20499
7.19108
11.5114
22.2259
50.5626
131.285
430.374
2143.47
1.70988
1.73201
1.75587
1.78157
1.809
1.8385
1.87011
1.68992
1.6712
1.65443
1.63868
1.62537
1.61301
1.60422
1.59669
1.59458
1.5968
1.60316
1.61569
1.63749
1.6684
1.71027
1.76399
1.83177
1.91496
2.01754
2.14422
2.3062
2.51671
2.78138
3.12504
3.58581
4.23704
5.28073
7.21544
11.4244
21.8713
49.7328
130.643
436.614
2208.34
1.6899
1.71021
1.7326
1.7564
1.78201
1.80935
1.83872
1.87019
1.67119
1.65437
1.63864
1.62527
1.6129
1.60405
1.59645
1.59429
1.59648
1.60284
1.61546
1.63753
1.66892
1.71131
1.76513
1.83207
1.91266
2.00912
2.12282
2.25811
2.42347
2.63439
2.90795
3.26205
3.71413
4.35026
5.36693
7.25372
11.3561
21.5566
48.9936
130.078
442.737
2270.86
1.67117
1.69023
1.71089
1.7332
1.75695
1.78246
1.8097
1.83895
1.87027
1.65432
1.6386
1.62517
1.61281
1.60389
1.59624
1.59406
1.59622
1.60261
1.61535
1.6378
1.6699
1.71356
1.76883
1.83719
1.91829
2.01356
2.12253
2.24844
2.392
2.56094
2.78338
3.07014
3.41639
3.85648
4.47408
5.46295
7.30214
11.3049
21.2809
48.3239
129.615
448.667
2330.9
1.65428
1.67156
1.69095
1.71158
1.73382
1.75751
1.78293
1.81007
1.83918
1.87036
1.63858
1.62508
1.61274
1.60375
1.59607
1.59386
1.59601
1.60243
1.61532
1.63815
1.67104
1.71617
1.77371
1.84502
1.92902
2.02684
2.1367
2.25988
2.3953
2.54727
2.73586
2.97649
3.25515
3.58831
4.01142
4.60782
5.56706
7.35963
11.269
21.0392
47.7301
129.217
454.444
2388.35
1.63855
1.65465
1.67235
1.69169
1.7123
1.73446
1.75809
1.7834
1.81045
1.83942
1.87045
1.625
1.61269
1.60362
1.59594
1.59371
1.59584
1.6023
1.61533
1.63853
1.67222
1.71882
1.7788
1.85407
1.94276
2.04568
2.16034
2.2871
2.42242
2.56847
2.74386
2.95849
3.19645
3.46309
3.77726
4.17865
4.74966
5.67804
7.42439
11.2467
20.8293
47.196
128.899
460.004
2443.18
1.62493
1.63896
1.65543
1.67316
1.69245
1.71303
1.73512
1.75868
1.7839
1.81083
1.83967
1.87054
1.61265
1.60349
1.59583
1.59358
1.59571
1.60221
1.61538
1.63893
1.67338
1.72139
1.7838
1.86317
1.95779
2.06815
2.19036
2.325
2.46661
2.61582
2.79051
2.99924
3.21167
3.43924
3.69147
3.98244
4.35641
4.89877
5.79417
7.49545
11.2359
20.6471
46.7253
128.635
465.39
2495.36
1.61262
1.62527
1.6398
1.65625
1.674
1.69323
1.71379
1.7358
1.75929
1.7844
1.81122
1.83992
1.87063
1.60337
1.59576
1.59346
1.59559
1.60214
1.61545
1.63932
1.6745
1.72382
1.78859
1.87196
1.97269
2.09232
2.22502
2.37079
2.52339
2.68265
2.86608
3.08213
3.29418
3.4966
3.70447
3.93511
4.20238
4.54439
5.05398
5.91475
7.57114
11.2376
20.4898
46.305
128.431
470.545
2544.89
1.60327
1.61299
1.62604
1.64067
1.65709
1.67486
1.69404
1.71456
1.7365
1.75992
1.78492
1.81163
1.84018
1.87073
1.5957
1.59336
1.5955
1.6021
1.61554
1.63972
1.67558
1.72611
1.79314
1.88031
1.98706
2.11629
2.26202
2.42309
2.5905
2.76531
2.96518
3.19928
3.42328
3.62988
3.81269
3.99243
4.19256
4.43133
4.74076
5.21399
6.03788
7.65064
11.2441
20.3532
45.9346
128.271
475.512
2591.82
1.59568
1.60349
1.61378
1.62683
1.64157
1.65796
1.67575
1.69487
1.71536
1.73722
1.76056
1.78546
1.81204
1.84044
1.87081
1.59324
1.59541
1.60206
1.61563
1.6401
1.67659
1.72826
1.79743
1.88817
2.00078
2.1395
2.29873
2.47922
2.66716
2.8624
3.0855
3.34742
3.59515
3.81728
4.00734
4.15935
4.30124
4.46327
4.66658
4.94229
5.3766
6.16302
7.73264
11.2576
20.2357
45.6063
128.157
480.245
2636.19
1.59314
1.59593
1.60404
1.6146
1.62766
1.6425
1.65886
1.67666
1.69574
1.71618
1.73797
1.76122
1.78601
1.81245
1.84069
1.8709
1.59531
1.60202
1.61572
1.64047
1.67755
1.73027
1.80143
1.89552
2.01382
2.16172
2.33447
2.5357
2.75008
2.97406
3.2272
3.52699
3.81023
4.0608
4.26789
4.42772
4.53568
4.62893
4.74542
4.90685
5.14817
5.54223
6.28923
7.81619
11.2781
20.1349
45.3161
128.077
484.786
2678.07
1.59525
1.59306
1.59645
1.60459
1.61545
1.62852
1.64346
1.6598
1.67759
1.69663
1.71702
1.73873
1.76189
1.78655
1.81285
1.84093
1.87098
1.60197
1.6158
1.64081
1.67843
1.73212
1.80516
1.90236
2.02611
2.1828
2.369
2.59147
2.83415
3.0965
3.39262
3.74185
4.07417
4.36765
4.60568
4.78028
4.89244
4.94065
4.97353
5.03679
5.15028
5.35311
5.70872
6.41549
7.90054
11.3032
20.0484
45.0588
128.027
489.095
2717.54
1.60198
1.59503
1.59289
1.59699
1.60519
1.61635
1.62943
1.64445
1.66078
1.67856
1.69755
1.71788
1.73951
1.76256
1.78708
1.81324
1.84117
1.87106
1.61586
1.64112
1.67925
1.73384
1.8086
1.90871
2.03765
2.20266
2.40216
2.6459
2.91762
3.22314
3.57838
3.99934
4.39837
4.75411
5.04088
5.24386
5.36149
5.40349
5.37338
5.33308
5.3352
5.39645
5.55642
5.87442
6.54083
7.98495
11.3319
19.9747
44.8318
128.007
493.214
2754.7
1.61599
1.60151
1.59452
1.59268
1.59759
1.60585
1.61727
1.63038
1.64546
1.66178
1.67955
1.69849
1.71876
1.74029
1.76321
1.78759
1.81361
1.8414
1.87114
1.64138
1.67998
1.73541
1.81177
1.91457
2.04839
2.22126
2.43385
2.69847
2.99981
3.35225
3.77532
4.29725
4.80148
5.24894
5.61162
5.86228
5.9944
6.02034
5.96336
5.83309
5.70574
5.63875
5.64355
5.75732
6.03812
6.66445
8.06876
11.3632
19.9117
44.6306
128.011
497.109
2789.62
1.64172
1.61511
1.60031
1.59394
1.59258
1.59824
1.60657
1.61821
1.63138
1.6465
1.66283
1.68056
1.69946
1.71963
1.74105
1.76384
1.78809
1.81398
1.84162
1.87122
1.6806
1.73683
1.81466
1.91997
2.05836
2.23862
2.46393
2.74876
3.08032
3.48289
3.97948
4.62242
5.29065
5.89893
6.38209
6.71211
6.8725
6.87865
6.76579
6.57421
6.31884
6.08967
5.94566
5.89001
5.955
6.19877
6.78556
8.15137
11.3965
19.8586
44.4529
128.025
500.82
2818.14
1.68131
1.64022
1.61274
1.599
1.59349
1.59257
1.59891
1.60737
1.61919
1.63243
1.64757
1.66391
1.6816
1.70043
1.72049
1.74178
1.76445
1.78858
1.81433
1.84184
1.87129
1.73806
1.81727
1.92493
2.06756
2.25477
2.49231
2.79654
3.15892
3.61362
4.18783
4.97171
5.85657
6.7374
7.44894
7.91158
8.12642
8.11001
7.91441
7.60413
7.23682
6.8292
6.48298
6.25426
6.1345
6.14875
6.35576
6.90381
8.23245
11.4312
19.8133
44.2955
128.056
503.858
2842.23
1.73938
1.67905
1.63605
1.61022
1.59787
1.59313
1.59268
1.59958
1.60824
1.62018
1.63353
1.64868
1.66502
1.68263
1.70137
1.72131
1.7425
1.76505
1.78905
1.81468
1.84205
1.87137
1.81959
1.92944
2.07603
2.26976
2.51897
2.84174
3.23529
3.74275
4.39829
5.34618
6.50267
7.75656
8.87656
9.61937
9.93898
9.90852
9.59939
9.11043
8.53669
7.94963
7.36193
6.88365
6.56299
6.37584
6.33786
6.50809
7.01924
8.31164
11.4667
19.7756
44.156
128.089
506.452
2868.43
1.82192
1.73613
1.67241
1.63161
1.608
1.59685
1.59283
1.59299
1.60025
1.6092
1.62121
1.63468
1.64981
1.66613
1.68364
1.70229
1.72212
1.7432
1.76563
1.78951
1.81501
1.84225
1.87144
1.9335
2.08377
2.28365
2.5439
2.88438
3.30912
3.86887
4.6103
5.74738
7.23085
8.95239
10.6353
11.9239
12.5374
12.5277
12.0832
11.3459
10.4641
9.55892
8.70847
7.91394
7.2895
6.87034
6.61301
6.52198
6.65452
7.13118
8.38867
11.5026
19.7435
44.0483
128.131
509.278
2896.95
1.93744
1.81744
1.72597
1.66545
1.62755
1.60593
1.59589
1.59248
1.59349
1.60092
1.61023
1.62227
1.63586
1.65094
1.66721
1.68463
1.70318
1.72291
1.74387
1.76619
1.78996
1.81534
1.84245
1.87147
2.09081
2.29645
2.56713
2.92453
3.38009
3.99105
4.82432
6.17532
8.03586
10.3115
12.6972
14.7553
16.0377
16.2795
15.7014
14.6475
13.337
11.9626
10.6609
9.50682
8.48128
7.69817
7.17489
6.84517
6.70088
6.79504
7.23925
8.46324
11.5384
19.7206
43.9607
128.177
512.395
2927.99
2.09741
1.9314
1.8023
1.71544
1.65904
1.62373
1.60399
1.59502
1.59212
1.59412
1.60163
1.61131
1.62338
1.63704
1.65204
1.66826
1.68559
1.70404
1.72367
1.74453
1.76674
1.79039
1.81565
1.84255
1.87147
2.30826
2.5887
2.96231
3.44795
4.10894
5.04119
6.62783
8.90705
11.8105
15.0266
18.0584
20.3257
21.3281
20.8814
19.4535
17.5777
15.5475
13.5858
11.8292
10.3364
9.05941
8.10723
7.4753
7.07156
6.87404
6.9297
7.3431
8.53517
11.5693
19.7024
43.8702
128.246
515.797
2961.82
2.31906
2.08951
1.90915
1.78679
1.70573
1.65295
1.6201
1.60219
1.59422
1.59182
1.59484
1.60239
1.61244
1.6245
1.6382
1.65313
1.66928
1.68652
1.70489
1.72442
1.74517
1.76728
1.79081
1.81581
1.84255
1.87147
2.60876
2.99776
3.51254
4.22263
5.2616
7.10093
9.83115
13.4222
17.5785
21.7725
25.3179
27.5148
27.8648
26.3458
23.7545
20.8367
17.9448
15.3097
13.0481
11.1881
9.64349
8.51425
7.7703
7.29155
7.04111
7.05845
7.44263
8.59523
11.5963
19.6852
43.7762
128.323
519.561
2998.67
2.62666
2.30875
2.05711
1.88665
1.77244
1.69644
1.64712
1.61667
1.60052
1.59351
1.59162
1.59563
1.60322
1.61357
1.62561
1.63932
1.6542
1.67028
1.68744
1.70571
1.72514
1.74579
1.7678
1.79102
1.81581
1.84255
1.87147
3.03111
3.5738
4.33252
5.48575
7.58943
10.7942
15.1191
20.3053
25.8241
30.9199
34.7207
36.4462
35.6763
32.6455
28.5573
24.3784
20.4926
17.1091
14.3016
12.0525
10.2287
8.91684
8.05872
7.50462
7.20178
7.18141
7.52521
8.64671
11.6268
19.6678
43.6806
128.433
523.676
3038.86
3.06046
2.61338
2.26165
2.02482
1.86582
1.75869
1.6875
1.64154
1.61345
1.59897
1.5929
1.59153
1.59646
1.60411
1.61467
1.62672
1.64041
1.65524
1.67125
1.68833
1.7065
1.72585
1.7464
1.76805
1.79102
1.81581
1.84255
1.87147
3.63205
4.43922
5.71322
8.08734
11.7823
16.8746
23.1598
30.1347
37.0138
42.8012
46.4591
47.1887
44.7467
39.7251
33.801
28.1522
23.1538
18.9591
15.5741
12.9208
10.8104
9.31273
8.33955
7.71031
7.35594
7.28316
7.59572
8.7037
11.6614
19.6531
43.582
128.556
528.247
3082.68
3.68284
3.04295
2.54479
2.21546
1.99489
1.84582
1.74541
1.6789
1.63621
1.61043
1.59756
1.59241
1.59158
1.59728
1.60505
1.61574
1.62782
1.64148
1.65626
1.67219
1.6892
1.70728
1.72653
1.7467
1.76805
1.79102
1.81581
1.84255
1.87147
4.54343
5.94156
8.58842
12.7824
18.6636
26.0969
34.6259
43.4718
51.57
57.6859
60.6549
59.7479
55.0147
47.5043
39.4148
32.1053
25.8926
20.8366
16.8516
13.7847
11.3843
9.69995
8.61189
7.90832
7.48401
7.36994
7.67345
8.76691
11.7007
19.6382
43.4843
128.724
533.253
3130.5
4.63538
3.66026
2.9415
2.47868
2.17263
1.96612
1.82647
1.73258
1.67064
1.63114
1.60761
1.59629
1.59205
1.59179
1.59805
1.60603
1.61678
1.6289
1.64251
1.65726
1.67311
1.69004
1.70803
1.72687
1.7467
1.76805
1.79102
1.81581
1.84255
1.87143
6.16826
9.08824
13.782
20.4623
29.0738
39.2228
50.1657
60.8217
69.8379
75.7558
77.346
74.0623
66.376
55.8828
45.3221
36.185
28.6751
22.7209
18.1216
14.637
11.9467
10.0767
8.87501
8.07331
7.5935
7.46549
7.75926
8.83712
11.7453
19.6285
43.3849
128.917
538.838
3182.64
4.60533
6.36906
3.50503
2.84607
2.41736
2.13146
1.93828
1.80776
1.72023
1.66272
1.62632
1.60504
1.59516
1.59178
1.59227
1.59879
1.60703
1.6178
1.62997
1.64353
1.65824
1.674
1.69086
1.7084
1.72688
1.74669
1.76805
1.79102
1.81581
1.84245
1.87136
9.58283
14.7708
22.2493
32.0511
43.8563
56.9757
70.3536
82.5959
92.0593
97.0899
96.4793
90.0036
78.6901
64.7464
51.4434
40.3413
31.4713
24.5939
19.3734
15.4717
12.4945
10.4415
9.09478
8.21463
7.71437
7.57086
7.8541
8.9152
11.7964
19.6186
43.2904
129.171
544.968
3239.58
4.35037
6.34072
10.0202
3.36412
2.75764
2.35843
2.09162
1.91133
1.78969
1.70834
1.65515
1.62174
1.60272
1.59419
1.59144
1.59288
1.59952
1.60804
1.6188
1.63102
1.64451
1.65919
1.67487
1.69127
1.7084
1.72688
1.74669
1.76805
1.79102
1.81565
1.84225
1.87129
15.7391
24.0063
34.994
48.4645
63.7951
79.9806
95.6483
109.085
118.356
121.654
117.909
107.385
91.7885
73.9725
57.7012
44.528
34.254
26.44
20.5982
16.2839
13.0249
10.7466
9.28337
8.37095
7.84801
7.68725
7.95908
9.00221
11.8545
19.6181
43.1963
129.466
551.842
3301.65
4.12692
5.89229
10.0118
16.5968
3.2348
2.67275
2.30149
2.05308
1.88531
1.7723
1.69696
1.64794
1.61745
1.60068
1.59337
1.59116
1.59358
1.60025
1.60905
1.61979
1.63204
1.64548
1.66012
1.6753
1.69127
1.7084
1.72688
1.7467
1.76805
1.79081
1.81533
1.84204
1.87122
25.7177
37.8744
52.9953
70.5327
89.5454
108.72
126.369
140.448
148.722
149.296
141.402
125.97
105.484
83.4381
64.0223
48.7032
37
28.2465
21.7889
17.0694
13.4682
11.0087
9.49238
8.54417
7.996
7.81601
8.07545
9.09931
11.9212
19.6209
43.1143
129.846
559.405
3369.39
3.92583
5.50133
9.19692
16.6539
27.2424
3.11135
2.59086
2.24647
2.01587
1.86025
1.7556
1.68608
1.64116
1.61361
1.59895
1.59269
1.591
1.5943
1.601
1.61004
1.62076
1.63305
1.64643
1.66058
1.67529
1.69127
1.7084
1.72687
1.7467
1.76779
1.79039
1.815
1.84183
1.87114
40.6682
57.4082
77.1156
98.921
121.586
143.513
162.693
176.705
183.015
179.753
166.652
145.488
119.584
93.0246
70.3395
52.8303
39.69
30.003
22.9396
17.7254
13.8491
11.2994
9.72442
8.73642
8.16015
7.95871
8.20467
9.20791
11.9978
19.6294
43.0342
130.293
567.934
3443.16
3.73738
5.15015
8.46969
15.2906
27.4655
43.1656
2.99279
2.5119
2.19344
1.98006
1.83619
1.73964
1.67583
1.635
1.61025
1.59746
1.59215
1.59095
1.59503
1.60177
1.61101
1.62172
1.63404
1.64689
1.66057
1.67529
1.69127
1.7084
1.72687
1.74639
1.76727
1.78995
1.81467
1.84161
1.87106
61.6704
83.4911
108.012
134.08
160.207
184.525
204.658
217.742
220.965
212.655
193.292
165.65
133.897
102.622
76.5931
56.8787
42.3083
31.7013
23.9002
18.2886
14.2717
11.6225
9.98242
8.95015
8.34252
8.11715
8.34834
9.32946
12.0857
19.6484
42.9792
130.867
577.349
3523.54
3.55941
4.82376
7.80835
14.0285
25.3785
43.698
65.4828
2.87891
2.43597
2.14247
1.9457
1.81318
1.72457
1.66645
1.62954
1.60733
1.59619
1.59175
1.59102
1.59576
1.60256
1.61197
1.62269
1.63452
1.64687
1.66058
1.67529
1.69127
1.7084
1.72653
1.74578
1.76673
1.7895
1.81432
1.84139
1.87098
89.6182
116.757
146.084
176.235
205.525
231.79
252.179
263.308
262.17
247.543
220.916
186.166
148.245
112.131
82.7331
60.8231
44.842
33.1196
24.7249
18.9132
14.7411
11.982
10.2697
9.18817
8.54551
8.29343
8.50858
9.46614
12.1871
19.6798
42.9276
131.536
588.028
3610.86
3.39119
4.51862
7.19043
12.8444
23.4121
40.711
66.5025
95.0879
2.76971
2.3632
2.09366
1.91288
1.79144
1.71075
1.65807
1.62468
1.60477
1.59511
1.59148
1.5912
1.59646
1.60338
1.61294
1.62315
1.63451
1.64687
1.66057
1.67529
1.69127
1.70803
1.72583
1.74515
1.76618
1.78904
1.81396
1.84116
1.8709
125.11
157.535
191.466
225.421
257.533
285.239
305.053
313.019
306.111
283.893
249.107
206.758
162.465
121.469
88.7179
64.6429
46.9599
34.3375
25.6392
19.6065
15.2631
12.3824
10.5901
9.45365
8.77185
8.48988
8.68703
9.62072
12.3045
19.7266
42.9206
132.405
599.864
3723.35
3.23233
4.23419
6.60997
11.7173
21.5295
37.8693
62.4491
96.7825
132.532
2.66528
2.29376
2.04711
1.8819
1.77151
1.69837
1.65058
1.62037
1.60255
1.59421
1.59129
1.59154
1.59715
1.60426
1.61339
1.62311
1.63451
1.64687
1.66057
1.6753
1.69086
1.70726
1.72512
1.74451
1.76561
1.78856
1.8136
1.84092
1.87081
168.394
205.85
244.077
281.549
316.149
344.723
362.966
366.358
352.17
321.145
277.455
227.17
176.421
130.566
94.5137
67.8376
48.7792
35.688
26.6538
20.3769
15.8442
12.8291
10.9479
9.75023
9.02465
8.7095
8.88528
9.79553
12.4409
19.7915
42.9358
133.42
615.892
3858.91
3.08245
3.97064
6.06733
10.6415
19.7011
35.111
58.5873
91.5051
135.064
177.964
2.56581
2.22779
2.00325
1.85353
1.75362
1.68726
1.64388
1.61653
1.60067
1.59346
1.59108
1.59202
1.5979
1.60467
1.61333
1.6231
1.63451
1.64687
1.66058
1.67486
1.69002
1.70648
1.72439
1.74385
1.76503
1.78808
1.81323
1.84068
1.87072
219.368
261.478
303.708
344.483
381.262
410.038
425.488
422.684
399.66
358.73
305.578
247.186
190
139.367
99.3594
70.5816
50.7965
37.1868
27.781
21.2338
16.4917
13.3277
11.348
10.082
9.3075
8.95578
9.10628
9.99344
12.5994
19.8819
42.9823
134.975
636.145
3997.56
2.9408
3.7286
5.56428
9.6208
17.9168
32.3946
54.8098
86.5108
128.397
181.422
231.131
2.47161
2.16584
1.96317
1.82809
1.73756
1.67729
1.63788
1.6131
1.59906
1.59283
1.59092
1.59267
1.5982
1.60459
1.61333
1.6231
1.6345
1.64689
1.66011
1.67398
1.68917
1.70568
1.72364
1.74317
1.76443
1.78758
1.81284
1.84043
1.87063
277.65
324.06
370.122
414.11
452.794
480.939
492.081
481.253
447.852
396.106
333.148
266.627
203.109
146.714
103.519
73.6233
53.0355
38.8519
29.0342
22.1875
17.2136
13.8848
11.7956
10.4537
9.62449
9.23228
9.35355
10.2177
12.7846
19.9995
43.1121
137.107
658.516
4138.01
2.80689
3.51046
5.10182
8.66458
16.1781
29.701
51.0578
81.6182
122.184
173.165
235.495
291.47
2.38355
2.10942
1.92728
1.80526
1.72315
1.66836
1.63253
1.61008
1.59768
1.59233
1.59102
1.59295
1.59804
1.6046
1.61333
1.6231
1.63452
1.64642
1.65917
1.67308
1.6883
1.70485
1.72288
1.74247
1.76382
1.78707
1.81245
1.84018
1.87054
342.713
393.229
443.186
490.511
530.797
557.162
562.092
541.227
496.02
432.795
359.894
285.352
214.027
153.011
108.124
76.9972
55.5224
40.703
30.4286
23.2498
18.019
14.5074
12.2969
10.8703
9.98017
9.54312
9.631
10.4722
13.0008
20.1862
43.3627
139.788
682.636
4279.47
2.68172
3.3118
4.67955
7.77574
14.4928
27.0277
47.2961
76.7451
116.129
165.65
225.369
296.568
358.249
2.3038
2.05907
1.89516
1.78479
1.71022
1.66036
1.62776
1.60743
1.59653
1.59218
1.59092
1.5928
1.59803
1.6046
1.61333
1.62314
1.63403
1.64546
1.65821
1.67215
1.6874
1.70401
1.72209
1.74176
1.76319
1.78654
1.81204
1.83992
1.87045
414.047
468.786
523.07
574.066
615.487
638.411
634.743
601.729
543.505
468.398
385.602
300.9
223.363
159.969
113.224
80.7415
58.2861
42.7622
31.9808
24.4334
18.9175
15.2036
12.8583
11.3377
10.3797
9.89281
9.94331
10.7618
13.3018
20.4667
43.7699
142.883
709.335
4420.31
2.56832
3.13097
4.29926
6.95598
12.8784
24.3836
43.5102
71.8308
110.121
158.418
216.439
284.167
363.735
430.765
2.23305
2.01411
1.86641
1.76643
1.69862
1.6532
1.6235
1.60515
1.5959
1.59191
1.59059
1.59284
1.59802
1.60458
1.61338
1.62267
1.63302
1.64448
1.65722
1.67121
1.68648
1.70314
1.72129
1.74103
1.76255
1.786
1.81163
1.83966
1.87036
491.335
550.889
610.351
665.465
707.18
724.267
709.139
661.917
589.744
502.604
406.894
314.162
233.651
167.657
118.875
84.8976
61.3585
45.0537
33.7094
25.7524
19.9202
15.9818
13.4869
11.8619
10.8284
10.2866
10.2956
11.1528
13.7068
20.8304
44.3058
146.691
738.158
4559.49
2.46783
2.96979
3.96255
6.21136
11.3535
21.7864
39.7011
66.8397
104.065
151.325
208.017
273.644
348.467
436.139
508.56
2.17026
1.97398
1.84068
1.74998
1.68824
1.64677
1.61976
1.60364
1.59533
1.59151
1.5906
1.59284
1.59803
1.60466
1.61292
1.62169
1.63201
1.64348
1.65622
1.67024
1.68555
1.70226
1.72046
1.74028
1.76189
1.78546
1.81122
1.83941
1.87027
574.707
640.293
706.255
765.853
806.185
814.135
784.352
721.053
634.298
530.906
425.016
328.733
244.98
176.147
125.132
89.5108
64.7746
47.6042
35.6346
27.2223
21.0384
16.851
14.1902
12.4493
11.3324
10.7297
10.7677
11.6602
14.1721
21.2774
45.0572
151.074
770.115
4695.01
2.37901
2.82722
3.67512
5.55081
9.93732
19.2598
35.8814
61.7534
97.8936
144.23
199.923
263.985
336.071
417.131
513.228
591.722
2.11449
1.93816
1.81766
1.73524
1.6789
1.64109
1.61708
1.60253
1.59479
1.59154
1.5906
1.59279
1.59818
1.60424
1.61194
1.62072
1.63097
1.64247
1.65519
1.66924
1.68459
1.70134
1.71962
1.73951
1.76122
1.78491
1.81082
1.83917
1.87019
665.076
738.739
812.993
876.844
912.843
907.328
859.588
778.553
671.257
554.974
444.875
344.721
257.442
185.515
132.057
94.6294
68.5719
50.4425
37.7781
28.8593
22.2846
17.8207
14.976
13.1069
11.8973
11.3208
11.3726
12.2192
14.701
21.8365
46.0039
156.397
804.697
4825.72
2.30066
2.70022
3.43856
4.98782
8.66106
16.8309
32.0734
56.5665
91.5562
137.027
191.961
254.974
325.066
402.46
489.203
595.046
681.307
2.06492
1.90621
1.79707
1.72199
1.67059
1.63686
1.61529
1.60176
1.59485
1.59154
1.59057
1.59293
1.59788
1.60334
1.61097
1.61974
1.62992
1.64142
1.65415
1.66822
1.68361
1.70041
1.71875
1.73872
1.76055
1.78439
1.81044
1.83894
1.8701
764.62
849.523
933.988
1000.79
1027.4
1003.62
934.234
826.705
702.747
581.322
466.6
362.232
271.127
195.838
139.713
100.304
72.7901
53.5992
40.1633
30.681
23.6716
18.9005
15.8522
13.8406
12.6474
12.0702
12.028
12.8305
15.3037
22.5115
47.2571
162.545
843.117
4949.41
2.23157
2.58716
3.23944
4.51931
7.55519
14.5438
28.3099
51.2861
85.0134
129.624
183.981
246.344
315.183
389.905
471.724
564.183
682.835
780.089
2.02084
1.87771
1.77859
1.71021
1.66425
1.63414
1.61429
1.60186
1.59485
1.59149
1.59089
1.59265
1.59711
1.60251
1.60999
1.61874
1.62884
1.64036
1.65309
1.66717
1.68261
1.69945
1.71787
1.73795
1.7599
1.78388
1.81006
1.83871
1.87002
877.662
978.314
1074.98
1139.89
1152.32
1102.97
998.066
868.017
737.306
610.119
490.316
381.369
286.122
207.191
148.164
106.587
77.4706
57.1063
42.8144
32.7055
25.2125
20.1003
16.8256
14.81
13.5894
12.8703
12.7324
13.4977
15.9848
23.3383
48.8161
169.971
884.885
5065.2
2.17063
2.48691
3.0685
4.13276
6.6247
12.4913
24.6586
45.9348
78.237
121.93
175.84
237.903
306.074
379.133
457.321
543.278
642.442
780.065
893.87
1.98165
1.85221
1.76213
1.70105
1.66027
1.63284
1.61443
1.60185
1.59476
1.59188
1.59098
1.59197
1.59641
1.60171
1.60899
1.61774
1.62776
1.63927
1.652
1.6661
1.68159
1.69848
1.717
1.7372
1.75928
1.78338
1.80969
1.83849
1.86994
1012.27
1135.59
1241.67
1305.75
1290.28
1190.99
1053.63
913.74
775.211
641.539
516.141
402.223
302.508
219.644
157.471
113.529
82.6552
60.9963
45.7561
34.9509
26.9202
21.4287
18.1057
16.0168
14.5841
13.7159
13.4831
14.2162
16.7535
24.324
50.8199
178.633
931.342
5170.75
2.11681
2.39846
2.91921
3.8149
5.85196
10.7172
21.263
40.5907
71.2149
113.862
167.392
229.456
297.498
369.684
445.566
526.642
617.471
726.028
894.18
1035.11
1.9467
1.82956
1.74914
1.69543
1.65857
1.63305
1.61442
1.60173
1.59529
1.59213
1.59086
1.59149
1.5957
1.60093
1.60798
1.61672
1.62666
1.63815
1.6509
1.665
1.68055
1.69752
1.71615
1.73647
1.75866
1.78291
1.80934
1.83828
1.86987
1184.21
1335.02
1470.78
1509.74
1418.11
1269.25
1116.18
964.437
816.786
675.767
544.189
424.875
320.352
233.261
167.691
121.181
88.384
65.3012
49.0125
37.4349
28.8061
23.1692
19.6886
17.2801
15.6227
14.6002
14.2763
14.988
17.6117
25.5087
53.2957
189.096
982.277
5266.2
2.06911
2.32075
2.7871
3.55628
5.21676
9.21289
18.2153
35.4552
64.0073
105.343
158.48
220.797
289.212
361.265
435.85
513.732
598.171
696.259
820.623
1042.74
1228.18
1.91571
1.8115
1.74127
1.69328
1.65887
1.63303
1.61425
1.60248
1.59585
1.59227
1.59102
1.59113
1.59496
1.60017
1.60696
1.61568
1.62555
1.637
1.64978
1.66389
1.67952
1.6966
1.71533
1.73577
1.75807
1.78244
1.80899
1.83807
1.86979
1429.58
1665.78
1790.95
1705.23
1534.17
1359.41
1187.08
1020.93
862.462
713.025
574.572
449.391
339.704
248.089
178.871
129.583
94.6937
70.0503
52.6062
40.1729
31.2706
25.3107
21.3349
18.5878
16.6953
15.5159
15.1068
15.8134
18.5702
26.9062
56.4004
201.442
1038.93
5348.95
2.02699
2.25248
2.66964
3.34357
4.69727
7.95594
15.5217
30.6851
56.8562
96.3753
148.938
211.694
280.96
353.582
427.809
503.748
583.844
673.875
784.756
939.438
1273.21
1545.27
1.8907
1.80078
1.73853
1.69369
1.65885
1.63279
1.61522
1.60358
1.59647
1.59277
1.59122
1.59094
1.59422
1.59943
1.60596
1.61461
1.62444
1.63583
1.64865
1.66279
1.67852
1.6957
1.71453
1.73509
1.75749
1.78199
1.80866
1.83787
1.86972
1902.91
2155.38
2093.43
1883.87
1671.45
1464.76
1268.73
1084.49
912.884
753.612
607.418
475.823
360.597
264.159
191.043
138.77
101.614
75.2686
56.5555
43.7422
34.2915
27.5284
23.0294
19.9273
17.7918
16.4554
15.9696
16.6941
19.635
28.5603
60.193
216.309
1101.54
5421.52
1.99276
2.19285
2.56523
3.16436
4.27537
6.91549
13.1843
26.3236
49.9809
87.196
138.669
201.884
272.448
346.343
421.098
496.215
573.524
657.752
758.964
895.197
1116.24
1735.63
2231.23
1.87597
1.79739
1.73908
1.69367
1.65851
1.63406
1.61702
1.60508
1.59762
1.59339
1.5914
1.59087
1.59349
1.59871
1.60498
1.61351
1.62333
1.63465
1.64753
1.66174
1.67755
1.69483
1.71376
1.73443
1.75693
1.78155
1.80833
1.83768
1.86968
2608.48
2649.04
2388.85
2112.22