/*--------------------------------*- C++ -*----------------------------------*\
  =========                 |
  \\      /  F ield         | OpenFOAM: The Open Source CFD Toolbox
   \\    /   O peration     | Website:  https://openfoam.org
    \\  /    A nd           | Version:  8
     \\/     M anipulation  |
\*---------------------------------------------------------------------------*/
FoamFile
{
    version     2.0;
    format      ascii;
    class       volScalarField;
    location    "1000";
    object      nut;
}
// * * * * * * * * * * * * * * * * * * * * * * * * * * * * * * * * * * * * * //

dimensions      [0 2 -1 0 0 0 0];

internalField   nonuniform List<scalar> 
15677
(
7.4799e-05
0.000154173
8.20041e-05
0.000258015
0.000137613
8.01544e-05
0.000722414
0.000177814
0.000111478
7.67032e-05
0.001806
0.000374857
0.000147542
0.000108616
7.42836e-05
0.00331825
0.000873537
0.000310311
0.000125447
0.000111442
7.26888e-05
0.00477634
0.00171997
0.00066534
0.000257532
0.000122942
0.000117686
7.16962e-05
0.00581853
0.0028408
0.00126587
0.000566599
0.000234014
0.000123115
0.00012431
7.09847e-05
0.00636649
0.00405887
0.00211287
0.00106485
0.000504634
0.000212556
0.000127192
0.000129289
7.05179e-05
0.00658968
0.00517053
0.00314439
0.00176644
0.000947059
0.000461356
0.000205305
0.000135467
0.000134149
7.01359e-05
0.00667776
0.00598074
0.00423159
0.00264948
0.00156237
0.000868316
0.000427964
0.000196484
0.000145052
0.000136554
6.98725e-05
0.00671614
0.00641389
0.00521229
0.00364241
0.00234419
0.00142909
0.000808087
0.000401433
0.000192062
0.000153609
0.000139284
6.97156e-05
0.00671481
0.00659628
0.00595679
0.00462946
0.00325103
0.00214052
0.00133248
0.000759021
0.000377309
0.000192656
0.000161893
0.00014143
6.96623e-05
0.00670857
0.00668362
0.00639451
0.0054809
0.00420161
0.00297786
0.00199452
0.00125739
0.000717692
0.000357977
0.000195363
0.000169042
0.000143087
6.96867e-05
0.0067062
0.00670344
0.00659105
0.00609895
0.00508668
0.00388329
0.00277807
0.00188389
0.00119536
0.000682998
0.000340114
0.000199129
0.000175684
0.000144299
6.97739e-05
0.00670581
0.00670343
0.00667465
0.00645428
0.00580036
0.0047681
0.00364097
0.00262618
0.00179553
0.00114402
0.000648974
0.000328035
0.000204207
0.000180873
0.000145272
6.99539e-05
0.00670588
0.00670178
0.00669494
0.0066194
0.00628308
0.0055316
0.00451159
0.00345232
0.00250619
0.00172399
0.00109854
0.000620463
0.000319522
0.000209114
0.000185744
0.000145932
7.02285e-05
0.00670596
0.006701
0.00669784
0.00667432
0.00654084
0.00609625
0.00529907
0.00430392
0.00330189
0.00240988
0.00166354
0.00105855
0.000595321
0.000313973
0.000214449
0.000189176
0.000146399
7.05844e-05
0.00670599
0.00670079
0.00669746
0.00668927
0.0066424
0.00643981
0.00592084
0.00510055
0.00413411
0.00318031
0.00233054
0.00161244
0.00102283
0.000575568
0.000310715
0.000218874
0.000192784
0.000146568
7.10215e-05
0.006706
0.00670076
0.00669697
0.00669236
0.00667634
0.00659542
0.00633615
0.00576032
0.0049318
0.0039942
0.0030807
0.00226496
0.00156791
0.000993005
0.000559149
0.000308993
0.00022351
0.000194953
0.000146512
7.15377e-05
0.00670601
0.00670074
0.00669676
0.00669255
0.00668629
0.00665566
0.00654067
0.00622997
0.00561635
0.00478853
0.00387845
0.00299869
0.00221011
0.00153096
0.000966946
0.000546215
0.000308649
0.000227309
0.000196922
0.000146315
7.21304e-05
0.00670601
0.00670073
0.0066967
0.0066923
0.0066886
0.00667675
0.00662912
0.00648055
0.00612766
0.0054891
0.00466743
0.00378236
0.00293107
0.00216463
0.00149902
0.000946286
0.000536445
0.000309291
0.00023104
0.000198143
0.000145912
7.27945e-05
0.00670601
0.00670071
0.00669669
0.00669211
0.00668891
0.00668308
0.00666441
0.00659774
0.00641817
0.00603262
0.00537798
0.00456509
0.00370312
0.00287645
0.00212685
0.00147417
0.000928918
0.000530496
0.00031086
0.000234124
0.000199241
0.000145337
7.3526e-05
0.006706
0.0067007
0.00669669
0.006692
0.00668883
0.00668455
0.00667699
0.00664872
0.0065631
0.00635705
0.00594581
0.00528172
0.0044799
0.00363836
0.00283116
0.00209804
0.00145343
0.000917045
0.000526503
0.000312939
0.000237145
0.000199971
0.000144618
7.43167e-05
0.00670599
0.0067007
0.00669668
0.00669193
0.00668874
0.00668468
0.00668092
0.00666874
0.00663093
0.00652742
0.00629812
0.00586845
0.00520018
0.00440936
0.00358701
0.00279682
0.0020752
0.00143992
0.000908206
0.000525667
0.00031591
0.000238948
0.000200218
0.000143752
7.51625e-05
0.00670598
0.0067007
0.00669666
0.0066919
0.00668868
0.00668455
0.00668191
0.00667574
0.00666001
0.0066115
0.00649126
0.0062446
0.00580096
0.00513125
0.00435298
0.00354675
0.0027714
0.0020613
0.0014303
0.000904696
0.000526126
0.000319343
0.000241146
0.000200186
0.000142791
7.60532e-05
0.00670597
0.00670072
0.00669664
0.00669188
0.00668863
0.00668441
0.00668204
0.0066778
0.00667138
0.00664958
0.00659147
0.00645811
0.00619543
0.00574294
0.00507654
0.00430994
0.00351788
0.00275565
0.00205185
0.00142666
0.000904469
0.00053002
0.000322431
0.00024322
0.000199937
0.000141715
7.69853e-05
0.00670595
0.00670073
0.00669662
0.00669187
0.00668859
0.00668432
0.00668196
0.00667822
0.00667535
0.00666536
0.00663962
0.00657256
0.00642562
0.00615455
0.00569734
0.005033
0.00427726
0.00349893
0.0027474
0.00205307
0.00142962
0.000907771
0.000534584
0.000326447
0.000244753
0.00019941
0.00014058
7.79467e-05
0.00670594
0.00670075
0.0066966
0.00669188
0.00668855
0.00668426
0.00668186
0.00667816
0.00667651
0.00667126
0.00666099
0.00662927
0.00655408
0.00640139
0.00611847
0.00565758
0.00500254
0.00426109
0.00349522
0.00275319
0.00205967
0.00143606
0.000914241
0.000540668
0.000330602
0.000246071
0.00019875
0.000139366
7.89358e-05
0.00670593
0.00670076
0.00669658
0.00669188
0.00668851
0.00668422
0.00668177
0.00667804
0.00667669
0.00667316
0.00666967
0.00665534
0.00662089
0.00654092
0.00637575
0.00609338
0.00563991
0.00499073
0.0042571
0.00349908
0.00276108
0.00207104
0.00144672
0.000924333
0.000548844
0.000335382
0.000247229
0.000197863
0.000138119
7.99336e-05
0.00670591
0.00670078
0.00669655
0.0066919
0.00668847
0.0066842
0.00668169
0.00667792
0.00667661
0.00667355
0.00667279
0.00666644
0.00665307
0.0066141
0.00652726
0.0063644
0.00608463
0.00562838
0.00498473
0.00425966
0.00351054
0.00277693
0.00208856
0.00146333
0.000937442
0.000558604
0.000340447
0.000248221
0.000196913
0.000136862
8.10525e-05
0.0067059
0.00670079
0.00669653
0.00669191
0.00668843
0.0066842
0.00668162
0.00667783
0.00667648
0.00667351
0.00667365
0.00667067
0.00666739
0.00665034
0.00661142
0.00652594
0.00636177
0.00607858
0.00562482
0.00498838
0.0042743
0.00353337
0.0028045
0.00211436
0.00148467
0.000953697
0.00056991
0.000345822
0.000249101
0.00019577
0.00013552
8.22951e-05
0.00670589
0.00670081
0.00669651
0.00669193
0.00668839
0.0066842
0.00668155
0.00667777
0.00667635
0.00667336
0.00667374
0.00667195
0.00667319
0.00666712
0.00665386
0.00661481
0.00652827
0.00636414
0.00608114
0.00563569
0.00501019
0.00430409
0.00356807
0.00284069
0.00214718
0.00151092
0.000972608
0.000582538
0.000351515
0.00024987
0.000194512
0.000134055
8.35243e-05
0.00670588
0.00670082
0.0066965
0.00669195
0.00668835
0.00668421
0.00668148
0.00667773
0.00667623
0.00667321
0.00667362
0.00667217
0.0066751
0.00667422
0.00667389
0.00666194
0.00662202
0.00653736
0.00637484
0.006101
0.00566374
0.00504596
0.00434671
0.00361374
0.00288466
0.00218686
0.00154118
0.000994356
0.000596699
0.000357662
0.000250685
0.000192813
0.000132646
8.4733e-05
0.00670587
0.00670083
0.00669648
0.00669196
0.00668832
0.00668422
0.00668141
0.00667771
0.00667611
0.00667309
0.00667345
0.00667205
0.00667555
0.00667671
0.0066827
0.00668513
0.00667185
0.0066364
0.00655663
0.00640166
0.00613575
0.00570675
0.0050967
0.00440222
0.0036701
0.00293758
0.00223192
0.00157665
0.00101859
0.000611884
0.000365045
0.000251682
0.000191119
0.000131294
8.59122e-05
0.00670084
0.00670587
0.00669646
0.00669198
0.00668829
0.00668424
0.00668135
0.00667771
0.00667599
0.006673
0.00667327
0.00667185
0.00667551
0.00667738
0.00668596
0.00669581
0.00669674
0.0066897
0.00666305
0.00658965
0.00644321
0.00618617
0.00576628
0.00516231
0.0044711
0.00373749
0.00299874
0.00228335
0.00161634
0.00104547
0.000629731
0.000373981
0.000252854
0.00018924
0.000129992
8.70552e-05
0.00669645
0.00670087
0.00670587
0.00669199
0.00668826
0.00668426
0.00668129
0.00667771
0.00667588
0.00667293
0.00667309
0.00667164
0.00667532
0.00667739
0.00668694
0.00670005
0.00670844
0.00671684
0.00672161
0.00670105
0.00663744
0.00650075
0.00625426
0.00584254
0.00524397
0.00455331
0.0038155
0.00306848
0.00234073
0.00165981
0.00107807
0.000650959
0.000383173
0.000254041
0.000187458
0.000128776
8.81576e-05
0.006692
0.00669646
0.00670092
0.00670587
0.00668824
0.00668427
0.00668124
0.00667773
0.00667577
0.0066729
0.00667292
0.00667147
0.00667509
0.00667719
0.00668708
0.00670152
0.00671329
0.00672995
0.00675224
0.00676353
0.00675417
0.00670175
0.00657691
0.00634062
0.00593712
0.00534117
0.004649
0.00390466
0.00314606
0.00240403
0.00171233
0.00111757
0.000673265
0.000392859
0.000255423
0.000185549
0.000127604
8.92146e-05
0.00668821
0.00669205
0.00669649
0.00670096
0.00670587
0.00668429
0.00668119
0.00667774
0.00667567
0.00667289
0.00667275
0.00667134
0.00667487
0.00667692
0.00668692
0.00670191
0.00671509
0.00673569
0.00676767
0.00679718
0.00682097
0.00682379
0.00678535
0.00667338
0.00644826
0.00605019
0.00545534
0.00475834
0.00400383
0.00323184
0.00248033
0.00177619
0.00115965
0.000696582
0.000403104
0.000256833
0.000183805
0.000126451
9.02243e-05
0.0066843
0.00668823
0.00669214
0.00669653
0.00670101
0.00670587
0.00668114
0.00667776
0.00667558
0.0066729
0.00667258
0.00667126
0.00667466
0.00667665
0.00668669
0.0067019
0.00671569
0.00673807
0.00677496
0.00681473
0.00685792
0.00689503
0.00691358
0.0068893
0.00679124
0.00657676
0.00618419
0.00558642
0.0048809
0.00411414
0.00333536
0.00257273
0.00184469
0.00120504
0.000720907
0.00041368
0.000258423
0.000182118
0.000125363
9.11846e-05
0.0066811
0.00668437
0.00668828
0.00669222
0.00669656
0.00670105
0.00670587
0.00667778
0.00667549
0.00667291
0.00667241
0.00667122
0.00667444
0.00667642
0.00668646
0.00670173
0.00671582
0.00673906
0.00677834
0.00682352
0.00687845
0.00693601
0.00698986
0.00702294
0.00701485
0.00693055
0.00672673
0.0063368
0.00573592
0.0050176
0.00424675
0.00346074
0.00267196
0.00191741
0.00125272
0.000745942
0.000424556
0.000260015
0.000180594
0.00012432
9.20953e-05
0.00667779
0.00668111
0.00668448
0.00668833
0.00669231
0.0066966
0.00670109
0.00670587
0.00667541
0.00667293
0.00667225
0.00667121
0.00667421
0.00667624
0.00668626
0.00670153
0.00671577
0.00673949
0.00678006
0.00682825
0.00688997
0.00696054
0.00703721
0.00710824
0.00715932
0.00716411
0.00709059
0.0068955
0.00650762
0.00590063
0.00518589
0.00441045
0.00359663
0.00277763
0.00199403
0.00130185
0.000771629
0.000435636
0.000261786
0.000179121
0.000123354
9.29562e-05
0.00667534
0.00667787
0.00668116
0.0066846
0.00668839
0.00669239
0.00669664
0.00670114
0.00670588
0.00667296
0.0066721
0.00667124
0.00667397
0.00667613
0.00668609
0.00670132
0.00671566
0.00673969
0.00678104
0.00683108
0.00689684
0.00697528
0.0070671
0.00716248
0.00725439
0.00732231
0.0073431
0.00727734
0.00708357
0.00669426
0.006099
0.005389
0.00458756
0.00374127
0.00288914
0.00207371
0.00135258
0.000797736
0.000446869
0.00026351
0.000177795
0.00012244
9.37683e-05
0.00667298
0.00667531
0.006678
0.00668122
0.00668472
0.00668846
0.00669248
0.00669668
0.00670118
0.00670588
0.00667196
0.00667128
0.00667372
0.00667608
0.00668592
0.00670113
0.00671555
0.0067398
0.0067817
0.00683306
0.00690152
0.00698498
0.00708697
0.00719919
0.00731811
0.00742895
0.00751597
0.00754918
0.00749232
0.00729728
0.00691849
0.00633418
0.00560435
0.00477403
0.00389309
0.00300503
0.00215598
0.00140444
0.000824231
0.00045819
0.00026541
0.00017652
0.000121602
9.45324e-05
0.00667184
0.00667306
0.00667532
0.00667814
0.00668128
0.00668484
0.00668853
0.00669256
0.00669673
0.00670122
0.00670589
0.00667133
0.00667347
0.00667611
0.00668574
0.00670095
0.00671544
0.00673988
0.00678222
0.00683464
0.00690509
0.00699227
0.00710143
0.0072256
0.00736464
0.00750476
0.00763782
0.00773998
0.00778518
0.00773311
0.00756206
0.00719857
0.00658541
0.00582747
0.00496632
0.00404938
0.00312447
0.00224007
0.00145719
0.000850851
0.000469513
0.000267329
0.00017539
0.000120816
9.52503e-05
0.00667138
0.00667171
0.00667319
0.00667534
0.00667828
0.00668135
0.00668496
0.0066886
0.00669265
0.00669678
0.00670126
0.0067059
0.00667322
0.0066762
0.00668552
0.00670079
0.00671534
0.00673995
0.00678267
0.00683602
0.00690806
0.00699832
0.00711307
0.00724614
0.00740109
0.00756403
0.00772985
0.00788064
0.00799839
0.00805137
0.00802994
0.0078875
0.00750549
0.00685731
0.00605809
0.00516173
0.00420867
0.00324585
0.00232544
0.00151038
0.000877619
0.000480444
0.000269442
0.000174312
0.000120101
9.59235e-05
0.00667299
0.00667144
0.00667157
0.00667332
0.00667536
0.00667842
0.00668143
0.00668507
0.00668869
0.00669273
0.00669684
0.0067013
0.00670591
0.00667633
0.00668524
0.00670066
0.00671528
0.00674004
0.00678309
0.00683726
0.00691066
0.00700366
0.00712305
0.00726351
0.00743147
0.00761339
0.00780661
0.00799317
0.00816341
0.00829178
0.0083819
0.00839785
0.00824269
0.00783264
0.00714565
0.00630055
0.00535806
0.00436806
0.00336778
0.00241112
0.00156375
0.000904325
0.000491082
0.000271464
0.000173362
0.000119433
9.6554e-05
0.00667649
0.0066726
0.0066715
0.00667144
0.00667345
0.00667541
0.00667856
0.00668153
0.00668519
0.00668878
0.00669281
0.0066969
0.00670134
0.00670592
0.0066849
0.00670057
0.00671524
0.00674015
0.00678349
0.0068384
0.00691299
0.00700849
0.0071319
0.00727903
0.00745829
0.00765607
0.00787443
0.00809281
0.00830308
0.00848678
0.00865921
0.00879546
0.00880277
0.00862454
0.00817734
0.00744434
0.00655207
0.00555876
0.00452629
0.00348916
0.00249679
0.00161691
0.000931278
0.000501414
0.000273661
0.000172462
0.000118829
9.71438e-05
0.0066845
0.00667653
0.00667202
0.00667158
0.00667133
0.00667358
0.00667547
0.00667868
0.00668164
0.0066853
0.00668887
0.0066929
0.00669696
0.00670138
0.00670593
0.00670056
0.00671525
0.00674027
0.00678388
0.00683945
0.00691511
0.00701291
0.00713987
0.00729326
0.00748263
0.00769457
0.00793596
0.00818525
0.00843301
0.00866029
0.0088963
0.00912464
0.00925579
0.00924245
0.00903042
0.00853686
0.00775115
0.00680785
0.0057632
0.00468372
0.00360961
0.00258158
0.00166962
0.000958043
0.000511464
0.000275739
0.000171672
0.000118267
9.7695e-05
0.00670064
0.00668333
0.00667649
0.00667145
0.00667165
0.00667125
0.0066737
0.00667556
0.00667881
0.00668176
0.00668541
0.00668898
0.00669298
0.00669702
0.00670142
0.00670594
0.00671528
0.00674041
0.00678424
0.0068404
0.00691704
0.00701695
0.00714713
0.00730642
0.00750491
0.00773022
0.00799345
0.00827119
0.0085577
0.00882951
0.00911967
0.00942294
0.00965011
0.00976279
0.00971611
0.00945877
0.00890902
0.0080639
0.00706534
0.00596897
0.00483845
0.00372721
0.00266493
0.00172159
0.000984357
0.000521214
0.000277757
0.000170912
0.000117761
9.82096e-05
0.00671534
0.00670022
0.00668119
0.00667649
0.00667091
0.00667169
0.00667122
0.00667379
0.00667567
0.00667893
0.00668189
0.00668552
0.00668909
0.00669306
0.00669709
0.00670145
0.00670596
0.00674055
0.00678455
0.00684125
0.00691881
0.00702064
0.00715375
0.00731859
0.00752537
0.00776365
0.00804769
0.0083519
0.00867666
0.00899988
0.00934903
0.00971962
0.0100281
0.0102414
0.0103213
0.0102262
0.00990959
0.00929242
0.00838082
0.00732309
0.00617476
0.00499331
0.00384199
0.00274645
0.00177256
0.00101021
0.000530669
0.000279774
0.000170258
0.00011729
9.86897e-05
0.00674071
0.0067143
0.00669936
0.00667902
0.00667645
0.00667047
0.0066717
0.00667124
0.00667387
0.00667581
0.00667904
0.00668203
0.00668563
0.00668919
0.00669314
0.00669715
0.00670149
0.00670597
0.0067848
0.00684201
0.00692041
0.00702399
0.00715981
0.00732982
0.00754417
0.00779511
0.00809867
0.0084282
0.00879222
0.0091695
0.00958671
0.0100366
0.0104274
0.0107339
0.0109175
0.0109433
0.010778
0.0103842
0.00968638
0.00870061
0.00758
0.00637773
0.00514685
0.00395386
0.00282585
0.00182232
0.0010355
0.00053981
0.000281757
0.000169619
0.000116867
9.91374e-05
0.00678502
0.00673893
0.00671205
0.00669852
0.00667716
0.00667627
0.00667015
0.00667164
0.00667131
0.00667394
0.00667596
0.00667915
0.00668218
0.00668574
0.0066893
0.00669321
0.0066972
0.00670152
0.00670598
0.00684267
0.00692186
0.00702703
0.00716534
0.00734013
0.00756147
0.00782462
0.00814624
0.00850081
0.00890566
0.00933746
0.00982233
0.0103786
0.0108893
0.0113036
0.0115868
0.0117061
0.0116422
0.0113769
0.0108839
0.0100904
0.00902224
0.00783501
0.00657724
0.00529802
0.0040626
0.00290288
0.0018707
0.00106013
0.000548651
0.000283669
0.000169067
0.000116474
9.95546e-05
0.00684329
0.00678197
0.00673502
0.00670973
0.00669738
0.00667586
0.00667587
0.00666999
0.00667152
0.00667144
0.00667398
0.00667614
0.00667926
0.00668233
0.00668584
0.0066894
0.00669329
0.00669726
0.00670155
0.00670599
0.00692315
0.00702978
0.00717038
0.00734956
0.00757737
0.00785215
0.00819046
0.00857025
0.00901641
0.00950097
0.0100544
0.0107471
0.0114477
0.0120299
0.0124248
0.0126241
0.0126219
0.0124222
0.0120233
0.0114078
0.0105034
0.00934467
0.00808723
0.00677271
0.00544602
0.00416809
0.00297742
0.00191759
0.00108405
0.000557163
0.000285534
0.000168537
0.000116121
9.98927e-05
0.00692437
0.00683927
0.00677537
0.0067311
0.0067074
0.00669562
0.00667508
0.00667525
0.00666997
0.00667135
0.00667161
0.00667403
0.00667632
0.00667937
0.00668248
0.00668595
0.0066895
0.00669336
0.00669732
0.00670158
0.006706
0.00703224
0.00717496
0.00735814
0.00759196
0.00787766
0.00823149
0.00863665
0.00912285
0.00965793
0.010289
0.0111608
0.0121134
0.0129543
0.0135186
0.0137939
0.013829
0.0136471
0.0132708
0.0127094
0.0119518
0.0109232
0.00966669
0.00833585
0.00696365
0.00559024
0.00427002
0.00304925
0.00196284
0.00110718
0.000565368
0.000287318
0.000168084
0.000115835
0.000100177
0.00703451
0.0069188
0.00683015
0.00676866
0.00672735
0.0067051
0.00669344
0.00667477
0.00667444
0.00667008
0.00667115
0.00667181
0.00667408
0.00667651
0.00667949
0.00668262
0.00668606
0.0066896
0.00669343
0.00669737
0.00670162
0.00670601
0.00717909
0.00736592
0.00760531
0.00790116
0.00826952
0.00869975
0.0092235
0.00980881
0.0105352
0.0116305
0.0128754
0.0140102
0.0148295
0.0152412
0.0153095
0.0151277
0.0147339
0.0141597
0.0134204
0.0125086
0.0113468
0.00998681
0.0085801
0.00714964
0.00573029
0.00436856
0.00311806
0.00200637
0.0011295
0.000573234
0.000289049
0.000167701
0.000115602
0.000100483
0.00718288
0.007027
0.00690567
0.00682112
0.00676212
0.00672385
0.00670282
0.00669074
0.00667483
0.00667349
0.00667028
0.00667095
0.00667202
0.00667414
0.00667668
0.00667961
0.00668275
0.00668616
0.00668969
0.0066935
0.00669742
0.00670165
0.00670602
0.00737293
0.00761749
0.00792272
0.00830472
0.00875914
0.00931771
0.00995586
0.0107984
0.012147
0.0136864
0.0150936
0.0161609
0.0167998
0.01699
0.0168284
0.0164262
0.0158235
0.0150543
0.0141372
0.0130686
0.0117699
0.0103033
0.00881917
0.00733027
0.00586567
0.00446415
0.00318392
0.00204812
0.00115095
0.000580791
0.000290478
0.000167399
0.00011535
0.000100815
0.00737928
0.00717279
0.00700839
0.00689256
0.00681243
0.0067559
0.00672056
0.00670109
0.00668764
0.00667511
0.00667251
0.00667049
0.00667078
0.00667221
0.00667423
0.00667684
0.00667973
0.00668287
0.00668627
0.00668978
0.00669357
0.00669747
0.00670168
0.00670602
0.00762853
0.00794239
0.00833721
0.0088145
0.00940565
0.0101014
0.0110774
0.0126854
0.0144846
0.0161041
0.0173593
0.0181998
0.0186128
0.0185953
0.0182363
0.0176471
0.0168647
0.0159222
0.0148409
0.0136219
0.012188
0.0106142
0.00905225
0.0075052
0.00599591
0.00455647
0.0032469
0.00208807
0.00117153
0.000587052
0.000291715
0.000167058
0.000115087
0.000101174
0.00763853
0.0073662
0.00714667
0.00698975
0.00687982
0.00680401
0.00674998
0.0067174
0.00669983
0.00668443
0.00667546
0.0066716
0.00667068
0.00667067
0.00667237
0.00667433
0.00667699
0.00667987
0.00668299
0.00668637
0.00668986
0.00669364
0.00669751
0.00670169
0.00670602
0.00796026
0.00836706
0.00886568
0.00948801
0.0102466
0.0113651
0.0132171
0.0152199
0.0169774
0.0183454
0.0193198
0.0199198
0.0201427
0.0199717
0.0194708
0.0187438
0.0178229
0.016739
0.0155155
0.0141592
0.0125966
0.0109177
0.00927858
0.00767412
0.00612095
0.00464531
0.00330702
0.00212623
0.00118863
0.000592431
0.000293068
0.000166717
0.000114802
0.000101562
0.00797628
0.00762159
0.00733018
0.00712051
0.00697158
0.00686745
0.0067958
0.00674426
0.00671443
0.00669874
0.00668133
0.00667571
0.00667086
0.00667079
0.00667065
0.0066725
0.00667446
0.00667712
0.00668
0.0066831
0.00668648
0.00668994
0.00669371
0.00669754
0.00670169
0.00670602
0.00839436
0.00891272
0.00956557
0.010391
0.0116518
0.0137186
0.0158637
0.0176899
0.0191016
0.0201401
0.020857
0.0212712
0.0213643
0.0210994
0.0205125
0.0196973
0.0186803
0.0174896
0.0161497
0.0146731
0.0129917
0.0112119
0.00949743
0.00783672
0.00624077
0.00473053
0.00336436
0.00215779
0.00120326
0.000598346
0.000294587
0.00016633
0.000114508
0.000101982
0.00841882
0.00795493
0.00757226
0.00729406
0.00709497
0.00695387
0.00685538
0.00678772
0.00673879
0.00671164
0.0066977
0.0066786
0.0066757
0.00667036
0.0066708
0.00667069
0.00667261
0.0066746
0.00667724
0.00668014
0.00668321
0.00668658
0.00669002
0.00669374
0.00669754
0.00670169
0.00670602
0.00895584
0.00963894
0.0105331
0.0119281
0.0141753
0.0164067
0.0182462
0.0196476
0.0206921
0.0214597
0.0219911
0.0222846
0.0223035
0.0219944
0.0213682
0.0205071
0.019432
0.0181669
0.0167366
0.0151581
0.0133701
0.0114953
0.00970812
0.00799282
0.00635535
0.00481208
0.00341175
0.00218473
0.00121941
0.000604928
0.000296248
0.000165947
0.000114191
0.000102435
0.00899428
0.00839172
0.00788832
0.00752283
0.00725873
0.00707006
0.00693659
0.00684359
0.00677973
0.00673373
0.00670891
0.00669655
0.00667667
0.00667535
0.0066701
0.00667073
0.00667078
0.00667269
0.00667476
0.00667736
0.00668027
0.00668331
0.00668668
0.00669006
0.00669374
0.00669754
0.00670169
0.00670602
0.00970848
0.0106707
0.0121869
0.0145807
0.0168527
0.0186655
0.020019
0.0210269
0.0217924
0.0223752
0.0227904
0.0230165
0.0230036
0.0226872
0.0220567
0.0211833
0.0200812
0.0187699
0.0172729
0.0156111
0.0137292
0.0117664
0.00991007
0.00814223
0.00646471
0.00487967
0.00345216
0.00221439
0.00123727
0.00061218
0.000298129
0.00016551
0.000113866
0.000102925
0.00977207
0.00896054
0.00830175
0.00782148
0.00747444
0.00722421
0.00704574
0.00691974
0.00683205
0.00677178
0.00672899
0.00670614
0.00669471
0.00667563
0.00667472
0.00667004
0.00667062
0.00667092
0.00667276
0.00667492
0.00667746
0.00668041
0.00668341
0.00668674
0.00669005
0.00669374
0.00669754
0.00670169
0.00670602
0.010802
0.0124271
0.0149345
0.0172121
0.0189721
0.0202536
0.0211964
0.0219215
0.0225043
0.0229752
0.0233271
0.0235243
0.0235094
0.0232112
0.0226016
0.0217407
0.0206359
0.0193014
0.0177585
0.0160303
0.0140675
0.0120243
0.0101028
0.00828479
0.00655516
0.00493736
0.00349663
0.0022471
0.00125706
0.000620309
0.000300187
0.000165087
0.000113517
0.000103454
0.0109202
0.00972945
0.00883803
0.00821173
0.0077559
0.00742713
0.00719049
0.00702202
0.00690331
0.00682079
0.00676395
0.00672443
0.00670339
0.00669224
0.00667526
0.00667391
0.0066701
0.00667048
0.00667108
0.00667282
0.00667508
0.00667757
0.00668054
0.00668345
0.00668674
0.00669005
0.00669374
0.00669754
0.00670169
0.00670602
0.0126492
0.0152377
0.0174978
0.0191894
0.0203854
0.0212458
0.0219048
0.0224503
0.0229257
0.0233376
0.0236629
0.0238573
0.0238605
0.0235977
0.0230262
0.0221954
0.0211061
0.0197666
0.0181949
0.0164156
0.0143841
0.0122683
0.010286
0.00840248
0.00663225
0.00500094
0.00354567
0.00228323
0.00127903
0.000629279
0.000302537
0.000164598
0.000113165
0.000104026
0.0108727
0.0128444
0.00954966
0.00871762
0.00812322
0.00769173
0.00738087
0.00715758
0.00699892
0.00688733
0.0068099
0.00675629
0.00672022
0.00670084
0.00668913
0.00667529
0.00667305
0.00667022
0.00667034
0.00667125
0.00667288
0.00667524
0.00667767
0.00668062
0.00668344
0.00668674
0.00669005
0.00669374
0.00669754
0.00670168
0.00670601
0.0154936
0.0177227
0.0193381
0.0204423
0.0212111
0.0217882
0.0222706
0.0227129
0.0231341
0.0235229
0.0238461
0.0240553
0.0240899
0.0238738
0.0233517
0.0225631
0.0215022
0.0201714
0.0185851
0.0167677
0.0146787
0.0124981
0.0104365
0.0085027
0.00671705
0.0050711
0.00359981
0.00232322
0.00130346
0.000639428
0.000305112
0.000164138
0.000112791
0.000104642
0.0106
0.0127927
0.015705
0.0093774
0.00860002
0.00803638
0.00762896
0.00733567
0.0071255
0.00697646
0.00687187
0.00679954
0.00674896
0.00671651
0.00669929
0.00668592
0.00667548
0.00667222
0.00667036
0.00667022
0.00667142
0.00667295
0.0066754
0.00667771
0.00668063
0.00668344
0.00668674
0.00669005
0.00669374
0.00669751
0.00670165
0.006706
0.0178985
0.019435
0.0204461
0.0211197
0.0216062
0.0220089
0.0223913
0.0227837
0.0231864
0.0235761
0.0239134
0.0241493
0.0242245
0.0240622
0.0235966
0.0228579
0.0218345
0.0205226
0.0189325
0.017088
0.0149517
0.012685
0.0105643
0.00861284
0.00681046
0.00514863
0.00365971
0.00236756
0.00133072
0.000650638
0.000308079
0.0001636
0.000112421
0.000105306
0.0103295
0.0124176
0.015628
0.0180329
0.00921458
0.00848447
0.00795133
0.00756759
0.00729159
0.00709432
0.0069547
0.006857
0.00678981
0.00674231
0.00671318
0.00669809
0.00668291
0.00667567
0.00667151
0.00667048
0.00667013
0.00667158
0.00667302
0.00667549
0.00667769
0.00668063
0.00668344
0.00668674
0.00669006
0.00669371
0.00669747
0.00670162
0.00670599
0.0194935
0.0204133
0.020992
0.0213841
0.0216974
0.0220016
0.022337
0.0227153
0.0231234
0.0235297
0.0238924
0.0241634
0.0242856
0.0241817
0.0237765
0.0230924
0.0221121
0.0208263
0.0192411
0.0173785
0.0151702
0.0128428
0.0107043
0.00873398
0.00691351
0.00523444
0.0037261
0.00241684
0.00136117
0.000663328
0.000311336
0.000163126
0.000112035
0.000106021
0.0100754
0.0120051
0.0152789
0.0179201
0.019517
0.00905851
0.00837076
0.0078682
0.0075077
0.00724872
0.00706409
0.00693372
0.00684287
0.00678076
0.00673621
0.00671028
0.00669702
0.00668029
0.00667573
0.00667095
0.00667057
0.00667008
0.00667173
0.00667303
0.00667551
0.00667768
0.00668063
0.00668344
0.00668674
0.00669002
0.00669364
0.00669742
0.00670158
0.00670598
0.0203562
0.0208426
0.0211403
0.0213593
0.0215737
0.0218317
0.022156
0.0225444
0.0229738
0.0234075
0.0238035
0.0241163
0.0242901
0.0242473
0.0239046
0.0232773
0.0223434
0.0210886
0.0195147
0.0176064
0.015353
0.0130145
0.0108577
0.00886734
0.00702733
0.00532955
0.00379983
0.00247172
0.00139528
0.000677731
0.000315141
0.00016263
0.000111666
0.000106789
0.00983832
0.0115928
0.0148397
0.0176814
0.0193518
0.0202747
0.00890704
0.00825908
0.00778711
0.00744937
0.00720714
0.0070349
0.0069137
0.00682975
0.00677238
0.00673079
0.00670765
0.00669598
0.00667822
0.0066756
0.00667053
0.00667062
0.00667006
0.00667183
0.006673
0.00667552
0.00667768
0.00668063
0.00668345
0.00668668
0.00668994
0.00669357
0.00669737
0.00670155
0.00670596
0.0206822
0.0208875
0.0210112
0.0211292
0.021296
0.0215437
0.0218817
0.0222966
0.0227578
0.0232265
0.0236626
0.0240224
0.0242515
0.0242713
0.0239914
0.0234214
0.0225356
0.021315
0.0197245
0.0177948
0.0155497
0.013201
0.0110257
0.00901424
0.00715323
0.00543514
0.00388193
0.00253302
0.00143364
0.000693993
0.000319231
0.000162108
0.00011129
0.000107613
0.00961562
0.0111972
0.0143444
0.0173647
0.0191886
0.020057
0.0205061
0.0087592
0.00814975
0.00770823
0.00739276
0.00716696
0.007007
0.00689513
0.00681776
0.00676464
0.00672606
0.00670518
0.00669475
0.00667691
0.00667528
0.00667025
0.00667066
0.00667002
0.00667185
0.00667298
0.00667552
0.00667769
0.00668062
0.00668341
0.00668658
0.00668986
0.0066935
0.00669731
0.00670152
0.00670595
0.0206347
0.0206646
0.0206834
0.0207506
0.0209054
0.0211682
0.0215372
0.0219894
0.0224897
0.0229997
0.0234816
0.0238934
0.0241806
0.0242634
0.0240457
0.0235324
0.022695
0.0214837
0.019896
0.0179948
0.0157608
0.0134036
0.0112097
0.00917615
0.00729263
0.00555255
0.00397346
0.00260159
0.00147685
0.000712595
0.00032394
0.000161653
0.000110959
0.000108495
0.00940471
0.0108244
0.0138174
0.0169928
0.0189604
0.0199281
0.0202364
0.0203723
0.00861483
0.00804309
0.00763174
0.007338
0.00712857
0.00698111
0.00687821
0.00680678
0.00675745
0.00672191
0.00670282
0.00669287
0.00667616
0.00667484
0.00667008
0.00667067
0.00666999
0.00667186
0.00667298
0.00667551
0.00667771
0.00668054
0.00668331
0.00668648
0.00668977
0.00669343
0.00669726
0.00670149
0.00670594
0.0203275
0.0202474
0.0202107
0.0202617
0.0204305
0.0207269
0.0211382
0.021635
0.02218
0.0227368
0.0232701
0.0237383
0.0240858
0.0242315
0.0240744
0.0236165
0.0228082
0.0216197
0.0200751
0.0182062
0.0159869
0.0136231
0.011411
0.00935465
0.00744714
0.00568335
0.00407602
0.00267836
0.00152572
0.000733923
0.000329025
0.000161255
0.000110638
0.00010961
0.0092037
0.0104772
0.0132709
0.0165737
0.0186922
0.0197471
0.0201133
0.0200505
0.0199845
0.00847411
0.0079395
0.00755786
0.00728564
0.00709297
0.00695757
0.00686279
0.00679674
0.00675077
0.00671822
0.00670072
0.00669054
0.00667577
0.00667435
0.00667002
0.00667064
0.00666997
0.00667186
0.00667299
0.00667549
0.00667767
0.00668041
0.0066832
0.00668637
0.00668969
0.00669336
0.0066972
0.00670146
0.00670593
0.0198285
0.019687
0.019628
0.0196893
0.0198918
0.020234
0.0206953
0.0212416
0.021836
0.0224456
0.0230361
0.0235647
0.0239738
0.0241816
0.0240833
0.0236688
0.0228977
0.0217591
0.0202613
0.0184287
0.0162282
0.0138603
0.011631
0.00955139
0.00761852
0.00582912
0.00419169
0.00276467
0.00158111
0.000758588
0.000334903
0.000160909
0.000110362
0.000110924
0.00901132
0.0101567
0.0127127
0.0161084
0.0183949
0.0195406
0.0199466
0.0199159
0.0196107
0.0194153
0.00833723
0.0078394
0.00748727
0.00723709
0.00706061
0.00693615
0.00684874
0.00678764
0.00674455
0.00671505
0.00669918
0.0066881
0.00667558
0.00667395
0.00667006
0.00667062
0.00666997
0.00667185
0.00667303
0.0066754
0.00667756
0.00668027
0.0066831
0.00668626
0.00668959
0.00669328
0.00669714
0.00670142
0.00670592
0.0191872
0.0190158
0.0189608
0.0190539
0.0193027
0.0196989
0.0202153
0.0208144
0.0214638
0.0221326
0.0227861
0.0233785
0.0238502
0.0241187
0.0240756
0.023708
0.0229863
0.0219007
0.0204538
0.0186619
0.0164848
0.0141161
0.0118709
0.00976806
0.00780869
0.00599158
0.00432228
0.00286211
0.00164427