/*--------------------------------*- C++ -*----------------------------------*\
  =========                 |
  \\      /  F ield         | OpenFOAM: The Open Source CFD Toolbox
   \\    /   O peration     | Website:  https://openfoam.org
    \\  /    A nd           | Version:  8
     \\/     M anipulation  |
\*---------------------------------------------------------------------------*/
FoamFile
{
    version     2.0;
    format      ascii;
    class       volScalarField;
    location    "0.5";
    object      epsilon;
}
// * * * * * * * * * * * * * * * * * * * * * * * * * * * * * * * * * * * * * //

dimensions      [0 2 -3 0 0 0 0];

internalField   nonuniform List<scalar> 
15677
(
59.7023
18.3556
52.6132
8.08839
25.8913
50.1612
4.62757
13.2633
31.5741
50.4796
3.17801
7.72341
17.0791
37.2586
51.5927
2.48958
5.04286
10.0238
20.8042
42.6252
53.6476
2.14575
3.62275
6.46077
12.1571
24.5284
47.6332
55.7111
1.97988
2.82095
4.52385
7.72109
14.2672
28.2334
51.9893
57.6487
1.9117
2.35305
3.40116
5.30813
8.91077
16.4114
31.7303
55.6707
59.3504
1.88417
2.08032
2.72295
3.90781
6.01857
10.0982
18.5191
34.9255
58.692
60.8553
1.87055
1.93942
2.30698
3.05462
4.35588
6.70249
11.2636
20.5481
37.7449
61.1719
62.127
1.86765
1.87832
2.05642
2.52058
3.34671
4.77327
7.35743
12.4051
22.4376
40.2083
63.1712
63.2455
1.86863
1.84884
1.91657
2.18579
2.71169
3.61317
5.16186
7.99341
13.4914
24.1806
42.3077
64.8044
64.1794
1.86954
1.83869
1.85193
1.98252
2.30642
2.88509
3.85593
5.53119
8.59681
14.5209
25.7444
44.102
66.1174
65.0176
1.86978
1.83696
1.82112
1.86771
2.05116
2.41735
3.04143
4.08163
5.87653
9.17066
15.4705
27.145
45.6027
67.1849
65.7497
1.86978
1.83722
1.81049
1.81332
1.8981
2.11704
2.51775
3.18448
4.28921
6.20148
9.70296
16.3456
28.3683
46.8655
68.0579
66.3974
1.86974
1.83748
1.80819
1.78975
1.81538
1.93011
2.17817
2.60913
3.31439
4.4814
6.50086
10.1968
17.1301
29.4344
47.9173
68.7692
66.9912
1.86972
1.83757
1.8079
1.78272
1.7757
1.82142
1.96205
2.23438
2.69164
3.43286
4.65656
6.77655
10.6434
17.8316
30.3442
48.7796
69.3799
67.4966
1.86971
1.83759
1.80793
1.78099
1.76147
1.76612
1.83161
1.99265
2.28541
2.76617
3.53973
4.81581
7.02496
11.0461
18.4421
31.1113
49.4945
69.8645
68.0085
1.86971
1.83758
1.80795
1.78066
1.75699
1.74391
1.76035
1.84292
2.02106
2.33144
2.83295
3.63568
4.95807
7.24754
11.3992
18.9684
31.7481
50.0552
70.3212
68.4074
1.86971
1.83757
1.80795
1.78061
1.75573
1.73588
1.72953
1.75734
1.85425
2.04707
2.37267
2.89236
3.72068
5.08396
7.44222
11.7052
19.4089
32.2604
50.5237
70.6618
68.8823
1.86971
1.83756
1.80795
1.78059
1.75542
1.73316
1.71733
1.71801
1.75577
1.86533
2.07062
2.40925
2.94471
3.79506
5.19332
7.60959
11.9622
19.7701
32.6695
50.865
71.0402
69.1988
1.86971
1.83755
1.80794
1.78057
1.75535
1.73232
1.71273
1.70134
1.70847
1.75565
1.87575
2.09164
2.44148
2.99025
3.85928
5.2862
7.75013
12.1727
20.0556
32.976
51.1568
71.2941
69.6694
1.86971
1.83754
1.80793
1.78054
1.75532
1.73205
1.71112
1.69452
1.6873
1.70085
1.75596
1.88533
2.11035
2.46959
3.02954
3.91353
5.36389
7.86354
12.3388
20.2713
33.2033
51.3508
71.6513
69.9253
1.86972
1.83754
1.80792
1.78052
1.75529
1.73195
1.71059
1.6919
1.6781
1.67537
1.69456
1.75671
1.89421
2.12694
2.49406
3.06292
3.95886
5.42596
7.95344
12.4623
20.4267
33.3552
51.5162
71.858
70.3967
1.86972
1.83754
1.80792
1.7805
1.75526
1.73188
1.71039
1.69092
1.67432
1.66374
1.66491
1.68954
1.75814
1.90247
2.14173
2.51528
3.09122
3.99571
5.47556
8.01869
12.55
20.5224
33.4447
51.6338
72.2577
70.6427
1.86972
1.83754
1.80791
1.78049
1.75524
1.73183
1.7103
1.69053
1.67283
1.65869
1.65084
1.65635
1.68578
1.75998
1.91039
2.15524
2.53404
3.11523
4.02565
5.51171
8.06567
12.6009
20.5798
33.4921
51.7107
72.5554
429.913
1.86972
1.83754
1.80791
1.78048
1.75522
1.73179
1.71023
1.69034
1.67224
1.65655
1.64447
1.64009
1.64901
1.68313
1.76275
1.91847
2.16802
2.55095
3.13575
4.04927
5.53888
8.09229
12.6284
20.5824
33.4881
51.8337
88.925
718.304
1.86972
1.83753
1.8079
1.78047
1.7552
1.73176
1.71017
1.69023
1.67197
1.65564
1.64171
1.6324
1.63054
1.64396
1.68263
1.76673
1.9271
2.18077
2.56697
3.15421
4.06895
5.55704
8.10885
12.6253
20.5693
33.4912
52.7574
122.324
999.487
1.86972
1.83753
1.8079
1.78046
1.75518
1.73173
1.71012
1.69014
1.67181
1.6552
1.6405
1.62887
1.62167
1.62378
1.64005
1.68373
1.77228
1.93711
2.19438
2.58333
3.17178
4.08576
5.57015
8.10881
12.6133
20.5397
33.517
55.3179
157.963
1248.3
1.86972
1.83753
1.8079
1.78046
1.75517
1.73171
1.71008
1.69007
1.67169
1.65495
1.63992
1.62723
1.61754
1.61366
1.61812
1.64018
1.68687
1.78018
1.9492
2.20989
2.60085
3.18975
4.10126
5.57869
8.10595
12.5891
20.5019
33.6167
59.8932
190.662
1477.66
1.86972
1.83753
1.8079
1.78046
1.75516
1.73169
1.71004
1.69002
1.67159
1.65479
1.6396
1.62643
1.6156
1.60873
1.60723
1.61675
1.64211
1.69317
1.79118
1.96439
2.2281
2.62088
3.20922
4.11732
5.58607
8.09935
12.5606
20.4583
33.8708
64.6239
221.705
1672.34
1.86972
1.83753
1.80789
1.78045
1.75515
1.73167
1.71002
1.68997
1.67151
1.65466
1.63937
1.62598
1.61463
1.60632
1.60192
1.60462
1.61822
1.64706
1.70351
1.80627
1.98352
2.25035
2.64437
3.23193
4.13529
5.5946
8.09244
12.5296
20.4097
34.3386
69.437
249.035
1820.39
1.86972
1.83753
1.80789
1.78045
1.75515
1.73166
1.70999
1.68993
1.67144
1.65455
1.6392
1.62569
1.61408
1.6051
1.59931
1.59855
1.60586
1.6227
1.65675
1.71873
1.82637
2.00788
2.2775
2.67284
3.25874
4.15721
5.60649
8.08666
12.4976
20.3657
34.8982
73.8088
270.286
1935.34
1.86972
1.83753
1.80789
1.78045
1.75514
1.73165
1.70997
1.68989
1.67139
1.65446
1.63905
1.62547
1.61371
1.60441
1.59795
1.59552
1.59967
1.61014
1.63185
1.6722
1.73977
1.85273
2.03834
2.31097
2.707
3.29137
4.18418
5.62301
8.08515
12.4642
20.3305
35.4389
77.1988
287.107
2027.68
1.83753
1.86975
1.80789
1.78044
1.75514
1.73164
1.70996
1.68986
1.67134
1.65439
1.63893
1.6253
1.61342
1.60397
1.59716
1.59396
1.59661
1.60389
1.6191
1.64759
1.69413
1.76796
1.88627
2.07629
2.35145
2.74841
3.33045
4.21757
5.6448
8.08659
12.4279
20.2908
35.8514
79.8016
300.756
2104.76
1.80789
1.83763
1.86982
1.78044
1.75513
1.73163
1.70994
1.68983
1.6713
1.65432
1.63882
1.62515
1.61319
1.60364
1.59664
1.59309
1.59504
1.60086
1.61287
1.63528
1.6704
1.72386
1.80425
1.92846
2.12248
2.40041
2.79744
3.37727
4.25747
5.67238
8.09173
12.3896
20.243
36.1358
81.7954
312.286
2171.52
1.78044
1.80805
1.83783
1.8699
1.75513
1.73162
1.70993
1.68981
1.67126
1.65426
1.63874
1.62502
1.61299
1.60338
1.59624
1.59254
1.5942
1.59938
1.60999
1.62956
1.659
1.70174
1.76261
1.85008
1.97996
2.17814
2.45809
2.85545
3.43174
4.30439
5.7095
8.10334
12.3552
20.183
36.3137
83.3639
322.292
2231.03
1.75513
1.78065
1.80836
1.83804
1.86997
1.73162
1.70992
1.68978
1.67124
1.6542
1.63867
1.6249
1.61282
1.60316
1.59592
1.59215
1.59368
1.59865
1.60876
1.62723
1.65424
1.69196
1.74296
1.81206
1.90656
2.04238
2.24372
2.52602
2.92209
3.49433
4.36431
5.75911
8.12259
12.3243
20.1142
36.4108
84.6212
331.309
2285.41
1.73161
1.75538
1.78107
1.80869
1.83825
1.87005
1.70991
1.68976
1.67121
1.65415
1.6386
1.6248
1.61268
1.60297
1.59565
1.59183
1.59332
1.59825
1.60831
1.62659
1.65298
1.68899
1.73581
1.79608
1.87348
1.97552
2.11635
2.32048
2.60329
2.99809
3.57284
4.44063
5.81721
8.14827
12.2975
20.0384
36.4491
85.6737
339.525
2335.73
1.7099
1.7319
1.75589
1.78151
1.80902
1.83847
1.87013
1.68975
1.67119
1.65411
1.63855
1.62471
1.61256
1.60281
1.59542
1.59158
1.59304
1.598
1.60819
1.62669
1.65328
1.68922
1.73506
1.79247
1.86275
1.94924
2.05795
2.20352
2.40853
2.69118
3.09245
3.67098
4.52652
5.88307
8.17982
12.2753
19.9605
36.4432
86.5731
347.236
2382.98
1.68973
1.71023
1.7325
1.75642
1.78195
1.80937
1.83869
1.87021
1.67117
1.65407
1.63851
1.62463
1.61246
1.60266
1.59522
1.59136
1.59282
1.59783
1.60819
1.62709
1.65438
1.69123
1.73774
1.79508
1.86332
1.94455
2.04027
2.15611
2.30427
2.50934
2.79957
3.20935
3.77986
4.62063
5.95508
8.21663
12.2579
19.8829
36.4241
87.3784
354.432
2427.37
1.67116
1.69008
1.7109
1.73311
1.75697
1.78241
1.80972
1.83893
1.87029
1.65404
1.63848
1.62455
1.61238
1.60253
1.59505
1.59118
1.59263
1.5977
1.60825
1.62759
1.65571
1.69403
1.7423
1.80148
1.87092
1.95146
2.04278
2.14802
2.27026
2.42036
2.6348
2.93568
3.33784
3.89691
4.72148
6.03222
8.25803
12.2453
19.8091
36.3873
88.1005
361.316
2469.53
1.65401
1.67154
1.69082
1.71159
1.73375
1.75752
1.78288
1.81008
1.83916
1.87037
1.63844
1.62448
1.61231
1.60241
1.5949
1.59102
1.59248
1.59761
1.60833
1.6281
1.65708
1.69697
1.74764
1.80997
1.88257
1.96601
2.0584
2.16076
2.27294
2.40106
2.56692
2.79413
3.0869
3.4771
4.02117
4.82759
6.11335
8.30317
12.2372
19.74
36.343
88.7792
367.793
2509.24
1.63842
1.65439
1.67232
1.69157
1.7123
1.7344
1.7581
1.78337
1.81045
1.8394
1.87046
1.62442
1.61225
1.6023
1.59478
1.59089
1.59234
1.59753
1.60843
1.6286
1.65841
1.69982
1.75299
1.81931
1.89665
1.98518
2.08232
2.18793
2.29917
2.41841
2.56452
2.7507
2.97265
3.25212
3.6262
4.15194
4.9376
6.19742
8.35128
12.2334
19.677
36.2989
89.4071
374.037
2547.11
1.62437
1.63882
1.6552
1.67314
1.69234
1.71303
1.73507
1.75869
1.78387
1.81084
1.83965
1.87055
1.61221
1.6022
1.59469
1.59077
1.59223
1.59747
1.60854
1.62908
1.65967
1.70252
1.75813
1.82853
1.91172
2.00745
2.11179
2.22468
2.34122
2.4618
2.60281
2.77323
2.95512
3.16818
3.43069
3.78362
4.28739
5.05037
6.28333
8.40146
12.2342
19.6204
36.2562
90.0134
379.914
2582.68
1.61217
1.62474
1.63967
1.65604
1.67397
1.69314
1.71378
1.73576
1.75929
1.78438
1.81123
1.83991
1.87064
1.6021
1.59461
1.59066
1.59213
1.59743
1.60864
1.62952
1.66086
1.70503
1.76299
1.83735
1.92651
2.03116
2.14545
2.26855
2.3948
2.52346
2.66991
2.84096
3.00963
3.17935
3.37631
3.61989
3.94758
4.42663
5.16467
6.37018
8.45319
12.2371
19.5699
36.22
90.5835
385.591
2616.64
1.60202
1.61254
1.62555
1.64054
1.65691
1.67483
1.69397
1.71456
1.73647
1.75992
1.7849
1.81163
1.84017
1.87073
1.59455
1.59056
1.59204
1.59739
1.60874
1.62993
1.66196
1.70735
1.76755
1.84567
1.94069
2.05459
2.18126
2.31851
2.45795
2.5998
2.7592
2.94243
3.11408
3.27297
3.42289
3.5958
3.81779
4.11751
4.5683
5.27965
6.4571
8.50567
12.2431
19.5255
36.1881
91.1401
390.919
2648.37
1.59451
1.60229
1.61335
1.62639
1.64144
1.65781
1.67571
1.69482
1.71535
1.73719
1.76056
1.78544
1.81204
1.84043
1.87082
1.59045
1.59196
1.59735
1.60883
1.63032
1.66297
1.70949
1.7718
1.85344
1.95417
2.07724
2.2168
2.37211
2.53018
2.68973
2.8683
3.07292
3.25981
3.42272
3.56239
3.68395
3.82484
4.0194
4.29097
4.71107
5.39408
6.54333
8.55833
12.2521
19.4868
36.1645
91.6673
396.07
2678.7
1.59037
1.59478
1.60292
1.61418
1.62726
1.64237
1.65874
1.67662
1.69569
1.71616
1.73794
1.76121
1.78599
1.81245
1.84068
1.8709
1.59187
1.59732
1.60892
1.63067
1.66389
1.71145
1.77573
1.86065
1.9669
2.09888
2.25135
2.4261
2.6086
2.79365
2.99754
3.23248
3.4452
3.62482
3.76734
3.87684
3.96043
4.06245
4.22341
4.46563
4.85328
5.5073
6.62825
8.61074
12.2632
19.4535
36.1449
92.1826
400.878
2706.84
1.59182
1.59035
1.59535
1.60356
1.61505
1.62817
1.64333
1.6597
1.67756
1.69659
1.717
1.73871
1.76188
1.78654
1.81285
1.84093
1.87098
1.59728
1.609
1.63099
1.66474
1.71324
1.77934
1.86732
1.97886
2.11936
2.28466
2.47947
2.68843
2.90813
3.14924
3.42471
3.6747
3.88309
4.04103
4.14873
4.21518
4.25031
4.30637
4.42848
4.6405
4.99474
5.61871
6.71138
8.66249
12.2758
19.4248
36.1335
92.6722
405.532
2733.8
1.59728
1.59168
1.59034
1.59593
1.60425
1.61595
1.62913
1.64432
1.66069
1.67852
1.69752
1.71786
1.7395
1.76255
1.78707
1.81323
1.84117
1.87106
1.60906
1.63128
1.66551
1.71488
1.78266
1.87346
1.99002
2.13859
2.31659
2.53165
2.76789
3.02679
3.32031
3.65651
3.9584
4.2104
4.397
4.51389
4.56829
4.5764
4.55165
4.55457
4.63304
4.81245
5.13437
5.72769
6.79229
8.71323
12.2897
19.4006
36.1249
93.1486
409.848
2758.65
1.60919
1.59691
1.59134
1.5903
1.59656
1.60501
1.61687
1.63013
1.64534
1.66172
1.67951
1.69847
1.71874
1.74028
1.7632
1.78759
1.81361
1.8414
1.87114
1.63152
1.66619
1.71637
1.78569
1.8791
2.00039
2.15654
2.34705
2.58207
2.84611
3.14784
3.50254
3.92637
4.31289
4.6309
4.86501
5.00328
5.05133
5.02829
4.95985
4.8627
4.80523
4.83643
4.98023
5.271
5.83367
6.87068
8.76269
12.3046
19.3802
36.1238
93.6018
414.037
2782.49
1.63183
1.60846
1.59594
1.59094
1.59038
1.59722
1.60584
1.61782
1.63117
1.64638
1.66278
1.68052
1.69945
1.71962
1.74104
1.76383
1.78809
1.81397
1.84162
1.87122
1.66678
1.71771
1.78845
1.88428
2.00998
2.17325
2.37594
2.63031
2.92264
3.2705
3.69261
4.22249
4.7446
5.18504
5.49884
5.67773
5.724
5.66314
5.53144
5.36498
5.18187
5.05678
5.03753
5.14336
5.40378
5.9362
6.94625
8.81066
12.32
19.3633
36.1255
94.0402
417.897
2801.65
1.66745
1.6305
1.60648
1.59487
1.59065
1.59062
1.59787
1.60674
1.6188
1.63226
1.64746
1.66387
1.68157
1.70042
1.72047
1.74177
1.76444
1.78858
1.81433
1.84184
1.87129
1.7189
1.79094
1.88903
2.01882
2.18877
2.4032
2.6761
2.99725
3.39362
3.88751
4.54106
5.24543
5.90527
6.38652
6.64157
6.69512
6.58216
6.35837
6.07981
5.79103
5.50763
5.30785
5.23525
5.30142
5.53213
6.03493
7.01886
8.85696
12.3359
19.3493
36.1296
94.4568
421.152
2817.8
1.72015
1.66544
1.6268
1.60435
1.59395
1.59037
1.59106
1.59853
1.6077
1.61981
1.63338
1.64857
1.66499
1.6826
1.70136
1.7213
1.74249
1.76504
1.78905
1.81467
1.84205
1.87136
1.79318
1.89335
2.02695
2.20317
2.42879
2.71936
3.06977
3.51568
4.08461
4.88208
5.82006
6.79389
7.602
8.05116
8.13719
7.95661
7.59448
7.1422
6.67364
6.23659
5.8384
5.55721
5.42868
5.45404
5.65563
6.12963
7.08834
8.90148
12.352
19.338
36.1373
94.8045
423.85
2835.25
1.79541
1.71725
1.65951
1.62289
1.60246
1.59311
1.59004
1.59163
1.59921
1.60873
1.62086
1.63455
1.64971
1.6661
1.68362
1.70228
1.72211
1.74319
1.76562
1.78951
1.81501
1.84225
1.87143
1.89729
2.03438
2.21652
2.45272
2.76014
3.13998
3.63515
4.28262
5.24705
6.47357
7.8571
9.14327
10.0231
10.2871
10.0382
9.48295
8.76634
8.01398
7.31063
6.69941
6.1725
5.80376
5.61711
5.60095
5.774
6.22007
7.15462
8.94412
12.3681
19.3287
36.146
95.0985
426.794
2854.31
1.90107
1.79142
1.70813
1.65332
1.61935
1.60072
1.59235
1.58975
1.59231
1.59992
1.60981
1.62196
1.63575
1.65085
1.66718
1.6846
1.70317
1.72289
1.74387
1.76618
1.78996
1.81533
1.84245
1.87147
2.04123
2.22885
2.47504
2.79856
3.20761
3.75091
4.48166
5.63703
7.20458
9.08978
11.0005
12.5328
13.3078
13.1589
12.3649
11.2739
10.0912
8.96712
7.98592
7.17641
6.50814
6.04648
5.79997
5.74195
5.88719
6.30639
7.21774
8.98485
12.384
19.3225
36.1545
95.4233
429.994
2875.02
2.04757
1.8957
1.7778
1.69871
1.64763
1.61604
1.59911
1.59166
1.58953
1.59306
1.6007
1.61094
1.6231
1.63694
1.65198
1.66824
1.68557
1.70404
1.72366
1.74452
1.76673
1.79039
1.81565
1.84255
1.87147
2.24031
2.4958
2.83473
3.27236
3.86238
4.68267
6.05127
8.00537
10.4738
13.1488
15.5506
17.1506
17.5491
16.6935
15.1107
13.3125
11.5531
9.99034
8.6927
7.66383
6.84339
6.28444
5.97682
5.87692
5.99476
6.38873
7.27771
9.02363
12.3976
19.3177
36.1651
95.7806
433.509
2897.77
2.2507
2.04061
1.87565
1.76386
1.68999
1.64224
1.61291
1.59761
1.59105
1.58942
1.59386
1.60155
1.61209
1.62425
1.63809
1.65307
1.66926
1.68651
1.70488
1.7244
1.74516
1.76726
1.79081
1.8158
1.84255
1.87147
2.51522
2.86877
3.33401
3.96953
4.88674
6.48703
8.8643
11.9843
15.5484
19.0311
21.7716
23.1473
22.8041
20.8895
18.2505
15.5711
13.1304
11.0696
9.42296
8.1575
7.17635
6.51681
6.14733
6.0059
6.09646
6.467
7.33457
9.05563
12.4094
19.3134
36.1785
96.1787
437.33
2922.48
2.53239
2.2416
2.01143
1.85539
1.75092
1.68168
1.63709
1.60997
1.59622
1.59054
1.58941
1.59469
1.60248
1.61322
1.6254
1.63922
1.65415
1.67026
1.68742
1.7057
1.72513
1.74579
1.76778
1.79102
1.8158
1.84255
1.87147
2.90096
3.39254
4.07278
5.09452
6.93993
9.76801
13.5938
18.1528
22.9076
27.1013
29.8995
30.6367
29.0955
25.7215
21.7459
18.0154
14.7988
12.1898
10.1682
8.6532
7.50516
6.74285
6.31123
6.12899
6.19252
6.54117
7.38129
9.08287
12.4226
19.3094
36.1956
96.6188
441.536
2949.68
2.92903
2.52081
2.19928
1.98234
1.83655
1.73853
1.67367
1.63216
1.6072
1.59495
1.59014
1.58953
1.59553
1.60348
1.61433
1.62654
1.64032
1.6552
1.67123
1.68831
1.7065
1.72583
1.74639
1.76804
1.79102
1.8158
1.84255
1.87147
3.44825
4.17298
5.30617
7.4044
10.7027
15.2751
20.9133
27.1013
33.0323
37.7022
40.129
39.6864
36.4094
31.1427
25.5488
20.6088
16.5337
13.3359
10.9203
9.14689
7.82809
6.96191
6.46838
6.24618
6.28316
6.60205
7.42094
9.11277
12.4376
19.3066
36.2172
97.1106
446.126
2979.18
3.49628
2.91406
2.45934
2.1577
1.95523
1.81845
1.72654
1.66597
1.62744
1.60463
1.59381
1.58984
1.58985
1.59633
1.60451
1.61541
1.62766
1.64139
1.65622
1.67217
1.68918
1.70727
1.72652
1.74669
1.76804
1.79102
1.8158
1.84255
1.87147
4.27096
5.5199
7.87452
11.6546
17.0015
23.7815
31.5288
39.4334
46.3846
51.1298
52.595
50.3092
44.6941
37.0874
29.6054
23.3136
18.3114
14.4942
11.6718
9.63487
8.14357
7.17347
6.61868
6.35751
6.35734
6.65368
7.46436
9.14565
12.4544
19.3042
36.2442
97.6575
451.198
3011.72
4.35674
3.4774
2.82348
2.39992
2.11892
1.92915
1.80092
1.71497
1.65856
1.62294
1.60229
1.59278
1.58957
1.59041
1.5971
1.60556
1.61646
1.62876
1.64243
1.65722
1.67309
1.69002
1.70803
1.72686
1.74669
1.76804
1.79102
1.8158
1.84255
1.87143
5.73272
8.34598
12.6113
18.7479
26.711
36.1072
46.1639
55.7322
63.3734
67.6065
67.3565
62.4574
53.8622
43.4755
33.858
26.0933
20.1102
15.6525
12.4161
10.1139
8.45028
7.37712
6.7621
6.44915
6.42015
6.71016
7.51194
9.18183
12.4735
19.3044
36.2783
98.2715
456.755
3046.9
4.33234
5.92015
3.33975
2.73791
2.34444
2.08157
1.90386
1.78395
1.70379
1.65145
1.61863
1.60013
1.59186
1.58925
1.5911
1.59786
1.60661
1.6175
1.62984
1.64345
1.6582
1.67399
1.69084
1.7084
1.72686
1.74669
1.76804
1.79102
1.8158
1.84245
1.87136
8.81474
13.5622
20.4918
29.6586
40.7584
53.086
65.5146
76.5201
84.3227
87.2596
84.386
76.0226
63.7955
50.2164
38.2488
28.914
21.9111
16.8001
13.1475
10.5812
8.74717
7.57255
6.88067
6.52704
6.48878
6.77198
7.56411
9.22171
12.4951
19.3057
36.3204
98.9579
462.925
3085.77
4.10737
5.90065
9.23053
3.21411
2.65803
2.29101
2.04534
1.87934
1.76753
1.69304
1.64464
1.61458
1.59817
1.59107
1.58902
1.59184
1.59864
1.60765
1.61853
1.63089
1.64445
1.65915
1.67486
1.69125
1.7084
1.72686
1.74669
1.76804
1.79102
1.81565
1.84225
1.87129
14.4965
22.2143
32.5865
45.4116
60.0731
75.51
90.2049
102.225
109.448
110.106
103.565
90.842
74.3528
57.2147
42.7217
31.7447
23.6974
17.9281
13.8615
11.0347
9.03336
7.73491
6.98172
6.61246
6.56382
6.83968
7.62136
9.26569
12.5197
19.309
36.3728
99.7329
469.707
3127.57
3.90988
5.50281
9.23972
15.3275
3.09774
2.58112
2.23922
2.01021
1.85562
1.75171
1.68272
1.63817
1.61084
1.59647
1.59043
1.58891
1.59261
1.59943
1.60868
1.61954
1.63192
1.64543
1.66007
1.67529
1.69125
1.7084
1.72685
1.74669
1.76804
1.79081
1.81533
1.84204
1.87122
23.897
35.4638
50.0072
67.0152
85.5215
104.083
120.756
133.16
138.836
136.04
124.69
106.707
85.3778
64.3752
47.2249
34.5584
25.455
19.0297
14.5546
11.4727
9.27204
7.87374
7.0929
6.70624
6.64595
6.91387
7.68422
9.31427
12.5477
19.3161
36.4376
100.604
477.288
3173.83
3.73065
5.15649
8.51195
15.4093
25.4029
2.98614
2.50666
2.18905
1.97622
1.83274
1.73651
1.67288
1.63211
1.6075
1.59501
1.58993
1.58891
1.59337
1.60026
1.60967
1.62054
1.63292
1.64639
1.66053
1.67529
1.69124
1.70839
1.72685
1.74669
1.76778
1.79038
1.815
1.84183
1.87114
38.2618
54.499
73.8245
95.3858
117.856
139.391
157.572
169.508
172.434
164.839
147.477
123.376
96.7095
71.6075
51.7115
37.3315
27.1728
20.0992
15.2242
11.8385
9.47656
8.02695
7.21535
6.80931
6.73592
6.9952
7.7533
9.36798
12.5798
19.327
36.5173
101.594
485.63
3223.16
3.56176
4.84353
7.86447
14.1567
25.6652
40.7721
2.87844
2.43466
2.14056
1.94345
1.81074
1.72196
1.6636
1.62662
1.60459
1.59377
1.58957
1.58903
1.59411
1.60111
1.61064
1.62153
1.6339
1.64686
1.66052
1.67528
1.69124
1.70839
1.72685
1.74639
1.76725
1.78994
1.81466
1.84161
1.87106
58.8452
80.4373
104.981
131.293
157.696
181.91
200.94
211.308
210.041
196.159
171.583
140.592
108.191
78.8285
56.1407
40.0452
28.8419
21.1326
15.7834
12.1522
9.70275
8.19625
7.35039
6.9227
6.83458
7.08443
7.82924
9.42745
12.6164
19.343
36.616
102.712
495.052
3277.86
3.40129
4.5515
7.27142
13.0039
23.7176
41.3656
62.7418
2.77457
2.36523
2.09385
1.91196
1.78969
1.70822
1.65512
1.62174
1.60206
1.59272
1.58933
1.5893
1.59482
1.60198
1.61159
1.62253
1.63438
1.64684
1.66052
1.67528
1.69124
1.70839
1.72651
1.74577
1.76671
1.78949
1.81431
1.84139
1.87098
86.7974
114.226
144.23
175.345
205.544
232.017
251.027
258.446
251.301
229.555
196.623
158.096
119.677
85.9649
60.4788
42.6841
30.4555
21.9958
16.2629
12.4992
9.95316
8.38354
7.49949
7.04757
6.94287
7.18237
7.9128
9.49332
12.6584
19.3653
36.7358
103.975
505.388
3335.45
3.2488
4.27736
6.71506
11.9229
21.8883
38.5282
63.8541
92.4774
2.67462
2.29852
2.04903
1.88184
1.76977
1.69563
1.64754
1.6174
1.59988
1.59184
1.58913
1.58975
1.5955
1.60287
1.61255
1.62301
1.63435
1.64684
1.66051
1.67528
1.69124
1.70801
1.72581
1.74514
1.76616
1.78903
1.81396
1.84116
1.8709
123.052
156.577
192.13
228.022
261.832
290.016
307.873
310.637
295.71
264.502
222.197
175.642
131.035
92.9559
64.6987
45.2365
31.8039
22.7358
16.7932
12.8835
10.2307
8.591
7.6643
7.18523
7.06184
7.28993
8.00474
9.56642
12.7066
19.3951
36.8852
105.356
517.236
3410.48
3.10407
4.02086
6.19104
10.8931
20.134
35.8354
59.924
94.3054
130.875
2.57876
2.23473
2.00622
1.85336
1.7515
1.68432
1.64076
1.61353
1.59802
1.5911
1.5889
1.5903
1.59618
1.60381
1.61299
1.62298
1.63435
1.64684
1.66051
1.67528
1.69083
1.70725
1.7251
1.7445
1.76559
1.78856
1.81359
1.84092
1.87081
168.257
207.959
249.085
289.754
326.976
356.15
371.376
367.416
342.628
300.428
247.913
193.005
142.156
99.7523
68.7793
47.3698
32.9602
23.5543
17.3803
13.3095
10.5386
8.82103
7.84671
7.33717
7.19269
7.40816
8.10605
9.64752
12.762
19.4351
37.0622
106.944
532.396
3500.24
2.96679
3.78245
5.70005
9.91008
18.4279
33.2155
56.1891
89.0616
133.582
178.484
2.48725
2.17399
1.9658
1.82726
1.73509
1.67419
1.63469
1.61008
1.59644
1.59049
1.58872
1.59091
1.59694
1.60427
1.61292
1.62298
1.63435
1.64683
1.66051
1.67484
1.68999
1.70646
1.72437
1.74384
1.76501
1.78807
1.81322
1.84068
1.87073
222.765
268.659
315.459
361.013
401.43
430.607
441.264
428.129
391.314
336.744
273.403
209.996
152.952
106.315
72.1874
49.1989
34.239
24.4603
18.0308
13.7821
10.8805
9.07637
8.04881
7.50501
7.33674
7.53808
8.21747
9.73766
12.826
19.4859
37.2832
109.023
552.163
3590.09
2.83641
3.56334
5.24356
8.97968
16.76
30.6318
52.5269
84.1141
126.759
182.142
235.494
2.40043
2.11683
1.92882
1.80382
1.72035
1.66509
1.62926
1.60706
1.59509
1.58998
1.58866
1.59166
1.59723
1.60421
1.61291
1.62298
1.63434
1.64684
1.66005
1.67395
1.68914
1.70566
1.72362
1.74316
1.76442
1.78757
1.81284
1.84043
1.87064
286.707
338.911
391.698
442.41
485.73
513.499
517.073
491.95
440.956
372.882
298.354
226.462
163.353
111.787
75.1077
51.2215
35.6546
25.4641
18.7522
14.3068
11.2604
9.36004
8.27294
7.69061
7.4955
7.68121
8.34071
9.83803
12.8995
19.5529
37.5884
111.798
573.717
3678.88
2.71272
3.36484
4.82279
8.10558
15.1315
28.0671
48.8859
79.2578
120.423
173.384
240.027
301.81
2.31913
2.06468
1.89567
1.78279
1.70712
1.65694
1.62443
1.60442
1.59393
1.5896
1.58886
1.592
1.59706
1.60423
1.6129
1.62297
1.63436
1.64636
1.65911
1.67304
1.68826
1.70483
1.72285
1.74246
1.7638
1.78706
1.81244
1.84017
1.87055
360.136
419.059
478.491
534.825
580.548
604.855
598.116
557.889
490.725
408.336
322.508
242.284
171.999
116.468
78.334
53.4594
37.2226
26.577
19.5528
14.8897
11.6828
9.67539
8.52171
7.89602
7.67051
7.83805
8.47716
9.94994
12.9851
19.6501
38.0384
114.87
597.327
3765.27
2.59682
3.18296
4.43818
7.28968
13.5554
25.5201
45.2345
74.421
114.242
165.444
228.823
306.924
377.21
2.24537
2.01806
1.86599
1.76392
1.69525
1.64965
1.62015
1.6021
1.59296
1.58956
1.58882
1.59187
1.59704
1.60422
1.6129
1.62299
1.63387
1.64538
1.65814
1.67211
1.68736
1.70398
1.72206
1.74174
1.76318
1.78653
1.81204
1.83991
1.87046
443.239
509.808
577.026
639.606
686.765
704.545
683.438
624.851
539.846
442.681
345.663
255.39
179.38
121.631
81.8992
55.9368
38.9607
27.8116
20.4417
15.5375
12.1527
10.0261
8.79796
8.12346
7.86393
8.00948
8.62804
10.075
13.1015
19.8013
38.557
118.412
622.793
3849.07
2.49163
3.01639
4.09122
6.53684
12.049
23.0019
41.5607
69.5486
108.119
157.806
218.98
292.535
382.333
461.577
2.17984
1.97641
1.8394
1.74699
1.68461
1.64314
1.61634
1.60011
1.59247
1.58938
1.58852
1.59191
1.59703
1.6042
1.61296
1.62249
1.63287
1.64439
1.65716
1.67116
1.68644
1.70311
1.72125
1.74101
1.76253
1.78599
1.81163
1.83965
1.87037
536.62
612.453
689.241
758.808
805.438
812.151
771.831
691.727
587.635
475.584
364.781
266.548
187.498
127.322
85.8395
58.68
40.8879
29.182
21.429
16.2576
12.6754
10.4163
9.10481
8.3754
8.07778
8.19733
8.79458
10.2402
13.2588
19.9824
39.1945
122.372
650.693
3927.88
2.39834
2.86708
3.78336
5.85329
10.6293
20.5313
37.8681
64.6084
101.966
150.343
209.71
280.346
363.678
465.829
555.226
2.12161
1.9392
1.8156
1.73182
1.67509
1.6373
1.61299
1.59884
1.59201
1.58901
1.58852
1.5919
1.59703
1.60424
1.61251
1.62147
1.63185
1.64338
1.65615
1.67018
1.6855
1.70222
1.72043
1.74025
1.76187
1.78544
1.81122
1.8394
1.87028
641.453
729.204
818.38
895.319
937.553
926.861
861.931
757.471
633.531
502.695
381.016
278.78
196.416
133.594
90.1932
61.7177
43.0255
30.7035
22.526
17.0581
13.2568
10.8502
9.4456
8.65443
8.31425
8.40329
9.01213
10.4496
13.4347
20.2091
39.9269
126.961
680.918
4002.4
2.31585
2.73439
3.52037
5.24663
9.31728
18.1304
34.1707
59.5851
95.7185
142.921
200.857
269.185
348.505
441.306
557.417
659.372
2.06984
1.90597
1.7943
1.71823
1.66653
1.63215
1.61065
1.5979
1.59151
1.58903
1.58851
1.59185
1.59718
1.60377
1.61153
1.62046
1.63081
1.64234
1.65511
1.66918
1.68453
1.7013
1.71958
1.73948
1.7612
1.7849
1.81082
1.83916
1.8702
759.968
864.481
969.713
1052.61
1083.78
1047.56
952.332
821.146
671.378
525.675
398.755
292.165
206.203
140.499
95.0011
65.081
45.3963
32.3928
23.7447
17.9478
13.9031
11.3324
9.82378
8.96347
8.57518
8.67124
9.28165
10.6732
13.6345
20.4745
40.8109
132.228
713.721
4069.23
2.24306
2.61588
3.30338
4.72935
8.13369
15.8242
30.4914
54.4759
89.3305
135.435
192.226
258.856
335.063
422.27
524.59
658.104
776.692
2.02377
1.87632
1.77524
1.70602
1.65893
1.62837
1.60906
1.59721
1.59156
1.58901
1.58847
1.59195
1.59686
1.6028
1.61056
1.61944
1.62975
1.64129
1.65405
1.66815
1.68354
1.70037
1.71871
1.73869
1.76054
1.78437
1.81044
1.83892
1.87012
897.489
1026.36
1150.41
1234.71
1244.75
1173.11
1041.57
873.955
703.451
550.718
418.088
306.782
216.923
148.09
100.306
68.8024
48.0248
34.2679
25.0982
18.9361
14.621
11.8676
10.2431
9.30496
8.91649
9.0014
9.56412
10.9128
13.8566
20.7968
41.8511
138.245
749.951
4128.85
2.17884
2.51029
3.11964
4.29894
7.10755
13.6614
26.8624
49.2893
82.7645
127.795
183.662
249.083
323.098
405.987
500.549
613.123
770.475
912.352
1.98278
1.84987
1.75812
1.69517
1.6532
1.62593
1.60811
1.59729
1.59154
1.58895
1.58874
1.5916
1.59608
1.60188
1.60957
1.61841
1.62866
1.64021
1.65297
1.6671
1.68254
1.6994
1.71783
1.73791
1.75989
1.78385
1.81006
1.8387
1.87004
1063.08
1226.41
1370.46
1447.28
1422.36
1301.86
1116.57
918.814
738.364
577.915
439.09
322.696
228.637
156.42
106.151
72.9157
50.9367
36.348
26.6002
20.0327
15.4172
12.461
10.7067
9.75222
9.33797
9.34597
9.85936
11.1674
14.1074
21.1761
43.0737
145.417
788.706
4180.34
2.12216
2.41669
2.96101
3.94371
6.24575
11.728
23.3515
44.0488
75.994
119.911
175.018
239.652
312.215
392.128
480.677
582.675
707.369
898.935
1076.93
1.94632
1.82619
1.74292
1.68684
1.64961
1.6247
1.60821
1.59726
1.59144
1.58928
1.58875
1.59082
1.59538
1.60099
1.60856
1.61737
1.62755
1.63911
1.65187
1.66602
1.6815
1.69842
1.71695
1.73715
1.75926
1.78336
1.8097
1.83847
1.86996
1272.44
1483.47
1647.15
1704
1618.55
1412.55
1180.62
967.688
776.19
607.323
461.814
339.961
241.397
165.538
112.577
77.4553
54.1589
38.653
28.2655
21.2481
16.299
13.1168
11.3141
10.3045
9.77748
9.70399
10.1662
11.4388
14.3871
21.6249
44.552
153.484
831.788
4216.89
2.07205
2.33419
2.82172
3.65135
5.53149
10.0645
20.0962
38.8318
69.0084
111.698
166.142
230.351
302.134
380.099
464.561
558.269
668.879
809.404
1052.41
1286.55
1.91377
1.80519
1.73104
1.68174
1.64799
1.62485
1.60817
1.59712
1.59189
1.58943
1.58851
1.59018
1.59468
1.60011
1.60753
1.61632
1.62642
1.63798
1.65075
1.66491
1.68046
1.69745
1.71611
1.73642
1.75865
1.78287
1.80935
1.83826
1.86989
1558.9
1841.45
2026.58
2028.93
1791.51
1507.57
1250.52
1020.57
816.932
638.951
486.282
358.611
255.245
175.487
119.626
82.4549
57.718
41.2033
30.1089
22.5929
17.273
13.9754
12.0631
10.8797
10.2325
10.0737
10.4843
11.7271
14.7012
22.1586
46.2688
163.447
880.33
4244.62
2.02756
2.26176
2.69799
3.41376
4.94494
8.66166
17.1821
33.8349
61.8681
103.082
156.872
220.959
292.562
369.543
451.265
539.456
638.795
761.036
925.209
1254.52
1584.85
1.88497
1.78862
1.72385
1.67967
1.6482
1.6248
1.60798
1.59774
1.59231
1.58943
1.58854
1.5896
1.59396
1.59926
1.60648
1.61526
1.62527
1.63683
1.64961
1.66379
1.67942
1.69651
1.71528
1.73571
1.75806
1.7824
1.809
1.83805
1.86982
2026.28
2421.9
2621.42
2316.55
1938.97
1610.75
1325.86
1077.28
860.495
672.75
512.474
378.649
270.203
186.3
127.33
87.9457
61.6401
44.0192
32.1455
24.077
18.5471
15.0331
12.8423
11.4739
10.6998
10.453
10.8115
12.0339
15.054
22.7832
48.3637
174.609
934.43
4252.68
1.98833
2.1981
2.5878
3.21744
4.46563
7.48911
14.6143
29.2081
54.8121
94.064
147.04
211.23
283.212
360.067
440.341
524.686
616.793
723.94
864.285
1067.98
1559.37
2136.23
1.86196
1.77879
1.7212
1.67998
1.64813
1.62454
1.60885
1.59863
1.59275
1.58977
1.58867
1.58911
1.5932
1.59844
1.60541
1.61418
1.62411
1.63564
1.64846
1.66267
1.67842
1.6956
1.71449
1.73502
1.75749
1.78195
1.80867
1.83784
1.86975
2889.66
3590.52
3106.13
2550.86
2094.76
1720.26
1405.88
1137.45
906.674
708.597
540.322
400.048
286.271
197.995
135.718
93.9551
65.9493
47.1202
34.3892
26.0168
20.1151
16.1324
13.6462
12.0826
11.1758
10.8396
11.146
12.3594
15.449
23.5259
50.853
188.944
991.975
4249.24
1.95676
2.14259
2.48982
3.05105
4.07687
6.52061
12.3987
24.9914
48.0534
84.8812
136.546
200.889
273.758
351.317
431.261
513.414
600.281
698.201
818.702
990.876
1271.48
2163.71
3330.13
1.8484
1.77548
1.72161
1.67989
1.64778
1.62566
1.61037
1.59984
1.59367
1.59024
1.58886
1.58878
1.59242
1.59764
1.60434
1.61307
1.62295
1.63444
1.64732
1.66159
1.67745
1.69471
1.71371
1.73435
1.75693
1.78151
1.80835
1.83765
1.86971
5040.27
4319.04
3447.08