/*--------------------------------*- C++ -*----------------------------------*\
  =========                 |
  \\      /  F ield         | OpenFOAM: The Open Source CFD Toolbox
   \\    /   O peration     | Website:  https://openfoam.org
    \\  /    A nd           | Version:  8
     \\/     M anipulation  |
\*---------------------------------------------------------------------------*/
FoamFile
{
    version     2.0;
    format      ascii;
    class       volScalarField;
    location    "0.03";
    object      epsilon;
}
// * * * * * * * * * * * * * * * * * * * * * * * * * * * * * * * * * * * * * //

dimensions      [0 2 -3 0 0 0 0];

internalField   nonuniform List<scalar> 
15677
(
59.7306
18.3651
52.6882
8.08424
26.026
50.2346
4.62275
13.3237
31.6581
50.5431
3.17445
7.74857
17.1297
37.3357
51.6409
2.48723
5.0536
10.0493
20.8524
42.6863
53.6767
2.1444
3.62721
6.47341
12.1826
24.575
47.6782
55.7475
1.97937
2.8225
4.53011
7.73421
14.2956
28.2706
52.0388
57.6643
1.91151
2.35322
3.40419
5.31488
8.92717
16.4354
31.7733
55.7082
59.3565
1.88407
2.08019
2.72429
3.91124
6.02805
10.1126
18.5489
34.9612
58.7216
60.8312
1.8705
1.93933
2.30749
3.05628
4.36143
6.71094
11.2826
20.5736
37.7756
61.1777
62.0996
1.86764
1.87827
2.05655
2.5213
3.34994
4.7783
7.36929
12.4214
22.4603
40.2184
63.159
63.2356
1.86863
1.84882
1.91658
2.18604
2.71355
3.61622
5.16926
8.00351
13.5057
24.1886
42.3022
64.7858
64.1853
1.86955
1.83866
1.85193
1.98259
2.30744
2.88697
3.86051
5.53751
8.60523
14.5257
25.7431
44.0911
66.0844
65.0092
1.86979
1.83692
1.82117
1.86776
2.0517
2.41851
3.0442
4.08557
5.88147
9.17359
15.4703
27.1423
45.5782
67.1294
65.7433
1.86979
1.83716
1.81058
1.8134
1.89835
2.11773
2.51936
3.18687
4.29212
6.20329
9.70325
16.3458
28.3614
46.8206
67.9869
66.4566
1.86975
1.8374
1.80829
1.78987
1.81551
1.93048
2.17903
2.61047
3.31605
4.48251
6.50129
10.1976
17.1312
29.4119
47.8581
68.7378
66.9738
1.86973
1.83747
1.80799
1.78289
1.77588
1.8216
1.96243
2.23501
2.69251
3.43355
4.65699
6.7775
10.646
17.8246
30.3152
48.7429
69.2979
67.4214
1.86972
1.83747
1.80799
1.78123
1.7617
1.76615
1.83167
1.99276
2.28575
2.76661
3.54018
4.81686
7.02721
11.0464
18.4358
31.0906
49.4136
69.7637
67.8186
1.86972
1.83745
1.808
1.78095
1.75728
1.74387
1.76017
1.84263
2.02108
2.33173
2.83343
3.63674
4.95991
7.25028
11.4035
18.9622
31.6979
49.9396
70.1363
68.2574
1.86972
1.83743
1.80798
1.78094
1.75606
1.7358
1.72914
1.75671
1.85409
2.04729
2.37322
2.8934
3.72228
5.08716
7.44905
11.7067
19.3866
32.1712
50.3228
70.4948
68.593
1.86972
1.83741
1.80796
1.78096
1.75578
1.73305
1.71679
1.71724
1.7556
1.86552
2.07125
2.41029
2.94615
3.79797
5.19954
7.61424
11.9549
19.7186
32.5033
50.6301
70.7694
68.9498
1.86972
1.8374
1.80794
1.78095
1.75572
1.73219
1.71208
1.70045
1.70807
1.75583
1.87647
2.09272
2.44283
2.99272
3.86428
5.29154
7.74939
12.149
19.9411
32.7528
50.8408
71.0371
69.2122
1.86972
1.8374
1.80792
1.78094
1.7557
1.73193
1.71039
1.69353
1.6868
1.70105
1.75674
1.88648
2.11166
2.47167
3.03344
3.91841
5.36572
7.85382
12.2708
20.1121
32.9265
50.9684
71.2215
69.5382
1.86972
1.83739
1.80791
1.78092
1.75568
1.73183
1.70979
1.69084
1.67754
1.67553
1.69575
1.75801
1.89556
2.12875
2.49706
3.06689
3.9613
5.42209
7.91688
12.3683
20.2233
32.9696
50.9965
71.4412
69.7792
1.86972
1.83739
1.8079
1.78091
1.75565
1.73177
1.70956
1.68981
1.67371
1.66388
1.66637
1.69099
1.7596
1.90416
2.14404
2.51827
3.09346
3.9943
5.45757
7.96771
12.4203
20.2287
32.9506
50.9914
71.6111
70.0789
1.86972
1.83739
1.8079
1.7809
1.75563
1.73172
1.70944
1.6894
1.67218
1.65881
1.65245
1.65802
1.6873
1.76174
1.91217
2.15739
2.53588
3.1151
4.01748
5.48431
7.99105
12.4172
20.2062
32.8938
50.9596
71.83
70.3341
1.86972
1.83739
1.80789
1.78089
1.75561
1.73168
1.70935
1.6892
1.67154
1.65667
1.64615
1.64203
1.6506
1.68516
1.76415
1.91996
2.16945
2.55145
3.13236
4.03513
5.49939
7.98859
12.3978
20.1488
32.7772
50.8968
72.0188
70.5723
1.86972
1.83739
1.80788
1.78088
1.7556
1.73165
1.70929
1.68907
1.67124
1.65576
1.6434
1.63463
1.63216
1.64612
1.68366
1.7677
1.92813
2.18148
2.56595
3.1476
4.0484
5.50109
7.97791
12.3543
20.0386
32.6219
50.8069
72.2494
391.471
1.86972
1.83739
1.80788
1.78087
1.75559
1.73163
1.70925
1.68898
1.67106
1.65533
1.6422
1.63134
1.62327
1.62605
1.64132
1.68446
1.77294
1.9378
2.19455
2.58099
3.1621
4.05757
5.49957
7.95508
12.2851
19.902
32.4381
50.7007
82.9373
491.269
1.86972
1.83739
1.80787
1.78086
1.75558
1.73161
1.70921
1.68891
1.67094
1.65509
1.64163
1.62987
1.61913
1.61604
1.61975
1.64042
1.68729
1.78067
1.94991
2.20993
2.59754
3.17692
4.06586
5.49528
7.92304
12.2015
19.745
32.2447
50.9294
94.2089
730.709
1.86972
1.83739
1.80787
1.78085
1.75557
1.7316
1.70918
1.68885
1.67084
1.65492
1.64132
1.62917
1.6172
1.61118
1.60909
1.61664
1.6421
1.6933
1.79199
1.96569
2.22854
2.61701
3.19372
4.07541
5.4895
7.88576
12.1091
19.5813
32.0509
51.508
119.402
994.409
1.86972
1.83739
1.80786
1.78085
1.75556
1.73159
1.70916
1.6888
1.67076
1.65479
1.64112
1.62879
1.61625
1.60883
1.60395
1.60435
1.61785
1.64701
1.70408
1.80813
1.98614
2.2519
2.64067
3.21461
4.08811
5.48404
7.84879
12.0165
19.4121
31.8752
53.3737
148.757
1235.72
1.86972
1.83739
1.80786
1.78084
1.75556
1.73158
1.70914
1.68876
1.67069
1.65468
1.64095
1.62853
1.61571
1.60764
1.60145
1.59818
1.60526
1.62226
1.65691
1.72061
1.83016
2.01275
2.2811
2.67034
3.24085
4.10571
5.48508
7.81545
11.9246
19.2502
31.7259
56.5361
175.518
1453.23
1.86972
1.83739
1.80785
1.78083
1.75556
1.73158
1.70913
1.68873
1.67064
1.65459
1.64082
1.62834
1.61536
1.60699
1.60015
1.5951
1.59891
1.60938
1.63163
1.67382
1.74396
1.85956
2.04654
2.3178
2.70709
3.27447
4.12975
5.49049
7.78699
11.8403
19.0664
31.7336
59.6828
199.796
1645.23
1.83739
1.86976
1.80785
1.78083
1.75555
1.73158
1.70912
1.6887
1.67059
1.65451
1.6407
1.62817
1.6151
1.60657
1.5994
1.59349
1.59573
1.60289
1.61856
1.6489
1.69833
1.77575
1.89742
2.08925
2.36308
2.75274
3.31603
4.16245
5.5027
7.76652
11.7517
18.8919
31.7895
62.662
221.355
1816.28
1.80785
1.83749
1.86983
1.78082
1.75555
1.73158
1.70911
1.68868
1.67054
1.65444
1.64059
1.62804
1.61488
1.60627
1.59889
1.59258
1.59409
1.59969
1.61213
1.63613
1.67443
1.73203
1.81701
1.94546
2.14175
2.41852
2.80786
3.36769
4.20362
5.52586
7.75419
11.6744
18.7412
31.9115
65.305
240.751
1971.52
1.78081
1.808
1.8377
1.86991
1.75555
1.73158
1.70911
1.68866
1.67051
1.65438
1.64049
1.62792
1.6147
1.60602
1.5985
1.59201
1.5932
1.5981
1.60909
1.63
1.66271
1.70993
1.77619
1.86953
2.00456
2.20571
2.48494
2.8743
3.42916
4.25527
5.56203
7.75816
11.6112
18.6153
32.0348
67.7101
258.449
2112.56
1.75554
1.78101
1.8083
1.83791
1.86998
1.73158
1.70911
1.68865
1.67047
1.65433
1.64039
1.62781
1.61455
1.60582
1.59817
1.5916
1.59265
1.59729
1.60772
1.62737
1.65761
1.7
1.75691
1.83293
1.93455
2.07679
2.28172
2.56369
2.95183
3.50226
4.32409
5.61792
7.77262
11.5654
18.5028
32.1625
69.8816
273.759
2240.73
1.73159
1.7558
1.78142
1.80862
1.83812
1.87006
1.70911
1.68863
1.67044
1.65428
1.6403
1.62771
1.61443
1.60563
1.5979
1.59128
1.59227
1.59685
1.60718
1.62656
1.65611
1.69688
1.74993
1.81783
1.90367
2.01454
2.16301
2.37179
2.65486
3.04218
3.59578
4.41651
5.68896
7.80225
11.532
18.4154
32.2958
71.789
287.147
2355.99
1.70911
1.7319
1.75632
1.78184
1.80895
1.83834
1.87014
1.68862
1.67041
1.65424
1.64022
1.62763
1.61434
1.60547
1.59766
1.59103
1.59198
1.59658
1.60701
1.62655
1.65625
1.69696
1.7492
1.81465
1.89437
1.99154
2.11076
2.26574
2.47646
2.75963
3.15601
3.71712
4.52448
5.77335
7.84703
11.5203
18.3523
32.4243
73.4816
298.834
2460.25
1.68862
1.70946
1.73253
1.75685
1.78227
1.80928
1.83857
1.87023
1.67039
1.6542
1.64015
1.62754
1.61427
1.60532
1.59745
1.59082
1.59176
1.5964
1.60699
1.62691
1.65727
1.69888
1.75187
1.81756
1.89584
1.98865
2.0972
2.22662
2.38574
2.5978
2.89223
3.30029
3.85372
4.64649
5.86996
7.90499
11.524
18.305
32.5504
74.9445
309.164
2554.41
1.67037
1.68898
1.71017
1.73318
1.7574
1.78271
1.80962
1.83881
1.87031
1.65417
1.64008
1.62746
1.61422
1.60517
1.59727
1.59065
1.59159
1.59628
1.60705
1.62739
1.65857
1.70164
1.75647
1.82417
1.90409
1.99716
2.1026
2.22323
2.36138
2.52616
2.752
3.06189
3.46358
4.0057
4.78083
5.97778
7.97486
11.5363
18.2761
32.6549
76.2117
318.313
2640.8
1.65414
1.67072
1.68972
1.7109
1.73384
1.75796
1.78316
1.80997
1.83905
1.8704
1.64002
1.62739
1.61419
1.60504
1.59712
1.59051
1.59145
1.59621
1.60715
1.62792
1.65995
1.70459
1.76189
1.83287
1.91627
2.0129
2.1206
2.24037
2.37093
2.51768
2.70392
2.95102
3.25502
3.64579
4.17163
4.92621
6.09548
8.05392
11.5614
18.2521
32.7457
77.3087
326.551
2719.94
1.63996
1.65449
1.67147
1.69049
1.71166
1.73453
1.75853
1.78362
1.81034
1.8393
1.87049
1.62732
1.61418
1.6049
1.597
1.5904
1.59135
1.59616
1.60727
1.62844
1.6613
1.70748
1.76732
1.84241
1.93082
2.03305
2.14644
2.27108
2.40316
2.54476
2.71622
2.93044
3.17771
3.4715
3.84516
4.35077
5.08154
6.22126
8.14036
11.5957
18.2378
32.8283
78.2704
334.097
2793.52
1.62725
1.64028
1.65524
1.67225
1.69128
1.71244
1.73523
1.75912
1.78409
1.81071
1.83955
1.87058
1.61417
1.60477
1.59689
1.59031
1.59126
1.59613
1.60741
1.62895
1.66259
1.71023
1.77254
1.85181
1.94632
2.05618
2.17754
2.31083
2.45034
2.59647
2.76769
2.97383
3.18753
3.42798
3.71032
4.06184
4.54198
5.245
6.35306
8.23246
11.6365
18.2378
32.9038
79.1427
341.018
2861.39
1.61417
1.62759
1.641
1.65602
1.67305
1.6921
1.71324
1.73595
1.75973
1.78458
1.81109
1.83981
1.87067
1.60465
1.59681
1.59023
1.5912
1.59612
1.60755
1.62943
1.6638
1.71278
1.77746
1.86077
1.96145
2.08061
2.21267
2.35736
2.50846
2.66555
2.84655
3.05988
3.27058
3.47672
3.70079
3.96598
4.29332
4.743
5.41481
6.4894
8.32873
11.684
18.2418
32.9762
79.9242
347.514
2924.8
1.60454
1.61461
1.62835
1.64173
1.65682
1.67387
1.69295
1.71407
1.73669
1.76034
1.78508
1.81149
1.84008
1.87077
1.59674
1.59016
1.59114
1.59612
1.60769
1.62988
1.66493
1.71514
1.78206
1.86919
1.97586
2.10455
2.24971
2.4097
2.57573
2.74873
2.94679
3.17857
3.40055
3.60768
3.79709
3.99613
4.23578
4.53726
4.9525
5.58975
6.62877
8.42837
11.7369
18.2514
33.047
80.6643
353.478
2983.22
1.5967
1.60477
1.61551
1.62911
1.64249
1.65765
1.67473
1.69383
1.71492
1.73745
1.76098
1.78559
1.81189
1.84035
1.87085
1.59009
1.59109
1.59612
1.60782
1.63029
1.66597
1.7173
1.78632
1.87702
1.98947
2.12755
2.28617
2.46528
2.65173
2.84506
3.06637
3.32585
3.57127
3.79269
3.98557
4.14749
4.31247
4.51788
4.78948
5.16883
5.76815
6.77028
8.53041
11.7939
18.2696
33.1216
81.3242
359.149
3037.91
1.59003
1.59701
1.60536
1.61643
1.62989
1.64329
1.65851
1.67561
1.69474
1.7158
1.73823
1.76162
1.78611
1.8123
1.84061
1.87094
1.59105
1.59613
1.60794
1.63067
1.66692
1.71928
1.79025
1.88425
2.00223
2.14938
2.32134
2.52068
2.73329
2.95495
3.20573
3.50213
3.78206
4.03083
4.23889
4.40441
4.52643
4.64732
4.81073
5.04582
5.38931
5.94857
6.91251
8.63383
11.8541
18.2938
33.193
81.9681
364.268
3088.07
1.59104
1.59014
1.59769
1.60596
1.61739
1.63068
1.64411
1.6594
1.67653
1.69568
1.7167
1.73903
1.76228
1.78663
1.81269
1.84086
1.87102
1.59613
1.60806
1.63102
1.66779
1.72107
1.79386
1.89089
2.01414
2.16992
2.35497
2.5749
2.81546
3.07451
3.36701
3.71098
4.03779
4.32716
4.56408
4.74213
4.8642
4.93206
4.9981
5.1126
5.30484
5.61135
6.12904
7.05465
8.73774
11.9168
18.322
33.2692
82.5222
369.213
3135.14
1.59617
1.59098
1.59037
1.59835
1.60662
1.61838
1.63148
1.64498
1.66032
1.67748
1.69665
1.71762
1.73983
1.76293
1.78714
1.81307
1.8411
1.8711
1.60815
1.63133
1.66857
1.72271
1.79715
1.89697
2.0252
2.18911
2.38694
2.62747
2.89653
3.19691
3.54616
3.95872
4.34821
4.69507
4.97654
5.1803
5.30628
5.36503
5.36242
5.36228
5.42089
5.56502
5.8339
6.30941
7.19589
8.84127
11.9808
18.3541
33.3371
83.0787
373.577
3178.16
1.6083
1.59584
1.59081
1.59062
1.59901
1.60735
1.61939
1.6323
1.64588
1.66127
1.67846
1.69766
1.71857
1.74063
1.76357
1.78764
1.81345
1.84134
1.87118
1.63159
1.66926
1.72419
1.80015
1.90254
2.03543
2.20693
2.41718
2.67794
2.97566
3.3202
3.73411
4.24206
4.72848
5.1577
5.50676
5.75307
5.89227
5.93633
5.90718
5.8156
5.7374
5.73325
5.8246
6.05333
6.48835
7.33534
8.94366
12.0454
18.3875
33.4101
83.5376
377.878
3218.68
1.63192
1.60756
1.59496
1.59052
1.59108
1.59966
1.60817
1.62041
1.63315
1.64681
1.66225
1.67948
1.69868
1.7195
1.74141
1.76418
1.78812
1.81381
1.84157
1.87126
1.66988
1.72552
1.80288
1.90763
2.04487
2.22343
2.4457
2.72598
3.05236
3.44358
3.9275
4.5475
5.18097
5.75187
6.20632
6.52257
6.68752
6.71549
6.63787
6.49095
6.28964
6.1211
6.04751
6.08278
6.26819
6.66436
7.47216
9.04423
12.1097
18.4231
33.4708
84.0181
381.608
3250.97
1.67056
1.6305
1.60558
1.59396
1.59017
1.59173
1.6003
1.60907
1.62143
1.63404
1.64779
1.66326
1.68054
1.69971
1.72041
1.74216
1.76478
1.78859
1.81416
1.84179
1.87133
1.72672
1.80533
1.91228
2.05354
2.23868
2.47248
2.7714
3.12644
3.56618
4.12365
4.87034
5.6927
6.50101
7.15591
7.58948
7.80352
7.81318
7.66486
7.41549
7.11605
6.78247
6.5111
6.36175
6.33822
6.47788
6.83635
7.60562
9.14243
12.1733
18.458
33.5377
84.3976
384.845
3277.93
1.72796
1.66833
1.62664
1.60346
1.5931
1.58987
1.59249
1.60094
1.61007
1.62245
1.63496
1.6488
1.66431
1.68159
1.7007
1.72129
1.74289
1.76536
1.78904
1.81451
1.84201
1.8714
1.80756
1.91649
2.06149
2.25277
2.49757
2.81415
3.19785
3.6869
4.32009
5.20955
6.26507
7.3981
8.41389
9.09832
9.40741
9.40524
9.15654
8.75038
8.27103
7.78099
7.29168
6.90518
6.67426
6.58951
6.68181
7.0035
7.73514
9.2378
12.2356
18.4941
33.59
84.7541
387.341
3306.93
1.80977
1.72467
1.66196
1.62257
1.60157
1.59234
1.58966
1.59334
1.60158
1.61115
1.62346
1.63592
1.64985
1.66536
1.68262
1.70168
1.72214
1.74359
1.76592
1.78949
1.81484
1.84222
1.87147
1.92039
2.06877
2.26577
2.52099
2.85428
3.26655
3.80465
4.51541
5.56588
6.90177
8.44543
9.96429
11.1411
11.718
11.7353
11.3624
10.73
9.97393
9.20234
8.48263
7.81445
7.30117
6.98347
6.83551
6.87948
7.16519
7.86025
9.33001
12.2964
18.5284
33.6415
85.0025
390.236
3338.23
1.92411
1.80519
1.71476
1.65531
1.61885
1.59986
1.59168
1.58955
1.59424
1.60227
1.61229
1.62448
1.63693
1.6509
1.66638
1.68363
1.70262
1.72297
1.74428
1.76647
1.78992
1.81517
1.84242
1.87151
2.07551
2.27777
2.5428
2.89193
3.33245
3.91854
4.70942
5.94041
7.60229
9.63793
11.7915
13.6695
14.8582
15.1074
14.6112
13.6837
12.5299
11.3286
10.2031
9.21621
8.34755
7.69692
7.28798
7.07529
7.07043
7.32097
7.98067
9.41881
12.3551
18.5587
33.676
85.3235
393.128
3372.07
2.08177
1.91787
1.7903
1.70448
1.64912
1.61543
1.5983
1.59113
1.58955
1.59516
1.60303
1.61349
1.62549
1.63795
1.65193
1.66739
1.68462
1.70354
1.72377
1.74494
1.767
1.79035
1.81549
1.84252
1.87151
2.28902
2.56311
2.92724
3.39547
4.02805
4.9027
6.33323
8.3612
10.96
13.8692
16.6404
18.7367
19.6877
19.3142
18.0391
16.355
14.5388
12.8001
11.2634
9.97559
8.88737
8.09034
7.58658
7.30808
7.25432
7.47053
8.09611
9.50402
12.4045
18.5838
33.7245
85.6034
396.548
3408.75
2.29922
2.07359
1.89594
1.77502
1.69486
1.64333
1.61225
1.59687
1.59069
1.58967
1.59609
1.60388
1.6147
1.62649
1.63897
1.65294
1.66838
1.68558
1.70443
1.72455
1.74558
1.76752
1.79076
1.81564
1.84252
1.87151
2.58223
2.96043
3.45554
4.13297
5.09611
6.74292
9.16958
12.39
16.1597
20.0021
23.2815
25.3413
25.7074
24.3491
21.9974
19.3459
16.73
14.3693
12.3712
10.7537
9.43015
8.47946
7.87816
7.53326
7.43092
7.61378
8.20662
9.57486
12.4468
18.6135
33.763
85.9831
399.959
3448.48
2.59917
2.28856
2.04167
1.8737
1.76068
1.68578
1.63784
1.60928
1.59558
1.59038
1.58995
1.59697
1.60485
1.61588
1.62747
1.63998
1.65392
1.66936
1.68653
1.7053
1.7253
1.74621
1.76803
1.79096
1.81564
1.84253
1.87151
2.99192
3.51274
4.23356
5.29037
7.16666
10.0167
13.9048
18.6212
23.6894
28.4096
31.9641
33.6135
32.9532
30.1921
26.445
22.6157
19.0715
16.0145
13.5133
11.5432
9.97218
8.8624
8.16178
7.75039
7.60008
7.7503
8.29841
9.63546
12.4939
18.6447
33.8231
86.3067
404.019
3491.68
3.01943
2.58551
2.24221
2.00976
1.85283
1.74707
1.6771
1.63259
1.60656
1.59443
1.59017
1.59047
1.59781
1.6059
1.617
1.62843
1.64097
1.65489
1.67031
1.68744
1.70614
1.72603
1.74681
1.76828
1.79096
1.81564
1.84253
1.87151
3.56742
4.3304
5.48605
7.60061
10.8909
15.4806
21.2115
27.6319
34.0151
39.4276
42.8874
43.6312
41.418
36.795
31.3264
26.1175
21.5295
17.7135
14.6763
12.3369
10.5098
9.23743
8.43666
7.95915
7.7618
7.86269
8.37688
9.70241
12.5461
18.6828
33.868
86.7634
408.097
3538.47
3.61461
3.00152
2.51832
2.19659
1.97982
1.83295
1.73399
1.66877
1.62757
1.60406
1.59339
1.58991
1.59123
1.5986
1.607
1.61806
1.62938
1.64195
1.65584
1.67124
1.68834
1.70695
1.72673
1.74711
1.76827
1.79096
1.81564
1.84252
1.87151
4.42422
5.68336
8.04054
11.7808
17.0947
23.8895
31.7588
39.9829
47.5641
53.3346
56.1848
55.4119
51.0509
44.0849
36.5756
29.8017
24.0701
19.4451
15.8479
13.1278
11.0397
9.60308
8.70218
8.1593
7.89584
7.95829
8.4634
9.77646
12.6046
18.7222
33.945
87.1488
412.983
3589.56
4.50561
3.59211
2.90276
2.45324
2.15389
1.95125
1.8138
1.72139
1.66078
1.62282
1.60177
1.59247
1.58964
1.59211
1.59936
1.60812
1.61907
1.63032
1.64291
1.65677
1.67215
1.68921
1.70774
1.72709
1.74711
1.76827
1.79096
1.81564
1.84252
1.87147
5.8817
8.48196
12.6754
18.7252
26.616
36.002
46.1968
56.1875
64.694
70.3279
71.9105
68.9086
61.7589
51.9693
42.1205
33.6182
26.6614
21.1897
17.0168
13.9099
11.559
9.95809
8.95782
8.3255
8.01032
8.06322
8.55892
9.85856
12.6696
18.7723
34.0001
87.7119
417.98
3644.74
4.47504
6.05703
3.4439
2.80917
2.39241
2.11311
1.92369
1.7953
1.70926
1.65315
1.61837
1.59969
1.59168
1.58948
1.59301
1.60013
1.60924
1.62002
1.63126
1.64385
1.65768
1.67305
1.69006
1.70814
1.72709
1.74711
1.76827
1.79096
1.81564
1.84242
1.8714
8.9196
13.5646
20.3527
29.3544
40.2972
52.5466
65.1118
76.6732
85.6657
90.5066
90.0307
84.0096
73.4134
60.341
47.8858
37.5191
29.2741
22.9301
18.1729
14.6779
12.0651
10.3014
9.17092
8.46762
8.13645
8.17857
8.66447
9.94967
12.7432
18.8232
34.1022
88.1938
423.953
3705.33
4.23826
6.02933
9.30513
3.30746
2.72198
2.33433
2.07376
1.89703
1.77747
1.69765
1.64592
1.61426
1.59784
1.59104
1.58945
1.59391
1.60093
1.61034
1.62095
1.63219
1.64477
1.65857
1.67392
1.69048
1.70815
1.72709
1.74711
1.76827
1.79096
1.81548
1.84222
1.87133
14.4383
21.9598
32.0729
44.5865
58.9319
74.165
88.9834
101.754
110.625
113.861
110.421
100.545
85.857
69.0842
53.7972
41.4598
31.8823
24.6513
19.3081
15.4275
12.556
10.5886
9.35357
8.62447
8.27564
8.30556
8.78124
10.0511
12.8249
18.8904
34.1753
88.9083
430.204
3770.23
4.02839
5.62257
9.29717
15.2108
3.18125
2.63879
2.27829
2.03572
1.87132
1.76034
1.68656
1.63911
1.61051
1.59623
1.59056
1.58955
1.59477
1.60177
1.61141
1.62184
1.63311
1.64567
1.65945
1.67435
1.69048
1.70815
1.72709
1.74711
1.76828
1.79076
1.81516
1.842
1.87126
23.5292
34.7438
48.8212
65.266
83.1974
101.365
118.157
131.614
139.594
140.266
132.873
118.295
98.9127
78.081
59.7843
45.3998
34.4631
26.3408
20.4156
16.155
12.9676
10.8353
9.55564
8.79783
8.42943
8.44558
8.91057
10.164
12.9184
18.958
34.3156
89.5369
437.583
3841.92
3.83779
5.26689
8.56092
15.2665
24.9268
3.06115
2.55866
2.22417
1.99902
1.84659
1.74395
1.67603
1.63278
1.60719
1.59488
1.59024
1.58979
1.59557
1.60265
1.61243
1.62271
1.63403
1.64657
1.65988
1.67435
1.69049
1.70815
1.72709
1.74711
1.76803
1.79034
1.81483
1.84179
1.87118
37.3406
52.9612
71.48
92.0861
113.603
134.496
152.837
166.306
172.462
169.486
157.102
137.003
112.395
87.2172
65.7821
49.3035
36.9977
27.9888
21.4899
16.7651
13.3216
11.1088
9.77955
8.98975
8.59959
8.60023
9.05399
10.2901
13.0224
19.0501
34.4194
90.4608
445.445
3917.64
3.65895
4.946
7.909
14.0187
25.1412
39.6628
2.94577
2.48144
2.17202
1.96374
1.82289
1.72832
1.66617
1.62708
1.60432
1.59376
1.59004
1.59021
1.59631
1.60356
1.61342
1.62358
1.63494
1.647
1.65987
1.67435
1.69049
1.70815
1.72709
1.74681
1.76751
1.78991
1.8145
1.84156
1.8711
56.968
77.5204
100.74
125.532
150.47
173.751
193.094
205.746
208.99
201.182
182.758
156.392
126.121
96.3855
71.7321
53.1408
39.4707
29.5869
22.3903
17.2898
13.7145
11.4126
10.0281
9.20254
8.78813
8.77132
9.21326
10.431
13.1428
19.142
34.6166
91.2982
454.535
4001.5
3.48927
4.64768
7.316
12.8725
23.2069
40.1768
60.5559
2.83485
2.40722
2.12194
1.92993
1.80027
1.71362
1.65719
1.62201
1.60189
1.59281
1.58983
1.59081
1.59701
1.6045
1.61437
1.62446
1.63539
1.64697
1.65986
1.67435
1.69048
1.70814
1.72673
1.7462
1.76699
1.78947
1.81415
1.84133
1.87102
83.3356
109.095
137.041
165.865
193.945
219.193
238.871
249.721
248.813
234.92
209.456
176.18
139.915
105.489
77.5851
56.8868
41.8695
30.9259
23.1643
17.8722
14.1514
11.7505
10.3043
9.43883
8.99736
8.96093
9.39033
10.5891
13.2765
19.2699
34.7687
92.4797
464.399
4088.86
3.32805
4.36815
6.76265
11.8046
21.397
37.3782
61.5483
88.5363
2.7285
2.33611
2.07402
1.89768
1.77894
1.70018
1.64919
1.61751
1.59981
1.59202
1.58961
1.59149
1.59769
1.60546
1.61533
1.62486
1.63536
1.64697
1.65986
1.67435
1.69048
1.70774
1.72601
1.74557
1.76645
1.78903
1.8138
1.84109
1.87094
117.088
148.061
180.557
213.148
244.044
270.778
290.002
297.883
291.443
270.199
236.788
196.095
153.616
114.445
83.2999
60.5212
43.8793
32.0766
24.0231
18.5195
14.6376
12.1267
10.6118
9.70166
9.2299
9.17142
9.58755
10.7659
13.4332
19.3975
35.0416
93.4931
475.463
4202.31
3.17485
4.10732
6.24283
10.7928
19.6738
34.7321
57.718
90.2006
124.207
2.62693
2.26826
2.02837
1.86726
1.75943
1.68816
1.64205
1.61354
1.59804
1.59138
1.58947
1.5922
1.59838
1.6065
1.61578
1.62479
1.63535
1.64697
1.65987
1.67435
1.69005
1.70694
1.72528
1.74492
1.7659
1.78857
1.81343
1.84085
1.87085
158.523
194.483
231.232
267.311
300.705
328.387
346.206
349.75
336.29
306.472
264.35
215.882
167.088
123.184
88.8427
63.5661
45.6066
33.3532
24.9771
19.2397
15.1794
12.5463
10.9547
9.99443
9.48872
9.40552
9.80736
10.9653
13.6069
19.5743
35.2657
94.8401
490.257
4338.53
3.02928
3.86703
5.75635
9.82992
18.0071
32.1761
54.0889
85.1808
126.716
167.772
2.53034
2.20378
1.98538
1.83944
1.74194
1.67741
1.6357
1.61008
1.59654
1.59084
1.58941
1.59296
1.59919
1.607
1.6157
1.62477
1.63535
1.64697
1.65988
1.67392
1.68919
1.70612
1.72452
1.74425
1.76534
1.7881
1.81306
1.8406
1.87076
207.584
248.167
288.873
328.225
363.833
391.842
407.091
404.718
382.686
343.177
291.76
235.322
180.216
131.65
93.4832
66.1827
47.5228
34.7709
26.0379
20.0417
15.7837
13.0148
11.3375
10.321
9.77722
9.66629
10.0529
11.1886
13.8118
19.7555
35.6079
96.348
508.622
4478.18
2.89136
3.64529
5.30336
8.91864
16.3849
29.667
50.555
80.4546
120.345
171.233
219.029
2.43893
2.14323
1.94613
1.81451
1.72628
1.6678
1.63007
1.60707
1.59525
1.59042
1.58951
1.59388
1.59949
1.60695
1.6157
1.62477
1.63536
1.647
1.65945
1.67303
1.68831
1.70527
1.72374
1.74357
1.76476
1.78762
1.81268
1.84034
1.87067
263.916
308.762
353.24
395.779
433.36
460.931
472.16
462.068
429.909
379.768
318.683
254.234
192.907
138.726
97.4683
69.0845
49.6503
36.3468
27.2184
20.9357
16.4585
13.5384
11.7653
10.6859
10.0992
9.95724
10.3272
11.4413
14.04
19.991
36.0078
98.1742
532.17
4615.92
2.76116
3.44026
4.88524
8.06561
14.8077
27.1846
47.053
75.8451
114.435
163.316
223.442
277.441
2.35345
2.08808
1.91101
1.79218
1.71225
1.65922
1.62508
1.60443
1.59413
1.59019
1.58993
1.59431
1.59927
1.60697
1.6157
1.62479
1.63539
1.64656
1.65856
1.67213
1.68741
1.7044
1.72294
1.74286
1.76416
1.78713
1.81229
1.84008
1.87058
326.995
375.888
424.175
470.036
509.357
535.434
540.8
520.975
477.224
415.751
344.836
272.468
203.485
144.794
101.883
72.3047
52.0146
38.0999
28.5332
21.9328
17.2123
14.124
12.2439
11.0938
10.459
10.2823
10.6346
11.7263
14.3079
20.3028
36.5209
100.863
554.798
4753.69
2.63965
3.25053
4.50286
7.27103
13.2832
24.7261
43.5474
71.2604
108.703
156.146
213.712
282.656
342.273
2.27598
2.03887
1.8796
1.77218
1.6997
1.65157
1.62065
1.6021
1.59329
1.59037
1.58999
1.59415
1.59924
1.60697
1.6157
1.62486
1.63494
1.64566
1.65765
1.67121
1.68649
1.7035
1.72211
1.74214
1.76355
1.78663
1.81189
1.83981
1.87049
396.282
449.298
501.809
551.373
592.08
615.105
612.25
580.542
523.942
450.705
369.994
287.618
212.536
151.504
106.777
75.8805
54.6436
40.0514
29.9985
23.0455
18.0548
14.7793
12.7796
11.5504
10.8614
10.6457
10.9762
12.0501
14.6697
20.7143
37.2823
102.923
584.192
4888.02
2.52978
3.07598
4.15653
6.53898
11.8293
22.3004
40.0245
66.6412
103.018
149.28
205.18
270.733
347.969
412.784
2.20718
1.99498
1.85151
1.75427
1.68847
1.64473
1.61668
1.60023
1.59305
1.59031
1.58962
1.59417
1.59924
1.60695
1.61578
1.62445
1.63401
1.64475
1.65674
1.67027
1.68555
1.70259
1.72126
1.74139
1.76292
1.78611
1.81149
1.83955
1.8704
471.396
529.084
586.68
640.508
681.906
699.571
685.593
639.868
569.45
484.289
390.829
300.546
222.519
158.923
112.201
79.8522
57.5681
42.2249
31.6321
24.2875
18.9965
15.5126
13.3794
12.0614
11.3114
11.0534
11.3575
12.4836
15.1399
21.238
37.9057
106.938
612.721
5019.97
2.43264
2.91874
3.84888
5.87393
10.4616
19.9246
36.4864
61.9534
97.2891
142.543
197.179
260.679
333.296
418.477
488.441
2.14608
1.95584
1.8264
1.73825
1.67839
1.63856
1.61334
1.59928
1.59272
1.58987
1.58961
1.59417
1.59927
1.607
1.61533
1.62356
1.63309
1.64382
1.65581
1.66932
1.68458
1.70164
1.72039
1.74062
1.76228
1.78559
1.81109
1.83929
1.87031
552.36
615.907
679.996
738.632
779.229
788.203
759.791
698.108
613.24
512.044
408.564
314.759
233.52
167.124
118.213
84.2638
60.822
44.6459
33.4536
25.6736
20.0488
16.333
14.0508
12.6332
11.8151
11.51
11.8628
13.037
15.6784
21.7682
39.1113
109.738
646.753
5147.43
2.34688
2.77914
3.58789
5.28227
9.19747
17.6201
32.9456
57.1811
91.4508
135.802
189.478
251.513
321.467
400.24
493.551
569.199
2.09178
1.92093
1.80394
1.72386
1.6693
1.6333
1.61122
1.59852
1.59212
1.58986
1.58961
1.59415
1.59949
1.60649
1.61435
1.62269
1.63216
1.64287
1.65486
1.66835
1.6836
1.70068
1.71949
1.73983
1.76162
1.78507
1.8107
1.83904
1.87022
639.93
711.411
783.99
847.51
884.345
880.152
833.803
754.524
649.448
535.623
427.996
330.359
245.629
176.18
124.872
89.1626
64.4416
47.3424
35.4839
27.2201
21.224
17.2501
14.8015
13.2727
12.3778
12.1161
12.5015
13.6419
16.2564
22.5119
40.0159
114.81
681.421
5268.1
2.2712
2.65524
3.36698
4.77455
8.0583
15.4103
29.4237
52.3206
85.4572
128.954
181.897
242.941
311.05
386.27
470.554
573.097
655.915
2.04351
1.88979
1.78379
1.71089
1.66148
1.62972
1.60974
1.59769
1.59213
1.58986
1.58962
1.59431
1.59919
1.60545
1.61339
1.62181
1.63123
1.64191
1.65389
1.66736
1.68259
1.69969
1.71856
1.73902
1.76096
1.78457
1.81033
1.8388
1.87014
736.068
818.802
902.314
969.407
997.391
974.589
906.644
801.439
680.209
561.399
449.242
347.448
258.933
186.167
132.241
94.598
68.4658
50.3441
37.7459
28.9438
22.5348
18.2735
15.6396
13.986
13.123
12.8796
13.1873
14.2906
16.9339
23.2305
41.5904
119.08
719.706
5383.03
2.20437
2.54556
3.17722
4.35148
7.06925
13.3387
25.9511
47.3799
79.2726
121.91
174.287
234.726
301.671
374.432
453.957
543.643
658.13
751.052
2.00061
1.86194
1.76566
1.69967
1.65591
1.62737
1.60856
1.59772
1.59213
1.58987
1.59
1.59388
1.59837
1.60448
1.6124
1.62091
1.63029
1.64094
1.6529
1.66636
1.68157
1.69868
1.71762
1.73822
1.76033
1.78408
1.80996
1.83856
1.87006
844.776
943.863
1040.54
1106.99
1119.23
1070.49
968.132
841.441
713.832
589.501
472.408
366.118
273.517
197.157
140.38
100.621
72.9348
53.6822
40.263
30.8625
23.9942
19.4135
16.5725
14.9283
14.0572
13.6921
13.9175
14.998
17.6478
24.1761
43.0203
125.634
764.009
5485.97
2.14531
2.44882
3.01195
4.00049
6.23833
11.4875
22.5921
42.3815
72.8721
114.589
166.513
226.671
293.02
364.249
440.435
523.86
619.73
751.748
859.92
1.96238
1.83695
1.74992
1.69148
1.65237
1.62582
1.60859
1.59772
1.59211
1.59031
1.58994
1.59295
1.59767
1.60354
1.61137
1.61999
1.62935
1.63995
1.6519
1.66534
1.68053
1.69765
1.71668
1.73743
1.75971
1.7836
1.80961
1.83833
1.86998
973.741
1096.8
1206.34
1267.37
1249.81
1153.69
1021.08
885.353
750.5
620.054
497.585
386.448
289.454
209.219
149.352
107.282
77.8895
57.3883
43.0593
32.9942
25.6156
20.679
17.8016
16.1037
15.0444
14.549
14.6929
15.7483
18.4557
25.1658
45.1303
132.5
807.627
5582.88
2.09295
2.36376
2.86628
3.71219
5.54798
9.89457
19.4785
37.4001
66.2461
106.91
158.435
218.593
284.855
355.32
429.384
508.309
596.2
700.637
860.736
994.152
1.9282
1.81525
1.73816
1.68641
1.65035
1.62587
1.60859
1.59769
1.59272
1.59039
1.58951
1.59218
1.59699
1.60262
1.6103
1.61903
1.6284
1.63895
1.65088
1.6643
1.67948
1.69664
1.71577
1.73667
1.7591
1.78314
1.80927
1.83811
1.86991
1138.32
1294.46
1423.95
1454.81
1367.58
1226.48
1079.9
933.551
790.417
653.169
524.847
408.498
306.801
222.411
159.209
114.629
83.3692
61.4936
46.1587
35.3566
27.4104
22.3414
19.3272
17.3382
16.0772
15.4448
15.5077
16.547
19.3308
26.3788
47.4641
140.777
862.241
5663.24
2.04636
2.28892
2.73724
3.47429
4.97756
8.55118
16.6927
32.6244
59.4539
98.8045
149.905
210.294
276.944
347.349
420.27
496.255
578.222
672.738
791.695
1001.43
1176.73
1.89853
1.79879
1.73099
1.68382
1.65042
1.62587
1.60856
1.59853
1.59307
1.5902
1.58942
1.59147
1.59629
1.60174
1.6092
1.61803
1.62745
1.63794
1.64985
1.66326
1.67845
1.69566
1.71489
1.73593
1.75851
1.78269
1.80893
1.8379
1.86983
1372.33
1596.39
1706.41
1630.34
1472.55
1308.92
1145.66
986.645
833.872
688.984
554.256
432.308
325.598
236.778
169.998
122.703
89.4098
66.0273
49.5837
37.9649
29.7615
24.3952
20.9211
18.6212
17.1468
16.3735
16.3548
17.3989
20.2926
27.7703
50.2766
151.079
916.361
5737.68
2.00597
2.22293
2.62281
3.27396
4.50977
7.4265
14.2383
28.2002
52.7258
90.277
140.767
201.552
269.04
340.055
412.73
486.976
564.961
651.924
758.298
905.172
1217.91
1472.62
1.87566
1.78896
1.72767
1.68394
1.65042
1.62582
1.60975
1.59931
1.59331
1.59044
1.58948
1.59079
1.59554
1.6009
1.60808
1.61698
1.62648
1.63693
1.6488
1.66223
1.67746
1.69471
1.71404
1.7352
1.75794
1.78225
1.80861
1.83769
1.86976
1786.63
2015.85
1973.22
1788.88
1595.43
1404.19
1220.59
1045.7
881.373
727.696
585.878
457.894
345.857
252.34
181.747
131.537
96.041
71.0144
53.3521
41.3713
32.6531
26.5313
22.5691
19.9412
18.2446
17.3255
17.2395
18.2903
21.3724
29.3379
53.6917
162.559
979.996
5791.67
1.97452
2.16611
2.52159
3.10169
4.12876
6.49627
12.1208
24.1666
46.2695
81.5557
130.93
192.113
260.859
333.159
406.436
480.017
555.472
637.168
734.28
864.549
1072.2
1649
2103.28
1.8621
1.7848
1.72785
1.68394
1.65035
1.62738
1.61127
1.60027
1.59417
1.59087
1.58963
1.5902
1.59474
1.60011
1.60697
1.61587
1.62549
1.63592
1.64777
1.66124
1.6765
1.6938
1.71321
1.7345
1.75738
1.78183
1.8083
1.83749
1.86972
2452.43
2474.81
2241.67
1997.05
1748.12
1522.82
1308.16