/*--------------------------------*- C++ -*----------------------------------*\
  =========                 |
  \\      /  F ield         | OpenFOAM: The Open Source CFD Toolbox
   \\    /   O peration     | Website:  https://openfoam.org
    \\  /    A nd           | Version:  8
     \\/     M anipulation  |
\*---------------------------------------------------------------------------*/
FoamFile
{
    version     2.0;
    format      ascii;
    class       volScalarField;
    location    "0.41";
    object      alphat;
}
// * * * * * * * * * * * * * * * * * * * * * * * * * * * * * * * * * * * * * //

dimensions      [1 -1 -1 0 0 0 0];

internalField   nonuniform List<scalar> 
15677
(
0.000622166
0.000811401
0.00335421
0.00597203
0.0082764
0.0104888
0.0127552
0.0152575
0.0182719
0.0221595
0.0272189
0.0331043
0.0399552
0.0453528
0.0461793
0.0453075
0.0426415
0.0385411
0.0338301
0.0274224
0.0196708
0.0141533
0.0108018
0.00875259
0.00741657
0.00646352
0.00572583
0.00515036
0.00469783
0.00433691
0.00404731
0.00381792
0.00364045
0.00350719
0.00340396
0.000952814
0.00809898
0.0214528
0.0367262
0.0509004
0.0617265
0.0693138
0.0739699
0.0769236
0.0793061
0.0810362
0.0808553
0.0801871
0.0803173
0.0816115
0.0807579
0.0785396
0.0745395
0.068848
0.0620719
0.0553545
0.0491422
0.0441158
0.0399254
0.0356608
0.0317772
0.0287699
0.0264208
0.0245733
0.023115
0.0219682
0.0210798
0.0204105
0.0199379
0.0196308
0.00102719
0.0100354
0.0235149
0.0375105
0.0508047
0.062939
0.073434
0.0819603
0.0880633
0.0911087
0.0904461
0.0864701
0.0812672
0.0787657
0.0788566
0.0811104
0.0808052
0.0794987
0.0771203
0.0747283
0.0714893
0.0684864
0.0670983
0.0664142
0.0659929
0.0653888
0.0645751
0.0637519
0.0629643
0.0622826
0.0616882
0.0612216
0.0609315
0.060789
0.0607724
0.000829995
0.00602791
0.014223
0.0227746
0.0310587
0.0386976
0.0453973
0.050801
0.0543538
0.0564905
0.0577864
0.0578747
0.0575568
0.057119
0.0572911
0.058452
0.0599147
0.0607201
0.0604495
0.0591419
0.0570724
0.0544569
0.0517493
0.0493576
0.047691
0.0469851
0.0472284
0.0479537
0.0485762
0.0492414
0.0496274
0.0499111
0.0501931
0.0505725
0.0510578
0.000653176
0.00573728
0.012456
0.0192316
0.0258495
0.0322177
0.038099
0.0432506
0.0473067
0.0497338
0.0512605
0.0509354
0.0492587
0.0472116
0.0460959
0.0461412
0.0465133
0.046594
0.0458816
0.0444143
0.042202
0.0396403
0.0375933
0.0368818
0.0381712
0.0404399
0.0436132
0.0463565
0.0481014
0.0494808
0.0509255
0.0525961
0.0544511
0.0563914
0.0583243
0.000322069
0.00154895
0.00354145
0.00567663
0.00780538
0.00990919
0.0119125
0.0137716
0.0151141
0.0159473
0.0169313
0.0173291
0.0176236
0.0178786
0.0182772
0.0189055
0.019755
0.0207716
0.0219156
0.0232605
0.0249139
0.0269472
0.0293345
0.0317612
0.0342088
0.0370004
0.040007
0.0425809
0.0445702
0.046059
0.0471262
0.047914
0.0485793
0.0491925
0.0497374
0.000217431
0.000898728
0.0022924
0.00367975
0.00501253
0.00641354
0.00797786
0.00974382
0.0117332
0.0139723
0.0164887
0.0192345
0.022272
0.0256247
0.0289018
0.0318745
0.034662
0.0373873
0.0400177
0.0426751
0.0453599
0.0478738
0.0502023
0.0523314
0.0542418
0.0558783
0.0571764
0.0581347
0.0588486
0.0594389
0.0599438
0.0603496
0.060646
0.060857
0.061015
0.000187629
0.00117758
0.00290615
0.00493209
0.00719376
0.00966896
0.012348
0.015253
0.0184218
0.0219067
0.025765
0.0300327
0.034758
0.0398173
0.0446169
0.0488617
0.052674
0.0560572
0.0589897
0.0614041
0.0632281
0.0643239
0.0646867
0.0645199
0.0640339
0.0633654
0.0626253
0.0619225
0.0613301
0.0608251
0.0604374
0.0601752
0.0600339
0.0599608
0.0598906
0.000241346
0.00141664
0.00378798
0.00672248
0.0100626
0.0137653
0.0178153
0.0221991
0.0268959
0.0318737
0.0370848
0.0425036
0.0479786
0.0533839
0.0580921
0.0619137
0.0650405
0.0675066
0.0693216
0.0704915
0.0710418
0.0710584
0.0707474
0.0702967
0.0697874
0.0692648
0.0687619
0.0682055
0.0675905
0.0670004
0.0664672
0.0660006
0.0656024
0.0652679
0.0649888
0.000211315
0.00202678
0.00479331
0.00803168
0.0116668
0.0156725
0.0200333
0.0247338
0.0297496
0.0350431
0.040562
0.046274
0.0520033
0.0576609
0.0625911
0.0665953
0.0698581
0.0724097
0.0742596
0.0754184
0.075894
0.0756688
0.0749058
0.0737674
0.0724432
0.0710963
0.0698607
0.0687663
0.0678184
0.0670137
0.0663407
0.0657846
0.0653307
0.0649643
0.0646739
0.000252516
0.0018494
0.00472327
0.0082086
0.0121612
0.016536
0.0213096
0.0264559
0.0319386
0.0377063
0.0436913
0.0498361
0.0559453
0.0618984
0.0669628
0.0709757
0.0741553
0.0765485
0.0781982
0.0791373
0.0793993
0.0790409
0.0782688
0.0772588
0.0761112
0.0749242
0.073726
0.0725921
0.0715645
0.07065
0.0698458
0.0691434
0.0685317
0.0680001
0.0675375
0.000243769
0.00220255
0.00539889
0.00922361
0.0135215
0.0182317
0.0233084
0.0287041
0.0343638
0.0402236
0.0462164
0.0522708
0.0582671
0.0640905
0.0690642
0.073028
0.076197
0.0786251
0.0803233
0.0812938
0.0815423
0.0810968
0.0801589
0.0789289
0.0775553
0.0761443
0.0747796
0.0735055
0.0723415
0.0712914
0.0703541
0.0695268
0.0688031
0.0681747
0.0676328
0.000261518
0.00210628
0.00533624
0.00925146
0.0136798
0.0185574
0.0238371
0.0294661
0.0353778
0.0414876
0.0476956
0.0539071
0.0599853
0.0658119
0.0707382
0.0746397
0.0777469
0.0801137
0.0817725
0.0827399
0.0830202
0.0826436
0.0818156
0.0807078
0.0794502
0.0781358
0.0768204
0.0755485
0.0743503
0.0732475
0.0722499
0.0713589
0.0705705
0.0698744
0.0692599
0.000261522
0.00231542
0.00573097
0.0098312
0.0144446
0.0194962
0.024927
0.0306749
0.0366678
0.0428187
0.0490244
0.0551734
0.061145
0.0668247
0.0716042
0.0753949
0.0784371
0.0807968
0.0825001
0.0835333
0.0839088
0.0836393
0.0828815
0.0818113
0.0805654
0.0792488
0.0779329
0.0766648
0.0754731
0.0743733
0.0733711
0.0724661
0.0716537
0.0709272
0.0702787
0.000270923
0.00230963
0.00579618
0.00999826
0.0147286
0.019906
0.0254663
0.0313415
0.037449
0.0436897
0.049949
0.0561017
0.0620214
0.0675895
0.0722293
0.0758955
0.0788518
0.0811492
0.0828578
0.083977
0.0844793
0.0843509
0.0837411
0.0828138
0.0816993
0.0804937
0.0792671
0.0780676
0.0769262
0.075861
0.0748806
0.073987
0.0731781
0.0724493
0.071794
0.000273266
0.00243479
0.0060448
0.0103828
0.0152588
0.0205842
0.0262843
0.0322777
0.0384678
0.0447394
0.0509719
0.057035
0.0627967
0.0681455
0.0725472
0.0760021
0.0787896
0.0810375
0.0827439
0.0839227
0.0845569
0.0846069
0.0841777
0.0834122
0.0824331
0.0813395
0.0802056
0.0790835
0.0780072
0.0769965
0.0760612
0.0752043
0.0744242
0.0737166
0.0730763
0.000279271
0.00247325
0.00617498
0.0106195
0.0156089
0.0210513
0.0268677
0.0329697
0.0392509
0.0455822
0.0518256
0.0578395
0.0634761
0.0686174
0.0727644
0.0759716
0.0785447
0.0806094
0.0822224
0.0833941
0.0841038
0.0843052
0.0840753
0.0835285
0.0827674
0.0818777
0.0809245
0.0799546
0.0790007
0.078085
0.0772209
0.0764152
0.0756703
0.0749856
0.0743589
0.000282537
0.00256926
0.00638169
0.0109571
0.0160898
0.0216766
0.0276273
0.0338421
0.040203
0.0465669
0.0527835
0.0587072
0.0641753
0.0690634
0.0729056
0.0758074
0.0780943
0.0799232
0.0813681
0.0824547
0.0831654
0.0834425
0.08333
0.0829201
0.0823005
0.0815466
0.0807189
0.0798639
0.0790139
0.0781899
0.0774053
0.0766678
0.0759815
0.0753473
0.0747646
0.000286796
0.00263245
0.00655215
0.0112469
0.0165058
0.0222211
0.0282967
0.0346244
0.0410749
0.0474915
0.0537059
0.0595646
0.0648857
0.0695317
0.073063
0.0756362
0.0775963
0.0791233
0.0803219
0.0812419
0.0818747
0.0821641
0.0821256
0.081824
0.0813278
0.0807
0.0799936
0.0792504
0.0785011
0.0777675
0.0770639
0.076399
0.0757778
0.075202
0.0746715
0.000290248
0.00271736
0.0067425
0.011562
0.0169568
0.0228114
0.0290204
0.0354642
0.0420026
0.0484669
0.054674
0.0604661
0.0656422
0.0700501
0.0732691
0.0755005
0.0771064
0.0782871
0.0791884
0.0798736
0.0803521
0.0805796
0.0805542
0.0803143
0.0799076
0.0793823
0.0787819
0.0781422
0.077491
0.0768483
0.076228
0.0756393
0.0750873
0.0745745
0.0741015
0.000293457
0.00278753
0.00691784
0.0118589
0.0173841
0.0233718
0.0297092
0.0362684
0.0428991
0.0494209
0.0556377
0.061381
0.0664349
0.0706293
0.073557
0.0754581
0.0767037
0.0775177
0.0780892
0.0784802
0.0787356
0.0788321
0.0787585
0.0785294
0.0781716
0.0777176
0.0771997
0.0766466
0.0760814
0.0755214
0.0749792
0.0744632
0.0739786
0.0735279
0.0731119
0.000296277
0.00286563
0.00710383
0.0121669
0.0178225
0.0239423
0.030406
0.0370776
0.0437977
0.0503758
0.056606
0.0623101
0.0672592
0.0712652
0.0739292
0.0755236
0.076429
0.0768954
0.0770926
0.0771604
0.0771445
0.0770507
0.0768705
0.0766004
0.0762475
0.0758286
0.0753642
0.0748746
0.0743771
0.0738857
0.0734106
0.0729588
0.0725349
0.0721413
0.0717785
0.000298826
0.00293652
0.00727658
0.0124561
0.0182363
0.0244826
0.0310682
0.0378495
0.0446593
0.0512979
0.0575508
0.0632314
0.0680981
0.0719464
0.0743815
0.0757012
0.0762886
0.0764058
0.0762605
0.0760019
0.0756797
0.0753539
0.0750199
0.0746631
0.0742741
0.0738549
0.0734143
0.0729636
0.072514
0.072075
0.0716537
0.0712555
0.0708836
0.0705397
0.0702239
0.000301
0.00300777
0.0074471
0.0127384
0.0186372
0.0250033
0.0317038
0.0385886
0.045484
0.0521821
0.0584618
0.0641308
0.0689346
0.072655
0.0748981
0.0759599
0.076278
0.0761089
0.0756502
0.0750428
0.0743952
0.0738353
0.0733098
0.0728319
0.0723729
0.0719225
0.0714785
0.0710436
0.0706221
0.0702189
0.0698377
0.0694814
0.0691517
0.0688491
0.0685731
0.000302841
0.00307378
0.00760561
0.0130009
0.01901
0.0254874
0.0322948
0.0392768
0.0462539
0.053011
0.0593219
0.0649908
0.0697504
0.073372
0.0754446
0.0763015
0.0764018
0.0759679
0.0752144
0.0743135
0.0733931
0.0725159
0.0718043
0.0711972
0.0706438
0.070139
0.0696703
0.069232
0.068822
0.0684403
0.0680868
0.0677618
0.0674652
0.0671962
0.066953
0.000304339
0.00313688
0.00775517
0.0132465
0.0193566
0.0259354
0.0328402
0.0399108
0.0469632
0.0537765
0.0601206
0.0657978
0.0705286
0.0740757
0.0760066
0.0767076
0.0766248
0.0759676
0.074964
0.0737976
0.0726007
0.0715134
0.0705737
0.0697813
0.0691556
0.068583
0.0680764
0.0676216
0.0672112
0.0668403
0.0665053
0.0662036
0.065933
0.0656912
0.0654754
0.000305515
0.00319509
0.00789233
0.0134705
0.0196714
0.0263411
0.0333331
0.0404834
0.047604
0.0544698
0.060848
0.0665391
0.071253
0.0747451
0.0765688
0.0771543
0.0769193
0.076081
0.0748707
0.0734774
0.0720448
0.0707342
0.0696358
0.0687038
0.0679138
0.0672935
0.0667527
0.0662748
0.0658576
0.0654915
0.0651696
0.0648863
0.0646375
0.0644192
0.0642273
0.000306385
0.00324905
0.0080178
0.0136734
0.0199544
0.0267039
0.0337722
0.0409924
0.0481731
0.0550865
0.0614987
0.0672066
0.0719134
0.0753683
0.0771127
0.0776118
0.0772586
0.0762776
0.0749022
0.0733262
0.0717028
0.0701961
0.068935
0.0678964
0.0670149
0.0662795
0.0657058
0.0652184
0.064793
0.0644302
0.0641196
0.0638531
0.0636245
0.0634281
0.0632588
0.000306951
0.0032985
0.00813097
0.0138541
0.0202044
0.0270224
0.0341561
0.0414365
0.0486691
0.0556243
0.0620688
0.0677949
0.0725021
0.0759342
0.0776218
0.0780584
0.0776165
0.0765264
0.0750228
0.0733016
0.0715194
0.0698751
0.0684663
0.0673158
0.0663753
0.065572
0.064929
0.0644316
0.0640091
0.0636507
0.063352
0.0631026
0.0628942
0.0627197
0.0625728
0.000307214
0.00334211
0.00822982
0.014011
0.0204204
0.0272965
0.0344855
0.0418164
0.0490928
0.0560838
0.0625573
0.0683016
0.0730139
0.076434
0.0780828
0.0784761
0.0779699
0.0767989
0.0751984
0.0733659
0.0714621
0.0696912
0.0682028
0.0669537
0.0659329
0.0650908
0.0643928
0.063873
0.0634597
0.0631063
0.0628201
0.0625879
0.0623996
0.0622466
0.0621216
0.00328345
0.00321936
0.00322831
0.00331543
0.00348057
0.0037367
0.0040924
0.00456105
0.0051546
0.00585841
0.00657764
0.00716773
0.00750064
0.00754772
0.00736678
0.00697163
0.00642401
0.00570867
0.00479537
0.00373931
0.00285512
0.00246618
0.019337
0.019286
0.0195379
0.0203385
0.0218655
0.0240859
0.0269651
0.0304537
0.0345804
0.0391213
0.043673
0.0473661
0.0494851
0.0498216
0.0486638
0.0467466
0.0448429
0.0435034
0.0428331
0.0421253
0.0406445
0.037788
0.0607924
0.0609931
0.0615061
0.0624494
0.063831
0.0655779
0.0675335
0.0694704
0.0710607
0.0719274
0.0715701
0.0697068
0.0663903
0.0625546
0.0601621
0.0606978
0.0640893
0.0691675
0.0740597
0.0776014
0.0791987
0.07865
0.0519292
0.0534088
0.0552806
0.0574318
0.0596382
0.0615807
0.0629625
0.0639866
0.064833
0.0656929
0.0659987
0.0647854
0.0617241
0.0581274
0.0554539
0.0541172
0.0535986
0.0535484
0.0537236
0.0540133
0.0544015
0.0546714
0.0609508
0.0644012
0.0680005
0.0715642
0.0747055
0.0771558
0.0785053
0.0787074
0.0776307
0.0753216
0.0718423
0.0669658
0.0622073
0.0577235
0.0542957
0.0519316
0.0506311
0.0501142
0.0501243
0.0504652
0.0509816
0.0515312
0.0502708
0.0507464
0.0513654
0.0521339
0.0530154
0.0539286
0.0548125
0.0555765
0.0560024
0.0557663
0.0547094
0.0527955
0.0502132
0.0475242
0.0451343
0.0433883
0.0423759
0.0419986
0.0420902
0.0424892
0.043058
0.0436854
0.0611352
0.0611378
0.0609461
0.0605772
0.0600769
0.0595027
0.058905
0.0583061
0.0576788
0.0569321
0.0559396
0.0545769
0.0528039
0.0507112
0.048417
0.0461469
0.0441515
0.0425726
0.0414563
0.0407696
0.0404343
0.0403527
0.0596939
0.0592352
0.0587958
0.0583694
0.057948
0.0575066
0.0570266
0.0564943
0.0558965
0.0552096
0.0543951
0.0534019
0.0521939
0.0507759
0.0491669
0.0474295
0.0456683
0.0440009
0.0425262
0.0413053
0.0403556
0.0396579
0.0646275
0.0641664
0.0637229
0.0633122
0.0629311
0.0625535
0.0621413
0.0616516
0.0610682
0.060372
0.0595396
0.0585483
0.0573992
0.0561069
0.0546723
0.0531108
0.051457
0.0497628
0.0480895
0.0464961
0.0450276
0.0437119
0.064342
0.0639774
0.0636485
0.0633077
0.0629197
0.062491
0.0620364
0.0615755
0.061085
0.0605358
0.0598979
0.0591453
0.0582733
0.0572913
0.0561971
0.0549982
0.0537094
0.0523538
0.0509608
0.0495635
0.0481952
0.0468846
0.0669487
0.066235
0.065562
0.0649265
0.0643204
0.0637318
0.0631516
0.0625811
0.062016
0.061438
0.0608232
0.0601489
0.0594031
0.0585749
0.057662
0.0566666
0.0555967
0.0544658
0.0532913
0.0520919
0.0508881
0.0497001
0.0669771
0.066183
0.0654288
0.064717
0.0640487
0.0634261
0.0628399
0.0622606
0.0616714
0.0610617
0.0604189
0.0597327
0.0590108
0.0582655
0.0574839
0.0566591
0.05579
0.0548801
0.053937
0.0529712
0.0519949
0.0510218
0.0684769
0.0675021
0.0665583
0.0656528
0.0647897
0.0639696
0.0631879
0.0624351
0.0617026
0.0609818
0.0602601
0.0595271
0.0587876
0.0580459
0.057294
0.0565271
0.0557431
0.0549429
0.05413
0.05331
0.0524903
0.0516797
0.0694483
0.0683912
0.0673487
0.0663296
0.0653416
0.0643921
0.0634857
0.0626133
0.0617687
0.0609424
0.0601262
0.0593164
0.0585239
0.057754
0.0569979
0.05625
0.0555072
0.054769
0.0540374
0.0533155
0.0526077
0.0519199
0.0709363
0.0698208
0.0687005
0.0675847
0.0664818
0.0653988
0.0643416
0.063321
0.0623362
0.0613783
0.0604349
0.0595085
0.0586142
0.0577672
0.0569572
0.0561782
0.0554266
0.0547006
0.0540003
0.0533272
0.0526835
0.052073
0.0722333
0.0711157
0.0699775
0.0688288
0.0676783
0.0665328
0.0653961
0.0642693
0.063149
0.062045
0.0609631
0.0599143
0.0589188
0.0579874
0.057112
0.0562865
0.0555069
0.0547707
0.0540773
0.0534266
0.0528197
0.0522577
0.0735418
0.0724526
0.0713198
0.070151
0.0689549
0.0677401
0.0665145
0.0652842
0.0640615
0.0628489
0.0616616
0.0605054
0.0594108
0.0583945
0.0574494
0.0565698
0.0557513
0.0549908
0.0542863
0.0536371
0.0530434
0.0525123
0.0740375
0.0730695
0.0720383
0.0709487
0.0698072
0.0686225
0.0674053
0.0661685
0.064919
0.0636583
0.0624106
0.0611833
0.0600139
0.0589252
0.0579137
0.056976
0.0561095
0.0553125
0.0545837
0.0539219
0.0533264
0.0528021
0.0740392
0.0732055
0.0723025
0.0713326
0.0702996
0.0692089
0.0680672
0.0668829
0.0656646
0.0644135
0.0631498
0.0618951
0.0606868
0.0595533
0.0584953
0.0575144
0.0566099
0.0557764
0.0550176
0.054333
0.0537215
0.0531834
0.0735748
0.0728943
0.0721416
0.0713164
0.0704201
0.0694555
0.0684267
0.0673391
0.0661996
0.0650155
0.0637852
0.0625483
0.0613431
0.0601996
0.0591226
0.0581197
0.0571876
0.0563263
0.0555401
0.0548299
0.0541958
0.0536376
0.0726908
0.0721675
0.0715729
0.0709044
0.0701613
0.069344
0.0684542
0.0674949
0.0664705
0.0653871
0.0642505
0.0630677
0.0619056
0.0607893
0.0597253
0.0587233
0.0577879
0.0569143
0.0561114
0.0553817
0.0547265
0.0541463
0.0714558
0.0710823
0.0706422
0.0701311
0.0695462
0.0688859
0.0681496
0.0673378
0.0664528
0.0654979
0.0644785
0.0634077
0.0623167
0.0612601
0.060241
0.0592669
0.0583487
0.0574871
0.0566843
0.0559478
0.0552804
0.0546839
0.0699852
0.0697419
0.0694403
0.0690745
0.0686399
0.0681329
0.0675511
0.0668929
0.066158
0.0653476
0.0644644
0.0635196
0.062547
0.0615736
0.0606234
0.0597052
0.0588254
0.057994
0.0572128
0.0564858
0.0558194
0.055217
0.0684004
0.0682601
0.0680725
0.0678305
0.0675282
0.0671604
0.066723
0.0662124
0.0656263
0.0649636
0.0642247
0.0634172
0.0625702
0.0617128
0.0608535
0.0600073
0.0591892
0.0584036
0.0576591
0.0569602
0.0563097
0.055714
0.0668263
0.066757
0.0666531
0.0665066
0.0663108
0.0660594
0.0657468
0.0653681
0.064919
0.0643964
0.0637984
0.0631293
0.0624121
0.0616729
0.0609224
0.06017
0.0594231
0.0587009
0.058006
0.057346
0.0567271
0.056151
0.065376
0.0653452
0.0652927
0.0652104
0.0650909
0.0649276
0.0647138
0.0644435
0.064111
0.0637117
0.0632417
0.0627023
0.0621104
0.0614881
0.0608451
0.0601909
0.0595343
0.0588822
0.0582475
0.0576377
0.057058
0.0565154
0.0641401
0.0641196
0.0640889
0.0640403
0.0639667
0.0638611
0.0637167
0.0635267
0.0632848
0.062985
0.0626223
0.0621952
0.0617156
0.0612013
0.0606602
0.0601007
0.059531
0.0589588
0.0583918
0.0578363
0.0573037
0.0568021
0.0631745
0.0631451
0.0631142
0.0630749
0.0630207
0.0629452
0.0628415
0.062703
0.062523
0.0622951
0.0620136
0.0616753
0.0612879
0.0608652
0.0604136
0.0599397
0.0594506
0.0589529
0.0584537
0.0579593
0.0574755
0.0570168
0.0624891
0.0624448
0.0624037
0.0623602
0.0623086
0.062243
0.0621573
0.0620453
0.0619006
0.061717
0.0614888
0.0612121
0.060892
0.0605393
0.0601587
0.0597553
0.0593348
0.0589027
0.0584648
0.0580268
0.057594
0.0571745
0.0620425
0.061992
0.0619456
0.0618987
0.0618465
0.0617836
0.0617044
0.0616033
0.0614746
0.0613128
0.0611129
0.0608714
0.0605923
0.0602849
0.0599529
0.0596001
0.059231
0.0588501
0.0584621
0.0580718
0.0576839
0.0573002
0.00259618
0.00297819
0.00310215
0.00247171
0.00127787
0.000992141
0.0343633
0.0300849
0.025195
0.0195513
0.0134479
0.00930852
0.0760493
0.0710736
0.0647524
0.0579381
0.0518556
0.0496622
0.0546573
0.0541019
0.0529364
0.0512171
0.0493113
0.04796
0.0518655
0.0519144
0.051655
0.051063
0.0503373
0.0500273
0.0442421
0.0445862
0.0446873
0.0445838
0.0444206
0.0443816
0.0404082
0.0405055
0.0406032
0.0406868
0.0407993
0.0410245
0.0391568
0.0387782
0.0384918
0.0382734
0.0381339
0.0381194
0.0425742
0.0415714
0.0407104
0.0399859
0.0394071
0.0389971
0.0456435
0.0444676
0.0434046
0.0424672
0.04167
0.0410339
0.0485113
0.0473361
0.0462427
0.0452549
0.0443971
0.0436959
0.0499989
0.0489655
0.0479985
0.0471242
0.0463676
0.0457561
0.050816
0.0499395
0.0491274
0.0484054
0.0477962
0.0473223
0.0511895
0.0504555
0.0497937
0.0492259
0.0487691
0.0484427
0.0514419
0.0508245
0.050289
0.049855
0.0495306
0.049334
0.0516958
0.0511681
0.0507298
0.0504031
0.0501834
0.0500896
0.051992
0.0515246
0.0511482
0.0508917
0.0507482
0.0507328
0.0523016
0.0518772
0.0515526
0.0513383
0.0512429
0.0512673
0.0526806
0.0522739
0.0519676
0.0517694
0.0516912
0.0517242
0.0531292
0.0527197
0.0524098
0.0522058
0.0521126
0.0521314
0.0536287
0.0532055
0.0528788
0.0526537
0.0525335
0.0525195
0.054154
0.0537146
0.0533668
0.0531147
0.0529613
0.0529076
0.0546783
0.0542249
0.0538568
0.0535779
0.0533906
0.0532957
0.0551744
0.0547122
0.0543286
0.054027
0.0538095
0.0536771
0.0556199
0.0551562
0.054764
0.0544464
0.0542055
0.0540424
0.0560001
0.0555433
0.0551507
0.0548254
0.0545695
0.0543842
0.0563123
0.0558698
0.0554848
0.0551603
0.0548982
0.0547002
0.05656
0.0561392
0.0557698
0.0554545
0.0551954
0.0549942
0.0567549
0.056363
0.0560168
0.0557189
0.0554716
0.0552767
0.0569158
0.0565594
0.0562434
0.0559704
0.0557428
0.0555627
0.00118146
0.00190836
0.00263824
0.00303515
0.00299026
0.00250449
0.00159332
0.00121885
0.00120541
0.00122852
0.00116649
0.00102795
0.000908918
0.000862436
0.000922651
0.00108821
0.0012746
0.00141088
0.00149676
0.0016058
0.00177348
0.00201537
0.00960454
0.0113122
0.012446
0.0131141
0.0137966
0.0144028
0.0146247
0.0144974
0.0142239
0.0133414
0.0117029
0.00968589
0.00885442
0.00877145
0.00969632
0.0111997
0.013211
0.0157153
0.0183321
0.0211038
0.0240466
0.0270501
0.0529956
0.0582684
0.0636276
0.0679684
0.0705832
0.0710983
0.0694799
0.0663826
0.0633824
0.0623057
0.0632027
0.06436
0.0642556
0.0623854
0.0591764
0.0553414
0.0517967
0.0492391
0.0479811
0.0478934
0.0485139
0.0493454
0.0483683
0.0490848
0.049709
0.050167
0.0505686
0.0512713
0.0527788
0.0554867
0.0590701
0.0623303
0.063489
0.0621303
0.0589131
0.0554725
0.0529615
0.0515323
0.0506841
0.0500721
0.0495882
0.0491912
0.04875
0.0481959
0.049548
0.0495605
0.0501363
0.0513645
0.0533565
0.0562254
0.0599693
0.0642574
0.0684104
0.0715047
0.0735101
0.0745033
0.0744468
0.0736105
0.0721511
0.0701554
0.0677826
0.0652573
0.0627655
0.0604092
0.0582023
0.0561564
0.0444972
0.0448223
0.0455026
0.0465972
0.0481484
0.0501743
0.0526323
0.0553722
0.0581271
0.0606604
0.0624526
0.0635271
0.0638759
0.0637901
0.0635235
0.0631262
0.0625474
0.0617042
0.0605592
0.0591676
0.0575641
0.0558643
0.0413802
0.0418839
0.0426859
0.0438654
0.0454519
0.04746
0.0498261
0.0523751
0.054901
0.0572116
0.0591595
0.0606625
0.0617548
0.0623869
0.0627054
0.0627851
0.0626765
0.0624172
0.0620347
0.0615741
0.0611542
0.0609365
0.038276
0.0385469
0.0390302
0.0397503
0.0407306
0.0420053
0.0435072
0.0451573
0.0468543
0.0484939
0.0500061
0.0513405
0.0525165
0.0534478
0.0541877
0.0547719
0.0552288
0.0555894
0.0558893
0.0561682
0.0564474
0.0565782
0.0388746
0.0389023
0.0391563
0.039617
0.0403349
0.0413513
0.0426394
0.0441174
0.0457299
0.0474154
0.0491178
0.050729
0.05221
0.0535208
0.0546812
0.0556913
0.0565587
0.0573153
0.057975
0.0585457
0.0590527
0.0595178
0.0407293
0.0406369
0.0407276
0.0409895
0.0414972
0.0422421
0.0431956
0.044334
0.0456159
0.0469978
0.0484339
0.0498707
0.0511915
0.0524039
0.0534914
0.0544849
0.0553369
0.056105
0.0568339
0.0575663
0.0583189
0.0591106
0.043318
0.0431975
0.0432276
0.0434437
0.0438715
0.0445083
0.045344
0.0463583
0.0475231
0.0488044
0.0501647
0.0515566
0.0528972
0.0541587
0.0553629
0.0565185
0.0576133
0.0586805
0.0597397
0.0607995
0.0618593
0.0629122
0.0454229
0.0453352
0.0453922
0.0456179
0.0460171
0.046592
0.047336
0.0482316
0.0492587
0.0503945
0.0516166
0.0528943
0.0541706
0.0554385
0.0566873
0.0579256
0.0591425
0.0603509
0.0615545
0.062754
0.0639473
0.0651315
0.0470863
0.0470692
0.0471913
0.047464
0.0478931
0.0484784
0.0492148
0.0500941
0.0511056
0.0522373
0.0534777
0.0548054
0.0561786
0.0575569
0.0589306
0.0602903
0.061626
0.0629321
0.0641993
0.0654175
0.0665778
0.0676699
0.048321
0.0483914
0.0485927
0.0489333
0.0494174
0.0500458
0.0508159
0.0517229
0.0527604
0.0539155
0.0551812
0.0565366
0.0579276
0.0593099
0.0606649
0.0619766
0.0632313
0.0644178
0.0655272
0.0665536
0.0674936
0.0683465
0.0493193
0.0494772
0.0497596
0.0501728
0.0507202
0.0514019
0.0522184
0.0531589
0.0542173
0.055386
0.0566511
0.0579816
0.0593239
0.0606294
0.0618786
0.0630574
0.0641557
0.0651669
0.0660878
0.0669182
0.0676604
0.0683192
0.0501615
0.0503878
0.0507309
0.0511967
0.0517875
0.0524989
0.0533261
0.0542614
0.0552942
0.056411
0.057592
0.0588134
0.060018
0.061161
0.0622286
0.0632121
0.064107
0.0649124
0.0656303
0.0662656
0.0668249
0.0673164
0.0508639
0.051133
0.05151
0.0519967
0.0525918
0.0532914
0.0540884
0.0549728
0.055932
0.0569478
0.0580077
0.0590817
0.0601191
0.0610852
0.0619721
0.0627765
0.0634992
0.0641438
0.0647167
0.0652254
0.065679
0.0660868
0.0514253
0.0517122
0.052092
0.0525675
0.0531354
0.0537903
0.0545236
0.0553241
0.0561789
0.0570738
0.0579914
0.0589069
0.0597791
0.0605818
0.0613124
0.0619724
0.0625664
0.0631013
0.0635854
0.064028
0.0644382
0.0648253
0.0518845
0.0521591
0.0525168
0.052956
0.0534726
0.0540603
0.0547105
0.0554128
0.0561549
0.0569233
0.0577037
0.0584765
0.0592091
0.0598833
0.0605006
0.0610661
0.0615869
0.0620717
0.0625296
0.0629695
0.0633995
0.0638271
0.0522769
0.0525227
0.0528402
0.0532269
0.0536786
0.0541889
0.0547498
0.055352
0.0559849
0.0566374
0.0572989
0.0579548
0.0585814
0.0591664
0.0597149
0.0602338
0.0607318
0.0612175
0.0616991
0.0621837
0.062677
0.0631833
0.0526378
0.0528436
0.0531118
0.0534395
0.0538224
0.0542547
0.0547295
0.0552389
0.0557749
0.0563294
0.0568958
0.0574655
0.058022
0.058558
0.0590803
0.0595967
0.0601153
0.0606432
0.0611862
0.0617481
0.0623285
0.0629335
0.0529859
0.0531492
0.0533667
0.0536358
0.0539526
0.0543124
0.0547098
0.055139
0.0555947
0.0560727
0.0565708
0.0570861
0.0576082
0.0581326
0.058666
0.0592154
0.059786
0.0603809
0.0610074
0.0616612
0.0623404
0.0630413
0.0533321
0.0534535
0.0536228
0.0538375
0.0540949
0.0543914
0.0547236
0.0550884
0.0554836
0.0559091
0.0563673
0.0568603
0.0573817
0.0579268
0.058499
0.0591052
0.0597508
0.0604324
0.0611476
0.0618914
0.0626581
0.0634412
0.0536746
0.0537576
0.0538836
0.0540512
0.0542585
0.054504
0.0547864
0.0551053
0.0554623
0.055861
0.0563079
0.0568087
0.0573581
0.0579444
0.0585811
0.0592649
0.0599921
0.0607577
0.0615549
0.0623761
0.063213
0.0640572
0.0540065
0.0540568
0.0541471
0.0542772
0.0544468
0.0546561
0.0549064
0.0552005
0.055543
0.055941
0.056404
0.0569389
0.0575332
0.0581892
0.0589017
0.059664
0.0604686
0.0613069
0.0621691
0.0630454
0.063926
0.0648018
0.0543223
0.0543476
0.0544122
0.0545169
0.0546632
0.0548536
0.0550919
0.0553836
0.055736
0.0561586
0.0566617
0.0572464
0.0579122
0.0586446
0.0594324
0.0602659
0.061134
0.0620253
0.0629282
0.063832
0.0647268
0.0656037
0.0546211
0.0546315
0.0546823
0.054776
0.0549159
0.0551067
0.0553544
0.0556666
0.0560524
0.0565216
0.0570805
0.0577363
0.0584812
0.0592869
0.0601406
0.0610293
0.0619397
0.062859
0.0637754
0.0646785
0.0655592
0.0664101
0.0549082
0.0549156
0.0549669
0.055066
0.0552181
0.0554298
0.0557087
0.0560636
0.0565037
0.057036
0.0576654
0.0584033
0.0592217
0.0600898
0.0609926
0.0619154
0.0628443
0.0637668
0.0646722
0.0655514
0.0663975
0.0672048
0.0551948
0.0552131
0.0552808
0.0554033
0.0555875
0.0558413
0.0561731
0.0565913
0.0571028
0.0577088
0.058423
0.0592357
0.0601154
0.0610287
0.0619601
0.0628954
0.0638214
0.0647271
0.0656028
0.0664421
0.0672411
0.0679952
0.055496
0.0555409
0.0556429
0.055809
0.056047
0.0563654
0.0567717
0.0572719
0.0578649
0.05856
0.0593499
0.0602226
0.0611445
0.0620827
0.0630238
0.0639544
0.0648616
0.0657359
0.0665691
0.0673624
0.0680994
0.0687827
0.00227944
0.00250373
0.0027847
0.00317266
0.00371928
0.00450518
0.00564416
0.00729069
0.00963796
0.0129121
0.0173665
0.0232554
0.0279514
0.0312675
0.0347151
0.0382316
0.0414271
0.0442302
0.0466363
0.0481495
0.0483537
0.0473113
0.0416979
0.0358664
0.0296173
0.0241619
0.0198184
0.0162923
0.0133834
0.01086
0.00854966
0.00622107
0.00358765
0.000962322
0.000622813
0.0290393
0.0304754
0.0320414
0.0337924
0.0357401
0.0378788
0.040196
0.0426692
0.045258
0.0478873
0.0504155
0.0526127
0.0549797
0.0576181
0.0603448
0.0631453
0.0653119
0.0673529
0.0695182
0.0712103
0.0719908
0.0718743
0.0728903
0.0743086
0.0751171
0.0736138
0.0716284
0.0691047
0.0648575
0.0580078
0.0478134
0.0344488
0.0201514
0.00766409
0.000932932
0.0501798
0.0509603
0.0519373
0.0530867
0.0544096
0.0559584
0.0575902
0.0592583
0.0607847
0.061962
0.0626731
0.062862
0.0625434
0.0618477
0.0609728
0.0595703
0.0591611
0.0595156
0.0610624
0.0632711
0.0656928
0.0699386
0.0763969
0.083973
0.0889372
0.0898326
0.086775
0.0806358
0.0721116
0.0616746
0.0496656
0.0365914
0.0228914
0.00974805
0.0010073
0.047637
0.0472222
0.0468093
0.0464087
0.0460087
0.0455656
0.045006
0.0442612
0.0431354
0.0422043
0.0408619
0.0388741
0.0366646
0.0342514
0.0337516
0.0361891
0.0404286
0.0447142
0.0479255
0.050076
0.051912
0.0539935
0.0557393
0.0568827
0.0572644
0.0560517
0.0541672
0.0504643
0.0450213
0.0382964
0.0306939
0.0224959
0.0140134
0.00589711
0.00082063
0.0545474
0.0532649
0.0519208
0.0505437
0.0491752
0.047872
0.0466965
0.0456539
0.0446731
0.0434522
0.0414374
0.0383447
0.0356696
0.0315985
0.0277901
0.0262284
0.028478
0.0322414
0.0363261
0.0401057
0.0432304
0.045469
0.0474551
0.0485041
0.0482939
0.0466779
0.0440352
0.0399071
0.0349206
0.0293497
0.0234438
0.0173122
0.0111723
0.00516872
0.000616025
0.0544776
0.0533915
0.0522685
0.0511635
0.0501416
0.049242
0.0484224
0.0475217
0.0462606
0.0445979
0.0426977
0.0405469
0.0376856
0.0352372
0.0329638
0.0302333
0.0267811
0.0234383
0.0208176
0.0191645
0.0181253
0.0173766
0.016766
0.0162539
0.015758
0.0148158
0.0140087
0.0126555
0.0109274
0.00905408
0.00711827
0.00516973
0.00323294
0.00141852
0.000307005
0.0608283
0.0607252
0.0605829
0.0603719
0.0600443
0.0595467
0.0588321
0.0578804
0.0567849
0.0558662
0.055596
0.0560577
0.0570523
0.0581234
0.0580162
0.0554058
0.0512367
0.0466578
0.0423187
0.0384225
0.0346303
0.0307325
0.0268221
0.0232157
0.019892
0.0168787
0.0141845
0.0117867
0.00965337
0.00776021
0.00601586
0.00434394
0.00266779
0.00107353
0.000221846
0.0566267
0.0566714
0.056714
0.0567644
0.0568435
0.0569894
0.0572664
0.0577685
0.0586016
0.0597902
0.0613108
0.0630527
0.0647375
0.0660125
0.0665218
0.0660796
0.0649403
0.0632069
0.0608015
0.0575441
0.0535584
0.0488644
0.0437632
0.0387445
0.0338694
0.0292483
0.0248526
0.0206901
0.0167655
0.0130845
0.00968332
0.0066118
0.00389975
0.00161075
0.000200098
0.0598635
0.060124
0.0604137
0.0607487
0.0611518
0.0616572
0.0623154
0.0631988
0.0643659
0.0658163
0.0673761
0.0688146
0.0699666
0.0707145
0.0709588
0.070647
0.0698108
0.0684928
0.06669
0.0643647
0.0614398
0.0576745
0.0530536
0.0480606
0.0427819
0.0373844
0.0320111
0.0267569
0.0217181
0.0169679
0.0125525
0.00850571
0.00488555
0.0018862
0.000265094
0.0597646
0.0602995
0.060925
0.0616523
0.062492
0.063449
0.0645156
0.0656565
0.0668373
0.0680821
0.0694491
0.0709456
0.0724216
0.0736479
0.074308
0.0741202
0.0733068
0.0719642
0.070138
0.067832
0.0649578
0.0612599
0.0567184
0.0517561
0.0464542
0.0408941
0.0352383
0.0296084
0.0241314
0.0189164
0.0140531
0.00961499
0.00567398
0.00235703
0.000235373
0.0637028
0.0642869
0.0649383
0.0656684
0.0664864
0.0674005
0.068417
0.0695417
0.07077
0.0720649
0.073363
0.0745648
0.0755322
0.0761312
0.0762089
0.0758131
0.0750083
0.0738371
0.072268
0.0702158
0.0675981
0.0641273
0.0597034
0.0547252
0.049289
0.0435199
0.0375841
0.0316239
0.0257791
0.0201754
0.0149193
0.0100999
0.00581797
0.00228586
0.000271852