/*--------------------------------*- C++ -*----------------------------------*\
  =========                 |
  \\      /  F ield         | OpenFOAM: The Open Source CFD Toolbox
   \\    /   O peration     | Website:  https://openfoam.org
    \\  /    A nd           | Version:  8
     \\/     M anipulation  |
\*---------------------------------------------------------------------------*/
FoamFile
{
    version     2.0;
    format      ascii;
    class       surfaceScalarField;
    location    "0.41";
    object      phi;
}
// * * * * * * * * * * * * * * * * * * * * * * * * * * * * * * * * * * * * * //

dimensions      [1 0 -1 0 0 0 0];

internalField   nonuniform List<scalar> 
31053
(
-5.51368e-06
1.29584e-05
-6.92602e-06
1.01366e-05
-8.52394e-06
1.19103e-05
-1.09542e-05
1.45177e-05
-1.4783e-05
1.77861e-05
-2.01587e-05
2.13625e-05
-2.66147e-05
2.47071e-05
-3.28894e-05
2.70892e-05
-3.65611e-05
2.74138e-05
-3.29896e-05
2.35259e-05
-1.35593e-05
1.15085e-05
3.22919e-05
-1.04492e-05
0.000109136
-3.61852e-05
0.000211136
-5.51501e-05
0.000304706
-4.84791e-05
0.000383604
-3.3419e-05
0.000440022
-1.07514e-05
0.000465817
1.99402e-05
0.000457304
5.41999e-05
0.000419039
8.37388e-05
0.000365506
9.86521e-05
0.000313859
9.26889e-05
0.000270055
8.06442e-05
0.000233674
6.94968e-05
0.000203179
6.02897e-05
0.000177209
5.27939e-05
0.000154625
4.67414e-05
0.000134634
4.17578e-05
0.000116747
3.75117e-05
0.000100633
3.38151e-05
8.60617e-05
3.05508e-05
7.29276e-05
2.75708e-05
6.12301e-05
2.4757e-05
5.10053e-05
2.20525e-05
1.96048e-05
4.20457e-05
-6.04883e-05
7.34122e-05
-0.000135996
8.56045e-05
-0.000219759
9.56261e-05
-0.000309802
0.000104508
-0.00040396
0.000111881
-0.00049945
0.00011678
-0.000592389
0.000117559
-0.000677172
0.000111764
-0.000745595
9.57047e-05
-0.000786407
6.41722e-05
-0.000788939
1.38357e-05
-0.000734047
-6.55809e-05
-0.000621669
-0.000148846
-0.000459074
-0.000218073
-0.000296702
-0.000211161
-0.000138981
-0.000191471
5.21043e-06
-0.000155273
0.000130657
-0.00010581
0.00023552
-5.09337e-05
0.000313605
5.41054e-06
0.000375658
3.63604e-05
0.000415984
5.21451e-05
0.000438593
5.78438e-05
0.000449009
5.89128e-05
0.000451677
5.74752e-05
0.000449664
5.46755e-05
0.000445012
5.12727e-05
0.000438987
4.76738e-05
0.000432286
4.41132e-05
0.000425284
4.07267e-05
0.000418145
3.76079e-05
0.000410932
3.47093e-05
0.000403687
3.19328e-05
0.000396438
2.92398e-05
2.61609e-05
0.000389825
-8.40086e-08
7.35524e-05
4.41344e-06
8.11692e-05
1.2231e-05
8.78768e-05
2.21034e-05
9.47116e-05
3.30985e-05
0.00010097
4.44092e-05
0.000105561
5.50702e-05
0.000106997
6.37326e-05
0.000103211
6.81703e-05
9.13871e-05
6.41047e-05
6.83712e-05
4.71177e-05
3.09783e-05
-1.39266e-05
-4.35704e-06
-0.000130304
-3.22353e-05
-0.000300164
-4.78157e-05
-0.000465879
-4.67111e-05
-0.000618431
-3.85338e-05
-0.000742388
-3.10056e-05
-0.000827072
-2.08344e-05
-0.000866054
-1.16832e-05
-0.000850873
-9.5586e-06
-0.000793666
-2.06318e-05
-0.000707527
-3.377e-05
-0.000608361
-4.10988e-05
-0.00050461
-4.462e-05
-0.000402827
-4.41045e-05
-0.000306592
-4.13727e-05
-0.000217395
-3.77572e-05
-0.000135588
-3.39809e-05
-6.0945e-05
-3.03947e-05
6.97671e-06
-2.70731e-05
6.87377e-05
-2.40424e-05
0.000124856
-2.13101e-05
0.000175782
-1.8902e-05
0.000221956
-1.68502e-05
-1.47839e-05
0.000262979
3.5582e-05
3.79208e-05
7.14289e-05
4.52684e-05
0.00010875
5.04966e-05
0.000148675
5.47201e-05
0.000191875
5.76939e-05
0.000238357
5.89924e-05
0.000287268
5.79859e-05
0.000336502
5.38596e-05
0.000381802
4.5949e-05
0.000414958
3.50528e-05
0.000421226
2.45239e-05
0.000399243
1.74393e-05
0.000355699
1.13508e-05
0.000299006
8.51716e-06
0.000239408
1.41184e-05
0.000178047
2.24687e-05
0.000119647
2.71099e-05
7.3691e-05
2.48279e-05
4.77754e-05
1.3932e-05
5.14763e-05
-1.35686e-05
8.92078e-05
-5.86711e-05
0.000144002
-8.88337e-05
0.000207934
-0.000105268
0.000274178
-0.000111076
0.000338936
-0.000109054
0.00040012
-0.000102728
0.000456674
-9.44661e-05
0.000508042
-8.54925e-05
0.000553992
-7.64768e-05
0.000594555
-6.77553e-05
0.000629841
-5.94403e-05
0.000660049
-5.16209e-05
0.000685517
-4.44605e-05
0.000706641
-3.8057e-05
-3.26476e-05
0.000724431
1.46782e-05
2.32456e-05
2.97775e-05
3.01718e-05
4.66067e-05
3.36704e-05
6.47598e-05
3.65703e-05
8.36664e-05
3.87915e-05
0.000102758
3.99066e-05
0.000121445
3.93063e-05
0.000139123
3.61928e-05
0.000155472
2.96148e-05
0.000171964
1.85806e-05
0.000192676
3.83743e-06
0.000220346
-1.02221e-05
0.000254176
-2.27074e-05
0.000296887
-3.41543e-05
0.000343735
-3.26072e-05
0.00039562
-2.93279e-05
0.000449095
-2.6278e-05
0.000500095
-2.6086e-05
0.0005442
-3.00845e-05
0.000568051
-3.73179e-05
0.00055321
-4.37401e-05
0.000509247
-4.47906e-05
0.000448317
-4.4255e-05
0.000379752
-4.2428e-05
0.000310529
-3.97555e-05
0.000244489
-3.66216e-05
0.000183339
-3.3258e-05
0.000127729
-2.98315e-05
7.78013e-05
-2.65065e-05
3.34051e-05
-2.3321e-05
-5.698e-06
-2.03036e-05
-3.98118e-05
-1.7477e-05
-6.93349e-05
-1.49123e-05
-9.46817e-05
-1.26885e-05
-1.05653e-05
-0.000116746
3.38743e-05
-1.06333e-05
7.18773e-05
-7.83613e-06
0.000112951
-7.40907e-06
0.000157262
-7.74729e-06
0.00020481
-8.76518e-06
0.000255292
-1.05849e-05
0.000307945
-1.33589e-05
0.000361252
-1.71301e-05
0.000412457
-2.16109e-05
0.000457093
-2.60823e-05
0.000490368
-2.9475e-05
0.000512545
-3.24467e-05
0.000524319
-3.45568e-05
0.000527354
-3.72616e-05
0.000527359
-3.2682e-05
0.000527444
-2.94837e-05
0.000527189
-2.60964e-05
0.000524274
-2.32487e-05
0.000515961
-2.18464e-05
0.000500706
-2.21407e-05
0.000480201
-2.33096e-05
0.000457164
-2.18154e-05
0.000432106
-1.92443e-05
0.000405558
-1.59153e-05
0.000377886
-1.2106e-05
0.000349256
-8.00698e-06
0.000319378
-3.38985e-06
0.000289153
3.88206e-07
0.000258906
3.74086e-06
0.000229129
6.45969e-06
0.000199891
8.93994e-06
0.000171531
1.08884e-05
0.000144366
1.22608e-05
0.000118647
1.30382e-05
1.31593e-05
9.4931e-05
-5.12662e-06
-5.50559e-06
-5.49452e-06
-7.4671e-06
-3.77333e-06
-9.12927e-06
-6.09628e-07
-1.091e-05
3.60056e-06
-1.29744e-05
8.48648e-06
-1.54697e-05
1.36696e-05
-1.8541e-05
1.88728e-05
-2.23323e-05
2.42235e-05
-2.6961e-05
3.06081e-05
-3.24669e-05
3.98317e-05
-3.86997e-05
5.27279e-05
-4.53464e-05
7.03459e-05
-5.21819e-05
9.19688e-05
-5.88973e-05
0.000113197
-5.39263e-05
0.00013488
-5.11838e-05
0.000156803
-4.80383e-05
0.000178489
-4.49535e-05
0.000198713
-4.20865e-05
0.000215291
-3.87327e-05
0.000226018
-3.40501e-05
0.000230008
-2.58198e-05
0.000228685
-1.79354e-05
0.000224127
-1.13707e-05
0.000218547
-6.53979e-06
0.000212621
-2.09244e-06
0.000207795
1.42454e-06
0.000203788
4.38572e-06
0.000199791
7.72564e-06
0.000196259
9.97698e-06
0.000193795
1.13887e-05
0.000192566
1.21019e-05
0.000192467
1.23464e-05
0.000193225
1.22681e-05
1.20943e-05
0.00019428
5.21819e-06
-1.07302e-05
1.14206e-05
-1.36767e-05
1.85097e-05
-1.62266e-05
2.65344e-05
-1.89438e-05
3.55796e-05
-2.203e-05
4.56709e-05
-2.55731e-05
5.67486e-05
-2.96326e-05
6.86552e-05
-3.42549e-05
8.11512e-05
-3.94755e-05
9.39852e-05
-4.53224e-05
0.000107055
-5.17947e-05
0.000120343
-5.8664e-05
0.000133714
-6.55859e-05
0.000146699
-7.19195e-05
0.000156381
-6.36449e-05
0.000163735
-5.8573e-05
0.000168953
-5.32909e-05
0.000172109
-4.81427e-05
0.000173258
-4.32702e-05
0.000172342
-3.78508e-05
0.000169314
-3.10544e-05
0.000164147
-2.06835e-05
0.000156159
-9.97453e-06
0.000144915
-1.58494e-07
0.000132026
6.31461e-06
0.000118592
1.13081e-05
0.00010502
1.4968e-05
9.21635e-05
1.72119e-05
8.13782e-05
1.84856e-05
7.22809e-05
1.90523e-05
6.45428e-05
1.91075e-05
5.78395e-05
1.8788e-05
5.1974e-05
1.8197e-05
4.68133e-05
1.74154e-05
1.63992e-05
4.24965e-05
3.55481e-06
-1.42858e-05
7.77367e-06
-1.78966e-05
1.26015e-05
-2.10557e-05
1.80582e-05
-2.44021e-05
2.40947e-05
-2.80685e-05
3.06469e-05
-3.21277e-05
3.76413e-05
-3.66299e-05
4.49904e-05
-4.16075e-05
5.25794e-05
-4.70692e-05
6.02393e-05
-5.29884e-05
6.77217e-05
-5.92852e-05
7.48182e-05
-6.57718e-05
8.12695e-05
-7.20532e-05
8.69252e-05
-7.75973e-05
9.14163e-05
-6.81616e-05
9.50607e-05
-6.2248e-05
9.7626e-05
-5.5892e-05
9.86827e-05
-4.92404e-05
9.78223e-05
-4.24558e-05
9.54805e-05
-3.55585e-05
9.28271e-05
-2.84537e-05
9.14494e-05
-1.93572e-05
9.2539e-05
-1.11153e-05
9.6739e-05
-4.40386e-06
0.000100897
2.11962e-06
0.00010375
8.42408e-06
0.000106481
1.22086e-05
0.000109209
1.44599e-05
0.000111919
1.57534e-05
0.000114615
1.63373e-05
0.000117298
1.6407e-05
0.000119956
1.61142e-05
0.000122563
1.55755e-05
0.000125087
1.48777e-05
1.41534e-05
0.00012732
2.01764e-06
-1.63072e-05
4.09629e-06
-1.99795e-05
6.24205e-06
-2.32064e-05
8.54618e-06
-2.67118e-05
1.11268e-05
-3.06555e-05
1.41029e-05
-3.51111e-05
1.75936e-05
-4.0129e-05
2.17068e-05
-4.57303e-05
2.65379e-05
-5.19113e-05
3.21755e-05
-5.86382e-05
3.87273e-05
-6.5851e-05
4.62187e-05
-7.32789e-05
5.4529e-05
-8.03813e-05
6.33651e-05
-8.64539e-05
7.03332e-05
-7.51492e-05
7.59139e-05
-6.78477e-05
8.00913e-05
-6.00884e-05
8.29081e-05
-5.20772e-05
8.4285e-05
-4.38541e-05
8.39828e-05
-3.52789e-05
8.15178e-05
-2.6013e-05
7.652e-05
-1.43835e-05
6.81631e-05
-2.77728e-06
5.89867e-05
4.74936e-06
5.08978e-05
1.01846e-05
4.52959e-05
1.40025e-05
4.11207e-05
1.63632e-05
3.77671e-05
1.77947e-05
3.49502e-05
1.85529e-05
3.24785e-05
1.87935e-05
3.02322e-05
1.86389e-05
2.8146e-05
1.81875e-05
2.61889e-05
1.75204e-05
2.4353e-05
1.67022e-05
1.57272e-05
2.27685e-05
1.57873e-06
-1.78875e-05
3.60001e-06
-2.20025e-05
6.05491e-06
-2.56633e-05
8.89488e-06
-2.95542e-05
1.20445e-05
-3.38079e-05
1.54202e-05
-3.84899e-05
1.89247e-05
-4.36373e-05
2.24563e-05
-4.92663e-05
2.59114e-05
-5.53716e-05
2.91901e-05
-6.19233e-05
3.21813e-05
-6.885e-05
3.46884e-05
-7.57956e-05
3.64887e-05
-8.21937e-05
3.7447e-05
-8.74277e-05
3.78616e-05
-7.55805e-05
3.78122e-05
-6.78176e-05
3.72862e-05
-5.95841e-05
3.6314e-05
-5.11287e-05
3.50324e-05
-4.2598e-05
3.36805e-05
-3.39544e-05
3.26819e-05
-2.50432e-05
3.29112e-05
-1.46399e-05
3.58804e-05
-5.77671e-06
3.93027e-05
1.30623e-06
4.11714e-05
8.29806e-06
4.25176e-05
1.2641e-05
4.35128e-05
1.53548e-05
4.4335e-05
1.69608e-05
4.51034e-05
1.77744e-05
4.58815e-05
1.80065e-05
4.66955e-05
1.78166e-05
4.75482e-05
1.73276e-05
4.84274e-05
1.66342e-05
4.93126e-05
1.58102e-05
1.4943e-05
5.00901e-05
8.12123e-07
-1.87013e-05
1.57624e-06
-2.27686e-05
2.28956e-06
-2.63789e-05
3.01605e-06
-3.02832e-05
3.84202e-06
-3.46368e-05
4.83704e-06
-3.94883e-05
6.06041e-06
-4.48645e-05
7.57054e-06
-5.07808e-05
9.42672e-06
-5.72329e-05
1.16694e-05
-6.41718e-05
1.42308e-05
-7.14183e-05
1.70112e-05
-7.85839e-05
1.99901e-05
-8.51818e-05
2.3098e-05
-9.05466e-05
2.55559e-05
-7.80495e-05
2.76416e-05
-6.99149e-05
2.92881e-05
-6.12427e-05
3.02874e-05
-5.2141e-05
3.04393e-05
-4.2764e-05
2.95684e-05
-3.30988e-05
2.74769e-05
-2.2968e-05
2.41716e-05
-1.13504e-05
1.9245e-05
-8.65715e-07
1.48848e-05
5.65048e-06
1.24133e-05
1.07544e-05
1.05525e-05
1.44882e-05
8.84575e-06
1.70494e-05
7.14495e-06
1.86506e-05
5.41955e-06
1.94903e-05
3.68113e-06
1.97372e-05
1.96382e-06
1.95272e-05
3.04286e-07
1.89815e-05
-1.26964e-06
1.82022e-05
-2.73459e-06
1.72696e-05
1.62228e-05
-4.01982e-06
6.41233e-07
-1.93433e-05
1.3697e-06
-2.3498e-05
2.25683e-06
-2.7267e-05
3.27094e-06
-3.12985e-05
4.35883e-06
-3.57261e-05
5.4871e-06
-4.06182e-05
6.63215e-06
-4.60114e-05
7.76797e-06
-5.19189e-05
8.85345e-06
-5.8321e-05
9.8215e-06
-6.5143e-05
1.05787e-05
-7.21793e-05
1.10671e-05
-7.9077e-05
1.1236e-05
-8.53566e-05
1.10319e-05
-9.03501e-05
1.06705e-05
-7.7696e-05
1.0119e-05
-6.93721e-05
9.39572e-06
-6.0529e-05
8.46744e-06
-5.1223e-05
7.22224e-06
-4.15296e-05
5.60301e-06
-3.14908e-05
3.73187e-06
-2.11083e-05
2.30736e-06
-9.93711e-06
2.75001e-06
-1.31774e-06
2.15138e-06
6.24072e-06
1.32904e-06
1.15697e-05
5.29186e-07
1.5282e-05
-1.78805e-07
1.77523e-05
-7.87515e-07
1.9255e-05
-1.31111e-06
2.00103e-05
-1.7647e-06
2.01881e-05
-2.16494e-06
1.99252e-05
-2.52696e-06
1.9342e-05
-2.86287e-06
1.85366e-05
-3.17786e-06
1.75831e-05
1.65566e-05
-3.5133e-06
2.5556e-07
-1.95996e-05
4.38303e-07
-2.36815e-05
5.53818e-07
-2.73835e-05
6.36763e-07
-3.13826e-05
7.11441e-07
-3.5802e-05
7.90401e-07
-4.06986e-05
8.82347e-07
-4.61051e-05
1.00159e-06
-5.20401e-05
1.15668e-06
-5.84784e-05
1.34506e-06
-6.53341e-05
1.58775e-06
-7.24252e-05
1.9208e-06
-7.94138e-05
2.35864e-06
-8.57988e-05
2.85169e-06
-9.08484e-05
3.1169e-06
-7.79665e-05
3.1732e-06
-6.9434e-05
2.99721e-06
-6.03589e-05
2.53251e-06
-5.07644e-05
1.68013e-06
-4.06836e-05
3.20848e-07
-3.01382e-05
-1.68229e-06
-1.91121e-05
-4.32137e-06
-7.30478e-06
-7.77865e-06
2.13353e-06
-1.03395e-05
8.79619e-06
-1.25476e-05
1.37731e-05
-1.45414e-05
1.72719e-05
-1.63761e-05
1.95836e-05
-1.80815e-05
2.09577e-05
-1.96747e-05
2.16013e-05
-2.11733e-05
2.1685e-05
-2.25974e-05
2.13479e-05
-2.39595e-05
2.07031e-05
-2.52642e-05
1.98405e-05
-2.65112e-05
1.88294e-05
1.77175e-05
-2.76727e-05
9.51659e-08
-1.96953e-05
1.98954e-07
-2.37859e-05
3.33604e-07
-2.75189e-05
4.87257e-07
-3.1537e-05
6.39978e-07
-3.59557e-05
7.67824e-07
-4.08275e-05
8.45286e-07
-4.61838e-05
8.38716e-07
-5.2035e-05
7.11731e-07
-5.83531e-05
4.24727e-07
-6.5049e-05
-6.16319e-08
-7.19411e-05
-7.6207e-07
-7.87161e-05
-1.6712e-06
-8.48929e-05
-2.80411e-06
-8.97193e-05
-3.90425e-06
-7.687e-05
-5.07707e-06
-6.8265e-05
-6.36624e-06
-5.90736e-05
-7.81244e-06
-4.93221e-05
-9.45613e-06
-3.90438e-05
-1.13254e-05
-2.82728e-05
-1.33978e-05
-1.70434e-05
-1.52911e-05
-5.41467e-06
-1.69062e-05
3.74581e-06
-1.8754e-05
1.06419e-05
-2.05536e-05
1.5571e-05
-2.22433e-05
1.89603e-05
-2.37967e-05
2.11362e-05
-2.52054e-05
2.23657e-05
-2.64715e-05
2.28672e-05
-2.76041e-05
2.28175e-05
-2.86156e-05
2.23596e-05
-2.95197e-05
2.16075e-05
-3.03308e-05
2.06518e-05
-3.10647e-05
1.95635e-05
1.84026e-05
-3.17495e-05
-9.95128e-08
-1.95964e-05
-3.03511e-07
-2.35826e-05
-5.9116e-07
-2.72321e-05
-9.5841e-07
-3.11707e-05
-1.39923e-06
-3.5516e-05
-1.9057e-06
-4.03224e-05
-2.47413e-06
-4.56169e-05
-3.10729e-06
-5.14036e-05
-3.81007e-06
-5.76523e-05
-4.58835e-06
-6.4273e-05
-5.44497e-06
-7.1087e-05
-6.36857e-06
-7.77953e-05
-7.35617e-06
-8.39085e-05
-8.44802e-06
-8.8631e-05
-9.52503e-06
-7.57962e-05
-1.06615e-05
-6.71316e-05
-1.18873e-05
-5.78506e-05
-1.32438e-05
-4.79684e-05
-1.4778e-05
-3.75123e-05
-1.65388e-05
-2.65145e-05
-1.85819e-05
-1.50026e-05
-2.08185e-05
-3.18007e-06
-2.30223e-05
5.94814e-06
-2.50553e-05
1.26736e-05
-2.69599e-05
1.74746e-05
-2.87388e-05
2.07386e-05
-3.03944e-05
2.27913e-05
-3.193e-05
2.3901e-05
-3.33497e-05
2.42867e-05
-3.46585e-05
2.41263e-05
-3.58617e-05
2.35629e-05
-3.69648e-05
2.27107e-05
-3.79733e-05
2.16605e-05
-3.88927e-05
2.04833e-05
1.92313e-05
-3.97208e-05
-2.15702e-07
-1.93813e-05
-4.94732e-07
-2.33044e-05
-8.18993e-07
-2.69087e-05
-1.20263e-06
-3.07881e-05
-1.65733e-06
-3.50624e-05
-2.2022e-06
-3.97788e-05
-2.85784e-06
-4.49627e-05
-3.64703e-06
-5.06161e-05
-4.59433e-06
-5.67069e-05
-5.72035e-06
-6.31491e-05
-7.03734e-06
-6.97725e-05
-8.55471e-06
-7.62807e-05
-1.02838e-05
-8.21825e-05
-1.22299e-05
-8.66882e-05
-1.40091e-05
-7.40198e-05
-1.57432e-05
-6.54003e-05
-1.74579e-05
-5.61384e-05
-1.91841e-05
-4.62445e-05
-2.09563e-05
-3.57423e-05
-2.28063e-05
-2.46664e-05
-2.47515e-05
-1.30592e-05
-2.65454e-05
-1.38772e-06
-2.82949e-05
7.69627e-06
-2.99578e-05
1.43354e-05
-3.15065e-05
1.90224e-05
-3.29276e-05
2.21588e-05
-3.42156e-05
2.40786e-05
-3.53718e-05
2.50565e-05
-3.64019e-05
2.53162e-05
-3.73148e-05
2.50386e-05
-3.81208e-05
2.43684e-05
-3.88311e-05
2.34206e-05
-3.94566e-05
2.22858e-05
-4.00078e-05
2.10344e-05
1.97223e-05
-4.04987e-05
-3.32655e-07
-1.90494e-05
-7.73932e-07
-2.28639e-05
-1.30995e-06
-2.63736e-05
-1.95663e-06
-3.01425e-05
-2.72704e-06
-3.42932e-05
-3.62458e-06
-3.88827e-05
-4.65107e-06
-4.39378e-05
-5.81285e-06
-4.94561e-05
-7.12069e-06
-5.54011e-05
-8.58775e-06
-6.16844e-05
-1.02271e-05
-6.81357e-05
-1.20504e-05
-7.44602e-05
-1.40657e-05
-8.01704e-05
-1.62789e-05
-8.44784e-05
-1.82924e-05
-7.20093e-05
-2.02222e-05
-6.34734e-05
-2.20771e-05
-5.42861e-05
-2.38761e-05
-4.44479e-05
-2.56449e-05
-3.39759e-05
-2.74118e-05
-2.29018e-05
-2.92064e-05
-1.12668e-05
-3.09505e-05
3.5421e-07
-3.24929e-05
9.23681e-06
-3.3894e-05
1.57347e-05
-3.51614e-05
2.02882e-05
-3.63018e-05
2.32977e-05
-3.73225e-05
2.50978e-05
-3.82315e-05
2.59642e-05
-3.90376e-05
2.61212e-05
-3.97499e-05
2.57498e-05
-4.03773e-05
2.49948e-05
-4.09286e-05
2.3971e-05
-4.14119e-05
2.27684e-05
-4.18349e-05
2.14569e-05
2.00894e-05
-4.22022e-05
-4.15395e-07
-1.86347e-05
-9.43326e-07
-2.23367e-05
-1.5784e-06
-2.57394e-05
-2.32574e-06
-2.93961e-05
-3.19281e-06
-3.34273e-05
-4.19345e-06
-3.78833e-05
-5.34742e-06
-4.27853e-05
-6.67638e-06
-4.81288e-05
-8.20263e-06
-5.38768e-05
-9.94822e-06
-5.9941e-05
-1.19325e-05
-6.61538e-05
-1.41699e-05
-7.22256e-05
-1.66663e-05
-7.76769e-05
-1.94131e-05
-8.17347e-05
-2.18747e-05
-6.95507e-05
-2.41889e-05
-6.1162e-05
-2.63545e-05
-5.21232e-05
-2.83778e-05
-4.24273e-05
-3.02723e-05
-3.20841e-05
-3.20562e-05
-2.11208e-05
-3.37463e-05
-9.57971e-06
-3.51859e-05
1.79095e-06
-3.64601e-05
1.05081e-05
-3.75634e-05
1.68353e-05
-3.85138e-05
2.12358e-05
-3.93259e-05
2.41072e-05
-4.00136e-05
2.5783e-05
-4.05903e-05
2.65385e-05
-4.10693e-05
2.65979e-05
-4.14635e-05
2.61418e-05
-4.17849e-05
2.53142e-05
-4.20448e-05
2.42289e-05
-4.2253e-05
2.2975e-05
-4.24185e-05
2.16211e-05
2.02202e-05
-4.25504e-05
-5.04736e-07
-1.81305e-05
-1.18262e-06
-2.16595e-05
-1.98781e-06
-2.49349e-05
-2.91197e-06
-2.84728e-05
-3.96418e-06
-3.2376e-05
-5.16194e-06
-3.66866e-05
-6.52604e-06
-4.14225e-05
-8.07819e-06
-4.65781e-05
-9.84118e-06
-5.21154e-05
-1.18381e-05
-5.79459e-05
-1.4091e-05
-6.39031e-05
-1.66178e-05
-6.97011e-05
-1.94277e-05
-7.48697e-05
-2.25141e-05
-7.86513e-05
-2.52842e-05
-6.67834e-05
-2.78801e-05
-5.8569e-05
-3.02861e-05
-4.972e-05
-3.24941e-05
-4.02223e-05
-3.45033e-05
-3.00781e-05
-3.63199e-05
-1.93077e-05
-3.79544e-05
-7.94897e-06
-3.92985e-05
3.13123e-06
-4.03816e-05
1.15873e-05
-4.1253e-05
1.77031e-05
-4.19498e-05
2.19291e-05
-4.2501e-05
2.4655e-05
-4.29302e-05
2.6209e-05
-4.32575e-05
2.68627e-05
-4.35e-05
2.68375e-05
-4.36728e-05
2.63118e-05
-4.37886e-05
2.54274e-05
-4.38584e-05
2.42964e-05
-4.38917e-05
2.30061e-05
-4.38963e-05
2.1624e-05
2.02008e-05
-4.38784e-05
-5.67502e-07
-1.75634e-05
-1.28188e-06
-2.09455e-05
-2.12518e-06
-2.40921e-05
-3.10738e-06
-2.74912e-05
-4.2452e-06
-3.12389e-05
-5.55827e-06
-3.53743e-05
-7.06819e-06
-3.99134e-05
-8.79844e-06
-4.48489e-05
-1.0774e-05
-5.0141e-05
-1.30204e-05
-5.57009e-05
-1.55618e-05
-6.13633e-05
-1.8418e-05
-6.68467e-05
-2.15997e-05
-7.16902e-05
-2.50985e-05
-7.5155e-05
-2.82348e-05
-6.36496e-05
-3.11685e-05
-5.56379e-05
-3.38762e-05
-4.70152e-05
-3.6338e-05
-3.77636e-05
-3.85403e-05
-2.78792e-05
-4.04767e-05
-1.73752e-05
-4.21463e-05
-6.28375e-06
-4.34386e-05
4.41908e-06
-4.44136e-05
1.25578e-05
-4.51364e-05
1.84214e-05
-4.56572e-05
2.24456e-05
-4.60156e-05
2.50092e-05
-4.62436e-05
2.6433e-05
-4.63673e-05
2.69826e-05
-4.64086e-05
2.68752e-05
-4.63857e-05
2.62855e-05
-4.63138e-05
2.53524e-05
-4.62057e-05
2.41853e-05
-4.60717e-05
2.28696e-05
-4.59205e-05
2.14705e-05
2.00376e-05
-4.57593e-05
-6.33666e-07
-1.69299e-05
-1.43527e-06
-2.01442e-05
-2.37978e-06
-2.31479e-05
-3.47472e-06
-2.63966e-05
-4.73554e-06
-2.99784e-05
-6.18189e-06
-3.39285e-05
-7.8365e-06
-3.82594e-05
-9.72469e-06
-4.29613e-05
-1.1874e-05
-4.79925e-05
-1.43132e-05
-5.32625e-05
-1.70711e-05
-5.86064e-05
-2.01731e-05
-6.37459e-05
-2.36358e-05
-6.8229e-05
-2.74576e-05
-7.13351e-05
-3.09012e-05
-6.0208e-05
-3.4137e-05
-5.24042e-05
-3.71337e-05
-4.40211e-05
-3.9861e-05
-3.50393e-05
-4.2293e-05
-2.54507e-05
-4.44099e-05
-1.52622e-05
-4.61992e-05
-4.49919e-06
-4.75402e-05
5.75517e-06
-4.85026e-05
1.35153e-05
-4.91678e-05
1.90818e-05
-4.96003e-05
2.28733e-05
-4.98509e-05
2.52552e-05
-4.99601e-05
2.65378e-05
-4.99605e-05
2.69789e-05
-4.98783e-05
2.67892e-05
-4.97349e-05
2.61384e-05
-4.95474e-05
2.51615e-05
-4.93298e-05
2.39646e-05
-4.90929e-05
2.263e-05
-4.88458e-05
2.12208e-05
1.97846e-05
-4.8595e-05
-6.85179e-07
-1.62448e-05
-1.53849e-06
-1.92909e-05
-2.53992e-06
-2.21465e-05
-3.70034e-06
-2.52362e-05
-5.03809e-06
-2.86408e-05
-6.57534e-06
-3.23913e-05
-8.33728e-06
-3.64976e-05
-1.03518e-05
-4.09471e-05
-1.2649e-05
-4.56956e-05
-1.52607e-05
-5.06512e-05
-1.82187e-05
-5.56489e-05
-2.15525e-05
-6.04128e-05
-2.52838e-05
-6.44986e-05
-2.94171e-05
-6.7203e-05
-3.31582e-05
-5.64684e-05
-3.66925e-05
-4.88716e-05
-3.9985e-05
-4.07308e-05
-4.29983e-05
-3.20287e-05
-4.56965e-05
-2.27557e-05
-4.80488e-05
-1.29139e-05
-5.0031e-05
-2.52166e-06
-5.1502e-05
7.22114e-06
-5.25388e-05
1.45471e-05
-5.32344e-05
1.97723e-05
-5.36636e-05
2.32975e-05
-5.38863e-05
2.54732e-05
-5.39507e-05
2.65976e-05
-5.3895e-05
2.69189e-05
-5.375e-05
2.66401e-05
-5.35404e-05
2.5925e-05
-5.32858e-05
2.49034e-05
-5.3002e-05
2.36775e-05
-5.27011e-05
2.23262e-05
-5.23929e-05
2.09099e-05
1.94741e-05
-5.20849e-05
-7.33028e-07
-1.55116e-05
-1.641e-06
-1.83828e-05
-2.7038e-06
-2.10836e-05
-3.93253e-06
-2.40074e-05
-5.34589e-06
-2.72273e-05
-6.96674e-06
-3.07704e-05
-8.82131e-06
-3.46429e-05
-1.0939e-05
-3.88292e-05
-1.33522e-05
-4.32823e-05
-1.60955e-05
-4.79078e-05
-1.9205e-05
-5.25394e-05
-2.27154e-05
-5.69023e-05
-2.66559e-05
-6.05583e-05
-3.10402e-05
-6.28191e-05
-3.50325e-05
-5.2477e-05
-3.88308e-05
-4.50746e-05
-4.23971e-05
-3.71662e-05
-4.56893e-05
-2.87388e-05
-4.86647e-05
-1.97832e-05
-5.12834e-05
-1.02988e-05
-5.351e-05
-2.99452e-07
-5.51753e-05
8.8816e-06
-5.63571e-05
1.5724e-05
-5.71556e-05
2.05658e-05
-5.76538e-05
2.37909e-05
-5.79194e-05
2.57341e-05
-5.80066e-05
2.66804e-05
-5.79594e-05
2.68674e-05
-5.78125e-05
2.64893e-05
-5.75938e-05
2.57026e-05
-5.73254e-05
2.46316e-05
-5.70247e-05
2.33737e-05
-5.67054e-05
2.20039e-05
-5.63779e-05
2.05797e-05
1.91441e-05
-5.60504e-05
-7.672e-07
-1.47442e-05
-1.7109e-06
-1.74389e-05
-2.81293e-06
-1.99813e-05
-4.08585e-06
-2.27341e-05
-5.54963e-06
-2.57632e-05
-7.22837e-06
-2.90912e-05
-9.14965e-06
-3.27212e-05
-1.13444e-05
-3.6634e-05
-1.38466e-05
-4.07796e-05
-1.66933e-05
-4.50606e-05
-1.99236e-05
-4.93086e-05
-2.35764e-05
-5.3249e-05
-2.76873e-05
-5.64472e-05
-3.22794e-05
-5.82268e-05
-3.6484e-05
-4.82727e-05
-4.05112e-05
-4.1048e-05
-4.4323e-05
-3.33556e-05
-4.78756e-05
-2.51879e-05
-5.11226e-05
-1.65386e-05
-5.4017e-05
-7.40754e-06
-5.65147e-05
2.19426e-06
-5.84152e-05
1.07777e-05
-5.97918e-05
1.70961e-05
-6.07482e-05
2.15176e-05
-6.13722e-05
2.44103e-05
-6.17366e-05
2.60941e-05
-6.1901e-05
2.68405e-05
-6.19134e-05
2.68757e-05
-6.18124e-05
2.63845e-05
-6.16289e-05
2.55156e-05
-6.13873e-05
2.43869e-05
-6.1107e-05
2.30904e-05
-6.08032e-05
2.16973e-05
-6.04873e-05
2.02613e-05
1.88228e-05
-6.01686e-05
-7.9502e-07
-1.39489e-05
-1.76776e-06
-1.64657e-05
-2.90124e-06
-1.88474e-05
-4.20854e-06
-2.14264e-05
-5.71008e-06
-2.42611e-05
-7.43048e-06
-2.73702e-05
-9.39808e-06
-3.07529e-05
-1.16448e-05
-3.43866e-05
-1.4206e-05
-3.82175e-05
-1.71209e-05
-4.21449e-05
-2.04313e-05
-4.59973e-05
-2.41807e-05
-4.94988e-05
-2.84106e-05
-5.22164e-05
-3.31541e-05
-5.34827e-05
-3.75206e-05
-4.3906e-05
-4.173e-05
-3.68388e-05
-4.57457e-05
-2.93405e-05
-4.95246e-05
-2.14102e-05
-5.30185e-05
-1.30466e-05
-5.61761e-05
-4.25248e-06
-5.89468e-05
4.96159e-06
-6.1098e-05
1.2925e-05
-6.26955e-05
1.86895e-05
-6.38425e-05
2.26604e-05
-6.4629e-05
2.51927e-05
-6.51311e-05
2.6592e-05
-6.54115e-05
2.71171e-05
-6.55217e-05
2.69823e-05
-6.55034e-05
2.63627e-05
-6.53899e-05
2.53989e-05
-6.52079e-05
2.42019e-05
-6.49785e-05
2.28582e-05
-6.47182e-05
2.14344e-05
-6.444e-05
1.99806e-05
1.85341e-05
-6.41536e-05
-8.12627e-07
-1.31359e-05
-1.80145e-06
-1.54765e-05
-2.95147e-06
-1.76969e-05
-4.27663e-06
-2.01007e-05
-5.79792e-06
-2.27392e-05
-7.54051e-06
-2.56269e-05
-9.53329e-06
-2.87594e-05
-1.18088e-05
-3.21102e-05
-1.44035e-05
-3.56218e-05
-1.73576e-05
-3.91897e-05
-2.07151e-05
-4.26387e-05
-2.45226e-05
-4.56901e-05
-2.8827e-05
-4.79108e-05
-3.36702e-05
-4.86385e-05
-3.81491e-05
-3.94264e-05
-4.24916e-05
-3.2496e-05
-4.66642e-05
-2.5168e-05
-5.06258e-05
-1.74494e-05
-5.43282e-05
-9.34551e-06
-5.77187e-05
-8.63996e-07
-6.07425e-05
7.98257e-06
-6.31372e-05
1.53165e-05
-6.49588e-05
2.05077e-05
-6.6308e-05
2.40059e-05
-6.7274e-05
2.6155e-05
-6.79339e-05
2.72484e-05
-6.83527e-05
2.75324e-05
-6.85838e-05
2.72101e-05
-6.86711e-05
2.64469e-05
-6.86498e-05
2.53748e-05
-6.85486e-05
2.4098e-05
-6.839e-05
2.26972e-05
-6.81921e-05
2.12341e-05
-6.79687e-05
1.9755e-05
1.82939e-05
-6.77308e-05
-8.2348e-07
-1.2312e-05
-1.81954e-06
-1.44799e-05
-2.97579e-06
-1.65401e-05
-4.30688e-06
-1.87689e-05
-5.83414e-06
-2.12112e-05
-7.5829e-06
-2.38773e-05
-9.58221e-06
-2.67591e-05
-1.18649e-05
-2.98265e-05
-1.44678e-05
-3.30178e-05
-1.74321e-05
-3.62241e-05
-2.08031e-05
-3.92664e-05
-2.46299e-05
-4.18618e-05
-2.89641e-05
-4.35751e-05
-3.38547e-05
-4.37465e-05
-3.83957e-05
-3.48844e-05
-4.28206e-05
-2.80704e-05
-4.70994e-05
-2.0889e-05
-5.11938e-05
-1.33553e-05
-5.50573e-05
-5.48278e-06
-5.86372e-05
2.71445e-06
-6.18769e-05
1.12201e-05
-6.44887e-05
1.79258e-05
-6.65184e-05
2.25344e-05
-6.80616e-05
2.55461e-05
-6.92055e-05
2.72958e-05
-7.00266e-05
2.80664e-05
-7.059e-05
2.80928e-05
-7.09505e-05
2.75678e-05
-7.11532e-05
2.66468e-05
-7.12347e-05
2.54539e-05
-7.1225e-05
2.4086e-05
-7.1148e-05
2.2618e-05
-7.10227e-05
2.11068e-05
-7.08642e-05
1.95944e-05
1.81118e-05
-7.0684e-05
-8.28592e-07
-1.14829e-05
-1.82121e-06
-1.34868e-05
-2.97204e-06
-1.53886e-05
-4.29662e-06
-1.74437e-05
-5.8163e-06
-1.96908e-05
-7.55629e-06
-2.21365e-05
-9.54542e-06
-2.4769e-05
-1.18164e-05
-2.75545e-05
-1.44059e-05
-3.0427e-05
-1.73555e-05
-3.32733e-05
-2.07111e-05
-3.59093e-05
-2.45236e-05
-3.80476e-05
-2.88477e-05
-3.92494e-05
-3.37383e-05
-3.88542e-05
-3.82945e-05
-3.03269e-05
-4.2753e-05
-2.36109e-05
-4.70876e-05
-1.65538e-05
-5.12632e-05
-9.17946e-06
-5.52362e-05
-1.5102e-06
-5.8955e-05
6.43231e-06
-6.23629e-05
1.46264e-05
-6.51524e-05
2.07133e-05
-6.73591e-05
2.47388e-05
-6.90733e-05
2.72578e-05
-7.03786e-05
2.85985e-05
-7.13494e-05
2.90345e-05
-7.20503e-05
2.87912e-05
-7.25361e-05
2.80511e-05
-7.28523e-05
2.69607e-05
-7.30363e-05
2.56358e-05
-7.31192e-05
2.41668e-05
-7.31254e-05
2.26224e-05
-7.30751e-05
2.10546e-05
-7.2984e-05
1.95015e-05
1.79904e-05
-7.28644e-05
-8.08016e-07
-1.06745e-05
-1.78956e-06
-1.25047e-05
-2.92976e-06
-1.42479e-05
-4.242e-06
-1.61308e-05
-5.74661e-06
-1.81854e-05
-7.46807e-06
-2.04142e-05
-9.43467e-06
-2.28014e-05
-1.16786e-05
-2.53094e-05
-1.42365e-05
-2.78678e-05
-1.71495e-05
-3.03588e-05
-2.04642e-05
-3.25931e-05
-2.42322e-05
-3.42779e-05
-2.85104e-05
-3.49694e-05
-3.33582e-05
-3.40046e-05
-3.78869e-05
-2.57967e-05
-4.23341e-05
-1.91626e-05
-4.6677e-05
-1.221e-05
-5.08842e-05
-4.97187e-06
-5.49149e-05
2.52047e-06
-5.872e-05
1.02369e-05
-6.22439e-05
1.81492e-05
-6.5165e-05
2.36328e-05
-6.75093e-05
2.70813e-05
-6.93618e-05
2.91082e-05
-7.08017e-05
3.00363e-05
-7.19008e-05
3.01315e-05
-7.27222e-05
2.96104e-05
-7.33197e-05
2.86466e-05
-7.37388e-05
2.73778e-05
-7.40173e-05
2.59125e-05
-7.41861e-05
2.43339e-05
-7.42708e-05
2.27054e-05
-7.42916e-05
2.10739e-05
-7.42649e-05
1.94733e-05
-7.42036e-05
1.79275e-05
2.51934e-05
3.32683e-05
8.8661e-06
3.28947e-05
-7.16671e-06
3.28844e-05
-2.28606e-05
3.28652e-05
-3.85235e-05
3.31941e-05
-5.40057e-05
3.33437e-05
-6.91989e-05
3.34199e-05
-8.38986e-05
3.32885e-05
-9.75123e-05
3.25714e-05
-0.000107927
2.97339e-05
-0.000112548
2.42746e-05
-0.000109956
1.70869e-05
-0.000100268
9.23301e-06
-8.48122e-05
2.69988e-06
-6.55884e-05
-1.85083e-06
-4.41306e-05
-4.81865e-06
-2.20386e-05
-6.21203e-06
-5.6879e-07
-6.35687e-06
1.86309e-05
-4.76615e-06
3.45997e-05
-2.21939e-06
4.66777e-05
1.06627e-06
3.6827e-06
5.55534e-05
0.000383133
3.98678e-05
0.000376847
3.90813e-05
0.000370927
3.86951e-05
0.000365809
3.78625e-05
0.000362972
3.58993e-05
0.000363811
3.23611e-05
0.000370052
2.70221e-05
0.000383563
1.96123e-05
0.000406273
9.68998e-06
0.000439691
-3.85809e-06
0.000484595
-2.08045e-05
0.000540086
-3.85777e-05
0.000602596
-5.34485e-05
0.000670407
-6.52884e-05
0.000740165
-7.1798e-05
0.000806494
-7.13467e-05
0.000862635
-6.25294e-05
0.000902063
-4.59141e-05
0.000919505
-2.22809e-05
0.000911414
5.85816e-06
0.000879736
3.27715e-05
5.70888e-05
0.000826408
0.000316953
-1.39831e-05
0.000368458
-1.22996e-05
0.000417551
-1.02658e-05
0.000462663
-7.1121e-06
0.000502541
-3.83727e-06
0.000536044
-1.00631e-06
0.0005625
6.90136e-07
0.000581266
9.49727e-07
0.000591328
-2.9912e-07
0.000589934
-2.43231e-06
0.000573553
-4.41943e-06
0.000540844
-5.88933e-06
0.00049387
-6.5156e-06
0.0004348
-6.27487e-06
0.000367296
-4.38019e-06
0.000297318
-1.49001e-06
0.000232179
2.51309e-06
0.000177297
8.91536e-06
0.000134797
2.01908e-05
0.000103753
3.69075e-05
8.14867e-05
5.50878e-05
7.36755e-05
6.49849e-05
0.000756163
-4.58295e-05
0.000785718
-4.19752e-05
0.000811132
-3.58056e-05
0.000831296
-2.73972e-05
0.000843793
-1.64502e-05
0.000844447
-1.76128e-06
0.000832675
1.23807e-05
0.000805142
2.84167e-05
0.00075938
4.54063e-05
0.000694156
6.27454e-05
0.000609611
8.00817e-05
0.000507911
9.57649e-05
0.000395713
0.000105628
0.000277264
0.000112102
0.000157821
0.000114988
4.24474e-05
0.000113804
-6.38292e-05
0.000108706
-0.00015674
0.000101742
-0.000232101
9.54684e-05
-0.000286799
9.15119e-05
-0.000322146
9.03346e-05
9.10385e-05
-0.000339605
-0.000148638
-1.39142e-05
-0.000178501
-1.20893e-05
-0.000204406
-9.87579e-06
-0.000224711
-7.06247e-06
-0.000238252
-2.87719e-06
-0.000242985
3.0089e-06
-0.000242941
1.23837e-05
-0.000238257
2.38042e-05
-0.000229524
3.67614e-05
-0.000217895
5.12158e-05
-0.000204492
6.67848e-05
-0.000190074
8.14329e-05
-0.000175123
9.0728e-05
-0.000160036
9.70344e-05
-0.000145579
0.000100531
-0.000133591
0.000101791
-0.000126495
0.000101554
-0.000125423
0.000100591
-0.000129737
9.96975e-05
-0.000137692
9.93803e-05
-0.000147153
9.97085e-05
0.000100591
-0.000156794
5.50387e-05
2.59922e-05
1.4108e-05
2.88579e-05
-2.75579e-05
3.18087e-05
-6.91311e-05
3.45317e-05
-0.000108954
3.69715e-05
-0.000145039
3.91225e-05
-0.000174038
4.14168e-05
-0.000194731
4.45326e-05
-0.000206827
4.88925e-05
-0.000210341
5.47688e-05
-0.000205696
6.21859e-05
-0.000194169
6.99588e-05
-0.000178689
7.53081e-05
-0.000161725
8.01351e-05
-0.000145182
8.40538e-05
-0.000130358