/*--------------------------------*- C++ -*----------------------------------*\
  =========                 |
  \\      /  F ield         | OpenFOAM: The Open Source CFD Toolbox
   \\    /   O peration     | Website:  https://openfoam.org
    \\  /    A nd           | Version:  8
     \\/     M anipulation  |
\*---------------------------------------------------------------------------*/
FoamFile
{
    version     2.0;
    format      ascii;
    class       volScalarField;
    location    "0.41";
    object      rho;
}
// * * * * * * * * * * * * * * * * * * * * * * * * * * * * * * * * * * * * * //

dimensions      [1 -3 0 0 0 0 0];

internalField   nonuniform List<scalar> 
15677
(
1.28924
1.28908
1.2887
1.28843
1.2881
1.28774
1.28734
1.28692
1.28647
1.28601
1.2855
1.28494
1.28431
1.28361
1.28308
1.28282
1.28267
1.28256
1.28246
1.28253
1.28279
1.28302
1.28311
1.28308
1.28298
1.28286
1.28273
1.28259
1.28247
1.28238
1.28232
1.28229
1.28228
1.28231
1.28232
1.09943
1.09894
1.09825
1.09744
1.09667
1.09599
1.09541
1.09487
1.09436
1.09392
1.0936
1.0938
1.09443
1.09548
1.09622
1.09633
1.09592
1.09535
1.09494
1.09473
1.09472
1.09444
1.09415
1.09385
1.09358
1.09334
1.09313
1.09295
1.0928
1.09268
1.09259
1.09252
1.09247
1.09243
1.09238
1.22302
1.22316
1.22323
1.22321
1.22306
1.22271
1.22215
1.22144
1.22068
1.22005
1.21984
1.21972
1.22012
1.22109
1.22225
1.22282
1.22299
1.2231
1.22332
1.22366
1.2239
1.22473
1.22588
1.22717
1.22843
1.22956
1.23052
1.23132
1.23198
1.23253
1.23296
1.23331
1.23361
1.23389
1.23414
1.1358
1.13606
1.13624
1.1364
1.13653
1.13664
1.1367
1.13669
1.13657
1.13632
1.13606
1.13608
1.13627
1.13655
1.13659
1.13665
1.13656
1.13626
1.13578
1.1354
1.13534
1.13538
1.13543
1.13532
1.13505
1.13464
1.1341
1.13353
1.1329
1.13225
1.13161
1.13097
1.13037
1.12984
1.12939
1.19443
1.19464
1.19488
1.19516
1.19547
1.19582
1.19623
1.19668
1.19715
1.19763
1.1981
1.19853
1.19882
1.19895
1.19904
1.19904
1.19895
1.19886
1.19876
1.19864
1.19837
1.1984
1.19866
1.19904
1.19937
1.19957
1.1997
1.19979
1.19988
1.19998
1.20008
1.20016
1.20023
1.20031
1.20037
1.15584
1.15595
1.15602
1.15605
1.15604
1.15597
1.15584
1.15564
1.15538
1.15506
1.15475
1.15452
1.15428
1.15399
1.15377
1.1536
1.15347
1.15335
1.15326
1.15319
1.15319
1.15324
1.15331
1.15339
1.15347
1.15356
1.15364
1.15375
1.15387
1.15399
1.1541
1.15419
1.15425
1.15429
1.15435
1.18643
1.18643
1.18644
1.18644
1.18646
1.18647
1.18651
1.18656
1.18663
1.18672
1.18684
1.18698
1.18715
1.18733
1.18751
1.18767
1.1878
1.18791
1.18798
1.18804
1.18808
1.18811
1.18815
1.18819
1.18824
1.18827
1.18831
1.18833
1.18834
1.18837
1.18842
1.18847
1.1885
1.18854
1.18856
1.16128
1.16126
1.16127
1.16128
1.16129
1.1613
1.16131
1.16132
1.16133
1.16133
1.16132
1.16132
1.1613
1.16125
1.16118
1.16111
1.16105
1.161
1.16095
1.16089
1.16084
1.16081
1.16081
1.16084
1.16093
1.16104
1.16115
1.16124
1.16135
1.16144
1.16152
1.16159
1.16167
1.16172
1.16179
1.17955
1.17955
1.17954
1.17953
1.17951
1.1795
1.17948
1.17946
1.17943
1.1794
1.17936
1.17932
1.17929
1.17928
1.1793
1.17933
1.17939
1.17945
1.17953
1.17961
1.17972
1.17983
1.17994
1.18005
1.18007
1.18004
1.18002
1.18
1.17996
1.17991
1.17985
1.1798
1.17975
1.1797
1.17964
1.16645
1.16646
1.16648
1.1665
1.16652
1.16654
1.16657
1.16661
1.16664
1.16668
1.16671
1.16673
1.16675
1.16676
1.16675
1.16672
1.16667
1.16662
1.16657
1.16652
1.16647
1.16643
1.16639
1.16643
1.16652
1.16664
1.16673
1.16679
1.16686
1.16693
1.167
1.16706
1.16713
1.16718
1.16724
1.17487
1.17487
1.17486
1.17486
1.17485
1.17485
1.17483
1.17482
1.1748
1.17477
1.17475
1.17473
1.17471
1.1747
1.17471
1.17472
1.17476
1.17481
1.17487
1.17494
1.17502
1.1751
1.1752
1.17524
1.17522
1.17522
1.17521
1.1752
1.17519
1.17518
1.17516
1.17514
1.17512
1.1751
1.17507
1.1694
1.16941
1.16942
1.16944
1.16945
1.16947
1.16949
1.16951
1.16953
1.16956
1.16959
1.16962
1.16964
1.16965
1.16964
1.16963
1.16961
1.16958
1.16955
1.16952
1.16949
1.16946
1.16942
1.16945
1.16952
1.16957
1.16962
1.16966
1.1697
1.16975
1.16979
1.16984
1.16988
1.16991
1.16995
1.17278
1.17278
1.17278
1.17278
1.17278
1.17278
1.17278
1.17277
1.17277
1.17276
1.17275
1.17273
1.17271
1.1727
1.1727
1.17271
1.17273
1.17276
1.17279
1.17283
1.17288
1.17293
1.17302
1.17301
1.17302
1.17304
1.17305
1.17306
1.17307
1.17307
1.17308
1.17309
1.17309
1.17309
1.1731
1.17077
1.17078
1.17079
1.1708
1.1708
1.17081
1.17082
1.17084
1.17085
1.17086
1.17088
1.1709
1.17091
1.17093
1.17093
1.17093
1.17093
1.17092
1.17091
1.17091
1.1709
1.1709
1.17088
1.17093
1.17096
1.17099
1.17103
1.17106
1.17109
1.17113
1.17116
1.17119
1.17122
1.17124
1.17127
1.17205
1.17205
1.17206
1.17206
1.17206
1.17206
1.17206
1.17206
1.17206
1.17205
1.17204
1.17203
1.17202
1.17201
1.17201
1.17201
1.17202
1.17203
1.17205
1.17207
1.17211
1.17215
1.17219
1.17221
1.17224
1.17226
1.17229
1.17231
1.17234
1.17236
1.17238
1.17239
1.17241
1.17242
1.17243
1.17141
1.17141
1.17142
1.17142
1.17142
1.17143
1.17143
1.17143
1.17144
1.17144
1.17145
1.17146
1.17147
1.17147
1.17148
1.17148
1.17149
1.17149
1.1715
1.17151
1.17152
1.17153
1.17156
1.17159
1.17162
1.17165
1.17168
1.17171
1.17174
1.17177
1.1718
1.17182
1.17185
1.17187
1.17189
1.1719
1.17191
1.17191
1.17191
1.17191
1.17191
1.17191
1.1719
1.1719
1.17189
1.17188
1.17187
1.17187
1.17186
1.17185
1.17185
1.17186
1.17187
1.17188
1.1719
1.17192
1.17195
1.17198
1.17201
1.17204
1.17208
1.17211
1.17213
1.17216
1.17219
1.17221
1.17223
1.17225
1.17227
1.17228
1.17176
1.17176
1.17176
1.17176
1.17176
1.17176
1.17176
1.17176
1.17176
1.17175
1.17175
1.17175
1.17175
1.17175
1.17175
1.17175
1.17176
1.17176
1.17177
1.17179
1.1718
1.17182
1.17185
1.17188
1.17191
1.17194
1.17197
1.172
1.17203
1.17205
1.17208
1.1721
1.17212
1.17214
1.17216
1.17199
1.17199
1.17199
1.17199
1.17198
1.17198
1.17197
1.17197
1.17196
1.17195
1.17194
1.17193
1.17192
1.17191
1.17191
1.1719
1.1719
1.17191
1.17192
1.17193
1.17195
1.17197
1.172
1.17203
1.17206
1.17209
1.17212
1.17214
1.17217
1.1722
1.17222
1.17224
1.17226
1.17228
1.17229
1.17201
1.17201
1.17201
1.17201
1.172
1.172
1.17199
1.17199
1.17198
1.17197
1.17196
1.17196
1.17195
1.17194
1.17194
1.17193
1.17193
1.17193
1.17193
1.17194
1.17196
1.17198
1.17201
1.17203
1.17206
1.17209
1.17212
1.17214
1.17217
1.17219
1.17222
1.17224
1.17226
1.17227
1.17229
1.17215
1.17215
1.17215
1.17215
1.17214
1.17213
1.17212
1.17212
1.1721
1.17209
1.17208
1.17207
1.17205
1.17204
1.17203
1.17202
1.17201
1.17201
1.17201
1.17202
1.17203
1.17205
1.17207
1.1721
1.17213
1.17215
1.17218
1.17221
1.17223
1.17225
1.17228
1.1723
1.17232
1.17233
1.17234
1.17224
1.17224
1.17223
1.17223
1.17222
1.17221
1.1722
1.17219
1.17218
1.17216
1.17215
1.17214
1.17212
1.17211
1.17209
1.17208
1.17207
1.17207
1.17207
1.17207
1.17208
1.17209
1.17211
1.17214
1.17216
1.17219
1.17221
1.17224
1.17226
1.17228
1.17231
1.17233
1.17235
1.17236
1.17237
1.17235
1.17235
1.17235
1.17234
1.17233
1.17232
1.17231
1.17229
1.17228
1.17226
1.17225
1.17223
1.17221
1.17219
1.17217
1.17216
1.17215
1.17214
1.17213
1.17213
1.17214
1.17215
1.17217
1.17219
1.17221
1.17223
1.17226
1.17228
1.1723
1.17233
1.17235
1.17237
1.17239
1.17241
1.17241
1.17245
1.17245
1.17245
1.17244
1.17242
1.17241
1.1724
1.17238
1.17236
1.17235
1.17233
1.17231
1.17229
1.17227
1.17225
1.17223
1.17222
1.1722
1.1722
1.17219
1.17219
1.1722
1.17221
1.17223
1.17225
1.17228
1.1723
1.17232
1.17234
1.17237
1.17239
1.17241
1.17243
1.17245
1.17245
1.17256
1.17256
1.17255
1.17254
1.17252
1.17251
1.17249
1.17248
1.17246
1.17244
1.17242
1.1724
1.17237
1.17235
1.17233
1.17231
1.17229
1.17227
1.17226
1.17225
1.17225
1.17226
1.17227
1.17228
1.1723
1.17232
1.17234
1.17237
1.17239
1.17241
1.17243
1.17245
1.17247
1.17249
1.17249
1.17266
1.17265
1.17264
1.17263
1.17262
1.1726
1.17258
1.17256
1.17254
1.17252
1.1725
1.17248
1.17245
1.17243
1.1724
1.17238
1.17236
1.17234
1.17233
1.17232
1.17231
1.17231
1.17232
1.17233
1.17235
1.17237
1.17239
1.17241
1.17243
1.17245
1.17247
1.1725
1.17252
1.17253
1.17253
1.17275
1.17275
1.17274
1.17272
1.17271
1.17269
1.17267
1.17265
1.17263
1.1726
1.17258
1.17256
1.17253
1.1725
1.17248
1.17245
1.17243
1.17241
1.17239
1.17238
1.17237
1.17237
1.17238
1.17239
1.1724
1.17242
1.17244
1.17246
1.17248
1.1725
1.17252
1.17254
1.17256
1.17257
1.17257
1.17284
1.17284
1.17283
1.17281
1.17279
1.17277
1.17275
1.17273
1.1727
1.17268
1.17266
1.17263
1.1726
1.17258
1.17255
1.17253
1.1725
1.17248
1.17246
1.17244
1.17243
1.17243
1.17243
1.17244
1.17245
1.17247
1.17248
1.1725
1.17252
1.17254
1.17256
1.17258
1.1726
1.17262
1.17261
1.17292
1.17292
1.17291
1.17289
1.17287
1.17285
1.17283
1.1728
1.17278
1.17275
1.17273
1.1727
1.17267
1.17265
1.17262
1.17259
1.17257
1.17255
1.17252
1.17251
1.17249
1.17249
1.17249
1.17249
1.1725
1.17251
1.17253
1.17255
1.17257
1.17258
1.1726
1.17262
1.17264
1.17266
1.17265
1.173
1.173
1.17298
1.17296
1.17294
1.17292
1.1729
1.17287
1.17285
1.17282
1.17279
1.17277
1.17274
1.17271
1.17268
1.17266
1.17263
1.17261
1.17259
1.17257
1.17255
1.17254
1.17254
1.17254
1.17255
1.17256
1.17258
1.17259
1.17261
1.17263
1.17264
1.17266
1.17268
1.17269
1.17268
1.28249
1.28313
1.28352
1.28414
1.2846
1.28515
1.28564
1.28611
1.28654
1.28694
1.28733
1.28771
1.28808
1.28845
1.28881
1.28935
1.29006
1.291
1.29217
1.29367
1.29514
1.297
1.09231
1.09209
1.09183
1.09154
1.09119
1.09074
1.09016
1.08945
1.08863
1.08773
1.0868
1.08586
1.08489
1.08388
1.08281
1.0817
1.08069
1.08004
1.0798
1.0799
1.08039
1.08121
1.23431
1.23465
1.23506
1.23552
1.23605
1.23661
1.23719
1.23776
1.23826
1.23861
1.23873
1.2387
1.2386
1.23839
1.23795
1.2372
1.23651
1.2361
1.23601
1.23615
1.2365
1.2371
1.12906
1.1285
1.12789
1.12736
1.12693
1.12665
1.12658
1.1266
1.12671
1.12691
1.12721
1.12757
1.12795
1.12825
1.12851
1.12877
1.12897
1.12909
1.12911
1.12913
1.12915
1.1292
1.20034
1.2002
1.20009
1.20001
1.2
1.20001
1.2
1.20016
1.2005
1.20097
1.20157
1.20223
1.20285
1.20332
1.20363
1.20379
1.20372
1.2034
1.20295
1.20243
1.20184
1.20116
1.15448
1.15467
1.15481
1.15493
1.15503
1.15514
1.15527
1.1554
1.15556
1.1558
1.15616
1.15659
1.15703
1.15747
1.15788
1.15823
1.15852
1.15875
1.15894
1.1591
1.15922
1.1593
1.18849
1.18842
1.18834
1.18822
1.18807
1.18789
1.18767
1.18744
1.1872
1.18691
1.18659
1.18625
1.18591
1.18558
1.18524
1.18491
1.18458
1.18423
1.18386
1.18349
1.18311
1.18271
1.16201
1.16228
1.16256
1.16286
1.16319
1.16353
1.1639
1.16429
1.1647
1.16512
1.16554
1.16597
1.16638
1.16678
1.16715
1.16749
1.16779
1.16806
1.16828
1.16846
1.16861
1.16873
1.1795
1.17931
1.17912
1.17893
1.17873
1.17853
1.17832
1.1781
1.17788
1.17766
1.17744
1.17723
1.17703
1.17684
1.17668
1.17653
1.17639
1.17625
1.17612
1.17599
1.17585
1.1757
1.16743
1.16762
1.16781
1.16801
1.16822
1.16845
1.16867
1.1689
1.16914
1.16937
1.16961
1.16984
1.17007
1.17027
1.17046
1.17063
1.1708
1.17096
1.1711
1.17122
1.17133
1.17144
1.175
1.17488
1.17476
1.17463
1.17451
1.17438
1.17425
1.17412
1.17399
1.17387
1.17375
1.17364
1.17354
1.17345
1.17337
1.17331
1.17325
1.17321
1.17317
1.17314
1.17311
1.17309
1.17008
1.17019
1.1703
1.17041
1.17052
1.17063
1.17075
1.17086
1.17097
1.17108
1.1712
1.17131
1.17141
1.1715
1.17158
1.17166
1.17173
1.1718
1.17186
1.17191
1.17197
1.17203
1.17308
1.17301
1.17295
1.17289
1.17282
1.17276
1.1727
1.17265
1.17259
1.17254
1.17249
1.17245
1.17241
1.17238
1.17236
1.17234
1.17232
1.17232
1.17231
1.17231
1.17231
1.17233
1.17135
1.17141
1.17147
1.17154
1.1716
1.17166
1.17172
1.17177
1.17182
1.17186
1.1719
1.17194
1.17197
1.172
1.17202
1.17204
1.17207
1.17209
1.17211
1.17213
1.17215
1.17218
1.17243
1.17241
1.1724
1.17239
1.17238
1.17237
1.17236
1.17235
1.17234
1.17233
1.17231
1.1723
1.17229
1.17228
1.17227
1.17227
1.17226
1.17226
1.17226
1.17226
1.17226
1.17228
1.17194
1.17198
1.17202
1.17205
1.17209
1.17213
1.17216
1.17219
1.17222
1.17224
1.17226
1.17228
1.17229
1.17229
1.1723
1.1723
1.1723
1.17231
1.17231
1.17231
1.17231
1.17233
1.17229
1.1723
1.17231
1.17232
1.17233
1.17234
1.17236
1.17237
1.17238
1.17239
1.1724
1.1724
1.17241
1.17241
1.17241
1.17241
1.17241
1.17241
1.1724
1.1724
1.1724
1.1724
1.17219
1.17222
1.17224
1.17227
1.1723
1.17233
1.17236
1.17238
1.1724
1.17242
1.17244
1.17245
1.17246
1.17247
1.17247
1.17247
1.17247
1.17246
1.17246
1.17246
1.17246
1.17246
1.17231
1.17232
1.17234
1.17236
1.17238
1.17241
1.17243
1.17245
1.17247
1.17249
1.1725
1.17252
1.17253
1.17254
1.17254
1.17254
1.17254
1.17253
1.17253
1.17252
1.17252
1.17251
1.17232
1.17233
1.17236
1.17238
1.17241
1.17243
1.17246
1.17248
1.1725
1.17253
1.17254
1.17256
1.17257
1.17258
1.17259
1.17259
1.17259
1.17259
1.17258
1.17258
1.17257
1.17256
1.17238
1.17239
1.1724
1.17243
1.17245
1.17247
1.1725
1.17252
1.17254
1.17257
1.17259
1.1726
1.17262
1.17263
1.17263
1.17264
1.17264
1.17264
1.17263
1.17263
1.17262
1.1726
1.17241
1.17242
1.17244
1.17246
1.17248
1.17251
1.17253
1.17256
1.17258
1.1726
1.17262
1.17264
1.17266
1.17267
1.17268
1.17268
1.17269
1.17268
1.17268
1.17268
1.17267
1.17265
1.17246
1.17246
1.17248
1.1725
1.17252
1.17255
1.17257
1.17259
1.17262
1.17264
1.17266
1.17268
1.1727
1.17271
1.17272
1.17273
1.17273
1.17273
1.17273
1.17272
1.17272
1.1727
1.1725
1.1725
1.17252
1.17254
1.17256
1.17258
1.17261
1.17263
1.17266
1.17268
1.1727
1.17272
1.17274
1.17276
1.17277
1.17277
1.17278
1.17278
1.17278
1.17277
1.17277
1.17274
1.17255
1.17254
1.17256
1.17258
1.1726
1.17263
1.17265
1.17267
1.1727
1.17272
1.17274
1.17277
1.17279
1.1728
1.17281
1.17282
1.17283
1.17283
1.17283
1.17282
1.17282
1.1728
1.17259
1.17258
1.1726
1.17262
1.17264
1.17267
1.17269
1.17271
1.17274
1.17276
1.17279
1.17281
1.17283
1.17285
1.17286
1.17287
1.17288
1.17288
1.17288
1.17288
1.17287
1.17285
1.17264
1.17262
1.17264
1.17266
1.17269
1.17271
1.17273
1.17276
1.17278
1.17281
1.17283
1.17286
1.17288
1.17289
1.17291
1.17292
1.17293
1.17293
1.17293
1.17293
1.17293
1.17291
1.17268
1.17267
1.17268
1.1727
1.17273
1.17275
1.17277
1.1728
1.17283
1.17285
1.17288
1.1729
1.17292
1.17294
1.17296
1.17297
1.17298
1.17299
1.17299
1.17299
1.17298
1.17297
1.17272
1.1727
1.17272
1.17274
1.17276
1.17279
1.17281
1.17284
1.17287
1.17289
1.17292
1.17295
1.17297
1.17299
1.17301
1.17302
1.17303
1.17304
1.17304
1.17304
1.17304
1.17304
1.17275
1.17274
1.17276
1.17278
1.1728
1.17282
1.17285
1.17288
1.17291
1.17293
1.17296
1.17299
1.17302
1.17304
1.17306
1.17307
1.17309
1.17309
1.1731
1.1731
1.1731
1.1731
1.29851
1.2996
1.30091
1.3021
1.303
1.30313
1.08241
1.08407
1.08588
1.08741
1.08839
1.08869
1.23784
1.23914
1.24056
1.24177
1.2425
1.24275
1.12931
1.12965
1.13023
1.13083
1.13137
1.13197
1.20054
1.19997
1.19947
1.19915
1.19915
1.19938
1.15932
1.15913
1.159
1.1589
1.15875
1.15852
1.1824
1.1821
1.18183
1.1816
1.18145
1.18135
1.16877
1.16868
1.16861
1.16854
1.16846
1.16839
1.17557
1.17546
1.17535
1.17525
1.17518
1.1751
1.17149
1.17151
1.17151
1.17151
1.17152
1.17153
1.17305
1.17304
1.17303
1.17301
1.173
1.17301
1.17204
1.17207
1.17209
1.17211
1.17213
1.17218
1.17231
1.17234
1.17236
1.17237
1.1724
1.17244
1.17217
1.17221
1.17224
1.17226
1.17229
1.17234
1.17226
1.17229
1.17231
1.17234
1.17236
1.1724
1.17232
1.17235
1.17237
1.17239
1.17241
1.17245
1.17239
1.17241
1.17242
1.17244
1.17246
1.17248
1.17247
1.17248
1.1725
1.17251
1.17252
1.17253
1.17252
1.17253
1.17254
1.17254
1.17255
1.17255
1.17258
1.17257
1.17258
1.17258
1.17259
1.17258
1.17262
1.17262
1.17262
1.17262
1.17262
1.1726
1.17267
1.17266
1.17266
1.17266
1.17266
1.17264
1.17271
1.1727
1.1727
1.1727
1.1727
1.17268
1.17276
1.17275
1.17275
1.17275
1.17275
1.17272
1.17281
1.17281
1.17281
1.17281
1.1728
1.17278
1.17286
1.17286
1.17286
1.17286
1.17286
1.17285
1.17291
1.17292
1.17293
1.17293
1.17293
1.17292
1.17297
1.17298
1.17299
1.17299
1.173
1.17299
1.17303
1.17305
1.17305
1.17306
1.17306
1.17306
1.17308
1.17311
1.17312
1.17313
1.17313
1.17314
1.30169
1.29983
1.29844
1.29703
1.29573
1.29438
1.29302
1.29201
1.29146
1.291
1.29073
1.29057
1.29042
1.29018
1.2897
1.2891
1.28847
1.28773
1.28706
1.28633
1.28575
1.28504
1.08795
1.0871
1.08616
1.08521
1.08439
1.08392
1.08379
1.08398
1.08462
1.08569
1.08705
1.08847
1.08946
1.09015
1.09068
1.091
1.0912
1.09134
1.09144
1.09154
1.09166
1.09177
1.24258
1.24206
1.24132
1.24056
1.23988
1.23937
1.23916
1.23923
1.23944
1.23979
1.24013
1.24032
1.2402
1.23976
1.23907
1.23819
1.23726
1.23638
1.23558
1.23483
1.23417
1.23363
1.13215
1.13198
1.13176
1.13156
1.13126
1.1309
1.1306
1.13028
1.12989
1.12934
1.1288
1.12833
1.12787
1.12752
1.1274
1.12759
1.12802
1.12858
1.12921
1.12987
1.13054
1.13109
1.19985
1.20036
1.20083
1.20128
1.20172
1.20217
1.20267
1.20312
1.20327
1.20298
1.20236
1.20154
1.20071
1.20005
1.19963
1.19945
1.1995
1.19966
1.19984
1.20002
1.2002
1.2004
1.15824
1.15778
1.1573
1.15673
1.15607
1.15534
1.15455
1.15371
1.15295
1.15229
1.15168
1.15116
1.15081
1.15059
1.15045
1.15034
1.15024
1.15019
1.15019
1.15022
1.15026
1.15032
1.18144
1.18159
1.18175
1.18193
1.18211
1.18229
1.1825
1.18278
1.18313
1.18352
1.18395
1.18441
1.18489
1.18537
1.18584
1.1863
1.18673
1.18708
1.18732
1.18746
1.18755
1.18766
1.16829
1.1681
1.1679
1.16768
1.16743
1.16715
1.16684
1.16648
1.16611
1.16576
1.16541
1.16507
1.16473
1.16439
1.16407
1.16376
1.16345
1.16314
1.16285
1.16259
1.16234
1.16209
1.17508
1.17512
1.17519
1.17529
1.17541
1.17554
1.1757
1.17588
1.1761
1.17633
1.17659
1.17687
1.17717
1.17747
1.17776
1.17804
1.1783
1.17855
1.17878
1.179
1.1792
1.17939
1.17149
1.17145
1.17141
1.17136
1.1713
1.17124
1.17117
1.17109
1.17099
1.17087
1.17073
1.17058
1.17041
1.17024
1.17006
1.16987
1.16968
1.16949
1.1693
1.1691
1.1689
1.1687
1.17298
1.17302
1.17305
1.17309
1.17316
1.17324
1.17333
1.17343
1.17354
1.17368
1.17383
1.17399
1.17416
1.17432
1.17448
1.17462
1.17474
1.17485
1.17496
1.17506
1.17515
1.17523
1.17216
1.17219
1.1722
1.17222
1.17225
1.17228
1.17231
1.17234
1.17236
1.17237
1.17237
1.17235
1.17231
1.17225
1.17217
1.17209
1.17199
1.17188
1.17175
1.17163
1.17151
1.17138
1.17243
1.17249
1.17253
1.17258
1.17263
1.17268
1.17274
1.1728
1.17286
1.17293
1.173
1.17306
1.17312
1.17317
1.17322
1.17326
1.17328
1.17331
1.17333
1.17336
1.17339
1.17342
1.17234
1.17239
1.17243
1.17246
1.1725
1.17254
1.17257
1.17261
1.17264
1.17266
1.17267
1.17267
1.17265
1.17263
1.17259
1.17255
1.1725
1.17245
1.17239
1.17233
1.17227
1.17221
1.17241
1.17246
1.17249
1.17253
1.17257
1.1726
1.17264
1.17267
1.17269
1.17271
1.17273
1.17274
1.17274
1.17275
1.17274
1.17274
1.17273
1.17273
1.17273
1.17272
1.17272
1.17273
1.17246
1.17249
1.17252
1.17254
1.17257
1.1726
1.17262
1.17263
1.17264
1.17264
1.17264
1.17263
1.17261
1.17259
1.17257
1.17254
1.17251
1.17249
1.17246
1.17243
1.1724
1.17238
1.1725
1.17253
1.17255
1.17257
1.17259
1.1726
1.17261
1.17262
1.17262
1.17262
1.17261
1.1726
1.17259
1.17257
1.17256
1.17255
1.17254
1.17253
1.17252
1.17252
1.17251
1.17252
1.17255
1.17256
1.17257
1.17258
1.17259
1.1726
1.1726
1.1726
1.17259
1.17259
1.17258
1.17256
1.17255
1.17253
1.17252
1.17251
1.17249
1.17248
1.17247
1.17247
1.17246
1.17247
1.17258
1.17258
1.17259
1.17259
1.17259
1.17259
1.17259
1.17259
1.17258
1.17258
1.17257
1.17256
1.17255
1.17254
1.17253
1.17253
1.17252
1.17252
1.17252
1.17253
1.17253
1.17255
1.1726
1.1726
1.1726
1.1726
1.1726
1.1726
1.1726
1.17259
1.17259
1.17258
1.17258
1.17257
1.17257
1.17256
1.17256
1.17256
1.17256
1.17257
1.17257
1.17258
1.17259
1.17261
1.17263
1.17262
1.17262
1.17262
1.17262
1.17262
1.17262
1.17262
1.17262
1.17261
1.17261
1.17261
1.17261
1.17262
1.17262
1.17263
1.17264
1.17265
1.17266
1.17267
1.17268
1.17271
1.17266
1.17265
1.17266
1.17266
1.17266
1.17266
1.17266
1.17266
1.17266
1.17266
1.17267
1.17267
1.17268
1.17269
1.1727
1.17271
1.17272
1.17274
1.17275
1.17277
1.17278
1.1728
1.1727
1.17269
1.1727
1.1727
1.17271
1.17271
1.17271
1.17272
1.17273
1.17273
1.17274
1.17275
1.17277
1.17278
1.17279
1.17281
1.17282
1.17284
1.17286
1.17287
1.17289
1.17291
1.17275
1.17275
1.17275
1.17276
1.17277
1.17277
1.17278
1.17279
1.1728
1.17282
1.17283
1.17284
1.17286
1.17288
1.1729
1.17291
1.17293
1.17295
1.17296
1.17298
1.17299
1.17301
1.17281
1.17281
1.17282
1.17283
1.17284
1.17285
1.17286
1.17288
1.17289
1.17291
1.17293
1.17294
1.17296
1.17298
1.173
1.17302
1.17303
1.17305
1.17306
1.17307
1.17309
1.1731
1.17287
1.17287
1.17289
1.1729
1.17292
1.17293
1.17295
1.17297
1.17298
1.173
1.17302
1.17304
1.17306
1.17308
1.1731
1.17312
1.17313
1.17314
1.17315
1.17316
1.17317
1.17318
1.17293
1.17295
1.17296
1.17298
1.173
1.17302
1.17304
1.17306
1.17308
1.1731
1.17312
1.17314
1.17316
1.17318
1.17319
1.17321
1.17322
1.17323
1.17324
1.17324
1.17325
1.17325
1.173
1.17302
1.17304
1.17306
1.17308
1.17311
1.17313
1.17315
1.17317
1.1732
1.17322
1.17324
1.17325
1.17327
1.17328
1.17329
1.1733
1.17331
1.17331
1.17331
1.17331
1.17331
1.17307
1.1731
1.17312
1.17315
1.17317
1.17319
1.17322
1.17324
1.17326
1.17329
1.17331
1.17332
1.17334
1.17335
1.17336
1.17337
1.17337
1.17337
1.17337
1.17337
1.17337
1.17337
1.17314
1.17317
1.1732
1.17323
1.17325
1.17328
1.1733
1.17333
1.17335
1.17337
1.17339
1.17341
1.17342
1.17343
1.17343
1.17344
1.17344
1.17343
1.17343
1.17342
1.17342
1.17341
1.28479
1.28477
1.28472
1.2847
1.28468
1.28465
1.28461
1.28454
1.28446
1.28436
1.28426
1.28415
1.28408
1.28408
1.28413
1.28426
1.28441
1.28455
1.28467
1.28477
1.28494
1.28534
1.28591
1.28638
1.28683
1.28727
1.28768
1.2881
1.28851
1.28888
1.28922
1.28952
1.28977
1.29008
1.29018
1.09175
1.09176
1.09175
1.09177
1.09182
1.0919
1.09204
1.09225
1.09252
1.09285
1.09323
1.09362
1.09397
1.09443
1.09489
1.09528
1.0956
1.09584
1.09597
1.09602
1.0957
1.09488
1.0939
1.09342
1.09337
1.09367
1.0941
1.09457
1.09507
1.09561
1.09624
1.09696
1.0977
1.0983
1.09868
1.23335
1.23303
1.23272
1.23241
1.23209
1.23177
1.23148
1.23125
1.23104
1.23093
1.23084
1.23062
1.23024
1.22947
1.22846
1.22727
1.22624
1.2254
1.2247
1.22433
1.22383
1.22263
1.22149
1.22114
1.22121
1.22158
1.22231
1.22313
1.22389
1.22448
1.22487
1.22507
1.22513
1.2251
1.22502
1.13141
1.13176
1.13215
1.13257
1.13298
1.13338
1.13374
1.13401
1.13425
1.13439
1.13441
1.13442
1.13438
1.13436
1.13433
1.13424
1.13415
1.13414
1.13431
1.13459
1.13486
1.13484
1.13461
1.1344
1.13446
1.13477
1.1351
1.13529
1.13535
1.13533
1.13527
1.13517
1.13504
1.13488
1.13464
1.20045
1.20044
1.20044
1.20044
1.20043
1.20041
1.20038
1.20034
1.20028
1.20019
1.20005
1.19986
1.19963
1.19937
1.19903
1.1987
1.19844
1.19827
1.19831
1.19857
1.19865
1.19851
1.19822
1.19785
1.19741
1.19691
1.1964
1.1959
1.19545
1.19506
1.19472
1.19442
1.19415
1.19393
1.19374
1.15029
1.15033
1.15035
1.15036
1.15036
1.15035
1.15032
1.15027
1.15029
1.15038
1.15056
1.1508
1.1511
1.15139
1.15168
1.15195
1.1522
1.15248
1.15277
1.1531
1.15349
1.15382
1.15416
1.15447
1.15474
1.1551
1.15542
1.15569
1.15588
1.15601
1.15608
1.15609
1.15606
1.156
1.1559
1.18766
1.1876
1.1875
1.18738
1.18724
1.18711
1.18699
1.1869
1.1868
1.18669
1.18662
1.18656
1.1865
1.18644
1.18642
1.18644
1.18647
1.18653
1.18657
1.18659
1.18656
1.18648
1.18637
1.18625
1.18614
1.18605
1.18598
1.18592
1.18589
1.18586
1.18584
1.18583
1.18582
1.18582
1.18581
1.1619
1.16185
1.1618
1.16175
1.16169
1.16162
1.16155
1.16147
1.16136
1.16127
1.16118
1.1611
1.16104
1.16099
1.16105
1.16114
1.16127
1.16139
1.16152
1.16163
1.16173
1.16181
1.16187
1.16191
1.16193
1.16194
1.16194
1.16194
1.16193
1.16192
1.1619
1.16188
1.16186
1.16184
1.16183
1.17957
1.17961
1.17964
1.17967
1.17969
1.17971
1.17972
1.17973
1.17972
1.1797
1.17963
1.17952
1.17942
1.17935
1.17912
1.17895
1.17882
1.17872
1.17863
1.17856
1.17852
1.17851
1.17853
1.17856
1.1786
1.17863
1.17867
1.17869
1.17871
1.17872
1.17873
1.17874
1.17874
1.17875
1.17876
1.16855
1.16849
1.16842
1.16834
1.16825
1.16816
1.16806
1.16795
1.16783
1.16771
1.16759
1.16747
1.16734
1.16719
1.16714
1.16718
1.16722
1.16726
1.1673
1.16733
1.16736
1.16737
1.16737
1.16735
1.16733
1.1673
1.16727
1.16723
1.1672
1.16717
1.16715
1.16713
1.16711
1.16709
1.16707
1.17533
1.17534
1.17533
1.17532
1.17531
1.1753
1.17529
1.17527
1.17525
1.17523
1.17522
1.1752
1.17519
1.17516
1.17518
1.17504
1.17494
1.17486
1.17478
1.17472
1.17466
1.17463
1.17463
1.17463
1.17464
1.17466
1.17467
1.17468
1.17469
1.1747
1.1747
1.1747
1.1747
1.1747
1.17471
1.17129
1.17125
1.1712
1.17115
1.1711
1.17104
1.17097
1.17091
1.17083
1.17075
1.17067
1.17058
1.17049
1.17041
1.17027
1.17026
1.17026
1.17025
1.17024
1.17023
1.17022
1.1702
1.17017
1.17014
1.17011
1.17008
1.17005
1.17003
1.17001
1.16999
1.16997
1.16996
1.16994
1.16993
1.16991
1.17347
1.17347
1.17347
1.17346
1.17345
1.17344
1.17343
1.17342
1.1734
1.17338
1.17337
1.17335
1.17334
1.17333
1.17332
1.17329
1.17323
1.17318
1.17314
1.1731
1.17307
1.17304
1.17303
1.17303
1.17303
1.17303
1.17303
1.17304
1.17304
1.17304
1.17304
1.17303
1.17303
1.17303
1.17303
1.17216
1.17214
1.17212
1.17209
1.17207
1.17204
1.17201
1.17197
1.17194
1.1719
1.17185
1.17181
1.17176
1.17171
1.17165
1.17161
1.17159
1.17156
1.17154
1.17151
1.17148
1.17145
1.17142
1.17139
1.17136
1.17134
1.17133
1.17132
1.17131
1.1713
1.17129
1.17129
1.17128
1.17127
1.17125
1.17273
1.17273
1.17273
1.17273
1.17272
1.17271
1.17271
1.1727
1.17269
1.17268
1.17268
1.17267
1.17266
1.17265
1.17265
1.17263
1.1726
1.17258
1.17255
1.17253
1.17251
1.17249
1.17248
1.17247
1.17247
1.17247
1.17248
1.17248
1.17248
1.17248
1.17247
1.17247
1.17247
1.17247
1.17246
1.17234
1.17234
1.17233
1.17232
1.17231
1.1723
1.17229
1.17227
1.17226
1.17225
1.17223
1.17222
1.1722
1.17218
1.17216
1.17213
1.17212
1.1721
1.17208
1.17205
1.17203
1.172
1.17198
1.17195
1.17194
1.17192
1.17191
1.1719
1.1719
1.1719
1.1719
1.17189
1.17189
1.17189
1.17188
1.17251
1.17251
1.17251
1.17251
1.1725
1.1725
1.1725
1.17249
1.17249
1.17249
1.17249
1.17249
1.17249
1.17249
1.17248
1.17248
1.17246
1.17245
1.17243
1.17241
1.17239
1.17238
1.17237
1.17236
1.17236
1.17236
1.17236
1.17236
1.17236
1.17236
1.17236
1.17236
1.17236
1.17236
1.17236
1.17244
1.17244
1.17244
1.17244
1.17243
1.17243
1.17243
1.17242
1.17242
1.17242
1.17242
1.17242
1.17241
1.17241
1.1724
1.17238
1.17237
1.17236
1.17234
1.17232
1.1723
1.17228
1.17226
1.17225
1.17224
1.17223
1.17222
1.17222
1.17222
1.17222
1.17222
1.17222
1.17222
1.17222
1.17221
1.17253
1.17254
1.17254
1.17254
1.17254
1.17254
1.17254
1.17254
1.17254
1.17254
1.17254
1.17254
1.17254
1.17254
1.17253
1.17253
1.17251
1.1725
1.17248
1.17247
1.17245
1.17244
1.17243
1.17242
1.17242
1.17242
1.17242
1.17242
1.17242
1.17242
1.17243
1.17243
1.17243
1.17243
1.17243
1.17259
1.1726
1.17259
1.17259
1.17259
1.17259
1.17259
1.17259
1.17259
1.17259
1.17259
1.17259
1.17259
1.17258
1.17257
1.17256
1.17254
1.17253
1.17251
1.17249
1.17247
1.17246
1.17244
1.17243
1.17243
1.17243
1.17242
1.17243
1.17243
1.17243
1.17243
1.17243
1.17243
1.17243
1.17243
1.17269
1.1727
1.1727
1.1727
1.17269
1.17269
1.17269
1.17269
1.17269
1.17269
1.17269
1.17268
1.17268
1.17267
1.17266
1.17264
1.17263
1.17261
1.17259
1.17257
1.17256
1.17254
1.17253
1.17253
1.17253
1.17253
1.17253
1.17253
1.17254
1.17254
1.17255
1.17255
1.17255
1.17255
1.17255
1.1728
1.1728
1.1728
1.17279
1.17279
1.17279
1.17278
1.17278
1.17278
1.17277
1.17277
1.17276
1.17275
1.17274
1.17272
1.1727
1.17268
1.17266
1.17264
1.17262
1.17261
1.17259
1.17258
1.17258
1.17258
1.17258
1.17258
1.17258
1.17259
1.17259
1.17259
1.1726
1.1726
1.1726
1.1726
1.17291
1.1729
1.1729
1.1729
1.17289
1.17289
1.17288
1.17288
1.17287
1.17286
1.17285
1.17284
1.17283
1.17281
1.17279
1.17277
1.17275
1.17272
1.1727
1.17268
1.17267
1.17265
1.17265
1.17264
1.17264
1.17265
1.17265
1.17266
1.17266
1.17267
1.17267
1.17268
1.17268
1.17268
1.17268
1.17301
1.173
1.173
1.17299
1.17298
1.17298
1.17297
1.17296
1.17295
1.17294
1.17293
1.17291
1.17289
1.17287
1.17285
1.17282
1.1728
1.17277
1.17275
1.17273
1.17271
1.1727
1.1727
1.1727
1.1727
1.1727
1.17271
1.17271
1.17272
1.17272
1.17273
1.17274
1.17274
1.17274
1.17274
1.1731
1.17309
1.17308
1.17308
1.17307
1.17306
1.17305
1.17304
1.17302
1.17301
1.17299
1.17297
1.17295
1.17293
1.1729
1.17287
1.17284
1.17282
1.17279
1.17278
1.17276
1.17275
1.17275
1.17275
1.17275
1.17276
1.17276
1.17277
1.17278
1.17279
1.17279
1.1728
1.1728
1.17281
1.17281
1.17318
1.17317
1.17316
1.17315
1.17314
1.17313
1.17312
1.1731
1.17309
1.17307
1.17305
1.17302
1.173
1.17297
1.17294
1.17291
1.17288
1.17285
1.17283
1.17282
1.1728
1.17279
1.17279
1.17279
1.1728
1.17281
1.17281
1.17282
1.17283
1.17284
1.17285
1.17285
1.17286
1.17286
1.17287
1.17325
1.17324
1.17323
1.17322
1.1732
1.17319
1.17317
1.17316
1.17314
1.17312
1.17309
1.17307
1.17304
1.17301
1.17297
1.17294
1.17291
1.17289
1.17287
1.17285
1.17284
1.17283
1.17283
1.17284
1.17285
1.17285
1.17286
1.17287
1.17288
1.17289
1.1729
1.17291
1.17292
1.17292
1.17292
1.17331
1.1733
1.17328
1.17327
1.17325
1.17324
1.17322
1.1732
1.17318
1.17315
1.17313
1.1731
1.17307
1.17304
1.173
1.17297
1.17294
1.17292
1.1729
1.17288
1.17287
1.17287
1.17287
1.17288
1.17289
1.1729
1.17291
1.17292
1.17293
1.17294
1.17295
1.17296
1.17297
1.17297
1.17297
1.17336
1.17334
1.17333
1.17331
1.1733
1.17328
1.17326
1.17324
1.17321
1.17318
1.17316
1.17313
1.17309
1.17306
1.17302
1.17299
1.17296
1.17294
1.17292
1.17291
1.1729
1.1729
1.17291
1.17292
1.17293
1.17294
1.17295
1.17296
1.17297
1.17298
1.173
1.173
1.17301
1.17302
1.17302
1.17339
1.17338
1.17337
1.17335
1.17333
1.17331
1.17329
1.17326
1.17324
1.17321
1.17318
1.17315
1.17311
1.17308
1.17304
1.17301
1.17298
1.17296
1.17295
1.17294
1.17293
1.17293
1.17294
1.17295
1.17296
1.17297
1.17299
1.173
1.17301
1.17303
1.17304
1.17305
1.17306
1.17307
1.17307
1.17308
1.17307
1.17306
1.17304
1.17302
1.173
1.17297
1.17295
1.17292
1.17289
1.17286
1.17284
1.17281
1.17278
1.17275
1.17272
1.1727
1.17267
1.17265
1.17263
1.17261
1.1726
1.1726
1.1726
1.1726
1.17261
1.17263
1.17264
1.17265
1.17267
1.17269
1.1727
1.17272
1.17273
1.17273
1.17316
1.17315
1.17313
1.17311
1.17309
1.17307
1.17304
1.17302
1.17299
1.17296
1.17293
1.1729
1.17287
1.17285
1.17282
1.17279
1.17277
1.17274
1.17272
1.1727
1.17268
1.17267
1.17266
1.17266
1.17266
1.17267
1.17268
1.17269
1.1727
1.17272
1.17273
1.17275
1.17276
1.17277
1.17277
1.17322
1.17322
1.1732
1.17318
1.17316
1.17313
1.1731
1.17308
1.17305
1.17302
1.17299
1.17296
1.17293
1.1729
1.17288
1.17285
1.17283
1.1728
1.17278
1.17276
1.17274
1.17272
1.17271
1.17271
1.17271
1.17272
1.17272
1.17273
1.17275
1.17276
1.17277
1.17278
1.1728
1.17281
1.1728
1.17328
1.17327
1.17326
1.17323
1.17321
1.17318
1.17316
1.17313
1.1731
1.17307
1.17304
1.17301
1.17298
1.17296