/*--------------------------------*- C++ -*----------------------------------*\
  =========                 |
  \\      /  F ield         | OpenFOAM: The Open Source CFD Toolbox
   \\    /   O peration     | Website:  https://openfoam.org
    \\  /    A nd           | Version:  8
     \\/     M anipulation  |
\*---------------------------------------------------------------------------*/
FoamFile
{
    version     2.0;
    format      ascii;
    class       volScalarField;
    location    "0.41";
    object      T;
}
// * * * * * * * * * * * * * * * * * * * * * * * * * * * * * * * * * * * * * //

dimensions      [0 0 0 1 0 0 0];

internalField   nonuniform List<scalar> 
15677
(
298.106
298.159
298.236
298.303
298.374
298.452
298.537
298.627
298.719
298.809
298.893
298.97
299.041
299.084
299.077
299.028
298.972
298.928
298.894
298.839
298.763
298.691
298.64
298.614
298.606
298.607
298.614
298.63
298.641
298.65
298.654
298.652
298.646
298.636
298.623
298.233
298.274
298.294
298.324
298.362
298.409
298.468
298.542
298.637
298.763
298.942
299.198
299.501
299.7
299.74
299.664
299.511
299.309
299.107
298.954
298.851
298.784
298.743
298.72
298.71
298.708
298.712
298.72
298.727
298.731
298.732
298.732
298.729
298.726
298.723
300.09
300.052
300.02
299.987
299.953
299.914
299.867
299.803
299.718
299.609
299.492
299.388
299.271
299.111
298.926
298.763
298.677
298.652
298.711
298.868
299.087
299.277
299.411
299.504
299.57
299.615
299.644
299.659
299.665
299.662
299.653
299.639
299.621
299.6
299.577
299.724
299.678
299.658
299.641
299.626
299.611
299.595
299.579
299.564
299.551
299.535
299.507
299.472
299.433
299.405
299.408
299.436
299.489
299.558
299.641
299.742
299.847
299.934
299.996
300.037
300.06
300.072
300.075
300.073
300.065
300.051
300.034
300.014
299.992
299.967
300.507
300.47
300.431
300.388
300.339
300.283
300.22
300.149
300.071
299.991
299.913
299.842
299.788
299.756
299.743
299.734
299.714
299.671
299.617
299.576
299.568
299.575
299.59
299.609
299.627
299.645
299.661
299.674
299.683
299.688
299.688
299.685
299.679
299.672
299.665
300.402
300.377
300.352
300.328
300.303
300.276
300.249
300.22
300.19
300.16
300.135
300.114
300.093
300.077
300.062
300.048
300.035
300.026
300.023
300.028
300.037
300.046
300.054
300.058
300.059
300.057
300.054
300.048
300.042
300.036
300.031
300.026
300.022
300.018
300.015
300.136
300.135
300.135
300.136
300.135
300.133
300.13
300.125
300.119
300.111
300.103
300.095
300.087
300.081
300.076
300.071
300.067
300.063
300.06
300.059
300.061
300.066
300.074
300.084
300.095
300.106
300.118
300.128
300.136
300.142
300.146
300.148
300.149
300.15
300.15
300.295
300.3
300.301
300.3
300.298
300.296
300.292
300.288
300.283
300.276
300.268
300.259
300.249
300.236
300.223
300.21
300.197
300.185
300.172
300.158
300.144
300.131
300.119
300.11
300.104
300.101
300.099
300.098
300.096
300.094
300.091
300.088
300.084
300.081
300.078
300.133
300.135
300.139
300.144
300.148
300.152
300.157
300.161
300.164
300.168
300.17
300.172
300.174
300.174
300.173
300.171
300.168
300.164
300.16
300.154
300.148
300.141
300.135
300.129
300.123
300.118
300.113
300.109
300.106
300.103
300.099
300.096
300.094
300.091
300.089
300.301
300.298
300.294
300.29
300.285
300.28
300.275
300.269
300.263
300.256
300.249
300.242
300.234
300.225
300.215
300.206
300.196
300.187
300.177
300.166
300.155
300.143
300.132
300.123
300.114
300.105
300.096
300.088
300.081
300.074
300.067
300.062
300.057
300.052
300.048
300.18
300.181
300.183
300.186
300.188
300.19
300.192
300.193
300.195
300.195
300.195
300.195
300.193
300.19
300.187
300.182
300.177
300.171
300.164
300.156
300.147
300.138
300.128
300.119
300.11
300.102
300.095
300.088
300.081
300.075
300.07
300.065
300.061
300.056
300.053
300.264
300.261
300.257
300.254
300.251
300.247
300.243
300.239
300.235
300.231
300.226
300.221
300.215
300.208
300.2
300.193
300.185
300.176
300.167
300.158
300.148
300.137
300.127
300.117
300.108
300.099
300.09
300.082
300.075
300.068
300.062
300.056
300.051
300.046
300.043
300.205
300.205
300.205
300.206
300.206
300.206
300.206
300.206
300.205
300.204
300.203
300.201
300.198
300.194
300.189
300.183
300.177
300.17
300.162
300.154
300.145
300.135
300.126
300.117
300.108
300.1
300.093
300.085
300.079
300.073
300.067
300.062
300.058
300.054
300.05
300.241
300.238
300.236
300.234
300.232
300.23
300.227
300.224
300.221
300.218
300.215
300.211
300.206
300.2
300.194
300.187
300.18
300.173
300.164
300.156
300.147
300.137
300.128
300.119
300.111
300.103
300.095
300.088
300.081
300.075
300.07
300.065
300.06
300.056
300.053
300.218
300.217
300.217
300.216
300.216
300.215
300.215
300.214
300.212
300.211
300.209
300.206
300.202
300.197
300.192
300.186
300.18
300.173
300.165
300.157
300.148
300.14
300.131
300.123
300.115
300.108
300.102
300.096
300.09
300.085
300.08
300.075
300.071
300.068
300.065
300.234
300.232
300.231
300.229
300.228
300.226
300.224
300.222
300.22
300.218
300.215
300.212
300.208
300.203
300.198
300.191
300.185
300.177
300.17
300.161
300.153
300.144
300.136
300.128
300.121
300.115
300.108
300.103
300.098
300.093
300.088
300.085
300.081
300.078
300.075
300.229
300.227
300.226
300.226
300.225
300.224
300.223
300.222
300.22
300.219
300.217
300.214
300.21
300.206
300.201
300.195
300.188
300.181
300.174
300.166
300.158
300.15
300.142
300.135
300.129
300.123
300.117
300.112
300.108
300.104
300.1
300.097
300.094
300.091
300.089
300.239
300.237
300.236
300.234
300.233
300.232
300.23
300.229
300.227
300.225
300.222
300.219
300.216
300.211
300.206
300.2
300.194
300.187
300.18
300.172
300.164
300.156
300.149
300.142
300.136
300.131
300.126
300.121
300.117
300.114
300.111
300.108
300.105
300.103
300.101
300.24
300.238
300.237
300.236
300.236
300.235
300.234
300.232
300.231
300.229
300.227
300.224
300.221
300.217
300.212
300.206
300.2
300.194
300.187
300.179
300.171
300.164
300.157
300.15
300.144
300.139
300.135
300.131
300.127
300.124
300.121
300.119
300.117
300.115
300.113
300.247
300.245
300.243
300.242
300.241
300.24
300.239
300.238
300.236
300.235
300.232
300.23
300.227
300.222
300.218
300.213
300.207
300.201
300.194
300.187
300.179
300.172
300.165
300.159
300.153
300.148
300.144
300.14
300.137
300.134
300.131
300.129
300.127
300.126
300.124
300.252
300.25
300.249
300.248
300.247
300.246
300.245
300.244
300.242
300.241
300.239
300.236
300.233
300.229
300.225
300.22
300.214
300.208
300.202
300.195
300.188
300.18
300.174
300.167
300.162
300.157
300.153
300.15
300.147
300.144
300.142
300.14
300.138
300.136
300.135
300.258
300.256
300.255
300.254
300.253
300.252
300.251
300.25
300.249
300.247
300.245
300.243
300.24
300.236
300.232
300.227
300.222
300.216
300.21
300.204
300.197
300.19
300.183
300.177
300.172
300.167
300.163
300.16
300.157
300.154
300.152
300.15
300.148
300.147
300.145
300.265
300.263
300.262
300.261
300.26
300.259
300.258
300.257
300.255
300.254
300.252
300.249
300.246
300.243
300.239
300.235
300.23
300.225
300.219
300.213
300.206
300.199
300.193
300.187
300.182
300.177
300.173
300.17
300.167
300.165
300.162
300.16
300.159
300.157
300.156
300.27
300.269
300.268
300.267
300.266
300.265
300.264
300.263
300.262
300.26
300.258
300.256
300.253
300.25
300.246
300.242
300.238
300.233
300.228
300.222
300.216
300.209
300.203
300.198
300.193
300.188
300.184
300.181
300.178
300.176
300.173
300.172
300.17
300.169
300.167
300.277
300.276
300.275
300.274
300.273
300.272
300.271
300.27
300.268
300.267
300.265
300.263
300.26
300.257
300.254
300.25
300.246
300.242
300.237
300.232
300.226
300.22
300.214
300.209
300.204
300.2
300.196
300.193
300.19
300.187
300.185
300.183
300.182
300.18
300.179
300.283
300.282
300.281
300.28
300.279
300.278
300.277
300.276
300.275
300.273
300.272
300.27
300.267
300.264
300.261
300.258
300.254
300.25
300.246
300.241
300.236
300.23
300.225
300.22
300.215
300.211
300.208
300.204
300.202
300.199
300.197
300.195
300.194
300.192
300.191
300.29
300.288
300.287
300.287
300.286
300.285
300.284
300.283
300.281
300.28
300.278
300.276
300.274
300.271
300.268
300.265
300.262
300.259
300.255
300.251
300.246
300.241
300.236
300.231
300.227
300.223
300.219
300.216
300.214
300.212
300.21
300.208
300.206
300.205
300.204
300.296
300.294
300.294
300.293
300.292
300.291
300.29
300.289
300.288
300.286
300.284
300.282
300.28
300.277
300.275
300.272
300.269
300.266
300.263
300.259
300.255
300.251
300.246
300.242
300.238
300.234
300.231
300.228
300.226
300.224
300.222
300.22
300.219
300.217
300.216
300.302
300.3
300.299
300.299
300.298
300.297
300.296
300.295
300.293
300.292
300.29
300.288
300.286
300.284
300.281
300.279
300.276
300.274
300.271
300.268
300.264
300.26
300.256
300.252
300.249
300.245
300.243
300.24
300.238
300.236
300.234
300.232
300.231
300.23
300.229
300.307
300.306
300.305
300.304
300.303
300.302
300.301
300.3
300.299
300.297
300.296
300.294
300.292
300.29
300.287
300.285
300.283
300.281
300.278
300.276
300.272
300.269
300.265
300.262
300.259
300.256
300.253
300.251
300.249
300.247
300.245
300.244
300.242
300.241
300.24
298.605
298.581
298.555
298.531
298.509
298.494
298.487
298.493
298.511
298.539
298.575
298.62
298.672
298.727
298.787
298.82
298.815
298.762
298.657
298.499
298.288
298.038
298.714
298.696
298.675
298.666
298.67
298.693
298.747
298.832
298.945
299.077
299.215
299.353
299.481
299.586
299.652
299.658
299.602
299.465
299.269
299.059
298.858
298.658
299.543
299.488
299.421
299.341
299.246
299.137
299.017
298.894
298.781
298.694
298.647
298.649
298.7
298.815
298.974
299.156
299.294
299.384
299.446
299.5
299.561
299.627
299.931
299.876
299.81
299.734
299.651
299.566
299.486
299.413
299.351
299.303
299.269
299.257
299.267
299.296
299.326
299.329
299.287
299.217
299.168
299.152
299.149
299.156
299.656
299.644
299.635
299.632
299.635
299.649
299.674
299.709
299.75
299.791
299.828
299.859
299.881
299.894
299.897
299.891
299.891
299.908
299.927
299.948
299.975
300.006
300.006
299.989
299.966
299.938
299.903
299.865
299.83
299.799
299.773
299.748
299.723
299.698
299.672
299.645
299.62
299.6
299.59
299.591
299.602
299.623
299.649
299.677
300.149
300.147
300.143
300.139
300.135
300.129
300.118
300.102
300.082
300.061
300.041
300.021
300.002
299.983
299.964
299.947
299.932
299.924
299.921
299.926
299.936
299.952
300.074
300.069
300.064
300.058
300.051
300.043
300.033
300.022
300.008
299.993
299.977
299.96
299.942
299.925
299.908
299.892
299.877
299.866
299.858
299.855
299.856
299.86
300.086
300.084
300.081
300.077
300.074
300.07
300.066
300.061
300.055
300.048
300.039
300.03
300.019
300.009
299.998
299.987
299.977
299.969
299.962
299.958
299.956
299.957
300.044
300.04
300.036
300.032
300.028
300.024
300.02
300.016
300.012
300.007
300.002
299.996
299.99
299.984
299.977
299.97
299.964
299.958
299.954
299.95
299.949
299.948
300.049
300.044
300.04
300.035
300.031
300.028
300.024
300.021
300.018
300.015
300.012
300.01
300.006
300.003
299.999
299.996
299.992
299.989
299.985
299.983
299.981
299.981
300.038
300.033
300.027
300.023
300.018
300.014
300.01
300.006
300.003
300.001
299.999
299.997
299.995
299.994
299.992
299.991
299.99
299.989
299.988
299.987
299.986
299.987
300.046
300.04
300.035
300.03
300.025
300.02
300.016
300.012
300.009
300.006
300.004
300.003
300.001
300
300
299.999
299.999
299.999
299.999
299.999
300
300.001
300.048
300.042
300.037
300.031
300.026
300.021
300.016
300.012
300.009
300.006
300.004
300.002
300.001
300.001
300
300
300.001
300.001
300.002
300.003
300.004
300.006
300.06
300.054
300.048
300.042
300.037
300.031
300.026
300.021
300.017
300.014
300.011
300.009
300.008
300.008
300.008
300.008
300.009
300.01
300.011
300.012
300.013
300.015
300.071
300.066
300.06
300.055
300.049
300.044
300.039
300.035
300.031
300.027
300.024
300.022
300.021
300.02
300.02
300.02
300.021
300.021
300.022
300.023
300.024
300.025
300.086
300.081
300.075
300.07
300.065
300.06
300.055
300.051
300.046
300.043
300.04
300.037
300.036
300.035
300.034
300.034
300.034
300.034
300.035
300.035
300.035
300.036
300.098
300.094
300.089
300.084
300.08
300.075
300.07
300.066
300.062
300.058
300.055
300.052
300.05
300.049
300.048
300.048
300.048
300.048
300.048
300.048
300.048
300.048
300.111
300.106
300.102
300.098
300.093
300.089
300.085
300.081
300.077
300.073
300.07
300.068
300.066
300.064
300.063
300.063
300.063
300.063
300.063
300.063
300.062
300.062
300.122
300.118
300.114
300.11
300.106
300.102
300.098
300.095
300.091
300.088
300.085
300.083
300.081
300.079
300.078
300.078
300.077
300.077
300.077
300.077
300.076
300.076
300.133
300.129
300.125
300.122
300.118
300.114
300.111
300.107
300.104
300.101
300.098
300.096
300.094
300.093
300.092
300.091
300.091
300.091
300.09
300.09
300.09
300.09
300.143
300.139
300.136
300.132
300.129
300.125
300.122
300.119
300.116
300.113
300.11
300.108
300.106
300.105
300.104
300.103
300.103
300.103
300.103
300.103
300.103
300.103
300.154
300.15
300.146
300.143
300.139
300.136
300.133
300.13
300.127
300.124
300.122
300.12
300.118
300.117
300.116
300.115
300.115
300.115
300.115
300.115
300.115
300.115
300.165
300.161
300.157
300.154
300.15
300.147
300.143
300.14
300.137
300.135
300.132
300.13
300.129
300.128
300.127
300.126
300.126
300.126
300.126
300.126
300.127
300.127
300.176
300.172
300.168
300.164
300.161
300.157
300.154
300.151
300.148
300.145
300.143
300.141
300.139
300.138
300.137
300.137
300.136
300.136
300.137
300.137
300.137
300.137
300.188
300.184
300.18
300.176
300.172
300.168
300.165
300.162
300.159
300.156
300.153
300.151
300.15
300.148
300.147
300.147
300.147
300.146
300.147
300.147
300.147
300.147
300.201
300.196
300.192
300.188
300.183
300.18
300.176
300.172
300.169
300.166
300.164
300.162
300.16
300.158
300.157
300.157
300.156
300.156
300.156
300.156
300.157
300.157
300.213
300.209
300.204
300.2
300.195
300.191
300.187
300.184
300.18
300.177
300.174
300.172
300.17
300.169
300.167
300.166
300.166
300.166
300.165
300.166
300.166
300.166
300.226
300.221
300.216
300.212
300.207
300.203
300.199
300.195
300.191
300.188
300.185
300.183
300.18
300.179
300.177
300.176
300.175
300.175
300.175
300.175
300.175
300.175
300.238
300.233
300.228
300.224
300.219
300.215
300.21
300.206
300.203
300.199
300.196
300.193
300.191
300.189
300.187
300.186
300.185
300.184
300.184
300.183
300.183
300.183
297.777
297.521
297.254
297.008
296.797
296.797
298.43
298.186
297.956
297.794
297.737
297.713
299.698
299.754
299.794
299.84
299.92
299.979
299.174
299.199
299.228
299.251
299.278
299.288
300.046
300.087
300.111
300.111
300.087
300.041
299.706
299.729
299.738
299.731
299.709
299.678
299.972
299.995
300.011
300.017
300.012
299.997
299.868
299.877
299.886
299.89
299.889
299.883
299.962
299.971
299.98
299.988
299.994
299.997
299.95
299.954
299.96
299.966
299.971
299.974
299.982
299.986
299.992
299.997
300.003
300.008
299.988
299.992
299.996
300.001
300.007
300.012
300.003
300.006
300.009
300.012
300.016
300.019
300.008
300.011
300.014
300.018
300.021
300.024
300.017
300.02
300.023
300.025
300.028
300.029
300.026
300.028
300.031
300.033
300.034
300.035
300.037
300.039
300.04
300.041
300.042
300.042
300.049
300.051
300.052
300.053
300.053
300.053
300.062
300.064
300.065
300.065
300.066
300.066
300.076
300.078
300.079
300.08
300.08
300.081
300.09
300.092
300.094
300.095
300.096
300.096
300.104
300.106
300.108
300.109
300.111
300.112
300.116
300.119
300.121
300.123
300.125
300.127
300.128
300.131
300.134
300.136
300.138
300.14
300.139
300.142
300.145
300.148
300.15
300.153
300.149
300.153
300.156
300.159
300.161
300.164
300.159
300.162
300.165
300.169
300.172
300.174
300.168
300.171
300.175
300.178
300.181
300.184
300.177
300.18
300.183
300.187
300.19
300.193
300.185
300.188
300.192
300.195
300.198
300.201
297.086
297.364
297.585
297.779
297.96
298.141
298.325
298.432
298.439
298.423
298.367
298.283
298.199
298.137
298.132
298.16
298.209
298.274
298.342
298.41
298.471
298.522
297.839
297.966
298.097
298.243
298.392
298.532
298.656
298.751
298.787
298.733
298.585
298.395
298.317
298.299
298.307
298.348
298.402
298.458
298.51
298.556
298.593
298.625
299.97
299.965
299.968
299.968
299.952
299.914
299.849
299.754
299.628
299.485
299.368
299.3
299.286
299.321
299.392
299.482
299.578
299.668
299.744
299.802
299.844
299.87
299.289
299.301
299.334
299.392
299.465
299.536
299.575
299.572
299.52
299.438
299.347
299.273
299.24
299.238
299.268
299.315
299.37
299.426
299.48
299.531
299.576
299.614
299.999
299.971
299.959
299.961
299.972
299.979
299.973
299.944
299.895
299.856
299.839
299.837
299.842
299.839
299.827
299.812
299.795
299.778
299.762
299.747
299.736
299.725
299.648
299.626
299.612
299.607
299.61
299.619
299.628
299.636
299.641
299.647
299.657
299.671
299.687
299.704
299.72
299.735
299.749
299.762
299.769
299.774
299.777
299.781
299.98
299.968
299.959
299.956
299.958
299.964
299.972
299.978
299.98
299.98
299.976
299.972
299.966
299.961
299.956
299.951
299.944
299.937
299.933
299.931
299.931
299.932
299.875
299.868
299.862
299.859
299.859
299.861
299.864
299.867
299.868
299.868
299.866
299.863
299.86
299.857
299.855
299.854
299.854
299.855
299.858
299.863
299.869
299.876
299.998
299.999
299.999
299.999
300
300.001
300.003
300.004
300.005
300.004
300.003
300
299.997
299.994
299.992
299.99
299.99
299.991
299.993
299.997
300.001
300.006
299.976
299.978
299.979
299.979
299.98
299.979
299.977
299.974
299.97
299.966
299.961
299.957
299.952
299.949
299.946
299.945
299.946
299.948
299.952
299.956
299.962
299.968
300.013
300.016
300.019
300.02
300.02
300.019
300.017
300.014
300.01
300.007
300.003
299.999
299.996
299.994
299.994
299.995
299.998
300.002
300.007
300.013
300.02
300.027
300.015
300.018
300.02
300.02
300.019
300.017
300.014
300.01
300.006
300.001
299.996
299.993
299.99
299.989
299.989
299.991
299.994
299.998
300.004
300.01
300.016
300.022
300.022
300.024
300.025
300.026
300.026
300.025
300.023
300.021
300.018
300.015
300.012
300.01
300.01
300.011
300.013
300.016
300.021
300.026
300.032
300.038
300.044
300.05
300.026
300.027
300.028
300.028
300.027
300.026
300.025
300.023
300.021
300.019
300.019
300.019
300.021
300.023
300.027
300.031
300.036
300.041
300.046
300.051
300.056
300.062
300.03
300.031
300.031
300.031
300.03
300.029
300.029
300.028
300.028
300.028
300.03
300.032
300.036
300.04
300.045
300.05
300.056
300.062
300.068
300.073
300.079
300.084
300.035
300.036
300.036
300.036
300.036
300.036
300.036
300.037
300.038
300.041
300.044
300.047
300.052
300.057
300.062
300.068
300.074
300.079
300.084
300.089
300.094
300.099
300.042
300.043
300.044
300.045
300.046
300.047
300.048
300.05
300.053
300.056
300.06
300.065
300.07
300.076
300.081
300.087
300.092
300.097
300.102
300.107
300.111
300.115
300.053
300.055
300.056
300.058
300.059
300.062
300.064
300.067
300.071
300.075
300.08
300.085
300.09
300.096
300.101
300.106
300.111
300.116
300.12
300.124
300.128
300.132
300.067
300.069
300.071
300.073
300.076
300.079
300.083
300.086
300.09
300.095
300.1
300.105
300.111
300.116
300.121
300.126
300.13
300.134
300.138
300.142
300.145
300.148
300.082
300.085
300.088
300.091
300.094
300.098
300.102
300.106
300.111
300.116
300.121
300.126
300.131
300.136
300.14
300.145
300.149
300.152
300.156
300.159
300.161
300.164
300.098
300.102
300.105
300.109
300.113
300.117
300.122
300.126
300.131
300.136
300.141
300.146
300.15
300.155
300.159
300.162
300.166
300.169
300.172
300.174
300.176
300.178
300.114
300.118
300.122
300.127
300.131
300.135
300.14
300.145
300.149
300.154
300.159
300.164
300.168
300.172
300.175
300.179
300.181
300.184
300.186
300.188
300.19
300.191
300.13
300.134
300.138
300.143
300.147
300.152
300.157
300.162
300.166
300.171
300.175
300.18
300.183
300.187
300.19
300.193
300.195
300.197
300.199
300.2
300.202
300.203
300.144
300.148
300.153
300.158
300.162
300.167
300.172
300.177
300.181
300.185
300.19
300.194
300.197
300.2
300.203
300.205
300.207
300.208
300.21
300.211
300.212
300.213
300.156
300.161
300.166
300.171
300.176
300.18
300.185
300.19
300.194
300.198
300.202
300.206
300.209
300.211
300.214
300.216
300.217
300.219
300.22
300.221
300.221
300.222
300.168
300.173
300.178
300.183
300.187
300.192
300.197
300.201
300.205
300.209
300.213
300.216
300.219
300.221
300.223
300.225
300.226
300.227
300.228
300.229
300.23
300.23
300.178
300.183
300.188
300.193
300.198
300.203
300.207
300.211
300.216
300.219
300.223
300.226
300.228
300.23
300.232
300.234
300.235
300.236
300.236
300.237
300.237
300.238
300.188
300.193
300.198
300.203
300.208
300.212
300.217
300.221
300.225
300.228
300.232
300.234
300.237
300.239
300.24
300.241
300.242
300.243
300.244
300.244
300.245
300.245
300.197
300.202
300.207
300.212
300.217
300.221
300.226
300.23
300.233
300.237
300.24
300.243
300.245
300.247
300.248
300.249
300.25
300.25
300.251
300.251
300.252
300.252
300.205
300.21
300.215
300.22
300.225
300.23
300.234
300.238
300.242
300.245
300.248
300.25
300.252
300.254
300.255
300.256
300.257
300.257
300.258
300.258
300.258
300.259
298.558
298.578
298.593
298.608
298.624
298.642
298.665
298.694
298.731
298.774
298.819
298.865
298.905
298.929
298.936
298.925
298.923
298.932
298.958
299.002
299.039
299.04
298.998
298.938
298.871
298.796
298.714
298.627
298.541
298.46
298.388
298.322
298.263
298.2
298.163
298.637
298.643
298.649
298.656
298.664
298.672
298.68
298.687
298.695
298.706
298.722
298.747
298.789
298.852
298.934
299.025
299.13
299.258
299.403
299.537
299.611
299.573
299.353
299.041
298.796
298.634
298.525
298.443
298.377
298.324
298.282
298.25
298.227
298.216
298.201
299.878
299.877
299.868
299.851
299.822
299.78
299.722
299.647
299.555
299.449
299.33
299.204
299.087
298.99
298.916
298.856
298.809
298.779
298.781
298.828
298.955
299.168
299.346
299.464
299.566
299.672
299.762
299.83
299.878
299.913
299.941
299.966
299.991
300.016
300.042
299.64
299.658
299.675
299.691
299.705
299.716
299.724
299.729
299.731
299.737
299.752
299.781
299.817
299.848
299.861
299.825
299.746
299.63
299.506
299.395
299.328
299.321
299.352
299.389
299.436
299.461
299.479
299.494
299.509
299.522
299.534
299.545
299.557
299.573
299.615
299.719
299.715
299.712
299.709
299.707
299.705
299.702
299.699
299.695
299.693
299.69
299.688
299.683
299.67
299.651
299.631
299.611
299.607
299.614
299.635
299.673
299.721
299.779
299.852
299.936
300.019
300.101
300.177
300.244
300.304
300.357
300.403
300.444
300.48
300.511
299.784
299.786
299.789
299.793
299.8
299.811
299.825
299.846
299.872
299.903
299.935
299.964
299.984
299.996
300.002
300.004
300.002
299.995
299.987
299.98
299.976
299.992
300.015
300.042
300.073
300.107
300.142
300.177
300.21
300.241
300.268
300.293
300.316
300.339
300.364
299.932
299.931
299.93
299.929
299.928
299.927
299.927
299.93
299.936
299.946
299.959
299.972
299.983
299.991
299.997
300.003
300.008
300.013
300.018
300.025
300.033
300.043
300.053
300.064
300.073
300.083
300.091
300.098
300.103
300.107
300.109
300.109
300.109
300.109
300.11
299.882
299.887
299.894
299.901
299.91
299.921
299.934
299.949
299.966
299.985
300.003
300.019
300.034
300.049
300.065
300.08
300.095
300.109
300.123
300.138
300.152
300.166
300.18
300.193
300.203
300.213
300.221
300.228
300.235
300.24
300.245
300.25
300.254
300.257
300.258
300.011
300.014
300.017
300.021
300.026
300.032
300.039
300.047
300.054
300.061
300.067
300.073
300.079
300.085
300.092
300.098
300.103
300.108
300.114
300.119
300.124
300.129
300.133
300.135
300.136
300.136
300.136
300.134
300.131
300.129
300.125
300.122
300.119
300.115
300.113
299.973
299.978
299.983
299.989
299.995
300.003
300.012
300.022
300.033
300.044
300.056
300.067
300.078
300.089
300.099
300.109
300.119
300.129
300.139
300.15
300.16
300.171
300.182
300.191
300.199
300.206
300.213
300.22
300.226
300.232
300.237
300.243
300.248
300.253
300.258
300.032
300.036
300.04
300.044
300.049
300.055
300.061
300.068
300.074
300.081
300.088
300.094
300.1
300.107
300.113
300.119
300.126
300.132
300.138
300.144
300.151
300.157
300.162
300.167
300.17
300.172
300.173
300.174
300.174
300.174
300.173
300.172
300.171
300.17
300.169
300.027
300.031
300.035
300.039
300.044
300.05
300.056
300.063
300.069
300.077
300.084
300.092
300.1
300.108
300.116
300.124
300.132
300.141
300.149
300.158
300.167
300.175
300.184
300.191
300.198
300.204
300.209
300.214
300.219
300.223
300.227
300.231
300.235
300.24
300.245
300.055
300.058
300.061
300.065
300.069
300.073
300.078
300.083
300.088
300.094
300.099
300.105
300.111
300.118
300.125
300.132
300.139
300.146
300.154
300.161
300.168
300.175
300.182
300.188
300.192
300.196
300.199
300.201
300.203
300.204
300.205
300.205
300.206
300.206
300.208
300.065
300.068
300.071
300.074
300.077
300.081
300.085
300.09
300.095
300.1
300.105
300.111
300.117
300.124
300.131
300.139
300.147
300.155
300.163
300.171
300.18
300.188
300.196
300.203
300.208
300.213
300.217
300.221
300.225
300.228
300.231
300.234
300.237
300.24
300.244
300.088
300.09
300.092
300.094
300.097
300.1
300.103
300.106
300.11
300.113
300.118
300.122
300.127
300.133
300.14
300.147
300.154
300.162
300.17
300.178
300.186
300.194
300.201
300.207
300.212
300.215
300.219
300.221
300.224
300.225
300.227
300.228
300.23
300.231
300.233
300.102
300.104
300.106
300.108
300.11
300.112
300.115
300.117
300.12
300.124
300.127
300.131
300.136
300.141
300.148
300.154
300.162
300.17
300.178
300.186
300.195
300.203
300.211
300.218
300.224
300.228
300.232
300.235
300.238
300.24
300.242
300.244
300.246
300.248
300.251
300.118
300.119
300.121
300.123
300.125
300.127
300.129
300.131
300.133
300.135
300.138
300.142
300.145
300.15
300.156
300.163
300.17
300.178
300.186
300.194
300.202
300.211
300.218
300.224
300.229
300.234
300.237
300.239
300.242
300.243
300.245
300.246
300.247
300.248
300.25
300.134
300.135
300.136
300.137
300.139
300.14
300.141
300.143
300.145
300.146
300.149
300.151
300.155
300.159
300.165
300.171
300.178
300.186
300.194
300.202
300.21
300.218
300.226
300.232
300.237
300.241
300.245
300.248
300.25
300.253
300.255
300.257
300.258
300.26
300.262
300.15
300.151
300.151
300.152
300.153
300.154
300.155
300.156
300.157
300.158
300.16
300.162
300.165
300.169
300.174
300.18
300.187
300.195
300.202
300.21
300.218
300.226
300.233
300.239
300.244
300.248
300.251
300.254
300.256
300.258
300.259
300.261
300.262
300.263
300.265
300.165
300.166
300.166
300.166
300.167
300.167
300.167
300.168
300.168
300.169
300.17
300.172
300.175
300.178
300.183
300.189
300.196
300.203
300.211
300.219
300.227
300.234
300.241
300.247
300.251
300.255
300.258
300.26
300.262
300.264
300.266
300.267
300.268
300.27
300.272
300.179
300.179
300.179
300.179
300.179
300.179
300.179
300.179
300.179
300.18
300.181
300.182
300.184
300.188
300.192
300.198
300.205
300.212
300.22
300.227
300.235
300.242
300.249
300.254
300.258
300.262
300.264
300.267
300.269
300.27
300.272
300.273
300.274
300.275
300.277
300.192
300.192
300.191
300.191
300.191
300.19
300.19
300.19
300.19
300.19
300.19
300.192
300.194
300.197
300.202
300.207
300.214
300.221
300.228
300.236
300.243
300.25
300.256
300.261
300.265
300.268
300.27
300.273
300.274
300.276
300.277
300.278
300.279
300.28
300.281
300.203
300.203
300.202
300.201
300.201
300.2
300.2
300.199
300.199
300.199
300.2
300.201
300.203
300.206
300.21
300.216
300.223
300.23
300.237
300.244
300.25
300.257
300.263
300.267
300.271
300.274
300.276
300.278
300.28
300.281
300.282
300.283
300.284
300.285
300.286
300.213
300.212
300.212
300.211
300.21
300.209
300.209
300.208
300.208
300.208
300.208
300.209
300.211
300.214
300.219
300.225
300.231
300.238
300.245
300.251
300.258
300.264
300.269
300.274
300.277
300.28
300.282
300.283
300.285
300.286
300.287
300.288
300.289
300.289
300.29
300.222
300.221
300.22
300.219
300.218
300.218
300.217
300.216
300.216
300.216
300.216
300.217
300.219
300.223
300.227
300.233
300.239
300.246
300.252
300.259
300.265
300.271
300.276
300.279
300.282
300.285
300.287
300.288
300.29
300.291
300.292
300.292
300.293
300.294
300.295
300.23
300.229
300.228
300.227
300.226
300.225
300.225
300.224
300.224
300.224
300.224
300.225
300.227
300.231
300.235
300.241
300.247
300.253
300.26
300.266
300.271
300.277
300.281
300.285
300.288
300.29
300.292
300.293
300.294
300.295
300.296
300.296
300.297
300.298
300.298
300.238
300.237
300.236
300.235
300.234
300.233
300.232
300.231
300.231
300.231
300.231
300.233
300.235
300.238
300.243
300.248
300.254
300.26
300.266
300.272
300.278
300.283
300.287
300.29
300.293
300.294
300.296
300.297
300.298
300.299
300.3
300.3
300.301
300.301
300.302
300.245
300.244
300.243
300.242
300.241
300.24
300.239
300.238
300.238
300.238
300.239
300.24
300.242
300.246
300.25
300.256
300.261
300.267
300.273
300.278
300.283
300.288
300.292
300.295
300.297
300.299
300.3
300.301
300.302
300.303
300.304
300.304
300.305
300.305
300.306
300.252
300.251
300.25
300.249
300.248
300.247
300.246
300.245
300.245
300.245
300.246
300.247
300.249
300.253
300.257
300.262
300.268
300.274
300.279
300.284
300.289
300.293
300.297
300.299
300.301
300.303
300.304
300.305
300.306
300.307
300.307
300.308
300.308
300.308
300.309
300.258
300.257
300.256
300.255
300.254
300.253
300.252
300.252
300.252
300.252
300.252
300.254
300.256
300.259
300.264
300.269
300.274
300.279
300.285
300.289
300.294
300.298
300.301
300.303
300.305
300.307
300.308
300.309
300.309
300.31
300.31
300.311
300.311
300.312
300.312
300.313
300.312
300.311
300.31
300.309
300.308
300.307
300.306
300.305
300.303
300.302
300.3
300.298
300.296
300.293
300.291
300.29
300.288
300.286
300.283
300.281
300.278
300.275
300.272
300.269
300.266
300.264
300.262
300.26
300.258
300.257
300.255
300.254
300.253
300.252
300.319
300.318
300.317
300.316
300.315
300.314
300.313
300.312
300.311
300.309
300.308
300.306
300.304
300.302
300.3
300.298
300.296
300.295
300.293
300.291
300.289
300.286
300.284
300.281
300.278
300.276
300.274
300.272
300.27
300.269
300.267
300.266
300.265
300.264
300.263
300.324
300.323
300.322
300.321
300.32
300.32
300.319
300.317
300.316
300.315
300.313
300.311
300.309
300.307
300.305
300.304
300.302
300.301
300.299
300.298
300.296
300.294
300.291
300.289
300.286
300.284
300.282
300.28
300.279
300.277
300.276
300.275
300.274
300.273
300.272
300.329
300.328
300.327
300.326
300.325
300.324
300.323
300.322
300.321
300.32
300.318
300.316
300.315