/*--------------------------------*- C++ -*----------------------------------*\
  =========                 |
  \\      /  F ield         | OpenFOAM: The Open Source CFD Toolbox
   \\    /   O peration     | Website:  https://openfoam.org
    \\  /    A nd           | Version:  8
     \\/     M anipulation  |
\*---------------------------------------------------------------------------*/
FoamFile
{
    version     2.0;
    format      ascii;
    class       volScalarField;
    location    "0.46";
    object      epsilon;
}
// * * * * * * * * * * * * * * * * * * * * * * * * * * * * * * * * * * * * * //

dimensions      [0 2 -3 0 0 0 0];

internalField   nonuniform List<scalar> 
15677
(
59.7307
18.3653
52.6906
8.08373
26.0322
50.2373
4.6223
13.3272
31.6638
50.5449
3.17409
7.75061
17.1328
37.3441
51.6367
2.48696
5.05487
10.0509
20.8592
42.6889
53.6741
2.14422
3.62804
6.47427
12.1871
24.5783
47.6798
55.7273
1.97931
2.82303
4.53063
7.73712
14.2981
28.276
52.0244
57.6562
1.91149
2.35349
3.4045
5.31679
8.92862
16.4403
31.7674
55.6934
59.3507
1.88406
2.08033
2.72448
3.91251
6.0288
10.1161
18.5461
34.9565
58.7025
60.8497
1.8705
1.93939
2.30761
3.05713
4.36178
6.71332
11.2811
20.5729
37.7692
61.1717
62.1161
1.86764
1.87829
2.05663
2.52186
3.35011
4.77985
7.36838
12.422
22.4596
40.226
63.1611
63.2312
1.86864
1.84883
1.91661
2.1864
2.71362
3.61716
5.16874
8.00428
13.5072
24.1998
42.3188
64.7866
64.1621
1.86957
1.83869
1.85193
1.98277
2.30746
2.88749
3.86026
5.53818
8.6073
14.5357
25.7604
44.108
66.0924
64.9966
1.86981
1.83697
1.82112
1.86779
2.05168
2.41876
3.04414
4.08615
5.88339
9.18077
15.484
27.1586
45.6041
67.1556
65.725
1.86981
1.83723
1.8105
1.81335
1.89832
2.11781
2.51941
3.18739
4.29371
6.20817
9.71247
16.3582
28.3795
46.8631
68.0232
66.3721
1.86976
1.83748
1.80821
1.78976
1.81544
1.93049
2.17914
2.61096
3.31733
4.48583
6.50723
10.2059
17.1417
29.4443
47.9116
68.7316
66.9633
1.86974
1.83757
1.80791
1.78272
1.7757
1.82156
1.96257
2.23549
2.69355
3.43579
4.66079
6.78271
10.6521
17.8428
30.3528
48.7731
69.3383
67.469
1.86973
1.83758
1.80794
1.78099
1.76144
1.76614
1.83184
1.99327
2.28659
2.76809
3.54254
4.8199
7.03085
11.0546
18.4529
31.1202
49.4865
69.8215
67.9783
1.86973
1.83757
1.80795
1.78066
1.75696
1.7439
1.76041
1.84321
2.02175
2.33265
2.83479
3.63839
4.96196
7.25329
11.4076
18.9797
31.757
50.048
70.2748
68.3778
1.86973
1.83755
1.80795
1.78061
1.75569
1.73585
1.7295
1.75743
1.8546
2.04778
2.37384
2.89413
3.72323
5.0877
7.44787
11.7139
19.4207
32.2708
50.5161
70.6146
68.8498
1.86973
1.83754
1.80794
1.78059
1.75538
1.73313
1.71727
1.718
1.75589
1.86569
2.0713
2.41037
2.94635
3.79747
5.19693
7.61531
11.9713
19.7832
32.6809
50.8592
70.9894
69.1671
1.86973
1.83754
1.80793
1.78056
1.7553
1.73228
1.71265
1.70128
1.70846
1.75576
1.8761
2.09229
2.44249
2.99177
3.86154
5.28975
7.75596
12.1825
20.0697
32.9898
51.1509
71.2426
69.6337
1.86973
1.83753
1.80792
1.78053
1.75527
1.73202
1.71103
1.69445
1.68723
1.70084
1.75606
1.88564
2.11091
2.47049
3.0309
3.91567
5.36741
7.86961
12.3491
20.2872
33.2182
51.3473
71.5958
69.8913
1.86973
1.83753
1.80791
1.78051
1.75524
1.73192
1.71048
1.69182
1.67798
1.67528
1.69452
1.75678
1.89444
2.1274
2.49481
3.06413
3.96086
5.42945
7.95973
12.4736
20.4438
33.3731
51.512
71.8015
70.3571
1.86973
1.83753
1.80791
1.78049
1.75521
1.73185
1.71029
1.69084
1.67418
1.66363
1.66479
1.68947
1.75814
1.90262
2.14205
2.51586
3.09224
3.99755
5.47903
8.02532
12.5621
20.5415
33.4632
51.6325
72.2005
70.6028
1.86973
1.83753
1.8079
1.78048
1.75519
1.7318
1.71019
1.69046
1.67269
1.65856
1.65067
1.6562
1.68562
1.75991
1.91039
2.15538
2.53441
3.11604
4.02734
5.51515
8.07252
12.6137
20.5997
33.5143
51.7094
72.4961
429.312
1.86973
1.83753
1.8079
1.78047
1.75517
1.73176
1.71013
1.69028
1.6721
1.65642
1.64428
1.63989
1.64877
1.68294
1.76251
1.9183
2.16794
2.55108
3.1363
4.05071
5.54219
8.09931
12.6422
20.6047
33.5118
51.8299
88.8818
716.02
1.86973
1.83753
1.8079
1.78046
1.75515
1.73173
1.71008
1.69017
1.67183
1.65551
1.64151
1.63218
1.63027
1.64366
1.68219
1.76632
1.9267
2.18041
2.56677
3.15441
4.07007
5.56016
8.11597
12.6395
20.5924
33.515
52.7578
122.272
994.801
1.86973
1.83753
1.80789
1.78046
1.75514
1.73171
1.71003
1.69009
1.67167
1.65508
1.6403
1.62863
1.62138
1.62338
1.63953
1.68319
1.77165
1.93641
2.19367
2.58274
3.17156
4.08649
5.573
8.11589
12.628
20.5643
33.5411
55.3317
157.786
1240.76
1.86973
1.83753
1.80789
1.78045
1.75513
1.73169
1.71
1.69002
1.67156
1.65484
1.63973
1.62699
1.61724
1.61321
1.61764
1.63953
1.68612
1.77924
1.94814
2.20875
2.59976
3.18902
4.10149
5.58113
8.11292
12.6045
20.5269
33.6429
59.9175
190.29
1466.92
1.86973
1.83753
1.80789
1.78045
1.75512
1.73167
1.70997
1.68997
1.67147
1.65468
1.63942
1.62619
1.61531
1.60826
1.60675
1.61593
1.64124
1.69207
1.78985
1.96285
2.22641
2.61918
3.20784
4.1169
5.58796
8.10616
12.5757
20.4839
33.9018
64.6415
221.106
1658.31
1.86972
1.83753
1.80789
1.78044
1.75512
1.73166
1.70994
1.68993
1.6714
1.65456
1.6392
1.62576
1.61435
1.60585
1.60143
1.60374
1.61724
1.64588
1.70199
1.80445
1.9814
2.24799
2.64193
3.22975
4.13409
5.59586
8.09835
12.5448
20.4366
34.3713
69.4468
248.181
1803.37
1.86972
1.83753
1.80789
1.78044
1.75511
1.73164
1.70992
1.68989
1.67134
1.65446
1.63904
1.62548
1.61381
1.60462
1.59882
1.59764
1.60482
1.62143
1.65507
1.71668
1.82391
2.00504
2.27432
2.6695
3.25562
4.15507
5.6067
8.09222
12.5126
20.3927
34.9334
73.8024
269.207
1915.69
1.86972
1.83753
1.80789
1.78044
1.75511
1.73163
1.70991
1.68985
1.67129
1.65438
1.6389
1.62527
1.61345
1.60395
1.59746
1.59461
1.5986
1.60881
1.63009
1.66998
1.73707
1.84951
2.03462
2.30681
2.70259
3.28712
4.18086
5.62216
8.08917
12.4788
20.3581
35.4745
77.1778
285.823
2005.73
1.83753
1.86976
1.80789
1.78044
1.7551
1.73162
1.70989
1.68982
1.67124
1.65431
1.63879
1.6251
1.61318
1.60352
1.59669
1.59304
1.59552
1.60252
1.61727
1.64526
1.69124
1.76444
1.88211
2.0715
2.34612
2.74274
3.32486
4.21287
5.64262
8.09001
12.442
20.3181
35.8858
79.7668
299.314
2080.68
1.80789
1.83763
1.86983
1.78044
1.7551
1.73161
1.70988
1.6898
1.67121
1.65424
1.6387
1.62496
1.61296
1.60321
1.59619
1.59219
1.59396
1.59947
1.611
1.63286
1.66737
1.72013
1.79976
1.92318
2.11644
2.39371
2.79028
3.37011
4.25124
5.66875
8.09406
12.4024
20.2692
36.1698
81.7537
310.685
2145.51
1.78043
1.80804
1.83783
1.8699
1.7551
1.7316
1.70987
1.68977
1.67118
1.65418
1.63862
1.62484
1.61278
1.60297
1.59581
1.59167
1.59314
1.598
1.60815
1.62707
1.65585
1.69782
1.75784
1.84439
1.97332
2.17062
2.44974
2.84656
3.42283
4.29641
5.70421
8.10367
12.3663
20.2081
36.3464
83.3124
320.578
2203.18
1.7551
1.78064
1.80836
1.83804
1.86998
1.7316
1.70987
1.68975
1.67116
1.65413
1.63855
1.62474
1.61262
1.60276
1.59551
1.59129
1.59264
1.59728
1.60693
1.62468
1.65099
1.68788
1.73796
1.80602
1.89943
2.03414
2.23446
2.51582
2.91125
3.48342
4.35428
5.75155
8.1209
12.3334
20.1377
36.4428
84.5679
329.468
2255.85
1.73159
1.75535
1.78107
1.80868
1.83825
1.87005
1.70986
1.68973
1.67114
1.65409
1.6385
1.62464
1.61249
1.60259
1.59526
1.591
1.5923
1.59691
1.6065
1.62403
1.64966
1.6848
1.73059
1.78972
1.8659
1.96664
2.1062
2.30919
2.59096
2.98501
3.55958
4.42792
5.80708
8.14438
12.3049
20.0601
36.4801
85.6151
337.591
2304.52
1.70985
1.73188
1.75587
1.7815
1.80902
1.83847
1.87013
1.68972
1.67112
1.65405
1.63845
1.62456
1.61238
1.60244
1.59504
1.59077
1.59205
1.59669
1.6064
1.62415
1.64994
1.68494
1.72971
1.78588
1.85479
1.93977
2.04699
2.19114
2.39484
2.67643
3.07678
3.65468
4.51085
5.87025
8.17371
12.2801
19.9806
36.4738
86.5153
345.197
2350.22
1.6897
1.71018
1.73248
1.7564
1.78195
1.80936
1.83869
1.87021
1.67111
1.65401
1.63841
1.62448
1.61228
1.60231
1.59485
1.59058
1.59185
1.59654
1.60643
1.62458
1.65104
1.68691
1.73227
1.7883
1.85506
1.93467
2.02864
2.14265
2.28918
2.49293
2.78188
3.19033
3.76019
4.60178
5.93953
8.20795
12.2609
19.9006
36.4543
87.3187
352.307
2393.13
1.67109
1.69005
1.71086
1.7331
1.75694
1.78241
1.80972
1.83893
1.87029
1.65398
1.63838
1.62441
1.61221
1.60219
1.5947
1.59041
1.59169
1.59644
1.60652
1.62511
1.6524
1.6897
1.73676
1.79453
1.86239
1.94115
2.03057
2.13382
2.25399
2.40222
2.61504
2.91409
3.31496
3.87377
4.6994
6.01374
8.24694
12.2453
19.8252
36.4168
88.0417
359.103
2433.86
1.65395
1.67148
1.69079
1.71155
1.73373
1.7575
1.78288
1.81008
1.83916
1.87037
1.63835
1.62435
1.61215
1.60208
1.59456
1.59028
1.59156
1.59637
1.60664
1.62566
1.65381
1.69265
1.74208
1.80291
1.87381
1.95534
2.04563
2.14577
2.25564
2.3815
2.5449
2.76987
3.06086
3.45
3.99413
4.80211
6.09192
8.28936
12.2358
19.7541
36.3723
88.7203
365.497
2472.22
1.63833
1.65434
1.67227
1.69154
1.71227
1.73438
1.75808
1.78336
1.81045
1.83941
1.87046
1.62429
1.61209
1.60198
1.59445
1.59016
1.59145
1.59633
1.60678
1.6262
1.65518
1.69554
1.74743
1.81219
1.88773
1.97419
2.06905
2.17218
2.28083
2.39747
2.5409
2.72386
2.94304
3.22095
3.59452
4.12088
4.90861
6.17295
8.33502
12.2286
19.689
36.3274
89.3489
371.662
2508.79
1.62424
1.63874
1.65515
1.67308
1.69232
1.713
1.73505
1.75867
1.78386
1.81083
1.83966
1.87055
1.61205
1.60189
1.59436
1.59006
1.59135
1.5963
1.60691
1.62672
1.65649
1.69828
1.75259
1.82139
1.90269
1.99621
2.09806
2.20824
2.32188
2.43949
2.5773
2.74399
2.92263
3.13317
3.39415
3.7471
4.252
5.01774
6.25587
8.38261
12.2276
19.6307
36.2844
89.9556
377.459
2543.13
1.61201
1.62462
1.63959
1.65599
1.67392
1.69312
1.71375
1.73574
1.75928
1.78437
1.81123
1.83991
1.87064
1.6018
1.59429
1.58997
1.59127
1.59627
1.60705
1.62721
1.65772
1.70084
1.75749
1.83022
1.91742
2.01973
2.13134
2.25146
2.37449
2.49979
2.64255
2.80917
2.97371
3.14035
3.3353
3.5773
3.90562
4.38676
5.12843
6.33972
8.43182
12.229
19.5784
36.2472
90.5255
383.065
2575.91
1.60172
1.61239
1.62544
1.64047
1.65686
1.67479
1.69394
1.71453
1.73645
1.7599
1.7849
1.81163
1.84017
1.87073
1.59423
1.58988
1.5912
1.59626
1.60718
1.62766
1.65886
1.70322
1.7621
1.83857
1.93157
2.04302
2.16684
2.30084
2.43672
2.57479
2.72997
2.90803
3.07468
3.22944
3.37661
3.54824
3.76943
4.07004
4.52388
5.23971
6.42372
8.48195
12.2327
19.5324
36.2152
91.0824
388.316
2606.55
1.5942
1.60201
1.61322
1.62628
1.64138
1.65776
1.67568
1.69479
1.71532
1.73718
1.76054
1.78544
1.81204
1.84043
1.87082
1.58979
1.59113
1.59624
1.6073
1.62808
1.65992
1.70541
1.7664
1.84638
1.94505
2.06558
2.20213
2.35394
2.50807
2.66337
2.83716
3.0358
3.21672
3.37446
3.51016
3.62954
3.76996
3.9649
4.23785
4.66204
5.3506
6.50712
8.53233
12.2396
19.4921
36.1902
91.6085
393.399
2635.81
1.58971
1.59447
1.60266
1.61405
1.62717
1.64232
1.65869
1.67659
1.69567
1.71614
1.73793
1.7612
1.78599
1.81245
1.84068
1.8709
1.59107
1.59623
1.60742
1.62847
1.66089
1.70743
1.77038
1.85365
1.9578
2.08718
2.23651
2.4075
2.58568
2.76597
2.96444
3.19248
3.39811
3.57139
3.70873
3.81469
3.89706
3.99979
4.1625
4.40693
4.79983
5.46025
6.58933
8.58256
12.2488
19.4572
36.1706
92.1239
398.138
2662.98
1.59103
1.58972
1.59507
1.60333
1.61493
1.62809
1.64328
1.65966
1.67753
1.69657
1.71698
1.7387
1.76187
1.78654
1.81285
1.84093
1.87098
1.59621
1.60752
1.62882
1.66179
1.70927
1.77406
1.86037
1.9698
2.10765
2.2697
2.46051
2.66479
2.87918
3.11413
3.38162
3.62319
3.8238
3.97516
4.07799
4.1418
4.17715
4.2355
4.36093
4.57588
4.93646
5.56816
6.66985
8.63227
12.2598
19.4271
36.1578
92.6115
402.725
2689
1.59623
1.59091
1.58977
1.59566
1.60404
1.61583
1.62905
1.64427
1.66065
1.67849
1.6975
1.71785
1.73949
1.76254
1.78707
1.81323
1.84117
1.87106
1.60761
1.62914
1.6626
1.71097
1.77744
1.86658
1.98101
2.12689
2.30155
2.5124
2.74367
2.99672
3.28315
3.61
3.90186
4.14427
4.32245
4.43288
4.48338
4.49042
4.4679
4.4751
4.55879
4.7428
5.0715
5.67377
6.7483
8.6811
12.2722
19.4016
36.1492
93.0875
406.979
2712.98
1.60774
1.59588
1.59064
1.58979
1.5963
1.60482
1.61676
1.63005
1.64529
1.66168
1.67948
1.69845
1.71873
1.74027
1.76319
1.78758
1.81361
1.8414
1.87114
1.62942
1.66332
1.71251
1.78053
1.87229
1.99145
2.14489
2.33196
2.56262
2.82144
3.11674
3.46332
3.87612
4.25048
4.55652
4.77973
4.90932
4.95188
4.92682
4.85973
4.76752
4.71682
4.7551
4.9055
5.20376
5.77655
6.82436
8.72879
12.2856
19.38
36.1465
93.5383
411.1
2736
1.62974
1.60705
1.595
1.59031
1.58992
1.59696
1.60567
1.61772
1.6311
1.64634
1.66274
1.6805
1.69943
1.7196
1.74103
1.76382
1.78809
1.81397
1.84162
1.87122
1.66396
1.7139
1.78335
1.87754
2.00111
2.16166
2.36084
2.61071
2.89759
3.23842
3.65136
4.16848
4.67559
5.1005
5.39986
5.56681
5.60519
5.54115
5.41065
5.24908
5.07445
4.95911
4.94913
5.06359
5.33238
5.87605
6.8978
8.77512
12.2997
19.3619
36.1478
93.9756
414.907
2754.47
1.66465
1.62846
1.6052
1.59401
1.59004
1.59023
1.59762
1.60659
1.61871
1.6322
1.64742
1.66384
1.68155
1.7004
1.72046
1.74177
1.76443
1.78857
1.81433
1.84184
1.87129
1.71516
1.78591
1.88236
2.01003
2.17725
2.38812
2.65642
2.97188
3.36061
3.84442
4.48354
5.16967
5.80885
6.26996
6.50817
6.55001
6.43176
6.20901
5.9366
5.65757
5.38714
5.20065
5.13982
5.2167
5.45679
5.97195
6.96839
8.81993
12.3144
19.3468
36.1513
94.3895
418.101
2770.05
1.71643
1.66271
1.62496
1.60319
1.59312
1.58975
1.59073
1.59829
1.60757
1.61972
1.63333
1.64853
1.66496
1.68259
1.70135
1.72129
1.74248
1.76503
1.78905
1.81467
1.84205
1.87136
1.78825
1.88676
2.01824
2.19174
2.41376
2.69965
3.04414
3.48185
4.03994
4.82133
5.73759
6.6849
7.46477
7.88898
7.9571
7.76717
7.40481
6.96018
6.50471
6.0838
5.70408
5.44026
5.32628
5.36449
5.57655
6.06399
7.03606
8.86309
12.3293
19.3345
36.1578
94.735
420.768
2786.88
1.79052
1.71363
1.65705
1.62123
1.60135
1.59234
1.58944
1.59135
1.59898
1.60862
1.62078
1.6345
1.64968
1.66608
1.6836
1.70226
1.7221
1.74318
1.76561
1.78951
1.81501
1.84225
1.87143
1.89083
2.02579
2.20517
2.43777
2.74046
3.11418
3.60065
4.23664
5.18326
6.38445
7.73554
8.98484
9.82836
10.0636
9.79782
9.23824
8.52934
7.79389
7.11271
6.52555
6.02363
5.6769
5.50784
5.50672
5.69143
6.15206
7.10066
8.90451
12.3444
19.3243
36.1661
95.0269
423.652
2805.3
1.89467
1.78667
1.70487
1.65109
1.61777
1.59969
1.59163
1.5892
1.59206
1.59972
1.60971
1.62188
1.6357
1.65083
1.66716
1.68459
1.70316
1.72288
1.74386
1.76618
1.78996
1.81533
1.84245
1.87147
2.03281
2.21764
2.46018
2.77893
3.18168
3.71588
4.4346
5.57037
7.10914
8.95655
10.8225
12.3067
13.0375
12.8575
12.0502
10.963
9.79899
8.70376
7.75592
6.9799
6.3441
5.90959
5.68395
5.64323
5.80123
6.23596
7.16221
8.94412
12.3594
19.3173
36.1738
95.3494
426.813
2825.27
2.03925
1.88949
1.77351
1.69575
1.64551
1.61457
1.59816
1.59099
1.58903
1.59283
1.60051
1.61084
1.62303
1.6369
1.65195
1.66822
1.68555
1.70403
1.72365
1.74452
1.76673
1.79039
1.81565
1.84255
1.87147
2.22934
2.48111
2.8152
3.24636
3.82693
4.63472
5.982
7.90442
10.3309
12.9546
15.2984
16.8386
17.1853
16.2978
14.708
12.9251
11.1984
9.67901
8.42789
7.44328
6.66368
6.13747
5.8542
5.77391
5.90599
6.31595
7.22074
8.98191
12.3723
19.3119
36.184
95.7042
430.247
2847.24
2.23985
2.03247
1.87005
1.75996
1.68717
1.64027
1.61158
1.59674
1.59044
1.58897
1.59365
1.60138
1.612
1.6242
1.63806
1.65305
1.66924
1.68649
1.70487
1.7244
1.74516
1.76726
1.79081
1.8158
1.84255
1.87147
2.50083
2.84945
3.30801
3.93373
4.83805
6.41554
8.75903
11.8343
15.3432
18.7609
21.4291
22.7323
22.3294
20.3836
17.747
15.0975
12.7068
10.7063
9.12102
7.91179
6.9806
6.35979
6.01828
5.89868
6.00529
6.39211
7.27629
9.01312
12.3835
19.307
36.1964
96.0981
434.031
2871.07
2.51817
2.23099
2.00412
1.8503
1.74721
1.67905
1.63527
1.60875
1.59543
1.58999
1.58901
1.5945
1.60234
1.61315
1.62535
1.63919
1.65413
1.67024
1.68741
1.70569
1.72512
1.74578
1.76778
1.79102
1.8158
1.84255
1.87147
2.88197
3.3667
4.03685
5.04536
6.86666
9.65977
13.4398
17.9423
22.6291
26.7435
29.4534
30.1035
28.494
25.0908
21.1298
17.4474
14.3008
11.7711
9.82734
8.38149
7.29314
6.57586
6.17594
6.01771
6.09907
6.46441
7.32197
9.03971
12.3961
19.3023
36.2127
96.5362
438.129
2897.37
2.91022
2.50691
2.18974
1.97568
1.8317
1.73507
1.67126
1.6305
1.6061
1.59423
1.58965
1.58918
1.59535
1.60336
1.61426
1.6265
1.64029
1.65518
1.67121
1.6883
1.70649
1.72583
1.74639
1.76804
1.79102
1.8158
1.84255
1.87147
3.42271
4.13722
5.257
7.32991
10.5927
15.1197
20.7029
26.8247
32.6759
37.2508
39.5707
39.0231
35.6674
30.3742
24.8098
19.939
15.9567
12.8593
10.5392
8.84863
7.59971
6.78507
6.32706
6.13108
6.18757
6.52382
7.36078
9.06895
12.4104
19.2986
36.2331
97.0201
442.682
2925.82
3.47089
2.89568
2.44687
2.14899
1.94892
1.81395
1.72338
1.66376
1.62593
1.60365
1.59316
1.5894
1.58958
1.59616
1.60441
1.61535
1.62762
1.64136
1.65621
1.67216
1.68917
1.70727
1.72651
1.74669
1.76804
1.79102
1.81581
1.84255
1.87147
4.23551
5.47097
7.79955
11.5443
16.8474
23.5762
31.2633
39.0949
45.955
50.5871
51.9217
49.5077
43.8004
36.1698
28.7345
22.536
17.6518
13.9577
11.2495
9.30977
7.89887
6.98697
6.47156
6.23881
6.26
6.57425
7.40331
9.10114
12.4266
19.2955
36.2588
97.5661
447.604
2957.31
4.32149
3.45258
2.80701
2.38854
2.11068
1.9233
1.79679
1.71207
1.65655
1.62156
1.60141
1.59219
1.58914
1.59019
1.59695
1.60548
1.61641
1.62873
1.64241
1.65721
1.67308
1.69002
1.70802
1.72685
1.74669
1.76804
1.79102
1.8158
1.84255
1.87143
5.68405
8.27132
12.5021
18.5973
26.5149
35.8608
45.858
55.3499
62.888
66.9848
66.5725
61.5141
52.8083
42.3996
32.848
25.2032
19.3654
15.0549
11.9521
9.76188
8.18943
7.18121
6.60942
6.32754
6.32136
6.62948
7.44997
9.13661
12.445
19.2945
36.2917
98.1651
453.125
2991.25
4.29803
5.87168
3.31759
2.72285
2.33374
2.07397
1.89851
1.78018
1.70116
1.64963
1.6174
1.59935
1.59134
1.58886
1.59092
1.59772
1.60654
1.61745
1.62981
1.64344
1.65819
1.67398
1.69084
1.7084
1.72685
1.74669
1.76804
1.79102
1.8158
1.84245
1.87136
8.74047
13.4552
20.3471
29.4752
40.5374
52.8247
65.2014
76.1299
83.8145
86.583
83.5034
74.9387
62.5761
48.9751
37.0938
27.9077
21.0792
16.1406
12.6418
10.2025
8.47043
7.36751
6.72339
6.40299
6.38842
6.68999
7.5012
9.17578
12.4659
19.2952
36.3312
98.8531
459.085
3028.91
4.0768
5.85356
9.15739
3.19387
2.64395
2.28118
2.0384
1.87447
1.76411
1.69067
1.64301
1.61349
1.59749
1.59061
1.58868
1.59169
1.59852
1.60759
1.61849
1.63087
1.64444
1.65914
1.67486
1.69124
1.70839
1.72685
1.74669
1.76804
1.79102
1.81565
1.84225
1.87129
14.3916
22.0771
32.4194
45.221
59.8649
75.2822
89.9403
101.884
108.967
109.411
102.604
89.6229
72.965
55.8028
41.4174
30.6197
22.7773
17.2067
13.3143
10.6297
8.7411
7.52224
6.82056
6.48577
6.46177
6.75633
7.55749
9.21906
12.4898
19.2977
36.3829
99.602
465.828
3069.26
3.88204
5.46097
9.16971
15.226
3.07894
2.56826
2.23029
2.00391
1.85121
1.74863
1.6806
1.63673
1.60988
1.59587
1.59003
1.58861
1.59247
1.59933
1.60862
1.6195
1.63189
1.64541
1.66006
1.67529
1.69124
1.70839
1.72685
1.74669
1.76804
1.79081
1.81533
1.84204
1.87122
23.7672
35.3155
49.852
66.8664
85.3895
103.964
120.623
132.951
138.453
135.377
123.677
105.362
83.8214
62.7893
45.7684
33.3131
24.4463
18.2465
13.9665
11.0419
8.96669
7.65455
6.92744
6.57667
6.54209
6.82912
7.61941
9.26698
12.5171
19.3036
36.4429
100.478
473.115
3114.18
3.70499
5.11846
8.45043
15.3128
25.282
2.96908
2.49505
2.18097
1.97054
1.82878
1.73375
1.671
1.63084
1.60668
1.59449
1.58958
1.58866
1.59325
1.60017
1.60962
1.62051
1.6329
1.64638
1.66052
1.67528
1.69124
1.70839
1.72685
1.74669
1.76778
1.79038
1.815
1.84183
1.87114
38.1312
54.3821
73.7409
95.356
117.895
139.491
157.687
169.541
172.24
164.269
146.445
121.918
94.9862
69.8457
50.1011
35.9653
26.0756
19.2548
14.5957
11.3858
9.15999
7.8005
7.04514
6.6766
6.63013
6.90902
7.68757
9.32007
12.5486
19.3128
36.5224
101.426
481.405
3161.88
3.53867
4.80873
7.80895
14.0698
25.5534
40.6609
2.86311
2.42421
2.13329
1.93836
1.80721
1.71953
1.66194
1.62551
1.60387
1.59331
1.58927
1.58882
1.594
1.60103
1.6106
1.62151
1.63389
1.64685
1.66052
1.67528
1.69124
1.70839
1.72685
1.74639
1.76725
1.78995
1.81466
1.84161
1.87106
58.7635
80.4214
105.059
131.492
158.037
182.376
201.456
211.723
210.145
195.753
170.569
139.035
106.304
76.8903
54.3756
38.5579
27.6567
20.2276
15.1206
11.6806
9.37361
7.96171
7.17494
6.78659
6.72673
6.99682
7.76267
9.37905
12.5845
19.3284
36.6132
102.551
490.418
3215.17
3.38068
4.52033
7.22108
12.9248
23.6173
41.2698
62.696
2.76085
2.35588
2.08735
1.90743
1.78656
1.70608
1.65368
1.62078
1.60143
1.59232
1.58906
1.58914
1.59472
1.60191
1.61155
1.62251
1.63437
1.64684
1.66051
1.67528
1.69124
1.7084
1.72651
1.74577
1.76672
1.7895
1.81431
1.84139
1.87098
86.842
114.412
144.594
175.922
206.361
233.043
252.138
259.413
251.83
229.39
195.665
156.455
117.629
83.8505
58.559
41.0761
29.1831
21.0392
15.5705
12.0065
9.60999
8.14001
7.31825
6.90778
6.83286
7.09335
7.84549
9.44456
12.6263
19.3482
36.7334
103.768
500.66
3271.05
3.23048
4.24967
6.67022
11.8512
21.7963
38.4438
63.8325
92.5802
2.66241
2.29022
2.04326
1.87785
1.76703
1.69376
1.64628
1.61656
1.59935
1.59149
1.58888
1.58962
1.59541
1.60282
1.61253
1.623
1.63435
1.64684
1.66051
1.67528
1.69124
1.70802
1.72582
1.74515
1.76616
1.78903
1.81396
1.84116
1.8709
123.331
157.099
192.942
229.174
263.355
291.851
309.82
312.355
296.799
264.656
221.332
173.93
128.831
90.6661
62.6246
43.5086
30.4567
21.7346
16.0677
12.3673
9.87184
8.33742
7.47668
7.04146
6.94958
7.19958
7.9369
9.51756
12.6739
19.3783
36.8704
105.159
511.963
3344.56
3.08789
3.99631
6.15148
10.8292
20.05
35.758
59.9105
94.4426
131.239
2.56797
2.22741
2.00114
1.84987
1.74911
1.68269
1.63966
1.61279
1.59757
1.5908
1.58866
1.59018
1.5961
1.60379
1.61298
1.62297
1.63434
1.64684
1.66051
1.67529
1.69083
1.70725
1.7251
1.7445
1.7656
1.78856
1.8136
1.84092
1.87081
168.91
208.991
250.557
291.736
329.503
359.108
374.442
370.1
344.417
300.977
247.175
191.235
139.8
97.2881
66.5515
45.5386
31.5484
22.5033
16.6178
12.7669
10.1622
8.55626
7.65204
7.18911
7.07813
7.31656
8.03786
9.59884
12.7299
19.4148
37.0491
106.664
526.894
3432.46
2.95264
3.76071
5.66527
9.85398
18.3519
33.1447
56.178
89.1985
133.989
179.249
2.47779
2.16759
1.96137
1.82422
1.733
1.67277
1.63373
1.60945
1.59604
1.59022
1.58851
1.59082
1.5969
1.60426
1.61291
1.62298
1.63434
1.64684
1.66052
1.67485
1.69
1.70647
1.72437
1.74384
1.76501
1.78807
1.81322
1.84068
1.87073
223.969
270.421
317.864
364.159
405.338
435.06
445.765
432.005
393.937
337.754
272.82
208.178
150.446
103.678
69.8271
47.2785
32.755
23.3536
17.227
13.21
10.4844
8.79911
7.84637
7.35237
7.21987
7.44558
8.14955
9.68973
12.7937
19.4667
37.2513
108.732
545.64
3521.59
2.82415
3.54394
5.21305
8.93137
16.6917
30.5673
52.5189
84.244
127.148
182.955
236.832
2.39219
2.11127
1.92496
1.80118
1.71854
1.66386
1.62843
1.60651
1.59474
1.58973
1.5885
1.59163
1.59722
1.6042
1.6129
1.62298
1.63434
1.64685
1.66006
1.67396
1.68914
1.70566
1.72363
1.74316
1.76442
1.78757
1.81284
1.84043
1.87064
288.678
341.684
395.394
447.15
491.481
519.88
523.346
497.238
444.532
374.406
297.945
224.602
160.699
108.999
72.6329
49.2017
34.09
24.2951
17.9021
13.7016
10.8423
9.06885
8.06196
7.5331
7.37636
7.58777
8.27293
9.79109
12.869
19.5296
37.5565
111.316
566.552
3610.33
2.70216
3.34793
4.7963
8.06369
15.0701
28.0081
48.8796
79.3839
120.788
174.146
241.401
303.923
2.31202
2.05985
1.89233
1.78049
1.70554
1.65587
1.62372
1.60393
1.59359
1.58941
1.58879
1.592
1.59704
1.60422
1.6129
1.62297
1.63437
1.64637
1.65911
1.67305
1.68827
1.70484
1.72286
1.74246
1.76381
1.78706
1.81244
1.84017
1.87055
363.147
423.21
483.945
541.686
588.691
613.641
606.504
564.79
495.349
410.411
322.285
240.384
169.216
113.551
75.732
51.3287
35.5681
25.3383
18.6507
14.2473
11.24
9.3687
8.30136
7.73339
7.54936
7.74528
8.41025
9.90519
12.9555
19.6289
37.97
114.274
588.944
3698.35
2.58777
3.16845
4.41526
7.25351
13.5011
25.4659
45.2287
74.5407
114.591
166.151
230.089
309.038
380.342
2.23924
2.01387
1.86308
1.76192
1.69389
1.64872
1.6195
1.60164
1.5927
1.58948
1.58882
1.59186
1.59702
1.60421
1.61291
1.623
1.63388
1.64539
1.65815
1.67212
1.68737
1.70399
1.72207
1.74175
1.76318
1.78653
1.81204
1.83991
1.87045
447.643
515.825
584.808
649.242
697.94
716.243
694.263
633.527
545.582
445.326
345.629
253.453
176.487
118.571
79.1558
53.6824
37.2052
26.4946
19.4811
14.8533
11.6822
9.70219
8.56742
7.95554
7.74074
7.91813
8.56329
10.0332
13.0762
19.7756
38.4688
117.555
613.206
3785.05
2.4839
3.00409
4.07153
6.50578
12.0014
22.9521
41.5541
69.6606
108.449
158.476
220.139
294.443
385.39
466.039
2.17456
1.97278
1.83689
1.74526
1.68343
1.6423
1.61573
1.59975
1.59237
1.58937
1.58849
1.59188
1.59702
1.60421
1.61299
1.62251
1.63288
1.6444
1.65717
1.67117
1.68645
1.70312
1.72126
1.74102
1.76254
1.78599
1.81163
1.83966
1.87037
542.89
620.914
700.103
772.023
820.355
827.26
785.362
702.286
594.51
478.797
364.904
264.582
184.483
124.104
82.9386
56.2871
39.0192
27.7769
20.4028
15.5265
12.1739
10.0732
8.86324
8.20213
7.95314
8.10825
8.73344
10.2043
13.2391
19.9564
39.0664
121.225
639.56
3869.41
2.39171
2.85673
3.76647
5.82682
10.5882
20.4854
37.8595
64.7108
102.275
150.974
210.799
282.066
366.369
470.075
561.433
2.11705
1.93605
1.81342
1.73031
1.67402
1.63651
1.61252
1.5987
1.59201
1.58898
1.58848
1.59188
1.59705
1.60428
1.61253
1.62149
1.63186
1.64339
1.65616
1.67019
1.68551
1.70223
1.72044
1.74026
1.76188
1.78544
1.81122
1.83941
1.87028
650.08
740.929
833.335
913.059
956.956
945.828
878.353
769.95
641.532
506.385
381.275
276.782
193.27
130.2
87.1165
59.1696
41.0295
29.1992
21.4257
16.2743
12.7207
10.486
9.19223
8.47596
8.1891
8.3178
8.95769
10.4236
13.4237
20.1858
39.7405
125.457
667.747
3951.48
2.31017
2.72569
3.50557
5.22411
9.28283
18.0882
34.1592
59.6761
96.007
143.515
201.875
270.779
350.883
444.928
563.189
667.878
2.06589
1.90325
1.79241
1.71687
1.66551
1.63154
1.61047
1.59791
1.59147
1.58898
1.58848
1.59187
1.59724
1.60381
1.61155
1.62048
1.63083
1.64236
1.65513
1.66919
1.68455
1.70132
1.71959
1.73949
1.76121
1.7849
1.81083
1.83916
1.8702
771.749
880.688
989.995
1075.93
1108.39
1070.72
971.691
835.503
680.314
529.771
399.166
290.136
202.911
136.91
91.7277
62.3584
43.2568
30.7765
22.5608
17.1047
13.3283
10.945
9.55798
8.78023
8.45095
8.5922
9.23921
10.6614
13.6386
20.4453
40.5831
130.124
698.75
4029.74
2.23819
2.60853
3.29066
4.71034
8.10457
15.7852
30.4766
54.5535
89.5953
135.994
193.184
260.333
337.233
425.39
529.306
665.915
788.127
2.02035
1.87396
1.77353
1.70473
1.65815
1.62814
1.60908
1.59715
1.59149
1.58898
1.58851
1.59203
1.59692
1.60283
1.61058
1.61947
1.62977
1.64131
1.65407
1.66817
1.68356
1.70038
1.71873
1.7387
1.76055
1.78437
1.81044
1.83893
1.87012
913.483
1048.55
1177.47
1264.68
1275.18
1200.51
1063.75
889.843
713.172
555.257
418.665
304.716
213.468
144.283
96.8115
65.8831
45.7232
32.5251
23.8201
18.0263
14.0031
11.4551
9.96452
9.11792
8.79559
8.93434
9.53878
10.9218
13.8749
20.7816
41.5012
135.663
731.47
4104.35
2.17466
2.50408
3.10881
4.28273
7.08306
13.6265
26.8439
49.3521
83.0029
128.315
184.566
250.467
325.081
408.784
504.477
619.152
780.753
927.824
1.97981
1.84774
1.7565
1.69419
1.65293
1.62597
1.60802
1.59718
1.59149
1.58899
1.58887
1.59167
1.59613
1.60192
1.6096
1.61844
1.62868
1.64023
1.653
1.66712
1.68255
1.69942
1.71785
1.73792
1.7599
1.78386
1.81007
1.8387
1.87004
1084.68
1256.52
1405.93
1485.25
1458.6
1333.16
1140.97
935.962
748.925
582.929
439.845
320.587
224.999
152.367
102.407
69.7744
48.452
34.4623
25.2161
19.0484
14.7519
12.0214
10.4155
9.56244
9.22596
9.29665
9.85835
11.2011
14.1546
21.1466
42.6816
141.699
768.42
4173.89
2.11853
2.41142
2.95182
3.92983
6.22508
11.6975
23.3299
44.0955
76.2031
120.391
175.869
240.957
314.061
394.637
484.136
587.459
714.971
912.021
1097.58
1.94363
1.82418
1.74168
1.6865
1.64966
1.62459
1.60806
1.59718
1.59149
1.58943
1.58887
1.59087
1.59543
1.60104
1.6086
1.61741
1.62758
1.63914
1.6519
1.66604
1.68152
1.69844
1.71697
1.73717
1.75928
1.78336
1.8097
1.83847
1.86996
1301.4
1523.99
1694.19
1749.25
1659.53
1446.76
1206.8
986.143
787.626
612.832
462.75
337.796
237.552
161.209
108.553
74.063
51.4669
36.6057
26.7619
20.1805
15.5816
12.6487
11.0086
10.1166
9.68096
9.67999
10.1963
11.5091
14.4563
21.6253
43.9446
149.091
806.352
4238.63
2.06877
2.32967
2.81398
3.63939
5.51393
10.0389
20.0725
38.8625
69.1853
112.134
166.939
231.587
303.866
382.411
467.59
562.409
674.542
818.801
1069.34
1313.85
1.91123
1.80367
1.73063
1.68182
1.64785
1.62466
1.60806
1.59718
1.59209
1.58958
1.58859
1.59023
1.59475
1.60017
1.60758
1.61637
1.62645
1.63801
1.65078
1.66494
1.68048
1.69747
1.71613
1.73643
1.75867
1.78287
1.80935
1.83826
1.86989
1596.45
1898.62
2082.01
2078.08
1835.87
1543.98
1278.45
1040.33
829.25
644.959
487.39
356.368
251.159
170.843
115.283
78.7782
54.7913
38.9737
28.4712
21.4329
16.499
13.4722
11.7459
10.7009
10.1599
10.0836
10.5566
11.837
14.8187
22.1349
45.6063
157.046
850.824
4295.91
2.02446
2.2577
2.69145
3.40319
4.92997
8.63981
17.1574
33.8507
62.011
103.467
157.611
222.128
294.203
371.696
454.022
542.973
643.626
767.548
936.501
1276.26
1618.3
1.88305
1.78814
1.72398
1.67949
1.64795
1.62465
1.60805
1.59801
1.5925
1.58952
1.58862
1.58968
1.59404
1.59934
1.60654
1.61531
1.62531
1.63686
1.64964
1.66382
1.67945
1.69653
1.71531
1.73572
1.75808
1.78241
1.80901
1.83805
1.86981
2082.94
2484.47
2678.23
2368.67
1985.7
1649.12
1355.4
1098.26
873.655
679.228
513.727
376.294
265.835
181.296
122.625
83.9467
58.4481
41.5842
30.3579
22.8151
17.7011
14.4931
12.5209
11.3137
10.6614
10.5082
10.9348
12.2019
15.2049
22.8096
47.3585
167.166
895.645
4349.23
1.98597
2.1943
2.58204
3.20823
4.45291
7.47053
14.5905
29.2115
54.9214
94.3957
147.715
212.331
284.773
362.1
442.877
527.844
620.742
729.461
871.513
1081.89
1585.59
2171.45
1.86134
1.77899
1.72097
1.67965
1.64794
1.62462
1.60921
1.59888
1.59286
1.58986
1.58879
1.58923
1.59329
1.59853
1.60548
1.61424
1.62416
1.63568
1.64849
1.6627
1.67845
1.69562
1.71451
1.73503
1.7575
1.78195
1.80868
1.83785
1.86974
2941.8
3652.1
3165.42
2605.18
2143.07
1760.1
1436.74
1159.49
920.572
715.478
541.665
397.528
281.567
192.578
130.601
89.5908
62.4577
44.4547
32.435
24.6228
19.187
15.5633
13.3312
11.953
11.1846
10.9518
11.3353
12.5868
15.6731
23.5149
49.7453
177.846
948.73
4390.9
1.956
2.13975
2.48459
3.04285
4.06586
6.50501
12.3768
24.9855
48.1315
85.1567
137.15
201.917
275.245
353.253
433.641
516.276
603.777
702.507
824.884
998.694
1287.95
2175.67
3349.23
1.84865
1.77521
1.7212
1.67964
1.64788
1.62611
1.61071
1.59998
1.59378
1.59038
1.58903
1.58894
1.59253
1.59775
1.60443
1.61314
1.62301
1.63448
1.64736
1.66163
1.67748
1.69474
1.71374
1.73436
1.75695
1.78151
1.80835
1.83765
1.86971
5075.18
4382.85
3507.16
2833.16
2302.21