Time,"U:0","U:1","U:2","UMean:0","UMean:1","UMean:2","UPrime2Mean:0","UPrime2Mean:1","UPrime2Mean:2","UPrime2Mean:3","UPrime2Mean:4","UPrime2Mean:5","epsilon","k","kMean","kPrime2Mean","nut","p","pMean","pPrime2Mean","yPlus","vtkValidPointMask","arc_length","Points:0","Points:1","Points:2"
1.00000e+02,-1.85616e-03,1.19972e+01,0.00000e+00,0.00000e+00,0.00000e+00,0.00000e+00,0.00000e+00,0.00000e+00,0.00000e+00,0.00000e+00,0.00000e+00,0.00000e+00,3.97581e+03,2.22506e+00,2.23580e+00,8.24505e-03,1.00541e-05,-8.93322e+00,-1.66534e+01,1.92052e+01,2.73469e+01,1,0.00000e+00,-1.20000e-01,1.00000e-01,0.00000e+00
1.00000e+02,-2.40685e-03,1.24780e+01,0.00000e+00,2.34922e-03,4.78866e+00,0.00000e+00,2.79549e-05,5.41630e-02,0.00000e+00,-5.36763e-04,0.00000e+00,0.00000e+00,3.42796e+03,2.03489e+00,2.05194e+00,6.97493e-03,5.03169e-05,-8.93297e+00,-1.66528e+01,1.92045e+01,1.75428e+01,1,2.39998e-04,-1.19760e-01,1.00000e-01,0.00000e+00
1.00000e+02,-2.95757e-03,1.29587e+01,0.00000e+00,4.69852e-03,9.57747e+00,0.00000e+00,5.59106e-05,1.08328e-01,0.00000e+00,-1.07354e-03,0.00000e+00,0.00000e+00,2.88009e+03,1.84471e+00,1.86809e+00,5.70478e-03,9.05810e-05,-8.93272e+00,-1.66522e+01,1.92037e+01,7.73841e+00,1,4.80004e-04,-1.19520e-01,1.00000e-01,0.00000e+00
1.00000e+02,-3.88751e-03,1.34730e+01,0.00000e+00,6.69677e-03,1.34954e+01,0.00000e+00,9.32110e-05,1.51636e-01,0.00000e+00,-1.60010e-03,0.00000e+00,0.00000e+00,2.32336e+03,1.64130e+00,1.66963e+00,4.43272e-03,1.24148e-04,-8.93261e+00,-1.66520e+01,1.92042e+01,0.00000e+00,1,7.20002e-04,-1.19280e-01,1.00000e-01,0.00000e+00
1.00000e+02,-6.23816e-03,1.41128e+01,0.00000e+00,7.38020e-03,1.41516e+01,0.00000e+00,1.65521e-04,1.54281e-01,0.00000e+00,-2.08845e-03,0.00000e+00,0.00000e+00,1.73337e+03,1.38829e+00,1.41647e+00,3.15337e-03,1.32629e-04,-8.93298e+00,-1.66531e+01,1.92095e+01,0.00000e+00,1,9.60000e-04,-1.19040e-01,1.00000e-01,0.00000e+00
1.00000e+02,-8.58881e-03,1.47526e+01,0.00000e+00,8.06362e-03,1.48077e+01,0.00000e+00,2.37831e-04,1.56925e-01,0.00000e+00,-2.57679e-03,0.00000e+00,0.00000e+00,1.14337e+03,1.13527e+00,1.16331e+00,1.87402e-03,1.41111e-04,-8.93335e+00,-1.66543e+01,1.92148e+01,0.00000e+00,1,1.20000e-03,-1.18800e-01,1.00000e-01,0.00000e+00
1.00000e+02,-1.09593e-02,1.53889e+01,0.00000e+00,8.72560e-03,1.54603e+01,0.00000e+00,3.10599e-04,1.59509e-01,0.00000e+00,-3.06447e-03,0.00000e+00,0.00000e+00,5.57696e+02,8.83788e-01,9.11612e-01,6.05837e-04,1.49919e-04,-8.93375e+00,-1.66554e+01,1.92202e+01,0.00000e+00,1,1.44000e-03,-1.18560e-01,1.00000e-01,0.00000e+00
1.00000e+02,-1.54642e-02,1.56491e+01,0.00000e+00,7.07228e-03,1.57324e+01,0.00000e+00,4.32570e-04,1.55502e-01,0.00000e+00,-3.47842e-03,0.00000e+00,0.00000e+00,4.40287e+02,7.98276e-01,8.18728e-01,5.45744e-04,1.93881e-04,-8.93711e+00,-1.66610e+01,1.92339e+01,0.00000e+00,1,1.68000e-03,-1.18320e-01,1.00000e-01,0.00000e+00
1.00000e+02,-1.99690e-02,1.59093e+01,0.00000e+00,5.41897e-03,1.60046e+01,0.00000e+00,5.54540e-04,1.51496e-01,0.00000e+00,-3.89238e-03,0.00000e+00,0.00000e+00,3.22879e+02,7.12764e-01,7.25845e-01,4.85651e-04,2.37842e-04,-8.94048e+00,-1.66665e+01,1.92477e+01,0.00000e+00,1,1.92000e-03,-1.18080e-01,1.00000e-01,0.00000e+00
1.00000e+02,-2.44739e-02,1.61695e+01,0.00000e+00,3.76565e-03,1.62767e+01,0.00000e+00,6.76510e-04,1.47489e-01,0.00000e+00,-4.30633e-03,0.00000e+00,0.00000e+00,2.05471e+02,6.27253e-01,6.32961e-01,4.25559e-04,2.81804e-04,-8.94385e+00,-1.66721e+01,1.92614e+01,0.00000e+00,1,2.16000e-03,-1.17840e-01,1.00000e-01,0.00000e+00
1.00000e+02,-2.93256e-02,1.63695e+01,0.00000e+00,1.56372e-03,1.64866e+01,0.00000e+00,8.09798e-04,1.43824e-01,0.00000e+00,-4.70028e-03,0.00000e+00,0.00000e+00,1.20537e+02,5.70525e-01,5.70370e-01,4.65496e-04,3.54629e-04,-8.94895e+00,-1.66794e+01,1.92767e+01,0.00000e+00,1,2.40000e-03,-1.17600e-01,1.00000e-01,0.00000e+00
1.00000e+02,-3.48667e-02,1.64497e+01,0.00000e+00,-1.72907e-03,1.65727e+01,0.00000e+00,9.65583e-04,1.40837e-01,0.00000e+00,-5.05442e-03,0.00000e+00,0.00000e+00,1.00196e+02,5.71047e-01,5.68030e-01,7.04368e-04,4.84848e-04,-8.95750e+00,-1.66901e+01,1.92948e+01,0.00000e+00,1,2.64000e-03,-1.17360e-01,1.00000e-01,0.00000e+00
1.00000e+02,-4.04078e-02,1.65300e+01,0.00000e+00,-5.02187e-03,1.66589e+01,0.00000e+00,1.12137e-03,1.37851e-01,0.00000e+00,-5.40856e-03,0.00000e+00,0.00000e+00,7.98552e+01,5.71570e-01,5.65691e-01,9.43240e-04,6.15068e-04,-8.96606e+00,-1.67008e+01,1.93130e+01,0.00000e+00,1,2.88000e-03,-1.17120e-01,1.00000e-01,0.00000e+00
1.00000e+02,-4.59489e-02,1.66102e+01,0.00000e+00,-8.31466e-03,1.67451e+01,0.00000e+00,1.27715e-03,1.34864e-01,0.00000e+00,-5.76271e-03,0.00000e+00,0.00000e+00,5.95144e+01,5.72092e-01,5.63351e-01,1.18211e-03,7.45288e-04,-8.97462e+00,-1.67116e+01,1.93312e+01,0.00000e+00,1,3.12000e-03,-1.16880e-01,1.00000e-01,0.00000e+00
1.00000e+02,-5.14998e-02,1.66844e+01,0.00000e+00,-1.16436e-02,1.68247e+01,0.00000e+00,1.43730e-03,1.32132e-01,0.00000e+00,-6.12129e-03,0.00000e+00,0.00000e+00,4.10767e+01,5.74690e-01,5.63328e-01,1.42584e-03,8.86580e-04,-8.98384e+00,-1.67230e+01,1.93498e+01,0.00000e+00,1,3.36000e-03,-1.16640e-01,1.00000e-01,0.00000e+00
1.00000e+02,-5.71225e-02,1.67122e+01,0.00000e+00,-1.52449e-02,1.68547e+01,0.00000e+00,1.63034e-03,1.31319e-01,0.00000e+00,-6.51334e-03,0.00000e+00,0.00000e+00,3.70155e+01,5.92960e-01,5.80795e-01,1.70619e-03,1.11145e-03,-8.99815e+00,-1.67393e+01,1.93722e+01,0.00000e+00,1,3.60000e-03,-1.16400e-01,1.00000e-01,0.00000e+00
1.00000e+02,-6.27452e-02,1.67400e+01,0.00000e+00,-1.88462e-02,1.68847e+01,0.00000e+00,1.82339e-03,1.30507e-01,0.00000e+00,-6.90539e-03,0.00000e+00,0.00000e+00,3.29542e+01,6.11230e-01,5.98262e-01,1.98653e-03,1.33632e-03,-9.01245e+00,-1.67556e+01,1.93946e+01,0.00000e+00,1,3.84000e-03,-1.16160e-01,1.00000e-01,0.00000e+00
1.00000e+02,-6.83680e-02,1.67679e+01,0.00000e+00,-2.24475e-02,1.69147e+01,0.00000e+00,2.01644e-03,1.29695e-01,0.00000e+00,-7.29744e-03,0.00000e+00,0.00000e+00,2.88930e+01,6.29500e-01,6.15730e-01,2.26687e-03,1.56118e-03,-9.02675e+00,-1.67719e+01,1.94170e+01,0.00000e+00,1,4.08000e-03,-1.15920e-01,1.00000e-01,0.00000e+00
1.00000e+02,-7.39909e-02,1.67957e+01,0.00000e+00,-2.60488e-02,1.69447e+01,0.00000e+00,2.20949e-03,1.28882e-01,0.00000e+00,-7.68950e-03,0.00000e+00,0.00000e+00,2.48316e+01,6.47771e-01,6.33197e-01,2.54723e-03,1.78606e-03,-9.04106e+00,-1.67882e+01,1.94393e+01,0.00000e+00,1,4.32000e-03,-1.15680e-01,1.00000e-01,0.00000e+00
1.00000e+02,-7.95877e-02,1.68196e+01,0.00000e+00,-2.96464e-02,1.69704e+01,0.00000e+00,2.41572e-03,1.28248e-01,0.00000e+00,-8.08716e-03,0.00000e+00,0.00000e+00,2.15821e+01,6.66410e-01,6.51220e-01,2.82197e-03,2.02690e-03,-9.05657e+00,-1.68059e+01,1.94632e+01,0.00000e+00,1,4.56000e-03,-1.15440e-01,1.00000e-01,0.00000e+00
1.00000e+02,-8.51163e-02,1.68330e+01,0.00000e+00,-3.32343e-02,1.69850e+01,0.00000e+00,2.65653e-03,1.28082e-01,0.00000e+00,-8.49955e-03,0.00000e+00,0.00000e+00,2.04619e+01,6.86015e-01,6.70699e-01,3.08204e-03,2.30965e-03,-9.07526e+00,-1.68270e+01,1.94907e+01,0.00000e+00,1,4.80000e-03,-1.15200e-01,1.00000e-01,0.00000e+00
1.00000e+02,-9.06450e-02,1.68464e+01,0.00000e+00,-3.68221e-02,1.69996e+01,0.00000e+00,2.89733e-03,1.27915e-01,0.00000e+00,-8.91193e-03,0.00000e+00,0.00000e+00,1.93418e+01,7.05620e-01,6.90179e-01,3.34210e-03,2.59240e-03,-9.09395e+00,-1.68481e+01,1.95182e+01,0.00000e+00,1,5.04000e-03,-1.14960e-01,1.00000e-01,0.00000e+00
1.00000e+02,-9.61739e-02,1.68599e+01,0.00000e+00,-4.04101e-02,1.70142e+01,0.00000e+00,3.13815e-03,1.27749e-01,0.00000e+00,-9.32433e-03,0.00000e+00,0.00000e+00,1.82216e+01,7.25225e-01,7.09659e-01,3.60217e-03,2.87516e-03,-9.11264e+00,-1.68692e+01,1.95458e+01,0.00000e+00,1,5.28000e-03,-1.14720e-01,1.00000e-01,0.00000e+00
1.00000e+02,-1.01703e-01,1.68733e+01,0.00000e+00,-4.39979e-02,1.70287e+01,0.00000e+00,3.37896e-03,1.27582e-01,0.00000e+00,-9.73672e-03,0.00000e+00,0.00000e+00,1.71014e+01,7.44830e-01,7.29138e-01,3.86224e-03,3.15791e-03,-9.13133e+00,-1.68903e+01,1.95733e+01,0.00000e+00,1,5.52000e-03,-1.14480e-01,1.00000e-01,0.00000e+00
1.00000e+02,-1.07231e-01,1.68867e+01,0.00000e+00,-4.75858e-02,1.70433e+01,0.00000e+00,3.61977e-03,1.27416e-01,0.00000e+00,-1.01491e-02,0.00000e+00,0.00000e+00,1.59812e+01,7.64435e-01,7.48618e-01,4.12230e-03,3.44066e-03,-9.15002e+00,-1.69114e+01,1.96009e+01,0.00000e+00,1,5.76000e-03,-1.14240e-01,1.00000e-01,0.00000e+00
1.00000e+02,-1.12704e-01,1.68963e+01,0.00000e+00,-5.11334e-02,1.70539e+01,0.00000e+00,3.90325e-03,1.27395e-01,0.00000e+00,-1.05683e-02,0.00000e+00,0.00000e+00,1.54103e+01,7.83585e-01,7.67842e-01,4.38488e-03,3.73278e-03,-9.17051e+00,-1.69352e+01,1.96333e+01,0.00000e+00,1,6.00000e-03,-1.14000e-01,1.00000e-01,0.00000e+00
1.00000e+02,-1.18156e-01,1.69044e+01,0.00000e+00,-5.46654e-02,1.70629e+01,0.00000e+00,4.20335e-03,1.27431e-01,0.00000e+00,-1.09901e-02,0.00000e+00,0.00000e+00,1.50532e+01,8.02557e-01,7.86969e-01,4.64844e-03,4.02855e-03,-9.19170e+00,-1.69600e+01,1.96675e+01,0.00000e+00,1,6.24000e-03,-1.13760e-01,1.00000e-01,0.00000e+00
1.00000e+02,-1.23607e-01,1.69125e+01,0.00000e+00,-5.81973e-02,1.70719e+01,0.00000e+00,4.50345e-03,1.27468e-01,0.00000e+00,-1.14119e-02,0.00000e+00,0.00000e+00,1.46961e+01,8.21529e-01,8.06094e-01,4.91200e-03,4.32432e-03,-9.21288e+00,-1.69848e+01,1.97018e+01,0.00000e+00,1,6.48000e-03,-1.13520e-01,1.00000e-01,0.00000e+00
1.00000e+02,-1.29058e-01,1.69206e+01,0.00000e+00,-6.17291e-02,1.70808e+01,0.00000e+00,4.80355e-03,1.27504e-01,0.00000e+00,-1.18337e-02,0.00000e+00,0.00000e+00,1.43390e+01,8.40501e-01,8.25220e-01,5.17555e-03,4.62009e-03,-9.23407e+00,-1.70096e+01,1.97361e+01,0.00000e+00,1,6.72000e-03,-1.13280e-01,1.00000e-01,0.00000e+00
1.00000e+02,-1.34510e-01,1.69287e+01,0.00000e+00,-6.52610e-02,1.70898e+01,0.00000e+00,5.10365e-03,1.27540e-01,0.00000e+00,-1.22555e-02,0.00000e+00,0.00000e+00,1.39819e+01,8.59473e-01,8.44346e-01,5.43911e-03,4.91586e-03,-9.25526e+00,-1.70344e+01,1.97704e+01,0.00000e+00,1,6.96000e-03,-1.13040e-01,1.00000e-01,0.00000e+00
1.00000e+02,-1.39961e-01,1.69368e+01,0.00000e+00,-6.87930e-02,1.70988e+01,0.00000e+00,5.40376e-03,1.27576e-01,0.00000e+00,-1.26773e-02,0.00000e+00,0.00000e+00,1.36248e+01,8.78445e-01,8.63472e-01,5.70267e-03,5.21163e-03,-9.27645e+00,-1.70592e+01,1.98047e+01,0.00000e+00,1,7.20000e-03,-1.12800e-01,1.00000e-01,0.00000e+00
1.00000e+02,-1.45382e-01,1.69440e+01,0.00000e+00,-7.22971e-02,1.71069e+01,0.00000e+00,5.72805e-03,1.27643e-01,0.00000e+00,-1.31000e-02,0.00000e+00,0.00000e+00,1.33627e+01,8.97289e-01,8.82541e-01,5.97184e-03,5.50168e-03,-9.29808e+00,-1.70851e+01,1.98419e+01,0.00000e+00,1,7.44000e-03,-1.12560e-01,1.00000e-01,0.00000e+00
1.00000e+02,-1.50744e-01,1.69495e+01,0.00000e+00,-7.57476e-02,1.71133e+01,0.00000e+00,6.09885e-03,1.27768e-01,0.00000e+00,-1.35246e-02,0.00000e+00,0.00000e+00,1.32833e+01,9.15886e-01,9.01503e-01,6.25180e-03,5.78071e-03,-9.32055e+00,-1.71131e+01,1.98847e+01,0.00000e+00,1,7.68000e-03,-1.12320e-01,1.00000e-01,0.00000e+00
1.00000e+02,-1.56107e-01,1.69550e+01,0.00000e+00,-7.91982e-02,1.71197e+01,0.00000e+00,6.46964e-03,1.27893e-01,0.00000e+00,-1.39492e-02,0.00000e+00,0.00000e+00,1.32038e+01,9.34483e-01,9.20465e-01,6.53176e-03,6.05975e-03,-9.34302e+00,-1.71412e+01,1.99275e+01,0.00000e+00,1,7.92000e-03,-1.12080e-01,1.00000e-01,0.00000e+00
1.00000e+02,-1.61469e-01,1.69605e+01,0.00000e+00,-8.26488e-02,1.71261e+01,0.00000e+00,6.84045e-03,1.28019e-01,0.00000e+00,-1.43738e-02,0.00000e+00,0.00000e+00,1.31244e+01,9.53080e-01,9.39427e-01,6.81173e-03,6.33880e-03,-9.36550e+00,-1.71692e+01,1.99704e+01,0.00000e+00,1,8.16000e-03,-1.11840e-01,1.00000e-01,0.00000e+00
1.00000e+02,-1.66832e-01,1.69660e+01,0.00000e+00,-8.60994e-02,1.71324e+01,0.00000e+00,7.21124e-03,1.28144e-01,0.00000e+00,-1.47984e-02,0.00000e+00,0.00000e+00,1.30449e+01,9.71677e-01,9.58389e-01,7.09169e-03,6.61783e-03,-9.38797e+00,-1.71972e+01,2.00132e+01,0.00000e+00,1,8.40000e-03,-1.11600e-01,1.00000e-01,0.00000e+00
1.00000e+02,-1.72194e-01,1.69715e+01,0.00000e+00,-8.95499e-02,1.71388e+01,0.00000e+00,7.58203e-03,1.28269e-01,0.00000e+00,-1.52230e-02,0.00000e+00,0.00000e+00,1.29655e+01,9.90274e-01,9.77350e-01,7.37165e-03,6.89687e-03,-9.41044e+00,-1.72252e+01,2.00560e+01,0.00000e+00,1,8.64000e-03,-1.11360e-01,1.00000e-01,0.00000e+00
1.00000e+02,-1.77556e-01,1.69770e+01,0.00000e+00,-9.30005e-02,1.71452e+01,0.00000e+00,7.95283e-03,1.28395e-01,0.00000e+00,-1.56476e-02,0.00000e+00,0.00000e+00,1.28860e+01,1.00887e+00,9.96312e-01,7.65161e-03,7.17591e-03,-9.43291e+00,-1.72532e+01,2.00989e+01,0.00000e+00,1,8.88000e-03,-1.11120e-01,1.00000e-01,0.00000e+00
1.00000e+02,-1.82916e-01,1.69825e+01,0.00000e+00,-9.64487e-02,1.71515e+01,0.00000e+00,8.32552e-03,1.28521e-01,0.00000e+00,-1.60722e-02,0.00000e+00,0.00000e+00,1.28096e+01,1.02747e+00,1.01528e+00,7.93206e-03,7.45418e-03,-9.45540e+00,-1.72813e+01,2.01419e+01,0.00000e+00,1,9.12000e-03,-1.10880e-01,1.00000e-01,0.00000e+00
1.00000e+02,-1.88162e-01,1.69865e+01,0.00000e+00,-9.97922e-02,1.71565e+01,0.00000e+00,8.78020e-03,1.28704e-01,0.00000e+00,-1.64943e-02,0.00000e+00,0.00000e+00,1.28675e+01,1.04617e+00,1.03457e+00,8.23356e-03,7.69895e-03,-9.47864e+00,-1.73125e+01,2.01954e+01,0.00000e+00,1,9.36000e-03,-1.10640e-01,1.00000e-01,0.00000e+00
1.00000e+02,-1.93408e-01,1.69904e+01,0.00000e+00,-1.03136e-01,1.71615e+01,0.00000e+00,9.23488e-03,1.28886e-01,0.00000e+00,-1.69165e-02,0.00000e+00,0.00000e+00,1.29254e+01,1.06487e+00,1.05386e+00,8.53507e-03,7.94371e-03,-9.50187e+00,-1.73438e+01,2.02490e+01,0.00000e+00,1,9.60000e-03,-1.10400e-01,1.00000e-01,0.00000e+00
1.00000e+02,-1.98655e-01,1.69944e+01,0.00000e+00,-1.06479e-01,1.71664e+01,0.00000e+00,9.68956e-03,1.29068e-01,0.00000e+00,-1.73387e-02,0.00000e+00,0.00000e+00,1.29833e+01,1.08357e+00,1.07315e+00,8.83657e-03,8.18847e-03,-9.52511e+00,-1.73751e+01,2.03025e+01,0.00000e+00,1,9.84000e-03,-1.10160e-01,1.00000e-01,0.00000e+00
1.00000e+02,-2.03901e-01,1.69984e+01,0.00000e+00,-1.09822e-01,1.71714e+01,0.00000e+00,1.01443e-02,1.29251e-01,0.00000e+00,-1.77609e-02,0.00000e+00,0.00000e+00,1.30411e+01,1.10227e+00,1.09244e+00,9.13808e-03,8.43325e-03,-9.54835e+00,-1.74064e+01,2.03560e+01,0.00000e+00,1,1.00800e-02,-1.09920e-01,1.00000e-01,0.00000e+00
1.00000e+02,-2.09147e-01,1.70023e+01,0.00000e+00,-1.13166e-01,1.71763e+01,0.00000e+00,1.05989e-02,1.29433e-01,0.00000e+00,-1.81831e-02,0.00000e+00,0.00000e+00,1.30990e+01,1.12097e+00,1.11173e+00,9.43959e-03,8.67801e-03,-9.57158e+00,-1.74376e+01,2.04095e+01,0.00000e+00,1,1.03200e-02,-1.09680e-01,1.00000e-01,0.00000e+00
1.00000e+02,-2.14393e-01,1.70063e+01,0.00000e+00,-1.16509e-01,1.71813e+01,0.00000e+00,1.10536e-02,1.29615e-01,0.00000e+00,-1.86053e-02,0.00000e+00,0.00000e+00,1.31569e+01,1.13967e+00,1.13102e+00,9.74109e-03,8.92278e-03,-9.59482e+00,-1.74689e+01,2.04630e+01,0.00000e+00,1,1.05600e-02,-1.09440e-01,1.00000e-01,0.00000e+00
1.00000e+02,-2.19639e-01,1.70103e+01,0.00000e+00,-1.19853e-01,1.71862e+01,0.00000e+00,1.15083e-02,1.29797e-01,0.00000e+00,-1.90275e-02,0.00000e+00,0.00000e+00,1.32147e+01,1.15837e+00,1.15031e+00,1.00426e-02,9.16754e-03,-9.61805e+00,-1.75002e+01,2.05166e+01,0.00000e+00,1,1.08000e-02,-1.09200e-01,1.00000e-01,0.00000e+00
1.00000e+02,-2.24886e-01,1.70143e+01,0.00000e+00,-1.23196e-01,1.71912e+01,0.00000e+00,1.19630e-02,1.29980e-01,0.00000e+00,-1.94497e-02,0.00000e+00,0.00000e+00,1.32726e+01,1.17707e+00,1.16960e+00,1.03441e-02,9.41231e-03,-9.64129e+00,-1.75314e+01,2.05701e+01,0.00000e+00,1,1.10400e-02,-1.08960e-01,1.00000e-01,0.00000e+00
1.00000e+02,-2.30042e-01,1.70176e+01,0.00000e+00,-1.26458e-01,1.71956e+01,0.00000e+00,1.24804e-02,1.30195e-01,0.00000e+00,-1.98678e-02,0.00000e+00,0.00000e+00,1.33898e+01,1.19615e+00,1.18943e+00,1.06604e-02,9.62986e-03,-9.66494e+00,-1.75650e+01,2.06319e+01,0.00000e+00,1,1.12800e-02,-1.08720e-01,1.00000e-01,0.00000e+00
1.00000e+02,-2.35144e-01,1.70205e+01,0.00000e+00,-1.29671e-01,1.71997e+01,0.00000e+00,1.30361e-02,1.30429e-01,0.00000e+00,-2.02834e-02,0.00000e+00,0.00000e+00,1.35431e+01,1.21547e+00,1.20959e+00,1.09857e-02,9.83080e-03,-9.68884e+00,-1.76000e+01,2.06989e+01,0.00000e+00,1,1.15200e-02,-1.08480e-01,1.00000e-01,0.00000e+00
1.00000e+02,-2.40245e-01,1.70234e+01,0.00000e+00,-1.32884e-01,1.72037e+01,0.00000e+00,1.35918e-02,1.30664e-01,0.00000e+00,-2.06989e-02,0.00000e+00,0.00000e+00,1.36965e+01,1.23478e+00,1.22975e+00,1.13111e-02,1.00317e-02,-9.71274e+00,-1.76350e+01,2.07659e+01,0.00000e+00,1,1.17600e-02,-1.08240e-01,1.00000e-01,0.00000e+00
1.00000e+02,-2.45347e-01,1.70263e+01,0.00000e+00,-1.36097e-01,1.72078e+01,0.00000e+00,1.41476e-02,1.30899e-01,0.00000e+00,-2.11145e-02,0.00000e+00,0.00000e+00,1.38498e+01,1.25410e+00,1.24991e+00,1.16364e-02,1.02327e-02,-9.73664e+00,-1.76699e+01,2.08328e+01,0.00000e+00,1,1.20000e-02,-1.08000e-01,1.00000e-01,0.00000e+00
1.00000e+02,-2.50448e-01,1.70292e+01,0.00000e+00,-1.39309e-01,1.72119e+01,0.00000e+00,1.47033e-02,1.31134e-01,0.00000e+00,-2.15301e-02,0.00000e+00,0.00000e+00,1.40031e+01,1.27341e+00,1.27007e+00,1.19617e-02,1.04336e-02,-9.76054e+00,-1.77049e+01,2.08998e+01,0.00000e+00,1,1.22400e-02,-1.07760e-01,1.00000e-01,0.00000e+00
1.00000e+02,-2.55549e-01,1.70321e+01,0.00000e+00,-1.42522e-01,1.72160e+01,0.00000e+00,1.52590e-02,1.31369e-01,0.00000e+00,-2.19457e-02,0.00000e+00,0.00000e+00,1.41565e+01,1.29272e+00,1.29023e+00,1.22870e-02,1.06346e-02,-9.78444e+00,-1.77399e+01,2.09668e+01,0.00000e+00,1,1.24800e-02,-1.07520e-01,1.00000e-01,0.00000e+00
1.00000e+02,-2.60651e-01,1.70351e+01,0.00000e+00,-1.45735e-01,1.72200e+01,0.00000e+00,1.58147e-02,1.31603e-01,0.00000e+00,-2.23612e-02,0.00000e+00,0.00000e+00,1.43098e+01,1.31204e+00,1.31038e+00,1.26124e-02,1.08355e-02,-9.80835e+00,-1.77748e+01,2.10337e+01,0.00000e+00,1,1.27200e-02,-1.07280e-01,1.00000e-01,0.00000e+00
1.00000e+02,-2.65753e-01,1.70380e+01,0.00000e+00,-1.48947e-01,1.72241e+01,0.00000e+00,1.63705e-02,1.31838e-01,0.00000e+00,-2.27768e-02,0.00000e+00,0.00000e+00,1.44632e+01,1.33135e+00,1.33054e+00,1.29377e-02,1.10364e-02,-9.83225e+00,-1.78098e+01,2.11007e+01,0.00000e+00,1,1.29600e-02,-1.07040e-01,1.00000e-01,0.00000e+00
1.00000e+02,-2.70854e-01,1.70409e+01,0.00000e+00,-1.52160e-01,1.72282e+01,0.00000e+00,1.69262e-02,1.32073e-01,0.00000e+00,-2.31924e-02,0.00000e+00,0.00000e+00,1.46165e+01,1.35067e+00,1.35070e+00,1.32630e-02,1.12374e-02,-9.85615e+00,-1.78448e+01,2.11677e+01,0.00000e+00,1,1.32000e-02,-1.06800e-01,1.00000e-01,0.00000e+00
1.00000e+02,-2.75955e-01,1.70438e+01,0.00000e+00,-1.55373e-01,1.72323e+01,0.00000e+00,1.74819e-02,1.32308e-01,0.00000e+00,-2.36080e-02,0.00000e+00,0.00000e+00,1.47699e+01,1.36998e+00,1.37086e+00,1.35883e-02,1.14383e-02,-9.88005e+00,-1.78798e+01,2.12346e+01,0.00000e+00,1,1.34400e-02,-1.06560e-01,1.00000e-01,0.00000e+00
1.00000e+02,-2.80879e-01,1.70459e+01,0.00000e+00,-1.58430e-01,1.72358e+01,0.00000e+00,1.81589e-02,1.32603e-01,0.00000e+00,-2.40128e-02,0.00000e+00,0.00000e+00,1.50115e+01,1.39046e+00,1.39246e+00,1.39381e-02,1.15938e-02,-9.90476e+00,-1.79190e+01,2.13183e+01,0.00000e+00,1,1.36800e-02,-1.06320e-01,1.00000e-01,0.00000e+00
1.00000e+02,-2.85799e-01,1.70480e+01,0.00000e+00,-1.61484e-01,1.72393e+01,0.00000e+00,1.88387e-02,1.32899e-01,0.00000e+00,-2.44174e-02,0.00000e+00,0.00000e+00,1.52552e+01,1.41097e+00,1.41410e+00,1.42884e-02,1.17482e-02,-9.92948e+00,-1.79584e+01,2.14024e+01,0.00000e+00,1,1.39200e-02,-1.06080e-01,1.00000e-01,0.00000e+00
1.00000e+02,-2.90719e-01,1.70501e+01,0.00000e+00,-1.64538e-01,1.72428e+01,0.00000e+00,1.95184e-02,1.33195e-01,0.00000e+00,-2.48220e-02,0.00000e+00,0.00000e+00,1.54989e+01,1.43148e+00,1.43573e+00,1.46387e-02,1.19026e-02,-9.95421e+00,-1.79978e+01,2.14865e+01,0.00000e+00,1,1.41600e-02,-1.05840e-01,1.00000e-01,0.00000e+00
1.00000e+02,-2.95638e-01,1.70522e+01,0.00000e+00,-1.67592e-01,1.72463e+01,0.00000e+00,2.01981e-02,1.33491e-01,0.00000e+00,-2.52266e-02,0.00000e+00,0.00000e+00,1.57426e+01,1.45199e+00,1.45736e+00,1.49890e-02,1.20570e-02,-9.97893e+00,-1.80372e+01,2.15706e+01,0.00000e+00,1,1.44000e-02,-1.05600e-01,1.00000e-01,0.00000e+00
1.00000e+02,-3.00558e-01,1.70543e+01,0.00000e+00,-1.70647e-01,1.72498e+01,0.00000e+00,2.08779e-02,1.33788e-01,0.00000e+00,-2.56312e-02,0.00000e+00,0.00000e+00,1.59863e+01,1.47249e+00,1.47900e+00,1.53393e-02,1.22115e-02,-1.00037e+01,-1.80765e+01,2.16547e+01,0.00000e+00,1,1.46400e-02,-1.05360e-01,1.00000e-01,0.00000e+00
1.00000e+02,-3.05478e-01,1.70564e+01,0.00000e+00,-1.73701e-01,1.72533e+01,0.00000e+00,2.15576e-02,1.34084e-01,0.00000e+00,-2.60359e-02,0.00000e+00,0.00000e+00,1.62300e+01,1.49300e+00,1.50063e+00,1.56897e-02,1.23659e-02,-1.00284e+01,-1.81159e+01,2.17387e+01,0.00000e+00,1,1.48800e-02,-1.05120e-01,1.00000e-01,0.00000e+00
1.00000e+02,-3.10398e-01,1.70585e+01,0.00000e+00,-1.76755e-01,1.72568e+01,0.00000e+00,2.22374e-02,1.34380e-01,0.00000e+00,-2.64405e-02,0.00000e+00,0.00000e+00,1.64737e+01,1.51351e+00,1.52226e+00,1.60400e-02,1.25203e-02,-1.00531e+01,-1.81553e+01,2.18228e+01,0.00000e+00,1,1.51200e-02,-1.04880e-01,1.00000e-01,0.00000e+00
1.00000e+02,-3.15317e-01,1.70606e+01,0.00000e+00,-1.79809e-01,1.72603e+01,0.00000e+00,2.29171e-02,1.34677e-01,0.00000e+00,-2.68451e-02,0.00000e+00,0.00000e+00,1.67174e+01,1.53402e+00,1.54390e+00,1.63903e-02,1.26747e-02,-1.00778e+01,-1.81947e+01,2.19069e+01,0.00000e+00,1,1.53600e-02,-1.04640e-01,1.00000e-01,0.00000e+00
1.00000e+02,-3.20237e-01,1.70627e+01,0.00000e+00,-1.82863e-01,1.72638e+01,0.00000e+00,2.35969e-02,1.34973e-01,0.00000e+00,-2.72497e-02,0.00000e+00,0.00000e+00,1.69611e+01,1.55453e+00,1.56553e+00,1.67406e-02,1.28291e-02,-1.01026e+01,-1.82340e+01,2.19910e+01,0.00000e+00,1,1.56000e-02,-1.04400e-01,1.00000e-01,0.00000e+00
1.00000e+02,-3.25157e-01,1.70648e+01,0.00000e+00,-1.85917e-01,1.72673e+01,0.00000e+00,2.42766e-02,1.35269e-01,0.00000e+00,-2.76543e-02,0.00000e+00,0.00000e+00,1.72048e+01,1.57503e+00,1.58717e+00,1.70909e-02,1.29836e-02,-1.01273e+01,-1.82734e+01,2.20750e+01,0.00000e+00,1,1.58400e-02,-1.04160e-01,1.00000e-01,0.00000e+00
1.00000e+02,-3.30076e-01,1.70669e+01,0.00000e+00,-1.88971e-01,1.72708e+01,0.00000e+00,2.49563e-02,1.35565e-01,0.00000e+00,-2.80589e-02,0.00000e+00,0.00000e+00,1.74484e+01,1.59554e+00,1.60880e+00,1.74412e-02,1.31380e-02,-1.01520e+01,-1.83128e+01,2.21591e+01,0.00000e+00,1,1.60800e-02,-1.03920e-01,1.00000e-01,0.00000e+00
1.00000e+02,-3.34783e-01,1.70683e+01,0.00000e+00,-1.91847e-01,1.72739e+01,0.00000e+00,2.57779e-02,1.35936e-01,0.00000e+00,-2.84488e-02,0.00000e+00,0.00000e+00,1.77933e+01,1.61780e+00,1.63244e+00,1.78147e-02,1.32512e-02,-1.01777e+01,-1.83570e+01,2.22634e+01,0.00000e+00,1,1.63200e-02,-1.03680e-01,1.00000e-01,0.00000e+00
1.00000e+02,-3.39468e-01,1.70697e+01,0.00000e+00,-1.94705e-01,1.72770e+01,0.00000e+00,2.66137e-02,1.36314e-01,0.00000e+00,-2.88372e-02,0.00000e+00,0.00000e+00,1.81482e+01,1.64022e+00,1.65628e+00,1.81906e-02,1.33604e-02,-1.02036e+01,-1.84017e+01,2.23697e+01,0.00000e+00,1,1.65600e-02,-1.03440e-01,1.00000e-01,0.00000e+00
1.00000e+02,-3.44153e-01,1.70711e+01,0.00000e+00,-1.97563e-01,1.72801e+01,0.00000e+00,2.74494e-02,1.36692e-01,0.00000e+00,-2.92256e-02,0.00000e+00,0.00000e+00,1.85031e+01,1.66265e+00,1.68012e+00,1.85664e-02,1.34695e-02,-1.02294e+01,-1.84463e+01,2.24760e+01,0.00000e+00,1,1.68000e-02,-1.03200e-01,1.00000e-01,0.00000e+00
1.00000e+02,-3.48838e-01,1.70724e+01,0.00000e+00,-2.00421e-01,1.72832e+01,0.00000e+00,2.82850e-02,1.37069e-01,0.00000e+00,-2.96141e-02,0.00000e+00,0.00000e+00,1.88580e+01,1.68507e+00,1.70396e+00,1.89423e-02,1.35787e-02,-1.02552e+01,-1.84910e+01,2.25823e+01,0.00000e+00,1,1.70400e-02,-1.02960e-01,1.00000e-01,0.00000e+00
1.00000e+02,-3.53523e-01,1.70738e+01,0.00000e+00,-2.03279e-01,1.72862e+01,0.00000e+00,2.91207e-02,1.37447e-01,0.00000e+00,-3.00025e-02,0.00000e+00,0.00000e+00,1.92129e+01,1.70750e+00,1.72780e+00,1.93181e-02,1.36878e-02,-1.02811e+01,-1.85357e+01,2.26886e+01,0.00000e+00,1,1.72800e-02,-1.02720e-01,1.00000e-01,0.00000e+00
1.00000e+02,-3.58208e-01,1.70752e+01,0.00000e+00,-2.06137e-01,1.72893e+01,0.00000e+00,2.99565e-02,1.37825e-01,0.00000e+00,-3.03909e-02,0.00000e+00,0.00000e+00,1.95678e+01,1.72992e+00,1.75164e+00,1.96940e-02,1.37970e-02,-1.03069e+01,-1.85803e+01,2.27949e+01,0.00000e+00,1,1.75200e-02,-1.02480e-01,1.00000e-01,0.00000e+00
1.00000e+02,-3.62893e-01,1.70766e+01,0.00000e+00,-2.08995e-01,1.72924e+01,0.00000e+00,3.07922e-02,1.38203e-01,0.00000e+00,-3.07794e-02,0.00000e+00,0.00000e+00,1.99227e+01,1.75235e+00,1.77548e+00,2.00698e-02,1.39061e-02,-1.03327e+01,-1.86250e+01,2.29012e+01,0.00000e+00,1,1.77600e-02,-1.02240e-01,1.00000e-01,0.00000e+00
1.00000e+02,-3.67577e-01,1.70779e+01,0.00000e+00,-2.11853e-01,1.72955e+01,0.00000e+00,3.16278e-02,1.38581e-01,0.00000e+00,-3.11678e-02,0.00000e+00,0.00000e+00,2.02776e+01,1.77478e+00,1.79932e+00,2.04457e-02,1.40153e-02,-1.03586e+01,-1.86697e+01,2.30074e+01,0.00000e+00,1,1.80000e-02,-1.02000e-01,1.00000e-01,0.00000e+00
1.00000e+02,-3.72262e-01,1.70793e+01,0.00000e+00,-2.14711e-01,1.72986e+01,0.00000e+00,3.24635e-02,1.38959e-01,0.00000e+00,-3.15562e-02,0.00000e+00,0.00000e+00,2.06325e+01,1.79720e+00,1.82316e+00,2.08215e-02,1.41244e-02,-1.03844e+01,-1.87144e+01,2.31137e+01,0.00000e+00,1,1.82400e-02,-1.01760e-01,1.00000e-01,0.00000e+00
1.00000e+02,-3.76947e-01,1.70807e+01,0.00000e+00,-2.17570e-01,1.73017e+01,0.00000e+00,3.32993e-02,1.39337e-01,0.00000e+00,-3.19447e-02,0.00000e+00,0.00000e+00,2.09874e+01,1.81963e+00,1.84700e+00,2.11974e-02,1.42336e-02,-1.04102e+01,-1.87590e+01,2.32200e+01,0.00000e+00,1,1.84800e-02,-1.01520e-01,1.00000e-01,0.00000e+00
1.00000e+02,-3.81632e-01,1.70820e+01,0.00000e+00,-2.20428e-01,1.73048e+01,0.00000e+00,3.41350e-02,1.39714e-01,0.00000e+00,-3.23331e-02,0.00000e+00,0.00000e+00,2.13423e+01,1.84205e+00,1.87084e+00,2.15732e-02,1.43427e-02,-1.04361e+01,-1.88037e+01,2.33263e+01,0.00000e+00,1,1.87200e-02,-1.01280e-01,1.00000e-01,0.00000e+00
1.00000e+02,-3.86317e-01,1.70834e+01,0.00000e+00,-2.23286e-01,1.73079e+01,0.00000e+00,3.49706e-02,1.40092e-01,0.00000e+00,-3.27215e-02,0.00000e+00,0.00000e+00,2.16972e+01,1.86448e+00,1.89468e+00,2.19491e-02,1.44519e-02,-1.04619e+01,-1.88484e+01,2.34326e+01,0.00000e+00,1,1.89600e-02,-1.01040e-01,1.00000e-01,0.00000e+00
1.00000e+02,-3.90938e-01,1.70846e+01,0.00000e+00,-2.26093e-01,1.73109e+01,0.00000e+00,3.58479e-02,1.40494e-01,0.00000e+00,-3.31052e-02,0.00000e+00,0.00000e+00,2.20853e+01,1.88750e+00,1.91917e+00,2.23299e-02,1.45526e-02,-1.04880e+01,-1.88943e+01,2.35450e+01,0.00000e+00,1,1.92000e-02,-1.00800e-01,1.00000e-01,0.00000e+00
1.00000e+02,-3.95313e-01,1.70853e+01,0.00000e+00,-2.28704e-01,1.73136e+01,0.00000e+00,3.68856e-02,1.40987e-01,0.00000e+00,-3.34706e-02,0.00000e+00,0.00000e+00,2.26018e+01,1.91280e+00,1.94614e+00,2.27300e-02,1.46208e-02,-1.05152e+01,-1.89453e+01,2.36811e+01,0.00000e+00,1,1.94400e-02,-1.00560e-01,1.00000e-01,0.00000e+00
1.00000e+02,-3.99687e-01,1.70859e+01,0.00000e+00,-2.31315e-01,1.73163e+01,0.00000e+00,3.79233e-02,1.41481e-01,0.00000e+00,-3.38360e-02,0.00000e+00,0.00000e+00,2.31182e+01,1.93810e+00,1.97311e+00,2.31301e-02,1.46889e-02,-1.05424e+01,-1.89962e+01,2.38171e+01,0.00000e+00,1,1.96800e-02,-1.00320e-01,1.00000e-01,0.00000e+00
1.00000e+02,-4.04061e-01,1.70865e+01,0.00000e+00,-2.33926e-01,1.73191e+01,0.00000e+00,3.89609e-02,1.41974e-01,0.00000e+00,-3.42015e-02,0.00000e+00,0.00000e+00,2.36347e+01,1.96341e+00,2.00008e+00,2.35301e-02,1.47571e-02,-1.05696e+01,-1.90472e+01,2.39532e+01,0.00000e+00,1,1.99200e-02,-1.00080e-01,1.00000e-01,0.00000e+00
1.00000e+02,-4.08435e-01,1.70872e+01,0.00000e+00,-2.36537e-01,1.73218e+01,0.00000e+00,3.99986e-02,1.42468e-01,0.00000e+00,-3.45669e-02,0.00000e+00,0.00000e+00,2.41511e+01,1.98871e+00,2.02706e+00,2.39302e-02,1.48253e-02,-1.05969e+01,-1.90982e+01,2.40892e+01,0.00000e+00,1,2.01600e-02,-9.98400e-02,1.00000e-01,0.00000e+00
1.00000e+02,-4.12810e-01,1.70878e+01,0.00000e+00,-2.39148e-01,1.73245e+01,0.00000e+00,4.10363e-02,1.42961e-01,0.00000e+00,-3.49323e-02,0.00000e+00,0.00000e+00,2.46676e+01,2.01401e+00,2.05403e+00,2.43303e-02,1.48934e-02,-1.06241e+01,-1.91491e+01,2.42253e+01,0.00000e+00,1,2.04000e-02,-9.96000e-02,1.00000e-01,0.00000e+00
1.00000e+02,-4.17184e-01,1.70884e+01,0.00000e+00,-2.41759e-01,1.73272e+01,0.00000e+00,4.20739e-02,1.43454e-01,0.00000e+00,-3.52977e-02,0.00000e+00,0.00000e+00,2.51840e+01,2.03932e+00,2.08100e+00,2.47304e-02,1.49616e-02,-1.06513e+01,-1.92001e+01,2.43613e+01,0.00000e+00,1,2.06400e-02,-9.93600e-02,1.00000e-01,0.00000e+00
1.00000e+02,-4.21558e-01,1.70890e+01,0.00000e+00,-2.44371e-01,1.73300e+01,0.00000e+00,4.31116e-02,1.43948e-01,0.00000e+00,-3.56631e-02,0.00000e+00,0.00000e+00,2.57005e+01,2.06462e+00,2.10797e+00,2.51304e-02,1.50297e-02,-1.06785e+01,-1.92510e+01,2.44973e+01,0.00000e+00,1,2.08800e-02,-9.91200e-02,1.00000e-01,0.00000e+00
1.00000e+02,-4.25932e-01,1.70897e+01,0.00000e+00,-2.46982e-01,1.73327e+01,0.00000e+00,4.41493e-02,1.44441e-01,0.00000e+00,-3.60285e-02,0.00000e+00,0.00000e+00,2.62169e+01,2.08992e+00,2.13495e+00,2.55305e-02,1.50979e-02,-1.07057e+01,-1.93020e+01,2.46334e+01,0.00000e+00,1,2.11200e-02,-9.88800e-02,1.00000e-01,0.00000e+00
1.00000e+02,-4.30307e-01,1.70903e+01,0.00000e+00,-2.49593e-01,1.73354e+01,0.00000e+00,4.51869e-02,1.44935e-01,0.00000e+00,-3.63939e-02,0.00000e+00,0.00000e+00,2.67334e+01,2.11522e+00,2.16192e+00,2.59306e-02,1.51661e-02,-1.07329e+01,-1.93529e+01,2.47694e+01,0.00000e+00,1,2.13600e-02,-9.86400e-02,1.00000e-01,0.00000e+00
1.00000e+02,-4.34681e-01,1.70909e+01,0.00000e+00,-2.52204e-01,1.73382e+01,0.00000e+00,4.62246e-02,1.45428e-01,0.00000e+00,-3.67593e-02,0.00000e+00,0.00000e+00,2.72499e+01,2.14053e+00,2.18889e+00,2.63307e-02,1.52342e-02,-1.07601e+01,-1.94039e+01,2.49055e+01,0.00000e+00,1,2.16000e-02,-9.84000e-02,1.00000e-01,0.00000e+00
1.00000e+02,-4.39055e-01,1.70916e+01,0.00000e+00,-2.54815e-01,1.73409e+01,0.00000e+00,4.72623e-02,1.45921e-01,0.00000e+00,-3.71247e-02,0.00000e+00,0.00000e+00,2.77663e+01,2.16583e+00,2.21586e+00,2.67307e-02,1.53024e-02,-1.07873e+01,-1.94549e+01,2.50415e+01,0.00000e+00,1,2.18400e-02,-9.81600e-02,1.00000e-01,0.00000e+00