/*--------------------------------*- C++ -*----------------------------------*\
  =========                 |
  \\      /  F ield         | OpenFOAM: The Open Source CFD Toolbox
   \\    /   O peration     | Website:  https://openfoam.org
    \\  /    A nd           | Version:  8
     \\/     M anipulation  |
\*---------------------------------------------------------------------------*/
FoamFile
{
    version     2.0;
    format      ascii;
    class       volScalarField;
    location    "0.36";
    object      k;
}
// * * * * * * * * * * * * * * * * * * * * * * * * * * * * * * * * * * * * * //

dimensions      [0 2 -2 0 0 0 0];

internalField   nonuniform List<scalar> 
15677
(
0.334165
0.365041
0.294778
0.368732
0.357728
0.281053
0.370693
0.360098
0.366168
0.282773
0.371885
0.361643
0.3615
0.383365
0.28888
0.372611
0.36375
0.357757
0.368372
0.401702
0.300279
0.373039
0.365668
0.357862
0.358183
0.380149
0.419365
0.311766
0.373263
0.367185
0.359472
0.354612
0.36107
0.39332
0.434732
0.322558
0.373348
0.368307
0.361364
0.354791
0.353084
0.366926
0.406173
0.447823
0.33204
0.373349
0.369082
0.36307
0.356353
0.35114
0.353521
0.373576
0.418263
0.458655
0.340428
0.373315
0.369566
0.364444
0.358228
0.351944
0.348806
0.354802
0.380705
0.42907
0.4678
0.347514
0.373276
0.369823
0.365463
0.359964
0.353726
0.348396
0.347164
0.35713
0.387657
0.43879
0.475311
0.353755
0.373251
0.369924
0.366148
0.361396
0.355669
0.349773
0.345369
0.346338
0.359719
0.394442
0.447203
0.481752
0.358965
0.373242
0.369938
0.366547
0.362475
0.357427
0.351726
0.346217
0.342938
0.345903
0.362622
0.400682
0.454689
0.487066
0.363636
0.373241
0.369921
0.366735
0.363205
0.358858
0.353682
0.348079
0.343101
0.340876
0.345918
0.365485
0.40656
0.461045
0.491671
0.367713
0.373241
0.369906
0.366793
0.36363
0.359914
0.355388
0.35016
0.344755
0.340304
0.339208
0.346055
0.3684
0.411751
0.466689
0.495488
0.371335
0.37324
0.369899
0.366794
0.363828
0.360604
0.356733
0.352089
0.346883
0.341709
0.33783
0.337762
0.346393
0.371089
0.416559
0.471386
0.498873
0.374643
0.373239
0.369896
0.366784
0.363887
0.360986
0.357686
0.353688
0.348978
0.34384
0.338932
0.335599
0.33655
0.346797
0.373732
0.420647
0.475535
0.50179
0.377474
0.373238
0.369895
0.366774
0.363895
0.361134
0.358272
0.354886
0.350796
0.346067
0.341024
0.336392
0.333606
0.335484
0.347322
0.376026
0.424352
0.478957
0.504373
0.380324
0.373237
0.369895
0.366767
0.363891
0.361177
0.358542
0.355677
0.35222
0.348074
0.343348
0.33843
0.334078
0.331801
0.334609
0.347773
0.378193
0.427381
0.481963
0.506761
0.38256
0.373236
0.369896
0.366762
0.363885
0.361182
0.358647
0.356076
0.353217
0.349704
0.34552
0.340837
0.336049
0.331969
0.330207
0.333822
0.348268
0.379961
0.43009
0.484442
0.508815
0.385202
0.373235
0.369896
0.366759
0.363881
0.361174
0.35868
0.356249
0.353763
0.350891
0.34734
0.343159
0.338522
0.333882
0.330077
0.328784
0.33317
0.34865
0.381586
0.432193
0.486609
0.510956
0.386978
0.373235
0.369896
0.366756
0.363878
0.361165
0.358685
0.356312
0.354026
0.351572
0.348715
0.345155
0.340978
0.336427
0.331934
0.3284
0.32755
0.332597
0.349023
0.382807
0.434086
0.48841
0.512669
0.38959
0.373235
0.369896
0.366754
0.363876
0.361157
0.35868
0.356327
0.354141
0.351916
0.349547
0.346702
0.343139
0.339024
0.334555
0.330227
0.326944
0.326499
0.332121
0.349298
0.38394
0.435436
0.490025
0.514817
0.391032
0.373235
0.369896
0.366753
0.363874
0.361151
0.358673
0.356322
0.354182
0.352075
0.349997
0.347662
0.344862
0.341358
0.337287
0.332935
0.328765
0.325742
0.325651
0.331777
0.349557
0.384684
0.436733
0.491331
0.516261
0.39364
0.373235
0.369895
0.366752
0.363872
0.361146
0.358666
0.356312
0.354188
0.352136
0.350225
0.348192
0.345976
0.34325
0.339776
0.335824
0.331601
0.327621
0.324807
0.325022
0.331479
0.349747
0.385428
0.437516
0.492735
0.518812
0.395015
0.373235
0.369895
0.366752
0.36387
0.361143
0.358659
0.356301
0.354181
0.352149
0.350325
0.348466
0.346626
0.344483
0.341834
0.338521
0.334684
0.330601
0.326741
0.324136
0.324617
0.331457
0.35001
0.385873
0.438469
0.493625
0.520452
0.504528
0.373235
0.369895
0.366752
0.363869
0.361141
0.358654
0.356292
0.354169
0.352142
0.350357
0.34859
0.346986
0.345202
0.343238
0.340795
0.337546
0.333836
0.32991
0.326315
0.323935
0.324642
0.331546
0.350243
0.386359
0.438916
0.495592
0.529158
0.709601
0.373236
0.369894
0.366752
0.363867
0.361139
0.35865
0.356285
0.354156
0.352129
0.350355
0.348633
0.347163
0.3456
0.344109
0.34232
0.339951
0.336986
0.33358
0.329912
0.326397
0.324076
0.324843
0.331784
0.350556
0.38673
0.439824
0.496197
0.545894
0.883586
0.373236
0.369894
0.366752
0.363866
0.361138
0.358646
0.356279
0.354146
0.352114
0.350339
0.348636
0.347232
0.345798
0.344625
0.343236
0.34169
0.339796
0.337068
0.333782
0.330199
0.326778
0.324513
0.325324
0.33227
0.351002
0.387142
0.440509
0.495914
0.558588
1.02386
0.373236
0.369893
0.366752
0.363865
0.361137
0.358643
0.356275
0.354137
0.3521
0.350319
0.348621
0.347242
0.34588
0.344899
0.343768
0.342837
0.341756
0.340044
0.337504
0.334402
0.33095
0.327632
0.325409
0.326246
0.333078
0.351584
0.38776
0.440257
0.494414
0.567935
1.14483
0.373237
0.369893
0.366752
0.363864
0.361136
0.35864
0.356271
0.354129
0.352089
0.3503
0.3486
0.347224
0.3459
0.345019
0.34405
0.343553
0.342993
0.342169
0.34076
0.338496
0.335678
0.332418
0.329163
0.326891
0.327575
0.334202
0.352424
0.388243
0.439341
0.49124
0.574327
1.24242
0.373237
0.369892
0.366753
0.363863
0.361136
0.358638
0.356268
0.354122
0.35208
0.350284
0.348578
0.347195
0.345887
0.345048
0.344182
0.343965
0.343771
0.343554
0.343135
0.342208
0.34036
0.337783
0.334626
0.331347
0.328909
0.329357
0.335682
0.353453
0.388588
0.437425
0.485848
0.578444
1.31392
0.373237
0.369892
0.366753
0.363862
0.361135
0.358636
0.356266
0.354117
0.352072
0.35027
0.348558
0.347167
0.345859
0.345031
0.344234
0.344174
0.344229
0.344443
0.344746
0.344988
0.344581
0.343088
0.340719
0.337618
0.334209
0.331532
0.331597
0.337529
0.354674
0.388532
0.434185
0.479052
0.581039
1.36798
0.373237
0.369892
0.366753
0.363861
0.361135
0.358634
0.356264
0.354112
0.352065
0.350259
0.348541
0.347141
0.345828
0.344996
0.344234
0.344249
0.34447
0.344983
0.345821
0.346893
0.347789
0.347929
0.346777
0.344581
0.341437
0.337825
0.33476
0.334334
0.339738
0.356004
0.388235
0.429857
0.472267
0.583255
1.41055
0.369891
0.373241
0.366753
0.36386
0.361135
0.358632
0.356262
0.354108
0.352059
0.350248
0.348527
0.347118
0.345798
0.344957
0.344206
0.344259
0.344576
0.345286
0.346504
0.348189
0.350038
0.351668
0.352372
0.351543
0.34943
0.346167
0.3422
0.338646
0.33754
0.34228
0.357593
0.387546
0.425377
0.465907
0.585523
1.44552
0.366754
0.369901
0.373249
0.36386
0.361135
0.358631
0.356261
0.354104
0.352055
0.35024
0.348514
0.347099
0.345771
0.344921
0.344168
0.344236
0.344607
0.345443
0.34692
0.349052
0.351623
0.354352
0.356767
0.358045
0.357466
0.355362
0.351824
0.347397
0.343148
0.34122
0.345491
0.35956
0.386641
0.420976
0.460174
0.588184
1.47544
0.363859
0.36677
0.369922
0.373257
0.361135
0.358629
0.35626
0.354101
0.352051
0.350232
0.348503
0.347082
0.345748
0.344889
0.34413
0.344202
0.3446
0.345514
0.347167
0.349618
0.352728
0.35631
0.360002
0.363247
0.365054
0.364655
0.362403
0.358477
0.35337
0.348286
0.345797
0.349389
0.361682
0.385754
0.416907
0.455173
0.591221
1.5018
0.361135
0.363881
0.366804
0.369943
0.373265
0.358628
0.356259
0.354098
0.352047
0.350225
0.348494
0.347067
0.345727
0.344861
0.344096
0.344166
0.344577
0.345538
0.347312
0.349993
0.353506
0.357743
0.362443
0.367171
0.371238
0.373531
0.373153
0.370633
0.366081
0.360144
0.354647
0.351529
0.353606
0.363981
0.384968
0.413179
0.450868
0.594694
1.52568
0.358627
0.361163
0.363925
0.366839
0.369964
0.373273
0.356259
0.354095
0.352045
0.350219
0.348486
0.347054
0.34571
0.344836
0.344065
0.344134
0.344551
0.345542
0.347396
0.350253
0.354073
0.358817
0.364314
0.370234
0.376018
0.380897
0.383534
0.383056
0.38001
0.374672
0.368501
0.362535
0.357832
0.358109
0.36643
0.384393
0.409836
0.447231
0.598442
1.54758
0.356258
0.358658
0.361219
0.363971
0.366875
0.369987
0.373282
0.354093
0.352043
0.350213
0.34848
0.347043
0.345695
0.344815
0.344039
0.344105
0.344526
0.345538
0.34745
0.350441
0.354513
0.359664
0.365801
0.372684
0.37987
0.386727
0.392304
0.39518
0.394324
0.390583
0.385245
0.37882
0.371162
0.364616
0.362858
0.369063
0.384053
0.406878
0.444166
0.602502
1.56801
0.354091
0.356294
0.358722
0.361276
0.364018
0.366912
0.37001
0.37329
0.352041
0.350209
0.348475
0.347033
0.345682
0.344797
0.344016
0.34408
0.344505
0.345532
0.34749
0.350586
0.35487
0.360377
0.367049
0.374736
0.383085
0.39158
0.399413
0.405609
0.408435
0.407022
0.403583
0.398276
0.39007
0.380421
0.371791
0.367803
0.371819
0.384097
0.404376
0.441549
0.606644
1.58707
0.352039
0.354129
0.356367
0.358787
0.361335
0.364066
0.36695
0.370033
0.373299
0.350204
0.34847
0.347023
0.345671
0.34478
0.343996
0.344059
0.344486
0.345528
0.347525
0.350709
0.355168
0.360995
0.368165
0.376551
0.3859
0.39579
0.405523
0.414271
0.420794
0.423402
0.422633
0.419592
0.412461
0.402115
0.390193
0.379273
0.372914
0.374613
0.384287
0.402234
0.439391
0.61098
1.60506
0.3502
0.352081
0.354207
0.356443
0.358855
0.361395
0.364115
0.366989
0.370057
0.373309
0.348466
0.347015
0.345662
0.344766
0.343979
0.34404
0.34447
0.345525
0.347556
0.350818
0.355431
0.361535
0.369178
0.37825
0.388499
0.399623
0.411007
0.421946
0.431322
0.438018
0.441831
0.441878
0.43701
0.427625
0.414799
0.40036
0.386977
0.378173
0.377445
0.384693
0.400477
0.437569
0.615237
1.62191
0.348463
0.350241
0.352167
0.354289
0.356521
0.358924
0.361458
0.364166
0.367029
0.370082
0.373318
0.347007
0.345654
0.344753
0.343964
0.344024
0.344457
0.345524
0.347585
0.350917
0.355668
0.362021
0.370092
0.379847
0.391021
0.403296
0.416179
0.429058
0.440906
0.450783
0.459349
0.464662
0.462858
0.455626
0.443565
0.427963
0.410806
0.394828
0.38352
0.380303
0.385293
0.398988
0.436096
0.619607
1.63789
0.347001
0.348507
0.350329
0.352256
0.354372
0.3566
0.358995
0.361522
0.364218
0.36707
0.370108
0.373327
0.345648
0.344742
0.343951
0.344011
0.344446
0.345524
0.347613
0.351009
0.355885
0.362466
0.370929
0.381319
0.393458
0.406972
0.421295
0.435983
0.450055
0.462715
0.475024
0.485971
0.4897
0.485336
0.4752
0.460088
0.441461
0.421421
0.402751
0.388899
0.383196
0.386091
0.397827
0.43487
0.623784
1.65284
0.345643
0.347039
0.348598
0.350419
0.352347
0.354458
0.356682
0.359069
0.361587
0.364272
0.367111
0.370134
0.373337
0.344731
0.34394
0.343999
0.344437
0.345525
0.347639
0.351094
0.356085
0.362876
0.371702
0.382684
0.395748
0.410612
0.426547
0.443029
0.459226
0.474439
0.49009
0.505547
0.515392
0.516713
0.509073
0.495513
0.477008
0.455142
0.432098
0.410676
0.394268
0.386084
0.386934
0.396912
0.433913
0.628022
1.66704
0.344721
0.345681
0.347125
0.348693
0.350513
0.352442
0.354546
0.356767
0.359144
0.361654
0.364327
0.367155
0.370161
0.373347
0.343931
0.343989
0.34443
0.345527
0.347663
0.351172
0.356268
0.363253
0.372417
0.383957
0.397901
0.414088
0.431851
0.450443
0.468804
0.486519
0.505329
0.524949
0.539619
0.547396
0.545416
0.533815
0.51634
0.494144
0.468871
0.442742
0.41854
0.399584
0.388993
0.387819
0.396223
0.433126
0.631999
1.68025
0.343923
0.344746
0.345763
0.347213
0.348791
0.350609
0.352539
0.354638
0.356854
0.359222
0.361724
0.364384
0.367198
0.370188
0.373356
0.34398
0.344422
0.345528
0.347686
0.351244
0.356436
0.363599
0.373078
0.385141
0.399926
0.417392
0.436993
0.458094
0.479106
0.49945
0.521472
0.545209
0.564361
0.577102
0.581725
0.575529
0.559312
0.537486
0.511335
0.482528
0.453269
0.426289
0.404816
0.391893
0.388743
0.395696
0.432543
0.636003
1.69283
0.343974
0.343936
0.344807
0.345848
0.347305
0.348893
0.350708
0.352639
0.354731
0.356943
0.359302
0.361795
0.364442
0.367242
0.370213
0.373365
0.344415
0.345529
0.347706
0.35131
0.35659
0.363918
0.373687
0.38624
0.401825
0.420526
0.441946
0.465646
0.489925
0.513667
0.539215
0.567364
0.591023
0.608361
0.617833
0.618134
0.606779
0.58531
0.558759
0.528438
0.49601
0.463609
0.433877
0.409937
0.394763
0.389696
0.395329
0.432069
0.639711
1.70447
0.34441
0.343961
0.34397
0.344868
0.345938
0.3474
0.348999
0.350811
0.352743
0.354828
0.357035
0.359384
0.361867
0.3645
0.367284
0.370239
0.373374
0.345529
0.347724
0.35137
0.356731
0.364209
0.374246
0.387258
0.403598
0.423484
0.446699
0.473014
0.500735
0.528928
0.559239
0.592473
0.621135
0.643189
0.657069
0.661731
0.656418
0.638919
0.611584
0.579983
0.545329
0.50923
0.473702
0.441265
0.414924
0.397582
0.39067
0.395064
0.43175
0.643428
1.71557
0.345532
0.34437
0.343933
0.344012
0.344932
0.346034
0.347499
0.349108
0.350917
0.352849
0.354928
0.357129
0.359468
0.361939
0.364556
0.367325
0.370263
0.373382
0.347739
0.351424
0.35686
0.364476
0.37476
0.388198
0.405248
0.426264
0.451232
0.480146
0.511401
0.544554
0.581287
0.621649
0.656447
0.684077
0.70256
0.710894
0.70885
0.69643
0.671737
0.63794
0.601012
0.561908
0.522118
0.4835
0.448423
0.419759
0.400336
0.391655
0.394915
0.431495
0.646833
1.72578
0.347759
0.345453
0.344285
0.343891
0.344066
0.344999
0.346135
0.347601
0.349222
0.351026
0.352959
0.35503
0.357225
0.359551
0.362008
0.36461
0.367365
0.370287
0.373391
0.351472
0.356975
0.364719
0.37523
0.389062
0.406776
0.428866
0.455531
0.486998
0.521875
0.560363
0.604267
0.654694
0.699239
0.734493
0.758782
0.770717
0.770551
0.759355
0.738076
0.705059
0.664218
0.621721
0.578092
0.53462
0.492968
0.455328
0.424427
0.403014
0.392642
0.394825
0.431358
0.65024
1.73555
0.351525
0.347615
0.345271
0.344193
0.343854
0.344131
0.34507
0.346241
0.347708
0.349339
0.351139
0.353071
0.355135
0.35732
0.359632
0.362076
0.364663
0.367403
0.370311
0.373399
0.35708
0.364939
0.375659
0.389856
0.408189
0.431291
0.459583
0.493541
0.532108
0.576196
0.627712
0.69037
0.750731
0.799783
0.832607
0.848995
0.849572
0.836794
0.813407
0.781271
0.738737
0.690284
0.642008
0.593817
0.546694
0.50208
0.461964
0.428917
0.405605
0.393626
0.394831
0.431253
0.653338
1.74337
0.357186
0.351299
0.347265
0.34508
0.34411
0.343825
0.344204
0.345146
0.346353
0.347819
0.349459
0.351256
0.353186
0.355239
0.357413
0.359711
0.362142
0.364715
0.367441
0.370333
0.373406
0.365139
0.376049
0.390583
0.40949
0.433544
0.463388
0.49976
0.542044
0.591853
0.65141
0.728864
0.810777
0.884171
0.933944
0.95703
0.957817
0.940404
0.909999
0.870998
0.825883
0.772628
0.716025
0.661793
0.609032
0.558311
0.510817
0.46832
0.433221
0.408104
0.394595
0.394859
0.431251
0.656011
1.74995
0.365335
0.356853
0.350717
0.346899
0.344904
0.344037
0.343805
0.344283
0.345228
0.346468
0.347935
0.349583
0.351376
0.3533
0.355341
0.357503
0.359788
0.362206
0.364765
0.367477
0.370355
0.373414
0.376405
0.391246
0.410687
0.435631
0.466946
0.505644
0.551622
0.607169
0.675378
0.770762
0.880046
0.986632
1.06814
1.10808
1.11015
1.08578
1.04305
0.989842
0.931833
0.871691
0.806581
0.741344
0.681017
0.6237
0.569452
0.519171
0.47439
0.437336
0.410504
0.395552
0.394913
0.431265
0.658216
1.75705
0.376745
0.364864
0.355944
0.350111
0.346557
0.344744
0.343975
0.343795
0.344368
0.345317
0.346587
0.348056
0.34971
0.351496
0.353411
0.35544
0.357591
0.359863
0.362268
0.364814
0.367512
0.370377
0.373421
0.391856
0.411785
0.43756
0.470264
0.511189
0.560794
0.622054
0.69976
0.816239
0.95779
1.10416
1.22775
1.304
1.32009
1.28915
1.23044
1.1558
1.07526
0.995311
0.918368
0.840428
0.766152
0.699629
0.637797
0.580104
0.527135
0.48017
0.441259
0.412804
0.396488
0.394997
0.431295
0.660647
1.76479
0.392424
0.376104
0.363497
0.355002
0.349539
0.34624
0.344596
0.343922
0.343796
0.344455
0.345414
0.34671
0.348182
0.349836
0.351614
0.353519
0.355537
0.357676
0.359936
0.362328
0.364861
0.367547
0.370398
0.373425
0.4128
0.439341
0.47335
0.516395
0.56953
0.636483
0.724654
0.864774
1.04162
1.23158
1.40345
1.52802
1.58332
1.56219
1.4879
1.38749
1.2759
1.16469
1.0606
0.965508
0.873987
0.790368
0.717595
0.651305
0.590265
0.534708
0.485662
0.44499
0.415001
0.397282
0.395067
0.43137
0.663282
1.77318
0.413727
0.391578
0.374099
0.362089
0.354107
0.348997
0.345943
0.34446
0.34388
0.34381
0.344545
0.345521
0.346835
0.348309
0.349959
0.351728
0.353624
0.355631
0.357758
0.360007
0.362387
0.364907
0.36758
0.370408
0.373425
0.440998
0.476217
0.52127
0.577817
0.65046
0.750013
0.91534
1.12855
1.36325
1.58635
1.76595
1.87486
1.89489
1.82518
1.69946
1.5521
1.40029
1.25632
1.12676
1.01266
0.907068
0.813916
0.734887
0.664219
0.599933
0.541897
0.490871
0.448531
0.416818
0.397966
0.395178
0.431451
0.666202
1.78238
0.442484
0.412628
0.388691
0.372049
0.360748
0.353254
0.348479
0.345668
0.344335
0.343847
0.343843
0.344635
0.345635
0.346959
0.348434
0.350078
0.35184
0.353726
0.355723
0.357839
0.360076
0.362444
0.364952
0.367597
0.370408
0.373425
0.478896
0.525831
0.585665
0.663994
0.775652
0.966752
1.2159
1.49462
1.76929
2.00712
2.17776
2.25621
2.22847
2.1008
1.9176
1.71987
1.52606
1.34843
1.19285
1.05938
0.939487
0.836733
0.751487
0.676534
0.609116
0.548707
0.4958
0.451444
0.418368
0.398734
0.395293
0.431632
0.669384
1.79233
0.481262
0.441081
0.408527
0.385764
0.370094
0.359463
0.352434
0.34798
0.345411
0.344221
0.343816
0.3439
0.344726
0.345754
0.347081
0.348558
0.350195
0.35195
0.353825
0.355812
0.357917
0.360143
0.3625
0.364974
0.367597
0.370408
0.373425
0.530112
0.593099
0.677101
0.801322
1.01793
1.30161
1.62251
1.94735
2.2438
2.48029
2.62728
2.66205
2.57561
2.38227
2.13723
1.88717
1.65081
1.43953
1.25804
1.10524
0.971074
0.858759
0.767379
0.688256
0.617823
0.555147
0.499844
0.453918
0.420075
0.399589
0.395477
0.431794
0.672888
1.80328
0.533853
0.4795
0.435299
0.404405
0.38297
0.368216
0.358224
0.351643
0.347503
0.345172
0.344118
0.343779
0.343976
0.344817
0.345874
0.3472
0.348679
0.350308
0.352056
0.353922
0.355899
0.357993
0.360208
0.362527
0.364974
0.367597
0.370408
0.373425
0.600161
0.689805
0.826781
1.068
1.38431
1.74493
2.11749
2.47086
2.77389
2.99497
3.10496
3.08399
2.92933
2.66419
2.35439
2.05126
1.77268
1.52842
1.32163
1.1499
1.00168
0.879945
0.782558
0.699391
0.626064
0.560427
0.503273
0.45663
0.421955
0.400555
0.395663
0.432113
0.676749
1.8151
0.60633
0.531637
0.471371
0.429546
0.400468
0.380279
0.366397
0.357024
0.350882
0.34705
0.34495
0.344026
0.343749
0.344061
0.344907
0.345994
0.347317
0.348797
0.350419
0.35216
0.354016
0.355983
0.358067
0.36024
0.362527
0.364974
0.367597
0.370408
0.373425
0.702108
0.851814
1.11634
1.46309
1.86073
2.27796
2.68519
3.05276
3.3492
3.54197
3.60246
3.51477
3.28377
2.94225
2.56612
2.2101
1.89029
1.6142
1.38307
1.19306
1.03118
0.900257
0.797025
0.709951
0.632827
0.564904
0.507025
0.459605
0.424031
0.401632
0.395956
0.432406
0.68098
1.82812
0.712952
0.603572
0.520115
0.463377
0.42405
0.396668
0.377667
0.364632
0.355865
0.350154
0.346625
0.344748
0.343945
0.343732
0.344151
0.344999
0.346111
0.347432
0.348912
0.350528
0.352261
0.354108
0.356066
0.358104
0.36024
0.362527
0.364974
0.367597
0.370408
0.373421
0.876184
1.16255
1.5375
1.96932
2.42788
2.8851
3.31331
3.6828
3.96062
4.11287
4.1121
3.94787
3.63396
3.21306
2.77024
2.36231
2.00273
1.69627
1.44197
1.2345
1.05949
0.919672
0.810784
0.718633
0.638566
0.569801
0.511134
0.462872
0.426324
0.402859
0.396245
0.432911
0.685707
1.84212
0.709621
0.897652
0.586603
0.50901
0.455735
0.418736
0.392972
0.375128
0.362923
0.35475
0.349459
0.346228
0.344565
0.343879
0.343728
0.344241
0.345094
0.346226
0.347545
0.349025
0.350633
0.352359
0.354197
0.356106
0.358104
0.36024
0.362527
0.364974
0.367597
0.370397
0.373414
1.20627
1.60729
2.07052
2.56696
3.06989
3.55366
3.99125
4.35168
4.5996
4.69963
4.62663
4.37738
3.97576
3.47403
2.96522
2.50699
2.10943
1.77424
1.49808
1.27407
1.08653
0.938175
0.822124
0.726007
0.644846
0.575162
0.515637
0.466465
0.428866
0.404224
0.396695
0.433396
0.690852
1.85758
0.682961
0.894851
1.24396
0.570761
0.498412
0.448333
0.413561
0.389374
0.372664
0.361273
0.353681
0.348801
0.345863
0.344405
0.34383
0.343737
0.34433
0.345191
0.346339
0.347657
0.349134
0.350737
0.352455
0.354241
0.356106
0.358103
0.36024
0.362527
0.364974
0.36758
0.370376
0.373406
1.67229
2.1644
2.69532
3.23951
3.77321
4.27224
4.70914
5.05052
5.25779
5.29439
5.13917
4.79808
4.30572
3.72322
3.15007
2.64362
2.2101
1.84789
1.55124
1.31168
1.11228
0.953448
0.831771
0.734087
0.651726
0.581035
0.520577
0.470418
0.43168
0.405794
0.397138
0.434158
0.696692
1.87409
0.65854
0.851818
1.24208
1.72771
0.55587
0.48813
0.441119
0.408517
0.385878
0.370281
0.359686
0.35266
0.348185
0.345536
0.344269
0.343796
0.34376
0.344415
0.34529
0.346448
0.347767
0.349241
0.350838
0.352502
0.354241
0.356106
0.358103
0.36024
0.362527
0.364952
0.367546
0.370355
0.373398
2.25097
2.81334
3.39448
3.97224
4.52524
5.03003
5.4576
5.77081
5.927
5.88945
5.64329
5.20539
4.62114
3.95929
3.32422
2.77198
2.30463
1.91717
1.6014
1.34729
1.13349
0.966449
0.842356
0.742948
0.659269
0.587477
0.526001
0.474775
0.43481
0.407539
0.397814
0.434927
0.70301
1.89237
0.636021
0.811375
1.17825
1.7278
2.32442
0.541532
0.478092
0.434087
0.403613
0.382492
0.367982
0.358164
0.351696
0.347623
0.345253
0.344154
0.343772
0.343804
0.344498
0.345391
0.346555
0.347875
0.349346
0.350888
0.352502
0.354241
0.356106
0.358104
0.36024
0.362499
0.364907
0.367512
0.370333
0.37339
2.92129
3.53559
4.15181
4.75106
5.31391
5.81686
6.22789
6.50431
6.59912
6.47734
6.13308
5.59544
4.91999
4.18142
3.48744
2.89206
2.39307
1.98211
1.64858
1.37648
1.15152
0.980718
0.85398
0.752676
0.667549
0.594548
0.531964
0.479581
0.438283
0.409564
0.398487
0.436037
0.710283
1.9117
0.614805
0.773541
1.11556
1.64533
2.32768
3.01216
0.527592
0.468301
0.427251
0.398859
0.379224
0.365775
0.356722
0.350812
0.347121
0.34501
0.344056
0.343744
0.343862
0.344578
0.345492
0.34666
0.347984
0.349397
0.350887
0.352502
0.354241
0.356106
0.358104
0.360208
0.362443
0.36486
0.367476
0.37031
0.373382
3.66346
4.31335
4.9515
5.56224
6.12787
6.62359
7.01198
7.24302
7.26611
7.05093
6.60332
5.96522
5.20093
4.38922
3.63974
3.00403
2.47559
2.04282
1.68699
1.40118
1.17127
0.996388
0.866757
0.763367
0.676646
0.60232
0.538526
0.484888
0.442163
0.411815
0.39948
0.437222
0.71814
1.93317
0.594594
0.737915
1.05428
1.56246
2.22856
3.01905
3.76973
0.514019
0.45878
0.420626
0.394267
0.376081
0.363678
0.355396
0.350019
0.346671
0.3448
0.343975
0.34372
0.34393
0.344656
0.345595
0.346765
0.348037
0.349395
0.350886
0.352501
0.354241
0.356106
0.358067
0.360142
0.362386
0.364813
0.367439
0.370286
0.373374
4.45795
5.12894
5.77798
6.39295
6.95727
7.44239
7.80247
7.97901
7.91996
7.60352
7.04963
6.31251
5.46318
4.58262
3.78135
3.10815
2.55241
2.09199
1.71936
1.42812
1.1929
1.01361
0.880814
0.775128
0.686652
0.61087
0.545754
0.49076
0.446479
0.414444
0.400498
0.438814
0.727262
1.95556
0.575264
0.704368
0.994274
1.47935
2.12803
2.90475
3.77933
4.57571
0.500829
0.449557
0.414231
0.389851
0.373094
0.361747
0.354201
0.349307
0.346273
0.344621
0.343908
0.343704
0.344002
0.344735
0.345701
0.346815
0.348035
0.349394
0.350886
0.352501
0.354241
0.356065
0.357992
0.360074
0.362327
0.364764
0.367402
0.370262
0.373365
5.28519
5.96475
6.61653
7.23223
7.79429
8.26675
8.59224
8.70416
8.55282
8.12917
7.46858
6.63591
5.70647
4.76189
3.91267
3.20478
2.61439
2.13329
1.75451
1.45748
1.2166
1.03254
0.896289
0.788078
0.697671
0.620288
0.553728
0.49726
0.451321
0.417377
0.401939
0.440385
0.737172
1.98483
0.556755
0.672896
0.935707
1.39571
2.02614
2.78857
3.6503
4.58542
5.4085
0.488054
0.440663
0.408083
0.385652
0.37034
0.360004
0.353126
0.34867
0.345923
0.344467
0.343852
0.343696
0.344079
0.344822
0.345754
0.346808
0.348035
0.349394
0.350886
0.352502
0.354196
0.355982
0.357915
0.360005
0.362266
0.364713
0.367363
0.370238
0.373356
6.12544
6.80397
7.4547
8.07179
8.63326
9.09095
9.37404
9.4101
9.15717
8.62288
7.85777
6.93473
5.93102
4.9275
4.03414
3.28251
2.66632
2.17796
1.79263
1.48948
1.24255
1.05335
0.913339
0.802352
0.709817
0.630675
0.562535
0.504472
0.456724
0.420816
0.403476
0.442397
0.750702
2.01952
0.539026
0.643554
0.879047
1.31152
1.92245
2.67032
3.51968
4.44079
5.41378
6.24694
0.475731
0.432127
0.402242
0.381782
0.367853
0.358433
0.352159
0.348101
0.345616
0.344334
0.343807
0.343703
0.344168
0.344859
0.34575
0.346807
0.348035
0.349394
0.350887
0.352454
0.354105
0.355896
0.357836
0.359934
0.362204
0.364662
0.367324
0.370213
0.373347
6.95957
7.63236
8.28328
8.90663
9.46998
9.90945
10.1401
10.0882
9.72618
9.08076
8.21579
7.20903
6.13738
5.08005
4.13153
3.3475
2.72234
2.22624
1.83396
1.52431
1.27095
1.07623
0.93213
0.818099
0.723223
0.642146
0.572275
0.512481
0.46281
0.424681
0.405521
0.444989
0.767245
2.05445
0.522053
0.616309
0.824883
1.22707
1.81662
2.54949
3.38694
4.29585
5.25099
6.2417
7.07093
0.463903
0.424033
0.39686
0.378289
0.36561
0.357016
0.35129
0.347594
0.345345
0.344217
0.343779
0.343736
0.344212
0.344843
0.345751
0.346807
0.348034
0.349396
0.350836
0.352357
0.354013
0.355809
0.357755
0.359861
0.36214
0.364609
0.367283
0.370187
0.373337
7.77135
8.43923
9.09754
9.73362
10.3011
10.7164
10.8816
10.7299
10.254
9.5002
8.54231
7.4594
6.32634
5.20179
4.21277
3.41744
2.7827
2.27835
1.8787
1.56218
1.30201
1.10138
0.952845
0.835482
0.738033
0.654828
0.583064
0.521395
0.469628
0.429209
0.408261
0.448576
0.786441
2.08886
0.505835
0.591054
0.773868
1.14295
1.70861
2.4255
3.2516
4.14964
5.09051
6.05583
7.04779
7.86191
0.452693
0.416595
0.392007
0.375138
0.363586
0.355741
0.350511
0.347141
0.345105
0.344126
0.343785
0.343742
0.344202
0.34484
0.345751
0.346808
0.348036
0.349344
0.350733
0.352257
0.353918
0.355719
0.357673
0.359786
0.362075
0.364555
0.367241
0.37016
0.373328
8.54813
9.22022
9.89383
10.5505
11.1243
11.5041
11.5893
11.327
10.736
9.88005
8.83783
7.68682
6.47613
5.303
4.29996
3.49262
2.84767
2.33454
1.92708
1.60332
1.33595
1.129
0.97568
0.854681
0.754408
0.668868
0.595031
0.531326
0.47734
0.435328
0.412211
0.45287
0.806803
2.12278
0.490488
0.567622
0.726625
1.05994
1.59856
2.2979
3.11283
4.00176
4.93073
5.8768
6.83149
7.811
8.60569
0.442404
0.409903
0.387633
0.372297
0.361761
0.354593
0.349809
0.346733
0.344907
0.344085
0.343777
0.343713
0.344204
0.34484
0.34575
0.346814
0.347982
0.349238
0.350629
0.352155
0.35382
0.355627
0.357588
0.359709
0.362007
0.364499
0.367198
0.370133
0.373318
9.28234
9.96335
10.6613
11.3473
11.9326
12.2654
12.2524
11.8722
11.1696
10.2204
9.10356
7.8655
6.60004
5.4112
4.39338
3.57329
2.91748
2.39502
1.9793
1.64791
1.37295
1.15931
1.00084
0.875889
0.772529
0.684428
0.608331
0.542426
0.487641
0.443465
0.416932
0.457707
0.829497
2.15584
0.476393
0.545996
0.683597
0.979028
1.48682
2.16648
2.96984
3.85123
4.77141
5.70197
6.62896
7.55579
8.51065
9.29692
0.433173
0.403885
0.383694
0.369737
0.360118
0.353556
0.349175
0.346383
0.344787
0.34405
0.343743
0.343711
0.344205
0.344843
0.345755
0.346764
0.347872
0.34913
0.350522
0.352051
0.353721
0.355533
0.3575
0.359631
0.361938
0.364442
0.367155
0.370107
0.373309
9.97166
10.6781
11.4153
12.1306
12.7187
12.9868
12.8604
12.36
11.5538
10.5226
9.3099
8.01231
6.73175
5.52659
4.49326
3.65969
2.99236
2.46001
2.03556
1.69615
1.41324
1.1925
1.02853
0.899309
0.792584
0.701698
0.623131
0.557141
0.500898
0.452659
0.422278
0.463716
0.85431
2.18779
0.46372
0.526485
0.644913
0.901491
1.374
2.03117
2.82192
3.69689
4.61145
5.53118
6.43605
7.32323
8.20841
9.12764
9.92013
0.424903
0.398475
0.380148
0.36743
0.358632
0.352617
0.348625
0.346138
0.344708
0.344003
0.343743
0.343711
0.344203
0.34486
0.345702
0.346658
0.347762
0.349019
0.350413
0.351944
0.353618
0.355436
0.357411
0.35955
0.361867
0.364384
0.367111
0.370081
0.3733
10.6102
11.364
12.1617
12.9034
13.4764
13.655
13.4037
12.7874
11.8897
10.7538
9.47791
8.16712
6.87125
5.64927
4.59975
3.75201
3.07249
2.52967
2.09603
1.74822
1.45698
1.22878
1.05896
0.925149
0.814787
0.720863
0.642686
0.575813
0.515437
0.462866
0.428895
0.470478
0.881389
2.2186
0.452357
0.509064
0.611637
0.829531
1.26106
1.89207
2.66844
3.53755
4.44937
5.36319
6.2525
7.10788
7.9385
8.77103
9.65621
10.4664
0.417499
0.393614
0.376957
0.365347
0.357286
0.351797
0.348222
0.345986
0.344643
0.344004
0.343743
0.343715
0.344214
0.344824
0.345594
0.346552
0.347651
0.348906
0.350301
0.351834
0.353514
0.355337
0.357319
0.359468
0.361795
0.364327
0.367069
0.370056
0.373291
11.1981
12.0269
12.9037
13.6687
14.1964
14.2555
13.8752
13.1542
12.1415
10.9397
9.65317
8.32951
7.01834
5.77922
4.71295
3.85037
3.15803
2.60417
2.16086
1.80425
1.50434
1.26833
1.09233
0.953622
0.839324
0.746109
0.667314
0.595981
0.531297
0.474507
0.43617
0.478821
0.911529
2.24771
0.442195
0.493416
0.583572
0.76588
1.15019
1.74953
2.50889
3.37197
4.28356
5.19624
6.07674
6.90914
7.69553
8.45647
9.23032
10.0875
10.9348
0.410873
0.389247
0.37408
0.363461
0.356105
0.35118
0.347981
0.345892
0.344645
0.344004
0.343745
0.343746
0.344172
0.344736
0.345491
0.346444
0.347539
0.34879
0.350187
0.351722
0.353406
0.355236
0.357224
0.359384
0.361723
0.364271
0.367028
0.370031
0.373282
11.7405
12.6784
13.6451
14.4132
14.8611
14.7749
14.2713
13.422
12.3408
11.1308
9.8346
8.49877
7.17261
5.91626
4.83283
3.95483
3.24905
2.6836
2.23013
1.86435
1.55543
1.31128
1.12881
0.984897
0.871484
0.777652
0.693644
0.617699
0.548711
0.487322
0.445212
0.48841
0.944023
2.27523
0.433127
0.479328
0.559617
0.71188
1.04597
1.60523
2.3429
3.1989
4.11216
5.02831
5.90671
6.72478
7.47834
8.18056
8.86219
9.57532
10.4078
11.3227
0.404942
0.385316
0.371478
0.361802
0.355198
0.350818
0.347857
0.345894
0.344645
0.344005
0.343783
0.343743
0.344082
0.344656
0.345389
0.346335
0.347425
0.348672
0.350071
0.351607
0.353296
0.355133
0.357128
0.359301
0.361654
0.364218
0.366988
0.370007
0.373274
12.248
13.3339
14.3868
15.1213
15.4423
15.2026
14.5505
13.6292
12.5415
11.3251
10.0207
8.67387
7.33343
6.06006
4.95922
4.06535
3.34558
2.76799
2.30391
1.92857
1.61032
1.35776
1.16851
1.02558
0.911239
0.811002
0.721662
0.641058
0.567631
0.501944
0.455163
0.499899
0.981129
2.30069
0.425049
0.466657
0.538892
0.666715
0.951653
1.46418
2.17161
3.01709
3.93314
4.85704
5.74001
6.5523
7.28373
7.94147
8.54812
9.14361
9.79424
10.6019
11.628
0.399621
0.38177
0.369187
0.360509
0.354675
0.350655
0.34786
0.345894
0.344645
0.344057
0.343794
0.343711
0.344005
0.344578
0.345288
0.346222
0.347309
0.348551
0.349952
0.351491
0.353183
0.355028
0.357033
0.359221
0.361586
0.364165
0.366949
0.369984
0.373266
12.7388
14.0055
15.1249
15.7816
15.9129
15.4893
14.7592