/*--------------------------------*- C++ -*----------------------------------*\
  =========                 |
  \\      /  F ield         | OpenFOAM: The Open Source CFD Toolbox
   \\    /   O peration     | Website:  https://openfoam.org
    \\  /    A nd           | Version:  8
     \\/     M anipulation  |
\*---------------------------------------------------------------------------*/
FoamFile
{
    version     2.0;
    format      ascii;
    class       volScalarField;
    location    "0.36";
    object      p;
}
// * * * * * * * * * * * * * * * * * * * * * * * * * * * * * * * * * * * * * //

dimensions      [0 2 -2 0 0 0 0];

internalField   nonuniform List<scalar> 
15677
(
77.1383
76.7323
76.3984
76.8865
76.3971
76.3427
76.8065
76.4162
76.3524
76.2893
76.7869
76.4163
76.3529
76.298
76.207
76.7687
76.4194
76.3534
76.2974
76.2146
76.1242
76.7459
76.4221
76.3536
76.2978
76.2146
76.1309
76.0328
76.721
76.4237
76.3534
76.298
76.2153
76.131
76.0386
75.9221
76.6952
76.4247
76.3526
76.2977
76.216
76.1317
76.0388
75.9272
75.7858
76.6683
76.4251
76.3516
76.297
76.2164
76.1324
76.0395
75.9275
75.7902
75.6174
76.6403
76.4249
76.35
76.296
76.2167
76.133
76.0403
75.9283
75.7906
75.6211
75.4095
76.6108
76.4241
76.3481
76.2949
76.2171
76.1336
76.041
75.9292
75.7916
75.6216
75.4125
75.1542
76.5798
76.4225
76.3462
76.2939
76.2177
76.1344
76.0419
75.9302
75.7927
75.6228
75.4131
75.1565
74.8437
76.5474
76.4201
76.3444
76.2929
76.2183
76.1354
76.043
75.9315
75.794
75.6242
75.4145
75.1573
74.8451
74.4701
76.5174
76.4169
76.3428
76.2921
76.2195
76.137
76.0448
75.9333
75.7958
75.626
75.4163
75.159
74.846
74.4705
74.0258
76.4915
76.4132
76.3417
76.2914
76.2213
76.1395
76.0473
75.9359
75.7984
75.6284
75.4187
75.1612
74.8482
74.4718
74.0254
73.5041
76.4694
76.4093
76.341
76.291
76.2239
76.1431
76.0512
75.9399
75.8022
75.632
75.422
75.1643
74.8509
74.4742
74.0268
73.5026
72.8987
76.4506
76.4043
76.3405
76.2911
76.2276
76.1484
76.057
75.9458
75.8079
75.6373
75.4269
75.1687
74.8549
74.4777
74.0296
73.5041
72.896
72.2047
76.4344
76.3987
76.3399
76.2917
76.2319
76.1556
76.0651
75.9543
75.8163
75.6452
75.434
75.1751
74.8606
74.4827
74.0339
73.5074
72.8978
72.2007
71.4186
76.4205
76.3928
76.3391
76.2927
76.2367
76.1644
76.0762
75.9663
75.8284
75.6568
75.4446
75.1846
74.869
74.49
74.0401
73.5126
72.9015
72.2027
71.413
70.5381
76.4083
76.3868
76.3383
76.2941
76.2419
76.1738
76.0898
75.9827
75.8454
75.6733
75.4601
75.1986
74.8812
74.5005
74.0492
73.5202
72.9076
72.207
71.4152
70.531
69.563
76.3981
76.381
76.3374
76.2958
76.2476
76.1841
76.1046
76.0026
75.8686
75.6965
75.4823
75.2189
74.8992
74.516
74.0623
73.5312
72.9167
72.2141
71.4201
70.5334
69.5542
68.4947
76.3899
76.3757
76.3365
76.2979
76.2536
76.1951
76.1207
76.0243
75.8968
75.7284
75.5134
75.2479
74.9253
74.5387
74.0815
73.5472
72.9298
72.2247
71.4281
70.5387
69.5567
68.4841
67.337
76.3832
76.3711
76.3355
76.3002
76.2599
76.2066
76.1379
76.0479
75.9274
75.767
75.5559
75.2886
74.9626
74.5717
74.1097
73.5706
72.9489
72.2401
71.4403
70.5477
69.5624
68.4868
67.3245
66.0956
76.3777
76.3672
76.3346
76.3026
76.2665
76.2185
76.1561
76.0732
75.9609
75.8091
75.6076
75.3443
75.0148
74.6187
74.1505
73.6048
72.9769
72.2624
71.4579
70.5614
69.5723
68.4928
67.3272
66.0811
64.7828
76.3731
76.3638
76.3337
76.3048
76.2729
76.2308
76.1749
76.1
75.9968
75.8552
75.6641
75.4122
75.0864
74.6845
74.2087
73.6544
73.0177
72.2951
71.4836
70.5812
69.5873
68.5034
67.3333
66.0835
64.7647
63.4268
76.3692
76.361
76.333
76.3068
76.2787
76.2427
76.1944
76.1278
76.0348
75.9046
75.7259
75.4863
75.1737
74.7749
74.2902
73.7252
73.077
72.3431
71.5212
70.6101
69.6092
68.5195
67.3442
66.0892
64.7646
63.3681
61.9724
76.3659
76.3585
76.3323
76.3086
76.284
76.2535
76.2132
76.1565
76.0743
75.9569
75.7924
75.5676
75.2693
74.8852
74.4022
73.8245
73.1617
72.4126
71.5764
70.6525
69.641
68.543
67.361
66.0999
64.7688
63.3738
61.9045
60.4043
76.363
76.3564
76.3316
76.3102
76.2887
76.2631
76.2304
76.1845
76.1151
76.0115
75.8628
75.6551
75.3742
75.0062
74.5394
73.9612
73.2806
72.5122
71.6567
70.7148
69.6878
68.5772
67.3855
66.1166
64.7777
63.3749
61.9098
60.3795
58.7907
76.3606
76.3545
76.331
76.3116
76.2928
76.2716
76.2457
76.2099
76.1549
76.0679
75.9364
75.7479
75.4873
75.1393
74.69
74.1288
73.4447
72.6523
71.7718
70.8059
69.7571
68.6279
67.4214
66.1411
64.7926
63.3805
61.9034
60.3687
58.7824
57.1454
76.3585
76.3529
76.3304
76.3128
76.2964
76.2792
76.2594
76.2328
76.1912
76.1229
76.0125
75.8452
75.6076
75.283
74.856
74.3134
73.6464
72.8461
71.9344
70.937
69.8586
68.7033
67.475
66.1775
64.8155
63.3925
61.9068
60.3586
58.7659
57.1408
55.2948
76.3566
76.3515
76.3299
76.3138
76.2995
76.2858
76.2715
76.2531
76.2238
76.1733
76.0869
75.9459
75.7337
75.4361
75.0357
74.5172
73.8689
73.0851
72.1598
71.1226
70.0053
68.8144
67.5553
66.2326
64.8506
63.4126
61.9171
60.3627
58.7563
57.1222
55.2933
53.2231
76.355
76.3502
76.3295
76.3147
76.3023
76.2916
76.2822
76.2712
76.2529
76.2185
76.155
76.0445
75.8645
75.5969
75.2274
74.7384
74.1154
73.3496
72.4388
71.3808
70.2138
68.9759
67.6747
66.3163
64.9054
63.4452
61.935
60.3727
58.7614
57.1139
55.2759
53.2236
51.1519
76.3536
76.3491
76.329
76.3155
76.3047
76.2968
76.2916
76.2871
76.2788
76.259
76.2164
76.135
75.9929
75.7641
75.4294
74.9748
74.3835
73.6432
72.7483
71.7016
70.5052
69.2066
67.8495
66.4422
64.9906
63.4982
61.9652
60.3892
58.7712
57.1183
55.2677
53.2077
51.1536
49.1056
76.3524
76.3482
76.3286
76.3161
76.3068
76.3012
76.2998
76.3012
76.3017
76.295
76.2714
76.2166
76.1109
75.9285
75.6397
75.2245
74.671
73.9636
73.0932
72.0587
70.8687
69.5306
68.1008
66.6282
65.1207
63.583
62.0159
60.4175
58.7871
57.1275
55.2695
53.1992
51.1393
49.1072
47.1033
76.3473
76.3509
76.3282
76.3167
76.3086
76.3052
76.3071
76.3136
76.3219
76.3269
76.3204
76.2897
76.2175
76.0799
75.8469
75.4853
74.9754
74.3081
73.4706
72.458
71.275
69.9366
68.4557
66.8977
65.3154
63.7153
62.0994
60.4661
58.8138
57.1422
55.2766
53.1982
51.1303
49.094
47.1046
45.1575
76.3278
76.3463
76.3491
76.3173
76.3102
76.3086
76.3135
76.3246
76.3398
76.3552
76.3638
76.355
76.3132
76.2169
76.0383
75.7429
75.2941
74.674
73.8778
72.8966
71.7311
70.3925
68.9029
67.2809
65.6002
63.916
62.2321
60.5476
58.8599
57.1666
55.2886
53.2022
51.1264
49.084
47.0919
45.1584
43.277
76.3177
76.3275
76.3451
76.3473
76.3116
76.3117
76.3191
76.3342
76.3556
76.3802
76.4024
76.4131
76.3987
76.3401
76.2118
75.9813
75.61
75.0583
74.3118
73.3715
72.2339
70.9063
69.4075
67.7668
66.0081
64.2126
62.4362
60.6791
58.9382
57.2091
55.3088
53.2097
51.1266
49.0768
47.0806
45.146
43.2773
41.4692
76.3128
76.3183
76.327
76.3438
76.3455
76.3143
76.3241
76.3427
76.3695
76.4022
76.4365
76.4646
76.4748
76.4504
76.3681
76.198
75.903
75.4405
74.7692
73.8795
72.7805
71.4752
69.9787
68.3178
66.5289
64.641
62.741
60.8839
59.0666
57.2826
55.3454
53.2231
51.1283
49.0724
47.0699
45.133
43.265
41.4688
39.7395
76.3165
76.3143
76.319
76.3266
76.3426
76.3437
76.3284
76.3502
76.3817
76.4217
76.4666
76.5102
76.5425
76.5487
76.5083
76.3936
76.1701
75.7962
75.2258
74.4171
73.3676
72.0963
70.6141
68.9446
67.1227
65.1918
63.1848
61.1929
59.2692
57.4054
55.4113
53.2505
51.1335
49.0674
47.0602
45.1185
43.2503
41.4564
39.7383
38.0915
76.3321
76.3195
76.316
76.3196
76.3261
76.3412
76.3419
76.3567
76.3926
76.4389
76.4932
76.5505
76.6024
76.6362
76.6334
76.5693
76.4118
76.1212
75.6521
74.9558
73.9915
72.7664
71.311
69.6452
67.8018
65.8234
63.7597
61.6466
59.5778
57.6021
55.5249
53.3045
51.1496
49.063
47.0475
45.1031
43.2319
41.4397
39.7257
38.0896
36.5272
76.3623
76.3367
76.3224
76.3175
76.3201
76.3255
76.3399
76.3401
76.4021
76.4541
76.5168
76.5862
76.6556
76.7138
76.7448
76.7265
76.6292
76.4161
76.043
75.4608
74.6196
73.4818
72.0663
70.4173
68.5644
66.5495
64.4229
62.2387
60.0352
57.9056
55.7109
53.4033
51.1886
49.0659
47.0324
45.0821
43.2105
41.4174
39.7071
38.0768
36.5246
35.0469
76.4102
76.3692
76.3412
76.3251
76.319
76.3205
76.325
76.3385
76.3384
76.4676
76.5377
76.6179
76.7026
76.7826
76.8439
76.8666
76.8241
76.6821
76.3986
75.9254
75.2108
74.2055
72.8769
71.2584
69.4093
67.3693
65.1892
62.9257
60.6367
58.36
56.0031
53.5717
51.2685
49.0875
47.0205
45.0553
43.1808
41.3899
39.6809
38.0562
36.5115
35.0438
33.6503
76.4789
76.42
76.3756
76.3455
76.3278
76.3203
76.3208
76.3244
76.337
76.3366
76.5561
76.6459
76.7443
76.8437
76.9319
76.9914
76.9983
76.921
76.7202
76.3494
75.7568
74.8897
73.701
72.1659
70.3346
68.2824
66.0592
63.724
61.3387
58.9619
56.4462
53.8436
51.4139
49.1452
47.0226
45.0274
43.1417
41.3513
39.6473
38.0263
36.4889
35.0303
33.6465
32.3355
76.5716
76.4925
76.4289
76.3818
76.3496
76.3303
76.3215
76.321
76.3237
76.3355
76.3348
76.6707
76.7813
76.8978
77.0099
77.1024
77.1536
77.1349
77.0098
76.734
76.2568
75.5242
74.484
73.0937
71.3386
69.2882
67.0339
64.6357
62.1593
59.6692
57.039
54.263
51.6577
49.2627
47.0553
45.0085
43.097
41.2996
39.5997
37.9866
36.4553
35.0059
33.6328
32.3312
31.1005
76.6916
76.5901
76.5045
76.4374
76.3877
76.3535
76.3326
76.3225
76.3211
76.3231
76.3339
76.333
76.814
76.9459
77.0792
77.2009
77.2919
77.3259
77.2695
77.0811
76.7118
76.1076
75.2134
73.9798
72.3712
70.386
68.114
65.6631
63.1022
60.5013
57.7409
54.8314
52.0421
49.4714
47.1411
45.0141
43.0561
41.2379
39.5354
37.9301
36.4099
34.9688
33.6064
32.3172
31.0957
29.9424
76.8416
76.7163
76.606
76.516
76.4457
76.3933
76.3571
76.3346
76.3233
76.3212
76.3223
76.3323
76.3312
76.9885
77.1409
77.2885
77.4148
77.4963
77.502
77.3933
77.1237
76.6402
75.8867
74.8091
73.3628
71.522
69.3002
66.8087
64.1715
61.4635
58.5731
55.5114
52.5714
49.8108
47.3088
45.0652
43.0333
41.1744
39.4565
37.8534
36.3447
34.9177
33.5661
32.2891
31.0814
29.9372
28.8582
77.0242
76.8742
76.737
76.6212
76.5271
76.4533
76.3984
76.3603
76.3364
76.324
76.321
76.3216
76.3306
76.3295
77.1954
77.3666
77.5242
77.648
77.7097
77.6733
77.495
77.1238
76.5038
75.5781
74.2957
72.6195
70.5358
68.0752
65.3716
62.5617
59.5424
56.325
53.2127
50.2879
47.5944
45.187
43.0473
41.1225
39.3707
37.7576
36.2558
34.8442
33.5097
32.2456
31.0517
29.9227
28.8526
27.8443
77.2412
77.0667
76.9009
76.7569
76.6358
76.5373
76.4603
76.403
76.3631
76.3379
76.3245
76.3207
76.3208
76.3289
76.3278
77.4356
77.6218
77.7832
77.8949
77.9239
77.8289
77.5612
77.066
76.2857
75.1647
73.6575
71.7369
69.4035
66.7073
63.8027
60.657
57.2807
53.9876
50.8748
48.008
45.4118
43.1197
41.0978
39.2894
37.6496
36.1436
34.7436
33.4282
32.1842
31.0053
29.8913
28.8378
27.8383
26.8973
77.4933
77.2959
77.1009
76.9265
76.7759
76.6493
76.5467
76.4666
76.4071
76.3656
76.3391
76.3248
76.3203
76.32
76.3273
76.3262
77.7081
77.9039
78.0602
78.1478
78.1283
77.9554
77.576
76.9327
75.9678
74.6293
72.8794
70.7032
68.1187
65.194
61.9263
58.3893
54.9063
51.5918
48.5263
45.7521
43.2783
41.1185
39.2253
37.5392
36.0141
34.6156
33.3163
32.0951
30.939
29.8423
28.805
27.8234
26.8909
26.0136
77.7802
77.5632
77.3393
77.1336
76.951
76.7934
76.6616
76.5551
76.4722
76.4106
76.3677
76.3401
76.325
76.3196
76.3191
76.3258
76.3247
78.0105
78.208
78.348
78.3963
78.3096
78.0369
77.5216
76.705
75.5313
73.9545
71.947
69.5091
66.6752
63.3612
59.6635
55.9821
52.4503
49.1674
46.1891
43.5372
41.207
39.1929
37.4357
35.8751
34.4654
33.1733
31.9727
30.8428
29.7716
28.7535
27.7892
26.8758
26.0069
25.1897
78.0996
77.8686
77.6179
77.3808
77.1648
76.9735
76.8092
76.6725
76.5624
76.477
76.4136
76.3692
76.3407
76.3249
76.3187
76.3183
76.3243
76.3233
78.3383
78.5271
78.6365
78.6275
78.4522
78.0553
77.3783
76.3628
74.9572
73.1238
70.8482
68.1448
64.9022
61.1184
57.2309
53.4656
49.9432
46.7377
43.8822
41.3785
39.2091
37.3498
35.7328
34.2986
33.0034
31.8155
30.7104
29.6687
28.6786
27.7354
26.8403
25.9916
25.1826
24.422
78.4473
78.2107
77.9371
77.6702
77.4203
77.1934
76.9936
76.8232
76.682
76.5687
76.4809
76.4159
76.3704
76.341
76.3246
76.3178
76.3175
76.3228
76.3219
78.6849
78.8515
78.913
78.8258
78.5376
77.9904
77.1249
75.8854
74.2268
72.1224
69.5694
66.4446
62.698
58.6711
54.6551
50.8689
47.4086
44.3232
41.6225
39.2887
37.2927
35.5939
34.1186
32.81
31.6269
30.54
29.527
28.5695
27.6566
26.7846
25.955
25.167
24.414
23.708
78.8167
78.5858
78.2962
78.0029
77.7201
77.4565
77.2189
77.0114
76.8352
76.6899
76.5737
76.484
76.4175
76.3709
76.3409
76.3241
76.3167
76.3166
76.3214
76.3206
79.0408
79.1689
79.1619
78.9724
78.5451
77.8201
76.7395
75.2523
73.3225
70.9332
67.9521
64.2951
60.2499
56.038
51.9612
48.2148
44.8682
41.943
39.4249
37.2778
35.4636
33.9279
32.5935
31.4082
30.3338
29.3442
28.4192
27.5418
26.7022
25.8974
25.1293
24.3984
23.6972
23.119
79.1986
78.9885
78.6922
78.3786
78.0656
77.7656
77.4886
77.2412
77.0265
76.8452
76.6963
76.5776
76.486
76.4183
76.371
76.3406
76.3234
76.3157
76.3156
76.3201
76.3193
79.3936
79.4638
79.3648
79.0467
78.452
77.5214
76.1997
74.4436
72.2248
69.4054
65.8681
61.8574
57.5643
53.2381
49.1712
45.5271
42.3443
39.6149
37.3017
35.3531
33.7254
32.3528
31.1569
30.0911
29.1215
28.2249
27.3835
26.5821
25.8118
25.0703
24.3599
23.6823
23.1141
22.6238
79.5809
79.4105
79.1204
78.7952
78.457
78.1225
77.8058
77.5165
77.2602
77.039
76.8531
76.701
76.5801
76.4871
76.4185
76.3707
76.3399
76.3226
76.3147
76.3146
76.3188
76.318
79.7281
79.7176
79.5004
79.0249
78.2341
77.0699
75.4834
73.4372
70.7895
67.3917
63.4474
59.1278
54.6588
50.297
46.314
42.8333
39.8589
37.3545
35.2627
33.5199
32.0799
30.8681
29.8069
28.8563
27.9869
27.1786
26.4163
25.6868
24.9816
24.2996
23.6433
23.1034
22.6263
22.1041
79.9481
79.8408
79.5737
79.2488
78.8931
78.5281
78.1728
77.8406
77.5401
77.2755
77.0486
76.8587
76.7039
76.5812
76.4872
76.4181
76.37
76.3391
76.3216
76.3137
76.3136
76.3176
76.3169
80.0254
79.909
79.5449
78.8823
77.8656
76.4421
74.5663
72.0935
68.8466
64.9936
60.6876
56.134
51.5704
47.2539
43.4255
40.1621
37.433
35.1753
33.3153
31.7813
30.5273
29.4724
28.541
27.7006
26.9264
26.2017
25.5143
24.8522
24.2082
23.582
23.0641
22.6172
22.1041
21.546
80.2813
80.2652
80.0421
79.7333
79.3707
78.9817
78.5908
78.2162
77.8698
77.559
77.2872
77.0553
76.862
76.705
76.5811
76.4865
76.4171
76.3689
76.338
76.3204
76.3126
76.3125
76.3164
76.3156
80.264
80.0138
79.4725
78.5917
77.3216
75.6108
73.3108
70.2204
66.4797
62.2263
57.6376
52.9285
48.3492
44.1534
40.5421
37.5406
35.0845
33.0877
31.4648
30.1388
29.0667
28.1634
27.3561
26.6204
25.9363
25.2906
24.6734
24.0748
23.4882
23.0024
22.5782
22.0922
21.5414
20.9382
80.5584
80.6664
80.5126
80.24
79.8849
79.4811
79.0598
78.6448
78.2524
77.8931
77.5732
77.2951
77.0588
76.8629
76.7044
76.5798
76.485
76.4156
76.3676
76.3368
76.3192
76.3116
76.3115
76.3151
76.3142
80.4189
80.0054
79.2551
78.1265
76.5713
74.4383
71.507
67.8967
63.733
59.1606
54.3596
49.5653
45.0435
41.0371
37.6961
34.9915
32.8277
31.0998
29.714
28.5923
27.6961
26.938
26.2488
25.6121
25.013
24.4415
23.8903
23.351
22.9066
22.516
22.0529
21.5261
20.9312
20.2775
80.7537
81.0238
80.9693
80.7574
80.428
80.0221
79.5784
79.127
78.6897
78.2811
77.9103
77.5824
77.2989
77.0593
76.8615
76.7023
76.5776
76.4829
76.4138
76.3659
76.3354
76.3178
76.3105
76.3103
76.3136
76.3128
80.4626
79.8548
78.8645
77.4528
75.4765
72.7041
69.2397
65.1987
60.6913
55.8567
50.9007
46.0883
41.695
37.9411
34.9149
32.5335
30.6737
29.2163
28.0642
27.1405
26.4127
25.7927
25.2152
24.6719
24.1526
23.6507
23.1613
22.7665
22.4185
21.9899
21.4857
20.9142
20.2695
19.562
80.8385
81.3134
81.3928
81.271
80.9901
80.5984
80.1432
79.6621
79.183
78.7253
78.3021
77.9212
77.5865
77.2987
77.0569
76.8583
76.6989
76.5745
76.4803
76.4115
76.3641
76.3339
76.3165
76.3093
76.3089
76.3122
76.3115
80.3646
79.5321
78.264
76.4312
73.8126
70.5051
66.6134
62.2132
57.4018
52.3468
47.2934
42.5334
38.34
34.8965
32.2215
30.1808
28.6296
27.4399
26.5147
25.7811
25.2133
24.7239
24.2516
23.796
23.3515
22.9148
22.5725
22.2759
21.8905
21.421
20.8726
20.2522
19.5536
18.7887
80.7807
81.5088
81.7605
81.7632
81.5581
81.2012
80.749
80.2476
79.7318
79.2272
78.7511
78.3151
77.9256
77.5854
77.2949
77.0521
76.8534
76.6945
76.5707
76.4771
76.4089
76.362
76.3322
76.315
76.3078
76.3075
76.3108
76.3102
80.0925
78.9981
77.3125
74.8394
71.6909
67.9665
63.7072
58.9697
53.8803
48.6505
43.5656
38.9345
35.0117
31.9298
29.6338
27.9437
26.6997
25.771
25.0638
24.5107
24.094
23.7276
23.354
22.9804
22.6059
22.3204
22.0785
21.7452
21.3193
20.8059
20.2096
19.536
18.7798
17.9529
80.544
81.5806
82.0468
82.2131
82.1161
81.8191
81.3884
80.8792
80.3347
79.787
79.2593
78.767
78.3199
77.9235
77.5798
77.288
77.0451
76.8471
76.689
76.5662
76.4735
76.406
76.3597
76.3306
76.3135
76.3063
76.306
76.3094
76.3089
79.6036
78.1083
75.7957
72.8016
69.2491
65.1541
60.5327
55.4697
50.1346
44.7868
39.7466
35.3251
31.7404
29.0636
27.1655
25.8286
24.8859
24.2084
23.7083
23.3258
23.0511
22.7998
22.5185
22.2216
22.0039
21.8218
21.544
21.171
20.7017
20.1409
19.4925
18.7618
17.9438
17.0501
80.0808
81.4972
82.2228
82.5964
82.645
82.4379
82.0513
81.5508
80.9883
80.404
79.8272
79.2789
78.7725
78.3166
77.9157
77.5703
77.2784
77.0364
76.8395
76.6827
76.5611
76.4694
76.4029
76.3578
76.3289
76.3118
76.3047
76.3045
76.308
76.3077
78.7488
76.6628
73.8473
70.4614
66.5382
62.0643
57.081
51.7114
46.1747
40.7786
35.8683
31.7385
28.5537
26.3159
24.826
23.8389
23.1876
22.7491
22.4446
22.2223
22.0802
21.9364
21.7413
21.609
21.4989
21.2823
20.9659
20.5502
20.034
19.4218
18.7173
17.9254
17.0408
16.0755
81.2167
79.2403
82.256
82.8862
83.1224
83.0401
82.7252
82.2537
81.6876
81.0756
80.4548
79.8521
79.2857
78.768
78.3062
77.903
77.5575
77.2666
77.0261
76.8309
76.6756
76.5554
76.4648
76.4005
76.3561
76.3271
76.3099
76.303
76.3029
76.3068
76.3066
77.3435
74.8007
71.6112
67.8557
63.5427
58.6812
53.3428
47.6963
42.016
36.6545
31.9661
28.2078
25.4756
23.7004
22.6212
21.9754
21.6023
21.3897
21.2686
21.1958
21.1772
21.1336
21.1141
21.0952
20.9527
20.6989
20.3406
19.8789
19.3123
18.6447
17.8798
17.022
16.0661
15.0245
82.1073
80.5977
77.8432
83.051
83.5232
83.6053
83.3945
82.9769
82.4251
81.7977
81.1402
80.4867
79.8611
79.2801
78.7547
78.2898
77.8862
77.5418
77.2528
77.0144
76.8213
76.6676
76.5493
76.4619
76.3988
76.3541
76.325
76.3079
76.3012
76.3014
76.3056
76.3056
75.5365
72.663
69.1134
64.9604
60.2425
54.9906
49.3125
43.4316
37.6809
32.4488
28.0774
24.7642
22.5264
21.2269
20.5534
20.2362
20.1267
20.1259
20.1758
20.2419
20.3381
20.486
20.5882
20.5395
20.3619
20.0679
19.6647
19.1533
18.5324
17.8053
16.9754
16.047
15.015
13.8922
83.0537
81.6572
79.4929
76.0591
83.8178
84.1101
84.0406
83.7067
83.1915
82.5643
81.8804
81.1818
80.4993
79.8549
79.2638
78.734
78.2682
77.8659
77.5237
77.2374
77.0015
76.8105
76.6592
76.5454
76.4602
76.3966
76.3517
76.3226
76.3058
76.2995
76.3
76.3044
76.3045
73.4642
70.268
66.3234
61.7532
56.6204
50.981
44.9887
38.9309
33.1992
28.201
24.2405
21.4361
19.7221
18.9012
18.6225
18.6181
18.7562
18.9527
19.1612
19.3564
19.6618
19.9431
20.0196
19.9387
19.7231
19.3859
18.9342
18.3693
17.69
16.899
15.9995
14.9955
13.8828
12.6738
83.9721
82.7929
80.739
78.0197
74.0208
84.5274
84.6421
84.4264
83.9747
83.3674
82.6704
81.935
81.1998
80.4931
79.8354
79.2382
78.7069
78.2424
77.8426
77.5037
77.2204
76.9871
76.7992
76.654
76.544
76.4579
76.3939
76.3489
76.32
76.3038
76.2979
76.2985
76.3032
76.3034
71.1392
67.5797
63.2181
58.2157
52.6609
46.6437
40.3755
34.2157
28.6077
23.9539
20.4924
18.248
17.0744
16.7257
16.8259
17.1166
17.4855
17.865
18.2203
18.6433
19.0951
19.3563
19.4049
19.2891
19.0327
18.6488
18.1449
17.5227
16.7805
15.9211
14.9471
13.8629
12.6644
11.3647
84.8263
83.9053
82.1039
79.4608
76.2854
71.7376
85.1739
85.1165
84.7601
84.1967
83.5034
82.7425
81.961
81.1948
80.4707
79.8046
79.2049
78.6746
78.2129
77.8169
77.4817
77.2014
76.9722
76.793
76.6541
76.5416
76.4548
76.3905
76.3458
76.3177
76.302
76.2961
76.2969
76.302
76.3023
68.5193
64.5756
59.7794
54.3304
48.3501
41.9731
35.4827
29.3155
23.9502
19.7525
16.8678
15.2197
14.5903
14.7
15.1596
15.7261
16.3091
16.8576
17.4636
18.0464
18.4829
18.7222
18.7405
18.5872
18.2867
17.8527
17.2927
16.6088
15.7995
14.8668
13.8137
12.6441
11.3554
9.96029
85.609
84.9489
83.4551
81.066
77.928
74.3153
69.1607
85.7541
85.53
85.0392
84.3709
83.5987
82.78
81.9591
81.17
80.4345
79.7644
79.1652
78.6379
78.1806
77.7889
77.4572
77.1819
76.9644
76.7924
76.6512
76.538
76.4509
76.3868
76.3433
76.3158
76.3
76.2943
76.2953
76.3008
76.3012
65.5822
61.2389
55.99
50.0802
43.6743
36.9667
30.3274
24.2683
19.2758
15.6418
13.3971
12.3656
12.2731
12.8211
13.6181
14.4406
15.2212
16.0487
16.8309
17.4018
17.8217
18.0373
18.0229
17.8291
17.4812
16.9932
16.3731
15.6231
14.7419
13.7314
12.5942
11.3348
9.95159
8.45556
86.3157
85.9142
84.7331
82.669
79.7786
76.1874
72.0648
66.2667
86.2638
85.8794
85.2616
84.4963
83.6521
82.7835
81.9329
81.1285
80.3868
79.7163
79.1201
78.5977
78.1453
77.7577
77.432
77.1723
76.9643
76.7897
76.6471
76.5333
76.4464
76.3841
76.3414
76.3136
76.2978
76.2923
76.2935
76.2995
76.3001
62.3131
57.5547
51.8322
45.4459
38.6194
31.6258
24.9353
19.1216
14.638
11.6643
10.1048
9.69503
10.1227
11.084
12.1948
13.2538
14.3491
15.3731
16.1481
16.7063
17.1081
17.2978
17.2481
17.0106
16.6117
16.0659
15.3814
14.5609
13.6032
12.5102
11.2844
9.93119
8.44902
6.56168
86.941
86.7957
85.9282
84.1954
81.636
78.3069
74.1988
69.5116
63.042
86.6989
86.162
85.4259
84.5716
83.6645
82.7576
81.8864
81.073
80.3296
79.6619
79.0709
78.5539
78.1062
77.7258
77.42
77.1728
76.9616
76.7852
76.6415
76.5279
76.4436
76.3825
76.3392
76.3111
76.2955
76.2901
76.2917
76.2982
76.2991
58.6993
53.5064
47.2841
40.4047
33.1701
25.957
19.3434
13.9319
10.0915
7.85808
7.00975
7.21268
8.13531
9.48233
10.8829
12.3039
13.6216
14.6448
15.4121
15.9563
16.3382
16.4999
16.4121
16.1277
15.6741
15.0664
14.3131
13.4174
12.3787
11.1985
9.88021
8.42938
6.55286
4.32301
87.4796
87.5856
87.0348
85.6342
83.4129
80.436
76.6181
71.9365
66.6487
59.4749
87.0559
86.3759
85.5304
84.5973
83.6412
82.7069
81.8229
81.0059
80.2647
79.6024
79.0174
78.5056
78.0663
77.711
77.4215
77.1702
76.9565
76.7787
76.635
76.5252
76.4425
76.3805
76.3366
76.3083
76.2928
76.2878
76.2898
76.2969
76.298
54.7256
49.0723
42.3182
34.9267
27.3102
19.9772
13.6018
8.76288
5.68975
4.25508
4.12444
4.91821
6.30535
8.00867
9.83477
11.5126
12.8384
13.8608
14.6196
15.1483
15.5085
15.6396
15.5108
15.1759
14.6637
13.9898
13.1633
12.188
11.0637
9.79248
8.3782
6.53006
4.31202
2.06181
87.9273
88.2757
88.0442
86.9807
85.097
82.4778
79.0442
74.6837
69.3949
63.4731
55.552
87.3322
86.5187
85.5752
84.5797
83.5878
82.6356
81.7453
80.9294
80.1936
79.5378
78.9584
78.4563
78.0482
77.7137
77.4191
77.1646
76.9489
76.771
76.6324
76.525
76.441
76.378
76.3336
76.3053
76.29
76.2853
76.2878
76.2956
76.297
50.3709
44.2243
36.8958
28.9754
21.0305
13.7186
7.77526
3.68294
1.4821
0.880086
1.45455
2.80773
4.62521
6.8338
8.96327
10.6622
11.9966
13.0179
13.767
14.2786
14.615
14.713
14.5399
14.1509
13.576
12.8318
11.9276
10.8682
9.65428
8.2887
6.4767
4.28731
2.05351
-0.195245
88.2807
88.8592
88.9458
88.2249
86.684
84.4193
81.3754
77.4287
72.4986
66.576
59.9829
51.2538
87.5244
86.5901
85.5677
84.5257
83.5094
82.5473
81.6565
80.8457
80.1166
79.4666
78.8981
78.4343
78.0524
77.7116
77.4128
77.1557
76.9396
76.7687
76.6336
76.5244
76.4388
76.3749
76.3302
76.3018
76.2869
76.2826
76.2857
76.2943
76.296
45.6077
38.922
30.9673
22.5163
14.3361
7.23376
1.94181
-1.23821
-2.48872
-2.25087
-0.999717
0.874251
3.28921
5.85881
8.02821
9.74968
11.0932
12.1129
12.8511
13.3437
13.654
13.716
13.4952
13.0483
12.4066
11.5876
10.6016
9.45397
8.1471
6.38382
4.23126
2.03166
-0.201794
-2.43588
88.5354
89.3304
89.7295
89.3556
88.1641
86.2557
83.5993
80.0688
75.5833
70.0688
63.4875
56.1739
46.554
87.6315
86.5983
85.5162
84.4415
83.4105
82.4455
81.5589
80.7548
80.0316
79.3938
78.8716
78.4404
78.0509
77.7047
77.4026
77.1446
76.9381
76.772
76.6343
76.5228
76.4359
76.3713
76.3263
76.2981
76.2835
76.2797
76.2835
76.293
76.295
40.3963
33.1064
24.4686
15.511
7.24709
0.598378
-3.80912
-5.93375
-6.18992
-5.12961
-3.24325
-0.658594
2.18345
4.81494
7.0272
8.77266
10.1255
11.1426
11.8685
12.3401
12.6218
12.6446
12.3726
11.8637
11.1511
10.2532
9.18109
7.942
6.23766
4.1344
1.97706
-0.222177
-2.44155
-4.65605
88.689
89.6831
90.3857
90.3607
89.5257
87.9768
85.7104
82.594
78.5485
73.516
67.4075
60.1392
52.039
41.4185
87.6626
86.5534
85.4281
84.3324
83.2951
82.3329
81.4528
80.6543
79.9446
79.3622
78.8802
78.4395
78.0432
77.6928
77.3894
77.144
76.944
76.7746
76.6338
76.5203
76.4322
76.367
76.3219
76.2939
76.2798
76.2767
76.2812
76.2917
76.2942
34.6721
26.6895
17.3124
7.92169
-0.191957
-6.08801
-9.38256
-10.3454
-9.59886
-7.7559
-5.01583
-1.92341
1.00278
3.70048
5.95827
7.7287
9.09062
10.1043
10.8162
11.2644
11.5146
11.495
11.1679
10.5931
9.8054
8.82452
7.66303
6.02679
3.98291
1.87965
-0.275431
-2.46168
-4.66093
-6.85012
88.7518
89.9124
90.9024
91.2287
90.7563
89.5701
87.697
84.9995
81.3882
76.8227
71.2428
64.5326
56.5412
47.5702
35.7912
87.6297
86.4642
85.3099
84.2035
83.1669
82.2104
81.3353
80.5515
79.9073
79.3736
78.88
78.4311
78.0295
77.6772
77.3901
77.1535
76.9493
76.7757
76.6321
76.5168
76.4277
76.362
76.317
76.2893
76.2758
76.2734
76.2789
76.2904
76.2934
28.3424
19.5554
9.40089
-0.265312
-7.89924
-12.7058
-14.6861
-14.426
-12.7045
-9.82279
-6.473
-3.26963
-0.253311
2.51451
4.8198
6.6158
7.98645
8.99553
9.69138
10.1136
10.3292
10.2636
9.87753
9.23276
8.36594
7.29858
5.74079
3.76576
1.72567
-0.372482
-2.51444
-4.68068
-6.85415
-9.01095
88.7377
90.0299
91.2674
91.943
91.8427
91.0226
89.5452
87.2738
84.0996
79.988
74.9087
68.7862
61.4642
52.7019
42.7477
29.5874
87.5435
86.3388
85.1677
84.059
83.0267
82.0744
81.215
80.5079
79.9221
79.3744
78.8709
78.4154
78.011
77.6796
77.4041
77.1622
76.9526
76.7753
76.6292
76.5124
76.4223
76.3563
76.3114
76.2842
76.2715
76.2701
76.2766
76.2893
76.2928
21.2813
11.5526
0.642106
-9.0222
-15.7487
-19.1214
-19.6344
-18.1425
-15.138
-11.5141
-8.01782
-4.69568
-1.58403
1.25668
3.61086
5.43265
6.81136
7.81429
8.49189
8.88524
9.06278
8.94725
8.49822
7.77944
6.8299
5.36748
3.47278
1.50486
-0.52742
-2.61172
-4.73264
-6.87322
-9.01412
-11.1313
88.6596
90.0526
91.4901
92.4832
92.7646
92.321
91.2396
89.4024
86.6728
83.0122
78.4103
72.8313
66.172
58.2217
48.6288
37.536
22.6896
87.4134
86.1843
85.0067
83.9003
82.8708
81.9348
81.1642
80.5266
79.9241
79.3645
78.8528
78.3936
78.0156
77.6992
77.4172
77.1685
76.9541
76.7734
76.625
76.5067
76.4159
76.3498
76.3052
76.2787
76.267
76.2667
76.2744
76.2882
76.2922
13.2971
2.48467
-9.02704
-18.2697
-23.57
-25.1955
-24.1545
-21.0406
-17.1178
-13.2983
-9.64543
-6.19798
-2.98759
-0.0722556
2.33151
4.17888
5.56453
6.55937
7.21611
7.57732
7.713
7.54348
7.02734
6.23084
4.88793
3.09153
1.20772
-0.749788
-2.76767
-4.82996
-6.924
-9.03239
-11.1336
-13.2043
88.5287
89.9963
91.5898
92.8538
93.4941
93.443
92.7649
91.3687
89.0951
85.8888
81.7521
76.6801
70.6192
63.4269
54.8262
44.3284
31.8881
14.9163
87.2482
86.007
84.8288
83.723
82.7102
81.8763
81.1876
80.53
79.9134
79.3439
78.8273
78.4009
78.042
77.7178
77.4272
77.1725
76.9537
76.7699
76.6194
76.4998
76.4085
76.3424
76.2983
76.2728
76.2624
76.2633
76.2721
76.2871
76.2917
4.09867
-7.89051
-19.6084
-27.8696
-31.154
-30.7926
-27.6629
-23.3812
-19.1922
-15.1648
-11.3478
-7.77143
-4.46054
-1.47
0.983222
2.85521
4.24607
5.23042
5.86328
6.18868
6.27835
6.05052
5.46326
4.27584
2.60307
0.822071
-1.04838
-2.99082
-4.98658
-7.02087
-9.0817
-11.1509
-13.2058
-15.2234
88.3553
89.8746
91.5858
93.0736
94.0317
94.3548
94.0946
93.1547
91.3507
88.6086
84.9327
80.3433
74.8272
68.3033
60.5787
51.3018
39.8048
25.7428
5.98459
87.0555
85.8096
84.6292
83.5399
82.6433
81.905
81.1927
80.5185
79.89
79.3141
78.8379
78.4355
78.0673
77.7326
77.4346
77.1744
76.9514
76.7645
76.612
76.4914
76.3998
76.334
76.2909
76.2667
76.2578
76.2599
76.2699
76.2861
76.2913
-6.77762
-19.8255
-31.0344
-37.633
-38.2404
-35.1339
-30.4645
-25.8106
-21.3417
-17.0987
-13.1147
-9.40843
-5.99713
-2.93226
-0.430967
1.46373
2.85738
3.82824
4.43365
4.7192
4.75832
4.46767
3.49276
1.98138
0.329678
-1.43486
-3.2891
-5.20972
-7.17733
-9.17767
-11.1988
-13.2223
-15.224
-17.1811
88.1487
89.7004
91.4957
93.1613
94.3964
95.0544
95.188
94.7279
93.4213
91.1589
87.9479
83.8257
78.8152
72.8836
65.9151
57.6575
47.6769
35.0596
19.0229
-4.57539
86.8386
85.5867
84.4221
83.464
82.6782
81.9121
81.1803
80.4919
79.8553
79.3285
78.8821
78.4687
78.088
77.7443
77.4394
77.1737
76.9467
76.7571
76.6029
76.4815
76.3899
76.325
76.2832
76.2605
76.253
76.2565
76.2677
76.2852
76.291
-20.1305
-33.5258
-43.2236
-47.103
-43.7211
-38.5486
-33.3276
-28.2938
-23.5399
-19.0817
-14.9323
-11.0982
-7.58885
-4.45256
-1.90617
0.00817331
1.40127
2.35488
2.92873
3.1699
3.15345
2.47942
1.1883
-0.294686
-1.9263
-3.6734
-5.50608
-7.39917
-9.3332
-11.2936
-13.2684
-15.2395
-17.1809
-19.0695
87.9131
89.4846
91.3359
93.1358
94.6067
95.562
96.0412
96.0362
95.2698
93.5235
90.7899
87.1299
82.5959
77.1998
70.8818
63.4874
54.6948
43.9841
30.0932
11.6444
-17.6754
86.5919
85.3545
84.3366
83.5059
82.6875
81.8988
81.1503
80.4518
79.8741
79.3838
78.9247
78.4964
78.1048
77.7527
77.4411
77.1702
76.9394
76.7473
76.5917
76.4699
76.379
76.3154
76.2752
76.2542
76.2482
76.2531
76.2656
76.2843
76.2908
-37.4914
-48.5187
-55.3978
-54.5323
-47.9801
-41.9512
-36.1916
-30.7862
-25.7564
-21.0911
-16.7827
-12.8262
-9.22424
-6.02193
-3.43533
-1.50583
-0.117808
0.813941
1.35144
1.54302
1.14597
0.165646
-1.08826
-2.5468
-4.15956
-5.88553
-7.6917
-9.55254
-11.4476
-13.3618
-15.284
-17.1956
-19.068
-20.8764
87.643
89.2323
91.1209
93.0161
94.6814
95.8973
96.6778
97.0687
96.8322
95.6637
93.4472
90.2548
86.1804
81.2746
75.5296
68.8547
61.053
51.7236
40.2709
24.9077
3.55433
-35.4419
86.3335
85.2589
84.3864
83.5178
82.6734
81.8651
81.1039
80.4757
79.9422
79.4372
78.9606
78.5196
78.1179
77.7575
77.4393
77.1634
76.9292
76.7349
76.5783
76.4569
76.3673
76.3054
76.267
76.2477
76.2434
76.2497
76.2635
76.2834
76.2907
-58.8902
-62.4949
-66.6673
-59.9474
-52.0609
-45.2398
-38.9869
-33.2398
-27.9562
-23.0989
-18.6434
-14.5744
-10.8887
-7.62865
-5.00902
-3.07066
-1.69353
-0.789292
-0.293989
-0.480884
-1.17408
-2.10741
-3.33225
-4.77038
-6.36255
-8.06361
-9.83948
-11.6634
-13.5136
-15.3758
-17.2383
-19.0815
-20.8755
-22.5936
87.3591
88.9392
90.8584
92.8201
94.6388
96.0796
97.1212
97.8487
98.0879
97.5056
95.8826
93.1955
89.5754
85.1292
79.8938
73.8365
66.8325
58.6449
48.792
36.5964
19.5356
-5.0367
-58.9095
86.2273
85.3176
84.4013
83.5028
82.6355