/*--------------------------------*- C++ -*----------------------------------*\
  =========                 |
  \\      /  F ield         | OpenFOAM: The Open Source CFD Toolbox
   \\    /   O peration     | Website:  https://openfoam.org
    \\  /    A nd           | Version:  8
     \\/     M anipulation  |
\*---------------------------------------------------------------------------*/
FoamFile
{
    version     2.0;
    format      ascii;
    class       volScalarField;
    location    "0.04";
    object      alphat;
}
// * * * * * * * * * * * * * * * * * * * * * * * * * * * * * * * * * * * * * //

dimensions      [1 -1 -1 0 0 0 0];

internalField   nonuniform List<scalar> 
15677
(
0.000124003
0.000627331
0.000105714
0.00159745
0.000416328
0.000109037
0.0029803
0.000844779
0.000374284
0.000118747
0.00450962
0.00153864
0.000633294
0.000365
0.000131294
0.00587971
0.00249744
0.00109928
0.000540499
0.000349772
0.000143513
0.00689468
0.00364685
0.00182333
0.00087133
0.00047776
0.000342227
0.000154088
0.00749997
0.00485547
0.00277026
0.00143099
0.00071739
0.00044358
0.000342255
0.000162014
0.00778683
0.00598122
0.00386688
0.00222899
0.00115736
0.000619705
0.000431021
0.000345221
0.000167827
0.00790619
0.00688732
0.00500099
0.00321422
0.00183096
0.000964564
0.000566773
0.000428678
0.000348853
0.000172029
0.00795893
0.00748258
0.00604363
0.00429926
0.00271251
0.00153451
0.000839128
0.000540017
0.000430217
0.000352099
0.000175483
0.00798014
0.00778372
0.00688028
0.00537242
0.0037339
0.00231805
0.0013168
0.000762236
0.000526208
0.000432631
0.000355348
0.000178418
0.00798085
0.00790731
0.00745696
0.00632069
0.0048003
0.00327053
0.00201875
0.00117086
0.000712968
0.000518219
0.000435701
0.000358879
0.000180757
0.0079789
0.00795253
0.00778073
0.00705469
0.00580545
0.00431107
0.0029066
0.0018007
0.00106951
0.000678858
0.000513574
0.000439871
0.000362312
0.000182852
0.00797824
0.00796358
0.00792769
0.00753945
0.00665082
0.00534245
0.0039132
0.00262936
0.00163917
0.000994734
0.000653498
0.000512286
0.000444442
0.000365756
0.000184693
0.00797815
0.00796552
0.0079765
0.00781042
0.00726985
0.00626505
0.00495016
0.00359925
0.0024156
0.00151726
0.000935536
0.000635724
0.00051323
0.000449528
0.000369201
0.00018623
0.00797817
0.00796579
0.00798457
0.00793746
0.00764499
0.00699754
0.00591985
0.00462917
0.00334899
0.00224859
0.00141886
0.000889141
0.000623872
0.000516067
0.000454824
0.000372207
0.000187437
0.0079782
0.00796582
0.00798412
0.00797839
0.007855
0.00749955
0.00673267
0.00562486
0.0043649
0.00314746
0.00211034
0.00133661
0.000853785
0.000616668
0.000520281
0.000459836
0.000374658
0.000188731
0.0079782
0.00796586
0.00798301
0.00798939
0.00793706
0.00777195
0.00733226
0.0064924
0.00537272
0.00414585
0.00297792
0.00199427
0.00127164
0.000826556
0.000613334
0.000525196
0.000464009
0.000377278
0.000189687
0.0079782
0.00796591
0.00798243
0.00799183
0.00796593
0.00789902
0.00770104
0.00716148
0.00627721
0.00515688
0.00395787
0.00283316
0.00189807
0.0012177
0.000806417
0.000613053
0.000529579
0.000468239
0.000379227
0.00019086
0.0079782
0.00796596
0.00798223
0.00799215
0.0079754
0.00794677
0.00786661
0.00760508
0.00700049
0.00608567
0.00496726
0.00379454
0.00271048
0.00181727
0.00117369
0.000793043
0.000613809
0.000534301
0.000471591
0.000381518
0.000191669
0.0079782
0.00796602
0.00798219
0.00799211
0.00797827
0.00796362
0.00793591
0.00782524
0.00750399
0.00684995
0.00591296
0.0047996
0.00365393
0.00260643
0.00175049
0.00114128
0.000783881
0.000616098
0.000538199
0.000475314
0.000383021
0.000192767
0.0079782
0.00796608
0.00798222
0.00799211
0.00797914
0.00796912
0.00796301
0.00792243
0.00777197
0.00740281
0.00671
0.00575781
0.00465325
0.00353333
0.00251953
0.00169751
0.00111735
0.000778531
0.000618222
0.000542397
0.000477662
0.00038488
0.000193489
0.0079782
0.00796613
0.00798226
0.00799218
0.00797944
0.00797081
0.00797271
0.00796312
0.00790008
0.0077142
0.00730396
0.00658306
0.0056205
0.00452617
0.00343173
0.002449
0.00165721
0.00110008
0.000774769
0.000621686
0.000546048
0.000480419
0.000386063
0.000194614
0.0079782
0.00796617
0.00798229
0.0079923
0.0079796
0.00797134
0.00797588
0.00797854
0.00795773
0.00787116
0.00765343
0.00721422
0.00646937
0.0054997
0.00441836
0.00334865
0.00239458
0.0016267
0.00108725
0.000774363
0.000624402
0.000549119
0.000482653
0.000387898
0.000195311
0.00797821
0.00796621
0.00798232
0.00799244
0.00797971
0.00797154
0.00797681
0.00798377
0.00798168
0.00794646
0.00783667
0.00759348
0.00713413
0.00636798
0.0053964
0.00432986
0.0032841
0.0023533
0.00160443
0.00108035
0.000773726
0.000628005
0.000552058
0.00048488
0.000388925
0.000196416
0.00797821
0.00796625
0.00798236
0.00799258
0.00797981
0.00797167
0.00797702
0.00798534
0.00799068
0.00798022
0.00792922
0.00780253
0.00754158
0.00706201
0.00628001
0.00531101
0.00426054
0.00323472
0.00232314
0.00159089
0.00107542
0.000776345
0.000631452
0.000554581
0.000486829
0.000390602
0.000197101
0.00797821
0.00796629
0.0079824
0.00799272
0.00797992
0.00797178
0.00797702
0.00798578
0.0079936
0.00799451
0.00797296
0.00791164
0.00777206
0.00749985
0.00699813
0.0062079
0.00524529
0.00420943
0.00320147
0.00230619
0.00158303
0.00107657
0.00077954
0.000634076
0.000557482
0.00048868
0.000391603
0.000198205
0.00797821
0.00796632
0.00798245
0.00799284
0.00798003
0.00797189
0.00797699
0.00798592
0.00799428
0.00800031
0.00799217
0.00796558
0.00789659
0.00774547
0.007467
0.00695061
0.00615501
0.00519878
0.0041762
0.00318221
0.00229756
0.00158353
0.00107973
0.000782423
0.000637966
0.000560125
0.00049051
0.000393132
0.000198888
0.00797821
0.00796635
0.00798249
0.00799296
0.00798014
0.00797199
0.00797695
0.00798602
0.00799428
0.00800259
0.00799999
0.00799096
0.00795899
0.0078862
0.00773692
0.0074367
0.00691043
0.00611451
0.00516668
0.00415628
0.00317397
0.00229763
0.00158849
0.00108449
0.000787533
0.000642019
0.000562683
0.000491995
0.000393987
0.000199959
0.00797822
0.00796637
0.00798253
0.00799308
0.00798026
0.00797211
0.00797694
0.00798612
0.00799415
0.00800343
0.00800299
0.00800226
0.00798843
0.00796204
0.00788527
0.00772458
0.00741218
0.00688209
0.00608923
0.00515005
0.00415042
0.00317696
0.00230664
0.00159742
0.00109263
0.000793653
0.000646021
0.000565024
0.000493656
0.000395564
0.000200904
0.00797823
0.00796639
0.00798256
0.00799319
0.00798039
0.00797222
0.00797694
0.00798622
0.00799405
0.00800377
0.0080041
0.00800688
0.00800168
0.00800033
0.0079648
0.00788547
0.00771308
0.00739924
0.00687024
0.00608147
0.00515053
0.00415906
0.00319142
0.00232238
0.00161203
0.00110355
0.000800622
0.000650123
0.000567328
0.000494983
0.000396231
0.000201812
0.00797824
0.0079664
0.00798257
0.00799328
0.00798051
0.00797234
0.00797696
0.00798632
0.00799398
0.00800394
0.00800457
0.00800843
0.00800753
0.00801848
0.00800535
0.00797106
0.00788788
0.00771406
0.00740082
0.00687367
0.00609015
0.00516616
0.00418088
0.00321599
0.0023452
0.00163168
0.00111691
0.000808424
0.000654358
0.000569588
0.000496428
0.00039755
0.000202736
0.00797825
0.00796641
0.00798256
0.00799336
0.00798064
0.00797247
0.007977
0.00798642
0.00799397
0.00800406
0.00800484
0.00800881
0.00801001
0.00802653
0.00802509
0.00801506
0.00798319
0.00790013
0.00772772
0.0074166
0.00689355
0.00611515
0.00519717
0.00421551
0.00325063
0.00237524
0.00165582
0.00113254
0.000817067
0.000658845
0.000572076
0.000497948
0.00039884
0.000203698
0.00797827
0.00796642
0.00798253
0.00799343
0.00798075
0.00797259
0.00797705
0.00798652
0.00799399
0.00800417
0.00800505
0.0080088
0.00801112
0.00802991
0.0080343
0.00803674
0.00803255
0.00800385
0.00792378
0.00775474
0.00744813
0.00693004
0.00615703
0.0052431
0.00426294
0.00329493
0.00241158
0.00168421
0.00115053
0.00082693
0.000664071
0.00057467
0.000499344
0.000400086
0.000204663
0.00796642
0.00797833
0.00798247
0.00799348
0.00798085
0.0079727
0.0079771
0.00798661
0.00799404
0.00800425
0.00800525
0.00800871
0.00801171
0.00803141
0.00803814
0.00804707
0.0080574
0.00805948
0.00803558
0.00796032
0.00779683
0.00749609
0.00698407
0.00621524
0.00530409
0.00432237
0.00334807
0.00245513
0.00171764
0.0011708
0.000838707
0.000669881
0.00057729
0.000500588
0.00040134
0.000205643
0.0079824
0.00796642
0.00797841
0.00799354
0.00798094
0.00797282
0.00797716
0.0079867
0.00799411
0.0080043
0.00800546
0.00800861
0.00801212
0.00803222
0.00803966
0.00805164
0.00806977
0.00808844
0.00809697
0.0080797
0.00801152
0.00785541
0.00756197
0.00705565
0.00629068
0.00537934
0.00439336
0.00341019
0.00250455
0.00175378
0.00119595
0.000852678
0.000676038
0.000579689
0.000501859
0.000402513
0.000206587
0.00799359
0.0079822
0.00796642
0.00797851
0.00798101
0.00797292
0.00797721
0.00798677
0.00799419
0.00800433
0.00800569
0.00800854
0.00801246
0.00803275
0.00804028
0.00805366
0.00807575
0.00810336
0.00812987
0.00814679
0.0081384
0.00807882
0.00793192
0.00764701
0.00714621
0.00638278
0.00546865
0.00447559
0.00348039
0.00255931
0.00179733
0.00122683
0.000867791
0.000682178
0.000582192
0.000503017
0.000403673
0.000207547
0.00798106
0.00799368
0.00798186
0.00796643
0.00797862
0.00797302
0.00797726
0.00798683
0.00799428
0.00800433
0.00800594
0.0080085
0.00801279
0.00803314
0.00804055
0.00805464
0.00807882
0.00811103
0.00814741
0.00818361
0.00821129
0.00821296
0.00816432
0.00802772
0.00775208
0.00725493
0.0064917
0.00557163
0.00456818
0.00355846
0.00262602
0.00185013
0.00125982
0.000884117
0.000688693
0.000584605
0.000504208
0.000404782
0.000208452
0.00797309
0.00798122
0.0079938
0.00798147
0.00796644
0.00797873
0.00797729
0.00798687
0.00799437
0.00800431
0.00800618
0.00800848
0.00801311
0.00803343
0.00804076
0.00805519
0.00808062
0.00811533
0.00815709
0.00820448
0.00825283
0.0082914
0.00830562
0.00826921
0.00814439
0.0078766
0.00738268
0.00661721
0.00568809
0.00467145
0.00365286
0.00270771
0.0019052
0.00129522
0.000901261
0.000695384
0.000587008
0.000505271
0.000405875
0.000209371
0.00797729
0.00797322
0.00798147
0.00799391
0.00798105
0.00796645
0.00797886
0.0079869
0.00799444
0.00800427
0.00800643
0.0080085
0.00801343
0.00803368
0.008041
0.00805559
0.00808183
0.00811809
0.0081628
0.0082164
0.00827781
0.00833921
0.00839203
0.00841865
0.0083948
0.00828097
0.0080214
0.00752828
0.00675821
0.00581845
0.00479625
0.00376799
0.00279551
0.00196495
0.00133247
0.000919203
0.000701898
0.000589365
0.000506355
0.0004069
0.00021022
0.00798691
0.00797718
0.00797343
0.00798171
0.00799401
0.00798063
0.00796645
0.00797899
0.0079945
0.00800421
0.00800666
0.00800854
0.00801374
0.00803392
0.00804124
0.00805592
0.00808277
0.00812013
0.00816671
0.00822387
0.00829293
0.00836885
0.00844668
0.00851491
0.00855729
0.00854373
0.00843767
0.00818417
0.00769142
0.00691425
0.0059763
0.00494981
0.00389265
0.00288899
0.00202808
0.00137138
0.00093759
0.000709035
0.0005918
0.00050742
0.000407922
0.000211087
0.00799453
0.00798675
0.00797696
0.00797366
0.00798195
0.0079941
0.0079802
0.00796646
0.00797912
0.00800413
0.00800686
0.00800861
0.00801404
0.00803415
0.00804147
0.00805624
0.00808356
0.00812178
0.00816975
0.00822928
0.00830305
0.00838809
0.00848263
0.00857762
0.00866421
0.00872097
0.00872018
0.00861807
0.00836458
0.00786972
0.00710234
0.00616883
0.00511522
0.00402527
0.00298749
0.00209296
0.00141209
0.000956846
0.000715997
0.00059408
0.000508462
0.000408874
0.000211875
0.00800403
0.00799436
0.00798644
0.00797672
0.00797392
0.00798218
0.00799418
0.00797978
0.00796647
0.00797926
0.00800704
0.00800869
0.00801431
0.00803437
0.0080417
0.00805656
0.00808429
0.00812318
0.00817228
0.00823367
0.00831074
0.00840181
0.00850778
0.00862162
0.00873751
0.00884076
0.00891336
0.00892221
0.0088245
0.00856497
0.00808361
0.00732926
0.00637398
0.0052901
0.0041646
0.00309015
0.00215974
0.00145232
0.000976768
0.000722837
0.000596634
0.000509443
0.000409826
0.000212683
0.00800717
0.00800373
0.00799399
0.0079861
0.00797648
0.00797421
0.00798242
0.00799425
0.00797936
0.0079665
0.0079794
0.00800877
0.00801455
0.00803456
0.00804192
0.00805689
0.008085
0.00812443
0.00817449
0.00823745
0.00831713
0.00841274
0.00852687
0.00865457
0.00879254
0.00892743
0.00904962
0.00913431
0.00915155
0.00905584
0.00881244
0.00833831
0.00756694
0.00658876
0.00547286
0.00430941
0.00319586
0.00222858
0.00149311
0.000996896
0.000729803
0.000599041
0.000510429
0.000410703
0.000213408
0.00800885
0.00800724
0.00800316
0.00799359
0.00798575
0.00797626
0.00797455
0.00798265
0.00799432
0.00797894
0.00796653
0.00797954
0.00801475
0.00803473
0.00804214
0.00805722
0.00808569
0.00812558
0.00817645
0.00824082
0.00832271
0.00842214
0.00854272
0.00868101
0.00883671
0.00899664
0.00915389
0.00929083
0.0093871
0.00940853
0.00933835
0.00911967
0.00861881
0.00781463
0.00681041
0.00566026
0.0044577
0.00330383
0.0022991
0.00153319
0.00101707
0.000736706
0.000601339
0.000511338
0.000411576
0.000214151
0.00801493
0.00800881
0.00800719
0.00800255
0.00799318
0.00798541
0.00797605
0.00797492
0.00798287
0.00799438
0.00797852
0.00796657
0.00797968
0.00803485
0.00804231
0.00805754
0.00808638
0.00812665
0.00817822
0.00824387
0.00832771
0.00843053
0.00855661
0.00870382
0.008874
0.00905532
0.00924234
0.00941735
0.00956924
0.00967214
0.00972501
0.00968605
0.00945169
0.00892057
0.00807019
0.0070338
0.00585011
0.00460836
0.00341336
0.00237042
0.00157327
0.00103724
0.000743738
0.000603543
0.000512244
0.000412376
0.000214812
0.00803494
0.00801462
0.00800864
0.00800708
0.00800191
0.00799276
0.00798506
0.00797586
0.00797533
0.00798308
0.00799443
0.00797811
0.00796662
0.00797983
0.00804246
0.00805785
0.00808705
0.00812765
0.00817985
0.00824666
0.00833225
0.00843816
0.00856913
0.00872435
0.00890712
0.00910676
0.00932158
0.0095307
0.0097244
0.0098856
0.0100262
0.0101178
0.0100654
0.00980557
0.00923973
0.00833941
0.00725978
0.00604127
0.0047599
0.00352353
0.00244206
0.00161357
0.00105733
0.000750816
0.00060568
0.000513075
0.000413166
0.000215488
0.00804259
0.0080344
0.00801374
0.00800855
0.00800689
0.00800126
0.00799233
0.00798472
0.0079757
0.00797577
0.00798326
0.00799449
0.00797771
0.00796666
0.00797996
0.00805814
0.00808766
0.00812857
0.00818134
0.00824921
0.00833642
0.00844516
0.00858056
0.00874321
0.00893734
0.00915362
0.00939389
0.00963662
0.00986992
0.0100767
0.0102832
0.0104709
0.0105507
0.0104735
0.0101789
0.00956999
0.0086183
0.00748583
0.00623113
0.00491075
0.00363357
0.00251366
0.00165347
0.00107724
0.000757889
0.000607729
0.0005139
0.000413893
0.000216086
0.00805848
0.00804209
0.00803309
0.00801292
0.00800851
0.00800663
0.00800061
0.00799191
0.00798438
0.00797557
0.00797624
0.00798342
0.00799455
0.00797732
0.00796671
0.00798009
0.00808823
0.00812939
0.0081827
0.00825155
0.00834026
0.0084516
0.0085911
0.00876065
0.00896524
0.0091973
0.0094615
0.00973546
0.0100108
0.0102649
0.0105264
0.0107895
0.0109675
0.0110227
0.0109093
0.0105701
0.00990958
0.0089046
0.00771432
0.00641826
0.00505995
0.00374271
0.00258479
0.00169276
0.00109689
0.000764899
0.000609726
0.000514656
0.000414597
0.000216697
0.00808882
0.00805768
0.00804082
0.00803165
0.00801217
0.00800853
0.0080063
0.00799998
0.00799147
0.00798402
0.00797548
0.00797673
0.00798354
0.00799461
0.00797695
0.00796677
0.00798022
0.00813013
0.00818389
0.00825366
0.00834377
0.00845753
0.00860082
0.00877683
0.00899113
0.00923836
0.00952526
0.00982886
0.0101465
0.0104559
0.010777
0.0111067
0.0113649
0.0115206
0.0115378
0.0113746
0.0109791
0.0102576
0.00919477
0.00794648
0.00660271
0.00520678
0.00385043
0.00265507
0.00173148
0.00111622
0.000771811
0.000611651
0.000515409
0.000415259
0.000217234
0.00813092
0.00808735
0.00805554
0.00803988
0.00803003
0.00801152
0.00800858
0.00800589
0.00799937
0.00799103
0.00798366
0.00797542
0.00797725
0.00798362
0.00799468
0.00797661
0.00796682
0.00798034
0.00818495
0.00825553
0.00834696
0.00846296
0.00860977
0.0087918
0.00901519
0.00927701
0.00958536
0.00991798
0.0102792
0.0106464
0.0110372
0.0114467
0.0117851
0.0120301
0.0121474
0.0121064
0.0118742
0.011407
0.0106138
0.00948655
0.0081803
0.00678457
0.00535084
0.00395633
0.00272421
0.00176951
0.0011352
0.000778605
0.000613533
0.000516098
0.000415879
0.00021778
0.00818609
0.00812887
0.00808346
0.00805357
0.00803911
0.00802826
0.00801099
0.00800865
0.0080054
0.00799878
0.00799059
0.00798329
0.00797541
0.00797776
0.00798366
0.00799475
0.00797628
0.00796688
0.00798044
0.00825722
0.0083498
0.00846787
0.00861797
0.00880561
0.00903751
0.00931328
0.00964189
0.0100035
0.0104096
0.0108348
0.0112963
0.011817
0.0122744
0.01262
0.0128271
0.0128716
0.0127394
0.0124121
0.0118548
0.0109778
0.00977946
0.00841429
0.00696333
0.00549186
0.00405983
0.00279193
0.00180676
0.00115372
0.000785245
0.000615334
0.000516787
0.000416488
0.000218261
0.00825895
0.00818309
0.00812368
0.00807973
0.00805173
0.00803845
0.00802639
0.00801059
0.0080087
0.00800486
0.0079982
0.00799014
0.00798292
0.00797545
0.00797825
0.00798367
0.00799481
0.00797597
0.00796695
0.00798054
0.00835235
0.00847225
0.00862542
0.00881824
0.00905815
0.00934712
0.00969495
0.0100857
0.0105368
0.0110184
0.0115548
0.0122209
0.0128709
0.013376
0.0136791
0.0137869
0.0137042
0.0134397
0.0129883
0.012322
0.0113489
0.0100729
0.00864739
0.00713862
0.00562848
0.00416057
0.002858
0.00184313
0.00117177
0.000791687
0.000617097
0.000517411
0.000417035
0.000218672
0.00835493
0.00825485
0.00817545
0.00811869
0.00807607
0.00804998
0.00803787
0.00802446
0.00801031
0.00800868
0.00800426
0.00799764
0.00798969
0.00798256
0.00797553
0.00797871
0.00798366
0.00799488
0.00797567
0.00796702
0.00798062
0.00847619
0.00863209
0.00882972
0.0090771
0.0093785
0.00974462
0.0101643
0.0106591
0.0111958
0.0118204
0.0126781
0.0135866
0.0143469
0.0148026
0.014962
0.0148926
0.0146287
0.0141955
0.0135963
0.012805
0.0117254
0.0103662
0.00887859
0.00731278
0.00576097
0.00425831
0.00292225
0.00187853
0.0011894
0.000798031
0.000618789
0.000518046
0.000417504
0.000219016
0.00848005
0.00834934
0.00824419
0.0081681
0.00811376
0.00807248
0.00804833
0.00803733
0.00802251
0.00801016
0.00800858
0.00800363
0.00799708
0.00798925
0.00798222
0.00797565
0.00797914
0.00798362
0.00799494
0.00797539
0.00796709
0.0079807
0.00863811
0.00884004
0.00909437
0.0094074
0.00979088
0.0102387
0.0107751
0.011368
0.0121022
0.013198
0.0144103
0.0154709
0.016175
0.0164451
0.016374
0.0160769
0.0156027
0.014983
0.0142233
0.0132978
0.0121049
0.0106581
0.00910601
0.00748477
0.00588946
0.00435293
0.00298454
0.00191286
0.00120624
0.000804242
0.000620451
0.000518527
0.000417904
0.000219417
0.00864392
0.00847285
0.0083346
0.00823386
0.00816089
0.00810889
0.00806901
0.00804673
0.00803681
0.00802058
0.00801013
0.00800835
0.00800301
0.00799654
0.00798884
0.0079819
0.00797579
0.00797954
0.00798356
0.00799498
0.00797514
0.00796716
0.00798077
0.00884938
0.00911001
0.00943386
0.00983372
0.0103086
0.0108843
0.0115372
0.0124045
0.0137689
0.0152924
0.0166412
0.0175999
0.0180859
0.0181013
0.0177789
0.0172532
0.0165737
0.015772
0.0148536
0.0137928
0.012484
0.0109474
0.00932918
0.00765376
0.00601397
0.00444434
0.00304476
0.00194622
0.00122235
0.000810289
0.000621827
0.000518976
0.000418295
0.000219831
0.00885818
0.0086345
0.00845256
0.00832024
0.0082237
0.00815377
0.00810407
0.00806574
0.00804518
0.00803622
0.00801878
0.00801019
0.00800798
0.00800242
0.00799601
0.00798845
0.0079816
0.00797596
0.00797989
0.0079835
0.00799501
0.0079749
0.00796723
0.00798082
0.00912424
0.00945794
0.00987314
0.0103734
0.0109868
0.0117053
0.0127247
0.0143636
0.0161662
0.0177466
0.018906
0.0195954
0.0198179
0.0195983
0.0190638
0.018348
0.0174954
0.0165345
0.0154712
0.0142817
0.0128592
0.0112325
0.00954757
0.00781913
0.00613448
0.00453245
0.00310284
0.00197855
0.00123773
0.00081536
0.000623034
0.000519428
0.00041878
0.000220318
0.00913742
0.00884595
0.00860665
0.00843275
0.00830613
0.00821367
0.00814677
0.00809922
0.00806263
0.00804368
0.00803534
0.00801716
0.00801031
0.00800749
0.00800188
0.00799549
0.00798809
0.00798132
0.00797614
0.0079802
0.00798344
0.00799502
0.00797467
0.00796727
0.00798084
0.00947991
0.0099092
0.0104333
0.0110831
0.0118727
0.0130546
0.0149507
0.0169752
0.0187091
0.0199915
0.0208207
0.0212299
0.0212355
0.0208477
0.0201667
0.0193171
0.0183361
0.0172492
0.0160629
0.014757
0.0132269
0.0115118
0.00976063
0.00798033
0.00625092
0.00461726
0.00315876
0.00200975
0.00125044
0.000819741
0.000624351
0.000520001
0.000419233
0.000220805
0.00949993
0.00912183
0.00880801
0.00857934
0.00841331
0.00829221
0.00820378
0.00813989
0.00809439
0.00805968
0.00804228
0.00803422
0.00801574
0.00801044
0.00800693
0.00800139
0.00799499
0.00798775
0.00798106
0.00797632
0.00798047
0.00798339
0.00799502
0.00797454
0.00796728
0.00798085
0.00994221
0.0104882
0.0111739
0.0120388
0.0133838
0.0155042
0.0176849
0.0194952
0.020824
0.0217209
0.0222529
0.0224528
0.022317
0.0218328
0.0210708
0.0201431
0.0190799
0.0179028
0.016619
0.0152129
0.0135839
0.011784
0.00996782
0.00813695
0.00636326
0.00469876
0.00321245
0.00203583
0.00126136
0.000824605
0.000625868
0.000520557
0.000419797
0.000221392
0.00997195
0.00947986
0.00907052
0.00877058
0.00855258
0.00839416
0.00827846
0.00819402
0.00813311
0.00808961
0.00805694
0.00804091
0.00803283
0.0080146
0.00801052
0.00800632
0.00800094
0.0079945
0.00798744
0.00798082
0.00797649
0.0079807
0.00798338
0.00799505
0.00797449
0.00796729
0.00798085
0.0105388
0.0112597
0.012202
0.0137022
0.0160073
0.0182827
0.0201048
0.0214179
0.0223201
0.0229103
0.0232396
0.0233119
0.0231015
0.0225783
0.0217873
0.0208282
0.0197235
0.0184897
0.017134
0.0156451
0.0139278
0.0120478
0.0101687
0.00828866
0.00647147
0.00477693
0.00325716
0.00205825
0.00127344
0.000830051
0.000627521
0.00052128
0.000420307
0.000221955
0.0105842
0.00994669
0.00941113
0.00901966
0.00873387
0.00852624
0.00837526
0.0082649
0.00818442
0.00812645
0.00808491
0.00805439
0.00803972
0.00803118
0.00801375
0.00801051
0.00800572
0.00800052
0.00799403
0.00798714
0.00798058
0.00797665
0.0079809
0.00798331
0.00799509
0.00797446
0.00796729
0.00798084
0.0113411
0.0123607
0.0140023
0.0164516
0.0187706
0.0205569
0.0218102
0.0226712
0.0232666
0.0236645
0.0238784
0.0238861
0.0236478
0.0231243
0.0223412
0.0213857
0.0202717
0.01901
0.0176058
0.0160513
0.014257
0.0123026
0.0103629
0.0084353
0.00657553
0.00484203
0.00329549
0.00208314
0.00128682
0.00083611
0.000629451
0.000521961
0.000420964
0.000222662
0.0114154
0.0105528
0.0098545
0.00934257
0.00896972
0.00869775
0.00850031
0.00835661
0.00825153
0.00817497
0.00811993
0.00808028
0.00805194
0.00803883
0.00802938
0.00801317
0.00801039
0.00800514
0.00800012
0.00799357
0.00798685
0.00798037
0.00797679
0.00798104
0.0079832
0.00799512
0.00797446
0.00796728
0.00798082
0.0125131
0.0142793
0.0168362
0.0191595
0.0208779
0.0220432
0.0228322
0.0233938
0.0238114
0.0241085
0.0242676
0.0242503
0.0240123
0.0235122
0.0227608
0.0218331
0.0207342
0.0194675
0.0180352
0.016431
0.0145709
0.0125479
0.0105504
0.00857693
0.00666263
0.00489784
0.00333791
0.00211081
0.00130167
0.000842934
0.000631549
0.000522875
0.000421553
0.000223306
0.0126507
0.0113765
0.0104269
0.00976266
0.00927505
0.00892057
0.0086622
0.00847477
0.00833824
0.00823836
0.00816569
0.00811361
0.00807568
0.00804969
0.00803814
0.00802747
0.00801283
0.00801016
0.0080046
0.00799974
0.00799313
0.00798658
0.00798016
0.0079769
0.00798108
0.00798316
0.00799511
0.00797449
0.00796727
0.00798077
0.0145308
0.0171646
0.0194641
0.0210949
0.0221564
0.0228548
0.0233562
0.0237565
0.0240897
0.0243446
0.0244842
0.0244641
0.024242
0.0237784
0.023073
0.022189
0.0211224
0.0198686
0.0184249
0.0167852
0.0148697
0.0127841
0.0107319
0.0086961
0.00673762
0.00495947
0.00338494
0.00214165
0.00131823
0.000850543
0.000634025
0.000523719
0.000422333
0.000224158
0.0126115
0.0147465
0.0111903
0.0103039
0.00967192
0.00920853
0.00887216
0.00862723
0.00844964
0.00832014
0.00822541
0.0081566
0.00810762
0.00807124
0.00804771
0.00803759
0.00802553
0.00801268
0.00800983
0.00800411
0.00799936
0.00799271
0.00798629
0.00798006
0.00797695
0.00798111
0.00798316
0.00799509
0.00797453
0.00796722
0.0079807
0.0174426
0.0196997
0.0212323
0.022183
0.0227812
0.0232055
0.0235619
0.0238941
0.0241994
0.0244443
0.0245826
0.0245707
0.0243724
0.0239524
0.0233012
0.0224709
0.0214484
0.0202208
0.0187793
0.0171162
0.0151548
0.0130124
0.010885
0.00879877
0.00682119
0.00502766
0.0034372
0.0021761
0.00133674
0.000859176
0.000636728
0.000524882
0.000423045
0.000224894
0.0123296
0.0147011
0.0176707
0.0110122
0.0101837
0.00958219
0.00914304
0.00882449
0.00859287
0.00842495
0.00830236
0.00821271
0.00814781
0.00810203
0.00806709
0.00804597
0.00803713
0.00802365
0.00801266
0.00800944
0.00800367
0.007999
0.00799228
0.00798615
0.00798004
0.00797698
0.00798111
0.0079832
0.00799505
0.00797467
0.00796716
0.00798062
0.0198805
0.0213111
0.0221496
0.0226441
0.0229816
0.023275
0.0235772
0.0238954
0.024203
0.0244536
0.0245986
0.0246001
0.0244301
0.0240573
0.0234648
0.0226941
0.0217236
0.0205319
0.0191033
0.0174269
0.015428
0.0132046
0.0110168
0.00891241
0.0069144
0.0051033
0.00349539
0.0022147
0.00135754
0.000868851
0.000639935
0.000525953
0.000423987
0.000225924
0.0120488
0.0143203
0.0176077
0.0200091
0.0108435
0.0100649
0.0094936
0.00907859
0.00877765
0.00855916
0.00840072
0.00828492
0.00820039
0.00813956
0.00809686
0.00806332
0.00804445
0.00803664
0.00802195
0.0080127
0.00800899
0.00800327
0.00799858
0.00799203
0.00798612
0.00798003
0.00797698
0.00798108
0.00798331
0.00799502
0.0079749
0.00796709
0.00798054
0.021348
0.0220769
0.0224678
0.0227136
0.0229314
0.0231814
0.023481
0.0238138
0.0241379
0.0244003
0.0245553
0.0245732
0.0244342
0.0241111
0.0235796
0.022872
0.0219586
0.0208097
0.0194022
0.0177207
0.015656
0.0133691
0.0111623
0.00903822
0.00701847
0.00518743
0.00356037
0.00225809
0.00138095
0.00087991
0.000643478
0.000527451
0.000424899
0.000226771
0.0117826
0.013899
0.0172757
0.019899
0.0213474
0.0106814
0.00994714
0.00940636
0.00901528
0.00873171
0.00852618
0.008377
0.00826799
0.00818878
0.00813199
0.00809204
0.00806006
0.00804312
0.00803594
0.00802045
0.00801275
0.00800852
0.00800281
0.00799835
0.00799196
0.00798611
0.00798003
0.00797695
0.00798103
0.00798338
0.00799502
0.00797514
0.00796702
0.00798044
0.0219801
0.0222708
0.0224232
0.0225574
0.0227387
0.0229935
0.023318
0.0236795
0.0240255
0.0243012
0.0244674
0.0245042
0.024399
0.0241272
0.0236582
0.0230157
0.0221627
0.0210613
0.0196804
0.0179621
0.015849
0.013549
0.0113225
0.00917755
0.00713481
0.00528131
0.00363317
0.00230701
0.00140752
0.000892427
0.000647694
0.000528862
0.000426056
0.000228019
0.0115321
0.013473
0.0168498
0.0197
0.021179
0.0218603
0.0105236
0.00983067
0.0093207
0.00895322
0.0086868
0.00849398
0.00835399
0.00825203
0.00817808
0.00812504
0.00808743
0.00805725
0.00804197
0.00803509
0.00801915
0.00801279
0.00800789
0.00800255
0.00799829
0.00799192
0.00798611
0.00798004
0.0079769
0.0079809
0.00798339
0.00799501
0.0079754
0.00796694
0.00798033
0.0220656
0.0221261
0.0221722
0.0222732
0.0224624
0.0227487
0.0231127
0.0235088
0.0238773
0.0241659
0.0243448
0.0244033
0.0243348
0.0241162
0.0237108
0.0231344
0.0223435
0.0212919
0.0199052
0.0181634
0.0160568
0.013745
0.011499
0.00933204
0.00726514
0.00538647
0.00371502
0.00236243
0.00143772
0.000906823
0.000652426
0.000530815
0.000427278
0.000229025
0.0112952
0.0130579
0.0163648
0.0194061
0.0210805
0.0216294
0.0218462
0.0103692
0.00971582
0.00923685
0.00889257
0.00864305
0.00846284
0.00833233
0.00823731
0.00816825
0.00811865
0.00808311
0.00805486
0.00804094
0.0080341
0.00801803
0.0080126
0.00800749
0.00800252
0.00799825
0.00799192
0.00798612
0.00798006
0.00797679
0.00798069
0.00798344
0.00799498
0.00797568
0.00796688
0.00798021
0.0218328
0.02179
0.0218031
0.0219108
0.0221337
0.0224672
0.0228785
0.0233101
0.0236992
0.0240003
0.0241938
0.024278
0.0242497
0.0240863
0.0237453
0.0232355
0.0225065
0.021475
0.0200901
0.0183762
0.0162796
0.0139582
0.0116932
0.00950362
0.00741144
0.00550471
0.00380744
0.00242543
0.00147236
0.000923388
0.000658049
0.000532743
0.000428728
0.000230533
0.0110698
0.0126609
0.0158374
0.0190488
0.0209039
0.0215712
0.0215534
0.0215287
0.0102179
0.00960297
0.00915507
0.00883347
0.00860086
0.00843362
0.00831237
0.00822376
0.00815922
0.00811279
0.00807911
0.00805279
0.00804008
0.00803295
0.00801677
0.00801268
0.0080074
0.00800247
0.00799825
0.00799196
0.00798615
0.00798016
0.00797664
0.00798046
0.0079835
0.00799493
0.00797598
0.00796682
0.00798009
0.0214201
0.0213422
0.0213571
0.0214963
0.0217695
0.0221608
0.022622
0.023087
0.0234941
0.0238077
0.0240196
0.0241339
0.0241495
0.0240436
0.0237677
0.0233237
0.0226332
0.0216237
0.0202818
0.0185998
0.0165176
0.0141898
0.0119071
0.00969451
0.00757603
0.00563817
0.00391224
0.00249749
0.00151224
0.000942513
0.000664538
0.00053541
0.000430416
0.000232079
0.0108547
0.012285
0.0152832
0.0186422
0.0206816
0.0214504
0.0214896
0.0211758
0.0210388
0.0100699
0.00949261
0.00907563
0.00877653
0.0085614
0.00840676
0.008294
0.00821131
0.00815095
0.00810741
0.00807542
0.00805097
0.00803947
0.00803125
0.00801617
0.00801304
0.00800729
0.00800247
0.00799829
0.00799203
0.00798629
0.00798037
0.00797648
0.00798019
0.00798356
0.00799488
0.00797629
0.00796677
0.00797996
0.0208994
0.0208156
0.0208561
0.0210437
0.0213816
0.0218359
0.022346
0.02284
0.0232625
0.0235908
0.0238259
0.0239756
0.0240391
0.0239928
0.0237822
0.0233893
0.0227348
0.0217745
0.0204791
0.0188336
0.0167713
0.014441
0.0121426
0.00990719
0.00776156
0.00578939
0.00403168
0.00258024
0.00155857
0.000964858
0.000672399
0.000537886
0.000432574
0.000234456
0.0106499
0.0119296
0.0147122
0.0181862
0.0204265
0.0213036
0.0213724
0.0210802
0.0206266
0.0204447
0.00992509
0.00938526
0.00899931
0.00872333
0.00852526
0.00838208
0.00827713
0.00819989
0.00814336
0.00810247
0.00807194
0.0080493
0.00803872
0.00803053
0.0080163
0.00801309
0.00800729
0.00800251
0.00799834
0.00799229
0.00798658
0.00798059
0.00797631
0.00797988
0.00798362
0.00799481
0.00797662
0.00796671
0.00797982
0.0202957
0.0202292
0.0203113
0.0205664
0.0209765
0.0214954
0.0220501
0.0225672
0.0230046
0.0233518
0.0236163
0.0238067
0.023922
0.0239371
0.0237875
0.0234408
0.022835
0.0219263
0.0206809
0.019077
0.0170407
0.0147132
0.0124019
0.0101443
0.00797101
0.00596136
0.0041684
0.00267604
0.00161277
0.000991662
0.000681659
0.000542199
0.000435149
0.00023628
0.0104553
0.0115934
0.0141339
0.0176771
0.0201401