/*--------------------------------*- C++ -*----------------------------------*\
  =========                 |
  \\      /  F ield         | OpenFOAM: The Open Source CFD Toolbox
   \\    /   O peration     | Website:  https://openfoam.org
    \\  /    A nd           | Version:  8
     \\/     M anipulation  |
\*---------------------------------------------------------------------------*/
FoamFile
{
    version     2.0;
    format      ascii;
    class       volScalarField;
    location    "0.04";
    object      epsilon;
}
// * * * * * * * * * * * * * * * * * * * * * * * * * * * * * * * * * * * * * //

dimensions      [0 2 -3 0 0 0 0];

internalField   nonuniform List<scalar> 
15677
(
84.8211
23.0219
73.079
9.20887
39.112
75.4967
4.95592
18.1601
61.0736
82.0316
3.28805
9.61032
28.1535
82.4103
90.3685
2.52974
5.85196
14.0488
40.0943
103.111
98.759
2.16204
4.00719
8.04606
19.3143
53.1405
119.69
106.177
1.99029
3.02
5.21275
10.4285
25.4504
65.8486
131.087
111.868
1.91839
2.46055
3.72852
6.40311
13.1757
32.1886
76.795
138.2
115.944
1.89
2.143
2.89286
4.3821
7.72919
16.2907
38.9596
85.3895
142.553
118.835
1.87758
1.97643
2.40497
3.27404
5.08818
9.21949
19.6424
45.1362
91.8521
145.197
121.105
1.8725
1.90227
2.12112
2.6306
3.67929
5.86921
10.8277
22.9316
50.4433
96.6944
146.805
123.049
1.87224
1.87376
1.96302
2.24821
2.87144
4.12399
6.69722
12.4299
25.9629
54.8964
100.379
147.804
124.667
1.87265
1.86368
1.88503
2.02453
2.38857
3.13849
4.58857
7.50871
13.928
28.6601
58.6566
103.259
148.291
126.155
1.87279
1.86134
1.85207
1.90167
2.09795
2.55085
3.41579
5.03219
8.25534
15.2695
31.0686
61.9153
105.412
148.471
127.515
1.87281
1.86098
1.84161
1.84018
1.92939
2.19219
2.72136
3.67494
5.4301
8.91112
16.4764
33.2928
64.6631
107.006
148.443
128.683
1.87281
1.86099
1.84004
1.81297
1.84162
1.97614
2.29606
2.87869
3.90145
5.77079
9.48794
17.6173
35.3086
66.9607
108.16
148.335
129.58
1.87281
1.86104
1.84027
1.80444
1.79648
1.8534
2.03536
2.39191
3.01296
4.09083
6.06293
10.0293
18.6872
37.1249
68.8353
108.959
148.075
130.511
1.87281
1.86109
1.84063
1.80217
1.77969
1.7944
1.88096
2.0913
2.47196
3.12316
4.25084
6.33381
10.5413
19.6872
38.7243
70.3142
109.379
147.86
131.195
1.87281
1.86114
1.84087
1.80168
1.77389
1.76837
1.79878
1.91024
2.13689
2.53661
3.2158
4.39858
6.58932
11.0218
20.615
40.0852
71.3556
109.637
147.576
132.002
1.87281
1.86118
1.84102
1.80165
1.77195
1.75889
1.76496
1.80868
1.9326
2.17295
2.59091
3.30178
4.53801
6.82841
11.4752
21.4442
41.1435
72.1145
109.645
147.419
132.532
1.87282
1.86122
1.84114
1.80171
1.77132
1.75553
1.75136
1.76321
1.81473
1.94934
2.20309
2.64209
3.38395
4.66903
7.05383
11.8907
22.1235
41.9609
72.5628
109.596
147.209
133.268
1.87282
1.86126
1.84124
1.80178
1.77109
1.75438
1.74613
1.74423
1.75904
1.81771
1.96301
2.23233
2.69242
3.46238
4.79243
7.26026
12.2388
22.6644
42.5383
72.8456
109.419
147.145
133.753
1.87282
1.86129
1.84133
1.80185
1.77097
1.75395
1.74424
1.7365
1.73413
1.75286
1.81968
1.97705
2.26267
2.7418
3.53652
4.90409
7.43348
12.5191
23.0717
42.9197
72.8445
109.18
147.086
134.528
1.87282
1.86131
1.84141
1.80192
1.77091
1.75375
1.74358
1.73359
1.72336
1.72264
1.74686
1.82285
1.9935
2.29385
2.78912
3.60322
4.9974
7.57247
12.7339
23.3411
43.1228
72.7601
108.846
147.143
135.016
1.87282
1.86133
1.84148
1.80198
1.77088
1.75363
1.74334
1.73257
1.71897
1.70883
1.71194
1.74389
1.8291
2.01204
2.32467
2.83213
3.65919
5.07204
7.67763
12.8756
23.5219
43.1121
72.5474
108.564
147.234
135.795
1.87282
1.86135
1.84154
1.80204
1.77086
1.75355
1.74325
1.73223
1.71732
1.70282
1.69528
1.70436
1.74422
1.83824
2.03163
2.3535
2.86888
3.70409
5.12743
7.74663
12.9734
23.5381
43.0336
72.2414
108.187
147.453
136.289
1.87282
1.86137
1.8416
1.8021
1.77087
1.75349
1.74321
1.73209
1.71675
1.70029
1.6877
1.68502
1.70084
1.74652
1.84958
2.05098
2.37895
2.89901
3.73782
5.16512
7.79236
12.987
23.5055
42.8587
71.8279
107.887
147.65
137.078
1.87282
1.86138
1.84164
1.80216
1.77088
1.75345
1.74319
1.73203
1.71659
1.69922
1.68444
1.67582
1.67885
1.70093
1.75205
1.86219
2.06911
2.40094
2.92314
3.76265
5.18926
7.80206
12.9723
23.4222
42.5684
71.3973
107.505
148.051
137.579
1.87282
1.86139
1.84168
1.80221
1.77089
1.75341
1.74317
1.732
1.71656
1.69876
1.68312
1.67156
1.66837
1.67696
1.70272
1.76034
1.87521
2.08602
2.42017
2.94304
3.78056
5.20104
7.79662
12.9339
23.2624
42.2277
70.8936
107.233
148.333
138.35
1.87281
1.86139
1.84171
1.80226
1.77091
1.75338
1.74317
1.73197
1.71657
1.69855
1.68257
1.66964
1.6636
1.66481
1.6777
1.70729
1.77007
1.88862
2.10235
2.43807
2.96018
3.7939
5.20342
7.78183
12.8597
23.0629
41.8278
70.3959
106.876
148.969
139.035
1.87281
1.8614
1.84175
1.8023
1.77092
1.75336
1.74316
1.73196
1.71659
1.69846
1.68234
1.6688
1.66149
1.65898
1.66512
1.68033
1.71494
1.78127
1.90306
2.11938
2.4559
2.97662
3.80455
5.2028
7.75308
12.7656
22.8294
41.4012
69.8624
106.646
149.12
139.697
1.8728
1.8614
1.84178
1.80235
1.77093
1.75333
1.74316
1.73196
1.7166
1.69841
1.68221
1.66846
1.66052
1.65634
1.65905
1.66704
1.68599
1.72477
1.79461
1.91973
2.13827
2.47549
2.99399
3.81565
5.20048
7.71856
12.6576
22.5781
40.9468
69.3376
106.321
149.523
140.368
1.8728
1.8614
1.84182
1.80239
1.77094
1.75331
1.74315
1.73197
1.71663
1.6984
1.68213
1.66834
1.66007
1.65521
1.65623
1.66066
1.67158
1.69496
1.73747
1.81126
1.93976
2.16067
2.49824
3.01452
3.82882
5.19893
7.68162
12.5444
22.3112
40.4837
68.7545
105.992
150.201
141.063
1.87279
1.8614
1.84186
1.80244
1.77094
1.75328
1.74314
1.73198
1.71666
1.69841
1.68208
1.66829
1.65983
1.65475
1.65496
1.65772
1.6648
1.68
1.7073
1.75423
1.83237
1.96466
2.18784
2.52603
3.03944
3.84627
5.20011
7.64592
12.4255
22.043
39.9641
68.1353
105.713
151.002
141.757
1.8614
1.8728
1.84189
1.80248
1.77094
1.75324
1.74313
1.732
1.71669
1.69844
1.68204
1.66828
1.65969
1.65454
1.65447
1.65644
1.66177
1.67288
1.69217
1.7243
1.7763
1.85941
1.99567
2.2215
2.55985
3.07058
3.86898
5.20447
7.61089
12.3115
21.745
39.4027
67.5411
105.504
151.854
142.455
1.84193
1.86146
1.87282
1.80253
1.77094
1.75321
1.74312
1.73202
1.71673
1.69849
1.68202
1.66829
1.6596
1.65444
1.65431
1.65597
1.66053
1.66977
1.68511
1.70952
1.74728
1.80508
1.89363
2.03437
2.26247
2.60126
3.10839
3.89841
5.21362
7.58355
12.1892
21.4255
38.8654
66.9793
105.348
152.748
143.124
1.80258
1.84213
1.86155
1.87284
1.77094
1.75317
1.7431
1.73205
1.71677
1.69854
1.68201
1.66831
1.65953
1.65438
1.65428
1.65583
1.66012
1.66863
1.68222
1.70293
1.73344
1.77782
1.84205
1.93646
2.08163
2.3121
2.65063
3.1544
3.93449
5.23111
7.55904
12.0639
21.1269
38.3496
66.4572
105.257
153.635
143.8
1.77092
1.80293
1.84252
1.86165
1.87285
1.75314
1.74309
1.73208
1.71682
1.69861
1.68201
1.66834
1.65949
1.65436
1.65431
1.65584
1.66007
1.66839
1.6814
1.70065
1.72786
1.7657
1.81745
1.8888
1.98917
2.13897
2.37086
2.70934
3.20832
3.97882
5.25851
7.54198
11.9568
20.8483
37.8683
65.9797
105.198
154.545
144.433
1.75309
1.77117
1.80362
1.84292
1.86175
1.87287
1.74308
1.73211
1.71687
1.69869
1.68202
1.66838
1.65946
1.65438
1.65435
1.65591
1.66017
1.66852
1.68151
1.70043
1.72662
1.76196
1.80806
1.86805
1.94671
2.05339
2.2069
2.44004
2.77684
3.27115
4.03702
5.29983
7.5429
11.8649
20.596
37.4213
65.5456
105.199
155.425
145.073
1.74305
1.75321
1.77168
1.80433
1.84333
1.86185
1.87288
1.73215
1.71694
1.69878
1.68204
1.66842
1.65945
1.65441
1.6544
1.65601
1.66034
1.66881
1.682
1.70123
1.72745
1.76224
1.80667
1.86246
1.93139
2.01778
2.12996
2.28713
2.51962
2.85411
3.35069
4.11353
5.35332
7.55046
11.7887
20.3673
37.0086
65.1558
105.217
156.321
145.662
1.73217
1.74317
1.7535
1.7722
1.80509
1.84376
1.86195
1.87289
1.71701
1.69888
1.68207
1.66847
1.65944
1.65445
1.65446
1.65613
1.66055
1.66916
1.68264
1.70239
1.72935
1.76485
1.80948
1.86443
1.9302
2.00902
2.10338
2.22117
2.37958
2.61101
2.95068
3.45096
4.20125
5.41711
7.56791
11.7273
20.1616
36.6327
64.8066
105.263
157.166
146.261
1.71706
1.73244
1.74344
1.75377
1.77275
1.80588
1.84419
1.86205
1.87291
1.699
1.68212
1.66852
1.65945
1.65449
1.65453
1.65625
1.66078
1.66955
1.68333
1.70365
1.73157
1.76852
1.81473
1.87103
1.9372
2.014
2.10184
2.20476
2.32724
2.48653
2.72527
3.0723
3.56379
4.29931
5.48998
7.59874
11.6809
19.9821
36.2906
64.4927
105.328
158.03
146.805
1.6991
1.71749
1.73295
1.74368
1.75406
1.77333
1.80671
1.84463
1.86216
1.87292
1.68219
1.66859
1.65947
1.65455
1.6546
1.65638
1.66101
1.66996
1.68404
1.70492
1.73383
1.77243
1.82105
1.88024
1.9491
2.02796
2.1154
2.21294
2.32186
2.44968
2.62088
2.86989
3.20899
3.68825
4.40649
5.57113
7.639
11.6506
19.8234
35.9853
64.2077
105.428
158.826
147.36
1.68226
1.69965
1.71828
1.73346
1.74393
1.75436
1.77393
1.80758
1.84507
1.86226
1.87293
1.66869
1.65951
1.65462
1.65468
1.65651
1.66124
1.67038
1.68476
1.70618
1.73606
1.77628
1.8275
1.89059
1.96393
2.04733
2.13862
2.23783
2.34289
2.45771
2.60247
2.79271
3.03374
3.35974
3.82287
4.52156
5.65965
7.68804
11.6284
19.6874
35.7161
63.9575
105.528
159.646
147.858
1.66879
1.68274
1.70063
1.71908
1.73397
1.74418
1.75468
1.77456
1.80847
1.84552
1.86236
1.87295
1.65959
1.6547
1.65477
1.65664
1.66148
1.6708
1.68547
1.7074
1.73821
1.77999
1.83377
1.90092
1.98005
2.07027
2.16808
2.2735
2.38213
2.49531
2.62968
2.79627
2.98375
3.21498
3.52342
3.96724
4.64389
5.75445
7.74361
11.6224
19.5723
35.4788
63.7332
105.657
160.381
148.367
1.65971
1.66921
1.6836
1.70166
1.71991
1.73449
1.74442
1.755
1.77523
1.8094
1.84597
1.86246
1.87296
1.65481
1.65487
1.65679
1.66171
1.6712
1.68616
1.70858
1.74027
1.78353
1.83977
1.9109
1.99604
2.0949
2.20213
2.31689
2.43396
2.55323
2.68974
2.85141
3.01615
3.1935
3.41218
3.70015
4.12025
4.77197
5.85421
7.80549
11.6249
19.4743
35.2687
63.5373
105.779
161.149
148.82
1.655
1.65999
1.66986
1.68455
1.70275
1.72077
1.73501
1.74466
1.75535
1.77594
1.81035
1.84642
1.86256
1.87298
1.65501
1.65693
1.66195
1.67161
1.68683
1.7097
1.74223
1.78688
1.84548
1.92042
2.01149
2.11936
2.23855
2.36668
2.49578
2.62661
2.77366
2.94355
3.10549
3.26161
3.42116
3.62082
3.88715
4.28012
4.90482
5.95801
7.8724
11.6325
19.3919
35.0831
63.3628
105.926
161.816
149.283
1.65529
1.65514
1.66032
1.67063
1.68558
1.70388
1.72164
1.73553
1.74489
1.75572
1.77668
1.81134
1.84687
1.86267
1.87299
1.65714
1.66218
1.67202
1.68748
1.71078
1.74408
1.79003
1.85088
1.92943
2.0263
2.14308
2.27484
2.42035
2.5668
2.71365
2.87771
3.06572
3.23848
3.3926
3.53207
3.66681
3.84006
4.0833
4.4463
5.04169
6.06484
7.94295
11.648
19.3235
34.919
63.2107
106.061
162.53
149.691
1.65752
1.65536
1.655
1.66083
1.67146
1.68668
1.70504
1.72253
1.73604
1.74513
1.7561
1.77745
1.81235
1.84731
1.86276
1.87301
1.66248
1.67239
1.68812
1.71182
1.74583
1.793
1.85595
1.93793
2.0404
2.16587
2.31033
2.47453
2.64397
2.81448
3.00157
3.21651
3.41111
3.57725
3.71368
3.82724
3.92913
4.06848
4.28516
4.61767
5.18151
6.17385
8.01631
11.6705
19.2675
34.7743
63.0759
106.214
163.126
150.108
1.66303
1.65751
1.65492
1.65513
1.66141
1.67236
1.68785
1.70624
1.72343
1.73654
1.74537
1.75652
1.77827
1.81335
1.84773
1.86285
1.87303
1.67285
1.68871
1.71281
1.74749
1.79578
1.8607
1.94591
2.05375
2.1876
2.34476
2.52815
2.72251
2.92575
3.14732
3.3988
3.62631
3.81678
3.96403
4.0705
4.14701
4.20684
4.30549
4.49006
4.7924
5.32318
6.2841
8.09175
11.698
19.2222
34.6463
62.9586
106.354
163.786
150.475
1.67363
1.6629
1.65669
1.65475
1.65535
1.66204
1.6733
1.68908
1.70747
1.72433
1.73703
1.74561
1.75696
1.77909
1.81432
1.84813
1.86294
1.87304
1.68937
1.71371
1.74905
1.79839
1.86514
1.95339
2.06634
2.20821
2.37796
2.58063
2.80089
3.04152
3.31204
3.61901
3.89327
4.1224
4.2938
4.40539
4.46572
4.49163
4.49895
4.55029
4.69729
4.96883
5.4656
6.39467
8.16847
11.7295
19.1861
34.5335
62.8551
106.507
164.312
150.848
1.69045
1.67333
1.66153
1.65631
1.65461
1.65564
1.66273
1.67431
1.69037
1.70872
1.72523
1.7375
1.74585
1.75742
1.77992
1.81526
1.84851
1.86302
1.87306
1.71467
1.75046
1.80083
1.86929
1.96037
2.07815
2.22768
2.4098
2.63151
2.8785
3.16011
3.48754
3.87563
4.2279
4.51676
4.72993
4.85866
4.90998
4.90272
4.86158
4.80463
4.80159
4.90606
5.14596
5.60774
6.50515
8.24584
11.764
19.158
34.434
62.7651
106.646
164.922
151.176
1.71613
1.68988
1.67116
1.66076
1.65599
1.65447
1.65599
1.66347
1.67537
1.69173
1.70998
1.72614
1.73796
1.74609
1.75789
1.78073
1.81616
1.84887
1.8631
1.87307
1.75191
1.80304
1.87314
1.96689
2.08919
2.246
2.44016
2.68048
2.95496
3.28051
3.6704
4.15777
4.63649
5.03691
5.32016
5.483
5.53045
5.48669
5.38461
5.25716
5.12305
5.05821
5.11557
5.32287
5.7499
6.61498
8.32329
11.801
19.1367
34.3459
62.6859
106.794
165.388
151.456
1.75391
1.71511
1.68665
1.66976
1.66008
1.65567
1.65436
1.6564
1.66427
1.6765
1.69314
1.71127
1.72703
1.73838
1.74633
1.75836
1.78153
1.81704
1.84921
1.86317
1.87309
1.80523
1.87664
1.97294
2.0995
2.26321
2.46896
2.72735
3.02994
3.4014
3.85823
4.46267
5.11043
5.7084
6.13756
6.36366
6.41531
6.32531
6.14184
5.91294
5.67796
5.45316
5.31902
5.32509
5.49686
5.8909
6.72362
8.40034
11.8397
19.1209
34.2684
62.6167
106.928
165.859
151.691
1.808
1.75225
1.71027
1.68438
1.66849
1.65941
1.65537
1.65428
1.65687
1.66512
1.67771
1.69461
1.71256
1.72789
1.73877
1.74656
1.75885
1.78233
1.81788
1.84953
1.86325
1.8731
1.88003
1.97845
2.10905
2.2793
2.49616
2.77202
3.10306
3.52137
4.04931
4.79048
5.65115
6.52482
7.23429
7.62215
7.69747
7.54999
7.25171
6.87715
6.48692
6.12254
5.79362
5.5829
5.53447
5.66772
6.0299
6.83056
8.47654
11.8796
19.1104
34.1999
62.5558
107.046
166.205
151.964
1.88393
1.80546
1.74514
1.70661
1.68228
1.66725
1.65878
1.65511
1.65424
1.65741
1.66603
1.67899
1.69611
1.71382
1.72869
1.73913
1.7468
1.75934
1.78311
1.81869
1.84984
1.86332
1.87312
1.98372
2.1178
2.29427
2.52173
2.81442
3.17395
3.63925
4.24283
5.14152
6.25978
7.48588
8.59807
9.34327
9.56057
9.3518
8.89577
8.30905
7.68933
7.10328
6.58839
6.14273
5.84871
5.7428
5.83522
6.16624
6.93534
8.5515
11.9202
19.1034
34.1394
62.5095
107.139
166.599
152.247
1.98931
1.88029
1.79515
1.73943
1.70319
1.68022
1.66605
1.65818
1.65488
1.65423
1.65801
1.66699
1.68035
1.6976
1.71501
1.72944
1.73946
1.74704
1.75983
1.78387
1.81946
1.85013
1.86339
1.87313
2.12608
2.30809
2.54562
2.85449
3.24225
3.75423
4.43853
5.51499
6.93269
8.58599
10.2219
11.507
12.1385
11.9988
11.3383
10.4489
9.48933
8.57105
7.75673
7.07215
6.49847
6.11526
5.94922
5.99908
6.29944
7.03757
8.6249
11.9611
19.0998
34.0931
62.4705
107.251
167.001
152.579
2.13426
1.98431
1.8655
1.7865
1.73405
1.69983
1.67824
1.66491
1.65761
1.65469
1.65427
1.65868
1.66801
1.68175
1.69904
1.71615
1.73013
1.73976
1.74729
1.76034
1.78462
1.82018
1.8504
1.86342
1.87312
2.32113
2.56784
2.89221
3.30762
3.86577
4.63623
5.90849
7.66205
9.81102
12.0911
14.1031
15.412
15.7029
14.9632
13.6542
12.1964
10.7795
9.51233
8.44072
7.56988
6.85863
6.38134
6.15299
6.15901
6.42909
7.13696
8.69649
12.0018
19.0997
34.0555
62.4303
107.366
167.466
152.91
2.33333
2.12769
1.96322
1.85266
1.77832
1.72879
1.6966
1.67634
1.66379
1.65708
1.65453
1.65436
1.65942
1.66906
1.68315
1.70043
1.71723
1.73079
1.74006
1.74755
1.76085
1.78535
1.82087
1.85054
1.86342
1.87312
2.58877
2.92759
3.36989
3.97351
4.83548
6.31828
8.43743
11.1415
14.1783
17.108
19.3738
20.4592
20.0978
18.4615
16.2842
14.1193
12.1634
10.502
9.14816
8.07737
7.22096
6.64573
6.3534
6.31472
6.55491
7.23327
8.76602
12.0368
19.1003
34.0166
62.3874
107.509
167.909
153.31
2.60751
2.32493
2.09778
1.94448
1.84051
1.77032
1.72369
1.69349
1.67451
1.66271
1.65658
1.65441
1.65452
1.6602
1.67013
1.68454
1.70177
1.71826
1.7314
1.74034
1.74782
1.76136
1.78606
1.82125
1.85056
1.86342
1.87312
2.96108
3.42909
4.07738
5.03548
6.7397
9.24725
12.5555
16.4479
20.4757
23.9891
26.2691
26.767
25.3546
22.4799
19.2022
16.1933
13.6236
11.5285
9.87194
8.59052
7.58324
6.9073
6.5498
6.46598
6.67666
7.32629
8.82448
12.0674
19.1021
33.9763
62.3463
107.65
168.438
153.693
2.99021
2.59677
2.2825
2.07075
1.92673
1.82863
1.76255
1.71877
1.6905
1.67274
1.66166
1.65611
1.65429
1.65477
1.66099
1.67121
1.68591
1.70307
1.71923
1.73198
1.74061
1.7481
1.76187
1.78643
1.8213
1.85056
1.86342
1.87312
3.48558
4.17771
5.23552
7.16769
10.0796
14.0301
18.8602
24.1444
29.1814
33.081
34.9881
34.4077
31.4671
26.9826
22.3719
18.3915
15.1423
12.5806
10.6054
9.1055
7.94341
7.16495
6.74165
6.61257
6.79419
7.40416
8.87486
12.102
19.106
33.9355
62.3026
107.833
168.916
154.175
3.5339
2.97633
2.5364
2.24378
2.04515
1.90938
1.81707
1.75502
1.71402
1.68762
1.67104
1.66065
1.6557
1.65415
1.6551
1.6618
1.67232
1.68727
1.70431
1.72016
1.73253
1.74089
1.74838
1.76212
1.78644
1.82133
1.85056
1.86342
1.87313
4.27473
5.43515
7.59762
10.9228
15.5426
21.3736
28.0434
34.8442
40.7695
44.6858
45.6659
43.395
38.3892
31.9136
25.7495
20.6849
16.7016
13.648
11.3424
9.61888
8.29962
7.41779
6.92851
6.75434
6.89253
7.4711
8.93102
12.1411
19.1124
33.894
62.2636
108.003
169.529
154.612
4.35763
3.51675
2.88892
2.48105
2.20713
2.02016
1.89249
1.80585
1.74775
1.70945
1.68486
1.66937
1.65971
1.65533
1.65404
1.65552
1.66263
1.67345
1.6886
1.70552
1.72104
1.73305
1.74112
1.7485
1.76209
1.78645
1.82133
1.85056
1.86342
1.87312
5.63317
8.02567
11.7666
17.0711
23.9473
32.0992
40.8546
49.1554
55.6609
59.0245
58.3554
53.6782
46.037
37.2009
29.2867
23.0446
18.2852
14.7215
12.078
10.1277
8.65041
7.66511
7.11009
6.87333
6.977
7.5457
8.99376
12.1856
19.1219
33.8535
62.2218
108.233
170.047
155.193
4.33514
5.80586
3.38559
2.80931
2.42868
2.17141
1.99581
1.87608
1.79499
1.74072
1.70505
1.6822
1.66775
1.65887
1.65501
1.65395
1.656
1.66347
1.6746
1.68991
1.7067
1.72189
1.73346
1.74121
1.74844
1.76207
1.78645
1.8213
1.85054
1.86339
1.8731
8.44712
12.6027
18.5967
26.5424
36.2404
47.0863
58.0319
67.6236
74.1822
76.2151
73.0187
65.1453
54.2966
42.7621
32.9336
25.4429
19.8781
15.7931
12.8077
10.6299
8.9947
7.90651
7.26323
6.97585
7.0704
7.62897
9.06405
12.2362
19.1353
33.8129
62.1884
108.438
170.778
155.692
4.12427
5.78904
8.81398
3.26849
2.73417
2.37771
2.13659
1.97212
1.86017
1.78449
1.73395
1.70083
1.67965
1.66621
1.65813
1.65473
1.65392
1.65655
1.66433
1.67578
1.69121
1.70783
1.72256
1.73366
1.74116
1.74842
1.76207
1.78644
1.82125
1.8504
1.86332
1.87308
13.4219
20.104
29.1253
40.4004
53.419
67.1894
80.2382
90.6894
96.5428
96.2623
89.5294
77.6332
63.0329
48.5105
36.642
27.8544
21.4676
16.8561
13.5284
11.1239
9.33205
8.11105
7.39551
7.09002
7.17392
7.72206
9.14306
12.2941
19.1535
33.7759
62.1531
108.728
171.342
156.393
3.94016
5.42845
8.81917
14.1439
3.1591
2.66118
2.32809
2.10272
1.94914
1.84477
1.77435
1.72744
1.69681
1.67728
1.66481
1.65748
1.65451
1.65394
1.65717
1.66522
1.67701
1.6925
1.70872
1.7229
1.73366
1.74114
1.74842
1.76209
1.78643
1.82086
1.85012
1.86324
1.87307
21.5768
31.6697
44.5239
59.7452
76.4343
93.1697
108.023
118.673
122.828
119.058
107.683
90.9401
72.1002
54.361
40.3673
30.257
23.0427
17.906
14.2382
11.6093
9.61901
8.28817
7.54302
7.21743
7.28896
7.82635
9.23214
12.3606
19.1779
33.7402
62.1296
108.971
172.243
156.967
3.77132
5.11329
8.17303
14.2207
22.8851
3.05356
2.5902
2.27985
2.06985
1.92689
1.8299
1.76461
1.72125
1.69309
1.67512
1.66353
1.6569
1.65434
1.65403
1.65785
1.66618
1.67825
1.69345
1.70919
1.72294
1.73365
1.74114
1.74844
1.76212
1.78606
1.82017
1.84983
1.86317
1.87306
34.1485
48.5691
65.9788
85.6006
106.118
125.663
141.817
151.775
153
144.392
127.213
104.84
81.3524
60.2344
44.0706
32.6323
24.5958
18.9398
14.9365
12.0232
9.86786
8.48598
7.70783
7.35992
7.41719
7.94347
9.33295
12.4372
19.2097
33.7108
62.1074
109.336
172.867
157.816
3.61118
4.82544
7.59499
13.1405
23.1258
36.3581
2.95141
2.5213
2.23308
2.03803
1.90542
1.81561
1.75533
1.71553
1.68971
1.67314
1.66236
1.6564
1.65426
1.65422
1.65864
1.66721
1.67908
1.69397
1.70928
1.72294
1.73365
1.74116
1.7485
1.76187
1.78534
1.81944
1.84952
1.86309
1.87304
52.4934
72.0593
94.5624
118.835
143.155
165.193
181.96
190.089
186.906
171.961
147.804
119.101
90.6514
66.0607
47.7189
34.9665
26.1218
19.9563
15.5327
12.3824
10.1459
8.70724
7.89234
7.51967
7.56063
8.0754
9.4474
12.5258
19.2511
33.6868
62.1001
109.629
174.016
158.496
3.45857
4.55462
7.06225
12.1485
21.4288
36.9068
55.9902
2.8526
2.4546
2.18786
2.00734
1.88477
1.802
1.74676
1.71034
1.68665
1.67134
1.66132
1.65601
1.65427
1.65457
1.65952
1.66767
1.67956
1.69411
1.70928
1.72294
1.73366
1.74121
1.74838
1.76135
1.7846
1.81866
1.8492
1.86301
1.87302
77.9245
103.239
131.146
160.142
188.125
212.228
228.723
233.61
224.281
201.38
169.115
133.494
99.8722
71.78
51.2872
37.2501
27.618
20.8232
16.0497
12.7836
10.457
8.95517
8.09942
7.69929
7.7217
8.22443
9.57779
12.6287
19.3039
33.6706
62.1043
110.088
174.711
159.523
3.31323
4.29863
6.5614
11.2128
19.8459
34.3772
57.0406
83.1315
2.75721
2.39025
2.1443
1.97786
1.86514
1.78944
1.73899
1.70564
1.68387
1.66972
1.66041
1.65573
1.65443
1.65506
1.65965
1.668
1.6798
1.69408
1.70928
1.72294
1.73366
1.74112
1.74809
1.76084
1.78385
1.81785
1.84886
1.86293
1.87301
111.547
142.954
176.389
210.098
241.581
267.236
282.34
282.227
264.745
232.205
190.796
147.806
108.907
77.3458
54.7574
39.4775
28.8897
21.5738
16.6265
13.2321
10.8056
9.23361
8.33249
7.90189
7.90326
8.39337
9.72691
12.7486
19.3714
33.6721
62.1218
110.455
176.203
160.57
3.17496
4.05776
6.08693
10.3147
18.3285
31.9982
53.4396
84.9063
118.869
2.66536
2.32844
2.10251
1.94985
1.84701
1.77806
1.73195
1.70139
1.68137
1.66828
1.65966
1.65568
1.65469
1.6546
1.65989
1.66837
1.67974
1.69408
1.70928
1.7229
1.73346
1.74088
1.74781
1.76032
1.78308
1.81701
1.8485
1.86285
1.87299
154.156
191.789
230.806
269.281
304.163
330.747
342.999
335.706
307.807
263.949
212.506
161.848
117.668
82.7232
58.1179
41.3593
29.9881
22.4097
17.2704
13.7342
11.197
9.54716
8.59564
8.13115
8.10877
8.5856
9.89815
12.8894
19.4568
33.6825
62.1517
111.022
177.161
162.187
3.04338
3.83336
5.63866
9.45115
16.8531
29.6886
50.0484
79.9804
121.577
163.91
2.57731
2.26933
2.06288
1.92403
1.83062
1.76776
1.72559
1.69756
1.67914
1.66704
1.65921
1.65581
1.65364
1.65459
1.66047
1.6682
1.67973
1.69411
1.70919
1.72255
1.73304
1.74061
1.74754
1.75982
1.78229
1.81613
1.84812
1.86276
1.87298
206.231
250.148
294.919
338.422
376.69
403.375
410.816
393.665
352.876
296.097
233.923
175.461
126.087
87.8877
60.9333
42.9785
31.2077
23.3409
17.9902
14.2974
11.6375
9.90129
8.8937
8.39148
8.34243
8.80528
10.0958
13.0548
19.5659
33.709
62.2183
111.587
179.099
163.421
2.91816
3.62644
5.21818
8.62477
15.4124
27.4178
46.7269
75.369
115.045
167.687
218.573
2.49331
2.21348
2.02643
1.90073
1.81581
1.75846
1.71987
1.69415
1.6772
1.66613
1.65901
1.65436
1.65342
1.65535
1.66026
1.6682
1.6798
1.69396
1.70871
1.72188
1.73252
1.74033
1.74728
1.75932
1.7815
1.81523
1.84772
1.86266
1.87296
268.016
318.419
369.443
418.547
460.252
485.81
485.792
455.552
399.261
328.135
254.763
188.514
134.114
92.1727
63.3446
44.77
32.5621
24.3793
18.7962
14.9307
12.135
10.3025
9.23243
8.68819
8.60933
9.0574
10.3248
13.2511
19.7015
33.7684
62.3111
112.542
180.896
165.446
2.7992
3.43567
4.82731
7.84057
14.0089
25.1729
43.4336
70.8326
109.017
159.193
223.398
282.86
2.41422
2.16228
1.99361
1.87971
1.80243
1.75008
1.71474
1.69115
1.67571
1.66546
1.65685
1.65402
1.65449
1.65506
1.66026
1.66837
1.67956
1.69344
1.70781
1.72102
1.73196
1.74005
1.74703
1.75883
1.7807
1.81429
1.84731
1.86256
1.87295
339.706
397.201
455.483
511.163
556.277
578.81
567.737
520.599
446.197
359.575
274.783
200.904
140.712
95.8234
66.0009
46.7515
34.0672
25.5389
19.701
15.645
12.6982
10.7584
9.61874
9.02766
8.91564
9.34846
10.5918
13.4845
19.8761
33.8693
62.5456
113.338
183.688
166.91
2.68735
3.25967
4.46783
7.10505
12.6502
22.9554
40.1462
66.3139
103.094
151.534
212.437
288.478
356.642
2.34208
2.11633
1.96407
1.86076
1.79038
1.74255
1.71022
1.68875
1.67455
1.66234
1.65628
1.65533
1.65414
1.65507
1.66048
1.668
1.67907
1.69248
1.70667
1.72013
1.73138
1.73975
1.74679
1.75835
1.7799
1.81333
1.84687
1.86246
1.87293
421.695
487.566
554.861
618.48
666.698
683.1
656.13
587.808
492.889
389.968
293.774
211.018
146.306
99.8265
68.9251
48.9436
35.7416
26.8365
20.7191
16.4528
13.3381
11.2784
10.0609
9.41757
9.26882
9.68573
10.9064
13.7664
20.1343
34.074
62.8179
114.581
186.129
169.67
2.58537
3.0982
4.14026
6.42484
11.3456
20.7747
36.8612
61.7735
97.1991
144.074
202.863
274.292
362.465
439.915
2.27768
2.07509
1.93752
1.84372
1.77954
1.73587
1.70649
1.6868
1.6705
1.66141
1.65798
1.65492
1.65415
1.65536
1.6599
1.66766
1.67824
1.69118
1.70548
1.7192
1.73076
1.73944
1.74656
1.75788
1.77908
1.81234
1.84642
1.86236
1.87292
514.88
591.419
670.394
743.924
793.888
799.095
749.98
655.995
538.543
418.911
309.229
219.562
152.414
104.211
72.1427
51.3698
37.6069
28.2918
21.8679
17.3692
14.0674
11.8735
10.5688
9.86719
9.67813
10.0747
11.2788
14.1681
20.5266
34.3565
63.2756
115.648
190.007
171.509
2.49443
2.9531
3.84732
5.80124
10.1059
18.6445
33.5873
57.1971
91.2639
136.707
193.692
262.371
343.912
444.948
533.127
2.22022
2.03813
1.91369
1.82839
1.76984
1.73022
1.70339
1.6815
1.66925
1.66361
1.65747
1.65492
1.6545
1.6546
1.65964
1.6672
1.67698
1.68987
1.70427
1.71822
1.73011
1.73911
1.74632
1.75741
1.77826
1.81133
1.84596
1.86226
1.87291
620.884
711.636
806.995
892.165
940.328
926.504
847.795
723.843
582.395
442.488
322.26
228.862
159.07
109.006
75.6817
54.0567
39.6883
29.9276
23.1679
18.4121
14.9015
12.5568
11.1544
10.3877
10.1554
10.5277
11.8005
14.7362
21.0208
34.7627
63.7579
117.431
193.107
175.339
2.41357
2.82414
3.59693
5.24126
8.94657
16.5819
30.3398
52.5853
85.2533
129.322
184.784
251.233
328.992
420.294
535.923
637.662
2.16898
2.00505
1.89234
1.81465
1.76148
1.72543
1.69646
1.67975
1.67191
1.66303
1.65748
1.65535
1.65342
1.6546
1.65952
1.66616
1.67575
1.68855
1.70302
1.71719
1.72941
1.73876
1.74609
1.75696
1.77745
1.81034
1.84551
1.86215
1.87289
742.17
854.603
971.912
1069.17
1107.82
1064.11
947.676
789.971
618.311
462.37
336.42
238.958
166.309
114.243
79.5725
57.0345
42.0144
31.7704
24.6431
19.6031
15.8589
13.3447
11.8323
10.9929
10.714
11.1558
12.5165
15.4152
21.64
35.284
64.529
118.954
198.369
177.846
2.34183
2.709
3.38569
4.7574
7.88734
14.6068
27.1395
47.9483
79.1496
121.851
175.965
240.694
315.487
401.436
502.476
636.337
756.45
2.1233
1.97549
1.87325
1.80265
1.75418
1.71631
1.69407
1.68292
1.67124
1.66304
1.65799
1.65402
1.65364
1.65507
1.65863
1.6652
1.67456
1.68722
1.70173
1.71612
1.72867
1.73837
1.74585
1.75652
1.77666
1.80937
1.84506
1.86205
1.87288
884.872
1029.89
1175.98
1280.88
1297.03
1210.12
1047.38
844.703
648.659
483.959
351.748
249.881
174.157
119.952
83.8477
60.3364
44.6179
33.8515
26.3223
20.9679
16.9621
14.2564
12.6199
11.6992
11.4901
12.0082
13.3495
16.2207
22.4005
36.0006
65.3482
121.568
202.257
183.135
2.27829
2.6062
3.20535
4.35116
6.96197
12.753
24.0126
43.3038
72.9448
114.243
167.122
230.488
303.151
384.961
478.435
589.798
748.7
895.923
2.0826
1.94912
1.85655
1.79205
1.74194
1.71277
1.69776
1.68217
1.67125
1.66363
1.65628
1.65435
1.65471
1.65457
1.65783
1.6643
1.67341
1.68586
1.70039
1.71498
1.72787
1.73795
1.74561
1.7561
1.77592
1.80844
1.84461
1.86195
1.87287
1059.49
1252.39
1431.15
1533.37
1509.68
1362.12
1131.35
891.14
681.627
507.281
368.258
261.643
182.634
126.161
88.5412
63.9996
47.5367
36.2075
28.2398
22.5376
18.2384
15.3161
13.5388
12.6792
12.5399
12.9906
14.3141
17.1665
23.3333
36.8917
66.5933
123.827
209.372
186.515
2.22207
2.51469
3.04926
4.01205
6.17879
11.0828
21.0105
38.6786
66.6401
106.456
158.155
220.441
291.578
370.546
458.152
559.041
682.361
875.959
1065.82
2.04639
1.92605
1.8419
1.77605
1.73627
1.71745
1.69688
1.68217
1.67193
1.66142
1.65684
1.65582
1.65444
1.65422
1.65715
1.66344
1.67228
1.68449
1.699
1.7138
1.72703
1.7375
1.74536
1.7557
1.77521
1.80754
1.84417
1.86185
1.87285
1284.19
1542.4
1756.28
1842.5
1749.31
1493.5
1203.04
941.646
717.181
532.3
385.921
274.233
191.748
132.894
93.6888
68.0655
50.8146
38.8818
30.437
24.3504
19.7213
16.5528
14.8135
14.0027
13.7436
14.1166
15.4181
18.2683
24.4441
38.049
67.9756
127.548
214.163
193.762
2.17233
2.43359
2.91229
3.73182
5.52097
9.6283
18.2398
34.1402
60.2483
98.4551
148.97
210.388
280.519
357.551
441.25
533.874
643.057
781.528
1027.17
1283.95
2.01466
1.90587
1.82168
1.76872
1.74271
1.71656
1.69689
1.68295
1.66925
1.66233
1.65904
1.65569
1.65428
1.65403
1.65653
1.6626
1.67118
1.68311
1.69757
1.71255
1.72613
1.73702
1.74512
1.75534
1.77454
1.80668
1.84374
1.86175
1.87284
1588.11
1955.82
2208.12
2245.15
1962.64
1606.25
1281.01
995.969
755.139
558.884
404.653
287.609
201.494
140.173
99.3279
72.5813
54.5029
41.9269
32.9645
26.4531
21.4523
18.2697
16.536
15.519
15.1163
15.3975
16.6624
19.5266
25.7492
39.436
69.9174
130.925
223.686
198.039
2.12881
2.36205
2.79101
3.50011
4.97282
8.38056
15.7636
29.849
53.8402
90.2156
139.475
200.169
269.72
345.638
426.679
513.982
611.701
731.688
892.553
1225.08
1583.86
1.98691
1.88012
1.81278
1.77555
1.74208
1.71657
1.69779
1.67975
1.6705
1.6655
1.65924
1.65575
1.65427
1.65394
1.65598
1.66178
1.6701
1.68173
1.6961
1.71126
1.72522
1.73653
1.74489
1.75499
1.77391
1.80585
1.84332
1.86165
1.87282
2098.39
2638.32
2946.1
2606.34
2143.77
1727.85
1364.24
1053.52
795.119
586.781
424.3
301.693
211.85
148.014
105.499
77.6012
58.6632
45.4064
35.8841
28.9032
23.8563
20.594
18.5126
17.2482
16.6712
16.8412
18.0531
20.939
27.2366
41.1153
72.1761
136.05
229.817
1162.14
2.09087
2.2997
2.68333
3.30593
4.51999
7.325
13.5799
25.9154
47.6293
81.7854
129.581
189.618
258.948
334.431
413.998
497.581
588.269
692.662
829.053
1026.29
1524.09
2140.22
1.95376
1.86876
1.8192
1.7751
1.74209
1.71749
1.69407
1.68149
1.67461
1.66617
1.65969
1.65603
1.65435
1.65392
1.6555
1.66097
1.66905
1.68035
1.6946
1.70996
1.7243
1.73602
1.74465
1.75466
1.7733
1.80507
1.84291
1.86155
1.8728
3066.85
4056.59
3557.59
2895.15
2331.69
1854.59
1450.93
1113.26
836.489
615.602
444.631
316.365
222.774
156.431
112.249
83.1906
63.3706
49.3986
39.273
32.3015
27.1145
23.268
20.7722
19.2081
18.4172
18.4464
19.5865
22.4923
28.8949
43.059
74.9996
141.07
277.166
2191.98
2.04812
2.24549
2.58853
3.1406
4.1485
6.44564
11.6806
22.3544
41.7823
73.4092
119.278
178.564
247.956
323.618
402.657
484.13
569.711
665.134
780.765
945.599
1214.45
2092.43
3369.38
1.93879
1.8755
1.81834
1.77511
1.74275
1.71277
1.69646
1.68689
1.67577
1.66709
1.66045
1.65643
1.65452
1.65396
1.6551
1.66018
1.668
1.67899
1.69312
1.70868
1.7234
1.73551
1.74441
1.75435
1.77273
1.80432
1.84252
1.86146
1.87279
5545.42
4933.1
3951.01
3164.55
2516.17
1981.22
1538.34