/*--------------------------------*- C++ -*----------------------------------*\
  =========                 |
  \\      /  F ield         | OpenFOAM: The Open Source CFD Toolbox
   \\    /   O peration     | Website:  https://openfoam.org
    \\  /    A nd           | Version:  8
     \\/     M anipulation  |
\*---------------------------------------------------------------------------*/
FoamFile
{
    version     2.0;
    format      ascii;
    class       volScalarField;
    location    "0.04";
    object      nut;
}
// * * * * * * * * * * * * * * * * * * * * * * * * * * * * * * * * * * * * * //

dimensions      [0 2 -1 0 0 0 0];

internalField   nonuniform List<scalar> 
15677
(
0.000104279
0.000527533
8.92126e-05
0.00134331
0.000351319
9.2066e-05
0.00250617
0.000712841
0.000316036
0.000100188
0.00379222
0.0012983
0.000534745
0.000308003
0.00011064
0.00494438
0.0021073
0.000928223
0.000456143
0.000294767
0.000120928
0.00579795
0.00307711
0.00153961
0.000735387
0.000402654
0.000288363
0.000129896
0.00630701
0.00409686
0.00233917
0.00120777
0.000604642
0.000373752
0.000288485
0.000136671
0.00654829
0.00504667
0.00326513
0.00188132
0.000975495
0.000522137
0.000363267
0.000291197
0.0001416
0.00664871
0.00581116
0.00422273
0.0027129
0.00154329
0.000812686
0.00047764
0.000361556
0.000294336
0.000145141
0.00669308
0.00631337
0.00510307
0.00362871
0.00228637
0.00129288
0.000707125
0.000455412
0.000362982
0.000297079
0.000148008
0.00671094
0.00656744
0.00580947
0.0045345
0.00314735
0.00195304
0.00110962
0.00064276
0.000443966
0.00036504
0.000299745
0.00015045
0.00671155
0.0066717
0.00629636
0.00533485
0.00404629
0.00275555
0.00170112
0.000987274
0.000601528
0.000437267
0.00036757
0.000302638
0.000152424
0.00670992
0.00670984
0.00656971
0.00595436
0.00489361
0.00363228
0.00244926
0.0015183
0.000902325
0.000572824
0.000433313
0.000370965
0.000305521
0.000154209
0.00670937
0.00671916
0.00669379
0.00636349
0.00560624
0.00450129
0.00329748
0.00221695
0.00138292
0.00083937
0.000551409
0.000432078
0.000374779
0.000308454
0.000155798
0.0067093
0.0067208
0.00673499
0.00659219
0.00612808
0.00527868
0.0041713
0.00303467
0.00203794
0.00128028
0.000789417
0.000536244
0.000432792
0.000379091
0.000311415
0.000157138
0.00670933
0.00672103
0.00674179
0.0066994
0.00644434
0.00589588
0.00498844
0.003903
0.00282537
0.00189739
0.00119728
0.000750062
0.000526108
0.00043519
0.000383608
0.000314039
0.000158182
0.00670935
0.00672106
0.00674141
0.00673393
0.00662138
0.0063189
0.0056734
0.00474246
0.00368239
0.00265585
0.00178077
0.00112759
0.000720015
0.000520011
0.000438789
0.000387933
0.000316171
0.000159289
0.00670936
0.00672109
0.00674047
0.00674321
0.00669055
0.00654844
0.00617868
0.00547388
0.00453258
0.00349827
0.00251286
0.00168245
0.00107243
0.000696991
0.000517241
0.000443019
0.000391551
0.000318418
0.000160105
0.00670936
0.00672113
0.00673998
0.00674527
0.00671489
0.00665553
0.00648946
0.00603799
0.00529558
0.00435134
0.00333976
0.00239022
0.00160075
0.00102682
0.000680048
0.000517079
0.000446843
0.000395182
0.000320088
0.000161093
0.00670936
0.00672118
0.00673981
0.00674553
0.00672287
0.00669576
0.006629
0.00641198
0.00590571
0.00513501
0.00419148
0.00320133
0.00228595
0.00153241
0.000989748
0.000668849
0.000517855
0.000450921
0.000398048
0.000322031
0.000161764
0.00670936
0.00672123
0.00673978
0.0067455
0.00672529
0.00670997
0.0066874
0.00659761
0.00633044
0.00577986
0.00498945
0.00404928
0.00308168
0.00219788
0.00147614
0.000962514
0.000661271
0.000519925
0.000454267
0.000401215
0.000323284
0.000162681
0.00670936
0.00672127
0.00673979
0.00674549
0.00672601
0.0067146
0.00671025
0.00667956
0.00655649
0.00624631
0.00566198
0.0048577
0.00392453
0.00297952
0.00212464
0.0014316
0.000942513
0.000656957
0.000521805
0.000457848
0.000403198
0.000324833
0.000163285
0.00670936
0.00672131
0.00673982
0.00674554
0.00672626
0.00671603
0.00671843
0.00671387
0.00666455
0.00650903
0.00616314
0.00555395
0.00474035
0.00381678
0.00289388
0.00206536
0.00139785
0.00092824
0.000653921
0.000524783
0.000460954
0.000405504
0.000325818
0.000164233
0.00670936
0.00672135
0.00673985
0.00674564
0.00672639
0.00671647
0.00672111
0.00672688
0.00671318
0.00664145
0.006458
0.00608643
0.00545633
0.00463777
0.00372589
0.00282408
0.00201979
0.00137254
0.000917639
0.000653663
0.000527115
0.000463541
0.000407369
0.00032736
0.000164824
0.00670937
0.00672138
0.00673987
0.00674575
0.00672648
0.00671665
0.00672189
0.00673129
0.00673338
0.00670497
0.00661259
0.00640638
0.00601701
0.00537001
0.00455068
0.0036516
0.00277006
0.00198555
0.00135409
0.000911951
0.000653183
0.000530179
0.000465998
0.000409234
0.000328226
0.000165762
0.00670937
0.00672141
0.00673989
0.00674586
0.00672656
0.00671676
0.00672207
0.00673263
0.00674097
0.00673345
0.00669067
0.00658273
0.00636067
0.00595531
0.00529584
0.00447907
0.00359366
0.00272917
0.00196063
0.00134289
0.000907876
0.000655438
0.000533076
0.000468104
0.000410872
0.000329649
0.000166349
0.00670937
0.00672144
0.00673992
0.00674597
0.00672664
0.00671685
0.00672208
0.006733
0.00674343
0.00674549
0.00672756
0.00667476
0.00655506
0.00632456
0.00590146
0.0052355
0.00442428
0.00355151
0.00270185
0.00194666
0.0013364
0.000908923
0.000658151
0.00053526
0.000470536
0.000412436
0.000330506
0.000167291
0.00670937
0.00672146
0.00673996
0.00674607
0.00672672
0.00671693
0.00672204
0.00673313
0.006744
0.00675038
0.00674375
0.00672024
0.00666008
0.00653169
0.00629687
0.0058619
0.00519162
0.00438619
0.00352441
0.00268607
0.00193959
0.00133693
0.000911629
0.000660553
0.000538514
0.000472758
0.000413988
0.000331814
0.000167879
0.00670936
0.00672148
0.00673999
0.00674616
0.0067268
0.00671701
0.00672201
0.00673321
0.00674399
0.00675229
0.00675033
0.00674163
0.00671269
0.00665037
0.0065245
0.00627186
0.00582882
0.00515875
0.00436024
0.00350823
0.00267943
0.00193982
0.0013412
0.00091563
0.000664824
0.000541914
0.000474917
0.000415257
0.000332556
0.000168796
0.00670936
0.0067215
0.00674002
0.00674624
0.00672688
0.00671709
0.00672199
0.00673329
0.00674388
0.00675298
0.00675284
0.00675114
0.0067375
0.00671431
0.00664961
0.00651466
0.00625205
0.00580634
0.00513874
0.004347
0.0035037
0.00268218
0.00194755
0.00134875
0.000922445
0.000669953
0.000545281
0.000476901
0.000416679
0.000333908
0.000169606
0.00670936
0.00672152
0.00674004
0.00674633
0.00672697
0.00671717
0.00672198
0.00673337
0.00674378
0.00675325
0.00675376
0.006755
0.00674865
0.00674659
0.00671667
0.00665035
0.00650585
0.00624264
0.0057978
0.00513312
0.00434791
0.00351129
0.00269457
0.00196087
0.001361
0.000931607
0.000675809
0.000548742
0.000478861
0.000417822
0.000334495
0.000170386
0.00670936
0.00672154
0.00674005
0.0067464
0.00672705
0.00671725
0.00672198
0.00673345
0.00674372
0.00675339
0.00675414
0.00675628
0.00675355
0.00676187
0.00675086
0.00672253
0.0066533
0.00650824
0.00624551
0.00580172
0.00514105
0.00436149
0.00352995
0.00271538
0.00198004
0.00137749
0.000942838
0.000682381
0.000552324
0.000480787
0.000419069
0.000335636
0.000171179
0.00670936
0.00672156
0.00674005
0.00674647
0.00672713
0.00671733
0.00672199
0.00673353
0.0067437
0.00675348
0.00675435
0.00675656
0.00675561
0.00676864
0.00676749
0.00675963
0.00673369
0.00666523
0.00652135
0.00625992
0.00581918
0.00516259
0.00438796
0.00355929
0.0027445
0.00200527
0.0013978
0.000955994
0.000689674
0.000556126
0.000482914
0.000420383
0.000336751
0.000172003
0.00670936
0.00672157
0.00674004
0.00674653
0.00672721
0.00671741
0.00672201
0.00673361
0.00674371
0.00675356
0.00675451
0.00675653
0.00675651
0.00677146
0.00677524
0.0067779
0.00677532
0.00675274
0.00668679
0.00654528
0.00628725
0.00585048
0.00519831
0.00442686
0.00359919
0.00278174
0.00203584
0.00142171
0.000971172
0.000698008
0.000560559
0.000485136
0.000421594
0.000337827
0.000172829
0.00672159
0.00670936
0.00674001
0.00674659
0.00672727
0.00671748
0.00672203
0.00673367
0.00674375
0.00675361
0.00675466
0.00675641
0.00675697
0.0067727
0.00677846
0.0067866
0.00679627
0.00679967
0.00678111
0.00671875
0.00658154
0.00632827
0.00589648
0.0052476
0.00447821
0.00364917
0.00282645
0.00207251
0.0014499
0.000988277
0.000707967
0.000565494
0.000487383
0.000422675
0.000338907
0.000173664
0.00673996
0.00672156
0.00670935
0.00674664
0.00672733
0.00671755
0.00672206
0.00673373
0.00674381
0.00675365
0.00675483
0.0067563
0.00675728
0.00677334
0.00677972
0.00679042
0.00680669
0.0068241
0.0068329
0.00681948
0.00676271
0.00663154
0.0063843
0.00595708
0.00531112
0.0045415
0.00370891
0.00287877
0.00211418
0.0014804
0.00100953
0.000719792
0.000570729
0.000489444
0.000423778
0.000339916
0.000174467
0.00674671
0.00673982
0.0067215
0.00670934
0.00672738
0.00671762
0.00672208
0.00673378
0.00674388
0.00675367
0.00675501
0.00675621
0.00675753
0.00677376
0.00678021
0.0067921
0.00681172
0.00683668
0.00686064
0.00687605
0.00686975
0.00682007
0.00669655
0.00645626
0.00603335
0.00538862
0.00461668
0.00377818
0.00293796
0.00216039
0.00151718
0.00103563
0.000732589
0.000575951
0.000491592
0.000424782
0.000340912
0.000175282
0.00672742
0.00674684
0.00673957
0.00672144
0.00670933
0.00671768
0.0067221
0.00673383
0.00674396
0.00675367
0.0067552
0.00675615
0.00675777
0.00677404
0.00678041
0.0067929
0.00681429
0.00684314
0.00687542
0.00690708
0.00693122
0.00693324
0.00689266
0.00677757
0.00654476
0.00612486
0.00548033
0.00470345
0.00385625
0.00300384
0.00221672
0.00156179
0.00106353
0.000746417
0.000581492
0.000493663
0.000425812
0.000341861
0.000176049
0.00671772
0.0067276
0.00674706
0.00673929
0.00672138
0.00670931
0.00672211
0.00673386
0.00674404
0.00675365
0.0067554
0.00675611
0.006758
0.00677425
0.00678055
0.00679333
0.00681578
0.00684676
0.00688356
0.00692465
0.00696622
0.00699938
0.00701186
0.00698134
0.00687585
0.0066496
0.00623244
0.0055861
0.00480165
0.00394339
0.00308354
0.00228573
0.00160834
0.00109347
0.000760942
0.000587183
0.000495725
0.00042673
0.000342793
0.000176827
0.00672211
0.00671781
0.00672795
0.00674729
0.006739
0.00672132
0.0067093
0.00673388
0.00674411
0.00675362
0.00675561
0.0067561
0.00675823
0.00677442
0.00678071
0.00679363
0.00681678
0.00684908
0.00688835
0.00693467
0.00698723
0.00703966
0.00708471
0.00710738
0.00708712
0.00699085
0.00677156
0.00635515
0.005705
0.00491165
0.00404875
0.0031808
0.00235994
0.00165887
0.00112498
0.000776144
0.000592724
0.000497745
0.000427664
0.000343666
0.000177544
0.00673388
0.00672196
0.00671797
0.00672828
0.00674751
0.0067387
0.00672126
0.00670929
0.00674417
0.00675359
0.0067558
0.00675612
0.00675846
0.00677458
0.00678087
0.00679387
0.00681755
0.00685078
0.00689163
0.00694092
0.00699993
0.0070646
0.00713074
0.00718851
0.00722414
0.00721253
0.00712285
0.00690875
0.00649274
0.00583668
0.00504492
0.00417847
0.00328615
0.00243897
0.00171226
0.00115792
0.000791724
0.00059879
0.000499828
0.000428578
0.000344534
0.000178276
0.00674422
0.00673366
0.00672169
0.00671814
0.00672862
0.00674773
0.0067384
0.0067212
0.00670928
0.00675354
0.00675598
0.00675617
0.00675868
0.00677473
0.00678103
0.00679411
0.00681819
0.00685216
0.00689416
0.00694544
0.0070084
0.00708075
0.00716098
0.00724129
0.00731424
0.00736199
0.00736119
0.00727491
0.00706091
0.00664321
0.00599549
0.00520756
0.00431826
0.00339827
0.00252227
0.00176715
0.00119237
0.00080804
0.000604707
0.000501777
0.000429471
0.000345341
0.00017894
0.00675347
0.00674405
0.00673322
0.0067214
0.00671833
0.00672898
0.00674795
0.00673811
0.00672114
0.00670926
0.00675614
0.00675623
0.00675888
0.00677488
0.00678119
0.00679434
0.00681877
0.00685333
0.00689628
0.00694911
0.00701483
0.00709224
0.00718208
0.00727827
0.00737594
0.00746293
0.00752409
0.0075315
0.00744904
0.00723004
0.00682381
0.00618718
0.00538094
0.0044661
0.00351609
0.0026091
0.00182366
0.00122642
0.000824917
0.00061052
0.000503956
0.00043031
0.000346147
0.00017962
0.00675626
0.00675322
0.00674366
0.00673275
0.00672112
0.00671855
0.00672933
0.00674817
0.00673782
0.00672108
0.00670925
0.0067563
0.00675906
0.00677502
0.00678134
0.00679458
0.00681934
0.00685436
0.00689811
0.00695226
0.00702017
0.00710139
0.00719809
0.00730592
0.00742219
0.00753588
0.00763891
0.00771037
0.00772497
0.00764429
0.007439
0.00703899
0.00638806
0.00556251
0.00462064
0.00363857
0.00269853
0.00188191
0.00126095
0.00084197
0.000616436
0.000506009
0.000431151
0.000346888
0.000180231
0.00675637
0.00675635
0.00675276
0.00674324
0.00673226
0.00672084
0.0067188
0.0067297
0.00674839
0.00673754
0.00672102
0.00670923
0.00675921
0.00677513
0.00678149
0.00679483
0.0068199
0.00685532
0.00689975
0.00695507
0.00702482
0.00710925
0.00721136
0.00732807
0.00745927
0.00759407
0.00772671
0.00784229
0.00792362
0.00794186
0.00788284
0.00769854
0.00727605
0.00659747
0.00574994
0.00477914
0.003764
0.00278988
0.00194158
0.00129488
0.000859061
0.000622298
0.000507967
0.000431926
0.000347626
0.000180856
0.00675935
0.0067564
0.00675636
0.00675225
0.00674281
0.00673177
0.00672057
0.00671908
0.00673006
0.00674861
0.00673726
0.00672097
0.00670921
0.00677521
0.00678162
0.00679508
0.00682046
0.00685621
0.00690124
0.00695762
0.007029
0.00711626
0.00722298
0.00734717
0.00749054
0.00764337
0.00780112
0.00794885
0.00807716
0.00816421
0.0082091
0.00817658
0.00797913
0.00753116
0.00681358
0.00593889
0.00493975
0.00389147
0.00288255
0.00200195
0.00132881
0.000876148
0.000628265
0.000509844
0.000432696
0.000348301
0.000181412
0.00677527
0.00675912
0.0067564
0.00675631
0.00675172
0.00674237
0.00673126
0.00672032
0.0067194
0.00673043
0.00674882
0.00673699
0.00672091
0.00670919
0.00678172
0.00679531
0.00682101
0.00685704
0.0069026
0.00695995
0.00703279
0.00712264
0.00723345
0.00736435
0.0075183
0.00768655
0.00786774
0.00804426
0.00820789
0.00834419
0.0084632
0.00854092
0.00849715
0.00827828
0.00780103
0.0070413
0.00613007
0.00510148
0.00401969
0.00297578
0.00206257
0.00136293
0.000893162
0.00063427
0.000511663
0.000433402
0.000348966
0.000181981
0.00678181
0.0067748
0.00675848
0.00675646
0.00675621
0.00675119
0.00674191
0.00673074
0.00672008
0.00671974
0.00673078
0.00674904
0.00673672
0.00672085
0.00670917
0.00679554
0.00682151
0.00685782
0.00690385
0.00696209
0.00703628
0.0071285
0.00724302
0.00738013
0.00754363
0.00772588
0.00792852
0.00813338
0.00833045
0.00850524
0.00867994
0.00883883
0.00890675
0.00884212
0.00859397
0.00808034
0.00727721
0.00632133
0.00526213
0.00414734
0.0030689
0.00212317
0.00139671
0.000910023
0.000640268
0.000513406
0.000434102
0.000349578
0.000182483
0.00679581
0.00678134
0.0067737
0.00675789
0.00675659
0.00675605
0.00675066
0.00674145
0.00673021
0.00671985
0.0067201
0.00673113
0.00674927
0.00673646
0.00672079
0.00670915
0.00682199
0.00685851
0.00690499
0.00696405
0.00703949
0.00713389
0.00725183
0.00739473
0.007567
0.00776254
0.00798534
0.00821653
0.00844907
0.00866379
0.00888491
0.0091076
0.00925841
0.00930568
0.00921053
0.00892478
0.00836757
0.00751942
0.00651468
0.00542049
0.00427359
0.00316127
0.00218338
0.00142997
0.000926662
0.000646211
0.000515102
0.000434743
0.000350172
0.000182997
0.00682248
0.00679508
0.00678021
0.0067725
0.00675737
0.00675676
0.00675582
0.00675015
0.00674096
0.00672967
0.00671966
0.0067205
0.00673146
0.00674949
0.00673621
0.00672074
0.00670912
0.00685914
0.006906
0.00696584
0.00704244
0.00713886
0.00725997
0.00740827
0.00758869
0.007797
0.00803891
0.0082951
0.0085633
0.00882471
0.00909621
0.00937505
0.00959369
0.00972585
0.00974114
0.00960403
0.00927064
0.00866201
0.00776493
0.00671114
0.00557659
0.00439786
0.00325243
0.00224286
0.00146275
0.000943031
0.000652071
0.000516738
0.000435381
0.000350728
0.000183448
0.00685982
0.00682116
0.00679317
0.00677934
0.00677115
0.00675696
0.00675697
0.00675553
0.00674964
0.00674045
0.00672912
0.00671949
0.00672091
0.00673176
0.00674971
0.00673598
0.00672068
0.0067091
0.00690691
0.00696742
0.00704513
0.00714341
0.00726747
0.0074208
0.00760886
0.00782943
0.00808941
0.00837005
0.008675
0.00898522
0.00931548
0.00966184
0.00994826
0.0101558
0.0102556
0.0102218
0.0100264
0.00963254
0.00896332
0.00801181
0.00690901
0.00573051
0.00451978
0.00334205
0.00230137
0.00149494
0.0009591
0.000657828
0.000518335
0.000435964
0.00035125
0.000183907
0.00690788
0.00685798
0.00681771
0.00679141
0.00677863
0.00676969
0.00675667
0.00675718
0.00675518
0.00674915
0.00673991
0.00672855
0.00671935
0.00672133
0.00673203
0.00674992
0.00673575
0.00672063
0.00670908
0.00696884
0.00704752
0.00714754
0.00727435
0.00743236
0.00762757
0.00785986
0.00813691
0.008442
0.00878483
0.0091439
0.00953387
0.00997404
0.010361
0.0106536
0.0108293
0.0108678
0.010757
0.0104813
0.0100114
0.00927125
0.00825965
0.00710702
0.0058818
0.00463913
0.00342965
0.00235868
0.00152647
0.000974773
0.000663454
0.000519864
0.000436547
0.000351762
0.000184312
0.00697032
0.00690528
0.00685339
0.00681439
0.00678975
0.00677801
0.00676815
0.0067565
0.00675738
0.00675477
0.00674867
0.00673935
0.00672798
0.00671926
0.00672174
0.00673228
0.00675012
0.00673554
0.00672057
0.00670906
0.00704968
0.00715123
0.00728059
0.00744295
0.00764487
0.00788827
0.0081815
0.00851111
0.00889191
0.00929856
0.00975176
0.0103147
0.0108643
0.0112916
0.0115485
0.0116405
0.0115716
0.011349
0.0109686
0.0104065
0.00958516
0.00850796
0.00730428
0.00603017
0.00475476
0.0035149
0.00241459
0.00155726
0.000990058
0.000668911
0.000521359
0.000437075
0.000352221
0.000184657
0.00705187
0.00696682
0.00689868
0.00684896
0.00681114
0.00678818
0.00677746
0.00676658
0.00675646
0.00675752
0.00675432
0.00674818
0.00673876
0.00672743
0.0067192
0.00672213
0.0067325
0.00675031
0.00673533
0.00672052
0.00670903
0.00715455
0.00728619
0.00745257
0.00766077
0.00791462
0.00822324
0.00857721
0.00899483
0.00944803
0.00997563
0.0107002
0.011468
0.0121109
0.0124967
0.0126325
0.0125749
0.012353
0.011988
0.0114827
0.010815
0.0099037
0.00875608
0.00749994
0.00617757
0.00486689
0.00359762
0.00246897
0.00158721
0.00100498
0.000674285
0.000522794
0.000437611
0.000352616
0.000184946
0.00715781
0.00704712
0.00695773
0.00689232
0.00684458
0.00680796
0.00678667
0.00677696
0.00676499
0.00675653
0.00675758
0.00675385
0.0067477
0.00673816
0.0067269
0.00671919
0.0067225
0.00673271
0.00675049
0.00673514
0.00672046
0.00670901
0.00729126
0.00746123
0.00767526
0.00793889
0.00826212
0.00863985
0.00909249
0.00959311
0.0102131
0.0111387
0.0121629
0.0130593
0.013655
0.0138844
0.0138256
0.0135758
0.0131763
0.0126537
0.0120129
0.0112318
0.0102247
0.00900312
0.00769239
0.00632312
0.00497564
0.00367769
0.00252168
0.00161627
0.00101923
0.000679544
0.000524203
0.000438018
0.000352952
0.000185283
0.00729614
0.0071517
0.00703462
0.00694892
0.00688605
0.00684023
0.00680487
0.00678521
0.00677647
0.00676344
0.00675673
0.00675753
0.00675338
0.00674721
0.00673757
0.00672641
0.0067192
0.00672286
0.0067329
0.00675065
0.00673495
0.0067204
0.006709
0.00746907
0.00768839
0.00796112
0.00829814
0.00869861
0.00918443
0.00973567
0.010468
0.0116203
0.0129072
0.0140469
0.0148576
0.0152693
0.0152837
0.0150127
0.0145699
0.0139971
0.0133208
0.0125459
0.0116504
0.0105455
0.00924788
0.00788123
0.00646614
0.00508101
0.00375504
0.00257264
0.0016445
0.00103287
0.000684665
0.000525369
0.000438397
0.00035328
0.000185631
0.00747646
0.00728817
0.00713454
0.00702245
0.00694023
0.00687986
0.00683592
0.00680195
0.00678379
0.00677592
0.00676202
0.00675702
0.00675736
0.00675293
0.00674672
0.006737
0.00672594
0.00671924
0.00672319
0.00673308
0.00675078
0.00673477
0.00672035
0.00670899
0.00770033
0.00798134
0.00833128
0.0087532
0.00927076
0.00987725
0.010738
0.0121219
0.0136443
0.0149795
0.0159597
0.0165433
0.0167327
0.0165488
0.0160988
0.0154954
0.0147763
0.0139656
0.0130682
0.012064
0.0108629
0.00948907
0.00806604
0.00660608
0.005183
0.00382961
0.00262179
0.00167185
0.00104589
0.000688959
0.000526392
0.000438779
0.000353687
0.00018604
0.00771141
0.00746614
0.00726469
0.00711779
0.00701049
0.00693165
0.00687375
0.00683157
0.00679916
0.00678242
0.00677514
0.00676076
0.00675738
0.00675708
0.00675253
0.00674623
0.00673643
0.00672551
0.0067193
0.00672349
0.00673326
0.0067509
0.00673459
0.00672033
0.00670898
0.00799981
0.0083616
0.00880356
0.00935189
0.0100183
0.0110162
0.0126171
0.0143268
0.0157916
0.0168756
0.0175772
0.0179244
0.0179307
0.0176047
0.0170311
0.0163146
0.0154871
0.0145699
0.0135685
0.012466
0.0111739
0.0097254
0.00824632
0.0067425
0.00528154
0.00390138
0.00266911
0.00169826
0.00105664
0.000692668
0.000527508
0.000439262
0.000354068
0.000186448
0.00801666
0.00769823
0.0074342
0.00724165
0.00710135
0.00699869
0.00692318
0.00686772
0.00682723
0.00679652
0.00678112
0.00677418
0.00675969
0.00675774
0.00675672
0.00675215
0.00674573
0.00673588
0.0067251
0.00671937
0.00672377
0.00673345
0.00675099
0.00673449
0.00672034
0.00670898
0.00838937
0.00884984
0.00942834
0.0101583
0.0112937
0.013084
0.0149255
0.0164547
0.0175778
0.0183366
0.0187875
0.0189579
0.0188449
0.0184376
0.0177954
0.0170131
0.0161161
0.0151226
0.0140388
0.0128516
0.0114759
0.00995568
0.00842163
0.00687502
0.00537661
0.00397035
0.00271454
0.00172033
0.00106588
0.000696786
0.000528792
0.000439732
0.000354541
0.000186942
0.00841441
0.00799967
0.00765502
0.00740269
0.00721907
0.00708515
0.00698702
0.0069148
0.00686176
0.00682293
0.00679404
0.00677985
0.006773
0.00675887
0.00675806
0.00675631
0.00675181
0.00674524
0.00673535
0.00672472
0.00671944
0.00672403
0.00673365
0.00675108
0.00673448
0.00672035
0.00670898
0.00889244
0.00950061
0.0102959
0.0115623
0.0135083
0.0154297
0.0169689
0.0180787
0.0188419
0.0193418
0.0196215
0.0196843
0.0195083
0.019068
0.0184014
0.0175925
0.0166603
0.015619
0.0144744
0.0132171
0.0117668
0.0101789
0.00859157
0.0070034
0.00546818
0.00403649
0.00275237
0.0017393
0.00107611
0.000701395
0.000530192
0.000440342
0.000354968
0.000187414
0.00893063
0.00839301
0.00794173
0.00761219
0.0073718
0.00719684
0.00706916
0.0069755
0.00690653
0.00685587
0.0068187
0.00679172
0.00677873
0.00677162
0.00675832
0.0067583
0.00675589
0.00675148
0.00674475
0.00673483
0.00672436
0.00671951
0.00672428
0.00673371
0.00675113
0.00673447
0.00672035
0.00670898
0.00956917
0.0104297
0.0118154
0.0138831
0.0158412
0.0173502
0.0184094
0.0191377
0.0196419
0.0199794
0.0201618
0.02017
0.0199705
0.0195299
0.01887
0.018064
0.017124
0.016059
0.0148734
0.0135607
0.0120453
0.0103944
0.00875589
0.00712748
0.00555624
0.00409158
0.0027848
0.00176036
0.00108743
0.000706524
0.000531826
0.000440916
0.00035552
0.000188008
0.00963179
0.008904
0.00831524
0.00788394
0.00757015
0.00734141
0.00717495
0.00705339
0.00696413
0.00689836
0.00685008
0.00681455
0.00678951
0.00677787
0.00677013
0.00675801
0.00675843
0.00675549
0.00675116
0.00674426
0.00673432
0.00672403
0.00671959
0.00672441
0.00673364
0.00675116
0.00673447
0.00672034
0.00670899
0.0105582
0.012049
0.0142075
0.0161692
0.0176208
0.0186057
0.019273
0.0197486
0.0201026
0.0203551
0.0204911
0.0204783
0.0202791
0.0198582
0.019225
0.0184426
0.0175152
0.016446
0.0152366
0.0138819
0.0123108
0.010602
0.0089146
0.00724732
0.00562995
0.0041388
0.00282069
0.00178377
0.0011
0.000712299
0.000533601
0.000441687
0.000356013
0.000188549
0.0106743
0.00959887
0.00879777
0.00823777
0.00782705
0.00752878
0.00731148
0.00715339
0.00703784
0.0069529
0.00689032
0.00684443
0.00681041
0.00678746
0.0067772
0.00676856
0.0067579
0.00675847
0.0067551
0.00675085
0.00674377
0.00673383
0.00672372
0.00671964
0.00672443
0.0067336
0.00675116
0.00673448
0.00672033
0.006709
0.0122611
0.0144844
0.0164261
0.0178036
0.0187008
0.0192916
0.0197161
0.0200555
0.0203383
0.0205551
0.0206747
0.0206595
0.0204736
0.0200837
0.0194893
0.0187438
0.0178436
0.0167853
0.0155663
0.0141815
0.0125636
0.0108018
0.00906811
0.00734815
0.0056934
0.00419095
0.00286049
0.00180986
0.00111401
0.000718738
0.000535696
0.000442397
0.000356667
0.000189264
0.0106409
0.012443
0.00944164
0.00869397
0.00816125
0.00777103
0.00748805
0.00728203
0.00713217
0.00702252
0.00694185
0.00688241
0.00683903
0.00680642
0.00678564
0.00677666
0.00676699
0.00675797
0.00675841
0.00675475
0.00675053
0.00674329
0.00673334
0.00672355
0.00671967
0.00672444
0.0067336
0.00675113
0.00673449
0.00672035
0.00670901
0.0147189
0.0166248
0.0179194
0.018723
0.0192291
0.0195884
0.0198903
0.0201722
0.0204314
0.0206398
0.0207583
0.02075
0.0205843
0.0202312
0.0196826
0.0189823
0.0181195
0.0170832
0.015866
0.0144614
0.0128047
0.0109949
0.00919767
0.00743502
0.00576411
0.00424865
0.0029047
0.00183902
0.00112967
0.000726043
0.000537982
0.000443378
0.000357263
0.000189881
0.0104029
0.0124045
0.0149113
0.00929127
0.00859248
0.0080856
0.00771587
0.00744796
0.00725308
0.0071113
0.00700746
0.00693099
0.00687472
0.00683397
0.00680271
0.00678404
0.00677622
0.00676548
0.00675816
0.00675827
0.00675443
0.00675021
0.00674279
0.00673309
0.00672352
0.00671968
0.00672444
0.00673363
0.00675107
0.00673459
0.00672041
0.00670904
0.0167772
0.0179857
0.0186944
0.0191129
0.0193987
0.0196474
0.0199037
0.0201736
0.0204348
0.020648
0.0207722
0.0207754
0.0206335
0.0203203
0.0198212
0.0191713
0.0183524
0.0173464
0.0161401
0.0147243
0.0130358
0.0111575
0.00930918
0.00753117
0.00584298
0.00431265
0.00295394
0.00187167
0.00114727
0.000734229
0.000540695
0.000444279
0.000358052
0.000190746
0.0101658
0.0120828
0.0148578
0.0168856
0.00914885
0.00849225
0.00801094
0.00766163
0.00740857
0.00722468
0.00709083
0.00699267
0.00692041
0.00686747
0.00682928
0.00679933
0.00678263
0.00677576
0.00676414
0.00675841
0.00675807
0.00675413
0.00674983
0.00674252
0.00673306
0.00672351
0.00671968
0.00672443
0.00673371
0.00675099
0.00673477
0.00672046
0.00670906
0.0180166
0.0186328
0.0189637
0.019172
0.0193567
0.0195686
0.0198226
0.020105
0.0203801
0.0206034
0.020736
0.020753
0.0206373
0.020366
0.0199185
0.0193219
0.0185513
0.0175814
0.0163929
0.0149728
0.0132287
0.0112967
0.00943222
0.00763761
0.00593103
0.00438383
0.00300891
0.00190838
0.00116708
0.000743584
0.00054369
0.000445541
0.000358816
0.000191456
0.00994101
0.011727
0.0145772
0.0167922
0.018016
0.00901199
0.00839297
0.00793743
0.00760835
0.00736995
0.00719687
0.00707077
0.00697829
0.00691041
0.00686078
0.00682489
0.0067964
0.0067814
0.00677516
0.00676298
0.00675869
0.00675783
0.00675377
0.00674964
0.00674248
0.00673304
0.00672351
0.00671967
0.00672441
0.00673365
0.00675089
0.00673495
0.00672052
0.00670908
0.0185509
0.018797
0.0189263
0.0190403
0.0191941
0.0194101
0.0196851
0.0199917
0.0202854
0.0205199
0.0206621
0.020695
0.0206079
0.0203799
0.0199852
0.0194436
0.018724
0.0177943
0.0166283
0.015177
0.0133919
0.0114488
0.0095678
0.00775548
0.00602947
0.00446327
0.0030705
0.00194977
0.00118955
0.000754173
0.000547255
0.000446729
0.000359785
0.000192503
0.0097295
0.0113674
0.0142174
0.0166238
0.0178732
0.0184496
0.00887883
0.00829476
0.00786527
0.00755614
0.00733218
0.00716971
0.00705132
0.00696471
0.00690117
0.00685461
0.00682069
0.00679387
0.00678033
0.00677443
0.00676202
0.00675895
0.00675743
0.00675357
0.00674962
0.00674246
0.00673304
0.00672352
0.00671964
0.00672427
0.00673344
0.00675078
0.00673514
0.00672057
0.0067091
0.0186235
0.0186751
0.0187145
0.0188004
0.0189608
0.0192033
0.0195119
0.0198477
0.0201604
0.0204059
0.0205587
0.02061
0.0205539
0.0203709
0.0200298
0.0195442
0.0188769
0.0179893
0.0168184
0.0153473
0.0135677
0.0116147
0.00971706
0.00788618
0.00613973
0.00455224
0.00313975
0.00199665
0.0012151
0.000766349
0.000551254
0.000448374
0.000360809
0.000193346
0.00952952
0.0110169
0.0138078
0.0163752
0.0177896
0.018254
0.0184382
0.00874855
0.00819793
0.00779467
0.00750513
0.00729537
0.00714343
0.007033
0.00695217
0.00689263
0.0068489
0.00681676
0.0067917
0.00677937
0.00677361
0.00676121
0.00675901
0.00675717
0.00675356
0.0067496
0.00674246
0.00673306
0.00672355
0.00671959
0.00672402
0.00673326
0.00675064
0.00673534
0.00672063
0.00670912
0.0184271
0.0183914
0.0184028
0.0184943
0.0186831
0.0189656
0.0193141
0.01968
0.0200102
0.0202662
0.0204314
0.0205043
0.0204822
0.0203458
0.0200592
0.0196297
0.0190149
0.0181442
0.0169748
0.0155272
0.0137562
0.011795
0.00988137
0.00803134
0.0062635
0.00465227
0.00321793
0.00204994
0.0012444
0.000780359
0.000556006
0.000449996
0.000362023
0.000194613
0.00933929
0.0106817
0.0133624
0.0160732
0.01764
0.0182044
0.0181902
0.0181702
0.00862096
0.00810283
0.00772584
0.00745545
0.00725987
0.00711876
0.0070161
0.00694058
0.00688476
0.00684363
0.00681314
0.00678982
0.00677857
0.00677268
0.0067603
0.0067592
0.00675712
0.00675353
0.0067496
0.00674248
0.00673309
0.00672372
0.00671951
0.00672376
0.00673308
0.00675048
0.00673555
0.00672068
0.00670915
0.0180786
0.0180131
0.018026
0.018144
0.0183754
0.0187068
0.0190975
0.0194916
0.0198371
0.0201037
0.0202844
0.0203828
0.0203977
0.0203099
0.0200783
0.0197044
0.0191221
0.01827
0.017137
0.0157163
0.0139575
0.0119909
0.0100623
0.00819282
0.00640274
0.00476517
0.00330659
0.00211089
0.00127813
0.000796531
0.000561488
0.000452241
0.000363438
0.000195908
0.00915781
0.0103644
0.0128945
0.0157297
0.0174519
0.0181019
0.0181359
0.0178716
0.0177565
0.00849612
0.00800985
0.00765899
0.00740759
0.00722663
0.00709606
0.00700053
0.00692991
0.00687752
0.00683877
0.0068098
0.00678817
0.006778
0.00677129
0.00675986
0.00675951
0.00675704
0.00675353
0.00674961
0.00674252
0.00673335
0.00672403
0.00671944
0.00672348
0.00673289
0.0067503
0.00673576
0.00672074
0.00670917
0.0176388
0.0175682
0.0176026
0.0177616
0.0180477
0.0184324
0.0188645
0.0192832
0.0196417
0.0199207
0.020121
0.0202492
0.0203046
0.0202671
0.0200907
0.01976
0.0192081
0.0183976
0.0173038
0.0159141
0.014172
0.0122034
0.0102615
0.00837272
0.00655968
0.00489309
0.00340762
0.00218089
0.00131732
0.000815424
0.000568129
0.000454323
0.000365245
0.000197904
0.008985
0.0100644
0.0124124
0.0153444
0.017236
0.0179775
0.0180365
0.0177904
0.0174077
0.0172547
0.00837405
0.00791945
0.0075948
0.00736288
0.00719618
0.0070752
0.0069862
0.00692009
0.00687084
0.00683429
0.00680666
0.00678667
0.00677732
0.0067707
0.00675996
0.00675956
0.00675704
0.00675356
0.00674963
0.00674279
0.00673384
0.00672437
0.00671937
0.00672318
0.0067327
0.00675011
0.00673599
0.00672079
0.00670919
0.0171287
0.0170727
0.0171424
0.0173584
0.0177055
0.0181449
0.0186148
0.019053
0.019424
0.0197189
0.019944
0.0201066
0.0202057
0.0202201
0.0200952
0.0198036
0.0192928
0.0185259
0.0174744
0.0161199
0.0143999
0.0124335
0.0104808
0.00857331
0.00673685
0.00503856
0.00352327
0.00226191
0.00136315