/*--------------------------------*- C++ -*----------------------------------*\
  =========                 |
  \\      /  F ield         | OpenFOAM: The Open Source CFD Toolbox
   \\    /   O peration     | Website:  https://openfoam.org
    \\  /    A nd           | Version:  8
     \\/     M anipulation  |
\*---------------------------------------------------------------------------*/
FoamFile
{
    version     2.0;
    format      ascii;
    class       volScalarField;
    location    "0.01";
    object      epsilon;
}
// * * * * * * * * * * * * * * * * * * * * * * * * * * * * * * * * * * * * * //

dimensions      [0 2 -3 0 0 0 0];

internalField   nonuniform List<scalar> 
15677
(
86.2208
24.466
74.4758
9.79476
43.8605
74.8738
5.26085
19.6766
61.0762
77.99
3.47455
10.2014
28.3759
80.7903
85.6547
2.65489
6.14677
14.1991
39.4745
97.8112
93.1652
2.25001
4.19209
8.17265
19.0323
50.3916
108.209
98.2701
2.05041
3.15943
5.33422
10.3786
24.0656
58.5906
113.148
101.584
1.96047
2.58485
3.84639
6.46706
12.5737
28.3133
63.6482
114.972
103.728
1.92696
2.26159
3.00491
4.48858
7.51803
14.4754
31.3508
66.3834
115.522
105.061
1.91938
2.08718
2.50963
3.39104
5.05529
8.41202
15.9537
33.2743
67.9033
115.461
105.899
1.92013
2.0009
2.21763
2.74503
3.726
5.53138
9.1369
16.9767
34.4744
68.7369
115.162
106.509
1.92173
1.96288
2.05317
2.35553
2.95368
4.01287
5.92618
9.67143
17.6503
35.1906
69.1867
114.799
106.971
1.92264
1.94699
1.97107
2.12425
2.48643
3.14307
4.25778
6.23052
10.0322
18.0549
35.6005
69.4572
114.477
107.322
1.92317
1.94187
1.93361
1.99508
2.20264
2.61829
3.31339
4.45146
6.43924
10.2451
18.2737
35.8383
69.6383
114.166
107.599
1.92355
1.94101
1.9187
1.93609
2.03756
2.29569
2.74731
3.45083
4.58606
6.55953
10.3499
18.3794
35.9734
69.7387
113.832
107.97
1.92388
1.94116
1.9144
1.91073
1.95217
2.10075
2.39944
2.85424
3.54713
4.66234
6.61238
10.3858
18.4137
36.0267
69.7471
113.536
108.24
1.92418
1.94149
1.9133
1.90153
1.91615
1.98943
2.18784
2.48893
2.92964
3.60159
4.69283
6.62255
10.3836
18.4015
36.0088
69.7334
113.178
108.746
1.92447
1.94182
1.91307
1.89837
1.90395
1.93748
2.06465
2.26734
2.55258
2.97275
3.62271
4.69546
6.61478
10.3567
18.3488
35.9682
69.6411
112.914
109.074
1.92475
1.9421
1.91307
1.89723
1.89989
1.91915
1.99786
2.1395
2.32451
2.5896
2.99017
3.6237
4.68814
6.58684
10.2979
18.2799
35.8826
69.564
112.581
109.649
1.92499
1.94235
1.91307
1.89675
1.89843
1.91305
1.97105
2.07256
2.19355
2.35831
2.60568
2.99131
3.61814
4.6654
6.54104
10.2402
18.1971
35.8097
69.4159
112.35
110.087
1.92517
1.9426
1.91304
1.89649
1.89781
1.91094
1.96151
2.04542
2.12569
2.22583
2.37395
2.60766
2.98757
3.60157
4.633
6.49952
10.1798
18.1285
35.6899
69.2836
112.08
110.673
1.9253
1.94288
1.91303
1.89633
1.89747
1.91013
1.9583
2.03554
2.09836
2.15738
2.24132
2.37708
2.60532
2.97632
3.57937
4.60445
6.45936
10.129
18.0433
35.5862
69.0995
111.877
111.229
1.92543
1.94312
1.91306
1.8962
1.89723
1.90971
1.95726
2.03217
2.08838
2.12978
2.17283
2.24554
2.3757
2.59809
2.96146
3.56028
4.57867
6.42603
10.0771
17.9747
35.4492
68.9134
111.671
111.953
1.92555
1.94328
1.91311
1.89613
1.89706
1.90943
1.95688
2.03108
2.0849
2.11958
2.14517
2.17774
2.24481
2.37119
2.58842
2.94914
3.54436
4.55843
6.39711
10.0389
17.8994
35.3135
68.6924
111.553
112.481
1.92564
1.94339
1.91313
1.89612
1.89696
1.90921
1.95666
2.03067
2.08368
2.11586
2.13484
2.15027
2.17742
2.24203
2.36509
2.58085
2.94002
3.53342
4.54414
6.37868
10.0053
17.8321
35.159
68.5068
111.38
113.406
1.92571
1.94345
1.91313
1.89613
1.89693
1.90905
1.95646
2.03038
2.08311
2.1144
2.13095
2.13989
2.15012
2.17562
2.2382
2.36077
2.57645
2.93576
3.52881
4.53853
6.368
9.98144
17.7665
35.0297
68.2448
111.349
114.004
1.92575
1.94349
1.91313
1.89614
1.89693
1.90897
1.9563
2.03006
2.08264
2.11358
2.12926
2.13581
2.13978
2.14871
2.17309
2.23606
2.35954
2.57646
2.93686
3.53076
4.54033
6.36735
9.96735
17.7198
34.8604
68.0695
111.262
115.072
1.92577
1.94351
1.91313
1.89616
1.89695
1.90894
1.9562
2.02974
2.0821
2.11284
2.1282
2.13394
2.1357
2.13846
2.14671
2.17216
2.23653
2.36197
2.58143
2.94458
3.54052
4.55096
6.37567
9.96828
17.6696
34.745
67.8197
111.302
115.796
1.92579
1.94354
1.91314
1.89618
1.89697
1.90895
1.95619
2.02946
2.08153
2.11203
2.1272
2.13272
2.13379
2.13434
2.13663
2.14626
2.17356
2.24117
2.37111
2.59525
2.96234
3.56155
4.57427
6.39913
9.97884
17.6505
34.6025
67.6691
111.294
116.896
1.9258
1.94357
1.91316
1.89621
1.897
1.90897
1.95625
2.02928
2.081
2.11117
2.12613
2.13163
2.13255
2.13231
2.13254
2.13633
2.14806
2.17989
2.25378
2.38967
2.61845
2.9899
3.59343
4.61089
6.43723
10.0106
17.6425
34.5166
67.4491
111.418
118.112
1.92582
1.94362
1.9132
1.89624
1.89703
1.909
1.95635
2.02918
2.08056
2.11037
2.12502
2.1305
2.13144
2.13087
2.13047
2.13227
2.13824
2.15511
2.19467
2.27508
2.41628
2.65059
3.02775
3.63754
4.66077
6.49277
10.0617
17.6579
34.4202
67.3197
111.477
119.362
1.92585
1.94367
1.91323
1.89628
1.89706
1.90903
1.95648
2.02916
2.08023
2.10967
2.124
2.12937
2.13033
2.12955
2.12893
2.1302
2.13414
2.14542
2.1708
2.21753
2.30431
2.45228
2.6934
3.07788
3.69512
4.72699
6.56557
10.1355
17.6965
34.3692
67.1588
111.509
120.659
1.92588
1.94373
1.91327
1.89633
1.89711
1.90908
1.95662
2.0292
2.08002
2.10912
2.12314
2.12837
2.12925
2.12823
2.12744
2.12868
2.13199
2.14117
2.16135
2.19447
2.24865
2.34339
2.49934
2.74872
3.14168
3.76847
4.81018
6.65927
10.2304
17.7673
34.34
66.955
111.581
122.091
1.92591
1.94379
1.91331
1.89636
1.89715
1.90914
1.95676
2.0293
2.0799
2.10872
2.12245
2.12753
2.12829
2.12698
2.12584
2.12719
2.13039
2.13876
2.157
2.18546
2.22669
2.28999
2.39394
2.55932
2.81816
3.22114
3.85874
4.91275
6.77343
10.3514
17.8765
34.335
66.7667
111.75
123.664
1.94385
1.92593
1.91333
1.89638
1.89719
1.9092
1.9569
2.02943
2.07988
2.10847
2.12197
2.12689
2.12751
2.12591
2.12423
2.1256
2.12885
2.13688
2.15429
2.18136
2.21831
2.26947
2.34325
2.4579
2.63391
2.90361
3.31768
3.96781
5.03523
6.91095
10.5139
18.038
34.359
66.6405
112.034
125.335
1.91337
1.94396
1.92597
1.89637
1.89719
1.90926
1.95703
2.0296
2.07994
2.10837
2.12168
2.12646
2.12694
2.12508
2.12278
2.12399
2.12723
2.1351
2.15201
2.17879
2.21462
2.26205
2.3246
2.41048
2.53704
2.72509
3.00665
3.43326
4.09669
5.17984
7.08913
10.7341
18.2393
34.4342
66.5957
112.396
127.073
1.89637
1.91353
1.94418
1.92599
1.89719
1.90929
1.95713
2.02977
2.08006
2.10838
2.12156
2.12625
2.1266
2.1245
2.12157
2.12252
2.12562
2.1333
2.1498
2.1766
2.21237
2.25912
2.31856
2.39428
2.4936
2.63356
2.83459
3.1293
3.56907
4.24742
5.36474
7.32429
10.993
18.4848
34.5787
66.6095
112.804
128.881
1.89721
1.8964
1.91385
1.94442
1.92597
1.9093
1.95716
2.02993
2.08023
2.1085
2.1216
2.12623
2.12647
2.12419
2.12066
2.1213
2.12418
2.13158
2.1476
2.17443
2.21045
2.25756
2.31682
2.3903
2.48077
2.59515
2.74945
2.96472
3.27304
3.72722
4.43913
5.60617
7.59632
11.291
18.7776
34.7796
66.6742
113.264
130.746
1.90943
1.89707
1.89645
1.91422
1.94469
1.92593
1.95717
2.03002
2.08038
2.10867
2.12176
2.12637
2.12653
2.12413
2.12008
2.12039
2.123
2.13009
2.14554
2.17224
2.20855
2.25633
2.31641
2.3904
2.47947
2.58656
2.71746
2.88734
3.11727
3.44016
3.92803
4.68836
5.8838
7.90526
11.6285
19.1159
35.0315
66.809
113.743
132.695
1.95737
1.90907
1.89693
1.89657
1.91464
1.94496
1.92586
2.03009
2.08048
2.10884
2.12198
2.12663
2.12677
2.12429
2.11983
2.11982
2.12215
2.12893
2.14383
2.1702
2.20662
2.25515
2.31637
2.3919
2.48235
2.58911
2.71405
2.86284
3.04934
3.29472
3.65254
4.18887
4.97449
6.19783
8.25078
12.0042
19.4955
35.3335
66.9799
114.267
134.692
2.03043
1.95645
1.90825
1.89691
1.89671
1.91509
1.94525
1.92577
2.08056
2.10893
2.12219
2.12695
2.12712
2.12463
2.11989
2.11961
2.12165
2.12813
2.14255
2.1685
2.20483
2.25399
2.31645
2.39391
2.48677
2.59606
2.72205
2.86655
3.03353
3.23821
3.52073
3.92888
4.48855
5.29812
6.54806
8.63187
12.4153
19.9134
35.6765
67.2045
114.8
136.755
2.08098
2.02947
1.95417
1.90762
1.8969
1.89686
1.91558
1.94554
1.92567
2.10902
2.1223
2.12724
2.12752
2.12509
2.1202
2.11971
2.12152
2.12775
2.14174
2.16724
2.20338
2.25297
2.31662
2.39618
2.49191
2.60486
2.73476
2.88202
3.04693
3.23315
3.47812
3.81579
4.24695
4.82834
5.65933
6.93386
9.04648
12.859
20.3648
36.0606
67.4678
115.375
138.831
2.1095
2.08036
2.02694
1.95208
1.907
1.89691
1.89703
1.9161
1.94582
1.92556
2.1224
2.12739
2.12786
2.12559
2.12066
2.12006
2.12172
2.12776
2.14144
2.16651
2.20239
2.25228
2.31696
2.39872
2.49759
2.61479
2.74985
2.90282
3.07243
3.25944
3.48892
3.79155
4.1561
4.6091
5.20867
6.05801
7.35384
9.49225
13.3319
20.8465
36.479
67.7801
115.951
140.942
2.12294
2.10924
2.07835
2.0247
1.94989
1.90642
1.89694
1.89723
1.91667
1.9461
1.92544
2.12751
2.12803
2.12602
2.12117
2.12056
2.12218
2.12813
2.14163
2.16632
2.20197
2.25205
2.3176
2.40152
2.50382
2.62574
2.76676
2.92691
3.10434
3.29853
3.53343
3.82649
4.15537
4.54276
5.01622
5.62976
6.49351
7.80602
9.96651
13.8312
21.3537
36.9318
68.1212
116.559
143.03
2.12814
2.12297
2.10778
2.07671
2.02234
1.94767
1.90588
1.89699
1.89746
1.91727
1.94639
1.92531
2.12815
2.12623
2.12157
2.1211
2.12278
2.12877
2.14223
2.16665
2.20213
2.25235
2.31868
2.40458
2.51047
2.63777
2.78548
2.95396
3.14101
3.3458
3.59229
3.8987
4.22222
4.57402
4.97905
5.46849
6.09229
6.96428
8.28821
10.4667
14.3531
21.8837
37.4103
68.4992
117.156
145.12
2.12886
2.12837
2.12186
2.10681
2.07496
2.01992
1.94546
1.90539
1.89704
1.89772
1.91791
1.94667
1.92518
2.12637
2.1217
2.12151
2.12341
2.12957
2.14314
2.16744
2.20286
2.25324
2.32029
2.40803
2.51736
2.65056
2.80615
2.9841
3.18243
3.4002
3.66236
3.98865
4.33224
4.68255
5.05164
5.46782
5.96488
6.59509
7.46851
8.79847
10.9898
14.8941
22.4317
37.9127
68.8947
117.776
147.15
2.12717
2.12923
2.12739
2.12135
2.10574
2.07315
2.01747
1.9433
1.90495
1.89712
1.89803
1.91858
1.94696
1.92505
2.12176
2.12161
2.12388
2.13036
2.14421
2.16856
2.20407
2.25468
2.32248
2.41195
2.52457
2.6636
2.82819
3.01771
3.22904
3.46224
3.74354
4.09571
4.46625
4.84461
5.21547
5.59348
6.01247
6.50744
7.13726
8.0051
9.33441
11.5325
15.4506
22.9938
38.4303
69.3156
118.372
149.177
2.12257
2.12768
2.12823
2.12713
2.12074
2.10465
2.07135
2.015
1.94126
1.90454
1.89722
1.89839
1.9193
1.94725
1.92491
2.12162
2.12401
2.13096
2.14524
2.16982
2.2056
2.25657
2.3252
2.41637
2.53218
2.6769
2.85061
3.05383
3.28159
3.53297
3.83735
4.22183
4.62806
5.04261
5.45094
5.83207
6.20649
6.61623
7.09759
7.7164
8.57267
9.89307
12.0916
16.0187
23.5652
38.961
69.742
118.992
151.123
2.12245
2.12303
2.12666
2.12806
2.12674
2.12012
2.10361
2.06958
2.01242
1.93928
1.90418
1.89734
1.89879
1.92003
1.94752
1.92478
2.12403
2.13116
2.14603
2.17103
2.20725
2.25873
2.32831
2.4212
2.54018
2.69047
2.87327
3.09074
3.33874
3.614
3.94618
4.3713
4.82457
5.28961
5.7463
6.1748
6.54849
6.90008
7.28364
7.73716
8.33078
9.16849
10.4714
12.6636
16.595
24.1423
39.4968
70.1845
119.572
153.059
2.12497
2.12267
2.12163
2.12656
2.12773
2.12633
2.1196
2.10267
2.06781
2.0098
1.93734
1.90386
1.89749
1.89922
1.92076
1.94779
1.92465
2.13124
2.14635
2.17196
2.20881
2.26095
2.33162
2.42628
2.54845
2.70423
2.8961
3.12806
3.3977
3.70374
4.07352
4.55085
5.06837
5.60599
6.13517
6.62517
7.05222
7.38725
7.68635
8.02026
8.42784
8.98068
9.79014
11.0664
13.2458
17.1759
24.7207
40.036
70.6221
120.184
154.897
2.13234
2.1251
2.12034
2.12133
2.12627
2.12737
2.12604
2.11922
2.1018
2.06605
2.00714
1.93548
1.90358
1.89767
1.89964
1.92148
1.94805
1.92452
2.14652
2.17237
2.21002
2.26301
2.3349
2.43141
2.55679
2.718
2.91894
3.16557
3.45778
3.79804
4.21817
4.77143
5.38088
6.02805
6.67012
7.25798
7.75186
8.13272
8.37676
8.57936
8.83185
9.17032
9.66509
10.4347
11.6756
13.8348
17.7579
25.2971
40.5716
71.0702
120.732
156.72
2.14779
2.13222
2.12219
2.11912
2.12089
2.12593
2.12715
2.12593
2.11898
2.101
2.06427
2.00439
1.9337
1.90335
1.89788
1.90006
1.92217
1.94831
1.92439
2.17262
2.21065
2.26466
2.33791
2.43634
2.56497
2.73153
2.9415
3.20289
3.51861
3.89586
4.37452
5.03948
5.79811
6.61528
7.43745
8.18524
8.79149
9.22071
9.47557
9.5486
9.59349
9.72343
9.96475
10.3821
11.0974
12.2961
14.4271
18.3377
25.8676
41.1029
71.5042
121.336
158.436
2.17409
2.14717
2.12827
2.12055
2.11763
2.12046
2.12573
2.12711
2.126
2.11887
2.10025
2.06245
2.00157
1.93201
1.90316
1.89811
1.90047
1.92283
1.94857
1.92426
2.21111
2.26565
2.34041
2.44086
2.57274
2.74458
2.9635
3.23961
3.57971
3.99654
4.54259
5.35434
6.35128
7.45611
8.56239
9.57127
10.3714
10.8959
11.1374
11.143
10.9338
10.7414
10.6984
10.8101
11.1292
11.7734
12.9234
15.0191
18.9119
26.4294
41.624
71.9442
121.847
159.888
2.2129
2.17277
2.14152
2.12575
2.11862
2.1161
2.12024
2.12572
2.12727
2.12624
2.11888
2.09952
2.06056
1.99874
1.93044
1.90299
1.89834
1.90087
1.92346
1.94881
1.92414
2.26646
2.34216
2.44474
2.57989
2.7569
2.98463
3.27539
3.64054
4.09935
4.72528
5.72471
7.04358
8.61596
10.2078
11.6297
12.7594
13.4755
13.741
13.6079
13.1938
12.5591
12.0324
11.7576
11.704
11.9029
12.4603
13.5536
15.6073
19.4775
26.9795
42.135
72.3656
122.345
161.141
2.2687
2.21066
2.16502
2.13748
2.12296
2.1166
2.11483
2.12027
2.12591
2.12762
2.12664
2.11898
2.0988
2.05864
1.99594
1.92897
1.90283
1.89857
1.90125
1.92404
1.94904
1.92402
2.34368
2.44774
2.5862
2.76832
3.00466
3.30991
3.70062
4.20395
4.92871
6.16103
7.88009
10.0789
12.4699
14.6181
16.2801
17.3569
17.7507
17.4926
16.7298
15.6778
14.4445
13.4712
12.8993
12.642
12.698
13.1541
14.1827
16.1883
20.0316
27.5157
42.6317
72.7256
122.726
162.536
2.3467
2.26517
2.20013
2.15903
2.13319
2.1201
2.11477
2.11398
2.12052
2.1263
2.12815
2.12718
2.11916
2.09806
2.0567
1.99316
1.92758
1.90268
1.89879
1.90161
1.92456
1.94926
1.92394
2.45046
2.59146
2.77863
3.02338
3.34292
3.75951
4.31063
5.15823
6.66
8.85594
11.8312
15.2815
18.6569
21.3067
22.997
23.7193
23.4406
22.3026
20.5867
18.633
16.6017
15.0574
14.1187
13.6185
13.509
13.8506
14.807
16.7591
20.5719
28.0356
43.0481
73.0333
123.144
164.078
2.45468
2.34147
2.25081
2.1916
2.15277
2.12895
2.1175
2.11313
2.11358
2.12097
2.12689
2.12884
2.12784
2.11937
2.0973
2.05471
1.9904
1.92626
1.90255
1.89901
1.90197
1.92504
1.94945
1.92393
2.59633
2.78765
3.04061
3.37422
3.8169
4.41961
5.40555
7.2097
9.95969
13.8513
18.5948
23.5809
27.9577
30.8878
32.2404
32.174
30.761
28.2982
25.2418
22.0828
19.0332
16.7853
15.4084
14.6267
14.3303
14.5453
15.4228
17.3169
21.096
28.4712
43.4052
73.3762
123.605
165.797
2.6026
2.44716
2.32197
2.23874
2.18285
2.14651
2.12511
2.11526
2.11172
2.11357
2.1216
2.12765
2.12967
2.12859
2.11958
2.09647
2.05268
1.98766
1.92501
1.90245
1.89924
1.90235
1.92548
1.94957
1.92394
2.7961
3.0562
3.4036
3.87256
4.531
5.66695
7.80481
11.1723
16.1075
22.3585
29.2773
35.8904
41.0804
43.8937
44.3996
42.9913
39.8829
35.5723
30.734
26.0347
21.7323
18.6449
16.759
15.6587
15.156
15.2339
16.0269
17.8595
21.5358
28.8454
43.8014
73.7602
124.11
167.691
2.80564
2.59214
2.42057
2.30507
2.22657
2.17423
2.14069
2.12174
2.11335
2.11061
2.11389
2.12242
2.12856
2.13061
2.12937
2.11975
2.09557
2.05058
1.98495
1.92384
1.90239
1.89951
1.90269
1.92569
1.94959
1.92396
3.07086
3.43086
3.92634
4.6447
5.93926
8.43628
12.4759
18.5658
26.5087
35.6402
44.8784
52.9426
58.5535
60.714
59.7575
56.3622
50.9174
44.1752
37.0742
30.4791
24.6836
20.6221
18.1594
16.7065
15.9806
15.9129
16.6165
18.3165
21.9145
29.2606
44.2433
74.1915
124.649
169.809
3.08598
2.79137
2.55578
2.39698
2.28823
2.21465
2.16615
2.13544
2.11882
2.11175
2.1098
2.11448
2.12342
2.12958
2.13161
2.13014
2.11985
2.09456
2.04841
1.98228
1.92277
1.90244
1.89971
1.9029
1.9257
1.9496
1.92396
3.45674
3.97813
4.76041
6.21909
9.09446
13.8509
21.1872
30.9742
42.5496
54.7302
66.0813
75.1721
80.6736
81.5719
78.4765
72.3856
63.9082
54.1102
44.2432
35.3901
27.8645
22.7
19.5978
17.7626
16.7992
16.5792
17.1135
18.7112
22.3355
29.7226
44.7377
74.6721
125.246
172.14
3.48193
3.06677
2.74109
2.52296
2.37372
2.27182
2.20344
2.15871
2.13075
2.11628
2.11045
2.10933
2.11528
2.12458
2.13066
2.13262
2.13086
2.11982
2.09343
2.04619
1.97973
1.92184
1.90246
1.89993
1.90294
1.92571
1.9496
1.92394
4.02865
4.87762
6.50276
9.76958
15.2779
23.9297
35.6792
49.8803
65.252
80.2001
93.149
102.694
107.516
106.534
100.599
91.0671
78.8277
65.3314
52.193
40.7277
31.246
24.8595
21.0628
18.8201
17.6079
17.1451
17.5425
19.1514
22.8048
30.2378
45.2909
75.2122
125.887
174.765
4.07704
3.45562
2.99615
2.69524
2.49086
2.35114
2.25631
2.19303
2.15191
2.12657
2.11408
2.10941
2.10926
2.11622
2.12586
2.13177
2.13362
2.13149
2.11964
2.09218
2.04399
1.97735
1.9207
1.90238
1.8999
1.90293
1.9257
1.94959
1.92393
4.99494
6.78632
10.4521
16.7376
26.7498
40.5466
57.5064
76.2554
95.03
112.087
125.953
135.368
138.987
135.539
126.057
112.321
95.5789
77.7482
60.851
46.4393
34.7951
27.0817
22.5434
19.8729
18.2988
17.6367
18.0216
19.6436
23.3294
30.814
45.9114
75.8124
126.617
177.649
5.10569
4.03883
3.35234
2.93154
2.65075
2.4598
2.32974
2.24181
2.18339
2.14568
2.12288
2.11219
2.10851
2.10959
2.11726
2.12721
2.13286
2.13456
2.13196
2.11928
2.09091
2.04189
1.97462
1.92026
1.90248
1.89983
1.90293
1.9257
1.94957
1.92394
7.06729
11.1335
18.2101
29.6061
45.5016
65.3064
87.5606
110.327
131.666
149.983
164.093
172.898
174.886
168.426
154.69
135.976
114.004
91.2322
70.1235
52.464
38.4773
29.3482
24.0303
20.7792
18.9017
18.1891
18.5587
20.1955
23.9173
31.4598
46.6071
76.4914
127.397
180.939
5.04849
7.32903
3.87286
3.25927
2.86938
2.60787
2.43029
2.30961
2.22827
2.17446
2.13992
2.11964
2.11063
2.10781
2.11022
2.11842
2.12856
2.13391
2.13538
2.13224
2.11887
2.0897
2.03915
1.9734
1.92045
1.90236
1.89983
1.90294
1.92569
1.94944
1.92402
11.8065
19.6782
32.4622
50.4745
73.1665
99.0003
125.868
151.613
174.46
193.212
207.051
214.931
214.955
204.956
186.25
161.794
133.896
105.625
79.9026
58.7374
42.2588
31.6424
25.3201
21.5741
19.5827
18.8121
19.1629
20.8164
24.578
32.1854
47.3901
77.2432
128.321
184.544
4.74561
7.23218
12.4293
3.72864
3.17111
2.8097
2.56707
2.40241
2.2907
2.21562
2.16614
2.13461
2.11685
2.10938
2.10737
2.11107
2.11969
2.12989
2.13485
2.13605
2.13247
2.11854
2.08754
2.03804
1.97359
1.92035
1.90236
1.89991
1.90291
1.92547
1.94925
1.92414
21.1273
35.2857
55.4038
80.9839
110.422
141.448
171.686
199.132
222.464
241.025
254.319
261.129
258.909
244.826
220.419
189.478
155.012
120.748
90.0754
65.1954
46.1078
33.6464
26.4577
22.4774
20.3551
19.5173
19.8453
21.5172
25.3229
33.0027
48.2693
78.1068
129.291
188.73
4.48786
6.62417
12.3021
22.4632
3.59684
3.08701
2.75293
2.52843
2.3761
2.27292
2.20375
2.15838
2.12979
2.11452
2.10844
2.1072
2.11205
2.12101
2.1311
2.13564
2.13669
2.13279
2.11703
2.08678
2.03849
1.97341
1.92035
1.90248
1.89994
1.90269
1.92503
1.94903
1.92427
38.0486
60.2371
88.6706
121.691
156.882
191.656
223.769
251.679
274.707
292.761
305.489
311.191
306.433
287.675
256.827
218.694
177.084
136.419
100.53
71.777
49.4843
35.4215
27.7579
23.5086
21.2351
20.3189
20.6189
22.3108
26.1651
33.9251
49.2642
79.0603
130.504
193.283
4.26138
6.10597
11.0724
22.3453
40.5597
3.47386
3.00714
2.6991
2.49185
2.35125
2.25616
2.19261
2.1512
2.12558
2.11261
2.10777
2.10728
2.11309
2.12233
2.13218
2.13643
2.13744
2.13174
2.11675
2.08744
2.03832
1.97341
1.92045
1.90238
1.89971
1.90235
1.92455
1.9488
1.92439
64.9299
96.1541
132.696
172.009
211.318
248.142
280.686
308.081
330.376
347.947
360.277
364.851
357.185
333.096
295.061
249.082
199.844
152.457
111.158
77.5512
52.4814
37.4596
29.2513
24.6913
22.242
21.2335
21.4993
23.2124
27.1198
34.9689
50.3826
80.1847
131.736
198.698
4.05819
5.65314
9.98571
20.0491
40.5309
69.1736
3.35851
2.93145
2.64809
2.45721
2.32775
2.24034
2.1822
2.14474
2.12197
2.11104
2.10729
2.10762
2.1141
2.1236
2.1333
2.13738
2.13664
2.13181
2.1179
2.08735
2.03832
1.97359
1.92027
1.90246
1.89951
1.90196
1.92402
1.94856
1.92452
103.374
143.346
186.696
230.486
272.032
309.283
341.095
367.393
388.942
406.334
418.508
421.849
410.784
380.634
334.68
280.282
223.029
168.689
120.451
82.6694
55.9282
39.8114
30.9752
26.054
23.3989
22.2812
22.5047
24.2398
28.2047
36.1506
51.6583
81.4081
133.408
204.506
3.87364
5.25149
9.01752
17.9509
36.6716
69.4651
109.892
3.25009
2.85978
2.59975
2.42439
2.30551
2.2255
2.17273
2.13902
2.11889
2.10973
2.1068
2.10811
2.11506
2.125
2.13461
2.13664
2.13681
2.13335
2.11789
2.08735
2.0385
1.9734
1.92071
1.90244
1.89923
1.9016
1.92344
1.94831
1.92465
153.568
200.84
249.011
295.233
337.242
373.603
403.943
429.028
450.189
467.864
480.059
481.897
466.797
429.801
375.244
311.94
246.385
182.813
128.657
88.5429
59.9114
42.5385
32.9743
27.631
24.7335
23.4855
23.6565
25.4134
29.4393
37.4925
53.0884
82.9015
134.988
211.517
3.70492
4.89308
8.14974
16.0314
33.0086
63.7186
110.819
162.794
3.14811
2.79191
2.55394
2.39328
2.28457
2.21191
2.16422
2.13389
2.11627
2.10863
2.10632
2.10865
2.1162
2.12672
2.13407
2.13677
2.1385
2.1334
2.1179
2.08747
2.03806
1.97463
1.92186
1.90239
1.899
1.90123
1.92281
1.94805
1.92478
214.357
266.779
317.576
364.334
405.38
439.981
468.606
492.81
514.192
532.598
544.798
544.643
524.731
480.095
416.311
343.717
266.606
195.22
138.028
95.3127
64.5358
45.7152
35.3029
29.4638
26.2791
24.8746
24.9795
26.7564
30.8459
39.0123
54.7339
84.4809
137.379
220.424
3.55016
4.57254
7.37123
14.2733
29.5446
58.1278
103.127
164.721
226.562
3.0521
2.72769
2.51054
2.36399
2.26535
2.19962
2.15651
2.12923
2.11397
2.1076
2.10589
2.10949
2.11778
2.12636
2.13417
2.13852
2.13855
2.13341
2.11792
2.08681
2.03919
1.97739
1.92279
1.90245
1.89878
1.90085
1.92215
1.94779
1.92491
283.696
338.937
390.365
436.164
475.298
507.79
534.953
558.951
581.225
600.614
612.511
609.644
584.061
531.001
457.452
371.122
284.278
209.304
148.774
103.149
69.9271
49.4312
38.0266
31.6019
28.075
26.4812
26.5023
28.2946
32.4509
40.7411
56.5607
86.4673
139.665
231.981
3.40786
4.28605
6.6743
12.6667
26.2816
52.6914
95.4883
155.344
229.845
298.982
2.96168
2.66695
2.4697
2.33706
2.24792
2.18841
2.14944
2.12496
2.11185
2.10663
2.10588
2.11087
2.11701
2.12648
2.13595
2.13853
2.13856
2.13337
2.11677
2.08758
2.04196
1.9798
1.92387
1.90255
1.89856
1.90046
1.92146
1.94752
1.92505
359.212
415.193
465.719
509.589
546.41
576.968
603.344
627.961
651.628
671.901
682.867
676.387
644.216
581.997
492.852
394.965
304.218
225.353
161.144
112.253
76.2363
53.795
41.2242
34.1049
30.1681
28.3435
28.2569
30.0484
34.2787
42.6855
58.6558
88.8905
143.721
242.282
3.27675
4.03053
6.05333
11.2061
23.2238
47.4172
87.8874
145.884
219.275
303.908
377.539
2.87648
2.60994
2.43222
2.31264
2.23197
2.17806
2.14283
2.12097
2.10988
2.10607
2.10671
2.1096
2.11704
2.12829
2.1359
2.13854
2.13853
2.13185
2.11705
2.08977
2.04407
1.98237
1.92506
1.90268
1.89833
1.90005
1.92075
1.94724
1.92518
438.699
493.872
542.55
584.108
618.772
648.058
674.567
700.49
725.626
746.265
755.411
744.28
704.586
625.864
523.555
421.731
326.805
243.712
175.433
122.865
83.6444
58.9363
44.9903
37.0437
32.613
30.5051
30.2805
32.0471
36.3468
44.873
61.3888
92.2637
147.952
1166.14
3.15561
3.80323
5.50393
9.88737
20.38
42.3199
80.3259
136.301
208.505
292.728
384.294
459.947
2.79673
2.55779
2.39827
2.29027
2.2172
2.16836
2.13659
2.11729
2.10846
2.10625
2.10475
2.10939
2.11894
2.12815
2.13591
2.13855
2.13685
2.13177
2.11858
2.09098
2.04628
1.98505
1.92631
1.90283
1.8981
1.89963
1.92002
1.94696
1.92531
520.478
573.956
620.484
659.955
693.165
722.181
749.656
777.07
803.169
823.274
829.536
812.654
756.595
663.845
557.891
451.903
352.494
264.787
191.991
135.271
92.3664
65.0106
49.4381
40.5019
35.4733
33.0151
32.6096
34.3191
38.6739
47.7604
64.8534
95.5321
197.702
1306.94
3.04412
3.60145
5.02208
8.7062
17.7677
37.4192
72.8169
126.569
197.453
281.288
373.027
468.611
544.512
2.72399
2.51075
2.36724
2.26957
2.20336
2.15917
2.13074
2.11444
2.10809
2.10322
2.10428
2.11138
2.1187
2.12816
2.13597
2.13681
2.13667
2.13283
2.11891
2.09226
2.04851
1.98777
1.92763
1.90299
1.89788
1.89921
1.9193
1.94667
1.92544
603.611
655.223
699.978
738.219
771.135
800.899
829.601
857.874
883.849
902.24
904.469
871.749
801.622
706.227
596.462
486.063
381.822
289.056
211.226
149.804
102.656
72.2021
54.701
44.5772
38.821
35.9266
35.2804
36.8888
41.7608
51.3337
68.2847
103.777
243.387
1444.16
2.94347
3.42402
4.60321
7.66016
15.3832
32.7385
65.3857
116.676
186.052
269.466
361.528
457.597
555.075
630.357
2.65863
2.46798
2.33861
2.25022
2.19028
2.15056
2.12586
2.113
2.10431
2.10211
2.10655
2.11099
2.1187
2.1283
2.13421
2.13667
2.13747
2.1325
2.11932
2.0935
2.05067
1.9905
1.92902
1.90316
1.89767
1.89879
1.91858
1.94638
1.92557
688.045
738.39
782.493
820.982
854.98
885.932
914.971
942.542
966.882
982.255
969.406
922.995
851.834
753.74
640.001
524.905
415.423
317.077
233.614
166.854
114.813
80.7276
60.935
49.3817
42.7359
39.2941
38.3273
40.3172
45.5691
54.9036
72.4059
114.664
285.797
1537.09
2.85338
3.27317
4.24425
6.74616
13.2302
28.3284
58.0734
106.627
174.244
257.148
349.642
446.485
544.394
642.755
717.57
2.59955
2.42871
2.31194
2.23201
2.17804
2.1432
2.12264
2.10793
2.10287
2.10448
2.10604
2.11099
2.11894
2.12649
2.1341
2.1374
2.13671
2.13227
2.11967
2.09462
2.05276
1.99324
1.93047
1.90336
1.89749
1.89839
1.91789
1.94609
1.92568
774.769
825.344
870.782
911.544
947.593
978.634
1005.53
1030.08
1051.13
1051.67
1025.79
980.202
908.095
807.285
689.388
569.252
454.034
349.496
259.704
186.871
129.181
90.8375
68.3186
55.0403
47.3027
43.1714
42.4252
44.5701
49.3969
58.4676
77.1054
127.367
312.73
1597.8
2.77216
3.14362
3.94459
5.96408
11.3152
24.232
50.9425
96.449
161.98
244.213
337.214
435.096
533.864
632.167
731.735
807.371
2.54574
2.39236
2.28697
2.21503
2.16743
2.13788
2.11558
2.10591
2.10547
2.10372
2.10604
2.11138
2.11704
2.12636
2.13462
2.13645
2.13607
2.13197
2.11985
2.09562
2.05478
1.996
1.93203
1.90359
1.89734
1.89802
1.91725
1.94581
1.92578
866.142
919.622
969.398
1014.57
1051.92
1079.25
1099.93
1118.91
1124.12
1111.97
1088.76
1044.33
971.479
867.952
745.669
620.062
498.507
387.051
290.122
210.369
146.154
102.816
77.051
61.6874
52.6071
48.4334
47.5627
48.8837
53.0846
61.9228
82.4691
136.665
329.324
1639.35
2.69847
3.02958
3.69869
5.3198
9.6518
20.4917
44.0717
86.1982
149.235
230.542
324.065
423.247
523.283
622.128
720.595
823.251
902.465
2.49638
2.35854
2.2638
2.20021
2.15936
2.12855
2.11255
2.10876
2.1046
2.10372
2.10655
2.10938
2.11698
2.12669
2.1333
2.13565
2.13538
2.13149
2.11986
2.09651
2.05675
1.99877
1.93371
1.90386
1.89722
1.89772
1.91665
1.94552
1.92587
966.535
1027.28
1085.44
1135.97
1169.82
1186.08
1195.75
1195.47
1187.43
1179.23
1159.25
1116.58
1043.3
937.043
810.07
678.439
549.813
430.579
325.573
237.919
166.168
116.975
87.3459
69.4613
59.8687
55.1167
52.8403
53.0445
56.4328
65.2646
86.6224
142.74
341.388
1661.12
2.63133
2.92736
3.49503
4.80157
8.26587
17.1763
37.5494
75.9665
136.017
216.025
309.999
410.714
512.461
612.368
710.664
810.369
920.038
1007.83
2.45091
2.32733
2.24348
2.18858
2.14715
2.12438
2.11561
2.10777
2.10459
2.10448
2.10427
2.10956
2.11774
2.12497
2.13218
2.13485
2.13455
2.13086
2.11976
2.09732
2.05867
2.00157
1.93549
1.90419
1.89712
1.89745
1.91608
1.94524
1.92594
1083.69
1158.57
1229.57
1281.89
1299.99
1295.02
1277.51
1261.53
1257.76
1254.25
1238.42
1198.36
1125.12
1016.08
883.997
745.637
609.04
481.007
366.828
270.142
189.692
133.644
99.422
80.1727
69.2076
62.0832
57.9984
56.8086
59.3162
67.7328
89.284
147.368
351.864
1660.39
2.57007
2.8345
3.32499
4.38449
7.14415
14.356
31.507
65.8809
122.379
200.576
294.81
397.241
501.141
602.714
701.423
799.905
903.343
1027.17
1132.48
2.40928
2.29988
2.2272
2.17281
2.14154
2.12768
2.11448
2.10776
2.10546
2.10207
2.1047
2.11084
2.11616
2.12357
2.13109
2.1339
2.13361
2.13013
2.11958
2.09807
2.06057
2.0044
1.93737
1.90455
1.89704
1.89722
1.91555
1.94496
1.92598
1231.69
1331.01
1416.96
1455.23
1435.5
1386.5
1347.23
1334.2
1335.55
1337.95
1327.62
1291.39
1218.8
1106.83
969.036
823.052
677.389
539.342
414.709
307.686
217.204
153.151
116.099
94.0715
79.0752
69.0088
62.7265
59.9362
61.3154
69.0753
91.0617
151.69
360.409
1647.96
2.51456
2.74977
3.18059
4.04662
6.24236
12.032
26.1871
56.1688
108.434
184.148
278.288
382.531
489.036
592.887
692.767
790.575
891.506
1002.9
1154.07
1294
2.37263
2.2775
2.20686
2.16544
2.14515
2.12643
2.11447
2.10874
2.10283
2.10315
2.10668
2.10945
2.11502
2.1223
2.12986
2.13285
2.1326
2.12936
2.11937
2.0988
2.06245
2.00718
1.93932
1.90496
1.89698
1.89702
1.91507
1.94468
1.92599
1437.11
1575.83
1665.88
1646.63
1546.84
1462.8
1422.45
1413.29
1421.21
1431.34
1428.43
1397.62
1326.47
1211.27
1066.95
912.205
756.139
606.633
470.049
351.189
249.162
180.003
137.791
108.892
89.04
75.49
66.6937
62.0875
62.1508
69.5553
92.3586
155.901
371.297
1616.25
2.46593
2.67309
3.05439
3.77051
5.52024
10.1381
21.6786
47.2495
94.4594
166.765
260.246
366.256
475.783
582.596
684.375
782.451
881.186
988.67
1115.29
1320.37
1530.39
2.3423
2.25134
2.19718
2.16937
2.14376
2.1264
2.11558
2.10584
2.10423
2.10622
2.10585
2.10862
2.11406
2.12098
2.12854
2.13175
2.13159
2.12858
2.11915
2.09952
2.06429
2.00986
1.94132
1.90541
1.89694
1.89685
1.91462
1.94442
1.92597
1755.55
1951.51
1977.12
1799.79
1636.07
1542.15
1501.89
1498.32
1515.08
1535.62
1542.74
1519.37
1450.58
1331.66
1179.63
1014.7
846.6
683.914
533.636
401.222
292.787
214.74
160.971
124.017
98.5506
81.0765
69.5361
62.892
62.0449
69.393
93.328
161.875
383.101
1598.44
2.42545
2.60589
2.94257
3.5432
4.94311
8.60856
17.9254
39.376
81.0674
148.661
240.542
348.07
460.96
571.444
675.976
775.119
872.845
976.182
1097.22
1252.82
1574.3
1937.61
2.30856
2.23873
2.20131
2.16783
2.14372
2.12762
2.11245
2.10783
2.10805
2.10604
2.10588
2.10808
2.11306
2.11966
2.12719
2.13064
2.1306
2.12784
2.11897
2.10025
2.06608
2.01249
1.94337
1.9059
1.89691
1.8967
1.91422
1.94418
1.92593
2317.01
2528.43
2220.3
1913.79
1722.76
1621.55
1583.83
1588.72
1617.81
1652.51
1672.99
1659.44
1593.94
1470.48
1309.09
1132.13
950.022
772.114
606.127
468.809
348.545
251.644
184.688
138.645
106.972
85.3079
70.773
62.618
61.2547
68.6284
94.7727
169.817
406.859
1601.86
2.3822
2.5495
2.84446
3.35494
4.48181
7.38257
14.8436
32.554
68.7328
130.567
219.265
327.636
444.088
558.959
667.17
768.337
865.911
966.595
1081.13
1228.42
1443.43
2061.2
2709.62
2.29197
2.24315
2.19956
2.16778
2.14505
2.12424
2.11545
2.11295
2.10844
2.10663
2.10632
2.10761
2.11203
2.1184
2.12585
2.12957
2.12967
2.12717
2.11886
2.101
2.06785
2.01507
1.94554
1.90643
1.8969
1.89657
1.91384
1.94396
1.92591
3474.84
2962.38
2378.57
2011.03
1801.31