/*--------------------------------*- C++ -*----------------------------------*\
  =========                 |
  \\      /  F ield         | OpenFOAM: The Open Source CFD Toolbox
   \\    /   O peration     | Website:  https://openfoam.org
    \\  /    A nd           | Version:  8
     \\/     M anipulation  |
\*---------------------------------------------------------------------------*/
FoamFile
{
    version     2.0;
    format      ascii;
    class       volVectorField;
    location    "0.33";
    object      U;
}
// * * * * * * * * * * * * * * * * * * * * * * * * * * * * * * * * * * * * * //

dimensions      [0 1 -1 0 0 0 0];

internalField   nonuniform List<vector> 
15677
(
(-0.0199301 9.66509 0)
(0.0435662 9.92085 0)
(0.00237266 9.37829 0)
(0.0147274 9.97648 0)
(0.0185873 9.78797 0)
(0.00700185 9.14315 0)
(0.0279492 9.99434 0)
(0.0170642 9.92499 0)
(0.0106961 9.65569 0)
(0.00605898 8.96156 0)
(0.0260895 10.0015 0)
(0.0214441 9.97873 0)
(0.016325 9.85409 0)
(0.00897111 9.53176 0)
(0.00487835 8.81913 0)
(0.0249309 10.0047 0)
(0.0222955 10.0028 0)
(0.0190791 9.94356 0)
(0.0152771 9.78066 0)
(0.00782198 9.42178 0)
(0.00400408 8.70556 0)
(0.0239452 10.0062 0)
(0.0224533 10.0144 0)
(0.020653 9.98673 0)
(0.0181395 9.90371 0)
(0.0137797 9.71014 0)
(0.00673871 9.32472 0)
(0.00333101 8.61432 0)
(0.0226037 10.0067 0)
(0.0222566 10.0201 0)
(0.0214391 10.0087 0)
(0.0199857 9.96627 0)
(0.0168657 9.86405 0)
(0.0123285 9.64403 0)
(0.00578095 9.2406 0)
(0.00276654 8.54136 0)
(0.0209136 10.0067 0)
(0.0216876 10.0224 0)
(0.0217163 10.0201 0)
(0.0210189 9.99939 0)
(0.018838 9.94588 0)
(0.0154464 9.82555 0)
(0.0109456 9.5839 0)
(0.00489513 9.16944 0)
(0.00224635 8.48397 0)
(0.0189897 10.0063 0)
(0.0208238 10.0227 0)
(0.0215501 10.0261 0)
(0.0214519 10.0175 0)
(0.019936 9.99034 0)
(0.0174273 9.92605 0)
(0.0139466 9.78965 0)
(0.00953768 9.53111 0)
(0.00402331 9.11101 0)
(0.00173186 8.44061 0)
(0.016906 10.0057 0)
(0.0197161 10.0219 0)
(0.0210354 10.029 0)
(0.0214018 10.0276 0)
(0.0203923 10.0153 0)
(0.0184865 9.98186 0)
(0.0158397 9.9079 0)
(0.0122974 9.75781 0)
(0.00804046 9.48664 0)
(0.00311945 9.06508 0)
(0.00119385 8.41033 0)
(0.0147211 10.0051 0)
(0.0183798 10.0204 0)
(0.0201984 10.0298 0)
(0.0209924 10.033 0)
(0.0203441 10.0295 0)
(0.0188463 10.0137 0)
(0.0167624 9.97489 0)
(0.0139912 9.89261 0)
(0.0104323 9.73117 0)
(0.00640349 9.45126 0)
(0.0021428 9.0316 0)
(0.000610304 8.39284 0)
(0.0123956 10.0044 0)
(0.0168702 10.0184 0)
(0.0190602 10.0291 0)
(0.0202262 10.0354 0)
(0.0198515 10.0376 0)
(0.0186578 10.0321 0)
(0.0169248 10.0135 0)
(0.0146658 9.97044 0)
(0.0117983 9.88119 0)
(0.00828984 9.71078 0)
(0.00457555 9.4257 0)
(0.00105993 9.01063 0)
(-4.86074e-05 8.3879 0)
(0.0101048 10.0036 0)
(0.0153079 10.0162 0)
(0.0176504 10.0274 0)
(0.0191234 10.0358 0)
(0.0190066 10.0417 0)
(0.0180028 10.0429 0)
(0.0164846 10.0361 0)
(0.0145136 10.0157 0)
(0.0120972 9.9694 0)
(0.00918231 9.87459 0)
(0.00580447 9.69769 0)
(0.0025092 9.41061 0)
(-0.00011341 9.00234 0)
(-0.00071248 8.39553 0)
(0.00813898 10.0029 0)
(0.0136283 10.0138 0)
(0.0160306 10.0251 0)
(0.0176953 10.0348 0)
(0.0177999 10.0432 0)
(0.0169358 10.0488 0)
(0.0155308 10.0495 0)
(0.0136924 10.0424 0)
(0.0114937 10.0211 0)
(0.00895658 9.97262 0)
(0.00605891 9.8738 0)
(0.00291273 9.69287 0)
(0.000162263 9.40666 0)
(-0.00151267 9.00704 0)
(-0.00149283 8.41586 0)
(0.00657337 10.0023 0)
(0.0119944 10.0115 0)
(0.0142247 10.0223 0)
(0.0159544 10.0327 0)
(0.016237 10.0429 0)
(0.0154675 10.0515 0)
(0.0141064 10.0572 0)
(0.0122922 10.0584 0)
(0.0101411 10.0518 0)
(0.00774317 10.0305 0)
(0.00513594 9.981 0)
(0.00234508 9.87984 0)
(-0.00048184 9.69729 0)
(-0.00252203 9.41446 0)
(-0.00307649 9.02491 0)
(-0.00237674 8.44915 0)
(0.00533015 10.0018 0)
(0.010506 10.0096 0)
(0.0124453 10.0195 0)
(0.0139276 10.0299 0)
(0.0143199 10.0411 0)
(0.0136011 10.0519 0)
(0.0122254 10.061 0)
(0.0103529 10.0677 0)
(0.00812663 10.0702 0)
(0.00568455 10.065 0)
(0.00312908 10.0448 0)
(0.000530455 9.99546 0)
(-0.00202826 9.89368 0)
(-0.00431211 9.71181 0)
(-0.00553946 9.43457 0)
(-0.00482312 9.05619 0)
(-0.00335966 8.49548 0)
(0.0043473 10.0015 0)
(0.00910246 10.008 0)
(0.0108205 10.0171 0)
(0.0118766 10.0269 0)
(0.0120611 10.0383 0)
(0.0113365 10.0505 0)
(0.00988797 10.0621 0)
(0.00788533 10.0725 0)
(0.00548564 10.081 0)
(0.00286138 10.0857 0)
(0.000161562 10.0828 0)
(-0.00248563 10.0647 0)
(-0.00497004 10.0169 0)
(-0.00715411 9.91625 0)
(-0.00872208 9.73723 0)
(-0.00893789 9.46741 0)
(-0.00676443 9.10098 0)
(-0.00443752 8.55489 0)
(0.00353215 10.0012 0)
(0.00778891 10.0066 0)
(0.00929804 10.0149 0)
(0.00997804 10.0241 0)
(0.00973749 10.0351 0)
(0.00868122 10.0477 0)
(0.00709128 10.061 0)
(0.00488578 10.0742 0)
(0.00222281 10.0868 0)
(-0.000699287 10.0979 0)
(-0.00369853 10.1057 0)
(-0.00659927 10.1062 0)
(-0.00923537 10.0913 0)
(-0.0114598 10.0463 0)
(-0.0130829 9.94841 0)
(-0.0137369 9.77417 0)
(-0.0127326 9.51326 0)
(-0.00890672 9.15937 0)
(-0.00560841 8.62724 0)
(0.00286529 10.001 0)
(0.00660402 10.0056 0)
(0.00787751 10.0131 0)
(0.00819087 10.0216 0)
(0.00755824 10.0319 0)
(0.00594946 10.0442 0)
(0.00384026 10.0583 0)
(0.00134721 10.0734 0)
(-0.00166869 10.089 0)
(-0.00500049 10.1045 0)
(-0.00843324 10.1192 0)
(-0.011755 10.131 0)
(-0.014754 10.1357 0)
(-0.0172336 10.1252 0)
(-0.0190068 10.0844 0)
(-0.0198465 9.99089 0)
(-0.0193604 9.82313 0)
(-0.0169205 9.57229 0)
(-0.0112381 9.23114 0)
(-0.00686121 8.71219 0)
(0.0023163 10.0008 0)
(0.00553126 10.0047 0)
(0.00656908 10.0115 0)
(0.00652303 10.0194 0)
(0.00549187 10.029 0)
(0.00338792 10.0407 0)
(0.000514499 10.0545 0)
(-0.0027196 10.0706 0)
(-0.00619569 10.0883 0)
(-0.0100552 10.1071 0)
(-0.0140562 10.1264 0)
(-0.0179534 10.1455 0)
(-0.0214977 10.1623 0)
(-0.0244472 10.1724 0)
(-0.0265736 10.1673 0)
(-0.0276632 10.1319 0)
(-0.027463 10.0443 0)
(-0.0255854 9.88438 0)
(-0.0214875 9.64444 0)
(-0.013751 9.3161 0)
(-0.00818844 8.8093 0)
(0.00187905 10.0007 0)
(0.00456097 10.004 0)
(0.00536434 10.0101 0)
(0.00498074 10.0173 0)
(0.0035578 10.0262 0)
(0.000963464 10.0372 0)
(-0.00258729 10.0505 0)
(-0.00684518 10.0664 0)
(-0.0113487 10.0853 0)
(-0.0158724 10.1064 0)
(-0.0205909 10.1291 0)
(-0.0252248 10.1532 0)
(-0.0294887 10.1778 0)
(-0.0331028 10.2005 0)
(-0.035797 10.2169 0)
(-0.0373245 10.2183 0)
(-0.0374538 10.1894 0)
(-0.0359263 10.1089 0)
(-0.0323894 9.95805 0)
(-0.0264042 9.72952 0)
(-0.0164145 9.4136 0)
(-0.00956831 8.91774 0)
(0.0015423 10.0006 0)
(0.00372666 10.0034 0)
(0.0042601 10.0088 0)
(0.00356524 10.0155 0)
(0.00176861 10.0236 0)
(-0.00129333 10.0338 0)
(-0.00550524 10.0464 0)
(-0.0106752 10.0618 0)
(-0.0165389 10.0805 0)
(-0.0224396 10.1029 0)
(-0.0280498 10.1282 0)
(-0.0336045 10.156 0)
(-0.0387778 10.1858 0)
(-0.0432496 10.2166 0)
(-0.0467144 10.2463 0)
(-0.048889 10.2699 0)
(-0.0495179 10.2787 0)
(-0.0483706 10.2574 0)
(-0.0452054 10.1851 0)
(-0.0397269 10.044 0)
(-0.0316276 9.82703 0)
(-0.0192081 9.52309 0)
(-0.0109832 9.03679 0)
(0.00127969 10.0005 0)
(0.00304535 10.003 0)
(0.00329705 10.0078 0)
(0.00227657 10.0138 0)
(0.000132718 10.0212 0)
(-0.00336397 10.0306 0)
(-0.00820341 10.0423 0)
(-0.0142574 10.0569 0)
(-0.0213282 10.0751 0)
(-0.0290105 10.0973 0)
(-0.0364154 10.124 0)
(-0.0431106 10.1546 0)
(-0.0494159 10.1883 0)
(-0.0549643 10.2247 0)
(-0.0594099 10.2629 0)
(-0.0624383 10.3002 0)
(-0.0637652 10.332 0)
(-0.0631465 10.349 0)
(-0.0603709 10.336 0)
(-0.0552365 10.2727 0)
(-0.0475334 10.1419 0)
(-0.0371035 9.93638 0)
(-0.0220736 9.6435 0)
(-0.0123936 9.16483 0)
(0.00107106 10.0004 0)
(0.00249173 10.0026 0)
(0.00250329 10.007 0)
(0.0011618 10.0124 0)
(-0.00134442 10.019 0)
(-0.00523878 10.0275 0)
(-0.0106555 10.0383 0)
(-0.0175455 10.0519 0)
(-0.0257813 10.0692 0)
(-0.035041 10.0908 0)
(-0.0447409 10.1174 0)
(-0.0537195 10.1494 0)
(-0.061429 10.1862 0)
(-0.0683194 10.2268 0)
(-0.0739942 10.2708 0)
(-0.0781006 10.3171 0)
(-0.08033 10.363 0)
(-0.0804197 10.4036 0)
(-0.0781569 10.4294 0)
(-0.0733747 10.4254 0)
(-0.0659329 10.3715 0)
(-0.0557219 10.2511 0)
(-0.0427198 10.0566 0)
(-0.0249007 9.77354 0)
(-0.013359 9.30013 0)
(0.000902636 10.0004 0)
(0.00203881 10.0024 0)
(0.00183171 10.0063 0)
(0.000246947 10.0111 0)
(-0.00260404 10.017 0)
(-0.00690804 10.0246 0)
(-0.0128444 10.0344 0)
(-0.0205048 10.0469 0)
(-0.0298406 10.063 0)
(-0.0406196 10.0836 0)
(-0.0523497 10.1095 0)
(-0.0642352 10.1414 0)
(-0.0747885 10.1798 0)
(-0.083353 10.2237 0)
(-0.0905671 10.2722 0)
(-0.096027 10.3247 0)
(-0.0993919 10.3799 0)
(-0.100386 10.435 0)
(-0.0987923 10.4848 0)
(-0.094456 10.52 0)
(-0.0872682 10.5253 0)
(-0.0771709 10.4811 0)
(-0.0641503 10.371 0)
(-0.0484262 10.1867 0)
(-0.0277037 9.91294 0)
(-0.0144475 9.44269 0)
(0.000764649 10.0003 0)
(0.00166608 10.0022 0)
(0.00128787 10.0058 0)
(-0.000487735 10.0101 0)
(-0.00361828 10.0153 0)
(-0.00830386 10.022 0)
(-0.0147573 10.0306 0)
(-0.02311 10.042 0)
(-0.0334611 10.0567 0)
(-0.0456752 10.076 0)
(-0.0593602 10.1007 0)
(-0.0738169 10.1318 0)
(-0.087995 10.1699 0)
(-0.100033 10.2158 0)
(-0.109183 10.268 0)
(-0.116351 10.3253 0)
(-0.121153 10.387 0)
(-0.123291 10.4517 0)
(-0.122546 10.5164 0)
(-0.118775 10.5759 0)
(-0.1119 10.6206 0)
(-0.101894 10.6353 0)
(-0.0887753 10.6007 0)
(-0.0726658 10.5003 0)
(-0.0533314 10.3256 0)
(-0.0241088 10.0551 0)
(-0.00948348 9.52984 0)
(0.000650324 10.0003 0)
(0.00135737 10.002 0)
(0.000838658 10.0053 0)
(-0.00109964 10.0092 0)
(-0.00442298 10.0139 0)
(-0.00939981 10.0197 0)
(-0.0163172 10.0271 0)
(-0.0253434 10.0371 0)
(-0.0366084 10.0505 0)
(-0.0501497 10.0681 0)
(-0.0656846 10.0913 0)
(-0.0826205 10.121 0)
(-0.100006 10.1583 0)
(-0.116494 10.2038 0)
(-0.129807 10.258 0)
(-0.139154 10.3195 0)
(-0.145797 10.3864 0)
(-0.149396 10.4581 0)
(-0.14973 10.5328 0)
(-0.146676 10.6075 0)
(-0.140192 10.6767 0)
(-0.130297 10.7309 0)
(-0.117034 10.7549 0)
(-0.100532 10.7295 0)
(-0.0806858 10.6383 0)
(-0.0580522 10.4705 0)
(-0.0197816 10.2282 0)
(-0.00161957 9.59719 0)
(0.000556141 10.0003 0)
(0.00110029 10.0018 0)
(0.000459539 10.0049 0)
(-0.00160012 10.0085 0)
(-0.00506575 10.0126 0)
(-0.010247 10.0177 0)
(-0.0175025 10.0241 0)
(-0.0271149 10.0325 0)
(-0.0392579 10.0442 0)
(-0.0539977 10.0602 0)
(-0.0712491 10.0815 0)
(-0.0905377 10.1094 0)
(-0.111023 10.1451 0)
(-0.13145 10.1896 0)
(-0.15015 10.2435 0)
(-0.164409 10.3073 0)
(-0.17343 10.3789 0)
(-0.17893 10.4562 0)
(-0.180673 10.5382 0)
(-0.178555 10.6232 0)
(-0.172576 10.708 0)
(-0.162817 10.7869 0)
(-0.149388 10.8503 0)
(-0.132428 10.8833 0)
(-0.111906 10.8666 0)
(-0.0877334 10.7836 0)
(-0.0618538 10.6291 0)
(-0.0217572 10.403 0)
(0.00241521 9.65603 0)
(0.000476207 10.0003 0)
(0.000885052 10.0017 0)
(0.000141839 10.0046 0)
(-0.00200733 10.0078 0)
(-0.0055768 10.0115 0)
(-0.0108975 10.0159 0)
(-0.0183817 10.0214 0)
(-0.0284105 10.0284 0)
(-0.0413024 10.0382 0)
(-0.0571855 10.0521 0)
(-0.0759941 10.0713 0)
(-0.0974752 10.0971 0)
(-0.120912 10.1307 0)
(-0.145161 10.1735 0)
(-0.168635 10.2264 0)
(-0.189321 10.2898 0)
(-0.204031 10.3641 0)
(-0.212047 10.4466 0)
(-0.215675 10.5349 0)
(-0.214825 10.6276 0)
(-0.209546 10.723 0)
(-0.199989 10.8177 0)
(-0.186359 10.906 0)
(-0.168869 10.9782 0)
(-0.147575 11.0196 0)
(-0.122356 11.0111 0)
(-0.0933532 10.937 0)
(-0.0633248 10.8005 0)
(-0.0251091 10.5748 0)
(0.00334485 9.71444 0)
(0.000408204 10.0002 0)
(0.000703361 10.0016 0)
(-0.000126117 10.0043 0)
(-0.0023427 10.0073 0)
(-0.00598246 10.0106 0)
(-0.0113932 10.0144 0)
(-0.0190213 10.019 0)
(-0.0293218 10.0248 0)
(-0.0427381 10.0329 0)
(-0.0595837 10.0444 0)
(-0.0798743 10.0611 0)
(-0.103356 10.0844 0)
(-0.129558 10.1155 0)
(-0.157463 10.1559 0)
(-0.185586 10.2069 0)
(-0.211972 10.2692 0)
(-0.234243 10.3432 0)
(-0.248752 10.4289 0)
(-0.254949 10.5231 0)
(-0.25587 10.6226 0)
(-0.251613 10.7263 0)
(-0.242416 10.832 0)
(-0.22859 10.9362 0)
(-0.210473 11.0334 0)
(-0.188282 11.1139 0)
(-0.162043 11.1632 0)
(-0.13207 11.1628 0)
(-0.0985703 11.0987 0)
(-0.0651586 10.9792 0)
(-0.0278811 10.7421 0)
(0.00298425 9.7899 0)
(0.000349599 10.0002 0)
(0.000548462 10.0015 0)
(-0.000351677 10.004 0)
(-0.00261944 10.0068 0)
(-0.00630492 10.0098 0)
(-0.0117675 10.0131 0)
(-0.0194752 10.0169 0)
(-0.0299359 10.0217 0)
(-0.0436871 10.0281 0)
(-0.0612018 10.0374 0)
(-0.0827312 10.0512 0)
(-0.108118 10.0714 0)
(-0.13686 10.0996 0)
(-0.16821 10.1372 0)
(-0.200804 10.1855 0)
(-0.232771 10.2458 0)
(-0.261757 10.3187 0)
(-0.285045 10.4042 0)
(-0.298537 10.5021 0)
(-0.301975 10.6085 0)
(-0.299252 10.7196 0)
(-0.290709 10.8341 0)
(-0.276795 10.9497 0)
(-0.257991 11.063 0)
(-0.234721 11.1685 0)
(-0.207243 11.2567 0)
(-0.175988 11.3136 0)
(-0.141735 11.3208 0)
(-0.104612 11.2675 0)
(-0.0678339 11.1603 0)
(-0.0307498 10.9243 0)
(0.00191176 9.8763 0)
(0.000298203 10.0002 0)
(0.000417214 10.0015 0)
(-0.000542377 10.0038 0)
(-0.00284824 10.0064 0)
(-0.00656113 10.0091 0)
(-0.0120468 10.012 0)
(-0.0197861 10.0151 0)
(-0.0303231 10.0189 0)
(-0.0442634 10.0239 0)
(-0.0622007 10.0312 0)
(-0.0845898 10.0422 0)
(-0.111568 10.0588 0)
(-0.142738 10.0833 0)
(-0.177274 10.1175 0)
(-0.214108 10.1626 0)
(-0.251474 10.22 0)
(-0.287073 10.2909 0)
(-0.318168 10.3755 0)
(-0.341726 10.4734 0)
(-0.353227 10.5841 0)
(-0.352834 10.703 0)
(-0.345453 10.8256 0)
(-0.331702 10.9506 0)
(-0.31226 11.0757 0)
(-0.287759 11.1975 0)
(-0.258733 11.3106 0)
(-0.225776 11.406 0)
(-0.189772 11.4698 0)
(-0.151715 11.4842 0)
(-0.111438 11.4404 0)
(-0.0717654 11.3623 0)
(-0.0337668 11.1215 0)
(0.000214339 9.97173 0)
(0.000254434 10.0002 0)
(0.000306765 10.0014 0)
(-0.000705118 10.0037 0)
(-0.00303804 10.006 0)
(-0.00676471 10.0085 0)
(-0.0122524 10.0109 0)
(-0.0199878 10.0135 0)
(-0.0305388 10.0164 0)
(-0.0445586 10.0202 0)
(-0.0627291 10.0257 0)
(-0.0856604 10.0342 0)
(-0.113745 10.0473 0)
(-0.146947 10.0674 0)
(-0.18455 10.0972 0)
(-0.225336 10.1385 0)
(-0.267856 10.1923 0)
(-0.309897 10.2601 0)
(-0.348729 10.3426 0)
(-0.381249 10.4399 0)
(-0.404142 10.551 0)
(-0.412523 10.675 0)
(-0.407132 10.8065 0)
(-0.394027 10.9405 0)
(-0.374132 11.0755 0)
(-0.348359 11.2094 0)
(-0.317515 11.339 0)
(-0.282428 11.4591 0)
(-0.244092 11.5609 0)
(-0.203644 11.6307 0)
(-0.161916 11.6508 0)
(-0.119294 11.6361 0)
(-0.0766022 11.5837 0)
(-0.0369515 11.3138 0)
(-0.0016878 10.0742 0)
(0.000216334 10.0002 0)
(0.000211508 10.0013 0)
(-0.000844483 10.0035 0)
(-0.00319603 10.0057 0)
(-0.00692642 10.0079 0)
(-0.0124009 10.0101 0)
(-0.0201071 10.0121 0)
(-0.0306269 10.0143 0)
(-0.044645 10.017 0)
(-0.062906 10.0209 0)
(-0.0861353 10.027 0)
(-0.114922 10.037 0)
(-0.149548 10.0529 0)
(-0.18973 10.0773 0)
(-0.23435 10.1134 0)
(-0.281716 10.163 0)
(-0.329952 10.2269 0)
(-0.376377 10.3063 0)
(-0.417837 10.4016 0)
(-0.450883 10.5124 0)
(-0.471996 10.6373 0)
(-0.476006 10.7749 0)
(-0.464382 10.9189 0)
(-0.444467 11.0638 0)
(-0.417513 11.2082 0)
(-0.384686 11.3503 0)
(-0.347084 11.4868 0)
(-0.305893 11.613 0)
(-0.262364 11.7203 0)
(-0.217567 11.7943 0)
(-0.173136 11.8393 0)
(-0.127853 11.853 0)
(-0.0817641 11.8008 0)
(-0.0400553 11.5011 0)
(-0.00351802 10.1815 0)
(0.000128615 10.0013 0)
(0.000172185 10.0002 0)
(-0.000965221 10.0033 0)
(-0.00332831 10.0055 0)
(-0.00705466 10.0075 0)
(-0.0125053 10.0093 0)
(-0.0201649 10.0109 0)
(-0.0306214 10.0124 0)
(-0.0445794 10.0141 0)
(-0.0628255 10.0165 0)
(-0.0861683 10.0207 0)
(-0.115346 10.0278 0)
(-0.150884 10.0398 0)
(-0.192891 10.0591 0)
(-0.240763 10.0889 0)
(-0.292876 10.1325 0)
(-0.346988 10.1917 0)
(-0.400775 10.2669 0)
(-0.451074 10.3591 0)
(-0.494322 10.4683 0)
(-0.526793 10.5934 0)
(-0.544861 10.7325 0)
(-0.54315 10.8837 0)
(-0.524026 11.0398 0)
(-0.496237 11.195 0)
(-0.461389 11.3481 0)
(-0.420967 11.4974 0)
(-0.37642 11.6401 0)
(-0.32918 11.7713 0)
(-0.280519 11.8822 0)
(-0.232875 11.979 0)
(-0.18514 12.0487 0)
(-0.136139 12.0673 0)
(-0.0869065 12.0121 0)
(-0.0429411 11.6825 0)
(-0.00527891 10.2913 0)
(-0.00107202 10.0032 0)
(3.70774e-05 10.0012 0)
(0.000122367 10.0002 0)
(-0.00344089 10.0052 0)
(-0.00715649 10.007 0)
(-0.0125758 10.0086 0)
(-0.0201772 10.0098 0)
(-0.0305491 10.0107 0)
(-0.0444059 10.0115 0)
(-0.0625613 10.0127 0)
(-0.0858812 10.015 0)
(-0.115212 10.0196 0)
(-0.15127 10.0281 0)
(-0.194465 10.0427 0)
(-0.244664 10.0663 0)
(-0.300844 10.1025 0)
(-0.360776 10.1549 0)
(-0.421612 10.2251 0)
(-0.480554 10.313 0)
(-0.533969 10.4192 0)
(-0.577941 10.5431 0)
(-0.608553 10.6831 0)
(-0.622181 10.8365 0)
(-0.613345 11.0011 0)
(-0.585465 11.1687 0)
(-0.548813 11.3335 0)
(-0.505385 11.4944 0)
(-0.457025 11.65 0)
(-0.405448 11.7976 0)
(-0.352148 11.9323 0)
(-0.300377 12.0649 0)
(-0.24914 12.1838 0)
(-0.196577 12.2564 0)
(-0.14397 12.277 0)
(-0.0917912 12.2165 0)
(-0.0455372 11.8575 0)
(-0.00691903 10.402 0)
(-0.00354157 10.005 0)
(-0.00117999 10.003 0)
(-7.15274e-05 10.0011 0)
(7.40885e-05 10.0002 4.22587e-20)
(-0.00723907 10.0067 0)
(-0.0126204 10.008 0)
(-0.0201561 10.0088 0)
(-0.0304302 10.0092 0)
(-0.0441587 10.0093 0)
(-0.0621702 10.0093 0)
(-0.0853691 10.01 0)
(-0.114679 10.0123 0)
(-0.150955 10.0176 0)
(-0.194844 10.0279 0)
(-0.246587 10.0458 0)
(-0.305716 10.0747 0)
(-0.370694 10.1185 0)
(-0.438596 10.1811 0)
(-0.505896 10.2637 0)
(-0.569342 10.3656 0)
(-0.624869 10.4869 0)
(-0.668285 10.6263 0)
(-0.695596 10.7815 0)
(-0.703299 10.9492 0)
(-0.685921 11.1267 0)
(-0.648094 11.3053 0)
(-0.601719 11.4787 0)
(-0.549194 11.6462 0)
(-0.492661 11.8069 0)
(-0.433962 11.9579 0)
(-0.377151 12.1139 0)
(-0.321387 12.2675 0)
(-0.264459 12.3869 0)
(-0.207292 12.4603 0)
(-0.151189 12.4805 0)
(-0.0962968 12.4129 0)
(-0.0478167 12.0258 0)
(-0.00840587 10.5119 0)
(-0.00731416 10.0064 0)
(-0.00362288 10.0047 0)
(-0.00129863 10.0028 1.92303e-19)
(-0.00017597 10.001 -1.33978e-19)
(2.72176e-05 10.0002 -8.29455e-20)
(-0.0126475 10.0075 0)
(-0.0201112 10.008 0)
(-0.0302796 10.0079 0)
(-0.0438636 10.0073 0)
(-0.0616964 10.0063 0)
(-0.0847054 10.0056 0)
(-0.113867 10.0058 0)
(-0.150138 10.0083 0)
(-0.194344 10.0147 0)
(-0.247016 10.0275 0)
(-0.30814 10.0496 0)
(-0.376831 10.0848 0)
(-0.450943 10.1375 0)
(-0.526734 10.2118 0)
(-0.599978 10.3082 0)
(-0.667011 10.4254 0)
(-0.723403 10.5626 0)
(-0.76479 10.7181 0)
(-0.787228 10.8887 0)
(-0.787477 11.0704 0)
(-0.760176 11.2601 0)
(-0.711323 11.4486 0)
(-0.654517 11.6295 0)
(-0.592501 11.8027 0)
(-0.5276 11.9668 0)
(-0.464911 12.139 0)
(-0.40356 12.3154 0)
(-0.341064 12.4683 0)
(-0.278683 12.5865 0)
(-0.217134 12.6587 0)
(-0.15772 12.6767 0)
(-0.100365 12.6011 0)
(-0.0497851 12.1869 0)
(-0.00972799 10.6197 0)
(-0.0126746 10.007 0)
(-0.00733683 10.006 -4.34379e-19)
(-0.00369132 10.0044 -2.03209e-19)
(-0.00141216 10.0026 9.43816e-20)
(-0.000274967 10.001 -8.76389e-20)
(-1.81228e-05 10.0002 0)
(-0.020052 10.0073 0)
(-0.0301084 10.0067 0)
(-0.0435393 10.0055 0)
(-0.0611729 10.0037 0)
(-0.0839466 10.0017 0)
(-0.112871 10.0001 0)
(-0.148974 10 0)
(-0.193214 10.0029 0)
(-0.246345 10.011 0)
(-0.308712 10.0269 0)
(-0.379965 10.0542 0)
(-0.458716 10.097 0)
(-0.542082 10.1601 0)
(-0.625422 10.2475 0)
(-0.703812 10.3592 0)
(-0.773247 10.4928 0)
(-0.829028 10.6468 0)
(-0.866748 10.8186 0)
(-0.882656 11.0044 0)
(-0.87392 11.1996 0)
(-0.835399 11.4007 0)
(-0.774581 11.5979 0)
(-0.706774 11.7851 0)
(-0.634955 11.9622 0)
(-0.565468 12.1476 0)
(-0.497576 12.3401 0)
(-0.428257 12.5153 0)
(-0.359261 12.6657 0)
(-0.291668 12.7809 0)
(-0.226021 12.8505 0)
(-0.163537 12.8648 0)
(-0.103974 12.7805 0)
(-0.0514651 12.3405 0)
(-0.0108862 10.7244 0)
(-0.0200044 10.0066 0)
(-0.0126003 10.0064 9.17944e-19)
(-0.00730036 10.0055 0)
(-0.00375556 10.0041 1.99389e-19)
(-0.0015185 10.0024 3.80758e-23)
(-0.00036856 10.0009 0)
(-5.97757e-05 10.0001 0)
(-0.0299273 10.0057 0)
(-0.0431986 10.0039 0)
(-0.0606231 10.0013 0)
(-0.0831352 9.99818 0)
(-0.111763 9.99501 0)
(-0.147584 9.99267 0)
(-0.19165 9.99247 0)
(-0.244886 9.99625 0)
(-0.307913 10.0065 0)
(-0.380816 10.0265 0)
(-0.462835 10.0601 0)
(-0.551948 10.1119 0)
(-0.644442 10.1868 0)
(-0.734714 10.289 0)
(-0.817161 10.4173 0)
(-0.887553 10.5683 0)
(-0.941045 10.7396 0)
(-0.973336 10.9279 0)
(-0.981019 11.1285 0)
(-0.961805 11.3363 0)
(-0.910877 11.5476 0)
(-0.837306 11.7524 0)
(-0.758037 11.9442 0)
(-0.680958 12.1429 0)
(-0.605451 12.3488 0)
(-0.528112 12.5399 0)
(-0.45107 12.712 0)
(-0.375849 12.8581 0)
(-0.303354 12.969 0)
(-0.233927 13.0348 0)
(-0.16865 13.0444 0)
(-0.10713 12.951 0)
(-0.0528845 12.4864 0)
(-0.0118875 10.8253 0)
(-0.0297743 10.0048 0)
(-0.0197854 10.0058 8.41126e-23)
(-0.0123912 10.0058 0)
(-0.00726066 10.005 -2.10681e-19)
(-0.00381018 10.0038 2.77547e-23)
(-0.00161764 10.0023 0)
(-0.000457718 10.0008 0)
(-9.83817e-05 10.0001 0)
(-0.0428539 10.0026 0)
(-0.0600625 9.99926 0)
(-0.0823007 9.99511 0)
(-0.110598 9.9905 0)
(-0.146059 9.98615 0)
(-0.189803 9.98316 0)
(-0.242882 9.98314 0)
(-0.306128 9.9883 0)
(-0.379969 10.0016 0)
(-0.46416 10.0266 0)
(-0.557406 10.0678 0)
(-0.656957 10.1301 0)
(-0.758186 10.2185 0)
(-0.854469 10.3368 0)
(-0.939594 10.483 0)
(-1.00925 10.6522 0)
(-1.05862 10.8412 0)
(-1.08364 11.0456 0)
(-1.08141 11.2604 0)
(-1.05031 11.4798 0)
(-0.985921 11.7001 0)
(-0.898926 11.9106 0)
(-0.813616 12.1248 0)
(-0.729562 12.3444 0)
(-0.642846 12.549 0)
(-0.55631 12.7367 0)
(-0.471873 12.9038 0)
(-0.390773 13.0444 0)
(-0.313737 13.15 0)
(-0.240877 13.211 0)
(-0.173088 13.2152 0)
(-0.109855 13.1125 0)
(-0.0540711 12.6245 0)
(-0.0127429 10.9218 0)
(-0.0425599 10.0013 0)
(-0.0293526 10.0038 -5.12427e-19)
(-0.0193164 10.0049 0)
(-0.0121811 10.0051 0)
(-0.00720725 10.0045 6.20279e-19)
(-0.00385449 10.0035 0)
(-0.00170978 10.0021 0)
(-0.000543079 10.0008 1.65694e-19)
(-0.000134893 10.0001 0)
(-0.0595049 9.99742 0)
(-0.0814617 9.99238 0)
(-0.109412 9.98651 0)
(-0.144468 9.98037 0)
(-0.187792 9.9749 0)
(-0.240524 9.97147 0)
(-0.303661 9.97205 0)
(-0.377894 9.97924 0)
(-0.463394 9.99643 0)
(-0.55947 10.0277 0)
(-0.6642 10.078 0)
(-0.774013 10.1522 0)
(-0.883284 10.2557 0)
(-0.984346 10.3917 0)
(-1.07049 10.5569 0)
(-1.13752 10.7448 0)
(-1.18078 10.9514 0)
(-1.19667 11.1717 0)
(-1.18291 11.3997 0)
(-1.13863 11.6295 0)
(-1.05985 11.857 0)
(-0.965832 12.0908 0)
(-0.872393 12.3265 0)
(-0.775053 12.5452 0)
(-0.677396 12.7464 0)
(-0.582035 12.9289 0)
(-0.490608 13.0898 0)
(-0.404049 13.2239 0)
(-0.322861 13.3233 0)
(-0.24692 13.3789 0)
(-0.176898 13.377 0)
(-0.112183 13.2649 0)
(-0.0550524 12.7549 0)
(-0.0134654 11.0137 0)
(-0.0590281 9.99579 0)
(-0.0418632 9.99995 0)
(-0.028513 10.0026 -5.0667e-19)
(-0.0188519 10.004 -4.70507e-19)
(-0.011952 10.0045 -8.73893e-19)
(-0.00713844 10.0041 0)
(-0.00388828 10.0032 -3.76948e-19)
(-0.0017937 10.0019 -3.50146e-19)
(-0.000624046 10.0007 1.62615e-19)
(-0.000168982 10.0001 0)
(-0.0806344 9.98996 0)
(-0.108229 9.98297 0)
(-0.14286 9.97525 0)
(-0.185702 9.96756 0)
(-0.237959 9.9611 0)
(-0.300747 9.95757 0)
(-0.374964 9.9593 0)
(-0.461106 9.96934 0)
(-0.558977 9.99155 0)
(-0.667354 10.0305 0)
(-0.783591 10.0912 0)
(-0.903202 10.1792 0)
(-1.0195 10.2993 0)
(-1.12381 10.4543 0)
(-1.20906 10.6393 0)
(-1.2714 10.8463 0)
(-1.30652 11.0703 0)
(-1.31141 11.3056 0)
(-1.28458 11.5457 0)
(-1.22595 11.7842 0)
(-1.14038 12.0362 0)
(-1.03676 12.2928 0)
(-0.927478 12.5282 0)
(-0.817114 12.7436 0)
(-0.70894 12.9395 0)
(-0.605231 13.1153 0)
(-0.507294 13.269 0)
(-0.415735 13.3959 0)
(-0.330798 13.4886 0)
(-0.25212 13.5381 0)
(-0.18013 13.5299 0)
(-0.11415 13.4085 0)
(-0.0558553 12.8775 0)
(-0.0140677 11.1007 0)
(-0.0799273 9.98782 0)
(-0.0579685 9.99399 -5.73026e-19)
(-0.0405124 9.99841 5.35301e-19)
(-0.0276883 10.0014 -2.3151e-22)
(-0.018362 10.0032 4.61669e-19)
(-0.0117006 10.0038 4.28841e-19)
(-0.00705398 10.0036 7.96581e-19)
(-0.00391124 10.0029 5.54908e-19)
(-0.0018696 10.0018 -1.71829e-19)
(-0.000699996 10.0006 0)
(-0.000200457 10.0001 0)
(-0.107068 9.97983 0)
(-0.141261 9.9707 0)
(-0.183594 9.96106 0)
(-0.235296 9.95189 0)
(-0.297569 9.94468 0)
(-0.371468 9.9415 0)
(-0.457747 9.94509 0)
(-0.556606 9.95898 0)
(-0.667401 9.98746 0)
(-0.788281 10.0355 0)
(-0.915776 10.1085 0)
(-1.0444 10.2118 0)
(-1.16641 10.35 0)
(-1.27213 10.5252 0)
(-1.35437 10.7306 0)
(-1.40982 10.9567 0)
(-1.43472 11.1976 0)
(-1.42682 11.4469 0)
(-1.38547 11.6974 0)
(-1.32143 11.9619 0)
(-1.22606 12.2381 0)
(-1.10345 12.4953 0)
(-0.978513 12.7278 0)
(-0.855545 12.9379 0)
(-0.737411 13.127 0)
(-0.625921 13.2952 0)
(-0.522005 13.441 0)
(-0.425924 13.5601 0)
(-0.337634 13.6456 0)
(-0.256549 13.6887 0)
(-0.182839 13.674 0)
(-0.115795 13.5434 0)
(-0.0565036 12.9927 0)
(-0.0145634 11.1828 0)
(-0.106078 9.97704 0)
(-0.0783988 9.9855 -7.83258e-22)
(-0.0559315 9.99202 0)
(-0.0391943 9.99691 -3.88777e-22)
(-0.0268307 10.0003 0)
(-0.0178407 10.0023 -4.53098e-19)
(-0.0114272 10.0032 -8.41728e-19)
(-0.0069534 10.0032 5.48721e-24)
(-0.00392342 10.0026 3.63052e-19)
(-0.00193808 10.0016 -1.68629e-19)
(-0.000771108 10.0006 1.56643e-19)
(-0.000229355 10.0001 0)
(-0.139695 9.96667 0)
(-0.181501 9.95528 0)
(-0.232611 9.94371 0)
(-0.294264 9.93323 0)
(-0.367632 9.92565 0)
(-0.453671 9.92343 0)
(-0.552899 9.92977 0)
(-0.665144 9.94867 0)
(-0.789223 9.98485 0)
(-0.922557 10.0436 0)
(-1.06076 10.1305 0)
(-1.19731 10.2508 0)
(-1.32337 10.4085 0)
(-1.42842 10.6048 0)
(-1.50534 10.831 0)
(-1.55165 11.0758 0)
(-1.56429 11.3328 0)
(-1.54188 11.5945 0)
(-1.49626 11.8727 0)
(-1.42343 12.1631 0)
(-1.30692 12.4415 0)
(-1.16543 12.6965 0)
(-1.02528 12.9238 0)
(-0.89029 13.127 0)
(-0.76284 13.3082 0)
(-0.644197 13.468 0)
(-0.534856 13.6052 0)
(-0.434727 13.7161 0)
(-0.343467 13.7942 0)
(-0.260283 13.8306 0)
(-0.185083 13.8094 0)
(-0.117156 13.67 0)
(-0.0570182 13.1007 0)
(-0.0149664 11.2601 0)
(-0.138364 9.96309 0)
(-0.103954 9.97407 6.40125e-19)
(-0.0754607 9.983 -5.99138e-19)
(-0.0539548 9.99011 5.55391e-19)
(-0.0378349 9.99546 0)
(-0.0259298 9.9992 0)
(-0.0172879 10.0015 4.44684e-19)
(-0.0111308 10.0026 -4.12998e-19)
(-0.00683802 10.0028 1.25596e-23)
(-0.00392467 10.0023 1.7819e-19)
(-0.00199889 10.0015 -1.65523e-19)
(-0.000837493 10.0005 -1.53733e-19)
(-0.000255603 10.0001 0)
(-0.179454 9.95015 0)
(-0.229944 9.93644 0)
(-0.290926 9.92304 0)
(-0.363627 9.91153 0)
(-0.449156 9.9041 0)
(-0.548286 9.90364 0)
(-0.661229 9.91381 0)
(-0.787358 9.93906 0)
(-0.924852 9.98451 0)
(-1.0703 10.0557 0)
(-1.21834 10.1583 0)
(-1.36139 10.2971 0)
(-1.48959 10.4756 0)
(-1.59165 10.6936 0)
(-1.66083 10.9405 0)
(-1.69571 11.2037 0)
(-1.69409 11.4753 0)
(-1.66884 11.7663 0)
(-1.6152 12.0724 0)
(-1.52009 12.367 0)
(-1.38232 12.6445 0)
(-1.2224 12.8948 0)
(-1.06769 13.1151 0)
(-0.921402 13.3099 0)
(-0.785332 13.4823 0)
(-0.66019 13.6331 0)
(-0.54598 13.7614 0)
(-0.442261 13.8639 0)
(-0.348398 13.9345 0)
(-0.263399 13.9642 0)
(-0.186918 13.9364 0)
(-0.118267 13.7884 0)
(-0.0574202 13.2016 0)
(-0.0152905 11.3326 0)
(-0.177721 9.9456 0)
(-0.135496 9.95933 0)
(-0.0998544 9.97094 6.32796e-19)
(-0.0726222 9.9806 -1.17634e-18)
(-0.0519261 9.98828 1.09158e-18)
(-0.0364167 9.99408 -1.01311e-18)
(-0.0249855 9.99816 0)
(-0.0167052 10.0007 4.36573e-19)
(-0.0108128 10.0021 -4.05329e-19)
(-0.00670661 10.0024 -3.7655e-19)
(-0.00391502 10.0021 0)
(-0.00205205 10.0013 1.62453e-19)
(-0.000898642 10.0005 0)
(-0.000278781 10.0001 0)
(-0.227336 9.92999 0)
(-0.287606 9.91399 0)
(-0.359569 9.89898 0)
(-0.444412 9.88688 0)
(-0.543102 9.88028 0)
(-0.65617 9.88255 0)
(-0.783446 9.89781 0)
(-0.92375 9.93093 0)
(-1.07452 9.98737 0)
(-1.23144 10.0728 0)
(-1.38812 10.1927 0)
(-1.53594 10.3515 0)
(-1.66409 10.5517 0)
(-1.76069 10.7919 0)
(-1.81963 11.0594 0)
(-1.8408 11.3395 0)
(-1.83811 11.6423 0)
(-1.80589 11.9635 0)
(-1.72853 12.2762 0)
(-1.61068 12.5716 0)
(-1.45187 12.8454 0)
(-1.27421 13.0887 0)
(-1.10578 13.3005 0)
(-0.949013 13.486 0)
(-0.805051 13.6488 0)
(-0.67406 13.7902 0)
(-0.555525 13.9095 0)
(-0.448652 14.0036 0)
(-0.352528 14.0666 0)
(-0.265972 14.0896 0)
(-0.188397 14.0553 0)
(-0.119162 13.8992 0)
(-0.057728 13.296 0)
(-0.0155471 11.4004 0)
(-0.225141 9.92426 0)
(-0.173941 9.94087 0)
(-0.129927 9.95542 0)
(-0.0959128 9.96794 1.24236e-18)
(-0.0697215 9.97831 -1.15302e-18)
(-0.0498208 9.98653 1.07021e-18)
(-0.034941 9.99275 0)
(-0.0239999 9.99717 -4.61227e-19)
(-0.0160919 10 0)
(-0.0104743 10.0015 3.97842e-19)
(-0.00655979 10.0021 0)
(-0.00389444 10.0019 0)
(-0.00209752 10.0012 0)
(-0.000953151 10.0004 1.57927e-19)
(-0.000298876 10.0001 7.71329e-20)
(-0.284359 9.90594 0)
(-0.355521 9.88781 0)
(-0.43958 9.87153 0)
(-0.537607 9.85945 0)
(-0.650374 9.85458 0)
(-0.778099 9.86075 0)
(-0.920137 9.88254 0)
(-1.07465 9.92521 0)
(-1.23826 9.99443 0)
(-1.40568 10.0959 0)
(-1.56951 10.2348 0)
(-1.72009 10.4148 0)
(-1.84578 10.6375 0)
(-1.93433 10.8999 0)
(-1.98051 11.187 0)
(-2.00277 11.5003 0)
(-1.99455 11.8358 0)
(-1.93731 12.1664 0)
(-1.83536 12.4821 0)
(-1.69469 12.7753 0)
(-1.51536 13.0427 0)
(-1.32086 13.2773 0)
(-1.13968 13.4793 0)
(-0.973306 13.6548 0)
(-0.822203 13.8075 0)
(-0.685987 13.9393 0)
(-0.563645 14.0495 0)
(-0.454024 14.1352 0)
(-0.355952 14.1908 0)
(-0.268072 14.2072 0)
(-0.189571 14.1666 0)
(-0.119869 14.0026 0)
(-0.0579574 13.384 0)
(-0.0157459 11.4639 0)
(-0.281643 9.8988 0)
(-0.220257 9.91836 0)
(-0.166545 9.93603 1.4209e-18)
(-0.124597 9.9517 1.31765e-18)
(-0.0918964 9.96509 1.2221e-18)
(-0.0667227 9.97613 -1.13355e-18)
(-0.0476406 9.98488 0)
(-0.0334108 9.9915 0)
(-0.0229746 9.99623 0)
(-0.0154504 9.99931 8.41176e-19)
(-0.0101143 10.001 3.90554e-19)
(-0.00639895 10.0017 3.62721e-19)
(-0.00386248 10.0016 0)
(-0.00213479 10.0011 -1.66871e-19)
(-0.00100075 10.0004 -8.15268e-20)
(-0.000316287 10 0)
(-0.351562 9.87787 0)
(-0.434742 9.85787 0)
(-0.531971 9.84086 0)
(-0.644153 9.82958 0)
(-0.771801 9.82753 0)
(-0.914733 9.83898 0)
(-1.07173 9.86892 0)
(-1.24023 9.92293 0)
(-1.41593 10.0068 0)
(-1.59258 10.1261 0)
(-1.76174 10.2854 0)
(-1.91284 10.4877 0)
(-2.03355 10.7333 0)
(-2.11136 11.0175 0)
(-2.1613 11.3397 0)
(-2.17999 11.6885 0)
(-2.1457 12.0368 0)
(-2.06209 12.3731 0)
(-1.93509 12.6884 0)
(-1.77186 12.9764 0)
(-1.57281 13.2354 0)
(-1.3625 13.4597 0)
(-1.16958 13.651 0)
(-0.994507 13.8157 0)
(-0.837009 13.9582 0)
(-0.69616 14.0802 0)
(-0.570493 14.1814 0)
(-0.458495 14.2589 0)
(-0.35876 14.3072 0)
(-0.269763 14.3172 0)
(-0.190484 14.2705 0)
(-0.120417 14.0991 0)
(-0.0581202 13.4661 0)
(-0.0158976 11.5231 0)
(-0.348274 9.86904 0)
(-0.275436 9.89149 0)
(-0.210619 9.91241 -3.00576e-18)