/*--------------------------------*- C++ -*----------------------------------*\
  =========                 |
  \\      /  F ield         | OpenFOAM: The Open Source CFD Toolbox
   \\    /   O peration     | Website:  https://openfoam.org
    \\  /    A nd           | Version:  8
     \\/     M anipulation  |
\*---------------------------------------------------------------------------*/
FoamFile
{
    version     2.0;
    format      ascii;
    class       volScalarField;
    location    "1500";
    object      epsilon;
}
// * * * * * * * * * * * * * * * * * * * * * * * * * * * * * * * * * * * * * //

dimensions      [0 2 -3 0 0 0 0];

internalField   nonuniform List<scalar> 
15677
(
1182.95
450.741
1558.77
85.8084
451.65
1455.62
19.8101
116.597
388.112
1275.54
7.2126
35.9268
104.773
360.52
1158.54
3.82901
14.3045
37.2938
92.6199
361.012
1085.47
2.64035
7.1808
17.114
35.2365
94.1249
365.879
1041.53
2.1617
4.33784
9.17373
17.2866
33.6991
99.4765
372.545
1010.78
1.97289
3.03441
5.5836
9.92141
17.0571
33.9572
109.126
372.988
990.872
1.90448
2.3828
3.79254
6.27473
10.1574
16.6796
35.4175
119.147
372.102
974.773
1.87844
2.06059
2.83785
4.30807
6.63565
10.133
16.7264
38.3696
129.235
368.211
963.73
1.86721
1.92147
2.31398
3.1911
4.63789
6.78584
10.0805
17.0249
42.3052
137.127
363.493
957.166
1.86735
1.86801
2.02992
2.53932
3.44693
4.83135
6.83307
10.0851
17.705
46.466
143.447
358.898
954.839
1.86899
1.84318
1.89333
2.15983
2.71939
3.62238
4.93521
6.84713
10.1427
18.7211
50.747
148.035
354.9
955.787
1.86963
1.83738
1.83764
1.9488
2.27427
2.856
3.73622
4.9894
6.85214
10.2862
19.9548
54.6056
151.498
351.722
959.287
1.86973
1.83717
1.81462
1.84527
2.00981
2.36886
2.95498
3.80821
5.01503
6.86566
10.5504
21.2085
58.2169
153.587
349.338
966.581
1.8697
1.83752
1.80889
1.80066
1.86356
2.06603
2.44318
3.02486
3.85164
5.02583
6.90038
10.8415
22.5555
61.1601
154.975
347.63
977.889
1.86967
1.83768
1.80791
1.78608
1.79397
1.88814
2.11374
2.4999
3.07259
3.876
5.03235
6.95319
11.1874
23.7822
63.6918
155.475
346.602
992.714
1.86966
1.83771
1.80789
1.78199
1.76781
1.79444
1.91114
2.15268
2.54185
3.10397
3.88837
5.03774
7.02491
11.5215
24.9828
65.5117
155.475
346.172
1011.14
1.86965
1.83769
1.80793
1.78101
1.75907
1.75495
1.79654
1.93166
2.18334
2.57208
3.12317
3.89333
5.04584
7.09813
11.8717
26.001
66.8828
155.204
346.271
1033.22
1.86965
1.83768
1.80793
1.78083
1.75638
1.74002
1.74513
1.80069
1.94894
2.20689
2.59279
3.13396
3.89296
5.05334
7.1787
12.1887
26.8827
67.6892
154.614
346.733
1058.99
1.86965
1.83766
1.80791
1.78079
1.75563
1.73471
1.72373
1.73808
1.80499
1.96297
2.22423
2.60641
3.13815
3.89064
5.0622
7.25307
12.481
27.542
68.1445
153.624
347.723
1088.38
1.86965
1.83766
1.80789
1.78077
1.75542
1.73299
1.71521
1.71028
1.73262
1.80891
1.97388
2.23666
2.61426
3.13759
3.88594
5.06886
7.32226
12.7165
28.0339
68.0944
152.506
349.199
1121.39
1.86965
1.83765
1.80787
1.78073
1.75534
1.73245
1.71206
1.69838
1.69869
1.72845
1.81211
1.98215
2.245
2.61812
3.13511
3.87892
5.07449
7.3782
12.909
28.3213
67.865
151.323
351.118
1157.82
1.86965
1.83764
1.80786
1.7807
1.75528
1.73227
1.71094
1.69361
1.6832
1.68917
1.72495
1.81465
1.98821
2.25046
2.61856
3.12993
3.87112
5.07562
7.42118
13.0309
28.4296
67.3529
150.038
353.393
1197.69
1.86966
1.83764
1.80785
1.78067
1.75523
1.73217
1.71054
1.69179
1.67652
1.6704
1.68079
1.72219
1.8167
1.99272
2.25367
2.61787
3.12374
3.86161
5.0742
7.44847
13.115
28.3836
66.5933
148.642
356.101
1240.63
1.86966
1.83763
1.80784
1.78065
1.7552
1.73209
1.71036
1.69108
1.67378
1.6619
1.65875
1.67411
1.72004
1.8185
1.99627
2.25579
2.61643
3.11662
3.85237
5.07008
7.45988
13.1149
28.2472
65.6823
147.254
359.112
1286.69
1.86966
1.83762
1.80784
1.78063
1.75517
1.73203
1.71025
1.69077
1.67267
1.65822
1.64828
1.64947
1.66847
1.71873
1.82067
1.9997
2.25795
2.6145
3.11099
3.84237
5.06258
7.45511
13.0927
27.9819
64.6642
145.806
362.516
1335.36
1.86967
1.83762
1.80784
1.78061
1.75515
1.73198
1.71017
1.6906
1.67219
1.65663
1.64352
1.63738
1.64109
1.66461
1.71903
1.8237
2.00375
2.26067
2.61481
3.10575
3.83474
5.05229
7.44209
13.0378
27.6262
63.5433
144.414
366.166
1386.74
1.86967
1.83761
1.80784
1.7806
1.75513
1.73194
1.71011
1.69047
1.67194
1.6559
1.64141
1.63165
1.6272
1.63565
1.66255
1.72063
1.82818
2.00944
2.26549
2.6168
3.10521
3.82842
5.04165
7.41739
12.9384
27.2065
62.3837
142.995
370.152
1439.87
1.86967
1.83761
1.80784
1.78059
1.75512
1.7319
1.71005
1.69038
1.67177
1.65552
1.64044
1.62895
1.62046
1.62062
1.63114
1.66336
1.72433
1.83516
2.01774
2.27345
2.62192
3.10721
3.82599
5.03182
7.38564
12.8152
26.747
61.1819
141.665
374.332
1501.06
1.86967
1.8376
1.80784
1.78058
1.75511
1.73187
1.71001
1.6903
1.67165
1.65528
1.63994
1.62764
1.61726
1.61299
1.61455
1.63141
1.66632
1.73144
1.84552
2.02987
2.28537
2.63205
3.1132
3.82773
5.02376
7.34922
12.6768
26.2594
59.9901
140.334
379.304
1571.01
1.86968
1.8376
1.80784
1.78057
1.7551
1.73185
1.70998
1.69023
1.67155
1.65511
1.63964
1.62695
1.61569
1.60917
1.60623
1.6141
1.63378
1.67267
1.74269
1.86046
2.04681
2.30282
2.64817
3.12549
3.8336
5.01884
7.31209
12.5291
25.7618
58.7969
138.981
385.142
1642.31
1.86968
1.8376
1.80784
1.78056
1.7551
1.73182
1.70995
1.69017
1.67146
1.65497
1.63941
1.62654
1.61486
1.60722
1.60208
1.60491
1.61609
1.63963
1.68423
1.75927
1.88106
2.07011
2.32683
2.67135
3.14547
3.84588
5.02006
7.27631
12.3788
25.2625
57.5188
137.528
391.224
1714.51
1.86968
1.83759
1.80785
1.78055
1.75509
1.7318
1.70993
1.69012
1.67139
1.65485
1.63923
1.62624
1.61435
1.60617
1.59994
1.60018
1.60676
1.62168
1.65102
1.70176
1.78229
1.90885
2.10075
2.35895
2.70251
3.17351
3.86693
5.02548
7.24337
12.2298
24.7216
56.1391
136.232
397.491
1786.94
1.83759
1.86972
1.80785
1.78054
1.75509
1.73178
1.70991
1.69007
1.67133
1.65474
1.63907
1.626
1.61398
1.60553
1.59878
1.5977
1.60195
1.61227
1.6329
1.66923
1.72642
1.81332
1.94494
2.14044
2.39993
2.74305
3.21027
3.89668
5.03727
7.21611
12.0713
24.1444
54.8629
135.011
403.879
1859.08
1.80785
1.83769
1.86979
1.78053
1.75509
1.73176
1.7099
1.69003
1.67129
1.65465
1.63895
1.62581
1.61369
1.60508
1.59805
1.59636
1.59944
1.60745
1.62347
1.65167
1.69516
1.75986
1.85361
1.9911
2.18997
2.45139
2.79342
3.25703
3.93492
5.05847
7.19383
11.9062
23.6103
53.663
133.941
410.347
1930.44
1.78053
1.80801
1.83788
1.86987
1.75509
1.73175
1.70989
1.68999
1.67125
1.65457
1.63884
1.62565
1.61344
1.60473
1.59753
1.59554
1.5981
1.60499
1.61875
1.64278
1.67869
1.73054
1.80341
1.90502
2.04834
2.25126
2.51376
2.85485
3.3137
3.98298
5.09154
7.18015
11.7611
23.1171
52.571
132.956
416.865
2000.6
1.75509
1.78073
1.80833
1.83808
1.86994
1.73173
1.70989
1.68996
1.67122
1.6545
1.63876
1.6255
1.61323
1.60444
1.59712
1.59497
1.5973
1.60373
1.61646
1.63862
1.67086
1.71597
1.77695
1.85894
1.96854
2.11856
2.32458
2.58856
2.92753
3.38127
4.04716
5.14039
7.18292
11.6345
22.6724
51.5617
132.106
423.318
2069.14
1.73172
1.75534
1.78114
1.80866
1.83829
1.87002
1.70988
1.68993
1.6712
1.65444
1.63869
1.62538
1.61306
1.60421
1.59678
1.59452
1.59674
1.60302
1.61539
1.63693
1.66778
1.70998
1.76517
1.83673
1.92832
2.04653
2.20211
2.41173
2.67577
3.01215
3.4682
4.13263
5.20303
7.19405
11.5268
22.2712
50.6532
131.348
429.69
2135.8
1.70987
1.732
1.75586
1.78157
1.809
1.83851
1.87011
1.6899
1.67118
1.65438
1.63864
1.62527
1.61292
1.60401
1.59649
1.59417
1.59633
1.60256
1.6149
1.63648
1.66712
1.70867
1.76203
1.82938
1.91211
2.01419
2.14038
2.3019
2.51207
2.7765
3.11993
3.5807
4.23244
5.27789
7.21733
11.439
21.9153
49.8243
130.707
435.933
2200.28
1.68988
1.7102
1.73259
1.7564
1.78201
1.80935
1.83872
1.87019
1.67117
1.65433
1.6386
1.62517
1.61281
1.60384
1.59624
1.59388
1.59599
1.60223
1.61464
1.63649
1.66761
1.70969
1.76313
1.82964
1.90974
2.00565
2.11876
2.25347
2.41834
2.6289
2.90212
3.25592
3.70795
4.34464
5.36312
7.25476
11.3695
21.5997
49.0845
130.151
442.033
2262.46
1.67116
1.69022
1.71088
1.73319
1.75695
1.78246
1.8097
1.83895
1.87027
1.65429
1.63856
1.62508
1.61272
1.60369
1.59604
1.59365
1.59573
1.60198
1.61451
1.63672
1.66855
1.71189
1.76678
1.8347
1.91529
2.00999
2.11835
2.24359
2.38651
2.55485
2.77679
3.06308
3.40903
3.84917
4.4674
5.45816
7.3022
11.3176
21.3228
48.4159
129.689
447.971
2322.12
1.65425
1.67154
1.69093
1.71158
1.73382
1.75751
1.78293
1.81007
1.83918
1.87036
1.63854
1.625
1.61265
1.60356
1.59588
1.59346
1.59552
1.6018
1.61446
1.63704
1.66964
1.71444
1.77158
1.84245
1.92593
2.02316
2.13237
2.25484
2.38953
2.5408
2.72863
2.96848
3.24669
3.57963
4.00285
4.59998
5.56123
7.35882
11.2804
21.0804
47.8217
129.302
453.727
2379.26
1.63852
1.65461
1.67233
1.69167
1.71229
1.73446
1.75809
1.7834
1.81044
1.83942
1.87045
1.62493
1.61261
1.60344
1.59575
1.59332
1.59536
1.60168
1.61446
1.63739
1.67076
1.717
1.77657
1.85137
1.93953
2.04186
2.15585
2.28186
2.4164
2.56163
2.73612
2.94982
3.18698
3.45304
3.76706
4.16874
4.74067
5.67119
7.42259
11.2577
20.8694
47.2886
128.984
459.299
2433.73
1.62486
1.63892
1.6554
1.67314
1.69243
1.71303
1.73512
1.75868
1.7839
1.81083
1.83967
1.87054
1.61257
1.60333
1.59566
1.59321
1.59525
1.6016
1.61451
1.63777
1.67188
1.71949
1.78145
1.86032
1.95438
2.06412
2.18565
2.31953
2.46032
2.60865
2.78231
2.98987
3.20129
3.42817
3.6799
3.97072
4.34513
4.88854
5.78624
7.49279
11.2455
20.6865
46.8173
128.731
464.666
2485.61
1.61255
1.62521
1.63977
1.65622
1.67398
1.69322
1.71378
1.7358
1.75929
1.7844
1.81122
1.83992
1.87063
1.60323
1.5956
1.59313
1.59517
1.60156
1.61461
1.63817
1.67298
1.72186
1.78614
1.86894
1.96905
2.08802
2.22001
2.365
2.51677
2.6751
2.85743
3.07214
3.28294
3.48434
3.69158
3.92188
4.18899
4.53159
5.04249
5.90579
7.56756
11.2467
20.5284
46.3983
128.528
469.835
2534.82
1.60313
1.61293
1.62598
1.64064
1.65706
1.67485
1.69403
1.71456
1.7365
1.75992
1.78492
1.81163
1.84018
1.87072
1.59556
1.59305
1.59511
1.60155
1.61473
1.6386
1.67407
1.72413
1.79061
1.87715
1.98319
2.11167
2.25661
2.41686
2.58342
2.7573
2.956
3.18866
3.41124
3.61656
3.79838
3.97759
4.17761
4.41644
4.7265
5.20127
6.02788
7.64619
11.2527
20.3914
46.0271
128.379
474.786
2581.47
1.59554
1.60337
1.61372
1.62678
1.64155
1.65794
1.67573
1.69486
1.71535
1.73722
1.76056
1.78546
1.81204
1.84044
1.87081
1.59297
1.59505
1.60156
1.61488
1.63905
1.67514
1.72631
1.79487
1.88491
1.99673
2.13458
2.29289
2.47244
2.65946
2.85374
3.07564
3.33604
3.58224
3.80291
3.99171
4.14284
4.28436
4.44645
4.65013
4.9265
5.36257
6.15199
7.7274
11.2653
20.2732
45.7002
128.264
479.537
2625.55
1.59289
1.59581
1.60393
1.61454
1.62761
1.64248
1.65884
1.67665
1.69573
1.71617
1.73796
1.76122
1.78601
1.81245
1.84069
1.8709
1.59499
1.60158
1.61504
1.63949
1.67618
1.72839
1.79892
1.89223
2.00964
2.15654
2.3282
2.52832
2.74161
2.96452
3.21641
3.5146
3.79623
4.04524
4.25091
4.40959
4.51684
4.60995
4.72673
4.88884
5.13111
5.52696
6.27722
7.81015
11.2851
20.172
45.4093
128.195
484.065
2667.18
1.59496
1.59284
1.59634
1.60449
1.6154
1.62848
1.64344
1.65978
1.67758
1.69662
1.71701
1.73873
1.76189
1.78655
1.81285
1.84093
1.87098
1.60157
1.6152
1.63994
1.67718
1.73037
1.80276
1.89915
2.02193
2.17748
2.3624
2.58353
2.82486
3.0859
3.38058
3.72809
4.05871
4.35057
4.58712
4.76044
4.87164
4.91939
4.9524
5.01623
5.13069
5.33481
5.69228
6.40255
7.8938
11.3096
20.085
45.1536
128.145
488.392
2706.39
1.60162
1.59478
1.5927
1.59689
1.6051
1.6163
1.62939
1.64442
1.66076
1.67855
1.69754
1.71788
1.73951
1.76256
1.78708
1.81324
1.84117
1.87106
1.61533
1.64035
1.67813
1.73225
1.80637
1.90566
2.03357
2.19735
2.39542
2.63756
2.9076
3.21145
3.56488
3.98379
4.38096
4.73501
5.02028
5.22198
5.3386
5.37993
5.34967
5.30983
5.31282
5.37532
5.53691
5.85692
6.52705
7.97753
11.3378
20.011
44.9259
128.135
492.501
2743.33
1.61552
1.6012
1.5943
1.59251
1.5975
1.60577
1.61722
1.63035
1.64544
1.66177
1.67954
1.69849
1.71876
1.74029
1.76321
1.78759
1.81361
1.8414
1.87114
1.6407
1.679
1.73401
1.80976
1.91177
2.04457
2.21614
2.42715
2.68995
2.98928
3.33965
3.76038
4.27963
4.78157
5.22718
5.58837
5.83783
5.96903
5.99432
5.93703
5.80696
5.68043
5.61463
5.62096
5.73667
6.01964
6.64988
8.06079
11.3687
19.9476
44.7262
128.142
496.416
2778.03
1.64112
1.6147
1.60004
1.59374
1.59242
1.59816
1.6065
1.61817
1.63135
1.64648
1.66281
1.68055
1.69946
1.71963
1.74105
1.76384
1.78809
1.81398
1.84162
1.87122
1.67975
1.73561
1.81291
1.91748
2.05488
2.23384
2.45752
2.74037
3.06965
3.46972
3.96336
4.60285
5.26806
5.87404
6.35562
6.68454
6.84417
6.84983
6.73675
6.54525
6.29044
6.06243
5.91992
5.86608
5.93331
6.17943
6.77036
8.14288
11.4016
19.8942
44.5479
128.16
500.12
2806.42
1.68056
1.6397
1.61239
1.59876
1.59331
1.59243
1.59883
1.6073
1.61914
1.6324
1.64755
1.6639
1.68159
1.70043
1.72048
1.74178
1.76445
1.78858
1.81433
1.84184
1.87129
1.73701
1.81576
1.92278
2.0645
2.25047
2.4864
2.78858
3.14849
3.60035
4.17103
4.95075
5.83186
6.70971
7.41925
7.88074
8.09494
8.07822
7.88256
7.57242
7.20551
6.79875
6.45399
6.22706
6.10938
6.12612
6.33562
6.88794
8.22355
11.436
19.8487
44.3919
128.195
503.181
2830.38
1.73845
1.67841
1.6356
1.60992
1.59766
1.59297
1.59256
1.5995
1.60819
1.62014
1.63351
1.64866
1.66501
1.68263
1.70137
1.72131
1.7425
1.76505
1.78905
1.81468
1.84205
1.87137
1.8183
1.92761
2.0734
2.26601
2.5137
2.83446
3.2255
3.72992
4.38151
5.32482
6.47713
7.72756
8.84498
9.58617
9.90499
9.87425
9.56512
9.07633
8.50294
7.91646
7.32978
6.85317
6.53453
6.34968
6.31446
6.48745
7.00285
8.30236
11.4712
19.8108
44.2517
128.236
505.774
2856.45
1.82079
1.73534
1.67186
1.63121
1.60773
1.59665
1.59268
1.59289
1.60017
1.60915
1.62117
1.63466
1.64979
1.66612
1.68364
1.70228
1.72212
1.7432
1.76563
1.78951
1.81501
1.84225
1.87144
1.93196
2.08156
2.28048
2.53937
2.87796
3.3003
3.85695
4.59432
5.72687
7.20627
8.92437
10.6045
11.8909
12.503
12.4926
12.0479
11.3106
10.4289
9.52401
8.67409
7.88055
7.25785
6.84086
6.58601
6.49787
6.63346
7.11438
8.37916
11.5069
19.7784
44.145
128.277
508.621
2884.79
1.93609
1.81649
1.7253
1.66496
1.62719
1.60568
1.59571
1.59233
1.5934
1.60085
1.61018
1.62224
1.63584
1.65092
1.6672
1.68462
1.70317
1.72291
1.74387
1.76619
1.78996
1.81534
1.84245
1.87147
2.08897
2.29383
2.56335
2.91909
3.37246
3.98043
4.80989
6.15693
8.01417
10.287
12.6704
14.7263
16.0068
16.247
15.6679
14.6133
13.3024
11.9277
10.626
9.47204
8.44721
7.66575
7.14467
6.81753
6.67624
6.77365
7.2222
8.4535
11.5426
19.7554
44.0567
128.331
511.733
2915.64
2.09581
1.93025
1.80149
1.71485
1.6586
1.6234
1.60376
1.59485
1.59197
1.59404
1.60156
1.61127
1.62335
1.63702
1.65203
1.66825
1.68558
1.70404
1.72367
1.74453
1.76674
1.79039
1.81565
1.84255
1.87147
2.3061
2.58561
2.95783
3.4416
4.09988
5.02895
6.61267
8.89001
11.7921
15.0071
18.0374
20.3031
21.3033
20.8543
19.4244
17.5472
15.5157
13.5529
11.7954
10.3022
9.02531
8.07448
7.44464
7.04351
6.84903
6.90813
7.32583
8.52539
11.5735
19.7369
43.9673
128.399
515.155
2949.22
2.3172
2.08815
1.90817
1.78607
1.70518
1.65255
1.6198
1.60197
1.59406
1.59168
1.59477
1.60232
1.6124
1.62447
1.63818
1.65312
1.66928
1.68652
1.70488
1.72442
1.74517
1.76728
1.79081
1.81581
1.84255
1.87147
2.60624
2.99416
3.50743
4.21525
5.252
7.08983
9.82012
13.412
17.5691
21.7632
25.3079
27.5031
27.8503
26.3278
23.7331
20.8125
17.9181
15.2807
13.0171
11.1556
9.61013
8.48165
7.73955
7.26332
7.01591
7.03676
7.4254
8.58553
11.6005
19.7197
43.8722
128.486
518.906
2985.8
2.62451
2.30713
2.05595
1.88578
1.77178
1.69594
1.64674
1.61639
1.60032
1.59335
1.59149
1.59556
1.60316
1.61354
1.62558
1.6393
1.65419
1.67027
1.68743
1.7057
1.72514
1.74579
1.7678
1.79102
1.81581
1.84255
1.87147
3.02823
3.56979
4.32681
5.47904
7.58284
10.7901
15.1185
20.3081
25.8294
30.9261
34.7263
36.4496
35.6759
32.6399
28.5466
24.3632
20.4733
17.086
14.275
12.023
10.1971
8.88499
8.02824
7.47646
7.17655
7.15986
7.50806
8.63715
11.6311
19.7021
43.7782
128.593
523.04
3025.67
3.05802
2.61148
2.26026
2.02378
1.86502
1.75808
1.68703
1.64119
1.61319
1.59879
1.59276
1.59142
1.59639
1.60406
1.61464
1.6267
1.6404
1.65523
1.67124
1.68832
1.7065
1.72585
1.7464
1.76805
1.79102
1.81581
1.84255
1.87147
3.62893
4.43503
5.70943
8.08535
11.7856
16.8846
23.1764
30.1565
37.0388
42.8271
46.4838
47.2102
44.7631
39.7346
33.8034
28.1483
23.1441
18.9438
15.5535
12.8956
10.7815
9.2824
8.30976
7.68246
7.33094
7.26174
7.57879
8.69431
11.6657
19.6874
43.6782
128.728
527.586
3069.11
3.68025
3.04078
2.54315
2.2142
1.99392
1.84506
1.74483
1.67846
1.63588
1.61018
1.59739
1.59228
1.59148
1.59722
1.60501
1.61571
1.6278
1.64146
1.65626
1.67218
1.68919
1.70728
1.72653
1.7467
1.76805
1.79102
1.81581
1.84255
1.87147
4.5405
5.94022
8.59076
12.7929
18.6843
26.1277
34.6652
43.5168
51.6177
57.7336
60.7003
59.789
55.0493
47.5304
39.4322
32.1146
25.8942
20.8308
16.8385
13.7652
11.3592
9.67191
8.58338
7.88112
7.4595
7.34885
7.65678
8.75771
11.7052
19.6723
43.5827
128.892
532.609
3116.51
4.63326
3.65791
2.93958
2.47717
2.17145
1.9652
1.82576
1.73204
1.67022
1.63084
1.60739
1.59613
1.59193
1.59171
1.598
1.606
1.61676
1.62888
1.6425
1.65726
1.6731
1.69004
1.70803
1.72687
1.7467
1.76805
1.79102
1.81581
1.84255
1.87143
6.16891
9.09463
13.7995
20.4934
29.1188
39.2797
50.2309
60.8914
69.9085
75.8249
77.4116
74.1224
66.4288
55.9263
45.3556
36.209
28.6897
22.7261
18.1176
14.6244
11.9265
10.0518
8.84854
8.04765
7.56965
7.44482
7.74292
8.82815
11.7499
19.6628
43.4815
129.098
538.154
3168.18
4.60347
6.37102
3.50285
2.84427
2.41593
2.13034
1.9374
1.80708
1.71971
1.66233
1.62604
1.60483
1.59501
1.59167
1.5922
1.59874
1.607
1.61778
1.62996
1.64352
1.65823
1.674
1.69086
1.7084
1.72687
1.7467
1.76805
1.79102
1.81581
1.84245
1.87136
9.59262
14.7944
22.29
32.1094
43.9299
57.0602
70.4441
82.6883
92.1502
97.1774
96.562
90.0804
78.7597
64.8066
51.4934
40.3809
31.5
24.6114
19.3796
15.4673
12.4801
10.4209
9.07143
8.19052
7.69124
7.55073
7.83816
8.90652
11.8012
19.6526
43.3898
129.345
544.294
3224.59
4.34832
6.34277
10.0324
3.362
2.75591
2.35705
2.09055
1.9105
1.78906
1.70786
1.65479
1.62147
1.60253
1.59405
1.59133
1.59283
1.59947
1.60802
1.61878
1.63101
1.64451
1.65918
1.67487
1.69127
1.7084
1.72688
1.7467
1.76805
1.79102
1.81565
1.84225
1.87129
15.7678
24.0556
35.0644
48.5533
63.8973
80.0902
95.7601
109.195
118.462
121.754
118.003
107.474
91.8719
74.0482
57.7674
44.5836
34.2978
26.4708
20.6157
16.2887
13.0179
10.7312
9.2629
8.34852
7.82581
7.66777
7.94364
8.99389
11.8595
19.6524
43.2935
129.655
551.111
3286.07
4.12468
5.89325
10.024
16.6291
3.23272
2.67107
2.30016
2.05205
1.88452
1.7717
1.6965
1.6476
1.61721
1.60051
1.59325
1.59107
1.59353
1.60021
1.60903
1.61977
1.63203
1.64547
1.66011
1.6753
1.69127
1.7084
1.72688
1.7467
1.76805
1.79081
1.81533
1.84204
1.87122
25.7739
37.955
53.0974
70.6505
89.6717
108.848
126.495
140.567
148.834
149.401
141.502
126.066
105.577
83.5268
64.1037
48.7748
37.0592
28.2914
21.8187
17.0849
13.4693
10.998
9.47498
8.52358
7.97495
7.79734
8.06062
9.09142
11.9266
19.6553
43.2151
130.024
558.673
3353.17
3.92345
5.50129
9.20642
16.6861
27.3034
3.1093
2.58922
2.2452
2.01489
1.8595
1.75504
1.68566
1.64085
1.61339
1.5988
1.59258
1.59092
1.59426
1.60096
1.61002
1.62075
1.63304
1.64643
1.66058
1.67529
1.69127
1.7084
1.72688
1.7467
1.76779
1.79039
1.815
1.84183
1.87114
40.7573
57.5215
77.2465
99.0613
121.728
143.65
162.822
176.824
183.124
179.853
166.749
145.585
119.682
93.1234
70.4346
52.9173
39.7647
30.0626
22.983
17.7516
13.857
11.2936
9.71032
8.71788
8.14048
7.94104
8.19063
9.20062
12.0034
19.6642
43.1323
130.491
567.126
3426.25
3.73491
5.14926
8.47663
15.318
27.5263
43.2604
2.99078
2.51032
2.19222
1.97913
1.83549
1.73912
1.67544
1.63472
1.61006
1.59732
1.59206
1.59088
1.595
1.60174
1.611
1.62171
1.63403
1.64689
1.66057
1.67529
1.69127
1.7084
1.72687
1.74639
1.76727
1.78995
1.81467
1.84161
1.87106
61.7926
83.6326
108.164
134.232
160.353
184.66
204.78
217.849
221.059
212.74
193.376
165.739
133.995
102.727
76.7001
56.9801
42.3983
31.7761
23.9564
18.3237
14.2866
11.6219
9.97189
8.93391
8.32454
8.10072
8.33528
9.32289
12.0921
19.6828
43.0817
131.044
576.521
3505.91
3.55691
4.82221
7.81293
14.0507
25.4327
43.7927
65.6109
2.87696
2.43445
2.14131
1.94483
1.81253
1.72409
1.66611
1.62929
1.60715
1.59607
1.59167
1.59095
1.59573
1.60254
1.61195
1.62268
1.63452
1.64687
1.66057
1.67529
1.69127
1.7084
1.72653
1.74578
1.76673
1.7895
1.81432
1.84139
1.87098
89.7678
116.917
146.244
176.387
205.663
231.911
252.281
263.391
262.238
247.603
220.977
186.24
148.336
112.239
82.8497
60.9379
44.9472
33.2081
24.7914
18.9573
14.7633
11.9868
10.2631
9.17457
8.52957
8.27852
8.49677
9.46055
12.194
19.7162
43.0274
131.741
587.108
3592.44
3.38871
4.51658
7.19297
12.8617
23.4587
40.7977
66.6305
95.2427
2.76782
2.36175
2.09257
1.91207
1.79084
1.71032
1.65776
1.62446
1.60461
1.59501
1.59141
1.59115
1.59643
1.60336
1.61293
1.62314
1.6345
1.64687
1.66058
1.67529
1.69127
1.70803
1.72584
1.74515
1.76618
1.78904
1.81396
1.84116
1.8709
125.277
157.701
191.622
225.56
257.652
285.334
305.125
313.067
306.141
283.915
249.136
206.808
162.545
121.576
88.8417
64.7699
47.078
34.4368
25.7159
19.6597
15.2929
12.3931
10.5878
9.44319
8.75835
8.47686
8.67679
9.61634
12.3127
19.7622
43.0247
132.581
598.9
3703.96
3.22993
4.23183
6.61084
11.7301
21.5685
37.9464
62.5689
96.9371
132.702
2.66347
2.29239
2.0461
1.88115
1.77097
1.69798
1.6503
1.62018
1.60242
1.59413
1.59123
1.5915
1.59712
1.60425
1.61338
1.6231
1.63451
1.64687
1.66057
1.6753
1.69086
1.70726
1.72512
1.74451
1.76561
1.78856
1.8136
1.84092
1.87081
168.563
206.007
244.215
281.664
316.237
344.782
362.995
366.359
352.151
321.119
277.442
227.189
176.484
130.669
94.6425
67.9741
48.907
35.7977
26.7407
20.4394
15.882
12.846
10.9503
9.74345
9.01408
8.69878
8.87698
9.79283
12.45
19.8299
43.0403
133.626
614.792
3838.43
3.08016
3.96806
6.06687
10.6505
19.7327
35.1778
58.696
91.6521
135.232
178.133
2.5641
2.22651
2.00232
1.85286
1.75314
1.68691
1.64363
1.61636
1.60055
1.59338
1.59102
1.59199
1.59788
1.60466
1.61332
1.6231
1.63451
1.64687
1.66058
1.67487
1.69003
1.70648
1.72439
1.74385
1.76503
1.78808
1.81323
1.84068
1.87072
219.524
261.613
303.817
344.563
381.312
410.053
425.466
422.628
399.58
358.647
305.516
247.168
190.04
139.462
99.4906
70.7247
50.9334
37.3066
27.878
21.3058
16.5377
13.3513
11.3555
10.0795
9.30043
8.94788
9.10038
9.99278
12.6107
19.9198
43.0881
135.138
634.934
3976.21
2.93866
3.72588
5.56282
9.62643
17.9416
32.4512
54.9064
86.6464
128.56
181.59
231.285
2.47001
2.16467
1.96232
1.82748
1.73713
1.67699
1.63767
1.61296
1.59896
1.59276
1.59087
1.59265
1.59818
1.60458
1.61333
1.6231
1.63451
1.64689
1.66011
1.67398
1.68917
1.70568
1.72365
1.74317
1.76443
1.78758
1.81284
1.84043
1.87063
277.781
324.163
370.194
414.151
452.799
480.903
491.999
481.13
447.702
395.956
333.029
266.566
203.124
146.8
103.65
73.7719
53.1807
38.9813
29.1412
22.2692
17.2683
13.9156
11.809
10.4561
9.62156
9.22783
9.35063
10.2198
12.7977
20.0419
43.2127
137.316
657.157
4115.82
2.80492
3.50767
5.09967
8.66763
16.1969
29.748
51.1421
81.7407
122.336
173.33
235.647
291.596
2.38208
2.10837
1.92653
1.80473
1.72277
1.66809
1.63234
1.60996
1.5976
1.59227
1.59098
1.59293
1.59802
1.6046
1.61333
1.6231
1.63452
1.64642
1.65917
1.67308
1.6883
1.70486
1.72288
1.74248
1.76382
1.78707
1.81245
1.84018
1.87054
342.809
393.293
443.218
490.509
530.753
557.068
561.943
541.029
495.791
432.57
359.71
285.243
214.015
153.087
108.254
77.1501
55.6752
40.8418
30.5455
23.3413
18.0826
14.546
12.3167
10.8785
9.98213
9.5429
9.63178
10.4777
13.0176
20.2278
43.4834
139.948
681.135
4256.72
2.67992
3.30916
4.677
7.7767
14.5062
27.0657
47.3682
76.854
116.268
165.804
225.519
296.69
358.338
2.30247
2.05812
1.8945
1.78432
1.70989
1.66013
1.6276
1.60732
1.59647
1.59213
1.59089
1.59279
1.59802
1.6046
1.61333
1.62315
1.63403
1.64546
1.65821
1.67216
1.6874
1.70401
1.72209
1.74176
1.76319
1.78654
1.81204
1.83992
1.87045
414.102
468.81
523.062
574.02
615.393
638.255
634.52
601.448
543.19
468.091
385.349
300.746
223.327
160.033
113.352
80.8975
58.4458
42.9099
32.1077
24.5349
18.9906
15.2504
12.8854
11.3523
10.3874
9.89765
9.9487
10.7717
13.322
20.5177
43.8799
143.087
707.709
4397.07
2.5667
3.12856
4.2965
6.95538
12.8872
24.4133
43.5708
71.9263
110.247
158.56
216.58
284.29
363.819
430.812
2.23186
2.01328
1.86583
1.76602
1.69834
1.653
1.62336
1.60506
1.59584
1.59188
1.59057
1.59284
1.59802
1.60459
1.61339
1.62268
1.63303
1.64449
1.65723
1.67121
1.68649
1.70315
1.72129
1.74103
1.76255
1.786
1.81163
1.83966
1.87036
491.35
550.874
610.306
665.379
707.035
724.046
708.837
661.546
589.338
502.21
406.575
313.969
233.589
167.707
118.998
85.0555
61.5242
45.21
33.8461
25.864
20.0029
16.0373
13.5221
11.8839
10.8428
10.2976
10.3066
11.1686
13.7351
20.884
44.4386
146.853
736.36
4536.06
2.46638
2.96765
3.95979
6.20965
11.3585
21.8087
39.7508
66.922
104.177
151.454
208.147
273.759
348.553
436.181
508.567
2.16921
1.97326
1.84018
1.74963
1.68799
1.64661
1.61965
1.60357
1.59529
1.59149
1.59059
1.59284
1.59803
1.60467
1.61293
1.6217
1.63201
1.64349
1.65623
1.67024
1.68555
1.70226
1.72047
1.74028
1.76189
1.78546
1.81122
1.83941
1.87027
574.685
640.247
706.179
765.731
805.99
813.846
783.966
720.587
633.791
530.429
424.643
328.498
244.89
176.182
125.248
89.669
64.9454
47.7685
35.7808
27.344
21.1312
16.9159
14.2344
12.4797
11.3546
10.7477
10.7863
11.6852
14.2082
21.3446
45.1853
151.283
768.214
4671.49
2.37773
2.82537
3.67248
5.54843
9.93944
19.2757
35.9209
61.8231
97.9919
144.347
200.042
264.091
336.15
417.174
513.228
591.693
2.11358
1.93754
1.81722
1.73494
1.67869
1.64095
1.617
1.60248
1.59476
1.59153
1.5906
1.5928
1.59819
1.60425
1.61195
1.62073
1.63098
1.64247
1.6552
1.66925
1.6846
1.70135
1.71962
1.73951
1.76122
1.78491
1.81082
1.83917
1.87019
665.026
738.67
812.898
876.693
912.597
906.968
859.115
777.985
670.656
554.429
444.445
344.441
257.32
185.531
132.164
94.7864
68.7465
50.614
37.9336
28.9913
22.3878
17.8956
15.0299
13.1466
11.9282
11.3485
11.402
12.2548
14.7498
21.912
46.1608
156.577
802.601
4802.49
2.29954
2.69862
3.43606
4.98514
8.66114
16.8413
32.1038
56.6241
91.6413
137.131
192.069
255.07
325.135
402.495
489.202
595.009
681.251
2.06413
1.90567
1.7967
1.72174
1.67042
1.63675
1.61522
1.60173
1.59484
1.59153
1.59058
1.59294
1.59789
1.60336
1.61098
1.61975
1.62993
1.64144
1.65416
1.66823
1.68362
1.70042
1.71876
1.73873
1.76055
1.78439
1.81044
1.83894
1.8701
764.552
849.452
933.889
1000.61
1027.1
1003.19
933.666
826.037
702.069
580.708
466.11
361.905
270.97
195.831
139.809
100.458
72.9673
53.777
40.3275
30.823
23.7853
18.9861
15.9167
13.8905
12.6897
12.1106
12.0699
12.8794
15.3653
22.6074
47.4213
162.782
840.93
4926.63
2.2306
2.58579
3.23721
4.51661
7.55391
14.5498
28.3322
51.3324
85.0858
129.716
184.078
246.431
315.245
389.931
471.714
564.141
682.771
780.018
2.02017
1.87725
1.77828
1.71
1.66411
1.63406
1.61424
1.60184
1.59484
1.59149
1.5909
1.59266
1.59713
1.60253
1.61
1.61876
1.62886
1.64037
1.6531
1.66718
1.68262
1.69946
1.71788
1.73795
1.75991
1.78388
1.81006
1.83871
1.87002
877.607
978.267
1074.89
1139.7
1151.98
1102.47
997.398
867.267
736.55
609.433
489.764
380.991
285.927
207.158
148.246
106.735
77.6487
57.2893
42.9867
32.8572
25.3369
20.1972
16.9014
14.8729
13.6462
12.9248
12.7886
13.5614
16.0646
23.4516
49.0215
170.203
882.511
5043.3
2.1698
2.48573
3.06659
4.13018
6.62267
12.494
24.674
45.9708
78.2973
122.01
175.928
237.981
306.128
379.153
457.302
543.225
642.367
779.985
893.812
1.98108
1.85183
1.76187
1.70088
1.66017
1.63278
1.61441
1.60185
1.59477
1.59189
1.591
1.592
1.59643
1.60173
1.60901
1.61776
1.62777
1.63928
1.65202
1.66611
1.6816
1.69849
1.71701
1.7372
1.75928
1.78338
1.80969
1.83849
1.86995
1012.26
1135.6
1241.62
1305.56
1289.93
1190.39
1052.88
912.907
774.376
640.78
515.525
401.79
302.271
219.582
157.536
113.67
82.8321
61.1832
45.9355
35.1119
27.0553
21.5372
18.1955
16.0955
14.6562
13.7856
13.5548
14.2967
16.852
24.4667
51.0537
178.945
928.866
5150.03
2.11611
2.39745
2.91761
3.81252
5.84955
10.7177
21.2729
40.6176
71.2637
113.93
167.47
229.527
297.546
369.697
445.54
526.578
617.378
725.926
894.102
1035.09
1.94623
1.82925
1.74893
1.69531
1.6585
1.63301
1.61441
1.60174
1.59531
1.59216
1.5909
1.59152
1.59573
1.60096
1.608
1.61674
1.62668
1.63817
1.65092
1.66502
1.68056
1.69753
1.71616
1.73648
1.75867
1.78291
1.80934
1.83828
1.86987
1184.29
1335.13
1470.82
1509.67
1417.68
1268.57
1115.34
963.517
815.868
674.932
543.504
424.384
320.068
233.165
167.734
121.309
88.5572
65.49
49.1978
37.6046
28.9519
23.2916
19.7946
17.3748
15.7108
14.6861
14.3651
15.0866
17.7335
25.6798
53.592
189.453
979.697
5247.16
2.06853
2.3199
2.78577
3.5541
5.21425
9.21202
18.2211
35.4745
64.0457
105.4
158.548
220.861
289.255
361.274
435.819
513.66
598.065
696.133
820.499
1042.68
1228.27
1.91532
1.81125
1.74113
1.69319
1.65882
1.63302
1.61426
1.6025
1.59588
1.59231
1.59106
1.59117
1.595
1.60021
1.60699
1.6157
1.62558
1.63702
1.6498
1.6639
1.67953
1.6966
1.71534
1.73578
1.75807
1.78244
1.80899
1.83807
1.86979
1429.88
1666.19
1791.44
1705.01
1533.6
1358.61
1186.13
1019.91
861.453
712.108
573.814
448.836
339.368
247.954
178.888
129.697
94.8602
70.2388
52.796
40.3503
31.4286
25.4485
21.4568
18.6986
16.7998
15.6187
15.2134
15.9323
18.7163
27.1172
56.7551
201.925
1036.27
5332.07
2.0265
2.25176
2.66855
3.34169
4.69485
7.95422
15.5244
30.6984
56.8856
96.4226
148.997
211.751
281
353.589
427.775
503.671
583.728
673.731
784.602
939.299
1273.19
1545.55
1.89038
1.80061
1.73842
1.69364
1.65883
1.63279
1.61525
1.60362
1.59652
1.59281
1.59127
1.59099
1.59426
1.59948
1.60599
1.61464
1.62447
1.63585
1.64867
1.66281
1.67853
1.69571
1.71454
1.73509
1.7575
1.78199
1.80866
1.83787
1.86972
1903.97
2156.75
2093.12
1883.22
1670.55
1463.74
1267.58
1083.33
911.763
752.602
606.579
475.198
360.203
263.98
191.029
138.864
101.77
75.4543
56.7477
43.9274
34.4618
27.6805
23.1667
20.0542
17.9128
16.5755
16.0948
16.8343
19.8096
28.8125
60.6387
216.902
1098.89
5407.15
1.99238
2.19225
2.56432
3.16279
4.27314
6.91335
13.1849
26.3321
50.0028
87.2341
138.72
201.935
272.484
346.349
421.064
496.136
573.402
657.596
758.785
895.015
1116.09
1735.71
2231.77
1.87575
1.79725
1.73901
1.69364
1.65851
1.63409
1.61706
1.60513
1.59768
1.59345
1.59146
1.59093
1.59354
1.59875
1.60502
1.61355
1.62336
1.63467
1.64755
1.66175
1.67757
1.69484
1.71376
1.73444
1.75694
1.78156
1.80833
1.83768
1.86969
2608.22
2646
2386.59
2110.1
1839.38
1592.66
1363.49
1155.91
967.81
796.832