/*--------------------------------*- C++ -*----------------------------------*\
  =========                 |
  \\      /  F ield         | OpenFOAM: The Open Source CFD Toolbox
   \\    /   O peration     | Website:  https://openfoam.org
    \\  /    A nd           | Version:  8
     \\/     M anipulation  |
\*---------------------------------------------------------------------------*/
FoamFile
{
    version     2.0;
    format      ascii;
    class       surfaceScalarField;
    location    "0.36";
    object      phi;
}
// * * * * * * * * * * * * * * * * * * * * * * * * * * * * * * * * * * * * * //

dimensions      [0 3 -1 0 0 0 0];

internalField   nonuniform List<scalar> 
31053
(
6.40181e-07
1.27398e-05
8.63208e-07
1.5157e-05
3.5766e-07
1.23822e-05
9.48846e-07
1.75544e-05
5.68099e-07
1.49465e-05
2.758e-07
1.21064e-05
9.73506e-07
2.02153e-05
6.83102e-07
1.74394e-05
4.72272e-07
1.47501e-05
2.17619e-07
1.18887e-05
9.64844e-07
2.32487e-05
7.42097e-07
2.01563e-05
5.98866e-07
1.73128e-05
3.98979e-07
1.45687e-05
1.73573e-07
1.17152e-05
9.3482e-07
2.669e-05
7.6744e-07
2.32233e-05
6.74734e-07
2.00805e-05
5.27513e-07
1.71842e-05
3.3573e-07
1.44065e-05
1.39624e-07
1.15755e-05
8.89197e-07
3.06656e-05
7.70927e-07
2.66865e-05
7.17634e-07
2.31804e-05
6.09839e-07
1.99981e-05
4.59636e-07
1.70603e-05
2.82349e-07
1.42638e-05
1.12928e-07
1.14626e-05
8.30995e-07
3.51982e-05
7.59044e-07
3.06775e-05
7.38522e-07
2.66656e-05
6.59535e-07
2.31307e-05
5.42608e-07
1.99152e-05
3.97711e-07
1.6945e-05
2.3615e-07
1.41406e-05
9.08081e-08
1.13718e-05
7.64103e-07
4.03869e-05
7.36047e-07
3.52212e-05
7.43928e-07
3.06721e-05
6.86705e-07
2.66385e-05
5.93764e-07
2.30796e-05
4.77589e-07
1.98353e-05
3.40262e-07
1.68409e-05
1.94803e-07
1.40366e-05
7.1464e-08
1.13003e-05
6.91274e-07
4.63528e-05
7.03012e-07
4.04199e-05
7.37815e-07
3.52273e-05
6.97382e-07
3.06614e-05
6.2216e-07
2.66101e-05
5.26909e-07
2.30302e-05
4.13989e-07
1.97616e-05
2.85683e-07
1.675e-05
1.56559e-07
1.39515e-05
5.37754e-08
1.12466e-05
6.14264e-07
5.3217e-05
6.61358e-07
4.63945e-05
7.20394e-07
4.04373e-05
6.94479e-07
3.52302e-05
6.33745e-07
3.06498e-05
5.53349e-07
2.65836e-05
4.58693e-07
2.29855e-05
3.50727e-07
1.96965e-05
2.32654e-07
1.66739e-05
1.20181e-07
1.38851e-05
3.69834e-08
1.12096e-05
5.34919e-07
6.10593e-05
6.12986e-07
5.32654e-05
6.91899e-07
4.6423e-05
6.80977e-07
4.04508e-05
6.31923e-07
3.5232e-05
5.62728e-07
3.06405e-05
4.80505e-07
2.65618e-05
3.88407e-07
2.29479e-05
2.86764e-07
1.96424e-05
1.80164e-07
1.66139e-05
8.47683e-08
1.38373e-05
2.05896e-08
1.1189e-05
4.54948e-07
7.0062e-05
5.59513e-07
6.11128e-05
6.53511e-07
5.33038e-05
6.5795e-07
4.6446e-05
6.19031e-07
4.04637e-05
5.58572e-07
3.52362e-05
4.84866e-07
3.06361e-05
4.03205e-07
2.6547e-05
3.15106e-07
2.29195e-05
2.21211e-07
1.96014e-05
1.27485e-07
1.65712e-05
4.96673e-08
1.38082e-05
4.39896e-09
1.11846e-05
3.76108e-07
8.04108e-05
5.0241e-07
7.01191e-05
6.06595e-07
6.11597e-05
6.25408e-07
5.33363e-05
5.96299e-07
4.64687e-05
5.42932e-07
4.04794e-05
4.75229e-07
3.52458e-05
3.99994e-07
3.06393e-05
3.20543e-07
2.65416e-05
2.37927e-07
2.29028e-05
1.5349e-07
1.95754e-05
7.40583e-08
1.65468e-05
1.45084e-08
1.37981e-05
-1.17579e-08
1.11964e-05
3.12755e-07
7.62534e-05
4.42987e-07
8.04703e-05
5.52715e-07
7.0173e-05
5.83696e-07
6.12014e-05
5.64049e-07
5.33686e-05
5.16905e-07
4.64948e-05
4.53538e-07
4.05011e-05
3.82057e-07
3.52638e-05
3.07257e-07
3.06526e-05
2.3165e-07
2.65479e-05
1.56338e-07
2.29e-05
8.31579e-08
1.95663e-05
1.95751e-08
1.65417e-05
-2.08854e-08
1.38073e-05
-2.80381e-08
1.12244e-05
2.59242e-07
7.62435e-05
3.92128e-07
7.63042e-05
4.93558e-07
8.05294e-05
5.33596e-07
7.02231e-05
5.22406e-07
6.12431e-05
4.80924e-07
5.34045e-05
4.20765e-07
4.65275e-05
3.51228e-07
4.05319e-05
2.7827e-07
3.52928e-05
2.05781e-07
3.06785e-05
1.35991e-07
2.65682e-05
6.99358e-08
2.29132e-05
1.00641e-08
1.95758e-05
-3.60416e-08
1.65569e-05
-5.66248e-08
1.38358e-05
-4.44592e-08
1.12688e-05
2.14349e-07
7.62349e-05
3.46254e-07
7.62894e-05
4.41256e-07
7.63565e-05
4.76336e-07
8.05867e-05
4.71713e-07
7.02737e-05
4.35131e-07
6.12889e-05
3.77306e-07
5.3448e-05
3.0836e-07
4.65704e-05
2.35259e-07
4.05749e-05
1.62994e-07
3.53355e-05
9.50084e-08
3.07194e-05
3.31858e-08
2.6605e-05
-2.13093e-08
2.29446e-05
-6.56883e-08
1.96054e-05
-9.27267e-08
1.6593e-05
-9.26308e-08
1.3884e-05
-6.08536e-08
1.13297e-05
1.76998e-07
7.62294e-05
3.04986e-07
7.62762e-05
3.92813e-07
7.63378e-05
4.24105e-07
7.64087e-05
4.12839e-07
8.06456e-05
3.79718e-07
7.03292e-05
3.23314e-07
6.13429e-05
2.53752e-07
5.35026e-05
1.78931e-07
4.66267e-05
1.04748e-07
4.06332e-05
3.56495e-08
3.53949e-05
-2.54114e-08
3.0778e-05
-7.67212e-08
2.66604e-05
-1.17121e-07
2.2996e-05
-1.43799e-07
1.96565e-05
-1.50177e-07
1.66505e-05
-1.28626e-07
1.39518e-05
-7.70909e-08
1.14068e-05
1.46244e-07
7.62208e-05
2.67919e-07
7.62664e-05
3.48174e-07
7.63208e-05
3.74709e-07
7.63872e-05
3.58505e-07
7.64631e-05
3.15357e-07
8.07099e-05
2.58968e-07
7.03935e-05
1.87528e-07
6.14091e-05
1.09458e-07
5.35721e-05
3.15615e-08
4.66999e-05
-4.09182e-08
4.07097e-05
-1.04095e-07
3.54736e-05
-1.55376e-07
3.08567e-05
-1.93305e-07
2.67366e-05
-2.16962e-07
2.30691e-05
-2.2366e-07
1.973e-05
-2.07875e-07
1.67298e-05
-1.64257e-07
1.4039e-05
-9.29134e-08
1.14997e-05
1.20993e-07
7.62153e-05
2.34595e-07
7.62541e-05
3.07192e-07
7.63074e-05
3.28515e-07
7.6367e-05
3.06801e-07
7.64389e-05
2.55874e-07
7.65226e-05
1.84916e-07
8.0784e-05
1.09889e-07
7.04711e-05
2.69074e-08
6.14916e-05
-5.65568e-08
5.36602e-05
-1.3442e-07
4.67934e-05
-2.02047e-07
4.08077e-05
-2.56071e-07
3.55743e-05
-2.94296e-07
3.09577e-05
-3.15793e-07
2.68354e-05
-3.19912e-07
2.31654e-05
-3.044e-07
1.98265e-05
-2.65174e-07
1.68307e-05
-1.99048e-07
1.41451e-05
-1.08139e-07
1.16078e-05
1.00119e-07
7.62109e-05
2.04674e-07
7.62452e-05
2.69689e-07
7.62916e-05
2.85677e-07
7.63502e-05
2.58382e-07
7.64154e-05
1.993e-07
7.64955e-05
1.16837e-07
7.65906e-05
2.15755e-08
8.08723e-05
-6.84947e-08
7.05665e-05
-1.59619e-07
6.15947e-05
-2.45049e-07
5.37708e-05
-3.19294e-07
4.69107e-05
-3.78404e-07
4.093e-05
-4.19502e-07
3.56995e-05
-4.41173e-07
3.10831e-05
-4.42952e-07
2.69584e-05
-4.24688e-07
2.32857e-05
-3.8499e-07
1.99463e-05
-3.21285e-07
1.69529e-05
-2.32506e-07
1.42695e-05
-1.22444e-07
1.17303e-05
8.4154e-08
6.9598e-05
1.77941e-07
7.62376e-05
2.35574e-07
7.62793e-05
2.46284e-07
7.6331e-05
2.13626e-07
7.6395e-05
1.46529e-07
7.64682e-05
5.23997e-08
7.65599e-05
-5.8977e-08
7.66712e-05
-1.75852e-07
8.09796e-05
-2.7738e-07
7.06843e-05
-3.72926e-07
6.17226e-05
-4.56282e-07
5.39078e-05
-5.22763e-07
4.7055e-05
-5.69004e-07
4.10795e-05
-5.93159e-07
3.58515e-05
-5.94448e-07
3.12346e-05
-5.73083e-07
2.71068e-05
-5.29842e-07
2.34305e-05
-4.64234e-07
2.00893e-05
-3.75359e-07
1.70958e-05
-2.64031e-07
1.4411e-05
-1.35647e-07
1.18659e-05
7.19011e-08
6.25563e-05
1.56082e-07
6.96198e-05
2.04801e-07
7.62684e-05
2.10411e-07
7.63152e-05
1.72783e-07
7.63718e-05
9.81355e-08
7.64434e-05
-7.30311e-09
7.65279e-05
-1.34724e-07
7.66357e-05
-2.73021e-07
7.67684e-05
-4.08748e-07
8.1111e-05
-5.17802e-07
7.08292e-05
-6.13278e-07
6.18796e-05
-6.89903e-07
5.4075e-05
-7.43624e-07
4.72296e-05
-7.72382e-07
4.12587e-05
-7.75135e-07
3.60322e-05
-7.51984e-07
3.14135e-05
-7.04294e-07
2.72813e-05
-6.33692e-07
2.36e-05
-5.40847e-07
2.02548e-05
-4.26433e-07
1.72582e-05
-2.9314e-07
1.45685e-05
-1.47299e-07
1.20132e-05
6.23304e-08
5.62276e-05
1.38364e-07
6.2574e-05
1.79508e-07
6.96451e-05
1.78102e-07
7.63007e-05
1.36029e-07
7.63519e-05
5.45115e-08
7.64154e-05
-6.15145e-08
7.64976e-05
-2.0439e-07
7.65976e-05
-3.63822e-07
7.67265e-05
-5.26892e-07
7.68865e-05
-6.78362e-07
8.12716e-05
-7.90048e-07
7.1006e-05
-8.80284e-07
6.207e-05
-9.44486e-07
5.42758e-05
-9.80159e-07
4.74374e-05
-9.86254e-07
4.14699e-05
-9.62826e-07
3.6243e-05
-9.1142e-07
3.16206e-05
-8.34374e-07
2.7482e-05
-7.3446e-07
2.37936e-05
-6.13425e-07
2.04417e-05
-4.73675e-07
1.74387e-05
-3.18914e-07
1.47401e-05
-1.56643e-07
1.21699e-05
5.4741e-08
5.05396e-05
1.23894e-07
5.6242e-05
1.58956e-07
6.25945e-05
1.51701e-07
6.96715e-05
1.03475e-07
7.63332e-05
1.59276e-08
7.63905e-05
-1.09699e-07
7.64636e-05
-2.67037e-07
7.65602e-05
-4.46789e-07
7.66805e-05
-6.36727e-07
7.68363e-05
-8.22075e-07
7.70302e-05
-9.85048e-07
8.14666e-05
-1.09373e-06
7.12194e-05
-1.1723e-06
6.22978e-05
-1.21806e-06
5.45137e-05
-1.22968e-06
4.76809e-05
-1.20751e-06
4.17145e-05
-1.15337e-06
3.64849e-05
-1.06999e-06
3.18562e-05
-9.61024e-07
2.77085e-05
-8.30233e-07
2.40104e-05
-6.80724e-07
2.06488e-05
-5.15718e-07
1.76355e-05
-3.40703e-07
1.49242e-05
-1.63706e-07
1.23336e-05
4.86425e-08
4.54261e-05
1.11987e-07
5.05515e-05
1.42192e-07
5.62588e-05
1.30456e-07
6.26158e-05
7.74664e-08
6.96975e-05
-1.74288e-08
7.63666e-05
-1.51479e-07
7.64323e-05
-3.21971e-07
7.65186e-05
-5.20783e-07
7.66342e-05
-7.36573e-07
7.67804e-05
-9.55186e-07
7.69694e-05
-1.15903e-06
7.72042e-05
-1.32846e-06
8.17013e-05
-1.42698e-06
7.14741e-05
-1.48709e-06
6.25668e-05
-1.50749e-06
5.47915e-05
-1.48853e-06
4.79619e-05
-1.43274e-06
4.19939e-05
-1.3434e-06
3.67584e-05
-1.22484e-06
3.212e-05
-1.08177e-06
2.79601e-05
-9.19284e-07
2.4249e-05
-7.40932e-07
2.0874e-05
-5.51798e-07
1.78466e-05
-3.55123e-07
1.51156e-05
-1.29848e-07
1.24634e-05
4.36843e-08
4.0831e-05
1.02127e-07
4.5436e-05
1.28455e-07
5.05652e-05
1.13367e-07
5.62759e-05
5.71395e-08
6.26361e-05
-4.32205e-08
6.97233e-05
-1.86588e-07
7.64017e-05
-3.68693e-07
7.6479e-05
-5.84932e-07
7.65827e-05
-8.25066e-07
7.67227e-05
-1.07576e-06
7.69009e-05
-1.31981e-06
7.71302e-05
-1.53751e-06
7.74132e-05
-1.70659e-06
8.19809e-05
-1.78735e-06
7.17743e-05
-1.8211e-06
6.28804e-05
-1.80856e-06
5.51116e-05
-1.75274e-06
4.82819e-05
-1.65796e-06
4.23085e-05
-1.52947e-06
3.7063e-05
-1.37286e-06
3.24111e-05
-1.19433e-06
2.82351e-05
-9.99354e-07
2.45074e-05
-7.92872e-07
2.11151e-05
-5.77027e-07
1.80685e-05
-3.46625e-07
1.53324e-05
-7.94832e-08
1.25429e-05
3.96111e-08
3.67001e-05
9.39141e-08
4.08392e-05
1.17132e-07
4.54473e-05
9.96291e-08
5.0579e-05
4.12831e-08
5.62918e-05
-6.2561e-08
6.26554e-05
-2.1267e-07
6.97494e-05
-4.06842e-07
7.64399e-05
-6.38588e-07
7.65327e-05
-9.01123e-07
7.66588e-05
-1.18218e-06
7.68292e-05
-1.46515e-06
7.70463e-05
-1.73049e-06
7.73232e-05
-1.95541e-06
7.76621e-05
-2.11677e-06
8.23103e-05
-2.17085e-06
7.21241e-05
-2.1695e-06
6.32414e-05
-2.11668e-06
5.54755e-05
-2.01759e-06
4.86415e-05
-1.87902e-06
4.2658e-05
-1.70777e-06
3.73979e-05
-1.51121e-06
3.2728e-05
-1.29602e-06
2.85318e-05
-1.06876e-06
2.47833e-05
-8.31816e-07
2.13699e-05
-5.8453e-07
1.83064e-05
-3.19239e-07
1.55722e-05
-5.81676e-08
1.26011e-05
3.62338e-08
3.29894e-05
8.70372e-08
3.67069e-05
1.07747e-07
4.08486e-05
8.85566e-08
4.54584e-05
2.89437e-08
5.05913e-05
-7.68596e-08
5.6306e-05
-2.31184e-07
6.26739e-05
-4.33984e-07
6.97765e-05
-6.81275e-07
7.64825e-05
-9.63916e-07
7.65954e-05
-1.27312e-06
7.67497e-05
-1.59314e-06
7.69571e-05
-1.90483e-06
7.72206e-05
-2.18511e-06
7.75529e-05
-2.41001e-06
7.79553e-05
-2.55467e-06
8.26941e-05
-2.57205e-06
7.25266e-05
-2.52703e-06
6.36517e-05
-2.42633e-06
5.58842e-05
-2.27817e-06
4.90407e-05
-2.09137e-06
4.30416e-05
-1.87488e-06
3.77616e-05
-1.63675e-06
3.30687e-05
-1.38464e-06
2.88477e-05
-1.12332e-06
2.50748e-05
-8.53152e-07
2.16385e-05
-5.7906e-07
1.85662e-05
-2.94536e-07
1.58085e-05
-5.19785e-08
1.26531e-05
3.34108e-08
2.96508e-05
8.12491e-08
3.29952e-05
9.99263e-08
3.67148e-05
7.96015e-08
4.08575e-05
1.93932e-08
4.54679e-05
-8.72536e-08
5.06017e-05
-2.43839e-07
5.63187e-05
-4.52019e-07
6.2692e-05
-7.1039e-07
6.98057e-05
-1.01282e-06
7.65314e-05
-1.34752e-06
7.66698e-05
-1.70215e-06
7.68587e-05
-2.05826e-06
7.71106e-05
-2.39274e-06
7.74282e-05
-2.68096e-06
7.78238e-05
-2.89674e-06
7.82974e-05
-3.0142e-06
8.31363e-05
-2.98494e-06
7.29846e-05
-2.88731e-06
6.41127e-05
-2.73181e-06
5.63379e-05
-2.5292e-06
4.94785e-05
-2.29101e-06
4.34577e-05
-2.02717e-06
3.8152e-05
-1.74681e-06
3.34309e-05
-1.45654e-06
2.91809e-05
-1.15944e-06
2.53811e-05
-8.62166e-07
2.19216e-05
-5.69838e-07
1.88415e-05
-2.80622e-07
1.60372e-05
-5.55e-08
1.27086e-05
3.10339e-08
2.66504e-05
7.63542e-08
2.96557e-05
9.33772e-08
3.30017e-05
7.23332e-08
3.6722e-05
1.20377e-08
4.08649e-05
-9.46314e-08
4.54753e-05
-2.52014e-07
5.06099e-05
-4.63067e-07
5.63298e-05
-7.28388e-07
6.271e-05
-1.04496e-06
6.98378e-05
-1.40457e-06
7.65885e-05
-1.79088e-06
7.67586e-05
-2.18883e-06
7.69893e-05
-2.57563e-06
7.72935e-05
-2.92627e-06
7.76736e-05
-3.21338e-06
7.81405e-05
-3.40896e-06
7.86921e-05
-3.4887e-06
8.364e-05
-3.40236e-06
7.34996e-05
-3.24387e-06
6.46247e-05
-3.02704e-06
5.68357e-05
-2.76601e-06
4.99535e-05
-2.47374e-06
4.39043e-05
-2.16154e-06
3.85667e-05
-1.83813e-06
3.38125e-05
-1.50889e-06
2.95303e-05
-1.18173e-06
2.57006e-05
-8.6605e-07
2.22178e-05
-5.62449e-07
1.91234e-05
-2.75925e-07
1.62576e-05
-7.68092e-08
1.27854e-05
2.90191e-08
2.3956e-05
7.21953e-08
2.66545e-05
8.78669e-08
2.96612e-05
6.64126e-08
3.30076e-05
6.40128e-09
3.67277e-05
-9.96944e-08
4.08699e-05
-2.56804e-07
4.54801e-05
-4.68836e-07
5.06156e-05
-7.3792e-07
5.63393e-05
-1.06347e-06
6.27285e-05
-1.44102e-06
6.98742e-05
-1.85828e-06
7.66559e-05
-2.29491e-06
7.68647e-05
-2.73143e-06
7.71451e-05
-3.14283e-06
7.751e-05
-3.50074e-06
7.79609e-05
-3.77532e-06
7.85068e-05
-3.93959e-06
7.9143e-05
-3.97022e-06
8.42079e-05
-3.81698e-06
7.40727e-05
-3.5897e-06
6.51874e-05
-3.30656e-06
5.73763e-05
-2.98372e-06
5.04635e-05
-2.63599e-06
4.43788e-05
-2.27489e-06
3.90035e-05
-1.90839e-06
3.4212e-05
-1.54527e-06
2.98939e-05
-1.19645e-06
2.6031e-05
-8.68169e-07
2.25235e-05
-5.58028e-07
1.94055e-05
-3.40194e-07
1.6521e-05
-8.51314e-08
1.28705e-05
2.73017e-08
2.15337e-05
6.86456e-08
2.39596e-05
8.32091e-08
2.66592e-05
6.1573e-08
2.96661e-05
2.10675e-09
3.30119e-05
-1.02995e-07
3.6731e-05
-2.59064e-07
4.08722e-05
-4.70684e-07
4.54819e-05
-7.41118e-07
5.06188e-05
-1.07165e-06
5.63475e-05
-1.46075e-06
6.27482e-05
-1.90053e-06
6.99165e-05
-2.37519e-06
7.67362e-05
-2.85815e-06
7.69914e-05
-3.32784e-06
7.73301e-05
-3.75525e-06
7.77645e-05
-4.10892e-06
7.82945e-05
-4.3594e-06
7.89266e-05
-4.48008e-06
7.96529e-05
-4.45055e-06
8.48415e-05
-4.22076e-06
7.47038e-05
-3.91846e-06
6.57993e-05
-3.56476e-06
5.79573e-05
-3.17826e-06
5.10057e-05
-2.77466e-06
4.48785e-05
-2.3652e-06
3.94603e-05
-1.96019e-06
3.46269e-05
-1.57087e-06
3.02683e-05
-1.20637e-06
2.63692e-05
-8.68827e-07
2.28343e-05
-6.85191e-07
1.97505e-05
-3.39069e-07
1.67749e-05
-9.39744e-08
1.29645e-05
2.58301e-08
1.93535e-05
6.56032e-08
2.15368e-05
7.92539e-08
2.39635e-05
5.76032e-08
2.66632e-05
-1.14272e-09
2.96693e-05
-1.04968e-07
3.30139e-05
-2.59464e-07
3.67314e-05
-4.69673e-07
4.08712e-05
-7.39676e-07
4.54805e-05
-1.07216e-06
5.06194e-05
-1.46787e-06
5.63546e-05
-1.92242e-06
6.27701e-05
-2.42506e-06
6.99664e-05
-2.95412e-06
7.68322e-05
-3.47886e-06
7.71424e-05
-3.97358e-06
7.75484e-05
-4.40562e-06
7.80612e-05
-4.74326e-06
7.86784e-05
-4.95661e-06
7.94032e-05
-5.02146e-06
8.02238e-05
-4.92052e-06
8.55412e-05
-4.60639e-06
7.53917e-05
-4.2237e-06
6.64582e-05
-3.79694e-06
5.8576e-05
-3.34632e-06
5.15774e-05
-2.88778e-06
4.54011e-05
-2.43416e-06
3.99343e-05
-1.9976e-06
3.50536e-05
-1.58806e-06
3.065e-05
-1.21163e-06
2.67121e-05
-1.07086e-06
2.322e-05
-6.75532e-07
2.00869e-05
-3.38224e-07
1.70192e-05
-1.00749e-07
1.30652e-05
1.73973e-05
2.45638e-08
6.29853e-08
1.93561e-05
7.58812e-08
2.15401e-05
5.43346e-08
2.39668e-05
-3.58042e-09
2.66656e-05
-1.05951e-07
2.96703e-05
-2.58525e-07
3.3013e-05
-4.66632e-07
3.67283e-05
-7.34921e-07
4.08664e-05
-1.0671e-06
4.54754e-05
-1.46566e-06
5.06171e-05
-1.92896e-06
5.63611e-05
-2.45031e-06
6.27954e-05
-3.01375e-06
7.0026e-05
-3.59378e-06
7.69471e-05
-4.1528e-06
7.73216e-05
-4.66156e-06
7.78044e-05
-5.08643e-06
7.84044e-05
-5.3944e-06
7.91162e-05
-5.55735e-06
7.99391e-05
-5.55363e-06
8.08569e-05
-5.37184e-06
8.63067e-05
-4.96647e-06
7.61345e-05
-4.49998e-06
6.71613e-05
-3.99941e-06
5.92291e-05
-3.48576e-06
5.21754e-05
-2.97619e-06
4.59431e-05
-2.48481e-06
4.04215e-05
-2.02262e-06
3.54882e-05
-1.59715e-06
3.10355e-05
-1.49664e-06
2.71378e-05
-1.05584e-06
2.36003e-05
-6.6359e-07
2.04123e-05
-3.35312e-07
1.72537e-05
-1.05109e-07
1.31703e-05
1.73995e-05
6.07213e-08
2.78121e-05
2.24818e-08
7.29938e-08
1.9359e-05
5.16339e-08
2.15428e-05
-5.38922e-09
2.39686e-05
-1.06207e-07
2.66659e-05
-2.56647e-07
2.96684e-05
-4.62197e-07
3.30085e-05
-7.27882e-07
3.67213e-05
-1.05814e-06
4.08575e-05
-1.45674e-06
4.54665e-05
-1.92415e-06
5.06123e-05
-2.45697e-06
5.63678e-05
-3.04387e-06
6.28255e-05
-3.66573e-06
7.00979e-05
-4.29032e-06
7.70846e-05
-4.87319e-06
7.75332e-05
-5.3844e-06
7.81023e-05
-5.7881e-06
7.87981e-05
-6.05229e-06
7.96111e-05
-6.15076e-06
8.05362e-05
-6.06744e-06
8.15525e-05
-5.79598e-06
8.71362e-05
-5.29467e-06
7.69292e-05
-4.74302e-06
6.79049e-05
-4.1696e-06
5.99129e-05
-3.59658e-06
5.27958e-05
-3.04198e-06
4.65003e-05
-2.51875e-06
4.09176e-05
-2.03574e-06
3.59268e-05
-1.9743e-06
3.15131e-05
-1.47709e-06
2.75591e-05
-1.0343e-06
2.3971e-05
-6.48024e-07
2.0725e-05
-3.29657e-07
1.74783e-05
-1.07116e-07
1.32775e-05
1.7402e-05
7.0514e-08
2.78159e-05
5.68793e-08
2.8552e-05
2.04992e-08
4.93945e-08
1.93612e-05
-6.71175e-09
2.15442e-05
-1.05938e-07
2.39683e-05
-2.54136e-07
2.66633e-05
-4.56856e-07
2.96631e-05
-7.19349e-07
3.3e-05
-1.04654e-06
3.67097e-05
-1.44314e-06
4.08439e-05
-1.91122e-06
4.54536e-05
-2.44989e-06
5.06053e-05
-3.05165e-06
5.63755e-05
-3.70263e-06
6.28624e-05
-4.37757e-06
7.01852e-05
-5.03733e-06
7.72487e-05
-5.63295e-06
7.77818e-05
-6.1325e-06
7.84467e-05
-6.50031e-06
7.92461e-05
-6.70546e-06
8.01658e-05
-6.7269e-06
8.11957e-05
-6.55335e-06
8.23099e-05
-6.18558e-06
8.80271e-05
-5.58589e-06
7.7772e-05
-4.94959e-06
6.86849e-05
-4.30674e-06
6.06231e-05
-3.68007e-06
5.34339e-05
-3.08639e-06
4.70679e-05
-2.53662e-06
4.14185e-05
-2.51728e-06
3.64698e-05
-1.94919e-06
3.19852e-05
-1.44655e-06
2.79713e-05
-1.00625e-06
2.43293e-05
-6.28567e-07
2.10239e-05
-3.21273e-07
1.76924e-05
-1.07072e-07
1.33845e-05
1.74039e-05
4.75293e-08
2.78198e-05
6.65911e-08
2.85557e-05
5.31764e-08
2.93119e-05
1.86187e-08
-7.65958e-09
1.93622e-05
-1.053e-07
2.15435e-05
-2.51225e-07
2.39654e-05
-4.50977e-07
2.66575e-05
-7.0992e-07
2.96537e-05
-1.03329e-06
3.29867e-05
-1.42645e-06
3.6693e-05
-1.89266e-06
4.08253e-05
-2.43297e-06
4.54366e-05
-3.04289e-06
5.05965e-05
-3.71289e-06
5.63858e-05
-4.4236e-06
6.29084e-05
-5.14335e-06
7.02912e-05
-5.82823e-06
7.7444e-05
-6.42267e-06
7.8072e-05
-6.89548e-06
7.88419e-05
-7.21114e-06
7.97518e-05
-7.3433e-06
8.07822e-05
-7.27528e-06
8.19176e-05
-7.00297e-06
8.31273e-05
-6.5345e-06
8.89757e-05
-5.83608e-06
7.86585e-05
-5.11812e-06
6.94963e-05
-4.41132e-06
6.13544e-05
-3.73706e-06
5.40845e-05
-3.11014e-06
4.76415e-05
-3.13763e-06
4.20388e-05
-2.48553e-06
3.70061e-05
-1.90862e-06
3.24473e-05
-1.40609e-06
2.83712e-05
-9.7228e-07
2.4673e-05
-6.0561e-07
2.13083e-05
-3.10499e-07
1.78959e-05
-1.05381e-07
1.34899e-05
1.74045e-05
-8.3196e-09
2.78221e-05
4.52556e-08
2.85594e-05
6.28618e-08
2.93154e-05
4.96171e-08
3.00898e-05
1.6842e-08
-1.04411e-07
1.93613e-05
-2.48088e-07
2.15404e-05
-4.44833e-07
2.39593e-05
-7.00043e-07
2.66476e-05
-1.01913e-06
2.96395e-05
-1.40788e-06
3.29682e-05
-1.87042e-06
3.66708e-05
-2.40926e-06
4.08016e-05
-3.02225e-06
4.5416e-05
-3.70337e-06
5.0587e-05
-4.43814e-06
5.64003e-05
-5.20136e-06
6.29664e-05
-5.95701e-06
7.042e-05
-6.65394e-06
7.76753e-05
-7.23206e-06
7.84085e-05
-7.66114e-06
7.92919e-05
-7.90949e-06
8.0318e-05
-7.95448e-06
8.14614e-05
-7.78652e-06
8.27011e-05
-7.40914e-06
8.40019e-05
-6.83763e-06
8.99773e-05
-6.04275e-06
7.95832e-05
-5.24839e-06
7.03333e-05
-4.48382e-06
6.21011e-05
-3.76836e-06
5.47427e-05
-3.84869e-06
4.83525e-05
-3.0986e-06
4.26519e-05
-2.43348e-06
3.7531e-05
-1.85457e-06
3.28958e-05
-1.35713e-06
2.8756e-05
-9.33442e-07
2.50008e-05
-5.79805e-07
2.15776e-05
-2.97843e-07
1.80883e-05
-1.02429e-07
1.35923e-05
1.74035e-05
-1.03361e-07
2.78211e-05
-7.33836e-09
2.85615e-05
4.32168e-08
2.9319e-05
5.93204e-08
3.00932e-05
4.62015e-08
3.08897e-05
1.51702e-08
-2.44854e-07
1.9358e-05
-4.38626e-07
2.15342e-05
-6.90048e-07
2.39493e-05
-1.00461e-06
2.66331e-05
-1.38834e-06
2.96199e-05
-1.84597e-06
3.29437e-05
-2.3811e-06
3.66426e-05
-2.99339e-06
4.07727e-05
-3.67955e-06
4.53922e-05
-4.42917e-06
5.0578e-05
-5.22248e-06
5.64215e-05
-6.03043e-06
6.30399e-05
-6.80999e-06
7.0576e-05
-7.5045e-06
7.79477e-05
-8.04887e-06
7.87963e-05
-8.41806e-06
7.98005e-05
-8.58328e-06
8.09468e-05
-8.52869e-06
8.22036e-05
-8.25243e-06
8.35444e-05
-7.76569e-06
8.493e-05
-7.09145e-06
9.1026e-05
-6.20493e-06
8.05397e-05
-5.34043e-06
7.11899e-05
-4.52502e-06
6.28578e-05
-4.66594e-06
5.556e-05
-3.80211e-06
4.9056e-05
-3.03383e-06
4.32523e-05
-2.36411e-06
3.80405e-05
-1.78928e-06
3.3328e-05
-1.30149e-06
2.91241e-05
-8.90931e-07
2.53119e-05
-5.51933e-07
2.18317e-05
-2.83824e-07
1.82697e-05
-9.85539e-08
1.36909e-05
1.74002e-05
-2.41618e-07
2.78153e-05
-9.75438e-08
2.85601e-05
-6.0237e-09
2.93208e-05
4.14263e-08
3.00965e-05
5.59762e-08
3.08929e-05
4.29344e-08
3.17096e-05
1.36022e-08
-4.32503e-07
1.93519e-05
-6.80173e-07
2.15243e-05
-9.90116e-07
2.39348e-05
-1.3685e-06
2.66132e-05
-1.82045e-06
2.95944e-05
-2.35031e-06
3.29129e-05
-2.95914e-06
3.66084e-05
-3.64581e-06
4.0739e-05
-4.40311e-06
4.53661e-05
-5.21586e-06
5.05714e-05
-6.06099e-06
5.6452e-05
-6.90279e-06
6.31327e-05
-7.69275e-06
7.07643e-05
-8.36783e-06
7.82667e-05
-8.86156e-06
7.92398e-05
-9.15361e-06
8.03708e-05
-9.22141e-06
8.16395e-05
-9.05679e-06
8.30079e-05
-8.66582e-06
8.44446e-05
-8.06813e-06
8.59066e-05
-7.29411e-06
9.21151e-05
-6.3221e-06
8.15214e-05
-5.39492e-06
7.20598e-05
-5.60726e-06
6.37991e-05
-4.61197e-06
5.63699e-05
-3.72355e-06
4.97457e-05
-2.94731e-06
4.38355e-05
-2.28047e-06
3.85317e-05
-1.71528e-06
3.37417e-05
-1.24099e-06
2.94741e-05
-8.4595e-07
2.56059e-05
-5.22749e-07
2.20706e-05
-2.68927e-07
1.84401e-05
-9.40512e-08
1.37849e-05
1.73943e-05
-4.26565e-07
2.78029e-05
-2.29236e-07
2.85539e-05
-9.12822e-08
2.93191e-05
-4.37623e-09
3.00981e-05
3.98836e-08
3.08961e-05
5.28258e-08
3.17127e-05
3.98191e-08
3.25535e-05
1.21391e-08
-6.70589e-07
1.93423e-05
-9.75947e-07
2.15101e-05
-1.34885e-06
2.39151e-05
-1.79466e-06
2.65874e-05
-2.31825e-06
2.95624e-05
-2.9217e-06
3.28755e-05
-3.60551e-06
3.65681e-05
-4.36509e-06
4.07009e-05
-5.18895e-06
4.53392e-05
-6.05909e-06
5.05695e-05
-6.94627e-06
5.64955e-05
-7.80948e-06
6.32494e-05
-8.59359e-06
7.099e-05
-9.23246e-06
7.86376e-05
-9.65713e-06
7.97433e-05
-9.856e-06
8.10054e-05
-9.81383e-06
8.23966e-05
-9.53051e-06
8.38726e-05
-9.0212e-06
8.53976e-05
-8.3138e-06
8.69263e-05
-7.44448e-06
9.32375e-05
-6.39476e-06
8.25212e-05
-6.69212e-06
7.31447e-05
-5.54673e-06
6.47339e-05
-4.51878e-06
5.71651e-05
-3.61809e-06
5.04165e-05
-2.84307e-06
4.43981e-05
-2.18588e-06
3.90023e-05
-1.63504e-06
3.41358e-05
-1.17735e-06
2.98055e-05
-7.99577e-07
2.58828e-05
-4.92932e-07
2.22946e-05
-2.5359e-07
1.85996e-05
-8.91499e-08
1.38741e-05
1.73851e-05
-6.61408e-07
2.7782e-05
-4.05674e-07
2.85409e-05
-2.16244e-07
2.93124e-05
-8.45516e-08
3.00961e-05
-2.39074e-09
3.08974e-05
3.85899e-08
3.17156e-05
4.98684e-08
3.25564e-05
3.68501e-08
3.34194e-05
1.07764e-08
-9.62301e-07
1.93287e-05
-1.32974e-06
2.1491e-05
-1.76921e-06
2.38897e-05
-2.28593e-06
2.65551e-05
-2.88269e-06
2.95234e-05
-3.56128e-06
3.28313e-05
-4.31909e-06
3.65221e-05
-5.14768e-06
4.06597e-05
-6.03323e-06
4.53134e-05
-6.95204e-06
5.05753e-05
-7.86991e-06
5.65559e-05
-8.73925e-06
6.33951e-05
-9.50132e-06
7.12589e-05
-1.00852e-05
7.90657e-05
-1.04233e-05
8.03106e-05
-1.05144e-05
8.17059e-05
-1.03512e-05
8.32173e-05
-9.94333e-06
8.47948e-05
-9.315e-06
8.63988e-05
-8.50095e-06
8.79828e-05
-7.54271e-06
9.43855e-05
-7.94322e-06
8.37723e-05
-6.6269e-06
7.42249e-05
-5.43846e-06
6.56535e-05
-4.39263e-06
5.79396e-05
-3.49081e-06
5.10643e-05
-2.72527e-06
4.49375e-05
-2.0835e-06
3.94508e-05
-1.55084e-06
3.45093e-05
-1.11207e-06
3.0118e-05
-7.52754e-07
2.61426e-05
-4.63082e-07
2.25041e-05
-2.3814e-07
1.87486e-05
-8.40471e-08
1.39581e-05
1.73721e-05
-9.49309e-07
2.77504e-05
-6.29777e-07
2.85192e-05
-3.84002e-07
2.92988e-05
-2.02668e-07
3.00889e-05
-7.7396e-08
3.08951e-05
-8.03412e-11
3.17167e-05
3.75448e-08
3.25592e-05
4.70978e-08
3.34222e-05
3.40322e-08
3.43053e-05
9.51212e-09
-1.31141e-06
1.93104e-05
-1.74451e-06
2.14663e-05
-2.25407e-06
2.38578e-05
-2.84336e-06
2.65158e-05
-3.51508e-06
2.94772e-05
-4.26822e-06
3.27804e-05
-5.09672e-06
3.64711e-05
-5.99022e-06
4.06167e-05
-6.92971e-06
4.5291e-05
-7.88694e-06
5.05923e-05
-8.82128e-06
5.66379e-05
-9.68135e-06
6.35751e-05
-1.04029e-05
7.15765e-05
-1.09136e-05
7.9556e-05
-1.11484e-05
8.09446e-05
-1.11184e-05
8.24731e-05
-1.08261e-05
8.41e-05
-1.02907e-05
8.57705e-05
-9.54465e-06
8.74425e-05
-8.62917e-06
8.90693e-05
-9.38667e-06
9.58289e-05
-7.87719e-06
8.50226e-05
-6.50389e-06
7.52903e-05
-5.28997e-06
6.65509e-05
-4.23974e-06
5.86886e-05
-3.34688e-06
5.16859e-05
-2.59786e-06
4.54518e-05
-1.97621e-06
3.98761e-05
-1.46463e-06
3.48619e-05
-1.04641e-06
3.04117e-05
-7.063e-07
2.63858e-05
-4.33625e-07
2.26996e-05
-2.22872e-07
1.88874e-05
-7.88889e-08
1.4037e-05
1.73547e-05
-1.29401e-06
2.77057e-05
-9.04636e-07
2.84866e-05
-5.97163e-07
2.92763e-05
-3.61513e-07
3.00748e-05
-1.88485e-07
3.08875e-05
-6.98037e-08
3.17141e-05
2.55447e-09
3.256e-05
3.67555e-08
3.34248e-05
4.45147e-08
3.43079e-05
3.13587e-08
3.52192e-05
8.34496e-09
-1.72087e-06
1.92867e-05
-2.22318e-06
2.14354e-05
-2.80457e-06
2.3819e-05
-3.4684e-06
2.64691e-05
-4.21482e-06
2.94238e-05
-5.03971e-06
3.27234e-05
-5.93547e-06
3.64164e-05
-6.88703e-06
4.0574e-05
-7.87122e-06
4.52753e-05
-8.85371e-06
5.06247e-05
-9.79009e-06
5.67467e-05
-1.06229e-05
6.37952e-05
-1.12855e-05
7.19484e-05
-1.17054e-05
8.0113e-05
-1.18215e-05
8.16477e-05
-1.16596e-05
8.33066e-05
-1.12328e-05
8.50421e-05
-1.05692e-05
8.67951e-05
-9.70913e-06
8.85225e-05
-1.0761e-05
9.04436e-05
-9.32744e-06
9.72792e-05
-7.74161e-06
8.62603e-05
-6.33203e-06
7.63324e-05
-5.10882e-06
6.742e-05
-4.06642e-06
5.94081e-05
-3.1911e-06
5.22791e-05
-2.46439e-06
4.594e-05
-1.86647e-06
4.0278e-05
-1.37808e-06
3.51935e-05
-9.8149e-07
3.06869e-05
-6.60776e-07
2.6613e-05
-4.04954e-07
2.28816e-05
-2.07999e-07
1.90166e-05
-7.37796e-08
1.41108e-05
1.73323e-05
-1.69847e-06
2.76452e-05
-1.23345e-06
2.84407e-05
-8.58737e-07
2.92428e-05
-5.63602e-07
3.00515e-05
-3.38272e-07
3.08727e-05
-1.73746e-07
3.17061e-05
-6.18027e-08
3.2557e-05
5.49965e-09
3.34253e-05
3.62148e-08
3.43103e-05
4.21075e-08
3.52217e-05
2.88206e-08
3.61551e-05
7.26979e-09
-2.19363e-06
1.92572e-05
-2.76697e-06
2.13978e-05
-3.42229e-06
2.37729e-05
-4.16067e-06
2.64149e-05
-4.97942e-06
2.93635e-05
-5.87321e-06
3.26611e-05
-6.83017e-06
3.63595e-05
-7.8315e-06
4.05343e-05
-8.84833e-06
4.52699e-05
-9.84267e-06
5.06773e-05
-1.07639e-05
5.68877e-05
-1.15515e-05
6.40611e-05
-1.2137e-05
7.238e-05
-1.24489e-05
8.07404e-05
-1.24329e-05
8.24211e-05
-1.21314e-05
8.42052e-05
-1.15669e-05
8.60398e-05
-1.0777e-05
8.7863e-05
-1.21365e-05
8.9898e-05
-1.07171e-05
9.18333e-05
-9.18455e-06
9.87221e-05
-7.54696e-06
8.74752e-05
-6.12041e-06
7.7344e-05
-4.90263e-06
6.82562e-05
-3.8785e-06
6.00955e-05
-3.02785e-06
5.28426e-05
-2.32791e-06
4.64014e-05
-1.75636e-06
4.06562e-05
-1.2926e-06
3.55046e-05
-9.18027e-07
3.09441e-05
-6.16698e-07
2.68247e-05
-3.77344e-07
2.3051e-05
-1.93661e-07
1.91364e-05
-6.88007e-08
1.41796e-05
1.73043e-05
-2.16564e-06
2.75657e-05
-1.61902e-06
2.83785e-05
-1.17128e-06
2.91955e-05
-8.11428e-07
3.00169e-05
-5.28974e-07
3.08488e-05
-3.14291e-07
3.16908e-05
-1.58484e-07
3.25487e-05
-5.34167e-08
3.34221e-05
8.74359e-09
3.43106e-05
3.59366e-08
3.52239e-05
3.98739e-08
3.61575e-05
2.64079e-08
3.6589e-05
6.2945e-09
-2.73097e-06
1.92212e-05
-3.37753e-06
2.13531e-05
-4.10703e-06
2.37193e-05
-4.91794e-06
2.63535e-05
-5.80668e-06
2.92969e-05
-6.76402e-06
3.2595e-05
-7.77478e-06
3.63028e-05
-8.81483e-06
4.05008e-05
-9.85192e-06
4.52792e-05
-1.08419e-05
5.07553e-05
-1.17304e-05
5.70666e-05
-1.24545e-05
6.43786e-05
-1.29449e-05
7.28761e-05
-1.31337e-05
8.14411e-05
-1.29753e-05
8.32649e-05
-1.25283e-05
8.51666e-05
-1.18259e-05
8.70886e-05
-1.35078e-05
8.92343e-05
-1.21185e-05
9.12994e-05
-1.05759e-05
9.32246e-05
-8.96998e-06
0.000100145
-7.30378e-06
8.86586e-05
-5.8781e-06
7.83194e-05
-4.67843e-06
6.90561e-05
-3.68128e-06
6.07489e-05
-2.86082e-06
5.33755e-05
-2.19096e-06
4.6836e-05
-1.64765e-06
4.10113e-05
-1.20911e-06
3.57957e-05
-8.56699e-07
3.11841e-05
-5.74419e-07
2.70218e-05
-3.50953e-07
2.32083e-05
-1.79966e-07
1.92476e-05
-6.40122e-08
1.42436e-05
1.72702e-05
-2.69687e-06
2.74642e-05
-2.06407e-06
2.82975e-05
-1.53794e-06
2.91319e-05
-1.10768e-06
2.99685e-05
-7.62992e-07
3.08133e-05
-4.93509e-07
3.16661e-05
-2.89626e-07
3.25329e-05
-1.42705e-07
3.34133e-05
-4.46736e-08
3.43071e-05
1.22615e-08
3.5224e-05
3.59105e-08
3.61596e-05
3.7809e-08
3.65912e-05
2.41387e-08
3.55529e-05
5.44013e-09
-3.33464e-06
1.91783e-05
-4.05485e-06
2.13009e-05
-4.85682e-06
2.36582e-05
-5.73835e-06
2.62851e-05
-6.69234e-06
2.92253e-05
-7.70661e-06
3.25268e-05
-8.76106e-06
3.6249e-05
-9.82847e-06
4.04773e-05
-1.08706e-05
4.53079e-05
-1.18393e-05
5.08642e-05
-1.26773e-05
5.72895e-05
-1.33195e-05
6.47532e-05
-1.36984e-05
7.34408e-05
-1.37513e-05
8.22172e-05
-1.34419e-05
8.41785e-05
-1.28466e-05
8.61873e-05
-1.48675e-05
8.84482e-05
-1.3528e-05
9.06438e-05
-1.19892e-05
9.27127e-05
-1.03503e-05
9.4605e-05
-8.69586e-06
0.000101537
-7.02266e-06
8.98032e-05
-5.61351e-06
7.92545e-05
-4.44263e-06
6.98175e-05
-3.47928e-06
6.13674e-05
-2.69314e-06
5.38777e-05
-2.05575e-06
4.72441e-05
-1.5415e-06
4.13437e-05
-1.12849e-06
3.60675e-05
-7.97962e-07
3.14077e-05
-5.3413e-07
2.7205e-05
-3.25909e-07
2.33542e-05
-1.6699e-07
1.93506e-05
-5.94508e-08
1.43031e-05
1.72296e-05
-3.29396e-06
2.73378e-05
-2.5705e-06
2.81941e-05
-1.96068e-06
2.90488e-05
-1.45484e-06
2.99034e-05
-1.04263e-06
3.07637e-05
-7.13412e-07
3.16298e-05
-4.57174e-07
3.25076e-05
-2.64373e-07
3.33971e-05
-1.26493e-07
3.42981e-05
-3.5623e-08
3.52202e-05
1.60313e-08
3.61593e-05
3.61147e-08
3.65931e-05
3.59357e-08
3.55549e-05
2.20909e-08
3.45448e-05
4.68654e-09
-4.00476e-06
1.91282e-05
-4.79716e-06
2.12412e-05
-5.67006e-06
2.35899e-05
-6.61803e-06
2.62108e-05