/*--------------------------------*- C++ -*----------------------------------*\
  =========                 |
  \\      /  F ield         | OpenFOAM: The Open Source CFD Toolbox
   \\    /   O peration     | Website:  https://openfoam.org
    \\  /    A nd           | Version:  8
     \\/     M anipulation  |
\*---------------------------------------------------------------------------*/
FoamFile
{
    version     2.0;
    format      ascii;
    class       volVectorField;
    location    "0.5";
    object      U;
}
// * * * * * * * * * * * * * * * * * * * * * * * * * * * * * * * * * * * * * //

dimensions      [0 1 -1 0 0 0 0];

internalField   nonuniform List<vector> 
800
(
(-8.10504e-07 7.93048e-07 0)
(6.07754e-06 -4.67032e-06 0)
(2.70272e-05 -9.09146e-06 0)
(5.58381e-05 -1.11345e-05 0)
(8.70276e-05 -1.1329e-05 0)
(0.000116815 -1.02875e-05 0)
(0.000142664 -8.48642e-06 0)
(0.000163001 -6.26313e-06 0)
(0.00017695 -3.83001e-06 0)
(0.00018407 -1.30567e-06 0)
(0.000184174 1.24771e-06 0)
(0.000177235 3.78638e-06 0)
(0.000163395 6.2461e-06 0)
(0.000143072 8.50226e-06 0)
(0.000117147 1.03317e-05 0)
(8.72258e-05 1.13845e-05 0)
(5.58971e-05 1.11764e-05 0)
(2.69956e-05 9.09757e-06 0)
(6.0373e-06 4.63304e-06 0)
(-8.21815e-07 -8.46033e-07 0)
(4.7035e-06 -6.02289e-06 0)
(3.05549e-05 -3.01711e-05 0)
(8.3023e-05 -4.83445e-05 0)
(0.000149765 -5.70606e-05 0)
(0.000220525 -5.78158e-05 0)
(0.000287957 -5.27694e-05 0)
(0.000346686 -4.38634e-05 0)
(0.000393123 -3.26119e-05 0)
(0.000425119 -2.00632e-05 0)
(0.000441518 -6.88074e-06 0)
(0.0004418 6.51488e-06 0)
(0.000425906 1.97801e-05 0)
(0.000394246 3.24759e-05 0)
(0.000347914 4.39023e-05 0)
(0.000289054 5.29605e-05 0)
(0.00022132 5.80851e-05 0)
(0.000150197 5.73031e-05 0)
(8.31579e-05 4.84634e-05 0)
(3.05424e-05 3.01274e-05 0)
(4.68188e-06 5.90215e-06 0)
(9.75207e-06 -2.75256e-05 0)
(5.15622e-05 -8.34238e-05 0)
(0.000127863 -0.000122269 0)
(0.000220415 -0.000140602 0)
(0.000316071 -0.000141335 0)
(0.000406006 -0.0001288 0)
(0.000483741 -0.000107162 0)
(0.000544942 -7.9816e-05 0)
(0.000587033 -4.92079e-05 0)
(0.00060864 -1.69529e-05 0)
(0.000609143 1.58723e-05 0)
(0.000588445 4.83585e-05 0)
(0.000546994 7.93709e-05 0)
(0.000486049 0.00010719 0)
(0.000408164 0.000129245 0)
(0.000317756 0.000142024 0)
(0.00022147 0.00014129 0)
(0.000128332 0.000122724 0)
(5.16544e-05 8.35294e-05 0)
(9.73779e-06 2.74034e-05 0)
(1.31549e-05 -5.92633e-05 0)
(6.60476e-05 -0.000155474 0)
(0.000158391 -0.000217436 0)
(0.000266596 -0.000244869 0)
(0.000375379 -0.000243474 0)
(0.000475523 -0.000220493 0)
(0.000560694 -0.000182771 0)
(0.000626952 -0.000135858 0)
(0.000672197 -8.37352e-05 0)
(0.000695445 -2.89922e-05 0)
(0.000696268 2.66882e-05 0)
(0.000674517 8.18997e-05 0)
(0.000630351 0.000134841 0)
(0.000564576 0.000182716 0)
(0.000479243 0.000221301 0)
(0.000378398 0.000244828 0)
(0.00026861 0.000246316 0)
(0.000159394 0.00021853 0)
(6.63199e-05 0.000155943 0)
(1.31599e-05 5.92085e-05 0)
(1.52967e-05 -9.72914e-05 0)
(7.45912e-05 -0.000238638 0)
(0.000174814 -0.000323545 0)
(0.000288346 -0.000357587 0)
(0.000398641 -0.000350972 0)
(0.000497004 -0.000314819 0)
(0.000578327 -0.000259119 0)
(0.000640139 -0.000191695 0)
(0.000681721 -0.000117936 0)
(0.000703121 -4.11173e-05 0)
(0.000704423 3.68579e-05 0)
(0.000685397 0.000114499 0)
(0.000645548 0.000189706 0)
(0.000584555 0.000258853 0)
(0.000503059 0.000316136 0)
(0.000403667 0.000353352 0)
(0.000291814 0.000360268 0)
(0.00017664 0.000325737 0)
(7.51522e-05 0.000239793 0)
(1.5337e-05 9.74104e-05 0)
(1.65136e-05 -0.000138656 0)
(7.77513e-05 -0.000326246 0)
(0.000177129 -0.000431442 0)
(0.000284629 -0.000467917 0)
(0.000383633 -0.000452154 0)
(0.000467044 -0.000400272 0)
(0.000532166 -0.000325925 0)
(0.000579153 -0.000239248 0)
(0.000609647 -0.000146711 0)
(0.000625425 -5.16972e-05 0)
(0.000627433 4.43957e-05 0)
(0.000615326 0.000140756 0)
(0.000587542 0.00023568 0)
(0.000541885 0.000325238 0)
(0.000476584 0.000402298 0)
(0.000391668 0.000456097 0)
(0.000290296 0.00047255 0)
(0.000180213 0.000435437 0)
(7.87659e-05 0.000328586 0)
(1.66146e-05 0.000139115 0)
(1.69462e-05 -0.000180692 0)
(7.54742e-05 -0.000411166 0)
(0.000164143 -0.000530638 0)
(0.000252348 -0.000563139 0)
(0.000324926 -0.000533267 0)
(0.000377788 -0.000463326 0)
(0.000412111 -0.000371156 0)
(0.000432044 -0.000269108 0)
(0.000442731 -0.000164158 0)
(0.000448486 -5.88824e-05 0)
(0.000451518 4.69366e-05 0)
(0.000451323 0.000154328 0)
(0.000444784 0.000263056 0)
(0.000426958 0.000369726 0)
(0.00039248 0.00046634 0)
(0.000337436 0.000539545 0)
(0.000261308 0.000570781 0)
(0.000169132 0.000537492 0)
(7.71902e-05 0.000415457 0)
(1.71472e-05 0.000181756 0)
(1.65619e-05 -0.000220596 0)
(6.69937e-05 -0.000485185 0)
(0.000133098 -0.000608559 0)
(0.000185773 -0.000627734 0)
(0.000213259 -0.00057743 0)
(0.000216309 -0.000487384 0)
(0.000201824 -0.000380078 0)
(0.000179662 -0.000269788 0)
(0.000159856 -0.000163103 0)
(0.000150229 -6.04622e-05 0)
(0.000154723 4.15439e-05 0)
(0.000172615 0.000147426 0)
(0.000198653 0.000259931 0)
(0.00022408 0.000377414 0)
(0.000238491 0.000491755 0)
(0.000232328 0.000587135 0)
(0.000199606 0.000639911 0)
(0.00014094 0.000619831 0)
(6.97816e-05 0.000492586 0)
(1.69239e-05 0.000222684 0)
(1.51672e-05 -0.000255031 0)
(5.07748e-05 -0.000538271 0)
(7.94289e-05 -0.000649621 0)
(7.61154e-05 -0.000642338 0)
(3.49708e-05 -0.000563539 0)
(-3.60562e-05 -0.000451729 0)
(-0.000121978 -0.000334336 0)
(-0.000205086 -0.00022701 0)
(-0.000268736 -0.000134654 0)
(-0.000300413 -5.37291e-05 0)
(-0.000293866 2.45203e-05 0)
(-0.000250115 0.00011031 0)
(-0.000177273 0.000211439 0)
(-8.92141e-05 0.000329693 0)
(-3.18126e-06 0.00045793 0)
(6.34825e-05 0.0005782 0)
(9.70409e-05 0.000661226 0)
(9.14802e-05 0.000667575 0)
(5.51792e-05 0.000550504 0)
(1.57842e-05 0.000258792 0)
(1.24171e-05 -0.000279709 0)
(2.44705e-05 -0.000557628 0)
(-3.43745e-06 -0.000634002 0)
(-8.88623e-05 -0.000582365 0)
(-0.000228589 -0.000464867 0)
(-0.000404437 -0.000330164 0)
(-0.00059036 -0.000210786 0)
(-0.000758159 -0.000122826 0)
(-0.000882431 -6.76662e-05 0)
(-0.000944505 -3.53127e-05 0)
(-0.000935127 -8.81308e-06 0)
(-0.000855716 3.06995e-05 0)
(-0.000718132 9.88228e-05 0)
(-0.000542985 0.000203053 0)
(-0.00035658 0.000338785 0)
(-0.000186728 0.000486565 0)
(-5.78063e-05 0.000611009 0)
(1.47182e-05 0.00066187 0)
(3.12706e-05 0.000577209 0)
(1.3428e-05 0.000286122 0)
(7.80896e-06 -0.000288925 0)
(-1.51496e-05 -0.000526666 0)
(-0.000124309 -0.000536225 0)
(-0.000325281 -0.00041641 0)
(-0.00060165 -0.000247443 0)
(-0.000921205 -8.95265e-05 0)
(-0.00124313 1.97668e-05 0)
(-0.00152545 6.53499e-05 0)
(-0.00173137 5.18567e-05 0)
(-0.00183429 -9.999e-07 0)
(-0.00182109 -6.43588e-05 0)
(-0.00169372 -0.000106882 0)
(-0.00146887 -0.000101582 0)
(-0.00117585 -3.22286e-05 0)
(-0.000852793 0.000101263 0)
(-0.000541301 0.000278945 0)
(-0.000280026 0.000458988 0)
(-9.74646e-05 0.000578536 0)
(-4.86352e-06 0.000557191 0)
(9.41587e-06 0.000299463 0)
(6.32369e-07 -0.000275125 0)
(-7.23177e-05 -0.000423804 0)
(-0.000294461 -0.000323562 0)
(-0.000653583 -0.000104462 0)
(-0.00111472 0.000131759 0)
(-0.00162686 0.000311953 0)
(-0.00212986 0.000393974 0)
(-0.00256391 0.000365799 0)
(-0.00287768 0.00024141 0)
(-0.00303446 5.44701e-05 0)
(-0.00301624 -0.000149497 0)
(-0.00282561 -0.000321799 0)
(-0.00248541 -0.00041945 0)
(-0.00203606 -0.000413528 0)
(-0.00153085 -0.000296356 0)
(-0.0010293 -8.68502e-05 0)
(-0.000588841 0.000166586 0)
(-0.000255516 0.000386542 0)
(-5.70358e-05 0.000470343 0)
(3.15793e-06 0.000291908 0)
(-9.96634e-06 -0.000228343 0)
(-0.000152321 -0.000221182 0)
(-0.000527967 4.57306e-05 0)
(-0.00109904 0.000404066 0)
(-0.00180524 0.000726779 0)
(-0.00257086 0.000926502 0)
(-0.00331083 0.000957496 0)
(-0.00394266 0.000813675 0)
(-0.00439666 0.000522722 0)
(-0.00462342 0.000137655 0)
(-0.00459878 -0.000273339 0)
(-0.00432612 -0.000638059 0)
(-0.00383594 -0.000891663 0)
(-0.00318264 -0.000987464 0)
(-0.00243873 -0.00090633 0)
(-0.00168663 -0.000663935 0)
(-0.00100814 -0.000315059 0)
(-0.000472516 4.62817e-05 0)
(-0.000130079 0.000290727 0)
(-6.11952e-06 0.000254384 0)
(-2.50936e-05 -0.000135571 0)
(-0.000261702 0.000116773 0)
(-0.000841972 0.000624359 0)
(-0.00169221 0.00117251 0)
(-0.00271825 0.00160484 0)
(-0.00381243 0.00181877 0)
(-0.00485802 0.00176667 0)
(-0.00574402 0.00145227 0)
(-0.00637788 0.00092257 0)
(-0.00669443 0.000256716 0)
(-0.00666184 -0.000446955 0)
(-0.00628441 -0.00108507 0)
(-0.00560206 -0.00156359 0)
(-0.00468652 -0.00181162 0)
(-0.00363433 -0.00179351 0)
(-0.00255687 -0.00151858 0)
(-0.0015671 -0.00104731 0)
(-0.000764536 -0.000492372 0)
(-0.00022997 -1.48205e-05 0)
(-1.93769e-05 0.000175097 0)
(-4.61179e-05 1.98859e-05 0)
(-0.000408381 0.000634966 0)
(-0.00125699 0.00147813 0)
(-0.00246941 0.0022793 0)
(-0.0039069 0.00284863 0)
(-0.00542112 0.00306791 0)
(-0.00685563 0.00289024 0)
(-0.00806413 0.00233437 0)
(-0.00892589 0.00147366 0)
(-0.00935642 0.000421797 0)
(-0.00931441 -0.000683533 0)
(-0.00880514 -0.00169836 0)
(-0.00787992 -0.00249038 0)
(-0.00663164 -0.00295632 0)
(-0.00518652 -0.00303752 0)
(-0.00369211 -0.00273265 0)
(-0.0023008 -0.00210648 0)
(-0.00115104 -0.00129225 0)
(-0.000364007 -0.000488262 0)
(-3.78065e-05 3.8887e-05 0)
(-7.46989e-05 0.000259177 0)
(-0.000601767 0.00138935 0)
(-0.00179711 0.00268816 0)
(-0.00347289 0.00382033 0)
(-0.0054327 0.00455863 0)
(-0.00747702 0.00476965 0)
(-0.00940033 0.00441116 0)
(-0.0110131 0.00352362 0)
(-0.0121604 0.00221556 0)
(-0.0127342 0.000645494 0)
(-0.0126817 -0.000998423 0)
(-0.0120089 -0.00252018 0)
(-0.0107808 -0.0037381 0)
(-0.00911573 -0.00450642 0)
(-0.00717601 -0.00473504 0)
(-0.00515382 -0.00440621 0)
(-0.00325091 -0.0035865 0)
(-0.00165531 -0.00243129 0)
(-0.000541001 -0.00118214 0)
(-6.28712e-05 -0.00017349 0)
(-0.000112816 0.000608724 0)
(-0.000852839 0.00244873 0)
(-0.00249011 0.00435319 0)
(-0.00475095 0.00591135 0)
(-0.0073654 0.00685537 0)
(-0.0100704 0.00703831 0)
(-0.0126007 0.0064282 0)
(-0.0147143 0.00509582 0)
(-0.0162155 0.00319569 0)
(-0.0169679 0.00094345 0)
(-0.0169045 -0.00140899 0)
(-0.0160322 -0.00359991 0)
(-0.0144315 -0.00538479 0)
(-0.0122508 -0.00656287 0)
(-0.00969597 -0.007002 0)
(-0.00701356 -0.00666016 0)
(-0.00446636 -0.0056018 0)
(-0.0023049 -0.00400525 0)
(-0.000771487 -0.0021616 0)
(-9.63506e-05 -0.000486196 0)
(-0.000162791 0.00110108 0)
(-0.00117417 0.00389654 0)
(-0.00336732 0.00659171 0)
(-0.00635752 0.00869014 0)
(-0.00978223 0.00988137 0)
(-0.0133007 0.0100084 0)
(-0.0165754 0.0090574 0)
(-0.0193025 0.00714017 0)
(-0.0212374 0.00447028 0)
(-0.0222105 0.00133509 0)
(-0.0221377 -0.00193418 0)
(-0.0210258 -0.004994 0)
(-0.018973 -0.00752094 0)
(-0.0161628 -0.00924402 0)
(-0.0128523 -0.00997555 0)
(-0.00935345 -0.00963885 0)
(-0.00600387 -0.00829021 0)
(-0.00313211 -0.00613051 0)
(-0.00106795 -0.00350657 0)
(-0.000140395 -0.000929269 0)
(-0.000227293 0.00177578 0)
(-0.00157983 0.00583254 0)
(-0.00446327 0.00954386 0)
(-0.00835127 0.0123182 0)
(-0.0127663 0.0138025 0)
(-0.0172738 0.013836 0)
(-0.0214505 0.0124329 0)
(-0.0249199 0.00976001 0)
(-0.0273807 0.00610523 0)
(-0.0286243 0.00184453 0)
(-0.0285461 -0.00259364 0)
(-0.0271519 -0.00676534 0)
(-0.0245591 -0.0102494 0)
(-0.0209906 -0.0126861 0)
(-0.0167632 -0.0138155 0)
(-0.0122664 -0.0135124 0)
(-0.00792846 -0.0118159 0)
(-0.00417441 -0.00894714 0)
(-0.0014451 -0.00531428 0)
(-0.000197588 -0.0015397 0)
(-0.000309329 0.00268013 0)
(-0.00208523 0.00837422 0)
(-0.00581494 0.0133728 0)
(-0.010794 0.0169818 0)
(-0.016404 0.0188087 0)
(-0.0220982 0.0186982 0)
(-0.0273538 0.0167071 0)
(-0.0317101 0.0130731 0)
(-0.0348011 0.00817671 0)
(-0.0363735 0.00250166 0)
(-0.0362982 -0.00340628 0)
(-0.0345784 -0.00898175 0)
(-0.031351 -0.013684 0)
(-0.0268826 -0.0170428 0)
(-0.0215574 -0.0187048 0)
(-0.0158556 -0.0184782 0)
(-0.0103136 -0.016372 0)
(-0.00547486 -0.0126219 0)
(-0.0019201 -0.00770186 0)
(-0.000271028 -0.00236268 0)
(-0.000412204 0.00386989 0)
(-0.00270668 0.0116577 0)
(-0.00746063 0.0182652 0)
(-0.0137484 0.0228916 0)
(-0.0207806 0.0251125 0)
(-0.0278795 0.0247926 0)
(-0.0344073 0.0220491 0)
(-0.0398087 0.0172107 0)
(-0.0436453 0.0107712 0)
(-0.0456134 0.00334331 0)
(-0.0455556 -0.00438809 0)
(-0.0434694 -0.0117131 0)
(-0.0395107 -0.017947 0)
(-0.0339918 -0.022483 0)
(-0.0273714 -0.0248487 0)
(-0.0202332 -0.0247618 0)
(-0.0132411 -0.0221827 0)
(-0.00708245 -0.0173514 0)
(-0.00251294 -0.0108092 0)
(-0.000364427 -0.00345299 0)
(-0.000539458 0.00540971 0)
(-0.00346098 0.0158381 0)
(-0.00943828 0.0244304 0)
(-0.0172742 0.0302807 0)
(-0.025975 0.0329464 0)
(-0.0347112 0.032333 0)
(-0.0427158 0.0286414 0)
(-0.0493295 0.0223152 0)
(-0.0540353 0.0139848 0)
(-0.0564746 0.00441439 0)
(-0.0564574 -0.00554905 0)
(-0.0539716 -0.0150268 0)
(-0.049189 -0.0231633 0)
(-0.0424673 -0.0291858 0)
(-0.0343439 -0.032471 0)
(-0.0255175 -0.0326154 0)
(-0.0168003 -0.029504 0)
(-0.00905229 -0.0233644 0)
(-0.00324674 -0.0148019 0)
(-0.000482238 -0.00487657 0)
(-0.000694782 0.00737327 0)
(-0.00436468 0.0210885 0)
(-0.0117835 0.0320984 0)
(-0.0214244 0.0394004 0)
(-0.0320519 0.042557 0)
(-0.0426639 0.041543 0)
(-0.0523521 0.0366733 0)
(-0.0603461 0.028535 0)
(-0.0660475 0.0179205 0)
(-0.06904 0.00576867 0)
(-0.0690976 -0.00688907 0)
(-0.066193 -0.018981 0)
(-0.060508 -0.0294526 0)
(-0.0524404 -0.0373321 0)
(-0.0426065 -0.0418075 0)
(-0.0318285 -0.0423137 0)
(-0.0210865 -0.0386234 0)
(-0.0114457 -0.0309239 0)
(-0.00414817 -0.0198742 0)
(-0.000629833 -0.00671239 0)
(-0.000881954 0.00984312 0)
(-0.00543349 0.0275987 0)
(-0.0145271 0.041515 0)
(-0.0262393 0.0505128 0)
(-0.039052 0.0541943 0)
(-0.0517704 0.0526442 0)
(-0.0633359 0.0463301 0)
(-0.0728662 0.0360161 0)
(-0.0796826 0.0226838 0)
(-0.0833129 0.00746871 0)
(-0.0834925 -0.00839299 0)
(-0.0801728 -0.023615 0)
(-0.0735346 -0.0369166 0)
(-0.0640047 -0.0470912 0)
(-0.0522705 -0.0530935 0)
(-0.03928 -0.0541453 0)
(-0.0261979 -0.0498553 0)
(-0.0143297 -0.0403276 0)
(-0.00524798 -0.0262522 0)
(-0.000813749 -0.00905447 0)
(-0.00110484 0.0129101 0)
(-0.00668183 0.0355715 0)
(-0.0176931 0.052935 0)
(-0.0317414 0.0638787 0)
(-0.0469808 0.0680968 0)
(-0.0620069 0.0658391 0)
(-0.0756086 0.0577759 0)
(-0.086798 0.0448876 0)
(-0.0948268 0.0283731 0)
(-0.099174 0.00958392 0)
(-0.0995375 -0.0100248 0)
(-0.0958393 -0.0289363 0)
(-0.0882437 -0.0456205 0)
(-0.0771859 -0.0585999 0)
(-0.0634055 -0.0665444 0)
(-0.0479673 -0.068398 0)
(-0.0322308 -0.0635334 0)
(-0.0177768 -0.0519066 0)
(-0.00658174 -0.034196 0)
(-0.00104206 -0.0120145 0)
(-0.0013676 0.016673 0)
(-0.00812304 0.0452195 0)
(-0.0212972 0.0666122 0)
(-0.0379287 0.0797414 0)
(-0.0557953 0.0844685 0)
(-0.0732707 0.0812848 0)
(-0.0889995 0.0711276 0)
(-0.101908 0.0552399 0)
(-0.1112 0.0350658 0)
(-0.116324 0.0121855 0)
(-0.116947 -0.011722 0)
(-0.112952 -0.0349045 0)
(-0.104466 -0.0555682 0)
(-0.0918991 -0.0719324 0)
(-0.0760084 -0.0823259 0)
(-0.0579491 -0.0853338 0)
(-0.0392715 -0.0799951 0)
(-0.0218636 -0.0660199 0)
(-0.00819085 -0.0440023 0)
(-0.00132494 -0.0157246 0)
(-0.00167536 0.0212379 0)
(-0.00977114 0.0567604 0)
(-0.0253476 0.0827867 0)
(-0.0447704 0.0983026 0)
(-0.0653887 0.103446 0)
(-0.0853517 0.0990555 0)
(-0.103184 0.0864178 0)
(-0.117766 0.0670927 0)
(-0.128293 0.042795 0)
(-0.134213 0.0153365 0)
(-0.135176 -0.0133906 0)
(-0.131024 -0.0414112 0)
(-0.121815 -0.0666693 0)
(-0.107888 -0.0870587 0)
(-0.0899582 -0.10051 0)
(-0.0692191 -0.105151 0)
(-0.0473843 -0.0995558 0)
(-0.0266686 -0.0830445 0)
(-0.0101244 -0.0560057 0)
(-0.00167572 -0.0203419 0)
(-0.00203577 0.0267205 0)
(-0.0116452 0.0704136 0)
(-0.0298481 0.101668 0)
(-0.0522024 0.11969 0)
(-0.0755734 0.125054 0)
(-0.0978987 0.11909 0)
(-0.117634 0.103542 0)
(-0.133676 0.080349 0)
(-0.14528 0.0515159 0)
(-0.151942 0.0190741 0)
(-0.153323 -0.0149037 0)
(-0.149221 -0.0482579 0)
(-0.139592 -0.0786974 0)
(-0.124639 -0.103788 0)
(-0.10495 -0.121011 0)
(-0.0816639 -0.127925 0)
(-0.056592 -0.122467 0)
(-0.03227 -0.103356 0)
(-0.0124425 -0.0705785 0)
(-0.00211257 -0.0260534 0)
(-0.00246235 0.0332508 0)
(-0.0137786 0.0863994 0)
(-0.0348078 0.123413 0)
(-0.0601253 0.143913 0)
(-0.086058 0.14914 0)
(-0.110374 0.14112 0)
(-0.131547 0.122188 0)
(-0.148595 0.0947327 0)
(-0.160925 0.0610588 0)
(-0.168158 0.0233826 0)
(-0.170009 -0.0161051 0)
(-0.166236 -0.0551335 0)
(-0.156661 -0.0912408 0)
(-0.14127 -0.121696 0)
(-0.120401 -0.1435 0)
(-0.094999 -0.153526 0)
(-0.0668453 -0.148852 0)
(-0.0387403 -0.127296 0)
(-0.0152218 -0.088129 0)
(-0.00266197 -0.0330854 0)
(-0.00298129 0.040987 0)
(-0.0162362 0.104944 0)
(-0.0402554 0.148101 0)
(-0.0683995 0.170796 0)
(-0.0964138 0.175289 0)
(-0.121989 0.164572 0)
(-0.143763 0.141744 0)
(-0.161023 0.10971 0)
(-0.17346 0.0710679 0)
(-0.180919 0.0281545 0)
(-0.183232 -0.0168215 0)
(-0.180139 -0.0615954 0)
(-0.171293 -0.103649 0)
(-0.156373 -0.140038 0)
(-0.135318 -0.167293 0)
(-0.108673 -0.181495 0)
(-0.0779726 -0.178603 0)
(-0.0461381 -0.155115 0)
(-0.0185666 -0.109095 0)
(-0.00336504 -0.0417177 0)
(-0.00364455 0.0501432 0)
(-0.0191438 0.12629 0)
(-0.0462586 0.175683 0)
(-0.0768266 0.199886 0)
(-0.106011 0.202697 0)
(-0.131607 0.188443 0)
(-0.152637 0.161183 0)
(-0.16887 0.124396 0)
(-0.180444 0.0809307 0)
(-0.187551 0.0331419 0)
(-0.190219 -0.0168863 0)
(-0.188204 -0.0670625 0)
(-0.180977 -0.114986 0)
(-0.167826 -0.15765 0)
(-0.148113 -0.191204 0)
(-0.121718 -0.210876 0)
(-0.0895944 -0.211226 0)
(-0.0544884 -0.18688 0)
(-0.0226269 -0.133931 0)
(-0.00429017 -0.05231 0)
(-0.00455478 0.0610464 0)
(-0.0227354 0.150716 0)
(-0.0529361 0.205912 0)
(-0.0850901 0.230303 0)
(-0.113889 0.230002 0)
(-0.137564 0.211143 0)
(-0.15586 0.178941 0)
(-0.169284 0.137461 0)
(-0.178613 0.0897084 0)
(-0.184508 0.0379044 0)
(-0.187278 -0.0161766 0)
(-0.186749 -0.0708274 0)
(-0.182223 -0.123999 0)
(-0.172547 -0.172865 0)
(-0.156347 -0.213386 0)
(-0.132519 -0.239994 0)
(-0.100968 -0.245611 0)
(-0.0637349 -0.222309 0)
(-0.0276262 -0.163073 0)
(-0.00555662 -0.0653504 0)
(-0.00591061 0.0742428 0)
(-0.0274173 0.178539 0)
(-0.0604255 0.238178 0)
(-0.0925834 0.260494 0)
(-0.118486 0.255047 0)
(-0.137375 0.230314 0)
(-0.150174 0.1928 0)
(-0.158428 0.147066 0)
(-0.163713 0.0960959 0)
(-0.167252 0.0417707 0)
(-0.169696 -0.0146584 0)
(-0.171005 -0.0721037 0)
(-0.170375 -0.129146 0)
(-0.166233 -0.183464 0)
(-0.156385 -0.23118 0)
(-0.138455 -0.266183 0)
(-0.110704 -0.279684 0)
(-0.0736171 -0.260487 0)
(-0.0338923 -0.196859 0)
(-0.00737662 -0.081545 0)
(-0.00808111 0.0906811 0)
(-0.0338284 0.210056 0)
(-0.068702 0.271178 0)
(-0.0979774 0.287842 0)
(-0.117083 0.274572 0)
(-0.127189 0.242668 0)
(-0.130952 0.199847 0)
(-0.131193 0.150889 0)
(-0.130352 0.0984597 0)
(-0.130201 0.0438472 0)
(-0.131732 -0.0124325 0)
(-0.135092 -0.0701227 0)
(-0.139488 -0.128703 0)
(-0.143084 -0.186746 0)
(-0.142959 -0.241045 0)
(-0.135328 -0.285502 0)
(-0.116219 -0.309928 0)
(-0.0833554 -0.299364 0)
(-0.0418495 -0.235312 0)
(-0.0101182 -0.101961 0)
(-0.0116869 0.111973 0)
(-0.0427602 0.245242 0)
(-0.0769603 0.302255 0)
(-0.0982074 0.308069 0)
(-0.104732 0.283902 0)
(-0.100901 0.243948 0)
(-0.0915787 0.196621 0)
(-0.0808788 0.146347 0)
(-0.0719209 0.0950382 0)
(-0.0668242 0.043126 0)
(-0.066799 -0.00975664 0)
(-0.0721884 -0.0642965 0)
(-0.082388 -0.121047 0)
(-0.0956228 -0.179822 0)
(-0.108643 -0.238722 0)
(-0.116506 -0.292592 0)
(-0.112718 -0.330819 0)
(-0.0908611 -0.334921 0)
(-0.0517867 -0.277596 0)
(-0.0143412 -0.128188 0)
(-0.0174991 0.140781 0)
(-0.054418 0.282855 0)
(-0.0818145 0.326097 0)
(-0.0862675 0.314434 0)
(-0.072331 0.276806 0)
(-0.0488094 0.229264 0)
(-0.0227201 0.179667 0)
(0.00105135 0.131161 0)
(0.0192934 0.0843947 0)
(0.0300117 0.0387519 0)
(0.0320636 -0.00701268 0)
(0.0249716 -0.0544438 0)
(0.00896095 -0.105124 0)
(-0.0147472 -0.160265 0)
(-0.0433608 -0.219858 0)
(-0.0717019 -0.28092 0)
(-0.09133 -0.334305 0)
(-0.0908293 -0.359864 0)
(-0.0628103 -0.320828 0)
(-0.0205521 -0.162559 0)
(-0.0254291 0.181699 0)
(-0.0655744 0.318085 0)
(-0.0727067 0.332121 0)
(-0.0468354 0.296574 0)
(-0.00359123 0.245681 0)
(0.0440143 0.19398 0)
(0.0882454 0.1466 0)
(0.124839 0.104313 0)
(0.151563 0.0661347 0)
(0.167265 0.0304533 0)
(0.171283 -0.00459001 0)
(0.163157 -0.0410282 0)
(0.142597 -0.0810879 0)
(0.109739 -0.127127 0)
(0.0658279 -0.181198 0)
(0.0145327 -0.243625 0)
(-0.035973 -0.309459 0)
(-0.0706355 -0.361518 0)
(-0.0696526 -0.357571 0)
(-0.0278405 -0.208733 0)
(-0.0296551 0.239107 0)
(-0.0607717 0.335847 0)
(-0.0216235 0.300841 0)
(0.0512726 0.240722 0)
(0.128845 0.183734 0)
(0.198899 0.136267 0)
(0.256858 0.0982632 0)
(0.301348 0.0676039 0)
(0.332386 0.0419193 0)
(0.350338 0.0191018 0)
(0.355375 -0.00273626 0)
(0.347236 -0.0254714 0)
(0.325151 -0.0512341 0)
(0.287909 -0.0826918 0)
(0.234292 -0.123229 0)
(0.16427 -0.176521 0)
(0.0813296 -0.244268 0)
(-0.00238324 -0.31986 0)
(-0.0543581 -0.369108 0)
(-0.0284042 -0.267786 0)
(0.00805811 0.281797 0)
(0.019754 0.294952 0)
(0.139143 0.211065 0)
(0.264771 0.143687 0)
(0.365025 0.0974849 0)
(0.441441 0.0661213 0)
(0.498259 0.0445791 0)
(0.538797 0.0291836 0)
(0.565703 0.0174204 0)
(0.580786 0.00760988 0)
(0.584958 -0.00147403 0)
(0.578238 -0.010928 0)
(0.559688 -0.0220215 0)
(0.527242 -0.0365829 0)
(0.477525 -0.0575578 0)
(0.405873 -0.0897053 0)
(0.306082 -0.140054 0)
(0.173919 -0.216651 0)
(0.0413553 -0.311824 0)
(0.0184576 -0.300033 0)
(0.29958 0.146066 0)
(0.396212 0.127483 0)
(0.557371 0.0760944 0)
(0.674517 0.0437558 0)
(0.744057 0.0256256 0)
(0.787499 0.0153064 0)
(0.816019 0.0092765 0)
(0.834663 0.00556462 0)
(0.846233 0.00306706 0)
(0.852311 0.00117026 0)
(0.853643 -0.000498502 0)
(0.85034 -0.00223316 0)
(0.841887 -0.00437294 0)
(0.826915 -0.00747094 0)
(0.802707 -0.0125872 0)
(0.764086 -0.021831 0)
(0.699407 -0.0393388 0)
(0.584099 -0.0727061 0)
(0.41586 -0.127893 0)
(0.308815 -0.149464 0)
)
;

boundaryField
{
    movingWall
    {
        type            fixedValue;
        value           uniform (1 0 0);
    }
    fixedWalls
    {
        type            noSlip;
    }
    frontAndBack
    {
        type            empty;
    }
}


// ************************************************************************* //
