/*--------------------------------*- C++ -*----------------------------------*\
  =========                 |
  \\      /  F ield         | OpenFOAM: The Open Source CFD Toolbox
   \\    /   O peration     | Website:  https://openfoam.org
    \\  /    A nd           | Version:  8
     \\/     M anipulation  |
\*---------------------------------------------------------------------------*/
FoamFile
{
    version     2.0;
    format      ascii;
    class       surfaceScalarField;
    location    "0.15";
    object      phi;
}
// * * * * * * * * * * * * * * * * * * * * * * * * * * * * * * * * * * * * * //

dimensions      [0 3 -1 0 0 0 0];

internalField   nonuniform List<scalar> 
31053
(
6.27701e-07
1.27523e-05
8.49577e-07
1.51581e-05
3.76231e-07
1.23761e-05
9.32262e-07
1.75573e-05
5.88711e-07
1.49456e-05
2.69501e-07
1.21066e-05
9.55895e-07
2.02164e-05
7.06824e-07
1.74392e-05
4.64562e-07
1.47506e-05
2.15997e-07
1.18906e-05
9.46882e-07
2.3249e-05
7.66277e-07
2.01569e-05
5.89916e-07
1.73138e-05
3.96145e-07
1.45704e-05
1.7259e-07
1.1718e-05
9.16914e-07
2.669e-05
7.91271e-07
2.3224e-05
6.64899e-07
2.00819e-05
5.23662e-07
1.71863e-05
3.3346e-07
1.44096e-05
1.38032e-07
1.15799e-05
8.71489e-07
3.06654e-05
7.94001e-07
2.66872e-05
7.06844e-07
2.31821e-05
6.04926e-07
2.00007e-05
4.55948e-07
1.70638e-05
2.78753e-07
1.42688e-05
1.10889e-07
1.14691e-05
8.14006e-07
3.51975e-05
7.8137e-07
3.06781e-05
7.26615e-07
2.66675e-05
6.5337e-07
2.31336e-05
5.37311e-07
1.99193e-05
3.9189e-07
1.69507e-05
2.31694e-07
1.4148e-05
8.84332e-08
1.13806e-05
7.47309e-07
4.03867e-05
7.57185e-07
3.52217e-05
7.30526e-07
3.06741e-05
6.79022e-07
2.66418e-05
5.86568e-07
2.30844e-05
4.69315e-07
1.98419e-05
3.33077e-07
1.68493e-05
1.89622e-07
1.40469e-05
6.87405e-08
1.13119e-05
6.73111e-07
4.63542e-05
7.23382e-07
4.04205e-05
7.21823e-07
3.52304e-05
6.87841e-07
3.06653e-05
6.12741e-07
2.66156e-05
5.1589e-07
2.30378e-05
4.03769e-07
1.97712e-05
2.77308e-07
1.67616e-05
1.5061e-07
1.3965e-05
5.06558e-08
1.12612e-05
5.93091e-07
5.322e-05
6.82014e-07
4.63956e-05
7.01721e-07
4.04406e-05
6.83352e-07
3.52349e-05
6.21801e-07
3.06563e-05
5.39248e-07
2.65923e-05
4.45098e-07
2.29965e-05
3.38774e-07
1.97097e-05
2.23016e-07
1.66892e-05
1.1338e-07
1.39023e-05
3.34095e-08
1.12278e-05
5.09181e-07
6.10639e-05
6.34742e-07
5.32673e-05
6.71502e-07
4.64258e-05
6.67903e-07
4.04561e-05
6.17259e-07
3.52394e-05
5.45174e-07
3.06503e-05
4.63139e-07
2.65742e-05
3.7246e-07
2.29628e-05
2.72975e-07
1.96598e-05
1.69146e-07
1.66335e-05
7.69993e-08
1.38587e-05
1.64918e-08
1.12113e-05
4.23904e-07
7.00673e-05
5.83085e-07
6.11156e-05
6.32263e-07
5.33065e-05
6.42153e-07
4.64515e-05
6.01245e-07
4.04721e-05
5.37156e-07
3.52474e-05
4.63262e-07
3.06502e-05
3.82788e-07
2.65639e-05
2.96672e-07
2.29391e-05
2.05434e-07
1.96235e-05
1.14905e-07
1.65956e-05
4.07762e-08
1.38344e-05
-2.52321e-10
1.12116e-05
3.40972e-07
8.04149e-05
5.2808e-07
7.01223e-05
5.85212e-07
6.11626e-05
6.0646e-07
5.33422e-05
5.74784e-07
4.6478e-05
5.17144e-07
4.04921e-05
4.48836e-07
3.52618e-05
3.74543e-07
3.06585e-05
2.96911e-07
2.65637e-05
2.1682e-07
2.29277e-05
1.35477e-07
1.96029e-05
5.96637e-08
1.65767e-05
4.33667e-09
1.38298e-05
-1.71032e-08
1.12287e-05
2.77431e-07
7.62535e-05
4.69786e-07
8.04732e-05
5.31711e-07
7.01758e-05
5.61212e-07
6.12079e-05
5.38238e-07
5.33788e-05
4.86105e-07
4.6509e-05
4.21708e-07
4.05192e-05
3.50915e-07
3.52855e-05
2.77773e-07
3.06776e-05
2.0458e-07
2.65759e-05
1.32237e-07
2.29309e-05
6.25691e-08
1.96e-05
3.13716e-09
1.65779e-05
-3.25469e-08
1.38452e-05
-3.41924e-08
1.12629e-05
2.26572e-07
7.62409e-05
4.17422e-07
7.63059e-05
4.73148e-07
8.05318e-05
5.07034e-07
7.023e-05
4.9179e-07
6.12543e-05
4.44398e-07
5.34205e-05
3.82741e-07
4.6548e-05
3.13637e-07
4.05565e-05
2.42176e-07
3.53211e-05
1.72002e-07
3.07102e-05
1.05081e-07
2.66031e-05
4.23933e-08
2.29511e-05
-1.34843e-08
1.96166e-05
-5.4947e-08
1.66003e-05
-7.00213e-08
1.38811e-05
-5.15337e-08
1.13144e-05
1.86069e-07
7.62305e-05
3.68331e-07
7.629e-05
4.20942e-07
7.63581e-05
4.45036e-07
8.05938e-05
4.35709e-07
7.0286e-05
3.9216e-07
6.13066e-05
3.32216e-07
5.3471e-05
2.6345e-07
4.65982e-05
1.91685e-07
4.0607e-05
1.21645e-07
3.53714e-05
5.64457e-08
3.07588e-05
-2.13189e-09
2.66476e-05
-5.28062e-08
2.29904e-05
-9.2731e-08
1.96544e-05
-1.14402e-07
1.66447e-05
-1.0799e-07
1.39375e-05
-6.89445e-08
1.13834e-05
1.53491e-07
7.62246e-05
3.22792e-07
7.6276e-05
3.72088e-07
7.63388e-05
3.88633e-07
7.64145e-05
3.70666e-07
8.06588e-05
3.29585e-07
7.03486e-05
2.70216e-07
6.13686e-05
2.00534e-07
5.35339e-05
1.2689e-07
4.6663e-05
5.4841e-08
4.06738e-05
-1.15414e-08
3.54394e-05
-6.94457e-08
3.08261e-05
-1.17096e-07
2.67119e-05
-1.53266e-07
2.3051e-05
-1.74803e-07
1.97148e-05
-1.75005e-07
1.67117e-05
-1.46171e-07
1.40147e-05
-8.62928e-08
1.14696e-05
1.27029e-07
7.62165e-05
2.81141e-07
7.62662e-05
3.26645e-07
7.63215e-05
3.35287e-07
7.63921e-05
3.10458e-07
7.64747e-05
2.57286e-07
8.07311e-05
1.96878e-07
7.0422e-05
1.24919e-07
6.14442e-05
4.78399e-08
5.3613e-05
-2.80207e-08
4.67458e-05
-9.78448e-08
4.07601e-05
-1.57947e-07
3.55279e-05
-2.05717e-07
3.09147e-05
-2.39601e-07
2.67982e-05
-2.5839e-07
2.31346e-05
-2.59155e-07
1.9799e-05
-2.3621e-07
1.68017e-05
-1.84198e-07
1.41127e-05
-1.03322e-07
1.1573e-05
1.05357e-07
7.62117e-05
2.43391e-07
7.62542e-05
2.84645e-07
7.63082e-05
2.85431e-07
7.63713e-05
2.5295e-07
7.64497e-05
1.90445e-07
7.65416e-05
1.12835e-07
8.08152e-05
3.67344e-08
7.05101e-05
-4.54986e-08
6.15375e-05
-1.2706e-07
5.3712e-05
-2.02342e-07
4.68503e-05
-2.66978e-07
4.08691e-05
-3.17618e-07
3.56398e-05
-3.51966e-07
3.10271e-05
-3.6883e-07
2.69087e-05
-3.67316e-07
2.32427e-05
-3.44883e-07
1.99076e-05
-2.97357e-07
1.69149e-05
-2.21589e-07
1.42309e-05
-1.19839e-07
1.16928e-05
8.74953e-08
7.62079e-05
2.09385e-07
7.62457e-05
2.46033e-07
7.62928e-05
2.39333e-07
7.63543e-05
1.9893e-07
7.64254e-05
1.26744e-07
7.65134e-05
3.56356e-08
7.66188e-05
-6.3328e-08
8.09152e-05
-1.52985e-07
7.06176e-05
-2.42394e-07
6.16528e-05
-3.25364e-07
5.3835e-05
-3.9672e-07
4.69801e-05
-4.52571e-07
4.10041e-05
-4.89945e-07
3.57778e-05
-5.07198e-07
3.11655e-05
-5.03607e-07
2.7045e-05
-4.78733e-07
2.33766e-05
-4.30955e-07
2.00412e-05
-3.57649e-07
1.70509e-05
-2.57831e-07
1.43689e-05
-1.35517e-07
1.18283e-05
7.38527e-08
6.95956e-05
1.78915e-07
7.62383e-05
2.10724e-07
7.6281e-05
1.97114e-07
7.6335e-05
1.48901e-07
7.64044e-05
6.71575e-08
7.64849e-05
-3.75281e-08
7.65865e-05
-1.54597e-07
7.671e-05
-2.73749e-07
8.1036e-05
-3.73854e-07
7.07491e-05
-4.6714e-07
6.17946e-05
-5.47768e-07
5.39861e-05
-6.11145e-07
4.71387e-05
-6.53823e-07
4.11679e-05
-6.73754e-07
3.59444e-05
-6.6991e-07
3.13318e-05
-6.42209e-07
2.72084e-05
-5.91188e-07
2.35368e-05
-5.16144e-07
2.01997e-05
-4.16192e-07
1.72093e-05
-2.92314e-07
1.45257e-05
-1.5015e-07
1.19785e-05
6.33615e-08
6.25545e-05
1.54093e-07
6.96205e-05
1.78617e-07
7.62704e-05
1.58784e-07
7.63193e-05
1.03185e-07
7.63808e-05
1.23353e-08
7.64592e-05
-1.05495e-07
7.65529e-05
-2.40561e-07
7.66725e-05
-3.83105e-07
7.68194e-05
-5.20369e-07
8.11825e-05
-6.27492e-07
7.09094e-05
-7.20499e-07
6.19673e-05
-7.94255e-07
5.41692e-05
-8.44617e-07
4.73295e-05
-8.69359e-07
4.13635e-05
-8.67198e-07
3.61416e-05
-8.37949e-07
3.15275e-05
-7.82734e-07
2.74e-05
-7.02949e-07
2.37236e-05
-5.99123e-07
2.03827e-05
-4.72023e-07
1.7389e-05
-3.24511e-07
1.47001e-05
-1.63336e-07
1.21418e-05
5.51344e-08
5.62262e-05
1.34121e-07
6.25745e-05
1.51898e-07
6.96472e-05
1.24298e-07
7.63049e-05
6.19605e-08
7.63605e-05
-3.72866e-08
7.64304e-05
-1.67441e-07
7.65211e-05
-3.19871e-07
7.66322e-05
-4.85497e-07
7.67749e-05
-6.52231e-07
7.69512e-05
-8.05107e-07
8.13601e-05
-9.14744e-07
7.11037e-05
-1.00247e-06
6.21756e-05
-1.06363e-06
5.43882e-05
-1.09555e-06
4.75556e-05
-1.09696e-06
4.15933e-05
-1.06765e-06
3.63713e-05
-1.00893e-06
3.17537e-05
-9.22913e-07
2.76199e-05
-8.12204e-07
2.39367e-05
-6.78468e-07
2.05891e-05
-5.24221e-07
1.75887e-05
-3.53536e-07
1.48903e-05
-1.74474e-07
1.23163e-05
4.85799e-08
5.05386e-05
1.1795e-07
5.62424e-05
1.29931e-07
6.25964e-05
9.60808e-08
6.96754e-05
2.53202e-08
7.63416e-05
-8.14146e-08
7.64047e-05
-2.22785e-07
7.64857e-05
-3.91517e-07
7.65928e-05
-5.79373e-07
7.67261e-05
-7.75057e-07
7.68977e-05
-9.64197e-07
7.71103e-05
-1.12893e-06
8.15743e-05
-1.23567e-06
7.13369e-05
-1.31168e-06
6.24236e-05
-1.35408e-06
5.46467e-05
-1.36133e-06
4.782e-05
-1.33351e-06
4.18592e-05
-1.27224e-06
3.66347e-05
-1.18005e-06
3.20109e-05
-1.06041e-06
2.78681e-05
-9.16987e-07
2.41752e-05
-7.52823e-07
2.08177e-05
-5.71454e-07
1.78066e-05
-3.7866e-07
1.50945e-05
-1.81325e-07
1.24976e-05
4.32867e-08
4.54253e-05
1.04757e-07
5.05517e-05
1.11801e-07
5.62605e-05
7.33241e-08
6.26192e-05
-4.08749e-09
6.97048e-05
-1.19864e-07
7.638e-05
-2.71132e-07
7.6453e-05
-4.5475e-07
7.6549e-05
-6.63513e-07
7.66769e-05
-8.8707e-07
7.68381e-05
-1.1118e-06
7.70453e-05
-1.32013e-06
7.73015e-05
-1.49202e-06
8.18307e-05
-1.58873e-06
7.16139e-05
-1.64609e-06
6.27156e-05
-1.66258e-06
5.4948e-05
-1.63829e-06
4.81248e-05
-1.57559e-06
4.21625e-05
-1.47756e-06
3.69322e-05
-1.34838e-06
3.22988e-05
-1.19266e-06
2.81438e-05
-1.01544e-06
2.44378e-05
-8.20404e-07
2.10667e-05
-6.12798e-07
1.80408e-05
-3.95627e-07
1.53088e-05
-1.51127e-07
1.26487e-05
3.89589e-08
4.08303e-05
9.39114e-08
4.54361e-05
9.67754e-08
5.05668e-05
5.49326e-08
5.62789e-05
-2.7225e-08
6.26423e-05
-1.49928e-07
6.97349e-05
-3.12219e-07
7.64211e-05
-5.09038e-07
7.65073e-05
-7.36975e-07
7.66224e-05
-9.86821e-07
7.67767e-05
-1.24588e-06
7.69722e-05
-1.49705e-06
7.72222e-05
-1.72037e-06
7.75299e-05
-1.8927e-06
8.21346e-05
-1.97166e-06
7.19395e-05
-2.00224e-06
6.30553e-05
-1.98491e-06
5.52946e-05
-1.92248e-06
4.84717e-05
-1.81915e-06
4.25041e-05
-1.68004e-06
3.72638e-05
-1.51068e-06
3.26168e-05
-1.31725e-06
2.84456e-05
-1.10531e-06
2.47227e-05
-8.79756e-07
2.13336e-05
-6.42788e-07
1.82879e-05
-3.91249e-07
1.55489e-05
-1.0331e-07
1.2752e-05
3.53798e-08
3.66996e-05
8.49406e-08
4.08393e-05
8.42822e-08
4.54486e-05
4.00488e-08
5.05817e-05
-4.53768e-08
5.62971e-05
-1.72804e-07
6.26652e-05
-3.43267e-07
6.97659e-05
-5.54008e-07
7.64661e-05
-7.99063e-07
7.65694e-05
-1.07315e-06
7.67087e-05
-1.36471e-06
7.68955e-05
-1.65733e-06
7.71325e-05
-1.93134e-06
7.74332e-05
-2.16317e-06
7.78004e-05
-2.32856e-06
8.24915e-05
-2.38065e-06
7.23179e-05
-2.37536e-06
6.34457e-05
-2.31647e-06
5.56886e-05
-2.20905e-06
4.88616e-05
-2.05988e-06
4.28839e-05
-1.87574e-06
3.76289e-05
-1.66401e-06
3.29636e-05
-1.43144e-06
2.87718e-05
-1.18456e-06
2.50275e-05
-9.25763e-07
2.16166e-05
-6.55914e-07
1.85526e-05
-3.67576e-07
1.58131e-05
-8.04214e-08
1.28325e-05
3.23891e-08
3.2989e-05
7.7485e-08
3.6707e-05
7.38792e-08
4.08497e-05
2.79806e-08
4.54607e-05
-5.95758e-08
5.05959e-05
-1.90014e-07
5.63143e-05
-3.65842e-07
6.26878e-05
-5.86726e-07
6.97986e-05
-8.49275e-07
7.65163e-05
-1.14517e-06
7.66414e-05
-1.46688e-06
7.68109e-05
-1.79897e-06
7.70371e-05
-2.12222e-06
7.73234e-05
-2.41292e-06
7.76829e-05
-2.64612e-06
7.81179e-05
-2.79548e-06
8.29064e-05
-2.81027e-06
7.27528e-05
-2.76008e-06
6.38893e-05
-2.65159e-06
5.61311e-05
-2.49298e-06
4.92947e-05
-2.29316e-06
4.33014e-05
-2.06115e-06
3.8026e-05
-1.8051e-06
3.33373e-05
-1.5327e-06
2.91199e-05
-1.24885e-06
2.53506e-05
-9.55013e-07
2.19157e-05
-6.56248e-07
1.88413e-05
-3.45208e-07
1.60779e-05
-7.65076e-08
1.2909e-05
2.98684e-08
2.96505e-05
7.12582e-08
3.29952e-05
6.52099e-08
3.67157e-05
1.81542e-08
4.08595e-05
-7.065e-08
4.54718e-05
-2.02789e-07
5.06086e-05
-3.81815e-07
5.63303e-05
-6.09243e-07
6.27103e-05
-8.8446e-07
6.98338e-05
-1.20222e-06
7.65733e-05
-1.55129e-06
7.67258e-05
-1.92023e-06
7.69322e-05
-2.29063e-06
7.72055e-05
-2.63886e-06
7.75493e-05
-2.93948e-06
7.79763e-05
-3.16483e-06
7.84873e-05
-3.28729e-06
8.33834e-05
-3.25443e-06
7.32472e-05
-3.14997e-06
6.43877e-05
-2.98452e-06
5.66227e-05
-2.7689e-06
4.97704e-05
-2.51483e-06
4.3755e-05
-2.23246e-06
3.84534e-05
-1.931e-06
3.37356e-05
-1.61732e-06
2.94884e-05
-1.29552e-06
2.56911e-05
-9.72053e-07
2.22315e-05
-6.51349e-07
1.91474e-05
-3.34361e-07
1.63358e-05
-8.22256e-08
1.29912e-05
2.77286e-08
2.66501e-05
6.60275e-08
2.96558e-05
5.797e-08
3.30025e-05
1.01122e-08
3.67237e-05
-7.92662e-08
4.08681e-05
-2.12118e-07
4.54811e-05
-3.92694e-07
5.06195e-05
-6.23889e-07
5.63449e-05
-9.0726e-07
6.27331e-05
-1.24085e-06
6.98725e-05
-1.61707e-06
7.66391e-05
-2.01975e-06
7.68253e-05
-2.43451e-06
7.70761e-05
-2.83819e-06
7.74049e-05
-3.20508e-06
7.78149e-05
-3.50643e-06
7.83179e-05
-3.71259e-06
7.89126e-05
-3.79734e-06
8.39263e-05
-3.70592e-06
7.38031e-05
-3.53849e-06
6.49417e-05
-3.30903e-06
5.71628e-05
-3.03192e-06
5.02875e-05
-2.72049e-06
4.42431e-05
-2.38628e-06
3.89087e-05
-2.03837e-06
3.41566e-05
-1.68307e-06
2.98759e-05
-1.32823e-06
2.60473e-05
-9.82449e-07
2.25626e-05
-6.48759e-07
1.94618e-05
-3.33624e-07
1.65872e-05
-1.1122e-07
1.31024e-05
2.59013e-08
2.39558e-05
6.16061e-08
2.66546e-05
5.1901e-08
2.96618e-05
3.50357e-09
3.30091e-05
-8.59567e-08
3.67304e-05
-2.18789e-07
4.08748e-05
-3.99683e-07
4.54881e-05
-6.32545e-07
5.06282e-05
-9.20579e-07
5.63582e-05
-1.2644e-06
6.27566e-05
-1.66035e-06
6.99157e-05
-2.09643e-06
7.67158e-05
-2.55216e-06
7.6943e-05
-3.00845e-06
7.72463e-05
-3.43967e-06
7.76395e-05
-3.81624e-06
7.81247e-05
-4.10673e-06
7.8712e-05
-4.28236e-06
7.93976e-05
-4.31761e-06
8.4538e-05
-4.15734e-06
7.4422e-05
-3.91842e-06
6.55511e-05
-3.61943e-06
5.77503e-05
-3.27696e-06
5.0844e-05
-2.90628e-06
4.47631e-05
-2.51942e-06
3.93897e-05
-2.12523e-06
3.45988e-05
-1.73261e-06
3.02803e-05
-1.35203e-06
2.64169e-05
-9.91312e-07
2.29051e-05
-6.49901e-07
1.97781e-05
-4.15236e-07
1.68912e-05
-1.20271e-07
1.32227e-05
2.43326e-08
2.15336e-05
5.78479e-08
2.39596e-05
4.67878e-08
2.66597e-05
-1.93626e-09
2.96673e-05
-9.1141e-08
3.30143e-05
-2.23421e-07
3.67351e-05
-4.03736e-07
4.08789e-05
-6.36705e-07
4.54923e-05
-9.2676e-07
5.06343e-05
-1.27648e-06
5.63703e-05
-1.68531e-06
6.27816e-05
-2.14581e-06
6.99651e-05
-2.64222e-06
7.68058e-05
-3.14755e-06
7.70821e-05
-3.64034e-06
7.7447e-05
-4.09049e-06
7.79137e-05
-4.46513e-06
7.84831e-05
-4.73304e-06
7.91627e-05
-4.86551e-06
7.99455e-05
-4.83976e-06
8.52204e-05
-4.60037e-06
7.51039e-05
-4.28317e-06
6.62148e-05
-3.90985e-06
5.83832e-05
-3.49964e-06
5.14374e-05
-3.06896e-06
4.53126e-05
-2.62999e-06
3.98945e-05
-2.19338e-06
3.50596e-05
-1.77027e-06
3.06986e-05
-1.37096e-06
2.67965e-05
-9.99095e-07
2.32543e-05
-8.05052e-07
2.01679e-05
-4.17024e-07
1.7188e-05
-1.30189e-07
1.33529e-05
2.29801e-08
1.93534e-05
5.46373e-08
2.15368e-05
4.24578e-08
2.39639e-05
-6.419e-09
2.66642e-05
-9.51451e-08
2.96713e-05
-2.26503e-07
3.30173e-05
-4.056e-07
3.67369e-05
-6.37548e-07
4.08797e-05
-9.27659e-07
4.54932e-05
-1.27999e-06
5.06379e-05
-1.69637e-06
5.63814e-05
-2.17301e-06
6.28088e-05
-2.69944e-06
7.00223e-05
-3.25378e-06
7.69121e-05
-3.80454e-06
7.72463e-05
-4.32575e-06
7.76823e-05
-4.78343e-06
7.8232e-05
-5.14422e-06
7.88943e-05
-5.37622e-06
7.96734e-05
-5.45287e-06
8.05586e-05
-5.35435e-06
8.59744e-05
-5.02749e-06
7.58482e-05
-4.62603e-06
6.6931e-05
-4.17531e-06
5.90589e-05
-3.69646e-06
5.20648e-05
-3.20651e-06
4.58891e-05
-2.71897e-06
4.042e-05
-2.24621e-06
3.55355e-05
-1.7992e-06
3.11268e-05
-1.38531e-06
2.71827e-05
-1.24078e-06
2.36901e-05
-8.00525e-07
2.05514e-05
-4.18697e-07
1.74765e-05
-1.38001e-07
1.34909e-05
1.73972e-05
2.18109e-08
5.18823e-08
1.93561e-05
3.87736e-08
2.15405e-05
-1.01208e-08
2.39676e-05
-9.82239e-08
2.66672e-05
-2.28413e-07
2.96732e-05
-4.05859e-07
3.30176e-05
-6.35992e-07
3.67354e-05
-9.24738e-07
4.08768e-05
-1.27722e-06
4.54904e-05
-1.6971e-06
5.06386e-05
-2.18344e-06
5.63918e-05
-2.73001e-06
6.28394e-05
-3.32091e-06
7.00895e-05
-3.93015e-06
7.70377e-05
-4.51898e-06
7.74395e-05
-5.05761e-06
7.79564e-05
-5.51094e-06
7.85987e-05
-5.844e-06
7.93621e-05
-6.02646e-06
8.0247e-05
-6.0341e-06
8.12383e-05
-5.85289e-06
8.67998e-05
-5.43101e-06
7.66532e-05
-4.94125e-06
6.7697e-05
-4.41184e-06
5.97742e-05
-3.86506e-06
5.27234e-05
-3.31913e-06
4.64893e-05
-2.7888e-06
4.09626e-05
-2.28611e-06
3.60224e-05
-1.81978e-06
3.15613e-05
-1.72305e-06
2.7665e-05
-1.23318e-06
2.41227e-05
-7.92755e-07
2.09254e-05
-4.17993e-07
1.77565e-05
-1.4301e-07
1.36339e-05
1.73995e-05
4.95014e-08
2.78119e-05
1.99136e-08
3.56257e-08
1.93593e-05
-1.3186e-08
2.15435e-05
-1.00578e-07
2.397e-05
-2.29446e-07
2.66683e-05
-4.04964e-07
2.96723e-05
-6.32748e-07
3.30143e-05
-9.19132e-07
3.67298e-05
-1.27e-06
4.08696e-05
-1.69034e-06
4.54836e-05
-2.18142e-06
5.06366e-05
-2.74039e-06
5.64022e-05
-3.35624e-06
6.28747e-05
-4.00964e-06
7.0169e-05
-4.66753e-06
7.71862e-05
-5.28403e-06
7.76659e-05
-5.82849e-06
7.8274e-05
-6.26325e-06
7.9018e-05
-6.55421e-06
7.98898e-05
-6.67266e-06
8.08856e-05
-6.59984e-06
8.19853e-05
-6.32651e-06
8.76953e-05
-5.80424e-06
7.75162e-05
-5.2242e-06
6.85093e-05
-4.61656e-06
6.05257e-05
-4.00489e-06
5.34092e-05
-3.40839e-06
4.71089e-05
-2.84124e-06
4.15178e-05
-2.31355e-06
3.65162e-05
-2.26441e-06
3.21026e-05
-1.71352e-06
2.81453e-05
-1.21763e-06
2.45476e-05
-7.80632e-07
2.12881e-05
-4.13846e-07
1.80273e-05
-1.45402e-07
1.37793e-05
1.74022e-05
3.2929e-08
2.78158e-05
4.5627e-08
2.85518e-05
1.81091e-08
-1.57316e-08
1.93618e-05
-1.02363e-07
2.15453e-05
-2.2983e-07
2.39704e-05
-4.03261e-07
2.66666e-05
-6.28363e-07
2.96679e-05
-9.11713e-07
3.30069e-05
-1.25971e-06
3.67195e-05
-1.6783e-06
4.08575e-05
-2.17042e-06
4.54726e-05
-2.73585e-06
5.0632e-05
-3.36748e-06
5.64134e-05
-4.05154e-06
6.29166e-05
-4.76226e-06
7.02637e-05
-5.45948e-06
7.73617e-05
-6.09258e-06
7.793e-05
-6.62857e-06
7.86393e-05
-7.02983e-06
7.94936e-05
-7.2631e-06
8.04802e-05
-7.30466e-06
8.15904e-05
-7.14021e-06
8.2799e-05
-6.7675e-06
8.86586e-05
-6.14172e-06
7.84337e-05
-5.47127e-06
6.9364e-05
-4.78813e-06
6.1309e-05
-4.11671e-06
5.41175e-05
-3.47545e-06
4.77431e-05
-2.87679e-06
4.2081e-05
-2.87933e-06
3.71311e-05
-2.25228e-06
3.26414e-05
-1.69098e-06
2.86187e-05
-1.19435e-06
2.49613e-05
-7.63573e-07
2.16378e-05
-4.06316e-07
1.82882e-05
-1.45452e-07
1.39247e-05
1.74044e-05
-1.78547e-08
2.78195e-05
2.92086e-08
2.85555e-05
4.18911e-08
2.93117e-05
1.63971e-08
-1.03705e-07
1.93631e-05
-2.29742e-07
2.15452e-05
-4.01016e-07
2.39681e-05
-6.2325e-07
2.66615e-05
-9.03148e-07
2.96593e-05
-1.24743e-06
3.29946e-05
-1.66271e-06
3.67039e-05
-2.15315e-06
4.08403e-05
-2.72053e-06
4.54573e-05
-3.36087e-06
5.06254e-05
-4.06486e-06
5.64267e-05
-4.81294e-06
6.29673e-05
-5.57279e-06
7.0377e-05
-6.2993e-06
7.75684e-05
-6.9349e-06
7.82364e-05
-7.44719e-06
7.90567e-05
-7.79848e-06
8.0029e-05
-7.95986e-06
8.11354e-05
-7.91162e-06
8.23618e-05
-7.64644e-06
8.36779e-05
-7.1693e-06
8.96861e-05
-6.43892e-06
7.94014e-05
-5.68033e-06
7.02562e-05
-4.92656e-06
6.21188e-05
-4.20113e-06
5.48432e-05
-3.52084e-06
4.83872e-05
-3.58116e-06
4.27828e-05
-2.86406e-06
3.77429e-05
-2.22211e-06
3.31725e-05
-1.65681e-06
2.90812e-05
-1.16372e-06
2.53615e-05
-7.41947e-07
2.19734e-05
-3.95742e-07
1.85385e-05
-1.43556e-07
1.40683e-05
1.74054e-05
-1.04703e-07
2.78213e-05
-1.97054e-08
2.8559e-05
2.57289e-08
2.93153e-05
3.83092e-08
3.00896e-05
1.47787e-08
-2.29316e-07
1.93627e-05
-3.98428e-07
2.15426e-05
-6.17722e-07
2.39626e-05
-8.93937e-07
2.66522e-05
-1.23397e-06
2.96459e-05
-1.64488e-06
3.29768e-05
-2.1317e-06
3.66824e-05
-2.69772e-06
4.08174e-05
-3.34137e-06
4.54378e-05
-4.05696e-06
5.06175e-05
-4.82999e-06
5.64438e-05
-5.63493e-06
6.30294e-05
-6.435e-06
7.05127e-05
-7.17757e-06
7.78111e-05
-7.80042e-06
7.85896e-05
-8.27188e-06
7.95301e-05
-8.55785e-06
8.0627e-05
-8.63279e-06
8.18566e-05
-8.4838e-06
8.31992e-05
-8.11097e-06
8.46196e-05
-7.52629e-06
9.07735e-05
-6.6928e-06
8.04139e-05
-5.85063e-06
7.11803e-05
-5.03194e-06
6.29496e-05
-4.25864e-06
5.5581e-05
-4.38453e-06
4.91905e-05
-3.56269e-06
4.34815e-05
-2.82531e-06
3.83461e-05
-2.17616e-06
3.36919e-05
-1.61224e-06
2.95297e-05
-1.12673e-06
2.57463e-05
-7.16433e-07
2.22941e-05
-3.82655e-07
1.87776e-05
-1.40131e-07
1.42084e-05
1.74047e-05
-2.28658e-07
2.78197e-05
-1.03091e-07
2.85606e-05
-2.12704e-08
2.93185e-05
2.24825e-08
3.0093e-05
3.48837e-08
3.08895e-05
1.32545e-08
-3.95649e-07
1.93599e-05
-6.1201e-07
2.15369e-05
-8.84453e-07
2.39531e-05
-1.21994e-06
2.66382e-05
-1.62581e-06
2.96268e-05
-2.10768e-06
3.29528e-05
-2.66997e-06
3.66547e-05
-3.31292e-06
4.0789e-05
-4.03371e-06
4.54146e-05
-4.82197e-06
5.06095e-05
-5.65784e-06
5.64667e-05
-6.51182e-06
6.31062e-05
-7.33992e-06
7.0675e-05
-8.08399e-06
7.80946e-05
-8.6766e-06
7.89943e-05
-9.09096e-06
8.00632e-05
-9.29554e-06
8.12897e-05
-9.27125e-06
8.26441e-05
-9.01261e-06
8.41008e-05
-8.5271e-06
8.56204e-05
-7.83439e-06
9.19151e-05
-6.9018e-06
8.1465e-05
-5.98171e-06
7.21301e-05
-5.10467e-06
6.37957e-05
-5.3062e-06
5.65026e-05
-4.3633e-06
4.99911e-05
-3.5147e-06
4.41708e-05
-2.76627e-06
3.89362e-05
-2.11652e-06
3.41961e-05
-1.55901e-06
2.9962e-05
-1.0846e-06
2.61144e-05
-6.87877e-07
2.25994e-05
-3.67641e-07
1.90051e-05
-1.35559e-07
1.4344e-05
1.74018e-05
-3.9279e-07
2.78131e-05
-2.21995e-07
2.85586e-05
-1.01073e-07
2.93198e-05
-2.25362e-08
3.00961e-05
1.94737e-08
3.08928e-05
3.16201e-08
3.17094e-05
1.18234e-08
-6.06284e-07
1.93542e-05
-8.74966e-07
2.15274e-05
-1.2058e-06
2.3939e-05
-1.60623e-06
2.66186e-05
-2.0823e-06
2.96014e-05
-2.6392e-06
3.2922e-05
-3.27856e-06
3.66203e-05
-3.99975e-06
4.0755e-05
-4.79574e-06
4.53883e-05
-5.65133e-06
5.0603e-05
-6.54323e-06
5.64981e-05
-7.43515e-06
6.32015e-05
-8.27766e-06
7.08687e-05
-9.00614e-06
7.84242e-05
-9.5516e-06
7.9455e-05
-9.89147e-06
8.06591e-05
-1.00001e-05
8.20186e-05
-9.86574e-06
8.34972e-05
-9.49038e-06
8.50641e-05
-8.88979e-06
8.66758e-05
-8.09116e-06
9.31045e-05
-7.06486e-06
8.25482e-05
-6.07375e-06
7.30991e-05
-6.36499e-06
6.48545e-05
-5.28321e-06
5.74225e-05
-4.30565e-06
5.07821e-05
-3.44126e-06
4.48458e-05
-2.68992e-06
3.95096e-05
-2.04567e-06
3.46828e-05
-1.49899e-06
3.03763e-05
-1.03863e-06
2.64652e-05
-6.57125e-07
2.28888e-05
-3.51262e-07
1.92208e-05
-1.30171e-07
1.44742e-05
1.73962e-05
-6.00665e-07
2.77996e-05
-3.79276e-07
2.85514e-05
-2.14806e-07
2.93174e-05
-9.86705e-08
3.0097e-05
-2.35008e-08
3.08956e-05
1.67011e-08
3.17125e-05
2.85226e-08
3.25533e-05
1.04873e-08
-8.65674e-07
1.93449e-05
-1.19185e-06
2.15135e-05
-1.5867e-06
2.39194e-05
-2.05647e-06
2.65928e-05
-2.60688e-06
2.95691e-05
-3.24062e-06
3.28841e-05
-3.95872e-06
3.65793e-05
-4.75675e-06
4.07161e-05
-5.62333e-06
4.53603e-05
-6.54038e-06
5.06001e-05
-7.47827e-06
5.65412e-05
-8.39553e-06
6.33193e-05
-9.23611e-06
7.10987e-05
-9.93227e-06
7.88049e-05
-1.04121e-05
7.99756e-05
-1.06613e-05
8.13203e-05
-1.06612e-05
8.28141e-05
-1.04075e-05
8.44143e-05
-9.91107e-06
8.60854e-05
-9.19583e-06
8.77805e-05
-8.29486e-06
9.43345e-05
-7.18184e-06
8.36563e-05
-7.58053e-06
7.43147e-05
-6.34204e-06
6.59133e-05
-5.21584e-06
5.83327e-05
-4.21663e-06
5.15574e-05
-3.34633e-06
4.55023e-05
-2.59948e-06
4.00634e-05
-1.96613e-06
3.51499e-05
-1.43404e-06
3.07718e-05
-9.90035e-07
2.67981e-05
-6.2497e-07
2.31626e-05
-3.34032e-07
1.94247e-05
-1.24226e-07
1.45984e-05
1.73873e-05
-8.56712e-07
2.77772e-05
-5.78291e-07
2.85371e-05
-3.65042e-07
2.93096e-05
-2.07043e-07
3.00942e-05
-9.58489e-08
3.08962e-05
-2.4164e-08
3.17151e-05
1.41641e-08
3.25563e-05
2.55892e-08
3.34192e-05
9.24307e-09
-1.17834e-06
1.93314e-05
-1.56759e-06
2.14944e-05
-2.03082e-06
2.38938e-05
-2.57412e-06
2.656e-05
-3.20086e-06
2.95294e-05
-3.91337e-06
3.28387e-05
-4.70925e-06
3.65318e-05
-5.58016e-06
4.06729e-05
-6.51232e-06
4.53323e-05
-7.48177e-06
5.06036e-05
-8.4541e-06
5.65998e-05
-9.38129e-06
6.34645e-05
-1.02038e-05
7.13702e-05
-1.08488e-05
7.92416e-05
-1.12455e-05
8.05597e-05
-1.13894e-05
8.20484e-05
-1.12691e-05
8.36757e-05
-1.08896e-05
8.53929e-05
-1.02706e-05
8.71601e-05
-9.44278e-06
8.89284e-05
-8.44498e-06
9.55976e-05
-8.97469e-06
8.50504e-05
-7.56059e-06
7.55332e-05
-6.26535e-06
6.69628e-05
-5.11016e-06
5.92263e-05
-4.1012e-06
5.23123e-05
-3.23402e-06
4.61368e-05
-2.4982e-06
4.05955e-05
-1.88035e-06
3.55963e-05
-1.36582e-06
3.11475e-05
-9.39903e-07
2.7113e-05
-5.9213e-07
2.34206e-05
-3.16341e-07
1.96168e-05
-1.17953e-07
1.47163e-05
1.73743e-05
-1.16542e-06
2.77436e-05
-8.23116e-07
2.85139e-05
-5.55024e-07
2.92947e-05
-3.50144e-07
3.00859e-05
-1.98789e-07
3.0893e-05
-9.26333e-08
3.17154e-05
-2.45227e-08
3.25586e-05
1.18626e-08
3.3422e-05
2.28246e-08
3.43052e-05
8.08969e-09
-1.54918e-06
1.9313e-05
-2.00584e-06
2.14694e-05
-2.54169e-06
2.38613e-05
-3.1606e-06
2.65198e-05
-3.86582e-06
2.94818e-05
-4.65652e-06
3.2786e-05
-5.52678e-06
3.64784e-05
-6.46629e-06
4.06269e-05
-7.45588e-06
4.53064e-05
-8.46723e-06
5.06167e-05
-9.45958e-06
5.66781e-05
-1.03813e-05
6.3642e-05
-1.11671e-05
7.16885e-05
-1.1743e-05
7.97391e-05
-1.204e-05
8.12104e-05
-1.2065e-05
8.28443e-05
-1.18158e-05
8.4602e-05
-1.1307e-05
8.64292e-05
-1.05657e-05
8.8283e-05
-9.62955e-06
9.0113e-05
-1.0571e-05
9.71939e-05
-8.96308e-06
8.64529e-05
-7.47609e-06
7.6744e-05
-6.14223e-06
6.79949e-05
-4.97222e-06
6.00973e-05
-3.96445e-06
5.30427e-05
-3.10832e-06
4.67469e-05
-2.38916e-06
4.11043e-05
-1.7905e-06
3.60209e-05
-1.29579e-06
3.15034e-05
-8.89215e-07
2.74101e-05
-5.59123e-07
2.36634e-05
-2.98552e-07
1.97974e-05
-1.11533e-07
1.48279e-05
1.73568e-05
-1.53164e-06
2.76964e-05
-1.11818e-06
2.84792e-05
-7.88408e-07
2.92705e-05
-5.30827e-07
3.00703e-05
-3.34522e-07
3.08842e-05
-1.89995e-07
3.17118e-05
-8.90178e-08
3.25586e-05
-2.45842e-08
3.34241e-05
9.78984e-09
3.43078e-05
2.02269e-08
3.52191e-05
7.02619e-09
-1.98185e-06
1.9289e-05
-2.51016e-06
2.14379e-05
-3.12079e-06
2.38215e-05
-3.81764e-06
2.64716e-05
-4.60106e-06
2.94263e-05
-5.46702e-06
3.27262e-05
-6.40802e-06
3.64201e-05
-7.40883e-06
4.05798e-05
-8.44632e-06
4.52855e-05
-9.48617e-06
5.06433e-05
-1.0484e-05
5.67808e-05
-1.13823e-05
6.38572e-05
-1.21133e-05
7.20588e-05
-1.26024e-05
8.03015e-05
-1.27842e-05
8.19295e-05
-1.26792e-05
8.37077e-05
-1.22955e-05
8.55905e-05
-1.16555e-05
8.75191e-05
-1.07947e-05
8.94481e-05
-1.2076e-05
9.1618e-05
-1.05768e-05
9.88076e-05
-8.87454e-06
8.78514e-05
-7.33572e-06
7.79375e-05
-5.97995e-06
6.90026e-05
-4.80826e-06
6.09411e-05
-3.81128e-06
5.37457e-05
-2.97306e-06
4.73308e-05
-2.27507e-06
4.15888e-05
-1.69846e-06
3.64236e-05
-1.22527e-06
3.18395e-05
-8.38664e-07
2.76896e-05
-5.26454e-07
2.38913e-05
-2.80947e-07
1.99668e-05
-1.05095e-07
1.4933e-05
1.7334e-05
-1.95905e-06
2.76324e-05
-1.46772e-06
2.84306e-05
-1.06958e-06
2.92348e-05
-7.52665e-07
3.00453e-05
-5.05769e-07
3.08679e-05
-3.18246e-07
3.17025e-05
-1.80699e-07
3.25546e-05
-8.50185e-08
3.34238e-05
-2.43466e-08
3.43096e-05
7.94257e-09
3.52215e-05
1.77923e-08
3.6155e-05
6.04961e-09
-2.47992e-06
1.92588e-05
-3.08211e-06
2.13992e-05
-3.76997e-06
2.37739e-05
-4.54473e-06
2.64153e-05
-5.40382e-06
2.93631e-05
-6.34196e-06
3.26602e-05
-7.34715e-06
3.63585e-05
-8.40062e-06
4.05341e-05
-9.47362e-06
4.52729e-05
-1.05284e-05
5.06877e-05
-1.15145e-05
5.69131e-05
-1.23714e-05
6.41152e-05
-1.30296e-05
7.24859e-05
-1.34151e-05
8.09324e-05
-1.34682e-05
8.27186e-05
-1.32253e-05
8.46375e-05
-1.2703e-05
8.66379e-05
-1.19328e-05
8.86572e-05
-1.35654e-05
9.09376e-05
-1.2107e-05
9.31482e-05
-1.04909e-05
0.000100424
-8.71895e-06
8.92346e-05
-7.14813e-06
7.91056e-05
-5.78605e-06
6.99804e-05
-4.62423e-06
6.17541e-05
-3.64635e-06
5.4419e-05
-2.83154e-06
4.78873e-05
-2.15828e-06
4.20487e-05
-1.60591e-06
3.68042e-05
-1.15516e-06
3.2156e-05
-7.88932e-07
2.79521e-05
-4.94501e-07
2.41049e-05
-2.63719e-07
2.01254e-05
-9.87443e-08
1.50317e-05
1.73053e-05
-2.45122e-06
2.75486e-05
-1.87525e-06
2.83648e-05
-1.40199e-06
2.91846e-05
-1.01941e-06
3.00083e-05
-7.15701e-07
3.0842e-05
-4.79842e-07
3.16856e-05
-3.01345e-07
3.25448e-05
-1.70915e-07
3.34195e-05
-8.06432e-08
3.43091e-05
-2.3814e-08
3.52231e-05
6.31208e-09
3.61573e-05
1.5517e-08
3.65889e-05
5.16821e-09
-3.04502e-06
1.92217e-05
-3.72363e-06
2.13529e-05
-4.48889e-06
2.3718e-05
-5.33938e-06
2.63508e-05
-6.27153e-06
2.92927e-05
-7.27597e-06
3.2589e-05
-8.33754e-06
3.62954e-05
-9.43223e-06
4.04927e-05
-1.05282e-05
4.52727e-05
-1.15815e-05
5.07547e-05
-1.25385e-05
5.70803e-05
-1.33359e-05
6.44215e-05
-1.39036e-05
7.29745e-05
-1.41704e-05
8.16346e-05
-1.40846e-05
8.35778e-05
-1.36973e-05
8.56318e-05
-1.30352e-05
8.77403e-05
-1.50311e-05
9.01229e-05
-1.36317e-05
9.24623e-05
-1.20324e-05
9.46897e-05
-1.03246e-05
0.00010203
-8.50623e-06
9.05927e-05
-6.92221e-06
8.02418e-05
-5.56771e-06
7.09239e-05
-4.42575e-06
6.25335e-05
-3.47367e-06
5.50611e-05
-2.68669e-06
4.84157e-05
-2.04091e-06
4.24837e-05
-1.514e-06
3.71631e-05
-1.08636e-06
3.24534e-05
-7.40516e-07
2.81981e-05
-4.63511e-07
2.43047e-05
-2.47029e-07
2.02737e-05
-9.25624e-08
1.51243e-05
1.72701e-05
-3.00984e-06
2.74415e-05
-2.34411e-06
2.82792e-05
-1.78966e-06
2.91174e-05
-1.33474e-06
2.99569e-05
-9.68002e-07
3.08041e-05
-6.77793e-07
3.16589e-05
-4.53107e-07
3.25273e-05
-2.83798e-07
3.34092e-05
-1.60668e-07
3.43043e-05
-7.59102e-08
3.52223e-05
-2.29843e-08
3.61587e-05
4.89275e-09
3.6591e-05
1.34247e-08
3.55528e-05
4.40224e-09
-3.67918e-06
1.91772e-05
-4.43454e-06
2.12985e-05
-5.27531e-06
2.3654e-05
-6.19931e-06
2.62786e-05
-7.19923e-06
2.9216e-05
-8.26289e-06
3.25144e-05
-9.37029e-06
3.62334e-05
-1.04946e-05
4.04592e-05
-1.1598e-05
4.52891e-05
-1.26331e-05
5.08493e-05
-1.35432e-05
5.72876e-05
-1.42632e-05
6.47811e-05
-1.47242e-05
7.35283e-05
-1.48599e-05
8.24099e-05
-1.46262e-05
8.45068e-05
-1.40912e-05
8.66878e-05
-1.64629e-05
8.91721e-05
-1.51442e-05
9.16354e-05
-1.35788e-05
9.40086e-05
-1.18647e-05
9.62297e-05
-1.00894e-05
0.000103613
-8.2468e-06
9.19173e-05
-6.66636e-06
8.13404e-05
-5.33168e-06
7.18298e-05
-4.2177e-06
6.32775e-05
-3.29681e-06
5.56712e-05
-2.54108e-06
4.89159e-05
-1.92438e-06
4.28941e-05
-1.42387e-06
3.75006e-05
-1.0195e-06
3.27324e-05
-6.93728e-07
2.84283e-05
-4.33692e-07
2.44913e-05
-2.31002e-07
2.04121e-05
-8.66045e-08
1.52109e-05
1.72279e-05
-3.63699e-06
2.73083e-05
-2.87659e-06
2.81701e-05
-2.235e-06
2.90296e-05
-1.70191e-06
2.98881e-05
-1.26591e-06
3.07514e-05
-9.153e-07
3.162e-05
-6.38875e-07
3.24999e-05
-4.25681e-07
3.33911e-05
-2.65726e-07
3.42937e-05
-1.50013e-07
3.52172e-05
-7.08469e-08
3.61576e-05
-2.18833e-08
3.65922e-05
3.69018e-09
3.55546e-05
1.15756e-08
3.45447e-05
3.73476e-09
-4.38234e-06
1.9125e-05
-5.2128e-06
2.1236e-05
-6.12722e-06