/*--------------------------------*- C++ -*----------------------------------*\
  =========                 |
  \\      /  F ield         | OpenFOAM: The Open Source CFD Toolbox
   \\    /   O peration     | Website:  https://openfoam.org
    \\  /    A nd           | Version:  8
     \\/     M anipulation  |
\*---------------------------------------------------------------------------*/
FoamFile
{
    version     2.0;
    format      ascii;
    class       surfaceScalarField;
    location    "0.03";
    object      phi;
}
// * * * * * * * * * * * * * * * * * * * * * * * * * * * * * * * * * * * * * //

dimensions      [0 3 -1 0 0 0 0];

internalField   nonuniform List<scalar> 
31053
(
6.40182e-07
1.27398e-05
8.63233e-07
1.51569e-05
3.57473e-07
1.23823e-05
9.4891e-07
1.75543e-05
5.6775e-07
1.49467e-05
2.75369e-07
1.2107e-05
9.73628e-07
2.02153e-05
6.82606e-07
1.74395e-05
4.71388e-07
1.47507e-05
2.16883e-07
1.18901e-05
9.65053e-07
2.32486e-05
7.41461e-07
2.01564e-05
5.97516e-07
1.73133e-05
3.97431e-07
1.45701e-05
1.72569e-07
1.17175e-05
9.35166e-07
2.66899e-05
7.66665e-07
2.32234e-05
6.72887e-07
2.00811e-05
5.2509e-07
1.71857e-05
3.33552e-07
1.44091e-05
1.38383e-07
1.15791e-05
8.89763e-07
3.06654e-05
7.70008e-07
2.66865e-05
7.15224e-07
2.3181e-05
6.06461e-07
1.99997e-05
4.56146e-07
1.70631e-05
2.79634e-07
1.42679e-05
1.11535e-07
1.14676e-05
8.31921e-07
3.51978e-05
7.57953e-07
3.06775e-05
7.35437e-07
2.66663e-05
6.55086e-07
2.31324e-05
5.37667e-07
1.99182e-05
3.93313e-07
1.69494e-05
2.33055e-07
1.41464e-05
8.92672e-08
1.13783e-05
7.65449e-07
4.03865e-05
7.34698e-07
3.52211e-05
7.39992e-07
3.06729e-05
6.81038e-07
2.66404e-05
5.87206e-07
2.30829e-05
4.7131e-07
1.98402e-05
3.35186e-07
1.68473e-05
1.91373e-07
1.40442e-05
6.9758e-08
1.13086e-05
6.92972e-07
4.63525e-05
7.0138e-07
4.04198e-05
7.32785e-07
3.52283e-05
6.90319e-07
3.06636e-05
6.13787e-07
2.66138e-05
5.18529e-07
2.30357e-05
4.06665e-07
1.97687e-05
2.80038e-07
1.67586e-05
1.52796e-07
1.39612e-05
5.18661e-08
1.12567e-05
6.16314e-07
5.32167e-05
6.59502e-07
4.63944e-05
7.14128e-07
4.04384e-05
6.85854e-07
3.52328e-05
6.23331e-07
3.06541e-05
5.42616e-07
2.65897e-05
4.48848e-07
2.29935e-05
3.4255e-07
1.97062e-05
2.26484e-07
1.66849e-05
1.16051e-07
1.3897e-05
3.48859e-08
1.12218e-05
5.37417e-07
6.10589e-05
6.10891e-07
5.32653e-05
6.84427e-07
4.64241e-05
6.70547e-07
4.04538e-05
6.19221e-07
3.52369e-05
5.49344e-07
3.06473e-05
4.67836e-07
2.65707e-05
3.7738e-07
2.29586e-05
2.77842e-07
1.96548e-05
1.7348e-07
1.66275e-05
8.03093e-08
1.38516e-05
1.83851e-08
1.12034e-05
4.58111e-07
7.00613e-05
5.57123e-07
6.11127e-05
6.44795e-07
5.33049e-05
6.45388e-07
4.64492e-05
6.03717e-07
4.04693e-05
5.42192e-07
3.5244e-05
4.69017e-07
3.06462e-05
3.88986e-07
2.65591e-05
3.03089e-07
2.29334e-05
2.11625e-07
1.96167e-05
1.20347e-07
1.65875e-05
4.49502e-08
1.3825e-05
2.10872e-09
1.12013e-05
3.80044e-07
8.04101e-05
4.99617e-07
7.01188e-05
5.96494e-07
6.1161e-05
6.10421e-07
5.33399e-05
5.77944e-07
4.6475e-05
5.23141e-07
4.04883e-05
4.55786e-07
3.52573e-05
3.82182e-07
3.0653e-05
3.05068e-07
2.65571e-05
2.2508e-07
2.29199e-05
1.43328e-07
1.95937e-05
6.65003e-08
1.65659e-05
9.54738e-09
1.38176e-05
-1.42126e-08
1.12155e-05
3.17168e-07
7.62529e-05
4.39689e-07
8.047e-05
5.40978e-07
7.01743e-05
5.65964e-07
6.12054e-05
5.42181e-07
5.33756e-05
4.932e-07
4.65049e-05
4.30012e-07
4.05141e-05
3.60188e-07
3.52793e-05
2.87894e-07
3.06701e-05
2.15148e-07
2.65671e-05
1.4277e-07
2.29205e-05
7.24047e-08
1.95878e-05
1.15733e-08
1.65639e-05
-2.62286e-08
1.38296e-05
-3.07383e-08
1.12463e-05
2.63859e-07
7.62433e-05
3.88348e-07
7.63042e-05
4.79917e-07
8.05311e-05
5.12735e-07
7.02276e-05
4.96525e-07
6.12511e-05
4.52724e-07
5.34161e-05
3.92588e-07
4.65424e-05
3.2476e-07
4.05495e-05
2.54512e-07
3.53126e-05
1.8516e-07
3.07001e-05
1.18584e-07
2.65913e-05
5.55916e-08
2.29373e-05
-1.36882e-09
1.96007e-05
-4.46909e-08
1.65823e-05
-6.25294e-08
1.38614e-05
-4.73604e-08
1.12936e-05
2.18875e-07
7.6235e-05
3.41931e-07
7.62897e-05
4.2586e-07
7.63583e-05
4.5194e-07
8.05919e-05
4.41277e-07
7.02828e-05
4.01797e-07
6.1302e-05
3.43819e-07
5.34649e-05
2.76666e-07
4.65904e-05
2.06519e-07
4.05975e-05
1.37715e-07
3.53601e-05
7.32671e-08
3.07455e-05
1.47986e-08
2.66321e-05
-3.65967e-08
2.29725e-05
-7.80758e-08
1.96341e-05
-1.02324e-07
1.66221e-05
-9.91876e-08
1.39132e-05
-6.40928e-08
1.13577e-05
1.81122e-07
7.62298e-05
3.0005e-07
7.62769e-05
3.75698e-07
7.63399e-05
3.96479e-07
7.64137e-05
3.77278e-07
8.06558e-05
3.40562e-07
7.0344e-05
2.83782e-07
6.1362e-05
2.16112e-07
5.35254e-05
1.44532e-07
4.66524e-05
7.4185e-08
4.0661e-05
8.99918e-09
3.54244e-05
-4.83723e-08
3.08086e-05
-9.63405e-08
2.66918e-05
-1.33712e-07
2.30282e-05
-1.57569e-07
1.96894e-05
-1.60987e-07
1.66839e-05
-1.36061e-07
1.39852e-05
-8.09345e-08
1.14387e-05
1.49636e-07
7.62215e-05
2.62324e-07
7.62675e-05
3.29382e-07
7.63232e-05
3.44004e-07
7.63924e-05
3.18242e-07
7.64728e-05
2.69654e-07
8.07268e-05
2.12587e-07
7.04152e-05
1.43136e-07
6.1435e-05
6.86272e-08
5.36013e-05
-5.00693e-09
4.67316e-05
-7.31394e-08
4.07432e-05
-1.32243e-07
3.55082e-05
-1.79891e-07
3.08922e-05
-2.14606e-07
2.67727e-05
-2.35396e-07
2.3106e-05
-2.39256e-07
1.97676e-05
-2.20241e-07
1.67681e-05
-1.7303e-07
1.40773e-05
-9.75654e-08
1.15362e-05
1.23596e-07
7.6216e-05
2.28404e-07
7.62554e-05
2.86791e-07
7.63101e-05
2.94898e-07
7.63723e-05
2.62035e-07
7.64486e-05
2.04152e-07
7.65383e-05
1.30838e-07
8.08085e-05
5.78577e-08
7.05005e-05
-2.12195e-08
6.15249e-05
-9.99502e-08
5.36963e-05
-1.72972e-07
4.68315e-05
-2.36086e-07
4.0847e-05
-2.86128e-07
3.56145e-05
-3.20901e-07
3.09985e-05
-3.39413e-07
2.68767e-05
-3.40783e-07
2.32075e-05
-3.22312e-07
1.98697e-05
-2.79698e-07
1.68748e-05
-2.09508e-07
1.41892e-05
-1.1354e-07
1.16498e-05
1.02138e-07
7.62115e-05
1.97928e-07
7.62465e-05
2.47783e-07
7.62944e-05
2.49331e-07
7.63556e-05
2.09334e-07
7.6425e-05
1.4179e-07
7.65109e-05
5.56677e-08
7.66134e-05
-3.90434e-08
8.09054e-05
-1.24871e-07
7.06042e-05
-2.10752e-07
6.16357e-05
-2.90795e-07
5.38141e-05
-3.60025e-07
4.69554e-05
-4.14742e-07
4.09756e-05
-4.52085e-07
3.57456e-05
-4.70582e-07
3.11296e-05
-4.69608e-07
2.70055e-05
-4.48647e-07
2.33339e-05
-4.05921e-07
1.99959e-05
-3.38428e-07
1.70037e-05
-2.44665e-07
1.43204e-05
-1.28633e-07
1.17784e-05
8.5778e-08
6.95984e-05
1.70614e-07
7.62388e-05
2.12193e-07
7.62821e-05
2.07379e-07
7.63364e-05
1.60523e-07
7.64044e-05
8.34887e-08
7.64833e-05
-1.56103e-08
7.65822e-05
-1.27515e-07
7.67019e-05
-2.41502e-07
8.1022e-05
-3.37259e-07
7.07307e-05
-4.26825e-07
6.17717e-05
-5.04609e-07
5.39587e-05
-5.66218e-07
4.71069e-05
-6.08332e-07
4.11319e-05
-6.29047e-07
3.59041e-05
-6.27475e-07
3.12875e-05
-6.03545e-07
2.71604e-05
-5.5765e-07
2.34856e-05
-4.88695e-07
2.01462e-05
-3.95198e-07
1.71542e-05
-2.77953e-07
1.44697e-05
-1.42708e-07
1.19211e-05
7.32552e-08
6.25565e-05
1.48254e-07
6.96207e-05
1.79909e-07
7.62711e-05
1.69064e-07
7.63204e-05
1.15828e-07
7.63811e-05
2.98307e-08
7.64581e-05
-8.18732e-08
7.65496e-05
-2.1092e-07
7.66656e-05
-3.47229e-07
7.68076e-05
-4.78455e-07
8.11632e-05
-5.80904e-07
7.08848e-05
-6.70199e-07
6.19373e-05
-7.4141e-07
5.41339e-05
-7.90555e-07
4.72891e-05
-8.15537e-07
4.13184e-05
-8.15216e-07
3.60918e-05
-7.89482e-07
3.14734e-05
-7.39347e-07
2.73421e-05
-6.65868e-07
2.36628e-05
-5.69004e-07
2.032e-05
-4.49138e-07
1.73254e-05
-3.09005e-07
1.4636e-05
-1.55542e-07
1.20767e-05
6.34985e-08
5.62278e-05
1.30119e-07
6.25747e-05
1.53246e-07
6.96474e-05
1.34405e-07
7.63057e-05
7.53918e-08
7.63609e-05
-1.88066e-08
7.64297e-05
-1.42349e-07
7.65186e-05
-2.87949e-07
7.66266e-05
-4.46316e-07
7.67647e-05
-6.05671e-07
7.69349e-05
-7.51797e-07
8.13341e-05
-8.56651e-07
7.10712e-05
-9.40869e-07
6.21367e-05
-9.99979e-07
5.43433e-05
-1.03147e-06
4.7505e-05
-1.03418e-06
4.15373e-05
-1.00801e-06
3.63104e-05
-9.54177e-07
3.16883e-05
-8.74556e-07
2.75508e-05
-7.71281e-07
2.3865e-05
-6.45561e-07
2.05164e-05
-4.99506e-07
1.75159e-05
-3.37283e-07
1.48177e-05
-1.6687e-07
1.22435e-05
5.57831e-08
5.05397e-05
1.15303e-07
5.62426e-05
1.31495e-07
6.25964e-05
1.0595e-07
6.96758e-05
3.93103e-08
7.63418e-05
-6.2172e-08
7.64042e-05
-1.96501e-07
7.64839e-05
-3.57639e-07
7.65883e-05
-5.37262e-07
7.67175e-05
-7.24294e-07
7.68833e-05
-9.05041e-07
7.70881e-05
-1.06249e-06
8.154e-05
-1.1645e-06
7.12948e-05
-1.23739e-06
6.23742e-05
-1.2785e-06
5.45903e-05
-1.28636e-06
4.77572e-05
-1.26116e-06
4.17905e-05
-1.20444e-06
3.65606e-05
-1.11857e-06
3.19323e-05
-1.0067e-06
2.77862e-05
-8.72055e-07
2.40915e-05
-7.17159e-07
2.07341e-05
-5.45349e-07
1.7724e-05
-3.62275e-07
1.50131e-05
-1.76547e-07
1.24201e-05
4.96019e-08
4.54262e-05
1.03108e-07
5.05519e-05
1.13659e-07
5.62604e-05
8.2959e-08
6.26194e-05
1.02073e-08
6.97049e-05
-1.00094e-07
7.63797e-05
-2.43962e-07
7.64517e-05
-4.19284e-07
7.65455e-05
-6.18899e-07
7.66699e-05
-8.32607e-07
7.68258e-05
-1.04738e-06
7.70257e-05
-1.24645e-06
7.72721e-05
-1.4106e-06
8.17861e-05
-1.50279e-06
7.15602e-05
-1.55773e-06
6.26534e-05
-1.57392e-06
5.48779e-05
-1.55154e-06
4.80476e-05
-1.4929e-06
4.20789e-05
-1.40094e-06
3.6843e-05
-1.27966e-06
3.22052e-05
-1.13334e-06
2.80475e-05
-9.66474e-07
2.43408e-05
-7.82423e-07
2.09711e-05
-5.85963e-07
1.79477e-05
-3.83668e-07
1.52202e-05
-1.84443e-07
1.26045e-05
4.45907e-08
4.0831e-05
9.29933e-08
4.54363e-05
9.89497e-08
5.05666e-05
6.4353e-08
5.6279e-05
-1.28056e-08
6.26424e-05
-1.29878e-07
6.97347e-05
-2.84473e-07
7.64202e-05
-4.72379e-07
7.65048e-05
-6.9033e-07
7.66169e-05
-9.29213e-07
7.67665e-05
-1.17685e-06
7.69553e-05
-1.41686e-06
7.71961e-05
-1.63005e-06
7.74915e-05
-1.79428e-06
8.20776e-05
-1.86929e-06
7.18718e-05
-1.89832e-06
6.29778e-05
-1.88192e-06
5.52083e-05
-1.82287e-06
4.83776e-05
-1.72522e-06
4.24032e-05
-1.59397e-06
3.71573e-05
-1.43438e-06
3.25063e-05
-1.25223e-06
2.83333e-05
-1.05277e-06
2.46112e-05
-8.40377e-07
2.12256e-05
-6.20845e-07
1.81849e-05
-4.01214e-07
1.5437e-05
-1.90202e-07
1.27947e-05
4.04825e-08
3.67001e-05
8.45502e-08
4.08395e-05
8.67552e-08
4.54485e-05
4.92668e-08
5.05817e-05
-3.0957e-08
5.62972e-05
-1.52663e-07
6.26652e-05
-3.1525e-07
6.97655e-05
-5.16563e-07
7.64644e-05
-7.50892e-07
7.65653e-05
-1.013e-06
7.67007e-05
-1.29178e-06
7.68814e-05
-1.57145e-06
7.71099e-05
-1.83303e-06
7.73991e-05
-2.05393e-06
7.77512e-05
-2.21113e-06
8.24194e-05
-2.25996e-06
7.22334e-05
-2.25425e-06
6.33501e-05
-2.19778e-06
5.55832e-05
-2.09547e-06
4.87478e-05
-1.95392e-06
4.27632e-05
-1.77972e-06
3.75027e-05
-1.57994e-06
3.2834e-05
-1.36118e-06
2.86417e-05
-1.12959e-06
2.49004e-05
-8.90289e-07
2.1495e-05
-6.49551e-07
1.84332e-05
-4.14456e-07
1.56613e-05
-1.9313e-07
1.29879e-05
3.70783e-08
3.29894e-05
7.74723e-08
3.67072e-05
7.66007e-08
4.08496e-05
3.70161e-08
4.54607e-05
-4.52397e-08
5.0596e-05
-1.69918e-07
5.63144e-05
-3.37785e-07
6.26877e-05
-5.48918e-07
6.97979e-05
-8.00098e-07
7.65136e-05
-1.08312e-06
7.66355e-05
-1.39081e-06
7.67998e-05
-1.70829e-06
7.70183e-05
-2.01694e-06
7.72938e-05
-2.29397e-06
7.76391e-05
-2.51559e-06
7.80556e-05
-2.65673e-06
8.28162e-05
-2.66923e-06
7.26484e-05
-2.6201e-06
6.37724e-05
-2.5158e-06
5.60035e-05
-2.36436e-06
4.91583e-05
-2.17444e-06
4.31579e-05
-1.95483e-06
3.78776e-05
-1.71364e-06
3.31865e-05
-1.4584e-06
2.89705e-05
-1.19588e-06
2.5206e-05
-9.3149e-07
2.17769e-05
-6.71523e-07
1.86903e-05
-4.21955e-07
1.58901e-05
-1.76282e-07
1.31641e-05
3.42307e-08
2.96508e-05
7.15165e-08
3.29954e-05
6.8121e-08
3.67157e-05
2.70408e-08
4.08596e-05
-5.64521e-08
4.5472e-05
-1.82833e-07
5.06089e-05
-3.53882e-07
5.63305e-05
-5.7139e-07
6.27102e-05
-8.3482e-07
6.98326e-05
-1.13893e-06
7.65694e-05
-1.47288e-06
7.67175e-05
-1.8257e-06
7.69172e-05
-2.17947e-06
7.71808e-05
-2.51144e-06
7.75113e-05
-2.79719e-06
7.79207e-05
-3.01038e-06
7.84093e-05
-3.1248e-06
8.32717e-05
-3.09098e-06
7.31193e-05
-2.98936e-06
6.4246e-05
-2.83024e-06
5.64694e-05
-2.62424e-06
4.96081e-05
-2.38282e-06
4.35859e-05
-2.11608e-06
3.828e-05
-1.83325e-06
3.35613e-05
-1.54251e-06
2.93171e-05
-1.25079e-06
2.55253e-05
-9.63317e-07
2.20687e-05
-6.8549e-07
1.89538e-05
-4.20656e-07
1.61345e-05
-1.57691e-07
1.33218e-05
3.18289e-08
2.66504e-05
6.64852e-08
2.96559e-05
6.10231e-08
3.30025e-05
1.8882e-08
3.67238e-05
-6.52379e-08
4.08684e-05
-1.92366e-07
4.54815e-05
-3.64999e-07
5.062e-05
-5.8622e-07
5.63453e-05
-8.57573e-07
6.2733e-05
-1.177e-06
6.98706e-05
-1.53714e-06
7.66337e-05
-1.92236e-06
7.68142e-05
-2.31865e-06
7.70563e-05
-2.70363e-06
7.7373e-05
-3.05254e-06
7.77666e-05
-3.33788e-06
7.82482e-05
-3.53141e-06
7.88159e-05
-3.60856e-06
8.37893e-05
-3.51789e-06
7.36478e-05
-3.35546e-06
6.47712e-05
-3.13497e-06
5.69801e-05
-2.8705e-06
5.00957e-05
-2.57524e-06
4.4045e-05
-2.26076e-06
3.87075e-05
-1.93705e-06
3.39559e-05
-1.61242e-06
2.96788e-05
-1.29355e-06
2.58555e-05
-9.84858e-07
2.23681e-05
-6.90708e-07
1.92238e-05
-4.13161e-07
1.63899e-05
-1.75679e-07
1.34975e-05
2.97887e-08
2.3956e-05
6.22128e-08
2.66547e-05
5.50652e-08
2.96618e-05
1.21754e-08
3.30092e-05
-7.21151e-08
3.67307e-05
-1.99279e-07
4.08753e-05
-3.72304e-07
4.54888e-05
-5.95219e-07
5.0629e-05
-8.71145e-07
5.63589e-05
-1.20051e-06
6.27565e-05
-1.57976e-06
6.99133e-05
-1.99719e-06
7.67085e-05
-2.43281e-06
7.69283e-05
-2.86817e-06
7.72209e-05
-3.27852e-06
7.7599e-05
-3.63537e-06
7.80641e-05
-3.90876e-06
7.86256e-05
-4.07151e-06
7.92788e-05
-4.09994e-06
8.43714e-05
-3.94254e-06
7.42349e-05
-3.71137e-06
6.53476e-05
-3.4246e-06
5.75342e-05
-3.09855e-06
5.0619e-05
-2.74841e-06
4.45327e-05
-2.38671e-06
3.91572e-05
-2.02365e-06
3.43671e-05
-1.66727e-06
3.00525e-05
-1.32353e-06
2.61942e-05
-9.95638e-07
2.2673e-05
-6.8972e-07
1.95004e-05
-4.88005e-07
1.67023e-05
-1.54703e-07
1.36522e-05
2.80451e-08
2.15337e-05
5.85649e-08
2.39597e-05
5.00445e-08
2.66597e-05
6.63972e-09
2.96674e-05
-7.74948e-08
3.30145e-05
-2.04175e-07
3.67356e-05
-3.76722e-07
4.08797e-05
-5.99828e-07
4.54934e-05
-8.77785e-07
5.06357e-05
-1.21294e-06
5.63713e-05
-1.6047e-06
6.27814e-05
-2.04578e-06
6.99619e-05
-2.52063e-06
7.67963e-05
-3.00303e-06
7.70632e-05
-3.47229e-06
7.74146e-05
-3.89926e-06
7.78629e-05
-4.25246e-06
7.84078e-05
-4.50233e-06
7.90564e-05
-4.62198e-06
7.98009e-05
-4.59061e-06
8.50194e-05
-4.35685e-06
7.48804e-05
-4.0508e-06
6.59738e-05
-3.69368e-06
5.81293e-05
-3.30447e-06
5.11751e-05
-2.8997e-06
4.50457e-05
-2.49225e-06
3.96258e-05
-2.09208e-06
3.47919e-05
-1.7066e-06
3.04355e-05
-1.34041e-06
2.6539e-05
-9.98077e-07
2.29814e-05
-8.37573e-07
1.985e-05
-4.597e-07
1.70073e-05
-1.46889e-07
1.37991e-05
2.65472e-08
1.93535e-05
5.54354e-08
2.15369e-05
4.57934e-08
2.39639e-05
2.05785e-09
2.66643e-05
-8.16981e-08
2.96716e-05
-2.07531e-07
3.30179e-05
-3.7898e-07
3.67379e-05
-6.01186e-07
4.08811e-05
-8.79284e-07
4.54949e-05
-1.21705e-06
5.06398e-05
-1.61622e-06
5.63829e-05
-2.073e-06
6.28086e-05
-2.5769e-06
7.00181e-05
-3.10653e-06
7.68998e-05
-3.63137e-06
7.72223e-05
-4.12621e-06
7.76416e-05
-4.55836e-06
7.81688e-05
-4.89612e-06
7.88016e-05
-5.10942e-06
7.95438e-05
-5.17375e-06
8.0384e-05
-5.07137e-06
8.5734e-05
-4.75356e-06
7.55831e-05
-4.36736e-06
6.66475e-05
-3.9376e-06
5.87625e-05
-3.48512e-06
5.17605e-05
-3.02708e-06
4.55805e-05
-2.57623e-06
4.01099e-05
-2.14199e-06
3.52273e-05
-1.73027e-06
3.08254e-05
-1.34623e-06
2.68871e-05
-1.22276e-06
2.33666e-05
-8.10165e-07
2.02004e-05
-4.39589e-07
1.73e-05
-1.41479e-07
1.39406e-05
1.73973e-05
2.52546e-08
5.27399e-08
1.93562e-05
4.21772e-08
2.15405e-05
-1.74365e-09
2.39677e-05
-8.49757e-08
2.66676e-05
-2.09717e-07
2.96738e-05
-3.79645e-07
3.30186e-05
-6.00182e-07
3.67369e-05
-8.77049e-07
4.08788e-05
-1.21507e-06
4.54929e-05
-1.61773e-06
5.06413e-05
-2.08401e-06
5.63939e-05
-2.6075e-06
6.28392e-05
-3.1725e-06
7.00841e-05
-3.75369e-06
7.70222e-05
-4.31326e-06
7.74093e-05
-4.82258e-06
7.79058e-05
-5.24816e-06
7.85208e-05
-5.55686e-06
7.9249e-05
-5.72038e-06
8.00904e-05
-5.71669e-06
8.10293e-05
-5.53395e-06
8.65144e-05
-5.12526e-06
7.6341e-05
-4.65564e-06
6.73655e-05
-4.15261e-06
5.943e-05
-3.63804e-06
5.23715e-05
-3.12921e-06
4.61335e-05
-2.63837e-06
4.06063e-05
-2.17337e-06
3.56704e-05
-1.73999e-06
3.12192e-05
-1.6556e-06
2.732e-05
-1.19438e-06
2.37508e-05
-7.82987e-07
2.05438e-05
-4.20359e-07
1.75788e-05
-1.35915e-07
1.40765e-05
1.73996e-05
5.04065e-08
2.78121e-05
2.31479e-08
3.90878e-08
1.93593e-05
-4.90687e-09
2.15437e-05
-8.7524e-08
2.39703e-05
-2.11021e-07
2.66689e-05
-3.79156e-07
2.96733e-05
-5.97506e-07
3.30159e-05
-8.72177e-07
3.6732e-05
-1.20874e-06
4.08725e-05
-1.61197e-06
4.54872e-05
-2.08298e-06
5.06403e-05
-2.61862e-06
5.6405e-05
-3.20787e-06
6.28746e-05
-3.83176e-06
7.01622e-05
-4.45782e-06
7.71667e-05
-5.0416e-06
7.76284e-05
-5.55392e-06
7.82116e-05
-5.95894e-06
7.89229e-05
-6.22456e-06
7.97532e-05
-6.32429e-06
8.0698e-05
-6.24168e-06
8.17371e-05
-5.96983e-06
8.73589e-05
-5.4656e-06
7.7151e-05
-4.91117e-06
6.81241e-05
-4.33573e-06
6.01276e-05
-3.76163e-06
5.30039e-05
-3.20576e-06
4.67009e-05
-2.67874e-06
4.11117e-05
-2.1877e-06
3.61181e-05
-2.14473e-06
3.17083e-05
-1.62406e-06
2.77497e-05
-1.16091e-06
2.41287e-05
-7.52846e-07
2.08763e-05
-4.00651e-07
1.78436e-05
-1.302e-07
1.42067e-05
1.74023e-05
3.64393e-08
2.78159e-05
4.66319e-08
2.8552e-05
2.1138e-08
-7.54757e-09
1.93619e-05
-8.9497e-08
2.15456e-05
-2.11668e-07
2.39709e-05
-3.77852e-07
2.66676e-05
-5.93687e-07
2.96695e-05
-8.65511e-07
3.30092e-05
-1.1994e-06
3.67226e-05
-1.60107e-06
4.08616e-05
-2.07324e-06
4.54774e-05
-2.6153e-06
5.06369e-05
-3.21999e-06
5.64171e-05
-3.87368e-06
6.29165e-05
-4.55082e-06
7.02552e-05
-5.21224e-06
7.73374e-05
-5.80923e-06
7.78837e-05
-6.31049e-06
7.85631e-05
-6.68036e-06
7.93787e-05
-6.88774e-06
8.03167e-05
-6.91129e-06
8.13676e-05
-6.73918e-06
8.25064e-05
-6.37156e-06
8.82649e-05
-5.76928e-06
7.80091e-05
-5.13033e-06
6.89187e-05
-4.48501e-06
6.0851e-05
-3.85544e-06
5.36536e-05
-3.25683e-06
4.72789e-05
-2.69864e-06
4.16226e-05
-2.70083e-06
3.66742e-05
-2.1091e-06
3.21933e-05
-1.58266e-06
2.81714e-05
-1.12114e-06
2.4497e-05
-7.20175e-07
2.11959e-05
-3.80965e-07
1.80943e-05
-1.24394e-07
1.43311e-05
1.74045e-05
-9.76203e-09
2.78196e-05
3.26989e-08
2.85556e-05
4.29997e-08
2.93119e-05
1.92279e-08
-9.10167e-08
1.93634e-05
-2.1183e-07
2.15458e-05
-3.75993e-07
2.39691e-05
-5.89129e-07
2.6663e-05
-8.57697e-07
2.96616e-05
-1.18809e-06
3.29979e-05
-1.58669e-06
3.67083e-05
-2.05739e-06
4.08457e-05
-2.60153e-06
4.54636e-05
-3.21485e-06
5.06318e-05
-3.88804e-06
5.64315e-05
-4.60146e-06
6.29672e-05
-5.32341e-06
7.03663e-05
-6.01024e-06
7.75384e-05
-6.6066e-06
7.81798e-05
-7.08187e-06
7.89646e-05
-7.40048e-06
7.98914e-05
-7.53588e-06
8.09413e-05
-7.47089e-06
8.20994e-05
-7.20075e-06
8.33356e-05
-6.73285e-06
8.92284e-05
-6.03188e-06
7.89107e-05
-5.31071e-06
6.97444e-05
-4.59978e-06
6.15954e-05
-3.91951e-06
5.43163e-05
-3.28361e-06
4.78639e-05
-3.33574e-06
4.22575e-05
-2.66062e-06
3.72257e-05
-2.05855e-06
3.26692e-05
-1.53187e-06
2.85821e-05
-1.07625e-06
2.48531e-05
-6.8628e-07
2.15012e-05
-3.61334e-07
1.83313e-05
-1.18442e-07
1.44495e-05
1.74057e-05
-9.21797e-08
2.78217e-05
-1.18717e-08
2.85592e-05
2.91814e-08
2.93154e-05
3.95148e-08
3.00898e-05
1.74185e-08
-2.11643e-07
1.93633e-05
-3.73774e-07
2.15436e-05
-5.84136e-07
2.39641e-05
-8.49221e-07
2.66545e-05
-1.1756e-06
2.96492e-05
-1.57009e-06
3.29813e-05
-2.03744e-06
3.66883e-05
-2.58047e-06
4.08247e-05
-3.19723e-06
4.5446e-05
-3.88188e-06
5.06256e-05
-4.61971e-06
5.64497e-05
-5.38546e-06
6.30292e-05
-6.1434e-06
7.04995e-05
-6.84266e-06
7.77744e-05
-7.4234e-06
7.85213e-05
-7.85589e-06
7.94201e-05
-8.10832e-06
8.04639e-05
-8.15767e-06
8.1628e-05
-7.9937e-06
8.28923e-05
-7.6191e-06
8.42219e-05
-7.0483e-06
9.02449e-05
-6.25036e-06
7.98503e-05
-5.45131e-06
7.05959e-05
-4.67996e-06
6.23558e-05
-3.95494e-06
5.49876e-05
-4.06316e-06
4.85913e-05
-3.29063e-06
4.28875e-05
-2.60006e-06
3.77672e-05
-1.99511e-06
3.31325e-05
-1.47342e-06
2.89793e-05
-1.02813e-06
2.51949e-05
-6.51622e-07
2.17915e-05
-3.41606e-07
1.85545e-05
-1.12232e-07
1.45618e-05
1.74052e-05
-2.11208e-07
2.78206e-05
-9.10043e-08
2.8561e-05
-1.37036e-08
2.93187e-05
2.58856e-08
3.00931e-05
3.6179e-08
3.08897e-05
1.571e-08
-3.71345e-07
1.93608e-05
-5.78933e-07
2.15384e-05
-8.40443e-07
2.39553e-05
-1.16253e-06
2.66414e-05
-1.55224e-06
2.96313e-05
-2.01496e-06
3.29588e-05
-2.55456e-06
3.66624e-05
-3.17088e-06
4.07983e-05
-3.86085e-06
4.5425e-05
-4.61373e-06
5.06197e-05
-5.40974e-06
5.6474e-05
-6.2201e-06
6.31059e-05
-7.00212e-06
7.0659e-05
-7.69951e-06
7.80505e-05
-8.24748e-06
7.89129e-05
-8.62131e-06
7.9933e-05
-8.79192e-06
8.10981e-05
-8.74287e-06
8.23772e-05
-8.47146e-06
8.37447e-05
-7.98786e-06
8.51614e-05
-7.31402e-06
9.13085e-05
-6.42323e-06
8.08222e-05
-5.55179e-06
7.14678e-05
-4.72652e-06
6.31274e-05
-4.89892e-06
5.58234e-05
-4.01304e-06
4.93138e-05
-3.21925e-06
4.35067e-05
-2.52256e-06
3.82947e-05
-1.92124e-06
3.35803e-05
-1.40964e-06
2.93608e-05
-9.77825e-07
2.55211e-05
-6.16419e-07
2.20663e-05
-3.22084e-07
1.87643e-05
-1.05923e-07
1.46677e-05
1.74027e-05
-3.68815e-07
2.78145e-05
-2.05168e-07
2.85594e-05
-8.94448e-08
2.93202e-05
-1.52444e-08
3.00962e-05
2.28164e-08
3.08929e-05
3.2997e-08
3.17096e-05
1.41009e-08
-5.73687e-07
1.93556e-05
-8.3163e-07
2.15296e-05
-1.14929e-06
2.39421e-05
-1.53387e-06
2.66231e-05
-1.99111e-06
2.96075e-05
-2.52567e-06
3.29299e-05
-3.13876e-06
3.66303e-05
-3.82939e-06
4.07669e-05
-4.5901e-06
4.54014e-05
-5.40561e-06
5.06155e-05
-6.25311e-06
5.6507e-05
-7.09728e-06
6.32011e-05
-7.89005e-06
7.08495e-05
-8.56883e-06
7.83719e-05
-9.06749e-06
7.93591e-05
-9.36565e-06
8.05068e-05
-9.44025e-06
8.17955e-05
-9.2823e-06
8.31881e-05
-8.89684e-06
8.46536e-05
-8.3023e-06
8.61497e-05
-7.52785e-06
9.24131e-05
-6.54973e-06
8.18202e-05
-5.61295e-06
7.23542e-05
-5.86101e-06
6.40895e-05
-4.84406e-06
5.66544e-05
-3.93004e-06
5.00245e-05
-3.1262e-06
4.41104e-05
-2.4314e-06
3.88048e-05
-1.83981e-06
3.40105e-05
-1.34221e-06
2.97252e-05
-9.26151e-07
2.58309e-05
-5.81191e-07
2.23254e-05
-3.02725e-07
1.89611e-05
-9.96702e-08
1.47674e-05
1.73975e-05
-5.68519e-07
2.78019e-05
-3.56221e-07
2.85529e-05
-1.98634e-07
2.93183e-05
-8.75146e-08
3.00975e-05
-1.64932e-08
3.08957e-05
1.99726e-08
3.17126e-05
2.99725e-08
3.25535e-05
1.25934e-08
-8.22972e-07
1.93469e-05
-1.13621e-06
2.15165e-05
-1.51548e-06
2.39237e-05
-1.96676e-06
2.65987e-05
-2.49523e-06
2.9577e-05
-3.10309e-06
3.28943e-05
-3.791e-06
3.65919e-05
-4.55405e-06
4.07308e-05
-5.38065e-06
4.53764e-05
-6.25304e-06
5.06155e-05
-7.14234e-06
5.65521e-05
-8.00807e-06
6.33191e-05
-8.79564e-06
7.10763e-05
-9.43945e-06
7.87439e-05
-9.87063e-06
7.98641e-05
-1.00772e-05
8.11438e-05
-1.00433e-05
8.25565e-05
-9.76763e-06
8.40589e-05
-9.26419e-06
8.56155e-05
-8.55955e-06
8.71814e-05
-7.68851e-06
9.35519e-05
-6.6304e-06
8.28376e-05
-6.96867e-06
7.34619e-05
-5.8023e-06
6.50477e-05
-4.7488e-06
5.74731e-05
-3.81991e-06
5.07183e-05
-3.01575e-06
4.46947e-05
-2.33015e-06
3.92952e-05
-1.75315e-06
3.44214e-05
-1.2725e-06
3.00716e-05
-8.73999e-07
2.61237e-05
-5.46257e-07
2.25689e-05
-2.83455e-07
1.91449e-05
-9.34386e-08
1.48608e-05
1.73891e-05
-8.14603e-07
2.77808e-05
-5.47432e-07
2.85396e-05
-3.42944e-07
2.93112e-05
-1.91553e-07
3.00951e-05
-8.51838e-08
3.08967e-05
-1.74508e-08
3.17153e-05
1.73544e-08
3.25564e-05
2.71029e-08
3.34194e-05
1.11838e-08
-1.12352e-06
1.93342e-05
-1.49746e-06
2.14985e-05
-1.94254e-06
2.38995e-05
-2.46428e-06
2.65678e-05
-3.06559e-06
2.95395e-05
-3.74835e-06
3.28516e-05
-4.50967e-06
3.65475e-05
-5.34093e-06
4.06911e-05
-6.22854e-06
4.53519e-05
-7.14917e-06
5.06223e-05
-8.0691e-06
5.66131e-05
-8.94142e-06
6.34649e-05
-9.70803e-06
7.13449e-05
-1.02985e-05
7.91717e-05
-1.06448e-05
8.04316e-05
-1.07453e-05
8.18458e-05
-1.05917e-05
8.33806e-05
-1.01922e-05
8.49869e-05
-9.56981e-06
8.66258e-05
-8.75773e-06
8.82506e-05
-7.79611e-06
9.47176e-05
-8.24392e-06
8.41129e-05
-6.90799e-06
7.45675e-05
-5.69444e-06
6.59934e-05
-4.62001e-06
5.82732e-05
-3.68796e-06
5.13905e-05
-2.89227e-06
4.52569e-05
-2.22185e-06
3.97639e-05
-1.66325e-06
3.48121e-05
-1.20182e-06
3.03994e-05
-8.22091e-07
2.63995e-05
-5.11856e-07
2.27973e-05
-2.64663e-07
1.93161e-05
-8.73233e-08
1.49481e-05
1.7377e-05
-1.11135e-06
2.7749e-05
-7.82752e-07
2.85177e-05
-5.25501e-07
2.92973e-05
-3.29027e-07
3.00876e-05
-1.84004e-07
3.0894e-05
-8.24749e-08
3.17159e-05
-1.81151e-08
3.25588e-05
1.49616e-08
3.34221e-05
2.43928e-08
3.43053e-05
9.87106e-09
-1.48008e-06
1.93168e-05
-1.91891e-06
2.14748e-05
-2.4336e-06
2.38688e-05
-3.02752e-06
2.65297e-05
-3.70348e-06
2.94946e-05
-4.46013e-06
3.28021e-05
-5.29121e-06
3.64978e-05
-6.18656e-06
4.06491e-05
-7.1275e-06
4.53302e-05
-8.08628e-06
5.06395e-05
-9.02296e-06
5.66947e-05
-9.88694e-06
6.36438e-05
-1.06145e-05
7.16609e-05
-1.11335e-05
7.96604e-05
-1.13786e-05
8.10649e-05
-1.13596e-05
8.26136e-05
-1.10779e-05
8.42662e-05
-1.05515e-05
8.59685e-05
-9.81101e-06
8.76791e-05
-8.89636e-06
8.93509e-05
-9.71169e-06
9.61854e-05
-8.18521e-06
8.53901e-05
-6.78799e-06
7.56611e-05
-5.5455e-06
6.69189e-05
-4.46414e-06
5.90494e-05
-3.5395e-06
5.20377e-05
-2.7596e-06
4.57946e-05
-2.10918e-06
4.02098e-05
-1.57187e-06
3.51822e-05
-1.13129e-06
3.07086e-05
-7.71023e-07
2.66587e-05
-4.78398e-07
2.3011e-05
-2.46615e-07
1.94754e-05
-8.14068e-08
1.50295e-05
1.73604e-05
-1.4635e-06
2.7704e-05
-1.06641e-06
2.84848e-05
-7.49849e-07
2.92745e-05
-5.02671e-07
3.0073e-05
-3.14419e-07
3.08859e-05
-1.7594e-07
3.17128e-05
-7.93823e-08
3.25591e-05
-1.84934e-08
3.34243e-05
1.2789e-08
3.43079e-05
2.18407e-08
3.52192e-05
8.65399e-09
-1.8962e-06
1.92941e-05
-2.40373e-06
2.1445e-05
-2.98982e-06
2.38311e-05
-3.65791e-06
2.64841e-05
-4.40783e-06
2.94423e-05
-5.23519e-06
3.27461e-05
-6.13258e-06
3.64438e-05
-7.08521e-06
4.06068e-05
-8.07043e-06
4.53144e-05
-9.05458e-06
5.06711e-05
-9.99408e-06
5.68018e-05
-1.08322e-05
6.38615e-05
-1.15025e-05
7.20299e-05
-1.19326e-05
8.02145e-05
-1.20608e-05
8.17662e-05
-1.19114e-05
8.34472e-05
-1.14962e-05
8.5211e-05
-1.08418e-05
8.69993e-05
-9.98666e-06
8.87694e-05
-1.11048e-05
9.0744e-05
-9.66249e-06
9.76627e-05
-8.05539e-06
8.66575e-05
-6.61805e-06
7.67336e-05
-5.36323e-06
6.78179e-05
-4.2876e-06
5.97975e-05
-3.37928e-06
5.26574e-05
-2.62115e-06
4.63066e-05
-1.99441e-06
4.06323e-05
-1.48052e-06
3.55314e-05
-1.06185e-06
3.09994e-05
-7.21312e-07
2.69016e-05
-4.46249e-07
2.32107e-05
-2.29425e-07
1.96234e-05
-7.57355e-08
1.51053e-05
1.73388e-05
-1.87459e-06
2.76431e-05
-1.40255e-06
2.84386e-05
-1.02018e-06
2.92406e-05
-7.15942e-07
3.00493e-05
-4.79016e-07
3.08707e-05
-2.99186e-07
3.17043e-05
-1.67397e-07
3.25557e-05
-7.59209e-08
3.34244e-05
-1.85864e-08
3.43098e-05
1.08332e-08
3.52216e-05
1.94432e-08
3.61551e-05
7.52948e-09
-2.37505e-06
1.92655e-05
-2.95313e-06
2.14083e-05
-3.61274e-06
2.37859e-05
-4.35458e-06
2.64309e-05
-5.1757e-06
2.93828e-05
-6.07089e-06
3.26844e-05
-7.02858e-06
3.63872e-05
-8.03041e-06
4.05668e-05
-9.04821e-06
4.5308e-05
-1.00448e-05
5.07218e-05
-1.09704e-05
5.694e-05
-1.17649e-05
6.41238e-05
-1.236e-05
7.24573e-05
-1.26842e-05
8.08378e-05
-1.26821e-05
8.25368e-05
-1.23944e-05
8.43453e-05
-1.18421e-05
8.62113e-05
-1.10612e-05
8.80738e-05
-1.24945e-05
9.0159e-05
-1.10731e-05
9.21546e-05
-9.52805e-06
9.91354e-05
-7.86517e-06
8.79046e-05
-6.40736e-06
7.77778e-05
-5.15531e-06
6.86856e-05
-4.09619e-06
6.05144e-05
-3.21157e-06
5.32478e-05
-2.47983e-06
4.6792e-05
-1.8795e-06
4.10313e-05
-1.39049e-06
3.586e-05
-9.94159e-07
3.12723e-05
-6.73458e-07
2.71288e-05
-4.15599e-07
2.33969e-05
-2.13133e-07
1.97608e-05
-7.0344e-08
1.51756e-05
1.73116e-05
-2.34781e-06
2.75631e-05
-1.79456e-06
2.83759e-05
-1.33989e-06
2.91928e-05
-9.72426e-07
3.00142e-05
-6.80863e-07
3.08462e-05
-4.5453e-07
3.16884e-05
-2.83354e-07
3.25467e-05
-1.58387e-07
3.34206e-05
-7.20977e-08
3.43096e-05
-1.83997e-08
3.52234e-05
9.08577e-09
3.61574e-05
1.71968e-08
3.6589e-05
6.50866e-09
-2.91793e-06
1.92302e-05
-3.56877e-06
2.13643e-05
-4.30171e-06
2.3733e-05
-5.11487e-06
2.63701e-05
-6.00481e-06
2.93168e-05
-6.96253e-06
3.26183e-05
-7.9733e-06
3.63301e-05
-9.01366e-06
4.05323e-05
-1.00522e-05
4.53154e-05
-1.10455e-05
5.0797e-05
-1.194e-05
5.71152e-05
-1.26728e-05
6.44366e-05
-1.31749e-05
7.2948e-05
-1.33777e-05
8.15334e-05
-1.32348e-05
8.33772e-05
-1.28026e-05
8.53058e-05
-1.21128e-05
8.72629e-05
-1.38748e-05
8.94542e-05
-1.24902e-05
9.15761e-05
-1.09424e-05
9.3569e-05
-9.32042e-06
0.000100591
-7.62508e-06
8.91223e-05
-6.16502e-06
7.87875e-05
-4.92874e-06
6.95182e-05
-3.89515e-06
6.1198e-05
-3.03995e-06
5.38079e-05
-2.33807e-06
4.72506e-05
-1.76611e-06
4.14069e-05
-1.30265e-06
3.61685e-05
-9.28891e-07
3.15277e-05
-6.27756e-07
2.7341e-05
-3.86521e-07
2.35702e-05
-1.97773e-07
1.98882e-05
-6.52543e-08
1.52409e-05
1.72781e-05
-2.8845e-06
2.74607e-05
-2.24544e-06
2.82942e-05
-1.71285e-06
2.91287e-05
-1.27573e-06
2.99653e-05
-9.23482e-07
3.08102e-05
-6.4488e-07
3.16632e-05
-4.29271e-07
3.25302e-05
-2.66905e-07
3.34111e-05
-1.48931e-07
3.43055e-05
-6.79294e-08
3.52229e-05
-1.79362e-08
3.61589e-05
7.53741e-09
3.65911e-05
1.51227e-08
3.55529e-05
5.61836e-09
-3.52656e-06
1.9188e-05
-4.25016e-06
2.13128e-05
-5.05428e-06
2.36724e-05
-5.93682e-06
2.63021e-05
-6.89088e-06
2.92451e-05
-7.9047e-06
3.25497e-05
-8.95885e-06
3.62753e-05
-1.00269e-05
4.0507e-05
-1.10715e-05
4.53413e-05
-1.20451e-05
5.0902e-05
-1.28908e-05
5.73332e-05
-1.35436e-05
6.48053e-05
-1.3936e-05
7.35063e-05
-1.40047e-05
8.23034e-05
-1.37121e-05
8.42867e-05
-1.31325e-05
8.63255e-05
-1.52383e-05
8.86264e-05
-1.39099e-05
9.08738e-05
-1.23732e-05
9.30069e-05
-1.07259e-05
9.49745e-05
-9.05167e-06
0.000102017
-7.34573e-06
9.03031e-05
-5.89938e-06
7.97581e-05
-4.68991e-06
7.0313e-05
-3.68891e-06
6.1847e-05
-2.8675e-06
5.43374e-05
-2.19803e-06
4.76825e-05
-1.65536e-06
4.17597e-05
-1.21784e-06
3.64575e-05
-8.6646e-07
3.17664e-05
-5.84328e-07
2.75388e-05
-3.59072e-07
2.37315e-05
-1.83362e-07
2.00064e-05
-6.04738e-08
1.53013e-05
1.7238e-05
-3.48646e-06
2.73333e-05
-2.75713e-06
2.81899e-05
-2.1412e-06
2.90448e-05
-1.62901e-06
2.98996e-05
-1.21006e-06
3.076e-05
-8.73297e-07
3.16262e-05
-6.07929e-07
3.25043e-05
-4.0335e-07
3.33942e-05
-2.49953e-07
3.42956e-05
-1.3908e-07
3.52184e-05
-6.3438e-08
3.61582e-05
-1.71942e-08
3.65924e-05
6.19654e-09
3.55547e-05
1.32787e-08
3.45448e-05
4.84017e-09
-4.20061e-06
1.91385e-05
-4.99507e-06
2.12535e-05
-5.86879e-06