/*--------------------------------*- C++ -*----------------------------------*\
  =========                 |
  \\      /  F ield         | OpenFOAM: The Open Source CFD Toolbox
   \\    /   O peration     | Website:  https://openfoam.org
    \\  /    A nd           | Version:  8
     \\/     M anipulation  |
\*---------------------------------------------------------------------------*/
FoamFile
{
    version     2.0;
    format      ascii;
    class       volScalarField;
    location    "0.28";
    object      k;
}
// * * * * * * * * * * * * * * * * * * * * * * * * * * * * * * * * * * * * * //

dimensions      [0 2 -2 0 0 0 0];

internalField   nonuniform List<scalar> 
15677
(
0.333994
0.364682
0.29434
0.368614
0.357021
0.280632
0.370641
0.359745
0.365645
0.282421
0.371857
0.361481
0.361176
0.383035
0.288665
0.372596
0.363665
0.35759
0.368114
0.401533
0.30016
0.373032
0.365622
0.357771
0.358023
0.379975
0.419284
0.311713
0.37326
0.367161
0.359419
0.354513
0.36094
0.39321
0.434704
0.322533
0.373348
0.368293
0.361331
0.354727
0.353002
0.366836
0.406109
0.447824
0.332041
0.373349
0.369076
0.363049
0.356311
0.351084
0.353453
0.373515
0.418218
0.458684
0.340425
0.373314
0.369565
0.364432
0.358201
0.351905
0.34876
0.354755
0.380653
0.429048
0.467826
0.347509
0.373274
0.369824
0.365456
0.359949
0.353699
0.348365
0.347129
0.35709
0.387618
0.43876
0.475339
0.353726
0.373248
0.369927
0.366144
0.36139
0.355652
0.349753
0.345342
0.34631
0.359684
0.394393
0.447171
0.481751
0.358907
0.373237
0.36994
0.366545
0.362474
0.357416
0.351714
0.346196
0.342919
0.345875
0.362579
0.40063
0.45462
0.487049
0.36357
0.373237
0.369922
0.366733
0.363208
0.358852
0.353677
0.348063
0.343089
0.340854
0.345888
0.365437
0.406474
0.46095
0.491601
0.367632
0.373238
0.369907
0.366791
0.363634
0.359911
0.355388
0.350149
0.344748
0.340285
0.339188
0.346019
0.368328
0.411638
0.466532
0.495381
0.371226
0.373239
0.369899
0.366792
0.363832
0.360604
0.356736
0.352082
0.34688
0.341693
0.337818
0.337733
0.346345
0.370993
0.416387
0.471168
0.498719
0.374517
0.37324
0.369896
0.366782
0.363889
0.360986
0.357691
0.353684
0.348979
0.343828
0.338925
0.335576
0.33652
0.34673
0.373595
0.420415
0.475237
0.501597
0.377319
0.37324
0.369894
0.366775
0.363897
0.361135
0.358278
0.354884
0.350799
0.346059
0.341021
0.336373
0.333591
0.33544
0.347236
0.375845
0.424036
0.478582
0.504135
0.380161
0.37324
0.369893
0.36677
0.363892
0.361179
0.358547
0.355677
0.352225
0.348069
0.34335
0.338417
0.334073
0.331774
0.334567
0.347658
0.377948
0.426981
0.481502
0.506486
0.382371
0.37324
0.369892
0.366767
0.363885
0.361185
0.358651
0.356077
0.353223
0.349701
0.345524
0.34083
0.336052
0.331954
0.330197
0.333761
0.348127
0.379654
0.42959
0.483891
0.508496
0.385018
0.37324
0.369891
0.366764
0.363879
0.361179
0.358683
0.356251
0.353769
0.35089
0.347347
0.343157
0.338532
0.333878
0.330089
0.328765
0.33312
0.348469
0.381197
0.431591
0.485966
0.510612
0.386774
0.37324
0.36989
0.366763
0.363875
0.361172
0.358686
0.356316
0.354031
0.351572
0.348725
0.345158
0.340994
0.336436
0.331965
0.32841
0.327566
0.332523
0.348815
0.382349
0.433378
0.487676
0.512282
0.389405
0.37324
0.369889
0.366762
0.363871
0.361166
0.35868
0.356333
0.354145
0.351918
0.349559
0.346707
0.343162
0.339047
0.334601
0.330263
0.327005
0.326515
0.332087
0.349054
0.383388
0.43461
0.489189
0.514419
0.390839
0.37324
0.369888
0.366761
0.363868
0.361161
0.358671
0.35633
0.354183
0.35208
0.350009
0.347668
0.344892
0.341391
0.337346
0.332997
0.328871
0.32583
0.325745
0.331717
0.349281
0.384061
0.435804
0.490421
0.515835
0.393476
0.37324
0.369888
0.36676
0.363865
0.361157
0.358662
0.356322
0.354188
0.352144
0.350234
0.348202
0.346013
0.343287
0.339847
0.335919
0.331754
0.327766
0.324978
0.325119
0.331501
0.349473
0.384728
0.436472
0.491706
0.518353
0.394868
0.373241
0.369888
0.36676
0.363863
0.361154
0.358655
0.356313
0.354178
0.352161
0.350331
0.348482
0.346666
0.34452
0.341927
0.338651
0.334861
0.330775
0.326986
0.32439
0.324906
0.331531
0.349726
0.385102
0.437315
0.492548
0.52001
0.505192
0.373241
0.369888
0.366759
0.363862
0.361151
0.358648
0.356304
0.354165
0.352157
0.350359
0.348613
0.347023
0.345244
0.343356
0.340929
0.337724
0.334078
0.330314
0.326768
0.324402
0.325005
0.331684
0.349973
0.385541
0.437694
0.494461
0.528709
0.713772
0.373241
0.369887
0.366759
0.36386
0.361149
0.358644
0.356297
0.354151
0.352145
0.350355
0.348663
0.347192
0.345655
0.344237
0.342442
0.340186
0.33737
0.334078
0.330425
0.326963
0.324653
0.325342
0.332038
0.350348
0.38586
0.438516
0.494975
0.54557
0.892622
0.373241
0.369887
0.366759
0.363859
0.361147
0.35864
0.356291
0.354139
0.35213
0.350338
0.348671
0.347255
0.345871
0.344748
0.343363
0.342006
0.340217
0.337563
0.334398
0.330901
0.32755
0.325294
0.326046
0.332725
0.350867
0.386263
0.439114
0.494689
0.558651
1.03825
0.373241
0.369887
0.366758
0.363859
0.361146
0.358637
0.356286
0.35413
0.352117
0.350317
0.348658
0.347262
0.345968
0.345002
0.343917
0.343183
0.342168
0.340594
0.338197
0.335248
0.331951
0.328751
0.326538
0.327258
0.333757
0.351584
0.386889
0.438859
0.493226
0.568508
1.16548
0.373241
0.369887
0.366758
0.363858
0.361145
0.358634
0.356282
0.354122
0.352106
0.350298
0.348637
0.347242
0.345996
0.345107
0.344253
0.343911
0.343432
0.342755
0.341537
0.339525
0.336914
0.333848
0.330692
0.328421
0.328935
0.335184
0.352604
0.387408
0.437974
0.49015
0.575332
1.26985
0.373241
0.369887
0.366758
0.363857
0.361144
0.358632
0.356278
0.354116
0.352096
0.350281
0.348616
0.347213
0.345987
0.345131
0.344423
0.344298
0.344226
0.344172
0.344005
0.343373
0.341805
0.339496
0.336557
0.333397
0.330936
0.331161
0.337039
0.353871
0.387864
0.436151
0.484832
0.579903
1.34781
0.373241
0.369887
0.366758
0.363857
0.361143
0.35863
0.356275
0.35411
0.352087
0.350267
0.348596
0.347184
0.345961
0.345114
0.344486
0.344494
0.344685
0.345083
0.345678
0.346257
0.346213
0.345078
0.343036
0.340192
0.336904
0.334179
0.333944
0.33936
0.355394
0.388002
0.43306
0.478209
0.582825
1.40798
0.373241
0.369887
0.366758
0.363856
0.361142
0.358629
0.356273
0.354106
0.35208
0.350255
0.348579
0.347158
0.34593
0.34508
0.344491
0.344573
0.344928
0.345642
0.346793
0.348229
0.349563
0.350171
0.349467
0.347668
0.344809
0.341323
0.338162
0.337348
0.342134
0.357115
0.387906
0.428989
0.471567
0.585329
1.45638
0.369887
0.373245
0.366758
0.363856
0.361142
0.358627
0.35627
0.354102
0.352073
0.350245
0.348564
0.347135
0.345901
0.345041
0.344465
0.344588
0.345041
0.345959
0.347512
0.349581
0.351911
0.354103
0.3554
0.355123
0.353475
0.350534
0.346675
0.342966
0.341342
0.345361
0.35931
0.387617
0.424805
0.465354
0.587741
1.49696
0.366758
0.369897
0.373252
0.363856
0.361141
0.358626
0.356268
0.354098
0.352068
0.350236
0.34855
0.347116
0.345874
0.345005
0.344429
0.344569
0.345078
0.346125
0.347954
0.350489
0.353572
0.356927
0.360058
0.362075
0.362157
0.360597
0.357399
0.353056
0.348556
0.345961
0.349344
0.36202
0.387261
0.420761
0.459752
0.590574
1.53231
0.363856
0.366774
0.369918
0.37326
0.361141
0.358625
0.356267
0.354096
0.352063
0.350229
0.348539
0.347099
0.34585
0.344973
0.344392
0.344536
0.345075
0.346204
0.348217
0.351089
0.354739
0.358991
0.363484
0.367628
0.370339
0.370729
0.369084
0.365519
0.360433
0.354976
0.351779
0.354299
0.365103
0.386948
0.416981
0.454862
0.593616
1.56394
0.36114
0.363877
0.366808
0.369939
0.373267
0.358624
0.356266
0.354093
0.352059
0.350223
0.348529
0.347084
0.34583
0.344945
0.344358
0.344502
0.345055
0.346234
0.348373
0.351487
0.355562
0.360506
0.366071
0.371811
0.376991
0.380377
0.380912
0.379075
0.374863
0.368864
0.362991
0.359129
0.359785
0.368394
0.387005
0.413638
0.45067
0.597169
1.59298
0.358624
0.361167
0.363922
0.366843
0.369961
0.373275
0.356264
0.354091
0.352055
0.350217
0.34852
0.347072
0.345812
0.34492
0.344328
0.34447
0.34503
0.346241
0.348466
0.351763
0.356161
0.361642
0.368053
0.375072
0.382119
0.388358
0.392292
0.392867
0.390541
0.385514
0.379352
0.373053
0.367305
0.36576
0.372132
0.3873
0.410654
0.447111
0.600839
1.61988
0.356263
0.358655
0.361223
0.363968
0.366878
0.369984
0.373284
0.354089
0.352052
0.350212
0.348513
0.347061
0.345796
0.344899
0.344301
0.344442
0.345007
0.34624
0.348526
0.351963
0.356626
0.362535
0.369626
0.377676
0.38624
0.394653
0.401866
0.406268
0.406576
0.403598
0.398736
0.392473
0.384213
0.37623
0.37214
0.375984
0.387929
0.408215
0.444029
0.604889
1.64522
0.354087
0.356299
0.358719
0.36128
0.364015
0.366915
0.370007
0.373292
0.35205
0.350208
0.348506
0.347052
0.345782
0.34488
0.344278
0.344417
0.344986
0.346236
0.34857
0.352117
0.357001
0.363283
0.370941
0.379848
0.389668
0.399873
0.409592
0.417737
0.422308
0.422182
0.419792
0.415261
0.406995
0.39636
0.3858
0.378976
0.379978
0.388974
0.406227
0.441488
0.608912
1.66899
0.352048
0.354125
0.356371
0.358785
0.361338
0.364064
0.366952
0.370031
0.373301
0.350205
0.3485
0.347044
0.345769
0.344865
0.344258
0.344395
0.344967
0.346233
0.348607
0.352247
0.357313
0.363928
0.37211
0.381759
0.392653
0.404377
0.416201
0.427222
0.436011
0.440598
0.44154
0.440022
0.433525
0.42277
0.40937
0.395939
0.386182
0.384148
0.3903
0.404686
0.439318
0.613174
1.69161
0.350201
0.352088
0.354205
0.356446
0.358853
0.361398
0.364114
0.36699
0.370056
0.37331
0.348495
0.347038
0.345758
0.344852
0.344241
0.344377
0.344952
0.346231
0.34864
0.352361
0.357586
0.364489
0.373165
0.383536
0.395392
0.408453
0.422095
0.435573
0.447627
0.456956
0.463347
0.465763
0.462373
0.453335
0.439634
0.423118
0.406552
0.39368
0.38848
0.391892
0.403568
0.437597
0.617296
1.71287
0.348491
0.350243
0.352174
0.354286
0.356523
0.358923
0.36146
0.364165
0.36703
0.370081
0.373319
0.347031
0.345748
0.34484
0.344225
0.34436
0.344938
0.34623
0.348671
0.352464
0.357832
0.364992
0.374113
0.385196
0.398031
0.412331
0.427614
0.443255
0.458124
0.471152
0.483152
0.491968
0.492587
0.486628
0.474488
0.457417
0.437467
0.417536
0.401402
0.392949
0.39358
0.40284
0.436153
0.621556
1.73317
0.347026
0.348533
0.350332
0.352261
0.35437
0.356602
0.358995
0.361523
0.364218
0.36707
0.370107
0.373328
0.34574
0.344831
0.344212
0.344346
0.344927
0.34623
0.3487
0.352559
0.358056
0.365451
0.374977
0.386719
0.400567
0.416185
0.433031
0.450676
0.468068
0.484323
0.500746
0.516349
0.523888
0.521823
0.512559
0.496778
0.475938
0.452273
0.428792
0.409278
0.397569
0.39537
0.402388
0.435056
0.6256
1.75219
0.345733
0.347066
0.348622
0.350423
0.352352
0.354457
0.356684
0.359068
0.361588
0.364272
0.367112
0.370133
0.373338
0.344823
0.344199
0.344334
0.344917
0.346231
0.348727
0.352646
0.358261
0.365872
0.375773
0.388127
0.40294
0.419976
0.438551
0.458168
0.477953
0.497158
0.517528
0.538587
0.553655
0.558899
0.55325
0.539951
0.519988
0.495012
0.467397
0.440219
0.417248
0.402288
0.397253
0.40221
0.434151
0.629715
1.77038
0.344817
0.345766
0.347152
0.348714
0.350517
0.352445
0.354546
0.356768
0.359144
0.361655
0.364327
0.367155
0.37016
0.373347
0.344186
0.344323
0.344909
0.346233
0.348752
0.352727
0.358449
0.366259
0.376508
0.389436
0.405165
0.42358
0.44409
0.465995
0.488193
0.51027
0.534356
0.56046
0.581547
0.594945
0.59678
0.586619
0.568574
0.543907
0.514463
0.482702
0.451722
0.425252
0.407063
0.399213
0.402257
0.433516
0.633568
1.78732
0.344176
0.344845
0.345841
0.347241
0.34881
0.350614
0.352542
0.354637
0.356854
0.359222
0.361724
0.364384
0.367199
0.370187
0.373356
0.344312
0.344902
0.346235
0.348776
0.3528
0.358621
0.366614
0.377185
0.390652
0.407252
0.426993
0.44944
0.474023
0.499121
0.524189
0.552036
0.583115
0.609832
0.629663
0.640094
0.637305
0.621653
0.598178
0.568324
0.534124
0.498063
0.463215
0.433237
0.411853
0.401236
0.402395
0.433017
0.637456
1.80356
0.344306
0.344178
0.344906
0.345918
0.347334
0.348909
0.350714
0.352641
0.354732
0.356943
0.359302
0.361795
0.364442
0.367242
0.370213
0.373365
0.344895
0.346236
0.348798
0.352868
0.358778
0.36694
0.377808
0.39178
0.409204
0.43022
0.454579
0.481906
0.510511
0.539376
0.571315
0.607695
0.640103
0.666008
0.683046
0.68902
0.68025
0.658086
0.62852
0.593057
0.553847
0.513371
0.474621
0.441151
0.416626
0.403301
0.402655
0.432747
0.641053
1.81857
0.344892
0.344291
0.344187
0.34497
0.346
0.34743
0.349013
0.350817
0.352744
0.354828
0.357035
0.359384
0.361867
0.3645
0.367284
0.370239
0.373374
0.346237
0.348817
0.352929
0.358922
0.367238
0.37838
0.392822
0.411023
0.433263
0.459496
0.489557
0.521831
0.555586
0.592918
0.63534
0.674079
0.706359
0.729679
0.742019
0.741723
0.725427
0.695676
0.659368
0.617929
0.5735
0.528528
0.485873
0.448952
0.421352
0.405406
0.403001
0.432549
0.64467
1.83299
0.346244
0.344847
0.344258
0.344197
0.345037
0.346089
0.347529
0.349121
0.350923
0.35285
0.354928
0.357129
0.359468
0.361939
0.364556
0.367325
0.370263
0.373382
0.348832
0.352984
0.359052
0.367509
0.378903
0.393783
0.412712
0.436119
0.464175
0.496935
0.532972
0.572122
0.616527
0.667228
0.713753
0.753701
0.7839
0.802125
0.807156
0.798307
0.772699
0.734214
0.690523
0.642777
0.592966
0.543449
0.496912
0.4566
0.426004
0.407528
0.40341
0.43252
0.647977
1.84624
0.348854
0.346153
0.344742
0.344221
0.344224
0.345107
0.346184
0.347632
0.349232
0.351033
0.352959
0.355031
0.357225
0.359552
0.362009
0.364611
0.367364
0.370287
0.37339
0.353031
0.359169
0.367756
0.379382
0.394666
0.414276
0.438789
0.4686
0.504007
0.543899
0.588773
0.640937
0.703171
0.761807
0.812219
0.851243
0.875848
0.885026
0.879151
0.858913
0.821949
0.773515
0.721808
0.667463
0.612147
0.558066
0.507689
0.464064
0.430564
0.40965
0.403868
0.432553
0.651307
1.85898
0.353087
0.348688
0.345934
0.344629
0.344185
0.344269
0.345178
0.346286
0.347738
0.349348
0.351145
0.353072
0.355136
0.35732
0.359633
0.362076
0.364664
0.367403
0.370311
0.373398
0.359272
0.367979
0.379818
0.395476
0.415718
0.441274
0.472764
0.510754
0.554561
0.605354
0.665717
0.742034
0.819783
0.88803
0.939593
0.972389
0.985291
0.979791
0.958485
0.923573
0.873031
0.8134
0.753066
0.691865
0.630963
0.572323
0.518167
0.471317
0.435011
0.411756
0.404369
0.432633
0.65432
1.8692
0.359383
0.35283
0.348277
0.345704
0.34453
0.344145
0.344329
0.345252
0.346393
0.347848
0.349468
0.351262
0.353187
0.35524
0.357413
0.359712
0.362142
0.364715
0.36744
0.370333
0.373406
0.368178
0.380213
0.396217
0.417046
0.44358
0.476667
0.517162
0.564888
0.621665
0.690802
0.784194
0.887217
0.984788
1.05866
1.10311
1.12061
1.11359
1.08677
1.04508
0.99208
0.925729
0.853683
0.784157
0.715876
0.649344
0.586174
0.528316
0.478339
0.439331
0.41383
0.404895
0.432785
0.656945
1.87782
0.36838
0.359007
0.352163
0.347848
0.345498
0.344441
0.34411
0.3444
0.345329
0.346506
0.347962
0.349592
0.351382
0.353301
0.355342
0.357503
0.359789
0.362206
0.364766
0.367477
0.370355
0.373414
0.38057
0.396891
0.418266
0.445714
0.480312
0.523222
0.574812
0.637582
0.716344
0.830145
0.9639
1.09894
1.21042
1.27843
1.30352
1.29503
1.25952
1.20489
1.13818
1.06392
0.979725
0.894164
0.814945
0.739405
0.66723
0.599584
0.538112
0.485114
0.443513
0.415864
0.405444
0.432947
0.659091
1.88711
0.380919
0.367851
0.357976
0.351472
0.347455
0.345309
0.344359
0.344083
0.344478
0.345412
0.346624
0.348081
0.349719
0.351501
0.353412
0.355441
0.35759
0.359864
0.362268
0.364814
0.367512
0.370377
0.373421
0.397504
0.419381
0.447685
0.483709
0.528926
0.584289
0.653065
0.742512
0.879695
1.04807
1.22551
1.38314
1.49431
1.54208
1.53534
1.49105
1.41967
1.3319
1.2364
1.13833
1.03461
0.934621
0.845305
0.762377
0.684578
0.612526
0.547537
0.491631
0.447547
0.417847
0.405929
0.43311
0.661466
1.89727
0.398086
0.380196
0.366312
0.356914
0.350829
0.347087
0.345132
0.344286
0.344065
0.344563
0.345501
0.346746
0.348205
0.349845
0.351618
0.35352
0.355538
0.357675
0.359937
0.362328
0.364862
0.367546
0.370398
0.373424
0.420402
0.449497
0.486864
0.534277
0.5933
0.668127
0.769325
0.931934
1.13674
1.35864
1.56632
1.73005
1.82531
1.83948
1.79032
1.70239
1.58964
1.46493
1.33802
1.21435
1.08992
0.974819
0.875113
0.784727
0.701348
0.62498
0.556582
0.497882
0.451426
0.419518
0.406362
0.43331
0.664028
1.9083
0.421348
0.397126
0.377948
0.364733
0.355919
0.350218
0.34674
0.344968
0.344224
0.344058
0.344653
0.345598
0.346871
0.34833
0.349968
0.351733
0.353625
0.355632
0.357758
0.360007
0.362387
0.364908
0.36758
0.370408
0.373424
0.451171
0.489785
0.539279
0.601848
0.682788
0.79662
0.985604
1.22688
1.49299
1.75161
1.97176
2.12554
2.19098
2.16021
2.06014
1.9228
1.76499
1.60105
1.44126
1.29098
1.14514
1.01452
0.904258
0.806399
0.717513
0.636932
0.565241
0.503862
0.454656
0.420961
0.406856
0.43357
0.66689
1.92043
0.452691
0.420104
0.393898
0.37566
0.36325
0.354966
0.349633
0.346413
0.344816
0.344172
0.344064
0.344745
0.345704
0.346996
0.348453
0.350087
0.351844
0.353727
0.355724
0.357838
0.360076
0.362444
0.364953
0.367596
0.370408
0.373424
0.492499
0.543943
0.609947
0.69705
0.824111
1.03946
1.31602
1.62468
1.93307
2.2103
2.42703
2.55686
2.58049
2.49525
2.33767
2.14687
1.94182
1.73761
1.54445
1.36726
1.19979
1.0535
0.932633
0.827344
0.733051
0.648377
0.57351
0.508818
0.457422
0.422569
0.40743
0.433888
0.669964
1.93359
0.49492
0.451091
0.415521
0.390641
0.373505
0.361825
0.354049
0.349072
0.346106
0.344677
0.344132
0.344085
0.344838
0.345815
0.347117
0.348575
0.350204
0.351954
0.353826
0.355813
0.357916
0.360143
0.362499
0.364975
0.367596
0.370408
0.373424
0.548307
0.617617
0.710901
0.851472
1.09248
1.40247
1.75125
2.10698
2.43968
2.72014
2.91982
3.01347
2.98481
2.83722
2.61712
2.37025
2.11699
1.87244
1.64617
1.44234
1.25343
1.09154
0.960145
0.847525
0.747951
0.65931
0.580352
0.513051
0.460481
0.424367
0.408092
0.434289
0.673412
1.9481
0.552155
0.492884
0.444637
0.410939
0.387567
0.371428
0.360446
0.353165
0.348535
0.345823
0.344551
0.344101
0.344132
0.344929
0.345929
0.347235
0.348695
0.350317
0.35206
0.353923
0.3559
0.357992
0.360208
0.362526
0.364975
0.367596
0.370408
0.373424
0.624909
0.724331
0.878401
1.14386
1.48514
1.8713
2.27128
2.65638
2.99859
3.26925
3.43985
3.4864
3.39642
3.18009
2.89393
2.58962
2.28813
2.00386
1.74528
1.51553
1.30568
1.12847
0.986716
0.866916
0.762202
0.668361
0.586189
0.517715
0.46387
0.426382
0.408868
0.43477
0.677123
1.96383
0.631347
0.54955
0.483807
0.438247
0.40661
0.384599
0.369415
0.359114
0.352314
0.348019
0.34556
0.344436
0.344064
0.344199
0.345016
0.346044
0.34735
0.348812
0.350427
0.352164
0.354017
0.355984
0.358066
0.360241
0.362526
0.364975
0.367596
0.370408
0.373424
0.737338
0.90466
1.19308
1.56337
1.98412
2.425
2.85861
3.2587
3.59798
3.84735
3.97805
3.9678
3.80887
3.51896
3.16457
2.8025
2.45348
2.13065
1.84097
1.58627
1.35621
1.16414
1.01228
0.885492
0.774011
0.676083
0.592616
0.522865
0.467631
0.428645
0.409765
0.435369
0.681316
1.98121
0.748866
0.628041
0.536656
0.474931
0.432204
0.402425
0.381717
0.367463
0.357826
0.351496
0.347529
0.345317
0.344334
0.34403
0.344277
0.345103
0.346159
0.347463
0.348927
0.350535
0.352265
0.354108
0.356067
0.358103
0.360241
0.362526
0.364975
0.367596
0.370408
0.373421
0.930053
1.23981
1.63685
2.08941
2.5678
3.0457
3.49868
3.90172
4.22728
4.44512
4.52616
4.45064
4.21662
3.84986
3.42638
3.00711
2.61184
2.25197
1.93262
1.65416
1.40481
1.19842
1.0368
0.900903
0.784093
0.68459
0.599704
0.528559
0.471815
0.431193
0.410822
0.436025
0.685834
1.99998
0.744806
0.952393
0.60892
0.524312
0.466521
0.426356
0.398357
0.378919
0.365574
0.356586
0.350714
0.347068
0.345097
0.344247
0.344006
0.344361
0.345191
0.346273
0.347575
0.34904
0.35064
0.352364
0.354197
0.356107
0.358103
0.360241
0.362526
0.364975
0.367596
0.370398
0.373413
1.28384
1.70548
2.18717
2.69973
3.21765
3.71804
4.17845
4.57426
4.87672
5.05384
5.07653
4.92861
4.61499
4.16967
3.67738
3.20225
2.76247
2.3673
2.01985
1.71894
1.45131
1.23124
1.05714
0.91407
0.795204
0.693974
0.607534
0.534865
0.476477
0.434071
0.412046
0.436798
0.690978
2.02077
0.714771
0.94833
1.32178
0.591182
0.512647
0.458376
0.420668
0.394402
0.376207
0.363751
0.355395
0.34997
0.346642
0.344905
0.344176
0.343995
0.344446
0.34528
0.346385
0.347684
0.34915
0.350742
0.35246
0.354241
0.356107
0.358103
0.360241
0.362526
0.364975
0.36758
0.370377
0.373406
1.76924
2.27759
2.82112
3.37489
3.91718
4.42784
4.8858
5.26591
5.53714
5.66531
5.62204
5.3961
5.00008
4.47597
3.91623
3.38718
2.90493
2.47635
2.10246
1.78046
1.49558
1.25841
1.07452
0.928589
0.807467
0.704342
0.616197
0.541864
0.481685
0.437328
0.413493
0.437658
0.696526
2.04313
0.687234
0.900622
1.31789
1.82362
0.574685
0.501342
0.450452
0.415136
0.390566
0.373585
0.361996
0.354257
0.349272
0.346261
0.344739
0.344121
0.343997
0.344532
0.345371
0.346494
0.347792
0.349257
0.350843
0.352507
0.354241
0.356107
0.358103
0.360241
0.362526
0.364952
0.367546
0.370355
0.373398
2.36089
2.93247
3.51814
4.09703
4.6508
5.16174
5.60948
5.96704
6.19994
6.27178
6.15618
5.84825
5.36876
4.76704
4.14209
3.56153
3.03904
2.57903
2.18037
1.83863
1.53204
1.28157
1.09368
0.944622
0.821023
0.715817
0.625799
0.549646
0.487516
0.44103
0.415175
0.438686
0.702898
2.06794
0.661995
0.855578
1.24878
1.82088
2.43124
0.558872
0.490333
0.442749
0.409766
0.386853
0.371057
0.360313
0.353181
0.348637
0.345927
0.344597
0.34408
0.34401
0.344616
0.345464
0.346601
0.347898
0.349362
0.350892
0.352507
0.354241
0.356107
0.358103
0.360241
0.362499
0.364907
0.367511
0.370333
0.37339
3.03429
3.64837
4.25889
4.84896
5.40365
5.90741
6.33928
6.6688
6.85703
6.86605
6.6731
6.281
5.71865
5.04175
4.35451
3.72516
3.16482
2.67539
2.25361
1.88622
1.56302
1.30705
1.11481
0.962347
0.836028
0.728536
0.636464
0.558317
0.494062
0.445245
0.417173
0.439852
0.709772
2.0944
0.638312
0.813431
1.18087
1.73287
2.43059
3.11957
0.543572
0.479623
0.435277
0.404569
0.383272
0.36863
0.358717
0.352195
0.348071
0.345634
0.344476
0.344052
0.344039
0.344697
0.345558
0.346706
0.348003
0.349414
0.350891
0.352507
0.354241
0.356107
0.358103
0.360208
0.362443
0.36486
0.367476
0.37031
0.373382
3.76646
4.40436
5.02448
5.61415
6.1621
6.65387
7.06614
7.36306
7.50086
7.44143
7.1677
6.69112
6.04813
5.29945
4.55335
3.8782
3.28245
2.76556
2.31321
1.92647
1.59695
1.33509
1.13815
0.981966
0.852663
0.742662
0.648332
0.568003
0.50143
0.450066
0.419509
0.441268
0.717757
2.12387
0.615889
0.773687
1.11462
1.64462
2.32623
3.12149
3.86417
0.528741
0.469232
0.428049
0.399555
0.379832
0.366325
0.357251
0.35131
0.347565
0.345382
0.344374
0.34403
0.344085
0.344776
0.345654
0.346811
0.348054
0.349412
0.350891
0.352507
0.354241
0.356107
0.358066
0.360142
0.362385
0.364813
0.367439
0.370287
0.373374
4.53485
5.17982
5.79654
6.37746
6.91417
7.3918
7.78214
8.04234
8.12428
7.99187
7.63576
7.07627
6.3562
5.53992
4.7388
4.02091
3.39216
2.83864
2.36344
1.97036
1.63411
1.36594
1.16393
1.0037
0.87113
0.758376
0.661568
0.578847
0.509748
0.455592
0.4223
0.442904
0.726344
2.15495
0.594586
0.736268
1.0497
1.55653
2.22061
3.00284
3.86796
4.64078
0.51438
0.459186
0.421083
0.394737
0.376564
0.364202
0.355929
0.350516
0.347112
0.345165
0.344287
0.344005
0.344143
0.344853
0.345754
0.346861
0.348052
0.349412
0.350891
0.352507
0.354241
0.356066
0.357991
0.360074
0.362326
0.364764
0.367402
0.370263
0.373365
5.31713
5.95445
6.55832
7.1257
7.65008
8.11349
8.48022
8.69961
8.72063
8.51211
8.07401
7.43492
6.64245
5.76336
4.91119
4.15366
3.48084
2.90009
2.41799
2.01818
1.67479
1.39989
1.19243
1.02781
0.89166
0.775888
0.676361
0.591022
0.519165
0.461962
0.425587
0.444922
0.736475
2.19554
0.574315
0.701233
0.986301
1.46808
2.11404
2.88251
3.73635
4.64422
5.42543
0.500506
0.449514
0.414396
0.390161
0.373552
0.362287
0.354739
0.349802
0.346707
0.344977
0.344216
0.343984
0.344208
0.344937
0.345802
0.346856
0.348052
0.349412
0.350891
0.352507
0.354197
0.355983
0.357914
0.360005
0.362266
0.364713
0.367363
0.370238
0.373356
6.09102
6.70987
7.29517
7.84833
8.36226
8.81251
9.15402
9.32814
9.28379
8.99784
8.48019
7.76632
6.90701
5.97019
5.07103
4.26065
3.55524
2.96664
2.47721
2.07025
1.71931
1.43725
1.22394
1.05456
0.914511
0.795439
0.692933
0.604727
0.529867
0.469321
0.429549
0.447275
0.74924
2.24464
0.55501
0.668641
0.92485
1.3792
2.00592
2.76064
3.60343
4.5001
5.42484
6.19511
0.48715
0.440247
0.408051
0.385945
0.370834
0.360559
0.353667
0.349161
0.346349
0.344818
0.344156
0.343974
0.344286
0.344971
0.345798
0.346856
0.348052
0.349412
0.350892
0.352459
0.354107
0.355898
0.357836
0.359934
0.362203
0.364662
0.367324
0.370213
0.373347
6.83655
7.42983
7.99562
8.53784
9.04474
9.48353
9.79752
9.92145
9.80833
9.44576
8.85302
8.07051
7.15042
6.16104
5.1994
4.35024
3.63565
3.03867
2.54144
2.12691
1.76799
1.47832
1.25876
1.08425
0.93997
0.8173
0.711538
0.620201
0.542069
0.477878
0.434254
0.450838
0.766204
2.29419
0.536622
0.638494
0.865939
1.29012
1.89584
2.63649
3.46899
4.35593
5.26735
6.18592
6.92831
0.474348
0.431475
0.402211
0.382142
0.368381
0.359002
0.352703
0.348588
0.346035
0.344679
0.344109
0.343989
0.344322
0.344958
0.345799
0.346856
0.348052
0.349414
0.350842
0.352362
0.354014
0.35581
0.357755
0.359861
0.36214
0.364609
0.367283
0.370187
0.373338
7.53577
8.10169
8.65214
9.18833
9.69302
10.122
10.4048
10.4731
10.2897
9.85379
9.19228
8.34808
7.37348
6.31355
5.30663
4.44686
3.72247
3.11655
2.61102
2.18849
1.82114
1.52345
1.29723
1.11721
0.968352
0.841773
0.732468
0.637717
0.556034
0.487854
0.441065
0.455457
0.785017
2.3437
0.519118
0.610711
0.810246
1.20137
1.7837
2.50938
3.33229
4.21107
5.11223
6.0124
6.90453
7.60576
0.462229
0.423425
0.396948
0.378713
0.366168
0.357597
0.351836
0.348078
0.345758
0.344562
0.344094
0.343985
0.344313
0.344956
0.345799
0.346856
0.348054
0.349361
0.350741
0.352262
0.35392
0.35572
0.357672
0.359786
0.362074
0.364555
0.367241
0.37016
0.373328
8.17482
8.7176
9.25335
9.78648
10.2934
10.7184
10.9688
10.9772
10.7246
10.2212
9.49856
8.60007
7.5504
6.44045
5.42191
4.55091
3.81611
3.20066
2.6863
2.25531
1.87911
1.57294
1.33967
1.15379
0.999994
0.869197
0.756051
0.657611
0.572083
0.501744
0.450522
0.461755
0.805985
2.39267
0.502596
0.585138
0.758437
1.11366
1.66959
2.37879
3.19236
4.06484
4.95827
5.8453
6.71132
7.55983
8.21306
0.451119
0.41619
0.392207
0.375622
0.364173
0.356333
0.351057
0.34762
0.345517
0.344492
0.344073
0.343958
0.344317
0.344956
0.345797
0.346861
0.348003
0.349255
0.350637
0.35216
0.353823
0.355628
0.357587
0.359709
0.362007
0.364499
0.367198
0.370133
0.373319
8.74341
9.26642
9.80085
10.342
10.8489
11.2646
11.482
11.4289
11.1115
10.5484
9.77314
8.79786
7.69678
6.57628
5.54563
4.66279
3.91693
3.29134
2.76762
2.3277
1.94219
1.62714
1.38643
1.19431
1.03525
0.899923
0.782671
0.68025
0.594016
0.52056
0.462124
0.468828
0.829338
2.4408
0.487442
0.561712
0.711069
1.02797
1.5538
2.2444
3.04827
3.91603
4.80485
5.68245
6.53002
7.34278
8.13181
8.74205
0.441158
0.409689
0.387937
0.372835
0.362374
0.355194
0.350356
0.347216
0.345348
0.344438
0.34404
0.343959
0.344317
0.344958
0.345802
0.34681
0.347896
0.349147
0.350531
0.352056
0.353723
0.355534
0.3575
0.359631
0.361938
0.364442
0.367155
0.370106
0.373309
9.2382
9.74863
10.2927
10.8547
11.3661
11.7594
11.9381
11.825
11.4502
10.8369
9.98561
8.96022
7.85241
6.72128
5.67811
4.78285
4.02528
3.38894
2.85529
2.40595
2.01069
1.68633
1.43782
1.23912
1.07448
0.934339
0.812694
0.710859
0.623047
0.542418
0.475936
0.477964
0.855512
2.48752
0.47383
0.540694
0.668758
0.945509
1.43686
2.10606
2.89924
3.76335
4.65057
5.52324
6.35738
7.14413
7.88804
8.60365
9.17542
0.432242
0.403848
0.384094
0.370325
0.360754
0.354165
0.349732
0.346914
0.345236
0.344394
0.344043
0.343959
0.344313
0.344971
0.345754
0.346704
0.347789
0.349036
0.350423
0.351949
0.353621
0.355438
0.35741
0.35955
0.361867
0.364384
0.367111
0.37008
0.3733
9.6463
10.1581
10.7269
11.3194
11.8378
12.1966
12.3312
12.1651
11.7421
11.0557
10.1581
9.1312
8.01722
6.87557
5.81959
4.91137
4.14148
3.49375
2.94958
2.49031
2.08485
1.75078
1.49413
1.28853
1.11802
0.972774
0.852879
0.750582
0.655693
0.567556
0.492962
0.48854
0.884601
2.5325
0.461626
0.522025
0.632365
0.868309
1.31964
1.96381
2.74453
3.60553
4.49386
5.36607
6.19274
6.9599
7.66879
8.33133
8.96982
9.50534
0.424266
0.3986
0.380636
0.368065
0.359289
0.353246
0.349249
0.346728
0.345171
0.344399
0.344043
0.343958
0.344322
0.344936
0.345652
0.346598
0.347681
0.348923
0.350313
0.35184
0.353516
0.355339
0.357318
0.359468
0.361795
0.364326
0.367069
0.370055
0.373292
9.96399
10.4939
11.105
11.7351
12.255
12.5674
12.6557
12.4492
11.9572
11.2306
10.3373
9.31023
8.19095
7.03911
5.97016
5.04855
4.26574
3.60598
3.05071
2.58098
2.16485
1.82068
1.55556
1.34279
1.16612
1.02363
0.903991
0.794109
0.69207
0.596573
0.513199
0.502104
0.917433
2.57511
0.450709
0.50531
0.601769
0.799646
1.20425
1.81795
2.58355
3.44124
4.333
5.20912
6.0342
6.78925
7.4707
8.08869
8.66207
9.22122
9.72652
0.417132
0.393886
0.377526
0.366022
0.357978
0.352521
0.348962
0.346642
0.345178
0.344399
0.34404
0.343985
0.344285
0.344852
0.345556
0.346491
0.347571
0.348808
0.350199
0.351729
0.353409
0.355238
0.357224
0.359384
0.361723
0.36427
0.367029
0.37003
0.373283
10.1871
10.7577
11.429
12.0974
12.6051
12.8633
12.9083
12.649
12.1249
11.4087
10.5219
9.49637
8.37302
7.21163
6.12979
5.19445
4.39818
3.72578
3.1588
2.67807
2.25081
1.89615
1.62227
1.40204
1.22899
1.08699
0.958652
0.841229
0.732279
0.629533
0.53779
0.518129
0.953933
2.61505
0.440968
0.490282
0.575829
0.740968
1.09536
1.67014
2.41587
3.26915
4.1661
5.05034
5.87973
6.62983
7.29281
7.87457
8.39239
8.87227
9.34708
9.82941
0.41075
0.389652
0.37472
0.364193
0.356927
0.352097
0.348848
0.346654
0.345178
0.344393
0.344073
0.34399
0.344207
0.344774
0.345461
0.346381
0.347459
0.348691
0.350083
0.351615
0.353299
0.355135
0.357128
0.359301
0.361654
0.364216
0.366989
0.370006
0.373275
10.3138
10.9528
11.7001
12.3916
12.8742
13.0813
13.0665
12.7979
12.2906
11.5876
10.71
9.68824
8.5625
7.39261
6.2982
5.34897
4.53879
3.85318
3.27389
2.7816
2.34272
1.97721
1.69424
1.47844
1.30574
1.15322
1.01627
0.891565
0.776058
0.666752
0.566576
0.538421
0.995417
2.65169
0.432292
0.476762
0.553533
0.691756
0.996382
1.52543
2.24255
3.08793
3.99108
4.88739
5.72706
6.47941
7.13221
7.68801
8.16031
8.57172
8.95479
9.33563
9.8058
0.405039
0.38584
0.372209
0.362712
0.356322
0.351948
0.348865
0.346654
0.345171
0.344439
0.344095
0.343974
0.344141
0.344695
0.345367
0.346268
0.347346
0.348571
0.349965
0.351499
0.353186
0.35503
0.357033
0.35922
0.361586
0.364163
0.366951
0.369983
0.373267
10.3414
11.0863
11.8987
12.5998
13.0432
13.201
13.1708
12.935
12.451
11.7644
10.8991
9.88396
8.75808