/*--------------------------------*- C++ -*----------------------------------*\
  =========                 |
  \\      /  F ield         | OpenFOAM: The Open Source CFD Toolbox
   \\    /   O peration     | Website:  https://openfoam.org
    \\  /    A nd           | Version:  8
     \\/     M anipulation  |
\*---------------------------------------------------------------------------*/
FoamFile
{
    version     2.0;
    format      ascii;
    class       volVectorField;
    location    "0.28";
    object      U;
}
// * * * * * * * * * * * * * * * * * * * * * * * * * * * * * * * * * * * * * //

dimensions      [0 1 -1 0 0 0 0];

internalField   nonuniform List<vector> 
15677
(
(-0.0399015 9.66595 0)
(0.0484951 9.92199 0)
(-0.00181361 9.37829 0)
(0.0206523 9.97702 0)
(0.019892 9.78866 0)
(0.00731343 9.14125 0)
(0.0258391 9.99515 0)
(0.0165373 9.92467 0)
(0.0111792 9.65398 0)
(0.00649143 8.96067 0)
(0.0263308 10.0025 0)
(0.0205523 9.97871 0)
(0.0165508 9.85203 0)
(0.00912489 9.53081 0)
(0.00515968 8.81703 0)
(0.0255703 10.0057 0)
(0.0215843 10.003 0)
(0.019406 9.94152 0)
(0.0153647 9.77951 0)
(0.00798036 9.41984 0)
(0.00424044 8.70238 0)
(0.0245088 10.0071 0)
(0.0218659 10.0147 0)
(0.0210021 9.98479 0)
(0.0182522 9.90244 0)
(0.0138545 9.70811 0)
(0.00692503 9.32158 0)
(0.00354483 8.6102 0)
(0.023097 10.0075 0)
(0.0217423 10.0205 0)
(0.0218693 10.0069 0)
(0.0201984 9.96497 0)
(0.0169613 9.86193 0)
(0.0124417 9.64084 0)
(0.00596844 9.23644 0)
(0.00295857 8.53618 0)
(0.021409 10.0074 0)
(0.0211908 10.0233 0)
(0.0221524 10.0184 0)
(0.0212878 9.99809 0)
(0.0190529 9.94372 0)
(0.0156076 9.82229 0)
(0.0110788 9.57967 0)
(0.00507682 9.16417 0)
(0.00241871 8.47764 0)
(0.0195159 10.007 0)
(0.0203302 10.0235 0)
(0.0221096 10.0241 0)
(0.0217801 10.0162 0)
(0.0202161 9.98815 0)
(0.0177197 9.92276 0)
(0.0141425 9.78538 0)
(0.00968537 9.52576 0)
(0.00419857 9.10456 0)
(0.00188713 8.43312 0)
(0.0175005 10.0063 0)
(0.0192739 10.0223 0)
(0.0216661 10.0271 0)
(0.0218022 10.0261 0)
(0.0207467 10.0131 0)
(0.018861 9.97856 0)
(0.0161738 9.9036 0)
(0.0125187 9.75242 0)
(0.00820329 9.48011 0)
(0.00328827 9.05742 0)
(0.00133475 8.40163 0)
(0.015399 10.0056 0)
(0.0179646 10.0206 0)
(0.0209333 10.0281 0)
(0.0214559 10.0315 0)
(0.0207797 10.0273 0)
(0.0193186 10.0103 0)
(0.0171873 9.97058 0)
(0.0143574 9.88721 0)
(0.0106806 9.7246 0)
(0.00658194 9.4435 0)
(0.00230434 9.0227 0)
(0.000738972 8.3829 0)
(0.0132619 10.0048 0)
(0.0164813 10.0185 0)
(0.0198586 10.0274 0)
(0.0207809 10.034 0)
(0.0203989 10.0354 0)
(0.0192401 10.0289 0)
(0.0174611 10.0092 0)
(0.0151317 9.96505 0)
(0.0121986 9.87461 0)
(0.00856653 9.70299 0)
(0.00477013 9.41669 0)
(0.0012125 9.00045 0)
(5.63533e-05 8.3767 0)
(0.0111597 10.0041 0)
(0.0148847 10.0162 0)
(0.0185073 10.0258 0)
(0.0197952 10.0345 0)
(0.0196643 10.0396 0)
(0.0187133 10.0396 0)
(0.0171482 10.0319 0)
(0.0151042 10.0103 0)
(0.0126072 9.96285 0)
(0.00961744 9.86679 0)
(0.00611222 9.68864 0)
(0.00272083 9.40031 0)
(-1.54392e-05 8.99083 0)
(-0.000614361 8.383 0)
(0.00927044 10.0034 0)
(0.0131859 10.014 0)
(0.0169185 10.0235 0)
(0.0184997 10.0334 0)
(0.0185912 10.0412 0)
(0.0177874 10.0456 0)
(0.0163387 10.0453 0)
(0.0144253 10.0371 0)
(0.0121424 10.0146 0)
(0.00951289 9.96486 0)
(0.00653045 9.86476 0)
(0.00325726 9.68253 0)
(0.000396577 9.39502 0)
(-0.00137886 8.99416 0)
(-0.00140272 8.40195 0)
(0.00772497 10.0029 0)
(0.0116226 10.0119 0)
(0.0151316 10.0209 0)
(0.0169088 10.0313 0)
(0.0171803 10.0409 0)
(0.0164815 10.0483 0)
(0.015078 10.053 0)
(0.0131865 10.0531 0)
(0.0109475 10.0453 0)
(0.00845251 10.0228 0)
(0.00574195 9.97199 0)
(0.0028561 9.8695 0)
(-6.26535e-05 9.68561 0)
(-0.00226163 9.40144 0)
(-0.00294181 9.01061 0)
(-0.0022927 8.43381 0)
(0.00641348 10.0024 0)
(0.0102301 10.0102 0)
(0.0133924 10.0184 0)
(0.0150523 10.0286 0)
(0.0154356 10.0392 0)
(0.0147991 10.0488 0)
(0.0133837 10.0569 0)
(0.0114302 10.0624 0)
(0.00911173 10.0638 0)
(0.00656691 10.0573 0)
(0.00390238 10.0358 0)
(0.00118892 9.98516 0)
(-0.00148166 9.882 0)
(-0.00388422 9.69874 0)
(-0.00526831 9.42012 0)
(-0.00469684 9.04042 0)
(-0.00328071 8.47866 0)
(0.00530907 10.002 0)
(0.00897366 10.0087 0)
(0.0118136 10.0162 0)
(0.0131747 10.0257 0)
(0.0133742 10.0364 0)
(0.0127411 10.0475 0)
(0.0112593 10.058 0)
(0.00917063 10.0674 0)
(0.00667354 10.0747 0)
(0.0039398 10.0781 0)
(0.00112397 10.074 0)
(-0.00164078 10.0545 0)
(-0.0042488 10.0053 0)
(-0.00655705 9.90318 0)
(-0.00826465 9.72273 0)
(-0.00865112 9.45147 0)
(-0.00664898 9.08368 0)
(-0.00436164 8.53654 0)
(0.00438506 10.0016 0)
(0.00784128 10.0074 0)
(0.0103556 10.0143 0)
(0.0114358 10.0231 0)
(0.0112585 10.0333 0)
(0.0103167 10.0448 0)
(0.0087048 10.0571 0)
(0.0064083 10.0691 0)
(0.00364153 10.0805 0)
(0.000602206 10.0904 0)
(-0.00251993 10.0969 0)
(-0.00554406 10.096 0)
(-0.00830558 10.0797 0)
(-0.0106637 10.0333 0)
(-0.0124272 9.93392 0)
(-0.0132337 9.75818 0)
(-0.012427 9.49578 0)
(-0.00880333 9.1405 0)
(-0.00553398 8.60731 0)
(0.00361103 10.0013 0)
(0.00682141 10.0062 0)
(0.00901285 10.0126 0)
(0.00980317 10.0206 0)
(0.00928444 10.0303 0)
(0.00782408 10.0415 0)
(0.00572824 10.0545 0)
(0.0031429 10.0685 0)
(1.18539e-05 10.0828 0)
(-0.00344515 10.0971 0)
(-0.00700927 10.1104 0)
(-0.0104631 10.1209 0)
(-0.0135948 10.1242 0)
(-0.0162094 10.1123 0)
(-0.0181309 10.0699 0)
(-0.0191299 9.97491 0)
(-0.0188047 9.8056 0)
(-0.0165948 9.55322 0)
(-0.0111482 9.21065 0)
(-0.0067849 8.69065 0)
(0.00297822 10.001 0)
(0.0059098 10.0052 0)
(0.00778115 10.011 0)
(0.00828391 10.0184 0)
(0.00742352 10.0274 0)
(0.00549662 10.0381 0)
(0.00268584 10.0509 0)
(-0.000615532 10.0658 0)
(-0.00421698 10.0823 0)
(-0.00821224 10.0997 0)
(-0.0123544 10.1178 0)
(-0.0163936 10.1355 0)
(-0.02008 10.1509 0)
(-0.0231724 10.1595 0)
(-0.025448 10.1529 0)
(-0.0267029 10.1159 0)
(-0.0266837 10.0268 0)
(-0.0249732 9.86527 0)
(-0.0211412 9.62375 0)
(-0.0136753 9.29396 0)
(-0.00810752 8.78612 0)
(0.00247755 10.0008 0)
(0.00508696 10.0044 0)
(0.00665796 10.0096 0)
(0.00688174 10.0164 0)
(0.0056928 10.0247 0)
(0.00330574 10.0347 0)
(-0.000144614 10.047 0)
(-0.00442467 10.0618 0)
(-0.00903085 10.0794 0)
(-0.0137025 10.0992 0)
(-0.0185737 10.1206 0)
(-0.0233605 10.1433 0)
(-0.0277774 10.1664 0)
(-0.0315447 10.1877 0)
(-0.0343958 10.2026 0)
(-0.036089 10.2025 0)
(-0.0364036 10.1719 0)
(-0.0350825 10.0898 0)
(-0.0317171 9.93731 0)
(-0.0260374 9.70716 0)
(-0.0163537 9.38978 0)
(-0.00947844 8.89289 0)
(0.00209289 10.0007 0)
(0.00438328 10.0037 0)
(0.00563615 10.0084 0)
(0.00559825 10.0145 0)
(0.00410189 10.0221 0)
(0.00127798 10.0315 0)
(-0.0027967 10.043 0)
(-0.00794815 10.0573 0)
(-0.0138693 10.0748 0)
(-0.0198966 10.0959 0)
(-0.025674 10.1198 0)
(-0.0313943 10.1462 0)
(-0.0367322 10.1746 0)
(-0.0413693 10.2039 0)
(-0.0450022 10.2321 0)
(-0.0473504 10.2542 0)
(-0.0481649 10.2614 0)
(-0.047226 10.2383 0)
(-0.044294 10.1644 0)
(-0.0389918 10.0216 0)
(-0.0312399 9.80298 0)
(-0.0191631 9.49755 0)
(-0.0108789 9.01028 0)
(0.0017964 10.0006 0)
(0.00381236 10.0032 0)
(0.0047542 10.0074 0)
(0.0044337 10.0129 0)
(0.00265667 10.0198 0)
(-0.000570358 10.0283 0)
(-0.00523429 10.039 0)
(-0.0112302 10.0526 0)
(-0.0183186 10.0695 0)
(-0.0260788 10.0905 0)
(-0.0336296 10.1158 0)
(-0.0405066 10.145 0)
(-0.0469902 10.1772 0)
(-0.0527173 10.2122 0)
(-0.0573445 10.2488 0)
(-0.060559 10.2846 0)
(-0.0620797 10.3147 0)
(-0.0616694 10.3301 0)
(-0.0591271 10.3154 0)
(-0.0542568 10.2503 0)
(-0.0467323 10.1178 0)
(-0.0366952 9.91061 0)
(-0.0220382 9.61624 0)
(-0.0122437 9.13665 0)
(0.00156367 10.0005 0)
(0.00334751 10.0028 0)
(0.00403175 10.0065 0)
(0.00343367 10.0114 0)
(0.00136125 10.0175 0)
(-0.00222842 10.0253 0)
(-0.00743346 10.0351 0)
(-0.0142245 10.0477 0)
(-0.0224393 10.0638 0)
(-0.0317346 10.0842 0)
(-0.0415267 10.1094 0)
(-0.0506652 10.14 0)
(-0.0585712 10.1753 0)
(-0.0656551 10.2144 0)
(-0.0715262 10.2569 0)
(-0.0758342 10.3015 0)
(-0.0782722 10.3458 0)
(-0.0785795 10.3847 0)
(-0.0765509 10.4089 0)
(-0.0720295 10.4031 0)
(-0.0648818 10.3475 0)
(-0.0548539 10.2253 0)
(-0.042287 10.0291 0)
(-0.0248637 9.74457 0)
(-0.0132752 9.27016 0)
(0.00137846 10.0005 0)
(0.00296646 10.0025 0)
(0.00344143 10.0059 0)
(0.00262148 10.0102 0)
(0.000267252 10.0156 0)
(-0.00368856 10.0224 0)
(-0.00937742 10.0313 0)
(-0.0168981 10.0428 0)
(-0.0261734 10.0578 0)
(-0.0369472 10.0772 0)
(-0.0487227 10.1017 0)
(-0.0607094 10.1322 0)
(-0.0714361 10.1691 0)
(-0.0802139 10.2115 0)
(-0.0876405 10.2584 0)
(-0.0933196 10.3093 0)
(-0.0969117 10.3628 0)
(-0.0981406 10.4163 0)
(-0.0967914 10.4644 0)
(-0.0927172 10.4978 0)
(-0.0858176 10.5013 0)
(-0.0760512 10.4553 0)
(-0.0632098 10.3434 0)
(-0.0479679 10.1574 0)
(-0.0278292 9.88203 0)
(-0.0156039 9.41084 0)
(0.00122923 10.0004 0)
(0.00265179 10.0022 0)
(0.00295751 10.0053 0)
(0.00196692 10.0092 0)
(-0.000602915 10.0139 0)
(-0.00489189 10.0198 0)
(-0.0110542 10.0276 0)
(-0.0192271 10.038 0)
(-0.0294773 10.0517 0)
(-0.0416446 10.0698 0)
(-0.0553303 10.0932 0)
(-0.0698368 10.1229 0)
(-0.0841234 10.1595 0)
(-0.0963501 10.2038 0)
(-0.105735 10.2543 0)
(-0.113142 10.31 0)
(-0.118191 10.3701 0)
(-0.120585 10.4331 0)
(-0.120105 10.4961 0)
(-0.116608 10.5538 0)
(-0.110024 10.5967 0)
(-0.100339 10.6097 0)
(-0.08758 10.5733 0)
(-0.0716572 10.471 0)
(-0.0529781 10.2946 0)
(-0.0246803 10.0223 0)
(-0.0115229 9.49635 0)
(0.00110753 10.0004 0)
(0.00239044 10.002 0)
(0.00256001 10.0049 0)
(0.00143803 10.0083 0)
(-0.00128686 10.0125 0)
(-0.00581967 10.0176 0)
(-0.0123958 10.0242 0)
(-0.021194 10.0332 0)
(-0.0323182 10.0456 0)
(-0.0457705 10.0621 0)
(-0.0612606 10.084 0)
(-0.0781969 10.1123 0)
(-0.0956337 10.1481 0)
(-0.112239 10.192 0)
(-0.125763 10.2447 0)
(-0.135374 10.3044 0)
(-0.142285 10.3697 0)
(-0.146164 10.4396 0)
(-0.146788 10.5125 0)
(-0.144033 10.5855 0)
(-0.137855 10.6529 0)
(-0.128285 10.7053 0)
(-0.11537 10.7275 0)
(-0.099281 10.7003 0)
(-0.0796838 10.6072 0)
(-0.056978 10.4376 0)
(-0.0201783 10.194 0)
(-0.002952 9.56217 0)
(0.00100715 10.0003 0)
(0.00217256 10.0018 0)
(0.00222787 10.0045 0)
(0.00101037 10.0076 0)
(-0.00182274 10.0112 0)
(-0.0065214 10.0156 0)
(-0.0133901 10.0212 0)
(-0.0227188 10.0288 0)
(-0.0346712 10.0394 0)
(-0.049281 10.0543 0)
(-0.0664414 10.0743 0)
(-0.0856802 10.1009 0)
(-0.106162 10.1352 0)
(-0.126645 10.1782 0)
(-0.145478 10.2304 0)
(-0.159973 10.2925 0)
(-0.169292 10.3623 0)
(-0.175098 10.4379 0)
(-0.17716 10.5181 0)
(-0.17537 10.6013 0)
(-0.169727 10.6843 0)
(-0.16031 10.7614 0)
(-0.147238 10.823 0)
(-0.130669 10.8541 0)
(-0.110613 10.8355 0)
(-0.0864767 10.7507 0)
(-0.0601871 10.5946 0)
(-0.0215928 10.3673 0)
(0.00235312 9.61956 0)
(0.000923525 10.0003 0)
(0.0019903 10.0017 0)
(0.0019521 10.0041 0)
(0.000666589 10.007 0)
(-0.00224133 10.0102 0)
(-0.00704555 10.0139 0)
(-0.0141034 10.0186 0)
(-0.0237986 10.0248 0)
(-0.0364407 10.0336 0)
(-0.0521417 10.0464 0)
(-0.0708149 10.0644 0)
(-0.0921954 10.0889 0)
(-0.115575 10.1211 0)
(-0.139819 10.1624 0)
(-0.163357 10.2136 0)
(-0.184195 10.2753 0)
(-0.199176 10.3478 0)
(-0.207533 10.4285 0)
(-0.211511 10.515 0)
(-0.211024 10.6059 0)
(-0.206115 10.6995 0)
(-0.196936 10.7923 0)
(-0.183682 10.8788 0)
(-0.166596 10.9492 0)
(-0.145742 10.9886 0)
(-0.120964 10.9783 0)
(-0.0920649 10.9025 0)
(-0.0622434 10.7644 0)
(-0.0244143 10.5372 0)
(0.00320126 9.67652 0)
(0.000853295 10.0003 0)
(0.00183708 10.0016 0)
(0.0017235 10.0038 0)
(0.000386192 10.0064 0)
(-0.00256702 10.0093 0)
(-0.00743122 10.0125 0)
(-0.0145988 10.0163 0)
(-0.0245229 10.0213 0)
(-0.0376356 10.0284 0)
(-0.0542357 10.0389 0)
(-0.0743347 10.0544 0)
(-0.0976668 10.0764 0)
(-0.123755 10.1061 0)
(-0.151596 10.1451 0)
(-0.179717 10.1944 0)
(-0.206183 10.2551 0)
(-0.228633 10.3272 0)
(-0.243456 10.4111 0)
(-0.250043 10.5034 0)
(-0.251363 10.6011 0)
(-0.247516 10.7029 0)
(-0.238736 10.8067 0)
(-0.225329 10.9092 0)
(-0.207637 11.0045 0)
(-0.185898 11.0831 0)
(-0.160076 11.1305 0)
(-0.130698 11.1283 0)
(-0.0974979 11.0625 0)
(-0.064046 10.9414 0)
(-0.0270817 10.7027 0)
(0.00271677 9.75 0)
(0.000793907 10.0003 0)
(0.00170752 10.0015 0)
(0.00153384 10.0036 0)
(0.000156287 10.006 0)
(-0.0028203 10.0085 0)
(-0.00770969 10.0112 0)
(-0.0149272 10.0143 0)
(-0.0249749 10.0182 0)
(-0.0383762 10.0238 0)
(-0.0555872 10.0321 0)
(-0.0768559 10.0447 0)
(-0.102033 10.0637 0)
(-0.130607 10.0905 0)
(-0.161831 10.1266 0)
(-0.194358 10.1733 0)
(-0.226333 10.232 0)
(-0.25542 10.3031 0)
(-0.278925 10.3868 0)
(-0.292779 10.4828 0)
(-0.296662 10.5872 0)
(-0.294393 10.6964 0)
(-0.286313 10.809 0)
(-0.272864 10.9228 0)
(-0.254531 11.0342 0)
(-0.23173 11.1378 0)
(-0.204682 11.2241 0)
(-0.173853 11.2792 0)
(-0.140447 11.2846 0)
(-0.103645 11.2295 0)
(-0.0667114 11.1207 0)
(-0.0299339 10.8828 0)
(0.00158385 9.83473 0)
(0.000743367 10.0002 0)
(0.00159739 10.0014 0)
(0.00137433 10.0034 0)
(-3.28692e-05 10.0056 0)
(-0.00301685 10.0078 0)
(-0.00790576 10.0101 0)
(-0.0151287 10.0125 0)
(-0.0252211 10.0156 0)
(-0.0387719 10.0197 0)
(-0.0563554 10.0261 0)
(-0.0784201 10.0359 0)
(-0.105112 10.0513 0)
(-0.136048 10.0745 0)
(-0.1704 10.1073 0)
(-0.207099 10.1508 0)
(-0.244402 10.2066 0)
(-0.280027 10.2756 0)
(-0.311254 10.3584 0)
(-0.335072 10.4544 0)
(-0.346991 10.5632 0)
(-0.347105 10.6801 0)
(-0.340237 10.8008 0)
(-0.327005 10.9239 0)
(-0.308082 11.047 0)
(-0.284099 11.167 0)
(-0.255538 11.2781 0)
(-0.223029 11.3717 0)
(-0.187519 11.4337 0)
(-0.150379 11.4463 0)
(-0.110519 11.4007 0)
(-0.0706085 11.3206 0)
(-0.0328772 11.0778 0)
(-0.000177706 9.92872 0)
(0.000700064 10.0002 0)
(0.00150329 10.0013 0)
(0.00123976 10.0032 0)
(-0.000187605 10.0052 0)
(-0.00316897 10.0072 0)
(-0.00803891 10.0091 0)
(-0.0152351 10.011 0)
(-0.025314 10.0132 0)
(-0.03891 10.0161 0)
(-0.0566839 10.0207 0)
(-0.0792361 10.0281 0)
(-0.106964 10.0401 0)
(-0.139849 10.0589 0)
(-0.177195 10.0873 0)
(-0.217782 10.127 0)
(-0.260166 10.1792 0)
(-0.302155 10.2452 0)
(-0.341039 10.3259 0)
(-0.37373 10.4213 0)
(-0.396934 10.5304 0)
(-0.405797 10.6525 0)
(-0.400981 10.7819 0)
(-0.388452 10.9139 0)
(-0.369136 11.047 0)
(-0.343932 11.179 0)
(-0.313621 11.3067 0)
(-0.279031 11.4249 0)
(-0.241246 11.525 0)
(-0.201286 11.5929 0)
(-0.160428 11.6112 0)
(-0.118325 11.5944 0)
(-0.0753604 11.5399 0)
(-0.0360506 11.2683 0)
(-0.002116 10.0295 0)
(0.000663006 10.0002 0)
(0.00142234 10.0013 0)
(0.00112589 10.0031 0)
(-0.000314861 10.0049 0)
(-0.00328615 10.0067 0)
(-0.00812439 10.0083 0)
(-0.0152712 10.0097 0)
(-0.0252949 10.0111 0)
(-0.0388597 10.013 0)
(-0.0566871 10.016 0)
(-0.0794904 10.0211 0)
(-0.10786 10.03 0)
(-0.142091 10.0447 0)
(-0.181924 10.0678 0)
(-0.226267 10.1024 0)
(-0.273427 10.1503 0)
(-0.321532 10.2125 0)
(-0.367927 10.29 0)
(-0.409474 10.3834 0)
(-0.442738 10.4923 0)
(-0.464221 10.6151 0)
(-0.468781 10.7507 0)
(-0.457804 10.8926 0)
(-0.438532 11.0355 0)
(-0.412213 11.178 0)
(-0.379986 11.3181 0)
(-0.342957 11.4528 0)
(-0.302352 11.5772 0)
(-0.259441 11.6826 0)
(-0.21513 11.7548 0)
(-0.171489 11.7977 0)
(-0.126739 11.8092 0)
(-0.0805055 11.7552 0)
(-0.0391465 11.4536 0)
(-0.00396947 10.1351 0)
(0.0013521 10.0012 0)
(0.000619067 10.0002 0)
(0.00102854 10.0029 0)
(-0.000419677 10.0046 0)
(-0.00337584 10.0062 0)
(-0.00817408 10.0075 0)
(-0.0152563 10.0085 0)
(-0.0251959 10.0093 0)
(-0.038675 10.0102 0)
(-0.0564556 10.0118 0)
(-0.079332 10.015 0)
(-0.10804 10.021 0)
(-0.143118 10.0319 0)
(-0.184689 10.0499 0)
(-0.232183 10.0782 0)
(-0.284004 10.1202 0)
(-0.33791 10.1777 0)
(-0.391582 10.2511 0)
(-0.441881 10.3414 0)
(-0.485261 10.4485 0)
(-0.518006 10.5716 0)
(-0.536507 10.7086 0)
(-0.53542 10.8577 0)
(-0.517017 11.0118 0)
(-0.489937 11.165 0)
(-0.45577 11.3161 0)
(-0.415997 11.4635 0)
(-0.3721 11.6043 0)
(-0.3255 11.7338 0)
(-0.277494 11.8429 0)
(-0.230367 11.9374 0)
(-0.183314 12.005 0)
(-0.134921 12.0217 0)
(-0.0856265 11.9646 0)
(-0.0420395 11.633 0)
(-0.00573878 10.2434 0)
(0.000943295 10.0028 0)
(0.00127164 10.0012 0)
(0.000566774 10.0002 0)
(-0.000506751 10.0044 0)
(-0.00344365 10.0058 0)
(-0.00819699 10.0069 0)
(-0.0152053 10.0075 0)
(-0.0250417 10.0077 0)
(-0.0383974 10.0077 0)
(-0.0560598 10.0081 0)
(-0.0788786 10.0095 0)
(-0.107696 10.013 0)
(-0.143235 10.0204 0)
(-0.185921 10.0337 0)
(-0.235647 10.056 0)
(-0.291425 10.0906 0)
(-0.351059 10.1414 0)
(-0.411698 10.2097 0)
(-0.470551 10.2957 0)
(-0.524007 10.3999 0)
(-0.568163 10.5218 0)
(-0.599112 10.6597 0)
(-0.613242 10.811 0)
(-0.605105 10.9734 0)
(-0.578022 11.139 0)
(-0.54214 11.3018 0)
(-0.499449 11.4607 0)
(-0.45181 11.6143 0)
(-0.400943 11.7602 0)
(-0.348308 11.893 0)
(-0.297185 12.0235 0)
(-0.246538 12.1402 0)
(-0.194637 12.2108 0)
(-0.14264 12.2295 0)
(-0.0904938 12.1669 0)
(-0.0446464 11.8062 0)
(-0.00735659 10.3526 0)
(-0.000584189 10.0042 0)
(0.000854572 10.0027 0)
(0.00117395 10.0011 0)
(0.000517037 10.0002 1.8756e-19)
(-0.00349483 10.0055 0)
(-0.00819966 10.0063 0)
(-0.0151293 10.0066 0)
(-0.0248514 10.0063 0)
(-0.038059 10.0056 0)
(-0.0555538 10.0048 0)
(-0.0782216 10.0046 0)
(-0.106979 10.0059 0)
(-0.142687 10.0102 0)
(-0.186004 10.0193 0)
(-0.237192 10.0359 0)
(-0.295815 10.0633 0)
(-0.360375 10.1054 0)
(-0.427982 10.1663 0)
(-0.495105 10.2469 0)
(-0.558499 10.3469 0)
(-0.614117 10.466 0)
(-0.657777 10.6033 0)
(-0.685492 10.7564 0)
(-0.693769 10.922 0)
(-0.677166 11.0974 0)
(-0.64021 11.2738 0)
(-0.594672 11.4452 0)
(-0.542959 11.6108 0)
(-0.487213 11.7696 0)
(-0.429262 11.9188 0)
(-0.373101 12.0726 0)
(-0.317999 12.224 0)
(-0.261789 12.3414 0)
(-0.205244 12.4128 0)
(-0.149747 12.431 0)
(-0.0949946 12.3615 0)
(-0.0469411 11.9728 0)
(-0.00879484 10.461 0)
(-0.00354251 10.0052 0)
(-0.00064679 10.004 0)
(0.000755328 10.0025 8.37757e-19)
(0.00108044 10.001 -5.94309e-19)
(0.000469706 10.0002 -3.74073e-19)
(-0.00818785 10.0058 0)
(-0.015036 10.0058 0)
(-0.0246388 10.005 0)
(-0.0376842 10.0037 0)
(-0.0549793 10.002 0)
(-0.0774316 10.0003 0)
(-0.106008 9.99965 0)
(-0.141668 10.0011 0)
(-0.185246 10.0063 0)
(-0.237293 10.0178 0)
(-0.297821 10.0385 0)
(-0.36598 10.0722 0)
(-0.439668 10.1232 0)
(-0.515178 10.1956 0)
(-0.588277 10.29 0)
(-0.655304 10.4051 0)
(-0.711845 10.5402 0)
(-0.753543 10.6935 0)
(-0.776456 10.8619 0)
(-0.777352 11.0415 0)
(-0.750904 11.2291 0)
(-0.702999 11.4154 0)
(-0.647109 11.5943 0)
(-0.585976 11.7655 0)
(-0.521911 11.9278 0)
(-0.459968 12.0978 0)
(-0.399292 12.272 0)
(-0.337526 12.4229 0)
(-0.27593 12.539 0)
(-0.214976 12.6093 0)
(-0.156175 12.6254 0)
(-0.0990689 12.5479 0)
(-0.0489323 12.1322 0)
(-0.010048 10.5674 0)
(-0.00818207 10.0054 0)
(-0.00354247 10.0048 -1.79032e-18)
(-0.00069744 10.0037 -8.83694e-19)
(0.000661843 10.0023 4.1796e-19)
(0.000990823 10.0009 -3.95014e-19)
(0.000424847 10.0001 0)
(-0.0149316 10.0051 0)
(-0.0244131 10.0039 0)
(-0.0372908 10.002 0)
(-0.0543677 9.99941 0)
(-0.076562 9.99656 0)
(-0.104873 9.99408 0)
(-0.140328 9.993 0)
(-0.183892 9.99483 0)
(-0.236338 10.0016 0)
(-0.298031 10.0162 0)
(-0.368654 10.042 0)
(-0.446857 10.0832 0)
(-0.529802 10.1444 0)
(-0.612888 10.2299 0)
(-0.691175 10.3395 0)
(-0.760659 10.471 0)
(-0.816654 10.6228 0)
(-0.854755 10.7924 0)
(-0.871213 10.976 0)
(-0.863199 11.169 0)
(-0.825611 11.3679 0)
(-0.765827 11.563 0)
(-0.69901 11.7483 0)
(-0.628134 11.9234 0)
(-0.55949 12.1066 0)
(-0.492374 12.2969 0)
(-0.423812 12.47 0)
(-0.355584 12.6184 0)
(-0.288811 12.7315 0)
(-0.223763 12.7992 0)
(-0.1619 12.8118 0)
(-0.102691 12.7257 0)
(-0.0506412 12.2842 0)
(-0.0111231 10.6708 0)
(-0.0148473 10.0044 0)
(-0.00807941 10.0048 3.77568e-18)
(-0.00348276 10.0044 0)
(-0.000743855 10.0034 8.81426e-19)
(0.000574831 10.0021 1.37642e-22)
(0.00090502 10.0009 0)
(0.000382483 10.0001 0)
(-0.0241809 10.003 0)
(-0.0368897 10.0005 0)
(-0.0537418 9.99716 0)
(-0.0756536 9.9932 0)
(-0.103643 9.98915 0)
(-0.138784 9.98585 0)
(-0.182134 9.98459 0)
(-0.23463 9.9872 0)
(-0.296917 9.99616 0)
(-0.369104 10.0147 0)
(-0.450468 10.0467 0)
(-0.539027 10.0968 0)
(-0.631119 10.1698 0)
(-0.721173 10.2699 0)
(-0.80357 10.3961 0)
(-0.874072 10.5449 0)
(-0.927849 10.714 0)
(-0.960595 10.9 0)
(-0.968905 11.0984 0)
(-0.95049 11.304 0)
(-0.90058 11.5132 0)
(-0.828129 11.7158 0)
(-0.749916 11.9057 0)
(-0.673794 12.1021 0)
(-0.599164 12.3057 0)
(-0.522677 12.4948 0)
(-0.446456 12.6648 0)
(-0.372027 12.8088 0)
(-0.300387 12.9178 0)
(-0.231584 12.9818 0)
(-0.166927 12.9897 0)
(-0.105864 12.8946 0)
(-0.052093 12.4286 0)
(-0.0120335 10.7704 0)
(-0.0239882 10.0021 0)
(-0.0145948 10.0037 4.92195e-22)
(-0.00783863 10.0042 0)
(-0.00342264 10.0039 -9.29393e-19)
(-0.000780469 10.0031 8.51264e-23)
(0.000494167 10.002 0)
(0.000823159 10.0008 0)
(0.000342618 10.0001 0)
(-0.0364877 9.99919 0)
(-0.0531148 9.99517 0)
(-0.0747357 9.99024 0)
(-0.102371 9.98478 0)
(-0.137125 9.97951 0)
(-0.180118 9.9755 0)
(-0.232411 9.97435 0)
(-0.294857 9.97826 0)
(-0.367909 9.99014 0)
(-0.451351 10.0136 0)
(-0.543928 10.0532 0)
(-0.642934 10.1136 0)
(-0.743788 10.2 0)
(-0.839901 10.3163 0)
(-0.925035 10.4603 0)
(-0.994876 10.6272 0)
(-1.04459 10.8139 0)
(-1.07015 11.0161 0)
(-1.06863 11.2287 0)
(-1.0384 11.4459 0)
(-0.975121 11.664 0)
(-0.889326 11.8724 0)
(-0.805093 12.0842 0)
(-0.722033 12.3015 0)
(-0.636272 12.504 0)
(-0.550653 12.6896 0)
(-0.467084 12.8547 0)
(-0.386811 12.9933 0)
(-0.310668 13.0971 0)
(-0.238464 13.1564 0)
(-0.171288 13.1589 0)
(-0.108606 13.0545 0)
(-0.0533132 12.5653 0)
(-0.0127961 10.8658 0)
(-0.0361521 9.99802 0)
(-0.0235276 10.0011 -2.09778e-18)
(-0.0140851 10.0029 0)
(-0.00760514 10.0036 0)
(-0.00334784 10.0035 2.77984e-18)
(-0.000807465 10.0028 0)
(0.000419892 10.0018 0)
(0.000745347 10.0007 7.81136e-19)
(0.000305282 10.0001 0)
(-0.0524939 9.99341 0)
(-0.0738245 9.98761 0)
(-0.101095 9.98092 0)
(-0.135417 9.97389 0)
(-0.177957 9.96743 0)
(-0.229865 9.96292 0)
(-0.292151 9.96229 0)
(-0.36553 9.96816 0)
(-0.4502 9.98388 0)
(-0.545507 10.0136 0)
(-0.649567 10.062 0)
(-0.758853 10.1344 0)
(-0.867788 10.2358 0)
(-0.968737 10.3697 0)
(-1.05496 10.5326 0)
(-1.12224 10.7182 0)
(-1.16594 10.9226 0)
(-1.18243 11.1406 0)
(-1.16945 11.3663 0)
(-1.12614 11.5939 0)
(-1.04854 11.8192 0)
(-0.955759 12.0506 0)
(-0.863447 12.2839 0)
(-0.76718 12.5004 0)
(-0.670547 12.6995 0)
(-0.576154 12.8798 0)
(-0.485648 13.0388 0)
(-0.399959 13.171 0)
(-0.319696 13.2687 0)
(-0.244448 13.3226 0)
(-0.175027 13.3193 0)
(-0.110948 13.2054 0)
(-0.0543285 12.6942 0)
(-0.0134292 10.9565 0)
(-0.051975 9.99186 0)
(-0.0354113 9.99673 0)
(-0.0226368 10 -2.18313e-18)
(-0.013596 10.0021 -2.06585e-18)
(-0.00735025 10.003 -3.90728e-18)
(-0.00325828 10.0031 0)
(-0.000824844 10.0025 -1.74478e-18)
(0.000352159 10.0017 -1.64756e-18)
(0.000671601 10.0007 7.77426e-19)
(0.00027043 10.0001 0)
(-0.0729273 9.98529 0)
(-0.0998331 9.9775 0)
(-0.133708 9.96891 0)
(-0.175737 9.96028 0)
(-0.227134 9.95277 0)
(-0.289028 9.94808 0)
(-0.362334 9.94853 0)
(-0.447576 9.95717 0)
(-0.544589 9.97782 0)
(-0.652187 10.015 0)
(-0.767765 10.074 0)
(-0.88688 10.1599 0)
(-1.0029 10.2779 0)
(-1.10715 10.4307 0)
(-1.19256 10.6134 0)
(-1.25522 10.8181 0)
(-1.29085 11.0398 0)
(-1.29643 11.2728 0)
(-1.27046 11.5107 0)
(-1.21287 11.747 0)
(-1.12851 11.9964 0)
(-1.02619 12.2504 0)
(-0.918124 12.4836 0)
(-0.80891 12.6968 0)
(-0.701822 12.8906 0)
(-0.599134 13.0644 0)
(-0.502175 13.2163 0)
(-0.411529 13.3414 0)
(-0.327542 13.4324 0)
(-0.249599 13.4803 0)
(-0.178197 13.4707 0)
(-0.112926 13.3476 0)
(-0.0551642 12.8156 0)
(-0.01395 11.0425 0)
(-0.0721792 9.98323 0)
(-0.0508658 9.99016 -2.33263e-18)
(-0.0339974 9.99531 2.29953e-18)
(-0.0217889 9.99897 -1.17692e-21)
(-0.0130764 10.0013 2.05885e-18)
(-0.00707384 10.0025 1.94683e-18)
(-0.00315448 10.0027 3.67881e-18)
(-0.000832474 10.0023 2.60562e-18)
(0.000290942 10.0015 -8.19848e-19)
(0.000601964 10.0006 0)
(0.000238044 10.0001 0)
(-0.0985946 9.97446 0)
(-0.132023 9.9645 0)
(-0.173518 9.95393 0)
(-0.224326 9.94376 0)
(-0.285666 9.93544 0)
(-0.358606 9.93103 0)
(-0.443923 9.93327 0)
(-0.541847 9.94566 0)
(-0.651768 9.97251 0)
(-0.771873 10.0188 0)
(-0.898733 10.0898 0)
(-1.02691 10.1911 0)
(-1.14869 10.3271 0)
(-1.25443 10.5 0)
(-1.33689 10.7031 0)
(-1.39275 10.9269 0)
(-1.41824 11.1654 0)
(-1.4111 11.4125 0)
(-1.37069 11.6608 0)
(-1.30769 11.9226 0)
(-1.21358 12.1963 0)
(-1.09238 12.4511 0)
(-0.968757 12.6813 0)
(-0.847021 12.8892 0)
(-0.730039 13.0763 0)
(-0.619625 13.2426 0)
(-0.516739 13.3865 0)
(-0.421611 13.5039 0)
(-0.334294 13.5879 0)
(-0.253989 13.6294 0)
(-0.180855 13.6134 0)
(-0.114577 13.4812 0)
(-0.0558442 12.9296 0)
(-0.0143745 11.1236 0)
(-0.0975661 9.97178 0)
(-0.0705953 9.98103 -3.4669e-21)
(-0.0487525 9.98834 0)
(-0.032661 9.99394 -1.89024e-21)
(-0.0208983 9.99795 0)
(-0.0125259 10.0005 -2.05147e-18)
(-0.00677674 10.0019 -3.87773e-18)
(-0.00303627 10.0023 8.93343e-23)
(-0.000830531 10.0021 1.72857e-18)
(0.000235939 10.0014 -8.15475e-19)
(0.000536425 10.0005 7.69002e-19)
(0.000208095 10.0001 0)
(-0.130371 9.96058 0)
(-0.171332 9.9483 0)
(-0.221519 9.93576 0)
(-0.2822 9.92421 0)
(-0.354565 9.91545 0)
(-0.43959 9.91192 0)
(-0.537815 9.91684 0)
(-0.649102 9.93416 0)
(-0.772304 9.96862 0)
(-0.904879 10.0255 0)
(-1.04248 10.1104 0)
(-1.17863 10.2286 0)
(-1.30453 10.3841 0)
(-1.40968 10.5781 0)
(-1.4869 10.8019 0)
(-1.53369 11.0444 0)
(-1.547 11.2991 0)
(-1.52542 11.5586 0)
(-1.48074 11.8341 0)
(-1.40899 12.1218 0)
(-1.29384 12.3978 0)
(-1.15387 12.6504 0)
(-1.01513 12.8754 0)
(-0.881456 13.0765 0)
(-0.755231 13.2557 0)
(-0.637719 13.4136 0)
(-0.529455 13.5491 0)
(-0.430317 13.6584 0)
(-0.340052 13.735 0)
(-0.257691 13.77 0)
(-0.183057 13.7475 0)
(-0.115938 13.6066 0)
(-0.0563902 13.0364 0)
(-0.0147173 11.1999 0)
(-0.129007 9.95711 0)
(-0.0953802 9.96895 2.58701e-18)
(-0.0675655 9.97871 -2.55642e-18)
(-0.0467672 9.98658 2.41631e-18)
(-0.0312664 9.99262 0)
(-0.019964 9.99697 0)
(-0.0119462 9.99982 2.04307e-18)
(-0.0064595 10.0014 -1.92986e-18)
(-0.00290373 10.002 1.19407e-22)
(-0.000818612 10.0018 8.59773e-19)
(0.000187266 10.0013 -8.1089e-19)
(0.000474907 10.0005 -7.63601e-19)
(0.000180711 10.0001 0)
(-0.169188 9.94331 0)
(-0.218749 9.92866 0)
(-0.278727 9.91423 0)
(-0.350381 9.90158 0)
(-0.434846 9.89289 0)
(-0.532916 9.89105 0)
(-0.644828 9.8997 0)
(-0.76999 9.9233 0)
(-0.906617 9.96697 0)
(-1.05134 10.0363 0)
(-1.19883 10.1368 0)
(-1.34153 10.2734 0)
(-1.46964 10.4497 0)
(-1.57188 10.6654 0)
(-1.64143 10.9099 0)
(-1.67687 11.1707 0)
(-1.67598 11.44 0)
(-1.65156 11.7284 0)
(-1.59888 12.0318 0)
(-1.50496 12.3239 0)
(-1.36866 12.5989 0)
(-1.21035 12.8467 0)
(-1.05716 13.0648 0)
(-0.912275 13.2577 0)
(-0.777505 13.4281 0)
(-0.653548 13.5771 0)
(-0.540457 13.7038 0)
(-0.437767 13.8048 0)
(-0.344916 13.8739 0)
(-0.260782 13.9023 0)
(-0.184861 13.8733 0)
(-0.117047 13.7239 0)
(-0.0568231 13.1363 0)
(-0.0149912 11.2716 0)
(-0.167429 9.93889 0)
(-0.126069 9.95351 0)
(-0.0911703 9.96602 2.68888e-18)
(-0.0647343 9.97649 -5.09972e-18)
(-0.0447033 9.9849 4.82336e-18)
(-0.0298116 9.99137 -4.55983e-18)
(-0.0189896 9.99604 0)
(-0.0113384 9.99914 2.03453e-18)
(-0.00612238 10.0009 -1.92022e-18)
(-0.00275822 10.0016 -1.81252e-18)
(-0.000796069 10.0016 0)
(0.00014463 10.0011 8.05171e-19)
(0.000417537 10.0004 0)
(0.000156395 10 0)
(-0.216032 9.92236 0)
(-0.275292 9.90536 0)
(-0.346174 9.88925 0)
(-0.429902 9.87594 0)
(-0.527479 9.86801 0)
(-0.639454 9.86882 0)
(-0.765684 9.88249 0)
(-0.905024 9.91388 0)
(-1.05495 9.96846 0)
(-1.21118 10.0519 0)
(-1.36737 10.1697 0)
(-1.51492 10.3263 0)
(-1.64304 10.5243 0)
(-1.73989 10.7621 0)
(-1.79928 11.0272 0)
(-1.82108 11.305 0)
(-1.8191 11.6051 0)
(-1.78773 11.9236 0)
(-1.71143 12.2338 0)
(-1.59487 12.5267 0)
(-1.43763 12.7979 0)
(-1.2617 13.0389 0)
(-1.09489 13.2485 0)
(-0.939608 13.432 0)
(-0.797022 13.593 0)
(-0.667271 13.7327 0)
(-0.549895 13.8504 0)
(-0.444086 13.943 0)
(-0.348988 14.0047 0)
(-0.263337 14.0265 0)
(-0.186318 13.9911 0)
(-0.117937 13.8336 0)
(-0.0571604 13.2297 0)
(-0.0152063 11.3386 0)
(-0.21382 9.91677 0)
(-0.16357 9.93434 0)
(-0.120366 9.94984 0)
(-0.0872584 9.96322 5.36337e-18)
(-0.0618005 9.97437 -5.07559e-18)
(-0.0425596 9.98331 4.79972e-18)
(-0.0283037 9.99018 0)
(-0.0179769 9.99516 -2.14283e-18)
(-0.0107029 9.99849 0)
(-0.00576619 10.0005 1.90985e-18)
(-0.00259858 10.0013 0)
(-0.000764506 10.0014 0)
(0.000109229 10.001 0)
(0.000365589 10.0004 7.78399e-19)
(0.000135179 10 3.74937e-19)
(-0.27192 9.89749 0)
(-0.341999 9.87828 0)
(-0.424907 9.86084 0)
(-0.521762 9.84747 0)
(-0.633377 9.8412 0)
(-0.759988 9.84583 0)
(-0.90098 9.86595 0)
(-1.05455 9.90682 0)
(-1.21736 9.97412 0)
(-1.38414 10.0736 0)
(-1.54754 10.2103 0)
(-1.69792 10.3881 0)
(-1.82365 10.6085 0)
(-1.91252 10.8687 0)
(-1.95921 11.1533 0)
(-1.98207 11.4639 0)
(-1.97457 11.7967 0)
(-1.91827 12.1247 0)
(-1.81749 12.4378 0)
(-1.67821 12.7284 0)
(-1.50057 12.9934 0)
(-1.30792 13.2257 0)
(-1.12844 13.4256 0)
(-0.963643 13.5991 0)
(-0.813989 13.7501 0)
(-0.679069 13.8803 0)
(-0.557924 13.989 0)
(-0.449397 14.0733 0)
(-0.352362 14.1276 0)
(-0.265424 14.1429 0)
(-0.187479 14.1012 0)
(-0.118638 13.936 0)
(-0.0574176 13.3168 0)
(-0.0153709 11.4013 0)
(-0.269201 9.8905 0)
(-0.208845 9.91107 0)
(-0.15601 9.92977 5.9818e-18)
(-0.115096 9.94636 5.66392e-18)
(-0.083213 9.96058 5.35786e-18)
(-0.0587634 9.97238 -5.06517e-18)
(-0.0403467 9.98182 0)
(-0.0267445 9.98906 0)
(-0.016927 9.99433 0)
(-0.0100412 9.99789 4.02666e-18)
(-0.00539303 10 1.89906e-18)
(-0.0024252 10.001 1.78902e-18)
(-0.000723943 10.0012 0)
(8.03367e-05 10.0009 -8.207e-19)
(0.000318893 10.0004 -3.96016e-19)
(0.000116588 10 0)
(-0.337893 9.86853 0)
(-0.419927 9.8474 0)
(-0.515948 9.82915 0)
(-0.62691 9.81651 0)
(-0.753379 9.81298 0)
(-0.895193 9.82281 0)
(-1.05116 9.85102 0)
(-1.21874 9.90316 0)
(-1.39369 9.98505 0)
(-1.56977 10.1023 0)
(-1.73856 10.2594 0)
(-1.88953 10.4595 0)
(-2.01036 10.7029 0)
(-2.08854 10.9847 0)
(-2.13894 11.3042 0)
(-2.15823 11.6502 0)
(-2.12475 11.996 0)
(-2.04217 12.3296 0)
(-1.91645 12.6422 0)
(-1.75473 12.9277 0)
(-1.55749 13.1843 0)
(-1.34914 13.4064 0)
(-1.15802 13.5956 0)
(-0.984607 13.7585 0)
(-0.828628 13.8993 0)
(-0.68913 14.0198 0)
(-0.564694 14.1196 0)
(-0.45382 14.1958 0)
(-0.355128 14.2429 0)
(-0.267106 14.2518 0)
(-0.188385 14.2041 0)
(-0.11918 14.0315 0)
(-0.0576057 13.398 0)
(-0.0154962 11.4599 0)
(-0.334621 9.85988 0)
(-0.26289 9.88341 0)
(-0.199007 9.90543 -1.25845e-17)
(-0.149054 9.92545 1.78203e-20)