/*--------------------------------*- C++ -*----------------------------------*\
  =========                 |
  \\      /  F ield         | OpenFOAM: The Open Source CFD Toolbox
   \\    /   O peration     | Website:  https://openfoam.org
    \\  /    A nd           | Version:  8
     \\/     M anipulation  |
\*---------------------------------------------------------------------------*/
FoamFile
{
    version     2.0;
    format      ascii;
    class       volVectorField;
    location    "0.38";
    object      U;
}
// * * * * * * * * * * * * * * * * * * * * * * * * * * * * * * * * * * * * * //

dimensions      [0 1 -1 0 0 0 0];

internalField   nonuniform List<vector> 
15677
(
(-0.0199261 9.66515 0)
(0.0435551 9.9209 0)
(0.00237718 9.37843 0)
(0.0147152 9.97653 0)
(0.0185917 9.78816 0)
(0.00701396 9.14308 0)
(0.0279303 9.99439 0)
(0.0170701 9.92518 0)
(0.0107172 9.65573 0)
(0.0060834 8.96095 0)
(0.0260615 10.0016 0)
(0.0214483 9.97893 0)
(0.0163625 9.85418 0)
(0.00901556 9.5313 0)
(0.00491765 8.81757 0)
(0.0248943 10.0048 0)
(0.0222979 10.003 0)
(0.0191306 9.94368 0)
(0.0153617 9.78032 0)
(0.00789658 9.4204 0)
(0.00405755 8.70267 0)
(0.0238974 10.0062 0)
(0.0224522 10.0146 0)
(0.0207187 9.98688 0)
(0.0182619 9.90344 0)
(0.0139241 9.70895 0)
(0.00684434 9.32198 0)
(0.00339925 8.60972 0)
(0.0225404 10.0068 0)
(0.0222551 10.0203 0)
(0.0215201 10.0089 0)
(0.0201487 9.96605 0)
(0.0170779 9.86299 0)
(0.0125338 9.64153 0)
(0.00591652 9.23611 0)
(0.00284901 8.53478 0)
(0.0208331 10.0067 0)
(0.021681 10.0227 0)
(0.0218162 10.0203 0)
(0.0212224 9.99919 0)
(0.0191227 9.9449 0)
(0.0157528 9.82324 0)
(0.0112113 9.57967 0)
(0.00505882 9.16288 0)
(0.00234211 8.47516 0)
(0.0188904 10.0063 0)
(0.0208104 10.0229 0)
(0.0216728 10.0263 0)
(0.0217039 10.0173 0)
(0.0202996 9.9894 0)
(0.0178431 9.92388 0)
(0.0143467 9.78569 0)
(0.00985985 9.52481 0)
(0.00421253 9.10214 0)
(0.00184033 8.42941 0)
(0.0167861 10.0058 0)
(0.0197008 10.0221 0)
(0.0211829 10.0292 0)
(0.0217172 10.0274 0)
(0.0208536 10.0144 0)
(0.019023 9.97977 0)
(0.0163866 9.90414 0)
(0.0127849 9.75183 0)
(0.00841415 9.47801 0)
(0.00333243 9.05371 0)
(0.0013152 8.39658 0)
(0.0145633 10.0051 0)
(0.0183575 10.0206 0)
(0.0203768 10.03 0)
(0.0213705 10.0328 0)
(0.0209038 10.0286 0)
(0.0195195 10.0116 0)
(0.0174717 9.97125 0)
(0.014661 9.88691 0)
(0.0109997 9.7229 0)
(0.00682502 9.44009 0)
(0.00237879 9.0176 0)
(0.000743913 8.37644 0)
(0.0122086 10.0044 0)
(0.0168547 10.0187 0)
(0.0192711 10.0293 0)
(0.0206816 10.0352 0)
(0.0205241 10.0366 0)
(0.0194822 10.0301 0)
(0.0178153 10.0099 0)
(0.015538 9.96493 0)
(0.0125809 9.87327 0)
(0.00893083 9.70001 0)
(0.0050433 9.41185 0)
(0.00131845 8.99388 0)
(9.37593e-05 8.36878 0)
(0.00989735 10.0036 0)
(0.0152977 10.0164 0)
(0.0179035 10.0276 0)
(0.019668 10.0356 0)
(0.0198145 10.0408 0)
(0.0190003 10.0408 0)
(0.0175789 10.0326 0)
(0.0156111 10.0103 0)
(0.0131194 9.96174 0)
(0.010069 9.86423 0)
(0.00651627 9.68425 0)
(0.00302279 9.39398 0)
(0.000137197 8.98275 0)
(-0.000546706 8.37362 0)
(0.00791259 10.0029 0)
(0.0136222 10.0139 0)
(0.0163303 10.0252 0)
(0.0183435 10.0345 0)
(0.0187619 10.0423 0)
(0.0181309 10.0467 0)
(0.016856 10.046 0)
(0.0150431 10.0371 0)
(0.0127828 10.0136 0)
(0.0101178 9.96259 0)
(0.00704512 9.86084 0)
(0.00369461 9.67664 0)
(0.000716782 9.38713 0)
(-0.00121222 8.98451 0)
(-0.00131836 8.39104 0)
(0.00634129 10.0023 0)
(0.0120025 10.0116 0)
(0.014578 10.0223 0)
(0.0167207 10.0324 0)
(0.0173749 10.0419 0)
(0.0168876 10.0494 0)
(0.0156935 10.0537 0)
(0.0139291 10.0531 0)
(0.0117297 10.0444 0)
(0.0092102 10.0207 0)
(0.00642998 9.96844 0)
(0.00342903 9.86414 0)
(0.000398629 9.67817 0)
(-0.00191661 9.39194 0)
(-0.00274384 8.99937 0)
(-0.00218875 8.42134 0)
(0.00515475 10.0018 0)
(0.0105326 10.0096 0)
(0.0128595 10.0195 0)
(0.0148271 10.0295 0)
(0.0156582 10.0401 0)
(0.0152772 10.0498 0)
(0.0141101 10.0575 0)
(0.0123137 10.0624 0)
(0.0100533 10.0629 0)
(0.00749437 10.0554 0)
(0.00476588 10.0325 0)
(0.00195562 9.98024 0)
(-0.000839531 9.87512 0)
(-0.00337755 9.68969 0)
(-0.00487701 9.40898 0)
(-0.00445878 9.02756 0)
(-0.00315462 8.46458 0)
(0.00416124 10.0014 0)
(0.00909493 10.0079 0)
(0.0112921 10.017 0)
(0.0129109 10.0264 0)
(0.0136252 10.0372 0)
(0.0133028 10.0484 0)
(0.0121103 10.0586 0)
(0.0102135 10.0673 0)
(0.00779506 10.0738 0)
(0.00505764 10.0762 0)
(0.00218453 10.0708 0)
(-0.000678183 10.0499 0)
(-0.00341048 9.99891 0)
(-0.00586387 9.89473 0)
(-0.00771294 9.71202 0)
(-0.00821493 9.43865 0)
(-0.00636637 9.06916 0)
(-0.00421332 8.52079 0)
(0.00334937 10.0012 0)
(0.00779903 10.0066 0)
(0.00980978 10.0148 0)
(0.0111367 10.0237 0)
(0.0115291 10.0339 0)
(0.0109741 10.0456 0)
(0.00969535 10.0575 0)
(0.0076308 10.069 0)
(0.0049659 10.0796 0)
(0.00193484 10.0885 0)
(-0.00124031 10.0938 0)
(-0.00436327 10.0915 0)
(-0.00725425 10.0737 0)
(-0.009757 10.0254 0)
(-0.011678 9.92384 0)
(-0.0126397 9.74578 0)
(-0.0119444 9.48126 0)
(-0.00847174 9.12427 0)
(-0.00536308 8.58983 0)
(0.00268367 10.001 0)
(0.00662482 10.0056 0)
(0.00844744 10.013 0)
(0.00946897 10.0212 0)
(0.00956345 10.0308 0)
(0.00857285 10.0421 0)
(0.00687487 10.0548 0)
(0.00456533 10.0682 0)
(0.0015613 10.0818 0)
(-0.00186983 10.0952 0)
(-0.00548402 10.1074 0)
(-0.0090366 10.1165 0)
(-0.0123004 10.1185 0)
(-0.0150682 10.1048 0)
(-0.0171514 10.0604 0)
(-0.0183169 9.96317 0)
(-0.0181659 9.79148 0)
(-0.01606 9.53694 0)
(-0.0107624 9.19265 0)
(-0.00659269 8.67135 0)
(0.00213262 10.0008 0)
(0.00555782 10.0047 0)
(0.00718961 10.0114 0)
(0.00792062 10.0189 0)
(0.00770552 10.0278 0)
(0.00632451 10.0386 0)
(0.00398622 10.0511 0)
(0.00102561 10.0655 0)
(-0.00241086 10.0812 0)
(-0.00636395 10.0978 0)
(-0.0105498 10.1147 0)
(-0.014689 10.1312 0)
(-0.018512 10.1452 0)
(-0.0217641 10.1523 0)
(-0.024214 10.144 0)
(-0.0256438 10.1049 0)
(-0.0257986 10.0133 0)
(-0.0242833 9.84937 0)
(-0.0205471 9.60566 0)
(-0.0132299 9.2741 0)
(-0.00789431 8.76492 0)
(0.00169143 10.0007 0)
(0.00459312 10.004 0)
(0.00603246 10.01 0)
(0.00649449 10.0169 0)
(0.0059748 10.0251 0)
(0.00420703 10.0351 0)
(0.0012955 10.0471 0)
(-0.00256318 10.0614 0)
(-0.00693535 10.0783 0)
(-0.0115457 10.0972 0)
(-0.0164529 10.1176 0)
(-0.0213412 10.1391 0)
(-0.0259003 10.1609 0)
(-0.0298356 10.1807 0)
(-0.0328712 10.194 0)
(-0.0347557 10.1919 0)
(-0.035257 10.1592 0)
(-0.0341137 10.0746 0)
(-0.0309686 9.91958 0)
(-0.0253754 9.68718 0)
(-0.0158432 9.36797 0)
(-0.0092463 8.86968 0)
(0.00135004 10.0006 0)
(0.00376522 10.0035 0)
(0.00497463 10.0088 0)
(0.00519261 10.0151 0)
(0.00438486 10.0226 0)
(0.00224736 10.0318 0)
(-0.00121985 10.0431 0)
(-0.00587823 10.0568 0)
(-0.0114888 10.0736 0)
(-0.0173942 10.0938 0)
(-0.0231972 10.1168 0)
(-0.029019 10.142 0)
(-0.034506 10.169 0)
(-0.0393205 10.197 0)
(-0.0431489 10.2236 0)
(-0.045702 10.244 0)
(-0.0467223 10.2492 0)
(-0.0459786 10.2239 0)
(-0.0432297 10.1474 0)
(-0.0381749 10.002 0)
(-0.030501 9.78103 0)
(-0.018581 9.47369 0)
(-0.0106305 8.98491 0)
(0.00108263 10.0005 0)
(0.00309089 10.003 0)
(0.00405372 10.0078 0)
(0.00401418 10.0135 0)
(0.00294316 10.0202 0)
(0.000462152 10.0287 0)
(-0.00352392 10.0391 0)
(-0.00896155 10.0521 0)
(-0.0156702 10.0683 0)
(-0.0232335 10.0884 0)
(-0.0307555 10.1127 0)
(-0.0377305 10.1407 0)
(-0.0443693 10.1717 0)
(-0.0502846 10.2053 0)
(-0.0551197 10.2405 0)
(-0.0585525 10.2747 0)
(-0.0602953 10.303 0)
(-0.0601026 10.3163 0)
(-0.0577652 10.2992 0)
(-0.0530803 10.2314 0)
(-0.045836 10.0962 0)
(-0.0358689 9.88659 0)
(-0.0213854 9.5902 0)
(-0.0120076 9.10898 0)
(0.000869421 10.0004 0)
(0.00254342 10.0027 0)
(0.00329079 10.007 0)
(0.00300162 10.012 0)
(0.00165313 10.0181 0)
(-0.00113302 10.0257 0)
(-0.00559631 10.0352 0)
(-0.0117646 10.0472 0)
(-0.0195324 10.0626 0)
(-0.0285669 10.0821 0)
(-0.038257 10.1063 0)
(-0.047442 10.1358 0)
(-0.0555055 10.1698 0)
(-0.0627885 10.2076 0)
(-0.0688817 10.2487 0)
(-0.0734227 10.2918 0)
(-0.0760978 10.3344 0)
(-0.0766416 10.3714 0)
(-0.0748413 10.3934 0)
(-0.0705321 10.3851 0)
(-0.063577 10.3267 0)
(-0.0538641 10.2016 0)
(-0.0413666 10.0029 0)
(-0.0241452 9.71621 0)
(-0.0129394 9.24017 0)
(0.000696948 10.0004 0)
(0.00209635 10.0024 0)
(0.00266172 10.0063 0)
(0.00217674 10.0108 0)
(0.000565004 10.0161 0)
(-0.00253024 10.0228 0)
(-0.00741769 10.0314 0)
(-0.0142534 10.0423 0)
(-0.0230169 10.0566 0)
(-0.0334658 10.0751 0)
(-0.045081 10.0987 0)
(-0.0570416 10.128 0)
(-0.0678746 10.1637 0)
(-0.0768586 10.2048 0)
(-0.0845222 10.2503 0)
(-0.0904506 10.2997 0)
(-0.0942958 10.3516 0)
(-0.0957765 10.4032 0)
(-0.0946758 10.4494 0)
(-0.0908397 10.4805 0)
(-0.0841648 10.4814 0)
(-0.0745949 10.4325 0)
(-0.0621162 10.3176 0)
(-0.0469427 10.1289 0)
(-0.0268755 9.85142 0)
(-0.0139748 9.37847 0)
(0.000555731 10.0004 0)
(0.00172909 10.0022 0)
(0.00214136 10.0057 0)
(0.00150921 10.0098 0)
(-0.000299318 10.0145 0)
(-0.00367799 10.0203 0)
(-0.00897607 10.0277 0)
(-0.016404 10.0376 0)
(-0.0260794 10.0506 0)
(-0.0378595 10.0677 0)
(-0.0513256 10.0901 0)
(-0.065751 10.1187 0)
(-0.0800704 10.1542 0)
(-0.092451 10.1971 0)
(-0.102083 10.2463 0)
(-0.109756 10.3005 0)
(-0.115076 10.359 0)
(-0.117737 10.4203 0)
(-0.117522 10.4815 0)
(-0.114287 10.5371 0)
(-0.107953 10.5776 0)
(-0.0985034 10.5878 0)
(-0.085957 10.5482 0)
(-0.0704387 10.4429 0)
(-0.051708 10.2637 0)
(-0.0232126 9.98927 0)
(-0.00896303 9.46138 0)
(0.000438896 10.0003 0)
(0.00142558 10.002 0)
(0.00170911 10.0053 0)
(0.000968206 10.0089 0)
(-0.000977415 10.0131 0)
(-0.00455859 10.018 0)
(-0.0102105 10.0244 0)
(-0.0181994 10.0329 0)
(-0.0286871 10.0445 0)
(-0.0416917 10.0601 0)
(-0.0569044 10.081 0)
(-0.0737036 10.1083 0)
(-0.0911192 10.1429 0)
(-0.107803 10.1855 0)
(-0.121518 10.2368 0)
(-0.131406 10.2951 0)
(-0.138605 10.3588 0)
(-0.142772 10.427 0)
(-0.143678 10.4982 0)
(-0.141199 10.5691 0)
(-0.135294 10.6344 0)
(-0.125987 10.6843 0)
(-0.113327 10.7035 0)
(-0.0974485 10.673 0)
(-0.0782503 10.5767 0)
(-0.0563032 10.4042 0)
(-0.0188226 10.1578 0)
(-0.00122379 9.52443 0)
(0.000341401 10.0003 0)
(0.0011732 10.0019 0)
(0.00134907 10.0049 0)
(0.000528794 10.0082 0)
(-0.00150814 10.0118 0)
(-0.00522034 10.0161 0)
(-0.0111128 10.0214 0)
(-0.0195685 10.0285 0)
(-0.0308166 10.0384 0)
(-0.0449183 10.0524 0)
(-0.0617455 10.0715 0)
(-0.0807929 10.097 0)
(-0.101199 10.1301 0)
(-0.121705 10.1718 0)
(-0.140647 10.2227 0)
(-0.155359 10.2833 0)
(-0.164981 10.3516 0)
(-0.171094 10.4255 0)
(-0.173455 10.504 0)
(-0.171957 10.5853 0)
(-0.166601 10.6662 0)
(-0.157468 10.741 0)
(-0.144677 10.7999 0)
(-0.128373 10.8279 0)
(-0.108534 10.8059 0)
(-0.0850743 10.7177 0)
(-0.0599492 10.5583 0)
(-0.02065 10.3279 0)
(0.00289177 9.57894 0)
(0.000259703 10.0003 0)
(0.000962177 10.0017 0)
(0.00104878 10.0045 0)
(0.000170475 10.0076 0)
(-0.0019228 10.0108 0)
(-0.00571079 10.0144 0)
(-0.0117477 10.0188 0)
(-0.0205141 10.0246 0)
(-0.0323835 10.0327 0)
(-0.0475071 10.0447 0)
(-0.0657908 10.0618 0)
(-0.0869276 10.0851 0)
(-0.110178 10.1161 0)
(-0.13439 10.1561 0)
(-0.157979 10.206 0)
(-0.178949 10.2663 0)
(-0.194166 10.3372 0)
(-0.20284 10.4164 0)
(-0.207135 10.5011 0)
(-0.206954 10.5902 0)
(-0.202345 10.6817 0)
(-0.193463 10.7724 0)
(-0.180514 10.8563 0)
(-0.163718 10.924 0)
(-0.143141 10.9602 0)
(-0.118674 10.9462 0)
(-0.0904566 10.8666 0)
(-0.0612412 10.725 0)
(-0.0239278 10.4948 0)
(0.00382966 9.63295 0)
(0.000190714 10.0003 0)
(0.000784596 10.0016 0)
(0.000794849 10.0042 0)
(-0.000122132 10.007 0)
(-0.00224584 10.0099 0)
(-0.00606813 10.013 0)
(-0.0121763 10.0166 0)
(-0.0211231 10.0211 0)
(-0.0334038 10.0276 0)
(-0.0493552 10.0373 0)
(-0.0689967 10.0519 0)
(-0.0920324 10.0728 0)
(-0.117942 10.1014 0)
(-0.145697 10.139 0)
(-0.17381 10.1871 0)
(-0.200346 10.2463 0)
(-0.222938 10.3169 0)
(-0.238002 10.3992 0)
(-0.244915 10.4898 0)
(-0.246555 10.5856 0)
(-0.243022 10.6855 0)
(-0.234551 10.7872 0)
(-0.221457 10.8872 0)
(-0.204082 10.9799 0)
(-0.182651 11.0556 0)
(-0.1572 11.0996 0)
(-0.128061 11.0935 0)
(-0.0954267 11.0236 0)
(-0.0628641 10.899 0)
(-0.0265679 10.657 0)
(0.00345023 9.703 0)
(0.000131822 10.0002 0)
(0.000634428 10.0015 0)
(0.00057967 10.004 0)
(-0.000360433 10.0066 0)
(-0.00249681 10.0091 0)
(-0.00632255 10.0117 0)
(-0.0124475 10.0146 0)
(-0.0214758 10.0181 0)
(-0.0339941 10.0231 0)
(-0.050495 10.0306 0)
(-0.0712346 10.0423 0)
(-0.0960485 10.0602 0)
(-0.124394 10.086 0)
(-0.155481 10.1208 0)
(-0.187945 10.1662 0)
(-0.219928 10.2235 0)
(-0.249089 10.2931 0)
(-0.272729 10.3751 0)
(-0.286822 10.4694 0)
(-0.291031 10.572 0)
(-0.289087 10.6793 0)
(-0.281326 10.7898 0)
(-0.2682 10.9013 0)
(-0.250193 11.0103 0)
(-0.227734 11.111 0)
(-0.20109 11.1943 0)
(-0.170706 11.2456 0)
(-0.137368 11.247 0)
(-0.101184 11.1877 0)
(-0.0652985 11.075 0)
(-0.0292956 10.8334 0)
(0.00237566 9.78366 0)
(8.16691e-05 10.0002 0)
(0.000507161 10.0015 0)
(0.000397696 10.0038 0)
(-0.000556534 10.0061 0)
(-0.00269092 10.0084 0)
(-0.00649797 10.0106 0)
(-0.0126001 10.0128 0)
(-0.0216365 10.0155 0)
(-0.0342602 10.0191 0)
(-0.0510811 10.0247 0)
(-0.0725553 10.0337 0)
(-0.0988128 10.0481 0)
(-0.129454 10.0702 0)
(-0.163618 10.1017 0)
(-0.200203 10.1439 0)
(-0.237454 10.1983 0)
(-0.273085 10.2659 0)
(-0.304373 10.3471 0)
(-0.328311 10.4414 0)
(-0.340458 10.5484 0)
(-0.340895 10.6633 0)
(-0.334353 10.7819 0)
(-0.321449 10.9027 0)
(-0.302862 11.0235 0)
(-0.279231 11.1408 0)
(-0.251096 11.2491 0)
(-0.219059 11.3393 0)
(-0.184009 11.3973 0)
(-0.146948 11.4056 0)
(-0.107688 11.3557 0)
(-0.068956 11.2713 0)
(-0.0321699 11.0238 0)
(0.000715406 9.87309 0)
(3.80121e-05 10.0002 0)
(0.000398625 10.0014 0)
(0.000243897 10.0036 0)
(-0.00071914 10.0058 0)
(-0.00284056 10.0078 0)
(-0.00661323 10.0096 0)
(-0.0126644 10.0113 0)
(-0.0216557 10.0131 0)
(-0.0342867 10.0155 0)
(-0.0512528 10.0194 0)
(-0.0731619 10.026 0)
(-0.100396 10.0371 0)
(-0.132915 10.0548 0)
(-0.170005 10.082 0)
(-0.210426 10.1205 0)
(-0.252703 10.1713 0)
(-0.294634 10.2359 0)
(-0.333505 10.315 0)
(-0.366231 10.4087 0)
(-0.389527 10.516 0)
(-0.398598 10.6361 0)
(-0.394099 10.7635 0)
(-0.381899 10.8932 0)
(-0.362922 11.0239 0)
(-0.338082 11.1534 0)
(-0.308191 11.2782 0)
(-0.274085 11.3933 0)
(-0.236759 11.4897 0)
(-0.19735 11.5535 0)
(-0.156709 11.5673 0)
(-0.115158 11.5458 0)
(-0.0734959 11.4861 0)
(-0.0351784 11.2092 0)
(-0.00112533 9.96937 0)
(-5.83686e-07 10.0002 0)
(0.000305154 10.0013 0)
(0.000112682 10.0034 0)
(-0.000854377 10.0055 0)
(-0.00295528 10.0073 0)
(-0.00668306 10.0088 0)
(-0.012664 10.01 0)
(-0.021573 10.0111 0)
(-0.03414 10.0124 0)
(-0.051121 10.0148 0)
(-0.0732361 10.0192 0)
(-0.101061 10.0272 0)
(-0.134867 10.0408 0)
(-0.174372 10.0628 0)
(-0.218479 10.0962 0)
(-0.265477 10.1428 0)
(-0.313465 10.2035 0)
(-0.359777 10.2796 0)
(-0.401274 10.3713 0)
(-0.434534 10.4784 0)
(-0.456071 10.5993 0)
(-0.460813 10.7328 0)
(-0.450148 10.8724 0)
(-0.43121 11.0129 0)
(-0.405254 11.1528 0)
(-0.373448 11.2902 0)
(-0.336893 11.4219 0)
(-0.296781 11.5428 0)
(-0.254358 11.6445 0)
(-0.210701 11.7123 0)
(-0.167396 11.7502 0)
(-0.123264 11.7562 0)
(-0.078329 11.6963 0)
(-0.0380837 11.3892 0)
(-0.0028977 10.0701 0)
(0.000224742 10.0013 0)
(-4.4945e-05 10.0002 0)
(-4.2308e-07 10.0033 0)
(-0.000966921 10.0052 0)
(-0.00304262 10.0068 0)
(-0.00671884 10.0081 0)
(-0.0126174 10.0088 0)
(-0.0214189 10.0093 0)
(-0.0338719 10.0097 0)
(-0.0507729 10.0107 0)
(-0.0729226 10.0131 0)
(-0.101042 10.0183 0)
(-0.135645 10.0282 0)
(-0.17683 10.0452 0)
(-0.224014 10.0724 0)
(-0.2756 10.1131 0)
(-0.32933 10.1692 0)
(-0.382856 10.2411 0)
(-0.433029 10.3298 0)
(-0.476307 10.4353 0)
(-0.508993 10.5565 0)
(-0.5275 10.6914 0)
(-0.526568 10.8382 0)
(-0.508472 10.9897 0)
(-0.481742 11.1404 0)
(-0.447982 11.2887 0)
(-0.408681 11.4332 0)
(-0.365284 11.5707 0)
(-0.319229 11.6966 0)
(-0.271785 11.8017 0)
(-0.225312 11.8915 0)
(-0.17877 11.9532 0)
(-0.131057 11.9638 0)
(-0.0831166 11.9007 0)
(-0.0407572 11.5633 0)
(-0.00456238 10.1734 0)
(-9.97466e-05 10.0031 0)
(0.000133425 10.0012 0)
(-9.6627e-05 10.0002 0)
(-0.00106219 10.005 0)
(-0.00310883 10.0064 0)
(-0.00672924 10.0074 0)
(-0.0125386 10.0078 0)
(-0.021217 10.0077 0)
(-0.0335221 10.0073 0)
(-0.0502762 10.007 0)
(-0.0723354 10.0077 0)
(-0.100527 10.0105 0)
(-0.135548 10.0169 0)
(-0.1778 10.0293 0)
(-0.227156 10.0505 0)
(-0.282624 10.0839 0)
(-0.342002 10.1333 0)
(-0.402434 10.2003 0)
(-0.461094 10.2847 0)
(-0.514362 10.3872 0)
(-0.558347 10.5072 0)
(-0.58917 10.6431 0)
(-0.603251 10.7922 0)
(-0.59524 10.9522 0)
(-0.568466 11.1151 0)
(-0.532964 11.275 0)
(-0.490726 11.431 0)
(-0.443596 11.5814 0)
(-0.393284 11.7238 0)
(-0.341291 11.8528 0)
(-0.29076 11.9789 0)
(-0.240753 12.09 0)
(-0.189529 12.1543 0)
(-0.138354 12.1667 0)
(-0.0876263 12.0978 0)
(-0.0431411 11.7309 0)
(-0.00610476 10.2773 0)
(-0.00114579 10.0048 0)
(-0.000204772 10.003 0)
(2.03686e-05 10.0011 0)
(-0.000146326 10.0002 3.85442e-20)
(-0.00316017 10.0061 0)
(-0.00672134 10.0068 0)
(-0.0124379 10.0069 0)
(-0.0209848 10.0063 0)
(-0.0331211 10.0051 0)
(-0.049683 10.0038 0)
(-0.0715628 10.003 0)
(-0.0996624 10.0035 0)
(-0.134817 10.0069 0)
(-0.177658 10.0151 0)
(-0.228428 10.0307 0)
(-0.286681 10.057 0)
(-0.350908 10.0979 0)
(-0.418224 10.1574 0)
(-0.485089 10.2366 0)
(-0.548221 10.3349 0)
(-0.60357 10.4523 0)
(-0.646975 10.5876 0)
(-0.674485 10.7385 0)
(-0.682652 10.9017 0)
(-0.666148 11.0743 0)
(-0.629514 11.2478 0)
(-0.58439 11.4161 0)
(-0.533171 11.5786 0)
(-0.477992 11.7339 0)
(-0.420689 11.8794 0)
(-0.365195 12.029 0)
(-0.310719 12.1751 0)
(-0.255188 12.2865 0)
(-0.199517 12.3515 0)
(-0.14501 12.3632 0)
(-0.0917392 12.287 0)
(-0.0452051 11.8916 0)
(-0.00749256 10.3803 0)
(-0.00320498 10.0058 0)
(-0.0012192 10.0045 0)
(-0.000327785 10.0028 1.75382e-19)
(-8.85613e-05 10.0011 -1.22199e-19)
(-0.000194522 10.0002 -7.56554e-20)
(-0.00670229 10.0063 0)
(-0.0123233 10.0061 0)
(-0.0207352 10.005 0)
(-0.0326917 10.0033 0)
(-0.0490328 10.001 0)
(-0.0706727 9.99875 0)
(-0.0985638 9.99733 0)
(-0.13364 9.99795 0)
(-0.176708 10.0023 0)
(-0.228298 10.0129 0)
(-0.288407 10.0325 0)
(-0.356174 10.0651 0)
(-0.429491 10.1148 0)
(-0.504653 10.1858 0)
(-0.577422 10.2787 0)
(-0.644097 10.3921 0)
(-0.70027 10.5253 0)
(-0.741613 10.6765 0)
(-0.764232 10.8426 0)
(-0.764954 11.0195 0)
(-0.738582 11.2041 0)
(-0.691017 11.3873 0)
(-0.635578 11.5629 0)
(-0.574997 11.7306 0)
(-0.511592 11.8892 0)
(-0.450295 12.0551 0)
(-0.390295 12.2243 0)
(-0.329274 12.3695 0)
(-0.268469 12.4794 0)
(-0.208592 12.543 0)
(-0.150954 12.5523 0)
(-0.0954009 12.4678 0)
(-0.0469541 12.0451 0)
(-0.00871566 10.4811 0)
(-0.00668512 10.0059 0)
(-0.00320977 10.0054 -3.96104e-19)
(-0.00129552 10.0042 -1.8533e-19)
(-0.000444236 10.0026 8.60828e-20)
(-0.000191608 10.001 -7.99308e-20)
(-0.000241521 10.0002 0)
(-0.012203 10.0054 0)
(-0.0204774 10.004 0)
(-0.0322498 10.0016 0)
(-0.0483552 9.99849 0)
(-0.0697165 9.99503 0)
(-0.0973186 9.99186 0)
(-0.132165 9.99002 0)
(-0.17519 9.99101 0)
(-0.227145 9.99693 0)
(-0.28838 10.0105 0)
(-0.358563 10.0353 0)
(-0.436336 10.0753 0)
(-0.518852 10.1353 0)
(-0.601515 10.2193 0)
(-0.679376 10.3273 0)
(-0.748398 10.457 0)
(-0.803908 10.6068 0)
(-0.841541 10.7742 0)
(-0.857608 10.9552 0)
(-0.849352 11.1453 0)
(-0.811819 11.341 0)
(-0.752398 11.5327 0)
(-0.686087 11.7142 0)
(-0.615851 11.8856 0)
(-0.547839 12.0647 0)
(-0.481361 12.2501 0)
(-0.413594 12.4178 0)
(-0.346277 12.5602 0)
(-0.280465 12.667 0)
(-0.216683 12.7278 0)
(-0.156168 12.7332 0)
(-0.0985924 12.6398 0)
(-0.0484108 12.1911 0)
(-0.0097759 10.5788 0)
(-0.0120973 10.0048 0)
(-0.00658143 10.0054 8.37043e-19)
(-0.00317851 10.0049 0)
(-0.00136537 10.0039 1.81838e-19)
(-0.00055374 10.0024 4.39283e-23)
(-0.000290071 10.0009 0)
(-0.000285729 10.0001 0)
(-0.0202206 10.003 0)
(-0.0318065 10.0001 0)
(-0.0476706 9.99629 0)
(-0.0687328 9.99174 0)
(-0.0959938 9.98702 0)
(-0.130503 9.98299 0)
(-0.17329 9.98094 0)
(-0.225268 9.98271 0)
(-0.287065 9.99077 0)
(-0.358775 10.0083 0)
(-0.439663 10.0393 0)
(-0.527736 10.0882 0)
(-0.619321 10.1599 0)
(-0.708852 10.2585 0)
(-0.790706 10.383 0)
(-0.860618 10.5299 0)
(-0.913774 10.6969 0)
(-0.945925 10.8805 0)
(-0.953737 11.0761 0)
(-0.935012 11.2786 0)
(-0.885141 11.4842 0)
(-0.813088 11.683 0)
(-0.735464 11.8689 0)
(-0.659921 12.0611 0)
(-0.585887 12.2599 0)
(-0.510185 12.4435 0)
(-0.434921 12.6079 0)
(-0.36161 12.7459 0)
(-0.291117 12.8482 0)
(-0.223773 12.905 0)
(-0.160665 12.9056 0)
(-0.101325 12.8028 0)
(-0.0496052 12.3294 0)
(-0.0106814 10.6727 0)
(-0.0199961 10.0022 0)
(-0.0118367 10.0041 4.60354e-23)
(-0.0063727 10.0047 0)
(-0.00314092 10.0045 -1.92138e-19)
(-0.00142632 10.0036 3.46741e-23)
(-0.000656495 10.0022 0)
(-0.000385525 10.0009 0)
(-0.000327103 10.0001 0)
(-0.031372 9.99884 0)
(-0.0469923 9.99433 0)
(-0.0677477 9.98883 0)
(-0.0946393 9.98274 0)
(-0.128743 9.97676 0)
(-0.171152 9.972 0)
(-0.222904 9.97006 0)
(-0.284836 9.97312 0)
(-0.35738 9.98411 0)
(-0.44031 10.0066 0)
(-0.532357 10.0451 0)
(-0.630801 10.1044 0)
(-0.731049 10.1894 0)
(-0.826517 10.3042 0)
(-0.91097 10.4464 0)
(-0.980069 10.6113 0)
(-1.02902 10.7957 0)
(-1.05384 10.9953 0)
(-1.0517 11.2048 0)
(-1.0211 11.4186 0)
(-0.957848 11.6328 0)
(-0.872516 11.8371 0)
(-0.788767 12.0444 0)
(-0.706218 12.2566 0)
(-0.621216 12.4537 0)
(-0.536568 12.6338 0)
(-0.454161 12.793 0)
(-0.375226 12.9253 0)
(-0.300436 13.0222 0)
(-0.229889 13.0742 0)
(-0.164479 13.0692 0)
(-0.103623 12.9569 0)
(-0.0505668 12.4599 0)
(-0.0114441 10.7623 0)
(-0.0309938 9.99769 0)
(-0.0195195 10.0012 -4.67227e-19)
(-0.0113617 10.0032 0)
(-0.00615969 10.0041 0)
(-0.00309036 10.0041 5.65675e-19)
(-0.00147844 10.0033 0)
(-0.00075206 10.0021 0)
(-0.000476474 10.0008 1.51132e-19)
(-0.000366087 10.0001 0)
(-0.0463319 9.9926 0)
(-0.0667772 9.98625 0)
(-0.0932885 9.97894 0)
(-0.126947 9.97124 0)
(-0.168886 9.96407 0)
(-0.220234 9.95881 0)
(-0.281984 9.95739 0)
(-0.354832 9.96242 0)
(-0.438964 9.97725 0)
(-0.533708 10.006 0)
(-0.637166 10.0534 0)
(-0.745794 10.1246 0)
(-0.854002 10.2246 0)
(-0.954162 10.3569 0)
(-1.03954 10.5179 0)
(-1.10591 10.7014 0)
(-1.14867 10.9033 0)
(-1.16428 11.1184 0)
(-1.15057 11.3409 0)
(-1.1068 11.5647 0)
(-1.02925 11.7857 0)
(-0.936772 12.0124 0)
(-0.844834 12.2405 0)
(-0.74925 12.4513 0)
(-0.653575 12.6447 0)
(-0.560384 12.8193 0)
(-0.471271 12.9721 0)
(-0.38715 13.0978 0)
(-0.308475 13.1885 0)
(-0.235087 13.2349 0)
(-0.167664 13.2238 0)
(-0.105524 13.102 0)
(-0.0513245 12.5827 0)
(-0.0120774 10.8473 0)
(-0.0457595 9.99108 0)
(-0.030229 9.99643 0)
(-0.018666 10.0001 -4.61969e-19)
(-0.0108867 10.0024 -4.2903e-19)
(-0.00592867 10.0035 -7.96935e-19)
(-0.00302736 10.0036 0)
(-0.0015215 10.003 -3.43788e-19)
(-0.000841108 10.0019 -3.19368e-19)
(-0.000562985 10.0007 1.48326e-19)
(-0.000402718 10.0001 0)
(-0.0658352 9.98397 0)
(-0.0919613 9.97559 0)
(-0.125159 9.96636 0)
(-0.166576 9.95704 0)
(-0.217397 9.94882 0)
(-0.278737 9.94338 0)
(-0.351494 9.94305 0)
(-0.436176 9.95087 0)
(-0.532603 9.97065 0)
(-0.639572 10.0069 0)
(-0.754456 10.0648 0)
(-0.872798 10.1496 0)
(-0.987944 10.2662 0)
(-1.09124 10.4174 0)
(-1.17562 10.598 0)
(-1.23718 10.8004 0)
(-1.27168 11.0195 0)
(-1.27621 11.2493 0)
(-1.24939 11.4836 0)
(-1.1913 11.7157 0)
(-1.10673 11.9604 0)
(-1.00453 12.2089 0)
(-0.897017 12.4361 0)
(-0.7887 12.6434 0)
(-0.682816 12.8312 0)
(-0.581592 12.9989 0)
(-0.486281 13.1444 0)
(-0.397457 13.2628 0)
(-0.315311 13.3467 0)
(-0.239437 13.387 0)
(-0.170274 13.3696 0)
(-0.107065 13.2383 0)
(-0.0519063 12.698 0)
(-0.012596 10.9275 0)
(-0.065022 9.98196 0)
(-0.0446193 9.98943 -5.22417e-19)
(-0.0288559 9.99505 4.88081e-19)
(-0.0178218 9.99908 -1.90591e-22)
(-0.0103892 10.0017 4.21006e-19)
(-0.00567866 10.003 3.91076e-19)
(-0.00295102 10.0032 7.26495e-19)
(-0.00155509 10.0027 5.0611e-19)
(-0.000922829 10.0018 -1.56731e-19)
(-0.000645345 10.0007 0)
(-0.00043692 10.0001 0)
(-0.0906744 9.97261 0)
(-0.123404 9.96202 0)
(-0.164275 9.95081 0)
(-0.214498 9.93996 0)
(-0.275269 9.93093 0)
(-0.347644 9.92579 0)
(-0.432386 9.92726 0)
(-0.529707 9.93886 0)
(-0.63898 9.96485 0)
(-0.75837 10.0102 0)
(-0.884427 10.0802 0)
(-1.01169 10.1803 0)
(-1.13244 10.3149 0)
(-1.23703 10.4861 0)
(-1.31826 10.6871 0)
(-1.3728 10.9084 0)
(-1.39696 11.1441 0)
(-1.3886 11.3876 0)
(-1.34722 11.632 0)
(-1.28337 11.8892 0)
(-1.18877 12.1572 0)
(-1.06783 12.4057 0)
(-0.944965 12.6297 0)
(-0.824393 12.8314 0)
(-0.708894 13.0121 0)
(-0.600235 13.172 0)
(-0.499281 13.3094 0)
(-0.406248 13.4199 0)
(-0.321041 13.4967 0)
(-0.24302 13.5306 0)
(-0.172368 13.5066 0)
(-0.108291 13.366 0)
(-0.0523379 12.8059 0)
(-0.013013 11.003 0)
(-0.0895682 9.96998 0)
(-0.0634019 9.97982 -7.07984e-22)
(-0.042553 9.98766 0)
(-0.027509 9.99372 -3.40092e-22)
(-0.0169473 9.99808 0)
(-0.00986379 10.0009 -4.13202e-19)
(-0.0054107 10.0024 -7.67643e-19)
(-0.00286179 10.0028 -1.08822e-23)
(-0.00157941 10.0025 3.31127e-19)
(-0.000997358 10.0016 -1.53808e-19)
(-0.000723394 10.0006 1.42883e-19)
(-0.00046862 10.0001 0)
(-0.121701 9.95819 0)
(-0.162014 9.94528 0)
(-0.211606 9.93209 0)
(-0.271713 9.91987 0)
(-0.343502 9.91042 0)
(-0.427937 9.90619 0)
(-0.525548 9.91037 0)
(-0.636175 9.92692 0)
(-0.75865 9.96057 0)
(-0.890409 10.0166 0)
(-1.02708 10.1005 0)
(-1.16216 10.2175 0)
(-1.28685 10.3716 0)
(-1.39063 10.5638 0)
(-1.46638 10.7854 0)
(-1.51162 11.0252 0)
(-1.52338 11.2767 0)
(-1.5004 11.5324 0)
(-1.45431 11.8035 0)
(-1.3813 12.0858 0)
(-1.26572 12.3553 0)
(-1.1262 12.6012 0)
(-0.988478 12.8195 0)
(-0.856276 13.0139 0)
(-0.731853 13.1865 0)
(-0.616416 13.3378 0)
(-0.510396 13.4666 0)
(-0.413644 13.5689 0)
(-0.325769 13.6383 0)
(-0.245914 13.6656 0)
(-0.174007 13.635 0)
(-0.109239 13.4855 0)
(-0.0526419 12.9067 0)
(-0.0133421 11.0738 0)
(-0.120245 9.95478 0)
(-0.0873434 9.96723 5.83596e-19)
(-0.0604306 9.97758 -5.46269e-19)
(-0.0405394 9.98597 5.0641e-19)
(-0.0261235 9.99244 0)
(-0.0160344 9.99712 0)
(-0.0093117 10.0002 4.0554e-19)
(-0.005124 10.0019 -3.76665e-19)
(-0.00275979 10.0025 -2.53429e-24)
(-0.00159412 10.0022 1.6253e-19)
(-0.00106485 10.0015 -1.50984e-19)
(-0.000797183 10.0006 -1.40231e-19)
(-0.000497818 10.0001 0)
(-0.15982 9.94038 0)
(-0.20876 9.92511 0)
(-0.268155 9.91004 0)
(-0.339231 9.89674 0)
(-0.423099 9.88739 0)
(-0.520543 9.88487 0)
(-0.631788 9.89284 0)
(-0.756217 9.91571 0)
(-0.892024 9.95859 0)
(-1.03581 10.027 0)
(-1.18222 10.1266 0)
(-1.32369 10.262 0)
(-1.45036 10.4368 0)
(-1.551 10.6507 0)
(-1.61882 10.8929 0)
(-1.65245 11.1508 0)
(-1.64979 11.4166 0)
(-1.62344 11.7008 0)
(-1.56882 11.999 0)
(-1.47359 12.2849 0)
(-1.33697 12.553 0)
(-1.17936 12.7935 0)
(-1.02749 13.0044 0)
(-0.884425 13.1902 0)
(-0.751822 13.3538 0)
(-0.630288 13.496 0)
(-0.519775 13.6158 0)
(-0.419774 13.7098 0)
(-0.329604 13.7717 0)
(-0.248203 13.7924 0)
(-0.175251 13.7552 0)
(-0.109948 13.5971 0)
(-0.0528382 13.0008 0)
(-0.0135965 11.14 0)
(-0.157953 9.93603 0)
(-0.117269 9.95129 0)
(-0.0832107 9.96441 5.76959e-19)
(-0.0575499 9.97544 -1.07261e-18)
(-0.0384769 9.98435 9.95362e-19)
(-0.024685 9.99122 -9.23851e-19)
(-0.0150837 9.99621 0)
(-0.00873382 9.99951 3.98144e-19)
(-0.00481964 10.0014 -3.6968e-19)
(-0.00264585 10.0021 -3.43437e-19)
(-0.00159855 10.002 0)
(-0.00112533 10.0013 1.48186e-19)
(-0.000866084 10.0005 0)
(-0.000523909 10.0001 0)
(-0.205996 9.91891 0)
(-0.264645 9.90131 0)
(-0.33494 9.88458 0)
(-0.418074 9.87065 0)
(-0.515022 9.86211 0)
(-0.626322 9.86229 0)
(-0.751818 9.8753 0)
(-0.89034 9.90602 0)
(-1.03934 9.95987 0)
(-1.1945 10.0425 0)
(-1.34945 10.1594 0)
(-1.49556 10.3148 0)
(-1.62202 10.5113 0)
(-1.71699 10.7472 0)
(-1.77437 11.0097 0)
(-1.79408 11.2844 0)
(-1.78972 11.5808 0)
(-1.7558 11.8944 0)
(-1.67741 12.1986 0)
(-1.55952 12.4847 0)
(-1.40213 12.7484 0)
(-1.2272 12.9815 0)
(-1.06207 13.1834 0)
(-0.908996 13.3596 0)
(-0.768976 13.5135 0)
(-0.642025 13.6462 0)
(-0.527576 13.757 0)
(-0.424773 13.8426 0)
(-0.332651 13.8969 0)
(-0.249964 13.9111 0)
(-0.176153 13.8675 0)
(-0.110452 13.7012 0)
(-0.0529463 13.0884 0)
(-0.0137877 11.2018 0)
(-0.203657 9.91342 0)
(-0.154059 9.93161 0)
(-0.111671 9.94774 0)
(-0.0792251 9.96172 1.13282e-18)
(-0.05461 9.97341 -1.0514e-18)
(-0.0363439 9.98282 9.75926e-19)
(-0.0231951 9.99007 0)
(-0.0140975 9.99534 -4.20633e-19)
(-0.00813113 9.99886 0)
(-0.00449864 10.0009 3.6286e-19)
(-0.00251983 10.0017 0)
(-0.00159343 10.0018 0)
(-0.00117861 10.0012 0)
(-0.000928651 10.0005 1.44061e-19)
(-0.000546788 10.0001 7.03625e-20)
(-0.261232 9.89355 0)
(-0.330691 9.87377 0)
(-0.412998 9.85575 0)
(-0.509232 9.8418 0)
(-0.620173 9.83495 0)
(-0.746049 9.83901 0)
(-0.886228 9.85854 0)
(-1.03888 9.89879 0)
(-1.20064 9.96543 0)
(-1.36621 10.0641 0)
(-1.52818 10.2 0)
(-1.6769 10.3766 0)
(-1.80071 10.5955 0)
(-1.8874 10.8536 0)
(-1.93177 11.1355 0)
(-1.95189 11.4428 0)
(-1.9413 11.7712 0)
(-1.88217 12.0937 0)
(-1.77916 12.4002 0)
(-1.63859 12.6834 0)
(-1.46103 12.9401 0)
(-1.26974 13.1639 0)
(-1.09236 13.3558 0)
(-0.930199 13.5216 0)
(-0.783535 13.6653 0)
(-0.65182 13.7883 0)
(-0.533966 13.8901 0)
(-0.428771 13.9674 0)
(-0.335013 14.0144 0)
(-0.251272 14.0221 0)
(-0.176767 13.9723 0)
(-0.110782 13.7982 0)
(-0.0529817 13.1699 0)
(-0.0139251 11.2594 0)
(-0.258363 9.88667 0)
(-0.198655 9.90786 0)
(-0.146644 9.92719 1.2958e-18)
(-0.1063 9.94439 1.20165e-18)
(-0.0751677 9.95919 1.1145e-18)
(-0.0515787 9.9715 -1.03375e-18)
(-0.0341429 9.98138 0)
(-0.0216573 9.98899 0)
(-0.0130777 9.99453 0)
(-0.00750524 9.99825 7.67187e-19)
(-0.00416258 10.0005 3.56214e-19)
(-0.00238048 10.0014 3.3084e-19)
(-0.00157995 10.0015 0)
(-0.00122332 10.0011 -1.5222e-19)
(-0.000984342 10.0004 -7.43709e-20)
(-0.000566859 10.0001 0)
(-0.326557 9.86416 0)
(-0.407947 9.84249 0)
(-0.50334 9.8237 0)
(-0.613645 9.81054 0)
(-0.739387 9.80648 0)
(-0.880393 9.81579 0)
(-1.03546 9.84348 0)
(-1.20202 9.89507 0)
(-1.37578 9.97637 0)
(-1.55048 10.0929 0)
(-1.71765 10.2492 0)
(-1.8667 10.4482 0)
(-1.98531 10.69 0)
(-2.06099 10.9696 0)
(-2.10839 11.2863 0)
(-2.12414 11.6286 0)
(-2.08719 11.9692 0)
(-2.00153 12.2967 0)
(-1.87349 12.6022 0)
(-1.71057 12.8796 0)
(-1.5137 13.1271 0)
(-1.30715 13.3401 0)
(-1.11859 13.5209 0)
(-0.948282 13.6759 0)
(-0.795743 13.8092 0)
(-0.659873 13.9225 0)
(-0.539106 14.0152 0)
(-0.431896 14.0844 0)
(-0.336784 14.1243 0)
(-0.252193 14.1257 0)
(-0.177138 14.07 0)
(-0.110966 13.8884 0)
(-0.0529579 13.2456 0)
(-0.0140194 11.3129 0)
(-0.323107 9.85563 0)
(-0.252035 9.87975 0)