/*--------------------------------*- C++ -*----------------------------------*\
  =========                 |
  \\      /  F ield         | OpenFOAM: The Open Source CFD Toolbox
   \\    /   O peration     | Website:  https://openfoam.org
    \\  /    A nd           | Version:  8
     \\/     M anipulation  |
\*---------------------------------------------------------------------------*/
FoamFile
{
    version     2.0;
    format      ascii;
    class       volScalarField;
    location    "0.36";
    object      nut;
}
// * * * * * * * * * * * * * * * * * * * * * * * * * * * * * * * * * * * * * //

dimensions      [0 2 -1 0 0 0 0];

internalField   nonuniform List<scalar> 
15677
(
0.000168255
0.00065302
0.00014841
0.00151371
0.000442455
0.000141497
0.00267541
0.00087583
0.000381173
0.000142363
0.00392118
0.00151894
0.000686715
0.000354277
0.000145443
0.00502419
0.00235611
0.00114651
0.000585737
0.000340307
0.000151192
0.00584075
0.00331728
0.00178092
0.000947964
0.000529436
0.000332076
0.000156999
0.00633513
0.00429852
0.0025678
0.00146358
0.000821195
0.000492652
0.000327072
0.000162445
0.00656292
0.00518754
0.00345308
0.00213191
0.00125764
0.000737587
0.000467649
0.000324198
0.000167247
0.00665848
0.00589339
0.00435556
0.00292249
0.00184211
0.00111289
0.000677772
0.00045064
0.000322658
0.000171475
0.0067055
0.00633832
0.0051811
0.00377936
0.0025577
0.0016326
0.00100528
0.00063451
0.000438927
0.000322093
0.000175064
0.00671438
0.00655354
0.00584554
0.00462567
0.00336363
0.00228752
0.00147368
0.00092497
0.000602623
0.000430972
0.00032207
0.000178201
0.00670991
0.00666157
0.00629581
0.0053775
0.00419793
0.0030465
0.00207917
0.00135022
0.000863022
0.000578982
0.000425552
0.000322553
0.00018084
0.00670629
0.00669878
0.00652969
0.0059648
0.0049852
0.00385866
0.00279743
0.00191337
0.0012525
0.00081491
0.000561294
0.000422051
0.000323204
0.000183203
0.00670542
0.00670439
0.00664685
0.00635721
0.00565099
0.00465725
0.0035853
0.00259561
0.00177965
0.00117439
0.00077719
0.000548083
0.000419753
0.000324113
0.000185266
0.00670549
0.00670286
0.0066879
0.00656315
0.00614278
0.00536978
0.0043834
0.00335933
0.00243029
0.00167009
0.00111106
0.000747392
0.000538075
0.000418485
0.000324979
0.000187091
0.00670568
0.00670161
0.00669642
0.00665667
0.00644726
0.00593474
0.00512306
0.0041512
0.00317133
0.00229255
0.00157999
0.00105941
0.000723831
0.000530777
0.000417628
0.000326036
0.000188761
0.0067058
0.00670111
0.00669718
0.00668495
0.00660517
0.00632255
0.00573926
0.00490644
0.00395411
0.00301251
0.00217775
0.00150502
0.00101766
0.000705351
0.000525135
0.000417499
0.000326984
0.000190188
0.00670585
0.00670097
0.00669681
0.00669166
0.00666393
0.00654175
0.00618965
0.00555925
0.00471762
0.00378501
0.00287847
0.00208107
0.00144313
0.000983681
0.000690655
0.00052126
0.000417458
0.000328084
0.000191628
0.00670588
0.00670094
0.00669655
0.00669269
0.00668247
0.00663484
0.00646876
0.00605984
0.00539676
0.00455233
0.00364036
0.00276446
0.00200021
0.00139184
0.000956155
0.000679321
0.000518251
0.000418001
0.00032907
0.000192759
0.00670589
0.00670093
0.00669644
0.00669259
0.00668746
0.0066693
0.00659865
0.00639079
0.00593738
0.00525057
0.00440858
0.00351607
0.00266808
0.00193255
0.00134977
0.000934039
0.000670448
0.000516539
0.000418432
0.000330172
0.0001941
0.0067059
0.00670092
0.0066964
0.00669243
0.00668841
0.00668088
0.00665187
0.00655706
0.00631281
0.00582295
0.00512065
0.00428347
0.00340998
0.00258688
0.00187655
0.00131546
0.000916572
0.000663921
0.000515211
0.000419402
0.000331214
0.000195003
0.0067059
0.00670092
0.00669638
0.00669234
0.00668841
0.00668421
0.00667209
0.00663095
0.00651254
0.00623556
0.00571835
0.00500568
0.00417562
0.00332012
0.00251919
0.00183067
0.00128809
0.000902985
0.000659113
0.000514989
0.000420133
0.000332284
0.000196335
0.0067059
0.00670091
0.00669637
0.0066923
0.00668828
0.00668495
0.00667893
0.00666175
0.00660701
0.00646701
0.00616302
0.00562396
0.00490547
0.00408361
0.00324466
0.00246365
0.00179397
0.00126677
0.000893061
0.000656028
0.000514775
0.000421405
0.000333459
0.000197077
0.00670589
0.00670091
0.00669637
0.00669227
0.00668819
0.006685
0.00668091
0.00667342
0.00664927
0.00658201
0.00642136
0.00609633
0.00554034
0.00481888
0.00400588
0.00318296
0.00241939
0.00176571
0.00125091
0.000885849
0.000654196
0.000515704
0.000422347
0.000334401
0.000198412
0.00670589
0.00670091
0.00669636
0.00669224
0.00668814
0.00668492
0.00668132
0.00667738
0.00666664
0.00663624
0.00655557
0.00637948
0.00603482
0.00546691
0.00474603
0.00394293
0.0031338
0.0023851
0.00174447
0.0012399
0.000881946
0.000653751
0.000516216
0.000423888
0.000335907
0.000199126
0.00670588
0.00670091
0.00669636
0.00669222
0.00668812
0.00668483
0.00668132
0.0066785
0.00667314
0.0066599
0.00662205
0.00653134
0.00633851
0.0059814
0.00540624
0.00468645
0.00389155
0.00309558
0.00236058
0.00173176
0.00123435
0.000879997
0.000654309
0.000518215
0.000424933
0.000336702
5.34556e-05
0.00670587
0.00670091
0.00669635
0.00669221
0.0066881
0.00668475
0.00668125
0.00667868
0.00667529
0.0066694
0.00665268
0.00660901
0.00650672
0.00630602
0.00593625
0.00535376
0.00463853
0.00385597
0.00307257
0.00234745
0.00172549
0.0012319
0.000880931
0.000656198
0.000519404
0.000427382
0.000284415
6.35807e-05
0.00670586
0.00670092
0.00669635
0.00669219
0.00668809
0.0066847
0.00668119
0.0066786
0.00667587
0.00667283
0.00666575
0.00664608
0.00659635
0.00648892
0.00627248
0.00589805
0.00531954
0.00461051
0.00383404
0.00305809
0.00234045
0.00172409
0.00123369
0.000883602
0.000658303
0.000521945
0.000421244
0.000220369
7.11545e-05
0.00670586
0.00670092
0.00669634
0.00669219
0.00668807
0.00668465
0.00668114
0.00667847
0.00667593
0.00667383
0.00667088
0.00666255
0.00664095
0.00658718
0.0064689
0.00625405
0.00587896
0.00529614
0.00458964
0.00382011
0.00305205
0.0023405
0.00172864
0.00123956
0.000887922
0.000661588
0.000523349
0.000401867
0.00017855
7.67834e-05
0.00670585
0.00670093
0.00669633
0.00669218
0.00668806
0.00668462
0.00668111
0.00667836
0.00667588
0.00667396
0.00667267
0.0066693
0.00666165
0.00663702
0.00657999
0.00646294
0.00624608
0.0058636
0.00528087
0.00457901
0.00381788
0.00305701
0.00235007
0.00173952
0.00124856
0.000894357
0.000665701
0.000521705
0.000369288
0.000152805
8.13985e-05
0.00670584
0.00670094
0.00669633
0.00669218
0.00668805
0.00668459
0.00668107
0.00667827
0.0066758
0.00667384
0.00667313
0.00667171
0.0066706
0.00666084
0.00663819
0.00658083
0.00646219
0.00624067
0.00585687
0.00527884
0.00458498
0.00383023
0.00307344
0.00236769
0.00175549
0.00126122
0.000902523
0.000669738
0.000516345
0.000338202
0.000134263
8.50065e-05
0.00670584
0.00670094
0.00669632
0.00669218
0.00668804
0.00668457
0.00668104
0.00667819
0.00667573
0.00667367
0.00667317
0.00667231
0.00667413
0.00667145
0.0066666
0.00664411
0.00658588
0.00646714
0.00624467
0.00586695
0.00529411
0.00460544
0.00385501
0.00309995
0.00239284
0.00177663
0.00127709
0.000912182
0.000673614
0.000505868
0.0003081
0.000121095
8.76096e-05
0.00670583
0.00670095
0.00669632
0.00669218
0.00668803
0.00668456
0.00668101
0.00667814
0.00667566
0.00667352
0.00667308
0.0066723
0.00667525
0.0066757
0.00667968
0.00667636
0.00665303
0.00659776
0.00648079
0.00626506
0.00589237
0.00532419
0.00464016
0.00389215
0.00313644
0.00242542
0.00180246
0.00129597
0.00092312
0.000676436
0.000491391
0.000281979
0.000112458
8.95707e-05
0.00670583
0.00670095
0.00669631
0.00669218
0.00668802
0.00668455
0.00668098
0.00667811
0.00667558
0.0066734
0.00667296
0.00667211
0.00667549
0.00667704
0.00668531
0.00669169
0.00668752
0.0066695
0.00662073
0.00650956
0.00630021
0.00593322
0.00537015
0.00468931
0.00394166
0.00318277
0.00246511
0.00183303
0.00131772
0.000935364
0.00067801
0.00047534
0.000262249
0.000106563
9.11198e-05
0.00670096
0.00670582
0.00669631
0.00669219
0.00668801
0.00668455
0.00668095
0.00667808
0.00667551
0.0066733
0.00667283
0.0066719
0.00667543
0.00667728
0.00668734
0.00669853
0.00670423
0.00670692
0.00669922
0.00665607
0.00655299
0.00635097
0.00599107
0.00543211
0.00475311
0.00400363
0.00323884
0.00251187
0.00186784
0.00134236
0.000950293
0.000679154
0.000461373
0.000247054
0.000102408
9.23999e-05
0.00669631
0.00670098
0.00670583
0.00669219
0.006688
0.00668454
0.00668092
0.00667807
0.00667544
0.00667324
0.00667271
0.0066717
0.00667528
0.00667714
0.00668792
0.00670113
0.00671189
0.00672549
0.00674113
0.0067394
0.00670606
0.00661249
0.00642004
0.00606666
0.00551137
0.00483211
0.00407793
0.00330446
0.00256534
0.00190716
0.00137208
0.000968159
0.000680096
0.000449379
0.00023539
9.94299e-05
9.35005e-05
0.00669219
0.00669633
0.00670101
0.00670583
0.006688
0.00668454
0.0066809
0.00667806
0.00667537
0.0066732
0.00667257
0.00667154
0.0066751
0.00667689
0.00668796
0.00670196
0.00671499
0.00673432
0.00676268
0.00678492
0.0067946
0.00677241
0.00669084
0.00650817
0.00616168
0.00560842
0.00492588
0.00416459
0.00337943
0.00262539
0.0019557
0.00140792
0.00098753
0.000681745
0.000439763
0.000226117
9.72222e-05
9.44754e-05
0.00668799
0.00669222
0.00669637
0.00670105
0.00670583
0.00668454
0.00668087
0.00667805
0.0066753
0.00667318
0.00667244
0.00667143
0.00667493
0.00667663
0.00668783
0.00670212
0.00671612
0.00673817
0.00677348
0.00680908
0.00684421
0.00686647
0.00685816
0.00678862
0.00661737
0.00627626
0.00572398
0.00503569
0.00426333
0.00346333
0.00269912
0.00201569
0.00144648
0.00100786
0.000684693
0.000431794
0.000218814
9.56033e-05
9.53608e-05
0.00668454
0.00668802
0.00669229
0.00669642
0.00670109
0.00670584
0.00668086
0.00667805
0.00667524
0.00667317
0.0066723
0.00667136
0.00667474
0.00667638
0.00668764
0.00670203
0.00671647
0.0067398
0.00677861
0.00682171
0.00687144
0.00692
0.0069575
0.00696338
0.00690836
0.00674709
0.00641136
0.00585804
0.00516065
0.0043739
0.00356646
0.00278982
0.00208088
0.00148759
0.0010301
0.00068858
0.000425733
0.0002128
9.4348e-05
9.61742e-05
0.00668084
0.00668458
0.0066881
0.00669236
0.00669646
0.00670112
0.00670584
0.00667805
0.00667518
0.00667317
0.00667216
0.00667133
0.00667455
0.00667618
0.00668746
0.00670186
0.00671653
0.00674052
0.00678115
0.00682844
0.00688719
0.00695184
0.00701807
0.00707087
0.0070917
0.00704836
0.00689833
0.00656624
0.00600904
0.00530188
0.00451012
0.00369268
0.00288853
0.00215099
0.0015308
0.00105244
0.00069386
0.000420987
0.000207853
9.34179e-05
9.69334e-05
0.00667804
0.00668087
0.00668467
0.00668817
0.00669243
0.00669651
0.00670116
0.00670585
0.00667513
0.00667318
0.00667203
0.00667133
0.00667434
0.00667603
0.00668729
0.00670167
0.00671647
0.00674086
0.00678256
0.0068322
0.00689636
0.00697112
0.00705538
0.00713912
0.00721095
0.00724626
0.00721383
0.0070687
0.00673926
0.0061771
0.00547352
0.00467858
0.00383155
0.00299448
0.0022253
0.0015765
0.00107523
0.000700369
0.000417447
0.000203693
9.26666e-05
9.76406e-05
0.00667509
0.0066781
0.00668096
0.00668477
0.00668826
0.0066925
0.00669657
0.00670119
0.00670586
0.00667319
0.00667191
0.00667136
0.00667411
0.00667595
0.00668712
0.00670149
0.00671638
0.00674105
0.00678345
0.00683466
0.00690222
0.00698342
0.00707993
0.00718331
0.00728852
0.00737757
0.00742939
0.00740681
0.00726331
0.00692901
0.00637924
0.00568203
0.00486082
0.00397992
0.0031068
0.00230328
0.00162417
0.00109882
0.000707821
0.000415026
0.000200203
9.21115e-05
9.83085e-05
0.0066732
0.00667509
0.00667821
0.00668104
0.00668487
0.00668834
0.00669257
0.00669662
0.00670123
0.00670587
0.00667179
0.0066714
0.00667387
0.00667593
0.00668695
0.00670131
0.00671627
0.00674116
0.00678408
0.00683651
0.00690649
0.00699207
0.0070973
0.00721462
0.00734214
0.0074668
0.0075755
0.00764043
0.00762695
0.00748414
0.007161
0.00662122
0.00590394
0.00505306
0.00413632
0.00322439
0.00238429
0.00167341
0.00112289
0.000715896
0.000413531
0.000197239
9.16464e-05
9.89322e-05
0.00667169
0.00667326
0.00667514
0.00667832
0.00668114
0.00668496
0.00668843
0.00669264
0.00669668
0.00670126
0.00670588
0.00667145
0.00667362
0.00667599
0.00668676
0.00670115
0.00671617
0.00674124
0.00678458
0.00683805
0.0069099
0.00699892
0.00711067
0.00723848
0.00738324
0.00753246
0.00768002
0.00780448
0.007882
0.00787389
0.00775688
0.00745016
0.00687935
0.00613531
0.00525324
0.00429813
0.00334581
0.0024676
0.00172387
0.00114736
0.000724138
0.000412788
0.000194714
9.13089e-05
9.9524e-05
0.0066715
0.00667159
0.00667336
0.0066752
0.00667843
0.00668124
0.00668506
0.00668853
0.00669271
0.00669674
0.0067013
0.00670589
0.00667338
0.0066761
0.00668652
0.006701
0.00671608
0.00674132
0.00678501
0.00683939
0.00691279
0.00700478
0.00712183
0.00725789
0.00741712
0.00758626
0.0077619
0.00792785
0.00806848
0.00815453
0.00817886
0.00809192
0.00776735
0.00715923
0.00637261
0.00545648
0.00446303
0.00346989
0.00255257
0.00177508
0.0011724
0.000732528
0.000412523
0.000192545
9.10154e-05
0.000100075
0.00667315
0.00667156
0.00667149
0.00667348
0.00667526
0.00667855
0.00668135
0.00668516
0.00668863
0.00669278
0.00669681
0.00670133
0.0067059
0.00667626
0.00668623
0.00670088
0.00671601
0.00674139
0.00678541
0.00684059
0.00691532
0.00701
0.00713158
0.00727475
0.00744634
0.00763299
0.0078332
0.00803024
0.00821625
0.00836825
0.00849335
0.00855654
0.00845741
0.00810527
0.00745729
0.00662097
0.00566188
0.00462971
0.00359533
0.00263838
0.00182676
0.00119777
0.000741051
0.000412781
0.000190675
9.08106e-05
0.000100599
0.00667645
0.00667277
0.00667162
0.0066714
0.00667359
0.00667534
0.00667866
0.00668147
0.00668525
0.00668873
0.00669285
0.00669687
0.00670137
0.00670591
0.00668586
0.0067008
0.00671598
0.00674149
0.00678578
0.00684168
0.00691758
0.00701473
0.00714027
0.00728998
0.0074726
0.00767447
0.00789841
0.00812439
0.00834579
0.00854608
0.00874409
0.00891686
0.00897191
0.00885026
0.00846106
0.00776685
0.006879
0.00586782
0.00479575
0.00372065
0.00272443
0.00187854
0.00122328
0.000749653
0.000413349
0.000189056
9.06249e-05
0.000101086
0.00668543
0.00667652
0.00667221
0.00667169
0.00667133
0.0066737
0.00667544
0.00667877
0.0066816
0.00668535
0.00668884
0.00669293
0.00669694
0.0067014
0.00670593
0.00670079
0.00671598
0.0067416
0.00678614
0.00684268
0.00691962
0.00701904
0.0071481
0.007304
0.00749661
0.00771236
0.00795871
0.00821416
0.00847027
0.00870957
0.0089642
0.00921967
0.0093879
0.00942288
0.00926764
0.00883189
0.0080843
0.00714365
0.00607571
0.00495968
0.0038449
0.00280993
0.0019301
0.00124874
0.000758295
0.000414008
0.000187664
9.05053e-05
0.000101549
0.00670089
0.00668422
0.0066765
0.00667164
0.00667175
0.00667128
0.0066738
0.00667555
0.00667888
0.00668174
0.00668545
0.00668896
0.006693
0.00669701
0.00670143
0.00670594
0.00671603
0.00674174
0.00678648
0.00684357
0.00692147
0.00702297
0.0071552
0.00731698
0.00751864
0.00774763
0.00801557
0.00829878
0.00859233
0.0088735
0.00917777
0.00950127
0.00975623
0.00990671
0.0099086
0.0097079
0.0092155
0.00840761
0.00741104
0.00628634
0.00512116
0.00396723
0.00289452
0.00198116
0.00127401
0.000766919
0.000414858
0.000186465
9.039e-05
0.000101975
0.0067161
0.00670048
0.00668203
0.00667655
0.00667112
0.0066718
0.00667128
0.00667388
0.00667569
0.00667898
0.00668189
0.00668555
0.00668908
0.00669308
0.00669708
0.00670146
0.00670595
0.00674188
0.00678678
0.00684438
0.00692315
0.00702655
0.00716167
0.00732897
0.00753886
0.00778075
0.00806938
0.00837876
0.0087101
0.00904141
0.00940194
0.00978843
0.0101182
0.0103603
0.0104784
0.0104317
0.0101712
0.00961052
0.00873507
0.00767826
0.00649743
0.00528022
0.00408744
0.00297757
0.00203143
0.00129895
0.000775553
0.000415784
0.000185416
9.03263e-05
0.000102383
0.00674205
0.00671507
0.00669966
0.00667977
0.00667656
0.00667067
0.00667181
0.00667132
0.00667395
0.00667584
0.00667908
0.00668204
0.00668565
0.00668919
0.00669315
0.00669714
0.0067015
0.00670596
0.00678702
0.0068451
0.00692468
0.00702979
0.00716758
0.00734001
0.00755743
0.00781193
0.00812
0.00845458
0.00882507
0.00920982
0.00963701
0.0101006
0.0105091
0.0108385
0.0110517
0.0111156
0.0109979
0.0106591
0.0100163
0.00906534
0.00794426
0.00670717
0.00543538
0.00420402
0.00305862
0.00208069
0.00132346
0.000784099
0.000416771
0.000184508
9.02576e-05
0.000102757
0.00678723
0.00674025
0.00671283
0.00669889
0.00667775
0.00667644
0.00667036
0.00667176
0.00667141
0.00667401
0.00667602
0.00667919
0.0066822
0.00668575
0.0066893
0.00669322
0.0066972
0.00670153
0.00670597
0.00684573
0.00692606
0.00703274
0.00717297
0.00735015
0.0075745
0.00784117
0.00816726
0.00852682
0.00893812
0.00937697
0.00987127
0.0104411
0.0109685
0.0114031
0.0117104
0.0118591
0.0118321
0.0116127
0.0111727
0.0104324
0.00939736
0.00820808
0.00691459
0.00558877
0.00431687
0.00313735
0.00212872
0.00134742
0.000792537
0.0004178
0.000183726
9.02312e-05
0.000103115
0.00684631
0.00678414
0.00673631
0.00671054
0.00669794
0.00667632
0.0066761
0.00667019
0.00667165
0.00667155
0.00667405
0.0066762
0.00667929
0.00668235
0.00668586
0.00668941
0.00669329
0.00669726
0.00670156
0.00670599
0.00692731
0.0070354
0.00717789
0.00735942
0.00759019
0.00786845
0.00821119
0.00859594
0.0090485
0.0095398
0.0101029
0.0108106
0.0115293
0.0121315
0.0125479
0.012771
0.0127968
0.0126319
0.0122762
0.0117112
0.0108576
0.00973006
0.00846893
0.00711761
0.00573968
0.00442602
0.00321355
0.00217538
0.00137077
0.000800769
0.000418845
0.000182987
9.01933e-05
0.000103401
0.00692849
0.00684219
0.00677748
0.00673236
0.0067082
0.0066963
0.00667544
0.00667553
0.00667017
0.00667149
0.00667173
0.0066741
0.00667639
0.0066794
0.0066825
0.00668596
0.00668951
0.00669336
0.00669731
0.00670159
0.006706
0.00703781
0.00718237
0.00736787
0.00760459
0.00789374
0.00825196
0.00866203
0.00915457
0.00969625
0.010338
0.0112269
0.0121996
0.0130618
0.0136473
0.0139439
0.0140016
0.0138454
0.0135011
0.01298
0.01227
0.0112897
0.0100622
0.00872597
0.00731562
0.00588724
0.0045314
0.00328707
0.00222052
0.00139342
0.000808847
0.000419911
0.000182377
9.01891e-05
0.000103641
0.00704003
0.00692277
0.00683291
0.00677075
0.00672853
0.0067059
0.00669422
0.00667505
0.00667476
0.00667028
0.0066713
0.00667194
0.00667415
0.00667658
0.00667952
0.00668264
0.00668607
0.0066896
0.00669343
0.00669737
0.00670162
0.00670601
0.00718644
0.00737554
0.00761779
0.00791707
0.00828976
0.00872485
0.00925489
0.00984682
0.0105854
0.0116999
0.0129658
0.0141224
0.0149637
0.0153967
0.0154857
0.0153251
0.0149551
0.0144102
0.0137084
0.0128413
0.0117251
0.0103921
0.00897834
0.00750826
0.00603081
0.00463295
0.0033578
0.00226407
0.00141532
0.000816694
0.000420998
0.000181881
9.01773e-05
0.000103901
0.00719018
0.00703232
0.00690943
0.0068237
0.0067641
0.00672496
0.0067036
0.00669167
0.00667506
0.00667384
0.00667047
0.0066711
0.00667215
0.00667422
0.00667675
0.00667964
0.00668277
0.00668617
0.00668969
0.0066935
0.00669742
0.00670165
0.00670602
0.0073825
0.00762984
0.00793848
0.00832477
0.008784
0.00934881
0.00999379
0.0108504
0.012219
0.0137789
0.0152069
0.0162958
0.0169567
0.0171686
0.0170276
0.0166457
0.0160654
0.0153235
0.0144415
0.0134152
0.0121596
0.0107179
0.00922518
0.00769517
0.00616994
0.00473061
0.0034257
0.00230593
0.00143645
0.000824278
0.000421908
0.0001815
9.01821e-05
0.000104183
0.00738879
0.00717982
0.00701344
0.00689612
0.00681485
0.00675774
0.0067216
0.00670166
0.00668864
0.00667532
0.00667288
0.00667069
0.00667094
0.00667234
0.00667431
0.00667691
0.00667977
0.0066829
0.00668628
0.00668978
0.00669357
0.00669747
0.00670168
0.00670602
0.00764083
0.00795804
0.00835708
0.00883914
0.00943654
0.0101395
0.0111312
0.0127589
0.0145768
0.0162152
0.0174908
0.018353
0.0187885
0.0187932
0.0184548
0.0178856
0.0171247
0.0162082
0.0151601
0.0139813
0.0125885
0.0110378
0.00946565
0.00787602
0.00630429
0.00482431
0.0034907
0.0023461
0.00145676
0.000830624
0.000422729
0.00018108
9.01775e-05
0.000104489
0.00765076
0.00737537
0.00715332
0.00699454
0.00688316
0.0068063
0.00675172
0.0067184
0.00670032
0.00668543
0.00667567
0.00667197
0.00667088
0.00667084
0.0066725
0.00667442
0.00667705
0.0066799
0.00668301
0.00668638
0.00668986
0.00669364
0.00669752
0.00670169
0.00670602
0.00797589
0.0083868
0.00889014
0.00951876
0.0102849
0.0114207
0.0132909
0.0153099
0.0170843
0.0184712
0.0194664
0.0200885
0.0203342
0.0201857
0.0197056
0.0189985
0.0180985
0.0170397
0.0158481
0.0145303
0.013007
0.0113496
0.00969894
0.00805053
0.00643361
0.00491407
0.00355288
0.00238452
0.00147366
0.000836091
0.000423629
0.000180675
9.01971e-05
0.000104823
0.00799185
0.0076334
0.00733884
0.00712681
0.00697605
0.00687058
0.00679799
0.00674592
0.00671536
0.00669922
0.00668228
0.00667594
0.00667122
0.00667099
0.00667082
0.00667263
0.00667455
0.00667718
0.00668004
0.00668312
0.00668649
0.00668994
0.00669371
0.00669754
0.00670169
0.00670602
0.00841408
0.00893706
0.00959624
0.0104297
0.0117089
0.0137918
0.0159506
0.0177918
0.019221
0.0202789
0.0210169
0.0214535
0.0215695
0.0213272
0.0207612
0.0199657
0.0189693
0.0178031
0.0164942
0.0150548
0.0134113
0.0116515
0.0099243
0.0082184
0.00655774
0.00499978
0.00361196
0.00241634
0.00148815
0.000842154
0.00042469
0.000180224
9.02017e-05
0.000105186
0.00843845
0.00797
0.00758337
0.00730223
0.00710084
0.00695805
0.00685834
0.00678983
0.00674033
0.00671252
0.00669819
0.00667946
0.00667598
0.0066707
0.00667101
0.00667086
0.00667273
0.00667469
0.0066773
0.00668018
0.00668322
0.00668659
0.00669002
0.00669374
0.00669754
0.00670169
0.00670602
0.00898018
0.00966962
0.0105722
0.0119865
0.0142472
0.0164901
0.0183431
0.0197608
0.0208233
0.0216105
0.022163
0.0224788
0.0225205
0.0222341
0.0216287
0.0207873
0.0197325
0.0184916
0.0170916
0.0155495
0.0137982
0.0119421
0.0101411
0.00837944
0.00667659
0.00508208
0.00366067
0.00244351
0.00150417
0.000848915
0.000425852
0.000179796
9.02403e-05
0.000105583
0.00901856
0.0084107
0.00790247
0.00753327
0.00726633
0.00707552
0.00694052
0.00684639
0.00678176
0.0067351
0.00670978
0.00669707
0.00667734
0.00667568
0.00667042
0.00667094
0.00667096
0.0066728
0.00667485
0.00667741
0.00668031
0.00668332
0.00668669
0.00669006
0.00669374
0.00669754
0.00670169
0.00670602
0.00973931
0.0107104
0.0122464
0.0146507
0.0169327
0.0187581
0.0201266
0.021151
0.0219342
0.0225363
0.0229725
0.0232208
0.0232308
0.0229371
0.0223275
0.0214736
0.0203918
0.0191044
0.0176373
0.0160112
0.0141652
0.01222
0.0103487
0.00853351
0.00678984
0.00515046
0.00370213
0.00247344
0.00152192
0.000856439
0.00042723
0.000179317
9.02575e-05
0.000106014
0.00980291
0.008984
0.00831951
0.00783472
0.00748412
0.00723126
0.00705083
0.00692341
0.0068347
0.00677376
0.00673026
0.006707
0.00669543
0.00667616
0.00667509
0.00667033
0.00667083
0.00667109
0.00667287
0.00667501
0.00667752
0.00668045
0.00668342
0.00668674
0.00669005
0.00669374
0.00669754
0.00670169
0.00670602
0.0108424
0.0124873
0.0150024
0.0172889
0.0190608
0.0203564
0.0213141
0.0220549
0.0226548
0.0231446
0.0235174
0.0237369
0.0237451
0.0234697
0.0228811
0.0220398
0.0209554
0.0196447
0.0181315
0.0164386
0.0145108
0.0124843
0.0105469
0.00868046
0.00688333
0.00520893
0.00374771
0.00250647
0.00154161
0.000864872
0.000428742
0.000178863
9.03236e-05
0.000106486
0.0109611
0.00975926
0.00885985
0.0082283
0.00776813
0.00743608
0.00719704
0.00702676
0.00690674
0.00682328
0.00676584
0.00672563
0.00670422
0.00669304
0.00667569
0.0066743
0.00667037
0.00667069
0.00667125
0.00667293
0.00667517
0.00667762
0.00668058
0.00668346
0.00668675
0.00669005
0.00669374
0.00669754
0.00670169
0.00670602
0.0127096
0.0153038
0.0175719
0.0192748
0.020484
0.0213577
0.0220303
0.0225903
0.0230823
0.023513
0.0238594
0.0240765
0.024103
0.0238634
0.0233132
0.0225022
0.0214334
0.0201178
0.0185759
0.0168315
0.0148345
0.0127345
0.0107353
0.00880177
0.00696297
0.00527347
0.0037979
0.00254297
0.00156352
0.000874291
0.000430543
0.000178347
9.03597e-05
0.000106995
0.0109125
0.0129042
0.00957705
0.00873781
0.00813849
0.00770301
0.00738915
0.00716364
0.00700331
0.00689052
0.00681221
0.00675809
0.0067213
0.00670163
0.00669002
0.00667566
0.00667345
0.00667049
0.00667055
0.00667141
0.00667299
0.00667533
0.00667772
0.00668065
0.00668346
0.00668675
0.00669005
0.00669374
0.00669754
0.00670168
0.00670601
0.015558
0.0177945
0.0194206
0.0205372
0.0213177
0.0219061
0.0224005
0.0228566
0.0232941
0.0237021
0.0240468
0.0242792
0.0243378
0.0241454
0.0236451
0.0228767
0.0218367
0.0205301
0.0189735
0.0171909
0.015136
0.0129703
0.0108902
0.00890509
0.00705057
0.00534481
0.00385328
0.00258339
0.00158793
0.000884906
0.000432533
0.000177856
9.04642e-05
0.000107554
0.0106363
0.0128501
0.0157678
0.00940238
0.00861854
0.00805045
0.00763934
0.00734331
0.00713109
0.00698051
0.00687481
0.00680162
0.00675061
0.0067175
0.00669991
0.00668681
0.00667582
0.00667262
0.00667062
0.00667043
0.00667158
0.00667305
0.00667549
0.00667776
0.00668066
0.00668345
0.00668675
0.00669005
0.00669374
0.00669751
0.00670165
0.006706
0.0179682
0.0195152
0.0205378
0.0212214
0.021717
0.022129
0.0225222
0.0229281
0.0233474
0.0237568
0.0241165
0.0243764
0.0244764
0.0243387
0.0238956
0.0231777
0.0221755
0.0208882
0.0193282
0.0175184
0.0154158
0.0131624
0.0110217
0.00901868
0.00714705
0.00542377
0.00391449
0.00262821
0.0016152
0.000896816
0.000434905
0.000177315
9.05293e-05
0.000108153
0.0103622
0.012471
0.0156881
0.0181023
0.00923719
0.00850148
0.00796429
0.00757713
0.00729861
0.00709945
0.00695843
0.00685968
0.00679171
0.0067438
0.0067141
0.00669865
0.00668376
0.006676
0.00667189
0.00667073
0.00667033
0.00667174
0.00667312
0.00667558
0.00667774
0.00668066
0.00668345
0.00668675
0.00669005
0.00669371
0.00669747
0.00670162
0.00670599
0.0195715
0.0205022
0.0210891
0.0214882
0.021808
0.0221202
0.0224659
0.0228579
0.0232833
0.0237103
0.0240961
0.0243922
0.0245401
0.0244619
0.0240803
0.0234178
0.0224593
0.0211986
0.0196437
0.017816
0.0156401
0.0133246
0.0111659
0.00914363
0.00725344
0.00551129
0.0039823
0.00267805
0.00164572
0.000910316
0.000437565
0.000176788
9.06882e-05
0.000108813
0.0101045
0.0120541
0.0153354
0.0179865
0.0195947
0.00907902
0.00838637
0.00788008
0.00751641
0.00725513
0.00706877
0.00693711
0.0068453
0.00678251
0.00673759
0.00671112
0.00669756
0.00668105
0.00667607
0.0066713
0.00667082
0.00667028
0.00667189
0.00667313
0.00667559
0.00667772
0.00668066
0.00668345
0.00668674
0.00669001
0.00669364
0.00669742
0.00670158
0.00670598
0.0204424
0.0209356
0.0212381
0.0214609
0.0216804
0.0219457
0.0222805
0.0226833
0.0231309
0.0235863
0.0240066
0.0243454
0.0245462
0.0245304
0.0242124
0.0236076
0.0226965
0.0214674
0.0199241
0.0180498
0.0158276
0.0135009
0.0113237
0.00928119
0.0073709
0.00560842
0.00405759
0.00273356
0.00167999
0.000925559
0.000440715
0.000176248
9.08004e-05
0.000109514
0.00986428
0.011637
0.0148943
0.0177396
0.0194265
0.0203578
0.00892567
0.00827338
0.00779795
0.0074573
0.00721297
0.00703914
0.00691677
0.00683197
0.00677401
0.00673203
0.00670844
0.00669651
0.00667886
0.00667595
0.00667086
0.00667087
0.00667025
0.00667198
0.0066731
0.0066756
0.00667772
0.00668065
0.00668346
0.00668668
0.00668993
0.00669357
0.00669737
0.00670155
0.00670596
0.0207709
0.0209795
0.0211043
0.0212247
0.0213959
0.0216509
0.022
0.0224303
0.0229109
0.0234024
0.0238637
0.0242507
0.0245083
0.0245565
0.0243028
0.0237565
0.0228943
0.0216999
0.0201395
0.0182429
0.0160292
0.0136924
0.0114966
0.00943267
0.00750076
0.00571638
0.00414137
0.00279557
0.00171854
0.000942929
0.000444338
0.000175691
9.1037e-05
0.000110287
0.00963872
0.0112367
0.0143956
0.0174151
0.0192552
0.0201353
0.0205902
0.00877613
0.0081628
0.00771806
0.00739993
0.00717223
0.00701082
0.0068979
0.00681978
0.00676615
0.00672713
0.00670594
0.00669535
0.00667744
0.00667565
0.00667056
0.00667091
0.00667021
0.006672
0.00667308
0.00667559
0.00667773
0.00668064
0.00668341
0.00668658
0.00668985
0.0066935
0.00669731
0.00670152
0.00670595
0.0207211
0.0207498
0.0207686
0.0208374
0.0209964
0.0212672
0.0216483
0.0221171
0.0226379
0.0231715
0.0236796
0.0241199
0.024437
0.0245501
0.0243601
0.0238718
0.0230589
0.0218736
0.0203153
0.0184476
0.0162454
0.0139002
0.0116858
0.00959953
0.00764447
0.00583656
0.00423482
0.002865
0.00176208
0.000962719
0.000448566
0.000175197
9.12285e-05
0.000111097
0.00942521
0.0108596
0.013865
0.017037
0.0190189
0.0199995
0.0203147
0.0204529
0.00863018
0.00805494
0.0076406
0.00734444
0.00713329
0.00698453
0.0068807
0.00680862
0.00675887
0.00672288
0.00670353
0.00669351
0.0066766
0.00667522
0.00667037
0.00667091
0.00667016
0.006672
0.00667307
0.00667558
0.00667775
0.00668056
0.00668331
0.00668648
0.00668977
0.00669343
0.00669726
0.00670149
0.00670594
0.0204051
0.0203233
0.0202856
0.0203379
0.0205115
0.0208168
0.0212414
0.021756
0.0223223
0.0229035
0.0234641
0.0239621
0.0243413
0.0245191
0.0243915
0.0239599
0.0231763
0.0220135
0.0204988
0.0186637
0.0164766
0.014125
0.0118925
0.00978333
0.00780365
0.0059705
0.00433932
0.002943
0.00181138
0.000985371
0.0004536
0.000174628
9.15764e-05
0.000112146
0.00922187
0.010508
0.0133154
0.0166129
0.0187428
0.019811
0.0201849
0.0201246
0.0200575
0.00848799
0.00795019
0.00756578
0.00729139
0.00709717
0.00696062
0.00686503
0.00679841
0.00675205
0.00671909
0.00670139
0.00669122
0.00667616
0.00667475
0.00667029
0.00667088
0.00667013
0.006672
0.00667308
0.00667556
0.0066777
0.00668042
0.0066832
0.00668637
0.00668968
0.00669335
0.0066972
0.00670145
0.00670593
0.0198956
0.0197514
0.019691
0.0197541
0.0199623
0.0203144
0.0207905
0.0213554
0.0219718
0.0226063
0.0232252
0.0237851
0.0242278
0.0244697
0.0244027
0.0240154
0.0232691
0.0221566
0.0206892
0.0188908
0.016723
0.0143678
0.0121183
0.00998567
0.00798007
0.00611998
0.00445647
0.00303087
0.00186743
0.00101151
0.00045936
0.000174257
9.19693e-05
0.000113395
0.00902751
0.010183
0.0127545
0.0161438
0.0184381
0.0195968
0.0200111
0.019983
0.0196782
0.0194774
0.00834972
0.00784898
0.00749429
0.00724219
0.00706434
0.00693887
0.00685075
0.00678913
0.00674573
0.00671583
0.00669975
0.0066888
0.00667593
0.00667436
0.00667031
0.00667085
0.00667012
0.00667198
0.00667311
0.00667546
0.0066776
0.00668028
0.0066831
0.00668626
0.00668959
0.00669328
0.00669714
0.00670142
0.00670591
0.0192419
0.0190673
0.0190117
0.0191073
0.0193625
0.0197706
0.0203022
0.0209211
0.021592
0.0222864
0.0229695
0.023595
0.0241023
0.024407
0.0243967
0.024057
0.0233607
0.0223017
0.0208856
0.0191284
0.0169846
0.0146291
0.0123641
0.0102082
0.00817563
0.00628693
0.00458806
0.00313015
0.00193138
0.00104153
0.000466508
0.00017365
9.26261e-05
0.000114643
0.00884237
0.00988262
0.012191