/*--------------------------------*- C++ -*----------------------------------*\
  =========                 |
  \\      /  F ield         | OpenFOAM: The Open Source CFD Toolbox
   \\    /   O peration     | Website:  https://openfoam.org
    \\  /    A nd           | Version:  8
     \\/     M anipulation  |
\*---------------------------------------------------------------------------*/
FoamFile
{
    version     2.0;
    format      ascii;
    class       volScalarField;
    location    "0.08";
    object      alphat;
}
// * * * * * * * * * * * * * * * * * * * * * * * * * * * * * * * * * * * * * //

dimensions      [1 -1 -1 0 0 0 0];

internalField   nonuniform List<scalar> 
15677
(
0.00011874
0.00060006
9.98475e-05
0.0015397
0.000440609
0.000101779
0.00288712
0.000922932
0.000363459
0.000111757
0.00438918
0.00165519
0.000638114
0.000352063
0.000127864
0.00574827
0.00262591
0.00113078
0.000519713
0.00034562
0.00014065
0.00676669
0.00376194
0.00186235
0.00084616
0.00046935
0.000341958
0.000150354
0.00738753
0.00493673
0.0027938
0.00140421
0.000703968
0.000442691
0.000340751
0.000158157
0.00767605
0.00601146
0.00386083
0.0021879
0.00113472
0.000619404
0.00042845
0.000342303
0.000164129
0.00779952
0.00687011
0.00496087
0.00314858
0.00179672
0.000961882
0.000567034
0.000422801
0.000345285
0.000169151
0.0078612
0.00741023
0.00597598
0.00420787
0.00266125
0.00152208
0.000844702
0.000535002
0.000422327
0.000349519
0.000172821
0.0078763
0.00767596
0.0068014
0.0052625
0.00366468
0.00229725
0.0013257
0.000762039
0.000516977
0.000425524
0.000353459
0.000176064
0.00787236
0.00780839
0.00736155
0.00620275
0.00471589
0.0032385
0.00202325
0.00117602
0.000706349
0.000508444
0.000429629
0.000357659
0.000178394
0.00786812
0.00785798
0.00765555
0.00693795
0.00570999
0.0042668
0.00290324
0.00180472
0.00106665
0.000668841
0.00050494
0.000434743
0.000361162
0.000180737
0.00786682
0.00786673
0.00780031
0.00742985
0.00654782
0.00528427
0.00389812
0.00262676
0.00163685
0.000984321
0.000644104
0.000504906
0.000439363
0.000364959
0.000182423
0.00786666
0.00786548
0.00785106
0.00768773
0.00716299
0.00619025
0.00491835
0.00358478
0.00240632
0.00150333
0.000924328
0.000627572
0.00050606
0.00044467
0.000367798
0.000184434
0.00786672
0.00786412
0.00786149
0.00780673
0.0075435
0.00690394
0.00586597
0.00459732
0.00332671
0.00222557
0.00140091
0.000878553
0.000616333
0.000509044
0.000448879
0.000371314
0.000185744
0.00786677
0.0078635
0.00786228
0.00784313
0.00774029
0.00739009
0.00665256
0.00557021
0.00432418
0.0031106
0.00208185
0.00131877
0.000844231
0.00060947
0.000511853
0.000453937
0.000373574
0.000187444
0.00786678
0.00786324
0.00786173
0.00785208
0.00781481
0.00766445
0.00722395
0.00641131
0.00530931
0.0040909
0.00293395
0.00196427
0.00125486
0.000817975
0.000604863
0.00051614
0.000457578
0.000376757
0.000188567
0.00786679
0.00786309
0.00786138
0.00785367
0.00783884
0.00778035
0.00757396
0.00705381
0.00618918
0.00508125
0.00389553
0.00278745
0.00187014
0.00120281
0.000797823
0.00060331
0.000519536
0.000462128
0.000378692
0.000190031
0.00786678
0.00786297
0.00786127
0.00785371
0.00784551
0.00782322
0.00773751
0.00747526
0.00688905
0.00598909
0.00488548
0.00373118
0.00266786
0.00179229
0.0011616
0.000783133
0.000602377
0.000524052
0.000465296
0.000381383
0.000191064
0.00786677
0.00786287
0.00786126
0.00785358
0.00784684
0.00783757
0.00780433
0.00768658
0.00737402
0.00673439
0.00581256
0.00471793
0.00359472
0.0025682
0.00172918
0.00112869
0.000771699
0.000603691
0.000527636
0.000469208
0.000383165
0.000192396
0.00786675
0.0078628
0.00786128
0.00785349
0.00784684
0.00784156
0.00782976
0.00778002
0.00762976
0.00727116
0.00659338
0.00565819
0.0045765
0.00348004
0.00248629
0.00167757
0.0011024
0.00076452
0.000604973
0.000531773
0.000472008
0.000385377
0.000193358
0.00786674
0.00786275
0.00786129
0.00785344
0.00784661
0.00784226
0.00783841
0.00781872
0.00775075
0.0075696
0.00717368
0.00646673
0.00552577
0.00445646
0.00338466
0.0024189
0.00163587
0.00108279
0.000759248
0.000607737
0.000535315
0.00047514
0.000386985
0.000194672
0.00786671
0.00786272
0.0078613
0.00785341
0.00784639
0.00784212
0.00784091
0.0078332
0.0078049
0.0077178
0.0075093
0.00708334
0.00635666
0.00541184
0.00435539
0.00330587
0.00236422
0.00160349
0.00106805
0.000756962
0.00061016
0.000539232
0.000477527
0.000388903
0.000195586
0.00786668
0.00786271
0.0078613
0.00785338
0.00784621
0.00784185
0.0078414
0.0078379
0.00782725
0.00778774
0.00768266
0.00745178
0.00700452
0.00625985
0.00531485
0.00427175
0.00324206
0.00232168
0.00157916
0.00105821
0.000756121
0.000613884
0.000542038
0.000480038
0.000390395
0.000196938
0.00786665
0.0078627
0.0078613
0.00785336
0.00784607
0.00784161
0.00784131
0.00783906
0.00783572
0.00781832
0.00776796
0.00764927
0.00740181
0.00693267
0.00617766
0.00523472
0.00420422
0.00319224
0.00228947
0.00156208
0.00105279
0.000757106
0.000617251
0.000545264
0.000482237
0.000392162
0.000197801
0.00786662
0.0078627
0.00786129
0.00785335
0.00784595
0.00784141
0.0078411
0.0078391
0.00783856
0.00783066
0.00780688
0.00775046
0.00761887
0.00735358
0.00687294
0.00610815
0.00516902
0.00415091
0.00315546
0.00226844
0.00155339
0.00105053
0.000759988
0.00062062
0.000548046
0.000484276
0.000393456
0.000199181
0.00786659
0.0078627
0.00786129
0.00785334
0.00784585
0.00784125
0.00784089
0.00783889
0.00783929
0.00783514
0.00782324
0.007799
0.00773336
0.00759419
0.00731438
0.00682153
0.0060561
0.00512349
0.00411776
0.00313453
0.00225802
0.00154897
0.00105289
0.000763365
0.000623908
0.000550679
0.0004862
0.000395234
0.00020004
0.00786656
0.0078627
0.00786128
0.00785335
0.00784577
0.00784112
0.00784069
0.00783869
0.00783929
0.00783649
0.00782944
0.00782074
0.00778963
0.00772209
0.00756764
0.00728935
0.00679098
0.00601965
0.00509101
0.00409447
0.00312261
0.002254
0.0015523
0.00105712
0.000767224
0.000627794
0.000553546
0.000488027
0.000396263
0.00020137
0.00786653
0.0078627
0.00786127
0.00785336
0.00784569
0.007841
0.00784051
0.00783854
0.0078391
0.0078367
0.00783142
0.00782963
0.00781531
0.00778636
0.00771204
0.00756079
0.00727266
0.00676499
0.00599291
0.00507031
0.00408373
0.00312073
0.00225901
0.00156019
0.00106372
0.000772784
0.000631878
0.000556015
0.00048972
0.000398136
0.000202567
0.00786651
0.0078627
0.00786127
0.00785337
0.00784563
0.00784089
0.00784033
0.00783843
0.00783887
0.00783659
0.00783176
0.00783274
0.00782612
0.00781689
0.00778789
0.00771279
0.00755712
0.00726008
0.00674936
0.00598085
0.00506693
0.00408896
0.00313243
0.0022731
0.0015727
0.00107349
0.000779251
0.000635839
0.000558443
0.000491301
0.000398989
0.000203718
0.00786649
0.0078627
0.00786126
0.0078534
0.00784558
0.00784079
0.00784016
0.00783836
0.00783866
0.00783641
0.00783162
0.00783339
0.00783011
0.00783027
0.00782404
0.00779322
0.00771785
0.00755769
0.0072592
0.00675239
0.00598893
0.00508115
0.00410898
0.0031552
0.00229425
0.00159089
0.00108564
0.000786443
0.000639953
0.000560705
0.000492897
0.000400533
0.000204859
0.00786647
0.0078627
0.00786126
0.00785342
0.00784554
0.00784071
0.00783999
0.00783831
0.00783845
0.00783624
0.00783136
0.0078332
0.00783113
0.00783535
0.00784022
0.00783449
0.00780429
0.00772988
0.00756987
0.00727606
0.00677295
0.00601384
0.00511147
0.00414251
0.00318829
0.00232278
0.00161353
0.00110007
0.000794307
0.000644058
0.000563233
0.000494525
0.000402032
0.000206031
0.00786646
0.00786269
0.00786125
0.00785345
0.00784551
0.00784063
0.00783984
0.00783828
0.00783827
0.00783609
0.0078311
0.00783279
0.00783108
0.00783669
0.00784666
0.007854
0.0078484
0.00782325
0.00775332
0.00759801
0.00730909
0.00681079
0.00605656
0.00515748
0.00418916
0.00323135
0.00235779
0.00164066
0.00111657
0.000803067
0.000648854
0.000565808
0.000496002
0.000403513
0.000207202
0.00786269
0.00786646
0.00786125
0.00785348
0.00784549
0.00784057
0.00783969
0.00783826
0.00783809
0.00783598
0.00783088
0.00783235
0.0078307
0.00783664
0.0078485
0.00786237
0.00786955
0.00787141
0.00785644
0.00779039
0.00764173
0.00735941
0.00686731
0.00611646
0.00521919
0.00424853
0.00328356
0.00239922
0.00167151
0.00113535
0.000813649
0.000654154
0.000568328
0.000497484
0.000405004
0.000208401
0.00786124
0.00786269
0.00786647
0.00785351
0.00784548
0.00784052
0.00783956
0.00783825
0.00783794
0.00783588
0.00783069
0.00783194
0.00783025
0.00783614
0.00784852
0.00786524
0.0078789
0.00789485
0.00791058
0.00789977
0.00784291
0.00770299
0.00742887
0.00694248
0.00619478
0.00529626
0.00432005
0.00334478
0.00244622
0.00170536
0.0011584
0.000826156
0.000659583
0.000570648
0.000498737
0.000406384
0.000209557
0.00785353
0.00786125
0.00786269
0.00786648
0.00784548
0.00784047
0.00783943
0.00783825
0.0078378
0.00783581
0.00783053
0.00783157
0.00782982
0.00783553
0.00784794
0.00786585
0.00788226
0.00790563
0.00793767
0.00795885
0.00795894
0.0079128
0.00778385
0.00751901
0.00703805
0.00629096
0.00538826
0.00440321
0.003414
0.00249916
0.00174613
0.00118659
0.00083943
0.000664916
0.000572986
0.000500005
0.000407778
0.00021073
0.00784548
0.00785363
0.00786129
0.00786269
0.00786649
0.00784044
0.00783933
0.00783825
0.00783767
0.00783576
0.0078304
0.00783126
0.00782943
0.00783492
0.00784719
0.00786562
0.0078831
0.00790976
0.00795071
0.00798964
0.00802341
0.00803568
0.00800293
0.00788579
0.0076308
0.0071534
0.00640585
0.00549515
0.0044975
0.00349125
0.00256347
0.00179485
0.00121668
0.000853565
0.000670471
0.000575099
0.000501298
0.00040905
0.000211827
0.00784041
0.00784556
0.0078538
0.00786133
0.00786269
0.0078665
0.00783923
0.00783826
0.00783756
0.00783571
0.0078303
0.00783099
0.00782908
0.00783437
0.00784644
0.0078651
0.00788298
0.00791099
0.00795648
0.00800508
0.00805797
0.00810516
0.0081331
0.00811445
0.00801025
0.00776412
0.00728969
0.00653813
0.00561649
0.00460206
0.00358456
0.00264191
0.00184662
0.00124861
0.000868268
0.00067582
0.000577286
0.000502386
0.000410323
0.00021294
0.00783914
0.00784042
0.00784571
0.00785398
0.00786137
0.00786268
0.00786651
0.00783826
0.00783746
0.00783568
0.00783022
0.00783078
0.00782876
0.00783388
0.00784574
0.00786452
0.00788253
0.00791117
0.00795886
0.00801249
0.00807686
0.00814486
0.00820955
0.00825227
0.0082483
0.00815676
0.00791922
0.00744536
0.00668748
0.00575213
0.00472976
0.00369874
0.002726
0.00190188
0.00128188
0.000883388
0.000681402
0.000579299
0.000503485
0.000411474
0.000213956
0.00783826
0.00783905
0.00784047
0.00784589
0.00785417
0.0078614
0.00786267
0.00786653
0.00783737
0.00783564
0.00783016
0.00783059
0.00782847
0.00783348
0.00784511
0.00786394
0.00788198
0.00791095
0.00795977
0.00801618
0.00808721
0.00816819
0.0082562
0.00833874
0.00839988
0.00840808
0.00832458
0.00809404
0.00761949
0.00685198
0.00591659
0.00488556
0.00382144
0.002815
0.00195898
0.00131631
0.000898829
0.000686605
0.000581378
0.000504438
0.000412626
0.000214989
0.00783728
0.00783828
0.00783895
0.00784054
0.00784608
0.00785436
0.00786144
0.00786265
0.00786655
0.00783561
0.00783012
0.00783044
0.0078282
0.00783317
0.00784455
0.0078634
0.00788142
0.00791058
0.00796007
0.00801825
0.00809328
0.0081822
0.00828571
0.00839349
0.00849744
0.00857512
0.00859826
0.00851976
0.00828628
0.00780911
0.00705074
0.00611504
0.00505186
0.00395126
0.00290784
0.00201741
0.00135121
0.000914781
0.00069211
0.000583326
0.000505411
0.00041366
0.000215914
0.00783558
0.00783722
0.0078383
0.00783884
0.00784061
0.00784628
0.00785456
0.00786148
0.00786262
0.00786657
0.0078301
0.00783031
0.00782795
0.00783294
0.00784402
0.00786291
0.0078809
0.00791018
0.00796011
0.0080196
0.00809739
0.0081915
0.00830563
0.00843098
0.00856321
0.00868631
0.00878206
0.00881603
0.00874343
0.00850326
0.00803402
0.00728557
0.006325
0.0052275
0.00408656
0.00300354
0.00207685
0.00138582
0.000930897
0.000697333
0.000585307
0.000506258
0.000414696
0.000216859
0.00783008
0.00783564
0.00783716
0.00783833
0.00783875
0.0078407
0.0078465
0.00785476
0.00786152
0.00786259
0.00786659
0.00783019
0.00782773
0.0078328
0.00784352
0.00786247
0.00788042
0.0079098
0.00796006
0.0080206
0.00810049
0.00819854
0.00832041
0.00845855
0.00861211
0.00876614
0.00891092
0.00902045
0.00906344
0.00899227
0.0087713
0.00830814
0.00753285
0.00654407
0.00540834
0.00422543
0.00310102
0.00213747
0.00141969
0.000947062
0.000702388
0.000587084
0.000507112
0.000415619
0.000217692
0.00783008
0.00783016
0.00783577
0.00783711
0.00783834
0.00783865
0.00784079
0.00784674
0.00785496
0.00786156
0.00786256
0.00786662
0.00782753
0.00783273
0.00784302
0.00786209
0.00788001
0.00790945
0.00795998
0.00802144
0.00810302
0.00820441
0.0083325
0.00848041
0.00865131
0.00882993
0.0090096
0.00917105
0.00929326
0.00934057
0.00929648
0.00909938
0.00860658
0.00778527
0.00676454
0.0055916
0.00436633
0.00319945
0.00219846
0.00145328
0.000963029
0.000707454
0.000588773
0.000507852
0.000416541
0.000218548
0.00782735
0.00783
0.00783034
0.00783588
0.00783707
0.00783834
0.00783856
0.00784089
0.00784699
0.00785516
0.00786159
0.00786253
0.00786665
0.00783272
0.0078425
0.00786176
0.00787965
0.00790916
0.00795992
0.00802218
0.0081052
0.00820959
0.00834293
0.0084991
0.00868461
0.00888435
0.00909376
0.00929338
0.00947162
0.00960101
0.00968199
0.00966945
0.0094523
0.00892621
0.00805271
0.00698662
0.00577567
0.00450756
0.00329794
0.00225941
0.00148584
0.000978728
0.000712519
0.000590325
0.000508595
0.000417363
0.000219291
0.00783274
0.0078271
0.00782998
0.00783054
0.00783599
0.00783704
0.00783832
0.00783848
0.00784101
0.00784725
0.00785537
0.00786163
0.00786249
0.00786668
0.00784193
0.0078615
0.00787937
0.00790893
0.00795988
0.00802285
0.00810712
0.00821426
0.00835217
0.00851586
0.00871438
0.0089322
0.00916955
0.00940393
0.00962513
0.00981348
0.00998345
0.0101044
0.0100746
0.00982652
0.00925743
0.00833002
0.00720781
0.00595733
0.00464735
0.0033956
0.00231975
0.00151803
0.000994104
0.000717505
0.000591798
0.000509237
0.000418176
0.00022006
0.00784131
0.00783255
0.00782676
0.00782996
0.00783079
0.00783607
0.00783703
0.00783828
0.00783841
0.00784113
0.00784753
0.00785557
0.00786166
0.00786245
0.00786671
0.00786133
0.00787915
0.00790876
0.00795987
0.00802345
0.00810886
0.00821852
0.00836048
0.00853125
0.00874159
0.00897566
0.00923907
0.00950845
0.00977098
0.0100057
0.0102429
0.0104624
0.0105683
0.0105081
0.0102181
0.00959712
0.00861366
0.00743015
0.00613481
0.0047845
0.00349173
0.00237913
0.00154946
0.00100907
0.00072239
0.000593157
0.000509882
0.000418907
0.00022072
0.00786129
0.00783979
0.00783226
0.00782644
0.00782997
0.00783107
0.00783613
0.00783703
0.00783823
0.00783835
0.00784127
0.00784781
0.00785577
0.00786168
0.00786242
0.00786675
0.00787898
0.00790863
0.00795986
0.008024
0.00811044
0.00822242
0.00836801
0.00854551
0.00876657
0.00901593
0.00930452
0.00960705
0.00991328
0.010196
0.0104906
0.0107891
0.010996
0.0110712
0.010967
0.0106239
0.00994237
0.00889873
0.00765403
0.00630795
0.00491816
0.00358566
0.00243723
0.00157983
0.00102358
0.000727134
0.000594456
0.000510438
0.000419616
0.000221404
0.00787884
0.00786056
0.00783716
0.00783204
0.00782618
0.00782997
0.0078314
0.00783617
0.00783705
0.00783815
0.00783831
0.00784142
0.0078481
0.00785596
0.0078617
0.00786239
0.00786678
0.00790853
0.00795982
0.00802449
0.00811189
0.00822598
0.00837487
0.00855872
0.00878948
0.00905367
0.0093667
0.00970047
0.0100498
0.0103893
0.0107487
0.0111186
0.0114082
0.0115851
0.0116132
0.0114499
0.0110414
0.0102908
0.00918179
0.0078768
0.00647632
0.00504779
0.00367699
0.00249375
0.00160924
0.0010376
0.00073173
0.000595658
0.000511
0.000420271
0.000221988
0.00790845
0.00787736
0.00785929
0.00783451
0.00783181
0.00782603
0.00782995
0.00783176
0.00783617
0.00783708
0.00783806
0.00783828
0.00784159
0.00784839
0.00785614
0.00786172
0.00786236
0.00786681
0.00795974
0.00802492
0.00811321
0.00822924
0.00838116
0.00857094
0.00881051
0.00908921
0.00942546
0.00978891
0.0101822
0.0105829
0.0110208
0.0114758
0.0118459
0.0121111
0.0122389
0.012199
0.0119578
0.0114698
0.0106405
0.00946142
0.00809645
0.00663939
0.00517269
0.00376516
0.00254847
0.00163762
0.00105109
0.000736149
0.000596814
0.000511482
0.000420881
0.000222591
0.00795963
0.00790608
0.00787449
0.00785803
0.00783221
0.00783144
0.00782603
0.00782992
0.00783216
0.00783616
0.00783711
0.00783796
0.00783826
0.00784177
0.00784866
0.00785631
0.00786173
0.00786234
0.00786684
0.00802528
0.00811442
0.0082322
0.00838693
0.00858219
0.00882983
0.00912264
0.00948048
0.00987272
0.010312
0.0107771
0.011295
0.0118618
0.0123482
0.0127126
0.0129304
0.0129768
0.0128373
0.0124932
0.0119086
0.0109905
0.00973653
0.00831161
0.00679727
0.00529192
0.00384987
0.00260121
0.00166492
0.00106404
0.000740402
0.000597878
0.000511975
0.000421475
0.000223107
0.00802561
0.0079557
0.00790129
0.00787151
0.00785642
0.00783061
0.00783087
0.00782618
0.00782987
0.00783258
0.00783614
0.00783715
0.00783785
0.00783826
0.00784196
0.00784892
0.00785648
0.00786175
0.00786232
0.00786687
0.0081155
0.00823489
0.0083922
0.00859251
0.0088476
0.00915395
0.00953162
0.00995255
0.0104394
0.0109687
0.0115646
0.0122684
0.0129434
0.0134721
0.0137928
0.0139067
0.0138171
0.0135349
0.0130577
0.0123574
0.0113395
0.0100063
0.00852091
0.00695131
0.00540571
0.00393093
0.00265185
0.00169111
0.00107642
0.000744458
0.00059891
0.00051239
0.000422003
0.000223554
0.00811652
0.00802066
0.00794776
0.00789645
0.00786852
0.00785406
0.00782966
0.00783009
0.00782646
0.00782983
0.007833
0.00783611
0.00783718
0.00783776
0.00783827
0.00784215
0.00784917
0.00785663
0.00786175
0.00786231
0.0078669
0.00823732
0.00839701
0.00860193
0.00886393
0.00918307
0.009579
0.0100288
0.0105631
0.0111537
0.0118305
0.0127123
0.0136503
0.0144556
0.0149507
0.0151274
0.0150506
0.01476
0.0142895
0.0136492
0.0128147
0.0116868
0.01027
0.00872296
0.00710064
0.0055142
0.00400826
0.00270031
0.00171617
0.00108825
0.000748345
0.00059985
0.000512827
0.000422454
0.000223919
0.00823954
0.00810989
0.00801003
0.00793962
0.00789182
0.00786556
0.00785118
0.00782929
0.00782918
0.00782683
0.00782982
0.00783341
0.00783609
0.0078372
0.00783767
0.0078383
0.00784235
0.0078494
0.00785678
0.00786176
0.0078623
0.00786693
0.00840136
0.00861049
0.00887891
0.00920999
0.00962287
0.0101016
0.010681
0.0113303
0.0121006
0.0132143
0.0144835
0.0156376
0.0164288
0.0167413
0.0166629
0.0163211
0.0157798
0.0150873
0.0142609
0.0132775
0.0120308
0.010527
0.00891757
0.00724463
0.00561748
0.00408185
0.00274654
0.00174008
0.0010995
0.000752026
0.000600772
0.000513127
0.00042284
0.000224351
0.00840534
0.00823078
0.00809488
0.00799945
0.00793175
0.0078875
0.0078627
0.00784758
0.00782934
0.00782821
0.00782725
0.00782987
0.00783377
0.0078361
0.0078372
0.0078376
0.00783833
0.00784255
0.00784962
0.00785691
0.00786177
0.0078623
0.00786695
0.00861822
0.00889258
0.00923471
0.00966346
0.0101705
0.0107917
0.0114996
0.012384
0.0137782
0.0154123
0.016927
0.0180449
0.0186307
0.0186577
0.0182735
0.0176404
0.0168324
0.0159054
0.0148821
0.0137412
0.01237
0.0107768
0.00910458
0.00738292
0.00571568
0.00415171
0.00279052
0.00176286
0.00111022
0.000755547
0.00060149
0.000513428
0.000423206
0.000224788
0.0086252
0.00839374
0.00820974
0.00807979
0.0079892
0.0079243
0.00788345
0.00786067
0.00784367
0.00782962
0.0078273
0.00782766
0.00783
0.00783407
0.00783612
0.00783718
0.00783755
0.00783837
0.00784275
0.00784983
0.00785705
0.00786178
0.0078623
0.00786697
0.00890504
0.00925729
0.00970093
0.010235
0.0108948
0.0116644
0.0126844
0.0143858
0.0163707
0.0181989
0.0195978
0.0204635
0.0207614
0.0204976
0.019828
0.0189268
0.0178699
0.016718
0.0155003
0.0142004
0.0127024
0.0110186
0.0092839
0.00751529
0.0058089
0.00421791
0.00283229
0.0017845
0.00112035
0.000758417
0.000602132
0.000513699
0.000423668
0.000225305
0.00891627
0.00861035
0.00836435
0.00818853
0.00806508
0.00797925
0.00791722
0.00787952
0.00785898
0.00783974
0.00782995
0.00782654
0.007828
0.00783021
0.00783431
0.00783617
0.00783716
0.00783752
0.00783841
0.00784295
0.00785003
0.00785717
0.00786179
0.0078623
0.00786698
0.00927784
0.00973541
0.0102948
0.0109908
0.0118266
0.0129981
0.0150066
0.0172906
0.0193506
0.0209475
0.0220283
0.022591
0.0226257
0.0221287
0.0212351
0.0201183
0.0188523
0.0175015
0.0161031
0.0146495
0.013026
0.0112518
0.00945546
0.00764163
0.00589725
0.00428055
0.00287186
0.00180504
0.00112872
0.000760892
0.000602784
0.00051408
0.00042408
0.000225814
0.0092962
0.00889723
0.00856992
0.00833476
0.00816781
0.00805077
0.00796956
0.00791031
0.00787584
0.00785742
0.00783603
0.00783018
0.00782601
0.00782826
0.00783049
0.0078345
0.00783622
0.00783712
0.00783751
0.00783847
0.00784315
0.00785021
0.00785729
0.00786179
0.00786229
0.00786699
0.00976704
0.0103498
0.0110804
0.0119869
0.0133161
0.0156101
0.0181239
0.0203279
0.022034
0.0232459
0.0240011
0.0243107
0.0241512
0.0234963
0.0224504
0.0211793
0.019753
0.018238
0.0166802
0.0150834
0.0133388
0.011476
0.00961922
0.00776188
0.00598087
0.0043397
0.00290929
0.00182191
0.00113576
0.000763604
0.000603572
0.000514397
0.000424604
0.000226427
0.00979534
0.0092725
0.00884193
0.00852921
0.00830583
0.0081476
0.0080368
0.00795999
0.00790375
0.00787233
0.00785592
0.00783279
0.00783015
0.00782575
0.00782844
0.00783082
0.00783465
0.00783628
0.00783709
0.00783751
0.00783853
0.00784335
0.00785039
0.00785735
0.00786178
0.00786228
0.00786699
0.0104003
0.0111644
0.0121444
0.013628
0.0161736
0.0188471
0.0211183
0.022858
0.024123
0.0249888
0.0254923
0.0256245
0.0253421
0.0245977
0.0234645
0.0220966
0.0205583
0.0189161
0.0172236
0.0154978
0.0136391
0.0116907
0.00977515
0.0078761
0.00605992
0.00439553
0.00293997
0.00183627
0.00114344
0.00076664
0.000604347
0.000514864
0.000425042
0.000227011
0.010445
0.00976555
0.00919796
0.00878632
0.00848933
0.00827759
0.00812787
0.00802313
0.00795054
0.00789767
0.00786889
0.00785427
0.00783057
0.00782979
0.00782575
0.00782856
0.00783116
0.00783478
0.00783635
0.00783705
0.00783752
0.00783861
0.00784354
0.00785048
0.00785735
0.00786177
0.00786228
0.00786698
0.0112436
0.012297
0.0139248
0.0166844
0.0194559
0.0217352
0.0234516
0.0247081
0.025613
0.0262278
0.0265623
0.0265851
0.0262374
0.0254569
0.0242884
0.022872
0.0212644
0.01953
0.0177285
0.0158896
0.0139254
0.0118953
0.00992329
0.00798436
0.00613453
0.00444115
0.00296598
0.00185204
0.00115181
0.000769955
0.000605303
0.000515218
0.000425637
0.000227732
0.0113155
0.0104087
0.00966488
0.0091229
0.00873177
0.00845034
0.00825002
0.00810861
0.00800975
0.00794113
0.00789194
0.00786542
0.00785168
0.00782937
0.00782916
0.00782592
0.00782865
0.0078315
0.00783489
0.00783641
0.00783702
0.00783753
0.00783869
0.00784364
0.00785049
0.00785736
0.00786177
0.00786229
0.00786697
0.012443
0.0142031
0.0171379
0.0199577
0.0222034
0.0238576
0.0250615
0.0259503
0.0266072
0.0270603
0.0272928
0.0272572
0.0268861
0.0261079
0.0249429
0.0235159
0.0218744
0.0200786
0.0181922
0.0162566
0.0141968
0.0120897
0.0100637
0.0080867
0.0061955
0.00447975
0.00299441
0.00186937
0.00116096
0.000773692
0.000606261
0.000515787
0.000426111
0.000228395
0.0125744
0.0112697
0.0102728
0.00956377
0.00904912
0.0086784
0.00841224
0.00822311
0.00808982
0.0079967
0.00793184
0.00788647
0.0078621
0.00784838
0.00782895
0.00782839
0.00782619
0.00782875
0.00783182
0.00783499
0.00783647
0.00783699
0.00783756
0.00783872
0.00784366
0.0078505
0.00785736
0.00786178
0.0078623
0.00786696
0.014465
0.0175337
0.0203655
0.0225503
0.0241181
0.0252406
0.0260738
0.0267195
0.0272228
0.0275818
0.0277603
0.0277017
0.0273359
0.0265864
0.0254523
0.0240427
0.022395
0.0205637
0.0186141
0.0165977
0.0144523
0.0122735
0.0101962
0.00817038
0.00624712
0.00452181
0.00302552
0.00188845
0.00117092
0.000777741
0.000607473
0.000516182
0.000426796
0.000229238
0.0125235
0.0146983
0.0110735
0.0101381
0.00946416
0.00897683
0.00862619
0.00837504
0.00819689
0.00807155
0.00798407
0.00792268
0.00788148
0.00785924
0.00784454
0.00782899
0.00782761
0.0078265
0.00782888
0.00783212
0.0078351
0.00783652
0.00783698
0.00783757
0.00783871
0.00784367
0.0078505
0.00785735
0.00786179
0.0078623
0.00786693
0.0178723
0.0206942
0.0228016
0.0242697
0.0252934
0.0260449
0.0266406
0.0271414
0.0275599
0.0278715
0.028028
0.0279698
0.0276283
0.0269249
0.0258402
0.024468
0.022835
0.0209889
0.0189949
0.0169125
0.0146917
0.0124465
0.0103045
0.00824127
0.00630377
0.00456769
0.0030596
0.00190946
0.00118186
0.000782354
0.000608599
0.000516883
0.000427326
0.000229982
0.0122249
0.0146504
0.0181495
0.0108848
0.0100057
0.00936638
0.00890603
0.00857516
0.00833877
0.0081714
0.00805385
0.0079721
0.00791405
0.00787702
0.0078573
0.00784071
0.00782923
0.00782689
0.0078268
0.00782903
0.00783238
0.00783521
0.00783657
0.00783695
0.00783757
0.0078387
0.00784367
0.00785049
0.00785735
0.00786179
0.0078623
0.0078669
0.0209577
0.0229797
0.0243419
0.0252579
0.0259115
0.0264306
0.0268892
0.0273149
0.0276952
0.0279898
0.0281449
0.0281027
0.0277981
0.0271516
0.0261281
0.0248067
0.0232037
0.0213591
0.0193364
0.0172011
0.0149144
0.0125873
0.0103962
0.00831878
0.00636602
0.00461779
0.00309695
0.00193263
0.0011939
0.000787306
0.000610103
0.000517328
0.000428131
0.000230966
0.0119322
0.0142209
0.0180729
0.0211555
0.0107046
0.00987509
0.00927055
0.00883674
0.00852537
0.0083035
0.00814671
0.00803683
0.00796072
0.00790618
0.00787304
0.00785571
0.00783717
0.00782947
0.00782632
0.00782706
0.00782922
0.00783261
0.00783533
0.00783659
0.00783693
0.00783757
0.0078387
0.00784366
0.00785048
0.00785728
0.00786178
0.0078623
0.00786687
0.0231021
0.0243579
0.0251631
0.0257102
0.0261351
0.0265229
0.0269148
0.0273123
0.0276845
0.0279812
0.0281485
0.0281327
0.0278733
0.0272903
0.0263347
0.0250726
0.0235101
0.0216793
0.0196408
0.0174643
0.0150938
0.0127064
0.0104967
0.00840363
0.00643449
0.00467258
0.00313793
0.00195821
0.00120707
0.00079301
0.000611452
0.000518195
0.000428756
0.000231803
0.0116579
0.0137579
0.0176375
0.0210398
0.0231713
0.0105302
0.00974642
0.00917676
0.00876904
0.00847692
0.0082693
0.00812288
0.0080206
0.00795011
0.00789904
0.00786953
0.00785428
0.00783411
0.00782961
0.0078259
0.00782728
0.00782945
0.00783284
0.0078354
0.00783658
0.00783691
0.00783757
0.00783871
0.00784365
0.00785039
0.00785717
0.00786177
0.00786231
0.00786684
0.0243351
0.0250307
0.0254676
0.0257882
0.026085
0.0264118
0.0267846
0.0271845
0.027567
0.0278779
0.0280664
0.0280848
0.0278762
0.02736
0.0264757
0.0252775
0.0237625
0.0219549
0.0199112
0.0176722
0.0152448
0.0128367
0.0106069
0.00849663
0.00650987
0.00473258
0.00318293
0.00198648
0.0012216
0.000799064
0.000613335
0.000518699
0.000429715
0.000232951
0.0114008
0.0133038
0.0170961
0.0207466
0.0229937
0.0242735
0.0103595
0.00961996
0.00908518
0.00870307
0.00842994
0.00823626
0.00810013
0.00800551
0.00794033
0.0078927
0.00786633
0.00785287
0.00783177
0.00782956
0.00782565
0.00782748
0.00782971
0.00783293
0.00783539
0.00783658
0.00783691
0.00783757
0.00783872
0.00784354
0.00785021
0.00785704
0.00786176
0.00786232
0.00786681
0.024876
0.0252035
0.0254146
0.0256075
0.0258457
0.0261596
0.0265449
0.0269661
0.02737
0.0277029
0.0279197
0.0279784
0.0278244
0.0273764
0.0265641
0.0254319
0.0239689
0.0221913
0.0201194
0.0178452
0.0154086
0.0129791
0.0107277
0.00859863
0.00659291
0.00479836
0.00323239
0.00201774
0.00123757
0.000806135
0.000614978
0.000519781
0.000430502
0.000233909
0.011157
0.0128734
0.0164992
0.0203499
0.0227915
0.0240307
0.0246942
0.0101921
0.00949609
0.00899599
0.00863902
0.00838454
0.00820468
0.00807899
0.0079917
0.00793129
0.0078872
0.00786334
0.00785109
0.00783026
0.00782933
0.00782555
0.00782767
0.00782986
0.00783289
0.00783539
0.00783658
0.00783693
0.00783757
0.00783869
0.00784335
0.00785002
0.00785691
0.00786175
0.00786234
0.00786678
0.0249313
0.0250323
0.0251136
0.0252469
0.0254749
0.025809
0.026227
0.0266803
0.0271118
0.0274725
0.0277242
0.0278285
0.0277317
0.0273518
0.0266107
0.025545
0.0241366
0.0223672
0.0202904
0.0180306
0.0155861
0.0131346
0.0108602
0.00871059
0.00668447
0.00487058
0.0032868
0.00205236
0.00125527
0.000813522
0.000617355
0.000520366
0.00043164
0.000235247
0.0109237
0.0124711
0.0158733
0.0198788
0.0225032
0.0238757
0.024385
0.0246399
0.0100281
0.00937522
0.00890944
0.00857708
0.00834115
0.00817538
0.00805973
0.00797907
0.00792285
0.00788236
0.00786057
0.00784869
0.00782941
0.00782898
0.00782559
0.00782773
0.00782987
0.00783287
0.00783539
0.00783658
0.00783695
0.00783756
0.00783861
0.00784315
0.00784982
0.00785677
0.00786174
0.00786236
0.00786675
0.0246536
0.0246206
0.0246382
0.02476
0.0250123
0.0253888
0.025851
0.0263415
0.0268048
0.0271991
0.027492
0.0276467
0.027609
0.0272961
0.0266246
0.0256248
0.0242541
0.0225095
0.0204707
0.0182284
0.015778
0.0133043
0.0110056
0.00883353
0.00678547
0.00495001
0.00334677
0.00209071
0.00127481
0.000822264
0.000619387
0.000521744
0.00043269
0.000236666
0.0106991
0.0120983
0.0152314
0.0193477
0.0221606
0.0236498
0.0242412
0.0242634
0.0242605
0.00986783
0.00925782
0.00882577
0.00851785
0.00830091
0.00814872
0.00804217
0.00796752
0.007915
0.00787809
0.00785813
0.00784578
0.007829
0.00782865
0.00782566
0.00782762
0.0078299
0.00783287
0.00783539
0.00783659
0.00783698
0.00783753
0.00783853
0.00784295
0.00784961
0.00785662
0.00786173
0.00786239
0.00786671
0.0241403
0.0240372
0.0240384
0.0241842
0.0244853
0.0249174
0.0254287
0.0259585
0.0264575
0.0268919
0.0272328
0.0274424
0.0274647
0.0272174
0.0266134
0.0256705
0.0243469
0.0226564
0.0206596
0.0184386
0.0159847
0.0134891
0.0111648
0.00896861
0.00689697
0.00503749
0.00341291
0.00213332
0.00129655
0.000831548
0.000622433
0.000522436
0.000434292
0.000238671
0.0104826
0.0117538
0.0145837
0.0187583
0.0217786
0.0233876
0.0240367
0.0241058
0.0238153
0.0236567
0.00971166
0.00914443
0.00874578
0.00846295
0.00826434
0.00812446
0.00802616
0.00795707
0.00790775
0.00787441
0.00785646
0.00784284
0.0078289
0.00782831
0.00782569
0.00782758
0.0078299
0.00783289
0.0078354
0.00783657
0.00783699
0.00783752
0.00783847
0.00784274
0.00784939
0.00785647
0.00786172
0.00786242
0.00786668
0.0234555
0.0233283
0.0233492
0.0235464
0.0239115
0.024405
0.0249652
0.0255361
0.026076
0.0265585
0.0269546
0.0272228
0.0273057
0.0271225
0.0265864
0.0257039
0.0244392
0.0228066
0.0208564
0.018661
0.0162068
0.01369
0.0113392
0.00911707
0.00702015
0.00513403
0.00348602
0.00218064
0.00132071
0.000842358
0.000624989
0.000524618
0.000435687
0.000240244
0.010275
0.0114315
0.0139436
0.0181012
0.0213613
0.0231055
0.0238089