/*--------------------------------*- C++ -*----------------------------------*\
  =========                 |
  \\      /  F ield         | OpenFOAM: The Open Source CFD Toolbox
   \\    /   O peration     | Website:  https://openfoam.org
    \\  /    A nd           | Version:  8
     \\/     M anipulation  |
\*---------------------------------------------------------------------------*/
FoamFile
{
    version     2.0;
    format      ascii;
    class       volScalarField;
    location    "0.08";
    object      k;
}
// * * * * * * * * * * * * * * * * * * * * * * * * * * * * * * * * * * * * * //

dimensions      [0 2 -2 0 0 0 0];

internalField   nonuniform List<scalar> 
15677
(
0.307982
0.36046
0.25887
0.366061
0.376681
0.264016
0.368424
0.370943
0.442909
0.290101
0.37011
0.366461
0.393829
0.52415
0.331925
0.371259
0.3653
0.371825
0.438849
0.585071
0.36502
0.372012
0.36582
0.364679
0.386931
0.485016
0.627177
0.390078
0.372473
0.366767
0.362691
0.367308
0.409491
0.523956
0.656285
0.410307
0.372718
0.36769
0.362842
0.361
0.374257
0.431304
0.555625
0.678074
0.425833
0.372813
0.368438
0.363668
0.359546
0.361341
0.382461
0.451196
0.582922
0.694111
0.438945
0.372822
0.368969
0.364609
0.359881
0.357241
0.362308
0.390151
0.470758
0.6057
0.707209
0.448499
0.372794
0.369292
0.365434
0.360786
0.356558
0.355248
0.363251
0.398493
0.489334
0.625869
0.716598
0.456909
0.372762
0.369449
0.366055
0.361766
0.357144
0.353437
0.353269
0.364533
0.407479
0.507855
0.641823
0.72466
0.462929
0.372743
0.369495
0.366454
0.362614
0.358129
0.353676
0.350393
0.351476
0.366479
0.417874
0.524063
0.6557
0.730329
0.468948
0.372736
0.369488
0.366663
0.363244
0.359123
0.354648
0.350351
0.347518
0.350111
0.369692
0.427953
0.539054
0.666311
0.73582
0.473287
0.372734
0.369471
0.366738
0.363639
0.359952
0.355783
0.351361
0.347216
0.344932
0.349548
0.37327
0.438047
0.551387
0.67601
0.739292
0.478498
0.372732
0.369458
0.366746
0.363836
0.36054
0.356811
0.352671
0.348285
0.344301
0.342841
0.349384
0.377197
0.446927
0.562849
0.682984
0.743616
0.4819
0.37273
0.369448
0.366738
0.363895
0.360886
0.357607
0.35392
0.349773
0.345392
0.341715
0.341049
0.349442
0.380849
0.455594
0.571787
0.690046
0.746053
0.486329
0.372727
0.369441
0.366728
0.363902
0.361024
0.358128
0.354936
0.351237
0.347031
0.342735
0.339348
0.339409
0.349568
0.384647
0.462777
0.580439
0.694628
0.749648
0.489278
0.372724
0.369436
0.366721
0.363893
0.361062
0.358376
0.355647
0.352468
0.348686
0.344466
0.340246
0.337112
0.337878
0.349827
0.387919
0.469898
0.586731
0.699572
0.751748
0.493106
0.372722
0.36943
0.366716
0.363882
0.361061
0.358471
0.356022
0.353371
0.350111
0.346275
0.34204
0.337889
0.335001
0.336516
0.350068
0.391371
0.475487
0.59275
0.702616
0.754818
0.495807
0.37272
0.369426
0.366712
0.363872
0.361047
0.358494
0.356188
0.35388
0.351188
0.34787
0.343984
0.33975
0.335672
0.333074
0.335277
0.350526
0.394191
0.480789
0.59695
0.705927
0.756888
0.499277
0.372718
0.369422
0.366709
0.363864
0.36103
0.358487
0.356247
0.354126
0.351821
0.349114
0.345737
0.341835
0.337628
0.333657
0.331335
0.334262
0.350911
0.396965
0.484803
0.600715
0.707946
0.759689
0.501783
0.372717
0.369419
0.366706
0.363857
0.361015
0.35847
0.356257
0.354227
0.352146
0.34988
0.347132
0.343752
0.339885
0.335728
0.331859
0.329844
0.333413
0.351404
0.399164
0.488273
0.603213
0.710053
0.761777
0.5052
0.372716
0.369417
0.366704
0.363851
0.361002
0.358451
0.356246
0.354254
0.352293
0.350295
0.348009
0.345313
0.341999
0.338175
0.33407
0.330339
0.328607
0.332759
0.351861
0.401058
0.490755
0.605275
0.711267
0.764648
0.507572
0.372715
0.369415
0.366702
0.363846
0.360991
0.358433
0.356228
0.354246
0.352344
0.3505
0.348493
0.346335
0.343749
0.340489
0.336734
0.332725
0.329117
0.327653
0.332322
0.352279
0.402493
0.492636
0.60631
0.71268
0.766847
0.511075
0.372714
0.369413
0.366701
0.363842
0.360982
0.358418
0.356208
0.354224
0.352347
0.35058
0.348735
0.346933
0.344903
0.342432
0.339304
0.335648
0.331722
0.328229
0.326974
0.332046
0.352699
0.403522
0.493736
0.607137
0.713431
0.769984
0.51331
0.372712
0.369412
0.366699
0.363838
0.360974
0.358405
0.35619
0.354198
0.352328
0.350592
0.348832
0.347258
0.345576
0.34377
0.341492
0.338448
0.334893
0.331057
0.327684
0.326682
0.332083
0.353061
0.404168
0.494398
0.607193
0.714434
0.772216
0.516887
0.372711
0.36941
0.366698
0.363836
0.360968
0.358394
0.356175
0.354175
0.352301
0.350572
0.348849
0.347405
0.345942
0.344594
0.342957
0.340863
0.338092
0.334723
0.331022
0.327724
0.326777
0.332254
0.353395
0.40459
0.494355
0.607074
0.714904
0.775796
0.519114
0.37271
0.369409
0.366697
0.363833
0.360963
0.358385
0.356162
0.354155
0.352272
0.350537
0.348826
0.347444
0.346113
0.345059
0.343851
0.342658
0.340915
0.338252
0.33496
0.331299
0.328034
0.327117
0.332633
0.353785
0.404603
0.494121
0.606739
0.715806
0.777966
0.522569
0.372709
0.369407
0.366697
0.363831
0.360958
0.358377
0.35615
0.354139
0.352247
0.3505
0.348785
0.347425
0.346167
0.345276
0.344407
0.343809
0.34285
0.341298
0.338812
0.335642
0.332036
0.32877
0.327838
0.333356
0.354196
0.404547
0.493626
0.606201
0.716192
0.782277
0.525679
0.372708
0.369406
0.366696
0.363829
0.360954
0.35837
0.35614
0.354126
0.352225
0.350467
0.348739
0.347376
0.346153
0.345342
0.344715
0.344467
0.344095
0.343461
0.342205
0.339991
0.337008
0.333474
0.330157
0.329092
0.334385
0.354731
0.404416
0.492848
0.605462
0.717017
0.783863
0.528676
0.372707
0.369405
0.366695
0.363828
0.36095
0.358364
0.356131
0.354115
0.352207
0.350438
0.348696
0.347317
0.346103
0.345325
0.344842
0.344815
0.344857
0.344872
0.344722
0.343936
0.342015
0.339179
0.335627
0.332164
0.330811
0.33578
0.355436
0.404223
0.491963
0.604638
0.717483
0.787047
0.531648
0.372706
0.369404
0.366695
0.363827
0.360947
0.358358
0.356123
0.354106
0.352191
0.350414
0.348659
0.347261
0.346037
0.345264
0.344859
0.344965
0.345275
0.345773
0.346413
0.346874
0.346545
0.34491
0.342171
0.338545
0.334809
0.333058
0.337554
0.356342
0.40405
0.490939
0.60372
0.717958
0.790835
0.534704
0.372706
0.369403
0.366695
0.363827
0.360945
0.358353
0.356116
0.354098
0.352178
0.350393
0.348626
0.347211
0.345972
0.345185
0.34481
0.344995
0.345469
0.346296
0.347534
0.348878
0.349976
0.35015
0.348772
0.346085
0.342266
0.338162
0.335824
0.339757
0.357494
0.403982
0.489832
0.602654
0.718534
0.794972
0.537762
0.369401
0.37271
0.366696
0.363827
0.360943
0.358348
0.356109
0.354091
0.352167
0.350375
0.348598
0.347167
0.345912
0.345106
0.344728
0.344953
0.345526
0.346564
0.348228
0.350239
0.35237
0.354184
0.354873
0.35372
0.350976
0.34687
0.342216
0.339159
0.34236
0.358952
0.404067
0.488615
0.601681
0.719249
0.799332
0.540891
0.366696
0.369409
0.372719
0.363828
0.360942
0.358344
0.356103
0.354085
0.352158
0.35036
0.348574
0.347129
0.345859
0.345035
0.34464
0.344873
0.345501
0.346668
0.348615
0.351127
0.354046
0.357067
0.359648
0.360851
0.35983
0.356937
0.35236
0.347031
0.34304
0.345323
0.36092
0.404356
0.487555
0.600701
0.720163
0.803743
0.543909
0.36383
0.366712
0.369425
0.372728
0.360942
0.35834
0.356097
0.35408
0.35215
0.350347
0.348554
0.347096
0.345812
0.34497
0.344557
0.344786
0.345432
0.346678
0.348805
0.351676
0.355194
0.359152
0.363145
0.366534
0.36819
0.367212
0.363984
0.358804
0.352565
0.347519
0.34901
0.363556
0.404944
0.486551
0.599923
0.721192
0.808147
0.546972
0.360942
0.363855
0.366744
0.369441
0.372737
0.358337
0.356092
0.354075
0.352143
0.350335
0.348538
0.347067
0.345771
0.344914
0.344481
0.344701
0.345349
0.346631
0.348878
0.352
0.355968
0.360651
0.365759
0.370797
0.374973
0.377022
0.375902
0.372197
0.366159
0.358857
0.353108
0.353651
0.36663
0.405833
0.485791
0.599207
0.72238
0.812517
0.54984
0.358334
0.360971
0.363905
0.366777
0.369457
0.372746
0.356088
0.354071
0.352138
0.350325
0.348524
0.347041
0.345734
0.344864
0.344413
0.344624
0.345268
0.346565
0.348885
0.352186
0.356491
0.361738
0.367729
0.37409
0.380183
0.385126
0.387401
0.385993
0.381534
0.374469
0.366638
0.360112
0.358805
0.370081
0.407019
0.485121
0.598708
0.723644
0.81677
0.552745
0.356083
0.358363
0.361031
0.363957
0.366811
0.369474
0.372756
0.354067
0.352134
0.350317
0.348512
0.347019
0.345703
0.34482
0.344353
0.344554
0.345193
0.346497
0.348861
0.352288
0.356858
0.362551
0.369249
0.376682
0.38434
0.391499
0.397072
0.399447
0.397447
0.392051
0.384699
0.3763
0.367841
0.364414
0.373886
0.408434
0.484723
0.598296
0.724977
0.820959
0.555401
0.354063
0.356111
0.358424
0.361094
0.364011
0.366845
0.36949
0.372766
0.35213
0.35031
0.348503
0.347
0.345675
0.344782
0.344301
0.344493
0.345125
0.346434
0.348827
0.352347
0.357124
0.363195
0.370481
0.378802
0.387754
0.396746
0.404855
0.410965
0.413125
0.410334
0.404971
0.397341
0.386892
0.376194
0.370408
0.377974
0.410102
0.484397
0.598064
0.726363
0.824959
0.558099
0.352127
0.354095
0.356173
0.358487
0.361158
0.364066
0.366879
0.369507
0.372776
0.350305
0.348496
0.346984
0.345651
0.344749
0.344254
0.344439
0.345065
0.346377
0.348792
0.352386
0.35733
0.363722
0.371539
0.380627
0.390686
0.401234
0.411475
0.420457
0.426783
0.428536
0.426156
0.420898
0.411146
0.398278
0.385059
0.376719
0.382293
0.412024
0.484382
0.597937
0.727765
0.828892
0.560517
0.3503
0.352165
0.354166
0.356237
0.358552
0.361225
0.364123
0.366915
0.369523
0.372787
0.34849
0.34697
0.345631
0.344721
0.344213
0.344391
0.345013
0.346327
0.34876
0.352418
0.357503
0.364166
0.372468
0.382289
0.393336
0.405253
0.41734
0.428786
0.43833
0.444692
0.447483
0.445658
0.438257
0.425936
0.410308
0.394332
0.383278
0.386665
0.414153
0.48446
0.597957
0.729204
0.832581
0.562987
0.348486
0.35034
0.352246
0.354237
0.356302
0.358619
0.361294
0.364181
0.366951
0.36954
0.372798
0.346958
0.345614
0.344697
0.344177
0.344349
0.344966
0.346283
0.348732
0.352447
0.357656
0.364559
0.373289
0.383818
0.395858
0.409039
0.422791
0.43641
0.448742
0.458697
0.466834
0.470939
0.466936
0.456826
0.441513
0.422834
0.403902
0.390055
0.391073
0.416427
0.48465
0.598024
0.730613
0.836222
0.565164
0.346948
0.34853
0.350429
0.352329
0.354311
0.35637
0.358689
0.361366
0.364241
0.366987
0.369558
0.37281
0.345599
0.344676
0.344145
0.344312
0.344925
0.346244
0.348708
0.352474
0.357795
0.364914
0.374034
0.385209
0.398257
0.412772
0.428107
0.443738
0.458569
0.471667
0.484032
0.494461
0.496666
0.489724
0.476364
0.457687
0.435709
0.413665
0.39696
0.395503
0.418795
0.485009
0.598151
0.732042
0.839572
0.567401
0.345585
0.346982
0.348626
0.35052
0.352415
0.354386
0.356439
0.358761
0.36144
0.364302
0.367024
0.369575
0.372822
0.344659
0.344116
0.34428
0.34489
0.34621
0.348688
0.3525
0.357923
0.365241
0.374718
0.386491
0.400493
0.416426
0.433499
0.451106
0.468305
0.484274
0.500411
0.515926
0.524999
0.52442
0.513792
0.49665
0.474268
0.448785
0.42352
0.403919
0.399926
0.421223
0.485512
0.598329
0.733412
0.842909
0.569344
0.344643
0.345611
0.347068
0.348726
0.350614
0.352503
0.354462
0.35651
0.358836
0.361516
0.364365
0.367062
0.369593
0.372834
0.34409
0.344251
0.344859
0.346181
0.348671
0.352526
0.358041
0.365541
0.375349
0.387681
0.402586
0.419895
0.438896
0.458781
0.478367
0.497129
0.516811
0.537012
0.551536
0.558208
0.553914
0.538888
0.51746
0.491073
0.461925
0.433373
0.410864
0.404316
0.423684
0.486122
0.598553
0.73479
0.845906
0.571351
0.344063
0.344656
0.345683
0.347156
0.34883
0.350712
0.352593
0.354541
0.356583
0.358914
0.361595
0.36443
0.367099
0.369611
0.372846
0.344226
0.344832
0.346157
0.348657
0.35255
0.35815
0.365818
0.375932
0.388788
0.40455
0.423179
0.444102
0.466646
0.489103
0.510765
0.534021
0.558827
0.57841
0.590703
0.59383
0.584863
0.564753
0.538581
0.507933
0.475009
0.44314
0.41774
0.40865
0.426153
0.486816
0.598812
0.736095
0.848947
0.573077
0.344202
0.344042
0.344706
0.345757
0.34725
0.348938
0.350812
0.352686
0.354621
0.35666
0.358994
0.361677
0.364495
0.367136
0.369628
0.372857
0.344807
0.346136
0.348647
0.352573
0.35825
0.366071
0.376468
0.389814
0.40639
0.426286
0.449103
0.47438
0.500309
0.525646
0.55278
0.582479
0.607124
0.624624
0.633266
0.631617
0.616982
0.591128
0.559821
0.524703
0.487929
0.452751
0.424498
0.412905
0.428608
0.48757
0.599108
0.737396
0.851595
0.574863
0.344784
0.344162
0.344029
0.344756
0.345837
0.347349
0.34905
0.350915
0.35278
0.354703
0.356738
0.359078
0.36176
0.36456
0.367171
0.369645
0.372869
0.346117
0.348638
0.352596
0.358342
0.366304
0.37696
0.390763
0.408105
0.429216
0.453894
0.481907
0.511463
0.541527
0.573815
0.609096
0.639301
0.662111
0.675779
0.679138
0.671341
0.650001
0.617771
0.581004
0.541257
0.5006
0.462146
0.4311
0.41706
0.431031
0.488368
0.599425
0.738619
0.85436
0.576391
0.346099
0.344712
0.344109
0.344014
0.344813
0.345924
0.347453
0.349167
0.351021
0.352877
0.354787
0.35682
0.359165
0.361843
0.364622
0.367204
0.369662
0.37288
0.348628
0.352618
0.358428
0.366517
0.377411
0.391637
0.409697
0.431965
0.458461
0.489179
0.522435
0.557731
0.596878
0.639858
0.67678
0.705772
0.724654
0.732283
0.728351
0.712832
0.683693
0.644478
0.601974
0.557489
0.512949
0.471275
0.437512
0.4211
0.433407
0.489192
0.59977
0.739826
0.856668
0.577966
0.348621
0.34598
0.34459
0.344048
0.344014
0.344875
0.346019
0.347563
0.349288
0.35113
0.352977
0.354873
0.356904
0.359252
0.361924
0.364682
0.367236
0.369678
0.372891
0.352636
0.358507
0.366713
0.377825
0.392441
0.41117
0.434534
0.462783
0.49615
0.533185
0.574091
0.620866
0.674545
0.721898
0.759178
0.784526
0.796363
0.794844
0.781051
0.755977
0.717868
0.671076
0.622605
0.573314
0.524918
0.480101
0.443711
0.425011
0.435724
0.490034
0.600121
0.740962
0.859189
0.579316
0.352656
0.348423
0.345747
0.344452
0.343992
0.344035
0.344939
0.346121
0.347677
0.349413
0.351242
0.353078
0.354961
0.356988
0.359337
0.362003
0.36474
0.367267
0.369694
0.372902
0.358576
0.366892
0.378204
0.393179
0.412529
0.436924
0.46685
0.502793
0.543675
0.590461
0.645286
0.7118
0.775781
0.827765
0.862457
0.879449
0.879215
0.864236
0.837391
0.800675
0.752363
0.697422
0.64279
0.58867
0.536468
0.488597
0.449678
0.428783
0.437972
0.490876
0.600494
0.742064
0.861212
0.580483
0.358647
0.352369
0.348003
0.345493
0.344329
0.34393
0.344072
0.345007
0.346231
0.347797
0.349541
0.351357
0.35318
0.355049
0.357072
0.359421
0.362079
0.364795
0.367297
0.369711
0.372912
0.367052
0.378551
0.393856
0.41378
0.43914
0.470659
0.509092
0.553847
0.606627
0.669878
0.751729
0.838153
0.915761
0.968673
0.993288
0.99389
0.974606
0.940872
0.897367
0.846785
0.787025
0.723398
0.662447
0.603506
0.547568
0.496743
0.455401
0.432408
0.440145
0.49172
0.600858
0.743111
0.863135
0.581438
0.367209
0.358242
0.351707
0.347556
0.345263
0.344218
0.343872
0.344123
0.345081
0.346347
0.347923
0.349673
0.351474
0.353281
0.355134
0.357153
0.359504
0.362154
0.364848
0.367325
0.369727
0.372922
0.378865
0.394477
0.414932
0.441193
0.474213
0.515041
0.563638
0.622399
0.694618
0.794931
0.909765
1.02218
1.10875
1.15177
1.15451
1.1286
1.08247
1.02446
0.960682
0.894075
0.821696
0.748901
0.68151
0.617787
0.5582
0.504528
0.460871
0.435881
0.442234
0.492546
0.601239
0.743954
0.864612
0.582565
0.379163
0.366655
0.357235
0.351006
0.347143
0.345052
0.344113
0.343821
0.344185
0.345162
0.34647
0.348056
0.349807
0.35159
0.353379
0.355218
0.357234
0.359585
0.362226
0.364899
0.367353
0.369744
0.372932
0.395043
0.415991
0.443092
0.477525
0.52064
0.572996
0.637673
0.719654
0.841651
0.989994
1.14409
1.27509
1.35687
1.37528
1.34339
1.28116
1.20108
1.11392
1.02672
0.942209
0.856202
0.773841
0.699932
0.631487
0.568352
0.511947
0.466086
0.439199
0.444241
0.493363
0.601552
0.744673
0.866207
0.583706
0.39557
0.378423
0.365164
0.356178
0.350354
0.346757
0.344854
0.344017
0.34378
0.344255
0.345251
0.3466
0.348193
0.34994
0.351702
0.353473
0.3553
0.357313
0.359664
0.362295
0.364949
0.367381
0.36976
0.372937
0.416964
0.444846
0.480607
0.525897
0.581894
0.652426
0.745111
0.891436
1.07646
1.27614
1.45789
1.59082
1.65135
1.63102
1.5535
1.44703
1.32756
1.20761
1.09463
0.990771
0.890357
0.798136
0.717677
0.644592
0.57802
0.518998
0.471042
0.442362
0.446156
0.494044
0.601832
0.745449
0.86793
0.585056
0.417851
0.394605
0.376256
0.363613
0.355189
0.349735
0.346393
0.344668
0.343931
0.343751
0.344334
0.345351
0.346734
0.348332
0.350069
0.351811
0.353564
0.355381
0.357391
0.359742
0.362362
0.364996
0.367407
0.369768
0.372938
0.446471
0.483471
0.530821
0.590328
0.666678
0.770981
0.943278
1.1661
1.41241
1.64766
1.83838
1.95578
1.98003
1.90906
1.77737
1.62105
1.45863
1.30363
1.1634
1.03929
0.923968
0.821713
0.73472
0.657096
0.587206
0.525685
0.475745
0.445369
0.447746
0.494644
0.602127
0.746334
0.869782
0.586386
0.447928
0.416623
0.391502
0.374025
0.362156
0.354244
0.349142
0.346047
0.344495
0.343856
0.343735
0.344418
0.34546
0.346869
0.348468
0.350193
0.351917
0.353653
0.35546
0.357468
0.359818
0.362427
0.365042
0.36742
0.369766
0.372938
0.48614
0.535428
0.598309
0.680458
0.797119
0.995989
1.25608
1.54806
1.83676
2.08804
2.2702
2.35669
2.33175
2.2004
2.0082
1.79842
1.59117
1.40013
1.23206
1.0873
0.956846
0.844507
0.751042
0.668997
0.595915
0.532015
0.480197
0.447845
0.449092
0.495312
0.602488
0.74729
0.871709
0.587988
0.488498
0.446374
0.412226
0.388341
0.371923
0.360758
0.353333
0.348573
0.345723
0.344334
0.343794
0.343737
0.344507
0.345576
0.347002
0.348602
0.350314
0.35202
0.353739
0.355538
0.357543
0.359891
0.36249
0.365065
0.367419
0.369765
0.372938
0.539748
0.605864
0.693793
0.823296
1.04847
1.3443
1.67975
2.02003
2.33166
2.58211
2.74063
2.78271
2.69738
2.49771
2.24046
1.97517
1.72252
1.49547
1.2997
1.13436
0.988816
0.86646
0.766632
0.680301
0.604159
0.537996
0.483849
0.449953
0.450563
0.496077
0.602872
0.748376
0.873782
0.589515
0.543525
0.486557
0.440195
0.407797
0.385357
0.3699
0.359407
0.352455
0.348029
0.345422
0.344188
0.343742
0.343766
0.344597
0.345696
0.347134
0.348734
0.35043
0.352119
0.353823
0.355615
0.357618
0.359963
0.362522
0.365067
0.367419
0.369765
0.372938
0.613035
0.706711
0.849271
1.09985
1.42933
1.8055
2.19442
2.56406
2.88272
3.11806
3.23951
3.22503
3.06957
2.79521
2.46986
2.1483
1.85064
1.58835
1.36556
1.18009
1.01972
0.887524
0.781485
0.691017
0.611949
0.542892
0.486945
0.45227
0.452176
0.496928
0.603361
0.749539
0.875915
0.591398
0.619297
0.5411
0.477888
0.434041
0.403609
0.382478
0.367938
0.358099
0.35161
0.347506
0.345143
0.344053
0.343684
0.343818
0.344686
0.345819
0.347263
0.348862
0.350543
0.352215
0.353905
0.35569
0.357691
0.36
0.362525
0.365068
0.367419
0.369766
0.372937
0.719233
0.874837
1.14949
1.51031
1.92422
2.35832
2.78231
3.1664
3.47889
3.68638
3.75836
3.67623
3.44227
3.08837
2.69322
2.31559
1.97402
1.67777
1.42904
1.22417
1.04943
0.907663
0.795604
0.701156
0.618321
0.547037
0.490332
0.454819
0.453943
0.497912
0.603873
0.750863
0.878269
0.593129
0.730266
0.616289
0.52885
0.469365
0.428212
0.399559
0.37968
0.366037
0.356837
0.350799
0.347008
0.344884
0.343935
0.343632
0.343885
0.344777
0.345943
0.347391
0.348986
0.350652
0.352308
0.353985
0.355764
0.357727
0.360001
0.362526
0.365068
0.367419
0.369768
0.372932
0.899784
1.19698
1.58677
2.03543
2.51108
2.98508
3.42998
3.81637
4.11105
4.2788
4.28962
4.1298
3.81042
3.37365
2.90819
2.4755
2.09162
1.76304
1.48969
1.26636
1.07785
0.926848
0.808983
0.709449
0.623714
0.551567
0.49404
0.457628
0.455891
0.499001
0.604541
0.75227
0.88065
0.59533
0.726643
0.921753
0.598336
0.517048
0.461273
0.422565
0.395618
0.376963
0.364197
0.355621
0.350023
0.34654
0.344651
0.343832
0.343594
0.343962
0.34487
0.346067
0.347517
0.349107
0.350758
0.352398
0.354064
0.355799
0.357726
0.360002
0.362526
0.365067
0.36742
0.36976
0.372922
1.24199
1.65852
2.13902
2.65259
3.172
3.67209
4.12657
4.50485
4.77097
4.88759
4.82623
4.57989
4.1698
3.64836
3.11314
2.62703
2.20279
1.8437
1.54722
1.30647
1.10488
0.945044
0.819936
0.716475
0.62961
0.556521
0.498106
0.460725
0.458032
0.500272
0.605227
0.753878
0.883388
0.597276
0.698616
0.918679
1.28076
0.581589
0.50584
0.453422
0.417064
0.391785
0.37433
0.362422
0.354455
0.349285
0.346107
0.344446
0.343746
0.34357
0.344044
0.344966
0.34619
0.34764
0.349225
0.35086
0.352486
0.354102
0.355797
0.357725
0.360002
0.362525
0.365065
0.367407
0.369743
0.372912
1.72546
2.23514
2.78311
3.34333
3.89262
4.40789
4.86258
5.22347
5.4508
5.50522
5.36144
5.02125
4.5169
3.91045
3.30699
2.76959
2.30716
1.91949
1.60142
1.34439
1.13045
0.959944
0.829226
0.724166
0.636062
0.561945
0.502567
0.464144
0.460406
0.50167
0.606141
0.75558
0.886083
0.599844
0.672994
0.873611
1.27868
1.78248
0.565884
0.494946
0.445771
0.411707
0.388065
0.371785
0.360714
0.35334
0.348592
0.345721
0.344269
0.343679
0.343561
0.34413
0.345065
0.346312
0.347761
0.349338
0.350961
0.352529
0.3541
0.355797
0.357725
0.360001
0.362522
0.365042
0.36738
0.369727
0.372901
2.32394
2.90318
3.49977
4.09225
4.66044
5.18216
5.62925
5.96429
6.14277
6.12423
5.88887
5.44923
4.84888
4.15849
3.48908
2.90289
2.40456
1.99027
1.65219
1.37999
1.15133
0.972592
0.839413
0.732592
0.643129
0.567888
0.507468
0.467925
0.463022
0.503317
0.60706
0.757537
0.889378
0.602033
0.649402
0.831367
1.21196
1.78244
2.39927
0.550725
0.484314
0.438321
0.406505
0.384466
0.369333
0.359079
0.352288
0.347964
0.345382
0.344118
0.343628
0.343567
0.344216
0.345165
0.34643
0.347879
0.34945
0.351011
0.352528
0.354099
0.355797
0.357726
0.36
0.36249
0.364995
0.367353
0.36971
0.372891
3.01324
3.64232
4.27226
4.88547
5.46389
5.98535
6.4184
6.71952
6.83903
6.7372
6.40252
5.85982
5.16357
4.39152
3.65909
3.02685
2.49499
2.05604
1.69946
1.40886
1.16903
0.986475
0.850597
0.741837
0.650879
0.574407
0.512856
0.472106
0.465938
0.505118
0.608311
0.759605
0.892474
0.605031
0.627112
0.791916
1.14652
1.69652
2.40251
3.10596
0.53598
0.473954
0.431087
0.401467
0.380997
0.366981
0.35753
0.351326
0.347404
0.345087
0.343989
0.34359
0.343591
0.344301
0.345268
0.346547
0.347998
0.349506
0.35101
0.352528
0.354099
0.355797
0.357727
0.359963
0.362426
0.364948
0.367324
0.369694
0.37288
3.77183
4.43432
5.08507
5.70981
6.29229
6.80886
7.22238
7.48138
7.53158
7.33686
6.89694
6.24974
5.45944
4.60903
3.81694
3.14155
2.57854
2.11681
1.73747
1.43325
1.18843
1.00173
0.862886
0.751988
0.659386
0.581565
0.518785
0.476739
0.469161
0.507259
0.609549
0.762014
0.896606
0.607536
0.605849
0.754722
1.08262
1.61024
2.29993
3.1129
3.8796
0.521633
0.463891
0.424084
0.396608
0.377667
0.364752
0.356109
0.350463
0.346905
0.344833
0.34388
0.343556
0.343633
0.344385
0.345371
0.346667
0.348057
0.349504
0.351011
0.352528
0.3541
0.355799
0.357691
0.35989
0.362361
0.364898
0.367296
0.369678
0.372868
4.57985
5.26189
5.92315
6.55307
7.13622
7.64511
8.03389
8.24189
8.2122
7.91621
7.3674
6.61652
5.73549
4.8108
3.96275
3.2472
2.65536
2.16538
1.76946
1.45987
1.2097
1.01849
0.8764
0.763143
0.668731
0.58943
0.525318
0.481874
0.472778
0.509589
0.611266
0.764551
0.900183
0.61103
0.585503
0.719678
1.02001
1.52372
2.19589
2.99548
3.88917
4.69852
0.507704
0.454155
0.417332
0.391942
0.374507
0.362701
0.354831
0.34969
0.346458
0.344615
0.343788
0.343522
0.343686
0.344468
0.345486
0.346725
0.348054
0.349505
0.351011
0.352528
0.354102
0.355763
0.357617
0.359816
0.362293
0.364846
0.367266
0.369661
0.372857
5.41816
6.10788
6.77241
7.40457
7.9879
8.48749
8.84566
8.99265
8.87263
8.46884
7.81008
6.95841
5.99124
4.99692
4.0968
3.34404
2.71648
2.20611
1.80425
1.48893
1.23301
1.03691
0.891268
0.775411
0.679006
0.598081
0.532523
0.487579
0.476788
0.512383
0.61294
0.767585
0.905519
0.614738
0.566015
0.686815
0.958907
1.43656
2.09037
2.87614
3.75739
4.70787
5.54157
0.494226
0.444779
0.410851
0.387514
0.371599
0.360854
0.353681
0.348996
0.34606
0.344427
0.343712
0.343494
0.343748
0.344567
0.345539
0.346718
0.348056
0.349505
0.35101
0.352529
0.354064
0.355688
0.357541
0.359739
0.362223
0.364793
0.367235
0.369645
0.372846
6.26737
6.9561
7.62055
8.25595
8.84134
9.32994
9.64999
9.72471
9.50477
8.98924
8.22214
7.27441
6.22664
5.1677
4.21943
3.42086
2.76765
2.2503
1.84206
1.52062
1.25855
1.05716
0.907628
0.788911
0.690313
0.607608
0.540479
0.493917
0.48132
0.515414
0.615301
0.770702
0.910508
0.619971
0.547348
0.656163
0.899811
1.34875
1.98284
2.7546
3.6241
4.56062
5.5459
6.3881
0.481242
0.435794
0.404703
0.38344
0.368978
0.359191
0.352647
0.348374
0.345709
0.344266
0.343645
0.343477
0.343836
0.344608
0.345529
0.346719
0.348056
0.349504
0.351011
0.352486
0.353984
0.355613
0.357465
0.359661
0.362151
0.364738
0.367203
0.369628
0.372834
7.10908
7.79234
8.45815
9.10151
9.6918
10.1663
10.4382
10.4288
10.1011
9.47293
8.60174
7.56425
6.44199
5.32358
4.3165
3.48513
2.82309
2.29818
1.8831
1.55513
1.28648
1.0794
0.925632
0.803773
0.702767
0.618111
0.549275
0.50098
0.486364
0.519084
0.617578
0.775399
0.917691
0.624085
0.529487
0.627688
0.843364
1.26066
1.87296
2.63028
3.48864
4.41334
5.3802
6.38123
7.21859
0.468795
0.42729
0.39905
0.37977
0.366617
0.357692
0.351716
0.347818
0.3454
0.344123
0.343591
0.343503
0.343875
0.344586
0.345531
0.346719
0.348054
0.349506
0.35096
0.352397
0.353903
0.355536
0.357388
0.359582
0.362077
0.36468
0.36717
0.369611
0.372822
7.92693
8.60568
9.27938
9.93737
10.5353
10.9891
11.2012
11.0955
10.6551
9.91679
8.94812
7.82816
6.63784
5.44665
4.39759
3.55466
2.88304
2.34998
1.92757
1.59265
1.31701
1.10381
0.94544
0.820142
0.716496
0.629704
0.559017
0.50885
0.49211
0.523056
0.621428
0.780686
0.926237
0.630417
0.51243
0.60128
0.790259
1.17288
1.76068
2.50254
3.35051
4.26489
5.21739
6.19169
7.19284
8.01427
0.457018
0.419488
0.39396
0.376465
0.36449
0.356343
0.350881
0.347321
0.345124
0.344
0.34359
0.343499
0.343852
0.344587
0.345531
0.346718
0.348057
0.34945
0.350858
0.352306
0.353821
0.355457
0.35731
0.359501
0.362
0.364621
0.367135
0.369593
0.37281
8.70818
9.39045
10.0778
10.7564
11.3653
11.7918
11.9279
11.7158
11.1617
10.3192
9.26141
8.06684
6.79181
5.54915
4.48515
3.62975
2.94779
2.40592
1.97565
1.63336
1.3503
1.13056
0.967223
0.838173
0.73164
0.642518
0.569818
0.517654
0.498536
0.528817
0.625851
0.787433
0.936109
0.635098
0.496304
0.576762
0.741149
1.08628
1.64615
2.37088
3.20879
4.11494
5.05556
6.00996
6.97179
7.95943
8.76125
0.446232
0.41248
0.38938
0.373489
0.362573
0.355128
0.350129
0.346872
0.344882
0.343952
0.34357
0.343455
0.343857
0.344587
0.345529
0.346725
0.347998
0.349336
0.350755
0.352212
0.353736
0.355378
0.357231
0.359419
0.361922
0.364559
0.367099
0.369575
0.372798
9.44313
10.1317
10.8424
11.5504
12.1732
12.562
12.6071
12.2817
11.6175
10.6799
9.54246
8.25325
6.91946
5.65946
4.57951
3.7107
3.01754
2.46618
2.02752
1.67742
1.38653
1.15983
0.991153
0.858033
0.748358
0.656694
0.581823
0.527503
0.507295
0.536005
0.631883
0.794057
0.9469
0.643261
0.48151
0.554124
0.696424
1.00193
1.52975
2.23504
3.06258
3.96237
4.89467
5.83291
6.76587
7.69844
8.65931
9.45178
0.43657
0.406188
0.385261
0.37081
0.360847
0.354034
0.349447
0.346473
0.344747
0.343902
0.343516
0.343457
0.343857
0.344586
0.34554
0.346667
0.347877
0.349221
0.350648
0.352115
0.35365
0.355297
0.357151
0.359335
0.361842
0.364495
0.367061
0.369557
0.372787
10.1294
10.8414
11.592
12.3257
12.952
13.2879
13.2276
12.7874
12.0215
10.9998
9.75988
8.40676
7.05601
5.77782
4.68092
3.79771
3.09249
2.53094
2.08333
1.72498
1.42584
1.19179
1.0174
0.879892
0.766811
0.672403
0.595184
0.540629
0.51853
0.54458
0.637858
0.802553
0.95952
0.648767
0.468233
0.53368
0.656258
0.921225
1.41214
2.09491
2.91107
3.80591
4.73343
5.66071
6.57027
7.46171
8.35088
9.27346
10.0681
0.427929
0.400537
0.381557
0.368398
0.359291
0.353039
0.348837
0.346218
0.344642
0.34383
0.343522
0.343457
0.343852
0.344608
0.345485
0.346545
0.347757
0.349104
0.350539
0.352016
0.353561
0.355216
0.357069
0.35925
0.36176
0.36443
0.367024
0.36954
0.372776
10.7569
11.5116
12.3226
13.0899
13.697
13.9556
13.7796
13.2297
12.3744
11.244
9.93726
8.56953
7.20149
5.90439
4.78956
3.89096
3.17279
2.6003
2.14317
1.77612
1.46837
1.22657
1.04614
0.903921
0.787187
0.689814
0.612849
0.557355
0.531148
0.553695
0.645813
0.811296
0.972134
0.659299
0.45635
0.515412
0.621806
0.846455
1.29434
1.95058
2.75354
3.64423
4.57027
5.49189
6.38516
7.24303
8.07629
8.91042
9.79478
10.6005
0.420204
0.395464
0.378228
0.366226
0.357878
0.352148
0.34842
0.346044
0.344545
0.343839
0.343522
0.343454
0.343875
0.344567
0.345369
0.346427
0.347636
0.348982
0.350426
0.351913
0.35347
0.355132
0.356987
0.359164
0.361676
0.364364
0.366986
0.369523
0.372765
11.3241
12.1477
13.0344
13.8323
14.3955
14.5505
14.2557
13.6083
12.6387
11.4407
10.1231
8.74118
7.35578
6.03916
4.9055
3.99053
3.25851
2.67434
2.20711
1.83093
1.51418
1.26431
1.07749
0.930296
0.809648
0.712722
0.635152
0.575596
0.544989
0.564539
0.653885
0.822227
0.98767
0.665832
0.445741
0.499006
0.592703
0.780437
1.17872
1.80242
2.58938
3.47597
4.40343
5.32463
6.20869
7.04236
7.8294
8.59106
9.36309
10.2119
11.0455
0.413298
0.390912
0.375234
0.364257
0.356612
0.35151
0.34815
0.345914
0.344558
0.343839
0.343516
0.343499
0.343836
0.344467
0.345265
0.346308
0.347512
0.348857
0.350309
0.351808
0.353376
0.355047
0.356904
0.359078
0.361594
0.364301
0.36695
0.369506
0.372755
11.8336
12.7567
13.7314
14.5402
15.0296
15.0585
14.6531
13.8843
12.8478
11.6434
10.3162
8.92101
7.51846
6.18194
5.02865
4.09641
3.34967
2.75307
2.27515
1.88939
1.56332
1.30505
1.1116
0.959134
0.839005
0.741355
0.659125
0.595413
0.560586
0.576297
0.66455
0.833725
1.00179
0.67922
0.436291
0.484254
0.567804
0.724636
1.07007
1.65219
2.41814
3.2997
4.23091
5.15678
6.03877
6.85716
7.60991
8.31089
8.99075
9.69688
10.5099
11.3985
0.407122
0.386827
0.372526
0.362492
0.355678
0.351113
0.347985
0.345933
0.344558
0.34383
0.34357
0.343503
0.343746
0.344383
0.345162
0.346186
0.347386
0.348729
0.350189
0.351699
0.353279
0.35496
0.35682
0.358993
0.361514
0.364239
0.366914
0.369489
0.372746
12.2919
13.3498
14.4094
15.195
15.5795
15.47
14.9315
14.0972
13.0583
11.8498
10.5151
9.10793
7.68883
6.33231
5.15879
4.20845
3.44617
2.83641
2.34721
1.95145
1.61573
1.34883
1.14847
0.996463
0.875189
0.771689
0.684826
0.617069
0.577848
0.590077
0.675667
0.84792
1.02096
0.687233
0.427886
0.471004
0.546214
0.677976
0.971882
1.50516
2.24092
3.114
4.05049
4.98585
5.87293
6.68494
7.41421
8.0693
8.67245
9.26293
9.89917
10.6726
11.6547
0.401596
0.383142
0.370102
0.36116
0.355108
0.350901
0.348011
0.345933
0.344544
0.343902
0.343591
0.343477
0.343684
0.344299
0.345061
0.346063
0.347259
0.348598
0.350066
0.351588
0.35318
0.354872
0.356737
0.358912
0.361437
0.364179
0.366878
0.369473
0.372736
12.7117
13.9282
15.0622