/*--------------------------------*- C++ -*----------------------------------*\
  =========                 |
  \\      /  F ield         | OpenFOAM: The Open Source CFD Toolbox
   \\    /   O peration     | Website:  https://openfoam.org
    \\  /    A nd           | Version:  8
     \\/     M anipulation  |
\*---------------------------------------------------------------------------*/
FoamFile
{
    version     2.0;
    format      ascii;
    class       volScalarField;
    location    "0.05";
    object      k;
}
// * * * * * * * * * * * * * * * * * * * * * * * * * * * * * * * * * * * * * //

dimensions      [0 2 -2 0 0 0 0];

internalField   nonuniform List<scalar> 
3919
(
0.373357
0.370193
0.373365
0.367255
0.370217
0.373373
0.364524
0.367294
0.37024
0.373381
0.361981
0.364575
0.367331
0.370263
0.373389
0.359607
0.362044
0.364625
0.367367
0.370285
0.373397
0.357387
0.35968
0.362105
0.364673
0.367403
0.370307
0.373404
0.355305
0.35747
0.359751
0.362164
0.36472
0.367437
0.370328
0.373408
0.353359
0.355396
0.35755
0.359821
0.362222
0.364766
0.36747
0.370339
0.373408
0.351537
0.353457
0.355485
0.357629
0.359889
0.362279
0.364811
0.367487
0.370339
0.373408
0.349846
0.35164
0.353554
0.355572
0.357707
0.359955
0.362334
0.364833
0.367487
0.370339
0.373408
0.348282
0.349953
0.351741
0.353649
0.355658
0.357782
0.36002
0.362361
0.364833
0.367487
0.370339
0.373408
0.346863
0.348391
0.350059
0.351842
0.353741
0.355741
0.357856
0.360052
0.362361
0.364832
0.367487
0.370339
0.373408
0.345598
0.346968
0.348499
0.350164
0.351941
0.353832
0.355823
0.357892
0.360051
0.362361
0.364832
0.367487
0.370339
0.373404
0.344508
0.345699
0.347074
0.348606
0.350267
0.352038
0.353921
0.355863
0.357891
0.360051
0.362361
0.364833
0.367487
0.370328
0.373397
0.34368
0.344592
0.3458
0.347181
0.348712
0.35037
0.352133
0.353965
0.355862
0.35789
0.360051
0.362361
0.364833
0.36747
0.370307
0.373389
0.343029
0.343741
0.344682
0.345902
0.347288
0.348817
0.350471
0.35218
0.353963
0.355861
0.35789
0.360051
0.362361
0.364811
0.367436
0.370285
0.373381
0.342957
0.34306
0.343805
0.344776
0.346003
0.347396
0.348921
0.35052
0.352178
0.353962
0.355861
0.357891
0.360052
0.362334
0.364765
0.367402
0.370262
0.373373
0.343206
0.342888
0.343108
0.343871
0.344874
0.346104
0.347503
0.348969
0.350517
0.352177
0.353962
0.355862
0.357892
0.36002
0.362278
0.364719
0.367366
0.37024
0.373365
0.343903
0.343085
0.342836
0.343167
0.34394
0.344976
0.346207
0.347555
0.348965
0.350516
0.352177
0.353963
0.355863
0.357855
0.359954
0.362221
0.364672
0.36733
0.370216
0.373356
0.345312
0.34368
0.342986
0.342801
0.343232
0.344015
0.345082
0.346252
0.347551
0.348963
0.350516
0.352178
0.353965
0.355823
0.357781
0.359887
0.362163
0.364623
0.367293
0.370192
0.373348
0.347682
0.34491
0.343491
0.342908
0.342782
0.343306
0.344099
0.345132
0.346242
0.347549
0.348963
0.350517
0.35218
0.353921
0.35574
0.357705
0.359819
0.362103
0.364573
0.367254
0.370167
0.373339
0.351167
0.347047
0.344562
0.34333
0.342848
0.342784
0.343392
0.34413
0.345124
0.346239
0.347549
0.348965
0.35052
0.352133
0.353831
0.355656
0.357627
0.359749
0.362042
0.364523
0.367216
0.370142
0.373329
0.356051
0.350216
0.346486
0.34426
0.343195
0.342811
0.342817
0.343429
0.344109
0.345122
0.346239
0.347551
0.348969
0.35047
0.352036
0.353739
0.35557
0.357548
0.359678
0.361979
0.364471
0.367176
0.370116
0.37332
0.362685
0.354674
0.34937
0.345989
0.344002
0.343092
0.342809
0.342821
0.34341
0.344103
0.345122
0.346242
0.347555
0.34892
0.350368
0.351938
0.353646
0.355482
0.357467
0.359605
0.361916
0.364418
0.367135
0.37009
0.37331
0.371514
0.360737
0.353443
0.348615
0.345547
0.343796
0.343042
0.342784
0.342787
0.343407
0.344103
0.345124
0.346253
0.347503
0.348815
0.350264
0.351839
0.353551
0.355393
0.357385
0.359531
0.361851
0.364364
0.367093
0.370064
0.3733
0.383101
0.368801
0.358991
0.35234
0.34794
0.345175
0.343671
0.342994
0.342733
0.342781
0.343407
0.344109
0.345132
0.346206
0.347394
0.348709
0.35016
0.351738
0.353454
0.355303
0.357301
0.359456
0.361785
0.364309
0.367051
0.370038
0.37329
0.398171
0.379365
0.366369
0.357424
0.351351
0.347363
0.344921
0.343578
0.342931
0.342724
0.342781
0.34341
0.34413
0.345082
0.346102
0.347285
0.348603
0.350055
0.351636
0.353356
0.35521
0.357215
0.359379
0.361717
0.364252
0.367009
0.370013
0.373281
0.417623
0.39307
0.376016
0.364183
0.356014
0.350498
0.346945
0.344751
0.343494
0.342922
0.342724
0.342787
0.34343
0.344099
0.344974
0.346
0.347178
0.348495
0.349949
0.351533
0.353257
0.355117
0.357128
0.359301
0.361648
0.364197
0.366969
0.369989
0.373272
0.442966
0.410688
0.388503
0.373009
0.362215
0.354791
0.34986
0.34668
0.344632
0.343485
0.342922
0.342734
0.342822
0.343393
0.344014
0.344872
0.345899
0.347071
0.348387
0.349843
0.351429
0.353156
0.355022
0.35704
0.359222
0.361581
0.364143
0.366929
0.369966
0.373263
0.433488
0.481153
0.404499
0.384407
0.370304
0.360502
0.353857
0.349468
0.346525
0.344621
0.343485
0.342931
0.342785
0.342818
0.343305
0.343939
0.344774
0.345797
0.346965
0.348279
0.349736
0.351325
0.353055
0.354926
0.356951
0.359144
0.361516
0.364091
0.366891
0.369943
0.373254
0.425065
0.467936
0.542605
0.398964
0.380727
0.367942
0.359174
0.353296
0.349265
0.346512
0.344621
0.343494
0.342995
0.342811
0.342785
0.343232
0.34387
0.344679
0.345696
0.34686
0.34817
0.349629
0.351219
0.352952
0.35483
0.356864
0.35907
0.361454
0.364041
0.366854
0.369922
0.373246
0.417575
0.456103
0.523564
0.637308
0.394003
0.37751
0.366085
0.35839
0.353033
0.349252
0.346512
0.344632
0.343579
0.343044
0.342813
0.342784
0.343166
0.343804
0.34459
0.345595
0.346757
0.348062
0.349521
0.351113
0.352849
0.354737
0.35678
0.358998
0.361394
0.363992
0.366819
0.369901
0.373238
0.410903
0.445538
0.506685
0.604326
0.814617
0.389659
0.374955
0.365002
0.358057
0.35302
0.349252
0.346524
0.344752
0.343674
0.343095
0.342851
0.342803
0.343108
0.343741
0.344507
0.345496
0.346656
0.347956
0.349413
0.351009
0.352749
0.354647
0.3567
0.35893
0.361336
0.363946
0.366785
0.369881
0.37323
0.405082
0.436136
0.491555
0.577091
0.749984
1.12721
0.386165
0.373491
0.364583
0.358046
0.35302
0.349265
0.346681
0.344925
0.343801
0.3432
0.342912
0.34284
0.343061
0.34368
0.344433
0.345399
0.346557
0.347851
0.349306
0.350908
0.352655
0.354562
0.356624
0.358864
0.361281
0.363901
0.366752
0.369861
0.373223
0.400377
0.427961
0.477933
0.554179
0.696586
1.01781
1.57766
0.384175
0.372975
0.364575
0.358046
0.353033
0.34947
0.346952
0.345183
0.34401
0.343337
0.342991
0.342893
0.343031
0.343621
0.344366
0.345307
0.346459
0.34775
0.349204
0.350813
0.352565
0.354481
0.356551
0.358801
0.361229
0.363857
0.36672
0.369842
0.373219
0.397742
0.421317
0.46588
0.53451
0.652884
0.921124
1.42511
2.14746
0.383534
0.372975
0.364575
0.358056
0.353297
0.349869
0.347374
0.34556
0.344271
0.3435
0.343091
0.342963
0.343027
0.343564
0.344308
0.34522
0.346364
0.347656
0.349108
0.350724
0.352481
0.354404
0.356482
0.358741
0.361179
0.363816
0.36669
0.369833
0.37322
0.396949
0.417595
0.45576
0.5175
0.617417
0.838021
1.28328
1.95662
2.81984
0.383539
0.372974
0.364581
0.358392
0.353869
0.350514
0.347958
0.346006
0.344576
0.343691
0.343213
0.343044
0.343054
0.343514
0.344257
0.345143
0.346275
0.34757
0.349019
0.35064
0.352401
0.354331
0.356417
0.358683
0.361131
0.363776
0.366676
0.369834
0.37322
0.396952
0.416542
0.449739
0.503093
0.58898
0.768308
1.15383
1.77343
2.5969
3.57522
0.383539
0.372973
0.365004
0.35919
0.354814
0.351377
0.34864
0.346507
0.344927
0.343915
0.34336
0.343129
0.343108
0.343474
0.344213
0.345078
0.346193
0.347491
0.348937
0.350561
0.352327
0.354262
0.356355
0.358629
0.361086
0.363759
0.366679
0.369836
0.37322
0.396951
0.416502
0.447767
0.494212
0.566455
0.711271
1.03809
1.60001
2.37692
3.32975
4.38847
0.383532
0.373494
0.366106
0.360534
0.356051
0.352376
0.349401
0.347071
0.34533
0.344178
0.343535
0.343236
0.343187
0.343452
0.344173
0.345028
0.346119
0.34742
0.348861
0.350488
0.352257
0.354197
0.356296
0.358577
0.361068
0.363764
0.366683
0.369837
0.373221
0.396947
0.416501
0.447347
0.490949
0.55345
0.666089
0.937063
1.43843
2.16282
3.0805
4.13449
5.22713
0.384179
0.374983
0.367985
0.362267
0.357474
0.353487
0.350252
0.347709
0.345795
0.344488
0.34374
0.343371
0.343291
0.343455
0.344139
0.344991
0.346054
0.347355
0.348792
0.350419
0.352192
0.354135
0.356241
0.358556
0.361075
0.363769
0.366687
0.369839
0.373221
0.397747
0.41654
0.447346
0.489893
0.548897
0.639868
0.851309
1.2906
1.95757
2.8309
3.86783
4.98322
6.0515
0.386203
0.37757
0.370375
0.364253
0.359053
0.354724
0.351206
0.34843
0.346328
0.344848
0.34398
0.343533
0.343412
0.343493
0.344111
0.344965
0.345999
0.347297
0.34873
0.350356
0.352132
0.354078
0.356222
0.358566
0.361085
0.363775
0.366694
0.36984
0.373222
0.400427
0.417602
0.447765
0.489892
0.547153
0.630969
0.796611
1.15798
1.76406
2.58501
3.59179
4.71659
5.83947
6.81703
0.38974
0.380824
0.373106
0.366455
0.360808
0.356105
0.352275
0.349242
0.346933
0.34527
0.344259
0.343719
0.343534
0.343561
0.344091
0.344948
0.345953
0.347244
0.348675
0.350297
0.352077
0.354058
0.356235
0.358577
0.361095
0.363783
0.366701
0.369843
0.373224
0.405191
0.421385
0.44975
0.490948
0.547152
0.627233
0.774971
1.06734
1.58453
2.34709
3.31113
4.42889
5.59556
6.65909
7.47828
0.394134
0.384539
0.376135
0.3689
0.362761
0.357645
0.35347
0.350154
0.347613
0.345753
0.344572
0.343926
0.343661
0.343651
0.344083
0.344937
0.345918
0.347198
0.348625
0.350243
0.352061
0.354074
0.356251
0.35859
0.361108
0.363793
0.366712
0.369845
0.373225
0.41108
0.428114
0.455858
0.494225
0.548895
0.627234
0.76504
1.02631
1.45596
2.12069
3.03167
4.12443
5.31781
6.46372
7.3933
7.99329
0.399142
0.388665
0.3795
0.371619
0.364935
0.35936
0.354804
0.351176
0.348372
0.346289
0.344915
0.344151
0.343805
0.343759
0.344089
0.344933
0.345893
0.347158
0.348582
0.350231
0.352084
0.354094
0.35627
0.358606
0.361124
0.363805
0.366724
0.369849
0.373227
0.417817
0.436386
0.466108
0.503226
0.553465
0.630973
0.765046
1.00648
1.39202
1.95197
2.75892
3.81006
5.00784
6.22365
7.27157
7.99336
8.32898
0.404719
0.393255
0.383246
0.374643
0.367351
0.361268
0.356292
0.35231
0.349199
0.346866
0.345288
0.344394
0.343966
0.343883
0.344114
0.344933
0.345878
0.347123
0.34858
0.350257
0.352111
0.354116
0.356292
0.358625
0.361143
0.363821
0.366739
0.369854
0.37323
0.425364
0.445881
0.478299
0.517818
0.566643
0.639892
0.774989
1.00649
1.3606
1.86159
2.5474
3.49351
4.67165
5.93489
7.09995
7.96507
8.41546
8.4593
0.41094
0.398369
0.387411
0.378002
0.370033
0.363388
0.357936
0.353534
0.350076
0.347484
0.345688
0.344656
0.344142
0.344019
0.344162
0.34494
0.345869
0.347126
0.348616
0.350288
0.352142
0.354143
0.356319
0.358648
0.361166
0.36384
0.366756
0.369862
0.373234
0.433832
0.456526
0.492049
0.53503
0.589488
0.666433
0.796655
1.02634
1.36061
1.81701
2.42657
3.2373
4.31845
5.59907
6.8667
7.89025
8.49162
8.624
8.3774
0.417893
0.404062
0.392039
0.381729
0.373008
0.365724
0.359702
0.354822
0.351001
0.348137
0.346121
0.344936
0.344332
0.344161
0.344236
0.344951
0.345893
0.347167
0.348658
0.350324
0.352178
0.354174
0.356351
0.358676
0.361195
0.363863
0.366777
0.369872
0.373239
0.443336
0.46842
0.507289
0.55491
0.618326
0.71229
0.851948
1.06741
1.39206
1.81703
2.36693
3.08222
4.01813
5.22413
6.5641
7.75051
8.53227
8.79933
8.59873
8.07326
0.425662
0.410396
0.397175
0.385862
0.376282
0.368225
0.36155
0.35617
0.351969
0.348819
0.346583
0.345235
0.344537
0.344298
0.34432
0.344986
0.345947
0.347213
0.348706
0.350366
0.352222
0.354212
0.35639
0.35871
0.36123
0.363892
0.366803
0.369887
0.373248
0.453982
0.481668
0.524256
0.578038
0.654258
0.770129
0.938919
1.15897
1.45604
1.86163
2.36695
3.00562
3.82596
4.88532
6.19355
7.52371
8.52119
8.96807
8.85413
8.33514
7.51654
0.434339
0.417438
0.40287
0.390404
0.379779
0.370836
0.363477
0.357574
0.352978
0.34953
0.347073
0.345556
0.344758
0.344433
0.344401
0.345042
0.34601
0.347267
0.348764
0.350415
0.352274
0.354258
0.356438
0.358753
0.361273
0.36393
0.366836
0.369908
0.373261
0.465873
0.496383
0.543357
0.605491
0.698435
0.840683
1.0412
1.29337
1.58587
1.95206
2.42661
3.00563
3.73087
4.6556
5.83062
7.19762
8.41747
9.10727
9.13615
8.64536
7.79096
6.67537
0.444014
0.425259
0.40913
0.395253
0.383423
0.373548
0.365475
0.35903
0.354026
0.350275
0.347597
0.345903
0.344978
0.344539
0.344479
0.345108
0.346082
0.347329
0.348831
0.350473
0.352336
0.354314
0.356497
0.358807
0.361329
0.36398
0.366881
0.369933
0.37328
0.479113
0.512717
0.565179
0.638669
0.752291
0.924566
1.1581
1.44286
1.76772
2.12238
2.54749
3.08226
3.73088
4.54142
5.56752
6.83843
8.18979
9.16813
9.42876
9.00666
8.12787
6.92878
5.39749
0.454784
0.433874
0.415813
0.4003
0.387201
0.376354
0.367541
0.360537
0.355117
0.35106
0.348155
0.346247
0.345125
0.34462
0.34457
0.345183
0.346167
0.347402
0.34891
0.350543
0.352411
0.354383
0.356571
0.358877
0.361401
0.364049
0.366943
0.369967
0.373301
0.493819
0.530888
0.590447
0.678808
0.817244
1.02184
1.28847
1.60583
1.96326
2.35163
2.76095
3.23739
3.826
4.54143
5.43546
6.55445
7.88051
9.10101
9.69145
9.419
8.53931
7.24847
5.59976
2.61951
0.466658
0.443085
0.422767
0.405526
0.391102
0.379246
0.369672
0.362098
0.356258
0.351886
0.348705
0.346455
0.345213
0.344715
0.344674
0.345271
0.346266
0.347488
0.349004
0.350628
0.352502
0.35447
0.356665
0.35897
0.361499
0.364148
0.367035
0.370033
0.373323
0.510021
0.551257
0.620087
0.726776
0.893781
1.13151
1.43085
1.78022
2.17008
2.5919
3.03704
3.49589
4.0182
4.65562
5.43546
6.40893
7.60198
8.90879
9.83827
9.87141
9.03943
7.65312
5.86363
2.76418
0.479352
0.452681
0.429969
0.410916
0.395117
0.382222
0.371871
0.363724
0.357454
0.352697
0.34901
0.346546
0.345317
0.344825
0.344793
0.345374
0.346382
0.347591
0.349117
0.350733
0.352615
0.354582
0.356788
0.359098
0.361636
0.36429
0.367169
0.370137
0.373346
0.527379
0.574142
0.655289
0.783895
0.982104
1.25249
1.58351
1.9639
2.38516
2.83946
3.31906
3.81618
4.32113
4.88537
5.56752
6.40893
7.45291
8.68304
9.84666
10.2927
9.63273
8.17684
6.19922
2.95591
0.492572
0.462624
0.437394
0.416454
0.399237
0.385283
0.374153
0.365424
0.358626
0.353108
0.349104
0.346656
0.345435
0.344952
0.344931
0.345495
0.346518
0.347714
0.349253
0.350862
0.352757
0.354729
0.356951
0.359276
0.361825
0.364484
0.36735
0.370265
0.373339
0.545536
0.599294
0.696444
0.850824
1.08133
1.38344
1.74467
2.15465
2.60547
3.08993
3.60133
4.13314
4.67829
5.22704
5.83063
6.55442
7.4529
8.54923
9.7488
10.582
10.2936
8.85113
6.65813
3.21346
0.506261
0.472875
0.445022
0.422129
0.403467
0.388453
0.376535
0.367091
0.359171
0.353184
0.349221
0.346781
0.345572
0.345099
0.345091
0.345638
0.34668
0.347863
0.349418
0.351027
0.352937
0.354925
0.357173
0.359518
0.362071
0.364737
0.367574
0.370401
0.373282
0.564491
0.62641
0.742729
0.927177
1.19025
1.52277
1.91261
2.35027
2.82809
3.33928
3.87801
4.43895
5.01684
5.60584
6.19652
6.83838
7.60193
8.54922
9.66287
10.7131
10.9611
9.70851
7.29343
3.57871
0.520373
0.483399
0.452835
0.427946
0.407835
0.391756
0.378881
0.3678
0.359206
0.353285
0.349353
0.346926
0.34573
0.34527
0.345279
0.345808
0.346873
0.348046
0.34962
0.351237
0.353171
0.355189
0.357462
0.359825
0.362384
0.365049
0.36784
0.370564
0.373176
0.584277
0.655677
0.793442
1.01025
1.30697
1.66905
2.08573
2.54879
3.05043
3.58411
4.14443
4.72687
5.32767
5.94346
6.57039
7.20038
7.88038
8.68297
9.66285
10.727
11.4354
10.7287
8.20244
4.10741
0.534875
0.494167
0.460834
0.433944
0.412387
0.39503
0.379789
0.367758
0.359268
0.353401
0.349506
0.347094
0.345914
0.345469
0.3455
0.346011
0.347105
0.348274
0.349872
0.35151
0.353477
0.355527
0.357815
0.360199
0.362761
0.365422
0.368163
0.370806
0.373087
0.604923
0.687215
0.848044
1.09655
1.42688
1.81997
2.2627
2.74855
3.27051
3.82193
4.39745
4.99285
5.60508
6.23231
6.87383
7.52867
8.19189
8.90855
9.7487
10.727
11.6131
11.6858
9.5319
4.90728
0.549743
0.505171
0.469065
0.440194
0.416932
0.396171
0.379613
0.367741
0.359342
0.353536
0.349682
0.347292
0.346129
0.345704
0.345762
0.346256
0.347384
0.34856
0.350187
0.351863
0.353856
0.355926
0.358226
0.360627
0.363186
0.365849
0.368573
0.371165
0.373087
0.626458
0.720823
0.9057
1.1846
1.54608
1.97037
2.4412
2.94839
3.48704
4.05135
4.63564
5.23549
5.84791
6.47143
7.10628
7.75505
8.42004
9.10189
9.8463
10.713
11.6131
12.0654
11.0335
6.21047
0.564999
0.516472
0.477635
0.44649
0.418342
0.395775
0.379454
0.367729
0.35943
0.353693
0.349887
0.347527
0.346382
0.345982
0.346074
0.346555
0.347722
0.348921
0.350581
0.352287
0.354284
0.356367
0.358665
0.361068
0.363615
0.366302
0.369028
0.371554
0.373187
0.648994
0.756448
0.965773
1.27335
1.66358
2.11652
2.61579
3.14633
3.69956
4.27216
4.85921
5.45579
6.05847
6.66541
7.27644
7.89313
8.52205
9.1673
9.83734
10.5815
11.4352
12.0653
11.5853
8.06229
0.580791
0.528262
0.486352
0.448195
0.417592
0.395372
0.379289
0.367724
0.359537
0.353878
0.350126
0.347803
0.34668
0.346311
0.346445
0.346923
0.348129
0.349368
0.351039
0.352747
0.354731
0.356801
0.359059
0.361426
0.363932
0.366605
0.369356
0.37187
0.373391
0.672814
0.794144
1.02757
1.36196
1.77876
2.25811
2.78295
3.33723
3.90699
4.4852
5.06978
5.6566
6.24153
6.82191
7.3967
7.96626
8.53079
9.10377
9.68669
10.2896
10.9606
11.6855
11.5852
8.66873
0.59751
0.54048
0.488426
0.446881
0.416788
0.394945
0.379115
0.367728
0.359667
0.354095
0.350406
0.348129
0.347032
0.346701
0.346886
0.347382
0.348611
0.349871
0.351515
0.353198
0.355125
0.357122
0.359267
0.361528
0.363885
0.366547
0.36944
0.372028
0.373693
0.698491
0.833954
1.0905
1.44984
1.89127
2.39507
2.94318
3.51835
4.10517
4.69089
5.27015
5.84203
6.40321
6.95021
7.48055
7.99332
8.48872
8.96193
9.42034
9.86242
10.2882
10.7282
11.0332
8.66862
0.615376
0.543017
0.486206
0.445429
0.41593
0.394487
0.378936
0.367745
0.359824
0.354352
0.350735
0.348513
0.347448
0.347163
0.347397
0.347933
0.349138
0.350367
0.351946
0.353549
0.355336
0.357165
0.359067
0.361046
0.363245
0.365962
0.369205
0.372069
0.374105
0.726391
0.8762
1.15433
1.53666
2.00099
2.5275
3.09707
3.6911
4.2925
4.8867
5.46265
6.01708
6.55025
7.05946
7.54151
7.99275
8.4119
8.79232
9.12578
9.40664
9.62047
9.70132
9.53143
8.06204
0.61844
0.539365
0.4837
0.443882
0.415007
0.393999
0.378753
0.367781
0.360016
0.354656
0.351122
0.348964
0.347937
0.347701
0.34797
0.348507
0.349641
0.350783
0.35222
0.353652
0.355177
0.356657
0.358067
0.359784
0.361866
0.364716
0.368546
0.372082
0.374705
0.729968
0.920879
1.21918
1.62244
2.108
2.65567
3.24529
3.85687
4.47146
5.07243
5.64682
6.18616
6.68962
7.15848
7.59018
7.98138
8.32557
8.61716
8.84373
8.99326
9.02412
8.83681
8.19439
6.20982
0.612218
0.535187
0.481034
0.44222
0.414016
0.393482
0.378572
0.36784
0.360248
0.355015
0.351576
0.34949
0.348503
0.348303
0.348555
0.34901
0.350022
0.351
0.352173
0.353291
0.354337
0.35519
0.356106
0.357574
0.359604
0.362667
0.367493
0.372398
0.375855
0.718776
0.923718
1.28482
1.70745
2.21262
2.78003
3.38861
4.01695
4.64421
5.25156
5.82387
6.35088
6.82748
7.25543
7.63648
7.96734
8.24266
8.45344
8.5895
8.63275
8.5239
8.16056
7.27952
4.90009
0.605096
0.530757
0.478181
0.440436
0.412957
0.392939
0.378394
0.367927
0.360527
0.355437
0.352101
0.350091
0.349128
0.348898
0.34905
0.34934
0.350124
0.350834
0.351575
0.352125
0.35239
0.352668
0.35302
0.354228
0.35635
0.359837
0.366485
0.374109
0.378323
0.706067
0.901286
1.2864
1.79165
2.31525
2.90116
3.52786
4.17261
4.81268
5.42697
5.99805
6.51367
6.96729
7.35754
7.68851
7.96178
8.17108
8.30977
8.36984
8.32419
8.11409
7.63766
6.64363
4.09573
0.597625
0.526043
0.475132
0.438528
0.41183
0.392371
0.378226
0.36805
0.36086
0.355922
0.352693
0.350739
0.349723
0.349374
0.349334
0.349388
0.349764
0.350029
0.350068
0.349719
0.349284
0.348987
0.348714
0.349739
0.35276
0.357983
0.368662
0.382995
0.384533
0.692973
0.875781
1.24693
1.79067
2.41599
3.01953
3.66384
4.32502
4.97857
5.60113
6.17281
6.67919
7.11222
7.46971
7.75384
7.97044
8.11828
8.19099
8.18444
8.06452
7.7794
7.23538
6.18618
3.56709
0.589772
0.521032
0.471882
0.436495
0.410638
0.391783
0.378071
0.36821
0.361245
0.356461
0.353313
0.351322
0.350163
0.349596
0.349189
0.348935
0.348702
0.348201
0.34721
0.346089
0.344938
0.344252
0.343931
0.346171
0.353832
0.370907
0.398816
0.431915
0.409423
0.67951
0.849595
1.20107
1.73251
2.41119
3.13549
3.79694
4.47512
5.14335
5.77611
6.35101
6.85124
7.26698
7.59527
7.83842
8.00128
8.08998
8.10237
8.03461
7.85095
7.50759
6.91799
5.85318
3.20342
0.581515
0.515718
0.468432
0.434338
0.409381
0.391176
0.37793
0.368403
0.361665
0.357003
0.353835
0.351695
0.350299
0.349381
0.348441
0.347666
0.346548
0.344933
0.343108
0.341274
0.339657
0.340074
0.343374
0.357759
0.393404
0.46697
0.589767
0.676891
0.460107
0.66566
0.822999
1.15259
1.66431
2.33397
3.12637
3.92788
4.62313
5.30801
5.95362
6.53511
7.03304
7.43556
7.73871
7.94502
8.06092
8.09518
8.04735
7.92144
7.68213
7.29118
6.66711
5.59072
2.94813
0.572849
0.510106
0.464783
0.43206
0.408063
0.390551
0.377794
0.368603
0.362058
0.357414
0.354102
0.351691
0.349963
0.348513
0.346879
0.345167
0.342879
0.340443
0.337988
0.336306
0.336538
0.345759
0.375091
0.457944
0.628045
0.893299
1.27134
1.28968
0.138186
0.651413
0.796229
1.10187
1.59107
2.243
3.03052
3.91537
4.77021
5.47254
6.13476
6.72709
7.22745
7.62155
7.90414
8.07781
8.15019
8.13061
8.03436
7.84643
7.5561
7.12446
6.47251
5.39046
2.75776
0.563791
0.504205
0.460944
0.429664
0.406684
0.389895
0.377632
0.368734
0.362272
0.357515
0.353939
0.351156
0.348909
0.346629
0.344101
0.341123
0.338031
0.335173
0.333588
0.336588
0.353895
0.415434
0.575092
0.86569
1.2356
1.5929
2.04369
0.199254
0.636768
0.769553
1.04935
1.513
2.14435
2.91678
3.80285
4.75706
5.6387
6.3193
6.92834
7.43694
7.82842
8.09566
8.24116
8.27397
8.20537
8.05653
7.81965
7.47232
7.00249
6.32795
5.24322
2.61472
0.554374
0.49803
0.456925
0.427152
0.405231
0.389171
0.377361
0.36865
0.362133
0.357149
0.353176
0.349808
0.346816
0.343338
0.339654
0.335986
0.332721
0.331637
0.338161
0.370923
0.482321
0.72458
1.06814
1.44363
1.77555
2.00304
0.39174
0.621728
0.74325
0.995692
1.43035
2.03802
2.79241
3.6676
4.63178
5.62979
6.50993
7.13867
7.66348
8.05939
8.31763
8.43984
8.43666
8.3226
8.1189
7.83433
7.44296
6.92454
6.22606
5.14379
2.50841
0.54465
0.491595
0.452739
0.424512
0.403665
0.38829
0.376838
0.368195
0.361485
0.356091
0.351508
0.347407
0.343222
0.338569
0.33424
0.330821
0.330592
0.342037
0.397086
0.561978
0.865933
1.23972
1.56394
1.82289
1.97518
0.405316
0.60632
0.717534
0.941815
1.34359
1.92396
2.65719
3.51832
4.47811
5.49793
6.51209
7.36235
7.90726
8.31746
8.57439
8.6795
8.64389
8.48591
8.23217
7.88715
7.4565
6.90432
6.17004
5.08253
2.43522
0.534677
0.484924
0.448384
0.421707
0.401895
0.387123
0.375897
0.367138
0.360042
0.354031
0.348633
0.343473
0.337802
0.332881
0.329278
0.330664
0.349376
0.43086
0.643001
0.990285
1.35325
1.65776
1.84963
1.92101
0.415368
0.590631
0.692468
0.888888
1.25368
1.80236
2.51074
3.35445
4.3064
5.33096
6.38182
7.38348
8.17381
8.60344
8.87049
8.96606
8.90316
8.70247
8.39684
7.99574
7.50587
6.92097
6.16985
5.07519
2.38446
0.524505
0.478039
0.443827
0.418655
0.399819
0.38551
0.374294
0.3652
0.357509
0.350683
0.344179
0.337749
0.331864
0.328151
0.331156
0.358253
0.468078
0.723533
1.08731
1.43666
1.70637
1.87834
1.88554
0.410627
0.574818
0.667956
0.838191
1.16209
1.67385
2.35293
3.17515
4.11557
5.14125
6.20885
7.26326
8.2246
8.92264
9.20751
9.30676
9.22262
8.98204
8.62163
8.16217
7.61129
6.97182
6.19393
5.098
2.37033
0.514153
0.47094
0.438997
0.415308
0.39729
0.383187
0.371736
0.362088
0.353591
0.345589
0.338015
0.331284
0.32738
0.33224
0.368655
0.505337
0.795775
1.16649
1.49409
1.74237
1.88506
1.87072
0.407657
0.559052
0.643822
0.790844
1.07101
1.53966
2.18413
2.97996
3.90418
4.92698
6.00767
7.09439
8.12579
9.02008
9.58789
9.70574
9.61425
9.33579
8.91836
8.39477
7.77893
7.07794
6.25342
5.1503
2.37602
0.503613
0.463604
0.433923
0.411543
0.39402
0.379838
0.367907
0.357481
0.347804
0.338736
0.331333
0.327142
0.333916
0.379558
0.541634
0.857468
1.22596
1.53984
1.76503
1.89021
1.85044
0.409205
0.543428
0.620003
0.747409
0.983294
1.40193
2.00531
2.76899
3.67121
4.68575
5.77536
6.89072
7.97315
8.95604
9.76582
10.1648
10.0879
9.78339
9.30204
8.70738
8.01602
7.24636
6.36735
5.23904
2.39858
0.492903
0.456176
0.428522
0.407042
0.389672
0.375124
0.362469
0.350871
0.340154
0.331649
0.32728
0.336055
0.390812
0.573453
0.9075
1.27133
1.57111
1.78373
1.89191
1.83694
0.407799
0.528
0.59663
0.707668
0.90214
1.26403
1.81837
2.5431
3.41649
4.41577
5.50818
6.64787
7.77784
8.83412
9.74718
10.4467
10.6463
10.3436
9.80498
9.12105
8.33605
7.48442
6.53766
5.3803
2.44418
0.482352
0.448615
0.422438
0.401437
0.383873
0.368687
0.354879
0.34233
0.332389
0.327679
0.338188
0.401725
0.601354
0.946325
1.30403
1.59388
1.79532
1.89513
1.8271
0.407186
0.513249
0.574032
0.6709
0.830067
1.13084
1.62659
2.30418
3.14086
4.11645
5.20324
6.36028
7.5335
8.65969
9.67376
10.4975
11.0546
11.0204
10.4612
9.67959
8.77015
7.80105
6.77195
5.57388
2.52061
0.471995
0.440503
0.415258
0.394314
0.376237
0.359935
0.345278
0.333803
0.32845
0.340411
0.410714
0.624035
0.977198
1.32831
1.60897
1.80373
1.89665
1.82235
0.406995
0.499234
0.553098
0.636719
0.767766
1.00832
1.43527
2.05565
2.84652
3.78867
4.85935
6.02361
7.23217
8.42392
9.53211
10.4809
11.2038
11.592
11.2743
10.4263
9.37539
8.24172
7.06722
5.80981
2.62361
0.46133
0.431367
0.406539
0.385251
0.366116
0.349088
0.335824
0.32961
0.342346
0.41862
0.641404
0.998846
1.34575
1.61964
1.80848
1.89872
1.82071
0.407989
0.485323
0.533895
0.606125
0.714299
0.901874
1.25199
1.80306
2.5375
3.43524
4.4775
5.63597
6.86772
8.11594
9.31436
10.3925
11.2642
11.8685
12.0609
11.3869
10.2142
8.86064
7.48874
6.07691
2.7784
0.449802
0.420706
0.39579
0.373528
0.353807
0.338514
0.331128
0.344275
0.424055
0.654781
1.01374
1.35615
1.62677
1.81256
1.90045
1.82226
0.4096
0.470844
0.51552
0.579087
0.669468
0.814355
1.08613
1.55468
2.22015
3.06135
4.06144
5.1986
6.43751
7.72758
9.00588
10.2019
11.2304
12.0301
12.502
12.4662
11.3237
9.75632
8.04922
6.47599
2.92602
0.436822
0.407981
0.382205
0.359524
0.3419
0.333075
0.346003
0.428578
0.662489
1.0229
1.36223
1.63034
1.81578
1.9043
1.82628
0.411736
0.455087
0.497088
0.554233
0.631718
0.746315
0.947244
1.32181
1.90366
2.6749
3.61811
4.71661
5.94336
7.2557
8.59638
9.89768
11.0857
12.0587
12.7859
13.1232
12.8202
11.0114
8.91204
6.9433
3.19859
0.421797
0.392253
0.366255
0.346056
0.335451
0.34776
0.430949
0.667946
1.02592
1.36309
1.63083
1.8181
1.90974
1.83543
0.414153
0.437368
0.477713
0.530281
0.598433
0.692964
0.842357
1.11918
1.60043
2.28674
3.1578
4.19941
5.39235
6.70329
8.08271
9.46797
10.788
11.9577
12.892
13.5505
13.7645
13.1323
10.2409
7.84667
3.45726
0.403633
0.374082
0.350988
0.338313
0.349464
0.432446
0.667911
1.02514
1.36165
1.62978
1.81991
1.91652
1.84837
0.418193
0.416437
0.456543
0.506033
0.567593
0.64847
0.7652
0.963557
1.32818
1.91074
2.69391
3.66053
4.79717
6.08024
7.46992
8.91079
10.3363
11.6745
12.8217
13.7349
14.3477
14.4658
13.3883
9.45033
4.25112
0.38297
0.356762
0.341673
0.351283
0.432488
0.666658
1.02229
1.35792
1.62717
1.82134
1.92503
1.86423
0.423058
0.392985
0.432162
0.480359
0.537487
0.609029
0.705075
0.851885
1.1123
1.56657
2.2425
3.11681
4.17544
5.40338
6.77174
8.23465
9.73189
11.1947
12.5498
13.6838
14.5944
15.1999
15.2771
13.0397
3.90769
0.36335
0.345588
0.353328
0.432156
0.663687
1.01646
1.35121
1.62306
1.82259
1.93445
1.88391
0.428608
0.3708
0.405302
0.451587
0.506598
0.571935
0.654654
0.76964
0.955948
1.28597
1.82526
2.58729
3.54823
4.69521
6.01006
7.4583
8.98858
10.5371
12.034
13.4078
14.543
15.4682
16.1141
15.905
9.86306
0.350051
0.35563
0.431416
0.658205
1.00832
1.34286
1.6177
1.82382
1.94514
1.90637
0.435259
0.355089
0.379997
0.420512
0.47282
0.535057
0.609207
0.704787
0.843879
1.07799
1.47871
2.09608
2.93819
3.98167
5.21285
6.6094
8.13128
9.72238
11.3164
12.8437
14.2376
15.3881
16.3307
16.9898
15.4614
8.42877
0.358264
0.430113
0.651747
0.998669
1.33313
1.61148
1.8248
1.95721
1.93171
0.442632
0.361284
0.36134
0.39139
0.437123
0.495687
0.565496
0.649199
0.760016
0.92899
1.21585
1.68381
2.37235
3.28943
4.41125
5.72177
7.19388
8.78215
10.4264
12.0587
13.611
15.021
16.1893
17.1101
17.3987
14.4045
8.38636
0.428903
0.644177
0.987852
1.32247
1.6046
1.82584
1.97025
1.95988
0.450786
0.427549
0.365073
0.369082
0.40387
0.454953
0.519968
0.597684
0.691917
0.820987
1.02492
1.36552
1.89517
2.64873
3.63614
4.83172
6.2159
7.75644
9.40276
11.0911
12.7524
14.3198
15.7315
16.8911
17.6235
17.0911
13.9601
7.93669
0.636333
0.976414
1.31096
1.59729
1.8269
1.98428
1.99086
0.459736
0.62799
0.426545
0.369987
0.377663
0.41731
0.473791
0.545428
0.631419
0.737465
0.888055
1.13019
1.52243
2.10783
2.92103
3.97424
5.23851
6.68987
8.2908
9.98578
11.7077
13.3858
14.9523
16.3373
17.3965
17.6839
16.6503
13.9029
6.79619
0.964441
1.29916
1.58953
1.82799
1.99919
2.02422
0.469429
0.952483
0.619007
0.425457
0.37539
0.387044
0.43154
0.493442
0.571841
0.666546
0.785961
0.960994
1.24237
1.68239
2.31794
3.18599
4.30037
5.62774
7.13918
8.79176
10.525
12.2683
13.9484
15.4918
16.8082
17.5963
17.592
16.2476
13.682
5.82544
1.287
1.58171
1.82906
2.01482
2.05964
0.479777
1.27495
0.939074
0.608977
0.42551
0.381141
0.397088
0.446393
0.513691
0.598975
0.702957
0.837406
1.03894
1.35862
1.84191
2.52264
3.4411
4.61189
5.99642
7.5604
9.25537
11.016
12.7678
14.4327
15.9264
17.0866
17.6492
17.3902
16.17
13.0888
1.57375
1.83029
2.03101
2.09678
0.490705
1.56593
1.2616
0.924811
0.5998
0.425976
0.387193
0.407666
0.461703
0.534359
0.626628
0.740564
0.891578
1.12053
1.47628
1.99833
2.71984
3.68452
4.90684
6.34236
7.95112
9.67913
11.4562
13.2033
14.8357
16.2118
17.2491
17.6175
17.1819
16.1855
12.131
1.8316
2.0477
2.13536
0.502102
1.83308
1.55736
1.24727
0.910912
0.591749
0.42702
0.393587
0.418649
0.477302
0.555269
0.654636
0.779255
0.948003
1.20421
1.59307
2.14972
2.90809
3.91499
5.18395
6.66423
8.31007
10.0621
11.8452
13.5752
15.1175
16.4105
17.3359
17.5354
17.0763
16.1527
2.0648
2.17514
0.513906
2.0822
1.8349
1.54825
1.23354
0.897545
0.584663
0.428872
0.40025
0.429906
0.493038
0.576258
0.682861
0.818855
1.00601
1.28843
1.70721
2.29474
3.08647
4.13176
5.44251
6.96143
8.63707
10.4047
12.1844
13.846
15.3271
16.5784
17.3493
17.4163
17.1013
2.21587
0.526025
2.25726
2.10184
1.83721
1.53956
1.22058
0.884874
0.578634
0.431238
0.407155