/*--------------------------------*- C++ -*----------------------------------*\
  =========                 |
  \\      /  F ield         | OpenFOAM: The Open Source CFD Toolbox
   \\    /   O peration     | Website:  https://openfoam.org
    \\  /    A nd           | Version:  8
     \\/     M anipulation  |
\*---------------------------------------------------------------------------*/
FoamFile
{
    version     2.0;
    format      ascii;
    class       volScalarField;
    location    "0.12";
    object      p;
}
// * * * * * * * * * * * * * * * * * * * * * * * * * * * * * * * * * * * * * //

dimensions      [0 2 -2 0 0 0 0];

internalField   nonuniform List<scalar> 
15677
(
80.2213
79.8647
79.4522
79.9292
79.4404
79.4549
79.9043
79.4676
79.4642
79.3495
79.8789
79.469
79.4645
79.3585
79.2597
79.8571
79.4713
79.4644
79.3577
79.2673
79.166
79.8336
79.4736
79.464
79.3588
79.2672
79.1726
79.0548
79.8085
79.4761
79.4632
79.3592
79.2682
79.1726
79.0606
78.9225
79.7823
79.4792
79.4617
79.3593
79.2687
79.1736
79.0607
78.9276
78.7622
79.755
79.4812
79.4598
79.3591
79.2692
79.1742
79.0617
78.9278
78.7666
78.5666
79.7264
79.4826
79.4572
79.3586
79.2695
79.1748
79.0624
78.9289
78.767
78.5703
78.3284
79.6969
79.4842
79.4538
79.3583
79.2699
79.1754
79.0632
78.9298
78.7682
78.5708
78.3313
78.0396
79.6669
79.4852
79.4504
79.3584
79.2705
79.1762
79.0642
78.9309
78.7693
78.5722
78.332
78.0418
77.6924
79.6372
79.4851
79.4468
79.3587
79.2714
79.1774
79.0656
78.9323
78.7707
78.5736
78.3336
78.0427
77.6939
77.279
79.6104
79.4837
79.4432
79.3595
79.273
79.1793
79.0676
78.9343
78.7727
78.5756
78.3354
78.0446
77.6949
77.2795
76.7918
79.5874
79.4814
79.4395
79.3607
79.2754
79.1822
79.0707
78.9373
78.7756
78.5783
78.338
78.0469
77.6971
77.2808
76.7913
76.2238
79.5672
79.4793
79.4365
79.3625
79.2791
79.1865
79.0753
78.9419
78.7799
78.5822
78.3416
78.0502
77.7
77.2833
76.7928
76.2222
75.569
79.5496
79.4772
79.4341
79.3648
79.2842
79.1927
79.082
78.9485
78.7862
78.5881
78.3469
78.055
77.7043
77.287
76.7957
76.2239
75.5661
74.8224
79.5343
79.4751
79.4323
79.3675
79.2905
79.2013
79.0915
78.9582
78.7955
78.5967
78.3548
78.0619
77.7104
77.2924
76.8003
76.2273
75.5682
74.8182
73.9805
79.521
79.4732
79.431
79.3706
79.2974
79.2118
79.1046
78.9718
78.809
78.6094
78.3663
78.0722
77.7194
77.3001
76.8069
76.2328
75.5721
74.8205
73.9748
73.0411
79.5096
79.4715
79.4303
79.3741
79.3051
79.2232
79.1204
78.9905
78.8278
78.6276
78.3831
78.0872
77.7325
77.3114
76.8165
76.2408
75.5785
74.8249
73.9774
73.0337
72.0039
79.5006
79.4697
79.4301
79.3781
79.3133
79.2357
79.1377
79.0132
78.8536
78.653
78.4071
78.1091
77.7517
77.3279
76.8304
76.2524
75.5881
74.8324
73.9822
73.0366
71.9948
70.8704
79.4936
79.468
79.4303
79.3824
79.3221
79.2492
79.1566
79.0379
78.885
78.6878
78.4407
78.1403
77.7796
77.352
76.8508
76.2693
75.6019
74.8436
73.9908
73.0419
71.998
70.8595
69.6446
79.4883
79.4664
79.4309
79.387
79.3314
79.2636
79.1769
79.0649
78.9192
78.7302
78.4868
78.1839
77.8194
77.387
76.8806
76.294
75.622
74.8597
74.0036
73.0515
72.0036
70.8628
69.6317
68.3316
79.484
79.4651
79.4317
79.3916
79.3411
79.2786
79.1984
79.0939
78.9566
78.7764
78.5429
78.2437
77.8751
77.4369
76.9237
76.3302
75.6514
74.8832
74.0221
73.0658
72.0141
70.8687
69.6351
68.3166
66.9442
79.4807
79.464
79.4326
79.396
79.3505
79.2942
79.221
79.1247
78.9968
78.8271
78.6041
78.3166
77.9514
77.5067
76.9851
76.3824
75.6944
74.9176
74.049
73.0867
72.0299
70.88
69.641
68.32
66.9266
65.5132
79.478
79.4631
79.4335
79.4001
79.3593
79.3095
79.2443
79.1569
79.0395
78.8815
78.6713
78.3963
78.0445
77.6024
77.0712
76.4569
75.7567
74.9679
74.0885
73.117
72.0529
70.897
69.6528
68.3255
66.9274
65.4593
63.979
79.4758
79.4624
79.4345
79.4038
79.3672
79.3235
79.2671
79.1902
79.0842
78.9393
78.7436
78.4837
78.1464
77.7194
77.1894
76.5613
75.8456
75.0409
74.1464
73.1615
72.0863
70.9217
69.6705
68.3372
66.9313
65.4616
63.9133
62.3274
79.474
79.4618
79.4354
79.4071
79.3744
79.3362
79.2881
79.2229
79.1304
78.9999
78.8204
78.578
78.2584
77.8477
77.3341
76.705
75.9703
75.1452
74.2304
73.2268
72.1355
70.9577
69.6964
68.3549
66.9413
65.4617
63.9157
62.2982
60.6305
79.4726
79.4614
79.4362
79.4101
79.3808
79.3476
79.307
79.2528
79.1757
79.0626
78.9009
78.6783
78.3794
77.9889
77.493
76.8813
76.1423
75.2919
74.3509
73.3222
72.2081
71.0111
69.7342
68.381
66.9574
65.4686
63.9092
62.2903
60.6205
58.8959
79.4713
79.461
79.4369
79.4129
79.3865
79.3578
79.324
79.2798
79.2172
79.124
78.9843
78.7834
78.5081
78.1416
77.6683
77.0752
76.3537
75.4946
74.5208
73.4592
72.3143
71.0902
69.7907
68.4196
66.982
65.4817
63.9153
62.2801
60.6035
58.8916
56.9479
79.4703
79.4607
79.4375
79.4154
79.3915
79.3669
79.3391
79.3041
79.2548
79.1805
79.0662
78.8926
78.6433
78.3043
77.8582
77.2896
76.5869
75.7446
74.7563
73.653
72.4677
71.2067
69.8753
68.478
67.0195
65.5034
63.9266
62.2875
60.5941
58.8725
56.9467
54.7667
79.4695
79.4604
79.438
79.4178
79.396
79.375
79.3526
79.3257
79.2884
79.2315
79.1415
78.9998
78.7839
78.4756
78.061
77.5223
76.8453
76.021
75.0476
73.9226
72.6855
71.3756
70.0006
68.5664
67.0778
65.5383
63.9462
62.2981
60.6018
58.8652
56.9287
54.7675
52.5775
79.4687
79.4602
79.4384
79.4198
79.4
79.3822
79.3646
79.345
79.3185
79.2773
79.2095
79.0985
78.9222
78.6539
78.2748
77.7713
77.1264
76.3281
75.3707
74.2571
72.9894
71.6166
70.1837
68.6988
67.1681
65.595
63.9791
62.3171
60.6122
58.8712
56.9217
54.7508
52.5797
50.4158
79.4681
79.46
79.4389
79.4216
79.4036
79.3885
79.3752
79.3621
79.3453
79.3182
79.2706
79.1878
79.0495
78.8296
78.4978
78.0344
77.428
76.6631
75.7305
74.6293
73.3683
71.9546
70.4463
68.894
67.3054
65.6853
64.034
62.3487
60.6309
58.8813
56.9245
54.7435
52.5648
50.4181
48.2994
79.4598
79.4674
79.4393
79.4233
79.4067
79.3941
79.3847
79.3773
79.3691
79.3546
79.3252
79.268
79.1649
78.9917
78.7179
78.3095
77.7475
77.0235
76.1244
75.0455
73.7915
72.3778
70.8168
69.1761
67.5102
65.8253
64.1234
62.402
60.661
58.899
56.9333
54.7431
52.5572
50.4042
48.3014
46.2389
79.4397
79.4597
79.4666
79.4247
79.4095
79.3991
79.393
79.3908
79.3902
79.387
79.374
79.3399
79.2688
79.1388
78.9214
78.5816
78.0824
77.4063
76.5493
75.5024
74.2663
72.8524
71.2831
69.5766
67.8089
66.0371
64.2646
62.4901
60.7122
58.9269
56.9482
54.7493
52.5539
50.3957
48.2882
46.2404
44.2443
79.4259
79.4403
79.4595
79.4658
79.412
79.4036
79.4004
79.4027
79.4089
79.4158
79.4173
79.4039
79.3618
79.2713
79.1062
78.8337
78.4145
77.8087
77.0022
75.9971
74.7895
73.3871
71.8086
70.0836
68.236
66.349
64.4809
62.6312
60.7978
58.9747
56.972
54.7596
52.5568
50.389
48.2783
46.2277
44.245
42.3242
79.4141
79.4276
79.4411
79.4594
79.465
79.4075
79.407
79.4133
79.4255
79.4413
79.4557
79.4609
79.4448
79.3901
79.2731
79.0632
78.723
78.2091
77.4798
76.5261
75.3581
73.9787
72.4029
70.6578
68.7801
66.7984
64.8025
62.8494
60.9366
59.056
57.0142
54.7771
52.5615
50.3874
48.2681
46.2161
44.2326
42.324
40.4844
79.4108
79.417
79.4296
79.442
79.4592
79.4643
79.4128
79.4227
79.4402
79.4639
79.4899
79.5116
79.5188
79.4962
79.4229
79.2707
79.0044
78.582
77.9566
77.0861
75.9686
74.6242
73.0635
71.3102
69.3995
67.3749
65.2695
63.1768
61.1536
59.1899
57.0884
54.8107
52.5712
50.3854
48.2613
46.2022
44.2192
42.3117
40.4833
38.729
79.4177
79.4154
79.4203
79.4315
79.4428
79.4591
79.4637
79.4309
79.4533
79.4839
79.5201
79.5566
79.5845
79.5909
79.5569
79.4573
79.2594
78.923
78.4021
77.6473
76.6173
75.3201
73.7873
72.0386
70.1068
68.0348
65.8727
63.656
61.4825
59.4022
57.2138
54.8736
52.5939
50.3859
48.2517
46.1897
44.2014
42.2963
40.4711
38.727
37.0602
79.4379
79.4243
79.4201
79.4235
79.4335
79.4436
79.459
79.4631
79.4649
79.5018
79.5469
79.5964
79.6429
79.6751
79.6765
79.6244
79.4891
79.2327
78.8108
78.1735
77.2703
76.0628
74.5711
72.8404
70.9001
68.792
66.5669
64.2792
61.9677
59.7275
57.4167
54.9853
52.6426
50.3957
48.2415
46.1717
44.1829
42.2746
40.4535
38.7148
37.0575
35.479
79.4746
79.4473
79.431
79.425
79.4267
79.4353
79.4445
79.4589
79.4625
79.5175
79.5708
79.6318
79.6947
79.7499
79.783
79.7738
79.6952
79.5123
79.1828
78.6577
77.8848
76.8139
75.4117
73.7129
71.7777
69.6455
67.3675
65.0002
62.6031
60.2121
57.7327
55.1721
52.7364
50.4274
48.2367
46.15
44.1563
42.25
40.4281
38.695
37.0452
35.4755
33.9848
79.5307
79.4875
79.4562
79.4377
79.4297
79.4299
79.4372
79.4453
79.4588
79.462
79.5919
79.6633
79.7407
79.8163
79.8777
79.9069
79.8796
79.7637
79.5195
79.0998
78.4524
77.5237
76.2659
74.6534
72.7376
70.5946
68.2746
65.8361
63.3424
60.8509
58.2087
55.4702
52.9015
50.4998
48.2493
46.1294
44.1223
42.2144
40.3973
38.6659
37.0232
35.463
33.9807
32.5765
79.6095
79.5481
79.4991
79.4653
79.4444
79.4343
79.4329
79.4389
79.4461
79.4587
79.4615
79.6911
79.7816
79.8753
79.9619
80.0255
80.0442
79.989
79.8229
79.5011
78.9723
78.1819
77.077
75.614
73.7777
71.6383
69.2889
66.7885
64.2042
61.5988
58.8417
55.9257
53.1735
50.6384
48.2973
46.1213
44.0851
42.1679
40.3526
38.629
36.9905
35.4389
33.968
32.5718
31.2519
79.7142
79.6328
79.5632
79.5112
79.4743
79.4507
79.4388
79.4358
79.4407
79.4469
79.4586
79.4611
79.8179
79.9279
80.0367
80.1309
80.191
80.1904
80.0952
79.8634
79.4455
78.787
77.8322
76.5307
74.8461
72.7756
70.4104
67.8593
65.1917
62.4758
59.5881
56.5382
53.5968
50.8771
48.4055
46.1429
44.0552
42.1135
40.2935
38.5753
36.9475
35.4028
33.9418
32.5589
31.2466
30.0083
79.8478
79.7449
79.652
79.5789
79.5229
79.4828
79.4569
79.4431
79.4387
79.4423
79.4477
79.4585
79.4607
79.9745
80.1034
80.2247
80.3216
80.3702
80.3392
80.1895
79.8741
79.3396
78.5292
77.3882
75.8711
73.9508
71.6398
69.0503
66.3085
63.4866
60.4697
57.2675
54.1741
51.2582
48.6048
46.2172
44.0489
42.0613
40.2218
38.5036
36.8851
35.354
33.9025
32.5307
31.2335
30.0025
28.8427
80.0127
79.8876
79.7691
79.6721
79.5941
79.5341
79.491
79.4627
79.4471
79.4414
79.4439
79.4484
79.4585
79.4603
80.1625
80.3084
80.438
80.5304
80.5573
80.4821
80.2606
79.8414
79.1679
78.1829
76.8345
75.0844
72.918
70.3639
67.5582
64.6366
61.4924
58.1358
54.8691
51.7869
48.9348
46.3722
44.0868
42.0262
40.1472
38.4149
36.801
35.2831
33.8481
32.4884
31.2035
29.9893
28.8365
27.7515
80.2108
80.064
79.918
79.7947
79.6916
79.6085
79.5447
79.4987
79.4683
79.451
79.4439
79.4454
79.4492
79.4584
79.46
80.3825
80.5419
80.6733
80.7519
80.7441
80.6083
80.2952
79.7499
78.9139
77.7313
76.1555
74.1583
71.7386
68.9453
65.9318
62.664
59.1511
55.7038
52.4321
49.4035
46.6436
44.1936
42.0259
40.0829
38.318
36.6957
35.187
33.7691
32.4287
31.1583
29.9575
28.823
27.7449
26.7313
80.4429
80.2763
80.1019
79.9504
79.8194
79.7099
79.622
79.5547
79.506
79.4735
79.4547
79.4462
79.4467
79.4498
79.4583
79.4598
80.6339
80.8011
80.9257
80.9784
80.9202
80.7044
80.2777
79.5822
78.5595
77.1572
75.3365
73.0807
70.4071
67.3792
63.993
60.3233
56.6878
53.214
49.9844
47.0424
44.4008
42.0819
40.0435
38.2245
36.5771
35.0656
33.6615
32.3418
31.0935
29.9096
28.7896
27.7312
26.7244
25.7784
80.7085
80.5257
80.3232
80.1425
79.9814
79.8425
79.727
79.6347
79.564
79.5127
79.4784
79.458
79.4484
79.448
79.4504
79.4583
79.4596
80.9141
81.0814
81.1878
81.1995
81.0723
80.7549
80.1903
79.3196
78.0863
76.4438
74.3629
71.8436
68.9151
65.4893
61.6642
57.8336
54.144
50.6957
47.5461
44.7212
42.2208
40.0469
38.1458
36.4548
34.9261
33.5247
32.2233
30.9994
29.8401
28.7393
27.6963
26.7104
25.7711
24.8892
81.0054
80.8125
80.5836
80.3737
80.1812
80.0103
79.864
79.7429
79.6464
79.5726
79.519
79.4829
79.4611
79.4504
79.449
79.451
79.4583
79.4594
81.2189
81.3757
81.4497
81.4024
81.1849
80.7416
80.0136
78.9423
77.4755
75.5744
73.2242
70.4345
67.0901
63.1877
59.1562
55.2361
51.5491
48.1698
45.1365
42.4561
40.1148
38.0961
36.3371
34.7756
33.3651
32.072
30.8705
29.7391
28.6652
27.6438
26.6741
25.757
24.8815
24.0598
81.3295
81.1351
80.8837
80.6464
80.4219
80.2171
80.0369
79.8836
79.7574
79.6571
79.5804
79.5246
79.4869
79.4638
79.4521
79.45
79.4514
79.4582
79.4592
81.5415
81.6745
81.6987
81.5716
81.2396
80.6445
79.7264
78.4299
76.7084
74.5355
71.9037
68.6866
64.834
60.6727
56.5071
52.5586
48.9242
45.6572
42.7736
40.2601
38.0915
36.2344
34.6198
33.1875
31.8932
30.7055
29.6005
28.5578
27.5655
26.6195
25.7194
24.8672
24.0513
23.2897
81.6741
81.4902
81.2225
80.9614
80.7061
80.4663
80.25
80.0612
79.9015
79.7705
79.6666
79.5873
79.5296
79.4903
79.4661
79.4535
79.4507
79.4518
79.4582
79.4591
81.8727
81.9654
81.9193
81.6884
81.2161
80.4417
79.3074
77.7617
75.7688
73.307
70.2425
66.4919
62.3256
57.9742
53.7402
49.8211
46.2914
43.178
40.4726
38.1436
36.157
34.465
32.9947
31.6896
30.5086
29.4227
28.4101
27.4521
26.5374
25.663
24.8284
24.037
23.2771
22.6508
82.0301
81.8722
81.5974
81.3186
81.0351
80.7607
80.5067
80.2797
80.083
79.9174
79.7821
79.675
79.5933
79.5338
79.4932
79.4681
79.4547
79.4514
79.4522
79.4582
79.459
82.2001
82.2332
82.0931
81.7324
81.0915
80.1105
78.7339
76.9192
74.6339
71.7391
68.1189
64
59.582
55.1093
50.8743
47.0475
43.6735
40.7499
38.2459
36.1142
34.3153
32.7893
31.4613
30.2803
29.2087
28.2204
27.296
26.4185
25.5773
24.7704
23.9973
23.2632
22.6464
22.1136
82.3852
82.2729
82.0035
81.7159
81.4094
81.1024
80.8103
80.5431
80.3062
80.1022
79.9312
79.792
79.6821
79.5983
79.5372
79.4955
79.4697
79.4557
79.4519
79.4525
79.4582
79.4589
82.5085
82.4592
82.1991
81.6799
80.8423
79.6266
77.9852
75.8776
73.1616
69.6898
65.6482
61.2185
56.6194
52.1009
47.9393
44.2662
41.0929
38.3889
36.1037
34.1777
32.5686
31.207
30.0181
28.957
27.9904
27.0952
26.2546
25.4533
24.6814
23.938
23.2227
22.6369
22.1187
21.5539
82.7241
82.6814
82.4337
82.1494
81.8275
81.492
81.1631
80.8547
80.5752
80.3292
80.1186
79.9429
79.8002
79.6877
79.6021
79.5399
79.4974
79.471
79.4565
79.4524
79.4527
79.4582
79.4589
82.7795
82.6226
82.2134
81.5067
80.4425
78.9676
77.0347
74.4993
71.1855
67.2446
62.8419
58.1753
53.4735
48.9897
44.9716
41.5061
38.5706
36.1087
34.0539
32.3377
30.9175
29.7171
28.6627
27.7167
26.8502
26.0435
25.2821
24.5528
23.846
23.1624
22.5961
22.1102
21.554
20.9495
83.0277
83.0837
82.878
82.6131
82.2866
81.9289
81.5663
81.2171
80.8934
80.6027
80.3486
80.1321
79.9521
79.8064
79.6919
79.6049
79.5419
79.4988
79.472
79.4572
79.4528
79.4529
79.4582
79.4588
82.9915
82.6989
82.1108
81.1852
79.8681
78.1044
75.7461
72.5943
68.7739
64.4361
59.7504
54.9225
50.1956
45.8209
42.0077
38.7942
36.1248
33.9204
32.1021
30.596
29.3613
28.3173
27.3922
26.556
25.7845
25.0615
24.3749
23.7132
23.0677
22.5356
22.0702
21.5419
20.9441
20.2893
83.274
83.4624
83.3236
83.0982
82.7814
82.4109
82.0198
81.6321
81.264
80.9264
80.6255
80.3641
80.1425
79.9589
79.8107
79.6947
79.6069
79.5433
79.4998
79.4727
79.4577
79.4531
79.4531
79.4582
79.4588
83.1197
82.6622
81.8628
80.6899
79.0874
76.8999
73.911
70.2282
65.9916
61.3369
56.4352
51.5146
46.8343
42.6356
39.0798
36.1536
33.7706
31.8324
30.2518
28.9528
27.8984
27.0048
26.203
25.4711
24.7896
24.1455
23.529
22.931
22.4385
22.0092
21.5018
20.9287
20.2817
19.5722
83.4373
83.7971
83.7544
83.5933
83.3045
82.9339
82.5223
82.1001
81.6889
81.3035
80.9532
80.6434
80.3757
80.1495
79.9631
79.8134
79.6964
79.6081
79.5441
79.5005
79.4732
79.458
79.4533
79.4532
79.4582
79.4588
83.1372
82.4835
81.4422
79.9863
77.9609
75.135
71.6039
67.4999
62.9232
58.0045
52.9429
47.9951
43.4304
39.4696
36.2156
33.6033
31.519
29.8499
28.5044
27.4071
26.5261
25.7762
25.0915
24.4582
23.8615
23.2916
22.7411
22.2987
21.9103
21.4394
20.8875
20.2655
19.5637
18.7961
83.489
84.0642
84.1511
84.0839
83.8459
83.4915
83.0704
82.6204
82.1692
81.7364
81.3353
80.9739
80.6562
80.3829
80.1535
79.9652
79.8145
79.6971
79.6086
79.5445
79.5008
79.4735
79.4582
79.4535
79.4533
79.4582
79.4588
83.0138
82.1335
80.8119
78.9323
76.2668
72.8989
68.9518
64.4929
59.6122
54.471
49.3058
44.3995
40.02
36.3539
33.4381
31.1579
29.3779
27.9761
26.8599
25.9568
25.2412
24.6278
24.054
23.5135
22.9964
22.4961
22.1042
21.7678
21.3385
20.823
20.223
19.5473
18.787
17.9564
83.3966
84.2375
84.4912
84.5524
84.3924
84.0749
83.659
83.1906
82.7046
82.2265
81.7741
81.3591
80.9879
80.6635
80.3863
80.1547
79.9654
79.8143
79.6968
79.6084
79.5445
79.5008
79.4736
79.4585
79.4537
79.4534
79.4582
79.4588
82.7175
81.5734
79.8272
77.3097
74.1105
70.3381
66.0279
61.2333
56.0752
50.7562
45.5515
40.7611
36.6357
33.3152
30.7654
28.8279
27.352
26.2116
25.3165
24.5989
24.0401
23.5558
23.0862
22.633
22.1906
21.8532
21.5695
21.1931
20.7198
20.1562
19.5036
18.7701
17.9468
17.048
83.1237
84.2883
84.7489
84.978
84.9283
84.6727
84.2804
83.8064
83.2935
82.7742
82.2718
81.8019
81.3746
80.9951
80.6659
80.3862
80.1535
79.9639
79.813
79.6958
79.6077
79.544
79.5006
79.4739
79.4588
79.4538
79.4534
79.4582
79.4588
82.2069
80.6545
78.279
75.2384
71.649
67.5106
62.8412
57.7243
52.3208
46.8791
41.7087
37.1126
33.3076
30.3755
28.2113
26.6203
25.4434
24.5555
23.8715
23.3298
22.919
22.556
22.1844
21.8129
21.5394
21.3135
20.9907
20.5711
20.0504
19.4347
18.7252
17.9295
17.0382
16.0659
82.6231
84.1853
84.8955
85.3365
85.4344
85.2706
84.9247
84.4615
83.9327
83.3786
82.8289
82.3046
81.8193
81.3817
80.9962
80.664
80.3831
80.1502
79.961
79.8106
79.6941
79.6064
79.5432
79.5008
79.4744
79.459
79.4538
79.4533
79.4582
79.4589
81.3272
79.1827
76.2978
72.8793
68.9248
64.4118
59.3856
53.9652
48.3589
42.862
37.8087
33.4869
30.0628
27.553
25.7856
24.5386
23.6518
23.0054
22.5214
22.1457
21.8738
21.6244
21.3445
21.1502
20.9926
20.7293
20.3643
19.898
19.3261
18.6542
17.8832
17.0204
16.056
15.0052
83.8895
81.7371
84.8978
85.6013
85.8884
85.8513
85.5792
85.1472
84.6169
84.0371
83.4452
82.8682
82.3245
81.8263
81.3811
80.992
80.6583
80.3774
80.1451
79.9568
79.8074
79.6916
79.6046
79.5432
79.5016
79.4747
79.459
79.4537
79.4532
79.4582
79.459
79.9026
77.2941
74.0427
70.2605
65.9226
61.0288
55.6528
49.9576
44.2047
38.733
33.8858
29.9161
26.9248
24.8613
23.4942
22.584
21.9754
21.5579
21.2623
21.0422
20.9001
20.757
20.6659
20.5938
20.4009
20.097
19.6864
19.1697
18.5427
17.8102
16.9729
16.0377
14.9951
13.8603
84.7201
83.25
80.2934
85.7398
86.2655
86.3943
86.2285
85.8526
85.3388
84.7457
84.119
83.4929
82.8915
82.3315
81.8238
81.374
80.9832
80.6494
80.3694
80.1385
79.9516
79.8031
79.6883
79.6044
79.5445
79.502
79.4747
79.4588
79.4535
79.4531
79.4582
79.459
78.0763
75.1426
71.5314
67.359
62.6255
57.3481
51.6372
45.7087
39.8802
34.5254
29.9767
26.4308
23.9139
22.3105
21.34
20.7549
20.4107
20.2089
20.0897
20.0149
19.994
20.0564
20.0964
19.9918
19.7606
19.4128
18.9531
18.3821
17.6956
16.8978
15.9892
14.9764
13.8503
12.6261
85.7188
84.2338
82.1344
78.4631
86.535
86.8766
86.8537
86.5638
86.0888
85.4982
84.847
84.1777
83.5211
82.8991
82.327
81.8134
81.3613
80.9704
80.6378
80.3595
80.1305
79.945
79.798
79.6877
79.6061
79.545
79.502
79.4745
79.4585
79.4533
79.4529
79.4582
79.4591
75.9964
72.7393
68.7344
64.1556
59.0168
53.3588
47.3381
41.2322
35.4144
30.2776
26.1187
23.059
21.0459
19.9064
19.3229
19.0485
18.9538
18.9537
18.9989
19.0593
19.2624
19.4684
19.4802
19.3404
19.0678
18.6727
18.16
17.5304
16.7798
15.9119
14.9268
13.8311
12.616
11.2971
86.6673
85.4256
83.2792
80.6519
76.3919
87.2695
87.4341
87.2641
86.8551
86.2865
85.6244
84.9203
84.2127
83.5299
82.8926
82.3127
81.796
81.3438
80.9543
80.624
80.3481
80.1208
79.9372
79.7966
79.69
79.6069
79.545
79.5017
79.4739
79.4582
79.4531
79.4527
79.4582
79.4593
73.6694
70.0495
65.632
60.6323
55.0818
49.053
42.7599
36.5491
30.8434
26.0316
22.348
19.8248
18.3324
17.6519
17.4408
17.4606
17.5993
17.7871
17.9851
18.2885
18.6487
18.8324
18.8136
18.6356
18.3184
17.8723
17.3024
16.6099
15.7905
14.8473
13.7804
12.5962
11.2871
9.86824
87.5472
86.5707
84.7059
81.9649
78.9175
74.0821
87.9426
87.9345
87.6224
87.1002
86.4442
85.7166
84.9646
84.2241
83.5217
82.8741
82.2901
81.7729
81.3222
80.9354
80.6081
80.3345
80.1097
79.9349
79.7998
79.691
79.6069
79.5445
79.5008
79.4736
79.458
79.4528
79.4525
79.4582
79.4594
71.0546
67.054
62.2062
56.7726
50.8078
44.4259
37.9127
31.6884
26.2097
21.8312
18.6986
16.7477
15.7808
15.5465
15.6901
15.9857
16.342
16.7041
17.168
17.6423
17.985
18.1445
18.0925
17.8735
17.508
17.0071
16.3758
15.6155
14.7223
13.6986
12.5446
11.2666
9.8585
8.33465
88.3574
87.6408
86.0905
83.6387
80.4044
76.952
71.4852
88.5501
88.3741
87.9263
87.2977
86.561
85.7739
84.9804
84.2147
83.4989
82.8455
82.2604
81.7448
81.2973
80.9142
80.5896
80.3191
80.1062
79.9391
79.8012
79.691
79.6061
79.5433
79.5006
79.4735
79.4577
79.4524
79.4522
79.4583
79.4596
68.1338
63.7364
58.4407
52.5608
46.1822
39.4759
32.8135
26.6873
21.5613
17.7202
15.2002
13.8421
13.3944
13.588
14.0653
14.6182
15.1761
15.8322
16.4836
16.9436
17.2676
17.4007
17.3129
17.0496
16.6322
16.0722
15.375
14.5421
13.57
12.4606
11.2141
9.83756
8.32547
6.68953
89.0924
88.6353
87.3938
85.2765
82.3279
78.6444
74.7087
68.5819
89.0874
88.7498
88.1736
87.4463
86.6359
85.7965
84.9709
84.1876
83.4638
82.8084
82.2248
81.7128
81.2696
80.8898
80.5689
80.314
80.1117
79.9409
79.8012
79.69
79.6044
79.5432
79.5009
79.4732
79.4572
79.452
79.4519
79.4583
79.4598
64.8922
60.0824
54.3191
47.9791
41.1924
34.2049
27.4877
21.592
16.9502
13.7403
11.8771
11.1173
11.1733
11.7716
12.5605
13.3517
14.2387
15.1026
15.744
16.1889
16.4923
16.5969
16.4704
16.1593
15.6861
15.0627
14.2948
13.3844
12.3282
11.128
9.7843
8.30462
6.68321
4.62228
89.7461
89.5472
88.6174
86.8276
84.2186
80.8423
76.6397
72.1711
65.3576
89.5503
89.0588
88.3627
87.5445
86.6688
85.7886
84.94
84.1458
83.4185
82.7642
82.1844
81.6774
81.2381
80.8626
80.5618
80.3211
80.1139
79.9409
79.7998
79.6877
79.6047
79.5441
79.5008
79.4727
79.4565
79.4514
79.4515
79.4583
79.4601
61.318
56.077
49.8209
43.0065
35.8245
28.6198
21.9716
16.4576
12.4298
9.92869
8.74785
8.57821
9.11449
10.0912
11.1688
12.3348
13.455
14.3148
14.9457
15.374
15.655
15.7286
15.5604
15.1978
14.6647
13.9734
13.13
12.1371
10.9916
9.69586
8.25045
6.66303
4.61256
2.17562
90.3133
90.3679
89.7545
88.295
86.0176
83.0027
79.1419
74.3692
69.3323
61.8014
89.9353
89.299
88.4917
87.5923
86.6648
85.7548
84.8913
84.0915
83.3647
82.7143
82.1401
81.6374
81.2031
80.853
80.5708
80.3239
80.1139
79.9392
79.7967
79.6884
79.6065
79.5446
79.5005
79.472
79.4557
79.4508
79.451
79.4584
79.4604
57.398
51.7002
44.9207
37.6154
30.0636
22.7376
16.3139
11.3462
8.05221
6.31663
5.82475
6.22471
7.21248
8.53969
10.053
11.4859
12.6098
13.4653
14.0846
14.4946
14.7512
14.7912
14.578
14.1603
13.5629
12.7991
11.8754
10.7949
9.55556
8.15963
6.60888
4.58833
2.16343
-0.293061
90.7899
91.089
90.7951
89.6722
87.7284
85.0644
81.5959
77.2028
71.8277
66.1901
57.9007
90.2398
89.468
88.5602
87.5955
86.6296
85.6995
84.8277
84.0271
83.3041
82.6598
82.0903
81.5932
81.1905
80.8643
80.5744
80.3239
80.1117
79.9349
79.7981
79.6917
79.6078
79.5446
79.4998
79.471
79.4548
79.45
79.4505
79.4584
79.4607
53.113
46.926
39.582
31.7709
23.901
16.5895
10.5777
6.3243
3.86568
2.92844
3.11359
4.05332
5.46003
7.29807
9.12297
10.5712
11.6994
12.5502
13.1567
13.5466
13.7765
13.7802
13.5185
13.0415
12.3756
11.5347
10.5258
9.35305
8.01527
6.51605
4.53126
2.13731
-0.301393
-2.74322
91.1727
91.7034
91.729
90.9481
89.3448
87.0307
83.9448
79.9698
75.0213
69.0167
62.7438
53.6369
90.46
89.5646
88.575
87.5611
86.5684
85.6262
84.7518
83.9546
83.2379
82.5987
82.0353
81.5771
81.2046
80.8687
80.5744
80.3211
80.1062
79.9373
79.8033
79.6942
79.6085
79.5442
79.4988
79.4697
79.4536
79.4491
79.4499
79.4585
79.4611
48.4381
41.7172
33.7578
25.4418
17.3441
10.2268
4.83849
1.4598
-0.088077
-0.220139
0.614827
2.05736
4.06109
6.26519
8.12245
9.58749
10.7202
11.5654
12.1576
12.5254
12.7263
12.6905
12.3769
11.8366
11.0977
10.175
9.07642
7.80693
6.3677
4.43386
2.07689
-0.324411
-2.75007
-5.16531
91.4569
92.2056
92.5458
92.1114
90.8556
88.8947
86.192
82.6237
78.1205
72.6024
65.9442
58.9903
48.9849
90.5941
89.5967
88.5445
87.4953
86.4856
85.5382
84.6662
83.8755
83.1641
82.5314
82.015
81.5944
81.21
80.8687
80.5709
80.314
80.1098
79.9451
79.8076
79.696
79.6086
79.5433
79.4974
79.4681
79.4521
79.448
79.4492
79.4586
79.4616
43.3373
36.0185
27.3884
18.5932
10.4127
3.72297
-0.816508
-3.1821
-3.77706
-3.12095
-1.67621
0.468897
2.90047
5.156
7.04834
8.53123
9.66825
10.5069
11.0831
11.4267
11.596
11.5176
11.1482
10.5405
9.72422
8.7153
7.52264
6.15351
4.27985
1.97457
-0.383044
-2.77282
-5.17138
-7.55108
91.6393
92.589
93.2358
93.1503
92.2494
90.6446
88.3295
85.1691
81.0952
76.055
69.9594
62.6207
54.9233
43.9134
90.6506
89.5742
88.4761
87.4035
86.3852
85.4387
84.5729
83.7873
83.0828
82.5062
82.0362
81.6008
81.21
80.8643
80.5618
80.3192
80.1211
79.9518
79.8108
79.697
79.6081
79.5419
79.4955
79.4662
79.4504
79.4468
79.4485
79.4587
79.462
37.7506
29.7461
20.3911
11.1866
3.14956
-2.82605
-6.29419
-7.54473
-7.17907
-5.77377
-3.4928
-0.8447
1.6571
3.96799
5.89751
7.39878
8.5397
9.37068
9.92921
10.2462
10.3811
10.2568
9.8278
9.14855
8.2506
7.15123
5.86159
4.05834
1.81402
-0.48565
-2.83079
-5.19448
-7.55631
-9.88704
91.7293
92.8481
93.7863
94.0534
93.5139
92.2683
90.3441
87.5982
83.951
79.3664
73.7891
67.1105
59.0563
50.5369
38.3702
90.6418
89.5062
88.3765
87.2906
86.2708
85.3299
84.4689
83.6903
83.052
82.5318
82.0439
81.6009
81.2047
80.853
80.5691
80.3348
80.1308
79.9571
79.8131
79.6972
79.607
79.5399
79.4932
79.4639
79.4485
79.4454
79.4477
79.4588
79.4626
31.59
22.7921
12.6706
3.20677
-4.36624
-9.30486
-11.5038
-11.5822
-10.2833
-7.86806
-4.98886
-2.24775
0.329626
2.69887
4.6669
6.18682
7.33105
8.15306
8.69197
8.97987
9.07729
8.90372
8.41124
7.6564
6.67271
5.47998
3.75739
1.58452
-0.6489
-2.93388
-5.25212
-7.57928
-9.89138
-12.1594
91.7411
92.994
94.1839
94.8036
94.636
93.7529
92.222
89.8982
86.6821
82.5434
77.4544
71.3451
64.0755
55.2592
45.8146
32.2731
90.5781
89.4006
88.2515
87.1609
86.1455
85.2086
84.3543
83.6533
83.0828
82.541
82.0439
81.5944
81.1906
80.8628
80.5901
80.3485
80.1388
79.9613
79.8145
79.6965
79.605
79.5373
79.4904
79.4612
79.4463
79.4439
79.447
79.4589
79.4632
24.7403
15.0161
4.13687
-5.32441
-12.0097
-15.5841
-16.3622
-15.2628
-12.7217
-9.58396
-6.58068
-3.73954
-1.08275
1.34659
3.35399
4.89247
6.03922
6.85075
7.36787
7.62392
7.68083
7.45437
6.89464
6.06033
4.98801
3.36394
1.27417
-0.882907
-3.09909
-5.35617
-7.63597
-9.91395
-12.1628
-14.3553
91.6873
93.044
94.4371
95.3793
95.5948
95.0857
93.948
92.0551
89.2775
85.5833
80.9626
75.3839
68.7482
60.8742
51.2362
40.7234
25.5118
90.4693
89.2645
88.1063
87.0182
86.0056
85.0748
84.3104
83.69
83.0936
82.541
82.0362
81.5771
81.2034
80.8903
80.6087
80.36
80.1455
79.9642
79.8146
79.6948
79.6021
79.5339
79.487
79.4581
79.4439
79.4423
79.4462
79.459
79.4638
17.0213
6.23783
-5.28765
-14.3289
-19.6113
-21.5298
-20.7977
-18.1379
-14.7061
-11.4006
-8.26401
-5.31826
-2.58026
-0.0899937
1.957
3.51357
4.66169
5.46094
5.95394
6.17529
6.18841
5.90551
5.27481
4.35826
2.85682
0.869092
-1.19918
-3.33588
-5.52325
-7.74027
-9.96928
-12.1848
-14.3578
-16.4623
91.5792
93.0135
94.5655
95.784
96.3614
96.2439
95.507
94.0523
91.725
88.4782
84.3155
79.2333
73.1834
66.0246
57.5278
46.9929
35.2266
17.9149
90.3237
89.1042
87.9456
86.8584
85.8508
85.0231
84.3538
83.7026
83.0936
82.5319
82.015
81.5935
81.2388
80.9149
80.6246
80.3699
80.1505
79.9656
79.8134
79.6919
79.5983
79.5297
79.483
79.4547
79.4414
79.4407
79.4453
79.4591
79.4644
8.15619
-3.78012
-15.6199
-23.6458
-26.9822
-26.9993
-24.2417
-20.4577
-16.7928
-13.3077
-10.0328
-6.98116
-4.16168
-1.61081
0.47521
2.04882
3.19671
3.98159
4.44795
4.63157
4.59756
4.25469
3.5503
2.20774
0.347689
-1.61186
-3.65546
-5.76197
-7.90804
-10.0731
-12.2385
-14.379
-16.4637
-18.468
91.4269
92.9165
94.5885
96.0363
96.935
97.1931
96.8722
95.872
94.0088
91.2197
87.5103
82.9026
77.3848
70.8831
63.2007
54.0618
42.5292
29.2812
9.20143
90.149
88.9252
87.7649
86.6812
85.7907
85.0742
84.3685
83.7026
83.0829
82.5062
82.0357
81.6383
81.2706
80.9363
80.6385
80.3778
80.1538
79.9653
79.8108
79.6878
79.5935
79.5247
79.4784
79.451
79.4387
79.439
79.4445
79.4592
79.4651
-2.32651
-15.2169
-26.799
-33.1045
-33.8621
-31.235
-26.9878
-22.8728
-18.9616
-15.2924
-11.8795
-8.72329
-5.82398
-3.21425
-1.09087
0.497911
1.64349
2.41162
2.84858
2.9914
2.90687
2.50133
1.37508
-0.318922
-2.14225
-4.07205
-6.08298
-8.14702
-10.2402
-12.3411
-14.4307
-16.4839
-18.4685
-20.3623
91.2397
92.765
94.524
96.1545
97.3346
97.93
98.0022
97.4815
96.1112
93.7949
90.5434
86.3946
81.3737
75.4483
68.5143
60.3052
50.5063
37.8392
22.8366
-1.12241
89.9518
88.7229
87.5637
86.6119
85.8504
85.0912
84.3685
83.69
83.052
82.5319
82.0913
81.6786
81.2984
80.9551
80.65
80.3834
80.1549
79.9632
79.8065
79.6822
79.5875
79.519
79.4735
79.4471
79.4359
79.4372
79.4437
79.4593
79.4659
-15.0911
-28.2895
-38.9801
-42.1497
-39.2299
-34.5439
-29.8032
-25.3468
-21.1883
-17.3396
-13.7935
-10.5371
-7.5619
-4.89697
-2.73932
-1.13809
0.0025091
0.75107
1.15573
1.2546
1.11687
0.294921
-1.17332
-2.81932
-4.60638
-6.50026
-8.46701
-10.4776
-12.5065
-14.5314
-16.5333
-18.4876
-20.3615
-22.1318
91.0252
92.5704
94.3881
96.1574
97.5786
98.4741
98.8922
98.8273
97.995
96.1882
93.407
89.7129
85.1592
79.7602
73.4558
66.1093
57.3684
46.8937
32.9153
15.8672
-13.9161
89.7275
88.4967
87.4844
86.6813
85.8699
85.0912
84.3539
83.6532
83.0833
82.6
82.1415
81.7141
81.3233
80.9712
80.6588
80.3864
80.1536
79.959
79.8003
79.6752
79.5804
79.5127
79.4683
79.443
79.4329
79.4354
79.4429
79.4594
79.4666
-31.7786
-43.151
-50.8512
-49.3216
-43.3615
-37.844
-32.6231
-27.8378
-23.4465
-19.4302
-15.7605
-12.4119
-9.36789
-6.65372
-4.46646
-2.85657
-1.72436
-0.998548
-0.629309
-0.576844
-1.12846
-2.28007
-3.68609
-5.28734
-7.03392
-8.88147
-10.7938
-12.7403
-14.6937
-16.6313
-18.5343
-20.3783
-22.1309
-23.7708
90.7792
92.3416
94.1956
96.0635
97.6855
98.8449
99.5655
99.8976
99.5951
98.3612
96.0898
92.8557
88.7537
83.8347
78.0939
71.4394
63.7001
54.4203
43.2678
27.7682
8.45449
-31.7078
89.4752
88.4069
87.5648
86.7036
85.87
85.0743
84.3103
83.6909
83.1656
82.6615
82.186
81.7462
81.3448
80.9838
80.6643
80.3865
80.1497
79.9523
79.7922
79.6667
79.5726
79.5059
79.4627
79.4387
79.4299
79.4335
79.442
79.4596
79.4675
-52.2906
-55.9454
-62.0667
-54.514
-47.2912
-41.0365
-35.3816
-30.3025
-25.7053
-21.5407
-17.7629
-14.3346
-11.232
-8.47711
-6.26674
-4.65326
-3.53357
-2.83415
-2.50288
-2.8649
-3.7353
-4.8072
-6.15803
-7.71265
-9.40982
-11.2018
-13.0503
-14.9222
-16.7892
-18.629
-20.4226
-22.1475
-23.7701
-25.2714
90.5016
92.0744
93.9583
95.8912
97.6727
99.0617
100.045
100.715
100.89
100.239
98.555
95.8185
92.1629
87.6953
82.4527
76.4066
69.4287
61.3174
51.5082
39.6849
22.494
0.475283
-53.9113
89.3741
88.4994
87.5902
86.7037
85.8505