# Residuals   
# Time        	p             	Ux            	Uy            	k             	epsilon       	T             
0             	N/A	N/A	N/A	N/A	N/A
1.19904e-05   	1.000000e+00	1.000000e+00	1.000000e+00	1.000000e+00	1.509095e-01	N/A
2.59207e-05   	1.454392e-01	2.129865e-01	8.656161e-02	3.506052e-02	3.211941e-02	N/A
4.17025e-05   	1.045075e-01	1.509746e-01	7.107164e-02	2.474631e-02	2.314910e-02	N/A
5.9359e-05    	9.557871e-02	1.150484e-01	6.651495e-02	2.082449e-02	1.862689e-02	N/A
7.84024e-05   	8.901519e-02	9.297879e-02	6.172744e-02	1.741027e-02	1.508361e-02	N/A
9.76303e-05   	7.812925e-02	7.688466e-02	5.407679e-02	1.396409e-02	1.191425e-02	N/A
0.000116971   	6.817850e-02	7.084622e-02	4.742657e-02	1.170236e-02	9.937435e-03	N/A
0.000136311   	5.949027e-02	6.777667e-02	4.151943e-02	1.039784e-02	8.735822e-03	N/A
0.000155576   	5.265162e-02	6.429607e-02	3.641007e-02	9.688407e-03	8.072206e-03	N/A
0.000174841   	4.747046e-02	5.914814e-02	3.219583e-02	9.345679e-03	7.838205e-03	N/A
0.000194182   	4.474525e-02	5.186848e-02	2.879587e-02	9.207643e-03	7.797701e-03	N/A
0.000213523   	4.192699e-02	4.407477e-02	2.587516e-02	9.115206e-03	7.789422e-03	N/A
0.000232864   	3.906173e-02	3.837663e-02	2.347174e-02	9.037725e-03	7.764899e-03	N/A
0.000252205   	3.633306e-02	3.506120e-02	2.193463e-02	8.878006e-03	7.682215e-03	N/A
0.000271584   	3.426129e-02	3.339739e-02	2.091700e-02	8.702058e-03	7.499049e-03	N/A
0.000290964   	3.241099e-02	3.195173e-02	1.988396e-02	8.428862e-03	7.276838e-03	N/A
0.000310343   	3.100716e-02	3.018298e-02	1.910837e-02	8.152274e-03	7.010348e-03	N/A
0.000329722   	2.967196e-02	2.816727e-02	1.817334e-02	7.857985e-03	6.709737e-03	N/A
0.000349101   	2.863980e-02	2.595938e-02	1.731567e-02	7.585240e-03	6.457605e-03	N/A
0.00036852    	2.764311e-02	2.394879e-02	1.658064e-02	7.349794e-03	6.193628e-03	N/A
0.000387938   	2.662194e-02	2.249901e-02	1.578673e-02	7.117582e-03	5.941717e-03	N/A
0.000407356   	2.556830e-02	2.198257e-02	1.518977e-02	6.909936e-03	5.728119e-03	N/A
0.000426775   	2.453342e-02	2.217198e-02	1.459709e-02	6.741928e-03	5.531605e-03	N/A
0.000446193   	2.351639e-02	2.259525e-02	1.410415e-02	6.568764e-03	5.338066e-03	N/A
0.000465611   	2.251564e-02	2.318589e-02	1.361752e-02	6.428492e-03	5.183872e-03	N/A
0.00048503    	2.152184e-02	2.374906e-02	1.318979e-02	6.318350e-03	5.050168e-03	N/A
0.000504448   	2.065061e-02	2.410762e-02	1.280196e-02	6.203558e-03	4.916707e-03	N/A
0.000523866   	1.981042e-02	2.428349e-02	1.243250e-02	6.098616e-03	4.809453e-03	N/A
0.000543324   	1.912299e-02	2.419429e-02	1.215561e-02	6.016433e-03	4.722599e-03	N/A
0.000562783   	1.839823e-02	2.380189e-02	1.189640e-02	5.923614e-03	4.616523e-03	N/A
0.000582241   	1.773006e-02	2.309624e-02	1.165277e-02	5.842658e-03	4.542784e-03	N/A
0.000601699   	1.706495e-02	2.234240e-02	1.143233e-02	5.758804e-03	4.456716e-03	N/A
0.000621157   	1.644946e-02	2.200662e-02	1.124107e-02	5.685006e-03	4.364382e-03	N/A
0.000640615   	1.588632e-02	2.218553e-02	1.103146e-02	5.622017e-03	4.319792e-03	N/A
0.000660074   	1.537510e-02	2.312472e-02	1.078973e-02	5.575812e-03	4.273393e-03	N/A
0.000679532   	1.489267e-02	2.466166e-02	1.052548e-02	5.561032e-03	4.263040e-03	N/A
0.00069899    	1.442047e-02	2.678030e-02	1.022357e-02	5.584231e-03	4.302656e-03	N/A
0.000718448   	1.395574e-02	2.971892e-02	9.876751e-03	5.620308e-03	4.406545e-03	N/A
0.000737906   	1.350088e-02	3.355914e-02	9.491730e-03	5.714689e-03	4.545816e-03	N/A
0.000757364   	1.306700e-02	3.769748e-02	9.079549e-03	5.864650e-03	4.749127e-03	N/A
0.000776782   	1.263395e-02	4.136023e-02	8.641958e-03	6.059257e-03	5.068665e-03	N/A
0.000796158   	1.222685e-02	4.410446e-02	8.241324e-03	6.303696e-03	5.510046e-03	N/A
0.000815453   	1.182592e-02	4.552159e-02	7.945865e-03	6.665573e-03	6.085760e-03	N/A
0.000832848   	1.039701e-02	4.226301e-02	7.288405e-03	6.489043e-03	6.126608e-03	N/A
0.000848654   	9.256755e-03	3.847181e-02	6.868426e-03	6.342287e-03	6.117679e-03	N/A
0.000863343   	8.467786e-03	3.508595e-02	6.647941e-03	6.275478e-03	6.140029e-03	N/A
0.000877271   	7.931761e-03	3.218213e-02	6.555871e-03	6.279986e-03	6.188839e-03	N/A
0.000890667   	7.565872e-03	2.970454e-02	6.537658e-03	6.295788e-03	6.271637e-03	N/A
0.00090368    	7.315047e-03	2.757961e-02	6.562003e-03	6.288247e-03	6.297939e-03	N/A
0.000916402   	7.134089e-03	2.571573e-02	6.601815e-03	6.256781e-03	6.267520e-03	N/A
0.000928932   	7.037091e-03	2.412823e-02	6.664059e-03	6.225485e-03	6.280392e-03	N/A
0.000941324   	7.036512e-03	2.272554e-02	6.734083e-03	6.169442e-03	6.262957e-03	N/A
0.000953615   	7.099619e-03	2.146366e-02	6.802789e-03	6.067286e-03	6.174187e-03	N/A
0.00096584    	7.207845e-03	2.030513e-02	6.871936e-03	5.966322e-03	6.115940e-03	N/A
0.000978048   	7.354635e-03	1.928058e-02	6.956375e-03	5.859587e-03	6.031461e-03	N/A
0.00099024    	7.505079e-03	1.832491e-02	7.032380e-03	5.717878e-03	5.931329e-03	N/A
0.00100245    	7.672686e-03	1.746178e-02	7.119021e-03	5.588468e-03	5.857523e-03	N/A
0.00101469    	7.844637e-03	1.666933e-02	7.216340e-03	5.451606e-03	5.775557e-03	N/A
0.00102698    	8.017779e-03	1.600194e-02	7.325616e-03	5.313332e-03	5.700651e-03	N/A
0.00103934    	8.193226e-03	1.539941e-02	7.454209e-03	5.182930e-03	5.637813e-03	N/A
0.00105177    	8.354030e-03	1.495647e-02	7.591021e-03	5.047984e-03	5.563084e-03	N/A
0.00106428    	8.520028e-03	1.458470e-02	7.745990e-03	4.908784e-03	5.479301e-03	N/A
0.00107691    	8.707297e-03	1.440035e-02	7.916746e-03	4.787608e-03	5.423482e-03	N/A
0.00108963    	8.907729e-03	1.421852e-02	8.096305e-03	4.661962e-03	5.351526e-03	N/A
0.00110249    	9.126325e-03	1.416185e-02	8.287504e-03	4.533147e-03	5.274554e-03	N/A
0.00111548    	9.348519e-03	1.408099e-02	8.487543e-03	4.424539e-03	5.189757e-03	N/A
0.0011286     	9.573230e-03	1.402698e-02	8.687698e-03	4.319059e-03	5.122049e-03	N/A
0.00114187    	9.796715e-03	1.391013e-02	8.896005e-03	4.193202e-03	5.046798e-03	N/A
0.00115527    	1.001635e-02	1.383569e-02	9.106278e-03	4.093922e-03	4.957705e-03	N/A
0.00116881    	1.023079e-02	1.368604e-02	9.315046e-03	3.997045e-03	4.871747e-03	N/A
0.00118248    	1.042399e-02	1.363307e-02	9.510549e-03	3.889674e-03	4.764426e-03	N/A
0.00119628    	1.060957e-02	1.362834e-02	9.701084e-03	3.800882e-03	4.677397e-03	N/A
0.00121021    	1.079098e-02	1.367096e-02	9.883886e-03	3.719324e-03	4.565954e-03	N/A
0.00122427    	1.096571e-02	1.379959e-02	1.006263e-02	3.632889e-03	4.434056e-03	N/A
0.00123845    	1.112386e-02	1.391046e-02	1.021458e-02	3.557377e-03	4.333840e-03	N/A
0.00125272    	1.126674e-02	1.409229e-02	1.033618e-02	3.496362e-03	4.207660e-03	N/A
0.00126708    	1.142356e-02	1.441111e-02	1.045178e-02	3.441339e-03	4.078306e-03	N/A
0.00128154    	1.158647e-02	1.472308e-02	1.055844e-02	3.391765e-03	3.967020e-03	N/A
0.00129605    	1.174066e-02	1.494551e-02	1.062730e-02	3.341188e-03	3.838376e-03	N/A
0.00131063    	1.194718e-02	1.519621e-02	1.070979e-02	3.298917e-03	3.710920e-03	N/A
0.00132523    	1.212491e-02	1.529853e-02	1.074905e-02	3.253919e-03	3.578902e-03	N/A
0.00133989    	1.233227e-02	1.532829e-02	1.080434e-02	3.209883e-03	3.471983e-03	N/A
0.00135454    	1.251160e-02	1.533743e-02	1.082688e-02	3.165966e-03	3.341134e-03	N/A
0.00136922    	1.271051e-02	1.523710e-02	1.086110e-02	3.122272e-03	3.216044e-03	N/A
0.0013839     	1.289161e-02	1.512903e-02	1.089429e-02	3.076299e-03	3.111037e-03	N/A
0.00139855    	1.304412e-02	1.503263e-02	1.090330e-02	3.021787e-03	3.005820e-03	N/A
0.0014132     	1.323517e-02	1.485662e-02	1.095539e-02	2.978531e-03	2.898089e-03	N/A
0.00142783    	1.339047e-02	1.464524e-02	1.099652e-02	2.921904e-03	2.806600e-03	N/A
0.00144243    	1.355892e-02	1.442369e-02	1.105439e-02	2.872393e-03	2.716453e-03	N/A
0.00145701    	1.372507e-02	1.409623e-02	1.112671e-02	2.820140e-03	2.618988e-03	N/A
0.00147157    	1.388647e-02	1.375498e-02	1.121340e-02	2.764192e-03	2.529826e-03	N/A
0.0014861     	1.404220e-02	1.339963e-02	1.130568e-02	2.711182e-03	2.442674e-03	N/A
0.00150057    	1.417645e-02	1.296809e-02	1.142415e-02	2.653340e-03	2.351743e-03	N/A
0.00151503    	1.433071e-02	1.254069e-02	1.155602e-02	2.600214e-03	2.267155e-03	N/A
0.00152946    	1.449027e-02	1.209836e-02	1.170831e-02	2.546107e-03	2.185842e-03	N/A
0.00154384    	1.461606e-02	1.160543e-02	1.185404e-02	2.489559e-03	2.110490e-03	N/A
0.0015582     	1.477249e-02	1.115194e-02	1.200206e-02	2.442054e-03	2.042665e-03	N/A
0.00157253    	1.492897e-02	1.068802e-02	1.216674e-02	2.390034e-03	1.971702e-03	N/A
0.00158684    	1.508053e-02	1.021780e-02	1.232926e-02	2.338994e-03	1.915199e-03	N/A
0.00160112    	1.524262e-02	9.762718e-03	1.248625e-02	2.296409e-03	1.868091e-03	N/A
0.00161536    	1.537382e-02	9.365409e-03	1.262069e-02	2.247400e-03	1.819962e-03	N/A
0.00162957    	1.551738e-02	9.053470e-03	1.277201e-02	2.199595e-03	1.779331e-03	N/A
0.00164376    	1.566732e-02	8.841701e-03	1.291910e-02	2.158016e-03	1.744642e-03	N/A
0.00165794    	1.584793e-02	8.725538e-03	1.308433e-02	2.120386e-03	1.717274e-03	N/A
0.00167211    	1.602379e-02	8.667396e-03	1.323617e-02	2.077768e-03	1.688977e-03	N/A
0.00168625    	1.626969e-02	8.644345e-03	1.338338e-02	2.040656e-03	1.662579e-03	N/A
0.00170036    	1.656584e-02	8.664672e-03	1.352532e-02	2.004461e-03	1.636947e-03	N/A
0.00171448    	1.692491e-02	8.694494e-03	1.369279e-02	1.970150e-03	1.614148e-03	N/A
0.00172857    	1.728256e-02	8.702550e-03	1.382478e-02	1.935498e-03	1.586696e-03	N/A
0.00174266    	1.770700e-02	8.708913e-03	1.396031e-02	1.905009e-03	1.561957e-03	N/A
0.00175672    	1.811169e-02	8.699022e-03	1.406436e-02	1.871966e-03	1.535836e-03	N/A
0.00177079    	1.853522e-02	8.688840e-03	1.420380e-02	1.843835e-03	1.512159e-03	N/A
0.00178486    	1.890609e-02	8.633353e-03	1.432704e-02	1.817344e-03	1.486600e-03	N/A
0.0017989     	1.916774e-02	8.551480e-03	1.441613e-02	1.787307e-03	1.456904e-03	N/A
0.00181294    	1.938693e-02	8.472935e-03	1.454060e-02	1.760102e-03	1.429547e-03	N/A
0.00182699    	1.953357e-02	8.378722e-03	1.463619e-02	1.734109e-03	1.401795e-03	N/A
0.00184103    	1.958390e-02	8.262059e-03	1.472692e-02	1.709242e-03	1.375427e-03	N/A
0.00185505    	1.949076e-02	8.159074e-03	1.479939e-02	1.679951e-03	1.344391e-03	N/A
0.00186907    	1.932772e-02	8.077586e-03	1.488913e-02	1.653536e-03	1.315705e-03	N/A
0.00188309    	1.905175e-02	8.003741e-03	1.497440e-02	1.629127e-03	1.288996e-03	N/A
0.00189708    	1.861952e-02	7.992064e-03	1.500017e-02	1.603698e-03	1.263041e-03	N/A
0.00191108    	1.806560e-02	8.002811e-03	1.500165e-02	1.577535e-03	1.238416e-03	N/A
0.00192507    	1.735149e-02	8.039279e-03	1.492563e-02	1.553355e-03	1.212799e-03	N/A
0.00193904    	1.645472e-02	8.092868e-03	1.475428e-02	1.530301e-03	1.188787e-03	N/A
0.00195301    	1.547499e-02	8.212155e-03	1.452426e-02	1.509917e-03	1.170474e-03	N/A
0.00196696    	1.438441e-02	8.322738e-03	1.420441e-02	1.486368e-03	1.153016e-03	N/A
0.0019809     	1.329073e-02	8.460777e-03	1.384778e-02	1.469360e-03	1.137216e-03	N/A
0.00199483    	1.222515e-02	8.575367e-03	1.336265e-02	1.453314e-03	1.123865e-03	N/A
0.00200872    	1.122546e-02	8.714631e-03	1.284783e-02	1.437003e-03	1.113715e-03	N/A
0.0020226     	1.033419e-02	8.831755e-03	1.236441e-02	1.420211e-03	1.104495e-03	N/A
0.00203647    	9.625113e-03	8.913161e-03	1.190215e-02	1.409231e-03	1.097430e-03	N/A
0.00205032    	9.076815e-03	8.921108e-03	1.140678e-02	1.396793e-03	1.090008e-03	N/A
0.00206415    	8.690014e-03	8.871977e-03	1.092874e-02	1.382991e-03	1.084844e-03	N/A
0.00207795    	8.418429e-03	8.810239e-03	1.047845e-02	1.369203e-03	1.081099e-03	N/A
0.00209173    	8.220774e-03	8.699881e-03	1.007401e-02	1.357179e-03	1.075108e-03	N/A
0.00210548    	8.052083e-03	8.536416e-03	9.722052e-03	1.347431e-03	1.069254e-03	N/A
0.00211921    	7.919431e-03	8.336117e-03	9.409239e-03	1.335571e-03	1.064131e-03	N/A
0.00213291    	7.861260e-03	8.114013e-03	9.128821e-03	1.322227e-03	1.058404e-03	N/A
0.0021466     	7.931989e-03	7.875979e-03	8.881095e-03	1.309884e-03	1.051035e-03	N/A
0.00216025    	8.084210e-03	7.618159e-03	8.661239e-03	1.299798e-03	1.043406e-03	N/A
0.00217387    	8.183656e-03	7.320530e-03	8.451682e-03	1.287844e-03	1.033783e-03	N/A
0.00218745    	8.256416e-03	7.019053e-03	8.264463e-03	1.275510e-03	1.025219e-03	N/A
0.00220102    	8.286148e-03	6.712286e-03	8.086538e-03	1.261343e-03	1.015977e-03	N/A
0.00221456    	8.277281e-03	6.412508e-03	7.918325e-03	1.247574e-03	1.005146e-03	N/A
0.00222805    	8.215286e-03	6.139920e-03	7.746443e-03	1.234510e-03	9.923244e-04	N/A
0.00224152    	8.136273e-03	5.911085e-03	7.590018e-03	1.223145e-03	9.814080e-04	N/A
0.00225496    	8.032418e-03	5.684584e-03	7.435454e-03	1.210509e-03	9.714171e-04	N/A
0.00226836    	7.898786e-03	5.490398e-03	7.269590e-03	1.195196e-03	9.611607e-04	N/A
0.00228174    	7.776627e-03	5.342741e-03	7.123099e-03	1.182530e-03	9.520574e-04	N/A
0.00229509    	7.665461e-03	5.219550e-03	6.987377e-03	1.172771e-03	9.439730e-04	N/A
0.0023084     	7.535399e-03	5.140592e-03	6.896304e-03	1.161568e-03	9.349761e-04	N/A
0.00232166    	7.394732e-03	5.095990e-03	6.852578e-03	1.150421e-03	9.272079e-04	N/A
0.0023349     	7.261235e-03	5.082330e-03	6.873605e-03	1.140765e-03	9.218211e-04	N/A
0.00234809    	7.108161e-03	5.080167e-03	6.891945e-03	1.130708e-03	9.152976e-04	N/A
0.00236124    	6.946118e-03	5.093420e-03	6.912709e-03	1.123236e-03	9.091230e-04	N/A
0.00237434    	6.772873e-03	5.109433e-03	6.925508e-03	1.115799e-03	9.050293e-04	N/A
0.0023874     	6.599005e-03	5.109688e-03	6.930102e-03	1.108431e-03	9.010113e-04	N/A
0.00240041    	6.435139e-03	5.078981e-03	6.926316e-03	1.101236e-03	8.985085e-04	N/A
0.00241338    	6.274502e-03	5.021782e-03	6.925896e-03	1.094470e-03	8.963162e-04	N/A
0.00242631    	6.137306e-03	4.936327e-03	6.945830e-03	1.090289e-03	8.939583e-04	N/A
0.00243919    	6.034187e-03	4.842025e-03	6.952447e-03	1.086458e-03	8.930985e-04	N/A
0.002452      	5.936506e-03	4.727957e-03	6.937661e-03	1.081058e-03	8.912277e-04	N/A
0.00246477    	5.856901e-03	4.605555e-03	6.920536e-03	1.077080e-03	8.914043e-04	N/A
0.00247748    	5.771984e-03	4.472879e-03	6.859872e-03	1.071538e-03	8.901785e-04	N/A
0.00249012    	5.677894e-03	4.349194e-03	6.783893e-03	1.066888e-03	8.888961e-04	N/A
0.00250273    	5.590669e-03	4.246142e-03	6.707027e-03	1.065316e-03	8.888521e-04	N/A
0.00251526    	5.489535e-03	4.184308e-03	6.607912e-03	1.061979e-03	8.883527e-04	N/A
0.00252774    	5.388561e-03	4.153715e-03	6.497618e-03	1.058294e-03	8.875796e-04	N/A
0.00254015    	5.293471e-03	4.144749e-03	6.374156e-03	1.054375e-03	8.874310e-04	N/A
0.0025525     	5.200819e-03	4.202159e-03	6.230912e-03	1.050469e-03	8.867612e-04	N/A
0.00256479    	5.109943e-03	4.264109e-03	6.081698e-03	1.047338e-03	8.851949e-04	N/A
0.00257702    	5.027850e-03	4.339418e-03	5.940962e-03	1.044709e-03	8.840050e-04	N/A
0.00258919    	4.959957e-03	4.424134e-03	5.811204e-03	1.041930e-03	8.820799e-04	N/A
0.0026013     	4.891146e-03	4.507756e-03	5.696801e-03	1.038780e-03	8.797101e-04	N/A
0.00261335    	4.821597e-03	4.591707e-03	5.597519e-03	1.035479e-03	8.771800e-04	N/A
0.00262536    	4.757717e-03	4.673207e-03	5.512286e-03	1.033567e-03	8.751427e-04	N/A
0.00263731    	4.679567e-03	4.735454e-03	5.430797e-03	1.030164e-03	8.715348e-04	N/A
0.0026492     	4.594702e-03	4.779903e-03	5.358329e-03	1.027667e-03	8.677176e-04	N/A
0.00266106    	4.511508e-03	4.829851e-03	5.301278e-03	1.025812e-03	8.644267e-04	N/A
0.00267286    	4.417678e-03	4.849922e-03	5.244384e-03	1.022418e-03	8.592496e-04	N/A
0.00268462    	4.325160e-03	4.843956e-03	5.194591e-03	1.020065e-03	8.553315e-04	N/A
0.00269634    	4.232478e-03	4.812316e-03	5.138469e-03	1.017654e-03	8.510670e-04	N/A
0.00270803    	4.132073e-03	4.758649e-03	5.080365e-03	1.015093e-03	8.465662e-04	N/A
0.00271968    	4.025638e-03	4.686561e-03	5.020945e-03	1.013170e-03	8.425660e-04	N/A
0.00273131    	3.923665e-03	4.608833e-03	4.966418e-03	1.012191e-03	8.388437e-04	N/A
0.0027429     	3.815413e-03	4.512811e-03	4.903963e-03	1.009634e-03	8.339076e-04	N/A
0.00275448    	3.716863e-03	4.406686e-03	4.848512e-03	1.008321e-03	8.308637e-04	N/A
0.00276603    	3.630051e-03	4.290524e-03	4.788014e-03	1.006941e-03	8.289058e-04	N/A
0.00277757    	3.539229e-03	4.169919e-03	4.723788e-03	1.005543e-03	8.272118e-04	N/A
0.00278909    	3.443263e-03	4.047584e-03	4.655808e-03	1.004446e-03	8.259878e-04	N/A
0.00280059    	3.350267e-03	3.927574e-03	4.585260e-03	1.003885e-03	8.243136e-04	N/A
0.00281209    	3.262197e-03	3.823456e-03	4.518074e-03	1.004585e-03	8.249790e-04	N/A
0.00282357    	3.166856e-03	3.722380e-03	4.442827e-03	1.004000e-03	8.245639e-04	N/A
0.00283505    	3.080497e-03	3.645485e-03	4.374206e-03	1.005383e-03	8.255899e-04	N/A
0.00284654    	2.990873e-03	3.576009e-03	4.302443e-03	1.006961e-03	8.277698e-04	N/A
0.00285802    	2.901086e-03	3.535393e-03	4.229633e-03	1.008541e-03	8.294732e-04	N/A
0.0028695     	2.813316e-03	3.513464e-03	4.156370e-03	1.010736e-03	8.320618e-04	N/A
0.00288098    	2.736396e-03	3.501330e-03	4.084649e-03	1.012836e-03	8.351318e-04	N/A
0.00289246    	2.680869e-03	3.486876e-03	4.012431e-03	1.014751e-03	8.368971e-04	N/A
0.00290397    	2.663082e-03	3.471013e-03	3.946217e-03	1.018480e-03	8.393183e-04	N/A
0.00291547    	2.673681e-03	3.469501e-03	3.881192e-03	1.021349e-03	8.405260e-04	N/A
0.00292699    	2.726245e-03	3.490548e-03	3.825160e-03	1.025046e-03	8.431271e-04	N/A
0.00293851    	2.793877e-03	3.517241e-03	3.764378e-03	1.026883e-03	8.444467e-04	N/A
0.00295004    	2.871220e-03	3.556412e-03	3.708333e-03	1.030842e-03	8.482275e-04	N/A
0.0029616     	2.952034e-03	3.590353e-03	3.653718e-03	1.034730e-03	8.510130e-04	N/A
0.00297316    	3.037177e-03	3.604763e-03	3.599410e-03	1.037737e-03	8.530643e-04	N/A
0.00298474    	3.132373e-03	3.608170e-03	3.550298e-03	1.042268e-03	8.549968e-04	N/A
0.00299633    	3.229282e-03	3.599890e-03	3.503660e-03	1.046757e-03	8.578647e-04	N/A
0.00300795    	3.330867e-03	3.577344e-03	3.456762e-03	1.051289e-03	8.604747e-04	N/A
0.00301958    	3.445565e-03	3.547840e-03	3.407209e-03	1.055574e-03	8.620340e-04	N/A
0.00303123    	3.582168e-03	3.521124e-03	3.355522e-03	1.060526e-03	8.634175e-04	N/A
0.00304289    	3.737070e-03	3.490059e-03	3.297945e-03	1.064236e-03	8.641285e-04	N/A
0.00305456    	3.913960e-03	3.459591e-03	3.243909e-03	1.069871e-03	8.665960e-04	N/A
0.00306625    	4.095089e-03	3.425376e-03	3.191916e-03	1.075446e-03	8.687802e-04	N/A
0.00307796    	4.276816e-03	3.394614e-03	3.140904e-03	1.080845e-03	8.712287e-04	N/A
0.0030897     	4.460515e-03	3.372238e-03	3.090485e-03	1.085920e-03	8.728307e-04	N/A
0.00310145    	4.638839e-03	3.355031e-03	3.037310e-03	1.091069e-03	8.740622e-04	N/A
0.00311322    	4.809339e-03	3.349907e-03	2.981962e-03	1.096882e-03	8.747652e-04	N/A
0.00312499    	4.964747e-03	3.345736e-03	2.923316e-03	1.101152e-03	8.741495e-04	N/A
0.00313679    	5.117825e-03	3.365894e-03	2.870004e-03	1.106753e-03	8.743474e-04	N/A
0.0031486     	5.259639e-03	3.411101e-03	2.824933e-03	1.112304e-03	8.744157e-04	N/A
0.00316043    	5.391104e-03	3.459500e-03	2.790620e-03	1.117984e-03	8.755355e-04	N/A
0.00317226    	5.502020e-03	3.514049e-03	2.756081e-03	1.121655e-03	8.753246e-04	N/A
0.00318412    	5.609499e-03	3.599570e-03	2.726680e-03	1.127383e-03	8.756931e-04	N/A
0.00319597    	5.694620e-03	3.693202e-03	2.695044e-03	1.131873e-03	8.742484e-04	N/A
0.00320785    	5.777801e-03	3.785256e-03	2.668339e-03	1.137685e-03	8.739617e-04	N/A
0.00321972    	5.840078e-03	3.850212e-03	2.638687e-03	1.141648e-03	8.717689e-04	N/A
0.00323162    	5.901706e-03	3.903830e-03	2.615765e-03	1.147862e-03	8.712219e-04	N/A
0.00324351    	5.942341e-03	3.938368e-03	2.594056e-03	1.152620e-03	8.692045e-04	N/A
0.00325543    	5.984668e-03	3.962189e-03	2.575871e-03	1.159296e-03	8.684403e-04	N/A
0.00326734    	6.007866e-03	3.969172e-03	2.552615e-03	1.165164e-03	8.665908e-04	N/A
0.00327926    	6.023112e-03	3.965418e-03	2.530594e-03	1.171141e-03	8.650297e-04	N/A
0.00329118    	6.029333e-03	3.939455e-03	2.507653e-03	1.176686e-03	8.636243e-04	N/A
0.00330311    	6.035260e-03	3.892795e-03	2.489166e-03	1.183562e-03	8.637076e-04	N/A
0.00331505    	6.022112e-03	3.829040e-03	2.469524e-03	1.189108e-03	8.627258e-04	N/A
0.00332699    	5.994953e-03	3.752529e-03	2.449481e-03	1.194716e-03	8.616534e-04	N/A
0.00333893    	5.959788e-03	3.670511e-03	2.426598e-03	1.200378e-03	8.610811e-04	N/A
0.00335086    	5.913048e-03	3.592149e-03	2.399745e-03	1.206323e-03	8.613377e-04	N/A
0.0033628     	5.856780e-03	3.520272e-03	2.370541e-03	1.211945e-03	8.595171e-04	N/A
0.00337474    	5.788983e-03	3.445115e-03	2.342488e-03	1.217477e-03	8.591789e-04	N/A
0.00338668    	5.712952e-03	3.374697e-03	2.314049e-03	1.223064e-03	8.592968e-04	N/A
0.00339861    	5.627065e-03	3.314600e-03	2.283957e-03	1.228339e-03	8.602652e-04	N/A
0.00341055    	5.533502e-03	3.259912e-03	2.252789e-03	1.233510e-03	8.614061e-04	N/A
0.00342249    	5.434450e-03	3.212635e-03	2.217921e-03	1.238178e-03	8.622208e-04	N/A
0.00343443    	5.327265e-03	3.184579e-03	2.179113e-03	1.242778e-03	8.635309e-04	N/A
0.00344636    	5.212372e-03	3.167555e-03	2.140221e-03	1.246974e-03	8.645321e-04	N/A
0.0034583     	5.094942e-03	3.167936e-03	2.102788e-03	1.251287e-03	8.651806e-04	N/A
0.00347024    	4.978571e-03	3.171772e-03	2.065151e-03	1.255549e-03	8.658472e-04	N/A
0.00348217    	4.862161e-03	3.172027e-03	2.028513e-03	1.259412e-03	8.668404e-04	N/A
0.00349409    	4.732825e-03	3.192023e-03	1.988274e-03	1.261181e-03	8.661231e-04	N/A
0.00350601    	4.611833e-03	3.231544e-03	1.948765e-03	1.264109e-03	8.671311e-04	N/A
0.00351792    	4.490287e-03	3.283266e-03	1.912749e-03	1.267061e-03	8.678097e-04	N/A
0.00352984    	4.374323e-03	3.330868e-03	1.879766e-03	1.270017e-03	8.679736e-04	N/A
0.00354175    	4.261071e-03	3.366767e-03	1.846596e-03	1.272540e-03	8.679856e-04	N/A
0.00355365    	4.144357e-03	3.384066e-03	1.811830e-03	1.273119e-03	8.661770e-04	N/A
0.00356554    	4.044308e-03	3.394291e-03	1.781209e-03	1.275537e-03	8.653536e-04	N/A
0.00357743    	3.952180e-03	3.394397e-03	1.748178e-03	1.277189e-03	8.647158e-04	N/A
0.00358933    	3.862667e-03	3.386871e-03	1.718916e-03	1.278424e-03	8.643121e-04	N/A
0.00360122    	3.773980e-03	3.375471e-03	1.692854e-03	1.279713e-03	8.632853e-04	N/A
0.00361309    	3.679046e-03	3.347982e-03	1.664102e-03	1.278896e-03	8.606112e-04	N/A
0.00362496    	3.601191e-03	3.309545e-03	1.637701e-03	1.279458e-03	8.586853e-04	N/A
0.00363684    	3.528973e-03	3.255079e-03	1.613630e-03	1.280303e-03	8.567139e-04	N/A
0.00364869    	3.455749e-03	3.182173e-03	1.590700e-03	1.278862e-03	8.531379e-04	N/A
0.00366053    	3.389882e-03	3.102622e-03	1.574763e-03	1.279037e-03	8.508483e-04	N/A
0.00367238    	3.325685e-03	3.016219e-03	1.564933e-03	1.278380e-03	8.479681e-04	N/A
0.00368423    	3.267259e-03	2.934042e-03	1.558793e-03	1.277309e-03	8.447609e-04	N/A
0.00369606    	3.202782e-03	2.850344e-03	1.552919e-03	1.274294e-03	8.400994e-04	N/A
0.00370789    	3.141301e-03	2.775992e-03	1.554412e-03	1.273497e-03	8.366483e-04	N/A
0.00371972    	3.079219e-03	2.724579e-03	1.560102e-03	1.272288e-03	8.327573e-04	N/A
0.00373152    	3.011402e-03	2.677627e-03	1.567535e-03	1.268745e-03	8.269034e-04	N/A
0.00374333    	2.960123e-03	2.638284e-03	1.578399e-03	1.266737e-03	8.223803e-04	N/A
0.00375513    	2.913870e-03	2.604720e-03	1.589335e-03	1.264079e-03	8.176486e-04	N/A
0.00376691    	2.863651e-03	2.578333e-03	1.600376e-03	1.259021e-03	8.113722e-04	N/A
0.0037787     	2.823440e-03	2.576901e-03	1.615711e-03	1.255830e-03	8.061001e-04	N/A
0.00379048    	2.794625e-03	2.572223e-03	1.630131e-03	1.252340e-03	8.006882e-04	N/A
0.00380224    	2.767221e-03	2.555338e-03	1.642164e-03	1.246964e-03	7.935328e-04	N/A
0.003814      	2.750428e-03	2.542864e-03	1.658198e-03	1.243147e-03	7.868542e-04	N/A
0.00382576    	2.735833e-03	2.544614e-03	1.674603e-03	1.238811e-03	7.801292e-04	N/A
0.00383752    	2.723392e-03	2.560520e-03	1.690271e-03	1.234031e-03	7.740131e-04	N/A
0.00384926    	2.706796e-03	2.569791e-03	1.702033e-03	1.227140e-03	7.666554e-04	N/A
0.003861      	2.693762e-03	2.576468e-03	1.714104e-03	1.221822e-03	7.603435e-04	N/A
0.00387273    	2.678727e-03	2.576341e-03	1.724212e-03	1.216069e-03	7.537860e-04	N/A
0.00388445    	2.656011e-03	2.562335e-03	1.730205e-03	1.208120e-03	7.460226e-04	N/A
0.00389617    	2.634089e-03	2.555708e-03	1.738620e-03	1.201968e-03	7.400483e-04	N/A
0.00390788    	2.610650e-03	2.543398e-03	1.746040e-03	1.195856e-03	7.345248e-04	N/A
0.00391957    	2.578267e-03	2.520344e-03	1.749140e-03	1.187739e-03	7.277182e-04	N/A
0.00393127    	2.547419e-03	2.495817e-03	1.752486e-03	1.181028e-03	7.222858e-04	N/A
0.00394296    	2.512890e-03	2.465280e-03	1.753111e-03	1.173897e-03	7.170468e-04	N/A
0.00395465    	2.474332e-03	2.434158e-03	1.751179e-03	1.166305e-03	7.117982e-04	N/A
0.00396632    	2.427311e-03	2.411674e-03	1.744364e-03	1.156744e-03	7.059385e-04	N/A
0.003978      	2.381618e-03	2.390148e-03	1.738520e-03	1.148667e-03	7.014644e-04	N/A
0.00398967    	2.332510e-03	2.369221e-03	1.731716e-03	1.140803e-03	6.972846e-04	N/A
0.00400131    	2.276238e-03	2.348197e-03	1.723257e-03	1.131365e-03	6.923746e-04	N/A
0.00401296    	2.226805e-03	2.333056e-03	1.716468e-03	1.123354e-03	6.884171e-04	N/A
0.00402459    	2.177047e-03	2.315556e-03	1.706103e-03	1.113257e-03	6.834267e-04	N/A
0.00403621    	2.135098e-03	2.307361e-03	1.696656e-03	1.104799e-03	6.799785e-04	N/A
0.00404784    	2.103047e-03	2.308226e-03	1.685694e-03	1.096411e-03	6.767932e-04	N/A
0.00405944    	2.068715e-03	2.306527e-03	1.670855e-03	1.086617e-03	6.726225e-04	N/A
0.00407104    	2.037791e-03	2.307611e-03	1.658172e-03	1.078797e-03	6.699476e-04	N/A
0.00408265    	2.006432e-03	2.309801e-03	1.646190e-03	1.071411e-03	6.673882e-04	N/A
0.00409423    	1.970594e-03	2.307884e-03	1.631429e-03	1.062586e-03	6.639679e-04	N/A
0.00410581    	1.938528e-03	2.313848e-03	1.618222e-03	1.055668e-03	6.622536e-04	N/A
0.00411736    	1.902800e-03	2.314546e-03	1.601425e-03	1.047533e-03	6.593563e-04	N/A
0.00412892    	1.872538e-03	2.310942e-03	1.586080e-03	1.041175e-03	6.577409e-04	N/A
0.00414048    	1.844997e-03	2.306029e-03	1.569470e-03	1.034998e-03	6.563332e-04	N/A
0.00415201    	1.820292e-03	2.304870e-03	1.548969e-03	1.027474e-03	6.538921e-04	N/A
0.00416355    	1.802999e-03	2.310275e-03	1.529969e-03	1.021910e-03	6.527531e-04	N/A
0.00417508    	1.786223e-03	2.314581e-03	1.510695e-03	1.016395e-03	6.515024e-04	N/A
0.00418659    	1.765286e-03	2.307940e-03	1.489290e-03	1.009938e-03	6.493676e-04	N/A
0.0041981     	1.746657e-03	2.296127e-03	1.469865e-03	1.005458e-03	6.489102e-04	N/A
0.00420959    	1.723552e-03	2.272419e-03	1.449974e-03	9.997716e-04	6.473630e-04	N/A
0.00422108    	1.704599e-03	2.243109e-03	1.435545e-03	9.957905e-04	6.469417e-04	N/A
0.00423257    	1.685469e-03	2.206774e-03	1.423940e-03	9.922946e-04	6.464733e-04	N/A
0.00424404    	1.661247e-03	2.160815e-03	1.412094e-03	9.873963e-04	6.450647e-04	N/A
0.0042555     	1.640498e-03	2.111841e-03	1.405405e-03	9.844879e-04	6.447662e-04	N/A
0.00426697    	1.617766e-03	2.056301e-03	1.402563e-03	9.818382e-04	6.446036e-04	N/A
0.00427841    	1.590527e-03	1.992105e-03	1.398908e-03	9.777035e-04	6.431454e-04	N/A
0.00428986    	1.565092e-03	1.924972e-03	1.397868e-03	9.753412e-04	6.425917e-04	N/A
0.00430128    	1.536742e-03	1.849918e-03	1.394768e-03	9.714748e-04	6.407862e-04	N/A
0.0043127     	1.516765e-03	1.774045e-03	1.393358e-03	9.691634e-04	6.400336e-04	N/A
0.00432412    	1.501664e-03	1.695107e-03	1.391274e-03	9.669121e-04	6.389154e-04	N/A
0.00433551    	1.487535e-03	1.612358e-03	1.386185e-03	9.631785e-04	6.365878e-04	N/A
0.00434691    	1.485107e-03	1.531855e-03	1.382430e-03	9.609816e-04	6.348287e-04	N/A
0.00435831    	1.487477e-03	1.451489e-03	1.377650e-03	9.587963e-04	6.331231e-04	N/A
0.00436968    	1.489767e-03	1.383461e-03	1.369718e-03	9.552120e-04	6.297807e-04	N/A
0.00438106    	1.496243e-03	1.334785e-03	1.362767e-03	9.532905e-04	6.276275e-04	N/A
0.00439243    	1.502216e-03	1.291748e-03	1.354968e-03	9.514680e-04	6.253142e-04	N/A
0.00440378    	1.504336e-03	1.251749e-03	1.343902e-03	9.479233e-04	6.225087e-04	N/A
0.00441513    	1.508277e-03	1.216599e-03	1.333713e-03	9.457342e-04	6.203970e-04	N/A
0.00442649    	1.511195e-03	1.189173e-03	1.322241e-03	9.434918e-04	6.179826e-04	N/A
0.00443781    	1.510768e-03	1.172929e-03	1.307671e-03	9.398270e-04	6.144034e-04	N/A
0.00444914    	1.513280e-03	1.159045e-03	1.294045e-03	9.377861e-04	6.118926e-04	N/A
0.00446047    	1.514557e-03	1.145504e-03	1.279236e-03	9.357739e-04	6.093190e-04	N/A
0.00447178    	1.511016e-03	1.132445e-03	1.261285e-03	9.323466e-04	6.058066e-04	N/A
0.00448308    	1.509226e-03	1.125329e-03	1.244532e-03	9.304832e-04	6.032914e-04	N/A
0.00449439    	1.506309e-03	1.125265e-03	1.226869e-03	9.285307e-04	6.008007e-04	N/A
0.00450567    	1.497997e-03	1.132805e-03	1.206393e-03	9.250468e-04	5.973933e-04	N/A
0.00451695    	1.491899e-03	1.144151e-03	1.187038e-03	9.229516e-04	5.952529e-04	N/A
0.00452823    	1.484201e-03	1.155836e-03	1.167068e-03	9.208398e-04	5.930736e-04	N/A
0.00453949    	1.473087e-03	1.164340e-03	1.144645e-03	9.174403e-04	5.900753e-04	N/A
0.00455075    	1.464984e-03	1.173043e-03	1.123540e-03	9.156136e-04	5.881459e-04	N/A
0.00456201    	1.456350e-03	1.178162e-03	1.102041e-03	9.138506e-04	5.861732e-04	N/A
0.00457324    	1.443750e-03	1.177952e-03	1.078427e-03	9.105447e-04	5.831834e-04	N/A
0.00458448    	1.434314e-03	1.174935e-03	1.056542e-03	9.089069e-04	5.808363e-04	N/A
0.00459571    	1.422437e-03	1.169205e-03	1.037121e-03	9.072640e-04	5.789247e-04	N/A
0.00460695    	1.411505e-03	1.160707e-03	1.022907e-03	9.054477e-04	5.774918e-04	N/A
0.00461816    	1.395037e-03	1.150451e-03	1.014362e-03	9.022738e-04	5.748636e-04	N/A
0.00462937    	1.381245e-03	1.142363e-03	1.013055e-03	9.006428e-04	5.735357e-04	N/A
0.00464059    	1.364937e-03	1.138984e-03	1.013015e-03	8.989435e-04	5.719192e-04	N/A
0.0046518     	1.346816e-03	1.141889e-03	1.013475e-03	8.973110e-04	5.706536e-04	N/A
0.00466301    	1.326161e-03	1.149691e-03	1.013828e-03	8.958146e-04	5.692610e-04	N/A
0.0046742     	1.304647e-03	1.162122e-03	1.012916e-03	8.929572e-04	5.673989e-04	N/A
0.00468539    	1.286891e-03	1.173284e-03	1.014396e-03	8.915646e-04	5.663511e-04	N/A
0.00469658    	1.268301e-03	1.182241e-03	1.016018e-03	8.901738e-04	5.657985e-04	N/A
0.00470777    	1.251349e-03	1.190094e-03	1.018580e-03	8.888851e-04	5.651053e-04	N/A