/*--------------------------------*- C++ -*----------------------------------*\
  =========                 |
  \\      /  F ield         | OpenFOAM: The Open Source CFD Toolbox
   \\    /   O peration     | Website:  https://openfoam.org
    \\  /    A nd           | Version:  8
     \\/     M anipulation  |
\*---------------------------------------------------------------------------*/
FoamFile
{
    version     2.0;
    format      ascii;
    class       volScalarField;
    location    "0.48";
    object      p;
}
// * * * * * * * * * * * * * * * * * * * * * * * * * * * * * * * * * * * * * //

dimensions      [0 2 -2 0 0 0 0];

internalField   nonuniform List<scalar> 
15677
(
80.9723
80.5662
80.2328
80.7205
80.2314
80.1726
80.6404
80.2504
80.1823
80.1139
80.6208
80.2506
80.1827
80.1226
80.0256
80.6026
80.2537
80.1832
80.1219
80.0332
79.9352
80.5797
80.2565
80.1833
80.1223
80.0332
79.9419
79.8346
80.5549
80.2582
80.1831
80.1225
80.0339
79.9419
79.8404
79.7134
80.5291
80.2592
80.1823
80.1221
80.0345
79.9426
79.8406
79.7184
79.5649
80.5021
80.2598
80.1812
80.1214
80.0349
79.9433
79.8413
79.7186
79.5692
79.3827
80.474
80.26
80.1796
80.1204
80.0351
79.9438
79.842
79.7195
79.5696
79.3864
79.1594
80.4449
80.2597
80.1779
80.1194
80.0355
79.9444
79.8427
79.7203
79.5706
79.3869
79.1623
78.8871
80.4146
80.2584
80.1761
80.1184
80.036
79.9451
79.8435
79.7213
79.5717
79.3881
79.163
78.8893
78.5578
80.3833
80.2562
80.1745
80.1176
80.0368
79.9462
79.8447
79.7225
79.573
79.3894
79.1644
78.8901
78.5592
78.1637
80.3545
80.2531
80.1732
80.1169
80.0381
79.9479
79.8464
79.7243
79.5748
79.3912
79.1662
78.8918
78.56
78.164
77.697
80.3295
80.2494
80.1723
80.1166
80.0403
79.9506
79.8491
79.727
79.5774
79.3937
79.1686
78.8941
78.5622
78.1653
77.6965
77.151
80.3079
80.2456
80.172
80.1168
80.0434
79.9546
79.8533
79.7311
79.5813
79.3973
79.172
78.8972
78.565
78.1677
77.6979
77.1494
76.5195
80.2896
80.2415
80.1722
80.1176
80.0477
79.9604
79.8594
79.7373
79.5872
79.4028
79.1769
78.9016
78.5691
78.1712
77.7007
77.151
76.5165
75.7973
80.2741
80.2367
80.1725
80.119
80.0529
79.9684
79.8681
79.7463
79.5959
79.4109
79.1842
78.9082
78.5749
78.1764
77.7051
77.1543
76.5184
75.793
74.9808
80.2608
80.2316
80.1728
80.1209
80.0586
79.9782
79.8802
79.759
79.6085
79.4228
79.1951
78.9179
78.5834
78.1837
77.7115
77.1596
76.5222
75.7951
74.975
74.0678
80.2495
80.2264
80.173
80.1233
80.0649
79.9888
79.895
79.7765
79.6263
79.44
79.2111
78.9322
78.5959
78.1945
77.7206
77.1673
76.5284
75.7994
74.9773
74.0605
73.0579
80.2402
80.2215
80.1733
80.1262
80.0717
80.0003
79.911
79.7978
79.6508
79.4643
79.2341
78.9531
78.6143
78.2104
77.734
77.1785
76.5377
75.8067
74.9822
74.0629
73.0488
71.9525
80.2328
80.2171
80.1736
80.1295
80.079
80.0126
79.9286
79.821
79.6806
79.4975
79.2663
78.9831
78.6412
78.2336
77.7537
77.1948
76.5511
75.8175
74.9904
74.0683
73.0515
71.9417
70.7553
80.2269
80.2133
80.1739
80.1331
80.0867
80.0256
79.9474
79.8463
79.713
79.538
79.3105
79.0251
78.6796
78.2674
77.7825
77.2187
76.5705
75.8332
75.0028
74.0775
73.0573
71.9444
70.7425
69.4719
80.2221
80.2102
80.1742
80.1367
80.0947
80.0392
79.9673
79.8735
79.7485
79.5822
79.3644
79.0828
78.7333
78.3157
77.8243
77.2537
76.5991
75.856
75.0209
74.0915
73.0674
71.9505
70.7452
69.4571
68.1146
80.2182
80.2077
80.1745
80.1402
80.1027
80.0531
79.988
79.9022
79.7865
79.6305
79.4232
79.1531
78.8072
78.3834
77.8839
77.3045
76.6408
75.8894
75.047
74.1117
73.0828
71.9614
70.7515
69.4595
68.0962
66.7118
80.215
80.2055
80.1748
80.1433
80.11
80.0667
80.0094
79.9323
79.8268
79.6825
79.4877
79.23
78.8974
78.4763
77.9676
77.377
76.7015
75.9384
75.0855
74.1412
73.1051
71.9779
70.7627
69.4654
68.0962
66.6525
65.2077
80.2123
80.2037
80.1749
80.1462
80.1166
80.0792
80.0303
79.9633
79.869
79.7375
79.5571
79.3144
78.9961
78.59
78.0827
77.4788
76.7881
76.0095
75.1419
74.1846
73.1376
72.0019
70.78
69.4765
68.1005
66.6583
65.1393
63.5871
80.21
80.2021
80.1749
80.149
80.1225
80.0903
80.0494
79.9936
79.9125
79.7951
79.6307
79.4053
79.1046
78.7146
78.2236
77.6189
76.9099
76.1114
75.2239
74.2483
73.1855
72.037
70.8051
69.4937
68.1098
66.6596
65.1446
63.5618
61.9183
80.2081
80.2008
80.1749
80.1515
80.1278
80.1003
80.0666
80.0213
79.955
79.8546
79.7077
79.5018
79.2216
78.8518
78.3785
77.7909
77.078
76.2548
75.3417
74.3415
73.2564
72.089
70.8419
69.5189
68.1253
66.6656
65.1384
63.5512
61.9098
60.2155
80.2064
80.1996
80.1749
80.1537
80.1324
80.1092
80.0819
80.0463
79.9939
79.9129
79.7874
79.603
79.3461
79
78.5492
77.9803
77.2847
76.4532
75.5081
74.4756
73.3603
72.1662
70.897
69.5564
68.149
66.6782
65.1423
63.5413
61.8933
60.2107
58.2987
80.205
80.1986
80.175
80.1557
80.1366
80.1171
80.0956
80.0686
80.029
79.9663
79.8656
79.7079
79.4768
79.158
78.734
78.1895
77.5128
76.6979
75.7388
74.6655
73.5105
72.2801
70.9794
69.6131
68.1853
66.6992
65.1533
63.5459
61.884
60.1921
58.297
56.1504
80.2038
80.1978
80.1751
80.1573
80.1402
80.124
80.1077
80.0884
80.0604
80.0144
79.9373
79.8108
79.6124
79.3241
78.9313
78.4166
77.7654
76.9687
76.0243
74.9298
73.724
72.4455
71.102
69.6992
68.2419
66.7331
65.1722
63.5566
61.8896
60.184
58.2797
56.1507
53.9997
80.2027
80.197
80.1752
80.1588
80.1435
80.1302
80.1184
80.1061
80.0884
80.0575
80.002
79.9054
79.7457
79.4968
79.1393
78.6595
78.0403
77.2694
76.3411
75.258
74.0223
72.6819
71.2813
69.8286
68.3298
66.7882
65.2038
63.5743
61.9003
60.1891
58.2717
56.1349
54.0013
51.8719
80.2018
80.1963
80.1753
80.16
80.1463
80.1356
80.1279
80.1217
80.1132
80.096
80.06
79.9908
79.8684
79.6668
79.3559
78.916
78.335
77.5975
76.694
75.6234
74.3942
73.0136
71.5389
70.0198
68.464
66.8761
65.2569
63.6043
61.9175
60.1993
58.2742
56.1267
53.9872
51.8736
49.7869
80.1958
80.2007
80.1754
80.1611
80.1488
80.1404
80.1363
80.1355
80.1352
80.1301
80.1118
80.0675
79.9794
79.8235
79.5696
79.184
78.6472
77.9502
77.0801
76.0318
74.8099
73.4294
71.9027
70.2966
68.6645
67.0129
65.3438
63.6555
61.9461
60.2155
58.2824
56.1265
53.9785
51.8605
49.7883
47.7576
80.1755
80.1951
80.1994
80.1621
80.151
80.1446
80.1436
80.1477
80.1547
80.1605
80.1578
80.136
80.0791
79.9655
79.767
79.4489
78.9741
78.3249
77.4967
76.4803
75.2763
73.8959
72.361
70.6899
68.9575
67.2202
65.4816
63.7407
61.9951
60.242
58.296
56.1317
53.9754
51.8509
49.7758
47.7586
45.7934
80.1629
80.1758
80.1943
80.1982
80.1529
80.1484
80.1502
80.1585
80.172
80.1873
80.1987
80.197
80.1683
80.0933
79.9462
79.6942
79.2982
78.7185
77.9406
76.9659
75.7904
74.4214
72.8776
71.1882
69.3769
67.5261
65.6931
63.8779
62.0777
60.2877
58.3186
56.1409
53.977
51.8446
49.7649
47.7464
45.7938
43.9021
80.1546
80.164
80.1761
80.1935
80.1969
80.1516
80.1559
80.168
80.1872
80.2111
80.235
80.2512
80.2479
80.2078
80.1077
79.9173
79.599
79.11
78.4085
77.4851
76.349
75.0031
73.4621
71.7528
69.9117
67.9673
66.0082
64.091
62.2125
60.366
58.3588
56.157
53.9807
51.8417
49.7551
47.7339
45.7818
43.9017
42.0896
80.1544
80.1569
80.1653
80.1764
80.1927
80.1957
80.161
80.1765
80.2007
80.2321
80.2671
80.2993
80.3186
80.31
80.2526
80.1188
79.8733
79.4744
78.8755
78.0344
76.9487
75.6377
74.1119
72.3947
70.5209
68.534
66.4666
64.4116
62.4241
60.4958
58.43
56.1884
53.9888
51.8388
49.747
47.7204
45.7675
43.8896
42.0885
40.3601
80.1653
80.1582
80.1594
80.1665
80.1767
80.192
80.1944
80.1839
80.2127
80.2508
80.2956
80.342
80.3814
80.401
80.3822
80.2999
80.1216
79.8075
79.3117
78.5849
77.5859
76.322
74.824
73.1115
71.2169
69.183
67.0593
64.8816
62.7458
60.7027
58.5513
56.2482
54.0092
51.8376
49.7367
47.7067
45.7502
43.8735
42.0762
40.3583
38.7158
80.1903
80.1709
80.1621
80.1618
80.1677
80.177
80.1912
80.1932
80.2232
80.2673
80.3208
80.3797
80.4372
80.4819
80.4976
80.462
80.3451
80.1098
79.7116
79.1008
78.2271
77.0522
75.5952
73.9006
71.9977
69.928
67.7419
65.4936
63.2213
61.0205
58.7486
56.3557
54.0547
51.8452
49.7249
47.6881
45.7304
43.8523
42.0581
40.3458
38.7133
37.1577
80.2322
80.1983
80.1766
80.1659
80.1641
80.1689
80.1772
80.1904
80.1921
80.2818
80.3431
80.4132
80.4866
80.5537
80.6004
80.6067
80.5456
80.3826
80.0755
79.5754
78.8305
77.7905
76.4223
74.7596
72.8617
70.7682
68.5296
66.2024
63.8449
61.495
59.0569
56.5366
54.1441
51.8738
49.718
47.6648
45.7032
43.8265
42.0331
40.3257
38.7006
37.1546
35.6854
80.2942
80.2433
80.2061
80.1821
80.1696
80.1664
80.1699
80.1774
80.1896
80.1909
80.3629
80.443
80.5304
80.6174
80.6917
80.7356
80.7248
80.6277
80.4046
80.0087
79.3876
78.4882
77.2627
75.6855
73.807
71.7027
69.4224
67.0246
64.5712
62.1215
59.5223
56.8265
54.3033
51.9418
49.7276
47.6422
45.6678
43.7903
42.0012
40.2968
38.6785
37.1415
35.6817
34.2975
80.3796
80.3094
80.2539
80.2138
80.1875
80.1732
80.1685
80.171
80.1775
80.1888
80.1898
80.4693
80.5693
80.6739
80.7727
80.8502
80.8847
80.8473
80.7011
80.4016
79.8978
79.1351
78.0606
76.6312
74.8315
72.7308
70.4211
67.9617
65.4185
62.8558
60.1425
57.2708
54.5669
52.0744
49.7714
47.6312
45.6286
43.7425
41.9561
40.259
38.646
37.1176
35.6683
34.2933
32.9921
80.4915
80.3999
80.3233
80.2641
80.2212
80.1927
80.1766
80.1706
80.1719
80.1776
80.188
80.1887
80.6038
80.7242
80.8448
80.9522
81.0272
81.0434
80.9671
80.7564
80.362
79.7296
78.8036
77.5339
75.884
73.8514
71.526
69.016
66.3898
63.7174
60.8746
57.8699
54.9789
52.3048
49.8735
47.6486
45.5959
43.6863
41.8957
40.205
38.6023
37.0815
35.6425
34.2797
32.9874
31.7665
80.6328
80.5183
80.4181
80.3369
80.2741
80.2283
80.1976
80.1798
80.1724
80.1727
80.1776
80.1872
80.1876
80.7687
80.9089
81.0428
81.1539
81.2184
81.2053
81.0755
80.7823
80.2724
79.4892
78.3782
76.8938
75.0095
72.7374
70.1892
67.4889
64.7113
61.7399
58.5838
55.5423
52.6743
50.0645
47.717
45.5856
43.6315
41.8225
40.1321
38.5397
37.0321
35.6031
34.252
32.9735
31.7613
30.6177
80.8061
80.6679
80.5417
80.4357
80.35
80.2836
80.2349
80.2021
80.1828
80.1741
80.1734
80.1776
80.1863
80.1866
80.9656
81.1237
81.2668
81.3743
81.4181
81.3617
81.1613
80.7653
80.1174
79.1606
77.8431
76.127
73.9974
71.4837
68.7196
65.8426
62.7446
59.4346
56.2213
53.189
50.3829
47.8638
45.6178
43.5925
41.7454
40.0421
38.4545
36.9611
35.5483
34.2095
32.9441
31.7472
30.6121
29.5422
81.0132
80.8515
80.6977
80.5643
80.4526
80.3624
80.2924
80.2412
80.2064
80.1855
80.1757
80.1741
80.1776
80.1854
80.1856
81.195
81.3674
81.5134
81.6079
81.618
81.502
81.2109
80.6897
79.8803
78.7268
77.1829
75.2205
72.8389
70.0865
67.1176
63.8962
60.4302
57.0378
53.8175
50.8373
48.1237
45.7166
43.5869
41.6774
39.943
38.3481
36.8642
35.4692
34.1496
32.8987
31.7163
30.5978
29.5363
28.5367
81.255
81.0712
80.8891
80.7264
80.5861
80.4686
80.3739
80.3006
80.2469
80.2103
80.188
80.177
80.1746
80.1775
80.1846
80.1848
81.4563
81.6375
81.7775
81.847
81.8075
81.6125
81.2087
80.5382
79.543
78.1706
76.3825
74.1626
71.5275
68.5433
65.2036
61.5807
58.0013
54.5805
51.4011
48.508
45.9124
43.6351
41.633
39.8461
38.2275
36.7419
35.361
34.0628
32.8339
31.6681
30.5653
29.5217
28.5304
27.5975
81.5309
81.3285
81.1185
80.9254
80.754
80.6064
80.4833
80.3844
80.3081
80.2521
80.2137
80.1902
80.1782
80.175
80.1773
80.1838
80.1839
81.747
81.929
82.0518
82.0812
81.9736
81.6777
81.1369
80.292
79.0868
77.4749
75.4277
72.9443
70.0571
66.6768
62.8979
59.1241
55.4888
52.0928
48.9943
46.2184
43.7628
41.6292
39.7627
38.1021
36.6006
35.2236
33.9438
32.7399
31.5987
30.5146
29.4878
28.5156
27.5908
26.721
81.8387
81.6235
81.3876
81.164
80.9602
80.7797
80.6251
80.4968
80.394
80.3148
80.2567
80.2168
80.192
80.1791
80.1752
80.1771
80.183
80.1832
82.0626
82.2351
82.3264
82.2976
82.1003
81.6794
80.9757
79.9309
78.4929
76.6233
74.3066
71.5557
68.2542
64.396
60.4212
56.5565
52.9235
49.598
46.6162
43.984
41.6862
39.7062
37.9802
36.4475
35.0624
33.7921
32.6108
31.4979
30.4409
29.4348
28.4804
27.5759
26.7139
25.9036
82.1744
81.9545
81.6969
81.4445
81.2077
80.9925
80.8032
80.6419
80.5088
80.4025
80.3207
80.2607
80.2194
80.1935
80.1798
80.1754
80.1769
80.1822
80.1825
82.3965
82.546
82.5885
82.4805
82.1694
81.5973
80.7043
79.4346
77.7427
75.6009
73.0055
69.8286
66.0165
61.9102
57.8001
53.9071
50.3288
47.1165
44.284
41.8177
39.6912
37.8712
36.2878
34.8825
33.612
32.4455
31.3593
30.3338
29.3572
28.4253
27.5394
26.6987
25.8957
25.1429
82.5313
82.3182
82.0455
81.7678
81.499
81.248
81.0217
80.8242
80.6569
80.5194
80.4098
80.3257
80.264
80.2215
80.1947
80.1803
80.1754
80.1766
80.1815
80.1818
82.7391
82.8494
82.8226
82.6114
82.1603
81.4095
80.3007
78.7826
76.8187
74.3911
71.3637
67.6494
63.5347
59.2374
55.0594
51.1985
47.7263
44.6677
42.0128
39.73
37.7839
36.1273
34.6864
33.4066
32.2477
31.1815
30.1863
29.2441
28.344
27.4825
26.6612
25.8803
25.132
24.5152
82.9003
82.709
82.4306
82.1336
81.8356
81.5491
81.2843
81.0478
80.8427
80.6699
80.5284
80.416
80.3298
80.2666
80.223
80.1955
80.1805
80.1753
80.1763
80.1808
80.1812
83.0782
83.1297
83.0101
82.6694
82.0502
81.0931
79.7426
77.9551
75.7016
72.8408
69.253
65.182
60.8147
56.3967
52.2208
48.4542
45.1383
42.2695
39.8153
37.7286
35.9684
34.4758
33.1754
32.0179
30.9668
29.9967
29.0884
28.2255
27.3978
26.6026
25.842
25.1174
24.5105
23.9872
83.269
83.1187
82.8476
82.5399
82.2177
81.8977
81.5941
81.3165
81.0705
80.8586
80.6808
80.5357
80.4208
80.3329
80.2684
80.2241
80.196
80.1806
80.1751
80.176
80.1801
80.1806
83.3984
83.3686
83.13
82.6311
81.8152
80.624
79.0083
76.9303
74.2452
70.8026
66.8057
62.4225
57.8742
53.4135
49.3132
45.7018
42.5872
39.9378
37.7014
35.8189
34.2467
32.9166
31.7533
30.7141
29.7664
28.888
28.0621
27.2742
26.5148
25.7821
25.0785
24.5002
23.9903
23.4325
83.6222
83.5361
83.2891
82.9829
82.6442
82.2946
81.9532
81.6336
81.3443
81.0897
80.8716
80.6895
80.5413
80.4242
80.3349
80.2696
80.2247
80.1963
80.1806
80.1748
80.1756
80.1794
80.18
83.6811
83.5446
83.1583
82.4718
81.4296
79.9787
78.0736
75.5666
72.2793
68.3805
64.02
59.3993
54.7506
50.3272
46.3728
42.9703
40.094
37.6864
35.6791
34.0047
32.6194
31.4484
30.4179
29.4921
28.643
27.8516
27.1039
26.3867
25.6915
25.0176
24.4609
23.9815
23.4328
22.8363
83.9409
83.9472
83.7453
83.4563
83.1118
82.7392
82.3631
82.0019
81.6676
81.3676
81.1053
80.8818
80.6958
80.545
80.4263
80.336
80.2701
80.2249
80.1963
80.1803
80.1745
80.1752
80.1788
80.1794
83.9045
83.6335
83.0695
82.1643
80.8684
79.1303
76.7986
73.6716
69.8905
65.5907
60.9456
56.1653
51.4943
47.1827
43.4359
40.2869
37.6771
35.5262
33.7539
32.2876
31.0858
30.0692
29.1661
28.3485
27.5929
26.884
26.2098
25.5591
24.9244
24.3996
23.9426
23.4213
22.8318
22.1867
84.2029
84.3346
84.2032
83.9515
83.6156
83.2292
82.8237
82.423
82.0434
81.6957
81.3861
81.117
80.8888
80.6997
80.547
80.4272
80.3363
80.2702
80.2247
80.1961
80.18
80.1741
80.1748
80.1781
80.1788
84.0437
83.609
82.8355
81.6823
80.1014
77.9388
74.9738
71.3278
67.1244
62.5051
57.6453
52.775
48.1538
44.0218
40.5352
37.6747
35.3511
33.4654
31.9291
30.6679
29.6443
28.7761
27.9946
27.2796
26.6126
25.9813
25.3763
24.7882
24.3044
23.8807
23.382
22.8166
22.1797
21.4801
84.3827
84.6776
84.6467
84.457
84.1479
83.7605
83.3335
82.8974
82.4738
82.0775
81.7178
81.3997
81.1248
80.8926
80.7012
80.5473
80.4269
80.3359
80.2697
80.2243
80.1956
80.1795
80.1737
80.1743
80.1773
80.1782
84.0714
83.4421
82.4284
80.9921
78.9878
76.1842
72.6879
68.6128
64.0664
59.1842
54.1666
49.2722
44.7707
40.8804
37.6982
35.1526
33.1273
31.5094
30.2063
29.1446
28.2923
27.5657
26.8996
26.2817
25.6982
25.1399
24.5998
24.165
23.7837
23.3192
22.7762
22.1628
21.4722
20.7146
84.4515
84.9525
85.0565
84.9581
84.6988
84.3267
83.8893
83.4243
82.9598
82.5153
82.1039
81.7335
81.4081
81.1283
80.8935
80.7007
80.5463
80.4258
80.3348
80.2688
80.2236
80.195
80.179
80.1731
80.1737
80.1766
80.1776
83.9571
83.1031
81.8115
79.952
77.3041
73.9679
70.0465
65.6138
60.7643
55.6607
50.542
45.693
41.3813
37.7896
34.948
32.735
31.0133
29.661
28.5852
27.7155
27.0265
26.4344
25.8775
25.351
24.8459
24.356
23.9722
23.6417
23.2201
22.7117
22.1211
21.4548
20.7061
19.8865
84.3773
85.1326
85.4101
85.4374
85.2551
84.919
84.4857
84.0014
83.5012
83.0105
82.5471
82.1223
81.7427
81.4113
81.1282
80.8917
80.6984
80.544
80.4238
80.3332
80.2675
80.2225
80.1943
80.1784
80.1725
80.173
80.1758
80.177
83.6686
82.5527
80.8416
78.3407
75.1659
71.4154
67.1288
62.3609
57.2342
51.9544
46.7994
42.071
38.0185
34.7761
32.3026
30.4325
29.0138
27.9211
27.0642
26.3777
25.8434
25.3784
24.9242
24.4835
24.052
23.7225
23.4453
23.0753
22.6102
22.0544
21.4121
20.6885
19.8777
18.991
84.124
85.1889
85.6816
85.8737
85.8009
85.526
85.1153
84.6243
84.0963
83.5635
83.0491
82.5688
82.1325
81.7453
81.4097
81.1248
80.8877
80.6946
80.5407
80.4211
80.331
80.2658
80.2214
80.1936
80.1778
80.1718
80.1724
80.1751
80.1764
83.1632
81.6446
79.3058
76.2871
72.7111
68.5929
63.9473
58.8562
53.4845
48.0843
42.968
38.4393
34.7125
31.8622
29.7759
28.2518
27.1308
26.2886
25.6405
25.1275
24.7392
24.3936
24.0358
23.6756
23.4104
23.1907
22.8749
22.4622
21.9503
21.3433
20.6448
19.8596
18.9818
18.0228
83.644
85.0897
85.8425
86.2431
86.317
86.1332
85.768
85.2868
84.7419
84.1733
83.6108
83.0753
82.5803
82.1344
81.7421
81.4041
81.1185
80.8818
80.6894
80.5365
80.4177
80.3283
80.264
80.2205
80.1931
80.1771
80.171
80.1716
80.1744
80.1759
82.2899
80.1803
77.3419
73.9343
69.9909
65.4978
60.4939
55.0987
49.5253
44.0734
39.0795
34.8311
31.4905
29.0658
27.3774
26.1967
25.364
24.761
24.3106
23.9613
23.7098
23.476
23.2085
23.0228
22.8717
22.615
22.2576
21.7988
21.2363
20.5739
19.8147
18.9632
18.0135
16.9769
84.7931
82.7847
85.8602
86.5183
86.781
86.7234
86.4311
85.9803
85.4328
84.8376
84.2319
83.6428
83.0886
82.5815
82.1289
81.7337
81.3949
81.1098
80.8742
80.6831
80.5313
80.4135
80.3254
80.2629
80.2201
80.1924
80.1761
80.1701
80.1708
80.1738
80.1754
80.866
78.3029
75.0935
71.3199
66.9914
62.1153
56.7602
51.0901
45.3724
39.9502
35.1688
31.279
28.3764
26.4008
25.1131
24.2679
23.7115
23.335
23.0706
22.8746
22.7509
22.6218
22.5401
22.4748
22.2888
21.992
21.5896
21.0811
20.4641
19.7418
18.9172
17.9944
16.9675
15.8481
85.6954
84.1563
81.3688
86.668
87.1678
87.2759
87.0891
86.6935
86.1616
85.5521
84.9107
84.2716
83.6589
83.0893
82.5736
82.1172
81.7209
81.3827
81.099
80.8651
80.6757
80.5252
80.4092
80.3239
80.2625
80.2193
80.1914
80.1751
80.1691
80.17
80.1733
80.175
79.0435
76.1529
72.5873
68.4213
63.6932
58.4317
52.7407
46.8379
41.0479
35.7487
31.2731
27.8138
25.3904
23.8769
22.9857
22.4641
22.1698
22.0064
21.916
21.863
21.8586
21.9318
21.9792
21.8817
21.6579
21.3179
20.8669
20.3047
19.629
18.8422
17.9473
16.948
15.8386
14.6311
86.655
85.2273
83.0332
79.5691
87.448
87.7675
87.7233
87.4128
86.9187
86.3107
85.6439
84.9607
84.2919
83.6595
83.0789
82.5581
82.1001
81.7044
81.3679
81.0865
80.8547
80.6669
80.5188
80.407
80.3238
80.2618
80.2182
80.1901
80.1739
80.1681
80.1693
80.1727
80.1745
76.959
73.7497
69.7944
65.2172
60.0799
54.436
48.4347
42.356
36.5816
31.5078
27.4299
24.4636
22.5482
21.5001
20.9951
20.7822
20.7349
20.7705
20.8421
20.9223
21.1383
21.3528
21.3723
21.2401
20.9753
20.5886
20.0852
19.4653
18.7262
17.8702
16.8999
15.8187
14.6216
13.3206
87.5869
86.3763
84.2905
81.5442
77.5185
88.1709
88.3123
88.1213
87.6922
87.1053
86.4266
85.7076
84.987
84.2931
83.6465
83.0589
82.5359
82.0785
81.6848
81.3511
81.0722
80.8425
80.6579
80.5159
80.4072
80.3231
80.2605
80.2166
80.1886
80.1728
80.1672
80.1684
80.1722
80.174
74.6258
71.0588
66.6928
61.6895
56.1365
50.1201
43.8463
37.6658
32.0101
27.27
23.676
21.2526
19.8615
19.2729
19.1391
19.2179
19.4014
19.6223
19.8444
20.1635
20.5341
20.7265
20.7158
20.5459
20.237
19.7999
19.2401
18.558
17.7509
16.8206
15.7695
14.6012
13.3112
11.9117
88.455
87.5025
85.6684
82.9959
79.7968
75.2271
88.8308
88.7995
88.4672
87.9256
87.252
86.5086
85.7427
84.9901
84.2777
83.6218
83.031
82.5082
82.0531
81.6627
81.332
81.0557
80.8301
80.654
80.5164
80.4066
80.3216
80.2586
80.2148
80.1873
80.1718
80.1662
80.1675
80.1716
80.1736
72.0036
68.0586
63.2645
57.8215
51.8495
45.4789
38.986
32.7967
27.3766
23.0796
20.0454
18.2002
17.3373
17.195
17.4138
17.7659
18.1641
18.5567
19.0405
19.5276
19.8808
20.0492
20.0056
19.7951
19.4386
18.9472
18.3268
17.5778
16.6978
15.6881
14.551
13.2901
11.9024
10.3995
89.2517
88.5601
87.0332
84.6135
81.449
77.8172
72.6481
89.4246
89.2261
88.7586
88.1113
87.3579
86.5558
85.7494
84.9729
84.2482
83.5874
82.9963
82.476
82.0246
81.6379
81.3103
81.039
80.8249
80.655
80.516
80.4048
80.3192
80.2563
80.2133
80.1863
80.1706
80.1651
80.1665
80.1711
80.1731
69.0707
64.7328
59.4929
53.5965
47.2059
40.5105
33.8711
27.7868
22.7299
18.981
16.568
15.3208
14.9789
15.2638
15.8139
16.4203
17.0173
17.6992
18.3672
18.8402
19.1746
19.3168
19.2378
18.9834
18.5757
18.026
17.3404
16.5198
15.5618
14.4675
13.2392
11.8809
10.3907
8.77898
89.9727
89.5399
88.3253
86.2295
83.3108
79.6972
75.5625
69.7587
89.9481
89.5886
88.9933
88.2481
87.4218
86.5686
85.7314
84.9385
84.2068
83.5449
82.9561
82.4399
81.9929
81.6098
81.2883
81.0321
80.8266
80.6548
80.5141
80.402
80.3163
80.2548
80.2125
80.1851
80.1693
80.1638
80.1655
80.1706
80.1727
65.8129
61.0666
55.3607
48.9958
42.1923
35.2165
28.5273
22.6833
18.1228
15.0163
13.2681
12.6235
12.7863
13.4743
14.3332
15.175
16.0959
16.9819
17.6399
18.0975
18.4114
18.5252
18.4079
18.1064
17.6435
17.0312
16.2758
15.3786
14.3375
13.1535
11.8292
10.3693
8.77233
6.73746
90.6125
90.4362
89.5348
87.7694
85.1802
81.8263
77.7024
73.0112
66.5455
90.397
89.8844
89.1699
88.3347
87.4443
86.5515
85.6926
84.8897
84.1555
83.4956
82.9113
82.4001
81.9572
81.5813
81.2793
81.0347
80.8268
80.6527
80.5107
80.3983
80.3149
80.2544
80.2115
80.1836
80.1679
80.1625
80.1644
80.17
80.1723
62.2172
57.0436
50.8466
43.9976
36.7942
29.6044
22.9919
17.5422
13.6094
11.2226
10.1641
10.113
10.7562
11.8204
12.965
14.1759
15.3259
16.2076
16.8548
17.2956
17.5871
17.6701
17.5115
17.1592
16.6371
15.9577
15.1277
14.149
13.0198
11.7414
10.3167
8.75136
6.72855
4.32568
91.1659
91.2412
90.6564
89.2223
86.9697
83.9657
80.129
75.4396
70.1564
62.9969
90.7681
90.1114
89.2865
88.3713
87.4304
86.5092
85.6364
84.829
84.0962
83.441
82.8621
82.3555
81.9211
81.5698
81.2831
81.0352
80.8246
80.6487
80.506
80.3969
80.3154
80.2537
80.21
80.1819
80.1662
80.161
80.1632
80.1695
80.1719
58.2686
52.643
45.9239
38.5728
30.9964
23.6917
17.3152
12.4267
9.2422
7.63144
7.26823
7.789
8.88281
10.2951
11.8692
13.3422
14.4957
15.3727
16.008
16.4303
16.6974
16.747
16.5439
16.137
15.5514
14.8005
13.8911
12.8259
11.604
10.2267
8.6983
6.70427
4.31482
1.89794
91.6285
91.947
91.6812
90.5836
88.6671
86.0186
82.5632
78.1913
72.9032
66.9949
59.0992
91.0585
90.2673
89.343
88.3639
87.386
86.4457
85.5657
84.7587
84.0304
83.3811
82.8071
82.3103
81.9065
81.5751
81.2841
81.0327
80.82
80.6426
80.5053
80.3993
80.3154
80.2525
80.2082
80.1799
80.1643
80.1593
80.1619
80.169
80.1716
53.947
47.8373
40.5548
32.6864
24.7912
17.5115
11.5615
7.40437
5.06986
4.26697
4.58593
5.64766
7.15898
9.076
10.9563
12.4445
13.6017
14.4733
15.0954
15.4974
15.7379
15.7513
15.5002
15.0348
14.3815
13.5543
12.5609
11.4046
10.0854
8.60618
6.64875
4.28836
1.88991
-0.51455
91.997
92.5463
92.5989
91.8434
90.2684
87.9722
84.9033
80.9417
76.0083
70.0953
63.5248
54.8338
91.2648
90.3512
89.3465
88.3195
87.316
86.3649
85.4834
84.6806
83.9584
83.3142
82.7514
82.2921
81.9136
81.5767
81.2813
81.0273
80.8115
80.6426
80.5087
80.4001
80.3147
80.2508
80.206
80.1775
80.1622
80.1575
80.1606
80.1684
80.1713
49.2252
42.5872
34.6914
26.3056
18.1854
11.1169
5.80859
2.544
1.13414
1.14474
2.11734
3.68223
5.78514
8.06246
9.97506
11.4793
12.6402
13.5056
14.1129
14.4926
14.7039
14.6782
14.3756
13.8476
13.1222
12.2143
11.1322
9.88051
8.46098
6.55287
4.2298
1.86578
-0.520624
-2.89458
92.2667
93.0338
93.3991
92.9902
91.7636
89.8217
87.1371
83.588
79.0953
73.5856
67.023
59.742
50.1752
91.3853
90.3713
89.3053
88.2444
87.225
86.27
85.3919
84.595
83.878
83.2463
82.729
82.3014
81.9161
81.5736
81.2747
81.0175
80.8128
80.6482
80.5111
80.4001
80.3133
80.2486
80.2034
80.1749
80.1599
80.1556
80.1592
80.168
80.171
44.0647
36.8348
28.2711
19.3941
11.2
4.58365
0.14493
-2.0888
-2.53309
-1.72749
-0.142347
2.12105
4.64603
6.97524
8.92205
10.4431
11.6073
12.4654
13.0563
13.4114
13.5911
13.523
13.1651
12.5705
11.7687
10.7757
9.60079
8.25052
6.40252
4.1295
1.80827
-0.543871
-2.89964
-5.23132
92.4349
93.4028
94.0724
94.0123
93.1414
91.557
89.2593
86.1205
82.0637
77.0315
70.9362
63.6962
55.6395
45.0899
91.4291
90.3374
89.2269
88.1438
87.1171
86.164
85.2915
84.4996
83.7964
83.2191
82.7409
82.3048
81.9126
81.5656
81.2634
81.0201
80.8215
80.6529
80.5125
80.3994
80.3112
80.2458
80.2003
80.1718
80.1572
80.1535
80.1577
80.1675
80.1708
38.402
30.4938
21.2095
11.9162
3.88077
-1.98897
-5.3357
-6.43714
-5.91008
-4.34969
-1.93026
0.830807
3.42745
5.8115
7.79427
9.33251
10.4996
11.3491
11.9216
12.2498
12.3949
12.2811
11.8642
11.1989
10.3165
9.23424
7.96344
6.18531
3.97321
1.70703
-0.600499
-2.92321
-5.23538
-7.51085
92.5113
93.6479
94.6066
94.898
94.3892
93.166
91.2584
88.5346
84.9078
80.3381
74.7661
68.0776
60.1244
51.2094
39.5225
91.4082
90.2587
89.1179
88.0229
86.9959
86.0476
85.1795
84.4025
83.7638
83.2341
82.7455
82.3009
81.9031
81.5522
81.2674
81.0326
80.8291
80.6561
80.5128
80.3978
80.3084
80.2423
80.1967
80.1683
80.1542
80.1512
80.1561
80.1671
80.1706
32.1455
23.4517
13.4123
3.86141
-3.68977
-8.48208
-10.5426
-10.4552
-8.9864
-6.41503
-3.40188
-0.544847
2.12764
4.56914
6.58902
8.14446
9.31348
10.1529
10.7051
11.0036
11.1111
10.9482
10.4684
9.72845
8.76149
7.58697
5.88953
3.74865
1.54772
-0.701815
-2.97968
-5.25914
-7.51371
-9.71614
92.5102
93.7803
94.9889
95.6306
95.4939
94.6355
93.1208
90.819
87.6249
83.5047
78.4283
72.3212
65.0291
56.3158
46.4318
33.3892
91.3333
90.1431
88.9843
87.8859
86.8623
85.9173
85.0652
84.3639
83.7824
83.2401
82.7412
82.2897
81.8872
81.5581
81.2847
81.0439
80.8348
80.658
80.5121
80.3952
80.3048
80.2382
80.1925
80.1645
80.151
80.1489
80.1546
80.1667
80.1706
25.1725
15.5611
4.79192
-4.73984
-11.3846
-14.7638
-15.3925
-14.1115
-11.3971
-8.10648
-4.96428
-2.00567
0.746109
3.24658
5.30406
6.87628
8.04617
8.87377
9.40312
9.66913
9.7359
9.52028
8.9739
8.15553
7.10096
5.50149
3.44394
1.31848
-0.862543
-3.08146
-5.31515
-7.53735
-9.7181
-11.83
92.4442
93.8172
95.228
96.189
96.4349
95.9525
94.8313
92.9595
90.2054
86.5316
81.9278
76.3585
69.7217
61.8099
52.2775
41.2711
26.5744
91.2138
89.9978
88.8314
87.7341
86.7125
85.7842
85.0198
84.3867
83.79
83.2354
82.7281
82.2709
81.8955
81.5813
81.3006
81.0528
80.8389
80.6585
80.5101
80.3916
80.3002
80.2333
80.1878
80.1602
80.1475
80.1464
80.153
80.1663
80.1706
17.2953
6.63046
-4.71026
-13.8044
-19.033
-20.6973
-19.8152
-16.9603
-13.3588
-9.89249
-6.6139
-3.54943
-0.716707
1.84314
3.93792
5.526
6.69521
7.50882
8.01281
8.24328
8.26592
7.99406
7.37749
6.47772
5.00037
3.04458
1.00762
-1.09424
-3.24342
-5.41702
-7.59236
-9.74156
-11.8313
-13.8352
92.3246
93.7741
95.3435
96.5773
97.1837
97.0943
96.3746
94.9399
92.6369
89.4126
85.2692
80.2016
74.1567
66.9938
58.4403
48.0162
35.6811
18.9013
91.0584
89.8292
88.6609
87.5634
86.5589
85.7314
85.0476
84.3962
83.7849
83.2201
82.7058
82.2822
81.9258
81.6031
81.3137
81.0597
80.8413
80.6576
80.5068
80.3867
80.2946
80.2276
80.1824
80.1556
80.144
80.1439
80.1515
80.166
80.1706
8.22858
-3.57762
-15.0862
-23.192
-26.428
-26.151
-23.2417
-19.26
-15.4151
-11.764
-8.3441
-5.17246
-2.25898
0.359305
2.49019
4.09248
5.2589
6.05603
6.53181
6.72351
6.69863
6.3671
5.67729
4.35769
2.52917
0.600347
-1.40848
-3.47658
-5.57947
-7.69351
-9.79516
-11.8541
-13.8354
-15.7141
92.1619
93.6648
95.3542
96.8142
97.7402
98.0266
97.7243
96.7423
94.9039
92.1386
88.451
83.8611
78.3553
71.8532
64.1649
54.9441
43.5351
29.6019
10.0917
90.875
89.6398
88.4682
87.3878
86.4979
85.7648
85.0591
84.3906
83.7672
83.1938
82.7206
82.321
81.9546
81.6212
81.3243
81.0646
80.8418
80.6548
80.5018
80.3805
80.2879
80.221
80.1765
80.1508
80.1403
80.1413
80.1499
80.1657
80.1708
-2.48787
-15.2973
-26.2608
-32.715
-33.3146
-30.3694
-25.9742
-21.6463
-17.5478
-13.7074
-10.1461
-6.86897
-3.87701
-1.20284
0.961656
2.57558
3.73648
4.51422
4.95863
5.10828
5.0325
4.63817
3.53233
1.86858
0.0752006
-1.82015
-3.79221
-5.81279
-7.85516
-9.89481
-11.9062
-13.8584
-15.714
-17.4519
91.9652
93.5022
95.2779
96.9183
98.1231
98.7466
98.839
98.3345
96.9885
94.6973
91.4693
87.3416
82.3361
76.42
69.4788
61.2642
51.3488
38.8351
22.9566
-0.320504
90.6667
89.4243
88.2691
87.3182
86.5379
85.7788
85.0531
84.3702
83.7363
83.2127
82.7695
82.3581
81.9789
81.6364
81.3324
81.0671
80.8401
80.6501
80.4952
80.3728
80.28
80.2136
80.1702
80.1458
80.1366
80.1387
80.1484
80.1654
80.171
-15.6297
-28.7265
-38.1477
-41.917
-38.6197
-33.6804
-28.7634
-24.0853
-19.7318
-15.7058
-12.0082
-8.63043
-5.56486
-2.83948
-0.645501
0.976396
2.12833
2.88322
3.29292
3.39722
3.26723
2.4617
1.02082
-0.597124
-2.35042
-4.20518
-6.12778
-8.08683
-10.0543
-12.0037
-13.9085
-15.7374
-17.4512
-19.0276
91.7389
93.2973
95.1311
96.9084
98.3512
99.2741
99.714
99.6638
98.854
97.0729
94.3166
90.6459
86.1119
80.7257
74.4278
67.0657
58.3226
47.6858
33.9161
15.6605
-13.2343
90.428
89.2005
88.1902
87.3654
86.5546
85.7723
85.0296
84.3341
83.76
83.2731
82.8162
82.3898
81.9997
81.6486
81.3376
81.0669
80.8358
80.6431
80.4866
80.3636
80.2711
80.2058
80.1636
80.1406
80.1327
80.1361
80.1469
80.1652
80.1712
-32.7116
-43.3724
-49.96
-49.1012
-42.729
-36.9724
-31.5503
-26.5342
-21.9385
-17.7388
-13.9147
-10.4453
-7.31422
-4.54495
-2.32746
-0.702535
0.436045
1.16417
1.53563
1.59119
1.05151
-0.0774566
-1.45918
-3.02858
-4.73629
-6.539
-8.3987
-10.2824
-12.1598
-14.003
-15.7846
-17.4716
-19.0251
-20.4244
91.4773
93.055
94.9282
96.8032
98.4427
99.6286
100.372
100.719
100.436
99.2273
96.9818
93.773
89.6935
84.7925
79.0616
72.4109
64.646
55.3725
44.0014
28.7806
7.65284
-30.754
90.1786
89.1119
88.2458
87.3852
86.5476
85.7455
84.9877
84.3631
83.8335
83.331
82.8565
82.4172
82.0168
81.6573
81.3395
81.0635
80.8288
80.6336
80.4759
80.3529
80.2614
80.1974
80.1568
80.1353
80.1288
80.1335
80.1454
80.1649
80.1715
-53.7186
-56.9126
-60.8808
-54.3075
-46.6492
-40.145
-34.2678
-28.9468
-24.1352
-19.7812
-15.8467
-12.2991
-9.11443
-6.31148
-4.07866
-2.4572
-1.33727
-0.640326
-0.310997
-0.667322
-1.52093
-2.57461
-3.8975
-5.41484
-7.0669
-8.80493
-10.5885
-12.3824
-14.1543
-15.8753
-17.5165
-19.0446
-20.4203
-21.6268
91.203
92.7711
94.6768
96.6208
98.4162
99.8294
100.837
101.522
101.714
101.087
99.4282
96.7183
93.0878
88.6414
83.4149
77.3752
70.3989
62.2523
52.4612
40.3537
23.4566
-0.873401
-53.8506
90.0796
89.1768
88.269
87.3777
86.517
85.6968
85.0227
84.4514