/*--------------------------------*- C++ -*----------------------------------*\
  =========                 |
  \\      /  F ield         | OpenFOAM: The Open Source CFD Toolbox
   \\    /   O peration     | Website:  https://openfoam.org
    \\  /    A nd           | Version:  8
     \\/     M anipulation  |
\*---------------------------------------------------------------------------*/
FoamFile
{
    version     2.0;
    format      ascii;
    class       surfaceScalarField;
    location    "0.1";
    object      phi;
}
// * * * * * * * * * * * * * * * * * * * * * * * * * * * * * * * * * * * * * //

dimensions      [0 3 -1 0 0 0 0];

internalField   nonuniform List<scalar> 
31053
(
6.27705e-07
1.27523e-05
8.49586e-07
1.51581e-05
3.76232e-07
1.23761e-05
9.32276e-07
1.75573e-05
5.88714e-07
1.49456e-05
2.69497e-07
1.21066e-05
9.55914e-07
2.02164e-05
7.06831e-07
1.74392e-05
4.64554e-07
1.47506e-05
2.15985e-07
1.18906e-05
9.46908e-07
2.3249e-05
7.66288e-07
2.01569e-05
5.89904e-07
1.73138e-05
3.9612e-07
1.45704e-05
1.7257e-07
1.1718e-05
9.16949e-07
2.669e-05
7.91288e-07
2.3224e-05
6.64885e-07
2.00819e-05
5.23625e-07
1.71863e-05
3.33416e-07
1.44096e-05
1.38003e-07
1.158e-05
8.71534e-07
3.06654e-05
7.94025e-07
2.66872e-05
7.06828e-07
2.31821e-05
6.04876e-07
2.00007e-05
4.55879e-07
1.70639e-05
2.78691e-07
1.42689e-05
1.10854e-07
1.14692e-05
8.14063e-07
3.51975e-05
7.81402e-07
3.0678e-05
7.26597e-07
2.66675e-05
6.53306e-07
2.31336e-05
5.37215e-07
1.99193e-05
3.91792e-07
1.69508e-05
2.31617e-07
1.41481e-05
8.83927e-08
1.13808e-05
7.4738e-07
4.03867e-05
7.57226e-07
3.52216e-05
7.30505e-07
3.06741e-05
6.78942e-07
2.66418e-05
5.86443e-07
2.30844e-05
4.69176e-07
1.9842e-05
3.32953e-07
1.68494e-05
1.89533e-07
1.4047e-05
6.8696e-08
1.13121e-05
6.73198e-07
4.63542e-05
7.23433e-07
4.04205e-05
7.21799e-07
3.52304e-05
6.87744e-07
3.06653e-05
6.12583e-07
2.66157e-05
5.15707e-07
2.30379e-05
4.03592e-07
1.97713e-05
2.77162e-07
1.67618e-05
1.50511e-07
1.39652e-05
5.06082e-08
1.12615e-05
5.93196e-07
5.322e-05
6.82077e-07
4.63955e-05
7.01692e-07
4.04406e-05
6.83234e-07
3.52349e-05
6.21607e-07
3.06563e-05
5.39017e-07
2.65924e-05
4.44863e-07
2.29966e-05
3.38566e-07
1.97099e-05
2.22855e-07
1.66895e-05
1.13275e-07
1.39025e-05
3.33596e-08
1.12281e-05
5.09306e-07
6.10639e-05
6.34818e-07
5.32673e-05
6.7147e-07
4.64258e-05
6.67761e-07
4.04561e-05
6.17025e-07
3.52394e-05
5.44889e-07
3.06504e-05
4.62841e-07
2.65744e-05
3.72182e-07
2.2963e-05
2.72743e-07
1.966e-05
1.68973e-07
1.66338e-05
7.68894e-08
1.3859e-05
1.64413e-08
1.12117e-05
4.24048e-07
7.00673e-05
5.83173e-07
6.11155e-05
6.32225e-07
5.33065e-05
6.41983e-07
4.64515e-05
6.00965e-07
4.04721e-05
5.36809e-07
3.52475e-05
4.62892e-07
3.06504e-05
3.82434e-07
2.65641e-05
2.96361e-07
2.29394e-05
2.05184e-07
1.96238e-05
1.14725e-07
1.65959e-05
4.06639e-08
1.38348e-05
-3.0348e-10
1.1212e-05
3.4113e-07
8.04149e-05
5.2818e-07
7.01223e-05
5.85168e-07
6.11626e-05
6.06256e-07
5.33422e-05
5.74449e-07
4.64781e-05
5.16727e-07
4.04922e-05
4.48386e-07
3.5262e-05
3.74104e-07
3.06587e-05
2.96513e-07
2.6564e-05
2.16484e-07
2.29281e-05
1.35215e-07
1.96033e-05
5.94789e-08
1.65771e-05
4.2231e-09
1.38302e-05
-1.71543e-08
1.12291e-05
2.77594e-07
7.62535e-05
4.69899e-07
8.04732e-05
5.31659e-07
7.01758e-05
5.60971e-07
6.12079e-05
5.37842e-07
5.33788e-05
4.85609e-07
4.65092e-05
4.21168e-07
4.05194e-05
3.5038e-07
3.52858e-05
2.77278e-07
3.06779e-05
2.04149e-07
2.65763e-05
1.31885e-07
2.29314e-05
6.23013e-08
1.96005e-05
2.95022e-09
1.65784e-05
-3.26607e-08
1.38458e-05
-3.42441e-08
1.12634e-05
2.26736e-07
7.62409e-05
4.17547e-07
7.63059e-05
4.73085e-07
8.05318e-05
5.06751e-07
7.023e-05
4.91323e-07
6.12544e-05
4.43811e-07
5.34206e-05
3.82097e-07
4.65482e-05
3.12992e-07
4.05568e-05
2.41571e-07
3.53215e-05
1.71464e-07
3.07106e-05
1.04628e-07
2.66036e-05
4.20316e-08
2.29517e-05
-1.37563e-08
1.96172e-05
-5.5135e-08
1.66009e-05
-7.01352e-08
1.38816e-05
-5.15852e-08
1.13149e-05
1.86238e-07
7.62305e-05
3.68467e-07
7.62899e-05
4.20868e-07
7.63581e-05
4.44705e-07
8.05938e-05
4.35162e-07
7.02861e-05
3.91469e-07
6.13067e-05
3.31456e-07
5.34713e-05
2.62682e-07
4.65986e-05
1.90957e-07
4.06074e-05
1.20988e-07
3.53719e-05
5.58796e-08
3.07594e-05
-2.59829e-09
2.66482e-05
-5.31745e-08
2.29911e-05
-9.30044e-08
1.96551e-05
-1.14589e-07
1.66453e-05
-1.08103e-07
1.39382e-05
-6.89955e-08
1.13839e-05
1.53669e-07
7.62246e-05
3.22936e-07
7.6276e-05
3.72004e-07
7.63388e-05
3.88259e-07
7.64146e-05
3.70029e-07
8.0659e-05
3.28777e-07
7.03488e-05
2.69322e-07
6.13689e-05
1.99627e-07
5.35343e-05
1.26022e-07
4.66635e-05
5.40499e-08
4.06744e-05
-1.22342e-08
3.54401e-05
-7.00302e-08
3.08268e-05
-1.17572e-07
2.67126e-05
-1.53636e-07
2.30517e-05
-1.75076e-07
1.97156e-05
-1.75191e-07
1.67124e-05
-1.46283e-07
1.40154e-05
-8.63433e-08
1.14703e-05
1.27217e-07
7.62165e-05
2.81291e-07
7.62662e-05
3.26548e-07
7.63215e-05
3.34872e-07
7.63922e-05
3.09739e-07
7.64748e-05
2.56346e-07
8.07314e-05
1.95833e-07
7.04223e-05
1.23853e-07
6.14446e-05
4.68139e-08
5.36135e-05
-2.89641e-08
4.67465e-05
-9.86808e-08
4.07608e-05
-1.58664e-07
3.55287e-05
-2.06314e-07
3.09156e-05
-2.4008e-07
2.6799e-05
-2.5876e-07
2.31354e-05
-2.59426e-07
1.97998e-05
-2.36395e-07
1.68025e-05
-1.84309e-07
1.41134e-05
-1.03372e-07
1.15737e-05
1.05558e-07
7.62117e-05
2.43547e-07
7.62542e-05
2.84535e-07
7.63082e-05
2.84974e-07
7.63714e-05
2.52151e-07
7.64498e-05
1.89383e-07
7.65418e-05
1.1162e-07
8.08156e-05
3.54886e-08
7.05107e-05
-4.67041e-08
6.15382e-05
-1.28176e-07
5.37128e-05
-2.0334e-07
4.68512e-05
-2.67844e-07
4.087e-05
-3.1835e-07
3.56407e-05
-3.52567e-07
3.1028e-05
-3.6931e-07
2.69096e-05
-3.67684e-07
2.32437e-05
-3.45152e-07
1.99086e-05
-2.9754e-07
1.69157e-05
-2.21699e-07
1.42317e-05
-1.19888e-07
1.16935e-05
8.77095e-08
7.62078e-05
2.09544e-07
7.62457e-05
2.4591e-07
7.62928e-05
2.38834e-07
7.63544e-05
1.98052e-07
7.64255e-05
1.25563e-07
7.65136e-05
3.4263e-08
7.66192e-05
-6.47768e-08
8.09159e-05
-1.54394e-07
7.06184e-05
-2.43705e-07
6.16537e-05
-3.26545e-07
5.3836e-05
-3.97755e-07
4.69811e-05
-4.53456e-07
4.10051e-05
-4.90684e-07
3.57788e-05
-5.078e-07
3.11665e-05
-5.04084e-07
2.7046e-05
-4.79097e-07
2.33776e-05
-4.31221e-07
2.00422e-05
-3.5783e-07
1.70519e-05
-2.5794e-07
1.43698e-05
-1.35566e-07
1.18291e-05
7.40804e-08
6.95956e-05
1.79075e-07
7.62383e-05
2.10588e-07
7.6281e-05
1.96573e-07
7.63351e-05
1.47945e-07
7.64045e-05
6.58601e-08
7.64852e-05
-3.90554e-08
7.65869e-05
-1.56234e-07
7.67106e-05
-2.75386e-07
8.10369e-05
-3.75386e-07
7.07501e-05
-4.68529e-07
6.17957e-05
-5.48994e-07
5.39872e-05
-6.12203e-07
4.71398e-05
-6.54718e-07
4.11691e-05
-6.74495e-07
3.59455e-05
-6.7051e-07
3.1333e-05
-6.42683e-07
2.72096e-05
-5.91549e-07
2.35379e-05
-5.16406e-07
2.02008e-05
-4.16371e-07
1.72103e-05
-2.92421e-07
1.45266e-05
-1.50198e-07
1.19793e-05
6.36009e-08
6.25545e-05
1.5425e-07
6.96205e-05
1.78469e-07
7.62704e-05
1.58203e-07
7.63194e-05
1.02153e-07
7.63809e-05
1.09241e-08
7.64594e-05
-1.07173e-07
7.65533e-05
-2.42383e-07
7.66731e-05
-3.84956e-07
7.68202e-05
-5.22151e-07
8.11836e-05
-6.29116e-07
7.09106e-05
-7.21942e-07
6.19686e-05
-7.9551e-07
5.41705e-05
-8.45688e-07
4.73308e-05
-8.70257e-07
4.13649e-05
-8.67937e-07
3.6143e-05
-8.38544e-07
3.15288e-05
-7.83202e-07
2.74012e-05
-7.03305e-07
2.37248e-05
-5.99382e-07
2.03838e-05
-4.72199e-07
1.73901e-05
-3.24617e-07
1.47011e-05
-1.63384e-07
1.21427e-05
5.53823e-08
5.62262e-05
1.34274e-07
6.25745e-05
1.51736e-07
6.96472e-05
1.23677e-07
7.6305e-05
6.08534e-08
7.63607e-05
-3.88097e-08
7.64306e-05
-1.69267e-07
7.65215e-05
-3.21873e-07
7.66328e-05
-4.87557e-07
7.67757e-05
-6.54246e-07
7.69523e-05
-8.06996e-07
8.13615e-05
-9.16432e-07
7.11051e-05
-1.00395e-06
6.21771e-05
-1.0649e-06
5.43897e-05
-1.09663e-06
4.75572e-05
-1.09786e-06
4.15948e-05
-1.06839e-06
3.63728e-05
-1.00952e-06
3.17551e-05
-9.23375e-07
2.76213e-05
-8.12555e-07
2.3938e-05
-6.78723e-07
2.05903e-05
-5.24394e-07
1.75899e-05
-3.5364e-07
1.48913e-05
-1.74521e-07
1.23172e-05
4.88339e-08
5.05385e-05
1.18097e-07
5.62424e-05
1.29758e-07
6.25964e-05
9.54248e-08
6.96754e-05
2.41409e-08
7.63417e-05
-8.30459e-08
7.64049e-05
-2.24754e-07
7.64861e-05
-3.93694e-07
7.65933e-05
-5.81637e-07
7.67269e-05
-7.773e-07
7.68987e-05
-9.66334e-07
7.71116e-05
-1.1309e-06
8.1576e-05
-1.2374e-06
7.13386e-05
-1.31318e-06
6.24253e-05
-1.35536e-06
5.46485e-05
-1.36241e-06
4.78217e-05
-1.3344e-06
4.18608e-05
-1.27297e-06
3.66362e-05
-1.18063e-06
3.20124e-05
-1.06087e-06
2.78696e-05
-9.17332e-07
2.41766e-05
-7.53074e-07
2.0819e-05
-5.71624e-07
1.78078e-05
-3.78762e-07
1.50956e-05
-1.81371e-07
1.24986e-05
4.35452e-08
4.54253e-05
1.04899e-07
5.05517e-05
1.11619e-07
5.62605e-05
7.26387e-08
6.26192e-05
-5.32977e-09
6.97049e-05
-1.21599e-07
7.63802e-05
-2.73239e-07
7.64534e-05
-4.57099e-07
7.65495e-05
-6.65976e-07
7.66777e-05
-8.89537e-07
7.68391e-05
-1.11418e-06
7.70466e-05
-1.32236e-06
7.73031e-05
-1.49404e-06
8.18326e-05
-1.59048e-06
7.16159e-05
-1.64759e-06
6.27176e-05
-1.66386e-06
5.49499e-05
-1.63936e-06
4.81267e-05
-1.57647e-06
4.21643e-05
-1.47828e-06
3.69339e-05
-1.34895e-06
3.23005e-05
-1.19311e-06
2.81454e-05
-1.01578e-06
2.44393e-05
-8.20651e-07
2.10681e-05
-6.12965e-07
1.80421e-05
-3.95727e-07
1.53099e-05
-1.5117e-07
1.26498e-05
3.92199e-08
4.08303e-05
9.40516e-08
4.54361e-05
9.65852e-08
5.05668e-05
5.42242e-08
5.62789e-05
-2.85195e-08
6.26424e-05
-1.51754e-07
6.97351e-05
-3.14461e-07
7.64214e-05
-5.11553e-07
7.65078e-05
-7.39632e-07
7.66232e-05
-9.89506e-07
7.67776e-05
-1.24849e-06
7.69734e-05
-1.49952e-06
7.72237e-05
-1.72265e-06
7.75317e-05
-1.89474e-06
8.21369e-05
-1.97342e-06
7.19417e-05
-2.00374e-06
6.30575e-05
-1.98618e-06
5.52967e-05
-1.92354e-06
4.84737e-05
-1.82002e-06
4.25061e-05
-1.68075e-06
3.72657e-05
-1.51125e-06
3.26186e-05
-1.31769e-06
2.84473e-05
-1.10565e-06
2.47243e-05
-8.79998e-07
2.13351e-05
-6.42951e-07
1.82893e-05
-3.91345e-07
1.55501e-05
-1.0335e-07
1.27531e-05
3.56417e-08
3.66996e-05
8.50824e-08
4.08393e-05
8.40862e-08
4.54486e-05
3.93229e-08
5.05817e-05
-4.67152e-08
5.62971e-05
-1.74707e-07
6.26654e-05
-3.45625e-07
6.97662e-05
-5.56682e-07
7.64666e-05
-8.01908e-07
7.65701e-05
-1.07605e-06
7.67097e-05
-1.36756e-06
7.68967e-05
-1.66006e-06
7.7134e-05
-1.93388e-06
7.7435e-05
-2.16549e-06
7.78024e-05
-2.33062e-06
8.24941e-05
-2.38242e-06
7.23204e-05
-2.37686e-06
6.34481e-05
-2.31773e-06
5.56909e-05
-2.2101e-06
4.88638e-05
-2.06074e-06
4.28861e-05
-1.87644e-06
3.76309e-05
-1.66457e-06
3.29655e-05
-1.43187e-06
2.87735e-05
-1.18489e-06
2.50292e-05
-9.25999e-07
2.16181e-05
-6.56072e-07
1.8554e-05
-3.67669e-07
1.58144e-05
-8.04575e-08
1.28336e-05
3.26508e-08
3.2989e-05
7.76306e-08
3.6707e-05
7.36828e-08
4.08497e-05
2.72395e-08
4.54607e-05
-6.09514e-08
5.05959e-05
-1.91983e-07
5.63144e-05
-3.68302e-07
6.2688e-05
-5.89541e-07
6.97991e-05
-8.52302e-07
7.6517e-05
-1.14827e-06
7.66423e-05
-1.46996e-06
7.68121e-05
-1.80193e-06
7.70386e-05
-2.12501e-06
7.73251e-05
-2.4155e-06
7.7685e-05
-2.64846e-06
7.81203e-05
-2.79755e-06
8.29092e-05
-2.81203e-06
7.27556e-05
-2.76157e-06
6.3892e-05
-2.65284e-06
5.61337e-05
-2.49402e-06
4.92971e-05
-2.294e-06
4.33036e-05
-2.06184e-06
3.80282e-05
-1.80565e-06
3.33393e-05
-1.53313e-06
2.91218e-05
-1.24917e-06
2.53524e-05
-9.55243e-07
2.19173e-05
-6.56401e-07
1.88427e-05
-3.45297e-07
1.60793e-05
-7.65408e-08
1.29101e-05
3.01295e-08
2.96505e-05
7.14078e-08
3.29952e-05
6.50171e-08
3.67157e-05
1.73981e-08
4.08595e-05
-7.20579e-08
4.54718e-05
-2.04817e-07
5.06088e-05
-3.84363e-07
5.63305e-05
-6.1218e-07
6.27107e-05
-8.87648e-07
6.98344e-05
-1.20552e-06
7.65742e-05
-1.55459e-06
7.6727e-05
-1.92344e-06
7.69336e-05
-2.29368e-06
7.72072e-05
-2.6417e-06
7.75513e-05
-2.94208e-06
7.79786e-05
-3.16717e-06
7.84899e-05
-3.28935e-06
8.33865e-05
-3.25619e-06
7.32502e-05
-3.15145e-06
6.43906e-05
-2.98575e-06
5.66254e-05
-2.76992e-06
4.9773e-05
-2.51567e-06
4.37574e-05
-2.23313e-06
3.84556e-05
-1.93154e-06
3.37377e-05
-1.61774e-06
2.94903e-05
-1.29583e-06
2.5693e-05
-9.72275e-07
2.22332e-05
-6.51496e-07
1.91489e-05
-3.34445e-07
1.63372e-05
-8.22565e-08
1.29924e-05
2.7989e-08
2.66501e-05
6.61806e-08
2.96557e-05
5.77827e-08
3.30024e-05
9.3413e-09
3.67238e-05
-8.07033e-08
4.08682e-05
-2.14197e-07
4.54812e-05
-3.95318e-07
5.06197e-05
-6.26933e-07
5.63452e-05
-9.10587e-07
6.27336e-05
-1.24432e-06
6.98732e-05
-1.62058e-06
7.66402e-05
-2.02318e-06
7.68267e-05
-2.4378e-06
7.70777e-05
-2.84129e-06
7.74068e-05
-3.20795e-06
7.78172e-05
-3.50904e-06
7.83205e-05
-3.71493e-06
7.89155e-05
-3.79939e-06
8.39297e-05
-3.70766e-06
7.38064e-05
-3.53995e-06
6.49448e-05
-3.31025e-06
5.71657e-05
-3.03293e-06
5.02903e-05
-2.72132e-06
4.42456e-05
-2.38694e-06
3.8911e-05
-2.0389e-06
3.41588e-05
-1.68347e-06
2.9878e-05
-1.32853e-06
2.60492e-05
-9.82664e-07
2.25643e-05
-6.48902e-07
1.94634e-05
-3.33705e-07
1.65886e-05
-1.11257e-07
1.31036e-05
2.6161e-08
2.39558e-05
6.17626e-08
2.66546e-05
5.17187e-08
2.96618e-05
2.72041e-09
3.30091e-05
-8.74204e-08
3.67305e-05
-2.20913e-07
4.08749e-05
-4.02375e-07
4.54883e-05
-6.35682e-07
5.06285e-05
-9.24029e-07
5.63587e-05
-1.26803e-06
6.27573e-05
-1.66405e-06
6.99167e-05
-2.10009e-06
7.67171e-05
-2.5557e-06
7.69446e-05
-3.0118e-06
7.72482e-05
-3.44281e-06
7.76417e-05
-3.81912e-06
7.81272e-05
-4.10934e-06
7.87149e-05
-4.28469e-06
7.94008e-05
-4.31965e-06
8.45417e-05
-4.15906e-06
7.44255e-05
-3.91987e-06
6.55544e-05
-3.62063e-06
5.77534e-05
-3.27795e-06
5.08469e-05
-2.90709e-06
4.47658e-05
-2.52007e-06
3.93922e-05
-2.12575e-06
3.46011e-05
-1.733e-06
3.02825e-05
-1.35232e-06
2.64189e-05
-9.9152e-07
2.2907e-05
-6.50039e-07
1.97797e-05
-4.15333e-07
1.68927e-05
-1.20304e-07
1.32239e-05
2.45919e-08
2.15336e-05
5.80074e-08
2.39596e-05
4.66097e-08
2.66597e-05
-2.72869e-09
2.96673e-05
-9.26287e-08
3.30143e-05
-2.25586e-07
3.67351e-05
-4.06487e-07
4.0879e-05
-6.39924e-07
4.54925e-05
-9.30315e-07
5.06347e-05
-1.28024e-06
5.63709e-05
-1.68917e-06
6.27824e-05
-2.14967e-06
6.99663e-05
-2.64598e-06
7.68074e-05
-3.15115e-06
7.70839e-05
-3.64372e-06
7.74492e-05
-4.09364e-06
7.79162e-05
-4.46801e-06
7.84859e-05
-4.73564e-06
7.91659e-05
-4.86782e-06
7.99489e-05
-4.84178e-06
8.52244e-05
-4.60207e-06
7.51077e-05
-4.2846e-06
6.62184e-05
-3.91103e-06
5.83865e-05
-3.50061e-06
5.14404e-05
-3.06976e-06
4.53155e-05
-2.63063e-06
3.98971e-05
-2.19388e-06
3.5062e-05
-1.77066e-06
3.07008e-05
-1.37124e-06
2.67986e-05
-9.99298e-07
2.32562e-05
-8.05218e-07
2.01696e-05
-4.17115e-07
1.71895e-05
-1.30221e-07
1.33541e-05
2.32392e-08
1.93534e-05
5.47998e-08
2.15368e-05
4.22829e-08
2.39639e-05
-7.21888e-09
2.66642e-05
-9.6654e-08
2.96713e-05
-2.28704e-07
3.30174e-05
-4.08404e-07
3.67371e-05
-6.40839e-07
4.08799e-05
-9.31309e-07
4.54935e-05
-1.28387e-06
5.06384e-05
-1.70037e-06
5.63821e-05
-2.17705e-06
6.28098e-05
-2.70341e-06
7.00237e-05
-3.25762e-06
7.69139e-05
-3.80818e-06
7.72484e-05
-4.32916e-06
7.76847e-05
-4.78658e-06
7.82348e-05
-5.1471e-06
7.88974e-05
-5.37881e-06
7.96768e-05
-5.45517e-06
8.05623e-05
-5.35635e-06
8.59787e-05
-5.02918e-06
7.58523e-05
-4.62744e-06
6.69348e-05
-4.17648e-06
5.90624e-05
-3.69741e-06
5.20681e-05
-3.20729e-06
4.58921e-05
-2.71959e-06
4.04228e-05
-2.2467e-06
3.5538e-05
-1.79957e-06
3.11291e-05
-1.38559e-06
2.71849e-05
-1.24103e-06
2.3692e-05
-8.00684e-07
2.05532e-05
-4.18784e-07
1.74781e-05
-1.38031e-07
1.34922e-05
1.73972e-05
2.20701e-08
5.20475e-08
1.93561e-05
3.86013e-08
2.15405e-05
-1.09271e-08
2.39676e-05
-9.97514e-08
2.66673e-05
-2.30646e-07
2.96732e-05
-4.0871e-07
3.30177e-05
-6.39346e-07
3.67356e-05
-9.2847e-07
4.08771e-05
-1.28121e-06
4.54908e-05
-1.70123e-06
5.06392e-05
-2.18762e-06
5.63927e-05
-2.73416e-06
6.28406e-05
-3.32495e-06
7.0091e-05
-3.93403e-06
7.70397e-05
-4.52263e-06
7.74419e-05
-5.06102e-06
7.79591e-05
-5.51408e-06
7.86018e-05
-5.84686e-06
7.93654e-05
-6.02904e-06
8.02507e-05
-6.03638e-06
8.12423e-05
-5.85486e-06
8.68044e-05
-5.43267e-06
7.66575e-05
-4.94263e-06
6.77009e-05
-4.41299e-06
5.97779e-05
-3.866e-06
5.27268e-05
-3.31989e-06
4.64924e-05
-2.78941e-06
4.09655e-05
-2.28659e-06
3.6025e-05
-1.82014e-06
3.15637e-05
-1.72338e-06
2.76672e-05
-1.23342e-06
2.41248e-05
-7.92907e-07
2.09273e-05
-4.18077e-07
1.77581e-05
-1.4304e-07
1.36352e-05
1.73995e-05
4.96693e-08
2.78119e-05
2.01722e-08
3.54552e-08
1.93593e-05
-1.39981e-08
2.15435e-05
-1.02121e-07
2.397e-05
-2.31707e-07
2.66683e-05
-4.07855e-07
2.96724e-05
-6.36158e-07
3.30145e-05
-9.22936e-07
3.673e-05
-1.27408e-06
4.087e-05
-1.69458e-06
4.54842e-05
-2.18574e-06
5.06373e-05
-2.7447e-06
5.64032e-05
-3.36048e-06
6.28761e-05
-4.01373e-06
7.01708e-05
-4.67143e-06
7.71885e-05
-5.2877e-06
7.76686e-05
-5.83189e-06
7.82769e-05
-6.26638e-06
7.90213e-05
-6.55705e-06
7.98934e-05
-6.67521e-06
8.08895e-05
-6.60209e-06
8.19896e-05
-6.32846e-06
8.77002e-05
-5.80588e-06
7.75208e-05
-5.22556e-06
6.85135e-05
-4.61768e-06
6.05296e-05
-4.00581e-06
5.34127e-05
-3.40913e-06
4.71122e-05
-2.84183e-06
4.15208e-05
-2.31402e-06
3.65189e-05
-2.26485e-06
3.21051e-05
-1.71384e-06
2.81477e-05
-1.21785e-06
2.45497e-05
-7.80779e-07
2.129e-05
-4.13928e-07
1.8029e-05
-1.45432e-07
1.37806e-05
1.74022e-05
3.27599e-08
2.78158e-05
4.58002e-08
2.85518e-05
1.83672e-08
-1.65491e-08
1.93618e-05
-1.03921e-07
2.15453e-05
-2.32115e-07
2.39704e-05
-4.06189e-07
2.66666e-05
-6.31822e-07
2.9668e-05
-9.15581e-07
3.30072e-05
-1.26387e-06
3.67198e-05
-1.68264e-06
4.0858e-05
-2.17485e-06
4.54733e-05
-2.74029e-06
5.06329e-05
-3.37188e-06
5.64146e-05
-4.05582e-06
6.29182e-05
-4.76639e-06
7.02657e-05
-5.4634e-06
7.73642e-05
-6.09624e-06
7.79329e-05
-6.63196e-06
7.86425e-05
-7.03294e-06
7.94972e-05
-7.26592e-06
8.04841e-05
-7.30718e-06
8.15946e-05
-7.14243e-06
8.28035e-05
-6.76942e-06
8.86637e-05
-6.14333e-06
7.84385e-05
-5.4726e-06
6.93684e-05
-4.78923e-06
6.1313e-05
-4.11761e-06
5.41212e-05
-3.47617e-06
4.77465e-05
-2.87737e-06
4.20841e-05
-2.87988e-06
3.71339e-05
-2.2527e-06
3.2644e-05
-1.69129e-06
2.86211e-05
-1.19457e-06
2.49635e-05
-7.63715e-07
2.16398e-05
-4.06395e-07
1.829e-05
-1.45481e-07
1.39261e-05
1.74044e-05
-1.8677e-08
2.78195e-05
2.90479e-08
2.85555e-05
4.20696e-08
2.93117e-05
1.66546e-08
-1.05276e-07
1.93632e-05
-2.32048e-07
2.15453e-05
-4.03976e-07
2.39682e-05
-6.26753e-07
2.66616e-05
-9.07072e-07
2.96595e-05
-1.25165e-06
3.29949e-05
-1.66714e-06
3.67043e-05
-2.15768e-06
4.08408e-05
-2.7251e-06
4.54581e-05
-3.3654e-06
5.06265e-05
-4.06931e-06
5.64281e-05
-4.81725e-06
6.2969e-05
-5.57693e-06
7.03792e-05
-6.30321e-06
7.75712e-05
-6.93855e-06
7.82395e-05
-7.45056e-06
7.90601e-05
-7.80156e-06
8.00328e-05
-7.96265e-06
8.11396e-05
-7.9141e-06
8.23663e-05
-7.64863e-06
8.36828e-05
-7.17119e-06
8.96916e-05
-6.4405e-06
7.94064e-05
-5.68164e-06
7.02609e-05
-4.92764e-06
6.21231e-05
-4.202e-06
5.4847e-05
-3.52154e-06
4.83907e-05
-3.58185e-06
4.27861e-05
-2.86459e-06
3.77458e-05
-2.22251e-06
3.31752e-05
-1.6571e-06
2.90836e-05
-1.16393e-06
2.53637e-05
-7.42084e-07
2.19755e-05
-3.95819e-07
1.85403e-05
-1.43585e-07
1.40697e-05
1.74054e-05
-1.06283e-07
2.78213e-05
-2.05193e-08
2.8559e-05
2.55764e-08
2.93153e-05
3.84929e-08
3.00896e-05
1.50357e-08
-2.31641e-07
1.93627e-05
-4.01417e-07
2.15427e-05
-6.21264e-07
2.39627e-05
-8.97911e-07
2.66524e-05
-1.23826e-06
2.96461e-05
-1.64938e-06
3.29772e-05
-2.13633e-06
3.6683e-05
-2.7024e-06
4.08181e-05
-3.34603e-06
4.54387e-05
-4.06155e-06
5.06187e-05
-4.83447e-06
5.64453e-05
-5.63926e-06
6.30314e-05
-6.43913e-06
7.05152e-05
-7.18147e-06
7.78141e-05
-7.80405e-06
7.8593e-05
-8.27522e-06
7.95338e-05
-8.5609e-06
8.06311e-05
-8.63554e-06
8.1861e-05
-8.48625e-06
8.32039e-05
-8.11312e-06
8.46247e-05
-7.52815e-06
9.07792e-05
-6.69435e-06
8.04191e-05
-5.85192e-06
7.11851e-05
-5.03299e-06
6.29541e-05
-4.2595e-06
5.5585e-05
-4.38538e-06
4.91942e-05
-3.56336e-06
4.34848e-05
-2.82583e-06
3.83492e-05
-2.17655e-06
3.36947e-05
-1.61253e-06
2.95322e-05
-1.12693e-06
2.57486e-05
-7.16566e-07
2.22962e-05
-3.82729e-07
1.87794e-05
-1.40159e-07
1.42099e-05
1.74047e-05
-2.31e-07
2.78197e-05
-1.04664e-07
2.85606e-05
-2.20755e-08
2.93185e-05
2.23382e-08
3.0093e-05
3.50727e-08
3.08895e-05
1.3511e-08
-3.98663e-07
1.936e-05
-6.15586e-07
2.1537e-05
-8.8847e-07
2.39533e-05
-1.22429e-06
2.66384e-05
-1.63037e-06
2.96271e-05
-2.11238e-06
3.29533e-05
-2.67473e-06
3.66553e-05
-3.31769e-06
4.07898e-05
-4.03843e-06
4.54156e-05
-4.8266e-06
5.06108e-05
-5.66234e-06
5.64684e-05
-6.51615e-06
6.31084e-05
-7.34405e-06
7.06777e-05
-8.08788e-06
7.80979e-05
-8.6802e-06
7.8998e-05
-9.09428e-06
8.00672e-05
-9.29856e-06
8.12941e-05
-9.27397e-06
8.26488e-05
-9.01503e-06
8.41058e-05
-8.52922e-06
8.56258e-05
-7.83621e-06
9.19211e-05
-6.90332e-06
8.14705e-05
-5.98296e-06
7.21351e-05
-5.1057e-06
6.38003e-05
-5.30723e-06
5.65068e-05
-4.36412e-06
4.9995e-05
-3.51534e-06
4.41743e-05
-2.76677e-06
3.89394e-05
-2.1169e-06
3.4199e-05
-1.55929e-06
2.99646e-05
-1.08479e-06
2.61168e-05
-6.88005e-07
2.26015e-05
-3.67712e-07
1.9007e-05
-1.35586e-07
1.43455e-05
1.74019e-05
-3.95825e-07
2.7813e-05
-2.24329e-07
2.85585e-05
-1.02638e-07
2.93198e-05
-2.33318e-08
3.0096e-05
1.93372e-08
3.08928e-05
3.18141e-08
3.17094e-05
1.20793e-08
-6.0989e-07
1.93543e-05
-8.79022e-07
2.15276e-05
-1.21019e-06
2.39392e-05
-1.61086e-06
2.66189e-05
-2.08708e-06
2.96018e-05
-2.64404e-06
3.29226e-05
-3.28342e-06
3.6621e-05
-4.00459e-06
4.0756e-05
-4.8005e-06
4.53895e-05
-5.65598e-06
5.06045e-05
-6.54774e-06
5.65e-05
-7.43947e-06
6.32038e-05
-8.28177e-06
7.08716e-05
-9.01e-06
7.84277e-05
-9.55518e-06
7.94589e-05
-9.89475e-06
8.06634e-05
-1.00031e-05
8.20232e-05
-9.86841e-06
8.35021e-05
-9.49275e-06
8.50694e-05
-8.89187e-06
8.66814e-05
-8.09294e-06
9.31107e-05
-7.06634e-06
8.25539e-05
-6.07497e-06
7.31044e-05
-6.36623e-06
6.48593e-05
-5.28421e-06
5.74269e-05
-4.30644e-06
5.07861e-05
-3.44189e-06
4.48495e-05
-2.6904e-06
3.95129e-05
-2.04603e-06
3.46858e-05
-1.49926e-06
3.03791e-05
-1.03882e-06
2.64676e-05
-6.57249e-07
2.2891e-05
-3.51331e-07
1.92227e-05
-1.30197e-07
1.44756e-05
1.73963e-05
-6.04298e-07
2.77995e-05
-3.82307e-07
2.85513e-05
-2.17132e-07
2.93174e-05
-1.00225e-07
3.0097e-05
-2.42863e-08
3.08955e-05
1.6572e-08
3.17125e-05
2.87216e-08
3.25533e-05
1.07427e-08
-8.69765e-07
1.9345e-05
-1.19629e-06
2.15137e-05
-1.59137e-06
2.39197e-05
-2.0613e-06
2.65932e-05
-2.6118e-06
2.95696e-05
-3.24557e-06
3.28847e-05
-3.96365e-06
3.65801e-05
-4.76162e-06
4.07171e-05
-5.62811e-06
4.53617e-05
-6.54503e-06
5.06018e-05
-7.48276e-06
5.65433e-05
-8.39984e-06
6.33219e-05
-9.2402e-06
7.11018e-05
-9.93609e-06
7.88087e-05
-1.04156e-05
7.99797e-05
-1.06646e-05
8.13248e-05
-1.06642e-05
8.2819e-05
-1.04102e-05
8.44195e-05
-9.9134e-06
8.60909e-05
-9.19787e-06
8.77863e-05
-8.2966e-06
9.4341e-05
-7.18329e-06
8.36622e-05
-7.58201e-06
7.43201e-05
-6.34323e-06
6.59183e-05
-5.2168e-06
5.83373e-05
-4.21739e-06
5.15616e-05
-3.34693e-06
4.5506e-05
-2.59994e-06
4.00668e-05
-1.96648e-06
3.5153e-05
-1.4343e-06
3.07745e-05
-9.90216e-07
2.68006e-05
-6.25089e-07
2.31648e-05
-3.34099e-07
1.94266e-05
-1.24251e-07
1.45999e-05
1.73874e-05
-8.60832e-07
2.77771e-05
-5.81921e-07
2.85371e-05
-3.68066e-07
2.93096e-05
-2.09359e-07
3.00942e-05
-9.73914e-08
3.08962e-05
-2.49391e-08
3.17151e-05
1.40421e-08
3.25563e-05
2.57931e-08
3.34192e-05
9.4979e-09
-1.18281e-06
1.93316e-05
-1.57231e-06
2.14946e-05
-2.03571e-06
2.38941e-05
-2.5791e-06
2.65605e-05
-3.20588e-06
2.95299e-05
-3.91838e-06
3.28394e-05
-4.71422e-06
3.65327e-05
-5.58506e-06
4.0674e-05
-6.5171e-06
4.53337e-05
-7.48642e-06
5.06054e-05
-8.45859e-06
5.6602e-05
-9.38557e-06
6.34673e-05
-1.02078e-05
7.13736e-05
-1.08526e-05
7.92457e-05
-1.1249e-05
8.05642e-05
-1.13926e-05
8.20532e-05
-1.1272e-05
8.36808e-05
-1.08922e-05
8.53983e-05
-1.02729e-05
8.71659e-05
-9.44477e-06
8.89345e-05
-8.44669e-06
9.56044e-05
-8.97643e-06
8.50566e-05
-7.56201e-06
7.55389e-05
-6.2665e-06
6.6968e-05
-5.11109e-06
5.9231e-05
-4.10193e-06
5.23166e-05
-3.23459e-06
4.61407e-05
-2.49865e-06
4.0599e-05
-1.88069e-06
3.55994e-05
-1.36607e-06
3.11504e-05
-9.40077e-07
2.71156e-05
-5.92244e-07
2.34229e-05
-3.16405e-07
1.96188e-05
-1.17977e-07
1.47179e-05
1.73745e-05
-1.16992e-06
2.77435e-05
-8.27237e-07
2.85138e-05
-5.5865e-07
2.92947e-05
-3.53159e-07
3.00859e-05
-2.01093e-07
3.0893e-05
-9.41628e-08
3.17154e-05
-2.52866e-08
3.25586e-05
1.1747e-08
3.3422e-05
2.30332e-08
3.43052e-05
8.3439e-09
-1.55394e-06
1.93132e-05
-2.01078e-06
2.14697e-05
-2.54673e-06
2.38617e-05
-3.16569e-06
2.65203e-05
-3.87091e-06
2.94824e-05
-4.66158e-06
3.27868e-05
-5.53178e-06
3.64794e-05
-6.47119e-06
4.06281e-05
-7.46067e-06
4.5308e-05
-8.47187e-06
5.06187e-05
-9.46405e-06
5.66805e-05
-1.03855e-05
6.3645e-05
-1.11712e-05
7.16921e-05
-1.17467e-05
7.97434e-05
-1.20434e-05
8.1215e-05
-1.20681e-05
8.28493e-05
-1.18187e-05
8.46073e-05
-1.13095e-05
8.6435e-05
-1.05679e-05
8.8289e-05
-9.6315e-06
9.01193e-05
-1.05731e-05
9.7201e-05
-8.96476e-06
8.64594e-05
-7.47746e-06
7.67499e-05
-6.14335e-06
6.80002e-05
-4.97312e-06
6.01022e-05
-3.96516e-06
5.30471e-05
-3.10888e-06
4.67509e-05
-2.38959e-06
4.11079e-05
-1.79082e-06
3.60242e-05
-1.29603e-06
3.15063e-05
-8.89382e-07
2.74127e-05
-5.59233e-07
2.36658e-05
-2.98614e-07
1.97994e-05
-1.11556e-07
1.48294e-05
1.7357e-05
-1.53644e-06
2.76963e-05
-1.12269e-06
2.84791e-05
-7.92527e-07
2.92705e-05
-5.34447e-07
3.00703e-05
-3.37527e-07
3.08842e-05
-1.92286e-07
3.17118e-05
-9.05334e-08
3.25586e-05
-2.53366e-08
3.34241e-05
9.68023e-09
3.43077e-05
2.044e-08
3.52191e-05
7.27965e-09
-1.98683e-06
1.92892e-05
-2.51525e-06
2.14382e-05
-3.12594e-06
2.3822e-05
-3.8228e-06
2.64721e-05
-4.60619e-06
2.9427e-05
-5.47211e-06
3.27271e-05
-6.41303e-06
3.64212e-05
-7.41373e-06
4.05812e-05
-8.4511e-06
4.52872e-05
-9.49079e-06
5.06454e-05
-1.04885e-05
5.67834e-05
-1.13865e-05
6.38603e-05
-1.21172e-05
7.20626e-05
-1.26061e-05
8.03061e-05
-1.27875e-05
8.19344e-05
-1.26823e-05
8.37129e-05
-1.22982e-05
8.55961e-05
-1.1658e-05
8.7525e-05
-1.07969e-05
8.94544e-05
-1.20783e-05
9.16246e-05
-1.05788e-05
9.8815e-05
-8.87617e-06
8.78581e-05
-7.33704e-06
7.79436e-05
-5.98102e-06
6.90081e-05
-4.80912e-06
6.09461e-05
-3.81197e-06
5.37502e-05
-2.97359e-06
4.73349e-05
-2.27548e-06
4.15925e-05
-1.69877e-06
3.64269e-05
-1.2255e-06
3.18424e-05
-8.38825e-07
2.76923e-05
-5.26559e-07
2.38937e-05
-2.81006e-07
1.99689e-05
-1.05118e-07
1.49346e-05
1.73342e-05
-1.96407e-06
2.76324e-05
-1.47252e-06
2.84305e-05
-1.07408e-06
2.92347e-05
-7.56779e-07
3.00452e-05
-5.09379e-07
3.08679e-05
-3.21239e-07
3.17025e-05
-1.82974e-07
3.25546e-05
-8.65192e-08
3.34238e-05
-2.50868e-08
3.43096e-05
7.83842e-09
3.52215e-05
1.80103e-08
3.6155e-05
6.30198e-09
-2.48505e-06
1.92591e-05
-3.0873e-06
2.13996e-05
-3.77519e-06
2.37743e-05
-4.54993e-06
2.64159e-05
-5.40898e-06
2.93639e-05
-6.34706e-06
3.26612e-05
-7.35216e-06
3.63597e-05
-8.40552e-06
4.05356e-05
-9.47838e-06
4.52748e-05
-1.0533e-05
5.069e-05
-1.15189e-05
5.69159e-05
-1.23755e-05
6.41186e-05
-1.30335e-05
7.249e-05
-1.34187e-05
8.09372e-05
-1.34716e-05
8.27237e-05
-1.32283e-05
8.4643e-05
-1.27057e-05
8.66438e-05
-1.19352e-05
8.86634e-05
-1.35681e-05
9.09441e-05
-1.21092e-05
9.31551e-05
-1.04928e-05
0.000100432
-8.72051e-06
8.92416e-05
-7.1494e-06
7.9112e-05
-5.78708e-06
6.99861e-05
-4.62506e-06
6.17592e-05
-3.647e-06
5.44236e-05
-2.83206e-06
4.78915e-05
-2.15868e-06
4.20524e-05
-1.6062e-06
3.68076e-05
-1.15538e-06
3.2159e-05
-7.89085e-07
2.79548e-05
-4.94602e-07
2.41073e-05
-2.63775e-07
2.01275e-05
-9.87663e-08
1.50333e-05
1.73056e-05
-2.45639e-06
2.75486e-05
-1.88027e-06
2.83648e-05
-1.4068e-06
2.91846e-05
-1.02391e-06
3.00082e-05
-7.19808e-07
3.08419e-05
-4.8344e-07
3.16855e-05
-3.04323e-07
3.25448e-05
-1.73173e-07
3.34194e-05
-8.21278e-08
3.4309e-05
-2.45414e-08
3.52231e-05
6.21329e-09
3.61572e-05
1.57405e-08
3.65889e-05
5.41912e-09
-3.05027e-06
1.9222e-05
-3.7289e-06
2.13533e-05
-4.49416e-06
2.37186e-05
-5.34461e-06
2.63515e-05
-6.27671e-06
2.92936e-05
-7.28107e-06
3.25901e-05
-8.34254e-06
3.62967e-05
-9.43711e-06
4.04944e-05
-1.05329e-05
4.52747e-05
-1.15861e-05
5.07571e-05
-1.25428e-05
5.70832e-05
-1.334e-05
6.44251e-05
-1.39075e-05
7.29787e-05
-1.4174e-05
8.16396e-05
-1.40878e-05
8.35832e-05
-1.37002e-05
8.56376e-05
-1.30378e-05
8.77463e-05
-1.5034e-05
9.01293e-05
-1.36342e-05
9.24691e-05
-1.20346e-05
9.46969e-05
-1.03265e-05
0.000102038
-8.50773e-06
9.05999e-05
-6.92343e-06
8.02483e-05
-5.5687e-06
7.09298e-05
-4.42654e-06
6.25388e-05
-3.4743e-06
5.50659e-05
-2.68718e-06
4.842e-05
-2.04129e-06
4.24875e-05
-1.51429e-06
3.71665e-05
-1.08657e-06
3.24565e-05
-7.40663e-07
2.82009e-05
-4.63607e-07
2.43071e-05
-2.47083e-07
2.02759e-05
-9.25835e-08
1.51259e-05
1.72704e-05
-3.01512e-06
2.74415e-05
-2.34929e-06
2.82792e-05
-1.79469e-06
2.91173e-05
-1.33955e-06
2.99568e-05
-9.72502e-07
3.0804e-05
-6.8189e-07
3.16588e-05
-4.5669e-07
3.25272e-05
-2.86757e-07
3.34092e-05
-1.62906e-07
3.43043e-05
-7.73777e-08
3.52223e-05
-2.3699e-08
3.61587e-05
4.79965e-09
3.6591e-05
1.36543e-08
3.55528e-05
4.65133e-09
-3.6845e-06
1.91776e-05
-4.43986e-06
2.1299e-05
-5.28061e-06
2.36546e-05
-6.20456e-06
2.62794e-05
-7.20442e-06
2.92169e-05
-8.26799e-06
3.25155e-05
-9.37528e-06
3.62349e-05
-1.04994e-05
4.04609e-05
-1.16027e-05
4.52913e-05
-1.26376e-05
5.08519e-05
-1.35475e-05
5.72907e-05
-1.42672e-05
6.47849e-05
-1.4728e-05
7.35328e-05
-1.48634e-05
8.24152e-05
-1.46294e-05
8.45124e-05
-1.40941e-05
8.66938e-05
-1.64661e-05
8.91785e-05
-1.5147e-05
9.16421e-05
-1.35812e-05
9.40157e-05
-1.18668e-05
9.62372e-05
-1.00912e-05
0.000103621
-8.24824e-06
9.19247e-05
-6.66753e-06
8.13471e-05
-5.33262e-06
7.18358e-05
-4.21846e-06
6.32829e-05
-3.29741e-06
5.56761e-05
-2.54155e-06
4.89202e-05
-1.92474e-06
4.2898e-05
-1.42415e-06
3.75041e-05
-1.0197e-06
3.27355e-05
-6.93867e-07
2.84311e-05
-4.33783e-07
2.44938e-05
-2.31053e-07
2.04143e-05
-8.66247e-08
1.52125e-05
1.72283e-05
-3.64235e-06
2.73083e-05
-2.88188e-06
2.81701e-05
-2.24019e-06
2.90296e-05
-1.70694e-06
2.9888e-05
-1.27071e-06
3.07513e-05
-9.19792e-07
3.16199e-05
-6.4296e-07
3.24998e-05
-4.29248e-07
3.33911e-05
-2.68665e-07
3.42936e-05
-1.5223e-07
3.52172e-05
-7.22961e-08
3.61575e-05
-2.25847e-08
3.65922e-05
3.60317e-09
3.55546e-05
1.18119e-08
3.45447e-05
3.9818e-09
-4.38771e-06
1.91255e-05
-5.21815e-06
2.12365e-05
-6.13253e-06
2.35825e-05