/*--------------------------------*- C++ -*----------------------------------*\
  =========                 |
  \\      /  F ield         | OpenFOAM: The Open Source CFD Toolbox
   \\    /   O peration     | Website:  https://openfoam.org
    \\  /    A nd           | Version:  8
     \\/     M anipulation  |
\*---------------------------------------------------------------------------*/
FoamFile
{
    version     2.0;
    format      ascii;
    class       volVectorField;
    location    "0.1";
    object      U;
}
// * * * * * * * * * * * * * * * * * * * * * * * * * * * * * * * * * * * * * //

dimensions      [0 1 -1 0 0 0 0];

internalField   nonuniform List<vector> 
15677
(
(-0.0199313 9.66506 0)
(0.0435743 9.92084 0)
(0.00238153 9.37803 0)
(0.0147378 9.97646 0)
(0.0186115 9.78777 0)
(0.00701848 9.14238 0)
(0.0279626 9.99433 0)
(0.0171061 9.92481 0)
(0.0107314 9.65499 0)
(0.00608191 8.96011 0)
(0.0261095 10.0015 0)
(0.0215017 9.97855 0)
(0.0163912 9.85343 0)
(0.00901755 9.53037 0)
(0.00490711 8.81685 0)
(0.0249558 10.0047 0)
(0.0223739 10.0027 0)
(0.0191777 9.94293 0)
(0.0153673 9.77933 0)
(0.00788105 9.41953 0)
(0.00403666 8.70235 0)
(0.0239785 10.0062 0)
(0.02255 10.0143 0)
(0.0207875 9.98612 0)
(0.0182757 9.90242 0)
(0.0138942 9.70796 0)
(0.00680755 9.32149 0)
(0.0033678 8.61009 0)
(0.0226384 10.0067 0)
(0.0223861 10.0199 0)
(0.0216133 10.0081 0)
(0.0201735 9.965 0)
(0.0170391 9.86193 0)
(0.0124614 9.64087 0)
(0.00585805 9.23632 0)
(0.00280733 8.53607 0)
(0.0209536 10.0067 0)
(0.0218451 10.0223 0)
(0.0219368 10.0196 0)
(0.0212632 9.99814 0)
(0.0190767 9.9438 0)
(0.0156493 9.82245 0)
(0.0110949 9.57966 0)
(0.00497981 9.16406 0)
(0.00229109 8.47758 0)
(0.0190368 10.0063 0)
(0.0210074 10.0226 0)
(0.021829 10.0255 0)
(0.0217609 10.0163 0)
(0.0202476 9.98828 0)
(0.0177081 9.923 0)
(0.0141752 9.78549 0)
(0.00970187 9.52575 0)
(0.00411537 9.10449 0)
(0.00178085 8.4331 0)
(0.016964 10.0057 0)
(0.0199458 10.0218 0)
(0.0213754 10.0284 0)
(0.0217877 10.0263 0)
(0.0207925 10.0132 0)
(0.0188553 9.97885 0)
(0.0161573 9.9038 0)
(0.0125489 9.75252 0)
(0.0082192 9.48012 0)
(0.00321948 9.05739 0)
(0.0012477 8.40165 0)
(0.0147593 10.0051 0)
(0.0186485 10.0203 0)
(0.0206143 10.0292 0)
(0.0214656 10.0317 0)
(0.0208403 10.0275 0)
(0.0193158 10.0107 0)
(0.0171806 9.97084 0)
(0.0143413 9.8874 0)
(0.0107061 9.72471 0)
(0.00659776 9.44354 0)
(0.00225154 9.02271 0)
(0.000669395 8.38296 0)
(0.0124432 10.0044 0)
(0.0172151 10.0183 0)
(0.0195555 10.0285 0)
(0.0207984 10.0342 0)
(0.02045 10.0355 0)
(0.0192406 10.0292 0)
(0.0174572 10.0094 0)
(0.0151281 9.96529 0)
(0.0121799 9.87481 0)
(0.00858702 9.70312 0)
(0.00478698 9.41676 0)
(0.00117783 9.0005 0)
(-4.47763e-06 8.3768 0)
(0.0101667 10.0036 0)
(0.0157171 10.0161 0)
(0.0182425 10.0268 0)
(0.0198098 10.0346 0)
(0.0197304 10.0397 0)
(0.0187134 10.0399 0)
(0.0171464 10.0321 0)
(0.0151031 10.0106 0)
(0.012602 9.9631 0)
(0.00959675 9.86701 0)
(0.00612751 9.68879 0)
(0.00274003 9.40042 0)
(-6.43676e-06 8.99092 0)
(-0.000644202 8.38315 0)
(0.00821409 10.0029 0)
(0.0141083 10.0136 0)
(0.0167265 10.0245 0)
(0.0185123 10.0336 0)
(0.0186662 10.0412 0)
(0.0177937 10.0458 0)
(0.0163399 10.0455 0)
(0.0144263 10.0374 0)
(0.0121383 10.0148 0)
(0.00950541 9.96512 0)
(0.00650921 9.86499 0)
(0.00326494 9.68271 0)
(0.000408151 9.39516 0)
(-0.00137056 8.9943 0)
(-0.00141519 8.40213 0)
(0.00665763 10.0023 0)
(0.0125526 10.0113 0)
(0.0150361 10.0217 0)
(0.0169189 10.0315 0)
(0.0172648 10.0409 0)
(0.0164928 10.0485 0)
(0.015083 10.0532 0)
(0.0131906 10.0533 0)
(0.0109449 10.0456 0)
(0.00844496 10.0231 0)
(0.00573226 9.97227 0)
(0.00283485 9.86975 0)
(-9.01119e-05 9.68582 0)
(-0.00224518 9.40162 0)
(-0.00291901 9.01078 0)
(-0.00229152 8.43403 0)
(0.00550023 10.0018 0)
(0.011147 10.0093 0)
(0.0133761 10.0189 0)
(0.0150569 10.0286 0)
(0.015531 10.0391 0)
(0.0148166 10.0489 0)
(0.0133926 10.0571 0)
(0.0114382 10.0626 0)
(0.00911158 10.064 0)
(0.00656037 10.0576 0)
(0.00389197 10.0361 0)
(0.00118397 9.98546 0)
(-0.00148947 9.88228 0)
(-0.00388854 9.69898 0)
(-0.00523443 9.42033 0)
(-0.00465054 9.04064 0)
(-0.00326621 8.47891 0)
(0.00453197 10.0014 0)
(0.00976264 10.0077 0)
(0.0118694 10.0165 0)
(0.0131715 10.0257 0)
(0.0134788 10.0363 0)
(0.0127678 10.0476 0)
(0.0112719 10.0582 0)
(0.00918327 10.0675 0)
(0.00667688 10.0749 0)
(0.00393541 10.0784 0)
(0.00111619 10.0743 0)
(-0.00164962 10.0548 0)
(-0.00425825 10.0056 0)
(-0.00656637 9.90349 0)
(-0.0082587 9.72299 0)
(-0.00860231 9.45171 0)
(-0.00657506 9.08393 0)
(-0.00433542 8.53682 0)
(0.00374525 10.0011 0)
(0.00852142 10.0064 0)
(0.0104399 10.0143 0)
(0.0114291 10.0229 0)
(0.0113642 10.0331 0)
(0.0103561 10.0449 0)
(0.00872081 10.0572 0)
(0.00642562 10.0693 0)
(0.00364918 10.0807 0)
(0.000600948 10.0907 0)
(-0.00252649 10.0972 0)
(-0.00555853 10.0963 0)
(-0.00832413 10.08 0)
(-0.010681 10.0336 0)
(-0.0124376 9.93425 0)
(-0.0132284 9.75847 0)
(-0.0123644 9.49606 0)
(-0.00869964 9.14078 0)
(-0.00549728 8.60762 0)
(0.00310475 10.0009 0)
(0.00740221 10.0053 0)
(0.00912945 10.0124 0)
(0.00978969 10.0205 0)
(0.00938245 10.03 0)
(0.0078721 10.0414 0)
(0.00574783 10.0545 0)
(0.0031628 10.0686 0)
(2.40628e-05 10.083 0)
(-0.00344241 10.0973 0)
(-0.00701482 10.1107 0)
(-0.0104768 10.1212 0)
(-0.0136158 10.1246 0)
(-0.016236 10.1126 0)
(-0.0181522 10.0703 0)
(-0.0191387 9.97526 0)
(-0.0188032 9.80593 0)
(-0.0165178 9.55354 0)
(-0.0110125 9.21096 0)
(-0.0067408 8.69097 0)
(0.00257863 10.0008 0)
(0.00639073 10.0045 0)
(0.00792329 10.0109 0)
(0.00826875 10.0182 0)
(0.00750801 10.0271 0)
(0.00554612 10.038 0)
(0.00270547 10.0508 0)
(-0.000594363 10.0658 0)
(-0.00420038 10.0824 0)
(-0.00820435 10.0999 0)
(-0.0123557 10.118 0)
(-0.0164042 10.1358 0)
(-0.0200991 10.1512 0)
(-0.0232002 10.1599 0)
(-0.0254799 10.1533 0)
(-0.0267266 10.1163 0)
(-0.0266881 10.0271 0)
(-0.0249767 9.86562 0)
(-0.0210488 9.62409 0)
(-0.0135061 9.29428 0)
(-0.00805851 8.78645 0)
(0.0021608 10.0006 0)
(0.00548099 10.0038 0)
(0.00681618 10.0095 0)
(0.00686877 10.0162 0)
(0.00576057 10.0244 0)
(0.00335283 10.0345 0)
(-0.000127574 10.0469 0)
(-0.00440484 10.0618 0)
(-0.00901067 10.0794 0)
(-0.0136891 10.0993 0)
(-0.018569 10.1208 0)
(-0.0233661 10.1436 0)
(-0.0277929 10.1667 0)
(-0.0315706 10.1881 0)
(-0.0344301 10.203 0)
(-0.0361264 10.2029 0)
(-0.0364293 10.1724 0)
(-0.0350805 10.0902 0)
(-0.0317267 9.93768 0)
(-0.0259283 9.70751 0)
(-0.0161498 9.39011 0)
(-0.00942882 8.89323 0)
(0.00184014 10.0005 0)
(0.00470421 10.0032 0)
(0.0058062 10.0083 0)
(0.00559189 10.0144 0)
(0.00415331 10.0219 0)
(0.00131837 10.0312 0)
(-0.00278201 10.0429 0)
(-0.00793254 10.0572 0)
(-0.0138509 10.0748 0)
(-0.0198794 10.0959 0)
(-0.0256629 10.12 0)
(-0.0313933 10.1464 0)
(-0.0367426 10.1748 0)
(-0.0413914 10.2043 0)
(-0.0450351 10.2324 0)
(-0.047392 10.2546 0)
(-0.0482077 10.2618 0)
(-0.0472527 10.2388 0)
(-0.0442852 10.1648 0)
(-0.0390084 10.022 0)
(-0.0311133 9.80334 0)
(-0.0189231 9.49788 0)
(-0.010834 9.01058 0)
(0.00159107 10.0005 0)
(0.00407457 10.0028 0)
(0.00492879 10.0073 0)
(0.00443795 10.0128 0)
(0.00269435 10.0195 0)
(-0.000537146 10.0281 0)
(-0.00522381 10.0389 0)
(-0.0112194 10.0524 0)
(-0.0183053 10.0695 0)
(-0.0260644 10.0905 0)
(-0.0336144 10.1159 0)
(-0.0404984 10.1451 0)
(-0.0469938 10.1774 0)
(-0.0527339 10.2125 0)
(-0.0573735 10.2491 0)
(-0.0605994 10.285 0)
(-0.0621285 10.3152 0)
(-0.0617175 10.3306 0)
(-0.0591553 10.3158 0)
(-0.054239 10.2508 0)
(-0.0467574 10.1182 0)
(-0.0365501 9.91097 0)
(-0.021768 9.61656 0)
(-0.0122347 9.1369 0)
(0.00139418 10.0004 0)
(0.00356566 10.0025 0)
(0.00420288 10.0065 0)
(0.00344873 10.0114 0)
(0.00138776 10.0174 0)
(-0.00220104 10.0251 0)
(-0.0074275 10.035 0)
(-0.0142199 10.0475 0)
(-0.0224312 10.0637 0)
(-0.0317261 10.0841 0)
(-0.0415156 10.1094 0)
(-0.0506525 10.1401 0)
(-0.0585666 10.1755 0)
(-0.0656641 10.2147 0)
(-0.0715494 10.2572 0)
(-0.0758706 10.3019 0)
(-0.0783198 10.3463 0)
(-0.0786351 10.3852 0)
(-0.0766033 10.4094 0)
(-0.0720573 10.4036 0)
(-0.0648559 10.3479 0)
(-0.0548873 10.2257 0)
(-0.0421268 10.0295 0)
(-0.0245744 9.74484 0)
(-0.0131914 9.27048 0)
(0.00123626 10.0004 0)
(0.00315217 10.0022 0)
(0.00360489 10.0058 0)
(0.00264472 10.0102 0)
(0.00028492 10.0155 0)
(-0.00366707 10.0223 0)
(-0.00937502 10.0312 0)
(-0.0168998 10.0427 0)
(-0.0261716 10.0577 0)
(-0.0369439 10.0771 0)
(-0.0487186 10.1017 0)
(-0.0607015 10.1323 0)
(-0.0714262 10.1692 0)
(-0.080214 10.2117 0)
(-0.0876561 10.2587 0)
(-0.0933497 10.3097 0)
(-0.0969543 10.3632 0)
(-0.098194 10.4167 0)
(-0.0968522 10.4649 0)
(-0.0927728 10.4983 0)
(-0.0858463 10.5018 0)
(-0.0760127 10.4558 0)
(-0.0632562 10.3438 0)
(-0.0477931 10.1577 0)
(-0.0273566 9.88247 0)
(-0.0142611 9.41131 0)
(0.00110796 10.0003 0)
(0.00281404 10.002 0)
(0.00311302 10.0053 0)
(0.00199495 10.0092 0)
(-0.000590945 10.0138 0)
(-0.00487634 10.0197 0)
(-0.0110551 10.0275 0)
(-0.0192342 10.0379 0)
(-0.029482 10.0516 0)
(-0.0416474 10.0697 0)
(-0.0553317 10.0931 0)
(-0.0698367 10.1229 0)
(-0.0841194 10.1596 0)
(-0.0963447 10.2039 0)
(-0.105741 10.2546 0)
(-0.113163 10.3103 0)
(-0.118227 10.3705 0)
(-0.120633 10.4335 0)
(-0.120164 10.4966 0)
(-0.116674 10.5543 0)
(-0.110083 10.5972 0)
(-0.100365 10.6101 0)
(-0.0875347 10.5737 0)
(-0.0717118 10.4714 0)
(-0.0526584 10.2949 0)
(-0.0237402 10.0229 0)
(-0.00928114 9.49673 0)
(0.00100244 10.0003 0)
(0.00253435 10.0018 0)
(0.00270264 10.0049 0)
(0.001468 10.0084 0)
(-0.00127878 10.0124 0)
(-0.00580927 10.0175 0)
(-0.0124006 10.0241 0)
(-0.0212063 10.0332 0)
(-0.0323289 10.0455 0)
(-0.0457795 10.062 0)
(-0.0612681 10.0839 0)
(-0.0782027 10.1123 0)
(-0.0956387 10.1482 0)
(-0.112241 10.1922 0)
(-0.125762 10.2449 0)
(-0.135384 10.3047 0)
(-0.142312 10.37 0)
(-0.146206 10.44 0)
(-0.146842 10.513 0)
(-0.144096 10.586 0)
(-0.137924 10.6534 0)
(-0.128344 10.7058 0)
(-0.115397 10.728 0)
(-0.0992084 10.7007 0)
(-0.0796722 10.6076 0)
(-0.0573499 10.438 0)
(-0.0193981 10.1942 0)
(-0.00146305 9.5624 0)
(0.000914698 10.0003 0)
(0.00230265 10.0017 0)
(0.00235886 10.0045 0)
(0.00104319 10.0077 0)
(-0.00181832 10.0112 0)
(-0.00651533 10.0156 0)
(-0.0133989 10.0212 0)
(-0.022737 10.0287 0)
(-0.0346881 10.0394 0)
(-0.0492955 10.0542 0)
(-0.066455 10.0743 0)
(-0.0856924 10.1009 0)
(-0.106174 10.1352 0)
(-0.126656 10.1782 0)
(-0.145484 10.2306 0)
(-0.159976 10.2927 0)
(-0.169308 10.3626 0)
(-0.175131 10.4383 0)
(-0.177206 10.5186 0)
(-0.175427 10.6018 0)
(-0.169792 10.6848 0)
(-0.160379 10.7619 0)
(-0.147296 10.8235 0)
(-0.13068 10.8546 0)
(-0.110499 10.836 0)
(-0.0866602 10.7511 0)
(-0.0611142 10.5948 0)
(-0.0213387 10.3672 0)
(0.00258642 9.61964 0)
(0.000841033 10.0002 0)
(0.00210966 10.0016 0)
(0.00207221 10.0041 0)
(0.000700009 10.007 0)
(-0.00223951 10.0102 0)
(-0.00704336 10.0139 0)
(-0.0141159 10.0186 0)
(-0.0238224 10.0248 0)
(-0.0364649 10.0336 0)
(-0.0521624 10.0464 0)
(-0.0708337 10.0644 0)
(-0.0922136 10.0889 0)
(-0.115592 10.1211 0)
(-0.139837 10.1624 0)
(-0.163375 10.2137 0)
(-0.184208 10.2755 0)
(-0.199186 10.3481 0)
(-0.207553 10.4289 0)
(-0.211545 10.5154 0)
(-0.21107 10.6064 0)
(-0.20617 10.7 0)
(-0.196996 10.7928 0)
(-0.183747 10.8793 0)
(-0.166637 10.9497 0)
(-0.145717 10.9891 0)
(-0.120866 10.9788 0)
(-0.0922226 10.9028 0)
(-0.0625422 10.7644 0)
(-0.0246814 10.5372 0)
(0.00350782 9.67649 0)
(0.00077871 10.0002 0)
(0.00194801 10.0015 0)
(0.00183441 10.0039 0)
(0.000419263 10.0065 0)
(-0.00256745 10.0093 0)
(-0.00743246 10.0125 0)
(-0.0146149 10.0163 0)
(-0.0245514 10.0213 0)
(-0.037667 10.0284 0)
(-0.0542647 10.0389 0)
(-0.0743597 10.0544 0)
(-0.0976901 10.0764 0)
(-0.123779 10.1062 0)
(-0.15162 10.1451 0)
(-0.179742 10.1945 0)
(-0.206208 10.2552 0)
(-0.228652 10.3274 0)
(-0.243468 10.4114 0)
(-0.250065 10.5038 0)
(-0.251397 10.6015 0)
(-0.24756 10.7034 0)
(-0.238786 10.8072 0)
(-0.225383 10.9096 0)
(-0.207686 11.0049 0)
(-0.185908 11.0836 0)
(-0.160076 11.131 0)
(-0.130502 11.1287 0)
(-0.0973881 11.0626 0)
(-0.0643305 10.9415 0)
(-0.0274259 10.7027 0)
(0.00313111 9.75014 0)
(0.000725632 10.0002 0)
(0.0018118 10.0014 0)
(0.00163724 10.0036 0)
(0.000187668 10.0061 0)
(-0.00282257 10.0086 0)
(-0.00771402 10.0113 0)
(-0.0149465 10.0144 0)
(-0.0250074 10.0183 0)
(-0.0384135 10.0239 0)
(-0.0556245 10.0321 0)
(-0.0768901 10.0447 0)
(-0.102062 10.0637 0)
(-0.130636 10.0906 0)
(-0.161861 10.1266 0)
(-0.19439 10.1734 0)
(-0.226366 10.2321 0)
(-0.255452 10.3033 0)
(-0.278948 10.387 0)
(-0.292793 10.4831 0)
(-0.296683 10.5876 0)
(-0.294424 10.6969 0)
(-0.28635 10.8095 0)
(-0.272906 10.9232 0)
(-0.254568 11.0347 0)
(-0.231757 11.1382 0)
(-0.204728 11.2246 0)
(-0.173914 11.2796 0)
(-0.14009 11.2849 0)
(-0.103374 11.2296 0)
(-0.066958 11.1207 0)
(-0.0302717 10.8829 0)
(0.00204745 9.83474 0)
(0.000680144 10.0002 0)
(0.00169639 10.0013 0)
(0.00147104 10.0034 0)
(-3.78641e-06 10.0056 0)
(-0.0030207 10.0079 0)
(-0.00791291 10.0102 0)
(-0.015151 10.0126 0)
(-0.025257 10.0156 0)
(-0.038814 10.0198 0)
(-0.0563996 10.0261 0)
(-0.0784637 10.036 0)
(-0.105151 10.0514 0)
(-0.136083 10.0746 0)
(-0.170434 10.1073 0)
(-0.207137 10.1509 0)
(-0.244442 10.2067 0)
(-0.280067 10.2758 0)
(-0.311291 10.3586 0)
(-0.335097 10.4546 0)
(-0.347004 10.5635 0)
(-0.347123 10.6804 0)
(-0.340261 10.8012 0)
(-0.327032 10.9243 0)
(-0.308108 11.0475 0)
(-0.284117 11.1674 0)
(-0.255591 11.2786 0)
(-0.223121 11.3722 0)
(-0.187591 11.434 0)
(-0.149988 11.4465 0)
(-0.110139 11.4008 0)
(-0.0708427 11.3208 0)
(-0.0332727 11.0779 0)
(0.000350876 9.92839 0)
(0.000640972 10.0002 0)
(0.00159809 10.0013 0)
(0.0013303 10.0032 0)
(-0.000160611 10.0053 0)
(-0.00317415 10.0073 0)
(-0.00804865 10.0092 0)
(-0.0152602 10.0111 0)
(-0.025353 10.0133 0)
(-0.0389563 10.0162 0)
(-0.0567337 10.0208 0)
(-0.0792875 10.0282 0)
(-0.107015 10.0402 0)
(-0.139895 10.059 0)
(-0.177235 10.0874 0)
(-0.217824 10.1271 0)
(-0.260212 10.1793 0)
(-0.302203 10.2454 0)
(-0.341086 10.3261 0)
(-0.373771 10.4215 0)
(-0.39696 10.5307 0)
(-0.405806 10.6528 0)
(-0.40099 10.7823 0)
(-0.388464 10.9144 0)
(-0.369146 11.0475 0)
(-0.343942 11.1795 0)
(-0.313654 11.3072 0)
(-0.27911 11.4253 0)
(-0.241298 11.5253 0)
(-0.201352 11.5931 0)
(-0.160105 11.6113 0)
(-0.117928 11.5946 0)
(-0.0756374 11.54 0)
(-0.0364339 11.2681 0)
(-0.00154462 10.0292 0)
(0.000607418 10.0002 0)
(0.00151364 10.0012 0)
(0.00121065 10.0031 0)
(-0.000289649 10.005 0)
(-0.00329238 10.0068 0)
(-0.00813652 10.0084 0)
(-0.0152989 10.0098 0)
(-0.0253366 10.0112 0)
(-0.0389096 10.0131 0)
(-0.0567419 10.0161 0)
(-0.0795483 10.0213 0)
(-0.10792 10.0301 0)
(-0.142149 10.0448 0)
(-0.181977 10.0679 0)
(-0.226315 10.1025 0)
(-0.273477 10.1505 0)
(-0.321587 10.2126 0)
(-0.367982 10.2902 0)
(-0.409525 10.3836 0)
(-0.44278 10.4925 0)
(-0.464243 10.6154 0)
(-0.468781 10.751 0)
(-0.4578 10.893 0)
(-0.438527 11.0359 0)
(-0.412207 11.1784 0)
(-0.380001 11.3185 0)
(-0.343004 11.4532 0)
(-0.302397 11.5775 0)
(-0.259428 11.6829 0)
(-0.215165 11.755 0)
(-0.171231 11.7979 0)
(-0.126417 11.8093 0)
(-0.0807546 11.755 0)
(-0.0395113 11.4533 0)
(-0.00336952 10.1347 0)
(0.00144011 10.0012 0)
(0.000567493 10.0002 0)
(0.00110768 10.003 0)
(-0.000396346 10.0047 0)
(-0.00338283 10.0063 0)
(-0.00818829 10.0076 0)
(-0.0152863 10.0086 0)
(-0.02524 10.0094 0)
(-0.0387279 10.0103 0)
(-0.0565145 10.0119 0)
(-0.0793955 10.0151 0)
(-0.108107 10.0212 0)
(-0.143185 10.032 0)
(-0.184755 10.05 0)
(-0.232244 10.0784 0)
(-0.28406 10.1204 0)
(-0.337969 10.1779 0)
(-0.391645 10.2513 0)
(-0.441942 10.3416 0)
(-0.485313 10.4488 0)
(-0.518045 10.5719 0)
(-0.536521 10.709 0)
(-0.535408 10.8581 0)
(-0.516997 11.0122 0)
(-0.489915 11.1654 0)
(-0.455761 11.3165 0)
(-0.416014 11.4639 0)
(-0.372119 11.6046 0)
(-0.325505 11.734 0)
(-0.277441 11.843 0)
(-0.230348 11.9377 0)
(-0.183134 12.0052 0)
(-0.134631 12.0216 0)
(-0.0858517 11.9643 0)
(-0.0423712 11.6327 0)
(-0.00511712 10.2429 0)
(0.00101795 10.0028 0)
(0.0013559 10.0011 0)
(0.00051985 10.0002 0)
(-0.000485838 10.0045 0)
(-0.00345156 10.0059 0)
(-0.00821283 10.007 0)
(-0.0152373 10.0076 0)
(-0.0250881 10.0078 0)
(-0.038453 10.0079 0)
(-0.0561222 10.0082 0)
(-0.0789468 10.0096 0)
(-0.107769 10.0132 0)
(-0.14331 10.0206 0)
(-0.185998 10.0339 0)
(-0.235722 10.0562 0)
(-0.291495 10.0908 0)
(-0.351122 10.1415 0)
(-0.411765 10.2099 0)
(-0.470621 10.2959 0)
(-0.524071 10.4001 0)
(-0.568213 10.522 0)
(-0.599143 10.66 0)
(-0.613244 10.8113 0)
(-0.605076 10.9738 0)
(-0.577984 11.1394 0)
(-0.542106 11.3022 0)
(-0.499432 11.4611 0)
(-0.451802 11.6147 0)
(-0.400925 11.7604 0)
(-0.348293 11.8932 0)
(-0.297139 12.0238 0)
(-0.24648 12.1404 0)
(-0.194471 12.2108 0)
(-0.142389 12.2293 0)
(-0.0906924 12.1666 0)
(-0.0449454 11.8058 0)
(-0.0067452 10.352 0)
(-0.000564619 10.0043 0)
(0.000925636 10.0027 0)
(0.00125388 10.001 0)
(0.000474432 10.0001 4.12982e-20)
(-0.00350474 10.0056 0)
(-0.00821724 10.0064 0)
(-0.0151628 10.0067 0)
(-0.0248997 10.0064 0)
(-0.0381171 10.0057 0)
(-0.0556194 10.005 0)
(-0.0782938 10.0048 0)
(-0.107057 10.0061 0)
(-0.142769 10.0103 0)
(-0.186089 10.0195 0)
(-0.237278 10.0361 0)
(-0.2959 10.0635 0)
(-0.360454 10.1056 0)
(-0.428054 10.1665 0)
(-0.495181 10.2472 0)
(-0.558573 10.3471 0)
(-0.61418 10.4663 0)
(-0.657821 10.6037 0)
(-0.68551 10.7568 0)
(-0.693754 10.9224 0)
(-0.677119 11.0977 0)
(-0.640155 11.2742 0)
(-0.594623 11.4455 0)
(-0.542915 11.6111 0)
(-0.487167 11.7699 0)
(-0.429216 11.919 0)
(-0.373095 12.0728 0)
(-0.317974 12.2242 0)
(-0.261665 12.3414 0)
(-0.205086 12.4127 0)
(-0.149538 12.4308 0)
(-0.0951565 12.3612 0)
(-0.0472051 11.9722 0)
(-0.00822137 10.4603 0)
(-0.00355218 10.0053 0)
(-0.000628337 10.0041 0)
(0.000821116 10.0025 1.87941e-19)
(0.001154 10.0009 -1.30933e-19)
(0.000431185 10.0001 -8.10595e-20)
(-0.0082085 10.0059 0)
(-0.015071 10.0059 0)
(-0.0246883 10.0052 0)
(-0.0377445 10.0038 0)
(-0.0550478 10.0021 0)
(-0.0775072 10.0005 0)
(-0.10609 9.99984 0)
(-0.141756 10.0013 0)
(-0.185339 10.0065 0)
(-0.23739 10.018 0)
(-0.29792 10.0387 0)
(-0.366076 10.0724 0)
(-0.439757 10.1234 0)
(-0.515258 10.1958 0)
(-0.588358 10.2903 0)
(-0.65538 10.4054 0)
(-0.711902 10.5406 0)
(-0.753574 10.6939 0)
(-0.776456 10.8623 0)
(-0.777317 11.0418 0)
(-0.750836 11.2294 0)
(-0.702923 11.4158 0)
(-0.647031 11.5946 0)
(-0.585894 11.7658 0)
(-0.521834 11.928 0)
(-0.459917 12.0981 0)
(-0.399284 12.2722 0)
(-0.33748 12.4229 0)
(-0.275759 12.5389 0)
(-0.214831 12.6091 0)
(-0.156002 12.6251 0)
(-0.0991853 12.5475 0)
(-0.0491555 12.1315 0)
(-0.0095342 10.5667 0)
(-0.00820194 10.0055 0)
(-0.00355263 10.0049 -4.24575e-19)
(-0.000681641 10.0038 -1.98602e-19)
(0.000722701 10.0023 9.22377e-20)
(0.00105827 10.0009 -8.56474e-20)
(0.000390163 10.0001 0)
(-0.0149698 10.0052 0)
(-0.0244638 10.0041 0)
(-0.0373524 10.0021 0)
(-0.0544387 9.99958 0)
(-0.076641 9.99674 0)
(-0.104959 9.99427 0)
(-0.140421 9.99321 0)
(-0.183992 9.99504 0)
(-0.236443 10.0019 0)
(-0.29814 10.0164 0)
(-0.368764 10.0422 0)
(-0.446964 10.0834 0)
(-0.5299 10.1447 0)
(-0.612974 10.2302 0)
(-0.691259 10.3398 0)
(-0.760732 10.4713 0)
(-0.816701 10.6232 0)
(-0.85477 10.7928 0)
(-0.871191 10.9764 0)
(-0.863138 11.1693 0)
(-0.825517 11.3683 0)
(-0.765718 11.5633 0)
(-0.698895 11.7485 0)
(-0.62802 11.9236 0)
(-0.559399 12.1069 0)
(-0.49231 12.2971 0)
(-0.423766 12.4701 0)
(-0.35551 12.6183 0)
(-0.288617 12.7314 0)
(-0.223627 12.799 0)
(-0.161757 12.8113 0)
(-0.102757 12.7251 0)
(-0.0508189 12.2834 0)
(-0.0106846 10.6699 0)
(-0.0148827 10.0046 0)
(-0.00810101 10.005 8.9726e-19)
(-0.00349633 10.0045 0)
(-0.000729706 10.0035 1.94875e-19)
(0.000631015 10.0022 3.3453e-23)
(0.000966602 10.0008 0)
(0.000351388 10.0001 0)
(-0.0242347 10.0031 0)
(-0.0369522 10.0007 0)
(-0.0538141 9.99734 0)
(-0.0757356 9.99339 0)
(-0.103733 9.98935 0)
(-0.138882 9.98606 0)
(-0.182239 9.98481 0)
(-0.234743 9.98744 0)
(-0.297035 9.99642 0)
(-0.369226 10.0149 0)
(-0.450591 10.047 0)
(-0.539146 10.0971 0)
(-0.631224 10.1701 0)
(-0.721263 10.2702 0)
(-0.803653 10.3964 0)
(-0.874138 10.5452 0)
(-0.927881 10.7144 0)
(-0.960587 10.9004 0)
(-0.968854 11.0988 0)
(-0.950397 11.3044 0)
(-0.90045 11.5135 0)
(-0.827978 11.7161 0)
(-0.749765 11.9058 0)
(-0.673657 12.1023 0)
(-0.599048 12.306 0)
(-0.522577 12.4948 0)
(-0.446367 12.6647 0)
(-0.371936 12.8087 0)
(-0.300182 12.9176 0)
(-0.231448 12.9814 0)
(-0.166812 12.9892 0)
(-0.105879 12.8939 0)
(-0.0522237 12.4277 0)
(-0.0116794 10.7695 0)
(-0.0240363 10.0023 0)
(-0.0146331 10.0039 1.18228e-22)
(-0.00786707 10.0043 0)
(-0.00343584 10.004 -2.05912e-19)
(-0.000768701 10.0032 1.99629e-23)
(0.000545832 10.002 0)
(0.000878939 10.0007 0)
(0.000314868 10.0001 0)
(-0.0365536 9.99935 0)
(-0.0531877 9.99535 0)
(-0.0748191 9.99043 0)
(-0.102465 9.98499 0)
(-0.137227 9.97973 0)
(-0.180228 9.97573 0)
(-0.232529 9.9746 0)
(-0.294984 9.97852 0)
(-0.36804 9.99042 0)
(-0.451486 10.014 0)
(-0.544063 10.0535 0)
(-0.643062 10.1139 0)
(-0.743899 10.2004 0)
(-0.839991 10.3166 0)
(-0.925113 10.4607 0)
(-0.994928 10.6276 0)
(-1.04461 10.8143 0)
(-1.07011 11.0165 0)
(-1.06854 11.229 0)
(-1.03827 11.4462 0)
(-0.974946 11.6642 0)
(-0.889132 11.8726 0)
(-0.804906 12.0844 0)
(-0.721857 12.3017 0)
(-0.636116 12.504 0)
(-0.550515 12.6895 0)
(-0.466966 12.8545 0)
(-0.386705 12.9931 0)
(-0.310452 13.0967 0)
(-0.238318 13.1559 0)
(-0.171199 13.1583 0)
(-0.108574 13.0537 0)
(-0.0533974 12.5643 0)
(-0.0125296 10.8647 0)
(-0.0362081 9.99819 0)
(-0.0235805 10.0013 -5.00938e-19)
(-0.0141343 10.003 0)
(-0.00763159 10.0037 0)
(-0.00336246 10.0036 6.06248e-19)
(-0.000798271 10.0029 0)
(0.000467131 10.0019 0)
(0.000795369 10.0007 1.61924e-19)
(0.00028063 10.0001 0)
(-0.0525704 9.9936 0)
(-0.0739079 9.98781 0)
(-0.101189 9.98113 0)
(-0.135523 9.97411 0)
(-0.178072 9.96767 0)
(-0.229989 9.96318 0)
(-0.292284 9.96257 0)
(-0.365671 9.96846 0)
(-0.450347 9.9842 0)
(-0.545655 10.0139 0)
(-0.649713 10.0624 0)
(-0.758989 10.1348 0)
(-0.867902 10.2362 0)
(-0.968823 10.3701 0)
(-1.05503 10.533 0)
(-1.12228 10.7186 0)
(-1.16592 10.923 0)
(-1.18236 11.1409 0)
(-1.16933 11.3667 0)
(-1.12596 11.5942 0)
(-1.04832 11.8194 0)
(-0.955518 12.0508 0)
(-0.863202 12.2841 0)
(-0.766954 12.5004 0)
(-0.670347 12.6994 0)
(-0.575988 12.8797 0)
(-0.485506 13.0386 0)
(-0.399834 13.1707 0)
(-0.319471 13.2683 0)
(-0.244289 13.3221 0)
(-0.174963 13.3185 0)
(-0.110876 13.2046 0)
(-0.0543677 12.6932 0)
(-0.013248 10.9554 0)
(-0.052036 9.99204 0)
(-0.035475 9.9969 0)
(-0.0227069 10.0002 -4.95346e-19)
(-0.0136396 10.0022 -4.5994e-19)
(-0.00737867 10.0032 -8.54166e-19)
(-0.00327452 10.0032 0)
(-0.000818321 10.0026 -3.68401e-19)
(0.000395053 10.0017 -3.42184e-19)
(0.000715937 10.0006 1.58913e-19)
(0.000248632 10.0001 0)
(-0.0730146 9.98549 0)
(-0.0999272 9.97771 0)
(-0.133815 9.96914 0)
(-0.175857 9.96052 0)
(-0.227264 9.95304 0)
(-0.289167 9.94836 0)
(-0.362482 9.94884 0)
(-0.447732 9.9575 0)
(-0.544751 9.97817 0)
(-0.652349 10.0154 0)
(-0.767921 10.0744 0)
(-0.887022 10.1604 0)
(-1.00301 10.2784 0)
(-1.10723 10.4312 0)
(-1.19261 10.6138 0)
(-1.25523 10.8185 0)
(-1.2908 11.0403 0)
(-1.29631 11.2732 0)
(-1.27028 11.511 0)
(-1.21264 11.7472 0)
(-1.12824 11.9967 0)
(-1.02587 12.2507 0)
(-0.917814 12.4836 0)
(-0.808629 12.6968 0)
(-0.701583 12.8904 0)
(-0.598942 13.0642 0)
(-0.502008 13.216 0)
(-0.411384 13.3409 0)
(-0.32731 13.4319 0)
(-0.249423 13.4797 0)
(-0.178153 13.4699 0)
(-0.11282 13.3467 0)
(-0.0551615 12.8144 0)
(-0.0138476 11.0413 0)
(-0.0722433 9.98344 0)
(-0.0509388 9.99035 -5.60365e-19)
(-0.0340876 9.99548 5.23338e-19)
(-0.0218479 9.99913 -2.68075e-22)
(-0.0131214 10.0014 4.51261e-19)
(-0.0071046 10.0026 4.19165e-19)
(-0.00317251 10.0028 7.78537e-19)
(-0.000828776 10.0024 5.42312e-19)
(0.000329451 10.0016 -1.67919e-19)
(0.000640713 10.0006 0)
(0.000218862 10.0001 0)
(-0.0986931 9.97468 0)
(-0.132129 9.96473 0)
(-0.173639 9.95418 0)
(-0.224462 9.94403 0)
(-0.285811 9.93573 0)
(-0.358761 9.93134 0)
(-0.444088 9.9336 0)
(-0.542019 9.94603 0)
(-0.651944 9.9729 0)
(-0.772046 10.0192 0)
(-0.898896 10.0903 0)
(-1.02705 10.1915 0)
(-1.14879 10.3276 0)
(-1.25449 10.5005 0)
(-1.33692 10.7036 0)
(-1.39272 10.9273 0)
(-1.41814 11.1659 0)
(-1.41094 11.4128 0)
(-1.37047 11.6611 0)
(-1.30741 11.923 0)
(-1.21324 12.1965 0)
(-1.092 12.4511 0)
(-0.968384 12.6813 0)
(-0.846689 12.8891 0)
(-0.72976 13.0761 0)
(-0.619404 13.2423 0)
(-0.516547 13.3861 0)
(-0.421448 13.5034 0)
(-0.334058 13.5873 0)
(-0.253793 13.6287 0)
(-0.180827 13.6125 0)
(-0.114446 13.4803 0)
(-0.0558026 12.9283 0)
(-0.0143414 11.1223 0)
(-0.0976311 9.972 0)
(-0.0706769 9.98124 -8.51215e-22)
(-0.0488646 9.98852 0)
(-0.0327324 9.99411 -4.32436e-22)
(-0.0209581 9.99811 0)
(-0.0125739 10.0007 -4.42876e-19)
(-0.00680955 10.002 -8.22702e-19)
(-0.00305604 10.0024 1.93051e-23)
(-0.000829814 10.0021 3.5481e-19)
(0.000270438 10.0014 -1.64793e-19)
(0.000569683 10.0005 1.53074e-19)
(0.00019129 10.0001 0)
(-0.130482 9.96082 0)
(-0.17145 9.94856 0)
(-0.221654 9.93604 0)
(-0.282351 9.92451 0)
(-0.354728 9.91577 0)
(-0.439762 9.91227 0)
(-0.537997 9.91721 0)
(-0.64929 9.93456 0)
(-0.772494 9.96906 0)
(-0.905063 10.026 0)
(-1.04265 10.1109 0)
(-1.17877 10.2291 0)
(-1.30463 10.3847 0)
(-1.40972 10.5787 0)
(-1.48689 10.8024 0)
(-1.53362 11.0449 0)
(-1.54685 11.2995 0)
(-1.5252 11.5589 0)
(-1.48045 11.8344 0)
(-1.40862 12.1221 0)
(-1.29343 12.3979 0)
(-1.15342 12.6504 0)
(-1.0147 12.8753 0)
(-0.881075 13.0763 0)
(-0.754909 13.2554 0)
(-0.637467 13.4132 0)
(-0.529239 13.5486 0)
(-0.430136 13.6578 0)
(-0.339813 13.7343 0)
(-0.257476 13.7692 0)
(-0.183041 13.7465 0)
(-0.11579 13.6055 0)
(-0.0563117 13.0351 0)
(-0.0147433 11.1986 0)
(-0.129071 9.95735 0)
(-0.09547 9.96917 6.26078e-19)
(-0.0677033 9.97891 -5.8597e-19)
(-0.0468498 9.98677 5.43027e-19)
(-0.0313382 9.99279 0)
(-0.0200271 9.99713 0)
(-0.0119964 9.99996 4.34645e-19)
(-0.00649456 10.0015 -4.03647e-19)
(-0.00292554 10.0021 2.52965e-23)
(-0.000821258 10.0019 1.74137e-19)
(0.000217528 10.0013 -1.61753e-19)
(0.00050278 10.0005 -1.50229e-19)
(0.000166006 10.0001 0)
(-0.169313 9.94357 0)
(-0.218881 9.92894 0)
(-0.278878 9.91453 0)
(-0.350551 9.90191 0)
(-0.435028 9.89324 0)
(-0.533107 9.89143 0)
(-0.645028 9.90012 0)
(-0.770194 9.92375 0)
(-0.906819 9.96745 0)
(-1.05153 10.0368 0)
(-1.19899 10.1373 0)
(-1.34166 10.274 0)
(-1.46972 10.4502 0)
(-1.57189 10.666 0)
(-1.64138 10.9105 0)
(-1.67675 11.1712 0)
(-1.67578 11.4404 0)
(-1.65127 11.7288 0)
(-1.59849 12.0322 0)
(-1.50451 12.324 0)
(-1.36817 12.5989 0)
(-1.20984 12.8467 0)
(-1.05668 13.0646 0)
(-0.911846 13.2574 0)
(-0.777141 13.4277 0)
(-0.653263 13.5766 0)
(-0.540219 13.7032 0)
(-0.437569 13.8041 0)
(-0.344676 13.8732 0)
(-0.260549 13.9014 0)
(-0.184851 13.8722 0)
(-0.116889 13.7227 0)
(-0.0567099 13.1349 0)
(-0.0150671 11.2701 0)
(-0.16749 9.93915 0)
(-0.126167 9.95376 0)
(-0.0913385 9.96624 6.18892e-19)
(-0.0648279 9.97669 -1.15045e-18)
(-0.0447858 9.98509 1.06737e-18)
(-0.0298878 9.99154 -9.90504e-19)
(-0.019055 9.9962 0)
(-0.0113907 9.99928 4.26736e-19)
(-0.00615949 10.001 -3.96145e-19)
(-0.0027825 10.0017 -3.68011e-19)
(-0.000801939 10.0017 0)
(0.000170767 10.0012 1.58752e-19)
(0.000440331 10.0004 0)
(0.000143447 10 0)
(-0.216173 9.92264 0)
(-0.275439 9.90567 0)
(-0.346342 9.88958 0)
(-0.430093 9.87629 0)
(-0.527681 9.8684 0)
(-0.639664 9.86924 0)
(-0.765901 9.88295 0)
(-0.905242 9.91438 0)
(-1.05516 9.969 0)
(-1.21137 10.0525 0)
(-1.36753 10.1703 0)
(-1.51503 10.3269 0)
(-1.64309 10.5249 0)
(-1.73986 10.7627 0)
(-1.79919 11.0278 0)
(-1.82091 11.3055 0)
(-1.81883 11.6057 0)
(-1.78733 11.9241 0)
(-1.71094 12.234 0)
(-1.59432 12.5267 0)
(-1.43706 12.7978 0)
(-1.26113 13.0387 0)
(-1.09435 13.2482 0)
(-0.939133 13.4317 0)
(-0.796617 13.5925 0)
(-0.666954 13.7321 0)
(-0.549635 13.8497 0)
(-0.44387 13.9423 0)
(-0.348746 14.0039 0)
(-0.263085 14.0255 0)
(-0.186311 13.9899 0)
(-0.117775 13.8323 0)
(-0.0570153 13.2282 0)
(-0.0153239 11.3371 0)
(-0.213877 9.91706 0)
(-0.163676 9.93461 0)
(-0.120571 9.95008 0)
(-0.0873629 9.96344 1.21502e-18)
(-0.0618934 9.97457 -1.12746e-18)
(-0.0426479 9.9835 1.04633e-18)
(-0.0283823 9.99035 0)
(-0.0180442 9.99531 -4.50837e-19)
(-0.0107573 9.99863 0)
(-0.00580551 10.0006 3.88821e-19)
(-0.00262531 10.0014 0)
(-0.000773886 10.0015 0)
(0.000130498 10.0011 0)
(0.000383652 10.0004 1.54324e-19)
(0.000123657 10 7.53718e-20)
(-0.272081 9.89779 0)
(-0.342163 9.87862 0)
(-0.425094 9.8612 0)
(-0.521973 9.84786 0)
(-0.6336 9.84162 0)
(-0.760217 9.8463 0)
(-0.901212 9.86646 0)
(-1.05478 9.90737 0)
(-1.21757 9.97472 0)
(-1.38433 10.0742 0)
(-1.54768 10.211 0)
(-1.698 10.3888 0)
(-1.82367 10.6092 0)
(-1.91245 10.8693 0)
(-1.95907 11.1539 0)
(-1.98183 11.4645 0)
(-1.97419 11.7973 0)
(-1.91776 12.1251 0)
(-1.81689 12.438 0)
(-1.67757 12.7284 0)
(-1.49993 12.9933 0)
(-1.30728 13.2254 0)
(-1.12785 13.4252 0)
(-0.963126 13.5986 0)
(-0.813545 13.7495 0)
(-0.678719 13.8796 0)
(-0.55764 13.9882 0)
(-0.449163 14.0725 0)
(-0.35212 14.1267 0)
(-0.265155 14.1419 0)
(-0.18747 14.1 0)
(-0.118476 13.9347 0)
(-0.0572437 13.3152 0)
(-0.0155235 11.3998 0)
(-0.269251 9.89081 0)
(-0.20896 9.91137 0)
(-0.156259 9.93003 1.39045e-18)
(-0.115212 9.94659 1.28909e-18)
(-0.0833162 9.9608 1.19535e-18)
(-0.0588638 9.97258 -1.10853e-18)
(-0.0404378 9.982 0)
(-0.026825 9.98923 0)
(-0.0169963 9.99448 0)
(-0.0100977 9.99803 8.22189e-19)
(-0.00543465 10.0001 3.81709e-19)
(-0.00245392 10.0011 3.54483e-19)
(-0.000737183 10.0013 0)
(9.78782e-05 10.001 -1.63065e-19)
(0.000333199 10.0003 -7.96656e-20)
(0.000106246 10 0)
(-0.338078 9.86887 0)
(-0.420108 9.84777 0)
(-0.516152 9.82955 0)
(-0.627143 9.81695 0)
(-0.753624 9.81345 0)
(-0.89544 9.82332 0)
(-1.05141 9.85158 0)
(-1.21898 9.90377 0)
(-1.3939 9.9857 0)
(-1.56995 10.1029 0)
(-1.73869 10.2601 0)
(-1.88958 10.4602 0)
(-2.01033 10.7036 0)
(-2.08842 10.9853 0)
(-2.13874 11.3049 0)
(-2.15788 11.651 0)
(-2.12425 11.9964 0)
(-2.04155 12.3299 0)
(-1.91574 12.6424 0)
(-1.75399 12.9277 0)
(-1.55677 13.1841 0)
(-1.34844 13.406 0)
(-1.15739 13.5951 0)
(-0.98405 13.758 0)
(-0.828146 13.8986 0)
(-0.688747 14.0191 0)
(-0.564388 14.1188 0)
(-0.453568 14.1949 0)
(-0.354885 14.2419 0)
(-0.266823 14.2507 0)
(-0.188372 14.2028 0)
(-0.119021 14.0302 0)
(-0.0574068 13.3963 0)
(-0.0156764 11.4582 0)
(-0.334662 9.86022 0)
(-0.263012 9.88373 0)
(-0.199308 9.90571 -2.9417e-18)