/*--------------------------------*- C++ -*----------------------------------*\
  =========                 |
  \\      /  F ield         | OpenFOAM: The Open Source CFD Toolbox
   \\    /   O peration     | Website:  https://openfoam.org
    \\  /    A nd           | Version:  8
     \\/     M anipulation  |
\*---------------------------------------------------------------------------*/
FoamFile
{
    version     2.0;
    format      ascii;
    class       surfaceScalarField;
    location    "0.32";
    object      phi;
}
// * * * * * * * * * * * * * * * * * * * * * * * * * * * * * * * * * * * * * //

dimensions      [0 3 -1 0 0 0 0];

internalField   nonuniform List<scalar> 
31053
(
6.40059e-07
1.27399e-05
8.63011e-07
1.5157e-05
3.57016e-07
1.23829e-05
9.48595e-07
1.75544e-05
5.66823e-07
1.49472e-05
2.74712e-07
1.21082e-05
9.73215e-07
2.02154e-05
6.81191e-07
1.744e-05
4.69976e-07
1.4752e-05
2.15992e-07
1.18922e-05
9.64548e-07
2.32487e-05
7.39518e-07
2.01571e-05
5.95261e-07
1.73148e-05
3.95474e-07
1.45725e-05
1.71468e-07
1.17208e-05
9.34596e-07
2.669e-05
7.64143e-07
2.3224e-05
6.69693e-07
2.00826e-05
5.21919e-07
1.71883e-05
3.31145e-07
1.44128e-05
1.37167e-07
1.15836e-05
8.89194e-07
3.06654e-05
7.66843e-07
2.66873e-05
7.10955e-07
2.31828e-05
6.0192e-07
2.00026e-05
4.5224e-07
1.70672e-05
2.76956e-07
1.4273e-05
1.10221e-07
1.14734e-05
8.31554e-07
3.51976e-05
7.54052e-07
3.06782e-05
7.29898e-07
2.66683e-05
6.48984e-07
2.31357e-05
5.32061e-07
1.99228e-05
3.88945e-07
1.69552e-05
2.30194e-07
1.41531e-05
8.79387e-08
1.13854e-05
7.65352e-07
4.03862e-05
7.29811e-07
3.52219e-05
7.32901e-07
3.06752e-05
6.73139e-07
2.66442e-05
5.79673e-07
2.30881e-05
4.65017e-07
1.98467e-05
3.30535e-07
1.68549e-05
1.88491e-07
1.40525e-05
6.84985e-08
1.13169e-05
6.9298e-07
4.63524e-05
6.95358e-07
4.04207e-05
7.23678e-07
3.52311e-05
6.80351e-07
3.0668e-05
6.04069e-07
2.66198e-05
5.10062e-07
2.30431e-05
3.99975e-07
1.97773e-05
2.75347e-07
1.6768e-05
1.50039e-07
1.3971e-05
5.0745e-08
1.12662e-05
6.16381e-07
5.32166e-05
6.5235e-07
4.63954e-05
7.02694e-07
4.04416e-05
6.73625e-07
3.52378e-05
6.11144e-07
3.06609e-05
5.31699e-07
2.65981e-05
4.39851e-07
2.30032e-05
3.35782e-07
1.97169e-05
2.21963e-07
1.66961e-05
1.1353e-07
1.39082e-05
3.38965e-08
1.12323e-05
5.37641e-07
6.10587e-05
6.02459e-07
5.32665e-05
6.7064e-07
4.64274e-05
6.5572e-07
4.04595e-05
6.04274e-07
3.52447e-05
5.35663e-07
3.06569e-05
4.56232e-07
2.65817e-05
3.68246e-07
2.29707e-05
2.71264e-07
1.96675e-05
1.69257e-07
1.66404e-05
7.80065e-08
1.38641e-05
1.74369e-08
1.12148e-05
4.58774e-07
7.00609e-05
5.47185e-07
6.1114e-05
6.28511e-07
5.33086e-05
6.27447e-07
4.64557e-05
5.85627e-07
4.04782e-05
5.25381e-07
3.5255e-05
4.54458e-07
3.06587e-05
3.77162e-07
2.65728e-05
2.94133e-07
2.29479e-05
2.05374e-07
1.96314e-05
1.16403e-07
1.6602e-05
4.27721e-08
1.38387e-05
1.18707e-09
1.12137e-05
3.81766e-07
8.0409e-05
4.87898e-07
7.01202e-05
5.77408e-07
6.11651e-05
5.88918e-07
5.33471e-05
5.56184e-07
4.64851e-05
5.02763e-07
4.05008e-05
4.37866e-07
3.52716e-05
3.67294e-07
3.06686e-05
2.93382e-07
2.65736e-05
2.16455e-07
2.29368e-05
1.37394e-07
1.96104e-05
6.27746e-08
1.6582e-05
7.4487e-09
1.38325e-05
-1.50665e-08
1.12287e-05
3.19953e-07
7.62518e-05
4.25736e-07
8.04712e-05
5.18627e-07
7.01789e-05
5.40413e-07
6.12136e-05
5.16174e-07
5.33872e-05
4.68723e-07
4.65192e-05
4.0826e-07
4.05304e-05
3.41804e-07
3.52971e-05
2.73083e-07
3.06889e-05
2.03787e-07
2.65862e-05
1.34489e-07
2.29397e-05
6.6779e-08
1.96064e-05
8.02445e-09
1.65814e-05
-2.81658e-08
1.38456e-05
-3.14988e-08
1.12602e-05
2.67335e-07
7.62426e-05
3.7228e-07
7.63053e-05
4.53654e-07
8.05361e-05
4.82541e-07
7.02368e-05
4.65651e-07
6.12641e-05
4.23528e-07
5.34324e-05
3.6645e-07
4.6561e-05
3.02387e-07
4.05698e-05
2.36134e-07
3.5334e-05
1.70661e-07
3.0722e-05
1.07599e-07
2.66131e-05
4.77004e-08
2.29588e-05
-6.68881e-09
1.96212e-05
-4.79537e-08
1.66012e-05
-6.4205e-08
1.38783e-05
-4.80907e-08
1.13083e-05
2.22742e-07
7.62346e-05
3.23898e-07
7.6291e-05
3.95901e-07
7.6363e-05
4.16391e-07
8.06023e-05
4.04848e-07
7.02976e-05
3.67191e-07
6.13205e-05
3.12653e-07
5.34862e-05
2.49734e-07
4.66137e-05
1.8407e-07
4.06219e-05
1.19632e-07
3.5385e-05
5.91813e-08
3.07704e-05
4.27263e-09
2.66566e-05
-4.40431e-08
2.29961e-05
-8.29519e-08
1.96561e-05
-1.05108e-07
1.66421e-05
-1.00566e-07
1.39308e-05
-6.46727e-08
1.1373e-05
1.85051e-07
7.62297e-05
2.80085e-07
7.62784e-05
3.42222e-07
7.63447e-05
3.55925e-07
7.64235e-05
3.34538e-07
8.06726e-05
2.99789e-07
7.0365e-05
2.46866e-07
6.13863e-05
1.83968e-07
5.35519e-05
1.17438e-07
4.66803e-05
5.20133e-08
4.06895e-05
-8.63512e-09
3.54529e-05
-6.19274e-08
3.08366e-05
-1.06284e-07
2.67188e-05
-1.4053e-07
2.30537e-05
-1.61718e-07
1.97128e-05
-1.63116e-07
1.67047e-05
-1.36962e-07
1.4003e-05
-8.11106e-08
1.14541e-05
1.53276e-07
7.62218e-05
2.40465e-07
7.62693e-05
2.92547e-07
7.63281e-05
2.98615e-07
7.6402e-05
2.69626e-07
7.64884e-05
2.21897e-07
8.07505e-05
1.69123e-07
7.04428e-05
1.05043e-07
6.14652e-05
3.62316e-08
5.36331e-05
-3.18422e-08
4.67641e-05
-9.48254e-08
4.07757e-05
-1.49264e-07
3.55402e-05
-1.92727e-07
3.09231e-05
-2.23726e-07
2.6802e-05
-2.41229e-07
2.31332e-05
-2.4236e-07
1.9792e-05
-2.21446e-07
1.67891e-05
-1.73025e-07
1.4095e-05
-9.71439e-08
1.15512e-05
1.2654e-07
7.62167e-05
2.04697e-07
7.62575e-05
2.46767e-07
7.63151e-05
2.44882e-07
7.63818e-05
2.077e-07
7.64639e-05
1.49898e-07
7.65604e-05
7.99554e-08
8.08397e-05
1.29973e-08
7.05348e-05
-5.96549e-08
6.15611e-05
-1.32102e-07
5.37334e-05
-1.99281e-07
4.68686e-05
-2.57067e-07
4.08835e-05
-3.02287e-07
3.56498e-05
-3.32716e-07
3.10321e-05
-3.47299e-07
2.69081e-05
-3.45203e-07
2.3236e-05
-3.23986e-07
1.98945e-05
-2.79433e-07
1.68955e-05
-2.08269e-07
1.42061e-05
-1.12586e-07
1.16638e-05
1.04074e-07
7.62125e-05
1.72472e-07
7.6249e-05
2.04761e-07
7.62995e-05
1.94913e-07
7.63651e-05
1.49487e-07
7.644e-05
8.1198e-08
7.65326e-05
-2.11946e-09
7.66425e-05
-9.15725e-08
8.09442e-05
-1.70174e-07
7.06453e-05
-2.48956e-07
6.16779e-05
-3.22376e-07
5.38565e-05
-3.85531e-07
4.69971e-05
-4.34715e-07
4.10159e-05
-4.67031e-07
3.57841e-05
-4.80932e-07
3.11657e-05
-4.75752e-07
2.70386e-05
-4.51145e-07
2.33632e-05
-4.05545e-07
2.00207e-05
-3.3627e-07
1.70235e-05
-2.42195e-07
1.43357e-05
-1.2711e-07
1.17909e-05
8.67078e-08
6.95994e-05
1.43508e-07
7.62414e-05
1.66403e-07
7.62873e-05
1.48798e-07
7.63457e-05
9.53897e-08
7.64192e-05
1.67537e-08
7.65045e-05
-8.01503e-08
7.66106e-05
-1.87195e-07
7.67381e-05
-2.9459e-07
8.10686e-05
-3.82344e-07
7.07787e-05
-4.64409e-07
6.182e-05
-5.35283e-07
5.40062e-05
-5.90571e-07
4.71529e-05
-6.26911e-07
4.11758e-05
-6.42319e-07
3.59455e-05
-6.35803e-07
3.13257e-05
-6.07358e-07
2.71948e-05
-5.57577e-07
2.35152e-05
-4.85814e-07
2.01702e-05
-3.91092e-07
1.71724e-05
-2.74191e-07
1.44828e-05
-1.40532e-07
1.19315e-05
7.32739e-08
6.25574e-05
1.1967e-07
6.96232e-05
1.31568e-07
7.62763e-05
1.06569e-07
7.63295e-05
4.56467e-08
7.63954e-05
-4.28337e-08
7.64787e-05
-1.52989e-07
7.65773e-05
-2.77611e-07
7.67011e-05
-4.07591e-07
7.68511e-05
-5.3135e-07
8.12177e-05
-6.25321e-07
7.09396e-05
-7.06772e-07
6.19915e-05
-7.70797e-07
5.41865e-05
-8.13351e-07
4.73394e-05
-8.32254e-07
4.13658e-05
-8.26236e-07
3.61359e-05
-7.9516e-07
3.15135e-05
-7.40189e-07
2.73774e-05
-6.62783e-07
2.36922e-05
-5.63488e-07
2.03426e-05
-4.42924e-07
1.73412e-05
-3.03772e-07
1.4646e-05
-1.524e-07
1.20839e-05
6.26991e-08
5.62286e-05
1.00223e-07
6.25769e-05
1.02717e-07
6.96521e-05
6.82255e-08
7.63146e-05
3.97029e-10
7.63748e-05
-9.71781e-08
7.64498e-05
-2.19848e-07
7.65456e-05
-3.61496e-07
7.66612e-05
-5.13834e-07
7.68073e-05
-6.65878e-07
7.69856e-05
-8.03984e-07
8.13963e-05
-8.9996e-07
7.11328e-05
-9.76038e-07
6.21967e-05
-1.02767e-06
5.44008e-05
-1.05223e-06
4.75593e-05
-1.04846e-06
4.1588e-05
-1.01614e-06
3.63569e-05
-9.566e-07
3.173e-05
-8.71993e-07
2.75866e-05
-7.6496e-07
2.38937e-05
-6.37143e-07
2.05368e-05
-4.90924e-07
1.75283e-05
-3.30011e-07
1.48236e-05
-1.61955e-07
1.22458e-05
5.42326e-08
5.05405e-05
8.42471e-08
5.62446e-05
7.91056e-08
6.26005e-05
3.6577e-08
6.96837e-05
-4.0282e-08
7.63553e-05
-1.46033e-07
7.64237e-05
-2.80183e-07
7.65101e-05
-4.37873e-07
7.6622e-05
-6.11802e-07
7.67592e-05
-7.91718e-07
7.69331e-05
-9.64523e-07
7.71462e-05
-1.11349e-06
8.16099e-05
-1.20631e-06
7.13631e-05
-1.27076e-06
6.24398e-05
-1.30402e-06
5.46526e-05
-1.30454e-06
4.78154e-05
-1.27237e-06
4.18442e-05
-1.20912e-06
3.66094e-05
-1.11731e-06
3.19753e-05
-1.00044e-06
2.78221e-05
-8.62169e-07
2.41187e-05
-7.05522e-07
2.07514e-05
-5.33715e-07
1.7732e-05
-3.52257e-07
1.50139e-05
-1.69213e-07
1.2415e-05
4.7346e-08
4.54269e-05
7.10464e-08
5.05537e-05
5.96978e-08
5.6264e-05
1.08499e-08
6.26262e-05
-7.34078e-08
6.97168e-05
-1.89236e-07
7.63985e-05
-3.33624e-07
7.64771e-05
-5.06026e-07
7.65782e-05
-7.00317e-07
7.67105e-05
-9.0714e-07
7.68746e-05
-1.11409e-06
7.70827e-05
-1.30471e-06
7.73374e-05
-1.46004e-06
8.18636e-05
-1.54274e-06
7.16351e-05
-1.58883e-06
6.27246e-05
-1.59675e-06
5.49448e-05
-1.56655e-06
4.81096e-05
-1.50053e-06
4.21356e-05
-1.40177e-06
3.68938e-05
-1.2744e-06
3.22492e-05
-1.12302e-06
2.8083e-05
-9.52661e-07
2.43658e-05
-7.66797e-07
2.09845e-05
-5.70527e-07
1.79503e-05
-3.67101e-07
1.52118e-05
-1.35512e-07
1.25506e-05
4.16651e-08
4.08317e-05
6.00652e-08
4.54379e-05
4.36895e-08
5.05697e-05
-1.01086e-08
5.62849e-05
-9.99015e-08
6.26527e-05
-2.2367e-07
6.97513e-05
-3.79917e-07
7.64448e-05
-5.65444e-07
7.65365e-05
-7.7847e-07
7.66564e-05
-1.01074e-06
7.68141e-05
-1.25069e-06
7.70112e-05
-1.48234e-06
7.72603e-05
-1.68675e-06
7.75641e-05
-1.84187e-06
8.21627e-05
-1.90694e-06
7.19532e-05
-1.9267e-06
6.30545e-05
-1.90156e-06
5.52798e-05
-1.83425e-06
4.84433e-05
-1.7289e-06
4.24628e-05
-1.59057e-06
3.721e-05
-1.42471e-06
3.25509e-05
-1.23743e-06
2.83678e-05
-1.03416e-06
2.46332e-05
-8.19781e-07
2.12337e-05
-5.96451e-07
1.81797e-05
-3.5898e-07
1.54353e-05
-8.52295e-08
1.26358e-05
3.69195e-08
3.67007e-05
5.08709e-08
4.08409e-05
3.04304e-08
4.54511e-05
-2.72377e-08
5.05868e-05
-1.21076e-07
5.63061e-05
-2.505e-07
6.26795e-05
-4.15804e-07
6.97872e-05
-6.15761e-07
7.64951e-05
-8.45586e-07
7.66036e-05
-1.10138e-06
7.6747e-05
-1.37268e-06
7.69361e-05
-1.64411e-06
7.7173e-05
-1.89699e-06
7.74706e-05
-2.10883e-06
7.7831e-05
-2.25649e-06
8.25123e-05
-2.29495e-06
7.23214e-05
-2.27949e-06
6.34325e-05
-2.21381e-06
5.56593e-05
-2.10284e-06
4.88173e-05
-1.95324e-06
4.28254e-05
-1.77166e-06
3.7557e-05
-1.56537e-06
3.28788e-05
-1.34095e-06
2.86746e-05
-1.10496e-06
2.49184e-05
-8.59726e-07
2.1497e-05
-6.04562e-07
1.84252e-05
-3.31928e-07
1.5682e-05
-6.3965e-08
1.26997e-05
3.29126e-08
3.299e-05
4.3135e-08
3.67085e-05
1.93938e-08
4.08519e-05
-4.12628e-08
4.54652e-05
-1.37996e-07
5.06037e-05
-2.71283e-07
5.63269e-05
-4.42791e-07
6.27065e-05
-6.53546e-07
6.98249e-05
-9.01167e-07
7.65507e-05
-1.17821e-06
7.66805e-05
-1.47867e-06
7.6853e-05
-1.78807e-06
7.708e-05
-2.08816e-06
7.73641e-05
-2.35625e-06
7.7718e-05
-2.56843e-06
7.8143e-05
-2.69962e-06
8.29169e-05
-2.70126e-06
7.27432e-05
-2.64184e-06
6.38605e-05
-2.52786e-06
5.60843e-05
-2.36734e-06
4.92313e-05
-2.16897e-06
4.32227e-05
-1.94161e-06
3.79332e-05
-1.6932e-06
3.32311e-05
-1.43138e-06
2.9001e-05
-1.16087e-06
2.52195e-05
-8.81967e-07
2.17744e-05
-5.99624e-07
1.86929e-05
-3.07533e-07
1.59255e-05
-5.77842e-08
1.27575e-05
2.95059e-08
2.96514e-05
3.65966e-08
3.29965e-05
1.01694e-08
3.67177e-05
-5.2767e-08
4.08634e-05
-1.51514e-07
4.54787e-05
-2.87283e-07
5.06197e-05
-4.62777e-07
5.63469e-05
-6.80756e-07
6.27337e-05
-9.41547e-07
6.98653e-05
-1.24057e-06
7.6613e-05
-1.56757e-06
7.67694e-05
-1.91254e-06
7.69775e-05
-2.25796e-06
7.72498e-05
-2.58116e-06
7.7589e-05
-2.85764e-06
7.80072e-05
-3.06101e-06
7.85044e-05
-3.16502e-06
8.33807e-05
-3.11975e-06
7.32211e-05
-3.00728e-06
6.43399e-05
-2.83797e-06
5.6555e-05
-2.62241e-06
4.96848e-05
-2.37204e-06
4.36532e-05
-2.09673e-06
3.83367e-05
-1.80553e-06
3.36052e-05
-1.50503e-06
2.93451e-05
-1.19824e-06
2.55358e-05
-8.91781e-07
2.20666e-05
-5.90946e-07
1.89763e-05
-2.93899e-07
1.61617e-05
-6.15596e-08
1.28191e-05
2.65988e-08
2.66509e-05
3.10506e-08
2.9657e-05
2.42888e-09
3.30043e-05
-6.22345e-08
3.67272e-05
-1.62314e-07
4.08742e-05
-2.99515e-07
4.54909e-05
-4.77295e-07
5.06342e-05
-6.99727e-07
5.63658e-05
-9.69242e-07
6.27614e-05
-1.28447e-06
6.99092e-05
-1.63854e-06
7.6684e-05
-2.01617e-06
7.6873e-05
-2.40438e-06
7.71239e-05
-2.78083e-06
7.74495e-05
-3.12072e-06
7.78521e-05
-3.3965e-06
7.83427e-05
-3.5798e-06
7.89192e-05
-3.64598e-06
8.39069e-05
-3.54317e-06
7.3757e-05
-3.36928e-06
6.48712e-05
-3.13798e-06
5.70706e-05
-2.86332e-06
5.01761e-05
-2.55821e-06
4.41146e-05
-2.23389e-06
3.87651e-05
-1.89906e-06
3.39993e-05
-1.55903e-06
2.97059e-05
-1.22167e-06
2.58657e-05
-8.96451e-07
2.23721e-05
-5.84101e-07
1.92665e-05
-2.89634e-07
1.63897e-05
-8.4402e-08
1.29035e-05
2.41111e-08
2.39565e-05
2.6331e-08
2.66556e-05
-4.09847e-09
2.96635e-05
-7.00558e-08
3.30121e-05
-1.70944e-07
3.67358e-05
-3.08789e-07
4.08835e-05
-4.87578e-07
4.55012e-05
-7.12349e-07
5.06469e-05
-9.87137e-07
5.63837e-05
-1.31309e-06
6.27901e-05
-1.68714e-06
6.99578e-05
-2.09788e-06
7.67657e-05
-2.52575e-06
7.69944e-05
-2.95288e-06
7.7296e-05
-3.35454e-06
7.76833e-05
-3.70218e-06
7.81578e-05
-3.96566e-06
7.87286e-05
-4.11765e-06
7.93908e-05
-4.13441e-06
8.44982e-05
-3.9641e-06
7.43518e-05
-3.72071e-06
6.5454e-05
-3.42235e-06
5.76296e-05
-3.08514e-06
5.0703e-05
-2.72385e-06
4.46046e-05
-2.34996e-06
3.9216e-05
-1.97142e-06
3.44117e-05
-1.59694e-06
3.00812e-05
-1.23749e-06
2.62067e-05
-8.99345e-07
2.26873e-05
-5.80316e-07
1.95572e-05
-3.57509e-07
1.66628e-05
-9.26259e-08
1.29961e-05
2.19765e-08
2.15341e-05
2.22999e-08
2.39605e-05
-9.63519e-09
2.66612e-05
-7.65439e-08
2.967e-05
-1.77847e-07
3.3019e-05
-3.1575e-07
3.67428e-05
-4.94604e-07
4.08905e-05
-7.20133e-07
4.5509e-05
-9.97563e-07
5.06573e-05
-1.32998e-06
5.64006e-05
-1.71734e-06
6.28203e-05
-2.15265e-06
7.00126e-05
-2.62069e-06
7.68607e-05
-3.09526e-06
7.71367e-05
-3.55623e-06
7.74977e-05
-3.97445e-06
7.79556e-05
-4.31819e-06
7.85103e-05
-4.55766e-06
7.91686e-05
-4.66586e-06
7.99223e-05
-4.62199e-06
8.5156e-05
-4.37436e-06
7.50055e-05
-4.05515e-06
6.60868e-05
-3.68541e-06
5.82299e-05
-3.28374e-06
5.12629e-05
-2.86584e-06
4.51205e-05
-2.4429e-06
3.96875e-05
-2.0252e-06
3.48399e-05
-1.62401e-06
3.04677e-05
-1.24846e-06
2.65558e-05
-9.00824e-07
2.30078e-05
-7.13411e-07
1.99131e-05
-3.56485e-07
1.69267e-05
-1.01566e-07
1.30977e-05
2.01397e-08
1.93538e-05
1.88444e-08
2.15376e-05
-1.43573e-08
2.39652e-05
-8.19514e-08
2.66666e-05
-1.83373e-07
2.96755e-05
-3.20912e-07
3.30242e-05
-4.99149e-07
3.67473e-05
-7.24275e-07
4.08947e-05
-1.00238e-06
4.55138e-05
-1.33802e-06
5.06653e-05
-1.73348e-06
5.64168e-05
-2.18532e-06
6.28529e-05
-2.6834e-06
7.00753e-05
-3.20628e-06
7.69717e-05
-3.7233e-06
7.73038e-05
-4.20993e-06
7.77331e-05
-4.6332e-06
7.82706e-05
-4.96109e-06
7.89138e-05
-5.16332e-06
7.9666e-05
-5.21529e-06
8.05156e-05
-5.09938e-06
8.58811e-05
-4.76657e-06
7.57169e-05
-4.36608e-06
6.67674e-05
-3.92242e-06
5.88685e-05
-3.4558e-06
5.18529e-05
-2.98217e-06
4.56597e-05
-2.51435e-06
4.01766e-05
-2.0645e-06
3.52804e-05
-1.64257e-06
3.08618e-05
-1.25476e-06
2.69098e-05
-1.11137e-06
2.34058e-05
-7.04098e-07
2.02607e-05
-3.55826e-07
1.7181e-05
-1.08435e-07
1.32061e-05
1.73976e-05
1.85531e-08
1.58722e-08
1.93568e-05
-1.8404e-08
2.15416e-05
-8.64802e-08
2.39698e-05
-1.87803e-07
2.6671e-05
-3.24678e-07
2.96793e-05
-5.01819e-07
3.30268e-05
-7.25714e-07
3.67487e-05
-1.00306e-06
4.08953e-05
-1.33948e-06
4.55152e-05
-1.73906e-06
5.06709e-05
-2.20114e-06
5.64326e-05
-2.71971e-06
6.28892e-05
-3.27906e-06
7.01481e-05
-3.85364e-06
7.7102e-05
-4.40564e-06
7.74995e-05
-4.90677e-06
7.80067e-05
-5.32314e-06
7.86326e-05
-5.62131e-06
7.93718e-05
-5.77283e-06
8.02236e-05
-5.75569e-06
8.11719e-05
-5.55823e-06
8.66727e-05
-5.13324e-06
7.6484e-05
-4.64801e-06
6.7493e-05
-4.12962e-06
5.95424e-05
-3.5991e-06
5.24698e-05
-3.07364e-06
4.6219e-05
-2.56737e-06
4.06795e-05
-2.0913e-06
3.57291e-05
-1.65299e-06
3.126e-05
-1.55121e-06
2.73496e-05
-1.09694e-06
2.37986e-05
-6.92474e-07
2.05974e-05
-3.53055e-07
1.74256e-05
-1.1285e-07
1.3319e-05
1.74002e-05
1.33048e-08
2.78125e-05
1.6086e-08
-2.18866e-08
1.93603e-05
-9.02902e-08
2.15454e-05
-1.91359e-07
2.39733e-05
-3.27367e-07
2.66737e-05
-5.03091e-07
2.96805e-05
-7.25185e-07
3.30263e-05
-1.00075e-06
3.67464e-05
-1.33617e-06
4.0892e-05
-1.73688e-06
4.55131e-05
-2.20436e-06
5.06741e-05
-2.7359e-06
5.64488e-05
-3.32051e-06
6.29307e-05
-3.93906e-06
7.02335e-05
-4.55896e-06
7.72553e-05
-5.13534e-06
7.77281e-05
-5.63924e-06
7.83228e-05
-6.03446e-06
7.90458e-05
-6.28862e-06
7.98876e-05
-6.37519e-06
8.08431e-05
-6.27783e-06
8.18915e-05
-5.98991e-06
8.75294e-05
-5.46798e-06
7.7304e-05
-4.8966e-06
6.826e-05
-4.30442e-06
6.02477e-05
-3.71364e-06
5.31098e-05
-3.14235e-06
4.6794e-05
-2.60355e-06
4.11918e-05
-2.10608e-06
3.61822e-05
-2.04495e-06
3.17538e-05
-1.5325e-06
2.77852e-05
-1.07586e-06
2.4182e-05
-6.77113e-07
2.09214e-05
-3.47441e-07
1.76602e-05
-1.14844e-07
1.34338e-05
1.74032e-05
-2.48939e-08
2.78162e-05
9.53824e-09
2.85524e-05
1.37309e-08
-9.35089e-08
1.93635e-05
-1.94217e-07
2.15483e-05
-3.2923e-07
2.39752e-05
-5.03334e-07
2.66739e-05
-7.23253e-07
2.96786e-05
-9.96333e-07
3.30219e-05
-1.3295e-06
3.67398e-05
-1.72913e-06
4.08843e-05
-2.19836e-06
4.55071e-05
-2.73706e-06
5.06753e-05
-3.33805e-06
5.64663e-05
-3.98755e-06
6.29792e-05
-4.66e-06
7.03345e-05
-5.31567e-06
7.74357e-05
-5.90517e-06
7.7994e-05
-6.39749e-06
7.86859e-05
-6.75663e-06
7.95138e-05
-6.95136e-06
8.04637e-05
-6.96035e-06
8.15256e-05
-6.77205e-06
8.26736e-05
-6.38697e-06
8.84484e-05
-5.76563e-06
7.8173e-05
-5.10859e-06
6.90642e-05
-4.44599e-06
6.098e-05
-3.80067e-06
5.37681e-05
-3.18951e-06
4.738e-05
-2.62347e-06
4.17091e-05
-2.60629e-06
3.67436e-05
-2.02095e-06
3.22422e-05
-1.50256e-06
2.82119e-05
-1.04808e-06
2.4553e-05
-6.57688e-07
2.12317e-05
-3.38981e-07
1.78843e-05
-1.14746e-07
1.35486e-05
1.74059e-05
-9.62403e-08
2.782e-05
-2.86509e-08
2.85559e-05
5.95092e-09
2.93122e-05
1.14934e-08
-1.96517e-07
1.93658e-05
-3.30464e-07
2.15495e-05
-5.02834e-07
2.39747e-05
-7.20356e-07
2.6671e-05
-9.90502e-07
2.96728e-05
-1.32054e-06
3.30129e-05
-1.71753e-06
3.67282e-05
-2.18582e-06
4.08717e-05
-2.72726e-06
4.54973e-05
-3.33772e-06
5.0675e-05
-4.0078e-06
5.64866e-05
-4.71788e-06
6.30371e-05
-5.43579e-06
7.04546e-05
-6.11701e-06
7.76475e-05
-6.70543e-06
7.8302e-05
-7.17088e-06
7.91001e-05
-7.47754e-06
8.004e-05
-7.5988e-06
8.11022e-05
-7.5177e-06
8.22713e-05
-7.22988e-06
8.35165e-05
-6.74322e-06
8.9426e-05
-6.0221e-06
7.90866e-05
-5.28234e-06
6.99005e-05
-4.55481e-06
6.17342e-05
-3.86099e-06
5.44396e-05
-3.2158e-06
4.79723e-05
-3.24756e-06
4.23504e-05
-2.57598e-06
3.72986e-05
-1.98115e-06
3.27208e-05
-1.46243e-06
2.86262e-05
-1.01413e-06
2.49095e-05
-6.34584e-07
2.15273e-05
-3.28029e-07
1.80976e-05
-1.12949e-07
1.36615e-05
1.74077e-05
-1.9837e-07
2.78221e-05
-9.83762e-08
2.85595e-05
-3.21842e-08
2.93156e-05
2.54305e-09
3.00901e-05
9.37654e-09
-3.31221e-07
1.93666e-05
-5.01813e-07
2.15485e-05
-7.16826e-07
2.39712e-05
-9.83774e-07
2.66643e-05
-1.31012e-06
2.96624e-05
-1.70339e-06
3.29988e-05
-2.16881e-06
3.67111e-05
-2.70972e-06
4.08542e-05
-3.32437e-06
4.54839e-05
-4.00689e-06
5.06741e-05
-4.74262e-06
5.65113e-05
-5.50591e-06
6.31072e-05
-6.26019e-06
7.05978e-05
-6.95361e-06
7.78957e-05
-7.5256e-06
7.86567e-05
-7.94702e-06
7.95696e-05
-8.18593e-06
8.06271e-05
-8.21947e-06
8.18039e-05
-8.03777e-06
8.30791e-05
-7.64411e-06
8.44174e-05
-7.05349e-06
9.04574e-05
-6.23483e-06
8.0039e-05
-5.41761e-06
7.07633e-05
-4.63129e-06
6.25045e-05
-3.89536e-06
5.51191e-05
-3.98245e-06
4.87072e-05
-3.21037e-06
4.29848e-05
-2.52492e-06
3.78424e-05
-1.92752e-06
3.31859e-05
-1.41348e-06
2.90256e-05
-9.75072e-07
2.52499e-05
-6.08461e-07
2.18077e-05
-3.15091e-07
1.82997e-05
-1.09845e-07
1.37714e-05
1.74081e-05
-3.31621e-07
2.78211e-05
-1.97357e-07
2.85613e-05
-1.00213e-07
2.93189e-05
-3.54783e-08
3.00933e-05
-6.84963e-10
3.089e-05
7.37973e-09
-5.00439e-07
1.93652e-05
-7.12913e-07
2.15446e-05
-9.7654e-07
2.39639e-05
-1.29887e-06
2.66531e-05
-1.68772e-06
2.96467e-05
-2.14892e-06
3.29789e-05
-2.68693e-06
3.66884e-05
-3.30182e-06
4.08317e-05
-3.99053e-06
4.54676e-05
-4.74245e-06
5.06739e-05
-5.53743e-06
5.65428e-05
-6.34594e-06
6.31929e-05
-7.1243e-06
7.07685e-05
-7.81521e-06
7.81853e-05
-8.35318e-06
7.90628e-05
-8.71432e-06
8.0098e-05
-8.86961e-06
8.12773e-05
-8.80299e-06
8.25691e-05
-8.51233e-06
8.39474e-05
-8.0085e-06
8.53725e-05
-7.31421e-06
9.15367e-05
-6.4028e-06
8.10242e-05
-5.51435e-06
7.16464e-05
-4.67618e-06
6.32853e-05
-4.82677e-06
5.59635e-05
-3.93816e-06
4.9435e-05
-3.14686e-06
4.36067e-05
-2.45606e-06
3.83709e-05
-1.86223e-06
3.36347e-05
-1.35753e-06
2.9408e-05
-9.32096e-07
2.55736e-05
-5.80116e-07
2.20728e-05
-3.00697e-07
1.84906e-05
-1.05777e-07
1.38771e-05
1.74065e-05
-4.9884e-07
2.78154e-05
-3.25893e-07
2.85599e-05
-1.95909e-07
2.93205e-05
-1.01737e-07
3.00964e-05
-3.85316e-08
3.0893e-05
-3.73332e-09
3.17099e-05
5.49906e-09
-7.08808e-07
1.93611e-05
-9.6909e-07
2.15372e-05
-1.28725e-06
2.39523e-05
-1.67126e-06
2.66366e-05
-2.12736e-06
2.96251e-05
-2.66081e-06
3.29528e-05
-3.27306e-06
3.66596e-05
-3.96323e-06
4.08044e-05
-4.72399e-06
4.54491e-05
-5.53978e-06
5.06762e-05
-6.38709e-06
5.6584e-05
-7.22962e-06
6.32983e-05
-8.0183e-06
7.09716e-05
-8.68951e-06
7.85216e-05
-9.17647e-06
7.9525e-05
-9.46e-06
8.06884e-05
-9.51738e-06
8.19916e-05
-9.34015e-06
8.3397e-05
-8.9341e-06
8.4873e-05
-8.31851e-06
8.63768e-05
-7.52348e-06
9.26574e-05
-6.52545e-06
8.20353e-05
-5.5732e-06
7.25434e-05
-5.79872e-06
6.42573e-05
-4.77562e-06
5.68009e-05
-3.86118e-06
5.01493e-05
-3.06101e-06
4.42117e-05
-2.37243e-06
3.88811e-05
-1.78781e-06
3.40649e-05
-1.2964e-06
2.97723e-05
-8.86429e-07
2.58799e-05
-5.50311e-07
2.23224e-05
-2.85341e-07
1.86702e-05
-1.01046e-07
1.39782e-05
1.74024e-05
-7.04647e-07
2.78032e-05
-4.86677e-07
2.85536e-05
-3.19622e-07
2.93186e-05
-1.9406e-07
3.00976e-05
-1.02936e-07
3.08959e-05
-4.13371e-08
3.17127e-05
-6.5988e-09
3.25538e-05
3.73171e-09
-9.61638e-07
1.93536e-05
-1.27561e-06
2.15255e-05
-1.65457e-06
2.39356e-05
-2.10505e-06
2.66143e-05
-2.63282e-06
2.95971e-05
-3.24038e-06
3.29201e-05
-3.92854e-06
3.66249e-05
-4.69255e-06
4.07729e-05
-5.5206e-06
4.54299e-05
-6.39429e-06
5.06834e-05
-7.28381e-06
5.66382e-05
-8.14766e-06
6.34276e-05
-8.93021e-06
7.12123e-05
-9.56485e-06
7.891e-05
-9.98229e-06
8.00473e-05
-1.01722e-05
8.13432e-05
-1.01191e-05
8.27706e-05
-9.82264e-06
8.42855e-05
-9.29757e-06
8.5852e-05
-8.57146e-06
8.74247e-05
-7.68013e-06
9.38121e-05
-6.6032e-06
8.30653e-05
-6.91798e-06
7.36627e-05
-5.74162e-06
6.52233e-05
-4.6844e-06
5.76241e-05
-3.75658e-06
5.08449e-05
-2.9568e-06
4.4796e-05
-2.27733e-06
3.93706e-05
-1.70675e-06
3.44753e-05
-1.23183e-06
3.01177e-05
-8.3916e-07
2.61687e-05
-5.19742e-07
2.25568e-05
-2.69476e-07
1.88386e-05
-9.58888e-08
1.40741e-05
1.73951e-05
-9.54337e-07
2.77827e-05
-6.84095e-07
2.85407e-05
-4.73772e-07
2.93117e-05
-3.12728e-07
3.00953e-05
-1.91755e-07
3.08967e-05
-1.03807e-07
3.17153e-05
-4.38891e-08
3.25564e-05
-9.27692e-09
3.34197e-05
2.07972e-09
-1.26418e-06
1.93422e-05
-1.63807e-06
2.1509e-05
-2.08264e-06
2.39132e-05
-2.60405e-06
2.65855e-05
-3.20554e-06
2.95623e-05
-3.88918e-06
3.28807e-05
-4.65226e-06
3.65846e-05
-5.48602e-06
4.07383e-05
-6.37628e-06
4.54119e-05
-7.29879e-06
5.06984e-05
-8.2189e-06
5.67094e-05
-9.08856e-06
6.3586e-05
-9.84865e-06
7.14961e-05
-1.04279e-05
7.93556e-05
-1.07582e-05
8.06333e-05
-1.08399e-05
8.2064e-05
-1.06655e-05
8.36134e-05
-1.02439e-05
8.52318e-05
-9.59914e-06
8.68797e-05
-8.76552e-06
8.85101e-05
-7.78423e-06
9.49931e-05
-8.20732e-06
8.43547e-05
-6.85687e-06
7.47779e-05
-5.63577e-06
6.61746e-05
-4.55934e-06
5.84269e-05
-3.62939e-06
5.15174e-05
-2.8384e-06
4.53571e-05
-2.17394e-06
3.98378e-05
-1.62136e-06
3.48648e-05
-1.16534e-06
3.04439e-05
-7.91258e-07
2.64403e-05
-4.89032e-07
2.27763e-05
-2.53441e-07
1.89961e-05
-9.0509e-08
1.41646e-05
1.7384e-05
-1.25314e-06
2.77514e-05
-9.23094e-07
2.85192e-05
-6.62648e-07
2.92981e-05
-4.60183e-07
3.00879e-05
-3.0533e-07
3.0894e-05
-1.89031e-07
3.17158e-05
-1.04338e-07
3.25587e-05
-4.61766e-08
3.34221e-05
-1.17698e-08
3.43055e-05
5.5209e-10
-1.62202e-06
1.93262e-05
-2.06062e-06
2.1487e-05
-2.5753e-06
2.38845e-05
-3.16983e-06
2.65498e-05
-3.84722e-06
2.95203e-05
-4.60635e-06
3.28348e-05
-5.44087e-06
3.65395e-05
-6.34005e-06
4.07021e-05
-7.28439e-06
4.53975e-05
-8.24518e-06
5.07247e-05
-9.18139e-06
5.68022e-05
-1.00413e-05
6.37786e-05
-1.07603e-05
7.18286e-05
-1.12659e-05
7.98632e-05
-1.14927e-05
8.12861e-05
-1.1453e-05
8.28515e-05
-1.11489e-05
8.45184e-05
-1.05994e-05
8.62321e-05
-9.83619e-06
8.79504e-05
-8.90023e-06
8.96261e-05
-9.6927e-06
9.64785e-05
-8.14619e-06
8.5644e-05
-6.73683e-06
7.5879e-05
-5.48868e-06
6.7104e-05
-4.40664e-06
5.92042e-05
-3.48479e-06
5.21638e-05
-2.70977e-06
4.58929e-05
-2.06516e-06
4.02816e-05
-1.53361e-06
3.52331e-05
-1.09825e-06
3.07509e-05
-7.43576e-07
2.66948e-05
-4.58626e-07
2.29815e-05
-2.37545e-07
1.91432e-05
-8.50594e-08
1.42496e-05
1.73687e-05
-1.60664e-06
2.77072e-05
-1.20889e-06
2.84869e-05
-8.90749e-07
2.92757e-05
-6.40239e-07
3.00735e-05
-4.45824e-07
3.0886e-05
-2.97345e-07
3.17127e-05
-1.85866e-07
3.25589e-05
-1.0455e-07
3.34242e-05
-4.8213e-08
3.43078e-05
-1.40804e-08
3.52194e-05
-8.43325e-10
-2.03932e-06
1.93049e-05
-2.54714e-06
2.14588e-05
-3.13423e-06
2.38489e-05
-3.80424e-06
2.65068e-05
-4.55727e-06
2.94713e-05
-5.38889e-06
3.27829e-05
-6.29118e-06
3.64906e-05
-7.24854e-06
4.06663e-05
-8.23742e-06
4.53898e-05
-9.22307e-06
5.07664e-05
-1.01608e-05
5.69217e-05
-1.09929e-05
6.40112e-05
-1.16525e-05
7.22151e-05
-1.20668e-05
8.04373e-05
-1.21745e-05
8.20077e-05
-1.20026e-05
8.37053e-05
-1.15638e-05
8.54828e-05
-1.08856e-05
8.72814e-05
-1.00076e-05
8.90578e-05
-1.11044e-05
9.10378e-05
-9.63925e-06
9.79716e-05
-8.01427e-06
8.69214e-05
-6.56679e-06
7.69571e-05
-5.30788e-06
6.80052e-05
-4.2326e-06
5.9952e-05
-3.32759e-06
5.27817e-05
-2.5745e-06
4.64023e-05
-1.9535e-06
4.07015e-05
-1.44521e-06
3.55801e-05
-1.03168e-06
3.1039e-05
-6.96697e-07
2.69329e-05
-4.28938e-07
2.31729e-05
-2.22014e-07
1.92801e-05
-7.96487e-08
1.43293e-05
1.73483e-05
-2.01898e-06
2.76469e-05
-1.5464e-06
2.84413e-05
-1.16329e-06
2.92423e-05
-8.57359e-07
3.00502e-05
-6.16945e-07
3.0871e-05
-4.30779e-07
3.17041e-05
-2.88822e-07
3.25554e-05
-1.82275e-07
3.34241e-05
-1.04423e-07
3.43096e-05
-4.9991e-08
3.52215e-05
-1.62148e-08
3.61553e-05
-2.10429e-09
-2.51999e-06
1.92777e-05
-3.09941e-06
2.1424e-05
-3.76138e-06
2.3806e-05
-4.50689e-06
2.64564e-05
-5.33299e-06
2.94154e-05
-6.23401e-06
3.27257e-05
-7.19761e-06
3.64397e-05
-8.20456e-06
4.06334e-05
-9.22562e-06
4.53923e-05
-1.02225e-05
5.08281e-05
-1.11444e-05
5.70732e-05
-1.19306e-05
6.42893e-05
-1.25126e-05
7.26609e-05
-1.28186e-05
8.10814e-05
-1.27942e-05
8.27992e-05
-1.24825e-05
8.4624e-05
-1.19057e-05
8.6503e-05
-1.11006e-05
8.83744e-05
-1.25145e-05
9.04679e-05
-1.1067e-05
9.24656e-05
-9.50079e-06
9.94581e-05
-7.82199e-06
8.81766e-05
-6.35577e-06
7.8005e-05
-5.10097e-06
6.88736e-05
-4.04305e-06
6.06674e-05
-3.16221e-06
5.33694e-05
-2.43568e-06
4.68845e-05
-1.84109e-06
4.10974e-05
-1.35762e-06
3.5906e-05
-9.66408e-07
3.13087e-05
-6.51168e-07
2.71551e-05
-4.00263e-07
2.33512e-05
-2.06997e-07
1.94075e-05
-7.43636e-08
1.44036e-05
1.73224e-05
-2.49411e-06
2.75677e-05
-1.93969e-06
2.83793e-05
-1.48441e-06
2.91951e-05
-1.1161e-06
3.00156e-05
-8.22715e-07
3.08468e-05
-5.92748e-07
3.16884e-05
-4.15072e-07
3.25463e-05
-2.79762e-07
3.342e-05
-1.78257e-07
3.43092e-05
-1.03977e-07
3.52231e-05
-5.15246e-08
3.61572e-05
-1.81786e-08
3.65891e-05
-3.22288e-09
-3.06586e-06
1.92442e-05
-3.71946e-06
2.13821e-05
-4.45655e-06
2.37557e-05
-5.27534e-06
2.63988e-05
-6.17192e-06
2.93533e-05
-7.1366e-06
3.26647e-05
-8.15378e-06
3.63889e-05
-9.19894e-06
4.06067e-05
-1.02396e-05
4.54094e-05
-1.12313e-05
5.0915e-05
-1.21198e-05
5.72624e-05
-1.28419e-05
6.46187e-05
-1.33284e-05
7.31708e-05
-1.35111e-05
8.17983e-05
-1.33442e-05
8.36609e-05
-1.2887e-05
8.56053e-05
-1.2172e-05
8.75743e-05
-1.39172e-05
8.97772e-05
-1.25036e-05
9.19044e-05
-1.09309e-05
9.38957e-05
-9.28924e-06
0.000100925
-7.57979e-06
8.94007e-05
-6.11285e-06
7.90169e-05
-4.87499e-06
6.97055e-05
-3.84337e-06
6.13486e-05
-2.99239e-06
5.39261e-05
-2.29593e-06
4.73393e-05
-1.72975e-06
4.14695e-05
-1.27181e-06
3.62114e-05
-9.03142e-07
3.15607e-05
-6.0737e-07
2.73622e-05
-3.72775e-07
2.35169e-05
-1.92613e-07
1.95257e-05
-6.92687e-08
1.44729e-05
1.72905e-05
-3.03391e-06
2.7466e-05
-2.39247e-06
2.82983e-05
-1.85868e-06
2.91316e-05
-1.42088e-06
2.99672e-05
-1.06767e-06
3.08112e-05
-7.87116e-07
3.16634e-05
-5.67696e-07
3.25299e-05
-3.9866e-07
3.34105e-05
-2.7018e-07
3.43047e-05
-1.73834e-07
3.52223e-05
-1.03215e-07
3.61585e-05
-5.28166e-08
3.65909e-05
-1.99472e-08
3.5553e-05
-4.17776e-09
-3.67907e-06
1.92038e-05
-4.40726e-06
2.13328e-05
-5.21756e-06
2.36979e-05
-6.10747e-06
2.63343e-05
-7.06939e-06
2.92861e-05
-8.09076e-06
3.26017e-05
-9.15108e-06
3.6341e-05
-1.02229e-05
4.059e-05
-1.12677e-05
4.54457e-05
-1.22374e-05
5.10326e-05
-1.30746e-05
5.74951e-05
-1.37143e-05
6.50045e-05
-1.4089e-05
7.37486e-05
-1.41359e-05
8.259e-05
-1.3818e-05
8.45919e-05
-1.32125e-05
8.66458e-05
-1.53049e-05
8.89619e-05
-1.39449e-05
9.12185e-05
-1.238e-05
9.33535e-05
-1.07091e-05
9.53155e-05
-9.01668e-06
0.000102362
-7.29829e-06
9.05861e-05
-5.84644e-06
7.99883e-05
-4.63643e-06
7.04985e-05
-3.63813e-06
6.19943e-05
-2.82136e-06
5.44515e-05
-2.15751e-06
4.77671e-05
-1.6207e-06
4.18184e-05
-1.18869e-06
3.64969e-05
-8.42376e-07
3.17957e-05
-5.65516e-07
2.75549e-05
-3.46618e-07
2.36709e-05
-1.7895e-07
1.96354e-05
-6.44043e-08
1.45373e-05
1.7252e-05
-3.64058e-06
2.73393e-05
-2.90723e-06
2.81947e-05
-2.28891e-06
2.90484e-05
-1.77548e-06
2.99021e-05
-1.35576e-06
3.07614e-05
-1.01792e-06
3.16267e-05
-7.50467e-07
3.25041e-05
-5.4192e-07
3.33935e-05
-3.81687e-07
3.42947e-05
-2.60123e-07
3.52175e-05
-1.6902e-07
3.61574e-05
-1.02143e-07
3.65919e-05
-5.38741e-08
3.55545e-05
-2.14722e-08
3.45448e-05
-4.99585e-09
-4.35971e-06
1.91562e-05
-5.16084e-06
2.12761e-05