/*--------------------------------*- C++ -*----------------------------------*\
  =========                 |
  \\      /  F ield         | OpenFOAM: The Open Source CFD Toolbox
   \\    /   O peration     | Website:  https://openfoam.org
    \\  /    A nd           | Version:  8
     \\/     M anipulation  |
\*---------------------------------------------------------------------------*/
FoamFile
{
    version     2.0;
    format      ascii;
    class       volScalarField;
    location    "0.42";
    object      k;
}
// * * * * * * * * * * * * * * * * * * * * * * * * * * * * * * * * * * * * * //

dimensions      [0 2 -2 0 0 0 0];

internalField   nonuniform List<scalar> 
15677
(
0.33418
0.365064
0.294758
0.368752
0.35768
0.281004
0.370705
0.360076
0.366085
0.282712
0.371892
0.361638
0.361447
0.383233
0.288831
0.372615
0.36375
0.35772
0.368276
0.401582
0.300144
0.373041
0.365668
0.357837
0.358133
0.380037
0.419194
0.311799
0.373264
0.367184
0.359457
0.354587
0.360999
0.393131
0.434722
0.322482
0.373348
0.368309
0.361357
0.35478
0.353048
0.366805
0.406085
0.447751
0.332203
0.373348
0.369085
0.363069
0.35635
0.351131
0.35347
0.373507
0.418059
0.458831
0.34048
0.373312
0.369569
0.364447
0.35823
0.351951
0.348786
0.354769
0.380519
0.429048
0.467904
0.347815
0.373273
0.369825
0.365468
0.35997
0.353742
0.348396
0.34717
0.357022
0.38758
0.438632
0.475692
0.353957
0.373247
0.369926
0.366155
0.361405
0.355691
0.349786
0.345397
0.346303
0.359667
0.394212
0.447268
0.482069
0.359405
0.373237
0.369939
0.366554
0.362487
0.357452
0.351748
0.346258
0.342949
0.345892
0.362465
0.400603
0.454607
0.487627
0.364101
0.373237
0.369921
0.366742
0.363219
0.358886
0.353712
0.348128
0.343138
0.340909
0.345875
0.365404
0.40629
0.461184
0.492169
0.36831
0.373238
0.369906
0.366798
0.363645
0.359943
0.355424
0.350216
0.34481
0.340367
0.339224
0.346011
0.368159
0.411646
0.466669
0.496194
0.372045
0.373238
0.369899
0.366798
0.363843
0.360634
0.356774
0.352149
0.34695
0.341793
0.337889
0.337802
0.346281
0.370955
0.416243
0.471542
0.499589
0.37531
0.373238
0.369897
0.366787
0.363901
0.361015
0.357729
0.353752
0.349055
0.343937
0.339024
0.335691
0.336546
0.346747
0.373412
0.420465
0.475551
0.502621
0.378445
0.373238
0.369896
0.366778
0.363908
0.361162
0.358316
0.354952
0.35088
0.346174
0.341141
0.336517
0.333691
0.335527
0.347159
0.375794
0.423943
0.479103
0.505313
0.381009
0.373238
0.369896
0.366771
0.363903
0.361203
0.358586
0.355743
0.352309
0.348188
0.343484
0.338582
0.334224
0.331924
0.334614
0.347659
0.37776
0.427092
0.481996
0.507684
0.383845
0.373238
0.369896
0.366766
0.363897
0.361206
0.358689
0.35614
0.353308
0.349822
0.34567
0.34101
0.33624
0.332153
0.330346
0.333863
0.348049
0.379607
0.429557
0.484561
0.510003
0.385857
0.373238
0.369895
0.366763
0.363892
0.361197
0.35872
0.356311
0.353853
0.35101
0.3475
0.343348
0.338748
0.334118
0.330309
0.328968
0.333201
0.348466
0.381018
0.431793
0.486632
0.511933
0.388629
0.373238
0.369895
0.36676
0.363888
0.361186
0.358722
0.356372
0.354112
0.35169
0.348882
0.345356
0.341233
0.33671
0.332242
0.328693
0.327782
0.332652
0.348766
0.382341
0.4334
0.488518
0.514179
0.390218
0.373238
0.369894
0.366758
0.363884
0.361177
0.358714
0.356383
0.354223
0.352033
0.349713
0.346908
0.343418
0.339346
0.334924
0.330616
0.327322
0.326796
0.332241
0.349079
0.383235
0.434941
0.489979
0.515764
0.393001
0.373238
0.369894
0.366757
0.363881
0.36117
0.358704
0.356376
0.354257
0.35219
0.350156
0.347868
0.345159
0.341704
0.337708
0.333415
0.32928
0.326239
0.32607
0.331896
0.349288
0.384119
0.435873
0.491552
0.518386
0.394453
0.373238
0.369893
0.366756
0.363879
0.361164
0.358694
0.356363
0.354258
0.352248
0.350373
0.3484
0.346278
0.343603
0.340249
0.336395
0.332237
0.328278
0.325426
0.325513
0.331789
0.349584
0.384653
0.436987
0.492506
0.520081
0.51096
0.373239
0.369893
0.366756
0.363876
0.36116
0.358686
0.35635
0.354244
0.352258
0.35046
0.348677
0.346918
0.344839
0.342367
0.339153
0.335388
0.331379
0.327587
0.325017
0.325446
0.331862
0.349843
0.385238
0.437487
0.494637
0.529365
0.728902
0.373239
0.369892
0.366755
0.363874
0.361157
0.358678
0.356338
0.354227
0.352248
0.35048
0.348802
0.347255
0.34557
0.343802
0.341416
0.338318
0.334839
0.331111
0.327575
0.3251
0.325601
0.332087
0.350186
0.385639
0.438528
0.495176
0.547153
0.912954
0.373239
0.369892
0.366755
0.363873
0.361155
0.358672
0.356329
0.354209
0.352229
0.350467
0.348844
0.347405
0.345988
0.344656
0.342933
0.34091
0.338216
0.334935
0.331317
0.327852
0.325464
0.326035
0.332552
0.350658
0.386127
0.439197
0.494823
0.560858
1.059
0.373239
0.369891
0.366755
0.363871
0.361153
0.358667
0.356321
0.354194
0.35221
0.350441
0.348842
0.347451
0.346201
0.345122
0.343887
0.342761
0.341043
0.338508
0.33541
0.331952
0.328589
0.326272
0.326899
0.333393
0.351293
0.386791
0.43889
0.493105
0.569776
1.17184
0.373239
0.369891
0.366755
0.36387
0.361151
0.358663
0.356314
0.354182
0.352192
0.350412
0.34882
0.347443
0.346287
0.345345
0.34449
0.343914
0.34302
0.341586
0.339319
0.336478
0.333258
0.330034
0.327735
0.328282
0.334588
0.352216
0.387315
0.437835
0.489429
0.576162
1.26742
0.373239
0.369891
0.366756
0.363869
0.36115
0.358659
0.356309
0.354171
0.352176
0.350387
0.34879
0.34741
0.3463
0.345426
0.34482
0.34458
0.344277
0.343777
0.342767
0.340938
0.338456
0.335419
0.332225
0.329842
0.330167
0.336213
0.35337
0.387673
0.435656
0.484145
0.579778
1.34534
0.373239
0.36989
0.366756
0.363868
0.361149
0.358656
0.356304
0.354162
0.352162
0.350365
0.34876
0.347369
0.346275
0.345432
0.344967
0.344947
0.345043
0.345201
0.345313
0.344931
0.343531
0.341345
0.338434
0.33522
0.332626
0.332634
0.338291
0.354767
0.387607
0.43242
0.477535
0.582505
1.40465
0.37324
0.36989
0.366756
0.363867
0.361149
0.358653
0.3563
0.354154
0.352151
0.350346
0.348732
0.34733
0.346232
0.345396
0.345007
0.345119
0.345478
0.346104
0.347015
0.347879
0.34811
0.347168
0.345248
0.342425
0.339067
0.336183
0.335689
0.340819
0.356303
0.387355
0.428351
0.47025
0.584666
1.45218
0.37324
0.36989
0.366756
0.363866
0.361148
0.358651
0.356297
0.354148
0.35214
0.35033
0.348708
0.347295
0.346187
0.345344
0.344986
0.345172
0.345694
0.346637
0.348136
0.34989
0.351557
0.35247
0.351979
0.350302
0.347457
0.343882
0.34052
0.339386
0.343835
0.35806
0.386798
0.423535
0.463384
0.587236
1.49228
0.36989
0.373243
0.366756
0.363865
0.361148
0.358649
0.356294
0.354142
0.352132
0.350316
0.348687
0.347265
0.346144
0.34529
0.344935
0.34516
0.345777
0.34693
0.348834
0.351253
0.353959
0.356534
0.358171
0.358125
0.3566
0.353663
0.34968
0.345713
0.343679
0.34723
0.360252
0.386001
0.419015
0.457381
0.590075
1.52758
0.366756
0.3699
0.373251
0.363865
0.361147
0.358647
0.356292
0.354138
0.352124
0.350304
0.348668
0.347238
0.346106
0.34524
0.344876
0.345112
0.345784
0.347066
0.349241
0.352145
0.355641
0.359434
0.363001
0.365395
0.365726
0.36429
0.36107
0.356555
0.351715
0.348635
0.351417
0.362988
0.385339
0.414757
0.452101
0.593613
1.5597
0.363864
0.366773
0.36992
0.373258
0.361147
0.358645
0.35629
0.354133
0.352117
0.350294
0.348651
0.347215
0.346072
0.345196
0.344818
0.345055
0.34575
0.34711
0.349465
0.352712
0.356798
0.361532
0.366531
0.371168
0.374296
0.37495
0.373418
0.369795
0.36446
0.358577
0.354848
0.356617
0.366045
0.384916
0.411008
0.447734
0.597396
1.58955
0.361147
0.363885
0.366807
0.369942
0.373266
0.358644
0.356288
0.35413
0.352111
0.350286
0.348637
0.347196
0.346042
0.345157
0.344766
0.344998
0.3457
0.347103
0.34958
0.353069
0.357593
0.363048
0.369171
0.375488
0.381222
0.385065
0.385873
0.384126
0.379791
0.373461
0.367125
0.362654
0.362366
0.369505
0.385023
0.407735
0.443982
0.601741
1.61775
0.358642
0.361174
0.36393
0.366842
0.369963
0.373274
0.356287
0.354126
0.352106
0.350278
0.348624
0.347179
0.346016
0.345123
0.344719
0.344945
0.34565
0.347074
0.349632
0.353301
0.358152
0.364162
0.371168
0.378827
0.386527
0.393384
0.397808
0.398655
0.396372
0.39115
0.384637
0.377817
0.371313
0.368608
0.37325
0.385414
0.405034
0.440873
0.60612
1.64447
0.356285
0.358673
0.361229
0.363975
0.366877
0.369986
0.373283
0.354123
0.352102
0.350272
0.348612
0.347165
0.345992
0.345093
0.344677
0.344898
0.345602
0.347039
0.349652
0.353455
0.358571
0.365018
0.372729
0.381465
0.390757
0.399903
0.407794
0.412715
0.413269
0.41028
0.405228
0.398574
0.389649
0.380747
0.37535
0.377187
0.386218
0.402849
0.438258
0.610878
1.67006
0.354121
0.35632
0.358736
0.361286
0.364022
0.366914
0.370009
0.373291
0.352098
0.350266
0.348602
0.347153
0.345971
0.345067
0.344641
0.344856
0.345559
0.347005
0.349659
0.353565
0.358896
0.365721
0.374014
0.38364
0.394245
0.405273
0.415803
0.424683
0.42978
0.429867
0.427505
0.422774
0.413968
0.402514
0.390864
0.382558
0.381333
0.387444
0.401205
0.436158
0.615493
1.69437
0.352094
0.354158
0.356392
0.358801
0.361344
0.36407
0.366952
0.370033
0.3733
0.350261
0.348593
0.347143
0.345952
0.345045
0.344609
0.34482
0.34552
0.346975
0.349661
0.353651
0.359159
0.366314
0.375141
0.385532
0.397254
0.40987
0.422613
0.434528
0.444088
0.449203
0.450437
0.448967
0.44212
0.430674
0.416285
0.401577
0.390149
0.385692
0.389006
0.4
0.43443
0.620345
1.71771
0.350257
0.352133
0.354235
0.356466
0.358868
0.361404
0.364119
0.36699
0.370057
0.373309
0.348585
0.347134
0.345934
0.345027
0.34458
0.344787
0.345487
0.346949
0.349661
0.353724
0.359384
0.366822
0.376146
0.387275
0.399992
0.414
0.428644
0.443143
0.456154
0.4663
0.473347
0.47611
0.472628
0.463092
0.448525
0.430826
0.412786
0.398049
0.390256
0.390686
0.399293
0.433113
0.624951
1.7398
0.348579
0.350297
0.352216
0.354315
0.356542
0.358937
0.361466
0.36417
0.36703
0.370082
0.373318
0.347127
0.345919
0.345011
0.344555
0.344758
0.345457
0.346926
0.349661
0.353789
0.359583
0.367272
0.377039
0.388889
0.402611
0.417903
0.434259
0.451023
0.466999
0.481058
0.494064
0.503668
0.504506
0.498303
0.485477
0.467333
0.445993
0.424386
0.406186
0.395024
0.39253
0.398815
0.432047
0.629687
1.761
0.34712
0.348616
0.350383
0.352302
0.354398
0.356621
0.359008
0.361529
0.364222
0.367071
0.370108
0.373328
0.345905
0.344999
0.344532
0.344733
0.34543
0.346906
0.349662
0.353848
0.359763
0.367678
0.377847
0.390358
0.405113
0.42176
0.439739
0.458598
0.47722
0.494684
0.512375
0.529183
0.537434
0.535451
0.525738
0.509048
0.486912
0.461641
0.436268
0.414491
0.399945
0.394482
0.39875
0.431302
0.634126
1.78095
0.345892
0.347157
0.3487
0.350471
0.35239
0.354483
0.356701
0.359081
0.361595
0.364276
0.367113
0.370134
0.373337
0.344988
0.344511
0.34471
0.345407
0.346888
0.349663
0.353901
0.359925
0.368049
0.378587
0.39171
0.40744
0.425536
0.4453
0.466211
0.487336
0.507903
0.529763
0.552354
0.568605
0.574469
0.568715
0.554723
0.533595
0.507074
0.477618
0.448328
0.422897
0.404964
0.396561
0.39884
0.43072
0.638628
1.80006
0.34498
0.345918
0.347239
0.348787
0.350563
0.352481
0.35457
0.356785
0.359155
0.361661
0.364331
0.367156
0.370161
0.373347
0.344491
0.344689
0.345386
0.346873
0.349664
0.35395
0.360074
0.368388
0.379266
0.39296
0.409613
0.429109
0.450857
0.474135
0.497776
0.521356
0.547132
0.575054
0.597702
0.612247
0.614538
0.604022
0.585011
0.558888
0.527631
0.493781
0.460464
0.431341
0.410038
0.398713
0.399044
0.430422
0.64281
1.81792
0.344473
0.345002
0.345982
0.347324
0.348878
0.350658
0.352575
0.35466
0.35687
0.359233
0.36173
0.364387
0.367199
0.370188
0.373356
0.34467
0.345367
0.34686
0.349667
0.353996
0.360208
0.368697
0.379888
0.394117
0.411643
0.43248
0.456205
0.482232
0.508879
0.535589
0.565319
0.598487
0.627106
0.648511
0.659978
0.657408
0.641097
0.616348
0.584723
0.548412
0.510002
0.472587
0.439762
0.415125
0.400946
0.39939
0.430218
0.647015
1.83504
0.344656
0.34446
0.345057
0.346049
0.347413
0.348973
0.350755
0.352673
0.354753
0.356958
0.359312
0.361801
0.364445
0.367243
0.370214
0.373365
0.34535
0.346848
0.349669
0.354037
0.360331
0.368979
0.380459
0.395185
0.413535
0.435657
0.461324
0.490154
0.520414
0.551077
0.585095
0.623838
0.658482
0.686367
0.704917
0.711729
0.702865
0.67967
0.648472
0.610901
0.569262
0.526163
0.484615
0.448107
0.42019
0.403236
0.399829
0.430229
0.650889
1.85092
0.345338
0.344624
0.344449
0.345114
0.34612
0.347505
0.349071
0.350856
0.352773
0.354848
0.357049
0.359393
0.361873
0.364503
0.367285
0.370239
0.373374
0.346838
0.349671
0.354075
0.360443
0.369236
0.38098
0.39617
0.415292
0.438644
0.46621
0.497821
0.531849
0.567566
0.607193
0.652273
0.693618
0.728306
0.753611
0.767297
0.767539
0.750733
0.719499
0.681146
0.637232
0.590041
0.542162
0.496476
0.456329
0.425201
0.405558
0.400331
0.430294
0.65477
1.86615
0.346834
0.345274
0.344572
0.344437
0.345177
0.346198
0.347601
0.349174
0.35096
0.352877
0.354947
0.357142
0.359477
0.361944
0.364559
0.367326
0.370264
0.373382
0.349672
0.354108
0.360544
0.36947
0.381457
0.397075
0.41692
0.441441
0.470846
0.505196
0.543079
0.58434
0.631265
0.684996
0.734583
0.777461
0.810174
0.830258
0.836321
0.827559
0.800887
0.760371
0.714165
0.663549
0.610626
0.557912
0.508108
0.464386
0.430133
0.407887
0.400903
0.430424
0.658307
1.88018
0.34968
0.346718
0.345145
0.344518
0.344437
0.345242
0.346283
0.3477
0.349282
0.351067
0.352984
0.355048
0.357237
0.35956
0.362013
0.364613
0.367365
0.370288
0.37339
0.354137
0.360634
0.369683
0.381892
0.397905
0.418424
0.444049
0.475221
0.51225
0.554071
0.601184
0.656086
0.721829
0.784177
0.838201
0.880407
0.907455
0.918153
0.912773
0.891967
0.853221
0.802101
0.747346
0.689702
0.630916
0.57334
0.519461
0.472245
0.434961
0.410207
0.401502
0.430673
0.661861
1.89367
0.354173
0.349478
0.346465
0.34501
0.344471
0.344453
0.345309
0.346375
0.347802
0.349393
0.351178
0.353095
0.355152
0.357331
0.35964
0.362081
0.364666
0.367404
0.370311
0.373398
0.360715
0.369874
0.382288
0.398666
0.419809
0.446473
0.479331
0.518969
0.564773
0.61791
0.681252
0.761665
0.844004
0.916818
0.97242
1.00841
1.02341
1.0188
0.997174
0.960814
0.907594
0.844506
0.780528
0.715563
0.650824
0.588386
0.530495
0.479879
0.439667
0.412499
0.402149
0.430918
0.665066
1.9045
0.360803
0.35387
0.349015
0.346202
0.344884
0.344424
0.344489
0.345377
0.346473
0.347908
0.349509
0.351292
0.353208
0.355255
0.357423
0.359719
0.362146
0.364718
0.367441
0.370334
0.373406
0.370047
0.382646
0.39936
0.421083
0.448721
0.483177
0.525342
0.575119
0.634333
0.706739
0.804891
0.913462
1.0168
1.0959
1.14453
1.16494
1.15936
1.1325
1.08942
1.03387
0.963776
0.887391
0.813562
0.74102
0.670274
0.603003
0.541179
0.487266
0.444236
0.414752
0.4028
0.431262
0.667855
1.91361
0.370222
0.360366
0.353135
0.348537
0.345957
0.34477
0.344373
0.344542
0.345447
0.346579
0.348018
0.349629
0.351409
0.35332
0.355356
0.357512
0.359795
0.36221
0.364768
0.367478
0.370356
0.373413
0.382973
0.399992
0.422252
0.450798
0.486767
0.531361
0.585045
0.650344
0.732712
0.851927
0.992087
1.13401
1.25216
1.3258
1.35496
1.34885
1.31387
1.25804
1.18866
1.11059
1.02143
0.93054
0.846305
0.76598
0.689204
0.617154
0.551487
0.49439
0.448653
0.416953
0.403481
0.431527
0.670135
1.92347
0.38329
0.369614
0.359246
0.352378
0.348088
0.34573
0.344666
0.344325
0.344607
0.34552
0.34669
0.348133
0.349753
0.351526
0.353429
0.355454
0.357599
0.35987
0.362272
0.364816
0.367513
0.370377
0.373421
0.400574
0.423321
0.452714
0.490108
0.537023
0.594512
0.665919
0.759327
0.902472
1.07788
1.26306
1.42861
1.54712
1.60074
1.59779
1.55515
1.48325
1.39298
1.2934
1.1901
1.0801
0.973714
0.87862
0.79036
0.707565
0.630809
0.561403
0.501237
0.452911
0.419095
0.40406
0.431816
0.672652
1.93423
0.401119
0.382467
0.367957
0.358097
0.351661
0.347666
0.34552
0.344569
0.344286
0.34468
0.3456
0.346806
0.348251
0.349876
0.351641
0.353536
0.355549
0.357683
0.359942
0.362332
0.364864
0.367547
0.370398
0.373424
0.424311
0.454479
0.49321
0.542328
0.603508
0.681077
0.786579
0.955539
1.16777
1.39794
1.61441
1.7869
1.89001
1.91011
1.86433
1.77725
1.66282
1.53424
1.40176
1.27139
1.13927
1.01665
0.910373
0.81409
0.725317
0.643946
0.570915
0.507803
0.457002
0.420895
0.404584
0.432102
0.675355
1.94594
0.425214
0.400034
0.380065
0.366266
0.357005
0.350981
0.347269
0.345324
0.344482
0.344258
0.34476
0.345687
0.346926
0.348372
0.349996
0.351753
0.353639
0.355643
0.357766
0.360013
0.36239
0.36491
0.36758
0.370408
0.373424
0.456121
0.496087
0.547285
0.612037
0.695836
0.814274
1.00984
1.2587
1.53333
1.80125
2.03107
2.19427
2.26797
2.24312
2.14597
2.00859
1.84791
1.67871
1.51184
1.35335
1.19839
1.0591
0.941441
0.83711
0.742429
0.656553
0.580017
0.514079
0.460406
0.422449
0.405164
0.432508
0.678382
1.95878
0.457591
0.423812
0.396604
0.377629
0.364655
0.355962
0.350331
0.346894
0.345141
0.344406
0.344242
0.344844
0.345782
0.347046
0.348491
0.350113
0.351863
0.35374
0.355733
0.357845
0.360081
0.362447
0.364954
0.367597
0.370408
0.373424
0.498774
0.551916
0.620121
0.7102
0.842106
1.06412
1.34827
1.66545
1.98327
2.2706
2.49772
2.63756
2.66977
2.59043
2.43529
2.24357
2.03446
1.82359
1.62185
1.43496
1.25694
1.1008
0.971708
0.859366
0.758879
0.668623
0.588706
0.519278
0.46332
0.424175
0.405847
0.432916
0.681622
1.97276
0.501142
0.455817
0.418961
0.393153
0.375307
0.363112
0.354959
0.349708
0.34654
0.344971
0.344342
0.34424
0.344931
0.345884
0.347163
0.348609
0.350227
0.351971
0.353838
0.355822
0.357923
0.360148
0.362502
0.364976
0.367597
0.370408
0.373424
0.556263
0.627796
0.724161
0.869737
1.11738
1.43482
1.79193
2.15692
2.4997
2.79092
3.00161
3.1058
3.08609
2.94441
2.7263
2.47767
2.21919
1.9666
1.73029
1.51529
1.31442
1.14152
1.00107
0.880817
0.774652
0.680153
0.595894
0.523716
0.466539
0.426105
0.406607
0.433421
0.685262
1.98812
0.560057
0.49889
0.449002
0.414127
0.389864
0.373077
0.361622
0.353993
0.349112
0.346208
0.344816
0.344291
0.344259
0.345015
0.345989
0.347277
0.348725
0.350338
0.352075
0.353934
0.355908
0.357998
0.360213
0.362529
0.364976
0.367597
0.370408
0.373424
0.635112
0.737714
0.896878
1.16885
1.51733
1.91148
2.3203
2.71509
3.06786
3.34982
3.53205
3.58973
3.50913
3.29883
3.0143
2.70743
2.39961
2.10598
1.83595
1.5936
1.37042
1.18107
1.02943
0.901431
0.789737
0.689695
0.602023
0.528605
0.470103
0.428258
0.407509
0.433945
0.689155
2.00482
0.641521
0.557181
0.489339
0.442279
0.409521
0.386699
0.37092
0.360181
0.353063
0.348542
0.345904
0.344674
0.344246
0.344305
0.345096
0.346097
0.347388
0.348839
0.350446
0.352178
0.354027
0.355992
0.358072
0.360245
0.362529
0.364976
0.367597
0.370408
0.373424
0.750842
0.923298
1.21806
1.59522
2.02348
2.47258
2.9152
3.32521
3.67544
3.93667
4.07968
4.08126
3.93227
3.64864
3.29564
2.9303
2.5739
2.24045
1.93796
1.6693
1.42461
1.21927
1.05673
0.921181
0.802232
0.697833
0.60877
0.533998
0.474054
0.430677
0.40852
0.434576
0.693562
2.02321
0.762397
0.637879
0.543644
0.480023
0.435877
0.405083
0.38363
0.368828
0.35879
0.35217
0.347996
0.345622
0.344546
0.344194
0.344368
0.345175
0.346205
0.347498
0.348951
0.350552
0.352278
0.354117
0.356073
0.358108
0.360244
0.362529
0.364976
0.367597
0.370408
0.373421
0.948786
1.2647
1.66823
2.12772
2.61358
3.09959
3.56151
3.97464
4.31156
4.5419
4.63605
4.57321
4.34986
3.9898
3.56758
3.14444
2.74083
2.36914
2.03568
1.74196
1.47671
1.25599
1.08291
0.937562
0.812897
0.706796
0.616209
0.539958
0.478444
0.433389
0.409716
0.435274
0.698283
2.04314
0.757914
0.971068
0.617857
0.530715
0.471154
0.429703
0.400774
0.380651
0.366804
0.35745
0.351315
0.34748
0.345364
0.344436
0.344151
0.34444
0.345255
0.346313
0.347606
0.349061
0.350656
0.352375
0.354206
0.356113
0.358107
0.360244
0.362529
0.364976
0.367597
0.370398
0.373413
1.30854
1.7363
2.2243
2.74348
3.26846
3.7766
4.24585
4.65196
4.96628
5.15666
5.19339
5.05916
4.75714
4.31911
3.82812
3.34861
2.8996
2.49149
2.1287
1.81129
1.52656
1.29114
1.10463
0.951553
0.824651
0.716682
0.624422
0.546556
0.48333
0.436451
0.411075
0.436071
0.703666
2.06513
0.726615
0.966355
1.34614
0.5993
0.518455
0.462591
0.423707
0.396588
0.377765
0.364851
0.356164
0.3505
0.347001
0.345139
0.344343
0.344122
0.344516
0.345337
0.34642
0.347712
0.349169
0.350756
0.35247
0.354249
0.356113
0.358107
0.360244
0.362529
0.364976
0.36758
0.370377
0.373406
1.7994
2.31345
2.86272
3.4224
3.97111
4.48915
4.95594
5.34667
5.63038
5.77267
5.74453
5.53349
5.15021
4.63415
4.07588
3.54206
3.04977
2.6072
2.2168
1.87713
1.57401
1.32022
1.12317
0.966985
0.837624
0.727603
0.633505
0.55387
0.488783
0.439901
0.412666
0.437036
0.709453
2.08883
0.697909
0.916969
1.3413
1.85298
0.581999
0.506615
0.454272
0.417877
0.392527
0.374975
0.362972
0.354933
0.349735
0.346572
0.344944
0.344266
0.344106
0.344594
0.34542
0.346526
0.347816
0.349274
0.350855
0.352516
0.354247
0.356112
0.358106
0.360243
0.362528
0.364954
0.367547
0.370355
0.373398
2.39539
2.97189
3.56233
4.1462
4.70576
5.22387
5.68056
6.04916
6.29525
6.38221
6.28299
5.99138
5.52594
4.93321
4.31003
3.72441
3.19115
2.71617
2.29991
1.93938
1.61308
1.34502
1.14362
0.984028
0.851963
0.739684
0.643568
0.561997
0.494878
0.443813
0.414519
0.438053
0.716084
2.11505
0.671534
0.87035
1.27011
1.84884
2.46433
0.56547
0.495102
0.446187
0.412222
0.388601
0.372288
0.361171
0.353771
0.349038
0.346196
0.344775
0.344207
0.344104
0.344671
0.345507
0.346629
0.347919
0.349377
0.350903
0.352514
0.354246
0.356111
0.358106
0.360243
0.362501
0.364908
0.367512
0.370333
0.37339
3.07149
3.68929
4.3034
4.89757
5.45766
5.96854
6.40961
6.75067
6.95286
6.97809
6.80296
6.42879
5.88201
5.2152
4.53015
3.89553
3.32378
2.81846
2.37803
1.9903
1.64627
1.3723
1.16619
1.00287
0.867833
0.753071
0.654735
0.571043
0.501709
0.448253
0.416647
0.439434
0.723282
2.14305
0.646831
0.826663
1.20027
1.75823
2.46173
3.15436
0.549503
0.483908
0.438348
0.406751
0.384816
0.369709
0.359464
0.352706
0.348418
0.345866
0.344631
0.344161
0.344117
0.344745
0.345595
0.346731
0.348023
0.349427
0.3509
0.352513
0.354245
0.356111
0.358105
0.36021
0.362444
0.364862
0.367476
0.37031
0.373382
3.80411
4.44438
5.06699
5.66026
6.21342
6.71241
7.13418
7.44314
7.5957
7.55371
7.29943
6.84259
6.21686
5.4795
4.73611
4.05556
3.44782
2.91419
2.44161
2.03337
1.68264
1.40232
1.19111
1.02373
0.885422
0.767929
0.667153
0.581135
0.509382
0.453305
0.419214
0.440755
0.731523
2.17415
0.623463
0.785501
1.13216
1.66759
2.35432
3.15358
3.89833
0.534043
0.473055
0.430772
0.401478
0.381182
0.367262
0.357895
0.35175
0.347864
0.345578
0.344507
0.344126
0.344148
0.344818
0.345686
0.346833
0.348071
0.349423
0.350898
0.352512
0.354244
0.35611
0.358068
0.360144
0.362387
0.364814
0.36744
0.370287
0.373374
4.57048
5.21656
5.83523
6.41944
6.96136
7.44636
7.84647
8.11918
8.21672
8.10311
7.76828
7.23055
6.52959
5.72597
4.92814
4.2048
3.56354
2.99179
2.4952
2.08035
1.72247
1.43537
1.21864
1.04683
0.904945
0.784449
0.680989
0.592417
0.518025
0.459098
0.422083
0.442778
0.740635
2.20686
0.601275
0.746739
1.06556
1.57726
2.24586
3.03151
3.8986
4.67201
0.51909
0.46257
0.423475
0.396415
0.377733
0.365009
0.356483
0.350893
0.347369
0.345331
0.344401
0.344089
0.344194
0.344891
0.345782
0.34688
0.348065
0.349421
0.350897
0.352511
0.354244
0.356068
0.357993
0.360076
0.362328
0.364765
0.367402
0.370263
0.373365
5.34828
5.98627
6.59172
7.1623
7.69198
8.16286
8.53954
8.7718
8.80933
8.62119
8.20642
7.59127
6.81985
5.95482
5.10662
4.34362
3.65708
3.05705
2.55344
2.13156
1.7661
1.47175
1.24908
1.07245
0.92664
0.802846
0.696436
0.605063
0.52779
0.465697
0.425702
0.444541
0.750951
2.24971
0.580187
0.710421
1.00057
1.48681
2.13665
2.90798
3.76315
4.67127
5.45174
0.504663
0.452483
0.416477
0.39161
0.374556
0.362978
0.355212
0.350123
0.346925
0.345117
0.344312
0.344055
0.344252
0.344972
0.345826
0.346871
0.348062
0.349419
0.350895
0.35251
0.354199
0.355984
0.357916
0.360006
0.362267
0.364714
0.367364
0.370238
0.373356
6.11629
6.73548
7.32227
7.87872
8.3979
8.85565
9.20704
9.3943
9.36756
9.10377
8.61171
7.9241
7.08787
6.16657
5.27207
4.45552
3.73558
3.12777
2.61669
2.18735
1.81386
1.51177
1.28272
1.10088
0.950774
0.823366
0.713716
0.619269
0.538843
0.473366
0.429619
0.447533
0.76487
2.30083
0.560136
0.676616
0.9376
1.3961
2.02615
2.78313
3.62665
4.52271
5.44666
6.21492
0.490789
0.442825
0.409841
0.387186
0.37169
0.361147
0.354068
0.349433
0.346531
0.344933
0.344235
0.344036
0.344325
0.345001
0.345815
0.346866
0.348059
0.349417
0.350895
0.352461
0.354108
0.355898
0.357837
0.359935
0.362205
0.364663
0.367324
0.370213
0.373347
6.85483
7.44846
8.01596
8.56126
9.07344
9.51952
9.8427
9.98038
9.88612
9.54778
8.98306
8.22921
7.33426
6.36189
5.40495
4.54922
3.82044
3.20435
2.68532
2.24809
1.86609
1.55578
1.3199
1.13242
0.977644
0.846282
0.733082
0.635271
0.551419
0.482099
0.434803
0.450508
0.781727
2.35276
0.541068
0.645341
0.877222
1.30535
1.91392
2.65631
3.48896
4.3745
5.28395
6.20087
6.94065
0.477502
0.433686
0.403739
0.383198
0.369107
0.359497
0.353039
0.348814
0.346183
0.344772
0.344178
0.344046
0.344355
0.344977
0.345811
0.346863
0.348057
0.349417
0.350844
0.352362
0.354015
0.35581
0.357755
0.359862
0.362141
0.36461
0.367284
0.370186
0.373338
7.54648
8.11335
8.66538
9.20341
9.71223
10.1486
10.4413
10.5236
10.3607
9.95134
9.32038
8.5073
7.55992
6.51794
5.51593
4.65029
3.91212
3.28719
2.75972
2.31413
1.92314
1.60413
1.36096
1.16741
1.00757
0.8719
0.754827
0.653335
0.565719
0.492421
0.441285
0.456368
0.803256
2.40329
0.522946
0.616533
0.820098
1.21504
1.79983
2.52681
3.34934
4.22608
5.12424
6.02169
6.91179
7.61019
0.464933
0.425305
0.398243
0.379605
0.366778
0.358011
0.352114
0.34826
0.345875
0.344643
0.344158
0.344031
0.344334
0.344968
0.345806
0.346861
0.348058
0.349363
0.35074
0.352262
0.353919
0.35572
0.357672
0.359786
0.362075
0.364555
0.367242
0.37016
0.373328
8.17858
8.7215
9.25794
9.79271
10.3029
10.7335
10.9948
11.0184
10.7883
10.3139
9.62443
8.7595
7.7388
6.64775
5.63524
4.75916
4.01102
3.3767
2.84027
2.38584
1.98538
1.65716
1.40625
1.20621
1.04089
0.90055
0.779263
0.673778
0.582128
0.506338
0.451585
0.461552
0.823607
2.45399
0.505862
0.590047
0.766893
1.12589
1.68398
2.39411
3.20684
4.07668
4.96634
5.84951
6.71266
7.55894
8.21087
0.453417
0.417777
0.393297
0.376368
0.36468
0.356674
0.351281
0.347763
0.345618
0.344567
0.344124
0.343984
0.344329
0.344962
0.345802
0.346863
0.348003
0.349254
0.350635
0.352159
0.353821
0.355627
0.357586
0.359709
0.362007
0.3645
0.367199
0.370133
0.373319
8.74071
9.26408
9.79894
10.3411
10.8491
11.268
11.4965
11.4602
11.1676
10.6361
9.8966
8.95729
7.88675
6.78665
5.76329
4.87626
4.11757
3.47328
2.92734
2.46357
2.05314
1.71523
1.45612
1.24915
1.07797
0.932573
0.806761
0.69695
0.604317
0.525533
0.462234
0.470104
0.851484
2.50125
0.49021
0.565825
0.718165
1.03883
1.56666
2.25787
3.06054
3.92512
4.80945
5.68236
6.52593
7.33614
8.12234
8.73257
0.443097
0.411019
0.388846
0.373453
0.362789
0.355466
0.35053
0.347339
0.345443
0.344498
0.344068
0.343969
0.344323
0.344959
0.345804
0.346809
0.347892
0.349144
0.350528
0.352053
0.35372
0.355532
0.357498
0.35963
0.361938
0.364442
0.367156
0.370106
0.37331
9.22812
9.739
10.2826
10.8447
11.3566
11.7505
11.9404
11.8464
11.4987
10.9195
10.1069
9.11954
8.04396
6.9349
5.90042
5.00196
4.23215
3.5773
3.02129
2.54765
2.12674
1.77864
1.51089
1.29658
1.11913
0.96834
0.837646
0.728095
0.633578
0.546845
0.476738
0.47781
0.876881
2.54801
0.476163
0.544125
0.674607
0.955072
1.44836
2.11793
2.90963
3.77014
4.6522
5.51935
6.34872
7.13193
7.87368
8.58724
9.15873
0.433863
0.404952
0.384844
0.370828
0.361083
0.354375
0.34988
0.34703
0.345311
0.344423
0.344051
0.343957
0.344315
0.344968
0.34575
0.346699
0.347782
0.349031
0.350418
0.351945
0.353617
0.355435
0.357408
0.359549
0.361867
0.364384
0.367113
0.370079
0.373301
9.62947
10.1413
10.7084
11.2986
11.8165
12.1744
12.3207
12.1769
11.7831
11.134
10.2775
9.29026
8.21036
7.09263
6.04687
5.13656
4.3551
3.6891
3.12244
2.63838
2.20646
1.84768
1.57085
1.34878
1.1647
1.00813
0.878777
0.768186
0.66588
0.571782
0.491987
0.489685
0.912632
2.58929
0.463579
0.524877
0.637182
0.87658
1.32992
1.97432
2.75339
3.61045
4.49303
5.35895
6.17999
6.943
7.64912
8.31021
8.94785
9.48256
0.425607
0.399506
0.381245
0.36846
0.359539
0.353424
0.34939
0.346818
0.345204
0.344404
0.344038
0.343949
0.34432
0.344926
0.345642
0.346589
0.347671
0.348916
0.350306
0.351834
0.353511
0.355335
0.357316
0.359466
0.361795
0.364326
0.367071
0.370054
0.373292
9.94084
10.4699
11.0773
11.7024
12.2201
12.5315
12.6318
12.451
11.9918
11.3051
10.4544
9.46884
8.38568
7.25978
6.20277
5.28032
4.48669
3.80895
3.23103
2.73598
2.29251
1.92255
1.6362
1.40599
1.21488
1.06053
0.930637
0.811573
0.701619
0.599187
0.51206
0.501623
0.94525
2.62808
0.452328
0.507674
0.605677
0.806613
1.21341
1.8273
2.5912
3.44475
4.33025
5.19932
6.01795
6.76807
7.44643
8.06256
8.63547
9.19419
9.69832
0.418227
0.394618
0.378002
0.36632
0.358189
0.352691
0.349069
0.346677
0.34518
0.344388
0.344026
0.343966
0.344273
0.344833
0.345539
0.346478
0.347558
0.348798
0.350191
0.351721
0.353403
0.355233
0.35722
0.359382
0.361723
0.36427
0.36703
0.370029
0.373284
10.1578
10.7262
11.3911
12.0509
12.5558
12.8144
12.8716
12.6424
12.154
11.479
10.6364
9.65435
8.56932
7.43611
6.36811
5.43332
4.62708
3.93703
3.34725
2.84062
2.38502
2.00336
1.70706
1.46828
1.28017
1.12528
0.985482
0.857943
0.740186
0.630585
0.533519
0.518096
0.991688
2.66067
0.442293
0.492232
0.578975
0.74673
1.10349
1.6785
2.4226
3.27168
4.16199
5.03846
5.86056
6.60496
7.26424
7.84414
8.36104
8.84131
9.31583
9.79607
0.411629
0.390224
0.375076
0.364443
0.357131
0.352226
0.348885
0.346648
0.34516
0.344371
0.344049
0.343956
0.344184
0.344749
0.345439
0.346365
0.347443
0.348678
0.350073
0.351605
0.353291
0.355129
0.357124
0.359298
0.361654
0.364215
0.366991
0.370005
0.373276
10.2785
10.9125
11.6499
12.3302
12.8097
13.0217
13.0202
12.7841
12.3138
11.6534
10.8215
9.84538
8.76037
7.62111
6.54264
5.5955
4.77632
4.07343
3.47116
2.95233
2.48399
2.0901
1.78337
1.54833
1.3593
1.19225
1.0425
0.906578
0.781611
0.664341
0.560233
0.536373
1.03415
2.68508
0.433357
0.478359
0.556049
0.696365
1.00355
1.53298
2.24861
3.08991
3.98619
4.87407
5.70556
6.45139
7.09987
7.65343
8.12508
8.53636
8.9205
9.30122
9.76892
0.405719
0.386266
0.372506
0.362955
0.356475
0.351989
0.348852
0.346623
0.345136
0.344404
0.344053
0.343928
0.344109
0.344665
0.345339
0.346248
0.347326
0.348555
0.349952
0.351487
0.353177
0.355023
0.357028
0.359217
0.361586
0.364162
0.366952
0.369981
0.373268
10.2977
11.0353
11.8352
12.5217
12.9633
13.1323
13.1166
12.913
12.468
11.825
11.0074
10.0401
8.95752
7.8139
6.72584
5.7666
4.93425
4.21805
3.6027
3.07101
2.5893