/*--------------------------------*- C++ -*----------------------------------*\
  =========                 |
  \\      /  F ield         | OpenFOAM: The Open Source CFD Toolbox
   \\    /   O peration     | Website:  https://openfoam.org
    \\  /    A nd           | Version:  8
     \\/     M anipulation  |
\*---------------------------------------------------------------------------*/
FoamFile
{
    version     2.0;
    format      ascii;
    class       volScalarField;
    location    "0.43";
    object      nut;
}
// * * * * * * * * * * * * * * * * * * * * * * * * * * * * * * * * * * * * * //

dimensions      [0 2 -1 0 0 0 0];

internalField   nonuniform List<scalar> 
15677
(
0.000168167
0.000652159
0.000148209
0.00151207
0.0004431
0.000141307
0.00267205
0.000878177
0.000381062
0.000142207
0.00391633
0.00152266
0.000687313
0.000354333
0.000145346
0.00501906
0.00236032
0.00114793
0.000586059
0.000340306
0.000151128
0.00583677
0.00332103
0.00178282
0.000948647
0.000529543
0.000332033
0.000156933
0.00633339
0.00430098
0.00256971
0.00146453
0.000821433
0.000492625
0.000326983
0.000162377
0.00656228
0.00518809
0.0034545
0.0021329
0.00125799
0.00073755
0.000467531
0.000324096
0.000167155
0.00665821
0.00589313
0.00435617
0.00292323
0.00184238
0.00111275
0.000677568
0.000450497
0.000322519
0.000171379
0.00670542
0.00633796
0.00518098
0.00377964
0.00255768
0.00163231
0.00100488
0.00063425
0.000438732
0.000321956
0.000174944
0.00671437
0.00655327
0.00584508
0.00462544
0.00336314
0.00228694
0.00147297
0.000924438
0.000602305
0.000430792
0.000321894
0.00017808
0.0067099
0.00666143
0.00629531
0.00537689
0.00419693
0.00304551
0.00207802
0.00134928
0.00086241
0.000578692
0.000425315
0.000322371
0.000180698
0.00670626
0.00669873
0.00652934
0.00596403
0.00498381
0.00385722
0.00279575
0.00191194
0.00125143
0.000814294
0.000560927
0.00042183
0.000323
0.000183039
0.00670535
0.00670438
0.00664665
0.00635647
0.0056495
0.00465545
0.00358309
0.00259363
0.00177794
0.00117321
0.000776464
0.000547759
0.000419461
0.000323919
0.000185085
0.00670538
0.00670289
0.00668779
0.00656261
0.00614152
0.00536785
0.00438079
0.00335681
0.0024279
0.00166828
0.00110974
0.000746709
0.000537645
0.000418244
0.000324764
0.000186898
0.00670551
0.0067017
0.00669631
0.00665638
0.00644639
0.00593299
0.00512032
0.00414825
0.00316828
0.00229003
0.00157789
0.00105809
0.000722983
0.000530372
0.00041736
0.000325813
0.000188559
0.00670557
0.00670126
0.00669704
0.00668481
0.0066046
0.00632118
0.00573673
0.00490331
0.00395059
0.00300929
0.00217482
0.00150285
0.00101607
0.000704497
0.000524634
0.000417232
0.000326745
0.000189973
0.00670557
0.0067012
0.00669664
0.00669161
0.00666356
0.00654086
0.00618762
0.00555628
0.0047139
0.00378124
0.00287477
0.00207796
0.00144053
0.000982006
0.000689573
0.000520751
0.000417151
0.000327823
0.000191406
0.00670554
0.00670124
0.00669633
0.0066927
0.00668219
0.0066343
0.00646735
0.00605735
0.00539319
0.00454827
0.00363606
0.00276046
0.00199653
0.00138901
0.000954068
0.000678183
0.000517611
0.000417659
0.000328796
0.000192521
0.00670551
0.0067013
0.00669618
0.00669268
0.0066872
0.00666897
0.00659773
0.00638897
0.0059343
0.00524656
0.00440397
0.00351133
0.00266344
0.0019284
0.00134631
0.000931746
0.000668981
0.000515848
0.000418053
0.00032986
0.00019385
0.00670549
0.00670134
0.0066961
0.00669259
0.00668813
0.00668069
0.00665123
0.00655583
0.00631048
0.00581936
0.00511612
0.00427828
0.00340456
0.0025815
0.00187155
0.00131152
0.000913692
0.000662357
0.000514363
0.000418946
0.000330884
0.000194733
0.00670548
0.00670136
0.00669606
0.00669257
0.00668811
0.00668412
0.00667158
0.00663014
0.00651092
0.00623279
0.00571433
0.00500042
0.0041697
0.00331367
0.00251283
0.00182482
0.00128327
0.000899764
0.00065707
0.000514015
0.000419645
0.00033191
0.000196048
0.00670547
0.00670137
0.00669603
0.00669258
0.00668796
0.00668495
0.00667846
0.00666125
0.00660585
0.00646484
0.00615985
0.00561898
0.00489944
0.00407647
0.00323719
0.00245601
0.00178685
0.00126107
0.000888991
0.000653875
0.000513656
0.000420795
0.000333044
0.000196761
0.00670548
0.00670137
0.00669601
0.00669259
0.00668786
0.00668508
0.00668043
0.00667315
0.00664829
0.00658046
0.00641907
0.00609185
0.00553473
0.00481159
0.00399759
0.00317359
0.00241008
0.00175715
0.00124417
0.000881416
0.000651366
0.000514309
0.000421688
0.000333946
0.000198076
0.00670548
0.00670136
0.00669601
0.00669258
0.0066878
0.00668506
0.00668083
0.00667727
0.0066657
0.00663528
0.00655374
0.00637564
0.0060303
0.00545983
0.00473705
0.00393216
0.00312278
0.00237413
0.00173449
0.00123173
0.000876101
0.000650766
0.000514758
0.000423093
0.000335376
0.000198761
0.00670549
0.00670135
0.00669601
0.00669257
0.00668777
0.00668501
0.00668082
0.00667851
0.00667217
0.00665944
0.00662026
0.00652834
0.00633525
0.00597431
0.00539718
0.00467565
0.00387982
0.00308214
0.00234673
0.00171864
0.00122426
0.000873804
0.000650396
0.000516198
0.000423996
0.000336126
5.33355e-05
0.0067055
0.00670134
0.00669602
0.00669255
0.00668775
0.00668497
0.00668075
0.00667879
0.0066743
0.0066693
0.00665072
0.00660718
0.00650406
0.006299
0.00592906
0.00534401
0.00462487
0.00383796
0.0030539
0.00233003
0.00171045
0.00122082
0.00087294
0.000651864
0.000517281
0.00042643
0.000283396
6.32471e-05
0.00670551
0.00670132
0.00669602
0.00669253
0.00668775
0.00668493
0.00668069
0.00667878
0.00667486
0.00667297
0.00666362
0.00664534
0.00659306
0.00648242
0.00626843
0.00588696
0.00530235
0.00459077
0.00381425
0.0030378
0.00232089
0.00170692
0.00121998
0.000874655
0.000653457
0.000519384
0.000419876
0.000219227
7.05654e-05
0.00670553
0.0067013
0.00669604
0.00669251
0.00668775
0.00668489
0.00668065
0.0066787
0.00667492
0.00667414
0.00666865
0.00666258
0.00663678
0.0065834
0.00646621
0.00624084
0.00586309
0.00527826
0.00456852
0.00379719
0.00302826
0.00231765
0.00170791
0.00122345
0.000877593
0.000655751
0.000520571
0.00039988
0.000177895
7.59525e-05
0.00670554
0.00670129
0.00669605
0.00669249
0.00668775
0.00668486
0.00668062
0.00667862
0.00667487
0.00667437
0.0066704
0.00666977
0.00665691
0.00663574
0.006574
0.00645035
0.00623227
0.00584659
0.00525988
0.00455397
0.00378926
0.0030271
0.00232167
0.00171488
0.00122973
0.000882091
0.000658977
0.000518376
0.000367041
0.000152486
8.03039e-05
0.00670555
0.00670127
0.00669606
0.00669248
0.00668775
0.00668483
0.0066806
0.00667855
0.00667481
0.00667432
0.00667087
0.00667242
0.00666563
0.00666107
0.00662945
0.00657215
0.00644931
0.00622517
0.00583622
0.0052507
0.00455186
0.00379407
0.00303719
0.0023338
0.00172659
0.00123892
0.000888248
0.000661987
0.000512257
0.000335843
0.000134204
8.36457e-05
0.00670556
0.00670126
0.00669607
0.00669246
0.00668776
0.00668481
0.00668058
0.00667849
0.00667475
0.0066742
0.00667093
0.00667316
0.00666914
0.00667237
0.00665652
0.00663816
0.00657497
0.00645189
0.00622352
0.00583765
0.00525838
0.0045644
0.00381109
0.00305634
0.00235258
0.00174272
0.00125098
0.00089554
0.00066461
0.000500816
0.000305759
0.000121289
8.601e-05
0.00670557
0.00670124
0.00669608
0.00669244
0.00668776
0.00668478
0.00668057
0.00667844
0.0066747
0.00667408
0.00667087
0.00667323
0.00667032
0.00667691
0.00666924
0.00667179
0.00664369
0.00658331
0.00646024
0.00623627
0.00585513
0.00527945
0.00458971
0.00383893
0.00308421
0.00237782
0.00176284
0.00126551
0.000903941
0.000665805
0.000485423
0.000279741
0.000112827
8.77534e-05
0.00670557
0.00670123
0.00669609
0.00669242
0.00668777
0.00668476
0.00668056
0.0066784
0.00667465
0.00667397
0.00667078
0.00667311
0.00667061
0.00667839
0.00667495
0.00668776
0.0066791
0.006656
0.00660035
0.00648194
0.00626294
0.00588611
0.00531449
0.00462756
0.0038776
0.0031206
0.00240899
0.00178684
0.00128247
0.000913096
0.000665866
0.000468533
0.000259975
0.000107081
8.91008e-05
0.00670122
0.00670559
0.0066961
0.00669241
0.00668778
0.00668474
0.00668055
0.00667836
0.00667461
0.00667388
0.00667069
0.00667294
0.00667061
0.00667871
0.00667712
0.00669478
0.00669628
0.00669408
0.00667919
0.0066288
0.00651636
0.00630331
0.00593201
0.00536352
0.00467824
0.00392674
0.00316503
0.00244606
0.00181434
0.00130133
0.000923795
0.000664713
0.000453483
0.000244804
0.000103055
9.01914e-05
0.00669611
0.00670122
0.00670561
0.00669239
0.00668778
0.00668472
0.00668055
0.00667833
0.00667458
0.00667381
0.00667061
0.00667277
0.00667052
0.00667863
0.00667783
0.00669752
0.00670417
0.00671305
0.00672133
0.00671246
0.0066698
0.00656498
0.00635924
0.00599282
0.00542704
0.00474133
0.00398626
0.00321746
0.00248835
0.00184524
0.00132492
0.000936788
0.000663049
0.000440639
0.000233015
0.000100191
9.11129e-05
0.00669238
0.00669614
0.00670123
0.00670564
0.00668779
0.00668471
0.00668055
0.0066783
0.00667455
0.00667374
0.00667053
0.00667262
0.00667041
0.00667843
0.006678
0.00669846
0.00670744
0.00672213
0.00674293
0.00675837
0.00675868
0.00672511
0.00662962
0.00643175
0.00607036
0.00550551
0.00481731
0.00405576
0.00327705
0.00253592
0.00188281
0.0013531
0.000950407
0.00066195
0.000429988
0.000223698
9.81052e-05
9.1917e-05
0.0066878
0.0066924
0.00669621
0.00670124
0.00670566
0.00668469
0.00668055
0.00667828
0.00667453
0.00667369
0.00667047
0.00667249
0.00667029
0.0066782
0.00667797
0.00669871
0.00670869
0.00672616
0.00675378
0.00678295
0.00680865
0.00681937
0.00679687
0.00671118
0.00652197
0.00616426
0.00559918
0.0049051
0.0041347
0.0033439
0.00259375
0.00192918
0.00138266
0.000964869
0.000661362
0.000421188
0.000216229
9.65877e-05
9.26385e-05
0.00668467
0.00668785
0.00669244
0.00669627
0.00670125
0.00670569
0.00668055
0.00667825
0.00667451
0.00667364
0.00667041
0.00667238
0.00667019
0.00667799
0.00667789
0.00669869
0.00670915
0.00672793
0.006759
0.00679588
0.00683614
0.00687312
0.00689659
0.00688587
0.00681129
0.0066297
0.00627508
0.00570799
0.0050057
0.00422296
0.00342496
0.00266449
0.00197925
0.00141365
0.0009799
0.000661905
0.000413929
0.00021014
9.54565e-05
9.32952e-05
0.00668055
0.0066847
0.00668794
0.00669249
0.00669634
0.00670126
0.00670571
0.00667823
0.0066745
0.00667359
0.00667036
0.00667228
0.00667009
0.00667779
0.00667779
0.00669858
0.00670931
0.00672878
0.00676162
0.00680279
0.00685212
0.00690516
0.00695671
0.00699245
0.00699329
0.00692894
0.00675517
0.00640214
0.00583096
0.00511784
0.0043301
0.00352409
0.00274054
0.00203225
0.00144574
0.000995736
0.000663057
0.000407978
0.000205109
9.46285e-05
9.39031e-05
0.00667821
0.00668061
0.00668478
0.00668804
0.00669254
0.00669641
0.00670128
0.00670574
0.00667449
0.00667355
0.00667033
0.0066722
0.00667
0.00667763
0.00667771
0.00669845
0.00670934
0.00672924
0.00676313
0.00680672
0.00686144
0.0069246
0.00699407
0.00706027
0.00711128
0.00712272
0.00706552
0.00689707
0.0065443
0.00596649
0.00525534
0.00446163
0.00363036
0.00282108
0.00208765
0.00147877
0.00101203
0.000665783
0.00040315
0.000200828
9.40009e-05
9.44662e-05
0.00667449
0.00667824
0.00668072
0.00668485
0.00668814
0.00669259
0.00669648
0.00670129
0.00670576
0.00667351
0.0066703
0.00667213
0.00666992
0.0066775
0.00667763
0.00669831
0.00670932
0.00672953
0.00676413
0.00680933
0.00686744
0.00693702
0.00701858
0.00710422
0.00718788
0.0072525
0.00727644
0.00722442
0.00705454
0.0066999
0.00613053
0.0054209
0.00460349
0.00374341
0.00290513
0.00214494
0.00151246
0.0010283
0.000668848
0.000399228
0.000197227
9.35479e-05
9.49947e-05
0.00667347
0.00667454
0.00667832
0.00668084
0.00668493
0.00668824
0.00669264
0.00669655
0.00670131
0.00670579
0.00667028
0.00667206
0.00666986
0.00667739
0.00667755
0.00669819
0.0067093
0.00672975
0.00676489
0.00681133
0.00687185
0.00694577
0.00703588
0.00713529
0.00724077
0.00734015
0.00741965
0.00745287
0.0074064
0.00723249
0.00688454
0.00632467
0.00559626
0.00475272
0.00386176
0.00299191
0.00220349
0.00154691
0.0010445
0.000672447
0.000396174
0.000194094
9.32018e-05
9.54865e-05
0.00667027
0.00667348
0.00667465
0.0066784
0.00668096
0.00668501
0.00668835
0.00669269
0.00669663
0.00670132
0.00670582
0.00667199
0.0066698
0.0066773
0.00667746
0.00669808
0.00670927
0.00672993
0.00676552
0.00681299
0.00687542
0.00695271
0.00704921
0.00715896
0.00728116
0.00740446
0.00752158
0.00761258
0.00765375
0.00760899
0.00745237
0.00711132
0.00652895
0.00577879
0.00490615
0.00398276
0.00308053
0.00226284
0.00158171
0.00106064
0.000676626
0.000393655
0.000191421
9.2963e-05
9.59508e-05
0.00667192
0.0066703
0.00667352
0.00667477
0.00667849
0.00668109
0.00668509
0.00668846
0.00669274
0.0066967
0.00670134
0.00670584
0.00666977
0.00667723
0.00667736
0.006698
0.00670926
0.0067301
0.00676607
0.00681445
0.00687845
0.00695866
0.00706038
0.00717823
0.00731437
0.00745702
0.00760117
0.00773206
0.00783377
0.00787901
0.00785702
0.00772094
0.00735815
0.00673995
0.00596288
0.00506154
0.00410562
0.00317002
0.00232248
0.00161657
0.0010767
0.00068125
0.000391762
0.000189058
9.27807e-05
9.63823e-05
0.00666975
0.00667185
0.00667034
0.00667357
0.0066749
0.00667857
0.00668123
0.00668517
0.00668858
0.0066928
0.00669678
0.00670136
0.00670587
0.00667716
0.00667726
0.00669795
0.00670926
0.00673025
0.00676656
0.00681576
0.00688112
0.00696398
0.00707019
0.00719498
0.00734303
0.00750276
0.00767036
0.00783085
0.00797564
0.00808357
0.00815674
0.0081615
0.00801014
0.00762127
0.00696295
0.00614926
0.00521784
0.00422835
0.00325947
0.00238193
0.00165125
0.00109251
0.000685923
0.000390275
0.000187028
9.26687e-05
9.67907e-05
0.00667709
0.00666967
0.00667176
0.00667041
0.00667362
0.00667504
0.00667866
0.00668137
0.00668525
0.0066887
0.00669286
0.00669686
0.00670138
0.00670589
0.00667715
0.00669795
0.00670928
0.0067304
0.006767
0.00681694
0.00688351
0.0069688
0.00707897
0.00721014
0.00736889
0.00754351
0.00773362
0.00792157
0.0080997
0.00825295
0.0083942
0.00850078
0.00849244
0.00831691
0.00789407
0.00719361
0.00633419
0.00537131
0.00434962
0.00334808
0.00244076
0.00168547
0.00110834
0.000690544
0.000389209
0.000185206
9.25846e-05
9.71687e-05
0.00667706
0.00667685
0.00666948
0.00667167
0.00667049
0.00667366
0.00667519
0.00667874
0.00668153
0.00668533
0.00668882
0.00669292
0.00669694
0.0067014
0.00670591
0.006698
0.0067093
0.00673053
0.00676739
0.006818
0.00688567
0.00697322
0.00708691
0.00722411
0.00739265
0.00758083
0.00779214
0.00800833
0.00821914
0.0084084
0.00860149
0.00878372
0.00887888
0.00884672
0.00863804
0.0081739
0.00742958
0.00652228
0.00552174
0.00446853
0.00343513
0.0024986
0.00171909
0.00112398
0.000695137
0.000388357
0.000183632
9.25491e-05
9.75274e-05
0.0066981
0.00667648
0.00667645
0.00666933
0.00667157
0.00667061
0.0066737
0.00667536
0.00667883
0.00668168
0.00668542
0.00668894
0.00669299
0.00669701
0.00670143
0.00670593
0.00670931
0.00673064
0.00676772
0.00681897
0.00688764
0.00697725
0.00709414
0.00723706
0.00741454
0.00761559
0.00784745
0.00809073
0.0083368
0.00856422
0.00880205
0.00904543
0.00921797
0.009289
0.00922188
0.00897089
0.00845846
0.00766572
0.00671119
0.00566884
0.00458443
0.00352019
0.00255513
0.00175196
0.0011393
0.000699651
0.000387796
0.000182201
9.25248e-05
9.78576e-05
0.00670927
0.00669756
0.00667544
0.006676
0.00666923
0.00667144
0.00667075
0.00667373
0.00667555
0.00667891
0.00668185
0.00668551
0.00668907
0.00669306
0.00669708
0.00670146
0.00670595
0.00673072
0.00676801
0.00681985
0.00688943
0.00698094
0.00710074
0.00724906
0.00743471
0.00764826
0.00790008
0.00816916
0.00845042
0.00872379
0.00901311
0.00931243
0.009549
0.00969786
0.00973137
0.00961703
0.00931368
0.00874577
0.00790042
0.00689882
0.0058121
0.00469679
0.00360264
0.00261006
0.00178393
0.00115427
0.0007041
0.000387335
0.00018096
9.25357e-05
9.81717e-05
0.0067308
0.00670823
0.00669617
0.00667464
0.00667547
0.00666923
0.00667129
0.00667093
0.00667375
0.00667574
0.006679
0.00668201
0.00668561
0.00668919
0.00669313
0.00669715
0.00670148
0.00670597
0.00676826
0.00682065
0.00689109
0.00698432
0.00710678
0.00726014
0.00745327
0.00767905
0.00794988
0.00824374
0.00856103
0.00888449
0.009237
0.00960416
0.00990436
0.010122
0.0102318
0.0102105
0.0100333
0.00966572
0.00903444
0.00813251
0.00708368
0.00595113
0.00480446
0.00368212
0.0026632
0.0018149
0.00116881
0.00070844
0.000387089
0.000179819
9.25476e-05
9.84594e-05
0.0067685
0.00672923
0.0067061
0.00669444
0.00667415
0.00667481
0.00666931
0.0066711
0.00667114
0.00667378
0.00667594
0.0066791
0.00668218
0.00668571
0.0066893
0.0066932
0.00669721
0.00670151
0.00670598
0.00682139
0.0068926
0.00698739
0.00711232
0.00727034
0.00747037
0.007708
0.00799658
0.00831471
0.00866976
0.00904597
0.00946319
0.00992157
0.0103164
0.0106134
0.0107931
0.0108365
0.0107341
0.010473
0.0100269
0.00932358
0.00836114
0.00726456
0.0060875
0.00490764
0.00375842
0.00271437
0.00184479
0.00118289
0.000712677
0.00038687
0.000178826
9.2586e-05
9.87336e-05
0.00682213
0.00676588
0.0067259
0.00670393
0.00669242
0.00667397
0.00667404
0.00666949
0.0066709
0.00667136
0.00667381
0.00667615
0.0066792
0.00668234
0.00668581
0.00668941
0.00669327
0.00669727
0.00670154
0.006706
0.006894
0.0069902
0.00711739
0.00727969
0.00748611
0.00773506
0.00804009
0.00838251
0.00877648
0.00920556
0.00968644
0.0102587
0.0108102
0.0112418
0.0115029
0.0115963
0.0115275
0.0113076
0.0109375
0.010397
0.00961246
0.00858565
0.00743991
0.00622025
0.00500641
0.00383143
0.00276346
0.00187353
0.00119646
0.00071678
0.000386805
0.000177903
9.26199e-05
9.89529e-05
0.00689532
0.00681879
0.00676014
0.00672267
0.00670186
0.00668994
0.00667409
0.00667316
0.00666972
0.00667069
0.0066716
0.00667385
0.00667635
0.00667932
0.00668249
0.00668592
0.00668951
0.00669334
0.00669733
0.00670157
0.00670601
0.00699274
0.00712201
0.00728823
0.00750059
0.00776019
0.00808051
0.00844734
0.00887991
0.00936001
0.00990796
0.0106305
0.0114029
0.0120636
0.0124652
0.0126046
0.012539
0.0123038
0.0119289
0.011425
0.0107747
0.00990024
0.00880543
0.00760948
0.00634872
0.0051008
0.00390109
0.00281042
0.00190108
0.00120951
0.00072075
0.000386793
0.000177107
9.26649e-05
9.91369e-05
0.00699509
0.00689057
0.00681099
0.00675445
0.00671965
0.00670038
0.00668711
0.00667441
0.00667225
0.00666999
0.00667051
0.00667183
0.00667392
0.00667654
0.00667944
0.00668264
0.00668602
0.00668961
0.0066934
0.00669738
0.0067016
0.00670602
0.00712621
0.007296
0.00751388
0.00778341
0.00811804
0.0085091
0.00897845
0.00950813
0.0101348
0.0110542
0.0121047
0.0130543
0.0136975
0.013943
0.0138692
0.0135843
0.0131427
0.0125857
0.0119295
0.0111574
0.0101858
0.00901996
0.00777311
0.0064725
0.00519085
0.00396741
0.00285521
0.00192741
0.00122201
0.000724571
0.000386791
0.000176467
9.27017e-05
9.9335e-05
0.00713008
0.00698864
0.00687908
0.00680323
0.00674901
0.00671675
0.00669927
0.00668415
0.00667481
0.00667138
0.00667023
0.00667038
0.00667203
0.00667401
0.00667671
0.00667957
0.00668277
0.00668613
0.00668971
0.00669347
0.00669744
0.00670163
0.00670603
0.00730305
0.00752604
0.00780473
0.00815283
0.00856742
0.00907108
0.00965102
0.0103742
0.0115311
0.0128863
0.0141324
0.0150408
0.0155064
0.0155135
0.0151879
0.0146651
0.0140064
0.0132586
0.0124418
0.0115411
0.0104677
0.0092287
0.00793062
0.00659133
0.0052766
0.00403042
0.00289782
0.00195252
0.00123395
0.000728261
0.000386809
0.000175946
9.27513e-05
9.95504e-05
0.00730945
0.00712135
0.0069722
0.00686758
0.00679563
0.00674374
0.00671405
0.00669832
0.00668125
0.00667515
0.00667063
0.00667041
0.00667031
0.0066722
0.00667413
0.00667687
0.0066797
0.0066829
0.00668623
0.0066898
0.00669354
0.00669749
0.00670166
0.00670604
0.00753712
0.00782424
0.00818501
0.00862193
0.00915761
0.00979078
0.0106282
0.0120439
0.0136894
0.0151898
0.0163236
0.0170133
0.0172379
0.0170073
0.0164513
0.0157131
0.0148545
0.0139255
0.0129514
0.0119213
0.0107444
0.00943114
0.00808194
0.00670508
0.00535814
0.00409017
0.00293828
0.00197641
0.00124534
0.000731333
0.00038686
0.00017539
9.28057e-05
9.97835e-05
0.00754715
0.00729815
0.00709814
0.0069557
0.00685635
0.00678812
0.00673873
0.0067115
0.0066974
0.00667862
0.00667529
0.00667006
0.0066705
0.00667033
0.00667234
0.00667427
0.00667701
0.00667983
0.00668302
0.00668634
0.00668988
0.00669361
0.00669754
0.00670167
0.00670604
0.00784202
0.00821467
0.00867243
0.00923848
0.00992886
0.010893
0.0125658
0.0144558
0.0161407
0.0174296
0.0182892
0.0187256
0.0187355
0.0183188
0.0175859
0.016678
0.0156543
0.0145671
0.0134479
0.0122933
0.011014
0.00962675
0.00822697
0.00681368
0.00543553
0.00414676
0.00297661
0.00199909
0.00125475
0.000733974
0.0003869
0.000174831
9.28776e-05
0.000100038
0.00785796
0.00753244
0.00726601
0.00707486
0.00693958
0.00684535
0.00678066
0.00673411
0.00670902
0.00669641
0.00667657
0.00667513
0.00666972
0.00667049
0.00667041
0.00667245
0.00667441
0.00667715
0.00667997
0.00668313
0.00668644
0.00668997
0.00669367
0.00669756
0.00670167
0.00670604
0.0082419
0.0087189
0.00931438
0.0100654
0.0111604
0.013071
0.015146
0.0169413
0.0183121
0.0192732
0.0198625
0.020093
0.0199481
0.0194085
0.0185587
0.0175324
0.0163847
0.0151688
0.0139228
0.0126528
0.0112749
0.00981507
0.00836567
0.00691713
0.0055089
0.00420007
0.00301284
0.00201774
0.00126276
0.000736888
0.000387006
0.0001742
9.29537e-05
0.000100313
0.00826629
0.00783953
0.00748831
0.00723374
0.00705209
0.00692382
0.00683456
0.00677321
0.00672974
0.0067065
0.006695
0.00667532
0.00667464
0.0066696
0.00667041
0.00667054
0.00667254
0.00667457
0.00667727
0.0066801
0.00668324
0.00668654
0.00669005
0.00669371
0.00669756
0.00670167
0.00670604
0.00876153
0.00938593
0.0101993
0.0114217
0.0135409
0.0157414
0.0175836
0.0189751
0.0199752
0.0206523
0.0210386
0.0211279
0.0208869
0.0202795
0.0193652
0.0182673
0.0170354
0.0157216
0.0143697
0.0129964
0.0115258
0.00999568
0.00849801
0.00701545
0.0055788
0.00425028
0.00304253
0.0020336
0.00127157
0.000740134
0.000387085
0.0001736
9.30542e-05
0.000100613
0.00879947
0.00824311
0.00777972
0.00744402
0.00720211
0.00702984
0.0069084
0.00682399
0.0067659
0.0067255
0.00670395
0.00669281
0.00667477
0.0066739
0.00666965
0.00667029
0.00667069
0.00667263
0.00667473
0.0066774
0.00668024
0.00668335
0.00668664
0.00669009
0.00669371
0.00669756
0.00670167
0.00670604
0.00945353
0.0103286
0.0116693
0.0139653
0.0162397
0.0180808
0.0194479
0.0204387
0.0211473
0.0216244
0.0218772
0.0218805
0.0215889
0.0209553
0.0200172
0.0188861
0.0176044
0.0162215
0.0147849
0.0133216
0.0117654
0.0101683
0.00862401
0.00710857
0.00564524
0.00429132
0.00306769
0.00205098
0.00128128
0.000743715
0.000387273
0.000172895
9.31589e-05
0.000100938
0.00951504
0.00877084
0.00816214
0.00771964
0.00740055
0.00717116
0.00700808
0.00689334
0.00681372
0.0067587
0.00672147
0.00670145
0.00668996
0.00667472
0.00667304
0.00666978
0.00667017
0.00667086
0.00667271
0.00667488
0.00667752
0.00668037
0.00668346
0.00668669
0.00669008
0.00669371
0.00669756
0.00670167
0.00670604
0.0104517
0.0119021
0.0143411
0.016648
0.0184547
0.0197673
0.0207148
0.0214121
0.021926
0.022277
0.02245
0.0224069
0.0220967
0.0214661
0.0205337
0.0193988
0.0180953
0.0166679
0.0151665
0.0136267
0.011993
0.0103326
0.00874375
0.00719666
0.00569993
0.00432606
0.0030952
0.00207005
0.00129197
0.00074773
0.000387404
0.000172252
9.32989e-05
0.000101292
0.0105625
0.00947917
0.00866082
0.00808096
0.00766056
0.00735797
0.00714087
0.00698684
0.0068787
0.00680389
0.00675167
0.00671775
0.0066995
0.00668673
0.00667493
0.00667219
0.00666993
0.00667006
0.00667102
0.00667281
0.00667503
0.00667763
0.00668049
0.00668351
0.00668669
0.00669008
0.00669371
0.00669756
0.00670167
0.00670603
0.012121
0.0146671
0.0169778
0.0187288
0.0199686
0.0208511
0.0215067
0.022016
0.0224122
0.0226904
0.0228202
0.0227574
0.0224498
0.0218417
0.0209357
0.0198182
0.0185144
0.0170632
0.0155144
0.013911
0.0122081
0.0104887
0.00885733
0.00726894
0.00574641
0.00436401
0.0031253
0.00209101
0.00130379
0.000752149
0.000387714
0.000171466
9.34424e-05
0.000101674
0.0105216
0.0123161
0.00931914
0.00855214
0.00800093
0.00760262
0.00731625
0.00711128
0.00696615
0.00686453
0.00679453
0.00674502
0.00671429
0.00669816
0.00668357
0.00667517
0.00667143
0.00667006
0.00667
0.00667116
0.0066729
0.00667518
0.00667775
0.00668056
0.0066835
0.00668669
0.00669008
0.00669371
0.00669756
0.00670166
0.00670602
0.0149447
0.0172416
0.0189246
0.0200821
0.0208864
0.0214802
0.0219548
0.022355
0.0226867
0.0229273
0.0230378
0.0229726
0.0226818
0.022109
0.0212429
0.0201577
0.0188696
0.0174108
0.0158296
0.0141746
0.0124106
0.0106364
0.00895067
0.00733026
0.00579739
0.0044055
0.00315826
0.00211405
0.00131683
0.000757128
0.000387914
0.000170789
9.36376e-05
0.00010209
0.0102762
0.0122781
0.0151702
0.00916553
0.00844539
0.00792225
0.00754581
0.00727543
0.00708242
0.00694606
0.00685087
0.0067855
0.00673871
0.00671116
0.00669705
0.00668073
0.00667531
0.00667084
0.00667014
0.00666998
0.00667129
0.00667301
0.00667532
0.00667781
0.00668056
0.0066835
0.00668669
0.00669008
0.00669371
0.00669754
0.00670163
0.00670601
0.0174513
0.0190605
0.0201316
0.0208514
0.0213707
0.0217894
0.0221622
0.0225065
0.0228086
0.0230341
0.0231405
0.0230846
0.0228201
0.0222907
0.0214731
0.0204301
0.0191691
0.0177152
0.016114
0.0144179
0.0126005
0.0107575
0.00902991
0.00739736
0.00585332
0.00445091
0.0031944
0.00213942
0.00133129
0.000762615
0.000388404
0.000169915
9.38345e-05
0.000102536
0.0100355
0.0119269
0.0151045
0.0176076
0.00901922
0.00834009
0.00784505
0.00749016
0.00723558
0.00705434
0.00692661
0.00683769
0.00677677
0.0067329
0.00670839
0.00669602
0.0066784
0.00667524
0.00667042
0.00667016
0.00667
0.0066714
0.00667313
0.00667539
0.0066778
0.00668056
0.0066835
0.00668669
0.00669009
0.00669367
0.00669749
0.0067016
0.006706
0.0191511
0.0201359
0.0207689
0.0212068
0.0215553
0.0218776
0.0222018
0.0225251
0.0228195
0.0230439
0.0231563
0.0231179
0.0228864
0.0224054
0.0216414
0.0206467
0.0194206
0.0179809
0.0163698
0.0146416
0.0127545
0.0108601
0.00911664
0.00747085
0.00591476
0.00450068
0.00323405
0.00216738
0.00134727
0.000768908
0.000388698
0.000169216
9.41077e-05
0.000103023
0.00981002
0.0115474
0.0147484
0.0175108
0.0191988
0.00887775
0.0082362
0.00776942
0.00743575
0.00719677
0.00702712
0.00690783
0.00682504
0.00676852
0.0067278
0.00670583
0.0066949
0.00667687
0.00667493
0.00667017
0.00667013
0.00667006
0.00667151
0.00667319
0.00667539
0.0066778
0.00668056
0.0066835
0.00668669
0.00669005
0.00669361
0.00669744
0.00670157
0.00670598
0.0201088
0.020656
0.0210093
0.0212788
0.0215339
0.0218124
0.0221231
0.0224476
0.0227479
0.0229801
0.0231058
0.0230913
0.0228978
0.0224684
0.0217606
0.0208175
0.0196312
0.0182126
0.0165993
0.0148195
0.0128839
0.010972
0.00921162
0.00755141
0.0059823
0.00455528
0.00327762
0.00219822
0.00136509
0.000775722
0.000389451
0.000168249
9.43796e-05
0.00010354
0.00959892
0.0111741
0.0143069
0.0172831
0.019049
0.0200505
0.00873943
0.00813398
0.00769552
0.00738269
0.00715911
0.00700078
0.00688983
0.0068132
0.00676085
0.00672338
0.00670336
0.00669315
0.00667602
0.00667443
0.00667007
0.00667006
0.00667015
0.00667154
0.00667318
0.00667539
0.0066778
0.00668056
0.00668351
0.00668664
0.00668997
0.00669354
0.00669738
0.00670154
0.00670597
0.0205249
0.0207936
0.0209794
0.0211559
0.0213688
0.0216388
0.0219592
0.0222989
0.0226131
0.0228593
0.0230044
0.0230196
0.0228679
0.0224919
0.021841
0.0209509
0.0198072
0.0184141
0.0167772
0.0149672
0.0130239
0.011094
0.00931567
0.00763979
0.0060566
0.00461528
0.00332553
0.00223232
0.00138479
0.000783673
0.000389873
0.000167546
9.47644e-05
0.000104104
0.00939915
0.0108197
0.0138195
0.0169671
0.0188939
0.0198459
0.0203711
0.00860372
0.00803377
0.00762349
0.00733111
0.00712267
0.00697557
0.00687307
0.00680237
0.00675368
0.00671941
0.00670111
0.00669087
0.00667566
0.00667379
0.00667007
0.00666998
0.00667023
0.00667152
0.00667319
0.00667539
0.0066778
0.00668056
0.00668346
0.00668654
0.00668988
0.00669347
0.00669733
0.00670151
0.00670595
0.0205704
0.0206711
0.020762
0.0208949
0.0211011
0.0213871
0.0217323
0.022095
0.0224282
0.0226935
0.0228639
0.022914
0.0228074
0.0224854
0.0218911
0.021054
0.019954
0.0185656
0.0169227
0.0151246
0.0131751
0.0112271
0.00942968
0.00773685
0.00613843
0.00468129
0.0033783
0.00227
0.00140691
0.000792206
0.000391004
0.000166486
9.51436e-05
0.000104697
0.00920826
0.0104887
0.0133072
0.0165887
0.0186682
0.0197233
0.0201113
0.0203297
0.0084707
0.00793588
0.00755354
0.00728117
0.0070878
0.00695213
0.00685779
0.0067925
0.00674705
0.00671597
0.00669928
0.00668825
0.0066756
0.00667309
0.00667014
0.00666987
0.00667027
0.0066715
0.00667318
0.00667539
0.0066778
0.0066805
0.00668335
0.00668644
0.0066898
0.0066934
0.00669727
0.00670148
0.00670594
0.0203637
0.020366
0.020409
0.0205337
0.0207591
0.021078
0.0214566
0.0218464
0.0222021
0.0224917
0.0226935
0.0227837
0.0227247
0.0224567
0.0219177
0.0211324
0.020059
0.0186874
0.0170751
0.0152918
0.013338
0.011372
0.00955462
0.0078435
0.00622863
0.00475402
0.0034365
0.00231182
0.00143134
0.000802362
0.000391607
0.000165784
9.56863e-05
0.000105453
0.00902467
0.0101814
0.0127807
0.0161599
0.0183986
0.0195436
0.0199906
0.0200142
0.0200414
0.00834074
0.00784069
0.00748587
0.00723336
0.00705541
0.00693079
0.00684389
0.00678366
0.00674101
0.00671295
0.00669801
0.00668562
0.00667568
0.00667242
0.0066703
0.00666975
0.0066703
0.0066715
0.00667318
0.00667539
0.00667775
0.00668037
0.00668324
0.00668634
0.00668971
0.00669333
0.00669721
0.00670145
0.00670592
0.0199776
0.0199255
0.0199556
0.0200988
0.0203626
0.0207245
0.0211404
0.0215593
0.0219409
0.0222609
0.0225009
0.0226358
0.0226263
0.0224118
0.0219263
0.0211817
0.0201414
0.018812
0.0172339
0.0154688
0.0135132
0.0115296
0.00969152
0.0079608
0.00632816
0.0048343
0.00350083
0.00235813
0.00145899
0.000813114
0.000393283
0.000164585
9.63185e-05
0.000106355
0.00884754
0.00989833
0.0122493
0.0156812
0.0180974
0.0193355
0.0198213
0.0198759
0.019669
0.0195805
0.0082141
0.00774862
0.00742111
0.00718898
0.00702595
0.00691138
0.00683129
0.0067757
0.00673555
0.00671023
0.00669694
0.00668318
0.00667582
0.00667187
0.00667047
0.00666969
0.0066703
0.00667152
0.00667318
0.00667532
0.00667763
0.00668024
0.00668313
0.00668623
0.00668961
0.00669327
0.00669714
0.00670143
0.0067059
0.0194543
0.0193823
0.0194265
0.0196105
0.0199241
0.0203339
0.0207879
0.021237
0.0216496
0.0220074
0.0222923
0.0224763
0.0225176
0.0223553
0.0219198
0.0212182
0.0202227
0.0189386
0.0173983
0.0156552
0.0137008
0.0117008
0.00984143
0.00808985
0.00643808
0.00492305
0.00357197
0.00240978
0.00148948
0.000826216
0.000394159
0.000163783
9.73226e-05
0.00010724