/*--------------------------------*- C++ -*----------------------------------*\
  =========                 |
  \\      /  F ield         | OpenFOAM: The Open Source CFD Toolbox
   \\    /   O peration     | Website:  https://openfoam.org
    \\  /    A nd           | Version:  8
     \\/     M anipulation  |
\*---------------------------------------------------------------------------*/
FoamFile
{
    version     2.0;
    format      ascii;
    class       volScalarField;
    location    "0.43";
    object      p;
}
// * * * * * * * * * * * * * * * * * * * * * * * * * * * * * * * * * * * * * //

dimensions      [0 2 -2 0 0 0 0];

internalField   nonuniform List<scalar> 
15677
(
78.3498
77.9932
77.5819
78.0577
77.5701
77.5904
78.0328
77.5973
77.5998
77.4917
78.0074
77.5987
77.6001
77.5008
77.4113
77.9856
77.601
77.5999
77.5
77.4189
77.3293
77.9621
77.6033
77.5996
77.5011
77.4188
77.336
77.2319
77.9369
77.6058
77.5987
77.5015
77.4198
77.336
77.2378
77.1158
77.9107
77.6089
77.5972
77.5015
77.4203
77.3369
77.2379
77.1209
76.974
77.8834
77.6108
77.5953
77.5013
77.4208
77.3375
77.2389
77.1211
76.9784
76.7992
77.8547
77.6117
77.5927
77.5007
77.4211
77.3381
77.2395
77.1222
76.9787
76.803
76.5843
77.8252
77.6126
77.5891
77.5002
77.4215
77.3387
77.2403
77.123
76.9799
76.8035
76.5873
76.3214
77.7952
77.6129
77.5854
77.5001
77.422
77.3394
77.2413
77.1241
76.9809
76.8048
76.588
76.3237
76.0027
77.7648
77.6118
77.5814
77.5002
77.4227
77.3405
77.2425
77.1254
76.9823
76.8061
76.5895
76.3245
76.0042
75.6204
77.7366
77.6095
77.5771
77.5005
77.4239
77.3421
77.2444
77.1273
76.9842
76.808
76.5913
76.3264
76.0052
75.6209
75.1669
77.7123
77.607
77.5726
77.5012
77.4259
77.3446
77.2471
77.1301
76.9869
76.8106
76.5937
76.3286
76.0073
75.6222
75.1665
74.6354
77.6906
77.6044
77.5685
77.5021
77.4288
77.3483
77.2513
77.1342
76.9909
76.8143
76.5972
76.3318
76.0102
75.6246
75.1679
74.6339
74.0199
77.6712
77.6018
77.565
77.5034
77.4329
77.3537
77.2573
77.1403
76.9968
76.8198
76.6022
76.3363
76.0142
75.6282
75.1708
74.6356
74.0172
73.3155
77.6542
77.5992
77.562
77.5049
77.4379
77.361
77.2658
77.1492
77.0054
76.8279
76.6096
76.3429
76.0201
75.6333
75.1752
74.6389
74.0192
73.3115
72.5187
77.6396
77.5966
77.5594
77.5068
77.4434
77.37
77.2774
77.1616
77.0178
76.8397
76.6204
76.3526
76.0286
75.6407
75.1815
74.6442
74.0229
73.3137
72.5131
71.6273
77.6271
77.5934
77.5572
77.5089
77.4494
77.3798
77.2915
77.1786
77.0353
76.8567
76.6363
76.3668
76.0411
75.6515
75.1907
74.6519
74.0291
73.3179
72.5156
71.6202
70.6412
77.6167
77.59
77.5554
77.5112
77.4559
77.3904
77.3068
77.1992
77.0591
76.8805
76.6589
76.3875
76.0594
75.6672
75.204
74.663
74.0383
73.3251
72.5203
71.6229
70.6323
69.5619
77.6085
77.5866
77.5539
77.5138
77.4628
77.4019
77.3236
77.2216
77.088
76.913
76.6906
76.4171
76.0859
75.6903
75.2235
74.6792
74.0516
73.3359
72.5285
71.628
70.6354
69.5512
68.3934
77.6019
77.5835
77.5528
77.5167
77.47
77.414
77.3415
77.246
77.1195
76.9525
76.7339
76.4585
76.1238
75.7237
75.2521
74.703
74.071
73.3514
72.5408
71.6372
70.6408
69.5545
68.3808
67.141
77.5966
77.5807
77.5519
77.5196
77.4774
77.4267
77.3604
77.2722
77.1539
76.9955
76.7866
76.5151
76.1768
75.7714
75.2934
74.7376
74.0992
73.374
72.5587
71.651
70.6509
69.5601
68.3841
67.1263
65.8174
77.5921
77.5783
77.5513
77.5222
77.4846
77.4397
77.3801
77.2999
77.1908
77.0426
76.8442
76.5841
76.2494
75.8381
75.3523
74.7878
74.1405
73.4071
72.5846
71.6711
70.6661
69.5709
68.3897
67.1295
65.8001
64.4532
77.5885
77.5762
77.5508
77.5245
77.4913
77.4524
77.4004
77.3288
77.2299
77.0932
76.9072
76.6594
76.338
75.9295
75.4347
74.8593
74.2004
73.4555
72.6226
71.7002
70.6881
69.5872
68.401
67.1347
65.8007
64.3998
62.9893
77.5854
77.5744
77.5504
77.5265
77.4974
77.464
77.4202
77.3586
77.2706
77.1467
76.9749
76.742
76.4349
76.0413
75.548
74.9596
74.2859
73.5258
72.6782
71.743
70.7202
69.6109
68.4179
67.1458
65.8043
64.4019
62.924
61.4113
77.5828
77.5728
77.5501
77.5284
77.5028
77.4744
77.4382
77.3876
77.3127
77.2027
77.0467
76.831
76.5413
76.1637
75.6867
75.0977
74.406
73.6262
72.7592
71.8059
70.7674
69.6454
68.4426
67.1627
65.8136
64.4016
62.9263
61.3826
59.7914
77.5805
77.5713
77.5498
77.5301
77.5075
77.4836
77.4544
77.4141
77.3538
77.2606
77.1219
76.9255
76.6561
76.2985
75.839
75.267
74.5715
73.7675
72.8753
71.8976
70.8372
69.6965
68.4787
67.1875
65.8287
64.4078
62.9193
61.3744
59.7816
58.1369
77.5786
77.5701
77.5496
77.5316
77.5116
77.4918
77.4688
77.438
77.3913
77.3171
77.1997
77.0245
76.7782
76.4441
76.0068
75.4533
74.7749
73.9628
73.039
72.0297
70.9395
69.7725
68.5328
67.2242
65.8518
64.4198
62.9247
61.3639
59.7644
58.1328
56.2804
77.5769
77.569
77.5494
77.5329
77.5152
77.4991
77.4816
77.4592
77.4251
77.3688
77.2758
77.1271
76.9063
76.5992
76.1886
75.6592
74.9994
74.2038
73.2662
72.2166
71.0872
69.8844
68.6137
67.2798
65.8873
64.4399
62.9348
61.3704
59.7547
58.1136
56.2794
54.2047
77.5755
77.568
77.5492
77.5341
77.5184
77.5055
77.493
77.4781
77.4553
77.4154
77.3456
77.2277
77.0392
76.7623
76.3826
75.8826
75.2481
74.4703
73.5471
72.4766
71.297
70.0469
68.7339
67.3641
65.9425
64.4725
62.9527
61.3797
59.7614
58.1058
56.2613
54.2057
52.125
77.5742
77.5671
77.549
77.5351
77.5212
77.5111
77.503
77.4949
77.4821
77.4572
77.4085
77.32
77.1698
76.9318
76.5869
76.1215
75.5186
74.7663
73.8589
72.7994
71.5902
70.279
68.9097
67.4908
66.0282
64.5258
62.9829
61.3968
59.7703
58.1107
56.2538
54.1888
52.1273
50.075
77.5732
77.5663
77.5489
77.536
77.5236
77.516
77.5118
77.5097
77.5059
77.4943
77.4649
77.4034
77.2899
77.0987
76.7999
76.3739
75.8088
75.0892
74.2062
73.1588
71.9558
70.6047
69.1623
67.6778
66.1591
64.611
63.034
61.4255
59.7869
58.1192
56.2554
54.181
52.112
50.0774
48.072
77.5657
77.5718
77.5488
77.5368
77.5258
77.5204
77.5196
77.5227
77.527
77.5273
77.5152
77.4781
77.3985
77.2524
77.0099
76.6375
76.1161
75.4366
74.5864
73.5608
72.3645
71.013
69.519
67.9486
66.3548
64.7438
63.1179
61.4746
59.8138
58.1345
56.2625
54.1795
52.1039
50.0631
48.0739
46.1258
77.5486
77.5649
77.5703
77.5375
77.5276
77.5242
77.5265
77.5343
77.5457
77.5565
77.5599
77.5449
77.496
77.3916
77.2039
76.8982
76.4379
75.8056
74.9967
74.0023
72.8233
71.4713
69.9685
68.3336
66.6407
64.9454
63.2511
61.5566
59.8604
58.1589
56.2749
54.1838
52.0993
50.054
48.0604
46.1273
44.246
77.5381
77.5486
77.5639
77.5687
77.5292
77.5276
77.5325
77.5445
77.5621
77.5824
77.5995
77.6043
77.5832
77.5169
77.3798
77.1395
76.7571
76.1934
75.4339
74.4804
73.3291
71.9878
70.4755
68.8216
67.0503
65.243
63.456
61.6887
59.9392
58.2017
56.2949
54.1913
52.1001
50.046
48.0499
46.1141
44.2467
42.4402
77.5306
77.5389
77.5485
77.563
77.5672
77.5306
77.5378
77.5534
77.5767
77.6053
77.6346
77.6571
77.6609
77.6291
77.5385
77.3589
77.0533
76.5791
75.8951
74.9919
73.8791
72.5599
71.0495
69.3749
67.5731
65.6729
63.7617
61.8943
60.0682
58.2755
56.3316
54.2047
52.1018
50.0422
48.0382
46.102
44.2338
42.4401
40.7139
77.5331
77.5325
77.5399
77.5484
77.562
77.5657
77.5425
77.5614
77.5895
77.6255
77.6657
77.7039
77.73
77.7292
77.6807
77.5571
77.3234
76.9382
76.3555
75.5334
74.4699
73.1845
71.6881
70.0046
68.1692
66.2255
64.2068
62.204
60.2713
58.3986
56.3975
54.2322
52.1071
50.037
48.0292
46.0865
44.2197
42.4272
40.7129
39.0704
77.5465
77.5364
77.5345
77.5408
77.5483
77.561
77.5641
77.5684
77.6009
77.6434
77.6932
77.7453
77.7913
77.8183
77.8078
77.7351
77.5678
77.2665
76.7855
76.0762
75.098
73.8584
72.3885
70.7083
68.8509
66.8593
64.7833
62.6589
60.5806
58.5956
56.5112
54.2862
52.1232
50.0327
48.0161
46.0717
44.2004
42.4111
40.7001
39.0685
37.5114
77.5742
77.5517
77.5397
77.5365
77.5416
77.5481
77.5599
77.5626
77.6109
77.6592
77.7175
77.782
77.8456
77.8974
77.9211
77.8944
77.7879
77.5645
77.1799
76.5852
75.7305
74.5781
73.1478
71.484
69.6167
67.5879
65.4484
63.2524
61.0389
58.8994
56.6972
54.3849
52.1622
50.0355
48.0009
46.0502
44.1796
42.388
40.6818
39.0557
37.5088
36.0374
77.6193
77.5819
77.5566
77.543
77.5384
77.5423
77.5479
77.5589
77.5611
77.6732
77.7391
77.8145
77.8938
77.9676
78.0218
78.0366
77.9853
77.8333
77.5388
77.0535
76.3258
75.3064
73.9628
72.3292
70.4651
68.4106
66.2171
63.941
61.6413
59.3542
56.9893
54.553
52.2418
50.0568
47.9887
46.0233
44.1493
42.361
40.6549
39.0352
37.4958
36.034
34.6476
77.6848
77.6302
77.5887
77.5615
77.5462
77.5402
77.543
77.5477
77.5578
77.5597
77.7581
77.8433
77.9364
78.0299
78.1113
78.1633
78.1617
78.0748
77.8635
77.4811
76.8758
75.995
74.7917
73.2412
71.3945
69.3273
67.0899
64.7413
62.3446
59.9566
57.4324
54.8246
52.3864
50.1138
47.9904
45.995
44.1101
42.3217
40.6217
39.0047
37.4732
36.0209
34.6435
33.3402
77.7739
77.6999
77.6394
77.5956
77.5662
77.5492
77.5418
77.5435
77.5474
77.5567
77.5582
77.8688
77.9744
78.0851
78.1908
78.2759
78.319
78.2912
78.156
77.869
77.3797
76.6338
75.5793
74.1739
72.4032
70.3371
68.068
65.6555
63.1669
60.6647
58.0249
55.2435
52.6293
50.2302
48.022
45.9753
44.0649
42.2699
40.5734
38.9654
37.4391
35.9962
34.6302
33.3356
32.113
77.8899
77.7945
77.712
77.6488
77.6023
77.5707
77.552
77.5433
77.5439
77.5471
77.5555
77.5567
78.0079
78.1342
78.2613
78.376
78.4591
78.4845
78.4184
78.2193
77.8382
77.2212
76.3132
75.0648
73.4408
71.4395
69.1519
66.6861
64.112
61.4979
58.7271
55.811
53.0123
50.4373
48.1062
45.9796
44.023
42.2074
40.509
38.9082
37.3939
35.9587
34.6035
33.322
32.1079
30.9631
78.0355
77.9173
77.8102
77.7247
77.658
77.6086
77.5749
77.5546
77.5447
77.5441
77.5468
77.5544
77.5553
78.1777
78.3241
78.465
78.5838
78.6569
78.6533
78.5344
78.2535
77.7577
76.9908
75.8989
74.4374
72.5807
70.3427
67.8355
65.1842
62.4618
59.5598
56.4907
53.5397
50.7743
48.2716
46.0285
43.9985
42.1428
40.4292
38.8312
37.328
35.9078
34.5628
33.2934
32.0941
30.9575
29.8872
78.2133
78.0716
77.9376
77.8268
77.7368
77.6665
77.6144
77.5788
77.5569
77.5459
77.5442
77.5465
77.5532
77.5539
78.3797
78.5443
78.6947
78.8105
78.8633
78.817
78.6279
78.2449
77.612
76.6724
75.3752
73.6833
71.5836
69.1064
66.3877
63.5624
60.5302
57.3043
54.1796
51.2483
48.5538
46.1472
44.0098
42.0889
40.3419
38.7344
37.2388
35.8336
34.5065
33.2498
32.0637
30.9435
29.8812
28.8819
78.4251
78.2604
78.0974
77.9591
77.8427
77.7481
77.6743
77.6198
77.5823
77.559
77.5471
77.5441
77.5461
77.552
77.5526
78.6145
78.7937
78.9473
79.0505
79.0701
78.9647
78.6856
78.1781
77.3843
76.249
74.7265
72.7899
70.4399
67.7278
64.8066
61.6467
58.2606
54.9533
51.8326
48.9631
46.3676
44.0782
42.061
40.2583
38.6248
37.1255
35.7326
34.4243
33.1883
32.0173
30.9115
29.867
28.8755
27.9434
78.6716
78.4856
78.293
78.125
77.9796
77.8574
77.7584
77.6815
77.6247
77.5854
77.5608
77.548
77.5438
77.5457
77.5509
77.5513
78.8814
79.0696
79.2176
79.2961
79.2667
79.0829
78.6916
78.0354
77.0566
75.7032
73.9377
71.7449
69.1443
66.2019
62.9187
59.3708
55.8715
52.5472
49.4775
46.7022
44.2313
42.0768
40.1904
38.5117
36.9941
35.6033
34.312
33.0986
31.9509
30.8625
29.8334
28.8611
27.9367
27.0683
78.9523
78.7488
78.5266
78.3281
78.1513
77.9984
77.8708
77.7678
77.688
77.629
77.5881
77.5624
77.5487
77.5434
77.5451
77.5498
77.5501
79.1778
79.3672
79.4982
79.5371
79.44
79.1558
78.6281
77.7981
76.61
75.018
72.9941
70.5402
67.6881
64.3572
60.6475
56.9477
53.404
50.1148
47.134
44.4831
42.1586
40.1522
38.4038
36.8521
35.4511
34.1677
32.9757
31.8541
30.7915
29.7821
28.826
27.9221
27.0613
26.2529
79.265
79.05
78.8
78.5709
78.3614
78.1753
78.0156
77.8829
77.7762
77.6937
77.6327
77.5904
77.5636
77.5491
77.543
77.5445
77.5487
77.549
79.4994
79.6795
79.7792
79.7604
79.5743
79.1654
78.4754
77.446
76.0256
74.1763
71.8849
69.1631
65.9027
62.1059
58.1982
54.4185
50.8875
47.6772
44.8213
42.3215
40.1606
38.3113
36.7048
35.281
33.9956
32.8171
31.7212
30.6881
29.7068
28.7726
27.8857
27.0464
26.2455
25.4933
79.6055
79.3876
79.1136
78.8557
78.6129
78.3917
78.197
78.0309
77.8936
77.7836
77.6986
77.6358
77.5922
77.5644
77.5493
77.5426
77.5438
77.5477
77.5479
79.8395
79.9968
80.0479
79.9504
79.6509
79.0914
78.2123
76.9586
75.2844
73.1646
70.5932
67.4501
63.6902
59.6414
55.6089
51.8112
48.3435
45.2552
42.5571
40.23
38.2451
36.5585
35.0954
33.7985
32.6261
31.5492
30.5458
29.5973
28.6933
27.8303
27.0089
26.2304
25.4852
24.7891
79.9672
79.7583
79.4666
79.1835
78.9084
78.651
78.419
78.2163
78.0444
77.9028
77.7897
77.7026
77.6383
77.5935
77.565
77.5491
77.5422
77.5431
77.5467
77.5469
80.1886
80.3068
80.2887
80.0885
79.6496
78.9116
77.8172
76.315
74.3702
71.9624
68.9631
65.2931
61.2248
56.9942
52.9035
49.1462
45.794
42.8687
40.3561
38.2184
36.4179
34.8965
33.576
32.4033
31.3405
30.3614
29.4463
28.5781
27.7474
26.9518
26.1918
25.4701
24.7772
24.2054
80.3408
80.1564
79.8562
79.5539
79.2494
78.956
78.6851
78.4431
78.233
78.0558
77.9104
77.7947
77.7056
77.6399
77.5942
77.5652
77.5488
77.5417
77.5423
77.5458
77.5459
80.5346
80.594
80.483
80.1539
79.5473
78.6034
77.267
75.4963
73.2595
70.4225
66.8727
62.8382
58.5245
54.1816
50.101
46.4476
43.2618
40.5353
38.2306
36.294
34.6826
33.3261
32.1456
31.0935
30.1361
29.2504
28.419
27.627
26.8654
26.1332
25.4307
24.7625
24.201
23.715
80.7141
80.5738
80.2775
79.965
79.636
79.3087
78.9985
78.7151
78.4639
78.2472
78.0652
77.9164
77.7983
77.7076
77.6409
77.5946
77.5651
77.5482
77.5412
77.5415
77.5448
77.545
80.8621
80.84
80.6098
80.123
79.3202
78.1419
76.541
74.4773
71.8129
68.4032
64.4342
60.093
55.6051
51.2266
47.2313
43.7436
40.7691
38.2705
36.1901
34.4621
33.0407
31.8469
30.8023
29.8663
29.0096
28.2125
27.4605
26.7402
26.0437
25.3709
24.7222
24.1903
23.7193
23.2047
81.0716
80.9995
80.7234
80.4127
80.0669
79.7097
79.3614
79.0356
78.7407
78.4811
78.2584
78.0723
77.9206
77.8005
77.7086
77.6412
77.5945
77.5648
77.5476
77.5407
77.5408
77.544
77.5441
81.1524
81.0236
80.6451
79.9712
78.942
77.5046
75.6119
73.1231
69.8645
65.9861
61.6578
57.0843
52.5018
48.1694
44.3307
41.0629
38.3366
36.0877
34.2422
32.7256
31.4925
30.4573
29.5436
28.7185
27.9574
27.2441
26.5669
25.9142
25.2786
24.6615
24.1499
23.7097
23.2045
22.6543
81.3943
81.4195
81.184
80.891
80.5392
80.1585
79.7752
79.4074
79.0672
78.7618
78.4947
78.2668
78.077
77.9229
77.8014
77.7088
77.641
77.594
77.5643
77.5468
77.54
77.54
77.5431
77.5431
81.3842
81.1203
80.5633
79.6708
78.3886
76.6619
74.3463
71.2439
67.4773
63.2018
58.5928
53.8634
49.2654
45.0551
41.4354
38.4323
35.9822
33.9974
32.3919
31.086
30.0368
29.1548
28.3663
27.6464
26.9757
26.3416
25.7345
25.1451
24.5667
24.0889
23.67
23.1915
22.649
22.0536
81.6602
81.8163
81.6462
81.3913
81.0477
80.6528
80.2397
79.832
79.4463
79.0929
78.7781
78.5044
78.272
78.0793
77.9235
77.8012
77.7081
77.6402
77.5932
77.5635
77.546
77.5393
77.5391
77.5422
77.5421
81.5324
81.1039
80.3359
79.1959
77.6278
75.4798
72.5355
68.8992
64.7144
60.1218
55.2995
50.4845
45.9443
41.9248
38.5775
35.8745
33.7202
32.0075
30.6422
29.543
28.6717
27.9363
27.2666
26.6462
26.0608
25.5009
24.9597
24.4296
23.992
23.6085
23.1517
22.633
22.0463
21.4019
81.8432
82.1695
82.0942
81.9021
81.5849
81.1884
80.7534
80.3101
79.8799
79.4777
79.1124
78.7894
78.5101
78.2741
78.0793
77.9226
77.7999
77.7068
77.639
77.5921
77.5626
77.5451
77.5385
77.5382
77.5411
77.541
81.57
80.9454
79.9353
78.5118
76.5232
73.7379
70.2473
66.1863
61.6594
56.803
51.8247
46.9909
42.5795
38.8143
35.7846
33.4083
31.5615
30.1228
28.994
28.0953
27.3942
26.7982
26.2409
25.7143
25.2088
24.7185
24.2388
23.8521
23.51
23.089
22.5922
22.0295
21.3938
20.6975
81.9148
82.4554
82.5085
82.4088
82.1408
81.7591
81.3132
80.8407
80.3693
79.9185
79.5013
79.1257
78.7956
78.5117
78.2732
78.0774
77.9204
77.7978
77.7049
77.6374
77.5908
77.5614
77.5441
77.5376
77.5371
77.5401
77.54
81.4665
80.615
79.3242
77.4793
74.8512
71.5187
67.6075
63.1882
58.3552
53.2771
48.2004
43.4186
39.2075
35.7547
33.0794
31.0478
29.5135
28.3459
27.4468
26.7404
26.201
25.7366
25.2852
24.8465
24.4159
23.9907
23.657
23.3676
22.9886
22.5276
21.9875
21.3769
20.6887
19.9364
81.8424
82.6477
82.8666
82.8939
82.7025
82.356
81.9137
81.4215
80.914
80.4168
79.9473
79.517
79.1325
78.7966
78.5097
78.2699
78.0737
77.917
77.7948
77.7025
77.6354
77.5892
77.5601
77.5432
77.5366
77.536
77.539
77.539
81.1897
80.074
78.3607
75.878
72.71
68.9679
64.689
59.9301
54.8178
49.5638
44.4545
39.801
35.8613
32.7729
30.4802
28.8034
27.5802
26.677
25.9987
25.475
25.0882
24.7478
24.3956
24.0391
23.6784
23.4033
23.1689
22.8435
22.425
21.9209
21.3338
20.6715
19.9272
19.1142
81.5891
82.7174
83.1426
83.3365
83.2539
82.9678
82.5476
82.0483
81.5126
80.9729
80.4521
79.9661
79.5245
79.1327
78.793
78.5045
78.2643
78.0686
77.9125
77.7912
77.6996
77.6331
77.5874
77.559
77.5421
77.5354
77.5349
77.538
77.5381
80.6982
79.176
76.8331
73.8208
70.2571
66.1435
61.5001
56.4146
51.0555
45.6818
40.6159
36.1717
32.5714
29.8913
28.0006
26.6814
25.7636
25.1149
24.6464
24.2953
24.0518
23.8275
23.5679
23.2883
23.0833
22.9106
22.6412
22.2769
21.816
21.2652
20.6273
19.9096
19.1049
18.2268
81.108
82.6331
83.3077
83.7125
83.776
83.5802
83.2048
82.7147
82.1617
81.5859
81.0167
80.4751
79.9746
79.5237
79.1271
78.7854
78.4965
78.2569
78.0622
77.9072
77.787
77.6962
77.6305
77.586
77.5579
77.5408
77.5342
77.5337
77.537
77.5372
79.8394
77.7243
74.8652
71.4691
67.5345
63.0397
58.0334
52.6402
47.0777
41.6539
36.7165
32.564
29.3654
27.128
25.6501
24.6854
24.0629
23.6568
23.3864
23.1973
23.0877
22.9715
22.7985
22.6824
22.5842
22.3778
22.0705
21.6645
21.1578
20.5568
19.8641
19.0868
18.2173
17.27
82.356
80.2431
83.3283
83.995
84.2465
84.176
83.8728
83.4124
82.8563
82.2533
81.6407
81.0452
80.4852
79.9729
79.5158
79.1166
78.7743
78.4862
78.2479
78.0547
77.9012
77.7822
77.6923
77.6287
77.585
77.5565
77.5394
77.5329
77.5324
77.5361
77.5364
78.4346
75.8486
72.617
68.8511
64.5256
59.6425
54.2799
48.6081
42.8998
37.5084
32.7914
29.011
26.2674
24.4969
23.4346
22.816
22.4758
22.2989
22.2143
22.1765
22.1915
22.1761
22.1779
22.1744
22.0445
21.8018
21.4538
21.0027
20.4468
19.7919
19.0403
18.1989
17.2604
16.2392
83.1694
81.7368
78.8188
84.1513
84.6406
84.7345
84.5361
84.1301
83.5889
82.9712
82.3224
81.6766
81.0578
80.4828
79.9624
79.5017
79.1018
78.7603
78.4739
78.2375
78.0462
77.8942
77.7763
77.69
77.6278
77.5836
77.5549
77.5379
77.5315
77.5313
77.5352
77.5357
76.6208
73.7037
70.1059
65.9417
61.2122
55.9374
50.2333
44.325
38.5437
33.2792
28.8782
25.5438
23.2979
22.0079
21.3567
21.0714
20.9988
21.0369
21.1256
21.2284
21.3591
21.5347
21.6576
21.6252
21.4612
21.1794
20.7874
20.2879
19.6791
18.9662
18.1515
17.2416
16.2296
15.1301
84.1486
82.7034
80.6407
77.0007
84.9272
85.2329
85.1759
84.8543
84.3502
83.7333
83.0586
82.3683
81.6931
81.0551
80.4694
79.9442
79.4824
79.0833
78.7438
78.4598
78.2259
78.0365
77.8865
77.7733
77.6893
77.6262
77.5817
77.5531
77.5361
77.5302
77.5301
77.5343
77.5349
74.5472
71.3004
67.3006
62.7209
57.5767
51.9126
45.8923
39.8045
34.0388
29.0056
25.0147
22.191
20.473
19.667
19.416
19.4485
19.6274
19.8659
20.1153
20.3486
20.6883
20.9972
21.0952
21.0317
20.8308
20.5069
20.0677
19.5161
18.8504
18.0755
17.1933
16.2105
15.1206
13.9383
85.0774
83.8759
81.7689
79.172
74.9353
85.6423
85.7715
85.5681
85.1283
84.5318
83.8445
83.118
82.3906
81.6908
81.0389
80.4467
79.9197
79.4586
79.0618
78.7253
78.4444
78.2128
78.0258
77.8822
77.7729
77.6877
77.6242
77.5796
77.5509
77.5347
77.5289
77.5289
77.5334
77.5341
72.2202
68.6022
64.1803
59.1695
53.6036
47.5595
41.2604
35.0674
29.4218
24.7304
21.2384
18.9774
17.8046
17.4767
17.6102
17.9426
18.3562
18.7805
19.1788
19.6403
20.1266
20.4164
20.4877
20.3905
20.15
19.7807
19.2907
18.6833
17.9567
17.1154
16.1612
15.1011
13.9289
12.6597
85.9372
85.0011
83.1768
80.4695
77.4455
72.625
86.2957
86.2527
85.9082
85.3563
84.6734
83.9219
83.1487
82.3899
81.672
81.0113
80.4162
79.8896
79.4312
79.0378
78.7051
78.427
78.1983
78.0205
77.8824
77.7713
77.6853
77.6215
77.5769
77.5492
77.5332
77.5276
77.5277
77.5325
77.5333
69.5969
65.5889
60.7261
55.2704
49.2789
42.8722
36.3475
30.1429
24.7357
20.4983
17.584
15.923
15.2999
15.4364
15.9353
16.5483
17.1796
17.7757
18.4258
19.0476
19.5198
19.7891
19.8315
19.6981
19.4149
18.9968
18.4524
17.7852
16.9935
16.0815
15.051
13.909
12.6504
11.2905
86.727
86.051
84.542
82.1259
78.9186
75.4826
70.0189
86.8833
86.6731
86.1938
85.5365
84.7742
83.9644
83.1514
82.3691
81.6393
80.9741
80.379
79.8551
79.4006
79.0117
78.6824
78.4079
78.1911
78.0214
77.8807
77.7686
77.6822
77.6183
77.575
77.5477
77.5316
77.5261
77.5263
77.5316
77.5326
66.6582
62.2432
56.9209
51.0064
44.589
37.8481
31.1701
25.0684
20.0297
16.3544
14.0821
13.0424
12.9624
13.5437
14.3856
15.2594
16.0918
16.9689
17.7962
18.4077
18.8649
19.112
19.1232
18.9508
18.6216
18.1513
17.5486
16.8174
15.9564
14.9694
13.8583
12.6301
11.2818
9.82521
87.4412
87.0248
85.8253
83.7456
80.8268
77.1634
73.2344
67.097
87.4003
87.0294
86.4227
85.668
84.8333
83.9729
83.1295
82.3313
81.5949
80.9288
80.3363
79.8169
79.3676
78.9827
78.6576
78.3991
78.1937
78.0197
77.8777
77.7649
77.6781
77.6163
77.5737
77.5459
77.5299
77.5245
77.5249
77.5306
77.5318
63.3886
58.55
52.7471
46.3586
39.5199
32.488
25.7531
19.8908
15.3567
12.3416
10.7577
10.3454
10.792
11.7933
12.9548
14.0694
15.2197
16.2952
17.1169
17.7175
18.1585
18.3815
18.359
18.1446
17.7662
17.24
16.575
15.7757
14.8411
13.7749
12.579
11.2616
9.81926
7.98932
88.0738
87.9154
87.0283
85.2779
82.7013
79.3487
75.1568
70.6835
63.8441
87.8428
87.3189
86.5935
85.7492
84.851
83.9517
83.0871
82.2793
81.5407
80.877
80.2892
79.7757
79.331
78.951
78.6464
78.4019
78.1919
78.0163
77.8734
77.7599
77.6762
77.6154
77.572
77.5439
77.5279
77.5227
77.5234
77.5296
77.5311
59.7757
54.4933
48.1828
41.3044
34.0562
26.798
20.1328
14.666
10.7715
8.49794
7.62981
7.83666
8.78534
10.179
11.6359
13.1169
14.4924
15.5689
16.3852
16.9739
17.397
17.5939
17.5351
17.2756
16.8445
16.2585
15.5274
14.6557
13.6434
12.494
11.21
9.79998
7.98024
5.82254
88.6197
88.7142
88.1442
86.7257
84.4832
81.4954
77.6501
72.8768
67.8228
60.2485
88.2073
87.5397
86.7044
85.7807
84.8327
83.9055
83.0274
82.2156
81.4786
80.8198
80.2386
79.7302
79.2911
78.937
78.6507
78.4004
78.188
78.0112
77.8672
77.7582
77.676
77.614
77.57
77.5416
77.5258
77.5208
77.5219
77.5286
77.5304
55.8053
50.0519
43.2011
35.8143
28.1812
20.7939
14.3582
9.45713
6.3278
4.856
4.7114
5.51624
6.93681
8.69331
10.5819
12.3237
13.7093
14.7875
15.5977
16.1734
16.577
16.7455
16.6477
16.3398
15.8524
15.2028
14.4013
13.4533
12.3593
11.1232
9.74866
7.95744
5.81117
3.6397
89.0746
89.4129
89.1629
88.0823
86.1759
83.5423
80.0941
75.7062
70.318
64.6496
56.2968
88.4911
87.6893
86.7554
85.7686
84.7841
83.8384
82.9536
82.1422
81.4101
80.7584
80.1828
79.6806
79.2737
78.943
78.6495
78.3962
78.182
78.0036
77.8659
77.7591
77.6751
77.612
77.5676
77.5391
77.5234
77.5187
77.5202
77.5276
77.5298
51.4572
45.1983
37.7633
29.8512
21.8843
14.5061
8.49274
4.33248
2.07531
1.44101
2.00849
3.38051
5.2388
7.50833
9.70574
11.4709
12.868
13.948
14.7513
15.3125
15.6947
15.8324
15.6926
15.3331
14.7857
14.0686
13.1928
12.1647
10.9854
9.6604
7.90372
5.78692
3.63201
1.47546
89.4355
90.0044
90.0741
89.3365
87.773
85.4926
82.4315
78.4675
73.513
67.4816
61.1628
51.9694
88.6908
87.7672
86.7538
85.7198
84.7103
83.7541
82.868
82.0612
81.3366
80.6909
80.122
79.6592
79.282
78.9422
78.6449
78.3892
78.1727
78.0028
77.8683
77.7591
77.6736
77.6096
77.5647
77.5362
77.5207
77.5165
77.5185
77.5265
77.5292
46.7049
39.8933
31.8205
23.3815
15.1705
7.98518
2.61351
-0.638159
-1.94264
-1.73047
-0.478298
1.42252
3.88768
6.52532
8.76532
10.5563
11.9658
13.0473
13.8426
14.3877
14.7465
14.8509
14.6662
14.2515
13.6403
12.852
11.8982
10.7862
9.51953
7.81184
5.7307
3.61109
1.46918
-0.664999
89.6979
90.4832
90.8674
90.4772
89.2631
87.339
84.6656
81.114
76.6118
71.0757
64.3757
57.3589
47.2398
88.8049
87.7817
86.7079
85.6405
84.6157
83.6557
82.7734
81.9742
81.2558
80.6172
80.096
79.6703
79.2816
78.9371
78.6367
78.3779
78.1728
78.0076
77.8698
77.7583
77.6714
77.6067
77.5615
77.5329
77.5178
77.5141
77.5167
77.5254
77.5287
41.5105
34.0791
25.3093
16.3659
8.05769
1.30511
-3.1905
-5.38745
-5.69251
-4.64961
-2.75365
-0.131209
2.76984
5.47216
7.75874
9.57744
10.9997
12.0822
12.8685
13.3958
13.7291
13.7975
13.5645
13.0911
12.4125
11.5493
10.5139
9.3159
7.66662
5.63513
3.55704
1.44901
-0.670508
-2.77902
89.8592
90.8432
91.5331
91.4925
90.635
89.0698
86.7883
83.6502
79.5839
74.534
68.4075
61.0105
53.2312
42.075
88.8427
87.7427
86.625
85.536
84.5041
83.5464
82.6715
81.8785
81.1675
80.586
80.1103
79.6704
79.276
78.9276
78.623
78.3793
78.1806
78.0111
77.8702
77.7567
77.6685
77.6031
77.5577
77.5293
77.5146
77.5115
77.5148
77.5244
77.5282
35.8112
27.6682
18.1414
8.76227
0.587124
-5.43701
-8.82376
-9.85638
-9.15068
-7.31579
-4.55354
-1.41276
1.57515
4.34774
6.68418
8.53195
9.96736
11.0503
11.8262
12.3339
12.6392
12.6685
12.384
11.8484
11.0989
10.1572
9.0379
7.45753
5.48503
3.46203
1.39623
-0.690477
-2.78376
-4.85981
89.9293
91.0797
92.0587
92.3709
91.8762
90.6727
88.7861
86.068
82.4349
77.8483
72.2501
65.527
57.3963
48.7733
36.4204
88.8162
87.6592
86.5118
85.4111
84.3793
83.4285
82.5595
81.774
81.1304
80.604
80.1112
79.6643
79.2651
78.9111
78.626
78.391
78.1867
78.013
77.8695
77.7541
77.6648
77.5989
77.5534
77.5253
77.5112
77.5087
77.5129
77.5233
77.5279
29.5171
20.5476
10.2166
0.551518
-7.16249
-12.124
-14.1924
-13.9966
-12.3052
-9.41723
-6.03255
-2.77851
0.30376
3.15122
5.53996
7.41791
8.86655
9.94924
10.7134
11.1992
11.4739
11.4611
11.1217
10.5204
9.69644
8.67385
7.17314
5.27025
3.31068
1.3017
-0.742423
-2.80306
-4.86373
-6.9014
89.9222
91.2041
92.4319
93.0956
92.9735
92.1347
90.6451
88.3545
85.1589
81.0256
75.9247
69.7827
62.4544
53.5413
43.9679
30.1927
88.7359
87.5391
86.3739
85.2703
84.2442
83.2986
82.4369
81.7302
81.153
80.6059
80.1045
79.6518
79.2453
78.9163
78.6426
78.4006
78.191
78.0138
77.8676
77.7506
77.6603
77.5939
77.5485
77.5208
77.5074
77.5059
77.5109
77.5223
77.5276
22.5081
12.5704
1.43799
-8.24772
-15.0665
-18.6232
-19.2098
-17.7738
-14.7813
-11.1361
-7.60311
-4.22609
-1.0435
1.88211
4.3252
6.23418
7.69596
8.77743
9.52809
9.98968
10.2309
10.1728
9.77497
9.10453
8.20357
6.80103
4.97973
3.0936
1.14977
-0.837012
-2.8535
-4.88214
-6.90453
-8.89924
89.8506
91.2337
92.6616
93.6458
93.9064
93.443
92.3498
90.4953
87.7445
84.0628
79.4386
73.838
67.1577
59.2097
49.4524
38.7822
23.2782
88.6115
87.3892
86.2168
85.1171
84.095
83.1562
82.3856
81.758
81.1558
80.5986
80.0902
79.6281
79.2531
78.9389
78.6567
78.408
78.1938
78.0131
77.8645
77.7459
77.6548
77.5882
77.5429
77.5159
77.5034
77.5029
77.509
77.5214
77.5275
14.5964
3.54686
-8.27813
-17.5628
-22.9547
-24.7955
-23.7997
-20.7259
-16.7947
-12.953
-9.25928
-5.75194
-2.46507
0.541196
3.0401
4.98058
6.45507
7.53404
8.26924
8.704
8.90853
8.80156
8.3419
7.5997
6.32079
4.60066
2.80041
0.93196
-0.989518
-2.94752
-4.93088
-6.9219
-8.90158
-10.8497
89.7258
91.1841
92.7676
94.0258
94.6467
94.5752
93.8851
92.4737
90.1794
86.9522
82.7939
77.6993
71.6173
64.4016
55.8148
45.1351
33.178
15.4962
88.4512
87.2161
86.0449
84.9474
83.931
83.0968
82.4195
81.7621
81.148
80.5823
80.0621
79.6392
79.283
78.9585
78.668
78.4135
78.1948
78.0108
77.86
77.74
77.6482
77.5815
77.5368
77.5106
77.4993
77.5
77.5072
77.5204
77.5274
5.49392
-6.76759
-18.9639
-27.2357
-30.6341
-30.4918
-27.3703
-23.1077
-18.9097
-14.8561
-10.9931
-7.35129
-3.95755
-0.869154
1.68631
3.65816
5.1444
6.21922
6.93668
7.34169
7.50609
7.3466
6.82221
5.70487
4.11266
2.41849
0.638559
-1.20732
-3.09974
-5.02394
-6.96871
-8.91781
-10.8512
-12.7498
89.5578
91.069
92.7695
94.254
95.1946
95.4975
95.2244
94.2717
92.4476
89.685
85.9877
81.3764
75.8374
69.2937
61.5416
52.2957
40.5894
27.1098
6.55668
88.2628
87.0251
85.8536
84.7603
83.8627
83.1376
82.4251
81.7537
81.1295
80.5492
80.077
79.6779
79.3093
78.9746
78.677
78.4168
78.1938
78.0067
77.8538
77.7327
77.6405
77.574
77.5301
77.5051
77.4951
77.497
77.5053
77.5195
77.5274
-5.27665
-18.5828
-30.5688
-37.0919
-37.8343
-34.9176
-30.2206
-25.587
-21.1045
-16.8301
-12.7947
-9.0167
-5.51518
-2.34452
0.267139
2.26939
3.76587
4.83443
5.53144
5.90344
6.02389
5.80862
4.91297
3.48849
1.92833
0.257411
-1.49921
-3.3163
-5.17499
-7.0604
-8.96264
-10.8662
-12.7506
-14.5968
89.3558
90.9006
92.6851
94.349
95.5691
96.2077
96.327
95.8563
94.531
92.2483
89.0164
84.8723
79.8399
73.8849
66.899
58.6069
48.6839
35.8108
20.5267
-4.04104
88.0528
86.8116
85.6418
84.6823
83.9115
83.1448
82.4161
81.7327
81.0906
80.5686
80.126
79.7121
79.3314
78.9881
78.6834
78.4177
78.1905
78.0006
77.8458
77.7238
77.6315
77.5658
77.5231
77.4995
77.4909
77.4941
77.5035
77.5186
77.5274
-18.4212
-32.1264
-43.2554
-46.5725
-43.477
-38.3835
-33.1454
-28.1253
-23.3524
-18.8576
-14.6506
-10.7374
-7.12939
-3.87819
-1.21215
0.818556
2.323
3.38254
4.05594
4.39124
4.46414
3.88267
2.68812
1.3036
-0.229757
-1.87659
-3.60473
-5.38891
-7.20966
-9.05273
-10.909
-12.7644
-14.5969
-16.3882
89.1277
90.6901
92.5306
94.3299
95.7887
96.7254
97.1893
97.1751
96.3923
94.626
91.872
88.1905
83.6342
78.2165
71.8743
64.4663
55.6288
45.0133
30.7919
13.4056
-17.1803
87.8165
86.574
85.5535
84.7401
83.9205
83.1352
82.3924
81.6873
81.1152
80.6294
80.1695
79.7413
79.3503
78.9985
78.6869
78.4158
78.1847
77.9921
77.8359
77.7134
77.6216
77.5571
77.5158
77.4937
77.4865
77.4911
77.5017
77.5178
77.5275
-35.6151
-47.5898
-55.7102
-54.1378
-47.8372
-41.8479
-36.0768
-30.6776
-25.6239
-20.916
-16.543
-12.499
-8.7886
-5.46088
-2.74395
-0.687988
0.821134
1.86818
2.51416
2.80922
2.51984
1.65019
0.505267
-0.848071
-2.35626
-3.97529
-5.67174
-7.41991
-9.19962
-10.9972
-12.805
-14.6094
-16.3878
-18.1207
88.8689
90.4465
92.3206
94.2152
95.872
97.0706
97.8348
98.2172
97.967
96.7795
94.5429
91.3294
87.2331
82.3048
76.5385
69.8384
62.0286
52.6383
41.3297
25.5429
5.84175
-35.4421
87.552
86.4747
85.6214
84.7513
83.9103
83.1086
82.3396
81.7177
81.1895
80.6837
80.2071
79.7668
79.3655
79.0052
78.6869
78.4107
78.1761
77.9811
77.8238
77.7015
77.6108
77.5478
77.5082
77.4877
77.4821
77.4881
77.4999
77.5171
77.5276
-56.8432
-61.083
-67.4966
-59.6569
-52.0067
-45.209
-38.9439
-33.1969
-27.8844
-22.9778
-18.4496
-14.2834
-10.4779
-7.08035
-4.31809
-2.24164
-0.732264
0.297815
0.912514
0.848979
0.282832
-0.526005
-1.63504
-2.96192
-4.44316
-6.03248
-7.69545
-9.40518
-11.1413
-12.8912
-14.6481
-16.399
-18.1195
-19.7894
88.5782
90.1654
92.067
94.0235
95.8367
97.2625
98.2873
99.0057
99.2339
98.6343
96.9922
94.2842
90.6424
86.1743
80.9162
74.8383
67.8078
59.6172
49.6839
37.6908
20.1665
-2.27499
-58.3059
87.4408
86.5539
85.6349
84.7403
83.8805
83.0474
82.3766
81.8073
81.256