/*--------------------------------*- C++ -*----------------------------------*\
  =========                 |
  \\      /  F ield         | OpenFOAM: The Open Source CFD Toolbox
   \\    /   O peration     | Website:  https://openfoam.org
    \\  /    A nd           | Version:  8
     \\/     M anipulation  |
\*---------------------------------------------------------------------------*/
FoamFile
{
    version     2.0;
    format      ascii;
    class       volScalarField;
    location    "0.27";
    object      epsilon;
}
// * * * * * * * * * * * * * * * * * * * * * * * * * * * * * * * * * * * * * //

dimensions      [0 2 -3 0 0 0 0];

internalField   nonuniform List<scalar> 
15677
(
59.7301
18.3644
52.6878
8.08378
26.026
50.2352
4.62239
13.3242
31.6557
50.5436
3.17416
7.74923
17.1278
37.3358
51.6382
2.48701
5.05417
10.0481
20.8527
42.6842
53.6785
2.14425
3.62766
6.47262
12.1831
24.5726
47.6809
55.737
1.97932
2.82281
4.5296
7.73467
14.2937
28.2722
52.0338
57.6678
1.91149
2.3534
3.40385
5.31529
8.9256
16.4364
31.7674
55.7093
59.3655
1.88406
2.08029
2.72406
3.91159
6.02676
10.1132
18.5435
34.9599
58.7238
60.8631
1.8705
1.93936
2.30734
3.05656
4.36038
6.71135
11.2784
20.572
37.7754
61.1945
62.1287
1.86763
1.87828
2.05648
2.52152
3.34913
4.77855
7.36628
12.4202
22.4599
40.2322
63.1828
63.2395
1.86862
1.84884
1.91654
2.18621
2.71294
3.6163
5.16717
8.0028
13.5057
24.2002
42.3223
64.8039
64.1652
1.86954
1.83871
1.85192
1.98268
2.30701
2.88692
3.85913
5.53714
8.60565
14.5344
25.7585
44.1057
66.103
64.9985
1.86978
1.837
1.82113
1.86775
2.0514
2.41839
3.04333
4.08544
5.88206
9.17952
15.481
27.1528
45.591
67.1555
65.7237
1.86977
1.83726
1.81051
1.81335
1.89819
2.1176
2.51885
3.18691
4.29273
6.20733
9.70992
16.3531
28.3653
46.8404
68.0133
66.3663
1.86972
1.83753
1.80821
1.7898
1.81541
1.93038
2.17877
2.61065
3.31664
4.48532
6.50544
10.2026
17.1308
29.4211
47.8738
68.7115
66.9531
1.86969
1.83763
1.8079
1.78278
1.77571
1.82153
1.96236
2.2353
2.69308
3.43549
4.65963
6.78082
10.645
17.8264
30.3151
48.7189
69.3074
67.4546
1.86967
1.83765
1.80791
1.78106
1.76146
1.76617
1.83174
1.99316
2.2863
2.76792
3.54182
4.81889
7.02658
11.045
18.4257
31.0679
49.4122
69.7788
67.9608
1.86966
1.83765
1.80792
1.78074
1.75697
1.74396
1.76039
1.84317
2.02159
2.33256
2.83438
3.63787
4.95949
7.24794
11.3908
18.9433
31.6839
49.9529
70.2216
68.3569
1.86966
1.83764
1.8079
1.7807
1.75569
1.73593
1.72952
1.75744
1.85453
2.04775
2.37364
2.89389
3.72187
5.08482
7.4382
11.6924
19.3678
32.1787
50.3982
70.5487
68.828
1.86966
1.83764
1.80788
1.78069
1.75537
1.73322
1.7173
1.71805
1.75589
1.8657
2.07125
2.41031
2.94568
3.79596
5.19156
7.60341
11.9389
19.7182
32.5632
50.716
70.914
69.1437
1.86966
1.83763
1.80787
1.78067
1.75527
1.73239
1.71267
1.70136
1.7085
1.75583
1.87614
2.09234
2.44225
2.99106
3.85871
5.28335
7.73765
12.1437
19.9826
32.8487
50.9848
71.155
69.6112
1.86966
1.83763
1.80785
1.78065
1.75523
1.73214
1.71103
1.69455
1.68727
1.70093
1.75617
1.88576
2.11094
2.47029
3.0296
3.91234
5.35751
7.84819
12.2956
20.1869
33.05
51.1507
71.4978
69.8705
1.86966
1.83762
1.80784
1.78062
1.75519
1.73204
1.71047
1.69194
1.67801
1.6754
1.69468
1.75697
1.89466
2.12754
2.49441
3.06262
3.95588
5.4181
7.93013
12.4136
20.3157
33.1742
51.2937
71.6957
70.3384
1.86966
1.83762
1.80784
1.78061
1.75516
1.73198
1.71026
1.69097
1.67419
1.66378
1.66494
1.68968
1.7585
1.90298
2.14224
2.51553
3.09018
3.99198
5.4637
7.99237
12.4831
20.4016
33.2437
51.3811
72.0799
70.5885
1.86967
1.83761
1.80784
1.78059
1.75514
1.73193
1.71016
1.69059
1.67268
1.65874
1.65078
1.65647
1.6861
1.76041
1.91099
2.15585
2.5341
3.11384
4.02014
5.49812
8.02995
12.5305
20.4253
33.2462
51.4302
72.3724
430.36
1.86967
1.83761
1.80783
1.78058
1.75512
1.73188
1.71009
1.69041
1.67207
1.65661
1.64436
1.64024
1.64925
1.68348
1.76344
1.91931
2.16874
2.55108
3.13394
4.04313
5.52166
8.05459
12.5358
20.4145
33.2291
51.5265
88.6057
722.936
1.86967
1.8376
1.80783
1.78056
1.7551
1.73185
1.71003
1.6903
1.6718
1.6557
1.64156
1.63259
1.63066
1.64433
1.6835
1.76777
1.92831
2.18193
2.5674
3.15255
4.06193
5.53835
8.06089
12.5267
20.3849
33.1908
52.4067
121.819
1011.31
1.86967
1.8376
1.80783
1.78055
1.75509
1.73182
1.70998
1.69021
1.67163
1.65527
1.64034
1.62907
1.62171
1.62432
1.64095
1.68491
1.77385
1.939
2.19627
2.58451
3.17057
4.07864
5.54904
8.05835
12.5051
20.3286
33.1969
54.8877
157.593
1268.79
1.86968
1.8376
1.80784
1.78054
1.75508
1.7318
1.70995
1.69014
1.67152
1.65503
1.63976
1.62744
1.61754
1.61429
1.61869
1.64145
1.68863
1.7826
1.95211
2.21296
2.60324
3.18965
4.09454
5.55649
8.05195
12.4677
20.2689
33.2667
59.383
190.625
1509.3
1.86968
1.83759
1.80784
1.78053
1.75508
1.73177
1.70991
1.69009
1.67142
1.65487
1.63944
1.62664
1.6156
1.60938
1.60773
1.6184
1.64404
1.69596
1.79485
1.96884
2.23295
2.62526
3.21101
4.112
5.564
8.04057
12.4288
20.2061
33.482
64.045
222.13
1716.75
1.86968
1.83759
1.80784
1.78053
1.75507
1.73175
1.70989
1.69004
1.67135
1.65475
1.63922
1.62621
1.61463
1.60699
1.60242
1.60635
1.62037
1.65001
1.70773
1.81178
1.99016
2.2578
2.65162
3.23672
4.13243
5.57355
8.03153
12.3884
20.1373
33.9009
68.7895
250.089
1877.36
1.86968
1.83759
1.80784
1.78052
1.75507
1.73173
1.70987
1.69
1.67128
1.65465
1.63905
1.62593
1.61409
1.60578
1.59981
1.60031
1.60811
1.62581
1.6614
1.725
1.8344
2.01761
2.28855
2.68414
3.26767
4.15832
5.58786
8.02443
12.3493
20.0757
34.4168
73.1027
271.968
2004.58
1.86969
1.83758
1.80785
1.78051
1.75507
1.73172
1.70986
1.68996
1.67123
1.65456
1.63891
1.62572
1.61373
1.60511
1.59846
1.59732
1.60197
1.61338
1.6367
1.67901
1.74881
1.86424
2.05222
2.32687
2.72371
3.30614
4.19059
5.60849
8.0248
12.3099
20.0216
34.9172
76.4367
289.392
2108.94
1.83758
1.86972
1.80785
1.78051
1.75507
1.7317
1.70985
1.68992
1.67119
1.65448
1.6388
1.62555
1.61345
1.60468
1.59769
1.59579
1.59894
1.60722
1.62413
1.65472
1.70387
1.78078
1.90243
2.09573
2.37375
2.77226
3.35257
4.23143
5.63641
8.02836
12.2698
19.9646
35.2853
78.9916
303.576
2197.77
1.80785
1.83768
1.8698
1.7805
1.75507
1.73169
1.70984
1.68989
1.67116
1.65442
1.6387
1.62541
1.61323
1.60437
1.59719
1.59495
1.59742
1.60424
1.61803
1.64266
1.68062
1.73761
1.82205
1.95069
2.14904
2.43087
2.83031
3.40915
4.2806
5.67227
8.03838
12.2293
19.9022
35.5404
80.9275
315.625
2276.14
1.7805
1.80801
1.83787
1.86987
1.75507
1.73168
1.70983
1.68986
1.67113
1.65435
1.63862
1.62529
1.61304
1.60413
1.59681
1.59443
1.59661
1.60281
1.61522
1.63712
1.66958
1.71615
1.78162
1.87448
2.01009
2.21387
2.49905
2.89979
3.47533
4.33947
5.7211
8.05938
12.1981
19.8329
35.6784
82.4451
326.081
2347.04
1.75507
1.7807
1.80833
1.83808
1.86995
1.73166
1.70983
1.68983
1.67111
1.6543
1.63856
1.62518
1.61288
1.60392
1.59651
1.59406
1.59613
1.60213
1.61403
1.63493
1.66508
1.70686
1.76288
1.83808
1.93947
2.08268
2.29091
2.5797
2.98027
3.55278
4.41526
5.78701
8.09178
12.172
19.7564
35.753
83.6368
335.54
2412.75
1.73166
1.75532
1.78112
1.80866
1.83828
1.87003
1.70982
1.68981
1.6711
1.65425
1.63851
1.62508
1.61275
1.60375
1.59625
1.59378
1.5958
1.60177
1.61362
1.63439
1.66398
1.70424
1.75647
1.82341
1.90858
2.01949
2.16943
2.38215
2.67282
3.07346
3.65044
4.51346
5.86563
8.13347
12.156
19.6784
35.75
84.6315
344.153
2474.16
1.70982
1.73194
1.75584
1.78155
1.809
1.8385
1.87011
1.68979
1.67108
1.6542
1.63847
1.62499
1.61264
1.6036
1.59603
1.59355
1.59555
1.60156
1.61353
1.63458
1.66444
1.70473
1.75614
1.82064
1.89949
1.99625
2.11591
2.27282
2.48811
2.77952
3.19003
3.77527
4.62526
5.9553
8.18497
12.1451
19.6
35.73
85.4591
352.25
2532.44
1.68977
1.71015
1.73253
1.75638
1.78199
1.80934
1.83872
1.87019
1.67107
1.65416
1.63843
1.62491
1.61255
1.60347
1.59585
1.59335
1.59536
1.60143
1.61357
1.63507
1.66566
1.70696
1.75921
1.82395
1.90131
1.99347
2.10193
2.23214
2.39368
2.61075
2.91401
3.3367
3.91413
4.74976
6.05486
8.24453
12.1456
19.5264
35.6869
86.1984
359.803
2587.55
1.67106
1.69012
1.71083
1.73314
1.75693
1.78244
1.8097
1.83895
1.87027
1.65412
1.63841
1.62483
1.61248
1.60335
1.59569
1.59319
1.5952
1.60134
1.61367
1.63564
1.66711
1.70995
1.7641
1.83093
1.90993
2.00228
2.10736
2.22831
2.36764
2.53503
2.76637
3.08537
3.50132
4.06713
4.88503
6.16309
8.31184
12.1502
19.4582
35.6286
86.8439
367.034
2640.33
1.65408
1.67145
1.69084
1.71153
1.73377
1.75749
1.78291
1.81007
1.83918
1.87036
1.63839
1.62476
1.61243
1.60323
1.59555
1.59306
1.59507
1.60127
1.6138
1.63622
1.66858
1.71305
1.76972
1.83993
1.92245
2.01837
2.12562
2.24544
2.37667
2.52505
2.71429
2.96665
3.27936
3.68397
4.23309
5.02975
6.27865
8.38557
12.1606
19.3976
35.5656
87.4538
373.835
2690.28
1.63837
1.65446
1.67225
1.69159
1.71225
1.73441
1.75807
1.78339
1.81044
1.83942
1.87045
1.62469
1.61239
1.60312
1.59544
1.59294
1.59496
1.60123
1.61394
1.63678
1.67001
1.71605
1.77532
1.84971
1.9373
2.03888
2.15184
2.27645
2.40894
2.55163
2.72507
2.94275
3.19509
3.49649
3.88309
4.41089
5.18262
6.40035
8.46436
12.1791
19.3444
35.5065
88.0053
380.398
2738.25
1.62463
1.63878
1.65527
1.67307
1.69236
1.71299
1.73508
1.75867
1.78388
1.81083
1.83966
1.87054
1.61235
1.60301
1.59536
1.59284
1.59486
1.6012
1.61409
1.63732
1.67137
1.71888
1.78069
1.85932
1.95305
2.06239
2.18338
2.31667
2.45655
2.60359
2.77636
2.98495
3.20186
3.44686
3.73534
4.09836
4.59956
5.34239
6.52668
8.54737
12.203
19.2991
35.4518
88.5457
386.57
2783.45
1.61233
1.62499
1.63964
1.65609
1.67391
1.69315
1.71375
1.73576
1.75928
1.78439
1.81122
1.83992
1.87063
1.60291
1.5953
1.59275
1.59478
1.60118
1.61422
1.63781
1.67264
1.72152
1.78576
1.86848
1.96845
2.08723
2.21898
2.3638
2.51536
2.67342
2.85593
3.07157
3.28477
3.49347
3.72117
3.99131
4.32809
4.79722
5.5073
6.6564
8.63353
12.2316
19.2608
35.4047
89.043
392.549
2826.89
1.60282
1.61272
1.62579
1.64053
1.65695
1.67478
1.69397
1.71452
1.73647
1.7599
1.78491
1.81163
1.84018
1.87073
1.59525
1.59266
1.59471
1.60116
1.61435
1.63827
1.67381
1.72396
1.79051
1.87711
1.98318
2.11166
2.25657
2.41689
2.58356
2.75776
2.95754
3.19199
3.41667
3.62603
3.8169
4.01783
4.26092
4.56948
5.00225
5.6765
6.78832
8.72189
12.264
19.2298
35.3653
89.539
398.144
2867.58
1.59524
1.60306
1.61354
1.6266
1.64144
1.65784
1.67568
1.69481
1.71532
1.73719
1.76055
1.78545
1.81204
1.84043
1.87081
1.59256
1.59463
1.60114
1.61447
1.6387
1.67489
1.72621
1.79494
1.88517
1.99718
2.13521
2.29369
2.47351
2.66082
2.85566
3.07913
3.34204
3.59104
3.81534
4.00969
4.17129
4.33582
4.54264
4.81959
5.21388
5.84857
6.92145
8.81155
12.2997
19.2049
35.3336
89.9991
403.582
2906.7
1.59247
1.59551
1.60366
1.61437
1.62745
1.64238
1.65876
1.67659
1.69568
1.71614
1.73794
1.76121
1.786
1.81245
1.84069
1.8709
1.59455
1.60112
1.61459
1.63909
1.67589
1.72827
1.79904
1.89265
2.01039
2.15766
2.32971
2.53028
2.74404
2.96771
3.22132
3.52239
3.80738
4.0606
4.2713
4.43676
4.55569
4.67297
4.83487
5.0734
5.4294
6.0221
7.05466
8.90169
12.3378
19.1864
35.3095
90.4614
408.632
2943.08
1.59451
1.59241
1.59607
1.60425
1.61525
1.62834
1.64336
1.65971
1.67754
1.69658
1.71699
1.73871
1.76188
1.78654
1.81285
1.84093
1.87098
1.60109
1.61468
1.63945
1.67679
1.73016
1.80281
1.89957
2.02279
2.17889
2.36441
2.58621
2.82825
3.09029
3.38685
3.73731
4.07154
4.36812
4.61019
4.78965
4.90866
4.96906
5.02712
5.13651
5.32971
5.64648
6.19544
7.18705
8.99158
12.3778
19.1723
35.2912
90.8915
413.56
2978.11
1.6011
1.59431
1.59232
1.59665
1.60489
1.61616
1.62928
1.64435
1.6607
1.67851
1.6975
1.71785
1.73949
1.76255
1.78707
1.81323
1.84116
1.87106
1.61476
1.63977
1.67762
1.73189
1.80627
1.90594
2.03437
2.19881
2.39766
2.64071
2.91178
3.21693
3.5724
3.99442
4.39534
4.75441
5.04572
5.25395
5.37756
5.42743
5.41048
5.39627
5.44525
5.58721
5.86372
6.36797
7.31806
9.08063
12.419
19.1637
35.2805
91.3234
418.091
3010.45
1.6149
1.60066
1.59388
1.59218
1.59729
1.60559
1.61711
1.63025
1.64538
1.66172
1.6795
1.69846
1.71873
1.74027
1.7632
1.78759
1.81361
1.84139
1.87114
1.64005
1.67835
1.73346
1.80944
1.91182
2.04513
2.21743
2.42934
2.69326
2.99392
3.3459
3.76882
4.29152
4.79771
5.24877
5.61645
5.87291
6.01131
6.04403
5.99557
5.8791
5.77851
5.75901
5.84439
6.07857
6.53913
7.44701
9.16834
12.4611
19.1578
35.2728
91.7249
422.544
3041.67
1.6404
1.61405
1.59956
1.59338
1.59212
1.59797
1.60635
1.61808
1.63128
1.64643
1.66277
1.68052
1.69943
1.71961
1.74103
1.76383
1.78809
1.81397
1.84162
1.87122
1.67901
1.73488
1.81232
1.91721
2.05508
2.23476
2.45938
2.74347
3.07431
3.47621
3.97224
4.61577
5.28616
5.89858
6.38741
6.72389
6.89103
6.90395
6.7981
6.61523
6.37395
6.17196
6.07589
6.10037
6.28874
6.70748
7.57327
9.25427
12.5034
19.1567
35.2729
92.1271
426.598
3066.76
1.67973
1.63893
1.61182
1.59835
1.59298
1.59217
1.59867
1.60718
1.61907
1.63235
1.64751
1.66387
1.68156
1.7004
1.72046
1.74177
1.76444
1.78857
1.81433
1.84184
1.87129
1.73617
1.81494
1.92215
2.06427
2.25088
2.48771
2.79115
3.15271
3.60647
4.17981
4.96442
5.85194
6.73769
7.45606
7.92629
8.14863
8.13914
7.94994
7.64612
7.28714
6.89352
6.57466
6.39413
6.35428
6.49383
6.87201
7.69628
9.33806
12.5457
19.1578
35.2749
92.4981
430.069
3087.96
1.73749
1.6775
1.63492
1.60944
1.59727
1.59268
1.59235
1.59937
1.60809
1.62008
1.63347
1.64863
1.66498
1.6826
1.70135
1.72129
1.74248
1.76504
1.78905
1.81467
1.84205
1.87137
1.81733
1.92667
2.07271
2.26585
2.51431
2.83626
3.22887
3.73512
4.38965
5.33865
6.49847
7.75836
8.88694
9.63948
9.96824
9.94543
9.64222
9.15811
8.5894
8.00969
7.4355
6.98454
6.71217
6.6048
6.69338
7.03197
7.81558
9.41939
12.5877
19.1605
35.2794
92.8186
432.912
3110.91
1.81968
1.73427
1.67106
1.63064
1.60728
1.59631
1.59244
1.59273
1.60006
1.60908
1.62113
1.63463
1.64977
1.6661
1.68362
1.70226
1.7221
1.74318
1.76562
1.78951
1.81501
1.84225
1.87144
1.93084
2.08047
2.27972
2.53922
2.87883
3.30253
3.86081
4.60128
5.73993
7.22735
8.956
10.6497
11.9515
12.5777
12.5778
12.1397
11.4057
10.5259
9.62331
8.77858
7.9967
7.39936
7.02845
6.85084
6.887
7.18681
7.93082
9.49803
12.629
19.1656
35.2868
93.0806
436.04
3136.05
1.93482
1.81524
1.72437
1.66429
1.62664
1.60529
1.59543
1.59213
1.59328
1.60077
1.61014
1.62221
1.63582
1.65091
1.66718
1.6846
1.70316
1.72289
1.74386
1.76618
1.78995
1.81533
1.84245
1.87147
2.08768
2.29257
2.56246
2.91897
3.37338
3.9827
4.81522
6.16822
8.0332
10.317
12.7159
14.7913
16.0923
16.3491
15.7798
14.7288
13.4172
12.0404
10.7379
9.58721
8.57311
7.81671
7.34155
7.09149
7.07433
7.33612
8.04172
9.57381
12.6694
19.1715
35.2932
93.3815
439.395
3163.42
2.09435
1.92881
1.80041
1.71408
1.65795
1.62291
1.60343
1.59462
1.59182
1.59396
1.60151
1.61125
1.62333
1.63702
1.65202
1.66824
1.68557
1.70402
1.72366
1.74452
1.76673
1.79039
1.81565
1.84255
1.87147
2.30464
2.58414
2.95677
3.44118
4.10045
5.03233
6.62137
8.90551
11.8181
15.0499
18.1035
20.3964
21.4225
20.9913
19.5685
17.6897
15.6516
13.6815
11.9195
10.4273
9.16012
8.23412
7.65011
7.32597
7.25505
7.47965
8.14813
9.64655
12.7036
19.1772
35.3034
93.6993
443.134
3193.57
2.31555
2.0865
1.90694
1.78519
1.70442
1.65197
1.61939
1.60171
1.59389
1.59157
1.59473
1.6023
1.6124
1.62447
1.63818
1.65311
1.66927
1.68651
1.70487
1.7244
1.74516
1.76727
1.79081
1.81581
1.84255
1.87147
2.60458
2.99242
3.5058
4.21415
5.25325
7.09542
9.83115
13.4326
17.6068
21.827
25.4054
27.6371
28.0151
26.5092
23.9155
20.9853
18.0764
15.4252
13.1525
11.2895
9.75289
8.64913
7.95287
7.55359
7.42896
7.61725
8.24992
9.70707
12.7331
19.1846
35.3143
94.0709
447.141
3226.45
2.62265
2.30523
2.05456
1.88478
1.77089
1.69526
1.64626
1.61607
1.60012
1.59323
1.59143
1.59555
1.60316
1.61355
1.62559
1.63931
1.65419
1.67026
1.68742
1.70569
1.72513
1.74578
1.76778
1.79102
1.81581
1.84255
1.87147
3.02627
3.56736
4.32432
5.47815
7.58509
10.7962
15.1327
20.3389
25.8878
31.0237
34.8712
36.6411
35.9013
32.8769
28.7744
24.5699
20.6552
17.2462
14.4209
12.1647
10.3466
9.05937
8.24864
7.77384
7.5959
7.74873
8.33461
9.75888
12.7661
19.1937
35.3315
94.4633
451.626
3262.77
3.05583
2.60933
2.25868
2.02264
1.86397
1.75728
1.68647
1.64081
1.61295
1.59865
1.59269
1.5914
1.5964
1.60408
1.61466
1.62671
1.64041
1.65524
1.67124
1.68831
1.70649
1.72583
1.74638
1.76804
1.79102
1.81581
1.84255
1.87147
3.62629
4.43175
5.70678
8.08438
11.7866
16.8919
23.1989
30.2068
37.1319
42.9771
46.6975
47.4807
45.0674
40.0401
34.0843
28.3928
23.3509
19.1196
15.7091
13.0439
10.9366
9.46259
8.53645
7.98631
7.7558
7.85703
8.40707
9.81614
12.803
19.2055
35.3505
94.9266
456.437
3302.34
3.67733
3.03824
2.5414
2.2129
1.99271
1.84413
1.74418
1.67801
1.6356
1.61002
1.59731
1.59225
1.59149
1.59725
1.60505
1.61574
1.62782
1.64148
1.65626
1.67218
1.68918
1.70726
1.72652
1.74668
1.76804
1.79102
1.81581
1.84255
1.87147
4.53705
5.93655
8.5872
12.789
18.6844
26.141
34.7052
43.6008
51.7653
57.9606
61.0101
60.1646
55.4535
47.9187
39.7744
32.4008
26.1274
21.0221
17.0031
13.919
11.5188
9.85689
8.81544
8.19065
7.88866
7.94917
8.48707
9.87956
12.8444
19.2198
35.3791
95.415
461.864
3346.18
4.62951
3.65465
2.93752
2.47572
2.17004
1.96414
1.82499
1.73152
1.66989
1.63064
1.60729
1.5961
1.59194
1.59175
1.59804
1.60604
1.61679
1.62891
1.64252
1.65726
1.6731
1.69003
1.70802
1.72686
1.74668
1.76804
1.79102
1.81581
1.84255
1.87143
6.16475
9.0893
13.7915
20.4864
29.1221
39.3075
50.3019
61.0289
70.1369
76.1605
77.8506
74.6329
66.9558
56.4121
45.7673
36.5408
28.9507
22.9332
18.2905
14.783
12.0896
10.2406
9.08487
8.36082
8.00228
8.05037
8.57547
9.9499
12.8909
19.2383
35.4106
95.9815
467.697
3393.83
4.59937
6.36621
3.50019
2.84246
2.41433
2.12909
1.93654
1.80648
1.71932
1.6621
1.62593
1.60481
1.59504
1.59172
1.59226
1.5988
1.60706
1.61782
1.62999
1.64353
1.65824
1.67399
1.69085
1.70839
1.72686
1.74668
1.76804
1.79102
1.81581
1.84245
1.87136
9.58586
14.7833
22.2768
32.1026
43.9441
57.1149
70.5643
82.9045
92.4919
97.6594
97.1684
90.7586
79.4334
65.4047
51.9825
40.7621
31.7903
24.8346
19.5607
15.6299
12.6459
10.6122
9.31003
8.50658
8.12772
8.1617
8.67327
10.0281
12.9435
19.2606
35.4563
96.5631
474.326
3446.75
4.34494
6.33739
10.0241
3.35952
2.75392
2.35568
2.08954
1.90982
1.7886
1.7076
1.65466
1.62144
1.60256
1.59411
1.59141
1.5929
1.59954
1.60808
1.61883
1.63104
1.64452
1.65919
1.67487
1.69126
1.70839
1.72686
1.74668
1.76804
1.79102
1.81565
1.84225
1.87129
15.7537
24.0373
35.0486
48.5534
63.9328
80.1869
95.9513
109.52
118.956
122.427
118.819
108.355
92.7159
74.7725
58.3412
45.0177
34.6189
26.7106
20.805
16.455
13.1852
10.9235
9.5033
8.66781
8.26643
8.28438
8.7816
10.1151
13.003
19.2892
35.5063
97.2486
481.457
3504.04
4.1214
5.8886
10.0146
16.6116
3.22998
2.66939
2.29907
2.05127
1.88402
1.77139
1.69635
1.64756
1.61724
1.60057
1.59334
1.59117
1.59361
1.60029
1.60909
1.61982
1.63207
1.64549
1.66013
1.6753
1.69126
1.70839
1.72686
1.74668
1.76804
1.7908
1.81533
1.84204
1.87122
25.75
37.9315
53.0848
70.6653
89.7397
109.003
126.782
141.038
149.527
150.314
142.573
127.183
106.614
84.3898
64.7687
49.265
37.4126
28.5485
22.0163
17.2544
13.637
11.191
9.71753
8.84642
8.42003
8.41982
8.90174
10.2123
13.0706
19.3234
35.5761
97.9545
489.634
3567.87
3.91983
5.49659
9.19773
16.666
27.2732
3.10699
2.58792
2.24436
2.01432
1.85917
1.75487
1.68562
1.64089
1.61346
1.59889
1.59269
1.59103
1.59435
1.60105
1.61009
1.62079
1.63308
1.64645
1.66059
1.67529
1.69126
1.70839
1.72686
1.74668
1.76778
1.79038
1.815
1.84183
1.87114
40.7246
57.4976
77.2424
99.0976
121.839
143.881
163.234
177.482
184.068
181.061
168.121
146.971
120.931
94.1358
71.1962
53.4664
40.1522
30.3379
23.1892
17.9235
14.0254
11.4879
9.95535
9.04464
8.59041
8.56962
9.03516
10.3208
13.1474
19.3669
35.6532
98.8008
498.43
3636.48
3.73186
5.14429
8.4676
15.2986
27.4908
43.2171
2.98896
2.50937
2.19163
1.97875
1.83531
1.73907
1.67548
1.63481
1.61017
1.59744
1.59218
1.591
1.5951
1.60182
1.61106
1.62176
1.63408
1.64691
1.66058
1.67529
1.69126
1.70839
1.72686
1.74638
1.76726
1.78994
1.81466
1.84161
1.87106
61.754
83.6113
108.171
134.293
160.513
184.984
205.349
218.744
222.315
214.301
195.094
167.424
135.472
103.897
77.5625
57.5908
42.8215
32.0707
24.1704
18.4983
14.4563
11.8177
10.2198
9.26496
8.7797
8.73564
9.18355
10.4423
13.2354
19.4189
35.7579
99.679
508.627
3713.2
3.55448
4.81811
7.80392
14.031
25.3958
43.7398
65.5553
2.87558
2.43382
2.14094
1.94463
1.81249
1.72413
1.66621
1.62941
1.60729
1.5962
1.5918
1.59108
1.59583
1.60262
1.61203
1.62274
1.63457
1.64689
1.66058
1.67529
1.69126
1.70839
1.72651
1.74577
1.76672
1.78949
1.81432
1.84139
1.87098
89.7229
116.897
146.258
176.468
205.876
232.346
253.048
264.585
263.874
249.576
223.084
188.247
150.055
113.573
83.8161
61.6121
45.4076
33.5205
25.013
19.1357
14.935
12.1847
10.5142
9.51027
8.99036
8.92
9.34887
10.5788
13.3357
19.4847
35.8752
100.748
519.547
3794.76
3.38682
4.51341
7.18556
12.8426
23.4198
40.7396
66.5593
95.171
2.76686
2.36141
2.0924
1.91204
1.79091
1.71044
1.65791
1.62462
1.60477
1.59516
1.59155
1.59127
1.59653
1.60345
1.61301
1.62321
1.63455
1.64689
1.66058
1.67529
1.69126
1.70801
1.72582
1.74514
1.76616
1.78903
1.81396
1.84116
1.8709
125.219
157.673
191.63
225.65
257.917
285.903
306.14
314.632
308.232
286.359
251.666
209.156
164.513
123.077
89.9142
65.5094
47.5722
34.7655
25.9468
19.843
15.4672
12.5935
10.8425
9.78383
9.2252
9.12518
9.53332
10.7321
13.4514
19.5634
36.0308
101.874
532.41
3902.14
3.22854
4.22943
6.60523
11.7138
21.5297
37.8824
62.4866
96.8417
132.603
2.6629
2.29231
2.0461
1.88125
1.77111
1.69814
1.65048
1.62035
1.60258
1.59428
1.59136
1.59161
1.59723
1.60436
1.61348
1.62316
1.63455
1.64689
1.66058
1.6753
1.69085
1.70725
1.72511
1.74449
1.7656
1.78855
1.8136
1.84092
1.87081
168.476
205.949
244.192
281.743
316.555
345.518
364.33
368.383
354.775
324.085
280.423
229.888
178.703
132.337
95.822
68.7716
49.4314
36.1455
26.9829
20.629
16.0597
13.0494
11.209
10.0894
9.48741
9.354
9.73962
10.9051
13.5839
19.6623
36.2094
103.254
548.466
4033.09
3.07924
3.96633
6.06284
10.6376
19.6973
35.1125
58.6023
91.5385
135.099
177.984
2.56388
2.22665
2.00246
1.85304
1.75333
1.68711
1.64383
1.61655
1.60072
1.59352
1.59115
1.59211
1.59803
1.60478
1.61341
1.62316
1.63455
1.64689
1.66059
1.67486
1.69001
1.70646
1.72438
1.74383
1.76501
1.78807
1.81322
1.84068
1.87072
219.377
261.49
303.725
344.602
381.687
411.009
427.214
425.213
402.813
362.175
308.96
250.219
192.509
141.297
100.763
71.573
51.4922
37.6765
28.1336
21.503
16.7197
13.5583
11.6187
10.4311
9.78065
9.60972
9.9704
11.0999
13.7378
19.7808
36.4403
105.029
569.907
4166.43
2.93817
3.72473
5.56014
9.61693
17.9111
32.3886
54.809
86.5136
128.402
181.395
231.048
2.47009
2.16495
1.96255
1.82772
1.73735
1.6772
1.63788
1.61315
1.59911
1.59288
1.59102
1.59282
1.59835
1.60469
1.6134
1.62316
1.63454
1.64691
1.66012
1.67398
1.68916
1.70566
1.72363
1.74315
1.76442
1.78757
1.81284
1.84043
1.87063
277.524
323.921
369.979
414.122
453.258
482.17
494.285
484.384
451.607
400.07
336.938
269.964
205.836
148.777
105.003
74.6773
53.7785
39.3768
29.4126
22.4755
17.4555
14.1267
12.0769
10.8136
10.109
9.89606
10.23
11.3218
13.9156
19.9293
36.7637
107.433
593.18
4301.1
2.80481
3.50697
5.09814
8.66095
16.172
29.6906
51.0459
81.602
122.149
173.103
235.348
291.212
2.38238
2.10872
1.9268
1.80499
1.72301
1.66832
1.63255
1.61012
1.59772
1.59243
1.59121
1.59312
1.59816
1.60469
1.6134
1.62316
1.63456
1.64644
1.65917
1.67307
1.68828
1.70484
1.72286
1.74246
1.7638
1.78706
1.81244
1.84018
1.87054
342.375
392.862
442.819
490.403
531.372
558.794
564.924
545.058
500.41
437.269
364.071
288.973
216.932
155.186
109.697
78.1195
56.3171
41.2664
30.8353
23.5585
18.2761
14.7618
12.5899
11.2423
10.4772
10.2171
10.5198
11.5744
14.1242
20.1416
37.2413
110.219
618.97
4435.26
2.68011
3.30884
4.67638
7.77273
14.4873
27.0152
47.2771
76.7145
116.074
165.54
225.187
296.228
357.727
2.30289
2.05851
1.8948
1.78459
1.71013
1.66034
1.62776
1.60743
1.59663
1.59238
1.59116
1.59294
1.59814
1.60469
1.61341
1.6232
1.63407
1.64547
1.65821
1.67215
1.68739
1.70399
1.72207
1.74174
1.76318
1.78653
1.81204
1.83992
1.87045
413.395
468.096
522.418
573.863
616.323
640.658
638.369
606.326
548.521
473.349
390.133
304.747
226.418
162.266
114.894
81.9384
59.1373
43.3677
32.4186
24.7649
19.1916
15.4716
13.1641
11.7228
10.8901
10.5782
10.8435
11.8627
14.4112
20.4531
37.8305
113.443
646.761
4568.18
2.56709
3.12855
4.29651
6.9537
12.8741
24.3708
43.4872
71.7914
110.049
158.289
216.205
283.802
363.114
429.869
2.23233
2.01367
1.86614
1.76629
1.69857
1.65316
1.62346
1.60523
1.59614
1.59219
1.59078
1.59296
1.59814
1.60468
1.61347
1.62273
1.63305
1.6445
1.65723
1.6712
1.68647
1.70312
1.72126
1.74101
1.76253
1.78599
1.81162
1.83966
1.87036
490.243
549.763
609.372
665.271
708.522
727.389
713.689
667.276
595.325
507.968
411.691
318.197
236.868
170.088
120.65
86.1763
62.2718
45.7056
34.1813
26.109
20.2126
16.2647
13.8067
12.2613
11.3533
10.9848
11.2067
12.2509
14.8008
20.8307
38.5564
117.172
677.64
4697.82
2.46688
2.96783
3.96016
6.20967
11.3506
21.7747
39.6769
66.7955
103.984
151.179
207.77
273.225
347.843
435.13
507.15
2.16969
1.97363
1.84047
1.74987
1.68815
1.64668
1.61982
1.60393
1.59566
1.59171
1.59075
1.59296
1.59816
1.60477
1.613
1.62174
1.63204
1.6435
1.65622
1.67023
1.68553
1.70223
1.72044
1.74025
1.76187
1.78544
1.81121
1.83941
1.87027
573.012
638.622
704.988
765.918
808.406
818.368
789.84
727.053
640.312
536.546
430.025
332.966
248.372
178.724
127.023
90.8789
65.7558
48.3069
36.1439
27.6062
21.3511
17.1502
14.5253
12.8642
11.8728
11.4417
11.69
12.7552
15.2446
21.2922
39.4423
121.496
710.906
4823.3
2.37828
2.8257
3.67293
5.54952
9.93584
19.2502
35.858
61.7081
97.8077
144.076
199.661
263.568
335.398
416.163
511.692
589.61
2.11402
1.93788
1.81749
1.73509
1.67874
1.64113
1.61743
1.60295
1.59502
1.5917
1.59075
1.59294
1.59834
1.60434
1.612
1.62076
1.631
1.64248
1.65519
1.66923
1.68457
1.70132
1.71959
1.73948
1.7612
1.7849
1.81082
1.83917
1.87019
662.572
736.434
811.663
877.685
916.334
912.765
865.773
784.913
677.476
560.807
450.094
349.16
261.021
188.249
134.074
96.0954
69.6275
51.2008
38.3285
29.2734
22.6193
18.1375
15.3274
13.5383
12.454
12.05
12.3062
13.308
15.752
21.843
40.5345
126.513
748.026
4942.26
2.30008
2.69907
3.4363
4.98672
8.66048
16.824
32.0526
56.5231
91.4708
136.871
191.695
254.548
324.42
401.457
487.794
592.801
678.243
2.06451
1.90596
1.79684
1.72175
1.6706
1.63727
1.6158
1.60204
1.59502
1.5917
1.59077
1.59311
1.59801
1.60342
1.61103
1.61978
1.62994
1.64143
1.65415
1.6682
1.68359
1.70038
1.71872
1.7387
1.76053
1.78437
1.81043
1.83894
1.87011
761.014
846.652
933.242
1002.98
1032.53
1009.75
940.484
832.992
709.027
587.302
472.013
366.88
274.903
198.741
141.867
101.877
73.9272
54.4184
40.7586
31.1279
24.0302
19.2365
16.2212
14.2893
13.2242
12.8186
12.9702
13.912
16.3229
22.5126
41.8647
132.369
788.031
5053.72
2.23109
2.58631
3.2373
4.51827
7.55543
14.54
28.2926
51.2468
84.9326
129.471
183.718
245.923
314.541
388.967
470.31
562.22
679.629
775.725
2.02047
1.87739
1.77823
1.71017
1.66475
1.63477
1.61461
1.60204
1.59501
1.5917
1.59114
1.59279
1.5972
1.60258
1.61004
1.61878
1.62886
1.64037
1.65308
1.66715
1.68258
1.69942
1.71784
1.73792
1.75988
1.78386
1.81005
1.83871
1.87003
872.71
975.338
1075.58
1144.69
1157.88
1108.25
1003.49
873.957
743.482
616.161
495.888
386.217
290.1
210.273
150.465
108.276
78.6967
57.9921
43.4587
33.188
25.5968
20.4569
17.213
15.2797
14.1885
13.6361
13.6804
14.5641
16.9707
23.3045
43.5108
139.18
832.945
5155.42
2.17018
2.48627
3.06658
4.13158
6.62544
12.4899
24.6456
45.9013
78.164
121.787
175.587
237.493
305.45
378.221
456.027
541.368
639.783
775.527
887.692
1.98118
1.85174
1.76205
1.70165
1.66104
1.6332
1.61462
1.60204
1.59501
1.59216
1.59118
1.59207
1.59649
1.60178
1.60904
1.61777
1.62777
1.63927
1.65199
1.66608
1.68156
1.69845
1.71697
1.73717
1.75925
1.78337
1.80968
1.83849
1.86995
1005.66
1133.18
1246.89
1310.09
1292.32
1193.48
1057.67
918.869
781.012
647.498
521.804
407.248
306.687
222.914
159.93
115.344
83.978
61.9547
46.4536
35.472
27.3324
21.807
18.5155
16.5099
15.2038
14.4964
14.4317
15.2677
17.692
24.2622
45.5013
147.246
881.308
5246.51
2.11623
2.39794
2.91756
3.8135
5.85277
10.7178
21.2543
40.5638
71.1521
113.732
167.155
229.063
296.896
368.81
444.334
524.923
614.97
722.461
887.656
1026.29
1.94603
1.82943
1.74987
1.69639
1.65899
1.63324
1.61461
1.60202
1.59563
1.59235
1.59098
1.59157
1.59578
1.601
1.60802
1.61675
1.62667
1.63814
1.65088
1.66497
1.68051
1.69748
1.71612
1.73644
1.75864
1.78289
1.80933
1.83828
1.86987
1175.93
1338.06
1471.73
1504.03
1412.74
1267.82
1117.72
968.061
821.797
681.415
549.829
430.029
324.719
236.721
170.316
123.13
89.8111
66.338
49.7676
37.9975
29.248
23.5742
20.1232
17.7947
16.2603
15.3911
15.2207
16.0157
18.5062
25.3801
47.9715
156.624
936.009
5325.52
2.06826
2.3201
2.78568
3.55453
5.21737
9.21455
18.2105
35.435
63.9561
105.23
158.264
220.429
288.638
360.427
434.683
512.131
595.938
693.054
815.798
1033.05
1215.8
1.91547
1.81241
1.74245
1.69377
1.65906
1.63323
1.61458
1.60291
1.5961
1.59239
1.59111
1.59122
1.59504
1.60023
1.607
1.6157
1.62555
1.63699
1.64975
1.66385
1.67948
1.69655
1.71529
1.73573
1.75804
1.78242
1.80898
1.83807
1.8698
1418.78
1650.54
1766.7
1682.32
1519.27
1351.51
1184.49
1022.05
866.082
718.025
580.014
454.593
344.231
251.736
181.667
131.675
96.2324
71.1713
53.4231
40.7798
31.7494
25.7455
21.7923
19.121
17.347
16.3125
16.04
16.8133
19.4027
26.7243
50.9095
167.959
994.59
5391.8
2.02663
2.25152
2.6682
3.34161
4.69755
7.9583
15.5204
30.671
56.8165
96.2817
148.748
211.357
280.42
352.783
426.697
502.246
581.823
670.997
780.704
932.759
1257.45
1522.93
1.89176
1.80226
1.73909
1.69388
1.65905
1.63317
1.61575
1.60389
1.59659
1.59285
1.59132
1.59103
1.59429
1.59949
1.60599
1.61462
1.62444
1.63581
1.64861
1.66275
1.67847
1.69565
1.71449
1.73505
1.75746
1.78197
1.80865
1.83787
1.86972
1849.85
2093.24
2032.35
1840.82
1642.21
1447.06
1259.84
1081.76
914.29
757.484
612.404
480.947
365.23
267.978
194.011
141.009
103.271
76.4792
57.4376
44.4043
34.8119
27.9908
23.5066
20.4753
18.4531
17.2516
16.8879
17.6533
20.4126
28.2687
54.5519
181.076
1061.37
5442.2
1.99401
2.19254
2.56361
3.16205
4.27514
6.91815
13.1857
26.3149
49.9517
87.1218
138.509
201.585
271.95
345.589
420.037
494.793
571.641
655.238
755.233
890.073
1105.6
1704.42
2175.22
1.87774
1.79806
1.73927
1.69388
1.65896
1.63471
1.61739
1.60519
1.59769
1.59348
1.5915
1.59095
1.59355
1.59874
1.60499
1.61351
1.62331
1.63461
1.64749
1.66169
1.6775
1.69478
1.71371
1.73439
1.7569
1.78153
1.80832
1.83767
1.86969
2531.06
2519.85
2290.75