/*--------------------------------*- C++ -*----------------------------------*\
  =========                 |
  \\      /  F ield         | OpenFOAM: The Open Source CFD Toolbox
   \\    /   O peration     | Website:  https://openfoam.org
    \\  /    A nd           | Version:  8
     \\/     M anipulation  |
\*---------------------------------------------------------------------------*/
FoamFile
{
    version     2.0;
    format      ascii;
    class       volScalarField;
    location    "0.43";
    object      nut;
}
// * * * * * * * * * * * * * * * * * * * * * * * * * * * * * * * * * * * * * //

dimensions      [0 2 -1 0 0 0 0];

internalField   nonuniform List<scalar> 
15677
(
0.000168257
0.000653012
0.000148416
0.00151367
0.000442433
0.000141502
0.00267539
0.000875739
0.000381144
0.000142367
0.00392118
0.00151879
0.000686615
0.000354243
0.000145441
0.0050242
0.00235592
0.00114631
0.000585638
0.000340265
0.000151189
0.00584076
0.00331709
0.00178061
0.000947753
0.000529347
0.000332038
0.000156984
0.00633513
0.00429836
0.00256738
0.00146324
0.000821004
0.000492575
0.000327024
0.000162435
0.00656293
0.00518742
0.00345257
0.00213145
0.00125728
0.000737412
0.000467564
0.000324161
0.000167228
0.00665851
0.00589329
0.00435501
0.00292193
0.00184156
0.00111256
0.000677607
0.000450575
0.000322606
0.000171468
0.00670553
0.0063382
0.00518058
0.00377877
0.00255695
0.0016321
0.00100497
0.000634375
0.000438838
0.000322056
0.000175053
0.00671441
0.00655344
0.00584516
0.0046251
0.00336272
0.00228686
0.00147317
0.000924696
0.000602467
0.000430901
0.000322017
0.000178208
0.00670992
0.0066615
0.00629558
0.00537702
0.00419694
0.00304571
0.00207843
0.00134975
0.000862733
0.000578845
0.000425442
0.000322503
0.000180839
0.00670627
0.00669875
0.00652959
0.00596441
0.00498424
0.00385779
0.00279648
0.00191271
0.00125202
0.000814619
0.000561089
0.000421948
0.000323157
0.000183206
0.00670537
0.00670439
0.00664681
0.00635687
0.00565018
0.00465639
0.00358419
0.00259478
0.00177891
0.00117385
0.000776792
0.000547888
0.000419607
0.000324079
0.000185268
0.00670541
0.0067029
0.00668787
0.0065629
0.00614223
0.005369
0.00438223
0.00335837
0.00242929
0.00166932
0.00111039
0.000746981
0.000537786
0.000418372
0.000324935
0.000187095
0.00670554
0.0067017
0.00669636
0.00665655
0.00644697
0.00593411
0.00512197
0.00415017
0.00317013
0.00229154
0.00157898
0.00105866
0.000723249
0.000530493
0.000417491
0.000325994
0.000188765
0.00670561
0.00670127
0.00669708
0.00668493
0.00660498
0.00632208
0.00573837
0.00490542
0.00395281
0.00301129
0.00217641
0.00150385
0.00101664
0.000704724
0.000524757
0.000417363
0.000326938
0.000190193
0.00670561
0.0067012
0.00669665
0.00669171
0.00666379
0.00654146
0.00618901
0.00555834
0.00471634
0.00378365
0.00287686
0.00207948
0.00144155
0.000982509
0.000689803
0.00052087
0.000417295
0.000328029
0.00019163
0.00670559
0.00670124
0.00669632
0.00669281
0.00668232
0.00663469
0.00646836
0.00605908
0.00539562
0.00455094
0.00363858
0.0027625
0.00199808
0.00138996
0.000954576
0.000678405
0.000517748
0.000417814
0.000329012
0.000192759
0.00670557
0.0067013
0.00669614
0.00669281
0.00668725
0.00666926
0.00659841
0.00639023
0.00593648
0.00524924
0.00440676
0.00351382
0.00266551
0.00192989
0.00134727
0.000932252
0.000669231
0.000515995
0.000418223
0.000330095
0.000194092
0.00670555
0.00670134
0.00669604
0.00669274
0.00668813
0.00668096
0.00665166
0.00655668
0.00631221
0.00582177
0.00511895
0.0042811
0.0034071
0.00258353
0.00187307
0.0013125
0.000914237
0.000662627
0.00051454
0.000419137
0.000331127
0.000194991
0.00670554
0.00670137
0.00669597
0.00669273
0.00668804
0.00668441
0.00667183
0.00663075
0.00651216
0.00623463
0.00571694
0.00500335
0.00417258
0.00331618
0.00251489
0.00182641
0.00128431
0.000900364
0.000657397
0.000514219
0.000419849
0.000332176
0.000196311
0.00670554
0.00670138
0.00669593
0.00669275
0.00668784
0.00668527
0.00667857
0.00666175
0.0066067
0.00646622
0.00616201
0.00562179
0.00490246
0.00407935
0.00323974
0.00245819
0.00178851
0.00126223
0.00088968
0.000654243
0.000513891
0.00042103
0.00033332
0.000197043
0.00670554
0.00670138
0.0066959
0.00669277
0.00668769
0.00668543
0.00668043
0.00667362
0.00664886
0.00658148
0.00642072
0.00609432
0.00553764
0.00481466
0.00400056
0.00317635
0.00241236
0.00175903
0.00124543
0.000882183
0.000651808
0.000514589
0.000421934
0.000334244
0.000198364
0.00670554
0.00670138
0.00669589
0.00669277
0.00668759
0.00668543
0.00668074
0.00667776
0.00666605
0.00663606
0.00655499
0.00637767
0.00603279
0.00546289
0.00474037
0.00393544
0.00312562
0.00237668
0.00173647
0.0012332
0.000877033
0.000651279
0.000515066
0.000423381
0.000335699
0.000199062
0.00670555
0.00670136
0.00669589
0.00669276
0.00668754
0.0066854
0.00668066
0.00667903
0.00667237
0.0066601
0.00662122
0.00652994
0.00633713
0.00597732
0.00540068
0.00467914
0.00388302
0.00308536
0.00234956
0.00172121
0.00122604
0.000874853
0.000650991
0.000516572
0.000424292
0.000336456
5.33935e-05
0.00670556
0.00670135
0.0066959
0.00669274
0.00668752
0.00668536
0.00668054
0.00667932
0.00667439
0.00666991
0.00665148
0.00660838
0.00650557
0.00630206
0.00593222
0.00534726
0.00462861
0.00384234
0.00305798
0.00233359
0.00171319
0.00122274
0.000874163
0.000652544
0.00051769
0.000426687
0.000283845
6.33697e-05
0.00670557
0.00670133
0.00669591
0.00669271
0.00668752
0.00668531
0.00668046
0.00667931
0.00667487
0.00667354
0.00666425
0.00664623
0.00659446
0.00648514
0.00627031
0.00589021
0.00530737
0.00459602
0.00381886
0.00304197
0.00232458
0.00170996
0.00122215
0.000876012
0.000654248
0.000519786
0.000420316
0.000219695
7.07607e-05
0.00670557
0.00670132
0.00669593
0.00669268
0.00668752
0.00668526
0.00668041
0.00667921
0.00667489
0.00667468
0.0066692
0.00666323
0.00663819
0.00658539
0.00646768
0.00624515
0.00586844
0.00528314
0.00457359
0.00380208
0.00303286
0.00232176
0.00171136
0.00122599
0.000879162
0.000656577
0.000521087
0.000400425
0.000178177
7.62126e-05
0.00670558
0.0067013
0.00669595
0.00669265
0.00668753
0.00668522
0.00668038
0.00667911
0.00667482
0.00667487
0.00667089
0.00667026
0.00665838
0.00663707
0.00657596
0.00645451
0.00623671
0.0058516
0.00526519
0.00455956
0.00379487
0.00303272
0.00232661
0.00171897
0.00123264
0.000883877
0.000659982
0.000518974
0.000367666
0.000152674
8.06317e-05
0.00670559
0.00670128
0.00669596
0.00669263
0.00668755
0.00668517
0.00668037
0.00667902
0.00667475
0.00667478
0.00667133
0.0066728
0.00666713
0.00666176
0.00663168
0.00657545
0.00645353
0.00622985
0.00584166
0.00525738
0.00455891
0.00380123
0.00304376
0.00233953
0.00173117
0.00124229
0.000890255
0.000663026
0.000513
0.000336495
0.000134298
8.40369e-05
0.0067056
0.00670127
0.00669598
0.0066926
0.00668757
0.00668512
0.00668037
0.00667893
0.00667468
0.00667462
0.00667136
0.00667345
0.00667061
0.00667268
0.00665946
0.00664106
0.00657873
0.00645668
0.00622907
0.00584492
0.00526651
0.00457283
0.00381944
0.00306398
0.00235914
0.00174796
0.00125468
0.000897819
0.000665936
0.000501736
0.000306329
0.000121315
8.6453e-05
0.0067056
0.00670126
0.006696
0.00669257
0.00668758
0.00668508
0.00668037
0.00667885
0.00667463
0.00667447
0.00667128
0.00667347
0.00667174
0.00667703
0.00667249
0.00667379
0.00664705
0.00658788
0.00646607
0.00624406
0.00586402
0.00528917
0.00459972
0.00384867
0.00309305
0.00238533
0.00176868
0.00126987
0.00090648
0.000667209
0.000486425
0.00028025
0.000112804
8.82405e-05
0.00670561
0.00670124
0.00669601
0.00669255
0.0066876
0.00668504
0.00668037
0.00667878
0.00667459
0.00667433
0.00667118
0.0066733
0.00667199
0.00667841
0.00667816
0.00668924
0.00668202
0.00666023
0.00660624
0.00648942
0.00627238
0.0058969
0.0053261
0.00463936
0.00388891
0.00313076
0.00241752
0.00179346
0.00128708
0.00091592
0.000667434
0.000469674
0.000260437
0.000107026
8.96257e-05
0.00670123
0.00670562
0.00669603
0.00669252
0.00668762
0.006685
0.00668038
0.00667872
0.00667456
0.00667422
0.00667107
0.00667309
0.00667195
0.00667867
0.00668024
0.00669616
0.0066989
0.00669809
0.00668494
0.00663629
0.00652578
0.00631477
0.00594498
0.0053773
0.00469206
0.00393982
0.00317667
0.00245572
0.00182169
0.00130672
0.000927029
0.000666595
0.000454723
0.000245211
0.000102972
9.075e-05
0.00669604
0.00670123
0.00670564
0.0066925
0.00668764
0.00668496
0.00668039
0.00667866
0.00667454
0.00667412
0.00667098
0.00667289
0.00667182
0.00667854
0.00668086
0.00669881
0.00670665
0.00671689
0.00672723
0.00671989
0.00667928
0.00657668
0.00637316
0.00600838
0.00544333
0.00475745
0.00400131
0.00323069
0.00249925
0.00185339
0.00133087
0.000940506
0.00066518
0.000441942
0.000233401
0.00010009
9.17014e-05
0.00669248
0.00669608
0.00670124
0.00670566
0.00668766
0.00668493
0.00668041
0.00667861
0.00667452
0.00667403
0.00667089
0.00667272
0.00667167
0.00667831
0.00668094
0.00669968
0.00670981
0.00672582
0.00674901
0.00676575
0.00676816
0.00673695
0.006644
0.00644851
0.00608881
0.00552465
0.00483592
0.00407296
0.00329205
0.00254811
0.00189206
0.00135962
0.000954595
0.000664281
0.000431393
0.000224066
9.79839e-05
9.25325e-05
0.00668768
0.00669249
0.00669615
0.00670125
0.00670568
0.0066849
0.00668042
0.00667856
0.0066745
0.00667395
0.00667081
0.00667258
0.00667152
0.00667805
0.00668084
0.00669987
0.00671098
0.00672973
0.00675988
0.00679018
0.00681809
0.00683127
0.00681151
0.0067286
0.00654198
0.00618603
0.00562148
0.00492661
0.00415431
0.00336077
0.00260754
0.00193964
0.0013899
0.00096954
0.000664009
0.000422633
0.000216564
9.64512e-05
9.32793e-05
0.00668487
0.00668774
0.00669253
0.00669622
0.00670126
0.00670571
0.00668044
0.00667851
0.0066745
0.00667389
0.00667074
0.00667246
0.00667137
0.00667781
0.00668069
0.0066998
0.00671136
0.00673141
0.00676497
0.00680294
0.00684545
0.006885
0.0069113
0.00690361
0.00683216
0.00665331
0.00630044
0.0057338
0.00503033
0.00424509
0.00344416
0.00268014
0.00199097
0.00142161
0.000985068
0.000664631
0.000415394
0.000210487
9.53072e-05
9.39589e-05
0.00668045
0.00668488
0.00668785
0.00669257
0.00669629
0.00670128
0.00670573
0.00667847
0.00667449
0.00667382
0.00667068
0.00667236
0.00667123
0.00667761
0.00668053
0.00669964
0.00671145
0.00673216
0.00676747
0.00680976
0.00686129
0.00691696
0.00697154
0.00701051
0.00701473
0.00695351
0.00678271
0.00643154
0.0058604
0.0051459
0.00435551
0.00354597
0.00275819
0.00204527
0.00145452
0.00100144
0.000666328
0.000409552
0.00020541
9.4463e-05
9.45889e-05
0.00667843
0.00668052
0.00668493
0.00668796
0.00669261
0.00669637
0.00670129
0.00670575
0.0066745
0.00667377
0.00667063
0.00667229
0.00667109
0.00667744
0.00668038
0.00669947
0.00671141
0.00673253
0.00676886
0.00681356
0.0068705
0.00693629
0.00700886
0.00707848
0.00713316
0.0071484
0.00709461
0.00692872
0.00657765
0.00599992
0.0052875
0.00449087
0.00365517
0.00284078
0.00210208
0.00148829
0.00101812
0.000669138
0.000404743
0.000201151
9.38276e-05
9.51719e-05
0.0066745
0.00667844
0.00668065
0.00668499
0.00668807
0.00669265
0.00669644
0.0067013
0.00670578
0.00667371
0.00667059
0.00667222
0.00667096
0.00667732
0.00668024
0.0066993
0.00671134
0.00673274
0.00676975
0.00681606
0.00687638
0.0069486
0.0070333
0.00712247
0.00721004
0.00727872
0.00730678
0.00725857
0.00709131
0.00673785
0.00616876
0.00545759
0.00463668
0.00377149
0.00292704
0.00216077
0.00152287
0.00103474
0.000672389
0.000400912
0.000197508
9.33588e-05
9.57197e-05
0.00667366
0.00667456
0.0066785
0.00668079
0.00668505
0.00668819
0.00669269
0.00669652
0.00670131
0.0067058
0.00667056
0.00667215
0.00667084
0.00667723
0.00668009
0.00669914
0.00671126
0.00673289
0.00677039
0.00681793
0.00688067
0.00695723
0.00705053
0.00715354
0.00726309
0.00736678
0.00745078
0.00748841
0.00744584
0.00727479
0.0069276
0.0063681
0.00563778
0.00478985
0.00389288
0.00301607
0.00222077
0.00155817
0.00105131
0.00067631
0.00039788
0.000194393
9.30068e-05
9.62292e-05
0.00667054
0.00667365
0.00667468
0.00667855
0.00668093
0.00668511
0.00668831
0.00669273
0.0066966
0.00670133
0.00670582
0.0066721
0.00667073
0.00667718
0.00667994
0.00669899
0.00671118
0.006733
0.00677091
0.00681948
0.0068841
0.00696404
0.00706376
0.00717716
0.00730357
0.00743137
0.00755332
0.00764918
0.00769498
0.0076543
0.00750165
0.00716163
0.00657727
0.00582454
0.0049472
0.00401709
0.00310696
0.00228155
0.0015938
0.0010678
0.000680667
0.000395442
0.000191689
9.27548e-05
9.67103e-05
0.00667204
0.00667055
0.00667368
0.00667481
0.00667862
0.00668108
0.00668517
0.00668844
0.00669278
0.00669668
0.00670135
0.00670585
0.00667064
0.00667715
0.00667977
0.00669888
0.00671113
0.0067331
0.00677136
0.00682083
0.00688701
0.00696985
0.00707481
0.00719635
0.00733682
0.00748414
0.00763338
0.00776952
0.00787641
0.0079266
0.00790963
0.00777778
0.00741628
0.0067953
0.00601351
0.00510667
0.00414302
0.00319866
0.00234261
0.00162945
0.00108416
0.000685486
0.000393587
0.000189334
9.25661e-05
9.71573e-05
0.00667057
0.00667197
0.00667058
0.0066737
0.00667495
0.00667868
0.00668123
0.00668523
0.00668856
0.00669283
0.00669676
0.00670136
0.00670587
0.00667714
0.00667957
0.0066988
0.00671109
0.0067332
0.00677176
0.00682203
0.00688954
0.00697502
0.00708447
0.00721299
0.00736546
0.00752999
0.00770295
0.00786902
0.00801944
0.00813299
0.00821221
0.00822266
0.00807517
0.00768699
0.00702533
0.00620432
0.00526645
0.00426867
0.0032903
0.00240342
0.00166486
0.00110041
0.000690258
0.000392175
0.000187284
9.24451e-05
9.75804e-05
0.00667713
0.00667041
0.00667189
0.00667063
0.00667373
0.0066751
0.00667874
0.00668138
0.0066853
0.00668869
0.00669288
0.00669685
0.00670138
0.00670589
0.00667935
0.00669876
0.00671107
0.0067333
0.00677211
0.00682311
0.0068918
0.0069797
0.00709309
0.007228
0.00739124
0.00757077
0.00776649
0.00796033
0.0081445
0.00830394
0.0084521
0.0085656
0.00856283
0.00839081
0.00796776
0.00726334
0.00639516
0.00542348
0.00439278
0.00338093
0.00246356
0.00169979
0.00111657
0.00069498
0.000391131
0.000185459
9.23532e-05
9.79722e-05
0.00667912
0.00667697
0.00667013
0.00667181
0.0066707
0.00667376
0.00667526
0.00667881
0.00668155
0.00668537
0.00668882
0.00669294
0.00669693
0.00670141
0.00670592
0.0066988
0.00671108
0.0067334
0.00677243
0.00682408
0.00689383
0.00698396
0.00710086
0.0072418
0.00741487
0.00760805
0.00782519
0.00804752
0.0082648
0.00846079
0.00866156
0.00885178
0.00895393
0.00892721
0.00872134
0.00825588
0.00750617
0.00658938
0.00557745
0.00451437
0.00347002
0.00252263
0.00173407
0.00113247
0.000699652
0.000390327
0.000183877
9.23132e-05
9.83435e-05
0.00669892
0.0066783
0.00667666
0.00666988
0.00667171
0.00667079
0.00667378
0.00667543
0.00667888
0.00668171
0.00668545
0.00668895
0.006693
0.006697
0.00670143
0.00670593
0.0067111
0.00673349
0.0067727
0.00682495
0.00689567
0.00698785
0.00710791
0.00725457
0.00743661
0.00764272
0.00788057
0.00813018
0.00838315
0.0086179
0.00886416
0.0091165
0.0092973
0.00937543
0.00931327
0.00906411
0.00854904
0.00774918
0.00678426
0.00572835
0.00463307
0.00355689
0.0025803
0.00176754
0.00114806
0.00070424
0.000389778
0.000182431
9.22795e-05
9.86857e-05
0.00671109
0.00669847
0.00667682
0.00667633
0.00666969
0.0066716
0.00667092
0.0066738
0.00667562
0.00667896
0.00668188
0.00668554
0.00668908
0.00669307
0.00669708
0.00670146
0.00670595
0.00673356
0.00677293
0.00682574
0.00689735
0.00699139
0.00711434
0.00726639
0.00745659
0.00767525
0.00793318
0.00820873
0.00849734
0.00877862
0.00907712
0.00938635
0.00963248
0.00979005
0.00983046
0.00972027
0.00941748
0.00884524
0.00799089
0.00697763
0.00587471
0.0047474
0.00364096
0.00263629
0.00180005
0.00116325
0.000708746
0.000389342
0.000181189
9.22898e-05
9.90108e-05
0.00673362
0.00671003
0.00669745
0.00667565
0.00667589
0.00666959
0.00667145
0.00667107
0.00667382
0.00667581
0.00667904
0.00668205
0.00668563
0.0066892
0.00669313
0.00669715
0.00670148
0.00670597
0.0067731
0.00682644
0.00689888
0.00699462
0.00712021
0.00727729
0.00747496
0.00770586
0.00798289
0.00828334
0.00860842
0.00894023
0.00930253
0.00968078
0.00999213
0.0102204
0.010339
0.010324
0.0101497
0.00978089
0.00914316
0.0082301
0.00716829
0.00601836
0.00485712
0.00372192
0.00269036
0.0018315
0.00117799
0.00071313
0.000389101
0.000180025
9.22911e-05
9.93089e-05
0.00677324
0.00673193
0.0067078
0.00669589
0.00667485
0.00667532
0.00666959
0.00667127
0.00667126
0.00667384
0.00667601
0.00667913
0.00668221
0.00668573
0.00668931
0.0066932
0.00669721
0.00670151
0.00670598
0.00682708
0.00690028
0.00699756
0.00712558
0.0072873
0.00749185
0.00773461
0.00802946
0.00835428
0.00871749
0.00910225
0.00952977
0.0100009
0.0104092
0.0107193
0.0109103
0.0109621
0.0108644
0.0106042
0.0101544
0.00944194
0.00846596
0.00735418
0.00615898
0.00496233
0.00379957
0.00274238
0.00186181
0.00119223
0.000717398
0.000388883
0.000179035
9.23321e-05
9.95928e-05
0.00682772
0.00677037
0.00672835
0.00670559
0.00669399
0.00667442
0.00667459
0.0066697
0.00667107
0.00667147
0.00667386
0.00667621
0.00667923
0.00668237
0.00668583
0.00668942
0.00669327
0.00669727
0.00670154
0.006706
0.00690157
0.00700024
0.00713048
0.00729648
0.00750739
0.00776147
0.00807281
0.00842198
0.00882441
0.00926205
0.00975398
0.0103414
0.0109097
0.0113576
0.0116327
0.011737
0.011675
0.0114575
0.0110852
0.0105378
0.00974087
0.00869774
0.00753452
0.00629567
0.00506304
0.00387381
0.00279222
0.00189091
0.00120593
0.000721518
0.000388827
0.000178085
9.23545e-05
9.98199e-05
0.00690279
0.00682413
0.00676425
0.00672491
0.00670339
0.0066917
0.00667435
0.00667373
0.00666988
0.00667086
0.00667169
0.0066739
0.0066764
0.00667934
0.00668252
0.00668593
0.00668953
0.00669334
0.00669733
0.00670157
0.00670601
0.00700267
0.00713496
0.00730485
0.00752167
0.00778641
0.00811305
0.00848669
0.00892791
0.00941652
0.00997685
0.0107175
0.01151
0.0121905
0.0126095
0.0127628
0.0127068
0.0124762
0.0121006
0.0115907
0.0109297
0.0100391
0.00892486
0.00770904
0.00642783
0.00515927
0.00394458
0.00283983
0.00191876
0.00121907
0.000725494
0.000388786
0.000177299
9.2404e-05
0.00010001
0.0070049
0.00689774
0.00681597
0.00675819
0.00672167
0.00670142
0.00668892
0.00667456
0.00667281
0.00667011
0.00667067
0.0066719
0.00667397
0.00667658
0.00667946
0.00668266
0.00668604
0.00668962
0.00669341
0.00669738
0.0067016
0.00670602
0.00713903
0.00731246
0.00753476
0.00780942
0.00815038
0.00854827
0.00902642
0.00956461
0.0102056
0.0111458
0.0122182
0.0131892
0.0138527
0.0141161
0.0140562
0.0137801
0.0133413
0.0127805
0.0121144
0.0113273
0.0103354
0.00914675
0.00787752
0.00655507
0.00525104
0.0040119
0.00288518
0.00194535
0.00123165
0.000729313
0.000388781
0.000176632
9.24321e-05
0.000100215
0.00714276
0.00699807
0.00688579
0.00680785
0.0067524
0.00671861
0.00670009
0.00668588
0.00667491
0.00667189
0.00667034
0.00667052
0.00667209
0.00667406
0.00667675
0.00667959
0.00668279
0.00668614
0.00668972
0.00669348
0.00669744
0.00670163
0.00670603
0.00731937
0.00754673
0.00783056
0.00818496
0.00860639
0.00911896
0.00970751
0.0104472
0.0116264
0.013003
0.0142696
0.0151985
0.0156847
0.0157111
0.0154008
0.0148873
0.0142305
0.0134766
0.0126465
0.0117265
0.0106284
0.00936286
0.00803981
0.00667716
0.00533841
0.00407582
0.00292827
0.00197065
0.00124364
0.000733002
0.000388771
0.000176119
9.24877e-05
0.000100438
0.00732562
0.00713356
0.00698103
0.00687383
0.00679991
0.00674686
0.00671568
0.00669902
0.00668282
0.00667526
0.00667106
0.00667051
0.00667044
0.00667226
0.00667417
0.0066769
0.00667972
0.00668291
0.00668625
0.0066898
0.00669354
0.00669749
0.00670165
0.00670604
0.00755766
0.00784988
0.00821692
0.00866069
0.00920535
0.00984733
0.0107036
0.0121413
0.0138057
0.0153241
0.0164766
0.0171868
0.0174333
0.0172242
0.0166858
0.0159586
0.0151023
0.0141661
0.0131756
0.0121222
0.0109161
0.00957261
0.00819578
0.00679396
0.00542137
0.0041363
0.00296911
0.0019947
0.00125505
0.000736054
0.000388813
0.000175543
9.25296e-05
0.000100679
0.00756751
0.00731374
0.00710958
0.00696395
0.00686213
0.00679212
0.00674151
0.00671296
0.00669805
0.00667994
0.00667547
0.00667041
0.0066706
0.00667044
0.00667239
0.00667431
0.00667704
0.00667985
0.00668303
0.00668635
0.00668989
0.00669361
0.00669754
0.00670167
0.00670604
0.00786752
0.00824636
0.00871097
0.00928605
0.00998554
0.0109706
0.0126636
0.0145691
0.0162688
0.0175744
0.0184529
0.0189104
0.0189435
0.0185507
0.0178381
0.0169434
0.0159234
0.0148286
0.013691
0.0125096
0.0111967
0.00977543
0.00834533
0.00690545
0.00550027
0.00419329
0.00300773
0.00201748
0.00126445
0.000738683
0.000388821
0.000174973
9.2611e-05
0.000100942
0.00788329
0.0075521
0.00728061
0.00708554
0.0069472
0.0068507
0.00678441
0.00673648
0.00671036
0.00669707
0.00667748
0.00667538
0.00666999
0.0066706
0.0066705
0.00667249
0.00667445
0.00667717
0.00667999
0.00668314
0.00668645
0.00668997
0.00669368
0.00669756
0.00670167
0.00670604
0.0082734
0.00875724
0.00936177
0.0101223
0.0112401
0.0131678
0.0152548
0.0170624
0.0184479
0.0194257
0.0200341
0.0202862
0.0201658
0.0196522
0.0188253
0.0178146
0.0166724
0.0154494
0.0141837
0.0128839
0.0114685
0.00997081
0.00848838
0.00701149
0.00557553
0.00424699
0.00304418
0.0020362
0.00127246
0.000741566
0.00038891
0.000174338
9.26711e-05
0.000101227
0.00829757
0.00786403
0.00750671
0.00724736
0.00706195
0.00693084
0.00683949
0.00677675
0.00673183
0.00670777
0.00669592
0.00667592
0.00667495
0.0066698
0.00667052
0.00667061
0.00667258
0.0066746
0.00667729
0.00668012
0.00668325
0.00668655
0.00669005
0.00669371
0.00669756
0.00670167
0.00670604
0.00879973
0.00943315
0.0102564
0.0115031
0.0136356
0.0158451
0.0176979
0.0191025
0.0201173
0.0208108
0.0212159
0.0213273
0.021112
0.0205327
0.0196437
0.0185639
0.0173393
0.0160193
0.0146471
0.0132416
0.0117298
0.0101583
0.0086249
0.00711204
0.00564709
0.00429756
0.00307401
0.00205209
0.00128125
0.00074478
0.000388948
0.00017371
9.27852e-05
0.000101537
0.00883745
0.00827336
0.00780265
0.00746116
0.00721468
0.00703891
0.00691484
0.00682851
0.00676913
0.00672737
0.00670509
0.00669383
0.00667512
0.00667424
0.00666979
0.0066704
0.00667076
0.00667266
0.00667476
0.00667741
0.00668025
0.00668336
0.00668665
0.00669009
0.00669371
0.00669756
0.00670167
0.00670604
0.00950063
0.0103862
0.0117523
0.0140574
0.0163385
0.018189
0.0195679
0.0205716
0.0212939
0.0217864
0.0220576
0.0220835
0.0218193
0.0212161
0.0203058
0.0191949
0.0179224
0.0165344
0.0150773
0.01358
0.0119794
0.0103374
0.00875486
0.00720725
0.00571498
0.00433889
0.00309926
0.00206949
0.00129092
0.000748306
0.000389102
0.000173006
9.28698e-05
0.000101873
0.00956192
0.00880761
0.00819042
0.00774098
0.00741636
0.00718271
0.00701639
0.00689922
0.00681779
0.00676167
0.00672307
0.00670249
0.00669111
0.00667491
0.00667338
0.00666988
0.00667027
0.00667091
0.00667275
0.00667491
0.00667753
0.00668038
0.00668346
0.0066867
0.00669009
0.00669371
0.00669756
0.00670167
0.00670604
0.01051
0.011986
0.0144302
0.0167422
0.0185577
0.019881
0.0208397
0.0215481
0.022074
0.0224393
0.0226306
0.0226113
0.0223304
0.0217328
0.0208308
0.0197182
0.0184255
0.0169943
0.0154725
0.0138973
0.0122165
0.010508
0.00887832
0.00729729
0.00577077
0.00437384
0.00312684
0.00208855
0.00130155
0.000752255
0.000389183
0.000172315
9.30279e-05
0.000102238
0.0106213
0.00952456
0.0086951
0.00810726
0.00768023
0.00737248
0.00715145
0.0069944
0.006884
0.00680745
0.00675429
0.00671912
0.00670016
0.00668784
0.00667503
0.0066725
0.00667
0.00667015
0.00667106
0.00667283
0.00667505
0.00667765
0.0066805
0.00668351
0.0066867
0.00669009
0.00669371
0.00669756
0.00670167
0.00670603
0.0122051
0.0147537
0.017068
0.0188273
0.020077
0.0209687
0.021633
0.022151
0.0225574
0.0228492
0.0229979
0.0229606
0.0226852
0.0221131
0.0212399
0.0201468
0.0188553
0.0174013
0.0158325
0.0141927
0.0124403
0.0106698
0.00899531
0.00737109
0.00581811
0.004412
0.00315698
0.00210946
0.00131327
0.000756582
0.000389424
0.00017154
9.31485e-05
0.000102633
0.0105791
0.0123997
0.00936113
0.00858392
0.00802517
0.00762067
0.00732953
0.0071209
0.00697298
0.00686925
0.00679766
0.00674728
0.00671547
0.00669867
0.00668457
0.00667525
0.00667171
0.00667012
0.00667008
0.00667119
0.00667293
0.0066752
0.00667776
0.00668057
0.00668351
0.0066867
0.00669009
0.00669371
0.00669756
0.00670165
0.00670602
0.0150291
0.0173285
0.0190196
0.0201857
0.0209977
0.0215976
0.0220778
0.0224843
0.0228249
0.0230791
0.0232097
0.0231726
0.0229173
0.0223838
0.0215533
0.0204943
0.01922
0.0177593
0.0161584
0.0144663
0.0126507
0.0108229
0.00909133
0.00743366
0.00586998
0.0044537
0.00318995
0.00213241
0.00132617
0.000761423
0.00038957
0.000170783
9.33655e-05
0.000103062
0.0103293
0.0123592
0.015254
0.00920413
0.00847465
0.00794452
0.00756231
0.00728751
0.00709111
0.00695217
0.00685504
0.00678826
0.0067407
0.00671215
0.00669749
0.00668158
0.00667539
0.00667107
0.00667019
0.00667005
0.00667132
0.00667303
0.00667533
0.00667782
0.00668057
0.0066835
0.0066867
0.00669009
0.00669371
0.00669753
0.00670162
0.00670601
0.0175352
0.0191525
0.0202312
0.0209568
0.0214799
0.0219013
0.022277
0.0226258
0.0229361
0.0231757
0.0233043
0.0232796
0.0230543
0.0225678
0.0217886
0.0207737
0.0195276
0.0180726
0.0164521
0.0147183
0.0128478
0.0109481
0.00917279
0.00750212
0.00592683
0.0044993
0.00322603
0.00215762
0.00134044
0.000766802
0.000389923
0.000169937
9.35407e-05
0.000103522
0.0100839
0.0120032
0.0151872
0.0176897
0.0090545
0.00836694
0.00786541
0.00750515
0.0072465
0.00706213
0.00693204
0.00684137
0.00677923
0.00673457
0.00670924
0.0066964
0.00667907
0.00667534
0.0066706
0.00667021
0.00667006
0.00667143
0.00667315
0.0066754
0.00667781
0.00668057
0.0066835
0.00668669
0.00669009
0.00669367
0.00669748
0.00670159
0.006706
0.0192405
0.0202319
0.0208689
0.0213084
0.021657
0.021979
0.0223038
0.0226304
0.0229329
0.0231728
0.0233101
0.0233066
0.0231183
0.0226841
0.0219614
0.0209965
0.0197862
0.0183461
0.0167158
0.0149497
0.0130072
0.0110541
0.00926196
0.00757709
0.00598922
0.00454923
0.00326556
0.00218535
0.00135616
0.000772835
0.00039017
0.000169107
9.38369e-05
0.000104022
0.00985375
0.0116179
0.0148302
0.0175894
0.0192856
0.00890995
0.00826076
0.00778793
0.00744928
0.00720656
0.00703403
0.0069126
0.00682827
0.00677069
0.00672915
0.00670656
0.00669527
0.00667731
0.00667505
0.00667031
0.00667018
0.00667011
0.00667153
0.0066732
0.00667539
0.0066778
0.00668056
0.0066835
0.00668669
0.00669005
0.00669361
0.00669743
0.00670157
0.00670598
0.0202015
0.0207512
0.021104
0.0213713
0.0216231
0.0218989
0.0222087
0.0225358
0.0228447
0.0230943
0.0232481
0.0232728
0.0231268
0.0227481
0.0220843
0.0211726
0.020003
0.0185843
0.0169522
0.0151334
0.0131413
0.0111698
0.00935961
0.00765925
0.00605771
0.00460395
0.00330891
0.00221585
0.00137363
0.00077943
0.000390655
0.000168194
9.40971e-05
0.000104553
0.00963828
0.0112382
0.0143858
0.0173543
0.0191319
0.0201398
0.00876877
0.00815633
0.00771223
0.00739481
0.00716781
0.00700687
0.006894
0.00681602
0.00676278
0.00672449
0.00670401
0.00669364
0.00667629
0.00667456
0.00667017
0.00667011
0.0066702
0.00667156
0.0066732
0.00667539
0.0066778
0.00668056
0.00668351
0.00668664
0.00668997
0.00669354
0.00669738
0.00670154
0.00670597
0.0206154
0.020882
0.0210634
0.0212341
0.0214416
0.0217072
0.0220256
0.0223676
0.0226915
0.0229576
0.0231345
0.0231931
0.0230934
0.0227719
0.0221678
0.0213107
0.0201843
0.0187916
0.0171353
0.0152859
0.0132863
0.011296
0.00946659
0.00774938
0.00613299
0.004664
0.00335648
0.00224947
0.00139287
0.000786964
0.000391065
0.000167287
9.44998e-05
0.000105131
0.00943449
0.0108775
0.0138948
0.0170331
0.0189704
0.0199308
0.020457
0.00863034
0.00805398
0.00763847
0.00734188
0.00713033
0.00698088
0.0068767
0.00680481
0.00675536
0.00672034
0.00670164
0.00669142
0.00667582
0.00667392
0.00667014
0.00667002
0.00667026
0.00667153
0.00667319
0.00667539
0.0066778
0.00668056
0.00668345
0.00668654
0.00668988
0.00669347
0.00669733
0.00670151
0.00670595
0.0206528
0.0207476
0.0208304
0.0209555
0.0211547
0.0214351
0.0217774
0.0221425
0.0224869
0.0227751
0.0229814
0.0230794
0.0230291
0.0227654
0.0222205
0.0214177
0.0203358
0.0189474
0.0172852
0.0154485
0.0134429
0.0114336
0.00958381
0.00784831
0.00621578
0.00472996
0.00340876
0.0022865
0.00141432
0.000795178
0.000391693
0.000166309
9.48941e-05
0.000105734
0.00923989
0.0105398
0.0133787
0.0166503
0.0187384
0.0198026
0.0201925
0.0204063
0.00849475
0.00795402
0.00756684
0.00729065
0.00709448
0.00695673
0.00686092
0.00679458
0.00674851
0.00671671
0.00669963
0.00668876
0.00667568
0.00667323
0.0066702
0.0066699
0.00667029
0.00667151
0.00667319
0.00667539
0.0066778
0.00668049
0.00668335
0.00668644
0.00668979
0.0066934
0.00669727
0.00670148
0.00670594
0.0204333
0.0204257
0.0204592
0.0205747
0.0207917
0.0211038
0.0214788
0.0218716
0.0222405
0.0225565
0.0227985
0.0229409
0.0229425
0.0227363
0.0222492
0.0214997
0.0204444
0.0190729
0.0174423
0.0156214
0.0136116
0.0115835
0.00971224
0.00795698
0.00630692
0.0048025
0.00346625
0.00232741
0.001438
0.0008045
0.000392351
0.000165279
9.54388e-05
0.000106506
0.00905287
0.0102264
0.0128485
0.0162182
0.0184624
0.019617
0.0200671
0.0200859
0.0201044
0.00836231
0.00785683
0.00749755
0.00724162
0.00706119
0.00693475
0.00684656
0.00678538
0.00674222
0.00671355
0.00669829
0.00668606
0.00667573
0.00667255
0.00667034
0.00666977
0.00667031
0.0066715
0.00667318
0.00667538
0.00667774
0.00668036
0.00668324
0.00668633
0.0066897
0.00669333
0.00669721
0.00670145
0.00670592
0.0200292
0.0199667
0.019986
0.0201189
0.0203731
0.0207268
0.0211387
0.0215616
0.0219592
0.0223093
0.0225936
0.0227851
0.0228402
0.0226908
0.0222596
0.0215517
0.02053
0.0192016
0.0176061
0.0158043
0.013793
0.0117465
0.00985291
0.00807641
0.00640732
0.00488239
0.00352958
0.00237255
0.00146439
0.00081484
0.000393128
0.000164207
9.61534e-05
0.00010741
0.00887274
0.00993694
0.0123123
0.015738
0.018155
0.0194028
0.0198928
0.0199437
0.019727
0.0196267
0.00823328
0.00776284
0.00743127
0.00719613
0.00703092
0.00691476
0.00683353
0.00677714
0.00673655
0.0067107
0.00669716
0.00668356
0.00667586
0.00667197
0.00667049
0.0066697
0.0066703
0.00667151
0.00667317
0.00667531
0.00667762
0.00668023
0.00668312
0.00668623
0.00668961
0.00669326
0.00669715
0.00670142
0.0067059
0.0194872
0.0194038
0.0194366
0.0196089
0.0199115
0.0203117
0.0207617
0.0212167
0.0216484
0.02204
0.0223733
0.0226179
0.0227276
0.0226336
0.0222544
0.0215905
0.0206146
0.0193325
0.0177759
0.0159972
0.0139874
0.0119234
0.0100069
0.0082077
0.00651801
0.0049705
0.00359941
0.00242253
0.00149369
0.000826353