/*--------------------------------*- C++ -*----------------------------------*\
  =========                 |
  \\      /  F ield         | OpenFOAM: The Open Source CFD Toolbox
   \\    /   O peration     | Website:  https://openfoam.org
    \\  /    A nd           | Version:  8
     \\/     M anipulation  |
\*---------------------------------------------------------------------------*/
FoamFile
{
    version     2.0;
    format      ascii;
    class       volScalarField;
    location    "0.09";
    object      p;
}
// * * * * * * * * * * * * * * * * * * * * * * * * * * * * * * * * * * * * * //

dimensions      [0 2 -2 0 0 0 0];

internalField   nonuniform List<scalar> 
15677
(
79.9484
79.5919
79.1794
79.6564
79.1676
79.182
79.6314
79.1948
79.1914
79.0767
79.6061
79.1962
79.1917
79.0857
78.987
79.5843
79.1984
79.1916
79.085
78.9946
78.8933
79.5608
79.2007
79.1912
79.0861
78.9945
78.9
78.7822
79.5357
79.2033
79.1904
79.0864
78.9955
78.9
78.788
78.65
79.5095
79.2064
79.1889
79.0865
78.996
78.9009
78.7881
78.6551
78.4898
79.4822
79.2084
79.187
79.0863
78.9965
78.9015
78.7891
78.6553
78.4942
78.2943
79.4536
79.2098
79.1843
79.0858
78.9968
78.9021
78.7898
78.6564
78.4945
78.298
78.0561
79.4241
79.2114
79.181
79.0855
78.9972
78.9027
78.7906
78.6572
78.4957
78.2985
78.0591
77.7675
79.3941
79.2124
79.1776
79.0856
78.9977
78.9035
78.7916
78.6583
78.4968
78.2999
78.0598
77.7697
77.4205
79.3643
79.2123
79.174
79.086
78.9987
78.9047
78.793
78.6598
78.4983
78.3013
78.0614
77.7706
77.4219
77.0072
79.3376
79.2108
79.1704
79.0867
79.0002
78.9066
78.795
78.6618
78.5003
78.3032
78.0632
77.7725
77.4229
77.0076
76.5201
79.3145
79.2086
79.1667
79.0879
79.0027
78.9095
78.7981
78.6648
78.5032
78.3059
78.0658
77.7748
77.4251
77.0089
76.5196
75.9523
79.2944
79.2065
79.1636
79.0897
79.0064
78.9138
78.8026
78.6693
78.5074
78.3099
78.0694
77.7781
77.4281
77.0115
76.5211
75.9507
75.2977
79.2768
79.2044
79.1613
79.092
79.0115
78.92
78.8094
78.676
78.5138
78.3157
78.0747
77.7829
77.4324
77.0152
76.5241
75.9524
75.2948
74.5513
79.2615
79.2023
79.1595
79.0947
79.0178
78.9286
78.8189
78.6857
78.5231
78.3244
78.0825
77.7898
77.4385
77.0206
76.5286
75.9559
75.2969
74.5471
73.7096
79.2481
79.2003
79.1582
79.0978
79.0247
78.9391
78.8319
78.6993
78.5365
78.337
78.094
77.8001
77.4474
77.0283
76.5352
75.9613
75.3008
74.5494
73.7039
72.7704
79.2368
79.1986
79.1575
79.1013
79.0323
78.9505
78.8478
78.7179
78.5553
78.3552
78.1108
77.8151
77.4605
77.0395
76.5448
75.9693
75.3072
74.5538
73.7065
72.763
71.7334
79.2277
79.1969
79.1572
79.1053
79.0406
78.963
78.8651
78.7406
78.5811
78.3806
78.1349
77.8369
77.4797
77.056
76.5587
75.981
75.3168
74.5613
73.7113
72.7659
71.7243
70.6002
79.2208
79.1951
79.1574
79.1095
79.0494
78.9765
78.884
78.7653
78.6125
78.4154
78.1685
77.8681
77.5076
77.0802
76.5791
75.9978
75.3306
74.5724
73.7198
72.7712
71.7275
70.5892
69.3745
79.2154
79.1936
79.158
79.1141
79.0586
78.9908
78.9043
78.7923
78.6467
78.4578
78.2145
77.9118
77.5474
77.1152
76.6089
76.0225
75.3507
74.5886
73.7326
72.7808
71.7331
70.5926
69.3616
68.0618
79.2111
79.1922
79.1588
79.1188
79.0683
79.0059
78.9258
78.8213
78.6841
78.504
78.2706
77.9716
77.603
77.165
76.652
76.0586
75.3801
74.6121
73.7512
72.7951
71.7436
70.5985
69.3651
68.0468
66.6747
79.2078
79.1911
79.1597
79.1232
79.0777
79.0214
78.9483
78.8521
78.7243
78.5546
78.3318
78.0444
77.6793
77.2348
76.7134
76.1109
75.4231
74.6465
73.7781
72.816
71.7594
70.6098
69.371
68.0502
66.6571
65.2439
79.2051
79.1902
79.1607
79.1272
79.0865
79.0367
78.9716
78.8843
78.767
78.6091
78.399
78.1241
77.7724
77.3305
76.7994
76.1854
75.4854
74.6968
73.8176
72.8463
71.7824
70.6267
69.3828
68.0557
66.6578
65.19
63.71
79.2029
79.1895
79.1616
79.1309
79.0944
79.0508
78.9944
78.9176
78.8116
78.6669
78.4713
78.2115
77.8743
77.4475
76.9176
76.2898
75.5742
74.7698
73.8754
72.8907
71.8157
70.6514
69.4005
68.0674
66.6618
65.1924
63.6443
62.0587
79.2011
79.1889
79.1625
79.1342
79.1015
79.0635
79.0153
78.9502
78.8578
78.7274
78.548
78.3058
77.9863
77.5757
77.0623
76.4335
75.6989
74.874
73.9595
72.9561
71.8649
70.6875
69.4263
68.0851
66.6718
65.1924
63.6467
62.0295
60.3621
79.1996
79.1884
79.1633
79.1372
79.1079
79.0748
79.0342
78.9801
78.9031
78.7901
78.6285
78.406
78.1072
77.7169
77.2212
76.6097
75.8708
75.0207
74.0799
73.0514
71.9375
70.7408
69.4642
68.1112
66.6878
65.1993
63.6402
62.0216
60.3521
58.6278
79.1984
79.1881
79.164
79.14
79.1136
79.085
79.0512
79.0071
78.9446
78.8515
78.7119
78.5111
78.2359
77.8696
77.3965
76.8036
76.0822
75.2234
74.2498
73.1884
72.0438
70.8199
69.5207
68.1498
66.7124
65.2124
63.6463
62.0114
60.3351
58.6235
56.6801
79.1974
79.1877
79.1646
79.1425
79.1187
79.0941
79.0663
79.0314
78.9821
78.908
78.7938
78.6203
78.3711
78.0323
77.5863
77.0179
76.3154
75.4733
74.4853
73.3822
72.1972
70.9364
69.6052
68.2082
66.7499
65.2341
63.6576
62.0188
60.3257
58.6044
56.679
54.4994
79.1965
79.1875
79.1651
79.1449
79.1232
79.1022
79.0798
79.053
79.0158
78.9589
78.869
78.7275
78.5117
78.2035
77.7891
77.2506
76.5737
75.7497
74.7765
73.6517
72.4148
71.1053
69.7305
68.2965
66.8083
65.2691
63.6772
62.0294
60.3333
58.5971
56.661
54.5001
52.3105
79.1958
79.1872
79.1655
79.1469
79.1272
79.1093
79.0918
79.0723
79.0459
79.0047
78.937
78.8261
78.6499
78.3818
78.0028
77.4995
76.8548
76.0567
75.0995
73.9862
72.7188
71.3462
69.9135
68.4289
66.8985
65.3257
63.71
62.0484
60.3437
58.6031
56.6539
54.4834
52.3128
50.1493
79.1952
79.1871
79.166
79.1488
79.1307
79.1157
79.1024
79.0894
79.0726
79.0456
78.9981
78.9154
78.7772
78.5575
78.2257
77.7626
77.1564
76.3917
75.4593
74.3584
73.0976
71.6841
70.1762
68.6241
67.0358
65.4159
63.7649
62.0799
60.3624
58.6132
56.6567
54.4761
52.2978
50.1516
48.0334
79.1869
79.1944
79.1664
79.1504
79.1338
79.1213
79.1118
79.1046
79.0964
79.082
79.0527
78.9956
78.8926
78.7195
78.4458
78.0376
77.4758
76.752
75.8531
74.7744
73.5207
72.1072
70.5466
68.9062
67.2406
65.556
63.8543
62.1333
60.3925
58.6309
56.6655
54.4757
52.2903
50.1376
48.0353
45.9732
79.1668
79.1867
79.1936
79.1518
79.1366
79.1263
79.1202
79.118
79.1175
79.1144
79.1014
79.0674
78.9964
78.8665
78.6493
78.3097
77.8106
77.1348
76.278
75.2313
73.9954
72.5819
71.0128
69.3066
67.5392
65.7677
63.9955
62.2214
60.4438
58.6587
56.6804
54.4819
52.287
50.1291
48.0221
45.9747
43.9791
79.153
79.1674
79.1866
79.1928
79.1391
79.1307
79.1276
79.1299
79.1362
79.1431
79.1447
79.1315
79.0894
78.999
78.8341
78.5618
78.1427
77.5371
76.7308
75.7259
74.5186
73.1164
71.5382
69.8136
67.9662
66.0795
64.2118
62.3623
60.5293
58.7066
56.7042
54.4922
52.2898
50.1225
48.0123
45.962
43.9799
42.0594
79.1412
79.1547
79.1682
79.1864
79.1921
79.1346
79.1342
79.1405
79.1528
79.1686
79.1831
79.1884
79.1724
79.1178
79.0009
78.7912
78.4511
77.9374
77.2083
76.2549
75.0871
73.7079
72.1325
70.3876
68.5102
66.5289
64.5333
62.5805
60.668
58.7878
56.7464
54.5097
52.2945
50.1209
48.002
45.9505
43.9674
42.0593
40.2201
79.1379
79.1441
79.1566
79.169
79.1863
79.1914
79.1399
79.1499
79.1675
79.1912
79.2173
79.2391
79.2463
79.2239
79.1507
78.9986
78.7325
78.3102
77.6851
76.8147
75.6975
74.3533
72.7929
71.04
69.1295
67.1053
65.0002
62.9079
60.8851
58.9217
56.8205
54.5433
52.3042
50.1189
47.9952
45.9365
43.954
42.047
40.2191
38.4652
79.1449
79.1425
79.1474
79.1586
79.1699
79.1862
79.1907
79.1582
79.1806
79.2113
79.2475
79.284
79.312
79.3185
79.2846
79.1852
78.9874
78.6512
78.1305
77.3759
76.3461
75.0492
73.5166
71.7682
69.8367
67.7651
65.6033
63.387
61.2138
59.1339
56.9459
54.6061
52.3269
50.1193
47.9855
45.924
43.9362
42.0315
40.2069
38.4633
36.7969
79.1651
79.1515
79.1472
79.1506
79.1605
79.1707
79.186
79.1901
79.1921
79.2291
79.2743
79.3239
79.3704
79.4027
79.4042
79.3523
79.217
78.9609
78.5391
77.902
76.999
75.7918
74.3004
72.5699
70.6299
68.5222
66.2974
64.01
61.6989
59.4591
57.1487
54.7178
52.3755
50.1291
47.9753
45.9061
43.9178
42.0099
40.1893
38.451
36.7942
35.2161
79.2018
79.1745
79.1581
79.1521
79.1538
79.1624
79.1715
79.1859
79.1895
79.2448
79.2982
79.3592
79.4222
79.4775
79.5107
79.5016
79.4231
79.2404
78.9111
78.3862
77.6135
76.5428
75.1409
73.4423
71.5074
69.3755
67.0979
64.731
62.3341
59.9436
57.4646
54.9045
52.4693
50.1608
47.9705
45.8843
43.8911
41.9853
40.1638
38.4312
36.7818
35.2126
33.7224
79.258
79.2147
79.1834
79.1649
79.1568
79.157
79.1642
79.1723
79.1858
79.189
79.3193
79.3907
79.4682
79.5439
79.6054
79.6347
79.6075
79.4917
79.2477
78.8282
78.181
77.2525
75.9949
74.3827
72.4671
70.3245
68.0048
65.5667
63.0733
60.5822
57.9405
55.2025
52.6343
50.2331
47.9831
45.8637
43.8571
41.9496
40.133
38.4021
36.7598
35.2001
33.7183
32.3146
79.3368
79.2754
79.2264
79.1925
79.1715
79.1614
79.16
79.166
79.1731
79.1857
79.1885
79.4185
79.5091
79.6029
79.6895
79.7532
79.7721
79.717
79.551
79.2294
78.7008
77.9106
76.8059
75.3432
73.5071
71.3681
69.0189
66.5189
63.935
61.33
58.5733
55.6578
52.9062
50.3716
48.0311
45.8555
43.8198
41.9032
40.0883
38.3652
36.7272
35.176
33.7056
32.3098
30.9904
79.4416
79.3601
79.2905
79.2384
79.2014
79.1779
79.1659
79.1629
79.1677
79.1739
79.1856
79.1881
79.5453
79.6555
79.7643
79.8586
79.9188
79.9184
79.8233
79.5917
79.174
78.5157
77.561
76.2598
74.5754
72.5052
70.1403
67.5896
64.9223
62.2068
59.3196
56.2702
53.3294
50.6102
48.1391
45.877
43.7899
41.8487
40.0292
38.3115
36.6842
35.1399
33.6794
32.2969
30.9851
29.7472
79.5752
79.4722
79.3793
79.3061
79.2501
79.21
79.184
79.1701
79.1657
79.1693
79.1747
79.1855
79.1877
79.702
79.831
79.9524
80.0494
80.0981
80.0673
79.9177
79.6024
79.0681
78.2579
77.1172
75.6002
73.6803
71.3696
68.7804
66.0389
63.2174
60.2009
56.9993
53.9064
50.9911
48.3383
45.9513
43.7835
41.7965
39.9575
38.2398
36.6218
35.0911
33.6401
32.2688
30.972
29.7414
28.582
79.7402
79.6151
79.4965
79.3994
79.3213
79.2613
79.2181
79.1899
79.1742
79.1684
79.1709
79.1755
79.1855
79.1873
79.8901
80.0361
80.1657
80.2583
80.2853
80.2102
79.9889
79.5698
78.8966
77.9118
76.5635
74.8138
72.6476
70.0938
67.2884
64.3673
61.2235
57.8674
54.6012
51.5196
48.6681
46.1061
43.8213
41.7613
39.8828
38.151
36.5376
35.0202
33.5857
32.2264
30.942
29.7282
28.5758
27.4912
79.9384
79.7915
79.6455
79.5221
79.4189
79.3357
79.2719
79.2258
79.1954
79.1781
79.1709
79.1724
79.1762
79.1854
79.187
80.1102
80.2697
80.4012
80.4799
80.4722
80.3365
80.0237
79.4785
78.6426
77.4603
75.8847
73.8878
71.4683
68.6754
65.6622
62.3949
58.8824
55.4356
52.1645
49.1366
46.3773
43.928
41.7609
39.8184
38.0541
36.4323
34.9241
33.5067
32.1667
30.8968
29.6964
28.5623
27.4847
26.4714
80.1705
80.0038
79.8294
79.6778
79.5467
79.4372
79.3493
79.2819
79.2331
79.2006
79.1817
79.1733
79.1738
79.1768
79.1853
79.1868
80.3616
80.529
80.6537
80.7064
80.6484
80.4328
80.0063
79.3109
78.2884
76.8863
75.0658
72.8103
70.137
67.1094
63.7236
60.0543
56.4194
52.9462
49.7172
46.7758
44.135
41.8167
39.7789
37.9605
36.3137
34.8027
33.3991
32.0799
30.832
29.6485
28.5289
27.4709
26.4645
25.5189
80.4362
80.2533
80.0507
79.8699
79.7088
79.5698
79.4543
79.3619
79.2911
79.2399
79.2055
79.1851
79.1755
79.175
79.1774
79.1853
79.1866
80.6419
80.8093
80.9158
80.9277
80.8006
80.4834
79.9189
79.0484
77.8153
76.1731
74.0924
71.5733
68.6451
65.2197
61.395
57.5649
53.8759
50.4282
47.2792
44.455
41.9553
39.7822
37.8817
36.1913
34.6631
33.2623
31.9613
30.7378
29.579
28.4786
27.436
26.4506
25.5116
24.6301
80.7332
80.5402
80.3112
80.1012
79.9086
79.7376
79.5912
79.4701
79.3736
79.2997
79.2461
79.2099
79.1882
79.1774
79.1761
79.178
79.1853
79.1864
80.9468
81.1037
81.1778
81.1307
80.9133
80.4701
79.7423
78.6712
77.2047
75.3037
72.9538
70.1643
66.8202
62.9183
58.8872
54.9676
51.2812
47.9026
44.87
42.1903
39.8498
37.8318
36.0735
34.5125
33.1026
31.81
30.609
29.478
28.4045
27.3835
26.4142
25.4975
24.6224
23.801
81.0573
80.8629
80.6113
80.3739
80.1494
79.9445
79.7642
79.6109
79.4846
79.3842
79.3075
79.2517
79.2139
79.1909
79.1791
79.177
79.1784
79.1852
79.1862
81.2695
81.4026
81.4269
81.2999
80.9681
80.3731
79.4553
78.1589
76.4376
74.265
71.6333
68.4166
64.5644
60.4034
56.2383
52.2904
48.6566
45.3904
42.5075
39.9947
37.8269
35.9705
34.3566
32.9249
31.6312
30.444
29.3394
28.2971
27.3052
26.3596
25.4599
24.608
23.7926
23.0313
81.4021
81.218
80.9502
80.689
80.4336
80.1937
79.9773
79.7885
79.6287
79.4977
79.3938
79.3144
79.2567
79.2174
79.1932
79.1806
79.1777
79.1788
79.1852
79.1861
81.6007
81.6936
81.6476
81.4169
80.9447
80.1704
79.0364
77.4909
75.4981
73.0365
69.9723
66.222
62.056
57.7051
53.4716
49.5531
46.0241
42.9114
40.2068
37.8786
35.8928
34.2016
32.732
31.4275
30.247
29.1616
28.1495
27.1919
26.2775
25.4035
24.5693
23.7782
23.0187
22.3927
81.7581
81.6001
81.3252
81.0463
80.7627
80.4882
80.2341
80.0071
79.8103
79.6446
79.5092
79.4021
79.3204
79.2609
79.2202
79.1951
79.1817
79.1784
79.1792
79.1852
79.186
81.9282
81.9614
81.8215
81.4609
80.8202
79.8394
78.463
76.6485
74.3633
71.4688
67.8488
63.7302
59.3126
54.8403
50.606
46.7798
43.4065
40.4836
37.9805
35.8496
34.0515
32.5263
31.199
30.0186
28.9475
27.9597
27.0358
26.1586
25.3178
24.5113
23.7385
23.0048
22.3882
21.8557
82.1134
82.0009
81.7314
81.4436
81.137
80.8299
80.5378
80.2705
80.0335
79.8294
79.6584
79.5192
79.4092
79.3254
79.2643
79.2226
79.1967
79.1827
79.1789
79.1795
79.1852
79.1859
82.2368
82.1876
81.9276
81.4086
80.5711
79.3556
77.7144
75.6069
72.8911
69.4196
65.3783
60.9488
56.3501
51.8321
47.6711
43.9987
40.8262
38.123
35.8386
33.9136
32.3053
30.9445
29.7562
28.6958
27.7297
26.8349
25.9947
25.1939
24.4223
23.6792
22.9642
22.3787
21.8607
21.2963
82.4523
82.4095
82.1617
81.8772
81.5552
81.2195
80.8906
80.5821
80.3025
80.0565
79.8458
79.67
79.5273
79.4148
79.3292
79.2669
79.2244
79.198
79.1835
79.1794
79.1797
79.1852
79.1858
82.5078
82.351
81.942
81.2354
80.1714
78.6966
76.7639
74.2287
70.9152
66.9745
62.572
57.9057
53.2043
48.721
44.7036
41.2388
38.3041
35.8431
33.7892
32.074
30.6546
29.455
28.4013
27.4559
26.5899
25.7836
25.0226
24.2937
23.5872
22.904
22.3379
21.8523
21.2963
20.6921
82.756
82.8119
82.6061
82.3409
82.0144
81.6565
81.2938
80.9446
80.6208
80.33
80.0758
79.8593
79.6793
79.5335
79.4189
79.332
79.2689
79.2258
79.199
79.1842
79.1798
79.1799
79.1852
79.1858
82.7199
82.4274
81.8395
80.9141
79.597
77.8335
75.4754
72.3238
68.5036
64.166
59.4806
54.6529
49.9265
45.5523
41.7399
38.5271
35.8587
33.6552
31.8378
30.3326
29.0988
28.0556
27.1312
26.2955
25.5246
24.802
24.1157
23.4544
22.8092
22.2774
21.8123
21.2842
20.6867
20.0322
83.0024
83.1906
83.0517
82.8261
82.5092
82.1386
81.7474
81.3596
80.9914
80.6537
80.3528
80.0914
79.8696
79.686
79.5378
79.4218
79.334
79.2703
79.2268
79.1997
79.1846
79.18
79.1801
79.1852
79.1857
82.8482
82.3909
81.5916
80.4188
78.8164
76.6291
73.6404
69.9578
65.7213
61.0668
56.1653
51.2451
46.5652
42.3671
38.8122
35.8868
33.5047
31.5675
29.9879
28.6898
27.6363
26.7436
25.9424
25.211
24.53
23.8864
23.2703
22.6725
22.1803
21.7512
21.2441
20.6713
20.0246
19.3155
83.1658
83.5255
83.4826
83.3213
83.0324
82.6616
82.25
81.8277
81.4163
81.0309
80.6806
80.3707
80.1028
79.8767
79.6902
79.5404
79.4235
79.3351
79.2712
79.2275
79.2002
79.185
79.1803
79.1802
79.1851
79.1857
82.8658
82.2122
81.171
79.7153
77.6901
74.8643
71.3334
67.2295
62.6529
57.7344
52.673
47.7256
43.1613
39.2013
35.9481
33.3367
31.2534
29.5854
28.2409
27.1445
26.2644
25.5153
24.8313
24.1986
23.6023
23.0328
22.4826
22.0406
21.6523
21.1817
20.6301
20.0084
19.307
18.5398
83.2176
83.7927
83.8794
83.812
83.5738
83.2193
82.7982
82.348
81.8967
81.4638
81.0626
80.7011
80.3834
80.1101
79.8806
79.6923
79.5416
79.4241
79.3356
79.2715
79.2278
79.2005
79.1852
79.1805
79.1803
79.1851
79.1857
82.7425
81.8623
80.5408
78.6614
75.9961
72.6283
68.6813
64.2225
59.3419
54.2008
49.0358
44.13
39.7509
36.0857
33.1707
30.8916
29.1126
27.7118
26.5966
25.6945
24.9799
24.3673
23.7941
23.2542
22.7376
22.2377
21.8461
21.5099
21.0809
20.5657
19.9659
19.2906
18.5307
17.7005
83.1253
83.966
84.2195
84.2806
84.1205
83.8028
83.3868
82.9182
82.4321
81.954
81.5015
81.0864
80.7151
80.3907
80.1134
79.8818
79.6925
79.5414
79.4239
79.3354
79.2715
79.2278
79.2006
79.1854
79.1806
79.1803
79.1851
79.1857
82.4463
81.3023
79.5562
77.0389
73.8398
70.0674
65.7573
60.9627
55.8048
50.486
45.2815
40.4915
36.3667
33.0469
30.4982
28.5618
27.087
25.9476
25.0536
24.337
23.7792
23.2956
22.8268
22.3741
21.9321
21.5951
21.3116
20.9354
20.4624
19.8991
19.2469
18.5138
17.691
16.7926
82.8524
84.0169
84.4773
84.7062
84.6564
84.4007
84.0082
83.5341
83.0211
82.5017
81.9992
81.5293
81.1019
80.7223
80.393
80.1133
79.8806
79.691
79.54
79.4228
79.3347
79.271
79.2276
79.2009
79.1858
79.1807
79.1803
79.1851
79.1858
81.9357
80.3835
78.0081
74.9676
71.3783
67.2399
62.5706
57.4537
52.0502
46.6086
41.4385
36.8429
33.0386
30.1074
27.9442
26.3543
25.1786
24.2919
23.6089
23.0683
22.6585
22.2962
21.9253
21.5543
21.2812
21.0556
20.7331
20.3137
19.7933
19.178
18.4689
17.6736
16.7828
15.8111
82.3519
83.914
84.624
85.0649
85.1626
84.9987
84.6526
84.1892
83.6603
83.1061
82.5563
82.0319
81.5466
81.1089
80.7234
80.3911
80.1102
79.8773
79.6881
79.5376
79.4211
79.3334
79.2702
79.2278
79.2014
79.1859
79.1807
79.1803
79.1851
79.1858
81.0562
78.9118
76.027
72.6084
68.654
64.141
59.1148
53.6944
48.0881
42.5914
37.5383
33.217
29.7936
27.2849
25.5186
24.2729
23.3873
22.7421
22.2592
21.8845
21.6136
21.365
21.0857
20.8919
20.7347
20.4716
20.1069
19.6409
19.0695
18.3979
17.6274
16.765
15.8012
14.751
83.6183
81.4661
84.6264
85.3297
85.6166
85.5795
85.3072
84.875
84.3446
83.7647
83.1727
82.5956
82.0518
81.5535
81.1083
80.7192
80.3854
80.1044
79.8722
79.6839
79.5344
79.4185
79.3316
79.2702
79.2286
79.2017
79.1859
79.1806
79.1802
79.1851
79.1859
79.6317
77.0232
73.7718
69.9897
65.6518
60.7579
55.3818
49.6866
43.9337
38.4621
33.6152
29.6461
26.6557
24.5932
23.2274
22.3184
21.7111
21.2949
21.0004
20.7813
20.6403
20.4979
20.4075
20.3358
20.1432
19.8396
19.4294
18.9131
18.2865
17.5543
16.7176
15.7829
14.741
13.6069
84.4488
82.9789
80.0224
85.4683
85.9938
86.1224
85.9565
85.5804
85.0665
84.4733
83.8465
83.2203
82.6189
82.0587
81.551
81.1012
80.7103
80.3765
80.0965
79.8655
79.6786
79.5301
79.4153
79.3314
79.2714
79.229
79.2017
79.1858
79.1804
79.18
79.1851
79.186
77.8053
74.8716
71.2604
67.088
62.3545
57.077
51.366
45.4374
39.609
34.2542
29.7059
26.1606
23.6446
22.0424
21.0733
20.4896
20.1467
19.9462
19.8281
19.7543
19.7344
19.7975
19.8382
19.734
19.5032
19.1558
18.6964
18.1258
17.4397
16.6424
15.7344
14.7222
13.5968
12.3734
85.4474
83.9626
81.8633
78.1921
86.2634
86.6049
86.5818
86.2918
85.8166
85.2259
84.5746
83.9052
83.2485
82.6263
82.0542
81.5405
81.0884
80.6975
80.3649
80.0866
79.8575
79.6719
79.525
79.4146
79.3331
79.2719
79.229
79.2014
79.1854
79.1802
79.1799
79.1851
79.1861
75.7254
72.4683
68.4633
63.8845
58.7456
53.0874
47.0667
40.9606
35.1428
30.0062
25.8476
22.7887
20.7766
19.6384
19.0563
18.7833
18.69
18.6912
18.7375
18.7991
19.003
19.2098
19.2222
19.0829
18.8107
18.4161
17.9037
17.2746
16.5245
15.6571
14.6726
13.5776
12.3633
11.0453
86.3958
85.1543
83.008
80.3809
76.1208
86.9978
87.1623
86.9921
86.5829
86.0142
85.352
84.6478
83.9401
83.2572
82.6198
82.0399
81.5232
81.0709
80.6814
80.351
80.0751
79.8478
79.6642
79.5236
79.417
79.3338
79.2719
79.2286
79.2008
79.1852
79.18
79.1797
79.1852
79.1862
73.3984
69.7784
65.3608
60.361
54.8104
48.7814
42.4881
36.2771
30.5714
25.7598
22.0766
19.5543
18.063
17.3839
17.1744
17.1956
17.3358
17.5248
17.724
18.0284
18.3896
18.574
18.5559
18.3785
18.0617
17.6161
17.0467
16.3545
15.5357
14.5931
13.5269
12.3435
11.0353
9.61746
87.2756
86.2993
84.4346
81.6938
78.6464
73.811
87.6709
87.6625
87.3504
86.828
86.1718
85.4441
84.6921
83.9514
83.2489
82.6013
82.0172
81.5
81.0493
80.6625
80.3351
80.0615
79.8366
79.6619
79.5268
79.418
79.3338
79.2714
79.2278
79.2005
79.1849
79.1797
79.1794
79.1852
79.1863
70.7835
66.7829
61.9349
56.5011
50.5361
44.154
37.6404
31.416
25.9373
21.559
18.427
16.477
15.5113
15.2786
15.4237
15.7209
16.0786
16.4421
16.9072
17.3825
17.7262
17.8864
17.8351
17.6167
17.2518
16.7513
16.1205
15.3608
14.4681
13.4452
12.2919
11.0148
9.60773
8.08504
88.0857
87.3693
85.8192
83.3675
80.1333
76.6809
71.2141
88.2783
88.1021
87.6541
87.0254
86.2886
85.5013
84.7077
83.9419
83.2261
82.5727
81.9875
81.4719
81.0244
80.6412
80.3166
80.046
79.8331
79.6661
79.5281
79.418
79.333
79.2702
79.2275
79.2005
79.1846
79.1793
79.1791
79.1852
79.1865
67.8626
63.4651
58.1692
52.2891
45.9101
39.2035
32.5408
26.4144
21.2884
17.4476
14.9283
13.5712
13.1248
13.3201
13.7991
14.3536
14.9129
15.5704
16.2229
16.6841
17.009
17.143
17.0559
16.7932
16.3764
15.8169
15.1202
14.288
13.3165
12.208
10.9624
9.58677
8.07587
6.44127
88.8206
88.3638
87.1224
85.0052
82.0567
78.3733
74.4376
68.3106
88.8154
88.4777
87.9013
87.1739
86.3633
85.5239
84.6982
83.9148
83.191
82.5355
81.9518
81.4398
80.9966
80.6168
80.2959
80.0409
79.8386
79.6678
79.5281
79.417
79.3313
79.2701
79.2278
79.2002
79.1841
79.1789
79.1788
79.1852
79.1867
64.6208
59.8109
54.0474
47.7069
40.9199
33.932
27.2145
21.3186
16.6768
13.4674
11.6049
10.8463
10.9038
11.5037
12.2943
13.0873
13.9757
14.841
15.4836
15.9296
16.234
16.3395
16.2138
15.9034
15.4308
14.808
14.0407
13.131
12.0755
10.8762
9.53353
8.055
6.43495
4.3758
89.4742
89.2755
88.3459
86.5562
83.9474
80.5711
76.3685
71.8999
65.0862
89.2782
88.7866
88.0903
87.272
86.3962
85.5159
84.6673
83.8729
83.1456
82.4913
81.9114
81.4044
80.9651
80.5895
80.2888
80.048
79.8408
79.6678
79.5267
79.4146
79.3316
79.271
79.2277
79.1996
79.1835
79.1783
79.1784
79.1852
79.187
61.0464
55.8053
49.5488
42.7339
35.5515
28.3463
21.6977
16.1836
12.1559
9.65527
8.47534
8.30699
8.84485
9.82333
10.9028
12.0705
13.1922
14.0534
14.6855
15.1149
15.397
15.4716
15.3042
14.9424
14.4099
13.7193
12.8767
11.8845
10.7399
9.4451
8.00084
6.41475
4.36609
1.93146
90.0413
90.0961
89.4829
88.0235
85.7463
82.7314
78.8707
74.098
69.061
61.5298
89.6632
89.0267
88.2193
87.3198
86.3922
85.4821
84.6185
83.8187
83.0918
82.4414
81.8671
81.3644
80.9301
80.5799
80.2978
80.0508
79.8408
79.6661
79.5236
79.4153
79.3334
79.2715
79.2274
79.1989
79.1826
79.1777
79.1779
79.1853
79.1873
57.1262
51.428
44.6482
37.3424
29.79
22.4634
16.0394
11.0715
7.77772
6.04278
5.55196
5.95333
6.94279
8.27188
9.78704
11.2216
12.3471
13.2041
13.8247
14.236
14.4937
14.5347
14.3224
13.9054
13.3088
12.5458
11.6229
10.5432
9.30485
7.91004
6.36061
4.34185
1.91929
-0.534516
90.5178
90.8171
90.5234
89.4007
87.457
84.7931
81.3247
76.9316
71.5564
65.9187
57.6288
89.9676
89.1956
88.2877
87.3229
86.3569
85.4267
84.5548
83.7542
83.0311
82.3868
81.8172
81.3201
80.9175
80.5912
80.3013
80.0508
79.8386
79.6618
79.5249
79.4185
79.3347
79.2715
79.2267
79.1979
79.1816
79.1769
79.1774
79.1853
79.1876
52.8409
46.6535
39.3089
31.4972
23.6267
16.3146
10.3024
6.0489
3.59063
2.65416
2.84051
3.78178
5.19029
7.03029
8.8571
10.3071
11.437
12.2892
12.8971
13.2883
13.5194
13.5241
13.2634
12.7873
12.1223
11.2822
10.2742
9.10241
7.76574
6.2678
4.28479
1.89316
-0.542832
-2.98164
90.9005
91.4314
91.4572
90.6765
89.0733
86.7593
83.6735
79.6985
74.75
68.7453
62.4721
53.3647
90.1877
89.2921
88.3024
87.2884
86.2956
85.3533
84.4789
83.6816
82.9649
82.3257
81.7623
81.304
80.9315
80.5956
80.3013
80.048
79.8331
79.6642
79.5302
79.4211
79.3354
79.2711
79.2257
79.1966
79.1804
79.176
79.1768
79.1854
79.188
48.1656
41.4442
33.4842
25.1675
17.069
9.95108
4.56236
1.18368
-0.363709
-0.49483
0.34148
1.78568
3.79132
5.99743
7.85667
9.32353
10.458
11.3047
11.8983
12.2675
12.4697
12.4351
12.1224
11.5831
10.8452
9.92339
8.82584
7.55747
6.11951
4.18742
1.83276
-0.565869
-2.98848
-5.40035
91.1846
91.9335
92.2739
91.8396
90.584
88.6233
85.9206
82.3524
77.8492
72.331
65.6726
58.7184
48.7124
90.3216
89.3241
88.2718
87.2225
86.2128
85.2653
84.3933
83.6025
82.891
82.2583
81.7419
81.3213
80.9368
80.5956
80.2977
80.0409
79.8366
79.672
79.5344
79.4228
79.3355
79.2702
79.2242
79.195
79.179
79.1749
79.1761
79.1855
79.1884
43.0644
35.745
27.1142
18.318
10.1367
3.44629
-1.09351
-3.45895
-4.05326
-3.39604
-1.94981
0.197104
2.63066
4.88828
6.78266
8.26744
9.40623
10.2465
10.8243
11.1693
11.3399
11.2628
10.8945
10.2879
9.47261
8.46476
7.27326
5.90541
4.03349
1.7305
-0.624478
-3.01125
-5.4064
-7.78233
91.3669
92.3168
92.9638
92.8785
91.9777
90.373
88.058
84.8977
80.8238
75.7836
69.6879
62.349
54.6512
43.6404
90.3781
89.3015
88.2034
87.1307
86.1123
85.1657
84.2999
83.5143
82.8097
82.2331
81.763
81.3277
80.9368
80.5912
80.2887
80.0461
79.8479
79.6787
79.5377
79.4238
79.335
79.2688
79.2224
79.193
79.1773
79.1737
79.1754
79.1856
79.1889
37.4771
29.472
20.116
10.9105
2.87254
-3.10374
-6.5721
-7.82232
-7.45583
-6.04924
-3.7666
-1.11659
1.38728
3.70033
5.63195
7.13519
8.27795
9.11064
9.67078
9.98932
10.1256
10.0027
9.57491
8.89684
8.00005
6.9019
5.61358
3.81208
1.57005
-0.727024
-3.06919
-5.42952
-7.78753
-10.114
91.4568
92.5758
93.5141
93.7814
93.2421
91.9967
90.0726
87.3268
83.6797
79.095
73.5177
66.8389
58.7843
50.2645
38.0967
90.3691
89.2335
88.1037
87.0177
85.9979
85.0569
84.1959
83.4172
82.779
82.2587
81.7707
81.3277
80.9315
80.5798
80.2959
80.0616
79.8576
79.6839
79.54
79.424
79.3338
79.2667
79.2201
79.1907
79.1754
79.1723
79.1746
79.1856
79.1895
31.316
22.5172
12.3946
2.92959
-4.64441
-9.58363
-11.7826
-11.8605
-10.5606
-8.14384
-5.26283
-2.51974
0.0597797
2.43126
4.40149
5.92345
7.06961
7.89342
8.43402
8.72354
8.82252
8.65041
8.15928
7.40574
6.42337
5.23202
3.51123
1.34067
-0.890159
-3.17222
-5.48713
-7.81053
-10.1183
-12.3816
91.4685
92.7216
93.9116
94.5315
94.3641
93.4812
91.9504
89.6267
86.4108
82.2721
77.1831
71.0736
63.8038
54.987
45.5418
31.999
90.3054
89.1278
87.9786
86.888
85.8725
84.9356
84.0813
83.3802
82.8097
82.2678
81.7707
81.3213
80.9174
80.5896
80.3169
80.0753
79.8656
79.6881
79.5413
79.4233
79.3318
79.2641
79.2172
79.188
79.1732
79.1708
79.1738
79.1857
79.19
24.4655
14.7403
3.85973
-5.60284
-12.2891
-15.8641
-16.6419
-15.5418
-12.9994
-9.86
-6.85483
-4.01162
-1.35261
1.07906
3.08874
4.62936
5.77812
6.59155
7.11048
7.36826
7.42685
7.20198
6.64374
5.81088
4.74006
3.11786
1.03045
-1.12402
-3.33729
-5.59111
-7.86718
-10.1409
-12.385
-14.5721
91.4146
92.7714
94.1647
95.1071
95.3228
94.8138
93.6763
91.7835
89.0061
85.3119
80.6912
75.1125
68.4766
60.6023
50.9637
40.4503
25.2371
90.1965
88.9916
87.8334
86.7452
85.7325
84.8017
84.0373
83.4168
82.8204
82.2678
81.763
81.3038
80.9302
80.6171
80.3354
80.0868
79.8723
79.691
79.5414
79.4216
79.329
79.2607
79.2138
79.185
79.1708
79.1692
79.173
79.1858
79.1906
16.7458
5.96094
-5.56611
-14.6087
-19.8921
-21.8109
-21.0784
-18.4175
-14.9842
-11.6769
-8.53836
-5.59044
-2.85013
-0.357433
1.69194
3.25076
4.401
5.20225
5.69718
5.92038
5.93532
5.65415
5.0251
4.11019
2.61074
0.625452
-1.44015
-3.57392
-5.75803
-7.97139
-10.1962
-12.407
-14.5745
-16.673
91.3065
92.7409
94.293
95.5117
96.0892
95.9719
95.2352
93.7806
91.4534
88.2068
84.0442
78.9619
72.9119
65.7529
57.2557
46.7201
34.953
17.6394
90.0508
88.8312
87.6726
86.5854
85.5778
84.75
84.0807
83.4294
82.8204
82.2587
81.7417
81.3203
80.9655
80.6417
80.3514
80.0966
79.8773
79.6924
79.5402
79.4187
79.3251
79.2565
79.2098
79.1815
79.1682
79.1675
79.1722
79.1859
79.1913
7.87958
-4.05832
-15.8999
-23.9273
-27.2645
-27.2815
-24.5231
-20.7378
-17.0712
-13.5844
-10.3074
-7.25345
-4.43155
-1.87814
0.210373
1.78633
2.93646
3.72347
4.19189
4.37751
4.34548
4.00452
3.30196
1.96155
0.104057
-1.85274
-3.89335
-5.99657
-8.13899
-10.2999
-12.4607
-14.5958
-16.6744
-18.6719
91.1541
92.6437
94.3159
95.7638
96.6628
96.921
96.6003
95.6002
93.7372
90.9482
87.2389
82.6313
77.1133
70.6115
62.9289
53.7894
42.2561
29.0071
8.92498
89.8761
88.6522
87.4918
86.4081
85.5176
84.801
84.0953
83.4294
82.8096
82.2329
81.7625
81.365
80.9973
80.663
80.3652
80.1045
79.8805
79.6921
79.5376
79.4145
79.3202
79.2515
79.2053
79.1779
79.1655
79.1658
79.1714
79.1861
79.192
-2.60436
-15.4967
-27.0809
-33.3878
-34.1459
-31.5182
-27.2699
-23.1534
-19.2405
-15.5694
-12.1543
-8.99568
-6.09383
-3.48144
-1.35545
0.23581
1.38375
2.15415
2.59332
2.7383
2.65594
2.2525
1.1286
-0.562675
-2.38312
-4.30983
-6.3174
-8.37776
-10.4669
-12.5632
-14.6475
-16.6946
-18.6724
-20.5584
90.9667
92.4922
94.2513
95.882
97.0622
97.6579
97.7301
97.2096
95.8394
93.5233
90.272
86.1233
81.1023
75.1768
68.2426
60.0333
50.2338
37.5657
22.5619
-1.40002
89.6789
88.4498
87.2906
86.3387
85.5772
84.818
84.0953
83.4168
82.7787
82.2586
81.8181
81.4053
81.0251
80.6819
80.3767
80.1101
79.8816
79.69
79.5332
79.409
79.3142
79.2458
79.2003
79.174
79.1627
79.164
79.1705
79.1862
79.1927
-15.3705
-28.5714
-39.2642
-42.4349
-39.515
-34.828
-30.086
-25.6281
-21.4677
-17.6169
-14.0685
-10.8095
-7.83171
-5.16399
-3.00359
-1.39975
-0.256643
0.494347
0.901381
1.0026
0.867243
0.047922
-1.41737
-3.06033
-4.84415
-6.73457
-8.69756
-10.704
-12.7283
-14.748
-16.744
-18.6915
-20.5576
-22.3189
90.7522
92.2975
94.1153
95.8847
97.3062
98.2018
98.6201
98.5553
97.7231
95.9165
93.1354
89.4415
84.8878
79.4888
73.1843
65.8375
57.0963
46.6209
32.6415
15.5919
-14.1952
89.4544
88.2236
87.2113
86.4081
85.5967
84.818
84.0806
83.3799
82.81
82.3267
81.8682
81.4408
81.05
80.6979
80.3855
80.1131
79.8803
79.6857
79.5271
79.4019
79.3072
79.2395
79.1951
79.1698
79.1597
79.1622
79.1697
79.1863
79.1935
-32.0603
-43.4354
-51.1377
-49.6086
-43.6477
-38.129
-32.9067
-28.1196
-23.7263
-19.7078
-16.0357
-12.6845
-9.63764
-6.92053
-4.73037
-3.11772
-1.98284
-1.25443
-0.882618
-0.827589
-1.37631
-2.52468
-3.92743
-5.52526
-7.26824
-9.11191
-11.02
-12.9619
-14.91
-16.8419
-18.7382
-20.5744
-22.3183
-23.9486
90.5061
92.0687
93.9228
95.7907
97.4129
98.5725
99.2932
99.6255
99.3231
98.0894
95.8181
92.5843
88.4823
83.5633
77.8225
71.1678
63.4283
54.148
42.9949
27.494
8.17851
-31.9888
89.2021
88.1338
87.2916
86.4304
85.5967
84.801
84.037
83.4176
82.8923
82.3882
81.9127
81.4728
81.0714
80.7105
80.391
80.1132
79.8764
79.679
79.5189
79.3934
79.2993
79.2327
79.1895
79.1656
79.1567
79.1603
79.1689
79.1864
79.1943
-52.5753
-56.2325
-62.3556
-54.8024
-47.5785
-41.3225
-35.6659
-30.585
-25.9857
-21.8187
-18.0383
-14.6073
-11.5017
-8.74366
-6.53023
-4.91382
-3.79128
-3.08906
-2.755
-3.11394
-3.98084
-5.04914
-6.39633
-7.94714
-9.64027
-11.4279
-13.2716
-15.1383
-16.9994
-18.8326
-20.6187
-22.335
-23.9477
-25.4379
90.2285
91.8014
93.6854
95.6184
97.4
98.7892
99.7729
100.443
100.618
99.9671
98.2832
95.5469
91.8915
87.424
82.1813
76.1352
69.1571
61.0455
51.2358
39.4117
22.2194
0.198766
-54.1949
89.1009
88.2262