/*--------------------------------*- C++ -*----------------------------------*\
  =========                 |
  \\      /  F ield         | OpenFOAM: The Open Source CFD Toolbox
   \\    /   O peration     | Website:  https://openfoam.org
    \\  /    A nd           | Version:  8
     \\/     M anipulation  |
\*---------------------------------------------------------------------------*/
FoamFile
{
    version     2.0;
    format      ascii;
    class       volScalarField;
    location    "0.02";
    object      k;
}
// * * * * * * * * * * * * * * * * * * * * * * * * * * * * * * * * * * * * * //

dimensions      [0 2 -2 0 0 0 0];

internalField   nonuniform List<scalar> 
15677
(
0.334005
0.364697
0.294333
0.368632
0.357012
0.280605
0.370661
0.359738
0.365618
0.282389
0.371879
0.36148
0.361139
0.382973
0.288682
0.372619
0.363667
0.357533
0.368039
0.40154
0.300353
0.373055
0.365625
0.357705
0.357953
0.37999
0.419434
0.312
0.373285
0.367165
0.359347
0.354412
0.360964
0.393402
0.434947
0.322461
0.373373
0.368297
0.361256
0.354611
0.353084
0.36704
0.40644
0.447739
0.331231
0.373375
0.36908
0.362971
0.356188
0.351168
0.353647
0.3739
0.418206
0.457901
0.338269
0.373339
0.369569
0.364353
0.358078
0.351986
0.348997
0.355159
0.380716
0.428265
0.465719
0.343758
0.373298
0.369828
0.365377
0.35983
0.353775
0.34863
0.347525
0.3572
0.386948
0.436492
0.471598
0.348122
0.37327
0.36993
0.366066
0.361278
0.355724
0.350028
0.345727
0.34644
0.359143
0.392333
0.443009
0.476146
0.351621
0.373258
0.369943
0.36647
0.362372
0.357484
0.351988
0.346568
0.343062
0.345436
0.360856
0.396835
0.448217
0.479508
0.354249
0.373255
0.369924
0.366663
0.363115
0.358916
0.353941
0.348418
0.343238
0.340484
0.344452
0.362349
0.400651
0.452197
0.48179
0.356206
0.373255
0.369908
0.366726
0.363551
0.359972
0.355637
0.350483
0.344899
0.339967
0.338007
0.343579
0.363779
0.403749
0.454846
0.483308
0.357994
0.373255
0.3699
0.366734
0.363758
0.36066
0.356966
0.352392
0.347027
0.341418
0.336817
0.335773
0.343003
0.365092
0.405818
0.456481
0.484673
0.359286
0.373255
0.369896
0.36673
0.363821
0.361038
0.357899
0.353968
0.349117
0.343587
0.338059
0.333956
0.333998
0.342707
0.365933
0.407058
0.457789
0.485577
0.360412
0.373255
0.369894
0.366727
0.363832
0.361182
0.358464
0.355142
0.350926
0.345846
0.340262
0.334999
0.331608
0.33269
0.342388
0.366394
0.408093
0.458467
0.486206
0.361176
0.373255
0.369893
0.366725
0.363829
0.361222
0.358714
0.35591
0.352339
0.34788
0.342678
0.33723
0.332455
0.329797
0.331616
0.342115
0.366892
0.408484
0.45856
0.486616
0.362085
0.373254
0.369892
0.366723
0.363824
0.361225
0.358803
0.356291
0.353325
0.349533
0.344926
0.339791
0.3347
0.330453
0.328331
0.330819
0.342096
0.367053
0.408421
0.458477
0.487115
0.362652
0.373254
0.369891
0.366722
0.36382
0.361218
0.358824
0.356451
0.35386
0.350742
0.346808
0.342238
0.337387
0.33269
0.328823
0.327263
0.330511
0.342123
0.366996
0.40819
0.45827
0.487404
0.363605
0.373254
0.369889
0.36672
0.363817
0.361209
0.35882
0.356506
0.354115
0.351444
0.348233
0.344338
0.340016
0.335464
0.331036
0.327657
0.326849
0.330501
0.342129
0.366836
0.407726
0.457815
0.48796
0.364209
0.373254
0.369888
0.366719
0.363815
0.361203
0.358809
0.356514
0.354224
0.351806
0.349096
0.345972
0.342317
0.338221
0.333864
0.329905
0.327256
0.326856
0.330573
0.342158
0.366554
0.407085
0.45743
0.488393
0.365355
0.373254
0.369887
0.366718
0.363813
0.361198
0.358799
0.356506
0.354258
0.351979
0.349564
0.346998
0.344146
0.340658
0.33672
0.332861
0.32961
0.327297
0.327008
0.330791
0.342258
0.366226
0.406491
0.457061
0.489233
0.366064
0.373254
0.369887
0.366716
0.363812
0.361194
0.35879
0.356493
0.354259
0.352049
0.349802
0.34758
0.345322
0.34261
0.339286
0.335916
0.332713
0.329708
0.327545
0.327407
0.331268
0.342497
0.366073
0.406005
0.456787
0.489855
0.367432
0.373254
0.369886
0.366715
0.363811
0.361192
0.358784
0.35648
0.354247
0.352067
0.349907
0.347894
0.346005
0.343875
0.341392
0.338722
0.335902
0.332882
0.330082
0.328135
0.328228
0.332083
0.342996
0.366103
0.405543
0.456565
0.491066
0.36827
0.373254
0.369886
0.366715
0.363811
0.361191
0.358779
0.356468
0.35423
0.352061
0.349942
0.348045
0.346383
0.344614
0.342811
0.341057
0.338791
0.336159
0.333407
0.330907
0.329307
0.329515
0.333277
0.343796
0.366257
0.40518
0.456597
0.491931
0.369883
0.373254
0.369885
0.366714
0.363811
0.36119
0.358775
0.356459
0.354212
0.352044
0.349941
0.348104
0.346572
0.345027
0.343684
0.342646
0.341198
0.339176
0.336863
0.33452
0.332452
0.331047
0.331286
0.334859
0.344915
0.366615
0.40514
0.456706
0.493575
0.370895
0.373254
0.369885
0.366714
0.363811
0.361189
0.358772
0.356451
0.354196
0.352026
0.349926
0.348115
0.346652
0.345238
0.344209
0.343625
0.342844
0.341709
0.340074
0.338293
0.336432
0.334646
0.333393
0.333557
0.336942
0.346373
0.367339
0.40523
0.457028
0.49464
0.372629
0.373254
0.369885
0.366714
0.363811
0.361189
0.358769
0.356443
0.354182
0.352008
0.349906
0.348103
0.346674
0.345333
0.344509
0.344209
0.343869
0.34346
0.342815
0.341823
0.340569
0.339093
0.337572
0.336384
0.336436
0.339479
0.348295
0.368401
0.405497
0.457398
0.496933
0.374331
0.373254
0.369885
0.366714
0.363811
0.361188
0.358767
0.356437
0.354169
0.351991
0.349887
0.348082
0.34667
0.345366
0.344667
0.344537
0.344497
0.344573
0.344754
0.344845
0.344442
0.343691
0.342605
0.341288
0.340123
0.339932
0.342538
0.350672
0.369811
0.40603
0.458177
0.497609
0.375885
0.373254
0.369885
0.366714
0.363811
0.361187
0.358764
0.356432
0.354159
0.351977
0.349871
0.34806
0.346655
0.345371
0.344746
0.344716
0.344869
0.345276
0.346021
0.347
0.347783
0.348005
0.34778
0.347048
0.345898
0.344644
0.344146
0.346145
0.353555
0.371568
0.406847
0.45899
0.499128
0.377667
0.373254
0.369885
0.366715
0.363811
0.361187
0.358761
0.356427
0.35415
0.351965
0.349858
0.34804
0.346638
0.345365
0.344782
0.34481
0.345083
0.34571
0.346849
0.348427
0.350196
0.351748
0.352641
0.352936
0.352537
0.351458
0.350044
0.349075
0.350373
0.356906
0.373694
0.408055
0.460107
0.501423
0.379495
0.373254
0.369885
0.366715
0.363811
0.361186
0.358759
0.356422
0.354142
0.351955
0.349847
0.348023
0.346623
0.345355
0.344794
0.344857
0.345204
0.345973
0.347382
0.349381
0.351818
0.35448
0.356883
0.358473
0.359289
0.359146
0.358073
0.356331
0.354803
0.355192
0.360817
0.376558
0.409821
0.461474
0.504074
0.381469
0.369885
0.373257
0.366715
0.363811
0.361185
0.358757
0.356418
0.354136
0.351946
0.349839
0.348008
0.34661
0.345346
0.344792
0.344875
0.34527
0.346132
0.347726
0.350016
0.352927
0.356346
0.360011
0.363328
0.365644
0.36693
0.366991
0.365763
0.363599
0.361291
0.36065
0.365608
0.380376
0.412015
0.463126
0.506966
0.383636
0.366716
0.369896
0.373264
0.363811
0.361184
0.358754
0.356415
0.354131
0.35194
0.349833
0.347996
0.346598
0.345337
0.344781
0.344876
0.345301
0.34623
0.347951
0.350444
0.353691
0.357654
0.362184
0.366948
0.371246
0.374266
0.375988
0.376105
0.374628
0.371813
0.368596
0.367433
0.371601
0.384774
0.414622
0.465021
0.510112
0.385761
0.363811
0.366733
0.369918
0.373271
0.361182
0.358752
0.356412
0.354127
0.351934
0.349829
0.347986
0.346587
0.345329
0.344764
0.344866
0.345309
0.346283
0.348099
0.350741
0.354231
0.358587
0.363749
0.369512
0.375475
0.380768
0.384483
0.386513
0.386598
0.384634
0.38104
0.377581
0.37592
0.378258
0.38966
0.417587
0.467245
0.51332
0.387826
0.361181
0.363833
0.366768
0.36994
0.373278
0.358749
0.356409
0.354123
0.35193
0.349826
0.347978
0.346577
0.34532
0.344741
0.344846
0.3453
0.346303
0.348188
0.35095
0.354626
0.359279
0.36491
0.371413
0.378534
0.385747
0.392062
0.396361
0.398626
0.398441
0.395861
0.392357
0.388739
0.385289
0.385528
0.395049
0.420947
0.469626
0.516388
0.390419
0.358747
0.361206
0.363877
0.366804
0.369963
0.373286
0.356407
0.354121
0.351926
0.349824
0.347972
0.346567
0.345311
0.344715
0.344819
0.345279
0.346299
0.348229
0.351087
0.354922
0.359813
0.365813
0.372884
0.380879
0.389433
0.397956
0.405212
0.410038
0.412302
0.411721
0.409622
0.406357
0.400999
0.395445
0.393334
0.400836
0.424637
0.472207
0.520118
0.392544
0.356404
0.358776
0.361258
0.363923
0.366842
0.369986
0.373293
0.354118
0.351924
0.349823
0.347967
0.346558
0.345303
0.344687
0.344788
0.345247
0.346277
0.348237
0.351164
0.355132
0.360241
0.366551
0.374087
0.382774
0.392364
0.402439
0.412217
0.420384
0.425493
0.427639
0.427999
0.426614
0.421697
0.414232
0.406285
0.401626
0.406826
0.428638
0.475115
0.523427
0.394269
0.354117
0.356439
0.358836
0.361311
0.36397
0.36688
0.370011
0.373301
0.351922
0.349823
0.347964
0.34655
0.345295
0.344657
0.344754
0.345209
0.346242
0.348218
0.351196
0.35527
0.360573
0.367181
0.375128
0.384402
0.394836
0.406137
0.417705
0.428736
0.437566
0.442849
0.446441
0.448082
0.445204
0.438215
0.428303
0.417708
0.410354
0.413041
0.432881
0.47801
0.526169
0.456866
0.351921
0.354158
0.356511
0.358897
0.361365
0.364019
0.36692
0.370035
0.373309
0.349824
0.347962
0.346542
0.345288
0.344628
0.344719
0.345168
0.346198
0.34818
0.351197
0.355354
0.36082
0.367708
0.376068
0.385885
0.397063
0.409389
0.422393
0.435482
0.447542
0.456936
0.464157
0.469644
0.470028
0.465184
0.455732
0.443071
0.429607
0.419416
0.419446
0.437275
0.481038
0.532845
0.5326
0.349825
0.351968
0.354243
0.356584
0.35896
0.36142
0.364069
0.36696
0.370061
0.373317
0.347961
0.346534
0.345282
0.3446
0.344684
0.345124
0.346148
0.348129
0.351174
0.355399
0.361003
0.368138
0.376908
0.387295
0.399184
0.412446
0.426683
0.441446
0.455828
0.46886
0.480813
0.49052
0.495017
0.493595
0.48633
0.474065
0.458387
0.441868
0.428719
0.425988
0.441785
0.484217
0.539092
0.603102
0.347961
0.349877
0.352064
0.354331
0.35666
0.359024
0.361478
0.36412
0.367002
0.370087
0.373325
0.346527
0.345277
0.344573
0.344649
0.34508
0.346096
0.34807
0.351135
0.355415
0.361139
0.368494
0.377641
0.388619
0.401285
0.415473
0.430869
0.447109
0.4634
0.479044
0.495276
0.510537
0.519454
0.522294
0.518527
0.508421
0.493019
0.474095
0.454374
0.438175
0.432621
0.4464
0.487155
0.546062
0.684751
0.346521
0.34801
0.349984
0.352164
0.354421
0.356737
0.359089
0.361536
0.364174
0.367045
0.370113
0.373334
0.345273
0.344546
0.344616
0.345037
0.346044
0.348008
0.351087
0.355414
0.361241
0.368794
0.378288
0.389825
0.403333
0.418573
0.435152
0.452822
0.47083
0.488657
0.508001
0.528393
0.54334
0.550702
0.551215
0.544572
0.531222
0.512399
0.490043
0.467013
0.447705
0.439313
0.451035
0.490174
0.553607
0.771928
0.34527
0.346557
0.348111
0.350095
0.352267
0.354513
0.356816
0.359157
0.361597
0.364228
0.36709
0.37014
0.373343
0.344521
0.344585
0.344996
0.345994
0.347947
0.351035
0.355402
0.361321
0.369053
0.378869
0.390932
0.40526
0.421687
0.439659
0.458828
0.478547
0.498388
0.520412
0.54464
0.565234
0.578967
0.583972
0.581508
0.571464
0.554498
0.532013
0.506088
0.479679
0.457241
0.446013
0.455646
0.493091
0.561275
0.858215
0.344498
0.345305
0.346639
0.348218
0.35021
0.352373
0.354608
0.356896
0.359226
0.361659
0.364285
0.367135
0.370168
0.373351
0.344555
0.344958
0.345946
0.347887
0.350983
0.355385
0.361387
0.369284
0.379399
0.391958
0.407077
0.424688
0.444285
0.465296
0.486859
0.508768
0.533359
0.561043
0.585813
0.605606
0.617143
0.618958
0.612876
0.59894
0.57803
0.551688
0.522099
0.492281
0.466718
0.452682
0.460208
0.495813
0.568725
0.938627
0.344529
0.344487
0.345381
0.346725
0.34833
0.350329
0.352483
0.354705
0.356979
0.359296
0.361723
0.364344
0.367181
0.370195
0.37336
0.344921
0.345901
0.347832
0.350934
0.355368
0.361445
0.369495
0.379887
0.392915
0.408795
0.427562
0.448817
0.472071
0.495995
0.520196
0.547524
0.578706
0.607278
0.631442
0.649291
0.657572
0.65533
0.645009
0.626752
0.601615
0.571269
0.537959
0.504734
0.476078
0.459261
0.464601
0.498349
0.575633
1.01248
0.344888
0.344491
0.344491
0.345462
0.346815
0.348447
0.350452
0.352595
0.354805
0.357063
0.359369
0.36179
0.364403
0.367227
0.370222
0.373368
0.345858
0.347779
0.350888
0.355351
0.361499
0.369691
0.380342
0.393814
0.410423
0.430311
0.453219
0.478831
0.505729
0.532983
0.563458
0.598575
0.631101
0.659255
0.681449
0.696066
0.699939
0.69276
0.677609
0.654661
0.625072
0.590618
0.553568
0.516964
0.485259
0.465716
0.46878
0.500674
0.582117
1.0794
0.345823
0.344821
0.344433
0.344503
0.345548
0.346911
0.348571
0.350578
0.352711
0.354906
0.357148
0.359443
0.361858
0.364463
0.367272
0.370247
0.373376
0.34773
0.350846
0.355338
0.361551
0.369876
0.38077
0.394661
0.411963
0.432934
0.457484
0.485488
0.515543
0.546828
0.581665
0.621505
0.658639
0.691065
0.717195
0.735808
0.745715
0.743935
0.730938
0.710405
0.682452
0.648239
0.609615
0.568835
0.528904
0.494215
0.47202
0.472751
0.502878
0.58812
1.14088
0.347692
0.345713
0.344714
0.344366
0.34453
0.345639
0.347014
0.3487
0.350708
0.352829
0.35501
0.357236
0.35952
0.361926
0.364521
0.367315
0.370272
0.373384
0.350807
0.355327
0.361603
0.370052
0.381173
0.395459
0.413419
0.435431
0.461596
0.491985
0.525275
0.561042
0.601834
0.648357
0.691266
0.728971
0.759483
0.781565
0.7946
0.798072
0.789288
0.769587
0.743158
0.709935
0.670983
0.628162
0.583689
0.540499
0.502911
0.478138
0.476546
0.504955
0.59368
1.19722
0.350783
0.347512
0.345518
0.344602
0.344304
0.344571
0.345735
0.347123
0.348836
0.350842
0.35295
0.355116
0.357325
0.359596
0.361993
0.364578
0.367356
0.370296
0.373392
0.355317
0.361653
0.370221
0.381555
0.396211
0.414792
0.437801
0.46554
0.498274
0.53486
0.575446
0.62294
0.67873
0.730581
0.775545
0.811948
0.837966
0.853174
0.858055
0.853043
0.835767
0.808463
0.775663
0.736947
0.693187
0.646177
0.598068
0.551708
0.511318
0.484051
0.480169
0.506952
0.599002
1.24956
0.355325
0.350531
0.347166
0.345317
0.3445
0.344249
0.344626
0.345836
0.34724
0.348976
0.35098
0.353074
0.355223
0.357413
0.35967
0.362059
0.364633
0.367396
0.370319
0.373399
0.3617
0.37038
0.381915
0.396919
0.416085
0.440043
0.469298
0.504319
0.544259
0.589922
0.644496
0.711078
0.776812
0.834546
0.879819
0.911442
0.928736
0.933033
0.926457
0.910555
0.883167
0.847355
0.807742
0.763355
0.714757
0.663593
0.611927
0.562501
0.519417
0.489743
0.483638
0.508851
0.603749
1.29163
0.361767
0.35499
0.350004
0.346811
0.345135
0.344406
0.344203
0.344695
0.345941
0.347364
0.349123
0.35112
0.3532
0.355328
0.357499
0.359743
0.362123
0.364686
0.367435
0.370342
0.373407
0.370529
0.382252
0.397584
0.417299
0.442157
0.472861
0.510103
0.553429
0.604291
0.66614
0.745073
0.829004
0.908578
0.970838
1.01125
1.03156
1.0338
1.02192
0.999957
0.970489
0.93129
0.886075
0.839252
0.789052
0.735616
0.680363
0.625237
0.572855
0.527192
0.495206
0.486945
0.510665
0.607416
1.32686
0.370693
0.361332
0.354223
0.349461
0.346486
0.344966
0.344321
0.344167
0.344777
0.346051
0.347497
0.349274
0.351263
0.353323
0.355429
0.357582
0.359814
0.362185
0.364738
0.367473
0.370364
0.373414
0.382565
0.398203
0.418435
0.444142
0.476225
0.515613
0.562316
0.618365
0.687691
0.781021
0.887808
0.996946
1.08956
1.14889
1.17468
1.17444
1.1539
1.11993
1.07839
1.03261
0.97992
0.924455
0.870069
0.813956
0.755711
0.696453
0.637977
0.582757
0.534632
0.500432
0.490099
0.512135
0.610305
1.36487
0.382885
0.37014
0.360238
0.353432
0.348955
0.346184
0.344809
0.344246
0.344144
0.34487
0.346168
0.347638
0.349429
0.351405
0.353443
0.355528
0.357663
0.359884
0.362246
0.364789
0.367509
0.370385
0.373421
0.398779
0.419491
0.446
0.47939
0.520841
0.570865
0.632004
0.709183
0.819304
0.953427
1.09838
1.23079
1.32668
1.37049
1.36969
1.33896
1.28794
1.22622
1.16118
1.09654
1.02881
0.962336
0.900091
0.838002
0.775004
0.711842
0.650133
0.592199
0.541733
0.505419
0.492695
0.513376
0.613401
1.40588
0.399338
0.382185
0.368594
0.359113
0.352694
0.348477
0.345907
0.344664
0.344182
0.344136
0.344973
0.346291
0.347785
0.349583
0.351541
0.353558
0.355623
0.357742
0.359952
0.362306
0.364838
0.367545
0.370405
0.373425
0.420474
0.447729
0.482356
0.525783
0.57903
0.645145
0.730744
0.859937
1.02471
1.20946
1.38733
1.5303
1.615
1.62983
1.59117
1.52127
1.4333
1.33918
1.24739
1.16176
1.07769
0.999565
0.929234
0.861147
0.79347
0.726519
0.661703
0.601181
0.548489
0.509537
0.494906
0.514715
0.616538
1.45008
0.421396
0.398465
0.380011
0.367012
0.358062
0.351993
0.34802
0.345651
0.344532
0.344129
0.344148
0.345087
0.34642
0.347935
0.349733
0.351672
0.353669
0.355715
0.357819
0.360019
0.362364
0.364885
0.367579
0.370416
0.373424
0.449343
0.485123
0.530434
0.586786
0.657779
0.752461
0.90245
1.09955
1.32555
1.55132
1.74663
1.88434
1.94363
1.91763
1.83193
1.71619
1.58657
1.45673
1.33586
1.22766
1.12626
1.036
0.957429
0.883357
0.811094
0.740483
0.672692
0.609703
0.554058
0.513046
0.497327
0.516178
0.619918
1.49761
0.450817
0.420306
0.395423
0.377803
0.365534
0.35706
0.351323
0.347587
0.345416
0.344415
0.344077
0.344182
0.345208
0.346553
0.348084
0.349878
0.351799
0.353776
0.355804
0.357895
0.360085
0.362421
0.364931
0.367596
0.370415
0.373424
0.487713
0.534792
0.594121
0.669921
0.774312
0.946058
1.17568
1.44245
1.71597
1.9654
2.16177
2.27969
2.30119
2.22454
2.08474
1.91848
1.74421
1.57668
1.42536
1.2936
1.17421
1.07151
0.98462
0.904612
0.827877
0.753741
0.683103
0.616711
0.558794
0.516902
0.499994
0.517754
0.623236
1.5485
0.490029
0.449459
0.416063
0.392356
0.375736
0.364121
0.3561
0.350685
0.34718
0.345201
0.344313
0.344031
0.344236
0.345333
0.346686
0.34823
0.350018
0.351921
0.35388
0.355891
0.357968
0.360149
0.362476
0.364954
0.367596
0.370415
0.373424
0.538884
0.60104
0.68159
0.796174
0.989902
1.25119
1.55704
1.87653
2.17922
2.43597
2.61906
2.70458
2.67769
2.54241
2.3433
2.12351
1.90304
1.69699
1.51468
1.35894
1.22127
1.10597
1.01076
0.924904
0.843824
0.766302
0.691656
0.622663
0.563991
0.521144
0.502921
0.51946
0.626835
1.60277
0.542486
0.488349
0.443558
0.411822
0.389484
0.373758
0.362763
0.355181
0.350078
0.3468
0.345007
0.344225
0.343994
0.344307
0.345459
0.346819
0.348374
0.350154
0.352039
0.35398
0.355975
0.35804
0.360211
0.362503
0.364955
0.367596
0.370415
0.373424
0.607583
0.692812
0.817881
1.0332
1.32467
1.66727
2.03007
2.38351
2.69937
2.94961
3.10699
3.14909
3.06479
2.86454
2.60247
2.32753
2.06042
1.81594
1.60278
1.42313
1.26718
1.13928
1.03582
0.944235
0.858948
0.776622
0.698915
0.629184
0.5697
0.525815
0.506155
0.521291
0.630247
1.66025
0.613296
0.540411
0.480143
0.437718
0.407844
0.386726
0.371852
0.361461
0.354304
0.349504
0.346448
0.344834
0.344149
0.34397
0.344391
0.345584
0.346951
0.348514
0.350284
0.352153
0.354076
0.356057
0.358111
0.360242
0.362503
0.364955
0.367596
0.370415
0.373425
0.703626
0.83927
1.07536
1.39516
1.77198
2.175
2.57572
2.94743
3.26318
3.49498
3.61568
3.6047
3.45545
3.18545
2.85822
2.52763
2.2143
1.93212
1.6888
1.48567
1.31169
1.17136
1.05978
0.962613
0.871386
0.785381
0.706863
0.636334
0.575977
0.530968
0.509703
0.523267
0.634028
1.72091
0.713119
0.610741
0.52895
0.472109
0.432228
0.404016
0.384065
0.370018
0.360212
0.353469
0.348963
0.346124
0.344681
0.344087
0.343958
0.344485
0.345709
0.347081
0.34865
0.35041
0.352262
0.35417
0.356137
0.358145
0.360241
0.362503
0.364955
0.367596
0.370416
0.373421
0.860197
1.11594
1.46209
1.8705
2.31057
2.7547
3.17777
3.55487
3.85922
4.06209
4.13634
4.06394
3.84376
3.50079
3.10746
2.72164
2.36316
2.0445
1.77205
1.54618
1.35464
1.20213
1.08263
0.977757
0.881948
0.794969
0.715569
0.644179
0.582885
0.53665
0.513638
0.525399
0.637489
1.78447
0.710009
0.878642
0.59435
0.517901
0.464538
0.426934
0.400313
0.381497
0.368256
0.359019
0.352676
0.348454
0.345831
0.344548
0.34404
0.343959
0.344586
0.345833
0.34721
0.348782
0.350531
0.352368
0.354261
0.356175
0.358143
0.360241
0.362503
0.364955
0.367596
0.370405
0.373414
1.15464
1.52515
1.96257
2.43654
2.92011
3.38953
3.8222
4.19393
4.47715
4.64179
4.661
4.52022
4.22472
3.80708
3.34787
2.90802
2.50596
2.15235
1.85205
1.60436
1.39587
1.23156
1.10151
0.990634
0.893516
0.805471
0.725114
0.652795
0.590491
0.542933
0.51796
0.527709
0.641479
1.85096
0.685235
0.876022
1.18798
0.578959
0.507469
0.457224
0.421802
0.396733
0.379023
0.366567
0.35788
0.351923
0.347979
0.345575
0.344436
0.344006
0.343972
0.344693
0.345955
0.347336
0.348909
0.350648
0.35247
0.354305
0.356174
0.358142
0.360241
0.362503
0.364954
0.367579
0.370384
0.373407
1.58417
2.04821
2.553
3.07209
3.58277
4.06449
4.49628
4.85371
5.10741
5.22562
5.18235
4.96777
4.59425
4.10168
3.57782
3.08575
2.642
2.25517
1.92844
1.66
1.43529
1.25591
1.11759
1.00476
0.906196
0.816982
0.735584
0.662263
0.598876
0.549875
0.52278
0.530242
0.645025
1.92006
0.662543
0.836737
1.18644
1.63437
0.564528
0.497368
0.450126
0.41683
0.393277
0.376646
0.364949
0.356794
0.351214
0.347546
0.345355
0.34434
0.343983
0.343996
0.344803
0.346076
0.34746
0.349032
0.350761
0.352521
0.354305
0.356173
0.358142
0.360241
0.362503
0.364931
0.367544
0.370363
0.373399
2.12747
2.6603
3.21117
3.75812
4.28229
4.76573
5.18828
5.52416
5.74114
5.80567
5.69378
5.40161
4.94902
4.38264
3.79624
3.25422
2.77088
2.35268
2.00104
1.71297
1.46787
1.27667
1.13525
1.02027
0.920106
0.829608
0.747077
0.672675
0.608125
0.557572
0.528093
0.533026
0.649353
1.99184
0.641624
0.800303
1.12703
1.63443
2.19456
0.550591
0.487547
0.443242
0.412023
0.389949
0.374366
0.363404
0.355767
0.350562
0.347154
0.345163
0.34426
0.343964
0.344034
0.344915
0.346194
0.34758
0.349152
0.350818
0.352522
0.354305
0.356173
0.358143
0.360242
0.362476
0.364884
0.367509
0.370341
0.373392
2.75879
3.3381
3.91665
4.47688
5.00344
5.48044
5.88757
6.19614
6.37008
6.37464
6.18939
5.81759
5.28656
4.64865
4.00249
3.41309
2.89245
2.44477
2.06974
1.75656
1.49564
1.29951
1.15469
1.03731
0.935378
0.843468
0.759704
0.684137
0.618339
0.566091
0.534064
0.536089
0.653144
2.06563
0.621744
0.766577
1.06951
1.55581
2.19726
2.84159
0.537045
0.478009
0.436578
0.407386
0.386753
0.372184
0.361938
0.354819
0.349972
0.346802
0.344994
0.344193
0.343947
0.344084
0.345027
0.346311
0.347699
0.349213
0.35082
0.352522
0.354305
0.356174
0.358145
0.360211
0.36242
0.364837
0.367472
0.370318
0.373384
3.45359
4.05969
4.6501
5.21159
5.73208
6.1972
6.58473
6.86129
6.98657
6.92585
6.66407
6.21243
5.6051
4.89893
4.19626
3.56232
3.0067
2.53143
2.12597
1.79359
1.52615
1.32466
1.17608
1.05605
0.95216
0.858694
0.773586
0.696761
0.629621
0.575567
0.540683
0.539445
0.657977
2.14134
0.602671
0.734831
1.01412
1.47768
2.10198
2.84741
3.54964
0.523882
0.468771
0.430146
0.402928
0.383691
0.370111
0.360582
0.353956
0.349433
0.346484
0.344847
0.344139
0.343933
0.344143
0.34514
0.346427
0.347759
0.349217
0.350822
0.352522
0.354305
0.356175
0.35811
0.360147
0.362363
0.364787
0.367434
0.370295
0.373376
4.18847
4.80409
5.39308
5.94658
6.45581
6.90626
7.27154
7.51199
7.58345
7.45328
7.1136
6.58374
5.90356
5.13311
4.37758
3.70204
3.11374
2.60202
2.17356
1.83415
1.5597
1.35236
1.19966
1.07668
0.970617
0.875436
0.788859
0.710676
0.6421
0.586066
0.548207
0.543161
0.662133
2.21777
0.584329
0.704847
0.960389
1.40023
2.00616
2.73789
3.55797
4.29369
0.511118
0.459853
0.423957
0.398654
0.380783
0.368195
0.359348
0.353166
0.348939
0.346196
0.344718
0.344093
0.343925
0.344209
0.345256
0.346485
0.347761
0.349219
0.350822
0.352522
0.354305
0.356136
0.358039
0.360083
0.362304
0.364737
0.367395
0.370271
0.373368
4.94077
5.55118
6.12821
6.66822
7.16431
7.59957
7.94078
8.14113
8.1541
7.95176
7.53477
6.92995
6.18142
5.35127
4.54668
3.83247
3.20062
2.66157
2.22548
1.87857
1.59658
1.3829
1.22565
1.09942
0.990934
0.893856
0.805673
0.726024
0.655898
0.597781
0.556522
0.547357
0.667647
2.3088
0.566686
0.676577
0.908402
1.3229
1.90989
2.62731
3.43586
4.30255
5.04944
0.498781
0.451276
0.418024
0.394596
0.378095
0.366451
0.358217
0.352438
0.348484
0.345936
0.344605
0.344053
0.343923
0.344286
0.345314
0.346484
0.347763
0.349219
0.35082
0.352521
0.35426
0.356055
0.357966
0.360017
0.362244
0.364684
0.367355
0.370246
0.37336
5.68872
6.28173
6.84051
7.3654
7.84968
8.2705
8.58588
8.74198
8.69253
8.41706
7.9253
7.25024
6.4387
5.55372
4.70393
3.93796
3.27371
2.72632
2.28211
1.92722
1.63714
1.41656
1.25432
1.12448
1.01331
0.914136
0.824193
0.742955
0.671177
0.610754
0.566064
0.551958
0.67346
2.40724
0.549725
0.649998
0.858458
1.24565
1.81244
2.51559
3.31288
4.16857
5.05529
5.79377
0.486907
0.44306
0.412393
0.390851
0.375653
0.364856
0.357176
0.351765
0.348065
0.3457
0.344504
0.344022
0.343938
0.344323
0.345312
0.346486
0.347763
0.349217
0.350818
0.352469
0.354168
0.355972
0.357892
0.35995
0.362183
0.364631
0.367313
0.370221
0.373351
6.41115
6.97932
7.51777
8.03024
8.50584
8.91344
9.20074
9.30811
9.19354
8.84602
8.28393
7.54456
6.67586
5.74099
4.83059
4.02649
3.35293
2.79666
2.34383
1.98045
1.68173
1.45367
1.28597
1.15213
1.03797
0.936475
0.8446
0.761643
0.688065
0.625275
0.57651
0.558541
0.681939
2.49659
0.533443
0.625055
0.810965
1.16878
1.71343
2.4019
3.1887
4.03476
4.90901
5.79184
6.50541
0.475531
0.435277
0.407202
0.387454
0.373425
0.36339
0.356212
0.35114
0.347677
0.345487
0.344416
0.344011
0.34394
0.344314
0.345314
0.346486
0.347761
0.349214
0.35076
0.352366
0.354074
0.355888
0.357816
0.359881
0.36212
0.364576
0.367271
0.370195
0.373342
7.0903
7.63043
8.15209
8.65699
9.12798
9.52385
9.77886
9.83372
9.65276
9.23661
8.61038
7.81345
6.89359
5.89099
4.93658
4.12218
3.43874
2.87304
2.41105
2.03866
1.7307
1.49457
1.32089
1.18264
1.06516
0.961086
0.867089
0.782257
0.706777
0.641294
0.590968
0.566453
0.690955
2.57745
0.517851
0.601658
0.766352
1.09283
1.61283
2.28552
3.06244
3.90044
4.76496
5.63125
6.4904
7.16491
0.464763
0.428117
0.402504
0.384364
0.371383
0.362037
0.355317
0.350558
0.347317
0.345297
0.344358
0.344
0.343923
0.344314
0.345314
0.346484
0.347759
0.349152
0.350646
0.352259
0.353976
0.355801
0.357739
0.359812
0.362057
0.36452
0.367226
0.370168
0.373334
7.71092
8.22783
8.73451
9.2336
9.70405
10.0933
10.3155
10.3129
10.0671
9.58814
8.90522
8.05784
7.06659
6.01598
5.05074
4.2255
3.53159
2.95587
2.48418
2.10223
1.78444
1.53962
1.35941
1.21629
1.09513
0.988195
0.891863
0.805008
0.72742
0.662647
0.608635
0.576942
0.702558
2.64901
0.503078
0.579683
0.724978
1.01853
1.51079
2.16602
2.9331
3.76478
4.62201
5.47637
6.31164
7.13003
7.75566
0.454883
0.421656
0.398245
0.381544
0.369506
0.360782
0.354482
0.350013
0.346984
0.345157
0.344324
0.343981
0.343923
0.344314
0.345312
0.346485
0.347698
0.349031
0.350528
0.352149
0.353876
0.355711
0.35766
0.359741
0.361992
0.364462
0.367181
0.37014
0.373325
8.26439
8.75845
9.25995
9.76309
10.2329
10.6121
10.8018
10.7411
10.435
9.90104
9.16964
8.24989
7.20989
6.14997
5.17351
4.33689
3.63192
3.04559
2.56364
2.17158
1.84333
1.58917
1.40187
1.25339
1.12815
1.01803
0.919147
0.830059
0.754533
0.689019
0.629038
0.587305
0.715074
2.71288
0.489502
0.559143
0.687077
0.946801
1.4077
2.04314
2.79982
3.62654
4.47942
5.32527
6.14389
6.92893
7.69118
8.27215
0.446
0.415816
0.394372
0.378962
0.367773
0.359616
0.353699
0.349507
0.346717
0.345081
0.344299
0.343984
0.343923
0.344314
0.345314
0.346427
0.347578
0.348906
0.350406
0.352035
0.353772
0.355619
0.35758
0.359668
0.361925
0.364403
0.367135
0.370113
0.373317
8.74489
9.22499
9.7321
10.2508
10.7199
11.0785
11.232
11.1154
10.7566
10.1767
9.37433
8.40765
7.36242
6.29323
5.30527
4.45677
3.74015
3.14262
2.64981
2.24707
1.90775
1.64359
1.44859
1.29424
1.16447
1.05085
0.94912
0.862774
0.788023
0.717576
0.649339
0.600706
0.734091
2.76606
0.477294
0.540387
0.652946
0.878719
1.30421
1.91683
2.66189
3.4845
4.33578
5.17733
5.98401
6.74533
7.46453
8.15416
8.69674
0.43801
0.410527
0.390842
0.37659
0.366167
0.358523
0.35297
0.349094
0.346573
0.345048
0.344305
0.343984
0.343923
0.344322
0.345255
0.346309
0.347457
0.348778
0.35028
0.351917
0.353665
0.355524
0.357497
0.359594
0.361858
0.364343
0.367089
0.370086
0.373308
9.14129
9.61941
10.1461
10.6908
11.1625
11.4879
11.6009
11.4355
11.0332
10.3857
9.54053
8.57392
7.52416
6.44596
5.44633
4.58551
3.85669
3.24735
2.74308
2.32907
1.97803
1.7032
1.49988
1.3391
1.20436
1.08682
0.988138
0.903034
0.823341
0.746787
0.673503
0.609606
0.750288
2.81404
0.466333
0.523509
0.623144
0.815864
1.2013
1.78719
2.51869
3.33747
4.18959
5.03098
5.83127
6.57505
7.26179
7.90196
8.51386
9.01935
0.430811
0.405727
0.387617
0.374404
0.36467
0.357508
0.352369
0.348875
0.346529
0.345059
0.344305
0.343981
0.34394
0.344286
0.345138
0.346191
0.347332
0.348645
0.350149
0.351795
0.353554
0.355427
0.357412
0.359519
0.36179
0.364284
0.367044
0.37006
0.3733
9.44885
9.94039
10.5034
11.0804
11.5511
11.8323
11.9037
11.7022
11.2365
10.5526
9.71328
8.74817
7.6949
6.60819
5.59687
4.72342
3.98187
3.36011
2.84378
2.41788
2.05449
1.76829
1.55602
1.38823
1.24799
1.13352
1.03589
0.94494
0.859709
0.778463
0.695537
0.626763
0.777502
2.84682
0.456498
0.50828
0.597446
0.760585
1.10109
1.65462
2.36968
3.18424
4.03922
4.88448
5.68386
6.41712
7.07896
7.67771
8.23017
8.76239
9.23547
0.424312
0.401362
0.384661
0.372376
0.363284
0.356667
0.352052
0.34882
0.346548
0.345059
0.344299
0.344
0.343938
0.344207
0.345024
0.346072
0.347205
0.348509
0.350014
0.351669
0.35344
0.355326
0.357325
0.359443
0.361722
0.364227
0.367001
0.370034
0.373293
9.66314
10.1893
10.8055
11.4161
11.8742
12.1043
12.1372
11.8887
11.3948
10.7225
9.89127
8.92953
7.87414
6.77974
5.75696
4.87066
4.11593
3.48119
2.95217
2.51377
2.13735
1.83908
1.61721
1.44177
1.30444
1.19031
1.08513
0.987941
0.897552
0.809725
0.72261
0.638949
0.800261
2.87194
0.447674
0.49454
0.575019
0.713672
1.0078
1.52077
2.21453
3.02356
3.88291
4.7359
5.53988
6.2693
6.91475
7.4803
7.98129
8.4413
8.88862
9.33566
0.418435
0.397385
0.381935
0.370507
0.362132
0.356222
0.35198
0.34885
0.346548
0.345048
0.344323
0.344011
0.343923
0.34414
0.344911
0.345951
0.347076
0.348369
0.349874
0.351538
0.353321
0.355222
0.357235
0.359367
0.361658
0.364172
0.366959
0.37001
0.373285
9.78232
10.369
11.0539
11.6839
12.1189
12.3014
12.2814
12.0272
11.5509
10.8932
10.0727
9.11672
8.06107
6.9602
5.92646
5.02729
4.25902
3.61075
3.06843
2.61688
2.22674
1.91571
1.6835
1.51071
1.37257
1.24835
1.13525
1.03176
0.935552
0.843325
0.746518
0.659974
0.842133
2.88205
0.439751
0.482168
0.555192
0.674245
0.924348
1.39046
2.05431
2.85422
3.71871
4.58304
5.39716
6.12949
6.76633
7.30849
7.76758
8.16419
8.52837
8.88084
9.31265
0.413109
0.39374
0.379436
0.368953
0.36152
0.356128
0.352024
0.34885
0.346528
0.345081
0.344359
0.344023
0.343925
0.344082
0.344798
0.345828
0.346946
0.348226
0.34973
0.351403
0.353199
0.355115
0.357147
0.359294
0.361595
0.364119
0.366918
0.369985
0.373278
9.80317
10.4872
11.229
11.868
12.2684
12.4071
12.3749
12.1538
11.7019