/*--------------------------------*- C++ -*----------------------------------*\
  =========                 |
  \\      /  F ield         | OpenFOAM: The Open Source CFD Toolbox
   \\    /   O peration     | Website:  https://openfoam.org
    \\  /    A nd           | Version:  8
     \\/     M anipulation  |
\*---------------------------------------------------------------------------*/
FoamFile
{
    version     2.0;
    format      ascii;
    class       volScalarField;
    location    "0.38";
    object      nut;
}
// * * * * * * * * * * * * * * * * * * * * * * * * * * * * * * * * * * * * * //

dimensions      [0 2 -1 0 0 0 0];

internalField   nonuniform List<scalar> 
15677
(
0.000168257
0.000653012
0.000148416
0.00151367
0.000442433
0.000141502
0.00267539
0.000875741
0.000381144
0.000142367
0.00392117
0.00151879
0.000686618
0.000354244
0.000145441
0.0050242
0.00235592
0.00114632
0.000585641
0.000340266
0.000151189
0.00584076
0.00331709
0.00178062
0.000947759
0.000529349
0.000332039
0.000156985
0.00633513
0.00429836
0.00256739
0.00146325
0.00082101
0.000492577
0.000327025
0.000162436
0.00656293
0.00518743
0.00345258
0.00213147
0.00125729
0.000737416
0.000467566
0.000324162
0.000167229
0.00665851
0.00589329
0.00435502
0.00292195
0.00184158
0.00111257
0.00067761
0.000450576
0.000322608
0.00017147
0.00670553
0.00633821
0.00518059
0.00377878
0.00255697
0.00163212
0.00100498
0.000634377
0.000438838
0.000322057
0.000175055
0.00671441
0.00655344
0.00584517
0.00462512
0.00336275
0.00228688
0.00147318
0.000924699
0.000602467
0.000430901
0.000322018
0.000178209
0.00670992
0.0066615
0.00629558
0.00537703
0.00419697
0.00304573
0.00207845
0.00134976
0.000862733
0.000578844
0.000425442
0.000322504
0.00018084
0.00670627
0.00669875
0.0065296
0.00596442
0.00498426
0.00385782
0.0027965
0.00191272
0.00125202
0.000814617
0.000561087
0.000421948
0.000323158
0.000183207
0.00670537
0.00670439
0.00664681
0.00635688
0.0056502
0.00465641
0.00358422
0.00259479
0.00177891
0.00117385
0.000776788
0.000547886
0.000419607
0.00032408
0.000185269
0.00670541
0.0067029
0.00668787
0.00656291
0.00614224
0.00536902
0.00438226
0.00335839
0.0024293
0.00166932
0.00111038
0.000746975
0.000537784
0.000418372
0.000324936
0.000187096
0.00670554
0.0067017
0.00669636
0.00665656
0.00644698
0.00593413
0.005122
0.00415019
0.00317014
0.00229154
0.00157897
0.00105865
0.000723243
0.00053049
0.00041749
0.000325995
0.000188766
0.00670561
0.00670127
0.00669708
0.00668493
0.00660498
0.00632209
0.00573839
0.00490544
0.00395282
0.00301129
0.0021764
0.00150384
0.00101663
0.000704718
0.000524755
0.000417363
0.000326939
0.000190193
0.00670561
0.0067012
0.00669665
0.00669171
0.00666379
0.00654147
0.00618902
0.00555835
0.00471635
0.00378365
0.00287685
0.00207946
0.00144153
0.000982497
0.000689796
0.000520868
0.000417295
0.00032803
0.00019163
0.00670559
0.00670124
0.00669632
0.00669282
0.00668232
0.00663469
0.00646838
0.00605909
0.00539563
0.00455094
0.00363857
0.00276248
0.00199806
0.00138994
0.000954564
0.000678399
0.000517746
0.000417814
0.000329013
0.000192759
0.00670557
0.00670129
0.00669614
0.00669281
0.00668726
0.00666926
0.00659841
0.00639024
0.00593649
0.00524924
0.00440675
0.0035138
0.00266548
0.00192986
0.00134725
0.00093224
0.000669226
0.000515994
0.000418223
0.000330096
0.000194092
0.00670555
0.00670134
0.00669604
0.00669274
0.00668813
0.00668096
0.00665166
0.00655669
0.00631221
0.00582177
0.00511894
0.00428107
0.00340707
0.00258349
0.00187304
0.00131248
0.000914225
0.000662622
0.000514539
0.000419137
0.000331128
0.000194991
0.00670554
0.00670137
0.00669597
0.00669273
0.00668804
0.00668441
0.00667183
0.00663076
0.00651217
0.00623463
0.00571693
0.00500333
0.00417255
0.00331614
0.00251485
0.00182638
0.00128428
0.000900352
0.000657392
0.000514218
0.000419849
0.000332177
0.000196311
0.00670554
0.00670138
0.00669593
0.00669275
0.00668784
0.00668527
0.00667857
0.00666175
0.0066067
0.00646622
0.00616201
0.00562177
0.00490243
0.00407931
0.0032397
0.00245815
0.00178848
0.00126221
0.000889669
0.000654239
0.00051389
0.000421031
0.00033332
0.000197042
0.00670554
0.00670138
0.0066959
0.00669277
0.00668769
0.00668543
0.00668043
0.00667363
0.00664886
0.00658148
0.00642072
0.00609431
0.00553761
0.00481462
0.00400052
0.0031763
0.00241232
0.001759
0.00124541
0.000882173
0.000651804
0.000514589
0.000421934
0.000334245
0.000198364
0.00670555
0.00670137
0.00669589
0.00669277
0.00668759
0.00668544
0.00668074
0.00667777
0.00666605
0.00663606
0.00655499
0.00637766
0.00603277
0.00546286
0.00474033
0.00393539
0.00312557
0.00237664
0.00173644
0.00123318
0.000877023
0.000651276
0.000515066
0.000423382
0.0003357
0.000199062
0.00670555
0.00670136
0.00669589
0.00669276
0.00668754
0.0066854
0.00668066
0.00667904
0.00667237
0.00666011
0.00662122
0.00652993
0.00633713
0.00597729
0.00540064
0.0046791
0.00388297
0.00308531
0.00234952
0.00172117
0.00122602
0.000874843
0.000650988
0.000516571
0.000424293
0.000336457
5.33937e-05
0.00670556
0.00670135
0.0066959
0.00669274
0.00668752
0.00668536
0.00668054
0.00667933
0.00667438
0.00666992
0.00665148
0.00660838
0.00650557
0.00630204
0.00593219
0.00534722
0.00462856
0.00384229
0.00305792
0.00233355
0.00171316
0.00122272
0.000874153
0.000652541
0.00051769
0.000426688
0.000283848
6.33707e-05
0.00670557
0.00670133
0.00669592
0.00669271
0.00668751
0.00668532
0.00668046
0.00667931
0.00667486
0.00667355
0.00666424
0.00664623
0.00659446
0.00648513
0.00627029
0.00589018
0.00530733
0.00459596
0.0038188
0.00304192
0.00232454
0.00170993
0.00122213
0.000876001
0.000654244
0.000519785
0.000420318
0.0002197
7.07625e-05
0.00670558
0.00670131
0.00669593
0.00669268
0.00668752
0.00668527
0.00668041
0.00667922
0.00667489
0.00667469
0.00666919
0.00666324
0.00663819
0.00658539
0.00646768
0.00624514
0.00586841
0.0052831
0.00457354
0.00380203
0.0030328
0.00232171
0.00171133
0.00122597
0.00087915
0.000656572
0.000521087
0.000400429
0.00017818
7.62151e-05
0.00670558
0.0067013
0.00669595
0.00669265
0.00668753
0.00668522
0.00668038
0.00667912
0.00667481
0.00667488
0.00667088
0.00667027
0.00665837
0.00663707
0.00657596
0.0064545
0.00623669
0.00585156
0.00526514
0.00455951
0.00379482
0.00303267
0.00232656
0.00171893
0.00123262
0.000883863
0.000659977
0.000518974
0.000367671
0.000152675
8.06349e-05
0.00670559
0.00670128
0.00669596
0.00669263
0.00668755
0.00668517
0.00668036
0.00667903
0.00667474
0.00667479
0.00667132
0.00667281
0.00666713
0.00666176
0.00663168
0.00657545
0.00645352
0.00622983
0.00584163
0.00525734
0.00455886
0.00380118
0.00304371
0.00233948
0.00173114
0.00124226
0.00089024
0.000663019
0.000513001
0.000336501
0.000134298
8.40405e-05
0.0067056
0.00670127
0.00669598
0.0066926
0.00668756
0.00668513
0.00668036
0.00667894
0.00667468
0.00667463
0.00667135
0.00667347
0.0066706
0.00667268
0.00665946
0.00664107
0.00657873
0.00645667
0.00622905
0.0058449
0.00526648
0.00457278
0.00381938
0.00306393
0.00235908
0.00174791
0.00125465
0.000897801
0.000665929
0.000501739
0.000306331
0.000121315
8.64571e-05
0.00670561
0.00670125
0.006696
0.00669257
0.00668758
0.00668508
0.00668036
0.00667886
0.00667462
0.00667448
0.00667127
0.00667348
0.00667174
0.00667704
0.0066725
0.00667379
0.00664706
0.00658788
0.00646606
0.00624406
0.005864
0.00528914
0.00459967
0.00384861
0.00309298
0.00238528
0.00176863
0.00126983
0.000906459
0.0006672
0.000486424
0.000280255
0.000112803
8.82448e-05
0.00670561
0.00670124
0.00669601
0.00669255
0.0066876
0.00668504
0.00668037
0.00667879
0.00667458
0.00667434
0.00667117
0.00667331
0.00667199
0.00667842
0.00667817
0.00668924
0.00668202
0.00666024
0.00660625
0.00648943
0.00627238
0.00589688
0.00532607
0.00463931
0.00388885
0.00313069
0.00241746
0.0017934
0.00128704
0.000915895
0.000667425
0.000469679
0.000260439
0.000107025
8.96301e-05
0.00670123
0.00670562
0.00669603
0.00669253
0.00668762
0.006685
0.00668038
0.00667873
0.00667455
0.00667423
0.00667106
0.0066731
0.00667195
0.00667867
0.00668025
0.00669616
0.00669891
0.00669811
0.00668496
0.00663631
0.0065258
0.00631478
0.00594497
0.00537726
0.00469201
0.00393975
0.00317659
0.00245565
0.00182163
0.00130667
0.000926998
0.000666585
0.000454722
0.000245212
0.000102971
9.07546e-05
0.00669604
0.00670123
0.00670564
0.0066925
0.00668764
0.00668497
0.00668039
0.00667867
0.00667453
0.00667413
0.00667097
0.0066729
0.00667182
0.00667855
0.00668087
0.00669882
0.00670666
0.00671691
0.00672726
0.00671992
0.00667931
0.00657671
0.00637317
0.00600837
0.0054433
0.0047574
0.00400123
0.0032306
0.00249916
0.00185331
0.00133081
0.000940469
0.000665162
0.000441942
0.000233403
0.000100089
9.1706e-05
0.00669248
0.00669608
0.00670124
0.00670566
0.00668766
0.00668493
0.0066804
0.00667861
0.00667451
0.00667404
0.00667088
0.00667273
0.00667166
0.00667831
0.00668096
0.00669969
0.00670982
0.00672585
0.00674904
0.00676578
0.00676819
0.00673699
0.00664404
0.00644852
0.00608881
0.00552461
0.00483586
0.00407288
0.00329195
0.002548
0.00189197
0.00135955
0.000954547
0.000664265
0.00043139
0.000224064
9.79822e-05
9.25372e-05
0.00668768
0.00669249
0.00669615
0.00670125
0.00670569
0.0066849
0.00668042
0.00667857
0.0066745
0.00667396
0.0066708
0.00667259
0.00667151
0.00667805
0.00668086
0.00669987
0.00671099
0.00672975
0.00675992
0.00679022
0.00681813
0.00683132
0.00681156
0.00672864
0.006542
0.00618602
0.00562144
0.00492653
0.00415421
0.00336065
0.00260742
0.00193953
0.00138981
0.000969484
0.000663982
0.000422628
0.000216565
9.64502e-05
9.32839e-05
0.00668487
0.00668774
0.00669253
0.00669622
0.00670126
0.00670571
0.00668043
0.00667852
0.00667449
0.00667389
0.00667073
0.00667247
0.00667137
0.00667782
0.0066807
0.0066998
0.00671138
0.00673143
0.00676501
0.00680298
0.0068455
0.00688506
0.00691135
0.00690366
0.0068322
0.00665333
0.00630043
0.00573375
0.00503024
0.00424497
0.00344401
0.00267998
0.00199083
0.00142151
0.000984998
0.000664604
0.000415387
0.000210483
9.53055e-05
9.39635e-05
0.00668045
0.00668488
0.00668785
0.00669257
0.00669629
0.00670127
0.00670573
0.00667848
0.00667449
0.00667383
0.00667067
0.00667237
0.00667123
0.00667761
0.00668055
0.00669965
0.00671146
0.00673218
0.00676751
0.0068098
0.00686134
0.00691702
0.00697161
0.00701057
0.00701479
0.00695356
0.00678273
0.00643153
0.00586033
0.00514578
0.00435535
0.00354578
0.002758
0.0020451
0.00145439
0.00100135
0.000666286
0.000409541
0.000205408
9.44619e-05
9.45934e-05
0.00667844
0.00668052
0.00668494
0.00668796
0.00669261
0.00669637
0.00670129
0.00670575
0.00667449
0.00667377
0.00667062
0.00667229
0.00667109
0.00667744
0.0066804
0.00669948
0.00671143
0.00673256
0.00676891
0.00681361
0.00687056
0.00693636
0.00700894
0.00707856
0.00713324
0.00714847
0.00709465
0.00692873
0.00657762
0.00599984
0.00528735
0.00449068
0.00365494
0.00284055
0.00210188
0.00148814
0.00101802
0.000669091
0.00040473
0.000201148
9.38264e-05
9.51763e-05
0.0066745
0.00667844
0.00668065
0.00668499
0.00668807
0.00669265
0.00669644
0.0067013
0.00670578
0.00667372
0.00667058
0.00667222
0.00667096
0.00667732
0.00668025
0.0066993
0.00671136
0.00673277
0.00676979
0.00681611
0.00687644
0.00694867
0.00703338
0.00712256
0.00721013
0.0072788
0.00730685
0.00725861
0.00709131
0.0067378
0.00616865
0.0054574
0.00463643
0.00377121
0.00292676
0.00216053
0.00152269
0.00103462
0.000672333
0.000400895
0.000197502
9.33575e-05
9.57241e-05
0.00667367
0.00667456
0.0066785
0.00668079
0.00668505
0.00668819
0.00669269
0.00669652
0.00670131
0.0067058
0.00667056
0.00667216
0.00667084
0.00667723
0.00668011
0.00669914
0.00671128
0.00673291
0.00677044
0.00681798
0.00688073
0.0069573
0.00705061
0.00715363
0.00726318
0.00736688
0.00745086
0.00748848
0.00744587
0.00727478
0.00692752
0.00636794
0.00563754
0.00478954
0.00389254
0.00301574
0.00222048
0.00155795
0.00105118
0.000676243
0.000397858
0.00019439
9.30062e-05
9.62334e-05
0.00667054
0.00667365
0.00667468
0.00667856
0.00668093
0.00668511
0.00668831
0.00669273
0.0066966
0.00670133
0.00670582
0.0066721
0.00667073
0.00667718
0.00667996
0.006699
0.0067112
0.00673302
0.00677096
0.00681953
0.00688417
0.00696412
0.00706385
0.00717726
0.00730368
0.00743148
0.00755342
0.00764927
0.00769504
0.00765433
0.00750161
0.00716151
0.00657705
0.00582423
0.00494682
0.00401668
0.00310656
0.00228121
0.00159354
0.00106765
0.000680587
0.000395419
0.000191681
9.27535e-05
9.67144e-05
0.00667204
0.00667055
0.00667368
0.00667481
0.00667862
0.00668108
0.00668517
0.00668844
0.00669278
0.00669668
0.00670135
0.00670585
0.00667064
0.00667716
0.00667978
0.00669888
0.00671114
0.00673312
0.00677141
0.00682088
0.00688707
0.00696993
0.0070749
0.00719645
0.00733693
0.00748426
0.0076335
0.00776963
0.00787649
0.00792665
0.00790963
0.0077777
0.0074161
0.00679501
0.00601312
0.00510621
0.00414253
0.00319819
0.00234221
0.00162916
0.00108399
0.000685396
0.000393554
0.000189329
9.25661e-05
9.71613e-05
0.00667057
0.00667197
0.00667058
0.00667371
0.00667495
0.00667868
0.00668123
0.00668523
0.00668856
0.00669283
0.00669676
0.00670136
0.00670587
0.00667714
0.00667959
0.0066988
0.0067111
0.00673322
0.0067718
0.00682208
0.00688961
0.0069751
0.00708456
0.0072131
0.00736558
0.00753012
0.00770308
0.00786915
0.00801956
0.00813307
0.00821225
0.00822263
0.00807505
0.00768674
0.00702496
0.00620385
0.0052659
0.00426809
0.00328975
0.00240296
0.00166453
0.00110021
0.000690156
0.000392141
0.000187274
9.24439e-05
9.75842e-05
0.00667714
0.00667041
0.00667189
0.00667063
0.00667374
0.0066751
0.00667874
0.00668138
0.0066853
0.00668869
0.00669288
0.00669685
0.00670138
0.0067059
0.00667937
0.00669877
0.00671109
0.00673332
0.00677216
0.00682316
0.00689187
0.00697978
0.00709318
0.00722811
0.00739136
0.0075709
0.00776663
0.00796047
0.00814464
0.00830406
0.00845217
0.00856561
0.00856276
0.00839061
0.00796743
0.00726287
0.00639458
0.00542283
0.00439211
0.0033803
0.00246303
0.00169941
0.00111634
0.000694867
0.000391087
0.000185453
9.23537e-05
9.79758e-05
0.00667914
0.00667697
0.00667013
0.00667181
0.0066707
0.00667376
0.00667526
0.00667881
0.00668155
0.00668538
0.00668882
0.00669294
0.00669693
0.00670141
0.00670592
0.00669881
0.0067111
0.00673342
0.00677248
0.00682413
0.0068939
0.00698404
0.00710096
0.00724191
0.007415
0.00760819
0.00782534
0.00804768
0.00826495
0.00846093
0.00866167
0.00885184
0.00895391
0.00892708
0.00872107
0.00825546
0.00750559
0.00658869
0.0055767
0.00451359
0.00346931
0.00252204
0.00173365
0.00113221
0.000699525
0.000390282
0.000183864
9.23123e-05
9.8347e-05
0.00669893
0.00667832
0.00667667
0.00666988
0.00667171
0.00667079
0.00667378
0.00667543
0.00667888
0.00668171
0.00668545
0.00668895
0.006693
0.006697
0.00670143
0.00670593
0.00671111
0.00673351
0.00677275
0.00682501
0.00689574
0.00698793
0.00710801
0.00725468
0.00743674
0.00764286
0.00788073
0.00813035
0.00838333
0.00861806
0.00886431
0.0091166
0.00929734
0.00937537
0.00931308
0.00906376
0.00854851
0.00774849
0.00678344
0.00572747
0.00463219
0.00355607
0.00257964
0.00176706
0.00114777
0.000704102
0.000389724
0.000182422
9.22804e-05
9.86891e-05
0.0067111
0.00669847
0.00667683
0.00667633
0.00666969
0.0066716
0.00667092
0.0066738
0.00667562
0.00667896
0.00668188
0.00668554
0.00668908
0.00669307
0.00669708
0.00670146
0.00670595
0.00673358
0.00677297
0.00682579
0.00689741
0.00699147
0.00711443
0.0072665
0.00745672
0.0076754
0.00793335
0.00820891
0.00849753
0.00877881
0.0090773
0.0093865
0.00963258
0.00979007
0.00983035
0.00972
0.00941703
0.00884459
0.00799007
0.00697667
0.00587371
0.00474641
0.00364005
0.00263554
0.00179953
0.00116294
0.000708593
0.000389287
0.000181175
9.22894e-05
9.9014e-05
0.00673365
0.00671005
0.00669746
0.00667566
0.00667589
0.00666959
0.00667145
0.00667107
0.00667382
0.00667581
0.00667904
0.00668205
0.00668563
0.0066892
0.00669313
0.00669715
0.00670148
0.00670597
0.00677314
0.00682649
0.00689894
0.0069947
0.0071203
0.0072774
0.00747509
0.00770601
0.00798306
0.00828353
0.00860862
0.00894044
0.00930274
0.00968098
0.00999229
0.0102205
0.010339
0.0103239
0.0101493
0.00978033
0.00914239
0.00822913
0.00716719
0.00601722
0.00485602
0.00372092
0.00268954
0.00183092
0.00117765
0.000712965
0.000389037
0.000180014
9.22924e-05
9.93119e-05
0.00677329
0.00673195
0.00670782
0.0066959
0.00667485
0.00667532
0.00666959
0.00667127
0.00667126
0.00667383
0.00667601
0.00667913
0.00668221
0.00668573
0.00668931
0.0066932
0.00669721
0.00670151
0.00670598
0.00682713
0.00690034
0.00699764
0.00712567
0.00728742
0.00749199
0.00773476
0.00802963
0.00835447
0.0087177
0.00910248
0.00953001
0.0100011
0.0104094
0.0107195
0.0109104
0.010962
0.0108642
0.0106037
0.0101537
0.00944102
0.00846484
0.00735293
0.0061577
0.0049611
0.00379847
0.00274148
0.00186118
0.00119185
0.000717219
0.000388817
0.000179019
9.23323e-05
9.95958e-05
0.00682776
0.00677041
0.00672838
0.00670561
0.006694
0.00667443
0.00667459
0.0066697
0.00667107
0.00667147
0.00667386
0.00667621
0.00667923
0.00668237
0.00668583
0.00668942
0.00669327
0.00669727
0.00670154
0.006706
0.00690163
0.00700031
0.00713058
0.00729659
0.00750752
0.00776162
0.00807298
0.00842218
0.00882463
0.00926229
0.00975425
0.0103416
0.01091
0.0113578
0.0116329
0.0117371
0.0116749
0.0114572
0.0110847
0.010537
0.0097398
0.00869647
0.00753311
0.00629424
0.00506169
0.0038726
0.00279124
0.00189022
0.00120553
0.000721326
0.000388752
0.000178071
9.23562e-05
9.98226e-05
0.00690285
0.00682418
0.00676429
0.00672493
0.0067034
0.00669172
0.00667436
0.00667374
0.00666989
0.00667086
0.00667169
0.0066739
0.0066764
0.00667934
0.00668252
0.00668593
0.00668953
0.00669334
0.00669733
0.00670157
0.00670601
0.00700274
0.00713505
0.00730496
0.0075218
0.00778656
0.00811323
0.00848689
0.00892813
0.00941678
0.00997714
0.0107178
0.0115103
0.0121909
0.0126098
0.0127631
0.012707
0.0124761
0.0121003
0.0115901
0.0109287
0.0100379
0.00892342
0.00770747
0.00642625
0.0051578
0.00394327
0.00283877
0.00191802
0.00121864
0.000725288
0.000388709
0.000177282
9.24048e-05
0.000100013
0.00700498
0.0068978
0.00681601
0.00675823
0.00672168
0.00670143
0.00668893
0.00667456
0.00667281
0.00667011
0.00667067
0.0066719
0.00667397
0.00667658
0.00667946
0.00668266
0.00668604
0.00668962
0.00669341
0.00669738
0.0067016
0.00670602
0.00713913
0.00731257
0.00753489
0.00780958
0.00815056
0.00854847
0.00902665
0.00956487
0.0102059
0.0111461
0.0122186
0.0131897
0.0138532
0.0141166
0.0140567
0.0137804
0.0133413
0.0127802
0.0121137
0.0113262
0.0103341
0.00914514
0.00787579
0.00655334
0.00524944
0.00401048
0.00288404
0.00194455
0.00123118
0.000729094
0.0003887
0.000176616
9.24339e-05
0.000100218
0.00714286
0.00699815
0.00688584
0.00680789
0.00675243
0.00671863
0.0067001
0.00668589
0.00667491
0.00667189
0.00667034
0.00667052
0.0066721
0.00667406
0.00667675
0.00667959
0.00668279
0.00668614
0.00668972
0.00669348
0.00669744
0.00670163
0.00670603
0.00731949
0.00754686
0.00783071
0.00818514
0.00860659
0.00911919
0.00970778
0.0104475
0.0116267
0.0130034
0.0142701
0.0151992
0.0156856
0.015712
0.0154015
0.0148878
0.0142306
0.0134763
0.0126457
0.0117253
0.0106268
0.00936107
0.00803792
0.00667527
0.00533668
0.0040743
0.00292705
0.00196981
0.00124314
0.000732769
0.000388685
0.000176101
9.24887e-05
0.00010044
0.00732573
0.00713365
0.00698111
0.00687389
0.00679995
0.00674689
0.0067157
0.00669903
0.00668283
0.00667526
0.00667107
0.00667051
0.00667044
0.00667226
0.00667417
0.0066769
0.00667972
0.00668291
0.00668625
0.0066898
0.00669354
0.00669749
0.00670165
0.00670604
0.00755779
0.00785003
0.0082171
0.00866089
0.00920558
0.0098476
0.0107039
0.0121416
0.0138061
0.0153247
0.0164775
0.0171879
0.0174345
0.0172254
0.0166868
0.0159593
0.0151026
0.0141658
0.0131748
0.0121209
0.0109144
0.00957065
0.00819371
0.00679191
0.00541952
0.00413468
0.00296781
0.0019938
0.00125452
0.000735809
0.000388723
0.000175524
9.25318e-05
0.000100681
0.00756764
0.00731384
0.00710967
0.00696402
0.00686218
0.00679216
0.00674153
0.00671298
0.00669806
0.00667995
0.00667547
0.00667042
0.0066706
0.00667044
0.00667239
0.00667431
0.00667704
0.00667985
0.00668303
0.00668635
0.00668989
0.00669361
0.00669754
0.00670167
0.00670604
0.00786767
0.00824653
0.00871117
0.00928628
0.0099858
0.0109709
0.0126639
0.0145696
0.0162695
0.0175753
0.0184541
0.0189119
0.0189451
0.0185522
0.0178394
0.0169444
0.0159238
0.0148284
0.0136902
0.0125082
0.0111948
0.0097733
0.00834309
0.00690325
0.00549829
0.00419158
0.00300636
0.00201653
0.0012639
0.000738428
0.000388729
0.000174954
9.26125e-05
0.000100944
0.00788344
0.00755223
0.00728072
0.00708562
0.00694727
0.00685075
0.00678445
0.00673651
0.00671037
0.00669708
0.00667749
0.00667538
0.00666999
0.0066706
0.0066705
0.00667249
0.00667445
0.00667717
0.00667999
0.00668314
0.00668645
0.00668997
0.00669368
0.00669756
0.00670167
0.00670604
0.00827358
0.00875744
0.009362
0.0101225
0.0112403
0.0131681
0.0152552
0.0170631
0.0184489
0.019427
0.0200357
0.0202881
0.0201678
0.0196541
0.018827
0.0178159
0.016673
0.0154492
0.0141828
0.0128824
0.0114664
0.0099685
0.00848598
0.00700914
0.00557341
0.00424518
0.00304273
0.00203521
0.00127189
0.000741299
0.000388813
0.000174318
9.26737e-05
0.000101229
0.00829774
0.00786418
0.00750683
0.00724746
0.00706203
0.0069309
0.00683954
0.00677678
0.00673186
0.00670778
0.00669592
0.00667592
0.00667495
0.0066698
0.00667052
0.00667061
0.00667258
0.0066746
0.00667729
0.00668012
0.00668325
0.00668655
0.00669005
0.00669371
0.00669756
0.00670167
0.00670604
0.00879993
0.00943338
0.0102566
0.0115033
0.0136359
0.0158456
0.0176987
0.0191035
0.0201187
0.0208125
0.0212178
0.0213294
0.0211143
0.0205349
0.0196457
0.0185653
0.01734
0.0160193
0.0146462
0.01324
0.0117276
0.0101558
0.00862233
0.00710954
0.00564485
0.00429566
0.0030725
0.00205106
0.00128065
0.000744502
0.000388846
0.000173689
9.27874e-05
0.000101539
0.00883765
0.00827353
0.00780279
0.00746127
0.00721478
0.00703898
0.0069149
0.00682856
0.00676916
0.00672739
0.00670511
0.00669383
0.00667512
0.00667424
0.00666979
0.0066704
0.00667076
0.00667266
0.00667476
0.00667741
0.00668025
0.00668336
0.00668665
0.00669009
0.00669371
0.00669756
0.00670167
0.00670604
0.00950086
0.0103865
0.0117526
0.0140576
0.0163389
0.0181897
0.0195689
0.0205729
0.0212956
0.0217884
0.0220598
0.022086
0.0218218
0.0212186
0.020308
0.0191966
0.0179233
0.0165344
0.0150764
0.0135783
0.0119771
0.0103348
0.00875213
0.00720461
0.00571261
0.0043369
0.0030977
0.00206841
0.00129029
0.000748012
0.000388996
0.000172983
9.28728e-05
0.000101874
0.00956215
0.00880781
0.00819059
0.00774112
0.00741647
0.0071828
0.00701646
0.00689927
0.00681783
0.0067617
0.00672309
0.0067025
0.00669112
0.00667492
0.00667338
0.00666988
0.00667027
0.00667091
0.00667275
0.00667491
0.00667753
0.00668038
0.00668346
0.0066867
0.00669009
0.00669371
0.00669756
0.00670167
0.00670604
0.0105103
0.0119862
0.0144305
0.0167426
0.0185584
0.019882
0.020841
0.0215497
0.0220758
0.0224414
0.022633
0.022614
0.0223332
0.0217356
0.0208333
0.0197201
0.0184266
0.0169944
0.0154716
0.0138955
0.012214
0.0105052
0.00887542
0.00729451
0.00576829
0.00437178
0.00312522
0.00208743
0.00130089
0.000751946
0.000389069
0.000172292
9.30312e-05
0.000102239
0.0106215
0.00952478
0.00869529
0.00810741
0.00768036
0.00737259
0.00715153
0.00699447
0.00688405
0.00680749
0.00675432
0.00671914
0.00670017
0.00668785
0.00667504
0.00667251
0.00667001
0.00667015
0.00667106
0.00667283
0.00667505
0.00667765
0.0066805
0.00668351
0.0066867
0.00669009
0.00669371
0.00669756
0.00670167
0.00670603
0.0122054
0.014754
0.0170685
0.0188281
0.020078
0.02097
0.0216344
0.0221528
0.0225594
0.0228515
0.0230005
0.0229635
0.0226882
0.0221161
0.0212426
0.0201488
0.0188565
0.0174015
0.0158316
0.0141909
0.0124377
0.0106669
0.00899226
0.00736819
0.00581554
0.00440986
0.00315529
0.00210828
0.00131258
0.000756254
0.000389307
0.000171514
9.31518e-05
0.000102633
0.0105793
0.0124
0.00936134
0.0085841
0.00802532
0.0076208
0.00732963
0.00712098
0.00697304
0.0068693
0.00679769
0.00674731
0.00671548
0.00669868
0.00668458
0.00667525
0.00667171
0.00667012
0.00667008
0.00667119
0.00667293
0.0066752
0.00667776
0.00668057
0.00668351
0.0066867
0.00669009
0.00669371
0.00669756
0.00670165
0.00670602
0.0150293
0.0173289
0.0190203
0.0201867
0.0209988
0.021599
0.0220794
0.0224861
0.022827
0.0230815
0.0232125
0.0231757
0.0229205
0.022387
0.0215561
0.0204965
0.0192213
0.0177595
0.0161575
0.0144643
0.012648
0.0108198
0.00908814
0.00743065
0.0058673
0.00445147
0.00318818
0.00213118
0.00132543
0.000761073
0.000389438
0.000170756
9.33707e-05
0.000103062
0.0103295
0.0123595
0.0152543
0.00920434
0.00847481
0.00794466
0.00756242
0.00728761
0.00709118
0.00695223
0.00685509
0.00678829
0.00674072
0.00671216
0.00669749
0.00668159
0.00667539
0.00667107
0.00667019
0.00667005
0.00667132
0.00667303
0.00667533
0.00667782
0.00668057
0.0066835
0.0066867
0.00669009
0.00669371
0.00669753
0.00670162
0.00670601
0.0175356
0.0191532
0.0202321
0.0209578
0.0214812
0.0219028
0.0222786
0.0226277
0.0229383
0.0231783
0.0233072
0.0232829
0.0230578
0.0225712
0.0217917
0.0207761
0.019529
0.0180729
0.0164512
0.0147163
0.0128449
0.0109448
0.00916949
0.007499
0.00592405
0.00449698
0.00322418
0.00215631
0.00133967
0.000766427
0.000389793
0.000169905
9.35443e-05
0.000103522
0.0100841
0.0120034
0.0151874
0.0176901
0.0090547
0.0083671
0.00786554
0.00750526
0.00724658
0.0070622
0.00693209
0.00684141
0.00677926
0.00673459
0.00670925
0.00669641
0.00667908
0.00667534
0.0066706
0.00667021
0.00667006
0.00667143
0.00667315
0.0066754
0.00667781
0.00668057
0.0066835
0.00668669
0.00669009
0.00669367
0.00669749
0.00670159
0.006706
0.0192411
0.0202328
0.0208699
0.0213095
0.0216583
0.0219804
0.0223055
0.0226323
0.0229352
0.0231754
0.023313
0.0233099
0.0231219
0.0226877
0.0219646
0.020999
0.0197877
0.0183464
0.0167149
0.0149477
0.0130043
0.0110508
0.00925854
0.00757383
0.0059863
0.00454679
0.00326361
0.00218397
0.00135533
0.000772433
0.000390015
0.000169077
9.38447e-05
0.000104021
0.00985396
0.0116181
0.0148304
0.0175898
0.0192863
0.00891014
0.00826091
0.00778806
0.00744938
0.00720664
0.00703409
0.00691265
0.0068283
0.00677071
0.00672917
0.00670657
0.00669528
0.00667731
0.00667506
0.00667031
0.00667018
0.00667011
0.00667153
0.0066732
0.00667539
0.0066778
0.00668056
0.0066835
0.00668669
0.00669005
0.00669361
0.00669743
0.00670157
0.00670598
0.0202023
0.0207521
0.021105
0.0213724
0.0216244
0.0219003
0.0222103
0.0225377
0.022847
0.023097
0.0232512
0.0232762
0.0231305
0.0227518
0.0220876
0.0211752
0.0200046
0.0185847
0.0169512
0.0151313
0.0131382
0.0111663
0.00935605
0.00765585
0.00605465
0.00460139
0.00330685
0.00221437
0.00137274
0.000778987
0.000390507
0.000168157
9.4101e-05
0.000104552
0.00963848
0.0112385
0.014386
0.0173546
0.0191325
0.0201405
0.00876894
0.00815647
0.00771235
0.0073949
0.00716788
0.00700693
0.00689404
0.00681605
0.0067628
0.00672451
0.00670402
0.00669364
0.00667629
0.00667456
0.00667017
0.00667011
0.0066702
0.00667156
0.0066732
0.00667539
0.0066778
0.00668056
0.00668351
0.00668664
0.00668997
0.00669354
0.00669738
0.00670154
0.00670597
0.0206162
0.020883
0.0210644
0.0212352
0.0214428
0.0217086
0.0220272
0.0223695
0.0226937
0.0229603
0.0231377
0.0231967
0.0230973
0.0227757
0.0221712
0.0213134
0.020186
0.018792
0.0171343
0.0152838
0.0132831
0.0112924
0.00946287
0.00774582
0.00612976
0.00466129
0.00335429
0.00224789
0.0013919
0.000786506
0.000390877
0.000167252
9.45113e-05
0.000105129
0.00943468
0.0108777
0.0138949
0.0170333
0.0189709
0.0199315
0.0204577
0.0086305
0.00805411
0.00763857
0.00734197
0.0071304
0.00698093
0.00687673
0.00680484
0.00675538
0.00672035
0.00670164
0.00669142
0.00667582
0.00667393
0.00667014
0.00667002
0.00667026
0.00667153
0.00667319
0.00667539
0.0066778
0.00668056
0.00668345
0.00668654
0.00668988
0.00669347
0.00669733
0.00670151
0.00670595
0.0206537
0.0207485
0.0208313
0.0209565
0.0211559
0.0214364
0.0217789
0.0221444
0.0224892
0.0227778
0.0229846
0.0230831
0.0230331
0.0227693
0.022224
0.0214205
0.0203375
0.0189478
0.0172843
0.0154463
0.0134396
0.0114299
0.00957992
0.00784456
0.00621237
0.00472708
0.00340642
0.00228479
0.00141329
0.000794638
0.00039152
0.000166266
9.48991e-05
0.000105731
0.00924006
0.01054
0.0133788
0.0166505
0.0187388
0.0198032
0.0201932
0.0204071
0.00849489
0.00795414
0.00756693
0.00729073
0.00709453
0.00695677
0.00686095
0.00679461
0.00674853
0.00671672
0.00669964
0.00668877
0.00667568
0.00667323
0.0066702
0.0066699
0.00667029
0.00667151
0.00667319
0.00667539
0.0066778
0.00668049
0.00668335
0.00668644
0.00668979
0.0066934
0.00669727
0.00670148
0.00670594
0.020434
0.0204265
0.02046
0.0205756
0.0207928
0.0211051
0.0214802
0.0218734
0.0222428
0.0225593
0.0228018
0.0229447
0.0229466
0.0227404
0.0222529
0.0215025
0.0204461
0.0190733
0.0174413
0.0156191
0.0136083
0.0115796
0.00970815
0.00795303
0.0063033
0.00479944
0.00346375
0.00232559
0.00143684
0.000803953
0.000392121
0.000165238
9.54547e-05
0.000106501
0.00905303
0.0102266
0.0128486
0.0162183
0.0184627
0.0196176
0.0200677
0.0200865
0.020105
0.00836245
0.00785694
0.00749764
0.00724169
0.00706124
0.00693479
0.00684658
0.00678539
0.00674224
0.00671356
0.00669829
0.00668607
0.00667573
0.00667255
0.00667034
0.00666977
0.00667031
0.0066715
0.00667318
0.00667538
0.00667774
0.00668036
0.00668324
0.00668633
0.0066897
0.00669333
0.00669721
0.00670145
0.00670592
0.0200299
0.0199673
0.0199867
0.0201197
0.020374
0.020728
0.0211401
0.0215634
0.0219615
0.0223121
0.022597
0.022789
0.0228444
0.022695
0.0222633
0.0215546
0.0205317
0.019202
0.0176051
0.015802
0.0137896
0.0117424
0.00984861
0.00807222
0.00640347
0.00487911
0.00352689
0.00237055
0.00146316
0.000814176
0.000392918
0.000164157
9.616e-05
0.000107403
0.00887289
0.00993715
0.0123125
0.015738
0.0181552
0.0194033
0.0198934
0.0199443
0.0197275
0.0196273
0.00823341
0.00776294
0.00743135
0.00719619
0.00703096
0.0069148
0.00683356
0.00677715
0.00673657
0.00671071
0.00669716
0.00668357
0.00667586
0.00667198
0.00667049
0.0066697
0.0066703
0.00667151
0.00667317
0.00667531
0.00667762
0.00668023
0.00668312
0.00668623
0.00668961
0.00669326
0.00669715
0.00670142
0.0067059
0.0194878
0.0194043
0.0194372
0.0196097
0.0199123
0.0203128
0.020763
0.0212184
0.0216506
0.0220428
0.0223767
0.0226218
0.0227318
0.0226379
0.0222583
0.0215934
0.0206164
0.0193329
0.0177749
0.0159948
0.0139838
0.0119191
0.0100023
0.00820325
0.00651388
0.00496697
0.00359649
0.00242036
0.00149227
0.000825684
0.000393876
0.000162804