/*--------------------------------*- C++ -*----------------------------------*\
  =========                 |
  \\      /  F ield         | OpenFOAM: The Open Source CFD Toolbox
   \\    /   O peration     | Website:  https://openfoam.org
    \\  /    A nd           | Version:  8
     \\/     M anipulation  |
\*---------------------------------------------------------------------------*/
FoamFile
{
    version     2.0;
    format      ascii;
    class       volScalarField;
    location    "0.08";
    object      p;
}
// * * * * * * * * * * * * * * * * * * * * * * * * * * * * * * * * * * * * * //

dimensions      [0 2 -2 0 0 0 0];

internalField   nonuniform List<scalar> 
15677
(
74.2105
73.8539
73.4412
73.9185
73.4294
73.4431
73.8935
73.4566
73.4524
73.3367
73.8681
73.458
73.4527
73.3457
73.2452
73.8464
73.4602
73.4526
73.3449
73.2528
73.1491
73.8229
73.4625
73.4522
73.346
73.2527
73.1557
73.0346
73.7978
73.4651
73.4514
73.3464
73.2537
73.1557
73.0404
72.8979
73.7716
73.4682
73.45
73.3464
73.2542
73.1567
73.0405
72.903
72.7317
73.7443
73.4702
73.448
73.3463
73.2547
73.1572
73.0415
72.9032
72.736
72.5284
73.7157
73.4717
73.4454
73.3458
73.255
73.1579
73.0422
72.9043
72.7364
72.5321
72.2803
73.6862
73.4733
73.4421
73.3456
73.2554
73.1585
73.043
72.9051
72.7376
72.5326
72.2832
71.9792
73.6563
73.4744
73.4387
73.3457
73.256
73.1594
73.0441
72.9063
72.7387
72.534
72.2839
71.9813
71.6165
73.6265
73.4745
73.4353
73.3461
73.257
73.1607
73.0455
72.9078
72.7403
72.5354
72.2856
71.9822
71.6178
71.184
73.5999
73.4732
73.4317
73.3469
73.2587
73.1626
73.0476
72.9099
72.7423
72.5375
72.2875
71.9841
71.6188
71.1843
70.6734
73.577
73.4711
73.4282
73.3483
73.2614
73.1657
73.0509
72.913
72.7454
72.5403
72.2901
71.9865
71.6212
71.1856
70.6727
70.0774
73.557
73.4691
73.4253
73.3503
73.2653
73.1703
73.0557
72.9178
72.7498
72.5445
72.2939
71.99
71.6242
71.1883
70.6743
70.0755
69.389
73.5396
73.4671
73.4231
73.3529
73.2707
73.1768
73.0627
72.9248
72.7565
72.5506
72.2995
71.995
71.6287
71.1921
70.6774
70.0773
69.3858
68.6026
73.5245
73.4651
73.4215
73.3559
73.2774
73.1858
73.0727
72.9349
72.7662
72.5597
72.3077
72.0023
71.6351
71.1978
70.6821
70.0809
69.388
68.598
67.7139
73.5115
73.4633
73.4205
73.3593
73.2847
73.1968
73.0864
72.9492
72.7803
72.5729
72.3198
72.013
71.6445
71.2059
70.6891
70.0866
69.3921
68.6005
67.7078
66.72
73.5003
73.4616
73.42
73.3631
73.2927
73.2088
73.103
72.9687
72.8
72.5919
72.3374
72.0288
71.6583
71.2177
70.6992
70.0951
69.3989
68.6051
67.7105
66.7121
65.6198
73.4913
73.46
73.42
73.3674
73.3014
73.222
73.1211
72.9925
72.8271
72.6186
72.3626
72.0517
71.6785
71.2351
70.7139
70.1074
69.409
68.613
67.7157
66.7152
65.61
64.4139
73.4845
73.4585
73.4205
73.372
73.3107
73.2361
73.1409
73.0183
72.8599
72.6551
72.3978
72.0845
71.7078
71.2605
70.7354
70.1252
69.4236
68.6249
67.7248
66.7208
65.6134
64.4022
63.1056
73.4792
73.4572
73.4213
73.377
73.3205
73.2512
73.1622
73.0466
72.8957
72.6995
72.4461
72.1303
71.7496
71.2974
70.7668
70.1514
69.4449
68.6421
67.7384
66.7311
65.6195
64.4058
63.0917
61.6993
73.4751
73.456
73.4223
73.382
73.3307
73.267
73.1847
73.077
72.9349
72.7478
72.5049
72.193
71.8081
71.3498
70.8123
70.1895
69.4761
68.6671
67.7582
66.7464
65.6308
64.4122
63.0955
61.6832
60.2073
73.4718
73.4551
73.4234
73.3867
73.3407
73.2833
73.2083
73.1092
72.977
72.8008
72.569
72.2694
71.8882
71.4232
70.8771
70.2448
69.5217
68.7036
67.7869
66.7688
65.6478
64.4245
63.102
61.687
60.1884
58.6599
73.4692
73.4543
73.4246
73.391
73.3499
73.2994
73.2327
73.1429
73.0216
72.8579
72.6393
72.3529
71.9859
71.5239
70.9677
70.3235
69.5877
68.7572
67.8291
66.8013
65.6725
64.4429
63.1149
61.6931
60.1896
58.6044
56.9966
73.4671
73.4537
73.4257
73.395
73.3583
73.3141
73.2566
73.1777
73.0683
72.9183
72.7151
72.4446
72.0928
71.6468
71.0922
70.4337
69.6819
68.8347
67.8909
66.849
65.7086
64.4697
63.1343
61.7061
60.1943
58.6071
56.9295
55.2027
73.4654
73.4532
73.4268
73.3985
73.3658
73.3274
73.2786
73.2119
73.1166
72.9816
72.7954
72.5434
72.2103
71.7816
71.2445
70.5854
69.8139
68.9455
67.9806
66.9192
65.7616
64.5088
63.1626
61.7258
60.2057
58.608
56.9321
55.1724
53.3512
73.464
73.4527
73.4276
73.4018
73.3725
73.3394
73.2984
73.2432
73.164
73.0472
72.8796
72.6483
72.3371
71.9298
71.4117
70.7712
69.9958
69.1013
68.1091
67.0213
65.84
64.5668
63.2041
61.7547
60.2239
58.6164
56.9265
55.1647
53.3397
51.448
73.4628
73.4524
73.4284
73.4049
73.3785
73.3501
73.3161
73.2714
73.2074
73.1115
72.9669
72.7584
72.472
72.09
71.596
70.9756
70.2192
69.3163
68.2901
67.1681
65.9545
64.6527
63.266
61.7975
60.2517
58.6319
56.9343
55.1553
53.3228
51.4425
49.3021
73.4618
73.4521
73.429
73.4076
73.3839
73.3596
73.332
73.2968
73.2466
73.1705
73.0525
72.8726
72.6136
72.2607
71.7954
71.2012
70.4655
69.5812
68.5408
67.3755
66.1196
64.7789
63.3584
61.862
60.2939
58.6571
56.9481
55.1645
53.3142
51.4238
49.2999
46.8844
73.461
73.4519
73.4297
73.4101
73.3886
73.368
73.3461
73.3194
73.2818
73.2238
73.1311
72.9847
72.7607
72.4402
72.0082
71.446
70.738
69.8738
68.8503
67.6634
66.3536
64.9618
63.4953
61.9596
60.3594
58.6974
56.9716
55.1779
53.324
51.4173
49.282
46.8841
44.4393
73.4603
73.4517
73.4303
73.4123
73.3928
73.3756
73.3586
73.3395
73.3133
73.2716
73.2022
73.0879
72.9053
72.6269
72.2324
71.7077
71.0342
70.1984
69.1932
68.0202
66.6799
65.2222
63.6948
62.1054
60.4601
58.762
57.0102
55.2011
53.3375
51.4256
49.2754
46.8674
44.4407
42.0093
73.4597
73.4515
73.4308
73.4142
73.3966
73.3822
73.3697
73.3574
73.3412
73.3143
73.2661
73.1811
73.0385
72.8107
72.4661
71.9839
71.3515
70.552
69.5746
68.4167
67.0856
65.5868
63.9805
62.3199
60.6129
58.8642
57.0739
55.239
53.3607
51.439
49.2804
46.8604
44.4261
42.0109
39.6146
73.4514
73.459
73.4313
73.4159
73.3999
73.3881
73.3796
73.3733
73.3661
73.3524
73.3231
73.265
73.159
72.9802
72.6965
72.2723
71.6873
70.9318
69.9913
68.859
67.538
66.0423
64.3825
62.629
60.8399
59.0218
57.1767
55.3021
53.3977
51.4615
49.2925
46.8621
44.4189
41.9974
39.6161
37.268
73.4318
73.4513
73.4583
73.4173
73.4028
73.3933
73.3883
73.3874
73.3881
73.3862
73.374
73.34
73.2675
73.1338
72.9093
72.5573
72.0387
71.3347
70.4401
69.3437
68.0444
66.552
64.8872
63.0666
61.1699
59.259
57.3377
55.4049
53.4594
51.4966
49.3123
46.8714
44.4177
41.9891
39.6033
37.2687
34.9816
73.4186
73.4325
73.4512
73.4575
73.4054
73.398
73.3961
73.3998
73.4077
73.4162
73.4192
73.4068
73.3646
73.2722
73.1025
72.821
72.3868
71.7575
70.9174
69.8673
68.6013
67.1246
65.4542
63.6187
61.6401
59.6068
57.5827
55.5679
53.561
51.5557
49.3436
46.8865
44.4236
41.9843
39.5935
37.2565
34.9813
32.7664
73.4076
73.4204
73.4334
73.4511
73.4568
73.4021
73.4029
73.4109
73.425
73.4428
73.4593
73.4663
73.4513
73.3962
73.2767
73.0609
72.7096
72.1775
71.4199
70.4261
69.2048
67.7564
66.0938
64.2419
62.2369
60.106
57.9451
55.8183
53.724
51.6543
49.3977
46.9115
44.4331
41.9855
39.5847
37.2448
34.9695
32.7651
30.6308
73.4056
73.4107
73.4224
73.4343
73.4511
73.4562
73.409
73.4207
73.4404
73.4664
73.4949
73.5192
73.5284
73.507
73.433
73.2776
73.0039
72.5679
71.9206
71.0162
69.8512
68.4439
66.8023
64.9478
62.9138
60.7435
58.469
56.1917
53.9766
51.8144
49.4902
46.9572
44.4502
41.9879
39.5802
37.2319
34.9556
32.7535
30.6285
28.581
73.4141
73.4103
73.4141
73.4245
73.4352
73.451
73.4556
73.4293
73.454
73.4873
73.5265
73.5661
73.597
73.6057
73.5728
73.4723
73.2701
72.9246
72.3874
71.6062
70.5361
69.1827
67.576
65.7329
63.6838
61.4702
59.1423
56.7353
54.3567
52.0657
49.6439
47.0393
44.485
41.9953
39.5743
37.221
34.9384
32.7371
30.6171
28.5777
26.6211
73.4366
73.4211
73.4153
73.4175
73.4265
73.4362
73.451
73.455
73.4661
73.5059
73.5545
73.6076
73.6578
73.6934
73.6975
73.6466
73.5097
73.248
72.8149
72.1581
71.2235
69.9687
68.411
66.5938
64.5437
62.3003
59.9133
57.4381
54.9141
52.4476
49.8893
47.1812
44.5533
42.0167
39.5702
37.2059
34.9207
32.7156
30.598
28.5663
26.6169
24.7538
73.4762
73.4464
73.428
73.4203
73.4209
73.4285
73.4371
73.4509
73.4545
73.5224
73.5794
73.6445
73.7118
73.7714
73.8085
73.8022
73.7246
73.5397
73.2035
72.6649
71.8688
70.7609
69.303
67.5268
65.4908
63.2315
60.7981
58.2469
55.6391
53.0122
50.2677
47.4141
44.6787
42.0681
39.5761
37.189
34.8957
32.6908
30.572
28.5445
26.6054
24.7487
22.9801
73.5361
73.4897
73.4556
73.435
73.4253
73.4241
73.4304
73.438
73.4509
73.454
73.6014
73.6773
73.7598
73.8406
73.9072
73.9409
73.9167
73.8016
73.5547
73.1268
72.4633
71.5072
70.2059
68.528
66.5218
64.2619
61.7953
59.1793
56.4777
53.7511
50.8323
47.7805
44.8931
42.173
39.6078
37.1776
34.8649
32.6553
30.5399
28.5141
26.5809
24.737
22.9742
21.2999
73.6197
73.5543
73.5018
73.4651
73.4419
73.4301
73.4273
73.4322
73.4389
73.4508
73.4536
73.7064
73.8024
73.9021
73.9948
74.0643
74.088
74.0362
73.8707
73.5453
73.0067
72.1972
71.06
69.5461
67.6334
65.3888
62.904
60.2353
57.4492
54.6102
51.5768
48.3337
45.2386
42.3634
39.6887
37.1875
34.835
32.61
30.4937
28.4746
26.5462
24.7098
22.9622
21.2933
19.7121
73.7305
73.644
73.5699
73.5143
73.4744
73.4485
73.4347
73.4304
73.434
73.4397
73.4508
73.4532
73.8402
73.9569
74.0727
74.174
74.2407
74.2457
74.1541
73.9227
73.5003
72.83
71.8527
70.5135
68.7694
66.6099
64.1224
61.4151
58.5551
55.6109
52.4483
49.0704
45.7681
42.6797
39.8498
37.2415
34.8215
32.5607
30.4334
28.4175
26.4992
24.6709
22.9325
21.2811
19.7048
18.2147
73.8714
73.7623
73.6639
73.5862
73.5265
73.4833
73.4549
73.4391
73.4333
73.4357
73.4406
73.4508
73.4528
74.0053
74.1421
74.2715
74.3765
74.4326
74.4078
74.2618
73.9465
73.4064
72.5821
71.4148
69.8536
67.864
65.4494
62.7183
59.7968
56.756
53.4697
49.9401
46.4816
43.1741
40.1298
37.369
34.8465
32.5228
30.3644
28.3421
26.4313
24.6166
22.8895
21.2488
19.6923
18.2069
16.8053
74.0452
73.9128
73.7875
73.6848
73.602
73.5381
73.4917
73.461
73.4434
73.4361
73.4374
73.4414
73.4507
73.4525
74.2036
74.3586
74.4975
74.5991
74.6343
74.5658
74.3484
73.9288
73.2486
72.2473
70.8682
69.0669
66.8196
64.145
61.1756
58.0484
54.6451
50.9667
47.3321
43.8503
40.5788
37.6062
34.9365
32.5168
30.3014
28.2531
26.3407
24.538
22.828
21.2019
19.6576
18.1941
16.797
15.4807
74.2539
74.0985
73.9444
73.8141
73.705
73.6169
73.5491
73.4997
73.4667
73.4474
73.4387
73.4389
73.4422
73.4507
73.4523
74.4356
74.6055
74.7475
74.8363
74.8378
74.7093
74.4005
73.8545
73.0105
71.8089
70.1975
68.1405
65.6266
62.6936
59.4914
55.9796
52.1558
48.3435
44.665
41.2046
38.0011
35.1258
32.5667
30.2632
28.1649
26.232
24.4325
22.739
21.1334
19.607
18.1571
16.7839
15.4719
14.2376
74.4984
74.3218
74.1377
73.9779
73.8397
73.7241
73.631
73.5594
73.5073
73.4721
73.4512
73.4412
73.4403
73.4429
73.4507
73.452
74.701
74.8801
75.0166
75.0807
75.0327
74.8251
74.403
73.7065
72.6745
71.25
69.3878
67.0624
64.2792
61.0891
57.4787
53.5152
49.5235
45.6414
41.9676
38.5643
35.459
32.7039
30.2709
28.0936
26.1186
24.3045
22.6189
21.0342
19.5318
18.1029
16.7447
15.4586
14.2283
13.0725
74.7785
74.5843
74.3703
74.1797
74.01
73.8636
73.7418
73.6441
73.5691
73.5143
73.4772
73.4547
73.4435
73.4416
73.4435
73.4507
73.4519
74.9973
75.178
75.2977
75.3221
75.2062
74.8977
74.3381
73.4663
72.2221
70.5538
68.4248
65.8242
62.7678
59.1491
55.0534
50.8821
46.7889
42.8893
39.2602
35.9486
32.9692
30.353
28.058
26.014
24.1661
22.4722
20.9001
19.4229
18.0213
16.6872
15.4172
14.2148
13.0627
11.9818
75.092
74.8861
74.644
74.4226
74.2199
74.0399
73.8859
73.7583
73.6563
73.5779
73.5208
73.4818
73.4579
73.4455
73.4427
73.444
73.4507
73.4517
75.3205
75.4922
75.581
75.5478
75.3429
74.9095
74.1871
73.1143
71.635
69.704
67.2974
64.4125
60.9163
56.7807
52.4311
48.1193
43.9801
40.1078
36.5634
33.3756
30.5455
28.0831
25.9345
24.0284
22.3093
20.7353
19.2753
17.903
16.5994
15.3567
14.1714
13.049
11.9714
10.9611
75.435
75.2261
74.9594
74.7088
74.4724
74.257
74.0675
73.9063
73.7733
73.6673
73.586
73.5266
73.4859
73.4607
73.4473
73.4437
73.4445
73.4507
73.4516
75.6638
75.8135
75.854
75.7426
75.4247
74.8408
73.9291
72.6308
70.8949
68.6868
65.9888
62.6598
58.6232
54.1828
49.6453
45.2513
41.1162
37.3177
33.8964
30.8606
28.1988
25.9014
23.905
22.1391
20.5486
19.0932
17.7427
16.4723
15.263
14.1081
13.0038
11.9573
10.9497
10.0113
75.8009
75.6008
75.3158
75.0395
74.7704
74.5183
74.291
74.0926
73.9248
73.7868
73.6772
73.5932
73.5317
73.4895
73.4631
73.4488
73.4445
73.4449
73.4507
73.4515
76.0183
76.1295
76.1016
75.8882
75.4317
74.67
73.5431
71.9955
69.9852
67.4825
64.3416
60.4538
56.0624
51.3784
46.7143
42.2951
38.2188
34.5402
31.2765
28.4164
25.9377
23.8134
21.9722
20.3467
18.8834
17.544
16.2999
15.1276
14.0088
12.9379
11.9105
10.9357
9.99412
9.21883
76.1808
76.005
75.7106
75.4146
75.1155
74.8268
74.56
74.3218
74.1152
73.9412
73.7988
73.6858
73.5994
73.5361
73.4924
73.465
73.45
73.4451
73.4453
73.4507
73.4514
76.3717
76.4253
76.3055
75.9644
75.3415
74.3751
73.007
71.1896
68.8847
65.9435
62.2269
57.9358
53.2446
48.3809
43.6557
39.275
35.3122
31.7955
28.7189
26.0536
23.7688
21.8224
20.1373
18.6509
17.3122
16.0855
14.9437
13.8656
12.8334
11.8422
10.8875
9.98086
9.21274
8.55106
76.5625
76.4304
76.139
75.8321
75.5079
75.1847
74.878
74.5976
74.3491
74.135
73.9555
73.809
73.6931
73.6045
73.5396
73.4948
73.4667
73.451
73.4457
73.4456
73.4507
73.4513
76.709
76.6826
76.4452
75.9482
75.131
73.9322
72.3002
70.1904
67.4521
63.9182
59.7532
55.1127
50.1884
45.216
40.5013
36.2215
32.4217
29.1027
26.2371
23.7807
21.6966
19.9301
18.4002
17.0501
15.8327
14.7145
13.671
12.6829
11.7329
10.8174
9.93121
9.20578
8.55811
7.85699
76.9308
76.8664
76.594
76.2881
75.9465
75.5927
75.2471
74.9236
74.6306
74.3729
74.1519
73.9675
73.8174
73.6989
73.6084
73.5423
73.4967
73.468
73.4519
73.4462
73.4458
73.4507
73.4513
77.0121
76.8807
76.4971
75.8155
74.7749
73.3191
71.3979
68.8593
65.5119
61.4926
56.941
52.022
46.9353
41.9272
37.2901
33.1667
29.5717
26.4792
23.8424
21.6042
19.7239
18.1369
16.7598
15.5423
14.4416
13.4278
12.4782
11.5757
10.7035
9.85975
9.15546
8.55244
7.8574
7.10623
77.267
77.2991
77.0657
76.7768
76.4283
76.0502
75.6689
75.3026
74.9635
74.659
74.3928
74.1658
73.977
73.8238
73.7031
73.6113
73.5443
73.4981
73.469
73.4525
73.4466
73.446
73.4507
73.4512
77.2597
76.9957
76.4365
75.5398
74.2495
72.5083
70.1614
67.0003
63.1429
58.716
53.8526
48.7204
43.5375
38.5601
34.0599
30.1402
26.784
23.9397
21.5436
19.5285
17.8522
16.4422
15.2139
14.1244
13.1359
12.2219
11.3615
10.54
9.74158
9.08364
8.5033
7.84644
7.09915
6.28348
77.5493
77.7112
77.5413
77.2893
76.9483
76.5552
76.1432
75.7363
75.3507
74.9973
74.6824
74.4088
74.1765
73.9839
73.8282
73.706
73.6133
73.5457
73.4991
73.4697
73.453
73.4469
73.4462
73.4507
73.4512
77.4274
77.0023
76.2359
75.0958
73.5239
71.3592
68.3819
64.6996
60.4289
55.6688
50.5487
45.2587
40.04
35.1546
30.8441
27.1679
24.077
21.496
19.3472
17.5563
16.0813
14.8441
13.7598
12.7932
11.9121
11.0928
10.317
9.57235
8.96183
8.43042
7.79733
7.08366
6.27344
5.38732
77.7523
78.0829
78.005
77.8144
77.4989
77.1034
76.6687
76.2252
75.7944
75.3911
75.0248
74.7008
74.4205
74.1837
73.9882
73.8309
73.7077
73.6144
73.5466
73.4998
73.4702
73.4534
73.4471
73.4463
73.4507
73.4512
77.4889
76.872
75.8681
74.4488
72.4552
69.6587
66.161
62.0714
57.4557
52.4038
47.0696
41.6741
36.4794
31.7448
27.6716
24.2716
21.4654
19.1567
17.2573
15.6886
14.4103
13.3401
12.3943
11.5453
10.7661
10.0368
9.34103
8.78799
8.30584
7.72232
7.03301
6.25663
5.37606
4.41482
77.848
78.3907
78.4376
78.3376
78.07
77.6884
77.2421
76.7686
76.2956
75.8428
75.4236
75.0459
74.7137
74.4279
74.1877
73.9903
73.832
73.7084
73.6149
73.5469
73.5001
73.4705
73.4536
73.4473
73.4464
73.4507
73.4512
77.4144
76.576
75.2952
73.4543
70.8336
67.5267
63.635
59.1954
54.2613
48.947
43.441
37.9959
32.8874
28.3609
24.5669
21.4691
18.9602
16.9277
15.2761
13.9249
12.837
11.9273
11.114
10.3767
9.69419
9.04988
8.54983
8.12794
7.59471
6.95482
6.20423
5.35883
4.40266
3.35959
77.8042
78.609
78.8169
78.8414
78.6488
78.3014
77.8579
77.3639
76.8541
76.3539
75.8813
75.4478
75.0601
74.7211
74.4312
74.1888
73.9904
73.8317
73.7081
73.6147
73.5468
73.5001
73.4706
73.4538
73.4475
73.4465
73.4507
73.4512
77.1725
76.0736
74.3716
71.9114
68.7959
65.1123
60.8704
56.0934
50.8582
45.3129
39.6839
34.2512
29.2934
25.0289
21.5503
18.7737
16.5693
14.8126
13.404
12.2636
11.3585
10.6023
9.91495
9.28355
8.69247
8.24986
7.88417
7.41227
6.82365
6.12256
5.3048
4.38452
3.34685
2.21459
77.5845
78.7097
79.1174
79.3051
79.2193
78.931
78.5087
78.0069
77.4681
76.9246
76.3998
75.9094
75.4634
75.0673
74.7234
74.431
74.1874
73.9887
73.8302
73.7069
73.6139
73.5463
73.4998
73.4708
73.4542
73.4476
73.4465
73.4507
73.4512
76.719
75.2172
72.9092
69.9702
66.4962
62.4658
57.8748
52.768
47.2521
41.5148
35.82
30.4674
25.7247
21.772
18.6379
16.1956
14.2977
12.8126
11.6399
10.7022
9.97185
9.36124
8.79318
8.26195
7.88036
7.57668
7.16244
6.63611
5.98739
5.21982
4.32884
3.32756
2.2016
0.972753
77.1387
78.6619
79.3109
79.705
79.7625
79.5628
79.1843
78.691
78.1342
77.5539
76.9797
76.4328
75.9268
75.4703
75.0681
74.7212
74.4275
74.1839
73.9856
73.8277
73.705
73.6125
73.5453
73.5
73.4714
73.4544
73.4476
73.4464
73.4507
73.4512
75.9029
73.8364
71.0664
67.7838
63.9691
59.5843
54.644
49.2179
43.4491
37.5683
31.8735
26.6724
22.2074
18.6097
15.8425
13.7416
12.1479
10.9272
9.98144
9.23754
8.673
8.20013
7.74482
7.43369
7.19699
6.84677
6.37962
5.79416
5.08035
4.24065
3.27022
2.18151
0.959638
-0.373475
78.4231
76.3155
79.3643
80.0145
80.2563
80.1796
79.872
79.4075
78.8471
78.2391
77.6208
77.019
76.4525
75.9334
75.4694
75.0635
74.7151
74.4215
74.1784
73.9811
73.8242
73.7023
73.6105
73.5454
73.5009
73.4717
73.4544
73.4475
73.4463
73.4507
73.4513
74.5735
72.092
68.9918
65.3737
61.2039
56.4591
51.1719
45.4433
39.4589
33.4932
27.8716
22.8949
18.7654
15.5584
13.1733
11.4153
10.1198
9.15453
8.42584
7.86576
7.45795
7.11506
6.89487
6.73676
6.45607
6.05507
5.5304
4.8809
4.09654
3.17866
2.12227
0.938983
-0.386741
-1.83209
79.239
77.8501
74.9702
80.2014
80.6761
80.7608
80.5562
80.1453
79.5992
78.976
78.321
77.6682
77.042
76.459
75.9303
75.4616
75.0541
74.7057
74.413
74.1714
73.9755
73.8197
73.6989
73.6102
73.5466
73.5013
73.4717
73.4542
73.4473
73.4462
73.4507
73.4514
72.896
70.1262
66.697
62.7236
58.1899
53.0814
47.4547
41.4483
35.2956
29.314
23.8441
19.1629
15.42
12.6311
10.6364
9.21814
8.21227
7.49179
6.96912
6.58271
6.32265
6.23546
6.17973
5.98118
5.65242
5.19616
4.60921
3.89034
3.0295
2.02709
0.877672
-0.408026
-1.84548
-3.41131
80.2294
78.8139
76.8308
73.2934
80.9915
81.2838
81.2181
80.8904
80.3809
79.7582
79.0769
78.3791
77.6957
77.0487
76.4536
75.919
75.4481
75.0405
74.6935
74.4027
74.163
73.9686
73.8143
73.6982
73.612
73.5472
73.5013
73.4714
73.4538
73.4471
73.446
73.4507
73.4515
71.0064
67.9447
64.1613
59.8219
54.9169
49.4448
43.4915
37.2409
30.9785
25.0591
19.8224
15.5037
12.19
9.83779
8.23505
7.14958
6.42262
5.93501
5.60701
5.38418
5.40262
5.49546
5.40443
5.16165
4.78055
4.26442
3.61007
2.81603
1.87243
0.778653
-0.471389
-1.86748
-3.42479
-5.11961
81.1699
79.9926
77.9467
75.4921
71.4174
81.72
81.837
81.6258
81.1799
80.5773
79.8833
79.1491
78.413
77.7034
77.0411
76.4382
75.9006
75.4296
75.0236
74.6789
74.3906
74.1528
73.9604
73.8128
73.7006
73.6128
73.5472
73.5009
73.4708
73.4536
73.4469
73.4458
73.4507
73.4516
68.9056
65.5224
61.3732
56.6583
51.3776
45.5453
39.2844
32.8334
26.5319
20.7608
15.8387
11.9423
9.09068
7.1849
5.97037
5.20761
4.74696
4.47973
4.33509
4.41333
4.62881
4.69328
4.56359
4.27262
3.83479
3.2538
2.52645
1.65112
0.618059
-0.574368
-1.93287
-3.44753
-5.13306
-6.96554
82.0409
81.125
79.3523
76.7629
73.9426
69.3389
82.3863
82.3327
81.981
81.4227
80.7332
79.974
79.192
78.4229
77.6937
77.0212
76.4142
75.8762
75.407
75.0038
74.6622
74.3763
74.1411
73.958
73.8161
73.7017
73.6128
73.5466
73.5
73.4706
73.4533
73.4466
73.4456
73.4507
73.4517
66.5639
62.8491
58.3235
53.2262
47.5665
41.38
34.8382
28.2428
21.985
16.4538
11.9243
8.50084
6.1335
4.67633
3.84157
3.38862
3.18073
3.1213
3.30528
3.59703
3.79005
3.82342
3.65153
3.30832
2.80902
2.15776
1.35149
0.388328
-0.741329
-2.03999
-3.51493
-5.15652
-6.97891
-8.95745
82.8417
82.1815
80.717
78.4016
75.3741
72.1933
67.0216
82.9865
82.7672
82.2812
81.6174
80.8477
80.0292
79.2057
78.4116
77.6691
76.9909
76.383
75.8468
75.3809
74.9816
74.6429
74.3602
74.1374
73.9624
73.8175
73.7017
73.612
73.5454
73.4998
73.4705
73.453
73.4462
73.4453
73.4507
73.4519
63.972
59.9176
55.007
49.5197
43.4777
36.947
30.1605
23.4911
17.3719
12.1749
8.10899
5.19747
3.32681
2.31352
1.84584
1.68814
1.71903
2.02189
2.43976
2.71233
2.88077
2.88012
2.66241
2.26256
1.69663
0.969356
0.0778712
-0.980053
-2.21376
-3.62643
-5.22593
-7.00303
-8.97025
-11.1073
83.567
83.1622
81.9989
80.0059
77.2468
73.814
70.2082
64.4559
83.516
83.1374
82.5243
81.7627
80.9197
80.0492
79.1938
78.3823
77.632
76.9519
76.3457
75.8133
75.3519
74.956
74.6212
74.3548
74.1431
73.9642
73.8175
73.7006
73.6102
73.5453
73.5001
73.4702
73.4525
73.4457
73.4449
73.4507
73.452
61.1253
56.725
51.4193
45.5322
39.1043
32.2439
25.2623
18.6068
12.7311
7.96081
4.41901
2.04679
0.675763
0.0952474
-0.020802
0.101174
0.536345
1.09826
1.502
1.75362
1.8951
1.85743
1.58996
1.1287
0.490674
-0.318742
-1.30214
-2.46206
-3.80746
-5.34208
-7.07427
-8.99449
-11.1161
-13.8186
84.2106
84.0604
83.2008
81.5226
79.0878
75.9427
72.0451
67.9792
61.6379
83.9711
83.4406
82.709
81.8572
80.9495
80.0384
79.1603
78.338
77.5844
76.9057
76.3035
75.7763
75.319
74.9276
74.6137
74.3622
74.1454
73.9642
73.8161
73.6981
73.6105
73.5463
73.5001
73.4697
73.4518
73.4451
73.4445
73.4507
73.4523
58.023
53.2695
47.5545
41.2545
34.4359
27.2688
20.1605
13.6248
8.10426
3.84656
0.877152
-0.940538
-1.818
-1.98135
-1.76319
-1.18279
-0.456862
0.0979372
0.486264
0.71491
0.826977
0.749001
0.42748
-0.100264
-0.816219
-1.71427
-2.79657
-4.06593
-5.53082
-7.19522
-9.06769
-11.1403
-13.8324
-17.0519
84.7676
84.8679
84.3165
82.9558
80.8369
78.0354
74.4532
70.055
65.5082
58.5681
84.3482
83.675
82.8333
81.901
80.9419
80.0014
79.1087
78.2811
77.5281
76.8536
76.2573
75.7346
75.2825
74.9176
74.6231
74.3651
74.1454
73.9624
73.8128
73.6989
73.6125
73.5468
73.4998
73.4689
73.451
73.4444
73.444
73.4507
73.4525
54.6658
49.5478
43.4039
36.6708
29.4584
22.0234
14.8801
8.58693
3.53438
-0.135117
-2.49816
-3.75835
-4.15531
-3.92052
-3.17302
-2.26066
-1.53208
-0.985044
-0.613575
-0.41002
-0.330049
-0.45192
-0.832053
-1.43169
-2.23177
-3.22525
-4.41368
-5.80007
-7.39207
-9.19373
-11.2135
-13.8631
-17.0698
-20.3515
85.234
85.5763
85.3365
84.3
82.4981
80.03
76.8155
72.7621
67.845
62.8021
55.2488
84.6448
83.8379
82.8968
81.9
80.903
79.9427
79.0419
78.2138
77.4649
76.7968
76.2054
75.6885
75.2693
74.9293
74.6267
74.3651
74.1431
73.958
73.8143
73.7024
73.6139
73.5469
73.4991
73.4679
73.45
73.4436
73.4435
73.4507
73.4528
51.0531
45.5538
38.9513
31.761
24.1625
16.5213
9.45791
3.54082
-0.935151
-3.95543
-5.69392
-6.40398
-6.33914
-5.48984
-4.35614
-3.42701
-2.69561
-2.157
-1.80387
-1.6277
-1.58279
-1.75235
-2.19597
-2.87327
-3.76395
-4.85986
-6.16185
-7.67271
-9.39921
-11.3444
-13.9423
-17.1031
-20.3641
-23.6528
85.6066
86.1787
86.2511
85.5446
84.0665
81.9307
79.0745
75.4068
70.8709
65.4246
59.8718
51.6813
84.8573
83.9284
82.9066
81.8613
80.8378
79.8658
78.9627
78.1382
77.3961
76.7332
76.1482
75.6717
75.2839
74.9338
74.6267
74.3622
74.1374
73.9604
73.8198
73.7051
73.6147
73.5465
73.4981
73.4666
73.4487
73.4427
73.4429
73.4507
73.4532
47.1821
41.2763
34.1731
26.4994
18.537
10.7836
3.94161
-1.46038
-5.26279
-7.59146
-8.70179
-8.87796
-8.10675
-6.80641
-5.63579
-4.6886
-3.95401
-3.42445
-3.09125
-2.94499
-2.93824
-3.15959
-3.67189
-4.43286
-5.42085
-6.62637
-8.04925
-9.6919
-11.5588
-14.0834
-17.19
-20.3935
-23.6637
-26.9389
85.8809
86.6694
87.0503
86.6786
85.5315
83.7314
81.235
77.942
73.8095
68.79
62.8095
56.7281
47.8652
84.984
83.9545
82.871
81.7909
80.7509
79.774
78.8737
78.0561
77.3193
76.6632
76.1269
75.6896
75.2894
74.9338
74.6231
74.3548
74.1411
73.9687
73.8243
73.7069
73.6148
73.5456
73.4966
73.465
73.4472
73.4416
73.4422
73.4507
73.4536
43.0452
36.6886
29.0269
20.845
12.568
4.83734
-1.61227
-6.36123
-9.41197
-11.0259
-11.518
-10.8809
-9.58883
-8.22973
-7.01926
-6.05225
-5.31394
-4.79411
-4.48259
-4.36884
-4.40362
-4.6811
-5.2675
-6.11838
-7.21055
-8.53281
-10.0838
-11.8641
-14.3106
-17.3432
-20.4796
-23.6934
-26.9488
-30.1979
86.0541
87.0418
87.7245
87.6907
86.8821
85.4208
83.29
80.3742
76.6302
72.034
66.5378
60.0187
53.3823
43.7993
85.0336
83.9262
82.7975
81.6945
80.6462
79.6705
78.7768
77.9645
77.2349
76.637
76.1488
75.6963
75.2894
74.9293
74.6137
74.3602
74.153
73.9757
73.8278
73.7081
73.6144
73.5442
73.4947
73.463
73.4455
73.4403
73.4414
73.4508
73.454
38.6217
31.7486
23.456
14.7531
6.25384
-1.27393
-7.13898
-11.1075
-13.3519
-14.2477
-13.799
-12.5594
-11.19
-9.76756
-8.51359
-7.52475
-6.7822
-6.27287
-5.98478
-5.90631
-5.9862
-6.32437
-6.99047
-7.93765
-9.14083
-10.5869
-12.272
-14.6325
-17.5867
-20.6374
-23.7806
-26.9799
-30.2067
-33.4092
86.1358
87.2905
88.2615
88.5697
88.1066
86.9874
85.2271
82.6967
79.3407
75.1483
70.0996
64.1374
57.0719
49.8483
39.4748
85.018
83.8525
82.6928
81.5768
80.5275
79.5578
78.669
77.8639
77.2029
76.6635
76.1568
75.6963
75.2839
74.9175
74.6213
74.3766
74.1632
73.9813
73.8303
73.7083
73.6132
73.5422
73.4923
73.4606
73.4435
73.4389
73.4406
73.4508
73.4545
33.8817
26.4038
17.3952
8.18617
-0.386435
-7.48535
-12.5682
-15.6479
-17.0591
-16.859
-15.709
-14.3713
-12.9184
-11.4271
-10.1256
-9.11289
-8.36563
-7.8675
-7.6047
-7.56443
-7.69316
-8.09671
-8.84825
-9.89809
-11.219
-12.7948
-15.0601
-17.9281
-20.8913
-23.9438
-27.069
-30.2386
-33.4169
-36.5504
86.1399
87.4268
88.6478
89.2989
89.1928
88.4187
87.033
84.8974
81.9362
78.1413
73.5151
68.0309
61.6132
53.9886
46.1344
34.8714
84.948
83.7413
82.5625
81.4424
80.3978
79.4322
78.5503
77.8254
77.2346
76.6729
76.1568
75.6896
75.2692
74.9277
74.6432
74.3909
74.1716
73.9857
73.8317
73.7077
73.6112
73.5394
73.4894
73.4578
73.4412
73.4373
73.4397
73.4508
73.455
28.7795
20.5737
10.76
1.12031
-7.31057
-13.7139
-17.8266
-19.9376
-20.0674
-19.044
-17.7688
-16.325
-14.781
-13.2149
-11.8619
-10.8233
-10.0708
-9.58462
-9.34904
-9.34995
-9.53135
-10.0051
-10.8477
-12.0065
-13.4506
-15.6062
-18.3775
-21.2467
-24.2071
-27.2389
-30.3288
-33.4491
-36.5568
-39.5993
86.079
87.4679
88.8914
89.8576
90.1201
89.7025
88.6926
86.9627
84.4063
81.0113
76.7933
71.7561
65.8551
58.9898
50.7892
42.2427
29.9594
84.8331
83.5995
82.4122
81.2948
80.2531
79.2939
78.5047
77.8632
77.2458
76.6729
76.1488
75.6716
75.2826
74.9565
74.6626
74.403
74.1786
73.9888
73.8319
73.7059
73.6083
73.536
73.4859
73.4546
73.4386
73.4356
73.4388
73.4509
73.4556
23.2436
14.1357
3.4519
-6.45368
-14.4455
-19.859
-22.8392
-23.4232
-22.5815
-21.3973
-19.9862
-18.4264
-16.7837
-15.1371
-13.7287
-12.6622
-11.9038
-11.4305
-11.224
-11.2691
-11.5071
-12.0558
-12.9951
-14.2677
-16.2896
-18.9475
-21.7118
-24.5734
-27.5115
-30.5043
-33.5399
-36.5891
-39.6044
-42.5344
85.9642
87.4292
89.0114
90.2492
90.8604
90.8167
90.1909
88.8765
86.7391
83.7509
79.9363
75.3212
69.8996
63.5999
56.2924
47.497
38.1771
24.6984
84.6814
83.4336
82.2462
81.1299
80.0933
79.2403
78.5493
77.8762
77.2457
76.6634
76.1268
75.6887
75.3195
74.9822
74.6793
74.4133
74.184
73.9904
73.8308
73.703
73.6043
73.5317
73.4817
73.4511
73.436
73.4339
73.4379
73.4509
73.4562
17.1629
6.90423
-4.64551
-14.5042
-21.688
-25.7859
-26.9341
-26.3314
-25.2829
-23.9253
-22.3656
-20.6801
-18.9314
-17.1988
-15.7313
-14.6348
-13.8703
-13.4105
-13.2352
-13.3274
-13.6258
-14.254
-15.2943
-17.1408
-19.6581
-22.2988
-25.0493
-27.8866
-30.784
-33.7197
-36.6799
-39.6365
-42.5382
-45.3343
85.8055
87.3247
89.0267
90.4914
91.4134
91.728
91.5017
90.6209
88.9191
86.3513
82.9411
78.7343
73.7534
67.975
61.2933
53.5489
44.1349
33.9398
19.0306
84.5008
83.249
82.06
80.9472
80.0311
79.2927
78.5644
77.8762
77.2346
76.6369
76.1484
75.7354
75.3527
75.0045
74.6939
74.4217
74.1875
73.9902
73.8281
73.6988
73.5993
73.5265
73.477
73.4473
73.4332
73.4321
73.437
73.451
73.4568
10.3491
-1.43336
-13.5745
-22.9892
-28.7972
-30.6555
-30.351
-29.4497
-28.1736
-26.6287
-24.9087
-23.0885
-21.2272
-19.4038
-17.8737
-16.7457
-15.9747
-15.5294
-15.387
-15.5292
-15.8916
-16.6028
-18.2107
-20.5423
-23.028
-25.6465
-28.3693
-31.1642
-34.0035
-36.8622
-39.7265
-42.5696
-45.3365
-47.9783
85.6121
87.1662
88.955
90.6022
91.7971
92.4338
92.5844
92.1637
90.9282
88.7996
85.8034
81.9973
77.4329
72.1195
66.0116
58.9644
50.787
40.7245
29.5439
12.8915
84.2978
83.0409
81.853
80.8756
80.0922
79.31
78.5644
77.8632
77.2028
76.6636
76.2063
75.7774
75.3818
75.0242
74.7061
74.4277
74.1887
73.9881
73.8237
73.693
73.5931
73.5206
73.472
73.4432
73.4302
73.4303
73.4361
73.4511
73.4575
2.45475
-11.2212
-23.4837
-31.4768
-34.701
-34.7121
-34.0012
-32.779
-31.2486
-29.5036
-27.6139
-25.6515
-23.6721
-21.7538
-20.1585
-18.9976
-18.2199
-17.79
-17.6825
-17.8771
-18.3063
-19.5759
-21.6539
-23.9353
-26.3865
-28.971
-31.6486
-34.3844
-37.1469
-39.9095
-42.6578
-45.3669
-47.9794
-50.4478
85.3917
86.9651
88.8122
90.5993
92.0292
92.9532
93.4345
93.4529
92.7299
91.0793
88.5143
85.1115
80.9456
76.0616
70.4489
64.0389
56.64
48.0366
37.3024
25.0493
6.20471
84.0673
82.8086
81.7713
80.9465
80.1121
79.31
78.5493
77.8252
77.2353
76.7344
76.2586
75.8144
75.4078
75.0411
74.7153
74.4309
74.1875
73.9837
73.8173
73.6857
73.5858
73.5141
73.4665
73.4389
73.4271
73.4284
73.4352
73.4511
73.4582
-7.09325
-23.6272
-33.5649
-38.8113
-39.5617
-39.0045
-37.8673
-36.3054
-34.4978
-32.5409
-30.4756
-28.3654
-26.2639
-24.2482
-22.5861
-21.3915
-20.6074
-20.1938
-20.1226
-20.3714
-21.3542
-23.0736
-25.0766
-27.3074
-29.7147
-32.2487
-34.8649
-37.5241
-40.1915
-42.8389
-45.4525
-48.008
-50.4472
-52.7246
85.1395
86.7302
88.6132
90.5004
92.1276
93.3047
94.0743
94.4762
94.2605
93.1526
91.0613
88.0735
84.2996
79.815
74.6493
68.7707
62.0825
54.3488
45.3431
33.9166
20.568
-1.10449
83.8088
82.7162
81.8531
80.9692
80.1121
79.2926
78.5045
77.8643
77.3207
76.7984
76.305
75.8479
75.4304
75.0544
74.7212
74.4311
74.1835
73.9769
73.8089
73.677
73.5777
73.507
73.4607
73.4345
73.424
73.4264
73.4343
73.4512
73.459
-20.7723
-37.2113
-43.5963
-44.9669
-44.6655
-43.4832
-41.901
-40.0001
-37.9062
-35.7264
-33.4831
-31.2227
-28.9975
-26.8836
-25.154
-23.9258
-23.1357
-22.7395
-22.7055
-23.509
-24.9238
-26.5358
-28.467
-30.6404
-32.989
-35.4572
-37.9956
-40.5607
-43.1146
-45.6292
-48.0898
-50.4731
-52.7222
-54.7897
84.8555
86.4568
88.3696