/*--------------------------------*- C++ -*----------------------------------*\
  =========                 |
  \\      /  F ield         | OpenFOAM: The Open Source CFD Toolbox
   \\    /   O peration     | Website:  https://openfoam.org
    \\  /    A nd           | Version:  8
     \\/     M anipulation  |
\*---------------------------------------------------------------------------*/
FoamFile
{
    version     2.0;
    format      ascii;
    class       volVectorField;
    location    "0.08";
    object      U;
}
// * * * * * * * * * * * * * * * * * * * * * * * * * * * * * * * * * * * * * //

dimensions      [0 1 -1 0 0 0 0];

internalField   nonuniform List<vector> 
15677
(
(-0.0399015 9.66595 0)
(0.0484951 9.92199 0)
(-0.0018136 9.37829 0)
(0.0206524 9.97702 0)
(0.0198921 9.78866 0)
(0.00731345 9.14125 0)
(0.0258391 9.99515 0)
(0.0165373 9.92467 0)
(0.0111792 9.65398 0)
(0.00649146 8.96067 0)
(0.0263308 10.0025 0)
(0.0205524 9.97871 0)
(0.0165509 9.85203 0)
(0.00912497 9.53081 0)
(0.00515974 8.81703 0)
(0.0255703 10.0057 0)
(0.0215844 10.003 0)
(0.0194061 9.94152 0)
(0.0153648 9.77951 0)
(0.00798047 9.41984 0)
(0.00424053 8.70238 0)
(0.0245088 10.0071 0)
(0.021866 10.0147 0)
(0.0210023 9.98478 0)
(0.0182525 9.90244 0)
(0.0138547 9.70811 0)
(0.0069252 9.32158 0)
(0.00354494 8.61019 0)
(0.023097 10.0075 0)
(0.0217424 10.0205 0)
(0.0218695 10.0069 0)
(0.0201987 9.96497 0)
(0.0169616 9.86193 0)
(0.012442 9.64084 0)
(0.00596866 9.23643 0)
(0.0029587 8.53616 0)
(0.021409 10.0074 0)
(0.021191 10.0233 0)
(0.0221527 10.0184 0)
(0.0212882 9.99809 0)
(0.0190534 9.94371 0)
(0.0156081 9.82229 0)
(0.0110793 9.57966 0)
(0.00507709 9.16416 0)
(0.00241888 8.47763 0)
(0.0195159 10.007 0)
(0.0203304 10.0235 0)
(0.02211 10.0241 0)
(0.0217806 10.0162 0)
(0.0202167 9.98814 0)
(0.0177204 9.92275 0)
(0.0141432 9.78537 0)
(0.00968589 9.52575 0)
(0.00419891 9.10454 0)
(0.00188736 8.4331 0)
(0.0175005 10.0063 0)
(0.0192741 10.0223 0)
(0.0216666 10.0271 0)
(0.0218028 10.0261 0)
(0.0207475 10.0131 0)
(0.0188618 9.97855 0)
(0.0161746 9.90359 0)
(0.0125195 9.75241 0)
(0.00820396 9.48009 0)
(0.00328872 9.0574 0)
(0.00133505 8.40161 0)
(0.0153991 10.0056 0)
(0.0179649 10.0206 0)
(0.020934 10.0281 0)
(0.0214567 10.0315 0)
(0.0207806 10.0273 0)
(0.0193196 10.0103 0)
(0.0171883 9.97058 0)
(0.0143585 9.8872 0)
(0.0106816 9.72459 0)
(0.0065828 9.44348 0)
(0.00230491 9.02267 0)
(0.000739342 8.38286 0)
(0.013262 10.0048 0)
(0.0164817 10.0185 0)
(0.0198593 10.0274 0)
(0.0207819 10.034 0)
(0.0204001 10.0354 0)
(0.0192414 10.0288 0)
(0.0174625 10.0092 0)
(0.0151331 9.96504 0)
(0.0122 9.8746 0)
(0.00856781 9.70297 0)
(0.00477122 9.41666 0)
(0.00121323 9.00041 0)
(5.67829e-05 8.37665 0)
(0.0111598 10.0041 0)
(0.0148851 10.0162 0)
(0.0185082 10.0258 0)
(0.0197963 10.0345 0)
(0.0196656 10.0396 0)
(0.0187149 10.0396 0)
(0.0171499 10.0319 0)
(0.015106 10.0103 0)
(0.012609 9.96283 0)
(0.00961922 9.86677 0)
(0.00611385 9.68862 0)
(0.00272222 9.40028 0)
(-1.46022e-05 8.99079 0)
(-0.000613801 8.38295 0)
(0.0092704 10.0034 0)
(0.0131864 10.014 0)
(0.0169194 10.0235 0)
(0.0185011 10.0334 0)
(0.0185928 10.0412 0)
(0.0177893 10.0456 0)
(0.0163408 10.0453 0)
(0.0144275 10.0371 0)
(0.0121447 10.0146 0)
(0.00951522 9.96484 0)
(0.00653269 9.86473 0)
(0.00325933 9.6825 0)
(0.000398315 9.39498 0)
(-0.00137776 8.99411 0)
(-0.00140204 8.40189 0)
(0.00772497 10.0029 0)
(0.0116232 10.0119 0)
(0.0151327 10.0209 0)
(0.0169104 10.0313 0)
(0.0171822 10.0409 0)
(0.0164837 10.0483 0)
(0.0150804 10.053 0)
(0.0131892 10.0531 0)
(0.0109503 10.0453 0)
(0.00845544 10.0228 0)
(0.00574488 9.97196 0)
(0.00285894 9.86947 0)
(-6.00326e-05 9.68557 0)
(-0.0022595 9.40139 0)
(-0.00294047 9.01055 0)
(-0.00229187 8.43374 0)
(0.00641346 10.0024 0)
(0.0102308 10.0102 0)
(0.0133937 10.0184 0)
(0.0150541 10.0286 0)
(0.0154378 10.0392 0)
(0.0148018 10.0488 0)
(0.0133867 10.0568 0)
(0.0114334 10.0624 0)
(0.00911518 10.0638 0)
(0.00657052 10.0573 0)
(0.00390607 10.0358 0)
(0.00119262 9.98513 0)
(-0.00147814 9.88196 0)
(-0.00388102 9.69869 0)
(-0.00526571 9.42006 0)
(-0.0046952 9.04035 0)
(-0.00327969 8.47857 0)
(0.00530907 10.002 0)
(0.00897444 10.0087 0)
(0.011815 10.0162 0)
(0.0131767 10.0257 0)
(0.0133769 10.0364 0)
(0.0127442 10.0475 0)
(0.0112628 10.058 0)
(0.00917447 10.0674 0)
(0.00667768 10.0747 0)
(0.00394418 10.0781 0)
(0.00112851 10.0739 0)
(-0.00163613 10.0545 0)
(-0.00424421 10.0053 0)
(-0.00655268 9.90314 0)
(-0.00826075 9.72267 0)
(-0.00864793 9.45139 0)
(-0.00664697 9.08359 0)
(-0.0043604 8.53643 0)
(0.00438509 10.0016 0)
(0.00784214 10.0074 0)
(0.0103572 10.0143 0)
(0.0114382 10.023 0)
(0.0112615 10.0333 0)
(0.0103203 10.0448 0)
(0.0087089 10.0571 0)
(0.00641284 10.0691 0)
(0.00364645 10.0805 0)
(0.000607459 10.0904 0)
(-0.00251442 10.0969 0)
(-0.00553836 10.0959 0)
(-0.00829981 10.0797 0)
(-0.010658 10.0332 0)
(-0.0124218 9.93386 0)
(-0.0132289 9.7581 0)
(-0.0124231 9.49569 0)
(-0.00880087 9.1404 0)
(-0.00553248 8.60719 0)
(0.00361107 10.0013 0)
(0.00682233 10.0062 0)
(0.00901461 10.0126 0)
(0.00980576 10.0206 0)
(0.00928783 10.0303 0)
(0.00782823 10.0415 0)
(0.00573303 10.0545 0)
(0.00314822 10.0685 0)
(1.76546e-05 10.0828 0)
(-0.00343892 10.0971 0)
(-0.00700267 10.1104 0)
(-0.0104562 10.1209 0)
(-0.0135877 10.1242 0)
(-0.0162023 10.1122 0)
(-0.018124 10.0698 0)
(-0.0191234 9.97484 0)
(-0.0187988 9.80551 0)
(-0.01659 9.55312 0)
(-0.0111452 9.21053 0)
(-0.0067831 8.6905 0)
(0.00297839 10.001 0)
(0.00591083 10.0052 0)
(0.00778303 10.011 0)
(0.00828672 10.0184 0)
(0.00742726 10.0274 0)
(0.00550126 10.0381 0)
(0.00269132 10.0509 0)
(-0.000609338 10.0658 0)
(-0.00421019 10.0823 0)
(-0.00820489 10.0997 0)
(-0.0123465 10.1178 0)
(-0.0163853 10.1355 0)
(-0.0200714 10.1509 0)
(-0.0231637 10.1595 0)
(-0.0254393 10.1529 0)
(-0.0266943 10.1159 0)
(-0.0266757 10.0267 0)
(-0.0249662 9.86516 0)
(-0.0211355 9.62362 0)
(-0.0136717 9.29381 0)
(-0.00810538 8.78595 0)
(0.00247774 10.0008 0)
(0.00508799 10.0044 0)
(0.00665998 10.0096 0)
(0.00688476 10.0164 0)
(0.00569686 10.0247 0)
(0.00331084 10.0347 0)
(-0.000138497 10.047 0)
(-0.0044176 10.0618 0)
(-0.00902296 10.0794 0)
(-0.0136939 10.0992 0)
(-0.0185645 10.1206 0)
(-0.0233508 10.1433 0)
(-0.0277672 10.1664 0)
(-0.0315341 10.1877 0)
(-0.0343851 10.2026 0)
(-0.0360783 10.2024 0)
(-0.0363933 10.1719 0)
(-0.0350728 10.0897 0)
(-0.0317086 9.93719 0)
(-0.0260305 9.70701 0)
(-0.0163494 9.3896 0)
(-0.00947591 8.8927 0)
(0.00209312 10.0007 0)
(0.0043844 10.0037 0)
(0.00563825 10.0084 0)
(0.00560146 10.0145 0)
(0.00410625 10.0221 0)
(0.00128353 10.0314 0)
(-0.00278997 10.043 0)
(-0.00794026 10.0573 0)
(-0.0138603 10.0748 0)
(-0.0198867 10.0958 0)
(-0.0256632 10.1198 0)
(-0.0313828 10.1462 0)
(-0.0367201 10.1745 0)
(-0.0413567 10.2039 0)
(-0.0449892 10.232 0)
(-0.0473373 10.2541 0)
(-0.0481519 10.2613 0)
(-0.0472135 10.2382 0)
(-0.0442824 10.1643 0)
(-0.0389817 10.0214 0)
(-0.0312317 9.80281 0)
(-0.019158 9.49734 0)
(-0.0108759 9.01005 0)
(0.00179665 10.0006 0)
(0.00381353 10.0032 0)
(0.00475641 10.0074 0)
(0.00443708 10.0129 0)
(0.00266131 10.0198 0)
(-0.000564407 10.0283 0)
(-0.00522699 10.039 0)
(-0.0112215 10.0525 0)
(-0.0183086 10.0695 0)
(-0.0260675 10.0905 0)
(-0.0336172 10.1158 0)
(-0.0404933 10.1449 0)
(-0.0469761 10.1772 0)
(-0.0527024 10.2121 0)
(-0.0573291 10.2487 0)
(-0.0605432 10.2845 0)
(-0.0620638 10.3147 0)
(-0.0616537 10.33 0)
(-0.0591121 10.3153 0)
(-0.0542429 10.2502 0)
(-0.0467202 10.1176 0)
(-0.0366855 9.91041 0)
(-0.0220322 9.61601 0)
(-0.0122402 9.13638 0)
(0.00156394 10.0005 0)
(0.00334872 10.0028 0)
(0.00403403 10.0065 0)
(0.00343721 10.0114 0)
(0.00136615 10.0175 0)
(-0.00222209 10.0253 0)
(-0.00742563 10.0351 0)
(-0.0142151 10.0477 0)
(-0.0224283 10.0638 0)
(-0.031722 10.0841 0)
(-0.0415125 10.1094 0)
(-0.0506498 10.14 0)
(-0.0585547 10.1753 0)
(-0.0656377 10.2143 0)
(-0.071508 10.2568 0)
(-0.0758154 10.3015 0)
(-0.078253 10.3458 0)
(-0.0785603 10.3846 0)
(-0.0765321 10.4088 0)
(-0.0720115 10.403 0)
(-0.0648652 10.3473 0)
(-0.0548395 10.2251 0)
(-0.0422756 10.0289 0)
(-0.0248566 9.74431 0)
(-0.0132712 9.26986 0)
(0.00137874 10.0005 0)
(0.00296771 10.0025 0)
(0.00344379 10.0059 0)
(0.00262516 10.0102 0)
(0.000272375 10.0156 0)
(-0.00368189 10.0224 0)
(-0.00936911 10.0313 0)
(-0.0168881 10.0428 0)
(-0.0261615 10.0578 0)
(-0.0369334 10.0772 0)
(-0.0487071 10.1017 0)
(-0.0606919 10.1322 0)
(-0.0714171 10.1691 0)
(-0.0801937 10.2115 0)
(-0.0876192 10.2584 0)
(-0.0932975 10.3093 0)
(-0.0968889 10.3628 0)
(-0.0981175 10.4162 0)
(-0.0967683 10.4643 0)
(-0.0926946 10.4977 0)
(-0.0857961 10.5012 0)
(-0.0760315 10.4551 0)
(-0.0631929 10.3432 0)
(-0.0479544 10.1572 0)
(-0.027821 9.88172 0)
(-0.0155991 9.4105 0)
(0.00122952 10.0004 0)
(0.00265306 10.0022 0)
(0.0029599 10.0053 0)
(0.00197071 10.0092 0)
(-0.000597604 10.0139 0)
(-0.00488491 10.0198 0)
(-0.0110454 10.0276 0)
(-0.0192165 10.038 0)
(-0.0294646 10.0517 0)
(-0.0416297 10.0697 0)
(-0.0553132 10.0931 0)
(-0.0698174 10.1228 0)
(-0.0841019 10.1595 0)
(-0.0963268 10.2037 0)
(-0.10571 10.2543 0)
(-0.113116 10.31 0)
(-0.118164 10.37 0)
(-0.120557 10.433 0)
(-0.120077 10.496 0)
(-0.116581 10.5537 0)
(-0.109997 10.5966 0)
(-0.100314 10.6095 0)
(-0.0875568 10.573 0)
(-0.0716373 10.4708 0)
(-0.0529624 10.2943 0)
(-0.0246705 10.0219 0)
(-0.0115171 9.49595 0)
(0.00110784 10.0004 0)
(0.00239175 10.002 0)
(0.00256248 10.0049 0)
(0.00144192 10.0083 0)
(-0.0012814 10.0125 0)
(-0.00581244 10.0176 0)
(-0.0123867 10.0242 0)
(-0.0211827 10.0332 0)
(-0.0323047 10.0455 0)
(-0.0457547 10.0621 0)
(-0.0612421 10.0839 0)
(-0.0781757 10.1123 0)
(-0.0956099 10.1481 0)
(-0.112213 10.192 0)
(-0.125735 10.2446 0)
(-0.135344 10.3044 0)
(-0.142253 10.3696 0)
(-0.146132 10.4395 0)
(-0.146755 10.5124 0)
(-0.144 10.5854 0)
(-0.137822 10.6528 0)
(-0.128253 10.7051 0)
(-0.11534 10.7273 0)
(-0.0992538 10.7001 0)
(-0.0796605 10.6069 0)
(-0.0569598 10.4372 0)
(-0.0201668 10.1936 0)
(-0.00294783 9.56172 0)
(0.00100747 10.0003 0)
(0.00217388 10.0018 0)
(0.00223037 10.0045 0)
(0.00101431 10.0076 0)
(-0.00181715 10.0112 0)
(-0.00651396 10.0156 0)
(-0.0133806 10.0212 0)
(-0.0227071 10.0287 0)
(-0.0346571 10.0394 0)
(-0.0492642 10.0543 0)
(-0.0664218 10.0743 0)
(-0.0856575 10.1009 0)
(-0.106136 10.1352 0)
(-0.126616 10.1781 0)
(-0.145446 10.2304 0)
(-0.159938 10.2924 0)
(-0.169256 10.3623 0)
(-0.17506 10.4378 0)
(-0.177121 10.518 0)
(-0.175331 10.6012 0)
(-0.169688 10.6842 0)
(-0.160271 10.7612 0)
(-0.1472 10.8228 0)
(-0.130633 10.8539 0)
(-0.110581 10.8352 0)
(-0.0864495 10.7504 0)
(-0.060166 10.5942 0)
(-0.0215786 10.3668 0)
(0.00235981 9.61906 0)
(0.000923852 10.0003 0)
(0.00199162 10.0017 0)
(0.00195465 10.0041 0)
(0.000670598 10.007 0)
(-0.00223563 10.0102 0)
(-0.00703794 10.0139 0)
(-0.0140937 10.0186 0)
(-0.0237865 10.0248 0)
(-0.036426 10.0336 0)
(-0.0521241 10.0464 0)
(-0.0707942 10.0644 0)
(-0.0921712 10.0889 0)
(-0.115547 10.1211 0)
(-0.139788 10.1623 0)
(-0.163322 10.2136 0)
(-0.184156 10.2752 0)
(-0.199135 10.3477 0)
(-0.207489 10.4285 0)
(-0.211465 10.5149 0)
(-0.210977 10.6058 0)
(-0.206068 10.6993 0)
(-0.196889 10.7922 0)
(-0.183636 10.8786 0)
(-0.166552 10.949 0)
(-0.145701 10.9884 0)
(-0.120926 10.978 0)
(-0.0920335 10.9021 0)
(-0.0622192 10.7639 0)
(-0.0243989 10.5367 0)
(0.0032088 9.67595 0)
(0.000853631 10.0003 0)
(0.00183841 10.0016 0)
(0.00172601 10.0038 0)
(0.000390244 10.0064 0)
(-0.00256123 10.0093 0)
(-0.00742347 10.0125 0)
(-0.0145889 10.0163 0)
(-0.0245105 10.0213 0)
(-0.0376205 10.0284 0)
(-0.0542174 10.0389 0)
(-0.074313 10.0544 0)
(-0.0976414 10.0764 0)
(-0.123726 10.1061 0)
(-0.151562 10.145 0)
(-0.179679 10.1944 0)
(-0.20614 10.255 0)
(-0.228586 10.3272 0)
(-0.243406 10.411 0)
(-0.249991 10.5033 0)
(-0.251308 10.601 0)
(-0.247461 10.7028 0)
(-0.238681 10.8066 0)
(-0.225273 10.909 0)
(-0.207583 11.0042 0)
(-0.185846 11.0828 0)
(-0.160028 11.1301 0)
(-0.130655 11.1279 0)
(-0.0974618 11.062 0)
(-0.0640179 10.9409 0)
(-0.027064 10.7021 0)
(0.00272494 9.74935 0)
(0.00079425 10.0003 0)
(0.00170887 10.0015 0)
(0.00153636 10.0036 0)
(0.00016043 10.006 0)
(-0.00281443 10.0085 0)
(-0.00770183 10.0112 0)
(-0.0149171 10.0143 0)
(-0.0249623 10.0182 0)
(-0.0383607 10.0238 0)
(-0.0555683 10.0321 0)
(-0.0768334 10.0447 0)
(-0.102006 10.0637 0)
(-0.130576 10.0905 0)
(-0.161795 10.1266 0)
(-0.194317 10.1733 0)
(-0.226287 10.2319 0)
(-0.255369 10.3031 0)
(-0.278868 10.3867 0)
(-0.292719 10.4827 0)
(-0.296599 10.5871 0)
(-0.294328 10.6963 0)
(-0.286247 10.8089 0)
(-0.272798 10.9226 0)
(-0.254466 11.034 0)
(-0.231666 11.1375 0)
(-0.204622 11.2238 0)
(-0.173798 11.2788 0)
(-0.140398 11.2842 0)
(-0.103604 11.229 0)
(-0.0666786 11.1202 0)
(-0.0299131 10.8822 0)
(0.00159273 9.834 0)
(0.000743715 10.0002 0)
(0.00159875 10.0014 0)
(0.00137687 10.0034 0)
(-2.86995e-05 10.0056 0)
(-0.0030109 10.0078 0)
(-0.0078978 10.0101 0)
(-0.0151184 10.0125 0)
(-0.0252082 10.0155 0)
(-0.0387561 10.0197 0)
(-0.0563362 10.0261 0)
(-0.078397 10.0359 0)
(-0.105084 10.0513 0)
(-0.136016 10.0745 0)
(-0.170362 10.1072 0)
(-0.207055 10.1507 0)
(-0.244352 10.2065 0)
(-0.279971 10.2756 0)
(-0.311192 10.3583 0)
(-0.335004 10.4543 0)
(-0.346919 10.5631 0)
(-0.347031 10.6799 0)
(-0.340161 10.8006 0)
(-0.326928 10.9237 0)
(-0.308005 11.0468 0)
(-0.284022 11.1667 0)
(-0.255464 11.2778 0)
(-0.222959 11.3714 0)
(-0.187455 11.4333 0)
(-0.150322 11.4458 0)
(-0.110472 11.4002 0)
(-0.0705704 11.32 0)
(-0.0328533 11.0771 0)
(-0.000167669 9.92789 0)
(0.000700418 10.0002 0)
(0.00150466 10.0013 0)
(0.00124231 10.0032 0)
(-0.000183402 10.0052 0)
(-0.00316296 10.0072 0)
(-0.00803086 10.0091 0)
(-0.0152247 10.011 0)
(-0.0253009 10.0132 0)
(-0.038894 10.0161 0)
(-0.0566643 10.0207 0)
(-0.0792125 10.0281 0)
(-0.106936 10.0401 0)
(-0.139816 10.0589 0)
(-0.177156 10.0873 0)
(-0.217736 10.127 0)
(-0.260114 10.1792 0)
(-0.302095 10.2452 0)
(-0.340973 10.3259 0)
(-0.373657 10.4212 0)
(-0.396853 10.5303 0)
(-0.405712 10.6524 0)
(-0.400893 10.7818 0)
(-0.388362 10.9138 0)
(-0.369045 11.0468 0)
(-0.343841 11.1788 0)
(-0.313532 11.3064 0)
(-0.278946 11.4246 0)
(-0.241166 11.5246 0)
(-0.201212 11.5925 0)
(-0.160363 11.6107 0)
(-0.118269 11.5938 0)
(-0.0753161 11.5392 0)
(-0.036023 11.2675 0)
(-0.0021049 10.0286 0)
(0.000663364 10.0002 0)
(0.00142372 10.0013 0)
(0.00112845 10.0031 0)
(-0.00031063 10.0049 0)
(-0.00328009 10.0067 0)
(-0.00811627 10.0083 0)
(-0.0152607 10.0097 0)
(-0.0252818 10.0111 0)
(-0.0388435 10.013 0)
(-0.0566673 10.016 0)
(-0.0794665 10.0211 0)
(-0.107832 10.03 0)
(-0.142057 10.0447 0)
(-0.181884 10.0678 0)
(-0.22622 10.1024 0)
(-0.273372 10.1503 0)
(-0.32147 10.2124 0)
(-0.367856 10.2899 0)
(-0.409395 10.3833 0)
(-0.442651 10.4922 0)
(-0.464126 10.615 0)
(-0.46868 10.7506 0)
(-0.4577 10.8924 0)
(-0.438426 11.0353 0)
(-0.412106 11.1778 0)
(-0.379881 11.3178 0)
(-0.342854 11.4525 0)
(-0.302253 11.5768 0)
(-0.259348 11.6822 0)
(-0.215046 11.7543 0)
(-0.171413 11.7971 0)
(-0.126675 11.8085 0)
(-0.0804544 11.7544 0)
(-0.0391146 11.4526 0)
(-0.00395652 10.134 0)
(0.00135349 10.0012 0)
(0.000619428 10.0002 0)
(0.00103111 10.0029 0)
(-0.000415423 10.0046 0)
(-0.00336974 10.0062 0)
(-0.0081659 10.0075 0)
(-0.0152457 10.0085 0)
(-0.0251827 10.0093 0)
(-0.0386586 10.0102 0)
(-0.0564356 10.0118 0)
(-0.0793079 10.015 0)
(-0.108011 10.021 0)
(-0.143083 10.0318 0)
(-0.184648 10.0499 0)
(-0.232135 10.0782 0)
(-0.283948 10.1202 0)
(-0.337845 10.1777 0)
(-0.391508 10.251 0)
(-0.441797 10.3413 0)
(-0.485167 10.4485 0)
(-0.517903 10.5715 0)
(-0.536395 10.7085 0)
(-0.535302 10.8576 0)
(-0.516895 11.0116 0)
(-0.489813 11.1648 0)
(-0.455646 11.3159 0)
(-0.415874 11.4632 0)
(-0.37198 11.6039 0)
(-0.325387 11.7333 0)
(-0.277388 11.8424 0)
(-0.23027 11.9369 0)
(-0.183227 12.0044 0)
(-0.134847 12.0209 0)
(-0.0855678 11.9636 0)
(-0.0420031 11.632 0)
(-0.00572395 10.2422 0)
(0.00094587 10.0028 0)
(0.00127304 10.0012 0)
(0.00056714 10.0002 0)
(-0.000502476 10.0044 0)
(-0.00343751 10.0058 0)
(-0.00818876 10.0069 0)
(-0.0151947 10.0075 0)
(-0.0250284 10.0077 0)
(-0.0383809 10.0077 0)
(-0.0560396 10.0081 0)
(-0.0788542 10.0095 0)
(-0.107667 10.013 0)
(-0.1432 10.0204 0)
(-0.18588 10.0337 0)
(-0.235598 10.056 0)
(-0.291368 10.0906 0)
(-0.350992 10.1413 0)
(-0.411621 10.2097 0)
(-0.470463 10.2956 0)
(-0.523908 10.3998 0)
(-0.568052 10.5217 0)
(-0.59899 10.6596 0)
(-0.61311 10.8108 0)
(-0.604966 10.9733 0)
(-0.577879 11.1388 0)
(-0.541995 11.3015 0)
(-0.499305 11.4604 0)
(-0.451668 11.614 0)
(-0.400806 11.7598 0)
(-0.348178 11.8925 0)
(-0.297063 12.0229 0)
(-0.246424 12.1395 0)
(-0.194536 12.2101 0)
(-0.142555 12.2286 0)
(-0.0904269 12.1659 0)
(-0.0446054 11.8051 0)
(-0.00733983 10.3513 0)
(-0.000579892 10.0042 0)
(0.000857148 10.0027 0)
(0.00117535 10.0011 0)
(0.000517405 10.0002 1.86659e-19)
(-0.00348866 10.0055 0)
(-0.00819138 10.0063 0)
(-0.0151186 10.0066 0)
(-0.024838 10.0063 0)
(-0.0380424 10.0056 0)
(-0.0555336 10.0048 0)
(-0.0781972 10.0046 0)
(-0.10695 10.0059 0)
(-0.142652 10.0102 0)
(-0.185962 10.0193 0)
(-0.237142 10.0359 0)
(-0.295757 10.0633 0)
(-0.360307 10.1054 0)
(-0.427903 10.1662 0)
(-0.495015 10.2469 0)
(-0.558396 10.3468 0)
(-0.614001 10.466 0)
(-0.657647 10.6032 0)
(-0.685349 10.7563 0)
(-0.693614 10.9219 0)
(-0.677004 11.0972 0)
(-0.640044 11.2736 0)
(-0.594504 11.4449 0)
(-0.542792 11.6105 0)
(-0.48705 11.7692 0)
(-0.429105 11.9183 0)
(-0.372951 12.072 0)
(-0.317857 12.2233 0)
(-0.261658 12.3407 0)
(-0.205128 12.412 0)
(-0.14965 12.4301 0)
(-0.094919 12.3604 0)
(-0.0468951 11.9715 0)
(-0.0087761 10.4596 0)
(-0.00353631 10.0052 0)
(-0.00064249 10.004 0)
(0.0007579 10.0025 8.33733e-19)
(0.00108185 10.001 -5.91455e-19)
(0.000470076 10.0002 -3.72278e-19)
(-0.00817954 10.0058 0)
(-0.0150253 10.0058 0)
(-0.0246253 10.005 0)
(-0.0376676 10.0037 0)
(-0.054959 10.0019 0)
(-0.077407 10.0003 0)
(-0.105979 9.99964 0)
(-0.141632 10.0011 0)
(-0.185204 10.0063 0)
(-0.237244 10.0178 0)
(-0.297763 10.0385 0)
(-0.365912 10.0722 0)
(-0.439588 10.1231 0)
(-0.515085 10.1955 0)
(-0.588171 10.29 0)
(-0.655183 10.405 0)
(-0.711709 10.5402 0)
(-0.753391 10.6934 0)
(-0.776289 10.8618 0)
(-0.777172 11.0413 0)
(-0.750715 11.2289 0)
(-0.702806 11.4152 0)
(-0.646914 11.594 0)
(-0.585784 11.7651 0)
(-0.521725 11.9274 0)
(-0.459787 12.0973 0)
(-0.399117 12.2714 0)
(-0.337362 12.4222 0)
(-0.27578 12.5382 0)
(-0.214844 12.6084 0)
(-0.156066 12.6243 0)
(-0.0989841 12.5467 0)
(-0.0488812 12.1308 0)
(-0.0100273 10.5659 0)
(-0.00817371 10.0054 0)
(-0.00353626 10.0048 -1.78172e-18)
(-0.000693147 10.0037 -8.79451e-19)
(0.000664412 10.0023 4.15953e-19)
(0.000992229 10.0009 -3.93117e-19)
(0.000425218 10.0001 0)
(-0.0149209 10.0051 0)
(-0.0243996 10.0039 0)
(-0.0372741 10.002 0)
(-0.0543473 9.9994 0)
(-0.0765374 9.99655 0)
(-0.104843 9.99407 0)
(-0.140293 9.993 0)
(-0.18385 9.99482 0)
(-0.236288 10.0016 0)
(-0.297972 10.0162 0)
(-0.368585 10.042 0)
(-0.446776 10.0831 0)
(-0.529709 10.1444 0)
(-0.61278 10.2298 0)
(-0.691051 10.3395 0)
(-0.760518 10.4709 0)
(-0.816495 10.6227 0)
(-0.854578 10.7923 0)
(-0.871019 10.9759 0)
(-0.86299 11.1688 0)
(-0.825392 11.3677 0)
(-0.765604 11.5627 0)
(-0.698786 11.7479 0)
(-0.627915 11.9229 0)
(-0.559274 12.1061 0)
(-0.492163 12.2963 0)
(-0.42361 12.4693 0)
(-0.355395 12.6176 0)
(-0.28864 12.7306 0)
(-0.223614 12.7982 0)
(-0.161777 12.8106 0)
(-0.102597 12.7243 0)
(-0.0505848 12.2827 0)
(-0.0111003 10.6692 0)
(-0.0148365 10.0044 0)
(-0.00807105 10.0048 3.75755e-18)
(-0.00347656 10.0044 0)
(-0.000739569 10.0034 8.77193e-19)
(0.000577396 10.0021 1.37641e-22)
(0.000906427 10.0009 0)
(0.000382852 10.0001 0)
(-0.0241673 10.003 0)
(-0.036873 10.0005 0)
(-0.0537214 9.99716 0)
(-0.075629 9.9932 0)
(-0.103614 9.98914 0)
(-0.138749 9.98584 0)
(-0.182092 9.98458 0)
(-0.23458 9.98719 0)
(-0.296858 9.99615 0)
(-0.369035 10.0147 0)
(-0.450388 10.0467 0)
(-0.538933 10.0967 0)
(-0.63101 10.1698 0)
(-0.721047 10.2699 0)
(-0.803426 10.396 0)
(-0.873908 10.5448 0)
(-0.927664 10.7139 0)
(-0.960389 10.8999 0)
(-0.968679 11.0982 0)
(-0.950248 11.3038 0)
(-0.900327 11.5129 0)
(-0.827872 11.7155 0)
(-0.749661 11.9052 0)
(-0.673539 12.1016 0)
(-0.598912 12.3051 0)
(-0.522433 12.4941 0)
(-0.446225 12.664 0)
(-0.371812 12.8079 0)
(-0.300195 12.9168 0)
(-0.231418 12.9806 0)
(-0.166791 12.9884 0)
(-0.10576 12.8931 0)
(-0.0520311 12.4269 0)
(-0.0120087 10.7686 0)
(-0.0239746 10.0021 0)
(-0.014584 10.0037 4.92173e-22)
(-0.0078303 10.0042 0)
(-0.00341645 10.0039 -9.24929e-19)
(-0.000776194 10.0031 8.51291e-23)
(0.000496728 10.002 0)
(0.000824565 10.0008 0)
(0.000342986 10.0001 0)
(-0.036471 9.99918 0)
(-0.0530944 9.99517 0)
(-0.074711 9.99023 0)
(-0.102342 9.98478 0)
(-0.13709 9.9795 0)
(-0.180076 9.97549 0)
(-0.232361 9.97434 0)
(-0.294799 9.97825 0)
(-0.36784 9.99013 0)
(-0.451271 10.0136 0)
(-0.543834 10.0531 0)
(-0.642824 10.1136 0)
(-0.743661 10.2 0)
(-0.839755 10.3162 0)
(-0.924868 10.4602 0)
(-0.994686 10.6271 0)
(-1.04438 10.8138 0)
(-1.06991 11.016 0)
(-1.06837 11.2285 0)
(-1.03813 11.4456 0)
(-0.97483 11.6637 0)
(-0.889033 11.872 0)
(-0.804797 12.0837 0)
(-0.721736 12.3009 0)
(-0.635981 12.5033 0)
(-0.550373 12.6888 0)
(-0.466821 12.8538 0)
(-0.386569 12.9923 0)
(-0.310453 13.0959 0)
(-0.238278 13.1551 0)
(-0.171137 13.1575 0)
(-0.108492 13.0528 0)
(-0.0532457 12.5634 0)
(-0.0127693 10.8638 0)
(-0.0361353 9.99802 0)
(-0.0235141 10.0011 -2.08771e-18)
(-0.0140743 10.0029 0)
(-0.00759684 10.0036 0)
(-0.00334167 10.0035 2.76649e-18)
(-0.000803204 10.0028 0)
(0.00042245 10.0018 0)
(0.000746752 10.0007 7.77385e-19)
(0.000305649 10.0001 0)
(-0.0524734 9.99341 0)
(-0.0737998 9.98761 0)
(-0.101065 9.98092 0)
(-0.135381 9.97388 0)
(-0.177915 9.96742 0)
(-0.229815 9.96291 0)
(-0.292093 9.96229 0)
(-0.365461 9.96815 0)
(-0.45012 9.98387 0)
(-0.545413 10.0136 0)
(-0.649458 10.062 0)
(-0.758727 10.1344 0)
(-0.867643 10.2358 0)
(-0.968569 10.3696 0)
(-1.05477 10.5325 0)
(-1.12203 10.7181 0)
(-1.16569 10.9224 0)
(-1.18216 11.1404 0)
(-1.16915 11.3661 0)
(-1.12582 11.5937 0)
(-1.04821 11.8188 0)
(-0.955419 12.0501 0)
(-0.863102 12.2834 0)
(-0.766837 12.4998 0)
(-0.670213 12.6987 0)
(-0.575835 12.879 0)
(-0.485351 13.0378 0)
(-0.399688 13.1699 0)
(-0.319456 13.2675 0)
(-0.244244 13.3212 0)
(-0.174862 13.3177 0)
(-0.110823 13.2037 0)
(-0.0542553 12.6923 0)
(-0.0134005 10.9544 0)
(-0.0519545 9.99185 0)
(-0.0353945 9.99673 0)
(-0.0226234 10 -2.17265e-18)
(-0.0135853 10.0021 -2.05594e-18)
(-0.00734198 10.003 -3.88852e-18)
(-0.00325214 10.0031 0)
(-0.0008206 10.0025 -1.7364e-18)
(0.000354713 10.0017 -1.63965e-18)
(0.000673004 10.0007 7.73693e-19)
(0.000270793 10.0001 0)
(-0.0729027 9.98529 0)
(-0.0998035 9.97749 0)
(-0.133673 9.9689 0)
(-0.175695 9.96027 0)
(-0.227085 9.95277 0)
(-0.28897 9.94808 0)
(-0.362266 9.94853 0)
(-0.447496 9.95716 0)
(-0.544496 9.97781 0)
(-0.65208 10.015 0)
(-0.76764 10.074 0)
(-0.886736 10.1599 0)
(-1.00273 10.2779 0)
(-1.10696 10.4307 0)
(-1.19234 10.6133 0)
(-1.25497 10.818 0)
(-1.29057 11.0397 0)
(-1.29611 11.2726 0)
(-1.27011 11.5105 0)
(-1.2125 11.7467 0)
(-1.12812 11.996 0)
(-1.02579 12.25 0)
(-0.917725 12.483 0)
(-0.808516 12.6961 0)
(-0.701442 12.8897 0)
(-0.598774 13.0635 0)
(-0.501842 13.2152 0)
(-0.411228 13.3401 0)
(-0.327278 13.4311 0)
(-0.249375 13.4788 0)
(-0.178017 13.469 0)
(-0.11279 13.3458 0)
(-0.0550853 12.8135 0)
(-0.0139192 11.0402 0)
(-0.0721545 9.98323 0)
(-0.0508454 9.99016 -2.32145e-18)
(-0.0339808 9.99531 2.28849e-18)
(-0.0217755 9.99897 -1.17685e-21)
(-0.0130658 10.0013 2.04897e-18)
(-0.00706562 10.0025 1.93748e-18)
(-0.00314837 10.0027 3.66114e-18)
(-0.000828249 10.0023 2.59311e-18)
(0.000293484 10.0015 -8.15912e-19)
(0.000603364 10.0006 0)
(0.000238404 10.0001 0)
(-0.098565 9.97446 0)
(-0.131988 9.96449 0)
(-0.173477 9.95393 0)
(-0.224277 9.94376 0)
(-0.285608 9.93544 0)
(-0.358538 9.93103 0)
(-0.443844 9.93326 0)
(-0.541755 9.94566 0)
(-0.651661 9.9725 0)
(-0.771749 10.0188 0)
(-0.89859 10.0898 0)
(-1.02674 10.191 0)
(-1.1485 10.3271 0)
(-1.25421 10.5 0)
(-1.33664 10.703 0)
(-1.39246 10.9268 0)
(-1.41791 11.1653 0)
(-1.41074 11.4123 0)
(-1.3703 11.6606 0)
(-1.30727 11.9223 0)
(-1.21314 12.1958 0)
(-1.09192 12.4505 0)
(-0.968298 12.6807 0)
(-0.846572 12.8884 0)
(-0.729609 13.0753 0)
(-0.619221 13.2416 0)
(-0.516369 13.3853 0)
(-0.421279 13.5026 0)
(-0.334005 13.5864 0)
(-0.253744 13.6278 0)
(-0.18066 13.6116 0)
(-0.114431 13.4792 0)
(-0.0557597 12.9273 0)
(-0.0143419 11.1212 0)
(-0.0975366 9.97177 0)
(-0.0705708 9.98103 -3.46671e-21)
(-0.0487323 9.98833 0)
(-0.0326446 9.99394 -1.89013e-21)
(-0.020885 9.99795 0)
(-0.0125153 10.0005 -2.04162e-18)
(-0.00676857 10.0019 -3.85912e-18)
(-0.00303019 10.0023 8.92945e-23)
(-0.000826326 10.0021 1.72027e-18)
(0.000238492 10.0014 -8.11559e-19)
(0.000537819 10.0005 7.65309e-19)
(0.000208451 10.0001 0)
(-0.130336 9.96058 0)
(-0.17129 9.9483 0)
(-0.22147 9.93576 0)
(-0.282142 9.92421 0)
(-0.354498 9.91544 0)
(-0.439511 9.91192 0)
(-0.537724 9.91683 0)
(-0.648996 9.93416 0)
(-0.772182 9.96862 0)
(-0.904738 10.0255 0)
(-1.04232 10.1104 0)
(-1.17844 10.2286 0)
(-1.30432 10.3841 0)
(-1.40943 10.5781 0)
(-1.48661 10.8019 0)
(-1.53336 11.0443 0)
(-1.54663 11.299 0)
(-1.52501 11.5584 0)
(-1.48029 11.8338 0)
(-1.4085 12.1215 0)
(-1.29332 12.3973 0)
(-1.15334 12.6498 0)
(-1.01461 12.8747 0)
(-0.88095 13.0756 0)
(-0.754749 13.2547 0)
(-0.63727 13.4125 0)
(-0.529045 13.5478 0)
(-0.429952 13.6569 0)
(-0.339736 13.7334 0)
(-0.257426 13.7683 0)
(-0.182848 13.7455 0)
(-0.115782 13.6044 0)
(-0.0563 13.034 0)
(-0.0146828 11.1974 0)
(-0.128971 9.95711 0)
(-0.0953508 9.96895 2.57464e-18)
(-0.0675413 9.97871 -2.54419e-18)
(-0.0467473 9.98658 2.40472e-18)
(-0.0312501 9.99262 0)
(-0.0199508 9.99697 0)
(-0.0119358 9.99982 2.03326e-18)
(-0.00645139 10.0014 -1.92059e-18)
(-0.0028977 10.002 1.19359e-22)
(-0.000814447 10.0018 8.55644e-19)
(0.000189807 10.0013 -8.06996e-19)
(0.000476291 10.0005 -7.59934e-19)
(0.000181062 10.0001 0)
(-0.169146 9.94331 0)
(-0.2187 9.92866 0)
(-0.278669 9.91423 0)
(-0.350314 9.90158 0)
(-0.434768 9.89289 0)
(-0.532826 9.89105 0)
(-0.644724 9.89971 0)
(-0.76987 9.92331 0)
(-0.906479 9.96697 0)
(-1.05118 10.0363 0)
(-1.19864 10.1368 0)
(-1.34132 10.2734 0)
(-1.4694 10.4496 0)
(-1.57159 10.6654 0)
(-1.6411 10.9099 0)
(-1.6765 11.1706 0)
(-1.67557 11.4399 0)
(-1.65109 11.7281 0)
(-1.59836 12.0315 0)
(-1.50439 12.3235 0)
(-1.36806 12.5984 0)
(-1.20975 12.8461 0)
(-1.05657 13.064 0)
(-0.911706 13.2567 0)
(-0.776969 13.427 0)
(-0.653052 13.5758 0)
(-0.540008 13.7024 0)
(-0.43737 13.8032 0)
(-0.344574 13.8722 0)
(-0.260497 13.9004 0)
(-0.184636 13.8712 0)
(-0.116881 13.7216 0)
(-0.0567273 13.1338 0)
(-0.0149549 11.2689 0)
(-0.167388 9.93888 0)
(-0.126034 9.95351 0)
(-0.0911414 9.96602 2.67602e-18)
(-0.0647104 9.97648 -5.07534e-18)
(-0.0446836 9.9849 4.80026e-18)
(-0.0297955 9.99136 -4.53798e-18)
(-0.0189766 9.99604 0)
(-0.011328 9.99914 2.02477e-18)
(-0.00611433 10.0009 -1.91101e-18)
(-0.00275224 10.0016 -1.80382e-18)
(-0.000791928 10.0016 0)
(0.000147162 10.0011 8.01305e-19)
(0.00041891 10.0004 0)
(0.000156742 10 0)
(-0.215983 9.92236 0)
(-0.275235 9.90536 0)
(-0.346107 9.88925 0)
(-0.429825 9.87594 0)
(-0.52739 9.86802 0)
(-0.639351 9.86883 0)
(-0.765566 9.8825 0)
(-0.904888 9.91389 0)
(-1.05479 9.96847 0)
(-1.211 10.0519 0)
(-1.36716 10.1697 0)
(-1.51468 10.3263 0)
(-1.64277 10.5243 0)
(-1.73957 10.7621 0)
(-1.79891 11.0272 0)
(-1.82066 11.3049 0)
(-1.81862 11.605 0)
(-1.78718 11.9234 0)
(-1.71083 12.2334 0)
(-1.59422 12.5262 0)
(-1.43695 12.7973 0)
(-1.26102 13.0381 0)
(-1.09422 13.2476 0)
(-0.938975 13.431 0)
(-0.79643 13.5918 0)
(-0.666727 13.7313 0)
(-0.549406 13.8489 0)
(-0.443655 13.9414 0)
(-0.348619 14.0029 0)
(-0.263032 14.0245 0)
(-0.186079 13.9889 0)
(-0.11776 13.8312 0)
(-0.057059 13.227 0)
(-0.0151682 11.3359 0)
(-0.213772 9.91677 0)
(-0.163529 9.93434 0)
(-0.120332 9.94984 0)
(-0.08723 9.96322 5.33773e-18)
(-0.0617769 9.97437 -5.05129e-18)
(-0.0425402 9.98331 4.77671e-18)
(-0.0282877 9.99018 0)
(-0.017964 9.99516 -2.13255e-18)
(-0.0106926 9.99849 0)
(-0.00575822 10.0005 1.90068e-18)
(-0.00259265 10.0013 0)
(-0.000760398 10.0014 0)
(0.000111749 10.001 0)
(0.000366947 10.0004 7.74661e-19)
(0.000135522 10 3.73137e-19)
(-0.271863 9.89749 0)
(-0.341933 9.87829 0)
(-0.424831 9.86085 0)
(-0.521674 9.84748 0)
(-0.633275 9.84121 0)
(-0.759872 9.84584 0)
(-0.900846 9.86597 0)
(-1.0544 9.90684 0)
(-1.21718 9.97414 0)
(-1.38394 10.0736 0)
(-1.54731 10.2103 0)
(-1.69765 10.3882 0)
(-1.82335 10.6085 0)
(-1.91216 10.8686 0)
(-1.95879 11.1533 0)
(-1.98159 11.4638 0)
(-1.97402 11.7965 0)
(-1.91764 12.1245 0)
(-1.8168 12.4374 0)
(-1.67747 12.7279 0)
(-1.4998 12.9927 0)
(-1.30715 13.2249 0)
(-1.1277 13.4246 0)
(-0.962942 13.5979 0)
(-0.813338 13.7488 0)
(-0.678476 13.8788 0)
(-0.557393 13.9873 0)
(-0.448933 14.0715 0)
(-0.351967 14.1257 0)
(-0.265098 14.1408 0)
(-0.187224 14.0989 0)
(-0.118451 13.9335 0)
(-0.0573107 13.314 0)
(-0.0153311 11.3985 0)
(-0.269144 9.8905 0)
(-0.208797 9.91108 0)
(-0.15597 9.92977 5.9534e-18)
(-0.115062 9.94636 5.63697e-18)
(-0.083185 9.96058 5.33231e-18)
(-0.0587402 9.97238 -5.04097e-18)
(-0.0403275 9.98182 0)
(-0.0267288 9.98906 0)
(-0.0169142 9.99433 0)
(-0.010031 9.99789 4.00734e-18)
(-0.00538513 10 1.88995e-18)
(-0.00241933 10.001 1.78043e-18)
(-0.000719869 10.0012 0)
(8.28396e-05 10.0009 -8.1676e-19)
(0.000320236 10.0004 -3.94114e-19)
(0.000116927 10 0)
(-0.337828 9.86854 0)
(-0.419851 9.84741 0)
(-0.51586 9.82916 0)
(-0.626809 9.81653 0)
(-0.753264 9.81299 0)
(-0.895061 9.82283 0)
(-1.05101 9.85104 0)
(-1.21857 9.90319 0)
(-1.39349 9.98508 0)
(-1.56955 10.1023 0)
(-1.73831 10.2595 0)
(-1.88923 10.4595 0)
(-2.01001 10.7029 0)
(-2.08814 10.9847 0)
(-2.13847 11.3041 0)
(-2.15768 11.6502 0)
(-2.12411 11.9958 0)
(-2.04145 12.3294 0)
(-1.91566 12.6418 0)
(-1.75389 12.9272 0)
(-1.55663 13.1835 0)
(-1.34829 13.4054 0)
(-1.1572 13.5945 0)
(-0.983837 13.7573 0)
(-0.827917 13.8979 0)
(-0.688487 14.0182 0)
(-0.564122 14.1178 0)
(-0.453322 14.1939 0)
(-0.354707 14.2408 0)
(-0.266761 14.2496 0)
(-0.188117 14.2017 0)
(-0.118983 14.0289 0)
(-0.0574935 13.395 0)
(-0.0154548 11.4569 0)
(-0.334555 9.85989 0)
(-0.262834 9.88342 0)
(-0.19896 9.90543 -1.25248e-17)
(-0.149014 9.92545 1.78192e-20)