# Time currentProc (coordinatesa coordinatesb coordinatesc coordinatesd) celli tetFacei tetPti facei stepFraction behind nBehind origProc origId active typeId nParticle d dTarget  (Ux Uy Uz) rho age tTurb (UTurbx UTurby UTurbz) T Cp mass0 nPhases(Y1..YN)
0.0700115 1 (0 0.5 0.401848 0.0981524) 2811 15703 2 15703 0.256384 0 0 0 102914 1 -1 2.59573 7.08436e-05 0 (2.55356 2.69009 0) 662.176 0.0185585 0 (0 0 0) 320.58 2325.91 7.79663e-10 1(1) 0.000130978 (6.66431e-06 -0.295 0) 0.0175578 0.000310208 0 1 0 0 -4.5036e+15 7.66921e-08 1 0.00434009 0
0.0700115 1 (0 0.0447885 0.455212 0.5) 3191 15646 1 15646 0.906043 0 0 0 109903 1 -1 10.347 3.8136e-05 0 (2.98433 15.3568 0) 663.798 0.0150709 0 (0 0 0) 318.738 2318.39 1.353e-10 1(1) 7.30573e-05 (-4.6305e-05 -0.295 2.71051e-20) 0.0177422 0.000315231 0 1 0 0 -4.5036e+15 0 1 0.000917165 0
0.0700115 1 (0 0.285764 0.214236 0.5) 2332 15726 1 15726 0.790472 0 0 0 114547 1 -1 3.2893 6.88398e-05 0 (4.10634 1.13772 0) 661.186 0.0127454 0 (0 0 0) 321.702 2330.53 5.49791e-10 1(1) 0.000116582 (2.47288e-05 -0.295 0) 0.0174456 0.000307226 0 1 0 0 -4.5036e+15 7.56721e-09 1 0.0039473 0
0.0700115 1 (0 0.0170228 0.482977 0.5) 2725 15699 1 15699 0.631445 0 0 0 115102 1 -1 3.66277 6.52708e-05 0 (5.66311 3.53046 0) 660.981 0.0124656 0 (0 0 0) 321.933 2331.48 3.40732e-10 1(1) 9.93959e-05 (3.78045e-05 -0.295 0) 0.0174225 0.000306618 0 1 0 0 -4.5036e+15 0 1 0.0030557 0
0.0700115 1 (0 0.5 0.456791 0.0432088) 2891 15630 2 15630 0.0747478 0 0 0 114957 1 -1 3.10071 6.86381e-05 0 (7.17377 6.6792 0) 660.245 0.0125328 0 (0 0 0) 322.765 2334.93 5.52244e-10 1(1) 0.000116755 (5.72936e-05 -0.295 0) 0.0173395 0.000304452 0 1 0 0 -4.5036e+15 1.80481e-08 1 0.00281366 0
0.0700115 1 (0 0.5 0.498508 0.00149221) 2871 15706 2 15706 0.37327 0 0 0 116239 1 -1 2.71304 7.34326e-05 0 (8.08075 6.61059 0) 659.791 0.0118962 0 (0 0 0) 323.277 2337.05 5.0371e-10 1(1) 0.000113229 (4.90898e-05 -0.295 0) 0.0172884 0.000303134 0 1 0 0 -4.5036e+15 9.83293e-09 1 0.00303706 0
0.0700115 1 (0 0.5 0.338412 0.161588) 2891 15630 2 15630 0.472702 0 0 0 115349 1 -1 2.32345 7.68399e-05 0 (8.65532 7.24492 0) 659.444 0.0123408 0 (0 0 0) 323.669 2338.68 9.40259e-10 1(1) 0.000139416 (6.31312e-05 -0.295 5.42101e-20) 0.0172494 0.000302133 0 1 0 0 -4.5036e+15 1.67419e-08 1 0.003142 0
0.0700115 1 (0 0.5 0.136871 0.363129) 2851 15705 2 15705 0.294833 0 0 0 116966 1 -1 2.68947 7.5418e-05 0 (8.30621 6.18665 0) 659.603 0.0115303 0 (0 0 0) 323.49 2337.94 6.00164e-10 1(1) 0.000120039 (4.11322e-05 -0.295 0) 0.0172672 0.00030259 0 1 0 0 -4.5036e+15 0 1 0.00317551 0
0.0700115 1 (0 0.5 0.327655 0.172345) 2701 15698 2 15698 0.774726 0 0 0 118499 1 -1 1.88133 8.75023e-05 0 (9.16454 4.84345 0) 658.251 0.0107694 0 (0 0 0) 325.012 2344.29 9.66831e-10 1(1) 0.000140717 (3.36452e-05 -0.295 0) 0.0171156 0.000298752 0 1 0 0 -4.5036e+15 7.19331e-09 1 0.00399186 0
0.0700115 1 (0 0.5 0.135059 0.364941) 2851 15705 2 15705 0.848548 0 0 0 117992 1 -1 2.13615 8.2453e-05 0 (10.244 6.80081 0) 658.772 0.011024 0 (0 0 0) 324.425 2341.84 9.20679e-10 1(1) 0.000138442 (4.78514e-05 -0.295 0) 0.017174 0.000300219 0 1 0 0 -4.5036e+15 1.52968e-08 1 0.00335937 0
0.0700115 1 (0 0.5 0.131402 0.368598) 2891 15630 2 15630 0.307089 0 0 0 117617 1 -1 2.0766 8.26709e-05 0 (10.8643 7.72724 0) 658.796 0.0112069 0 (0 0 0) 324.399 2341.73 1.06456e-09 1(1) 0.000145307 (5.72703e-05 -0.295 5.42101e-20) 0.0171766 0.000300285 0 1 0 0 -4.5036e+15 1.31242e-08 1 0.00324472 0
0.0700115 1 (0 0.278896 0.221104 0.5) 3371 15656 1 15656 0.872493 0 0 0 107583 1 -1 2.98817 7.19396e-05 0 (5.58104 23.5975 0) 662.427 0.0162288 0 (0 0 0) 320.295 2324.75 8.04149e-10 1(1) 0.000132336 (5.96125e-06 -0.295 5.42101e-20) 0.0175863 0.000310974 0 1 0 0 -4.5036e+15 1.48013e-07 1 0.00195103 0
0.0700115 1 (0 0.5 0.040855 0.459145) 3353 15655 2 15655 0.52348 0 0 0 108395 1 -1 3.00307 7.30398e-05 0 (6.26995 22.912 0) 662.335 0.015819 0 (0 0 0) 320.4 2325.18 6.67204e-10 1(1) 0.000124351 (1.00054e-05 -0.295 5.42101e-20) 0.0175758 0.000310691 0 1 0 0 -4.5036e+15 1.16611e-07 1 0.00201577 0
0.0700115 1 (0 0.5 0.455957 0.0440433) 3245 15649 2 15649 0.870632 0 0 0 109838 1 -1 9.22609 4.18595e-05 0 (4.07113 18.3878 0) 663.341 0.0151028 0 (0 0 0) 319.257 2320.5 1.79972e-10 1(1) 8.03463e-05 (-2.02672e-06 -0.295 5.42101e-20) 0.0176902 0.000313799 0 1 0 0 -4.5036e+15 0 1 0.000975962 0
0.0700115 1 (0 0.5 0.271281 0.228719) 3227 15648 2 15648 0.128162 0 0 0 109773 1 -1 8.45028 4.25437e-05 0 (4.34137 17.4433 0) 663.196 0.0151252 0 (0 0 0) 319.423 2321.17 1.91621e-10 1(1) 8.20436e-05 (-2.83828e-06 -0.295 8.13152e-20) 0.0176736 0.000313346 0 1 0 0 -4.5036e+15 0 1 0.00102186 0
0.0700115 1 (0 0.5 0.0505073 0.449493) 3317 15653 2 15653 0.718677 0 0 0 110519 1 -1 5.90672 5.43755e-05 0 (5.73604 22.3161 0) 662.757 0.0147606 0 (0 0 0) 319.921 2323.21 3.55374e-10 1(1) 0.0001008 (-1.77391e-06 -0.295 2.71051e-20) 0.0176238 0.000311988 0 1 0 0 -4.5036e+15 1.07361e-09 1 0.00131954 0
0.0700115 1 (0 0.0473336 0.452666 0.5) 3245 15649 1 15649 0.246093 0 0 0 111764 1 -1 7.21554 4.74038e-05 0 (5.37429 19.8559 0) 662.854 0.0141323 0 (0 0 0) 319.811 2322.76 1.90343e-10 1(1) 8.18609e-05 (-1.26955e-05 -0.295 1.6263e-19) 0.0176347 0.000312285 0 1 0 0 -4.5036e+15 0 1 0.00113265 0
0.0700115 1 (0 0.5 0.218945 0.281055) 3281 15651 2 15651 0.0897281 0 0 0 111686 1 -1 6.45361 5.03904e-05 0 (5.85024 21.1429 0) 662.715 0.014168 0 (0 0 0) 319.969 2323.41 2.18874e-10 1(1) 8.57621e-05 (-1.20523e-05 -0.295 5.42101e-20) 0.0176189 0.000311856 0 1 0 0 -4.5036e+15 0 1 0.00120488 0
0.0700115 1 (0 0.2255 0.2745 0.5) 3263 15650 1 15650 0.622778 0 0 0 111872 1 -1 6.04647 5.27735e-05 0 (6.52747 21.4133 0) 662.473 0.0140825 0 (0 0 0) 320.244 2324.53 2.43439e-10 1(1) 8.88575e-05 (-1.49972e-05 -0.295 5.42101e-20) 0.0175914 0.000311114 0 1 0 0 -4.5036e+15 0 1 0.00127868 0
0.0700115 1 (0 0.427941 0.0720585 0.5) 3227 15648 1 15648 0.152737 0 0 0 107377 1 -1 4.82014 5.04847e-05 0 (6.40588 19.3548 0) 662.385 0.0163256 0 (0 0 0) 320.343 2324.94 5.10793e-10 1(1) 0.000113757 (-7.87159e-05 -0.295 2.71051e-20) 0.0175815 0.000310845 0 1 0 0 -4.5036e+15 4.97392e-08 1 0.00125104 0
0.0700115 3 (0 0.0885836 0.5 0.411416) 1408 15578 2 15578 0.781405 0 0 0 109882 1 -1 6.12893 4.59652e-05 0 (-3.46656 13.1979 0) 663.09 0.0150814 0 (0 0 0) 319.543 2321.67 2.71721e-10 1(1) 9.21733e-05 (-7.56307e-05 -0.295 1.35525e-19) 0.0176616 0.000313017 0 1 0 0 -4.5036e+15 0 1 0.00130251 0
0.0700115 3 (0 0.5 0.33494 0.16506) 1023 15567 1 15567 0.230606 0 0 0 109145 1 -1 9.03627 4.02569e-05 0 (-2.35372 4.07928 0) 663.457 0.0154408 0 (0 0 0) 319.126 2319.97 1.56254e-10 1(1) 7.66492e-05 (-3.68531e-05 -0.295 2.71051e-20) 0.0177034 0.00031416 0 1 0 0 -4.5036e+15 0 1 0.00155623 0
0.0700115 3 (0 0.5 0.0972322 0.402768) 1128 15570 1 15570 0.345324 0 0 0 109871 1 -1 8.00454 4.32765e-05 0 (-3.1024 6.78282 0) 663.056 0.0150789 0 (0 0 0) 319.581 2321.82 1.96902e-10 1(1) 8.27906e-05 (-3.64593e-05 -0.295 2.71051e-20) 0.0176577 0.000312912 0 1 0 0 -4.5036e+15 0 1 0.00150326 0
0.0700115 3 (0 0.207342 0.5 0.292658) 385 15558 2 15558 0.127946 0 0 0 117201 1 -1 2.89748 7.37523e-05 0 (-7.49891 4.01436 0) 659.592 0.0114111 0 (0 0 0) 323.502 2337.99 4.43719e-10 1(1) 0.000108543 (-2.61967e-05 -0.295 1.35525e-19) 0.017266 0.000302558 0 1 0 0 -4.5036e+15 0 1 0.00333887 0
0.0700231 1 (0 0.5 0.25352 0.24648) 2931 15632 2 15632 0.978005 0 0 0 110447 1 -1 3.24052 6.81976e-05 0 (4.976 6.52781 0) 660.899 0.0148122 0 (0 0 0) 322.026 2331.87 6.38882e-10 1(1) 0.000122566 (6.41924e-06 -0.295 5.42101e-20) 0.0174133 0.000306376 0 1 0 0 -4.5036e+15 1.19405e-09 1 0.00300742 0
0.0700231 1 (0 0.5 0.311638 0.188362) 2650 15696 2 15696 0.512931 0 0 0 115189 1 -1 3.8507 6.54582e-05 0 (5.12112 2.63988 0) 661.083 0.0124326 0 (0 0 0) 321.818 2331.01 3.73551e-10 1(1) 0.00010249 (2.90263e-05 -0.295 5.42101e-20) 0.0174341 0.000306921 0 1 0 0 -4.5036e+15 0 1 0.00325115 0
0.0700231 1 (0 0.5 0.0297545 0.470245) 2017 15717 2 15717 0.0234003 0 0 0 117138 1 -1 1.50018 9.55061e-05 0 (5.26003 0.937551 0) 658.559 0.0114546 0 (0 0 0) 324.665 2342.84 1.03733e-09 1(1) 0.000144058 (1.8237e-05 -0.295 0) 0.0171501 0.000299617 0 1 0 0 -4.5036e+15 6.7498e-10 1 0.00615205 0
0.0700231 1 (0 0.419686 0.0803138 0.5) 2592 15694 1 15694 0.276302 0 0 0 118924 1 -1 1.69401 9.24942e-05 0 (9.36779 4.35995 0) 657.691 0.0105635 0 (0 0 0) 325.64 2346.93 1.16502e-09 1(1) 0.000149741 (3.181e-05 -0.295 0) 0.0170531 0.000297195 0 1 0 0 -4.5036e+15 4.58651e-09 1 0.00434947 0
0.0700231 1 (0 0.5 0.426209 0.0737908) 3173 15645 2 15645 0.370786 0 0 0 111689 1 -1 2.80638 7.56555e-05 0 (9.05244 17.4148 0) 660.566 0.0141818 0 (0 0 0) 322.402 2333.42 1.07852e-09 1(1) 0.00014594 (-5.66071e-08 -0.295 1.35525e-19) 0.0173757 0.000305393 0 1 0 0 -4.5036e+15 2.52148e-07 1 0.00233692 0
0.0700231 3 (0 0.5 0.417226 0.0827741) 1408 15578 1 15578 0.698801 0 0 0 112850 1 -1 8.16228 4.32188e-05 0 (-3.18075 12.2748 0) 663.497 0.0136056 0 (0 0 0) 319.08 2319.78 1.55319e-10 1(1) 7.64961e-05 (-5.37557e-05 -0.295 2.71051e-20) 0.0177079 0.000314285 0 1 0 0 -4.5036e+15 0 1 0.00122123 0
0.0700231 3 (0 0.5 0.145635 0.354365) 1373 15577 1 15577 0.764328 0 0 0 113568 1 -1 8.58766 4.35458e-05 0 (-3.29575 11.855 0) 663.527 0.0132468 0 (0 0 0) 319.046 2319.64 1.57246e-10 1(1) 7.6811e-05 (-3.98262e-05 -0.295 8.13152e-20) 0.0177114 0.00031438 0 1 0 0 -4.5036e+15 0 1 0.00125166 0
0.0700231 3 (0 0.278289 0.5 0.221711) 1338 15576 2 15576 0.925777 0 0 0 113740 1 -1 7.90595 4.54488e-05 0 (-3.6319 11.7665 0) 663.354 0.0131628 0 (0 0 0) 319.243 2320.44 1.84122e-10 1(1) 8.09591e-05 (-2.22629e-05 -0.295 8.13152e-20) 0.0176916 0.000313837 0 1 0 0 -4.5036e+15 0 1 0.00133616 0
0.0700231 3 (0 0.5 0.0848726 0.415127) 1303 15575 1 15575 0.177273 0 0 0 113029 1 -1 5.20738 5.1214e-05 0 (-5.55579 12.1256 0) 662.542 0.0135106 0 (0 0 0) 320.165 2324.21 3.30714e-10 1(1) 9.8412e-05 (-8.19749e-05 -0.295 2.71051e-20) 0.0175993 0.000311325 0 1 0 0 -4.5036e+15 2.6176e-08 1 0.00155072 0
0.0700231 3 (0 0.46193 0.5 0.0380701) 1128 15570 2 15570 0.236107 0 0 0 115510 1 -1 5.68267 5.47985e-05 0 (-5.7143 8.74965 0) 661.71 0.0122706 0 (0 0 0) 321.108 2328.08 2.18768e-10 1(1) 8.57483e-05 (-2.07423e-05 -0.295 1.0842e-19) 0.017505 0.000308798 0 1 0 0 -4.5036e+15 0 1 0.00191938 0
0.0700231 3 (0 0.113227 0.5 0.386773) 525 15562 2 15562 0.35912 0 0 0 116957 1 -1 3.56216 6.83464e-05 0 (-7.31949 5.07645 0) 660.201 0.0115483 0 (0 0 0) 322.815 2335.13 3.49879e-10 1(1) 0.000100277 (-2.56151e-05 -0.295 8.13152e-20) 0.0173345 0.000304323 0 1 0 0 -4.5036e+15 0 1 0.00290551 0
0.0700346 0 (0 0.260508 0.5 0.239492) 2780 15720 2 15720 0.682562 0 0 0 116029 1 -1 1.54322 9.35159e-05 0 (-5.23007 0.894674 0) 658.289 0.0120261 0 (0 0 0) 324.968 2344.11 1.07096e-09 1(1) 0.000145598 (-6.58618e-06 -0.295 2.71051e-20) 0.0171199 0.00029886 0 1 0 0 -4.5036e+15 1.22665e-09 1 0.00592844 0
0.0700346 1 (0 0.5 0.440157 0.0598433) 3047 15638 2 15638 0.680033 0 0 0 66548 1 -1 1.83784 5.81807e-05 0 (2.33044 7.59404 0) 663.311 0.0367669 0 (0 0 0) 319.292 2320.64 7.45684e-10 1(1) 0.000129047 (5.60877e-06 -0.295 0) 0.0176868 0.000313705 0 1 0 0 -4.5036e+15 2.11096e-08 1 0.00237346 0
0.0700346 1 (0 0.5 0.383144 0.116856) 3047 15638 2 15638 0.481448 0 0 0 79294 1 -1 2.75654 5.26264e-05 0 (2.34625 7.77004 0) 663.435 0.0303921 0 (0 0 0) 319.151 2320.07 6.76041e-10 1(1) 0.000124898 (6.06945e-06 -0.295 5.42101e-20) 0.0177009 0.000314091 0 1 0 0 -4.5036e+15 2.88015e-08 1 0.00200585 0
0.0700346 1 (0 0.330068 0.169932 0.5) 3371 15656 1 15656 0.439572 0 0 0 106162 1 -1 8.54225 3.64411e-05 0 (0.843848 17.3166 0) 664 0.0169601 0 (0 0 0) 318.508 2317.45 1.39486e-10 1(1) 7.38031e-05 (7.56929e-05 -0.295 5.42101e-20) 0.0177653 0.00031587 0 1 0 0 -4.5036e+15 0 1 0.000817957 0
0.0700346 1 (0 0.5 0.291726 0.208274) 2991 15635 2 15635 0.681175 0 0 0 111543 1 -1 5.70698 5.40919e-05 0 (4.51196 7.96378 0) 661.879 0.0142696 0 (0 0 0) 320.917 2327.3 2.9335e-10 1(1) 9.45568e-05 (-4.03162e-06 -0.295 8.13152e-20) 0.0175241 0.000309307 0 1 0 0 -4.5036e+15 0 1 0.00199137 0
0.0700346 1 (0 0.5 0.305636 0.194364) 2122 15720 2 15720 0.112025 0 0 0 114944 1 -1 2.50836 7.74448e-05 0 (3.73025 0.368203 0) 660.802 0.0125631 0 (0 0 0) 322.136 2332.32 7.32056e-10 1(1) 0.000128256 (1.75034e-05 -0.295 5.42101e-20) 0.0174023 0.000306087 0 1 0 0 -4.5036e+15 5.67873e-10 1 0.00501826 0
0.0700346 1 (0 0.5 0.0232326 0.476767) 2725 15699 2 15699 0.364472 0 0 0 118437 1 -1 2.04716 8.65379e-05 0 (9.07947 4.94668 0) 658.357 0.0108203 0 (0 0 0) 324.893 2343.8 9.48112e-10 1(1) 0.000139803 (3.35449e-05 -0.295 0) 0.0171275 0.000299048 0 1 0 0 -4.5036e+15 2.65592e-08 1 0.00392826 0
0.0700346 1 (0 0.5 0.0848709 0.415129) 2871 15706 2 15706 0.584308 0 0 0 117837 1 -1 2.13845 8.2491e-05 0 (10.534 7.20788 0) 658.79 0.0111239 0 (0 0 0) 324.405 2341.76 9.95106e-10 1(1) 0.000142076 (5.28793e-05 -0.295 5.42101e-20) 0.017176 0.000300269 0 1 0 0 -4.5036e+15 1.0117e-08 1 0.00330234 0
0.0700346 1 (0 0.5 0.468944 0.0310565) 2891 15630 2 15630 0.613711 0 0 0 117480 1 -1 2.20868 8.14299e-05 0 (10.6795 7.89965 0) 658.912 0.0113016 0 (0 0 0) 324.268 2341.18 1.01926e-09 1(1) 0.000143217 (5.80364e-05 -0.295 5.42101e-20) 0.0171896 0.000300614 0 1 0 0 -4.5036e+15 9.0055e-09 1 0.00317691 0
0.0700346 1 (0 0.413758 0.0862423 0.5) 3263 15650 1 15650 0.307959 0 0 0 109325 1 -1 9.18348 4.12184e-05 0 (3.61324 19.032 0) 663.519 0.0153741 0 (0 0 0) 319.055 2319.68 1.58285e-10 1(1) 7.69799e-05 (4.44016e-06 -0.295 0) 0.0177104 0.000314355 0 1 0 0 -4.5036e+15 0 1 0.000940926 0
0.0700346 1 (0 0.5 0.2653 0.2347) 3281 15651 2 15651 0.193538 0 0 0 110062 1 -1 8.00526 4.49012e-05 0 (4.43271 20.0815 0) 663.197 0.0150048 0 (0 0 0) 319.421 2321.17 2.15543e-10 1(1) 8.53249e-05 (-5.93986e-06 -0.295 8.13152e-20) 0.0176738 0.000313349 0 1 0 0 -4.5036e+15 0 1 0.00104329 0
0.0700346 3 (0 0.5 0.438101 0.0618989) 1058 15568 1 15568 0.616109 0 0 0 81503 1 -1 2.9661 5.31374e-05 0 (-2.04859 4.24968 0) 663.234 0.0292894 0 (0 0 0) 319.38 2321 5.77448e-10 1(1) 0.000118505 (-7.16576e-06 -0.295 2.71051e-20) 0.0176779 0.000313463 0 1 0 0 -4.5036e+15 2.60641e-08 1 0.00247709 0
0.0700346 3 (0 0.0201907 0.5 0.479809) 1023 15567 2 15567 0.446101 0 0 0 109417 1 -1 8.99114 4.10888e-05 0 (-2.54764 4.76885 0) 663.357 0.0153298 0 (0 0 0) 319.239 2320.43 1.79117e-10 1(1) 8.02189e-05 (-3.3383e-05 -0.295 8.13152e-20) 0.017692 0.000313849 0 1 0 0 -4.5036e+15 0 1 0.00154207 0
0.0700346 3 (0 0.5 0.195201 0.304799) 1198 15572 1 15572 0.759084 0 0 0 110112 1 -1 5.5187 5.08819e-05 0 (-4.36419 8.93753 0) 662.729 0.0149863 0 (0 0 0) 319.953 2323.34 2.74046e-10 1(1) 9.24355e-05 (-5.02239e-05 -0.295 8.13152e-20) 0.0176205 0.0003119 0 1 0 0 -4.5036e+15 0 1 0.00174089 0
0.0700346 3 (0 0.5 0.182514 0.317486) 1163 15571 1 15571 0.126176 0 0 0 115523 1 -1 6.07592 5.32279e-05 0 (-5.61444 9.24365 0) 661.856 0.0122729 0 (0 0 0) 320.943 2327.4 2.50861e-10 1(1) 8.97515e-05 (-2.32793e-05 -0.295 1.0842e-19) 0.0175215 0.000309238 0 1 0 0 -4.5036e+15 -4.75241e-11 1 0.00180706 0
0.0700346 3 (0 0.5 0.281972 0.218028) 1128 15570 1 15570 0.580829 0 0 0 115594 1 -1 5.56775 5.54671e-05 0 (-5.73557 8.50169 0) 661.649 0.0122443 0 (0 0 0) 321.177 2328.37 2.18397e-10 1(1) 8.56997e-05 (-1.88026e-05 -0.295 2.71051e-20) 0.0174981 0.000308614 0 1 0 0 -4.5036e+15 0 1 0.00197217 0
0.0700346 3 (0 0.0484991 0.5 0.451501) 988 15566 2 15566 0.847942 0 0 0 116529 1 -1 4.74117 6.11281e-05 0 (-6.70461 6.90415 0) 660.988 0.0117783 0 (0 0 0) 321.925 2331.45 3.22998e-10 1(1) 9.76407e-05 (-2.23939e-05 -0.295 1.35525e-19) 0.0174233 0.000306639 0 1 0 0 -4.5036e+15 -6.19535e-11 1 0.00235991 0
0.0700346 3 (0 0.0770865 0.5 0.422913) 988 15566 2 15566 0.983288 0 0 0 115938 1 -1 3.95201 6.39993e-05 0 (-7.94351 7.41243 0) 660.699 0.0120749 0 (0 0 0) 322.252 2332.8 4.13178e-10 1(1) 0.000105993 (-5.28515e-05 -0.295 2.71051e-20) 0.0173907 0.000305784 0 1 0 0 -4.5036e+15 2.76591e-08 1 0.00240448 0
0.0700346 3 (0 0.428658 0.5 0.0713422) 490 15561 2 15561 0.368511 0 0 0 116537 1 -1 3.10855 7.17549e-05 0 (-6.69189 4.48035 0) 659.97 0.0117714 0 (0 0 0) 323.076 2336.22 4.21932e-10 1(1) 0.000106736 (-1.19014e-05 -0.295 5.42101e-20) 0.0173085 0.00030365 0 1 0 0 -4.5036e+15 0 1 0.003275 0
0.0700346 3 (0 0.166732 0.5 0.333268) 140 15551 2 15551 0.53656 0 0 0 117719 1 -1 2.46416 7.96047e-05 0 (-7.48906 2.8554 0) 659.003 0.0111825 0 (0 0 0) 324.165 2340.75 7.13047e-10 1(1) 0.000127137 (-2.09195e-05 -0.295 2.71051e-20) 0.0171999 0.000300875 0 1 0 0 -4.5036e+15 0 1 0.00386109 0
0.0700461 0 (0 0.5 0.365667 0.134333) 2990 15726 1 15726 0.22069 0 0 0 117795 1 -1 2.17651 8.37589e-05 0 (-7.20782 2.224 0) 658.61 0.0111508 0 (0 0 0) 324.608 2342.6 8.32324e-10 1(1) 0.000133863 (-1.719e-05 -0.295 8.13152e-20) 0.0171558 0.00029976 0 1 0 0 -4.5036e+15 6.17907e-10 1 0.00429161 0
0.0700461 1 (0 0.368287 0.131713 0.5) 3029 15637 1 15637 0.306664 0 0 0 83191 1 -1 2.9076 5.525e-05 0 (2.3343 7.40085 0) 663.062 0.0284541 0 (0 0 0) 319.575 2321.8 6.96669e-10 1(1) 0.000126156 (6.19035e-06 -0.295 0) 0.0176584 0.00031293 0 1 0 0 -4.5036e+15 4.1928e-08 1 0.00220253 0
0.0700461 1 (0 0.0574876 0.442512 0.5) 2871 15706 1 15706 0.603726 0 0 0 115651 1 -1 3.81284 6.40691e-05 0 (6.36823 5.98018 0) 660.761 0.0122254 0 (0 0 0) 322.182 2332.51 4.2561e-10 1(1) 0.000107045 (3.90084e-05 -0.295 0) 0.0173977 0.000305967 0 1 0 0 -4.5036e+15 -4.78107e-11 1 0.00265457 0
0.0700461 1 (0 0.0936721 0.406328 0.5) 2332 15726 1 15726 0.5428 0 0 0 118186 1 -1 1.62894 9.34871e-05 0 (7.44239 2.98075 0) 657.941 0.0109593 0 (0 0 0) 325.36 2345.75 1.13961e-09 1(1) 0.000148645 (2.28497e-05 -0.295 5.42101e-20) 0.017081 0.000297888 0 1 0 0 -4.5036e+15 3.38713e-09 1 0.00497723 0
0.0700461 1 (0 0.341052 0.158948 0.5) 2831 15704 1 15704 0.866137 0 0 0 117563 1 -1 2.48449 7.83905e-05 0 (8.82896 6.24618 0) 659.245 0.0112736 0 (0 0 0) 323.893 2339.62 7.7435e-10 1(1) 0.00013068 (4.04492e-05 -0.295 5.42101e-20) 0.0172271 0.000301564 0 1 0 0 -4.5036e+15 1.06562e-08 1 0.00330364 0
0.0700461 1 (0 0.5 0.468673 0.0313268) 3405 15658 2 15658 0.847133 0 0 0 104675 1 -1 4.04102 5.68892e-05 0 (3.71417 23.4718 0) 662.974 0.0177169 0 (0 0 0) 319.675 2322.2 4.90156e-10 1(1) 0.000112204 (7.04827e-05 -0.295 0) 0.0176484 0.000312657 0 1 0 0 -4.5036e+15 6.02721e-08 1 0.00139242 0
0.0700461 1 (0 0.5 0.22245 0.27755) 3335 15654 2 15654 0.555362 0 0 0 105902 1 -1 5.86959 4.81087e-05 0 (3.61888 21.2702 0) 663.322 0.0171017 0 (0 0 0) 319.279 2320.59 2.46983e-10 1(1) 8.92867e-05 (6.52076e-05 -0.295 5.42101e-20) 0.017688 0.000313739 0 1 0 0 -4.5036e+15 0 1 0.00113348 0
0.0700461 3 (0 0.278754 0.5 0.221246) 1863 15591 2 15591 0.492904 0 0 0 106087 1 -1 11.8363 3.55987e-05 0 (-0.680038 14.0534 0) 664.328 0.017009 0 (0 0 0) 318.134 2315.93 1.24552e-10 1(1) 7.10692e-05 (2.33224e-05 -0.295 0) 0.0178028 0.000316912 0 1 0 0 -4.5036e+15 0 1 0.000860453 0
0.0700461 3 (0 0.5 0.322728 0.177272) 1233 15573 1 15573 0.253222 0 0 0 110337 1 -1 6.07637 4.95651e-05 0 (-4.10336 9.32128 0) 663.048 0.0148798 0 (0 0 0) 319.59 2321.86 2.41735e-10 1(1) 8.86497e-05 (-4.57762e-05 -0.295 5.42101e-20) 0.0176569 0.000312887 0 1 0 0 -4.5036e+15 0 1 0.00165146 0
0.0700461 3 (0 0.0446396 0.5 0.45536) 988 15566 2 15566 0.548526 0 0 0 109302 1 -1 7.6484 4.37417e-05 0 (-2.91094 4.35081 0) 663.17 0.0153998 0 (0 0 0) 319.452 2321.29 2.13481e-10 1(1) 8.50519e-05 (-4.29791e-05 -0.295 1.35525e-19) 0.0176707 0.000313266 0 1 0 0 -4.5036e+15 0 1 0.00173002 0
0.0700461 3 (0 0.216672 0.5 0.283328) 1268 15574 2 15574 0.0622587 0 0 0 114046 1 -1 6.66928 5.01308e-05 0 (-4.55616 10.9883 0) 662.827 0.0130244 0 (0 0 0) 319.842 2322.89 2.53625e-10 1(1) 9.008e-05 (-9.31053e-06 -0.295 2.71051e-20) 0.0176317 0.000312203 0 1 0 0 -4.5036e+15 0 1 0.00157653 0
0.0700461 3 (0 0.5 0.253146 0.246854) 953 15565 1 15565 0.957681 0 0 0 109631 1 -1 8.18886 4.30225e-05 0 (-2.65964 3.12608 0) 663.26 0.0152403 0 (0 0 0) 319.35 2320.88 1.97965e-10 1(1) 8.29394e-05 (-2.19507e-05 -0.295 1.0842e-19) 0.0176809 0.000313545 0 1 0 0 -4.5036e+15 0 1 0.00181551 0
0.0700461 3 (0 0.5 0.187844 0.312156) 1163 15571 1 15571 0.50972 0 0 0 114775 1 -1 4.72325 5.80133e-05 0 (-7.25098 10.1012 0) 661.362 0.0126626 0 (0 0 0) 321.502 2329.71 4.20818e-10 1(1) 0.000106642 (-6.2336e-05 -0.295 8.13152e-20) 0.0174656 0.000307752 0 1 0 0 -4.5036e+15 3.3552e-08 1 0.00194419 0
0.0700461 3 (0 0.5 0.0580451 0.441955) 1128 15570 1 15570 0.982338 0 0 0 114596 1 -1 4.25561 5.96913e-05 0 (-7.5843 9.61258 0) 661.195 0.012758 0 (0 0 0) 321.692 2330.49 4.76369e-10 1(1) 0.000111142 (-6.85694e-05 -0.295 2.71051e-20) 0.0174467 0.000307253 0 1 0 0 -4.5036e+15 3.96101e-08 1 0.0020468 0
0.0700461 3 (0 0.276383 0.5 0.223617) 1093 15569 2 15569 0.104236 0 0 0 115591 1 -1 4.89531 5.79712e-05 0 (-6.87542 8.81973 0) 661.299 0.0122508 0 (0 0 0) 321.574 2330 2.86463e-10 1(1) 9.3811e-05 (-4.8511e-05 -0.295 5.42101e-20) 0.0174584 0.000307562 0 1 0 0 -4.5036e+15 -5.96998e-11 1 0.00203581 0
0.0700461 3 (0 0.108641 0.5 0.391359) 350 15557 2 15557 0.120628 0 0 0 117341 1 -1 2.79414 7.50729e-05 0 (-7.98754 3.97073 0) 659.424 0.0113759 0 (0 0 0) 323.691 2338.78 5.13113e-10 1(1) 0.000113929 (-3.23549e-05 -0.295 5.42101e-20) 0.0172471 0.000302075 0 1 0 0 -4.5036e+15 1.617e-08 1 0.00336213 0
0.0700461 3 (0 0.415868 0.5 0.0841322) 175 15552 2 15552 0.357418 0 0 0 117434 1 -1 2.44557 7.98456e-05 0 (-7.16796 2.88334 0) 659.031 0.0113326 0 (0 0 0) 324.134 2340.63 6.45429e-10 1(1) 0.000122984 (-1.6563e-05 -0.295 5.42101e-20) 0.017203 0.000300952 0 1 0 0 -4.5036e+15 0 1 0.00394165 0
0.0700576 0 (0 0.5 0.332081 0.167919) 2710 15718 1 15718 0.214611 0 0 0 118326 1 -1 1.6268 9.3612e-05 0 (-7.02131 1.0803 0) 657.723 0.0108981 0 (0 0 0) 325.605 2346.78 1.16648e-09 1(1) 0.000149804 (-1.52107e-05 -0.295 1.0842e-19) 0.0170566 0.000297283 0 1 0 0 -4.5036e+15 7.21612e-09 1 0.00524599 0
0.0700576 1 (0 0.155056 0.344944 0.5) 2891 15630 1 15630 0.331761 0 0 0 111598 1 -1 4.88938 5.44593e-05 0 (4.62631 5.54627 0) 661.761 0.0142612 0 (0 0 0) 321.05 2327.84 4.92254e-10 1(1) 0.000112364 (7.2549e-05 -0.295 5.42101e-20) 0.0175108 0.000308952 0 1 0 0 -4.5036e+15 6.14502e-08 1 0.00221261 0
0.0700576 1 (0 0.421672 0.0783282 0.5) 2770 15701 1 15701 0.853431 0 0 0 117424 1 -1 2.41382 7.92528e-05 0 (8.05288 5.11187 0) 659.275 0.011356 0 (0 0 0) 323.859 2339.48 7.10506e-10 1(1) 0.000126985 (3.41855e-05 -0.295 0) 0.0172304 0.000301648 0 1 0 0 -4.5036e+15 2.10289e-09 1 0.00356046 0
0.0700576 1 (0 0.5 0.256036 0.243964) 2911 15631 2 15631 0.677477 0 0 0 116454 1 -1 2.17719 7.96737e-05 0 (9.87665 8.19795 0) 659.057 0.0118369 0 (0 0 0) 324.105 2340.5 1.03147e-09 1(1) 0.000143786 (6.318e-05 -0.295 0) 0.0172059 0.000301026 0 1 0 0 -4.5036e+15 4.63156e-09 1 0.0031248 0
0.0700576 1 (0 0.5 0.397096 0.102904) 2725 15699 2 15699 0.987637 0 0 0 118681 1 -1 2.016 8.67025e-05 0 (9.35856 5.09643 0) 658.314 0.0107276 0 (0 0 0) 324.941 2344 9.11681e-10 1(1) 0.000137989 (3.39796e-05 -0.295 1.0842e-19) 0.0171227 0.000298929 0 1 0 0 -4.5036e+15 3.00371e-08 1 0.00388423 0
0.0700576 1 (0 0.211269 0.288731 0.5) 3173 15645 1 15645 0.295127 0 0 0 111834 1 -1 4.29217 6.21984e-05 0 (7.59952 17.1949 0) 661.37 0.0141435 0 (0 0 0) 321.493 2329.67 4.3079e-10 1(1) 0.000107478 (-4.183e-06 -0.295 1.35525e-19) 0.0174665 0.000307777 0 1 0 0 -4.5036e+15 0 1 0.0017825 0
0.0700576 1 (0 0.394554 0.105446 0.5) 3245 15649 1 15649 0.259565 0 0 0 112086 1 -1 6.04353 5.25362e-05 0 (6.52283 20.3023 0) 662.343 0.0140158 0 (0 0 0) 320.391 2325.14 2.447e-10 1(1) 8.90107e-05 (-1.26635e-05 -0.295 1.0842e-19) 0.0175767 0.000310716 0 1 0 0 -4.5036e+15 0 1 0.00130014 0
0.0700576 1 (0 0.5 0.16437 0.33563) 3227 15648 2 15648 0.996768 0 0 0 112153 1 -1 4.32332 6.18097e-05 0 (7.95684 19.517 0) 661.506 0.0139908 0 (0 0 0) 321.34 2329.04 3.69305e-10 1(1) 0.0001021 (-6.86353e-06 -0.295 8.13152e-20) 0.0174818 0.000308182 0 1 0 0 -4.5036e+15 0 1 0.00166932 0
0.0700576 3 (0 0.436009 0.5 0.0639905) 1723 15587 2 15587 0.0566037 0 0 0 109710 1 -1 9.38113 3.97533e-05 0 (-1.90822 16.2329 0) 663.643 0.0152035 0 (0 0 0) 318.914 2319.1 1.75935e-10 1(1) 7.97409e-05 (-1.25038e-05 -0.295 1.0842e-19) 0.0177246 0.000314744 0 1 0 0 -4.5036e+15 0 1 0.000959433 0
0.0700576 3 (0 0.5 0.0992337 0.400766) 1653 15585 1 15585 0.706155 0 0 0 105369 1 -1 4.97157 4.41713e-05 0 (-2.73969 16.2917 0) 663.032 0.0173799 0 (0 0 0) 319.609 2321.94 4.99472e-10 1(1) 0.000112911 (-9.13605e-05 -0.295 0) 0.017655 0.000312836 0 1 0 0 -4.5036e+15 3.17186e-09 1 0.00112436 0
0.0700576 3 (0 0.5 0.397552 0.102448) 1688 15586 1 15586 0.287173 0 0 0 109989 1 -1 6.04747 5.07268e-05 0 (-3.83685 17.9392 0) 662.528 0.0150653 0 (0 0 0) 320.18 2324.27 3.24882e-10 1(1) 9.78302e-05 (-9.7882e-06 -0.295 1.35525e-19) 0.0175978 0.000311284 0 1 0 0 -4.5036e+15 4.10643e-10 1 0.00132504 0
0.0700576 3 (0 0.477638 0.5 0.0223621) 1058 15568 2 15568 0.0608842 0 0 0 109386 1 -1 7.21509 4.429e-05 0 (-3.11405 5.53937 0) 663.055 0.015365 0 (0 0 0) 319.583 2321.83 2.20394e-10 1(1) 8.59602e-05 (-4.45035e-05 -0.295 8.13152e-20) 0.0176576 0.000312907 0 1 0 0 -4.5036e+15 0 1 0.00165358 0
0.0700576 3 (0 0.449664 0.5 0.0503356) 1198 15572 2 15572 0.853576 0 0 0 109058 1 -1 4.80541 5.34248e-05 0 (-4.68109 9.32812 0) 662.582 0.0155395 0 (0 0 0) 320.12 2324.03 3.37941e-10 1(1) 9.91238e-05 (-6.36728e-05 -0.295 2.71051e-20) 0.0176038 0.000311448 0 1 0 0 -4.5036e+15 0 1 0.0018409 0
0.0700576 3 (0 0.00956935 0.5 0.490431) 1233 15573 2 15573 0.649148 0 0 0 114660 1 -1 6.09383 5.13331e-05 0 (-5.53539 11.022 0) 662.529 0.0127332 0 (0 0 0) 320.18 2324.27 2.55077e-10 1(1) 9.02515e-05 (-5.38808e-05 -0.295 8.13152e-20) 0.0175978 0.000311286 0 1 0 0 -4.5036e+15 3.66244e-09 1 0.00160559 0
0.0700576 3 (0 0.5 0.147753 0.352247) 490 15561 1 15561 0.936429 0 0 0 109177 1 -1 7.70567 4.49164e-05 0 (-2.56265 1.38706 0) 663.201 0.0154793 0 (0 0 0) 319.416 2321.15 2.09401e-10 1(1) 8.45066e-05 (-9.37844e-06 -0.295 8.13152e-20) 0.0176743 0.000313363 0 1 0 0 -4.5036e+15 0 1 0.00215315 0
0.0700576 3 (0 0.435401 0.5 0.064599) 1128 15570 2 15570 0.433581 0 0 0 115502 1 -1 5.18739 5.63468e-05 0 (-6.58129 9.23414 0) 661.47 0.0123101 0 (0 0 0) 321.38 2329.2 2.71421e-10 1(1) 9.21394e-05 (-4.69616e-05 -0.295 1.35525e-19) 0.0174778 0.000308075 0 1 0 0 -4.5036e+15 -5.4883e-11 1 0.00193597 0
0.0700576 3 (0 0.5 0.281638 0.218362) 918 15564 1 15564 0.669566 0 0 0 116869 1 -1 3.84797 6.6099e-05 0 (-7.18023 5.52892 0) 660.444 0.0116293 0 (0 0 0) 322.541 2334 3.97218e-10 1(1) 0.00010461 (-2.68152e-05 -0.295 5.42101e-20) 0.0173619 0.000305033 0 1 0 0 -4.5036e+15 -1.19511e-10 1 0.00273738 0
0.0700576 3 (0 0.32142 0.5 0.17858) 560 15563 2 15563 0.127229 0 0 0 116692 1 -1 3.4028 6.87076e-05 0 (-8.07951 5.6293 0) 660.147 0.0117121 0 (0 0 0) 322.875 2335.38 4.74101e-10 1(1) 0.000110965 (-4.39076e-05 -0.295 0) 0.0173285 0.000304167 0 1 0 0 -4.5036e+15 8.54115e-09 1 0.00280372 0
0.0700576 3 (0 0.233744 0.5 0.266256) 525 15562 2 15562 0.32916 0 0 0 116539 1 -1 3.01484 7.16138e-05 0 (-8.66432 5.51299 0) 659.884 0.011792 0 (0 0 0) 323.173 2336.62 6.07386e-10 1(1) 0.000120518 (-5.16478e-05 -0.295 5.42101e-20) 0.0172988 0.000303401 0 1 0 0 -4.5036e+15 3.69592e-08 1 0.00293482 0
0.0700576 3 (0 0.5 0.293987 0.206013) 350 15557 1 15557 0.862444 0 0 0 115951 1 -1 2.35871 7.88906e-05 0 (-6.11284 3.2716 0) 659.439 0.0120919 0 (0 0 0) 323.674 2338.7 5.95141e-10 1(1) 0.000119703 (-7.13271e-06 -0.295 2.71051e-20) 0.0172489 0.00030212 0 1 0 0 -4.5036e+15 0 1 0.00405096 0
0.0700691 1 (0 0.257389 0.242611 0.5) 3065 15639 1 15639 0.144529 0 0 0 111626 1 -1 8.94549 4.30194e-05 0 (3.21404 9.80747 0) 663.545 0.0142584 0 (0 0 0) 319.026 2319.56 1.6079e-10 1(1) 7.73839e-05 (-7.14014e-06 -0.295 8.13152e-20) 0.0177134 0.000314436 0 1 0 0 -4.5036e+15 0 1 0.00131638 0
0.0700691 1 (0 0.5 0.440667 0.0593327) 2931 15632 2 15632 0.888362 0 0 0 113279 1 -1 7.15629 4.75481e-05 0 (3.56319 5.82256 0) 662.446 0.0134384 0 (0 0 0) 320.274 2324.66 2.08877e-10 1(1) 8.44361e-05 (3.56512e-05 -0.295 5.42101e-20) 0.0175884 0.000311032 0 1 0 0 -4.5036e+15 0 1 0.00181279 0
0.0700691 1 (0 0.5 0.0959104 0.40409) 2748 15700 2 15700 0.0443259 0 0 0 116847 1 -1 2.7184 7.57153e-05 0 (7.06652 4.34869 0) 659.773 0.0116447 0 (0 0 0) 323.297 2337.14 5.06067e-10 1(1) 0.000113405 (2.98517e-05 -0.295 -5.42101e-20) 0.0172864 0.000303082 0 1 0 0 -4.5036e+15 0 1 0.00352755 0
0.0700691 1 (0 0.490641 0.00935909 0.5) 2748 15700 1 15700 0.699631 0 0 0 118623 1 -1 1.99813 8.5374e-05 0 (9.41753 5.33941 0) 658.451 0.0107646 0 (0 0 0) 324.787 2343.35 8.44031e-10 1(1) 0.000134488 (3.50714e-05 -0.295 1.0842e-19) 0.017138 0.000299313 0 1 0 0 -4.5036e+15 2.58746e-08 1 0.00376493 0
0.0700691 1 (0 0.0566589 0.443341 0.5) 3317 15653 1 15653 0.39362 0 0 0 109459 1 -1 2.87428 7.59141e-05 0 (7.33399 22.8748 0) 662.168 0.0153434 0 (0 0 0) 320.59 2325.95 1.03071e-09 1(1) 0.000143751 (6.31471e-06 -0.295 5.42101e-20) 0.0175568 0.000310183 0 1 0 0 -4.5036e+15 2.51285e-07 1 0.00211957 0
0.0700691 1 (0 0.5 0.139957 0.360043) 3227 15648 2 15648 0.315404 0 0 0 109904 1 -1 8.48788 4.34387e-05 0 (4.55848 17.452 0) 663.061 0.0151216 0 (0 0 0) 319.575 2321.8 1.99205e-10 1(1) 8.31122e-05 (-9.91763e-06 -0.295 8.13152e-20) 0.0176583 0.000312928 0 1 0 0 -4.5036e+15 0 1 0.00105353 0
0.0700691 3 (0 0.5 0.235288 0.264712) 280 15555 1 15555 0.50644 0 0 0 58864 1 -1 1.42118 6.74544e-05 0 (-1.49913 -0.414748 0) 663.307 0.0406493 0 (0 0 0) 319.297 2320.66 1.01323e-09 1(1) 0.000142933 (-5.19144e-06 -0.295 1.35525e-19) 0.0176863 0.000313691 0 1 0 0 -4.5036e+15 3.17093e-08 1 0.00513367 0
0.0700691 3 (0 0.206863 0.5 0.293137) 1688 15586 2 15586 0.971081 0 0 0 110217 1 -1 4.77793 5.78607e-05 0 (-5.02676 19.5701 0) 662.124 0.0149712 0 (0 0 0) 320.639 2326.15 4.27386e-10 1(1) 0.000107194 (-6.21285e-06 -0.295 8.13152e-20) 0.0175519 0.00031005 0 1 0 0 -4.5036e+15 1.00663e-09 1 0.00154379 0
0.0700691 3 (0 0.408737 0.5 0.0912631) 1478 15580 2 15580 0.602333 0 0 0 110871 1 -1 6.26019 4.36662e-05 0 (-3.19256 14.1018 0) 663.012 0.0146397 0 (0 0 0) 319.631 2322.03 2.71864e-10 1(1) 9.21895e-05 (-8.66235e-05 -0.295 2.71051e-20) 0.0176528 0.000312776 0 1 0 0 -4.5036e+15 8.57285e-09 1 0.00117171 0