# Time currentProc (coordinatesa coordinatesb coordinatesc coordinatesd) celli tetFacei tetPti facei stepFraction behind nBehind origProc origId active typeId nParticle d dTarget  (Ux Uy Uz) rho age tTurb (UTurbx UTurby UTurbz) T Cp mass0 nPhases(Y1..YN)
0.0800131 0 (0 0.207292 0.5 0.292708) 2465 15711 2 15711 0.15344 0 0 0 138944 1 -1 1.09909 0.000113478 0 (-14.4573 3.29449 0) 681.805 0.0105814 0 (0 0 0) 297.848 2238.04 7.79104e-10 1(1) 0.000130947 (-2.71895e-05 -0.295 1.35525e-19) 0.0198605 0.000385483 0 0 0 0 0 0 1 0.00543762 0
0.0800131 0 (0 0.5 0.205328 0.294672) 2535 15713 1 15713 0.221793 0 0 0 139006 1 -1 1.01417 0.000116706 0 (-15.4008 3.4202 0) 681.488 0.0105531 0 (0 0 0) 298.222 2239.4 1.16542e-09 1(1) 0.000149759 (-3.46982e-05 -0.295 2.71051e-20) 0.0198221 0.000383968 0 0 0 0 0 0 1 0.00547876 0
0.0800131 0 (0 0.441589 0.5 0.0584113) 2430 15710 2 15710 0.804586 0 0 0 139465 1 -1 1.00092 0.000117014 0 (-14.8551 2.89524 0) 681.383 0.0103325 0 (0 0 0) 298.346 2239.85 7.81095e-10 1(1) 0.000131059 (-2.26945e-05 -0.295 5.42101e-20) 0.0198094 0.000383468 0 0 0 0 0 0 1 0.00566016 0
0.0800131 1 (0 0.5 0.120934 0.379066) 1667 15707 2 15707 0.764404 0 0 0 123717 1 -1 2.14757 9.33494e-05 0 (2.337 3.87702 0) 686.293 0.0181977 0 (0 0 0) 292.518 2219.11 1.12709e-09 1(1) 0.000148098 (6.69172e-06 -0.295 1.0842e-19) 0.0204085 0.000408302 0 0 0 0 0 0 1 0.0071604 0
0.0800131 1 (0 0.00249791 0.497502 0.5) 1379 15759 1 15759 0.369594 0 0 0 123856 1 -1 2.09507 9.40848e-05 0 (2.39451 3.84529 0) 686.237 0.0181222 0 (0 0 0) 292.586 2219.35 1.11221e-09 1(1) 0.000147444 (6.71027e-06 -0.295 1.0842e-19) 0.0204015 0.000407999 0 0 0 0 0 0 1 0.00724765 0
0.0800131 1 (0 0.5 0.271994 0.228006) 3592 15669 2 15669 0.144383 0 0 0 116533 1 -1 6.49638 6.41083e-05 0 (1.57371 17.0059 0) 688.219 0.0217757 0 (0 0 0) 290.217 2211.15 1.05154e-09 1(1) 0.000144713 (4.94429e-06 -0.295 -5.42101e-20) 0.020646 0.00041893 0 0 0 0 0 0 1 0.0021775 0
0.0800131 1 (0 0.5 0.0482817 0.451718) 3029 15637 2 15637 0.026261 0 0 0 127002 1 -1 7.69918 5.82293e-05 0 (4.35106 10.9605 0) 688.023 0.0165487 0 (0 0 0) 290.452 2211.95 3.12332e-10 1(1) 9.65539e-05 (7.70939e-05 -0.295 5.42101e-20) 0.0206218 0.000417823 0 0 0 0 0 0 1 0.00225627 0
0.0800131 1 (0 0.345697 0.154303 0.5) 2791 15702 1 15702 0.498319 0 0 0 132303 1 -1 2.87191 8.30248e-05 0 (8.29239 8.41037 0) 685.745 0.0139062 0 (0 0 0) 293.172 2221.4 3.92767e-10 1(1) 0.000104218 (5.70275e-05 -0.295 0) 0.0203411 0.000405373 0 0 0 0 0 0 1 0.0038728 0
0.0800131 1 (0 0.5 0.151011 0.348989) 2650 15696 2 15696 0.993813 0 0 0 135148 1 -1 1.93393 9.51445e-05 0 (10.3828 7.38213 0) 684.316 0.0124895 0 (0 0 0) 294.872 2227.39 1.00231e-09 1(1) 0.000142418 (5.05578e-05 -0.295 0) 0.0201661 0.000397927 0 0 0 0 0 0 1 0.00457639 0
0.0800131 1 (0 0.5 0.0903628 0.409637) 2332 15726 2 15726 0.867083 0 0 0 137157 1 -1 1.4413 0.00010433 0 (11.9912 6.37065 0) 683.131 0.0114837 0 (0 0 0) 296.278 2232.4 1.06497e-09 1(1) 0.000145326 (3.94308e-05 -0.295 0) 0.0200216 0.000391957 0 0 0 0 0 0 1 0.00507944 0
0.0800131 1 (0 0.5 0.484159 0.0158406) 2122 15720 2 15720 0.0485636 0 0 0 138341 1 -1 1.12707 0.000113125 0 (13.4271 5.32742 0) 682.092 0.0108821 0 (0 0 0) 297.508 2236.82 1.0422e-09 1(1) 0.000144283 (3.32581e-05 -0.295 5.42101e-20) 0.0198954 0.000386868 0 0 0 0 0 0 1 0.00552402 0
0.0800131 3 (0 0.116884 0.5 0.383116) 1513 15581 2 15581 0.395542 0 0 0 97979 1 -1 5.41464 6.81636e-05 0 (-0.52168 8.25172 0) 689.477 0.0310409 0 (0 0 0) 288.709 2206 1.15603e-09 1(1) 0.000149355 (-7.84964e-06 -0.295 2.71051e-20) 0.0208019 0.000426167 0 0 0 0 0 0 1 0.0033342 0
0.0800131 3 (0 0.184662 0.5 0.315338) 1583 15583 2 15583 0.975299 0 0 0 124617 1 -1 5.97856 6.46517e-05 0 (-3.73767 15.1943 0) 687.426 0.0177504 0 (0 0 0) 291.165 2214.42 9.69621e-10 1(1) 0.000140853 (-1.29309e-06 -0.295 1.35525e-19) 0.020548 0.00041449 0 0 0 0 0 0 1 0.00228234 0
0.0800131 3 (0 0.470062 0.5 0.0299382) 1128 15570 2 15570 0.200183 0 0 0 108486 1 -1 3.81991 7.63248e-05 0 (-0.981766 8.65507 0) 688.885 0.0257951 0 (0 0 0) 289.419 2208.42 2.82917e-10 1(1) 9.34223e-05 (-2.9688e-06 -0.295 5.42101e-20) 0.0207285 0.00042273 0 0 0 0 0 0 1 0.00393478 0
0.0800131 3 (0 0.0591277 0.5 0.440872) 1163 15571 2 15571 0.582438 0 0 0 120194 1 -1 4.75306 7.05115e-05 0 (-2.731 10.3969 0) 688.339 0.0199541 0 (0 0 0) 290.073 2210.66 1.93385e-10 1(1) 8.22947e-05 (-1.86647e-05 -0.295 2.71051e-20) 0.0206608 0.000419609 0 0 0 0 0 0 1 0.00316167 0
0.0800131 3 (0 0.5 0.332358 0.167642) 1268 15574 1 15574 0.954253 0 0 0 130679 1 -1 5.11413 6.76452e-05 0 (-7.00989 13.0234 0) 687.053 0.0147239 0 (0 0 0) 291.611 2215.96 1.55236e-10 1(1) 7.64824e-05 (-6.91531e-05 -0.295 8.13152e-20) 0.020502 0.000412432 0 0 0 0 0 0 1 0.00248216 0
0.0800131 3 (0 0.5 0.0959744 0.404026) 1128 15570 1 15570 0.989523 0 0 0 125936 1 -1 3.50353 7.85341e-05 0 (-6.69179 11.1326 0) 686.833 0.0170921 0 (0 0 0) 291.874 2216.87 1.16591e-09 1(1) 0.00014978 (-8.38227e-05 -0.295 0) 0.0204749 0.00041123 0 0 0 0 0 0 1 0.00340416 0
0.0800131 3 (0 0.451651 0.5 0.0483487) 953 15565 2 15565 0.845095 0 0 0 112030 1 -1 3.375 7.94543e-05 0 (-1.34945 7.1268 0) 688.461 0.0240321 0 (0 0 0) 289.926 2210.15 3.02974e-10 1(1) 9.55798e-05 (-1.0155e-05 -0.295 8.13152e-20) 0.020676 0.000420307 0 0 0 0 0 0 1 0.00454305 0
0.0800131 3 (0 0.40195 0.5 0.0980503) 953 15565 2 15565 0.359429 0 0 0 133441 1 -1 2.0471 9.28086e-05 0 (-11.142 9.72893 0) 684.68 0.0133347 0 (0 0 0) 294.439 2225.86 1.12784e-09 1(1) 0.000148131 (-6.7443e-05 -0.295 8.13152e-20) 0.0202106 0.0003998 0 0 0 0 0 0 1 0.00409386 0
0.0800131 3 (0 0.5 0.34509 0.15491) 70 15549 1 15549 0.0874085 0 0 0 135793 1 -1 2.04159 9.26457e-05 0 (-11.203 6.80489 0) 684.264 0.0121551 0 (0 0 0) 294.934 2227.61 6.42324e-10 1(1) 0.000122786 (-4.39545e-05 -0.295 1.89735e-19) 0.0201598 0.000397663 0 0 0 0 0 0 1 0.00433352 0
0.0800262 0 (0 0.5 0.132484 0.367516) 2815 15721 1 15721 0.75069 0 0 0 136149 1 -1 2.32787 8.74582e-05 0 (-9.25101 6.25558 0) 684.75 0.012001 0 (0 0 0) 294.357 2225.57 3.51596e-10 1(1) 0.000100441 (-1.85364e-05 -0.295 8.13152e-20) 0.0202191 0.000400159 0 0 0 0 0 0 1 0.00429916 0
0.0800262 0 (0 0.361672 0.5 0.138328) 2500 15712 2 15712 0.500225 0 0 0 139250 1 -1 0.970409 0.000118383 0 (-15.6423 3.18686 0) 681.311 0.0104474 0 (0 0 0) 298.431 2240.15 1.01124e-09 1(1) 0.000142839 (-3.32823e-05 -0.295 5.42101e-20) 0.0198007 0.000383128 0 0 0 0 0 0 1 0.00553909 0
0.0800262 1 (0 0.0741593 0.425841 0.5) 3609 15670 1 15670 0.0395424 0 0 0 114569 1 -1 6.00126 6.54582e-05 0 (1.51818 18.0604 0) 688.222 0.0227675 0 (0 0 0) 290.213 2211.13 8.86696e-10 1(1) 0.000136717 (1.88548e-06 -0.295 0) 0.0206464 0.00041895 0 0 0 0 0 0 1 0.00218053 0
0.0800262 1 (0 0.5 0.341727 0.158273) 3191 15646 2 15646 0.074782 0 0 0 122496 1 -1 9.39974 5.49708e-05 0 (2.96846 12.2291 0) 688.475 0.0188142 0 (0 0 0) 289.91 2210.1 9.64654e-11 1(1) 6.52662e-05 (-8.79204e-05 -0.295 0) 0.0206777 0.000420384 0 0 0 0 0 0 1 0.0019731 0
0.0800262 1 (0 0.5 0.383628 0.116372) 3119 15642 2 15642 0.186793 0 0 0 129094 1 -1 8.47146 5.62826e-05 0 (2.75348 10.4991 0) 688.199 0.0155174 0 (0 0 0) 290.241 2211.23 9.21925e-11 1(1) 6.42879e-05 (1.01169e-05 -0.295 5.42101e-20) 0.0206435 0.000418816 0 0 0 0 0 0 1 0.00217818 0
0.0800262 1 (0 0.230289 0.269711 0.5) 2951 15633 1 15633 0.922143 0 0 0 130671 1 -1 7.19912 5.97303e-05 0 (3.92808 10.1049 0) 687.935 0.01474 0 (0 0 0) 290.557 2212.32 1.098e-10 1(1) 6.81447e-05 (2.20144e-05 -0.295 -5.42101e-20) 0.0206108 0.000417327 0 0 0 0 0 0 1 0.00243783 0
0.0800262 1 (0 0.5 0.0863136 0.413686) 2851 15705 2 15705 0.95366 0 0 0 130739 1 -1 3.7765 7.61114e-05 0 (7.14082 8.84511 0) 686.456 0.0147056 0 (0 0 0) 292.324 2218.44 2.25974e-10 1(1) 8.66796e-05 (6.2523e-05 -0.295 0) 0.0204285 0.000409182 0 0 0 0 0 0 1 0.0034581 0
0.0800262 1 (0 0.402163 0.0978368 0.5) 2811 15703 1 15703 0.478001 0 0 0 132379 1 -1 2.17307 9.14886e-05 0 (9.73294 8.53633 0) 685.048 0.0138792 0 (0 0 0) 294.001 2224.31 8.20915e-10 1(1) 0.000133249 (6.69817e-05 -0.295 5.42101e-20) 0.0202557 0.00040171 0 0 0 0 0 0 1 0.00428259 0
0.0800262 1 (0 0.5 0.422115 0.0778854) 2748 15700 2 15700 0.772422 0 0 0 133712 1 -1 2.29022 8.95851e-05 0 (9.44584 7.97021 0) 685.031 0.0132174 0 (0 0 0) 294.021 2224.38 9.00135e-10 1(1) 0.000137404 (5.58881e-05 -0.295 0) 0.0202536 0.000401622 0 0 0 0 0 0 1 0.00424578 0
0.0800262 1 (0 0.263675 0.236325 0.5) 2332 15726 1 15726 0.291662 0 0 0 136150 1 -1 1.73737 9.68382e-05 0 (9.90745 6.6239 0) 684.024 0.0119941 0 (0 0 0) 295.219 2228.62 4.93744e-10 1(1) 0.000112477 (3.40763e-05 -0.295 0) 0.0201304 0.000396438 0 0 0 0 0 0 1 0.00485192 0
0.0800262 1 (0 0.183154 0.316846 0.5) 2122 15720 1 15720 0.41722 0 0 0 137235 1 -1 1.3668 0.000104563 0 (10.6574 5.81131 0) 683.149 0.0114538 0 (0 0 0) 296.256 2232.32 6.38715e-10 1(1) 0.000122556 (2.33128e-05 -0.295 5.42101e-20) 0.0200238 0.000392048 0 0 0 0 0 0 1 0.00537995 0
0.0800262 1 (0 0.5 0.210464 0.289536) 2192 15722 2 15722 0.909937 0 0 0 137356 1 -1 1.40729 0.000105102 0 (11.2594 5.94884 0) 683.06 0.0113979 0 (0 0 0) 296.362 2232.7 7.70455e-10 1(1) 0.000130461 (2.98845e-05 -0.295 5.42101e-20) 0.020013 0.000391606 0 0 0 0 0 0 1 0.00529777 0
0.0800262 1 (0 0.12235 0.37765 0.5) 1982 15716 1 15716 0.206871 0 0 0 139412 1 -1 0.872382 0.000122747 0 (14.9959 4.30304 0) 681.026 0.010363 0 (0 0 0) 298.767 2241.38 1.08798e-09 1(1) 0.000146365 (2.68479e-05 -0.295 0) 0.0197663 0.00038178 0 0 0 0 0 0 1 0.00594594 0
0.0800262 1 (0 0.5 0.148607 0.351393) 1947 15715 2 15715 0.570345 0 0 0 139667 1 -1 0.813486 0.000125629 0 (15.1962 3.86728 0) 680.738 0.0102389 0 (0 0 0) 299.108 2242.62 1.02954e-09 1(1) 0.000143696 (2.09345e-05 -0.295 5.42101e-20) 0.0197314 0.000380425 0 0 0 0 0 0 1 0.00615595 0
0.0800262 3 (0 0.000384855 0.5 0.499615) 2213 15601 2 15601 0.260059 0 0 0 101879 1 -1 10.7226 5.19751e-05 0 (-0.0554377 6.28546 0) 690.14 0.0291073 0 (0 0 0) 287.912 2203.3 8.60162e-11 1(1) 6.2819e-05 (-7.05817e-06 -0.295 8.13152e-20) 0.0208845 0.000430085 0 0 0 0 0 0 1 0.00244902 0
0.0800262 3 (0 0.028397 0.5 0.471603) 1548 15582 2 15582 0.896054 0 0 0 91038 1 -1 4.25819 7.29083e-05 0 (-0.536594 8.77727 0) 689.485 0.0345272 0 (0 0 0) 288.699 2205.96 9.77002e-10 1(1) 0.000141209 (-5.02885e-06 -0.295 2.71051e-20) 0.020803 0.000426215 0 0 0 0 0 0 1 0.00360432 0
0.0800262 3 (0 0.5 0.0269936 0.473006) 2178 15600 1 15600 0.715142 0 0 0 117461 1 -1 5.37563 6.76957e-05 0 (-1.8311 19.4417 0) 688.201 0.0213345 0 (0 0 0) 290.238 2211.22 6.32412e-10 1(1) 0.000122151 (1.86276e-06 -0.295 5.42101e-20) 0.0206438 0.00041883 0 0 0 0 0 0 1 0.00220726 0
0.0800262 3 (0 0.381628 0.5 0.118372) 2108 15598 2 15598 0.713307 0 0 0 117937 1 -1 5.44557 6.79039e-05 0 (-2.46087 20.7633 0) 687.989 0.021099 0 (0 0 0) 290.492 2212.1 7.52711e-10 1(1) 0.000129451 (-1.76672e-06 -0.295 5.42101e-20) 0.0206175 0.000417631 0 0 0 0 0 0 1 0.00213912 0
0.0800262 3 (0 0.5 0.190989 0.309011) 2108 15598 1 15598 0.490905 0 0 0 119234 1 -1 5.59674 6.72057e-05 0 (-2.70567 21.0292 0) 687.817 0.0204449 0 (0 0 0) 290.698 2212.8 9.42996e-10 1(1) 0.000139551 (-3.7283e-06 -0.295 8.13152e-20) 0.0205963 0.000416667 0 0 0 0 0 0 1 0.00209192 0
0.0800262 3 (0 0.5 0.198507 0.301493) 2108 15598 1 15598 0.783163 0 0 0 119529 1 -1 4.98905 6.98668e-05 0 (-3.00466 21.369 0) 687.528 0.0203017 0 (0 0 0) 291.043 2213.99 6.18981e-10 1(1) 0.00012128 (-3.23146e-06 -0.295 5.42101e-20) 0.0205606 0.000415056 0 0 0 0 0 0 1 0.00219538 0
0.0800262 3 (0 0.198255 0.5 0.301745) 1233 15573 2 15573 0.713269 0 0 0 108032 1 -1 4.77373 7.16704e-05 0 (-0.624349 8.45219 0) 688.825 0.0260419 0 (0 0 0) 289.491 2208.66 7.24691e-10 1(1) 0.000127825 (-7.96808e-06 -0.295 2.71051e-20) 0.0207211 0.000422388 0 0 0 0 0 0 1 0.00346943 0
0.0800262 3 (0 0.326128 0.5 0.173872) 1163 15571 2 15571 0.758944 0 0 0 131826 1 -1 4.7824 6.97345e-05 0 (-7.86134 12.5548 0) 686.879 0.0141601 0 (0 0 0) 291.819 2216.68 1.68054e-10 1(1) 7.85321e-05 (-5.99137e-05 -0.295 0) 0.0204806 0.000411482 0 0 0 0 0 0 1 0.00266644 0
0.0800262 3 (0 0.425732 0.5 0.0742675) 490 15561 2 15561 0.961181 0 0 0 134661 1 -1 2.70245 8.39199e-05 0 (-9.73829 8.70874 0) 685.239 0.0127485 0 (0 0 0) 293.774 2223.51 8.77579e-10 1(1) 0.000136247 (-4.69218e-05 -0.295 1.35525e-19) 0.0202791 0.000402707 0 0 0 0 0 0 1 0.00374876 0
0.0800262 3 (0 0.334146 0.5 0.165854) 385 15558 2 15558 0.110538 0 0 0 134812 1 -1 2.45647 8.69885e-05 0 (-10.2684 8.08096 0) 684.954 0.0126617 0 (0 0 0) 294.113 2224.71 3.42728e-10 1(1) 9.95896e-05 (-4.80706e-05 -0.295 8.13152e-20) 0.0202442 0.000401219 0 0 0 0 0 0 1 0.00395363 0
0.0800262 3 (0 0.5 0.463901 0.0360994) 210 15553 1 15553 0.123544 0 0 0 135040 1 -1 2.79143 8.27502e-05 0 (-7.92593 7.44693 0) 685.417 0.0125465 0 (0 0 0) 293.562 2222.77 2.84556e-10 1(1) 9.36023e-05 (-1.50212e-05 -0.295 8.13152e-20) 0.0203009 0.000403641 0 0 0 0 0 0 1 0.00400816 0
0.0800394 0 (0 0.307915 0.5 0.192085) 2535 15713 2 15713 0.0192073 0 0 0 138007 1 -1 1.45037 0.000103299 0 (-12.6708 4.23099 0) 682.933 0.0110745 0 (0 0 0) 296.512 2233.24 5.7923e-10 1(1) 0.000118626 (-2.57674e-05 -0.295 2.71051e-20) 0.0199975 0.000390978 0 0 0 0 0 0 1 0.00499651 0
0.0800394 0 (0 0.129022 0.5 0.370978) 2605 15715 2 15715 0.174773 0 0 0 138010 1 -1 1.26943 0.000108237 0 (-13.9748 4.34229 0) 682.468 0.0110746 0 (0 0 0) 297.063 2235.21 1.06203e-09 1(1) 0.000145192 (-3.85761e-05 -0.295 2.71051e-20) 0.019941 0.000388695 0 0 0 0 0 0 1 0.00513521 0
0.0800394 0 (0 0.5 0.141347 0.358653) 2465 15711 1 15711 0.214333 0 0 0 139340 1 -1 1.03773 0.000115642 0 (-14.8218 3.09423 0) 681.502 0.010412 0 (0 0 0) 298.205 2239.34 9.17999e-10 1(1) 0.000138307 (-2.61941e-05 -0.295 5.42101e-20) 0.0198239 0.000384036 0 0 0 0 0 0 1 0.00553015 0
0.0800394 1 (0 0.105779 0.394221 0.5) 1667 15707 1 15707 0.637921 0 0 0 123185 1 -1 2.34283 9.13599e-05 0 (2.17599 4.07859 0) 686.479 0.0184874 0 (0 0 0) 292.297 2218.34 1.03676e-09 1(1) 0.000144031 (7.08935e-06 -0.295 -5.42101e-20) 0.0204313 0.000409303 0 0 0 0 0 0 1 0.00685987 0
0.0800394 1 (0 0.216199 0.283801 0.5) 1667 15707 1 15707 0.634702 0 0 0 123122 1 -1 2.1848 9.22691e-05 0 (2.22333 4.05072 0) 686.455 0.0185196 0 (0 0 0) 292.325 2218.44 8.66364e-10 1(1) 0.000135664 (6.22181e-06 -0.295 1.6263e-19) 0.0204283 0.000409174 0 0 0 0 0 0 1 0.00697073 0
0.0800394 1 (0 0.5 0.00960308 0.490397) 3209 15647 2 15647 0.205009 0 0 0 121752 1 -1 14.4342 4.69838e-05 0 (1.12624 9.44526 0) 689.186 0.0191979 0 (0 0 0) 289.058 2207.18 5.68101e-11 1(1) 5.47066e-05 (1.07332e-05 -0.295 5.42101e-20) 0.0207659 0.000424473 0 0 0 0 0 0 1 0.00174795 0
0.0800394 1 (0 0.473802 0.0261982 0.5) 3677 15674 1 15674 0.749517 0 0 0 115023 1 -1 4.57412 7.24966e-05 0 (1.8456 20.46 0) 687.422 0.0225633 0 (0 0 0) 291.17 2214.43 9.81588e-10 1(1) 0.00014143 (9.20779e-05 -0.295 2.71051e-20) 0.0205475 0.000414468 0 0 0 0 0 0 1 0.00238 0
0.0800394 1 (0 0.494498 0.00550232 0.5) 3065 15639 1 15639 0.0342974 0 0 0 123900 1 -1 7.5758 5.95845e-05 0 (3.57679 10.725 0) 687.962 0.0181219 0 (0 0 0) 290.524 2212.2 2.22568e-10 1(1) 8.6242e-05 (-8.60234e-05 -0.295 2.71051e-20) 0.0206143 0.000417484 0 0 0 0 0 0 1 0.00229701 0
0.0800394 1 (0 0.360271 0.139729 0.5) 2891 15630 1 15630 0.0689863 0 0 0 128183 1 -1 3.91395 7.49705e-05 0 (6.91572 9.49702 0) 686.744 0.0159841 0 (0 0 0) 291.98 2217.24 8.72357e-10 1(1) 0.000135976 (7.9881e-05 -0.295 5.42101e-20) 0.020464 0.000410745 0 0 0 0 0 0 1 0.00332711 0
0.0800394 1 (0 0.5 0.0421617 0.457838) 2811 15703 2 15703 0.346797 0 0 0 132172 1 -1 3.5009 7.74381e-05 0 (7.31125 8.43956 0) 686.228 0.0139948 0 (0 0 0) 292.596 2219.38 2.42412e-10 1(1) 8.87324e-05 (5.01857e-05 -0.295 5.42101e-20) 0.0204005 0.000407953 0 0 0 0 0 0 1 0.00357888 0
0.0800394 1 (0 0.359817 0.140183 0.5) 2851 15705 1 15705 0.948561 0 0 0 130994 1 -1 3.43195 7.8165e-05 0 (7.54855 9.01988 0) 686.253 0.0145932 0 (0 0 0) 292.566 2219.28 8.35586e-10 1(1) 0.000134038 (6.35955e-05 -0.295 0) 0.0204035 0.000408085 0 0 0 0 0 0 1 0.00354335 0
0.0800394 1 (0 0.5 0.107363 0.392637) 2791 15702 2 15702 0.852671 0 0 0 133993 1 -1 1.55601 0.000101505 0 (11.6243 8.02885 0) 684.013 0.0130912 0 (0 0 0) 295.231 2228.67 1.05475e-09 1(1) 0.00014486 (6.78256e-05 -0.295 5.42101e-20) 0.0201291 0.000396386 0 0 0 0 0 0 1 0.00478055 0
0.0800394 1 (0 0.254769 0.245231 0.5) 2297 15725 1 15725 0.0906952 0 0 0 137320 1 -1 1.34434 0.000105206 0 (12.2002 6.31564 0) 683.021 0.0114188 0 (0 0 0) 296.408 2232.86 1.16601e-09 1(1) 0.000149784 (3.93972e-05 -0.295 5.42101e-20) 0.0200082 0.000391413 0 0 0 0 0 0 1 0.00510613 0
0.0800394 1 (0 0.5 0.0736927 0.426307) 2052 15718 2 15718 0.230061 0 0 0 138602 1 -1 1.12224 0.000113728 0 (12.9931 4.9828 0) 682.025 0.0107817 0 (0 0 0) 297.588 2237.1 7.28002e-10 1(1) 0.000128019 (2.31413e-05 -0.295 5.42101e-20) 0.0198871 0.00038654 0 0 0 0 0 0 1 0.00565948 0
0.0800394 3 (0 0.29579 0.5 0.20421) 1268 15574 2 15574 0.629876 0 0 3 791 1 -1 237.643 3.20034e-05 0 (-0.150519 1.16877 0) 687.917 0.0149826 0 (0 0 0) 290.579 2212.39 1.24982e-11 1(1) 3.26582e-05 (-0.119964 0.0783891 -5.42101e-20) 0.0206086 0.000417227 0 0 0 0 0 0 1 0.0016373 0
0.0800394 3 (0 0.5 0.0171984 0.482802) 1653 15585 1 15585 0.747729 0 0 0 96467 1 -1 5.26324 6.75948e-05 0 (-0.625945 10.1418 0) 689.653 0.0318268 0 (0 0 0) 288.497 2205.28 9.19455e-10 1(1) 0.00013838 (-6.78402e-06 -0.295 1.35525e-19) 0.0208239 0.000427202 0 0 0 0 0 0 1 0.003001 0
0.0800394 3 (0 0.5 0.136672 0.363328) 1513 15581 1 15581 0.752058 0 0 0 88803 1 -1 3.84538 7.528e-05 0 (-0.340623 7.23347 0) 689.262 0.0356567 0 (0 0 0) 288.967 2206.87 9.83339e-10 1(1) 0.000141514 (-5.60092e-06 -0.295 2.71051e-20) 0.0207753 0.000424915 0 0 0 0 0 0 1 0.00412603 0
0.0800394 3 (0 0.452612 0.5 0.0473883) 2143 15599 2 15599 0.550958 0 0 0 111881 1 -1 7.60106 6.02416e-05 0 (-1.5606 18.9977 0) 688.751 0.0241318 0 (0 0 0) 289.58 2208.97 4.23614e-10 1(1) 0.000106878 (-9.01498e-05 -0.295 1.0842e-19) 0.0207118 0.00042196 0 0 0 0 0 0 1 0.00187747 0
0.0800394 3 (0 0.0931854 0.5 0.406815) 1058 15568 2 15568 0.937824 0 0 0 103008 1 -1 4 7.54882e-05 0 (-0.646205 7.54978 0) 689.087 0.0285637 0 (0 0 0) 289.176 2207.59 6.28593e-10 1(1) 0.000121905 (-6.63962e-06 -0.295 8.13152e-20) 0.0207536 0.000423899 0 0 0 0 0 0 1 0.00411613 0
0.0800394 3 (0 0.00183341 0.5 0.498167) 1338 15576 2 15576 0.900757 0 0 0 127303 1 -1 6.2216 6.33722e-05 0 (-5.01911 13.5332 0) 687.617 0.0164369 0 (0 0 0) 290.937 2213.63 1.9357e-10 1(1) 8.23209e-05 (-8.55525e-05 -0.295 0) 0.0205716 0.00041555 0 0 0 0 0 0 1 0.00228463 0
0.0800394 3 (0 0.5 0.44757 0.0524305) 1233 15573 1 15573 0.405758 0 0 0 131467 1 -1 6.64145 6.15227e-05 0 (-5.47969 12.1207 0) 687.568 0.0143497 0 (0 0 0) 290.995 2213.83 1.18683e-10 1(1) 6.99349e-05 (-3.64199e-05 -0.295 8.13152e-20) 0.0205656 0.00041528 0 0 0 0 0 0 1 0.00223602 0
0.0800394 3 (0 0.169028 0.5 0.330972) 560 15563 2 15563 0.923001 0 0 0 134324 1 -1 3.03122 8.1073e-05 0 (-9.13848 9.28417 0) 685.564 0.0129272 0 (0 0 0) 293.387 2222.15 6.69678e-10 1(1) 0.000124505 (-4.6257e-05 -0.295 0) 0.0203189 0.000404415 0 0 0 0 0 0 1 0.00356548 0
0.0800394 3 (0 0.5 0.34706 0.15294) 560 15563 1 15563 0.652975 0 0 0 133103 1 -1 3.32204 7.89284e-05 0 (-6.26564 8.74234 0) 686.192 0.0135343 0 (0 0 0) 292.639 2219.54 2.60063e-10 1(1) 9.08358e-05 (-7.81222e-06 -0.295 2.71051e-20) 0.020396 0.000407758 0 0 0 0 0 0 1 0.00375781 0
0.0800526 0 (0 0.5 0.161431 0.338569) 2780 15720 1 15720 0.791282 0 0 0 136447 1 -1 2.11031 9.15091e-05 0 (-10.5743 5.91221 0) 684.301 0.0118771 0 (0 0 0) 294.89 2227.46 3.96782e-10 1(1) 0.000104572 (-2.96579e-05 -0.295 5.42101e-20) 0.0201642 0.000397849 0 0 0 0 0 0 1 0.00442225 0
0.0800526 0 (0 0.5 0.460531 0.0394691) 2465 15711 1 15711 0.647899 0 0 0 137247 1 -1 1.67795 9.88849e-05 0 (-10.2686 3.94381 0) 683.561 0.0114752 0 (0 0 0) 295.768 2230.58 5.14743e-10 1(1) 0.00011405 (-1.19761e-05 -0.295 1.6263e-19) 0.020074 0.000394105 0 0 0 0 0 0 1 0.00516997 0
0.0800526 0 (0 0.5 0.293594 0.206406) 2675 15717 1 15717 0.630085 0 0 0 137426 1 -1 1.5512 0.000101958 0 (-12.8406 4.90239 0) 683.152 0.0113853 0 (0 0 0) 296.254 2232.31 7.44763e-10 1(1) 0.000128994 (-3.75404e-05 -0.295 8.13152e-20) 0.0200241 0.000392059 0 0 0 0 0 0 1 0.00486799 0
0.0800526 0 (0 0.160964 0.5 0.339036) 2605 15715 2 15715 0.696853 0 0 0 137915 1 -1 1.31472 0.000106535 0 (-13.6166 4.42537 0) 682.659 0.0111426 0 (0 0 0) 296.837 2234.4 8.82947e-10 1(1) 0.000136524 (-3.74513e-05 -0.295 8.13152e-20) 0.0199642 0.000389627 0 0 0 0 0 0 1 0.00507261 0
0.0800526 0 (0 0.174748 0.5 0.325252) 2535 15713 2 15713 0.859828 0 0 0 138011 1 -1 1.46188 0.000103012 0 (-12.6255 4.2678 0) 682.968 0.0110962 0 (0 0 0) 296.471 2233.09 5.76899e-10 1(1) 0.000118467 (-2.62453e-05 -0.295 1.35525e-19) 0.0200018 0.000391151 0 0 0 0 0 0 1 0.00498283 0
0.0800526 0 (0 0.5 0.195976 0.304024) 2395 15709 1 15709 0.0455502 0 0 0 140240 1 -1 0.791608 0.000126551 0 (-16.1962 2.20934 0) 680.405 0.00997238 0 (0 0 0) 299.5 2244.04 1.03929e-09 1(1) 0.000144148 (-1.94707e-05 -0.295 1.0842e-19) 0.0196913 0.000378879 0 0 0 0 0 0 1 0.00610939 0
0.0800526 1 (0 0.498213 0.00178709 0.5) 2951 15633 1 15633 0.886062 0 0 0 106242 1 -1 3.87079 7.58109e-05 0 (0.714875 6.88366 0) 688.933 0.0269624 0 (0 0 0) 289.361 2208.22 2.78297e-10 1(1) 9.2911e-05 (5.75246e-06 -0.295 5.42101e-20) 0.0207345 0.000423009 0 0 0 0 0 0 1 0.00430766 0
0.0800526 1 (0 0.5 0.23236 0.26764) 2676 15697 2 15697 0.20536 0 0 0 108795 1 -1 3.52907 7.93182e-05 0 (0.762398 5.46747 0) 688.458 0.0256793 0 (0 0 0) 289.93 2210.17 9.02727e-10 1(1) 0.000137536 (5.94294e-06 -0.295 0) 0.0206756 0.000420287 0 0 0 0 0 0 1 0.00507605 0
0.0800526 1 (0 0.5 0.117378 0.382622) 3796 15681 2 15681 0.989264 0 0 0 105733 1 -1 9.92635 5.41608e-05 0 (0.0490347 5.00678 0) 689.622 0.027218 0 (0 0 0) 288.534 2205.4 2.00683e-10 1(1) 8.33172e-05 (8.35841e-05 -0.295 5.42101e-20) 0.02082 0.000427021 0 0 0 0 0 0 1 0.00284692 0
0.0800526 1 (0 0.5 0.493792 0.00620823) 3677 15674 2 15674 0.979133 0 0 0 114918 1 -1 4.29954 7.30606e-05 0 (1.86222 20.4424 0) 687.416 0.0226341 0 (0 0 0) 291.177 2214.46 9.86178e-10 1(1) 0.00014165 (9.14178e-05 -0.295 0) 0.0205468 0.000414434 0 0 0 0 0 0 1 0.00240824 0
0.0800526 1 (0 0.43642 0.0635804 0.5) 2770 15701 1 15701 0.451127 0 0 0 133149 1 -1 3.01075 8.18415e-05 0 (8.02941 8.20388 0) 685.768 0.0135223 0 (0 0 0) 293.144 2221.3 2.76596e-10 1(1) 9.27213e-05 (4.83077e-05 -0.295 5.42101e-20) 0.0203439 0.000405496 0 0 0 0 0 0 1 0.00384042 0
0.0800526 1 (0 0.290404 0.209596 0.5) 2332 15726 1 15726 0.909139 0 0 0 136927 1 -1 1.50671 0.000102519 0 (11.486 6.52594 0) 683.367 0.0116409 0 (0 0 0) 295.999 2231.4 9.11888e-10 1(1) 0.000138 (3.91435e-05 -0.295 5.42101e-20) 0.0200503 0.00039313 0 0 0 0 0 0 1 0.00501953 0
0.0800526 1 (0 0.401024 0.098976 0.5) 1842 15712 1 15712 0.570256 0 0 0 138461 1 -1 0.967448 0.000119729 0 (12.1235 3.69865 0) 681.645 0.0108699 0 (0 0 0) 298.037 2238.73 8.79009e-10 1(1) 0.000136321 (8.5462e-06 -0.295 1.0842e-19) 0.0198411 0.000384714 0 0 0 0 0 0 1 0.00646617 0
0.0800526 1 (0 0.332035 0.167965 0.5) 2297 15725 1 15725 0.0512076 0 0 0 137355 1 -1 1.40665 0.000105158 0 (12.185 6.3149 0) 683.024 0.0114136 0 (0 0 0) 296.405 2232.85 1.12173e-09 1(1) 0.000147863 (3.90349e-05 -0.295 -5.42101e-20) 0.0200086 0.000391428 0 0 0 0 0 0 1 0.00510547 0
0.0800526 1 (0 0.5 0.440824 0.0591764) 1947 15715 2 15715 0.549608 0 0 0 139409 1 -1 0.877411 0.000122466 0 (14.4356 4.12722 0) 681.087 0.0103945 0 (0 0 0) 298.696 2241.12 9.08976e-10 1(1) 0.000137853 (1.92162e-05 -0.295 -5.42101e-20) 0.0197736 0.000382067 0 0 0 0 0 0 1 0.00607136 0
0.0800526 3 (0 0.403992 0.5 0.0960079) 2108 15598 2 15598 0.637198 0 0 0 118526 1 -1 4.71126 7.16338e-05 0 (-2.93079 21.3566 0) 687.579 0.0208271 0 (0 0 0) 290.983 2213.79 5.86038e-10 1(1) 0.000119089 (-8.57788e-07 -0.295 8.13152e-20) 0.0205669 0.000415338 0 0 0 0 0 0 1 0.00227831 0
0.0800526 3 (0 0.5 0.0923762 0.407624) 1163 15571 1 15571 0.87962 0 0 0 130903 1 -1 2.40753 8.88837e-05 0 (-10.6478 12.184 0) 685.376 0.0146503 0 (0 0 0) 293.612 2222.94 1.11025e-09 1(1) 0.000147357 (-8.40984e-05 -0.295 2.71051e-20) 0.0202958 0.000403423 0 0 0 0 0 0 1 0.00366398 0
0.0800526 3 (0 0.5 0.382732 0.117268) 953 15565 1 15565 0.907439 0 0 0 133868 1 -1 2.98047 8.07156e-05 0 (-9.08062 9.6801 0) 685.681 0.0131686 0 (0 0 0) 293.248 2221.67 3.68536e-10 1(1) 0.000102029 (-5.04704e-05 -0.295 1.0842e-19) 0.0203333 0.000405035 0 0 0 0 0 0 1 0.00351065 0
0.0800526 3 (0 0.435525 0.5 0.0644747) 560 15563 2 15563 0.937902 0 0 0 133728 1 -1 3.52745 7.69134e-05 0 (-6.59266 8.98767 0) 686.231 0.0132391 0 (0 0 0) 292.592 2219.37 2.31438e-10 1(1) 8.73727e-05 (-1.47661e-05 -0.295 8.13152e-20) 0.0204008 0.00040797 0 0 0 0 0 0 1 0.00354967 0
0.0800526 3 (0 0.192261 0.5 0.307739) 385 15558 2 15558 0.454959 0 0 0 116011 1 -1 3.71696 7.74136e-05 0 (-1.45964 6.25314 0) 688.181 0.0220801 0 (0 0 0) 290.263 2211.31 5.95141e-10 1(1) 0.000119703 (-7.13271e-06 -0.295 2.71051e-20) 0.0206413 0.000418713 0 0 0 0 0 0 1 0.00459105 0
0.0800658 0 (0 0.463696 0.5 0.036304) 2780 15720 2 15720 0.317462 0 0 0 134858 1 -1 2.37051 8.79347e-05 0 (-7.52106 6.20154 0) 685.073 0.0126808 0 (0 0 0) 293.972 2224.21 3.52132e-10 1(1) 0.000100492 (-4.76411e-06 -0.295 2.71051e-20) 0.0202587 0.000401836 0 0 0 0 0 0 1 0.00462599 0
0.0800658 0 (0 0.442378 0.5 0.0576215) 2780 15720 2 15720 0.406773 0 0 0 136520 1 -1 1.93525 9.28572e-05 0 (-10.976 5.88724 0) 684.169 0.0118491 0 (0 0 0) 295.046 2228.01 4.18226e-10 1(1) 0.000106423 (-3.38766e-05 -0.295 2.71051e-20) 0.0201482 0.00039718 0 0 0 0 0 0 1 0.00445691 0
0.0800658 0 (0 0.0603767 0.5 0.439623) 2745 15719 2 15719 0.291712 0 0 0 136580 1 -1 1.8824 9.52137e-05 0 (-11.4433 5.68923 0) 683.94 0.011817 0 (0 0 0) 295.318 2228.97 4.63602e-10 1(1) 0.00011014 (-3.66955e-05 -0.295 8.13152e-20) 0.0201202 0.000396016 0 0 0 0 0 0 1 0.00456527 0
0.0800658 0 (0 0.499095 0.5 0.000905343) 2605 15715 2 15715 0.377228 0 0 0 137968 1 -1 1.44131 0.000104795 0 (-13.2218 4.45948 0) 682.777 0.0111243 0 (0 0 0) 296.698 2233.9 9.43473e-10 1(1) 0.000139575 (-3.41264e-05 -0.295 2.71051e-20) 0.0199785 0.000390207 0 0 0 0 0 0 1 0.0050172 0
0.0800658 0 (0 0.356185 0.5 0.143815) 2360 15708 2 15708 0.0488477 0 0 0 138738 1 -1 1.11417 0.00011296 0 (-12.922 2.64828 0) 681.986 0.0107359 0 (0 0 0) 297.634 2237.27 7.28013e-10 1(1) 0.00012802 (-1.71433e-05 -0.295 8.13152e-20) 0.0198825 0.000386354 0 0 0 0 0 0 1 0.00584238 0
0.0800658 0 (0 0.5 0.363246 0.136754) 2500 15712 1 15712 0.465331 0 0 0 139081 1 -1 1.10708 0.00011317 0 (-14.4656 3.37326 0) 681.778 0.010572 0 (0 0 0) 297.88 2238.16 9.66676e-10 1(1) 0.00014071 (-2.80721e-05 -0.295 1.6263e-19) 0.0198572 0.000385354 0 0 0 0 0 0 1 0.00538869 0
0.0800658 0 (0 0.134075 0.5 0.365925) 2465 15711 2 15711 0.845115 0 0 0 139731 1 -1 0.859146 0.00012328 0 (-16.3628 2.78023 0) 680.806 0.0102514 0 (0 0 0) 299.028 2242.32 1.09344e-09 1(1) 0.00014661 (-3.24272e-05 -0.295 5.42101e-20) 0.0197396 0.000380744 0 0 0 0 0 0 1 0.00578092 0
0.0800658 0 (0 0.5 0.280198 0.219802) 2430 15710 1 15710 0.134202 0 0 0 140050 1 -1 0.83303 0.000124488 0 (-16.1139 2.45742 0) 680.593 0.0100818 0 (0 0 0) 299.279 2243.24 1.12458e-09 1(1) 0.000147989 (-2.46451e-05 -0.295 5.42101e-20) 0.0197139 0.000379749 0 0 0 0 0 0 1 0.00595289 0
0.0800658 1 (0 0.5 0.14261 0.35739) 3263 15650 2 15650 0.886936 0 0 0 120605 1 -1 10.1609 5.38657e-05 0 (1.9658 12.5691 0) 688.875 0.0198087 0 (0 0 0) 289.43 2208.46 8.05319e-11 1(1) 6.14545e-05 (6.03401e-05 -0.295 5.42101e-20) 0.0207273 0.000422676 0 0 0 0 0 0 1 0.00190829 0
0.0800658 1 (0 0.5 0.47676 0.0232399) 2402 15728 2 15728 0.418826 0 0 0 136669 1 -1 1.59531 0.000100803 0 (11.2751 6.74009 0) 683.572 0.0117742 0 (0 0 0) 295.755 2230.53 8.09894e-10 1(1) 0.00013265 (4.09569e-05 -0.295 5.42101e-20) 0.0200753 0.000394161 0 0 0 0 0 0 1 0.00490679 0
0.0800658 1 (0 0.5 0.0485941 0.451406) 2227 15723 2 15723 0.326847 0 0 0 137475 1 -1 1.43111 0.000104764 0 (11.4676 6.0679 0) 683.072 0.0113704 0 (0 0 0) 296.348 2232.65 7.99663e-10 1(1) 0.000132089 (3.11857e-05 -0.295 -5.42101e-20) 0.0200144 0.000391663 0 0 0 0 0 0 1 0.00522341 0
0.0800658 3 (0 0.187626 0.5 0.312374) 1793 15589 2 15589 0.221947 0 0 3 326 1 -1 24.2667 7.11795e-05 0 (-0.0779788 5.63347 0) 689.682 0.0259619 0 (0 0 0) 288.463 2205.16 1.35923e-10 1(1) 7.23465e-05 (-0.11992 0.0783891 -5.42101e-20) 0.0208274 0.000427369 0 0 0 0 0 0 1 0.00422175 0
0.0800658 3 (0 0.437283 0.5 0.0627172) 1828 15590 2 15590 0.360872 0 0 0 91808 1 -1 4.80567 6.97327e-05 0 (-0.283616 10.4442 0) 689.811 0.0341757 0 (0 0 0) 288.308 2204.64 3.55646e-10 1(1) 0.000100825 (-5.61216e-06 -0.295 1.35525e-19) 0.0208435 0.00042813 0 0 0 0 0 0 1 0.003128 0
0.0800658 3 (0 0.282992 0.5 0.217008) 1233 15573 2 15573 0.923986 0 0 0 125450 1 -1 4.94297 6.85904e-05 0 (-5.31482 11.9105 0) 687.434 0.0173879 0 (0 0 0) 291.156 2214.38 6.53459e-10 1(1) 0.000123491 (-7.6057e-05 -0.295 5.42101e-20) 0.020549 0.000414534 0 0 0 0 0 0 1 0.00266092 0
0.0800658 3 (0 0.304789 0.5 0.195211) 1128 15570 2 15570 0.46452 0 0 0 125128 1 -1 3.49169 7.93094e-05 0 (-6.50142 11.1297 0) 686.868 0.0175423 0 (0 0 0) 291.833 2216.73 9.77019e-10 1(1) 0.00014121 (-8.52313e-05 -0.295 -2.71051e-20) 0.0204792 0.000411418 0 0 0 0 0 0 1 0.00346734 0
0.0800658 3 (0 0.345408 0.5 0.154592) 1163 15571 2 15571 0.2553 0 0 0 131724 1 -1 4.48454 7.14299e-05 0 (-8.18333 12.5602 0) 686.748 0.0142441 0 (0 0 0) 291.975 2217.22 1.97536e-10 1(1) 8.28794e-05 (-6.41757e-05 -0.295 8.13152e-20) 0.0204645 0.000410767 0 0 0 0 0 0 1 0.0027483 0
0.0800658 3 (0 0.5 0.347002 0.152998) 490 15561 1 15561 0.0409432 0 0 0 134153 1 -1 3.25891 7.85851e-05 0 (-7.00689 8.4972 0) 685.994 0.0130276 0 (0 0 0) 292.875 2220.36 2.44076e-10 1(1) 8.8935e-05 (-1.46144e-05 -0.295 8.13152e-20) 0.0203717 0.0004067 0 0 0 0 0 0 1 0.00368651 0
0.0800658 3 (0 0.446191 0.5 0.053809) 420 15559 2 15559 0.469768 0 0 0 134927 1 -1 2.4707 8.68247e-05 0 (-10.3558 8.2319 0) 684.942 0.0126463 0 (0 0 0) 294.128 2224.76 7.38993e-10 1(1) 0.00012866 (-4.87558e-05 -0.295 1.0842e-19) 0.0202427 0.000401157 0 0 0 0 0 0 1 0.00391846 0