/*--------------------------------*- C++ -*----------------------------------*\
  =========                 |
  \\      /  F ield         | OpenFOAM: The Open Source CFD Toolbox
   \\    /   O peration     | Website:  https://openfoam.org
    \\  /    A nd           | Version:  8
     \\/     M anipulation  |
\*---------------------------------------------------------------------------*/
FoamFile
{
    version     2.0;
    format      ascii;
    class       volScalarField;
    location    "0.32";
    object      k;
}
// * * * * * * * * * * * * * * * * * * * * * * * * * * * * * * * * * * * * * //

dimensions      [0 2 -2 0 0 0 0];

internalField   nonuniform List<scalar> 
15677
(
0.334155
0.365025
0.294767
0.368727
0.357709
0.281052
0.37069
0.360089
0.36616
0.282781
0.371882
0.361639
0.361494
0.383378
0.28891
0.372609
0.363747
0.357755
0.368377
0.401746
0.300323
0.373037
0.365665
0.357861
0.358185
0.380175
0.419433
0.31183
0.373262
0.367183
0.359471
0.354614
0.361083
0.393364
0.434826
0.322625
0.373347
0.368307
0.361364
0.354793
0.353093
0.366951
0.406242
0.447924
0.332102
0.373348
0.369084
0.36307
0.356356
0.351146
0.353534
0.373616
0.418341
0.458752
0.340469
0.373313
0.369569
0.364444
0.358231
0.351948
0.348814
0.354822
0.380752
0.429154
0.467873
0.347523
0.373274
0.369826
0.365463
0.359968
0.353728
0.348402
0.347172
0.357153
0.387711
0.438858
0.47535
0.353721
0.373249
0.369927
0.366148
0.3614
0.355671
0.349778
0.345371
0.346347
0.359743
0.394488
0.447247
0.481738
0.358874
0.37324
0.369942
0.366548
0.362479
0.357428
0.35173
0.346215
0.342941
0.345906
0.36264
0.400717
0.454685
0.487
0.363508
0.37324
0.369924
0.366736
0.36321
0.358858
0.353687
0.348075
0.343101
0.340868
0.345918
0.365497
0.406562
0.460991
0.491529
0.367536
0.373241
0.369909
0.366794
0.363635
0.359913
0.355392
0.350156
0.344754
0.34029
0.339197
0.346047
0.368392
0.411717
0.466559
0.495275
0.371109
0.373241
0.3699
0.366795
0.363833
0.360604
0.356737
0.352083
0.346881
0.341692
0.337816
0.337737
0.346373
0.371058
0.416465
0.471175
0.498587
0.374369
0.373241
0.369896
0.366785
0.36389
0.360985
0.357689
0.353682
0.348975
0.343823
0.338916
0.335567
0.336522
0.346758
0.373662
0.420487
0.475229
0.501432
0.377154
0.373241
0.369893
0.366777
0.363897
0.361134
0.358275
0.35488
0.350792
0.346049
0.341008
0.336357
0.333576
0.335437
0.347265
0.375913
0.424103
0.478553
0.503945
0.379966
0.373241
0.369892
0.366771
0.363891
0.361178
0.358544
0.355671
0.352216
0.348057
0.343332
0.338396
0.334047
0.331751
0.33456
0.347688
0.378017
0.427043
0.481458
0.506266
0.382162
0.373241
0.36989
0.366767
0.363883
0.361183
0.358648
0.35607
0.353213
0.349686
0.345503
0.340805
0.336019
0.33192
0.330166
0.333751
0.348154
0.379725
0.429645
0.483828
0.508254
0.384779
0.373241
0.369889
0.366765
0.363877
0.361177
0.358679
0.356244
0.353758
0.350873
0.347323
0.343129
0.338494
0.333836
0.330042
0.328725
0.333103
0.348499
0.381266
0.43164
0.485889
0.51034
0.386526
0.373241
0.369888
0.366763
0.363872
0.36117
0.358681
0.356309
0.35402
0.351555
0.3487
0.345127
0.340952
0.336388
0.331907
0.328351
0.327516
0.332504
0.348836
0.382418
0.433421
0.487581
0.511991
0.389121
0.373241
0.369887
0.366762
0.363868
0.361164
0.358673
0.356325
0.354133
0.3519
0.349533
0.346675
0.343115
0.338993
0.334534
0.330191
0.326932
0.326452
0.33205
0.349079
0.383453
0.434645
0.489084
0.514098
0.390556
0.373241
0.369887
0.366761
0.363865
0.361159
0.358664
0.356322
0.354171
0.352062
0.349983
0.347636
0.344842
0.341334
0.337271
0.332915
0.328778
0.325736
0.325664
0.331683
0.349293
0.384123
0.435833
0.490296
0.515495
0.39315
0.373241
0.369887
0.366761
0.363862
0.361155
0.358655
0.356314
0.354175
0.352126
0.35021
0.348168
0.345963
0.34323
0.339765
0.335827
0.331642
0.327652
0.324868
0.325026
0.331434
0.349477
0.384781
0.436492
0.491576
0.518002
0.394535
0.373241
0.369886
0.36676
0.363861
0.361152
0.358648
0.356305
0.354166
0.352142
0.350307
0.348447
0.346616
0.344463
0.341837
0.338551
0.334738
0.330649
0.326845
0.324241
0.324768
0.331453
0.349717
0.385152
0.437328
0.492398
0.519639
0.504666
0.373241
0.369886
0.36676
0.363859
0.36115
0.358643
0.356297
0.354153
0.352138
0.350337
0.348577
0.346976
0.345186
0.343263
0.340833
0.337595
0.333931
0.330126
0.326572
0.324221
0.324852
0.331588
0.349954
0.385575
0.4377
0.494264
0.528313
0.712505
0.373241
0.369886
0.36676
0.363858
0.361148
0.358638
0.35629
0.35414
0.352126
0.350333
0.348626
0.347149
0.345593
0.344145
0.342347
0.340031
0.337186
0.333863
0.330211
0.326743
0.324444
0.325161
0.331915
0.350303
0.385892
0.438506
0.494776
0.545093
0.890441
0.373241
0.369886
0.366759
0.363857
0.361146
0.358635
0.356284
0.354129
0.352113
0.350317
0.348634
0.347215
0.345805
0.344663
0.343267
0.341844
0.340037
0.337351
0.334157
0.330645
0.327288
0.325044
0.32582
0.332559
0.350805
0.386271
0.439066
0.494488
0.558053
1.03505
0.373241
0.369886
0.366759
0.363857
0.361145
0.358632
0.35628
0.35412
0.3521
0.350297
0.348622
0.347224
0.3459
0.344927
0.343815
0.343019
0.341982
0.340374
0.337939
0.334957
0.331627
0.328422
0.326221
0.326983
0.333552
0.351485
0.386887
0.438803
0.493003
0.567781
1.16123
0.373241
0.369886
0.366759
0.363856
0.361144
0.35863
0.356276
0.354113
0.35209
0.350279
0.348603
0.347206
0.345929
0.345038
0.344133
0.343749
0.343244
0.342527
0.34126
0.339191
0.336541
0.333451
0.33029
0.328038
0.328605
0.334929
0.352475
0.387367
0.437903
0.489879
0.574508
1.26453
0.373241
0.369886
0.366759
0.363856
0.361143
0.358628
0.356273
0.354107
0.352081
0.350264
0.348583
0.347179
0.345922
0.345065
0.344301
0.344155
0.344039
0.343941
0.343708
0.343008
0.341388
0.339036
0.336073
0.332911
0.330478
0.330764
0.336725
0.353694
0.387824
0.436042
0.484538
0.578947
1.34153
0.373241
0.369886
0.366759
0.363855
0.361142
0.358626
0.35627
0.354102
0.352073
0.350251
0.348565
0.347153
0.345898
0.345051
0.344367
0.344352
0.344505
0.344853
0.345374
0.34588
0.34576
0.344562
0.342474
0.339605
0.336321
0.333631
0.333469
0.338979
0.355185
0.3879
0.432932
0.477841
0.581822
1.40086
0.373241
0.369886
0.366758
0.363855
0.361141
0.358625
0.356268
0.354098
0.352066
0.35024
0.348549
0.347128
0.34587
0.34502
0.344375
0.344435
0.344752
0.345412
0.346486
0.347842
0.349089
0.34961
0.348835
0.346984
0.344103
0.340626
0.337509
0.336781
0.341672
0.356834
0.387779
0.428783
0.471195
0.584226
1.44854
0.369886
0.373245
0.366758
0.363855
0.361141
0.358624
0.356266
0.354095
0.352061
0.350231
0.348536
0.347107
0.345844
0.344985
0.344354
0.344454
0.344868
0.345733
0.347202
0.34919
0.351424
0.353513
0.35471
0.354352
0.35265
0.349688
0.345844
0.34219
0.340677
0.344823
0.358962
0.387408
0.424576
0.464918
0.586618
1.48845
0.366758
0.369896
0.373252
0.363855
0.36114
0.358623
0.356264
0.354092
0.352056
0.350223
0.348524
0.347089
0.34582
0.344952
0.344323
0.344439
0.34491
0.345904
0.347647
0.350095
0.353078
0.356319
0.359329
0.361231
0.361224
0.359607
0.356389
0.352071
0.347644
0.345174
0.348717
0.361565
0.38704
0.420463
0.459337
0.589384
1.52318
0.363854
0.366775
0.369917
0.37326
0.36114
0.358622
0.356263
0.354089
0.352052
0.350216
0.348514
0.347074
0.345799
0.344923
0.344291
0.344412
0.344913
0.345988
0.347916
0.350696
0.35424
0.358371
0.36273
0.366734
0.369315
0.369606
0.367902
0.364322
0.359272
0.353908
0.350852
0.353546
0.364546
0.386569
0.416666
0.454383
0.592409
1.55425
0.36114
0.363876
0.366808
0.369939
0.373268
0.358621
0.356261
0.354087
0.352048
0.350211
0.348505
0.347061
0.345781
0.344897
0.344261
0.344384
0.344899
0.346025
0.348079
0.3511
0.355064
0.35988
0.3653
0.370883
0.375901
0.379141
0.379568
0.37767
0.373451
0.367505
0.361735
0.358017
0.35889
0.367718
0.386576
0.41326
0.450228
0.595934
1.58273
0.358621
0.361167
0.363921
0.366843
0.369961
0.373276
0.35626
0.354085
0.352045
0.350206
0.348498
0.34705
0.345765
0.344875
0.344235
0.344357
0.344881
0.346039
0.34818
0.351384
0.355668
0.361015
0.367272
0.37412
0.380983
0.387038
0.390808
0.391269
0.388881
0.383858
0.377754
0.371551
0.365981
0.364701
0.371304
0.386782
0.410261
0.446618
0.599575
1.60912
0.356259
0.358652
0.361222
0.363967
0.366878
0.369984
0.373284
0.354083
0.352043
0.350201
0.348491
0.34704
0.345751
0.344855
0.344212
0.344333
0.344863
0.346045
0.348249
0.351593
0.356141
0.361911
0.368842
0.37671
0.385073
0.393274
0.400278
0.404499
0.404682
0.401648
0.396787
0.390563
0.382427
0.374672
0.37091
0.375042
0.387277
0.407721
0.443578
0.603637
1.63394
0.354082
0.356295
0.358717
0.361279
0.364015
0.366915
0.370007
0.373292
0.35204
0.350197
0.348485
0.347032
0.345739
0.344839
0.344193
0.344313
0.344847
0.346049
0.348302
0.351757
0.356526
0.362668
0.370159
0.378875
0.388481
0.398453
0.407928
0.415838
0.420207
0.419954
0.417492
0.412926
0.404721
0.394263
0.38399
0.377539
0.378906
0.388203
0.405724
0.440989
0.607608
1.65725
0.352038
0.35412
0.356368
0.358783
0.361337
0.364063
0.366952
0.370031
0.373301
0.350194
0.348481
0.347025
0.345728
0.344825
0.344176
0.344295
0.344834
0.346052
0.348348
0.351897
0.35685
0.363324
0.371335
0.380786
0.391453
0.402927
0.414481
0.425226
0.433749
0.438122
0.438908
0.437263
0.430743
0.420099
0.406933
0.393847
0.384526
0.382922
0.389405
0.404062
0.438855
0.61192
1.67938
0.350191
0.35208
0.3542
0.356443
0.358851
0.361397
0.364113
0.366991
0.370055
0.37331
0.348476
0.347018
0.345719
0.344813
0.344162
0.34428
0.344823
0.346056
0.348389
0.352021
0.357134
0.363897
0.372402
0.382568
0.394187
0.406983
0.420333
0.433503
0.445241
0.45428
0.460414
0.4626
0.459082
0.450065
0.436527
0.420307
0.404156
0.391789
0.3871
0.39089
0.402918
0.437087
0.615969
1.70021
0.348473
0.350233
0.352165
0.354282
0.35652
0.358921
0.361459
0.364165
0.36703
0.370081
0.373319
0.347012
0.345711
0.344803
0.344149
0.344267
0.344815
0.346061
0.348428
0.352134
0.357392
0.364413
0.373362
0.384239
0.39683
0.41085
0.425822
0.441128
0.455641
0.46832
0.479971
0.488426
0.488804
0.482754
0.470683
0.453834
0.434252
0.414815
0.399264
0.39139
0.392485
0.402065
0.435669
0.620306
1.72005
0.347008
0.348516
0.350322
0.352254
0.354366
0.3566
0.358993
0.361523
0.364217
0.367071
0.370106
0.373328
0.345704
0.344795
0.344138
0.344256
0.344807
0.346067
0.348464
0.352239
0.357627
0.364885
0.37424
0.385775
0.399374
0.414701
0.431218
0.448505
0.465507
0.481366
0.497368
0.512489
0.519635
0.517357
0.508046
0.492387
0.47184
0.448626
0.425726
0.406879
0.395827
0.394157
0.401601
0.434531
0.62426
1.73867
0.345698
0.347048
0.348606
0.350414
0.352345
0.354453
0.356681
0.359067
0.361588
0.364271
0.367112
0.370133
0.373338
0.344788
0.344127
0.344246
0.344801
0.346073
0.348498
0.352335
0.357844
0.365319
0.375051
0.387197
0.401758
0.418497
0.436728
0.455964
0.475328
0.494096
0.513985
0.534467
0.548995
0.553857
0.548026
0.534731
0.514963
0.490366
0.463294
0.436791
0.414577
0.400355
0.395936
0.401287
0.433641
0.628472
1.75644
0.344782
0.345733
0.347135
0.3487
0.350508
0.352439
0.354542
0.356766
0.359143
0.361655
0.364327
0.367155
0.37016
0.373347
0.344117
0.344238
0.344797
0.346079
0.34853
0.352424
0.358042
0.365719
0.3758
0.388522
0.403996
0.422109
0.442265
0.463768
0.485515
0.507118
0.530672
0.556116
0.576548
0.589391
0.590856
0.580557
0.562584
0.538205
0.509238
0.478123
0.447918
0.422301
0.404936
0.397775
0.401299
0.432968
0.632222
1.77301
0.344108
0.34481
0.345811
0.347225
0.348796
0.350606
0.352536
0.354634
0.356852
0.359221
0.361724
0.364384
0.367199
0.370187
0.373356
0.34423
0.344793
0.346085
0.348559
0.352505
0.358224
0.366087
0.376492
0.389754
0.406098
0.425534
0.447618
0.47178
0.496399
0.520955
0.548223
0.578568
0.604528
0.623668
0.633531
0.630397
0.614675
0.591361
0.561903
0.528293
0.49299
0.459024
0.429997
0.409529
0.399685
0.40139
0.432467
0.636218
1.78885
0.344226
0.344113
0.344874
0.345891
0.347318
0.348897
0.350707
0.352636
0.354728
0.356941
0.359301
0.361795
0.364442
0.367242
0.370213
0.373365
0.344788
0.34609
0.348586
0.35258
0.358391
0.366425
0.377129
0.390898
0.408067
0.428777
0.452762
0.479653
0.507756
0.536071
0.56738
0.602951
0.634502
0.659594
0.675909
0.681314
0.672255
0.650119
0.620825
0.585879
0.547386
0.507788
0.470033
0.437618
0.414102
0.401628
0.401577
0.432158
0.639707
1.80353
0.344787
0.344213
0.344129
0.344939
0.345976
0.347415
0.349002
0.35081
0.352739
0.354826
0.357033
0.359383
0.361867
0.3645
0.367284
0.370239
0.373374
0.346095
0.34861
0.352648
0.358543
0.366734
0.377715
0.391957
0.409904
0.431836
0.457689
0.487301
0.519052
0.552219
0.588863
0.630392
0.668168
0.699509
0.721959
0.733556
0.732729
0.716241
0.686646
0.650745
0.609959
0.566388
0.522424
0.480882
0.445122
0.418627
0.403607
0.401875
0.431959
0.643436
1.81758
0.346103
0.344745
0.344187
0.344146
0.345007
0.346067
0.347515
0.349111
0.350917
0.352846
0.354926
0.357127
0.359467
0.361939
0.364556
0.367325
0.370263
0.373382
0.34863
0.352709
0.358682
0.367016
0.378252
0.392933
0.411611
0.43471
0.46238
0.494683
0.530177
0.568698
0.612347
0.662057
0.707494
0.746355
0.77552
0.792837
0.797158
0.787868
0.762211
0.724047
0.680926
0.63399
0.585188
0.536817
0.491515
0.452472
0.423078
0.405608
0.402221
0.431894
0.646633
1.83052
0.348655
0.346017
0.344649
0.344155
0.34418
0.345078
0.346165
0.347619
0.349224
0.351027
0.352955
0.355029
0.357223
0.359551
0.362008
0.364611
0.367365
0.370287
0.37339
0.352763
0.358807
0.367274
0.378744
0.393833
0.413192
0.437399
0.466821
0.501765
0.541094
0.585297
0.636634
0.697756
0.755138
0.804276
0.842069
0.86557
0.873864
0.867381
0.846858
0.810044
0.76214
0.711195
0.657833
0.60369
0.550901
0.501886
0.459639
0.427437
0.407608
0.402634
0.431917
0.650076
1.84294
0.352822
0.348495
0.345811
0.344544
0.344118
0.344232
0.34515
0.346268
0.347726
0.349341
0.35114
0.353068
0.355134
0.357319
0.359632
0.362076
0.364664
0.367403
0.370311
0.373398
0.358919
0.367506
0.379193
0.394658
0.414654
0.439904
0.471004
0.508527
0.55175
0.60183
0.661299
0.736375
0.812657
0.879373
0.929454
0.960908
0.972711
0.966433
0.944698
0.909728
0.859598
0.800752
0.7414
0.681375
0.621817
0.564621
0.511958
0.466597
0.431685
0.409595
0.403071
0.431992
0.652982
1.8529
0.359034
0.352574
0.348103
0.345593
0.34445
0.344082
0.344296
0.345225
0.346378
0.347837
0.349461
0.351257
0.353184
0.355238
0.357412
0.359711
0.362142
0.364715
0.367441
0.370333
0.373406
0.367717
0.3796
0.395414
0.416001
0.442231
0.474928
0.514953
0.562075
0.618105
0.686285
0.778306
0.879645
0.975379
1.04745
1.09025
1.10638
1.09834
1.07092
1.02905
0.976283
0.910665
0.839702
0.771406
0.704512
0.639503
0.577937
0.521704
0.473328
0.43581
0.411551
0.403556
0.4321
0.655699
1.86129
0.367926
0.35867
0.351933
0.347693
0.345393
0.344366
0.344051
0.344371
0.345305
0.346492
0.347952
0.349586
0.351377
0.353298
0.35534
0.357502
0.359788
0.362206
0.364766
0.367477
0.370355
0.373414
0.379973
0.396102
0.417238
0.444387
0.478598
0.521034
0.572004
0.633999
0.711742
0.824051
0.955935
1.08889
1.19821
1.26421
1.28757
1.27773
1.24132
1.18632
1.11972
1.04604
0.962943
0.8788
0.801086
0.72716
0.656696
0.590815
0.531103
0.479816
0.439799
0.413472
0.404041
0.432281
0.65777
1.87036
0.38033
0.367411
0.357673
0.351265
0.347309
0.345212
0.34429
0.344029
0.344452
0.345389
0.346612
0.348072
0.349714
0.351498
0.35341
0.35544
0.357589
0.359863
0.362268
0.364814
0.367512
0.370377
0.373421
0.396736
0.418373
0.446378
0.48202
0.526763
0.581492
0.649471
0.737838
0.873426
1.0398
1.21499
1.37023
1.47901
1.52462
1.51609
1.47049
1.39837
1.31046
1.21539
1.11827
1.01605
0.917837
0.83032
0.749246
0.673353
0.603231
0.540137
0.486051
0.443645
0.415342
0.404493
0.43239
0.66024
1.88025
0.39733
0.379627
0.365917
0.356641
0.350633
0.346952
0.345043
0.344223
0.344016
0.34454
0.345481
0.346735
0.348197
0.34984
0.351615
0.353518
0.355537
0.357675
0.359936
0.362328
0.364862
0.367546
0.370398
0.373424
0.419422
0.448216
0.485201
0.532139
0.590521
0.664532
0.764595
0.925538
1.12827
1.34784
1.55301
1.71415
1.80683
1.81869
1.76769
1.67851
1.56517
1.44057
1.31441
1.19205
1.06953
0.956592
0.858994
0.770712
0.689439
0.615166
0.5488
0.492029
0.447341
0.41692
0.404877
0.432625
0.662697
1.891
0.420385
0.396396
0.377437
0.364377
0.355661
0.350037
0.346617
0.344886
0.344166
0.344015
0.344631
0.345581
0.346862
0.348323
0.349964
0.35173
0.353623
0.355631
0.357757
0.360007
0.362387
0.364908
0.36758
0.370408
0.373424
0.449925
0.488154
0.537168
0.59909
0.679198
0.79185
0.979137
1.21833
1.48212
1.73824
1.9557
2.10667
2.16936
2.13612
2.03417
1.89562
1.73736
1.57376
1.41503
1.26643
1.12291
0.99484
0.887005
0.791505
0.704928
0.626611
0.557085
0.497742
0.450416
0.41828
0.405343
0.432812
0.66568
1.90279
0.451467
0.419169
0.393242
0.375198
0.362913
0.354727
0.349467
0.346301
0.344742
0.34412
0.344025
0.344726
0.345689
0.346987
0.348447
0.350084
0.351842
0.353725
0.355723
0.357838
0.360076
0.362444
0.364953
0.367596
0.370408
0.373424
0.490914
0.541869
0.607214
0.69347
0.81932
1.03298
1.30751
1.61393
1.9199
2.1945
2.40838
2.53522
2.55587
2.468
2.30845
2.11648
1.91111
1.70745
1.51564
1.34048
1.17572
1.03237
0.914255
0.811583
0.719805
0.63756
0.564991
0.502474
0.453049
0.419799
0.405853
0.433182
0.66863
1.9156
0.493364
0.449901
0.414682
0.390047
0.373067
0.361512
0.35383
0.348922
0.346006
0.344611
0.344086
0.344052
0.34482
0.345802
0.347109
0.34857
0.3502
0.351952
0.353825
0.355812
0.357916
0.360143
0.362499
0.364975
0.367596
0.370408
0.373424
0.546285
0.614926
0.707343
0.846681
1.08603
1.39409
1.74076
2.09424
2.42448
2.70223
2.8989
2.98932
2.95744
2.80699
2.58482
2.33678
2.08332
1.83951
1.61484
1.41337
1.22755
1.06899
0.940657
0.830914
0.734057
0.64801
0.571528
0.506513
0.45596
0.421493
0.406483
0.433485
0.672231
1.9297
0.550164
0.491371
0.443567
0.410179
0.387004
0.371022
0.360161
0.352966
0.348398
0.345734
0.344491
0.344059
0.344106
0.344912
0.345918
0.347228
0.34869
0.350314
0.352058
0.353922
0.355899
0.357992
0.360208
0.362526
0.364975
0.367596
0.370408
0.373424
0.622276
0.720818
0.873647
1.1375
1.47695
1.86118
2.25912
2.64203
2.9818
3.24967
3.41708
3.46013
3.3666
3.14714
2.85874
2.55324
2.25162
1.96826
1.71154
1.48444
1.27803
1.10451
0.966141
0.849473
0.74768
0.656654
0.577101
0.510962
0.459182
0.423397
0.407171
0.434038
0.675791
1.945
0.628748
0.547614
0.482448
0.437276
0.40589
0.384078
0.369044
0.358853
0.352134
0.347895
0.345481
0.344382
0.344024
0.344178
0.345001
0.346035
0.347344
0.348809
0.350425
0.352163
0.354016
0.355984
0.358066
0.360241
0.362527
0.364975
0.367596
0.370408
0.373424
0.733885
0.899979
1.18686
1.55543
1.97443
2.41353
2.84528
3.24331
3.58019
3.82667
3.95395
3.93984
3.77695
3.48356
3.12671
2.76338
2.41429
2.09251
1.8049
1.55313
1.32686
1.13882
0.990651
0.867242
0.75896
0.664026
0.583235
0.515871
0.462757
0.425527
0.408033
0.434505
0.680167
1.96186
0.745452
0.625518
0.534915
0.473694
0.431286
0.40176
0.381242
0.367127
0.357591
0.351334
0.347419
0.345247
0.344287
0.343994
0.344259
0.345089
0.346151
0.347458
0.348924
0.350533
0.352264
0.354108
0.356066
0.358103
0.360241
0.362527
0.364975
0.367596
0.370408
0.373421
0.925464
1.23377
1.62922
2.0802
2.55708
3.03349
3.48484
3.886
4.20918
4.42398
4.50128
4.42145
4.18298
3.8123
3.38608
2.96544
2.57013
2.21144
1.89435
1.61907
1.37381
1.17178
1.01414
0.881975
0.768586
0.672141
0.589995
0.521295
0.46673
0.427936
0.40897
0.435314
0.684517
1.98009
0.741495
0.947876
0.606655
0.522723
0.465357
0.425509
0.39775
0.378487
0.36527
0.356375
0.35057
0.346971
0.345036
0.344205
0.343975
0.344346
0.345179
0.346266
0.34757
0.349037
0.350638
0.352363
0.354197
0.356107
0.358103
0.360241
0.362527
0.364975
0.367596
0.370398
0.373413
1.27797
1.69818
2.17849
2.68979
3.20659
3.70585
4.16494
4.55902
4.85907
5.03292
5.05143
4.89865
4.58001
4.13025
3.63489
3.15822
2.7184
2.32451
1.97949
1.682
1.41873
1.20334
1.03363
0.894558
0.779191
0.681088
0.597456
0.527299
0.471157
0.430641
0.410157
0.435924
0.689875
2.00023
0.711791
0.943969
1.31607
0.589113
0.511157
0.457307
0.419897
0.393852
0.375817
0.363478
0.355207
0.349843
0.346558
0.344852
0.344139
0.343968
0.344433
0.345269
0.346379
0.34768
0.349148
0.350741
0.352459
0.354241
0.356108
0.358103
0.360241
0.362527
0.364975
0.36758
0.370377
0.373406
1.76227
2.26945
2.81198
3.36498
3.90663
4.41658
4.87351
5.252
5.52072
5.64528
5.59729
5.36583
4.96411
4.43498
3.87177
3.341
2.85866
2.43143
2.06014
1.74176
1.4615
1.22945
1.05027
0.908428
0.790888
0.690967
0.605706
0.533957
0.476096
0.433721
0.411443
0.436973
0.695246
2.02189
0.684513
0.89666
1.31243
1.81692
0.572756
0.49998
0.449483
0.414438
0.39007
0.373235
0.361753
0.354091
0.349161
0.346188
0.344692
0.344089
0.343973
0.34452
0.345362
0.346489
0.347788
0.349255
0.350842
0.352507
0.354241
0.356108
0.358103
0.360241
0.362527
0.364952
0.367546
0.370355
0.373398
2.35324
2.92414
3.50941
4.08808
4.64173
5.15238
5.59934
5.95532
6.1855
6.25328
6.13229
5.81809
5.33214
4.72474
4.09587
3.51336
2.99073
2.53213
2.1362
1.79827
1.49673
1.25172
1.06861
0.923737
0.803809
0.701891
0.614842
0.541354
0.481625
0.437194
0.413081
0.43778
0.701856
2.04588
0.659474
0.851932
1.24381
1.81454
2.42404
0.557116
0.489101
0.441873
0.409138
0.38641
0.370747
0.3601
0.353037
0.348541
0.345864
0.344556
0.344053
0.343991
0.344606
0.345456
0.346597
0.347895
0.349361
0.350892
0.352507
0.354241
0.356108
0.358103
0.360241
0.362499
0.364907
0.367511
0.370333
0.37339
3.02669
3.64078
4.25152
4.84198
5.39705
5.90089
6.33218
6.66008
6.84529
6.84965
6.65055
6.25132
5.68168
4.99837
4.30673
3.67518
3.11461
2.62663
2.2077
1.84451
1.52667
1.27621
1.08884
0.940653
0.818103
0.713991
0.624979
0.549588
0.48782
0.441178
0.414862
0.439176
0.70856
2.07146
0.636033
0.81005
1.17627
1.7271
2.42384
3.11266
0.54199
0.478515
0.43449
0.404008
0.38288
0.368357
0.358532
0.35207
0.347988
0.34558
0.344441
0.344028
0.344023
0.344688
0.345552
0.346702
0.348001
0.349413
0.350891
0.352507
0.354241
0.356108
0.358103
0.360208
0.362443
0.364861
0.367476
0.37031
0.373382
3.75987
4.3985
5.01951
5.61013
6.15893
6.65113
7.06296
7.35811
7.49243
7.42764
7.1469
6.66225
6.01106
5.25522
4.50421
3.82656
3.23048
2.71507
2.26589
1.88362
1.55945
1.30315
1.11118
0.959366
0.833938
0.727417
0.63625
0.558775
0.494793
0.445691
0.417139
0.440301
0.716791
2.09987
0.613849
0.770623
1.11033
1.6393
2.32009
3.11519
3.85851
0.527323
0.468242
0.427348
0.399058
0.379487
0.366087
0.357089
0.351202
0.347493
0.345336
0.344344
0.344008
0.344072
0.344767
0.345649
0.346809
0.348053
0.349412
0.350891
0.352508
0.354241
0.356108
0.358066
0.360142
0.362386
0.364813
0.367439
0.370287
0.373374
4.53027
5.17675
5.79495
6.37733
6.91534
7.39369
7.78365
8.04183
8.1197
7.98111
7.61702
7.04847
6.31926
5.49504
4.68844
3.96777
3.33858
2.78676
2.31494
1.92625
1.59535
1.3328
1.13584
0.98009
0.851505
0.74234
0.648805
0.56905
0.502648
0.450912
0.419636
0.442206
0.725248
2.12978
0.592769
0.733525
1.04579
1.55159
2.21493
2.9971
3.86304
4.63736
0.513115
0.458308
0.420463
0.394301
0.376264
0.363996
0.35579
0.350421
0.347049
0.345125
0.344261
0.343984
0.344131
0.344846
0.345751
0.34686
0.348052
0.349413
0.350891
0.352508
0.354242
0.356067
0.357992
0.360075
0.362327
0.364764
0.367402
0.370263
0.373365
5.31561
5.9551
6.56099
7.13032
7.65643
8.12082
8.48712
8.70407
8.72032
8.5047
8.05761
7.40841
6.60582
5.71797
4.85978
4.09914
3.42595
2.84704
2.36821
1.97271
1.63465
1.36542
1.16309
1.00306
0.87102
0.758956
0.662823
0.58057
0.511542
0.45686
0.422832
0.44385
0.735605
2.16885
0.572708
0.698795
0.982765
1.46356
2.10878
2.87721
3.73195
4.64163
5.42517
0.499388
0.448743
0.413853
0.389783
0.373292
0.362109
0.354618
0.34972
0.346653
0.344944
0.344192
0.343965
0.344199
0.344933
0.345801
0.346856
0.348052
0.349413
0.350892
0.352508
0.354198
0.355984
0.357915
0.360006
0.362266
0.364714
0.367363
0.370238
0.373356
6.09343
6.71507
7.30291
7.85848
8.37458
8.826
9.16687
9.33801
9.28806
8.99402
8.46631
7.74125
6.87083
5.92443
5.01867
4.20505
3.49927
2.91232
2.42602
2.0233
1.67766
1.40131
1.19321
1.02854
0.892725
0.777488
0.678507
0.593523
0.52162
0.463802
0.426394
0.446508
0.748333
2.21578
0.553598
0.666492
0.921677
1.3751
2.00109
2.75572
3.59939
4.49795
5.42542
6.19886
0.48617
0.439576
0.407579
0.385618
0.370609
0.360405
0.353563
0.349091
0.346303
0.344787
0.344134
0.34396
0.344282
0.34497
0.345797
0.346856
0.348053
0.349414
0.350894
0.352461
0.354108
0.355899
0.357837
0.359935
0.362204
0.364662
0.367324
0.370213
0.373347
6.84364
7.4403
8.00911
8.55426
9.06374
9.50372
9.81676
9.93698
9.8174
9.44569
8.84178
8.04699
7.1148
6.11502
5.14633
4.29374
3.57851
2.98298
2.48873
2.07834
1.72467
1.44076
1.2265
1.05681
0.91689
0.798188
0.696093
0.608124
0.533116
0.471771
0.430943
0.449515
0.765478
2.26307
0.535391
0.636619
0.863116
1.28643
1.89145
2.63197
3.4653
4.35404
5.26826
6.19044
6.93676
0.473498
0.430894
0.401803
0.38186
0.368187
0.358869
0.352613
0.348528
0.345994
0.344651
0.344092
0.343983
0.344322
0.344957
0.345799
0.346857
0.348053
0.349416
0.350844
0.352363
0.354016
0.355811
0.357756
0.359862
0.36214
0.364609
0.367283
0.370187
0.373338
7.54816
8.11802
8.67207
9.21168
9.71943
10.1496
10.4305
10.4946
10.3037
9.85754
9.18373
8.32618
7.33849
6.26738
5.25298
4.3894
3.66408
3.05938
2.55665
2.13815
1.77601
1.48409
1.26325
1.08817
0.943808
0.82134
0.715853
0.624632
0.546225
0.481159
0.437101
0.454545
0.784446
2.31004
0.518053
0.609091
0.807764
1.19807
1.77974
2.50525
3.32893
4.20946
5.11327
6.01705
6.91362
7.61943
0.461499
0.422923
0.396596
0.37847
0.366001
0.357483
0.351758
0.348023
0.345719
0.34454
0.344088
0.343985
0.344313
0.344956
0.345799
0.346858
0.348057
0.349364
0.350743
0.352264
0.353921
0.355722
0.357673
0.359787
0.362075
0.364555
0.367241
0.37016
0.373328
8.1929
8.7404
9.28053
9.81773
10.328
10.754
11.0015
11.0046
10.7435
10.2288
9.49272
8.5798
7.516
6.39419
5.36768
4.49245
3.75637
3.14188
2.63014
2.20304
1.83198
1.53161
1.3038
1.12295
0.973797
0.847256
0.738087
0.643344
0.561302
0.494063
0.446146
0.460085
0.805414
2.35639
0.501682
0.583747
0.756288
1.11073
1.66605
2.37504
3.18932
4.06347
4.95948
5.84989
6.72021
7.57393
8.23218
0.450493
0.415756
0.391903
0.375412
0.364029
0.356234
0.350988
0.347569
0.345488
0.344484
0.344074
0.343957
0.344317
0.344957
0.3458
0.346865
0.348006
0.349257
0.350639
0.352163
0.353824
0.35563
0.357588
0.35971
0.362007
0.364499
0.367198
0.370133
0.373318
8.76755
9.29598
9.83518
10.3807
10.8916
11.3082
11.5216
11.4621
11.1351
10.5597
9.76996
8.77901
7.66292
6.52997
5.4908
4.60327
3.85576
3.23084
2.70952
2.27334
1.89289
1.58363
1.34845
1.16148
1.00719
0.87627
0.763155
0.664617
0.581819
0.511689
0.456722
0.467473
0.828949
2.40154
0.486664
0.560521
0.709255
1.02539
1.55065
2.24102
3.04553
3.91488
4.80619
5.68708
6.53854
7.35618
8.15123
8.76703
0.440622
0.409315
0.387676
0.372656
0.362251
0.355105
0.35029
0.347179
0.34534
0.344441
0.34404
0.343958
0.344318
0.344961
0.345807
0.346814
0.347899
0.349149
0.350534
0.352059
0.353725
0.355536
0.357501
0.359632
0.361938
0.364442
0.367155
0.370106
0.373309
9.26899
9.78571
10.3351
10.9016
11.416
11.8104
11.9843
11.8638
11.4785
10.8518
9.98467
8.94261
7.8192
6.67497
5.62268
4.7222
3.96258
3.32658
2.79508
2.3493
1.95901
1.64044
1.39751
1.20406
1.04432
0.908745
0.791401
0.69332
0.608981
0.531936
0.469755
0.475896
0.854845
2.44525
0.473168
0.539682
0.667209
0.943243
1.43409
2.10303
2.89676
3.76241
4.65203
5.52785
6.36576
7.15676
7.90607
8.62833
9.20655
0.431782
0.403526
0.383871
0.370171
0.360642
0.354082
0.349684
0.346904
0.345242
0.344393
0.344041
0.34396
0.344317
0.344979
0.345759
0.346708
0.347792
0.34904
0.350426
0.351952
0.353623
0.35544
0.357412
0.359551
0.361868
0.364384
0.367111
0.37008
0.3733
9.68406
10.2032
10.7778
11.3749
11.8952
12.2546
12.3838
12.209
11.7749
11.0736
10.1591
9.115
7.98479
6.82933
5.76354
4.84955
4.07713
3.42937
2.88709
2.43118
2.03057
1.70227
1.45124
1.25099
1.08551
0.944986
0.829164
0.730536
0.639421
0.555391
0.485253
0.486551
0.884279
2.48687
0.461063
0.52117
0.631015
0.866367
1.31722
1.96112
2.7423
3.60475
4.4954
5.37066
6.20091
6.97212
7.6855
8.3539
8.99969
9.5427
0.42387
0.398323
0.380445
0.367925
0.359183
0.353186
0.349238
0.346737
0.345171
0.344397
0.344044
0.343965
0.344332
0.344945
0.345657
0.346602
0.347685
0.348927
0.350316
0.351844
0.353519
0.355342
0.35732
0.359469
0.361795
0.364327
0.367069
0.370055
0.373292
10.009
10.5473
11.1647
11.7988
12.3192
12.6319
12.7148
12.4983
11.9936
11.251
10.3405
9.29562
8.15942
6.993
5.91352
4.9855
4.19964
3.53945
2.98575
2.51916
2.10775
1.76931
1.50985
1.30251
1.131
0.992903
0.877167
0.77128
0.673399
0.58224
0.50424
0.499169
0.916425
2.5262
0.450231
0.504588
0.600606
0.798002
1.20216
1.81557
2.58154
3.44058
4.33459
5.21368
6.0422
6.80102
7.48664
8.10925
8.68893
9.25627
9.77018
0.416791
0.393648
0.377353
0.36589
0.357902
0.352509
0.348976
0.346643
0.345175
0.344399
0.344049
0.344001
0.344295
0.344859
0.345561
0.346496
0.347576
0.348813
0.350203
0.351733
0.353412
0.355241
0.357226
0.359385
0.361724
0.364271
0.367029
0.37003
0.373283
10.2396
10.8193
11.4976
12.1683
12.6756
12.9335
12.9734
12.7024
12.1644
11.4319
10.5274
9.48355
8.34254
7.16574
6.07256
5.13012
4.33022
3.65694
3.09118
2.61334
2.19064
1.84167
1.57346
1.35875
1.19042
1.05259
0.928503
0.815425
0.710913
0.612986
0.526738
0.514921
0.953353
2.56255
0.440561
0.489673
0.574832
0.739563
1.09357
1.66807
2.41406
3.26857
4.1677
5.05484
5.88759
6.64127
7.30799
7.8939
8.41643
8.90312
9.38718
9.87951
0.410456
0.389439
0.374558
0.364099
0.356914
0.352118
0.348849
0.34665
0.345179
0.344404
0.344093
0.344006
0.344214
0.344781
0.345468
0.346387
0.347465
0.348696
0.350088
0.351619
0.353302
0.355138
0.35713
0.359302
0.361655
0.364217
0.366989
0.370006
0.373275
10.3727
11.0228
11.7762
12.4694
12.9503
13.1559
13.1362
12.855
12.3333
11.614
10.7181
9.67743
8.53324
7.34703
6.2404
5.2833
4.46886
3.78185
3.20338
2.71371
2.27922
1.91933
1.64206
1.43123
1.26296
1.11499
0.982661
0.862629
0.751909
0.647576
0.55375
0.533915
0.993568
2.59592
0.431944
0.476252
0.55268
0.690564
0.994858
1.52365
2.24093
3.08741
3.99263
4.89178
5.73475
6.49057
7.14685
7.70622
8.18258
8.59874
8.98925
9.38012
9.86034
0.404773
0.385641
0.372094
0.362698
0.35635
0.35195
0.34886
0.346654
0.345185
0.344464
0.344114
0.343987
0.344149
0.344703
0.345376
0.346276
0.347353
0.348577
0.34997
0.351504
0.35319
0.355033
0.357035
0.359222
0.361587
0.364164
0.36695
0.369983
0.373267
10.4069
11.1622
11.983
12.6823
13.124
13.2793
13.244
12.9961
12.4971
11.794
10.9101
9.87538
8.73021
7.53601