/*--------------------------------*- C++ -*----------------------------------*\
  =========                 |
  \\      /  F ield         | OpenFOAM: The Open Source CFD Toolbox
   \\    /   O peration     | Website:  https://openfoam.org
    \\  /    A nd           | Version:  8
     \\/     M anipulation  |
\*---------------------------------------------------------------------------*/
FoamFile
{
    version     2.0;
    format      ascii;
    class       volScalarField;
    location    "0.31";
    object      p;
}
// * * * * * * * * * * * * * * * * * * * * * * * * * * * * * * * * * * * * * //

dimensions      [0 2 -2 0 0 0 0];

internalField   nonuniform List<scalar> 
15677
(
74.5859
74.2294
73.8166
74.2939
73.8048
73.8185
74.2689
73.832
73.8279
73.7121
74.2436
73.8334
73.8282
73.7211
73.6206
74.2218
73.8357
73.828
73.7203
73.6282
73.5245
74.1983
73.838
73.8276
73.7214
73.6281
73.5312
73.4101
74.1732
73.8405
73.8268
73.7218
73.6291
73.5312
73.4159
73.2734
74.147
73.8436
73.8254
73.7219
73.6297
73.5321
73.416
73.2784
73.1072
74.1197
73.8457
73.8234
73.7217
73.6301
73.5327
73.4169
73.2786
73.1115
72.9039
74.0911
73.8471
73.8208
73.7213
73.6305
73.5333
73.4176
73.2797
73.1119
72.9075
72.6558
74.0616
73.8488
73.8175
73.721
73.6309
73.534
73.4185
73.2806
73.1131
72.9081
72.6587
72.3546
74.0317
73.8499
73.8142
73.7211
73.6315
73.5348
73.4195
73.2817
73.1142
72.9095
72.6594
72.3568
71.9919
74.0019
73.8499
73.8107
73.7215
73.6325
73.5361
73.421
73.2832
73.1157
72.9109
72.661
72.3576
71.9933
71.5594
73.9753
73.8487
73.8071
73.7224
73.6342
73.5381
73.4231
73.2853
73.1178
72.9129
72.6629
72.3596
71.9943
71.5597
71.0488
73.9524
73.8466
73.8037
73.7237
73.6368
73.5411
73.4263
73.2885
73.1208
72.9158
72.6656
72.362
71.9966
71.5611
71.0481
70.4528
73.9325
73.8445
73.8008
73.7257
73.6407
73.5457
73.4311
73.2932
73.1253
72.9199
72.6694
72.3655
71.9997
71.5637
71.0497
70.4509
69.7643
73.9151
73.8425
73.7986
73.7283
73.6461
73.5522
73.4382
73.3002
73.1319
72.926
72.675
72.3705
72.0042
71.5676
71.0528
70.4527
69.7612
68.9779
73.8999
73.8405
73.797
73.7313
73.6528
73.5613
73.4482
73.3104
73.1417
72.9351
72.6832
72.3778
72.0106
71.5732
71.0576
70.4563
69.7633
68.9733
68.0892
73.8869
73.8387
73.7959
73.7347
73.6601
73.5723
73.4618
73.3246
73.1558
72.9484
72.6952
72.3885
72.02
71.5813
71.0645
70.462
69.7674
68.9758
68.083
67.0952
73.8757
73.837
73.7954
73.7385
73.6682
73.5843
73.4785
73.3442
73.1755
72.9674
72.7129
72.4043
72.0337
71.5932
71.0746
70.4705
69.7742
68.9804
68.0857
67.0873
65.9948
73.8667
73.8355
73.7954
73.7428
73.6769
73.5974
73.4966
73.3679
73.2025
72.9941
72.738
72.4272
72.054
71.6105
71.0893
70.4828
69.7843
68.9883
68.0909
67.0903
65.9851
64.7888
73.8599
73.8339
73.7959
73.7474
73.6862
73.6116
73.5164
73.3938
73.2354
73.0305
72.7733
72.46
72.0833
71.636
71.1108
70.5006
69.799
69.0002
68.1
67.096
65.9884
64.7771
63.4803
73.8546
73.8326
73.7967
73.7524
73.6959
73.6266
73.5376
73.4221
73.2712
73.0749
72.8216
72.5057
72.1251
71.6728
71.1422
70.5268
69.8203
69.0174
68.1136
67.1062
65.9945
64.7807
63.4664
62.0738
73.8505
73.8314
73.7977
73.7574
73.7061
73.6424
73.5602
73.4524
73.3103
73.1233
72.8804
72.5685
72.1835
71.7253
71.1877
70.5649
69.8515
69.0424
68.1334
67.1216
66.0058
64.7871
63.4702
62.0577
60.5816
73.8472
73.8305
73.7988
73.7621
73.7161
73.6588
73.5838
73.4846
73.3524
73.1763
72.9445
72.6449
72.2637
71.7987
71.2525
70.6202
69.8971
69.079
68.1622
67.1439
66.0228
64.7994
63.4767
62.0615
60.5627
59.034
73.8446
73.8297
73.8
73.7664
73.7254
73.6748
73.6082
73.5183
73.3971
73.2333
73.0148
72.7284
72.3614
71.8994
71.3431
70.6989
69.9631
69.1325
68.2043
67.1764
66.0476
64.8178
63.4896
62.0677
60.5639
58.9784
57.3703
73.8425
73.8291
73.8011
73.7704
73.7337
73.6896
73.6321
73.5532
73.4438
73.2938
73.0905
72.8201
72.4683
72.0223
71.4677
70.8092
70.0572
69.2101
68.2661
67.2242
66.0836
64.8446
63.509
62.0807
60.5686
58.9811
57.3032
55.576
73.8408
73.8286
73.8022
73.7739
73.7412
73.7029
73.654
73.5873
73.4921
73.3571
73.1709
72.9189
72.5858
72.1571
71.62
70.9608
70.1893
69.3209
68.3558
67.2943
66.1367
64.8837
63.5373
62.1003
60.58
58.982
57.3058
55.5457
53.7241
73.8394
73.8281
73.803
73.7772
73.748
73.7148
73.6738
73.6186
73.5394
73.4227
73.2551
73.0238
72.7126
72.3053
71.7872
71.1467
70.3712
69.4766
68.4844
67.3965
66.215
64.9417
63.5788
62.1292
60.5982
58.9905
57.3002
55.538
53.7126
51.8204
73.8382
73.8278
73.8038
73.7803
73.754
73.7255
73.6916
73.6469
73.5829
73.4869
73.3424
73.1339
72.8475
72.4655
71.9715
71.3511
70.5946
69.6917
68.6654
67.5433
66.3296
65.0276
63.6407
62.172
60.626
59.006
57.308
55.5286
53.6957
51.8149
49.6739
73.8372
73.8275
73.8044
73.783
73.7593
73.735
73.7074
73.6722
73.6221
73.546
73.428
73.2481
72.9891
72.6362
72.1709
71.5767
70.8409
69.9566
68.9161
67.7507
66.4947
65.1539
63.7332
62.2366
60.6683
59.0312
57.3218
55.5379
53.6871
51.7962
49.6717
47.2554
73.8364
73.8273
73.8051
73.7855
73.7641
73.7435
73.7215
73.6948
73.6573
73.5992
73.5066
73.3602
73.1362
72.8157
72.3838
71.8215
71.1135
70.2493
69.2257
68.0387
66.7288
65.3368
63.8701
62.3342
60.7337
59.0714
57.3453
55.5513
53.6969
51.7897
49.6538
47.2551
44.8095
73.8357
73.8271
73.8057
73.7877
73.7683
73.751
73.7341
73.715
73.6887
73.6471
73.5777
73.4634
73.2809
73.0024
72.608
72.0832
71.4097
70.5739
69.5686
68.3956
67.0551
65.5973
64.0697
62.4801
60.8345
59.1361
57.384
55.5745
53.7104
51.798
49.6472
47.2385
44.8109
42.3785
73.8351
73.827
73.8062
73.7896
73.772
73.7576
73.7452
73.7329
73.7167
73.6898
73.6416
73.5567
73.414
73.1862
72.8416
72.3594
71.7271
70.9275
69.95
68.7921
67.4609
65.962
64.3554
62.6946
60.9873
59.2383
57.4477
55.6124
53.7336
51.8115
49.6522
47.2315
44.7963
42.3801
39.9827
73.8268
73.8344
73.8067
73.7913
73.7753
73.7635
73.755
73.7487
73.7416
73.7279
73.6986
73.6405
73.5346
73.3557
73.072
72.6478
72.0628
71.3074
70.3668
69.2344
67.9134
66.4175
64.7576
63.0038
61.2144
59.396
57.5505
55.6755
53.7706
51.834
49.6644
47.2331
44.7891
42.3666
39.9842
37.635
73.8072
73.8267
73.8337
73.7927
73.7783
73.7688
73.7638
73.7628
73.7636
73.7617
73.7495
73.7155
73.643
73.5094
73.2849
72.9329
72.4143
71.7103
70.8156
69.7192
68.4198
66.9273
65.2623
63.4414
61.5445
59.6332
57.7116
55.7784
53.8324
51.8691
49.6842
47.2425
44.7879
42.3583
39.9715
37.6357
35.3473
73.794
73.8079
73.8266
73.8329
73.7808
73.7734
73.7715
73.7753
73.7832
73.7917
73.7947
73.7824
73.7402
73.6478
73.4781
73.1967
72.7624
72.1331
71.293
70.2429
68.9767
67.4999
65.8294
63.9937
62.0148
59.9812
57.9567
55.9415
53.9341
51.9283
49.7155
47.2576
44.7938
42.3535
39.9616
37.6235
35.3471
33.1308
73.7831
73.7958
73.8088
73.8266
73.8322
73.7775
73.7784
73.7863
73.8005
73.8183
73.8348
73.8418
73.8268
73.7718
73.6523
73.4365
73.0853
72.5531
71.7955
70.8017
69.5804
68.1319
66.4691
64.6171
62.6118
60.4805
58.3192
56.192
54.0971
52.0269
49.7696
47.2827
44.8033
42.3548
39.9529
37.6118
35.3353
33.1295
30.9938
73.781
73.7862
73.7979
73.8097
73.8265
73.8316
73.7844
73.7961
73.8159
73.8419
73.8705
73.8947
73.904
73.8826
73.8086
73.6532
73.3795
72.9436
72.2962
71.3919
70.2268
68.8194
67.1777
65.3231
63.2888
61.1182
58.8433
56.5655
54.3499
52.1872
49.8622
47.3284
44.8205
42.3572
39.9484
37.5989
35.3214
33.118
30.9916
28.9426
73.7896
73.7858
73.7895
73.7999
73.8107
73.8264
73.831
73.8048
73.8295
73.8628
73.902
73.9416
73.9725
73.9812
73.9484
73.8479
73.6457
73.3003
72.7631
71.9819
70.9118
69.5583
67.9516
66.1083
64.0589
61.8451
59.5168
57.1093
54.7302
52.4386
50.0161
47.4107
44.8554
42.3647
39.9426
37.5881
35.3042
33.1016
30.9801
28.9393
26.9812
73.8121
73.7965
73.7907
73.7929
73.8019
73.8116
73.8264
73.8304
73.8415
73.8814
73.93
73.9832
74.0334
74.069
74.0731
74.0222
73.8854
73.6237
73.1906
72.5338
71.5993
70.3444
68.7866
66.9693
64.919
62.6754
60.2881
57.8124
55.2879
52.8207
50.2617
47.5527
44.9239
42.3862
39.9385
37.573
35.2865
33.08
30.9611
28.9279
26.977
25.1123
73.8517
73.8219
73.8034
73.7958
73.7963
73.8039
73.8125
73.8263
73.8299
73.8978
73.9549
74.0201
74.0874
74.147
74.1841
74.1778
74.1003
73.9154
73.5792
73.0407
72.2446
71.1366
69.6787
67.9024
65.8663
63.6068
61.1731
58.6215
56.0132
53.3857
50.6403
47.7859
45.0494
42.4378
39.9445
37.5562
35.2615
33.0553
30.9351
28.9061
26.9655
25.1072
23.3371
73.9116
73.8651
73.8311
73.8104
73.8007
73.7995
73.8058
73.8134
73.8263
73.8294
73.9769
74.0529
74.1353
74.2162
74.2828
74.3165
74.2924
74.1774
73.9304
73.5026
72.8391
71.883
70.5817
68.9038
66.8975
64.6374
62.1705
59.5541
56.8521
54.1249
51.2054
48.1525
45.2641
42.5428
39.9764
37.5449
35.2309
33.0198
30.903
28.8758
26.941
25.0955
23.3312
21.6553
73.9953
73.9298
73.8772
73.8406
73.8173
73.8055
73.8027
73.8076
73.8143
73.8262
73.829
74.0819
74.178
74.2777
74.3704
74.4399
74.4637
74.4119
74.2465
73.9211
73.3825
72.5731
71.4359
69.922
68.0093
65.7645
63.2794
60.6105
57.824
54.9844
51.9503
48.7062
45.61
42.7335
40.0575
37.555
35.2011
32.9746
30.8569
28.8363
26.9063
25.0684
23.3192
21.6487
20.0659
74.106
74.0195
73.9454
73.8898
73.8498
73.8239
73.8101
73.8058
73.8094
73.8152
73.8262
73.8286
74.2158
74.3325
74.4483
74.5496
74.6164
74.6215
74.5299
74.2985
73.8762
73.2059
72.2287
70.8894
69.1453
66.9857
64.4981
61.7905
58.9302
55.9856
52.8222
49.4435
46.14
43.0503
40.2191
37.6093
35.1878
32.9256
30.7967
28.7793
26.8594
25.0295
23.2895
21.6365
20.0586
18.5669
74.2469
74.1379
74.0394
73.9617
73.9019
73.8587
73.8303
73.8146
73.8087
73.8111
73.816
73.8262
73.8282
74.3809
74.5177
74.6472
74.7523
74.8084
74.7836
74.6377
74.3224
73.7823
72.9581
71.7909
70.2297
68.24
65.8253
63.094
60.1723
57.131
53.8442
50.3137
46.8541
43.5453
40.4995
37.7372
35.2131
32.8879
30.7278
28.7039
26.7916
24.9753
23.2465
21.6042
20.0461
18.5591
17.1559
74.4208
74.2884
74.1631
74.0603
73.9775
73.9135
73.8672
73.8364
73.8188
73.8115
73.8128
73.8168
73.8261
73.8279
74.5792
74.7343
74.8732
74.9749
75.0101
74.9417
74.7243
74.3048
73.6247
72.6234
71.2443
69.443
67.1957
64.521
61.5514
58.4238
55.02
51.3409
47.7054
44.2223
40.9494
37.9751
35.3037
32.8823
30.6652
28.6151
26.7011
24.8967
23.1851
21.5573
20.0114
18.5463
17.1475
15.8297
74.6295
74.4741
74.3199
74.1896
74.0805
73.9924
73.9245
73.8752
73.8421
73.8228
73.8141
73.8143
73.8176
73.8261
73.8277
74.8113
74.9812
75.1232
75.2122
75.2137
75.0852
74.7765
74.2306
73.3867
72.185
70.5737
68.5167
66.0028
63.0697
59.8672
56.355
52.5306
48.7174
45.0379
41.5761
38.3708
35.4937
32.9327
30.6273
28.5272
26.5926
24.7913
23.0961
21.4889
19.9608
18.5093
17.1345
15.8209
14.5851
74.8741
74.6974
74.5133
74.3534
74.2152
74.0996
74.0065
73.9349
73.8827
73.8476
73.8266
73.8166
73.8157
73.8183
73.8261
73.8274
75.0767
75.2559
75.3924
75.4566
75.4087
75.2011
74.7791
74.0826
73.0507
71.6263
69.7642
67.4387
64.6555
61.4653
57.8545
53.8906
49.8981
46.015
42.34
38.935
35.8279
33.0707
30.6357
28.4564
26.4795
24.6635
22.9762
21.3898
19.8857
18.4552
17.0953
15.8076
14.5758
13.4185
75.1542
74.9599
74.746
74.5553
74.3856
74.2392
74.1173
74.0196
73.9445
73.8897
73.8526
73.8301
73.8189
73.817
73.8189
73.8261
73.8273
75.3731
75.5538
75.6736
75.698
75.5823
75.2739
74.7143
73.8425
72.5985
70.9303
68.8013
66.2007
63.1442
59.5254
55.4293
51.2575
47.1634
43.2627
39.6321
36.3186
33.3371
30.7187
28.4215
26.3754
24.5255
22.8296
21.2558
19.7768
18.3736
17.0379
15.7663
14.5623
13.4087
12.3262
75.4678
75.2619
75.0197
74.7982
74.5955
74.4155
74.2614
74.1338
74.0317
73.9534
73.8962
73.8572
73.8333
73.821
73.8181
73.8194
73.8261
73.8271
75.6963
75.8681
75.957
75.9239
75.7191
75.2857
74.5634
73.4907
72.0115
70.0806
67.674
64.7892
61.2929
57.1571
52.8071
48.4947
44.3544
40.4808
36.9347
33.7449
30.9124
28.4475
26.2966
24.3884
22.6671
21.0912
19.6294
18.2554
16.9501
15.7058
14.519
13.395
12.3158
11.3041
75.8108
75.6018
75.3352
75.0845
74.8481
74.6326
74.4431
74.2818
74.1488
74.0428
73.9615
73.902
73.8614
73.8361
73.8227
73.8191
73.8199
73.8261
73.827
76.0397
76.1895
76.2301
76.1187
75.801
75.2171
74.3055
73.0074
71.2715
69.0635
66.3656
63.0367
59
54.5594
50.0214
45.6266
41.4904
37.6904
34.2671
31.2291
28.5646
26.2646
24.2657
22.4975
20.9049
19.4475
18.0952
16.8231
15.6121
14.4556
13.3498
12.3018
11.2927
10.3529
76.1768
75.9767
75.6916
75.4153
75.1461
74.8939
74.6666
74.4682
74.3003
74.1623
74.0527
73.9686
73.9072
73.8649
73.8385
73.8242
73.8198
73.8203
73.8261
73.8269
76.3942
76.5056
76.4778
76.2645
75.8081
75.0465
73.9197
72.3722
70.362
67.8594
64.7186
60.8309
56.4395
51.7552
47.0906
42.6704
38.5928
34.9124
31.6465
28.784
26.3024
24.1753
22.3315
20.7037
19.2382
17.8968
16.6508
15.4768
14.3564
13.2839
12.255
11.2787
10.3357
9.5592
76.5568
76.3809
76.0865
75.7904
75.4912
75.2025
74.9357
74.6974
74.4907
74.3167
74.1743
74.0613
73.9748
73.9115
73.8678
73.8405
73.8254
73.8205
73.8207
73.8261
73.8268
76.7477
76.8015
76.6817
76.3408
75.718
74.7517
73.3837
71.5665
69.2617
66.3207
62.6042
58.3132
53.6219
48.7579
44.0321
39.6502
35.686
32.1672
29.0883
26.4203
24.1324
22.183
20.4952
19.0063
17.6654
16.4367
15.2931
14.2133
13.1795
12.1868
11.2305
10.3225
9.5531
8.89035
76.9386
76.8064
76.5149
76.2079
75.8837
75.5604
75.2536
74.9732
74.7247
74.5105
74.331
74.1845
74.0686
73.9799
73.915
73.8702
73.8421
73.8264
73.8211
73.821
73.8261
73.8267
77.0852
77.0589
76.8215
76.3246
75.5076
74.3089
72.6771
70.5675
67.8294
64.2957
60.1308
55.4904
50.566
45.5933
40.8778
36.5968
32.7952
29.474
26.6058
24.1464
22.059
20.2894
18.7567
17.404
16.1843
15.0641
14.0188
13.0291
12.0775
11.1605
10.2729
9.54622
8.89743
8.19518
77.307
77.2425
76.97
76.6641
76.3223
75.9684
75.6228
75.2993
75.0062
74.7484
74.5275
74.343
74.1929
74.0744
73.9838
73.9177
73.8721
73.8434
73.8273
73.8216
73.8212
73.8261
73.8266
77.3883
77.2571
76.8736
76.1921
75.1517
73.696
71.7751
69.2366
65.8895
61.8704
57.319
52.4002
47.3134
42.3048
37.6668
33.542
29.945
26.85
24.2103
21.9689
20.0852
18.4949
17.1147
15.8946
14.7917
13.7759
12.8245
11.9203
11.0466
10.2014
9.49591
8.89186
8.1956
7.4432
77.6433
77.6752
77.4418
77.1528
76.8042
76.4261
76.0446
75.6783
75.3391
75.0346
74.7684
74.5413
74.3525
74.1993
74.0786
73.9867
73.9197
73.8735
73.8444
73.8279
73.822
73.8214
73.8261
73.8266
77.6361
77.3722
76.8132
75.9166
74.6265
72.8855
70.5388
67.3779
63.5209
59.0943
54.2311
49.0991
43.9161
38.9382
34.4368
30.5155
27.1571
24.31
21.9107
19.8922
18.2122
16.7987
15.5674
14.4752
13.4845
12.5684
11.7063
10.8832
10.0833
9.42415
8.84273
8.18473
7.43612
6.61906
77.9257
78.0875
77.9175
77.6654
77.3242
76.9311
76.5191
76.112
75.7264
75.373
75.058
74.7843
74.552
74.3594
74.2037
74.0815
73.9887
73.9211
73.8746
73.8451
73.8284
73.8223
73.8216
73.8261
73.8266
77.8039
77.379
76.6126
75.4728
73.901
71.7366
68.7595
65.0776
60.8073
56.0477
50.9278
45.6381
40.4192
35.5331
31.2214
27.5433
24.4498
21.8658
19.7135
17.9189
16.4401
15.1992
14.1119
13.1425
12.2591
11.4379
10.6603
9.91412
9.30236
8.76991
8.13564
7.42069
6.60902
5.72134
78.1288
78.4593
78.3812
78.1906
77.8749
77.4793
77.0446
76.601
76.1701
75.7668
75.4005
75.0764
74.7961
74.5592
74.3637
74.2063
74.0832
73.9899
73.922
73.8752
73.8456
73.8288
73.8225
73.8217
73.8261
73.8265
77.8655
77.2488
76.2451
74.8259
72.8325
70.0364
66.539
62.4499
57.8347
52.7833
47.4495
42.0542
36.8593
32.124
28.0492
24.6471
21.8379
19.526
17.6228
16.0502
14.7679
13.6939
12.7449
11.8931
11.1117
10.3804
9.68293
9.12857
8.64535
8.06068
7.37006
6.59226
5.71006
4.74708
78.2246
78.7672
78.814
78.7138
78.4462
78.0644
77.618
77.1445
76.6714
76.2186
75.7993
75.4215
75.0893
74.8035
74.5632
74.3658
74.2074
74.0838
73.9903
73.9223
73.8755
73.8459
73.829
73.8227
73.8218
73.8261
73.8265
77.7912
76.953
75.6723
73.8316
71.2113
67.9048
64.0136
59.5745
54.6409
49.3273
43.8217
38.3768
33.2682
28.7406
24.9449
21.8446
19.3325
17.2964
15.6408
14.2855
13.1933
12.2797
11.4632
10.7231
10.0383
9.39208
8.89055
8.4675
7.93309
7.29193
6.53989
5.6929
4.73491
3.68987
78.181
78.9856
79.1933
79.2177
79.025
78.6776
78.234
77.7399
77.2299
76.7297
76.257
75.8235
75.4357
75.0967
74.8068
74.5643
74.3659
74.2072
74.0835
73.9901
73.9223
73.8755
73.846
73.8292
73.8229
73.8218
73.8261
73.8266
77.5494
76.4508
74.7489
72.2891
69.174
65.4909
61.2495
56.4732
51.2387
45.6941
40.0656
34.6332
29.675
25.4094
21.9287
19.1493
16.9414
15.1808
13.7679
12.6232
11.7137
10.9534
10.2627
9.62856
9.0352
8.59087
8.22387
7.7507
7.16076
6.45826
5.63889
4.71682
3.67712
2.54264
77.9614
79.0865
79.494
79.6815
79.5956
79.3072
78.8848
78.3829
77.844
77.3005
76.7755
76.2851
75.8391
75.4429
75.0989
74.8065
74.5629
74.3642
74.2057
74.0824
73.9893
73.9217
73.8752
73.8462
73.8296
73.823
73.8218
73.8261
73.8266
77.0962
75.5946
73.2869
70.3482
66.8748
62.845
58.2547
53.1486
47.6335
41.8969
36.2028
30.8505
26.1074
22.1533
19.0168
16.5714
14.6696
13.1802
12.0029
11.0607
10.3258
9.71105
9.1396
8.60559
8.22191
7.91666
7.50099
6.97327
6.3231
5.55396
4.66117
3.65789
2.52965
1.29828
77.5158
79.0388
79.6876
80.0815
80.1389
79.9391
79.5605
79.0671
78.5102
77.9298
77.3556
76.8085
76.3025
75.846
75.4437
75.0967
74.8031
74.5594
74.3611
74.2031
74.0805
73.9879
73.9208
73.8754
73.8468
73.8298
73.823
73.8218
73.8261
73.8266
76.2802
74.214
71.4445
68.1623
64.3482
59.9641
55.0246
49.5993
43.8315
37.9515
32.2575
27.0567
22.5912
18.9918
16.2219
14.1174
12.5195
11.2943
10.3437
9.59503
9.02574
8.54867
8.08992
7.77619
7.53754
7.18563
6.71691
6.12992
5.41449
4.57302
3.60057
2.50963
1.28515
-0.0508388
78.8002
76.6928
79.7411
80.3911
80.6328
80.556
80.2483
79.7837
79.2231
78.6151
77.9967
77.3949
76.8283
76.3091
75.845
75.4391
75.0907
74.797
74.5539
74.3566
74.1997
74.0778
73.9859
73.9208
73.8763
73.8471
73.8298
73.8229
73.8217
73.8261
73.8267
74.9511
72.47
69.3703
65.7528
61.5837
56.8397
51.5534
45.8258
39.8424
33.8778
28.257
23.2804
19.1503
15.9413
13.5532
11.7913
10.4913
9.52107
8.78732
8.22225
7.80954
7.46236
7.23887
7.07826
6.79549
6.39266
5.86627
5.21507
4.4289
3.50905
2.4504
1.26457
-0.0641208
-1.51275
79.616
78.2274
75.3478
80.5782
81.0528
81.1373
80.9326
80.5215
79.9754
79.352
78.6969
78.0441
77.4178
76.8347
76.306
75.8373
75.4296
75.0813
74.7886
74.5469
74.351
74.1952
74.0743
73.9857
73.9221
73.8767
73.8471
73.8296
73.8227
73.8216
73.8261
73.8268
73.274
70.5047
67.0761
63.1034
58.5704
53.4628
47.8371
41.8319
35.6804
29.7
24.231
19.5499
15.8061
13.015
11.0168
9.59427
8.5835
7.8578
7.32981
6.93822
6.67312
6.58171
6.52277
6.32158
5.99058
5.53233
4.9435
4.22274
3.35988
2.35524
1.20327
-0.0853249
-1.52616
-3.09575
80.6063
79.191
77.2083
73.6714
81.3683
81.6603
81.5946
81.2667
80.7571
80.1343
79.4529
78.7551
78.0716
77.4245
76.8294
76.2947
75.8238
75.4161
75.069
74.7782
74.5385
74.344
74.1897
74.0736
73.9874
73.9226
73.8767
73.8468
73.8292
73.8225
73.8214
73.8261
73.8268
71.3849
68.3237
64.541
60.2023
55.2982
49.8272
43.8751
37.6258
31.3648
25.4467
20.2109
15.8922
12.5775
10.2226
8.61603
7.52586
6.79364
6.30049
5.96693
5.73873
5.75215
5.84081
5.74641
5.50082
5.11731
4.59901
3.94257
3.14642
2.20056
1.10426
-0.148682
-1.54807
-3.10924
-4.80839
81.5468
80.3696
78.3241
75.87
71.7959
82.0966
82.2136
82.0022
81.5562
80.9534
80.2594
79.5251
78.789
78.0793
77.4169
76.814
76.2763
75.8053
75.3992
75.0544
74.7661
74.5283
74.3359
74.1883
74.076
73.9882
73.9226
73.8763
73.8462
73.829
73.8223
73.8212
73.8261
73.827
69.2846
65.902
61.7535
57.0396
51.7599
45.9287
39.6692
33.2197
26.9198
21.1501
16.2289
12.3325
9.47947
7.57072
6.3519
5.58403
5.11776
4.8447
4.69426
4.76707
4.97753
5.03763
4.90437
4.6104
4.16997
3.58661
2.85695
1.97925
0.94363
-0.251651
-1.61345
-3.13189
-4.82186
-6.65935
82.4177
81.502
79.7296
77.1406
74.3209
69.7178
82.7629
82.7092
82.3574
81.799
81.1093
80.35
79.568
78.7988
78.0695
77.397
76.79
76.2519
75.7826
75.3794
75.0378
74.7518
74.5166
74.3334
74.1916
74.0771
73.9882
73.922
73.8754
73.846
73.8287
73.822
73.8209
73.8261
73.8271
66.9434
63.2293
58.7046
53.6082
47.9497
41.7646
35.2244
28.6306
22.3746
16.845
12.3164
8.8927
6.52367
5.06313
4.22364
3.76517
3.55131
3.48576
3.66382
3.95008
4.13785
4.16664
3.99098
3.64456
3.14243
2.48855
1.67972
0.713889
-0.418665
-1.72058
-3.19929
-4.84522
-6.67273
-8.65709
83.2185
82.5584
81.0941
78.7791
75.7522
72.5721
67.4011
83.363
83.1437
82.6575
81.9936
81.2239
80.4052
79.5817
78.7875
78.0449
77.3667
76.7587
76.2225
75.7565
75.3572
75.0184
74.7357
74.5129
74.3378
74.193
74.0771
73.9874
73.9208
73.8752
73.8459
73.8284
73.8216
73.8206
73.8261
73.8272
64.3522
60.2985
55.3889
49.9027
43.862
37.3328
30.5481
23.8807
17.7634
12.5681
8.50302
5.59109
3.7184
2.70128
2.22843
2.06482
2.0894
2.38592
2.79775
3.06461
3.22755
3.22208
3.00036
2.59706
2.02804
1.29787
0.403517
-0.657417
-1.89441
-3.31081
-4.91464
-6.69675
-8.66991
-10.8138
83.9436
83.539
82.376
80.3833
77.6247
74.1925
70.5874
64.836
83.8925
83.5138
82.9006
82.1389
81.2958
80.4252
79.5698
78.7582
78.0078
77.3277
76.7214
76.189
75.7275
75.3316
74.9967
74.7303
74.5186
74.3396
74.193
74.076
73.9856
73.9207
73.8755
73.8456
73.8279
73.8211
73.8203
73.8261
73.8274
61.5061
57.1067
51.8021
45.9162
39.4898
32.6312
25.6515
18.9982
13.1247
8.35614
4.81512
2.44222
1.06877
0.483981
0.362313
0.477978
0.906529
1.46193
1.85937
2.10503
2.24075
2.19798
1.92622
1.46123
0.819821
0.00719268
-0.979431
-2.14276
-3.49192
-5.03081
-6.768
-8.69403
-10.8225
-13.5343
84.5872
84.4371
83.5778
81.8999
79.4656
76.321
72.4241
68.3589
62.0187
84.3475
83.817
83.0853
82.2334
81.3255
80.4144
79.5363
78.7139
77.9602
77.2814
76.6792
76.152
75.6946
75.3031
74.9892
74.7377
74.5209
74.3396
74.1916
74.0736
73.9859
73.9217
73.8755
73.8451
73.8272
73.8205
73.8199
73.8261
73.8276
58.4045
53.652
47.9382
41.6397
34.8227
27.6575
20.5515
14.0183
8.50009
4.24419
1.27541
-0.543255
-1.42357
-1.59166
-1.37958
-0.805886
-0.0868378
0.461189
0.842947
1.06534
1.17134
1.08796
0.761837
0.230042
-0.489641
-1.39128
-2.47722
-3.75047
-5.21967
-6.88899
-8.76723
-10.8466
-13.5482
-16.78
85.1442
85.2445
84.6933
83.3329
81.2144
78.4135
74.8319
70.4344
65.8885
58.9496
84.7246
84.0513
83.2095
82.2772
81.318
80.3774
79.4846
78.6569
77.9039
77.2294
76.633
76.1102
75.6581
75.2931
74.9986
74.7406
74.5209
74.3378
74.1882
74.0743
73.9879
73.9222
73.8752
73.8443
73.8264
73.8198
73.8194
73.8261
73.8279
55.0481
49.9312
43.7887
37.0572
29.8466
22.4138
15.2731
8.98261
3.93262
0.264929
-2.09767
-3.35921
-3.75946
-3.52991
-2.78899
-1.88367
-1.16224
-0.622263
-0.257669
-0.060699
0.0128586
-0.114768
-0.499855
-1.10392
-1.90812
-2.90562
-4.09819
-5.48902
-7.08599
-8.89334
-10.9199
-13.5788
-16.798
-20.0943
85.6104
85.9529
85.7133
84.677
82.8754
80.4079
77.1939
73.1412
68.225
63.183
55.6311
85.0212
84.2141
83.273
82.2762
81.2791
80.3186
79.4178
78.5896
77.8407
77.1725
76.581
76.0641
75.6449
75.3048
75.0023
74.7406
74.5186
74.3334
74.1897
74.0778
73.9893
73.9223
73.8745
73.8433
73.8253
73.819
73.8189
73.8261
73.8282
51.4364
45.9382
39.3372
32.1486
24.5522
16.9134
9.85293
3.9389
-0.534341
-3.55285
-5.29117
-6.00297
-5.9419
-5.09845
-3.97175
-3.04994
-2.32598
-1.79476
-1.44884
-1.27963
-1.24152
-1.41725
-1.86623
-2.54838
-3.44365
-4.54409
-5.85079
-7.36677
-9.09901
-11.0508
-13.6579
-16.8312
-20.107
-23.4126
85.983
86.5553
86.6277
85.9215
84.4437
82.3083
79.4526
75.7855
71.2504
65.8051
60.2534
52.0645
85.2336
84.3047
83.2828
82.2373
81.2138
80.2417
79.3386
78.5141
77.7719
77.1089
76.5238
76.0473
75.6595
75.3094
75.0022
74.7376
74.5128
74.3359
74.1952
74.0805
73.9901
73.9219
73.8734
73.842
73.8241
73.818
73.8182
73.8261
73.8286
47.5663
41.6618
34.5602
26.8884
18.9283
11.1776
4.33888
-1.05972
-4.85925
-7.18626
-8.29673
-8.47509
-7.70834
-6.41435
-5.25101
-4.31144
-3.58462
-3.06281
-2.73723
-2.59834
-2.59885
-2.82681
-3.34494
-4.11127
-5.10439
-6.31505
-7.74333
-9.39189
-11.2655
-13.7992
-16.9182
-20.1362
-23.4235
-26.718
86.2573
87.0459
87.4269
87.0553
85.9085
84.1088
81.6129
78.3205
74.1886
69.17
63.1906
57.1104
48.2492
85.3602
84.3307
83.2471
82.167
81.1269
80.1499
79.2495
78.4319
77.6951
77.0389
76.5026
76.0652
75.665
75.3093
74.9986
74.7302
74.5166
74.3441
74.1998
74.0824
73.9902
73.921
73.872
73.8403
73.8226
73.817
73.8175
73.8261
73.8289
43.4303
37.0751
29.4153
21.2354
12.9609
5.23336
-1.21257
-5.9578
-9.00557
-10.618
-11.1106
-10.4765
-9.1894
-7.83692
-6.63404
-5.675
-4.94483
-4.43317
-4.1297
-4.0238
-4.06635
-4.35098
-4.94376
-5.80057
-6.89852
-8.22664
-9.78389
-11.571
-14.0268
-17.0716
-20.2225
-23.453
-26.7279
-29.9991
86.4305
87.4182
88.1011
88.0674
87.259
85.798
83.6677
80.7523
77.009
72.4136
66.9183
60.4004
53.7654
44.1844
85.4098
84.3024
83.1736
82.0706
81.0222
80.0465
79.1527
78.3403
77.6106
77.0127
76.5245
76.0719
75.665
75.3048
74.9892
74.7357
74.5284
74.3511
74.2032
74.0835
73.9898
73.9196
73.8701
73.8384
73.8209
73.8157
73.8168
73.8261
73.8294
39.0079
32.1363
23.8456
15.1449
6.6485
-0.875728
-6.73666
-10.7011
-12.9425
-13.837
-13.3896
-12.1536
-10.7894
-9.37392
-8.12789
-7.14741
-6.41343
-5.91272
-5.63319
-5.56311
-5.65136
-5.9973
-6.67041
-7.62421
-8.83393
-10.2867
-11.979
-14.349
-17.3156
-20.3806
-23.5404
-26.7589
-30.008
-33.2357
86.5121
87.6669
88.6379
88.9462
88.4834
87.3645
85.6045
83.0746
79.7191
75.5274
70.4796
64.5184
57.4543
50.2321
39.8609
85.3943
84.2286
83.0689
81.9528
80.9034
79.9337
79.0448
78.2396
77.5787
77.0391
76.5324
76.0719
75.6595
75.293
74.9968
74.752
74.5387
74.3567
74.2057
74.0837
73.9886
73.9176
73.8677
73.836
73.8188
73.8142
73.8159
73.8262
73.8299
34.2689
26.7926
17.786
8.5796
0.0100298
-7.08479
-12.163
-15.2383
-16.6466
-16.446
-15.2979
-13.964
-12.5165
-11.0325
-9.73938
-8.73545
-7.99725
-7.50827
-7.2546
-7.22334
-7.36111
-7.77315
-8.53244
-9.5897
-10.9181
-12.5016
-14.7768
-17.6574
-20.6351
-23.704
-26.8482
-30.0397
-33.2435
-36.4056
86.5161
87.8031
89.0242
89.6754
89.5694
88.7957
87.4102
85.275
82.3143
78.5201
73.8946
68.4113
61.9948
54.3716
46.5191
35.2585
85.3242
84.1174
82.9386
81.8184
80.7737
79.8081
78.9261
78.2012
77.6104
77.0486
76.5324
76.0652
75.6448
75.3032
75.0187
74.7664
74.5471
74.3611
74.2071
74.0831
73.9866
73.9148
73.8648
73.8332
73.8165
73.8127
73.8151
73.8262
73.8304
29.1678
20.9635
11.152
1.5154
-6.91236
-13.3107
-17.4184
-19.5248
-19.6521
-18.6288
-17.3557
-15.9159
-14.3777
-12.8193
-11.4751
-10.4458
-9.70286
-9.22645
-9.00066
-9.0113
-9.20253
-9.68559
-10.5369
-11.704
-13.1566
-15.3227
-18.1071
-20.9911
-23.9681
-27.0186
-30.1301
-33.2755
-36.4122
-39.4873
86.4552
87.8442
89.2677
90.2341
90.4966
90.0793
89.0697
87.3401
84.7842
81.3897
77.1723
72.1359
66.2359
59.3719
51.1729
42.6282
30.3476
85.2092
83.9756
82.7882
81.6708
80.629
79.6697
78.8805
78.2389
77.6215
77.0486
76.5244
76.0471
75.6582
75.332
75.0381
74.7785
74.5541
74.3642
74.2073
74.0813
73.9837
73.9114
73.8612
73.83
73.814
73.811
73.8142
73.8263
73.8309
23.633
14.5264
3.84508
-6.05697
-14.0453
-19.4531
-22.4278
-23.0073
-22.1637
-20.9797
-19.5709
-18.0153
-16.3788
-14.7403
-13.3413
-12.2846
-11.5365
-11.0735
-10.8777
-10.9333
-11.182
-11.741
-12.6899
-13.9721
-16.0052
-18.677
-21.4566
-24.3351
-27.2922
-30.3064
-33.3666
-36.4443
-39.4925
-42.4595
86.3404
87.8055
89.3877
90.6256
91.2369
91.1933
90.5678
89.2537
87.1167
84.129
80.3149
75.7005
70.2799
63.9812
56.6751
47.8814
38.5636
25.0877
85.0575
83.8096
82.6222
81.5058
80.4692
79.6162
78.9251
78.2519
77.6215
77.0391
76.5024
76.0643
75.6951
75.3577
75.0548
74.7888
74.5595
74.3658
74.2062
74.0784
73.9797
73.9071
73.8571
73.8264
73.8114
73.8093
73.8133
73.8263
73.8316
17.5533
7.29535
-4.25156
-14.1044
-21.2867
-25.3771
-26.5195
-25.9126
-24.8623
-23.5048
-21.9477
-20.2668
-18.5247
-16.8008
-15.3432
-14.2572
-13.5036
-13.0551
-12.8912
-12.9949
-13.3051
-13.9447
-14.9958
-16.8547
-19.3867
-22.0434
-24.8114
-27.6681
-30.5872
-33.5473
-36.5355
-39.5244
-42.4633
-45.3012
86.1817
87.7009
89.403
90.8677
91.7898
92.1045
91.8784
90.9979
89.2965
86.7291
83.3194
79.1132
74.1331
68.3556
61.6751
53.9322
44.52
34.3273
19.4211
84.8769
83.625
82.436
81.3231
80.407
79.6685
78.9402
78.2519
77.6103
77.0125
76.5241
76.1109
75.7283
75.38
75.0694
74.7972
74.5629
74.3656
74.2035
74.0742
73.9747
73.9019
73.8524
73.8226
73.8085
73.8075
73.8124
73.8264
73.8322
10.7403
-1.0436
-13.1766
-22.5885
-28.396
-30.2431
-29.9331
-29.0273
-27.7496
-26.205
-24.4879
-22.6727
-20.8185
-19.0043
-17.4849
-16.3681
-15.6088
-15.1756
-15.0457
-15.2005
-15.5759
-16.2999
-17.9216
-20.269
-22.7717
-25.4085
-28.1513
-30.9685
-33.8325
-36.719
-39.615
-42.4946
-45.3036
-47.9923
85.9882
87.5424
89.3312
90.9785
92.1734
92.8102
92.961
92.5406
91.3053
89.177
86.1813
82.3757
77.8121
72.4995
66.3926
59.3467
51.1708
41.1105
29.9325
13.2836
84.6739
83.4169
82.2289
81.2515
80.4681
79.6859
78.9402
78.2389
77.5784
77.0392
76.5819
76.1529
75.7573
75.3998
75.0815
74.8031
74.5642
74.3635
74.1991
74.0684
73.9685
73.896
73.8473
73.8186
73.8056
73.8056
73.8115
73.8264
73.8329
2.84578
-10.8322
-23.0869
-31.0766
-34.2985
-34.2961
-33.5793
-32.3524
-30.8207
-29.0762
-27.1898
-25.2329
-23.2611
-21.3527
-19.7689
-18.6201
-17.8551
-17.4383
-17.3443
-17.5529
-17.9966
-19.2819
-21.3773
-23.6769
-26.1476
-28.7529
-31.4535
-34.2145
-37.0052
-39.7993
-42.5835
-45.3337
-47.9934
-50.5141
85.7678
87.3413
89.1884
90.9755
92.4055
93.3295
93.811
93.8296
93.1068
91.4566
88.8919
85.4896
81.3243
76.441
70.8292
64.4203
57.0227
48.421
37.6893
25.4392
6.59973
84.4434
83.1846
82.1472
81.3224
80.488
79.6859
78.9251
78.201
77.611
77.11
76.6342
76.19
75.7834
75.4166
75.0908
74.8064
74.563
74.3591
74.1927
74.0611
73.9612
73.8895
73.8419
73.8143
73.8025
73.8037
73.8106
73.8265
73.8336
-6.70465
-23.2525
-33.1636
-38.4067
-39.1572
-38.5834
-37.4403
-35.8738
-34.0654
-32.1094
-30.0478
-27.9437
-25.8505
-23.8455
-22.1956
-21.0141
-20.2437
-19.8445
-19.7883
-20.0525
-21.0528
-22.7916
-24.8146
-27.0662
-29.4956
-32.0535
-34.6958
-37.3838
-40.0831
-42.7662
-45.4201
-48.0218
-50.5138
-52.8497
85.5156
87.1063
88.9894
90.8766
92.5038
93.6809
94.4507
94.8527
94.6373
93.5296
91.4387
88.4513
84.6779
80.1939
75.029
69.1513
62.4642
54.7321
45.728
34.3045
20.9592
-0.705483
84.1848
83.0922
82.229
81.3451
80.488
79.6684
78.8802
78.2401
77.6964
77.174
76.6806
76.2235
75.8059
75.4299
75.0967
74.8066
74.559
74.3523
74.1843
74.0524
73.9531
73.8824
73.8361
73.8098
73.7993
73.8018
73.8096
73.8266
73.8344
-20.3943
-36.8461
-43.1779
-44.5515
-44.2548
-43.0537
-41.4686
-39.5629
-37.4687
-35.2901
-33.0511
-30.7974
-28.5812
-26.479
-24.7626
-23.5487
-22.7736
-22.3932
-22.3757
-23.1976
-24.6337
-26.268
-28.2219
-30.4189
-32.7927
-35.2881
-37.8561
-40.4539
-43.0439