/*--------------------------------*- C++ -*----------------------------------*\
  =========                 |
  \\      /  F ield         | OpenFOAM: The Open Source CFD Toolbox
   \\    /   O peration     | Website:  https://openfoam.org
    \\  /    A nd           | Version:  8
     \\/     M anipulation  |
\*---------------------------------------------------------------------------*/
FoamFile
{
    version     2.0;
    format      ascii;
    class       volVectorField;
    location    "0.31";
    object      U;
}
// * * * * * * * * * * * * * * * * * * * * * * * * * * * * * * * * * * * * * //

dimensions      [0 1 -1 0 0 0 0];

internalField   nonuniform List<vector> 
15677
(
(-0.0399015 9.66595 0)
(0.0484951 9.92199 0)
(-0.00181359 9.37829 0)
(0.0206524 9.97702 0)
(0.0198921 9.78866 0)
(0.00731347 9.14125 0)
(0.0258391 9.99515 0)
(0.0165374 9.92467 0)
(0.0111793 9.65398 0)
(0.00649149 8.96067 0)
(0.0263309 10.0025 0)
(0.0205525 9.97871 0)
(0.016551 9.85203 0)
(0.00912501 9.53081 0)
(0.00515976 8.81703 0)
(0.0255703 10.0057 0)
(0.0215845 10.003 0)
(0.0194062 9.94151 0)
(0.0153649 9.7795 0)
(0.00798052 9.41984 0)
(0.00424055 8.70238 0)
(0.0245088 10.0071 0)
(0.0218661 10.0147 0)
(0.0210024 9.98478 0)
(0.0182526 9.90243 0)
(0.0138548 9.7081 0)
(0.00692524 9.32158 0)
(0.00354496 8.61019 0)
(0.0230971 10.0075 0)
(0.0217425 10.0205 0)
(0.0218696 10.0069 0)
(0.0201989 9.96497 0)
(0.0169618 9.86193 0)
(0.0124421 9.64083 0)
(0.0059687 9.23643 0)
(0.00295873 8.53616 0)
(0.0214091 10.0074 0)
(0.0211911 10.0233 0)
(0.0221529 10.0184 0)
(0.0212884 9.99809 0)
(0.0190536 9.94371 0)
(0.0156082 9.82229 0)
(0.0110793 9.57966 0)
(0.00507714 9.16415 0)
(0.00241889 8.47762 0)
(0.019516 10.007 0)
(0.0203306 10.0235 0)
(0.0221102 10.0241 0)
(0.0217809 10.0162 0)
(0.0202169 9.98814 0)
(0.0177206 9.92275 0)
(0.0141433 9.78536 0)
(0.00968598 9.52575 0)
(0.00419895 9.10454 0)
(0.00188735 8.43309 0)
(0.0175006 10.0063 0)
(0.0192743 10.0223 0)
(0.0216668 10.0271 0)
(0.0218031 10.0261 0)
(0.0207478 10.0131 0)
(0.018862 9.97855 0)
(0.0161748 9.90359 0)
(0.0125196 9.75241 0)
(0.00820402 9.48009 0)
(0.00328871 9.05739 0)
(0.001335 8.4016 0)
(0.0153991 10.0056 0)
(0.0179651 10.0206 0)
(0.0209343 10.0281 0)
(0.0214571 10.0315 0)
(0.020781 10.0273 0)
(0.01932 10.0103 0)
(0.0171886 9.97057 0)
(0.0143587 9.8872 0)
(0.0106817 9.72458 0)
(0.00658278 9.44348 0)
(0.00230484 9.02267 0)
(0.000739255 8.38286 0)
(0.013262 10.0048 0)
(0.016482 10.0185 0)
(0.0198597 10.0274 0)
(0.0207823 10.034 0)
(0.0204005 10.0354 0)
(0.0192418 10.0288 0)
(0.0174628 10.0092 0)
(0.0151333 9.96504 0)
(0.0122001 9.87459 0)
(0.00856779 9.70297 0)
(0.00477109 9.41666 0)
(0.00121306 9.00041 0)
(5.66512e-05 8.37665 0)
(0.0111599 10.0041 0)
(0.0148854 10.0162 0)
(0.0185087 10.0258 0)
(0.0197968 10.0345 0)
(0.0196662 10.0396 0)
(0.0187154 10.0396 0)
(0.0171503 10.0319 0)
(0.0151063 10.0103 0)
(0.0126092 9.96283 0)
(0.00961919 9.86677 0)
(0.00611367 9.68861 0)
(0.00272192 9.40028 0)
(-1.48543e-05 8.99079 0)
(-0.000614009 8.38296 0)
(0.00927043 10.0034 0)
(0.0131868 10.014 0)
(0.01692 10.0235 0)
(0.0185017 10.0334 0)
(0.0185935 10.0412 0)
(0.0177899 10.0456 0)
(0.0163413 10.0453 0)
(0.0144279 10.0371 0)
(0.0121449 10.0145 0)
(0.00951518 9.96483 0)
(0.00653245 9.86473 0)
(0.00325891 9.68249 0)
(0.000397807 9.39498 0)
(-0.00137817 8.99411 0)
(-0.00140233 8.4019 0)
(0.00772502 10.0029 0)
(0.0116237 10.0119 0)
(0.0151334 10.0209 0)
(0.0169111 10.0313 0)
(0.017183 10.0409 0)
(0.0164845 10.0483 0)
(0.0150811 10.053 0)
(0.0131896 10.0531 0)
(0.0109505 10.0453 0)
(0.0084554 10.0228 0)
(0.00574457 9.97196 0)
(0.00285837 9.86946 0)
(-6.07809e-05 9.68557 0)
(-0.00226027 9.4014 0)
(-0.00294104 9.01055 0)
(-0.00229228 8.43375 0)
(0.00641351 10.0024 0)
(0.0102313 10.0102 0)
(0.0133945 10.0184 0)
(0.015055 10.0286 0)
(0.0154388 10.0392 0)
(0.0148027 10.0488 0)
(0.0133874 10.0568 0)
(0.011434 10.0624 0)
(0.00911546 10.0638 0)
(0.00657049 10.0573 0)
(0.0039057 10.0358 0)
(0.0011919 9.98513 0)
(-0.00147912 9.88196 0)
(-0.00388217 9.6987 0)
(-0.00526682 9.42006 0)
(-0.004696 9.04036 0)
(-0.00328025 8.47859 0)
(0.00530913 10.002 0)
(0.00897499 10.0087 0)
(0.0118159 10.0162 0)
(0.0131778 10.0257 0)
(0.013378 10.0364 0)
(0.0127452 10.0475 0)
(0.0112637 10.058 0)
(0.00917513 10.0674 0)
(0.00667803 10.0747 0)
(0.00394415 10.0781 0)
(0.00112807 10.0739 0)
(-0.001637 10.0545 0)
(-0.00424546 10.0053 0)
(-0.00655422 9.90314 0)
(-0.0082624 9.72267 0)
(-0.00864948 9.4514 0)
(-0.00664807 9.08361 0)
(-0.00436115 8.53646 0)
(0.00438518 10.0016 0)
(0.00784275 10.0074 0)
(0.0103582 10.0143 0)
(0.0114394 10.023 0)
(0.0112628 10.0333 0)
(0.0103216 10.0448 0)
(0.00870997 10.0571 0)
(0.00641364 10.0691 0)
(0.00364687 10.0805 0)
(0.000607433 10.0904 0)
(-0.00251493 10.0969 0)
(-0.0055394 10.0959 0)
(-0.00830134 10.0797 0)
(-0.01066 10.0332 0)
(-0.0124241 9.93386 0)
(-0.0132312 9.75811 0)
(-0.0124252 9.49571 0)
(-0.00880235 9.14043 0)
(-0.00553346 8.60723 0)
(0.00361117 10.0013 0)
(0.00682299 10.0062 0)
(0.00901566 10.0126 0)
(0.00980709 10.0206 0)
(0.00928929 10.0303 0)
(0.00782968 10.0415 0)
(0.00573431 10.0545 0)
(0.00314918 10.0685 0)
(1.81769e-05 10.0828 0)
(-0.00343892 10.0971 0)
(-0.00700327 10.1104 0)
(-0.0104575 10.1208 0)
(-0.0135895 10.1242 0)
(-0.0162047 10.1122 0)
(-0.0181268 10.0699 0)
(-0.0191265 9.97485 0)
(-0.018802 9.80553 0)
(-0.0165929 9.55315 0)
(-0.0111471 9.21057 0)
(-0.00678433 8.69056 0)
(0.00297857 10.001 0)
(0.00591157 10.0052 0)
(0.00778418 10.011 0)
(0.00828819 10.0184 0)
(0.00742891 10.0274 0)
(0.00550292 10.0381 0)
(0.00269282 10.0509 0)
(-0.000608183 10.0658 0)
(-0.00420954 10.0823 0)
(-0.00820487 10.0997 0)
(-0.0123472 10.1178 0)
(-0.0163867 10.1355 0)
(-0.0200736 10.1509 0)
(-0.0231666 10.1595 0)
(-0.0254428 10.1529 0)
(-0.0266984 10.1159 0)
(-0.02668 10.0267 0)
(-0.0249703 9.86519 0)
(-0.0211391 9.62366 0)
(-0.0136742 9.29387 0)
(-0.00810692 8.78602 0)
(0.00247793 10.0008 0)
(0.00508877 10.0044 0)
(0.00666123 10.0096 0)
(0.00688638 10.0164 0)
(0.0056987 10.0247 0)
(0.00331272 10.0347 0)
(-0.00013676 10.047 0)
(-0.00441622 10.0618 0)
(-0.00902214 10.0794 0)
(-0.0136938 10.0992 0)
(-0.0185652 10.1206 0)
(-0.0233524 10.1433 0)
(-0.0277697 10.1664 0)
(-0.0315376 10.1877 0)
(-0.0343894 10.2026 0)
(-0.0360833 10.2024 0)
(-0.0363987 10.1719 0)
(-0.0350785 10.0898 0)
(-0.0317139 9.93723 0)
(-0.0260352 9.70707 0)
(-0.0163525 9.38968 0)
(-0.0094778 8.89279 0)
(0.00209334 10.0007 0)
(0.00438525 10.0037 0)
(0.00563959 10.0084 0)
(0.00560322 10.0145 0)
(0.00410828 10.0221 0)
(0.00128564 10.0314 0)
(-0.00278799 10.043 0)
(-0.00793864 10.0573 0)
(-0.0138593 10.0748 0)
(-0.0198865 10.0958 0)
(-0.025664 10.1198 0)
(-0.0313847 10.1462 0)
(-0.036723 10.1745 0)
(-0.0413608 10.2039 0)
(-0.0449943 10.232 0)
(-0.0473433 10.2541 0)
(-0.0481587 10.2613 0)
(-0.0472207 10.2383 0)
(-0.0442897 10.1643 0)
(-0.0389885 10.0215 0)
(-0.0312375 9.80288 0)
(-0.0191618 9.49744 0)
(-0.0108782 9.01016 0)
(0.0017969 10.0006 0)
(0.00381443 10.0032 0)
(0.00475785 10.0074 0)
(0.00443899 10.0129 0)
(0.00266354 10.0198 0)
(-0.000562058 10.0283 0)
(-0.00522475 10.039 0)
(-0.0112197 10.0525 0)
(-0.0183074 10.0695 0)
(-0.0260671 10.0905 0)
(-0.033618 10.1158 0)
(-0.0404953 10.1449 0)
(-0.0469794 10.1772 0)
(-0.0527071 10.2121 0)
(-0.057335 10.2487 0)
(-0.0605504 10.2845 0)
(-0.062072 10.3147 0)
(-0.0616627 10.33 0)
(-0.0591214 10.3153 0)
(-0.0542521 10.2502 0)
(-0.0467288 10.1177 0)
(-0.0366927 9.9105 0)
(-0.0220368 9.61612 0)
(-0.012243 9.13653 0)
(0.0015642 10.0005 0)
(0.00334967 10.0028 0)
(0.00403555 10.0065 0)
(0.00343927 10.0114 0)
(0.00136857 10.0175 0)
(-0.00221949 10.0253 0)
(-0.00742311 10.0351 0)
(-0.0142129 10.0477 0)
(-0.0224268 10.0638 0)
(-0.0317214 10.0841 0)
(-0.0415133 10.1094 0)
(-0.050652 10.14 0)
(-0.0585585 10.1753 0)
(-0.065643 10.2143 0)
(-0.0715149 10.2568 0)
(-0.0758239 10.3015 0)
(-0.0782628 10.3458 0)
(-0.0785711 10.3846 0)
(-0.0765437 10.4088 0)
(-0.0720234 10.403 0)
(-0.0648769 10.3474 0)
(-0.0548501 10.2252 0)
(-0.0422843 10.029 0)
(-0.0248622 9.74445 0)
(-0.0132744 9.27004 0)
(0.00137903 10.0005 0)
(0.0029687 10.0025 0)
(0.0034454 10.0059 0)
(0.00262735 10.0102 0)
(0.000274999 10.0156 0)
(-0.00367903 10.0224 0)
(-0.00936629 10.0313 0)
(-0.0168856 10.0428 0)
(-0.0261597 10.0578 0)
(-0.0369326 10.0771 0)
(-0.0487077 10.1017 0)
(-0.0606942 10.1322 0)
(-0.0714212 10.1691 0)
(-0.0801997 10.2115 0)
(-0.0876272 10.2584 0)
(-0.0933073 10.3093 0)
(-0.0969004 10.3628 0)
(-0.0981304 10.4162 0)
(-0.0967824 10.4643 0)
(-0.0927094 10.4977 0)
(-0.0858111 10.5012 0)
(-0.0760459 10.4552 0)
(-0.0632058 10.3433 0)
(-0.047965 10.1573 0)
(-0.0278277 9.8819 0)
(-0.0156031 9.41071 0)
(0.00122982 10.0004 0)
(0.0026541 10.0022 0)
(0.00296156 10.0053 0)
(0.00197302 10.0092 0)
(-0.000594795 10.0139 0)
(-0.0048818 10.0198 0)
(-0.0110423 10.0276 0)
(-0.0192136 10.038 0)
(-0.0294624 10.0517 0)
(-0.0416287 10.0697 0)
(-0.0553136 10.0931 0)
(-0.0698197 10.1228 0)
(-0.0841064 10.1595 0)
(-0.0963336 10.2037 0)
(-0.105719 10.2543 0)
(-0.113127 10.31 0)
(-0.118178 10.37 0)
(-0.120572 10.433 0)
(-0.120094 10.496 0)
(-0.116599 10.5537 0)
(-0.110016 10.5966 0)
(-0.100332 10.6096 0)
(-0.0875744 10.5731 0)
(-0.0716529 10.4709 0)
(-0.0529751 10.2944 0)
(-0.0246786 10.0221 0)
(-0.011522 9.4962 0)
(0.00110815 10.0004 0)
(0.00239282 10.002 0)
(0.00256422 10.0049 0)
(0.00144435 10.0083 0)
(-0.00127842 10.0124 0)
(-0.00580909 10.0175 0)
(-0.0123832 10.0242 0)
(-0.0211796 10.0332 0)
(-0.0323022 10.0455 0)
(-0.0457533 10.0621 0)
(-0.0612423 10.0839 0)
(-0.0781779 10.1123 0)
(-0.0956145 10.1481 0)
(-0.11222 10.192 0)
(-0.125745 10.2446 0)
(-0.135357 10.3044 0)
(-0.142269 10.3696 0)
(-0.146149 10.4395 0)
(-0.146775 10.5125 0)
(-0.144021 10.5854 0)
(-0.137844 10.6528 0)
(-0.128276 10.7052 0)
(-0.115363 10.7274 0)
(-0.0992751 10.7002 0)
(-0.0796793 10.6071 0)
(-0.0569749 10.4374 0)
(-0.0201765 10.1938 0)
(-0.00295136 9.56202 0)
(0.00100779 10.0003 0)
(0.00217498 10.0018 0)
(0.00223215 10.0045 0)
(0.00101682 10.0076 0)
(-0.00181402 10.0112 0)
(-0.0065104 10.0156 0)
(-0.0133769 10.0212 0)
(-0.0227035 10.0287 0)
(-0.0346542 10.0394 0)
(-0.0492624 10.0543 0)
(-0.0664216 10.0743 0)
(-0.0856595 10.1009 0)
(-0.106141 10.1352 0)
(-0.126624 10.1781 0)
(-0.145457 10.2304 0)
(-0.159953 10.2924 0)
(-0.169273 10.3623 0)
(-0.17508 10.4378 0)
(-0.177144 10.5181 0)
(-0.175356 10.6013 0)
(-0.169715 10.6842 0)
(-0.160299 10.7613 0)
(-0.147229 10.8229 0)
(-0.130661 10.854 0)
(-0.110607 10.8354 0)
(-0.0864719 10.7506 0)
(-0.0601837 10.5945 0)
(-0.0215908 10.3671 0)
(0.00235399 9.6194 0)
(0.000924186 10.0003 0)
(0.00199275 10.0017 0)
(0.00195649 10.0041 0)
(0.000673206 10.007 0)
(-0.00223237 10.0102 0)
(-0.00703418 10.0139 0)
(-0.0140896 10.0186 0)
(-0.0237826 10.0248 0)
(-0.0364226 10.0336 0)
(-0.0521218 10.0464 0)
(-0.0707935 10.0644 0)
(-0.0921728 10.0888 0)
(-0.115551 10.1211 0)
(-0.139795 10.1623 0)
(-0.163333 10.2135 0)
(-0.184172 10.2752 0)
(-0.199154 10.3477 0)
(-0.207512 10.4285 0)
(-0.211492 10.5149 0)
(-0.211007 10.6058 0)
(-0.2061 10.6994 0)
(-0.196922 10.7922 0)
(-0.18367 10.8787 0)
(-0.166587 10.9491 0)
(-0.145734 10.9885 0)
(-0.120957 10.9781 0)
(-0.0920599 10.9023 0)
(-0.0622399 10.7642 0)
(-0.0244124 10.537 0)
(0.00320214 9.67635 0)
(0.000853976 10.0003 0)
(0.00183956 10.0016 0)
(0.00172787 10.0038 0)
(0.000392925 10.0064 0)
(-0.00255783 10.0093 0)
(-0.00741953 10.0125 0)
(-0.0145846 10.0163 0)
(-0.0245063 10.0213 0)
(-0.0376167 10.0284 0)
(-0.0542147 10.0389 0)
(-0.0743119 10.0544 0)
(-0.0976426 10.0764 0)
(-0.12373 10.1061 0)
(-0.15157 10.145 0)
(-0.179691 10.1944 0)
(-0.206157 10.255 0)
(-0.228608 10.3272 0)
(-0.243432 10.411 0)
(-0.250021 10.5033 0)
(-0.251343 10.6011 0)
(-0.247498 10.7028 0)
(-0.23872 10.8066 0)
(-0.225315 10.909 0)
(-0.207625 11.0043 0)
(-0.185887 11.083 0)
(-0.160068 11.1303 0)
(-0.130691 11.1281 0)
(-0.0974927 11.0623 0)
(-0.0640423 10.9413 0)
(-0.0270796 10.7025 0)
(0.00271762 9.74982 0)
(0.000794604 10.0003 0)
(0.00171004 10.0015 0)
(0.00153826 10.0036 0)
(0.000163208 10.006 0)
(-0.00281092 10.0085 0)
(-0.00769772 10.0112 0)
(-0.0149126 10.0143 0)
(-0.0249577 10.0182 0)
(-0.0383565 10.0238 0)
(-0.0555651 10.0321 0)
(-0.0768317 10.0447 0)
(-0.102007 10.0636 0)
(-0.13058 10.0905 0)
(-0.161803 10.1266 0)
(-0.194329 10.1733 0)
(-0.226304 10.2319 0)
(-0.255392 10.3031 0)
(-0.278897 10.3867 0)
(-0.292754 10.4827 0)
(-0.296638 10.5871 0)
(-0.294371 10.6964 0)
(-0.286293 10.8089 0)
(-0.272847 10.9227 0)
(-0.254516 11.0341 0)
(-0.231717 11.1376 0)
(-0.204671 11.224 0)
(-0.173844 11.279 0)
(-0.14044 11.2845 0)
(-0.10364 11.2293 0)
(-0.0667074 11.1205 0)
(-0.0299316 10.8826 0)
(0.00158468 9.83455 0)
(0.000744078 10.0002 0)
(0.00159993 10.0014 0)
(0.00137879 10.0034 0)
(-2.58654e-05 10.0056 0)
(-0.00300729 10.0078 0)
(-0.00789354 10.0101 0)
(-0.0151137 10.0125 0)
(-0.0252034 10.0155 0)
(-0.0387515 10.0197 0)
(-0.0563325 10.026 0)
(-0.0783947 10.0359 0)
(-0.105084 10.0513 0)
(-0.136019 10.0745 0)
(-0.170369 10.1072 0)
(-0.207067 10.1507 0)
(-0.24437 10.2065 0)
(-0.279995 10.2756 0)
(-0.311223 10.3583 0)
(-0.335042 10.4543 0)
(-0.346963 10.5631 0)
(-0.34708 10.68 0)
(-0.340214 10.8007 0)
(-0.326985 10.9238 0)
(-0.308064 11.0469 0)
(-0.284083 11.1668 0)
(-0.255524 11.278 0)
(-0.223017 11.3716 0)
(-0.187509 11.4336 0)
(-0.150371 11.4461 0)
(-0.110514 11.4005 0)
(-0.0706043 11.3205 0)
(-0.0328748 11.0776 0)
(-0.000176864 9.92852 0)
(0.000700788 10.0002 0)
(0.00150587 10.0013 0)
(0.00124426 10.0032 0)
(-0.000180512 10.0052 0)
(-0.00315925 10.0072 0)
(-0.00802646 10.0091 0)
(-0.0152198 10.011 0)
(-0.0252958 10.0132 0)
(-0.0388891 10.0161 0)
(-0.0566601 10.0207 0)
(-0.0792097 10.0281 0)
(-0.106935 10.0401 0)
(-0.139818 10.0589 0)
(-0.177162 10.0873 0)
(-0.217748 10.127 0)
(-0.260131 10.1792 0)
(-0.30212 10.2452 0)
(-0.341005 10.3259 0)
(-0.373697 10.4212 0)
(-0.396902 10.5303 0)
(-0.405767 10.6524 0)
(-0.400954 10.7818 0)
(-0.388428 10.9138 0)
(-0.369114 11.0469 0)
(-0.343912 11.1789 0)
(-0.313604 11.3066 0)
(-0.279017 11.4248 0)
(-0.241234 11.5248 0)
(-0.201275 11.5928 0)
(-0.16042 11.611 0)
(-0.118319 11.5942 0)
(-0.0753559 11.5397 0)
(-0.0360482 11.2681 0)
(-0.00211516 10.0293 0)
(0.000663741 10.0002 0)
(0.00142493 10.0013 0)
(0.00113042 10.003 0)
(-0.000307691 10.0049 0)
(-0.0032763 10.0067 0)
(-0.00811175 10.0083 0)
(-0.0152557 10.0097 0)
(-0.0252764 10.0111 0)
(-0.0388383 10.013 0)
(-0.0566627 10.016 0)
(-0.0794631 10.0211 0)
(-0.107831 10.03 0)
(-0.142059 10.0446 0)
(-0.18189 10.0677 0)
(-0.226231 10.1024 0)
(-0.27339 10.1503 0)
(-0.321494 10.2124 0)
(-0.367889 10.2899 0)
(-0.409437 10.3833 0)
(-0.442702 10.4922 0)
(-0.464187 10.615 0)
(-0.468749 10.7506 0)
(-0.457775 10.8925 0)
(-0.438506 11.0354 0)
(-0.41219 11.1779 0)
(-0.379966 11.3179 0)
(-0.342939 11.4527 0)
(-0.302337 11.577 0)
(-0.259428 11.6825 0)
(-0.21512 11.7547 0)
(-0.17148 11.7975 0)
(-0.126733 11.809 0)
(-0.0805008 11.755 0)
(-0.0391439 11.4534 0)
(-0.00396856 10.1349 0)
(0.00135473 10.0012 0)
(0.00061981 10.0002 0)
(0.00103311 10.0029 0)
(-0.00041244 10.0046 0)
(-0.00336588 10.0062 0)
(-0.00816127 10.0075 0)
(-0.0152405 10.0085 0)
(-0.0251771 10.0093 0)
(-0.0386531 10.0102 0)
(-0.0564306 10.0118 0)
(-0.079304 10.0149 0)
(-0.10801 10.021 0)
(-0.143084 10.0318 0)
(-0.184653 10.0499 0)
(-0.232145 10.0782 0)
(-0.283965 10.1202 0)
(-0.33787 10.1776 0)
(-0.391541 10.251 0)
(-0.441841 10.3413 0)
(-0.485221 10.4485 0)
(-0.517968 10.5716 0)
(-0.536471 10.7085 0)
(-0.535386 10.8576 0)
(-0.516986 11.0117 0)
(-0.489909 11.1649 0)
(-0.455746 11.316 0)
(-0.415975 11.4634 0)
(-0.372081 11.6042 0)
(-0.325484 11.7336 0)
(-0.277481 11.8427 0)
(-0.230356 11.9373 0)
(-0.183305 12.0048 0)
(-0.134914 12.0215 0)
(-0.0856215 11.9643 0)
(-0.0420368 11.6328 0)
(-0.00573782 10.2432 0)
(0.000947894 10.0028 0)
(0.00127428 10.0012 0)
(0.000567528 10.0002 0)
(-0.000499453 10.0044 0)
(-0.00343358 10.0058 0)
(-0.00818403 10.0069 0)
(-0.0151893 10.0075 0)
(-0.0250227 10.0077 0)
(-0.0383751 10.0077 0)
(-0.0560343 10.0081 0)
(-0.0788499 10.0095 0)
(-0.107664 10.013 0)
(-0.1432 10.0204 0)
(-0.185884 10.0337 0)
(-0.235607 10.056 0)
(-0.291384 10.0906 0)
(-0.351016 10.1413 0)
(-0.411654 10.2096 0)
(-0.470507 10.2956 0)
(-0.523963 10.3998 0)
(-0.56812 10.5217 0)
(-0.599071 10.6596 0)
(-0.613203 10.8109 0)
(-0.605069 10.9733 0)
(-0.577989 11.1389 0)
(-0.542111 11.3016 0)
(-0.499423 11.4606 0)
(-0.451788 11.6142 0)
(-0.400923 11.76 0)
(-0.348291 11.8928 0)
(-0.297171 12.0233 0)
(-0.246526 12.14 0)
(-0.194628 12.2107 0)
(-0.142633 12.2293 0)
(-0.0904886 12.1667 0)
(-0.0446436 11.806 0)
(-0.00735558 10.3524 0)
(-0.000576832 10.0042 0)
(0.000859189 10.0027 0)
(0.00117661 10.0011 0)
(0.000517799 10.0002 1.87613e-19)
(-0.00348467 10.0055 0)
(-0.00818656 10.0063 0)
(-0.0151131 10.0066 0)
(-0.024832 10.0063 0)
(-0.0380364 10.0056 0)
(-0.0555279 10.0048 0)
(-0.0781924 10.0046 0)
(-0.106947 10.0059 0)
(-0.142651 10.0101 0)
(-0.185965 10.0192 0)
(-0.23715 10.0358 0)
(-0.295771 10.0633 0)
(-0.360329 10.1054 0)
(-0.427935 10.1662 0)
(-0.495058 10.2469 0)
(-0.558451 10.3468 0)
(-0.61407 10.466 0)
(-0.657732 10.6033 0)
(-0.685448 10.7563 0)
(-0.693727 10.9219 0)
(-0.677128 11.0973 0)
(-0.640176 11.2737 0)
(-0.594641 11.445 0)
(-0.542932 11.6107 0)
(-0.487189 11.7695 0)
(-0.429241 11.9186 0)
(-0.373084 12.0724 0)
(-0.317984 12.2238 0)
(-0.261777 12.3412 0)
(-0.205234 12.4126 0)
(-0.149739 12.4308 0)
(-0.0949892 12.3613 0)
(-0.0469381 11.9725 0)
(-0.00879377 10.4608 0)
(-0.00353226 10.0052 0)
(-0.000639398 10.004 0)
(0.000759963 10.0025 8.37996e-19)
(0.00108312 10.001 -5.94478e-19)
(0.000470476 10.0002 -3.7418e-19)
(-0.00817464 10.0058 0)
(-0.0150197 10.0058 0)
(-0.0246192 10.005 0)
(-0.0376613 10.0037 0)
(-0.054953 10.0019 0)
(-0.0774019 10.0003 0)
(-0.105975 9.99963 0)
(-0.141631 10.0011 0)
(-0.185206 10.0063 0)
(-0.237251 10.0178 0)
(-0.297776 10.0385 0)
(-0.365932 10.0722 0)
(-0.439619 10.1231 0)
(-0.515127 10.1955 0)
(-0.588226 10.2899 0)
(-0.655253 10.405 0)
(-0.711795 10.5402 0)
(-0.753494 10.6934 0)
(-0.776409 10.8618 0)
(-0.777308 11.0414 0)
(-0.750863 11.229 0)
(-0.702963 11.4153 0)
(-0.647076 11.5942 0)
(-0.585948 11.7654 0)
(-0.521886 11.9277 0)
(-0.459946 12.0976 0)
(-0.399273 12.2718 0)
(-0.337511 12.4227 0)
(-0.275917 12.5388 0)
(-0.214965 12.6091 0)
(-0.156167 12.6251 0)
(-0.0990632 12.5477 0)
(-0.0489292 12.132 0)
(-0.0100469 10.5672 0)
(-0.00816874 10.0054 0)
(-0.00353216 10.0048 -1.79083e-18)
(-0.00069002 10.0037 -8.83947e-19)
(0.000666498 10.0023 4.1808e-19)
(0.00099352 10.0009 -3.95126e-19)
(0.000425623 10.0001 0)
(-0.0149152 10.0051 0)
(-0.0243934 10.0039 0)
(-0.0372676 10.002 0)
(-0.0543411 9.99939 0)
(-0.0765318 9.99654 0)
(-0.104839 9.99406 0)
(-0.140291 9.99298 0)
(-0.183851 9.9948 0)
(-0.236294 10.0016 0)
(-0.297984 10.0161 0)
(-0.368604 10.0419 0)
(-0.446805 10.0831 0)
(-0.529749 10.1444 0)
(-0.612834 10.2298 0)
(-0.691121 10.3395 0)
(-0.760604 10.4709 0)
(-0.816601 10.6227 0)
(-0.854703 10.7923 0)
(-0.871164 10.9759 0)
(-0.863153 11.1689 0)
(-0.825569 11.3678 0)
(-0.765789 11.5629 0)
(-0.698976 11.7481 0)
(-0.628105 11.9232 0)
(-0.559464 12.1065 0)
(-0.492351 12.2967 0)
(-0.423792 12.4698 0)
(-0.355567 12.6182 0)
(-0.288797 12.7313 0)
(-0.223752 12.799 0)
(-0.161891 12.8115 0)
(-0.102685 12.7254 0)
(-0.050638 12.284 0)
(-0.0111219 10.6706 0)
(-0.0148307 10.0044 0)
(-0.00806601 10.0048 3.77676e-18)
(-0.00347241 10.0044 0)
(-0.000736404 10.0034 8.81679e-19)
(0.000579507 10.0021 1.37596e-22)
(0.000907733 10.0009 0)
(0.000383262 10.0001 0)
(-0.0241609 10.003 0)
(-0.0368663 10.0005 0)
(-0.0537148 9.99715 0)
(-0.0756231 9.99319 0)
(-0.103609 9.98913 0)
(-0.138747 9.98583 0)
(-0.182092 9.98456 0)
(-0.234585 9.98717 0)
(-0.296868 9.99612 0)
(-0.369053 10.0146 0)
(-0.450414 10.0466 0)
(-0.538971 10.0967 0)
(-0.631061 10.1697 0)
(-0.721115 10.2698 0)
(-0.803511 10.396 0)
(-0.874015 10.5448 0)
(-0.927792 10.7139 0)
(-0.96054 10.8999 0)
(-0.968853 11.0983 0)
(-0.950441 11.3039 0)
(-0.900536 11.513 0)
(-0.828089 11.7157 0)
(-0.749881 11.9055 0)
(-0.673762 12.1019 0)
(-0.599137 12.3056 0)
(-0.522653 12.4946 0)
(-0.446435 12.6646 0)
(-0.372009 12.8086 0)
(-0.300373 12.9176 0)
(-0.231573 12.9816 0)
(-0.166918 12.9895 0)
(-0.105858 12.8943 0)
(-0.0520896 12.4284 0)
(-0.0120323 10.7702 0)
(-0.0239681 10.0021 0)
(-0.0145781 10.0037 4.92489e-22)
(-0.00782518 10.0042 0)
(-0.00341224 10.0039 -9.29659e-19)
(-0.000772993 10.0031 8.50659e-23)
(0.000498864 10.002 0)
(0.000825886 10.0008 0)
(0.0003434 10.0001 0)
(-0.0364642 9.99918 0)
(-0.0530877 9.99516 0)
(-0.0747048 9.99022 0)
(-0.102337 9.98476 0)
(-0.137087 9.97948 0)
(-0.180076 9.97547 0)
(-0.232365 9.97431 0)
(-0.294808 9.97822 0)
(-0.367856 9.9901 0)
(-0.451295 10.0136 0)
(-0.54387 10.0531 0)
(-0.642873 10.1135 0)
(-0.743726 10.1999 0)
(-0.839838 10.3162 0)
(-0.924973 10.4602 0)
(-0.994814 10.6271 0)
(-1.04453 10.8138 0)
(-1.07009 11.016 0)
(-1.06857 11.2286 0)
(-1.03835 11.4457 0)
(-0.975074 11.6638 0)
(-0.889284 11.8723 0)
(-0.805055 12.084 0)
(-0.721999 12.3013 0)
(-0.636243 12.5038 0)
(-0.550628 12.6894 0)
(-0.467063 12.8545 0)
(-0.386793 12.9931 0)
(-0.310653 13.0968 0)
(-0.238452 13.1561 0)
(-0.171279 13.1587 0)
(-0.1086 13.0542 0)
(-0.0533097 12.565 0)
(-0.0127949 10.8655 0)
(-0.0361283 9.99801 0)
(-0.0235075 10.0011 -2.09838e-18)
(-0.0140683 10.0029 0)
(-0.00759164 10.0036 0)
(-0.00333741 10.0035 2.78063e-18)
(-0.000799964 10.0028 0)
(0.000424613 10.0018 0)
(0.000748088 10.0007 7.81358e-19)
(0.000306066 10.0001 0)
(-0.0524665 9.9934 0)
(-0.0737934 9.9876 0)
(-0.10106 9.9809 0)
(-0.135378 9.97387 0)
(-0.177914 9.9674 0)
(-0.229818 9.96289 0)
(-0.292101 9.96226 0)
(-0.365476 9.96812 0)
(-0.450143 9.98383 0)
(-0.545446 10.0135 0)
(-0.649504 10.062 0)
(-0.758788 10.1343 0)
(-0.867722 10.2357 0)
(-0.968671 10.3696 0)
(-1.05489 10.5325 0)
(-1.12218 10.7181 0)
(-1.16588 10.9224 0)
(-1.18237 11.1404 0)
(-1.1694 11.3662 0)
(-1.12608 11.5938 0)
(-1.04849 11.819 0)
(-0.955715 12.0504 0)
(-0.863408 12.2837 0)
(-0.767145 12.5002 0)
(-0.670516 12.6993 0)
(-0.576127 12.8796 0)
(-0.485626 13.0386 0)
(-0.39994 13.1708 0)
(-0.31968 13.2685 0)
(-0.244436 13.3224 0)
(-0.175018 13.319 0)
(-0.110942 13.2052 0)
(-0.0543249 12.694 0)
(-0.013428 10.9562 0)
(-0.0519474 9.99184 0)
(-0.0353874 9.99672 0)
(-0.0226166 10 -2.18375e-18)
(-0.0135792 10.0021 -2.06644e-18)
(-0.0073367 10.003 -3.9084e-18)
(-0.00324783 10.0031 0)
(-0.000817323 10.0025 -1.74528e-18)
(0.000356905 10.0017 -1.64803e-18)
(0.000674355 10.0007 7.77647e-19)
(0.000271214 10.0001 0)
(-0.0728959 9.98528 0)
(-0.0997978 9.97748 0)
(-0.133669 9.96889 0)
(-0.175694 9.96025 0)
(-0.227087 9.95274 0)
(-0.288977 9.94805 0)
(-0.362279 9.94849 0)
(-0.447517 9.95712 0)
(-0.544527 9.97777 0)
(-0.652122 10.015 0)
(-0.767698 10.0739 0)
(-0.886811 10.1599 0)
(-1.00283 10.2778 0)
(-1.10708 10.4306 0)
(-1.19249 10.6133 0)
(-1.25516 10.818 0)
(-1.29078 11.0397 0)
(-1.29636 11.2727 0)
(-1.27039 11.5106 0)
(-1.21281 11.7468 0)
(-1.12845 11.9963 0)
(-1.02614 12.2503 0)
(-0.918083 12.4834 0)
(-0.808873 12.6966 0)
(-0.70179 12.8904 0)
(-0.599106 13.0642 0)
(-0.502151 13.216 0)
(-0.411509 13.3411 0)
(-0.327526 13.4322 0)
(-0.249587 13.4801 0)
(-0.178188 13.4704 0)
(-0.112919 13.3474 0)
(-0.0551605 12.8153 0)
(-0.0139487 11.0422 0)
(-0.0721476 9.98322 0)
(-0.050838 9.99015 -2.3333e-18)
(-0.0339734 9.9953 2.30019e-18)
(-0.0217686 9.99897 -1.17726e-21)
(-0.0130595 10.0013 2.05944e-18)
(-0.00706026 10.0025 1.94739e-18)
(-0.003144 10.0027 3.67986e-18)
(-0.000824934 10.0023 2.60637e-18)
(0.000295697 10.0015 -8.20082e-19)
(0.00060473 10.0006 0)
(0.000238827 10.0001 0)
(-0.098559 9.97445 0)
(-0.131983 9.96447 0)
(-0.173475 9.95391 0)
(-0.224279 9.94373 0)
(-0.285614 9.93541 0)
(-0.35855 9.93099 0)
(-0.443863 9.93322 0)
(-0.541783 9.94562 0)
(-0.651701 9.97245 0)
(-0.771803 10.0187 0)
(-0.898661 10.0898 0)
(-1.02683 10.191 0)
(-1.14861 10.327 0)
(-1.25435 10.4999 0)
(-1.33682 10.703 0)
(-1.39268 10.9267 0)
(-1.41817 11.1653 0)
(-1.41103 11.4123 0)
(-1.37063 11.6607 0)
(-1.30763 11.9225 0)
(-1.21353 12.1961 0)
(-1.09233 12.4509 0)
(-0.968713 12.6811 0)
(-0.846982 12.889 0)
(-0.730005 13.0761 0)
(-0.619596 13.2424 0)
(-0.516714 13.3863 0)
(-0.42159 13.5036 0)
(-0.334277 13.5876 0)
(-0.253975 13.6292 0)
(-0.180845 13.6131 0)
(-0.11457 13.481 0)
(-0.0558404 12.9293 0)
(-0.0143732 11.1233 0)
(-0.0975302 9.97176 0)
(-0.0705635 9.98102 -3.4675e-21)
(-0.0487247 9.98832 0)
(-0.032637 9.99393 -1.89065e-21)
(-0.0208779 9.99794 0)
(-0.012509 10.0005 -2.05206e-18)
(-0.00676313 10.0019 -3.87884e-18)
(-0.00302577 10.0023 8.94551e-23)
(-0.00082297 10.0021 1.72906e-18)
(0.000240747 10.0014 -8.15708e-19)
(0.000539198 10.0005 7.69221e-19)
(0.000208877 10.0001 0)
(-0.130331 9.96056 0)
(-0.171287 9.94828 0)
(-0.221471 9.93574 0)
(-0.282147 9.92418 0)
(-0.354508 9.91541 0)
(-0.439529 9.91188 0)
(-0.53775 9.91679 0)
(-0.649033 9.9341 0)
(-0.772233 9.96856 0)
(-0.904805 10.0255 0)
(-1.0424 10.1104 0)
(-1.17855 10.2285 0)
(-1.30446 10.384 0)
(-1.4096 10.578 0)
(-1.48682 10.8018 0)
(-1.53361 11.0443 0)
(-1.54692 11.299 0)
(-1.52535 11.5584 0)
(-1.48067 11.8339 0)
(-1.40893 12.1217 0)
(-1.29378 12.3976 0)
(-1.15381 12.6502 0)
(-1.01508 12.8752 0)
(-0.881416 13.0763 0)
(-0.755195 13.2554 0)
(-0.637688 13.4134 0)
(-0.529429 13.5489 0)
(-0.430296 13.6581 0)
(-0.340034 13.7348 0)
(-0.257677 13.7698 0)
(-0.183047 13.7472 0)
(-0.115931 13.6063 0)
(-0.0563863 13.0361 0)
(-0.014716 11.1996 0)
(-0.128966 9.95709 0)
(-0.0953442 9.96893 2.58775e-18)
(-0.0675337 9.9787 -2.55715e-18)
(-0.0467394 9.98657 2.417e-18)
(-0.0312423 9.99261 0)
(-0.0199436 9.99697 0)
(-0.0119293 9.99982 2.04365e-18)
(-0.00644586 10.0014 -1.93041e-18)
(-0.00289322 10.002 1.19511e-22)
(-0.000811062 10.0018 8.60019e-19)
(0.000192085 10.0013 -8.11121e-19)
(0.000477679 10.0005 -7.63818e-19)
(0.000181492 10.0001 0)
(-0.169143 9.94329 0)
(-0.2187 9.92864 0)
(-0.278673 9.9142 0)
(-0.350323 9.90155 0)
(-0.434785 9.89285 0)
(-0.53285 9.891 0)
(-0.644759 9.89965 0)
(-0.769917 9.92324 0)
(-0.906541 9.9669 0)
(-1.05126 10.0362 0)
(-1.19874 10.1367 0)
(-1.34145 10.2733 0)
(-1.46956 10.4496 0)
(-1.57179 10.6653 0)
(-1.64135 10.9098 0)
(-1.67679 11.1706 0)
(-1.67591 11.4399 0)
(-1.65148 11.7282 0)
(-1.59881 12.0316 0)
(-1.50489 12.3237 0)
(-1.36859 12.5987 0)
(-1.2103 12.8466 0)
(-1.05711 13.0646 0)
(-0.912232 13.2574 0)
(-0.777468 13.4278 0)
(-0.653516 13.5769 0)
(-0.54043 13.7035 0)
(-0.437745 13.8045 0)
(-0.344898 13.8737 0)
(-0.260768 13.902 0)
(-0.18485 13.873 0)
(-0.11704 13.7236 0)
(-0.0568191 13.136 0)
(-0.0149899 11.2713 0)
(-0.167384 9.93886 0)
(-0.126028 9.95349 0)
(-0.0911342 9.966 2.68965e-18)
(-0.0647024 9.97647 -5.10118e-18)
(-0.0446754 9.98489 4.82474e-18)
(-0.0297875 9.99136 -4.56114e-18)
(-0.0189692 9.99603 0)
(-0.0113214 9.99914 2.03512e-18)
(-0.00610873 10.0009 -1.92077e-18)
(-0.00274771 10.0016 -1.81304e-18)
(-0.000788495 10.0016 0)
(0.000149471 10.0011 8.054e-19)
(0.000420303 10.0004 0)
(0.000157174 10 0)
(-0.215982 9.92234 0)
(-0.275239 9.90533 0)
(-0.346116 9.88922 0)
(-0.42984 9.8759 0)
(-0.527413 9.86797 0)
(-0.639383 9.86877 0)
(-0.76561 9.88243 0)
(-0.904946 9.91382 0)
(-1.05487 9.96839 0)
(-1.2111 10.0519 0)
(-1.36728 10.1696 0)
(-1.51483 10.3262 0)
(-1.64296 10.5242 0)
(-1.7398 10.762 0)
(-1.79919 11.0271 0)
(-1.821 11.3049 0)
(-1.81902 11.605 0)
(-1.78765 11.9235 0)
(-1.71136 12.2336 0)
(-1.5948 12.5265 0)
(-1.43757 12.7977 0)
(-1.26164 13.0387 0)
(-1.09484 13.2483 0)
(-0.939564 13.4318 0)
(-0.796984 13.5928 0)
(-0.667239 13.7324 0)
(-0.549868 13.8501 0)
(-0.444063 13.9428 0)
(-0.348969 14.0045 0)
(-0.263323 14.0262 0)
(-0.186308 13.9908 0)
(-0.11793 13.8333 0)
(-0.0571563 13.2294 0)
(-0.0152049 11.3384 0)
(-0.213771 9.91675 0)
(-0.163525 9.93431 0)
(-0.120326 9.94982 0)
(-0.0872223 9.96321 5.36491e-18)
(-0.0617685 9.97436 -5.07705e-18)
(-0.0425317 9.9833 4.80109e-18)
(-0.0282795 9.99017 0)
(-0.0179565 9.99515 -2.14344e-18)
(-0.0106859 9.99849 0)
(-0.00575254 10.0005 1.91039e-18)
(-0.00258805 10.0013 0)
(-0.000756925 10.0014 0)
(0.000114091 10.001 0)
(0.000368342 10.0004 7.78621e-19)
(0.000135957 10 3.75044e-19)
(-0.271866 9.89746 0)
(-0.341941 9.87825 0)
(-0.424844 9.8608 0)
(-0.521694 9.84743 0)
(-0.633305 9.84115 0)
(-0.759912 9.84578 0)
(-0.9009 9.86589 0)
(-1.05447 9.90675 0)
(-1.21727 9.97405 0)
(-1.38406 10.0735 0)
(-1.54745 10.2102 0)
(-1.69783 10.388 0)
(-1.82356 10.6084 0)
(-1.91243 10.8685 0)
(-1.95912 11.1532 0)
(-1.98198 11.4638 0)
(-1.97449 11.7965 0)
(-1.91819 12.1246 0)
(-1.81741 12.4376 0)
(-1.67814 12.7282 0)
(-1.50051 12.9932 0)
(-1.30786 13.2255 0)
(-1.12838 13.4254 0)
(-0.963597 13.5989 0)
(-0.81395 13.7499 0)
(-0.679036 13.88 0)
(-0.557895 13.9887 0)
(-0.449373 14.0731 0)
(-0.352343 14.1274 0)
(-0.265409 14.1426 0)
(-0.187468 14.1009 0)
(-0.118631 13.9357 0)
(-0.0574134 13.3164 0)
(-0.0153694 11.401 0)
(-0.269146 9.89047 0)
(-0.208796 9.91105 0)
(-0.155965 9.92975 5.98351e-18)
(-0.115055 9.94634 5.66554e-18)
(-0.0831768 9.96057 5.3594e-18)
(-0.0587315 9.97236 -5.06662e-18)
(-0.0403187 9.98181 0)
(-0.0267204 9.98905 0)
(-0.0169065 9.99432 0)
(-0.0100242 9.99789 4.02781e-18)
(-0.00537939 10 1.89961e-18)
(-0.00241468 10.001 1.78953e-18)
(-0.000716355 10.0012 0)
(8.51995e-05 10.0009 -8.20934e-19)
(0.000321633 10.0004 -3.96129e-19)
(0.000117364 10 0)
(-0.337834 9.8685 0)
(-0.419864 9.84737 0)
(-0.515879 9.82911 0)
(-0.626837 9.81647 0)
(-0.753302 9.81292 0)
(-0.895112 9.82275 0)
(-1.05108 9.85095 0)
(-1.21865 9.90309 0)
(-1.3936 9.98497 0)
(-1.56968 10.1022 0)
(-1.73847 10.2593 0)
(-1.88943 10.4594 0)
(-2.01026 10.7028 0)
(-2.08845 10.9846 0)
(-2.13885 11.304 0)
(-2.15814 11.6501 0)
(-2.12466 11.9958 0)
(-2.04208 12.3294 0)
(-1.91637 12.642 0)
(-1.75465 12.9275 0)
(-1.55742 13.1841 0)
(-1.34908 13.4061 0)
(-1.15797 13.5954 0)
(-0.984559 13.7583 0)
(-0.828587 13.8991 0)
(-0.689095 14.0196 0)
(-0.564665 14.1193 0)
(-0.453796 14.1955 0)
(-0.355108 14.2426 0)
(-0.267091 14.2515 0)
(-0.188374 14.2038 0)
(-0.119172 14.0312 0)
(-0.0576015 13.3976 0)
(-0.0154948 11.4596 0)
(-0.334561 9.85985 0)
(-0.262835 9.88339 0)
(-0.198957 9.90541 -1.25881e-17)
(-0.149009 9.92543 1.78221e-20)