# Time currentProc (coordinatesa coordinatesb coordinatesc coordinatesd) celli tetFacei tetPti facei stepFraction behind nBehind origProc origId active typeId nParticle d dTarget  (Ux Uy Uz) rho age tTurb (UTurbx UTurby UTurbz) T Cp mass0 nPhases(Y1..YN)
0.090015 0 (0 0.191719 0.5 0.308281) 2360 15708 2 15708 0.285505 0 0 0 141499 1 -1 1.17318 0.000107433 0 (-3.02024 5.24431 0) 685.546 0.0193088 0 (0 0 0) 293.409 2222.23 6.78081e-10 1(1) 0.000125023 (-7.58367e-06 -0.295 8.13152e-20) 0.0203167 0.000404319 0 0 0 0 0 0 1 0.00788492 0
0.090015 0 (0 0.5 0.201019 0.298981) 2605 15715 1 15715 0.200263 0 0 0 152596 1 -1 0.884172 0.000113889 0 (-8.30231 5.87342 0) 683.114 0.0137649 0 (0 0 0) 296.298 2232.47 6.96792e-10 1(1) 0.000126163 (-9.9521e-06 -0.295 2.71051e-20) 0.0200195 0.000391873 0 0 0 0 0 0 1 0.00669317 0
0.090015 0 (0 0.243054 0.5 0.256946) 2465 15711 2 15711 0.398976 0 0 0 153678 1 -1 0.707203 0.000122761 0 (-9.72036 4.91919 0) 682.149 0.0132292 0 (0 0 0) 297.44 2236.57 9.05028e-10 1(1) 0.000137653 (-6.14483e-06 -0.295 8.13152e-20) 0.0199023 0.000387144 0 0 0 0 0 0 1 0.00724026 0
0.090015 1 (0 0.5 0.302569 0.197431) 2227 15723 2 15723 0.259898 0 0 0 137952 1 -1 2.03148 9.03026e-05 0 (1.92662 6.58566 0) 686.848 0.02108 0 (0 0 0) 291.856 2216.81 1.0536e-09 1(1) 0.000144807 (6.4541e-06 -0.295 0) 0.0204768 0.000411312 0 0 0 0 0 0 1 0.00566413 0
0.090015 1 (0 0.377622 0.122378 0.5) 3119 15642 1 15642 0.270051 0 0 0 139962 1 -1 3.21043 7.6459e-05 0 (4.24484 12.1753 0) 687.418 0.0200763 0 (0 0 0) 291.175 2214.45 5.60907e-10 1(1) 0.000117362 (7.9321e-05 -0.295 5.42101e-20) 0.0205471 0.000414447 0 0 0 0 0 0 1 0.00319586 0
0.090015 1 (0 0.5 0.0685714 0.431429) 3047 15638 2 15638 0.800807 0 0 0 146211 1 -1 2.08811 8.73062e-05 0 (8.16134 11.9134 0) 685.938 0.0169639 0 (0 0 0) 292.942 2220.59 4.40186e-10 1(1) 0.000108254 (8.049e-05 -0.295 5.42101e-20) 0.0203648 0.000406398 0 0 0 0 0 0 1 0.00364003 0
0.090015 1 (0 0.5 0.0786335 0.421367) 2851 15705 2 15705 0.396905 0 0 0 150131 1 -1 2.53079 8.01601e-05 0 (6.49591 9.0143 0) 686.107 0.0149989 0 (0 0 0) 292.74 2219.89 2.23432e-10 1(1) 8.63534e-05 (1.71243e-05 -0.295 -5.42101e-20) 0.0203856 0.000407305 0 0 0 0 0 0 1 0.00377686 0
0.090015 1 (0 0.5 0.186219 0.313781) 2911 15631 2 15631 0.226664 0 0 0 149034 1 -1 2.01919 8.68545e-05 0 (8.43074 9.55064 0) 685.607 0.0155443 0 (0 0 0) 293.336 2221.97 2.89167e-10 1(1) 9.41053e-05 (5.68371e-05 -0.295 5.42101e-20) 0.0203242 0.000404645 0 0 0 0 0 0 1 0.00399102 0
0.090015 1 (0 0.0948447 0.405155 0.5) 2122 15720 1 15720 0.170955 0 0 0 152742 1 -1 1.06946 0.00010685 0 (10.1169 5.7819 0) 683.448 0.0136922 0 (0 0 0) 295.903 2231.06 5.58264e-10 1(1) 0.000117177 (3.26527e-05 -0.295 0) 0.0200601 0.000393535 0 0 0 0 0 0 1 0.00568217 0
0.090015 1 (0 0.5 0.271622 0.228378) 2437 15729 2 15729 0.784607 0 0 0 151467 1 -1 0.846081 0.000115477 0 (11.4714 6.19796 0) 682.992 0.0143368 0 (0 0 0) 296.443 2232.99 7.52735e-10 1(1) 0.000129453 (5.67819e-05 -0.295 0) 0.0200046 0.000391268 0 0 0 0 0 0 1 0.00601921 0
0.090015 1 (0 0.5 0.21389 0.28611) 2087 15719 2 15719 0.18524 0 0 0 153853 1 -1 0.631994 0.000127967 0 (12.8176 4.60909 0) 681.554 0.0131382 0 (0 0 0) 298.144 2239.11 1.01439e-09 1(1) 0.000142988 (4.34169e-05 -0.295 -5.42101e-20) 0.0198302 0.000384284 0 0 0 0 0 0 1 0.00683903 0
0.090015 3 (0 0.343379 0.5 0.156621) 1968 15594 2 15594 0.693783 0 0 3 303 1 -1 12.2002 0.000139909 0 (-0.0528792 5.14552 0) 688.662 0.0363775 0 (0 0 0) 289.686 2209.33 1.01181e-09 1(1) 0.000141277 (-0.119845 0.0783891 -5.42101e-20) 0.0207009 0.000421452 0 0 0 0 0 0 1 0.0126153 0
0.090015 3 (0 0.5 0.347187 0.152813) 1583 15583 1 15583 0.567553 0 0 0 126654 1 -1 4.9981 6.75792e-05 0 (-0.681763 8.5918 0) 689.034 0.0267291 0 (0 0 0) 289.24 2207.8 1.79137e-10 1(1) 8.02219e-05 (-6.45989e-06 -0.295 8.13152e-20) 0.020747 0.000423595 0 0 0 0 0 0 1 0.00322869 0
0.090015 3 (0 0.0610779 0.5 0.438922) 525 15562 2 15562 0.994769 0 0 0 147707 1 -1 1.10195 0.000108318 0 (-9.26328 8.63658 0) 684.324 0.0162195 0 (0 0 0) 294.862 2227.36 1.1331e-09 1(1) 0.000148361 (-7.87988e-05 -0.295 8.13152e-20) 0.0201671 0.000397969 0 0 0 0 0 0 1 0.00555756 0
0.090015 3 (0 0.326706 0.5 0.173294) 525 15562 2 15562 0.943138 0 0 0 148294 1 -1 1.21579 0.000103991 0 (-8.98184 8.73144 0) 684.548 0.0159257 0 (0 0 0) 294.596 2226.41 6.88546e-10 1(1) 0.000125663 (-7.22973e-05 -0.295 0) 0.0201945 0.000399121 0 0 0 0 0 0 1 0.00526262 0
0.090015 3 (0 0.336184 0.5 0.163816) 490 15561 2 15561 0.929368 0 0 0 133641 1 -1 2.57902 8.45638e-05 0 (-1.42048 7.59879 0) 687.668 0.0232434 0 (0 0 0) 290.876 2213.42 7.65911e-10 1(1) 0.000130204 (-2.29691e-06 -0.295 1.35525e-19) 0.0205779 0.000415833 0 0 0 0 0 0 1 0.0048516 0
0.090015 3 (0 0.5 0.441047 0.0589534) 315 15556 1 15556 0.393696 0 0 0 151598 1 -1 1.16394 0.000104646 0 (-9.43411 7.81344 0) 683.926 0.0142651 0 (0 0 0) 295.335 2229.03 5.14857e-10 1(1) 0.000114058 (-4.8403e-05 -0.295 1.0842e-19) 0.0201185 0.000395946 0 0 0 0 0 0 1 0.00536869 0
0.0900299 0 (0 8.79646e-05 0.5 0.499912) 2990 15726 2 15726 0.614624 0 0 0 152691 1 -1 1.06817 0.000106868 0 (-9.19202 7.19006 0) 683.58 0.0137382 0 (0 0 0) 295.745 2230.5 5.45307e-10 1(1) 0.000116264 (-3.18308e-05 -0.295 5.42101e-20) 0.0200763 0.000394199 0 0 0 0 0 0 1 0.00567206 0
0.0900299 0 (0 0.5 0.432242 0.0677577) 2675 15717 1 15717 0.769548 0 0 0 153833 1 -1 0.815348 0.000117081 0 (-10.1878 5.9252 0) 682.511 0.0131724 0 (0 0 0) 297.013 2235.03 7.38426e-10 1(1) 0.000128627 (-1.86251e-05 -0.295 2.71051e-20) 0.0199462 0.000388903 0 0 0 0 0 0 1 0.00648116 0
0.0900299 0 (0 0.5 0.202963 0.297037) 2815 15721 1 15721 0.989033 0 0 0 154115 1 -1 0.633014 0.000126343 0 (-12.4807 5.82038 0) 681.657 0.0130337 0 (0 0 0) 298.023 2238.68 9.00005e-10 1(1) 0.000137398 (-4.24222e-05 -0.295 1.35525e-19) 0.0198425 0.000384772 0 0 0 0 0 0 1 0.00667538 0
0.0900299 0 (0 0.5 0.387023 0.112977) 2570 15714 1 15714 0.87401 0 0 0 154141 1 -1 0.734792 0.000121711 0 (-10.4269 5.37321 0) 682.086 0.0130192 0 (0 0 0) 297.515 2236.84 8.48885e-10 1(1) 0.000134745 (-1.06831e-05 -0.295 8.13152e-20) 0.0198946 0.000386839 0 0 0 0 0 0 1 0.00687512 0
0.0900299 0 (0 0.5 0.377336 0.122664) 2745 15719 1 15719 0.0804378 0 0 0 154553 1 -1 0.555233 0.000132925 0 (-13.3616 5.27167 0) 681.033 0.0128027 0 (0 0 0) 298.759 2241.35 1.04114e-09 1(1) 0.000144234 (-4.21255e-05 -0.295 8.13152e-20) 0.0197671 0.000381812 0 0 0 0 0 0 1 0.00703538 0
0.0900299 1 (0 0.391838 0.108162 0.5) 3209 15647 1 15647 0.993002 0 0 0 128240 1 -1 3.90565 7.35652e-05 0 (0.665354 8.68169 0) 688.611 0.0259584 0 (0 0 0) 289.748 2209.54 2.35082e-10 1(1) 8.78289e-05 (3.22732e-07 -0.295 5.42101e-20) 0.0206945 0.000421158 0 0 0 0 0 0 1 0.00365761 0
0.0900299 1 (0 0.303885 0.196115 0.5) 2971 15634 1 15634 0.700366 0 0 0 135022 1 -1 2.41155 8.55389e-05 0 (2.04124 9.11933 0) 687.652 0.0225651 0 (0 0 0) 290.896 2213.48 3.35945e-10 1(1) 9.89283e-05 (1.27766e-05 -0.295 0) 0.0205759 0.000415744 0 0 0 0 0 0 1 0.00453336 0
0.0900299 1 (0 0.214339 0.285661 0.5) 3191 15646 1 15646 0.327358 0 0 0 141347 1 -1 4.43889 6.83796e-05 0 (2.85446 13.2139 0) 687.838 0.0193993 0 (0 0 0) 290.672 2212.71 1.58612e-10 1(1) 7.70329e-05 (6.42974e-05 -0.295 5.42101e-20) 0.0205989 0.000416787 0 0 0 0 0 0 1 0.00265719 0
0.0900299 1 (0 0.455594 0.0444059 0.5) 3101 15641 1 15641 0.455882 0 0 0 145248 1 -1 2.97513 7.73609e-05 0 (6.33471 12.7938 0) 686.781 0.0174554 0 (0 0 0) 291.936 2217.09 2.11484e-10 1(1) 8.47859e-05 (8.10048e-05 -0.295 0) 0.0204685 0.000410944 0 0 0 0 0 0 1 0.0030895 0
0.0900299 1 (0 0.5 0.475174 0.0248264) 2971 15634 2 15634 0.552677 0 0 0 148737 1 -1 3.22259 7.43176e-05 0 (5.373 10.6767 0) 686.825 0.0157118 0 (0 0 0) 291.884 2216.9 1.81801e-10 1(1) 8.06176e-05 (1.71867e-05 -0.295 0) 0.0204739 0.000411184 0 0 0 0 0 0 1 0.00325491 0
0.0900299 1 (0 0.5 0.243968 0.256032) 2650 15696 2 15696 0.847412 0 0 0 151200 1 -1 1.96673 8.6218e-05 0 (7.40696 7.77777 0) 685.438 0.0144861 0 (0 0 0) 293.537 2222.68 2.74918e-10 1(1) 9.25334e-05 (1.97618e-05 -0.295 1.0842e-19) 0.0203035 0.000403752 0 0 0 0 0 0 1 0.00428721 0
0.0900299 1 (0 0.5 0.176221 0.323779) 2157 15721 2 15721 0.56625 0 0 0 152731 1 -1 1.01998 0.000108627 0 (10.3743 5.72912 0) 683.304 0.013717 0 (0 0 0) 296.073 2231.66 5.92553e-10 1(1) 0.000119529 (3.51529e-05 -0.295 -5.42101e-20) 0.0200427 0.000392819 0 0 0 0 0 0 1 0.0057764 0
0.0900299 1 (0 0.00581357 0.494186 0.5) 1842 15712 1 15712 0.888034 0 0 0 154140 1 -1 0.795111 0.000118443 0 (10.4469 4.1028 0) 682.273 0.0130202 0 (0 0 0) 297.295 2236.05 7.8539e-10 1(1) 0.000131298 (1.51739e-05 -0.295 5.42101e-20) 0.0199172 0.000387741 0 0 0 0 0 0 1 0.00678841 0
0.0900299 1 (0 0.5 0.124708 0.375292) 3083 15640 2 15640 0.842708 0 0 0 145271 1 -1 1.84021 9.17213e-05 0 (8.04625 12.1662 0) 685.684 0.0174492 0 (0 0 0) 293.244 2221.65 1.11438e-09 1(1) 0.00014754 (9.07062e-05 -0.295 0) 0.0203336 0.000405051 0 0 0 0 0 0 1 0.00392489 0
0.0900299 1 (0 0.288638 0.211362 0.5) 2122 15720 1 15720 0.473816 0 0 0 153419 1 -1 0.632978 0.00012733 0 (12.7227 4.85301 0) 681.711 0.0133718 0 (0 0 0) 297.959 2238.44 1.01046e-09 1(1) 0.000142803 (4.74699e-05 -0.295 5.42101e-20) 0.0198491 0.000385033 0 0 0 0 0 0 1 0.00679426 0
0.0900299 3 (0 0.344327 0.5 0.155673) 1268 15574 2 15574 0.578465 0 0 0 142395 1 -1 6.93781 5.83874e-05 0 (-2.5434 10.0019 0) 687.94 0.0188793 0 (0 0 0) 290.551 2212.3 9.31781e-11 1(1) 6.45162e-05 (-7.22788e-05 -0.295 -5.42101e-20) 0.0206115 0.000417355 0 0 0 0 0 0 1 0.0023418 0
0.0900299 3 (0 0.0391087 0.5 0.460891) 918 15564 2 15564 0.251923 0 0 0 133265 1 -1 2.82772 8.2784e-05 0 (-1.2814 8.04487 0) 687.784 0.0234391 0 (0 0 0) 290.737 2212.94 9.23533e-10 1(1) 0.000138585 (-4.26087e-06 -0.295 2.71051e-20) 0.0205923 0.000416484 0 0 0 0 0 0 1 0.00458384 0
0.0900299 3 (0 0.00266325 0.5 0.497337) 525 15562 2 15562 0.120623 0 0 0 147962 1 -1 1.11646 0.00010807 0 (-9.35538 8.65117 0) 684.302 0.0160916 0 (0 0 0) 294.889 2227.45 1.10111e-09 1(1) 0.000146952 (-7.76655e-05 -0.295 5.42101e-20) 0.0201643 0.000397855 0 0 0 0 0 0 1 0.00552001 0
0.0900299 3 (0 0.481204 0.5 0.0187963) 350 15557 2 15557 0.778065 0 0 0 151134 1 -1 1.35157 9.99981e-05 0 (-8.56327 8.12956 0) 684.412 0.0145177 0 (0 0 0) 294.758 2226.99 4.47323e-10 1(1) 0.000108836 (-4.49702e-05 -0.295 2.71051e-20) 0.0201778 0.00039842 0 0 0 0 0 0 1 0.00511032 0
0.0900299 3 (0 0.239695 0.5 0.260305) 315 15556 2 15556 0.492703 0 0 0 151544 1 -1 0.956901 0.000112099 0 (-10.7373 7.57135 0) 683.315 0.0143114 0 (0 0 0) 296.06 2231.62 6.49915e-10 1(1) 0.000123268 (-5.98877e-05 -0.295 2.71051e-20) 0.020044 0.000392873 0 0 0 0 0 0 1 0.00573324 0
0.0900299 3 (0 0.403366 0.5 0.0966344) 245 15554 2 15554 0.459699 0 0 0 151246 1 -1 1.31169 9.92935e-05 0 (-7.84036 7.86711 0) 684.482 0.0144576 0 (0 0 0) 294.674 2226.69 4.3812e-10 1(1) 0.000108084 (-3.42457e-05 -0.295 8.13152e-20) 0.0201864 0.000398782 0 0 0 0 0 0 1 0.00521333 0
0.0900449 0 (0 0.5 0.200646 0.299354) 2710 15718 1 15718 0.657786 0 0 0 154031 1 -1 0.76628 0.000118088 0 (-10.8004 5.95784 0) 682.365 0.0130865 0 (0 0 0) 297.186 2235.65 7.40417e-10 1(1) 0.000128743 (-2.54773e-05 -0.295 5.42101e-20) 0.0199284 0.00038819 0 0 0 0 0 0 1 0.00641171 0
0.0900449 0 (0 0.299307 0.5 0.200693) 2570 15714 2 15714 0.664297 0 0 0 154568 1 -1 0.681539 0.000123758 0 (-11.3415 5.25431 0) 681.791 0.0128174 0 (0 0 0) 297.865 2238.1 8.61832e-10 1(1) 0.000135427 (-1.79674e-05 -0.295 0) 0.0198588 0.000385414 0 0 0 0 0 0 1 0.00681784 0
0.0900449 0 (0 0.0834701 0.5 0.41653) 2500 15712 2 15712 0.496557 0 0 0 154643 1 -1 0.650078 0.000125943 0 (-11.2074 4.94507 0) 681.617 0.0127773 0 (0 0 0) 298.07 2238.85 9.30581e-10 1(1) 0.000138936 (-1.10353e-05 -0.295 1.35525e-19) 0.0198377 0.000384581 0 0 0 0 0 0 1 0.00706795 0
0.0900449 1 (0 0.5 0.0232664 0.476734) 2951 15633 2 15633 0.374693 0 0 0 129877 1 -1 2.71452 8.38183e-05 0 (1.2096 8.2797 0) 688.114 0.0251477 0 (0 0 0) 290.342 2211.58 3.36182e-10 1(1) 9.89515e-05 (1.61296e-06 -0.295 -5.42101e-20) 0.0206331 0.000418339 0 0 0 0 0 0 1 0.00462412 0
0.0900449 1 (0 0.5 0.410447 0.0895534) 3191 15646 2 15646 0.80369 0 0 0 142462 1 -1 4.44381 6.74962e-05 0 (2.84188 12.9398 0) 687.857 0.0188638 0 (0 0 0) 290.65 2212.64 1.50198e-10 1(1) 7.56459e-05 (5.52242e-05 -0.295 5.42101e-20) 0.0206012 0.000416892 0 0 0 0 0 0 1 0.00263134 0
0.0900449 1 (0 0.5 0.349265 0.150735) 3173 15645 2 15645 0.745512 0 0 0 144459 1 -1 4.79374 6.51948e-05 0 (4.24189 13.4085 0) 687.772 0.0178669 0 (0 0 0) 290.752 2212.99 1.25939e-10 1(1) 7.1332e-05 (7.3807e-05 -0.295 5.42101e-20) 0.0205907 0.000416414 0 0 0 0 0 0 1 0.00241997 0
0.0900449 1 (0 0.458747 0.0412527 0.5) 2911 15631 1 15631 0.442445 0 0 0 149293 1 -1 2.83957 7.72855e-05 0 (5.71685 9.84981 0) 686.508 0.0154493 0 (0 0 0) 292.262 2218.22 2.04237e-10 1(1) 8.38061e-05 (1.32264e-05 -0.295 5.42101e-20) 0.0204349 0.000409463 0 0 0 0 0 0 1 0.00353342 0
0.0900449 1 (0 0.432283 0.0677174 0.5) 3011 15636 1 15636 0.69187 0 0 0 148642 1 -1 3.35658 7.21984e-05 0 (5.64655 11.4517 0) 686.929 0.015778 0 (0 0 0) 291.76 2216.47 1.65404e-10 1(1) 7.81171e-05 (3.38901e-05 -0.295 -5.42101e-20) 0.0204867 0.000411751 0 0 0 0 0 0 1 0.00301819 0
0.0900449 1 (0 0.5 0.0713638 0.428636) 2701 15698 2 15698 0.00378882 0 0 0 150885 1 -1 1.67724 9.19457e-05 0 (8.76056 7.71824 0) 684.965 0.0146483 0 (0 0 0) 294.1 2224.66 3.34194e-10 1(1) 9.8756e-05 (4.107e-05 -0.295 5.42101e-20) 0.0202455 0.000401277 0 0 0 0 0 0 1 0.00453117 0
0.0900449 1 (0 0.0746729 0.425327 0.5) 2468 15690 1 15690 0.701748 0 0 0 151475 1 -1 0.902727 0.000114598 0 (11.379 6.35072 0) 683.047 0.0143634 0 (0 0 0) 296.378 2232.76 1.0443e-09 1(1) 0.00014438 (5.71451e-05 -0.295 5.42101e-20) 0.0200113 0.000391539 0 0 0 0 0 0 1 0.00596036 0
0.0900449 3 (0 0.0337505 0.5 0.46625) 1023 15567 2 15567 0.412913 0 0 0 143754 1 -1 2.79461 7.92995e-05 0 (-5.42886 10.4833 0) 686.779 0.0182136 0 (0 0 0) 291.939 2217.1 8.50406e-10 1(1) 0.000134826 (-7.63222e-05 -0.295 2.71051e-20) 0.0204682 0.000410932 0 0 0 0 0 0 1 0.00361038 0
0.0900449 3 (0 0.5 0.349666 0.150334) 988 15566 1 15566 0.0479776 0 0 0 133005 1 -1 2.87973 8.20595e-05 0 (-1.23675 8.37414 0) 687.845 0.0235774 0 (0 0 0) 290.664 2212.69 1.0914e-09 1(1) 0.000146518 (-5.31981e-06 -0.295 8.13152e-20) 0.0205998 0.000416825 0 0 0 0 0 0 1 0.00444643 0
0.0900449 3 (0 0.297707 0.5 0.202293) 953 15565 2 15565 0.30509 0 0 0 146542 1 -1 2.04031 8.75926e-05 0 (-6.52439 9.85653 0) 685.987 0.0168187 0 (0 0 0) 292.884 2220.39 3.23242e-10 1(1) 9.76653e-05 (-6.45604e-05 -0.295 8.13152e-20) 0.0203708 0.000406659 0 0 0 0 0 0 1 0.00419032 0
0.0900449 3 (0 0.5 0.486645 0.0133548) 525 15562 1 15562 0.238583 0 0 0 133814 1 -1 2.73621 8.32612e-05 0 (-1.36431 7.65818 0) 687.722 0.023178 0 (0 0 0) 290.811 2213.19 8.44749e-10 1(1) 0.000134526 (-3.22399e-06 -0.295 5.42101e-20) 0.0205846 0.000416139 0 0 0 0 0 0 1 0.00472089 0
0.0900449 3 (0 0.45917 0.5 0.0408299) 525 15562 2 15562 0.411033 0 0 0 148812 1 -1 1.34847 9.96716e-05 0 (-8.53254 8.84553 0) 684.804 0.015687 0 (0 0 0) 294.292 2225.34 4.90257e-10 1(1) 0.000112212 (-6.52024e-05 -0.295 8.13152e-20) 0.0202257 0.000400438 0 0 0 0 0 0 1 0.00498523 0
0.0900449 3 (0 0.151733 0.5 0.348267) 245 15554 2 15554 0.116451 0 0 0 152060 1 -1 0.83534 0.00011746 0 (-11.4131 7.16276 0) 682.789 0.014061 0 (0 0 0) 296.683 2233.85 7.70219e-10 1(1) 0.000130447 (-5.98468e-05 -0.295 0) 0.01998 0.000390269 0 0 0 0 0 0 1 0.00605948 0
0.0900449 3 (0 0.390727 0.5 0.109273) 175 15552 2 15552 0.953436 0 0 0 152467 1 -1 0.939746 0.000111535 0 (-10.5316 7.26996 0) 683.198 0.0138692 0 (0 0 0) 296.198 2232.11 6.26643e-10 1(1) 0.000121779 (-4.86977e-05 -0.295 5.42101e-20) 0.0200298 0.000392292 0 0 0 0 0 0 1 0.00576753 0
0.0900449 3 (0 0.0313127 0.5 0.468687) 0 15547 2 15547 0.496791 0 0 0 152725 1 -1 1.03215 0.000108135 0 (-9.5746 7.17938 0) 683.458 0.0137352 0 (0 0 0) 295.891 2231.01 5.66403e-10 1(1) 0.000117744 (-3.6451e-05 -0.295 2.71051e-20) 0.0200614 0.000393586 0 0 0 0 0 0 1 0.00569894 0
0.0900598 0 (0 0.483672 0.5 0.0163283) 2885 15723 2 15723 0.868204 0 0 0 153453 1 -1 0.863704 0.000114258 0 (-10.503 6.63244 0) 682.807 0.0133932 0 (0 0 0) 296.662 2233.77 6.71503e-10 1(1) 0.000124618 (-3.54674e-05 -0.295 2.71051e-20) 0.0199822 0.000390355 0 0 0 0 0 0 1 0.00606638 0
0.0900598 0 (0 0.0443767 0.5 0.455623) 2815 15721 2 15721 0.831792 0 0 0 153846 1 -1 0.7761 0.000119146 0 (-11.3533 6.23089 0) 682.312 0.0131945 0 (0 0 0) 297.249 2235.88 7.58068e-10 1(1) 0.000129758 (-3.72257e-05 -0.295 2.71051e-20) 0.019922 0.000387931 0 0 0 0 0 0 1 0.00632408 0
0.0900598 1 (0 0.5 0.0469656 0.453034) 2971 15634 2 15634 0.461574 0 0 0 135562 1 -1 2.38747 8.54188e-05 0 (2.08454 9.13502 0) 687.614 0.0223216 0 (0 0 0) 290.941 2213.64 3.33712e-10 1(1) 9.87085e-05 (1.24443e-05 -0.295 1.0842e-19) 0.0205712 0.000415533 0 0 0 0 0 0 1 0.00451787 0
0.0900598 1 (0 0.360412 0.139588 0.5) 3119 15642 1 15642 0.577691 0 0 0 145579 1 -1 4.09712 6.82875e-05 0 (3.5834 11.9046 0) 687.656 0.0173204 0 (0 0 0) 290.89 2213.46 1.43169e-10 1(1) 7.44471e-05 (2.67382e-05 -0.295 1.0842e-19) 0.0205765 0.000415771 0 0 0 0 0 0 1 0.00274349 0
0.0900598 1 (0 0.5 0.154776 0.345224) 3173 15645 2 15645 0.580305 0 0 0 142563 1 -1 4.65276 6.65006e-05 0 (3.24857 12.522 0) 687.898 0.0188275 0 (0 0 0) 290.601 2212.47 1.41735e-10 1(1) 7.41976e-05 (6.37578e-05 -0.295 5.42101e-20) 0.0206063 0.000417123 0 0 0 0 0 0 1 0.00259554 0
0.0900598 1 (0 0.288084 0.211916 0.5) 3173 15645 1 15645 0.310681 0 0 0 143720 1 -1 5.69808 6.23406e-05 0 (3.24821 12.9291 0) 688.048 0.0182453 0 (0 0 0) 290.422 2211.85 1.12146e-10 1(1) 6.86264e-05 (6.64238e-05 -0.295 5.42101e-20) 0.0206248 0.000417963 0 0 0 0 0 0 1 0.00232039 0
0.0900598 1 (0 0.5 0.0492739 0.450726) 3541 15666 2 15666 0.127631 0 0 0 131722 1 -1 3.43825 7.73986e-05 0 (1.85577 16.2427 0) 687.95 0.0242366 0 (0 0 0) 290.539 2212.25 8.59905e-10 1(1) 0.000135326 (3.793e-06 -0.295 0) 0.0206128 0.000417414 0 0 0 0 0 0 1 0.00293632 0
0.0900598 1 (0 0.5 0.475596 0.0244036) 2971 15634 2 15634 0.00999089 0 0 0 148793 1 -1 3.25181 7.4123e-05 0 (5.40249 10.6817 0) 686.829 0.0157067 0 (0 0 0) 291.878 2216.89 1.79967e-10 1(1) 8.03455e-05 (1.77172e-05 -0.295 1.0842e-19) 0.0204745 0.000411209 0 0 0 0 0 0 1 0.0032396 0
0.0900598 1 (0 0.375432 0.124568 0.5) 2911 15631 1 15631 0.266171 0 0 0 148655 1 -1 1.90326 8.94985e-05 0 (8.81404 9.67204 0) 685.455 0.0157783 0 (0 0 0) 293.518 2222.61 3.20348e-10 1(1) 9.73729e-05 (6.35448e-05 -0.295 5.42101e-20) 0.0203055 0.000403839 0 0 0 0 0 0 1 0.00411882 0
0.0900598 1 (0 0.5 0.304868 0.195132) 2192 15722 2 15722 0.871658 0 0 0 152286 1 -1 1.31207 9.90566e-05 0 (8.91053 6.29064 0) 684.191 0.0139743 0 (0 0 0) 295.021 2227.92 4.29448e-10 1(1) 0.000107366 (2.54967e-05 -0.295 5.42101e-20) 0.0201508 0.00039729 0 0 0 0 0 0 1 0.00524614 0
0.0900598 1 (0 0.343402 0.156598 0.5) 1947 15715 1 15715 0.364631 0 0 0 154194 1 -1 0.76979 0.000118145 0 (11.0562 4.6363 0) 682.25 0.0130144 0 (0 0 0) 297.322 2236.15 7.70771e-10 1(1) 0.000130479 (2.14372e-05 -0.295 5.42101e-20) 0.0199144 0.00038763 0 0 0 0 0 0 1 0.00650716 0
0.0900598 1 (0 0.452706 0.0472939 0.5) 2262 15724 1 15724 0.371351 0 0 0 152277 1 -1 0.722653 0.000121956 0 (12.0536 5.54416 0) 682.362 0.0139707 0 (0 0 0) 297.189 2235.67 9.03857e-10 1(1) 0.000137593 (5.34888e-05 -0.295 0) 0.0199281 0.000388177 0 0 0 0 0 0 1 0.00646623 0
0.0900598 1 (0 0.5 0.39381 0.10619) 1947 15715 2 15715 0.479369 0 0 0 154774 1 -1 0.680637 0.000124309 0 (12.0004 4.29802 0) 681.628 0.0127266 0 (0 0 0) 298.057 2238.8 8.8656e-10 1(1) 0.00013671 (2.44609e-05 -0.295 5.42101e-20) 0.0198391 0.000384635 0 0 0 0 0 0 1 0.00679581 0
0.0900598 1 (0 0.185058 0.314942 0.5) 1877 15713 1 15713 0.997613 0 0 0 155627 1 -1 0.543505 0.00013422 0 (13.0572 3.66457 0) 680.666 0.0123086 0 (0 0 0) 299.192 2242.92 1.09496e-09 1(1) 0.000146678 (2.06055e-05 -0.295 0) 0.0197228 0.000380093 0 0 0 0 0 0 1 0.0073809 0
0.0900598 3 (0 0.179398 0.5 0.320602) 1793 15589 2 15589 0.570251 0 0 0 139790 1 -1 7.3743 5.75191e-05 0 (-1.27805 12.2156 0) 689.018 0.0202103 0 (0 0 0) 289.259 2207.87 9.10781e-11 1(1) 6.40278e-05 (-2.73535e-05 -0.295 1.0842e-19) 0.020745 0.0004235 0 0 0 0 0 0 1 0.0021468 0
0.0900598 3 (0 0.374283 0.5 0.125717) 1478 15580 2 15580 0.904519 0 0 0 128880 1 -1 3.90886 7.26181e-05 0 (-1.64268 10.1467 0) 688.361 0.0256663 0 (0 0 0) 290.047 2210.57 6.58334e-10 1(1) 0.000123798 (9.3486e-05 -0.295 0) 0.0206635 0.000419733 0 0 0 0 0 0 1 0.00331751 0
0.0900598 3 (0 0.5 0.113833 0.386167) 1513 15581 1 15581 0.0457939 0 0 0 143157 1 -1 7.24369 5.64144e-05 0 (-1.94932 10.6558 0) 688.494 0.018521 0 (0 0 0) 289.888 2210.02 8.44931e-11 1(1) 6.2446e-05 (6.30952e-06 -0.295 5.42101e-20) 0.02068 0.000420491 0 0 0 0 0 0 1 0.0021966 0
0.0900598 3 (0 0.212323 0.5 0.287677) 1303 15575 2 15575 0.850451 0 0 0 144597 1 -1 7.26393 5.65218e-05 0 (-1.88181 9.15696 0) 688.075 0.0178143 0 (0 0 0) 290.389 2211.74 8.43166e-11 1(1) 6.24025e-05 (-2.75893e-06 -0.295 1.0842e-19) 0.0206282 0.000418118 0 0 0 0 0 0 1 0.00233149 0
0.0900598 3 (0 0.242681 0.5 0.257319) 455 15560 2 15560 0.86444 0 0 0 150002 1 -1 1.37638 9.8399e-05 0 (-8.4308 8.58425 0) 684.727 0.015116 0 (0 0 0) 294.384 2225.66 4.32877e-10 1(1) 0.000107651 (-5.58077e-05 -0.295 5.42101e-20) 0.0202163 0.000400039 0 0 0 0 0 0 1 0.00494261 0
0.0900598 3 (0 0.5 0.369463 0.130537) 0 15547 1 15547 0.716365 0 0 0 153045 1 -1 0.893776 0.000112446 0 (-10.4715 6.93787 0) 683.026 0.013592 0 (0 0 0) 296.403 2232.84 6.38817e-10 1(1) 0.000122562 (-4.1358e-05 -0.295 8.13152e-20) 0.0200088 0.000391435 0 0 0 0 0 0 1 0.00589209 0
0.0900746 0 (0 0.208026 0.5 0.291974) 2675 15717 2 15717 0.101875 0 0 0 152183 1 -1 0.977785 0.000109592 0 (-7.77737 6.33752 0) 683.554 0.014028 0 (0 0 0) 295.776 2230.61 6.09695e-10 1(1) 0.000120671 (-1.3742e-05 -0.295 1.6263e-19) 0.0200731 0.000394069 0 0 0 0 0 0 1 0.00636898 0
0.0900746 1 (0 0.5 0.454564 0.0454361) 3101 15641 2 15641 0.570033 0 0 0 140174 1 -1 3.04837 7.79487e-05 0 (4.36468 11.7997 0) 687.292 0.0200337 0 (0 0 0) 291.326 2214.97 2.71889e-10 1(1) 9.21923e-05 (8.35426e-05 -0.295 0) 0.0205314 0.000413745 0 0 0 0 0 0 1 0.00332726 0
0.0900746 1 (0 0.5 0.378783 0.121217) 3173 15645 2 15645 0.161217 0 0 0 144281 1 -1 4.55958 6.72227e-05 0 (4.6458 13.6518 0) 687.635 0.0179766 0 (0 0 0) 290.916 2213.55 1.38041e-10 1(1) 7.35474e-05 (7.92787e-05 -0.295 -5.42101e-20) 0.0205738 0.000415651 0 0 0 0 0 0 1 0.00250217 0
0.0900746 1 (0 0.277454 0.222546 0.5) 3173 15645 1 15645 0.604381 0 0 0 142045 1 -1 5.41313 6.37044e-05 0 (3.35144 13.0175 0) 688.03 0.0190994 0 (0 0 0) 290.443 2211.92 1.24004e-10 1(1) 7.09647e-05 (7.91045e-05 -0.295 0) 0.0206227 0.000417865 0 0 0 0 0 0 1 0.00238752 0
0.0900746 1 (0 0.480197 0.0198032 0.5) 3101 15641 1 15641 0.639033 0 0 0 145163 1 -1 2.61137 8.13223e-05 0 (6.86123 12.8229 0) 686.497 0.0175427 0 (0 0 0) 292.276 2218.27 7.52089e-10 1(1) 0.000129416 (8.49038e-05 -0.295 -5.42101e-20) 0.0204335 0.0004094 0 0 0 0 0 0 1 0.00329719 0
0.0900746 1 (0 0.5 0.0276298 0.47237) 3119 15642 2 15642 0.982519 0 0 0 140625 1 -1 3.29152 7.59422e-05 0 (5.0916 12.4257 0) 687.303 0.0198149 0 (0 0 0) 291.313 2214.93 5.27819e-10 1(1) 0.000115007 (9.33679e-05 -0.295 2.71051e-20) 0.0205328 0.000413807 0 0 0 0 0 0 1 0.00310204 0
0.0900746 1 (0 0.5 0.443753 0.0562475) 3065 15639 2 15639 0.651494 0 0 0 145884 1 -1 2.3227 8.46034e-05 0 (7.42945 12.1285 0) 686.16 0.0171839 0 (0 0 0) 292.677 2219.67 2.80736e-10 1(1) 9.31816e-05 (8.15312e-05 -0.295 5.42101e-20) 0.0203921 0.000407588 0 0 0 0 0 0 1 0.00348873 0
0.0900746 1 (0 0.5 0.167087 0.332913) 2951 15633 2 15633 0.91444 0 0 0 148127 1 -1 1.81539 9.15367e-05 0 (9.12434 10.0455 0) 685.367 0.0160666 0 (0 0 0) 293.622 2222.98 7.64551e-10 1(1) 0.000130127 (6.96522e-05 -0.295 5.42101e-20) 0.0202947 0.000403376 0 0 0 0 0 0 1 0.00418557 0
0.0900746 1 (0 0.222212 0.277788 0.5) 2748 15700 1 15700 0.489703 0 0 0 150475 1 -1 1.77497 9.10394e-05 0 (8.70916 8.07196 0) 685.104 0.014891 0 (0 0 0) 293.935 2224.08 3.26005e-10 1(1) 9.79428e-05 (4.54679e-05 -0.295 0) 0.0202625 0.000402 0 0 0 0 0 0 1 0.00442873 0
0.0900746 1 (0 0.269674 0.230326 0.5) 2227 15723 1 15723 0.66485 0 0 0 152230 1 -1 1.27414 0.000100003 0 (9.28288 6.38972 0) 684.116 0.0140135 0 (0 0 0) 295.11 2228.23 4.44086e-10 1(1) 0.000108573 (3.0604e-05 -0.295 -5.42101e-20) 0.0201416 0.000396907 0 0 0 0 0 0 1 0.0052362 0
0.0900746 1 (0 0.5 0.467692 0.0323084) 1982 15716 2 15716 0.13523 0 0 0 153821 1 -1 0.879254 0.000113937 0 (10.5874 4.92802 0) 682.666 0.0132116 0 (0 0 0) 296.829 2234.37 6.86828e-10 1(1) 0.000125559 (2.23917e-05 -0.295 1.0842e-19) 0.0199651 0.000389664 0 0 0 0 0 0 1 0.00625404 0
0.0900746 3 (0 0.157531 0.5 0.342469) 1408 15578 2 15578 0.790495 0 0 0 138440 1 -1 7.88896 5.60443e-05 0 (-2.25105 10.2936 0) 688.319 0.0209052 0 (0 0 0) 290.097 2210.74 8.47105e-11 1(1) 6.24995e-05 (8.70716e-05 -0.295 0) 0.0206584 0.000419496 0 0 0 0 0 0 1 0.00219611 0
0.0900746 3 (0 0.415472 0.5 0.0845277) 1023 15567 2 15567 0.646008 0 0 0 144195 1 -1 2.56847 8.10879e-05 0 (-5.62611 10.3905 0) 686.64 0.0180294 0 (0 0 0) 292.105 2217.67 5.1973e-10 1(1) 0.000114417 (-7.47843e-05 -0.295 1.0842e-19) 0.0204511 0.000410176 0 0 0 0 0 0 1 0.00373331 0
0.0900746 3 (0 0.5 0.422218 0.0777821) 1023 15567 1 15567 0.762513 0 0 0 144782 1 -1 2.37747 8.36258e-05 0 (-5.91825 10.142 0) 686.417 0.017738 0 (0 0 0) 292.37 2218.6 6.59652e-10 1(1) 0.00012388 (-7.32855e-05 -0.295 5.42101e-20) 0.0204237 0.000408972 0 0 0 0 0 0 1 0.00392381 0
0.0900746 3 (0 0.5 0.201906 0.298094) 953 15565 1 15565 0.738485 0 0 0 146124 1 -1 1.66808 9.29465e-05 0 (-7.10843 9.62448 0) 685.658 0.0170645 0 (0 0 0) 293.275 2221.76 3.85281e-10 1(1) 0.000103552 (-7.25379e-05 -0.295 1.35525e-19) 0.0203305 0.000404914 0 0 0 0 0 0 1 0.00455414 0
0.0900746 3 (0 0.231836 0.5 0.268164) 455 15560 2 15560 0.348339 0 0 0 150030 1 -1 1.42275 9.85099e-05 0 (-8.46501 8.58178 0) 684.715 0.0151086 0 (0 0 0) 294.398 2225.71 4.3328e-10 1(1) 0.000107685 (-5.60303e-05 -0.295 1.35525e-19) 0.0202149 0.000399979 0 0 0 0 0 0 1 0.00494604 0
0.0900746 3 (0 0.5 0.255294 0.244706) 420 15559 1 15559 0.708581 0 0 0 150752 1 -1 1.30879 0.000100556 0 (-8.83271 8.29752 0) 684.432 0.0147527 0 (0 0 0) 294.734 2226.9 4.56144e-10 1(1) 0.000109546 (-5.30691e-05 -0.295 8.13152e-20) 0.0201803 0.000398524 0 0 0 0 0 0 1 0.00508669 0
0.0900746 3 (0 0.5 0.0777058 0.422294) 385 15558 1 15558 0.0893248 0 0 0 150918 1 -1 1.34395 9.91737e-05 0 (-8.44052 8.25138 0) 684.526 0.0146608 0 (0 0 0) 294.622 2226.51 4.36171e-10 1(1) 0.000107924 (-4.67526e-05 -0.295 8.13152e-20) 0.0201918 0.000399006 0 0 0 0 0 0 1 0.00504946 0
0.0900746 3 (0 0.5 0.283527 0.216473) 175 15552 1 15552 0.508966 0 0 0 152265 1 -1 1.16142 0.000104889 0 (-9.13659 7.53188 0) 683.827 0.013995 0 (0 0 0) 295.453 2229.45 5.13241e-10 1(1) 0.000113939 (-3.86725e-05 -0.295 -2.71051e-20) 0.0201064 0.000395441 0 0 0 0 0 0 1 0.00547678 0
0.0900746 3 (0 0.5 0.455625 0.0443749) 0 15547 1 15547 0.83021 0 0 0 153369 1 -1 0.677298 0.000126036 0 (-12.5058 6.30854 0) 681.856 0.0134467 0 (0 0 0) 297.787 2237.82 1.0733e-09 1(1) 0.000145704 (-5.33342e-05 -0.295 0) 0.0198667 0.000385729 0 0 0 0 0 0 1 0.00658024 0
0.0900895 0 (0 0.399866 0.5 0.100134) 2605 15715 2 15715 0.742634 0 0 0 153864 1 -1 0.765127 0.000118038 0 (-9.8875 5.77032 0) 682.475 0.0132143 0 (0 0 0) 297.055 2235.19 7.69453e-10 1(1) 0.000130404 (-1.20145e-05 -0.295 8.13152e-20) 0.0199418 0.000388726 0 0 0 0 0 0 1 0.00665202 0
0.0900895 0 (0 0.429408 0.5 0.0705918) 2780 15720 2 15720 0.761313 0 0 0 153953 1 -1 0.767362 0.000118085 0 (-11.0604 6.19543 0) 682.388 0.0131711 0 (0 0 0) 297.158 2235.55 7.35698e-10 1(1) 0.000128469 (-3.28036e-05 -0.295 5.42101e-20) 0.0199313 0.000388305 0 0 0 0 0 0 1 0.00631248 0
0.0900895 0 (0 0.5 0.0121368 0.487863) 2710 15718 1 15718 0.441515 0 0 0 154484 1 -1 0.672865 0.000124185 0 (-12.0788 5.63943 0) 681.761 0.0128998 0 (0 0 0) 297.9 2238.23 8.48924e-10 1(1) 0.000134747 (-3.30314e-05 -0.295 8.13152e-20) 0.0198551 0.00038527 0 0 0 0 0 0 1 0.00663083 0
0.0900895 1 (0 0.5 0.232945 0.267055) 3281 15651 2 15651 0.998714 0 0 0 113682 1 -1 4.37201 7.16666e-05 0 (0.235863 7.11862 0) 689.226 0.0332888 0 (0 0 0) 289.009 2207.02 8.47856e-10 1(1) 0.000134691 (3.16573e-06 -0.295 0) 0.0207709 0.000424708 0 0 0 0 0 0 1 0.00385147 0
0.0900895 1 (0 0.349693 0.150307 0.5) 3191 15646 1 15646 0.535908 0 0 1 943 1 -1 35.4383 6.63411e-05 0 (0.0823318 2.44813 0) 688.555 0.0241628 0 (0 0 0) 289.814 2209.77 1.08801e-10 1(1) 6.71815e-05 (0.119926 0.0783891 2.39237e-21) 0.0206877 0.000420842 0 0 0 0 0 0 1 0.00502582 0
0.0900895 1 (0 0.392814 0.107186 0.5) 3155 15644 1 15644 0.690239 0 0 0 145044 1 -1 5.47146 6.25156e-05 0 (3.29999 12.3952 0) 688.001 0.0176178 0 (0 0 0) 290.477 2212.04 1.11376e-10 1(1) 6.8469e-05 (4.82616e-05 -0.295 0) 0.0206191 0.000417703 0 0 0 0 0 0 1 0.00236833 0
0.0900895 1 (0 0.5 0.316449 0.183551) 3137 15643 2 15643 0.986028 0 0 0 140831 1 -1 4.01015 7.03891e-05 0 (4.34846 12.5599 0) 687.65 0.0197265 0 (0 0 0) 290.897 2213.49 1.686e-10 1(1) 7.86171e-05 (8.82002e-05 -0.295 0) 0.0205757 0.000415737 0 0 0 0 0 0 1 0.00278208 0
0.0900895 1 (0 0.185158 0.314842 0.5) 3047 15638 1 15638 0.265534 0 0 0 148074 1 -1 3.837 7.01091e-05 0 (4.85321 11.8348 0) 687.138 0.0160996 0 (0 0 0) 291.51 2215.61 1.52933e-10 1(1) 7.61023e-05 (3.50344e-05 -0.295 0) 0.0205124 0.000412897 0 0 0 0 0 0 1 0.00278121 0
0.0900895 1 (0 0.150647 0.349353 0.5) 2951 15633 1 15633 0.402205 0 0 0 148121 1 -1 2.18651 8.57071e-05 0 (8.37343 10.5223 0) 685.82 0.0160792 0 (0 0 0) 293.082 2221.08 2.84559e-10 1(1) 9.36026e-05 (6.57086e-05 -0.295 0) 0.0203504 0.000405774 0 0 0 0 0 0 1 0.00380995 0
0.0900895 1 (0 0.369802 0.130198 0.5) 2468 15690 1 15690 0.335195 0 0 0 151311 1 -1 1.20832 0.000102136 0 (9.88879 6.82817 0) 684.085 0.0144844 0 (0 0 0) 295.147 2228.37 4.68624e-10 1(1) 0.000110536 (4.70962e-05 -0.295 5.42101e-20) 0.0201379 0.000396749 0 0 0 0 0 0 1 0.00522562 0