/*--------------------------------*- C++ -*----------------------------------*\
  =========                 |
  \\      /  F ield         | OpenFOAM: The Open Source CFD Toolbox
   \\    /   O peration     | Website:  https://openfoam.org
    \\  /    A nd           | Version:  8
     \\/     M anipulation  |
\*---------------------------------------------------------------------------*/
FoamFile
{
    version     2.0;
    format      ascii;
    class       volScalarField;
    location    "0.1";
    object      epsilon;
}
// * * * * * * * * * * * * * * * * * * * * * * * * * * * * * * * * * * * * * //

dimensions      [0 2 -3 0 0 0 0];

internalField   nonuniform List<scalar> 
15677
(
59.7004
18.3535
52.6125
8.0876
25.8894
50.1625
4.62719
13.2622
31.5749
50.4824
3.17782
7.72282
17.0792
37.2638
51.5982
2.48948
5.0425
10.0237
20.807
42.636
53.6553
2.1457
3.62252
6.4606
12.1584
24.5349
47.6495
55.7184
1.97986
2.82081
4.5237
7.72169
14.2705
28.2449
52.0081
57.6558
1.91169
2.35295
3.40103
5.30842
8.91244
16.418
31.7456
55.6906
59.3536
1.88417
2.08027
2.72284
3.90795
6.01946
10.1018
18.5284
34.9443
58.7089
60.8558
1.87055
1.9394
2.30691
3.05468
4.35638
6.70453
11.269
20.5609
37.7645
61.1849
62.1217
1.86765
1.87831
2.05637
2.52061
3.347
4.7745
7.36056
12.4129
22.4523
40.2278
63.1773
63.2355
1.86863
1.84884
1.91654
2.1858
2.71186
3.61393
5.16377
7.99807
13.5009
24.1972
42.3244
64.8031
64.1633
1.86954
1.83869
1.85192
1.98252
2.30651
2.88557
3.85715
5.53408
8.60266
14.5323
25.7611
44.115
66.1074
64.9954
1.86978
1.83697
1.82112
1.86771
2.0512
2.41765
3.04221
4.08349
5.88021
9.17792
15.483
27.1614
45.6105
67.1668
65.7207
1.86978
1.83723
1.81049
1.81332
1.89811
2.11721
2.51826
3.18569
4.29159
6.20608
9.71116
16.359
28.383
46.8673
68.0306
66.3626
1.86974
1.8375
1.8082
1.78976
1.81538
1.93019
2.17847
2.60992
3.31595
4.48438
6.50612
10.2059
17.1435
29.4468
47.9126
68.7331
66.9507
1.86972
1.8376
1.8079
1.78273
1.77569
1.82144
1.96222
2.23488
2.69267
3.43483
4.65998
6.7825
10.653
17.8447
30.3536
48.7682
69.3357
67.4508
1.86971
1.83761
1.80792
1.78101
1.76145
1.7661
1.83167
1.99293
2.28606
2.76747
3.54198
4.81968
7.03128
11.056
18.4543
31.1173
49.4768
69.8125
67.958
1.8697
1.83761
1.80794
1.78068
1.75696
1.74389
1.76035
1.84304
2.02144
2.33228
2.83443
3.63822
4.96219
7.25421
11.4089
18.9796
31.7508
50.0311
70.2624
68.3522
1.8697
1.83759
1.80794
1.78064
1.7557
1.73586
1.72948
1.75735
1.85443
2.04756
2.37362
2.89402
3.72338
5.0883
7.44891
11.7148
19.4187
32.2593
50.4941
70.5965
68.823
1.8697
1.83758
1.80793
1.78062
1.75539
1.73315
1.71726
1.71796
1.7558
1.86556
2.07118
2.41031
2.94646
3.79787
5.19768
7.61633
11.9713
19.7784
32.6654
50.8297
70.9689
69.1358
1.8697
1.83758
1.80792
1.7806
1.75531
1.7323
1.71266
1.70126
1.7084
1.75569
1.87602
2.09226
2.44258
2.99205
3.86208
5.29059
7.75658
12.1814
20.0624
32.9682
51.1169
71.2179
69.6022
1.8697
1.83757
1.80791
1.78057
1.75528
1.73205
1.71104
1.69443
1.68719
1.70079
1.756
1.88562
2.11097
2.47069
3.03131
3.9163
5.3681
7.86988
12.3466
20.2765
33.193
51.3061
71.5691
69.8555
1.86971
1.83756
1.8079
1.78055
1.75525
1.73195
1.71051
1.69181
1.67796
1.67523
1.69446
1.75675
1.89447
2.12754
2.49511
3.06462
3.96149
5.43004
7.95922
12.4696
20.4306
33.3412
51.4673
71.7725
70.3223
1.86971
1.83756
1.80789
1.78053
1.75522
1.73188
1.71032
1.69083
1.67418
1.66357
1.66473
1.68943
1.75813
1.9027
2.14227
2.51623
3.09277
3.99817
5.47931
8.02431
12.5563
20.5245
33.4294
51.5813
72.1659
70.5663
1.86971
1.83756
1.80789
1.78052
1.7552
1.73183
1.71022
1.69045
1.6727
1.6585
1.65063
1.65614
1.68558
1.75995
1.91054
2.15566
2.53485
3.11661
4.02787
5.51526
8.07055
12.6068
20.581
33.4725
51.6534
72.4607
429.272
1.86971
1.83756
1.80789
1.7805
1.75518
1.73179
1.71016
1.69027
1.67212
1.65636
1.64426
1.6398
1.64872
1.68293
1.7626
1.91851
2.1683
2.55159
3.1369
4.05124
5.54197
8.097
12.6329
20.5812
33.4664
51.7737
88.796
717.324
1.86971
1.83756
1.80788
1.78049
1.75516
1.73176
1.7101
1.69016
1.67185
1.65545
1.6415
1.63208
1.63023
1.64363
1.68224
1.76647
1.927
2.18087
2.56739
3.15511
4.07058
5.55983
8.11258
12.6293
20.5674
33.4682
52.6926
122.131
998.113
1.86971
1.83755
1.80788
1.78049
1.75515
1.73173
1.71006
1.69007
1.6717
1.65502
1.64031
1.62854
1.62136
1.62334
1.63956
1.68329
1.77189
1.93683
2.19427
2.5835
3.17239
4.08708
5.57246
8.11223
12.6166
20.5366
33.4919
55.2437
157.698
1246.5
1.86971
1.83755
1.80788
1.78048
1.75514
1.73171
1.71002
1.69001
1.67158
1.65479
1.63974
1.62692
1.61723
1.61318
1.61766
1.63962
1.68632
1.77962
1.94872
2.20955
2.60074
3.19006
4.10221
5.58058
8.10889
12.5914
20.4973
33.5891
59.8081
190.316
1475.42
1.86971
1.83755
1.80788
1.78047
1.75513
1.73169
1.70999
1.68996
1.67149
1.65463
1.63943
1.62613
1.61532
1.60824
1.60678
1.61607
1.64144
1.69244
1.79042
1.96367
2.22749
2.62048
3.20919
4.11789
5.58748
8.10164
12.5619
20.4523
33.8394
64.5248
221.265
1669.69
1.86971
1.83755
1.80788
1.78047
1.75512
1.73167
1.70996
1.68991
1.67142
1.65451
1.63922
1.6257
1.61437
1.60585
1.60148
1.60391
1.61747
1.64624
1.70257
1.80529
1.98254
2.24944
2.64364
3.23154
4.13545
5.59559
8.09381
12.5301
20.4023
34.3042
69.3213
248.494
1817.44
1.86971
1.83755
1.80788
1.78046
1.75512
1.73166
1.70994
1.68987
1.67135
1.65441
1.63906
1.62543
1.61384
1.60466
1.59889
1.59786
1.60509
1.62182
1.6557
1.71757
1.82512
2.00661
2.27627
2.67176
3.25796
4.15695
5.60687
8.08774
12.497
20.3566
34.8599
73.6737
269.658
1932.2
1.86971
1.83755
1.80788
1.78046
1.75511
1.73164
1.70992
1.68984
1.6713
1.65433
1.63892
1.62523
1.61349
1.604
1.59756
1.59487
1.59891
1.60924
1.63076
1.67093
1.73836
1.8512
2.03676
2.3094
2.70554
3.29019
4.18347
5.62291
8.08504
12.4626
20.3194
35.3966
77.0452
286.401
2024.44
1.83755
1.86975
1.80788
1.78046
1.75511
1.73163
1.70991
1.68981
1.67126
1.65426
1.63881
1.62507
1.61322
1.60359
1.59681
1.59335
1.59588
1.60302
1.618
1.64628
1.69261
1.76625
1.88441
2.07435
2.3495
2.74657
3.32886
4.21639
5.64411
8.08611
12.4254
20.2778
35.8036
79.6314
299.986
2101.47
1.80788
1.83765
1.86982
1.78046
1.75511
1.73162
1.70989
1.68978
1.67122
1.6542
1.63871
1.62493
1.61301
1.60329
1.59632
1.59253
1.59437
1.60003
1.61181
1.63397
1.66885
1.72205
1.80222
1.92625
2.12017
2.39808
2.79518
3.37524
4.25584
5.67112
8.09063
12.3857
20.2279
36.0849
81.6091
311.458
2168.26
1.78045
1.80804
1.83785
1.86989
1.7551
1.73161
1.70988
1.68976
1.67119
1.65414
1.63863
1.62482
1.61282
1.60306
1.59596
1.59203
1.59358
1.59861
1.609
1.62829
1.65745
1.69989
1.76048
1.84769
1.97736
2.17543
2.45533
2.85277
3.42928
4.30227
5.70768
8.10115
12.3501
20.1661
36.2567
83.1642
321.416
2227.82
1.7551
1.78066
1.80835
1.83805
1.86997
1.73161
1.70988
1.68973
1.67116
1.65409
1.63856
1.62471
1.61267
1.60286
1.59566
1.59168
1.59312
1.59794
1.60785
1.62602
1.65273
1.69012
1.74079
1.80956
1.90377
2.03937
2.24059
2.52285
2.91899
3.49143
4.36169
5.75661
8.1196
12.3179
20.0952
36.3521
84.4088
330.385
2282.28
1.7316
1.75536
1.78108
1.80868
1.83826
1.87004
1.70987
1.68972
1.67114
1.65405
1.63851
1.62462
1.61254
1.60269
1.59541
1.59141
1.59281
1.5976
1.60748
1.62545
1.65152
1.68719
1.73364
1.79353
1.87057
1.97229
2.11289
2.31691
2.59968
2.99454
3.56946
4.43742
5.81407
8.14444
12.2901
20.0176
36.3838
85.449
338.566
2332.7
1.70986
1.73189
1.75587
1.78151
1.80902
1.83848
1.87012
1.6897
1.67112
1.65401
1.63846
1.62454
1.61243
1.60255
1.5952
1.59119
1.59257
1.59741
1.60742
1.62564
1.65191
1.68748
1.73292
1.78992
1.85978
1.94587
2.05425
2.19959
2.40448
2.68714
3.08845
3.66707
4.52281
5.87934
8.17528
12.2666
19.9381
36.3761
86.339
346.234
2380.08
1.68969
1.71019
1.73249
1.7564
1.78196
1.80936
1.8387
1.8702
1.67111
1.65397
1.63842
1.62447
1.61233
1.60242
1.59502
1.591
1.59239
1.59728
1.60748
1.62612
1.6531
1.68958
1.73566
1.79256
1.86034
1.94111
2.03642
2.15189
2.29982
2.50482
2.79503
3.20484
3.77548
4.61641
5.95083
8.21134
12.2484
19.8586
36.3545
87.1332
353.403
2424.59
1.67109
1.69004
1.71086
1.7331
1.75695
1.78242
1.80972
1.83893
1.87029
1.65394
1.63839
1.6244
1.61226
1.60231
1.59486
1.59085
1.59223
1.5972
1.6076
1.6267
1.65453
1.69248
1.74032
1.79901
1.86796
1.94798
2.03883
2.14364
2.26552
2.41539
2.62974
2.93058
3.33285
3.89213
4.71684
6.02749
8.25218
12.2346
19.7835
36.3138
87.8472
360.247
2466.9
1.65392
1.67147
1.69077
1.71156
1.73374
1.75751
1.78289
1.81008
1.83917
1.87037
1.63836
1.62434
1.6122
1.6022
1.59473
1.59071
1.59211
1.59715
1.60774
1.62728
1.65599
1.69552
1.74577
1.80759
1.87966
1.96253
2.05437
2.15624
2.26799
2.39578
2.56135
2.78846
3.0813
3.47166
4.01598
4.82259
6.10822
8.29669
12.226
19.7129
36.2669
88.5158
366.702
2506.74
1.63833
1.6543
1.67227
1.69153
1.71227
1.73439
1.75809
1.78337
1.81045
1.83941
1.87046
1.62428
1.61214
1.6021
1.59462
1.5906
1.592
1.59711
1.60789
1.62785
1.6574
1.69847
1.75123
1.81704
1.89382
1.98174
2.07827
2.18329
2.29402
2.41285
2.55863
2.74452
2.96639
3.246
3.62037
4.14644
4.93231
6.19195
8.34438
12.2209
19.6486
36.2198
89.1367
372.91
2544.76
1.62424
1.63874
1.65512
1.67308
1.6923
1.713
1.73506
1.75868
1.78387
1.81083
1.83966
1.87055
1.6121
1.60201
1.59454
1.5905
1.59192
1.59708
1.60804
1.62839
1.65874
1.70127
1.75649
1.82639
1.909
2.00408
2.10774
2.21998
2.33592
2.45599
2.59656
2.76662
2.94837
3.16146
3.42417
3.77748
4.28163
5.04485
6.2776
8.39412
12.2213
19.5908
36.1751
89.7337
378.765
2580.46
1.61207
1.62462
1.63959
1.65597
1.67392
1.69311
1.71376
1.73574
1.75928
1.78438
1.81123
1.83991
1.87064
1.60192
1.59447
1.59041
1.59184
1.59707
1.60818
1.62889
1.66
1.70387
1.76146
1.83534
1.92392
2.02789
2.14146
2.26381
2.38937
2.51743
2.66333
2.83391
3.00233
3.17204
3.3692
3.61302
3.94117
4.42069
5.15901
6.36425
8.44551
12.2238
19.5392
36.1361
90.2971
384.413
2614.57
1.60185
1.61245
1.62544
1.64047
1.65684
1.67478
1.69393
1.71453
1.73645
1.75991
1.7849
1.81163
1.84017
1.87073
1.59441
1.59033
1.59177
1.59705
1.60831
1.62935
1.66117
1.70628
1.76612
1.84378
1.93823
2.05144
2.17736
2.31378
2.45243
2.59357
2.7523
2.93494
3.10624
3.26503
3.41511
3.58839
3.81076
4.11095
4.56226
5.27391
6.45105
8.49774
12.229
19.4938
36.1027
90.8457
389.718
2646.43
1.59439
1.60213
1.61326
1.62628
1.64137
1.65774
1.67567
1.69478
1.71533
1.73718
1.76055
1.78544
1.81204
1.84043
1.87082
1.59023
1.5917
1.59704
1.60844
1.62977
1.66224
1.7085
1.77047
1.85167
1.95185
2.07423
2.21301
2.36744
2.52462
2.68332
2.86109
3.06498
3.25139
3.41411
3.55387
3.67577
3.8172
4.01228
4.28436
4.70502
5.38834
6.53723
8.5502
12.2376
19.4541
36.0762
91.366
394.844
2676.9
1.59016
1.59466
1.60278
1.61409
1.62716
1.64231
1.65867
1.67658
1.69566
1.71614
1.73793
1.76121
1.78599
1.81245
1.84068
1.8709
1.59163
1.59703
1.60856
1.63017
1.66322
1.71054
1.7745
1.859
1.96472
2.09602
2.24769
2.42151
2.60303
2.7871
2.99002
3.22406
3.43615
3.61548
3.75803
3.86785
3.95198
4.05468
4.21631
4.45909
4.84732
5.50163
6.62216
8.60247
12.2482
19.4199
36.0557
91.8748
399.63
2705.17
1.5916
1.59016
1.59524
1.60343
1.61496
1.62809
1.64327
1.65964
1.67752
1.69656
1.71698
1.7387
1.76188
1.78654
1.81285
1.84093
1.87098
1.597
1.60866
1.63053
1.66412
1.7124
1.7782
1.86578
1.97681
2.11665
2.28115
2.475
2.68289
2.90146
3.14143
3.41577
3.66494
3.8729
4.0308
4.1388
4.2058
4.2417
4.29859
4.42148
4.6341
4.98893
5.61318
6.70536
8.65414
12.2606
19.3906
36.0415
92.3571
404.263
2732.26
1.59703
1.59147
1.59017
1.59582
1.60414
1.61587
1.62905
1.64426
1.66064
1.67848
1.69749
1.71785
1.73949
1.76254
1.78707
1.81323
1.84117
1.87106
1.60874
1.63085
1.66493
1.7141
1.7816
1.87203
1.98811
2.13603
2.31325
2.52732
2.76243
3.02007
3.31223
3.64702
3.94781
4.19918
4.38562
4.50279
4.55782
4.56677
4.54299
4.5469
4.62626
4.80632
5.1288
5.72236
6.7864
8.70486
12.2742
19.3657
36.0324
92.8285
408.556
2757.22
1.6089
1.59668
1.59116
1.59015
1.59646
1.60492
1.6168
1.63006
1.64528
1.66167
1.67947
1.69845
1.71873
1.74027
1.76319
1.78759
1.81361
1.8414
1.87114
1.63112
1.66565
1.71565
1.78471
1.87777
1.99861
2.15414
2.34388
2.5779
2.84077
3.14112
3.49425
3.91629
4.30131
4.61835
4.8521
4.99061
5.03938
5.01734
4.95006
4.85412
4.79778
4.82993
4.97444
5.26574
5.82861
6.86496
8.75435
12.2888
19.3446
36.0283
93.2741
412.728
2781.18
1.63146
1.6082
1.59574
1.59079
1.59026
1.59712
1.60576
1.61775
1.63111
1.64633
1.66273
1.68049
1.69943
1.7196
1.74103
1.76382
1.78809
1.81397
1.84162
1.87122
1.66629
1.71704
1.78754
1.88305
2.00832
2.171
2.37295
2.62631
2.91744
3.26382
3.68414
4.21182
4.73182
5.17067
5.48372
5.66271
5.70981
5.65025
5.52005
5.35511
5.17345
5.04964
5.03141
5.13799
5.3989
5.93147
6.94076
8.80239
12.3041
19.3271
36.0292
93.7086
416.565
2800.43
1.66699
1.63017
1.60626
1.5947
1.59052
1.59053
1.59779
1.60667
1.61874
1.6322
1.64741
1.66383
1.68154
1.7004
1.72046
1.74177
1.76444
1.78858
1.81433
1.84184
1.87129
1.71828
1.7901
1.88788
2.01728
2.18667
2.40038
2.67229
2.99223
3.38703
3.87892
4.5298
5.23124
5.8884
6.36801
6.6228
6.67727
6.56605
6.34437
6.06794
5.78111
5.49945
5.30109
5.22957
5.29651
5.52769
6.03056
7.01364
8.84881
12.3199
19.3126
36.0323
94.1177
419.809
2816.66
1.71957
1.66504
1.62653
1.60416
1.5938
1.59026
1.59098
1.59845
1.60764
1.61975
1.63333
1.64853
1.66495
1.68258
1.70134
1.72129
1.74248
1.76503
1.78905
1.81467
1.84205
1.87136
1.7924
1.89229
2.02551
2.20121
2.42614
2.71574
3.06494
3.50921
4.07595
4.87025
5.80429
6.77386
7.57854
8.02633
8.11315
7.93488
7.57585
7.1268
6.66118
6.22662
5.8305
5.55089
5.4235
5.44965
5.65167
6.12567
7.08342
8.89346
12.3358
19.3009
36.0381
94.4628
422.489
2834.2
1.79469
1.71675
1.65918
1.62267
1.6023
1.59299
1.58995
1.59157
1.59914
1.60868
1.62081
1.63451
1.64967
1.66607
1.68359
1.70226
1.7221
1.74318
1.76562
1.78951
1.81501
1.84225
1.87143
1.89631
2.03305
2.2147
2.45024
2.75672
3.13536
3.62883
4.27393
5.23468
6.45611
7.83341
9.11354
9.98946
10.2531
10.0069
9.45609
8.74446
7.99679
7.29741
6.68933
6.1649
5.79792
5.61248
5.5971
5.77057
6.21655
7.15003
8.93628
12.3518
19.2911
36.0461
94.751
425.423
2853.36
1.90016
1.7908
1.70773
1.65305
1.61917
1.60059
1.59226
1.58967
1.59226
1.59986
1.60977
1.62191
1.63571
1.65082
1.66716
1.68458
1.70315
1.72288
1.74386
1.76618
1.78996
1.81533
1.84245
1.87147
2.04
2.22716
2.47272
2.79534
3.20321
3.74476
4.47301
5.6242
7.18546
9.06226
10.9638
12.4883
13.2596
13.1125
12.3242
11.2406
10.0652
8.94768
7.9717
7.16613
6.50081
6.04114
5.79592
5.7387
5.88431
6.30334
7.2135
8.9772
12.3677
19.2846
36.0533
95.0738
428.6
2874.18
2.04644
1.89493
1.7773
1.69838
1.64742
1.6159
1.59902
1.59159
1.58948
1.59302
1.60065
1.6109
1.62305
1.6369
1.65194
1.66821
1.68555
1.70402
1.72365
1.74452
1.76673
1.79039
1.81565
1.84255
1.87147
2.23875
2.49363
2.83171
3.26818
3.85643
4.67412
6.03809
7.98475
10.4426
13.1049
15.4943
17.0856
17.482
16.6317
15.0587
13.2714
11.5223
9.96814
8.67719
7.6532
6.8363
6.2796
5.97337
5.87427
5.99244
6.38618
7.27385
9.0162
12.3813
19.2795
36.0633
95.4236
432.104
2897.05
2.24925
2.03962
1.87503
1.76347
1.68975
1.64209
1.61283
1.59755
1.591
1.58938
1.59383
1.60151
1.61205
1.62422
1.63806
1.65305
1.66924
1.68649
1.70487
1.7244
1.74516
1.76726
1.79081
1.8158
1.84255
1.87147
2.51321
2.86594
3.33005
3.96379
4.87833
6.47362
8.84244
11.9498
15.4978
18.9633
21.6889
23.0563
22.7142
20.8097
18.1855
15.5211
13.094
11.0441
9.40583
8.14636
7.16942
6.51246
6.14448
6.00387
6.09472
6.46496
7.3311
9.0484
12.3931
19.2751
36.075
95.8197
435.894
2921.9
2.53052
2.24034
2.01065
1.85491
1.75063
1.68151
1.637
1.60992
1.59619
1.59052
1.58939
1.59467
1.60245
1.6132
1.62537
1.63919
1.65412
1.67024
1.68741
1.70569
1.72512
1.74578
1.76778
1.79102
1.8158
1.84255
1.87147
2.89831
3.38879
4.06728
5.08632
6.92644
9.74522
13.5567
18.0967
22.8294
27.0017
29.7837
30.5148
28.9796
25.622
21.6667
17.9558
14.7561
12.1605
10.1492
8.64135
7.49831
6.73897
6.30899
6.12759
6.19136
6.53965
7.37817
9.07582
12.4064
19.2706
36.0916
96.2498
440.089
2949.24
2.92656
2.51918
2.19828
1.98174
1.83621
1.73834
1.67359
1.63212
1.60719
1.59495
1.59014
1.58953
1.59551
1.60346
1.61431
1.62651
1.64029
1.65518
1.67121
1.6883
1.70649
1.72583
1.74639
1.76804
1.79102
1.8158
1.84255
1.87147
3.44472
4.16774
5.29821
7.39098
10.6793
15.2361
20.8529
27.0148
32.9181
37.5634
39.9746
39.5302
36.2658
31.0226
25.4549
20.5388
16.484
13.3024
10.899
9.13412
7.82122
6.95845
6.46673
6.24541
6.28259
6.60097
7.41812
9.10594
12.4214
19.2676
36.111
96.74
444.638
2978.93
3.49296
2.9119
2.45806
2.15695
1.95482
1.81824
1.72646
1.66595
1.62746
1.60465
1.59383
1.58986
1.58986
1.59633
1.6045
1.61539
1.62764
1.64137
1.65621
1.67216
1.68917
1.70726
1.72651
1.74669
1.76804
1.79102
1.8158
1.84255
1.87147
4.26598
5.51223
7.8613
11.631
16.9614
23.7184
31.4366
39.3081
46.2265
50.9454
52.3977
50.1166
44.5224
36.9467
29.4966
23.2329
18.2543
14.4559
11.6478
9.62096
8.13656
7.17038
6.61761
6.35736
6.35727
6.653
7.4619
9.13908
12.4383
19.2647
36.1376
97.2737
449.7
3011.65
4.35203
3.47448
2.82181
2.39897
2.11841
1.92891
1.80084
1.71497
1.6586
1.62301
1.60234
1.59282
1.58961
1.59043
1.59711
1.60556
1.61645
1.62875
1.64241
1.65721
1.67308
1.69001
1.70802
1.72685
1.74669
1.76804
1.79102
1.8158
1.84255
1.87143
5.72541
8.33307
12.5879
18.7075
26.6468
36.012
46.0318
55.5601
63.1642
67.3711
67.1136
62.2281
53.6633
43.3151
33.7347
26.0018
20.0453
15.609
12.389
10.0986
8.44301
7.37435
6.76158
6.44952
6.42053
6.70993
7.50989
9.17558
12.4574
19.2647
36.1688
97.8861
455.202
3047.06
4.32824
5.91321
3.33752
2.73668
2.34381
2.08128
1.90378
1.78398
1.70388
1.65155
1.61874
1.60021
1.59192
1.58931
1.59112
1.59788
1.60661
1.61749
1.62983
1.64344
1.65819
1.67398
1.69084
1.70839
1.72685
1.74669
1.76804
1.79102
1.8158
1.84245
1.87136
8.80225
13.5392
20.4519
29.5947
40.663
52.9515
65.335
76.2935
84.0556
86.9687
84.0962
75.7579
63.5716
50.0379
38.1116
28.8114
21.8378
16.7509
13.117
10.5643
8.7395
7.57003
6.88058
6.52786
6.48966
6.77228
7.56254
9.21582
12.4792
19.2657
36.2105
98.5555
461.36
3086.16
4.10427
5.8947
9.21885
3.21249
2.65722
2.29068
2.04527
1.87941
1.76767
1.69321
1.6448
1.61473
1.59828
1.59116
1.5891
1.59187
1.59866
1.60766
1.61852
1.63088
1.64444
1.65914
1.67485
1.69124
1.70839
1.72685
1.74669
1.76804
1.79102
1.81565
1.84225
1.87129
14.4742
22.1755
32.5242
45.3183
59.9404
75.3292
89.9696
101.935
109.115
109.755
103.228
90.5445
74.107
57.0202
42.5713
31.6311
23.6154
17.8728
13.8272
11.0159
9.02515
7.73253
6.98201
6.61381
6.56528
6.84058
7.62036
9.26026
12.504
19.2688
36.2593
99.3283
468.069
3128.26
3.90765
5.4985
9.22993
15.3068
3.09669
2.5807
2.23916
2.01033
1.85583
1.75195
1.68297
1.63839
1.61102
1.5966
1.59054
1.589
1.59265
1.59946
1.60868
1.61954
1.63191
1.64542
1.66007
1.67529
1.69124
1.70839
1.72685
1.74669
1.76804
1.79081
1.81533
1.84204
1.87122
23.8599
35.4043
49.918
66.8879
85.3455
103.847
120.454
132.795
138.427
135.625
124.306
106.38
85.1139
64.1671
47.0621
34.4336
25.3638
18.9676
14.5162
11.4517
9.26317
7.87145
7.09361
6.70818
6.64808
6.91547
7.68388
9.30938
12.5324
19.2751
36.3236
100.177
475.631
3174.82
3.72921
5.15355
8.50506
15.392
25.3687
2.98561
2.50661
2.18924
1.97653
1.83308
1.73684
1.67319
1.63237
1.60772
1.59516
1.59005
1.58901
1.59342
1.60028
1.60969
1.62054
1.63292
1.64638
1.66053
1.67528
1.69124
1.70839
1.72685
1.74669
1.76778
1.79038
1.815
1.84183
1.87114
38.2059
54.4157
73.7054
95.2196
117.629
139.088
157.185
169.049
171.936
164.353
147.048
123.025
96.4317
71.3881
51.5371
37.1953
27.0718
20.0298
15.181
11.8153
9.46707
8.02474
7.21652
6.81191
6.73881
6.99761
7.75374
9.36375
12.5647
19.2862
36.3988
101.164
483.877
3224.54
3.56103
4.84179
7.86007
14.1446
25.637
40.7216
2.8784
2.43494
2.14099
1.94392
1.81121
1.72239
1.66396
1.62692
1.60483
1.59394
1.5897
1.58913
1.59417
1.60114
1.61066
1.62153
1.63391
1.64685
1.66052
1.67528
1.69124
1.70839
1.72685
1.74638
1.76725
1.78994
1.81466
1.84161
1.87106
58.7688
80.3287
104.828
131.08
157.401
181.515
200.441
210.729
209.435
195.595
171.109
140.22
107.904
78.5999
55.9548
39.8969
28.7303
21.0551
15.7355
12.1269
9.69251
8.19411
7.35208
6.92605
6.83834
7.08778
7.83061
9.42401
12.6019
19.3014
36.4966
102.254
493.264
3279.65
3.40122
4.55082
7.26918
12.9963
23.6976
41.3249
62.6751
2.77498
2.36582
2.0945
1.91259
1.79026
1.70872
1.65554
1.62208
1.60231
1.59291
1.58947
1.5894
1.59489
1.60201
1.61162
1.62253
1.63439
1.64684
1.66052
1.67528
1.69124
1.70839
1.72651
1.74577
1.76671
1.78949
1.81431
1.84139
1.87098
86.7008
114.09
144.036
175.066
205.153
231.492
250.373
257.709
250.564
228.903
196.105
157.709
119.383
85.7285
60.2814
42.523
30.3321
21.9104
16.2108
12.4716
9.94205
8.38146
7.50174
7.05177
6.94763
7.18682
7.91527
9.49087
12.6444
19.3239
36.6113
103.5
503.476
3337.78
3.24931
4.27759
6.71467
11.9193
21.8756
38.4996
63.8028
92.3964
2.67543
2.29939
2.04987
1.8826
1.77044
1.69619
1.648
1.61777
1.60015
1.59204
1.5893
1.58984
1.59558
1.6029
1.61258
1.62301
1.63437
1.64684
1.66052
1.67528
1.69124
1.70801
1.72581
1.74514
1.76616
1.78903
1.81396
1.84116
1.8709
122.934
156.405
191.875
227.645
261.296
289.301
307.004
309.695
294.812
263.752
221.636
175.243
130.738
92.7126
64.4891
45.061
31.6691
22.6434
16.7364
12.8532
10.2185
8.58892
7.66717
7.1904
7.06777
7.29567
8.00853
9.56515
12.6936
19.3531
36.7583
104.847
515.247
3413.47
3.10511
4.02187
6.19219
10.893
20.128
35.8178
59.8897
94.2474
130.78
2.57993
2.23584
2.00723
1.85425
1.75225
1.68494
1.64125
1.61392
1.5983
1.59131
1.58908
1.59039
1.59626
1.60385
1.61303
1.62299
1.63437
1.64684
1.66052
1.67529
1.69083
1.70725
1.7251
1.7445
1.76559
1.78856
1.81359
1.84092
1.87081
168.109
207.731
248.732
289.223
326.221
355.162
370.211
366.205
341.534
299.568
247.309
192.598
141.858
99.5018
68.5557
47.1801
32.8154
23.4543
17.3183
13.2762
10.5252
8.81889
7.85024
7.34342
7.19997
7.41541
8.11141
9.64774
12.7499
19.3934
36.9296
106.404
530.222
3504.31
2.96832
3.78411
5.70246
9.91288
18.4278
33.2078
56.1701
89.0273
133.52
178.367
2.48874
2.17532
1.96697
1.82824
1.7359
1.67485
1.63521
1.61049
1.59672
1.59072
1.58891
1.591
1.59702
1.6043
1.61296
1.623
1.63437
1.64684
1.66053
1.67485
1.69
1.70647
1.72437
1.74384
1.76501
1.78807
1.81322
1.84068
1.87073
222.567
268.336
314.946
360.241
400.348
429.227
439.698
426.576
389.987
335.763
272.758
209.584
152.654
106.056
71.9497
48.9972
34.0835
24.3519
17.963
13.7452
10.8655
9.07408
8.05304
7.5125
7.3456
7.54712
8.22472
9.73966
12.8154
19.4439
37.1453
108.434
549.736
3595.46
2.83837
3.5655
5.24697
8.98476
16.7649
30.6329
52.5218
84.101
126.73
182.072
235.336
2.40218
2.11835
1.9301
1.80489
1.72122
1.66579
1.62981
1.60748
1.59539
1.59022
1.58885
1.59175
1.59732
1.60425
1.61296
1.623
1.63437
1.64685
1.66006
1.67396
1.68914
1.70566
1.72362
1.74316
1.76442
1.78757
1.81284
1.84043
1.87064
286.417
338.427
390.93
441.271
484.171
511.573
514.976
489.972
439.358
371.77
297.668
226.046
163.054
111.518
74.8583
51.0073
35.4876
25.3464
18.6777
14.2658
11.2435
9.35747
8.27792
7.6995
7.50618
7.6924
8.3503
9.84235
12.8906
19.5113
37.4432
111.121
571.028
3685.77
2.71503
3.36747
4.82698
8.11246
15.1407
28.0758
48.893
79.2636
120.424
173.361
239.931
301.57
2.32111
2.06635
1.89706
1.78392
1.70803
1.65766
1.625
1.60485
1.59423
1.58984
1.58906
1.59209
1.59717
1.60427
1.61296
1.62299
1.63439
1.64637
1.65912
1.67305
1.68827
1.70484
1.72285
1.74246
1.7638
1.78706
1.81244
1.84017
1.87055
359.687
418.312
477.328
533.142
578.306
602.183
595.335
555.4
488.822
407.087
321.782
241.864
171.696
116.192
78.0732
53.2323
37.0435
26.4491
19.4707
14.8438
11.6636
9.67236
8.52744
7.90649
7.68333
7.85172
8.4896
9.95705
12.9786
19.6092
37.8783
114.113
594.135
3774.4
2.59942
3.18602
4.44295
7.29789
13.568
25.5352
45.2519
74.443
114.268
165.464
228.797
306.768
376.823
2.24753
2.01985
1.86745
1.7651
1.69619
1.65039
1.62073
1.60254
1.59327
1.5898
1.58904
1.59198
1.59716
1.60427
1.61296
1.62301
1.6339
1.6454
1.65816
1.67212
1.68737
1.70399
1.72207
1.74174
1.76318
1.78653
1.81204
1.83991
1.87046
442.527
508.653
575.281
637.132
683.565
700.88
679.805
621.766
537.61
441.292
344.899
254.965
179.076
121.349
81.6279
55.6965
38.7683
27.6723
20.3509
15.4858
12.1306
10.0224
8.80446
8.13571
7.87928
8.02615
8.64392
10.0857
13.0987
19.761
38.3865
117.504
619.18
3860.49
2.49445
3.01982
4.09639
6.5459
12.0641
23.0224
41.5869
69.584
108.167
157.861
219.014
292.481
382.06
460.946
2.18214
1.97829
1.84092
1.74821
1.68558
1.6439
1.61692
1.60055
1.59279
1.58963
1.58875
1.59202
1.59716
1.60425
1.61303
1.62252
1.6329
1.64441
1.65718
1.67117
1.68645
1.70312
1.72126
1.74101
1.76253
1.78599
1.81163
1.83965
1.87037
535.498
610.711
686.642
755.199
800.92
807.205
767.174
687.976
585.049
474.053
363.982
266.121
187.195
127.037
85.5586
58.4262
40.6812
29.0298
21.3281
16.199
12.6496
10.4114
9.11205
8.38967
8.09611
8.21762
8.81472
10.2562
13.2615
19.9451
39.0006
121.313
646.276
3943.19
2.40132
2.87082
3.78879
5.86281
10.646
20.5559
37.9014
64.6546
102.031
150.428
209.795
280.377
363.555
465.353
554.213
2.12402
1.94115
1.81716
1.73307
1.67608
1.63807
1.61358
1.59928
1.59235
1.58928
1.58877
1.59202
1.59717
1.6043
1.61257
1.62152
1.63189
1.6434
1.65617
1.6702
1.68551
1.70223
1.72044
1.74026
1.76187
1.78544
1.81122
1.8394
1.87028
639.776
726.598
814.534
890.103
931.273
920.321
856.093
753.004
630.591
501.043
380.19
278.354
196.121
133.309
89.904
61.4501
42.8031
30.5367
22.4133
16.9912
13.2264
10.8438
9.45349
8.67097
8.33607
8.42802
9.03845
10.4735
13.4452
20.1738
39.7106
125.675
675.602
4021.56
2.31895
2.73836
3.5259
5.2563
9.33475
18.1582
34.2097
59.64
95.7974
143.028
200.982
269.288
348.504
441.058
556.622
657.794
2.07232
1.90797
1.7959
1.7195
1.66753
1.63292
1.61125
1.59835
1.59187
1.58932
1.58877
1.59198
1.59732
1.60384
1.6116
1.62052
1.63085
1.64238
1.65514
1.6692
1.68455
1.70132
1.71959
1.73948
1.7612
1.78489
1.81082
1.83916
1.8702
757.46
860.588
964.05
1045.17
1075.22
1039.11
945.191
815.943
668.136
523.92
397.901
291.747
205.922
140.218
94.7051
64.7989
45.1565
32.2092
23.618
17.8708
13.8668
11.3238
9.83219
8.98255
8.60116
8.70235
9.317
10.7073
13.6545
20.4436
40.5655
130.608
707.309
4094.78
2.24623
2.62
3.30901
4.73897
8.15137
15.8541
30.5348
54.5373
89.4192
135.56
192.382
259.016
335.162
422.193
524.148
656.816
774.342
2.02631
1.87836
1.77686
1.7073
1.65994
1.62916
1.60969
1.59769
1.59194
1.58932
1.58875
1.59209
1.59702
1.60289
1.61064
1.6195
1.62979
1.64133
1.65409
1.66818
1.68357
1.70038
1.71872
1.7387
1.76054
1.78437
1.81044
1.83892
1.87012
893.725
1020.55
1142.15
1224.26
1233.31
1162.47
1033.07
868.125
699.948
548.852
417.209
306.378
216.662
147.818
100.005
68.5051
47.7654
34.0648
24.9547
18.8467
14.5773
11.856
10.2518
9.32692
8.9483
9.04169
9.61072
10.9594
13.8892
20.7723
41.5527
136.295
741.637
4161.96
2.18206
2.51451
3.12537
4.30833
7.12493
13.6922
26.9088
49.3555
82.8599
127.931
183.84
249.285
323.275
406.049
500.348
612.401
768.574
908.82
1.98535
1.85193
1.75976
1.69646
1.65423
1.62676
1.60878
1.59779
1.59194
1.58928
1.58904
1.59175
1.59625
1.60199
1.60965
1.61848
1.6287
1.64025
1.65301
1.66713
1.68256
1.69942
1.71784
1.73792
1.75989
1.78385
1.81007
1.83869
1.87004
1057.59
1217.82
1358.53
1432.79
1407.45
1288.87
1106.91
912.442
734.574
575.929
438.19
322.315
228.404
156.163
105.846
72.6019
50.6549
36.1218
26.4368
19.9281
15.3642
12.4453
10.7154
9.77803
9.37793
9.39751
9.91987
11.2301
14.156
21.1559
42.7389
142.766
778.762
4222.48
2.1254
2.42095
2.96681
3.95281
6.26243
11.7585
23.3996
44.1182
76.0937
120.053
175.21
239.884
312.45
392.295
480.664
582.298
706.286
896.324
1071.82
1.94891
1.82825
1.74456
1.68815
1.65067
1.62557
1.60892
1.59779
1.59187
1.58964
1.58907
1.59099
1.59556
1.60111
1.60865
1.61745
1.6276
1.63916
1.65192
1.66605
1.68153
1.69844
1.71697
1.73716
1.75926
1.78335
1.8097
1.83847
1.86996
1264.36
1470.82
1629.95
1684.18
1599.68
1397.54
1169.96
960.723
772.088
605.213
460.9
339.614
241.203
165.301
112.27
77.1233
53.851
38.3993
28.0777
21.1248
16.2341
13.0956
11.3223
10.3353
9.82718
9.7693
10.2439
11.5213
14.455
21.6181
44.1116
150.277
818.94
4275.67
2.07531
2.33846
2.82759
3.66014
5.54729
10.0938
20.1449
38.9031
69.1102
111.844
166.342
230.603
302.41
380.344
464.687
558.144
668.277
807.906
1048.78
1279.1
1.91637
1.80726
1.7327
1.68309
1.64912
1.62578
1.60892
1.59769
1.59235
1.58981
1.58885
1.59037
1.59486
1.60025
1.60762
1.61641
1.62648
1.63803
1.6508
1.66495
1.68049
1.69748
1.71612
1.73643
1.75866
1.78287
1.80935
1.83825
1.86989
1547.19
1822.26
2001.55
2002.44
1769.25
1490.86
1238.78
1012.97
812.502
636.717
485.363
358.309
255.099
175.275
119.317
82.1019
57.3791
40.9166
29.8914
22.4463
17.1931
13.9457
12.07
10.9163
10.294
10.156
10.5834
11.8342
14.7952
22.1561
45.7613
158.887
862.405
4321.4
2.03082
2.26601
2.70388
3.4222
4.95974
8.68943
17.2304
33.9068
61.9705
103.227
157.074
221.22
292.865
369.844
451.493
539.511
638.531
760.176
923.255
1249.43
1574.34
1.88757
1.7907
1.72557
1.68111
1.6494
1.62578
1.60877
1.59836
1.5928
1.58985
1.58892
1.58982
1.59414
1.59943
1.60658
1.61536
1.62534
1.63688
1.64966
1.66382
1.67946
1.69654
1.7153
1.73572
1.75806
1.7824
1.80901
1.83804
1.86982
2006.32
2391.51
2584.57
2284.44
1913.96
1592.27
1313.01
1069.02
855.734
670.4
511.565
378.408
270.116
186.119
127.02
87.5674
61.2637
43.6921
31.8914
23.9014
18.4447
14.9903
12.8471
11.5176
10.7758
10.5561
10.9366
12.1716
15.1772
22.8
47.6799
168.952
909.209
4358.21
1.99158
2.20232
2.59367
3.22564
4.47946
7.51505
14.661
29.2796
54.914
94.2068
147.238
211.492
283.528
360.403
440.641
524.873
616.757
723.523
863.152
1065.52
1551.88
2119.85
1.86456
1.78094
1.72302
1.68151
1.6494
1.62557
1.60969
1.5993
1.59329
1.59023
1.58909
1.58938
1.59339
1.59863
1.60552
1.61428
1.6242
1.6357
1.64852
1.66272
1.67846
1.69563
1.7145
1.73503
1.75749
1.78194
1.80867
1.83784
1.86975
2855.76
3538.49
3060.28
2514.63
2067.18
1700.07
1391.94
1128.56
901.6
706.151
539.441
399.884
286.256
197.85
135.404
93.5452
65.5264
46.7433
34.0897
25.7985
19.9797
16.0734
13.6485
12.1351
11.2699
10.9686
11.3032
12.5337
15.6111
23.5501
49.9889
180.598
961.024
4386.78
1.95999
2.14677
2.49564
3.05908
4.08976
6.54455
12.443
25.0615
48.154
85.0206
136.738
201.145
274.076
351.673
431.609
513.691
600.409
698.067
818.141
989.484
1268.44
2153.05
3300.53
1.85108
1.77776
1.72355
1.6815
1.64911
1.62676
1.61128
1.60058
1.59426
1.59074
1.58931
1.58912
1.59262
1.59785
1.60447
1.61318
1.62305
1.6345
1.64739
1.66164
1.67749
1.69475
1.71373
1.73436
1.75693
1.7815
1.80835
1.83764
1.86971
4973.35
4255.49
3396.83
2739.52
2223.79
1812.34
1474.64
1191.09
949.815
743.784