/*--------------------------------*- C++ -*----------------------------------*\
  =========                 |
  \\      /  F ield         | OpenFOAM: The Open Source CFD Toolbox
   \\    /   O peration     | Website:  https://openfoam.org
    \\  /    A nd           | Version:  8
     \\/     M anipulation  |
\*---------------------------------------------------------------------------*/
FoamFile
{
    version     2.0;
    format      ascii;
    class       volScalarField;
    location    "0";
    object      alphat;
}
// * * * * * * * * * * * * * * * * * * * * * * * * * * * * * * * * * * * * * //

dimensions      [1 -1 -1 0 0 0 0];

internalField   nonuniform List<scalar> 
15677
(
0.000119745
0.00059903
0.000100651
0.00152238
0.000441828
0.000102552
0.00285517
0.000916269
0.000368202
0.000112025
0.00435043
0.00164141
0.00064719
0.000355384
0.00012774
0.00571355
0.00260834
0.00114525
0.00052727
0.000345703
0.000140958
0.00674653
0.00374355
0.00188389
0.000860326
0.000470243
0.000341564
0.000151069
0.00738934
0.00491857
0.00282285
0.00142629
0.000707737
0.000442064
0.000341012
0.000159039
0.00769152
0.00599228
0.00389402
0.00221719
0.00114449
0.000618756
0.000428903
0.00034302
0.000164959
0.00781715
0.00685746
0.00499279
0.00318331
0.00181359
0.000962353
0.000567001
0.000424291
0.000345915
0.000169903
0.00788018
0.00741466
0.00600191
0.0042434
0.00268116
0.0015242
0.000843889
0.000536659
0.000423909
0.000349816
0.000173551
0.00789504
0.0076872
0.00681685
0.00529451
0.00368462
0.00230089
0.00132419
0.000763351
0.000519218
0.000426631
0.000353458
0.000176885
0.00789069
0.00782292
0.00737179
0.00622888
0.00473352
0.00324184
0.00202166
0.00117674
0.000709049
0.00051023
0.000430211
0.000357634
0.000179242
0.00788608
0.00787221
0.00766259
0.006959
0.00572504
0.00426881
0.00290127
0.00180487
0.00106969
0.000671509
0.000505935
0.000435221
0.000361083
0.000181651
0.00788457
0.00788121
0.0078102
0.00744772
0.00656208
0.00528571
0.00389567
0.00262656
0.00164017
0.000988229
0.000645871
0.000505575
0.00043977
0.000364979
0.000183344
0.00788431
0.00788029
0.0078624
0.00770168
0.00717877
0.00619319
0.00491618
0.00358475
0.00241021
0.00150866
0.000927623
0.000628671
0.000506569
0.000445273
0.000367873
0.000185332
0.00788432
0.00787917
0.00787336
0.00782099
0.00756102
0.00691078
0.00586557
0.00459819
0.00333167
0.00223242
0.00140626
0.00088093
0.000617056
0.000509755
0.000449637
0.000371322
0.000186649
0.00788433
0.00787873
0.00787434
0.00785793
0.00775852
0.00740223
0.00665541
0.00557271
0.0043306
0.00311909
0.00208963
0.0013233
0.000845897
0.000610203
0.000512791
0.000454678
0.000373593
0.000188305
0.0078843
0.00787864
0.00787383
0.00786705
0.00783275
0.00767813
0.00723096
0.00641582
0.00531716
0.00410097
0.00294391
0.00197102
0.00125824
0.000819144
0.000605772
0.000517139
0.000458386
0.000376664
0.000189434
0.00788427
0.00787865
0.00787344
0.00786861
0.00785647
0.00779583
0.00758628
0.00706025
0.00619792
0.00509239
0.00390709
0.00279621
0.001875
0.00120466
0.000798839
0.000604298
0.000520655
0.000462811
0.00037854
0.000190872
0.00788423
0.00787866
0.00787325
0.00786857
0.00786296
0.00783979
0.00775081
0.00748325
0.00689782
0.00600052
0.00489788
0.00374135
0.00267394
0.00179509
0.00116276
0.000784044
0.000603603
0.000525119
0.000465923
0.000381166
0.000191904
0.00788421
0.00787867
0.00787316
0.00786839
0.00786425
0.00785474
0.00781829
0.0076969
0.00738192
0.0067454
0.00582502
0.00472877
0.00360161
0.00257147
0.0017304
0.00112931
0.000772996
0.0006049
0.000528554
0.000469749
0.000382842
0.000193234
0.00788419
0.00787867
0.00787309
0.00786827
0.00786427
0.00785909
0.00784413
0.00779147
0.00763913
0.00728199
0.00660548
0.00566914
0.00458381
0.00348347
0.00248723
0.00167755
0.00110342
0.000765715
0.000606101
0.00053272
0.000472387
0.000385049
0.000194197
0.00788418
0.00787867
0.00787305
0.00786821
0.0078641
0.00786004
0.00785299
0.00783087
0.00776078
0.00757975
0.00718558
0.00647772
0.0055333
0.0044599
0.00338523
0.002418
0.00163596
0.00108349
0.000760608
0.000608876
0.000535929
0.000475528
0.000386593
0.000195511
0.00788418
0.00787867
0.00787301
0.00786817
0.00786396
0.0078601
0.00785558
0.00784587
0.00781508
0.00772799
0.0075208
0.00709471
0.00636454
0.00541544
0.0043558
0.00330425
0.00236298
0.00160303
0.00106924
0.00075827
0.000610996
0.000539871
0.000477854
0.000388501
0.000196412
0.00788417
0.00787867
0.00787298
0.00786815
0.00786386
0.00785998
0.00785611
0.00785101
0.00783735
0.00779811
0.00769408
0.00746349
0.00701304
0.00626415
0.00531558
0.00426984
0.00323959
0.00231983
0.00157945
0.00105922
0.000757189
0.000614696
0.000542576
0.000480326
0.00038991
0.000197752
0.00788417
0.00787867
0.00787296
0.00786813
0.00786378
0.00785987
0.00785607
0.00785249
0.00784564
0.00782885
0.00777956
0.00766123
0.00741102
0.00693852
0.0061794
0.00523316
0.00420104
0.00318932
0.00228832
0.00156182
0.00105369
0.000758175
0.000617853
0.000545707
0.00048246
0.000391666
0.000198604
0.00788417
0.00787867
0.00787294
0.00786812
0.00786372
0.00785979
0.00785592
0.00785277
0.00784832
0.00784129
0.00781876
0.00776258
0.00762947
0.00736198
0.00687682
0.0061078
0.00516574
0.00414719
0.00315235
0.00226654
0.00155336
0.00105156
0.000760776
0.000621113
0.000548458
0.000484479
0.0003929
0.000199965
0.00788417
0.00787867
0.00787293
0.00786812
0.00786367
0.00785974
0.00785578
0.0078527
0.00784896
0.00784584
0.00783538
0.00781117
0.00774489
0.00760261
0.00732075
0.00682107
0.00605115
0.005118
0.00411289
0.00313156
0.00225691
0.0015494
0.00105359
0.000763912
0.000624332
0.000551024
0.00048635
0.000394639
0.000200815
0.00788418
0.00787867
0.00787291
0.00786811
0.00786362
0.0078597
0.00785566
0.00785257
0.00784894
0.00784723
0.00784179
0.0078329
0.0078018
0.00773249
0.00757721
0.00728738
0.00678765
0.00601634
0.00508739
0.00409126
0.00312038
0.00225322
0.00155223
0.00105743
0.000767685
0.00062813
0.000553814
0.000488135
0.000395636
0.000202125
0.00788418
0.00787866
0.0078729
0.00786811
0.00786358
0.00785967
0.00785556
0.00785245
0.00784877
0.00784746
0.00784391
0.00784186
0.00782805
0.00779899
0.00771982
0.0075605
0.00727214
0.00676261
0.00598983
0.00506689
0.00408064
0.00311835
0.00225752
0.00155917
0.00106377
0.000773078
0.00063209
0.00055624
0.000489792
0.000397445
0.000203296
0.00788418
0.00787866
0.00787289
0.00786811
0.00786354
0.00785965
0.00785547
0.00785235
0.00784859
0.00784735
0.00784435
0.00784511
0.00783931
0.00783069
0.00779272
0.00771681
0.00755692
0.00725915
0.00674625
0.00597539
0.00506127
0.00408402
0.00312854
0.00227064
0.00157129
0.00107316
0.000779275
0.000635991
0.000558591
0.000491342
0.000398286
0.000204443
0.00788418
0.00787866
0.00787289
0.00786811
0.00786351
0.00785964
0.0078554
0.00785227
0.00784843
0.00784717
0.00784425
0.00784597
0.00784362
0.00784477
0.00782885
0.007802
0.00771983
0.00755764
0.00725457
0.00674525
0.00598134
0.00507386
0.00410263
0.00315014
0.0022909
0.00158871
0.00108484
0.000786317
0.000640006
0.000560823
0.00049286
0.000399811
0.000205575
0.00788419
0.00787865
0.00787288
0.0078681
0.00786348
0.00785963
0.00785534
0.00785221
0.00784828
0.00784699
0.00784402
0.00784601
0.00784486
0.0078504
0.00784553
0.00784427
0.00780855
0.00772923
0.0075651
0.00726843
0.0067634
0.00600387
0.00510202
0.00413427
0.00318174
0.00231828
0.00161054
0.00109886
0.000793964
0.000644034
0.000563252
0.000494486
0.000401249
0.000206735
0.00788419
0.00787865
0.00787288
0.0078681
0.00786346
0.00785962
0.00785528
0.00785216
0.00784816
0.00784684
0.00784377
0.00784581
0.00784498
0.0078522
0.00785255
0.00786428
0.00785381
0.00782326
0.00774862
0.00758993
0.00729821
0.00679811
0.00604355
0.0051453
0.00417862
0.00322298
0.00235199
0.00163658
0.00111472
0.000802443
0.000648718
0.000565787
0.000495892
0.000402688
0.000207896
0.00787865
0.0078842
0.00787288
0.0078681
0.00786343
0.00785962
0.00785524
0.00785212
0.00784805
0.00784671
0.00784353
0.00784555
0.00784474
0.00785254
0.00785492
0.00787313
0.00787556
0.0078723
0.00785102
0.00778194
0.00762994
0.00734475
0.00685082
0.00609988
0.00520379
0.00423528
0.00327311
0.00239207
0.00166671
0.00113295
0.000812824
0.000653943
0.000568214
0.000497351
0.000404119
0.000209076
0.00787287
0.00787866
0.00788422
0.0078681
0.00786342
0.00785961
0.0078552
0.00785209
0.00784796
0.00784661
0.00784333
0.00784531
0.0078444
0.00785238
0.00785542
0.00787642
0.00788544
0.00789643
0.00790575
0.00789069
0.0078304
0.00768701
0.00740983
0.00692156
0.00617392
0.00527713
0.00430376
0.0033321
0.0024374
0.00169987
0.00115531
0.000825063
0.000659238
0.000570484
0.000498553
0.000405452
0.000210221
0.0078681
0.0078729
0.00787869
0.00788423
0.0078634
0.00785961
0.00785516
0.00785206
0.00784788
0.00784652
0.00784314
0.0078451
0.00784407
0.00785208
0.00785528
0.00787741
0.00788931
0.00790775
0.00793362
0.00794994
0.00794587
0.00789588
0.00776307
0.00749484
0.00701197
0.00626534
0.00536504
0.00438364
0.00339889
0.00248874
0.0017394
0.00118284
0.000838011
0.000664509
0.000572742
0.000499787
0.000406791
0.000211371
0.00786339
0.00786813
0.00787296
0.00787872
0.00788425
0.0078596
0.00785514
0.00785203
0.00784782
0.00784644
0.00784298
0.00784492
0.00784376
0.00785174
0.00785492
0.00787752
0.00789061
0.00791253
0.00794733
0.00798122
0.00801028
0.00801819
0.00798104
0.00785951
0.00760079
0.00712157
0.00637473
0.0054673
0.00447429
0.00347362
0.00255114
0.0017875
0.00121224
0.000851875
0.000669924
0.000574807
0.000501033
0.000408022
0.000212462
0.0078596
0.00786342
0.00786821
0.00787302
0.00787875
0.00788427
0.00785511
0.00785201
0.00784777
0.00784637
0.00784285
0.00784477
0.00784348
0.00785143
0.00785453
0.00787733
0.00789092
0.00791439
0.00795354
0.00799721
0.00804509
0.00808754
0.00811062
0.0080869
0.00797777
0.00772758
0.00725141
0.0065013
0.00558363
0.00457522
0.00356407
0.00262756
0.00183771
0.00124333
0.000866281
0.000675241
0.000576915
0.000502096
0.000409249
0.00021355
0.00785509
0.00785964
0.0078635
0.00786828
0.00787309
0.00787878
0.00788429
0.00785199
0.00784772
0.00784631
0.00784273
0.00784464
0.00784323
0.00785116
0.00785416
0.00787703
0.00789086
0.0079151
0.00795632
0.00800532
0.00806469
0.00812762
0.00818699
0.00822416
0.00821451
0.00811743
0.00787564
0.00740016
0.00664432
0.00571404
0.00469826
0.0036747
0.00270946
0.00189165
0.00127602
0.000881203
0.00068071
0.000578914
0.000503155
0.000410366
0.000214565
0.00785196
0.00785513
0.00785975
0.00786358
0.00786836
0.00787316
0.00787881
0.00788431
0.00784769
0.00784626
0.00784263
0.00784453
0.007843
0.00785093
0.00785383
0.00787673
0.00789068
0.00791535
0.00795769
0.0080097
0.0080757
0.00815149
0.00823385
0.00831041
0.00836503
0.00836689
0.00827793
0.00804288
0.00756702
0.00680244
0.00587231
0.00484894
0.00379389
0.00279626
0.00194787
0.00130955
0.000896232
0.000685809
0.000580921
0.000504092
0.000411479
0.000215574
0.00784766
0.00785201
0.00785524
0.00785985
0.00786366
0.00786844
0.00787323
0.00787885
0.00788433
0.0078462
0.00784256
0.00784443
0.00784279
0.00785075
0.00785353
0.00787644
0.00789046
0.00791543
0.00795847
0.00801239
0.0080825
0.00816618
0.00826379
0.00836521
0.0084622
0.00853264
0.00854853
0.00846422
0.00822766
0.0077493
0.00699349
0.00606419
0.00501031
0.00392019
0.00288696
0.00200536
0.00134419
0.000911845
0.00069118
0.000582855
0.000505039
0.000412487
0.000216504
0.00784615
0.0078477
0.00785212
0.00785535
0.00785995
0.00786375
0.00786851
0.0078733
0.00787888
0.00788436
0.00784249
0.00784434
0.00784261
0.00785061
0.00785325
0.00787617
0.00789025
0.00791544
0.00795899
0.00801434
0.00808729
0.00817619
0.00828427
0.00840299
0.00852778
0.00864309
0.00873077
0.00875708
0.00867798
0.0084349
0.00796653
0.00722119
0.00626765
0.00518062
0.00405195
0.00298066
0.0020636
0.00137859
0.000927665
0.000696327
0.00058479
0.000505878
0.000413491
0.000217427
0.00784245
0.00784616
0.0078478
0.00785223
0.00785547
0.00786005
0.00786385
0.00786859
0.00787338
0.00787891
0.00788438
0.00784426
0.00784246
0.0078505
0.00785299
0.00787594
0.00789007
0.00791543
0.00795938
0.00801592
0.00809105
0.00818394
0.00829968
0.00843104
0.0085767
0.00872239
0.0088584
0.00895924
0.00899427
0.00891682
0.00869125
0.00822873
0.00746016
0.00647991
0.00535674
0.00418766
0.00307619
0.00212316
0.00141209
0.000943584
0.000701303
0.000586556
0.000506716
0.000414394
0.000218268
0.00784417
0.00784243
0.00784621
0.00784792
0.00785234
0.0078556
0.00786015
0.00786395
0.00786867
0.00787346
0.00787894
0.0078844
0.00784234
0.00785042
0.00785272
0.00787575
0.00788992
0.00791544
0.00795973
0.0080173
0.00809422
0.00819049
0.0083124
0.00845346
0.00861608
0.00878583
0.00895601
0.00910795
0.00922099
0.00926023
0.00920887
0.00900695
0.00851553
0.00770576
0.00669544
0.00553569
0.0043253
0.00317279
0.0021832
0.00144549
0.000959343
0.000706254
0.000588248
0.000507455
0.000415291
0.000219103
0.00784224
0.00784408
0.00784245
0.00784627
0.00784806
0.00785245
0.00785574
0.00786025
0.00786406
0.00786875
0.00787354
0.00787898
0.00788443
0.00785036
0.00785245
0.00787561
0.0078898
0.00791545
0.00796004
0.00801854
0.00809699
0.00819631
0.00832347
0.00847276
0.00864963
0.0088401
0.00903928
0.00922856
0.00939657
0.00951651
0.0095881
0.00956755
0.00934696
0.00882298
0.00796269
0.00691172
0.00571534
0.00446385
0.00326963
0.00224336
0.00147774
0.00097484
0.000711225
0.000589793
0.000508188
0.000416098
0.000219859
0.0078503
0.00784204
0.00784396
0.00784249
0.00784633
0.00784821
0.00785256
0.0078559
0.00786035
0.00786418
0.00786883
0.00787363
0.00787901
0.00788445
0.00785217
0.00787554
0.00788973
0.00791549
0.00796033
0.00801966
0.00809946
0.00820159
0.00833335
0.00849014
0.00867969
0.00888797
0.00911439
0.00933751
0.0095474
0.00972509
0.00988394
0.00999434
0.00995771
0.00970791
0.0091437
0.00823047
0.00712858
0.00589427
0.0046013
0.00336583
0.00230302
0.00150961
0.000990048
0.000716136
0.000591262
0.000508833
0.000416891
0.000220607
0.00785189
0.00785004
0.00784171
0.00784384
0.00784255
0.00784638
0.00784838
0.00785266
0.00785606
0.00786045
0.0078643
0.00786892
0.00787372
0.00787905
0.00788447
0.00787554
0.00788968
0.00791552
0.00796059
0.00802068
0.00810171
0.00820643
0.00834228
0.00850613
0.00870722
0.0089316
0.00918336
0.00944057
0.00969058
0.00991342
0.0101379
0.0103448
0.0104412
0.0103758
0.0100863
0.00947301
0.00850479
0.00734344
0.00606882
0.00473638
0.00346071
0.0023618
0.00154091
0.00100487
0.000720967
0.000592614
0.000509472
0.00041761
0.000221283
0.00787564
0.00785097
0.00784959
0.00784141
0.0078437
0.00784266
0.00784643
0.00784857
0.00785277
0.00785624
0.00786055
0.00786442
0.007869
0.0078738
0.00787908
0.00788449
0.00788963
0.00791556
0.00796081
0.00802161
0.00810375
0.00821086
0.00835041
0.00852096
0.00873256
0.00897217
0.00924833
0.00953787
0.00983035
0.0101
0.0103802
0.010664
0.010859
0.0109264
0.0108192
0.0104791
0.00980819
0.00878265
0.0075609
0.00623919
0.00486827
0.00355356
0.00241942
0.00157116
0.00101927
0.000725665
0.000593912
0.000510035
0.000418305
0.000221947
0.00788956
0.00787502
0.00784933
0.0078491
0.0078412
0.00784354
0.00784281
0.00784646
0.00784878
0.00785287
0.00785642
0.00786066
0.00786455
0.00786909
0.00787388
0.00787912
0.00788451
0.00791557
0.00796099
0.00802246
0.00810563
0.00821492
0.00835784
0.00853471
0.00875589
0.00901027
0.00931004
0.00963021
0.00996471
0.0102897
0.0106326
0.0109855
0.0112611
0.0114279
0.0114505
0.011287
0.0108844
0.0101472
0.00905898
0.00777811
0.00640494
0.00499625
0.00364399
0.00247557
0.00160047
0.00103319
0.000730231
0.00059511
0.000510592
0.000418949
0.00022255
0.0079156
0.00788827
0.00787362
0.00784806
0.00784849
0.0078411
0.00784334
0.007843
0.00784649
0.007849
0.00785298
0.00785661
0.00786077
0.00786468
0.00786917
0.00787396
0.00787915
0.00788452
0.00796113
0.00802323
0.00810737
0.00821863
0.00836466
0.00854743
0.00877738
0.00904618
0.00936838
0.00971789
0.0100953
0.01048
0.0108988
0.011334
0.0116883
0.0119417
0.012062
0.0120194
0.0117807
0.0113013
0.0104884
0.0093325
0.007993
0.00656604
0.00512017
0.00373155
0.00253002
0.0016288
0.00104662
0.000734629
0.000596268
0.000511083
0.000419549
0.000223133
0.00796127
0.00791359
0.00788561
0.00787164
0.0078472
0.00784774
0.00784111
0.00784311
0.00784323
0.00784652
0.00784924
0.00785309
0.0078568
0.00786087
0.00786481
0.00786926
0.00787404
0.00787919
0.00788454
0.00802394
0.00810896
0.00822203
0.00837091
0.00855914
0.00879718
0.00907995
0.00942308
0.00980133
0.0102235
0.010671
0.0111667
0.0117114
0.0121806
0.0125322
0.0127409
0.0127823
0.0126425
0.0123035
0.01173
0.0108307
0.00960224
0.00820401
0.0067214
0.00523896
0.00381584
0.00258259
0.0016561
0.00105952
0.000738868
0.000597333
0.000511572
0.000420133
0.000223672
0.00802466
0.00795792
0.00790941
0.00788296
0.00786927
0.00784678
0.00784681
0.00784125
0.00784285
0.00784349
0.00784656
0.00784948
0.00785322
0.00785699
0.00786098
0.00786492
0.00786934
0.00787411
0.00787923
0.00788455
0.00811043
0.00822514
0.00837665
0.00856988
0.00881543
0.00911154
0.00947405
0.00988106
0.0103494
0.0108594
0.0114306
0.0121118
0.0127696
0.0132841
0.0135935
0.0136996
0.013607
0.0133268
0.012857
0.0121701
0.0111732
0.00986741
0.00841029
0.00687253
0.00535232
0.00389665
0.00263314
0.00168232
0.00107189
0.00074292
0.00059837
0.000511998
0.000420652
0.000224101
0.00811184
0.0080205
0.00795081
0.00790539
0.00788036
0.00786643
0.00784675
0.00784575
0.00784147
0.0078426
0.00784376
0.00784662
0.00784973
0.00785335
0.00785716
0.0078611
0.00786504
0.00786943
0.00787418
0.00787926
0.00788457
0.00822795
0.00838189
0.00857971
0.00883223
0.0091409
0.00952142
0.00995735
0.0104713
0.0110416
0.0116926
0.0125538
0.0134758
0.0142647
0.014744
0.014909
0.014826
0.0145349
0.0140692
0.0134389
0.0126201
0.0115151
0.0101274
0.00861028
0.00701966
0.00546048
0.00397386
0.00268159
0.00170745
0.00108371
0.000746804
0.000599315
0.000512431
0.000421096
0.000224487
0.00823057
0.008106
0.00801099
0.00794376
0.00790161
0.00787821
0.00786306
0.007847
0.00784464
0.00784173
0.00784237
0.00784403
0.0078467
0.00784995
0.00785349
0.00785733
0.00786121
0.00786515
0.00786951
0.00787425
0.0078793
0.00788458
0.00838665
0.00858865
0.00884767
0.00916801
0.00956542
0.01003
0.0105873
0.0112163
0.0119614
0.0130578
0.0143106
0.0154425
0.0162099
0.0165045
0.0164171
0.0160741
0.0155377
0.0148548
0.0140419
0.0130767
0.0118548
0.0103815
0.00880327
0.00716207
0.00556359
0.00404745
0.00272788
0.00173147
0.00109498
0.000750496
0.000600245
0.000512742
0.000421472
0.000224899
0.00839104
0.00822268
0.00809209
0.00800154
0.00793706
0.00789804
0.0078767
0.00785947
0.00784739
0.00784356
0.00784198
0.00784219
0.00784427
0.00784682
0.00785016
0.00785364
0.00785749
0.00786132
0.00786525
0.00786959
0.00787431
0.00787933
0.00788459
0.00859677
0.0088618
0.00919294
0.00960624
0.0100987
0.0106964
0.0113851
0.0122454
0.0136245
0.0152376
0.0167187
0.0177992
0.0183561
0.0183699
0.0179863
0.0173628
0.0165695
0.0156595
0.0146549
0.0135352
0.0121906
0.0106291
0.00898914
0.00729928
0.00566177
0.00411743
0.002772
0.00175437
0.00110571
0.000754021
0.000600969
0.000513037
0.000421831
0.000225367
0.00860414
0.00838044
0.00820287
0.00807818
0.00799232
0.00793062
0.00789465
0.00787545
0.00785591
0.00784776
0.0078426
0.00784217
0.00784211
0.00784448
0.00784696
0.00785035
0.0078538
0.00785764
0.00786144
0.00786535
0.00786967
0.00787437
0.00787937
0.0078846
0.00887468
0.00921573
0.00964402
0.0101628
0.0107984
0.0115504
0.012547
0.0142328
0.0161869
0.0179652
0.0193091
0.0201299
0.0204035
0.0201394
0.0194863
0.0186102
0.0175814
0.0164569
0.0152646
0.0139899
0.0125205
0.0108694
0.00916778
0.00743101
0.00575512
0.00418383
0.00281394
0.00177617
0.00111591
0.000756913
0.000601619
0.000513317
0.000422284
0.000225853
0.00888634
0.00859046
0.00835257
0.00818301
0.00806462
0.00798326
0.00792443
0.00789148
0.00787428
0.0078526
0.00784793
0.00784187
0.00784226
0.00784212
0.00784465
0.00784713
0.00785052
0.00785396
0.00785778
0.00786155
0.00786545
0.00786975
0.00787443
0.00787938
0.0078846
0.00923652
0.00967884
0.0102222
0.0108937
0.0117138
0.0128612
0.0148505
0.0170902
0.0190818
0.0206049
0.0216237
0.0221468
0.0221698
0.0216895
0.0208309
0.0197569
0.0185346
0.0172233
0.0158587
0.014435
0.0128423
0.0111019
0.00933909
0.00755708
0.00584376
0.00424675
0.00285373
0.00179688
0.0011243
0.000759389
0.000602276
0.000513691
0.000422686
0.000226407
0.00925517
0.00886862
0.00855198
0.00832464
0.00816361
0.00805136
0.00797429
0.00791867
0.00788843
0.00787309
0.00784988
0.00784776
0.0078414
0.00784224
0.00784221
0.00784479
0.00784731
0.00785068
0.00785412
0.00785791
0.00786166
0.00786554
0.00786983
0.00787446
0.00787938
0.0078846
0.00971081
0.0102769
0.0109832
0.0118756
0.0131782
0.0154472
0.0179014
0.0200188
0.0216345
0.0227696
0.0234708
0.0237536
0.0235972
0.0229753
0.0219819
0.0207707
0.0194039
0.0179415
0.0164266
0.0148652
0.013154
0.0113259
0.00950302
0.00767741
0.00592782
0.00430628
0.00289142
0.00181393
0.00113145
0.000762087
0.000603072
0.000514018
0.000423207
0.000226974
0.00973946
0.00923303
0.00881589
0.00851336
0.00829732
0.00814466
0.00803837
0.00796536
0.00791329
0.00788537
0.00787157
0.00784818
0.00784719
0.00784121
0.00784214
0.00784236
0.00784491
0.00784751
0.00785084
0.00785428
0.00785804
0.00786177
0.00786563
0.00786987
0.00787446
0.00787938
0.0078846
0.0103271
0.0110677
0.0120342
0.0134875
0.0160011
0.0185995
0.0207683
0.0224047
0.0235824
0.024384
0.0248482
0.0249676
0.0247009
0.0240021
0.0229352
0.0216418
0.0201774
0.0186006
0.0169608
0.0152763
0.0134537
0.0115409
0.00965951
0.007792
0.00600743
0.00436252
0.00292236
0.00182842
0.00113927
0.00076512
0.000603838
0.000514481
0.000423634
0.000227623
0.0103717
0.00971169
0.00916169
0.00876299
0.0084755
0.00827064
0.00812613
0.00802564
0.00795653
0.00790812
0.00788225
0.00786902
0.00784734
0.00784631
0.00784122
0.00784199
0.00784254
0.00784502
0.0078477
0.00785098
0.00785444
0.00785817
0.00786188
0.00786567
0.00786987
0.00787446
0.00787938
0.0078846
0.0111476
0.0121874
0.0137802
0.0165006
0.0191824
0.0213464
0.022951
0.0241148
0.0249504
0.0255188
0.0258286
0.0258494
0.0255257
0.0247984
0.0237055
0.0223747
0.0208532
0.019196
0.0174567
0.0156652
0.0137402
0.0117465
0.0098086
0.0079009
0.00608272
0.00440859
0.00294861
0.00184433
0.00114781
0.000768434
0.000604844
0.000514849
0.000424236
0.000228277
0.0112203
0.0103374
0.00961527
0.00909004
0.00871108
0.00843847
0.00824456
0.00810804
0.00801324
0.00794787
0.00790315
0.00787921
0.00786574
0.00784716
0.00784528
0.00784134
0.00784183
0.00784274
0.00784513
0.00784789
0.00785113
0.0078546
0.00785829
0.00786194
0.00786567
0.00786987
0.00787446
0.00787938
0.0078846
0.0123332
0.0140555
0.0169423
0.0196591
0.0217797
0.0233176
0.024428
0.0252476
0.0258562
0.0262787
0.0264971
0.0264659
0.0261224
0.0254003
0.0243156
0.0229816
0.0214357
0.0197274
0.0179121
0.0160301
0.0140123
0.0119423
0.00995034
0.00800422
0.00614449
0.00444764
0.00297735
0.00186184
0.00115711
0.000772186
0.000605779
0.000515417
0.000424694
0.00022903
0.0124642
0.0111775
0.0102065
0.00951861
0.00901959
0.00866023
0.00840225
0.0082191
0.00809043
0.00800131
0.00793934
0.0078986
0.00787661
0.0078619
0.00784733
0.00784425
0.0078415
0.00784171
0.00784294
0.00784525
0.00784808
0.00785128
0.00785475
0.00785835
0.00786194
0.00786567
0.00786987
0.00787446
0.00787938
0.00788459
0.0143141
0.0173248
0.0200433
0.0220961
0.0235464
0.024578
0.0253462
0.0259467
0.026419
0.0267583
0.0269286
0.0268764
0.0265378
0.0258434
0.0247906
0.023478
0.0219328
0.0201973
0.018327
0.0163699
0.0142695
0.0121283
0.0100849
0.00808921
0.00619689
0.00449034
0.00300885
0.00188114
0.00116728
0.000776254
0.000607009
0.000515826
0.000425404
0.000229781
0.0124154
0.0145443
0.0109871
0.0100772
0.00942332
0.00895052
0.00861043
0.00836687
0.00819431
0.00807339
0.00799002
0.00793126
0.00789438
0.0078749
0.00785811
0.00784758
0.00784334
0.00784165
0.00784163
0.00784312
0.00784538
0.00784826
0.00785142
0.00785483
0.00785834
0.00786194
0.00786567
0.00786987
0.00787446
0.00787937
0.00788458
0.01765
0.02035
0.022321
0.0236727
0.024611
0.0253045
0.0258615
0.0263354
0.0267342
0.0270318
0.0271816
0.0271287
0.0268114
0.0261593
0.0251539
0.0238798
0.0223538
0.0206103
0.0187026
0.0166847
0.0145115
0.0123045
0.0101955
0.0081614
0.00625423
0.00453708
0.00304339
0.00190242
0.00117841
0.000780906
0.000608163
0.000516526
0.000425909
0.000230651
0.0121237
0.0144988
0.0179142
0.0108043
0.00995028
0.00932965
0.00888282
0.00856172
0.00833237
0.00817024
0.00805699
0.00797917
0.00792365
0.00789056
0.00787353
0.00785466
0.00784774
0.0078426
0.00784174
0.0078416
0.00784328
0.00784552
0.00784843
0.00785149
0.00785483
0.00785834
0.00786194
0.00786567
0.00786987
0.00787443
0.00787933
0.00788457
0.0205932
0.022476
0.023725
0.0245627
0.025167
0.025656
0.026095
0.026505
0.0268711
0.0271532
0.0273006
0.0272604
0.0269752
0.0263747
0.0254265
0.0242023
0.0227085
0.0209716
0.0190411
0.0169751
0.0147384
0.012449
0.0102895
0.00824052
0.00631706
0.00458813
0.0030813
0.00192593
0.00119068
0.000785895
0.000609699
0.000516977
0.000426761
0.000231511
0.0118373
0.0140825
0.0178355
0.0207739
0.0106304
0.00982508
0.00923776
0.00881651
0.00851417
0.00829882
0.00814696
0.00804119
0.00796872
0.0079166
0.00788719
0.00787228
0.00785179
0.00784768
0.00784208
0.00784177
0.00784163
0.00784342
0.00784566
0.00784852
0.00785148
0.00785484
0.00785834
0.00786194
0.00786568
0.00786983
0.00787437
0.0078793
0.00788455
0.0225782
0.023725
0.0244597
0.0249671
0.0253719
0.0257489
0.026132
0.026519
0.0268781
0.0271613
0.027318
0.0273002
0.0270547
0.0265115
0.0256263
0.0244588
0.0230063
0.0212867
0.0193452
0.017242
0.0149225
0.0125714
0.0103924
0.00832727
0.00638631
0.00464398
0.00312294
0.0019519
0.0012041
0.000791683
0.000611113
0.000517846
0.000427344
0.00023252
0.011569
0.0136321
0.0174163
0.0206581
0.0226306
0.0104622
0.00970158
0.00914776
0.00875169
0.00846789
0.0082663
0.00812448
0.00802604
0.00795885
0.00791038
0.00788411
0.00787096
0.0078498
0.00784735
0.00784176
0.00784174
0.0078417
0.00784356
0.00784574
0.00784852
0.00785148
0.00785484
0.00785835
0.00786194
0.00786563
0.00786975
0.00787431
0.00787926
0.00788454
0.0236888
0.0243221
0.0247292
0.0250398
0.0253357
0.0256619
0.0260302
0.0264203
0.0267885
0.0270833
0.0272579
0.0272699
0.02707
0.0265876
0.0257681
0.0246611
0.0232555
0.0215611
0.0196179
0.0174542
0.0150772
0.0127049
0.0105051
0.00842232
0.0064627
0.00470516
0.00316874
0.00198067
0.00121891
0.000797794
0.000613065
0.000518355
0.00042838
0.000233503
0.0113179
0.0131885
0.0168956
0.0203909
0.0224525
0.0236165
0.0102979
0.00958009
0.00905982
0.00868849
0.00842297
0.00823486
0.00810297
0.00801189
0.00794971
0.00790504
0.00788116
0.00786903
0.00784866
0.00784678
0.00784161
0.00784166
0.00784181
0.00784361
0.00784574
0.00784852
0.00785148
0.00785484
0.00785835
0.00786189
0.00786554
0.00786967
0.00787424
0.00787922
0.00788452
0.0241638
0.024471
0.0246822
0.0248841
0.0251307
0.0254475
0.0258283
0.0262378
0.0266248
0.0269387
0.0271383
0.0271868
0.0270369
0.0266172
0.0258643
0.0248192
0.0234637
0.0217999
0.0198294
0.0176303
0.0152446
0.0128506
0.0106287
0.00852657
0.00654701
0.00477231
0.00321916
0.00201251
0.00123522
0.000805032
0.000614796
0.000519471
0.000429102
0.000234696
0.0110804
0.0127673
0.0163201
0.0200201
0.022271
0.0233743
0.0239795
0.0101368
0.00946098
0.00897414
0.00862708
0.00837953
0.00820477
0.00808296
0.00799895
0.00794114
0.00790027
0.00787842
0.00786647
0.00784813
0.00784605
0.00784158
0.00784158
0.0078419
0.00784358
0.00784575
0.00784853
0.00785149
0.00785484
0.0078583
0.00786178
0.00786545
0.00786959
0.00787418
0.00787919
0.00788451
0.0242048
0.0243154
0.0244154
0.0245661
0.0248049
0.0251408
0.0255517
0.0259904
0.0264022
0.0267412
0.0269728
0.027064
0.0269677
0.0266116
0.0259247
0.0249414
0.0236373
0.0219792
0.0200024
0.017818
0.0154252
0.0130094
0.0107641
0.00864101
0.00664016
0.00484613
0.00327472
0.00204788
0.00125332
0.000812477
0.000617259
0.000520066
0.000430357
0.000235815
0.0108536
0.0123736
0.0157146
0.0195759
0.0220068
0.0232309
0.0236728
0.0239188
0.00997881
0.00934465
0.00889094
0.00856763
0.00833798
0.00817682
0.00806473
0.00798714
0.00793323
0.0078961
0.0078761
0.00786342
0.00784799
0.00784525
0.00784165
0.00784145
0.00784194
0.00784357
0.00784575
0.00784853
0.0078515
0.00785477
0.00785818
0.00786167
0.00786535
0.00786951
0.00787411
0.00787915
0.00788449
0.0239507
0.0239457
0.0239892
0.0241297
0.0243906
0.0247657
0.0252171
0.02569
0.0261311
0.0265014
0.0267724
0.026912
0.0268724
0.0265797
0.0259574
0.0250346
0.0237615
0.0221236
0.0201834
0.0180172
0.0156197
0.0131823
0.0109125
0.00876675
0.00674315
0.00492743
0.00333608
0.00208711
0.00127336
0.000821555
0.000619401
0.000521525
0.000431308
0.000237605
0.0106356
0.0120082
0.0150918
0.0190722
0.0216912
0.0230207
0.0235316
0.0235472
0.0235691
0.00982452
0.00923153
0.00881047
0.00851073
0.00829941
0.00815138
0.00804813
0.00797653
0.007926
0.00789246
0.00787455
0.00786031
0.00784804
0.00784448
0.00784183
0.00784133
0.00784198
0.00784358
0.00784575
0.00784854
0.00785144
0.00785462
0.00785805
0.00786156
0.00786526
0.00786943
0.00787403
0.00787912
0.00788447
0.0234859
0.0234167
0.0234441
0.0236054
0.0239111
0.0243372
0.0248343
0.0253439
0.0258187
0.0262277
0.0265457
0.0267394
0.0267586
0.0265286
0.0259688
0.0250934
0.0238592
0.0222712
0.0203718
0.0182279
0.0158287
0.0133703
0.0110751
0.008905
0.0068571
0.00501716
0.0034039
0.00213085
0.00129568
0.000830934
0.000622558
0.000522227
0.000433107
0.00023923
0.0104253
0.0116718
0.0144628
0.0185098
0.0213385
0.0227775
0.0233338
0.0233855
0.0231312
0.0230168
0.00967421
0.00912214
0.00873348
0.00845793
0.00826434
0.00812826
0.0080331
0.00796703
0.00791948
0.00788919
0.00787326
0.00785742
0.00784818
0.00784385
0.00784201
0.00784127
0.00784198
0.00784359
0.00784576
0.00784846
0.00785129
0.00785446
0.00785793
0.00786145
0.00786515
0.00786934
0.00787396
0.00787909
0.00788445
0.0228597
0.0227659
0.0228085
0.0230165
0.0233807
0.023864
0.0244078
0.0249563
0.0254708
0.0259271
0.0263001
0.0265528
0.0266324
0.0264638
0.0259622
0.025137
0.0239555
0.0224211
0.0205668
0.0184497
0.0160525
0.0135745
0.0112533
0.00905711
0.00698328
0.00511636
0.00347905
0.00217946
0.0013206
0.000842129
0.000625251
0.000524583
0.000434337
0.000241331
0.0102236
0.0113594
0.0138402