/*--------------------------------*- C++ -*----------------------------------*\
  =========                 |
  \\      /  F ield         | OpenFOAM: The Open Source CFD Toolbox
   \\    /   O peration     | Website:  https://openfoam.org
    \\  /    A nd           | Version:  8
     \\/     M anipulation  |
\*---------------------------------------------------------------------------*/
FoamFile
{
    version     2.0;
    format      ascii;
    class       volScalarField;
    location    "0";
    object      epsilon;
}
// * * * * * * * * * * * * * * * * * * * * * * * * * * * * * * * * * * * * * //

dimensions      [0 2 -3 0 0 0 0];

internalField   nonuniform List<scalar> 
15677
(
84.7395
23.4023
71.2246
9.39537
34.5734
72.5579
5.05743
16.0411
56.8638
79.2564
3.34486
8.70517
25.5629
81.6493
90.3769
2.56088
5.43382
12.8425
38.7348
104.162
99.7384
2.17681
3.79363
7.49325
18.4708
52.6553
121.337
106.903
1.99205
2.90087
4.9405
10.0259
24.9471
65.5175
133.257
112.547
1.91619
2.39261
3.58165
6.22021
12.9072
31.6805
76.2802
141.402
116.737
1.88636
2.09915
2.80484
4.29524
7.60496
16.0162
38.0447
85.0663
146.729
120.233
1.87141
1.94703
2.3447
3.22761
5.02957
9.08324
19.0848
43.9549
91.8792
150.38
122.808
1.86765
1.88135
2.07341
2.59988
3.64747
5.79353
10.5361
22.1229
49.1179
97.308
152.645
125.164
1.86841
1.85035
1.92369
2.22211
2.84982
4.07447
6.53035
11.9921
24.9426
53.7303
101.355
154.274
126.831
1.86936
1.83928
1.85463
1.99851
2.37018
3.10068
4.47921
7.26114
13.3564
27.6481
57.578
104.605
155.138
128.538
1.86967
1.83716
1.82162
1.87403
2.07996
2.51918
3.33631
4.87459
7.93804
14.6938
30.0625
60.9623
106.906
155.844
129.738
1.86973
1.83725
1.81024
1.81627
1.91046
2.16449
2.65951
3.56365
5.23663
8.59518
15.914
32.3325
63.6639
108.779
156.061
131.15
1.86973
1.83742
1.80778
1.79054
1.82005
1.95132
2.24581
2.7942
3.77079
5.58157
9.19181
17.091
34.2805
66.0076
110.011
156.342
132.089
1.86972
1.83747
1.80745
1.78273
1.77725
1.83008
1.99327
2.32449
2.91721
3.96496
5.89164
9.7617
18.1361
36.0648
67.7833
111.044
156.379
133.266
1.86971
1.83745
1.80745
1.78074
1.76183
1.76955
1.84506
2.03537
2.39717
3.03146
4.13853
6.1811
10.2703
19.1154
37.5273
69.284
111.632
156.496
134.07
1.86971
1.83743
1.80745
1.78031
1.75692
1.7453
1.76559
1.86217
2.0753
2.46467
3.1336
4.29729
6.4373
10.7421
19.9557
38.8079
70.3405
112.108
156.526
135.093
1.86971
1.8374
1.80743
1.78021
1.75548
1.73647
1.73169
1.76567
1.87944
2.11289
2.52538
3.22594
4.43673
6.66984
11.152
20.7088
39.802
71.1784
112.307
156.633
135.828
1.86971
1.83738
1.8074
1.78016
1.75509
1.73343
1.7183
1.7215
1.7667
1.89647
2.1472
2.58016
3.30679
4.56062
6.87034
11.5181
21.3224
40.6127
71.6955
112.42
156.722
136.774
1.86971
1.83736
1.80737
1.78011
1.75497
1.73246
1.7132
1.70295
1.71325
1.76908
1.91262
2.17848
2.62831
3.37781
4.66638
7.04553
11.8209
21.8334
41.1913
72.0376
112.388
156.926
137.459
1.86971
1.83735
1.80735
1.78006
1.7549
1.73213
1.71136
1.69538
1.68946
1.707
1.77237
1.92793
2.20634
2.67062
3.43824
4.75684
7.18965
12.0733
22.2165
41.5936
72.1594
112.309
157.101
138.393
1.86971
1.83734
1.80734
1.78002
1.75484
1.73199
1.7107
1.69244
1.67912
1.67826
1.702
1.77636
1.94202
2.23117
2.70693
3.48956
4.83069
7.30777
12.264
22.4949
41.836
72.1271
112.133
157.458
139.034
1.86972
1.83733
1.80733
1.77999
1.75479
1.73189
1.71044
1.69132
1.67485
1.66517
1.6684
1.69873
1.78049
1.95509
2.25298
2.73813
3.53159
4.89045
7.39637
12.4056
22.6691
41.9017
72.0061
111.99
157.728
139.987
1.86972
1.83733
1.80732
1.77996
1.75475
1.7318
1.71029
1.69084
1.67313
1.65946
1.6525
1.66075
1.69625
1.78515
1.96722
2.27241
2.76448
3.56615
4.93575
7.46214
12.4918
22.7501
41.8591
71.7822
111.718
158.257
140.594
1.86972
1.83732
1.80732
1.77994
1.75472
1.73174
1.71019
1.69059
1.67241
1.65701
1.64527
1.64226
1.65421
1.69566
1.79036
1.9789
2.28982
2.78717
3.5933
4.96955
7.50088
12.5375
22.7349
41.7444
71.4407
111.56
158.624
141.562
1.86972
1.83732
1.80731
1.77992
1.75469
1.73168
1.71011
1.69043
1.67206
1.65593
1.64209
1.63354
1.63314
1.65001
1.69627
1.7964
1.9904
2.30604
2.80668
3.61528
4.99184
7.52443
12.5312
22.6803
41.5206
71.0802
111.27
159.328
142.168
1.86972
1.83731
1.80731
1.77991
1.75468
1.73164
1.71004
1.6903
1.67185
1.65538
1.64067
1.6295
1.62298
1.62697
1.64736
1.69837
1.80367
2.0026
2.32186
2.82477
3.63295
5.00748
7.52332
12.5065
22.5669
41.229
70.6433
111.133
159.776
143.101
1.86972
1.83731
1.80731
1.77989
1.75466
1.7316
1.70999
1.6902
1.67169
1.65505
1.63997
1.62759
1.61823
1.61546
1.6218
1.64791
1.70275
1.81298
2.01618
2.33851
2.84219
3.64854
5.0155
7.51559
12.455
22.3999
40.8859
70.2144
110.871
160.731
143.936
1.86972
1.83731
1.80731
1.77988
1.75465
1.73157
1.70995
1.69012
1.67156
1.65482
1.63956
1.6266
1.61597
1.6098
1.60922
1.62122
1.65041
1.71013
1.82496
2.03216
2.35674
2.86053
3.66283
5.01999
7.49858
12.3783
22.2018
40.5088
69.7471
110.769
161.029
144.755
1.86972
1.83731
1.80731
1.77987
1.75464
1.73154
1.70991
1.69005
1.67146
1.65464
1.63927
1.62603
1.61481
1.60699
1.6031
1.60726
1.62291
1.65599
1.7211
1.84059
2.05137
2.37801
2.8808
3.67809
5.02315
7.47296
12.2879
21.9802
40.1096
69.2869
110.556
161.691
145.564
1.86972
1.83731
1.80731
1.77986
1.75463
1.73152
1.70988
1.68999
1.67137
1.6545
1.63905
1.62564
1.61413
1.6055
1.60006
1.60021
1.60866
1.62767
1.66634
1.73664
1.86076
2.07519
2.40322
2.90473
3.69544
5.02663
7.44437
12.1885
21.7466
39.6941
68.7755
110.341
162.605
146.392
1.86972
1.83731
1.80731
1.77985
1.75463
1.73149
1.70986
1.68994
1.6713
1.65438
1.63886
1.62535
1.61366
1.60463
1.59843
1.59664
1.60145
1.61313
1.63724
1.68197
1.75772
1.88675
2.10442
2.43388
2.93311
3.71688
5.03211
7.41524
12.0859
21.5041
39.2292
68.2312
110.193
163.656
147.222
1.83731
1.86976
1.80731
1.77984
1.75462
1.73147
1.70984
1.68989
1.67124
1.65427
1.63871
1.62511
1.6133
1.60405
1.59746
1.59473
1.59781
1.60582
1.62237
1.65312
1.70388
1.78558
1.91946
2.14057
2.47071
2.96755
3.74313
5.04128
7.38854
11.9821
21.2356
38.7242
67.7165
110.084
164.791
148.065
1.80731
1.8374
1.86983
1.77984
1.75462
1.73146
1.70983
1.68985
1.67119
1.65418
1.63858
1.62491
1.61301
1.60362
1.5968
1.59362
1.59588
1.60217
1.615
1.63862
1.67588
1.73333
1.82125
1.96034
2.1842
2.51508
3.00842
3.77563
5.05543
7.36506
11.8722
20.9457
38.244
67.2306
110.085
165.986
148.884
1.77983
1.80747
1.83761
1.8699
1.75461
1.73144
1.70982
1.68982
1.67115
1.6541
1.63847
1.62474
1.61276
1.60326
1.5963
1.59288
1.59478
1.6003
1.61145
1.63172
1.66225
1.70696
1.77154
1.86603
2.01004
2.23667
2.56734
3.05711
3.81466
5.07523
7.34575
11.7577
20.6748
37.7844
66.7879
110.118
167.18
149.705
1.75461
1.78003
1.80779
1.83782
1.86998
1.73143
1.70981
1.68979
1.67112
1.65403
1.63838
1.62459
1.61255
1.60297
1.59589
1.59233
1.59406
1.59928
1.60974
1.62866
1.65627
1.69494
1.74766
1.82004
1.92104
2.07014
2.29822
2.62866
3.11339
3.86098
5.10474
7.33212
11.6595
20.4218
37.3586
66.3916
110.192
168.403
150.485
1.73142
1.75486
1.78045
1.80812
1.83803
1.87006
1.7098
1.68976
1.67109
1.65397
1.6383
1.62446
1.61237
1.60272
1.59554
1.5919
1.59354
1.59866
1.60896
1.62755
1.65427
1.69071
1.7382
1.79988
1.88015
1.98796
2.14098
2.37026
2.69865
3.17832
3.92095
5.14703
7.33367
11.574
20.1928
36.9622
66.0345
110.332
169.591
151.262
1.70979
1.7317
1.75537
1.78088
1.80846
1.83825
1.87014
1.68974
1.67107
1.65391
1.63824
1.62434
1.61222
1.6025
1.59525
1.59153
1.59312
1.59823
1.60858
1.62731
1.65409
1.69025
1.73637
1.79423
1.86534
1.95395
2.06764
2.22432
2.45268
2.77809
3.25933
3.998
5.20011
7.34153
11.5034
19.9845
36.6025
65.7185
110.493
170.794
151.988
1.68972
1.71012
1.73229
1.7559
1.78132
1.80881
1.83848
1.87022
1.67105
1.65387
1.63818
1.62424
1.61209
1.60232
1.59499
1.59123
1.59278
1.59791
1.60838
1.62742
1.6548
1.69172
1.73829
1.79566
1.86407
1.94578
2.04289
2.16233
2.32022
2.54691
2.8769
3.36085
4.08542
5.26232
7.35875
11.4455
19.8004
36.2792
65.4374
110.697
171.935
152.709
1.67103
1.69006
1.71079
1.73289
1.75644
1.78178
1.80917
1.83871
1.8703
1.65382
1.63814
1.62415
1.61199
1.60215
1.59477
1.59097
1.5925
1.59765
1.60827
1.62769
1.65581
1.6941
1.7423
1.80131
1.87049
1.95073
2.04198
2.14802
2.27263
2.4308
2.66429
3.00084
3.47429
4.18196
5.33242
7.38699
11.403
19.6361
35.991
65.1945
110.908
173.087
153.373
1.65379
1.67141
1.69079
1.71148
1.73351
1.75699
1.78224
1.80954
1.83895
1.87038
1.6381
1.62407
1.6119
1.602
1.59459
1.59075
1.59226
1.59745
1.60822
1.628
1.65692
1.6967
1.7472
1.80924
1.8814
1.96417
2.05573
2.15728
2.26949
2.39918
2.56998
2.81296
3.1393
3.59797
4.28634
5.40939
7.42353
11.3704
19.4945
35.7351
64.9833
111.151
174.158
154.032
1.63807
1.65417
1.6722
1.69154
1.71219
1.73415
1.75756
1.78272
1.80991
1.8392
1.87047
1.62399
1.61183
1.60186
1.59443
1.59056
1.59206
1.59728
1.6082
1.62834
1.65804
1.69927
1.75218
1.81812
1.89492
1.98265
2.07864
2.18275
2.29237
2.41054
2.55705
2.74615
2.98
3.29073
3.73094
4.39725
5.49219
7.46634
11.3511
19.3709
35.508
64.8046
111.39
175.241
154.634
1.62393
1.63846
1.65498
1.67302
1.69231
1.71292
1.7348
1.75815
1.78322
1.8103
1.83945
1.87056
1.61176
1.60173
1.5943
1.59039
1.59189
1.59715
1.6082
1.62867
1.65912
1.70173
1.75702
1.82696
1.90952
2.00437
2.10746
2.2186
2.3329
2.45093
2.58924
2.75755
2.94164
3.16454
3.45487
3.87223
4.51373
5.57936
7.51488
11.3376
19.2653
35.3075
64.6511
111.655
176.226
155.23
1.61171
1.62429
1.63931
1.65582
1.67386
1.6931
1.71366
1.73548
1.75875
1.78373
1.8107
1.83971
1.87065
1.60162
1.5942
1.59024
1.59174
1.59704
1.60822
1.629
1.66015
1.70405
1.76163
1.83546
1.92391
2.02761
2.1406
2.26189
2.38571
2.51125
2.65364
2.81976
2.98466
3.15533
3.36197
3.63007
4.02026
4.63394
5.66969
7.56729
11.3361
19.1754
35.1311
64.5232
111.907
177.232
155.77
1.60152
1.61207
1.6251
1.64018
1.65669
1.67472
1.69392
1.71443
1.73617
1.75936
1.78425
1.81111
1.83998
1.87074
1.59411
1.59011
1.5916
1.59694
1.60825
1.62932
1.66113
1.70621
1.76598
1.84351
1.93776
2.05062
2.17594
2.31135
2.44833
2.58694
2.74178
2.91879
3.08393
3.2376
3.38696
3.56961
3.81354
4.1731
4.75716
5.76213
7.62296
11.3389
19.0988
34.9761
64.4152
112.178
178.124
156.304
1.59406
1.60177
1.61286
1.62592
1.64109
1.65759
1.67561
1.69476
1.71522
1.73689
1.76
1.78479
1.81153
1.84024
1.87083
1.58997
1.59148
1.59686
1.60828
1.62962
1.66203
1.70822
1.77006
1.85107
1.95097
2.07293
2.21106
2.36449
2.5201
2.6764
2.85033
3.04829
3.22739
3.38229
3.51545
3.63532
3.78607
4.00366
4.33059
4.88225
5.85558
7.68083
11.3456
19.0341
34.8404
64.3266
112.434
179.049
156.788
1.58986
1.59429
1.60238
1.61367
1.62679
1.64202
1.65852
1.67653
1.69564
1.71603
1.73763
1.76065
1.78534
1.81194
1.84049
1.87091
1.59136
1.59678
1.60832
1.6299
1.66287
1.71007
1.77385
1.85811
1.96348
2.09429
2.24526
2.41806
2.59806
2.77987
2.97915
3.20735
3.41182
3.58213
3.71528
3.81722
3.89844
4.00947
4.19531
4.49025
5.0079
5.94931
7.73983
11.3583
18.9801
34.7215
64.2535
112.701
179.844
157.262
1.59129
1.58981
1.59483
1.603
1.61452
1.6277
1.64298
1.65949
1.67747
1.69653
1.71687
1.73838
1.76131
1.78588
1.81234
1.84074
1.87099
1.59671
1.60835
1.63016
1.66365
1.71177
1.77736
1.86464
1.97527
2.11456
2.2783
2.47108
2.67746
2.89386
3.13039
3.39913
3.64073
3.83926
3.98643
4.08362
4.14176
4.17421
4.23904
4.38746
4.65032
5.13306
6.04228
7.79936
11.3746
18.9351
34.6179
64.1947
112.951
180.692
157.693
1.59669
1.59111
1.58977
1.59538
1.60368
1.61541
1.62865
1.64397
1.66049
1.67843
1.69746
1.71772
1.73916
1.76197
1.78641
1.81273
1.84098
1.87107
1.60837
1.6304
1.66435
1.71334
1.78059
1.87067
1.98631
2.13362
2.31003
2.52298
2.75657
3.01207
3.30093
3.63035
3.92376
4.16563
4.34072
4.44554
4.48863
4.48809
4.46078
4.47274
4.57896
4.8091
5.25642
6.13393
7.8588
11.3936
18.898
34.5273
64.148
113.206
181.392
158.109
1.60847
1.59628
1.59074
1.58971
1.59598
1.60442
1.61632
1.62965
1.64499
1.66152
1.67943
1.69841
1.71859
1.73992
1.76261
1.78693
1.81311
1.84122
1.87115
1.6306
1.66499
1.71477
1.78355
1.87624
1.99658
2.15146
2.34035
2.57321
2.83452
3.13274
3.48266
3.89952
4.27735
4.58491
4.80696
4.93218
4.96717
4.93243
4.85552
4.75644
4.70879
4.76877
4.9659
5.37791
6.22384
7.91764
11.4147
18.8675
34.4485
64.1113
113.446
182.167
158.494
1.63088
1.60772
1.59529
1.59032
1.58977
1.5966
1.60524
1.61726
1.6307
1.64604
1.66259
1.68045
1.69939
1.71946
1.74067
1.76323
1.78743
1.81348
1.84145
1.87123
1.66554
1.71606
1.78626
1.88136
2.0061
2.16809
2.36915
2.62131
2.91087
3.25512
3.6723
4.19494
4.70793
5.13739
5.43848
5.60338
5.63528
5.56082
5.41763
5.24349
5.05964
4.94564
4.95578
5.11851
5.49695
6.31154
7.97548
11.4372
18.8429
34.3795
64.084
113.684
182.789
158.801
1.66618
1.62953
1.60572
1.59419
1.59
1.59
1.59723
1.60613
1.61823
1.63179
1.64713
1.66369
1.68149
1.70035
1.7203
1.7414
1.76384
1.78792
1.81384
1.84167
1.8713
1.71722
1.7887
1.88606
2.0149
2.18356
2.39635
2.66702
2.98539
3.37807
3.86688
4.51288
5.20763
5.85576
6.32334
6.56323
6.60095
6.47267
6.23532
5.94619
5.65122
5.36888
5.18191
5.13959
5.26586
5.61266
6.39665
8.03198
11.4608
18.823
34.3198
64.0631
113.911
183.382
159.077
1.71844
1.66416
1.62583
1.60357
1.59324
1.58968
1.59042
1.59786
1.60708
1.61924
1.63292
1.64825
1.66482
1.68254
1.70129
1.72113
1.7421
1.76443
1.78839
1.81419
1.84188
1.87137
1.79092
1.89035
2.02299
2.19794
2.42193
2.71025
3.0579
3.50004
4.06378
4.85341
5.78141
6.743
7.53651
7.96904
8.03729
7.83909
7.46103
6.99583
6.51835
6.07733
5.68266
5.41643
5.31956
5.40781
5.72447
6.47885
8.08687
11.4849
18.8074
34.2674
64.0494
114.097
183.84
159.37
1.79314
1.71555
1.65827
1.62193
1.60166
1.59238
1.58932
1.59097
1.59852
1.6081
1.62029
1.63409
1.6494
1.66594
1.68355
1.70221
1.72193
1.74279
1.76501
1.78885
1.81453
1.84209
1.87144
1.89428
2.03042
2.21128
2.44587
2.75104
3.12819
3.6195
4.2617
5.21816
6.43471
7.80613
9.07762
9.9399
10.1838
9.91401
9.33903
8.60598
7.84183
7.13189
6.51966
5.99935
5.64815
5.49495
5.54422
5.832
6.5579
8.13994
11.5093
18.7951
34.2219
64.0408
114.256
184.336
159.705
1.89806
1.78918
1.70651
1.6521
1.61838
1.5999
1.5916
1.58901
1.59163
1.59922
1.60918
1.62138
1.6353
1.65056
1.66704
1.68454
1.7031
1.7227
1.74346
1.76557
1.7893
1.81486
1.84229
1.87148
2.03726
2.22363
2.46821
2.78952
3.19594
3.73528
4.46082
5.60832
7.16653
9.04084
10.9384
12.4542
13.2083
13.0346
12.2151
11.1014
9.90148
8.76702
7.78217
6.97525
6.31725
5.87612
5.66518
5.675
5.935
6.63362
8.19105
11.5336
18.7857
34.187
64.0353
114.428
184.873
160.052
2.04364
1.89277
1.77569
1.69714
1.64643
1.61507
1.59829
1.59089
1.58878
1.59236
1.59999
1.61029
1.62253
1.6365
1.65169
1.6681
1.68551
1.70396
1.72346
1.74411
1.76611
1.78974
1.81518
1.84239
1.87148
2.23513
2.48902
2.82578
3.26085
3.84681
4.66213
6.02328
7.96946
10.4297
13.0953
15.4848
17.0668
17.4396
16.5516
14.9361
13.1104
11.3322
9.76051
8.4626
7.44049
6.63454
6.09948
5.82983
5.80008
6.03334
6.70592
8.24006
11.5577
18.7797
34.1593
64.0297
114.624
185.451
160.447
2.24558
2.03678
1.87293
1.76185
1.68848
1.64106
1.61196
1.59678
1.59027
1.58865
1.59314
1.60083
1.61144
1.62369
1.63766
1.6528
1.66913
1.68645
1.7048
1.7242
1.74474
1.76664
1.79016
1.81534
1.84239
1.87148
2.50851
2.85995
3.32267
3.95405
4.86681
6.46039
8.83203
11.9481
15.5093
18.9879
21.719
23.0746
22.6971
20.7374
18.0538
15.3393
12.8772
10.8087
9.16545
7.91142
6.94942
6.31745
5.98855
5.91946
6.12698
6.77477
8.28694
11.5782
18.7754
34.1303
64.0275
114.838
186.054
160.852
2.52579
2.23665
2.00793
1.85283
1.74901
1.68022
1.63594
1.60902
1.59538
1.58975
1.58863
1.59395
1.60176
1.61257
1.62485
1.6388
1.65389
1.67014
1.68737
1.70562
1.72492
1.74536
1.76716
1.79037
1.81534
1.84239
1.87148
2.89228
3.38137
4.05749
5.0756
6.91527
9.74093
13.5687
18.1343
22.8978
27.0972
29.8896
30.6012
29.0103
25.5701
21.5318
17.7551
14.5127
11.8968
9.88256
8.38398
7.26014
6.52935
6.14111
6.03316
6.21593
6.84016
8.32573
11.5961
18.7717
34.1014
64.0289
115.081
186.704
161.315
2.92055
2.51446
2.19479
1.97908
1.83414
1.73671
1.67228
1.63104
1.60627
1.59411
1.58934
1.58875
1.59477
1.60276
1.61368
1.62599
1.63991
1.65496
1.67112
1.68827
1.70642
1.72562
1.74596
1.76741
1.79037
1.81534
1.84239
1.87148
3.43726
4.15801
5.28868
7.38232
10.6822
15.2643
20.9214
27.1356
33.0941
37.7827
40.2059
39.7249
36.3716
31.0064
25.3236
20.3216
16.2146
13.0103
10.606
8.85434
7.56508
6.73459
6.28734
6.14126
6.30024
6.89396
8.35881
11.6161
18.769
34.0714
64.0339
115.343
187.374
161.783
3.48556
2.90596
2.45364
2.15357
1.95219
1.81619
1.72483
1.66463
1.62636
1.60371
1.59297
1.58904
1.58907
1.59557
1.6038
1.61476
1.62713
1.64099
1.65599
1.67207
1.68914
1.70719
1.7263
1.74625
1.76741
1.79037
1.81534
1.84239
1.87148
4.25643
5.50379
7.85548
11.6422
17.0079
23.8218
31.6169
39.5774
46.5813
51.3596
52.8177
50.4685
44.7349
36.983
29.3761
23.0018
17.9594
14.1356
11.3286
9.31897
7.86277
6.93269
6.42717
6.24385
6.36951
6.93967
8.39523
11.6386
18.7673
34.043
64.0434
115.641
188.114
162.32
4.34287
3.46716
2.81631
2.39473
2.11512
1.92635
1.79883
1.71336
1.65729
1.62189
1.60138
1.59194
1.58875
1.58963
1.59633
1.60485
1.61582
1.62824
1.64205
1.65701
1.673
1.68998
1.70794
1.72663
1.74625
1.76741
1.79037
1.81534
1.84239
1.87144
5.71812
8.3307
12.6081
18.774
26.7883
36.2577
46.4042
56.0675
63.7913
68.0694
67.7983
62.7931
54.0168
43.4208
33.6322
25.7593
19.7258
15.2608
12.0439
9.77475
8.15201
7.12331
6.56058
6.32827
6.42832
6.98978
8.43536
11.664
18.7677
34.0141
64.0656
115.961
188.864
162.857
4.31934
5.90722
3.33079
2.73146
2.33973
2.07811
1.90129
1.78201
1.70229
1.65024
1.61762
1.59924
1.59102
1.58843
1.59032
1.5971
1.60591
1.61687
1.62933
1.64309
1.658
1.67391
1.69081
1.70831
1.72663
1.74625
1.76741
1.79037
1.81534
1.84229
1.87137
8.80372
13.5691
20.5396
29.7768
40.9782
53.4339
66.0061
77.1534
85.0705
88.0582
85.133
76.5968
64.1012
50.2298
38.0336
28.5599
21.4948
16.3754
12.7465
10.2192
8.43184
7.30618
6.6709
6.40001
6.49272
7.04474
8.47964
11.6926
18.7694
33.9884
64.0869
116.326
189.726
163.478
4.09598
5.8891
9.22466
3.20617
2.65224
2.28678
2.04222
1.87701
1.76575
1.69164
1.6435
1.61361
1.5973
1.59025
1.58821
1.59106
1.59787
1.60695
1.61791
1.63039
1.6441
1.65896
1.67479
1.69121
1.70831
1.72663
1.74625
1.76741
1.79037
1.81518
1.84209
1.8713
14.5142
22.2852
32.7484
45.7058
60.5369
76.1702
91.0725
103.288
110.655
111.359
104.713
91.7201
74.8468
57.3133
42.5238
31.3728
23.2497
17.4708
13.432
10.6503
8.70151
7.45816
6.76495
6.47869
6.56332
7.10532
8.52861
11.7249
18.7738
33.9634
64.1334
116.716
190.578
164.092
3.89983
5.49272
9.23747
15.357
3.09075
2.57599
2.23546
2.00742
1.85351
1.75008
1.68143
1.6371
1.60991
1.59562
1.58961
1.5881
1.59183
1.59868
1.60798
1.61893
1.63143
1.64509
1.65989
1.67522
1.69122
1.70831
1.72664
1.74625
1.76741
1.79016
1.81486
1.84187
1.87123
23.9921
35.6714
50.379
67.6001
86.358
105.195
122.147
134.805
140.653
137.88
126.34
107.954
86.0951
64.5743
47.0496
34.1701
24.9764
18.54
14.0972
11.0665
8.92643
7.58813
6.86842
6.56508
6.64042
7.17211
8.58282
11.7616
18.7808
33.9439
64.1743
117.163
191.614
164.813
3.72189
5.14755
8.51133
15.4448
25.5228
2.98007
2.50217
2.18574
1.97375
1.83085
1.73503
1.67169
1.63111
1.60662
1.59418
1.58913
1.58812
1.59259
1.59951
1.60899
1.61995
1.63245
1.64607
1.66036
1.67522
1.69122
1.70831
1.72664
1.74625
1.76716
1.78973
1.81452
1.84166
1.87115
38.5159
54.9501
74.533
96.402
119.216
141.114
159.655
171.907
175.027
167.406
149.731
125.055
97.6811
71.9196
51.5629
36.928
26.6637
19.5776
14.7395
11.414
9.11916
7.73153
6.98236
6.66013
6.72472
7.24578
8.64297
11.803
18.7931
33.9277
64.2546
117.64
192.595
165.516
3.55427
4.83573
7.86449
14.1887
25.7976
41.0724
2.87323
2.43077
2.13768
1.94128
1.80907
1.72064
1.66251
1.62568
1.60375
1.59296
1.58878
1.58825
1.59334
1.60037
1.60997
1.62095
1.63345
1.64655
1.66036
1.67522
1.69122
1.70832
1.72664
1.74596
1.76663
1.78929
1.81418
1.84144
1.87107
59.3756
81.2697
106.176
132.898
159.743
184.417
203.9
214.651
213.587
199.597
174.538
142.757
109.443
79.2628
56.0212
39.6268
28.3025
20.5795
15.2756
11.7119
9.33221
7.88992
7.10799
6.76481
6.81702
7.32705
8.70974
11.8504
18.8083
33.9191
64.3263
118.189
193.889
166.368
3.395
4.54487
7.27185
13.0332
23.8405
41.6887
63.3492
2.77018
2.36191
2.09138
1.91008
1.78823
1.70705
1.65414
1.62087
1.60125
1.59194
1.58855
1.58852
1.59406
1.60125
1.61093
1.62196
1.63393
1.64654
1.66036
1.67523
1.69122
1.70832
1.7263
1.74535
1.7661
1.78884
1.81383
1.84121
1.87099
87.7515
115.597
146.074
177.701
208.447
235.492
255.063
262.938
255.983
234.002
200.366
160.792
121.226
86.5267
60.3893
42.2507
29.8857
21.4158
15.7352
12.0413
9.56794
8.06507
7.24666
6.8802
6.9182
7.41675
8.78406
11.9038
18.832
33.9208
64.4596
118.773
195.027
167.168
3.24363
4.27182
6.71588
11.95
22.0021
38.8318
64.4991
93.5471
2.67098
2.29574
2.04696
1.88024
1.76851
1.69459
1.64665
1.61659
1.5991
1.59108
1.58837
1.58898
1.59475
1.60215
1.6119
1.62245
1.63392
1.64654
1.66036
1.67523
1.69123
1.70795
1.72562
1.74473
1.76555
1.78838
1.81347
1.84097
1.87091
124.594
158.65
194.78
231.29
265.763
294.651
313.199
316.492
301.709
270.086
226.802
178.902
132.893
93.6469
64.6382
44.787
31.2077
22.1326
16.2432
12.406
9.82901
8.25895
7.39989
7.00754
7.02927
7.51582
8.86674
11.9655
18.8594
33.9303
64.5755
119.463
196.682
168.445
3.09995
4.0163
6.19221
10.9181
20.239
36.1199
60.5356
95.4311
132.575
2.57581
2.23246
2.00451
1.85203
1.75043
1.68342
1.63995
1.61277
1.59728
1.59036
1.58816
1.58953
1.59544
1.6031
1.61235
1.62243
1.63392
1.64655
1.66037
1.67524
1.69082
1.70719
1.72491
1.7441
1.76499
1.7879
1.8131
1.84073
1.87083
170.547
210.885
252.687
294.083
332.106
362.149
378.216
374.847
350.114
307.256
253.432
196.849
144.327
100.57
68.7448
46.905
32.341
22.9252
16.8053
12.8098
10.1184
8.47375
7.56941
7.1482
7.15137
7.62528
8.95905
12.035
18.9003
33.9502
64.7822
120.179
198.284
169.607
2.96369
3.7787
5.70146
9.93331
18.524
33.4808
56.768
90.1369
135.357
180.972
2.48493
2.17221
1.96444
1.82618
1.73419
1.67339
1.63396
1.60938
1.59573
1.58978
1.58801
1.59015
1.59621
1.60356
1.6123
1.62244
1.63392
1.64655
1.66037
1.6748
1.68999
1.70641
1.72419
1.74345
1.76442
1.78742
1.81272
1.84049
1.87074
225.947
272.566
320.134
366.539
407.927
438.176
449.847
437.342
400.432
344.897
279.871
214.431
155.431
107.254
72.172
48.7209
33.5943
23.8021
17.4277
13.2574
10.4394
8.71199
7.75716
7.30374
7.28582
7.74633
9.0619
12.116
18.9454
33.9987
64.9615
121.235
200.467
171.107
2.83425
3.56
5.24505
9.00187
16.8469
30.8775
53.0727
85.1409
128.464
184.722
238.902
2.39868
2.1155
1.92777
1.80296
1.7196
1.6644
1.6286
1.6064
1.59441
1.58929
1.58796
1.59091
1.59652
1.60352
1.6123
1.62245
1.63393
1.64657
1.65991
1.67391
1.68914
1.70562
1.72346
1.74278
1.76383
1.78692
1.81233
1.84023
1.87065
290.889
343.891
397.542
449.253
493.758
522.853
527.623
503.127
451.818
382.408
305.78
231.48
166.129
112.823
75.1088
50.7291
34.9815
24.7732
18.1174
13.7537
10.7956
8.97641
7.9653
7.47589
7.43406
7.88025
9.17711
12.2069
19.0113
34.0453
65.3196
122.448
203.165
172.516
2.71135
3.36241
4.82454
8.12568
15.2085
28.2921
49.3971
80.2354
122.062
175.871
243.532
306.226
2.31791
2.06375
1.89491
1.78213
1.70651
1.65635
1.62384
1.60381
1.59327
1.58893
1.58819
1.59127
1.59638
1.60355
1.61231
1.62245
1.63396
1.64609
1.65897
1.673
1.68826
1.7048
1.7227
1.7421
1.76323
1.7864
1.81193
1.83997
1.87056
365.383
425.167
485.57
543.088
590.272
616.201
610.834
571.173
503.401
419.251
330.878
247.865
175.017
117.588
78.3544
52.9513
36.5177
25.8491
18.8818
14.3044
11.1913
9.27008
8.19625
7.66661
7.59776
8.02862
9.30558
12.3136
19.0827
34.1671
65.7208
123.948
206.163
174.239
2.59611
3.18157
4.44006
7.30752
13.6234
25.7235
45.7089
75.3466
115.816
167.848
232.209
311.428
382.672
2.24464
2.01749
1.86547
1.76343
1.69477
1.64915
1.61962
1.60153
1.59233
1.58892
1.58819
1.59116
1.59638
1.60356
1.61232
1.62248
1.63347
1.64511
1.658
1.67207
1.68737
1.70396
1.72192
1.7414
1.76261
1.78588
1.81153
1.83971
1.87047
449.568
517.059
585.378
649.386
698.344
718.077
698.488
640.332
554.355
454.965
354.946
261.432
182.607
122.846
81.942
55.4113
38.2197
27.0417
19.7296
14.9155
11.6307
9.59634
8.45264
7.87804
7.77878
8.193
9.44997
12.4333
19.2031
34.3111
66.3203
125.495
209.576
176.083
2.49148
3.01601
4.09332
6.55242
12.1083
23.1834
41.996
70.4183
109.624
160.13
222.265
296.889
387.856
468.072
2.17954
1.97614
1.8391
1.74666
1.68424
1.64272
1.61585
1.59957
1.59189
1.58878
1.58791
1.59122
1.5964
1.60355
1.61239
1.62199
1.63247
1.64411
1.65701
1.67112
1.68646
1.7031
1.72113
1.74068
1.76197
1.78534
1.81111
1.83944
1.87038
544.001
620.81
698.87
770.178
819.01
828.02
789.311
709.426
603.946
489.183
374.811
272.986
190.958
128.644
85.9077
58.1348
40.1058
28.364
20.67
15.5938
12.1187
9.95884
8.73736
8.11256
7.97915
8.37547
9.6112
12.601
19.3587
34.5624
66.904
127.35
213.399
178.1
2.39863
2.86763
3.78565
5.86682
10.6806
20.6908
38.2623
65.4178
103.397
152.584
212.904
284.579
369.013
472.339
562.696
2.12169
1.93919
1.81549
1.73163
1.67482
1.63694
1.61256
1.59836
1.59149
1.58845
1.58795
1.59123
1.59642
1.60361
1.61195
1.62099
1.63145
1.6431
1.656
1.67015
1.68552
1.70222
1.72032
1.73994
1.76133
1.78479
1.8107
1.83919
1.87029
649.788
738.581
829.219
908.283
953.188
945.142
881.849
777.334
651.562
517.366
391.682
285.657
200.137
135.036
90.2896
61.1495
42.1961
29.8302
21.713
16.3464
12.6606
10.3615
9.05352
8.37269
8.20129
8.57806
9.82686
12.8168
19.5678
34.814
67.6917
129.394
217.416
180.52
2.31653
2.73571
3.52255
5.2583
9.36186
18.2681
34.5224
60.3296
97.068
145.074
203.958
273.316
353.699
447.591
564.851
667.722
2.07024
1.9062
1.79437
1.71817
1.66634
1.63186
1.6103
1.59749
1.59103
1.58851
1.58798
1.59121
1.5966
1.60317
1.61098
1.61999
1.63042
1.64207
1.65497
1.66915
1.68456
1.70132
1.71948
1.73918
1.76067
1.78425
1.8103
1.83894
1.87021
769.119
874.685
981.563
1067.06
1101.45
1068.2
974.59
843.049
690.796
541.251
410.119
299.527
210.213
142.073
95.1274
64.485
44.5117
31.4556
22.8694
17.1809
13.2618
10.8083
9.40436
8.66131
8.44752
8.8447
10.0997
13.0649
19.7945
35.1789
68.5131
131.701
222.03
182.863
2.24409
2.61774
3.30604
4.73975
8.17136
15.9404
30.8
55.1512
90.5906
137.491
195.231
262.89
340.145
428.394
531.765
666.393
785.787
2.02445
1.87675
1.77546
1.70606
1.65883
1.62819
1.60882
1.59685
1.59113
1.58854
1.58799
1.59135
1.59632
1.60223
1.61003
1.61898
1.62936
1.64102
1.65391
1.66812
1.68358
1.70039
1.71863
1.73841
1.76001
1.78372
1.80991
1.8387
1.87013
907.164
1036.99
1162.92
1250.39
1264.23
1195.91
1065.97
897.471
724.023
567.274
430.213
314.674
221.25
149.808
100.462
68.172
47.0752
33.2562
24.1507
18.1056
13.928
11.3037
9.7934
8.981
8.77151
9.18027
10.3988
13.3363
20.0817
35.5606
69.5439
134.352
226.554
186.012
2.18017
2.51255
3.12293
4.30827
7.13926
13.7586
27.1279
49.8921
83.9269
129.741
186.561
253.019
328.082
411.992
507.551
621.132
779.568
921.904
1.9837
1.85048
1.75847
1.69532
1.65324
1.62589
1.60793
1.59699
1.59117
1.58853
1.58832
1.59103
1.59557
1.60134
1.60905
1.61797
1.62828
1.63994
1.65284
1.66707
1.68258
1.69944
1.71776
1.73765
1.75938
1.78321
1.80953
1.83847
1.87005
1072.85
1236.81
1383.04
1463.55
1443.23
1326.51
1142.61
943.644
760.161
595.519
452.037
331.164
233.307
158.292
106.334
72.2415
49.9098
35.2487
25.5688
19.1288
14.665
11.8519
10.2237
9.40096
9.17602
9.53425
10.7211
13.6454
20.3958
36.0649
70.6744
137.17
231.973
188.704
2.12376
2.41924
2.9649
3.95234
6.27242
11.8088
23.5757
44.5769
77.0507
121.736
177.799
243.484
317.106
398.033
487.559
590.516
716.211
908.902
1086.54
1.94744
1.82694
1.74339
1.68716
1.64982
1.62474
1.60813
1.59703
1.59114
1.58894
1.5884
1.5903
1.5949
1.60049
1.60806
1.61694
1.62718
1.63885
1.65174
1.666
1.68156
1.69847
1.7169
1.73691
1.75876
1.78271
1.80916
1.83824
1.86997
1281.45
1492.67
1658.45
1719.85
1640.2
1438.47
1207.95
993.868
799.264
626.033
475.633
349.042
246.431
167.569
112.782
76.7243
53.0387
37.4503
27.1358
20.2589
15.479
12.4569
10.7878
9.9226
9.6053
9.90781
11.0707
13.983
20.7799
36.6067
72.0115
140.528
236.906
192.77
2.07388
2.33696
2.82615
3.6595
5.55406
10.1322
20.283
39.2855
69.9524
113.388
168.788
234.067
306.929
385.92
471.344
566.008
677.59
819.237
1063.38
1295.49
1.91505
1.80609
1.73173
1.68227
1.6483
1.625
1.60819
1.59699
1.59168
1.58917
1.58824
1.58972
1.59423
1.59966
1.60705
1.61592
1.62607
1.63773
1.65063
1.6649
1.68052
1.69751
1.71607
1.73619
1.75816
1.78223
1.8088
1.83802
1.8699
1566.27
1846.32
2034.58
2043.32
1813.45
1534.4
1279.09
1048.09
841.301
658.799
501.007
368.33
260.655
177.675
119.839
81.6485
56.4839
39.8774
28.8636
21.5045
16.3751
13.2478
11.485
10.4705
10.058
10.3036
11.4454
14.3646
21.2022
37.2842
73.5225
143.897
243.179
195.834
2.02957
2.26471
2.70284
3.4214
4.96436
8.71779
17.3361
34.2184
62.6953
104.621
159.364
224.541
297.254
375.282
457.974
547.094
647.454
770.801
936.512
1266.76
1592.65
1.88641
1.78978
1.7248
1.68033
1.64866
1.62508
1.60812
1.59775
1.59221
1.58926
1.58835
1.58922
1.59354
1.59886
1.60603
1.61487
1.62494
1.63658
1.64949
1.66378
1.67949
1.69659
1.71526
1.73549
1.75758
1.78177
1.80846
1.83781
1.86982
2023.21
2418.07
2623.58
2329.33
1960.99
1638.32
1355.53
1106.07
886.128
693.732
528.114
389.014
275.987
188.631
127.531
87.0382
60.2658
42.5456
30.7637
22.873
17.5434
14.2207
12.2128
11.0431
10.5334
10.7219
11.8505
14.7813
21.7063
38.029
75.2311
148.052
248.399
201.058
1.99052
2.2012
2.59291
3.22508
4.48278
7.53577
14.7411
29.5285
55.5244
95.4422
149.356
214.655
287.784
365.721
446.981
532.263
625.346
733.764
875.619
1081.99
1573.95
2141.9
1.8637
1.78027
1.7223
1.68082
1.64876
1.62497
1.60915
1.59879
1.59275
1.58969
1.58858
1.58884
1.59281
1.5981
1.60501
1.61382
1.62381
1.63541
1.64835
1.66267
1.6785
1.69569
1.71448
1.73482
1.75702
1.78131
1.80812
1.8376
1.86975
2874.05
3572.2
3103.01
2562
2116.65
1748.29
1436.39
1167.33
933.465
730.655
556.842
411.034
292.405
200.442
135.872
92.9111
64.4005
45.4684
32.8455
24.653
18.9746
15.2314
12.9684
11.6387
11.0305
11.1648
12.2843
15.2494
22.2634
38.9304
77.1953
152.002
255.624
204.539
1.9593
2.14587
2.49506
3.05888
4.09222
6.55979
12.503
25.2566
48.6579
86.0934
138.665
204.13
278.188
356.875
437.837
520.932
608.788
707.901
830.302
1005.07
1291.42
2191.98
3336.67
1.85055
1.77715
1.72294
1.68094
1.64859
1.62631
1.61086
1.60014
1.5938
1.59027
1.58885
1.58866
1.59209
1.59737
1.60399
1.61274
1.62268
1.63422
1.64723
1.66161
1.67753
1.69482
1.71372
1.73417
1.75647
1.78088
1.80779
1.8374
1.86972
5004.82
4288.66
3438.28
2787.71
2274.87
1861.84