/*--------------------------------*- C++ -*----------------------------------*\
  =========                 |
  \\      /  F ield         | OpenFOAM: The Open Source CFD Toolbox
   \\    /   O peration     | Website:  https://openfoam.org
    \\  /    A nd           | Version:  8
     \\/     M anipulation  |
\*---------------------------------------------------------------------------*/
FoamFile
{
    version     2.0;
    format      ascii;
    class       volScalarField;
    location    "0";
    object      k;
}
// * * * * * * * * * * * * * * * * * * * * * * * * * * * * * * * * * * * * * //

dimensions      [0 2 -2 0 0 0 0];

internalField   nonuniform List<scalar> 
15677
(
0.309665
0.363978
0.260281
0.367654
0.379939
0.265167
0.369404
0.372686
0.444801
0.289652
0.370831
0.36746
0.395389
0.523632
0.330291
0.37185
0.365973
0.372802
0.439306
0.583323
0.364492
0.372538
0.366339
0.365229
0.387501
0.483708
0.625808
0.390662
0.37297
0.367195
0.363021
0.36759
0.408456
0.523152
0.65531
0.411282
0.373204
0.368083
0.363031
0.360996
0.373611
0.430388
0.556033
0.677031
0.426593
0.373299
0.368822
0.363771
0.359444
0.361008
0.381636
0.451494
0.584023
0.692568
0.439372
0.373313
0.369356
0.364662
0.359745
0.356964
0.361695
0.39012
0.47214
0.606688
0.705074
0.44879
0.37329
0.369685
0.365457
0.360651
0.356361
0.354912
0.363099
0.399484
0.490923
0.626354
0.714048
0.457403
0.373263
0.369849
0.366063
0.361647
0.357025
0.353291
0.353209
0.365176
0.408815
0.508993
0.641917
0.722069
0.463497
0.373248
0.369901
0.366454
0.362514
0.358078
0.353657
0.350432
0.351917
0.367443
0.418867
0.524678
0.65591
0.727573
0.46973
0.373244
0.369899
0.366658
0.363159
0.359125
0.354717
0.350456
0.347838
0.350765
0.370436
0.428354
0.539681
0.666542
0.73315
0.474113
0.373244
0.369886
0.366731
0.363563
0.359991
0.355906
0.351498
0.347449
0.345358
0.350058
0.373501
0.438273
0.55205
0.676548
0.736565
0.479267
0.373244
0.369877
0.366737
0.363765
0.360603
0.356967
0.352817
0.348446
0.344558
0.343148
0.349501
0.377196
0.447093
0.563884
0.683696
0.740681
0.48269
0.373243
0.369872
0.366726
0.363827
0.360962
0.357781
0.354061
0.349873
0.34552
0.341861
0.341089
0.349385
0.380752
0.456026
0.573119
0.690741
0.743037
0.486986
0.373242
0.369868
0.366715
0.363834
0.361107
0.35831
0.355067
0.351286
0.34706
0.342756
0.339313
0.339305
0.349448
0.384664
0.46349
0.581882
0.695392
0.746368
0.489918
0.373241
0.369866
0.366706
0.363826
0.361149
0.358564
0.355769
0.352478
0.348641
0.344394
0.340144
0.336972
0.337724
0.349693
0.388126
0.470759
0.588295
0.700233
0.748303
0.493648
0.37324
0.369863
0.366699
0.363816
0.361151
0.358663
0.356136
0.353356
0.350014
0.346137
0.341886
0.337718
0.334824
0.336364
0.350049
0.391706
0.476478
0.594325
0.703212
0.751154
0.496328
0.37324
0.369861
0.366694
0.363806
0.361141
0.35869
0.356298
0.353854
0.351059
0.347689
0.343794
0.339554
0.335476
0.332898
0.335174
0.350597
0.394658
0.481827
0.598432
0.706453
0.753022
0.49978
0.373239
0.36986
0.366689
0.363799
0.361128
0.358689
0.356356
0.354097
0.351679
0.34891
0.345526
0.341622
0.337412
0.33345
0.331174
0.334198
0.35108
0.397475
0.485733
0.602222
0.708338
0.755684
0.502279
0.373239
0.369859
0.366686
0.363792
0.361117
0.358677
0.356366
0.354202
0.351998
0.34967
0.346914
0.343533
0.339654
0.335488
0.331642
0.329683
0.333389
0.351593
0.399611
0.489219
0.604547
0.710443
0.757624
0.505687
0.373239
0.369858
0.366684
0.363787
0.361108
0.358663
0.356356
0.354234
0.352145
0.350088
0.347796
0.345099
0.341758
0.337902
0.333795
0.330088
0.328432
0.332718
0.352024
0.401493
0.491499
0.606635
0.711623
0.760359
0.508025
0.37324
0.369857
0.366682
0.363783
0.3611
0.35865
0.35634
0.354232
0.352197
0.350298
0.348291
0.346134
0.343504
0.34019
0.336404
0.332385
0.328806
0.327428
0.33226
0.35239
0.402759
0.493376
0.607646
0.713012
0.762393
0.511502
0.37324
0.369856
0.366681
0.36378
0.361094
0.358639
0.356324
0.354216
0.352203
0.350385
0.348547
0.346746
0.34466
0.342119
0.338928
0.335223
0.33128
0.327839
0.326701
0.33187
0.352691
0.403744
0.494392
0.608452
0.713729
0.76539
0.513715
0.37324
0.369856
0.36668
0.363778
0.36109
0.358631
0.35631
0.354196
0.352187
0.350405
0.348659
0.347084
0.345342
0.343457
0.341092
0.337957
0.334331
0.330499
0.327174
0.326257
0.33183
0.35298
0.404303
0.495019
0.608535
0.71472
0.767486
0.517247
0.37324
0.369855
0.36668
0.363775
0.361086
0.358624
0.356299
0.354177
0.352165
0.350392
0.348692
0.347243
0.345721
0.344295
0.342556
0.340279
0.337364
0.333961
0.330282
0.327092
0.326295
0.331929
0.353234
0.404652
0.49497
0.608419
0.715171
0.770893
0.519456
0.37324
0.369855
0.366679
0.363774
0.361083
0.358618
0.356289
0.35416
0.352142
0.350365
0.348684
0.347295
0.345909
0.344791
0.343443
0.341987
0.340132
0.337423
0.334103
0.330475
0.327307
0.326541
0.33221
0.353531
0.404637
0.49473
0.608083
0.716045
0.772955
0.522858
0.37324
0.369855
0.366679
0.363772
0.361081
0.358613
0.356281
0.354147
0.352121
0.350335
0.348656
0.347289
0.345982
0.345044
0.34396
0.343122
0.34207
0.34038
0.33782
0.334625
0.331064
0.327904
0.327116
0.332783
0.35386
0.404554
0.494221
0.607564
0.716415
0.777036
0.525903
0.37324
0.369854
0.366679
0.363771
0.361079
0.35861
0.356275
0.354136
0.352104
0.350309
0.348622
0.347256
0.345989
0.345137
0.344237
0.343832
0.343302
0.342506
0.341091
0.33875
0.335742
0.332271
0.329084
0.328214
0.333698
0.354326
0.404374
0.493455
0.606821
0.717222
0.778583
0.528886
0.373241
0.369854
0.366679
0.36377
0.361077
0.358606
0.35627
0.354127
0.352089
0.350286
0.348589
0.347214
0.34596
0.345145
0.344377
0.344233
0.344079
0.343899
0.343495
0.342526
0.34052
0.337676
0.334207
0.330908
0.329781
0.334971
0.354949
0.404167
0.492568
0.606026
0.717644
0.781681
0.531831
0.373241
0.369854
0.366678
0.363768
0.361076
0.358604
0.356265
0.35412
0.352077
0.350266
0.34856
0.347173
0.345914
0.345109
0.344416
0.344406
0.344528
0.344795
0.345145
0.345375
0.344864
0.343137
0.340404
0.336886
0.33335
0.331864
0.336622
0.355788
0.403966
0.491553
0.605095
0.718133
0.785301
0.534851
0.373241
0.369854
0.366678
0.363768
0.361074
0.358601
0.356262
0.354113
0.352066
0.35025
0.348534
0.347137
0.345866
0.345055
0.344395
0.34446
0.344749
0.345332
0.346242
0.347331
0.348179
0.348156
0.346687
0.344021
0.340341
0.336477
0.334452
0.338669
0.356837
0.403849
0.490442
0.604055
0.718675
0.789252
0.537874
0.369854
0.373245
0.366678
0.363767
0.361073
0.358599
0.356259
0.354107
0.352058
0.350236
0.348513
0.347106
0.345822
0.345
0.344342
0.344447
0.344834
0.345626
0.346935
0.348667
0.350509
0.352047
0.352522
0.351281
0.348581
0.344649
0.340282
0.3376
0.341159
0.358198
0.40391
0.489237
0.603067
0.719383
0.793398
0.540944
0.366678
0.369864
0.373252
0.363766
0.361073
0.358597
0.356256
0.354103
0.352051
0.350224
0.348494
0.347079
0.345783
0.344949
0.344282
0.344398
0.344841
0.345762
0.34735
0.349551
0.352153
0.354846
0.35712
0.358093
0.356992
0.354169
0.34981
0.344824
0.341263
0.343991
0.360056
0.404155
0.488162
0.602103
0.720261
0.797589
0.543926
0.363766
0.366695
0.369885
0.37326
0.361072
0.358596
0.356254
0.354098
0.352045
0.350213
0.348478
0.347056
0.345749
0.344904
0.344224
0.34434
0.344806
0.345807
0.347579
0.35012
0.353294
0.356888
0.360508
0.363554
0.364967
0.363922
0.3608
0.35589
0.35006
0.345515
0.347513
0.362562
0.404675
0.487159
0.601308
0.721263
0.801778
0.546918
0.361071
0.363787
0.366729
0.369907
0.373268
0.358594
0.356253
0.354095
0.35204
0.350204
0.348465
0.347036
0.34572
0.344865
0.344172
0.344283
0.344756
0.345801
0.347694
0.350479
0.354082
0.358372
0.363062
0.367675
0.371474
0.373269
0.372104
0.36855
0.362848
0.356032
0.350838
0.35196
0.365505
0.405507
0.48638
0.600606
0.722411
0.805929
0.549758
0.358593
0.361098
0.363832
0.366764
0.369929
0.373276
0.356251
0.354091
0.352036
0.350196
0.348454
0.347019
0.345694
0.344831
0.344126
0.344231
0.344706
0.345774
0.347745
0.350709
0.354637
0.359468
0.365005
0.370883
0.376501
0.38103
0.38305
0.381627
0.377378
0.370726
0.36343
0.357528
0.35691
0.368805
0.406626
0.485712
0.60009
0.723639
0.809987
0.55259
0.35625
0.358623
0.361152
0.363877
0.3668
0.369952
0.373284
0.354088
0.352032
0.350189
0.348445
0.347003
0.345672
0.344802
0.344085
0.344185
0.344659
0.345742
0.347764
0.350861
0.355048
0.360307
0.366524
0.373429
0.380538
0.387166
0.392298
0.39442
0.392455
0.38734
0.380438
0.372638
0.364927
0.362306
0.372485
0.407994
0.4853
0.599693
0.724939
0.81397
0.555232
0.354086
0.356285
0.358686
0.361208
0.363924
0.366837
0.369976
0.373293
0.352029
0.350183
0.348437
0.34699
0.345654
0.344777
0.344051
0.344145
0.344618
0.345712
0.347772
0.350968
0.355365
0.360993
0.367774
0.375531
0.383876
0.392246
0.399777
0.40542
0.407352
0.404656
0.399593
0.392467
0.382753
0.37294
0.368085
0.376399
0.409563
0.484962
0.59945
0.726288
0.817798
0.557859
0.352027
0.354123
0.356357
0.358751
0.361265
0.363972
0.366875
0.37
0.373302
0.350177
0.34843
0.346978
0.345638
0.344754
0.34402
0.344111
0.344583
0.345686
0.347776
0.351055
0.355623
0.361571
0.368866
0.377358
0.386762
0.396615
0.406166
0.414524
0.420382
0.421941
0.41965
0.414727
0.405623
0.393646
0.381459
0.374196
0.380639
0.4114
0.484923
0.599335
0.727665
0.821543
0.560277
0.350172
0.352068
0.354201
0.356431
0.358817
0.361324
0.364022
0.366915
0.370025
0.373311
0.348425
0.346967
0.345624
0.344735
0.343994
0.344081
0.344552
0.345664
0.347781
0.351131
0.355846
0.362068
0.36984
0.379039
0.389387
0.400545
0.411851
0.422541
0.431433
0.437336
0.439895
0.438167
0.431247
0.41974
0.405173
0.39039
0.380531
0.384929
0.413457
0.484995
0.59936
0.729072
0.825087
0.56268
0.34842
0.350212
0.352154
0.354282
0.356508
0.358885
0.361385
0.364073
0.366955
0.370051
0.37332
0.346957
0.345613
0.344718
0.343971
0.344055
0.344526
0.345646
0.347788
0.351201
0.356048
0.362513
0.37071
0.3806
0.391901
0.404265
0.417155
0.429904
0.441432
0.450718
0.458309
0.462148
0.458394
0.448943
0.434635
0.4172
0.399623
0.387097
0.389249
0.415668
0.485178
0.599442
0.730465
0.828558
0.56487
0.346949
0.348462
0.3503
0.352242
0.354365
0.356586
0.358955
0.361447
0.364125
0.366996
0.370077
0.373329
0.345603
0.344702
0.343952
0.344033
0.344504
0.345631
0.347795
0.351267
0.356233
0.36292
0.371505
0.38203
0.394308
0.407947
0.422342
0.437001
0.450893
0.463146
0.474717
0.484509
0.486582
0.48009
0.467594
0.450126
0.429583
0.40906
0.393809
0.393594
0.417984
0.485514
0.599598
0.731868
0.831786
0.567042
0.345596
0.346985
0.348553
0.35039
0.352334
0.354451
0.356667
0.359027
0.361512
0.364179
0.367038
0.370104
0.373339
0.344688
0.343934
0.344013
0.344485
0.345619
0.347804
0.351329
0.356405
0.363295
0.372239
0.383353
0.39656
0.411568
0.427622
0.444152
0.460286
0.475251
0.490378
0.504958
0.513496
0.512966
0.503026
0.486987
0.466035
0.442185
0.418607
0.40059
0.397937
0.420364
0.486004
0.599794
0.73323
0.83497
0.56901
0.344676
0.34563
0.347069
0.348646
0.350483
0.352428
0.354539
0.35675
0.359101
0.361578
0.364234
0.367082
0.370132
0.373348
0.343919
0.343997
0.344468
0.345609
0.347813
0.351388
0.356563
0.363642
0.372918
0.384586
0.398674
0.415014
0.432923
0.451622
0.470013
0.487614
0.506085
0.525081
0.538747
0.545045
0.541039
0.526975
0.506916
0.48219
0.454874
0.428171
0.407374
0.402256
0.422785
0.486604
0.600041
0.734586
0.837869
0.570956
0.343907
0.344698
0.345707
0.347154
0.348744
0.350579
0.352525
0.354629
0.356836
0.359177
0.361645
0.364291
0.367127
0.37016
0.373358
0.343982
0.344454
0.3456
0.347821
0.351442
0.35671
0.363963
0.373548
0.385735
0.400663
0.418287
0.438048
0.459296
0.480412
0.500751
0.522592
0.545928
0.564353
0.575935
0.57892
0.570534
0.551691
0.527172
0.498428
0.467534
0.437674
0.414105
0.406528
0.42522
0.487297
0.600316
0.735887
0.840771
0.572716
0.343972
0.343912
0.344753
0.345788
0.347244
0.348845
0.350679
0.352626
0.354723
0.356924
0.359256
0.361715
0.364349
0.367171
0.370186
0.373367
0.34444
0.345593
0.34783
0.351492
0.356844
0.364258
0.374129
0.386804
0.402529
0.421389
0.44298
0.466854
0.491288
0.515115
0.540613
0.56856
0.591748
0.608224
0.616387
0.614895
0.601187
0.576939
0.547578
0.514611
0.480062
0.447044
0.420736
0.410731
0.427649
0.48805
0.600634
0.73717
0.843341
0.574443
0.34443
0.343953
0.343934
0.344809
0.345874
0.347338
0.348951
0.350782
0.352729
0.354819
0.357014
0.359336
0.361786
0.364406
0.367214
0.370212
0.373375
0.345585
0.347837
0.351539
0.356968
0.364529
0.374665
0.387794
0.404273
0.424318
0.447711
0.474221
0.502132
0.530479
0.56086
0.594067
0.622489
0.643961
0.656845
0.660048
0.652774
0.632751
0.60249
0.567967
0.530617
0.492374
0.456222
0.427226
0.414844
0.430051
0.488854
0.600967
0.738393
0.845979
0.576014
0.345583
0.344383
0.343918
0.343965
0.344869
0.345967
0.347435
0.349061
0.350888
0.352836
0.354918
0.357107
0.359418
0.361856
0.364463
0.367255
0.370237
0.373384
0.347843
0.351581
0.357082
0.364777
0.375157
0.38871
0.405897
0.427074
0.452227
0.48135
0.51282
0.546186
0.583094
0.623597
0.658372
0.685685
0.703475
0.710667
0.706985
0.692417
0.665021
0.628153
0.588194
0.546347
0.5044
0.465162
0.433543
0.418851
0.432414
0.489684
0.601335
0.739586
0.848228
0.577531
0.347856
0.345495
0.344285
0.343868
0.344011
0.344933
0.346065
0.347537
0.349174
0.350998
0.352946
0.35502
0.357202
0.3595
0.361925
0.364517
0.367296
0.370262
0.373392
0.351618
0.357185
0.365005
0.375609
0.389553
0.407403
0.429654
0.456509
0.488198
0.523311
0.562066
0.606242
0.65697
0.70172
0.736931
0.760834
0.771942
0.770439
0.757385
0.733741
0.697827
0.653768
0.608137
0.561715
0.516082
0.473823
0.439663
0.422738
0.434721
0.490535
0.601702
0.740725
0.850632
0.578933
0.351664
0.347701
0.345296
0.344181
0.343823
0.344069
0.345
0.346169
0.347643
0.349291
0.351112
0.353058
0.355124
0.357296
0.359579
0.361992
0.36457
0.367335
0.370286
0.3734
0.357276
0.365211
0.376022
0.390329
0.408796
0.43206
0.460548
0.494737
0.533562
0.577972
0.629839
0.692945
0.753775
0.803124
0.835905
0.851802
0.851342
0.836956
0.811427
0.77667
0.731023
0.679201
0.627696
0.57666
0.52738
0.482178
0.445565
0.426494
0.436967
0.491388
0.602098
0.741815
0.852611
0.58005
0.357376
0.351426
0.347329
0.345089
0.34409
0.343785
0.344136
0.345072
0.346278
0.347753
0.349413
0.35123
0.353174
0.355228
0.357387
0.359657
0.362057
0.364622
0.367373
0.370309
0.373407
0.365396
0.376397
0.39104
0.41008
0.434295
0.46434
0.500953
0.543519
0.593702
0.653672
0.731718
0.814392
0.888516
0.93871
0.961701
0.961786
0.943011
0.910624
0.86912
0.821078
0.764469
0.704338
0.646789
0.591132
0.538262
0.490206
0.451237
0.430111
0.43914
0.492244
0.602477
0.742869
0.854445
0.581055
0.365584
0.35703
0.35082
0.346943
0.344904
0.344008
0.343757
0.34421
0.345151
0.346392
0.347869
0.349538
0.351351
0.353288
0.355329
0.357476
0.359732
0.36212
0.364672
0.36741
0.370331
0.373415
0.376737
0.391687
0.411262
0.436368
0.467887
0.506834
0.553118
0.609086
0.677759
0.773898
0.884255
0.992029
1.07454
1.11496
1.11677
1.09135
1.04681
0.991131
0.930174
0.866745
0.798013
0.729082
0.665353
0.605096
0.548707
0.497894
0.45667
0.433583
0.441237
0.493084
0.602881
0.743704
0.855896
0.582125
0.377068
0.365101
0.356091
0.350191
0.346589
0.344733
0.343936
0.343739
0.344289
0.345236
0.346509
0.347991
0.349665
0.351472
0.353399
0.355428
0.357563
0.359806
0.362181
0.364721
0.367446
0.370353
0.373422
0.392279
0.412344
0.438284
0.471195
0.512377
0.562311
0.624032
0.702256
0.819675
0.962612
1.11059
1.23575
1.31321
1.32975
1.29826
1.23804
1.161
1.07741
0.993982
0.913342
0.831486
0.753343
0.683337
0.618524
0.558704
0.505236
0.461857
0.436906
0.44325
0.493914
0.603206
0.744436
0.857417
0.583343
0.392838
0.376413
0.363699
0.355122
0.349605
0.346259
0.344574
0.343875
0.343732
0.344372
0.345331
0.346631
0.348117
0.349793
0.351591
0.353508
0.355524
0.357647
0.359877
0.362241
0.364769
0.367481
0.370374
0.373425
0.413338
0.440049
0.474271
0.517582
0.571068
0.638516
0.727265
0.868523
1.04704
1.23895
1.41286
1.53932
1.596
1.5752
1.49997
1.39746
1.2828
1.16784
1.0597
0.960457
0.864704
0.77704
0.700705
0.6314
0.568246
0.512227
0.466798
0.440078
0.44518
0.49461
0.603507
0.745203
0.859126
0.584608
0.414255
0.391977
0.374367
0.362259
0.354214
0.349049
0.345948
0.344428
0.343824
0.343738
0.344459
0.345434
0.346755
0.348245
0.349917
0.351706
0.353613
0.355618
0.357728
0.359947
0.362299
0.364815
0.367515
0.370385
0.373425
0.441683
0.477124
0.522455
0.579376
0.652544
0.752742
0.9194
1.13452
1.37144
1.59691
1.77895
1.89011
1.91166
1.84211
1.71493
1.56476
1.40908
1.26062
1.12636
1.00763
0.897474
0.800095
0.717428
0.643715
0.577332
0.518871
0.471493
0.443099
0.446779
0.495218
0.603812
0.746114
0.860881
0.586049
0.44316
0.413146
0.389043
0.372281
0.360903
0.353345
0.348516
0.345659
0.344293
0.343784
0.343762
0.344546
0.345547
0.34688
0.348372
0.350037
0.351819
0.353715
0.355709
0.357808
0.360014
0.362355
0.36486
0.367532
0.370385
0.373425
0.479778
0.527006
0.587239
0.666127
0.778506
0.971112
1.22235
1.50347
1.78076
2.02144
2.19501
2.2761
2.25001
2.12218
1.93686
1.73546
1.53689
1.35396
1.19301
1.05441
0.929608
0.822444
0.733486
0.655465
0.585966
0.525172
0.475946
0.445592
0.448147
0.495888
0.604202
0.747051
0.862813
0.587525
0.482136
0.441748
0.408988
0.386074
0.370312
0.359601
0.352507
0.348004
0.34539
0.344171
0.343749
0.343813
0.344634
0.345665
0.347001
0.348496
0.350155
0.35193
0.353815
0.355798
0.357885
0.36008
0.36241
0.364882
0.367532
0.370385
0.373425
0.531268
0.594676
0.679272
0.804302
1.02257
1.30849
1.63191
1.95953
2.25908
2.49899
2.64951
2.68735
2.60259
2.40864
2.16061
1.90589
1.66379
1.44635
1.25879
1.10035
0.960934
0.844025
0.748863
0.666652
0.594156
0.531137
0.479605
0.447714
0.44965
0.496663
0.604593
0.748177
0.864758
0.589211
0.535009
0.480366
0.4359
0.404818
0.383266
0.368413
0.358342
0.3517
0.347512
0.345139
0.344058
0.343706
0.343883
0.344722
0.345784
0.347121
0.348619
0.350271
0.352037
0.353912
0.355884
0.35796
0.360145
0.362437
0.364882
0.367532
0.370385
0.373425
0.601729
0.691995
0.829868
1.0729
1.39155
1.75478
2.13023
2.48685
2.79358
3.01879
3.133
3.11551
2.96244
2.69602
2.38219
2.07325
1.78787
1.53655
1.32299
1.14511
0.991299
0.864791
0.763554
0.677284
0.601911
0.536031
0.482711
0.450046
0.4513
0.497521
0.605122
0.7493
0.866927
0.590915
0.607913
0.532786
0.472159
0.430095
0.400866
0.380553
0.366571
0.357123
0.350924
0.347046
0.344907
0.343959
0.343669
0.343965
0.344811
0.345903
0.347238
0.348738
0.350383
0.352142
0.354006
0.355968
0.358033
0.360176
0.362437
0.364882
0.367532
0.370385
0.373425
0.704312
0.854989
1.12146
1.47066
1.87099
2.29116
2.70171
3.0731
3.37397
3.5717
3.63714
3.55331
3.32366
2.97997
2.59857
2.23546
1.90772
1.62365
1.38504
1.18838
1.02058
0.884705
0.777559
0.687371
0.608278
0.540183
0.486115
0.452617
0.453106
0.498527
0.605636
0.750682
0.869109
0.592872
0.715195
0.605146
0.521171
0.464105
0.424582
0.397039
0.377915
0.364785
0.355947
0.35018
0.346608
0.344696
0.343871
0.343646
0.344051
0.344902
0.34602
0.347354
0.348855
0.350493
0.352244
0.354098
0.35605
0.358069
0.360176
0.362437
0.364882
0.367532
0.370385
0.373422
0.879455
1.16784
1.54533
1.97995
2.44151
2.90206
3.33408
3.70806
3.99116
4.1493
4.15427
3.99418
3.68119
3.25702
2.8075
2.3911
2.02239
1.70702
1.44455
1.22993
1.04867
0.903746
0.790882
0.695667
0.61368
0.544727
0.489847
0.455453
0.455099
0.499628
0.606358
0.752023
0.871571
0.594828
0.711852
0.901038
0.588051
0.509997
0.456441
0.419236
0.393312
0.37535
0.363056
0.354815
0.349471
0.346199
0.344504
0.343799
0.343637
0.344139
0.344995
0.346136
0.347469
0.348969
0.3506
0.352343
0.354188
0.35609
0.358069
0.360176
0.362437
0.364883
0.367532
0.370374
0.373415
1.21175
1.61536
2.08146
2.58099
3.08725
3.57474
4.01667
4.38233
4.6365
4.7435
4.67705
4.43213
4.03079
3.52447
3.00738
2.53921
2.13131
1.78625
1.50124
1.26962
1.07553
0.9219
0.801868
0.702716
0.619595
0.549704
0.493943
0.458585
0.457285
0.500935
0.607037
0.753717
0.87408
0.597091
0.685009
0.898238
1.24963
0.572126
0.499371
0.448998
0.414024
0.389685
0.372863
0.361386
0.353729
0.3488
0.345823
0.344337
0.343745
0.343642
0.344226
0.345091
0.346249
0.347583
0.349081
0.350705
0.35244
0.354232
0.356091
0.358069
0.360176
0.362437
0.364883
0.367515
0.370353
0.373407
1.68062
2.17561
2.70968
3.25724
3.79455
4.29765
4.73943
5.08689
5.30157
5.34635
5.19851
4.8618
4.3689
3.7803
3.19716
2.67924
2.23414
1.86114
1.55498
1.30735
1.10111
0.936893
0.811216
0.710442
0.626077
0.555161
0.498444
0.462048
0.459714
0.502349
0.608026
0.755315
0.876919
0.599329
0.660462
0.854937
1.24773
1.73629
0.557191
0.489033
0.441738
0.408946
0.386161
0.370456
0.35978
0.352693
0.348171
0.345487
0.344195
0.343706
0.343662
0.344311
0.34519
0.346359
0.347694
0.349189
0.350808
0.352488
0.354232
0.356091
0.358069
0.360176
0.362438
0.36486
0.36748
0.370331
0.373399
2.26251
2.82801
3.41252
3.99383
4.55061
5.05973
5.49275
5.81304
5.97802
5.95002
5.71207
5.27846
4.69266
4.02306
3.37622
2.81093
2.33076
1.9316
1.60569
1.34309
1.12219
0.949657
0.821475
0.718919
0.633188
0.56115
0.503395
0.465882
0.462385
0.504054
0.608927
0.757399
0.879907
0.601956
0.637862
0.814291
1.18353
1.73637
2.33628
0.542778
0.478935
0.434664
0.404008
0.382748
0.368136
0.358241
0.351715
0.3476
0.345195
0.344075
0.343679
0.343701
0.344393
0.345291
0.346467
0.347804
0.349296
0.350858
0.352488
0.354232
0.356091
0.35807
0.360177
0.36241
0.364815
0.367445
0.370308
0.373391
2.93635
3.55391
4.17358
4.77636
5.34296
5.85044
6.26758
6.55234
6.65761
6.54691
6.21167
5.6781
4.99991
4.25184
3.54424
2.93425
2.42122
1.99768
1.6534
1.37239
1.14011
0.963669
0.832743
0.728228
0.640995
0.567729
0.508848
0.470128
0.465375
0.505876
0.610284
0.759313
0.883228
0.604514
0.61653
0.776293
1.12052
1.65345
2.33953
3.0276
0.528757
0.469086
0.427788
0.399221
0.379454
0.365908
0.356783
0.35082
0.347089
0.344946
0.343973
0.343651
0.343757
0.344474
0.345393
0.346573
0.347913
0.349348
0.350858
0.352488
0.354233
0.356091
0.35807
0.360145
0.362355
0.364768
0.367409
0.370285
0.373383
3.6822
4.33528
4.97669
5.59068
6.15983
6.66024
7.05561
7.2966
7.33213
7.12972
6.69189
6.0575
5.28919
4.46615
3.7012
3.04932
2.50567
2.05948
1.69226
1.39719
1.15974
0.979058
0.84513
0.738459
0.649577
0.574966
0.514859
0.474845
0.46867
0.508103
0.611488
0.761908
0.886941
0.607617
0.596201
0.740466
1.05896
1.57022
2.23992
3.03451
3.78888
0.515108
0.45951
0.421124
0.394598
0.376287
0.363793
0.355443
0.350017
0.346632
0.344731
0.343888
0.343625
0.343823
0.344552
0.345496
0.346679
0.347967
0.349346
0.350859
0.352488
0.354233
0.356092
0.358034
0.36008
0.362298
0.36472
0.367372
0.370261
0.373375
4.48026
5.15403
5.80578
6.4234
6.99085
7.48089
7.84913
8.03771
7.99346
7.69158
7.14817
6.41431
5.55958
4.66585
3.8473
3.15642
2.58432
2.10954
1.725
1.42423
1.18123
0.995965
0.858754
0.749714
0.659021
0.582933
0.521496
0.48008
0.47239
0.510463
0.613349
0.764228
0.890847
0.610532
0.576762
0.706722
0.998615
1.48676
2.13901
2.91967
3.79853
4.59843
0.501844
0.450234
0.414691
0.390152
0.373278
0.361845
0.354237
0.349296
0.346227
0.344547
0.343818
0.343608
0.343894
0.344632
0.345602
0.346729
0.347966
0.349347
0.350859
0.352489
0.354234
0.356051
0.35796
0.360014
0.36224
0.364671
0.367333
0.370236
0.373366
5.31053
5.99201
6.64552
7.26297
7.82764
8.30547
8.64084
8.76742
8.63357
8.22638
7.57692
6.74696
5.81073
4.85116
3.98288
3.25586
2.6478
2.15159
1.76054
1.45369
1.20477
1.01454
0.873751
0.762107
0.669424
0.591718
0.528833
0.485914
0.4765
0.513381
0.614968
0.767525
0.895611
0.615185
0.558151
0.675063
0.939693
1.40272
2.03674
2.80309
3.66895
4.6082
5.43415
0.488997
0.441289
0.408507
0.385927
0.370505
0.360089
0.353151
0.348651
0.345872
0.34439
0.343761
0.3436
0.34397
0.344717
0.345654
0.346724
0.347967
0.349347
0.350859
0.35249
0.354189
0.355969
0.357885
0.359946
0.36218
0.364621
0.367294
0.370211
0.373357
6.15266
6.83173
7.48282
8.10045
8.66403
9.12796
9.42331
9.47724
9.24481
8.72892
7.97554
7.05463
6.04276
5.02249
4.10837
3.33588
2.70099
2.19708
1.79909
1.48578
1.23053
1.03496
0.890267
0.775766
0.680897
0.601416
0.536956
0.492405
0.48118
0.516458
0.617523
0.770345
0.901133
0.619417
0.540322
0.645551
0.882694
1.31807
1.93262
2.68443
3.53794
4.46312
5.43952
6.27428
0.476603
0.432706
0.402633
0.382033
0.368002
0.358505
0.352176
0.348076
0.345561
0.344255
0.343717
0.343603
0.344056
0.344753
0.345652
0.346724
0.347968
0.349348
0.35086
0.352442
0.354099
0.355885
0.357807
0.359876
0.362119
0.364569
0.367254
0.370186
0.373348
6.98686
7.65827
8.30768
8.93014
9.49538
9.94265
10.1886
10.1585
9.82019
9.19514
8.34248
7.33729
6.25616
5.18041
4.20903
3.40281
2.75839
2.24623
1.84086
1.52068
1.2587
1.05739
0.908463
0.790833
0.693565
0.612137
0.545962
0.499664
0.486368
0.520299
0.619717
0.775471
0.907374
0.624883
0.523253
0.618149
0.8282
1.23317
1.82633
2.56317
3.40479
4.31791
5.27652
6.26919
7.0981
0.464708
0.42457
0.397222
0.378519
0.365744
0.357079
0.3513
0.347565
0.345288
0.344139
0.343685
0.343631
0.344098
0.344741
0.345655
0.346725
0.347968
0.34935
0.35081
0.352345
0.354007
0.355798
0.357728
0.359805
0.362056
0.364516
0.367212
0.370159
0.373339
7.79622
8.46014
9.1146
9.74837
10.3182
10.7432
10.9281
10.8025
10.3537
9.62229
8.67729
7.59542
6.45165
5.30648
4.29302
3.47487
2.82026
2.29929
1.88606
1.55861
1.28949
1.08203
0.928512
0.807462
0.707566
0.624004
0.555966
0.507765
0.49233
0.524342
0.623862
0.780215
0.916556
0.630016
0.506943
0.592748
0.776873
1.14856
1.71783
2.43871
3.26904
4.17134
5.11601
6.08355
7.07524
7.88639
0.453436
0.417096
0.392343
0.37535
0.363707
0.355795
0.350515
0.34711
0.345048
0.344043
0.343684
0.343635
0.344092
0.34474
0.345656
0.346727
0.34797
0.349298
0.350707
0.352245
0.353913
0.35571
0.357647
0.359732
0.361991
0.364462
0.36717
0.370132
0.373329
8.56729
9.23216
9.89863
10.5508
11.1285
11.5229
11.6322
11.4009
10.8406
10.0091
8.98039
7.82998
6.60668
5.41134
4.38324
3.55237
2.88685
2.35647
1.9349
1.59977
1.32309
1.10906
0.950599
0.825823
0.723055
0.637162
0.56709
0.516863
0.498966
0.530383
0.628139
0.787538
0.925182
0.636297
0.491512
0.569181
0.729341
1.06506
1.60724
2.31061
3.12982
4.02312
4.95606
5.90495
6.85988
7.83604
8.62421
0.443094
0.410372
0.387947
0.372494
0.361873
0.35464
0.349812
0.346702
0.344842
0.343992
0.343673
0.343611
0.344097
0.344742
0.345655
0.346733
0.347917
0.349192
0.350602
0.352143
0.353816
0.355619
0.357563
0.359657
0.361925
0.364406
0.367126
0.370104
0.37332
9.29183
9.96128
10.6485
11.3285
11.919
12.2729
12.2903
11.9463
11.2782
10.3556
9.25291
8.01429
6.73498
5.52354
4.47997
3.63557
2.95842
2.41801
1.98759
1.64434
1.35969
1.13869
0.974913
0.846097
0.740202
0.651764
0.579495
0.527054
0.508092
0.537718
0.634516
0.793576
0.936683
0.643018
0.47734
0.547432
0.686047
0.983655
1.49493
2.17865
2.98633
3.8722
4.7966
5.73031
6.65848
7.58289
8.53042
9.30563
0.433817
0.404327
0.383988
0.369921
0.360221
0.353602
0.349179
0.346343
0.344708
0.343953
0.343646
0.343614
0.344098
0.344745
0.34566
0.346684
0.347808
0.349083
0.350495
0.352039
0.353717
0.355526
0.357478
0.359581
0.361857
0.36435
0.367082
0.370077
0.37331
9.96668
10.657
11.3816
12.088
12.6823
12.9807
12.8919
12.4334
11.6656
10.663
9.46447
8.16578
6.87147
5.64329
4.58345
3.72471
3.03517
2.4841
2.0443
1.6925
1.39947
1.1711
1.00165
0.868474
0.759187
0.667996
0.593337
0.540693
0.519738
0.546698
0.640273
0.80261
0.947653
0.65037
0.4646
0.527815
0.647125
0.905628
1.3815
2.04274
2.83786
3.7174
4.63642
5.55973
6.46633
7.3525
8.23193
9.13867
9.91423
0.425508
0.398893
0.380425
0.367604
0.358733
0.352665
0.348617
0.34608
0.344622
0.343914
0.343651
0.343617
0.344097
0.344762
0.345609
0.346579
0.347698
0.348972
0.350385
0.351932
0.353615
0.35543
0.35739
0.359502
0.361788
0.364292
0.367038
0.370051
0.373301
10.5845
11.3164
12.0996
12.8368
13.4149
13.6337
13.4278
12.8591
12.0036
10.8979
9.63675
8.32562
7.01613
5.77069
4.69385
3.81997
3.11731
2.55492
2.10519
1.7444
1.44259
1.20646
1.03099
0.893145
0.780216
0.686039
0.611702
0.558089
0.532915
0.555987
0.648579
0.810622
0.961159
0.659196
0.453178
0.510304
0.61365
0.833204
1.26792
1.903
2.68377
3.55752
4.47402
5.39181
6.28354
7.13873
7.96564
8.7884
9.65461
10.4403
0.418073
0.39401
0.37722
0.365519
0.357389
0.351829
0.348189
0.345919
0.344569
0.343923
0.343654
0.34362
0.344107
0.344729
0.345504
0.346473
0.347587
0.348858
0.350273
0.351822
0.353511
0.355333
0.3573
0.359422
0.361717
0.364234
0.366995
0.370025
0.373293
11.1446
11.9448
12.804
13.5702
14.1063
14.2178
13.8906
13.2231
12.2565
11.0868
9.81651
8.49338
7.16878
5.90574
4.81125
3.92149
3.20496
2.63058
2.17037
1.80015
1.48918
1.24492
1.0631
0.920306
0.803465
0.709858
0.634944
0.577109
0.54725
0.567286
0.656403
0.821961
0.974463
0.667742
0.442965
0.494574
0.585424
0.76914
1.15639
1.75976
2.52353
3.39133
4.30776
5.22479
6.1083
6.94147
7.72534
8.4795
9.23884
10.0688
10.882
0.411419
0.389624
0.374339
0.363634
0.356189
0.351179
0.347937
0.345843
0.344581
0.343927
0.343656
0.34365
0.344069
0.344645
0.345403
0.346366
0.347475
0.348742
0.350159
0.351711
0.353404
0.355233
0.357207
0.35934
0.361647
0.364179
0.366953
0.37
0.373284
11.6512
12.5518
13.4999
14.2765
14.7398
14.7189
14.277
13.4879
12.4564
11.2809
10.0026
8.66835
7.329
6.04825
4.93563
4.0293
3.29818
2.71116
2.23992
1.85982
1.53931
1.2866
1.09814
0.9501
0.833952
0.739712
0.659968
0.597722
0.563457
0.579162
0.667315
0.832599
0.989867
0.679228
0.433855
0.480413
0.561338
0.714795
1.05152
1.61471
2.3568
3.21754
4.13579
5.05663
5.93859
6.75825
7.51061
8.20769
8.87926
9.57219
10.3671
11.2365
0.405465
0.385687
0.371739
0.36195
0.355239
0.350804
0.347835
0.34586
0.344587
0.343927
0.343692
0.343655
0.343985
0.344568
0.345303
0.346257
0.347362
0.348624
0.350043
0.351596
0.353295
0.355131
0.357113
0.359259
0.361579
0.364125
0.366913
0.369975
0.373276
12.1127
13.1504
14.1859
14.9385
15.2956
15.127
14.5474
13.6921
12.6573
11.478
10.1936
8.84943
7.49611
6.19784
5.06678
4.14333
3.39696
2.79666
2.31383
1.9234
1.59301
1.33155
1.13618
0.9888
0.871659
0.771399
0.686768
0.620211
0.581162
0.593298
0.678064
0.846792
1.00577
0.68905
0.425744
0.467675
0.540504
0.66934
0.956587
1.47289
2.1847
3.03493
3.95607
4.88495
5.77199
6.58661
7.31789
7.97229
8.57104
9.15311
9.7766
10.5345
11.5005
0.400135
0.382141
0.369416
0.360601
0.354697
0.350669
0.347859
0.345868
0.344585
0.343976
0.343712
0.343634
0.343914
0.344492
0.345205
0.346146
0.347248
0.348504
0.349924
0.35148
0.353182
0.355027
0.35702
0.359181
0.361512
0.364073
0.366873
0.369952
0.373268
12.5442
13.7461