/*--------------------------------*- C++ -*----------------------------------*\
  =========                 |
  \\      /  F ield         | OpenFOAM: The Open Source CFD Toolbox
   \\    /   O peration     | Website:  https://openfoam.org
    \\  /    A nd           | Version:  8
     \\/     M anipulation  |
\*---------------------------------------------------------------------------*/
FoamFile
{
    version     2.0;
    format      ascii;
    class       volScalarField;
    location    "0";
    object      nut;
}
// * * * * * * * * * * * * * * * * * * * * * * * * * * * * * * * * * * * * * //

dimensions      [0 2 -1 0 0 0 0];

internalField   nonuniform List<scalar> 
15677
(
0.000101845
0.000509487
8.56045e-05
0.00129481
0.000375775
8.72164e-05
0.00242837
0.000779282
0.00031314
9.52711e-05
0.00370011
0.001396
0.000550404
0.000302234
0.000108637
0.00485947
0.00221837
0.000973973
0.00044841
0.000294003
0.000119882
0.00573804
0.00318386
0.00160215
0.000731651
0.000399915
0.000290491
0.000128485
0.00628477
0.0041832
0.00240069
0.00121296
0.000601885
0.000375959
0.000290032
0.000135266
0.00654178
0.00509637
0.00331166
0.00188557
0.000973311
0.000526223
0.000364781
0.000291745
0.000140301
0.00664863
0.0058322
0.0042461
0.00270718
0.00154233
0.000818431
0.000482228
0.000360865
0.000294207
0.000144505
0.00670224
0.00630609
0.0051043
0.00360871
0.00228014
0.00129624
0.000717713
0.000456433
0.000360542
0.000297524
0.000147605
0.00671489
0.00653788
0.00579735
0.0045026
0.00313351
0.00195677
0.0011262
0.000649231
0.000441601
0.000362856
0.000300617
0.000150439
0.00671119
0.0066533
0.0062693
0.00529721
0.00402552
0.002757
0.00171937
0.00100081
0.000603051
0.000433957
0.000365896
0.000304165
0.000152444
0.00670727
0.00669523
0.00651662
0.00591813
0.00486873
0.00363037
0.00246745
0.00153504
0.000909771
0.000571124
0.000430299
0.000370152
0.000307098
0.000154493
0.00670599
0.00670288
0.00664215
0.00633374
0.00558058
0.00449518
0.00331315
0.00223387
0.00139496
0.000840494
0.000549315
0.000429987
0.00037402
0.000310412
0.000155934
0.00670578
0.0067021
0.00668654
0.00654972
0.00610503
0.00526694
0.00418107
0.00304879
0.00204988
0.00128312
0.000788944
0.000534678
0.00043083
0.000378701
0.000312875
0.000157627
0.00670579
0.00670115
0.00669586
0.00665118
0.0064301
0.00587721
0.00498849
0.00391072
0.00283358
0.00189867
0.00119602
0.00074922
0.000524796
0.000433539
0.000382414
0.000315812
0.00015875
0.00670579
0.00670078
0.0066967
0.0066826
0.00659807
0.00629515
0.00566023
0.00473953
0.00368316
0.00265279
0.00177722
0.00112545
0.000719418
0.000518966
0.000436124
0.000386705
0.000317749
0.00016016
0.00670577
0.0067007
0.00669627
0.00669035
0.00666119
0.00652979
0.0061497
0.00545658
0.00452222
0.00348787
0.00250378
0.00167632
0.00107011
0.000696663
0.000515199
0.000439825
0.000389864
0.000320365
0.000161123
0.00670574
0.00670071
0.00669594
0.00669169
0.00668137
0.00662989
0.00645189
0.00600465
0.0052713
0.00433107
0.00332296
0.00237813
0.00159464
0.00102453
0.000679395
0.000513949
0.00044282
0.000393634
0.000321966
0.000162348
0.00670572
0.00670072
0.00669578
0.00669166
0.00668689
0.00666727
0.00659182
0.00636441
0.00586656
0.00510342
0.00416562
0.00318196
0.00227412
0.00152667
0.000988894
0.000666817
0.000513363
0.000446624
0.000396287
0.000324203
0.000163227
0.0067057
0.00670073
0.0066957
0.0066915
0.00668798
0.00667999
0.00664921
0.00654612
0.00627828
0.00573693
0.00495414
0.00402173
0.00306307
0.00218696
0.00147166
0.000960457
0.000657426
0.000514473
0.000449553
0.000399546
0.000325632
0.000164361
0.00670568
0.00670073
0.00669564
0.0066914
0.006688
0.00668368
0.00667119
0.00662654
0.00649703
0.00619329
0.00561791
0.0048215
0.0038984
0.00296258
0.00211532
0.00142671
0.000938439
0.000651241
0.000515504
0.000453102
0.000401794
0.000327514
0.000165181
0.00670568
0.00670073
0.0066956
0.00669135
0.00668786
0.0066845
0.00667872
0.00666005
0.00660049
0.00644654
0.00611127
0.00550918
0.00470591
0.003793
0.00287903
0.00205644
0.00139135
0.000921504
0.000646909
0.000517872
0.000455838
0.00040447
0.00032883
0.0001663
0.00670567
0.00670073
0.00669557
0.00669132
0.00668774
0.00668454
0.00668092
0.00667281
0.00664667
0.00657261
0.00639637
0.0060339
0.00541285
0.00460565
0.00370446
0.00281017
0.00200966
0.00136336
0.000909399
0.000644931
0.000519682
0.000459196
0.000406454
0.000330456
0.000167068
0.00670567
0.00670073
0.00669555
0.0066913
0.00668765
0.00668444
0.00668137
0.00667718
0.00666561
0.00663224
0.00654374
0.00634754
0.00596438
0.00532744
0.00452072
0.00363137
0.0027552
0.00197299
0.00134332
0.000900891
0.000644021
0.000522836
0.000461503
0.000408561
0.000331658
0.00016821
0.00670567
0.00670073
0.00669553
0.00669128
0.00668759
0.00668435
0.00668134
0.00667844
0.00667265
0.00665838
0.00661644
0.00651571
0.00630284
0.00590097
0.00525537
0.00445064
0.00357289
0.00271247
0.00194622
0.00132836
0.000896204
0.000644868
0.000525529
0.000464172
0.00041038
0.000333154
0.000168936
0.00670567
0.00670073
0.00669552
0.00669128
0.00668753
0.00668428
0.00668121
0.00667867
0.00667494
0.00666896
0.00664977
0.0066019
0.00648862
0.0062611
0.00584849
0.00519449
0.00439333
0.00352712
0.00268106
0.00192772
0.00132118
0.000894401
0.000647089
0.000528308
0.000466517
0.000412102
0.000334207
0.000170095
0.00670567
0.00670073
0.0066955
0.00669127
0.00668749
0.00668424
0.00668109
0.00667861
0.00667548
0.00667283
0.0066639
0.00664322
0.00658677
0.00646574
0.00622603
0.00580109
0.00514634
0.00435277
0.00349799
0.00266343
0.00191957
0.00131783
0.000896141
0.000649766
0.000531053
0.000468705
0.000413698
0.00033569
0.00017082
0.00670567
0.00670073
0.00669549
0.00669127
0.00668745
0.0066842
0.00668099
0.0066785
0.00667546
0.00667401
0.00666935
0.00666169
0.00663517
0.00657619
0.00644413
0.00619767
0.00577271
0.00511678
0.00432679
0.00347965
0.00265396
0.00191645
0.00132025
0.000899419
0.000652984
0.00053429
0.000471083
0.00041522
0.000336542
0.000171936
0.00670568
0.00670073
0.00669548
0.00669126
0.00668741
0.00668418
0.0066809
0.0066784
0.00667532
0.0066742
0.00667115
0.00666931
0.00665749
0.00663274
0.0065654
0.00642994
0.00618475
0.00575146
0.0050943
0.00430942
0.00347067
0.00265227
0.00192013
0.00132618
0.000904821
0.00065758
0.000537665
0.000473152
0.000416634
0.000338085
0.000172935
0.00670568
0.00670072
0.00669548
0.00669126
0.00668738
0.00668416
0.00668083
0.00667831
0.00667516
0.0066741
0.00667152
0.00667207
0.00666706
0.00665969
0.00662739
0.00656286
0.00642693
0.00617374
0.00573761
0.0050821
0.00430471
0.0034736
0.00266097
0.00193132
0.00133651
0.000912824
0.000662859
0.000540989
0.000475157
0.000417958
0.000338804
0.000173913
0.00670568
0.00670072
0.00669547
0.00669126
0.00668735
0.00668415
0.00668077
0.00667824
0.00667502
0.00667395
0.00667143
0.00667279
0.00667071
0.00667165
0.00665811
0.0066353
0.00656547
0.00642759
0.00616992
0.00573685
0.00508724
0.00431548
0.00348947
0.00267938
0.00194858
0.00135134
0.000922772
0.000668857
0.00054441
0.000477061
0.000419254
0.000340107
0.000174879
0.00670568
0.00670072
0.00669547
0.00669126
0.00668733
0.00668414
0.00668072
0.00667819
0.00667489
0.00667379
0.00667122
0.00667282
0.00667176
0.00667643
0.00667228
0.00667123
0.0066409
0.00657351
0.006434
0.0061818
0.00575237
0.00510647
0.00433949
0.00351643
0.0027063
0.0019719
0.00136993
0.000934708
0.00067537
0.000547843
0.000479133
0.000420644
0.000341335
0.000175869
0.00670568
0.00670072
0.00669546
0.00669126
0.00668731
0.00668414
0.00668067
0.00667815
0.00667479
0.00667366
0.00667101
0.00667264
0.00667185
0.00667795
0.00667824
0.00668824
0.00667937
0.00665345
0.00659007
0.00645521
0.00620722
0.00578197
0.00514028
0.00437636
0.00355421
0.00274141
0.0020006
0.0013921
0.000948207
0.000682591
0.000551834
0.000481297
0.000421846
0.000342565
0.00017686
0.00670071
0.00670569
0.00669546
0.00669125
0.00668729
0.00668413
0.00668063
0.00667812
0.0066747
0.00667355
0.00667081
0.00667242
0.00667164
0.00667823
0.00668024
0.00669575
0.00669785
0.00669514
0.00667713
0.00661849
0.00648933
0.00624687
0.00582688
0.00518826
0.00442617
0.00360245
0.0027841
0.00203472
0.00141774
0.000963727
0.000691429
0.000556287
0.000483369
0.000423094
0.000343789
0.000177866
0.00669546
0.00670073
0.00670571
0.00669125
0.00668727
0.00668413
0.00668059
0.00667809
0.00667462
0.00667346
0.00667063
0.00667221
0.00667135
0.00667809
0.00668067
0.00669854
0.00670624
0.00671564
0.00672366
0.00671096
0.0066598
0.00653795
0.0063023
0.00588712
0.00525131
0.00448861
0.00366075
0.00283431
0.00207331
0.00144597
0.000982764
0.00070185
0.000560799
0.000485307
0.000424123
0.000344928
0.000178844
0.00669125
0.00669549
0.00670076
0.00670572
0.00668726
0.00668412
0.00668057
0.00667806
0.00667455
0.00667338
0.00667047
0.00667203
0.00667106
0.00667782
0.00668053
0.00669936
0.00670951
0.00672524
0.00674733
0.00676133
0.00675797
0.00671557
0.00660272
0.0063747
0.0059641
0.00532915
0.00456345
0.00372875
0.00289116
0.002117
0.00147961
0.0010062
0.000712876
0.000565291
0.000487235
0.00042518
0.000346073
0.000179825
0.00668725
0.00669128
0.00669554
0.00670079
0.00670574
0.00668412
0.00668054
0.00667804
0.0066745
0.00667332
0.00667033
0.00667187
0.00667079
0.00667753
0.00668022
0.00669945
0.0067106
0.00672929
0.00675897
0.0067879
0.00681273
0.00681957
0.00678808
0.00668483
0.0064649
0.00605741
0.00542227
0.0046505
0.0038059
0.00295476
0.00217011
0.00152055
0.00103122
0.00072468
0.000569907
0.000488999
0.000426246
0.000347126
0.000180756
0.00668411
0.00668727
0.00669134
0.00669559
0.00670082
0.00670576
0.00668052
0.00667802
0.00667445
0.00667326
0.00667021
0.00667174
0.00667055
0.00667726
0.00667988
0.00669927
0.00671085
0.00673086
0.00676423
0.00680147
0.0068423
0.00687851
0.00689825
0.0068782
0.0067855
0.00657282
0.00616793
0.00553
0.00474951
0.00389181
0.00303174
0.00223515
0.00156328
0.00105768
0.000736946
0.000574438
0.0004908
0.000427157
0.000348174
0.000181684
0.00668051
0.00668415
0.00668734
0.00669141
0.00669565
0.00670085
0.00670577
0.006678
0.00667441
0.00667321
0.00667011
0.00667163
0.00667033
0.00667702
0.00667956
0.00669901
0.00671079
0.00673144
0.00676657
0.00680834
0.00685893
0.00691256
0.00696317
0.0069949
0.00698682
0.00690438
0.00669885
0.00629454
0.00565173
0.0048605
0.00399652
0.0031259
0.00230485
0.00160919
0.00108551
0.00074965
0.000579099
0.000492507
0.000428064
0.00034913
0.00018255
0.00667798
0.00668054
0.00668423
0.0066874
0.00669147
0.00669571
0.00670088
0.00670579
0.00667439
0.00667316
0.00667003
0.00667153
0.00667013
0.00667683
0.00667927
0.00669874
0.00671062
0.00673164
0.00676772
0.00681203
0.00686827
0.00693283
0.00700298
0.00706821
0.00711479
0.00711651
0.00704099
0.00684119
0.00643655
0.0057863
0.0049952
0.00412476
0.00322734
0.00237872
0.00165705
0.00111405
0.000762446
0.000583445
0.000494222
0.000428868
0.000350082
0.000183412
0.00667436
0.00667802
0.00668062
0.00668431
0.00668747
0.00669154
0.00669578
0.00670091
0.00670581
0.00667311
0.00666996
0.00667145
0.00666996
0.00667667
0.00667901
0.00669848
0.00671042
0.00673169
0.00676836
0.0068143
0.00687401
0.00694528
0.00702839
0.00711477
0.00719739
0.00725745
0.0072711
0.00719953
0.00699844
0.00659168
0.00594889
0.0051585
0.0042621
0.00333483
0.00245591
0.00170597
0.00114353
0.000775739
0.000588022
0.000495874
0.000429679
0.000350944
0.000184204
0.00667307
0.0066744
0.00667811
0.00668071
0.00668439
0.00668755
0.0066916
0.00669584
0.00670094
0.00670583
0.00666991
0.00667137
0.0066698
0.00667654
0.00667877
0.00669825
0.00671023
0.00673168
0.00676878
0.00681593
0.00687805
0.00695376
0.00704577
0.00714685
0.00725311
0.00735133
0.00742605
0.00744857
0.00738144
0.00717482
0.00677656
0.00614268
0.00533166
0.00440704
0.00344696
0.00253566
0.00175554
0.00117281
0.000789208
0.000592409
0.000497526
0.000430398
0.000351802
0.000184992
0.00666987
0.00667307
0.00667448
0.0066782
0.0066808
0.00668447
0.00668763
0.00669167
0.00669591
0.00670097
0.00670585
0.0066713
0.00666967
0.00667645
0.00667854
0.00669805
0.00671007
0.00673167
0.0067691
0.00681726
0.00688123
0.00696031
0.00705883
0.00717065
0.00729465
0.00741871
0.00753454
0.00762046
0.00765042
0.00758469
0.00739298
0.0069997
0.00634606
0.0055123
0.00455693
0.00356246
0.00261697
0.00180624
0.00120133
0.000802761
0.000596649
0.000499035
0.000431116
0.000352575
0.00018571
0.00667122
0.00666986
0.00667312
0.00667458
0.00667829
0.0066809
0.00668455
0.00668771
0.00669174
0.00669599
0.006701
0.00670587
0.00666956
0.00667638
0.00667831
0.00669788
0.00670993
0.00673166
0.00676939
0.00681841
0.0068839
0.00696585
0.00706961
0.00718967
0.00732808
0.0074726
0.00761749
0.00774688
0.00784319
0.00787674
0.00783323
0.00766165
0.00724378
0.00655508
0.00569573
0.00470923
0.0036796
0.00269919
0.00185734
0.00122975
0.000816177
0.000600868
0.00050048
0.000431749
0.000353342
0.000186422
0.00666948
0.00667114
0.00666988
0.00667317
0.0066747
0.00667838
0.00668102
0.00668463
0.0066878
0.00669181
0.00669606
0.00670104
0.00670589
0.00667632
0.00667807
0.00669776
0.00670983
0.00673166
0.00676964
0.00681945
0.00688623
0.00697077
0.00707899
0.00720603
0.00735656
0.00751868
0.00768824
0.00784938
0.00799246
0.00809466
0.00815574
0.00813845
0.007951
0.00750544
0.00677375
0.00587981
0.00486213
0.00379752
0.00278161
0.00190854
0.00125721
0.000829371
0.000605104
0.0005018
0.000432378
0.000354032
0.000187068
0.00667627
0.00666931
0.00667105
0.00666991
0.00667322
0.00667483
0.00667847
0.00668114
0.00668471
0.0066879
0.00669188
0.00669614
0.00670107
0.00670591
0.00667783
0.00669769
0.00670975
0.00673168
0.00676987
0.00682039
0.00688831
0.00697523
0.00708735
0.00722077
0.00738207
0.00755933
0.00775204
0.00794197
0.00812067
0.00827199
0.00840731
0.00850143
0.00847048
0.00825818
0.00777839
0.00700165
0.00606438
0.00501441
0.00391451
0.00286348
0.00195932
0.00128433
0.000842319
0.000609289
0.000503055
0.000432931
0.00035471
0.000187705
0.00667759
0.00667604
0.00666903
0.00667095
0.00666997
0.00667327
0.00667497
0.00667855
0.00668127
0.00668479
0.006688
0.00669195
0.00669622
0.00670111
0.00670593
0.00669769
0.0067097
0.00673171
0.00677008
0.00682125
0.0068902
0.00697932
0.00709491
0.00723433
0.00740543
0.00759637
0.00781062
0.00802953
0.00824236
0.00843209
0.00862327
0.00879945
0.00888165
0.00882631
0.00858022
0.00805866
0.00723513
0.00624726
0.00516298
0.00402948
0.00294424
0.00200935
0.00131098
0.000854941
0.000613405
0.00050421
0.000433478
0.000355326
0.000188283
0.00669777
0.0066768
0.00667567
0.00666878
0.00667084
0.00667007
0.00667331
0.00667513
0.00667864
0.00668141
0.00668487
0.00668811
0.00669202
0.0066963
0.00670114
0.00670594
0.00670966
0.00673173
0.00677026
0.00682202
0.00689193
0.00698307
0.0071018
0.0072469
0.00742693
0.0076308
0.0078658
0.0081122
0.00836114
0.00859065
0.00882924
0.00907084
0.00923697
0.00929454
0.00920361
0.00891452
0.00834393
0.00747162
0.00643235
0.00530798
0.00414173
0.00302326
0.0020584
0.00133673
0.000867199
0.000617408
0.000505319
0.000433962
0.000355919
0.000188849
0.0067096
0.00669724
0.00667541
0.00667525
0.00666861
0.00667071
0.0066702
0.00667334
0.00667531
0.00667872
0.00668155
0.00668495
0.00668821
0.00669209
0.00669637
0.00670118
0.00670596
0.00673173
0.00677041
0.00682273
0.00689352
0.0069865
0.00710809
0.00725857
0.00744673
0.00766315
0.00791821
0.00819065
0.00847531
0.00875188
0.00904383
0.00934427
0.00957894
0.00972107
0.00974057
0.00960169
0.00925941
0.00863244
0.00770681
0.00661722
0.00544907
0.00425066
0.00310023
0.00210619
0.00136168
0.000879053
0.000621299
0.000506343
0.000434439
0.000356471
0.000189364
0.00673175
0.00670849
0.00669604
0.00667432
0.00667474
0.00666852
0.00667055
0.00667036
0.00667337
0.0066755
0.00667881
0.0066817
0.00668504
0.00668832
0.00669217
0.00669644
0.00670121
0.00670597
0.00677052
0.00682337
0.00689498
0.00698964
0.00711387
0.00726935
0.00746496
0.00769364
0.00796776
0.00826514
0.00858626
0.0089137
0.00927007
0.00964056
0.0099422
0.0101581
0.0102607
0.0102247
0.0100219
0.00961427
0.00892282
0.00793962
0.00680013
0.00558619
0.00435614
0.00317476
0.00215254
0.0013858
0.000890483
0.000625045
0.000507332
0.000434861
0.000356983
0.000189861
0.00677063
0.00673003
0.00670622
0.00669435
0.00667359
0.00667409
0.00666854
0.00667036
0.00667056
0.00667339
0.0066757
0.0066789
0.00668186
0.00668513
0.00668842
0.00669224
0.00669651
0.00670124
0.00670599
0.00682397
0.00689632
0.00699252
0.00711917
0.00727928
0.00748177
0.00772231
0.00801422
0.00833603
0.00869524
0.00907597
0.00949781
0.00996143
0.0103609
0.0106602
0.0108381
0.0108736
0.010755
0.0104668
0.00997911
0.00921416
0.0081692
0.00697973
0.00571843
0.00445724
0.00324651
0.00219728
0.00140903
0.000901466
0.000628657
0.000508242
0.000435279
0.000357483
0.000190321
0.00682457
0.00676777
0.00672647
0.00670396
0.00669234
0.00667323
0.00667331
0.00666866
0.00667015
0.00667079
0.00667343
0.00667591
0.006679
0.006682
0.00668522
0.00668852
0.00669231
0.00669658
0.00670128
0.006706
0.00689756
0.00699514
0.00712402
0.00728839
0.00749725
0.00774913
0.00805751
0.00840376
0.00880218
0.00923612
0.00972218
0.0103018
0.0108616
0.0112997
0.0115632
0.0116539
0.0115754
0.0113373
0.0109378
0.0103537
0.00950573
0.00839491
0.00715531
0.00584707
0.00455374
0.00331529
0.00224031
0.00143136
0.000911996
0.000632109
0.000509128
0.000435645
0.000357927
0.000190687
0.00689875
0.00682102
0.00676171
0.00672303
0.00670175
0.00668991
0.0066732
0.00667241
0.00666886
0.00666994
0.00667102
0.00667348
0.00667611
0.00667911
0.00668214
0.00668531
0.00668862
0.00669239
0.00669664
0.00670131
0.00670601
0.00699753
0.00712846
0.00729672
0.00751151
0.00777406
0.00809774
0.00846858
0.00890576
0.00939099
0.0099449
0.0106777
0.0114622
0.0121336
0.0125418
0.0126825
0.0126123
0.0123649
0.0119691
0.0114331
0.0107367
0.00979668
0.00861618
0.00732554
0.00597231
0.0046458
0.00338101
0.00228155
0.00145275
0.000922058
0.000635418
0.000509936
0.000436016
0.000358306
0.000191016
0.00699974
0.00689376
0.00681293
0.0067557
0.00671982
0.00669991
0.00668705
0.00667342
0.00667147
0.00666909
0.00666976
0.00667125
0.00667355
0.0066763
0.00667922
0.00668228
0.0066854
0.00668871
0.00669246
0.0066967
0.00670135
0.00670602
0.0071325
0.00730431
0.00752462
0.00779708
0.00813511
0.00853033
0.0090044
0.00953951
0.0101733
0.0111061
0.0121721
0.0131352
0.0137885
0.0140396
0.0139657
0.0136743
0.0132183
0.0126376
0.0119463
0.0111253
0.0100858
0.00883247
0.00748981
0.00609353
0.00473357
0.00344365
0.00232095
0.00147319
0.000931661
0.000638564
0.00051073
0.000436283
0.000358628
0.000191367
0.00713622
0.00699301
0.00688192
0.00680487
0.00674998
0.00671677
0.00669862
0.00668399
0.00667375
0.00667055
0.00666931
0.00666962
0.00667147
0.00667365
0.00667648
0.00667934
0.0066824
0.00668549
0.00668879
0.00669253
0.00669676
0.00670138
0.00670603
0.0073112
0.0075366
0.00781825
0.00816979
0.00858864
0.00909711
0.00968294
0.0104148
0.011588
0.0129603
0.0142206
0.0151402
0.0156145
0.0156268
0.0153009
0.0147709
0.0140963
0.0133225
0.0124679
0.0115155
0.0103716
0.0090432
0.00764803
0.00621033
0.00481714
0.00350321
0.0023585
0.00149269
0.000940795
0.000641567
0.000511348
0.000436536
0.000358935
0.000191767
0.00731745
0.00712718
0.00697615
0.00687008
0.00679701
0.00674449
0.00671387
0.00669755
0.00668096
0.00667406
0.00666974
0.00666948
0.00666955
0.00667165
0.00667378
0.00667664
0.00667947
0.00668251
0.00668558
0.00668888
0.0066926
0.00669682
0.00670141
0.00670604
0.00754754
0.0078376
0.00820188
0.00864315
0.00918373
0.0098234
0.0106712
0.0121052
0.0137676
0.0152807
0.0164243
0.0171231
0.0173565
0.0171324
0.0165773
0.0158324
0.0149575
0.014001
0.0129869
0.0119025
0.0106524
0.00924779
0.00780008
0.00632246
0.00489661
0.00355974
0.0023942
0.00151125
0.00094948
0.00064403
0.000511903
0.000436776
0.000359322
0.000192182
0.00755744
0.00730579
0.00710347
0.00695924
0.00685852
0.00678929
0.00673922
0.00671117
0.00669656
0.00667815
0.00667421
0.00666912
0.00666956
0.00666957
0.00667179
0.00667392
0.00667678
0.0066796
0.00668263
0.00668568
0.00668896
0.00669267
0.00669687
0.00670143
0.00670604
0.00785526
0.00823145
0.00869364
0.00926474
0.00996235
0.0109383
0.0126305
0.0145358
0.0162302
0.0175263
0.0183936
0.0188393
0.0188594
0.0184515
0.0177215
0.0168082
0.0157687
0.0146533
0.0134925
0.0122813
0.0109263
0.00944568
0.0079459
0.00642977
0.00497206
0.00361329
0.00242808
0.00152887
0.000956621
0.00064614
0.000512465
0.000437097
0.000359666
0.000192654
0.00787109
0.00754233
0.00727305
0.00707969
0.00694272
0.00684723
0.00678165
0.0067343
0.00670857
0.00669554
0.00667583
0.00667407
0.00666873
0.00666956
0.00666966
0.00667191
0.00667408
0.00667692
0.00667973
0.00668273
0.00668577
0.00668904
0.00669274
0.0066969
0.00670143
0.00670604
0.00825861
0.00874009
0.00934084
0.0100998
0.0112078
0.0131378
0.0152255
0.0170269
0.0184018
0.019368
0.0199653
0.0202066
0.0200742
0.0195458
0.0187012
0.0176711
0.0165085
0.0152645
0.0139759
0.0126475
0.0111916
0.00963636
0.00808544
0.00653219
0.00504361
0.00366397
0.00246016
0.00154339
0.000962705
0.000648438
0.000513145
0.000437377
0.000360112
0.000193138
0.00828295
0.00785222
0.00749747
0.00724018
0.00705644
0.00692659
0.00683617
0.00677404
0.00672972
0.00670597
0.00669424
0.00667438
0.00667358
0.00666858
0.00666948
0.00666979
0.00667202
0.00667424
0.00667705
0.00667986
0.00668283
0.00668586
0.00668911
0.00669277
0.0066969
0.00670143
0.00670604
0.00878271
0.00941263
0.0102346
0.0114708
0.0136088
0.0158191
0.0176642
0.0190566
0.0200591
0.0207418
0.0211376
0.0212399
0.0210138
0.0204198
0.0195126
0.0184126
0.0171669
0.0158255
0.0144305
0.0129974
0.0114468
0.00981937
0.00821865
0.00662974
0.00511138
0.00371184
0.00248649
0.00155572
0.000969366
0.000651022
0.000513799
0.000437773
0.000360478
0.000193691
0.00882065
0.00825928
0.00779153
0.00745246
0.00720796
0.00703373
0.00691081
0.00682533
0.00676652
0.00672531
0.0067033
0.00669207
0.00667367
0.00667284
0.00666859
0.00666936
0.00666996
0.00667211
0.00667441
0.00667717
0.00667999
0.00668293
0.00668595
0.00668915
0.00669277
0.0066969
0.00670143
0.00670604
0.00948051
0.0103649
0.0117196
0.0140335
0.0163147
0.0181557
0.0195211
0.0205117
0.0212234
0.0217077
0.0219722
0.0219907
0.0217161
0.0210978
0.0201683
0.0190365
0.0177422
0.0163323
0.0148526
0.0133284
0.0116906
0.00999433
0.00834556
0.00672244
0.00517547
0.00375106
0.00250884
0.00156926
0.000976637
0.000653845
0.000514658
0.000438089
0.000360993
0.00019425
0.00954229
0.00879143
0.00817725
0.00773057
0.00740829
0.00717645
0.00701154
0.00689541
0.00681477
0.00675914
0.00672108
0.00670071
0.00668928
0.00667351
0.00667197
0.00666871
0.00666924
0.00667013
0.00667221
0.00667458
0.00667729
0.00668011
0.00668303
0.00668599
0.00668915
0.00669277
0.0066969
0.00670143
0.00670604
0.0104888
0.0119537
0.014409
0.0167199
0.018524
0.0198326
0.0207778
0.0214758
0.0219945
0.0223548
0.0225416
0.0225159
0.0222243
0.0216104
0.0206879
0.0195532
0.018238
0.0167846
0.0152402
0.013639
0.0119222
0.010161
0.00846621
0.00681039
0.00522805
0.0037843
0.0025333
0.00158417
0.000984554
0.000657041
0.000515456
0.000438576
0.000361385
0.000194891
0.0106002
0.00950581
0.00868005
0.00809501
0.00767063
0.00736502
0.00714563
0.00698987
0.00688043
0.00680461
0.00675187
0.0067172
0.0066985
0.00668602
0.00667366
0.0066711
0.00666885
0.00666914
0.0066703
0.00667232
0.00667473
0.00667741
0.00668023
0.00668307
0.006686
0.00668915
0.00669277
0.0066969
0.00670143
0.00670603
0.0121735
0.0147342
0.0170466
0.0187929
0.020027
0.0209052
0.0215594
0.0220711
0.022474
0.0227636
0.0229093
0.0228657
0.0225783
0.0219879
0.0210924
0.0199758
0.0186612
0.0171847
0.0155934
0.0139282
0.0121411
0.0103194
0.00858071
0.00688273
0.00527265
0.00382064
0.00256011
0.0016006
0.000993212
0.000660506
0.000516507
0.000438927
0.000361992
0.000195533
0.0105586
0.0123693
0.00934385
0.00857006
0.00801394
0.00761186
0.00732265
0.00711552
0.00696877
0.00686592
0.006795
0.00674499
0.0067136
0.00669705
0.00668279
0.00667388
0.00667033
0.00666898
0.00666909
0.00667046
0.00667243
0.00667489
0.00667753
0.0066803
0.00668307
0.006686
0.00668915
0.00669277
0.0066969
0.00670141
0.00670602
0.0150107
0.0173073
0.018984
0.0201343
0.020933
0.0215236
0.0219984
0.0224025
0.0227428
0.022997
0.0231254
0.0230811
0.0228117
0.0222572
0.0214019
0.020318
0.0190196
0.0175363
0.0159131
0.0141962
0.0123471
0.0104693
0.00867489
0.00694418
0.00532147
0.00386043
0.00258952
0.00161872
0.00100269
0.000664469
0.000517493
0.000439526
0.000362425
0.000196275
0.0103104
0.0123304
0.0152354
0.00918839
0.00846205
0.00793425
0.00755426
0.00728121
0.00708617
0.00694829
0.00685196
0.00678575
0.0067385
0.00671034
0.00669588
0.00667986
0.00667402
0.00666971
0.00666907
0.00666907
0.00667061
0.00667255
0.00667503
0.00667759
0.0066803
0.00668307
0.006686
0.00668915
0.00669277
0.00669687
0.00670138
0.00670601
0.017514
0.0191156
0.0201785
0.0208916
0.0214064
0.0218233
0.0221977
0.0225476
0.0228601
0.0231011
0.0232273
0.0231938
0.0229516
0.0224409
0.0216342
0.0205926
0.0193217
0.0178438
0.0162012
0.0144434
0.0125403
0.0105923
0.00875489
0.00701153
0.00537495
0.00390389
0.00262179
0.00163873
0.00101313
0.000668719
0.000518803
0.000439913
0.000363153
0.000197008
0.0100668
0.0119763
0.0151682
0.0176677
0.00904038
0.00835554
0.00785607
0.00749785
0.00724076
0.00705762
0.00692847
0.00683851
0.00677685
0.0067325
0.00670748
0.00669481
0.00667742
0.00667397
0.00666927
0.0066691
0.00666911
0.00667074
0.00667268
0.00667511
0.00667758
0.00668031
0.00668307
0.006686
0.00668915
0.00669274
0.00669682
0.00670135
0.006706
0.0192024
0.0201783
0.0208038
0.0212361
0.0215813
0.021903
0.0222299
0.0225603
0.0228669
0.0231088
0.0232429
0.0232283
0.0230198
0.0225577
0.0218045
0.0208112
0.0195753
0.0181121
0.0164601
0.0146706
0.012697
0.0106965
0.00884249
0.00708538
0.0054339
0.00395142
0.00265724
0.00166084
0.00102456
0.000673649
0.000520011
0.000440657
0.000363653
0.00019787
0.00983858
0.0115932
0.0148115
0.0175688
0.019247
0.00889735
0.00825048
0.00777952
0.00744271
0.00720138
0.00702995
0.00690935
0.00682561
0.00676844
0.0067272
0.00670485
0.0066937
0.00667573
0.00667369
0.006669
0.00666908
0.00666918
0.00667085
0.00667274
0.00667511
0.00667758
0.00668031
0.00668307
0.006686
0.00668912
0.00669267
0.00669676
0.00670131
0.00670599
0.0201473
0.0206865
0.0210335
0.0212986
0.0215512
0.0218298
0.0221442
0.0224772
0.0227916
0.0230433
0.0231925
0.0232032
0.0230333
0.0226229
0.0219256
0.0209836
0.0197875
0.0183458
0.0166923
0.0148512
0.0128287
0.0108102
0.00893846
0.00716629
0.00549892
0.00400351
0.00269622
0.00168533
0.00103717
0.000678855
0.000521677
0.000441094
0.000364539
0.000198708
0.00962499
0.0112158
0.0143686
0.0173414
0.0190951
0.0200859
0.00875758
0.00814712
0.00770471
0.00738895
0.00716317
0.0070032
0.00689104
0.00681357
0.00676066
0.00672265
0.00670234
0.00669206
0.00667476
0.00667321
0.00666888
0.00666903
0.00666928
0.0066709
0.00667274
0.00667511
0.00667758
0.00668031
0.00668308
0.00668596
0.00668904
0.0066926
0.0066967
0.00670128
0.00670597
0.0205517
0.0208136
0.0209941
0.0211667
0.0213776
0.0216482
0.0219733
0.0223229
0.0226532
0.022921
0.0230914
0.0231331
0.0230056
0.0226485
0.0220077
0.0211184
0.0199648
0.0185491
0.0168723
0.0150012
0.0129712
0.0109342
0.00904362
0.00725503
0.0055707
0.00406066
0.00273914
0.00171244
0.00105106
0.000685019
0.000523154
0.000442049
0.000365157
0.000199726
0.00942297
0.0108575
0.013879
0.0170259
0.0189405
0.0198793
0.020395
0.00862047
0.00804581
0.00763183
0.00733671
0.00712622
0.00697761
0.00687401
0.00680255
0.00675336
0.00671859
0.00670001
0.00668987
0.00667431
0.00667259
0.00666887
0.00666897
0.00666936
0.00667088
0.00667275
0.00667512
0.00667759
0.00668031
0.00668303
0.00668587
0.00668896
0.00669253
0.00669664
0.00670125
0.00670596
0.0205871
0.0206818
0.0207678
0.0208969
0.0211012
0.0213882
0.0217389
0.0221133
0.0224647
0.0227538
0.0229514
0.0230291
0.0229473
0.0226441
0.0220595
0.0212226
0.0201128
0.0187018
0.0170196
0.0151609
0.0131249
0.0110694
0.00915889
0.00735245
0.00564999
0.0041235
0.00278644
0.00174255
0.00106647
0.000691361
0.000525256
0.000442561
0.00036623
0.000200681
0.00923007
0.0105227
0.013364
0.0166479
0.0187156
0.0197571
0.0201335
0.0203438
0.00848612
0.00794686
0.00756106
0.00728614
0.00709087
0.00695382
0.0068585
0.0067925
0.00674663
0.00671503
0.00669804
0.00668728
0.0066742
0.00667192
0.00666894
0.00666887
0.0066694
0.00667087
0.00667275
0.00667512
0.0066776
0.00668025
0.00668294
0.00668578
0.00668888
0.00669246
0.00669657
0.00670121
0.00670594
0.0203714
0.020368
0.0204059
0.0205265
0.0207496
0.0210699
0.0214552
0.0218587
0.0222349
0.0225506
0.0227815
0.0229004
0.0228666
0.0226173
0.0220875
0.0213021
0.0202186
0.0188247
0.0171737
0.0153305
0.0132905
0.0112165
0.00928523
0.00745949
0.00573766
0.00419272
0.00283867
0.00177594
0.00108353
0.000699092
0.000527084
0.000443808
0.000367044
0.000202207
0.00904463
0.0102119
0.0128342
0.0162193
0.0184469
0.019578
0.0200132
0.020027
0.0200468
0.00835488
0.00785065
0.00749261
0.00723775
0.00705806
0.00693218
0.00684438
0.00678347
0.00674047
0.00671194
0.00669672
0.00668464
0.00667424
0.00667127
0.00666909
0.00666876
0.00666943
0.00667087
0.00667275
0.00667512
0.00667754
0.00668013
0.00668284
0.00668568
0.0066888
0.00669239
0.00669651
0.00670118
0.00670593
0.0199767
0.0199186
0.019943
0.0200813
0.0203426
0.0207063
0.0211305
0.0215651
0.0219699
0.0223184
0.0225892
0.022754
0.0227702
0.0225741
0.0220975
0.0213523
0.0203019
0.0189505
0.0173342
0.0155099
0.0134684
0.0113766
0.00942369
0.00757718
0.00583467
0.0042691
0.0028964
0.00181318
0.00110253
0.000707081
0.000529777
0.00044441
0.000368581
0.000203594
0.00886573
0.00992569
0.0122992
0.0157409
0.0181467
0.0193709
0.0198445
0.0198892
0.0196736
0.0195776
0.00822703
0.0077576
0.00742713
0.00719284
0.00702823
0.00691251
0.00683158
0.00677538
0.00673492
0.00670915
0.00669562
0.00668219
0.00667436
0.00667074
0.00666924
0.00666871
0.00666944
0.00667089
0.00667276
0.00667505
0.00667743
0.00668001
0.00668274
0.00668559
0.00668871
0.00669232
0.00669644
0.00670114
0.00670591
0.0194446
0.0193657
0.0194031
0.0195812
0.0198923
0.0203047
0.0207686
0.0212363
0.0216747
0.0220633
0.0223808
0.0225957
0.0226631
0.0225193
0.0220921
0.0213896
0.020384
0.0190781
0.0175002
0.0156987
0.0136589
0.0115504
0.00957534
0.00770666
0.00594208
0.00435355