/*--------------------------------*- C++ -*----------------------------------*\
  =========                 |
  \\      /  F ield         | OpenFOAM: The Open Source CFD Toolbox
   \\    /   O peration     | Website:  https://openfoam.org
    \\  /    A nd           | Version:  8
     \\/     M anipulation  |
\*---------------------------------------------------------------------------*/
FoamFile
{
    version     2.0;
    format      ascii;
    class       volVectorField;
    location    "0.24";
    object      U;
}
// * * * * * * * * * * * * * * * * * * * * * * * * * * * * * * * * * * * * * //

dimensions      [0 1 -1 0 0 0 0];

internalField   nonuniform List<vector> 
15677
(
(-0.0399004 9.66596 0)
(0.0484946 9.92199 0)
(-0.00181137 9.37827 0)
(0.0206522 9.97702 0)
(0.0198956 9.78866 0)
(0.00731797 9.14112 0)
(0.0258383 9.99516 0)
(0.0165441 9.92468 0)
(0.0111881 9.65389 0)
(0.0065001 8.96036 0)
(0.0263294 10.0025 0)
(0.0205606 9.97872 0)
(0.0165664 9.85196 0)
(0.00914114 9.53053 0)
(0.00517291 8.81639 0)
(0.0255676 10.0057 0)
(0.0215951 10.003 0)
(0.0194289 9.94145 0)
(0.015395 9.77926 0)
(0.00800611 9.41925 0)
(0.00425939 8.70129 0)
(0.0245043 10.0071 0)
(0.021878 10.0147 0)
(0.0210325 9.98473 0)
(0.0182967 9.90221 0)
(0.0139033 9.70756 0)
(0.00696233 9.32053 0)
(0.0035703 8.6085 0)
(0.0230884 10.0075 0)
(0.021758 10.0205 0)
(0.0219075 10.0068 0)
(0.0202587 9.96476 0)
(0.0170335 9.86141 0)
(0.0125127 9.63984 0)
(0.00601959 9.23478 0)
(0.00299265 8.53372 0)
(0.0213959 10.0074 0)
(0.02121 10.0234 0)
(0.0222022 10.0184 0)
(0.0213661 9.99788 0)
(0.0191512 9.94321 0)
(0.015713 9.82134 0)
(0.011176 9.57807 0)
(0.00514479 9.16173 0)
(0.00246347 8.47422 0)
(0.0194976 10.007 0)
(0.0203514 10.0235 0)
(0.0221767 10.024 0)
(0.021879 10.016 0)
(0.0203433 9.98765 0)
(0.0178633 9.92184 0)
(0.0142874 9.78385 0)
(0.0098148 9.5234 0)
(0.00428728 9.10115 0)
(0.00194542 8.42853 0)
(0.0174786 10.0063 0)
(0.0192995 10.0224 0)
(0.0217451 10.0271 0)
(0.0219214 10.0259 0)
(0.0209068 10.0126 0)
(0.019047 9.97766 0)
(0.0163716 9.90212 0)
(0.0127119 9.75015 0)
(0.00837259 9.47679 0)
(0.00340313 9.05282 0)
(0.00141016 8.3956 0)
(0.0153725 10.0056 0)
(0.017995 10.0206 0)
(0.0210329 10.028 0)
(0.021605 10.0313 0)
(0.0209771 10.0268 0)
(0.0195521 10.0095 0)
(0.0174437 9.96914 0)
(0.0146215 9.88502 0)
(0.0109334 9.7214 0)
(0.00680146 9.43901 0)
(0.00245211 9.01665 0)
(0.000835297 8.37512 0)
(0.013229 10.0048 0)
(0.016515 10.0185 0)
(0.0199745 10.0274 0)
(0.0209585 10.0339 0)
(0.0206364 10.0349 0)
(0.0195271 10.028 0)
(0.0177832 10.0078 0)
(0.0154743 9.96292 0)
(0.0125446 9.87152 0)
(0.00889418 9.69864 0)
(0.00505268 9.41075 0)
(0.00140181 8.99264 0)
(0.0001954 8.36681 0)
(0.0111211 10.0041 0)
(0.0149236 10.0163 0)
(0.0186408 10.0258 0)
(0.0200071 10.0343 0)
(0.0199493 10.0391 0)
(0.0190603 10.0387 0)
(0.0175439 10.0305 0)
(0.0155344 10.0082 0)
(0.0130564 9.95984 0)
(0.0100663 9.86259 0)
(0.00653383 9.68289 0)
(0.00308219 9.39263 0)
(0.00022566 8.98089 0)
(-0.000457299 8.37064 0)
(0.00921172 10.0035 0)
(0.013227 10.014 0)
(0.0170722 10.0235 0)
(0.01875 10.0333 0)
(0.0189305 10.0407 0)
(0.018203 10.0447 0)
(0.0168176 10.0439 0)
(0.014954 10.035 0)
(0.0127067 10.0116 0)
(0.0100957 9.96078 0)
(0.00710817 9.8592 0)
(0.00379591 9.67507 0)
(0.000851643 9.38524 0)
(-0.00108036 8.98167 0)
(-0.00121275 8.38662 0)
(0.00766396 10.0029 0)
(0.0116781 10.012 0)
(0.0153074 10.0209 0)
(0.0172016 10.0312 0)
(0.0175808 10.0404 0)
(0.0169749 10.0475 0)
(0.015651 10.0516 0)
(0.0138262 10.0511 0)
(0.0116409 10.0424 0)
(0.00918457 10.0188 0)
(0.00649229 9.9666 0)
(0.00359461 9.86229 0)
(0.000625328 9.6761 0)
(-0.00168535 9.38913 0)
(-0.00256672 8.99508 0)
(-0.00205818 8.41497 0)
(0.00634567 10.0024 0)
(0.0102876 10.0102 0)
(0.0135938 10.0184 0)
(0.0153927 10.0284 0)
(0.0159045 10.0387 0)
(0.0153807 10.048 0)
(0.0140633 10.0555 0)
(0.0121953 10.0604 0)
(0.00995054 10.0609 0)
(0.00746619 10.0534 0)
(0.00484454 10.0305 0)
(0.00214776 9.97817 0)
(-0.000545095 9.87281 0)
(-0.00302163 9.68677 0)
(-0.00454596 9.4048 0)
(-0.00423028 9.02133 0)
(-0.00299228 8.45571 0)
(0.00524182 10.002 0)
(0.00903872 10.0087 0)
(0.0120346 10.0162 0)
(0.0135624 10.0255 0)
(0.0139189 10.036 0)
(0.0134213 10.0467 0)
(0.012059 10.0567 0)
(0.0100772 10.0654 0)
(0.00767624 10.0719 0)
(0.00502713 10.0743 0)
(0.00228086 10.0688 0)
(-0.000436786 10.0477 0)
(-0.00303173 9.99639 0)
(-0.00537616 9.89161 0)
(-0.0071874 9.70782 0)
(-0.00775485 9.43261 0)
(-0.00607423 9.06042 0)
(-0.00401027 8.50883 0)
(0.00431793 10.0016 0)
(0.00791246 10.0074 0)
(0.0105966 10.0142 0)
(0.0118656 10.0229 0)
(0.0118777 10.0329 0)
(0.011106 10.0441 0)
(0.00963882 10.0558 0)
(0.00747396 10.0672 0)
(0.00482878 10.0778 0)
(0.00190128 10.0866 0)
(-0.00112173 10.0918 0)
(-0.0040659 10.0893 0)
(-0.00677732 10.071 0)
(-0.00912883 10.0221 0)
(-0.0109494 9.91951 0)
(-0.0118976 9.73982 0)
(-0.0113239 9.47279 0)
(-0.00810164 9.11241 0)
(-0.00510969 8.57412 0)
(0.00355255 10.0013 0)
(0.00690219 10.0062 0)
(0.00927024 10.0125 0)
(0.0102713 10.0205 0)
(0.00997096 10.0299 0)
(0.00872054 10.0408 0)
(0.00681063 10.0533 0)
(0.004386 10.0666 0)
(0.00140606 10.0801 0)
(-0.00190801 10.0934 0)
(-0.00533971 10.1055 0)
(-0.00867747 10.1143 0)
(-0.0117191 10.1157 0)
(-0.0142828 10.1013 0)
(-0.016211 10.056 0)
(-0.0172962 9.95716 0)
(-0.017161 9.7832 0)
(-0.0152487 9.52544 0)
(-0.0102986 9.17701 0)
(-0.00627716 8.6512 0)
(0.00293236 10.001 0)
(0.0059964 10.0052 0)
(0.00805388 10.0109 0)
(0.00878531 10.0183 0)
(0.00817122 10.0271 0)
(0.00649017 10.0375 0)
(0.00391414 10.0497 0)
(0.000823157 10.064 0)
(-0.00259244 10.0797 0)
(-0.00640865 10.0961 0)
(-0.0103801 10.1129 0)
(-0.0142624 10.1291 0)
(-0.0178149 10.1426 0)
(-0.0208087 10.1489 0)
(-0.0230383 10.1394 0)
(-0.0243208 10.0988 0)
(-0.0244279 10.0051 0)
(-0.0229682 9.83819 0)
(-0.0195119 9.59046 0)
(-0.0126551 9.25398 0)
(-0.00750499 8.73959 0)
(0.00243239 10.0008 0)
(0.00517483 10.0043 0)
(0.00694185 10.0095 0)
(0.00741181 10.0162 0)
(0.00649487 10.0244 0)
(0.00438799 10.0341 0)
(0.00121548 10.0459 0)
(-0.00279396 10.0601 0)
(-0.00715299 10.0769 0)
(-0.0116031 10.0957 0)
(-0.016259 10.1159 0)
(-0.020842 10.1371 0)
(-0.0250754 10.1583 0)
(-0.0286914 10.1772 0)
(-0.03144 10.1894 0)
(-0.0330992 10.1858 0)
(-0.033473 10.151 0)
(-0.0323304 10.0637 0)
(-0.0292916 9.90484 0)
(-0.0240822 9.66759 0)
(-0.0151386 9.34263 0)
(-0.00876941 8.83843 0)
(0.00205099 10.0007 0)
(0.00448016 10.0037 0)
(0.00592885 10.0083 0)
(0.00615173 10.0144 0)
(0.00495119 10.0219 0)
(0.00243978 10.0309 0)
(-0.0013155 10.042 0)
(-0.00614354 10.0558 0)
(-0.0117434 10.0725 0)
(-0.0174726 10.0925 0)
(-0.0229821 10.1153 0)
(-0.0284436 10.1401 0)
(-0.0335407 10.1666 0)
(-0.0379671 10.1937 0)
(-0.0414353 10.2191 0)
(-0.0436835 10.2379 0)
(-0.0444861 10.241 0)
(-0.0436501 10.213 0)
(-0.0409649 10.133 0)
(-0.0360823 9.98298 0)
(-0.0289119 9.75632 0)
(-0.0177272 9.44236 0)
(-0.0100514 8.94696 0)
(0.0017557 10.0006 0)
(0.00391361 10.0032 0)
(0.00505614 10.0073 0)
(0.00500659 10.0127 0)
(0.0035461 10.0195 0)
(0.000661128 10.0278 0)
(-0.00364375 10.0382 0)
(-0.00926625 10.0512 0)
(-0.0159684 10.0674 0)
(-0.0233378 10.0874 0)
(-0.030525 10.1115 0)
(-0.0370779 10.1391 0)
(-0.0432534 10.1694 0)
(-0.0487008 10.2022 0)
(-0.0530929 10.2361 0)
(-0.0561348 10.2686 0)
(-0.057568 10.2949 0)
(-0.0571801 10.3055 0)
(-0.0548012 10.2851 0)
(-0.050263 10.213 0)
(-0.0432693 10.0722 0)
(-0.0339459 9.85599 0)
(-0.0203551 9.55212 0)
(-0.0112848 9.06357 0)
(0.00152354 10.0005 0)
(0.00345366 10.0028 0)
(0.00433977 10.0065 0)
(0.00402181 10.0113 0)
(0.00228412 10.0173 0)
(-0.000936968 10.0249 0)
(-0.00574705 10.0344 0)
(-0.0121171 10.0464 0)
(-0.019884 10.0618 0)
(-0.0287078 10.0813 0)
(-0.0380202 10.1053 0)
(-0.0467147 10.1344 0)
(-0.0542321 10.1678 0)
(-0.0609547 10.2047 0)
(-0.0665087 10.2445 0)
(-0.0705618 10.2859 0)
(-0.0728289 10.3264 0)
(-0.0730735 10.3608 0)
(-0.0711189 10.3795 0)
(-0.0668382 10.367 0)
(-0.0601276 10.3034 0)
(-0.0507658 10.172 0)
(-0.039066 9.96568 0)
(-0.0229051 9.67058 0)
(-0.0121801 9.18638 0)
(0.00133843 10.0005 0)
(0.00307448 10.0025 0)
(0.00375211 10.0058 0)
(0.00322011 10.0101 0)
(0.00121595 10.0154 0)
(-0.0023468 10.0221 0)
(-0.00760832 10.0306 0)
(-0.0146646 10.0417 0)
(-0.023434 10.056 0)
(-0.03366 10.0745 0)
(-0.0448553 10.098 0)
(-0.0562524 10.127 0)
(-0.0664412 10.162 0)
(-0.0747596 10.2022 0)
(-0.0817713 10.2464 0)
(-0.0870992 10.2941 0)
(-0.0904258 10.3439 0)
(-0.0914979 10.3928 0)
(-0.0901275 10.4357 0)
(-0.0861962 10.4628 0)
(-0.0796379 10.4588 0)
(-0.0704391 10.4037 0)
(-0.0584202 10.2814 0)
(-0.0442196 10.0842 0)
(-0.025569 9.7972 0)
(-0.0142911 9.31542 0)
(0.0011891 10.0004 0)
(0.00276119 10.0022 0)
(0.00327006 10.0053 0)
(0.00257221 10.0091 0)
(0.000364221 10.0138 0)
(-0.00351122 10.0195 0)
(-0.0092159 10.0271 0)
(-0.0168852 10.037 0)
(-0.0265765 10.0502 0)
(-0.0381249 10.0674 0)
(-0.0511353 10.0897 0)
(-0.0649266 10.118 0)
(-0.0784941 10.1529 0)
(-0.0900766 10.195 0)
(-0.0989286 10.2428 0)
(-0.105869 10.2953 0)
(-0.11054 10.3516 0)
(-0.112668 10.4102 0)
(-0.112062 10.4681 0)
(-0.108607 10.5197 0)
(-0.10226 10.5555 0)
(-0.0930417 10.5598 0)
(-0.0810028 10.5133 0)
(-0.0660886 10.3995 0)
(-0.0486515 10.2106 0)
(-0.0220518 9.92565 0)
(-0.0100142 9.38814 0)
(0.00106736 10.0004 0)
(0.00250004 10.002 0)
(0.0028708 10.0048 0)
(0.00204793 10.0083 0)
(-0.000307176 10.0124 0)
(-0.00441103 10.0173 0)
(-0.0105042 10.0237 0)
(-0.0187619 10.0324 0)
(-0.0292796 10.0442 0)
(-0.042048 10.06 0)
(-0.0567744 10.0809 0)
(-0.0728773 10.108 0)
(-0.0894386 10.1421 0)
(-0.105176 10.1839 0)
(-0.117941 10.2338 0)
(-0.126942 10.2903 0)
(-0.133338 10.3518 0)
(-0.136825 10.4173 0)
(-0.137204 10.4852 0)
(-0.134376 10.5522 0)
(-0.128326 10.6127 0)
(-0.119114 10.657 0)
(-0.106819 10.6696 0)
(-0.0916352 10.631 0)
(-0.0732608 10.5252 0)
(-0.0520535 10.342 0)
(-0.0170986 10.0848 0)
(-0.0015298 9.4404 0)
(0.000967153 10.0003 0)
(0.00228103 10.0018 0)
(0.00254106 10.0045 0)
(0.0016224 10.0076 0)
(-0.000835121 10.0112 0)
(-0.00509356 10.0154 0)
(-0.0114606 10.0208 0)
(-0.020218 10.0281 0)
(-0.0315194 10.0383 0)
(-0.0453868 10.0525 0)
(-0.0617033 10.0717 0)
(-0.0799991 10.097 0)
(-0.0994588 10.1297 0)
(-0.118881 10.1706 0)
(-0.136678 10.2203 0)
(-0.150287 10.2792 0)
(-0.158925 10.3453 0)
(-0.164184 10.4164 0)
(-0.165856 10.4915 0)
(-0.163861 10.5688 0)
(-0.158224 10.645 0)
(-0.14905 10.7143 0)
(-0.136488 10.7668 0)
(-0.120724 10.7872 0)
(-0.101791 10.7561 0)
(-0.0791199 10.6573 0)
(-0.0546186 10.4865 0)
(-0.0181161 10.2445 0)
(0.0038623 9.48347 0)
(0.00088389 10.0003 0)
(0.00209648 10.0017 0)
(0.00226367 10.0042 0)
(0.00127537 10.007 0)
(-0.00124919 10.0102 0)
(-0.00560526 10.0138 0)
(-0.0121484 10.0183 0)
(-0.0212503 10.0243 0)
(-0.0332041 10.0327 0)
(-0.0481083 10.045 0)
(-0.0658658 10.0622 0)
(-0.0862037 10.0855 0)
(-0.108425 10.1163 0)
(-0.131427 10.1556 0)
(-0.153691 10.2044 0)
(-0.173309 10.263 0)
(-0.187278 10.3317 0)
(-0.19489 10.408 0)
(-0.198299 10.4893 0)
(-0.197446 10.5743 0)
(-0.192399 10.6612 0)
(-0.183335 10.7463 0)
(-0.170477 10.824 0)
(-0.15409 10.8842 0)
(-0.134264 10.9118 0)
(-0.110865 10.8877 0)
(-0.0837104 10.7968 0)
(-0.0559123 10.643 0)
(-0.0205398 10.3997 0)
(0.00493976 9.52548 0)
(0.000814095 10.0003 0)
(0.00194035 10.0016 0)
(0.00203067 10.0039 0)
(0.000994331 10.0065 0)
(-0.00157332 10.0093 0)
(-0.00598353 10.0124 0)
(-0.0126276 10.0161 0)
(-0.0219437 10.0209 0)
(-0.0343421 10.0277 0)
(-0.0501006 10.0378 0)
(-0.0692172 10.0526 0)
(-0.0914181 10.0736 0)
(-0.116226 10.102 0)
(-0.142657 10.1391 0)
(-0.169281 10.1862 0)
(-0.194239 10.2439 0)
(-0.21527 10.3124 0)
(-0.22895 10.3918 0)
(-0.234741 10.4789 0)
(-0.235491 10.5707 0)
(-0.231329 10.6657 0)
(-0.222513 10.7619 0)
(-0.209371 10.8556 0)
(-0.192267 10.9411 0)
(-0.171456 11.0085 0)
(-0.146928 11.0429 0)
(-0.119233 11.0257 0)
(-0.0880901 10.9436 0)
(-0.0569012 10.8058 0)
(-0.0227148 10.5498 0)
(0.00454713 9.58016 0)
(0.000755111 10.0003 0)
(0.00180778 10.0015 0)
(0.00183517 10.0037 0)
(0.00076379 10.006 0)
(-0.00182607 10.0085 0)
(-0.00625826 10.0112 0)
(-0.0129468 10.0142 0)
(-0.0223772 10.018 0)
(-0.0350475 10.0233 0)
(-0.0513863 10.0313 0)
(-0.0716186 10.0433 0)
(-0.0955824 10.0614 0)
(-0.122767 10.0871 0)
(-0.15243 10.1215 0)
(-0.183256 10.1661 0)
(-0.213453 10.222 0)
(-0.240772 10.2897 0)
(-0.262644 10.3691 0)
(-0.275227 10.4598 0)
(-0.278279 10.5582 0)
(-0.275468 10.6606 0)
(-0.267161 10.7654 0)
(-0.25382 10.8706 0)
(-0.235948 10.9724 0)
(-0.213972 11.0651 0)
(-0.188131 11.139 0)
(-0.158908 11.1799 0)
(-0.127515 11.1692 0)
(-0.0930955 11.0966 0)
(-0.0586393 10.9701 0)
(-0.0250165 10.7115 0)
(0.00349289 9.6446 0)
(0.000704885 10.0002 0)
(0.00169482 10.0014 0)
(0.00166988 10.0035 0)
(0.000574074 10.0057 0)
(-0.00202293 10.0079 0)
(-0.00645316 10.0101 0)
(-0.0131443 10.0125 0)
(-0.0226142 10.0154 0)
(-0.0354243 10.0194 0)
(-0.0521167 10.0255 0)
(-0.073109 10.0349 0)
(-0.0985221 10.0496 0)
(-0.12797 10.0718 0)
(-0.160626 10.1031 0)
(-0.19544 10.1446 0)
(-0.230716 10.1979 0)
(-0.264247 10.2637 0)
(-0.293422 10.3423 0)
(-0.315383 10.4333 0)
(-0.325911 10.5361 0)
(-0.325185 10.6459 0)
(-0.317841 10.7588 0)
(-0.304514 10.8732 0)
(-0.285892 10.9867 0)
(-0.262615 11.0959 0)
(-0.235173 11.1952 0)
(-0.204201 11.2753 0)
(-0.170645 11.322 0)
(-0.13587 11.3172 0)
(-0.0987118 11.2531 0)
(-0.0615292 11.1524 0)
(-0.02744 10.8851 0)
(0.00189058 9.71736 0)
(0.000661782 10.0002 0)
(0.0015982 10.0013 0)
(0.00153001 10.0033 0)
(0.000417662 10.0053 0)
(-0.00217593 10.0073 0)
(-0.00658695 10.0092 0)
(-0.0132504 10.0111 0)
(-0.0227049 10.0132 0)
(-0.0355557 10.016 0)
(-0.0524282 10.0204 0)
(-0.0738866 10.0274 0)
(-0.100294 10.0389 0)
(-0.131611 10.0569 0)
(-0.16714 10.084 0)
(-0.20568 10.122 0)
(-0.245815 10.1719 0)
(-0.285409 10.2349 0)
(-0.32185 10.3117 0)
(-0.352183 10.4023 0)
(-0.373299 10.5056 0)
(-0.380665 10.6206 0)
(-0.375034 10.742 0)
(-0.36214 10.8652 0)
(-0.342914 10.9885 0)
(-0.318263 11.1097 0)
(-0.288965 11.2256 0)
(-0.255845 11.3308 0)
(-0.219975 11.4163 0)
(-0.182354 11.4678 0)
(-0.144226 11.4677 0)
(-0.105079 11.4296 0)
(-0.0652207 11.3512 0)
(-0.0300078 11.0531 0)
(0.000134154 9.79631 0)
(0.000624806 10.0002 0)
(0.00151505 10.0013 0)
(0.0014117 10.0031 0)
(0.00028779 10.005 0)
(-0.00229461 10.0068 0)
(-0.00667435 10.0084 0)
(-0.0132889 10.0098 0)
(-0.0226885 10.0112 0)
(-0.0355075 10.013 0)
(-0.05243 10.0158 0)
(-0.0741288 10.0208 0)
(-0.101154 10.0293 0)
(-0.133767 10.0433 0)
(-0.17169 10.0654 0)
(-0.21384 10.0985 0)
(-0.258554 10.1444 0)
(-0.303996 10.2038 0)
(-0.347588 10.2778 0)
(-0.386308 10.3667 0)
(-0.41689 10.47 0)
(-0.436054 10.5861 0)
(-0.439032 10.7136 0)
(-0.427311 10.8463 0)
(-0.407839 10.9791 0)
(-0.381861 11.1107 0)
(-0.350506 11.239 0)
(-0.314862 11.3608 0)
(-0.276137 11.4711 0)
(-0.235564 11.5609 0)
(-0.194012 11.6155 0)
(-0.153324 11.6373 0)
(-0.111901 11.6245 0)
(-0.0692278 11.5449 0)
(-0.0324692 11.2152 0)
(-0.00157305 9.87958 0)
(0.00144263 10.0012 0)
(0.000580746 10.0002 0)
(0.00131009 10.003 0)
(0.000179719 10.0048 0)
(-0.00238637 10.0064 0)
(-0.00672687 10.0077 0)
(-0.0132783 10.0087 0)
(-0.0225958 10.0094 0)
(-0.0353311 10.0103 0)
(-0.052208 10.0118 0)
(-0.0739777 10.0149 0)
(-0.10133 10.0207 0)
(-0.134764 10.031 0)
(-0.174367 10.0483 0)
(-0.219557 10.0755 0)
(-0.268759 10.1158 0)
(-0.319766 10.1708 0)
(-0.370313 10.2409 0)
(-0.417358 10.3271 0)
(-0.457497 10.429 0)
(-0.487219 10.5456 0)
(-0.503173 10.6748 0)
(-0.500452 10.8147 0)
(-0.481431 10.9583 0)
(-0.454387 11.1003 0)
(-0.420885 11.2393 0)
(-0.382377 11.3737 0)
(-0.340306 11.5006 0)
(-0.296052 11.6148 0)
(-0.250862 11.7073 0)
(-0.206701 11.7816 0)
(-0.162944 11.8249 0)
(-0.118413 11.8161 0)
(-0.0731861 11.7322 0)
(-0.0347221 11.371 0)
(-0.00309048 9.96536 0)
(0.00122123 10.0029 0)
(0.00135873 10.0012 0)
(0.000527948 10.0002 0)
(8.94945e-05 10.0045 0)
(-0.00245655 10.006 0)
(-0.00675325 10.0071 0)
(-0.0132328 10.0077 0)
(-0.0224503 10.0079 0)
(-0.0350662 10.008 0)
(-0.0518295 10.0083 0)
(-0.073545 10.0096 0)
(-0.101006 10.013 0)
(-0.13489 10.0201 0)
(-0.175578 10.0329 0)
(-0.222934 10.0543 0)
(-0.275964 10.0876 0)
(-0.332492 10.1362 0)
(-0.389727 10.2017 0)
(-0.444943 10.2839 0)
(-0.49465 10.3833 0)
(-0.535121 10.4991 0)
(-0.562693 10.6295 0)
(-0.574061 10.7719 0)
(-0.564282 10.9239 0)
(-0.536778 11.0777 0)
(-0.501248 11.2279 0)
(-0.459631 11.3736 0)
(-0.413732 11.5131 0)
(-0.365202 11.6438 0)
(-0.31545 11.7605 0)
(-0.267329 11.8716 0)
(-0.219984 11.965 0)
(-0.171984 12.0103 0)
(-0.124431 12.0025 0)
(-0.076902 11.9119 0)
(-0.0367344 11.5204 0)
(-0.00447276 10.052 0)
(9.25352e-06 10.0043 0)
(0.00112691 10.0027 0)
(0.00125623 10.0011 0)
(0.000477653 10.0002 2.03295e-19)
(-0.00251056 10.0057 0)
(-0.00675981 10.0065 0)
(-0.0131632 10.0068 0)
(-0.0222701 10.0065 0)
(-0.0347434 10.0059 0)
(-0.051346 10.0052 0)
(-0.0729181 10.005 0)
(-0.100326 10.0063 0)
(-0.134381 10.0103 0)
(-0.17569 10.0191 0)
(-0.224475 10.0351 0)
(-0.280275 10.0615 0)
(-0.341581 10.102 0)
(-0.40554 10.1605 0)
(-0.468696 10.2378 0)
(-0.527888 10.3333 0)
(-0.579218 10.4469 0)
(-0.61872 10.5772 0)
(-0.642698 10.7217 0)
(-0.648022 10.8771 0)
(-0.629828 11.0406 0)
(-0.592734 11.2038 0)
(-0.547956 11.3613 0)
(-0.497818 11.5124 0)
(-0.444372 11.6559 0)
(-0.389354 11.789 0)
(-0.336241 11.924 0)
(-0.284465 12.0531 0)
(-0.232267 12.1461 0)
(-0.180269 12.1912 0)
(-0.129842 12.1822 0)
(-0.0802632 12.0837 0)
(-0.0384605 11.6629 0)
(-0.00569746 10.1379 0)
(-0.00256071 10.0054 0)
(-5.97068e-05 10.0041 0)
(0.00101886 10.0026 9.08034e-19)
(0.00115842 10.001 -6.44156e-19)
(0.000429692 10.0001 -4.05457e-19)
(-0.0067524 10.006 0)
(-0.0130768 10.006 0)
(-0.0220686 10.0054 0)
(-0.034386 10.0041 0)
(-0.0507972 10.0024 0)
(-0.0721642 10.0009 0)
(-0.0994027 10.0002 0)
(-0.13342 10.0016 0)
(-0.174995 10.0067 0)
(-0.224633 10.0178 0)
(-0.282305 10.0379 0)
(-0.347126 10.0704 0)
(-0.416996 10.1195 0)
(-0.488254 10.1891 0)
(-0.556762 10.2796 0)
(-0.618965 10.3897 0)
(-0.670634 10.5183 0)
(-0.707676 10.6635 0)
(-0.726498 10.8222 0)
(-0.724286 10.9902 0)
(-0.696371 11.1643 0)
(-0.64871 11.336 0)
(-0.594095 11.4996 0)
(-0.535141 11.655 0)
(-0.474037 11.801 0)
(-0.415161 11.9522 0)
(-0.357842 12.1046 0)
(-0.300219 12.2322 0)
(-0.24339 12.3229 0)
(-0.18768 12.3662 0)
(-0.134596 12.3544 0)
(-0.0832186 12.2472 0)
(-0.0399029 11.7984 0)
(-0.00675705 10.2221 0)
(-0.0067501 10.0056 0)
(-0.00256798 10.005 -1.94055e-18)
(-0.00012263 10.0038 -9.57835e-19)
(0.000916478 10.0024 4.53022e-19)
(0.00106366 10.001 -4.28148e-19)
(0.00038412 10.0001 0)
(-0.0129799 10.0054 0)
(-0.0218546 10.0043 0)
(-0.0340107 10.0025 0)
(-0.0502131 10 0)
(-0.0713343 9.99728 0)
(-0.0983222 9.99492 0)
(-0.132151 9.99393 0)
(-0.173728 9.99575 0)
(-0.223775 10.0024 0)
(-0.282607 10.0165 0)
(-0.34986 10.0415 0)
(-0.424155 10.0814 0)
(-0.502658 10.1405 0)
(-0.580822 10.2227 0)
(-0.653825 10.3279 0)
(-0.717802 10.4535 0)
(-0.768298 10.5979 0)
(-0.801228 10.7582 0)
(-0.813257 10.9307 0)
(-0.802036 11.1106 0)
(-0.7632 11.2945 0)
(-0.704156 11.4734 0)
(-0.639245 11.6419 0)
(-0.571265 11.8 0)
(-0.505686 11.9641 0)
(-0.441937 12.1327 0)
(-0.377655 12.283 0)
(-0.314445 12.4071 0)
(-0.25326 12.4942 0)
(-0.194177 12.5344 0)
(-0.138686 12.5186 0)
(-0.0857584 12.4021 0)
(-0.0410853 11.9268 0)
(-0.00765662 10.3036 0)
(-0.0129016 10.0048 0)
(-0.00665765 10.0051 4.09236e-18)
(-0.00252509 10.0046 0)
(-0.000181134 10.0035 9.55367e-19)
(0.000820554 10.0022 1.51578e-22)
(0.000972817 10.0009 0)
(0.000340963 10.0001 0)
(-0.0216344 10.0034 0)
(-0.0336282 10.001 0)
(-0.0496154 9.99785 0)
(-0.0704674 9.99408 0)
(-0.0971508 9.99021 0)
(-0.130686 9.98709 0)
(-0.172071 9.98596 0)
(-0.222192 9.9886 0)
(-0.281635 9.9974 0)
(-0.350456 10.0155 0)
(-0.427882 10.0466 0)
(-0.511904 10.0951 0)
(-0.59886 10.1657 0)
(-0.683247 10.2621 0)
(-0.759593 10.3832 0)
(-0.823846 10.5252 0)
(-0.871456 10.6858 0)
(-0.898507 10.8612 0)
(-0.902082 11.047 0)
(-0.880437 11.2379 0)
(-0.829612 11.4303 0)
(-0.758527 11.6151 0)
(-0.682982 11.7868 0)
(-0.609804 11.9634 0)
(-0.538515 12.1449 0)
(-0.466454 12.3111 0)
(-0.39552 12.4573 0)
(-0.327057 12.5765 0)
(-0.26186 12.659 0)
(-0.199767 12.6952 0)
(-0.142139 12.6744 0)
(-0.0878965 12.5484 0)
(-0.0420348 12.0479 0)
(-0.00840868 10.3819 0)
(-0.0214519 10.0026 0)
(-0.0126647 10.0041 3.98754e-22)
(-0.00644104 10.0045 0)
(-0.00248131 10.0042 -1.00739e-18)
(-0.000230567 10.0032 1.03177e-22)
(0.000730644 10.0021 0)
(0.00088561 10.0008 0)
(0.000300237 10.0001 0)
(-0.0332452 9.99979 0)
(-0.0490167 9.99596 0)
(-0.0695912 9.99124 0)
(-0.0959386 9.98604 0)
(-0.129109 9.98103 0)
(-0.170165 9.97727 0)
(-0.220113 9.97631 0)
(-0.279749 9.98029 0)
(-0.349461 9.99202 0)
(-0.428979 10.0151 0)
(-0.516996 10.0536 0)
(-0.61077 10.1123 0)
(-0.705718 10.1959 0)
(-0.795336 10.308 0)
(-0.873577 10.446 0)
(-0.936362 10.6052 0)
(-0.979212 10.7822 0)
(-0.998554 10.9724 0)
(-0.992041 11.1706 0)
(-0.958658 11.3714 0)
(-0.894927 11.5709 0)
(-0.811289 11.7598 0)
(-0.729685 11.9506 0)
(-0.649804 12.1448 0)
(-0.568578 12.3239 0)
(-0.488548 12.4856 0)
(-0.411358 12.6263 0)
(-0.338051 12.7396 0)
(-0.269229 12.8167 0)
(-0.204488 12.8481 0)
(-0.144992 12.8218 0)
(-0.0896561 12.6861 0)
(-0.0427802 12.1618 0)
(-0.00902893 10.4566 0)
(-0.0329257 9.99868 0)
(-0.0210146 10.0016 -2.27361e-18)
(-0.0121901 10.0033 0)
(-0.00623029 10.0039 0)
(-0.00242406 10.0038 3.01308e-18)
(-0.000271237 10.003 0)
(0.000646916 10.0019 0)
(0.000802273 10.0007 8.46661e-19)
(0.000261974 10.0001 0)
(-0.0484242 9.99428 0)
(-0.0687215 9.98874 0)
(-0.0947214 9.98235 0)
(-0.127484 9.97566 0)
(-0.168118 9.96956 0)
(-0.217716 9.96539 0)
(-0.277233 9.96502 0)
(-0.347318 9.971 0)
(-0.428106 9.9866 0)
(-0.518881 10.0158 0)
(-0.617699 10.0632 0)
(-0.720983 10.1336 0)
(-0.823159 10.2319 0)
(-0.916696 10.3609 0)
(-0.995098 10.517 0)
(-1.05446 10.6938 0)
(-1.09056 10.887 0)
(-1.10035 11.0913 0)
(-1.08219 11.301 0)
(-1.0359 11.5103 0)
(-0.95849 11.7151 0)
(-0.867717 11.9238 0)
(-0.778215 12.1327 0)
(-0.686461 12.3247 0)
(-0.595684 12.4992 0)
(-0.508144 12.655 0)
(-0.425175 12.7891 0)
(-0.347481 12.8959 0)
(-0.275436 12.9668 0)
(-0.208401 12.9928 0)
(-0.147297 12.9606 0)
(-0.0910704 12.8153 0)
(-0.0433493 12.2686 0)
(-0.00953438 10.5273 0)
(-0.0479296 9.99279 0)
(-0.032219 9.99744 0)
(-0.0201745 10.0006 -2.36589e-18)
(-0.011734 10.0025 -2.23902e-18)
(-0.00600037 10.0034 -4.23496e-18)
(-0.00235278 10.0034 0)
(-0.000303084 10.0027 -1.89115e-18)
(0.000569485 10.0017 -1.78576e-18)
(0.000722825 10.0007 8.42642e-19)
(0.000226106 10.0001 0)
(-0.0678653 9.98652 0)
(-0.0935183 9.97909 0)
(-0.125857 9.97091 0)
(-0.166011 9.96272 0)
(-0.215138 9.95568 0)
(-0.27431 9.95142 0)
(-0.344377 9.95222 0)
(-0.425799 9.96104 0)
(-0.518343 9.98161 0)
(-0.620747 10.0183 0)
(-0.73033 10.0761 0)
(-0.842594 10.1599 0)
(-0.950902 10.2743 0)
(-1.04673 10.4216 0)
(-1.1233 10.5965 0)
(-1.17712 10.7911 0)
(-1.20442 11.0001 0)
(-1.20284 11.2176 0)
(-1.17161 11.4375 0)
(-1.11138 11.6535 0)
(-1.02671 11.8792 0)
(-0.926486 12.1069 0)
(-0.822742 12.3139 0)
(-0.719538 12.5013 0)
(-0.619751 12.6696 0)
(-0.525262 12.8184 0)
(-0.437048 12.9452 0)
(-0.355442 13.0447 0)
(-0.280573 13.1092 0)
(-0.211579 13.1294 0)
(-0.149114 13.091 0)
(-0.092175 12.9363 0)
(-0.0437686 12.3686 0)
(-0.0099409 10.5941 0)
(-0.0671524 9.98456 0)
(-0.0468697 9.99117 -2.5273e-18)
(-0.0308778 9.99609 2.49221e-18)
(-0.0193741 9.99957 -1.0464e-21)
(-0.0112493 10.0018 2.23156e-18)
(-0.00574994 10.0028 2.11005e-18)
(-0.00226911 10.003 3.98746e-18)
(-0.000325995 10.0025 2.82422e-18)
(0.000498185 10.0016 -8.88624e-19)
(0.000647347 10.0006 0)
(0.000192699 10.0001 0)
(-0.0923373 9.97619 0)
(-0.124253 9.96669 0)
(-0.163904 9.95666 0)
(-0.212481 9.94706 0)
(-0.271149 9.93932 0)
(-0.340912 9.93546 0)
(-0.422482 9.93816 0)
(-0.516021 9.95083 0)
(-0.620836 9.97764 0)
(-0.735023 10.0234 0)
(-0.855062 10.0932 0)
(-0.975443 10.1921 0)
(-1.08846 10.3241 0)
(-1.18465 10.4908 0)
(-1.25717 10.685 0)
(-1.30322 10.8972 0)
(-1.31965 11.1213 0)
(-1.30498 11.3509 0)
(-1.25936 11.5791 0)
(-1.19275 11.8173 0)
(-1.09804 12.0633 0)
(-0.980559 12.2897 0)
(-0.862976 12.4922 0)
(-0.748937 12.6732 0)
(-0.640806 12.8342 0)
(-0.539996 12.9751 0)
(-0.447091 13.0939 0)
(-0.362052 13.1859 0)
(-0.284742 13.2436 0)
(-0.2141 13.2578 0)
(-0.150503 13.2133 0)
(-0.0930104 13.0494 0)
(-0.044061 12.4618 0)
(-0.0102636 10.6568 0)
(-0.091358 9.97362 0)
(-0.0656381 9.98246 -3.20161e-21)
(-0.044859 9.98943 0)
(-0.0296091 9.99478 -1.71956e-21)
(-0.0185333 9.99859 0)
(-0.0107366 10.001 -2.22353e-18)
(-0.00548041 10.0023 -4.20292e-18)
(-0.00217204 10.0026 3.60097e-23)
(-0.00034009 10.0022 1.87357e-18)
(0.000433046 10.0015 -8.83879e-19)
(0.000575754 10.0006 8.33515e-19)
(0.000161765 10.0001 0)
(-0.122679 9.96295 0)
(-0.161825 9.95128 0)
(-0.20982 9.93941 0)
(-0.26788 9.92857 0)
(-0.337134 9.92053 0)
(-0.418492 9.9177 0)
(-0.512429 9.92321 0)
(-0.618723 9.94092 0)
(-0.73613 9.97544 0)
(-0.861996 10.0319 0)
(-0.991863 10.1155 0)
(-1.11917 10.231 0)
(-1.23514 10.3821 0)
(-1.32949 10.5689 0)
(-1.39559 10.7825 0)
(-1.43156 11.0118 0)
(-1.43512 11.2501 0)
(-1.40574 11.49 0)
(-1.35442 11.742 0)
(-1.27822 12.0022 0)
(-1.16394 12.248 0)
(-1.02959 12.4701 0)
(-0.898817 12.6661 0)
(-0.774691 12.8394 0)
(-0.658958 12.9922 0)
(-0.552486 13.1246 0)
(-0.45545 13.2352 0)
(-0.36744 13.3194 0)
(-0.288053 13.3702 0)
(-0.216045 13.3783 0)
(-0.151521 13.3276 0)
(-0.0936134 13.1549 0)
(-0.0442476 12.5488 0)
(-0.0105158 10.7155 0)
(-0.121381 9.95964 0)
(-0.089268 9.97092 2.8025e-18)
(-0.0627508 9.98024 -2.76943e-18)
(-0.0429688 9.98776 2.61834e-18)
(-0.0282851 9.99352 0)
(-0.0176516 9.99765 0)
(-0.0101961 10.0003 2.2144e-18)
(-0.00519309 10.0018 -2.09174e-18)
(-0.00206214 10.0023 6.61318e-23)
(-0.000345353 10.002 9.31912e-19)
(0.000373899 10.0013 -8.78916e-19)
(0.000507922 10.0005 -8.27663e-19)
(0.000133251 10.0001 0)
(-0.159785 9.94651 0)
(-0.207192 9.93261 0)
(-0.264599 9.91901 0)
(-0.333206 9.90724 0)
(-0.414088 9.89945 0)
(-0.507972 9.89847 0)
(-0.615019 9.90789 0)
(-0.734535 9.93203 0)
(-0.864619 9.97587 0)
(-1.00176 10.0447 0)
(-1.1405 10.1439 0)
(-1.2732 10.2776 0)
(-1.39007 10.4488 0)
(-1.48014 10.6563 0)
(-1.53731 10.8892 0)
(-1.56092 11.135 0)
(-1.54967 11.3857 0)
(-1.5155 11.6512 0)
(-1.45481 11.9272 0)
(-1.35757 12.1889 0)
(-1.22394 12.4313 0)
(-1.07341 12.6468 0)
(-0.930303 12.8347 0)
(-0.796924 12.9993 0)
(-0.674374 13.1431 0)
(-0.562911 13.2667 0)
(-0.462285 13.3687 0)
(-0.371742 13.4451 0)
(-0.290609 13.489 0)
(-0.217491 13.4911 0)
(-0.152222 13.4343 0)
(-0.0940198 13.2533 0)
(-0.0443469 12.6297 0)
(-0.0107098 10.7703 0)
(-0.158115 9.94227 0)
(-0.118573 9.9562 0)
(-0.0852525 9.96813 2.91282e-18)
(-0.060051 9.97812 -5.5244e-18)
(-0.0410037 9.98616 5.22563e-18)
(-0.0269044 9.99232 -4.94093e-18)
(-0.0167324 9.99676 0)
(-0.00962989 9.99968 2.20497e-18)
(-0.00488685 10.0013 -2.0813e-18)
(-0.00193951 10.0019 -1.96453e-18)
(-0.000341553 10.0018 0)
(0.000320541 10.0012 8.72718e-19)
(0.000444357 10.0005 0)
(0.000107734 10 0)
(-0.204611 9.92658 0)
(-0.261348 9.91052 0)
(-0.329246 9.89542 0)
(-0.409473 9.88318 0)
(-0.50297 9.87636 0)
(-0.610212 9.87824 0)
(-0.730961 9.89287 0)
(-0.863955 9.92501 0)
(-1.00652 9.97992 0)
(-1.15422 10.063 0)
(-1.30054 10.1794 0)
(-1.43676 10.3328 0)
(-1.5522 10.525 0)
(-1.6354 10.7535 0)
(-1.68107 11.0052 0)
(-1.69005 11.2659 0)
(-1.67524 11.5443 0)
(-1.63216 11.8361 0)
(-1.54858 12.1155 0)
(-1.43019 12.3751 0)
(-1.27778 12.6114 0)
(-1.11204 12.8185 0)
(-0.957582 12.9971 0)
(-0.815849 13.1521 0)
(-0.687263 13.2865 0)
(-0.571463 13.401 0)
(-0.467764 13.4946 0)
(-0.375093 13.5632 0)
(-0.292515 13.6003 0)
(-0.218512 13.5964 0)
(-0.152657 13.5337 0)
(-0.0942607 13.3447 0)
(-0.0443755 12.7049 0)
(-0.010855 10.8215 0)
(-0.202515 9.92123 0)
(-0.154428 9.93792 0)
(-0.113131 9.95269 0)
(-0.0815192 9.96546 5.80989e-18)
(-0.0572534 9.97611 -5.49928e-18)
(-0.0389632 9.98465 5.20087e-18)
(-0.0254737 9.99119 0)
(-0.0157776 9.99592 -2.32236e-18)
(-0.00903781 9.99905 0)
(-0.00456315 10.0009 2.07004e-18)
(-0.0018055 10.0016 0)
(-0.000328186 10.0016 0)
(0.000272953 10.0011 0)
(0.000386178 10.0004 8.43707e-19)
(8.52665e-05 10 4.06398e-19)
(-0.258152 9.90297 0)
(-0.325307 9.8849 0)
(-0.404792 9.86869 0)
(-0.497671 9.85663 0)
(-0.604687 9.85169 0)
(-0.725988 9.85765 0)
(-0.860845 9.87899 0)
(-1.00731 9.92085 0)
(-1.16187 9.98869 0)
(-1.31906 10.0879 0)
(-1.47132 10.2231 0)
(-1.60892 10.3974 0)
(-1.72035 10.6112 0)
(-1.79396 10.8606 0)
(-1.82555 11.1299 0)
(-1.83261 11.4205 0)
(-1.80968 11.7279 0)
(-1.74189 12.0257 0)
(-1.63494 12.3048 0)
(-1.49572 12.5593 0)
(-1.32543 12.7873 0)
(-1.14562 12.9844 0)
(-0.980885 13.1527 0)
(-0.831725 13.2976 0)
(-0.697863 13.4223 0)
(-0.578347 13.5278 0)
(-0.472053 13.6129 0)
(-0.377618 13.6739 0)
(-0.293866 13.7044 0)
(-0.219173 13.6947 0)
(-0.15287 13.6263 0)
(-0.0943651 13.4298 0)
(-0.0443468 12.7747 0)
(-0.0109591 10.8691 0)
(-0.255583 9.89627 0)
(-0.197764 9.91577 0)
(-0.147212 9.93355 6.47431e-18)
(-0.108099 9.94936 6.13254e-18)
(-0.077658 9.96294 5.80215e-18)
(-0.0543575 9.97421 -5.48653e-18)
(-0.036857 9.98322 0)
(-0.0239949 9.99012 0)
(-0.0147881 9.99513 0)
(-0.00842159 9.99847 4.36391e-18)
(-0.00422337 10.0004 2.05824e-18)
(-0.00165876 10.0013 1.93905e-18)
(-0.000307137 10.0014 0)
(0.000232479 10.001 -8.89553e-19)
(0.000333653 10.0004 -4.29244e-19)
(6.53976e-05 10 0)
(-0.321426 9.87555 0)
(-0.400112 9.85579 0)
(-0.492255 9.83902 0)
(-0.598749 9.82796 0)
(-0.720076 9.82605 0)
(-0.855973 9.83751 0)
(-1.00511 9.86725 0)
(-1.16477 9.92067 0)
(-1.33049 10.0033 0)
(-1.49578 10.1204 0)
(-1.65202 10.276 0)
(-1.78855 10.4721 0)
(-1.8933 10.7079 0)
(-1.95449 10.9773 0)
(-1.98631 11.279 0)
(-1.98649 11.6016 0)
(-1.93717 11.9181 0)
(-1.84373 12.2178 0)
(-1.71342 12.4932 0)
(-1.55407 12.7401 0)
(-1.36703 12.9579 0)
(-1.1744 13.1438 0)
(-1.0005 13.301 0)
(-0.844835 13.4354 0)
(-0.706419 13.5504 0)
(-0.583762 13.6469 0)
(-0.47531 13.7238 0)
(-0.379438 13.7775 0)
(-0.294749 13.8015 0)
(-0.219534 13.7862 0)
(-0.152903 13.7124 0)
(-0.0943577 13.5087 0)
(-0.0442713 12.8394 0)
(-0.0110317 10.9133 0)
(-0.318344 9.86724 0)
(-0.249559 9.88947 0)
(-0.18837 9.91035 -1.36215e-17)
(-0.140567 9.92941 1.67383e-20)