/*--------------------------------*- C++ -*----------------------------------*\
  =========                 |
  \\      /  F ield         | OpenFOAM: The Open Source CFD Toolbox
   \\    /   O peration     | Website:  https://openfoam.org
    \\  /    A nd           | Version:  8
     \\/     M anipulation  |
\*---------------------------------------------------------------------------*/
FoamFile
{
    version     2.0;
    format      ascii;
    class       surfaceScalarField;
    location    "0.18";
    object      phi;
}
// * * * * * * * * * * * * * * * * * * * * * * * * * * * * * * * * * * * * * //

dimensions      [0 3 -1 0 0 0 0];

internalField   nonuniform List<scalar> 
31053
(
6.27696e-07
1.27523e-05
8.49566e-07
1.51581e-05
3.7622e-07
1.23761e-05
9.32245e-07
1.75573e-05
5.88686e-07
1.49457e-05
2.69488e-07
1.21066e-05
9.55871e-07
2.02164e-05
7.06785e-07
1.74392e-05
4.64533e-07
1.47506e-05
2.15983e-07
1.18906e-05
9.4685e-07
2.3249e-05
7.66222e-07
2.01569e-05
5.89867e-07
1.73139e-05
3.96114e-07
1.45705e-05
1.72577e-07
1.1718e-05
9.16873e-07
2.669e-05
7.91198e-07
2.3224e-05
6.64829e-07
2.0082e-05
5.23611e-07
1.71864e-05
3.3343e-07
1.44096e-05
1.3802e-07
1.158e-05
8.71437e-07
3.06654e-05
7.93908e-07
2.66873e-05
7.06749e-07
2.31821e-05
6.04851e-07
2.00007e-05
4.55898e-07
1.70639e-05
2.78727e-07
1.42689e-05
1.10879e-07
1.14691e-05
8.13945e-07
3.51975e-05
7.81254e-07
3.06781e-05
7.26493e-07
2.66675e-05
6.53269e-07
2.31337e-05
5.37238e-07
1.99194e-05
3.91847e-07
1.69508e-05
2.31672e-07
1.41481e-05
8.84247e-08
1.13807e-05
7.47236e-07
4.03867e-05
7.57041e-07
3.52217e-05
7.30372e-07
3.06742e-05
6.7889e-07
2.66419e-05
5.86469e-07
2.30845e-05
4.6925e-07
1.9842e-05
3.3304e-07
1.68494e-05
1.89603e-07
1.4047e-05
6.87331e-08
1.1312e-05
6.73026e-07
4.63542e-05
7.23206e-07
4.04205e-05
7.2163e-07
3.52304e-05
6.87674e-07
3.06654e-05
6.12611e-07
2.66158e-05
5.15801e-07
2.30379e-05
4.03714e-07
1.97713e-05
2.77277e-07
1.67618e-05
1.50594e-07
1.39651e-05
5.06489e-08
1.12613e-05
5.92994e-07
5.322e-05
6.81801e-07
4.63956e-05
7.01484e-07
4.04407e-05
6.83145e-07
3.5235e-05
6.21637e-07
3.06564e-05
5.39131e-07
2.65924e-05
4.45021e-07
2.29966e-05
3.38727e-07
1.97099e-05
2.2299e-07
1.66894e-05
1.13365e-07
1.39024e-05
3.34023e-08
1.12279e-05
5.09071e-07
6.10639e-05
6.34485e-07
5.32673e-05
6.71216e-07
4.64259e-05
6.67651e-07
4.04562e-05
6.17056e-07
3.52396e-05
5.45025e-07
3.06505e-05
4.63037e-07
2.65744e-05
3.72394e-07
2.2963e-05
2.72935e-07
1.96599e-05
1.69121e-07
1.66336e-05
7.6984e-08
1.38588e-05
1.6484e-08
1.12114e-05
4.23776e-07
7.00673e-05
5.82775e-07
6.11156e-05
6.31921e-07
5.33066e-05
6.41849e-07
4.64517e-05
6.00998e-07
4.04722e-05
5.3697e-07
3.52476e-05
4.6313e-07
3.06504e-05
3.827e-07
2.65641e-05
2.96615e-07
2.29393e-05
2.05397e-07
1.96236e-05
1.14881e-07
1.65957e-05
4.07594e-08
1.38345e-05
-2.61448e-10
1.12117e-05
3.40821e-07
8.0415e-05
5.27713e-07
7.01224e-05
5.84808e-07
6.11627e-05
6.06095e-07
5.33424e-05
5.74485e-07
4.64782e-05
5.16915e-07
4.04923e-05
4.48671e-07
3.52621e-05
3.74429e-07
3.06587e-05
2.96834e-07
2.65639e-05
2.16767e-07
2.29279e-05
1.3544e-07
1.96031e-05
5.96365e-08
1.65768e-05
4.31707e-09
1.38299e-05
-1.71139e-08
1.12288e-05
2.77255e-07
7.62536e-05
4.69358e-07
8.04733e-05
5.31238e-07
7.01759e-05
5.6078e-07
6.12081e-05
5.37882e-07
5.3379e-05
4.85829e-07
4.65093e-05
4.21504e-07
4.05195e-05
3.5077e-07
3.52857e-05
2.77672e-07
3.06778e-05
2.04509e-07
2.65761e-05
1.32185e-07
2.29312e-05
6.25295e-08
1.96002e-05
3.10578e-09
1.6578e-05
-3.25701e-08
1.38454e-05
-3.4205e-08
1.1263e-05
2.2637e-07
7.62409e-05
4.16941e-07
7.6306e-05
4.72598e-07
8.05319e-05
5.06527e-07
7.02302e-05
4.91367e-07
6.12546e-05
4.44067e-07
5.34208e-05
3.82493e-07
4.65483e-05
3.13457e-07
4.05568e-05
2.42046e-07
3.53214e-05
1.71907e-07
3.07104e-05
1.05011e-07
2.66033e-05
4.23382e-08
2.29513e-05
-1.35296e-08
1.96168e-05
-5.4984e-08
1.66005e-05
-7.00486e-08
1.38812e-05
-5.15483e-08
1.13146e-05
1.85843e-07
7.62305e-05
3.67799e-07
7.629e-05
4.20322e-07
7.63583e-05
4.44445e-07
8.0594e-05
4.35212e-07
7.02863e-05
3.91768e-07
6.13069e-05
3.31919e-07
5.34713e-05
2.6323e-07
4.65985e-05
1.91523e-07
4.06073e-05
1.21524e-07
3.53717e-05
5.63525e-08
3.07591e-05
-2.20629e-09
2.66479e-05
-5.28684e-08
2.29907e-05
-9.27839e-08
1.96546e-05
-1.14445e-07
1.66449e-05
-1.08021e-07
1.39377e-05
-6.89612e-08
1.13835e-05
1.53244e-07
7.62246e-05
3.22209e-07
7.62761e-05
3.714e-07
7.63389e-05
3.87965e-07
7.64147e-05
3.70086e-07
8.06592e-05
3.29123e-07
7.0349e-05
2.69862e-07
6.13689e-05
2.00268e-07
5.35343e-05
1.2669e-07
4.66634e-05
5.46885e-08
4.06741e-05
-1.16614e-08
3.54398e-05
-6.95436e-08
3.08264e-05
-1.17179e-07
2.67122e-05
-1.53337e-07
2.30512e-05
-1.74865e-07
1.9715e-05
-1.75055e-07
1.67119e-05
-1.46207e-07
1.4015e-05
-8.63115e-08
1.14698e-05
1.26761e-07
7.62165e-05
2.80506e-07
7.62663e-05
3.25891e-07
7.63216e-05
3.34546e-07
7.63924e-05
3.09801e-07
7.6475e-05
2.56746e-07
8.07315e-05
1.9646e-07
7.04224e-05
1.24601e-07
6.14446e-05
4.75973e-08
5.36134e-05
-2.82092e-08
4.67463e-05
-9.7996e-08
4.07605e-05
-1.58072e-07
3.55283e-05
-2.05825e-07
3.09151e-05
-2.39696e-07
2.67985e-05
-2.58474e-07
2.31348e-05
-2.59227e-07
1.97992e-05
-2.36268e-07
1.6802e-05
-1.84238e-07
1.41129e-05
-1.03343e-07
1.15732e-05
1.0507e-07
7.62117e-05
2.42704e-07
7.62543e-05
2.83828e-07
7.63084e-05
2.84617e-07
7.63716e-05
2.52218e-07
7.645e-05
1.89832e-07
7.65419e-05
1.12345e-07
8.08157e-05
3.63574e-08
7.05106e-05
-4.57898e-08
6.1538e-05
-1.27289e-07
5.37125e-05
-2.02529e-07
4.68508e-05
-2.67136e-07
4.08695e-05
-3.17756e-07
3.56402e-05
-3.52088e-07
3.10275e-05
-3.68939e-07
2.6909e-05
-3.67412e-07
2.3243e-05
-3.44965e-07
1.99079e-05
-2.97422e-07
1.69151e-05
-2.21634e-07
1.42312e-05
-1.19861e-07
1.16931e-05
8.71902e-08
7.62079e-05
2.08646e-07
7.62457e-05
2.45154e-07
7.6293e-05
2.3845e-07
7.63545e-05
1.98125e-07
7.64256e-05
1.26059e-07
7.65137e-05
3.50779e-08
7.66192e-05
-6.37716e-08
8.09158e-05
-1.53332e-07
7.06182e-05
-2.4267e-07
6.16534e-05
-3.25592e-07
5.38355e-05
-3.96916e-07
4.69806e-05
-4.52744e-07
4.10045e-05
-4.901e-07
3.57782e-05
-5.07338e-07
3.11659e-05
-5.03732e-07
2.70453e-05
-4.78842e-07
2.33769e-05
-4.31047e-07
2.00415e-05
-3.57721e-07
1.70512e-05
-2.5788e-07
1.43692e-05
-1.35541e-07
1.18286e-05
7.35329e-08
6.95957e-05
1.78124e-07
7.62384e-05
2.09787e-07
7.62811e-05
1.96163e-07
7.63352e-05
1.48025e-07
7.64046e-05
6.64036e-08
7.64853e-05
-3.81515e-08
7.6587e-05
-1.55102e-07
7.67105e-05
-2.74157e-07
8.10366e-05
-3.74184e-07
7.07497e-05
-4.67415e-07
6.17952e-05
-5.48007e-07
5.39866e-05
-6.11357e-07
4.71392e-05
-6.54016e-07
4.11684e-05
-6.7393e-07
3.59448e-05
-6.70069e-07
3.13322e-05
-6.42351e-07
2.72088e-05
-5.91311e-07
2.35372e-05
-5.16246e-07
2.02001e-05
-4.16271e-07
1.72096e-05
-2.92367e-07
1.4526e-05
-1.50176e-07
1.19788e-05
6.3029e-08
6.25545e-05
1.53253e-07
6.96205e-05
1.77626e-07
7.62706e-05
1.57769e-07
7.63195e-05
1.02242e-07
7.6381e-05
1.15148e-08
7.64595e-05
-1.06182e-07
7.65533e-05
-2.41127e-07
7.6673e-05
-3.83572e-07
7.682e-05
-5.20759e-07
8.11832e-05
-6.27821e-07
7.09101e-05
-7.20787e-07
6.1968e-05
-7.94514e-07
5.41698e-05
-8.44853e-07
4.733e-05
-8.69577e-07
4.13641e-05
-8.67397e-07
3.61421e-05
-8.38129e-07
3.1528e-05
-7.82893e-07
2.74004e-05
-7.03086e-07
2.3724e-05
-5.99235e-07
2.0383e-05
-4.72108e-07
1.73894e-05
-3.24568e-07
1.47004e-05
-1.63364e-07
1.21421e-05
5.47896e-08
5.62262e-05
1.33238e-07
6.25745e-05
1.50861e-07
6.96473e-05
1.23221e-07
7.63051e-05
6.09516e-08
7.63608e-05
-3.81717e-08
7.64307e-05
-1.68191e-07
7.65215e-05
-3.20496e-07
7.66327e-05
-4.86021e-07
7.67754e-05
-6.52677e-07
7.69519e-05
-8.05497e-07
8.13609e-05
-9.15088e-07
7.11044e-05
-1.00279e-06
6.21762e-05
-1.06392e-06
5.43888e-05
-1.09582e-06
4.75563e-05
-1.09721e-06
4.15939e-05
-1.06788e-06
3.63719e-05
-1.00914e-06
3.17542e-05
-9.23089e-07
2.76204e-05
-8.12354e-07
2.39371e-05
-6.7859e-07
2.05895e-05
-5.24313e-07
1.75891e-05
-3.53597e-07
1.48906e-05
-1.74503e-07
1.23166e-05
4.82237e-08
5.05386e-05
1.17028e-07
5.62424e-05
1.28857e-07
6.25965e-05
9.49505e-08
6.96756e-05
2.42487e-08
7.63418e-05
-8.23616e-08
7.6405e-05
-2.23593e-07
7.64861e-05
-3.92198e-07
7.65932e-05
-5.79951e-07
7.67266e-05
-7.75558e-07
7.68983e-05
-9.64643e-07
7.7111e-05
-1.12934e-06
8.15751e-05
-1.23604e-06
7.13376e-05
-1.31203e-06
6.24244e-05
-1.3544e-06
5.46474e-05
-1.36163e-06
4.78207e-05
-1.33378e-06
4.18598e-05
-1.27249e-06
3.66353e-05
-1.18027e-06
3.20114e-05
-1.06061e-06
2.78687e-05
-9.1715e-07
2.41757e-05
-7.52954e-07
2.08182e-05
-5.71551e-07
1.78071e-05
-3.78724e-07
1.50949e-05
-1.81356e-07
1.2498e-05
4.29204e-08
4.54253e-05
1.03804e-07
5.05518e-05
1.10698e-07
5.62606e-05
7.21474e-08
6.26193e-05
-5.21389e-09
6.9705e-05
-1.2087e-07
7.63803e-05
-2.71998e-07
7.64534e-05
-4.55487e-07
7.65494e-05
-6.64144e-07
7.66774e-05
-8.87624e-07
7.68387e-05
-1.1123e-06
7.7046e-05
-1.3206e-06
7.73023e-05
-1.49246e-06
8.18315e-05
-1.58913e-06
7.16148e-05
-1.64647e-06
6.27164e-05
-1.66294e-06
5.49487e-05
-1.63863e-06
4.81255e-05
-1.5759e-06
4.21632e-05
-1.47784e-06
3.69328e-05
-1.34862e-06
3.22994e-05
-1.19287e-06
2.81444e-05
-1.01562e-06
2.44384e-05
-8.20544e-07
2.10671e-05
-6.12901e-07
1.80412e-05
-3.95694e-07
1.53092e-05
-1.51161e-07
1.26492e-05
3.85835e-08
4.08303e-05
9.29332e-08
4.54362e-05
9.56459e-08
5.05668e-05
5.3716e-08
5.6279e-05
-2.83984e-08
6.26425e-05
-1.50987e-07
6.97351e-05
-3.1314e-07
7.64215e-05
-5.09828e-07
7.65077e-05
-7.37657e-07
7.66229e-05
-9.87426e-07
7.67772e-05
-1.24643e-06
7.69728e-05
-1.49757e-06
7.72229e-05
-1.72087e-06
7.75307e-05
-1.89318e-06
8.21356e-05
-1.97211e-06
7.19404e-05
-2.00267e-06
6.30561e-05
-1.98531e-06
5.52954e-05
-1.92285e-06
4.84725e-05
-1.81948e-06
4.25049e-05
-1.68034e-06
3.72645e-05
-1.51095e-06
3.26175e-05
-1.31748e-06
2.84462e-05
-1.1055e-06
2.47233e-05
-8.79904e-07
2.13341e-05
-6.42896e-07
1.82884e-05
-3.9132e-07
1.55494e-05
-1.03347e-07
1.27525e-05
3.49961e-08
3.66996e-05
8.39432e-08
4.08393e-05
8.31287e-08
4.54487e-05
3.87972e-08
5.05818e-05
-4.65915e-08
5.62972e-05
-1.73908e-07
6.26654e-05
-3.44236e-07
6.97662e-05
-5.54848e-07
7.64665e-05
-7.99795e-07
7.65699e-05
-1.0738e-06
7.67093e-05
-1.36531e-06
7.68961e-05
-1.65791e-06
7.71332e-05
-1.9319e-06
7.7434e-05
-2.16372e-06
7.78012e-05
-2.3291e-06
8.24926e-05
-2.38116e-06
7.23189e-05
-2.37584e-06
6.34467e-05
-2.31691e-06
5.56895e-05
-2.20946e-06
4.88624e-05
-2.06024e-06
4.28848e-05
-1.87607e-06
3.76297e-05
-1.66429e-06
3.29643e-05
-1.43168e-06
2.87724e-05
-1.18476e-06
2.50282e-05
-9.25918e-07
2.16172e-05
-6.56028e-07
1.85531e-05
-3.67652e-07
1.58137e-05
-8.04583e-08
1.2833e-05
3.19978e-08
3.2989e-05
7.64728e-08
3.67071e-05
7.2705e-08
4.08498e-05
2.66976e-08
4.54608e-05
-6.08268e-08
5.0596e-05
-1.91158e-07
5.63145e-05
-3.66854e-07
6.2688e-05
-5.87611e-07
6.9799e-05
-8.50055e-07
7.65167e-05
-1.14587e-06
7.66419e-05
-1.46754e-06
7.68115e-05
-1.7996e-06
7.70378e-05
-2.12284e-06
7.73241e-05
-2.41354e-06
7.76838e-05
-2.64673e-06
7.81189e-05
-2.79608e-06
8.29075e-05
-2.81083e-06
7.27539e-05
-2.76061e-06
6.38904e-05
-2.65207e-06
5.61321e-05
-2.49342e-06
4.92956e-05
-2.29355e-06
4.33022e-05
-2.0615e-06
3.80269e-05
-1.8054e-06
3.33381e-05
-1.53296e-06
2.91206e-05
-1.24906e-06
2.53513e-05
-9.55176e-07
2.19163e-05
-6.56367e-07
1.88419e-05
-3.45286e-07
1.60785e-05
-7.65458e-08
1.29095e-05
2.94703e-08
2.96505e-05
7.0234e-08
3.29952e-05
6.4018e-08
3.67157e-05
1.68423e-08
4.08596e-05
-7.19331e-08
4.54719e-05
-2.03969e-07
5.06088e-05
-3.82864e-07
5.63305e-05
-6.10166e-07
6.27106e-05
-8.85281e-07
6.98342e-05
-1.20297e-06
7.65738e-05
-1.55199e-06
7.67264e-05
-1.92091e-06
7.69328e-05
-2.2913e-06
7.72063e-05
-2.63954e-06
7.75501e-05
-2.94016e-06
7.79772e-05
-3.1655e-06
7.84883e-05
-3.28795e-06
8.33846e-05
-3.25505e-06
7.32483e-05
-3.15055e-06
6.43888e-05
-2.98505e-06
5.66237e-05
-2.76937e-06
4.97715e-05
-2.51526e-06
4.3756e-05
-2.23283e-06
3.84543e-05
-1.93132e-06
3.37364e-05
-1.61759e-06
2.94892e-05
-1.29574e-06
2.56919e-05
-9.72222e-07
2.22322e-05
-6.51472e-07
1.9148e-05
-3.34442e-07
1.63364e-05
-8.2265e-08
1.29918e-05
2.73246e-08
2.66501e-05
6.49933e-08
2.96558e-05
5.67627e-08
3.30025e-05
8.77339e-09
3.67238e-05
-8.0578e-08
4.08683e-05
-2.13329e-07
4.54813e-05
-3.93774e-07
5.06197e-05
-6.24846e-07
5.63452e-05
-9.08116e-07
6.27334e-05
-1.24163e-06
6.98729e-05
-1.61782e-06
7.66397e-05
-2.02048e-06
7.6826e-05
-2.43524e-06
7.70768e-05
-2.83893e-06
7.74057e-05
-3.20583e-06
7.78158e-05
-3.50719e-06
7.83189e-05
-3.71334e-06
7.89137e-05
-3.79806e-06
8.39276e-05
-3.7066e-06
7.38044e-05
-3.53912e-06
6.49429e-05
-3.3096e-06
5.7164e-05
-3.03244e-06
5.02886e-05
-2.72094e-06
4.42441e-05
-2.38667e-06
3.89096e-05
-2.03871e-06
3.41575e-05
-1.68335e-06
2.98768e-05
-1.32845e-06
2.60481e-05
-9.82624e-07
2.25633e-05
-6.48887e-07
1.94625e-05
-3.33707e-07
1.65878e-05
-1.1127e-07
1.3103e-05
2.54921e-08
2.39558e-05
6.05637e-08
2.66546e-05
5.06798e-08
2.96619e-05
2.14098e-09
3.30091e-05
-8.72941e-08
3.67305e-05
-2.20026e-07
4.08749e-05
-4.00791e-07
4.54883e-05
-6.3353e-07
5.06284e-05
-9.21466e-07
5.63585e-05
-1.26522e-06
6.2757e-05
-1.66114e-06
6.99162e-05
-2.0972e-06
7.67164e-05
-2.55295e-06
7.69437e-05
-3.00925e-06
7.72471e-05
-3.4405e-06
7.76403e-05
-3.81707e-06
7.81257e-05
-4.10757e-06
7.87131e-05
-4.28319e-06
7.93988e-05
-4.31841e-06
8.45394e-05
-4.15807e-06
7.44233e-05
-3.91909e-06
6.55524e-05
-3.62004e-06
5.77516e-05
-3.2775e-06
5.08452e-05
-2.90676e-06
4.47642e-05
-2.51983e-06
3.93908e-05
-2.12558e-06
3.45998e-05
-1.7329e-06
3.02812e-05
-1.35226e-06
2.64177e-05
-9.91493e-07
2.29059e-05
-6.50033e-07
1.97788e-05
-4.15343e-07
1.68919e-05
-1.20321e-07
1.32234e-05
2.3919e-08
2.15336e-05
5.67986e-08
2.39596e-05
4.5554e-08
2.66597e-05
-3.31938e-09
2.96673e-05
-9.25013e-08
3.30143e-05
-2.24682e-07
3.67352e-05
-4.04868e-07
4.0879e-05
-6.37715e-07
4.54925e-05
-9.27672e-07
5.06346e-05
-1.27733e-06
5.63706e-05
-1.68613e-06
6.2782e-05
-2.14662e-06
6.99656e-05
-2.64305e-06
7.68065e-05
-3.14841e-06
7.70828e-05
-3.64122e-06
7.74478e-05
-4.0914e-06
7.79146e-05
-4.46605e-06
7.84841e-05
-4.73396e-06
7.91639e-05
-4.86641e-06
7.99468e-05
-4.84062e-06
8.5222e-05
-4.60116e-06
7.51054e-05
-4.28389e-06
6.62163e-05
-3.9105e-06
5.83845e-05
-3.50021e-06
5.14386e-05
-3.06947e-06
4.53138e-05
-2.63042e-06
3.98956e-05
-2.19375e-06
3.50606e-05
-1.77057e-06
3.06995e-05
-1.3712e-06
2.67974e-05
-9.99282e-07
2.32552e-05
-8.0522e-07
2.01687e-05
-4.17132e-07
1.71887e-05
-1.3024e-07
1.33536e-05
2.25628e-08
1.93534e-05
5.35823e-08
2.15368e-05
4.12125e-08
2.39639e-05
-7.82004e-09
2.66642e-05
-9.65256e-08
2.96713e-05
-2.27785e-07
3.30174e-05
-4.06753e-07
3.67371e-05
-6.38578e-07
4.08799e-05
-9.28593e-07
4.54934e-05
-1.28086e-06
5.06381e-05
-1.69721e-06
5.63817e-05
-2.17386e-06
6.28093e-05
-2.70031e-06
7.00229e-05
-3.25469e-06
7.69128e-05
-3.80549e-06
7.72471e-05
-4.32673e-06
7.76832e-05
-4.78443e-06
7.8233e-05
-5.14523e-06
7.88954e-05
-5.37722e-06
7.96747e-05
-5.45384e-06
8.056e-05
-5.35527e-06
8.59761e-05
-5.02834e-06
7.58499e-05
-4.62679e-06
6.69326e-05
-4.17599e-06
5.90603e-05
-3.69706e-06
5.20662e-05
-3.20704e-06
4.58904e-05
-2.71942e-06
4.04213e-05
-2.24659e-06
3.55366e-05
-1.79951e-06
3.11278e-05
-1.38556e-06
2.71837e-05
-1.24102e-06
2.3691e-05
-8.00696e-07
2.05523e-05
-4.18806e-07
1.74773e-05
-1.38052e-07
1.34917e-05
1.73972e-05
2.13907e-08
5.08225e-08
1.93561e-05
3.7518e-08
2.15405e-05
-1.15377e-08
2.39677e-05
-9.96222e-08
2.66673e-05
-2.29713e-07
2.96733e-05
-4.07029e-07
3.30177e-05
-6.3704e-07
3.67355e-05
-9.25691e-07
4.0877e-05
-1.27812e-06
4.54906e-05
-1.69797e-06
5.06389e-05
-2.18431e-06
5.63922e-05
-2.73091e-06
6.28399e-05
-3.32186e-06
7.00901e-05
-3.93115e-06
7.70384e-05
-4.52002e-06
7.74404e-05
-5.05869e-06
7.79574e-05
-5.51203e-06
7.85998e-05
-5.8451e-06
7.93633e-05
-6.02754e-06
8.02484e-05
-6.03514e-06
8.12399e-05
-5.85387e-06
8.68016e-05
-5.4319e-06
7.6655e-05
-4.94205e-06
6.76986e-05
-4.41256e-06
5.97758e-05
-3.86569e-06
5.27249e-05
-3.31967e-06
4.64907e-05
-2.78927e-06
4.09639e-05
-2.2865e-06
3.60236e-05
-1.8201e-06
3.15624e-05
-1.72337e-06
2.76661e-05
-1.23342e-06
2.41237e-05
-7.92929e-07
2.09264e-05
-4.18104e-07
1.77573e-05
-1.43062e-07
1.36347e-05
1.73996e-05
4.84374e-08
2.78119e-05
1.94923e-08
3.43605e-08
1.93593e-05
-1.46169e-08
2.15436e-05
-1.01991e-07
2.397e-05
-2.30762e-07
2.66683e-05
-4.06149e-07
2.96724e-05
-6.33812e-07
3.30145e-05
-9.201e-07
3.67299e-05
-1.27091e-06
4.08698e-05
-1.69122e-06
4.54839e-05
-2.18232e-06
5.06369e-05
-2.74133e-06
5.64026e-05
-3.35724e-06
6.28752e-05
-4.01069e-06
7.01696e-05
-4.66864e-06
7.71871e-05
-5.28519e-06
7.76669e-05
-5.82967e-06
7.8275e-05
-6.26444e-06
7.90192e-05
-6.55539e-06
7.98911e-05
-6.67382e-06
8.08871e-05
-6.60095e-06
8.1987e-05
-6.32755e-06
8.76973e-05
-5.80518e-06
7.75181e-05
-5.22504e-06
6.85111e-05
-4.6173e-06
6.05274e-05
-4.00554e-06
5.34108e-05
-3.40895e-06
4.71104e-05
-2.84172e-06
4.15192e-05
-2.31396e-06
3.65175e-05
-2.26482e-06
3.21038e-05
-1.71384e-06
2.81465e-05
-1.21787e-06
2.45487e-05
-7.80808e-07
2.12891e-05
-4.13958e-07
1.80282e-05
-1.45454e-07
1.37802e-05
1.74023e-05
3.16551e-08
2.78158e-05
4.45637e-08
2.85518e-05
1.76868e-08
-1.71751e-08
1.93618e-05
-1.03791e-07
2.15454e-05
-2.31159e-07
2.39704e-05
-4.0446e-07
2.66667e-05
-6.2944e-07
2.9668e-05
-9.12695e-07
3.30071e-05
-1.26063e-06
3.67197e-05
-1.6792e-06
4.08578e-05
-2.17134e-06
4.54729e-05
-2.73681e-06
5.06324e-05
-3.36851e-06
5.64139e-05
-4.05263e-06
6.29172e-05
-4.76343e-06
7.02644e-05
-5.46071e-06
7.73626e-05
-6.09384e-06
7.7931e-05
-6.62985e-06
7.86405e-05
-7.03112e-06
7.94949e-05
-7.26437e-06
8.04817e-05
-7.30588e-06
8.1592e-05
-7.14138e-06
8.28008e-05
-6.76858e-06
8.86607e-05
-6.1427e-06
7.84358e-05
-5.47214e-06
6.93659e-05
-4.7889e-06
6.13108e-05
-4.11738e-06
5.41192e-05
-3.47603e-06
4.77447e-05
-2.87728e-06
4.20825e-05
-2.87984e-06
3.71325e-05
-2.2527e-06
3.26427e-05
-1.69131e-06
2.86199e-05
-1.1946e-06
2.49624e-05
-7.6375e-07
2.16389e-05
-4.06428e-07
1.82892e-05
-1.45504e-07
1.39257e-05
1.74044e-05
-1.93093e-08
2.78195e-05
2.79288e-08
2.85555e-05
4.08284e-08
2.93117e-05
1.59738e-08
-1.05145e-07
1.93632e-05
-2.31083e-07
2.15453e-05
-4.02227e-07
2.39682e-05
-6.24339e-07
2.66616e-05
-9.04141e-07
2.96595e-05
-1.24836e-06
3.29948e-05
-1.66363e-06
3.67041e-05
-2.15409e-06
4.08405e-05
-2.72151e-06
4.54576e-05
-3.36192e-06
5.06258e-05
-4.06599e-06
5.64272e-05
-4.81415e-06
6.29679e-05
-5.57407e-06
7.03778e-05
-6.30064e-06
7.75694e-05
-6.93627e-06
7.82375e-05
-7.44857e-06
7.90579e-05
-7.79985e-06
8.00304e-05
-7.9612e-06
8.1137e-05
-7.91291e-06
8.23636e-05
-7.64767e-06
8.36799e-05
-7.17044e-06
8.96884e-05
-6.43994e-06
7.94035e-05
-5.68124e-06
7.02583e-05
-4.92736e-06
6.21208e-05
-4.20182e-06
5.4845e-05
-3.52143e-06
4.83889e-05
-3.58178e-06
4.27844e-05
-2.86458e-06
3.77444e-05
-2.22253e-06
3.31739e-05
-1.65714e-06
2.90825e-05
-1.16397e-06
2.53627e-05
-7.42124e-07
2.19746e-05
-3.95853e-07
1.85396e-05
-1.43607e-07
1.40693e-05
1.74054e-05
-1.06152e-07
2.78214e-05
-2.11685e-08
2.8559e-05
2.44436e-08
2.93153e-05
3.72474e-08
3.00896e-05
1.43548e-08
-2.30667e-07
1.93628e-05
-3.9965e-07
2.15427e-05
-6.18821e-07
2.39627e-05
-8.94941e-07
2.66524e-05
-1.23492e-06
2.9646e-05
-1.64581e-06
3.2977e-05
-2.13265e-06
3.66827e-05
-2.69873e-06
4.08177e-05
-3.34245e-06
4.54382e-05
-4.05812e-06
5.06179e-05
-4.83124e-06
5.64443e-05
-5.63626e-06
6.30301e-05
-6.4364e-06
7.05135e-05
-7.17902e-06
7.78121e-05
-7.8019e-06
7.85908e-05
-8.27335e-06
7.95314e-05
-8.5593e-06
8.06285e-05
-8.6342e-06
8.18583e-05
-8.48515e-06
8.3201e-05
-8.11225e-06
8.46217e-05
-7.52747e-06
9.07759e-05
-6.69386e-06
8.04162e-05
-5.85157e-06
7.11825e-05
-5.03276e-06
6.29517e-05
-4.25936e-06
5.55829e-05
-4.38529e-06
4.91924e-05
-3.56333e-06
4.34832e-05
-2.82584e-06
3.83477e-05
-2.17658e-06
3.36934e-05
-1.61257e-06
2.95311e-05
-1.12698e-06
2.57475e-05
-7.16609e-07
2.22953e-05
-3.82765e-07
1.87787e-05
-1.40182e-07
1.42095e-05
1.74048e-05
-2.30019e-07
2.78198e-05
-1.0455e-07
2.85606e-05
-2.27414e-08
2.93185e-05
2.11923e-08
3.0093e-05
3.38231e-08
3.08895e-05
1.28301e-08
-3.9688e-07
1.936e-05
-6.13117e-07
2.1537e-05
-8.85464e-07
2.39532e-05
-1.2209e-06
2.66383e-05
-1.62675e-06
2.96269e-05
-2.10864e-06
3.2953e-05
-2.67098e-06
3.66549e-05
-3.31402e-06
4.07893e-05
-4.03489e-06
4.54149e-05
-4.82325e-06
5.06099e-05
-5.65921e-06
5.64673e-05
-6.51328e-06
6.3107e-05
-7.34144e-06
7.0676e-05
-8.08555e-06
7.80958e-05
-8.67817e-06
7.89956e-05
-9.09252e-06
8.00646e-05
-9.29707e-06
8.12914e-05
-9.27273e-06
8.26459e-05
-9.01403e-06
8.41028e-05
-8.52843e-06
8.56226e-05
-7.83562e-06
9.19177e-05
-6.90289e-06
8.14675e-05
-5.98267e-06
7.21324e-05
-5.10551e-06
6.37979e-05
-5.3071e-06
5.65047e-05
-4.36407e-06
4.99931e-05
-3.51534e-06
4.41727e-05
-2.76681e-06
3.89379e-05
-2.11695e-06
3.41977e-05
-1.55935e-06
2.99634e-05
-1.08485e-06
2.61158e-05
-6.88051e-07
2.26006e-05
-3.67749e-07
1.90063e-05
-1.35608e-07
1.43451e-05
1.74019e-05
-3.94028e-07
2.78131e-05
-2.23365e-07
2.85586e-05
-1.02543e-07
2.93198e-05
-2.40142e-08
3.00961e-05
1.81789e-08
3.08928e-05
3.05609e-08
3.17094e-05
1.13989e-08
-6.07399e-07
1.93543e-05
-8.75985e-07
2.15275e-05
-1.20676e-06
2.39391e-05
-1.60718e-06
2.66188e-05
-2.08328e-06
2.96016e-05
-2.64022e-06
3.29222e-05
-3.27967e-06
3.66206e-05
-4.00096e-06
4.07554e-05
-4.79705e-06
4.53887e-05
-5.65274e-06
5.06034e-05
-6.54473e-06
5.64987e-05
-7.43673e-06
6.32022e-05
-8.27929e-06
7.08697e-05
-9.0078e-06
7.84254e-05
-9.55326e-06
7.94563e-05
-9.89312e-06
8.06607e-05
-1.00017e-05
8.20204e-05
-9.86728e-06
8.34991e-05
-9.49185e-06
8.50662e-05
-8.89116e-06
8.66782e-05
-8.09242e-06
9.31072e-05
-7.06598e-06
8.25508e-05
-6.07474e-06
7.31016e-05
-6.36606e-06
6.48568e-05
-5.28414e-06
5.74248e-05
-4.30643e-06
5.07842e-05
-3.44192e-06
4.48478e-05
-2.69045e-06
3.95114e-05
-2.0461e-06
3.46845e-05
-1.49932e-06
3.03779e-05
-1.03888e-06
2.64666e-05
-6.57297e-07
2.28902e-05
-3.51368e-07
1.9222e-05
-1.30219e-07
1.44753e-05
1.73963e-05
-6.01787e-07
2.77996e-05
-3.80524e-07
2.85514e-05
-2.16186e-07
2.93174e-05
-1.00148e-07
3.0097e-05
-2.49849e-08
3.08956e-05
1.5402e-08
3.17125e-05
2.74651e-08
3.25533e-05
1.0063e-08
-8.667e-07
1.9345e-05
-1.19282e-06
2.15136e-05
-1.58765e-06
2.39195e-05
-2.05745e-06
2.65929e-05
-2.60792e-06
2.95693e-05
-3.24174e-06
3.28843e-05
-3.95994e-06
3.65795e-05
-4.75808e-06
4.07164e-05
-5.62477e-06
4.53608e-05
-6.54192e-06
5.06006e-05
-7.47989e-06
5.65419e-05
-8.39722e-06
6.33202e-05
-9.23785e-06
7.10997e-05
-9.93402e-06
7.88062e-05
-1.04138e-05
7.99771e-05
-1.0663e-05
8.1322e-05
-1.06629e-05
8.2816e-05
-1.04091e-05
8.44164e-05
-9.91258e-06
8.60877e-05
-9.19725e-06
8.7783e-05
-8.29616e-06
9.43374e-05
-7.18299e-06
8.3659e-05
-7.58179e-06
7.43174e-05
-6.34313e-06
6.59158e-05
-5.21677e-06
5.83351e-05
-4.21742e-06
5.15597e-05
-3.34699e-06
4.55043e-05
-2.60002e-06
4.00653e-05
-1.96656e-06
3.51517e-05
-1.43437e-06
3.07734e-05
-9.90278e-07
2.67996e-05
-6.25139e-07
2.31639e-05
-3.34136e-07
1.9426e-05
-1.24272e-07
1.45996e-05
1.73873e-05
-8.57743e-07
2.77772e-05
-5.7942e-07
2.85372e-05
-3.66299e-07
2.93097e-05
-2.08432e-07
3.00942e-05
-9.73345e-08
3.08962e-05
-2.56534e-08
3.17151e-05
1.2861e-08
3.25563e-05
2.45339e-08
3.34192e-05
8.81937e-09
-1.17932e-06
1.93315e-05
-1.56855e-06
2.14945e-05
-2.03181e-06
2.38939e-05
-2.57517e-06
2.65602e-05
-3.202e-06
2.95295e-05
-3.91461e-06
3.2839e-05
-4.7106e-06
3.65321e-05
-5.58163e-06
4.06732e-05
-6.51389e-06
4.53327e-05
-7.48344e-06
5.06042e-05
-8.45585e-06
5.66005e-05
-9.38309e-06
6.34654e-05
-1.02056e-05
7.13713e-05
-1.08507e-05
7.9243e-05
-1.12473e-05
8.05613e-05
-1.13911e-05
8.20502e-05
-1.12709e-05
8.36777e-05
-1.08912e-05
8.53951e-05
-1.02721e-05
8.71625e-05
-9.44423e-06
8.89311e-05
-8.44631e-06
9.56007e-05
-8.97615e-06
8.50534e-05
-7.56187e-06
7.55361e-05
-6.26645e-06
6.69655e-05
-5.11111e-06
5.92288e-05
-4.10199e-06
5.23147e-05
-3.23467e-06
4.6139e-05
-2.49873e-06
4.05975e-05
-1.88078e-06
3.55981e-05
-1.36614e-06
3.11492e-05
-9.40141e-07
2.71146e-05
-5.92295e-07
2.34221e-05
-3.16442e-07
1.96181e-05
-1.17998e-07
1.47176e-05
1.73744e-05
-1.1664e-06
2.77436e-05
-8.24153e-07
2.85139e-05
-5.5616e-07
2.92948e-05
-3.51409e-07
3.0086e-05
-2.00187e-07
3.0893e-05
-9.41258e-08
3.17154e-05
-2.6016e-08
3.25586e-05
1.05557e-08
3.3422e-05
2.17715e-08
3.43052e-05
7.66709e-09
-1.55014e-06
1.93131e-05
-2.00684e-06
2.14695e-05
-2.54274e-06
2.38615e-05
-3.16175e-06
2.65199e-05
-3.86707e-06
2.9482e-05
-4.65789e-06
3.27862e-05
-5.52827e-06
3.64787e-05
-6.46789e-06
4.06272e-05
-7.45759e-06
4.53069e-05
-8.46902e-06
5.06174e-05
-9.46145e-06
5.66789e-05
-1.03832e-05
6.3643e-05
-1.11691e-05
7.16897e-05
-1.17449e-05
7.97406e-05
-1.20419e-05
8.1212e-05
-1.20668e-05
8.28462e-05
-1.18176e-05
8.46041e-05
-1.13087e-05
8.64316e-05
-1.05673e-05
8.82856e-05
-9.63104e-06
9.01158e-05
-1.05727e-05
9.71973e-05
-8.96456e-06
8.64561e-05
-7.47739e-06
7.6747e-05
-6.14335e-06
6.79977e-05
-4.97317e-06
6.01e-05
-3.96524e-06
5.30453e-05
-3.10897e-06
4.67492e-05
-2.38969e-06
4.11064e-05
-1.79091e-06
3.60229e-05
-1.29611e-06
3.15052e-05
-8.89448e-07
2.74117e-05
-5.59284e-07
2.36649e-05
-2.9865e-07
1.97988e-05
-1.11576e-07
1.48291e-05
1.73569e-05
-1.53261e-06
2.76964e-05
-1.11917e-06
2.84792e-05
-7.8945e-07
2.92706e-05
-5.31971e-07
3.00704e-05
-3.35795e-07
3.08842e-05
-1.91401e-07
3.17118e-05
-9.05165e-08
3.25586e-05
-2.60804e-08
3.34241e-05
8.47906e-09
3.43077e-05
1.91765e-08
3.52191e-05
6.60508e-09
-1.98285e-06
1.92891e-05
-2.51122e-06
2.1438e-05
-3.12194e-06
2.38217e-05
-3.8189e-06
2.64718e-05
-4.60244e-06
2.94265e-05
-5.46853e-06
3.27265e-05
-6.40965e-06
3.64205e-05
-7.41057e-06
4.05802e-05
-8.44815e-06
4.5286e-05
-9.48808e-06
5.0644e-05
-1.0486e-05
5.67817e-05
-1.13843e-05
6.38582e-05
-1.21153e-05
7.20601e-05
-1.26044e-05
8.03031e-05
-1.27861e-05
8.19313e-05
-1.26811e-05
8.37097e-05
-1.22973e-05
8.55927e-05
-1.16572e-05
8.75215e-05
-1.07963e-05
8.94509e-05
-1.20779e-05
9.1621e-05
-1.05785e-05
9.88112e-05
-8.87605e-06
8.78548e-05
-7.33703e-06
7.79407e-05
-5.98108e-06
6.90056e-05
-4.80921e-06
6.0944e-05
-3.81207e-06
5.37484e-05
-2.9737e-06
4.73333e-05
-2.27559e-06
4.15911e-05
-1.69886e-06
3.64257e-05
-1.22558e-06
3.18413e-05
-8.38891e-07
2.76913e-05
-5.2661e-07
2.38929e-05
-2.81042e-07
1.99683e-05
-1.05137e-07
1.49343e-05
1.73341e-05
-1.96006e-06
2.76325e-05
-1.46869e-06
2.84306e-05
-1.07056e-06
2.92349e-05
-7.53711e-07
3.00453e-05
-5.06919e-07
3.0868e-05
-3.19528e-07
3.17025e-05
-1.82112e-07
3.25546e-05
-8.65226e-08
3.34238e-05
-2.58439e-08
3.43096e-05
6.62812e-09
3.52215e-05
1.67454e-08
3.6155e-05
5.63037e-09
-2.48099e-06
1.92589e-05
-3.08327e-06
2.13993e-05
-3.77124e-06
2.3774e-05
-4.54612e-06
2.64155e-05
-5.40534e-06
2.93634e-05
-6.3436e-06
3.26605e-05
-7.34892e-06
3.63588e-05
-8.40249e-06
4.05346e-05
-9.47557e-06
4.52735e-05
-1.05304e-05
5.06884e-05
-1.15166e-05
5.6914e-05
-1.23734e-05
6.41164e-05
-1.30316e-05
7.24873e-05
-1.34171e-05
8.09341e-05
-1.34702e-05
8.27205e-05
-1.32272e-05
8.46396e-05
-1.27048e-05
8.66403e-05
-1.19346e-05
8.86598e-05
-1.35675e-05
9.09405e-05
-1.21089e-05
9.31514e-05
-1.04926e-05
0.000100428
-8.72047e-06
8.92382e-05
-7.14945e-06
7.91091e-05
-5.78717e-06
6.99836e-05
-4.62518e-06
6.17571e-05
-3.64713e-06
5.44218e-05
-2.83218e-06
4.78899e-05
-2.15879e-06
4.2051e-05
-1.6063e-06
3.68064e-05
-1.15546e-06
3.21579e-05
-7.89152e-07
2.79539e-05
-4.94652e-07
2.41065e-05
-2.6381e-07
2.01269e-05
-9.87846e-08
1.50331e-05
1.73054e-05
-2.45229e-06
2.75487e-05
-1.87625e-06
2.83649e-05
-1.40296e-06
2.91847e-05
-1.0204e-06
3.00083e-05
-7.16752e-07
3.0842e-05
-4.80999e-07
3.16856e-05
-3.02635e-07
3.25449e-05
-1.72335e-07
3.34195e-05
-8.21516e-08
3.43091e-05
-2.53112e-08
3.52231e-05
4.99459e-09
3.61572e-05
1.44749e-08
3.65889e-05
4.75114e-09
-3.04619e-06
1.92218e-05
-3.72491e-06
2.1353e-05
-4.4903e-06
2.37182e-05
-5.34091e-06
2.6351e-05
-6.27319e-06
2.92929e-05
-7.27775e-06
3.25893e-05
-8.33943e-06
3.62958e-05
-9.43422e-06
4.04932e-05
-1.05302e-05
4.52733e-05
-1.15836e-05
5.07554e-05
-1.25406e-05
5.70812e-05
-1.3338e-05
6.44227e-05
-1.39057e-05
7.29759e-05
-1.41725e-05
8.16364e-05
-1.40866e-05
8.35798e-05
-1.36992e-05
8.56341e-05
-1.30371e-05
8.77427e-05
-1.50333e-05
9.01257e-05
-1.36338e-05
9.24654e-05
-1.20344e-05
9.46931e-05
-1.03264e-05
0.000102034
-8.50775e-06
9.05965e-05
-6.92352e-06
8.02454e-05
-5.56883e-06
7.09273e-05
-4.42669e-06
6.25366e-05
-3.47444e-06
5.5064e-05
-2.68731e-06
4.84184e-05
-2.04141e-06
4.24861e-05
-1.51439e-06
3.71653e-05
-1.08665e-06
3.24554e-05
-7.40729e-07
2.82e-05
-4.63656e-07
2.43063e-05
-2.47116e-07
2.02753e-05
-9.2601e-08
1.51257e-05
1.72702e-05
-3.01101e-06
2.74416e-05
-2.34518e-06
2.82793e-05
-1.79066e-06
2.91174e-05
-1.33571e-06
2.99569e-05
-9.6899e-07
3.08041e-05
-6.78848e-07
3.16589e-05
-4.5427e-07
3.25273e-05
-2.85094e-07
3.34092e-05
-1.62093e-07
3.43043e-05
-7.74218e-08
3.52223e-05
-2.44811e-08
3.61587e-05
3.57335e-09
3.6591e-05
1.23883e-08
3.55528e-05
3.98752e-09
-3.68047e-06
1.91773e-05
-4.43595e-06
2.12986e-05
-5.27686e-06
2.36541e-05
-6.20099e-06
2.62788e-05
-7.20104e-06
2.92162e-05
-8.26481e-06
3.25147e-05
-9.37231e-06
3.62338e-05
-1.04967e-05
4.04597e-05
-1.16001e-05
4.52898e-05
-1.26353e-05
5.08501e-05
-1.35454e-05
5.72886e-05
-1.42654e-05
6.47824e-05
-1.47264e-05
7.35298e-05
-1.4862e-05
8.24118e-05
-1.46283e-05
8.45089e-05
-1.40932e-05
8.66902e-05
-1.64653e-05
8.91747e-05
-1.51464e-05
9.16383e-05
-1.35809e-05
9.40119e-05
-1.18666e-05
9.62334e-05
-1.00912e-05
0.000103617
-8.24833e-06
9.19213e-05
-6.66767e-06
8.13443e-05
-5.33278e-06
7.18334e-05
-4.21862e-06
6.32808e-05
-3.29757e-06
5.56743e-05
-2.54169e-06
4.89187e-05
-1.92486e-06
4.28966e-05
-1.42425e-06
3.75029e-05
-1.01978e-06
3.27345e-05
-6.93932e-07
2.84302e-05
-4.33831e-07
2.44931e-05
-2.31086e-07
2.04137e-05
-8.66413e-08
1.52123e-05
1.7228e-05
-3.63828e-06
2.73083e-05
-2.87775e-06
2.81702e-05
-2.23606e-06
2.90297e-05
-1.7029e-06
2.98881e-05
-1.26688e-06
3.07514e-05
-9.1629e-07
3.162e-05
-6.39935e-07
3.24999e-05
-4.2685e-07
3.33912e-05
-2.67029e-07
3.42937e-05
-1.51443e-07
3.52172e-05
-7.23604e-08
3.61576e-05
-2.33788e-08
3.65922e-05
2.36999e-09
3.55546e-05
1.05462e-08
3.45447e-05
3.32257e-09
-4.38377e-06
1.91252e-05
-5.21436e-06
2.12361e-05
-6.12891e-06
2.35821e-05