/*--------------------------------*- C++ -*----------------------------------*\
  =========                 |
  \\      /  F ield         | OpenFOAM: The Open Source CFD Toolbox
   \\    /   O peration     | Website:  https://openfoam.org
    \\  /    A nd           | Version:  8
     \\/     M anipulation  |
\*---------------------------------------------------------------------------*/
FoamFile
{
    version     2.0;
    format      ascii;
    class       volScalarField;
    location    "0.3";
    object      p;
}
// * * * * * * * * * * * * * * * * * * * * * * * * * * * * * * * * * * * * * //

dimensions      [0 2 -2 0 0 0 0];

internalField   nonuniform List<scalar> 
15677
(
74.5777
74.2211
73.8084
74.2856
73.7966
73.8102
74.2607
73.8238
73.8196
73.7038
74.2353
73.8251
73.8199
73.7128
73.6124
74.2135
73.8274
73.8197
73.7121
73.62
73.5163
74.19
73.8297
73.8194
73.7132
73.6199
73.5229
73.4018
74.1649
73.8323
73.8185
73.7135
73.6209
73.5229
73.4076
73.2651
74.1388
73.8353
73.8171
73.7136
73.6214
73.5238
73.4077
73.2702
73.0989
74.1114
73.8374
73.8151
73.7134
73.6219
73.5244
73.4087
73.2704
73.1033
72.8957
74.0828
73.8389
73.8125
73.713
73.6222
73.5251
73.4094
73.2715
73.1036
72.8993
72.6476
74.0534
73.8405
73.8092
73.7128
73.6226
73.5257
73.4102
73.2723
73.1049
72.8998
72.6505
72.3464
74.0234
73.8416
73.8059
73.7129
73.6232
73.5266
73.4113
73.2735
73.106
72.9012
72.6512
72.3486
71.9838
73.9937
73.8416
73.8024
73.7133
73.6242
73.5278
73.4127
73.275
73.1075
72.9027
72.6528
72.3494
71.9851
71.5513
73.967
73.8404
73.7989
73.7141
73.6259
73.5298
73.4148
73.2771
73.1096
72.9047
72.6547
72.3514
71.9861
71.5515
71.0407
73.9442
73.8383
73.7954
73.7155
73.6285
73.5329
73.4181
73.2803
73.1126
72.9076
72.6574
72.3538
71.9884
71.5529
71.04
70.4446
73.9242
73.8362
73.7925
73.7175
73.6324
73.5374
73.4229
73.285
73.1171
72.9117
72.6612
72.3573
71.9915
71.5555
71.0416
70.4427
69.7562
73.9068
73.8342
73.7903
73.7201
73.6379
73.544
73.4299
73.292
73.1237
72.9178
72.6667
72.3623
71.996
71.5594
71.0446
70.4446
69.753
68.9698
73.8917
73.8322
73.7887
73.723
73.6445
73.553
73.4399
73.3021
73.1335
72.9269
72.6749
72.3696
72.0024
71.565
71.0494
70.4482
69.7552
68.9652
68.0811
73.8786
73.8304
73.7877
73.7264
73.6518
73.564
73.4536
73.3164
73.1475
72.9402
72.687
72.3803
72.0118
71.5732
71.0564
70.4539
69.7593
68.9677
68.0749
67.0871
73.8674
73.8287
73.7872
73.7303
73.6599
73.576
73.4702
73.3359
73.1673
72.9592
72.7046
72.3961
72.0256
71.585
71.0664
70.4624
69.7661
68.9723
68.0776
67.0792
65.9868
73.8585
73.8272
73.7872
73.7345
73.6686
73.5892
73.4883
73.3597
73.1943
72.9858
72.7298
72.419
72.0458
71.6024
71.0811
70.4746
69.7762
68.9802
68.0828
67.0822
65.977
64.7808
73.8516
73.8257
73.7876
73.7392
73.6779
73.6033
73.5081
73.3855
73.2271
73.0223
72.7651
72.4518
72.0751
71.6278
71.1026
70.4925
69.7908
68.9921
68.0919
67.0879
65.9804
64.769
63.4723
73.8463
73.8243
73.7884
73.7441
73.6877
73.6184
73.5294
73.4138
73.2629
73.0667
72.8134
72.4975
72.1169
71.6646
71.134
70.5186
69.8122
69.0093
68.1055
67.0981
65.9864
64.7726
63.4584
62.0658
73.8422
73.8232
73.7895
73.7491
73.6979
73.6342
73.5519
73.4442
73.3021
73.1151
72.8722
72.5603
72.1753
71.7171
71.1795
70.5568
69.8433
69.0342
68.1253
67.1135
65.9977
64.779
63.4622
62.0497
60.5736
73.839
73.8222
73.7906
73.7538
73.7079
73.6505
73.5755
73.4764
73.3442
73.1681
72.9363
72.6367
72.2555
71.7905
71.2443
70.612
69.8889
69.0708
68.1541
67.1358
66.0147
64.7913
63.4687
62.0535
60.5547
59.026
73.8363
73.8214
73.7917
73.7582
73.7171
73.6665
73.5999
73.5101
73.3888
73.2251
73.0066
72.7202
72.3532
71.8912
71.335
70.6907
69.9549
69.1244
68.1962
67.1683
66.0395
64.8097
63.4816
62.0596
60.5558
58.9704
57.3623
73.8342
73.8208
73.7928
73.7621
73.7255
73.6813
73.6238
73.5449
73.4355
73.2856
73.0823
72.8119
72.4601
72.0141
71.4595
70.801
70.0491
69.2019
68.258
67.2161
66.0755
64.8365
63.5009
62.0726
60.5605
58.9731
57.2952
55.568
73.8325
73.8203
73.7939
73.7657
73.733
73.6946
73.6457
73.5791
73.4839
73.3489
73.1627
72.9107
72.5776
72.1489
71.6118
70.9527
70.1811
69.3128
68.3477
67.2862
66.1286
64.8757
63.5293
62.0923
60.5719
58.974
57.2978
55.5377
53.7161
73.8311
73.8199
73.7948
73.769
73.7397
73.7066
73.6655
73.6104
73.5312
73.4145
73.2469
73.0156
72.7044
72.2971
71.779
71.1385
70.363
69.4685
68.4762
67.3884
66.2069
64.9336
63.5708
62.1212
60.5902
58.9824
57.2922
55.53
53.7046
51.8124
73.8299
73.8195
73.7955
73.772
73.7457
73.7172
73.6833
73.6386
73.5747
73.4787
73.3342
73.1257
72.8393
72.4574
71.9633
71.3429
70.5865
69.6836
68.6573
67.5352
66.3215
65.0196
63.6327
62.164
60.6179
58.9979
57.3
55.5206
53.6877
51.8069
49.6659
73.8289
73.8193
73.7962
73.7748
73.751
73.7268
73.6991
73.664
73.6139
73.5377
73.4198
73.2399
72.9809
72.628
72.1628
71.5686
70.8328
69.9485
68.908
67.7426
66.4866
65.1458
63.7252
62.2286
60.6602
59.0231
57.3138
55.5299
53.6791
51.7882
49.6637
47.2475
73.8281
73.819
73.7968
73.7772
73.7558
73.7352
73.7133
73.6866
73.649
73.591
73.4984
73.352
73.128
72.8075
72.3756
71.8134
71.1053
70.2411
69.2176
68.0306
66.7207
65.3287
63.862
62.3262
60.7257
59.0634
57.3373
55.5433
53.6889
51.7817
49.6458
47.2471
44.8015
73.8274
73.8188
73.7974
73.7794
73.76
73.7427
73.7258
73.7067
73.6805
73.6388
73.5695
73.4552
73.2726
72.9942
72.5998
72.075
71.4015
70.5657
69.5605
68.3875
67.047
65.5892
64.0616
62.472
60.8265
59.1281
57.376
55.5665
53.7024
51.79
49.6393
47.2305
44.8029
42.3705
73.8268
73.8187
73.798
73.7813
73.7637
73.7494
73.7369
73.7246
73.7085
73.6816
73.6333
73.5484
73.4058
73.178
72.8334
72.3513
71.7189
70.9194
69.9419
68.7839
67.4528
65.9539
64.3474
62.6865
60.9793
59.2303
57.4397
55.6044
53.7256
51.8035
49.6443
47.2235
44.7884
42.3721
39.9748
73.8185
73.8262
73.7985
73.783
73.767
73.7553
73.7468
73.7405
73.7333
73.7196
73.6904
73.6323
73.5264
73.3475
73.0638
72.6397
72.0547
71.2992
70.3587
69.2263
67.9053
66.4094
64.7495
62.9957
61.2064
59.3879
57.5425
55.6675
53.7626
51.826
49.6564
47.2252
44.7812
42.3586
39.9762
37.627
73.7989
73.8184
73.8254
73.7845
73.77
73.7605
73.7555
73.7545
73.7554
73.7534
73.7412
73.7073
73.6348
73.5012
73.2767
72.9247
72.4061
71.7021
70.8075
69.7111
68.4117
66.9192
65.2542
63.4334
61.5364
59.6252
57.7036
55.7704
53.8244
51.8612
49.6762
47.2345
44.7799
42.3503
39.9635
37.6277
35.3393
73.7857
73.7996
73.8183
73.8246
73.7726
73.7651
73.7632
73.767
73.7749
73.7835
73.7865
73.7741
73.7319
73.6396
73.4699
73.1885
72.7542
72.1249
71.2849
70.2348
68.9686
67.4918
65.8214
63.9857
62.0068
59.9731
57.9487
55.9335
53.9261
51.9203
49.7076
47.2496
44.7858
42.3456
39.9537
37.6155
35.3391
33.1228
73.7748
73.7875
73.8005
73.8183
73.824
73.7692
73.7701
73.7781
73.7922
73.8101
73.8266
73.8336
73.8186
73.7636
73.6441
73.4283
73.0771
72.5449
71.7874
70.7936
69.5723
68.1238
66.461
64.609
62.6037
60.4725
58.3112
56.184
54.0892
52.0189
49.7617
47.2747
44.7954
42.3468
39.9449
37.6038
35.3273
33.1216
30.9859
73.7727
73.7779
73.7896
73.8015
73.8182
73.8233
73.7762
73.7879
73.8076
73.8337
73.8622
73.8865
73.8957
73.8743
73.8004
73.645
73.3713
72.9355
72.2881
71.3837
70.2187
68.8113
67.1696
65.315
63.2808
61.1102
58.8352
56.5575
54.3419
52.1792
49.8542
47.3204
44.8126
42.3493
39.9405
37.591
35.3134
33.11
30.9836
28.9346
73.7813
73.7775
73.7813
73.7916
73.8024
73.8181
73.8227
73.7965
73.8212
73.8546
73.8938
73.9333
73.9643
73.973
73.9402
73.8397
73.6376
73.2921
72.7549
71.9738
70.9037
69.5502
67.9435
66.1002
64.0509
61.837
59.5088
57.1013
54.7222
52.4306
50.0081
47.4027
44.8474
42.3567
39.9346
37.5801
35.2962
33.0936
30.9721
28.9313
26.9733
73.8038
73.7883
73.7824
73.7847
73.7936
73.8033
73.8181
73.8221
73.8333
73.8732
73.9218
73.9749
74.0252
74.0608
74.0649
74.014
73.8772
73.6156
73.1825
72.5257
71.5911
70.3363
68.7785
66.9613
64.911
62.6674
60.2801
57.8044
55.2799
52.8127
50.2537
47.5447
44.9159
42.3782
39.9306
37.565
35.2786
33.0721
30.9531
28.9199
26.969
25.1044
73.8434
73.8136
73.7951
73.7875
73.788
73.7956
73.8042
73.818
73.8216
73.8896
73.9467
74.0118
74.0792
74.1388
74.1759
74.1696
74.0921
73.9072
73.5711
73.0325
72.2364
71.1285
69.6706
67.8944
65.8582
63.5988
61.1651
58.6135
56.0052
53.3777
50.6324
47.7779
45.0415
42.4298
39.9365
37.5482
35.2536
33.0473
30.9272
28.8982
26.9575
25.0993
23.3291
73.9033
73.8569
73.8228
73.8022
73.7924
73.7913
73.7975
73.8051
73.818
73.8211
73.9687
74.0446
74.1271
74.208
74.2746
74.3083
74.2842
74.1692
73.9223
73.4945
72.831
71.8749
70.5736
68.8957
66.8894
64.6294
62.1625
59.5461
56.8441
54.1169
51.1974
48.1446
45.2562
42.5349
39.9684
37.5369
35.2229
33.0119
30.8951
28.8678
26.9331
25.0875
23.3232
21.6473
73.987
73.9215
73.869
73.8323
73.809
73.7972
73.7944
73.7994
73.806
73.8179
73.8207
74.0737
74.1698
74.2695
74.3622
74.4317
74.4556
74.4038
74.2383
73.913
73.3744
72.565
71.4278
69.9139
68.0012
65.7565
63.2714
60.6024
57.8159
54.9764
51.9423
48.6982
45.602
42.7255
40.0496
37.547
35.1932
32.9667
30.8489
28.8283
26.8983
25.0604
23.3113
21.6407
20.0579
74.0977
74.0112
73.9372
73.8815
73.8416
73.8157
73.8018
73.7975
73.8011
73.8069
73.8179
73.8203
74.2075
74.3242
74.4401
74.5414
74.6082
74.6133
74.5218
74.2904
73.868
73.1978
72.2205
70.8813
69.1372
66.9777
64.4901
61.7825
58.9222
55.9776
52.8143
49.4355
46.132
43.0423
40.2111
37.6014
35.1799
32.9176
30.7887
28.7713
26.8514
25.0215
23.2815
21.6285
20.0506
18.5589
74.2387
74.1296
74.0312
73.9534
73.8937
73.8504
73.822
73.8063
73.8004
73.8028
73.8077
73.8179
73.8199
74.3727
74.5095
74.639
74.7441
74.8002
74.7754
74.6295
74.3142
73.7742
72.95
71.7828
70.2216
68.2319
65.8172
63.086
60.1642
57.123
53.8362
50.3057
46.8462
43.5373
40.4916
37.7292
35.2052
32.8799
30.7199
28.6959
26.7836
24.9673
23.2385
21.5962
20.0382
18.5511
17.1479
74.4125
74.2801
74.1548
74.0521
73.9692
73.9053
73.8589
73.8281
73.8105
73.8032
73.8045
73.8085
73.8178
73.8196
74.571
74.7261
74.865
74.9667
75.0019
74.9335
74.7161
74.2967
73.6166
72.6152
71.2362
69.4349
67.1876
64.513
61.5434
58.4158
55.012
51.3329
47.6974
44.2143
40.9414
37.9671
35.2957
32.8743
30.6572
28.6072
26.6931
24.8888
23.1771
21.5493
20.0035
18.5384
17.1396
15.8218
74.6213
74.4659
74.3117
74.1814
74.0723
73.9842
73.9163
73.8669
73.8339
73.8145
73.8058
73.806
73.8093
73.8178
73.8194
74.8031
74.973
75.115
75.204
75.2055
75.0771
74.7684
74.2225
73.3786
72.177
70.5657
68.5087
65.9948
63.0616
59.8592
56.347
52.5226
48.7094
45.0299
41.5681
38.3628
35.4857
32.9247
30.6193
28.5192
26.5846
24.7833
23.0881
21.4809
19.9528
18.5013
17.1266
15.8129
14.5771
74.8658
74.6892
74.5051
74.3452
74.207
74.0913
73.9982
73.9266
73.8744
73.8393
73.8183
73.8083
73.8075
73.81
73.8178
73.8191
75.0685
75.2477
75.3842
75.4484
75.4005
75.1929
74.7709
74.0745
73.0426
71.6182
69.7561
67.4307
64.6474
61.4572
57.8465
53.8826
49.8901
46.0071
42.332
38.9271
35.8199
33.0627
30.6277
28.4484
26.4715
24.6555
22.9682
21.3818
19.8777
18.4472
17.0873
15.7997
14.5678
13.4105
75.146
74.9517
74.7377
74.5471
74.3774
74.2309
74.1091
74.0114
73.9363
73.8815
73.8443
73.8218
73.8106
73.8087
73.8106
73.8178
73.819
75.3649
75.5456
75.6654
75.6899
75.5741
75.2657
74.7062
73.8344
72.5904
70.9222
68.7932
66.1926
63.1362
59.5174
55.4213
51.2495
47.1554
43.2547
39.6241
36.3107
33.3292
30.7107
28.4135
26.3674
24.5175
22.8217
21.2478
19.7688
18.3656
17.0299
15.7583
14.5543
13.4007
12.3183
75.4596
75.2537
75.0115
74.79
74.5872
74.4072
74.2531
74.1255
74.0235
73.9451
73.8879
73.8489
73.825
73.8127
73.8098
73.8111
73.8178
73.8188
75.6881
75.8599
75.9488
75.9157
75.7109
75.2776
74.5553
73.4826
72.0034
70.0725
67.666
64.7811
61.2849
57.1491
52.7991
48.4867
44.3464
40.4728
36.9267
33.7369
30.9044
28.4395
26.2886
24.3804
22.6591
21.0832
19.6214
18.2474
16.9421
15.6978
14.511
13.387
12.3078
11.2962
75.8026
75.5936
75.3269
75.0763
74.8398
74.6243
74.4348
74.2735
74.1405
74.0345
73.9532
73.8938
73.8531
73.8278
73.8144
73.8108
73.8116
73.8178
73.8187
76.0316
76.1813
76.2219
76.1106
75.7928
75.209
74.2974
72.9993
71.2634
69.0554
66.3576
63.0287
58.992
54.5514
50.0134
45.6186
41.4824
37.6824
34.2591
31.2211
28.5566
26.2566
24.2577
22.4895
20.8969
19.4395
18.0872
16.8151
15.6041
14.4477
13.3418
12.2938
11.2847
10.3449
76.1686
75.9685
75.6834
75.407
75.1379
74.8856
74.6583
74.4599
74.292
74.1541
74.0444
73.9604
73.8989
73.8566
73.8302
73.8159
73.8116
73.812
73.8178
73.8186
76.3861
76.4974
76.4696
76.2563
75.7999
75.0383
73.9116
72.3642
70.3539
67.8514
64.7106
60.8229
56.4315
51.7472
47.0826
42.6624
38.5848
34.9045
31.6386
28.776
26.2945
24.1673
22.3235
20.6957
19.2302
17.8888
16.6428
15.4688
14.3484
13.2759
12.247
11.2708
10.3277
9.55123
76.5486
76.3727
76.0783
75.7821
75.483
75.1943
74.9274
74.6891
74.4825
74.3084
74.166
74.053
73.9666
73.9032
73.8596
73.8322
73.8171
73.8122
73.8124
73.8178
73.8185
76.7396
76.7933
76.6736
76.3327
75.7098
74.7436
73.3756
71.5584
69.2537
66.3126
62.5962
58.3052
53.614
48.7499
44.0241
39.6423
35.678
32.1592
29.0803
26.4123
24.1244
22.175
20.4872
18.9983
17.6574
16.4287
15.2851
14.2053
13.1715
12.1788
11.2225
10.3145
9.54513
8.88238
76.9304
76.7983
76.5068
76.1997
75.8754
75.5522
75.2454
74.9649
74.7164
74.5023
74.3227
74.1762
74.0603
73.9716
73.9067
73.8619
73.8338
73.8181
73.8128
73.8127
73.8178
73.8184
77.0771
77.0507
76.8134
76.3165
75.4995
74.3008
72.669
70.5594
67.8214
64.2876
60.1228
55.4824
50.5581
45.5853
40.8698
36.5888
32.7873
29.466
26.5978
24.1384
22.051
20.2814
18.7487
17.396
16.1763
15.0561
14.0108
13.0211
12.0695
11.1525
10.2649
9.53825
8.88947
8.18722
77.2988
77.2343
76.9618
76.6559
76.3141
75.9602
75.6146
75.291
74.998
74.7402
74.5192
74.3347
74.1847
74.0661
73.9756
73.9094
73.8638
73.8351
73.819
73.8133
73.8129
73.8178
73.8183
77.3802
77.2489
76.8654
76.184
75.1436
73.6879
71.767
69.2285
65.8814
61.8624
57.311
52.3922
47.3054
42.2969
37.6588
33.534
29.937
26.842
24.2023
21.9609
20.0772
18.4868
17.1067
15.8866
14.7837
13.7679
12.8165
11.9123
11.0387
10.1935
9.48794
8.8839
8.18764
7.43524
77.6351
77.6671
77.4336
77.1446
76.796
76.4178
76.0364
75.67
75.3309
75.0263
74.7601
74.5331
74.3442
74.191
74.0703
73.9785
73.9114
73.8652
73.8361
73.8196
73.8137
73.8131
73.8178
73.8183
77.6279
77.3641
76.805
75.9085
74.6184
72.8774
70.5307
67.3699
63.5128
59.0863
54.2231
49.0911
43.9082
38.9302
34.4289
30.5075
27.1491
24.302
21.9027
19.8842
18.2042
16.7907
15.5594
14.4672
13.4765
12.5604
11.6983
10.8752
10.0753
9.41619
8.83476
8.17677
7.42816
6.61111
77.9176
78.0793
77.9093
77.6572
77.316
76.9229
76.5108
76.1038
75.7181
75.3647
75.0498
74.7761
74.5437
74.3511
74.1954
74.0732
73.9804
73.9128
73.8663
73.8369
73.8201
73.814
73.8133
73.8178
73.8183
77.7958
77.3709
76.6045
75.4647
73.8929
71.7285
68.7515
65.0695
60.7993
56.0397
50.9199
45.6301
40.4113
35.5252
31.2134
27.5353
24.4419
21.8578
19.7055
17.9109
16.4321
15.1912
14.1038
13.1345
12.2511
11.4299
10.6524
9.90614
9.29439
8.76195
8.12768
7.41274
6.60106
5.71338
78.1207
78.4511
78.3731
78.1824
77.8667
77.4711
77.0364
76.5928
76.1619
75.7586
75.3922
75.0681
74.7878
74.551
74.3554
74.1981
74.0749
73.9816
73.9137
73.8669
73.8374
73.8205
73.8142
73.8134
73.8178
73.8182
77.8574
77.2407
76.2369
74.8178
72.8245
70.0283
66.531
62.4418
57.8267
52.7753
47.4415
42.0462
36.8513
32.116
28.0413
24.6391
21.83
19.518
17.6148
16.0422
14.7599
13.6859
12.7369
11.8851
11.1037
10.3724
9.67495
9.12061
8.63739
8.05273
7.36211
6.58431
5.70211
4.73912
78.2165
78.759
78.8058
78.7056
78.438
78.0562
77.6098
77.1362
76.6632
76.2103
75.791
75.4132
75.0811
74.7952
74.5549
74.3575
74.1992
74.0755
73.982
73.914
73.8672
73.8376
73.8207
73.8144
73.8135
73.8178
73.8182
77.7831
76.9449
75.6642
73.8236
71.2032
67.8968
64.0055
59.5665
54.6329
49.3193
43.8138
38.3689
33.2602
28.7327
24.9369
21.8366
19.3246
17.2885
15.6328
14.2775
13.1853
12.2717
11.4552
10.7151
10.0303
9.3841
8.88258
8.45954
7.92513
7.28397
6.53193
5.68494
4.72695
3.68191
78.1729
78.9775
79.1852
79.2095
79.0168
78.6694
78.2258
77.7316
77.2217
76.7215
76.2488
75.8152
75.4274
75.0884
74.7985
74.556
74.3576
74.1989
74.0752
73.9818
73.914
73.8672
73.8377
73.8209
73.8146
73.8135
73.8178
73.8183
77.5413
76.4426
74.7408
72.281
69.166
65.4829
61.2415
56.4652
51.2307
45.6861
40.0576
34.6252
29.6671
25.4015
21.9208
19.1414
16.9335
15.1728
13.7599
12.6152
11.7057
10.9454
10.2547
9.62057
9.02722
8.5829
8.21591
7.74275
7.15282
6.45031
5.63093
4.70887
3.66916
2.53467
77.9533
79.0783
79.4858
79.6734
79.5874
79.299
78.8766
78.3747
77.8358
77.2922
76.7673
76.2769
75.8308
75.4346
75.0907
74.7982
74.5547
74.3559
74.1974
74.0741
73.981
73.9134
73.8669
73.838
73.8213
73.8147
73.8135
73.8178
73.8183
77.088
75.5865
73.2788
70.3402
66.8667
62.837
58.2467
53.1406
47.6255
41.889
36.1948
30.8425
26.0994
22.1454
19.0089
16.5634
14.6617
13.1722
11.9949
11.0527
10.3178
9.70305
9.13161
8.59761
8.21394
7.90871
7.49304
6.96533
6.31515
5.54601
4.65322
3.64993
2.52168
1.29029
77.5077
79.0307
79.6794
80.0734
80.1308
79.9309
79.5523
79.0589
78.502
77.9216
77.3473
76.8003
76.2942
75.8377
75.4355
75.0885
74.7948
74.5511
74.3528
74.1949
74.0722
73.9796
73.9125
73.8671
73.8385
73.8215
73.8147
73.8135
73.8178
73.8183
76.2721
74.2059
71.4364
68.1543
64.3402
59.9561
55.0166
49.5913
43.8235
37.9436
32.2496
27.0488
22.5832
18.9839
16.214
14.1095
12.5116
11.2863
10.3357
9.58704
9.01775
8.54068
8.08194
7.76822
7.52958
7.17768
6.70897
6.12198
5.40654
4.56507
3.59261
2.50166
1.27717
-0.0588367
78.7921
76.6846
79.733
80.383
80.6247
80.5478
80.2401
79.7755
79.2149
78.6069
77.9884
77.3866
76.82
76.3008
75.8367
75.4308
75.0824
74.7887
74.5457
74.3483
74.1914
74.0695
73.9776
73.9125
73.868
73.8388
73.8215
73.8146
73.8134
73.8178
73.8184
74.943
72.4619
69.3623
65.7448
61.5757
56.8317
51.5454
45.8178
39.8345
33.8699
28.249
23.2725
19.1423
15.9334
13.5453
11.7833
10.4833
9.51309
8.77933
8.21426
7.80155
7.45437
7.2309
7.07031
6.78755
6.38473
5.85834
5.20713
4.42096
3.5011
2.44244
1.25659
-0.0721186
-1.52076
79.6078
78.2193
75.3397
80.57
81.0446
81.1291
80.9244
80.5133
79.9672
79.3438
78.6887
78.0359
77.4096
76.8265
76.2977
75.829
75.4214
75.073
74.7803
74.5386
74.3427
74.1869
74.066
73.9774
73.9138
73.8684
73.8388
73.8213
73.8144
73.8133
73.8178
73.8185
73.2659
70.4967
67.068
63.0953
58.5624
53.4548
47.8292
41.824
35.6725
29.692
24.2231
19.542
15.7982
13.0071
11.0089
9.58632
8.57554
7.84982
7.32184
6.93024
6.66514
6.57375
6.51482
6.31365
5.98265
5.5244
4.93557
4.2148
3.35193
2.34728
1.19529
-0.0933208
-1.53418
-3.1038
80.5981
79.1829
77.2002
73.6633
81.3601
81.6522
81.5864
81.2585
80.7489
80.1261
79.4447
78.7469
78.0634
77.4163
76.8211
76.2864
75.8155
75.4079
75.0607
74.7699
74.5302
74.3357
74.1814
74.0653
73.9792
73.9143
73.8684
73.8385
73.8209
73.8142
73.8131
73.8178
73.8185
71.3768
68.3156
64.5329
60.1943
55.2902
49.8192
43.8671
37.6178
31.3569
25.4388
20.203
15.8844
12.5696
10.2147
8.60811
7.51792
6.78569
6.29253
5.95896
5.73076
5.7442
5.83288
5.73849
5.4929
5.10939
4.59109
3.93464
3.13848
2.1926
1.09629
-0.156676
-1.55609
-3.11729
-4.81647
81.5386
80.3615
78.316
75.8619
71.7878
82.0885
82.2054
81.994
81.548
80.9452
80.2512
79.5169
78.7807
78.071
77.4086
76.8057
76.268
75.797
75.3909
75.0461
74.7578
74.52
74.3276
74.18
74.0677
73.9799
73.9143
73.868
73.8379
73.8206
73.814
73.8129
73.8178
73.8186
69.2765
65.894
61.7455
57.0315
51.7519
45.9207
39.6613
33.2118
26.9119
21.1422
16.221
12.3246
9.47159
7.56283
6.34399
5.57611
5.10982
4.83676
4.6863
4.75913
4.9696
5.02972
4.89647
4.6025
4.16206
3.57869
2.84901
1.97129
0.935659
-0.259642
-1.62147
-3.13994
-4.82995
-6.66747
82.4095
81.4938
79.7215
77.1325
74.3128
69.7097
82.7547
82.701
82.3492
81.7908
81.1011
80.3418
79.5597
78.7906
78.0613
77.3887
76.7817
76.2436
75.7743
75.3711
75.0295
74.7435
74.5083
74.3251
74.1833
74.0688
73.9799
73.9137
73.8671
73.8377
73.8204
73.8136
73.8126
73.8178
73.8188
66.9354
63.2212
58.6966
53.6002
47.9417
41.7566
35.2164
28.6227
22.3667
16.8371
12.3085
8.88485
6.51581
5.05525
4.21575
3.75726
3.54339
3.47783
3.65589
3.94217
4.12996
4.15875
3.98308
3.63665
3.13451
2.48062
1.67177
0.705924
-0.426653
-1.72859
-3.20733
-4.85331
-6.68086
-8.66527
83.2103
82.5502
81.086
78.771
75.7441
72.5639
67.393
83.3548
83.1355
82.6493
81.9854
81.2156
80.397
79.5734
78.7792
78.0367
77.3584
76.7504
76.2142
75.7483
75.3489
75.0101
74.7274
74.5046
74.3295
74.1847
74.0688
73.9791
73.9125
73.8669
73.8376
73.8201
73.8133
73.8123
73.8178
73.8189
64.3441
60.2905
55.3809
49.8947
43.854
37.3249
30.5402
23.8728
17.7555
12.5603
8.49519
5.58326
3.71055
2.69343
2.22056
2.05693
2.0815
2.37802
2.78986
3.05673
3.21968
3.21421
2.99247
2.58916
2.02013
1.28994
0.395558
-0.665399
-1.90242
-3.31885
-4.92272
-6.70488
-8.67809
-10.822
83.9354
83.5308
82.3678
80.3751
77.6165
74.1844
70.5792
64.828
83.8843
83.5056
82.8924
82.1307
81.2876
80.417
79.5615
78.75
77.9996
77.3194
76.7131
76.1807
75.7192
75.3233
74.9884
74.722
74.5103
74.3313
74.1847
74.0677
73.9773
73.9124
73.8672
73.8373
73.8196
73.8128
73.812
73.8178
73.8191
61.498
57.0987
51.7941
45.9083
39.4819
32.6233
25.6436
18.9904
13.1168
8.34832
4.80731
2.43441
1.06095
0.476142
0.354455
0.470105
0.898655
1.45406
1.85152
2.09718
2.23289
2.19011
1.91834
1.45333
0.811898
-0.000755947
-0.987407
-2.15077
-3.49996
-5.03889
-6.77613
-8.70221
-10.8308
-13.5427
84.579
84.429
83.5696
81.8917
79.4574
76.3128
72.4159
68.3508
62.0106
84.3393
83.8088
83.0771
82.2252
81.3173
80.4062
79.528
78.7056
77.9519
77.2732
76.6709
76.1437
75.6863
75.2949
74.981
74.7294
74.5126
74.3313
74.1833
74.0653
73.9776
73.9134
73.8672
73.8368
73.8189
73.8122
73.8116
73.8178
73.8193
58.3965
53.644
47.9303
41.6317
34.8148
27.6496
20.5436
14.0105
8.49228
4.2364
1.26763
-0.551043
-1.43137
-1.59948
-1.38741
-0.813728
-0.0946743
0.453361
0.835122
1.05751
1.1635
1.0801
0.753956
0.222135
-0.497576
-1.39925
-2.48522
-3.7585
-5.22774
-6.89711
-8.77542
-10.8549
-13.5565
-16.7885
85.136
85.2363
84.6852
83.3247
81.2062
78.4053
74.8237
70.4263
65.8804
58.9415
84.7164
84.0431
83.2013
82.2689
81.3098
80.3692
79.4763
78.6487
77.8957
77.2211
76.6247
76.102
75.6498
75.2848
74.9903
74.7323
74.5126
74.3295
74.1799
74.066
73.9796
73.9139
73.8669
73.836
73.8181
73.8115
73.8111
73.8178
73.8196
55.0401
49.9232
43.7807
37.0492
29.8387
22.406
15.2652
8.9748
3.92484
0.257165
-2.10543
-3.36697
-3.76724
-3.53771
-2.79679
-1.89148
-1.17004
-0.630062
-0.265471
-0.0685109
0.00502733
-0.122625
-0.507741
-1.11183
-1.91608
-2.91361
-4.10622
-5.49709
-7.09411
-8.90152
-10.9281
-13.5871
-16.8065
-20.103
85.6022
85.9447
85.7051
84.6688
82.8672
80.3997
77.1857
73.1331
68.2169
63.1749
55.623
85.0129
84.2059
83.2648
82.2679
81.2708
80.3104
79.4095
78.5813
77.8324
77.1642
76.5728
76.0559
75.6366
75.2966
74.994
74.7323
74.5103
74.3251
74.1814
74.0695
73.981
73.914
73.8662
73.835
73.817
73.8107
73.8105
73.8178
73.8199
51.4284
45.9302
39.3292
32.1407
24.5443
16.9056
9.84513
3.93113
-0.542088
-3.56059
-5.29889
-6.01071
-5.94965
-5.10621
-3.97952
-3.05771
-2.33375
-1.80253
-1.45663
-1.28743
-1.24935
-1.42511
-1.87413
-2.55631
-3.45163
-4.55211
-5.85886
-7.37489
-9.10719
-11.0591
-13.6663
-16.8397
-20.1157
-23.4215
85.9748
86.5471
86.6195
85.9133
84.4355
82.3002
79.4444
75.7774
71.2423
65.797
60.2453
52.0564
85.2254
84.2964
83.2745
82.2291
81.2056
80.2335
79.3303
78.5058
77.7636
77.1006
76.5155
76.039
75.6512
75.3011
74.994
74.7293
74.5045
74.3276
74.1869
74.0722
73.9818
73.9136
73.8651
73.8337
73.8158
73.8097
73.8099
73.8178
73.8202
47.5583
41.6538
34.5523
26.8805
18.9204
11.1698
4.33111
-1.06745
-4.86696
-7.19396
-8.30443
-8.4828
-7.71605
-6.42207
-5.25874
-4.31918
-3.59236
-3.07057
-2.745
-2.60613
-2.60668
-2.83468
-3.35286
-4.11923
-5.1124
-6.32311
-7.75144
-9.40007
-11.2737
-13.8076
-16.9267
-20.1449
-23.4323
-26.727
86.2491
87.0377
87.4186
87.0471
85.9003
84.1006
81.6047
78.3123
74.1805
69.1618
63.1825
57.1023
48.2412
85.352
84.3225
83.2389
82.1587
81.1186
80.1417
79.2413
78.4236
77.6868
77.0306
76.4943
76.0569
75.6567
75.301
74.9903
74.7219
74.5083
74.3358
74.1915
74.074
73.9819
73.9127
73.8637
73.832
73.8143
73.8086
73.8092
73.8178
73.8206
43.4223
37.0672
29.4073
21.2275
12.9531
5.22559
-1.2203
-5.96549
-9.01325
-10.6257
-11.1183
-10.4841
-9.19707
-7.84461
-6.64174
-5.68271
-4.95256
-4.4409
-4.13746
-4.03159
-4.07418
-4.35887
-4.9517
-5.80856
-6.90657
-8.23474
-9.79206
-11.5793
-14.0351
-17.0801
-20.2312
-23.4619
-26.737
-30.0084
86.4222
87.41
88.0928
88.0592
87.2508
85.7898
83.6595
80.7442
77.0008
72.4054
66.9102
60.3924
53.7573
44.1764
85.4016
84.2942
83.1654
82.0623
81.0139
80.0382
79.1444
78.332
77.6023
77.0044
76.5162
76.0636
75.6567
75.2965
74.9809
74.7274
74.5201
74.3428
74.1949
74.0752
73.9815
73.9113
73.8618
73.83
73.8126
73.8074
73.8084
73.8178
73.8211
38.9999
32.1284
23.8377
15.1371
6.64072
-0.883454
-6.74435
-10.7088
-12.9502
-13.8447
-13.3972
-12.1612
-10.797
-9.38158
-8.13556
-7.15509
-6.42113
-5.92044
-5.64095
-5.57091
-5.65921
-6.00521
-6.67838
-7.63224
-8.84202
-10.2949
-11.9873
-14.3573
-17.324
-20.3893
-23.5492
-26.7679
-30.0173
-33.2453
86.5038
87.6587
88.6297
88.938
88.4752
87.3563
85.5963
83.0664
79.711
75.5192
70.4715
64.5103
57.4462
50.2241
39.8529
85.386
84.2204
83.0606
81.9446
80.8952
79.9254
79.0365
78.2313
77.5704
77.0309
76.5241
76.0636
75.6512
75.2847
74.9885
74.7437
74.5304
74.3484
74.1974
74.0754
73.9803
73.9092
73.8594
73.8277
73.8105
73.8059
73.8076
73.8179
73.8216
34.261
26.7847
17.7781
8.57181
0.00229938
-7.09247
-12.1706
-15.246
-16.6542
-16.4535
-15.3055
-13.9716
-12.5241
-11.0401
-9.74702
-8.74312
-8.00494
-7.51599
-7.26236
-7.23116
-7.36899
-7.78109
-8.54045
-9.59778
-10.9262
-12.5098
-14.7851
-17.6659
-20.6438
-23.7129
-26.8572
-30.049
-33.2531
-36.4156
86.5079
87.7949
89.0159
89.6672
89.5612
88.7874
87.402
85.2668
82.3061
78.5119
73.8864
68.4032
61.9867
54.3635
46.5111
35.2505
85.316
84.1091
82.9303
81.8101
80.7654
79.7998
78.9179
78.1929
77.6021
77.0403
76.5241
76.0569
75.6365
75.2949
75.0104
74.7581
74.5388
74.3528
74.1988
74.0748
73.9783
73.9065
73.8565
73.8249
73.8082
73.8044
73.8068
73.8179
73.8221
29.1599
20.9557
11.1442
1.50766
-6.92004
-13.3183
-17.426
-19.5323
-19.6597
-18.6364
-17.3633
-15.9234
-14.3853
-12.8269
-11.4827
-10.4535
-9.71054
-9.23417
-9.00843
-9.01913
-9.21043
-9.69356
-10.5449
-11.7121
-13.1649
-15.331
-18.1156
-20.9997
-23.977
-27.0277
-30.1395
-33.2851
-36.4221
-39.4976
86.4469
87.8359
89.2595
90.2258
90.4884
90.0711
89.0615
87.3319
84.776
81.3815
77.1641
72.1278
66.2278
59.3638
51.1649
42.6202
30.3397
85.201
83.9673
82.7799
81.6625
80.6207
79.6614
78.8722
78.2307
77.6132
77.0403
76.5161
76.0388
75.6499
75.3237
75.0298
74.7702
74.5458
74.3559
74.199
74.073
73.9754
73.903
73.8529
73.8217
73.8057
73.8027
73.8059
73.8179
73.8226
23.6251
14.5186
3.83733
-6.06466
-14.0529
-19.4606
-22.4354
-23.0148
-22.1712
-20.9872
-19.5784
-18.0229
-16.3864
-14.7479
-13.3489
-12.2922
-11.5441
-11.0813
-10.8854
-10.9411
-11.1899
-11.749
-12.698
-13.9803
-16.0136
-18.6855
-21.4652
-24.3439
-27.3013
-30.3157
-33.3763
-36.4543
-39.5029
-42.4702
86.3321
87.7973
89.3794
90.6173
91.2287
91.1851
90.5596
89.2455
87.1085
84.1208
80.3067
75.6924
70.2717
63.9731
56.667
47.8734
38.5556
25.0798
85.0493
83.8014
82.6139
81.4976
80.461
79.6079
78.9168
78.2436
77.6132
77.0308
76.4941
76.056
75.6868
75.3494
75.0465
74.7805
74.5511
74.3575
74.1979
74.0701
73.9714
73.8987
73.8488
73.8181
73.803
73.801
73.805
73.818
73.8232
17.5455
7.28757
-4.25926
-14.112
-21.2942
-25.3846
-26.527
-25.92
-24.8697
-23.5123
-21.9552
-20.2743
-18.5322
-16.8083
-15.3508
-14.2648
-13.5113
-13.0628
-12.899
-13.0028
-13.313
-13.9528
-15.004
-16.863
-19.3952
-22.052
-24.8203
-27.6772
-30.5966
-33.557
-36.5454
-39.5347
-42.4741
-45.3123
86.1734
87.6926
89.3947
90.8595
91.7816
92.0963
91.8702
90.9897
89.2883
86.7209
83.3112
79.105
74.1249
68.3475
61.667
53.9241
44.512
34.3194
19.4132
84.8686
83.6168
82.4277
81.3149
80.3987
79.6602
78.9319
78.2436
77.602
77.0042
76.5157
76.1026
75.72
75.3717
75.0611
74.7888
74.5546
74.3573
74.1952
74.0658
73.9664
73.8936
73.8441
73.8143
73.8002
73.7992
73.8041
73.818
73.8239
10.7325
-1.05132
-13.1842
-22.5961
-28.4035
-30.2506
-29.9406
-29.0348
-27.7571
-26.2124
-24.4953
-22.6802
-20.826
-19.0118
-17.4924
-16.3757
-15.6165
-15.1834
-15.0535
-15.2084
-15.584
-16.3081
-17.9299
-20.2775
-22.7804
-25.4173
-28.1605
-30.9778
-33.8421
-36.729
-39.6253
-42.5053
-45.3147
-48.0039
85.98
87.5342
89.323
90.9702
92.1651
92.802
92.9528
92.5323
91.2971
89.1688
86.1731
82.3675
77.8039
72.4913
66.3845
59.3386
51.1628
41.1025
29.9246
13.2758
84.6656
83.4086
82.2207
81.2433
80.4598
79.6776
78.9319
78.2306
77.5701
77.0309
76.5736
76.1446
75.749
75.3914
75.0732
74.7948
74.5559
74.3552
74.1908
74.0601
73.9602
73.8877
73.839
73.8103
73.7973
73.7973
73.8032
73.8181
73.8246
2.83803
-10.8398
-23.0945
-31.0841
-34.3059
-34.3035
-33.5867
-32.3597
-30.8281
-29.0836
-27.1972
-25.2403
-23.2686
-21.3603
-19.7764
-18.6277
-17.8628
-17.4461
-17.3522
-17.5609
-18.0047
-19.2901
-21.3858
-23.6855
-26.1564
-28.762
-31.4628
-34.2242
-37.0152
-39.8096
-42.5942
-45.3449
-48.0051
-50.5262
85.7595
87.333
89.1802
90.9672
92.3972
93.3213
93.8027
93.8213
93.0986
91.4483
88.8837
85.4814
81.3161
76.4328
70.8211
64.4122
57.0147
48.413
37.6813
25.4313
6.59196
84.4351
83.1763
82.1389
81.3141
80.4797
79.6776
78.9168
78.1927
77.6027
77.1017
76.6259
76.1817
75.7751
75.4083
75.0825
74.7981
74.5547
74.3508
74.1844
74.0528
73.9529
73.8811
73.8335
73.806
73.7942
73.7954
73.8022
73.8182
73.8253
-6.71231
-23.2601
-33.1711
-38.4141
-39.1645
-38.5907
-37.4476
-35.8811
-34.0727
-32.1167
-30.0551
-27.9511
-25.8579
-23.853
-22.2031
-21.0217
-20.2514
-19.8524
-19.7962
-20.0605
-21.061
-22.8001
-24.8233
-27.075
-29.5048
-32.0629
-34.7054
-37.3938
-40.0934
-42.7769
-45.4313
-48.0335
-50.526
-52.8624
85.5073
87.098
88.9811
90.8683
92.4956
93.6727
94.4425
94.8445
94.629
93.5213
91.4304
88.443
84.6697
80.1857
75.0208
69.1432
62.4561
54.724
45.72
34.2966
20.9514
-0.713187
84.1765
83.0839
82.2207
81.3368
80.4797
79.6601
78.8719
78.2318
77.6881
77.1657
76.6723
76.2152
75.7976
75.4216
75.0884
74.7982
74.5506
74.344
74.176
74.044
73.9447
73.874
73.8277
73.8015
73.791
73.7935
73.8013
73.8182
73.8261
-20.4018
-36.8536
-43.1853
-44.5589
-44.2621
-43.061
-41.4758
-39.5701
-37.476
-35.2974
-33.0584
-30.8048
-28.5886
-26.4864
-24.7702
-23.5563
-22.7814
-22.4011
-22.3837
-23.2057
-24.6421
-26.2766
-28.2308
-30.428
-32.8021
-35.2977
-37.8661
-40.4642