/*--------------------------------*- C++ -*----------------------------------*\
  =========                 |
  \\      /  F ield         | OpenFOAM: The Open Source CFD Toolbox
   \\    /   O peration     | Website:  https://openfoam.org
    \\  /    A nd           | Version:  8
     \\/     M anipulation  |
\*---------------------------------------------------------------------------*/
FoamFile
{
    version     2.0;
    format      ascii;
    class       surfaceScalarField;
    location    "0.3";
    object      phi;
}
// * * * * * * * * * * * * * * * * * * * * * * * * * * * * * * * * * * * * * //

dimensions      [0 3 -1 0 0 0 0];

internalField   nonuniform List<scalar> 
31053
(
6.40145e-07
1.27399e-05
8.63161e-07
1.5157e-05
3.57384e-07
1.23825e-05
9.48802e-07
1.75544e-05
5.67568e-07
1.49468e-05
2.7524e-07
1.21072e-05
9.73478e-07
2.02153e-05
6.82328e-07
1.74396e-05
4.71113e-07
1.47509e-05
2.16689e-07
1.18905e-05
9.6486e-07
2.32486e-05
7.41081e-07
2.01566e-05
5.97076e-07
1.73136e-05
3.97003e-07
1.45706e-05
1.72252e-07
1.17183e-05
9.34932e-07
2.66899e-05
7.66172e-07
2.32235e-05
6.72261e-07
2.00814e-05
5.24395e-07
1.71862e-05
3.32878e-07
1.441e-05
1.37929e-07
1.15804e-05
8.89496e-07
3.06654e-05
7.69389e-07
2.66867e-05
7.14384e-07
2.31814e-05
6.05465e-07
2.00003e-05
4.55075e-07
1.7064e-05
2.78663e-07
1.42693e-05
1.10879e-07
1.14695e-05
8.31644e-07
3.51979e-05
7.57186e-07
3.06776e-05
7.34346e-07
2.66667e-05
6.53751e-07
2.31331e-05
5.36155e-07
1.99192e-05
3.91773e-07
1.69509e-05
2.31681e-07
1.41485e-05
8.8408e-08
1.13811e-05
7.65161e-07
4.03865e-05
7.33744e-07
3.52213e-05
7.38597e-07
3.06734e-05
6.79317e-07
2.66412e-05
5.85203e-07
2.30841e-05
4.69143e-07
1.98419e-05
3.3303e-07
1.68496e-05
1.8957e-07
1.40473e-05
6.87052e-08
1.13124e-05
6.92638e-07
4.63525e-05
7.00217e-07
4.042e-05
7.31015e-07
3.52289e-05
6.88162e-07
3.06645e-05
6.11232e-07
2.66152e-05
5.15671e-07
2.30375e-05
4.03659e-07
1.97712e-05
2.77198e-07
1.6762e-05
1.50549e-07
1.39654e-05
5.06235e-08
1.12617e-05
6.15916e-07
5.32167e-05
6.58126e-07
4.63946e-05
7.11937e-07
4.04391e-05
6.83217e-07
3.52338e-05
6.20157e-07
3.06556e-05
5.38991e-07
2.65918e-05
4.4491e-07
2.29963e-05
3.38579e-07
1.97099e-05
2.22903e-07
1.66896e-05
1.13325e-07
1.39027e-05
3.33818e-08
1.12284e-05
5.36959e-07
6.1059e-05
6.09275e-07
5.32656e-05
6.81812e-07
4.64247e-05
6.67364e-07
4.04549e-05
6.15356e-07
3.52386e-05
5.44863e-07
3.06497e-05
4.62863e-07
2.65739e-05
3.72164e-07
2.29627e-05
2.72781e-07
1.966e-05
1.69044e-07
1.66339e-05
7.69498e-08
1.38592e-05
1.64699e-08
1.12119e-05
4.57622e-07
7.00613e-05
5.55235e-07
6.1113e-05
6.41735e-07
5.33056e-05
6.41571e-07
4.64505e-05
5.99071e-07
4.04712e-05
5.36747e-07
3.52467e-05
4.62883e-07
3.06497e-05
3.82383e-07
2.65637e-05
2.96381e-07
2.29391e-05
2.05257e-07
1.96238e-05
1.14813e-07
1.6596e-05
4.07302e-08
1.38349e-05
-2.84171e-10
1.12122e-05
3.79597e-07
8.041e-05
4.9742e-07
7.01192e-05
5.92946e-07
6.11618e-05
6.05895e-07
5.33413e-05
5.72406e-07
4.64772e-05
5.16607e-07
4.04914e-05
4.48341e-07
3.52613e-05
3.7402e-07
3.06581e-05
2.96514e-07
2.65635e-05
2.16549e-07
2.29278e-05
1.35315e-07
1.96033e-05
5.9591e-08
1.65772e-05
4.29197e-09
1.38303e-05
-1.71137e-08
1.12293e-05
3.16771e-07
7.62528e-05
4.3713e-07
8.04703e-05
5.36887e-07
7.01752e-05
5.60656e-07
6.1207e-05
5.35638e-07
5.33781e-05
4.85435e-07
4.65084e-05
4.21085e-07
4.05186e-05
3.50265e-07
3.5285e-05
2.77265e-07
3.06773e-05
2.04208e-07
2.65759e-05
1.31986e-07
2.29311e-05
6.24266e-08
1.96004e-05
3.03171e-09
1.65784e-05
-3.25816e-08
1.38458e-05
-3.42102e-08
1.12635e-05
2.63467e-07
7.62433e-05
3.85468e-07
7.63045e-05
4.75215e-07
8.0532e-05
5.06568e-07
7.02293e-05
4.8886e-07
6.12538e-05
4.4357e-07
5.342e-05
3.81987e-07
4.65475e-05
3.12848e-07
4.0556e-05
2.41547e-07
3.53208e-05
1.7152e-07
3.071e-05
1.04731e-07
2.66031e-05
4.21723e-08
2.29514e-05
-1.36317e-08
1.96171e-05
-5.49951e-08
1.66008e-05
-7.00492e-08
1.38816e-05
-5.15433e-08
1.1315e-05
2.18453e-07
7.6235e-05
3.38772e-07
7.629e-05
4.2062e-07
7.63591e-05
4.44839e-07
8.05937e-05
4.3238e-07
7.02858e-05
3.91092e-07
6.13063e-05
3.31334e-07
5.34706e-05
2.62511e-07
4.65978e-05
1.90925e-07
4.06067e-05
1.21048e-07
3.53712e-05
5.59938e-08
3.07588e-05
-2.441e-09
2.66477e-05
-5.30261e-08
2.29908e-05
-9.28322e-08
1.96549e-05
-1.14454e-07
1.66452e-05
-1.0801e-07
1.39381e-05
-6.89505e-08
1.1384e-05
1.80631e-07
7.62298e-05
2.96641e-07
7.62771e-05
3.69981e-07
7.63406e-05
3.88562e-07
7.64154e-05
3.67054e-07
8.0659e-05
3.28149e-07
7.03487e-05
2.69193e-07
6.13684e-05
1.99438e-07
5.35337e-05
1.25985e-07
4.66627e-05
5.41209e-08
4.06736e-05
-1.21036e-08
3.54393e-05
-6.98619e-08
3.08262e-05
-1.17403e-07
2.67121e-05
-1.53434e-07
2.30514e-05
-1.74894e-07
1.97154e-05
-1.75042e-07
1.67123e-05
-1.46186e-07
1.40153e-05
-8.62976e-08
1.14703e-05
1.49036e-07
7.62216e-05
2.58693e-07
7.62678e-05
3.23248e-07
7.63239e-05
3.35355e-07
7.63938e-05
3.0686e-07
7.64756e-05
2.554e-07
8.07318e-05
1.95684e-07
7.04222e-05
1.23657e-07
6.14442e-05
4.67749e-08
5.36129e-05
-2.88781e-08
4.67457e-05
-9.85326e-08
4.076e-05
-1.58476e-07
3.55279e-05
-2.06114e-07
3.09149e-05
-2.39847e-07
2.67985e-05
-2.58536e-07
2.3135e-05
-2.59226e-07
1.97996e-05
-2.3624e-07
1.68023e-05
-1.84211e-07
1.41133e-05
-1.03324e-07
1.15736e-05
1.22834e-07
7.62162e-05
2.24586e-07
7.62557e-05
2.80305e-07
7.63107e-05
2.85612e-07
7.63736e-05
2.49609e-07
7.64511e-05
1.88291e-07
7.65427e-05
1.11435e-07
8.0816e-05
3.52979e-08
7.05106e-05
-4.67389e-08
6.15377e-05
-1.2807e-07
5.37121e-05
-2.03166e-07
4.68504e-05
-2.67626e-07
4.08692e-05
-3.1811e-07
3.56399e-05
-3.52297e-07
3.10273e-05
-3.69042e-07
2.6909e-05
-3.67434e-07
2.32432e-05
-3.44941e-07
1.99083e-05
-2.97385e-07
1.69155e-05
-2.21603e-07
1.42315e-05
-1.19843e-07
1.16935e-05
1.01217e-07
7.62116e-05
1.93973e-07
7.62468e-05
2.41017e-07
7.6295e-05
2.39508e-07
7.63568e-05
1.95994e-07
7.64272e-05
1.2448e-07
7.65149e-05
3.40853e-08
7.662e-05
-6.49245e-08
8.09163e-05
-1.54409e-07
7.06183e-05
-2.43572e-07
6.16532e-05
-3.26338e-07
5.38353e-05
-3.97496e-07
4.69802e-05
-4.53169e-07
4.10042e-05
-4.90369e-07
3.5778e-05
-5.07483e-07
3.11658e-05
-5.03783e-07
2.70454e-05
-4.7883e-07
2.33771e-05
-4.31008e-07
2.00419e-05
-3.57678e-07
1.70516e-05
-2.57849e-07
1.43695e-05
-1.35517e-07
1.1829e-05
8.47641e-08
6.95985e-05
1.6656e-07
7.6239e-05
2.05227e-07
7.62826e-05
1.97126e-07
7.63374e-05
1.46408e-07
7.64064e-05
6.49068e-08
7.64868e-05
-3.91592e-08
7.65882e-05
-1.56291e-07
7.67114e-05
-2.7536e-07
8.10372e-05
-3.75219e-07
7.07499e-05
-4.68278e-07
6.17952e-05
-5.48686e-07
5.39864e-05
-6.11859e-07
4.71389e-05
-6.54347e-07
4.11682e-05
-6.74122e-07
3.59446e-05
-6.70151e-07
3.13322e-05
-6.42358e-07
2.72089e-05
-5.91277e-07
2.35374e-05
-5.16196e-07
2.02004e-05
-4.16228e-07
1.721e-05
-2.92331e-07
1.45264e-05
-1.50158e-07
1.19791e-05
7.21879e-08
6.25566e-05
1.44123e-07
6.96209e-05
1.72812e-07
7.62714e-05
1.58493e-07
7.63212e-05
1.01085e-07
7.63827e-05
1.01677e-08
7.64611e-05
-1.0715e-07
7.65548e-05
-2.42304e-07
7.66742e-05
-3.84846e-07
7.68209e-05
-5.21928e-07
8.11839e-05
-6.28809e-07
7.09104e-05
-7.21574e-07
6.1968e-05
-7.95101e-07
5.41697e-05
-8.45252e-07
4.73298e-05
-8.69816e-07
4.13639e-05
-8.67512e-07
3.6142e-05
-8.38156e-07
3.1528e-05
-7.82868e-07
2.74005e-05
-7.03034e-07
2.37242e-05
-5.99186e-07
2.03834e-05
-4.72061e-07
1.73897e-05
-3.24541e-07
1.47007e-05
-1.63295e-07
1.21424e-05
6.2401e-08
5.62278e-05
1.2594e-07
6.25748e-05
1.46074e-07
6.96476e-05
1.23622e-07
7.63063e-05
6.0173e-08
7.63621e-05
-3.93483e-08
7.64322e-05
-1.69094e-07
7.65231e-05
-3.21624e-07
7.66341e-05
-4.87318e-07
7.67766e-05
-6.5393e-07
7.69529e-05
-8.0661e-07
8.13617e-05
-9.15989e-07
7.11049e-05
-1.00347e-06
6.21764e-05
-1.06439e-06
5.43888e-05
-1.09611e-06
4.75561e-05
-1.09736e-06
4.15937e-05
-1.06793e-06
3.63718e-05
-1.00912e-06
3.17542e-05
-9.23042e-07
2.76205e-05
-8.12302e-07
2.39374e-05
-6.78536e-07
2.05898e-05
-5.24279e-07
1.75894e-05
-3.53519e-07
1.4891e-05
-1.74167e-07
1.23166e-05
5.46683e-08
5.05397e-05
1.11098e-07
5.62426e-05
1.243e-07
6.25965e-05
9.50624e-08
6.96762e-05
2.37683e-08
7.63427e-05
-8.33829e-08
7.64062e-05
-2.24441e-07
7.64876e-05
-3.93259e-07
7.65947e-05
-5.81232e-07
7.6728e-05
-7.76856e-07
7.68996e-05
-9.6584e-07
7.71121e-05
-1.13036e-06
8.15761e-05
-1.23682e-06
7.13382e-05
-1.31257e-06
6.24246e-05
-1.35475e-06
5.46475e-05
-1.36182e-06
4.78206e-05
-1.33386e-06
4.18597e-05
-1.27249e-06
3.66351e-05
-1.18023e-06
3.20114e-05
-1.06056e-06
2.78688e-05
-9.17093e-07
2.41759e-05
-7.52923e-07
2.08185e-05
-5.71486e-07
1.78074e-05
-3.78616e-07
1.50954e-05
-1.82746e-07
1.24993e-05
4.84775e-08
4.54262e-05
9.88913e-08
5.05519e-05
1.06481e-07
5.62604e-05
7.20533e-08
6.26195e-05
-5.49367e-09
6.97054e-05
-1.2176e-07
7.63811e-05
-2.7281e-07
7.64546e-05
-4.56482e-07
7.65508e-05
-6.65386e-07
7.66789e-05
-8.88937e-07
7.68401e-05
-1.11355e-06
7.70473e-05
-1.3217e-06
7.73034e-05
-1.49334e-06
8.18326e-05
-1.58976e-06
7.16154e-05
-1.64687e-06
6.27167e-05
-1.66317e-06
5.49488e-05
-1.63873e-06
4.81255e-05
-1.57591e-06
4.21631e-05
-1.47781e-06
3.69327e-05
-1.34858e-06
3.22994e-05
-1.19282e-06
2.81445e-05
-1.0156e-06
2.44386e-05
-8.20496e-07
2.10675e-05
-6.12875e-07
1.80416e-05
-3.96338e-07
1.5309e-05
-1.50576e-07
1.26499e-05
4.34603e-08
4.0831e-05
8.87828e-08
4.54363e-05
9.18233e-08
5.05666e-05
5.34976e-08
5.6279e-05
-2.85364e-08
6.26426e-05
-1.51767e-07
6.97355e-05
-3.13937e-07
7.64222e-05
-5.10775e-07
7.65088e-05
-7.38856e-07
7.66243e-05
-9.88734e-07
7.67787e-05
-1.24771e-06
7.69743e-05
-1.49873e-06
7.72243e-05
-1.72183e-06
7.75319e-05
-1.89389e-06
8.21367e-05
-1.97257e-06
7.19411e-05
-2.00293e-06
6.30565e-05
-1.98544e-06
5.52955e-05
-1.92288e-06
4.84724e-05
-1.81946e-06
4.25047e-05
-1.6803e-06
3.72645e-05
-1.51091e-06
3.26175e-05
-1.31747e-06
2.84464e-05
-1.10548e-06
2.47236e-05
-8.79971e-07
2.13346e-05
-6.43441e-07
1.82888e-05
-3.91167e-07
1.55496e-05
-1.0176e-07
1.27517e-05
3.93461e-08
3.67001e-05
8.03712e-08
4.08394e-05
7.97063e-08
4.54484e-05
3.85167e-08
5.05816e-05
-4.66204e-08
5.62971e-05
-1.74595e-07
6.26654e-05
-3.45016e-07
6.97665e-05
-5.55766e-07
7.64672e-05
-8.0096e-07
7.65709e-05
-1.0751e-06
7.67106e-05
-1.36661e-06
7.68976e-05
-1.6591e-06
7.71347e-05
-1.93291e-06
7.74354e-05
-2.16449e-06
7.78025e-05
-2.32963e-06
8.24938e-05
-2.38147e-06
7.23196e-05
-2.37598e-06
6.3447e-05
-2.31695e-06
5.56896e-05
-2.20944e-06
4.88624e-05
-2.06022e-06
4.28847e-05
-1.87605e-06
3.76296e-05
-1.66431e-06
3.29643e-05
-1.43171e-06
2.87726e-05
-1.18492e-06
2.50285e-05
-9.26526e-07
2.16177e-05
-6.56182e-07
1.85538e-05
-3.67092e-07
1.58149e-05
-8.16673e-08
1.28333e-05
3.59359e-08
3.29894e-05
7.33485e-08
3.67071e-05
6.96574e-08
4.08495e-05
2.64061e-08
4.54605e-05
-6.07659e-08
5.05957e-05
-1.91761e-07
5.63143e-05
-3.67609e-07
6.2688e-05
-5.8851e-07
6.97993e-05
-8.51197e-07
7.65175e-05
-1.14716e-06
7.6643e-05
-1.46884e-06
7.68129e-05
-1.80082e-06
7.70393e-05
-2.12388e-06
7.73256e-05
-2.41435e-06
7.76852e-05
-2.64731e-06
7.81202e-05
-2.79642e-06
8.29087e-05
-2.81099e-06
7.27547e-05
-2.76065e-06
6.38907e-05
-2.65206e-06
5.61322e-05
-2.49341e-06
4.92956e-05
-2.29355e-06
4.33022e-05
-2.06155e-06
3.80268e-05
-1.80548e-06
3.33381e-05
-1.5332e-06
2.91209e-05
-1.24965e-06
2.53517e-05
-9.55384e-07
2.19169e-05
-6.55801e-07
1.88425e-05
-3.45565e-07
1.60788e-05
-7.66872e-08
1.291e-05
3.30836e-08
2.96509e-05
6.7461e-08
3.29953e-05
6.13093e-08
3.67155e-05
1.65806e-08
4.08593e-05
-7.17963e-08
4.54716e-05
-2.04495e-07
5.06085e-05
-3.83585e-07
5.63302e-05
-6.11048e-07
6.27105e-05
-8.86409e-07
6.98345e-05
-1.20426e-06
7.65745e-05
-1.55331e-06
7.67275e-05
-1.92215e-06
7.69342e-05
-2.29238e-06
7.72078e-05
-2.64039e-06
7.75517e-05
-2.94077e-06
7.79787e-05
-3.16587e-06
7.84897e-05
-3.28812e-06
8.33859e-05
-3.2551e-06
7.32491e-05
-3.15055e-06
6.43892e-05
-2.98504e-06
5.66238e-05
-2.76939e-06
4.97714e-05
-2.51534e-06
4.3756e-05
-2.23296e-06
3.84543e-05
-1.93162e-06
3.37365e-05
-1.61815e-06
2.94894e-05
-1.29588e-06
2.56921e-05
-9.71684e-07
2.22327e-05
-6.51647e-07
1.91486e-05
-3.34804e-07
1.63369e-05
-8.22486e-08
1.29923e-05
3.06801e-08
2.66504e-05
6.2498e-08
2.96558e-05
5.43566e-08
3.30023e-05
8.56777e-09
3.67235e-05
-8.03775e-08
4.08679e-05
-2.13784e-07
4.54808e-05
-3.94457e-07
5.06193e-05
-6.25711e-07
5.63449e-05
-9.09233e-07
6.27334e-05
-1.24293e-06
6.98732e-05
-1.61916e-06
7.66404e-05
-2.02174e-06
7.68271e-05
-2.43635e-06
7.70782e-05
-2.83982e-06
7.74072e-05
-3.20647e-06
7.78174e-05
-3.50758e-06
7.83204e-05
-3.71352e-06
7.8915e-05
-3.79811e-06
8.39289e-05
-3.70659e-06
7.38051e-05
-3.53911e-06
6.49433e-05
-3.30963e-06
5.71641e-05
-3.03254e-06
5.02886e-05
-2.72112e-06
4.42441e-05
-2.387e-06
3.89097e-05
-2.03924e-06
3.41576e-05
-1.68351e-06
2.9877e-05
-1.32803e-06
2.60485e-05
-9.82726e-07
2.25638e-05
-6.49331e-07
1.94631e-05
-3.33772e-07
1.65885e-05
-1.11465e-07
1.31037e-05
2.86412e-08
2.3956e-05
5.829e-08
2.66546e-05
4.85432e-08
2.96616e-05
2.00614e-09
3.30088e-05
-8.70417e-08
3.67302e-05
-2.20415e-07
4.08745e-05
-4.01432e-07
4.54878e-05
-6.34377e-07
5.0628e-05
-9.22573e-07
5.63582e-05
-1.26651e-06
6.2757e-05
-1.66249e-06
6.99165e-05
-2.0985e-06
7.67172e-05
-2.55409e-06
7.69448e-05
-3.01017e-06
7.72485e-05
-3.44116e-06
7.76419e-05
-3.81748e-06
7.81273e-05
-4.10776e-06
7.87147e-05
-4.28323e-06
7.94002e-05
-4.31838e-06
8.45407e-05
-4.15806e-06
7.44241e-05
-3.91913e-06
6.55528e-05
-3.62016e-06
5.77517e-05
-3.27772e-06
5.08453e-05
-2.90712e-06
4.47642e-05
-2.52034e-06
3.93908e-05
-2.1258e-06
3.45999e-05
-1.73267e-06
3.02816e-05
-1.35239e-06
2.64182e-05
-9.91913e-07
2.29064e-05
-6.50261e-07
1.97796e-05
-4.15634e-07
1.68926e-05
-1.20288e-07
1.3224e-05
2.6902e-08
2.15337e-05
5.47034e-08
2.39596e-05
4.36577e-08
2.66595e-05
-3.37828e-09
2.9667e-05
-9.22061e-08
3.3014e-05
-2.2501e-07
3.67348e-05
-4.05467e-07
4.08786e-05
-6.38542e-07
4.5492e-05
-9.28768e-07
5.06342e-05
-1.27862e-06
5.63703e-05
-1.68749e-06
6.2782e-05
-2.14795e-06
6.99659e-05
-2.64424e-06
7.68073e-05
-3.14937e-06
7.7084e-05
-3.64192e-06
7.74493e-05
-4.09183e-06
7.79162e-05
-4.46625e-06
7.84858e-05
-4.734e-06
7.91654e-05
-4.86636e-06
7.99481e-05
-4.84057e-06
8.52232e-05
-4.60118e-06
7.51061e-05
-4.28402e-06
6.62166e-05
-3.91075e-06
5.83847e-05
-3.5006e-06
5.14387e-05
-3.06997e-06
4.53139e-05
-2.63071e-06
3.98957e-05
-2.19368e-06
3.50609e-05
-1.77075e-06
3.07e-05
-1.3717e-06
2.67979e-05
-9.99667e-07
2.32558e-05
-8.05532e-07
2.01695e-05
-4.17126e-07
1.71895e-05
-1.30325e-07
1.33544e-05
2.54111e-08
1.93535e-05
5.16324e-08
2.15368e-05
3.95305e-08
2.39638e-05
-7.80439e-09
2.66639e-05
-9.61936e-08
2.9671e-05
-2.28055e-07
3.3017e-05
-4.07312e-07
3.67366e-05
-6.39385e-07
4.08794e-05
-9.29677e-07
4.54929e-05
-1.28215e-06
5.06377e-05
-1.69859e-06
5.63814e-05
-2.17521e-06
6.28092e-05
-2.70154e-06
7.00232e-05
-3.25571e-06
7.69136e-05
-3.80623e-06
7.72483e-05
-4.32719e-06
7.76846e-05
-4.78464e-06
7.82346e-05
-5.14526e-06
7.8897e-05
-5.37715e-06
7.96762e-05
-5.45376e-06
8.05613e-05
-5.35526e-06
8.59773e-05
-5.02846e-06
7.58506e-05
-4.62706e-06
6.6933e-05
-4.1764e-06
5.90605e-05
-3.69757e-06
5.20663e-05
-3.2074e-06
4.58906e-05
-2.71951e-06
4.04215e-05
-2.24682e-06
3.5537e-05
-1.80003e-06
3.11283e-05
-1.3861e-06
2.71844e-05
-1.2414e-06
2.36917e-05
-8.00756e-07
2.05531e-05
-4.19004e-07
1.74782e-05
-1.38119e-07
1.34925e-05
1.73973e-05
2.41275e-08
4.89918e-08
1.93561e-05
3.60267e-08
2.15403e-05
-1.1452e-08
2.39674e-05
-9.92575e-08
2.6667e-05
-2.29931e-07
2.96729e-05
-4.0755e-07
3.30173e-05
-6.37827e-07
3.6735e-05
-9.26763e-07
4.08765e-05
-1.2794e-06
4.54901e-05
-1.69934e-06
5.06385e-05
-2.18567e-06
5.63919e-05
-2.73217e-06
6.28398e-05
-3.32292e-06
7.00905e-05
-3.93195e-06
7.70393e-05
-4.52052e-06
7.74416e-05
-5.05892e-06
7.79589e-05
-5.51205e-06
7.86014e-05
-5.845e-06
7.93649e-05
-6.02742e-06
8.02499e-05
-6.03509e-06
8.12412e-05
-5.85394e-06
8.68028e-05
-5.43215e-06
7.66557e-05
-4.94247e-06
6.7699e-05
-4.41309e-06
5.9776e-05
-3.86614e-06
5.27251e-05
-3.31993e-06
4.6491e-05
-2.7896e-06
4.09643e-05
-2.28707e-06
3.6024e-05
-1.82072e-06
3.15629e-05
-1.72389e-06
2.76669e-05
-1.23363e-06
2.41245e-05
-7.93217e-07
2.09273e-05
-4.18322e-07
1.77584e-05
-1.43155e-07
1.36356e-05
1.73996e-05
4.67096e-08
2.78121e-05
2.20497e-08
3.30387e-08
1.93591e-05
-1.4467e-08
2.15433e-05
-1.01597e-07
2.39697e-05
-2.30931e-07
2.6668e-05
-4.06635e-07
2.9672e-05
-6.3458e-07
3.3014e-05
-9.21161e-07
3.67294e-05
-1.27218e-06
4.08693e-05
-1.6926e-06
4.54834e-05
-2.18369e-06
5.06365e-05
-2.7426e-06
5.64023e-05
-3.35833e-06
6.28753e-05
-4.01154e-06
7.01701e-05
-4.66919e-06
7.7188e-05
-5.28545e-06
7.76682e-05
-5.82969e-06
7.82766e-05
-6.26432e-06
7.90208e-05
-6.55523e-06
7.98927e-05
-6.67371e-06
8.08885e-05
-6.60098e-06
8.19882e-05
-6.32776e-06
8.76984e-05
-5.80559e-06
7.75188e-05
-5.22559e-06
6.85115e-05
-4.61785e-06
6.05278e-05
-4.00597e-06
5.34111e-05
-3.40942e-06
4.71108e-05
-2.84237e-06
4.15196e-05
-2.31467e-06
3.6518e-05
-2.26549e-06
3.21045e-05
-1.71419e-06
2.81474e-05
-1.21829e-06
2.45496e-05
-7.81165e-07
2.12902e-05
-4.14187e-07
1.80294e-05
-1.45549e-07
1.37812e-05
1.74021e-05
3.04815e-08
2.78157e-05
4.30512e-08
2.8552e-05
2.00721e-08
-1.69666e-08
1.93616e-05
-1.03369e-07
2.15451e-05
-2.31285e-07
2.39701e-05
-4.04914e-07
2.66663e-05
-6.3019e-07
2.96676e-05
-9.13744e-07
3.30066e-05
-1.2619e-06
3.67192e-05
-1.68058e-06
4.08572e-05
-2.17271e-06
4.54724e-05
-2.73809e-06
5.0632e-05
-3.36962e-06
5.64136e-05
-4.05352e-06
6.29172e-05
-4.76403e-06
7.02649e-05
-5.46101e-06
7.73636e-05
-6.09388e-06
7.79324e-05
-6.6297e-06
7.86419e-05
-7.0309e-06
7.94964e-05
-7.26419e-06
8.04832e-05
-7.30585e-06
8.15934e-05
-7.14154e-06
8.2802e-05
-6.76897e-06
8.86617e-05
-6.14328e-06
7.84365e-05
-5.47279e-06
6.93665e-05
-4.7895e-06
6.13113e-05
-4.11801e-06
5.41197e-05
-3.47679e-06
4.77452e-05
-2.8781e-06
4.2083e-05
-2.88071e-06
3.71332e-05
-2.25323e-06
3.26436e-05
-1.69186e-06
2.8621e-05
-1.19512e-06
2.49636e-05
-7.64109e-07
2.16401e-05
-4.06658e-07
1.82905e-05
-1.45586e-07
1.39268e-05
1.74042e-05
-1.90478e-08
2.78193e-05
2.69482e-08
2.85555e-05
3.95391e-08
2.93119e-05
1.81974e-08
-1.04698e-07
1.93629e-05
-2.31168e-07
2.1545e-05
-4.02651e-07
2.39678e-05
-6.25073e-07
2.66611e-05
-9.05179e-07
2.9659e-05
-1.24962e-06
3.29943e-05
-1.66499e-06
3.67036e-05
-2.15546e-06
4.084e-05
-2.7228e-06
4.54571e-05
-3.36305e-06
5.06254e-05
-4.0669e-06
5.6427e-05
-4.81479e-06
6.2968e-05
-5.57443e-06
7.03783e-05
-6.30071e-06
7.75704e-05
-6.93612e-06
7.82388e-05
-7.44832e-06
7.90594e-05
-7.79961e-06
8.00319e-05
-7.96109e-06
8.11384e-05
-7.91301e-06
8.23648e-05
-7.64801e-06
8.3681e-05
-7.17101e-06
8.96895e-05
-6.44066e-06
7.94043e-05
-5.682e-06
7.0259e-05
-4.92816e-06
6.21214e-05
-4.20271e-06
5.48456e-05
-3.52236e-06
4.83895e-05
-3.58285e-06
4.27852e-05
-2.86533e-06
3.77453e-05
-2.22324e-06
3.3175e-05
-1.65781e-06
2.90837e-05
-1.16449e-06
2.5364e-05
-7.42478e-07
2.19759e-05
-3.96074e-07
1.8541e-05
-1.43689e-07
1.40705e-05
1.74052e-05
-1.05682e-07
2.78211e-05
-2.08297e-08
2.85588e-05
2.36439e-08
2.93152e-05
3.61791e-08
3.00898e-05
1.64265e-08
-2.30717e-07
1.93625e-05
-4.00047e-07
2.15424e-05
-6.19539e-07
2.39623e-05
-8.95968e-07
2.66519e-05
-1.23617e-06
2.96456e-05
-1.64717e-06
3.29765e-05
-2.13402e-06
3.66821e-05
-2.70002e-06
4.08172e-05
-3.34358e-06
4.54377e-05
-4.05904e-06
5.06175e-05
-4.83191e-06
5.64441e-05
-5.63665e-06
6.30302e-05
-6.43651e-06
7.05141e-05
-7.17889e-06
7.78132e-05
-7.80161e-06
7.85921e-05
-8.27305e-06
7.95328e-05
-8.55911e-06
8.06299e-05
-8.63421e-06
8.18596e-05
-8.48543e-06
8.32022e-05
-8.11279e-06
8.46228e-05
-7.52824e-06
9.07771e-05
-6.69475e-06
8.04171e-05
-5.85254e-06
7.11833e-05
-5.03381e-06
6.29525e-05
-4.26043e-06
5.55837e-05
-4.38656e-06
4.91932e-05
-3.56433e-06
4.34842e-05
-2.82677e-06
3.83488e-05
-2.17745e-06
3.36946e-05
-1.61325e-06
2.95325e-05
-1.1275e-06
2.5749e-05
-7.16959e-07
2.22968e-05
-3.82983e-07
1.87803e-05
-1.40267e-07
1.42107e-05
1.74045e-05
-2.30036e-07
2.78194e-05
-1.04031e-07
2.85603e-05
-2.23202e-08
2.93183e-05
2.05689e-08
3.0093e-05
3.29732e-08
3.08897e-05
1.47598e-08
-3.97252e-07
1.93597e-05
-6.13821e-07
2.15367e-05
-8.86483e-07
2.39528e-05
-1.22214e-06
2.66379e-05
-1.6281e-06
2.96265e-05
-2.11001e-06
3.29525e-05
-2.67227e-06
3.66544e-05
-3.31516e-06
4.07888e-05
-4.03583e-06
4.54145e-05
-4.82394e-06
5.06096e-05
-5.65963e-06
5.64671e-05
-6.51342e-06
6.31071e-05
-7.34133e-06
7.06765e-05
-8.08526e-06
7.80968e-05
-8.67781e-06
7.89968e-05
-9.09224e-06
8.00659e-05
-9.29699e-06
8.12926e-05
-9.27292e-06
8.26471e-05
-9.01452e-06
8.4104e-05
-8.5292e-06
8.56238e-05
-7.8366e-06
9.19189e-05
-6.90402e-06
8.14686e-05
-5.9839e-06
7.21334e-05
-5.10676e-06
6.37989e-05
-5.30859e-06
5.65057e-05
-4.36536e-06
4.99942e-05
-3.51651e-06
4.41739e-05
-2.76788e-06
3.89393e-05
-2.11784e-06
3.41992e-05
-1.56002e-06
2.9965e-05
-1.08536e-06
2.61174e-05
-6.88401e-07
2.26022e-05
-3.67967e-07
1.9008e-05
-1.35696e-07
1.43464e-05
1.74016e-05
-3.94379e-07
2.78127e-05
-2.23317e-07
2.85582e-05
-1.01973e-07
2.93195e-05
-2.35058e-08
3.00958e-05
1.77267e-08
3.08927e-05
2.99263e-08
3.17096e-05
1.31963e-08
-6.08089e-07
1.9354e-05
-8.76995e-07
2.15272e-05
-1.208e-06
2.39387e-05
-1.60853e-06
2.66183e-05
-2.08464e-06
2.96011e-05
-2.64151e-06
3.29217e-05
-3.28081e-06
3.662e-05
-4.00189e-06
4.07548e-05
-4.79774e-06
4.53883e-05
-5.65317e-06
5.06031e-05
-6.5449e-06
5.64986e-05
-7.43664e-06
6.32024e-05
-8.279e-06
7.08703e-05
-9.00741e-06
7.84264e-05
-9.5529e-06
7.94575e-05
-9.89292e-06
8.06619e-05
-1.00018e-05
8.20215e-05
-9.86769e-06
8.35003e-05
-9.49259e-06
8.50674e-05
-8.89219e-06
8.66794e-05
-8.09366e-06
9.31085e-05
-7.06737e-06
8.25521e-05
-6.07617e-06
7.31029e-05
-6.3678e-06
6.48581e-05
-5.28574e-06
5.74261e-05
-4.30789e-06
5.07856e-05
-3.44324e-06
4.48493e-05
-2.69156e-06
3.9513e-05
-2.04698e-06
3.46861e-05
-1.5e-06
3.03796e-05
-1.03939e-06
2.64684e-05
-6.57647e-07
2.28919e-05
-3.51582e-07
1.92239e-05
-1.30305e-07
1.44767e-05
1.7396e-05
-6.02465e-07
2.77991e-05
-3.80821e-07
2.8551e-05
-2.16075e-07
2.9317e-05
-9.95227e-08
3.00967e-05
-2.43849e-08
3.08953e-05
1.5116e-08
3.17124e-05
2.70417e-08
3.25535e-05
1.17377e-08
-8.67701e-07
1.93447e-05
-1.19405e-06
2.15132e-05
-1.589e-06
2.39191e-05
-2.05881e-06
2.65925e-05
-2.6092e-06
2.95688e-05
-3.24287e-06
3.28838e-05
-3.96087e-06
3.6579e-05
-4.75877e-06
4.07159e-05
-5.62521e-06
4.53603e-05
-6.54209e-06
5.06003e-05
-7.47982e-06
5.65418e-05
-8.39693e-06
6.33204e-05
-9.23743e-06
7.11003e-05
-9.93358e-06
7.88071e-05
-1.04135e-05
7.99781e-05
-1.0663e-05
8.1323e-05
-1.06632e-05
8.2817e-05
-1.04098e-05
8.44175e-05
-9.91361e-06
8.60888e-05
-9.19857e-06
8.77843e-05
-8.29769e-06
9.43389e-05
-7.18461e-06
8.36605e-05
-7.58378e-06
7.43188e-05
-6.34507e-06
6.59174e-05
-5.21856e-06
5.83368e-05
-4.21903e-06
5.15614e-05
-3.34836e-06
4.55061e-05
-2.60113e-06
4.00671e-05
-1.96744e-06
3.51536e-05
-1.43505e-06
3.07753e-05
-9.90791e-07
2.68015e-05
-6.25485e-07
2.31658e-05
-3.34343e-07
1.94279e-05
-1.24357e-07
1.46011e-05
1.7387e-05
-8.58736e-07
2.77767e-05
-5.80054e-07
2.85367e-05
-3.66546e-07
2.93092e-05
-2.08253e-07
3.00938e-05
-9.66501e-08
3.08959e-05
-2.49578e-08
3.17148e-05
1.27366e-08
3.25562e-05
2.43172e-08
3.34194e-05
1.03807e-08
-1.18054e-06
1.93312e-05
-1.56989e-06
2.14941e-05
-2.03317e-06
2.38935e-05
-2.57644e-06
2.65597e-05
-3.20312e-06
2.95291e-05
-3.91553e-06
3.28385e-05
-4.71129e-06
3.65315e-05
-5.58206e-06
4.06727e-05
-6.51406e-06
4.53323e-05
-7.48336e-06
5.06039e-05
-8.45556e-06
5.66004e-05
-9.38265e-06
6.34656e-05
-1.02051e-05
7.13718e-05
-1.08503e-05
7.92438e-05
-1.12471e-05
8.05622e-05
-1.13913e-05
8.20512e-05
-1.12714e-05
8.36787e-05
-1.08922e-05
8.53961e-05
-1.02735e-05
8.71637e-05
-9.44586e-06
8.89324e-05
-8.44811e-06
9.56024e-05
-8.97841e-06
8.50551e-05
-7.56415e-06
7.55379e-05
-6.26861e-06
6.69674e-05
-5.11305e-06
5.92308e-05
-4.10366e-06
5.23167e-05
-3.23606e-06
4.6141e-05
-2.49985e-06
4.05995e-05
-1.88167e-06
3.56002e-05
-1.36682e-06
3.11513e-05
-9.40647e-07
2.71167e-05
-5.92634e-07
2.34241e-05
-3.16641e-07
1.96202e-05
-1.18083e-07
1.47192e-05
1.73741e-05
-1.16762e-06
2.77431e-05
-8.25105e-07
2.85134e-05
-5.56758e-07
2.92943e-05
-3.51598e-07
3.00855e-05
-1.99937e-07
3.08926e-05
-9.33804e-08
3.17151e-05
-2.52215e-08
3.25583e-05
1.05881e-08
3.34219e-05
2.1756e-08
3.43053e-05
9.12411e-09
-1.55148e-06
1.93128e-05
-2.00819e-06
2.14691e-05
-2.54401e-06
2.38611e-05
-3.16286e-06
2.65195e-05
-3.86798e-06
2.94815e-05
-4.65856e-06
3.27857e-05
-5.52869e-06
3.64782e-05
-6.46806e-06
4.06267e-05
-7.4575e-06
4.53064e-05
-8.46872e-06
5.0617e-05
-9.46099e-06
5.66787e-05
-1.03827e-05
6.36431e-05
-1.11686e-05
7.16901e-05
-1.17446e-05
7.97413e-05
-1.20419e-05
8.12128e-05
-1.20672e-05
8.2847e-05
-1.18185e-05
8.46049e-05
-1.131e-05
8.64326e-05
-1.0569e-05
8.82868e-05
-9.63296e-06
9.01173e-05
-1.05753e-05
9.71992e-05
-8.96721e-06
8.64582e-05
-7.47992e-06
7.67492e-05
-6.14565e-06
6.8e-05
-4.97519e-06
6.01023e-05
-3.96694e-06
5.30476e-05
-3.11037e-06
4.67515e-05
-2.39081e-06
4.11087e-05
-1.7918e-06
3.60252e-05
-1.29678e-06
3.15074e-05
-8.89942e-07
2.7414e-05
-5.59615e-07
2.36671e-05
-2.98844e-07
1.9801e-05
-1.11661e-07
1.48308e-05
1.73566e-05
-1.53394e-06
2.76958e-05
-1.12035e-06
2.84787e-05
-7.90376e-07
2.927e-05
-5.32522e-07
3.00698e-05
-3.35922e-07
3.08838e-05
-1.91079e-07
3.17114e-05
-8.9705e-08
3.25583e-05
-2.51835e-08
3.34238e-05
8.66442e-09
3.43077e-05
1.93561e-08
3.52192e-05
7.96657e-09
-1.9842e-06
1.92888e-05
-2.51248e-06
2.14376e-05
-3.12305e-06
2.38213e-05
-3.81981e-06
2.64713e-05
-4.6031e-06
2.9426e-05
-5.46893e-06
3.2726e-05
-6.40979e-06
3.64199e-05
-7.41047e-06
4.05797e-05
-8.44784e-06
4.52855e-05
-9.48759e-06
5.06436e-05
-1.04854e-05
5.67815e-05
-1.13837e-05
6.38582e-05
-1.21148e-05
7.20604e-05
-1.26042e-05
8.03037e-05
-1.27864e-05
8.19319e-05
-1.26818e-05
8.37103e-05
-1.22985e-05
8.55935e-05
-1.16589e-05
8.75225e-05
-1.07983e-05
8.94521e-05
-1.20807e-05
9.16227e-05
-1.05815e-05
9.88135e-05
-8.87901e-06
8.78573e-05
-7.33974e-06
7.79433e-05
-5.98347e-06
6.90083e-05
-4.81126e-06
6.09466e-05
-3.81379e-06
5.3751e-05
-2.97511e-06
4.73358e-05
-2.2767e-06
4.15936e-05
-1.69974e-06
3.64281e-05
-1.22624e-06
3.18437e-05
-8.39372e-07
2.76937e-05
-5.26933e-07
2.38951e-05
-2.8123e-07
1.99705e-05
-1.05219e-07
1.4936e-05
1.73338e-05
-1.9614e-06
2.76319e-05
-1.46999e-06
2.84301e-05
-1.07173e-06
2.92343e-05
-7.54597e-07
3.00447e-05
-5.07419e-07
3.08674e-05
-3.19588e-07
3.17021e-05
-1.81718e-07
3.25542e-05
-8.56398e-08
3.34235e-05
-2.48409e-08
3.43094e-05
6.9628e-09
3.52214e-05
1.71139e-08
3.61551e-05
6.90472e-09
-2.48225e-06
1.92585e-05
-3.08437e-06
2.13989e-05
-3.77213e-06
2.37736e-05
-4.54677e-06
2.6415e-05
-5.40573e-06
2.93628e-05
-6.34373e-06
3.26599e-05
-7.3488e-06
3.63582e-05
-8.40215e-06
4.0534e-05
-9.47506e-06
4.5273e-05
-1.05298e-05
5.0688e-05
-1.1516e-05
5.69138e-05
-1.23729e-05
6.41163e-05
-1.30313e-05
7.24875e-05
-1.34172e-05
8.09345e-05
-1.34708e-05
8.27209e-05
-1.32283e-05
8.46402e-05
-1.27064e-05
8.66409e-05
-1.19366e-05
8.86608e-05
-1.35704e-05
9.09419e-05
-1.21122e-05
9.31534e-05
-1.0496e-05
0.000100431
-8.72364e-06
8.92412e-05
-7.15228e-06
7.91121e-05
-5.78962e-06
6.99867e-05
-4.62724e-06
6.17601e-05
-3.64885e-06
5.44247e-05
-2.83358e-06
4.78927e-05
-2.1599e-06
4.20538e-05
-1.60716e-06
3.6809e-05
-1.1561e-06
3.21605e-05
-7.89619e-07
2.79564e-05
-4.94966e-07
2.41089e-05
-2.63991e-07
2.01293e-05
-9.88633e-08
1.50349e-05
1.73051e-05
-2.45355e-06
2.7548e-05
-1.87756e-06
2.83643e-05
-1.40426e-06
2.91841e-05
-1.02153e-06
3.00077e-05
-7.17593e-07
3.08415e-05
-4.81447e-07
3.16851e-05
-3.02628e-07
3.25444e-05
-1.71867e-07
3.34191e-05
-8.11933e-08
3.43087e-05
-2.41975e-08
3.52229e-05
5.47626e-09
3.61572e-05
1.50245e-08
3.6589e-05
5.94846e-09
-3.04729e-06
1.92214e-05
-3.72579e-06
2.13526e-05
-4.49093e-06
2.37177e-05
-5.34128e-06
2.63505e-05
-6.27329e-06
2.92924e-05
-7.2776e-06
3.25887e-05
-8.33906e-06
3.62951e-05
-9.43367e-06
4.04926e-05
-1.05295e-05
4.52727e-05
-1.15829e-05
5.0755e-05
-1.254e-05
5.70809e-05
-1.33376e-05
6.44225e-05
-1.39056e-05
7.29759e-05
-1.41728e-05
8.16365e-05
-1.40875e-05
8.358e-05
-1.37007e-05
8.56344e-05
-1.3039e-05
8.77433e-05
-1.50362e-05
9.01266e-05
-1.36372e-05
9.24669e-05
-1.20381e-05
9.46954e-05
-1.033e-05
0.000102037
-8.51109e-06
9.06e-05
-6.92644e-06
8.02489e-05
-5.57131e-06
7.09307e-05
-4.42876e-06
6.254e-05
-3.47615e-06
5.50673e-05
-2.68869e-06
4.84215e-05
-2.04249e-06
4.24891e-05
-1.51522e-06
3.71682e-05
-1.08727e-06
3.24581e-05
-7.41182e-07
2.82026e-05
-4.6396e-07
2.43088e-05
-2.47291e-07
2.02777e-05
-9.26766e-08
1.51276e-05
1.72699e-05
-3.0121e-06
2.74409e-05
-2.3464e-06
2.82788e-05
-1.79199e-06
2.91168e-05
-1.33698e-06
2.99563e-05
-9.70083e-07
3.08035e-05
-6.79643e-07
3.16583e-05
-4.54662e-07
3.25268e-05
-2.85018e-07
3.34087e-05
-1.6155e-07
3.43039e-05
-7.63855e-08
3.52219e-05
-2.32522e-08
3.61584e-05
4.20178e-09
3.65909e-05
1.31035e-08
3.55528e-05
5.12122e-09
-3.68134e-06
1.9177e-05
-4.43657e-06
2.12982e-05
-5.27721e-06
2.36537e-05
-6.20107e-06
2.62783e-05
-7.20086e-06
2.92157e-05
-8.2644e-06
3.25141e-05
-9.37171e-06
3.62332e-05
-1.04959e-05
4.0459e-05
-1.15993e-05
4.52892e-05
-1.26346e-05
5.08496e-05
-1.35448e-05
5.72881e-05
-1.42651e-05
6.4782e-05
-1.47265e-05
7.35296e-05
-1.48627e-05
8.24117e-05
-1.46295e-05
8.45089e-05
-1.40949e-05
8.66904e-05
-1.64682e-05
8.91753e-05
-1.515e-05
9.16394e-05
-1.35849e-05
9.40137e-05
-1.18707e-05
9.62361e-05
-1.0095e-05
0.000103621
-8.25177e-06
9.19253e-05
-6.67064e-06
8.13483e-05
-5.33528e-06
7.18373e-05
-4.22068e-06
6.32845e-05
-3.29925e-06
5.56779e-05
-2.54304e-06
4.8922e-05
-1.92592e-06
4.28998e-05
-1.42506e-06
3.7506e-05
-1.02039e-06
3.27373e-05
-6.94369e-07
2.84331e-05
-4.34124e-07
2.44957e-05
-2.31253e-07
2.04163e-05
-8.67138e-08
1.52143e-05
1.72277e-05
-3.63914e-06
2.73076e-05
-2.87881e-06
2.81697e-05
-2.23732e-06
2.9029e-05
-1.7042e-06
2.98874e-05
-1.26812e-06
3.07508e-05
-9.17343e-07
3.16193e-05
-6.40681e-07
3.24993e-05
-4.27183e-07
3.33906e-05
-2.66882e-07
3.42932e-05
-1.50825e-07
3.52168e-05
-7.12443e-08
3.61572e-05
-2.20335e-08
3.65919e-05
3.14747e-09
3.55545e-05
1.13977e-08
3.45447e-05
4.403e-09
-4.38437e-06
1.91248e-05
-5.21468e-06
2.12357e-05
-6.12896e-06
2.35816e-05
-7.12156e-06
2.6199e-05