/*--------------------------------*- C++ -*----------------------------------*\
  =========                 |
  \\      /  F ield         | OpenFOAM: The Open Source CFD Toolbox
   \\    /   O peration     | Website:  https://openfoam.org
    \\  /    A nd           | Version:  8
     \\/     M anipulation  |
\*---------------------------------------------------------------------------*/
FoamFile
{
    version     2.0;
    format      ascii;
    class       surfaceScalarField;
    location    "0.36";
    object      phi;
}
// * * * * * * * * * * * * * * * * * * * * * * * * * * * * * * * * * * * * * //

dimensions      [0 3 -1 0 0 0 0];

internalField   nonuniform List<scalar> 
31053
(
6.40145e-07
1.27399e-05
8.63161e-07
1.5157e-05
3.57384e-07
1.23825e-05
9.48802e-07
1.75544e-05
5.67568e-07
1.49468e-05
2.75239e-07
1.21072e-05
9.73478e-07
2.02153e-05
6.82328e-07
1.74396e-05
4.71113e-07
1.47509e-05
2.16689e-07
1.18905e-05
9.6486e-07
2.32486e-05
7.41081e-07
2.01566e-05
5.97075e-07
1.73136e-05
3.97003e-07
1.45706e-05
1.72252e-07
1.17183e-05
9.34932e-07
2.66899e-05
7.66172e-07
2.32235e-05
6.7226e-07
2.00814e-05
5.24394e-07
1.71862e-05
3.32877e-07
1.441e-05
1.37929e-07
1.15804e-05
8.89497e-07
3.06654e-05
7.69389e-07
2.66867e-05
7.14384e-07
2.31814e-05
6.05464e-07
2.00003e-05
4.55073e-07
1.7064e-05
2.78662e-07
1.42693e-05
1.10878e-07
1.14695e-05
8.31644e-07
3.51979e-05
7.57186e-07
3.06776e-05
7.34345e-07
2.66667e-05
6.5375e-07
2.31331e-05
5.36153e-07
1.99192e-05
3.91771e-07
1.69509e-05
2.31679e-07
1.41485e-05
8.84069e-08
1.13811e-05
7.65162e-07
4.03865e-05
7.33745e-07
3.52213e-05
7.38596e-07
3.06734e-05
6.79315e-07
2.66412e-05
5.852e-07
2.30841e-05
4.6914e-07
1.98419e-05
3.33027e-07
1.68496e-05
1.89568e-07
1.40473e-05
6.87039e-08
1.13124e-05
6.92639e-07
4.63525e-05
7.00217e-07
4.042e-05
7.31014e-07
3.52289e-05
6.8816e-07
3.06645e-05
6.11228e-07
2.66152e-05
5.15667e-07
2.30375e-05
4.03655e-07
1.97712e-05
2.77194e-07
1.6762e-05
1.50547e-07
1.39655e-05
5.06221e-08
1.12618e-05
6.15918e-07
5.32167e-05
6.58126e-07
4.63946e-05
7.11936e-07
4.04391e-05
6.83214e-07
3.52338e-05
6.20153e-07
3.06556e-05
5.38986e-07
2.65918e-05
4.44904e-07
2.29963e-05
3.38573e-07
1.97099e-05
2.22899e-07
1.66896e-05
1.13321e-07
1.39028e-05
3.33801e-08
1.12284e-05
5.36961e-07
6.1059e-05
6.09276e-07
5.32656e-05
6.8181e-07
4.64247e-05
6.67361e-07
4.04549e-05
6.15351e-07
3.52386e-05
5.44857e-07
3.06497e-05
4.62856e-07
2.65739e-05
3.72157e-07
2.29627e-05
2.72775e-07
1.966e-05
1.69038e-07
1.66339e-05
7.69461e-08
1.38592e-05
1.64681e-08
1.12119e-05
4.57624e-07
7.00613e-05
5.55236e-07
6.1113e-05
6.41733e-07
5.33056e-05
6.41566e-07
4.64505e-05
5.99064e-07
4.04712e-05
5.36739e-07
3.52467e-05
4.62874e-07
3.06497e-05
3.82374e-07
2.65637e-05
2.96372e-07
2.29391e-05
2.05249e-07
1.96238e-05
1.14807e-07
1.6596e-05
4.07261e-08
1.38349e-05
-2.86171e-10
1.12122e-05
3.796e-07
8.041e-05
4.97421e-07
7.01192e-05
5.92943e-07
6.11618e-05
6.0589e-07
5.33413e-05
5.72399e-07
4.64772e-05
5.16598e-07
4.04914e-05
4.4833e-07
3.52613e-05
3.74009e-07
3.06581e-05
2.96504e-07
2.65635e-05
2.16539e-07
2.29278e-05
1.35307e-07
1.96033e-05
5.95844e-08
1.65772e-05
4.28752e-09
1.38304e-05
-1.71159e-08
1.12293e-05
3.16774e-07
7.62528e-05
4.37131e-07
8.04703e-05
5.36884e-07
7.01752e-05
5.6065e-07
6.1207e-05
5.35629e-07
5.33781e-05
4.85423e-07
4.65084e-05
4.21072e-07
4.05186e-05
3.50251e-07
3.5285e-05
2.77251e-07
3.06773e-05
2.04195e-07
2.65759e-05
1.31975e-07
2.29312e-05
6.2417e-08
1.96004e-05
3.02442e-09
1.65784e-05
-3.25864e-08
1.38458e-05
-3.42125e-08
1.12635e-05
2.6347e-07
7.62433e-05
3.85469e-07
7.63045e-05
4.75213e-07
8.0532e-05
5.06561e-07
7.02293e-05
4.8885e-07
6.12538e-05
4.43556e-07
5.342e-05
3.81972e-07
4.65475e-05
3.12831e-07
4.0556e-05
2.41531e-07
3.53208e-05
1.71504e-07
3.071e-05
1.04716e-07
2.66031e-05
4.21596e-08
2.29514e-05
-1.36421e-08
1.96171e-05
-5.5003e-08
1.66009e-05
-7.00543e-08
1.38817e-05
-5.15458e-08
1.13151e-05
2.18456e-07
7.6235e-05
3.38774e-07
7.629e-05
4.20617e-07
7.63591e-05
4.44831e-07
8.05937e-05
4.32368e-07
7.02858e-05
3.91076e-07
6.13063e-05
3.31315e-07
5.34706e-05
2.62491e-07
4.65978e-05
1.90905e-07
4.06067e-05
1.21029e-07
3.53712e-05
5.59756e-08
3.07588e-05
-2.45729e-09
2.66478e-05
-5.30401e-08
2.29908e-05
-9.28436e-08
1.96549e-05
-1.14462e-07
1.66453e-05
-1.08015e-07
1.39381e-05
-6.89531e-08
1.1384e-05
1.80634e-07
7.62298e-05
2.96642e-07
7.62771e-05
3.69977e-07
7.63406e-05
3.88553e-07
7.64154e-05
3.67039e-07
8.0659e-05
3.28131e-07
7.03487e-05
2.69172e-07
6.13684e-05
1.99414e-07
5.35337e-05
1.25961e-07
4.66628e-05
5.40976e-08
4.06736e-05
-1.21257e-08
3.54393e-05
-6.98821e-08
3.08262e-05
-1.17421e-07
2.67121e-05
-1.53449e-07
2.30514e-05
-1.74907e-07
1.97154e-05
-1.75051e-07
1.67123e-05
-1.46192e-07
1.40154e-05
-8.63004e-08
1.14703e-05
1.49039e-07
7.62216e-05
2.58695e-07
7.62678e-05
3.23245e-07
7.63239e-05
3.35345e-07
7.63938e-05
3.06843e-07
7.64756e-05
2.55378e-07
8.07318e-05
1.95659e-07
7.04222e-05
1.2363e-07
6.14442e-05
4.67468e-08
5.36129e-05
-2.89058e-08
4.67458e-05
-9.85592e-08
4.076e-05
-1.58501e-07
3.5528e-05
-2.06136e-07
3.09149e-05
-2.39866e-07
2.67986e-05
-2.58552e-07
2.31351e-05
-2.59239e-07
1.97996e-05
-2.3625e-07
1.68024e-05
-1.84217e-07
1.41133e-05
-1.03327e-07
1.15736e-05
1.22837e-07
7.62162e-05
2.24587e-07
7.62557e-05
2.80302e-07
7.63107e-05
2.85601e-07
7.63736e-05
2.49591e-07
7.64511e-05
1.88266e-07
7.65427e-05
1.11406e-07
8.0816e-05
3.52659e-08
7.05106e-05
-4.6772e-08
6.15377e-05
-1.28102e-07
5.37121e-05
-2.03198e-07
4.68504e-05
-2.67655e-07
4.08692e-05
-3.18137e-07
3.564e-05
-3.52321e-07
3.10274e-05
-3.69062e-07
2.69091e-05
-3.67451e-07
2.32433e-05
-3.44954e-07
1.99083e-05
-2.97395e-07
1.69155e-05
-2.21609e-07
1.42316e-05
-1.19846e-07
1.16935e-05
1.0122e-07
7.62116e-05
1.93975e-07
7.62468e-05
2.41012e-07
7.6295e-05
2.39496e-07
7.63568e-05
1.95974e-07
7.64272e-05
1.24452e-07
7.65149e-05
3.40521e-08
7.662e-05
-6.49617e-08
8.09163e-05
-1.54448e-07
7.06183e-05
-2.43611e-07
6.16532e-05
-3.26375e-07
5.38353e-05
-3.97532e-07
4.69803e-05
-4.53202e-07
4.10043e-05
-4.90398e-07
3.5778e-05
-5.07509e-07
3.11658e-05
-5.03805e-07
2.70454e-05
-4.78849e-07
2.33772e-05
-4.31022e-07
2.00419e-05
-3.57688e-07
1.70516e-05
-2.57856e-07
1.43696e-05
-1.3552e-07
1.1829e-05
8.47672e-08
6.95985e-05
1.66562e-07
7.6239e-05
2.05223e-07
7.62826e-05
1.97114e-07
7.63374e-05
1.46386e-07
7.64064e-05
6.48767e-08
7.64868e-05
-3.91962e-08
7.65882e-05
-1.56333e-07
7.67114e-05
-2.75405e-07
8.10372e-05
-3.75264e-07
7.07499e-05
-4.68322e-07
6.17952e-05
-5.48728e-07
5.39865e-05
-6.11898e-07
4.7139e-05
-6.54383e-07
4.11682e-05
-6.74153e-07
3.59447e-05
-6.70179e-07
3.13322e-05
-6.42381e-07
2.7209e-05
-5.91296e-07
2.35374e-05
-5.16211e-07
2.02004e-05
-4.16239e-07
1.721e-05
-2.92338e-07
1.45264e-05
-1.50161e-07
1.19792e-05
7.21909e-08
6.25566e-05
1.44125e-07
6.96209e-05
1.72807e-07
7.62714e-05
1.5848e-07
7.63212e-05
1.01062e-07
7.63827e-05
1.0135e-08
7.64611e-05
-1.07191e-07
7.65548e-05
-2.42351e-07
7.66742e-05
-3.84897e-07
7.68209e-05
-5.2198e-07
8.1184e-05
-6.28861e-07
7.09105e-05
-7.21623e-07
6.19681e-05
-7.95147e-07
5.41697e-05
-8.45294e-07
4.73299e-05
-8.69855e-07
4.13639e-05
-8.67546e-07
3.61421e-05
-8.38185e-07
3.1528e-05
-7.82893e-07
2.74005e-05
-7.03054e-07
2.37243e-05
-5.99201e-07
2.03834e-05
-4.72072e-07
1.73897e-05
-3.24548e-07
1.47008e-05
-1.63298e-07
1.21425e-05
6.24041e-08
5.62278e-05
1.25942e-07
6.25748e-05
1.46069e-07
6.96476e-05
1.23608e-07
7.63063e-05
6.01481e-08
7.63622e-05
-3.93834e-08
7.64322e-05
-1.69138e-07
7.65231e-05
-3.21675e-07
7.66341e-05
-4.87374e-07
7.67767e-05
-6.53989e-07
7.69529e-05
-8.0667e-07
8.13618e-05
-9.16046e-07
7.11049e-05
-1.00352e-06
6.21765e-05
-1.06444e-06
5.43889e-05
-1.09615e-06
4.75562e-05
-1.0974e-06
4.15938e-05
-1.06796e-06
3.63718e-05
-1.00915e-06
3.17543e-05
-9.23068e-07
2.76206e-05
-8.12323e-07
2.39374e-05
-6.78552e-07
2.05899e-05
-5.2429e-07
1.75895e-05
-3.53526e-07
1.4891e-05
-1.7417e-07
1.23166e-05
5.46715e-08
5.05397e-05
1.11099e-07
5.62426e-05
1.24295e-07
6.25965e-05
9.50474e-08
6.96762e-05
2.3742e-08
7.63427e-05
-8.34205e-08
7.64062e-05
-2.24489e-07
7.64876e-05
-3.93315e-07
7.65947e-05
-5.81294e-07
7.67281e-05
-7.76922e-07
7.68996e-05
-9.65907e-07
7.71121e-05
-1.13042e-06
8.15761e-05
-1.23689e-06
7.13383e-05
-1.31263e-06
6.24246e-05
-1.3548e-06
5.46475e-05
-1.36186e-06
4.78206e-05
-1.3339e-06
4.18597e-05
-1.27253e-06
3.66352e-05
-1.18026e-06
3.20115e-05
-1.06058e-06
2.78688e-05
-9.17115e-07
2.4176e-05
-7.52939e-07
2.08185e-05
-5.71498e-07
1.78074e-05
-3.78624e-07
1.50955e-05
-1.82749e-07
1.24994e-05
4.84807e-08
4.54262e-05
9.88929e-08
5.05519e-05
1.06476e-07
5.62604e-05
7.20378e-08
6.26195e-05
-5.52133e-09
6.97055e-05
-1.218e-07
7.63811e-05
-2.72861e-07
7.64546e-05
-4.56543e-07
7.65508e-05
-6.65454e-07
7.66789e-05
-8.89009e-07
7.68401e-05
-1.11363e-06
7.70473e-05
-1.32177e-06
7.73035e-05
-1.49342e-06
8.18327e-05
-1.58983e-06
7.16155e-05
-1.64693e-06
6.27168e-05
-1.66322e-06
5.49489e-05
-1.63878e-06
4.81255e-05
-1.57596e-06
4.21632e-05
-1.47785e-06
3.69328e-05
-1.34861e-06
3.22995e-05
-1.19285e-06
2.81446e-05
-1.01562e-06
2.44386e-05
-8.20513e-07
2.10675e-05
-6.12888e-07
1.80417e-05
-3.96346e-07
1.53091e-05
-1.50579e-07
1.265e-05
4.34636e-08
4.0831e-05
8.87844e-08
4.54363e-05
9.18179e-08
5.05666e-05
5.34815e-08
5.6279e-05
-2.85652e-08
6.26426e-05
-1.51809e-07
6.97355e-05
-3.13991e-07
7.64222e-05
-5.10839e-07
7.65089e-05
-7.38929e-07
7.66243e-05
-9.88813e-07
7.67787e-05
-1.24779e-06
7.69743e-05
-1.49881e-06
7.72243e-05
-1.72191e-06
7.7532e-05
-1.89397e-06
8.21368e-05
-1.97265e-06
7.19412e-05
-2.003e-06
6.30566e-05
-1.9855e-06
5.52956e-05
-1.92293e-06
4.84725e-05
-1.81951e-06
4.25048e-05
-1.68034e-06
3.72645e-05
-1.51094e-06
3.26176e-05
-1.3175e-06
2.84464e-05
-1.1055e-06
2.47236e-05
-8.79989e-07
2.13346e-05
-6.43454e-07
1.82888e-05
-3.91175e-07
1.55497e-05
-1.01764e-07
1.27517e-05
3.93494e-08
3.67001e-05
8.03729e-08
4.08394e-05
7.97007e-08
4.54484e-05
3.85002e-08
5.05816e-05
-4.66503e-08
5.62971e-05
-1.74639e-07
6.26654e-05
-3.45073e-07
6.97665e-05
-5.55834e-07
7.64672e-05
-8.01038e-07
7.6571e-05
-1.07519e-06
7.67106e-05
-1.3667e-06
7.68976e-05
-1.6592e-06
7.71347e-05
-1.933e-06
7.74354e-05
-2.16458e-06
7.78026e-05
-2.32971e-06
8.24939e-05
-2.38155e-06
7.23197e-05
-2.37605e-06
6.34471e-05
-2.31701e-06
5.56897e-05
-2.2095e-06
4.88625e-05
-2.06027e-06
4.28847e-05
-1.87609e-06
3.76297e-05
-1.66435e-06
3.29644e-05
-1.43173e-06
2.87727e-05
-1.18495e-06
2.50286e-05
-9.26544e-07
2.16177e-05
-6.56195e-07
1.85538e-05
-3.671e-07
1.5815e-05
-8.16713e-08
1.28334e-05
3.59392e-08
3.29894e-05
7.33503e-08
3.67071e-05
6.96517e-08
4.08495e-05
2.63892e-08
4.54605e-05
-6.07966e-08
5.05957e-05
-1.91807e-07
5.63143e-05
-3.67668e-07
6.2688e-05
-5.88582e-07
6.97993e-05
-8.51279e-07
7.65175e-05
-1.14725e-06
7.6643e-05
-1.46894e-06
7.68129e-05
-1.80092e-06
7.70393e-05
-2.12398e-06
7.73257e-05
-2.41445e-06
7.76853e-05
-2.6474e-06
7.81203e-05
-2.79651e-06
8.29088e-05
-2.81107e-06
7.27547e-05
-2.76073e-06
6.38908e-05
-2.65213e-06
5.61323e-05
-2.49347e-06
4.92957e-05
-2.2936e-06
4.33023e-05
-2.06159e-06
3.80269e-05
-1.80552e-06
3.33382e-05
-1.53323e-06
2.91209e-05
-1.24968e-06
2.53517e-05
-9.55402e-07
2.19169e-05
-6.55815e-07
1.88426e-05
-3.45573e-07
1.60789e-05
-7.66913e-08
1.29101e-05
3.3087e-08
2.96509e-05
6.74628e-08
3.29953e-05
6.13037e-08
3.67155e-05
1.65633e-08
4.08593e-05
-7.18278e-08
4.54716e-05
-2.04542e-07
5.06085e-05
-3.83647e-07
5.63302e-05
-6.11124e-07
6.27106e-05
-8.86496e-07
6.98345e-05
-1.20436e-06
7.65746e-05
-1.55341e-06
7.67275e-05
-1.92226e-06
7.69342e-05
-2.29249e-06
7.72078e-05
-2.6405e-06
7.75517e-05
-2.94088e-06
7.79788e-05
-3.16598e-06
7.84897e-05
-3.28822e-06
8.3386e-05
-3.25519e-06
7.32492e-05
-3.15062e-06
6.43893e-05
-2.98511e-06
5.66239e-05
-2.76946e-06
4.97715e-05
-2.51539e-06
4.37561e-05
-2.233e-06
3.84544e-05
-1.93165e-06
3.37366e-05
-1.61818e-06
2.94894e-05
-1.29591e-06
2.56922e-05
-9.71703e-07
2.22328e-05
-6.51661e-07
1.91486e-05
-3.34813e-07
1.6337e-05
-8.22531e-08
1.29923e-05
3.06834e-08
2.66504e-05
6.24999e-08
2.96558e-05
5.4351e-08
3.30023e-05
8.55012e-09
3.67235e-05
-8.04098e-08
4.08679e-05
-2.13832e-07
4.54808e-05
-3.9452e-07
5.06193e-05
-6.25789e-07
5.63449e-05
-9.09324e-07
6.27334e-05
-1.24303e-06
6.98732e-05
-1.61927e-06
7.66404e-05
-2.02186e-06
7.68271e-05
-2.43647e-06
7.70782e-05
-2.83994e-06
7.74073e-05
-3.20659e-06
7.78174e-05
-3.50769e-06
7.83205e-05
-3.71363e-06
7.89151e-05
-3.79822e-06
8.3929e-05
-3.70669e-06
7.38053e-05
-3.5392e-06
6.49434e-05
-3.30971e-06
5.71642e-05
-3.0326e-06
5.02888e-05
-2.72118e-06
4.42442e-05
-2.38705e-06
3.89098e-05
-2.03927e-06
3.41577e-05
-1.68354e-06
2.98771e-05
-1.32806e-06
2.60486e-05
-9.82746e-07
2.25639e-05
-6.49345e-07
1.94632e-05
-3.33781e-07
1.65885e-05
-1.11471e-07
1.31038e-05
2.86445e-08
2.3956e-05
5.82919e-08
2.66546e-05
4.85376e-08
2.96616e-05
1.98815e-09
3.30088e-05
-8.70747e-08
3.67302e-05
-2.20464e-07
4.08745e-05
-4.01497e-07
4.54878e-05
-6.34457e-07
5.0628e-05
-9.22667e-07
5.63582e-05
-1.26662e-06
6.2757e-05
-1.66261e-06
6.99165e-05
-2.09862e-06
7.67172e-05
-2.55422e-06
7.69449e-05
-3.0103e-06
7.72486e-05
-3.44129e-06
7.7642e-05
-3.81761e-06
7.81274e-05
-4.10788e-06
7.87147e-05
-4.28334e-06
7.94003e-05
-4.31849e-06
8.45408e-05
-4.15815e-06
7.44242e-05
-3.91921e-06
6.55529e-05
-3.62024e-06
5.77518e-05
-3.27779e-06
5.08454e-05
-2.90718e-06
4.47644e-05
-2.52039e-06
3.93909e-05
-2.12584e-06
3.46e-05
-1.7327e-06
3.02817e-05
-1.35242e-06
2.64183e-05
-9.91934e-07
2.29065e-05
-6.50276e-07
1.97797e-05
-4.15646e-07
1.68927e-05
-1.20294e-07
1.32241e-05
2.69053e-08
2.15337e-05
5.47053e-08
2.39596e-05
4.36522e-08
2.66595e-05
-3.39655e-09
2.9667e-05
-9.22396e-08
3.3014e-05
-2.2506e-07
3.67348e-05
-4.05534e-07
4.08786e-05
-6.38624e-07
4.5492e-05
-9.28865e-07
5.06342e-05
-1.27873e-06
5.63704e-05
-1.68761e-06
6.2782e-05
-2.14808e-06
6.9966e-05
-2.64437e-06
7.68073e-05
-3.14951e-06
7.70841e-05
-3.64206e-06
7.74493e-05
-4.09197e-06
7.79163e-05
-4.46638e-06
7.84859e-05
-4.73412e-06
7.91655e-05
-4.86648e-06
7.99483e-05
-4.84068e-06
8.52233e-05
-4.60128e-06
7.51063e-05
-4.28411e-06
6.62168e-05
-3.91082e-06
5.83849e-05
-3.50067e-06
5.14389e-05
-3.07003e-06
4.5314e-05
-2.63076e-06
3.98958e-05
-2.19372e-06
3.5061e-05
-1.77079e-06
3.07001e-05
-1.37173e-06
2.67981e-05
-9.99688e-07
2.32559e-05
-8.05551e-07
2.01696e-05
-4.17138e-07
1.71896e-05
-1.3033e-07
1.33544e-05
2.54144e-08
1.93535e-05
5.16342e-08
2.15368e-05
3.95249e-08
2.39638e-05
-7.82291e-09
2.66639e-05
-9.62278e-08
2.9671e-05
-2.28106e-07
3.3017e-05
-4.0738e-07
3.67366e-05
-6.3947e-07
4.08794e-05
-9.29777e-07
4.54929e-05
-1.28226e-06
5.06377e-05
-1.69871e-06
5.63815e-05
-2.17534e-06
6.28092e-05
-2.70168e-06
7.00233e-05
-3.25585e-06
7.69137e-05
-3.80638e-06
7.72484e-05
-4.32734e-06
7.76847e-05
-4.78479e-06
7.82347e-05
-5.1454e-06
7.88971e-05
-5.37728e-06
7.96763e-05
-5.45388e-06
8.05615e-05
-5.35537e-06
8.59774e-05
-5.02856e-06
7.58507e-05
-4.62715e-06
6.69331e-05
-4.17648e-06
5.90607e-05
-3.69764e-06
5.20665e-05
-3.20746e-06
4.58907e-05
-2.71956e-06
4.04217e-05
-2.24687e-06
3.55371e-05
-1.80007e-06
3.11284e-05
-1.38613e-06
2.71845e-05
-1.24143e-06
2.36918e-05
-8.00776e-07
2.05532e-05
-4.19017e-07
1.74783e-05
-1.38124e-07
1.34926e-05
1.73973e-05
2.41308e-08
4.89936e-08
1.93561e-05
3.6021e-08
2.15403e-05
-1.14708e-08
2.39674e-05
-9.92922e-08
2.6667e-05
-2.29983e-07
2.96729e-05
-4.0762e-07
3.30173e-05
-6.37914e-07
3.6735e-05
-9.26865e-07
4.08765e-05
-1.27951e-06
4.54902e-05
-1.69947e-06
5.06385e-05
-2.18581e-06
5.63919e-05
-2.73231e-06
6.28399e-05
-3.32308e-06
7.00905e-05
-3.9321e-06
7.70394e-05
-4.52068e-06
7.74417e-05
-5.05907e-06
7.7959e-05
-5.5122e-06
7.86015e-05
-5.84514e-06
7.9365e-05
-6.02756e-06
8.025e-05
-6.03522e-06
8.12413e-05
-5.85406e-06
8.68029e-05
-5.43226e-06
7.66558e-05
-4.94256e-06
6.76992e-05
-4.41317e-06
5.97762e-05
-3.86622e-06
5.27252e-05
-3.32e-06
4.64911e-05
-2.78966e-06
4.09645e-05
-2.28711e-06
3.60242e-05
-1.82076e-06
3.15631e-05
-1.72393e-06
2.7667e-05
-1.23365e-06
2.41247e-05
-7.93237e-07
2.09274e-05
-4.18334e-07
1.77585e-05
-1.43161e-07
1.36357e-05
1.73996e-05
4.67113e-08
2.78121e-05
2.2053e-08
3.30331e-08
1.93591e-05
-1.44859e-08
2.15433e-05
-1.01632e-07
2.39697e-05
-2.30984e-07
2.6668e-05
-4.06706e-07
2.9672e-05
-6.34668e-07
3.3014e-05
-9.21265e-07
3.67294e-05
-1.2723e-06
4.08693e-05
-1.69273e-06
4.54834e-05
-2.18383e-06
5.06365e-05
-2.74276e-06
5.64024e-05
-3.35849e-06
6.28753e-05
-4.0117e-06
7.01701e-05
-4.66936e-06
7.71881e-05
-5.28562e-06
7.76683e-05
-5.82986e-06
7.82767e-05
-6.26447e-06
7.90209e-05
-6.55538e-06
7.98928e-05
-6.67385e-06
8.08886e-05
-6.60111e-06
8.19884e-05
-6.32789e-06
8.76986e-05
-5.8057e-06
7.7519e-05
-5.22569e-06
6.85117e-05
-4.61794e-06
6.05279e-05
-4.00605e-06
5.34113e-05
-3.40949e-06
4.7111e-05
-2.84242e-06
4.15198e-05
-2.31471e-06
3.65181e-05
-2.26554e-06
3.21047e-05
-1.71423e-06
2.81476e-05
-1.21832e-06
2.45497e-05
-7.81185e-07
2.12903e-05
-4.142e-07
1.80295e-05
-1.45554e-07
1.37813e-05
1.74021e-05
3.04758e-08
2.78157e-05
4.3053e-08
2.8552e-05
2.00754e-08
-1.69858e-08
1.93616e-05
-1.03405e-07
2.15451e-05
-2.31338e-07
2.39701e-05
-4.04985e-07
2.66663e-05
-6.30279e-07
2.96676e-05
-9.1385e-07
3.30066e-05
-1.26202e-06
3.67192e-05
-1.68071e-06
4.08573e-05
-2.17286e-06
4.54724e-05
-2.73825e-06
5.0632e-05
-3.36979e-06
5.64137e-05
-4.05369e-06
6.29173e-05
-4.7642e-06
7.0265e-05
-5.46119e-06
7.73637e-05
-6.09405e-06
7.79325e-05
-6.62987e-06
7.86421e-05
-7.03107e-06
7.94966e-05
-7.26435e-06
8.04833e-05
-7.306e-06
8.15935e-05
-7.14168e-06
8.28022e-05
-6.7691e-06
8.8662e-05
-6.14339e-06
7.84367e-05
-5.47289e-06
6.93667e-05
-4.78959e-06
6.13115e-05
-4.11809e-06
5.41199e-05
-3.47685e-06
4.77454e-05
-2.87815e-06
4.20832e-05
-2.88077e-06
3.71333e-05
-2.25327e-06
3.26437e-05
-1.69189e-06
2.86212e-05
-1.19515e-06
2.49637e-05
-7.64129e-07
2.16402e-05
-4.0667e-07
1.82906e-05
-1.45592e-07
1.39269e-05
1.74042e-05
-1.90672e-08
2.78193e-05
2.69425e-08
2.85555e-05
3.95409e-08
2.93119e-05
1.82006e-08
-1.04734e-07
1.93629e-05
-2.31223e-07
2.1545e-05
-4.02723e-07
2.39678e-05
-6.25163e-07
2.66612e-05
-9.05287e-07
2.9659e-05
-1.24974e-06
3.29943e-05
-1.66513e-06
3.67036e-05
-2.15561e-06
4.084e-05
-2.72296e-06
4.54572e-05
-3.36322e-06
5.06254e-05
-4.06708e-06
5.64271e-05
-4.81497e-06
6.2968e-05
-5.57461e-06
7.03784e-05
-6.30089e-06
7.75705e-05
-6.9363e-06
7.82389e-05
-7.44849e-06
7.90595e-05
-7.79978e-06
8.0032e-05
-7.96125e-06
8.11386e-05
-7.91316e-06
8.2365e-05
-7.64815e-06
8.36812e-05
-7.17114e-06
8.96897e-05
-6.44078e-06
7.94046e-05
-5.6821e-06
7.02592e-05
-4.92825e-06
6.21216e-05
-4.20279e-06
5.48458e-05
-3.52243e-06
4.83897e-05
-3.58292e-06
4.27854e-05
-2.86539e-06
3.77455e-05
-2.22329e-06
3.31751e-05
-1.65785e-06
2.90838e-05
-1.16452e-06
2.53641e-05
-7.42499e-07
2.1976e-05
-3.96087e-07
1.85411e-05
-1.43695e-07
1.40706e-05
1.74052e-05
-1.05718e-07
2.78211e-05
-2.08489e-08
2.85588e-05
2.36383e-08
2.93152e-05
3.61808e-08
3.00898e-05
1.64297e-08
-2.30772e-07
1.93625e-05
-4.0012e-07
2.15424e-05
-6.19631e-07
2.39623e-05
-8.96077e-07
2.66519e-05
-1.23629e-06
2.96456e-05
-1.64731e-06
3.29765e-05
-2.13418e-06
3.66822e-05
-2.70018e-06
4.08172e-05
-3.34376e-06
4.54377e-05
-4.05923e-06
5.06176e-05
-4.8321e-06
5.64442e-05
-5.63684e-06
6.30303e-05
-6.4367e-06
7.05142e-05
-7.17908e-06
7.78133e-05
-7.8018e-06
7.85922e-05
-8.27323e-06
7.95329e-05
-8.55928e-06
8.063e-05
-8.63438e-06
8.18598e-05
-8.48559e-06
8.32024e-05
-8.11294e-06
8.4623e-05
-7.52837e-06
9.07773e-05
-6.69487e-06
8.04173e-05
-5.85265e-06
7.11836e-05
-5.0339e-06
6.29527e-05
-4.26051e-06
5.55839e-05
-4.38664e-06
4.91934e-05
-3.56441e-06
4.34844e-05
-2.82683e-06
3.8349e-05
-2.1775e-06
3.36948e-05
-1.61329e-06
2.95326e-05
-1.12752e-06
2.57491e-05
-7.16979e-07
2.22969e-05
-3.82996e-07
1.87804e-05
-1.40273e-07
1.42108e-05
1.74045e-05
-2.30091e-07
2.78194e-05
-1.04068e-07
2.85603e-05
-2.23394e-08
2.93183e-05
2.05633e-08
3.0093e-05
3.29749e-08
3.08897e-05
1.47631e-08
-3.97326e-07
1.93597e-05
-6.13914e-07
2.15367e-05
-8.86593e-07
2.39528e-05
-1.22227e-06
2.66379e-05
-1.62825e-06
2.96265e-05
-2.11017e-06
3.29525e-05
-2.67244e-06
3.66544e-05
-3.31533e-06
4.07888e-05
-4.03601e-06
4.54145e-05
-4.82413e-06
5.06096e-05
-5.65983e-06
5.64672e-05
-6.51362e-06
6.31072e-05
-7.34153e-06
7.06766e-05
-8.08546e-06
7.80969e-05
-8.678e-06
7.8997e-05
-9.09243e-06
8.00661e-05
-9.29717e-06
8.12928e-05
-9.27309e-06
8.26473e-05
-9.01468e-06
8.41042e-05
-8.52935e-06
8.5624e-05
-7.83674e-06
9.19192e-05
-6.90415e-06
8.14688e-05
-5.98401e-06
7.21337e-05
-5.10685e-06
6.37991e-05
-5.30869e-06
5.65059e-05
-4.36545e-06
4.99944e-05
-3.51658e-06
4.41741e-05
-2.76794e-06
3.89395e-05
-2.11788e-06
3.41994e-05
-1.56006e-06
2.99652e-05
-1.08539e-06
2.61175e-05
-6.88421e-07
2.26024e-05
-3.67979e-07
1.90081e-05
-1.35702e-07
1.43465e-05
1.74016e-05
-3.94453e-07
2.78127e-05
-2.23372e-07
2.85582e-05
-1.02009e-07
2.93195e-05
-2.35249e-08
3.00958e-05
1.77212e-08
3.08927e-05
2.9928e-08
3.17096e-05
1.31995e-08
-6.08183e-07
1.9354e-05
-8.77106e-07
2.15272e-05
-1.20813e-06
2.39387e-05
-1.60868e-06
2.66184e-05
-2.0848e-06
2.96011e-05
-2.64168e-06
3.29217e-05
-3.28099e-06
3.66201e-05
-4.00209e-06
4.07549e-05
-4.79794e-06
4.53883e-05
-5.65337e-06
5.06032e-05
-6.5451e-06
5.64987e-05
-7.43684e-06
6.32025e-05
-8.27921e-06
7.08704e-05
-9.00761e-06
7.84265e-05
-9.5531e-06
7.94576e-05
-9.89311e-06
8.0662e-05
-1.0002e-05
8.20217e-05
-9.86787e-06
8.35005e-05
-9.49276e-06
8.50676e-05
-8.89235e-06
8.66796e-05
-8.09381e-06
9.31088e-05
-7.0675e-06
8.25523e-05
-6.07629e-06
7.31031e-05
-6.36792e-06
6.48583e-05
-5.28585e-06
5.74263e-05
-4.30797e-06
5.07858e-05
-3.44331e-06
4.48495e-05
-2.69162e-06
3.95132e-05
-2.04703e-06
3.46863e-05
-1.50004e-06
3.03798e-05
-1.03942e-06
2.64685e-05
-6.57667e-07
2.2892e-05
-3.51594e-07
1.9224e-05
-1.30311e-07
1.44769e-05
1.7396e-05
-6.02559e-07
2.77991e-05
-3.80895e-07
2.8551e-05
-2.16129e-07
2.9317e-05
-9.95588e-08
3.00967e-05
-2.44039e-08
3.08953e-05
1.51106e-08
3.17124e-05
2.70435e-08
3.25535e-05
1.17409e-08
-8.67813e-07
1.93447e-05
-1.19418e-06
2.15132e-05
-1.58914e-06
2.39191e-05
-2.05897e-06
2.65925e-05
-2.60938e-06
2.95688e-05
-3.24306e-06
3.28838e-05
-3.96106e-06
3.6579e-05
-4.75898e-06
4.07159e-05
-5.62542e-06
4.53603e-05
-6.54231e-06
5.06004e-05
-7.48003e-06
5.65418e-05
-8.39715e-06
6.33204e-05
-9.23765e-06
7.11004e-05
-9.9338e-06
7.88072e-05
-1.04137e-05
7.99783e-05
-1.06632e-05
8.13232e-05
-1.06634e-05
8.28172e-05
-1.041e-05
8.44177e-05
-9.91378e-06
8.6089e-05
-9.19873e-06
8.77845e-05
-8.29783e-06
9.43392e-05
-7.18474e-06
8.36608e-05
-7.58392e-06
7.43191e-05
-6.34519e-06
6.59177e-05
-5.21867e-06
5.8337e-05
-4.21912e-06
5.15616e-05
-3.34844e-06
4.55063e-05
-2.60119e-06
4.00674e-05
-1.96749e-06
3.51538e-05
-1.43509e-06
3.07755e-05
-9.90819e-07
2.68017e-05
-6.25505e-07
2.3166e-05
-3.34355e-07
1.94281e-05
-1.24363e-07
1.46012e-05
1.7387e-05
-8.58849e-07
2.77767e-05
-5.80148e-07
2.85367e-05
-3.6662e-07
2.93092e-05
-2.08307e-07
3.00938e-05
-9.66859e-08
3.08959e-05
-2.49766e-08
3.17148e-05
1.27312e-08
3.25562e-05
2.43189e-08
3.34194e-05
1.03839e-08
-1.18067e-06
1.93312e-05
-1.57004e-06
2.14941e-05
-2.03333e-06
2.38935e-05
-2.57662e-06
2.65598e-05
-3.20331e-06
2.95291e-05
-3.91573e-06
3.28385e-05
-4.71149e-06
3.65316e-05
-5.58228e-06
4.06728e-05
-6.51428e-06
4.53323e-05
-7.48359e-06
5.06039e-05
-8.45578e-06
5.66005e-05
-9.38288e-06
6.34657e-05
-1.02053e-05
7.1372e-05
-1.08505e-05
7.9244e-05
-1.12473e-05
8.05624e-05
-1.13915e-05
8.20513e-05
-1.12716e-05
8.36789e-05
-1.08924e-05
8.53963e-05
-1.02737e-05
8.7164e-05
-9.44603e-06
8.89327e-05
-8.44826e-06
9.56027e-05
-8.97857e-06
8.50554e-05
-7.56429e-06
7.55382e-05
-6.26873e-06
6.69677e-05
-5.11315e-06
5.92311e-05
-4.10375e-06
5.2317e-05
-3.23613e-06
4.61413e-05
-2.49991e-06
4.05998e-05
-1.88171e-06
3.56004e-05
-1.36686e-06
3.11515e-05
-9.40674e-07
2.71169e-05
-5.92653e-07
2.34243e-05
-3.16653e-07
1.96203e-05
-1.18089e-07
1.47193e-05
1.73741e-05
-1.16775e-06
2.77431e-05
-8.25219e-07
2.85134e-05
-5.56852e-07
2.92943e-05
-3.51672e-07
3.00855e-05
-1.99992e-07
3.08926e-05
-9.3416e-08
3.17151e-05
-2.52401e-08
3.25583e-05
1.05828e-08
3.34219e-05
2.17577e-08
3.43053e-05
9.12737e-09
-1.55163e-06
1.93128e-05
-2.00835e-06
2.14692e-05
-2.54419e-06
2.38611e-05
-3.16305e-06
2.65195e-05
-3.86819e-06
2.94815e-05
-4.65877e-06
3.27858e-05
-5.52891e-06
3.64782e-05
-6.46828e-06
4.06268e-05
-7.45773e-06
4.53065e-05
-8.46895e-06
5.06171e-05
-9.46122e-06
5.66788e-05
-1.03829e-05
6.36432e-05
-1.11688e-05
7.16903e-05
-1.17448e-05
7.97415e-05
-1.20421e-05
8.1213e-05
-1.20674e-05
8.28472e-05
-1.18187e-05
8.46052e-05
-1.13102e-05
8.64328e-05
-1.05691e-05
8.82871e-05
-9.63313e-06
9.01176e-05
-1.05754e-05
9.71996e-05
-8.96738e-06
8.64585e-05
-7.48006e-06
7.67496e-05
-6.14578e-06
6.80004e-05
-4.97529e-06
6.01026e-05
-3.96703e-06
5.30479e-05
-3.11045e-06
4.67518e-05
-2.39087e-06
4.11089e-05
-1.79185e-06
3.60254e-05
-1.29682e-06
3.15077e-05
-8.89969e-07
2.74142e-05
-5.59633e-07
2.36672e-05
-2.98856e-07
1.98011e-05
-1.11666e-07
1.4831e-05
1.73566e-05
-1.53409e-06
2.76958e-05
-1.12048e-06
2.84787e-05
-7.90489e-07
2.927e-05
-5.32615e-07
3.00698e-05
-3.35996e-07
3.08838e-05
-1.91133e-07
3.17114e-05
-8.97403e-08
3.25583e-05
-2.5202e-08
3.34238e-05
8.65914e-09
3.43077e-05
1.93579e-08
3.52192e-05
7.96984e-09
-1.98436e-06
1.92888e-05
-2.51266e-06
2.14376e-05
-3.12325e-06
2.38213e-05
-3.82001e-06
2.64713e-05
-4.60331e-06
2.94261e-05
-5.46915e-06
3.2726e-05
-6.41002e-06
3.64199e-05
-7.4107e-06
4.05797e-05
-8.44807e-06
4.52856e-05
-9.48783e-06
5.06437e-05
-1.04857e-05
5.67816e-05
-1.13839e-05
6.38584e-05
-1.21151e-05
7.20605e-05
-1.26045e-05
8.03038e-05
-1.27866e-05
8.19321e-05
-1.26821e-05
8.37105e-05
-1.22987e-05
8.55937e-05
-1.16591e-05
8.75228e-05
-1.07985e-05
8.94524e-05
-1.20809e-05
9.1623e-05
-1.05817e-05
9.88139e-05
-8.87918e-06
8.78576e-05
-7.33988e-06
7.79437e-05
-5.98359e-06
6.90087e-05
-4.81137e-06
6.0947e-05
-3.81388e-06
5.37513e-05
-2.97518e-06
4.73361e-05
-2.27676e-06
4.15939e-05
-1.69978e-06
3.64284e-05
-1.22627e-06
3.1844e-05
-8.39399e-07
2.76939e-05
-5.26951e-07
2.38953e-05
-2.81241e-07
1.99707e-05
-1.05224e-07
1.49362e-05
1.73338e-05
-1.96156e-06
2.76319e-05
-1.47014e-06
2.84301e-05
-1.07186e-06
2.92343e-05
-7.54709e-07
3.00447e-05
-5.07513e-07
3.08674e-05
-3.19662e-07
3.17021e-05
-1.81771e-07
3.25542e-05
-8.56748e-08
3.34235e-05
-2.48592e-08
3.43094e-05
6.95758e-09
3.52214e-05
1.71158e-08
3.61551e-05
6.90799e-09
-2.48243e-06
1.92585e-05
-3.08456e-06
2.13989e-05
-3.77234e-06
2.37736e-05
-4.54698e-06
2.6415e-05
-5.40595e-06
2.93629e-05
-6.34396e-06
3.26599e-05
-7.34903e-06
3.63583e-05
-8.40239e-06
4.0534e-05
-9.4753e-06
4.5273e-05
-1.053e-05
5.06881e-05
-1.15162e-05
5.69139e-05
-1.23731e-05
6.41164e-05
-1.30316e-05
7.24876e-05
-1.34174e-05
8.09346e-05
-1.3471e-05
8.27211e-05
-1.32285e-05
8.46404e-05
-1.27066e-05
8.66412e-05
-1.19368e-05
8.86611e-05
-1.35706e-05
9.09422e-05
-1.21124e-05
9.31537e-05
-1.04962e-05
0.000100431
-8.72382e-06
8.92416e-05
-7.15243e-06
7.91125e-05
-5.78975e-06
6.9987e-05
-4.62735e-06
6.17604e-05
-3.64894e-06
5.4425e-05
-2.83365e-06
4.7893e-05
-2.15996e-06
4.2054e-05
-1.60721e-06
3.68093e-05
-1.15614e-06
3.21607e-05
-7.89645e-07
2.79566e-05
-4.94984e-07
2.41091e-05
-2.64002e-07
2.01295e-05
-9.88682e-08
1.50351e-05
1.73051e-05
-2.45373e-06
2.7548e-05
-1.87773e-06
2.83643e-05
-1.40441e-06
2.91841e-05
-1.02166e-06
3.00077e-05
-7.17705e-07
3.08415e-05
-4.8154e-07
3.16851e-05
-3.02701e-07
3.25444e-05
-1.7192e-07
3.34191e-05
-8.1228e-08
3.43087e-05
-2.42156e-08
3.52229e-05
5.47113e-09
3.61572e-05
1.50264e-08
3.6589e-05
5.95173e-09
-3.04748e-06
1.92215e-05
-3.72599e-06
2.13526e-05
-4.49115e-06
2.37178e-05
-5.34151e-06
2.63506e-05
-6.27353e-06
2.92924e-05
-7.27784e-06
3.25887e-05
-8.3393e-06
3.62952e-05
-9.43391e-06
4.04927e-05
-1.05298e-05
4.52728e-05
-1.15831e-05
5.0755e-05
-1.25402e-05
5.7081e-05
-1.33378e-05
6.44227e-05
-1.39059e-05
7.29761e-05
-1.41731e-05
8.16367e-05
-1.40877e-05
8.35802e-05
-1.37009e-05
8.56347e-05
-1.30392e-05
8.77436e-05
-1.50365e-05
9.01269e-05
-1.36375e-05
9.24672e-05
-1.20383e-05
9.46958e-05
-1.03302e-05
0.000102037
-8.51127e-06
9.06004e-05
-6.92659e-06
8.02493e-05
-5.57144e-06
7.09311e-05
-4.42887e-06
6.25404e-05
-3.47624e-06
5.50676e-05
-2.68876e-06
4.84218e-05
-2.04255e-06
4.24894e-05
-1.51527e-06
3.71684e-05
-1.08731e-06
3.24584e-05
-7.41207e-07
2.82029e-05
-4.63978e-07
2.4309e-05
-2.47301e-07
2.02779e-05
-9.26813e-08
1.51277e-05
1.72699e-05
-3.0123e-06
2.74409e-05
-2.34658e-06
2.82788e-05
-1.79215e-06
2.91168e-05
-1.33713e-06
2.99563e-05
-9.70214e-07
3.08035e-05
-6.79755e-07
3.16583e-05
-4.54754e-07
3.25268e-05
-2.85091e-07
3.34087e-05
-1.61603e-07
3.43039e-05
-7.64198e-08
3.52219e-05
-2.32701e-08
3.61584e-05
4.19675e-09
3.65909e-05
1.31055e-08
3.55528e-05
5.12449e-09
-3.68155e-06
1.9177e-05
-4.43679e-06
2.12982e-05
-5.27744e-06
2.36537e-05
-6.2013e-06
2.62783e-05
-7.2011e-06
2.92157e-05
-8.26465e-06
3.25141e-05
-9.37196e-06
3.62332e-05
-1.04962e-05
4.04591e-05
-1.15996e-05
4.52892e-05
-1.26348e-05
5.08496e-05
-1.35451e-05
5.72882e-05
-1.42653e-05
6.47821e-05
-1.47268e-05
7.35298e-05
-1.48629e-05
8.24119e-05
-1.46298e-05
8.45091e-05
-1.40952e-05
8.66907e-05
-1.64684e-05
8.91755e-05
-1.51503e-05
9.16397e-05
-1.35851e-05
9.4014e-05
-1.18709e-05
9.62365e-05
-1.00952e-05
0.000103621
-8.25195e-06
9.19258e-05
-6.67079e-06
8.13487e-05
-5.3354e-06
7.18377e-05
-4.22079e-06
6.32849e-05
-3.29934e-06
5.56782e-05
-2.54311e-06
4.89224e-05
-1.92598e-06
4.29001e-05
-1.42511e-06
3.75062e-05
-1.02042e-06
3.27376e-05
-6.94393e-07
2.84333e-05
-4.34141e-07
2.44959e-05
-2.31264e-07
2.04165e-05
-8.67183e-08
1.52145e-05
1.72277e-05
-3.63935e-06
2.73076e-05
-2.87901e-06
2.81697e-05
-2.2375e-06
2.9029e-05
-1.70437e-06
2.98874e-05
-1.26826e-06
3.07508e-05
-9.17473e-07
3.16193e-05
-6.40791e-07
3.24993e-05
-4.27275e-07
3.33906e-05
-2.66953e-07
3.42932e-05
-1.50877e-07
3.52168e-05
-7.12782e-08
3.61572e-05
-2.20513e-08
3.65919e-05
3.14255e-09
3.55545e-05
1.13998e-08
3.45447e-05
4.40628e-09
-4.38459e-06
1.91248e-05
-5.21491e-06
2.12357e-05
-6.1292e-06