/*--------------------------------*- C++ -*----------------------------------*\
  =========                 |
  \\      /  F ield         | OpenFOAM: The Open Source CFD Toolbox
   \\    /   O peration     | Website:  https://openfoam.org
    \\  /    A nd           | Version:  8
     \\/     M anipulation  |
\*---------------------------------------------------------------------------*/
FoamFile
{
    version     2.0;
    format      ascii;
    class       volScalarField;
    location    "1900";
    object      k;
}
// * * * * * * * * * * * * * * * * * * * * * * * * * * * * * * * * * * * * * //

dimensions      [0 2 -2 0 0 0 0];

internalField   nonuniform List<scalar> 
15677
(
0.991541
0.87871
1.19176
0.495982
0.831012
1.13859
0.398763
0.479957
0.693348
1.04264
0.380438
0.386828
0.414436
0.659613
0.977888
0.375731
0.37261
0.358583
0.359293
0.668593
0.936336
0.374332
0.370445
0.355688
0.317527
0.358568
0.691678
0.910927
0.373838
0.370028
0.359203
0.329883
0.295998
0.368871
0.717344
0.892921
0.373577
0.369928
0.362049
0.342609
0.309246
0.283177
0.392703
0.731989
0.8812
0.373422
0.36999
0.364005
0.350927
0.32692
0.292391
0.284221
0.423458
0.744748
0.871664
0.37333
0.370043
0.365277
0.356118
0.33939
0.312655
0.282002
0.289394
0.456361
0.74746
0.865112
0.373281
0.370047
0.366075
0.359367
0.347555
0.32824
0.300828
0.275541
0.300429
0.483753
0.750053
0.861218
0.373257
0.370013
0.366541
0.361408
0.352855
0.338966
0.318047
0.291615
0.272408
0.315337
0.507943
0.751019
0.859886
0.373248
0.369972
0.366771
0.36267
0.356299
0.346189
0.330695
0.309268
0.284367
0.272836
0.331842
0.527269
0.751224
0.860484
0.373245
0.369936
0.366848
0.363403
0.358519
0.351031
0.339583
0.323148
0.30165
0.279357
0.27455
0.347522
0.543784
0.75104
0.86263
0.373245
0.369915
0.366848
0.363774
0.359899
0.354252
0.345739
0.333331
0.316284
0.295386
0.275771
0.277965
0.363367
0.555546
0.751033
0.867069
0.373244
0.369905
0.366825
0.363918
0.360691
0.356341
0.349952
0.340617
0.327474
0.310249
0.290176
0.273336
0.282895
0.37688
0.565518
0.750933
0.873882
0.373243
0.3699
0.366805
0.363943
0.361079
0.357622
0.352773
0.345744
0.335727
0.322131
0.304951
0.28593
0.271959
0.287946
0.389466
0.571638
0.751049
0.882752
0.373243
0.369897
0.366791
0.363933
0.361209
0.358326
0.354577
0.349273
0.341683
0.331162
0.317284
0.300388
0.282498
0.271369
0.293575
0.399034
0.577076
0.751046
0.893713
0.373243
0.369894
0.366783
0.363917
0.361235
0.358618
0.355638
0.351609
0.345881
0.337839
0.326938
0.312982
0.29644
0.279792
0.271491
0.298657
0.407424
0.579803
0.751031
0.906747
0.373242
0.369892
0.366777
0.363903
0.361228
0.358717
0.356126
0.353051
0.348734
0.342649
0.334242
0.32311
0.309151
0.293141
0.277648
0.271884
0.303489
0.413333
0.581626
0.751052
0.921829
0.373242
0.36989
0.366773
0.363893
0.361213
0.358737
0.356321
0.353768
0.350557
0.345998
0.339613
0.330939
0.319655
0.305859
0.290314
0.276081
0.272638
0.3075
0.418096
0.581556
0.751124
0.93888
0.373242
0.369889
0.366771
0.363885
0.361199
0.358729
0.356385
0.354088
0.351507
0.348204
0.343427
0.336805
0.327944
0.316633
0.30299
0.288084
0.274826
0.273663
0.310997
0.42071
0.581047
0.75126
0.957846
0.373242
0.369888
0.366768
0.363879
0.361189
0.358713
0.356393
0.354215
0.351959
0.349409
0.345995
0.341049
0.334268
0.325302
0.314004
0.300657
0.286204
0.274102
0.274667
0.313627
0.422699
0.579851
0.75148
0.978561
0.373242
0.369887
0.366767
0.363874
0.36118
0.358697
0.356382
0.35425
0.352157
0.350016
0.347433
0.343977
0.338924
0.332027
0.323025
0.311835
0.298713
0.284898
0.27356
0.27574
0.315687
0.422687
0.577734
0.751681
1.00096
0.373242
0.369887
0.366766
0.36387
0.361174
0.358683
0.356366
0.354245
0.352228
0.350302
0.348179
0.345678
0.342187
0.337052
0.330134
0.321166
0.310108
0.297345
0.283904
0.273532
0.276728
0.317139
0.422215
0.575009
0.752046
1.02484
0.373242
0.369886
0.366765
0.363867
0.361169
0.358672
0.35635
0.354227
0.35224
0.350416
0.348551
0.3466
0.3441
0.340642
0.335551
0.328656
0.319769
0.308875
0.29631
0.283427
0.273696
0.277747
0.317889
0.421105
0.571945
0.752415
1.05012
0.373242
0.369886
0.366764
0.363865
0.361164
0.358663
0.356337
0.354205
0.352227
0.350443
0.348716
0.347078
0.345147
0.342837
0.339493
0.334401
0.327567
0.318797
0.308139
0.296013
0.28351
0.274108
0.278699
0.318347
0.419128
0.568395
0.752946
1.07652
0.373242
0.369886
0.366763
0.363863
0.361161
0.358656
0.356326
0.354185
0.352206
0.350431
0.348772
0.347295
0.345711
0.344099
0.341865
0.338593
0.333729
0.327151
0.318651
0.308205
0.296202
0.283861
0.274843
0.279683
0.318316
0.41659
0.564717
0.753496
1.10403
0.373242
0.369886
0.366763
0.363862
0.361158
0.358651
0.356317
0.354169
0.352184
0.350404
0.348775
0.347368
0.345995
0.344794
0.343207
0.341326
0.338486
0.333817
0.327356
0.318957
0.308635
0.296778
0.284619
0.275898
0.280713
0.318156
0.413727
0.560699
0.754195
1.13214
0.373242
0.369886
0.366762
0.363861
0.361156
0.358646
0.356309
0.354155
0.352165
0.350374
0.348752
0.347371
0.346115
0.345127
0.343968
0.342988
0.341457
0.338796
0.334317
0.328043
0.319804
0.309629
0.297953
0.285979
0.277255
0.281844
0.317827
0.410537
0.556723
0.75502
1.16406
0.373242
0.369886
0.366762
0.36386
0.361154
0.358643
0.356303
0.354144
0.352148
0.350347
0.348721
0.347341
0.346144
0.345257
0.34441
0.343968
0.343231
0.342004
0.339658
0.33546
0.329483
0.321483
0.311478
0.299867
0.287832
0.278966
0.283145
0.317383
0.407223
0.552508
0.75629
1.20005
0.373242
0.369886
0.366762
0.363859
0.361153
0.35864
0.356298
0.354135
0.352134
0.350324
0.34869
0.347301
0.346125
0.345283
0.344622
0.344468
0.344289
0.343963
0.343203
0.341379
0.337614
0.331912
0.324067
0.314123
0.302433
0.290244
0.281015
0.284597
0.316941
0.403771
0.548048
0.758
1.23618
0.373242
0.369886
0.366761
0.363859
0.361151
0.358638
0.356293
0.354128
0.352122
0.350305
0.348662
0.347261
0.346085
0.345257
0.344693
0.344709
0.344875
0.345158
0.34546
0.345415
0.344141
0.340766
0.335313
0.327585
0.317579
0.305729
0.293186
0.283458
0.28631
0.31658
0.39999
0.542798
0.759943
1.27225
0.373242
0.369886
0.366761
0.363858
0.36115
0.358636
0.356289
0.354122
0.352111
0.350289
0.348638
0.347226
0.346041
0.345207
0.344689
0.344798
0.345171
0.345859
0.346888
0.348006
0.348683
0.348018
0.345032
0.339801
0.332082
0.321935
0.309733
0.296721
0.286255
0.288191
0.316399
0.395957
0.53783
0.762128
1.30793
0.369886
0.373246
0.366761
0.363858
0.361149
0.358634
0.356286
0.354117
0.352102
0.350275
0.348617
0.347195
0.345999
0.345155
0.344645
0.344804
0.345295
0.346236
0.347771
0.349696
0.351682
0.35318
0.353156
0.350549
0.34545
0.337659
0.327184
0.314516
0.300813
0.289485
0.290472
0.316491
0.392319
0.532779
0.764416
1.343
0.366761
0.369896
0.373253
0.363857
0.361148
0.358633
0.356283
0.354112
0.352095
0.350264
0.348599
0.347168
0.345961
0.345106
0.344589
0.344765
0.345323
0.346418
0.348286
0.350783
0.353706
0.356688
0.35908
0.35972
0.357421
0.352374
0.344328
0.333409
0.320039
0.305504
0.293528
0.293323
0.3168
0.388926
0.528138
0.766932
1.37725
0.363857
0.366777
0.369917
0.37326
0.361148
0.358631
0.356281
0.354109
0.352089
0.350254
0.348584
0.347146
0.345929
0.345062
0.344534
0.344712
0.345299
0.346486
0.348569
0.351466
0.35507
0.359141
0.363225
0.366578
0.367846
0.365784
0.360612
0.352188
0.34057
0.326354
0.311348
0.298616
0.296503
0.317428
0.385974
0.523505
0.769484
1.41051
0.361147
0.363879
0.36681
0.369939
0.373268
0.35863
0.356279
0.354106
0.352083
0.350246
0.34857
0.347127
0.345901
0.345023
0.344483
0.344657
0.345255
0.346493
0.348713
0.351889
0.355987
0.360872
0.366231
0.371519
0.375843
0.377702
0.375704
0.370277
0.361202
0.348737
0.334204
0.318669
0.304274
0.299992
0.318438
0.383318
0.519349
0.771922
1.44264
0.358629
0.361174
0.363924
0.366845
0.369961
0.373276
0.356277
0.354103
0.352079
0.35024
0.348559
0.347111
0.345877
0.34499
0.344439
0.344607
0.345207
0.346473
0.348779
0.352154
0.356617
0.362117
0.368453
0.375232
0.381773
0.38708
0.389387
0.38732
0.381348
0.371462
0.358868
0.344012
0.326783
0.310452
0.303797
0.319746
0.381084
0.515474
0.774363
1.47356
0.356276
0.35866
0.361228
0.36397
0.36688
0.369984
0.373284
0.354101
0.352075
0.350234
0.34855
0.347098
0.345857
0.344962
0.344402
0.344564
0.345163
0.346444
0.348806
0.352323
0.357071
0.363046
0.370148
0.378101
0.386387
0.394229
0.400416
0.40307
0.400628
0.393937
0.384174
0.371514
0.354864
0.33561
0.317098
0.30788
0.321336
0.37913
0.512042
0.776734
1.50316
0.354099
0.35631
0.358724
0.361285
0.364017
0.366916
0.370007
0.373293
0.352071
0.350229
0.348542
0.347088
0.34584
0.344939
0.344371
0.344527
0.345124
0.346417
0.348818
0.35244
0.357411
0.363784
0.371508
0.380414
0.390108
0.399981
0.409053
0.416065
0.418758
0.415768
0.40954
0.400045
0.385499
0.366658
0.34507
0.324145
0.312222
0.323177
0.377572
0.508862
0.779104
1.53144
0.352068
0.354136
0.356382
0.35879
0.361343
0.364065
0.366954
0.370031
0.373301
0.350225
0.348535
0.347079
0.345826
0.344921
0.344346
0.344497
0.345093
0.346394
0.348825
0.352531
0.357681
0.364391
0.372668
0.382381
0.393257
0.404816
0.416247
0.426521
0.434061
0.436641
0.434533
0.42902
0.417592
0.40069
0.379278
0.355074
0.331536
0.316771
0.325229
0.376241
0.506059
0.781427
1.55834
0.350222
0.352108
0.354215
0.356456
0.358858
0.361402
0.364115
0.366992
0.370055
0.37331
0.348529
0.347072
0.345814
0.344906
0.344326
0.344473
0.345068
0.346377
0.348835
0.352612
0.357911
0.364904
0.373683
0.384152
0.396064
0.409083
0.422516
0.435521
0.446727
0.454679
0.458854
0.457995
0.450559
0.436642
0.416927
0.392603
0.365529
0.339199
0.321506
0.327479
0.375261
0.503482
0.78373
1.58389
0.348524
0.350262
0.352191
0.354296
0.356532
0.358927
0.361464
0.364166
0.367031
0.370081
0.373319
0.347065
0.345803
0.344894
0.34431
0.344455
0.34505
0.346366
0.348849
0.352689
0.35812
0.36536
0.374578
0.385769
0.398703
0.413047
0.42826
0.443632
0.457948
0.470016
0.48044
0.48679
0.484009
0.47396
0.456994
0.434053
0.406505
0.376338
0.347071
0.326365
0.329858
0.374538
0.50124
0.785996
1.60806
0.34706
0.348564
0.35035
0.352277
0.354379
0.35661
0.358999
0.361527
0.364219
0.367072
0.370107
0.373328
0.345794
0.344885
0.344297
0.344441
0.345037
0.346362
0.348868
0.352767
0.358316
0.365778
0.375391
0.387236
0.401196
0.416908
0.433784
0.451318
0.468382
0.483994
0.499285
0.513072
0.517972
0.512399
0.499011
0.478465
0.451896
0.420845
0.387401
0.355083
0.331338
0.332236
0.374128
0.4992
0.788223
1.63092
0.345785
0.347098
0.34865
0.350439
0.352366
0.354465
0.356691
0.359072
0.361592
0.364273
0.367113
0.370133
0.373338
0.344877
0.344285
0.344429
0.345028
0.346363
0.348892
0.352845
0.358504
0.36617
0.376144
0.388589
0.40351
0.420658
0.439322
0.458944
0.478579
0.49739
0.516975
0.536693
0.549773
0.552211
0.542952
0.52552
0.500849
0.470284
0.435488
0.398619
0.363172
0.336406
0.334633
0.373874
0.497437
0.790412
1.65246
0.344872
0.345816
0.347183
0.348739
0.350532
0.352458
0.354553
0.356774
0.359148
0.361658
0.364328
0.367156
0.37016
0.373347
0.344274
0.34442
0.345023
0.346367
0.34892
0.352925
0.358685
0.366541
0.37685
0.389854
0.405679
0.424204
0.444826
0.466806
0.488985
0.510868
0.53445
0.559597
0.579191
0.590431
0.589295
0.575432
0.553268
0.523956
0.48905
0.450307
0.409906
0.371282
0.341524
0.337031
0.373888
0.495852
0.792545
1.67276
0.344263
0.344898
0.345887
0.347269
0.348832
0.350627
0.352553
0.354644
0.35686
0.359225
0.361727
0.364385
0.367199
0.370187
0.373356
0.344411
0.345019
0.346374
0.34895
0.353004
0.35886
0.366893
0.377514
0.391044
0.407724
0.427563
0.450122
0.474808
0.499968
0.524989
0.55256
0.583001
0.608639
0.626822
0.634929
0.62902
0.609584
0.582007
0.547593
0.508044
0.465186
0.421176
0.379358
0.346648
0.339433
0.373973
0.494483
0.794637
1.69182
0.344406
0.344262
0.344957
0.345959
0.347359
0.348929
0.350726
0.352651
0.354738
0.356948
0.359305
0.361798
0.364443
0.367243
0.370213
0.373365
0.345015
0.346382
0.34898
0.353082
0.359027
0.367227
0.378139
0.392163
0.409655
0.430754
0.455213
0.482646
0.511349
0.540258
0.57209
0.608092
0.639768
0.664465
0.679702
0.6832
0.671176
0.645155
0.6115
0.571571
0.527119
0.480018
0.432355
0.387352
0.351743
0.341826
0.374159
0.493253
0.796658
1.70975
0.345014
0.344388
0.344264
0.345016
0.346037
0.347453
0.34903
0.350828
0.352752
0.354834
0.357039
0.359387
0.361869
0.364501
0.367285
0.370239
0.373374
0.346387
0.349008
0.353156
0.359186
0.367541
0.378725
0.393216
0.411474
0.433783
0.460103
0.490262
0.522643
0.556483
0.593813
0.636048
0.67434
0.705785
0.727765
0.738163
0.735254
0.715588
0.681915
0.64153
0.595718
0.546157
0.494715
0.44338
0.395222
0.356774
0.344198
0.374471
0.492201
0.798631
1.72654
0.346397
0.344967
0.34435
0.344266
0.34508
0.34612
0.347549
0.349135
0.350932
0.352857
0.354933
0.357133
0.359471
0.361941
0.364557
0.367325
0.370263
0.373382
0.349031
0.353224
0.359334
0.367835
0.379274
0.394201
0.413184
0.436651
0.464783
0.497629
0.533769
0.573014
0.617473
0.668113
0.714396
0.753807
0.783053
0.799817
0.802784
0.791204
0.762123
0.719662
0.671905
0.619872
0.565044
0.509198
0.454197
0.40293
0.361719
0.346542
0.374857
0.491257
0.800524
1.74229
0.349058
0.346305
0.344855
0.344306
0.344283
0.345146
0.34621
0.347649
0.349244
0.351041
0.352965
0.355035
0.357228
0.359554
0.36201
0.364612
0.367365
0.370287
0.373391
0.353281
0.359469
0.368106
0.379783
0.395119
0.414784
0.439355
0.469238
0.504722
0.544711
0.589678
0.641927
0.704176
0.762692
0.812765
0.851135
0.874678
0.882294
0.87426
0.851195
0.810672
0.758216
0.702454
0.643894
0.583681
0.523401
0.464761
0.410448
0.366552
0.348847
0.375307
0.490452
0.802364
1.75702
0.353343
0.34889
0.346077
0.344734
0.344266
0.344318
0.345213
0.346307
0.347753
0.349358
0.351152
0.353076
0.355139
0.357323
0.359635
0.362078
0.364665
0.367403
0.370311
0.373398
0.359585
0.368352
0.380252
0.39597
0.416274
0.441893
0.473456
0.511521
0.555424
0.606306
0.666783
0.743165
0.820847
0.888844
0.939929
0.971964
0.983728
0.976606
0.953078
0.915271
0.8611
0.797405
0.733024
0.667668
0.601986
0.537267
0.475035
0.41775
0.371258
0.351105
0.375797
0.489729
0.804117
1.76905
0.359705
0.353085
0.348467
0.345835
0.344625
0.344219
0.34437
0.345282
0.34641
0.34786
0.349475
0.351268
0.35319
0.355243
0.357415
0.359714
0.362143
0.364716
0.367441
0.370334
0.373406
0.368568
0.380677
0.396752
0.417655
0.444261
0.47743
0.518007
0.565835
0.622708
0.691991
0.785474
0.88843
0.985753
1.0592
1.10305
1.11973
1.11156
1.0831
1.03918
0.983235
0.913195
0.837047
0.763478
0.691092
0.619887
0.550753
0.48499
0.424817
0.37582
0.353308
0.376327
0.489119
0.805594
1.77917
0.368781
0.359327
0.352403
0.348022
0.345616
0.344526
0.344175
0.344433
0.345355
0.346519
0.347972
0.349598
0.351386
0.353304
0.355345
0.357505
0.359791
0.362207
0.364766
0.367477
0.370356
0.373414
0.381055
0.397463
0.418927
0.446462
0.481156
0.524161
0.57587
0.638751
0.717697
0.831595
0.965242
1.09998
1.21099
1.27843
1.30286
1.29356
1.25694
1.20073
1.1318
1.05459
0.966652
0.876946
0.793684
0.714078
0.637327
0.563825
0.494606
0.431631
0.38023
0.355452
0.376873
0.488636
0.806844
1.79013
0.381417
0.368251
0.358277
0.351692
0.347613
0.345414
0.344434
0.344138
0.344505
0.345433
0.346634
0.348089
0.349723
0.351505
0.353414
0.355444
0.357592
0.359866
0.362269
0.364815
0.367513
0.370377
0.373421
0.398102
0.420088
0.448498
0.484635
0.529968
0.585472
0.654386
0.744057
0.881323
1.04953
1.2266
1.38366
1.49416
1.54126
1.53387
1.48886
1.41649
1.32726
1.2296
1.12857
1.02107
0.916883
0.823515
0.736551
0.654259
0.576455
0.503864
0.438188
0.384475
0.357527
0.377364
0.488264
0.808242
1.80202
0.3987
0.380691
0.366687
0.35719
0.351028
0.347227
0.345225
0.34435
0.344111
0.344585
0.345517
0.346753
0.34821
0.349848
0.351621
0.353522
0.35554
0.357677
0.359938
0.36233
0.364863
0.367547
0.370398
0.373424
0.42114
0.450366
0.487868
0.535421
0.594614
0.669613
0.771073
0.933744
1.13833
1.35976
1.56677
1.72969
1.8241
1.83755
1.78782
1.69934
1.5858
1.4598
1.33084
1.20424
1.07598
0.956628
0.852849
0.758446
0.670645
0.588622
0.512759
0.444472
0.388555
0.359271
0.377795
0.487868
0.80977
1.8149
0.422104
0.397736
0.378412
0.365077
0.35617
0.350396
0.346862
0.345047
0.344277
0.344095
0.344669
0.34561
0.346876
0.348333
0.349969
0.351734
0.353626
0.355634
0.35776
0.360009
0.362388
0.364909
0.36758
0.370408
0.373424
0.452074
0.490854
0.540518
0.603289
0.684438
0.798569
0.987589
1.22859
1.49417
1.75201
1.97117
2.12384
2.18829
2.15682
2.05637
1.91874
1.76041
1.59542
1.43373
1.28058
1.13088
0.995947
0.881575
0.779706
0.686455
0.600314
0.521275
0.450491
0.391952
0.360771
0.378304
0.487487
0.811489
1.82887
0.453614
0.420854
0.394469
0.376085
0.363563
0.355191
0.349789
0.346518
0.344883
0.344216
0.344092
0.344757
0.345711
0.346998
0.348454
0.350088
0.351845
0.353728
0.355725
0.35784
0.360078
0.362445
0.364953
0.367597
0.370408
0.373424
0.493607
0.545259
0.611501
0.698857
0.826247
1.04161
1.31786
1.62592
1.93344
2.2095
2.42486
2.55331
2.57583
2.49003
2.33236
2.14162
1.93641
1.73143
1.53657
1.35659
1.18526
1.0346
0.90959
0.80028
0.701669
0.611518
0.529424
0.455481
0.394858
0.36244
0.378881
0.487086
0.813373
1.84403
0.49605
0.452011
0.416219
0.391163
0.373892
0.362105
0.354247
0.349207
0.346194
0.344732
0.344166
0.344106
0.344846
0.345819
0.347117
0.348575
0.350203
0.351954
0.353827
0.355814
0.357918
0.360145
0.3625
0.364976
0.367597
0.370408
0.373424
0.549668
0.619261
0.712847
0.853775
1.09477
1.40442
1.75255
2.10731
2.43871
2.71757
2.91547
3.00747
2.97769
2.82976
2.60999
2.36365
2.11065
1.86566
1.63791
1.43142
1.23867
1.07238
0.936791
0.820137
0.716268
0.62224
0.53617
0.459743
0.398069
0.364297
0.379566
0.486717
0.815503
1.86047
0.553543
0.494007
0.445489
0.411578
0.388044
0.371775
0.360694
0.353337
0.34865
0.345894
0.344594
0.344126
0.344144
0.344933
0.34593
0.347234
0.348693
0.350316
0.35206
0.353924
0.355901
0.357994
0.36021
0.362528
0.364976
0.367597
0.370408
0.373424
0.626608
0.726383
0.88084
1.14628
1.48717
1.87264
2.27158
2.65528
2.99572
3.26428
3.43268
3.47734
3.3863
3.17001
2.88471
2.58147
2.28071
1.99638
1.73659
1.50432
1.29069
1.10906
0.963088
0.839239
0.730253
0.631128
0.541933
0.46444
0.401621
0.366375
0.380342
0.486336
0.817848
1.87831
0.633079
0.550929
0.484844
0.439026
0.407193
0.385026
0.369721
0.359329
0.35246
0.348115
0.345617
0.344468
0.344083
0.344205
0.345017
0.346042
0.347348
0.34881
0.350426
0.352163
0.354017
0.355986
0.358068
0.360242
0.362528
0.364976
0.367597
0.370408
0.373424
0.739456
0.907193
1.1956
1.56548
1.98549
2.42527
2.85743
3.25565
3.59263
3.83936
3.96742
3.9551
3.79527
3.5059
3.15301
2.79261
2.44485
2.12236
1.83175
1.57471
1.34097
1.14449
0.988404
0.857568
0.741878
0.638718
0.54828
0.469623
0.405558
0.368697
0.381272
0.486012
0.820512
1.89768
0.75103
0.629762
0.537922
0.475878
0.432914
0.402947
0.382095
0.36773
0.35801
0.351619
0.347606
0.34536
0.344357
0.344042
0.344278
0.345102
0.346155
0.34746
0.348924
0.350533
0.352264
0.354109
0.356068
0.358104
0.360242
0.362528
0.364976
0.367597
0.370408
0.373421
0.932645
1.24239
1.63902
2.09081
2.56805
3.04447
3.49555
3.89623
4.2189
4.4335
4.51146
4.43375
4.19912
3.83352
3.41226
2.99532
2.60185
2.24273
1.92274
1.64216
1.38926
1.17851
1.01268
0.872801
0.751804
0.647079
0.555282
0.475354
0.40993
0.371311
0.382326
0.485691
0.823462
1.91869
0.74697
0.95503
0.610494
0.52547
0.467385
0.426992
0.398818
0.379249
0.365804
0.356741
0.350814
0.347128
0.345128
0.344262
0.344012
0.344358
0.345187
0.346267
0.34757
0.349036
0.350638
0.352363
0.354198
0.356108
0.358104
0.360242
0.362528
0.364976
0.367597
0.370398
0.373413
1.28647
1.70769
2.18859
2.69999
3.21641
3.71495
4.17304
4.56592
4.86481
5.03803
5.0572
4.90706
4.59325
4.14981
3.66053
3.1884
2.75096
2.35694
2.00917
1.70636
1.43535
1.21102
1.03282
0.885803
0.762735
0.656306
0.563019
0.481699
0.414796
0.374247
0.383599
0.485466
0.826829
1.94149
0.716769
0.950992
1.32446
0.592619
0.513701
0.459148
0.42123
0.394805
0.376491
0.363944
0.355522
0.350048
0.346686
0.344925
0.344184
0.343996
0.344441
0.345274
0.346378
0.347679
0.349146
0.35074
0.352459
0.354241
0.356108
0.358104
0.360242
0.362528
0.364976
0.36758
0.370377
0.373406
1.7715
2.27902
2.82138
3.37369
3.9142
4.42269
4.87786
5.25437
5.52123
5.64477
5.59759
5.36952
4.97385
4.45243
3.89651
3.37114
2.89173
2.46469
2.09078
1.76712
1.47909
1.23786
1.04999
0.900124
0.774793
0.6665
0.571579
0.488738
0.420221
0.377573
0.385041
0.48527
0.830583
1.9662
0.689068
0.903159
1.32069
1.82593
0.575991
0.502282
0.451134
0.415627
0.390913
0.373824
0.362155
0.354357
0.349331
0.346292
0.344751
0.344123
0.343993
0.344525
0.345363
0.346487
0.347786
0.349252
0.35084
0.352506
0.354241
0.356108
0.358104
0.360242
0.362528
0.364953
0.367546
0.370355
0.373398
2.36237
2.93275
3.51701
4.09424
4.64604
5.15448
5.59886
5.95199
6.17959
6.24605
6.1262
5.81639
5.3379
4.73972
4.1194
3.54315
3.02397
2.56586
2.16747
1.82433
1.51494
1.2607
1.06889
0.915922
0.788113
0.67778
0.581068
0.496562
0.426287
0.381329
0.386799
0.485284
0.834897
1.993
0.663662
0.857974
1.2516
1.82339
2.43281
0.560031
0.491164
0.443345
0.41019
0.387147
0.371255
0.36044
0.353258
0.34868
0.345947
0.344602
0.344078
0.344003
0.344607
0.345455
0.346593
0.347892
0.349357
0.350889
0.352506
0.354241
0.356108
0.358104
0.360242
0.3625
0.364908
0.367512
0.370333
0.37339
3.03466
3.64732
4.25633
4.8447
5.39726
5.8981
6.32588
6.64995
6.83181
6.83468
6.63731
6.24371
5.68313
5.01064
4.32879
3.70433
3.14771
2.66048
2.23924
1.87089
1.54535
1.2858
1.08972
0.933371
0.80285
0.690282
0.591606
0.505278
0.433082
0.385616
0.388792
0.4854
0.839749
2.022
0.639787
0.815648
1.18367
1.73557
2.43247
3.12013
0.544593
0.480348
0.43579
0.404928
0.383517
0.36879
0.358817
0.352253
0.348101
0.345645
0.344476
0.344045
0.344029
0.344686
0.345548
0.346697
0.347997
0.349409
0.350888
0.352506
0.354241
0.356108
0.358104
0.360209
0.362444
0.364861
0.367476
0.37031
0.373382
3.76559
4.40204
5.02074
5.60873
6.15433
6.64264
7.04985
7.34006
7.47031
7.40406
7.12592
6.6484
6.00802
5.2646
4.52458
3.8548
3.26309
2.74866
2.29734
1.91023
1.57864
1.31338
1.1127
0.952667
0.81918
0.704161
0.603332
0.515008
0.44072
0.390492
0.391162
0.485697
0.845351
2.05338
0.617181
0.775674
1.11732
1.64746
2.32849
3.12251
3.86361
0.529631
0.469856
0.428485
0.399854
0.380031
0.366451
0.357326
0.351352
0.347584
0.345385
0.344369
0.34402
0.344073
0.344764
0.345643
0.346801
0.348047
0.349407
0.350888
0.352506
0.354241
0.356108
0.358067
0.360144
0.362387
0.364814
0.36744
0.370287
0.373374
4.53289
5.1766
5.79208
6.37134
6.90539
7.37876
7.76276
8.01477
8.08795
7.94823
7.58795
7.02826
6.31167
5.50145
4.70698
3.99483
3.37037
2.81983
2.34629
1.95312
1.61509
1.34372
1.13807
0.974031
0.837302
0.719596
0.616406
0.525897
0.449318
0.396136
0.393798
0.486388
0.851729
2.08722
0.595704
0.738019
1.05223
1.5594
2.22318
3.00437
3.86799
4.63929
0.515145
0.459714
0.421447
0.394981
0.376722
0.3643
0.355985
0.350543
0.347121
0.345162
0.344278
0.343992
0.344129
0.34484
0.345743
0.346851
0.348044
0.349407
0.350887
0.352506
0.354241
0.356067
0.357993
0.360076
0.362328
0.364765
0.367402
0.370263
0.373365
5.31455
5.95088
6.55375
7.11943
7.64062
8.09865
8.45743
8.66693
8.6781
8.46207
8.02034
7.38188
6.59375
5.7214
4.87633
4.12479
3.45678
2.87966
2.3995
1.99987
1.65498
1.37709
1.16609
0.997709
0.857439
0.73679
0.631014
0.538113
0.459043
0.402618
0.396997
0.487269
0.859127
2.13042
0.575271
0.70275
0.988602
1.47088
2.1168
2.88453
3.73705
4.64346
5.42347
0.501155
0.449954
0.414694
0.390355
0.373676
0.362361
0.354779
0.349818
0.346708
0.34497
0.344204
0.343969
0.344193
0.344922
0.34579
0.346845
0.348044
0.349407
0.350888
0.352506
0.354197
0.355984
0.357916
0.360007
0.362267
0.364714
0.367364
0.370238
0.373356
6.08844
6.70669
7.29123
7.84248
8.35239
8.79573
9.12725
9.28971
9.23471
8.94146
8.42096
7.70865
6.85447
5.92493
5.03315
4.22929
3.5293
2.94454
2.4573
2.05081
1.69864
1.41378
1.19705
1.02397
0.879841
0.755974
0.647373
0.551857
0.47006
0.410176
0.400611
0.488846
0.869246
2.18199
0.555817
0.669932
0.926905
1.38184
2.00873
2.76298
3.60476
4.50013
5.4237
6.19339
0.48769
0.440607
0.40829
0.386099
0.370929
0.360614
0.353694
0.349169
0.346345
0.344806
0.344141
0.343957
0.34427
0.344956
0.345784
0.346845
0.348044
0.349407
0.350889
0.352458
0.354107
0.355899
0.357837
0.359936
0.362205
0.364663
0.367324
0.370213
0.373347
6.83481
7.42789
7.99303
8.5329
9.0346
9.46433
9.76594
9.87657
9.75262
9.38335
8.78871
8.00868
7.09439
6.11267
5.15895
4.31684
3.6078
3.01485
2.52005
2.10625
1.74637
1.45412
1.23125
1.05311
0.904789
0.777412
0.665729
0.56736
0.482609
0.418917
0.405068
0.491071
0.882741
2.23423
0.537293
0.639573
0.867734
1.29257
1.8986
2.63903
3.47076
4.35668
5.26709
6.18509
6.92774
0.47479
0.431764
0.402401
0.382262
0.368453
0.359039
0.352718
0.348588
0.346026
0.344665
0.344092
0.34397
0.344305
0.34494
0.345785
0.346844
0.348044
0.349408
0.350839
0.352361
0.354015
0.355811
0.357757
0.359863
0.362141
0.36461
0.367283
0.370187
0.373338
7.53583
8.10186
8.65158
9.18479
9.68249
10.0997
10.3669
10.4216
10.2275
9.78589
9.12352
8.28265
7.31436
6.26265
5.26408
4.41139
3.69267
3.09096
2.58808
2.16654
1.7985
1.49843
1.26903
1.08545
0.932589
0.801397
0.686371
0.5849
0.496923
0.429194
0.411209
0.495169
0.898024
2.28663
0.519668
0.6116
0.811775
1.20358
1.78634
2.51201
3.33439
4.21234
5.11277
6.01246
6.90494
7.60734
0.462584
0.423654
0.397097
0.378805
0.36622
0.357622
0.351841
0.348071
0.345745
0.344545
0.344075
0.343963
0.344295
0.344938
0.345785
0.346845
0.348046
0.349356
0.350738
0.352261
0.35392
0.355722
0.357674
0.359788
0.362076
0.364556
0.367242
0.37016
0.373328
8.17755
8.72102
9.25612
9.78515
10.2829
10.6929
10.9248
10.9189
10.6566
10.1486
9.42613
8.53164
7.48894
6.38753
5.37725
4.51334
3.78431
3.17324
2.66176
2.23202
1.85537
1.54703
1.3107
1.12131
0.963571
0.828255
0.709615
0.604794
0.513366
0.443417
0.420079
0.50005
0.9153
2.33895
0.503039
0.585862
0.759704
1.11561
1.67205
2.38141
3.19465
4.0665
4.95933
5.84617
6.71248
7.5625
8.21762
0.451401
0.416372
0.392323
0.37569
0.364209
0.356346
0.351056
0.347609
0.3455
0.344471
0.34405
0.343934
0.344298
0.344938
0.345784
0.346849
0.347995
0.34925
0.350634
0.352159
0.353823
0.35563
0.357589
0.359712
0.362009
0.3645
0.367199
0.370133
0.373319
8.74988
9.27329
9.80603
10.3403
10.8361
11.2343
11.4312
11.3643
11.0385
10.4721
9.69789
8.72736
7.63346
6.52131
5.49883
4.6231
3.8831
3.26206
2.74143
2.30299
1.91729
1.60026
1.35661
1.16104
0.998085
0.858334
0.735831
0.627418
0.535761
0.462795
0.430552
0.506887
0.934956
2.39057
0.487797
0.562295
0.712086
1.02965
1.55603
2.24693
3.05066
3.91796
4.80632
5.68378
6.53188
7.34588
8.13784
8.7509
0.441382
0.409832
0.388026
0.372885
0.362397
0.355198
0.350349
0.347201
0.345327
0.344414
0.344015
0.343934
0.344298
0.344939
0.345788
0.346799
0.347888
0.349142
0.350529
0.352055
0.353724
0.355536
0.357502
0.359633
0.36194
0.364443
0.367155
0.370106
0.373309
9.24946
9.76032
10.3011
10.8521
11.3465
11.7219
11.8806
11.7552
11.3735
10.7581
9.90867
8.88814
7.78724
6.66425
5.62916
4.741
3.98939
3.35775
2.82739
2.37976
1.98455
1.65841
1.40708
1.20498
1.03648
0.892017
0.765389
0.657968
0.565342
0.485107
0.443501
0.514904
0.957054
2.44121
0.474113
0.541162
0.669574
0.946925
1.43883
2.10843
2.90163
3.76545
4.65233
5.52494
6.35956
7.14771
7.89394
8.61385
9.18983
0.432418
0.403958
0.384159
0.370359
0.360766
0.354163
0.349719
0.346893
0.34521
0.344366
0.344016
0.343933
0.344293
0.344953
0.34574
0.346693
0.347781
0.349031
0.350421
0.351949
0.353622
0.35544
0.357413
0.359553
0.361869
0.364385
0.367112
0.37008
0.3733
9.6636
10.1752
10.7376
11.3144
11.8102
12.1513
12.2685
12.0915
11.6636
10.9758
10.08
9.05759
7.95021
6.81647
5.76846
4.86735
4.10349
3.46061
2.91993
2.46259
2.05741
1.72175
1.46239
1.25342
1.0791
0.929641
0.804941
0.697561
0.598438
0.510906
0.458976
0.525614
0.982322
2.49017
0.461849
0.522399
0.633029
0.869463
1.32134
1.96597
2.74684
3.60769
4.4958
5.368
6.19517
6.96354
7.67478
8.34077
8.9851
9.52645
0.424403
0.398682
0.380683
0.368085
0.359293
0.353238
0.349229
0.346699
0.345141
0.34437
0.344015
0.343932
0.344302
0.344919
0.345639
0.346588
0.347673
0.348919
0.35031
0.35184
0.353518
0.355342
0.357321
0.35947
0.361797
0.364328
0.36707
0.370055
0.373292
9.98845
10.5161
11.1156
11.7239
12.2186
12.516
12.5916
12.3751
11.8787
11.1502
10.2582
9.23519
8.12214
6.97796
5.91686
5.00235
4.22564
3.57087
3.01928
2.55169
2.13607
1.79049
1.52276
1.30664
1.12621
0.979443
0.855248
0.740864
0.635307
0.54042
0.478077
0.538171
1.01062
2.53717
0.450884
0.505606
0.602304
0.800569
1.20567
1.81986
2.58572
3.44338
4.33502
5.21119
6.03675
6.79294
7.47636
8.09766
8.67565
9.24275
9.75569
0.417236
0.393946
0.377558
0.366034
0.357974
0.352502
0.348932
0.346609
0.345147
0.344368
0.344012
0.343959
0.344266
0.344835
0.345542
0.34648
0.347563
0.348804
0.350198
0.351729
0.353411
0.355241
0.357227
0.359387
0.361726
0.364272
0.36703
0.37003
0.373283
10.2196
10.7831
11.4352
12.0775
12.5615
12.8108
12.8481
12.5774
12.0473
11.3284
10.4422
9.42005
8.30248
7.14846
6.07433
5.14606
4.35597
3.68869
3.12556
2.64718
2.22065
1.86476
1.58834
1.36479
1.18781
1.04156
0.909049
0.787752
0.675921
0.574092
0.500888
0.554545
1.04318
2.58145
0.441103
0.490515
0.576258
0.741707
1.09652
1.67178
2.41785
3.2712
4.16811
5.05245
5.88232
6.63347
7.29822
7.88268
8.40474
8.89056
9.37609
9.86837
0.410828
0.389696
0.374741
0.364195
0.35691
0.352066
0.348812
0.346618
0.345145
0.344362
0.344045
0.343964
0.344187
0.344757
0.345447
0.346371
0.347453
0.348687
0.350082
0.351616
0.353301
0.355138
0.357132
0.359304
0.361656
0.364218
0.36699
0.370006
0.373275
10.3532
10.9777
11.6978
12.3627
12.8325
13.0342
13.0144
12.7303
12.2149
11.5081
10.63
9.61092
8.49038
7.32749
6.24061
5.29842
4.49448
3.8141
3.23883
2.74909
2.31115
1.94459
1.65914
1.43983
1.26314
1.10656
0.965834
0.837844
0.72018
0.611818
0.528577
0.573826
1.07963
2.62286
0.432395
0.476943
0.553875
0.69234
0.997329
1.52681
2.24431
3.08985
3.99302
4.88946
5.7296
6.48293
7.13731
7.69546
8.17116
8.58764
8.97835
9.37279
9.8527
0.405096
0.385872
0.372218
0.362696
0.356289
0.35191
0.348827
0.346616
0.345136
0.344408
0.344068
0.343949
0.344122
0.344678
0.345354
0.346259
0.34734
0.348568
0.349964
0.351501
0.353189
0.355034
0.357037
0.359223
0.361589
0.364165
0.366952
0.369983
0.373267
10.3876
11.1056
11.8839
12.5797
13.0207
13.1669
13.1287
12.8746
12.3784
11.6867
10.8196
9.80604