/*--------------------------------*- C++ -*----------------------------------*\
  =========                 |
  \\      /  F ield         | OpenFOAM: The Open Source CFD Toolbox
   \\    /   O peration     | Website:  https://openfoam.org
    \\  /    A nd           | Version:  8
     \\/     M anipulation  |
\*---------------------------------------------------------------------------*/
FoamFile
{
    version     2.0;
    format      ascii;
    class       volScalarField;
    location    "300";
    object      k;
}
// * * * * * * * * * * * * * * * * * * * * * * * * * * * * * * * * * * * * * //

dimensions      [0 2 -2 0 0 0 0];

internalField   nonuniform List<scalar> 
15677
(
0.991541
0.87871
1.19177
0.495982
0.83101
1.13861
0.398763
0.479958
0.69334
1.04267
0.380438
0.386828
0.414436
0.659595
0.977919
0.375731
0.37261
0.358584
0.359293
0.668571
0.936438
0.374332
0.370445
0.355689
0.317529
0.358559
0.691755
0.910933
0.373838
0.370028
0.359204
0.329885
0.296
0.368857
0.717078
0.893073
0.373577
0.369928
0.36205
0.34261
0.309249
0.283174
0.392573
0.732208
0.881288
0.373422
0.36999
0.364006
0.350928
0.326922
0.292395
0.284203
0.423568
0.744508
0.871804
0.37333
0.370043
0.365278
0.356118
0.339391
0.312658
0.282001
0.289383
0.456269
0.747431
0.865296
0.373281
0.370046
0.366076
0.359367
0.347556
0.328241
0.300831
0.275538
0.300403
0.483724
0.749988
0.861462
0.373257
0.370013
0.366542
0.361408
0.352856
0.338967
0.31805
0.291617
0.272401
0.315325
0.507846
0.750979
0.860189
0.373248
0.369972
0.366772
0.36267
0.3563
0.34619
0.330698
0.30927
0.284369
0.272827
0.331777
0.527246
0.751135
0.860824
0.373246
0.369936
0.366849
0.363403
0.35852
0.351032
0.339586
0.32315
0.301653
0.279355
0.274535
0.34749
0.54365
0.750964
0.863042
0.373245
0.369915
0.366849
0.363774
0.3599
0.354253
0.345741
0.333333
0.316287
0.295387
0.27577
0.277943
0.363264
0.555475
0.750941
0.867601
0.373244
0.369905
0.366826
0.363918
0.360692
0.356342
0.349954
0.340618
0.327477
0.310251
0.290179
0.273328
0.282854
0.376805
0.565287
0.750832
0.874536
0.373244
0.369899
0.366806
0.363943
0.36108
0.357622
0.352774
0.345745
0.33573
0.322133
0.304954
0.285932
0.27195
0.287897
0.389286
0.571495
0.750925
0.883564
0.373243
0.369896
0.366792
0.363933
0.36121
0.358326
0.354579
0.349273
0.341685
0.331163
0.317288
0.300392
0.282498
0.271352
0.293507
0.398866
0.576762
0.750917
0.894711
0.373243
0.369893
0.366784
0.363917
0.361236
0.358619
0.355639
0.351609
0.345883
0.33784
0.326942
0.312986
0.296444
0.279792
0.271471
0.298557
0.407146
0.579526
0.750867
0.907967
0.373244
0.369891
0.366778
0.363903
0.361229
0.358717
0.356128
0.353051
0.348736
0.342651
0.334247
0.323113
0.309158
0.293148
0.277645
0.271858
0.303372
0.413049
0.581194
0.750877
0.923309
0.373244
0.369889
0.366774
0.363892
0.361214
0.358737
0.356323
0.353769
0.350559
0.345999
0.339618
0.330942
0.319663
0.305868
0.29032
0.276083
0.272607
0.307332
0.417669
0.581091
0.75093
0.940677
0.373244
0.369887
0.366772
0.363884
0.361201
0.358728
0.356387
0.354089
0.351509
0.348206
0.343431
0.336808
0.327953
0.316642
0.303003
0.2881
0.274822
0.273609
0.310803
0.420299
0.580522
0.751051
0.959979
0.373245
0.369886
0.36677
0.363878
0.36119
0.358712
0.356395
0.354215
0.351961
0.349411
0.345999
0.341053
0.334278
0.325311
0.314022
0.300677
0.286216
0.27411
0.274619
0.313369
0.422095
0.57925
0.751162
0.981108
0.373245
0.369885
0.366769
0.363872
0.361182
0.358696
0.356384
0.354249
0.35216
0.350017
0.347437
0.343982
0.338935
0.332037
0.323046
0.311856
0.298742
0.284936
0.273559
0.275667
0.315409
0.422032
0.576957
0.751372
1.00395
0.373245
0.369884
0.366768
0.363868
0.361175
0.358682
0.356368
0.354245
0.352231
0.350303
0.348184
0.345684
0.342198
0.337063
0.330158
0.321192
0.310151
0.297391
0.283931
0.273555
0.276666
0.316776
0.421485
0.574201
0.751626
1.02836
0.373245
0.369883
0.366768
0.363864
0.361171
0.358671
0.356353
0.354226
0.352243
0.350416
0.348556
0.346605
0.344109
0.340656
0.33558
0.328687
0.319817
0.308919
0.296365
0.283506
0.273728
0.27767
0.317516
0.420261
0.570927
0.751968
1.05419
0.373245
0.369883
0.366767
0.363861
0.361167
0.358661
0.356339
0.354204
0.352231
0.350442
0.348722
0.347081
0.345158
0.342857
0.339522
0.334429
0.327615
0.318856
0.30824
0.296129
0.283606
0.274156
0.278629
0.31788
0.418148
0.567334
0.752391
1.08127
0.373245
0.369882
0.366767
0.363859
0.361164
0.358654
0.356328
0.354184
0.35221
0.35043
0.348779
0.347297
0.345725
0.344117
0.341887
0.338628
0.333803
0.327246
0.318774
0.308332
0.29634
0.283987
0.274921
0.279615
0.317827
0.415514
0.563413
0.752879
1.10944
0.373245
0.369882
0.366766
0.363857
0.361162
0.358648
0.356319
0.354167
0.352189
0.350402
0.348782
0.347369
0.34601
0.344807
0.343231
0.341382
0.338569
0.333912
0.327476
0.319107
0.308805
0.296961
0.284798
0.276013
0.280659
0.317637
0.412518
0.559351
0.753464
1.13829
0.373245
0.369882
0.366766
0.363856
0.361161
0.358643
0.356312
0.354154
0.352169
0.350372
0.34876
0.347372
0.346131
0.345137
0.344005
0.343048
0.341531
0.3389
0.334449
0.32821
0.320007
0.309872
0.298212
0.286227
0.277423
0.281823
0.317274
0.409218
0.555092
0.754268
1.17113
0.373245
0.369882
0.366765
0.363854
0.36116
0.358638
0.356307
0.354143
0.352152
0.350346
0.34873
0.347342
0.346162
0.345267
0.34445
0.344019
0.343307
0.342111
0.339804
0.335658
0.32973
0.321778
0.311812
0.300221
0.288167
0.2792
0.283161
0.316782
0.405769
0.550835
0.75543
1.20823
0.373245
0.369882
0.366765
0.363854
0.361159
0.358635
0.356302
0.354133
0.352138
0.350323
0.3487
0.347302
0.346145
0.345293
0.344663
0.344519
0.344364
0.344072
0.343365
0.341599
0.337897
0.33226
0.324474
0.314578
0.302907
0.290692
0.28134
0.284681
0.316366
0.402211
0.546038
0.757074
1.24557
0.373244
0.369882
0.366765
0.363853
0.361158
0.358631
0.356298
0.354125
0.352126
0.350304
0.348672
0.347264
0.346107
0.345268
0.344737
0.344763
0.344951
0.34527
0.345628
0.345653
0.344458
0.341166
0.335794
0.328142
0.318189
0.306359
0.293774
0.28389
0.286455
0.315996
0.398292
0.540631
0.758896
1.28292
0.373244
0.369882
0.366764
0.363853
0.361157
0.358628
0.356295
0.354118
0.352116
0.350288
0.348648
0.347229
0.346065
0.345221
0.344737
0.344855
0.345249
0.345973
0.347063
0.348254
0.349025
0.348466
0.345587
0.340461
0.33283
0.322746
0.310557
0.297487
0.286835
0.28841
0.315887
0.394228
0.535286
0.76097
1.31998
0.369882
0.373248
0.366764
0.363853
0.361156
0.358626
0.356293
0.354111
0.352107
0.350274
0.348628
0.3472
0.346025
0.345171
0.344698
0.344866
0.345378
0.346354
0.347951
0.349954
0.352041
0.353665
0.353779
0.351309
0.346337
0.338654
0.328242
0.315583
0.301794
0.290245
0.290805
0.316022
0.390439
0.530064
0.763142
1.35646
0.366764
0.369892
0.373255
0.363852
0.361155
0.358624
0.35629
0.354106
0.352099
0.350263
0.34861
0.347175
0.34599
0.345125
0.344649
0.344835
0.345413
0.346543
0.348472
0.351048
0.354079
0.357197
0.359755
0.360575
0.358445
0.353555
0.345629
0.33478
0.321399
0.306751
0.294528
0.293835
0.316413
0.387043
0.525047
0.765503
1.39223
0.363852
0.36678
0.369914
0.373262
0.361154
0.358623
0.356288
0.354101
0.352093
0.350253
0.348594
0.347154
0.345959
0.345084
0.3446
0.344789
0.345399
0.346622
0.348765
0.351741
0.355453
0.359669
0.363935
0.367504
0.368999
0.367149
0.362159
0.353873
0.342318
0.328074
0.312948
0.299944
0.297219
0.317193
0.383976
0.520223
0.767847
1.42699
0.361154
0.363874
0.366813
0.369935
0.37327
0.358622
0.356286
0.354097
0.352087
0.350244
0.348581
0.347136
0.345932
0.345049
0.344555
0.344742
0.345365
0.346641
0.348926
0.352178
0.356385
0.361416
0.366968
0.372494
0.377094
0.379239
0.377496
0.372285
0.363355
0.350948
0.336403
0.32075
0.305994
0.300985
0.318353
0.381352
0.515797
0.770028
1.46073
0.358621
0.36118
0.363919
0.366847
0.369958
0.373278
0.356284
0.354094
0.352082
0.350237
0.348569
0.34712
0.345908
0.345018
0.344515
0.344698
0.345327
0.346634
0.349011
0.352464
0.357035
0.36268
0.369213
0.376245
0.383091
0.388748
0.391406
0.389648
0.383917
0.374188
0.361694
0.346861
0.329443
0.312647
0.305097
0.319882
0.379045
0.511732
0.772302
1.49319
0.356282
0.358652
0.361235
0.363965
0.366883
0.369981
0.373286
0.354091
0.352078
0.350231
0.348559
0.347107
0.345887
0.344992
0.344479
0.344659
0.34529
0.346619
0.349057
0.352658
0.357517
0.363637
0.370935
0.379146
0.387757
0.39599
0.40261
0.405696
0.40361
0.397194
0.387664
0.375177
0.358496
0.338957
0.31984
0.309562
0.321702
0.377174
0.508067
0.774359
1.52444
0.354089
0.356316
0.358717
0.361291
0.364012
0.366919
0.370004
0.373294
0.352074
0.350225
0.348551
0.347096
0.345868
0.344969
0.344447
0.344624
0.345257
0.346601
0.349085
0.352799
0.357889
0.364411
0.372331
0.381495
0.391524
0.401813
0.411372
0.418921
0.422124
0.419553
0.413716
0.404573
0.390173
0.371217
0.349214
0.327521
0.314319
0.323832
0.375585
0.504675
0.7766
1.55428
0.352071
0.354127
0.356387
0.358784
0.361348
0.364061
0.366956
0.370028
0.373303
0.35022
0.348543
0.347086
0.345852
0.344949
0.344419
0.344593
0.345227
0.346584
0.349106
0.352912
0.358191
0.365059
0.373538
0.383508
0.394721
0.40671
0.418663
0.429546
0.437729
0.440919
0.43939
0.434444
0.423376
0.406558
0.384915
0.360132
0.335624
0.319359
0.326196
0.374386
0.501685
0.778575
1.58282
0.350216
0.352109
0.354207
0.35646
0.358852
0.361407
0.364111
0.366994
0.370053
0.373311
0.348535
0.347078
0.345836
0.344932
0.344393
0.344564
0.3452
0.346569
0.349123
0.353009
0.358448
0.365611
0.374605
0.385339
0.39759
0.411043
0.425018
0.438678
0.450619
0.459353
0.464353
0.464313
0.457496
0.443909
0.424183
0.399471
0.371618
0.344086
0.324616
0.328795
0.373504
0.498907
0.780768
1.60992
0.348529
0.350257
0.352191
0.354289
0.356536
0.358922
0.361468
0.364163
0.367033
0.370079
0.37332
0.34707
0.345823
0.344917
0.34437
0.344539
0.345175
0.346554
0.349138
0.353095
0.358676
0.366099
0.37555
0.387021
0.400305
0.415086
0.43085
0.446905
0.462019
0.474987
0.486464
0.49397
0.492104
0.482684
0.465983
0.442891
0.41476
0.383573
0.352834
0.330071
0.331421
0.373006
0.496538
0.782692
1.63568
0.347063
0.348567
0.350344
0.352277
0.354374
0.356613
0.358995
0.36153
0.364216
0.367074
0.370105
0.373329
0.34581
0.344905
0.344349
0.344516
0.345153
0.346541
0.34915
0.353171
0.358881
0.366541
0.376404
0.388547
0.402881
0.419043
0.436477
0.45471
0.472612
0.489208
0.505712
0.520962
0.527202
0.522619
0.509828
0.489426
0.462516
0.430635
0.395889
0.361797
0.335715
0.334105
0.372702
0.494306
0.784798
1.66006
0.345799
0.3471
0.348651
0.350434
0.352365
0.354461
0.356693
0.359069
0.361594
0.36427
0.367115
0.370131
0.373339
0.344894
0.34433
0.344495
0.345133
0.346529
0.34916
0.35324
0.359067
0.366944
0.377186
0.38995
0.405272
0.422895
0.442138
0.462473
0.482969
0.502821
0.523737
0.545144
0.559953
0.563896
0.55566
0.538747
0.514035
0.482878
0.446958
0.408465
0.370909
0.341497
0.336828
0.372725
0.492466
0.786688
1.68309
0.344886
0.345827
0.347184
0.348739
0.350527
0.352457
0.35455
0.356776
0.359145
0.361661
0.364326
0.367157
0.370159
0.373348
0.344312
0.344476
0.345115
0.346518
0.34917
0.353303
0.359236
0.367312
0.377904
0.391249
0.407504
0.426532
0.447775
0.470496
0.493556
0.516519
0.541519
0.56853
0.590147
0.60338
0.603878
0.59101
0.569225
0.539628
0.503812
0.46359
0.4212
0.380104
0.347362
0.339586
0.372846
0.4907
0.788673
1.70485
0.344297
0.34491
0.345895
0.347269
0.348831
0.350624
0.352551
0.354642
0.356861
0.359224
0.361729
0.364384
0.367201
0.370186
0.373357
0.34446
0.345099
0.346508
0.349178
0.353359
0.359389
0.367649
0.378565
0.392455
0.409593
0.429967
0.453196
0.478668
0.504748
0.530889
0.559946
0.59239
0.620287
0.640839
0.651179
0.646977
0.628432
0.601011
0.565996
0.525146
0.480404
0.433999
0.389317
0.353263
0.342377
0.373088
0.489271
0.790526
1.7253
0.344449
0.344292
0.344968
0.345965
0.347359
0.348927
0.350723
0.352649
0.354736
0.356949
0.359304
0.361799
0.364442
0.367244
0.370212
0.373366
0.345085
0.3465
0.349186
0.35341
0.359528
0.367957
0.379173
0.393573
0.411547
0.433213
0.458394
0.486661
0.516353
0.546455
0.579838
0.617963
0.652101
0.679487
0.697431
0.703353
0.693023
0.667685
0.633865
0.592943
0.546737
0.497284
0.446776
0.398493
0.359155
0.345163
0.373542
0.487899
0.792364
1.7446
0.345077
0.344427
0.344291
0.345027
0.346041
0.347452
0.349027
0.350825
0.352751
0.354833
0.357039
0.359387
0.36187
0.3645
0.367285
0.370238
0.373375
0.346493
0.349194
0.353456
0.359654
0.368237
0.379729
0.394606
0.413368
0.436275
0.463367
0.494409
0.527873
0.563015
0.601988
0.646478
0.687435
0.721871
0.74698
0.760375
0.759987
0.74187
0.708544
0.667563
0.620271
0.56844
0.514124
0.459458
0.407577
0.365005
0.347959
0.374019
0.486796
0.794165
1.76266
0.346494
0.345025
0.344387
0.34429
0.345091
0.346124
0.347549
0.349132
0.35093
0.352856
0.354932
0.357133
0.359471
0.361941
0.364557
0.367326
0.370263
0.373383
0.349198
0.353498
0.359768
0.368492
0.380238
0.395558
0.415058
0.439151
0.468101
0.501882
0.539221
0.579887
0.62612
0.679236
0.728443
0.771162
0.80394
0.824217
0.830363
0.821255
0.793414
0.750807
0.701899
0.647803
0.590123
0.53083
0.471975
0.416525
0.370776
0.350721
0.374661
0.485743
0.795845
1.77968
0.349214
0.346395
0.344911
0.344343
0.344303
0.345157
0.346213
0.347649
0.349242
0.351039
0.352964
0.355034
0.357228
0.359554
0.362011
0.364611
0.367366
0.370287
0.373391
0.353532
0.35987
0.368724
0.380701
0.396432
0.416621
0.441841
0.472579
0.509054
0.550368
0.596866
0.651071
0.716183
0.778014
0.831728
0.874007
0.901549
0.912959
0.908144
0.887331
0.847546
0.794282
0.736682
0.675378
0.611665
0.547317
0.48427
0.425294
0.376443
0.353467
0.375275
0.484896
0.797576
1.79556
0.353579
0.349034
0.346162
0.344788
0.344306
0.344336
0.345225
0.346309
0.347753
0.349356
0.351151
0.353075
0.355139
0.357323
0.359635
0.362078
0.364665
0.367404
0.37031
0.373399
0.359958
0.36893
0.381122
0.39723
0.418062
0.444343
0.476791
0.515903
0.561251
0.613765
0.67648
0.756268
0.837761
0.909708
0.964974
1.00145
1.01764
1.01453
0.99415
0.958217
0.904102
0.838767
0.771732
0.702854
0.632961
0.563514
0.496294
0.433853
0.38198
0.356152
0.376026
0.484096
0.799098
1.80854
0.360058
0.353304
0.348601
0.345917
0.344679
0.344262
0.344386
0.345294
0.346412
0.347861
0.349474
0.351267
0.353189
0.355243
0.357415
0.359714
0.362144
0.364716
0.367441
0.370333
0.373407
0.369112
0.3815
0.397958
0.419384
0.446661
0.480734
0.522409
0.571786
0.630393
0.702333
0.799826
0.906917
1.00826
1.08597
1.13456
1.15635
1.15318
1.12902
1.08815
1.03361
0.962803
0.884034
0.806873
0.730102
0.653914
0.57936
0.508007
0.44217
0.38737
0.358799
0.376721
0.483446
0.800522
1.81943
0.3693
0.359656
0.352606
0.348151
0.345696
0.344581
0.344219
0.344448
0.345367
0.346521
0.347973
0.349596
0.351385
0.353303
0.355344
0.357505
0.359791
0.362207
0.364767
0.367478
0.370355
0.373414
0.381835
0.398614
0.420592
0.4488
0.484409
0.528556
0.581894
0.646632
0.728763
0.847157
0.984854
1.12311
1.23792
1.31014
1.3403
1.33719
1.30645
1.25503
1.18914
1.11285
1.02324
0.929818
0.841928
0.756999
0.674443
0.594803
0.519374
0.450226
0.392592
0.361364
0.377519
0.482928
0.801591
1.83131
0.382165
0.368734
0.358581
0.351885
0.347738
0.345494
0.34449
0.344182
0.34452
0.345444
0.346636
0.34809
0.349722
0.351504
0.353413
0.355443
0.357592
0.359866
0.362269
0.364816
0.367513
0.370376
0.373421
0.399202
0.421689
0.450766
0.487823
0.534331
0.591522
0.662445
0.755869
0.897851
1.06953
1.24902
1.40868
1.52316
1.5762
1.57616
1.53891
1.47369
1.38997
1.29549
1.19495
1.08487
0.975817
0.876715
0.783434
0.694476
0.609799
0.530369
0.457998
0.397639
0.363871
0.378156
0.48253
0.802968
1.84418
0.399762
0.381391
0.367132
0.357476
0.351215
0.347351
0.345305
0.344407
0.344155
0.3446
0.345528
0.346755
0.348211
0.349847
0.35162
0.353521
0.355539
0.357677
0.359939
0.36233
0.364863
0.367547
0.370397
0.373425
0.42268
0.452562
0.490981
0.539728
0.600651
0.677838
0.78358
0.95086
1.15793
1.38022
1.588
1.75317
1.85249
1.87379
1.83365
1.75499
1.6502
1.5307
1.40522
1.27877
1.14707
1.0217
0.91105
0.809303
0.71395
0.624308
0.540968
0.465481
0.402493
0.365962
0.378768
0.482118
0.804267
1.85822
0.423598
0.398731
0.379054
0.365493
0.356445
0.35058
0.346986
0.345128
0.344334
0.344139
0.344685
0.345621
0.346879
0.348334
0.349969
0.351733
0.353625
0.355633
0.35776
0.36001
0.362388
0.364909
0.36758
0.370408
0.373425
0.454201
0.493886
0.544752
0.609284
0.69282
0.811652
1.00488
1.24711
1.51169
1.76804
1.98702
2.1424
2.21347
2.19248
2.10445
1.97911
1.8314
1.67406
1.51629
1.36307
1.20917
1.0671
0.944745
0.834507
0.732809
0.638301
0.55116
0.47265
0.406533
0.367771
0.379429
0.481693
0.805976
1.87346
0.455686
0.422254
0.395379
0.376682
0.36396
0.355459
0.349971
0.346641
0.344964
0.344273
0.344135
0.344774
0.345722
0.347002
0.348455
0.350088
0.351844
0.353727
0.355724
0.35784
0.360079
0.362445
0.364954
0.367597
0.370408
0.373425
0.496557
0.549409
0.617437
0.707377
0.839743
1.05869
1.33476
1.63981
1.94331
2.21627
2.43127
2.56363
2.59526
2.52331
2.38145
2.20584
2.01331
1.81727
1.62686
1.4467
1.27051
1.11169
0.977611
0.858944
0.751005
0.651754
0.56092
0.478607
0.409992
0.369779
0.380214
0.481294
0.807595
1.89005
0.498934
0.453966
0.417495
0.392006
0.374458
0.362489
0.35451
0.349389
0.346316
0.344813
0.344223
0.344146
0.344865
0.345829
0.347121
0.348576
0.350203
0.351953
0.353826
0.355813
0.357918
0.360146
0.3625
0.364976
0.367597
0.370408
0.373425
0.553727
0.625129
0.721479
0.867496
1.11132
1.41934
1.76241
2.11051
2.43558
2.71038
2.90839
3.00625
2.98887
2.85891
2.65889
2.43082
2.19274
1.95804
1.73533
1.52862
1.33049
1.15512
1.00947
0.882517
0.768496
0.664644
0.569026
0.483693
0.413821
0.372028
0.381125
0.480856
0.809699
1.90813
0.557531
0.496729
0.44726
0.412755
0.388838
0.372317
0.361067
0.353596
0.34883
0.346014
0.344676
0.344184
0.344179
0.344954
0.345939
0.347238
0.348694
0.350316
0.352059
0.353922
0.3559
0.357994
0.360211
0.362528
0.364976
0.367597
0.370408
0.373425
0.632402
0.735088
0.894601
1.16208
1.49994
1.87832
2.26793
2.64195
2.97429
3.23836
3.40799
3.46127
3.38678
3.19333
2.93226
2.65074
2.36724
2.09457
1.84042
1.60798
1.38857
1.19708
1.04014
0.905135
0.785226
0.675309
0.575935
0.489308
0.418068
0.374548
0.382127
0.480502
0.811781
1.92775
0.638823
0.55469
0.487299
0.440652
0.408296
0.385782
0.370244
0.359693
0.352716
0.348295
0.345735
0.344551
0.344148
0.344236
0.34504
0.346052
0.347353
0.348811
0.350425
0.352162
0.354016
0.355985
0.358068
0.360243
0.362528
0.364976
0.367596
0.370408
0.373425
0.748192
0.920829
1.21052
1.57607
1.98708
2.41493
2.83405
3.21999
3.54749
3.78985
3.92096
3.92089
3.78265
3.52177
3.19809
2.86311
2.53503
2.22555
1.94117
1.68405
1.44426
1.23729
1.06947
0.926686
0.798975
0.684393
0.583554
0.495519
0.422789
0.377364
0.383404
0.480085
0.814345
1.94921
0.759785
0.635184
0.541279
0.47812
0.434428
0.40399
0.382818
0.368237
0.358367
0.35187
0.347783
0.345476
0.344439
0.344108
0.344308
0.345125
0.346165
0.347465
0.348925
0.350533
0.352263
0.354107
0.356067
0.358105
0.360243
0.362528
0.364976
0.367597
0.370408
0.373421
0.946029
1.2564
1.64753
2.08859
2.55145
3.01159
3.44628
3.83238
4.14458
4.35548
4.43913
4.37822
4.17113
3.84039
3.45378
3.06616
2.69483
2.35003
2.03685
1.75629
1.4972
1.2755
1.09727
0.944314
0.810672
0.69441
0.59197
0.502402
0.428046
0.380569
0.384689
0.479818
0.817097
1.97241
0.755296
0.968152
0.615239
0.528513
0.469462
0.428414
0.39981
0.379944
0.366295
0.357089
0.35106
0.347301
0.345241
0.344344
0.344077
0.344388
0.34521
0.346278
0.347575
0.349037
0.350637
0.352362
0.354196
0.356108
0.358105
0.360243
0.362528
0.364976
0.367597
0.370397
0.373414
1.29961
1.71436
2.18301
2.67778
3.17491
3.65313
4.09169
4.46797
4.75581
4.92664
4.95501
4.82719
4.54777
4.14621
3.69741
3.25865
2.84581
2.46739
2.12694
1.8243
1.54704
1.31143
1.11987
0.959292
0.82356
0.70546
0.60128
0.510041
0.433916
0.384129
0.386491
0.479539
0.820221
1.99788
0.724078
0.963481
1.33696
0.596822
0.516507
0.461086
0.422574
0.395752
0.37716
0.364421
0.355861
0.350289
0.346853
0.345036
0.344264
0.34406
0.344471
0.345297
0.346389
0.347683
0.349147
0.350739
0.352458
0.35424
0.356108
0.358105
0.360243
0.362528
0.364976
0.36758
0.370376
0.373406
1.77665
2.27067
2.79443
3.3247
3.84129
4.32563
4.75835
5.11648
5.37216
5.49536
5.46182
5.26256
4.90893
4.43697
3.92765
3.43982
2.98746
2.57722
2.21112
1.88778
1.59352
1.34045
1.13905
0.975786
0.837776
0.717665
0.611593
0.518535
0.440475
0.388261
0.388085
0.479491
0.823923
2.0253
0.695441
0.914663
1.33303
1.83014
0.579787
0.504892
0.452952
0.416902
0.391819
0.37447
0.362617
0.354687
0.349564
0.346453
0.344859
0.344201
0.344055
0.344556
0.345386
0.346498
0.34779
0.349253
0.350839
0.352505
0.35424
0.356108
0.358105
0.360243
0.362528
0.364954
0.367546
0.370354
0.373399
2.35193
2.90206
3.46186
4.01193
4.53541
5.01608
5.43521
5.76845
5.98527
6.05426
5.95348
5.67988
5.25177
4.71108
4.14368
3.60919
3.11948
2.67933
2.28918
1.9465
1.63078
1.36504
1.16015
0.993967
0.853479
0.731164
0.623037
0.527998
0.447842
0.392854
0.390511
0.479559
0.82779
2.05545
0.669255
0.868355
1.2643
1.82838
2.42149
0.563508
0.493603
0.445057
0.411403
0.388015
0.371878
0.360887
0.353576
0.348904
0.346102
0.344707
0.344154
0.344063
0.344639
0.345477
0.346605
0.347895
0.349359
0.350888
0.352505
0.35424
0.356108
0.358105
0.360243
0.3625
0.364908
0.367512
0.370332
0.373391
3.00133
3.58748
4.16652
4.72289
5.24301
5.71251
6.11236
6.41532
6.58744
6.59662
6.42471
6.07552
5.57418
4.96748
4.34502
3.76656
3.24181
2.77364
2.36104
1.9933
1.66229
1.39207
1.18339
1.01403
0.870845
0.746117
0.635757
0.538564
0.456103
0.398296
0.392542
0.479818
0.832801
2.08782
0.644737
0.824918
1.19626
1.74295
2.42326
3.08603
0.54781
0.482635
0.437407
0.406084
0.384349
0.369389
0.359247
0.352559
0.348316
0.345794
0.344578
0.34412
0.344084
0.344721
0.345569
0.346709
0.347999
0.34941
0.350886
0.352505
0.35424
0.356108
0.358105
0.36021
0.362444
0.364862
0.367476
0.370309
0.373383
3.70261
4.30669
4.89026
5.44187
5.95094
6.40436
6.78105
7.04933
7.1716
7.11639
6.87101
6.44674
5.87479
5.2056
4.53149
3.91196
3.3545
2.86019
2.41813
2.03283
1.69688
1.42178
1.20901
1.03621
0.890076
0.762707
0.649921
0.550383
0.465448
0.404309
0.395837
0.480238
0.837695
2.12334
0.621605
0.783879
1.12955
1.65648
2.32413
3.09205
3.80006
0.532629
0.472005
0.430015
0.400957
0.380827
0.367026
0.357739
0.351645
0.347791
0.345526
0.344468
0.344096
0.344123
0.344799
0.345663
0.346814
0.348049
0.349409
0.350886
0.352505
0.35424
0.356108
0.358068
0.360145
0.362387
0.364814
0.36744
0.370286
0.373374
4.43402
5.03996
5.61587
6.15434
6.64782
7.08269
7.43372
7.66347
7.73129
7.60831
7.28884
6.79161
6.15274
5.4252
4.70315
4.04554
3.45772
2.92886
2.4663
2.07617
1.73485
1.45449
1.23728
1.06073
0.911392
0.781139
0.665721
0.563642
0.475963
0.41156
0.398587
0.481254
0.844533
2.16142
0.599702
0.745236
1.06389
1.56957
2.22268
2.98163
3.80975
4.54029
0.517952
0.461738
0.422897
0.396032
0.377483
0.364849
0.356379
0.350824
0.347321
0.345297
0.344375
0.344071
0.344176
0.344877
0.345761
0.346863
0.348046
0.349409
0.350886
0.352505
0.35424
0.356067
0.357993
0.360077
0.362328
0.364765
0.367402
0.370262
0.373366
5.17423
5.76849
6.32723
6.84792
7.32434
7.7402
8.06376
8.25128
8.26065
8.06795
7.67559
7.10894
6.40773
5.62639
4.86026
4.16758
3.5395
2.98674
2.51905
2.12365
1.77654
1.4905
1.26849
1.08788
0.935024
0.801646
0.683379
0.578534
0.487959
0.419563
0.403077
0.482215
0.850868
2.21072
0.578925
0.709074
0.999572
1.48178
2.11944
2.86825
3.68966
4.55164
5.2837
0.503792
0.45186
0.416069
0.391356
0.374401
0.362885
0.355155
0.350086
0.346899
0.345099
0.344298
0.344048
0.344237
0.34496
0.345807
0.346858
0.348046
0.349409
0.350887
0.352505
0.354196
0.355983
0.357916
0.360008
0.362267
0.364715
0.367364
0.370237
0.373357
5.90292
6.47445
7.01082
7.5127
7.97343
8.37088
8.6652
8.80676
8.75453
8.49191
8.02956
7.39823
6.63986
5.8095
5.00321
4.26405
3.60835
3.05003
2.57674
2.17566
1.82231
1.53014
1.30296
1.11796
0.961257
0.824494
0.703144
0.595326
0.501504
0.429331
0.407096
0.484264
0.862021
2.26957
0.559192
0.675469
0.937079
1.39317
2.01386
2.75223
3.56666
4.42258
5.29327
6.00846
0.490171
0.442402
0.409593
0.387049
0.37162
0.361113
0.354052
0.349424
0.346526
0.34493
0.344234
0.344035
0.344312
0.344994
0.345802
0.346858
0.348046
0.349409
0.350888
0.352457
0.354106
0.355898
0.357838
0.359937
0.362205
0.364663
0.367325
0.370211
0.373348
6.60036
7.14312
7.65587
8.14171
8.58965
8.96964
9.23255
9.32433
9.20866
8.87776
8.34994
7.65958
6.84955
5.97502
5.11569
4.3451
3.68347
3.11913
2.63981
2.23261
1.87255
1.5738
1.34105
1.15131
0.990408
0.84998
0.72531
0.61426
0.517093
0.440202
0.413234
0.486927
0.873504
2.32945
0.540438
0.644438
0.877037
1.30405
1.90568
2.63295
3.44083
4.29146
5.15488
6.01144
6.69454
0.477121
0.433454
0.403635
0.383164
0.369109
0.359514
0.353058
0.348832
0.346199
0.344784
0.344184
0.344047
0.344347
0.34498
0.345803
0.346858
0.348047
0.349411
0.350839
0.35236
0.354014
0.355811
0.357757
0.359864
0.362141
0.36461
0.367284
0.370185
0.373339
7.25076
7.76263
8.25544
8.72991
9.1687
9.53236
9.75998
9.79917
9.61964
9.22414
8.6367
7.89348
7.0374
6.10429
5.20993
4.43333
3.76529
3.19448
2.70868
2.29489
1.92765
1.62185
1.38313
1.18827
1.02282
0.878437
0.750191
0.635722
0.534767
0.453505
0.420711
0.49115
0.890459
2.39029
0.522614
0.615911
0.820147
1.21498
1.79491
2.50986
3.31155
4.15806
5.01615
5.86205
6.6856
7.32565
0.464771
0.425246
0.398265
0.37966
0.366843
0.358073
0.352166
0.348303
0.34591
0.344661
0.344165
0.344041
0.344337
0.344979
0.345803
0.346859
0.34805
0.349359
0.350738
0.352261
0.35392
0.355722
0.357675
0.359789
0.362076
0.364555
0.367243
0.370159
0.373329
7.84077
8.32659
8.802
9.26687
9.70004
10.0517
10.2437
10.2265
9.98525
9.53074
8.8904
8.10065
7.18257
6.2122
5.31222
4.52912
3.85426
3.27652
2.78378
2.36295
1.98803
1.6747
1.42959
1.22922
1.05887
0.910224
0.77817
0.659985
0.555257
0.471482
0.432496
0.49851
0.906086
2.45052
0.505805
0.589733
0.767123
1.12672
1.68173
2.38253
3.17798
4.02187
4.87656
5.71513
6.5219
7.29826
7.88675
0.453452
0.417871
0.393427
0.3765
0.3648
0.356774
0.351364
0.34783
0.34566
0.344586
0.344141
0.344013
0.344342
0.344979
0.345803
0.346864
0.348
0.349252
0.350635
0.352159
0.353823
0.35563
0.35759
0.359712
0.362009
0.364499
0.3672
0.370131
0.37332
8.36339
8.82478
9.29178
9.75576
10.1823
10.5188
10.6762
10.603
10.3046
9.79811
9.11193
8.2586
7.3031
6.32888
5.42289
4.63292
3.95079
3.36568
2.86554
2.4372
2.0541
1.73275
1.48083
1.27451
1.09893
0.945738
0.809598
0.687606
0.583091
0.496563
0.446648
0.504341
0.926764
2.51167
0.490393
0.565828
0.718561
1.04029
1.56651
2.25076
3.03932
3.88185
4.73582
5.5697
6.36487
7.11529
7.83195
8.3737
0.443303
0.411245
0.38907
0.373652
0.362958
0.355605
0.350643
0.347413
0.345483
0.344529
0.344107
0.344014
0.344342
0.344981
0.345809
0.346815
0.347894
0.349144
0.35053
0.352055
0.353724
0.355536
0.357503
0.359634
0.361941
0.364442
0.367157
0.370104
0.373311
8.81447
9.26006
9.7285
10.2008
10.6201
10.9322
11.0531
10.9267
10.5781
10.0272
9.27781
8.38869
7.43269
6.45451
5.54229
4.7451
4.0553
3.46238
2.95437
2.51806
2.12628
1.79642
1.53726
1.32454
1.1434
0.985352
0.844984
0.724858
0.619959
0.525165
0.4632
0.517088
0.949108
2.57013
0.476548
0.544433
0.675183
0.95692
1.44981
2.11446
2.89488
3.73683
4.59272
5.42581
6.21288
6.94496
7.62568
8.26937
8.77215
0.434219
0.40529
0.385147
0.371086
0.361298
0.35455
0.35
0.347098
0.345365
0.344483
0.344111
0.344015
0.344339
0.344996
0.345763
0.346709
0.347789
0.349035
0.350422
0.351949
0.353622
0.355441
0.357413
0.359553
0.36187
0.364383
0.367114
0.370078
0.373302
9.18322
9.62394
10.1059
10.5966
11.0112
11.2887
11.371
11.1981
10.8067
10.1946
9.41285
8.52736
7.57125
6.58929
5.67068
4.86599
4.16815
3.56699
3.05067
2.60592
2.20495
1.86609
1.59924
1.3797
1.19264
1.02954
0.892232
0.772906
0.660828
0.557943
0.485129
0.52644
0.97384
2.62912
0.46413
0.525459
0.637928
0.878639
1.33255
1.97375
2.74403
3.58567
4.44584
5.28211
6.06619
6.78459
7.43833
8.03845
8.60467
9.0704
0.426093
0.39994
0.381617
0.368775
0.359799
0.353606
0.3495
0.346904
0.345298
0.344489
0.344112
0.344015
0.34435
0.344963
0.345665
0.346604
0.347682
0.348922
0.350312
0.351841
0.353518
0.355343
0.357322
0.359471
0.361799
0.364325
0.367073
0.370052
0.373294
9.46525
9.91474
10.4248
10.9385
11.3477
11.5828
11.6267
11.4176
10.968
10.3286
9.55493
8.67407
7.71863
6.73322
5.80823
4.99582
4.28962
3.67984
3.15477
2.7011
2.29045
1.94209
1.66711
1.44029
1.24706
1.08792
0.95198
0.824945
0.705856
0.595464
0.508831
0.546172
1.00585
2.68315
0.453019
0.508487
0.606621
0.808778
1.21685
1.82898
2.58626
3.42717
4.29364
5.13704
5.9233
6.63446
7.26711
7.83103
8.34355
8.83153
9.26522
0.418825
0.395134
0.378442
0.366688
0.358455
0.352857
0.3492
0.346816
0.345307
0.34449
0.34411
0.344045
0.344316
0.34488
0.345571
0.346497
0.347573
0.348808
0.3502
0.351731
0.353411
0.355242
0.357228
0.359387
0.361728
0.364269
0.367033
0.370028
0.373286
9.65598
10.1334
10.6846
11.2244
11.6211
11.811
11.8187
11.5641
11.0936
10.4667
9.70283
8.82808
7.87439
6.88616
5.95495
5.13473
4.41992
3.80116
3.26693
2.80389
2.38306
2.02469
1.74102
1.50661
1.3182
1.16048
1.01533
0.88061
0.754844
0.636631
0.540979
0.561503
1.03641
2.73662
0.443101
0.493232
0.580131
0.748923
1.10742
1.68188
2.42119
3.26008
4.13438
4.98874
5.78257
6.49275
7.11213
7.64651
8.11254
8.53397
8.93979
9.34697
0.412323
0.390818
0.375579
0.364816
0.357371
0.352417
0.349084
0.34683
0.345309
0.344486
0.344146
0.344054
0.344242
0.344803
0.345479
0.346388
0.347463
0.348692
0.350085
0.351618
0.353302
0.355139
0.357133
0.359303
0.361659
0.364214
0.366993
0.370003
0.373278
9.75435
10.2788
10.8871
11.4434
11.8262
11.9731
11.9307
11.6728
11.219
10.607
9.85504
8.98831
8.03781
7.04769
6.11068
5.28269
4.55912
3.9311
3.38732
2.91445
2.48293
2.11405
1.82115
1.59241
1.40523
1.236
1.08151
0.939274
0.806963
0.682986
0.574002
0.589661
1.08147
2.78313
0.434266
0.479504
0.557418
0.698562
1.00774
1.53756
2.24996
3.08318
3.96611
4.83507
5.64197
6.3577
6.97108
7.485
7.91259
8.27535
8.60349
8.91978
9.31341
0.406506
0.386933
0.373011
0.36329
0.356743
0.352264
0.349103
0.346832
0.345302
0.344535
0.344173
0.344043
0.344181
0.344724
0.345389
0.346278
0.347352
0.348574
0.349967
0.351503
0.35319
0.355035
0.357039
0.359222
0.361593
0.364161
0.366955
0.36998
0.37327
9.75228
10.3584
11.0144
11.5957
11.9537
12.0549
12.0028
11.7739
11.3416
10.7469
10.0096
9.15322
8.20783
7.21713
6.27502
5.43952