/*--------------------------------*- C++ -*----------------------------------*\
  =========                 |
  \\      /  F ield         | OpenFOAM: The Open Source CFD Toolbox
   \\    /   O peration     | Website:  https://openfoam.org
    \\  /    A nd           | Version:  8
     \\/     M anipulation  |
\*---------------------------------------------------------------------------*/
FoamFile
{
    version     2.0;
    format      ascii;
    class       volScalarField;
    location    "0.4";
    object      epsilon;
}
// * * * * * * * * * * * * * * * * * * * * * * * * * * * * * * * * * * * * * //

dimensions      [0 2 -3 0 0 0 0];

internalField   nonuniform List<scalar> 
15677
(
59.7306
18.3648
52.6862
8.08412
26.0234
50.2335
4.62259
13.3231
31.6503
50.542
3.17428
7.74871
17.1247
37.3292
51.6367
2.48708
5.05392
10.0464
20.8481
42.6778
53.6824
2.14429
3.62752
6.47167
12.1803
24.5667
47.681
55.743
1.97933
2.82273
4.52907
7.73301
14.2897
28.2691
52.041
57.6813
1.91149
2.35336
3.40356
5.31423
8.92316
16.4333
31.768
55.7278
59.3821
1.88406
2.08027
2.72391
3.91089
6.02528
10.1108
18.542
34.9682
58.7523
60.8857
1.8705
1.93936
2.30727
3.05608
4.35947
6.70966
11.2768
20.5745
37.7921
61.2337
62.1544
1.86763
1.87828
2.05646
2.52119
3.34856
4.77733
7.36508
12.4204
22.4677
40.2588
63.2316
63.2686
1.86862
1.84884
1.91654
2.186
2.71259
3.61543
5.16636
8.00226
13.509
24.2144
42.3596
64.8611
64.197
1.86954
1.8387
1.85192
1.98256
2.3068
2.8863
3.85858
5.53649
8.6071
14.5412
25.781
44.1533
66.1682
65.0303
1.86978
1.83699
1.82114
1.86771
2.05129
2.41796
3.04296
4.08486
5.88277
9.18264
15.4933
27.1835
45.6509
67.229
65.7553
1.86978
1.83725
1.81054
1.81334
1.89813
2.11732
2.51861
3.18646
4.29311
6.20878
9.71666
16.3707
28.4069
46.9103
68.0938
66.3971
1.86974
1.83751
1.80824
1.7898
1.8154
1.93022
2.17862
2.61031
3.31686
4.48602
6.50929
10.2121
17.1565
29.4728
47.9561
68.7982
66.9834
1.86971
1.83761
1.80794
1.78278
1.77574
1.82146
1.96227
2.23507
2.6932
3.43585
4.66195
6.78605
10.66
17.8592
30.3803
48.8132
69.4005
67.4837
1.8697
1.83762
1.80796
1.78106
1.76152
1.76615
1.83171
1.99302
2.28635
2.76811
3.54327
4.8219
7.03539
11.064
18.4696
31.1455
49.5209
69.8797
67.9881
1.86969
1.83761
1.80797
1.78072
1.75705
1.74396
1.7604
1.8431
2.0216
2.33268
2.83528
3.6397
4.96482
7.25881
11.4175
18.9961
31.7787
50.0768
70.3289
68.3835
1.86969
1.8376
1.80796
1.78067
1.75578
1.73593
1.72957
1.75742
1.85453
2.04782
2.37419
2.89504
3.72517
5.09123
7.45405
11.7243
19.4357
32.2888
50.5384
70.6665
68.851
1.86969
1.83759
1.80795
1.78065
1.75547
1.7332
1.71738
1.71803
1.75589
1.86574
2.07155
2.41102
2.94772
3.79988
5.20103
7.62198
11.9814
19.7967
32.6941
50.8768
71.039
69.1658
1.86969
1.83758
1.80793
1.78062
1.75539
1.73235
1.71278
1.70133
1.70851
1.75584
1.87627
2.09276
2.44348
2.99349
3.86442
5.29423
7.76278
12.1924
20.0811
32.9996
51.1631
71.2921
69.6289
1.8697
1.83757
1.80792
1.78059
1.75535
1.73208
1.71117
1.69449
1.68732
1.7009
1.75619
1.88597
2.11161
2.47175
3.03299
3.91885
5.37218
7.8766
12.3584
20.2971
33.2235
51.3565
71.6456
69.8852
1.8697
1.83757
1.80791
1.78056
1.75532
1.73196
1.71063
1.69184
1.67811
1.67532
1.69462
1.75701
1.89493
2.12831
2.49635
3.06649
3.96437
5.43444
7.96663
12.4823
20.4516
33.3763
51.5184
71.853
70.3487
1.8697
1.83757
1.80791
1.78054
1.75529
1.73189
1.71044
1.69085
1.67433
1.66363
1.66489
1.68963
1.75845
1.90327
2.1432
2.51765
3.09488
4.00127
5.48419
8.03225
12.5704
20.5485
33.4637
51.6376
72.255
70.5938
1.8697
1.83756
1.8079
1.78052
1.75526
1.73184
1.71034
1.69046
1.67285
1.65853
1.65079
1.65628
1.68583
1.76037
1.91123
2.15673
2.53644
3.11891
4.03131
5.52052
8.07952
12.6217
20.6056
33.5139
51.7145
72.5541
429.69
1.8697
1.83756
1.8079
1.78051
1.75524
1.73179
1.71027
1.69027
1.67226
1.65637
1.64443
1.6399
1.64894
1.68326
1.76312
1.91932
2.16952
2.55335
3.13944
4.05494
5.54778
8.1065
12.6504
20.611
33.5116
51.8358
88.8936
718.591
1.8697
1.83756
1.8079
1.7805
1.75522
1.73176
1.71021
1.69015
1.67198
1.65545
1.64166
1.63215
1.63044
1.64389
1.68268
1.76709
1.92794
2.18223
2.56932
3.15783
4.07459
5.56607
8.1234
12.648
20.5991
33.5151
52.7584
122.257
1000.5
1.8697
1.83756
1.80789
1.78049
1.75521
1.73173
1.71016
1.69007
1.67182
1.65501
1.64045
1.62858
1.62156
1.62354
1.63992
1.68377
1.77261
1.93788
2.19576
2.58557
3.1753
4.09134
5.57925
8.12406
12.6371
20.5717
33.542
55.3169
157.913
1249.88
1.86971
1.83755
1.80789
1.78049
1.75519
1.73171
1.71011
1.69
1.67171
1.65478
1.63988
1.62694
1.61742
1.61333
1.61795
1.64002
1.68688
1.78044
1.94988
2.21115
2.60293
3.1931
4.10674
5.58789
8.12149
12.6146
20.5361
33.6441
59.8909
190.638
1479.73
1.86971
1.83755
1.80789
1.78048
1.75518
1.73169
1.71008
1.68995
1.67161
1.65462
1.63956
1.62614
1.61548
1.60837
1.60704
1.61644
1.64191
1.69312
1.79134
1.96492
2.22916
2.62271
3.21233
4.12257
5.59528
8.11547
12.5872
20.495
33.9021
64.6231
221.714
1674.54
1.86971
1.83755
1.80789
1.78047
1.75517
1.73167
1.71005
1.6899
1.67153
1.6545
1.63934
1.62571
1.61452
1.60597
1.60171
1.60425
1.61788
1.6468
1.70335
1.80628
1.98384
2.25112
2.64587
3.23465
4.14027
5.60372
8.10875
12.5577
20.4503
34.3737
69.4417
249.062
1822.33
1.86971
1.83755
1.80789
1.78047
1.75516
1.73166
1.71002
1.68986
1.67146
1.6544
1.63917
1.62544
1.61398
1.60476
1.5991
1.59816
1.60546
1.6223
1.65638
1.7184
1.82615
2.00788
2.27788
2.67386
3.26097
4.16169
5.61524
8.1033
12.5275
20.409
34.9385
73.8209
270.31
1936.77
1.86971
1.83755
1.80789
1.78047
1.75516
1.73165
1.71
1.68983
1.6714
1.65432
1.63903
1.62524
1.61363
1.6041
1.59776
1.59516
1.59926
1.60968
1.63136
1.67166
1.73921
1.85219
2.03792
2.3108
2.70738
3.29287
4.18797
5.63118
8.10179
12.4955
20.3776
35.4844
77.219
287.131
2028.39
1.83755
1.86974
1.80789
1.78046
1.75515
1.73164
1.70998
1.6898
1.67135
1.65425
1.63892
1.62508
1.61336
1.60369
1.597
1.59363
1.59621
1.60343
1.61855
1.64693
1.69335
1.76705
1.88526
2.07526
2.35054
2.74792
3.33099
4.22032
5.65226
8.10312
12.4608
20.3414
35.9047
79.8357
300.74
2104.62
1.80789
1.83765
1.86982
1.78046
1.75515
1.73163
1.70997
1.68978
1.67131
1.65418
1.63882
1.62494
1.61314
1.60339
1.59651
1.5928
1.59469
1.60042
1.61232
1.63457
1.66951
1.72274
1.80288
1.92682
2.12066
2.39853
2.79579
3.37648
4.25897
5.67872
8.10795
12.4235
20.2972
36.1946
81.8378
312.274
2170.34
1.78046
1.80805
1.83785
1.86989
1.75514
1.73162
1.70995
1.68975
1.67128
1.65413
1.63873
1.62483
1.61295
1.60315
1.59614
1.5923
1.5939
1.59899
1.60949
1.62887
1.65808
1.70051
1.76101
1.84805
1.97747
2.17525
2.45489
2.85227
3.42933
4.30419
5.71439
8.11871
12.3896
20.2405
36.3834
83.4267
322.233
2228.75
1.75514
1.78067
1.80836
1.83805
1.86996
1.73161
1.70994
1.68974
1.67125
1.65408
1.63866
1.62472
1.61279
1.60295
1.59584
1.59195
1.59343
1.59833
1.60833
1.62661
1.65336
1.69072
1.74127
1.8098
1.90365
2.03875
2.23942
2.52116
2.91701
3.48981
4.3619
5.76159
8.13641
12.3588
20.1745
36.4838
84.6932
331.256
2281.87
1.73161
1.75539
1.78109
1.80869
1.83826
1.87004
1.70993
1.68972
1.67122
1.65404
1.6386
1.62463
1.61266
1.60279
1.59559
1.59167
1.59312
1.59799
1.60795
1.62605
1.65216
1.68779
1.73412
1.79373
1.87032
1.9714
2.11121
2.31437
2.5963
2.99057
3.56557
4.43486
5.81656
8.15993
12.3314
20.1015
36.5373
85.7718
339.435
2330.9
1.70992
1.7319
1.75591
1.78152
1.80902
1.83848
1.87012
1.6897
1.6712
1.654
1.63855
1.62455
1.61254
1.60264
1.59538
1.59145
1.59288
1.59779
1.60789
1.62624
1.65256
1.6881
1.73341
1.79013
1.8595
1.94486
2.05228
2.19645
2.40007
2.68154
3.08181
3.65971
4.51659
5.87857
8.18866
12.3083
20.0256
36.536
86.6847
347.145
2376.76
1.68969
1.71025
1.7325
1.75643
1.78196
1.80937
1.8387
1.8702
1.67118
1.65397
1.6385
1.62448
1.61245
1.60251
1.59519
1.59126
1.59269
1.59767
1.60796
1.62673
1.65377
1.69023
1.73619
1.7928
1.86009
1.94009
2.03432
2.14838
2.29466
2.49796
2.7864
3.19421
3.76362
4.60566
5.94608
8.22203
12.2889
19.9501
36.5238
87.5174
354.332
2419.71
1.67116
1.69005
1.71092
1.73311
1.75698
1.78242
1.80972
1.83893
1.87028
1.65394
1.63847
1.62441
1.61237
1.60239
1.59503
1.5911
1.59254
1.59758
1.60807
1.62731
1.6552
1.69316
1.7409
1.79932
1.86777
1.94701
2.03672
2.14001
2.25997
2.40761
2.61952
2.91738
3.31701
3.87494
4.70073
6.0179
8.25917
12.2745
19.8769
36.4985
88.262
361.195
2460.38
1.65392
1.67154
1.69078
1.71161
1.73375
1.75754
1.78289
1.81009
1.83917
1.87037
1.63843
1.62435
1.6123
1.60229
1.5949
1.59097
1.59241
1.59752
1.60821
1.62789
1.65667
1.69622
1.7464
1.80798
1.87957
1.96167
2.05235
2.1526
2.26226
2.38751
2.54994
2.77322
3.06221
3.44945
3.99219
4.80011
6.09297
8.29961
12.2634
19.8092
36.4621
88.9653
367.701
2498.56
1.6384
1.65431
1.67232
1.69154
1.71231
1.7344
1.75811
1.78338
1.81046
1.83941
1.87046
1.6243
1.61225
1.60219
1.59479
1.59085
1.5923
1.59748
1.60835
1.62845
1.65808
1.69919
1.7519
1.81751
1.89386
1.98103
2.0764
2.17978
2.28829
2.40435
2.54668
2.7278
2.94449
3.21954
3.59046
4.11497
4.90251
6.17022
8.34224
12.2568
19.7464
36.4268
89.6253
373.9
2534.89
1.62426
1.6388
1.65513
1.67313
1.69232
1.71304
1.73507
1.7587
1.78387
1.81084
1.83966
1.87055
1.6122
1.6021
1.5947
1.59075
1.59221
1.59745
1.60849
1.62898
1.65942
1.70199
1.75718
1.82692
1.90916
2.00355
2.10609
2.21668
2.33035
2.44748
2.58426
2.74903
2.92479
3.13182
3.38904
3.7386
4.2412
5.0067
6.24865
8.38664
12.2529
19.69
36.3931
90.2522
379.837
2568.88
1.61216
1.62463
1.63965
1.65598
1.67396
1.69312
1.71379
1.73576
1.7593
1.78438
1.81123
1.83991
1.87064
1.60201
1.59463
1.59065
1.59212
1.59742
1.60863
1.62947
1.66067
1.70459
1.76216
1.83591
1.92417
2.02753
2.14005
2.26081
2.3841
2.50912
2.65102
2.81581
2.97737
3.13993
3.3302
3.56743
3.89161
4.37012
5.11169
6.32736
8.43189
12.2534
19.6397
36.3641
90.8615
385.456
2601.29
1.60193
1.61253
1.62546
1.64052
1.65685
1.67482
1.69395
1.71456
1.73647
1.75992
1.78491
1.81163
1.84018
1.87073
1.59457
1.59056
1.59205
1.5974
1.60876
1.62992
1.66182
1.70699
1.76682
1.84437
1.93855
2.05121
2.17619
2.31112
2.44754
2.58563
2.74024
2.91673
3.08048
3.23098
3.37265
3.53836
3.75377
4.0495
4.50049
5.21642
6.40559
8.4776
12.2553
19.595
36.3412
91.4351
390.863
2631.44
1.59454
1.60221
1.61334
1.62631
1.64142
1.65776
1.6757
1.6948
1.71535
1.7372
1.76056
1.78545
1.81205
1.84043
1.87081
1.59047
1.59197
1.59738
1.60887
1.63034
1.66288
1.70919
1.77116
1.85227
1.9522
2.0741
2.21203
2.36511
2.52017
2.67586
2.84951
3.04704
3.22536
3.37885
3.50872
3.62101
3.75416
3.94237
4.20973
4.63096
5.32012
6.48266
8.5232
12.2594
19.5562
36.3238
92.0058
395.949
2660.23
1.59039
1.5948
1.60286
1.61416
1.62719
1.64234
1.65869
1.67661
1.69568
1.71617
1.73795
1.76122
1.786
1.81245
1.84069
1.8709
1.5919
1.59736
1.60898
1.63072
1.66384
1.71121
1.77517
1.8596
1.96508
2.09596
2.24687
2.41945
2.599
2.78022
2.9791
3.20669
3.41029
3.57964
3.71105
3.80934
3.88284
3.9769
4.13203
4.37034
4.76033
5.42183
6.55802
8.56822
12.2659
19.5221
36.3131
92.5355
400.846
2686.84
1.59186
1.59037
1.59537
1.60351
1.61502
1.62812
1.6433
1.65966
1.67754
1.69658
1.717
1.73872
1.76189
1.78655
1.81285
1.84093
1.87098
1.59734
1.60908
1.63106
1.66472
1.71305
1.77885
1.86636
1.97717
2.11663
2.28043
2.47313
2.67922
2.89517
3.13128
3.39919
3.63961
3.83696
3.98267
4.07754
4.13155
4.15611
4.20437
4.32143
4.52968
4.88752
5.52118
6.63125
8.61239
12.2738
19.4931
36.3073
93.0705
405.436
2712.3
1.59736
1.59172
1.59038
1.59595
1.60422
1.61591
1.62908
1.64428
1.66066
1.6785
1.69751
1.71786
1.7395
1.76255
1.78708
1.81324
1.84117
1.87106
1.60916
1.63137
1.66552
1.71473
1.78223
1.87258
1.98846
2.13603
2.31258
2.52558
2.75907
3.01427
3.30279
3.63131
3.92325
4.16352
4.3368
4.43938
4.47943
4.47424
4.43885
4.43457
4.50929
4.68653
5.01249
5.61769
6.70203
8.65541
12.283
19.4679
36.3083
93.5595
409.842
2735.68
1.6093
1.59698
1.5914
1.59036
1.59657
1.60499
1.61683
1.63009
1.6453
1.66169
1.67949
1.69847
1.71874
1.74028
1.7632
1.78759
1.81361
1.8414
1.87114
1.63164
1.66623
1.71626
1.78531
1.87831
1.99894
2.15413
2.34323
2.57626
2.83765
3.13568
3.48532
3.90136
4.27761
4.58323
4.80295
4.92542
4.95729
4.91875
4.83664
4.72933
4.6658
4.69452
4.83841
5.13412
5.71094
6.77011
8.69708
12.293
19.447
36.3118
94.0586
413.971
2758.1
1.63197
1.60857
1.59604
1.59103
1.59044
1.59722
1.60583
1.61778
1.63114
1.64634
1.66276
1.68051
1.69944
1.71962
1.74104
1.76383
1.78809
1.81397
1.84162
1.87122
1.66687
1.71764
1.78812
1.88356
2.00863
2.17098
2.37229
2.62474
2.91447
3.25857
3.67554
4.19758
4.70906
5.1364
5.43477
5.5963
5.62439
5.54582
5.398
5.21812
5.02601
4.89656
4.87663
4.985
5.25165
5.80057
6.83533
8.73725
12.3036
19.4289
36.3203
94.5076
417.918
2776.02
1.66755
1.63063
1.60662
1.59499
1.59073
1.59068
1.59787
1.60673
1.61876
1.63223
1.64742
1.66385
1.68155
1.70041
1.72047
1.74178
1.76444
1.78858
1.81433
1.84184
1.87129
1.71889
1.79066
1.88837
2.01756
2.18663
2.39972
2.67075
2.98931
3.38184
3.87061
4.5163
5.20969
5.85576
6.32062
6.5569
6.59009
6.45667
6.21393
5.91919
5.61795
5.32744
5.12563
5.05462
5.12604
5.36458
5.88634
6.89758
8.7758
12.3146
19.4143
36.3291
94.9696
421.125
2791.15
1.72016
1.66554
1.62698
1.60453
1.59406
1.59045
1.59112
1.59852
1.6077
1.61977
1.63336
1.64854
1.66497
1.68259
1.70136
1.7213
1.74249
1.76504
1.78905
1.81467
1.84205
1.87136
1.793
1.89276
2.02578
2.20116
2.42547
2.71423
3.06204
3.50403
4.06791
4.85745
5.78415
6.74395
7.5355
7.96521
8.02901
7.8247
7.43954
6.96713
6.48275
6.03489
5.63221
5.35194
5.22776
5.2613
5.47259
5.96811
6.95679
8.81264
12.326
19.4016
36.3459
95.324
423.889
2807.45
1.79526
1.71726
1.65969
1.62313
1.60261
1.59322
1.59012
1.5917
1.59919
1.60873
1.62082
1.63453
1.64968
1.66609
1.6836
1.70227
1.72211
1.74319
1.76562
1.78951
1.81501
1.84226
1.87143
1.89683
2.03332
2.21462
2.44957
2.75522
3.13246
3.62367
4.26614
5.22239
6.4372
7.80682
9.07757
9.93942
10.1812
9.90593
9.32249
8.57941
7.80541
7.08678
6.46693
5.93884
5.57455
5.39545
5.39064
5.57552
6.04579
7.01294
8.84775
12.3373
19.3917
36.3567
95.6522
426.795
2825.24
1.90066
1.79128
1.70825
1.65357
1.61955
1.60086
1.59246
1.58983
1.59237
1.59991
1.60981
1.62192
1.63573
1.65083
1.66717
1.68459
1.70317
1.72289
1.74387
1.76618
1.78996
1.81533
1.84245
1.87147
2.04035
2.22711
2.47205
2.79384
3.20029
3.73963
4.46536
5.61206
7.16731
9.03883
10.936
12.454
13.2108
13.0364
12.2103
11.085
9.87099
8.72301
7.72696
6.91136
6.24577
5.79264
5.55729
5.51402
5.6733
6.11938
7.06606
8.88111
12.3487
19.3843
36.3725
95.9825
430.072
2844.5
2.04677
1.89532
1.7778
1.69893
1.64784
1.61623
1.59925
1.59176
1.58962
1.59311
1.60069
1.61093
1.62307
1.63692
1.65195
1.66822
1.68556
1.70403
1.72366
1.74453
1.76673
1.79039
1.81565
1.84255
1.87147
2.23883
2.49304
2.83023
3.26525
3.8513
4.66647
6.02576
7.96686
10.4218
13.0852
15.4778
17.0672
17.4476
16.5615
14.9382
13.0969
11.2995
9.70949
8.39708
7.3648
6.55137
6.00547
5.71298
5.63141
5.76591
6.18886
7.1162
8.91271
12.3584
19.3791
36.3847
96.3837
433.546
2865.63
2.2493
2.03983
1.87546
1.764
1.69016
1.64244
1.61311
1.59775
1.59115
1.5895
1.5939
1.60154
1.61208
1.62423
1.63807
1.65306
1.66925
1.6865
1.70488
1.7244
1.74517
1.76727
1.79081
1.81581
1.84255
1.87147
2.51281
2.86458
3.32715
3.95862
4.8705
6.46083
8.82435
11.9307
15.4853
18.9643
21.7044
23.0754
22.713
20.7589
18.0666
15.3319
12.8443
10.7516
9.08969
7.82353
6.85399
6.21241
5.8623
5.74286
5.85351
6.25455
7.16347
8.93866
12.3669
19.3736
36.4077
96.7883
437.466
2888.49
2.53009
2.24024
2.01092
1.85538
1.75101
1.68185
1.63729
1.61016
1.59636
1.59064
1.58948
1.59472
1.60248
1.61321
1.62538
1.6392
1.65413
1.67025
1.68742
1.7057
1.72513
1.74579
1.76778
1.79102
1.81581
1.84255
1.87147
2.8972
3.38608
4.06216
5.0782
6.91291
9.72645
13.5383
18.0894
22.8462
27.0516
29.8632
30.6021
29.0364
25.6074
21.5594
17.757
14.4818
11.8347
9.79686
8.28371
7.15208
6.41291
6.00514
5.84846
5.93587
6.31658
7.2021
8.96067
12.3764
19.3691
36.4263
97.2835
441.638
2913.6
2.92537
2.5186
2.19827
1.98207
1.83648
1.73862
1.67386
1.63236
1.60739
1.59508
1.59024
1.5896
1.59555
1.60349
1.61431
1.62652
1.6403
1.65519
1.67122
1.68831
1.70649
1.72583
1.74639
1.76804
1.79102
1.81581
1.84255
1.87147
3.44228
4.16286
5.28993
7.3766
10.6593
15.2171
20.8486
27.0443
32.9999
37.7057
40.1637
39.7264
36.4115
31.064
25.3703
20.3363
16.1879
12.9444
10.5108
8.74167
7.44414
6.60649
6.14145
5.94845
6.01309
6.36729
7.23477
8.98475
12.3872
19.3646
36.4602
97.7862
446.345
2940.72
3.49036
2.91053
2.45759
2.15699
1.9549
1.81841
1.72667
1.66616
1.62765
1.6048
1.59393
1.58993
1.58992
1.59634
1.60452
1.61539
1.62765
1.64137
1.65621
1.67216
1.68917
1.70727
1.72652
1.74669
1.76804
1.79102
1.81581
1.84255
1.87147
4.26134
5.50398
7.84626
11.6094
16.9406
23.7145
31.4746
39.417
46.4289
51.2427
52.7575
50.4729
44.7935
37.0663
29.4466
23.0326
17.9392
14.0673
11.2245
9.194
7.72885
6.79278
6.27123
6.04302
6.07591
6.41018
7.27041
9.01112
12.3992
19.3617
36.4896
98.3991
451.399
2970.5
4.34702
3.47171
2.82056
2.39858
2.11817
1.92888
1.80093
1.71511
1.65876
1.62314
1.60245
1.59289
1.58966
1.59047
1.59711
1.60557
1.61644
1.62875
1.64242
1.65721
1.67308
1.69002
1.70803
1.72686
1.74669
1.76804
1.79102
1.81581
1.84255
1.87143
5.71697
8.31747
12.5645
18.6836
26.6407
36.0543
46.1615
55.816
63.568
67.908
67.721
62.8047
54.1002
43.5362
33.7315
25.8096
19.7141
15.1912
11.9315
9.63768
8.00511
6.97152
6.39454
6.1205
6.12886
6.45695
7.3093
9.04
12.4131
19.3595
36.5382
99.0343
457.088
3002.57
4.32304
5.90373
3.33494
2.7355
2.34311
2.08093
1.90368
1.78399
1.70395
1.65164
1.61883
1.60027
1.59196
1.58933
1.59115
1.59787
1.60662
1.61748
1.62983
1.64344
1.65819
1.67398
1.69084
1.7084
1.72686
1.74669
1.76804
1.79102
1.81581
1.84245
1.87136
8.78551
13.5139
20.4244
29.5841
40.7049
53.095
65.6351
76.7952
84.7705
87.8524
85.0423
76.6221
64.2172
50.3842
38.1669
28.6332
21.4936
16.3056
12.6263
10.0702
8.27199
7.14251
6.49605
6.18613
6.18648
6.50796
7.35175
9.07169
12.4287
19.3599
36.585
99.7969
463.273
3037.76
4.09941
5.88479
9.19962
3.20999
2.65571
2.28988
2.04484
1.87923
1.76761
1.69321
1.64483
1.61476
1.5983
1.59117
1.58909
1.59188
1.59864
1.60765
1.61851
1.63088
1.64444
1.65914
1.67486
1.69125
1.7084
1.72685
1.74669
1.76804
1.79102
1.81565
1.84225
1.87129
14.4458
22.1438
32.5081
45.3562
60.0906
75.6627
90.5555
102.818
110.281
111.114
104.616
91.7672
75.004
57.5142
42.6962
31.4721
23.2607
17.4017
13.3045
10.4896
8.52875
7.28409
6.5823
6.25789
6.24918
6.5636
7.39811
9.10642
12.4467
19.3617
36.6537
100.613
470.195
3075.44
3.90302
5.48885
9.20959
15.2732
3.09384
2.57913
2.2383
2.00982
1.85556
1.7518
1.6829
1.63836
1.61101
1.59659
1.59051
1.58897
1.59264
1.59943
1.60867
1.61953
1.6319
1.64542
1.66007
1.67529
1.69124
1.70839
1.72685
1.74669
1.76804
1.79081
1.81533
1.84204
1.87122
23.8218
35.3816
49.9503
67.0388
85.7009
104.501
121.483
134.231
140.214
137.604
126.243
108.033
86.3031
64.8294
47.2664
34.2984
25.0012
18.4723
13.9627
10.8942
8.74237
7.40486
6.67693
6.33639
6.31746
6.62428
7.44873
9.14462
12.4669
19.3665
36.7283
101.568
477.85
3116.7
3.72434
5.14427
8.48463
15.3549
25.3211
2.98276
2.50503
2.1883
1.97593
1.83272
1.73662
1.67305
1.63229
1.60766
1.59511
1.59001
1.58896
1.59339
1.60026
1.60966
1.62053
1.63291
1.64638
1.66053
1.67528
1.69124
1.70839
1.72685
1.74669
1.76778
1.79038
1.815
1.84183
1.87114
38.1731
54.4406
73.8542
95.5872
118.331
140.24
158.864
171.251
174.538
167.108
149.645
125.174
97.9499
72.2367
51.8289
37.0877
26.7033
19.5117
14.598
11.2316
8.92517
7.53793
6.78086
6.42232
6.39183
6.69045
7.50402
9.18653
12.4904
19.3745
36.8234
102.635
486.328
3160.48
3.55634
4.83254
7.83995
14.1047
25.5807
40.6737
2.87558
2.43332
2.13995
1.94323
1.81076
1.72209
1.66376
1.62678
1.60473
1.59386
1.58963
1.58907
1.59413
1.60111
1.61063
1.62152
1.6339
1.64685
1.66052
1.67528
1.69124
1.70839
1.72685
1.74638
1.76725
1.78994
1.81466
1.84161
1.87106
58.7803
80.4723
105.203
131.815
158.646
183.397
203.02
213.942
213.062
199.284
174.469
142.927
109.782
79.6495
56.3408
39.8202
28.3577
20.5156
15.128
11.5206
9.12717
7.68468
6.89509
6.51643
6.47289
6.76261
7.56441
9.23267
12.5171
19.387
36.9426
103.841
495.915
3208.31
3.3967
4.54212
7.24947
12.9555
23.6317
41.2597
62.6648
2.77215
2.36414
2.09336
1.91181
1.78973
1.70835
1.65528
1.62189
1.60217
1.5928
1.58938
1.58934
1.59482
1.60197
1.61158
1.62253
1.63438
1.64684
1.66051
1.67528
1.69124
1.70839
1.72651
1.74577
1.76671
1.78949
1.81431
1.84139
1.87098
86.8288
114.466
144.796
176.377
207.192
234.391
254.149
262.205
255.433
233.678
200.32
161.024
121.647
86.9904
60.7665
42.4793
29.9569
21.3533
15.5821
11.8404
9.3506
7.84668
7.02077
6.61958
6.56125
6.84128
7.63036
9.28338
12.5475
19.408
37.0735
105.262
506.37
3258.3
3.2449
4.26949
6.69618
11.8787
21.8034
38.41
63.7618
92.495
2.67259
2.29765
2.04865
1.88174
1.76983
1.69575
1.64768
1.61753
1.59997
1.5919
1.58917
1.58977
1.59549
1.60287
1.61255
1.62301
1.63435
1.64684
1.66051
1.67528
1.69124
1.70801
1.72581
1.74514
1.76616
1.78903
1.81396
1.84116
1.8709
123.295
157.179
193.236
229.798
264.444
293.559
312.309
315.755
301.131
269.746
226.784
179.205
133.405
94.1943
65.0764
45.0519
31.2924
22.0714
16.0847
12.1944
9.59797
8.0257
7.15915
6.73268
6.65764
6.92704
7.70236
9.33911
12.5833
19.43
37.2618
106.802
518.507
3322.29
3.10076
4.01427
6.17513
10.8541
20.0526
35.7099
59.7974
94.2959
131.103
2.57708
2.23403
2.00592
1.85331
1.75156
1.68443
1.64087
1.61364
1.5981
1.59114
1.58891
1.5903
1.59618
1.60383
1.613
1.62298
1.63434
1.64684
1.66051
1.67529
1.69083
1.70725
1.7251
1.7445
1.76559
1.78856
1.8136
1.84092
1.87081
168.871
209.126
250.972
292.551
330.857
361.169
377.398
374.108
349.493
306.893
253.447
197.234
144.94
101.208
69.2468
47.2018
32.438
22.8663
16.6412
12.5868
9.87208
8.22368
7.31165
6.85678
6.7628
7.02047
7.78091
9.40066
12.6226
19.4715
37.4429
108.708
533.884
3396.8
2.96401
3.777
5.68681
9.87654
18.3523
33.088
56.037
88.9803
133.766
179.081
2.4859
2.17344
1.96557
1.82722
1.73514
1.67427
1.63478
1.61017
1.59649
1.59051
1.58872
1.59093
1.59696
1.60429
1.61292
1.62298
1.63434
1.64683
1.66052
1.67485
1.68999
1.70646
1.72437
1.74383
1.76501
1.78807
1.81322
1.84068
1.87073
223.953
270.635
318.409
365.146
406.909
437.408
449.124
436.577
399.739
344.499
279.923
214.909
156.155
107.987
72.731
49.0463
33.7063
23.7468
17.258
13.0219
10.176
8.44283
7.47984
6.993
6.87756
7.12222
7.86659
9.46788
12.6713
19.5075
37.7349
111
554.343
3469.23
2.83409
3.55891
5.23272
8.95127
16.6916
30.5065
52.3596
83.9754
126.813
182.671
236.654
2.39935
2.11639
1.92862
1.80379
1.72039
1.66516
1.62933
1.60712
1.59511
1.58997
1.58868
1.59171
1.59726
1.60421
1.6129
1.62298
1.63434
1.64684
1.66005
1.67396
1.68914
1.70566
1.72362
1.74315
1.76441
1.78757
1.81284
1.84043
1.87064
288.705
341.977
396.031
448.226
493.143
522.367
526.977
502.283
451.017
381.966
305.876
232.063
166.973
113.643
75.7189
51.0883
35.1116
24.7229
17.9421
13.5047
10.5133
8.68553
7.66543
7.14256
7.00283
7.23294
7.95984
9.54277
12.7219
19.5815
38.0388
114.411
576.112
3537.92
2.71081
3.36122
4.81404
8.08211
15.0714
27.9473
48.71
79.0792
120.37
173.702
241.083
303.757
2.31828
2.0643
1.8955
1.78275
1.70714
1.65699
1.62448
1.60443
1.59391
1.58962
1.58894
1.59205
1.59706
1.60422
1.6129
1.62297
1.63436
1.64636
1.65911
1.67305
1.68826
1.70483
1.72285
1.74245
1.7638
1.78706
1.81244
1.84017
1.87055
363.214
423.535
484.569
542.68
590.218
616.026
610.201
570.177
502.45
418.759
331.031
248.567
175.974
118.487
79.0244
53.3506
36.6699
25.8057
18.7013
14.0407
10.8875
8.95442
7.87028
7.3068
7.13954
7.35341
8.06156
9.62354
12.7889
19.6504
38.6386
117.808
600.464
3602.12
2.59526
3.17997
4.43126
7.27083
13.5041
25.4086
45.056
74.2121
114.11
165.585
229.561
308.714
380.19
2.24468
2.01772
1.86583
1.76386
1.69525
1.64967
1.62014
1.60206
1.59297
1.58965
1.58892
1.59188
1.59703
1.60422
1.61291
1.62299
1.63387
1.64539
1.65815
1.67212
1.68737
1.70398
1.72206
1.74174
1.76317
1.78653
1.81204
1.83991
1.87046
447.7
516.066
585.222
649.862
698.968
718.169
697.757
639.096
553.22
454.425
355.17
262.25
183.665
123.835
82.6822
55.8581
38.3986
27.0074
19.544
14.6358
11.303
9.25236
8.09644
7.48714
7.28873
7.4841
8.17157
9.71491
12.8666
19.818
39.1688
122.12
626.27
3659.94
2.49036
3.01391
4.0858
6.52213
12.0066
22.9011
41.3854
69.3195
107.921
157.811
219.448
293.867
385.076
465.861
2.17924
1.97609
1.83924
1.74692
1.68459
1.64309
1.61626
1.60012
1.59259
1.58949
1.58854
1.59189
1.59702
1.60419
1.61296
1.62248
1.63287
1.6444
1.65717
1.67117
1.68645
1.70311
1.72125
1.741
1.76253
1.78599
1.81163
1.83965
1.87037
542.818
620.85
699.958
771.796
820.35
828.259
788.335
707.865
602.606
488.608
375.115
273.909
192.134
129.74
86.7304
58.6379
40.3171
28.3418
20.4798
15.2966
11.7641
9.58239
8.34601
7.68508
7.4514
7.62634
8.2924
9.82986
12.9909
19.96
39.9726
126.664
654.959
3711.23
2.39729
2.86497
3.77909
5.84216
10.5955
20.443
37.701
64.3685
101.717
150.23
209.97
281.29
365.78
469.762
561.127
2.12107
1.93888
1.81543
1.73172
1.67499
1.63718
1.61299
1.59901
1.59216
1.58903
1.58849
1.59188
1.59703
1.60423
1.61249
1.62147
1.63185
1.64339
1.65616
1.67019
1.6855
1.70222
1.72043
1.74025
1.76187
1.78544
1.81122
1.8394
1.87029
649.657
740.187
832.055
911.263
955.187
945.329
880.468
775.383
650.017
516.781
392.061
286.702
201.45
136.256
91.2093
61.7196
42.4465
29.8234
21.5188
16.03
12.2754
9.94771
8.62122
7.90207
7.62866
7.77917
8.44696
9.97908
13.1098
20.1959
40.7866
132.106
685.282
3753.66
2.31497
2.73259
3.51692
5.23841
9.29108
18.056
34.0165
59.3435
95.4326
142.712
200.931
269.832
350.074
444.347
562.815
667.251
2.06931
1.90566
1.7941
1.71805
1.66633
1.63212
1.61086
1.5981
1.59154
1.58899
1.58848
1.59184
1.59718
1.60375
1.61151
1.62046
1.63081
1.64235
1.65512
1.66919
1.68454
1.70131
1.71958
1.73947
1.76119
1.78489
1.81082
1.83916
1.8702
770.623
878.651
986.695
1071.52
1103.91
1068.1
972.649
840.672
689.091
540.662
410.584
300.713
211.686
143.439
96.1618
65.1349
44.8094
31.4682
22.6721
16.8436
12.842
10.3516
8.92425
8.13978
7.8218
7.97336
8.63617
10.1296
13.264
20.4348
41.8051
138.417
719.315
3783.5
2.24229
2.61433
3.3004
4.72327
8.11435
15.7642
30.3542
54.2413
89.0214
135.149
192.144
259.235
336.231
424.598
528.729
665.344
786.857
2.02325
1.876
1.77495
1.70572
1.65887
1.62863
1.60934
1.59724
1.59151
1.58898
1.58847
1.59196
1.59684
1.60277
1.61054
1.61944
1.62975
1.6413
1.65407
1.66816
1.68356
1.70037
1.71871
1.73869
1.76053
1.78436
1.81044
1.83892
1.87013
911.103
1044.25
1170.83
1256.24
1266.9
1195.2
1063.34
894.727
722.183
566.683
430.78
316.027
222.91
151.346
101.632
68.9169
47.4299
33.2931
23.9511
17.745
13.4688
10.7972
9.25742
8.39927
8.07074
8.20654
8.828
10.2942
13.4233
20.7385
43.0602
145.4
757.749
3804.32
2.17813
2.50897
3.11695
4.29432
7.09377
13.6153
26.745
49.0698
82.446
127.45
183.449
249.236
323.902
407.799
503.738
618.538
779.753
925.397
1.98225
1.84945
1.7577
1.69506
1.65352
1.62628
1.60814
1.59721
1.59149
1.58895
1.58876
1.59157
1.59604
1.60185
1.60956
1.61841
1.62866
1.64023
1.65299
1.66711
1.68255
1.69941
1.71783
1.73791
1.75988
1.78385
1.81007
1.83869
1.87005
1080.14
1248.44
1394
1470.9
1445.37
1324.78
1139.34
940.581
758.172
594.933
452.727
332.713
235.188
160.033
107.665
73.0997
50.3329
35.3157
25.3679
18.7422
14.1608
11.2879
9.6222
8.73471
8.37196
8.4428
9.0257
10.4632
13.6083
21.1231
44.3535
154.238
798.353
3809.83
2.12146
2.41557
2.95854
3.94001
6.23612
11.694
23.2553
43.8513
75.6797
119.526
174.698
239.61
312.717
393.464
483.231
586.787
714.238
910.281
1093.19
1.94568
1.82562
1.74274
1.68722
1.65003
1.62472
1.6081
1.59719
1.59144
1.58931
1.58871
1.59075
1.59533
1.60095
1.60855
1.61738
1.62755
1.63913
1.65189
1.66604
1.68152
1.69843
1.71695
1.73715
1.75925
1.78335
1.8097
1.83847
1.86997
1293.21
1509.74
1674.06
1726.76
1640.58
1435.7
1204.11
990.449
797.122
625.468
476.478
350.828
248.575
169.551
114.304
77.7171
53.5437
37.554
26.9347
19.843
14.923
11.8259
10.095
9.14133
8.6791
8.68263
9.22586
10.6433
13.8266
21.5107
46.2112
164.128
842.52
3805.84
2.07122
2.33319
2.81946
3.64818
5.52479
10.0402
20.0208
38.6617
68.711
111.294
165.739
230.143
302.37
381.055
466.511
561.636
673.93
817.834
1066.42
1306.16
1.91296
1.80494
1.73149
1.68226
1.64801
1.6247
1.60807
1.59712
1.59194
1.58939
1.5884
1.5901
1.59463
1.60008
1.60751
1.61633
1.62642
1.638
1.65078
1.66493
1.68047
1.69746
1.7161
1.73642
1.75864
1.78286
1.80935
1.83825
1.8699
1582.47
1873.74
2049.53
2045.67
1812.06
1530.69
1274.61
1044.3
839.023
658.289
502.052
370.404
263.113
179.942
121.587
82.8013
57.0866
40.0254
28.6632
21.0551
15.7588
12.524
10.6688
9.55653
8.99029
8.92439
9.43017
10.8376
14.0501
22.0842
47.9666
176.484
887.895
3794.11
2.02652
2.26068
2.6959
3.41085
4.94012
8.64495
17.1256
33.6945
61.5993
102.676
156.409
220.612
292.568
370.161
452.762
542.064
643.018
766.966
935.176
1271.44
1605.59
1.88457
1.78916
1.72448
1.67967
1.648
1.62466
1.60797
1.59781
1.59226
1.58931
1.58841
1.58952
1.5939
1.59923
1.60645
1.61526
1.62528
1.63684
1.64964
1.6638
1.67944
1.69652
1.71528
1.7357
1.75805
1.78239
1.80901
1.83804
1.86983
2055.47
2441.91
2628.24
2328.15
1958.08
1633.58
1350.43
1101.95
883.763
693.335
529.423
391.442
278.822
191.239
129.548
88.3805
60.984
42.746
30.5645
22.3844
16.8435
13.3714
11.255
9.97687
9.30317
9.16785
9.63964
11.0367
14.3451
22.616
50.5981
189.53
936.261
3769.7
1.98778
2.19684
2.58571
3.21459
4.46196
7.47799
14.5737
29.0969
54.58
93.6778
146.543
210.771
283.017
360.393
441.43
526.779
620.063
729.038
870.927
1080.12
1577.46
2149.24
1.86256
1.77957
1.72118
1.6797
1.64795
1.62452
1.60896
1.59858
1.59258
1.58962
1.58854
1.58902
1.59314
1.5984
1.60539
1.61418
1.62413
1.63566
1.64849
1.66269
1.67844
1.69561
1.71448
1.73501
1.75747
1.78194
1.80867
1.83783
1.86976
2892.74
3577.46
3102.51
2558.98
2112.21
1742.63
1430.82
1163.01
931.119
730.468
558.508
413.904
295.697
203.455
138.207
94.4765
65.2542
45.7297
32.6466
24.1087
18.1599
14.2372
11.8481
10.3987
9.61585
9.41271
9.8512
11.2647
14.6314
23.3974
53.369
204.889
986.242
3736.04
1.95742
2.14199
2.48767
3.048
4.07377
6.51336
12.3708
24.9069
47.8615
84.531
136.043
200.347
273.392
351.383
432.004
515.036
602.988
702.101
824.664
998.104
1285.75
2163.16
3308.21
1.8493
1.77543
1.72125
1.67964
1.64776
1.62582
1.61032
1.59962
1.59347
1.59009
1.58874
1.58868
1.59235
1.5976
1.60432
1.61307
1.62297
1.63445
1.64736
1.66162
1.67746
1.69473
1.7137
1.73435
1.75691
1.78149
1.80835
1.83763
1.86972
4978.78
4291.76
3438.63
2783.83
2269.31
1855.79
1514.75
1226.93
980.758
769.465