/*--------------------------------*- C++ -*----------------------------------*\
  =========                 |
  \\      /  F ield         | OpenFOAM: The Open Source CFD Toolbox
   \\    /   O peration     | Website:  https://openfoam.org
    \\  /    A nd           | Version:  8
     \\/     M anipulation  |
\*---------------------------------------------------------------------------*/
FoamFile
{
    version     2.0;
    format      ascii;
    class       volScalarField;
    location    "0.06";
    object      alphat;
}
// * * * * * * * * * * * * * * * * * * * * * * * * * * * * * * * * * * * * * //

dimensions      [1 -1 -1 0 0 0 0];

internalField   nonuniform List<scalar> 
15677
(
0.000119938
0.000609585
0.000101431
0.00158157
0.000434823
0.000103822
0.00296276
0.000900471
0.000357933
0.000115106
0.00448874
0.0016135
0.000620143
0.000356154
0.000129495
0.00585161
0.00256873
0.00109564
0.000525149
0.000348679
0.000141217
0.00685196
0.00370235
0.00181451
0.000846247
0.000474954
0.000342553
0.000150862
0.00743609
0.00489151
0.002742
0.0013958
0.000711193
0.000444103
0.000340848
0.000158811
0.0077085
0.00600044
0.00381695
0.00218032
0.00114411
0.000622084
0.00042852
0.000342996
0.00016474
0.00782514
0.0068848
0.00493356
0.00314864
0.00180744
0.000967248
0.000566668
0.00042382
0.000346473
0.000169522
0.00788439
0.00744726
0.00596655
0.00421907
0.00267751
0.00153222
0.000844079
0.000535394
0.000424455
0.000350695
0.000172891
0.00790219
0.00772229
0.00680602
0.00528342
0.00368838
0.00231156
0.00132649
0.000760425
0.000519215
0.000427938
0.000354291
0.000175903
0.00789923
0.0078501
0.00738217
0.00622857
0.0047456
0.00325754
0.00202539
0.00117165
0.000706925
0.000511645
0.000431651
0.0003581
0.000178179
0.00789547
0.00789819
0.00769311
0.00696441
0.00574205
0.00428984
0.00290786
0.00180068
0.00106433
0.000671383
0.000507941
0.000436161
0.000361524
0.000180391
0.00789444
0.00790536
0.00783916
0.0074539
0.00657842
0.00531002
0.00390577
0.00262402
0.00163297
0.000985024
0.000647002
0.000507185
0.000440616
0.000365158
0.000182109
0.00789444
0.00790331
0.00789081
0.00771739
0.0071892
0.00621774
0.00492983
0.00358457
0.00240244
0.00150243
0.000926266
0.000629948
0.000508038
0.000445693
0.000368129
0.000183984
0.0078946
0.00790154
0.00790135
0.00783778
0.00756361
0.00693261
0.00588252
0.00460143
0.003325
0.00222479
0.00140236
0.00088065
0.0006184
0.000510687
0.00045017
0.000371635
0.000185258
0.00789472
0.00790061
0.00790211
0.00787609
0.00776505
0.00741876
0.00667565
0.00558096
0.00432716
0.00311202
0.0020843
0.00132138
0.00084633
0.000611108
0.000513831
0.000455261
0.000374022
0.000186782
0.00789479
0.00790006
0.00790161
0.00788641
0.00784142
0.00769253
0.00725541
0.00643076
0.00531949
0.00409684
0.00293932
0.00196911
0.00125825
0.000819698
0.000606721
0.000518203
0.000459214
0.000377088
0.000187798
0.00789484
0.00789967
0.00790137
0.00788882
0.00786642
0.00780895
0.00760558
0.00708298
0.00620835
0.00509369
0.00390547
0.00279596
0.00187592
0.0012059
0.000799318
0.00060522
0.000522085
0.000463725
0.000378911
0.00018916
0.00789489
0.00789933
0.00790137
0.0078893
0.00787378
0.00785187
0.00777095
0.00751343
0.00691748
0.00600914
0.00490105
0.00374428
0.00267742
0.00179796
0.00116376
0.000784371
0.00060493
0.000526725
0.000466832
0.000381651
0.000190009
0.00789494
0.00789904
0.00790146
0.00788941
0.00787567
0.00786609
0.00783831
0.00772587
0.00740949
0.00676191
0.0058339
0.00473594
0.00360863
0.00257741
0.00173359
0.00112991
0.000773569
0.000606596
0.0005304
0.000470953
0.000383099
0.000191259
0.00789498
0.0078988
0.00790155
0.00788947
0.00787614
0.00786995
0.00786386
0.00782033
0.00767052
0.00730487
0.00661972
0.00568087
0.0045948
0.00349318
0.00249394
0.0016806
0.00110398
0.000766896
0.000608064
0.000534636
0.000473393
0.000385378
0.000192105
0.00789502
0.00789861
0.00790163
0.00788952
0.00787632
0.00787058
0.00787249
0.00785942
0.00779393
0.00760801
0.00720409
0.0064935
0.00554813
0.00447352
0.00339587
0.00242461
0.00163846
0.00108476
0.000761805
0.000611223
0.000538232
0.000476382
0.000386788
0.000193329
0.00789505
0.00789845
0.00790168
0.00788958
0.00787642
0.0078704
0.00787495
0.00787389
0.00784925
0.00775902
0.00754371
0.00711388
0.00638257
0.00543269
0.00437025
0.00331471
0.00236877
0.00160589
0.00107003
0.000760386
0.000613596
0.000541758
0.000478799
0.00038872
0.000194152
0.00789508
0.00789831
0.00790172
0.00788965
0.00787649
0.00787012
0.00787541
0.00787844
0.00787223
0.00783045
0.00772069
0.00748656
0.00703314
0.00628442
0.00533351
0.00428409
0.00324913
0.00232536
0.00158151
0.00106146
0.000759368
0.000617237
0.000544706
0.000481176
0.000390059
0.00019539
0.00789511
0.00789819
0.00790173
0.00788974
0.00787652
0.0078699
0.00787531
0.00787941
0.00788107
0.00786165
0.00780877
0.00768591
0.00743111
0.0069606
0.00620042
0.00525127
0.00421469
0.00319835
0.00229336
0.00156542
0.00105546
0.000760605
0.000620817
0.000547526
0.000483257
0.000391781
0.00019618
0.00789514
0.00789808
0.00790174
0.00788985
0.00787653
0.00786977
0.0078751
0.00787928
0.00788417
0.00787411
0.0078497
0.00778826
0.00765186
0.00738397
0.00690047
0.00613027
0.0051843
0.00416051
0.00316108
0.00227217
0.00155572
0.00105403
0.000763803
0.000623492
0.00055028
0.000485221
0.000393006
0.000197447
0.00789517
0.00789798
0.00790173
0.00788997
0.00787653
0.00786969
0.00787489
0.00787894
0.00788509
0.00787854
0.0078674
0.00783748
0.00776867
0.00762626
0.00734719
0.00685044
0.00607682
0.00513689
0.00412575
0.00313965
0.00226136
0.00155279
0.00105651
0.000766433
0.000626892
0.000552908
0.000487123
0.000394712
0.000198234
0.0078952
0.00789788
0.00790171
0.00789009
0.00787652
0.00786965
0.00787471
0.00787864
0.00788522
0.00787983
0.00787445
0.00785964
0.00782662
0.00775647
0.00760191
0.0073229
0.00681601
0.00603759
0.00510307
0.00410235
0.0031279
0.00225836
0.00155614
0.00106042
0.000770513
0.000630727
0.000555608
0.000488812
0.000395698
0.000199462
0.00789524
0.00789778
0.00790169
0.00789021
0.00787651
0.00786963
0.00787455
0.00787841
0.00788512
0.00788003
0.00787688
0.00786889
0.00785343
0.00782191
0.00774783
0.00759624
0.00730231
0.00678902
0.00601083
0.005083
0.00409243
0.00312683
0.00226397
0.00156372
0.00106707
0.000776027
0.000634604
0.000558004
0.000490522
0.00039751
0.000200561
0.00789527
0.00789769
0.00790165
0.00789033
0.00787649
0.00786964
0.0078744
0.00787825
0.00788496
0.00787994
0.00787743
0.00787235
0.00786499
0.00785308
0.00782567
0.00774909
0.00759164
0.00728931
0.00677475
0.00600047
0.00508082
0.00409841
0.00313898
0.00227815
0.00157641
0.00107673
0.000782231
0.000638478
0.000560341
0.00049202
0.000398285
0.000201612
0.00789531
0.0078976
0.00790161
0.00789045
0.00787648
0.00786965
0.00787426
0.00787813
0.00788479
0.00787982
0.00787735
0.00787333
0.0078695
0.00786694
0.00786399
0.00783062
0.00775465
0.0075911
0.00729092
0.00677871
0.00600859
0.00509501
0.00411843
0.00316174
0.00229917
0.00159425
0.0010886
0.000789255
0.000642506
0.000562588
0.000493569
0.000399769
0.000202652
0.00789536
0.00789751
0.00790157
0.00789057
0.00787647
0.00786968
0.00787413
0.00787805
0.00788461
0.00787974
0.0078771
0.00787344
0.00787091
0.00787239
0.00788146
0.00787154
0.00784222
0.00776734
0.00760624
0.00730797
0.00679897
0.0060331
0.00512487
0.00415148
0.00319437
0.00232699
0.00161638
0.00110273
0.000797071
0.000646528
0.000565009
0.000495116
0.000401232
0.000203731
0.0078954
0.00789743
0.00790153
0.00789069
0.00787647
0.0078697
0.007874
0.00787798
0.00788443
0.0078797
0.00787684
0.00787328
0.00787118
0.00787394
0.00788881
0.00789099
0.00788723
0.00786414
0.00779278
0.00763439
0.00734046
0.00683588
0.00607472
0.00516979
0.00419706
0.00323638
0.00236098
0.00164264
0.0011187
0.000805368
0.000651181
0.000567566
0.000496623
0.000402654
0.000204814
0.00789735
0.00789548
0.00790148
0.00789081
0.00787648
0.00786973
0.00787387
0.00787793
0.00788425
0.00787969
0.00787659
0.00787306
0.00787108
0.00787401
0.00789139
0.00789972
0.00790914
0.00791446
0.00789742
0.00783018
0.0076774
0.00738951
0.0068907
0.00613282
0.00522968
0.00425475
0.00328695
0.00240146
0.00167281
0.0011369
0.000815924
0.000656476
0.000570047
0.000497978
0.000404102
0.000205923
0.00790143
0.00789723
0.0078956
0.00789092
0.00787649
0.00786977
0.00787375
0.00787789
0.00788406
0.00787971
0.00787637
0.00787285
0.0078709
0.00787359
0.00789207
0.007903
0.00791909
0.00793927
0.00795342
0.00794162
0.00788193
0.00773729
0.00745697
0.00696336
0.00620847
0.00530422
0.00432388
0.00334627
0.00244689
0.00170611
0.00115928
0.000828104
0.000661763
0.00057232
0.000499305
0.000405444
0.000206993
0.00789103
0.00790138
0.00789706
0.00789573
0.00787651
0.0078698
0.00787363
0.00787786
0.00788387
0.00787974
0.00787617
0.00787267
0.00787073
0.00787303
0.0078921
0.00790396
0.00792295
0.00795073
0.00798194
0.0080024
0.00800031
0.0079504
0.00781599
0.00754424
0.00705563
0.0063013
0.00539299
0.0044043
0.00341319
0.00249823
0.00174555
0.0011867
0.000840982
0.000667062
0.000574654
0.000500488
0.000406786
0.000208076
0.00787654
0.00789126
0.00790132
0.00789689
0.00789587
0.00786983
0.00787352
0.00787783
0.00788369
0.00787979
0.00787599
0.00787252
0.00787057
0.00787247
0.00789191
0.00790405
0.0079242
0.00795548
0.00799597
0.0080345
0.00806651
0.00807573
0.00803828
0.00791486
0.00765239
0.00716685
0.00641194
0.00549607
0.00449514
0.00348785
0.00256042
0.00179358
0.00121601
0.000854808
0.000672533
0.00057673
0.000501724
0.000408014
0.000209089
0.00786986
0.0078767
0.00789164
0.00790124
0.0078967
0.00789602
0.00787342
0.0078778
0.00788352
0.00787985
0.00787584
0.00787241
0.00787044
0.00787194
0.00789169
0.00790383
0.00792446
0.00795721
0.00800237
0.00805086
0.00810223
0.0081469
0.00817084
0.00814669
0.00803548
0.00778108
0.00729829
0.0065395
0.00561278
0.004596
0.00357803
0.00263635
0.00184342
0.00124688
0.000869169
0.000677822
0.000578914
0.000502805
0.00040924
0.000210114
0.00787332
0.00786993
0.00787702
0.00789202
0.00790113
0.00789651
0.00789618
0.00787776
0.00788335
0.00787991
0.0078757
0.00787233
0.00787032
0.00787148
0.0078915
0.00790351
0.00792434
0.00795773
0.00800532
0.00805923
0.00812253
0.00818843
0.00824951
0.00828725
0.00827667
0.00817725
0.007931
0.00744828
0.00668324
0.00574337
0.00471874
0.00368785
0.00271744
0.0018968
0.00127924
0.000884
0.000683402
0.000580846
0.000503875
0.000410349
0.000211049
0.00787773
0.00787313
0.00787003
0.00787736
0.00789241
0.00790101
0.00789631
0.00789635
0.00788319
0.00787997
0.00787558
0.00787228
0.0078702
0.00787109
0.00789134
0.00790319
0.0079241
0.0079578
0.0080068
0.00806372
0.00813395
0.0082133
0.00829816
0.00837618
0.00843124
0.0084318
0.00833955
0.00809971
0.0076162
0.00684167
0.00590122
0.00486824
0.00380577
0.00280309
0.00195227
0.00131247
0.000898987
0.000688571
0.000582867
0.000504796
0.000411455
0.000211999
0.00788304
0.00787758
0.00787285
0.00787015
0.00787772
0.0078928
0.00790086
0.00789611
0.00789653
0.00788003
0.00787549
0.00787226
0.00787007
0.00787079
0.0078912
0.00790287
0.00792384
0.00795769
0.00800765
0.00806648
0.00814094
0.00822864
0.00832938
0.00843312
0.00853143
0.00860196
0.00861635
0.00852829
0.00828538
0.00779874
0.00703254
0.00609192
0.00502802
0.00393032
0.00289231
0.00200881
0.00134654
0.000914435
0.00069417
0.000584685
0.000505735
0.000412449
0.000212847
0.00788007
0.00788282
0.00787732
0.00787257
0.00787029
0.00787811
0.00789319
0.0079007
0.0078959
0.00789671
0.00787541
0.00787225
0.00786994
0.00787059
0.00789108
0.00790258
0.00792357
0.00795752
0.00800821
0.00806847
0.00814585
0.0082391
0.00835076
0.00847249
0.00859952
0.00871594
0.00880337
0.00882761
0.00874415
0.00849405
0.0080158
0.00725904
0.00629363
0.00519608
0.00405979
0.00298424
0.00206602
0.00138054
0.000930114
0.000699465
0.000586647
0.000506559
0.000413443
0.000213716
0.00787534
0.00788023
0.00788252
0.00787704
0.00787229
0.00787044
0.00787853
0.00789357
0.00790053
0.0078957
0.00789689
0.00787225
0.0078698
0.00787048
0.00789093
0.00790231
0.00792332
0.00795735
0.00800863
0.00807009
0.00814972
0.00824719
0.00836678
0.00850171
0.00865042
0.0087982
0.00893508
0.0090352
0.00906722
0.00898443
0.00875116
0.00827757
0.00749598
0.00650346
0.00536943
0.00419291
0.00307774
0.00212428
0.00141365
0.000945895
0.000704565
0.000588427
0.00050739
0.00041433
0.000214478
0.00787226
0.00787538
0.00788048
0.00788219
0.00787675
0.00787202
0.00787061
0.00787897
0.00789394
0.00790034
0.0078955
0.00789708
0.00786966
0.00787047
0.00789074
0.00790205
0.00792308
0.00795719
0.00800899
0.00807148
0.00815299
0.00825403
0.00837996
0.00852502
0.00869139
0.00886409
0.00903619
0.00918863
0.00930003
0.00933534
0.00927755
0.0090661
0.00856247
0.0077387
0.00671585
0.0055452
0.00432756
0.0031721
0.00218291
0.00144653
0.000961531
0.000709657
0.000590153
0.000508117
0.000415216
0.000215265
0.00786952
0.00787237
0.00787554
0.00788071
0.00788183
0.00787644
0.00787175
0.00787081
0.00787944
0.0078943
0.00790014
0.00789531
0.00789726
0.00787055
0.00789047
0.00790181
0.00792286
0.00795705
0.00800931
0.00807273
0.00815586
0.0082601
0.00839141
0.00854507
0.00872622
0.00892032
0.00912245
0.00931342
0.00948105
0.00959841
0.00966496
0.00963615
0.0094043
0.00886663
0.00799211
0.00692818
0.00572122
0.00446289
0.00326651
0.00224155
0.00147836
0.000976924
0.000714609
0.000591777
0.000508851
0.000416007
0.000215945
0.0078707
0.00786937
0.00787259
0.00787573
0.00788091
0.00788146
0.00787612
0.0078715
0.00787103
0.00787994
0.00789465
0.00789994
0.00789514
0.00789744
0.00789011
0.00790159
0.00792267
0.00795695
0.00800962
0.00807386
0.00815842
0.00826558
0.00840163
0.00856312
0.00875735
0.00896975
0.00920014
0.00942616
0.00963684
0.00981319
0.00996838
0.0100718
0.0100249
0.00976204
0.00918256
0.00825493
0.00714075
0.00589627
0.004597
0.0033602
0.00229968
0.00150965
0.000992015
0.000719515
0.000593313
0.000509491
0.00041679
0.000216654
0.00788966
0.00787057
0.00786919
0.00787284
0.00787596
0.00788106
0.00788107
0.00787578
0.00787127
0.00787128
0.00788046
0.00789498
0.00789972
0.00789498
0.00789761
0.00790142
0.00792252
0.00795688
0.00800992
0.00807487
0.00816074
0.00827056
0.00841087
0.00857972
0.0087858
0.00901471
0.00927142
0.00953263
0.00978458
0.0100072
0.0102294
0.0104306
0.0105177
0.0104399
0.0101356
0.00950597
0.00852296
0.00735028
0.00606669
0.00472866
0.00345247
0.00235691
0.00154038
0.00100672
0.00072435
0.000594732
0.000510135
0.000417496
0.000217258
0.00790135
0.00788817
0.00787028
0.00786904
0.0078731
0.00787622
0.00788117
0.00788067
0.00787544
0.00787107
0.00787155
0.00788101
0.00789528
0.0078995
0.00789484
0.00789777
0.00792243
0.00795686
0.00801021
0.00807579
0.00816283
0.00827509
0.00841927
0.00859508
0.00881197
0.00905649
0.00933856
0.00963291
0.00992844
0.0101992
0.0104784
0.0107577
0.0109444
0.0109998
0.0108781
0.0105218
0.00983401
0.00879373
0.00756149
0.00623254
0.00485703
0.00354277
0.00241299
0.00157009
0.00102101
0.000729068
0.000596087
0.000510695
0.000418181
0.00021789
0.00792243
0.00790061
0.00788547
0.00787017
0.00786893
0.00787335
0.00787652
0.00788121
0.00788027
0.00787508
0.00787089
0.00787184
0.00788157
0.00789556
0.0078993
0.00789472
0.00789792
0.00795686
0.00801047
0.00807661
0.00816472
0.00827919
0.00842692
0.00860926
0.00883604
0.00909573
0.00940234
0.00972782
0.0100664
0.0103938
0.0107375
0.0110871
0.0113548
0.0115097
0.0115177
0.0113379
0.0109184
0.0101645
0.00906225
0.00777183
0.00639361
0.00498152
0.00363061
0.00246763
0.00159887
0.00103482
0.000733659
0.000597346
0.000511262
0.000418814
0.000218424
0.00795692
0.00792091
0.00789927
0.00788264
0.00787019
0.00786887
0.00787359
0.00787686
0.00788119
0.00787987
0.00787471
0.00787075
0.00787216
0.00788212
0.00789579
0.0078991
0.00789461
0.00789805
0.00801069
0.00807733
0.00816642
0.00828289
0.00843388
0.00862231
0.00885816
0.00913268
0.00946262
0.00981769
0.0102003
0.0105889
0.0110102
0.0114432
0.0117891
0.0120297
0.0121347
0.0120756
0.0118202
0.0113243
0.0104958
0.00932727
0.00797943
0.00654963
0.00510178
0.00371569
0.00252063
0.00162667
0.00104815
0.000738095
0.000598553
0.000511751
0.000419405
0.000218983
0.00801094
0.00795429
0.00791787
0.007898
0.00787982
0.00787027
0.0078689
0.0078738
0.00787723
0.00788112
0.00787948
0.00787433
0.00787066
0.00787249
0.00788266
0.007896
0.00789891
0.00789452
0.00789818
0.00807795
0.00816795
0.00828624
0.00844022
0.00863425
0.00887845
0.00916735
0.00951904
0.00990294
0.0103318
0.0107843
0.0112846
0.0118269
0.0122851
0.0126209
0.0128124
0.012837
0.0126814
0.0123273
0.0117394
0.0108269
0.00958786
0.00818291
0.00670024
0.00521734
0.00379764
0.00257183
0.00165346
0.00106096
0.000742374
0.000599677
0.000512251
0.000419981
0.000219456
0.0080786
0.00800734
0.00794884
0.00791495
0.00789676
0.0078771
0.00787036
0.00786903
0.007874
0.00787763
0.00788099
0.00787909
0.00787395
0.0078706
0.00787282
0.00788317
0.00789617
0.00789874
0.00789445
0.00789829
0.00816933
0.00828926
0.00844598
0.00864513
0.00889705
0.00919967
0.00957143
0.00998412
0.010461
0.010977
0.0115544
0.0122293
0.0128688
0.0133618
0.0136515
0.0137406
0.0136337
0.0133413
0.0128605
0.0121633
0.0111569
0.00984335
0.00838138
0.00684566
0.00532752
0.00387624
0.0026211
0.00167922
0.00107325
0.000746478
0.000600758
0.000512677
0.000420493
0.000219871
0.00817069
0.00807379
0.00799962
0.00794352
0.00791214
0.00789555
0.00787456
0.00787042
0.00786928
0.00787419
0.00787802
0.00788081
0.00787871
0.00787359
0.00787059
0.00787314
0.00788366
0.00789632
0.00789858
0.00789439
0.0078984
0.00829199
0.00845121
0.00865503
0.00891409
0.00922961
0.00961987
0.0100616
0.0105863
0.0111627
0.0118198
0.012666
0.0135576
0.0143165
0.0147735
0.0149218
0.0148259
0.0145254
0.0140534
0.0134181
0.0125946
0.011485
0.0100932
0.00857393
0.00698708
0.00543255
0.00395139
0.00266836
0.00170392
0.00108502
0.000750415
0.00060176
0.000513123
0.000420931
0.000220206
0.00829459
0.00816424
0.008063
0.00799191
0.00793853
0.00790938
0.00789436
0.00787231
0.0078704
0.00786962
0.00787439
0.00787839
0.00788061
0.00787835
0.00787325
0.00787061
0.00787346
0.00788412
0.00789644
0.00789844
0.00789434
0.00789849
0.00845596
0.00866401
0.00892968
0.0092572
0.00966462
0.0101352
0.0107056
0.0113392
0.0120881
0.0131568
0.0143677
0.0154657
0.0162107
0.0164884
0.0163866
0.0160322
0.0154895
0.0148052
0.013994
0.0130306
0.01181
0.0103369
0.00875954
0.00712391
0.00553263
0.00402307
0.00271357
0.00172755
0.00109624
0.000754168
0.00060273
0.000513434
0.000421306
0.000220611
0.00846041
0.00828609
0.00814911
0.00805225
0.00798423
0.00793378
0.00790664
0.0078931
0.00787062
0.00787027
0.00787004
0.00787461
0.00787871
0.0078804
0.00787799
0.00787294
0.00787066
0.00787377
0.00788456
0.00789655
0.00789832
0.00789431
0.00789856
0.00867216
0.00894391
0.00928251
0.00970592
0.0102047
0.0108173
0.0115074
0.0123683
0.0137065
0.015273
0.0167284
0.0177979
0.0183429
0.0183366
0.0179303
0.0172883
0.0164856
0.0155761
0.0145784
0.0134673
0.0121305
0.0105739
0.00893815
0.00725575
0.00562789
0.00409127
0.00275669
0.00175011
0.00110695
0.000757756
0.000603505
0.000513741
0.000421664
0.000221011
0.00867964
0.00844923
0.00826501
0.00813402
0.00804173
0.00797658
0.00792919
0.0079039
0.00789128
0.00786957
0.00787004
0.00787052
0.00787489
0.00787895
0.0078802
0.00787765
0.00787266
0.00787074
0.00787406
0.00788497
0.00789664
0.00789821
0.00789428
0.00789862
0.0089569
0.00930565
0.00974403
0.0102698
0.0109211
0.0116697
0.0126642
0.0142987
0.016212
0.0179848
0.0193407
0.0201665
0.0204236
0.0201224
0.0194271
0.0185167
0.017469
0.0163422
0.0151598
0.0138996
0.0124448
0.0108037
0.00910972
0.00738237
0.00571849
0.00415605
0.00279775
0.0017716
0.00111712
0.000760709
0.000604181
0.000514024
0.000422112
0.000221498
0.00896873
0.00866534
0.00842001
0.00824396
0.0081193
0.00803145
0.00796901
0.00792476
0.00790126
0.00788888
0.0078691
0.00786975
0.00787101
0.0078752
0.00787911
0.00788002
0.00787731
0.00787241
0.00787083
0.00787435
0.00788535
0.00789673
0.00789812
0.00789426
0.00789866
0.00932677
0.00977912
0.0103302
0.0110173
0.0118287
0.0129734
0.0149055
0.0171188
0.0191318
0.0206942
0.0217405
0.0222628
0.0222518
0.0217104
0.0207855
0.019657
0.0184016
0.0170815
0.015727
0.0143226
0.0127509
0.0110258
0.0092742
0.00750362
0.00580453
0.00421748
0.00283675
0.00179205
0.00112552
0.000763237
0.000604894
0.000514412
0.000422517
0.000221963
0.00934575
0.00895049
0.00862528
0.0083908
0.00822339
0.00810492
0.00802149
0.00796153
0.00792062
0.0078987
0.00788578
0.00786906
0.00786949
0.00787149
0.00787555
0.0078792
0.00787986
0.00787699
0.0078722
0.00787093
0.00787463
0.00788571
0.00789682
0.00789806
0.00789425
0.00789867
0.00981136
0.0103859
0.0111067
0.0119855
0.0132885
0.0154978
0.0179456
0.0201117
0.0217909
0.0229732
0.0236915
0.023956
0.0237456
0.0230407
0.0219587
0.020673
0.0192575
0.017777
0.0162703
0.0147316
0.0130473
0.0112397
0.00943157
0.00761943
0.00588618
0.00427566
0.00287374
0.0018089
0.00113265
0.000766005
0.000605715
0.000514746
0.000423024
0.000222542
0.00984025
0.00932289
0.00889591
0.00858517
0.00836224
0.00820329
0.00809089
0.00801188
0.00795435
0.00791681
0.00789687
0.00788241
0.00786926
0.0078693
0.00787192
0.0078759
0.00787924
0.00787971
0.00787668
0.00787202
0.00787104
0.00787489
0.00788604
0.00789685
0.00789801
0.00789424
0.00789867
0.010437
0.0111903
0.01214
0.0135999
0.0160534
0.0186674
0.0209086
0.0226254
0.0238629
0.0246941
0.025156
0.0252399
0.0249038
0.0241065
0.0229345
0.0215503
0.0200228
0.0184179
0.0167825
0.0151227
0.0133322
0.011445
0.00958183
0.00772982
0.00596356
0.00433069
0.00290415
0.00182325
0.00114052
0.000769074
0.000606578
0.000515222
0.000423458
0.000223074
0.0104823
0.00981156
0.00924946
0.00884123
0.00854589
0.0083343
0.00818363
0.00807722
0.00800253
0.00794752
0.00791316
0.00789532
0.00787909
0.00786955
0.00786921
0.00787232
0.00787625
0.00787924
0.00787959
0.00787637
0.00787186
0.00787115
0.00787515
0.00788624
0.00789683
0.00789799
0.00789424
0.00789866
0.0112689
0.0122909
0.0138991
0.016559
0.0192783
0.021533
0.023227
0.0244544
0.0253244
0.0259003
0.0261918
0.0261659
0.0257643
0.0249303
0.0237226
0.0222896
0.0206933
0.0189986
0.0172591
0.0154931
0.0136046
0.0116412
0.00972503
0.00783484
0.00603684
0.00437584
0.00292998
0.00183901
0.00114913
0.000772477
0.000607582
0.000515603
0.000424029
0.00022376
0.01134
0.0104475
0.00971256
0.00917571
0.00878763
0.00850745
0.00830697
0.00816441
0.00806387
0.0079934
0.00794087
0.00790974
0.0078939
0.00787606
0.00786986
0.00786921
0.0078727
0.00787657
0.00787923
0.00787947
0.00787609
0.00787173
0.00787126
0.00787529
0.00788628
0.00789682
0.00789799
0.00789425
0.00789862
0.0124364
0.0141795
0.0170092
0.0197844
0.0220082
0.0236375
0.0248079
0.025659
0.0262778
0.0266928
0.0268843
0.0268016
0.0263775
0.0255466
0.0243433
0.0229007
0.0212717
0.0195179
0.0176976
0.015841
0.0138634
0.0118283
0.00986127
0.00793463
0.00609705
0.00441414
0.0029583
0.00185636
0.00115859
0.00077629
0.000608629
0.000516181
0.000424507
0.000224361
0.0125679
0.0112959
0.0103144
0.00961327
0.00910326
0.00873511
0.00846979
0.00828022
0.00814565
0.00805085
0.00798441
0.0079345
0.00790651
0.00789262
0.00787346
0.0078701
0.00786929
0.00787307
0.00787685
0.0078792
0.00787936
0.00787581
0.00787162
0.00787134
0.00787532
0.0078863
0.00789682
0.00789801
0.00789426
0.00789856
0.0144408
0.0174045
0.0201975
0.022361
0.0238992
0.024982
0.025773
0.0263798
0.0268487
0.0271744
0.0273154
0.0272112
0.0267929
0.0259915
0.0248207
0.0233977
0.0217645
0.0199774
0.0180976
0.0161655
0.0141083
0.0120061
0.00999073
0.00801686
0.00614817
0.00445607
0.00298937
0.00187551
0.00116887
0.000780504
0.00060988
0.000516615
0.000425161
0.000225171
0.0125214
0.0146717
0.0111044
0.0101825
0.00951547
0.0090322
0.00868362
0.00843292
0.00825409
0.00812734
0.00803814
0.00797557
0.00792861
0.00790352
0.00789138
0.00787156
0.00787023
0.00786944
0.00787344
0.0078771
0.00787917
0.00787926
0.00787556
0.00787156
0.00787137
0.00787534
0.0078863
0.00789683
0.00789806
0.00789428
0.00789849
0.0177459
0.020532
0.0226173
0.0240496
0.0250264
0.0257302
0.0262852
0.026754
0.0271462
0.0274306
0.0275523
0.0274487
0.0270539
0.0262985
0.0251789
0.0237959
0.02218
0.0203809
0.0184601
0.0164665
0.0143391
0.0121748
0.0100974
0.00808682
0.0062042
0.00450201
0.0030235
0.00189668
0.00118018
0.000785251
0.000611175
0.000517321
0.00042571
0.000225844
0.012231
0.0146271
0.0180263
0.0109203
0.0100526
0.00941936
0.00896247
0.00863316
0.00839689
0.00822862
0.00810953
0.00802578
0.0079669
0.00792339
0.00790076
0.00788969
0.00787036
0.00787024
0.00786964
0.00787381
0.0078773
0.00787916
0.00787916
0.00787541
0.00787154
0.00787138
0.00787534
0.00788628
0.00789685
0.00789813
0.00789431
0.00789839
0.0208014
0.0227994
0.0241192
0.024981
0.0255813
0.026057
0.0264849
0.02689
0.0272532
0.0275257
0.0276467
0.0275567
0.027196
0.0264965
0.0254394
0.0241102
0.0225275
0.0207329
0.0187869
0.0167446
0.014556
0.0123135
0.0101882
0.00816362
0.00626568
0.00455243
0.00306105
0.00192011
0.00119267
0.000790484
0.000612785
0.000517823
0.000426473
0.0002268
0.0119469
0.0142085
0.0179616
0.0210036
0.0107444
0.00992443
0.00932499
0.00889408
0.00858382
0.00836177
0.00820386
0.00809226
0.00801388
0.00795858
0.00791877
0.00789831
0.00788751
0.00786977
0.00787015
0.00786988
0.00787418
0.00787747
0.00787914
0.0078791
0.00787537
0.00787153
0.00787138
0.00787532
0.00788624
0.00789682
0.00789821
0.00789434
0.00789829
0.0229255
0.0241324
0.0248762
0.0253644
0.0257431
0.0261005
0.0264763
0.0268657
0.0272287
0.0275057
0.0276364
0.0275679
0.0272474
0.0266091
0.0256212
0.0243542
0.0228157
0.0210386
0.0190803
0.0170008
0.0147325
0.0124313
0.0102878
0.008248
0.00633318
0.00460776
0.00310242
0.0019461
0.00120638
0.000796418
0.000614365
0.000518687
0.000427138
0.000227555
0.0116804
0.0137583
0.017544
0.0208958
0.0229975
0.0105736
0.00979784
0.00923248
0.00882713
0.00853571
0.00832763
0.00817988
0.00807569
0.00800278
0.00795082
0.00791476
0.00789619
0.00788484
0.0078696
0.00787
0.00787014
0.00787455
0.00787759
0.00787912
0.00787909
0.00787534
0.00787153
0.00787137
0.00787529
0.00788604
0.00789673
0.00789832
0.00789439
0.00789817
0.0241071
0.0247348
0.0251077
0.0253791
0.0256453
0.0259591
0.0263311
0.026734
0.0271124
0.0274024
0.0275486
0.0275066
0.0272304
0.0266558
0.0257397
0.0245398
0.0230529
0.0213029
0.0193431
0.0172049
0.0148812
0.0125601
0.0103971
0.00834082
0.00640767
0.00466848
0.00314806
0.00197496
0.00122155
0.000802937
0.000616426
0.000519287
0.000428042
0.000228686
0.0114298
0.0133166
0.0170213
0.0206058
0.0228294
0.0240437
0.0104062
0.00967317
0.00914199
0.00876177
0.00848895
0.00829456
0.00815689
0.00806028
0.00799276
0.00794374
0.00791131
0.00789473
0.00788207
0.00786969
0.00786984
0.00787041
0.00787489
0.00787763
0.00787909
0.00787909
0.00787534
0.00787154
0.00787134
0.00787515
0.0078857
0.00789664
0.00789845
0.00789445
0.00789805
0.0245728
0.0248319
0.024991
0.0251524
0.0253796
0.0256983
0.0260967
0.0265291
0.0269303
0.0272373
0.0274029
0.0273913
0.027162
0.0266515
0.0258078
0.0246772
0.0232465
0.0215307
0.0195468
0.0173748
0.0150426
0.0127009
0.0105172
0.00844296
0.00649018
0.00473529
0.00319848
0.00200707
0.00123834
0.0008104
0.000618421
0.000520362
0.0004289
0.00022955
0.0111913
0.0128971
0.0164422
0.0202144
0.0226434
0.0238093
0.0243856
0.0102415
0.00955082
0.00905373
0.00869819
0.00844367
0.00826287
0.00813551
0.00804625
0.0079837
0.00793741
0.00790824
0.00789353
0.00787938
0.0078699
0.00786968
0.00787067
0.00787511
0.0078776
0.00787907
0.00787909
0.00787537
0.00787156
0.00787126
0.00787489
0.00788534
0.00789655
0.00789859
0.00789452
0.00789791
0.0245508
0.0245976
0.0246461
0.0247693
0.0250058
0.025361
0.0258034
0.0262724
0.0266985
0.0270247
0.0272133
0.0272359
0.0270551
0.0266083
0.0258359
0.0247748
0.0234029
0.0217002
0.0197137
0.0175564
0.0152172
0.0128549
0.0106492
0.0085554
0.00658172
0.00480896
0.0032543
0.00204289
0.00125705
0.000818567
0.000621094
0.000521115
0.000429973
0.000230889
0.0109623
0.0125033
0.0158343
0.0197529
0.0223684
0.0236811
0.0240827
0.0242529
0.01008
0.00943123
0.00896797
0.00863658
0.00840032
0.00823341
0.00811604
0.00803348
0.00797539
0.00793165
0.00790553
0.00789245
0.0078769
0.00787017
0.00786951
0.00787082
0.0078752
0.00787758
0.00787907
0.00787909
0.00787541
0.00787162
0.00787115
0.00787462
0.00788495
0.00789644
0.00789875
0.00789461
0.00789776
0.0242112
0.0241442
0.0241519
0.0242843
0.024563
0.0249744
0.0254691
0.025976
0.0264269
0.0267745
0.0269904
0.0270507
0.0269198
0.0265354
0.0258324
0.02484
0.0235111
0.0218367
0.019889
0.0177499
0.0154059
0.013023
0.0107944
0.00867939
0.00668341
0.00489041
0.00331623
0.00208291
0.00127793
0.000827957
0.000623655
0.000522506
0.000431133
0.000232173
0.0107414
0.0121358
0.0152109
0.019234
0.0220389
0.0234787
0.0239703
0.0238804
0.0238126
0.00992186
0.00931494
0.00888495
0.00857759
0.00836005
0.00820658
0.0080983
0.00802182
0.0079677
0.00792648
0.00790308
0.00789147
0.00787466
0.00787041
0.00786938
0.00787085
0.00787524
0.00787758
0.00787909
0.0078791
0.00787556
0.00787173
0.00787103
0.00787434
0.00788454
0.00789631
0.00789892
0.00789472
0.00789761
0.0236583
0.0235453
0.0235579
0.0237335
0.0240768
0.024555
0.0251032
0.0256453
0.0261209
0.0264936
0.026742
0.0268439
0.0267636
0.0264402
0.0258045
0.0248732
0.0235956
0.0219769
0.0200723
0.0179554
0.0156094
0.0132065
0.0109541
0.00881626
0.00679654
0.00498073
0.00338511
0.00212778
0.00130137
0.00083841
0.000627159
0.000523491
0.00043266
0.000234237
0.0105293
0.0117928
0.0145807
0.0186603
0.021669
0.0232397
0.0237943
0.0237535
0.0233695
0.0231732
0.00976724
0.00920253
0.00880547
0.00852281
0.00832341
0.00818216
0.00808211
0.00801113
0.00796059
0.00792187
0.00790084
0.00789054
0.00787272
0.00787077
0.00786934
0.00787086
0.00787524
0.0078776
0.00787912
0.00787916
0.00787582
0.00787186
0.00787092
0.00787405
0.00788411
0.00789616
0.0078991
0.00789484
0.00789744
0.0229611
0.0228457
0.022898
0.0231417
0.0235627
0.0241109
0.0247076
0.0252822
0.0257841
0.0261876
0.0264747
0.0266216
0.0265926
0.0263288
0.025763
0.0248961
0.0236792
0.0221198
0.0202628
0.0181725
0.0158281
0.0134065
0.0111298
0.00896757
0.00692262
0.00508122
0.00346198
0.0021782
0.00132778
0.000850545
0.000630521
0.000525752
0.000434295
0.00023566
0.0103261
0.0114656
0.0139548
0.0180267