/*--------------------------------*- C++ -*----------------------------------*\
  =========                 |
  \\      /  F ield         | OpenFOAM: The Open Source CFD Toolbox
   \\    /   O peration     | Website:  https://openfoam.org
    \\  /    A nd           | Version:  8
     \\/     M anipulation  |
\*---------------------------------------------------------------------------*/
FoamFile
{
    version     2.0;
    format      ascii;
    class       volScalarField;
    location    "0.06";
    object      epsilon;
}
// * * * * * * * * * * * * * * * * * * * * * * * * * * * * * * * * * * * * * //

dimensions      [0 2 -3 0 0 0 0];

internalField   nonuniform List<scalar> 
15677
(
84.1802
22.3114
71.3425
8.98506
34.7803
73.2683
4.86703
16.3017
59.2467
81.2592
3.2416
8.88985
26.9015
82.9868
91.3309
2.5008
5.54613
13.522
39.9215
103.925
99.4765
2.14323
3.85792
7.84479
19.194
53.0018
120.551
106.265
1.97888
2.93434
5.12857
10.3967
25.3372
65.2627
132.52
111.916
1.91083
2.40346
3.68456
6.40428
13.1399
31.7122
75.8954
140.646
116.186
1.88291
2.10279
2.86206
4.38729
7.71537
16.0687
37.9841
84.6587
145.793
119.589
1.86863
1.94925
2.37786
3.27421
5.0761
9.10868
19.0962
43.9504
91.4049
149.174
121.966
1.86406
1.88293
2.09344
2.62462
3.66515
5.79969
10.5498
22.1956
49.2085
96.6296
151.201
124.055
1.86442
1.85376
1.93631
2.23689
2.85563
4.07233
6.5389
12.0444
25.1317
53.811
100.445
152.592
125.615
1.86509
1.84296
1.862
2.00917
2.3721
3.09672
4.48507
7.29604
13.4871
27.903
57.5784
103.438
153.366
127.163
1.86524
1.84129
1.82941
1.88342
2.08164
2.51615
3.34169
4.90087
8.01899
14.8787
30.3259
60.8107
105.611
153.921
128.384
1.86518
1.84167
1.81829
1.82295
1.91347
2.16324
2.66514
3.58503
5.2901
8.70653
16.1169
32.5324
63.4376
107.331
154.121
129.726
1.8651
1.84199
1.81608
1.79687
1.8247
1.95192
2.2517
2.81223
3.80891
5.65033
9.31139
17.2636
34.449
65.6866
108.523
154.304
130.663
1.86502
1.84213
1.81595
1.78874
1.78082
1.8325
1.9992
2.33987
2.94593
4.01044
5.96172
9.86141
18.2887
36.1878
67.4592
109.46
154.314
131.773
1.86496
1.84219
1.81609
1.78651
1.76487
1.77262
1.8506
2.04852
2.41957
3.0635
4.18231
6.23702
10.3533
19.2437
37.6667
68.9312
110.001
154.372
132.512
1.8649
1.84222
1.81619
1.78592
1.75968
1.74867
1.77279
1.8734
2.09321
2.48844
3.16304
4.33111
6.48074
10.8111
20.0927
38.9621
69.9859
110.405
154.367
133.488
1.86485
1.84223
1.81624
1.78575
1.75806
1.74002
1.73886
1.77536
1.89413
2.13133
2.54659
3.2484
4.4618
6.705
11.2217
20.8625
39.9896
70.8021
110.558
154.424
134.096
1.86482
1.84225
1.81627
1.78568
1.75755
1.73707
1.72558
1.73159
1.77934
1.91147
2.16353
2.59649
3.32349
4.58115
6.905
11.5973
21.5076
40.8142
71.3066
110.583
154.474
134.98
1.86479
1.84226
1.81628
1.78563
1.75733
1.73612
1.72058
1.71306
1.72508
1.78206
1.9261
2.19139
2.641
3.39235
4.68748
7.08635
11.9204
22.0363
41.4223
71.6243
110.517
154.613
135.567
1.86476
1.84227
1.8163
1.78559
1.75718
1.7358
1.71881
1.70552
1.70099
1.7186
1.7842
1.93897
2.21702
2.68264
3.4544
4.78312
7.24316
12.1857
22.4531
41.816
71.6994
110.386
154.753
136.422
1.86474
1.84228
1.81631
1.78557
1.75706
1.73565
1.71819
1.70264
1.69053
1.68918
1.71262
1.78632
1.95172
2.24207
2.72116
3.51038
4.86574
7.37053
12.3996
22.7297
42.0716
71.648
110.137
155.051
136.996
1.86472
1.84229
1.81633
1.78556
1.75697
1.73554
1.71792
1.70159
1.68618
1.67575
1.67819
1.70777
1.78983
1.96552
2.26631
2.75659
3.559
4.93262
7.47273
12.5427
22.9256
42.1043
71.4929
109.941
155.296
137.866
1.8647
1.84229
1.81634
1.78555
1.7569
1.73544
1.71777
1.7012
1.68441
1.66989
1.66176
1.66945
1.70576
1.79549
1.98002
2.2895
2.78813
3.59924
4.98602
7.54166
12.6453
22.9876
42.0542
71.2362
109.629
155.773
138.424
1.86468
1.8423
1.81636
1.78555
1.75684
1.73536
1.71765
1.70102
1.68364
1.6674
1.65421
1.65075
1.66335
1.70623
1.80281
1.99502
2.31116
2.8155
3.63182
5.02374
7.5896
12.6825
22.968
41.9264
70.8661
109.418
156.12
139.322
1.86466
1.8423
1.81638
1.78555
1.7568
1.73529
1.71756
1.7009
1.68325
1.66632
1.65082
1.64187
1.64212
1.66023
1.70839
1.81178
2.01013
2.33127
2.839
3.65714
5.0499
7.60987
12.6741
22.9052
41.6795
70.4784
109.095
156.786
139.884
1.86464
1.8423
1.8164
1.78555
1.75677
1.73522
1.71748
1.70081
1.68301
1.66579
1.64927
1.6377
1.63186
1.63697
1.66053
1.7132
1.82218
2.02555
2.35018
2.85967
3.67681
5.0657
7.60773
12.6454
22.7766
41.3723
70.0201
108.92
157.218
140.76
1.86461
1.84229
1.81642
1.78555
1.75675
1.73517
1.71741
1.70073
1.68284
1.66547
1.64848
1.63569
1.62703
1.62551
1.6351
1.66258
1.72054
1.83425
2.04165
2.36888
2.87851
3.69291
5.0727
7.59804
12.5861
22.5979
41.0125
69.5724
108.625
158.15
141.549
1.86459
1.84229
1.81644
1.78555
1.75672
1.73511
1.71735
1.70067
1.68271
1.66524
1.64802
1.63461
1.62471
1.61987
1.62209
1.63622
1.66731
1.73042
1.84843
2.05942
2.38835
2.89741
3.70676
5.07552
7.577
12.5028
22.3871
40.625
69.0867
108.491
158.411
142.307
1.86457
1.84228
1.81647
1.78556
1.7567
1.73506
1.7173
1.70062
1.68261
1.66507
1.6477
1.63397
1.6235
1.61704
1.6157
1.62279
1.63971
1.67576
1.74342
1.86572
2.07984
2.41027
2.91763
3.72113
5.07673
7.54788
12.4054
22.1565
40.2115
68.6157
108.243
159.021
143.06
1.86455
1.84227
1.81649
1.78557
1.75668
1.73501
1.71725
1.70057
1.68253
1.66493
1.64746
1.63352
1.62276
1.61552
1.61254
1.61609
1.62566
1.6468
1.68803
1.76055
1.8871
2.10442
2.43572
2.94122
3.73743
5.07875
7.51609
12.3007
21.9136
39.7915
68.0864
108.007
159.909
143.84
1.86454
1.84227
1.81652
1.78558
1.75666
1.73495
1.71721
1.70054
1.68248
1.66481
1.64727
1.63318
1.62224
1.61462
1.61086
1.61267
1.61856
1.63193
1.65863
1.70517
1.78285
1.914
2.13415
2.46646
2.96919
3.758
5.0828
7.48439
12.1939
21.6661
39.3148
67.5362
107.817
160.96
144.624
1.84226
1.86455
1.81655
1.7856
1.75664
1.7349
1.71717
1.7005
1.68244
1.66472
1.64712
1.6329
1.62183
1.61401
1.60985
1.6108
1.61493
1.62452
1.64351
1.67592
1.72833
1.81173
1.94745
2.17072
2.50334
3.00331
3.78362
5.09051
7.4559
12.087
21.39
38.8076
67.0108
107.698
162.088
145.426
1.81659
1.84233
1.8646
1.78562
1.75663
1.73485
1.71712
1.70047
1.68241
1.66464
1.647
1.63267
1.62148
1.61355
1.60914
1.60969
1.613
1.62084
1.63599
1.66117
1.69993
1.75885
1.84832
1.98906
2.21481
2.54789
3.04405
3.81571
5.10379
7.43063
11.974
21.098
38.323
66.5191
107.654
163.28
146.199
1.78565
1.8168
1.84247
1.86464
1.75662
1.7348
1.71708
1.70045
1.68239
1.66457
1.64691
1.63247
1.62119
1.61317
1.60858
1.60894
1.61189
1.61895
1.63239
1.65414
1.68608
1.73215
1.79812
1.89407
2.03958
2.26789
2.6005
3.0928
3.85452
5.12293
7.41054
11.8582
20.8239
37.862
66.0702
107.673
164.466
146.982
1.75661
1.78594
1.81719
1.8426
1.86468
1.73475
1.71704
1.70042
1.68239
1.66451
1.64683
1.6323
1.62094
1.61286
1.60811
1.60838
1.61117
1.61792
1.63066
1.65105
1.68001
1.72
1.77407
1.84783
1.9502
2.1007
2.33016
2.66228
3.14931
3.9008
5.15213
7.3959
11.7586
20.5701
37.4353
65.6655
107.727
165.682
147.714
1.7347
1.75687
1.78649
1.81759
1.84273
1.86472
1.717
1.7004
1.68239
1.66446
1.64678
1.63215
1.62072
1.61259
1.60771
1.60793
1.61063
1.61729
1.62984
1.64994
1.67803
1.71579
1.76465
1.82771
1.90937
2.01852
2.1727
2.40312
2.73286
3.21458
3.96083
5.19423
7.39752
11.6733
20.3408
37.0386
65.3045
107.835
166.85
148.453
1.71696
1.73489
1.75742
1.78707
1.818
1.84285
1.86476
1.70038
1.6824
1.66443
1.64674
1.63202
1.62053
1.61236
1.60736
1.60755
1.6102
1.61683
1.62941
1.64967
1.67783
1.71535
1.76291
1.82228
1.89494
1.98494
2.09979
2.25743
2.4865
2.81291
3.29595
4.03799
5.24736
7.40561
11.6029
20.1324
36.6774
64.9857
107.969
168.04
149.128
1.70035
1.71718
1.73535
1.75797
1.78766
1.81843
1.84297
1.8648
1.68242
1.6644
1.64672
1.63191
1.62036
1.61215
1.60705
1.60723
1.60984
1.61649
1.62916
1.64975
1.67853
1.71686
1.76495
1.82398
1.89405
1.97742
2.07599
2.19638
2.35473
2.58175
2.91247
3.39786
4.12546
5.30959
7.42303
11.5453
19.9487
36.3493
64.7064
108.149
169.155
149.812
1.68243
1.70065
1.71768
1.7358
1.75855
1.78828
1.81886
1.84309
1.86484
1.66438
1.64671
1.63182
1.62022
1.61197
1.60678
1.60695
1.60955
1.61622
1.62901
1.64999
1.67954
1.71927
1.76911
1.82992
1.901
1.98312
2.07599
2.18335
2.30874
2.4669
2.70024
3.03699
3.51135
4.22179
5.37952
7.45126
11.5031
19.7846
36.0515
64.4617
108.33
170.29
150.424
1.66437
1.68284
1.70129
1.71817
1.73627
1.75916
1.78892
1.81931
1.8432
1.86488
1.64672
1.63174
1.62011
1.61181
1.60654
1.60672
1.60929
1.616
1.62893
1.65028
1.68064
1.72188
1.77414
1.83818
1.91249
1.99746
2.09097
2.19412
2.30723
2.43719
2.60779
2.84987
3.17559
3.63467
4.32561
5.45595
7.48752
11.4706
19.6424
35.7883
64.2447
108.548
171.328
151.05
1.64672
1.66481
1.68371
1.70193
1.71867
1.73674
1.75978
1.78959
1.81976
1.84332
1.86493
1.63168
1.62001
1.61166
1.60634
1.60651
1.60908
1.61583
1.62889
1.6506
1.68174
1.72447
1.77925
1.84738
1.92661
2.0169
2.11526
2.22137
2.33229
2.45092
2.59723
2.7852
3.01737
3.32656
3.76668
4.43535
5.5378
7.52975
11.451
19.5182
35.5548
64.0596
108.756
172.394
151.599
1.63164
1.64719
1.66574
1.68457
1.70257
1.71917
1.73724
1.76044
1.79028
1.82022
1.84343
1.86498
1.61993
1.61153
1.60617
1.60634
1.6089
1.61568
1.62888
1.65094
1.68282
1.72695
1.78419
1.85649
1.94179
2.03965
2.14557
2.25924
2.37531
2.49419
2.63263
2.79989
2.98153
3.20165
3.48951
3.90625
4.55015
5.62356
7.5774
11.4375
19.4114
35.3492
63.8972
108.995
173.342
152.165
1.61988
1.63199
1.64819
1.6667
1.68546
1.70322
1.71967
1.73775
1.76112
1.791
1.82069
1.84354
1.86503
1.61141
1.60604
1.60618
1.60874
1.61556
1.6289
1.65127
1.68387
1.7293
1.78891
1.86524
1.95671
2.06389
2.1803
2.30474
2.43093
2.55784
2.70084
2.86619
3.0286
3.19532
3.39778
3.66272
4.05185
4.66804
5.71206
7.62868
11.435
19.3203
35.1677
63.7611
109.215
174.33
152.655
1.61133
1.62014
1.63281
1.64922
1.66769
1.68637
1.70388
1.72019
1.73828
1.76183
1.79174
1.82117
1.84365
1.86509
1.60594
1.60604
1.6086
1.61546
1.62892
1.6516
1.68486
1.73151
1.79338
1.87353
1.97105
2.08786
2.21721
2.35658
2.49671
2.63736
2.79347
2.9702
3.13291
3.28226
3.42612
3.60327
3.84314
4.20143
4.78832
5.8022
7.6829
11.4374
19.2424
35.0083
63.6432
109.461
175.184
153.164
1.60591
1.61143
1.62078
1.63369
1.65029
1.66872
1.6873
1.70454
1.72071
1.73883
1.76258
1.79251
1.82164
1.84375
1.86515
1.60591
1.60847
1.61538
1.62896
1.65192
1.68579
1.73358
1.79758
1.88132
1.98473
2.11104
2.25381
2.41217
2.57194
2.73118
2.90725
3.10567
3.2826
3.43289
3.55963
3.67237
3.81663
4.02949
4.35491
4.90989
5.89307
7.7391
11.4435
19.1764
34.8682
63.5456
109.684
176.093
153.599
1.60584
1.60592
1.61179
1.62148
1.63463
1.6514
1.66978
1.68824
1.70521
1.72125
1.73941
1.76336
1.79329
1.8221
1.84385
1.86521
1.60836
1.6153
1.629
1.65223
1.68666
1.7355
1.8015
1.8886
1.9977
2.13323
2.2894
2.46812
2.65349
2.8395
3.04213
3.27185
3.47465
3.64016
3.76604
3.85938
3.93195
4.03576
4.21667
4.50999
5.0316
5.98379
7.79628
11.455
19.1208
34.7455
63.4623
109.927
176.85
154.052
1.60834
1.60556
1.60605
1.61221
1.62223
1.63562
1.65256
1.67089
1.68919
1.70588
1.7218
1.74002
1.76417
1.79407
1.82254
1.84394
1.86527
1.61524
1.62904
1.65252
1.68748
1.73727
1.80513
1.89538
2.00995
2.1543
2.32377
2.52346
2.73642
2.95863
3.20026
3.47199
3.71276
3.90645
4.0455
4.13257
4.18002
4.20267
4.25989
4.4036
4.6649
5.1524
6.07367
7.85387
11.4702
19.0743
34.638
63.3943
110.145
177.683
154.437
1.61533
1.60794
1.60506
1.60628
1.61268
1.62303
1.63668
1.65375
1.67203
1.69016
1.70657
1.72236
1.74065
1.76498
1.79482
1.82295
1.84402
1.86533
1.62911
1.65279
1.68823
1.73891
1.80848
1.90165
2.02143
2.17415
2.35682
2.57763
2.81894
3.08197
3.37827
3.71292
4.00671
4.24389
4.40994
4.5029
4.53309
4.52023
4.48254
4.48703
4.5892
4.81823
5.27133
6.16199
7.91127
11.488
19.0357
34.5439
63.3372
110.378
178.346
154.838
1.62935
1.61468
1.60712
1.60465
1.60657
1.6132
1.62387
1.63781
1.65498
1.67322
1.69113
1.70726
1.72294
1.7413
1.76579
1.79555
1.82335
1.8441
1.86539
1.65306
1.6889
1.74041
1.81156
1.90744
2.03212
2.19276
2.38842
2.6301
2.90022
3.20774
3.56766
3.9928
4.373
4.6761
4.88796
4.99918
5.01868
4.96896
4.87897
4.76978
4.71546
4.77249
4.96898
5.38782
6.24844
7.96804
11.5079
19.0038
34.4616
63.2914
110.588
179.108
155.178
1.65354
1.62829
1.61322
1.60641
1.60432
1.60691
1.61379
1.62477
1.639
1.65625
1.67443
1.6921
1.70795
1.72351
1.74195
1.76658
1.79626
1.82372
1.84418
1.86546
1.68953
1.74176
1.81436
1.91276
2.04202
2.2101
2.41845
2.68039
2.9798
3.33523
3.7651
4.29936
4.81734
5.24283
5.53196
5.67992
5.69304
5.60059
5.44185
5.25531
5.06281
4.94372
4.95254
5.11598
5.50184
6.33265
8.02379
11.5293
18.9778
34.3895
63.2539
110.807
179.693
155.477
1.69039
1.65192
1.6257
1.61189
1.60579
1.60403
1.60728
1.61444
1.62572
1.64026
1.65757
1.67568
1.69308
1.70863
1.72408
1.7426
1.76736
1.79694
1.82407
1.84426
1.86552
1.74301
1.81689
1.91763
2.05115
2.2262
2.4468
2.7282
3.05742
3.46333
3.96766
4.62848
5.33032
5.97454
6.4277
6.64633
6.66066
6.51069
6.25546
5.95279
5.64818
5.36015
5.17056
5.12877
5.25763
5.61261
6.41431
8.07824
11.5517
18.9567
34.3264
63.2244
111.004
180.276
155.717
1.74448
1.68802
1.64772
1.62327
1.61069
1.60523
1.60381
1.60769
1.61517
1.62674
1.64159
1.65893
1.67695
1.69402
1.70928
1.72463
1.74324
1.76813
1.79759
1.82441
1.84434
1.86559
1.81922
1.92204
2.05952
2.2411
2.47341
2.77337
3.13282
3.59047
4.1725
4.9796
5.91535
6.87106
7.64549
8.05047
8.08866
7.86349
7.46503
6.98647
6.50118
6.05599
5.66033
5.39489
5.30089
5.39386
5.71962
6.49314
8.13116
11.5748
18.9398
34.271
63.2009
111.176
180.703
156.007
1.82171
1.74114
1.68151
1.6437
1.62105
1.60957
1.60473
1.60365
1.60815
1.61597
1.62783
1.64298
1.66032
1.67819
1.69491
1.70991
1.72518
1.74388
1.76888
1.79821
1.82473
1.84443
1.86566
1.92614
2.06715
2.25487
2.49825
2.81585
3.20569
3.71502
4.37789
5.35343
6.57629
7.93651
9.17999
10.0033
10.207
9.90255
9.30341
8.55823
7.79144
7.08418
6.47644
5.96181
5.61581
5.46828
5.5246
5.82252
6.56897
8.18234
11.5981
18.9264
34.2225
63.1852
111.311
181.191
156.295
1.93022
1.81716
1.73131
1.67519
1.63999
1.61895
1.60853
1.60431
1.60358
1.60863
1.61684
1.629
1.64441
1.66171
1.67938
1.69576
1.71051
1.72573
1.74452
1.76961
1.79881
1.82503
1.84452
1.86569
2.07424
2.26755
2.52136
2.85571
3.27572
3.83567
4.58332
5.75021
7.31067
9.16398
11.0181
12.4758
13.1701
12.9492
12.1001
10.9755
9.78147
8.66292
7.69681
6.90659
6.26303
5.83251
5.6305
5.64981
5.92111
6.64163
8.23168
11.6216
18.9159
34.1852
63.1722
111.472
181.686
156.643
2.08094
1.92418
1.80264
1.72171
1.66934
1.63644
1.61697
1.60756
1.60395
1.60361
1.60916
1.6178
1.63025
1.64584
1.66306
1.68052
1.69657
1.7111
1.72627
1.74516
1.77032
1.79938
1.82532
1.84455
1.86569
2.2794
2.54282
2.89307
3.34264
3.95163
4.78904
6.16846
8.10978
10.5336
13.1321
15.4347
16.9266
17.2249
16.2948
14.6692
12.8601
11.1177
9.58946
8.33246
7.34301
6.56235
6.04427
5.78718
5.76947
6.01524
6.71108
8.27906
11.6448
18.9089
34.1552
63.1602
111.637
182.26
156.977
2.29022
2.07318
1.90296
1.78842
1.71279
1.66372
1.63301
1.61512
1.60665
1.60363
1.60383
1.60973
1.61882
1.63154
1.64725
1.66438
1.68161
1.69734
1.71168
1.72681
1.74579
1.771
1.79992
1.82547
1.84453
1.86568
2.56295
2.92813
3.40629
4.06263
4.99559
6.60506
8.96118
12.0191
15.4804
18.8323
21.4317
22.6726
22.2187
20.2385
17.5824
14.9284
12.5455
10.5576
8.98372
7.78202
6.85818
6.25044
5.93806
5.88359
6.10493
6.77727
8.32442
11.6646
18.904
34.124
63.1488
111.839
182.807
157.392
2.58074
2.28028
2.04247
1.88227
1.77519
1.70422
1.65831
1.6297
1.61336
1.6058
1.60322
1.60418
1.61037
1.61987
1.63284
1.64862
1.66566
1.68265
1.69808
1.71224
1.72734
1.74641
1.77167
1.80021
1.82549
1.84452
1.86568
2.96133
3.46676
4.16894
5.20342
7.0557
9.85128
13.5924
18.0153
22.6009
26.6166
29.2451
29.8324
28.1786
24.7572
20.8027
17.1477
14.0416
11.5533
9.64301
8.21996
7.14898
6.45043
6.08292
5.99227
6.19018
6.84022
8.36204
11.6819
18.8993
34.0922
63.1411
112.041
183.461
157.774
2.99014
2.56825
2.23588
2.01268
1.86298
1.76244
1.69594
1.65309
1.62654
1.61171
1.60501
1.60284
1.60462
1.61107
1.62095
1.63415
1.64996
1.6669
1.68365
1.6988
1.71279
1.72788
1.74704
1.77203
1.80025
1.82549
1.84452
1.86569
3.52445
4.27141
5.4129
7.51539
10.7667
15.2267
20.6888
26.6625
32.3753
36.8453
39.0937
38.4941
35.1037
29.8114
24.2864
19.4841
15.5838
12.5632
10.3031
8.65338
7.43331
6.64373
6.22169
6.09559
6.27107
6.8921
8.39415
11.7014
18.896
34.0599
63.1364
112.294
184.06
158.265
3.57382
2.97409
2.50405
2.19319
1.98487
1.84436
1.7501
1.68795
1.64808
1.62354
1.61019
1.60429
1.60253
1.60513
1.61182
1.62203
1.63545
1.65127
1.6681
1.68459
1.69948
1.71333
1.72843
1.74735
1.77206
1.80027
1.82549
1.84453
1.86569
4.37097
5.62441
7.97926
11.6947
16.8971
23.4547
30.9362
38.5791
45.306
49.8649
51.1575
48.7024
42.9612
35.3453
27.9851
21.9037
17.1508
13.5752
10.9577
9.07916
7.7099
6.82998
6.35433
6.19368
6.3376
6.93623
8.42957
11.7233
18.893
34.0277
63.1379
112.539
184.815
158.696
4.45682
3.55418
2.87988
2.44299
2.15332
1.95801
1.8263
1.73816
1.68026
1.64331
1.62073
1.60878
1.60365
1.60231
1.60567
1.61261
1.62312
1.63674
1.65254
1.66926
1.6855
1.70015
1.71388
1.72868
1.74733
1.77207
1.80027
1.82549
1.84455
1.86566
5.83585
8.44295
12.6245
18.5808
26.2705
35.3437
45.0918
54.4164
61.8863
65.9778
65.5569
60.4482
51.6843
41.2897
31.8481
24.3746
18.7241
14.579
11.6013
9.49465
7.97777
7.00893
6.48086
6.27445
6.39413
6.98468
8.46868
11.7481
18.8929
33.9961
63.1435
112.856
185.47
159.276
4.43106
6.0206
3.41221
2.79188
2.38588
2.1148
1.93193
1.80881
1.72664
1.6729
1.63878
1.6181
1.60749
1.60313
1.6022
1.60624
1.61345
1.62424
1.63801
1.65379
1.67038
1.68637
1.70079
1.71413
1.72864
1.74733
1.77207
1.80025
1.82548
1.84452
1.86559
8.90267
13.5472
20.2586
29.0972
39.8127
51.7814
63.9497
74.8189
82.5624
85.4129
82.3342
73.6629
61.175
47.5645
35.8236
26.867
20.2874
15.5657
12.2292
9.89782
8.23616
7.18042
6.58547
6.34311
6.45611
7.03793
8.51189
11.7761
18.8939
33.9656
63.1582
113.151
186.361
159.759
4.20178
6.00109
9.30638
3.28335
2.70961
2.33071
2.07739
1.90664
1.7919
1.71558
1.66586
1.63449
1.61566
1.60636
1.60273
1.6022
1.60684
1.61433
1.62536
1.63926
1.65501
1.67145
1.6872
1.7011
1.71408
1.72862
1.74733
1.77206
1.80021
1.82532
1.84443
1.86552
14.4535
21.9148
31.9023
44.2786
58.5281
73.6884
88.2949
100.383
107.7
108.3
101.442
88.2194
71.3082
54.0825
39.8612
29.3539
21.8267
16.5284
12.8382
10.2871
8.48455
7.32274
6.67466
6.41845
6.52413
7.09644
8.55971
11.8079
18.8969
33.9373
63.1766
113.545
187.085
160.443
4.00096
5.60342
9.314
15.2555
3.16358
2.63017
2.27716
2.0411
1.88219
1.77563
1.70498
1.65917
1.63046
1.61348
1.6054
1.60243
1.60232
1.60745
1.61524
1.6265
1.6405
1.65619
1.67245
1.68761
1.70108
1.71407
1.72862
1.74733
1.77203
1.79992
1.82502
1.84434
1.86545
23.5336
34.6601
48.6889
65.2291
83.4406
101.966
118.862
131.626
137.555
134.651
122.738
103.938
81.9394
60.7548
43.9134
31.8116
23.3304
17.4615
13.4256
10.6614
8.6911
7.44438
6.77281
6.50123
6.59888
7.161
8.61274
11.844
18.9034
33.9116
63.216
113.9
188.167
160.985
3.81769
5.25785
8.59285
15.3393
24.9771
3.04832
2.55317
2.22525
2.00601
1.85862
1.76001
1.69487
1.65288
1.6268
1.61159
1.60459
1.6022
1.60262
1.60808
1.61617
1.62765
1.64169
1.65729
1.67297
1.68762
1.70107
1.71407
1.72864
1.74735
1.77167
1.79937
1.82472
1.84426
1.86539
37.3452
53.0043
71.8041
93.0485
115.533
137.456
156.312
168.957
172.248
164.347
145.99
120.593
92.9131
67.4943
47.9366
34.2194
24.7894
18.361
13.9895
10.9724
8.86786
7.57858
6.88097
6.59228
6.68088
7.23241
8.6717
11.8851
18.914
33.891
63.2572
114.389
188.978
161.793
3.64408
4.94386
7.95425
14.1263
25.2364
39.7474
2.9369
2.47865
2.17511
1.9722
1.83599
1.74509
1.68533
1.64712
1.6235
1.60997
1.6039
1.60194
1.60304
1.60873
1.61713
1.62878
1.64278
1.65787
1.67301
1.68762
1.70107
1.71408
1.72868
1.74704
1.77099
1.79879
1.8244
1.84418
1.86533
57.1863
78.1976
102.397
128.763
155.71
180.929
201.214
212.658
211.744
197.132
170.884
137.933
104.072
74.2187
51.8916
36.5603
26.1963
19.2234
14.4572
11.2385
9.0631
7.72681
7.00031
6.69265
6.77076
7.31149
8.73741
11.9321
18.9292
33.875
63.3289
114.821
190.336
162.414
3.47862
4.64902
7.36881
13.0109
23.3613
40.325
60.9245
2.82935
2.40681
2.12683
1.93976
1.81437
1.73101
1.67661
1.64197
1.62055
1.60857
1.60333
1.60174
1.60353
1.60943
1.61809
1.6298
1.64335
1.65794
1.67302
1.68762
1.70108
1.71413
1.72843
1.7464
1.7703
1.79819
1.82406
1.8441
1.86526
84.3561
111.413
141.498
173.289
204.8
233.092
254.041
262.852
255.83
232.616
197.041
155.691
115.263
80.8525
55.7453
38.8199
27.5448
19.9374
14.857
11.5324
9.27898
7.89075
7.13214
6.80351
6.86948
7.39916
8.81081
11.9858
18.9507
33.8687
63.4041
115.429
191.254
163.371
3.32104
4.37101
6.81699
11.9603
21.6079
37.586
61.9967
89.8328
2.72584
2.33781
2.08056
1.90877
1.79394
1.71811
1.66879
1.63736
1.61795
1.60738
1.60286
1.60162
1.60409
1.61013
1.6189
1.63035
1.64344
1.65794
1.67302
1.68762
1.7011
1.71388
1.72787
1.74577
1.76958
1.79757
1.82371
1.84402
1.8652
120.03
153.655
189.984
227.444
263.589
294.605
315.149
319.475
304.103
270.289
224.042
173.597
126.343
87.3298
59.4689
40.9856
28.6603
20.5479
15.2985
11.8573
9.51791
8.07224
7.278
6.92615
6.97815
7.49647
8.89301
12.0475
18.9792
33.8725
63.5227
115.964
192.995
164.29
3.17121
4.11019
6.29463
10.9542
19.9247
35.006
58.1557
91.5836
127.62
2.62663
2.27185
2.03642
1.87951
1.77524
1.70655
1.66179
1.63325
1.61568
1.60636
1.60248
1.6016
1.60466
1.61065
1.61934
1.63047
1.64343
1.65794
1.67301
1.68761
1.70079
1.71332
1.72733
1.74514
1.76885
1.79691
1.82333
1.84394
1.86515
165.158
205.716
248.598
292.017
332.877
366.092
384.74
382.234
355.969
309.55
251.448
191.397
137.185
93.593
63.0368
42.7755
29.6142
21.2222
15.7863
12.2167
9.78256
8.27341
7.43963
7.06205
7.09804
7.60465
8.98529
12.1186
19.0173
33.8852
63.6493
116.715
194.259
165.763
3.02868
3.86765
5.80336
9.98786
18.2835
32.5002
54.5439
86.3518
130.196
175.135
2.53204
2.2091
1.99481
1.85274
1.75845
1.69618
1.65553
1.6296
1.6137
1.6055
1.60223
1.60163
1.60499
1.61095
1.61948
1.63047
1.64343
1.65794
1.67297
1.68719
1.70014
1.71278
1.72679
1.7445
1.7681
1.79623
1.82294
1.84385
1.86509
220.412
268.202
318.038
367.855
413.528
448.117
462.815
450.584
410.661
349.735
278.826
208.858
147.677
99.591
65.982
44.3067
30.6689
21.9676
16.3258
12.6144
10.0759
8.49665
7.61903
7.21291
7.23065
7.72512
9.08917
12.2007
19.0658
33.9139
63.834
117.523
196.608
166.783
2.89317
3.64589
5.34543
9.06617
16.6746
30.0297
51.0181
81.4816
123.207
178.589
232.87
2.44237
2.15012
1.9568
1.82874
1.74341
1.6869
1.64994
1.62637
1.61197
1.6048
1.60204
1.60139
1.60525
1.61112
1.61945
1.63047
1.64344
1.65787
1.67244
1.68636
1.69947
1.71222
1.72625
1.74386
1.76734
1.79553
1.82253
1.84375
1.86503
286.217
341.65
399.092
455.971
506.492
541.177
549.126
523.711
467.262
390.154
305.775
225.772
157.717
104.534
68.501
46.0008
31.8358
22.7922
16.9226
13.055
10.4014
8.74467
7.81845
7.38068
7.37771
7.85956
9.20642
12.2958
19.1285
33.963
64.0692
118.792
198.79
168.577
2.76487
3.44204
4.92113
8.19913
15.1002
27.5759
47.5241
76.7329
116.818
169.352
237.078
300.98
2.35846
2.09638
1.9228
1.80725
1.72994
1.67859
1.64496
1.6235
1.61048
1.60419
1.60153
1.60133
1.60552
1.61108
1.61945
1.63047
1.64335
1.65728
1.67143
1.68548
1.69877
1.71166
1.7257
1.74322
1.76656
1.7948
1.82209
1.84365
1.86498
362.878
426.685
492.815
557.641
612.928
645.677
643.1
600.517
524.755
430.146
331.931
241.955
165.976
108.757
71.2881
47.8761
33.1275
23.7048
17.5832
13.5431
10.7627
9.02053
8.04049
7.56761
7.5413
8.01
9.33923
12.4065
19.2069
34.0482
64.4703
119.941
201.98
169.753
2.64487
3.2539
4.53268
7.38887
13.5683
25.137
44.0285
72.0319
110.636
161.12
224.919
305.564
379.418
2.28238
2.04842
1.8924
1.788
1.71787
1.67116
1.6405
1.62097
1.60917
1.60323
1.60136
1.60162
1.60549
1.61108
1.61948
1.63035
1.64277
1.65617
1.67035
1.68456
1.69806
1.71108
1.72516
1.74258
1.76577
1.79406
1.82164
1.84354
1.86493
450.793
524.313
600.674
674.782
734.314
761.8
743.738
679.652
582.107
469.098
356.97
255.244
173.022
113.426
74.3723
49.9523
34.5573
24.7147
18.3145
14.0841
11.164
9.32762
8.28807
7.77631
7.72385
8.17879
9.4901
12.5355
19.3255
34.1989
64.9061
121.522
204.76
172.055
2.53617
3.08108
4.18079
6.63933
12.0962
22.7215
40.5184
67.3221
104.562
153.268
214.414
289.54
383.66
468.18
2.21485
2.00565
1.86522
1.77077
1.70706
1.6645
1.63654
1.61868
1.60755
1.60286
1.60171
1.60158
1.60549
1.61112
1.61934
1.62979
1.64167
1.65498
1.66922
1.68361
1.69731
1.71049
1.72461
1.74193
1.76497
1.79329
1.82116
1.84343
1.86488
550.752
635.803
725.164
810.27
872.287
889.256
849.54
759.615
638.319
506.459
377.513
266.565
180.8
118.586
77.7841
52.2498
36.1398
25.8325
19.1243
14.6839
11.61
9.66974
8.5645
8.00979
7.92825
8.36882
9.66243
12.7154
19.4992
34.404
65.47
122.956
208.84
173.492
2.43994
2.92569
3.86775
5.95632
10.7017
20.3456
36.9951
62.5716
98.5082
145.669
204.601
276.177
362.437
470.967
567.656
2.15491
1.96751
1.84093
1.75534
1.69737
1.65855
1.63297
1.61606
1.60686
1.60328
1.60167
1.60158
1.60552
1.61095
1.61889
1.62877
1.64046
1.65375
1.66806
1.68261
1.69654
1.70989
1.72406
1.74129
1.76416
1.7925
1.82068
1.84332
1.86484
663.437
763.934
870.592
967.769
1028.25
1026.97
958.594
838.86
692.472
537.121
394.98
279.028
189.374
124.283
81.5547
54.7905
37.8904
27.0696
20.021
15.349
12.1057
10.0511
8.87357
8.2715
8.15795
8.58381
9.89634
12.9585
19.7184
34.6612
66.0752
124.997
212.108
176.449
2.35498
2.7876
3.60124
5.34815
9.40334
18.0303
33.4689
57.7644
92.413
138.188
195.317
264.014
345.419
442.592
567.502
679.101
2.10167
1.93351
1.81922
1.74152
1.6887
1.6532
1.62919
1.61486
1.60733
1.60325
1.60167
1.60163
1.60525
1.61064
1.61808
1.62762
1.63922
1.6525
1.66685
1.68157
1.69573
1.70926
1.7235
1.74065
1.76335
1.79173
1.82021
1.8432
1.8648
791.824
914.591
1042.96
1151.6
1202.75
1173.15
1068.77
915.894
737.027
563.154
414.155
292.723
198.81
130.562
85.7152
57.5968
39.8255
28.4379
21.0138
16.0866
12.6568
10.4766
9.21954
8.56558
8.41711
8.87227
10.2039
13.2422
19.98
34.989
66.8496
126.834
217.141
178.28
2.28007
2.66464
3.37843
4.82668
8.23085
15.7994
29.9581
52.8941
86.2319
130.726
186.362
252.847
330.384
420.871
528.981
674.445
804.8
2.05438
1.90321
1.7998
1.72915
1.68091
1.64785
1.62737
1.61537
1.60732
1.60325
1.60171
1.60133
1.60499
1.61012
1.61711
1.62647
1.63797
1.65122
1.66561
1.68049
1.69489
1.70861
1.72293
1.74001
1.76256
1.79098
1.81975
1.84308
1.86476
941.725
1095.86
1250.94
1365.78
1395.68
1325.76
1177.82
979.678
774.833
591.646
435.144
307.732
209.167
137.464
90.2967
60.6915
41.9622
29.9506
22.1129
16.9046
13.2697
10.9515
9.6074
8.89664
8.76453
9.24809
10.5519
13.5693
20.3037
35.3802
67.7035
129.456
220.825
182.103
2.21402
2.55545
3.18837
4.39164
7.21068
13.6925
26.4889
47.9634
79.9274
123.196
177.587
242.379
317.067
402.277
501.229
621.003
792.94
951.602
2.01234
1.87617
1.78242
1.71807
1.67342
1.64518
1.62786
1.6154
1.60733
1.60328
1.60136
1.60139
1.60466
1.60941
1.61614
1.62532
1.63669
1.64991
1.66434
1.67935
1.694
1.70794
1.72236
1.7394
1.76181
1.79026
1.81929
1.84296
1.86472
1122.24
1320.37
1503.94
1615.42
1608.41
1482.43
1269.3
1033.88
816.113
622.701
458.026
324.113
220.489
145.026
95.3273
64.0966
44.3177
31.6212
23.3288
17.8115
13.9513
11.4819
10.0426
9.33919
9.21342
9.66165
10.9447
13.9518
20.6859
35.8696
68.7586
131.834
227.016
184.453
2.15572
2.45891
3.02361
4.03111
6.35058
11.797
23.1199
42.9869
73.4691
115.516
168.853
232.401
305.026
386.453
478.208
585.53
718.658
925.838
1127.97
1.97495
1.85204
1.76688
1.70775
1.66959
1.64562
1.62792
1.6154
1.60734
1.60286
1.60152
1.60163
1.60407
1.60871
1.6152
1.6242
1.6354
1.64857
1.66302
1.67817
1.69307
1.70725
1.72179
1.73882
1.7611
1.78957
1.81884
1.84284
1.86468
1349.83
1607.35
1820.25
1915.59
1843.56
1616.8
1347.35
1092.98
860.918
656.359
482.832
341.895
232.808
153.276
100.831
67.8325
46.9089
33.4636
24.6732
18.8171
14.7099
12.0747
10.6222
9.90702
9.70844
10.1175
11.3892
14.3932
21.1532
36.4445
69.9595
135.154
231.101
189.464
2.10417
2.37395
2.87858
3.73406
5.63494
10.1553
19.981
38.0288
66.8377
107.601
160.02
222.706
293.973
372.728
459.441
557.014
673.64
823.169
1084.47
1351.14
1.94168
1.83056
1.75274
1.7024
1.66989
1.64573
1.62792
1.61538
1.60686
1.60323
1.60205
1.6016
1.60351
1.60805
1.61429
1.62308
1.63411
1.64721
1.66168
1.67694
1.6921
1.70656
1.72124
1.73826
1.76041
1.7889
1.81841
1.84272
1.86464
1653.24
2004.46
2252.82
2297.87
2050.57
1731.91
1432.38
1156.87
909.173
692.565
509.531
361.07
246.127
162.227
106.825
71.9164
49.7518
35.492
26.1584
19.9321
15.5543
12.8611
11.3612
10.527
10.2547
10.6236
11.8904
14.9082
21.7027
37.1646
71.3835
138.305
238.816
192.53
2.05849
2.29939
2.74981
3.49186
5.04494
8.76225
17.1566
33.267
60.0778
99.3725
150.933
213.089
283.618
360.714
443.859
534.816
638.372
766.97
940.092
1292.27
1657.09
1.91216
1.8114
1.74526
1.70252
1.67008
1.64573
1.62786
1.61485
1.60755
1.60421
1.60224
1.60163
1.60302
1.60743
1.61342
1.62199
1.63281
1.64582
1.66031
1.67567
1.69111
1.70587
1.7207
1.73773
1.75976
1.78826
1.81799
1.8426
1.8646
2157.63
2651.15
2940.98
2636.06
2226.45
1856.44
1523.67
1225.15
960.62
731.147
538.015
381.574
260.419
171.874
113.317
76.3604
52.8603
37.7206
27.7981
21.1683
16.6702
13.8579
12.163
11.2051
10.8577
11.1872
12.4576
15.5009
22.3682
38.0115
73.0842
142.448
243.724
1105.38
2.01816
2.23394
2.63545
3.28961
4.5608
7.59548
14.6531
28.84
53.3997
90.8204
141.431
203.318
273.682
350.003
430.954
517.153
612.241
723.593
870.189
1082.94
1606.44
2223.26
1.88617
1.80121
1.74506
1.70281
1.67008
1.64562
1.62736
1.61607
1.6092
1.60482
1.6025
1.60174
1.60261
1.60682
1.61259
1.62092
1.63152
1.6444
1.65892
1.67441
1.69013
1.70519
1.72017
1.73722
1.75913
1.78764
1.81758
1.84247
1.86455
3091.18
3973.09
3498.56
2908.1
2411.22
1987.68
1619.9
1297.07
1014.78
771.787
568.07
403.277
275.612
182.187
120.298
81.1698
56.2459
40.1635
29.6059
22.7952
18.0768
14.934
13.0349
11.9481
11.5235
11.8161
13.0968
16.1874
23.1487
39.0729
75.0253
146.786
285.269
2106.13
1.9831
2.17673
2.53421
3.11697
4.16711
6.62813
12.477
24.7845
46.9911
82.1466
131.41
193.137
263.861
340.248
420.159
503.38
592.245
693.022
817.381
995.351
1286.98
2215.87
3481.7
1.87217
1.80063
1.74549
1.70281
1.6699
1.64518
1.6292
1.61873
1.61053
1.60553
1.60287
1.60195
1.60232
1.60622
1.6118
1.61986
1.63024
1.64297
1.65755
1.67318
1.68916
1.70451
1.71965
1.73673
1.75853
1.78705
1.81718
1.84233
1.86454
5451.23
4770.2
3868.77
3170.75
2597.66
2122.14
1719.2
1371.54
1070.94
813.996
599.368
425.967