/*--------------------------------*- C++ -*----------------------------------*\
  =========                 |
  \\      /  F ield         | OpenFOAM: The Open Source CFD Toolbox
   \\    /   O peration     | Website:  https://openfoam.org
    \\  /    A nd           | Version:  8
     \\/     M anipulation  |
\*---------------------------------------------------------------------------*/
FoamFile
{
    version     2.0;
    format      ascii;
    class       volScalarField;
    location    "0.06";
    object      k;
}
// * * * * * * * * * * * * * * * * * * * * * * * * * * * * * * * * * * * * * //

dimensions      [0 2 -2 0 0 0 0];

internalField   nonuniform List<scalar> 
15677
(
0.308467
0.358018
0.261239
0.365956
0.377648
0.267992
0.368642
0.372057
0.447451
0.297188
0.370311
0.367778
0.396864
0.528288
0.334127
0.371366
0.366528
0.373989
0.444932
0.584877
0.364076
0.372021
0.367001
0.366582
0.391635
0.4875
0.624227
0.388928
0.3724
0.367899
0.364361
0.370176
0.412461
0.522966
0.652835
0.409546
0.372583
0.368775
0.364376
0.363115
0.376742
0.43146
0.553952
0.674705
0.42506
0.372639
0.369484
0.365104
0.361167
0.362849
0.382972
0.450651
0.581866
0.690507
0.437473
0.372627
0.369985
0.365975
0.361168
0.358218
0.362909
0.389975
0.471202
0.605137
0.702753
0.446169
0.37259
0.37029
0.366751
0.361857
0.357257
0.355685
0.363366
0.399066
0.491059
0.624791
0.711135
0.453854
0.372557
0.37044
0.367345
0.362713
0.357696
0.353818
0.35349
0.364897
0.409475
0.509806
0.639774
0.718207
0.459616
0.372536
0.370488
0.367735
0.363493
0.358605
0.354067
0.350786
0.352079
0.368061
0.420525
0.525453
0.65261
0.723413
0.465295
0.372526
0.370489
0.367946
0.364091
0.359567
0.355084
0.35092
0.348335
0.351533
0.371949
0.430386
0.539597
0.662748
0.728334
0.469749
0.37252
0.370479
0.368033
0.364474
0.360386
0.356274
0.352086
0.348211
0.346317
0.351395
0.37541
0.439856
0.551565
0.671931
0.731772
0.474635
0.372516
0.37047
0.368054
0.364669
0.360975
0.357352
0.353517
0.349422
0.345708
0.344472
0.351103
0.378851
0.448444
0.562684
0.679034
0.735699
0.478018
0.372511
0.370462
0.368059
0.364731
0.361325
0.358183
0.354853
0.351017
0.346837
0.343232
0.342501
0.35074
0.382254
0.456872
0.571968
0.685815
0.738111
0.482035
0.372506
0.370455
0.368062
0.364742
0.361468
0.358723
0.355928
0.352557
0.34851
0.344194
0.340664
0.340506
0.350685
0.385861
0.464423
0.580634
0.690504
0.741304
0.484712
0.372502
0.370449
0.368066
0.364738
0.36151
0.358977
0.356673
0.353837
0.350192
0.345898
0.341495
0.338117
0.338778
0.350797
0.389331
0.471757
0.587259
0.695195
0.743109
0.488262
0.372499
0.370443
0.368071
0.364732
0.361513
0.359071
0.357063
0.354766
0.351634
0.347695
0.343255
0.33886
0.335822
0.337331
0.351078
0.392989
0.47783
0.593315
0.698032
0.745944
0.490477
0.372496
0.370437
0.368076
0.364727
0.361504
0.359091
0.357235
0.355284
0.352724
0.349289
0.345186
0.340719
0.336484
0.333848
0.336123
0.351671
0.396267
0.483409
0.597528
0.701206
0.747491
0.493707
0.372494
0.370433
0.36808
0.364723
0.361492
0.359082
0.357298
0.355532
0.353369
0.350536
0.346937
0.34282
0.338464
0.33445
0.332168
0.335257
0.352423
0.399383
0.487609
0.601267
0.702826
0.750054
0.495867
0.372493
0.37043
0.368083
0.364721
0.361481
0.359063
0.35731
0.355634
0.353705
0.351308
0.348339
0.344764
0.340764
0.336571
0.332742
0.330835
0.334672
0.353216
0.401818
0.491216
0.603618
0.704632
0.751763
0.499006
0.372491
0.370427
0.368086
0.36472
0.361471
0.359043
0.357301
0.355661
0.353865
0.351728
0.349231
0.346361
0.342927
0.339081
0.335025
0.331387
0.329817
0.334235
0.353887
0.403931
0.493688
0.605386
0.705624
0.754355
0.501112
0.37249
0.370424
0.368088
0.36472
0.361463
0.359025
0.357284
0.355654
0.353926
0.351935
0.349734
0.347418
0.344726
0.341463
0.337764
0.33385
0.330358
0.329024
0.33399
0.354514
0.405414
0.495354
0.606381
0.706742
0.756244
0.5043
0.372489
0.370422
0.36809
0.364722
0.361456
0.35901
0.357266
0.355635
0.353939
0.352018
0.349998
0.348041
0.345923
0.343468
0.340403
0.336852
0.333025
0.329619
0.328525
0.333833
0.354971
0.406304
0.496502
0.606861
0.707256
0.75907
0.506339
0.372487
0.37042
0.368092
0.364724
0.361451
0.358998
0.357249
0.355613
0.353928
0.352035
0.350116
0.348382
0.346632
0.344854
0.342659
0.339743
0.336277
0.332502
0.329181
0.328255
0.33387
0.355264
0.406992
0.49682
0.606801
0.708006
0.761101
0.509621
0.372486
0.370418
0.368094
0.364726
0.361446
0.358989
0.357234
0.355593
0.353908
0.35202
0.350151
0.34854
0.347031
0.345709
0.344193
0.342254
0.339537
0.336194
0.332498
0.32922
0.328342
0.334014
0.355573
0.407141
0.496708
0.606578
0.708341
0.764378
0.511667
0.372485
0.370415
0.368096
0.364729
0.361443
0.358981
0.357222
0.355577
0.353886
0.351992
0.350142
0.348589
0.347232
0.346196
0.345169
0.344098
0.342373
0.339741
0.33645
0.332773
0.329504
0.32865
0.334336
0.355833
0.407082
0.496384
0.606073
0.708997
0.76639
0.514859
0.372483
0.370413
0.368097
0.364732
0.36144
0.358975
0.357211
0.355564
0.353866
0.351963
0.350113
0.348579
0.347311
0.346435
0.345788
0.345245
0.34435
0.342828
0.340339
0.337136
0.333481
0.33018
0.329295
0.334942
0.356114
0.406933
0.495734
0.605431
0.709274
0.770422
0.517729
0.372482
0.37041
0.368099
0.364735
0.361437
0.358969
0.357201
0.355553
0.353848
0.351937
0.350076
0.348541
0.347319
0.346521
0.346135
0.345926
0.345632
0.345035
0.343797
0.341537
0.338463
0.334831
0.331451
0.330423
0.335838
0.356541
0.406644
0.494887
0.604574
0.709921
0.771818
0.520483
0.37248
0.370407
0.3681
0.364739
0.361434
0.358964
0.357193
0.355545
0.353834
0.351916
0.35004
0.348494
0.347288
0.346522
0.346296
0.34631
0.34642
0.346499
0.346375
0.345517
0.343475
0.3405
0.336827
0.333302
0.331989
0.337089
0.357103
0.406353
0.49391
0.603717
0.710231
0.774755
0.523213
0.37248
0.370404
0.368102
0.364742
0.361432
0.358959
0.357185
0.355539
0.353821
0.351899
0.350009
0.348448
0.347239
0.346479
0.346341
0.346496
0.346874
0.347456
0.34812
0.348493
0.348026
0.346215
0.343305
0.339548
0.335756
0.334063
0.338707
0.357892
0.406113
0.492858
0.602679
0.710577
0.77835
0.526044
0.372479
0.370401
0.368104
0.364747
0.36143
0.358954
0.357177
0.355533
0.353811
0.351886
0.349983
0.348408
0.347189
0.346416
0.346321
0.346557
0.347107
0.348032
0.34928
0.350544
0.351488
0.351461
0.349863
0.346982
0.343032
0.338891
0.33663
0.340724
0.358902
0.405907
0.491655
0.601599
0.71104
0.7823
0.528885
0.370399
0.372482
0.368106
0.364751
0.361428
0.358949
0.357169
0.355528
0.353803
0.351876
0.349961
0.348373
0.347143
0.346352
0.346268
0.346546
0.347199
0.34835
0.350011
0.351952
0.353925
0.355518
0.355947
0.35454
0.351592
0.347366
0.342693
0.339761
0.343182
0.360217
0.405945
0.490457
0.600569
0.711627
0.786463
0.531795
0.368109
0.370402
0.37249
0.364757
0.361427
0.358944
0.357162
0.355524
0.353796
0.351867
0.349943
0.348344
0.347102
0.346292
0.346206
0.346498
0.347209
0.348499
0.350445
0.352884
0.355649
0.358439
0.360736
0.361629
0.36033
0.357231
0.352547
0.347234
0.343404
0.34599
0.362038
0.406162
0.489346
0.599561
0.712441
0.790675
0.534603
0.364763
0.368129
0.37041
0.372497
0.361427
0.358939
0.357155
0.35552
0.35379
0.351861
0.349929
0.348319
0.347066
0.346239
0.346146
0.346438
0.347173
0.348547
0.350685
0.353481
0.356847
0.360573
0.364267
0.367311
0.368618
0.367343
0.363911
0.358648
0.352466
0.347636
0.34949
0.364518
0.406641
0.488342
0.59876
0.713361
0.79487
0.537444
0.361427
0.364797
0.368166
0.370418
0.372504
0.358935
0.357148
0.355517
0.353785
0.351856
0.349917
0.348297
0.347035
0.346192
0.346091
0.346379
0.347122
0.34854
0.350807
0.353858
0.357673
0.362126
0.366931
0.371603
0.375382
0.377042
0.375611
0.371711
0.36562
0.358431
0.352934
0.353914
0.367438
0.407466
0.487574
0.598009
0.714433
0.79902
0.5401
0.35893
0.361458
0.364863
0.368204
0.370424
0.372511
0.357141
0.355513
0.353781
0.351853
0.349908
0.348279
0.347009
0.346152
0.346043
0.346325
0.347069
0.348508
0.350858
0.354098
0.358253
0.363271
0.368959
0.374947
0.380614
0.385104
0.386953
0.385222
0.380581
0.373509
0.365815
0.359588
0.358836
0.370722
0.408581
0.486892
0.5975
0.715575
0.803051
0.542784
0.357134
0.358952
0.361523
0.364931
0.368242
0.37043
0.372518
0.355511
0.353779
0.35185
0.349902
0.348263
0.346986
0.346116
0.346
0.346277
0.347019
0.34847
0.350876
0.354252
0.35868
0.364148
0.370547
0.377604
0.38482
0.391487
0.396549
0.398458
0.396129
0.390579
0.383221
0.374984
0.366938
0.364193
0.374369
0.409939
0.486508
0.597043
0.716793
0.807014
0.545233
0.355507
0.357152
0.359004
0.36159
0.365002
0.368281
0.370435
0.372526
0.353777
0.351849
0.349897
0.348251
0.346965
0.346085
0.345963
0.346234
0.346975
0.348434
0.350881
0.35436
0.359005
0.36486
0.371851
0.379799
0.388303
0.396778
0.404321
0.409858
0.411516
0.408399
0.402854
0.395215
0.385035
0.374879
0.369916
0.378262
0.411513
0.486162
0.596803
0.718058
0.81079
0.54772
0.353775
0.355534
0.357198
0.359055
0.361659
0.365075
0.368321
0.37044
0.372533
0.351849
0.349894
0.34824
0.346948
0.346058
0.34593
0.346197
0.346937
0.348402
0.350883
0.354445
0.359267
0.365456
0.372987
0.381706
0.391317
0.401336
0.410974
0.41931
0.424999
0.426219
0.42345
0.417967
0.408299
0.395827
0.383299
0.37595
0.382442
0.413328
0.486138
0.596611
0.719337
0.814501
0.549941
0.351849
0.353812
0.355595
0.357243
0.359108
0.361732
0.36515
0.368361
0.370444
0.372542
0.349893
0.348232
0.346932
0.346036
0.345902
0.346165
0.346904
0.348374
0.350886
0.35452
0.359492
0.365965
0.373995
0.383457
0.394059
0.405441
0.416903
0.427652
0.43646
0.442124
0.444276
0.441972
0.434416
0.422293
0.407212
0.3921
0.382194
0.386696
0.41536
0.48621
0.596613
0.720658
0.817974
0.552215
0.349892
0.351897
0.353894
0.355654
0.357288
0.359163
0.361808
0.365228
0.368401
0.370449
0.37255
0.348226
0.346919
0.346018
0.345876
0.346137
0.346875
0.348351
0.350891
0.35459
0.359695
0.366418
0.37489
0.385075
0.396678
0.409324
0.42244
0.435327
0.446854
0.455983
0.463263
0.466575
0.462138
0.451975
0.437007
0.419052
0.401174
0.388641
0.390974
0.417548
0.486392
0.596665
0.721949
0.821404
0.554209
0.348221
0.349943
0.352
0.353976
0.355713
0.357333
0.35922
0.361887
0.365308
0.368442
0.370453
0.372559
0.346908
0.346003
0.345854
0.346112
0.346849
0.348331
0.350897
0.354655
0.359882
0.366833
0.375705
0.386551
0.399177
0.413162
0.427853
0.44273
0.456705
0.468884
0.48023
0.489576
0.490976
0.483687
0.470412
0.452258
0.431205
0.410423
0.395215
0.395268
0.419836
0.486739
0.59679
0.723267
0.82455
0.556268
0.346899
0.348261
0.350052
0.352105
0.354059
0.355773
0.35738
0.359279
0.36197
0.36539
0.368484
0.370457
0.372569
0.345992
0.345833
0.346089
0.346827
0.348315
0.350905
0.354718
0.360056
0.367216
0.376457
0.387914
0.401507
0.416924
0.433351
0.450187
0.466492
0.481469
0.496459
0.510671
0.518589
0.517224
0.506376
0.489507
0.467866
0.443536
0.419754
0.401846
0.399553
0.422194
0.487185
0.596981
0.724531
0.827693
0.558047
0.345987
0.346924
0.348354
0.350165
0.352212
0.354144
0.355833
0.357427
0.359341
0.362056
0.365475
0.368525
0.370462
0.372578
0.345815
0.346069
0.346807
0.348302
0.350914
0.354778
0.360218
0.367572
0.377155
0.389184
0.403692
0.420494
0.438857
0.457965
0.476624
0.49433
0.51276
0.531471
0.544567
0.550044
0.545039
0.529972
0.509057
0.483661
0.455917
0.429081
0.408471
0.403806
0.424589
0.487751
0.59721
0.725808
0.830506
0.559898
0.345801
0.345996
0.346989
0.348454
0.350284
0.352323
0.35423
0.355894
0.357477
0.359407
0.362147
0.365561
0.368567
0.370466
0.372587
0.346051
0.34679
0.348291
0.350924
0.354834
0.360369
0.367902
0.377803
0.390368
0.405745
0.423877
0.44417
0.465938
0.48744
0.50799
0.529898
0.553047
0.570957
0.581724
0.583674
0.574141
0.554225
0.528849
0.499486
0.468237
0.43833
0.415037
0.408008
0.426996
0.488413
0.597472
0.727015
0.833371
0.561478
0.346042
0.34577
0.346029
0.347062
0.34856
0.350407
0.352436
0.354318
0.355955
0.357528
0.359476
0.362242
0.365649
0.368607
0.37047
0.372597
0.346775
0.348281
0.350935
0.354887
0.360508
0.368206
0.378403
0.391472
0.407673
0.427083
0.449277
0.473779
0.498729
0.522902
0.548602
0.576476
0.599212
0.614877
0.621957
0.619227
0.604256
0.578901
0.548715
0.515208
0.480401
0.447434
0.421498
0.412137
0.429395
0.489144
0.597766
0.728225
0.835853
0.563128
0.346774
0.345995
0.345725
0.346074
0.347141
0.348672
0.350536
0.352551
0.354406
0.356016
0.357581
0.359548
0.36234
0.365736
0.368644
0.370474
0.372606
0.348275
0.350945
0.354937
0.360636
0.368485
0.378956
0.392496
0.409477
0.430113
0.454177
0.48141
0.509962
0.538821
0.569585
0.602862
0.630903
0.651562
0.663296
0.665152
0.656476
0.635128
0.603777
0.568498
0.530714
0.492329
0.456341
0.42782
0.416176
0.431769
0.489927
0.598082
0.72936
0.83846
0.564526
0.348286
0.346696
0.345912
0.345689
0.346127
0.347225
0.34879
0.350669
0.352669
0.354496
0.356077
0.357636
0.359624
0.362438
0.365819
0.36868
0.370478
0.372615
0.350957
0.354981
0.360754
0.368741
0.379463
0.393442
0.411157
0.432965
0.458855
0.488788
0.521019
0.555066
0.59259
0.633353
0.667814
0.694286
0.710831
0.716544
0.711311
0.695251
0.666546
0.628667
0.588061
0.545913
0.503959
0.465006
0.433972
0.420109
0.434105
0.490743
0.598422
0.730487
0.840623
0.565985
0.350989
0.348157
0.346541
0.34584
0.34566
0.346187
0.347317
0.348915
0.350808
0.35279
0.354587
0.35614
0.357694
0.359702
0.362535
0.365899
0.368713
0.370482
0.372624
0.355024
0.360859
0.368974
0.379928
0.394312
0.412714
0.435636
0.463293
0.495871
0.531868
0.571474
0.616509
0.667702
0.712188
0.746466
0.768973
0.778434
0.775222
0.760538
0.73544
0.698338
0.653419
0.607294
0.560731
0.515241
0.473397
0.439931
0.423925
0.436389
0.491581
0.598772
0.731544
0.843
0.567221
0.35509
0.350794
0.347879
0.346399
0.345776
0.345637
0.346254
0.347417
0.349047
0.350951
0.352912
0.354678
0.356202
0.357753
0.359779
0.36263
0.365975
0.368745
0.370486
0.372633
0.360957
0.369184
0.380352
0.39511
0.41415
0.438124
0.467475
0.502634
0.542471
0.587897
0.640855
0.70454
0.765036
0.813268
0.844418
0.858443
0.856099
0.839979
0.812947
0.776944
0.730361
0.67791
0.626108
0.575112
0.526138
0.481488
0.44568
0.427615
0.438613
0.492426
0.599139
0.732576
0.844896
0.568306
0.361079
0.354809
0.350344
0.347618
0.34627
0.345719
0.345623
0.346327
0.347525
0.349186
0.351098
0.353037
0.354769
0.356263
0.357811
0.359857
0.362723
0.366048
0.368775
0.370491
0.372641
0.369377
0.380733
0.395838
0.41547
0.44043
0.471393
0.509056
0.552766
0.60412
0.665372
0.743935
0.825987
0.898636
0.946875
0.967687
0.965632
0.944994
0.911126
0.868503
0.819628
0.762481
0.702039
0.644434
0.589017
0.536627
0.489262
0.451208
0.431171
0.440769
0.493275
0.599503
0.733552
0.846709
0.569181
0.369591
0.360683
0.354118
0.349911
0.347379
0.346148
0.34567
0.34562
0.346407
0.347643
0.349332
0.351249
0.353162
0.354857
0.356322
0.35787
0.359934
0.362814
0.366118
0.368804
0.370496
0.37265
0.381085
0.396499
0.416681
0.44256
0.475048
0.515123
0.562679
0.619946
0.690026
0.786438
0.895742
1.00162
1.08174
1.11951
1.11872
1.09107
1.04494
0.988328
0.926909
0.863278
0.794559
0.72572
0.662218
0.602418
0.54669
0.496709
0.456506
0.434588
0.442849
0.494111
0.599879
0.734346
0.848094
0.570236
0.381445
0.369047
0.359651
0.353447
0.349502
0.347153
0.346034
0.345626
0.345633
0.346492
0.34777
0.349485
0.351403
0.353285
0.35494
0.356379
0.357929
0.36001
0.362903
0.366184
0.368831
0.370502
0.372659
0.397107
0.417784
0.444522
0.478444
0.520828
0.572145
0.63526
0.714941
0.832272
0.973749
1.11955
1.242
1.31623
1.32937
1.29484
1.23241
1.15427
1.07056
0.987587
0.907587
0.826444
0.748879
0.679422
0.615297
0.55632
0.503822
0.461569
0.437861
0.444852
0.494938
0.600194
0.735016
0.849603
0.571282
0.397699
0.380717
0.367534
0.358639
0.352816
0.349106
0.346939
0.345928
0.345578
0.345664
0.346584
0.347906
0.349644
0.351553
0.353402
0.35502
0.356435
0.357988
0.360086
0.362988
0.366247
0.368857
0.370509
0.372663
0.418802
0.446325
0.481593
0.526169
0.581124
0.650025
0.740215
0.880994
1.05776
1.24736
1.4184
1.54124
1.59366
1.56858
1.48989
1.38535
1.2703
1.15628
1.04974
0.95218
0.857976
0.771449
0.696018
0.627642
0.565512
0.5106
0.466397
0.440989
0.446771
0.495635
0.600471
0.735752
0.851217
0.57255
0.419755
0.396748
0.378535
0.366044
0.357686
0.352205
0.348725
0.346736
0.34583
0.34553
0.345713
0.346682
0.348051
0.349804
0.351699
0.353515
0.355095
0.35649
0.358047
0.360161
0.363071
0.366307
0.368882
0.370511
0.372664
0.447996
0.484506
0.531152
0.589605
0.664251
0.765821
0.931622
1.14479
1.37931
1.60177
1.77993
1.88628
1.90241
1.82774
1.69687
1.54508
1.39
1.24378
1.11249
0.996642
0.888986
0.793367
0.711985
0.639447
0.574267
0.517047
0.47099
0.443973
0.448367
0.496242
0.600772
0.736578
0.852974
0.573764
0.449513
0.418544
0.393641
0.376383
0.364638
0.356765
0.351615
0.34836
0.346547
0.345739
0.345487
0.345776
0.346787
0.3482
0.349961
0.351839
0.353622
0.355167
0.356545
0.358106
0.360236
0.36315
0.366365
0.368895
0.370508
0.372664
0.487219
0.535797
0.597599
0.677962
0.791595
0.982988
1.23209
1.51061
1.78456
2.02105
2.18954
2.26464
2.23205
2.09846
1.90948
1.70721
1.51052
1.33138
1.17495
1.04056
0.919312
0.81458
0.727305
0.65071
0.582591
0.523166
0.475352
0.446438
0.44973
0.496917
0.601128
0.737488
0.85477
0.575274
0.489626
0.447987
0.414164
0.390582
0.374349
0.363278
0.355873
0.351045
0.348012
0.34637
0.345655
0.345452
0.345852
0.346899
0.34835
0.350114
0.351973
0.353725
0.355236
0.356598
0.358166
0.360309
0.363228
0.366395
0.368895
0.370506
0.372664
0.540147
0.605142
0.691183
0.817301
1.03401
1.31755
1.63794
1.96164
2.25651
2.49114
2.63565
2.66649
2.57428
2.37405
2.12268
1.86817
1.62953
1.41765
1.23633
1.08355
0.948804
0.835038
0.741971
0.661437
0.590493
0.528965
0.478941
0.44854
0.451237
0.497682
0.601523
0.738499
0.856745
0.576663
0.543944
0.487725
0.441854
0.409866
0.387685
0.372378
0.361958
0.35501
0.350497
0.347683
0.346204
0.34558
0.345428
0.345937
0.347013
0.348499
0.350264
0.352102
0.353823
0.355302
0.356652
0.358225
0.360383
0.363269
0.366399
0.368896
0.370506
0.372664
0.612292
0.703956
0.842703
1.08383
1.39975
1.7593
2.12991
2.48107
2.78227
3.00179
3.10947
3.0841
2.92253
2.64934
2.33265
2.02528
1.74521
1.50145
1.29598
1.1253
0.977329
0.8547
0.755979
0.671637
0.597983
0.533731
0.481992
0.450852
0.4529
0.498549
0.602002
0.739612
0.858724
0.578452
0.618508
0.54158
0.479156
0.435867
0.405788
0.384874
0.370461
0.360678
0.354176
0.349971
0.347371
0.34605
0.345515
0.345418
0.346027
0.347131
0.348647
0.35041
0.352227
0.353917
0.355366
0.356705
0.358286
0.360419
0.363273
0.366401
0.368896
0.370508
0.372663
0.716312
0.867626
1.13185
1.47784
1.87362
2.28776
2.69176
3.05715
3.3528
3.54522
3.60385
3.51099
3.27144
2.92027
2.53658
2.17663
1.8563
1.58196
1.3534
1.16553
1.00478
0.87354
0.769333
0.681322
0.604141
0.537778
0.485339
0.453401
0.454727
0.499545
0.602532
0.740839
0.860975
0.58002
0.727125
0.615602
0.529527
0.470852
0.430179
0.401827
0.382136
0.368599
0.35944
0.353374
0.349468
0.347078
0.34591
0.345465
0.345421
0.346121
0.347251
0.348793
0.350552
0.352346
0.354007
0.355428
0.356759
0.358315
0.360418
0.363276
0.366401
0.368895
0.370511
0.372659
0.891887
1.17772
1.55141
1.98043
2.43454
2.88718
3.31245
3.68157
3.96102
4.11472
4.11232
3.9414
3.61645
3.18373
2.73246
2.32093
1.96193
1.65861
1.40824
1.20406
1.03108
0.891543
0.782044
0.689298
0.609372
0.542213
0.489014
0.456218
0.456741
0.50067
0.603183
0.742198
0.86317
0.582131
0.723673
0.913105
0.598046
0.518029
0.462945
0.424646
0.397963
0.379472
0.366794
0.358245
0.352604
0.348989
0.346809
0.345787
0.345426
0.345443
0.346217
0.347375
0.348937
0.350689
0.352461
0.354093
0.355489
0.356783
0.35831
0.360418
0.363276
0.366399
0.368895
0.370509
0.37265
1.22116
1.62035
2.07971
2.57021
3.06699
3.5467
3.98387
4.34756
4.60051
4.70384
4.62865
4.36999
3.95371
3.43728
2.91887
2.45739
2.06162
1.73106
1.46027
1.24076
1.05619
0.90871
0.792534
0.696081
0.615105
0.547077
0.493054
0.459336
0.458961
0.501969
0.603898
0.743681
0.865805
0.583888
0.696481
0.910231
1.25836
0.581762
0.507076
0.455245
0.419245
0.394199
0.376886
0.365051
0.357097
0.351868
0.348534
0.346572
0.345683
0.345389
0.345483
0.346314
0.347502
0.349079
0.350822
0.352572
0.354175
0.355517
0.356778
0.358309
0.360418
0.363274
0.366395
0.368882
0.370502
0.372641
1.68461
2.17173
2.69513
3.23148
3.75973
4.25784
4.69905
5.04875
5.26489
5.30603
5.14667
4.79183
4.2799
3.67907
3.0949
2.58555
2.15512
1.79915
1.50939
1.27558
1.08008
0.92289
0.801465
0.703523
0.621396
0.552418
0.497502
0.462792
0.461423
0.503433
0.604786
0.745341
0.86827
0.586378
0.671691
0.866874
1.2566
1.73911
0.566434
0.496393
0.447726
0.413979
0.390542
0.374384
0.363371
0.355996
0.35117
0.348114
0.346366
0.345597
0.345356
0.345538
0.346412
0.34763
0.349219
0.35095
0.352675
0.354215
0.355513
0.356776
0.358309
0.360418
0.363269
0.366364
0.368856
0.370496
0.372632
2.25672
2.80996
3.38146
3.95224
4.50344
5.01294
5.45139
5.77885
5.94754
5.91445
5.66028
5.2024
4.5923
3.90777
3.26004
2.70524
2.24235
1.86284
1.55556
1.30848
1.09977
0.934968
0.811277
0.711699
0.628307
0.558291
0.502405
0.466628
0.464152
0.505133
0.605759
0.747136
0.871463
0.588349
0.648768
0.826305
1.19285
1.73937
2.32855
0.551584
0.485944
0.440393
0.408858
0.387
0.371971
0.36176
0.354953
0.350528
0.347739
0.34619
0.345525
0.345331
0.345604
0.346512
0.347759
0.349354
0.351068
0.352728
0.354216
0.355512
0.356776
0.35831
0.360419
0.363227
0.366306
0.36883
0.37049
0.372624
2.91523
3.51807
4.12559
4.72189
5.28926
5.8047
6.23447
6.53138
6.6414
6.52207
6.16355
5.59764
4.88871
4.12249
3.41402
2.81646
2.32342
1.9222
1.5988
1.33539
1.11649
0.948237
0.822068
0.720692
0.63591
0.564757
0.50782
0.470895
0.467197
0.507047
0.606979
0.749179
0.874272
0.591293
0.62701
0.788284
1.13044
1.65755
2.332
3.00357
0.537106
0.475746
0.433265
0.403894
0.383581
0.369654
0.360231
0.353992
0.34995
0.347407
0.346039
0.345465
0.345316
0.345679
0.346614
0.347887
0.349478
0.351129
0.352732
0.354215
0.355512
0.356778
0.358315
0.360382
0.363149
0.366246
0.368803
0.370486
0.372614
3.64222
4.28161
4.91535
5.52994
6.10875
6.62633
7.04215
7.29962
7.33901
7.12168
6.65087
5.97413
5.16755
4.3227
3.55681
2.91937
2.39847
1.97732
1.63385
1.35815
1.13483
0.962825
0.833946
0.730595
0.644287
0.571889
0.513812
0.47565
0.470592
0.509283
0.608311
0.751377
0.878295
0.59355
0.606184
0.752279
1.06937
1.57556
2.2345
3.01048
3.74503
0.522996
0.465828
0.426357
0.399102
0.380297
0.367453
0.358824
0.353127
0.349431
0.347116
0.34591
0.345417
0.345312
0.345761
0.346716
0.348001
0.349544
0.351136
0.352732
0.354215
0.355513
0.356783
0.358286
0.360308
0.363069
0.366182
0.368774
0.370481
0.372605
4.42176
5.08665
5.73828
6.36634
6.95425
7.47184
7.86841
8.0764
8.03238
7.70608
7.11719
6.32914
5.42768
4.50816
3.68858
3.01421
2.46772
2.02165
1.66336
1.38297
1.15492
0.97887
0.847035
0.741516
0.653533
0.579771
0.520453
0.480959
0.474409
0.511801
0.609993
0.753917
0.881519
0.597035
0.586204
0.718215
1.00935
1.49326
2.1359
2.89857
3.75423
4.53527
0.509278
0.456221
0.419692
0.394496
0.377177
0.365427
0.357555
0.352347
0.348966
0.346861
0.345798
0.345381
0.345319
0.345846
0.3468
0.348064
0.349555
0.351137
0.352732
0.354216
0.355517
0.356759
0.358224
0.360234
0.362985
0.366115
0.368744
0.370477
0.372596
5.23804
5.91846
6.58232
7.22207
7.81957
8.3361
8.70714
8.8538
8.71305
8.26835
7.5582
6.66058
5.66843
4.6789
3.80957
3.10126
2.52302
2.05882
1.69539
1.41003
1.17693
0.996525
0.861472
0.753577
0.663757
0.588498
0.527833
0.486902
0.478696
0.514764
0.611828
0.756677
0.886723
0.600381
0.56703
0.686145
0.950618
1.41016
2.03584
2.7853
3.62753
4.54384
5.35645
0.495988
0.446959
0.41329
0.390122
0.374304
0.363599
0.356411
0.351646
0.348551
0.346637
0.345704
0.345358
0.345334
0.345909
0.346846
0.348078
0.349555
0.351137
0.352732
0.354215
0.355488
0.356704
0.358164
0.360159
0.362899
0.366045
0.368712
0.370474
0.372587
6.0739
6.7628
7.43661
8.09021
8.70029
9.21456
9.55156
9.62293
9.37238
8.8022
7.97039
6.96706
5.88958
4.83515
3.92011
3.17041
2.56929
2.09905
1.73014
1.43951
1.20104
1.01596
0.877412
0.766918
0.675084
0.598184
0.536053
0.493574
0.483557
0.518107
0.614164
0.759847
0.89121
0.605749
0.548643
0.656118
0.893655
1.32628
1.93373
2.67003
3.5001
4.40035
5.35956
6.19022
0.483169
0.438077
0.407213
0.386095
0.371712
0.361951
0.35538
0.351016
0.348179
0.346442
0.345627
0.345342
0.345329
0.345951
0.34686
0.348077
0.349555
0.351136
0.352728
0.354174
0.355427
0.35665
0.358104
0.360083
0.362811
0.365972
0.368678
0.37047
0.372578
6.91279
7.60655
8.29296
8.96654
9.5934
10.1025
10.3934
10.374
10.0018
9.30213
8.3512
7.24784
6.09118
4.97723
4.00746
3.22816
2.61929
2.14255
1.7678
1.47159
1.22744
1.03735
0.895027
0.781696
0.687658
0.608962
0.545236
0.501083
0.489068
0.522071
0.616709
0.76413
0.898287
0.60946
0.531034
0.628134
0.839063
1.24196
1.82922
2.55217
3.3709
4.25784
5.19546
6.18171
7.01849
0.470866
0.429665
0.401622
0.382464
0.369376
0.360466
0.354452
0.350449
0.347846
0.346277
0.345562
0.345292
0.345333
0.345976
0.346856
0.348077
0.349555
0.351129
0.352674
0.354092
0.355364
0.356596
0.358045
0.360007
0.36272
0.365896
0.368643
0.370466
0.372568
7.73905
8.43983
9.14677
9.84897
10.4968
10.9932
11.2234
11.0965
10.5933
9.76379
8.69906
7.50271
6.27353
5.08885
4.08028
3.2905
2.67326
2.18953
1.80856
1.50646
1.25632
1.0609
0.914507
0.798092
0.701649
0.620988
0.555527
0.509573
0.495377
0.526576
0.620577
0.769592
0.90598
0.616004
0.514195
0.602138
0.787492
1.15777
1.72225
2.43103
3.23944
4.11468
5.0355
5.99072
6.99036
7.82293
0.459214
0.421944
0.396585
0.379194
0.36727
0.359127
0.353615
0.349939
0.347547
0.346133
0.345465
0.345274
0.345358
0.345974
0.346856
0.348078
0.349544
0.351067
0.35257
0.354005
0.3553
0.356543
0.357985
0.359931
0.362627
0.365817
0.368606
0.370462
0.372559
8.54079
9.2578
9.99234
10.7312
11.405
11.8807
12.0296
11.7794
11.1398
10.1842
9.01325
7.73187
6.41583
5.18163
4.15878
3.3577
2.73141
2.24017
1.85259
1.5443
1.28787
1.08681
0.936062
0.816307
0.71725
0.634449
0.567107
0.519196
0.502616
0.53295
0.625591
0.77583
0.915692
0.620287
0.498252
0.577986
0.739546
1.07453
1.61297
2.30611
3.10479
3.97063
4.87715
5.80921
6.7639
7.7643
8.59058
0.448534
0.415006
0.392052
0.376249
0.365373
0.35792
0.352861
0.349481
0.347276
0.345959
0.345429
0.345308
0.345353
0.345974
0.34686
0.348064
0.349477
0.350948
0.352458
0.353914
0.355233
0.356488
0.357927
0.359854
0.362533
0.365734
0.368566
0.370457
0.37255
9.30747
10.0456
10.8207
11.6073
12.3109
12.7526
12.7986
12.4122
11.6361
10.5616
9.29372
7.90931
6.53361
5.28137
4.24322
3.42999
2.79395
2.29467
1.90009
1.5853
1.3223
1.1153
0.959917
0.83657
0.734689
0.649565
0.580181
0.530184
0.512557
0.541442
0.631863
0.782746
0.925448
0.628685
0.483611
0.55565
0.695731
0.99328
1.50171
2.17713
2.96606
3.82459
4.72048
5.63311
6.55489
7.49298
8.48066
9.31226
0.438963
0.408774
0.387974
0.373597
0.363663
0.356832
0.352183
0.349066
0.346978
0.345886
0.345468
0.345304
0.345353
0.345976
0.346846
0.348
0.349352
0.350818
0.352343
0.35382
0.355164
0.356433
0.357868
0.359777
0.362437
0.365649
0.368525
0.370453
0.372541
10.0397
10.8179
11.6533
12.4853
13.2084
13.5946
13.5158
12.9859
12.0786
10.8956
9.50886
8.05529
6.65962
5.3883
4.33384
3.50755
2.86104
2.35318
1.9512
1.62964
1.35981
1.14659
0.986313
0.859133
0.754219
0.666601
0.595032
0.545089
0.525813
0.551374
0.638829
0.790643
0.937964
0.633925
0.47046
0.535433
0.656468
0.915285
1.38905
2.04389
2.82246
3.67535
4.56426
5.46274
6.35716
7.24914
8.15631
9.12014
9.97004
0.4304
0.403177
0.384307
0.371209
0.362121
0.355852
0.351569
0.34863
0.346841
0.345932
0.345464
0.345304
0.345358
0.345951
0.346799
0.347885
0.349215
0.350684
0.352222
0.353721
0.355092
0.356378
0.35781
0.359701
0.362339
0.365561
0.368483
0.370449
0.372533
10.7254
11.5674
12.4884
13.3752
14.0925
14.3895
14.1669
13.4935
12.4658
11.1488
9.68441
8.21036
6.79392
5.50253
4.43073
3.59049
2.93282
2.41583
2.00608
1.67747
1.40059
1.18091
1.01551
0.88427
0.776147
0.685866
0.615078
0.564741
0.541068
0.562822
0.6475
0.799942
0.949544
0.64472
0.458681
0.517353
0.622641
0.842628
1.27594
1.90643
2.67324
3.52165
4.40703
5.29667
6.17098
7.02475
7.86989
8.73393
9.67426
10.5538
0.422743
0.398153
0.381009
0.369058
0.360731
0.354966
0.350952
0.348424
0.346892
0.345929
0.345464
0.345308
0.345333
0.345909
0.346714
0.347755
0.349075
0.350546
0.352098
0.353619
0.355017
0.356321
0.357752
0.359624
0.362241
0.365473
0.368441
0.370444
0.372525
11.3643
12.3015
13.3293
14.2681
14.9474
15.1163
14.7391
13.9314
12.7546
11.353
9.86901
8.3742
6.93637
5.62399
4.53389
3.67888
3.00934
2.48272
2.06484
1.72894
1.4448
1.21848
1.04775
0.912292
0.800787
0.711765
0.64128
0.586927
0.558542
0.576313
0.657574
0.810511
0.96536
0.651397
0.448159
0.501105
0.593968
0.77828
1.16461
1.76498
2.51769
3.36214
4.24712
5.13319
5.99447
6.81977
7.61327
8.39712
9.21018
10.1301
11.0592
0.415896
0.393641
0.378043
0.36712
0.359478
0.354106
0.350653
0.348477
0.346891
0.345929
0.345468
0.345274
0.345329
0.345845
0.346611
0.347625
0.348932
0.350405
0.351968
0.353511
0.354938
0.356262
0.357693
0.359548
0.362145
0.365388
0.3684
0.37044
0.372518
11.9598
13.0312
14.1827
15.1483
15.7481
15.753
15.2241
14.2509
12.9841
11.5648
10.0616
8.54613
7.08649
5.75239
4.64317
3.77264
3.09063
2.55391
2.12756
1.78416
1.49262
1.25951
1.08333
0.943491
0.833677
0.745271
0.670492
0.611999
0.578894
0.591699
0.670047
0.823202
0.978786
0.665357
0.438783
0.48648
0.569394
0.723601
1.05974
1.62118
2.35523
3.19536
4.08265
4.9703
5.82563
6.63146
7.38599
8.10275
8.81376
9.57111
10.4704
11.4803
0.409771
0.38959
0.375374
0.365376
0.358294
0.35368
0.350703
0.34848
0.346891
0.345932
0.345429
0.345291
0.345334
0.345759
0.346509
0.347497
0.348788
0.350259
0.351834
0.353399
0.354856
0.356202
0.357636
0.359474
0.362054
0.365305
0.368359
0.370435
0.37251
12.5213
13.7722
15.0442
15.9893
16.4662
16.2827
15.5675
14.4995
13.2173
11.7818
10.2607
8.72497
7.24343
5.8872
4.75827
3.87161
3.17662
2.6294
2.19429
1.8432
1.54416
1.30419
1.12247
0.984698
0.875604
0.782089
0.703039
0.64044
0.60253
0.610021
0.68452
0.837698
0.999148
0.673934
0.430438
0.473335
0.54803
0.677905
0.964792
1.48003
2.18672
3.01981
3.91143
4.80565
5.66213
6.45734
7.184
7.84974
8.47637
9.10535
9.80195
10.6758
11.8121
0.404288
0.385951
0.372978
0.363765
0.357696
0.353722
0.350711
0.34848
0.346892
0.345886
0.345465
0.345343
0.345319
0.345677
0.346409
0.347371
0.348642
0.350109
0.351695
0.353283
0.354769
0.356139
0.35758
0.359405
0.361967
0.365225