/*--------------------------------*- C++ -*----------------------------------*\
  =========                 |
  \\      /  F ield         | OpenFOAM: The Open Source CFD Toolbox
   \\    /   O peration     | Website:  https://openfoam.org
    \\  /    A nd           | Version:  8
     \\/     M anipulation  |
\*---------------------------------------------------------------------------*/
FoamFile
{
    version     2.0;
    format      ascii;
    class       volScalarField;
    location    "0.48";
    object      epsilon;
}
// * * * * * * * * * * * * * * * * * * * * * * * * * * * * * * * * * * * * * //

dimensions      [0 2 -3 0 0 0 0];

internalField   nonuniform List<scalar> 
15677
(
59.7348
18.3706
52.6882
8.0867
26.0254
50.228
4.62397
13.3234
31.6456
50.5318
3.1751
7.74849
17.1246
37.3014
51.6225
2.48759
5.05355
10.0476
20.8311
42.6378
53.6404
2.14459
3.62716
6.47307
12.1709
24.5433
47.6004
55.7199
1.97944
2.82246
4.53028
7.72766
14.2785
28.2087
51.9594
57.6286
1.91154
2.35322
3.40453
5.31108
8.91783
16.397
31.6987
55.6159
59.3636
1.88408
2.08019
2.72465
3.90897
6.02263
10.0902
18.4996
34.8591
58.6588
60.8473
1.8705
1.93934
2.30779
3.05491
4.35808
6.69771
11.2527
20.4998
37.6803
61.1303
62.1618
1.86763
1.87828
2.05675
2.52048
3.34778
4.77016
7.35116
12.3749
22.3854
40.1186
63.1627
63.2649
1.86862
1.84882
1.91669
2.18558
2.71214
3.61102
5.15788
7.97536
13.4571
24.1013
42.2278
64.8003
64.2472
1.86954
1.83867
1.85195
1.98236
2.30655
2.88358
3.85319
5.52024
8.57551
14.4659
25.6635
44.0074
66.1452
65.0952
1.86978
1.83695
1.82116
1.86769
2.05116
2.41631
3.03945
4.07475
5.86321
9.13643
15.4114
27.0416
45.5202
67.2326
65.8582
1.86977
1.83721
1.81054
1.81335
1.89809
2.11638
2.51635
3.18004
4.28065
6.18051
9.66476
16.2662
28.2629
46.7844
68.1317
66.5347
1.86973
1.83747
1.80824
1.78981
1.8154
1.92977
2.17724
2.60626
3.30876
4.46831
6.47686
10.1449
17.0452
29.312
47.8429
68.8834
67.1296
1.86971
1.83757
1.80794
1.78279
1.77581
1.82136
1.96154
2.23261
2.68794
3.42456
4.64135
6.74447
10.5867
17.7275
30.2172
48.7158
69.4974
67.699
1.8697
1.83758
1.80796
1.78106
1.76161
1.76624
1.83146
1.99169
2.28307
2.76093
3.52994
4.79606
6.9892
10.9759
18.3307
30.9711
49.4237
70.0453
68.1678
1.86969
1.83757
1.80798
1.78072
1.75715
1.74414
1.76048
1.84258
2.01975
2.32825
2.82668
3.62344
4.93569
7.20399
11.3225
18.8382
31.5983
50.0047
70.4726
68.6836
1.86969
1.83756
1.80798
1.78067
1.75588
1.73615
1.72982
1.75747
1.85373
2.04533
2.36883
2.88482
3.70669
5.05751
7.39393
11.6151
19.2694
32.0986
50.4513
70.9085
69.0524
1.86969
1.83755
1.80797
1.78065
1.75557
1.73344
1.7177
1.71843
1.75586
1.86467
2.06854
2.40481
2.93613
3.77906
5.16375
7.55409
11.8643
19.6112
32.4948
50.8184
71.2142
69.5577
1.8697
1.83754
1.80796
1.78062
1.75548
1.73259
1.71312
1.70191
1.70896
1.75585
1.87501
2.08937
2.43654
2.98078
3.84155
5.2533
7.68889
12.0615
19.8856
32.7854
51.0806
71.6104
69.8485
1.8697
1.83754
1.80794
1.78059
1.75544
1.73232
1.7115
1.69517
1.688
1.70156
1.75624
1.88465
2.10798
2.46441
3.01934
3.89441
5.32752
7.79597
12.2184
20.0817
33.0019
51.2925
71.8374
70.3567
1.8697
1.83753
1.80793
1.78057
1.7554
1.73221
1.71093
1.69257
1.67886
1.67638
1.69547
1.75722
1.89372
2.12473
2.48882
3.05239
3.93835
5.38739
7.8798
12.3301
20.2229
33.1274
51.4464
72.2711
70.6213
1.8697
1.83753
1.80792
1.78055
1.75536
1.73213
1.71071
1.6916
1.67506
1.66494
1.66619
1.69087
1.75902
1.90242
2.13995
2.51046
3.08072
3.9748
5.43379
7.93987
12.4061
20.302
33.217
51.5483
72.5739
438.682
1.8697
1.83753
1.80792
1.78053
1.75533
1.73207
1.71059
1.6912
1.67353
1.65999
1.65225
1.65809
1.68756
1.76157
1.91113
2.15434
2.52995
3.10523
4.00409
5.46877
7.98098
12.4499
20.3394
33.2296
51.6803
89.9437
747.678
1.8697
1.83753
1.80791
1.78052
1.7553
1.73203
1.71049
1.69098
1.67288
1.65789
1.64586
1.64214
1.65153
1.68597
1.76538
1.92035
2.16835
2.54824
3.12694
4.02866
5.49463
8.00514
12.4634
20.3328
33.2418
52.6947
125.474
1048.48
1.8697
1.83753
1.80791
1.78052
1.75528
1.73199
1.71042
1.69084
1.67256
1.65696
1.643
1.6347
1.63325
1.64694
1.68657
1.77072
1.93066
2.18309
2.5664
3.14756
4.04976
5.51322
8.01724
12.4573
20.3147
33.2778
55.4934
163.663
1310.45
1.8697
1.83753
1.8079
1.78051
1.75526
1.73195
1.71035
1.69073
1.67235
1.65648
1.64169
1.63129
1.62426
1.62731
1.64523
1.68896
1.77816
1.94301
2.1994
2.58574
3.16805
4.06913
5.5272
8.01753
12.4421
20.2799
33.3947
60.47
197.753
1525.96
1.86971
1.83753
1.8079
1.7805
1.75524
1.73192
1.7103
1.69064
1.67219
1.65619
1.64102
1.62967
1.61993
1.6177
1.62324
1.6464
1.69413
1.78869
1.95821
2.21849
2.60719
3.19018
4.08843
5.53884
8.0161
12.4163
20.2395
33.6902
65.4353
226.995
1717.04
1.86971
1.83753
1.8079
1.7805
1.75523
1.7319
1.71025
1.69056
1.67206
1.65597
1.64062
1.6288
1.61782
1.61303
1.61198
1.62388
1.65021
1.70344
1.80311
1.97747
2.24142
2.63252
3.21524
4.11009
5.55132
8.01267
12.3884
20.1859
34.1962
69.922
253.051
1878.4
1.86971
1.83753
1.8079
1.78049
1.75522
1.73188
1.71022
1.69049
1.67195
1.65579
1.64033
1.62826
1.61671
1.61069
1.60632
1.61228
1.62702
1.65812
1.71743
1.8227
2.00189
2.26978
2.66283
3.24533
4.13562
5.56738
8.01238
12.3571
20.1428
34.7131
74.0263
275.507
2004.47
1.86971
1.83753
1.8079
1.78049
1.75521
1.73186
1.71019
1.69043
1.67186
1.65564
1.64009
1.62788
1.61604
1.60937
1.60344
1.60641
1.61504
1.63414
1.6719
1.73743
1.84855
2.03303
2.30469
2.69997
3.28155
4.16759
5.5889
8.01421
12.3231
20.1068
35.2017
77.5231
293.028
2107.48
1.86971
1.83753
1.8079
1.78049
1.75521
1.73184
1.71016
1.69038
1.67178
1.65551
1.63989
1.62758
1.61556
1.60854
1.60189
1.60337
1.60895
1.62188
1.64773
1.69233
1.76455
1.88222
2.072
2.3479
2.74503
3.32613
4.20679
5.61733
8.01932
12.2898
20.0614
35.6087
80.0834
307.312
2195.69
1.83753
1.86974
1.80789
1.78048
1.7552
1.73182
1.71014
1.69033
1.67172
1.65539
1.63973
1.62732
1.61518
1.60794
1.60094
1.60161
1.60581
1.6157
1.63526
1.66856
1.72056
1.80049
1.92499
2.12068
2.40053
2.79992
3.37964
4.25509
5.65276
8.02962
12.2546
20.0011
35.8425
82.0204
319.32
2274.31
1.80789
1.83763
1.86982
1.78048
1.75519
1.73181
1.71012
1.69028
1.67167
1.65529
1.63959
1.6271
1.61486
1.60748
1.60026
1.60052
1.60405
1.61256
1.62906
1.65663
1.69787
1.75839
1.84646
1.97861
2.17995
2.46429
2.86531
3.4439
4.3122
5.69614
8.04827
12.22
19.9222
35.9824
83.4622
329.971
2346.64
1.78048
1.80805
1.83783
1.86989
1.75519
1.73179
1.71011
1.69024
1.67162
1.65519
1.63947
1.6269
1.61458
1.60709
1.59972
1.59974
1.60296
1.61086
1.62603
1.65098
1.68697
1.73751
1.80723
1.90451
2.04433
2.25179
2.54018
2.9429
3.51851
4.37928
5.75384
8.07803
12.1903
19.8359
35.9952
84.619
339.53
2414.5
1.75519
1.78069
1.80837
1.83804
1.86996
1.73178
1.71009
1.69021
1.67159
1.6551
1.63937
1.62673
1.61435
1.60675
1.59927
1.59913
1.6022
1.60986
1.62451
1.6485
1.68233
1.72839
1.78916
1.86949
1.9761
2.12436
2.33683
2.62938
3.03241
3.60487
4.46498
5.83023
8.1182
12.1684
19.7419
35.9726
85.541
348.508
2479.17
1.73177
1.75544
1.78111
1.80869
1.83825
1.87004
1.71008
1.69017
1.67156
1.65502
1.6393
1.62657
1.61415
1.60646
1.59888
1.59862
1.6016
1.60919
1.62372
1.6476
1.68098
1.7257
1.78303
1.85566
1.94685
2.06396
2.2197
2.43736
2.73198
3.1352
3.7134
4.5747
5.91961
8.16861
12.1534
19.6473
35.9182
86.3486
356.86
2540.99
1.71008
1.73206
1.75595
1.78154
1.80903
1.83847
1.87012
1.69014
1.67154
1.65495
1.63923
1.62642
1.61399
1.6062
1.59854
1.59819
1.60111
1.60867
1.62324
1.64738
1.68103
1.72592
1.78267
1.85324
1.93877
2.04279
2.16956
2.33313
2.5538
2.84936
3.2634
3.85096
4.69924
6.02041
8.22865
12.148
19.5583
35.834
87.0338
364.903
2600.63
1.69012
1.7104
1.73265
1.75648
1.78198
1.80937
1.83869
1.8702
1.67152
1.65488
1.63918
1.62628
1.61385
1.60597
1.59825
1.59781
1.60069
1.60825
1.62292
1.64742
1.68178
1.72774
1.78551
1.85665
1.94118
2.04113
2.15791
2.29669
2.4655
2.68834
2.99713
3.42451
4.00343
4.83682
6.13184
8.29741
12.1507
19.4757
35.7402
87.6795
372.496
2657.72
1.6715
1.69045
1.71106
1.73325
1.75702
1.78244
1.80972
1.83892
1.87028
1.65482
1.63914
1.62616
1.61374
1.60576
1.59799
1.59748
1.60032
1.60789
1.62267
1.64756
1.68274
1.73022
1.78999
1.86348
1.95006
2.05087
2.16502
2.29537
2.44419
2.6203
2.85896
3.185
3.60544
4.17203
4.98613
6.25222
8.37416
12.1589
19.4021
35.6488
88.2579
379.859
2712.92
1.65477
1.67187
1.69116
1.71175
1.73388
1.75758
1.78291
1.81009
1.83916
1.87037
1.6391
1.62604
1.61365
1.60556
1.59778
1.5972
1.6
1.60759
1.62248
1.64774
1.68372
1.73279
1.7951
1.87214
1.96258
2.06751
2.18462
2.31496
2.45682
2.61543
2.81543
3.07879
3.3984
3.80613
4.3543
5.14544
6.38063
8.45753
12.1754
19.3374
35.5633
88.8278
386.846
2765.49
1.63908
1.65512
1.67265
1.69189
1.71246
1.73452
1.75815
1.78339
1.81046
1.8394
1.87046
1.62593
1.61359
1.60537
1.59759
1.59694
1.59973
1.60733
1.62232
1.64792
1.68469
1.73525
1.80013
1.88144
1.97721
2.0883
2.21182
2.34796
2.49238
2.64706
2.83339
3.06413
3.32733
3.63638
4.02465
4.55006
5.31419
6.51543
8.54641
12.1997
19.2831
35.4886
89.3552
393.611
2816.3
1.62584
1.63947
1.65589
1.67345
1.69265
1.71318
1.73518
1.75874
1.78389
1.81084
1.83965
1.87055
1.61353
1.6052
1.59745
1.59672
1.59948
1.6071
1.62219
1.6481
1.6856
1.73756
1.80492
1.89051
1.99258
2.11185
2.24405
2.38982
2.54288
2.70355
2.89139
3.11656
3.34712
3.60189
3.89851
4.26213
4.75795
5.48988
6.65523
8.63972
12.23
19.2373
35.4227
89.8833
400.04
2864.29
1.61349
1.62614
1.64029
1.65668
1.67428
1.69343
1.71393
1.73586
1.75934
1.7844
1.81123
1.83991
1.87064
1.60503
1.59733
1.59652
1.59926
1.60689
1.62208
1.64826
1.68646
1.7397
1.80943
1.89909
2.00749
2.13653
2.28009
2.4383
2.60426
2.77757
2.9773
3.21252
3.44348
3.66581
3.90144
4.17736
4.5144
4.97525
5.67196
6.79869
8.73643
12.2653
19.2009
35.3716
90.382
406.235
2910.65
1.60487
1.61384
1.62686
1.64115
1.6575
1.67513
1.69423
1.7147
1.73657
1.75996
1.78492
1.81164
1.84017
1.87073
1.59725
1.59633
1.59906
1.60671
1.62198
1.64842
1.68724
1.74166
1.81363
1.90713
2.02169
2.16066
2.31788
2.49253
2.67481
2.86589
3.08508
3.34216
3.58829
3.81605
4.01965
4.2267
4.47209
4.78074
5.20243
5.85891
6.94473
8.83543
12.3049
19.1723
35.3275
90.8819
412.118
2954.06
1.5972
1.60502
1.6146
1.62761
1.64203
1.65835
1.676
1.69506
1.71549
1.73729
1.7606
1.78546
1.81205
1.84043
1.87082
1.59615
1.59888
1.60654
1.62188
1.64856
1.68797
1.74345
1.81752
1.9146
2.03511
2.18381
2.35502
2.55003
2.75423
2.96768
3.21283
3.50163
3.77595
4.02305
4.23561
4.40803
4.57578
4.78048
5.05341
5.43625
6.04914
7.09195
8.93575
12.3477
19.1512
35.297
91.3587
417.762
2996
1.59598
1.5974
1.60548
1.61539
1.62839
1.64295
1.65924
1.67691
1.69591
1.7163
1.73803
1.76126
1.78601
1.81246
1.84068
1.8709
1.59869
1.60638
1.6218
1.6487
1.68863
1.74509
1.82111
1.92149
2.04773
2.2058
2.39091
2.60745
2.83937
3.08356
3.36138
3.69193
4.00654
4.28737
4.52138
4.7037
4.8302
4.94645
5.10222
5.33115
5.67385
6.24062
7.23931
9.03648
12.3932
19.1363
35.2717
91.8334
423.11
3034.93
1.59855
1.59576
1.59785
1.60595
1.61622
1.62921
1.64389
1.66016
1.67783
1.6968
1.71713
1.73879
1.76193
1.78656
1.81285
1.84093
1.87098
1.60623
1.62172
1.64883
1.68923
1.74659
1.8244
1.92784
2.05954
2.22651
2.42536
2.66382
2.92517
3.20984
3.53357
3.91768
4.2866
4.61647
4.88767
5.08959
5.22241
5.28534
5.33666
5.43471
5.61249
5.91367
6.43274
7.38609
9.1369
12.4405
19.1273
35.2582
92.2883
428.225
3072.6
1.60613
1.59818
1.59544
1.59833
1.60646
1.61708
1.63008
1.64486
1.66111
1.67878
1.69771
1.71799
1.73957
1.76259
1.78709
1.81324
1.84116
1.87107
1.62164
1.64893
1.68977
1.74796
1.82741
1.93368
2.07053
2.24588
2.45827
2.71857
3.01
3.33991
3.72593
4.18682
4.62878
5.02841
5.35624
5.59359
5.73652
5.79465
5.77284
5.74441
5.77559
5.89564
6.15226
6.62453
7.53141
9.23634
12.4892
19.1227
35.2477
92.7352
433.052
3107.26
1.62164
1.60547
1.59748
1.59508
1.59888
1.60703
1.61798
1.63099
1.64586
1.6621
1.67976
1.69865
1.71886
1.74035
1.76324
1.7876
1.81361
1.84139
1.87114
1.64903
1.69026
1.7492
1.83016
1.93904
2.08072
2.26393
2.48955
2.77119
3.09321
3.47205
3.92895
4.49701
5.05317
5.55475
5.96908
6.26352
6.42788
6.47312
6.42387
6.29215
6.16778
6.12266
6.17958
6.38712
6.81421
7.6744
9.33424
12.5384
19.1234
35.2478
93.1651
437.672
3140.89
1.64921
1.62047
1.60404
1.59673
1.5948
1.59948
1.60766
1.61891
1.63194
1.64689
1.66312
1.68076
1.69961
1.71973
1.7411
1.76387
1.7881
1.81398
1.84162
1.87122
1.69069
1.75032
1.83267
1.94396
2.09013
2.2807
2.51913
2.82137
3.17445
3.60521
4.13861
4.83497
5.56777
6.24571
6.79558
7.18274
7.38511
7.4156
7.31025
7.11303
6.84252
6.60482
6.47391
6.46313
6.61762
7.00048
7.81433
9.43007
12.5879
19.1261
35.2502
93.5806
442.009
3167.82
1.69121
1.64736
1.61774
1.60252
1.59609
1.59463
1.60011
1.60837
1.61986
1.63295
1.64794
1.66418
1.68179
1.70056
1.72057
1.74184
1.76448
1.78859
1.81433
1.84184
1.87129
1.75133
1.83493
1.94846
2.0988
2.29626
2.54698
2.86892
3.2535
3.73799
4.35213
5.19807
6.16299
7.13554
7.93708
8.47643
8.74817
8.76431
8.5772
8.25542
7.86329
7.4225
7.05349
6.82752
6.74464
6.84311
7.18235
7.95054
9.52347
12.6372
19.1316
35.2559
93.983
445.608
3190.68
1.75241
1.68848
1.64274
1.61487
1.60114
1.59555
1.59456
1.60076
1.60915
1.62084
1.63401
1.64903
1.66527
1.68281
1.7015
1.7214
1.74255
1.76507
1.78906
1.81468
1.84205
1.87137
1.837
1.95256
2.10677
2.31068
2.5731
2.91383
3.33014
3.86886
4.56778
5.58746
6.8411
8.21211
9.45513
10.3064
10.7065
10.7238
10.428
9.92234
9.3102
8.67301
8.02962
7.51151
7.18171
7.02275
7.06297
7.35911
8.0826
9.61403
12.6858
19.1398
35.2667
94.3134
448.659
3215.32
1.83906
1.74855
1.68123
1.63792
1.61225
1.5999
1.59511
1.59463
1.60141
1.61002
1.62184
1.63512
1.65014
1.66636
1.68381
1.7024
1.7222
1.74324
1.76565
1.78952
1.81501
1.84225
1.87143
1.95636
2.11408
2.32402
2.59752
2.95613
3.4041
3.99659
4.78517
6.00417
7.60184
9.4662
11.3086
12.7517
13.487
13.5522
13.1355
12.3812
11.4477
10.4692
9.53736
8.6603
7.97638
7.53476
7.29624
7.27666
7.53013
8.20994
9.70151
12.7335
19.15
35.2774
94.6
451.895
3242.45
1.95999
1.83378
1.73756
1.67371
1.63339
1.60987
1.59875
1.59473
1.5949
1.60205
1.61097
1.62287
1.63627
1.65125
1.66743
1.68478
1.70329
1.72298
1.74392
1.76622
1.78997
1.81534
1.84245
1.87147
2.12088
2.33638
2.62029
2.99594
3.47516
4.12041
5.00474
6.44747
8.43789
10.88
13.4606
15.7227
17.1882
17.5573
17.0374
15.9787
14.6094
13.1386
11.7212
10.4487
9.30996
8.44533
7.88499
7.5641
7.48371
7.69523
8.33279
9.78584
12.7801
19.1598
35.2892
94.9089
455.506
3271.85
2.12713
1.9529
1.8175
1.72626
1.66664
1.62911
1.60764
1.59769
1.59429
1.59538
1.6027
1.612
1.62394
1.63742
1.65234
1.66846
1.68573
1.70414
1.72374
1.74457
1.76676
1.7904
1.81565
1.84255
1.87147
2.34797
2.64152
3.03338
3.54311
4.24002
5.22715
6.91455
9.33723
12.4274
15.8692
19.1513
21.6668
22.8759
22.552
21.1526
19.2267
17.0844
14.9722
13.0505
11.3976
9.97327
8.91551
8.23086
7.82543
7.68367
7.85332
8.45111
9.86685
12.8194
19.1693
35.3019
95.2594
459.373
3304.44
2.35838
2.11788
1.92908
1.80093
1.71563
1.65995
1.62504
1.60554
1.59672
1.59384
1.59598
1.6034
1.61308
1.62501
1.63855
1.6534
1.66947
1.68666
1.70498
1.72448
1.74521
1.7673
1.79082
1.81581
1.84255
1.87147
2.66151
3.06864
3.60788
4.3555
5.45278
7.401
10.2858
14.0795
18.4855
22.9676
26.82
29.3074
29.8814
28.4701
25.8642
22.8378
19.7696
16.9217
14.4394
12.3734
10.6446
9.38403
8.57086
8.07946
7.87654
8.00402
8.56456
9.93425
12.8533
19.1804
35.3203
95.6288
463.698
3339.77
2.67906
2.34642
2.08329
1.90512
1.78534
1.70553
1.65354
1.62119
1.6036
1.59582
1.59347
1.59668
1.60415
1.61416
1.62609
1.63965
1.65445
1.67045
1.68756
1.70579
1.7252
1.74583
1.76781
1.79103
1.81581
1.84255
1.87147
3.10212
3.66964
4.46729
5.68161
7.90133
11.2693
15.8079
21.2596
27.0926
32.5402
36.7053
38.7617
38.227
35.2779
31.1193
26.7613
22.6248
18.9586
15.8698
13.3654
11.3183
9.84809
8.90358
8.32556
8.06215
8.14745
8.65868
9.99194
12.891
19.1943
35.3401
96.0466
468.337
3379.04
3.13115
2.66377
2.29617
2.04898
1.88261
1.77049
1.69582
1.6474
1.61756
1.60181
1.59502
1.59322
1.59744
1.60495
1.61523
1.62715
1.64072
1.65547
1.67141
1.68845
1.70658
1.7259
1.74643
1.76807
1.79103
1.81581
1.84255
1.87147
3.72877
4.57612
5.91328
8.40953
12.2738
17.586
24.1439
31.4453
38.7023
44.9068
48.9882
50.0885
47.8877
42.9122
36.8501
30.9407
25.6087
21.0551
17.324
14.3633
11.989
10.305
9.22784
8.56325
8.24023
8.26588
8.73906
10.0557
12.9333
19.2105
35.3692
96.4859
473.537
3421.58
3.77972
3.11093
2.59069
2.24713
2.01678
1.86112
1.75618
1.68647
1.64153
1.61415
1.60014
1.59433
1.5931
1.5982
1.60581
1.61626
1.62821
1.64176
1.65647
1.67234
1.6893
1.70735
1.72658
1.74673
1.76807
1.79103
1.81581
1.84255
1.87147
4.68253
6.14602
8.91972
13.286
19.3886
27.0936
35.9476
45.1764
53.7166
60.3191
63.7756
63.2809
58.7911
51.2833
42.9785
35.3178
28.6813
23.1854
18.7862
15.358
12.6517
10.7525
9.5426
8.79209
8.3882
8.36674
8.82766
10.1262
12.9805
19.2311
35.4
96.9888
479.156
3468.97
4.77531
3.75362
3.00289
2.52052
2.2012
1.98601
1.84039
1.74236
1.67749
1.63595
1.61096
1.59863
1.59379
1.59313
1.59893
1.60671
1.61727
1.62926
1.64278
1.65746
1.67324
1.69014
1.7081
1.72692
1.74672
1.76807
1.79103
1.81581
1.84255
1.87143
6.3768
9.42714
14.2945
21.1928
30.0672
40.527
51.8372
62.9297
72.4564
78.939
81.0891
78.2632
70.8213
60.2815
49.4203
39.8344
31.8052
25.3261
20.2423
16.3411
13.3023
11.1886
9.84694
8.98283
8.51471
8.47765
8.92543
10.2044
13.0336
19.2549
35.4446
97.5203
485.453
3520.22
4.74004
6.57966
3.5884
2.90157
2.45495
2.15732
1.9563
1.82034
1.72904
1.66889
1.63066
1.60801
1.59728
1.59337
1.59339
1.59962
1.60764
1.61826
1.6303
1.64377
1.65841
1.67413
1.69095
1.70847
1.72692
1.74672
1.76807
1.79103
1.81581
1.84245
1.87136
9.92726
15.2889
22.9785
33.0273
45.1177
58.5707
72.3505
85.0855
95.1384
100.826
100.859
94.8932
83.8259
69.7827
56.0889
44.4353
34.9465
27.4569
21.68
17.3058
13.9372
11.6115
10.1015
9.14627
8.65441
8.59981
9.03344
10.2911
13.0933
19.2852
35.4916
98.1331
492.344
3577.4
4.46907
6.54342
10.3662
3.43863
2.80725
2.39232
2.11496
1.92757
1.801
1.71625
1.66068
1.62565
1.60536
1.5961
1.59296
1.59385
1.60029
1.60859
1.61922
1.63132
1.64474
1.65935
1.67499
1.69135
1.70846
1.72691
1.74672
1.76807
1.79103
1.81565
1.84225
1.87129
16.2589
24.7287
35.9424
49.6626
65.2777
81.8065
97.9103
111.906
121.862
125.926
122.924
112.97
97.6246
79.6555
62.9
49.0696
38.0752
29.5602
23.0896
18.2466
14.5533
11.9659
10.3201
9.32719
8.80892
8.73458
9.15293
10.3876
13.1609
19.3203
35.5581
98.7908
500.019
3639.05
4.23163
6.06918
10.3429
17.109
3.30082
2.71729
2.33194
2.07402
1.89984
1.7824
1.704
1.65287
1.62092
1.60303
1.59509
1.59255
1.59443
1.60096
1.60954
1.62017
1.63232
1.64569
1.66027
1.6754
1.69134
1.70845
1.72691
1.74672
1.76806
1.79082
1.81533
1.84204
1.87122
26.4265
38.7865
54.1157
71.8758
91.1539
110.677
128.804
143.525
152.602
154.074
147.038
132.246
112.02
89.7682
69.7744
53.6913
41.1653
31.6217
24.463
19.1588
15.0699
12.2707
10.5626
9.52777
8.98006
8.88351
9.28529
10.495
13.2372
19.3647
35.6299
99.5461
508.587
3707.88
4.01755
5.65554
9.485
17.1391
27.9245
3.17014
2.63068
2.27364
2.03452
1.87316
1.76456
1.69232
1.64552
1.61666
1.60102
1.59425
1.59224
1.59507
1.60165
1.61049
1.62111
1.6333
1.64662
1.66071
1.67538
1.69134
1.70844
1.7269
1.74671
1.7678
1.79039
1.815
1.84183
1.87114
41.5347
58.4406
78.3027
100.28
123.184
145.469
165.184
179.946
187.203
184.992
172.882
152.439
126.809
99.9953
76.6397
58.2603
44.1953
33.6298
25.7936
19.923
15.5142
12.6092
10.8321
9.75054
9.16994
9.04837
9.43212
10.6149
13.324
19.4163
35.7268
100.384
517.991
3781.76
3.81806
5.28415
8.71698
15.7193
28.0999
43.9698
3.04493
2.54729
2.21751
1.99656
1.84758
1.74752
1.6813
1.63881
1.61292
1.59929
1.59354
1.59206
1.59573
1.60235
1.61142
1.62205
1.63427
1.64707
1.66069
1.67537
1.69133
1.70844
1.7269
1.74641
1.76728
1.78995
1.81467
1.84161
1.87106
62.603
84.5123
109.108
135.285
161.625
186.326
207.075
221.042
225.384
218.303
200.078
173.251
141.795
110.221
83.4318
62.7432
47.1478
35.5752
26.9076
20.5798
16.0075
12.9857
11.1319
9.99835
9.38095
9.23121
9.59524
10.7488
13.4224
19.4809
35.837
101.326
528.82
3864.2
3.63005
4.94053
8.02135
14.4056
25.9371
44.4238
66.2972
2.92487
2.46719
2.16364
1.96018
1.82314
1.73144
1.67122
1.63285
1.60965
1.59781
1.59298
1.59199
1.59639
1.60308
1.61234
1.62299
1.63474
1.64702
1.66068
1.67536
1.69132
1.70843
1.72655
1.74579
1.76674
1.7895
1.81432
1.84139
1.87098
90.4608
117.583
146.89
177.089
206.578
233.27
254.38
266.558
266.74
253.542
228.216
194.384
156.791
120.34
90.0974
67.1124
50.0085
37.2036
27.8646
21.3086
16.556
13.405
11.4661
10.2744
9.61585
9.43437
9.77682
10.8988
13.5349
19.5574
35.9762
102.43
540.384
3952.04
3.45265
4.61986
7.37483
13.1725
23.9005
41.3411
67.1951
95.7345
2.80997
2.39055
2.11212
1.92548
1.80007
1.7167
1.66219
1.62756
1.60679
1.59654
1.59256
1.59204
1.59703
1.60385
1.61329
1.62342
1.63469
1.647
1.66066
1.67535
1.69131
1.70805
1.72585
1.74516
1.76618
1.78904
1.81396
1.84116
1.8709
125.656
157.947
191.764
225.714
258.027
286.224
306.897
316.11
310.75
290.181
256.873
215.554
171.631
130.267
96.5923
71.3457
52.4033
38.6024
28.926
22.1182
17.1665
13.8725
11.8391
10.5826
9.87777
9.66056
9.97903
11.0668
13.6633
19.6504
36.1475
103.623
554.311
4066.73
3.28547
4.32135
6.76896
12.0023
21.9546
38.4112
63.0261
97.2516
132.785
2.70031
2.31749
2.06307
1.89275
1.77893
1.70348
1.65413
1.62286
1.6043
1.59546
1.59223
1.59224
1.59768
1.6047
1.61371
1.62334
1.63467
1.64698
1.66065
1.67534
1.69089
1.70728
1.72513
1.74452
1.76561
1.78857
1.8136
1.84092
1.87081
168.406
205.615
243.643
281.069
315.886
345.041
364.313
369.186
356.801
327.658
285.634
236.504
186.174
139.929
102.881
74.8887
54.4604
40.1534
30.1043
23.0186
17.8467
14.3944
12.2559
10.9269
10.1703
9.91288
10.2053
11.2565
13.8104
19.7646
36.3458
105.124
571.114
4207.4
3.12803
4.04528
6.20322
10.8877
20.0708
35.5759
59.0587
91.8386
135.073
177.572
2.59607
2.24817
2.01689
1.8628
1.75996
1.69163
1.64692
1.61868
1.60216
1.59454
1.59192
1.59263
1.59842
1.60505
1.6136
1.6233
1.63464
1.64696
1.66064
1.6749
1.69004
1.70649
1.7244
1.74385
1.76503
1.78808
1.81322
1.84068
1.87072
218.601
260.367
302.324
343.013
380.043
409.525
426.217
425.16
404.207
365.404
314.116
257.013
200.305
149.269
108.138
77.9309
56.7407
41.8749
31.4139
24.0207
18.6053
14.9775
12.7221
11.3123
10.4974
10.1947
10.4567
11.471
13.9808
19.8977
36.6139
106.964
595.061
4347.54
2.97959
3.79243
5.6795
9.83096
18.238
32.7938
55.1935
86.7211
128.252
180.72
229.851
2.4975
2.18315
1.97474
1.83595
1.74294
1.68101
1.64048
1.61495
1.60031
1.59374
1.59169
1.59324
1.59866
1.6049
1.61355
1.62327
1.63462
1.64696
1.66016
1.674
1.68918
1.70568
1.72364
1.74317
1.76443
1.78758
1.81284
1.84044
1.87063
275.878
321.861
367.568
411.443
450.444
479.46
492.096
483.298
452.244
402.874
341.988
276.901
213.932
157.063
112.649
81.3013
59.2708
43.7875
32.8707
25.137
19.452
15.6295
13.2442
11.744
10.8638
10.5107
10.7362
11.7138
14.1751
20.0698
36.9514
109.741
619.207
4490.56
2.83966
3.56412
5.19879
8.83998
16.457
30.0444
51.3694
81.7326
121.898
172.296
233.844
289.083
2.40545
2.12398
1.93704
1.81189
1.72769
1.67149
1.63472
1.61161
1.59871
1.59316
1.59176
1.59345
1.59839
1.60485
1.61351
1.62324
1.63462
1.64647
1.6592
1.67309
1.68829
1.70485
1.72287
1.74247
1.76382
1.78707
1.81244
1.84018
1.87054
339.731
389.736
439.26
486.468
527.184
554.631
561.328
542.774
500.183
439.587
368.977
296.027
225.269
163.738
117.639
85.0378
62.0805
45.9142
34.4925
26.3815
20.3974
16.3589
13.829
12.2279
11.2743
10.8653
11.0479
11.9875
14.4042
20.2961
37.5324
112.582
648.818
4628.06
2.70919
3.3563
4.76043
7.92289
14.7357
27.3242
47.5501
76.7843
115.741
164.623
223.551
293.767
354.571
2.32215
2.07123
1.90333
1.79033
1.71401
1.66297
1.62955
1.60865
1.59746
1.59298
1.59156
1.59318
1.59829
1.6048
1.61348
1.62325
1.6341
1.64549
1.65822
1.67215
1.68739
1.704
1.72208
1.74175
1.76319
1.78654
1.81204
1.83993
1.87044
409.658
463.797
517.564
568.472
610.518
634.792
633.155
602.702
547.351
475.136
394.868
311.885
234.956
171.108
123.164
89.1829
65.2028
48.2807
36.2993
27.7695
21.4535
17.1751
14.4841
12.7703
11.7346
11.2632
11.3963
12.2983
14.7097
20.6554
38.1232
116.474
677.975
4764.35
2.59119
3.16747
4.36579
7.0789
13.0866
24.6409
43.7199
71.8161
109.656
157.285
214.454
281.222
359.634
425.634
2.24829
2.0242
1.87318
1.77101
1.70175
1.6553
1.62491
1.60623
1.59681
1.59261
1.59102
1.59311
1.59822
1.60476
1.61351
1.62274
1.63306
1.64449
1.65722
1.67119
1.68646
1.70312
1.72127
1.74101
1.76254
1.78601
1.81162
1.83967
1.87035
485.342
544.179
603.044
658.17
700.801
719.542
706.656
662.201
593.161
509.204
416.267
325.399
245.621
179.245
129.279
93.7826
68.6739
50.9154
38.313
29.3181
22.6331
18.088
15.2179
13.3782
12.2504
11.7096
11.7867
12.7111
15.1305
21.0409
39.0024
120.387
714.368
4891.99
2.48677
2.9995
4.01656
6.31268
11.5302
22.0102
39.8784
66.7908
103.552
150.114
205.93
270.537
344.277
430.624
501.815
2.1828
1.98228
1.84623
1.75371
1.69072
1.64841
1.621
1.60471
1.59611
1.59196
1.59087
1.59304
1.59818
1.60479
1.613
1.62172
1.63202
1.64347
1.6562
1.6702
1.68551
1.70222
1.72044
1.74026
1.76188
1.78546
1.81121
1.83943
1.87026
566.883
631.623
696.975
756.793
798.418
808.262
780.824
720.461
637.14
537.305
434.456
340.229
257.355
188.225
136.049
98.8871
72.5338
53.8495
40.5578
31.0458
23.9503
19.1085
16.0387
14.0584
12.828
12.2092
12.3037
13.2453
15.5867
21.5523
39.9246
125.629
750.04
5008.95
2.39459
2.85133
3.71872
5.63301
10.085
19.4547
36.0357
61.6885
97.3596
142.976
197.757
260.795
331.748
411.628
506.182
583.16
2.1247
1.9449
1.82213
1.73816
1.68077
1.64251
1.61833
1.60343
1.59525
1.5918
1.59075
1.59296
1.59829
1.6043
1.61196
1.6207
1.63096
1.64243
1.65515
1.66919
1.68454
1.7013
1.71958
1.73948
1.7612
1.78492
1.81081
1.83919
1.87018
655.127
727.857
801.652
866.136
903.7
900.151
854.675
776.795
673.448
561.151
454.354
356.48
270.25
198.128
143.538
104.551
76.8257
57.1169
43.0601
32.9727
25.4201
20.2478
16.9554
14.8183
13.4725
12.8707
12.9589
13.8167
16.1145
22.113
41.1709
131.353
795.267
5117.52
2.31332
2.71973
3.47334
5.05392
8.78011
17.0009
32.2124
56.5015
91.0282
135.765
189.757
251.712
320.7
396.885
482.352
586.315
670.64
2.07311
1.91159
1.80051
1.72416
1.67221
1.6383
1.61632
1.60225
1.59507
1.59166
1.59065
1.59306
1.59789
1.60332
1.61095
1.61968
1.62987
1.64136
1.65408
1.66815
1.68354
1.70035
1.71871
1.73869
1.76053
1.78439
1.81042
1.83896
1.87009
752.163
836.204
920.8
988.52
1016.86
994.446
927.295
823.602
704.271
587.183
476.079
374.256
284.398
209.033
151.817
110.83
81.5957
60.754
45.8479
35.1201
27.0582
21.5174
17.9768
15.6636
14.3234
13.6995
13.6539
14.4353
16.6852
22.8057
42.6677
138.28
839.768
5199.61
2.24169
2.6029
3.26675
4.57189
7.65189
14.6928
28.4387
51.2339
84.5162
128.389
181.777
243.052
310.768
384.362
464.908
555.947
672.174
766.886
2.02729
1.88181
1.78108
1.71205
1.66592
1.63531
1.61477
1.60202
1.59491
1.59153
1.59087
1.59264
1.59703
1.60241
1.60993
1.61865
1.62876
1.64027
1.65299
1.66709
1.68252
1.69938
1.71782
1.73792
1.75988
1.78388
1.81004
1.83873
1.87001
862.173
962.591
1060.12
1126.77
1138.81
1090.16
988.589
863.505
737.937
615.539
499.739
393.651
299.886
221.02
160.953
117.784
86.892
64.7994
48.9511
37.5105
28.8805
22.9288
19.1101
16.7761
15.3814
14.5699
14.3866
15.0835
17.3232
23.6276
44.4093
146.921
896.544
5265.23
2.17853
2.49949
3.08969
4.17403
6.70279
12.6184
24.7804
45.9048
77.7927
120.757
173.679
234.618
301.645
373.586
450.649
535.244
632.746
767.045
877.482
1.98649
1.85512
1.76422
1.70297
1.6616
1.63331
1.6145
1.60181
1.59472
1.5918
1.59078
1.59183
1.59626
1.60153
1.60888
1.61759
1.62763
1.63915
1.65187
1.66599
1.68148
1.69839
1.71694
1.73716
1.75924
1.78339
1.80967
1.83852
1.86993
993.084
1117.51
1227.65
1288.07
1269.51
1173.21
1041.39
907.311
774.644
646.35
525.433
414.751
316.795
234.165
171.017
125.472
92.7642
69.2925
52.4002
40.1664
30.9031
24.4918
20.5974
18.1513
16.4842
15.4721
15.1445
15.7623
18.0265
24.5464
46.7668
156.511
961.889
5281.73
2.12265
2.40833
2.93542
3.84682
5.91416
10.8237
21.3777
40.5878
70.8413
112.784
165.317
226.221
293.086
364.157
438.969
518.906
608.222
714.689
878.08
1014.45
1.95006
1.83198
1.75135
1.69694
1.65901
1.633
1.61425
1.60154
1.59511
1.59184
1.5905
1.59122
1.59549
1.60067
1.60781
1.61653
1.62648
1.638
1.65074
1.66487
1.68042
1.69741
1.71608
1.73643
1.75862
1.78291
1.80931
1.83831
1.86985
1160.79
1318.52
1447.68
1476.54
1387.45
1245.93
1100.13
955.449
814.628
679.754
553.251
437.627
335.19
248.535
182.071
133.952
99.2608
74.2729
56.2257
43.1104
33.1402
26.5393
22.429
19.5774
17.6169
16.3915
15.9195
16.4691
18.7708
25.7117
49.3583
169.266
1038.19
5270.9
2.07307
2.32809
2.79927
3.58056
5.26561
9.29862
18.3217
35.4787
63.7161
104.391
156.534
217.66
284.856
355.775
429.329
506.19
589.403
685.736
807.281
1022.18
1201.59
1.91846
1.81408
1.74297
1.69367
1.65867
1.63271
1.61389
1.60212
1.5954
1.59181
1.59052
1.59071
1.59469
1.59982
1.60672
1.61544
1.62532
1.63682
1.64959
1.66372
1.67938
1.69647
1.71524
1.73572
1.75802
1.78245
1.80896
1.8381
1.86978
1400.24
1625.39
1733.14
1653
1492.71
1328.44
1165.95
1008.62
858.243
715.926
583.281
462.336
355.125
264.184
194.171
143.275
106.428
79.7782
60.4568
46.3624
36.0671
29.0553
24.3231
21.0354
18.7622
17.3148
16.7013
17.1868
19.6161
26.9611
52.7971
185.439
1122.13
5234.79
2.03015
2.25749
2.67836
3.36129
4.73469
8.02506
15.6194
30.7301
56.6495
95.574
147.167
208.707
276.705
348.157
421.363
496.364
575.443
664.011
772.805
923.366
1244.93
1506.01
1.89368
1.80273
1.73882
1.69332
1.65837
1.63224
1.61466
1.60289
1.5958
1.59215
1.59061
1.59034
1.59386
1.59899
1.60563
1.61432
1.62414
1.6356
1.64842
1.66259
1.67836
1.69555
1.71443
1.73503
1.75744
1.782
1.80862
1.83791
1.86971
1823.98
2052.62
2002.55
1812.79
1616.3
1424.23
1241.26
1068.04
906.104
755.132
615.637
488.928
376.632
281.149
207.36
153.486
114.304
85.8419
65.1182
50.6107
39.6587
31.6546
26.2562
22.5043
19.9024
18.2283
17.474
17.9377
20.4896
28.5354
56.8972
205.952
1214.66
5156.64
1.99619
2.19685
2.57103
3.17642
4.30322
6.97025
13.2698
26.3834
49.8516
86.5565
137.115
199.103
268.346
341.022
414.737
488.965
565.384
648.503
747.785
881.49
1095.02
1689.59
2154.17
1.87819
1.79761
1.73849
1.69306
1.65775
1.63322
1.61601
1.60406
1.59676
1.59258
1.59064
1.59009
1.59302
1.59817
1.60454
1.61317
1.62296
1.63437
1.64726
1.6615
1.67737
1.69467
1.71364
1.73437
1.75687
1.78157
1.80829
1.83772
1.86967
2505.35
2516.39
2274.36
2023.4
1771.11