/*--------------------------------*- C++ -*----------------------------------*\
  =========                 |
  \\      /  F ield         | OpenFOAM: The Open Source CFD Toolbox
   \\    /   O peration     | Website:  https://openfoam.org
    \\  /    A nd           | Version:  8
     \\/     M anipulation  |
\*---------------------------------------------------------------------------*/
FoamFile
{
    version     2.0;
    format      ascii;
    class       volScalarField;
    location    "0.16";
    object      p;
}
// * * * * * * * * * * * * * * * * * * * * * * * * * * * * * * * * * * * * * //

dimensions      [0 2 -2 0 0 0 0];

internalField   nonuniform List<scalar> 
15677
(
80.3684
80.0118
79.5994
80.0764
79.5876
79.6022
80.0514
79.6148
79.6116
79.497
80.026
79.6162
79.6119
79.506
79.4075
80.0042
79.6185
79.6117
79.5053
79.4151
79.3141
79.9808
79.6208
79.6113
79.5064
79.415
79.3207
79.2033
79.9556
79.6233
79.6105
79.5067
79.416
79.3207
79.2091
79.0715
79.9295
79.6264
79.6091
79.5068
79.4165
79.3217
79.2092
79.0765
78.9116
79.9021
79.6284
79.6071
79.5066
79.417
79.3223
79.2102
79.0768
78.916
78.7166
79.8735
79.6298
79.6045
79.5061
79.4173
79.3229
79.2109
79.0778
78.9164
78.7203
78.4789
79.844
79.6314
79.6011
79.5058
79.4177
79.3235
79.2117
79.0787
78.9176
78.7208
78.4819
78.1908
79.814
79.6323
79.5977
79.5059
79.4182
79.3243
79.2127
79.0798
78.9187
78.7222
78.4826
78.1931
77.8444
79.7843
79.6323
79.5941
79.5062
79.4192
79.3255
79.214
79.0812
78.9201
78.7236
78.4842
78.1939
77.8458
77.4317
79.7575
79.6308
79.5905
79.5069
79.4207
79.3274
79.2161
79.0832
78.9221
78.7255
78.486
78.1958
77.8468
77.4322
76.9453
79.7344
79.6285
79.5868
79.5081
79.4232
79.3302
79.2191
79.0862
78.925
78.7282
78.4886
78.1981
77.8491
77.4335
76.9448
76.3781
79.7143
79.6264
79.5837
79.5099
79.4268
79.3346
79.2237
79.0907
78.9292
78.7322
78.4922
78.2015
77.852
77.436
76.9463
76.3765
75.7242
79.6966
79.6242
79.5813
79.5122
79.4319
79.3408
79.2304
79.0974
78.9356
78.738
78.4975
78.2062
77.8563
77.4397
76.9492
76.3783
75.7214
74.9785
79.6813
79.6221
79.5795
79.5149
79.4382
79.3493
79.2399
79.107
78.9449
78.7467
78.5053
78.2132
77.8624
77.4451
76.9538
76.3817
75.7234
74.9743
74.1375
79.6679
79.6202
79.5782
79.518
79.4451
79.3597
79.2529
79.1206
78.9583
78.7593
78.5168
78.2234
77.8713
77.4528
76.9604
76.3871
75.7273
74.9766
74.1318
73.199
79.6565
79.6184
79.5774
79.5215
79.4527
79.3711
79.2688
79.1393
78.9771
78.7774
78.5336
78.2384
77.8844
77.464
76.9699
76.3952
75.7337
74.981
74.1344
73.1917
72.1628
79.6474
79.6166
79.5771
79.5253
79.4609
79.3836
79.286
79.1619
79.0028
78.8028
78.5576
78.2602
77.9036
77.4805
76.9838
76.4068
75.7433
74.9885
74.1392
73.1946
72.1537
71.0302
79.6404
79.6148
79.5773
79.5296
79.4696
79.397
79.3048
79.1865
79.0342
78.8376
78.5911
78.2914
77.9315
77.5047
77.0042
76.4236
75.7571
74.9996
74.1478
73.1998
72.1568
71.0193
69.8052
79.635
79.6133
79.5778
79.5341
79.4788
79.4113
79.3251
79.2135
79.0683
78.8799
78.6372
78.335
77.9712
77.5396
77.034
76.4483
75.7772
75.0158
74.1606
73.2094
72.1625
71.0226
69.7923
68.4931
79.6308
79.6119
79.5786
79.5387
79.4884
79.4263
79.3465
79.2425
79.1056
78.9261
78.6932
78.3947
78.0268
77.5894
77.0771
76.4844
75.8066
75.0393
74.1791
73.2237
72.173
71.0285
69.7958
68.4781
67.1066
79.6274
79.6108
79.5795
79.5431
79.4979
79.4418
79.369
79.2732
79.1458
78.9766
78.7543
78.4675
78.103
77.6591
77.1385
76.5366
75.8495
75.0737
74.206
73.2446
72.1887
71.0398
69.8017
68.4815
67.089
65.6764
79.6247
79.6098
79.5804
79.5471
79.5066
79.457
79.3922
79.3053
79.1884
79.031
78.8214
78.5471
78.196
77.7548
77.2244
76.6111
75.9118
75.124
74.2455
73.2749
72.2117
71.0568
69.8135
68.487
67.0898
65.6225
64.143
79.6225
79.6091
79.5813
79.5507
79.5144
79.471
79.415
79.3385
79.2329
79.0887
78.8936
78.6344
78.2978
77.8717
77.3425
76.7154
76.0006
75.1969
74.3033
73.3193
72.2451
71.0815
69.8312
68.4987
67.0937
65.6248
64.0773
62.4921
79.6206
79.6085
79.5822
79.554
79.5215
79.4837
79.4358
79.371
79.279
79.1491
78.9702
78.7286
78.4097
77.9998
77.4871
76.859
76.1252
75.3011
74.3873
73.3847
72.2942
71.1175
69.857
68.5165
67.1037
65.6249
64.0797
62.4629
60.7958
79.6191
79.608
79.583
79.557
79.5279
79.495
79.4547
79.4009
79.3242
79.2117
79.0506
78.8287
78.5306
78.1409
77.6459
77.0351
76.2971
75.4477
74.5077
73.4799
72.3668
71.1708
69.8949
68.5425
67.1197
65.6318
64.0731
62.455
60.7858
59.0618
79.6179
79.6076
79.5836
79.5597
79.5335
79.5052
79.4716
79.4278
79.3657
79.273
79.1339
78.9337
78.6591
78.2934
77.8211
77.2289
76.5084
75.6503
74.6775
73.6169
72.473
71.2499
69.9513
68.5811
67.1443
65.6449
64.0793
62.4448
60.7688
59.0574
57.1143
79.6169
79.6073
79.5842
79.5623
79.5385
79.5142
79.4867
79.452
79.4031
79.3294
79.2157
79.0427
78.7942
78.456
78.0108
77.4431
76.7414
75.9001
74.9129
73.8107
72.6264
71.3663
70.0358
68.6395
67.1818
65.6665
64.0905
62.4522
60.7594
59.0384
57.1131
54.9337
79.616
79.607
79.5846
79.5646
79.543
79.5222
79.5001
79.4736
79.4367
79.3803
79.2908
79.1498
78.9346
78.6271
78.2134
77.6757
76.9996
76.1764
75.204
74.0801
72.844
71.5352
70.1611
68.7278
67.2402
65.7015
64.1101
62.4628
60.7671
59.0311
57.0951
54.9344
52.7448
79.6152
79.6067
79.5851
79.5666
79.547
79.5293
79.512
79.4928
79.4667
79.4259
79.3587
79.2483
79.0727
78.8053
78.427
77.9245
77.2806
76.4833
75.5269
74.4144
73.1479
71.776
70.3441
68.8602
67.3304
65.7582
64.143
62.4817
60.7774
59.0371
57.0881
54.9177
52.747
50.5834
79.6146
79.6065
79.5855
79.5684
79.5505
79.5356
79.5226
79.5098
79.4934
79.4667
79.4197
79.3375
79.1999
78.9808
78.6498
78.1874
77.582
76.8181
75.8866
74.7865
73.5266
72.1139
70.6067
69.0553
67.4676
65.8484
64.1979
62.5133
60.7961
59.0472
57.0909
54.9104
52.7321
50.5857
48.4671
79.6064
79.6139
79.5859
79.57
79.5536
79.5412
79.532
79.525
79.5171
79.5031
79.4742
79.4176
79.3151
79.1427
78.8697
78.4622
77.9012
77.1783
76.2803
75.2024
73.9496
72.5369
70.9771
69.3374
67.6724
65.9884
64.2873
62.5666
60.8263
59.0649
57.0997
54.9101
52.7245
50.5717
48.4691
46.4066
79.5863
79.6062
79.613
79.5714
79.5564
79.5462
79.5403
79.5384
79.5382
79.5354
79.5228
79.4893
79.4188
79.2895
79.0729
78.7341
78.2358
77.5608
76.705
75.6592
74.4242
73.0115
71.4433
69.7378
67.9711
66.2001
64.4285
62.6547
60.8775
59.0927
57.1146
54.9162
52.7212
50.5632
48.4559
46.4081
44.4119
79.5726
79.5869
79.606
79.6122
79.5588
79.5506
79.5477
79.5503
79.5569
79.5641
79.566
79.5532
79.5117
79.4218
79.2576
78.986
78.5677
77.9629
77.1576
76.1536
74.9472
73.5459
71.9685
70.2447
68.398
66.512
64.6447
62.7957
60.9631
59.1406
57.1384
54.9265
52.7241
50.5566
48.446
46.3954
44.4126
42.4916
79.5609
79.5743
79.5877
79.6058
79.6114
79.5545
79.5542
79.5608
79.5734
79.5895
79.6044
79.6101
79.5946
79.5405
79.4242
79.2153
78.876
78.3631
77.6349
76.6824
75.5155
74.1373
72.5627
70.8186
68.942
66.9613
64.9663
63.014
61.1018
59.2218
57.1807
54.944
52.7288
50.555
48.4358
46.3839
44.4002
42.4914
40.6515
79.5578
79.5638
79.5762
79.5885
79.6057
79.6107
79.56
79.5701
79.5881
79.6121
79.6385
79.6607
79.6684
79.6465
79.5739
79.4225
79.1571
78.7357
78.1114
77.242
76.1257
74.7825
73.223
71.4709
69.5612
67.5377
65.4332
63.3414
61.3189
59.3557
57.2548
54.9776
52.7385
50.553
48.429
46.3699
44.3868
42.4791
40.6504
38.8957
79.5649
79.5623
79.567
79.5781
79.5893
79.6055
79.61
79.5784
79.6011
79.6321
79.6686
79.7056
79.734
79.741
79.7077
79.6089
79.4118
79.0765
78.5566
77.8029
76.7741
75.4781
73.9466
72.1991
70.2684
68.1975
66.0363
63.8205
61.6477
59.5681
57.3803
55.0406
52.7613
50.5535
48.4194
46.3574
44.369
42.4637
40.6382
38.8938
37.2265
79.5854
79.5715
79.567
79.5703
79.58
79.5901
79.6054
79.6094
79.6126
79.6498
79.6954
79.7453
79.7923
79.8251
79.8272
79.7759
79.6413
79.3859
78.965
78.3288
77.4268
76.2206
74.7301
73.0006
71.0615
68.9546
66.7304
64.4436
62.133
59.8934
57.5832
55.1523
52.81
50.5633
48.4092
46.3395
44.3506
42.4421
40.6206
38.8815
37.2237
35.6447
79.6222
79.5947
79.5781
79.5718
79.5734
79.5819
79.5909
79.6053
79.6088
79.6655
79.7192
79.7807
79.844
79.8998
79.9335
79.9251
79.8473
79.6653
79.3368
78.8127
78.041
76.9713
75.5704
73.8729
71.9388
69.8079
67.5309
65.1646
62.7683
60.3781
57.8992
55.3392
52.9038
50.5951
48.4045
46.3178
44.3239
42.4174
40.5952
38.8618
37.2114
35.6411
34.1499
79.6786
79.6351
79.6035
79.5848
79.5765
79.5765
79.5837
79.5917
79.6051
79.6083
79.7403
79.8121
79.8899
79.9661
80.0281
80.0581
80.0315
79.9165
79.6732
79.2546
78.6083
77.6808
76.4242
74.813
72.8985
70.7568
68.4379
66.0005
63.5076
61.0169
58.3754
55.6373
53.069
50.6675
48.4172
46.2972
44.29
42.3818
40.5644
38.8327
37.1894
35.6287
34.1458
32.741
79.7578
79.696
79.6467
79.6126
79.5914
79.5811
79.5795
79.5854
79.5925
79.605
79.6078
79.8399
79.9308
80.0251
80.1122
80.1765
80.1959
80.1415
79.9763
79.6555
79.1279
78.3387
77.2349
75.7733
73.9383
71.8002
69.4519
66.9527
64.3694
61.7648
59.0084
56.093
53.3412
50.8063
48.4653
46.2892
44.2528
42.3354
40.5198
38.7957
37.1568
35.6046
34.1332
32.7362
31.4157
79.8629
79.781
79.711
79.6587
79.6215
79.5977
79.5855
79.5824
79.5871
79.5932
79.6049
79.6073
79.967
80.0776
80.1869
80.2818
80.3425
80.3428
80.2485
80.0176
79.6008
78.9435
77.9898
76.6896
75.0064
72.9372
70.5733
68.0233
65.3568
62.6418
59.755
56.7057
53.7647
51.0453
48.5736
46.3109
44.223
42.2811
40.4607
38.7421
37.1138
35.5685
34.1069
32.7234
31.4103
30.1714
79.9968
79.8934
79.8001
79.7266
79.6703
79.6299
79.6038
79.5898
79.5852
79.5887
79.594
79.6048
79.6069
80.124
80.2535
80.3754
80.4731
80.5224
80.4923
80.3435
80.0291
79.4957
78.6865
77.5468
76.0309
74.112
71.8023
69.2142
66.4734
63.6526
60.6365
57.4352
54.3422
51.4266
48.7732
46.3855
44.2169
42.229
40.3891
38.6704
37.0514
35.5198
34.0677
32.6952
31.3973
30.1656
29.005
80.1622
80.0366
79.9176
79.8202
79.7417
79.6815
79.638
79.6096
79.5938
79.5879
79.5902
79.5947
79.6047
79.6065
80.3125
80.459
80.5893
80.6825
80.7102
80.6359
80.4154
79.9972
79.3249
78.3411
76.994
75.2453
73.0802
70.5274
67.723
64.8025
61.6593
58.3036
55.0375
51.9557
49.1035
46.5408
44.2551
42.1941
40.3146
38.5818
36.9674
35.4489
34.0133
32.6529
31.3673
30.1523
28.9988
27.9131
80.3608
80.2134
80.0669
79.9431
79.8395
79.7561
79.692
79.6457
79.6151
79.5976
79.5903
79.5917
79.5954
79.6046
79.6062
80.533
80.6931
80.8252
80.9047
80.8977
80.7628
80.4508
79.9066
79.0718
77.8904
76.316
74.3201
71.9018
69.1099
66.0976
62.8309
59.319
55.8724
52.6012
49.5728
46.8127
44.3623
42.1941
40.2505
38.4851
36.8621
35.3528
33.9343
32.5932
31.3221
30.1206
28.9853
27.9065
26.8921
80.5933
80.4261
80.2512
80.0991
79.9677
79.8578
79.7695
79.7019
79.6529
79.6203
79.6012
79.5927
79.593
79.596
79.6045
79.6059
80.785
80.9529
81.0783
81.1318
81.0745
80.8597
80.4342
79.7398
78.7184
77.3174
75.498
73.2435
70.5713
67.5447
64.1598
60.4912
56.8567
53.3835
50.1541
47.212
44.57
42.2505
40.2115
38.3918
36.7437
35.2315
33.8267
32.5064
31.2573
30.0727
28.9519
27.8928
26.8852
25.9385
80.8595
80.676
80.4729
80.2915
80.13
79.9906
79.8748
79.7821
79.7111
79.6596
79.6251
79.6045
79.5948
79.5942
79.5966
79.6044
79.6056
81.0658
81.2338
81.341
81.3536
81.2274
80.911
80.3476
79.4781
78.2461
76.605
74.5254
72.0075
69.0803
65.656
61.8322
58.0026
54.3137
50.8659
47.7162
44.8911
42.3901
40.2154
38.3136
36.6217
35.0922
33.6901
32.3879
31.1632
30.0032
28.9016
27.8579
26.8713
25.9312
25.0486
81.157
80.9633
80.7337
80.5232
80.3302
80.1587
80.012
79.8905
79.7937
79.7196
79.6658
79.6295
79.6076
79.5967
79.5953
79.5971
79.6044
79.6054
81.3712
81.5288
81.6036
81.5573
81.3408
80.8986
80.1717
79.1017
77.6363
75.7365
73.3878
70.5995
67.2565
63.3556
59.3253
55.4061
51.7197
48.3406
45.3071
42.6262
40.2841
38.2644
36.5045
34.942
33.5307
32.2368
31.0344
29.9022
28.8276
27.8054
26.835
25.9171
25.0408
24.2184
81.4817
81.2865
81.0343
80.7963
80.5713
80.3659
80.1852
80.0315
79.905
79.8043
79.7273
79.6714
79.6334
79.6102
79.5984
79.5962
79.5975
79.6043
79.6053
81.6945
81.8283
81.8534
81.7272
81.3964
80.8024
79.8856
78.5903
76.8701
74.6987
72.0683
68.8528
65.0018
60.8418
56.6773
52.7296
49.0955
45.8286
42.9445
40.4303
38.2606
36.4024
34.7868
33.3534
32.0582
30.8696
29.7637
28.7202
27.7272
26.7804
25.8795
25.0265
24.2099
23.4476
81.8269
81.6422
81.3737
81.1119
80.8558
80.6154
80.3986
80.2093
80.0493
79.9179
79.8137
79.7342
79.6763
79.6368
79.6125
79.5998
79.5969
79.5979
79.6043
79.6051
82.0263
82.12
82.0748
81.845
81.3737
80.6005
79.4675
77.9231
75.9316
73.4712
70.4083
66.6593
62.4945
58.1445
53.9114
49.993
46.4634
43.3498
40.6437
38.3137
36.3259
34.6327
33.1612
31.855
30.6729
29.5861
28.5726
27.6138
26.6983
25.8231
24.9877
24.1956
23.435
22.808
82.1836
82.0248
81.7492
81.4695
81.1853
80.9103
80.6557
80.4282
80.231
80.065
79.9294
79.822
79.7401
79.6804
79.6396
79.6144
79.6009
79.5975
79.5982
79.6042
79.605
82.3545
82.3885
82.2494
81.8898
81.25
80.2703
78.895
77.0817
74.7977
71.9046
68.286
64.1688
59.7523
55.2807
51.0466
47.2202
43.8461
40.922
38.4172
36.2843
34.484
32.9565
31.6272
30.445
29.3723
28.3831
27.4578
26.5795
25.7375
24.9298
24.1559
23.4211
22.8036
22.2702
82.5395
82.4262
82.1559
81.8673
81.5601
81.2524
80.9597
80.6919
80.4545
80.25
80.0787
79.9392
79.829
79.745
79.6837
79.6419
79.6159
79.6019
79.598
79.5985
79.6042
79.6049
82.6637
82.6154
82.3563
81.8382
81.0018
79.7874
78.1473
76.0411
73.3266
69.8566
65.8167
61.3886
56.7909
52.2735
48.1125
44.4396
41.266
38.5613
36.275
34.3477
32.737
31.3738
30.1834
29.1211
28.1533
27.2571
26.4156
25.6135
24.8408
24.0967
23.3805
22.7942
22.2753
21.71
82.8791
82.8354
82.5867
82.3014
81.9788
81.6424
81.3129
81.0038
80.7238
80.4774
80.2663
80.0902
79.9473
79.8345
79.7487
79.6863
79.6437
79.6172
79.6026
79.5984
79.5987
79.6042
79.6048
82.9354
82.7795
82.3715
81.6659
80.603
79.1293
77.1978
74.664
71.3519
67.4128
63.0117
58.3467
53.6463
49.1634
45.1458
41.6802
38.7442
36.2813
34.2252
32.5075
31.0855
29.8833
28.8274
27.8801
27.0124
26.2046
25.4424
24.7122
24.0047
23.3204
22.7533
22.267
21.7101
21.1049
83.1835
83.2384
83.0317
82.7657
82.4383
82.0798
81.7165
81.3666
81.0424
80.7512
80.4966
80.2797
80.0994
79.9534
79.8386
79.7515
79.6882
79.645
79.6181
79.6032
79.5988
79.5989
79.6041
79.6047
83.1483
82.8567
82.2697
81.3454
80.0295
78.2672
75.9104
72.7603
68.9416
64.6056
59.9217
55.0953
50.3697
45.9957
42.1828
38.969
36.2989
34.0932
32.2734
30.7655
29.5289
28.483
27.5562
26.7186
25.946
25.222
24.5344
23.8719
23.2256
22.6929
22.227
21.698
21.0995
20.444
83.4307
83.6179
83.478
83.2515
82.9337
82.5623
82.1705
81.782
81.4133
81.0751
80.7738
80.512
80.2899
80.106
79.9576
79.8413
79.7534
79.6896
79.646
79.6188
79.6037
79.5991
79.599
79.6041
79.6047
83.2773
82.8209
82.0228
80.8511
79.2498
77.0639
74.0766
70.3956
66.1608
61.5079
56.6079
51.6889
47.0096
42.8115
39.2558
36.329
33.9449
32.0053
30.423
29.122
28.0654
27.1699
26.3664
25.633
24.9503
24.3052
23.6878
23.0889
22.5958
22.1659
21.658
21.0842
20.4364
19.726
83.5948
83.9534
83.9095
83.7472
83.4575
83.0859
82.6735
82.2505
81.8386
81.4526
81.1018
80.7915
80.5233
80.2968
80.1101
79.9601
79.843
79.7545
79.6904
79.6466
79.6193
79.604
79.5993
79.5991
79.604
79.6046
83.2958
82.6432
81.6031
80.1485
78.1245
75.3002
71.7709
67.6687
63.0939
58.1771
53.1171
48.1708
43.6071
39.6467
36.3924
33.7793
31.6937
30.0229
28.6754
27.5759
26.6926
25.9407
25.2542
24.6195
24.0215
23.4505
22.8991
22.4561
22.0671
21.5956
21.043
20.4202
19.7176
18.949
83.6473
84.2213
84.307
84.2385
83.9994
83.644
83.2221
82.7712
82.3193
81.8858
81.4841
81.1222
80.804
80.5304
80.3007
80.1121
79.9611
79.8436
79.7549
79.6907
79.6469
79.6195
79.6042
79.5994
79.5992
79.604
79.6046
83.1732
82.2941
80.9738
79.0956
76.4317
73.0656
69.1203
64.6633
59.7845
54.6451
49.4816
44.5767
40.198
36.5321
33.6157
31.3344
29.5528
28.149
27.0306
26.1252
25.4072
24.7917
24.216
23.674
23.1557
22.6544
22.2616
21.9246
21.4947
20.9785
20.3777
19.7012
18.9399
18.1082
83.5559
84.3955
84.6478
84.7078
84.5466
84.2281
83.8112
83.3419
82.8551
82.3763
81.9233
81.5077
81.136
80.8112
80.5336
80.3017
80.1122
79.9609
79.8432
79.7547
79.6907
79.6469
79.6196
79.6044
79.5996
79.5992
79.604
79.6046
82.8779
81.735
79.9902
77.4743
74.2768
70.5062
66.1979
61.4053
56.2492
50.9321
45.7291
40.9399
36.8151
33.4944
30.9438
29.0049
27.5271
26.3845
25.487
24.7669
24.2056
23.719
23.2476
22.7928
22.3491
22.0109
21.7264
21.3493
20.8753
20.311
19.6575
18.9231
18.0986
17.1986
83.2839
84.4471
84.9063
85.1341
85.0832
84.8265
84.4332
83.9582
83.4445
82.9244
82.4213
81.9508
81.523
81.143
80.8134
80.5334
80.3004
80.1106
79.9594
79.8421
79.7539
79.6901
79.6466
79.6198
79.6047
79.5996
79.5992
79.604
79.6046
82.3682
80.8172
78.4432
75.4044
71.8168
67.6802
63.0129
57.898
52.4965
47.0567
41.8879
37.293
33.4884
30.5558
28.3905
26.7977
25.6186
24.7283
24.0417
23.4974
23.084
22.7186
22.345
21.972
21.6973
21.4706
21.147
20.7266
20.2052
19.5886
18.8781
18.0813
17.1888
16.2151
82.7842
84.3451
85.0538
85.4934
85.59
85.425
85.078
84.6138
84.0841
83.5292
82.9788
82.4538
81.968
81.5298
81.1439
80.8113
80.5301
80.297
80.1076
79.957
79.8403
79.7526
79.6892
79.6468
79.6203
79.6048
79.5996
79.5991
79.604
79.6046
81.4897
79.3467
76.4635
73.0467
69.0941
64.583
59.559
54.1407
48.5365
43.0415
37.9897
33.6688
30.2449
27.7343
25.9654
24.7164
23.8272
23.1781
22.6913
22.3128
22.0382
21.7863
21.5045
21.3087
21.1501
20.8858
20.5199
20.0528
19.4801
18.8072
18.0351
17.171
16.2052
15.1527
84.0502
81.8994
85.0569
85.759
86.0447
86.0064
85.7332
85.3001
84.7688
84.1882
83.5955
83.0177
82.4734
81.9746
81.529
81.1395
80.8055
80.5243
80.2918
80.1033
79.9537
79.8377
79.7507
79.6892
79.6476
79.6206
79.6048
79.5995
79.599
79.6039
79.6047
80.0663
77.4595
74.2098
70.4295
66.0935
61.2017
55.8279
50.135
44.3842
38.9144
34.0686
30.0996
27.1083
25.0437
23.6748
22.7622
22.1508
21.7305
21.432
21.2089
21.064
20.9183
20.8254
20.7518
20.5578
20.2528
19.8413
19.3237
18.6957
17.9621
17.1236
16.1869
15.1427
14.0061
84.8802
83.4118
80.4569
85.8983
86.4226
86.55
86.3831
86.006
85.4912
84.8972
84.2697
83.6428
83.0408
82.4801
81.972
81.5217
81.1305
80.7965
80.5162
80.285
80.0979
79.9494
79.8345
79.7504
79.6904
79.6479
79.6205
79.6046
79.5992
79.5988
79.6039
79.6047
78.2413
75.3093
71.6999
67.5295
62.7981
57.5229
51.8143
45.8881
40.0618
34.7088
30.1614
26.616
24.0987
22.4938
21.5212
20.9334
20.5863
20.3814
20.259
20.1811
20.1573
20.2172
20.2554
20.1492
19.9168
19.5679
19.1071
18.5351
17.8475
17.0484
16.1384
15.124
13.996
12.7697
85.8782
84.3949
82.2974
78.628
86.6929
87.0331
87.0089
86.7179
86.2418
85.6502
84.9981
84.328
83.6707
83.048
82.4754
81.9613
81.5088
81.1176
80.7847
80.5062
80.2769
80.0912
79.9441
79.8337
79.752
79.6909
79.6478
79.6202
79.6042
79.599
79.5986
79.6039
79.6048
76.1629
72.9075
68.9045
64.3278
59.1911
53.5354
47.5173
41.4137
35.5981
30.4631
26.3053
23.2459
21.232
20.0908
19.5047
19.2273
19.1294
19.1259
19.1678
19.2251
19.4252
19.6288
19.6386
19.4972
19.2232
18.8269
18.313
17.6823
16.9305
16.0611
15.0744
13.9768
12.7596
11.4382
86.826
85.5859
83.4414
80.8162
76.5581
87.4267
87.59
87.4187
87.0086
86.4389
85.7759
85.0709
84.3626
83.6791
83.0412
82.4608
81.9437
81.4911
81.1013
80.7707
80.4946
80.2671
80.0834
79.9427
79.836
79.7527
79.6908
79.6474
79.6196
79.6039
79.5988
79.5984
79.6039
79.6049
73.8374
70.2192
65.8038
60.8062
55.2581
49.2317
42.9412
36.7328
31.0294
26.2193
22.5365
20.0133
18.5198
17.8371
17.6232
17.6397
17.7749
17.9591
18.1537
18.4538
18.8111
18.9922
18.9713
18.7917
18.473
18.0256
17.4544
16.7605
15.9397
14.9949
13.9261
12.7398
11.4282
10.0065
87.7052
86.7302
84.8673
82.1283
79.0831
74.2498
88.0992
88.0897
87.7765
87.2532
86.5961
85.8676
85.1149
84.3736
83.6706
83.0225
82.4379
81.9204
81.4694
81.0823
80.7547
80.4809
80.2559
80.081
79.9458
79.8369
79.7527
79.6902
79.6465
79.6193
79.6037
79.5984
79.5981
79.6039
79.605
71.2241
67.2254
62.3797
56.9484
50.9861
44.6069
38.0963
31.8745
26.398
22.021
18.8891
16.9379
15.9694
15.7327
15.873
16.1651
16.5176
16.8759
17.3363
17.8073
18.1469
18.3037
18.2496
18.0287
17.6617
17.1593
16.5265
15.7648
14.8699
13.8444
12.6882
11.4077
9.99678
8.46963
88.5147
87.7996
86.2511
83.8013
80.5692
77.119
71.6545
88.7061
88.5288
88.0798
87.4501
86.7125
85.9245
85.1302
84.3638
83.6475
82.9936
82.408
81.8921
81.4443
81.0609
80.7361
80.4654
80.2523
80.0851
79.947
79.8368
79.7519
79.689
79.6463
79.6192
79.6033
79.598
79.5978
79.6039
79.6052
68.3049
63.9095
58.6161
52.7387
46.3627
39.6592
32.9996
26.8759
21.752
17.9123
15.3927
14.0338
13.5843
13.7751
14.2488
14.7978
15.3517
16.0039
16.6516
17.1083
17.4289
17.5593
17.4692
17.2039
16.7848
16.2231
15.5243
14.6898
13.7157
12.6043
11.3553
9.9759
8.46043
6.82059
89.249
88.7934
87.5537
85.4382
82.4918
78.8105
74.8772
68.7527
89.2426
88.9038
88.3265
87.5982
86.7868
85.9467
85.1203
84.3365
83.6121
82.9563
82.3722
81.8599
81.4164
81.0364
80.7153
80.4602
80.2577
80.0868
79.947
79.8358
79.7501
79.6888
79.6465
79.6188
79.6028
79.5975
79.5974
79.6039
79.6054
65.0649
60.2573
54.4965
48.159
41.3752
34.3907
27.6765
21.7833
17.1434
13.9347
12.0715
11.3106
11.3644
11.9594
12.7444
13.5315
14.4142
15.2741
15.9117
16.353
16.653
16.7547
16.6258
16.3125
15.8374
15.2122
14.4425
13.5302
12.4718
11.2692
9.92264
8.43964
6.81427
4.74805
89.902
89.7046
88.7764
86.9885
84.3816
81.0074
76.8071
72.3411
65.5301
89.7049
89.2122
88.515
87.6959
86.8193
85.9383
85.0891
84.2943
83.5665
82.9118
82.3316
81.8243
81.3847
81.009
80.7081
80.4671
80.2598
80.0867
79.9456
79.8333
79.7503
79.6897
79.6464
79.6183
79.6021
79.597
79.597
79.6039
79.6056
61.4925
56.2539
50.0004
43.1888
36.0099
28.8084
22.1631
16.6517
12.6256
10.1253
8.94416
8.77303
9.30671
10.2798
11.3532
12.5147
13.6306
14.4861
15.113
15.5376
15.815
15.8855
15.7147
15.3498
14.8146
14.1213
13.2759
12.2807
11.1328
9.8342
8.38547
6.79416
4.73831
2.29429
90.4685
90.5245
89.9127
88.455
86.1796
83.1668
79.3083
74.5381
69.5038
61.9757
90.0893
89.4518
88.6435
87.7432
86.8149
85.9042
85.04
84.2398
83.5124
82.8617
82.2871
81.7841
81.3496
80.9993
80.7169
80.4698
80.2597
80.0849
79.9423
79.834
79.752
79.6901
79.646
79.6175
79.6013
79.5963
79.5965
79.6039
79.6059
57.5744
51.879
45.1024
37.8002
30.2517
22.929
16.5085
11.5432
8.25068
6.51553
6.02293
6.421
7.40577
8.72899
10.2377
11.6659
12.7853
13.6364
14.2516
14.6577
14.9105
14.9472
14.7311
14.3109
13.7112
12.9452
12.0191
10.936
9.69387
8.29465
6.74002
4.71413
2.28206
-0.182792
90.9444
91.2449
90.9525
89.8313
87.8895
85.2275
81.7612
77.3705
71.998
66.3632
58.0769
90.3931
89.6202
88.7115
87.7459
86.7793
85.8485
84.9761
84.175
83.4516
82.8069
82.2371
81.7398
81.3369
81.0105
80.7203
80.4697
80.2574
80.0806
79.9436
79.8372
79.7533
79.6901
79.6453
79.6164
79.6002
79.5955
79.596
79.6039
79.6062
53.2914
47.107
39.7661
31.9584
24.0921
16.7841
10.7753
6.5242
4.06679
3.12959
3.31359
4.25103
5.65435
7.48795
9.30797
10.7513
11.8749
12.7211
13.3232
13.709
13.9349
13.935
13.6703
13.1906
12.5221
11.6786
10.667
9.49133
8.15024
6.64718
4.65706
2.25598
-0.191153
-2.64252
91.3264
91.8585
91.8856
91.1064
89.5049
87.1929
84.109
80.1363
75.1903
69.1885
62.9185
53.8151
90.6126
89.7162
88.7257
87.711
86.7176
85.7748
84.8999
84.1022
83.3852
82.7456
82.182
81.7235
81.3508
81.0147
80.7202
80.4668
80.2518
80.0828
79.9488
79.8397
79.7539
79.6896
79.6442
79.6151
79.599
79.5945
79.5953
79.604
79.6066
48.6186
41.9006
33.9446
25.6323
17.5384
10.4248
5.03942
1.66271
0.115661
-0.0167976
0.816589
2.25641
4.25625
6.45556
8.30777
9.76778
10.8956
11.736
12.3236
12.687
12.8837
12.8441
12.5271
11.9838
11.242
10.3164
9.21474
7.94186
6.49877
4.55962
2.19553
-0.214103
-2.6494
-5.07543
91.6099
92.3599
92.7016
92.2688
91.0148
89.0559
86.3552
82.7891
78.2883
72.7728
66.1176
59.1668
49.1652
90.746
89.7477
88.6947
87.6448
86.6345
85.6865
84.8141
84.0229
83.3111
82.6782
82.1615
81.7406
81.356
81.0145
80.7166
80.4596
80.2553
80.0906
79.953
79.8413
79.754
79.6887
79.6427
79.6135
79.5975
79.5934
79.5947
79.604
79.607
43.5201
36.2045
27.5782
18.7869
10.6105
3.92448
-0.612189
-2.97615
-3.57072
-2.91547
-1.47276
0.669066
3.09634
5.34691
7.234
8.71164
9.8435
10.6771
11.2485
11.5875
11.7522
11.6697
11.2966
10.6856
9.86604
8.8538
7.6576
6.28452
4.40552
2.09315
-0.272764
-2.67208
-5.08153
-7.47342
91.7916
92.7425
93.3907
93.3068
92.4076
90.8047
88.4916
85.3333
81.2617
76.2241
70.1312
62.7957
55.1017
44.096
90.802
89.7247
88.6259
87.5526
86.5336
85.5867
84.7205
83.9345
83.2296
82.6528
82.1824
81.7469
81.3558
81.01
80.7074
80.4647
80.2665
80.0972
79.9561
79.8423
79.7534
79.6872
79.6408
79.6115
79.5958
79.5921
79.5939
79.6041
79.6074
37.9359
29.9349
20.584
11.3839
3.35119
-2.62077
-6.0864
-7.33574
-6.9702
-5.56623
-3.28795
-0.643581
1.85376
4.15949
6.08353
7.57931
8.71481
9.54047
10.0938
10.4059
10.5359
10.4072
9.97415
9.29115
8.38953
7.28636
5.99261
4.18392
1.93246
-0.37545
-2.73008
-5.10456
-7.47869
-9.82312
91.881
93.0009
93.9404
94.209
93.6711
92.4274
90.5051
87.7613
84.1164
79.5341
73.9595
67.2838
59.233
50.7172
38.5553
90.7925
89.6562
88.5258
87.4393
86.419
85.4776
84.6162
83.8372
83.1987
82.6782
82.19
81.7467
81.3504
80.9985
80.7145
80.4802
80.2761
80.1024
79.9584
79.8424
79.7522
79.6851
79.6385
79.6092
79.5938
79.5907
79.5931
79.6041
79.6079
31.7781
22.9841
12.8672
3.40811
-4.1605
-9.09564
-11.2925
-11.3702
-10.072
-7.65882
-4.78281
-2.04559
0.527145
2.891
4.8533
6.36746
7.50597
8.32235
8.85576
9.13834
9.2305
9.05206
8.55517
7.79613
6.80826
5.61115
3.88294
1.7028
-0.538878
-2.83328
-5.16225
-7.50159
-9.82749
-12.1108
91.8922
93.1461
94.3372
94.9583
94.7922
93.911
92.382
90.0602
86.8463
82.7099
77.6234
71.5167
64.2503
55.4376
45.9969
32.4608
90.7284
89.5502
88.4004
87.3093
86.2934
85.3561
84.5014
83.8
83.2292
82.6871
82.1898
81.7401
81.3361
81.0082
80.7354
80.4938
80.284
80.1064
79.9596
79.8416
79.7501
79.6824
79.6356
79.6064
79.5916
79.5892
79.5923
79.6042
79.6085
24.9313
15.2115
4.33747
-5.11869
-11.7996
-15.3709
-16.1473
-15.0479
-12.5083
-9.37327
-6.37331
-3.53623
-0.884292
1.53941
3.5408
5.07321
6.21391
7.01944
7.53068
7.78099
7.83219
7.60039
7.03576
6.19671
5.11961
3.48963
1.39238
-0.773083
-2.99871
-5.26645
-7.55834
-9.85
-12.1143
-14.3237
91.8378
93.1954
94.5897
95.5331
95.7501
95.2427
94.1069
92.2159
89.4405
85.7484
81.1301
75.554
68.9212
61.0505
51.4163
40.9079
25.7024
90.6191
89.4135
88.2548
87.1662
86.1531
85.222
84.4572
83.8364
83.2398
82.6869
82.1819
81.7226
81.3488
81.0356
80.7539
80.5052
80.2906
80.1092
79.9597
79.8398
79.7472
79.679
79.6321
79.6033
79.5891
79.5876
79.5915
79.6043
79.6091
17.2157
6.43718
-5.08251
-14.1183
-19.3965
-21.3124
-20.5795
-17.9206
-14.491
-11.1883
-8.05519
-5.11369
-2.38077
0.103577
2.14423
3.6944
4.83608
5.62892
6.11559
6.33071
6.3376
6.04882
5.41264
4.49072
2.98293
0.987395
-1.08948
-3.23576
-5.43381
-7.66284
-9.90543
-12.1362
-14.3262
-16.4493
91.7292
93.1644
94.7174
95.9371
96.5158
96.3999
95.6648
94.212
91.8867
88.6421
84.4817
79.4019
73.3547
66.1989
57.7056
47.1749
35.4133
18.1086
90.473
89.2528
88.0937
87.0061
85.9981
85.17
84.5003
83.8488
83.2396
82.6776
82.1605
81.7389
81.384
81.0601
80.7697
80.5149
80.2955
80.1105
79.9584
79.8369
79.7433
79.6748
79.628
79.5998
79.5866
79.5859
79.5906
79.6043
79.6097
8.35432
-3.57626
-15.4096
-23.43
-26.7626
-26.7778
-24.0206
-20.2383
-16.5757
-13.0937
-9.82239
-6.77519
-3.96106
-1.41644
0.662891
2.22969
3.37071
4.14872
4.60823
4.78507
4.74421
4.39482
3.68425
2.33474
0.466399
-1.50212
-3.55553
-5.67286
-7.83097
-10.0095
-12.19
-14.3474
-16.4508
-18.4753
91.5764
93.0668
94.7397
96.1886
97.0886
97.3481
97.0289
96.0306
94.1694
91.3823
87.6751
83.0698
77.5544
71.0555
63.3763
54.241
42.713
29.4703
9.39876
90.2979
89.0735
87.9127
86.8285
85.9377
85.2208
84.5148
83.8486
83.2286
82.6517
82.1811
81.7835
81.4157
81.0813
80.7834
80.5227
80.2986
80.1102
79.9556
79.8326
79.7384
79.6697
79.6235
79.5961
79.5838
79.5842
79.5898
79.6044
79.6104
-2.12401
-15.0077
-26.5828
-32.8829
-33.6376
-31.0101
-26.7642
-22.6512
-18.7424
-15.0764
-11.6674
-8.5158
-5.62213
-3.019
-0.902733
0.678792
1.817
2.57771
3.00723
3.14261
3.05053
2.63771
1.50365
-0.199298
-2.03212
-3.97213
-5.99414
-8.07037
-10.1771
-12.293
-14.3993
-16.471
-18.4759
-20.3913
91.3887
92.9148
94.6746
96.3061
97.4873
98.0841
98.1578
97.6389
96.2705
93.9563
90.7069
86.5604
81.5419
75.619
68.6879
60.4821
50.6871
38.0249
23.0282
-0.920953
90.1003
88.8708
87.7112
86.7589
85.9971
85.2375
84.5145
83.8357
83.1975
82.6772
82.2365
81.8236
81.4433
81.1
80.7948
80.5282
80.2996
80.1079
79.9512
79.827
79.7323
79.6639
79.6185
79.5922
79.5809
79.5823
79.5889
79.6045
79.6111
-14.8832
-28.074
-38.7572
-41.9222
-39.0012
-34.3161
-29.5771
-25.1227
-20.9669
-17.1215
-13.5794
-10.3279
-7.3587
-4.70078
-2.55071
-0.957261
0.175397
0.915905
1.31242
1.4031
1.25699
0.426066
-1.05203
-2.70827
-4.5061
-6.4115
-8.39072
-10.4149
-12.4589
-14.5004
-16.5206
-18.495
-20.3906
-22.184
91.1738
92.7197
94.5382
96.3083
97.7306
98.6273
99.0469
98.9836
98.1531
96.3483
93.5691
89.8773
85.3258
79.9293
73.6275
66.284
57.5466
47.0759
33.1029
16.0615
-13.7098
89.8755
88.6442
87.6316
86.8281
86.0163
85.2372
84.4996
83.7987
83.2286
82.7451
82.2865
81.859
81.468
81.1159
80.8034
80.531
80.2982
80.1036
79.945
79.8198
79.7252
79.6575
79.6132
79.588
79.578
79.5805
79.588
79.6046
79.6119
-31.5639
-42.9278
-50.6211
-49.089
-43.1293
-37.6131
-32.3941
-27.611
-23.2225
-19.2097
-15.5443
-12.2009
-9.16322
-6.45653
-4.2774
-2.67589
-1.55227
-0.835247
-0.474951
-0.431566
-0.993303
-2.15603
-3.5733
-5.18613
-6.94485
-8.80535
-10.7317
-12.6934
-14.6633
-16.6191
-18.542
-20.4074
-22.1831
-23.8467
90.9273
92.4904
94.3451
96.2138
97.8367
98.9973
99.7192
100.053
99.752
98.52
96.2506
93.0187
88.9189
84.0022
78.264
71.6121
63.8759
54.5997
43.4515
27.9578
8.65132
-31.4952
89.6229
88.5541
87.7116
86.85
86.016
85.22
84.4558
83.8362
83.3107
82.8065
82.3308
81.8908
81.4893
81.1283
80.8088
80.5309
80.2941
80.0968
79.9367
79.8113
79.7172
79.6507
79.6075
79.5837
79.5749
79.5786
79.5872
79.6048
79.6127
-52.0669
-55.7141
-61.8296
-54.2772
-47.0553
-40.8023
-35.1495
-30.0728
-25.4786
-21.3176
-17.5443
-14.1216
-11.0258
-8.27886
-6.07724
-4.47282
-3.36251
-2.67273
-2.35135
-2.72418
-3.60694
-4.6915
-6.05503
-7.62267
-9.33346
-11.1399
-13.0039
-14.8926
-16.7777
-18.6371
-20.4521
-22.1996
-23.8461
-25.3716
90.6494
92.2228
94.1073
96.041
97.8233
99.2133
100.198
100.87
101.046
100.397
98.7145
95.9801
92.3267
87.8614
82.621
76.5775
69.6024
61.4943
51.6888
39.8699
22.6855
0.67455
-53.6907
89.5214
88.6462
87.7366
86.8497
85.9962
85.1685