/*--------------------------------*- C++ -*----------------------------------*\
  =========                 |
  \\      /  F ield         | OpenFOAM: The Open Source CFD Toolbox
   \\    /   O peration     | Website:  https://openfoam.org
    \\  /    A nd           | Version:  8
     \\/     M anipulation  |
\*---------------------------------------------------------------------------*/
FoamFile
{
    version     2.0;
    format      ascii;
    class       surfaceScalarField;
    location    "0.3";
    object      phi;
}
// * * * * * * * * * * * * * * * * * * * * * * * * * * * * * * * * * * * * * //

dimensions      [0 3 -1 0 0 0 0];

internalField   nonuniform List<scalar> 
31053
(
6.27506e-07
1.27525e-05
8.49199e-07
1.51583e-05
3.75559e-07
1.23769e-05
9.3169e-07
1.75575e-05
5.87341e-07
1.49465e-05
2.68583e-07
1.21084e-05
9.551e-07
2.02166e-05
7.04719e-07
1.74401e-05
4.62571e-07
1.47525e-05
2.14918e-07
1.18934e-05
9.45836e-07
2.32493e-05
7.63363e-07
2.01579e-05
5.86718e-07
1.7316e-05
3.93753e-07
1.45737e-05
1.7142e-07
1.1722e-05
9.15589e-07
2.66902e-05
7.87456e-07
2.32252e-05
6.60357e-07
2.00843e-05
5.1976e-07
1.719e-05
3.30865e-07
1.44143e-05
1.36941e-07
1.15851e-05
8.69859e-07
3.06657e-05
7.89182e-07
2.66885e-05
7.00786e-07
2.31847e-05
5.99312e-07
2.00048e-05
4.51684e-07
1.70692e-05
2.76311e-07
1.42749e-05
1.09969e-07
1.14751e-05
8.12216e-07
3.51976e-05
7.75424e-07
3.06795e-05
7.1883e-07
2.66705e-05
6.45808e-07
2.31382e-05
5.31127e-07
1.99253e-05
3.87828e-07
1.69576e-05
2.29623e-07
1.41552e-05
8.7766e-08
1.13873e-05
7.45284e-07
4.03869e-05
7.49774e-07
3.52233e-05
7.20748e-07
3.06776e-05
6.69224e-07
2.66471e-05
5.78189e-07
2.30912e-05
4.63357e-07
1.98498e-05
3.29594e-07
1.68577e-05
1.88106e-07
1.40549e-05
6.83886e-08
1.13189e-05
6.70853e-07
4.63544e-05
7.1437e-07
4.04223e-05
7.0955e-07
3.52345e-05
6.75447e-07
3.06713e-05
6.01854e-07
2.66234e-05
5.07745e-07
2.30468e-05
3.98596e-07
1.97808e-05
2.74718e-07
1.67711e-05
1.49784e-07
1.39735e-05
5.06666e-08
1.12683e-05
5.90702e-07
5.32202e-05
6.71129e-07
4.63977e-05
6.86685e-07
4.04452e-05
6.68116e-07
3.52418e-05
6.08063e-07
3.06651e-05
5.28603e-07
2.66025e-05
4.37946e-07
2.30074e-05
3.34852e-07
1.97206e-05
2.21545e-07
1.66993e-05
1.13349e-07
1.39108e-05
3.38311e-08
1.12345e-05
5.06742e-07
6.1064e-05
6.21567e-07
5.32697e-05
6.53375e-07
4.6431e-05
6.49302e-07
4.0464e-05
6.00329e-07
3.52496e-05
5.31683e-07
3.06621e-05
4.53703e-07
2.65868e-05
3.66934e-07
2.29754e-05
2.70644e-07
1.96715e-05
1.6897e-07
1.66437e-05
7.78604e-08
1.38668e-05
1.73679e-08
1.12171e-05
4.21251e-07
7.00675e-05
5.67138e-07
6.11184e-05
6.10624e-07
5.33125e-05
6.19671e-07
4.64606e-05
5.80662e-07
4.04837e-05
5.20426e-07
3.52608e-05
4.51207e-07
3.06646e-05
3.75376e-07
2.65783e-05
2.93242e-07
2.29528e-05
2.04958e-07
1.96356e-05
1.1618e-07
1.66054e-05
4.26246e-08
1.38415e-05
1.11393e-09
1.1216e-05
3.37698e-07
8.04156e-05
5.08971e-07
7.01257e-05
5.59589e-07
6.11694e-05
5.79543e-07
5.33526e-05
5.49999e-07
4.64913e-05
4.96722e-07
4.05074e-05
4.33785e-07
3.52782e-05
3.64939e-07
3.0675e-05
2.92137e-07
2.65794e-05
2.15855e-07
2.29419e-05
1.37084e-07
1.96147e-05
6.25466e-08
1.65854e-05
7.27634e-09
1.38354e-05
-1.51685e-08
1.12311e-05
2.73097e-07
7.62546e-05
4.47212e-07
8.04773e-05
5.01621e-07
7.01836e-05
5.29262e-07
6.12197e-05
5.08646e-07
5.33939e-05
4.61466e-07
4.65265e-05
4.03235e-07
4.05379e-05
3.38782e-07
3.53044e-05
2.71395e-07
3.06957e-05
2.0293e-07
2.65924e-05
1.34052e-07
2.29449e-05
6.64817e-08
1.96107e-05
7.78309e-09
1.65849e-05
-2.83744e-08
1.38486e-05
-3.16132e-08
1.12628e-05
2.20644e-07
7.62425e-05
3.91845e-07
7.631e-05
4.38079e-07
8.05409e-05
4.69419e-07
7.02435e-05
4.56724e-07
6.12716e-05
4.14943e-07
5.34405e-05
3.60356e-07
4.65694e-05
2.98596e-07
4.05781e-05
2.33912e-07
3.53419e-05
1.69466e-07
3.07292e-05
1.0697e-07
2.66195e-05
4.72939e-08
2.29641e-05
-7.02673e-09
1.96255e-05
-4.82842e-08
1.66048e-05
-6.44614e-08
1.38814e-05
-4.82234e-08
1.1311e-05
1.78414e-07
7.62322e-05
3.40109e-07
7.62942e-05
3.81292e-07
7.63668e-05
4.01103e-07
8.06092e-05
3.9444e-07
7.03058e-05
3.57219e-07
6.13294e-05
3.05357e-07
5.34955e-05
2.45067e-07
4.66229e-05
1.81223e-07
4.06308e-05
1.18016e-07
3.53933e-05
5.82801e-08
3.07779e-05
3.69929e-09
2.6663e-05
-4.44925e-08
2.30016e-05
-8.33902e-08
1.96606e-05
-1.05503e-07
1.66459e-05
-1.00856e-07
1.39341e-05
-6.48132e-08
1.13758e-05
1.4437e-07
7.6226e-05
2.92047e-07
7.62803e-05
3.28033e-07
7.63474e-05
3.38896e-07
7.6429e-05
3.22394e-07
8.06812e-05
2.88401e-07
7.03746e-05
2.38235e-07
6.13965e-05
1.78305e-07
5.35622e-05
1.13867e-07
4.66903e-05
4.98867e-08
4.06989e-05
-9.88606e-09
3.54615e-05
-6.27299e-08
3.08443e-05
-1.06896e-07
2.67254e-05
-1.41103e-07
2.30593e-05
-1.62254e-07
1.97174e-05
-1.63568e-07
1.67086e-05
-1.37267e-07
1.40065e-05
-8.12484e-08
1.1457e-05
1.16632e-07
7.62177e-05
2.4773e-07
7.62704e-05
2.78281e-07
7.633e-05
2.79915e-07
7.64064e-05
2.55665e-07
7.64957e-05
2.08993e-07
8.07606e-05
1.59024e-07
7.04538e-05
9.82547e-08
6.14765e-05
3.18285e-08
5.36443e-05
-3.45703e-08
4.67748e-05
-9.65021e-08
4.07856e-05
-1.50373e-07
3.55491e-05
-1.93577e-07
3.0931e-05
-2.24488e-07
2.68088e-05
-2.41933e-07
2.31389e-05
-2.4298e-07
1.97968e-05
-2.21928e-07
1.67933e-05
-1.73326e-07
1.40986e-05
-9.72697e-08
1.15543e-05
9.3817e-08
7.62128e-05
2.07239e-07
7.62582e-05
2.32004e-07
7.63166e-05
2.2452e-07
7.63854e-05
1.91727e-07
7.64704e-05
1.3545e-07
7.65692e-05
6.82387e-08
8.08514e-05
4.93089e-09
7.05471e-05
-6.50151e-08
6.15734e-05
-1.35535e-07
5.37452e-05
-2.01475e-07
4.68797e-05
-2.5857e-07
4.08938e-05
-3.03454e-07
3.5659e-05
-3.33735e-07
3.10402e-05
-3.4822e-07
2.69151e-05
-3.46017e-07
2.3242e-05
-3.24652e-07
1.98995e-05
-2.7991e-07
1.68998e-05
-2.08541e-07
1.42099e-05
-1.12686e-07
1.1667e-05
7.49147e-08
7.62089e-05
1.70457e-07
7.62496e-05
1.89175e-07
7.63011e-05
1.72921e-07
7.63682e-05
1.31338e-07
7.64458e-05
6.50689e-08
7.65407e-05
-1.54056e-08
7.66529e-05
-1.01159e-07
8.09575e-05
-1.76646e-07
7.06587e-05
-2.53213e-07
6.1691e-05
-3.25192e-07
5.38689e-05
-3.87521e-07
4.70087e-05
-4.36284e-07
4.10266e-05
-4.68389e-07
3.57937e-05
-4.82144e-07
3.11742e-05
-4.76813e-07
2.70459e-05
-4.52024e-07
2.33694e-05
-4.06209e-07
2.00258e-05
-3.36703e-07
1.7028e-05
-2.42414e-07
1.43396e-05
-1.27179e-07
1.17942e-05
6.0388e-08
6.95965e-05
1.37193e-07
7.62422e-05
1.49736e-07
7.6289e-05
1.2523e-07
7.63487e-05
7.49882e-08
7.64246e-05
-1.19347e-09
7.65121e-05
-9.5088e-08
7.66204e-05
-1.9827e-07
7.675e-05
-3.02356e-07
8.10832e-05
-3.87569e-07
7.07931e-05
-4.67968e-07
6.18338e-05
-5.37866e-07
5.40193e-05
-5.92637e-07
4.7165e-05
-6.28697e-07
4.11869e-05
-6.43906e-07
3.59554e-05
-6.37185e-07
3.13345e-05
-6.08503e-07
2.72024e-05
-5.58457e-07
2.35216e-05
-4.8642e-07
2.01755e-05
-3.91443e-07
1.7177e-05
-2.74336e-07
1.44867e-05
-1.40548e-07
1.19347e-05
4.91415e-08
6.25552e-05
1.09824e-07
6.96239e-05
1.13608e-07
7.62783e-05
8.14707e-08
7.63328e-05
2.29733e-08
7.64008e-05
-6.27174e-08
7.64861e-05
-1.69643e-07
7.65866e-05
-2.90223e-07
7.67124e-05
-4.1665e-07
7.68643e-05
-5.37728e-07
8.12334e-05
-6.29768e-07
7.09549e-05
-7.10072e-07
6.2006e-05
-7.73471e-07
5.42001e-05
-8.15669e-07
4.7352e-05
-8.34311e-07
4.13773e-05
-8.28027e-07
3.61463e-05
-7.96646e-07
3.15227e-05
-7.41337e-07
2.73853e-05
-6.63592e-07
2.36988e-05
-5.6398e-07
2.03481e-05
-4.43154e-07
1.73458e-05
-3.0381e-07
1.465e-05
-1.52412e-07
1.20871e-05
4.02567e-08
5.62269e-05
8.75835e-08
6.25775e-05
8.33226e-08
6.96542e-05
4.16108e-08
7.63182e-05
-2.45202e-08
7.63803e-05
-1.19038e-07
7.64571e-05
-2.38241e-07
7.65547e-05
-3.75692e-07
7.66721e-05
-5.24246e-07
7.682e-05
-6.73409e-07
7.7e-05
-8.09495e-07
8.14131e-05
-9.04123e-07
7.11489e-05
-9.79449e-07
6.2212e-05
-1.03064e-06
5.44151e-05
-1.05487e-06
4.75726e-05
-1.05076e-06
4.16e-05
-1.01806e-06
3.63677e-05
-9.58089e-07
3.17394e-05
-8.73055e-07
2.75947e-05
-7.65621e-07
2.39004e-05
-6.37467e-07
2.05424e-05
-4.90985e-07
1.7533e-05
-3.29979e-07
1.48276e-05
-1.6217e-07
1.22493e-05
3.31207e-08
5.05391e-05
6.94049e-08
5.62451e-05
5.8252e-08
6.26026e-05
8.54858e-09
6.96872e-05
-6.73826e-08
7.6361e-05
-1.69859e-07
7.64311e-05
-3.00317e-07
7.65192e-05
-4.53671e-07
7.66327e-05
-6.23611e-07
7.67715e-05
-8.00447e-07
7.6947e-05
-9.71097e-07
7.71616e-05
-1.1187e-06
8.16277e-05
-1.21061e-06
7.13801e-05
-1.27452e-06
6.24559e-05
-1.30737e-06
5.46676e-05
-1.30746e-06
4.78293e-05
-1.27482e-06
4.18568e-05
-1.21104e-06
3.66206e-05
-1.11869e-06
3.19851e-05
-1.00132e-06
2.78304e-05
-8.62608e-07
2.41256e-05
-7.05604e-07
2.0757e-05
-5.33616e-07
1.77367e-05
-3.52117e-07
1.50175e-05
-1.67634e-07
1.24169e-05
2.73095e-08
4.54258e-05
5.44499e-08
5.05541e-05
3.74385e-08
5.62659e-05
-1.85026e-08
6.26296e-05
-1.02409e-07
6.97223e-05
-2.14987e-07
7.64061e-05
-3.5547e-07
7.64863e-05
-5.23412e-07
7.65889e-05
-7.13534e-07
7.67226e-05
-9.17094e-07
7.68881e-05
-1.12176e-06
7.70977e-05
-1.31095e-06
7.73538e-05
-1.46541e-06
8.18825e-05
-1.54746e-06
7.1653e-05
-1.59303e-06
6.27415e-05
-1.60043e-06
5.49606e-05
-1.56965e-06
4.81241e-05
-1.50298e-06
4.21487e-05
-1.40356e-06
3.69055e-05
-1.27555e-06
3.22593e-05
-1.12362e-06
2.80914e-05
-9.52778e-07
2.43727e-05
-7.66628e-07
2.099e-05
-5.70168e-07
1.79547e-05
-3.66074e-07
1.5216e-05
-1.35835e-07
1.25528e-05
2.25029e-08
4.08308e-05
4.20641e-08
4.54382e-05
2.00975e-08
5.05714e-05
-4.07022e-08
5.62881e-05
-1.30528e-07
6.26577e-05
-2.51128e-07
6.97584e-05
-4.03424e-07
7.64541e-05
-5.84378e-07
7.65472e-05
-7.9308e-07
7.66684e-05
-1.02192e-06
7.68274e-05
-1.25948e-06
7.70259e-05
-1.48964e-06
7.72764e-05
-1.69318e-06
7.75816e-05
-1.84773e-06
8.21827e-05
-1.91218e-06
7.19722e-05
-1.9313e-06
6.30724e-05
-1.90545e-06
5.52964e-05
-1.83735e-06
4.84585e-05
-1.7312e-06
4.24764e-05
-1.59208e-06
3.7222e-05
-1.42551e-06
3.25612e-05
-1.23762e-06
2.83763e-05
-1.03392e-06
2.464e-05
-8.19181e-07
2.1239e-05
-5.95277e-07
1.81839e-05
-3.58547e-07
1.54387e-05
-8.64276e-08
1.26392e-05
1.84594e-08
3.67e-05
3.17505e-08
4.08411e-05
5.59012e-09
4.54527e-05
-5.89661e-08
5.05897e-05
-1.53103e-07
5.63107e-05
-2.79442e-07
6.2686e-05
-4.40784e-07
6.97958e-05
-6.36187e-07
7.65059e-05
-8.61554e-07
7.66157e-05
-1.11378e-06
7.67603e-05
-1.38259e-06
7.69505e-05
-1.65249e-06
7.71887e-05
-1.90451e-06
7.74877e-05
-2.11583e-06
7.78497e-05
-2.26298e-06
8.25335e-05
-2.30067e-06
7.23416e-05
-2.28434e-06
6.34513e-05
-2.21772e-06
5.56767e-05
-2.10577e-06
4.8833e-05
-1.9552e-06
4.28395e-05
-1.77274e-06
3.75693e-05
-1.56566e-06
3.28892e-05
-1.34066e-06
2.8683e-05
-1.10412e-06
2.4925e-05
-8.58234e-07
2.1502e-05
-6.03485e-07
1.84288e-05
-3.3172e-07
1.5684e-05
-6.25367e-08
1.27017e-05
1.50177e-08
3.29894e-05
2.31264e-08
3.67087e-05
-6.58984e-09
4.08533e-05
-7.4026e-08
4.54678e-05
-1.71233e-07
5.06078e-05
-3.01516e-07
5.63327e-05
-4.69057e-07
6.27143e-05
-6.75283e-07
6.98349e-05
-9.18448e-07
7.65628e-05
-1.1918e-06
7.66937e-05
-1.48968e-06
7.68674e-05
-1.79753e-06
7.70956e-05
-2.09679e-06
7.7381e-05
-2.36443e-06
7.77363e-05
-2.57615e-06
7.81629e-05
-2.70668e-06
8.29396e-05
-2.7073e-06
7.27645e-05
-2.64674e-06
6.38803e-05
-2.53157e-06
5.61025e-05
-2.36987e-06
4.92477e-05
-2.17041e-06
4.32372e-05
-1.94207e-06
3.79457e-05
-1.69288e-06
3.32415e-05
-1.43034e-06
2.90092e-05
-1.15913e-06
2.52259e-05
-8.80486e-07
2.1779e-05
-5.98999e-07
1.86961e-05
-3.06441e-07
1.59279e-05
-5.69425e-08
1.27587e-05
1.20825e-08
2.96509e-05
1.58875e-08
3.29967e-05
-1.68461e-08
3.67189e-05
-8.64773e-08
4.08658e-05
-1.85799e-07
4.54823e-05
-3.18641e-07
5.0625e-05
-4.90164e-07
5.63538e-05
-7.03628e-07
6.27427e-05
-9.59986e-07
6.98764e-05
-1.25531e-06
7.66263e-05
-1.57967e-06
7.67837e-05
-1.92306e-06
7.69929e-05
-2.2677e-06
7.72665e-05
-2.59052e-06
7.76071e-05
-2.86664e-06
7.80268e-05
-3.06943e-06
7.85256e-05
-3.17251e-06
8.34048e-05
-3.12587e-06
7.32436e-05
-3.01196e-06
6.43607e-05
-2.84121e-06
5.65739e-05
-2.62431e-06
4.97016e-05
-2.37274e-06
4.36678e-05
-2.09643e-06
3.83492e-05
-1.80435e-06
3.36155e-05
-1.50308e-06
2.93532e-05
-1.19645e-06
2.55418e-05
-8.90637e-07
2.20706e-05
-5.89333e-07
1.8979e-05
-2.92254e-07
1.61632e-05
-6.10162e-08
1.28197e-05
9.58288e-09
2.66505e-05
9.78457e-09
2.9657e-05
-2.55191e-08
3.30054e-05
-9.68024e-08
3.67292e-05
-1.97514e-07
4.08775e-05
-3.31854e-07
4.54955e-05
-5.05663e-07
5.06404e-05
-7.23584e-07
5.63738e-05
-9.88692e-07
6.27714e-05
-1.30024e-06
6.99213e-05
-1.6517e-06
7.66983e-05
-2.02774e-06
7.68884e-05
-2.41522e-06
7.71405e-05
-2.79139e-06
7.74674e-05
-3.13104e-06
7.78715e-05
-3.40633e-06
7.83637e-05
-3.58874e-06
7.89418e-05
-3.6536e-06
8.39325e-05
-3.54905e-06
7.37807e-05
-3.37342e-06
6.48929e-05
-3.1405e-06
5.709e-05
-2.86436e-06
5.01932e-05
-2.558e-06
4.41294e-05
-2.2326e-06
3.87775e-05
-1.89689e-06
3.40093e-05
-1.55682e-06
2.97136e-05
-1.21988e-06
2.58711e-05
-8.94257e-07
2.23756e-05
-5.81735e-07
1.92685e-05
-2.88289e-07
1.63905e-05
-8.32755e-08
1.2903e-05
7.45187e-09
2.39561e-05
4.61257e-09
2.66557e-05
-3.28962e-08
2.96644e-05
-1.05395e-07
3.30139e-05
-2.06946e-07
3.67387e-05
-3.41987e-07
4.08876e-05
-5.16803e-07
4.55067e-05
-7.37063e-07
5.06539e-05
-1.00747e-06
5.63926e-05
-1.32978e-06
6.28009e-05
-1.70126e-06
6.99709e-05
-2.11049e-06
7.67811e-05
-2.53768e-06
7.70108e-05
-2.96463e-06
7.73137e-05
-3.36618e-06
7.77025e-05
-3.71347e-06
7.81786e-05
-3.97613e-06
7.87511e-05
-4.1268e-06
7.9415e-05
-4.14182e-06
8.45253e-05
-3.96941e-06
7.43767e-05
-3.72403e-06
6.54765e-05
-3.42388e-06
5.76496e-05
-3.08511e-06
5.07203e-05
-2.72251e-06
4.46193e-05
-2.34759e-06
3.92282e-05
-1.96876e-06
3.44212e-05
-1.59441e-06
3.00881e-05
-1.23458e-06
2.62114e-05
-8.96277e-07
2.26901e-05
-5.77981e-07
1.95582e-05
-3.55239e-07
1.66624e-05
-9.15515e-08
1.29945e-05
5.62558e-09
2.15338e-05
2.07466e-10
2.39605e-05
-3.92078e-08
2.6662e-05
-1.12575e-07
2.96716e-05
-2.14552e-07
3.30216e-05
-3.497e-07
3.67464e-05
-5.2458e-07
4.08954e-05
-7.45594e-07
4.55152e-05
-1.01867e-06
5.06651e-05
-1.34748e-06
5.64103e-05
-1.73233e-06
6.2832e-05
-2.16621e-06
7.00266e-05
-2.63371e-06
7.68771e-05
-3.10821e-06
7.71544e-05
-3.56922e-06
7.75167e-05
-3.98722e-06
7.79763e-05
-4.33026e-06
7.85327e-05
-4.56845e-06
7.91927e-05
-4.67485e-06
7.99481e-05
-4.6288e-06
8.51847e-05
-4.37875e-06
7.50314e-05
-4.05734e-06
6.61099e-05
-3.68569e-06
5.82501e-05
-3.28242e-06
5.12803e-05
-2.86327e-06
4.5135e-05
-2.43976e-06
3.96992e-05
-2.02193e-06
3.48487e-05
-1.62032e-06
3.04738e-05
-1.24451e-06
2.65596e-05
-8.97418e-07
2.30095e-05
-7.09952e-07
1.99129e-05
-3.54112e-07
1.6925e-05
-1.00287e-07
1.30948e-05
4.05e-09
1.93536e-05
-3.56192e-09
2.15376e-05
-4.46334e-08
2.3966e-05
-1.18603e-07
2.6668e-05
-2.20696e-07
2.96777e-05
-3.55522e-07
3.30274e-05
-5.29783e-07
3.67516e-05
-7.50389e-07
4.09002e-05
-1.02416e-06
4.55207e-05
-1.35624e-06
5.06739e-05
-1.74925e-06
5.64272e-05
-2.19974e-06
6.28655e-05
-2.69742e-06
7.00903e-05
-3.22041e-06
7.69893e-05
-3.73765e-06
7.73228e-05
-4.22423e-06
7.77537e-05
-4.64693e-06
7.82929e-05
-4.97361e-06
7.89379e-05
-5.17403e-06
7.96919e-05
-5.2237e-06
8.0543e-05
-5.10522e-06
8.59111e-05
-4.7697e-06
7.57438e-05
-4.36685e-06
6.67911e-05
-3.92122e-06
5.88889e-05
-3.45306e-06
5.187e-05
-2.97854e-06
4.56738e-05
-2.51031e-06
4.01876e-05
-2.05999e-06
3.52884e-05
-1.63772e-06
3.0867e-05
-1.2502e-06
2.69124e-05
-1.10655e-06
2.34061e-05
-7.00278e-07
2.02591e-05
-3.53019e-07
1.71777e-05
-1.0703e-07
1.32018e-05
1.73974e-05
2.68507e-09
-6.80148e-09
1.93568e-05
-4.93105e-08
2.15423e-05
-1.23686e-07
2.3971e-05
-2.25669e-07
2.6673e-05
-3.59866e-07
2.96821e-05
-5.3303e-07
3.30306e-05
-7.52401e-07
3.67536e-05
-1.02543e-06
4.09014e-05
-1.35834e-06
4.55228e-05
-1.75553e-06
5.06802e-05
-2.21634e-06
5.64438e-05
-2.73464e-06
6.29027e-05
-3.2943e-06
7.01642e-05
-3.86934e-06
7.7121e-05
-4.42149e-06
7.75201e-05
-4.92222e-06
7.8029e-05
-5.3375e-06
7.86568e-05
-5.63389e-06
7.93978e-05
-5.78303e-06
8.02512e-05
-5.76311e-06
8.12009e-05
-5.5627e-06
8.67041e-05
-5.13478e-06
7.65117e-05
-4.64711e-06
6.7517e-05
-4.12679e-06
5.95627e-05
-3.59499e-06
5.24865e-05
-3.0688e-06
4.62323e-05
-2.56194e-06
4.06895e-05
-2.08545e-06
3.57361e-05
-1.64727e-06
3.12641e-05
-1.54481e-06
2.73506e-05
-1.09148e-06
2.37973e-05
-6.88018e-07
2.05941e-05
-3.49934e-07
1.74206e-05
-1.113e-07
1.33131e-05
1.74002e-05
-9.60356e-09
2.7812e-05
6.48525e-10
-5.33504e-08
1.93609e-05
-1.27989e-07
2.15466e-05
-2.29702e-07
2.39751e-05
-3.63063e-07
2.66762e-05
-5.34808e-07
2.96839e-05
-7.52374e-07
3.30306e-05
-1.02364e-06
3.67518e-05
-1.35559e-06
4.08987e-05
-1.75397e-06
4.55212e-05
-2.22027e-06
5.06841e-05
-2.75165e-06
5.64608e-05
-3.33675e-06
6.29452e-05
-3.95601e-06
7.02509e-05
-4.57636e-06
7.72759e-05
-5.15254e-06
7.77504e-05
-5.65552e-06
7.8347e-05
-6.04903e-06
7.90719e-05
-6.30079e-06
7.99155e-05
-6.38442e-06
8.08725e-05
-6.28382e-06
8.1922e-05
-5.99263e-06
8.7562e-05
-5.46763e-06
7.73323e-05
-4.89381e-06
6.8284e-05
-4.29988e-06
6.02676e-05
-3.70799e-06
5.31257e-05
-3.13591e-06
4.68062e-05
-2.59658e-06
4.12006e-05
-2.09911e-06
3.6188e-05
-2.03683e-06
3.17561e-05
-1.52523e-06
2.77844e-05
-1.06957e-06
2.41789e-05
-6.72145e-07
2.09163e-05
-3.44039e-07
1.76534e-05
-1.13195e-07
1.34263e-05
1.74037e-05
-5.6846e-08
2.78161e-05
-1.36213e-08
2.85519e-05
-1.2837e-09
-1.31645e-07
1.93645e-05
-2.3298e-07
2.15499e-05
-3.65373e-07
2.39774e-05
-5.35496e-07
2.66769e-05
-7.50884e-07
2.96824e-05
-1.01968e-06
3.30266e-05
-1.34941e-06
3.67456e-05
-1.74678e-06
4.08915e-05
-2.21492e-06
4.55159e-05
-2.75357e-06
5.0686e-05
-3.35521e-06
5.64793e-05
-4.00566e-06
6.29948e-05
-4.67886e-06
7.03534e-05
-5.33467e-06
7.7458e-05
-5.92344e-06
7.80183e-05
-6.41418e-06
7.87122e-05
-6.77094e-06
7.95421e-05
-6.96263e-06
8.04937e-05
-6.96815e-06
8.15569e-05
-6.7762e-06
8.27056e-05
-6.38759e-06
8.84819e-05
-5.76313e-06
7.82016e-05
-5.10375e-06
6.90879e-05
-4.43957e-06
6.09991e-05
-3.79317e-06
5.37829e-05
-3.18132e-06
4.7391e-05
-2.61512e-06
4.17167e-05
-2.59625e-06
3.67474e-05
-2.01169e-06
3.22426e-05
-1.49426e-06
2.82091e-05
-1.04108e-06
2.45478e-05
-6.52294e-07
2.12245e-05
-3.35351e-07
1.78755e-05
-1.13014e-07
1.35393e-05
1.74068e-05
-1.34763e-07
2.78203e-05
-6.10959e-08
2.85558e-05
-1.74691e-08
2.93118e-05
-3.10872e-09
-2.35651e-07
1.93672e-05
-3.66999e-07
2.15515e-05
-5.35388e-07
2.39773e-05
-7.48376e-07
2.66744e-05
-1.01425e-06
2.96769e-05
-1.34089e-06
3.30181e-05
-1.73567e-06
3.67345e-05
-2.20295e-06
4.08795e-05
-2.74446e-06
4.55068e-05
-3.35572e-06
5.06865e-05
-4.02695e-06
5.65006e-05
-4.73807e-06
6.3054e-05
-5.45648e-06
7.04752e-05
-6.13733e-06
7.76719e-05
-6.72435e-06
7.83285e-05
-7.1875e-06
7.91288e-05
-7.49108e-06
8.00706e-05
-7.60869e-06
8.11343e-05
-7.52361e-06
8.23043e-05
-7.2318e-06
8.35498e-05
-6.74143e-06
8.94602e-05
-6.01721e-06
7.9115e-05
-5.27526e-06
6.99236e-05
-4.54623e-06
6.17522e-05
-3.85148e-06
5.44531e-05
-3.20595e-06
4.79818e-05
-3.23544e-06
4.23558e-05
-2.56448e-06
3.73002e-05
-1.97059e-06
3.27189e-05
-1.45319e-06
2.86212e-05
-1.00654e-06
2.49021e-05
-6.28829e-07
2.1518e-05
-3.24206e-07
1.80867e-05
-1.11148e-07
1.36505e-05
1.7409e-05
-2.37831e-07
2.78228e-05
-1.37252e-07
2.85598e-05
-6.50908e-08
2.93155e-05
-2.11407e-08
3.00897e-05
-4.82253e-09
-3.68102e-07
1.93683e-05
-5.34712e-07
2.15508e-05
-7.4519e-07
2.39741e-05
-1.00788e-06
2.6668e-05
-1.33086e-06
2.96669e-05
-1.72197e-06
3.30044e-05
-2.18646e-06
3.6718e-05
-2.72753e-06
4.08626e-05
-3.34313e-06
4.54942e-05
-4.027e-06
5.06866e-05
-4.76403e-06
5.65265e-05
-5.52814e-06
6.31257e-05
-6.28245e-06
7.06203e-05
-6.97485e-06
7.79224e-05
-7.54469e-06
7.86857e-05
-7.96306e-06
7.96007e-05
-8.19821e-06
8.06601e-05
-8.2275e-06
8.18381e-05
-8.04137e-06
8.31139e-05
-7.64342e-06
8.44518e-05
-7.049e-06
9.0492e-05
-6.22732e-06
8.00671e-05
-5.40803e-06
7.07854e-05
-4.6204e-06
6.25211e-05
-3.88388e-06
5.5131e-05
-3.96804e-06
4.87144e-05
-3.1964e-06
4.29878e-05
-2.51185e-06
3.78414e-05
-1.91577e-06
3.31815e-05
-1.40347e-06
2.90181e-05
-9.66974e-07
2.52402e-05
-6.02401e-07
2.17962e-05
-3.1111e-07
1.82867e-05
-1.07983e-07
1.37585e-05
1.74097e-05
-3.68807e-07
2.78221e-05
-2.37152e-07
2.85619e-05
-1.39425e-07
2.93192e-05
-6.88129e-08
3.00932e-05
-2.46333e-08
3.08896e-05
-6.42433e-09
-5.33642e-07
1.93672e-05
-7.41581e-07
2.15472e-05
-1.00096e-06
2.39672e-05
-1.31996e-06
2.66571e-05
-1.70669e-06
2.96516e-05
-2.16703e-06
3.2985e-05
-2.7053e-06
3.66958e-05
-3.32128e-06
4.08408e-05
-4.01151e-06
4.54787e-05
-4.76496e-06
5.06875e-05
-5.56108e-06
5.65595e-05
-6.36999e-06
6.32132e-05
-7.14775e-06
7.07932e-05
-7.83691e-06
7.82147e-05
-8.37194e-06
7.90946e-05
-8.72927e-06
8.01318e-05
-8.88012e-06
8.13127e-05
-8.80869e-06
8.26055e-05
-8.51321e-06
8.39837e-05
-8.00488e-06
8.54077e-05
-7.30675e-06
9.15714e-05
-6.39243e-06
8.10515e-05
-5.50211e-06
7.16671e-05
-4.66298e-06
6.33002e-05
-4.80989e-06
5.59729e-05
-3.92144e-06
4.94394e-05
-3.13098e-06
4.36069e-05
-2.44153e-06
3.83672e-05
-1.84949e-06
3.36275e-05
-1.34684e-06
2.9398e-05
-9.23567e-07
2.55614e-05
-5.73801e-07
2.20589e-05
-2.96591e-07
1.84753e-05
-1.03873e-07
1.38624e-05
1.74083e-05
-5.32311e-07
2.78167e-05
-3.63431e-07
2.85608e-05
-2.36023e-07
2.93211e-05
-1.41269e-07
3.00967e-05
-7.22647e-08
3.08929e-05
-2.7944e-08
3.17095e-05
-7.91326e-09
-7.37745e-07
1.93634e-05
-9.93793e-07
2.154e-05
-1.30864e-06
2.39559e-05
-1.69058e-06
2.6641e-05
-2.14588e-06
2.96305e-05
-2.67968e-06
3.29594e-05
-3.29314e-06
3.66677e-05
-3.985e-06
4.08143e-05
-4.74752e-06
4.54613e-05
-5.56473e-06
5.06911e-05
-6.41278e-06
5.66022e-05
-7.25512e-06
6.33206e-05
-8.0425e-06
7.09988e-05
-8.71116e-06
7.85539e-05
-9.19436e-06
7.95597e-05
-9.47334e-06
8.0725e-05
-9.52562e-06
8.20296e-05
-9.3431e-06
8.34353e-05
-8.93189e-06
8.49107e-05
-8.31165e-06
8.64126e-05
-7.5128e-06
9.26918e-05
-6.51205e-06
8.20614e-05
-5.55828e-06
7.25624e-05
-5.7792e-06
6.42695e-05
-4.7559e-06
5.68073e-05
-3.84216e-06
5.01506e-05
-3.04335e-06
4.42087e-05
-2.35665e-06
3.88744e-05
-1.77421e-06
3.40549e-05
-1.28514e-06
2.97596e-05
-8.77541e-07
2.58651e-05
-5.43799e-07
2.23061e-05
-2.81146e-07
1.86525e-05
-9.91173e-08
1.39615e-05
1.74044e-05
-7.33822e-07
2.78049e-05
-5.20505e-07
2.85549e-05
-3.57498e-07
2.93195e-05
-2.34487e-07
3.00982e-05
-1.42771e-07
3.08961e-05
-7.54411e-08
3.17126e-05
-3.10688e-08
3.25534e-05
-9.29297e-09
-9.8659e-07
1.93562e-05
-1.29727e-06
2.15286e-05
-1.6742e-06
2.39395e-05
-2.12393e-06
2.6619e-05
-2.65214e-06
2.96029e-05
-3.26102e-06
3.29273e-05
-3.95103e-06
3.66337e-05
-4.717e-06
4.07837e-05
-5.54673e-06
4.54433e-05
-6.42149e-06
5.06999e-05
-7.31121e-06
5.66583e-05
-8.17419e-06
6.34523e-05
-8.95466e-06
7.12423e-05
-9.58592e-06
7.89455e-05
-9.99879e-06
8.00851e-05
-1.01834e-05
8.13828e-05
-1.01246e-05
8.28112e-05
-9.82242e-06
8.43259e-05
-9.29193e-06
8.58909e-05
-8.56109e-06
8.74608e-05
-7.66603e-06
9.38458e-05
-6.58672e-06
8.30899e-05
-6.89578e-06
7.36789e-05
-5.71867e-06
6.52323e-05
-4.66193e-06
5.76271e-05
-3.73542e-06
5.08427e-05
-2.93759e-06
4.47896e-05
-2.26046e-06
3.93606e-05
-1.69242e-06
3.44622e-05
-1.2201e-06
3.01021e-05
-8.29998e-07
2.61513e-05
-5.13089e-07
2.25381e-05
-2.65229e-07
1.88187e-05
-9.39517e-08
1.40554e-05
1.73973e-05
-9.7951e-07
2.77847e-05
-7.13628e-07
2.85423e-05
-5.07943e-07
2.9313e-05
-3.50927e-07
3.00961e-05
-2.32476e-07
3.08972e-05
-1.43926e-07
3.17155e-05
-7.83394e-08
3.25563e-05
-3.39981e-08
3.34193e-05
-1.05628e-08
-1.28608e-06
1.9345e-05
-1.65796e-06
2.15124e-05
-2.10185e-06
2.39174e-05
-2.62377e-06
2.65907e-05
-3.22669e-06
2.95686e-05
-3.91231e-06
3.28885e-05
-4.67754e-06
3.65942e-05
-5.51322e-06
4.07502e-05
-6.40485e-06
4.54266e-05
-7.32793e-06
5.07166e-05
-8.24759e-06
5.67317e-05
-9.11563e-06
6.36133e-05
-9.87283e-06
7.15292e-05
-1.04479e-05
7.93945e-05
-1.07728e-05
8.06746e-05
-1.08486e-05
8.21067e-05
-1.06678e-05
8.36566e-05
-1.02401e-05
8.52741e-05
-9.58978e-06
8.69196e-05
-8.75142e-06
8.85462e-05
-7.76661e-06
9.50257e-05
-8.1826e-06
8.43767e-05
-6.83061e-06
7.47909e-05
-5.60956e-06
6.618e-05
-4.53432e-06
5.8426e-05
-3.60635e-06
5.15115e-05
-2.81784e-06
4.5347e-05
-2.15613e-06
3.98243e-05
-1.60641e-06
3.48485e-05
-1.15324e-06
3.04254e-05
-7.81902e-07
2.64201e-05
-4.82294e-07
2.27551e-05
-2.49175e-07
1.89739e-05
-8.8576e-08
1.4144e-05
1.73865e-05
-1.27526e-06
2.77538e-05
-9.48608e-07
2.85212e-05
-6.92527e-07
2.92997e-05
-4.94698e-07
3.00891e-05
-3.43845e-07
3.08948e-05
-2.30033e-07
3.17163e-05
-1.44719e-07
3.25589e-05
-8.09465e-08
3.3422e-05
-3.67343e-08
3.43052e-05
-1.17245e-08
-1.64216e-06
1.93292e-05
-2.08012e-06
2.14907e-05
-2.59538e-06
2.3889e-05
-3.19144e-06
2.65554e-05
-3.87094e-06
2.95272e-05
-4.63238e-06
3.28434e-05
-5.46904e-06
3.65501e-05
-6.36987e-06
4.07152e-05
-7.31511e-06
4.54138e-05
-8.27586e-06
5.07448e-05
-9.21091e-06
5.6827e-05
-1.00684e-05
6.38089e-05
-1.07837e-05
7.18651e-05
-1.12843e-05
7.99059e-05
-1.15049e-05
8.13309e-05
-1.14585e-05
8.28974e-05
-1.11477e-05
8.45641e-05
-1.05918e-05
8.62761e-05
-9.82286e-06
8.79911e-05
-8.88228e-06
8.96619e-05
-9.66592e-06
9.6509e-05
-8.11672e-06
8.56628e-05
-6.70672e-06
7.5888e-05
-5.45945e-06
6.71051e-05
-4.37933e-06
5.9199e-05
-3.46008e-06
5.21537e-05
-2.68805e-06
4.58789e-05
-2.04659e-06
4.02645e-05
-1.51819e-06
3.52135e-05
-1.08589e-06
3.07293e-05
-7.34103e-07
2.66719e-05
-4.51855e-07
2.29578e-05
-2.33288e-07
1.91186e-05
-8.31433e-08
1.42271e-05
1.73713e-05
-1.627e-06
2.77099e-05
-1.23131e-06
2.84892e-05
-9.16591e-07
2.92776e-05
-6.70466e-07
3.0075e-05
-4.80671e-07
3.08871e-05
-3.36157e-07
3.17134e-05
-2.2713e-07
3.25594e-05
-1.45177e-07
3.34243e-05
-8.32794e-08
3.43077e-05
-3.92719e-08
3.52191e-05
-1.27823e-08
-2.05908e-06
1.93082e-05
-2.56755e-06
2.14629e-05
-3.15624e-06
2.38538e-05
-3.82848e-06
2.65129e-05
-4.58399e-06
2.94788e-05
-5.41795e-06
3.27923e-05
-6.32214e-06
3.65023e-05
-7.28072e-06
4.06809e-05
-8.26993e-06
4.54079e-05
-9.25484e-06
5.07888e-05
-1.01906e-05
5.69492e-05
-1.10195e-05
6.40447e-05
-1.16746e-05
7.22554e-05
-1.2083e-05
8.0484e-05
-1.21839e-05
8.20563e-05
-1.20047e-05
8.37545e-05
-1.15587e-05
8.55311e-05
-1.08739e-05
8.73271e-05
-9.9902e-06
8.9099e-05
-1.10767e-05
9.10727e-05
-9.60699e-06
9.79993e-05
-7.98027e-06
8.69364e-05
-6.5331e-06
7.69617e-05
-5.27591e-06
6.80017e-05
-4.20328e-06
5.99422e-05
-3.30146e-06
5.27671e-05
-2.55183e-06
4.63842e-05
-1.93434e-06
4.06806e-05
-1.42946e-06
3.5557e-05
-1.01917e-06
3.10144e-05
-6.8718e-07
2.69073e-05
-4.22179e-07
2.31467e-05
-2.17793e-07
1.92532e-05
-7.776e-08
1.43049e-05
1.73512e-05
-2.03897e-06
2.76499e-05
-1.56702e-06
2.84439e-05
-1.186e-06
2.92446e-05
-8.83541e-07
3.00521e-05
-6.47519e-07
3.08724e-05
-4.65947e-07
3.17052e-05
-3.27916e-07
3.2556e-05
-2.2378e-07
3.34244e-05
-1.45269e-07
3.43097e-05
-8.53198e-08
3.52214e-05
-4.16088e-08
3.6155e-05
-1.37374e-08
-2.54068e-06
1.92813e-05
-3.12178e-06
2.14284e-05
-3.78609e-06
2.38114e-05
-4.53421e-06
2.64632e-05
-5.36284e-06
2.94237e-05
-6.266e-06
3.27361e-05
-7.2311e-06
3.64527e-05
-8.23873e-06
4.06497e-05
-9.25946e-06
4.54125e-05
-1.02549e-05
5.08531e-05
-1.11741e-05
5.71038e-05
-1.19563e-05
6.43264e-05
-1.25329e-05
7.27052e-05
-1.28323e-05
8.11325e-05
-1.28002e-05
8.28518e-05
-1.24808e-05
8.46765e-05
-1.18965e-05
8.65537e-05
-1.10846e-05
8.84215e-05
-1.2487e-05
9.05093e-05
-1.10332e-05
9.24989e-05
-9.4633e-06
9.94823e-05
-7.78377e-06
8.8187e-05
-6.31882e-06
7.80046e-05
-5.06658e-06
6.8865e-05
-4.01201e-06
6.06527e-05
-3.13491e-06
5.33502e-05
-2.41226e-06
4.68621e-05
-1.8215e-06
4.10727e-05
-1.34167e-06
3.58795e-05
-9.53834e-07
3.12811e-05
-6.41671e-07
2.71268e-05
-3.93559e-07
2.33225e-05
-2.02835e-07
1.93783e-05
-7.25118e-08
1.43774e-05
1.73256e-05
-2.51506e-06
2.75708e-05
-1.95988e-06
2.83821e-05
-1.50525e-06
2.91977e-05
-1.13911e-06
3.00178e-05
-8.49235e-07
3.08485e-05
-6.2366e-07
3.16898e-05
-4.50552e-07
3.25472e-05
-3.19118e-07
3.34206e-05
-2.19983e-07
3.43095e-05
-1.45019e-07
3.52232e-05
-8.7078e-08
3.61571e-05
-4.37463e-08
3.65888e-05
-1.45843e-08
-3.08856e-06
1.92481e-05
-3.74459e-06
2.13869e-05
-4.48443e-06
2.37616e-05
-5.3059e-06
2.64062e-05
-6.20484e-06
2.93626e-05
-7.17128e-06
3.26763e-05
-8.18946e-06
3.64034e-05
-9.23469e-06
4.06249e-05
-1.02743e-05
4.54319e-05
-1.12639e-05
5.09428e-05
-1.21489e-05
5.72964e-05
-1.28661e-05
6.46597e-05
-1.33465e-05
7.32194e-05
-1.35218e-05
8.1854e-05
-1.33466e-05
8.37176e-05
-1.28811e-05
8.56612e-05
-1.21584e-05
8.76275e-05
-1.38912e-05
8.98257e-05
-1.24695e-05
9.19456e-05
-1.08913e-05
9.39269e-05
-9.24685e-06
0.000100945
-7.53772e-06
8.94059e-05
-6.07299e-06
7.9011e-05
-4.83851e-06
6.96915e-05
-3.81089e-06
6.13287e-05
-2.96417e-06
5.39021e-05
-2.27198e-06
4.73126e-05
-1.70989e-06
4.14409e-05
-1.25577e-06
3.61815e-05
-8.90592e-07
3.153e-05
-5.97952e-07
2.73311e-05
-3.66163e-07
2.34858e-05
-1.88531e-07
1.94943e-05
-6.7461e-08
1.44449e-05
1.72939e-05
-3.0569e-06
2.74693e-05
-2.41354e-06
2.83013e-05
-1.87902e-06
2.91344e-05
-1.44197e-06
2.99697e-05
-1.09099e-06
3.08133e-05
-8.13973e-07
3.1665e-05
-5.9894e-07
3.25311e-05
-4.34433e-07
3.34113e-05
-3.09773e-07
3.43053e-05
-2.15751e-07
3.52226e-05
-1.44426e-07
3.61586e-05
-8.85514e-08
3.65908e-05
-4.56511e-08
3.55527e-05
-1.53061e-08
-3.70457e-06
1.92081e-05
-4.43563e-06
2.13381e-05
-5.24877e-06
2.37045e-05
-6.14122e-06
2.63426e-05
-7.10515e-06
2.92964e-05
-8.12781e-06
3.26147e-05
-9.18855e-06
3.63573e-05
-1.02598e-05
4.06103e-05
-1.13029e-05
4.54709e-05
-1.22696e-05
5.10635e-05
-1.31025e-05
5.75328e-05
-1.37366e-05
6.50497e-05
-1.41043e-05
7.3802e-05
-1.41431e-05
8.26505e-05
-1.38164e-05
8.46529e-05
-1.32023e-05
8.67051e-05
-1.52817e-05
8.90179e-05
-1.39119e-05
9.12681e-05
-1.23396e-05
9.33939e-05
-1.06639e-05
9.5344e-05
-8.96976e-06
0.000102377
-7.25275e-06
9.05857e-05
-5.80405e-06
7.99766e-05
-4.5982e-06
7.04788e-05
-3.60452e-06
6.19691e-05
-2.79247e-06
5.44226e-05
-2.13322e-06
4.77359e-05
-1.60073e-06
4.17859e-05
-1.17268e-06
3.64636e-05
-8.29927e-07
3.1762e-05
-5.56229e-07
2.75212e-05
-3.40129e-07
2.36374e-05
-1.74962e-07
1.96018e-05
-6.26473e-08
1.45075e-05
1.72558e-05
-3.66643e-06
2.73427e-05
-2.93029e-06
2.81978e-05
-2.31004e-06
2.90514e-05
-1.796e-06
2.99048e-05
-1.3771e-06
3.07638e-05
-1.04155e-06
3.16287e-05
-7.77658e-07
3.25057e-05
-5.73494e-07
3.33946e-05
-4.1774e-07
3.42954e-05
-2.99938e-07
3.52179e-05
-2.11102e-07
3.61576e-05
-1.43493e-07
3.6592e-05
-8.97534e-08
3.55543e-05
-4.72683e-08
3.45446e-05
-1.59213e-08
-4.38852e-06