/*--------------------------------*- C++ -*----------------------------------*\
  =========                 |
  \\      /  F ield         | OpenFOAM: The Open Source CFD Toolbox
   \\    /   O peration     | Website:  https://openfoam.org
    \\  /    A nd           | Version:  8
     \\/     M anipulation  |
\*---------------------------------------------------------------------------*/
FoamFile
{
    version     2.0;
    format      ascii;
    class       volScalarField;
    location    "0.17";
    object      nut;
}
// * * * * * * * * * * * * * * * * * * * * * * * * * * * * * * * * * * * * * //

dimensions      [0 2 -1 0 0 0 0];

internalField   nonuniform List<scalar> 
15677
(
0.00016825
0.000653029
0.000148417
0.00151379
0.000442454
0.000141511
0.00267561
0.000875784
0.000381129
0.000142381
0.00392144
0.00151886
0.000686573
0.000354225
0.000145465
0.00502443
0.00235603
0.00114626
0.000585542
0.000340229
0.000151217
0.00584092
0.00331725
0.00178054
0.000947547
0.000529209
0.00033199
0.000157007
0.00633519
0.00429855
0.00256731
0.00146293
0.000820697
0.000492401
0.000326964
0.00016245
0.00656295
0.00518762
0.00345251
0.00213106
0.00125679
0.00073702
0.00046737
0.000324094
0.00016722
0.00665852
0.00589344
0.00435498
0.00292147
0.00184087
0.00111185
0.000677168
0.000450373
0.000322521
0.000171443
0.00670555
0.00633827
0.00518058
0.00377828
0.00255609
0.00163105
0.00100416
0.000633912
0.000438626
0.000321965
0.000174999
0.00671442
0.00655347
0.00584518
0.00462465
0.00336175
0.00228549
0.00147192
0.000923799
0.000602003
0.000430704
0.000321902
0.000178129
0.00670994
0.00666152
0.00629559
0.00537664
0.00419594
0.00304408
0.00207672
0.0013483
0.00086182
0.000578414
0.000425237
0.000322383
0.000180737
0.00670629
0.00669875
0.00652957
0.00596413
0.00498331
0.00385604
0.00279436
0.00191065
0.00125049
0.000813724
0.000560673
0.000421763
0.00032301
0.000183073
0.00670539
0.00670439
0.00664681
0.0063567
0.00564941
0.00465467
0.00358181
0.00259215
0.00177666
0.00117228
0.000775932
0.000547522
0.000419404
0.000323925
0.000185107
0.00670542
0.00670289
0.00668788
0.00656279
0.00614167
0.00536749
0.0043798
0.00335532
0.00242636
0.00166695
0.00110884
0.000746186
0.000537432
0.000418189
0.000324766
0.000186911
0.00670556
0.00670168
0.00669638
0.0066565
0.00644659
0.00593296
0.00511971
0.00414695
0.00316664
0.00228836
0.00157657
0.00105717
0.000722501
0.000530174
0.000417309
0.000325814
0.00018856
0.00670562
0.00670122
0.00669711
0.00668489
0.00660475
0.00632132
0.00573649
0.00490233
0.00394902
0.00300741
0.0021731
0.00150146
0.0010152
0.000704031
0.000524456
0.000417187
0.000326742
0.000189967
0.00670563
0.00670113
0.0066967
0.00669165
0.00666367
0.00654101
0.00618763
0.00555568
0.00471259
0.00377935
0.00287276
0.00207611
0.00143919
0.000981131
0.000689148
0.000520592
0.000417111
0.000327818
0.000191387
0.00670562
0.00670115
0.0066964
0.00669272
0.00668227
0.00663442
0.00646746
0.00605706
0.00539225
0.00454656
0.00363394
0.00275824
0.0019947
0.00138763
0.000953256
0.000677784
0.00051747
0.000417626
0.000328788
0.000192497
0.0067056
0.00670118
0.00669626
0.00669267
0.00668726
0.00666905
0.00659784
0.00638887
0.00593376
0.00524519
0.00440195
0.00350893
0.00266118
0.00192647
0.001345
0.000930952
0.000668621
0.000515728
0.000418023
0.000329851
0.000193813
0.00670558
0.00670121
0.00669619
0.00669256
0.00668819
0.00668075
0.00665131
0.00655582
0.00631026
0.0058184
0.00511441
0.00427593
0.00340203
0.00257909
0.00186969
0.0013102
0.000912962
0.000662031
0.000514257
0.000418923
0.000330871
0.000194696
0.00670557
0.00670122
0.00669615
0.00669252
0.00668816
0.00668418
0.00667163
0.00663017
0.00651087
0.00623216
0.00571308
0.00499835
0.00416713
0.00331094
0.00251046
0.00182293
0.00128204
0.000899069
0.000656773
0.000513931
0.000419624
0.000331898
0.000195996
0.00670557
0.00670123
0.00669612
0.00669251
0.00668801
0.006685
0.00667846
0.00666131
0.00660584
0.00646447
0.00615909
0.00561736
0.00489708
0.00407366
0.00323444
0.00245358
0.00178504
0.00125986
0.000888348
0.000653617
0.000513578
0.000420781
0.00033303
0.000196715
0.00670557
0.00670123
0.00669611
0.00669251
0.0066879
0.00668512
0.0066804
0.00667324
0.00664826
0.00658026
0.0064187
0.0060907
0.00553281
0.00480902
0.00399471
0.00317074
0.00240769
0.00175534
0.00124305
0.000880821
0.000651127
0.000514257
0.000421675
0.000333931
0.000198013
0.00670558
0.00670122
0.0066961
0.0066925
0.00668784
0.00668509
0.00668077
0.0066774
0.00666561
0.00663522
0.00655357
0.00637481
0.006029
0.00545773
0.00473429
0.00392913
0.00311994
0.00237177
0.00173281
0.00123065
0.000875551
0.000650567
0.000514701
0.000423087
0.000335367
0.0001987
0.00670558
0.00670121
0.0066961
0.00669248
0.0066878
0.00668505
0.00668074
0.00667867
0.00667201
0.0066595
0.00662012
0.0065278
0.00633452
0.00597276
0.00539477
0.00467277
0.00387681
0.00307938
0.00234448
0.00171697
0.00122324
0.000873281
0.000650196
0.000516174
0.000423994
0.000336111
5.33377e-05
0.00670559
0.0067012
0.0066961
0.00669247
0.00668779
0.006685
0.00668065
0.00667896
0.00667408
0.00666946
0.00665052
0.0066069
0.00650368
0.00629786
0.00592727
0.00534163
0.004622
0.00383498
0.00305115
0.00232778
0.00170887
0.00121983
0.000872469
0.000651716
0.000517264
0.000426374
0.000283482
6.32748e-05
0.0067056
0.00670119
0.00669611
0.00669245
0.00668778
0.00668496
0.00668058
0.00667895
0.0066746
0.0066732
0.00666334
0.00664528
0.00659281
0.00648165
0.0062673
0.00588521
0.00529985
0.00458785
0.00381127
0.0030351
0.00231873
0.0017054
0.00121908
0.000874209
0.0006533
0.000519345
0.000419904
0.000219349
7.06207e-05
0.0067056
0.00670119
0.00669611
0.00669244
0.00668777
0.00668492
0.00668054
0.00667887
0.00667465
0.0066744
0.0066683
0.0066627
0.00663655
0.00658294
0.00646556
0.00623965
0.00586121
0.00527572
0.00456562
0.00379426
0.00302566
0.00231557
0.00170647
0.00122258
0.000877154
0.000655611
0.000520523
0.000399983
0.000177942
7.60295e-05
0.00670561
0.00670118
0.00669612
0.00669242
0.00668777
0.00668489
0.00668051
0.00667879
0.00667459
0.00667464
0.00667001
0.00666999
0.00665663
0.00663552
0.00657364
0.00644958
0.00623102
0.00584467
0.00525739
0.00455118
0.00378647
0.00302463
0.00231971
0.0017135
0.00122887
0.000881682
0.00065884
0.000518375
0.000367189
0.000152504
8.04033e-05
0.00670562
0.00670117
0.00669612
0.00669241
0.00668777
0.00668486
0.0066805
0.00667871
0.00667453
0.00667459
0.00667047
0.0066727
0.0066653
0.00666104
0.00662926
0.00657172
0.00644856
0.00622391
0.00583437
0.00524835
0.00454926
0.00379149
0.00303486
0.00233192
0.00172526
0.0012381
0.000887856
0.000661867
0.000512324
0.000336022
0.000134191
8.37648e-05
0.00670562
0.00670116
0.00669613
0.00669239
0.00668778
0.00668483
0.00668048
0.00667864
0.00667448
0.00667446
0.00667053
0.00667346
0.00666878
0.00667247
0.00665642
0.00663794
0.00657458
0.0064512
0.00622236
0.00583604
0.00525629
0.00456199
0.00380866
0.00305413
0.00235077
0.00174142
0.00125019
0.000895165
0.000664517
0.000500949
0.000305908
0.000121255
8.61442e-05
0.00670563
0.00670115
0.00669613
0.00669238
0.00668778
0.00668481
0.00668048
0.00667858
0.00667444
0.00667433
0.00667049
0.00667353
0.00666997
0.00667707
0.00666919
0.0066717
0.00664353
0.00658301
0.00645965
0.00623537
0.00585374
0.00527756
0.00458752
0.00383668
0.00308211
0.00237607
0.00176158
0.00126473
0.000903563
0.00066573
0.000485571
0.000279889
0.000112779
8.78997e-05
0.00670563
0.00670114
0.00669614
0.00669237
0.00668778
0.00668478
0.00668047
0.00667853
0.00667441
0.00667421
0.00667042
0.00667339
0.00667029
0.00667856
0.00667496
0.00668769
0.00667909
0.00665595
0.0066002
0.00648157
0.00626227
0.00588498
0.00531287
0.00462561
0.00387553
0.00311862
0.00240728
0.0017856
0.00128168
0.000912721
0.000665831
0.000468754
0.000260095
0.000107022
8.92576e-05
0.00670114
0.00670564
0.00669615
0.00669236
0.00668779
0.00668476
0.00668047
0.00667848
0.00667438
0.00667411
0.00667035
0.00667321
0.00667032
0.00667888
0.00667719
0.00669473
0.00669639
0.00669422
0.00667936
0.00662889
0.00651628
0.00630295
0.00593121
0.00536221
0.00467655
0.00392485
0.00316314
0.00244439
0.00181308
0.00130053
0.000923405
0.000664734
0.000453689
0.000244917
0.000102988
9.03572e-05
0.00669615
0.00670114
0.00670566
0.00669234
0.00668779
0.00668474
0.00668047
0.00667844
0.00667437
0.00667402
0.00667029
0.00667303
0.00667025
0.00667879
0.00667795
0.00669751
0.00670433
0.00671335
0.00672179
0.00671288
0.00667021
0.00656527
0.00635926
0.0059924
0.00542608
0.00473991
0.00398453
0.00321566
0.0024867
0.00184396
0.00132409
0.000936393
0.000663041
0.000440884
0.00023311
0.000100117
9.12862e-05
0.00669234
0.00669618
0.00670116
0.00670568
0.0066878
0.00668472
0.00668047
0.0066784
0.00667435
0.00667393
0.00667023
0.00667286
0.00667017
0.00667858
0.00667816
0.00669847
0.00670764
0.00672252
0.00674358
0.00675899
0.00675943
0.0067259
0.00663034
0.00643223
0.00607038
0.00550493
0.00481615
0.0040542
0.0032753
0.00253426
0.00188148
0.00135222
0.000949972
0.000661989
0.000430207
0.000223783
9.8025e-05
9.2097e-05
0.00668781
0.00669236
0.00669624
0.00670118
0.0067057
0.00668471
0.00668048
0.00667836
0.00667435
0.00667386
0.00667019
0.00667272
0.00667008
0.00667835
0.00667818
0.00669874
0.00670893
0.00672661
0.00675456
0.00678372
0.00680961
0.00682051
0.00679811
0.00671239
0.00652296
0.00616476
0.00559899
0.00490423
0.00413327
0.00334218
0.00259206
0.00192775
0.00138168
0.000964373
0.000661336
0.000421418
0.000216301
9.65031e-05
9.28241e-05
0.00668469
0.00668785
0.00669241
0.0066963
0.0067012
0.00670572
0.00668048
0.00667833
0.00667434
0.0066738
0.00667016
0.00667259
0.00667
0.00667812
0.00667813
0.00669874
0.00670942
0.00672843
0.00675988
0.0067968
0.00683729
0.00687451
0.00689818
0.0068876
0.00681304
0.00663125
0.00627608
0.00570822
0.00500509
0.00422166
0.00342329
0.0026627
0.00197766
0.00141253
0.000979343
0.000661897
0.000414132
0.000210199
9.5365e-05
9.3486e-05
0.00668049
0.00668472
0.00668795
0.00669246
0.00669637
0.00670122
0.00670574
0.0066783
0.00667434
0.00667373
0.00667013
0.00667248
0.00666992
0.00667792
0.00667807
0.00669864
0.0067096
0.00672932
0.00676259
0.00680382
0.00685342
0.00690676
0.00695862
0.0069946
0.00699561
0.00693125
0.00675727
0.00640368
0.00583156
0.0051175
0.00432897
0.00352236
0.00273858
0.00203045
0.00144446
0.000995051
0.00066294
0.000408163
0.00020516
9.45357e-05
9.4098e-05
0.00667827
0.00668055
0.00668479
0.00668804
0.00669251
0.00669643
0.00670124
0.00670576
0.00667435
0.00667367
0.00667011
0.00667238
0.00666985
0.00667775
0.00667801
0.00669852
0.00670965
0.00672982
0.00676415
0.00680784
0.00686287
0.00692638
0.00699621
0.00706276
0.00711408
0.00712572
0.0070685
0.00689975
0.00654628
0.00596749
0.00525535
0.00446059
0.0036285
0.00281888
0.0020856
0.00147728
0.00101124
0.00066561
0.000403299
0.00020086
9.39004e-05
9.46652e-05
0.00667436
0.00667829
0.00668067
0.00668486
0.00668814
0.00669257
0.0066965
0.00670126
0.00670579
0.00667362
0.00667011
0.00667229
0.0066698
0.00667761
0.00667795
0.0066984
0.00670966
0.00673014
0.00676521
0.00681053
0.00686898
0.00693894
0.00702092
0.00710698
0.00719106
0.00725602
0.00728018
0.00722816
0.00705785
0.00670241
0.00613206
0.00542111
0.0046024
0.00374136
0.00290263
0.00214256
0.00151072
0.00102733
0.000668616
0.000399345
0.000197251
9.34488e-05
9.51965e-05
0.00667357
0.00667442
0.00667837
0.00668079
0.00668494
0.00668824
0.00669262
0.00669657
0.00670128
0.00670581
0.00667011
0.0066722
0.00666975
0.0066775
0.00667789
0.00669828
0.00670965
0.00673038
0.00676602
0.00681258
0.00687348
0.00694782
0.0070384
0.00713829
0.00724427
0.0073441
0.00742398
0.00745744
0.00741086
0.00723654
0.00688765
0.0063265
0.00559656
0.00475153
0.00385945
0.00298903
0.00220073
0.00154484
0.00104337
0.000672089
0.000396245
0.000194098
9.30949e-05
9.56913e-05
0.00667012
0.00667356
0.00667455
0.00667844
0.00668092
0.00668502
0.00668835
0.00669268
0.00669664
0.0067013
0.00670583
0.00667212
0.00666972
0.00667741
0.00667781
0.00669819
0.00670964
0.00673059
0.00676669
0.0068143
0.00687712
0.00695487
0.00705188
0.00716217
0.00728495
0.00740878
0.00752641
0.00761783
0.00765915
0.00761433
0.00745743
0.00711515
0.00653091
0.00577904
0.00490476
0.00398005
0.00307717
0.00225961
0.00157929
0.00105927
0.000676164
0.000393686
0.000191415
9.28591e-05
9.61574e-05
0.00667204
0.00667016
0.00667359
0.00667468
0.00667852
0.00668106
0.00668509
0.00668846
0.00669274
0.00669671
0.00670132
0.00670585
0.0066697
0.00667733
0.00667773
0.00669811
0.00670964
0.00673077
0.00676727
0.0068158
0.00688022
0.00696092
0.00706319
0.00718163
0.00731842
0.00746169
0.00760645
0.00773791
0.00783997
0.00788545
0.00786352
0.00772685
0.00736265
0.00674232
0.00596301
0.00505982
0.00410244
0.0031661
0.00231872
0.00161374
0.00107511
0.000680645
0.000391724
0.000189029
9.26698e-05
9.6591e-05
0.0066697
0.00667194
0.00667023
0.00667362
0.00667482
0.00667859
0.0066812
0.00668517
0.00668858
0.0066928
0.00669678
0.00670135
0.00670588
0.00667726
0.00667763
0.00669807
0.00670966
0.00673095
0.00676779
0.00681715
0.00688295
0.00696631
0.00707311
0.00719855
0.0073473
0.00750773
0.00767606
0.00783725
0.00798255
0.00809097
0.00816457
0.00816915
0.00801691
0.00762639
0.00696564
0.0061492
0.00521571
0.00422455
0.00325489
0.00237758
0.00164796
0.00109065
0.000685184
0.000390191
0.000186987
9.25616e-05
9.70004e-05
0.00667719
0.00666963
0.00667183
0.00667032
0.00667365
0.00667498
0.00667867
0.00668135
0.00668525
0.0066887
0.00669286
0.00669686
0.00670137
0.0067059
0.00667752
0.00669808
0.00670969
0.00673111
0.00676826
0.00681836
0.00688538
0.00697121
0.00708199
0.00721385
0.00737335
0.00754875
0.00773971
0.00792848
0.00810726
0.00826122
0.00840322
0.00851003
0.0085013
0.00832471
0.00789982
0.0071965
0.0063337
0.00536851
0.00434511
0.00334275
0.00243574
0.00168169
0.00110616
0.000689664
0.000389037
0.000185142
9.24718e-05
9.73797e-05
0.00667742
0.00667694
0.00666947
0.00667172
0.00667042
0.00667367
0.00667515
0.00667875
0.00668151
0.00668534
0.00668882
0.00669292
0.00669694
0.0067014
0.00670592
0.00669814
0.00670973
0.00673126
0.00676867
0.00681946
0.00688759
0.00697568
0.00709002
0.00722794
0.00739728
0.00758632
0.00779858
0.00801568
0.0082273
0.00841748
0.00861163
0.00879447
0.00888972
0.00885705
0.00864693
0.00818021
0.00743261
0.0065216
0.00551821
0.00446318
0.00342899
0.00249285
0.00171477
0.00112147
0.000694097
0.000388144
0.000183556
9.24406e-05
9.77387e-05
0.00669825
0.00667682
0.00667653
0.00666933
0.00667159
0.00667056
0.0066737
0.00667533
0.00667883
0.00668167
0.00668542
0.00668894
0.00669299
0.00669701
0.00670143
0.00670594
0.00670975
0.00673138
0.00676902
0.00682045
0.00688959
0.00697977
0.00709732
0.007241
0.00741933
0.00762132
0.00785418
0.00809846
0.00834553
0.0085741
0.00881327
0.00905761
0.0092307
0.0093018
0.00923385
0.00898091
0.00846532
0.00766868
0.00671016
0.00566449
0.00457819
0.00351314
0.00254858
0.00174706
0.00113644
0.000698451
0.000387477
0.000182101
9.24118e-05
9.80696e-05
0.00670973
0.00669774
0.00667571
0.00667608
0.00666926
0.00667145
0.00667072
0.00667371
0.00667552
0.00667891
0.00668184
0.00668552
0.00668906
0.00669306
0.00669708
0.00670145
0.00670595
0.00673147
0.00676933
0.00682134
0.00689142
0.00698351
0.007104
0.00725311
0.00743964
0.00765419
0.00790707
0.00817725
0.00845969
0.00873442
0.00902534
0.00932596
0.00956358
0.00971311
0.00974647
0.00963083
0.00932494
0.00875317
0.00790325
0.00689728
0.00580678
0.00468947
0.00359459
0.00260268
0.00177842
0.00115104
0.000702724
0.000386983
0.000180848
9.24271e-05
9.83836e-05
0.00673156
0.00670869
0.00669647
0.00667487
0.00667554
0.00666926
0.00667128
0.00667091
0.00667373
0.00667572
0.00667899
0.00668201
0.00668561
0.00668919
0.00669313
0.00669715
0.00670148
0.00670597
0.00676958
0.00682216
0.0068931
0.00698693
0.00711011
0.00726429
0.00745834
0.00768517
0.0079571
0.00825217
0.00857081
0.00889575
0.00925005
0.00961894
0.00992075
0.0101398
0.0102501
0.0102284
0.0100493
0.00967837
0.00904241
0.00813516
0.00708152
0.00594496
0.00479602
0.00367302
0.00265493
0.00180874
0.0011652
0.000706886
0.000386615
0.000179682
9.24355e-05
9.86714e-05
0.00676982
0.00672997
0.00670654
0.00669479
0.00667433
0.00667488
0.00666936
0.00667108
0.00667113
0.00667375
0.00667593
0.00667909
0.00668217
0.00668571
0.0066893
0.0066932
0.00669721
0.00670151
0.00670598
0.00682292
0.00689464
0.00699005
0.0071157
0.00727458
0.00747556
0.00771428
0.00800402
0.00832348
0.00867999
0.00905769
0.00947688
0.00993754
0.0103347
0.010634
0.0108152
0.0108589
0.0107553
0.0104916
0.0100412
0.00933213
0.00836356
0.00726161
0.00608033
0.00489801
0.00374821
0.00270518
0.00183796
0.00117888
0.000710938
0.000386367
0.000178679
9.24785e-05
9.89455e-05
0.00682366
0.00676716
0.0067266
0.00670437
0.00669281
0.00667412
0.0066741
0.00666953
0.00667087
0.00667136
0.00667378
0.00667614
0.00667919
0.00668234
0.00668582
0.00668941
0.00669327
0.00669727
0.00670154
0.006706
0.00689606
0.00699289
0.00712083
0.00728401
0.00749143
0.00774151
0.00804776
0.0083916
0.00878708
0.00921765
0.00970078
0.0102761
0.0108309
0.0112658
0.0115295
0.0116243
0.0115551
0.0113332
0.0109592
0.0104131
0.00962164
0.00858777
0.00743608
0.00621196
0.00499553
0.00382007
0.00275332
0.00186602
0.00119205
0.000714852
0.000386178
0.00017773
9.25095e-05
9.91643e-05
0.0068974
0.00682029
0.00676136
0.00672333
0.00670227
0.00669039
0.00667421
0.00667322
0.00666977
0.00667066
0.0066716
0.00667382
0.00667634
0.00667931
0.00668249
0.00668592
0.00668951
0.00669334
0.00669733
0.00670157
0.00670601
0.00699548
0.00712551
0.00729263
0.00750603
0.0077668
0.0080884
0.00845674
0.00889083
0.00937246
0.00992311
0.0106496
0.0114264
0.0120916
0.012497
0.0126391
0.0125745
0.012338
0.0119597
0.0114502
0.0107929
0.0099101
0.00880722
0.00760472
0.00633924
0.00508862
0.00388854
0.0027993
0.00189287
0.00120468
0.000718635
0.000386115
0.00017692
9.25585e-05
9.93478e-05
0.00699786
0.00689262
0.00681245
0.00675561
0.00672026
0.00670065
0.00668758
0.00667451
0.00667231
0.00667003
0.00667048
0.00667182
0.00667389
0.00667653
0.00667943
0.00668263
0.00668602
0.00668961
0.00669341
0.00669738
0.0067016
0.00670602
0.00712977
0.00730048
0.00751943
0.00779017
0.00812614
0.00851877
0.00898967
0.00952096
0.010151
0.0110751
0.0121307
0.0130856
0.0137341
0.0139841
0.0139129
0.0136284
0.0131845
0.0126225
0.0119589
0.0111779
0.0101964
0.00902138
0.00776734
0.00646175
0.00517733
0.00395365
0.0028431
0.0019185
0.00121677
0.00072226
0.00038606
0.000176258
9.25939e-05
9.95455e-05
0.00713368
0.00699136
0.00688107
0.00680464
0.00675009
0.00671733
0.0066995
0.00668462
0.00667489
0.00667144
0.00667026
0.00667036
0.00667203
0.00667399
0.0066767
0.00667956
0.00668277
0.00668613
0.0066897
0.00669348
0.00669743
0.00670163
0.00670603
0.00730762
0.00753168
0.00781163
0.00816114
0.00857734
0.00908259
0.0096643
0.0103915
0.0115537
0.0129141
0.0141657
0.0150801
0.0155517
0.0155638
0.0152412
0.0147184
0.0140563
0.0133018
0.0124758
0.0115642
0.0104791
0.00922974
0.00792381
0.00657926
0.00526172
0.00401544
0.00288471
0.0019429
0.0012283
0.000725754
0.00038601
0.00017573
9.26476e-05
9.97601e-05
0.00731407
0.0071249
0.00697484
0.00686952
0.00679698
0.00674477
0.00671458
0.00669852
0.0066817
0.00667522
0.00667069
0.00667044
0.0066703
0.0066722
0.00667411
0.00667686
0.00667969
0.00668289
0.00668624
0.00668979
0.00669354
0.00669748
0.00670166
0.00670604
0.00754289
0.00783128
0.00819352
0.00863208
0.0091694
0.00980453
0.0106468
0.0120679
0.0137181
0.0152236
0.0163631
0.0170593
0.0172907
0.0170662
0.0165137
0.0157755
0.0149127
0.0139756
0.0129901
0.0119471
0.0107566
0.00943176
0.00807403
0.00669164
0.00534188
0.00407396
0.00292417
0.00196608
0.00123927
0.00072866
0.000386
0.00017516
9.27001e-05
9.99923e-05
0.007553
0.0073027
0.00710158
0.00695827
0.00685819
0.00678943
0.00673967
0.006712
0.00669759
0.00667902
0.00667538
0.00667012
0.00667052
0.00667032
0.00667233
0.00667425
0.006677
0.00667983
0.00668301
0.00668634
0.00668988
0.00669361
0.00669753
0.00670167
0.00670604
0.00784922
0.00822336
0.00868278
0.00925056
0.00994312
0.0109128
0.0125907
0.0144846
0.0161736
0.0174676
0.0183333
0.0187768
0.0187945
0.018385
0.0176567
0.016749
0.0157207
0.0146239
0.0134916
0.0123219
0.0110271
0.00962693
0.00821794
0.00679885
0.00541785
0.00412929
0.00296149
0.00198806
0.00124832
0.00073115
0.000385993
0.000174568
9.2777e-05
0.000100245
0.00786528
0.0075382
0.00727043
0.0070782
0.00694202
0.0068471
0.00678193
0.00673495
0.00670949
0.00669662
0.00667685
0.00667523
0.00666977
0.00667051
0.00667041
0.00667244
0.0066744
0.00667714
0.00667997
0.00668313
0.00668644
0.00668996
0.00669368
0.00669756
0.00670167
0.00670604
0.0082508
0.00872946
0.00932676
0.0100802
0.0111815
0.0130963
0.0151742
0.0169726
0.0183475
0.0193137
0.0199095
0.0201478
0.0200119
0.019481
0.0186369
0.0176113
0.0164587
0.0152322
0.0139713
0.0126843
0.0112889
0.0098148
0.00835549
0.00690089
0.00548986
0.00418135
0.00299674
0.00200611
0.00125602
0.000733902
0.000386013
0.000173944
9.28521e-05
0.000100519
0.00827534
0.00784677
0.00749388
0.00723802
0.00705525
0.00692613
0.00683623
0.00677446
0.00673051
0.00670696
0.00669533
0.00667553
0.00667474
0.00666965
0.00667042
0.00667054
0.00667253
0.00667456
0.00667726
0.0066801
0.00668324
0.00668655
0.00669004
0.00669371
0.00669756
0.00670167
0.00670604
0.00877233
0.00939864
0.0102146
0.0114439
0.0135663
0.0157686
0.0176131
0.0190075
0.0200115
0.0206936
0.0210866
0.0211849
0.0209543
0.0203573
0.0194498
0.0183534
0.0171164
0.0157912
0.0144229
0.0130306
0.0115407
0.00999494
0.00848666
0.00699777
0.00555839
0.00423033
0.00302558
0.00202144
0.00126448
0.000736949
0.00038604
0.000173289
9.29586e-05
0.000100818
0.00881043
0.00825206
0.00778671
0.0074494
0.00720616
0.00703282
0.00691059
0.00682558
0.00676709
0.00672621
0.00670438
0.00669319
0.00667491
0.006674
0.00666969
0.0066703
0.0066707
0.00667261
0.00667473
0.00667738
0.00668024
0.00668334
0.00668664
0.00669008
0.00669371
0.00669756
0.00670167
0.00670604
0.0094666
0.0103446
0.0116926
0.0139905
0.0162658
0.0181083
0.0194772
0.0204705
0.0211824
0.0216646
0.0219248
0.0219382
0.0216588
0.0210374
0.0201076
0.0189786
0.017692
0.0162968
0.0148424
0.0133584
0.0117811
0.010167
0.00861147
0.00708944
0.00562344
0.00427032
0.00305
0.00203823
0.00127379
0.000740326
0.000386106
0.000172601
9.30638e-05
0.00010114
0.00952837
0.00878168
0.00817078
0.00772637
0.00740564
0.00717498
0.00701091
0.00689541
0.00681521
0.00675985
0.0067221
0.00670186
0.00669042
0.00667482
0.00667314
0.00666981
0.00667017
0.00667086
0.0066727
0.00667488
0.0066775
0.00668037
0.00668345
0.0066867
0.00669008
0.00669371
0.00669756
0.00670167
0.00670604
0.0104684
0.0119265
0.0143659
0.0166729
0.0184802
0.0197937
0.0207424
0.0214414
0.0219584
0.0223147
0.0224959
0.0224644
0.0221682
0.0215517
0.0206291
0.0194971
0.0181886
0.0167486
0.0152281
0.0136659
0.0120094
0.0103308
0.00872999
0.00717607
0.00567692
0.00430415
0.00307668
0.00205663
0.00128402
0.000744071
0.000386183
0.000171878
9.32106e-05
0.000101491
0.0105797
0.00949242
0.00867122
0.00808926
0.00766692
0.00736277
0.00714449
0.00698951
0.00688064
0.00680524
0.00675273
0.00671832
0.00669976
0.0066872
0.006675
0.00667229
0.00666996
0.00667007
0.00667102
0.00667279
0.00667504
0.00667762
0.0066805
0.0066835
0.0066867
0.00669008
0.00669371
0.00669756
0.00670167
0.00670603
0.0121461
0.0146917
0.0170017
0.0187525
0.0199924
0.0208747
0.0215305
0.0220411
0.0224403
0.0227243
0.0228635
0.0228138
0.0225223
0.0219303
0.0210355
0.0199216
0.018613
0.0171485
0.0155796
0.0139524
0.0122251
0.0104862
0.00884227
0.00724708
0.00572234
0.00434106
0.00310583
0.00207681
0.00129531
0.000748237
0.000386314
0.000171125
9.33579e-05
0.000101868
0.0105388
0.0123415
0.00933174
0.00856207
0.00800878
0.00760862
0.00732079
0.00711469
0.00696866
0.00686634
0.00679578
0.00674599
0.0067148
0.00669838
0.00668402
0.00667523
0.00667152
0.00667009
0.00667
0.00667117
0.00667289
0.00667518
0.00667774
0.00668056
0.00668349
0.0066867
0.00669008
0.00669371
0.00669756
0.00670166
0.00670602
0.0149691
0.0172646
0.0189469
0.0201034
0.0209066
0.0214992
0.0219734
0.0223745
0.0227094
0.0229566
0.0230777
0.0230275
0.0227549
0.0222001
0.0213465
0.0202657
0.0189728
0.0175003
0.015898
0.0142177
0.0124279
0.0106331
0.00893445
0.00730727
0.00577211
0.00438137
0.00313772
0.00209898
0.00130776
0.000752836
0.000386463
0.000170331
9.35607e-05
0.00010228
0.0102925
0.0123033
0.0151946
0.00917743
0.00845476
0.00792968
0.00755147
0.00727972
0.00708563
0.00694841
0.00685255
0.00678667
0.0067396
0.00671162
0.00669724
0.00668113
0.00667538
0.00667091
0.00667017
0.00666997
0.0066713
0.00667299
0.00667533
0.00667779
0.00668057
0.00668349
0.0066867
0.00669008
0.00669371
0.00669753
0.00670163
0.00670601
0.0174735
0.0190816
0.0201509
0.0208685
0.0213855
0.0218024
0.0221744
0.0225195
0.0228252
0.0230581
0.0231766
0.0231377
0.0228934
0.0223839
0.0215802
0.0205422
0.0192763
0.0178082
0.016185
0.0144624
0.0126178
0.0107534
0.00901266
0.00737309
0.00582667
0.00442544
0.00317263
0.00212334
0.00132151
0.00075801
0.000386688
0.000169514
9.3767e-05
0.000102719
0.0100507
0.0119511
0.015129
0.0176289
0.00903035
0.00834896
0.00785208
0.0074955
0.00723962
0.00705735
0.00692881
0.00683926
0.00677788
0.0067337
0.00670881
0.00669621
0.00667874
0.00667532
0.00667048
0.0066702
0.00666999
0.00667142
0.00667311
0.0066754
0.00667779
0.00668057
0.00668349
0.0066867
0.00669008
0.00669368
0.00669748
0.0067016
0.00670599
0.0191711
0.0201536
0.0207835
0.021218
0.0215636
0.0218836
0.0222068
0.0225309
0.0228293
0.0230621
0.0231883
0.023169
0.0229598
0.0225005
0.0217516
0.0207623
0.0195313
0.0180768
0.0164428
0.0146871
0.0127717
0.0108553
0.00909823
0.00744513
0.00588653
0.00447368
0.00321088
0.00215014
0.00133671
0.000763769
0.000386943
0.000168647
9.4049e-05
0.000103198
0.00982401
0.0115702
0.0147741
0.0175312
0.0192176
0.00888821
0.00824461
0.00777606
0.00744077
0.00720056
0.00702992
0.00690987
0.0068265
0.00676956
0.00672848
0.00670622
0.0066951
0.0066771
0.00667503
0.00667022
0.00667018
0.00667005
0.00667153
0.00667316
0.0066754
0.00667779
0.00668057
0.0066835
0.0066867
0.00669004
0.00669361
0.00669743
0.00670157
0.00670598
0.0201249
0.0206685
0.0210176
0.0212833
0.021535
0.0218109
0.0221203
0.0224457
0.0227505
0.0229923
0.0231337
0.0231404
0.0229713
0.0225653
0.0218735
0.0209362
0.0197447
0.0183107
0.0166738
0.0148656
0.012901
0.0109664
0.00919189
0.00752405
0.00595227
0.00452654
0.00325283
0.00217965
0.00135356
0.000770164
0.000387297
0.00016777
9.43398e-05
0.000103703
0.00961185
0.0111951
0.0143328
0.0173023
0.0190669
0.0200651
0.00874931
0.00814196
0.00770177
0.00738739
0.00716265
0.0070034
0.00689173
0.00681457
0.00676185
0.00672399
0.00670374
0.00669345
0.00667617
0.00667454
0.0066701
0.00667012
0.00667014
0.00667157
0.00667316
0.0066754
0.00667779
0.00668057
0.0066835
0.00668665
0.00668996
0.00669354
0.00669738
0.00670154
0.00670597
0.0205354
0.0207996
0.0209808
0.021153
0.0213622
0.0216294
0.0219483
0.0222888
0.0226082
0.0228655
0.0230282
0.0230668
0.0229415
0.0225903
0.0219563
0.0210722
0.0199231
0.0185142
0.0168529
0.0150139
0.013041
0.0110876
0.00929446
0.00761056
0.00602451
0.00458452
0.00329888
0.00221218
0.00137221
0.00077736
0.000387704
0.000166829
9.47349e-05
0.000104255
0.00941117
0.010839
0.0138452
0.0169858
0.0189111
0.0198594
0.0203798
0.00861305
0.00804131
0.00762936
0.00733551
0.00712597
0.006978
0.00687483
0.00680364
0.00675462
0.00671997
0.00670144
0.00669125
0.00667575
0.00667392
0.00667008
0.00667004
0.00667021
0.00667155
0.00667316
0.0066754
0.00667779
0.00668057
0.00668345
0.00668655
0.00668988
0.00669347
0.00669732
0.00670151
0.00670595
0.0205743
0.0206701
0.0207561
0.0208845
0.0210869
0.0213696
0.0217128
0.0220764
0.0224156
0.0226936
0.0228839
0.0229596
0.0228812
0.0225852
0.0220084
0.0211774
0.0200719
0.018667
0.0169995
0.0151719
0.0131921
0.0112197
0.00940681
0.00770548
0.00610398
0.00464821
0.00334949
0.00224807
0.00139295
0.000785348
0.000388235
0.000165905
9.51484e-05
0.000104828
0.00921948
0.0105059
0.0133327
0.0166071
0.0186846
0.0197365
0.0201188
0.0203316
0.00847951
0.007943
0.00755902
0.00728527
0.00709086
0.00695438
0.00685942
0.00679367
0.00674793
0.00671645
0.00669952
0.00668865
0.00667564
0.00667324
0.00667015
0.00666994
0.00667024
0.00667154
0.00667317
0.0066754
0.0066778
0.0066805
0.00668335
0.00668644
0.00668979
0.0066934
0.00669727
0.00670148
0.00670594
0.0203607
0.0203579
0.020396
0.020516
0.020737
0.021052
0.0214279
0.0218189
0.0221817
0.022486
0.02271
0.0228278
0.0227986
0.0225578
0.0220369
0.0212577
0.0201783
0.0187901
0.017153
0.0153399
0.0133549
0.0113636
0.00952986
0.00780971
0.00619146
0.00471827
0.00340518
0.00228773
0.00141596
0.000794374
0.000388864
0.00016488
9.57055e-05
0.000105561
0.00903512
0.0101973
0.0128061
0.0161784
0.018414
0.0195562
0.0199982
0.0200151
0.0200365
0.00834906
0.00784738
0.00749096
0.00723717
0.00705825
0.00693287
0.00684539
0.0067847
0.00674181
0.00671338
0.00669822
0.00668601
0.0066757
0.00667259
0.00667029
0.00666983
0.00667027
0.00667154
0.00667317
0.0066754
0.00667774
0.00668037
0.00668324
0.00668634
0.0066897
0.00669334
0.00669721
0.00670145
0.00670592
0.0199676
0.0199107
0.0199357
0.0200738
0.0203324
0.0206893
0.0211021
0.0215226
0.021913
0.0222499
0.0225141
0.0226787
0.0227006
0.022514
0.022047
0.0213084
0.0202621
0.0189162
0.0173131
0.0155177
0.01353
0.01152
0.00966461
0.00792421
0.00628783
0.00479542
0.00346655
0.00233158
0.00144163
0.000804421
0.00038963
0.000163885
9.64104e-05
0.000106419
0.00885731
0.00991259
0.012274
0.0157009
0.018112
0.0193474
0.0198287
0.0198772
0.0196633
0.0195691
0.00822195
0.00775487
0.00742583
0.00719251
0.00702858
0.0069133
0.00683266
0.00677665
0.00673628
0.00671061
0.00669713
0.00668358
0.00667583
0.00667205
0.00667044
0.00666978
0.00667027
0.00667155
0.00667317
0.00667533
0.00667763
0.00668024
0.00668313
0.00668624
0.00668961
0.00669327
0.00669714
0.00670143
0.0067059
0.0194379
0.0193612
0.0194
0.0195781
0.0198853
0.0202889
0.0207396
0.0211913
0.0216145
0.0219913
0.0223027
0.0225181
0.0225921
0.0224587
0.0220417
0.0213461
0.0203449
0.0190444
0.017479
0.0157051
0.0137175
0.0116898
0.00981207
0.00805004
0.00639409
0.00488051
0.00353426
0.00238016
0.00147016
0.000815792
0.000390591
0.00016254