/*--------------------------------*- C++ -*----------------------------------*\
  =========                 |
  \\      /  F ield         | OpenFOAM: The Open Source CFD Toolbox
   \\    /   O peration     | Website:  https://openfoam.org
    \\  /    A nd           | Version:  8
     \\/     M anipulation  |
\*---------------------------------------------------------------------------*/
FoamFile
{
    version     2.0;
    format      ascii;
    class       volScalarField;
    location    "1400";
    object      k;
}
// * * * * * * * * * * * * * * * * * * * * * * * * * * * * * * * * * * * * * //

dimensions      [0 2 -2 0 0 0 0];

internalField   nonuniform List<scalar> 
15677
(
0.991539
0.878709
1.19177
0.495982
0.831009
1.13862
0.398763
0.479958
0.693337
1.04269
0.380438
0.386828
0.414435
0.659583
0.977967
0.375731
0.37261
0.358583
0.359294
0.668556
0.936441
0.374332
0.370445
0.355688
0.317531
0.358551
0.69162
0.911071
0.373838
0.370028
0.359203
0.329886
0.296001
0.368848
0.717302
0.893094
0.373577
0.369928
0.36205
0.342611
0.309251
0.283176
0.392672
0.731914
0.881418
0.373422
0.36999
0.364006
0.350928
0.326924
0.292398
0.284217
0.423399
0.744705
0.871925
0.373329
0.370043
0.365278
0.356119
0.339393
0.312661
0.282009
0.289382
0.456295
0.747416
0.865421
0.373281
0.370047
0.366076
0.359367
0.347557
0.328244
0.300837
0.275548
0.300403
0.483676
0.750016
0.861571
0.373257
0.370014
0.366542
0.361409
0.352857
0.33897
0.318054
0.291626
0.272409
0.315296
0.507853
0.750982
0.860297
0.373248
0.369972
0.366772
0.362671
0.356301
0.346192
0.330701
0.309277
0.284379
0.272834
0.331783
0.527176
0.751218
0.86092
0.373245
0.369936
0.366849
0.363404
0.35852
0.351034
0.339588
0.323156
0.301661
0.279368
0.274542
0.347446
0.543679
0.75105
0.863109
0.373245
0.369915
0.366849
0.363775
0.359901
0.354255
0.345743
0.333338
0.316294
0.295399
0.275783
0.277946
0.363271
0.555438
0.751059
0.867613
0.373244
0.369905
0.366825
0.363919
0.360693
0.356344
0.349956
0.340622
0.327483
0.310261
0.290192
0.273343
0.282864
0.376768
0.565389
0.750984
0.874476
0.373243
0.3699
0.366805
0.363944
0.361081
0.357624
0.352776
0.345749
0.335735
0.322141
0.304966
0.285947
0.271966
0.287905
0.389324
0.571519
0.751108
0.883398
0.373243
0.369897
0.366792
0.363933
0.361211
0.358328
0.354581
0.349278
0.34169
0.331172
0.317298
0.300405
0.282515
0.271371
0.293519
0.398881
0.576938
0.751117
0.894414
0.373242
0.369894
0.366783
0.363917
0.361237
0.358621
0.355641
0.351613
0.345888
0.337848
0.32695
0.312998
0.29646
0.279809
0.27149
0.298587
0.407245
0.579674
0.751118
0.907502
0.373242
0.369892
0.366778
0.363904
0.361229
0.358719
0.35613
0.353055
0.348741
0.342658
0.334254
0.323125
0.309171
0.293163
0.277666
0.271879
0.303405
0.413149
0.581484
0.751145
0.92264
0.373242
0.36989
0.366774
0.363894
0.361214
0.358739
0.356325
0.353772
0.350563
0.346006
0.339625
0.330953
0.319674
0.305881
0.290337
0.276099
0.272627
0.307402
0.417889
0.581414
0.751226
0.939743
0.373242
0.369889
0.366771
0.363885
0.361201
0.35873
0.356388
0.354092
0.351513
0.348212
0.343438
0.336819
0.327963
0.316655
0.303016
0.288111
0.274843
0.273644
0.310888
0.420509
0.580903
0.751358
0.958763
0.373242
0.369888
0.366769
0.363879
0.36119
0.358715
0.356396
0.354219
0.351965
0.349417
0.346006
0.341063
0.334286
0.325324
0.314031
0.300686
0.286232
0.27412
0.274645
0.313505
0.422474
0.5797
0.751589
0.979529
0.373242
0.369887
0.366767
0.363874
0.361181
0.358699
0.356385
0.354253
0.352163
0.350023
0.347443
0.343991
0.338942
0.332049
0.323052
0.311865
0.298746
0.284931
0.273575
0.275711
0.315562
0.422458
0.577591
0.751786
1.00198
0.373242
0.369887
0.366766
0.36387
0.361175
0.358685
0.356369
0.354249
0.352234
0.35031
0.34819
0.345691
0.342205
0.337074
0.330162
0.321197
0.310145
0.297382
0.283935
0.273549
0.276698
0.317001
0.421984
0.57485
0.752162
1.02591
0.373242
0.369887
0.366765
0.363867
0.361169
0.358673
0.356353
0.35423
0.352245
0.350423
0.348561
0.346613
0.344117
0.340664
0.33558
0.328688
0.319807
0.308913
0.296349
0.283466
0.273713
0.277713
0.317754
0.420868
0.571797
0.752516
1.05123
0.373242
0.369886
0.366764
0.363865
0.361165
0.358664
0.356339
0.354208
0.352233
0.350449
0.348726
0.34709
0.345165
0.342861
0.339522
0.334432
0.327606
0.318839
0.308189
0.296063
0.28355
0.274124
0.278664
0.318202
0.418899
0.56823
0.753056
1.07769
0.373242
0.369886
0.366763
0.363863
0.361162
0.358657
0.356328
0.354188
0.352212
0.350437
0.348782
0.347306
0.345729
0.344121
0.341891
0.338627
0.333775
0.327202
0.318706
0.308259
0.296254
0.283903
0.274859
0.279646
0.318171
0.416352
0.564563
0.753594
1.10523
0.373242
0.369886
0.366763
0.363862
0.361159
0.358652
0.356319
0.354171
0.35219
0.350409
0.348785
0.347379
0.346013
0.344814
0.343233
0.341366
0.338534
0.333868
0.327411
0.319016
0.308694
0.296833
0.284663
0.275914
0.280675
0.318011
0.413499
0.56053
0.754293
1.13338
0.373242
0.369886
0.366762
0.363861
0.361157
0.358648
0.356311
0.354158
0.35217
0.350379
0.348762
0.347381
0.346132
0.345144
0.343998
0.343027
0.341501
0.338849
0.334375
0.328105
0.319869
0.309695
0.298013
0.286027
0.277272
0.281805
0.317684
0.410301
0.55656
0.755122
1.16536
0.373242
0.369886
0.366762
0.36386
0.361155
0.358644
0.356305
0.354147
0.352153
0.350352
0.348731
0.347351
0.346161
0.345274
0.34444
0.344003
0.343274
0.342056
0.339718
0.335529
0.329556
0.321557
0.31155
0.299932
0.287882
0.278982
0.283106
0.317243
0.407001
0.552336
0.756384
1.20141
0.373242
0.369886
0.366761
0.36386
0.361153
0.358641
0.356299
0.354138
0.352139
0.350329
0.3487
0.34731
0.346143
0.3453
0.344651
0.344501
0.34433
0.344014
0.343266
0.341451
0.337693
0.331994
0.324148
0.314201
0.302501
0.290295
0.281031
0.284556
0.316802
0.403539
0.547878
0.758105
1.23758
0.373242
0.369886
0.366761
0.363859
0.361152
0.358639
0.356295
0.35413
0.352126
0.35031
0.348672
0.34727
0.346103
0.345273
0.344723
0.344742
0.344915
0.345208
0.345522
0.345489
0.344225
0.340855
0.335403
0.327674
0.317662
0.3058
0.293237
0.283472
0.28627
0.316445
0.399776
0.542611
0.760027
1.2737
0.373242
0.369886
0.366761
0.363859
0.36115
0.358637
0.356291
0.354124
0.352115
0.350294
0.348648
0.347235
0.346059
0.345224
0.344719
0.344831
0.34521
0.345907
0.346949
0.348079
0.348769
0.348114
0.345131
0.339901
0.332177
0.322022
0.309806
0.296772
0.286266
0.288144
0.316265
0.395733
0.537645
0.762228
1.30941
0.369886
0.373245
0.366761
0.363858
0.361149
0.358635
0.356287
0.354119
0.352106
0.35028
0.348627
0.347204
0.346018
0.345172
0.344676
0.344838
0.345334
0.346284
0.347831
0.349768
0.351767
0.353278
0.353263
0.350659
0.345557
0.33776
0.327273
0.314589
0.300861
0.289494
0.290422
0.316356
0.392115
0.532584
0.764485
1.34452
0.36676
0.369896
0.373253
0.363858
0.361148
0.358634
0.356284
0.354115
0.352098
0.350269
0.348608
0.347178
0.345981
0.345124
0.344623
0.344802
0.345365
0.346466
0.348346
0.350855
0.353791
0.356786
0.359191
0.359839
0.357539
0.352488
0.344431
0.333498
0.320109
0.305547
0.293533
0.293264
0.316665
0.388708
0.527942
0.767016
1.37879
0.363858
0.366777
0.369917
0.37326
0.361148
0.358632
0.356282
0.354111
0.352092
0.350259
0.348592
0.347156
0.345949
0.34508
0.34457
0.344751
0.345344
0.346538
0.348631
0.351538
0.355153
0.359238
0.363335
0.3667
0.367975
0.36591
0.360729
0.352292
0.340656
0.326419
0.311386
0.298613
0.296439
0.317287
0.385775
0.523303
0.769533
1.41209
0.361147
0.363879
0.36681
0.369939
0.373268
0.358631
0.35628
0.354108
0.352086
0.350251
0.348579
0.347137
0.34592
0.345043
0.344521
0.344699
0.345304
0.34655
0.348781
0.351965
0.356073
0.360969
0.36634
0.371641
0.375975
0.377839
0.375834
0.370395
0.361302
0.348817
0.334262
0.318697
0.304261
0.299916
0.318301
0.383103
0.519146
0.771977
1.44424
0.35863
0.361174
0.363924
0.366844
0.369961
0.373276
0.356278
0.354105
0.352081
0.350244
0.348567
0.347121
0.345896
0.34501
0.344478
0.344652
0.34526
0.346535
0.348855
0.352239
0.356709
0.362217
0.368563
0.375353
0.381904
0.38722
0.389528
0.387452
0.381462
0.371555
0.35894
0.344058
0.326797
0.310425
0.303712
0.319594
0.380884
0.515272
0.774383
1.47518
0.356276
0.358661
0.361228
0.36397
0.36688
0.369984
0.373284
0.354102
0.352076
0.350238
0.348556
0.347107
0.345875
0.344982
0.344441
0.34461
0.34522
0.346513
0.348891
0.352419
0.357175
0.363156
0.370264
0.378224
0.386518
0.394368
0.40056
0.403212
0.400755
0.394043
0.384258
0.371571
0.354892
0.335606
0.317053
0.307778
0.321181
0.378911
0.511834
0.776756
1.5048
0.3541
0.356311
0.358725
0.361285
0.364017
0.366916
0.370007
0.373292
0.352073
0.350232
0.348547
0.347096
0.345856
0.344958
0.34441
0.344574
0.345184
0.34649
0.348912
0.352548
0.357531
0.36391
0.371637
0.380546
0.390243
0.400121
0.409195
0.416209
0.418894
0.415885
0.409633
0.400109
0.385533
0.366661
0.34504
0.324076
0.312103
0.323005
0.377367
0.508656
0.779094
1.5331
0.352069
0.354138
0.356382
0.358791
0.361343
0.364066
0.366953
0.370031
0.373301
0.350228
0.348539
0.347086
0.345839
0.344938
0.344382
0.344543
0.345153
0.346471
0.348927
0.352652
0.357817
0.364538
0.372819
0.382531
0.393404
0.404962
0.41639
0.426663
0.434197
0.436765
0.434634
0.42909
0.417627
0.400691
0.379247
0.355011
0.331439
0.316629
0.325047
0.376013
0.505845
0.781414
1.56
0.350224
0.352109
0.354216
0.356456
0.358858
0.361402
0.364115
0.366992
0.370055
0.37331
0.348532
0.347077
0.345825
0.344921
0.344359
0.344517
0.345127
0.346455
0.348942
0.352743
0.358065
0.365075
0.373863
0.384332
0.396236
0.409245
0.422667
0.435664
0.446858
0.454799
0.458959
0.458068
0.450594
0.436637
0.416886
0.39253
0.365428
0.339067
0.321339
0.327275
0.375046
0.503271
0.783688
1.58556
0.348527
0.350264
0.352192
0.354297
0.356532
0.358928
0.361464
0.364167
0.367031
0.370081
0.373319
0.34707
0.345812
0.344907
0.344338
0.344494
0.345105
0.346443
0.348957
0.352827
0.358287
0.365552
0.374788
0.385987
0.398915
0.413242
0.428434
0.443786
0.45808
0.47013
0.480537
0.486859
0.484038
0.473945
0.456936
0.433958
0.40638
0.376189
0.346899
0.326168
0.329636
0.374293
0.501017
0.785945
1.60973
0.347063
0.348566
0.350351
0.352278
0.35438
0.356611
0.358999
0.361527
0.364219
0.367072
0.370107
0.373328
0.3458
0.344895
0.344319
0.344474
0.345086
0.346433
0.348973
0.352906
0.358491
0.365988
0.375629
0.387492
0.401456
0.417153
0.434
0.451501
0.468528
0.484108
0.499371
0.513125
0.517987
0.512366
0.498928
0.478337
0.451734
0.420658
0.387196
0.354864
0.331106
0.331991
0.373894
0.498979
0.788144
1.63259
0.34579
0.347101
0.348652
0.35044
0.352367
0.354466
0.356691
0.359073
0.361592
0.364273
0.367113
0.370133
0.373338
0.344885
0.344302
0.344456
0.34507
0.346426
0.348989
0.352979
0.358679
0.366389
0.376403
0.38888
0.403819
0.420965
0.439602
0.45918
0.478762
0.497522
0.51706
0.53673
0.54976
0.552148
0.542835
0.52535
0.500636
0.47004
0.435227
0.39835
0.362901
0.336135
0.334364
0.373606
0.497205
0.790322
1.65412
0.344877
0.34582
0.347184
0.348741
0.350533
0.352459
0.354554
0.356775
0.359148
0.361659
0.364328
0.367156
0.37016
0.373347
0.344286
0.34444
0.345056
0.34642
0.349005
0.353047
0.358852
0.366758
0.377118
0.39017
0.40603
0.424571
0.445182
0.467121
0.489234
0.511044
0.534557
0.55963
0.579151
0.590323
0.589126
0.575204
0.552987
0.523637
0.48871
0.449961
0.409564
0.370952
0.341209
0.336736
0.373612
0.495618
0.792426
1.67442
0.344272
0.344901
0.345889
0.34727
0.348833
0.350628
0.352554
0.354645
0.35686
0.359226
0.361727
0.364385
0.367199
0.370187
0.373356
0.344425
0.345043
0.346415
0.34902
0.35311
0.359011
0.367098
0.377778
0.391368
0.408102
0.427979
0.45055
0.475215
0.500312
0.525245
0.552721
0.583058
0.608589
0.626671
0.63469
0.628711
0.609216
0.581592
0.547149
0.507592
0.464742
0.420753
0.378962
0.346286
0.339108
0.373686
0.494241
0.794506
1.69347
0.344415
0.344267
0.344959
0.34596
0.34736
0.34893
0.350727
0.352652
0.354738
0.356949
0.359305
0.361798
0.364443
0.367243
0.370213
0.373365
0.345031
0.346411
0.349033
0.353167
0.359155
0.367409
0.378385
0.39248
0.41004
0.431199
0.455696
0.483137
0.511801
0.540626
0.572346
0.608212
0.639739
0.664289
0.679395
0.682785
0.670688
0.644614
0.610923
0.570981
0.52654
0.479466
0.431842
0.386885
0.351327
0.341472
0.373854
0.493006
0.796496
1.71137
0.345024
0.344393
0.344267
0.345017
0.346038
0.347454
0.349031
0.350828
0.352753
0.354835
0.357039
0.359387
0.36187
0.364501
0.367285
0.370239
0.373374
0.346406
0.349045
0.353219
0.359287
0.367693
0.378941
0.393506
0.411844
0.434232
0.460616
0.490814
0.523189
0.556971
0.594198
0.636276
0.674374
0.705615
0.727402
0.737637
0.734607
0.714873
0.681164
0.640762
0.594959
0.545432
0.494042
0.442768
0.394677
0.356302
0.34381
0.374148
0.491949
0.798459
1.72814
0.346407
0.344971
0.344352
0.344267
0.345081
0.346121
0.34755
0.349136
0.350933
0.352858
0.354934
0.357133
0.359471
0.361941
0.364557
0.367325
0.370263
0.373382
0.349052
0.353264
0.359405
0.36795
0.379448
0.394449
0.413517
0.437076
0.465292
0.498207
0.534377
0.573601
0.617991
0.66848
0.714532
0.753673
0.78265
0.799175
0.801957
0.790256
0.761127
0.718659
0.670915
0.618921
0.564157
0.508391
0.453478
0.402302
0.361185
0.346118
0.374518
0.490996
0.800318
1.74386
0.349068
0.346308
0.344856
0.344306
0.344283
0.345147
0.346212
0.34765
0.349245
0.351041
0.352966
0.355036
0.357228
0.359554
0.36201
0.364612
0.367365
0.370287
0.37339
0.353302
0.359511
0.368183
0.37991
0.395313
0.415061
0.439728
0.469708
0.505285
0.545335
0.590321
0.642547
0.704669
0.762937
0.812677
0.85069
0.873902
0.88125
0.873028
0.849864
0.809334
0.756917
0.70121
0.642729
0.582616
0.522449
0.463926
0.40973
0.365955
0.348385
0.374947
0.490192
0.802151
1.75856
0.353349
0.34889
0.346075
0.344732
0.344265
0.344319
0.345214
0.346308
0.347754
0.349359
0.351153
0.353077
0.35514
0.357323
0.359635
0.362078
0.364665
0.367403
0.370311
0.373398
0.359602
0.368392
0.38033
0.396103
0.416481
0.442191
0.473855
0.512025
0.556011
0.606949
0.667441
0.74371
0.821134
0.888758
0.939405
0.971009
0.982404
0.97501
0.951322
0.913464
0.859353
0.795763
0.731495
0.666266
0.600726
0.53616
0.474078
0.416938
0.370592
0.350604
0.375419
0.489458
0.80387
1.77051
0.359703
0.353079
0.34846
0.345831
0.344622
0.344218
0.34437
0.345283
0.346412
0.347861
0.349477
0.351268
0.353191
0.355244
0.357415
0.359714
0.362144
0.364716
0.367441
0.370334
0.373406
0.368576
0.380708
0.396823
0.417784
0.44447
0.477731
0.518414
0.566335
0.623287
0.692605
0.785965
0.888642
0.985562
1.05853
1.10186
1.11806
1.1095
1.08081
1.03677
0.980856
0.91097
0.835015
0.76163
0.689431
0.618418
0.54948
0.483904
0.423905
0.375084
0.352766
0.375928
0.488851
0.805338
1.78057
0.368767
0.359311
0.352389
0.348013
0.345611
0.344524
0.344174
0.344434
0.345356
0.346521
0.347973
0.349599
0.351387
0.353304
0.355345
0.357505
0.359791
0.362207
0.364766
0.367477
0.370356
0.373414
0.381046
0.397476
0.418979
0.446573
0.481344
0.524442
0.57624
0.639206
0.718177
0.831918
0.965265
1.09959
1.21009
1.27696
1.3008
1.29099
1.25399
1.19758
1.12863
1.05154
0.963879
0.874476
0.791485
0.712136
0.635634
0.562375
0.493383
0.430618
0.379418
0.354867
0.376454
0.488361
0.806559
1.79149
0.38138
0.368218
0.358253
0.351675
0.347603
0.345409
0.344432
0.344138
0.344507
0.345434
0.346636
0.34809
0.349724
0.351505
0.353415
0.355444
0.357593
0.359866
0.362269
0.364815
0.367513
0.370377
0.373421
0.398066
0.420068
0.448513
0.484702
0.530107
0.585682
0.654666
0.744322
0.881382
1.04928
1.22595
1.38253
1.49242
1.53886
1.53081
1.48524
1.41251
1.32312
1.22553
1.12476
1.01768
0.913929
0.820934
0.734308
0.65233
0.57482
0.502499
0.437065
0.38359
0.356898
0.376926
0.487997
0.807955
1.80333
0.39863
0.380634
0.366645
0.357162
0.351011
0.347218
0.345221
0.344349
0.344111
0.344586
0.345518
0.346755
0.348211
0.349849
0.351621
0.353522
0.35554
0.357677
0.359938
0.36233
0.364863
0.367547
0.370398
0.373424
0.421061
0.450293
0.487818
0.535411
0.594645
0.669679
0.771062
0.933472
1.13775
1.35883
1.5654
1.72775
1.82146
1.83414
1.78367
1.69458
1.58067
1.45457
1.32577
1.19956
1.07189
0.953138
0.849856
0.755884
0.668468
0.586795
0.511244
0.443242
0.387588
0.358599
0.377342
0.487591
0.809449
1.8162
0.421985
0.397644
0.378346
0.365034
0.356143
0.35038
0.346855
0.345044
0.344277
0.344096
0.344671
0.345611
0.346877
0.348334
0.34997
0.351735
0.353627
0.355634
0.35776
0.360009
0.362388
0.364909
0.36758
0.370408
0.373424
0.451931
0.4907
0.540366
0.603138
0.68427
0.798245
0.986947
1.22764
1.49292
1.7504
1.96907
2.1211
2.18475
2.15239
2.05109
1.9128
1.75408
1.58902
1.42758
1.27495
1.12602
0.991861
0.878137
0.776806
0.684018
0.598287
0.519613
0.449142
0.390908
0.36006
0.37783
0.48722
0.811174
1.83016
0.453424
0.42071
0.39437
0.37602
0.363522
0.355167
0.349776
0.346512
0.344881
0.344216
0.344094
0.344759
0.345713
0.346999
0.348455
0.350089
0.351846
0.353728
0.355726
0.35784
0.360078
0.362445
0.364953
0.367597
0.370408
0.373424
0.493369
0.544983
0.611177
0.698452
0.825598
1.04058
1.31652
1.62433
1.93157
2.20728
2.42212
2.54985
2.57145
2.48461
2.32598
2.1345
1.92887
1.72384
1.52929
1.34996
1.17956
1.02987
0.905665
0.797025
0.698963
0.609289
0.527599
0.454025
0.393746
0.361687
0.378387
0.486802
0.813017
1.84534
0.495759
0.451797
0.416073
0.391067
0.373832
0.362069
0.354226
0.349197
0.34619
0.344731
0.344167
0.344108
0.344848
0.34582
0.347118
0.348576
0.350204
0.351954
0.353827
0.355815
0.357918
0.360145
0.3625
0.364976
0.367597
0.370408
0.373424
0.549293
0.618786
0.712217
0.852808
1.09336
1.40269
1.7506
2.10519
2.43636
2.71488
2.91223
3.00342
2.97258
2.82346
2.60258
2.35538
2.1019
1.85686
1.62949
1.42374
1.23209
1.06695
0.932339
0.816498
0.713286
0.619797
0.534207
0.45819
0.396881
0.363495
0.379046
0.486447
0.815166
1.86179
0.553106
0.493694
0.445279
0.41144
0.387956
0.371722
0.360663
0.35332
0.348643
0.345892
0.344595
0.344128
0.344146
0.344935
0.345931
0.347235
0.348694
0.350317
0.35206
0.353924
0.355901
0.357994
0.36021
0.362528
0.364976
0.367597
0.370408
0.373424
0.62601
0.725554
0.879581
1.14451
1.48507
1.87034
2.26919
2.65281
2.9931
3.26134
3.42915
3.4729
3.38063
3.16295
2.87635
2.57212
2.27081
1.98641
1.72703
1.4956
1.28321
1.10291
0.958078
0.83519
0.726979
0.628488
0.539837
0.462778
0.400349
0.365521
0.379794
0.486037
0.817461
1.87969
0.632404
0.550474
0.484546
0.438832
0.40707
0.38495
0.369677
0.359304
0.352448
0.348111
0.345617
0.34447
0.344085
0.344207
0.345019
0.346044
0.347349
0.348811
0.350426
0.352164
0.354018
0.355986
0.358068
0.360242
0.362528
0.364976
0.367597
0.370408
0.373424
0.738464
0.905682
1.19351
1.56303
1.98286
2.42261
2.85482
3.25309
3.59
3.83644
3.96386
3.95049
3.78923
3.49823
3.14383
2.78229
2.43387
2.11127
1.82109
1.56496
1.33258
1.13758
0.982808
0.853069
0.738287
0.635896
0.546036
0.46784
0.404193
0.367781
0.38069
0.485732
0.820165
1.8991
0.749931
0.629075
0.537502
0.475607
0.432743
0.402841
0.382031
0.367694
0.357992
0.351611
0.347605
0.345361
0.34436
0.344045
0.344281
0.345103
0.346157
0.347461
0.348925
0.350534
0.352265
0.354109
0.356068
0.358104
0.360242
0.362528
0.364976
0.367597
0.370408
0.373421
0.93093
1.24003
1.63625
2.08787
2.56515
3.04174
3.49305
3.89391
4.2166
4.4309
4.50815
4.42923
4.19292
3.82541
3.40239
2.98412
2.58989
2.2306
1.91105
1.63142
1.37997
1.17085
1.00646
0.86784
0.747932
0.644054
0.552871
0.473435
0.40846
0.370329
0.381703
0.485369
0.823049
1.92019
0.74586
0.95318
0.609878
0.525095
0.467148
0.426845
0.39873
0.379198
0.365776
0.356728
0.35081
0.347128
0.345131
0.344265
0.344015
0.344361
0.345188
0.346269
0.347571
0.349037
0.350638
0.352363
0.354198
0.356108
0.358104
0.360242
0.362528
0.364976
0.367597
0.370398
0.373413
1.28389
1.70465
2.18539
2.69687
3.21357
3.7125
4.171
4.56419
4.86316
5.03607
5.05442
4.90286
4.5871
4.14143
3.65012
3.17646
2.73813
2.34388
1.99652
1.6947
1.42519
1.20258
1.02599
0.880447
0.75856
0.653047
0.560418
0.479628
0.413208
0.373182
0.38293
0.48517
0.826487
1.94305
0.715785
0.949134
1.32173
0.592085
0.513377
0.458947
0.421108
0.394734
0.376451
0.363925
0.355514
0.350048
0.346688
0.344929
0.344187
0.343999
0.344443
0.345275
0.346379
0.34768
0.349146
0.35074
0.352459
0.354241
0.356108
0.358104
0.360242
0.362528
0.364976
0.36758
0.370377
0.373406
1.76825
2.2756
2.81808
3.37076
3.91181
4.42091
4.87666
5.25359
5.52057
5.64377
5.59562
5.36589
4.96796
4.44396
3.88571
3.3586
2.87816
2.45082
2.07729
1.75461
1.46809
1.22873
1.04266
0.894351
0.770289
0.662978
0.568764
0.486494
0.418498
0.376421
0.384313
0.484914
0.830158
1.96786
0.688227
0.901474
1.31792
1.82255
0.575537
0.502009
0.450968
0.41553
0.390858
0.373796
0.362143
0.354354
0.349333
0.346295
0.344755
0.344126
0.343996
0.344526
0.345364
0.346488
0.347787
0.349253
0.350841
0.352506
0.354241
0.356108
0.358104
0.360242
0.362528
0.364953
0.367546
0.370355
0.373398
2.35877
2.9293
3.51401
4.0919
4.64449
5.15374
5.59885
5.9525
6.18024
6.24629
6.1253
5.81355
5.33245
4.73133
4.10836
3.53015
3.00981
2.55133
2.15327
1.81106
1.50325
1.25101
1.06105
0.909705
0.78325
0.67396
0.578009
0.494121
0.42441
0.380064
0.386008
0.484908
0.834579
1.99471
0.66296
0.856503
1.24899
1.81995
2.4291
0.559653
0.490938
0.443212
0.410114
0.387107
0.371236
0.360434
0.353259
0.348683
0.34595
0.344606
0.344081
0.344006
0.344608
0.345456
0.346594
0.347892
0.349358
0.350889
0.352506
0.354241
0.356108
0.358104
0.360242
0.3625
0.364908
0.367512
0.370333
0.37339
3.03111
3.64428
4.25406
4.84336
5.39691
5.89873
6.32737
6.65204
6.83406
6.83641
6.63769
6.24184
5.67827
5.00246
4.31766
3.69103
3.13312
2.64544
2.22446
1.85705
1.53312
1.27553
1.08134
0.926681
0.797595
0.686125
0.588268
0.50261
0.431024
0.384234
0.387915
0.485
0.839325
2.0238
0.639214
0.814402
1.18129
1.73224
2.42867
3.1165
0.544284
0.480166
0.435687
0.404872
0.383489
0.368779
0.358815
0.352255
0.348104
0.345649
0.344479
0.344048
0.344031
0.344688
0.345549
0.346698
0.347997
0.349409
0.350888
0.352506
0.354241
0.356108
0.358104
0.360209
0.362444
0.364861
0.367476
0.37031
0.373382
3.76253
4.39983
5.01959
5.60872
6.1555
6.64493
7.05312
7.34401
7.4744
7.4075
7.12776
6.64765
6.00389
5.25677
4.5135
3.84135
3.24824
2.73327
2.28218
1.89596
1.56587
1.30253
1.10376
0.94547
0.81349
0.699623
0.599675
0.512077
0.438454
0.388951
0.39023
0.485263
0.845079
2.05519
0.616721
0.774647
1.1152
1.64433
2.32473
3.11877
3.86053
0.529384
0.469715
0.428408
0.399815
0.380014
0.366447
0.357328
0.351356
0.347588
0.345389
0.344372
0.344023
0.344075
0.344765
0.345644
0.346802
0.348047
0.349407
0.350888
0.352506
0.354241
0.356108
0.358067
0.360144
0.362387
0.364814
0.36744
0.370287
0.373374
4.53075
5.17561
5.79235
6.37294
6.90831
7.38295
7.76805
8.0208
8.09408
7.95354
7.59138
7.02872
6.30836
5.49407
4.69607
3.9814
3.35543
2.80427
2.33086
1.93844
1.60178
1.33227
1.12853
0.966289
0.831126
0.714627
0.612383
0.522663
0.446808
0.394417
0.39274
0.485927
0.851329
2.08908
0.595343
0.737195
1.05038
1.55652
2.21957
3.0006
3.86479
4.63719
0.514953
0.45961
0.421393
0.394956
0.376714
0.3643
0.355989
0.350548
0.347125
0.345165
0.344281
0.343994
0.344131
0.344841
0.345743
0.346851
0.348044
0.349407
0.350887
0.352505
0.354241
0.356067
0.357992
0.360076
0.362328
0.364765
0.367402
0.370263
0.373365
5.31371
5.9514
6.5557
7.12284
7.64549
8.10494
8.46494
8.67521
8.68641
8.46937
8.02543
7.38363
6.59132
5.71456
4.86573
4.11151
3.44189
2.86401
2.38382
1.98479
1.64114
1.36503
1.15593
0.989378
0.85072
0.731333
0.62657
0.534524
0.456246
0.400673
0.395854
0.486671
0.858919
2.13227
0.574993
0.702108
0.987036
1.46827
2.11341
2.88084
3.73373
4.64122
5.42272
0.501011
0.449881
0.414659
0.390343
0.373674
0.362363
0.354783
0.349823
0.346712
0.344973
0.344206
0.343971
0.344194
0.344923
0.34579
0.346845
0.348044
0.349407
0.350888
0.352506
0.354197
0.355984
0.357916
0.360007
0.362267
0.364714
0.367364
0.370238
0.373356
6.08916
6.70892
7.295
7.84784
8.35937
8.80428
9.13713
9.30039
9.24531
8.95079
8.42774
7.71169
6.85296
5.9187
5.02296
4.21627
3.5145
2.92883
2.44139
2.03533
1.68425
1.40109
1.18623
1.01501
0.87252
0.749968
0.642445
0.547854
0.466918
0.407975
0.399281
0.488259
0.868869
2.18378
0.555609
0.669446
0.925608
1.37953
2.0056
2.75946
3.60143
4.49767
5.42279
6.19424
0.487588
0.440559
0.408271
0.386094
0.37093
0.360617
0.353698
0.349172
0.346348
0.344809
0.344143
0.343959
0.344271
0.344956
0.345785
0.346845
0.348044
0.349407
0.350889
0.352458
0.354107
0.355899
0.357837
0.359936
0.362205
0.364663
0.367324
0.370213
0.373347
6.83726
7.43194
7.99873
8.54032
9.0438
9.47526
9.77833
9.88974
9.76553
9.39471
8.79716
8.01299
7.0938
6.1071
5.1492
4.30407
3.5931
2.99909
2.50392
2.0904
1.73144
1.44079
1.21975
1.04346
0.8968
0.770786
0.660245
0.562872
0.479064
0.416386
0.403595
0.490258
0.882681
2.23572
0.537144
0.639219
0.866693
1.29056
1.89577
2.63572
3.46753
4.35414
5.26585
6.18577
6.93032
0.474722
0.431736
0.402392
0.382262
0.368456
0.359044
0.352722
0.348592
0.346028
0.344666
0.344094
0.343971
0.344305
0.344941
0.345785
0.346844
0.348044
0.349408
0.350839
0.35236
0.354014
0.355811
0.357757
0.359863
0.362141
0.36461
0.367283
0.370187
0.373338
7.54007
8.10776
8.65925
9.19433
9.69401
10.1132
10.3819
10.4373
10.2428
9.79923
9.13357
8.28818
7.31468
6.2577
5.25472
4.39888
3.67809
3.07516
2.57175
2.15031
1.78304
1.48443
1.2568
1.07506
0.923863
0.794073
0.680248
0.579846
0.492887
0.426285
0.409403
0.494336
0.897767
2.28776
0.519565
0.611351
0.810969
1.20187
1.7838
2.50895
3.33129
4.2098
5.11136
6.01269
6.90731
7.61168
0.462543
0.423641
0.397095
0.378807
0.366224
0.357626
0.351845
0.348074
0.345747
0.344546
0.344076
0.343964
0.344295
0.344938
0.345785
0.346844
0.348046
0.349356
0.350737
0.352261
0.35392
0.355722
0.357674
0.359788
0.362076
0.364556
0.367242
0.37016
0.373328
8.18357
8.72879
9.26575
9.79682
10.2968
10.7088
10.9424
10.9371
10.674
10.1638
9.43766
8.53831
7.49001
6.38309
5.3683
4.50112
3.76986
3.15741
2.64524
2.2154
1.83935
1.53235
1.29771
1.11012
0.954034
0.82015
0.702762
0.599072
0.508753
0.439935
0.41793
0.498865
0.915374
2.33947
0.502972
0.585693
0.759105
1.11419
1.66982
2.37861
3.19173
4.06402
4.95783
5.84613
6.7143
7.56655
8.22367
0.45138
0.416367
0.392324
0.375694
0.364212
0.356349
0.351058
0.347611
0.345502
0.344472
0.344051
0.343934
0.344298
0.344938
0.345783
0.346849
0.347994
0.349249
0.350634
0.352159
0.353823
0.35563
0.357589
0.359711
0.362009
0.3645
0.367199
0.370133
0.373319
8.75762
9.28286
9.81762
10.3541
10.8524
11.2528
11.4513
11.3848
11.058
10.4891
9.71077
8.73493
7.63517
6.51741
5.49031
4.61117
3.8688
3.24621
2.72471
2.286
1.90072
1.58487
1.34282
1.14899
0.987661
0.849359
0.728141
0.620927
0.530333
0.458534
0.427796
0.505591
0.934834
2.39041
0.487755
0.562186
0.711662
1.0285
1.55411
2.24442
3.04795
3.91558
4.80479
5.68356
6.53332
7.34927
8.14349
8.75855
0.441373
0.409832
0.388028
0.372888
0.3624
0.355201
0.350351
0.347203
0.345328
0.344414
0.344015
0.343933
0.344297
0.344939
0.345788
0.346799
0.347887
0.349141
0.350528
0.352055
0.353723
0.355536
0.357502
0.359633
0.36194
0.364443
0.367155
0.370106
0.37331
9.25884
9.77161
10.3147
10.8682
11.3652
11.7429
11.9032
11.778
11.395
10.7766
9.92259
8.89644
7.7896
6.66091
5.62109
4.72939
3.97525
3.34189
2.81048
2.36239
1.96741
1.6423
1.39245
1.192
1.02509
0.882073
0.756762
0.650428
0.558802
0.479843
0.440144
0.513123
0.957268
2.44013
0.474088
0.541092
0.669286
0.946027
1.4372
2.10621
2.89915
3.7632
4.65081
5.5246
6.36073
7.15063
7.89882
8.62093
9.19893
0.432416
0.40396
0.384162
0.370362
0.360768
0.354165
0.349721
0.346894
0.34521
0.344366
0.344016
0.343932
0.344293
0.344953
0.345739
0.346693
0.34778
0.349031
0.35042
0.351949
0.353622
0.35544
0.357412
0.359553
0.361869
0.364385
0.367112
0.37008
0.373301
9.67448
10.1881
10.753
11.3326
11.8314
12.1748
12.2935
12.1164
11.6867
10.9955
10.0948
9.06667
7.95327
6.81373
5.76087
4.85607
4.08953
3.44475
2.90284
2.44485
2.0397
1.70489
1.44688
1.23946
1.06667
0.918638
0.795073
0.688645
0.590598
0.504501
0.454663
0.523537
0.98234
2.48807
0.461836
0.522352
0.632845
0.868792
1.31998
1.96403
2.7446
3.60559
4.49432
5.36759
6.19614
6.9661
7.67908
8.34696
8.99344
9.53685
0.424405
0.398686
0.380686
0.368088
0.359295
0.353239
0.34923
0.3467
0.345141
0.344369
0.344015
0.343931
0.344302
0.344918
0.345638
0.346587
0.347672
0.348918
0.35031
0.35184
0.353517
0.355341
0.357321
0.35947
0.361797
0.364327
0.36707
0.370055
0.373292
10.0007
10.5307
11.1329
11.7443
12.2421
12.5418
12.6187
12.4018
11.9032
11.1708
10.2739
9.24508
8.12593
6.97585
5.90976
4.99141
4.21186
3.55502
3.00199
2.53357
2.11778
1.77287
1.50634
1.29164
1.11266
0.967078
0.843822
0.730438
0.626025
0.532614
0.472762
0.53539
1.01096
2.53377
0.450877
0.505574
0.60219
0.800081
1.20456
1.8182
2.58373
3.44146
4.33361
5.21073
6.03756
6.79522
7.48021
8.10318
8.68297
9.25216
9.76721
0.41724
0.393949
0.37756
0.366035
0.357975
0.352503
0.348931
0.346609
0.345146
0.344368
0.344011
0.343958
0.344265
0.344833
0.345541
0.346479
0.347563
0.348803
0.350197
0.351729
0.35341
0.355241
0.357227
0.359386
0.361725
0.364272
0.36703
0.37003
0.373284
10.2331
10.799
11.4544
12.1001
12.5874
12.8388
12.8771
12.6055
12.0728
11.3499
10.4587
9.4308
8.30704
7.14701
6.06775
5.1355
4.34238
3.67285
3.1081
2.62869
2.20177
1.84636
1.57096
1.3487
1.17287
1.02755
0.895994
0.775728
0.665052
0.56477
0.494132
0.551136
1.04332
2.57664
0.4411
0.490491
0.576186
0.741366
1.09564
1.67039
2.41611
3.26946
4.1668
5.05198
5.88302
6.63552
7.30171
7.88766
8.41128
8.89879
9.38634
9.88081
0.410832
0.389698
0.374743
0.364196
0.35691
0.352065
0.348812
0.346618
0.345144
0.344361
0.344044
0.343963
0.344186
0.344755
0.345446
0.34637
0.347452
0.348686
0.350082
0.351615
0.353301
0.355138
0.357131
0.359303
0.361656
0.364217
0.36699
0.370006
0.373275
10.3677
10.9951
11.7188
12.3875
12.8604
13.064
13.0448
12.7595
12.2415
11.5307
10.6476
9.62256
8.49576
7.32674
6.23459
5.28824
4.4811
3.79829
3.22119
2.73022
2.29168
1.92537
1.64077
1.4224
1.24655
1.09089
0.951119
0.824161
0.707651
0.600761
0.520319
0.569364
1.08001
2.61632
0.432394
0.476925
0.553827
0.692111
0.996641
1.52565
2.24282
3.08829
3.99181
4.889
5.73021
6.4848
7.14051
7.70001
8.17707
8.59496
8.98724
9.38357
9.86562
0.4051
0.385873
0.372218
0.362696
0.356288
0.351909
0.348826
0.346615
0.345135
0.344406
0.344066
0.343947
0.34412
0.344677
0.345353
0.346258
0.347339
0.348567
0.349963
0.3515
0.353188
0.355033
0.357037
0.359223
0.361589
0.364165
0.366952
0.369983
0.373267
10.403
11.1243
11.9067
12.6065
13.0504
13.1981
13.1601
12.9049
12.4059
11.7104
10.8381
9.81862
8.69084
7.51421
6.40978
5.44936