/*--------------------------------*- C++ -*----------------------------------*\
  =========                 |
  \\      /  F ield         | OpenFOAM: The Open Source CFD Toolbox
   \\    /   O peration     | Website:  https://openfoam.org
    \\  /    A nd           | Version:  8
     \\/     M anipulation  |
\*---------------------------------------------------------------------------*/
FoamFile
{
    version     2.0;
    format      ascii;
    class       volScalarField;
    location    "0.37";
    object      p;
}
// * * * * * * * * * * * * * * * * * * * * * * * * * * * * * * * * * * * * * //

dimensions      [0 2 -2 0 0 0 0];

internalField   nonuniform List<scalar> 
15677
(
71.9456
71.5395
71.206
71.6938
71.2047
71.1533
71.6137
71.2237
71.1629
71.1031
71.5941
71.2239
71.1635
71.1119
71.025
71.5759
71.2269
71.1639
71.1112
71.0326
70.947
71.5531
71.2296
71.1641
71.1117
71.0326
70.9537
70.8608
71.5282
71.2312
71.1639
71.1118
71.0334
70.9538
70.8667
70.7554
71.5024
71.2322
71.1632
71.1115
71.034
70.9546
70.8668
70.7606
70.6242
71.4755
71.2325
71.1621
71.1108
71.0344
70.9553
70.8676
70.7608
70.6286
70.4602
71.4473
71.2321
71.1605
71.1098
71.0347
70.9559
70.8683
70.7617
70.629
70.4639
70.2557
71.4176
71.231
71.1585
71.1087
71.0351
70.9565
70.8691
70.7626
70.63
70.4644
70.2586
70.0022
71.3862
71.2292
71.1565
71.1076
71.0356
70.9572
70.87
70.7636
70.6311
70.4656
70.2593
70.0044
69.6914
71.3534
71.2267
71.1545
71.1066
71.0362
70.9582
70.8711
70.7649
70.6324
70.467
70.2607
70.0052
69.6928
69.3148
71.3226
71.2234
71.1527
71.1056
71.0373
70.9598
70.8728
70.7667
70.6343
70.4688
70.2625
70.007
69.6937
69.3152
68.8641
71.2963
71.2198
71.1512
71.1046
71.0389
70.9622
70.8754
70.7694
70.6369
70.4714
70.265
70.0093
69.6959
69.3164
68.8635
68.3317
71.2737
71.2157
71.1499
71.1039
71.0413
70.9657
70.8793
70.7733
70.6408
70.4751
70.2684
70.0125
69.6988
69.3189
68.8649
68.3299
67.7105
71.2544
71.2104
71.1488
71.1035
71.0447
70.9708
70.8849
70.7792
70.6466
70.4805
70.2734
70.017
69.7029
69.3225
68.8678
68.3315
67.7075
66.9949
71.2377
71.2043
71.1474
71.1035
71.0486
70.9777
70.8929
70.7878
70.6551
70.4885
70.2808
70.0237
69.7088
69.3277
68.8723
68.335
67.7094
66.9905
66.1801
71.223
71.1979
71.1458
71.1039
71.0529
70.9861
70.9039
70.7997
70.6673
70.5003
70.2917
70.0335
69.7174
69.3353
68.8788
68.3404
67.7133
66.9926
66.1742
65.2632
71.2101
71.1912
71.1442
71.1046
71.0576
70.9952
70.9172
70.8161
70.6844
70.5172
70.3075
70.0479
69.7301
69.3463
68.8882
68.3483
67.7198
66.9971
66.1765
65.2555
64.2427
71.1991
71.1846
71.1425
71.1057
71.0627
71.005
70.9316
70.836
70.7078
70.5408
70.3303
70.0688
69.7488
69.3624
68.902
68.3599
67.7293
67.0046
66.1816
65.2581
64.2332
63.1192
71.1901
71.1784
71.1407
71.107
71.0681
71.0154
70.9473
70.8575
70.7362
70.5731
70.362
70.0987
69.7758
69.3861
68.9221
68.3766
67.7431
67.0158
66.1902
65.2637
64.236
63.1078
61.8954
71.1827
71.1729
71.1389
71.1085
71.0737
71.0264
70.9643
70.881
70.767
70.6123
70.4055
70.1405
69.8144
69.4203
68.9515
68.4012
67.7633
67.0321
66.2031
65.2734
64.2421
63.1107
61.8819
60.5761
71.1765
71.1682
71.1373
71.1101
71.0794
71.0376
70.982
70.9061
70.8006
70.655
70.4584
70.1978
69.8684
69.4692
68.9941
68.4371
67.7927
67.0558
66.2219
65.288
64.2528
63.1173
61.8849
60.5605
59.1729
71.1712
71.1641
71.1357
71.1115
71.085
71.0491
71.0003
70.9326
70.8366
70.7016
70.516
70.2675
69.9423
69.5375
69.0548
68.4892
67.8359
67.0905
66.2493
65.3093
64.269
63.1288
61.8916
60.5632
59.1535
57.7134
71.1667
71.1605
71.1342
71.1127
71.0901
71.0602
71.019
70.9601
70.8746
70.7516
70.579
70.3436
70.0324
69.6313
69.1399
68.5634
67.8983
67.1413
66.2894
65.3403
64.2926
63.1463
61.9037
60.5697
59.1538
57.6531
56.1411
71.1629
71.1573
71.1329
71.1139
71.0946
71.0702
71.0371
70.9883
70.9141
70.8044
70.6466
70.4268
70.1309
69.7456
69.2566
68.6674
67.9875
67.215
66.3482
65.3858
64.327
63.1719
61.9222
60.5817
59.1588
57.6589
56.0719
54.4398
71.1595
71.1545
71.1317
71.1149
71.0985
71.079
71.0535
71.0156
70.9547
70.8594
70.7181
70.5164
70.2389
69.8709
69.3993
68.8104
68.1126
67.3204
66.4337
65.4527
64.3777
63.2093
61.9492
60.6004
59.1692
57.6611
56.0771
54.4146
52.68
71.1567
71.1521
71.1306
71.1157
71.1018
71.0868
71.0681
71.0405
70.9942
70.9161
70.7928
70.6113
70.3553
70.0085
69.5559
68.9856
68.285
67.4685
66.5562
65.5503
64.4525
63.2646
61.9888
60.6278
59.1864
57.6683
56.0719
54.4039
52.6699
50.8724
71.1541
71.1499
71.1296
71.1164
71.1047
71.0936
71.0811
71.0627
71.0301
70.9712
70.8698
70.7105
70.4787
70.1569
69.7282
69.1782
68.4967
67.6731
66.729
65.6906
64.5621
63.3468
62.0479
60.6685
59.2126
57.6829
56.0771
54.3948
52.6537
50.8663
48.8278
71.1519
71.1479
71.1286
71.117
71.1072
71.0996
71.0925
71.0824
71.0623
71.0216
70.945
70.813
70.608
70.3147
69.9145
69.3906
68.7299
67.9251
66.9683
65.889
64.7202
63.4677
62.1363
60.7301
59.2527
57.7068
56.0902
54.4008
52.6452
50.8483
48.825
46.5209
71.1499
71.1462
71.1278
71.1174
71.1094
71.1047
71.1025
71.0998
71.091
71.0668
71.0137
70.9133
70.7419
70.4803
70.113
69.6208
68.9878
68.2034
67.2637
66.1646
64.9445
63.6431
62.2674
60.8233
59.315
57.745
56.1123
54.4139
52.6525
50.8409
48.8081
46.5201
44.1935
71.1482
71.1446
71.127
71.1178
71.1112
71.1093
71.1112
71.1152
71.1163
71.107
71.0755
71.005
70.873
70.6521
70.3217
69.8665
69.2679
68.5119
67.591
66.5061
65.2574
63.8931
62.459
60.9631
59.4112
57.8066
56.1488
54.4351
52.6658
50.8478
48.8007
46.5046
44.1943
41.8746
71.1467
71.1432
71.1263
71.1181
71.1128
71.1132
71.1189
71.1286
71.1387
71.1427
71.1307
71.0877
70.9933
70.8208
70.5386
70.1254
69.5676
68.8478
67.9548
66.8856
65.6467
64.2433
62.7335
61.169
59.5576
57.9041
56.2091
54.4703
52.6867
50.8607
48.8048
46.4966
44.1805
41.8756
39.5869
71.142
71.1449
71.1256
71.1183
71.1141
71.1166
71.1256
71.1405
71.1585
71.1744
71.1797
71.1616
71.1018
70.9757
70.752
70.3952
69.8843
69.2082
68.3522
67.3088
66.0808
64.681
63.1202
61.4662
59.7756
58.0551
56.307
54.5296
52.721
50.8808
48.8157
46.4979
44.1721
41.8628
39.5876
37.3454
71.1251
71.1405
71.1426
71.1185
71.1153
71.1196
71.1315
71.1509
71.1758
71.2023
71.2231
71.2274
71.199
71.1158
70.9486
70.6613
70.2151
69.5902
68.7798
67.7725
66.5666
65.171
63.6058
61.8874
60.0931
58.2828
56.461
54.6271
52.7789
50.9134
48.8334
46.5057
44.1705
41.8534
39.5755
37.3457
35.1616
71.1186
71.1244
71.1387
71.1404
71.1163
71.1222
71.1366
71.16
71.1911
71.2269
71.2615
71.2858
71.2857
71.2415
71.1265
70.907
70.5423
69.9904
69.2343
68.2731
67.1006
65.7214
64.1518
62.4193
60.5459
58.6174
56.696
54.7826
52.875
50.9685
48.8622
46.5188
44.1744
41.8483
39.5645
37.3338
35.1611
33.0451
71.1171
71.1188
71.1236
71.1368
71.1381
71.1244
71.1411
71.168
71.2045
71.2485
71.2955
71.3375
71.3628
71.3537
71.2865
71.1299
70.8452
70.3873
69.712
68.8071
67.6793
66.3288
64.7676
63.0201
61.1213
59.0983
57.0445
55.0224
53.03
51.0614
48.9122
46.5411
44.1817
41.8475
39.5556
37.3211
35.1493
33.0438
31.0042
71.1263
71.1182
71.1189
71.1227
71.1349
71.1358
71.145
71.175
71.2163
71.2676
71.3254
71.3833
71.4311
71.4537
71.4297
71.3307
71.1206
70.7558
70.1876
69.3704
68.2988
66.9895
65.4499
63.7006
61.7742
59.7131
57.549
55.3811
53.2716
51.2134
48.999
46.5825
44.1957
41.8478
39.549
37.308
35.1345
33.0319
31.002
29.0451
71.1483
71.1287
71.1191
71.1188
71.1218
71.133
71.1335
71.1812
71.2268
71.2844
71.3518
71.4237
71.4916
71.5424
71.5574
71.5108
71.3693
71.0918
70.6304
69.933
68.9548
67.6994
66.1949
64.4577
62.5173
60.4145
58.1983
55.9043
53.6362
51.4533
49.1444
46.6586
44.2259
41.8519
39.5411
37.295
35.117
33.0148
30.99
29.0421
27.172
71.1863
71.1523
71.1308
71.12
71.1187
71.1208
71.131
71.1311
71.2359
71.2993
71.3751
71.4593
71.5451
71.6211
71.6709
71.6716
71.5927
71.396
71.0353
70.4587
69.6126
68.4543
66.9989
65.288
63.3475
61.2161
58.9427
56.5819
54.1722
51.8191
49.378
46.7917
44.288
41.8687
39.5337
37.2778
35.0972
32.9928
30.9705
29.0298
27.1682
25.3872
71.2436
71.1925
71.1559
71.1328
71.1207
71.1184
71.1198
71.129
71.1288
71.3124
71.3957
71.4909
71.5924
71.6907
71.7716
71.8147
71.7926
71.6698
71.4028
70.941
70.2296
69.2146
67.8576
66.188
64.2621
62.1159
59.7974
57.3625
54.8709
52.3614
49.7396
47.0123
44.4043
41.9137
39.535
37.2575
35.0701
32.9659
30.944
29.0079
27.1555
25.3826
23.6918
71.3234
71.2527
71.198
71.1593
71.1347
71.1213
71.118
71.1187
71.1269
71.1264
71.4139
71.5188
71.6342
71.7524
71.861
71.942
71.9709
71.9152
71.7344
71.38
70.7975
69.9305
68.7264
67.1537
65.2581
63.1118
60.7614
58.2633
55.6798
53.0727
50.281
47.361
44.6059
42.0093
39.5602
37.2416
35.0359
32.9284
30.9098
28.9768
27.1312
25.3696
23.6866
22.0859
71.4291
71.3363
71.2605
71.2032
71.1625
71.1363
71.1218
71.1174
71.1175
71.1247
71.124
71.5435
71.6714
71.807
71.9401
72.055
72.1297
72.1346
72.0324
71.7772
71.3161
70.592
69.5481
68.1355
66.332
64.2017
61.8337
59.2844
56.6182
53.901
50.9968
47.8897
44.9331
42.1864
39.6317
37.2449
35.0014
32.8796
30.8615
28.9353
27.0955
25.3428
23.6732
22.0799
20.5682
71.5642
71.4469
71.3471
71.2679
71.208
71.1654
71.1377
71.1221
71.1166
71.1163
71.1225
71.1215
71.7042
71.8555
72.0103
72.1553
72.2708
72.3303
72.2992
72.1349
71.7867
71.198
70.3101
69.0682
67.4294
65.3828
63.013
60.4259
57.6874
54.8671
51.836
48.5964
45.4374
42.4841
39.7795
37.2895
34.9813
32.8258
30.7978
28.8762
27.0467
25.3028
23.644
22.0663
20.5615
19.1369
71.7316
71.5882
71.4614
71.3573
71.2749
71.2125
71.1679
71.1388
71.1222
71.1155
71.115
71.1203
71.1191
71.8984
72.0727
72.2443
72.3961
72.5044
72.5376
72.4559
72.2116
71.7496
71.0109
69.937
68.4769
66.5963
64.298
61.688
58.889
55.9737
52.821
49.432
46.1198
42.9527
40.0405
37.4034
34.9967
32.7813
30.7243
28.7973
26.9767
25.2468
23.5997
22.0347
20.5476
19.1297
17.7897
71.9343
71.7636
71.6074
71.4752
71.3669
71.2813
71.2164
71.1701
71.1396
71.1221
71.1142
71.1136
71.118
71.1167
72.1279
72.3235
72.5076
72.6593
72.7502
72.7433
72.5939
72.2492
71.6509
70.739
69.4569
67.7603
65.6253
63.0706
60.2246
57.2242
53.9561
50.4201
46.9349
43.5968
40.4632
37.6216
35.0733
32.7658
30.6548
28.704
26.8828
25.1661
23.5367
21.9863
20.5137
19.1155
17.7819
16.5235
72.174
71.9762
71.7887
71.6257
71.4882
71.3758
71.2869
71.2198
71.1718
71.1402
71.1218
71.1127
71.1122
71.1157
71.1144
72.3935
72.6068
72.7972
72.9395
73.0001
72.9368
72.6998
72.2323
71.474
70.3653
68.8545
66.9054
64.5072
61.6963
58.622
55.2465
51.5667
47.9063
44.3749
41.0562
37.9898
35.2435
32.8023
30.6071
28.6092
26.7698
25.0573
23.4455
21.9165
20.4615
19.0794
17.7675
16.5152
15.3352
72.452
72.2283
72.0086
71.8125
71.643
71.5001
71.3836
71.2918
71.2226
71.1731
71.1404
71.1213
71.1111
71.1106
71.1135
71.1121
72.6946
72.9202
73.1084
73.2292
73.2438
73.1049
72.7581
72.1438
71.2009
69.8729
68.1143
65.9001
63.2346
60.1713
56.6983
52.8795
49.0419
45.3099
41.7814
38.5196
35.5497
32.9206
30.6018
28.5288
26.65
24.9251
23.3223
21.8151
20.3851
19.0235
17.7293
16.5006
15.3264
14.2214
72.7677
72.5216
72.2698
72.0394
71.8351
71.6587
71.5107
71.3904
71.2959
71.2247
71.1739
71.1403
71.1204
71.1096
71.1089
71.1113
71.11
73.0288
73.2591
73.4337
73.5182
73.4683
73.2321
72.7514
71.965
70.8134
69.2445
67.2222
64.7347
61.8007
58.3181
54.3674
50.3519
46.4112
42.6605
39.177
36.0057
33.1589
30.6652
28.4804
26.5366
24.7805
23.1714
21.6779
20.2739
18.9408
17.67
16.4603
15.3116
14.2121
13.1785
73.1193
72.8561
72.5741
72.3091
72.0685
71.8556
71.6725
71.5197
71.396
71.2991
71.2263
71.1742
71.1397
71.1193
71.108
71.1072
71.1093
71.1079
73.392
73.6165
73.7636
73.7938
73.6582
73.3005
72.6603
71.6764
70.2925
68.464
66.1658
63.3987
60.034
56.0411
51.848
47.6908
43.7034
39.9809
36.5813
33.5317
30.8309
28.4872
26.4447
24.6344
23.0026
21.5091
20.1234
18.8203
17.5812
16.3978
15.2694
14.1971
13.1686
12.203
73.5028
73.2306
72.9223
72.6241
72.3465
72.0949
71.8736
71.6844
71.5273
71.4004
71.3014
71.2271
71.174
71.1389
71.1179
71.1065
71.1054
71.1072
71.1059
73.7776
73.9832
74.0856
74.0407
73.7955
73.2905
72.4642
71.2576
69.62
67.516
64.9313
61.7287
57.829
53.5432
49.1614
44.9219
40.9402
37.2914
34.0131
31.1127
28.5765
26.3938
24.499
22.8243
21.3168
19.9374
18.6572
17.4518
16.3034
15.204
14.1531
13.1533
12.1918
11.2926
73.9116
73.6418
73.3135
72.9855
72.6716
72.3801
72.118
71.889
71.6943
71.5332
71.4036
71.3027
71.2271
71.1733
71.1377
71.1163
71.1049
71.1036
71.1053
71.104
74.1764
74.3469
74.3843
74.2408
73.8599
73.1803
72.1416
70.6886
68.7783
66.3844
63.3645
59.6073
55.3651
50.8354
46.3274
42.0648
38.1423
34.6122
31.4893
28.7615
26.4044
24.3902
22.6461
21.1072
19.7224
18.4548
17.2767
16.1656
15.1041
14.085
13.1077
12.1764
11.2771
10.537
74.337
74.0842
73.7453
73.3931
73.0455
72.7143
72.4095
72.1377
71.9016
71.702
71.5374
71.4055
71.303
71.2265
71.1721
71.1363
71.1145
71.1033
71.1018
71.1034
71.1021
74.5762
74.6925
74.6417
74.3734
73.829
72.9476
71.6706
69.9495
67.7489
64.9233
61.3315
57.1839
52.6417
47.9329
43.3662
39.1431
35.3335
31.9636
29.0251
26.4884
24.3209
22.4798
20.8871
19.4826
18.218
17.0588
15.9793
14.9585
13.9801
13.0373
12.1296
11.263
10.53
9.89994
74.7668
74.5498
74.2128
73.845
73.4685
73.0993
72.7515
72.4345
72.1538
71.9114
71.7073
71.5398
71.4059
71.3023
71.2251
71.1705
71.1346
71.1127
71.1016
71.1
71.1015
71.1003
74.9621
75.0017
74.837
74.4156
73.6796
72.5685
71.0294
69.0197
66.392
62.9778
58.9513
54.4538
49.6786
44.8634
40.3085
36.1865
32.5389
29.3646
26.6338
24.3019
22.3305
20.6643
19.222
17.9492
16.8014
15.7466
14.7616
13.8271
12.9277
12.0572
11.2151
10.5221
9.90379
9.23238
75.1858
75.0277
74.7091
74.3375
73.9395
73.5362
73.1462
72.783
72.4548
72.1661
71.9182
71.7103
71.5403
71.405
71.3006
71.2232
71.1685
71.1327
71.1107
71.1
71.0983
71.0997
71.0986
75.3156
75.2537
74.9467
74.3432
73.3862
72.02
70.1951
67.7626
64.5307
60.6452
56.2306
51.4541
46.5185
41.6692
37.1928
33.227
29.7828
26.8323
24.3266
22.2084
20.4359
18.9441
17.6495
16.5047
15.4695
14.5151
13.6203
12.7678
11.9433
11.1413
10.4733
9.89797
9.23273
8.51425
75.5755
75.5042
75.2243
74.8644
74.4555
74.0243
73.595
73.1858
72.8086
72.4703
72.1745
71.9218
71.7109
71.539
71.4028
71.2982
71.2207
71.1662
71.1306
71.1087
71.0982
71.0965
71.098
71.0967
75.6154
75.4246
74.9458
74.1296
72.9245
71.2755
69.0314
65.9823
62.2541
57.9579
53.2302
48.2422
43.2124
38.3954
34.0567
30.2941
27.0868
24.3814
22.1122
20.2123
18.6385
17.3184
16.1679
15.1465
14.2194
13.3608
12.5518
11.777
11.0233
10.3989
9.84962
9.22278
8.50813
7.72933
75.9142
75.9619
75.7458
75.4172
75.0114
74.5614
74.098
73.6448
73.2179
72.828
72.4808
72.1789
71.9222
71.7089
71.536
71.3995
71.295
71.2178
71.1637
71.1283
71.1066
71.0964
71.0948
71.0961
71.0947
75.8371
75.4887
74.8067
73.7489
72.2637
70.1984
67.3305
63.7728
59.6265
54.9956
50.0128
44.869
39.8053
35.0818
30.9337
27.4137
24.4691
22.0234
19.9969
18.3161
16.9383
15.7856
14.7742
13.8714
13.0475
12.2801
11.5524
10.8512
10.2774
9.77427
9.17411
8.493
7.7198
6.87276
76.1764
76.3808
76.2577
75.9845
75.5998
75.1435
74.6537
74.1604
73.6851
73.2422
72.8409
72.4861
72.179
71.9194
71.7048
71.5315
71.3952
71.2912
71.2146
71.1609
71.1259
71.1045
71.0946
71.0929
71.094
71.0926
75.9538
75.4174
74.5021
73.1662
71.2665
68.5763
65.1993
61.2282
56.7354
51.8141
46.6188
41.3713
36.3338
31.7629
27.8524
24.6071
21.9442
19.7668
17.9848
16.5208
15.3342
14.3433
13.4657
12.6761
11.9503
11.2692
10.6184
10.1006
9.64995
9.09709
8.44276
7.70212
6.86192
5.94207
76.3342
76.7374
76.7409
76.5519
76.2107
75.7642
75.2588
74.7319
74.211
73.7156
73.2585
72.8473
72.4859
72.1751
71.9138
71.6988
71.5258
71.3902
71.2868
71.2109
71.1578
71.1233
71.1024
71.0926
71.0907
71.0919
71.0906
75.9356
75.1815
73.9932
72.2439
69.7231
66.5321
62.7543
58.4321
53.622
48.4392
43.0735
37.7786
32.8297
28.4683
24.8371
21.892
19.5231
17.6174
16.078
14.826
13.8243
12.9887
12.2388
11.5568
10.924
10.3245
9.86118
9.46912
8.96959
8.36304
7.65016
6.84351
5.93046
4.93235
76.3559
77.0055
77.1732
77.1021
76.8312
76.4147
75.908
75.3568
74.7956
74.2495
73.736
73.2663
72.8469
72.4805
72.1676
71.9058
71.6912
71.519
71.3844
71.2821
71.207
71.1546
71.1207
71.1001
71.0903
71.0884
71.0899
71.0886
75.7504
74.7392
73.1424
70.7797
67.7714
64.1966
60.068
55.4091
50.2979
44.8849
39.398
34.118
29.3222
25.2242
21.9079
19.2817
17.2135
15.5787
14.277
13.2301
12.4057
11.7184
11.0898
10.5098
9.96482
9.5586
9.22418
8.78436
8.23185
7.56709
6.79015
5.91134
4.92016
3.83692
76.2051
77.1569
77.5292
77.6141
77.4453
77.0836
76.5939
76.0308
75.437
74.8442
74.2754
73.746
73.2657
72.8399
72.4706
72.157
71.8957
71.6821
71.5113
71.378
71.2768
71.2027
71.1512
71.1181
71.0976
71.088
71.0862
71.0878
71.0866
75.3525
73.9514
71.7593
68.9237
65.5488
61.6269
57.1494
52.1598
46.768
41.1642
35.6139
30.4168
25.8388
22.0535
19.0809
16.7861
15.0202
13.6519
12.5805
11.7307
11.0755
10.5287
10.0151
9.53125
9.18711
8.91421
8.53343
8.04168
7.43172
6.70369
5.85667
4.90004
3.82442
2.64856
75.8309
77.1595
77.7806
78.0643
78.0342
77.7566
77.3063
76.7476
76.1319
75.4987
74.8773
74.2883
73.7453
73.2567
72.8272
72.4569
72.1437
71.8838
71.6719
71.5028
71.3711
71.2711
71.1983
71.1482
71.1154
71.095
71.0855
71.0839
71.0857
71.0848
74.6005
72.6444
70.0012
66.8142
63.0973
58.8205
53.9923
48.6827
43.0386
37.2932
31.7458
26.7033
22.4054
18.9757
16.3686
14.4119
12.9457
11.8365
10.9864
10.3246
9.82984
9.41585
9.01065
8.73788
8.53281
8.21546
7.78419
7.23603
6.56384
5.76697
4.84385
3.80349
2.6359
1.35982
76.9683
75.0927
77.895
78.4259
78.5756
78.4165
78.0326
77.4984
76.875
76.2105
75.5414
74.8945
74.2881
73.7343
73.2407
72.8096
72.4397
72.1283
71.8704
71.6607
71.4937
71.3635
71.2652
71.1947
71.1453
71.1125
71.0922
71.0829
71.0815
71.0839
71.0832
73.3383
70.9789
68.0037
64.4797
60.4056
55.7666
50.5904
44.9781
39.1195
33.2919
27.821
23.0061
19.0458
16.007
13.7802
12.1627
10.9899
10.1306
9.49183
9.00824
8.66482
8.376
8.19634
8.07044
7.82333
7.4575
6.97132
6.36206
5.62241
4.75079
3.74545
2.61437
1.34701
-0.0370403
77.8301
76.4533
73.8417
78.6675
79.0447
79.0428
78.7572
78.2722
77.6589
76.9752
76.2658
75.5647
74.8955
74.2752
73.7146
73.2187
72.7879
72.4198
72.1109
71.8558
71.6486
71.4837
71.3556
71.2609
71.1915
71.1421
71.1093
71.0892
71.0803
71.0793
71.0821
71.0815
71.7329
69.0852
65.7848
61.9025
57.4606
52.4565
46.9401
41.0504
35.0255
29.185
23.8696
19.3535
15.7816
13.1606
11.3216
10.0398
9.15154
8.53137
8.09294
7.77742
7.57654
7.53314
7.51135
7.34678
7.05375
6.63516
6.08949
5.41402
4.6012
3.64872
2.55435
1.32487
-0.0499902
-1.55008
78.7489
77.4777
75.4904
72.2633
79.412
79.6125
79.4616
79.0549
78.4739
77.7865
77.0472
76.2975
75.5681
74.881
74.2515
73.6875
73.1916
72.7628
72.3975
72.092
71.84
71.6354
71.473
71.3502
71.2576
71.188
71.1384
71.1058
71.0861
71.0778
71.0772
71.0803
71.0798
69.9097
66.9743
63.3224
59.0691
54.2527
48.8839
43.0408
36.9078
30.7759
25.0015
19.9233
15.7726
12.6314
10.446
8.9961
8.04257
7.42801
7.03499
6.78552
6.62813
6.6948
6.82425
6.76871
6.56187
6.21881
5.743
5.1329
4.38565
3.49362
2.45371
1.26289
-0.0727929
-1.56312
-3.18767
79.6403
78.5793
76.6912
74.2111
70.4781
80.0983
80.1243
79.83
79.3078
78.6363
77.8803
77.0905
76.3051
75.5525
74.8532
74.2187
73.6541
73.1602
72.7348
72.3733
72.0717
71.8227
71.6214
71.4665
71.3469
71.2537
71.1839
71.1344
71.1021
71.0833
71.0755
71.075
71.0785
71.0781
67.8734
64.6198
60.6029
55.9699
50.7747
45.0451
38.8948
32.563
26.3954
20.7737
16.0141
12.2886
9.6101
7.86973
6.80462
6.16906
5.81539
5.63701
5.56531
5.69748
5.95344
6.05581
5.96329
5.71035
5.31302
4.7752
4.09529
3.27035
2.29267
1.15824
-0.136718
-1.58659
-3.20073
-4.95846
80.4669
79.6582
78.0115
75.5912
72.7173
68.4874
80.7206
80.5778
80.1457
79.5139
78.7581
77.9395
77.1047
76.2896
75.5207
74.8143
74.1782
73.6155
73.1253
72.7044
72.3473
72.0494
71.8047
71.6132
71.4632
71.3427
71.249
71.1791
71.13
71.0988
71.0807
71.073
71.0728
71.0766
71.0763
65.593
62.0091
57.6181
52.598
47.021
40.9374
34.507
28.0333
21.9137
16.5368
12.1738
8.92335
6.72932
5.43553
4.74632
4.4156
4.30916
4.3329
4.57784
4.9153
5.14993
5.22257
5.08965
4.7867
4.3305
3.72546
2.97001
2.06105
0.99081
-0.245566
-1.65249
-3.22484
-4.97144
-6.8712
81.2209
80.6676
79.3193
77.1353
74.2824
71.0227
66.2544
81.2758
80.9699
80.4062
79.6717
78.8386
77.9635
77.0908
76.2542
75.4753
74.7659
74.1314
73.5726
73.0876
72.6718
72.3187
72.0263
71.7943
71.6103
71.4587
71.3373
71.2434
71.1739
71.1264
71.0959
71.0779
71.0704
71.0704
71.0747
71.0745
63.0565
59.1361
54.3627
48.9478
42.986
36.5588
29.8854
23.3412
17.3652
12.3276
8.43179
5.69502
3.99718
3.14471
2.81835
2.77772
2.90453
3.27812
3.7483
4.06777
4.27896
4.31904
4.14219
3.78496
3.26492
2.58706
1.74996
0.75026
-0.419806
-1.76577
-3.29272
-4.99606
-6.88364
-8.93582
81.8985
81.5981
80.5531
78.6787
76.0529
72.7975
69.0921
63.7669
81.76
81.2975
80.6096
79.7801
78.8768
77.9536
77.0528
76.2023
75.4185
74.7098
74.0793
73.5263
73.0471
72.6362
72.289
72.0133
71.7919
71.6054
71.4526
71.3308
71.2372
71.17
71.1234
71.0928
71.0748
71.0676
71.0679
71.0728
71.0728
60.2603
55.998
50.8324
45.0125
38.6626
31.9072
25.0413
18.5154
12.7888
8.18279
4.81439
2.61799
1.4187
0.995992
1.0167
1.25048
1.76887
2.39248
2.84981
3.14947
3.33494
3.33952
3.11491
2.69876
2.10953
1.35291
0.427628
-0.669896
-1.9473
-3.41069
-5.06581
-6.90821
-8.94523
-11.5484
82.4944
82.4447
81.7032
80.1452
77.8318
74.8156
71.1024
66.9136
61.0226
82.1693
81.558
80.7545
79.8381
78.874
77.9144
76.9946
76.1364
75.3522
74.6474
74.0232
73.4766
73.0029
72.5994
72.272
72.0123
71.7868
71.5986
71.445
71.3235
71.233
71.1672
71.1202
71.0893
71.0715
71.0646
71.0653
71.0708
71.071
57.2037
52.5928
47.0212
40.7828
34.0404
26.9809
19.9922
13.5915
8.22618
4.1376
1.34421
-0.29722
-1.0046
-1.01359
-0.663475
0.0159464
0.815763
1.4337
1.87687
2.15479
2.31211
2.27797
2.00139
1.52134
0.857214
0.0154698
-1.00486
-2.20755
-3.59999
-5.18866
-6.97982
-8.96964
-11.5614
-14.6662
83.0032
83.2
82.765
81.524
79.5301
76.8448
73.3918
69.1809
64.4893
58.0224
82.5005
81.7496
80.8393
79.8467
78.8358
77.8507
76.9196
76.0592
75.2784
74.5801
73.9629
73.4224
72.9575
72.5801
72.2765
72.0068
71.7791
71.5897
71.4363
71.3191
71.2306
71.164
71.1165
71.0855
71.068
71.0614
71.0626
71.0688
71.0692
53.8869
48.9171
42.9205
36.243
29.1059
21.7827
14.7638
8.61158
3.72061
0.224554
-1.96052
-3.04463
-3.27369
-2.88835
-2.02161
-1.01972
-0.215512
0.396084
0.823734
1.07784
1.20437
1.12795
0.794889
0.245601
-0.499527
-1.4331
-2.55565
-3.87105
-5.38621
-7.10782
-9.04219
-11.5917
-14.6832
-17.8554
83.4211
83.8561
83.7302
82.8114
81.1361
78.7878
75.6906
71.7615
67.0348
61.8264
54.7686
82.751
81.87
80.8648
79.8125
78.7679
77.7666
76.8308
75.9728
75.1986
74.508
73.8972
73.3668
72.9346
72.5818
72.2698
71.9981
71.7688
71.5795
71.4319
71.3175
71.2278
71.1602
71.1123
71.0814
71.0641
71.058
71.0597
71.0668
71.0674
50.3092
44.9647
38.5141
31.3726
23.8488
16.3255
9.39307
3.62413
-0.684603
-3.52777
-5.087
-5.62174
-5.3917
-4.40389
-3.16051
-2.13972
-1.33093
-0.726247
-0.315533
-0.0875034
0.00526902
-0.117247
-0.511643
-1.1359
-1.96847
-3.00085
-4.23306
-5.66873
-7.31416
-9.17542
-11.6697
-14.7164
-17.8686
-21.0716
83.7449
84.4059
84.5889
83.9981
82.6462
80.632
77.8971
74.3442
69.9256
64.6742
58.9351
51.2628
82.9177
81.9197
80.8388
79.7425
78.6754
77.6659
76.7309
75.8793
75.113
74.4291
73.8299
73.3397
72.9372
72.5758
72.2596
71.9862
71.7568
71.5753
71.4316
71.3154
71.2242
71.1558
71.1077
71.0768
71.06
71.0544
71.0568
71.0647
71.0656
46.467
40.7238
33.7777
26.1448
18.2585
10.6308
3.92794
-1.31769
-4.94805
-7.09665
-8.02709
-8.02933
-7.10406
-5.6744
-4.39148
-3.35041
-2.53655
-1.93932
-1.5471
-1.34766
-1.29182
-1.46457
-1.92553
-2.6308
-3.55755
-4.69601
-6.04538
-7.60883
-9.39116
-11.8125
-14.802
-17.8983
-21.0827
-24.2911
83.9706
84.8441
85.3313
85.0731
84.0516
82.3734
79.9997
76.8269
72.8044
67.8955
62.1148
55.8263
47.5046
83.0003
81.9072
80.7695
79.6427
78.5627
77.5518
76.6225
75.7789
75.0195
74.3485
73.7978
73.3437
72.9314
72.5651
72.2457
71.9721
71.7531
71.5769
71.4308
71.3123
71.2198
71.1507
71.1025
71.0719
71.0555
71.0506
71.0537
71.0626
71.064
42.3524
36.1678
28.6693
20.5196
12.3232
4.72738
-1.57437
-6.15851
-9.03333
-10.465
-10.7774
-9.97626
-8.53876
-7.04688
-5.72128
-4.65802
-3.83847
-3.24931
-2.87732
-2.70914
-2.69371
-2.92118
-3.45422
-4.24684
-5.2748
-6.52672
-8.00076
-9.6987
-12.0413
-14.9575
-17.9846
-21.1112
-24.3014
-27.5052
84.0965
85.1646
85.9482
86.0252
85.3409
84.0021
81.9938
79.2009
75.5724
71.0826
65.6896
59.3757
52.5111
43.4923
83.0084
81.8426
80.6642
79.5185
78.434
77.4274
76.5059
75.669
74.9237
74.3108
73.8038
73.3383
72.9197
72.5494
72.229
71.9691
71.7573
71.5779
71.4285
71.3081
71.2145
71.145
71.0967
71.0664
71.0508
71.0465
71.0505
71.0605
71.0624
37.9441
31.2545
23.1322
14.4526
6.04297
-1.34
-7.04841
-10.8446
-12.9098
-13.6224
-13.0024
-11.6067
-10.0874
-8.52843
-7.15632
-6.06872
-5.24287
-4.66252
-4.31257
-4.17852
-4.20726
-4.49422
-5.10515
-5.99177
-7.12806
-8.50088
-10.1065
-12.3654
-15.2033
-18.147
-21.1984
-24.3306
-27.5145
-30.7029
84.1335
85.3632
86.428
86.843
86.5025
85.5065
83.8685
81.4622
78.2246
74.1435
69.1982
63.3311
56.4768
49.0023
39.2162
82.9539
81.7347
80.5296
79.375
78.2927
77.2933
76.378
75.5565
74.8797
74.3193
73.7988
73.3255
72.9018
72.5301
72.2271
71.9767
71.7608
71.577
71.425
71.3029
71.2083
71.1385
71.0903
71.0606
71.0456
71.0423
71.0473
71.0585
71.0609
33.2106
25.9298
17.0988
7.90637
-0.560838
-7.50661
-12.423
-15.3252
-16.5547
-16.1787
-14.8645
-13.3652
-11.7574
-10.1255
-8.70271
-7.58856
-6.75588
-6.18507
-5.85912
-5.76231
-5.83925
-6.19073
-6.88563
-7.873
-9.1248
-10.6255
-12.7928
-15.5474
-18.4055
-21.3668
-24.4205
-27.5441
-30.7112
-33.8702
84.0955
85.4522
86.7592
87.5107
87.5239
86.8737
85.6101
83.6
80.7591
77.0781
72.5595
67.176
60.8448
53.4378
45.3079
34.655
82.8472
81.5914
80.3715
79.2163
78.1399
77.1459
76.2469
75.5054
74.8913
74.3149
73.7849
73.305
72.8791
72.5297
72.2391
71.9836
71.762
71.5746
71.4201
71.2965
71.2011
71.1311
71.0833
71.0541
71.0402
71.0379
71.0442
71.0567
71.0596
28.1048
20.1131
10.4827
0.858061
-7.44274
-13.69
-17.6237
-19.5571
-19.5093
-18.3166
-16.8707
-15.2591
-13.555
-11.8439
-10.3662
-9.22338
-8.38328
-7.82286
-7.52303
-7.46672
-7.59611
-8.01743
-8.80252
-9.89745
-11.2715
-13.334
-15.9963
-18.7654
-21.6358
-24.5963
-27.6366
-30.7408
-33.8773
-36.9924
83.9949
85.4483
86.9511
88.0093
88.3856
88.0912
87.2036
85.6003
83.1668
79.8872
75.779
70.8458
65.0435
58.2552
50.2793
41.4296
29.7772
82.6977
81.4197
80.1953
79.0439
77.9715
76.9945
76.1882
75.5208
74.8877
74.2998
73.7617
73.2787
72.8807
72.5473
72.2502
71.9877
71.7613
71.5706
71.4138
71.2888
71.1929
71.1229
71.0755
71.0472
71.0345
71.0336
71.041
71.0549
71.0583
22.5547
13.6837
3.17869
-6.69099
-14.5315
-19.7866
-22.5789
-22.9929
-21.978
-20.6169
-19.0279
-17.2938
-15.4852
-13.6887
-12.152
-10.9784
-10.1304
-9.58133
-9.30984
-9.29745
-9.48382
-9.98044
-10.862
-12.0709
-14.0054
-16.5599
-19.2306
-22.0074
-24.8759
-27.8199
-30.8353
-33.9067
-36.9983
-40.056
83.843
85.3672
87.0228
88.3436
89.0615
89.1374
88.6336
87.4465
85.4349
82.5648
78.8614
74.3522
69.0309
62.8286
55.5882
47.0237
37.3694
24.5391
82.514
81.226
80.0026
78.8531
77.7982
76.9274
76.2077
75.5181
74.8714
74.2736
73.7311
73.2828
72.9051
72.5638
72.2579
71.9894
71.7586
71.5648
71.4059
71.2798
71.1834
71.1136
71.0669
71.0399
71.0287
71.0292
71.038
71.0532
71.0572
16.4509
6.45476
-4.92789
-14.7033
-21.7127
-25.6684
-26.6236
-25.859
-24.6282
-23.085
-21.3398
-19.4726
-17.5516
-15.6641
-14.0644
-12.8579
-12.0017
-11.4651
-11.2243
-11.2595
-11.5075
-12.0849
-13.0689
-14.8351
-17.2552
-19.81
-22.4833
-25.257
-28.109
-31.0251
-34.0028
-37.0272
-40.0607
-43.0495
83.6499
85.2226
86.9928
88.5319
89.5528
89.981
89.8743
89.1204
87.5476
85.1011
81.8046
77.7047
72.8262
67.1446
60.5598
52.8715
43.6936
33.1277
18.8778
82.3038
81.0128
79.7884
78.6563
77.722
76.9518
76.2063
75.5005
74.8419
74.2383
73.7383
73.3154
72.9283
72.5763
72.2628
71.9887
71.7537
71.5569
71.3962
71.2691
71.1726
71.1034
71.0579
71.0325
71.0229
71.0248
71.035
71.0515
71.0561
9.61147
-1.86841
-13.9241
-23.0763
-28.7802
-30.4934
-30.0003
-28.9287
-27.4615
-25.7211
-23.8068
-21.7969
-19.7563
-17.7723
-16.1061
-14.8652
-14.0007
-13.4778
-13.2702
-13.3566
-13.6709
-14.3348
-15.8705
-18.1126
-20.5212
-23.0715
-25.7392
-28.4968
-31.3211
-34.1977
-37.1245
-40.089
-43.0529
-45.9606
83.4245
85.0269
86.8784
88.592
89.8777
90.621
90.8871
90.5903
89.4861
87.4827
84.6032
80.9064
76.4451
71.231
65.2165
58.2663
50.1327
40.3119
28.7142
12.7118
82.0701
80.7743
79.5666
78.5705
77.7521
76.9519
76.1873
75.4674
74.8012
74.2491
73.7805
73.3466
72.9466
72.5854
72.2648
71.9852
71.7463
71.5467
71.3844
71.2567
71.1605
71.0923
71.0486
71.0249
71.017
71.0205
71.032
71.0499
71.0552
1.72265
-11.7564
-23.8263
-31.4887
-34.6397
-34.5102
-33.6049
-32.2016
-30.4721
-28.5202
-26.4262
-24.2651
-22.0986
-20.0137
-18.2783
-17.0017
-16.1291
-15.6214
-15.4497
-15.591
-15.9767
-17.1837
-19.1815
-21.3962
-23.7901
-26.33
-28.9808
-31.7115
-34.4977
-37.323
-40.1868
-43.08
-45.9629
-48.7801
83.1712
84.791
86.6958
88.5418
90.0541
91.0771
91.669
91.8062
91.2139
89.6927
87.2483
83.9576
79.8968
75.1122
69.5964
63.2759
55.9748
47.4034
36.914
24.1744
5.92923
81.8069
80.5265
79.4706
78.607
77.754
76.9316
76.1502
75.4206
74.8162
74.3025
73.8211
73.3719
72.9608
72.5909
72.2635
71.9786
71.7359
71.5339
71.3704
71.2426
71.1473
71.0808
71.039
71.0172
71.0111
71.0162
71.0291
71.0485
71.0544
-7.90218
-23.9981
-34.0871
-38.7115
-39.4718
-38.7542
-37.416
-35.6632
-33.6485
-31.4724
-29.1908
-26.8719
-24.5747
-22.386
-20.5796
-19.2668
-18.3868
-17.8962
-17.7632
-17.9633
-18.8869
-20.5368
-22.486
-24.6727
-27.0485
-29.5685
-32.1922
-34.8865
-37.6238
-40.3871
-43.1775
-45.9887
-48.7816
-51.4964
82.8838
84.5199
86.4596
88.3996
90.0998
91.3683
92.2426
92.7577
92.6692
91.6926
89.7265
86.8546
83.1881
78.8048
73.7356
67.9513
61.3491
53.7159
44.7295
33.5403
19.6012
-1.66147
81.5321
80.4197
79.5144
78.611
77.7322
76.8901
76.0967
75.4405
74.8824
74.3539
73.8546
73.3923
72.9708
72.5925
72.2583
71.9685
71.7224
71.5184
71.3541
71.2269
71.1333
71.0689
71.0291
71.0094
71.0052
71.0119
71.0262
71.047
71.0537
-20.8013
-37.894
-43.9451
-44.8742
-44.5562
-43.1813
-41.389
-39.2831
-36.9729
-34.5617
-32.0881
-29.6076
-27.1774
-24.8836
-23.0058
-21.6572
-20.7711
-20.2997
-20.2087
-20.9455
-22.2935
-23.8674
-25.7712
-27.9293
-30.2797
-32.7708
-35.3589
-38.0071
-40.6854
-43.3773
-46.0853
-48.8053
-51.497