# Residuals   
# Time        	p             	Ux            	Uy            	k             	epsilon       
0             	N/A	N/A	N/A	N/A
1e-05         	1.000000e+00	1.000000e+00	1.000000e+00	1.000000e+00	6.043819e-03
2e-05         	1.286651e-01	2.372855e-01	5.233450e-02	4.234020e-02	4.591381e-03
3e-05         	7.331178e-02	1.651475e-01	4.433475e-02	1.886245e-02	5.683146e-03
4e-05         	5.503788e-02	1.215730e-01	4.351178e-02	1.145686e-02	5.149858e-03
5e-05         	4.609666e-02	9.257550e-02	4.455216e-02	8.074927e-03	4.311848e-03
6e-05         	4.045779e-02	7.291908e-02	4.557829e-02	6.282874e-03	4.139212e-03
7e-05         	3.625710e-02	5.917491e-02	4.589600e-02	4.993717e-03	3.701892e-03
8e-05         	3.335165e-02	4.944923e-02	4.500095e-02	4.060600e-03	3.233255e-03
9e-05         	3.161250e-02	4.277923e-02	4.318435e-02	3.415787e-03	2.817118e-03
0.0001        	3.008998e-02	3.991213e-02	4.093026e-02	2.943426e-03	2.453679e-03
0.00011       	2.869128e-02	4.093181e-02	3.856486e-02	2.601262e-03	2.229583e-03
0.00012       	2.743265e-02	4.247222e-02	3.639153e-02	2.337678e-03	2.049285e-03
0.00013       	2.638121e-02	4.357069e-02	3.455429e-02	2.127968e-03	1.900140e-03
0.00014       	2.560924e-02	4.383007e-02	3.268625e-02	1.954937e-03	1.778638e-03
0.00015       	2.490817e-02	4.307937e-02	3.086948e-02	1.804233e-03	1.657184e-03
0.00016       	2.420567e-02	4.134806e-02	2.915116e-02	1.677021e-03	1.556131e-03
0.00017       	2.351182e-02	3.857842e-02	2.757182e-02	1.571839e-03	1.471750e-03
0.00018       	2.282288e-02	3.527351e-02	2.613389e-02	1.489582e-03	1.398952e-03
0.00019       	2.213999e-02	3.203244e-02	2.482430e-02	1.423366e-03	1.341479e-03
0.0002        	2.147089e-02	2.924797e-02	2.362968e-02	1.367030e-03	1.298252e-03
0.00021       	2.078370e-02	2.684683e-02	2.252679e-02	1.320947e-03	1.259653e-03
0.00022       	2.008693e-02	2.460342e-02	2.151889e-02	1.280890e-03	1.223842e-03
0.00023       	1.938671e-02	2.253024e-02	2.059380e-02	1.245234e-03	1.189643e-03
0.00024       	1.870932e-02	2.077471e-02	1.971857e-02	1.209542e-03	1.153727e-03
0.00025       	1.820512e-02	1.962990e-02	1.888989e-02	1.173656e-03	1.114691e-03
0.00026       	1.785544e-02	1.901057e-02	1.810178e-02	1.139249e-03	1.080390e-03
0.00027       	1.754463e-02	1.853036e-02	1.734616e-02	1.105812e-03	1.047082e-03
0.00028       	1.729628e-02	1.802973e-02	1.667323e-02	1.073099e-03	1.015390e-03
0.00029       	1.706527e-02	1.743037e-02	1.614338e-02	1.040769e-03	9.816868e-04
0.0003        	1.684274e-02	1.669752e-02	1.567251e-02	1.009539e-03	9.485877e-04
0.00031       	1.662246e-02	1.578773e-02	1.522783e-02	9.780656e-04	9.150715e-04
0.00032       	1.634030e-02	1.474916e-02	1.481149e-02	9.471759e-04	8.864613e-04
0.00033       	1.601068e-02	1.373671e-02	1.441160e-02	9.181525e-04	8.606420e-04
0.00034       	1.565057e-02	1.292336e-02	1.402077e-02	8.905394e-04	8.396538e-04
0.00035       	1.525196e-02	1.257092e-02	1.362626e-02	8.645493e-04	8.194235e-04
0.00036       	1.480640e-02	1.274502e-02	1.320341e-02	8.405977e-04	7.991182e-04
0.00037       	1.433540e-02	1.314085e-02	1.276739e-02	8.189711e-04	7.782339e-04
0.00038       	1.389491e-02	1.360722e-02	1.233585e-02	7.987860e-04	7.578575e-04
0.00039       	1.351471e-02	1.405618e-02	1.190732e-02	7.795824e-04	7.383842e-04
0.0004        	1.324832e-02	1.442098e-02	1.148263e-02	7.615793e-04	7.201892e-04
0.00041       	1.300109e-02	1.467674e-02	1.107763e-02	7.445158e-04	7.035955e-04
0.00042       	1.275692e-02	1.480386e-02	1.070426e-02	7.283534e-04	6.875783e-04
0.00043       	1.251140e-02	1.482716e-02	1.039965e-02	7.129167e-04	6.724803e-04
0.00044       	1.225872e-02	1.482704e-02	1.013550e-02	6.982055e-04	6.588336e-04
0.00045       	1.200094e-02	1.505041e-02	9.880657e-03	6.841135e-04	6.463322e-04
0.00046       	1.174116e-02	1.545827e-02	9.634476e-03	6.704595e-04	6.341148e-04
0.00047       	1.144984e-02	1.594785e-02	9.399577e-03	6.576027e-04	6.222883e-04
0.00048       	1.114458e-02	1.648446e-02	9.173590e-03	6.453365e-04	6.106363e-04
0.00049       	1.084899e-02	1.701801e-02	8.950657e-03	6.346431e-04	5.996800e-04
0.0005        	1.058296e-02	1.750216e-02	8.731076e-03	6.244671e-04	5.890174e-04
0.00051       	1.037063e-02	1.788503e-02	8.519895e-03	6.148270e-04	5.788210e-04
0.00052       	1.015917e-02	1.815473e-02	8.324101e-03	6.056365e-04	5.695689e-04
0.00053       	9.934532e-03	1.831550e-02	8.155302e-03	5.967606e-04	5.608997e-04
0.00054       	9.707089e-03	1.833937e-02	8.022202e-03	5.880953e-04	5.522515e-04
0.00055       	9.477807e-03	1.822590e-02	7.883046e-03	5.798665e-04	5.439977e-04
0.00056       	9.246441e-03	1.799754e-02	7.738513e-03	5.721774e-04	5.350199e-04
0.00057       	9.024380e-03	1.765664e-02	7.601152e-03	5.647651e-04	5.273778e-04
0.00058       	8.818817e-03	1.722356e-02	7.475303e-03	5.575578e-04	5.194289e-04
0.00059       	8.618908e-03	1.671412e-02	7.353205e-03	5.502617e-04	5.113404e-04
0.0006        	8.421827e-03	1.608791e-02	7.234931e-03	5.432719e-04	5.044185e-04
0.00061       	8.231028e-03	1.536133e-02	7.127150e-03	5.366034e-04	4.978429e-04
0.00062       	8.059555e-03	1.462533e-02	7.038112e-03	5.303416e-04	4.916178e-04
0.00063       	7.906094e-03	1.389032e-02	6.949143e-03	5.243504e-04	4.856916e-04
0.00064       	7.754506e-03	1.320971e-02	6.856940e-03	5.184924e-04	4.799818e-04
0.00065       	7.602593e-03	1.259563e-02	6.762625e-03	5.128430e-04	4.749050e-04
0.00066       	7.449619e-03	1.216225e-02	6.666566e-03	5.078267e-04	4.710354e-04
0.00067       	7.311744e-03	1.183933e-02	6.576001e-03	5.031749e-04	4.647831e-04
0.00068       	7.190502e-03	1.161789e-02	6.490567e-03	4.986234e-04	4.598486e-04
0.00069       	7.080847e-03	1.150256e-02	6.410226e-03	4.943423e-04	4.551412e-04
0.0007        	6.962949e-03	1.152968e-02	6.338541e-03	4.903164e-04	4.506672e-04
0.00071       	6.842888e-03	1.165320e-02	6.264164e-03	4.864212e-04	4.464306e-04
0.00072       	6.733356e-03	1.182508e-02	6.185167e-03	4.827046e-04	4.421171e-04
0.00073       	6.616395e-03	1.203902e-02	6.112004e-03	4.789869e-04	4.380950e-04
0.00074       	6.511680e-03	1.227034e-02	6.036434e-03	4.754096e-04	4.345399e-04
0.00075       	6.406730e-03	1.253799e-02	5.959109e-03	4.720994e-04	4.311806e-04
0.00076       	6.306314e-03	1.282843e-02	5.885258e-03	4.688749e-04	4.282199e-04
0.00077       	6.216804e-03	1.314187e-02	5.808009e-03	4.657424e-04	4.254909e-04
0.00078       	6.128226e-03	1.346664e-02	5.728110e-03	4.628683e-04	4.230438e-04
0.00079       	6.032560e-03	1.381365e-02	5.650897e-03	4.600769e-04	4.204690e-04
0.0008        	5.949418e-03	1.417308e-02	5.570131e-03	4.576065e-04	4.181697e-04
0.00081       	5.868722e-03	1.452186e-02	5.490924e-03	4.553132e-04	4.162684e-04
0.00082       	5.805063e-03	1.483542e-02	5.412022e-03	4.530223e-04	4.143919e-04
0.00083       	5.743832e-03	1.510413e-02	5.332506e-03	4.508792e-04	4.124751e-04
0.00084       	5.687051e-03	1.532599e-02	5.256959e-03	4.487181e-04	4.106324e-04
0.00085       	5.637079e-03	1.547667e-02	5.184090e-03	4.466294e-04	4.090639e-04
0.00086       	5.586939e-03	1.554854e-02	5.111784e-03	4.448478e-04	4.081437e-04
0.00087       	5.549849e-03	1.553170e-02	5.040294e-03	4.432217e-04	4.076618e-04
0.00088       	5.506983e-03	1.543109e-02	4.971070e-03	4.417820e-04	4.076419e-04
0.00089       	5.469738e-03	1.524858e-02	4.904569e-03	4.405365e-04	4.085464e-04
0.0009        	5.426742e-03	1.498744e-02	4.840929e-03	4.396096e-04	4.098831e-04
0.00091       	5.383372e-03	1.468820e-02	4.781359e-03	4.392854e-04	4.118248e-04
0.00092       	5.336798e-03	1.433954e-02	4.726208e-03	4.393258e-04	4.143701e-04
0.00093       	5.284216e-03	1.399801e-02	4.676244e-03	4.399413e-04	4.174973e-04
0.00094       	5.227488e-03	1.365889e-02	4.630814e-03	4.410469e-04	4.213245e-04
0.00095       	5.166248e-03	1.333429e-02	4.591069e-03	4.424227e-04	4.253033e-04
0.00096       	5.102286e-03	1.306967e-02	4.558888e-03	4.437850e-04	4.288254e-04
0.00097       	5.035461e-03	1.288209e-02	4.531302e-03	4.456362e-04	4.329388e-04
0.00098       	4.965365e-03	1.277099e-02	4.507010e-03	4.476579e-04	4.372848e-04
0.00099       	4.889079e-03	1.267511e-02	4.485172e-03	4.497965e-04	4.410135e-04
0.001         	4.814688e-03	1.262994e-02	4.464008e-03	4.526661e-04	4.473776e-04
0.00101       	4.737524e-03	1.259576e-02	4.443910e-03	4.558727e-04	4.530753e-04
0.00102       	4.661118e-03	1.260555e-02	4.424038e-03	4.590225e-04	4.577427e-04
0.00103       	4.590631e-03	1.262463e-02	4.403317e-03	4.613374e-04	4.655353e-04
0.00104       	4.527891e-03	1.268229e-02	4.381672e-03	4.634025e-04	4.680519e-04
0.00105       	4.474577e-03	1.274012e-02	4.358874e-03	4.657484e-04	4.728816e-04
0.00106       	4.436433e-03	1.281623e-02	4.334315e-03	4.681961e-04	4.763821e-04
0.00107       	4.409859e-03	1.288646e-02	4.307741e-03	4.707802e-04	4.800878e-04
0.00108       	4.392624e-03	1.295748e-02	4.279754e-03	4.728414e-04	4.817198e-04
0.00109       	4.390753e-03	1.302008e-02	4.249042e-03	4.745130e-04	4.832240e-04
0.0011        	4.404267e-03	1.306974e-02	4.215706e-03	4.753167e-04	4.846492e-04
0.00111       	4.428247e-03	1.312217e-02	4.180197e-03	4.759421e-04	4.835970e-04
0.00112       	4.458751e-03	1.317036e-02	4.142047e-03	4.764075e-04	4.839138e-04
0.00113       	4.494266e-03	1.322147e-02	4.101028e-03	4.767408e-04	4.832780e-04
0.00114       	4.532987e-03	1.327038e-02	4.058491e-03	4.765420e-04	4.816631e-04
0.00115       	4.572416e-03	1.332773e-02	4.013957e-03	4.754500e-04	4.796325e-04
0.00116       	4.614086e-03	1.346434e-02	3.967897e-03	4.736210e-04	4.765582e-04
0.00117       	4.653920e-03	1.372087e-02	3.920512e-03	4.712738e-04	4.732744e-04
0.00118       	4.691562e-03	1.407078e-02	3.872867e-03	4.691335e-04	4.711238e-04
0.00119       	4.724914e-03	1.442599e-02	3.824653e-03	4.673213e-04	4.690119e-04
0.0012        	4.755649e-03	1.477740e-02	3.775972e-03	4.657554e-04	4.656195e-04
0.00121       	4.781967e-03	1.508123e-02	3.728597e-03	4.635493e-04	4.617413e-04
0.00122       	4.803602e-03	1.528071e-02	3.683592e-03	4.608499e-04	4.571904e-04
0.00123       	4.819065e-03	1.535821e-02	3.640528e-03	4.580791e-04	4.539327e-04
0.00124       	4.834252e-03	1.535580e-02	3.599489e-03	4.556295e-04	4.518224e-04
0.00125       	4.841806e-03	1.523398e-02	3.560613e-03	4.532274e-04	4.492194e-04
0.00126       	4.847284e-03	1.507829e-02	3.524598e-03	4.508780e-04	4.464526e-04
0.00127       	4.845348e-03	1.486973e-02	3.490245e-03	4.490375e-04	4.440438e-04
0.00128       	4.845811e-03	1.465212e-02	3.457864e-03	4.466291e-04	4.411496e-04
0.00129       	4.835381e-03	1.446398e-02	3.427641e-03	4.442987e-04	4.385774e-04
0.0013        	4.829343e-03	1.426231e-02	3.398815e-03	4.421740e-04	4.370130e-04
0.00131       	4.811534e-03	1.406386e-02	3.370978e-03	4.405436e-04	4.358187e-04
0.00132       	4.800991e-03	1.391304e-02	3.343309e-03	4.390154e-04	4.338180e-04
0.00133       	4.777561e-03	1.384681e-02	3.315142e-03	4.375745e-04	4.320045e-04
0.00134       	4.757929e-03	1.393671e-02	3.288004e-03	4.362769e-04	4.303839e-04
0.00135       	4.721183e-03	1.414765e-02	3.260466e-03	4.352887e-04	4.284870e-04
0.00136       	4.687136e-03	1.440895e-02	3.232936e-03	4.342277e-04	4.273077e-04
0.00137       	4.637844e-03	1.470825e-02	3.204550e-03	4.334002e-04	4.261113e-04
0.00138       	4.594577e-03	1.502507e-02	3.176151e-03	4.328350e-04	4.245510e-04
0.00139       	4.544823e-03	1.534334e-02	3.147180e-03	4.327503e-04	4.230175e-04
0.0014        	4.504200e-03	1.565705e-02	3.118531e-03	4.329847e-04	4.213509e-04
0.00141       	4.459700e-03	1.593428e-02	3.088896e-03	4.335284e-04	4.211961e-04
0.00142       	4.421688e-03	1.616666e-02	3.058955e-03	4.345814e-04	4.198642e-04
0.00143       	4.384337e-03	1.637112e-02	3.028617e-03	4.359184e-04	4.184649e-04
0.00144       	4.348831e-03	1.651234e-02	2.998765e-03	4.375506e-04	4.170215e-04
0.00145       	4.306345e-03	1.665231e-02	2.968670e-03	4.393717e-04	4.162929e-04
0.00146       	4.269151e-03	1.671920e-02	2.939469e-03	4.419775e-04	4.159002e-04
0.00147       	4.229013e-03	1.680942e-02	2.910754e-03	4.451962e-04	4.157853e-04
0.00148       	4.189871e-03	1.682151e-02	2.884083e-03	4.489859e-04	4.155197e-04
0.00149       	4.148278e-03	1.680174e-02	2.858264e-03	4.534009e-04	4.149712e-04
0.0015        	4.114171e-03	1.673013e-02	2.833771e-03	4.589375e-04	4.148078e-04
0.00151       	4.090355e-03	1.663397e-02	2.811191e-03	4.655535e-04	4.149942e-04
0.00152       	4.075986e-03	1.649095e-02	2.789734e-03	4.734627e-04	4.156166e-04
0.00153       	4.066346e-03	1.633127e-02	2.769975e-03	4.829929e-04	4.160657e-04
0.00154       	4.064041e-03	1.612332e-02	2.751660e-03	4.945856e-04	4.165398e-04
0.00155       	4.062591e-03	1.590284e-02	2.733458e-03	5.086141e-04	4.177208e-04
0.00156       	4.063266e-03	1.561226e-02	2.715191e-03	5.256289e-04	4.191441e-04
0.00157       	4.064319e-03	1.530465e-02	2.697280e-03	5.464289e-04	4.213577e-04
0.00158       	4.065602e-03	1.497944e-02	2.681260e-03	5.720068e-04	4.241742e-04
0.00159       	4.066420e-03	1.461041e-02	2.665259e-03	6.036417e-04	4.277625e-04
0.0016        	4.070433e-03	1.422265e-02	2.648997e-03	6.431225e-04	4.325780e-04
0.00161       	4.072619e-03	1.383177e-02	2.632685e-03	6.931270e-04	4.389638e-04
0.00162       	4.071631e-03	1.341554e-02	2.616199e-03	7.563182e-04	4.474841e-04
0.00163       	4.068655e-03	1.301832e-02	2.598853e-03	8.357388e-04	4.594534e-04
0.00164       	4.067219e-03	1.265546e-02	2.580957e-03	9.337932e-04	4.765137e-04
0.00165       	4.063006e-03	1.239550e-02	2.561948e-03	1.053085e-03	5.007636e-04
0.00166       	4.057980e-03	1.222207e-02	2.542410e-03	1.198248e-03	5.346344e-04
0.00167       	4.054229e-03	1.217105e-02	2.522870e-03	1.363295e-03	5.800436e-04
0.00168       	4.050772e-03	1.220146e-02	2.502655e-03	1.533091e-03	6.362149e-04
0.00169       	4.044031e-03	1.230206e-02	2.481131e-03	1.732020e-03	7.091925e-04
0.0017        	4.029922e-03	1.245325e-02	2.459312e-03	1.957583e-03	8.028233e-04
0.00171       	4.007227e-03	1.266407e-02	2.439131e-03	2.209238e-03	9.228869e-04
0.00172       	3.981244e-03	1.289077e-02	2.420022e-03	2.464094e-03	1.065129e-03
0.00173       	3.950126e-03	1.317218e-02	2.401204e-03	2.731692e-03	1.234680e-03
0.00174       	3.920132e-03	1.346762e-02	2.382778e-03	3.005241e-03	1.432328e-03
0.00175       	3.897475e-03	1.377325e-02	2.365036e-03	3.287688e-03	1.659997e-03
0.00176       	3.873404e-03	1.408425e-02	2.347944e-03	3.573214e-03	1.916613e-03
0.00177       	3.872180e-03	1.438738e-02	2.331682e-03	3.861838e-03	2.205359e-03
0.00178       	3.875659e-03	1.469974e-02	2.315418e-03	4.157605e-03	2.529641e-03
0.00179       	3.883548e-03	1.498859e-02	2.299796e-03	4.458162e-03	2.889270e-03
0.0018        	3.887051e-03	1.526936e-02	2.284656e-03	4.762837e-03	3.288981e-03
0.00181       	3.901961e-03	1.552062e-02	2.268996e-03	5.077594e-03	3.726827e-03
0.00182       	3.923457e-03	1.574141e-02	2.253469e-03	5.389739e-03	4.207795e-03
0.00183       	3.955386e-03	1.592993e-02	2.239335e-03	5.695490e-03	4.731213e-03
0.00184       	3.983401e-03	1.607846e-02	2.225720e-03	5.994940e-03	5.288436e-03
0.00185       	4.020166e-03	1.620574e-02	2.214167e-03	6.289887e-03	5.901848e-03
0.00186       	4.059799e-03	1.628337e-02	2.205522e-03	6.583807e-03	6.581751e-03
0.00187       	4.108118e-03	1.632932e-02	2.197995e-03	6.872667e-03	7.351034e-03
0.00188       	4.157369e-03	1.634347e-02	2.190931e-03	7.157317e-03	8.215124e-03
0.00189       	4.207779e-03	1.630907e-02	2.184960e-03	7.436636e-03	9.241337e-03
0.0019        	4.256259e-03	1.620479e-02	2.179164e-03	7.708543e-03	1.048251e-02
0.00191       	4.309170e-03	1.604994e-02	2.174055e-03	7.971786e-03	1.203892e-02
0.00192       	4.359419e-03	1.584634e-02	2.169725e-03	8.223502e-03	1.391417e-02
0.00193       	4.410757e-03	1.560545e-02	2.165370e-03	8.464947e-03	1.614376e-02
0.00194       	4.461360e-03	1.532028e-02	2.161301e-03	8.641703e-03	1.747045e-02
0.00195       	4.507748e-03	1.500978e-02	2.157777e-03	8.763696e-03	1.757821e-02
0.00196       	4.553475e-03	1.465650e-02	2.154374e-03	8.860523e-03	1.722233e-02
0.00197       	4.593188e-03	1.429711e-02	2.151371e-03	8.934162e-03	1.655935e-02
0.00198       	4.634501e-03	1.392285e-02	2.147802e-03	8.991400e-03	1.571060e-02
0.00199       	4.666566e-03	1.355632e-02	2.143819e-03	9.017795e-03	1.480340e-02
0.002         	4.698659e-03	1.320895e-02	2.139191e-03	9.044473e-03	1.391304e-02
0.00201       	4.718438e-03	1.290182e-02	2.134009e-03	9.057975e-03	1.307939e-02
0.00202       	4.742563e-03	1.261420e-02	2.131268e-03	9.061654e-03	1.230572e-02
0.00203       	4.749775e-03	1.234935e-02	2.127646e-03	9.057034e-03	1.164115e-02
0.00204       	4.764244e-03	1.209882e-02	2.123602e-03	9.046030e-03	1.110136e-02
0.00205       	4.763434e-03	1.186621e-02	2.119640e-03	9.029723e-03	1.070012e-02
0.00206       	4.760836e-03	1.164432e-02	2.116155e-03	9.006739e-03	1.033774e-02
0.00207       	4.751704e-03	1.144911e-02	2.112134e-03	8.973010e-03	9.937858e-03
0.00208       	4.742258e-03	1.126986e-02	2.109061e-03	8.930704e-03	9.604698e-03
0.00209       	4.725484e-03	1.110785e-02	2.105822e-03	8.884273e-03	9.335833e-03
0.0021        	4.705126e-03	1.095467e-02	2.102255e-03	8.839053e-03	9.127354e-03
0.00211       	4.683147e-03	1.081058e-02	2.097722e-03	8.796947e-03	8.968468e-03
0.00212       	4.652226e-03	1.066008e-02	2.092992e-03	8.741950e-03	8.850116e-03
0.00213       	4.629494e-03	1.051369e-02	2.089206e-03	8.687474e-03	8.760987e-03
0.00214       	4.600462e-03	1.035053e-02	2.083878e-03	8.626669e-03	8.695501e-03
0.00215       	4.576865e-03	1.018552e-02	2.076502e-03	8.561846e-03	8.647372e-03
0.00216       	4.546744e-03	1.000408e-02	2.071211e-03	8.487620e-03	8.604260e-03
0.00217       	4.516170e-03	9.815818e-03	2.064154e-03	8.407679e-03	8.565942e-03
0.00218       	4.475695e-03	9.617057e-03	2.055588e-03	8.320005e-03	8.533380e-03
0.00219       	4.436668e-03	9.420620e-03	2.045923e-03	8.225136e-03	8.510724e-03
0.0022        	4.386651e-03	9.208688e-03	2.035217e-03	8.120414e-03	8.506162e-03
0.00221       	4.346217e-03	8.995749e-03	2.022823e-03	8.018212e-03	8.521584e-03
0.00222       	4.300983e-03	8.778126e-03	2.009261e-03	7.910129e-03	8.549608e-03
0.00223       	4.269342e-03	8.559882e-03	1.995701e-03	7.788794e-03	8.504587e-03
0.00224       	4.229499e-03	8.330421e-03	1.982251e-03	7.661341e-03	8.419203e-03
0.00225       	4.202591e-03	8.096148e-03	1.968227e-03	7.532521e-03	8.324215e-03
0.00226       	4.174070e-03	7.853224e-03	1.953753e-03	7.404942e-03	8.216984e-03
0.00227       	4.157906e-03	7.605499e-03	1.939248e-03	7.277493e-03	8.101961e-03
0.00228       	4.136012e-03	7.353571e-03	1.928446e-03	7.141201e-03	7.973301e-03
0.00229       	4.125866e-03	7.098835e-03	1.918195e-03	6.997660e-03	7.831193e-03
0.0023        	4.120351e-03	6.839770e-03	1.906562e-03	6.854939e-03	7.689319e-03
0.00231       	4.114586e-03	6.582303e-03	1.893104e-03	6.705681e-03	7.544346e-03
0.00232       	4.095694e-03	6.331402e-03	1.878884e-03	6.559424e-03	7.376213e-03
0.00233       	4.086260e-03	6.088258e-03	1.863497e-03	6.416624e-03	7.188436e-03
0.00234       	4.070327e-03	5.855621e-03	1.846464e-03	6.277052e-03	6.991469e-03
0.00235       	4.054621e-03	5.640622e-03	1.828325e-03	6.143243e-03	6.795773e-03
0.00236       	4.048680e-03	5.464687e-03	1.810599e-03	6.009398e-03	6.608591e-03
0.00237       	4.025481e-03	5.340167e-03	1.792054e-03	5.877189e-03	6.430866e-03
0.00238       	3.994853e-03	5.259317e-03	1.775194e-03	5.750691e-03	6.260130e-03
0.00239       	3.973044e-03	5.205177e-03	1.759117e-03	5.631795e-03	6.121278e-03
0.0024        	3.953524e-03	5.181378e-03	1.747124e-03	5.521271e-03	6.013609e-03
0.00241       	3.939605e-03	5.194044e-03	1.737059e-03	5.416819e-03	5.940840e-03
0.00242       	3.917443e-03	5.241465e-03	1.731975e-03	5.314605e-03	5.843366e-03
0.00243       	3.893946e-03	5.308046e-03	1.727039e-03	5.211551e-03	5.678432e-03
0.00244       	3.884222e-03	5.386179e-03	1.721589e-03	5.110601e-03	5.521408e-03
0.00245       	3.873296e-03	5.473088e-03	1.714795e-03	5.013057e-03	5.369565e-03
0.00246       	3.871708e-03	5.560067e-03	1.707347e-03	4.916425e-03	5.226713e-03
0.00247       	3.862255e-03	5.647756e-03	1.699081e-03	4.823659e-03	5.103790e-03
0.00248       	3.857289e-03	5.739118e-03	1.692008e-03	4.731861e-03	4.980708e-03
0.00249       	3.846180e-03	5.830526e-03	1.687558e-03	4.639964e-03	4.847901e-03
0.0025        	3.840289e-03	5.920551e-03	1.684846e-03	4.545879e-03	4.717878e-03
0.00251       	3.832071e-03	6.007136e-03	1.687226e-03	4.459328e-03	4.595826e-03
0.00252       	3.834699e-03	6.088262e-03	1.692551e-03	4.374859e-03	4.482291e-03
0.00253       	3.833654e-03	6.162281e-03	1.701725e-03	4.290867e-03	4.371917e-03
0.00254       	3.834789e-03	6.233624e-03	1.712396e-03	4.214528e-03	4.268315e-03
0.00255       	3.837353e-03	6.305512e-03	1.725694e-03	4.134540e-03	4.170124e-03
0.00256       	3.847645e-03	6.378650e-03	1.740306e-03	4.056203e-03	4.086252e-03
0.00257       	3.867145e-03	6.445448e-03	1.760095e-03	3.987692e-03	4.008369e-03
0.00258       	3.896496e-03	6.500434e-03	1.785952e-03	3.920911e-03	3.935874e-03
0.00259       	3.941980e-03	6.542275e-03	1.813529e-03	3.858332e-03	3.866413e-03
0.0026        	3.998516e-03	6.570913e-03	1.846250e-03	3.798386e-03	3.835812e-03
0.00261       	4.053442e-03	6.597376e-03	1.883415e-03	3.742404e-03	3.802827e-03
0.00262       	4.123702e-03	6.623453e-03	1.922899e-03	3.688713e-03	3.776929e-03
0.00263       	4.187323e-03	6.644311e-03	1.965099e-03	3.639248e-03	3.758916e-03
0.00264       	4.253797e-03	6.664814e-03	2.009631e-03	3.591847e-03	3.741565e-03
0.00265       	4.311642e-03	6.686330e-03	2.050966e-03	3.545581e-03	3.712631e-03
0.00266       	4.378444e-03	6.712594e-03	2.091600e-03	3.492480e-03	3.644701e-03
0.00267       	4.437317e-03	6.739254e-03	2.127807e-03	3.441206e-03	3.569499e-03
0.00268       	4.499035e-03	6.768471e-03	2.162831e-03	3.397623e-03	3.499171e-03
0.00269       	4.542742e-03	6.798851e-03	2.197810e-03	3.356359e-03	3.440676e-03
0.0027        	4.599310e-03	6.836892e-03	2.233918e-03	3.319444e-03	3.403434e-03
0.00271       	4.641128e-03	6.886613e-03	2.268798e-03	3.283453e-03	3.368454e-03
0.00272       	4.691863e-03	6.952427e-03	2.303180e-03	3.257692e-03	3.332315e-03
0.00273       	4.734055e-03	7.009645e-03	2.346826e-03	3.232586e-03	3.304742e-03
0.00274       	4.788630e-03	7.062407e-03	2.394280e-03	3.204945e-03	3.284949e-03
0.00275       	4.828705e-03	7.113374e-03	2.442580e-03	3.175442e-03	3.265134e-03
0.00276       	4.875463e-03	7.175525e-03	2.486303e-03	3.144826e-03	3.247831e-03
0.00277       	4.905427e-03	7.246355e-03	2.525220e-03	3.118107e-03	3.234292e-03
0.00278       	4.947876e-03	7.327828e-03	2.560529e-03	3.095918e-03	3.227222e-03
0.00279       	4.984597e-03	7.398627e-03	2.595988e-03	3.082449e-03	3.232625e-03
0.0028        	5.012875e-03	7.460202e-03	2.633014e-03	3.078797e-03	3.245311e-03
0.00281       	5.028509e-03	7.516822e-03	2.670045e-03	3.080661e-03	3.266727e-03
0.00282       	5.036447e-03	7.561764e-03	2.703751e-03	3.087419e-03	3.292073e-03
0.00283       	5.016756e-03	7.602274e-03	2.731498e-03	3.094302e-03	3.312093e-03
0.00284       	4.979035e-03	7.620636e-03	2.763487e-03	3.100579e-03	3.328710e-03
0.00285       	4.952353e-03	7.608237e-03	2.792326e-03	3.112756e-03	3.364926e-03
0.00286       	4.914324e-03	7.583229e-03	2.824363e-03	3.125579e-03	3.403788e-03
0.00287       	4.880429e-03	7.527970e-03	2.856625e-03	3.140082e-03	3.441066e-03
0.00288       	4.848948e-03	7.460521e-03	2.884451e-03	3.154881e-03	3.476389e-03
0.00289       	4.820844e-03	7.369556e-03	2.907525e-03	3.167553e-03	3.506230e-03
0.0029        	4.789664e-03	7.282665e-03	2.927963e-03	3.188071e-03	3.542620e-03
0.00291       	4.760156e-03	7.181256e-03	2.944006e-03	3.209363e-03	3.582007e-03
0.00292       	4.724339e-03	7.084480e-03	2.954961e-03	3.229911e-03	3.620992e-03
0.00293       	4.688095e-03	6.986451e-03	2.962116e-03	3.257277e-03	3.667313e-03
0.00294       	4.645309e-03	6.882902e-03	2.969661e-03	3.285684e-03	3.719112e-03
0.00295       	4.588044e-03	6.772069e-03	2.972620e-03	3.307978e-03	3.772061e-03
0.00296       	4.519121e-03	6.662870e-03	2.973312e-03	3.323705e-03	3.819206e-03
0.00297       	4.437974e-03	6.552448e-03	2.968986e-03	3.335419e-03	3.862558e-03
0.00298       	4.349658e-03	6.443438e-03	2.958104e-03	3.346547e-03	3.903557e-03
0.00299       	4.245091e-03	6.326929e-03	2.944232e-03	3.356074e-03	3.939981e-03
0.003         	4.136280e-03	6.203288e-03	2.927801e-03	3.356936e-03	3.973566e-03
0.00301       	4.012493e-03	6.077234e-03	2.906995e-03	3.353609e-03	4.002041e-03
0.00302       	3.882862e-03	5.937624e-03	2.882438e-03	3.345177e-03	4.028101e-03
0.00303       	3.739049e-03	5.791503e-03	2.854157e-03	3.335210e-03	4.051437e-03
0.00304       	3.623762e-03	5.638629e-03	2.824976e-03	3.319240e-03	4.074251e-03
0.00305       	3.513984e-03	5.483062e-03	2.790568e-03	3.292872e-03	4.082542e-03
0.00306       	3.420412e-03	5.333258e-03	2.755903e-03	3.263959e-03	4.086088e-03
0.00307       	3.331395e-03	5.180714e-03	2.716812e-03	3.232520e-03	4.071665e-03
0.00308       	3.251621e-03	5.049138e-03	2.681292e-03	3.198155e-03	4.047009e-03
0.00309       	3.186311e-03	4.945567e-03	2.655977e-03	3.161032e-03	4.011305e-03
0.0031        	3.172004e-03	4.933854e-03	2.695224e-03	3.119187e-03	3.967826e-03
0.00311       	3.066860e-03	4.819374e-03	2.569647e-03	3.072151e-03	3.921360e-03
0.00312       	2.983407e-03	4.721477e-03	2.530036e-03	3.020434e-03	3.865594e-03
0.00313       	2.903039e-03	4.626868e-03	2.492080e-03	2.965177e-03	3.803908e-03
0.00314       	2.825274e-03	4.542195e-03	2.454098e-03	2.907863e-03	3.738137e-03
0.00315       	2.755032e-03	4.461931e-03	2.421528e-03	2.847826e-03	3.668889e-03
0.00316       	2.679160e-03	4.391050e-03	2.387379e-03	2.788764e-03	3.594276e-03
0.00317       	2.623636e-03	4.324196e-03	2.354910e-03	2.726471e-03	3.511983e-03
0.00318       	2.578688e-03	4.254814e-03	2.322552e-03	2.662720e-03	3.430798e-03
0.00319       	2.558931e-03	4.178502e-03	2.289889e-03	2.598582e-03	3.345703e-03
0.0032        	2.539235e-03	4.100799e-03	2.255406e-03	2.535717e-03	3.260620e-03
0.00321       	2.530705e-03	4.020830e-03	2.220841e-03	2.475656e-03	3.175153e-03
0.00322       	2.533073e-03	3.942704e-03	2.188909e-03	2.414352e-03	3.091086e-03
0.00323       	2.545978e-03	3.867502e-03	2.158536e-03	2.354027e-03	3.014601e-03
0.00324       	2.556608e-03	3.799946e-03	2.128696e-03	2.295782e-03	2.941715e-03
0.00325       	2.572053e-03	3.734534e-03	2.102578e-03	2.239779e-03	2.868236e-03
0.00326       	2.599524e-03	3.671994e-03	2.075918e-03	2.185957e-03	2.800060e-03
0.00327       	2.629548e-03	3.619629e-03	2.052049e-03	2.139420e-03	2.738778e-03
0.00328       	2.662864e-03	3.570261e-03	2.030305e-03	2.093174e-03	2.706229e-03
0.00329       	2.695887e-03	3.524178e-03	2.010638e-03	2.048354e-03	2.678729e-03
0.0033        	2.735210e-03	3.481599e-03	1.992076e-03	2.008944e-03	2.656560e-03
0.00331       	2.769933e-03	3.443213e-03	1.975117e-03	1.971079e-03	2.633191e-03
0.00332       	2.800994e-03	3.403883e-03	1.959882e-03	1.941056e-03	2.613084e-03
0.00333       	2.826432e-03	3.362889e-03	1.945333e-03	1.914583e-03	2.590381e-03
0.00334       	2.851705e-03	3.317462e-03	1.934149e-03	1.890610e-03	2.561484e-03
0.00335       	2.876066e-03	3.268312e-03	1.924864e-03	1.866245e-03	2.528376e-03
0.00336       	2.898873e-03	3.214829e-03	1.916747e-03	1.837845e-03	2.486900e-03
0.00337       	2.916666e-03	3.162977e-03	1.910822e-03	1.806974e-03	2.438469e-03
0.00338       	2.928057e-03	3.117025e-03	1.906375e-03	1.775322e-03	2.393272e-03
0.00339       	2.936946e-03	3.076354e-03	1.901993e-03	1.742073e-03	2.345062e-03
0.0034        	2.945969e-03	3.039469e-03	1.897386e-03	1.703996e-03	2.298487e-03
0.00341       	2.954246e-03	3.007831e-03	1.892964e-03	1.664553e-03	2.251316e-03
0.00342       	2.962167e-03	2.987452e-03	1.888513e-03	1.628112e-03	2.201725e-03
0.00343       	2.965387e-03	2.974883e-03	1.883799e-03	1.590999e-03	2.149415e-03
0.00344       	2.967982e-03	2.967447e-03	1.878869e-03	1.552806e-03	2.094748e-03
0.00345       	2.967979e-03	2.961646e-03	1.874149e-03	1.513632e-03	2.036111e-03
0.00346       	2.970197e-03	2.957279e-03	1.870225e-03	1.473536e-03	1.975225e-03
0.00347       	2.970877e-03	2.949142e-03	1.871330e-03	1.433827e-03	1.912885e-03
0.00348       	2.975982e-03	2.939932e-03	1.867941e-03	1.395008e-03	1.847577e-03
0.00349       	2.982802e-03	2.930999e-03	1.864943e-03	1.355171e-03	1.785306e-03
0.0035        	2.987740e-03	2.921198e-03	1.864001e-03	1.317834e-03	1.727024e-03
0.00351       	2.990603e-03	2.915147e-03	1.860517e-03	1.280503e-03	1.670715e-03
0.00352       	2.989420e-03	2.909602e-03	1.858154e-03	1.244929e-03	1.617699e-03
0.00353       	2.985821e-03	2.901815e-03	1.858409e-03	1.210381e-03	1.564876e-03
0.00354       	2.982475e-03	2.897237e-03	1.856608e-03	1.177220e-03	1.521803e-03
0.00355       	2.983414e-03	2.895889e-03	1.856240e-03	1.147175e-03	1.490759e-03
0.00356       	2.986757e-03	2.898907e-03	1.854132e-03	1.119461e-03	1.460984e-03
0.00357       	2.993450e-03	2.902275e-03	1.852271e-03	1.093363e-03	1.432831e-03
0.00358       	3.000249e-03	2.906403e-03	1.850030e-03	1.067105e-03	1.402575e-03
0.00359       	3.008470e-03	2.909576e-03	1.848311e-03	1.041653e-03	1.371371e-03
0.0036        	3.013415e-03	2.909642e-03	1.848637e-03	1.016416e-03	1.341013e-03
0.00361       	3.019504e-03	2.911090e-03	1.846763e-03	9.903380e-04	1.324821e-03
0.00362       	3.022301e-03	2.914983e-03	1.844272e-03	9.639312e-04	1.313017e-03
0.00363       	3.026720e-03	2.921335e-03	1.844215e-03	9.374713e-04	1.303196e-03
0.00364       	3.031234e-03	2.932022e-03	1.840143e-03	9.092738e-04	1.297994e-03
0.00365       	3.034153e-03	2.941626e-03	1.836874e-03	8.848566e-04	1.300068e-03
0.00366       	3.035796e-03	2.953126e-03	1.832548e-03	8.623279e-04	1.299675e-03
0.00367       	3.037768e-03	2.961093e-03	1.829117e-03	8.448914e-04	1.301498e-03
0.00368       	3.039587e-03	2.972209e-03	1.822424e-03	8.295445e-04	1.296876e-03
0.00369       	3.045065e-03	2.977217e-03	1.817963e-03	8.178185e-04	1.289600e-03
0.0037        	3.052028e-03	2.979024e-03	1.812373e-03	8.046741e-04	1.281763e-03
0.00371       	3.058949e-03	2.977584e-03	1.807108e-03	7.933062e-04	1.285832e-03
0.00372       	3.064144e-03	2.972353e-03	1.803928e-03	7.847099e-04	1.299451e-03
0.00373       	3.068230e-03	2.966128e-03	1.798060e-03	7.788717e-04	1.320443e-03