/*--------------------------------*- C++ -*----------------------------------*\
  =========                 |
  \\      /  F ield         | OpenFOAM: The Open Source CFD Toolbox
   \\    /   O peration     | Website:  https://openfoam.org
    \\  /    A nd           | Version:  8
     \\/     M anipulation  |
\*---------------------------------------------------------------------------*/
FoamFile
{
    version     2.0;
    format      ascii;
    class       volVectorField;
    location    "0.08";
    object      U;
}
// * * * * * * * * * * * * * * * * * * * * * * * * * * * * * * * * * * * * * //

dimensions      [0 1 -1 0 0 0 0];

internalField   nonuniform List<vector> 
15677
(
(-0.0199314 9.66506 0)
(0.0435746 9.92084 0)
(0.00238175 9.37803 0)
(0.0147381 9.97646 0)
(0.0186122 9.78776 0)
(0.0070189 9.14236 0)
(0.027963 9.99433 0)
(0.0171073 9.9248 0)
(0.0107323 9.65497 0)
(0.00608247 8.96007 0)
(0.0261101 10.0015 0)
(0.0215033 9.97855 0)
(0.0163929 9.85342 0)
(0.0090187 9.53033 0)
(0.00490779 8.81679 0)
(0.0249566 10.0047 0)
(0.0223761 10.0027 0)
(0.0191802 9.94291 0)
(0.0153695 9.77929 0)
(0.00788246 9.41947 0)
(0.00403742 8.70227 0)
(0.0239796 10.0062 0)
(0.0225526 10.0142 0)
(0.020791 9.9861 0)
(0.0182791 9.90238 0)
(0.013897 9.7079 0)
(0.00680918 9.32141 0)
(0.00336866 8.60998 0)
(0.0226396 10.0067 0)
(0.0223896 10.0199 0)
(0.0216178 10.0081 0)
(0.0201781 9.96497 0)
(0.0170433 9.86188 0)
(0.0124645 9.64079 0)
(0.00585988 9.23621 0)
(0.00280826 8.53595 0)
(0.020955 10.0067 0)
(0.0218493 10.0223 0)
(0.0219426 10.0195 0)
(0.0212693 9.99811 0)
(0.0190824 9.94375 0)
(0.0156541 9.82237 0)
(0.0110984 9.57956 0)
(0.00498178 9.16392 0)
(0.00229209 8.47743 0)
(0.0190385 10.0063 0)
(0.0210124 10.0226 0)
(0.0218363 10.0255 0)
(0.0217686 10.0162 0)
(0.0202552 9.98822 0)
(0.0177148 9.92293 0)
(0.0141806 9.78538 0)
(0.00970568 9.52561 0)
(0.00411746 9.10433 0)
(0.00178195 8.43292 0)
(0.016966 10.0057 0)
(0.019952 10.0218 0)
(0.0213842 10.0284 0)
(0.0217974 10.0263 0)
(0.0208023 10.0132 0)
(0.0188641 9.97877 0)
(0.0161647 9.9037 0)
(0.0125547 9.75239 0)
(0.0082233 9.47996 0)
(0.00322175 9.05721 0)
(0.00124893 8.40145 0)
(0.0147607 10.0051 0)
(0.0186558 10.0203 0)
(0.0206251 10.0292 0)
(0.0214775 10.0317 0)
(0.0208524 10.0274 0)
(0.019327 10.0106 0)
(0.0171905 9.97074 0)
(0.0143495 9.88727 0)
(0.0107124 9.72456 0)
(0.00660221 9.44336 0)
(0.00225405 9.0225 0)
(0.000670784 8.38272 0)
(0.0124453 10.0044 0)
(0.0172245 10.0183 0)
(0.0195684 10.0285 0)
(0.0208127 10.0341 0)
(0.0204646 10.0355 0)
(0.0192546 10.0291 0)
(0.0174697 10.0093 0)
(0.0151389 9.96516 0)
(0.0121887 9.87465 0)
(0.00859386 9.70293 0)
(0.00479187 9.41654 0)
(0.00118061 9.00026 0)
(-3.91241e-06 8.37653 0)
(0.0101692 10.0036 0)
(0.0157281 10.0161 0)
(0.0182579 10.0268 0)
(0.0198269 10.0346 0)
(0.0197481 10.0396 0)
(0.0187305 10.0398 0)
(0.0171621 10.032 0)
(0.0151169 10.0104 0)
(0.0126137 9.96294 0)
(0.00960632 9.86682 0)
(0.006135 9.68858 0)
(0.00274546 9.40018 0)
(-4.03071e-06 8.99065 0)
(-0.00064261 8.38285 0)
(0.00821673 10.0029 0)
(0.0141214 10.0136 0)
(0.0167444 10.0245 0)
(0.0185328 10.0335 0)
(0.0186874 10.0412 0)
(0.0178143 10.0457 0)
(0.0163591 10.0454 0)
(0.0144435 10.0372 0)
(0.0121533 10.0147 0)
(0.00951813 9.96494 0)
(0.00651968 9.86478 0)
(0.00327322 9.68246 0)
(0.000414642 9.39489 0)
(-0.00136703 8.99399 0)
(-0.00141325 8.4018 0)
(0.00666225 10.0023 0)
(0.012568 10.0113 0)
(0.0150572 10.0217 0)
(0.0169431 10.0314 0)
(0.0172899 10.0408 0)
(0.0165174 10.0485 0)
(0.0151062 10.0531 0)
(0.0132117 10.0532 0)
(0.0109636 10.0454 0)
(0.00846128 10.0229 0)
(0.00574615 9.97206 0)
(0.00284638 9.86951 0)
(-8.03581e-05 9.68554 0)
(-0.00223824 9.40131 0)
(-0.00291501 9.01045 0)
(-0.00228934 8.43367 0)
(0.00550521 10.0018 0)
(0.0111633 10.0093 0)
(0.0134004 10.0189 0)
(0.0150852 10.0286 0)
(0.0155607 10.0391 0)
(0.0148458 10.0489 0)
(0.0134204 10.057 0)
(0.0114637 10.0625 0)
(0.00913461 10.0639 0)
(0.00658079 10.0574 0)
(0.00390979 10.0359 0)
(0.00119955 9.98522 0)
(-0.00147668 9.88201 0)
(-0.0038781 9.69867 0)
(-0.00522673 9.41999 0)
(-0.0046461 9.04026 0)
(-0.00326379 8.47851 0)
(0.00453759 10.0014 0)
(0.00978092 10.0077 0)
(0.0118963 10.0164 0)
(0.0132038 10.0256 0)
(0.0135135 10.0363 0)
(0.0128022 10.0475 0)
(0.0113048 10.0581 0)
(0.00921384 10.0674 0)
(0.00670477 10.0747 0)
(0.0039605 10.0782 0)
(0.00113857 10.074 0)
(-0.00162972 10.0546 0)
(-0.0042412 10.0053 0)
(-0.00655204 9.90318 0)
(-0.00824703 9.72265 0)
(-0.00859364 9.45134 0)
(-0.00657011 9.08352 0)
(-0.0043327 8.53638 0)
(0.00375149 10.0011 0)
(0.00854158 10.0064 0)
(0.0104696 10.0143 0)
(0.0114653 10.0229 0)
(0.011404 10.0331 0)
(0.0103964 10.0448 0)
(0.00875957 10.0571 0)
(0.00646192 10.0692 0)
(0.00368261 10.0806 0)
(0.000631374 10.0905 0)
(-0.00249898 10.097 0)
(-0.00553396 10.0961 0)
(-0.00830229 10.0798 0)
(-0.010662 10.0333 0)
(-0.0124215 9.93391 0)
(-0.0132153 9.75809 0)
(-0.0123546 9.49565 0)
(-0.00869407 9.14033 0)
(-0.00549419 8.60713 0)
(0.00311152 10.0009 0)
(0.00742419 10.0053 0)
(0.00916196 10.0124 0)
(0.00982967 10.0204 0)
(0.00942705 10.03 0)
(0.00791839 10.0414 0)
(0.00579321 10.0544 0)
(0.00320562 10.0685 0)
(6.37606e-05 10.0828 0)
(-0.00340592 10.0971 0)
(-0.00698151 10.1105 0)
(-0.0104466 10.121 0)
(-0.0135886 10.1243 0)
(-0.0162116 10.1123 0)
(-0.0181309 10.0699 0)
(-0.0191205 9.97489 0)
(-0.0187884 9.80551 0)
(-0.0165069 9.55308 0)
(-0.0110062 9.21046 0)
(-0.00673728 8.69044 0)
(0.00258584 10.0008 0)
(0.00641456 10.0045 0)
(0.00795845 10.0108 0)
(0.00831239 10.0182 0)
(0.00755731 10.027 0)
(0.00559808 10.0379 0)
(0.00275764 10.0507 0)
(-0.000544228 10.0657 0)
(-0.00415355 10.0823 0)
(-0.00816097 10.0997 0)
(-0.0123157 10.1178 0)
(-0.0163675 10.1356 0)
(-0.0200656 10.151 0)
(-0.0231698 10.1596 0)
(-0.0254526 10.153 0)
(-0.0267027 10.116 0)
(-0.0266676 10.0267 0)
(-0.0249601 9.86516 0)
(-0.0210364 9.62358 0)
(-0.0134989 9.29374 0)
(-0.00805452 8.78587 0)
(0.00216836 10.0006 0)
(0.00550674 10.0038 0)
(0.00685388 10.0095 0)
(0.00691597 10.0162 0)
(0.00581446 10.0243 0)
(0.00341033 10.0345 0)
(-6.90159e-05 10.0468 0)
(-0.00434725 10.0616 0)
(-0.00895577 10.0793 0)
(-0.0136379 10.0991 0)
(-0.0185215 10.1206 0)
(-0.0233221 10.1434 0)
(-0.0277523 10.1665 0)
(-0.0315333 10.1878 0)
(-0.0343961 10.2027 0)
(-0.0360958 10.2025 0)
(-0.0364023 10.1719 0)
(-0.0350574 10.0898 0)
(-0.031708 9.93718 0)
(-0.0259143 9.70696 0)
(-0.0161417 9.38951 0)
(-0.00942433 8.8926 0)
(0.00184799 10.0005 0)
(0.00473181 10.0032 0)
(0.00584631 10.0083 0)
(0.00564254 10.0144 0)
(0.00421165 10.0218 0)
(0.00138133 10.0312 0)
(-0.00271723 10.0428 0)
(-0.0078678 10.0571 0)
(-0.0137878 10.0746 0)
(-0.0198193 10.0957 0)
(-0.0256067 10.1198 0)
(-0.0313409 10.1462 0)
(-0.0366939 10.1746 0)
(-0.0413462 10.204 0)
(-0.0449935 10.2321 0)
(-0.0473539 10.2542 0)
(-0.0481734 10.2614 0)
(-0.0472223 10.2383 0)
(-0.0442593 10.1643 0)
(-0.0389874 10.0214 0)
(-0.0310976 9.80274 0)
(-0.018914 9.49723 0)
(-0.010829 9.00989 0)
(0.0015992 10.0005 0)
(0.00410365 10.0028 0)
(0.00497107 10.0073 0)
(0.00449191 10.0128 0)
(0.00275701 10.0195 0)
(-0.000469002 10.028 0)
(-0.00515289 10.0388 0)
(-0.0111477 10.0523 0)
(-0.0182343 10.0693 0)
(-0.0259953 10.0903 0)
(-0.0335486 10.1157 0)
(-0.0404366 10.1449 0)
(-0.0469358 10.1772 0)
(-0.0526797 10.2122 0)
(-0.057323 10.2488 0)
(-0.0605527 10.2846 0)
(-0.0620857 10.3148 0)
(-0.0616789 10.3301 0)
(-0.0591212 10.3153 0)
(-0.0542099 10.2502 0)
(-0.0467338 10.1176 0)
(-0.0365324 9.91032 0)
(-0.0217579 9.61585 0)
(-0.0122292 9.13616 0)
(0.0014026 10.0004 0)
(0.00359626 10.0025 0)
(0.0042471 10.0065 0)
(0.00350571 10.0113 0)
(0.00145458 10.0173 0)
(-0.00212796 10.0251 0)
(-0.00735071 10.0349 0)
(-0.0141414 10.0474 0)
(-0.0223526 10.0636 0)
(-0.0316484 10.084 0)
(-0.0414398 10.1092 0)
(-0.0505799 10.1399 0)
(-0.0584981 10.1752 0)
(-0.0655996 10.2144 0)
(-0.0714889 10.2569 0)
(-0.0758141 10.3016 0)
(-0.0782674 10.3459 0)
(-0.078587 10.3847 0)
(-0.07656 10.4089 0)
(-0.0720191 10.403 0)
(-0.0648234 10.3473 0)
(-0.0548609 10.225 0)
(-0.0421072 10.0288 0)
(-0.0245631 9.74408 0)
(-0.0131854 9.26968 0)
(0.00124499 10.0004 0)
(0.00318517 10.0022 0)
(0.00365098 10.0058 0)
(0.00270434 10.0102 0)
(0.000355316 10.0154 0)
(-0.00358913 10.0222 0)
(-0.00929256 10.0311 0)
(-0.0168148 10.0426 0)
(-0.0260856 10.0576 0)
(-0.0368579 10.0769 0)
(-0.0486334 10.1015 0)
(-0.060618 10.132 0)
(-0.0713458 10.169 0)
(-0.0801379 10.2115 0)
(-0.0875842 10.2584 0)
(-0.093282 10.3093 0)
(-0.096891 10.3628 0)
(-0.0981352 10.4163 0)
(-0.0967984 10.4644 0)
(-0.0927243 10.4978 0)
(-0.0858036 10.5012 0)
(-0.0759765 10.4551 0)
(-0.0632269 10.3431 0)
(-0.0477713 10.157 0)
(-0.0273441 9.88164 0)
(-0.0142541 9.41044 0)
(0.00111696 10.0003 0)
(0.00284744 10.002 0)
(0.003159 10.0053 0)
(0.00205696 10.0092 0)
(-0.000517301 10.0138 0)
(-0.00479401 10.0197 0)
(-0.0109672 10.0274 0)
(-0.0191429 10.0378 0)
(-0.0293888 10.0515 0)
(-0.0415533 10.0695 0)
(-0.0552374 10.0929 0)
(-0.0697428 10.1227 0)
(-0.084027 10.1594 0)
(-0.0962555 10.2037 0)
(-0.105656 10.2543 0)
(-0.113083 10.31 0)
(-0.118151 10.3701 0)
(-0.120562 10.4331 0)
(-0.120098 10.4961 0)
(-0.116614 10.5538 0)
(-0.110029 10.5966 0)
(-0.100318 10.6095 0)
(-0.0874944 10.573 0)
(-0.0716793 10.4706 0)
(-0.0526344 10.2941 0)
(-0.0237261 10.022 0)
(-0.00927292 9.4958 0)
(0.00101172 10.0003 0)
(0.00256865 10.0018 0)
(0.00275047 10.0048 0)
(0.00153186 10.0083 0)
(-0.00120217 10.0124 0)
(-0.0057231 10.0175 0)
(-0.0123077 10.0241 0)
(-0.0211089 10.0331 0)
(-0.0322287 10.0453 0)
(-0.0456775 10.0619 0)
(-0.0611648 10.0837 0)
(-0.0780987 10.1121 0)
(-0.0955348 10.1479 0)
(-0.112138 10.1919 0)
(-0.125662 10.2446 0)
(-0.135289 10.3044 0)
(-0.142222 10.3696 0)
(-0.146121 10.4395 0)
(-0.146763 10.5125 0)
(-0.144022 10.5854 0)
(-0.137857 10.6528 0)
(-0.128284 10.7052 0)
(-0.115344 10.7273 0)
(-0.0991638 10.6999 0)
(-0.0796363 10.6068 0)
(-0.0573237 10.4371 0)
(-0.0193827 10.1932 0)
(-0.0014565 9.5614 0)
(0.000924238 10.0003 0)
(0.0023375 10.0017 0)
(0.00240767 10.0045 0)
(0.00110839 10.0076 0)
(-0.00173925 10.0112 0)
(-0.00642581 10.0156 0)
(-0.0133016 10.0211 0)
(-0.022634 10.0286 0)
(-0.0345813 10.0392 0)
(-0.0491859 10.0541 0)
(-0.066343 10.0741 0)
(-0.0855786 10.1007 0)
(-0.106059 10.135 0)
(-0.126541 10.178 0)
(-0.14537 10.2303 0)
(-0.159865 10.2924 0)
(-0.169202 10.3622 0)
(-0.17503 10.4378 0)
(-0.177111 10.5181 0)
(-0.175338 10.6013 0)
(-0.16971 10.6842 0)
(-0.160304 10.7612 0)
(-0.147229 10.8228 0)
(-0.130622 10.8538 0)
(-0.11045 10.8351 0)
(-0.0866206 10.7502 0)
(-0.0610854 10.5939 0)
(-0.0213208 10.3662 0)
(0.0025946 9.61856 0)
(0.000850825 10.0002 0)
(0.00214494 10.0016 0)
(0.0021221 10.0041 0)
(0.000766687 10.007 0)
(-0.0021584 10.0102 0)
(-0.00695095 10.0139 0)
(-0.0140149 10.0185 0)
(-0.0237146 10.0247 0)
(-0.036352 10.0335 0)
(-0.0520455 10.0462 0)
(-0.0707135 10.0642 0)
(-0.0920903 10.0887 0)
(-0.115467 10.1209 0)
(-0.139709 10.1622 0)
(-0.163246 10.2134 0)
(-0.18408 10.2751 0)
(-0.199061 10.3477 0)
(-0.207434 10.4284 0)
(-0.211433 10.5149 0)
(-0.210964 10.6058 0)
(-0.206071 10.6994 0)
(-0.196905 10.7922 0)
(-0.183665 10.8786 0)
(-0.166563 10.9489 0)
(-0.145652 10.9883 0)
(-0.120812 10.9779 0)
(-0.0921789 10.9018 0)
(-0.0625104 10.7634 0)
(-0.0246624 10.5361 0)
(0.00351644 9.67534 0)
(0.00078873 10.0002 0)
(0.00198364 10.0015 0)
(0.00188422 10.0039 0)
(0.000487188 10.0065 0)
(-0.00248448 10.0093 0)
(-0.00733753 10.0125 0)
(-0.0145105 10.0163 0)
(-0.0244395 10.0213 0)
(-0.0375488 10.0283 0)
(-0.0541411 10.0387 0)
(-0.0742315 10.0542 0)
(-0.0975577 10.0762 0)
(-0.123643 10.1059 0)
(-0.151481 10.1448 0)
(-0.1796 10.1942 0)
(-0.206064 10.2549 0)
(-0.22851 10.3271 0)
(-0.243329 10.411 0)
(-0.249932 10.5033 0)
(-0.251271 10.601 0)
(-0.247442 10.7028 0)
(-0.238677 10.8066 0)
(-0.225282 10.9089 0)
(-0.207594 11.0042 0)
(-0.185827 11.0828 0)
(-0.160005 11.1301 0)
(-0.130443 11.1277 0)
(-0.0973404 11.0616 0)
(-0.0642952 10.9404 0)
(-0.0274048 10.7015 0)
(0.00313966 9.7489 0)
(0.000735851 10.0002 0)
(0.0018477 10.0014 0)
(0.00168752 10.0036 0)
(0.000257396 10.006 0)
(-0.00273796 10.0085 0)
(-0.00761688 10.0112 0)
(-0.0148393 10.0143 0)
(-0.0248918 10.0182 0)
(-0.0382907 10.0238 0)
(-0.0554951 10.032 0)
(-0.0767546 10.0446 0)
(-0.101921 10.0635 0)
(-0.130489 10.0904 0)
(-0.16171 10.1264 0)
(-0.194234 10.1731 0)
(-0.226207 10.2318 0)
(-0.255293 10.303 0)
(-0.278789 10.3866 0)
(-0.292638 10.4826 0)
(-0.296536 10.5871 0)
(-0.294285 10.6963 0)
(-0.286219 10.8088 0)
(-0.272785 10.9225 0)
(-0.254457 11.034 0)
(-0.231656 11.1374 0)
(-0.204638 11.2237 0)
(-0.173836 11.2786 0)
(-0.140025 11.2839 0)
(-0.103322 11.2286 0)
(-0.0669187 11.1195 0)
(-0.0302483 10.8817 0)
(0.00205615 9.8334 0)
(0.000690534 10.0002 0)
(0.00173251 10.0013 0)
(0.00152185 10.0034 0)
(6.68231e-05 10.0056 0)
(-0.00293454 10.0079 0)
(-0.0078138 10.0101 0)
(-0.0150413 10.0126 0)
(-0.0251383 10.0156 0)
(-0.0386872 10.0197 0)
(-0.0562652 10.026 0)
(-0.0783219 10.0359 0)
(-0.105002 10.0512 0)
(-0.135927 10.0744 0)
(-0.170272 10.1071 0)
(-0.206969 10.1506 0)
(-0.244268 10.2064 0)
(-0.27989 10.2754 0)
(-0.311113 10.3582 0)
(-0.33492 10.4542 0)
(-0.346832 10.563 0)
(-0.346959 10.6799 0)
(-0.340107 10.8006 0)
(-0.326887 10.9236 0)
(-0.307974 11.0468 0)
(-0.283994 11.1666 0)
(-0.25548 11.2777 0)
(-0.223022 11.3712 0)
(-0.187505 11.433 0)
(-0.149916 11.4454 0)
(-0.110082 11.3996 0)
(-0.0707989 11.3195 0)
(-0.033247 11.0765 0)
(0.00036029 9.92695 0)
(0.000651504 10.0002 0)
(0.00163439 10.0012 0)
(0.00138151 10.0032 0)
(-8.9144e-05 10.0053 0)
(-0.00308668 10.0073 0)
(-0.00794783 10.0092 0)
(-0.0151483 10.0111 0)
(-0.0252315 10.0132 0)
(-0.0388261 10.0162 0)
(-0.0565951 10.0207 0)
(-0.0791403 10.0281 0)
(-0.106859 10.04 0)
(-0.13973 10.0588 0)
(-0.177062 10.0872 0)
(-0.217643 10.1269 0)
(-0.260025 10.179 0)
(-0.30201 10.245 0)
(-0.340889 10.3257 0)
(-0.373573 10.4211 0)
(-0.396763 10.5302 0)
(-0.405615 10.6523 0)
(-0.400808 10.7817 0)
(-0.388293 10.9137 0)
(-0.368986 11.0467 0)
(-0.343793 11.1787 0)
(-0.313519 11.3063 0)
(-0.278987 11.4244 0)
(-0.241189 11.5243 0)
(-0.201258 11.5921 0)
(-0.160026 11.6102 0)
(-0.117865 11.5934 0)
(-0.0755889 11.5387 0)
(-0.0364054 11.2666 0)
(-0.00153416 10.0276 0)
(0.000618069 10.0002 0)
(0.00155013 10.0012 0)
(0.00126221 10.0031 0)
(-0.000217387 10.005 0)
(-0.00320374 10.0068 0)
(-0.00803418 10.0083 0)
(-0.0151851 10.0097 0)
(-0.0252128 10.0112 0)
(-0.0387764 10.013 0)
(-0.0565995 10.016 0)
(-0.0793964 10.0211 0)
(-0.107758 10.03 0)
(-0.141976 10.0446 0)
(-0.181794 10.0677 0)
(-0.226122 10.1023 0)
(-0.273276 10.1502 0)
(-0.321378 10.2123 0)
(-0.367767 10.2898 0)
(-0.409306 10.3832 0)
(-0.442559 10.492 0)
(-0.464025 10.6149 0)
(-0.468569 10.7505 0)
(-0.4576 10.8923 0)
(-0.438338 11.0352 0)
(-0.412031 11.1776 0)
(-0.379838 11.3177 0)
(-0.342854 11.4523 0)
(-0.302262 11.5765 0)
(-0.259309 11.6818 0)
(-0.215062 11.7538 0)
(-0.171144 11.7967 0)
(-0.126346 11.808 0)
(-0.0807009 11.7536 0)
(-0.0394797 11.4517 0)
(-0.00335818 10.133 0)
(0.00147673 10.0012 0)
(0.00057825 10.0002 0)
(0.00115955 10.0029 0)
(-0.000323368 10.0047 0)
(-0.00329317 10.0063 0)
(-0.00808464 10.0076 0)
(-0.0151709 10.0086 0)
(-0.0251142 10.0093 0)
(-0.0385921 10.0102 0)
(-0.0563689 10.0118 0)
(-0.0792395 10.015 0)
(-0.10794 10.021 0)
(-0.143006 10.0318 0)
(-0.184564 10.0498 0)
(-0.232041 10.0781 0)
(-0.283846 10.1201 0)
(-0.337745 10.1775 0)
(-0.391413 10.2509 0)
(-0.441704 10.3412 0)
(-0.48507 10.4483 0)
(-0.5178 10.5714 0)
(-0.536279 10.7084 0)
(-0.535174 10.8575 0)
(-0.516775 11.0115 0)
(-0.489707 11.1646 0)
(-0.455567 11.3157 0)
(-0.415835 11.463 0)
(-0.371955 11.6037 0)
(-0.325358 11.733 0)
(-0.27731 11.8419 0)
(-0.230235 11.9365 0)
(-0.183038 12.0039 0)
(-0.134553 12.0201 0)
(-0.0857925 11.9627 0)
(-0.0423363 11.631 0)
(-0.00510423 10.2411 0)
(0.00107013 10.0028 0)
(0.00139242 10.0011 0)
(0.000530678 10.0002 0)
(-0.000412249 10.0045 0)
(-0.00336106 10.0059 0)
(-0.00810804 10.0069 0)
(-0.0151205 10.0075 0)
(-0.0249604 10.0078 0)
(-0.0383151 10.0078 0)
(-0.0559738 10.0081 0)
(-0.0787874 10.0095 0)
(-0.107598 10.0131 0)
(-0.143126 10.0204 0)
(-0.1858 10.0337 0)
(-0.23551 10.0559 0)
(-0.291269 10.0905 0)
(-0.350885 10.1412 0)
(-0.411517 10.2096 0)
(-0.470364 10.2955 0)
(-0.523806 10.3997 0)
(-0.567944 10.5215 0)
(-0.598873 10.6594 0)
(-0.612977 10.8107 0)
(-0.604819 10.9731 0)
(-0.57774 11.1387 0)
(-0.541877 11.3013 0)
(-0.499219 11.4602 0)
(-0.451605 11.6137 0)
(-0.400745 11.7594 0)
(-0.348132 11.8921 0)
(-0.296995 12.0226 0)
(-0.246354 12.1391 0)
(-0.194364 12.2093 0)
(-0.142303 12.2278 0)
(-0.0906274 12.165 0)
(-0.0449073 11.804 0)
(-0.00673078 10.3501 0)
(-0.000490419 10.0043 0)
(0.000978079 10.0027 0)
(0.00129028 10.001 0)
(0.00048534 10.0001 4.17467e-20)
(-0.00341341 10.0056 0)
(-0.00811147 10.0064 0)
(-0.0150447 10.0066 0)
(-0.0247704 10.0063 0)
(-0.0379772 10.0056 0)
(-0.0554686 10.0049 0)
(-0.0781314 10.0047 0)
(-0.106882 10.006 0)
(-0.14258 10.0102 0)
(-0.185885 10.0193 0)
(-0.237058 10.0359 0)
(-0.295665 10.0632 0)
(-0.360203 10.1054 0)
(-0.42779 10.1661 0)
(-0.494905 10.2468 0)
(-0.558288 10.3467 0)
(-0.613888 10.4658 0)
(-0.657524 10.6031 0)
(-0.685213 10.7562 0)
(-0.69346 10.9217 0)
(-0.676836 11.097 0)
(-0.639887 11.2734 0)
(-0.594372 11.4447 0)
(-0.542681 11.6102 0)
(-0.486951 11.7689 0)
(-0.42902 11.9179 0)
(-0.372918 12.0716 0)
(-0.317815 12.2229 0)
(-0.261526 12.34 0)
(-0.204968 12.4111 0)
(-0.149443 12.4292 0)
(-0.0950855 12.3594 0)
(-0.0471638 11.9703 0)
(-0.00820541 10.4584 0)
(-0.00346011 10.0053 0)
(-0.000553681 10.004 0)
(0.000873935 10.0025 1.89983e-19)
(0.00119075 10.0009 -1.32355e-19)
(0.000442175 10.0001 -8.19398e-20)
(-0.00810181 10.0059 0)
(-0.0149518 10.0058 0)
(-0.0245577 10.0051 0)
(-0.037603 10.0037 0)
(-0.0548949 10.002 0)
(-0.0773422 10.0004 0)
(-0.105912 9.9997 0)
(-0.141563 10.0011 0)
(-0.18513 10.0064 0)
(-0.237164 10.0178 0)
(-0.297675 10.0385 0)
(-0.365815 10.0722 0)
(-0.439478 10.1231 0)
(-0.514965 10.1955 0)
(-0.588053 10.2899 0)
(-0.655065 10.4049 0)
(-0.71158 10.54 0)
(-0.753248 10.6933 0)
(-0.77613 10.8616 0)
(-0.776994 11.0411 0)
(-0.750525 11.2286 0)
(-0.702629 11.4149 0)
(-0.646756 11.5937 0)
(-0.585638 11.7648 0)
(-0.521599 11.9269 0)
(-0.459701 12.0969 0)
(-0.399087 12.2709 0)
(-0.337304 12.4215 0)
(-0.275605 12.5374 0)
(-0.214702 12.6075 0)
(-0.155899 12.6233 0)
(-0.0991081 12.5456 0)
(-0.0491107 12.1295 0)
(-0.00951673 10.5646 0)
(-0.0080945 10.0054 0)
(-0.00346006 10.0049 -4.29191e-19)
(-0.000606548 10.0037 -2.0076e-19)
(0.00077574 10.0023 9.32396e-20)
(0.00109498 10.0009 -8.65779e-20)
(0.000401231 10.0001 0)
(-0.0148496 10.0051 0)
(-0.024332 10.004 0)
(-0.0372094 10.0021 0)
(-0.0542841 9.99948 0)
(-0.0764737 9.99663 0)
(-0.104778 9.99414 0)
(-0.140225 9.99306 0)
(-0.183778 9.99487 0)
(-0.236211 10.0017 0)
(-0.297888 10.0162 0)
(-0.368493 10.042 0)
(-0.446674 10.0831 0)
(-0.529592 10.1443 0)
(-0.612651 10.2298 0)
(-0.690923 10.3394 0)
(-0.760385 10.4708 0)
(-0.816347 10.6226 0)
(-0.854411 10.7922 0)
(-0.870832 10.9757 0)
(-0.862785 11.1686 0)
(-0.825176 11.3674 0)
(-0.765396 11.5624 0)
(-0.698593 11.7475 0)
(-0.62774 11.9225 0)
(-0.559139 12.1057 0)
(-0.49207 12.2958 0)
(-0.423548 12.4687 0)
(-0.355316 12.6168 0)
(-0.288449 12.7298 0)
(-0.223486 12.7972 0)
(-0.161645 12.8095 0)
(-0.102674 12.7231 0)
(-0.0507707 12.2813 0)
(-0.0106656 10.6677 0)
(-0.0147617 10.0045 0)
(-0.00799299 10.0049 9.07015e-19)
(-0.0034032 10.0044 0)
(-0.000654185 10.0034 1.96993e-19)
(0.000684302 10.0022 3.33415e-23)
(0.0010033 10.0008 0)
(0.000362524 10.0001 0)
(-0.0241019 10.003 0)
(-0.0368079 10.0006 0)
(-0.0536579 9.99724 0)
(-0.0755664 9.99328 0)
(-0.10355 9.98922 0)
(-0.138682 9.98591 0)
(-0.182021 9.98464 0)
(-0.234505 9.98724 0)
(-0.296777 9.99619 0)
(-0.368947 10.0147 0)
(-0.45029 10.0467 0)
(-0.538825 10.0967 0)
(-0.630885 10.1697 0)
(-0.720907 10.2698 0)
(-0.803284 10.396 0)
(-0.873758 10.5447 0)
(-0.927493 10.7138 0)
(-0.960195 10.8997 0)
(-0.968462 11.098 0)
(-0.950011 11.3035 0)
(-0.900077 11.5126 0)
(-0.827626 11.7151 0)
(-0.749436 11.9048 0)
(-0.673349 12.1012 0)
(-0.598761 12.3047 0)
(-0.522313 12.4934 0)
(-0.446127 12.6632 0)
(-0.371724 12.8071 0)
(-0.299999 12.9158 0)
(-0.231294 12.9796 0)
(-0.166691 12.9872 0)
(-0.105789 12.8918 0)
(-0.052172 12.4254 0)
(-0.011659 10.7672 0)
(-0.0239025 10.0022 0)
(-0.0145114 10.0038 1.19209e-22)
(-0.00775843 10.0043 0)
(-0.00334211 10.004 -2.0815e-19)
(-0.000692752 10.0032 1.97373e-23)
(0.000599394 10.002 0)
(0.00091565 10.0007 0)
(0.000326064 10.0001 0)
(-0.0364081 9.99928 0)
(-0.0530302 9.99526 0)
(-0.0746482 9.99033 0)
(-0.102279 9.98487 0)
(-0.137024 9.97958 0)
(-0.180007 9.97557 0)
(-0.232288 9.97441 0)
(-0.29472 9.97831 0)
(-0.367754 9.99018 0)
(-0.451177 10.0137 0)
(-0.543731 10.0532 0)
(-0.642708 10.1136 0)
(-0.743525 10.2 0)
(-0.8396 10.3162 0)
(-0.924709 10.4601 0)
(-0.994513 10.627 0)
(-1.04418 10.8137 0)
(-1.06969 11.0158 0)
(-1.06811 11.2283 0)
(-1.03785 11.4453 0)
(-0.974539 11.6633 0)
(-0.888748 11.8716 0)
(-0.804544 12.0833 0)
(-0.721516 12.3004 0)
(-0.635799 12.5027 0)
(-0.550224 12.6881 0)
(-0.466703 12.853 0)
(-0.386473 12.9914 0)
(-0.310253 13.0949 0)
(-0.238152 13.154 0)
(-0.171068 13.1562 0)
(-0.108478 13.0515 0)
(-0.0533422 12.5619 0)
(-0.0125077 10.8623 0)
(-0.0360616 9.99812 0)
(-0.0234461 10.0012 -5.06384e-19)
(-0.014012 10.003 0)
(-0.00752229 10.0037 0)
(-0.00326817 10.0036 6.12837e-19)
(-0.000721928 10.0029 0)
(0.00052098 10.0018 0)
(0.000832095 10.0007 1.63682e-19)
(0.000291874 10.0001 0)
(-0.0524116 9.99351 0)
(-0.0737356 9.98771 0)
(-0.101002 9.98101 0)
(-0.135318 9.97397 0)
(-0.177848 9.96751 0)
(-0.229744 9.963 0)
(-0.292016 9.96236 0)
(-0.365379 9.96822 0)
(-0.45003 9.98393 0)
(-0.545314 10.0136 0)
(-0.649347 10.062 0)
(-0.7586 10.1344 0)
(-0.867493 10.2358 0)
(-0.968397 10.3696 0)
(-1.05459 10.5324 0)
(-1.12182 10.718 0)
(-1.16546 10.9223 0)
(-1.1819 11.1402 0)
(-1.16886 11.3658 0)
(-1.1255 11.5933 0)
(-1.04788 11.8184 0)
(-0.955096 12.0497 0)
(-0.862801 12.2829 0)
(-0.766577 12.4991 0)
(-0.669998 12.6979 0)
(-0.575669 12.8782 0)
(-0.48522 13.0369 0)
(-0.399583 13.1689 0)
(-0.319255 13.2664 0)
(-0.24411 13.32 0)
(-0.174822 13.3164 0)
(-0.110772 13.2023 0)
(-0.054309 12.6906 0)
(-0.0132248 10.9528 0)
(-0.0518761 9.99196 0)
(-0.035328 9.99683 0)
(-0.0225718 10.0001 -5.00729e-19)
(-0.0135165 10.0022 -4.64939e-19)
(-0.00726866 10.0031 -8.63449e-19)
(-0.00317977 10.0032 0)
(-0.000741626 10.0026 -3.72404e-19)
(0.000449198 10.0017 -3.459e-19)
(0.000752671 10.0006 1.60639e-19)
(0.000259913 10.0001 0)
(-0.0728409 9.98539 0)
(-0.0997381 9.97759 0)
(-0.133609 9.969 0)
(-0.17563 9.96037 0)
(-0.227016 9.95286 0)
(-0.288895 9.94816 0)
(-0.362185 9.94861 0)
(-0.447409 9.95724 0)
(-0.544401 9.97788 0)
(-0.651973 10.0151 0)
(-0.767519 10.074 0)
(-0.886596 10.16 0)
(-1.00256 10.2779 0)
(-1.10677 10.4307 0)
(-1.19213 10.6133 0)
(-1.25474 10.8179 0)
(-1.2903 11.0395 0)
(-1.29581 11.2724 0)
(-1.26978 11.5101 0)
(-1.21214 11.7462 0)
(-1.12775 11.9956 0)
(-1.02541 12.2495 0)
(-0.917371 12.4824 0)
(-0.808215 12.6953 0)
(-0.701201 12.8889 0)
(-0.598594 13.0626 0)
(-0.501697 13.2142 0)
(-0.411113 13.3391 0)
(-0.327079 13.4299 0)
(-0.249231 13.4775 0)
(-0.178003 13.4676 0)
(-0.11271 13.3443 0)
(-0.0550993 12.8118 0)
(-0.013823 11.0386 0)
(-0.0720684 9.98334 0)
(-0.0507783 9.99027 -5.66448e-19)
(-0.0339399 9.99541 5.29025e-19)
(-0.021712 9.99908 -2.69123e-22)
(-0.0129976 10.0014 4.56166e-19)
(-0.00699403 10.0026 4.2372e-19)
(-0.00307727 10.0028 7.86996e-19)
(-0.00075177 10.0024 5.48204e-19)
(0.000383888 10.0015 -1.69743e-19)
(0.000677453 10.0006 0)
(0.000230166 10.0001 0)
(-0.0985025 9.97457 0)
(-0.13192 9.9646 0)
(-0.173411 9.95403 0)
(-0.224211 9.94386 0)
(-0.285536 9.93554 0)
(-0.35846 9.93112 0)
(-0.443759 9.93336 0)
(-0.541663 9.94575 0)
(-0.651559 9.97259 0)
(-0.771634 10.0188 0)
(-0.898457 10.0899 0)
(-1.02659 10.1911 0)
(-1.14831 10.3271 0)
(-1.25399 10.5 0)
(-1.3364 10.703 0)
(-1.39219 10.9266 0)
(-1.4176 11.1651 0)
(-1.41039 11.412 0)
(-1.36991 11.6601 0)
(-1.30686 11.9219 0)
(-1.21271 12.1954 0)
(-1.09148 12.4499 0)
(-0.967898 12.6799 0)
(-0.846235 12.8876 0)
(-0.729343 13.0744 0)
(-0.619026 13.2405 0)
(-0.516211 13.3843 0)
(-0.421155 13.5014 0)
(-0.33381 13.5851 0)
(-0.253589 13.6265 0)
(-0.180667 13.6101 0)
(-0.114329 13.4777 0)
(-0.0557369 12.9256 0)
(-0.0143156 11.1196 0)
(-0.0974392 9.97189 0)
(-0.0705017 9.98114 -8.53142e-22)
(-0.0487036 9.98844 0)
(-0.0325839 9.99404 -4.33688e-22)
(-0.0208215 9.99806 0)
(-0.0124493 10.0006 -4.47689e-19)
(-0.00669845 10.002 -8.31642e-19)
(-0.00296039 10.0024 1.97078e-23)
(-0.000752519 10.0021 3.58665e-19)
(0.000325083 10.0014 -1.66583e-19)
(0.00060642 10.0005 1.54736e-19)
(0.000202609 10.0001 0)
(-0.130272 9.96069 0)
(-0.171219 9.94841 0)
(-0.221401 9.93587 0)
(-0.282073 9.92432 0)
(-0.354423 9.91555 0)
(-0.439429 9.91203 0)
(-0.537634 9.91694 0)
(-0.648898 9.93426 0)
(-0.772072 9.96872 0)
(-0.904612 10.0256 0)
(-1.04217 10.1105 0)
(-1.17827 10.2286 0)
(-1.3041 10.3841 0)
(-1.40917 10.5781 0)
(-1.48633 10.8018 0)
(-1.53304 11.0442 0)
(-1.54626 11.2987 0)
(-1.52461 11.558 0)
(-1.47985 11.8335 0)
(-1.40802 12.1211 0)
(-1.29283 12.3967 0)
(-1.15285 12.649 0)
(-1.01417 12.8739 0)
(-0.88058 13.0747 0)
(-0.754456 13.2536 0)
(-0.637058 13.4114 0)
(-0.528878 13.5467 0)
(-0.429822 13.6557 0)
(-0.339548 13.7321 0)
(-0.257259 13.7669 0)
(-0.182872 13.744 0)
(-0.115667 13.6028 0)
(-0.0562427 13.0322 0)
(-0.0147164 11.1957 0)
(-0.128859 9.95723 0)
(-0.0952779 9.96907 6.32867e-19)
(-0.0675277 9.97882 -5.92321e-19)
(-0.0466881 9.98669 5.48923e-19)
(-0.031189 9.99273 0)
(-0.0198898 9.99708 0)
(-0.0118712 9.99993 4.39368e-19)
(-0.00638289 10.0015 -4.08033e-19)
(-0.00282952 10.0021 2.56556e-23)
(-0.00074367 10.0019 1.76029e-19)
(0.000272603 10.0013 -1.6351e-19)
(0.000539478 10.0005 -1.5186e-19)
(0.000177334 10.0001 0)
(-0.169081 9.94343 0)
(-0.218626 9.92878 0)
(-0.278598 9.91435 0)
(-0.350243 9.9017 0)
(-0.434691 9.89301 0)
(-0.532739 9.89117 0)
(-0.644629 9.89983 0)
(-0.769764 9.92343 0)
(-0.906359 9.96709 0)
(-1.05104 10.0364 0)
(-1.19847 10.1369 0)
(-1.34112 10.2735 0)
(-1.46915 10.4497 0)
(-1.5713 10.6653 0)
(-1.64078 10.9098 0)
(-1.67613 11.1704 0)
(-1.67515 11.4396 0)
(-1.65062 11.7279 0)
(-1.59783 12.0312 0)
(-1.50384 12.3229 0)
(-1.36752 12.5977 0)
(-1.20922 12.8452 0)
(-1.0561 13.0631 0)
(-0.911308 13.2557 0)
(-0.776651 13.4259 0)
(-0.652824 13.5746 0)
(-0.539831 13.7011 0)
(-0.437234 13.8019 0)
(-0.344394 13.8708 0)
(-0.260319 13.899 0)
(-0.184673 13.8696 0)
(-0.11676 13.72 0)
(-0.0566375 13.1319 0)
(-0.015039 11.2672 0)
(-0.167256 9.93901 0)
(-0.125956 9.95364 0)
(-0.0911462 9.96613 6.256e-19)
(-0.0646516 9.9766 -1.16291e-18)
(-0.0446235 9.98502 1.07895e-18)
(-0.0297379 9.99148 -1.00125e-18)
(-0.0189171 9.99615 0)
(-0.0112649 9.99924 4.31371e-19)
(-0.0060474 10.001 -4.00449e-19)
(-0.00268622 10.0017 -3.72009e-19)
(-0.000724309 10.0017 0)
(0.000226254 10.0012 1.60475e-19)
(0.000476929 10.0004 0)
(0.000154781 10 0)
(-0.215916 9.92249 0)
(-0.275157 9.90549 0)
(-0.346031 9.88938 0)
(-0.429752 9.87607 0)
(-0.527309 9.86815 0)
(-0.63926 9.86897 0)
(-0.765464 9.88264 0)
(-0.904773 9.91403 0)
(-1.05466 9.96861 0)
(-1.21084 10.0521 0)
(-1.36697 10.1699 0)
(-1.51444 10.3264 0)
(-1.64248 10.5243 0)
(-1.73923 10.7621 0)
(-1.79854 11.0271 0)
(-1.82023 11.3047 0)
(-1.81813 11.6048 0)
(-1.78662 11.9232 0)
(-1.71021 12.2329 0)
(-1.59359 12.5255 0)
(-1.43635 12.7965 0)
(-1.26045 13.0372 0)
(-1.09372 13.2465 0)
(-0.938552 13.4299 0)
(-0.796089 13.5906 0)
(-0.666483 13.73 0)
(-0.549221 13.8476 0)
(-0.443514 13.94 0)
(-0.348447 14.0015 0)
(-0.262843 14.023 0)
(-0.186124 13.9872 0)
(-0.117639 13.8295 0)
(-0.0569396 13.2251 0)
(-0.0152948 11.3341 0)
(-0.213618 9.9169 0)
(-0.163442 9.93447 0)
(-0.12036 9.94996 0)
(-0.0871702 9.96334 1.22819e-18)
(-0.0617166 9.97449 -1.13969e-18)
(-0.0424849 9.98343 1.05769e-18)
(-0.0282318 9.99029 0)
(-0.0179056 9.99527 -4.55734e-19)
(-0.010631 9.9986 0)
(-0.00569307 10.0006 3.93045e-19)
(-0.00252869 10.0014 0)
(-0.000696277 10.0015 0)
(0.000186292 10.001 0)
(0.000420114 10.0004 1.56e-19)
(0.000134995 10 7.61901e-20)
(-0.271796 9.89762 0)
(-0.341849 9.87843 0)
(-0.42475 9.86099 0)
(-0.521597 9.84762 0)
(-0.633191 9.84136 0)
(-0.759774 9.846 0)
(-0.900736 9.86613 0)
(-1.05427 9.907 0)
(-1.21703 9.97431 0)
(-1.38376 10.0738 0)
(-1.54708 10.2105 0)
(-1.69738 10.3882 0)
(-1.82302 10.6086 0)
(-1.91178 10.8686 0)
(-1.95837 11.1531 0)
(-1.9811 11.4637 0)
(-1.97343 11.7964 0)
(-1.91698 12.1241 0)
(-1.81609 12.4368 0)
(-1.67677 12.7271 0)
(-1.49915 12.9918 0)
(-1.30655 13.2238 0)
(-1.12717 13.4235 0)
(-0.9625 13.5968 0)
(-0.812979 13.7475 0)
(-0.678216 13.8774 0)
(-0.5572 13.9859 0)
(-0.448786 14.0701 0)
(-0.351805 14.1242 0)
(-0.2649 14.1392 0)
(-0.187274 14.0972 0)
(-0.118335 13.9317 0)
(-0.0571648 13.312 0)
(-0.0154934 11.3966 0)
(-0.268964 9.89064 0)
(-0.208701 9.91122 0)
(-0.156026 9.9299 1.40542e-18)
(-0.115 9.94648 1.30301e-18)
(-0.0831231 9.9607 1.20827e-18)
(-0.0586865 9.9725 -1.12053e-18)
(-0.0402743 9.98194 0)
(-0.026674 9.98918 0)
(-0.0168572 9.99444 0)
(-0.00997102 9.998 8.31117e-19)
(-0.00532195 10.0001 3.85855e-19)
(-0.00235705 10.0011 3.58334e-19)
(-0.000659357 10.0013 0)
(0.000153929 10.001 -1.64836e-19)
(0.00036948 10.0003 -8.05306e-20)
(0.000117581 10 0)
(-0.337763 9.86869 0)
(-0.419761 9.84756 0)
(-0.515772 9.82932 0)
(-0.626729 9.81669 0)
(-0.753176 9.81316 0)
(-0.894957 9.82301 0)
(-1.05089 9.85123 0)
(-1.21843 9.90338 0)
(-1.39332 9.98527 0)
(-1.56934 10.1025 0)
(-1.73805 10.2596 0)
(-1.88891 10.4597 0)
(-2.00963 10.703 0)
(-2.0877 10.9847 0)
(-2.13798 11.3042 0)
(-2.15709 11.6501 0)
(-2.12342 11.9955 0)
(-2.0407 12.3288 0)
(-1.91487 12.6412 0)
(-1.75312 12.9264 0)
(-1.55592 13.1826 0)
(-1.34764 13.4043 0)
(-1.15665 13.5933 0)
(-0.983378 13.756 0)
(-0.827542 13.8965 0)
(-0.688212 14.0168 0)
(-0.563922 14.1164 0)
(-0.45317 14.1924 0)
(-0.354554 14.2393 0)
(-0.266555 14.248 0)
(-0.188167 14.2 0)
(-0.118873 14.0271 0)
(-0.0573248 13.3931 0)
(-0.0156453 11.455 0)
(-0.334344 9.86004 0)
(-0.262726 9.88357 0)
(-0.19905 9.90556 -2.97334e-18)
(-0.148948 9.92558 4.17524e-21)
(-0.109554 9.9432 -2.55541e-18)