/*--------------------------------*- C++ -*----------------------------------*\
  =========                 |
  \\      /  F ield         | OpenFOAM: The Open Source CFD Toolbox
   \\    /   O peration     | Website:  https://openfoam.org
    \\  /    A nd           | Version:  8
     \\/     M anipulation  |
\*---------------------------------------------------------------------------*/
FoamFile
{
    version     2.0;
    format      ascii;
    class       surfaceScalarField;
    location    "0.45";
    object      phi;
}
// * * * * * * * * * * * * * * * * * * * * * * * * * * * * * * * * * * * * * //

dimensions      [0 3 -1 0 0 0 0];

internalField   nonuniform List<scalar> 
31053
(
6.27913e-07
1.27521e-05
8.50065e-07
1.51578e-05
3.75625e-07
1.23765e-05
9.33072e-07
1.7557e-05
5.87664e-07
1.49458e-05
2.68118e-07
1.21083e-05
9.57084e-07
2.0216e-05
7.05405e-07
1.74393e-05
4.6173e-07
1.47522e-05
2.1374e-07
1.18946e-05
9.48526e-07
2.32486e-05
7.64508e-07
2.01569e-05
5.85603e-07
1.73154e-05
3.91329e-07
1.45746e-05
1.69318e-07
1.17253e-05
9.19117e-07
2.66894e-05
7.89152e-07
2.32239e-05
6.59024e-07
2.00835e-05
5.16091e-07
1.71906e-05
3.26376e-07
1.44176e-05
1.33864e-07
1.15914e-05
8.74406e-07
3.06647e-05
7.91522e-07
2.6687e-05
6.99258e-07
2.31837e-05
5.94376e-07
2.00052e-05
4.44651e-07
1.70723e-05
2.69676e-07
1.42817e-05
1.05985e-07
1.14854e-05
8.17974e-07
3.51964e-05
7.78498e-07
3.06777e-05
7.17098e-07
2.66692e-05
6.39525e-07
2.31385e-05
5.2141e-07
1.99284e-05
3.77297e-07
1.69647e-05
2.2094e-07
1.41668e-05
8.28988e-08
1.14025e-05
7.52442e-07
4.03855e-05
7.53695e-07
3.52212e-05
7.18749e-07
3.06761e-05
6.61455e-07
2.66473e-05
5.65583e-07
2.30944e-05
4.48632e-07
1.98571e-05
3.15648e-07
1.687e-05
1.77479e-07
1.40722e-05
6.27389e-08
1.13398e-05
6.79655e-07
4.63528e-05
7.19306e-07
4.04199e-05
7.07208e-07
3.52328e-05
6.66002e-07
3.06715e-05
5.86064e-07
2.66268e-05
4.88472e-07
2.30545e-05
3.78899e-07
1.97938e-05
2.57553e-07
1.67899e-05
1.37433e-07
1.39975e-05
4.42967e-08
1.12955e-05
6.01493e-07
5.32182e-05
6.77244e-07
4.63948e-05
6.83991e-07
4.04431e-05
6.56728e-07
3.5242e-05
5.88705e-07
3.06689e-05
5.04318e-07
2.66109e-05
4.11976e-07
2.30214e-05
3.10462e-07
1.97409e-05
2.01509e-07
1.67259e-05
9.94271e-08
1.39424e-05
2.67999e-08
1.12687e-05
5.19984e-07
6.10615e-05
6.29007e-07
5.32664e-05
6.50335e-07
4.64285e-05
6.35617e-07
4.04642e-05
5.76953e-07
3.52538e-05
5.01789e-07
3.06714e-05
4.20827e-07
2.66021e-05
3.34622e-07
2.29973e-05
2.42018e-07
1.97004e-05
1.46334e-07
1.6679e-05
6.25136e-08
1.39067e-05
9.77257e-09
1.12589e-05
4.37309e-07
7.00647e-05
5.75995e-07
6.11145e-05
6.07201e-07
5.33095e-05
6.0331e-07
4.64608e-05
5.52682e-07
4.04885e-05
4.84192e-07
3.52714e-05
4.10619e-07
3.06816e-05
3.34331e-07
2.66024e-05
2.55145e-07
2.29842e-05
1.72512e-07
1.96742e-05
9.12025e-08
1.66503e-05
2.59452e-08
1.38905e-05
-7.07541e-09
1.1266e-05
3.56537e-07
8.04128e-05
5.19327e-07
7.01213e-05
5.55687e-07
6.1166e-05
5.60073e-07
5.33528e-05
5.16681e-07
4.64968e-05
4.53264e-07
4.05194e-05
3.84508e-07
3.52975e-05
3.14154e-07
3.07018e-05
2.43593e-07
2.66139e-05
1.72536e-07
2.29841e-05
1.01191e-07
1.96643e-05
3.53765e-08
1.66408e-05
-1.06835e-08
1.38941e-05
-2.40046e-08
1.129e-05
2.93859e-07
7.62527e-05
4.59176e-07
8.04729e-05
4.97143e-07
7.01799e-05
5.06171e-07
6.12199e-05
4.69133e-07
5.34003e-05
4.09725e-07
4.65404e-05
3.44105e-07
4.05599e-05
2.77045e-07
3.53346e-05
2.11211e-07
3.07342e-05
1.4759e-07
2.66389e-05
8.59912e-08
2.29993e-05
2.73603e-08
1.96723e-05
-2.15625e-08
1.66517e-05
-4.77487e-08
1.39178e-05
-4.12016e-08
1.13312e-05
2.42519e-07
7.62413e-05
4.05242e-07
7.63066e-05
4.32937e-07
8.05371e-05
4.42148e-07
7.02439e-05
4.10046e-07
6.1279e-05
3.53685e-07
5.34564e-05
2.90004e-07
4.65945e-05
2.24479e-07
4.06124e-05
1.60666e-07
3.53852e-05
1.00736e-07
3.0781e-05
4.5428e-08
2.66794e-05
-5.19805e-09
2.30319e-05
-4.93161e-08
1.97e-05
-7.98862e-08
1.66839e-05
-8.53535e-08
1.3962e-05
-5.85786e-08
1.13898e-05
2.00616e-07
7.62319e-05
3.54833e-07
7.62917e-05
3.7544e-07
7.63641e-05
3.69121e-07
8.06102e-05
3.39532e-07
7.03144e-05
2.85059e-07
6.13476e-05
2.22202e-07
5.35242e-05
1.56909e-07
4.6662e-05
9.32438e-08
4.06798e-05
3.42736e-08
3.54516e-05
-1.82834e-08
3.08448e-05
-6.3637e-08
2.67379e-05
-1.01326e-07
2.30839e-05
-1.28967e-07
1.97491e-05
-1.39535e-07
1.6738e-05
-1.23419e-07
1.40268e-05
-7.60453e-08
1.14658e-05
1.66503e-07
7.62261e-05
3.08023e-07
7.62787e-05
3.21407e-07
7.63458e-05
3.02621e-07
7.64306e-05
2.58183e-07
8.06915e-05
2.03821e-07
7.03957e-05
1.40511e-07
6.14293e-05
7.42062e-08
5.36069e-05
9.22563e-09
4.6746e-05
-5.07588e-08
4.07649e-05
-1.03276e-07
3.55366e-05
-1.46638e-07
3.09278e-05
-1.79932e-07
2.68165e-05
-2.02397e-07
2.31573e-05
-2.11317e-07
1.98209e-05
-2.00274e-07
1.68149e-05
-1.61673e-07
1.41125e-05
-9.33969e-08
1.15592e-05
1.38719e-07
7.62178e-05
2.6473e-07
7.62694e-05
2.70851e-07
7.63293e-05
2.39581e-07
7.64088e-05
1.82956e-07
7.65058e-05
1.10433e-07
8.07849e-05
4.48052e-08
7.04914e-05
-2.39053e-08
6.15275e-05
-9.16692e-08
5.37078e-05
-1.54302e-07
4.68496e-05
-2.08836e-07
4.08704e-05
-2.52853e-07
3.56428e-05
-2.84687e-07
3.10325e-05
-3.0331e-07
2.69174e-05
-3.07935e-07
2.32539e-05
-2.95852e-07
1.99165e-05
-2.61566e-07
1.69148e-05
-1.99738e-07
1.42188e-05
-1.10451e-07
1.16697e-05
1.15988e-07
7.62127e-05
2.24856e-07
7.62577e-05
2.23734e-07
7.63165e-05
1.80388e-07
7.63885e-05
1.10959e-07
7.64808e-05
2.40775e-08
7.65922e-05
-6.45267e-08
8.08942e-05
-1.37614e-07
7.06051e-05
-2.09802e-07
6.16456e-05
-2.76826e-07
5.38303e-05
-3.35174e-07
4.69759e-05
-3.81931e-07
4.09995e-05
-4.14818e-07
3.5773e-05
-4.3214e-07
3.11613e-05
-4.33138e-07
2.70426e-05
-4.17122e-07
2.33752e-05
-3.81686e-07
2.00366e-05
-3.22764e-07
1.70378e-05
-2.37133e-07
1.43455e-05
-1.26908e-07
1.17966e-05
9.7255e-08
7.62087e-05
1.88313e-07
7.62493e-05
1.80046e-07
7.63013e-05
1.25243e-07
7.63717e-05
4.29967e-08
7.64564e-05
-5.85715e-08
7.65635e-05
-1.65185e-07
7.66928e-05
-2.66483e-07
8.10231e-05
-3.45365e-07
7.07406e-05
-4.18795e-07
6.17876e-05
-4.82987e-07
5.39781e-05
-5.34413e-07
4.71284e-05
-5.70422e-07
4.11551e-05
-5.88744e-07
3.59296e-05
-5.88209e-07
3.13164e-05
-5.68299e-07
2.71938e-05
-5.28687e-07
2.35222e-05
-4.67804e-07
2.01816e-05
-3.8303e-07
1.71837e-05
-2.73294e-07
1.44919e-05
-1.42528e-07
1.19391e-05
8.28801e-08
6.95964e-05
1.55027e-07
7.6242e-05
1.39811e-07
7.62895e-05
7.42563e-08
7.63523e-05
-2.04396e-08
7.64351e-05
-1.36463e-07
7.65343e-05
-2.61178e-07
7.66595e-05
-3.84499e-07
7.68109e-05
-4.97829e-07
8.11756e-05
-5.80412e-07
7.09023e-05
-6.52872e-07
6.19574e-05
-7.11279e-07
5.4155e-05
-7.52436e-07
4.73104e-05
-7.73738e-07
4.13401e-05
-7.73685e-07
3.6115e-05
-7.51475e-07
3.14996e-05
-7.07123e-07
2.73722e-05
-6.41189e-07
2.36956e-05
-5.52933e-07
2.03515e-05
-4.41449e-07
1.73519e-05
-3.07627e-07
1.4657e-05
-1.56911e-07
1.2096e-05
7.16951e-08
6.25552e-05
1.27527e-07
6.96239e-05
1.03059e-07
7.62788e-05
2.74834e-08
7.63363e-05
-7.90411e-08
7.64109e-05
-2.08923e-07
7.65076e-05
-3.51289e-07
7.66244e-05
-4.96583e-07
7.67715e-05
-6.36664e-07
7.69497e-05
-7.60975e-07
8.13561e-05
-8.45049e-07
7.10944e-05
-9.13291e-07
6.21594e-05
-9.62174e-07
5.43647e-05
-9.88517e-07
4.75252e-05
-9.90762e-07
4.15572e-05
-9.679e-07
3.63315e-05
-9.19848e-07
3.17123e-05
-8.47717e-07
2.75787e-05
-7.52859e-07
2.38955e-05
-6.35719e-07
2.05458e-05
-4.97015e-07
1.75412e-05
-3.39252e-07
1.48393e-05
-1.69407e-07
1.22654e-05
6.27628e-08
5.62269e-05
1.05184e-07
6.25775e-05
7.243e-08
6.96545e-05
-1.50715e-08
7.63213e-05
-1.32635e-07
7.63899e-05
-2.75521e-07
7.64775e-05
-4.34672e-07
7.65909e-05
-6.01325e-07
7.67292e-05
-7.67893e-07
7.69028e-05
-9.24518e-07
7.71132e-05
-1.0586e-06
8.15697e-05
-1.1407e-06
7.13218e-05
-1.20061e-06
6.23979e-05
-1.2348e-06
5.4611e-05
-1.24136e-06
4.77758e-05
-1.21941e-06
4.18087e-05
-1.16884e-06
3.65805e-05
-1.09096e-06
3.19556e-05
-9.87798e-07
2.78137e-05
-8.6185e-07
2.41217e-05
-7.14671e-07
2.07634e-05
-5.4836e-07
1.77504e-05
-3.67318e-07
1.50372e-05
-1.77838e-07
1.24433e-05
5.54861e-08
5.05393e-05
8.69929e-08
5.62451e-05
4.72684e-08
6.26027e-05
-5.0291e-08
6.96897e-05
-1.81137e-07
7.63698e-05
-3.35994e-07
7.64503e-05
-5.10742e-07
7.65536e-05
-6.97675e-07
7.66873e-05
-8.8991e-07
7.68512e-05
-1.07838e-06
7.70566e-05
-1.25116e-06
7.73058e-05
-1.39235e-06
8.18213e-05
-1.46805e-06
7.15893e-05
-1.51381e-06
6.26769e-05
-1.52767e-06
5.48973e-05
-1.50852e-06
4.80649e-05
-1.45665e-06
4.20965e-05
-1.37367e-06
3.68632e-05
-1.262e-06
3.22298e-05
-1.12497e-06
2.80768e-05
-9.66097e-07
2.43731e-05
-7.87934e-07
2.1003e-05
-5.94383e-07
1.79774e-05
-3.87355e-07
1.52467e-05
-1.45852e-07
1.25891e-05
4.9471e-08
4.5426e-05
7.21353e-08
5.05541e-05
2.65552e-08
5.62658e-05
-7.9038e-08
6.26314e-05
-2.20948e-07
6.97295e-05
-3.90187e-07
7.6424e-05
-5.79115e-07
7.65187e-05
-7.84861e-07
7.66408e-05
-1.00145e-06
7.67988e-05
-1.22072e-06
7.69935e-05
-1.43157e-06
7.7237e-05
-1.61846e-06
7.75319e-05
-1.76311e-06
8.21164e-05
-1.82596e-06
7.19014e-05
-1.85123e-06
6.30005e-05
-1.83797e-06
5.52267e-05
-1.78645e-06
4.83947e-05
-1.69912e-06
4.2422e-05
-1.57897e-06
3.71801e-05
-1.42997e-06
3.25348e-05
-1.25655e-06
2.83673e-05
-1.06326e-06
2.46484e-05
-8.53832e-07
2.12625e-05
-6.29178e-07
1.82192e-05
-3.83772e-07
1.54847e-05
-9.49891e-08
1.26841e-05
4.4454e-08
4.0831e-05
5.99611e-08
4.54382e-05
9.45091e-09
5.05712e-05
-1.02578e-07
5.62894e-05
-2.53092e-07
6.26636e-05
-4.34121e-07
6.97735e-05
-6.39528e-07
7.64844e-05
-8.62331e-07
7.65962e-05
-1.10153e-06
7.67409e-05
-1.35005e-06
7.69282e-05
-1.59775e-06
7.71597e-05
-1.82962e-06
7.74482e-05
-2.02755e-06
7.77963e-05
-2.16965e-06
8.24601e-05
-2.21263e-06
7.22628e-05
-2.20971e-06
6.33722e-05
-2.1616e-06
5.56019e-05
-2.07123e-06
4.87668e-05
-1.94274e-06
4.27857e-05
-1.78107e-06
3.75312e-05
-1.59151e-06
3.28697e-05
-1.3797e-06
2.86837e-05
-1.15099e-06
2.49456e-05
-9.06641e-07
2.15399e-05
-6.45827e-07
1.84813e-05
-3.59357e-07
1.5749e-05
-7.22226e-08
1.27563e-05
4.02463e-08
3.67002e-05
4.99571e-08
4.0841e-05
-4.73574e-09
4.54524e-05
-1.21923e-07
5.05906e-05
-2.79075e-07
5.63154e-05
-4.6905e-07
6.26985e-05
-6.87604e-07
6.98215e-05
-9.29687e-07
7.65518e-05
-1.18941e-06
7.66841e-05
-1.46515e-06
7.6856e-05
-1.74791e-06
7.70783e-05
-2.02343e-06
7.73535e-05
-2.27393e-06
7.76946e-05
-2.47717e-06
7.81039e-05
-2.61011e-06
8.28576e-05
-2.62457e-06
7.26777e-05
-2.58453e-06
6.37951e-05
-2.49399e-06
5.60246e-05
-2.35799e-06
4.91821e-05
-2.18315e-06
4.31878e-05
-1.97597e-06
3.79157e-05
-1.7433e-06
3.32333e-05
-1.49146e-06
2.90242e-05
-1.22426e-06
2.52632e-05
-9.41889e-07
2.1836e-05
-6.48706e-07
1.87706e-05
-3.37566e-07
1.60144e-05
-6.98073e-08
1.28261e-05
3.67023e-08
3.29895e-05
4.17087e-08
3.67085e-05
-1.65836e-08
4.08529e-05
-1.37884e-07
4.54683e-05
-3.00107e-07
5.06116e-05
-4.96752e-07
5.63431e-05
-7.24961e-07
6.27359e-05
-9.82121e-07
6.9874e-05
-1.26453e-06
7.66269e-05
-1.56506e-06
7.6784e-05
-1.88056e-06
7.69886e-05
-2.1978e-06
7.72527e-05
-2.49949e-06
7.75791e-05
-2.7633e-06
7.79807e-05
-2.96557e-06
7.84593e-05
-3.08067e-06
8.33137e-05
-3.05636e-06
7.31495e-05
-2.97041e-06
6.42715e-05
-2.82952e-06
5.64962e-05
-2.64173e-06
4.96407e-05
-2.41566e-06
4.36275e-05
-2.15984e-06
3.83322e-05
-1.88186e-06
3.36237e-05
-1.5874e-06
2.93873e-05
-1.27952e-06
2.56008e-05
-9.64474e-07
2.21518e-05
-6.46862e-07
1.90799e-05
-3.28997e-07
1.62736e-05
-7.62952e-08
1.29024e-05
3.37063e-08
2.9651e-05
3.48691e-08
3.29964e-05
-2.65512e-08
3.67184e-05
-1.51105e-07
4.08661e-05
-3.17161e-07
4.54854e-05
-5.18674e-07
5.06335e-05
-7.53776e-07
5.63719e-05
-1.02174e-06
6.27755e-05
-1.32166e-06
6.99311e-05
-1.64906e-06
7.67109e-05
-1.99454e-06
7.6898e-05
-2.35093e-06
7.71418e-05
-2.70178e-06
7.7455e-05
-3.02489e-06
7.78407e-05
-3.29615e-06
7.83113e-05
-3.48856e-06
7.88672e-05
-3.57525e-06
8.38326e-05
-3.50211e-06
7.36812e-05
-3.36101e-06
6.4803e-05
-3.16245e-06
5.70169e-05
-2.91698e-06
5.0142e-05
-2.63587e-06
4.41035e-05
-2.32867e-06
3.87791e-05
-2.0031e-06
3.40394e-05
-1.66453e-06
2.97723e-05
-1.32068e-06
2.5957e-05
-9.80962e-07
2.24859e-05
-6.48491e-07
1.93994e-05
-3.30964e-07
1.65282e-05
-8.81044e-08
1.29905e-05
3.11627e-08
2.66505e-05
2.91594e-08
2.96567e-05
-3.4986e-08
3.30048e-05
-1.62098e-07
3.67294e-05
-3.31013e-07
4.08799e-05
-5.35979e-07
4.55027e-05
-7.75823e-07
5.06556e-05
-1.05123e-06
5.64014e-05
-1.36348e-06
6.28173e-05
-1.71143e-06
6.99935e-05
-2.08892e-06
7.68053e-05
-2.48138e-06
7.70284e-05
-2.87865e-06
7.73186e-05
-3.25906e-06
7.76892e-05
-3.59822e-06
7.81427e-05
-3.86808e-06
7.86908e-05
-4.0397e-06
7.93316e-05
-4.08744e-06
8.44179e-05
-3.95472e-06
7.42749e-05
-3.74982e-06
6.53904e-05
-3.48648e-06
5.75864e-05
-3.17871e-06
5.06848e-05
-2.83924e-06
4.46141e-05
-2.47849e-06
3.92544e-05
-2.10439e-06
3.44793e-05
-1.72561e-06
3.01772e-05
-1.35354e-06
2.63296e-05
-9.96858e-07
2.28342e-05
-6.54513e-07
1.9723e-05
-3.38307e-07
1.67784e-05
-1.24226e-07
1.31148e-05
2.89917e-08
2.39562e-05
2.43605e-08
2.66553e-05
-4.21553e-08
2.96639e-05
-1.71274e-07
3.3014e-05
-3.42284e-07
3.67407e-05
-5.49609e-07
4.08936e-05
-7.92535e-07
4.55194e-05
-1.07278e-06
5.06771e-05
-1.3933e-06
5.64312e-05
-1.75556e-06
6.28614e-05
-2.15738e-06
7.00619e-05
-2.58797e-06
7.69119e-05
-3.02834e-06
7.71781e-05
-3.46328e-06
7.75228e-05
-3.86846e-06
7.79594e-05
-4.21507e-06
7.84897e-05
-4.47237e-06
7.91235e-05
-4.61217e-06
7.98564e-05
-4.60933e-06
8.50725e-05
-4.40678e-06
7.49319e-05
-4.12952e-06
6.60334e-05
-3.79582e-06
5.82035e-05
-3.42174e-06
5.12673e-05
-3.0217e-06
4.51573e-05
-2.60682e-06
3.97569e-05
-2.18742e-06
3.49411e-05
-1.77541e-06
3.05991e-05
-1.38246e-06
2.67152e-05
-1.01212e-06
2.31918e-05
-6.6206e-07
2.00467e-05
-4.29703e-07
1.70839e-05
-1.35789e-07
1.32506e-05
2.7129e-08
2.15339e-05
2.03e-08
2.39602e-05
-4.82722e-08
2.66615e-05
-1.78959e-07
2.96716e-05
-3.51473e-07
3.30232e-05
-5.60316e-07
3.67514e-05
-8.05061e-07
4.09061e-05
-1.08816e-06
4.55348e-05
-1.41382e-06
5.06977e-05
-1.78549e-06
5.64611e-05
-2.20418e-06
6.29082e-05
-2.66371e-06
7.01377e-05
-3.14939e-06
7.70329e-05
-3.63535e-06
7.73502e-05
-4.10388e-06
7.77583e-05
-4.5257e-06
7.827e-05
-4.86858e-06
7.8886e-05
-5.10194e-06
7.96133e-05
-5.19742e-06
8.04445e-05
-5.13256e-06
8.57983e-05
-4.84993e-06
7.56523e-05
-4.49354e-06
6.67312e-05
-4.08462e-06
5.88664e-05
-3.64173e-06
5.18874e-05
-3.18064e-06
4.57311e-05
-2.71433e-06
4.02838e-05
-2.25575e-06
3.54214e-05
-1.81736e-06
3.1034e-05
-1.40718e-06
2.71103e-05
-1.02456e-06
2.35543e-05
-8.27778e-07
2.04448e-05
-4.36644e-07
1.73848e-05
-1.46666e-07
1.33972e-05
2.55245e-08
1.93536e-05
1.68427e-08
2.15373e-05
-5.35071e-08
2.39655e-05
-1.85418e-07
2.66679e-05
-3.58979e-07
2.96791e-05
-5.68705e-07
3.30316e-05
-8.1432e-07
3.67607e-05
-1.09878e-06
4.09167e-05
-1.42719e-06
4.55482e-05
-1.80451e-06
5.07167e-05
-2.23419e-06
5.64911e-05
-2.71379e-06
6.29583e-05
-3.23394e-06
7.02222e-05
-3.7735e-06
7.71711e-05
-4.30185e-06
7.75481e-05
-4.79643e-06
7.8029e-05
-5.22391e-06
7.86253e-05
-5.55151e-06
7.93355e-05
-5.74772e-06
8.01636e-05
-5.78631e-06
8.10982e-05
-5.64771e-06
8.65961e-05
-5.27671e-06
7.64355e-05
-4.8352e-06
6.74817e-05
-4.34801e-06
5.95727e-05
-3.83573e-06
5.25424e-05
-3.31581e-06
4.63326e-05
-2.80338e-06
4.08314e-05
-2.31197e-06
3.5916e-05
-1.85135e-06
3.14782e-05
-1.42565e-06
2.75114e-05
-1.27775e-06
2.40043e-05
-8.28473e-07
2.08366e-05
-4.41124e-07
1.76792e-05
-1.54453e-07
1.35517e-05
1.73974e-05
2.41377e-08
1.38828e-08
1.93566e-05
-5.79988e-08
2.15418e-05
-1.90867e-07
2.39709e-05
-3.65123e-07
2.66741e-05
-5.75258e-07
2.96856e-05
-8.21041e-07
3.30383e-05
-1.10575e-06
3.67676e-05
-1.43513e-06
4.09247e-05
-1.81523e-06
4.55589e-05
-2.25139e-06
5.07339e-05
-2.74406e-06
5.65214e-05
-3.28823e-06
6.30126e-05
-3.86879e-06
7.03175e-05
-4.46018e-06
7.73294e-05
-5.02414e-06
7.77759e-05
-5.53422e-06
7.83393e-05
-5.95583e-06
7.90297e-05
-6.2544e-06
7.98422e-05
-6.39995e-06
8.07772e-05
-6.36851e-06
8.1819e-05
-6.14634e-06
8.74657e-05
-5.67948e-06
7.72797e-05
-5.14892e-06
6.82827e-05
-4.58248e-06
6.03194e-05
-4.00253e-06
5.32292e-05
-3.42841e-06
4.69576e-05
-2.87579e-06
4.13952e-05
-2.35605e-06
3.64207e-05
-1.87572e-06
3.19283e-05
-1.77723e-06
2.80108e-05
-1.2741e-06
2.44499e-05
-8.23673e-07
2.12192e-05
-4.41704e-07
1.79665e-05
-1.58965e-07
1.37106e-05
1.73999e-05
1.13329e-08
2.78122e-05
2.19686e-08
-6.18637e-08
1.93604e-05
-1.95481e-07
2.15464e-05
-3.70167e-07
2.3976e-05
-5.80358e-07
2.66792e-05
-8.25803e-07
2.96904e-05
-1.10997e-06
3.30425e-05
-1.439e-06
3.67715e-05
-1.81975e-06
4.09292e-05
-2.25894e-06
4.55664e-05
-2.75929e-06
5.07491e-05
-3.31923e-06
5.65524e-05
-3.92859e-06
6.30724e-05
-4.56856e-06
7.04259e-05
-5.20613e-06
7.75114e-05
-5.7958e-06
7.80374e-05
-6.3101e-06
7.86936e-05
-6.71177e-06
7.9487e-05
-6.96705e-06
8.04093e-05
-7.04753e-06
8.14562e-05
-6.93475e-06
8.26074e-05
-6.61969e-06
8.84059e-05
-6.05173e-06
7.81825e-05
-5.43041e-06
6.91306e-05
-4.78585e-06
6.11027e-05
-4.14225e-06
5.3943e-05
-3.51953e-06
4.76014e-05
-2.93152e-06
4.19707e-05
-2.38679e-06
3.69318e-05
-2.33727e-06
3.24883e-05
-1.77057e-06
2.85073e-05
-1.2607e-06
2.4887e-05
-8.13027e-07
2.15905e-05
-4.37877e-07
1.82454e-05
-1.60558e-07
1.38712e-05
1.74033e-05
-6.51989e-08
2.78157e-05
7.791e-09
2.85521e-05
1.98996e-08
-1.994e-07
1.93643e-05
-3.74317e-07
2.15506e-05
-5.84313e-07
2.39799e-05
-8.29059e-07
2.66824e-05
-1.11211e-06
2.96925e-05
-1.43986e-06
3.30434e-05
-1.81971e-06
3.67715e-05
-2.25938e-06
4.09296e-05
-2.7633e-06
4.55704e-05
-3.3326e-06
5.07625e-05
-3.96109e-06
5.65849e-05
-4.63557e-06
6.31394e-05
-5.33042e-06
7.05502e-05
-6.00535e-06
7.77209e-05
-6.60994e-06
7.83373e-05
-7.11432e-06
7.90961e-05
-7.48125e-06
8.00012e-05
-7.67773e-06
8.10395e-05
-7.6804e-06
8.22019e-05
-7.4752e-06
8.34629e-05
-7.06013e-06
8.94143e-05
-6.38823e-06
7.91404e-05
-5.67649e-06
7.00212e-05
-4.95724e-06
6.19177e-05
-4.25533e-06
5.46788e-05
-3.58907e-06
4.82589e-05
-2.96979e-06
4.25537e-05
-2.97302e-06
3.75676e-05
-2.32737e-06
3.30451e-05
-1.74935e-06
2.8996e-05
-1.23838e-06
2.53123e-05
-7.96415e-07
2.19491e-05
-4.30007e-07
1.85148e-05
-1.59681e-07
1.40309e-05
1.74066e-05
-2.02742e-07
2.78191e-05
-6.86245e-08
2.85554e-05
4.44647e-09
2.9312e-05
1.7935e-08
-3.7774e-07
1.93678e-05
-5.87364e-07
2.15536e-05
-8.31169e-07
2.3982e-05
-1.11271e-06
2.6683e-05
-1.43854e-06
2.96912e-05
-1.81637e-06
3.304e-05
-2.25467e-06
3.67667e-05
-2.7591e-06
4.09254e-05
-3.33288e-06
4.55707e-05
-3.97297e-06
5.07743e-05
-4.67074e-06
5.66201e-05
-5.40681e-06
6.32158e-05
-6.14882e-06
7.06937e-05
-6.85138e-06
7.79624e-05
-7.45695e-06
7.86799e-05
-7.93631e-06
7.95512e-05
-8.25208e-06
8.05756e-05
-8.3757e-06
8.17348e-05
-8.28775e-06
8.30144e-05
-7.9812e-06
8.4384e-05
-7.46129e-06
9.04874e-05
-6.68468e-06
8.01485e-05
-5.88529e-06
7.09493e-05
-5.0964e-06
6.27588e-05
-4.34146e-06
5.54312e-05
-3.63653e-06
4.89257e-05
-3.69866e-06
4.32793e-05
-2.95939e-06
3.81996e-05
-2.29794e-06
3.35937e-05
-1.7154e-06
2.9473e-05
-1.20782e-06
2.57237e-05
-7.74495e-07
2.22935e-05
-4.18697e-07
1.87739e-05
-1.56819e-07
1.41877e-05
1.74094e-05
-3.80574e-07
2.78205e-05
-2.04106e-07
2.85586e-05
-7.17859e-08
2.93151e-05
1.304e-09
3.00899e-05
1.60763e-08
-5.89703e-07
1.93701e-05
-8.32411e-07
2.15549e-05
-1.11221e-06
2.39815e-05
-1.43568e-06
2.66802e-05
-1.81075e-06
2.96856e-05
-2.24635e-06
3.30317e-05
-2.74907e-06
3.67567e-05
-3.32368e-06
4.09162e-05
-3.96959e-06
4.55674e-05
-4.68186e-06
5.07855e-05
-5.44625e-06
5.66595e-05
-6.23722e-06
6.33042e-05
-7.0178e-06
7.08601e-05
-7.73487e-06
7.82403e-05
-8.32631e-06
7.90699e-05
-8.76357e-06
8.00627e-05
-9.01298e-06
8.12128e-05
-9.04928e-06
8.24963e-05
-8.85991e-06
8.38931e-05
-8.44527e-06
8.5368e-05
-7.81766e-06
9.16204e-05
-6.93818e-06
8.12014e-05
-6.05587e-06
7.19088e-05
-5.20282e-06
6.36201e-05
-4.40042e-06
5.61951e-05
-4.52944e-06
4.97564e-05
-3.68118e-06
4.40011e-05
-2.92091e-06
3.88225e-05
-2.25165e-06
3.41299e-05
-1.67028e-06
2.99354e-05
-1.17022e-06
2.61194e-05
-7.48213e-07
2.26231e-05
-4.04648e-07
1.90217e-05
-1.52442e-07
1.43401e-05
1.74112e-05
-5.91485e-07
2.78184e-05
-3.78477e-07
2.85596e-05
-2.05089e-07
2.9318e-05
-7.46594e-08
3.00928e-05
-1.63266e-09
3.08898e-05
1.43239e-08
-8.33005e-07
1.93707e-05
-1.11092e-06
2.15536e-05
-1.43177e-06
2.39776e-05
-1.80359e-06
2.6673e-05
-2.23559e-06
2.96748e-05
-2.73502e-06
3.30177e-05
-3.30779e-06
3.67408e-05
-3.95519e-06
4.09018e-05
-4.67519e-06
4.55607e-05
-5.45774e-06
5.0797e-05
-6.28302e-06
5.67053e-05
-7.1214e-06
6.34078e-05
-7.92846e-06
7.10537e-05
-8.64561e-06
7.85596e-05
-9.20544e-06
7.95118e-05
-9.58449e-06
8.06342e-05
-9.75155e-06
8.19151e-05
-9.68789e-06
8.33243e-05
-9.38838e-06
8.48362e-05
-8.86081e-06
8.64111e-05
-8.12522e-06
9.28074e-05
-7.14705e-06
8.22926e-05
-6.18738e-06
7.28933e-05
-5.27637e-06
6.44961e-05
-5.48266e-06
5.71483e-05
-4.50845e-06
5.05837e-05
-3.63288e-06
4.47131e-05
-2.86104e-06
3.94319e-05
-2.19091e-06
3.46506e-05
-1.61592e-06
3.03811e-05
-1.12702e-06
2.64982e-05
-7.18592e-07
2.2937e-05
-3.88557e-07
1.92578e-05
-1.46951e-07
1.44871e-05
1.74113e-05
-8.33122e-07
2.78113e-05
-5.84396e-07
2.85569e-05
-3.75806e-07
2.93186e-05
-2.05678e-07
3.00954e-05
-7.72494e-08
3.08925e-05
-4.3655e-09
3.17096e-05
1.26777e-08
-1.10908e-06
1.93689e-05
-1.42719e-06
2.1549e-05
-1.79547e-06
2.39695e-05
-2.22331e-06
2.66607e-05
-2.71837e-06
2.96582e-05
-3.28741e-06
3.29973e-05
-3.93311e-06
3.67187e-05
-4.65572e-06
4.08823e-05
-5.44853e-06
4.55515e-05
-6.29647e-06
5.08104e-05
-7.17617e-06
5.67601e-05
-8.05094e-06
6.35303e-05
-8.87098e-06
7.1279e-05
-9.57113e-06
7.89253e-05
-1.00826e-05
8.00099e-05
-1.03861e-05
8.12687e-05
-1.04564e-05
8.26836e-05
-1.02821e-05
8.4218e-05
-9.8655e-06
8.58409e-05
-9.22278e-06
8.75087e-05
-8.38146e-06
9.40418e-05
-7.30996e-06
8.34152e-05
-6.27961e-06
7.38965e-05
-6.57771e-06
6.55911e-05
-5.45912e-06
5.8099e-05
-4.44986e-06
5.14007e-05
-3.55811e-06
4.54102e-05
-2.78307e-06
4.00241e-05
-2.11838e-06
3.5153e-05
-1.55434e-06
3.08085e-05
-1.07968e-06
2.68593e-05
-6.86598e-07
2.3235e-05
-3.71043e-07
1.94819e-05
-1.40694e-07
1.46278e-05
1.74092e-05
-1.10689e-06
2.77975e-05
-8.19312e-07
2.85491e-05
-5.76603e-07
2.93154e-05
-3.72632e-07
3.00956e-05
-2.05855e-07
3.08948e-05
-7.95489e-08
3.17122e-05
-6.89438e-09
3.25535e-05
1.11367e-08
-1.42221e-06
1.93639e-05
-1.78683e-06
2.15404e-05
-2.21018e-06
2.39564e-05
-2.70019e-06
2.66425e-05
-3.26419e-06
2.9635e-05
-3.90591e-06
3.29701e-05
-4.62733e-06
3.66904e-05
-5.42441e-06
4.08582e-05
-6.28591e-06
4.55409e-05
-7.19371e-06
5.08279e-05
-8.11785e-06
5.6827e-05
-9.01652e-06
6.36758e-05
-9.83317e-06
7.15411e-05
-1.04997e-05
7.93424e-05
-1.09443e-05
8.05681e-05
-1.11562e-05
8.19686e-05
-1.11171e-05
8.35187e-05
-1.08231e-05
8.51756e-05
-1.02853e-05
8.69034e-05
-9.52797e-06
8.86552e-05
-8.58448e-06
9.53163e-05
-7.42653e-06
8.45621e-05
-7.83471e-06
7.51535e-05
-6.55328e-06
6.66853e-05
-5.39005e-06
5.90392e-05
-4.3589e-06
5.22015e-05
-3.46104e-06
4.60881e-05
-2.69044e-06
4.05962e-05
-2.03675e-06
3.56355e-05
-1.48753e-06
3.12163e-05
-1.0295e-06
2.72022e-05
-6.53085e-07
2.35171e-05
-3.52665e-07
1.96939e-05
-1.3394e-07
1.47617e-05
1.7404e-05
-1.41706e-06
2.7775e-05
-1.08439e-06
2.85343e-05
-8.04536e-07
2.93068e-05
-5.67974e-07
3.00918e-05
-3.68848e-07
3.08945e-05
-2.05616e-07
3.17142e-05
-8.15537e-08
3.25559e-05
-9.21773e-09
3.34194e-05
9.69993e-09
-1.77799e-06
1.93551e-05
-2.19671e-06
2.15269e-05
-2.68128e-06
2.39374e-05
-3.2394e-06
2.66178e-05
-3.87557e-06
2.96046e-05
-4.59307e-06
3.29358e-05
-5.38992e-06
3.66559e-05
-6.25798e-06
4.08303e-05
-7.18347e-06
4.55307e-05
-8.14215e-06
5.08522e-05
-9.09929e-06
5.69098e-05
-1.00064e-05
6.3849e-05
-1.08035e-05
7.18449e-05
-1.14177e-05
7.98158e-05
-1.17781e-05
8.11899e-05
-1.18839e-05
8.27353e-05
-1.17241e-05
8.44197e-05
-1.1304e-05
8.61943e-05
-1.06436e-05
8.8019e-05
-9.7738e-06
8.98445e-05
-8.73365e-06
9.66235e-05
-9.27609e-06
8.60035e-05
-7.81231e-06
7.64126e-05
-6.47408e-06
6.77693e-05
-5.28173e-06
5.9962e-05
-4.24071e-06
5.29812e-05
-3.34596e-06
4.67436e-05
-2.58651e-06
4.11459e-05
-1.94858e-06
3.60965e-05
-1.41725e-06
3.16041e-05
-9.77652e-07
2.75268e-05
-6.18829e-07
2.37832e-05
-3.33836e-07
1.98938e-05
-1.26918e-07
1.48886e-05
1.73952e-05
-1.76918e-06
2.77414e-05
-1.38346e-06
2.85107e-05
-1.06076e-06
2.92911e-05
-7.88903e-07
3.00825e-05
-5.58708e-07
3.08902e-05
-3.64519e-07
3.17135e-05
-2.04938e-07
3.25576e-05
-8.32455e-08
3.34216e-05
-1.13404e-08
3.43053e-05
8.3673e-09
-2.18326e-06
1.93416e-05
-2.66221e-06
2.15078e-05
-3.21398e-06
2.3912e-05
-3.84358e-06
2.65858e-05
-4.55524e-06
2.95668e-05
-5.34859e-06
3.28945e-05
-6.21795e-06
3.66158e-05
-7.15304e-06
4.07999e-05
-8.13446e-06
4.5523e-05
-9.13359e-06
5.08865e-05
-1.01092e-05
5.70126e-05
-1.10094e-05
6.40549e-05
-1.17685e-05
7.21958e-05
-1.23123e-05
8.03499e-05
-1.25721e-05
8.18781e-05
-1.25584e-05
8.35695e-05
-1.22694e-05
8.53851e-05
-1.17198e-05
8.72705e-05
-1.09371e-05
8.91824e-05
-9.95911e-06
9.107e-05
-1.0926e-05
9.82734e-05
-9.26108e-06
8.74523e-05
-7.7244e-06
7.76629e-05
-6.34751e-06
6.88351e-05
-5.14031e-06
6.08616e-05
-4.10055e-06
5.37357e-05
-3.21701e-06
4.73741e-05
-2.4745e-06
4.16718e-05
-1.85611e-06
3.65354e-05
-1.34503e-06
3.19714e-05
-9.2517e-07
2.78331e-05
-5.84382e-07
2.40338e-05
-3.14941e-07
2.00818e-05
-1.19803e-07
1.50084e-05
1.7382e-05
-2.1701e-06
2.76944e-05
-1.72215e-06
2.84757e-05
-1.34849e-06
2.92663e-05
-1.0359e-06
3.00659e-05
-7.72244e-07
3.08802e-05
-5.48643e-07
3.17086e-05
-3.596e-07
3.25565e-05
-2.03858e-07
3.3423e-05
-8.46485e-08
3.43073e-05
-1.32641e-08
3.52192e-05
7.13839e-09
-2.64344e-06
1.93228e-05
-3.18862e-06
2.14825e-05
-3.81103e-06
2.38795e-05
-4.51559e-06
2.65461e-05
-5.30314e-06
2.95213e-05
-6.16989e-06
3.28464e-05
-7.10845e-06
3.65712e-05
-8.10336e-06
4.07688e-05
-9.13123e-06
4.55206e-05
-1.01573e-05
5.09346e-05
-1.1137e-05
5.71402e-05
-1.20122e-05
6.42985e-05
-1.27151e-05
7.25987e-05
-1.31711e-05
8.09489e-05
-1.33149e-05
8.26347e-05
-1.31708e-05
8.4471e-05
-1.2747e-05
8.64123e-05
-1.20663e-05
8.83997e-05
-1.11642e-05
9.03874e-05
-1.24808e-05
9.26248e-05
-1.09273e-05
9.99396e-05
-9.16819e-06
8.8896e-05
-7.57974e-06
7.88951e-05
-6.18095e-06
6.98758e-05
-4.97219e-06
6.17332e-05
-3.94345e-06
5.44622e-05
-3.07813e-06
4.79778e-05
-2.35718e-06
4.21729e-05
-1.76131e-06
3.69516e-05
-1.27223e-06
3.23185e-05
-8.72792e-07
2.81216e-05
-5.5028e-07
2.42691e-05
-2.96271e-07
2.02582e-05
-1.12721e-07
1.51212e-05
1.73638e-05
-2.62524e-06
2.76307e-05
-2.10643e-06
2.8427e-05
-1.67346e-06
2.923e-05
-1.31225e-06
3.00399e-05
-1.00991e-06
3.08626e-05
-7.54678e-07
3.16978e-05
-5.37856e-07
3.2551e-05
-3.54109e-07
3.34214e-05
-2.02332e-07
3.43083e-05
-8.57375e-08
3.5221e-05
-1.49959e-08
3.61551e-05
6.01256e-09
-3.16382e-06
1.9298e-05
-3.77874e-06
2.14502e-05
-4.47543e-06
2.38393e-05
-5.2556e-06
2.64986e-05
-6.11697e-06
2.94684e-05
-7.05439e-06
3.27924e-05
-8.05567e-06
3.65236e-05
-9.10181e-06
4.07393e-05
-1.01636e-05
4.5527e-05
-1.12032e-05
5.10008e-05
-1.21695e-05
5.72975e-05
-1.30018e-05
6.45852e-05
-1.36307e-05
7.30584e-05
-1.39821e-05
8.16161e-05
-1.39968e-05
8.34606e-05
-1.37144e-05
8.54384e-05
-1.3152e-05
8.7498e-05
-1.23412e-05
8.95767e-05
-1.40189e-05
9.19255e-05
-1.25063e-05
9.42039e-05
-1.0836e-05
0.000101607
-9.00733e-06
9.03236e-05
-7.38706e-06
8.01012e-05
-5.98209e-06
7.08857e-05
-4.78346e-06
6.25733e-05
-3.77416e-06
5.51582e-05
-2.93271e-06
4.85533e-05
-2.237e-06
4.26486e-05
-1.66591e-06
3.73453e-05
-1.19981e-06
3.26455e-05
-8.21225e-07
2.83925e-05
-5.1692e-07
2.44898e-05
-2.7802e-07
2.04235e-05
-1.05774e-07
1.52269e-05
1.73399e-05
-3.13993e-06
2.75471e-05
-2.54169e-06
2.83612e-05
-2.04061e-06
2.91794e-05
-1.62281e-06
3.0002e-05
-1.2744e-06
3.08354e-05
-9.82725e-07
3.16793e-05
-7.36226e-07
3.25395e-05
-5.26327e-07
3.34154e-05
-3.48041e-07
3.43064e-05
-2.00391e-07
3.52217e-05
-8.65245e-08
3.61567e-05
-1.65438e-08
3.6589e-05
5.00111e-09
-3.7473e-06
1.92666e-05
-4.43571e-06
2.14104e-05
-5.20751e-06
2.37912e-05
-6.06157e-06
2.64432e-05
-6.9945e-06
2.94085e-05
-7.99678e-06
3.27335e-05
-9.05302e-06
3.64748e-05
-1.01388e-05
4.07145e-05
-1.1222e-05
4.55459e-05
-1.22585e-05
5.10898e-05
-1.31941e-05
5.74898e-05
-1.39656e-05
6.49201e-05
-1.45029e-05
7.35792e-05
-1.47348e-05
8.23542e-05
-1.46101e-05
8.43563e-05
-1.41833e-05
8.64697e-05
-1.34812e-05
8.8638e-05
-1.55319e-05
9.10896e-05
-1.40787e-05
9.34979e-05
-1.24254e-05
9.57933e-05
-1.06634e-05
0.000103263
-8.78854e-06
9.17251e-05
-7.15531e-06
8.12745e-05
-5.75823e-06
7.18604e-05
-4.57981e-06
6.33789e-05
-3.59681e-06
5.58223e-05
-2.78375e-06
4.91001e-05
-2.11612e-06
4.30988e-05
-1.5711e-06
3.77166e-05
-1.12868e-06
3.2953e-05
-7.70996e-07
2.86466e-05
-4.84552e-07
2.46963e-05
-2.60355e-07
2.05781e-05
-9.90417e-08
1.5326e-05
1.73097e-05
-3.7171e-06
2.74402e-05
-3.03301e-06
2.82756e-05
-2.45612e-06
2.91118e-05
-1.97301e-06
2.99499e-05
-1.57065e-06
3.07963e-05
-1.23535e-06
3.1651e-05
-9.54394e-07
3.252e-05
-7.16782e-07
3.34031e-05
-5.1406e-07
3.42998e-05
-3.41408e-07
3.52194e-05
-1.98035e-07
3.61572e-05
-8.70045e-08
3.65904e-05
-1.78937e-08
3.55529e-05
4.13001e-09
-4.3971e-06
1.9228e-05
-5.15998e-06
2.13629e-05
-6.00546e-06
2.37351e-05
-6.93157e-06
2.63802e-05
-7.93086e-06
2.93426e-05
-8.99095e-06
3.26714e-05
-1.00915e-05
3.64274e-05
-1.12053e-05
4.06978e-05
-1.22943e-05
4.55817e-05
-1.33109e-05
5.12066e-05
-1.41981e-05
5.77222e-05
-1.48909e-05
6.5308e-05
-1.53206e-05
7.4165e-05
-1.54208e-05
8.31649e-05
-1.51481e-05
8.53211e-05
-1.45736e-05
8.75622e-05
-1.70095e-05
9.01156e-05
-1.56375e-05
9.26484e-05
-1.40185e-05
9.5091e-05
-1.22504e-05
9.73803e-05
-1.04211e-05
0.000104896
-8.52232e-06
9.30921e-05
-6.89298e-06
8.24092e-05
-5.51619e-06
7.27968e-05
-4.36626e-06
6.41484e-05
-3.41505e-06
5.64536e-05
-2.63389e-06
4.96178e-05
-1.99602e-06
4.35237e-05
-1.47806e-06
3.8066e-05
-1.05951e-06
3.32415e-05
-7.22424e-07
2.88845e-05
-4.53401e-07
2.48894e-05
-2.43405e-07
2.07225e-05
-9.2576e-08
1.54186e-05
1.72727e-05
-4.36006e-06
2.73072e-05
-3.58409e-06
2.81665e-05
-2.92386e-06
2.90236e-05
-2.36799e-06
2.98803e-05
-1.90349e-06
3.07425e-05
-1.51681e-06
3.16106e-05
-1.1949e-06
3.24907e-05
-9.25096e-07
3.33829e-05
-6.96559e-07
3.42868e-05
-5.01125e-07
3.52122e-05
-3.34223e-07
3.61544e-05
-1.95265e-07
3.65906e-05
-8.7205e-08
3.5554e-05
-1.90187e-08