# Region type : patch outlet
# Faces  :    121
# Area   :    4.800000e-04
# Time        	average(p)
0             	1.013250e+05
