/*--------------------------------*- C++ -*----------------------------------*\
  =========                 |
  \\      /  F ield         | OpenFOAM: The Open Source CFD Toolbox
   \\    /   O peration     | Website:  https://openfoam.org
    \\  /    A nd           | Version:  8
     \\/     M anipulation  |
\*---------------------------------------------------------------------------*/
FoamFile
{
    version     2.0;
    format      ascii;
    class       volScalarField;
    location    "0.12";
    object      epsilon;
}
// * * * * * * * * * * * * * * * * * * * * * * * * * * * * * * * * * * * * * //

dimensions      [0 2 -3 0 0 0 0];

internalField   nonuniform List<scalar> 
15677
(
3.71064e+06
1.0501e+06
729515
623799
577807
559305
556108
555716
535622
483645
422272
363939
307418
254890
211145
171560
137323
110092
90871.7
74125.8
61147.5
51407.3
45646
41806.4
39213.3
37454.5
36104
34897.9
33738.8
32631.5
31618.3
30737
30005.1
29418.5
28959.1
1.30978e+07
4.50072e+06
3.1011e+06
2.71459e+06
2.658e+06
2.74617e+06
2.70868e+06
2.22031e+06
1.51226e+06
956904
663046
539154
495014
456073
386751
304779
228465
174578
135009
106909
87218.7
74478.2
65765.4
59700.9
55367.2
52201.4
49820.7
48003.5
46635.6
45633.6
44929.8
44462.9
44186.5
44051.5
44014.5
7.73885e+06
4.1471e+06
3.94435e+06
4.23715e+06
4.41406e+06
4.25013e+06
3.59731e+06
2.56455e+06
1.48304e+06
848335
534489
373745
278885
216045
190795
181005
176875
167089
152396
137839
124707
113213
103481
95468.6
88830.9
83321
78963.5
75641.3
73135.7
71256.9
69854.4
68811.9
68041.9
67475.9
67060
1.50228e+06
1.14874e+06
1.15373e+06
1.19508e+06
1.26586e+06
1.26225e+06
1.19063e+06
988402
792613
668817
608277
577278
556277
473859
347793
239876
181977
154204
140702
133338
129546
128490
129246
129867
128610
124818
118198
111736
106302
101861
98267.7
95376.8
93058.8
91203.5
89718.6
3.78081e+06
1.45588e+06
1.17104e+06
1.14889e+06
1.21785e+06
1.29934e+06
1.3046e+06
1.15136e+06
900075
688387
617460
660297
710290
630886
448241
302693
198742
126019
88799.1
69463.3
62566.3
61712.6
63930.8
67145.8
70253
72768.7
74179.4
74433.6
73684.9
72504
71309.9
70255.7
69363.5
68611.2
67969.5
1.32431e+06
439660
302839
270073
270281
294230
333494
357423
364481
356229
344639
328665
288744
216061
155411
109322
77072.9
56357.2
44131.9
37728.2
35592.9
36137.4
37772.9
39479.4
40755.6
41616
42198.4
42623.4
42942.6
43168.2
43312.2
43387.4
43407.9
43386.4
43334.2
154155
92399.2
76817.2
71144.3
69033.6
68457.6
67605.7
65342.8
63538.1
62856.2
62921.5
61709.4
57492.8
46283.4
34754.5
28295.5
24248
21892
20973.9
21172.6
22498.7
24616
26853
28743.5
30129.4
30943.6
31270.5
31374.6
31409.6
31433.3
31459
31484.2
31503.4
31511.7
31506.6
26285.8
18094.1
15557.1
14431.6
13373.8
12540
12042.5
12014.4
12240.5
12913.6
14009.9
15641.2
16003.5
15933.4
16366.8
17979.4
19215.8
18385.5
16666
15808.5
15971.6
16757.2
17680.9
18537.1
19272.3
19894.2
20410.7
20831.4
21170.8
21443.7
21662.6
21838.1
21978.5
22090.9
22180.8
86297
25400.4
15099.9
11399.9
9634.52
8648.53
8028.27
7675.05
7526.85
7544.61
7771.02
8197.28
8756.46
9246.5
9454.57
9630.11
9859.25
10073.4
10396.1
10905.5
11579.7
12375.9
13206.2
13973
14610.5
15102.7
15457.1
15735.1
15965.5
16162.1
16329
16469.8
16586.9
16682.5
16758.7
44746
18084.3
12727.5
10509.5
9197.13
8256.1
7513.08
6909.14
6426.59
6066.42
5836.61
5744.47
5788.49
5957.63
6221.77
6546.99
6924.33
7343.66
7820.06
8351.15
8928.56
9511.56
10051.8
10536.3
10956.9
11314.4
11614.1
11864.5
12073.6
12249.1
12396.5
12520.9
12626.2
12715.8
12792.3
73510.4
24745.2
16090.7
12542.4
10470.7
9023.4
7915.61
7033.83
6330.3
5785.54
5390.21
5139.91
5025.97
5034.09
5167.41
5387.06
5676.66
6023.98
6420.18
6854.9
7315.79
7770.52
8175.45
8518
8803.92
9046.14
9252.01
9428.51
9579.77
9709.01
9818.87
9911.68
9989.48
10055.6
10111.5
49932.2
19052.6
12994.9
10235.1
8509.17
7264.64
6312.98
5576.42
5014.71
4602.29
4320.94
4160.8
4110.54
4168.93
4323.3
4533.06
4785.32
5069.52
5378.05
5704.36
6042.42
6368.65
6659.94
6913.23
7131.08
7317.98
7477.76
7614.34
7731.14
7831.19
7917.07
7990.98
8054.73
8109.82
8157.59
44518.9
16445.9
11098
8770.03
7348.57
6330.96
5546.04
4924.45
4435.05
4062.28
3797.16
3635.23
3572.06
3604.13
3723.15
3894.07
4103.67
4340.47
4595.78
4862.02
5131.55
5385.3
5606.5
5794.25
5953.42
6090.12
6208.45
6311.06
6399.83
6476.42
6542.29
6598.74
6646.93
6688.42
6724.03
38561.7
14967.7
10033.8
7741.66
6300.43
5287.15
4544.65
3996.18
3596.54
3315.64
3133.43
3038.07
3018.38
3073.76
3189.78
3337.9
3510.28
3700.44
3903.81
4114.48
4327.06
4527.55
4703.77
4855.86
4986.43
5098.18
5193.78
5275.66
5345.9
5406.25
5458.27
5503.29
5542.37
5576.28
5605.81
27058.5
10610.4
7232.28
5721.52
4799.24
4151.25
3665.89
3294.89
3014.2
2810.21
2674.63
2602.79
2590.75
2638.73
2737.89
2865.03
3012.65
3173.28
3341.45
3513.24
3685.15
3846.69
3988.62
4111.31
4215.31
4304.22
4380.76
4446.87
4504.04
4553.52
4596.32
4633.31
4665.25
4692.78
4716.44
25212.9
9585.22
6321.68
4863.49
3998.82
3416.92
3001.89
2700.65
2484.8
2337.09
2247.13
2207.82
2213.19
2264.37
2352.3
2459.53
2581.87
2714.55
2853.48
2994.43
3135.17
3267.55
3384.16
3485.22
3572.15
3646.88
3711.12
3766.38
3813.98
3855.07
3890.6
3921.39
3948.14
3971.41
3991.71
17164
6795.11
4610.88
3650.55
3084.47
2703.34
2429.99
2229.61
2084.53
1984.92
1925.26
1902.35
1914.39
1961.69
2037.33
2127.37
2228.77
2337.77
2451.39
2567.36
2683.6
2793.7
2890.38
2974.17
3046.41
3108.43
3161.58
3207.47
3247.22
3281.75
3311.76
3337.89
3360.66
3380.5
3397.79
16671.2
6229.8
4061.22
3130.68
2605.02
2267.14
2035.88
1873.93
1761.8
1688.58
1648.42
1637.08
1653.13
1697.07
1763.01
1839.89
1925.64
2017.19
2111.88
2208.3
2305.32
2396.85
2477.58
2547.77
2608.53
2661
2706.31
2745.46
2779.34
2808.7
2834.19
2856.35
2875.71
2892.7
2907.64
11773.4
4736.64
3214.15
2547.4
2162.3
1910.2
1735.09
1611.23
1525.11
1469.01
1438.78
1431.89
1447.4
1485.53
1541.36
1605.91
1677.59
1754
1833.19
1914.01
1994.83
2071.13
2138.72
2197.72
2249
2293.43
2331.87
2365.06
2393.84
2418.88
2440.75
2459.87
2476.64
2491.37
2504.31
11551.8
4358.96
2868.85
2236.57
1883.21
1658.83
1507.14
1402.21
1330.6
1284.97
1261.38
1257.16
1271.69
1305.22
1353.39
1408.63
1469.63
1534.1
1600.97
1668.91
1736.97
1801.34
1858.5
1908.52
1952.12
1990.02
2022.94
2051.53
2076.37
2098
2116.87
2133.42
2147.97
2160.79
2172.1
8889.13
3583.94
2437.91
1936.23
1648.34
1461.7
1333.52
1243.84
1182.16
1142.62
1121.96
1118.11
1130.35
1158.69
1199.42
1246.08
1297.56
1352.19
1408.79
1466.37
1524.12
1578.86
1627.57
1670.32
1707.69
1740.3
1768.73
1793.5
1815.1
1834.01
1850.58
1865.12
1877.87
1889.07
1898.9
8830.77
3374.96
2238.67
1755.1
1484.1
1311.67
1194.9
1114.01
1058.68
1023.24
1004.6
1000.73
1010.95
1035.21
1070.14
1110.11
1154.16
1200.83
1249.18
1298.42
1347.87
1394.82
1436.69
1473.53
1505.81
1534.06
1558.75
1580.34
1599.22
1615.76
1630.25
1642.97
1654.15
1663.98
1672.64
7544.32
2970.25
2000.14
1580.33
1341.64
1187.98
1082.93
1009.56
958.994
926.282
908.613
904.215
912.31
932.781
962.63
996.862
1034.64
1074.78
1116.43
1158.9
1201.61
1242.23
1278.54
1310.56
1338.69
1363.37
1385
1403.95
1420.56
1435.14
1447.93
1459.17
1469.06
1477.77
1485.45
7199.31
2770.38
1844.67
1449.36
1226.95
1084.84
988.174
920.837
874.428
844.281
827.722
823.044
829.409
846.637
872.204
901.75
934.466
969.311
1005.52
1042.48
1079.71
1115.19
1146.96
1175.04
1199.77
1221.51
1240.6
1257.37
1272.1
1285.05
1296.43
1306.46
1315.29
1323.08
1329.97
6470.34
2521.39
1689.07
1330.94
1128.1
997.806
908.78
846.513
803.391
775.117
759.198
754.053
758.894
773.515
795.659
821.426
850.052
880.6
912.383
944.873
977.644
1008.93
1037
1061.86
1083.8
1103.14
1120.17
1135.16
1148.36
1159.98
1170.23
1179.27
1187.25
1194.3
1200.54
6110.82
2354.32
1568.86
1233.22
1044.11
923.053
840.464
782.655
742.445
715.8
700.461
695.015
698.661
711.181
730.554
753.254
778.554
805.604
833.786
862.629
891.761
919.62
944.67
966.905
986.584
1003.97
1019.33
1032.88
1044.84
1055.4
1064.73
1072.99
1080.29
1086.77
1092.51
5637.99
2182.74
1457.52
1146.69
971.1
858.446
781.418
727.345
689.599
664.431
649.707
644.111
646.856
657.707
674.846
695.058
717.654
741.855
767.101
792.97
819.137
844.207
866.801
886.906
904.752
920.569
934.578
946.982
957.968
967.699
976.326
983.977
990.769
996.803
1002.17
5314.92
2046.7
1363.79
1072.05
907.504
801.967
729.772
679.038
643.534
619.741
605.642
600.009
602.071
611.596
626.926
645.114
665.505
687.382
710.232
733.679
757.433
780.239
800.845
819.236
835.614
850.181
863.131
874.641
884.874
893.974
902.071
909.279
915.699
921.423
926.529
4982.51
1920.8
1280.01
1006.11
851.55
752.362
684.461
636.691
603.195
580.658
567.173
561.582
563.139
571.61
585.477
602.017
620.61
640.591
661.491
682.969
704.768
725.749
744.761
761.787
777.006
790.598
802.733
813.568
823.243
831.887
839.611
846.517
852.695
858.223
863.175
4718.71
1813.94
1207.16
948.241
802.284
708.655
644.553
599.425
567.735
546.345
533.447
527.951
529.13
536.761
549.441
564.637
581.762
600.199
619.515
639.4
659.628
679.149
696.899
712.856
727.181
740.033
751.564
761.911
771.199
779.538
787.028
793.758
799.807
805.246
810.138
28428.6
27877.8
27447.6
27126.1
26890.8
26721.2
26595
26483.3
26352.3
26164.4
25881.3
25471.4
24928.7
24274
23530.1
22723.1
21876.8
21013
20151.7
19310.4
18504.2
17743.8
43992
44113.9
44445.4
44956
45568.2
46181.7
46726.6
47187.6
47568
47843.6
47939
47837.2
47496.8
46876.9
46063
45171.7
44289.7
43495.3
42860.1
42409.9
42084.4
41774
66489.5
65795.3
65177.7
64641.6
64269.1
64071.3
64029.1
64102.9
64247.4
64365.4
64348.6
64214.8
64189.8
64603.2
65623.6
66929
67722.9
67519.2
66442.5
64920.4
63332
61836.4
88100.3
86592.6
85620.7
85224.2
85405
86135.9
86670.7
85703.4
83228.9
79405.2
74472.6
69886.4
65787.5
62285.4
59374.2
57045.6
55262.6
53907.7
52849.9
51990.3
51268.3
50644.2
67439.6
66959.1
66444
65897.8
65306.6
64641.9
63847.3
62822.9
61466.1
59800.8
57906.2
55991.9
54053.8
52175
50408.7
48834.5
47516.8
46462.8
45636.5
45000.9
44523.8
44178.2
43467
43742.1
43941.9
44060.7
44093.7
44037.5
43887.8
43640.9
43294.5
42853.2
42331.3
41757.3
41174.9
40622
40115.3
39655.9
39225.9
38820
38440.5
38089.5
37767.9
37480.4
31643.3
31916.4
32150.3
32342.8
32492.3
32598.9
32663
32686.1
32672.7
32626.4
32552.9
32459.5
32356.1
32250
32151.7
32068.1
31997.7
31924.9
31849.4
31770.7
31709.2
31676.4
22416.5
22794.8
23154.3
23492.6
23807.3
24096.8
24359.7
24595.5
24804.7
24989.4
25152.9
25298.6
25428.7
25546.6
25656.7
25762.3
25865.4
25967.1
26069.3
26173.6
26281.4
26395.2
16946.2
17252.5
17556.5
17856.8
18151.7
18439.8
18720.3
18992.7
19256.9
19513.7
19764.2
20008.4
20242
20462.5
20671.7
20871.4
21063.2
21248.7
21429
21605.1
21777.8
21949.9
12966.2
13244
13521.9
13799.6
14077.1
14354.4
14630.6
14904.4
15174.2
15439.9
15701.3
15956.9
16200.9
16432.4
16654.9
16870.2
17079.9
17285.2
17487
17686.1
17882.5
18077.2
10244.4
10463.1
10686.6
10914.4
11146.1
11381.3
11619.6
11860.5
12103.8
12349.3
12597.2
12845.5
13087.6
13319.7
13543.1
13759.1
13968.7
14172.8
14372.2
14567.7
14759.9
14949.6
8269.88
8453.72
8642.07
8834.62
9031.03
9230.97
9434.35
9641.07
9851.04
10064.2
10280.5
10498.3
10712.1
10918.2
11117.5
11310.8
11499
11682.6
11862.3
12038.8
12212.4
12383.6
6813.25
6962.65
7116.68
7275.23
7438.24
7605.63
7777.31
7953.17
8133.11
8317.01
8504.81
8695.35
8883.63
9066.07
9243.1
9415.15
9582.66
9746.08
9905.82
10062.3
10215.9
10367
5682.29
5810.93
5943.44
6079.67
6219.6
6363.22
6510.52
6661.45
6815.99
6974.15
7136.06
7300.68
7463.65
7621.9
7775.78
7925.6
8071.67
8214.29
8353.76
8490.36
8624.36
8756.01
4781.43
4892.38
5006.96
5125.2
5247.09
5372.64
5501.69
5634.13
5769.99
5909.3
6052.12
6197.51
6341.58
6481.53
6617.58
6749.99
6879.01
7004.87
7127.82
7248.06
7365.76
7481.13
4049.13
4147.6
4249.35
4354.28
4462.38
4573.65
4688.15
4805.94
4927.02
5051.4
5179.07
5309.13
5438.03
5563.22
5684.89
5803.23
5918.43
6030.7
6140.18
6247.03
6351.37
6453.35
3448.45
3535.93
3626.46
3720.04
3816.74
3916.59
4019.67
4126.05
4235.78
4348.81
4465.13
4583.86
4701.68
4816.13
4927.27
5035.15
5139.97
5241.93
5341.17
5437.86
5532.14
5624.13
2952.68
3030.81
3111.82
3195.73
3282.61
3372.55
3465.66
3561.98
3661.43
3763.98
3869.68
3977.78
4085.28
4189.95
4291.79
4390.84
4487.17
4580.86
4672.03
4760.76
4847.18
4931.37
2544.24
2614.03
2686.66
2762.14
2840.47
2921.61
3005.67
3092.73
3182.86
3276.09
3372.45
3471.24
3569.74
3665.85
3759.56
3850.87
3939.81
4026.41
4110.73
4192.82
4272.76
4350.61
2207.56
2269.75
2334.55
2402.04
2472.29
2545.35
2621.27
2700.11
2781.92
2866.77
2954.7
3045.11
3135.47
3223.85
3310.23
3394.57
3476.87
3557.13
3635.36
3711.61
3785.89
3858.26
1930.31
1985.66
2043.48
2103.85
2166.85
2232.55
2301.03
2372.34
2446.56
2523.74
2603.95
2686.64
2769.52
2850.81
2930.43
3008.35
3084.54
3158.98
3231.65
3302.58
3371.76
3439.22
1700.65
1750.15
1801.93
1856.09
1912.71
1971.89
2033.7
2098.23
2165.55
2235.75
2308.9
2384.52
2460.51
2535.22
2608.59
2680.55
2751.06
2820.08
2887.6
2953.59
3018.06
3081
1510.49
1554.83
1601.3
1649.98
1700.97
1754.36
1810.24
1868.69
1929.82
1993.7
2060.42
2129.57
2199.23
2267.88
2335.46
2401.89
2467.11
2531.1
2593.8
2655.19
2715.26
2773.99
1352.45
1392.31
1434.14
1478.03
1524.07
1572.36
1622.98
1676.03
1731.62
1789.82
1850.74
1914.01
1977.9
2041
2103.24
2164.56
2224.89
2284.18
2342.39
2399.49
2455.45
2510.25
1220.83
1256.79
1294.57
1334.26
1375.95
1419.74
1465.71
1513.97
1564.61
1617.73
1673.43
1731.4
1790.04
1848.08
1905.44
1962.05
2017.86
2072.8
2126.85
2179.95
2232.08
2283.2
1110.93
1143.5
1177.76
1213.78
1251.66
1291.49
1333.36
1377.37
1423.61
1472.19
1523.21
1576.38
1630.28
1683.72
1736.62
1788.93
1840.57
1891.51
1941.7
1991.09
2039.65
2087.35
1019
1048.64
1079.83
1112.66
1147.21
1183.56
1221.81
1262.05
1304.38
1348.9
1395.72
1444.58
1494.19
1543.45
1592.29
1640.66
1688.49
1735.74
1782.36
1828.31
1873.56
1918.07
942.025
969.134
997.674
1027.72
1059.36
1092.66
1127.72
1164.63
1203.48
1244.38
1287.42
1332.4
1378.12
1423.58
1468.72
1513.49
1557.83
1601.69
1645.03
1687.8
1729.97
1771.52
877.557
902.489
928.74
956.381
985.485
1016.13
1048.39
1082.35
1118.12
1155.78
1195.44
1236.91
1279.1
1321.1
1362.86
1404.32
1445.45
1486.19
1526.51
1566.35
1605.68
1644.46
823.606
846.674
870.96
896.529
923.445
951.775
981.591
1012.97
1046.01
1080.78
1117.4
1155.71
1194.69
1233.52
1272.17
1310.59
1348.75
1386.61
1424.13
1461.27
1497.99
1534.23
16985.4
16244.7
15582.8
15023.2
14589.9
14307.7
41585.8
41768.5
42183.5
42732.5
43392.6
44211.4
60380.6
58895.3
57467.7
56011.3
54488.5
53043.4
49946
49179.5
48444
47698.1
46913.7
46072.1
43820.4
43462.2
43186.1
42955.2
42734.4
42498.4
37100.4
36677.9
36358.1
36130.8
35983.1
35902.6
31557.3
31374.3
31247.1
31173.1
31149
31171.5
26413.7
26354.2
26327.5
26332.4
26368.4
26433.5
22023.5
22011.9
22020.3
22048.3
22096.1
22164.2
18175.4
18184.2
18203
18232.1
18271.6
18321.1
15048.3
15059.4
15074.8
15094.7
15119.5
15149.5
12471.7
12478.7
12487.3
12497.7
12510
12524.1
10443.5
10445.8
10448
10450.3
10452.7
10455.3
8820.96
8819.64
8817.65
8815.03
8811.78
8807.87
7537.02
7533.46
7528.85
7523.19
7516.52
7508.85
6501.97
6497.43
6491.68
6484.72
6476.59
6467.28
5667.87
5663.38
5657.48
5650.2
5641.54
5631.54
4971.21
4966.84
4961.17
4954.24
4946.06
4936.62
4387.61
4383.88
4378.87
4372.61
4365.11
4356.38
3892.85
3889.8
3885.55
3880.12
3873.52
3865.75
3471.73
3469.38
3465.91
3461.31
3455.61
3448.8
3111.57
3109.85
3107.07
3103.25
3098.4
3092.51
2802.74
2801.55
2799.37
2796.23
2792.13
2787.07
2537.26
2536.5
2534.82
2532.25
2528.8
2524.45
2308.56
2308.13
2306.87
2304.77
2301.84
2298.09
2111.14
2110.97
2110.02
2108.31
2105.82
2102.56
1940.38
1940.41
1939.72
1938.31
1936.18
1933.33
1792.43
1792.61
1792.12
1790.95
1789.11
1786.59
1664.05
1664.35
1664.01
1663.03
1661.42
1659.17
1552.56
1552.93
1552.7
1551.87
1550.46
1548.45
14198.7
14256.6
14429.5
14722
15166.2
15860
16863.8
18233.3
20025.3
22295.4
25095.9
28453.3
32295.4
36521.1
41102.6
46017.1
51247.6
56780.2
62603.1
68704.1
75052.5
81609.5
45404.9
47101.7
49410.5
51088
52143.9
52624.8
52701.6
52560.1
52323.2
52115.7
52469.6
53765.9
56161.6
59614.5
64088.4
69534.5
75889.9
83038.3
90834.3
99145.2
107865
116904
51911.8
51041.7
50313.1
49718.2
49208.2
48721.7
48227.8
47737.3
47282.7
46924
46751.1
46893.9
47451.2
48512.9
50081.3
52163.8
54747.8
57802.1
61286.8
65165.3
69412.5
74013.7
45217.6
44414.7
43642.8
42893.6
42200.9
41617.2
41182.3
40920
40853.6
41021.7
41478.2
42279
43449.5
44977.1
46858.8
49086.9
51650.1
54547.3
57777.5
61335
65211.8
69399
42167.4
41743.7
41280.1
40804.7
40348.7
39937.9
39598.5
39356.2
39236.1
39263.2
39466.3
39885.6
40525.3
41369.9
42427.9
43697.9
45174.9
46840
48668.7
50636.6
52715
54868.2
35809
35672.1
35578.1
35529.1
35523.5
35565.4
35659.6
35812.2
36031.7
36328.6
36709.1
37174.3
37719
38333.5
39014.3
39750.8
40535.7
41360.2
42212.9
43082.9
43958.8
44833.5
31143.6
31046.8
30972.2
30922
30898.6
30904.1
30941
31012.5
31121.3
31270.4
31462.9
31699.5
31968.9
32259.6
32567.9
32892.6
33227.6
33566.5
33902.3
34227.4
34534.1
34805.1
26426.5
26335.3
26263.9
26212.8
26181.7
26167.9
26170.3
26187.3
26216.3
26254.1
26295.8
26334.5
26363
26377.8
26376.1
26355.1
26311.3
26249.3
26171.8
26078.6
25968.2
25839.4
22141.5
22019.1
21901.6
21789
21680.7
21575.8
21473.1
21371
21267.7
21161
21048.5
20928.4
20801.1
20666.1
20520.5
20363.5
20194.9
20014.4
19821.8
19617
19399.8
19170
18275.1
18127.2
17980.2
17833.4
17685.8
17536.3
17383.2
17224.8
17059.2
16883.7
16695.3
16491.7
16275.4
16051.6
15821.6
15586.4
15346.2
15101.5
14852.4
14599.4
14342.9
14083.7
15086.1
14925.2
14761
14593
14420.6
14242.8
14058.9
13867.8
13668.3
13459.1
13239.1
13008.6
12773.1
12537.1
12300.5
12063.2
11825.9
11588.9
11353
11118.6
10886.3
10656.5
12451.9
12290.8
12126.1
11957.5
11784.5
11606.4
11422.7
11232.6
11035.2
10829.9
10615.7
10393.2
10168
9945.02
9724.86
9507.94
9293.49
9081.68
8872.88
8667.47
8465.96
8269.05
10380.8
10227.8
10071.2
9910.66
9745.8
9576.28
9401.74
9221.77
9035.96
8843.91
8645.21
8440.92
8236.84
8037.36
7842.79
7652.57
7466.86
7285.8
7109.53
6938.21
6771.91
6610.68
8735.85
8594.98
8450.92
8303.48
8152.52
7997.85
7839.28
7676.59
7509.56
7337.95
7161.44
6980.98
6801.55
6627.13
6457.46
6292.64
6132.72
5977.7
5827.61
5682.43
5542.15
5406.8
7441.13
7313.22
7182.62
7049.15
6912.67
6773.03
6630.11
6483.75
6333.83
6180.22
6022.84
5862.8
5704.76
5551.83
5403.97
5261.15
5123.32
4990.4
4862.32
4738.99
4620.28
4506.11
6404.91
6289.43
6171.55
6051.18
5928.21
5802.57
5674.19
5542.99
5408.92
5271.97
5132.14
4990.48
4850.98
4716.46
4586.86
4462.09
4341.99
4226.42
4115.27
4008.42
3905.78
3807.27
5573.79
5468.71
5361.52
5252.13
5140.45
5026.44
4910.03
4791.15
4669.82
4546.1
4420.1
4292.86
4168.01
4048.11
3933.04
3822.61
3716.66
3615.02
3517.53
3424.03
3334.37
3248.42
4883.66
4787.6
4689.66
4589.79
4487.98
4384.21
4278.47
4170.8
4061.23
3949.84
3836.72
3722.78
3611.22
3504.24
3401.68
3303.49
3209.48
3119.45
3033.21
2950.58
2871.43
2795.67
4307.66
4219.51
4129.73
4038.32
3945.27
3850.61
3754.35
3656.54
3557.24
3456.5
3354.42
3251.82
3151.58
3055.65
2963.86
2876.04
2792.01
2711.57
2634.59
2560.99
2490.67
2423.47
3821.05
3740.02
3657.59
3573.77
3488.58
3402.05
3314.22
3225.14
3134.87
3043.46
2951.01
2858.25
2767.79
2681.36
2598.8
2519.92
2444.58
2372.63
2303.94
2238.39
2175.83
2116.14
3407.77
3333.16
3257.35
3180.37
3102.24
3023.01
2942.71
2861.4
2779.14
2695.99
2612.02
2527.93
2446.07
2367.98
2293.51
2222.5
2154.8
2090.26
2028.75
1970.13
1914.26
1861.02
3054.86
2986.07
2916.27
2845.47
2773.72
2701.05
2627.51
2553.16
2478.05
2402.24
2325.82
2249.4
2175.13
2104.41
2037.07
1972.95
1911.92
1853.82
1798.51
1745.86
1695.73
1648
2752.48
2688.98
2624.62
2559.42
2493.43
2426.68
2359.23
2291.12
2222.41
2153.16
2083.45
2013.86
1946.32
1882.11
1821.05
1763.01
1707.82
1655.35
1605.46
1558.02
1512.91
1470.02
2492.62
2433.94
2374.51
2314.39
2253.61
2192.2
2130.22
2067.71
2004.74
1941.37
1877.65
1814.13
1752.57
1694.12
1638.61
1585.91
1535.86
1488.33
1443.18
1400.31
1359.58
1320.89
2268.77
2214.45
2159.51
2103.99
2047.91
1991.33
1934.28
1876.82
1818.99
1760.87
1702.51
1644.4
1588.16
1534.82
1484.23
1436.24
1390.73
1347.54
1306.58
1267.7
1230.82
1195.81
2075.49
2025.15
1974.28
1922.92
1871.11
1818.89
1766.29
1713.37
1660.17
1606.77
1553.2
1499.93
1448.42
1399.63
1353.4
1309.6
1268.09
1228.74
1191.44
1156.08
1122.56
1090.76
1908.28
1861.56
1814.4
1766.83
1718.88
1670.6
1622.03
1573.2
1524.18
1475.01
1425.75
1376.82
1329.55
1284.82
1242.47
1202.38
1164.4
1128.44
1094.37
1062.09
1031.5
1002.51
1763.37
1719.96
1676.17
1632.05
1587.62
1542.92
1497.99
1452.88
1407.63
1362.3
1316.92
1271.88
1228.42
1187.31
1148.42
1111.62
1076.78
1043.79
1012.55
982.968
954.942
928.388
1637.62
1597.24
1556.54
1515.55
1474.32
1432.88
1391.28
1349.55
1307.74
1265.88
1224.02
1182.5
1142.46
1104.59
1068.78
1034.89
1002.81
972.438
943.676
916.434
890.63
866.182
1528.43
1490.81
1452.91
1414.79
1376.48
1338.04
1299.49
1260.87
1222.2
1183.53
1144.87
1106.53
1069.55
1034.59
1001.5
970.18
940.52
912.426
885.81
860.595
836.705
814.069
87136.5
91755.6
97042.7
102984
109521
116544
123892
131380
138873
146406
154383
163818
176269
192860
213249
233698
252930
272551
293908
313446
333608
354035
384515
413692
434692
442399
447254
458785
478886
504935
542364
603817
728020
1.10451e+06
3.97219e+06
124584
131102
138598
147202
157092
168524
181858
197588
216372
239051
266606
298984
322547
333827
334318
324776
316040
312744
315090
330181
370949
473426
677567
1.03615e+06
1.49372e+06
1.74315e+06
1.69393e+06
1.67152e+06
1.7095e+06
1.81905e+06
2.02258e+06
2.3736e+06
3.05269e+06
4.8688e+06
1.52547e+07
78211.4
82048.1
86764.2
92708
100467
111060
126251
148897
182665
227669
267531
285907
278895
255484
220992
188890
166142
151692
147573
163981
257230
531181
998829
1.64869e+06
2.37685e+06
2.85657e+06
2.9519e+06
2.76007e+06
2.46636e+06
2.26896e+06
2.23653e+06
2.39456e+06
2.79584e+06
3.7057e+06
8.10741e+06
73163
76510.3
80474.9
85178.6
90760.2
97361.3
105076
113938
123863
134419
143735
150700
154219
152223
141367
122408
108586
103768
104719
114842
137124
188858
294331
436101
598581
764085
923109
988556
1.00609e+06
1.00633e+06
1.00727e+06
1.011e+06
1.00259e+06
996910
1.11652e+06
56771.4
58499.6
60495.1
62810.9
65518.2
68724.2
72619.6
77469.3
83586.8
91366.5
101167
112501
119805
118861
109669
94704.3
80352.4
68169.2
58860.2
52648
48732.9
46725.8
47206.1
50884.8
59043.4
71413.8
85355.1
96281.5
103083
108332
114590
124980
146360
213556
659317
45645.8
46450.7
47373.7
48419.9
49594.9
50897.4
52314.7
53813.8
55363.5
56895.2
58261.1
59170.1
59144.9
58013.9
55524.6
51849.7
47405.8
42618.4
38144
34498.6
31686.6
29322.2
27757
28667
36263.5
61146.5
112791
173579
210027
212805
202243
202230
225623
322679
957560
35092
35436.7
35798.9
36182
36591.2
37033.1
37516.8
38053.7
38656.6
39335.3
40082
40862
41549
41716.2
40734.7
38215.1
34831.1
31141.2
27595.6
24507.3
22147.7
20730.3
20463.5
21042.2
24105.2
40925.5
82847.7
134862
180332
199752
195996
177765
172645
196047
347239
25813.7
25905.3
26000.2
26093.2
26179
26250.7
26299.2
26313
26279
26176.2
25975.9
25638.6
25103.1
24290.8
23123.8
21589.4
19760.9
17705.3
15589.9
13572.8
11736.2
10154.2
8954.54
8113.18
7658.29
7639.01
8313.79
9407.22
10631.3
11923.8
14129.5
18550.3
20951
22455
26475.7
19054.1
19052.9
19039.2
19009.7
18962
18894.2
18803.1
18684.6
18532.4
18337.1
18084.9
17754.3
17310.8
16702.2
15837
14697.4
13414.4
12073.9
10759.4
9528.36
8420.21
7433.7
6662.36
6151.6
5828.32
5665.12
5656.26
5783.51
6056.67
6533.64
7334.99
8744.76
11580.3
19465.8
64996.3
13936.4
13898.8
13852.2
13794.4
13722.3
13631.9
13518.3
13375.2
13194.9
12968.5
12685.6
12334.3
11901.9
11368.9
10719.7
9985.53
9218.47
8425.43
7636.86
6897.07
6238.6
5666.82
5245.98
4995.5
4883.45
4887.71
4993.61
5202.89
5529.72
6009.17
6714.74
7809.03
9725.27
14133.8
34743.5
10521.8
10476
10421.2
10356.1
10278.6
10186.5
10077.4
9948.12
9795.04
9613.27
9396.19
9139.38
8835.61
8473.45
8038.72
7543.01
7016.86
6492.61
5992.26
5534.2
5138.09
4813.64
4608.56
4537.02
4581.68
4735.01
5003.18
5390.77
5924.79
6659.02
7704.63
9316.48
12212.6
19340.3
57736.9
8151.67
8107.2
8056.31
7997.93
7930.53
7851.91
7759.52
7650.65
7522.18
7370.44
7191.34
6981.83
6738.69
6458.23
6139.72
5798.64
5453.21
5106.32
4764.47
4449.45
4171.57
3940.49
3789.94
3731.1
3755.5
3856.67
4035.47
4293.34
4644.28
5120.97
5787.38
6789.72
8530.12
12577
32430.4
6514.08
6475.47
6430.53
6378.96
6319.77
6251.82
6173.79
6084.14
5981.03
5862.17
5725.48
5567.89
5384.79
5171.51
4926.76
4664.74
4404.11
4150.86
3908.49
3688.64
3501.41
3354.73
3277.77
3280.4
3357.02
3512.31
3747.9
4071.02
4497.5
5058.25
5817.65
6926.72
8814.56
13225.4
35820.1
5325.67
5292.87
5255.46
5212.69
5163.76
5107.73
5043.51
4969.82
4885.19
4788.01
4676.69
4549.2
4402.52
4234.77
4045.61
3845.61
3649.72
3462.52
3279.52
3107.46
2957.29
2836.18
2768.03
2761.78
2813.39
2926.48
3104.79
3356.86
3699.43
4161.5
4797.92
5728.42
7275.18
10671.9
26733.8
4437.87
4410.32
4378.82
4342.82
4301.72
4255.02
4201.97
4141.66
4072.95
3994.39
3904.07
3800.01
3680.79
3544.82
3391.42
3230
3069.98
2914.21
2767.68
2634.94
2521.88
2432.76
2385.46
2386.48
2433.31
2528.43
2673.78
2874.81
3142.39
3497.2
3981.25
4690.35
5889.99
8645.42
22296.1
3748.65
3725.37
3698.96
3668.94
3634.76
3595.76
3551.28
3500.51
3442.53
3376.27
3300.46
3213.79
3114.98
3002.78
2877.23
2745.23
2615.95
2491.59
2374.54
2266.06
2169.5
2089.56
2042.13
2034.37
2065
2136.7
2253.56
2422.77
2657.78
2981.42
3435.75
4109.64
5236.35
7731.51
19451.7
3197.61
3177.91
3155.58
3130.26
3101.54
3068.92
3031.83
2989.53
2941.04
2885.43
2821.83
2749.3
2666.85
2573.55
2469.48
2360.18
2252.86
2148.72
2049.42
1957.52
1876.67
1810.03
1770.04
1761.85
1784.19
1838.47
1927.2
2055.03
2230.76
2470.34
2804.94
3303.33
4151.58
6080.66
15312
2751.12
2734.24
2715.2
2693.63
2669.14
2641.29
2609.6
2573.47
2532.25
2485.2
2431.53
2370.39
2300.95
2222.42
2134.93
2043.43
1952.86
1865.34
1781.8
1703.62
1633.92
1574.96
1536.68
1524.32
1537.58
1577.9
1648.72
1755.2
1907.06
2121.16
2428.9
2897.02
3701.26
5525.53
14129.2
2384.26
2369.83
2353.52
2335.08
2314.19
2290.48
2263.48
2232.66
2197.48
2157.37
2111.68
2059.73
2000.82
1934.3
1860.27
1782.89
1706.42
1631.96
1560.68
1494.15
1434.53
1383.4
1349.09
1336.05
1343.9
1373.32
1426.48
1506.94
1621.44
1782.16
2012.64
2364.08
2972.87
4368.13
10950.3
2081.48
2069.01
2054.94
2039.03
2020.98
2000.47
1977.17
1950.65
1920.45
1886.07
1846.95
1802.49
1752.12
1695.24
1631.95
1565.81
1500.42
1436.59
1375.32
1317.8
1265.51
1219.93
1188.2
1174.36
1178.28
1200.48
1243.45
1310.93
1409.82
1552.7
1763.49
2093.62
2678.92
4037.81
10490
1830.29
1819.49
1807.25
1793.39
1777.69
1759.88
1739.64
1716.63
1690.48
1660.74
1626.96
1588.62
1545.21
1496.24
1441.77
1384.83
1328.51
1273.49
1220.61
1170.93
1125.85
1086.34
1058.53
1045.95
1048.59
1067.01
1103.09
1159.78
1242.47
1360.87
1533.47
1800.05
2265.6
3332.92
8306.39
1620.57
1611.13
1600.46
1588.37
1574.66
1559.11
1541.46
1521.42
1498.65
1472.78
1443.41
1410.11
1372.42
1329.93
1282.67
1233.29
1184.42
1136.67
1090.73
1047.5
1008.14
973.357
948.526
936.92
938.635
954.274
985.725
1035.83
1109.81
1217.21
1376.36
1626.84
2073.49
3119.22
8107.48
1445.45
1437.14
1427.73
1417.07
1405
1391.32
1375.79
1358.18
1338.19
1315.49
1289.76
1260.6
1227.64
1190.5
1149.22
1106.09
1063.43
1021.74
981.628
943.884
909.543
879.286
857.782
847.873
849.862
864.35
892.941
938.137
1004.41
1099.77
1239.56
1456.82
1838.52
2717.93
6847.22
1298.78
1291.37
1282.99
1273.51
1262.79
1250.64
1236.87
1221.26
1203.56
1183.5
1160.76
1135.03
1105.97
1073.26
1036.93
998.996
961.485
924.841
889.606
856.472
826.371
799.944
781.366
773.179
775.501
788.927
815.122
856.563
917.649
1006.18
1137.11
1342.84
1709.15
2566.14
6649.31
1175.81
1169.12
1161.57
1153.04
1143.39
1132.49
1120.14
1106.17
1090.34
1072.43
1052.16
1029.25
1003.42
974.37
942.144
908.525
875.302
842.867
811.702
782.431
755.902
732.731
716.682
710.031
712.937
726.025
750.737
789.402
846.055
927.705
1047.75
1235
1565.62
2332.26
5954.02
1072.58
1066.45
1059.55
1051.76
1042.98
1033.06
1021.86
1009.21
994.907
978.747
960.498
939.911
916.733
890.714
861.887
831.849
802.193
773.264
745.497
719.459
695.928
675.497
661.589
656.25
659.647
672.422
695.936
732.3
785.241
861.511
973.957
1150.27
1463.77
2196.73
5688.11
985.875
980.172
973.762
966.55
958.433
949.292
938.992
927.384
914.3
899.554
882.944
864.25
843.25
819.724
793.706
766.635
739.94
713.929
688.995
665.657
644.634
626.5
614.386
610.138
613.932
626.425
648.886
683.294
733.15
804.666
909.71
1073.85
1364.48
2040.9
5248.94
913.055
907.653
901.597
894.804
887.182
878.626
869.016
858.222
846.095
832.473
817.176
800.013
780.786
759.301
735.593
710.971
686.729
663.142
640.567
619.481
600.551
584.334
573.709
570.353
574.443
586.642
608.143
640.821
687.998
755.568
854.762
1009.82
1285.03
1928.38
4995.41
851.942
846.727
840.901
834.391
827.113
818.975
809.872
799.688
788.293
775.544
761.283
745.342
727.543
707.715
685.894
663.285
641.067
619.487
598.869
579.657
562.471
547.849
538.458
535.825
540.13
552.033
572.657
603.783
648.557
712.532
806.286
952.61
1211.9
1816.98
4695.25
800.726
795.596
789.89
783.54
776.474
768.608
759.852
750.103
739.246
727.155
713.692
698.706
682.041
663.542
643.248
622.282
601.725
581.799
562.803
545.147
529.413
516.118
507.745
505.697
510.146
521.745
541.556
571.28
613.907
674.729
763.818
902.913
1149.69
1726.78
4478.35
4443.22
1706.54
1135.04
891.283
753.89
665.748
605.386
562.863
532.963
512.728
500.446
495.09
495.963
502.848
514.456
528.434
544.231
561.274
579.169
597.634
616.472
634.719
651.38
666.43
680.012
692.267
703.327
713.313
722.332
730.48
737.844
744.5
750.517
755.956
760.874
4187.12
1604.66
1066.09
836.661
707.443
624.571
567.815
527.817
499.663
480.567
468.917
463.748
464.393
470.652
481.337
494.264
508.917
524.771
541.465
558.748
576.449
593.676
609.49
623.859
636.907
648.759
659.531
669.326
678.237
686.346
693.727
700.446
706.56
712.124
717.185
3960.89
1515.71
1006.16
789.294
667.204
588.919
535.303
497.507
470.884
452.8
441.728
436.759
437.26
443.046
453.019
465.133
478.91
493.863
509.665
526.09
542.99
559.53
574.804
588.768
601.531
613.203
623.884
633.665
642.626
650.84
658.368
665.268
671.589
677.377
682.675
3764.85
1438.23
953.894
747.968
632.108
557.841
506.98
471.12
445.849
428.668