/*--------------------------------*- C++ -*----------------------------------*\
  =========                 |
  \\      /  F ield         | OpenFOAM: The Open Source CFD Toolbox
   \\    /   O peration     | Website:  https://openfoam.org
    \\  /    A nd           | Version:  8
     \\/     M anipulation  |
\*---------------------------------------------------------------------------*/
FoamFile
{
    version     2.0;
    format      ascii;
    class       volScalarField;
    location    "0.12";
    object      T;
}
// * * * * * * * * * * * * * * * * * * * * * * * * * * * * * * * * * * * * * //

dimensions      [0 0 0 1 0 0 0];

internalField   nonuniform List<scalar> 
15677
(
298.903
298.783
298.709
298.661
298.621
298.578
298.522
298.489
298.469
298.446
298.392
298.286
298.089
297.822
297.601
297.551
297.677
298.04
298.396
298.513
298.485
298.328
298.275
298.235
298.206
298.173
298.142
298.115
298.092
298.072
298.055
298.04
298.029
298.019
298.012
299.856
299.472
299.231
299.091
299.049
299.151
299.458
299.934
300.438
300.701
300.698
300.439
299.994
299.433
298.954
298.69
298.641
298.714
298.83
298.893
298.921
298.922
298.934
298.933
298.919
298.893
298.862
298.834
298.812
298.798
298.791
298.792
298.797
298.805
298.815
302.111
301.616
301.241
300.889
300.522
300.157
299.812
299.489
299.153
298.738
298.44
298.313
298.315
298.438
298.608
298.799
299.036
299.268
299.449
299.571
299.651
299.703
299.738
299.762
299.778
299.785
299.784
299.776
299.764
299.748
299.732
299.715
299.701
299.688
299.679
301.79
301.426
301.033
300.645
300.233
299.814
299.438
299.228
299.29
299.459
299.595
299.662
299.745
300.022
300.491
300.861
301.02
301.043
300.973
300.852
300.694
300.515
300.343
300.198
300.091
300.023
299.988
299.975
299.978
299.991
300.012
300.039
300.068
300.098
300.127
300.619
300.667
300.713
300.767
300.839
300.934
301.071
301.255
301.438
301.575
301.541
301.33
301.018
300.697
300.505
300.397
300.331
300.283
300.249
300.225
300.206
300.198
300.204
300.224
300.255
300.296
300.347
300.405
300.466
300.524
300.577
300.622
300.661
300.693
300.719
301.102
301.097
301.1
301.108
301.121
301.139
301.168
301.208
301.257
301.305
301.327
301.315
301.303
301.303
301.31
301.293
301.252
301.193
301.123
301.052
300.986
300.926
300.881
300.849
300.831
300.824
300.825
300.83
300.836
300.842
300.849
300.855
300.862
300.868
300.874
302.056
302.005
301.956
301.908
301.859
301.812
301.753
301.686
301.616
301.544
301.474
301.409
301.349
301.291
301.229
301.163
301.112
301.082
301.067
301.061
301.058
301.057
301.056
301.056
301.06
301.068
301.079
301.091
301.105
301.119
301.132
301.143
301.152
301.16
301.166
301.695
301.689
301.679
301.667
301.653
301.637
301.621
301.604
301.586
301.566
301.541
301.511
301.487
301.461
301.434
301.382
301.332
301.295
301.271
301.255
301.246
301.241
301.239
301.24
301.242
301.245
301.248
301.25
301.252
301.254
301.257
301.259
301.26
301.262
301.263
301.171
301.177
301.183
301.189
301.196
301.204
301.212
301.221
301.23
301.24
301.25
301.261
301.275
301.288
301.292
301.288
301.283
301.28
301.28
301.282
301.285
301.29
301.294
301.3
301.305
301.312
301.318
301.324
301.33
301.335
301.339
301.343
301.346
301.349
301.351
301.279
301.272
301.268
301.264
301.262
301.261
301.261
301.262
301.264
301.266
301.27
301.275
301.28
301.286
301.291
301.296
301.301
301.306
301.312
301.319
301.326
301.334
301.34
301.346
301.351
301.356
301.36
301.364
301.367
301.37
301.372
301.375
301.376
301.378
301.379
301.206
301.211
301.215
301.219
301.224
301.229
301.234
301.24
301.246
301.252
301.259
301.265
301.272
301.28
301.287
301.294
301.301
301.308
301.315
301.322
301.33
301.338
301.346
301.353
301.359
301.365
301.369
301.374
301.377
301.381
301.384
301.386
301.388
301.39
301.391
301.257
301.261
301.263
301.265
301.268
301.27
301.273
301.276
301.279
301.282
301.286
301.289
301.294
301.299
301.304
301.31
301.315
301.322
301.328
301.335
301.342
301.349
301.355
301.36
301.365
301.37
301.374
301.377
301.38
301.382
301.384
301.386
301.388
301.389
301.39
301.268
301.269
301.271
301.272
301.273
301.275
301.277
301.279
301.281
301.284
301.286
301.29
301.294
301.298
301.303
301.308
301.314
301.32
301.326
301.332
301.338
301.345
301.351
301.356
301.361
301.365
301.368
301.371
301.374
301.376
301.378
301.38
301.381
301.382
301.383
301.261
301.266
301.269
301.272
301.275
301.277
301.28
301.282
301.285
301.288
301.29
301.293
301.297
301.301
301.306
301.31
301.315
301.32
301.326
301.331
301.337
301.342
301.347
301.352
301.356
301.359
301.362
301.364
301.367
301.369
301.37
301.372
301.373
301.374
301.375
301.279
301.279
301.28
301.28
301.28
301.281
301.281
301.282
301.283
301.285
301.287
301.289
301.292
301.296
301.3
301.305
301.309
301.314
301.319
301.324
301.33
301.335
301.339
301.344
301.347
301.35
301.353
301.355
301.357
301.359
301.36
301.362
301.363
301.364
301.365
301.256
301.26
301.262
301.265
301.267
301.269
301.271
301.273
301.275
301.277
301.279
301.282
301.286
301.289
301.294
301.298
301.302
301.307
301.312
301.317
301.322
301.327
301.331
301.335
301.338
301.341
301.344
301.346
301.348
301.349
301.35
301.352
301.353
301.354
301.354
301.261
301.262
301.262
301.262
301.263
301.263
301.264
301.265
301.267
301.268
301.27
301.273
301.276
301.28
301.284
301.288
301.292
301.297
301.302
301.307
301.312
301.316
301.321
301.324
301.328
301.33
301.333
301.335
301.337
301.338
301.34
301.341
301.342
301.343
301.343
301.238
301.241
301.243
301.245
301.247
301.248
301.25
301.252
301.254
301.256
301.258
301.261
301.264
301.268
301.272
301.277
301.281
301.286
301.291
301.295
301.3
301.305
301.309
301.313
301.316
301.319
301.321
301.323
301.325
301.327
301.328
301.329
301.33
301.331
301.332
301.234
301.235
301.235
301.236
301.237
301.237
301.238
301.24
301.241
301.243
301.245
301.248
301.251
301.255
301.259
301.264
301.268
301.273
301.278
301.283
301.287
301.292
301.296
301.3
301.303
301.306
301.309
301.311
301.313
301.314
301.315
301.317
301.318
301.318
301.319
301.213
301.215
301.217
301.218
301.219
301.221
301.222
301.224
301.225
301.228
301.23
301.233
301.236
301.24
301.245
301.249
301.254
301.259
301.264
301.269
301.274
301.278
301.283
301.286
301.29
301.293
301.295
301.297
301.299
301.301
301.302
301.303
301.304
301.305
301.306
301.202
301.203
301.204
301.204
301.205
301.206
301.207
301.209
301.21
301.212
301.215
301.218
301.221
301.225
301.23
301.234
301.239
301.244
301.249
301.254
301.259
301.264
301.268
301.272
301.275
301.278
301.281
301.283
301.285
301.287
301.288
301.289
301.29
301.291
301.292
301.181
301.183
301.184
301.186
301.187
301.188
301.19
301.192
301.194
301.196
301.198
301.201
301.205
301.209
301.214
301.219
301.223
301.228
301.233
301.239
301.244
301.249
301.253
301.257
301.26
301.263
301.266
301.268
301.27
301.272
301.273
301.275
301.276
301.277
301.277
301.166
301.168
301.169
301.17
301.171
301.172
301.174
301.175
301.177
301.179
301.182
301.185
301.189
301.193
301.198
301.203
301.208
301.213
301.218
301.223
301.228
301.233
301.238
301.242
301.245
301.248
301.251
301.253
301.255
301.257
301.258
301.26
301.261
301.262
301.263
301.147
301.149
301.151
301.152
301.153
301.155
301.157
301.158
301.16
301.163
301.166
301.169
301.173
301.177
301.182
301.187
301.192
301.197
301.202
301.207
301.213
301.218
301.222
301.226
301.23
301.233
301.236
301.238
301.24
301.242
301.243
301.245
301.246
301.247
301.248
301.131
301.133
301.134
301.136
301.137
301.138
301.14
301.142
301.144
301.146
301.149
301.152
301.156
301.161
301.166
301.171
301.176
301.181
301.187
301.192
301.197
301.202
301.207
301.211
301.215
301.218
301.221
301.223
301.225
301.227
301.229
301.23
301.231
301.232
301.233
301.113
301.116
301.117
301.119
301.12
301.122
301.123
301.125
301.128
301.13
301.133
301.136
301.14
301.145
301.15
301.156
301.161
301.166
301.171
301.177
301.182
301.188
301.192
301.196
301.2
301.203
301.206
301.208
301.211
301.212
301.214
301.215
301.217
301.218
301.218
301.097
301.099
301.101
301.102
301.104
301.106
301.107
301.109
301.112
301.114
301.117
301.121
301.125
301.13
301.135
301.14
301.146
301.151
301.157
301.162
301.168
301.173
301.178
301.182
301.186
301.189
301.192
301.194
301.196
301.198
301.2
301.201
301.203
301.204
301.205
301.081
301.083
301.085
301.086
301.088
301.09
301.092
301.094
301.096
301.099
301.102
301.106
301.11
301.115
301.12
301.126
301.131
301.137
301.143
301.148
301.154
301.159
301.164
301.168
301.172
301.175
301.178
301.181
301.183
301.185
301.186
301.188
301.189
301.19
301.191
301.065
301.068
301.069
301.071
301.073
301.074
301.076
301.079
301.081
301.084
301.087
301.091
301.096
301.101
301.106
301.112
301.118
301.123
301.129
301.135
301.141
301.146
301.151
301.155
301.159
301.162
301.165
301.168
301.17
301.172
301.174
301.175
301.176
301.177
301.178
301.05
301.052
301.054
301.056
301.058
301.06
301.062
301.064
301.067
301.07
301.073
301.077
301.082
301.087
301.093
301.099
301.105
301.11
301.116
301.122
301.128
301.134
301.138
301.143
301.147
301.15
301.153
301.155
301.158
301.16
301.161
301.163
301.164
301.165
301.166
298.006
298.002
297.997
297.991
297.986
297.98
297.974
297.968
297.962
297.956
297.95
297.944
297.939
297.934
297.932
297.932
297.934
297.938
297.946
297.956
297.968
297.982
298.825
298.835
298.846
298.857
298.866
298.87
298.869
298.858
298.837
298.804
298.755
298.699
298.64
298.588
298.546
298.517
298.496
298.483
298.477
298.475
298.477
298.48
299.667
299.654
299.645
299.643
299.646
299.656
299.672
299.692
299.717
299.747
299.783
299.823
299.868
299.92
299.978
300.045
300.118
300.198
300.281
300.363
300.441
300.514
300.161
300.2
300.239
300.276
300.31
300.339
300.36
300.375
300.384
300.384
300.378
300.365
300.346
300.326
300.307
300.292
300.284
300.281
300.284
300.29
300.3
300.313
300.745
300.772
300.796
300.818
300.839
300.859
300.878
300.895
300.909
300.92
300.928
300.935
300.939
300.942
300.943
300.943
300.94
300.937
300.935
300.936
300.939
300.946
300.879
300.884
300.89
300.897
300.904
300.913
300.922
300.932
300.942
300.953
300.964
300.975
300.985
300.994
301.002
301.009
301.015
301.019
301.023
301.026
301.029
301.032
301.169
301.171
301.173
301.176
301.178
301.181
301.184
301.188
301.192
301.196
301.201
301.205
301.21
301.214
301.218
301.221
301.224
301.227
301.229
301.23
301.232
301.233
301.263
301.261
301.26
301.258
301.257
301.256
301.255
301.254
301.254
301.255
301.255
301.256
301.258
301.259
301.26
301.261
301.263
301.264
301.264
301.265
301.265
301.266
301.352
301.352
301.352
301.352
301.351
301.351
301.35
301.349
301.349
301.348
301.347
301.346
301.346
301.345
301.344
301.343
301.342
301.341
301.34
301.339
301.338
301.337
301.38
301.381
301.381
301.381
301.381
301.381
301.38
301.38
301.379
301.378
301.378
301.377
301.376
301.374
301.373
301.372
301.371
301.369
301.368
301.366
301.365
301.363
301.392
301.394
301.395
301.396
301.397
301.398
301.399
301.399
301.4
301.4
301.4
301.4
301.399
301.399
301.398
301.397
301.396
301.395
301.393
301.392
301.39
301.389
301.392
301.393
301.395
301.397
301.398
301.399
301.401
301.402
301.402
301.403
301.404
301.404
301.404
301.404
301.404
301.403
301.403
301.402
301.401
301.4
301.399
301.397
301.385
301.387
301.389
301.391
301.392
301.394
301.396
301.397
301.399
301.4
301.401
301.402
301.402
301.403
301.403
301.403
301.403
301.403
301.402
301.402
301.401
301.4
301.376
301.378
301.38
301.382
301.384
301.386
301.388
301.389
301.391
301.392
301.394
301.395
301.396
301.397
301.398
301.398
301.399
301.399
301.399
301.399
301.398
301.398
301.366
301.368
301.37
301.372
301.374
301.376
301.378
301.38
301.382
301.383
301.385
301.387
301.388
301.389
301.39
301.391
301.392
301.392
301.393
301.393
301.393
301.393
301.356
301.358
301.36
301.362
301.364
301.366
301.368
301.37
301.372
301.374
301.376
301.377
301.379
301.38
301.382
301.383
301.384
301.385
301.385
301.386
301.386
301.386
301.345
301.347
301.349
301.352
301.354
301.356
301.358
301.36
301.362
301.364
301.366
301.368
301.37
301.372
301.373
301.374
301.375
301.376
301.377
301.378
301.379
301.379
301.333
301.336
301.338
301.341
301.343
301.346
301.348
301.35
301.352
301.355
301.357
301.359
301.361
301.363
301.364
301.366
301.367
301.368
301.369
301.37
301.371
301.372
301.321
301.324
301.326
301.329
301.332
301.334
301.337
301.34
301.342
301.344
301.347
301.349
301.351
301.353
301.355
301.357
301.358
301.36
301.361
301.362
301.363
301.364
301.308
301.311
301.314
301.317
301.32
301.323
301.326
301.328
301.331
301.334
301.337
301.339
301.342
301.344
301.346
301.348
301.35
301.351
301.353
301.354
301.355
301.356
301.294
301.297
301.301
301.304
301.307
301.31
301.314
301.317
301.32
301.323
301.326
301.329
301.331
301.334
301.336
301.338
301.34
301.342
301.344
301.346
301.347
301.348
301.28
301.283
301.287
301.29
301.294
301.298
301.301
301.304
301.308
301.311
301.315
301.318
301.321
301.324
301.326
301.329
301.331
301.333
301.335
301.337
301.338
301.34
301.265
301.269
301.273
301.277
301.28
301.284
301.288
301.292
301.296
301.299
301.303
301.306
301.31
301.313
301.316
301.319
301.321
301.324
301.326
301.328
301.33
301.331
301.25
301.254
301.258
301.263
301.267
301.271
301.275
301.279
301.283
301.287
301.291
301.295
301.299
301.302
301.305
301.308
301.311
301.314
301.316
301.318
301.32
301.322
301.236
301.24
301.244
301.249
301.253
301.257
301.262
301.266
301.271
301.275
301.279
301.283
301.287
301.291
301.295
301.298
301.301
301.304
301.306
301.309
301.311
301.313
301.221
301.226
301.23
301.235
301.24
301.244
301.249
301.253
301.258
301.263
301.267
301.272
301.276
301.28
301.284
301.287
301.291
301.294
301.297
301.299
301.302
301.304
301.207
301.212
301.217
301.222
301.226
301.231
301.236
301.241
301.246
301.251
301.255
301.26
301.265
301.269
301.273
301.277
301.28
301.284
301.287
301.29
301.292
301.295
301.194
301.199
301.204
301.209
301.214
301.219
301.224
301.229
301.234
301.239
301.244
301.249
301.254
301.258
301.262
301.266
301.27
301.274
301.277
301.28
301.283
301.286
301.181
301.186
301.191
301.196
301.201
301.207
301.212
301.217
301.222
301.227
301.233
301.238
301.243
301.247
301.252
301.256
301.26
301.264
301.267
301.27
301.274
301.276
301.169
301.174
301.179
301.185
301.19
301.195
301.2
301.206
301.211
301.216
301.222
301.227
301.232
301.237
301.242
301.246
301.25
301.254
301.258
301.261
301.264
301.268
297.997
298.011
298.026
298.04
298.056
298.072
298.489
298.505
298.52
298.532
298.54
298.547
300.594
300.683
300.764
300.837
300.899
300.951
300.333
300.359
300.386
300.414
300.442
300.47
300.961
300.985
301.012
301.041
301.072
301.104
301.039
301.049
301.06
301.071
301.083
301.095
301.237
301.243
301.249
301.255
301.261
301.267
301.267
301.27
301.273
301.275
301.278
301.281
301.336
301.337
301.338
301.338
301.338
301.337
301.362
301.361
301.36
301.359
301.358
301.357
301.387
301.386
301.385
301.383
301.381
301.379
301.396
301.394
301.393
301.391
301.389
301.387
301.399
301.398
301.396
301.395
301.393
301.391
301.397
301.396
301.395
301.393
301.392
301.39
301.392
301.391
301.39
301.389
301.388
301.386
301.386
301.385
301.384
301.383
301.382
301.381
301.379
301.379
301.378
301.377
301.376
301.375
301.372
301.371
301.371
301.37
301.37
301.369
301.364
301.364
301.364
301.363
301.363
301.362
301.357
301.356
301.356
301.356
301.355
301.355
301.349
301.349
301.348
301.348
301.347
301.347
301.341
301.34
301.34
301.34
301.339
301.339
301.332
301.332
301.332
301.331
301.331
301.33
301.323
301.323
301.323
301.323
301.322
301.322
301.314
301.314
301.314
301.314
301.313
301.313
301.305
301.305
301.305
301.305
301.304
301.304
301.296
301.296
301.296
301.295
301.295
301.295
301.287
301.287
301.287
301.286
301.286
301.286
301.278
301.278
301.278
301.277
301.277
301.277
301.269
301.269
301.269
301.268
301.268
301.268
298.087
298.103
298.123
298.146
298.172
298.2
298.229
298.26
298.293
298.327
298.362
298.398
298.436
298.474
298.512
298.548
298.581
298.612
298.637
298.656
298.67
298.68
298.557
298.577
298.601
298.629
298.66
298.695
298.731
298.769
298.808
298.847
298.884
298.918
298.949
298.978
299.006
299.029
299.045
299.053
299.051
299.037
299.01
298.972
300.995
301.035
301.068
301.094
301.113
301.128
301.139
301.149
301.16
301.174
301.194
301.223
301.26
301.301
301.344
301.387
301.427
301.461
301.486
301.499
301.497
301.48
300.497
300.523
300.549
300.576
300.603
300.63
300.658
300.687
300.717
300.747
300.776
300.804
300.829
300.85
300.865
300.876
300.882
300.883
300.879
300.87
300.857
300.838
301.136
301.168
301.2
301.23
301.26
301.288
301.315
301.342
301.366
301.389
301.411
301.43
301.445
301.457
301.464
301.468
301.467
301.463
301.455
301.444
301.43
301.413
301.109
301.122
301.135
301.148
301.16
301.172
301.184
301.196
301.206
301.216
301.225
301.232
301.238
301.242
301.244
301.245
301.244
301.241
301.238
301.233
301.227
301.22
301.274
301.282
301.29
301.297
301.304
301.311
301.316
301.322
301.326
301.33
301.332
301.334
301.334
301.333
301.331
301.328
301.324
301.318
301.313
301.306
301.299
301.291
301.285
301.289
301.293
301.296
301.299
301.301
301.304
301.305
301.307
301.308
301.308
301.308
301.307
301.305
301.303
301.301
301.298
301.296
301.293
301.289
301.286
301.283
301.338
301.339
301.339
301.34
301.34
301.339
301.339
301.338
301.336
301.334
301.332
301.33
301.327
301.323
301.32
301.317
301.313
301.309
301.306
301.302
301.298
301.295
301.357
301.357
301.357
301.356
301.355
301.354
301.353
301.351
301.35
301.348
301.346
301.343
301.341
301.339
301.336
301.334
301.332
301.33
301.328
301.326
301.324
301.322
301.378
301.377
301.375
301.374
301.372
301.37
301.368
301.366
301.363
301.36
301.358
301.355
301.352
301.349
301.346
301.343
301.341
301.338
301.336
301.334
301.331
301.329
301.386
301.384
301.383
301.381
301.379
301.377
301.375
301.373
301.37
301.368
301.366
301.363
301.361
301.359
301.357
301.355
301.353
301.351
301.349
301.348
301.346
301.345
301.389
301.387
301.386
301.384
301.382
301.38
301.377
301.375
301.373
301.37
301.368
301.365
301.363
301.361
301.358
301.356
301.354
301.352
301.35
301.348
301.346
301.345
301.388
301.387
301.385
301.383
301.381
301.379
301.377
301.375
301.372
301.37
301.368
301.366
301.364
301.361
301.359
301.358
301.356
301.354
301.352
301.35
301.349
301.347
301.385
301.383
301.381
301.38
301.378
301.376
301.374
301.372
301.37
301.367
301.365
301.363
301.361
301.359
301.356
301.354
301.352
301.35
301.348
301.346
301.344
301.342
301.38
301.378
301.377
301.375
301.373
301.371
301.369
301.367
301.365
301.363
301.361
301.359
301.356
301.354
301.352
301.35
301.348
301.346
301.343
301.341
301.339
301.337
301.374
301.372
301.371
301.369
301.367
301.365
301.363
301.361
301.359
301.357
301.355
301.352
301.35
301.348
301.345
301.343
301.34
301.338
301.336
301.333
301.331
301.328
301.368
301.366
301.364
301.363
301.361
301.359
301.357
301.355
301.352
301.35
301.348
301.345
301.342
301.34
301.337
301.334
301.332
301.329
301.326
301.324
301.321
301.318
301.361
301.359
301.357
301.355
301.353
301.351
301.349
301.347
301.345
301.342
301.339
301.336
301.334
301.331
301.328
301.325
301.322
301.319
301.316
301.313
301.31
301.306
301.353
301.352
301.35
301.348
301.346
301.343
301.341
301.339
301.336
301.333
301.33
301.327
301.324
301.321
301.317
301.314
301.311
301.307
301.304
301.301
301.297
301.294
301.346
301.344
301.342
301.34
301.337
301.335
301.332
301.33
301.327
301.324
301.32
301.317
301.313
301.31
301.306
301.302
301.299
301.295
301.291
301.288
301.284
301.28
301.338
301.335
301.333
301.331
301.328
301.326
301.323
301.32
301.317
301.313
301.31
301.306
301.302
301.298
301.294
301.29
301.286
301.282
301.278
301.274
301.27
301.266
301.329
301.327
301.324
301.322
301.319
301.316
301.313
301.31
301.306
301.303
301.299
301.295
301.29
301.286
301.282
301.277
301.273
301.269
301.265
301.26
301.256
301.252
301.32
301.318
301.315
301.312
301.309
301.306
301.303
301.299
301.296
301.292
301.287
301.283
301.278
301.274
301.269
301.265
301.26
301.256
301.251
301.247
301.242
301.238
301.311
301.309
301.306
301.303
301.3
301.296
301.293
301.289
301.285
301.28
301.276
301.271
301.266
301.262
301.257
301.252
301.247
301.242
301.238
301.233
301.228
301.223
301.302
301.299
301.296
301.293
301.29
301.286
301.282
301.278
301.274
301.269
301.265
301.26
301.254
301.249
301.244
301.239
301.234
301.229
301.224
301.219
301.214
301.21
301.293
301.29
301.287
301.283
301.28
301.276
301.272
301.267
301.263
301.258
301.253
301.248
301.243
301.237
301.232
301.227
301.222
301.216
301.211
301.206
301.201
301.196
301.284
301.28
301.277
301.273
301.27
301.266
301.261
301.257
301.252
301.247
301.242
301.237
301.231
301.226
301.22
301.215
301.209
301.204
301.199
301.194
301.188
301.183
301.275
301.271
301.268
301.264
301.26
301.256
301.251
301.247
301.242
301.237
301.231
301.226
301.22
301.214
301.209
301.203
301.198
301.192
301.187
301.182
301.176
301.171
301.266
301.262
301.258
301.255
301.25
301.246
301.242
301.237
301.232
301.227
301.221
301.215
301.209
301.204
301.198
301.192
301.187
301.181
301.175
301.17
301.165
301.16
298.689
298.698
298.707
298.715
298.721
298.724
298.722
298.714
298.698
298.674
298.639
298.591
298.53
298.468
298.436
298.443
298.51
298.616
298.736
298.843
298.926
298.908
298.704
298.4
298.139
297.947
297.816
297.729
297.676
297.648
297.642
297.657
297.698
297.782
297.942
298.927
298.88
298.825
298.767
298.705
298.64
298.577
298.518
298.472
298.449
298.458
298.547
298.762
299.118
299.588
300.074
300.491
300.809
301.023
301.128
301.098
300.91
300.398
299.46
298.328
297.381
296.73
296.308
296.036
295.87
295.785
295.764
295.797
295.901
296.115
301.447
301.406
301.347
301.266
301.158
301.015
300.831
300.595
300.301
299.955
299.579
299.223
298.922
298.673
298.48
298.366
298.307
298.254
298.166
298.01
297.778
297.621
297.719
298.016
298.465
299.019
299.673
300.191
300.593
300.905
301.161
301.386
301.593
301.791
302.059
300.819
300.802
300.78
300.754
300.722
300.684
300.638
300.583
300.521
300.453
300.382
300.302
300.238
300.225
300.297
300.441
300.609
300.759
300.87
300.955
300.996
301.003
300.981
300.945
300.921
300.927
301.002
301.157
301.338
301.515
301.683
301.841
302.008
302.188
302.344
301.396
301.379
301.358
301.332
301.301
301.263
301.217
301.165
301.103
301.027
300.931
300.829
300.729
300.644
300.585
300.547
300.523
300.51
300.505
300.507
300.514
300.526
300.545
300.564
300.572
300.568
300.554
300.53
300.5
300.472
300.444
300.421
300.404
300.394
300.395
301.214
301.21
301.204
301.197
301.189
301.179
301.168
301.155
301.14
301.123
301.106
301.088
301.072
301.056
301.044
301.043
301.053
301.079
301.118
301.167
301.221
301.277
301.328
301.363
301.37
301.335
301.245
301.123
301.02
300.943
300.89
300.848
300.811
300.778
300.743
301.284
301.278
301.27
301.261
301.25
301.237
301.222
301.205
301.185
301.163
301.138
301.111
301.081
301.051
301.025
301.006
300.996
300.995
300.999
301.008
301.018
301.023
301.016
300.99
300.937
300.865
300.852
300.908
300.999
301.11
301.229
301.351
301.466
301.578
301.678
301.28
301.277
301.275
301.272
301.268
301.264
301.259
301.254
301.248
301.242
301.235
301.228
301.221
301.216
301.213
301.213
301.217
301.226
301.239
301.256
301.278
301.303
301.328
301.352
301.372
301.387
301.397
301.404
301.411
301.418
301.427
301.436
301.452
301.474
301.492
301.292
301.289
301.285
301.281
301.277
301.272
301.266
301.26
301.253
301.245
301.237
301.228
301.219
301.21
301.202
301.198
301.196
301.196
301.199
301.203
301.208
301.212
301.213
301.212
301.209
301.204
301.196
301.188
301.18
301.171
301.162
301.153
301.145
301.135
301.123
301.321
301.319
301.317
301.315
301.313
301.31
301.307
301.304
301.301
301.297
301.294
301.291
301.288
301.286
301.284
301.284
301.285
301.286
301.287
301.289
301.291
301.293
301.295
301.297
301.299
301.302
301.305
301.309
301.313
301.318
301.324
301.33
301.336
301.344
301.353
301.327
301.325
301.323
301.321
301.318
301.316
301.312
301.309
301.305
301.301
301.297
301.292
301.287
301.282
301.277
301.273
301.269
301.266
301.263
301.261
301.258
301.255
301.252
301.248
301.244
301.24
301.235
301.23
301.225
301.22
301.215
301.209
301.204
301.199
301.191
301.343
301.342
301.341
301.339
301.337
301.335
301.333
301.33
301.328
301.325
301.321
301.318
301.314
301.311
301.307
301.304
301.301
301.298
301.295
301.292
301.289
301.286
301.283
301.282
301.281
301.28
301.28
301.281
301.283
301.285
301.288
301.291
301.294
301.299
301.305
301.343
301.342
301.34
301.339
301.337
301.335
301.332
301.33
301.327
301.323
301.32
301.316
301.311
301.307
301.302
301.296
301.291
301.287
301.282
301.277
301.273
301.268
301.264
301.26
301.256
301.252
301.249
301.245
301.242
301.239
301.236
301.233
301.23
301.227
301.224
301.346
301.345
301.343
301.342
301.34
301.338
301.336
301.334
301.331
301.328
301.325
301.321
301.317
301.313
301.308
301.304
301.299
301.294
301.29
301.285
301.281
301.276
301.273
301.27
301.268
301.266
301.265
301.265
301.265
301.266
301.267
301.268
301.27
301.272
301.276
301.341
301.34
301.339
301.337
301.335
301.334
301.331
301.329
301.326
301.323
301.32
301.316
301.311
301.306
301.301
301.295
301.289
301.284
301.278
301.273
301.268
301.263
301.258
301.253
301.25
301.246
301.243
301.24
301.238
301.235
301.233
301.231
301.229
301.226
301.223
301.335
301.334
301.333
301.332
301.33
301.329
301.326
301.324
301.321
301.318
301.315
301.311
301.307
301.302
301.296
301.291
301.285
301.279
301.274
301.269
301.264
301.259
301.254
301.25
301.248
301.245
301.244
301.243
301.242
301.242
301.242
301.242
301.243
301.244
301.245
301.326
301.325
301.324
301.323
301.321
301.319
301.317
301.315
301.312
301.309
301.305
301.301
301.297
301.291
301.286
301.28
301.273
301.267
301.261
301.256
301.25
301.244
301.239
301.234
301.231
301.227
301.224
301.222
301.219
301.217
301.215
301.212
301.21
301.208
301.205
301.316
301.315
301.314
301.313
301.311
301.309
301.307
301.305
301.302
301.299
301.295
301.291
301.286
301.281
301.275
301.269
301.263
301.257
301.251
301.245
301.239
301.234
301.229
301.225
301.221
301.218
301.216
301.214
301.213
301.212
301.211
301.211
301.21
301.21
301.21
301.304
301.303
301.302
301.301
301.299
301.297
301.295
301.292
301.29
301.286
301.283
301.278
301.274
301.268
301.262
301.256
301.249
301.243
301.237
301.231
301.225
301.219
301.213
301.208
301.204
301.201
301.198
301.195
301.193
301.191
301.189
301.188
301.186
301.184
301.182
301.292
301.291
301.289
301.288
301.286
301.284
301.282
301.279
301.276
301.273
301.269
301.265
301.26
301.255
301.249
301.242
301.236
301.229
301.223
301.217
301.211
301.205
301.199
301.195
301.191
301.188
301.185
301.183
301.181
301.179
301.178
301.177
301.176
301.175
301.173
301.278
301.277
301.275
301.274
301.272
301.27
301.268
301.265
301.262
301.259
301.255
301.251
301.246
301.24
301.234
301.228
301.221
301.215
301.208
301.202
301.196
301.189
301.184
301.179
301.175
301.171
301.168
301.166
301.163
301.161
301.159
301.158
301.156
301.154
301.152
301.264
301.263
301.261
301.26
301.258
301.256
301.254
301.251
301.248
301.245
301.241
301.236
301.231
301.226
301.219
301.213
301.206
301.2
301.193
301.187
301.18
301.174
301.168
301.163
301.159
301.156
301.153
301.15
301.148
301.146
301.144
301.143
301.141
301.14
301.138
301.249
301.248
301.247
301.245
301.243
301.241
301.239
301.236
301.233
301.23
301.226
301.222
301.216
301.211
301.204
301.198
301.191
301.184
301.178
301.171
301.165
301.159
301.153
301.148
301.143
301.14
301.136
301.134
301.131
301.129
301.127
301.125
301.124
301.122
301.119
301.235
301.234
301.232
301.231
301.229
301.227
301.225
301.222
301.219
301.215
301.211
301.207
301.202
301.196
301.19
301.183
301.176
301.169
301.163
301.156
301.15
301.143
301.137
301.132
301.128
301.124
301.121
301.118
301.115
301.113
301.111
301.109
301.108
301.106
301.103
301.221
301.219
301.218
301.216
301.215
301.213
301.21
301.207
301.204
301.201
301.197
301.192
301.187
301.181
301.175
301.168
301.161
301.154
301.148
301.141
301.135
301.128
301.122
301.116
301.112
301.108
301.105
301.102
301.099
301.097
301.095
301.093
301.091
301.089
301.086
301.207
301.205
301.204
301.202
301.201
301.199
301.196
301.193
301.19
301.187
301.183
301.178
301.173
301.167
301.161
301.154
301.147
301.14
301.133
301.126
301.12
301.113
301.107
301.101
301.097
301.093
301.089
301.086
301.084
301.081
301.079
301.077
301.075
301.073
301.07
301.193
301.192
301.191
301.189
301.187
301.185
301.183
301.18
301.177
301.173
301.169
301.165
301.159
301.153
301.147
301.14
301.133
301.126
301.119
301.112
301.105
301.099
301.092
301.087
301.082
301.078
301.074
301.071
301.069
301.066
301.064
301.062
301.06
301.058
301.055
301.18
301.179
301.178
301.176
301.174
301.172
301.17
301.167
301.164
301.16
301.156
301.151
301.146
301.14
301.134
301.127
301.12
301.113
301.106
301.099
301.092
301.085
301.078
301.072
301.068
301.063
301.06
301.057
301.054
301.051
301.049
301.047
301.045
301.043
301.039
301.168
301.167
301.165
301.164
301.162
301.16
301.157
301.155
301.151
301.148
301.144
301.139
301.134
301.128
301.121
301.114
301.107
301.1
301.093
301.086
301.078
301.071
301.065
301.059
301.054
301.05
301.046
301.043
301.04
301.037
301.035
301.033
301.03
301.028
301.025
301.156
301.155
301.154
301.152
301.15
301.148
301.146
301.143
301.14
301.136
301.132
301.127
301.122
301.116
301.109
301.102
301.095
301.088
301.08
301.073
301.066
301.059
301.052
301.046
301.041
301.036
301.032
301.029
301.026
301.023
301.021
301.019
301.017
301.014
301.011
301.034
301.036
301.038
301.04
301.042
301.044
301.046
301.049
301.051
301.054
301.058
301.062
301.067
301.073
301.079
301.085
301.091
301.097
301.103
301.109
301.115
301.121
301.126
301.13
301.134
301.137
301.14
301.143
301.145
301.147
301.149
301.15
301.152
301.153
301.154
301.016
301.019
301.022
301.024
301.025
301.028
301.03
301.032
301.035
301.038
301.042
301.047
301.052
301.058
301.064
301.07
301.077
301.083
301.089
301.096
301.102
301.107
301.113
301.117
301.121
301.124
301.127
301.13
301.132
301.134
301.136
301.137
301.139
301.14
301.141
301
301.004
301.006
301.008
301.01
301.012
301.014
301.017
301.02
301.024
301.027
301.032
301.037
301.044
301.05
301.057
301.064
301.07
301.077
301.083
301.09
301.096
301.101
301.106
301.109
301.113
301.116
301.118
301.121
301.123
301.124
301.126
301.127
301.128
301.129
300.985
300.989
300.991
300.993
300.995
300.998
301
301.003
301.006