/*--------------------------------*- C++ -*----------------------------------*\
  =========                 |
  \\      /  F ield         | OpenFOAM: The Open Source CFD Toolbox
   \\    /   O peration     | Website:  https://openfoam.org
    \\  /    A nd           | Version:  8
     \\/     M anipulation  |
\*---------------------------------------------------------------------------*/
FoamFile
{
    version     2.0;
    format      ascii;
    class       volScalarField;
    location    "0.11";
    object      nut;
}
// * * * * * * * * * * * * * * * * * * * * * * * * * * * * * * * * * * * * * //

dimensions      [0 2 -1 0 0 0 0];

internalField   nonuniform List<scalar> 
15677
(
0.000168168
0.000652159
0.000148203
0.00151205
0.000443116
0.000141301
0.00267197
0.000878249
0.000381094
0.000142202
0.00391621
0.00152278
0.000687421
0.000354364
0.000145345
0.00501894
0.00236047
0.00114813
0.000586153
0.000340349
0.00015114
0.00583669
0.00332119
0.00178314
0.000948851
0.000529641
0.00033208
0.000156952
0.00633337
0.00430111
0.00257013
0.00146486
0.000821646
0.000492712
0.000327028
0.000162409
0.00656227
0.00518816
0.00345498
0.00213337
0.00125837
0.000737722
0.000467601
0.000324144
0.000167192
0.0066582
0.00589318
0.00435666
0.00292382
0.00184295
0.00111306
0.000677705
0.000450555
0.000322564
0.000171423
0.00670541
0.00633802
0.00518142
0.0037803
0.00255841
0.0016328
0.00100515
0.000634343
0.000438773
0.000322003
0.000174989
0.00671436
0.00655332
0.0058454
0.0046261
0.00336401
0.00228762
0.0014734
0.000924619
0.000602357
0.000430827
0.000321939
0.000178126
0.0067099
0.00666146
0.00629552
0.00537747
0.00419786
0.00304636
0.00207865
0.00134959
0.000862519
0.000578714
0.000425342
0.000322418
0.00018074
0.00670626
0.00669874
0.00652946
0.00596448
0.0049847
0.00385818
0.00279657
0.00191242
0.00125164
0.000814334
0.000560927
0.000421856
0.000323048
0.000183084
0.00670536
0.00670438
0.00664671
0.00635677
0.00565025
0.00465642
0.00358404
0.00259428
0.00177829
0.00117331
0.000776462
0.000547747
0.000419491
0.000323964
0.000185127
0.0067054
0.00670288
0.00668782
0.00656281
0.00614207
0.00536873
0.00438179
0.0033576
0.00242839
0.00166847
0.00110977
0.00074667
0.000537631
0.000418269
0.000324805
0.000186935
0.00670555
0.00670166
0.00669633
0.00665648
0.00644672
0.00593369
0.00512128
0.00414912
0.0031689
0.00229031
0.00157797
0.00105804
0.000722932
0.000530361
0.000417379
0.000325855
0.000188592
0.00670562
0.00670121
0.00669707
0.00668486
0.00660479
0.00632167
0.00573755
0.00490417
0.00395129
0.00300967
0.00217496
0.0015028
0.001016
0.000704444
0.000524623
0.000417256
0.000326785
0.000190001
0.00670564
0.00670113
0.00669667
0.00669163
0.00666367
0.00654115
0.00618824
0.00555704
0.00471462
0.00378169
0.00287497
0.00207792
0.00144045
0.000981909
0.00068953
0.000520757
0.000417177
0.000327864
0.000191429
0.00670563
0.00670115
0.00669638
0.00669271
0.00668226
0.00663447
0.00646776
0.00605793
0.00539386
0.00454875
0.00363631
0.00276044
0.00199644
0.00138887
0.000953993
0.000678166
0.000517626
0.000417695
0.000328838
0.00019254
0.00670561
0.00670119
0.00669624
0.00669267
0.00668725
0.00666908
0.00659798
0.00638935
0.00593488
0.00524702
0.00440425
0.00351133
0.00266333
0.00192823
0.00134621
0.0009317
0.000668991
0.00051589
0.000418093
0.000329903
0.000193866
0.00670559
0.00670121
0.00669617
0.00669257
0.00668817
0.00668077
0.00665138
0.00655607
0.00631092
0.00581975
0.0051164
0.00427832
0.00340445
0.00258129
0.00187141
0.00131144
0.000913703
0.000662416
0.000514417
0.000418999
0.00033093
0.000194747
0.00670559
0.00670123
0.00669613
0.00669254
0.00668814
0.00668421
0.00667166
0.00663031
0.00651124
0.00623305
0.0057146
0.00500049
0.0041696
0.00331343
0.00251265
0.00182472
0.00128329
0.000899846
0.000657167
0.000514109
0.000419704
0.000331959
0.000196061
0.00670558
0.00670123
0.0066961
0.00669254
0.00668799
0.00668504
0.00667849
0.00666139
0.00660605
0.00646502
0.0061601
0.00561909
0.00489937
0.00407624
0.00323697
0.00245587
0.00178686
0.00126119
0.000889164
0.00065404
0.000513758
0.000420869
0.000333099
0.000196775
0.00670558
0.00670123
0.00669609
0.00669254
0.00668788
0.00668517
0.00668042
0.00667331
0.0066484
0.0065806
0.00641931
0.00609198
0.00553472
0.00481143
0.00399738
0.00317343
0.00241007
0.00175732
0.00124443
0.000881675
0.000651571
0.000514467
0.000421775
0.000334006
0.00019809
0.00670559
0.00670122
0.00669608
0.00669253
0.00668781
0.00668515
0.00668079
0.00667745
0.00666573
0.00663542
0.00655394
0.00637575
0.00603036
0.00545978
0.00473692
0.00393205
0.00312276
0.00237432
0.00173483
0.00123214
0.000876507
0.000651069
0.000514915
0.000423189
0.000335444
0.000198777
0.00670559
0.00670122
0.00669608
0.00669251
0.00668778
0.0066851
0.00668075
0.00667872
0.00667213
0.00665962
0.0066204
0.00652845
0.00633535
0.00597442
0.00539719
0.00467559
0.00387979
0.00308236
0.00234718
0.00171935
0.00122495
0.000874301
0.000650725
0.000516434
0.000424123
0.000336201
5.33521e-05
0.0067056
0.00670121
0.00669609
0.0066925
0.00668776
0.00668506
0.00668067
0.00667901
0.00667421
0.00666953
0.00665079
0.00660733
0.00650422
0.0062993
0.00592916
0.00534396
0.004625
0.00383851
0.0030547
0.00233097
0.00171139
0.00122163
0.000873633
0.000652337
0.000517557
0.000426557
0.0002836
6.33112e-05
0.00670561
0.0067012
0.00669609
0.00669248
0.00668775
0.00668501
0.0066806
0.006679
0.00667474
0.00667323
0.00666363
0.00664553
0.00659327
0.0064828
0.00626833
0.00588713
0.00530312
0.00459169
0.00381515
0.00303878
0.00232205
0.00170813
0.00122109
0.000875458
0.000653978
0.000519659
0.000420074
0.000219472
7.06811e-05
0.00670561
0.00670119
0.00669609
0.00669246
0.00668775
0.00668497
0.00668056
0.00667891
0.00667479
0.00667441
0.00666862
0.0066628
0.00663702
0.00658374
0.00646625
0.00624173
0.00586421
0.00527905
0.0045695
0.00379835
0.00302964
0.00231919
0.0017095
0.00122483
0.000878558
0.000656348
0.000520895
0.000400208
0.000178036
7.61158e-05
0.00670562
0.00670118
0.0066961
0.00669244
0.00668775
0.00668494
0.00668053
0.00667882
0.00667473
0.00667463
0.00667036
0.00666999
0.00665719
0.00663603
0.00657436
0.00645135
0.00623322
0.00584763
0.00526103
0.0045554
0.00379099
0.00302923
0.00232386
0.00171699
0.00123142
0.000883282
0.000659697
0.000518788
0.000367444
0.000152554
8.05164e-05
0.00670562
0.00670117
0.00669611
0.00669243
0.00668775
0.0066849
0.00668051
0.00667874
0.00667467
0.00667457
0.00667083
0.00667264
0.00666595
0.00666127
0.00663
0.00657307
0.00645042
0.00622633
0.00583761
0.0052527
0.00455429
0.00379688
0.00304009
0.00233664
0.00172916
0.00124102
0.000889656
0.000662779
0.00051282
0.000336263
0.000134217
8.39059e-05
0.00670563
0.00670116
0.00669612
0.00669241
0.00668775
0.00668487
0.0066805
0.00667867
0.00667461
0.00667443
0.00667089
0.00667336
0.00666949
0.00667245
0.00665737
0.00663911
0.00657613
0.00645336
0.00622523
0.00584015
0.00526143
0.00456784
0.00381484
0.00306011
0.00235614
0.00174585
0.00125346
0.000897185
0.000665612
0.0005015
0.000306175
0.000121255
8.63114e-05
0.00670563
0.00670115
0.00669612
0.0066924
0.00668776
0.00668484
0.00668049
0.00667861
0.00667457
0.0066743
0.00667084
0.00667341
0.00667069
0.00667695
0.00667048
0.00667261
0.00664489
0.00658492
0.00646235
0.00623926
0.00585871
0.00528364
0.00459434
0.00384379
0.00308898
0.00238221
0.00176658
0.0012685
0.000905863
0.000666938
0.000486263
0.000280122
0.000112759
8.80912e-05
0.00670564
0.00670115
0.00669613
0.00669238
0.00668776
0.00668482
0.00668049
0.00667855
0.00667453
0.00667417
0.00667075
0.00667327
0.006671
0.0066784
0.00667629
0.00668823
0.00668026
0.00665767
0.00660273
0.00648504
0.00626702
0.00589099
0.00532006
0.00463358
0.00388375
0.0031265
0.0024143
0.00179128
0.00128587
0.0009153
0.00066719
0.000469458
0.000260358
0.000106987
8.94715e-05
0.00670114
0.00670565
0.00669614
0.00669237
0.00668777
0.00668479
0.00668049
0.0066785
0.0066745
0.00667407
0.00667067
0.00667307
0.00667102
0.0066787
0.0066785
0.00669524
0.0066974
0.0066958
0.00668172
0.00663215
0.0065207
0.00630875
0.00593845
0.00537071
0.00468586
0.00393437
0.00317223
0.00245241
0.00181953
0.0013054
0.000926443
0.000666294
0.000454592
0.000245168
0.000102939
9.05924e-05
0.00669614
0.00670115
0.00670567
0.00669236
0.00668778
0.00668477
0.00668049
0.00667846
0.00667447
0.00667398
0.0066706
0.00667289
0.00667093
0.0066786
0.00667924
0.006698
0.00670528
0.00671487
0.00672414
0.00671599
0.0066744
0.00657082
0.0063664
0.00600116
0.00543618
0.00475083
0.00399559
0.0032261
0.00249588
0.00185125
0.0013296
0.000939917
0.000664986
0.000441794
0.000233389
0.000100057
9.15422e-05
0.00669235
0.00669617
0.00670116
0.00670569
0.00668779
0.00668475
0.00668049
0.00667842
0.00667445
0.0066739
0.00667053
0.00667273
0.00667083
0.00667839
0.00667942
0.00669895
0.00670856
0.00672396
0.00674608
0.00676201
0.00676347
0.00673123
0.00663727
0.00644095
0.00608089
0.00551691
0.00482891
0.004067
0.00328733
0.00254473
0.00188993
0.00135849
0.000954116
0.000664068
0.000431341
0.000224074
9.79512e-05
9.2373e-05
0.00668779
0.00669237
0.00669623
0.00670118
0.00670571
0.00668473
0.00668049
0.00667838
0.00667444
0.00667383
0.00667047
0.00667258
0.00667072
0.00667815
0.0066794
0.0066992
0.00670983
0.00672802
0.00675701
0.00678667
0.00681355
0.00682569
0.00680485
0.00672095
0.00653357
0.00617737
0.00561318
0.00491919
0.00414813
0.003356
0.00260417
0.00193761
0.00138892
0.000969145
0.000663922
0.00042257
0.000216612
9.64172e-05
9.31199e-05
0.00668472
0.00668784
0.00669242
0.0066963
0.0067012
0.00670573
0.0066805
0.00667835
0.00667443
0.00667377
0.00667042
0.00667247
0.00667061
0.00667792
0.00667932
0.00669918
0.0067103
0.00672981
0.00676227
0.00679971
0.00684118
0.00687961
0.00690474
0.00689595
0.00682354
0.00664405
0.00629109
0.00572496
0.00502258
0.00423878
0.00343932
0.00267688
0.00198914
0.00142081
0.000984817
0.000664576
0.000415452
0.000210534
9.52672e-05
9.38007e-05
0.0066805
0.00668474
0.00668793
0.00669247
0.00669636
0.00670122
0.00670575
0.00667832
0.00667443
0.00667371
0.00667037
0.00667237
0.00667051
0.00667772
0.00667923
0.00669907
0.00671045
0.00673066
0.00676493
0.00680668
0.00685727
0.0069118
0.00696517
0.00700291
0.00700603
0.00694396
0.00677262
0.0064215
0.00585116
0.00513785
0.004349
0.00354123
0.00275515
0.00204369
0.00145394
0.00100136
0.000666419
0.000409624
0.000205505
9.44236e-05
9.44318e-05
0.00667829
0.00668056
0.00668481
0.00668803
0.00669252
0.00669642
0.00670124
0.00670577
0.00667443
0.00667365
0.00667034
0.00667228
0.00667041
0.00667756
0.00667914
0.00669893
0.00671048
0.00673113
0.00676646
0.00681065
0.00686666
0.00693137
0.00700269
0.00707103
0.00712446
0.00713858
0.00708402
0.00691789
0.00656714
0.00599031
0.00527918
0.00448436
0.00365065
0.00283808
0.00210083
0.001488
0.00101824
0.000669348
0.000404876
0.000201233
9.37771e-05
9.50169e-05
0.00667443
0.00667831
0.00668068
0.00668488
0.00668813
0.00669258
0.00669649
0.00670126
0.00670579
0.0066736
0.00667032
0.0066722
0.00667032
0.00667743
0.00667905
0.00669879
0.00671046
0.00673142
0.00676747
0.00681329
0.00687272
0.00694388
0.00702736
0.00711521
0.00720143
0.00726885
0.00729587
0.00724693
0.00707965
0.00672681
0.00615877
0.00544929
0.00463041
0.00376729
0.00292476
0.00215995
0.00152292
0.00103513
0.000672721
0.000401107
0.000197637
9.33096e-05
9.55665e-05
0.00667356
0.00667449
0.00667838
0.00668081
0.00668496
0.00668824
0.00669263
0.00669656
0.00670128
0.00670581
0.0066703
0.00667213
0.00667024
0.00667733
0.00667896
0.00669866
0.00671043
0.00673163
0.00676823
0.0068153
0.00687716
0.00695271
0.00704479
0.00714648
0.00725461
0.00735695
0.00743972
0.00747639
0.00743333
0.00726234
0.00691611
0.00635808
0.00562973
0.00478401
0.00388922
0.00301435
0.00222047
0.00155863
0.00105194
0.000676799
0.000398162
0.000194513
9.29448e-05
9.60785e-05
0.0066703
0.00667355
0.00667461
0.00667846
0.00668093
0.00668503
0.00668835
0.00669268
0.00669663
0.0067013
0.00670583
0.00667206
0.00667018
0.00667726
0.00667886
0.00669855
0.0067104
0.00673181
0.00676885
0.00681697
0.00688075
0.00695969
0.00705821
0.00717031
0.00729526
0.00742163
0.00754221
0.0076369
0.00768195
0.0076409
0.00748826
0.00714967
0.00656761
0.00581706
0.004942
0.00401414
0.00310595
0.00228187
0.00159472
0.00106877
0.000681357
0.00039579
0.000191846
9.26926e-05
9.65619e-05
0.006672
0.00667032
0.00667358
0.00667473
0.00667853
0.00668107
0.00668511
0.00668846
0.00669274
0.00669671
0.00670132
0.00670586
0.00667013
0.00667721
0.00667874
0.00669846
0.00671038
0.00673196
0.0067694
0.00681842
0.00688379
0.00696568
0.00706946
0.0071897
0.00732869
0.00747453
0.00762228
0.00775708
0.00786299
0.0079125
0.0078952
0.00776393
0.00740411
0.00678573
0.00600668
0.0051023
0.00414097
0.00319849
0.00234364
0.00163092
0.00108543
0.000686343
0.000394026
0.000189492
9.24924e-05
9.70115e-05
0.00667009
0.00667192
0.00667037
0.00667362
0.00667487
0.00667861
0.00668121
0.00668518
0.00668858
0.0066928
0.00669678
0.00670135
0.00670588
0.00667718
0.0066786
0.0066984
0.00671038
0.00673211
0.00676988
0.00681973
0.00688646
0.00697101
0.0070793
0.00720654
0.00735753
0.00752054
0.0076919
0.00785649
0.00800576
0.00811835
0.00819689
0.00820753
0.00806113
0.00767496
0.00701617
0.00619848
0.00526322
0.00426771
0.00329112
0.00240528
0.00166692
0.00110204
0.000691304
0.0003927
0.00018747
9.23682e-05
9.74372e-05
0.00667714
0.00666998
0.00667183
0.00667044
0.00667366
0.00667502
0.00667868
0.00668136
0.00668526
0.0066887
0.00669286
0.00669686
0.00670137
0.0067059
0.00667844
0.00669839
0.0067104
0.00673226
0.00677031
0.0068209
0.00688884
0.00697584
0.0070881
0.00722176
0.00738351
0.0075615
0.00775553
0.00794778
0.00813062
0.00828887
0.00843602
0.00854934
0.00854727
0.0083767
0.00795614
0.00725487
0.00639023
0.00542151
0.00439307
0.00338285
0.00246632
0.0017025
0.00111863
0.000696227
0.000391738
0.000185655
9.22675e-05
9.78314e-05
0.00667828
0.00667694
0.00666976
0.00667173
0.00667053
0.00667369
0.00667518
0.00667876
0.00668152
0.00668534
0.00668882
0.00669292
0.00669693
0.0067014
0.00670592
0.00669845
0.00671043
0.0067324
0.00677069
0.00682195
0.00689099
0.00698025
0.00709605
0.00723577
0.00740736
0.00759898
0.00781437
0.00803503
0.00825079
0.00844535
0.00864481
0.00883452
0.00893699
0.00891132
0.00870744
0.00824497
0.00749879
0.00658565
0.0055769
0.00451603
0.00347317
0.00252638
0.00173749
0.00113496
0.000701106
0.000391039
0.000184091
9.22212e-05
9.82056e-05
0.00669857
0.00667757
0.00667659
0.00666957
0.00667163
0.00667064
0.00667372
0.00667536
0.00667884
0.00668168
0.00668543
0.00668894
0.00669299
0.00669701
0.00670143
0.00670594
0.00671045
0.00673251
0.00677102
0.0068229
0.00689293
0.00698427
0.00710328
0.00724874
0.00742932
0.00763387
0.00786994
0.00811781
0.00836907
0.00860213
0.0088468
0.00909831
0.00927908
0.00935787
0.00929731
0.00905071
0.00853909
0.00774313
0.00678196
0.00572934
0.00463623
0.00356137
0.00258511
0.00177171
0.001151
0.000705916
0.000390562
0.000182664
9.21815e-05
9.85502e-05
0.00671045
0.0066981
0.00667626
0.0066762
0.00666944
0.0066715
0.00667078
0.00667374
0.00667555
0.00667892
0.00668185
0.00668552
0.00668907
0.00669306
0.00669708
0.00670145
0.00670595
0.0067326
0.0067713
0.00682376
0.00689471
0.00698794
0.00710986
0.00726076
0.00744952
0.00766663
0.00792278
0.00819653
0.00848322
0.00876262
0.00905924
0.00936731
0.00961302
0.00977087
0.00981248
0.00970449
0.00940481
0.00883649
0.00798637
0.00697699
0.00587742
0.00475221
0.00364686
0.00264222
0.00180501
0.00116666
0.000710642
0.000390247
0.000181433
9.2183e-05
9.88782e-05
0.00673269
0.00670942
0.00669699
0.00667525
0.00667572
0.00666939
0.00667135
0.00667096
0.00667376
0.00667574
0.00667901
0.00668201
0.00668562
0.00668919
0.00669313
0.00669714
0.00670148
0.00670597
0.00677152
0.00682453
0.00689633
0.00699129
0.00711589
0.00727184
0.00746811
0.00769749
0.00797274
0.00827131
0.00859433
0.00892415
0.00928433
0.00966097
0.0099714
0.0101995
0.0103189
0.0103058
0.0101342
0.00976913
0.00913582
0.00822731
0.00716949
0.00602285
0.00486364
0.00372931
0.00269748
0.00183729
0.00118189
0.000715262
0.000390066
0.000180292
9.21808e-05
9.91786e-05
0.00677173
0.00673106
0.00670722
0.00669538
0.00667458
0.00667511
0.00666944
0.00667116
0.00667116
0.00667378
0.00667595
0.0066791
0.00668218
0.00668572
0.0066893
0.0066932
0.00669721
0.00670151
0.00670598
0.00682524
0.00689782
0.00699434
0.0071214
0.00728203
0.00748521
0.00772649
0.00801955
0.00834246
0.00870353
0.00908627
0.00951141
0.00998029
0.010387
0.0106962
0.0108875
0.0109408
0.0108458
0.0105891
0.0101437
0.00943616
0.00846505
0.0073574
0.0061654
0.00497063
0.00380851
0.00275071
0.00186845
0.00119663
0.00071976
0.000389987
0.00017931
9.2211e-05
9.94651e-05
0.00682594
0.00676897
0.00672757
0.00670504
0.00669346
0.00667426
0.00667436
0.00666959
0.00667096
0.00667139
0.00667381
0.00667615
0.0066792
0.00668234
0.00668582
0.00668941
0.00669327
0.00669727
0.00670154
0.006706
0.00689919
0.00699712
0.00712645
0.00729136
0.00750094
0.00775358
0.00806314
0.00841039
0.00881067
0.00924627
0.00973543
0.0103197
0.0108854
0.0113314
0.0116061
0.0117115
0.0116519
0.0114381
0.0110704
0.0105281
0.00973676
0.00869884
0.00753987
0.00630413
0.00507319
0.00388434
0.00280181
0.00189842
0.00121084
0.000724121
0.000389999
0.000178388
9.22324e-05
9.96942e-05
0.00690048
0.00682249
0.006763
0.00672421
0.00670289
0.00669114
0.00667427
0.00667349
0.0066698
0.00667075
0.00667162
0.00667385
0.00667635
0.00667932
0.0066825
0.00668592
0.00668951
0.00669334
0.00669733
0.00670157
0.00670601
0.00699963
0.00713104
0.00729988
0.00751541
0.00777873
0.00810361
0.00847535
0.00891443
0.00940095
0.00995798
0.0106946
0.0114832
0.0121603
0.0125775
0.0127311
0.0126775
0.0124506
0.01208
0.0115759
0.010921
0.0100367
0.00892805
0.0077166
0.00643842
0.00517132
0.00395673
0.00285069
0.00192715
0.0012245
0.000728333
0.000390033
0.000177608
9.22714e-05
9.98865e-05
0.00700196
0.0068956
0.00681447
0.00675708
0.00672106
0.00670108
0.00668836
0.00667452
0.00667258
0.00667005
0.00667057
0.00667184
0.00667392
0.00667654
0.00667944
0.00668264
0.00668603
0.00668961
0.00669341
0.00669738
0.0067016
0.00670602
0.00713522
0.00730763
0.00752869
0.00780196
0.00814116
0.0085372
0.00901322
0.00954924
0.0101863
0.0111216
0.012189
0.013155
0.0138147
0.0140768
0.0140183
0.0137459
0.0133124
0.0127583
0.0120994
0.0113195
0.0103348
0.00915208
0.00788735
0.00656785
0.00526501
0.00402568
0.00289733
0.00195463
0.00123759
0.0007324
0.000390102
0.000176968
9.22996e-05
0.000100094
0.00713906
0.00699533
0.00688383
0.0068065
0.00675144
0.00671808
0.00669983
0.00668537
0.0066749
0.00667168
0.00667029
0.00667043
0.00667205
0.00667401
0.00667671
0.00667957
0.00668277
0.00668613
0.0066897
0.00669348
0.00669743
0.00670163
0.00670603
0.00731465
0.00754082
0.00782328
0.00817597
0.00859559
0.00910603
0.00969234
0.0104276
0.0116013
0.012972
0.0142321
0.0151553
0.0156379
0.0156637
0.0153561
0.0148477
0.0141979
0.0134523
0.0126309
0.0117194
0.0106293
0.00937034
0.00805193
0.00669215
0.00535432
0.00409126
0.00294171
0.00198083
0.0012501
0.000736328
0.000390177
0.000176454
9.23439e-05
0.000100319
0.00732102
0.00713011
0.00697852
0.00687206
0.00679872
0.00674603
0.00671525
0.00669881
0.00668239
0.00667525
0.00667089
0.00667047
0.00667036
0.00667222
0.00667413
0.00667687
0.0066797
0.0066829
0.00668624
0.00668979
0.00669354
0.00669748
0.00670166
0.00670604
0.00755188
0.00784277
0.00820815
0.00865016
0.0091927
0.00983237
0.0106838
0.0121157
0.0137737
0.0152843
0.0164294
0.0171337
0.0173772
0.0171687
0.0166342
0.0159135
0.0150657
0.0141392
0.0131591
0.0121157
0.0109186
0.00958222
0.00821019
0.00681118
0.00543922
0.00415336
0.00298383
0.00200575
0.00126202
0.00073959
0.000390261
0.000175906
9.23881e-05
0.000100562
0.00756187
0.00730944
0.00710642
0.00696167
0.00686058
0.00679108
0.00674082
0.0067126
0.00669787
0.00667959
0.00667544
0.00667027
0.00667056
0.00667037
0.00667235
0.00667427
0.00667701
0.00667984
0.00668301
0.00668634
0.00668988
0.00669361
0.00669753
0.00670167
0.00670604
0.00786054
0.00823778
0.0087007
0.00927368
0.00997082
0.0109506
0.0126379
0.0145365
0.0162274
0.0175238
0.0183946
0.0188469
0.0188781
0.0184872
0.0177799
0.016893
0.0158827
0.0147991
0.0136734
0.0125033
0.0112007
0.00978712
0.00836201
0.00692489
0.00552011
0.00421196
0.00302371
0.00202942
0.00127186
0.000742397
0.000390359
0.000175338
9.24537e-05
0.000100828
0.00787645
0.00754681
0.00727668
0.00708267
0.00694521
0.00684935
0.00678351
0.00673594
0.00671006
0.00669691
0.00667724
0.00667535
0.00666989
0.00667056
0.00667044
0.00667246
0.00667442
0.00667714
0.00667997
0.00668313
0.00668645
0.00668996
0.00669368
0.00669756
0.00670167
0.00670604
0.00826498
0.0087472
0.00934967
0.0101078
0.0112199
0.0131422
0.0152218
0.0170196
0.0183945
0.0193629
0.0199641
0.0202122
0.0200914
0.0195811
0.0187608
0.0177591
0.0166277
0.0154172
0.0141647
0.0128777
0.0114738
0.0099845
0.00850731
0.00703311
0.00559734
0.00426725
0.00306141
0.00204888
0.00128025
0.000745487
0.000390496
0.000174737
9.25179e-05
0.000101116
0.00828933
0.0078576
0.00750189
0.0072438
0.00705944
0.00692911
0.00683833
0.00677597
0.0067314
0.00670751
0.00669575
0.00667577
0.00667491
0.00666973
0.00667048
0.00667057
0.00667255
0.00667458
0.00667727
0.00668011
0.00668324
0.00668655
0.00669004
0.00669371
0.00669756
0.00670167
0.00670604
0.00878985
0.00942129
0.0102422
0.0114829
0.0136102
0.0158119
0.0176539
0.0190466
0.0200507
0.0207353
0.0211344
0.0212432
0.021029
0.0204545
0.0195734
0.0185036
0.0172909
0.0159844
0.0146267
0.0132353
0.0117362
0.0101739
0.00864601
0.00713579
0.00567085
0.00431938
0.00309229
0.00206542
0.00128948
0.00074893
0.000390655
0.00017411
9.26103e-05
0.00010143
0.00882779
0.00826561
0.00779679
0.00745681
0.00721158
0.00703674
0.00691337
0.00682753
0.0067685
0.00672703
0.00670489
0.00669367
0.00667504
0.00667419
0.00666974
0.00667036
0.00667072
0.00667263
0.00667474
0.00667739
0.00668024
0.00668334
0.00668665
0.00669008
0.00669371
0.00669756
0.00670167
0.00670604
0.00948896
0.0103722
0.0117321
0.0140323
0.016305
0.0181438
0.0195099
0.0205017
0.021214
0.0216989
0.0219656
0.0219903
0.0217284
0.0211313
0.02023
0.0191302
0.0178705
0.0164969
0.0150554
0.0135735
0.0119869
0.0103548
0.00877809
0.00723309
0.00574065
0.00436203
0.00311846
0.00208354
0.00129963
0.000752722
0.000390867
0.000173449
9.27015e-05
0.00010177
0.0095505
0.00879852
0.00818338
0.00773571
0.00741258
0.00718004
0.00701455
0.00689798
0.006817
0.00676117
0.00672281
0.00670234
0.00669098
0.00667488
0.00667334
0.00666985
0.00667023
0.00667088
0.00667272
0.00667489
0.00667751
0.00668037
0.00668345
0.0066867
0.00669008
0.00669371
0.00669756
0.00670167
0.00670604
0.0104961
0.0119657
0.0144054
0.0167085
0.0185114
0.0198213
0.0207675
0.021465
0.0219821
0.0223412
0.0225292
0.02251
0.0222326
0.021642
0.0207499
0.0196493
0.0183704
0.0169544
0.0154491
0.0138905
0.0122248
0.0105271
0.00890359
0.00732516
0.00579804
0.00439813
0.00314707
0.00210344
0.00131082
0.000756973
0.000391111
0.000172761
9.28305e-05
0.000102141
0.0106075
0.00951381
0.00868689
0.00810095
0.00767566
0.00736925
0.00714918
0.00699287
0.006883
0.00680683
0.00675391
0.00671895
0.00670008
0.00668776
0.00667502
0.00667247
0.00666999
0.00667012
0.00667104
0.0066728
0.00667505
0.00667762
0.0066805
0.0066835
0.0066867
0.00669008
0.00669371
0.00669756
0.00670167
0.00670603
0.0121849
0.014729
0.017034
0.0187801
0.020016
0.020895
0.0215479
0.0220565
0.0224555
0.0227423
0.0228888
0.0228525
0.0225812
0.0220168
0.0211544
0.020074
0.0187971
0.0173592
0.0158077
0.0141856
0.0124494
0.0106906
0.00902254
0.00740066
0.00584678
0.00443759
0.00317838
0.00212529
0.00132318
0.000761648
0.000391426
0.000172039
9.29596e-05
0.00010254
0.010566
0.0123797
0.0093515
0.00857664
0.00801971
0.00761678
0.0073268
0.00711903
0.00697175
0.00686848
0.00679722
0.00674703
0.00671537
0.00669862
0.00668455
0.00667526
0.00667169
0.00667012
0.00667005
0.00667119
0.0066729
0.00667519
0.00667774
0.00668057
0.00668349
0.0066867
0.00669008
0.00669371
0.00669756
0.00670166
0.00670602
0.0150043
0.017294
0.0189715
0.0201238
0.0209231
0.0215118
0.0219823
0.0223807
0.0227151
0.0229653
0.0230946
0.023059
0.0228082
0.0222827
0.0214634
0.0204179
0.0191588
0.017715
0.0161322
0.0144587
0.0126606
0.0108451
0.00912019
0.00746471
0.00590021
0.00448074
0.00321266
0.00214931
0.00133682
0.000766882
0.000391787
0.000171289
9.31396e-05
0.000102977
0.0103178
0.0123404
0.0152287
0.0091957
0.00846839
0.00793985
0.00755904
0.00728527
0.00708962
0.00695123
0.00685449
0.00678798
0.00674055
0.00671211
0.00669747
0.0066816
0.00667541
0.00667105
0.00667021
0.00667001
0.00667132
0.006673
0.00667533
0.00667779
0.00668057
0.00668349
0.0066867
0.00669008
0.00669371
0.00669753
0.00670163
0.00670601
0.0175004
0.0191036
0.0201687
0.0208821
0.0213944
0.0218062
0.0221736
0.0225154
0.0228204
0.0230568
0.0231846
0.0231617
0.0229409
0.0224624
0.0216947
0.0206938
0.0194637
0.0180262
0.0164246
0.0147103
0.0128582
0.0109716
0.00920306
0.00753482
0.00595882
0.00452799
0.00325024
0.00217575
0.00135193
0.000772745
0.000392248
0.000170506
9.33226e-05
0.000103444
0.010074
0.0119868
0.0151624
0.0176539
0.00904735
0.00836166
0.0078615
0.00750249
0.00724472
0.007061
0.00693137
0.00684102
0.00677908
0.00673453
0.00670925
0.00669641
0.00667912
0.00667539
0.00667059
0.00667024
0.00667002
0.00667144
0.00667311
0.00667541
0.00667779
0.00668057
0.00668349
0.0066867
0.00669008
0.00669368
0.00669748
0.0067016
0.00670599
0.0191909
0.0201691
0.0207946
0.0212239
0.0215635
0.0218773
0.0221949
0.0225152
0.0228132
0.0230504
0.0231871
0.0231853
0.0230014
0.022575
0.0218638
0.0209134
0.0197196
0.0182977
0.0166871
0.0149412
0.0130181
0.0110787
0.00929379
0.00761163
0.00602318
0.00457979
0.00329148
0.00220488
0.00136865
0.000779288
0.000392773
0.000169696
9.35746e-05
0.000103955
0.0098455
0.011604
0.0148082
0.0175548
0.0192359
0.008904
0.00825637
0.00778475
0.0074472
0.00720523
0.00703324
0.00691219
0.0068281
0.00677066
0.0067292
0.00670663
0.00669532
0.00667735
0.00667513
0.0066703
0.00667022
0.00667007
0.00667155
0.00667317
0.00667541
0.00667778
0.00668057
0.00668349
0.0066867
0.00669004
0.00669361
0.00669743
0.00670157
0.00670598
0.0201388
0.0206775
0.021021
0.0212801
0.0215245
0.021793
0.0220961
0.0224176
0.0227225
0.0229698
0.023123
0.0231491
0.0230069
0.0226356
0.0219833
0.0210864
0.0199338
0.018534
0.0169222
0.0151245
0.0131525
0.0111955
0.00939315
0.00769585
0.0060939
0.00463664
0.00333677
0.00223701
0.00138723
0.000786575
0.000393431
0.000168857
9.38358e-05
0.000104495
0.00963154
0.0112268
0.0143671
0.0173247
0.0190843
0.0200777
0.00876391
0.00815279
0.00770975
0.00739328
0.00716689
0.00700641
0.00689382
0.00681602
0.00676287
0.00672461
0.00670412
0.00669378
0.00667632
0.00667466
0.00667015
0.00667016
0.00667015
0.00667159
0.00667316
0.00667541
0.00667778
0.00668057
0.0066835
0.00668665
0.00668996
0.00669354
0.00669738
0.00670154
0.00670597
0.0205429
0.0208009
0.020975
0.0211393
0.02134
0.0215988
0.0219109
0.0222477
0.022568
0.022832
0.0230082
0.0230677
0.0229712
0.0226564
0.0220636
0.0212214
0.0201127
0.0187395
0.0171043
0.0152767
0.0132979
0.0113229
0.00950201
0.00778827
0.00617168
0.0046991
0.00338659
0.0022725
0.00140785
0.000794779
0.000394186
0.000167991
9.41907e-05
0.000105087
0.00942912
0.0108683
0.0138793
0.0170082
0.0189276
0.0198715
0.0203861
0.00862651
0.00805125
0.00763665
0.00734087
0.00712981
0.00698071
0.00687672
0.00680495
0.00675556
0.00672052
0.00670177
0.00669165
0.00667584
0.00667405
0.00667012
0.00667009
0.00667022
0.00667157
0.00667316
0.00667541
0.00667779
0.00668057
0.00668345
0.00668655
0.00668988
0.00669347
0.00669732
0.00670151
0.00670595
0.0205741
0.0206622
0.0207398
0.020859
0.0210517
0.0213254
0.0216617
0.0220221
0.0223632
0.0226494
0.0228546
0.0229529
0.022905
0.0226473
0.0221133
0.0213256
0.0202618
0.0188938
0.0172534
0.015439
0.0134549
0.0114619
0.0096213
0.00788977
0.00625732
0.00476783
0.00344145
0.00231173
0.00143083
0.000803942
0.000395116
0.000167085
9.4566e-05
0.000105705
0.00923581
0.0105326
0.0133662
0.0166301
0.0187008
0.0197483
0.0201252
0.0203304
0.00849189
0.00795205
0.00756566
0.00729013
0.00709432
0.00695682
0.00686113
0.00679485
0.0067488
0.00671691
0.00669975
0.00668907
0.00667569
0.00667338
0.00667016
0.00666999
0.00667025
0.00667156
0.00667316
0.00667541
0.00667779
0.0066805
0.00668334
0.00668644
0.00668979
0.0066934
0.00669727
0.00670148
0.00670594
0.0203513
0.0203396
0.0203681
0.0204777
0.020688
0.0209935
0.0213629
0.0217515
0.0221175
0.0224313
0.0226718
0.0228137
0.0228168
0.0226159
0.0221393
0.0214049
0.0203684
0.019018
0.0174096
0.0156114
0.0136241
0.0116131
0.00975202
0.00800132
0.00635169
0.00484357
0.00350195
0.00235518
0.0014564
0.000814294
0.000396192
0.000166126
9.50646e-05
0.000106499
0.00904997
0.0102211
0.0128386
0.0162023
0.0184304
0.0195681
0.020005
0.0200144
0.0200262
0.00836036
0.00785559
0.00749698
0.00724155
0.00706136
0.00693507
0.00684693
0.00678574
0.00674259
0.00671379
0.00669841
0.00668641
0.00667572
0.00667271
0.0066703
0.00666988
0.00667027
0.00667156
0.00667316
0.00667541
0.00667774
0.00668037
0.00668324
0.00668634
0.0066897
0.00669333
0.00669721
0.00670145
0.00670592
0.019948
0.019881
0.0198953
0.0200218
0.0202691
0.0206164
0.0210233
0.0214426
0.0218374
0.0221851
0.0224673
0.0226575
0.0227132
0.0225682
0.022147
0.0214546
0.0204524
0.0191453
0.0175724
0.0157939
0.013806
0.0117777
0.00989521
0.00812399
0.00645576
0.00492712
0.00356874
0.00240336
0.001485
0.000825895
0.000397502
0.000165141
9.57108e-05
0.000107436
0.00887089
0.00993347
0.0123049
0.0157258
0.0181286
0.0193596
0.0198362
0.0198778
0.019654
0.0195485
0.00823219
0.00776229
0.00743126
0.00719645
0.00703138
0.00691529
0.00683404
0.00677759
0.00673699
0.00671097
0.0066973
0.00668392
0.00667583
0.00667216
0.00667044
0.00666983
0.00667027
0.00667157
0.00667317
0.00667533
0.00667762
0.00668024
0.00668312
0.00668623
0.00668961
0.00669327
0.00669714
0.00670143
0.0067059
0.0194073
0.0193193
0.0193463
0.0195119
0.0198074
0.0202018
0.0206475
0.0210991
0.021528
0.021917
0.0222476
0.0224901
0.0225994
0.022509
0.0221397
0.0214915
0.0205352
0.0192748
0.0177412
0.0159863
0.0140008
0.0119563
0.010052
0.00825891
0.00657064
0.0050195
0.00364269
0.00245688
0.00151692
0.000839047
0.00039904
0.000163924