/*--------------------------------*- C++ -*----------------------------------*\
  =========                 |
  \\      /  F ield         | OpenFOAM: The Open Source CFD Toolbox
   \\    /   O peration     | Website:  https://openfoam.org
    \\  /    A nd           | Version:  8
     \\/     M anipulation  |
\*---------------------------------------------------------------------------*/
FoamFile
{
    version     2.0;
    format      ascii;
    class       volVectorField;
    location    "0.11";
    object      U;
}
// * * * * * * * * * * * * * * * * * * * * * * * * * * * * * * * * * * * * * //

dimensions      [0 1 -1 0 0 0 0];

internalField   nonuniform List<vector> 
15677
(
(-0.0399021 9.66594 0)
(0.048497 9.92198 0)
(-0.00181213 9.37823 0)
(0.0206554 9.97701 0)
(0.0198958 9.78861 0)
(0.0073165 9.14111 0)
(0.0258427 9.99515 0)
(0.0165443 9.92463 0)
(0.0111857 9.65385 0)
(0.00649688 8.9604 0)
(0.0263358 10.0025 0)
(0.0205619 9.97867 0)
(0.0165625 9.85192 0)
(0.00913544 9.53056 0)
(0.00516779 8.81656 0)
(0.0255766 10.0057 0)
(0.0215974 10.0029 0)
(0.0194235 9.9414 0)
(0.0153843 9.77927 0)
(0.00799645 9.41939 0)
(0.0042525 8.70163 0)
(0.0245163 10.0071 0)
(0.0218822 10.0146 0)
(0.0210257 9.98468 0)
(0.0182812 9.90221 0)
(0.0138847 9.70768 0)
(0.00694897 9.32085 0)
(0.00356195 8.60905 0)
(0.0231047 10.0075 0)
(0.0217633 10.0205 0)
(0.0218993 10.0068 0)
(0.0202378 9.96475 0)
(0.0170061 9.86152 0)
(0.0124867 9.64014 0)
(0.00600292 9.23531 0)
(0.00298291 8.5345 0)
(0.0214173 10.0074 0)
(0.0212173 10.0233 0)
(0.0221916 10.0183 0)
(0.021339 9.99787 0)
(0.0191139 9.94331 0)
(0.0156742 9.82161 0)
(0.0111436 9.57858 0)
(0.0051254 9.16252 0)
(0.00245248 8.47526 0)
(0.0195247 10.007 0)
(0.0203615 10.0235 0)
(0.0221613 10.024 0)
(0.0218451 10.016 0)
(0.0202951 9.98775 0)
(0.0178102 9.92209 0)
(0.0142386 9.78433 0)
(0.00977696 9.52416 0)
(0.00426557 9.1022 0)
(0.00193322 8.42983 0)
(0.0175113 10.0063 0)
(0.019312 10.0223 0)
(0.0217274 10.027 0)
(0.0218803 10.0259 0)
(0.0208459 10.0127 0)
(0.018978 9.9779 0)
(0.0163045 9.90258 0)
(0.0126546 9.75088 0)
(0.00833009 9.47782 0)
(0.00337926 9.05416 0)
(0.00139668 8.39718 0)
(0.0154118 10.0056 0)
(0.0180103 10.0206 0)
(0.02101 10.028 0)
(0.0215531 10.0313 0)
(0.020902 10.0269 0)
(0.0194654 10.0097 0)
(0.0173563 9.96959 0)
(0.0145424 9.88572 0)
(0.0108689 9.7224 0)
(0.00675466 9.44032 0)
(0.002426 9.01827 0)
(0.000820397 8.37699 0)
(0.0132755 10.0048 0)
(0.0165342 10.0185 0)
(0.0199485 10.0273 0)
(0.0208967 10.0338 0)
(0.0205462 10.035 0)
(0.0194206 10.0282 0)
(0.0176731 10.0082 0)
(0.0153709 9.96359 0)
(0.0124551 9.87248 0)
(0.00882314 9.69992 0)
(0.00500145 9.41236 0)
(0.00137311 8.99455 0)
(0.000176653 8.36898 0)
(0.0111778 10.0041 0)
(0.0149471 10.0162 0)
(0.0186117 10.0257 0)
(0.0199331 10.0343 0)
(0.0198408 10.0392 0)
(0.0189314 10.039 0)
(0.0174084 10.0309 0)
(0.015404 10.0089 0)
(0.0129392 9.96077 0)
(0.00996737 9.86383 0)
(0.00645609 9.68447 0)
(0.00302602 9.39455 0)
(0.000193532 8.98312 0)
(-0.000476273 8.37312 0)
(0.00927944 10.0034 0)
(0.0132548 10.014 0)
(0.0170397 10.0234 0)
(0.0186624 10.0332 0)
(0.0188009 10.0408 0)
(0.0180484 10.045 0)
(0.0166534 10.0443 0)
(0.0147932 10.0357 0)
(0.0125583 10.0125 0)
(0.00996575 9.96198 0)
(0.0069998 9.86073 0)
(0.00371077 9.67695 0)
(0.000789778 9.38747 0)
(-0.00111519 8.98422 0)
(-0.00123338 8.38943 0)
(0.00773804 10.0029 0)
(0.0117081 10.0119 0)
(0.0152698 10.0208 0)
(0.0170989 10.0312 0)
(0.0174271 10.0405 0)
(0.0167907 10.0477 0)
(0.015454 10.052 0)
(0.0136309 10.0517 0)
(0.0114575 10.0433 0)
(0.00901975 10.02 0)
(0.00634957 9.96808 0)
(0.00347587 9.86412 0)
(0.000532546 9.6783 0)
(-0.00175433 9.3917 0)
(-0.0026061 8.99798 0)
(-0.00208151 8.41814 0)
(0.00642553 10.0024 0)
(0.0103213 10.0102 0)
(0.013551 10.0183 0)
(0.0152722 10.0284 0)
(0.0157237 10.0388 0)
(0.0151625 10.0482 0)
(0.0138288 10.0559 0)
(0.0119609 10.0611 0)
(0.00972766 10.0618 0)
(0.00726217 10.0546 0)
(0.00466334 10.032 0)
(0.00199135 9.97996 0)
(-0.000674623 9.87496 0)
(-0.00312583 9.6893 0)
(-0.00462362 9.40771 0)
(-0.00427518 9.02459 0)
(-0.00301896 8.45927 0)
(0.00532275 10.002 0)
(0.00907362 10.0087 0)
(0.011987 10.0162 0)
(0.0134241 10.0255 0)
(0.0137073 10.0361 0)
(0.0131645 10.0469 0)
(0.0117816 10.0571 0)
(0.00979815 10.066 0)
(0.00740848 10.0727 0)
(0.0047788 10.0754 0)
(0.00205634 10.0702 0)
(-0.000635615 10.0494 0)
(-0.00320434 9.99848 0)
(-0.00552125 9.89408 0)
(-0.00730448 9.7107 0)
(-0.00784293 9.43589 0)
(-0.00612564 9.06408 0)
(-0.00404085 8.51279 0)
(0.00440224 10.0016 0)
(0.00794848 10.0074 0)
(0.0105438 10.0142 0)
(0.011711 10.0229 0)
(0.011635 10.033 0)
(0.0108056 10.0443 0)
(0.00931264 10.0563 0)
(0.007144 10.0679 0)
(0.00450996 10.0787 0)
(0.00160272 10.0878 0)
(-0.00139524 10.0932 0)
(-0.00431244 10.091 0)
(-0.00699632 10.0731 0)
(-0.00932032 10.0245 0)
(-0.0111123 9.92233 0)
(-0.0120301 9.74307 0)
(-0.0114245 9.47647 0)
(-0.0081607 9.1165 0)
(-0.00514477 8.57854 0)
(0.0036283 10.0013 0)
(0.0069342 10.0062 0)
(0.00921336 10.0125 0)
(0.0101013 10.0205 0)
(0.00969963 10.03 0)
(0.00837626 10.041 0)
(0.00642936 10.0537 0)
(0.00399823 10.0673 0)
(0.0010292 10.081 0)
(-0.00226362 10.0945 0)
(-0.00566875 10.1069 0)
(-0.00897795 10.116 0)
(-0.0119907 10.1178 0)
(-0.0145259 10.1037 0)
(-0.0164254 10.0587 0)
(-0.0174804 9.96035 0)
(-0.0173121 9.78685 0)
(-0.015364 9.52956 0)
(-0.0103666 9.18156 0)
(-0.00631737 8.65611 0)
(0.00300658 10.001 0)
(0.00603092 10.0052 0)
(0.00799136 10.0109 0)
(0.00860171 10.0183 0)
(0.00787306 10.0272 0)
(0.00610497 10.0377 0)
(0.00347701 10.0501 0)
(0.000370096 10.0646 0)
(-0.00303518 10.0806 0)
(-0.00682903 10.0972 0)
(-0.0107722 10.1143 0)
(-0.014624 10.1308 0)
(-0.0181461 10.1445 0)
(-0.0211102 10.1512 0)
(-0.0233105 10.1421 0)
(-0.0245629 10.1019 0)
(-0.0246376 10.0087 0)
(-0.0231412 9.84226 0)
(-0.0196445 9.59504 0)
(-0.0127335 9.25903 0)
(-0.00755104 8.74505 0)
(0.00250585 10.0008 0)
(0.00520647 10.0044 0)
(0.00687701 10.0096 0)
(0.00721569 10.0163 0)
(0.00617198 10.0245 0)
(0.0039641 10.0343 0)
(0.000726466 10.0463 0)
(-0.00331331 10.0607 0)
(-0.00767014 10.0778 0)
(-0.0120968 10.0968 0)
(-0.0167225 10.1172 0)
(-0.0212729 10.1387 0)
(-0.0254738 10.1602 0)
(-0.0290587 10.1795 0)
(-0.0317773 10.192 0)
(-0.0334063 10.1888 0)
(-0.0337482 10.1545 0)
(-0.0325702 10.0677 0)
(-0.0294901 9.90938 0)
(-0.0242346 9.67268 0)
(-0.0152288 9.34823 0)
(-0.00882202 8.84446 0)
(0.00212391 10.0007 0)
(0.00450827 10.0037 0)
(0.00585896 10.0084 0)
(0.00594488 10.0145 0)
(0.00460572 10.022 0)
(0.00197964 10.0311 0)
(-0.0018544 10.0424 0)
(-0.00672526 10.0564 0)
(-0.0123361 10.0733 0)
(-0.0180492 10.0936 0)
(-0.0235263 10.1166 0)
(-0.0289528 10.1417 0)
(-0.0340154 10.1685 0)
(-0.038409 10.196 0)
(-0.041846 10.2217 0)
(-0.0440637 10.2409 0)
(-0.0448349 10.2445 0)
(-0.0439643 10.2169 0)
(-0.0412396 10.1374 0)
(-0.0363102 9.98802 0)
(-0.0290871 9.76196 0)
(-0.017831 9.44856 0)
(-0.0101114 8.95364 0)
(0.00182854 10.0006 0)
(0.00393909 10.0032 0)
(0.00498132 10.0073 0)
(0.00478906 10.0128 0)
(0.00317989 10.0196 0)
(0.000167379 10.028 0)
(-0.0042303 10.0385 0)
(-0.00990795 10.0517 0)
(-0.0166325 10.0682 0)
(-0.0239985 10.0884 0)
(-0.0311602 10.1128 0)
(-0.0376757 10.1407 0)
(-0.0438143 10.1714 0)
(-0.049227 10.2044 0)
(-0.0535866 10.2386 0)
(-0.0565975 10.2716 0)
(-0.0579993 10.2983 0)
(-0.057578 10.3094 0)
(-0.055161 10.2894 0)
(-0.0505781 10.2179 0)
(-0.0435309 10.0778 0)
(-0.0341469 9.86222 0)
(-0.0204741 9.55896 0)
(-0.011353 9.07093 0)
(0.0015965 10.0005 0)
(0.00347513 10.0028 0)
(0.00426013 10.0065 0)
(0.00379449 10.0113 0)
(0.00189861 10.0174 0)
(-0.00146214 10.0251 0)
(-0.00637799 10.0347 0)
(-0.0128162 10.047 0)
(-0.0206171 10.0626 0)
(-0.0294482 10.0823 0)
(-0.0387479 10.1066 0)
(-0.0474121 10.136 0)
(-0.0548903 10.1697 0)
(-0.0615763 10.2069 0)
(-0.0670964 10.247 0)
(-0.0711176 10.2889 0)
(-0.0733535 10.3298 0)
(-0.0735653 10.3645 0)
(-0.0715741 10.3837 0)
(-0.0672506 10.3719 0)
(-0.0604891 10.3089 0)
(-0.0510658 10.1782 0)
(-0.0392963 9.97255 0)
(-0.0230412 9.67812 0)
(-0.0122568 9.19448 0)
(0.0014117 10.0005 0)
(0.00309498 10.0025 0)
(0.00367062 10.0058 0)
(0.00298432 10.0101 0)
(0.00081301 10.0155 0)
(-0.00290143 10.0223 0)
(-0.00828117 10.031 0)
(-0.015418 10.0422 0)
(-0.0242334 10.0568 0)
(-0.0344775 10.0755 0)
(-0.0456704 10.0992 0)
(-0.0570509 10.1285 0)
(-0.0672087 10.1639 0)
(-0.0754885 10.2044 0)
(-0.0824651 10.2489 0)
(-0.0877604 10.297 0)
(-0.0910556 10.3471 0)
(-0.0920955 10.3965 0)
(-0.0906898 10.4399 0)
(-0.0867178 10.4676 0)
(-0.0801108 10.4641 0)
(-0.0708533 10.4098 0)
(-0.0587635 10.2882 0)
(-0.0444827 10.0918 0)
(-0.0257244 9.8055 0)
(-0.0143823 9.32433 0)
(0.00126271 10.0004 0)
(0.00278079 10.0022 0)
(0.00318482 10.0053 0)
(0.0023294 10.0091 0)
(-5.38214e-05 10.0139 0)
(-0.00409238 10.0197 0)
(-0.00992821 10.0274 0)
(-0.0176902 10.0375 0)
(-0.0274391 10.0509 0)
(-0.0390165 10.0683 0)
(-0.0520351 10.091 0)
(-0.0658205 10.1195 0)
(-0.079372 10.1547 0)
(-0.0909258 10.1971 0)
(-0.0997415 10.2453 0)
(-0.106649 10.2981 0)
(-0.111289 10.3548 0)
(-0.113385 10.4138 0)
(-0.112745 10.4722 0)
(-0.109251 10.5244 0)
(-0.102858 10.5607 0)
(-0.0935832 10.5657 0)
(-0.0814768 10.5199 0)
(-0.0664806 10.407 0)
(-0.048951 10.2189 0)
(-0.0222287 9.93476 0)
(-0.0101164 9.3979 0)
(0.0011412 10.0004 0)
(0.00251881 10.002 0)
(0.00278501 10.0049 0)
(0.0017987 10.0083 0)
(-0.000738396 10.0125 0)
(-0.00501527 10.0175 0)
(-0.0112522 10.0241 0)
(-0.0196157 10.0329 0)
(-0.0302025 10.0449 0)
(-0.0430107 10.0609 0)
(-0.0577558 10.0821 0)
(-0.0738636 10.1094 0)
(-0.0904207 10.1438 0)
(-0.106147 10.1859 0)
(-0.118887 10.2362 0)
(-0.127855 10.2931 0)
(-0.134221 10.355 0)
(-0.137677 10.4209 0)
(-0.138023 10.4892 0)
(-0.135158 10.5567 0)
(-0.129064 10.6179 0)
(-0.119798 10.6628 0)
(-0.107438 10.6761 0)
(-0.0921759 10.6384 0)
(-0.0737068 10.5334 0)
(-0.0523904 10.3511 0)
(-0.0173036 10.0947 0)
(-0.00163501 9.45104 0)
(0.00104102 10.0003 0)
(0.00229969 10.0018 0)
(0.00245139 10.0045 0)
(0.00136674 10.0076 0)
(-0.00127767 10.0113 0)
(-0.00571781 10.0156 0)
(-0.0122395 10.0211 0)
(-0.0211161 10.0286 0)
(-0.0324994 10.039 0)
(-0.0464174 10.0534 0)
(-0.0627629 10.0728 0)
(-0.0810742 10.0984 0)
(-0.100541 10.1314 0)
(-0.119965 10.1727 0)
(-0.137758 10.2227 0)
(-0.151349 10.282 0)
(-0.159958 10.3484 0)
(-0.165187 10.4199 0)
(-0.166828 10.4955 0)
(-0.164799 10.5734 0)
(-0.15912 10.6501 0)
(-0.149895 10.72 0)
(-0.13727 10.7732 0)
(-0.121431 10.7943 0)
(-0.102406 10.7641 0)
(-0.0796252 10.6663 0)
(-0.0549965 10.4965 0)
(-0.0183408 10.2554 0)
(0.0037705 9.49506 0)
(0.000957582 10.0003 0)
(0.00211559 10.0017 0)
(0.00217245 10.0042 0)
(0.00101734 10.007 0)
(-0.00170175 10.0102 0)
(-0.00624686 10.014 0)
(-0.012954 10.0186 0)
(-0.0221865 10.0247 0)
(-0.0342359 10.0333 0)
(-0.0492033 10.0458 0)
(-0.0670001 10.0633 0)
(-0.0873638 10.0869 0)
(-0.109604 10.1179 0)
(-0.132621 10.1575 0)
(-0.154896 10.2067 0)
(-0.174519 10.2657 0)
(-0.188477 10.3348 0)
(-0.196063 10.4115 0)
(-0.199444 10.4932 0)
(-0.198558 10.5788 0)
(-0.193472 10.6662 0)
(-0.18436 10.7519 0)
(-0.171443 10.8302 0)
(-0.154982 10.8913 0)
(-0.135068 10.9197 0)
(-0.111562 10.8966 0)
(-0.0842804 10.8067 0)
(-0.0563431 10.6539 0)
(-0.0207984 10.4116 0)
(0.0048291 9.53805 0)
(0.000887467 10.0003 0)
(0.00196037 10.0016 0)
(0.00193944 10.0039 0)
(0.000732169 10.0065 0)
(-0.00203413 10.0094 0)
(-0.00664023 10.0126 0)
(-0.0134564 10.0164 0)
(-0.0229127 10.0214 0)
(-0.0354186 10.0283 0)
(-0.051254 10.0385 0)
(-0.0704224 10.0536 0)
(-0.0926592 10.0749 0)
(-0.117497 10.1035 0)
(-0.143955 10.141 0)
(-0.170606 10.1884 0)
(-0.195588 10.2464 0)
(-0.216635 10.3154 0)
(-0.23031 10.3952 0)
(-0.236078 10.4828 0)
(-0.236799 10.575 0)
(-0.232602 10.6706 0)
(-0.223741 10.7674 0)
(-0.210543 10.8618 0)
(-0.193369 10.948 0)
(-0.172472 11.0162 0)
(-0.14784 11.0515 0)
(-0.120019 11.0354 0)
(-0.0887304 10.9544 0)
(-0.0573867 10.8177 0)
(-0.0230082 10.5627 0)
(0.00443006 9.59398 0)
(0.0008281 10.0003 0)
(0.0018289 10.0015 0)
(0.0017439 10.0036 0)
(0.000498142 10.006 0)
(-0.00229451 10.0086 0)
(-0.00692821 10.0113 0)
(-0.0137956 10.0145 0)
(-0.0233746 10.0184 0)
(-0.0361622 10.0239 0)
(-0.0525899 10.032 0)
(-0.072888 10.0443 0)
(-0.0969003 10.0626 0)
(-0.124125 10.0886 0)
(-0.153828 10.1233 0)
(-0.184695 10.1682 0)
(-0.214934 10.2245 0)
(-0.242291 10.2925 0)
(-0.26419 10.3723 0)
(-0.276775 10.4636 0)
(-0.279805 10.5625 0)
(-0.276964 10.6654 0)
(-0.268618 10.7709 0)
(-0.255224 10.8766 0)
(-0.237285 10.9792 0)
(-0.215226 11.0726 0)
(-0.189283 11.1475 0)
(-0.159938 11.1894 0)
(-0.1284 11.1798 0)
(-0.0938141 11.1084 0)
(-0.0591889 10.983 0)
(-0.0253503 10.7257 0)
(0.00336853 9.65979 0)
(0.00077749 10.0002 0)
(0.00171694 10.0014 0)
(0.00158055 10.0034 0)
(0.000305204 10.0056 0)
(-0.00249831 10.0079 0)
(-0.00713481 10.0103 0)
(-0.0140107 10.0128 0)
(-0.0236363 10.0158 0)
(-0.036572 10.02 0)
(-0.0533633 10.0262 0)
(-0.0744333 10.0358 0)
(-0.0999093 10.0508 0)
(-0.12941 10.0732 0)
(-0.162117 10.1048 0)
(-0.196987 10.1467 0)
(-0.232321 10.2002 0)
(-0.265911 10.2664 0)
(-0.295139 10.3455 0)
(-0.31714 10.437 0)
(-0.327677 10.5402 0)
(-0.32693 10.6506 0)
(-0.319552 10.7641 0)
(-0.306179 10.8791 0)
(-0.287494 10.9934 0)
(-0.264137 11.1034 0)
(-0.236596 11.2035 0)
(-0.205503 11.2846 0)
(-0.171805 11.3323 0)
(-0.136864 11.3287 0)
(-0.0995203 11.2659 0)
(-0.0621527 11.1666 0)
(-0.0278151 10.9008 0)
(0.00175214 9.734 0)
(0.000734037 10.0002 0)
(0.00162116 10.0014 0)
(0.00144229 10.0033 0)
(0.000144838 10.0053 0)
(-0.0026577 10.0074 0)
(-0.00727902 10.0093 0)
(-0.0141323 10.0113 0)
(-0.0237483 10.0135 0)
(-0.0367319 10.0165 0)
(-0.0537116 10.021 0)
(-0.0752577 10.0283 0)
(-0.10174 10.04 0)
(-0.133126 10.0582 0)
(-0.16872 10.0856 0)
(-0.207328 10.1239 0)
(-0.247536 10.1741 0)
(-0.287209 10.2375 0)
(-0.323728 10.3148 0)
(-0.354131 10.4058 0)
(-0.3753 10.5096 0)
(-0.38268 10.6252 0)
(-0.377028 10.7472 0)
(-0.364095 10.871 0)
(-0.344813 10.995 0)
(-0.320086 11.1171 0)
(-0.290693 11.2338 0)
(-0.257455 11.3399 0)
(-0.221443 11.4264 0)
(-0.183657 11.479 0)
(-0.145342 11.4802 0)
(-0.105994 11.4436 0)
(-0.0659266 11.3668 0)
(-0.0304328 11.0705 0)
(-2.17458e-05 9.8145 0)
(0.000696775 10.0002 0)
(0.00153875 10.0013 0)
(0.0013248 10.0031 0)
(1.25447e-05 10.005 0)
(-0.00278224 10.0069 0)
(-0.0073757 10.0085 0)
(-0.0141844 10.01 0)
(-0.0237507 10.0115 0)
(-0.0367083 10.0135 0)
(-0.053745 10.0165 0)
(-0.07554 10.0216 0)
(-0.10265 10.0303 0)
(-0.135344 10.0445 0)
(-0.173348 10.0669 0)
(-0.215581 10.1004 0)
(-0.260384 10.1466 0)
(-0.305922 10.2063 0)
(-0.349614 10.2807 0)
(-0.388434 10.37 0)
(-0.419104 10.4738 0)
(-0.438334 10.5905 0)
(-0.441332 10.7186 0)
(-0.429586 10.852 0)
(-0.410069 10.9856 0)
(-0.384023 11.1179 0)
(-0.352576 11.247 0)
(-0.316817 11.3698 0)
(-0.277951 11.481 0)
(-0.237213 11.5719 0)
(-0.195472 11.6278 0)
(-0.154586 11.651 0)
(-0.112941 11.6399 0)
(-0.0700263 11.5621 0)
(-0.032949 11.2342 0)
(-0.00174797 9.89937 0)
(0.00146674 10.0012 0)
(0.000652401 10.0002 0)
(0.00122411 10.003 0)
(-9.71538e-05 10.0047 0)
(-0.00287918 10.0064 0)
(-0.00743648 10.0078 0)
(-0.0141857 10.0089 0)
(-0.0236743 10.0098 0)
(-0.0365534 10.0108 0)
(-0.0535504 10.0125 0)
(-0.075423 10.0157 0)
(-0.102869 10.0217 0)
(-0.136393 10.0322 0)
(-0.176091 10.0498 0)
(-0.221381 10.0772 0)
(-0.270688 10.1178 0)
(-0.321808 10.1731 0)
(-0.372477 10.2437 0)
(-0.419647 10.3302 0)
(-0.459908 10.4326 0)
(-0.489737 10.5498 0)
(-0.505771 10.6796 0)
(-0.503075 10.8202 0)
(-0.484024 10.9645 0)
(-0.456924 11.1073 0)
(-0.423339 11.2472 0)
(-0.38472 11.3825 0)
(-0.342511 11.5103 0)
(-0.298092 11.6257 0)
(-0.252709 11.7193 0)
(-0.208351 11.795 0)
(-0.164378 11.8401 0)
(-0.11959 11.833 0)
(-0.074084 11.7509 0)
(-0.0352599 11.3918 0)
(-0.00328329 9.98683 0)
(0.00113595 10.0029 0)
(0.0013837 10.0012 0)
(0.000599352 10.0002 0)
(-0.000188995 10.0045 0)
(-0.00295413 10.006 0)
(-0.00747018 10.0072 0)
(-0.0141508 10.0079 0)
(-0.0235431 10.0082 0)
(-0.0363072 10.0084 0)
(-0.0531954 10.0089 0)
(-0.0750197 10.0104 0)
(-0.102582 10.014 0)
(-0.136565 10.0212 0)
(-0.177358 10.0343 0)
(-0.224827 10.0559 0)
(-0.277981 10.0895 0)
(-0.33464 10.1385 0)
(-0.392015 10.2043 0)
(-0.447381 10.2869 0)
(-0.49724 10.3867 0)
(-0.537857 10.503 0)
(-0.565557 10.6341 0)
(-0.577018 10.7771 0)
(-0.567268 10.9298 0)
(-0.539727 11.0845 0)
(-0.504128 11.2356 0)
(-0.462409 11.3822 0)
(-0.416376 11.5226 0)
(-0.367682 11.6545 0)
(-0.317734 11.7722 0)
(-0.269416 11.8848 0)
(-0.221859 11.9798 0)
(-0.173603 12.0269 0)
(-0.125754 12.0209 0)
(-0.0779047 11.9323 0)
(-0.0373323 11.5429 0)
(-0.00469108 10.0751 0)
(-0.000270485 10.0043 0)
(0.00104344 10.0027 0)
(0.00128357 10.0011 0)
(0.000548812 10.0002 2.01561e-19)
(-0.00301164 10.0057 0)
(-0.0074832 10.0066 0)
(-0.0140905 10.007 0)
(-0.0233755 10.0069 0)
(-0.0360006 10.0063 0)
(-0.0527324 10.0058 0)
(-0.0744181 10.0057 0)
(-0.101932 10.0072 0)
(-0.136093 10.0114 0)
(-0.177515 10.0204 0)
(-0.226426 10.0366 0)
(-0.282364 10.0633 0)
(-0.343821 10.1041 0)
(-0.407941 10.1629 0)
(-0.471267 10.2406 0)
(-0.530639 10.3366 0)
(-0.58215 10.4506 0)
(-0.621824 10.5815 0)
(-0.645952 10.7267 0)
(-0.651383 10.8828 0)
(-0.63322 11.0471 0)
(-0.596079 11.2113 0)
(-0.551215 11.3697 0)
(-0.500953 11.5218 0)
(-0.447346 11.6664 0)
(-0.392131 11.8006 0)
(-0.338822 11.9369 0)
(-0.286837 12.0676 0)
(-0.234383 12.1623 0)
(-0.182087 12.2093 0)
(-0.131318 12.2022 0)
(-0.0813742 12.1059 0)
(-0.0391176 11.6873 0)
(-0.00594062 10.1628 0)
(-0.00306564 10.0054 0)
(-0.000339856 10.0041 0)
(0.000938189 10.0025 9.00308e-19)
(0.00118687 10.001 -6.38665e-19)
(0.000500585 10.0002 -4.01998e-19)
(-0.00748123 10.0061 0)
(-0.0140123 10.0062 0)
(-0.023185 10.0057 0)
(-0.0356573 10.0045 0)
(-0.0522014 10.003 0)
(-0.0736859 10.0016 0)
(-0.101035 10.0011 0)
(-0.135164 10.0027 0)
(-0.17686 10.008 0)
(-0.226632 10.0193 0)
(-0.284452 10.0395 0)
(-0.349441 10.0723 0)
(-0.419493 10.1218 0)
(-0.490944 10.1917 0)
(-0.559655 10.2827 0)
(-0.622069 10.3932 0)
(-0.673951 10.5224 0)
(-0.711194 10.6682 0)
(-0.730188 10.8275 0)
(-0.728099 10.9963 0)
(-0.700216 11.1714 0)
(-0.652496 11.3441 0)
(-0.597772 11.5088 0)
(-0.538667 11.6653 0)
(-0.477367 11.8123 0)
(-0.4183 11.9649 0)
(-0.360778 12.1189 0)
(-0.302898 12.2481 0)
(-0.245764 12.3407 0)
(-0.189706 12.3859 0)
(-0.136229 12.3761 0)
(-0.0844412 12.2711 0)
(-0.0406201 11.8246 0)
(-0.00702419 10.2488 0)
(-0.00748449 10.0057 0)
(-0.00307563 10.005 -1.92404e-18)
(-0.000400509 10.0038 -9.4967e-19)
(0.000838661 10.0024 4.49163e-19)
(0.00109382 10.001 -4.24499e-19)
(0.00045473 10.0001 0)
(-0.0139224 10.0055 0)
(-0.0229807 10.0046 0)
(-0.0352945 10.0029 0)
(-0.0516327 10.0005 0)
(-0.0728749 9.99796 0)
(-0.0999774 9.99576 0)
(-0.133923 9.99493 0)
(-0.175626 9.99693 0)
(-0.225813 10.0038 0)
(-0.284804 10.0181 0)
(-0.352236 10.0434 0)
(-0.426729 10.0835 0)
(-0.505446 10.1429 0)
(-0.583839 10.2256 0)
(-0.65708 10.3312 0)
(-0.721306 10.4572 0)
(-0.772048 10.6022 0)
(-0.80521 10.7633 0)
(-0.817436 10.9365 0)
(-0.806352 11.1173 0)
(-0.767546 11.3022 0)
(-0.708425 11.4822 0)
(-0.643381 11.6518 0)
(-0.575214 11.8111 0)
(-0.50945 11.9766 0)
(-0.445507 12.1467 0)
(-0.380969 12.2986 0)
(-0.317448 12.4245 0)
(-0.255903 12.5135 0)
(-0.196419 12.5558 0)
(-0.140484 12.542 0)
(-0.0870955 12.4278 0)
(-0.041863 11.9549 0)
(-0.00794697 10.3322 0)
(-0.0138509 10.0049 0)
(-0.00739573 10.0052 4.05752e-18)
(-0.00303099 10.0046 0)
(-0.000457032 10.0035 9.47229e-19)
(0.000745436 10.0022 1.44327e-22)
(0.00100453 10.0009 0)
(0.000411262 10.0001 0)
(-0.0227688 10.0037 0)
(-0.0349229 10.0014 0)
(-0.0510484 9.99838 0)
(-0.0720242 9.99474 0)
(-0.0988255 9.99102 0)
(-0.132481 9.98806 0)
(-0.173997 9.9871 0)
(-0.224263 9.98991 0)
(-0.283872 9.99892 0)
(-0.35288 10.0172 0)
(-0.430517 10.0486 0)
(-0.514771 10.0974 0)
(-0.601977 10.1683 0)
(-0.68663 10.2652 0)
(-0.763254 10.3867 0)
(-0.827794 10.5292 0)
(-0.875689 10.6904 0)
(-0.903006 10.8666 0)
(-0.906803 11.0532 0)
(-0.885309 11.2451 0)
(-0.83451 11.4386 0)
(-0.763327 11.6246 0)
(-0.687616 11.7976 0)
(-0.614269 11.9755 0)
(-0.542798 12.1586 0)
(-0.470486 12.3264 0)
(-0.399237 12.4744 0)
(-0.330401 12.5954 0)
(-0.264783 12.6799 0)
(-0.202231 12.7182 0)
(-0.144103 12.6996 0)
(-0.089349 12.5759 0)
(-0.0428734 12.0779 0)
(-0.00872145 10.4123 0)
(-0.0225941 10.0028 0)
(-0.0136196 10.0042 4.37344e-22)
(-0.00717897 10.0046 0)
(-0.00298675 10.0042 -9.98805e-19)
(-0.000504305 10.0032 9.5008e-23)
(0.000658324 10.002 0)
(0.000919013 10.0008 0)
(0.000370185 10.0001 0)
(-0.0345492 10.0002 0)
(-0.0504616 9.99647 0)
(-0.0711622 9.99189 0)
(-0.09763 9.98683 0)
(-0.130924 9.98196 0)
(-0.172114 9.97836 0)
(-0.222212 9.97757 0)
(-0.282019 9.98173 0)
(-0.351926 9.99367 0)
(-0.431663 10.0169 0)
(-0.519924 10.0557 0)
(-0.613965 10.1147 0)
(-0.709203 10.1987 0)
(-0.799128 10.3112 0)
(-0.87769 10.4497 0)
(-0.940805 10.6095 0)
(-0.983982 10.7871 0)
(-1.00363 10.9782 0)
(-0.997363 11.1773 0)
(-0.964143 11.3792 0)
(-0.90043 11.5799 0)
(-0.816665 11.7702 0)
(-0.734923 11.9623 0)
(-0.654886 12.1581 0)
(-0.573418 12.3389 0)
(-0.49307 12.5024 0)
(-0.415496 12.6449 0)
(-0.341748 12.7602 0)
(-0.27244 12.8393 0)
(-0.207178 12.8728 0)
(-0.147122 12.8487 0)
(-0.0912241 12.7154 0)
(-0.0436794 12.1937 0)
(-0.00936327 10.4887 0)
(-0.0342382 9.99905 0)
(-0.0221639 10.0019 -2.25429e-18)
(-0.0131459 10.0034 0)
(-0.00696908 10.004 0)
(-0.00292853 10.0038 2.9874e-18)
(-0.000542537 10.0029 0)
(0.000577373 10.0019 0)
(0.000837362 10.0007 8.39438e-19)
(0.000331527 10.0001 0)
(-0.049879 9.99478 0)
(-0.0703047 9.98937 0)
(-0.0964273 9.98311 0)
(-0.129316 9.97656 0)
(-0.170087 9.97061 0)
(-0.219839 9.96659 0)
(-0.279531 9.96639 0)
(-0.349816 9.97256 0)
(-0.43083 9.98836 0)
(-0.521857 10.0178 0)
(-0.620953 10.0654 0)
(-0.724544 10.1362 0)
(-0.827051 10.2348 0)
(-0.920939 10.3643 0)
(-0.999709 10.5209 0)
(-1.05945 10.6983 0)
(-1.09592 10.8923 0)
(-1.10605 11.0975 0)
(-1.08817 11.3082 0)
(-1.04206 11.5187 0)
(-0.964651 11.7249 0)
(-0.873793 11.9351 0)
(-0.784177 12.1457 0)
(-0.692203 12.3393 0)
(-0.601113 12.5157 0)
(-0.513181 12.6733 0)
(-0.429753 12.8093 0)
(-0.351542 12.918 0)
(-0.278939 12.9911 0)
(-0.211318 13.0193 0)
(-0.149594 12.9893 0)
(-0.0927527 12.8464 0)
(-0.0443086 12.3024 0)
(-0.0098894 10.5612 0)
(-0.0493934 9.99328 0)
(-0.03354 9.99781 0)
(-0.0213259 10.0008 -2.34582e-18)
(-0.0126919 10.0026 -2.21998e-18)
(-0.00673908 10.0034 -4.19887e-18)
(-0.00285627 10.0034 0)
(-0.000571735 10.0027 -1.87502e-18)
(0.000502746 10.0017 -1.77054e-18)
(0.000759617 10.0007 8.35451e-19)
(0.000295235 10.0001 0)
(-0.0694591 9.98713 0)
(-0.0952369 9.97982 0)
(-0.127704 9.97178 0)
(-0.167997 9.96374 0)
(-0.21728 9.95684 0)
(-0.276631 9.95273 0)
(-0.346902 9.9537 0)
(-0.428554 9.96271 0)
(-0.521356 9.98348 0)
(-0.624047 10.0204 0)
(-0.733946 10.0784 0)
(-0.846556 10.1626 0)
(-0.95524 10.2774 0)
(-1.05147 10.4252 0)
(-1.12846 10.6007 0)
(-1.18272 10.7959 0)
(-1.21044 11.0058 0)
(-1.20924 11.2242 0)
(-1.17831 11.4452 0)
(-1.11827 11.6625 0)
(-1.03367 11.8898 0)
(-0.933401 12.1193 0)
(-0.829479 12.3281 0)
(-0.725981 12.5173 0)
(-0.6258 12.6876 0)
(-0.530833 12.8383 0)
(-0.442076 12.967 0)
(-0.359874 13.0685 0)
(-0.284371 13.1351 0)
(-0.214723 13.1575 0)
(-0.151576 13.1215 0)
(-0.0939704 12.9692 0)
(-0.0447867 12.4042 0)
(-0.0103157 10.6297 0)
(-0.0687553 9.98515 0)
(-0.048343 9.99164 -2.50601e-18)
(-0.0322016 9.99643 2.47105e-18)
(-0.0205287 9.9998 -1.09145e-21)
(-0.0122088 10.0019 2.21254e-18)
(-0.00648864 10.0029 2.09207e-18)
(-0.00277076 10.003 3.95344e-18)
(-0.000591794 10.0024 2.80012e-18)
(0.000434296 10.0016 -8.81044e-19)
(0.000685832 10.0006 0)
(0.000261296 10.0001 0)
(-0.0940665 9.97691 0)
(-0.126112 9.96754 0)
(-0.165904 9.95764 0)
(-0.21464 9.94817 0)
(-0.273489 9.94058 0)
(-0.343459 9.93687 0)
(-0.425263 9.93973 0)
(-0.519063 9.95259 0)
(-0.62417 9.97961 0)
(-0.738679 10.0256 0)
(-0.859073 10.0957 0)
(-0.979845 10.1949 0)
(-1.09329 10.3273 0)
(-1.18993 10.4945 0)
(-1.26294 10.6893 0)
(-1.30948 10.9022 0)
(-1.32639 11.1272 0)
(-1.31214 11.3579 0)
(-1.26686 11.5873 0)
(-1.20052 11.827 0)
(-1.10596 12.0749 0)
(-0.988377 12.3032 0)
(-0.870537 12.5076 0)
(-0.756117 12.6907 0)
(-0.647499 12.8536 0)
(-0.546116 12.9966 0)
(-0.452578 13.1174 0)
(-0.366857 13.2114 0)
(-0.288837 13.2713 0)
(-0.21747 13.2877 0)
(-0.153128 13.2454 0)
(-0.0949166 13.0841 0)
(-0.0451367 12.4993 0)
(-0.0106572 10.6941 0)
(-0.0930962 9.97433 0)
(-0.0672511 9.98303 -3.28056e-21)
(-0.0463353 9.98988 0)
(-0.0309371 9.9951 -1.77365e-21)
(-0.0196908 9.99881 0)
(-0.0116967 10.0012 -2.20458e-18)
(-0.00621866 10.0023 -4.16708e-18)
(-0.00267171 10.0026 5.48636e-23)
(-0.000602833 10.0022 1.85759e-18)
(0.00037205 10.0015 -8.76342e-19)
(0.000615999 10.0006 8.26398e-19)
(0.000229686 10.0001 0)
(-0.124549 9.96377 0)
(-0.163837 9.95223 0)
(-0.211994 9.94048 0)
(-0.270237 9.92978 0)
(-0.339699 9.92188 0)
(-0.421293 9.9192 0)
(-0.515494 9.92487 0)
(-0.622082 9.94276 0)
(-0.739815 9.97748 0)
(-0.86604 10.0341 0)
(-0.996304 10.118 0)
(-1.12405 10.2339 0)
(-1.2405 10.3853 0)
(-1.33536 10.5727 0)
(-1.40201 10.787 0)
(-1.43854 11.0171 0)
(-1.44264 11.2564 0)
(-1.41373 11.4974 0)
(-1.36287 11.7509 0)
(-1.28707 12.0128 0)
(-1.1729 12.2606 0)
(-1.03837 12.4848 0)
(-0.907246 12.6829 0)
(-0.782636 12.8584 0)
(-0.666313 13.0132 0)
(-0.559168 13.1477 0)
(-0.4614 13.2603 0)
(-0.37262 13.3466 0)
(-0.292441 13.3995 0)
(-0.219639 13.4099 0)
(-0.154306 13.3615 0)
(-0.0956279 13.1914 0)
(-0.0453792 12.5881 0)
(-0.0109273 10.7545 0)
(-0.12326 9.96044 0)
(-0.0910166 9.9716 2.77898e-18)
(-0.0643662 9.98079 -2.74616e-18)
(-0.0444499 9.98818 2.59616e-18)
(-0.029617 9.99383 0)
(-0.0188114 9.99786 0)
(-0.0111567 10.0005 2.19552e-18)
(-0.00592976 10.0018 -2.07389e-18)
(-0.00255937 10.0023 8.39774e-23)
(-0.000604826 10.002 9.23953e-19)
(0.000315864 10.0013 -8.71414e-19)
(0.000550062 10.0005 -8.20593e-19)
(0.000200547 10.0001 0)
(-0.161808 9.94742 0)
(-0.209378 9.93365 0)
(-0.266969 9.92018 0)
(-0.335787 9.90854 0)
(-0.416906 9.90088 0)
(-0.511056 9.90005 0)
(-0.618398 9.90962 0)
(-0.738241 9.93394 0)
(-0.868685 9.97797 0)
(-1.00623 10.0471 0)
(-1.14541 10.1464 0)
(-1.27859 10.2805 0)
(-1.396 10.4521 0)
(-1.48667 10.6602 0)
(-1.54445 10.8938 0)
(-1.5687 11.1405 0)
(-1.55804 11.3923 0)
(-1.5245 11.6591 0)
(-1.46442 11.9368 0)
(-1.36757 12.2004 0)
(-1.234 12.445 0)
(-1.0832 12.6628 0)
(-0.939638 12.8529 0)
(-0.805659 13.0197 0)
(-0.682403 13.1656 0)
(-0.570158 13.2914 0)
(-0.468699 13.3955 0)
(-0.377295 13.474 0)
(-0.295287 13.5201 0)
(-0.221305 13.5243 0)
(-0.155163 13.4698 0)
(-0.0961392 13.2914 0)
(-0.0455327 12.6707 0)
(-0.0111382 10.811 0)
(-0.160147 9.94317 0)
(-0.120462 9.95697 0)
(-0.0870022 9.96877 2.88834e-18)
(-0.0616711 9.97864 -5.47796e-18)
(-0.0424891 9.98656 5.18151e-18)
(-0.0282396 9.99261 -4.89906e-18)
(-0.017894 9.99695 0)
(-0.0105901 9.99978 2.18619e-18)
(-0.00562195 10.0014 -2.06352e-18)
(-0.00243368 10.0019 -1.94777e-18)
(-0.000597785 10.0018 0)
(0.000265595 10.0012 8.65267e-19)
(0.00048836 10.0005 0)
(0.000174441 10.0001 0)
(-0.206807 9.92759 0)
(-0.26373 9.91164 0)
(-0.331839 9.89667 0)
(-0.412305 9.88455 0)
(-0.506069 9.87786 0)
(-0.613606 9.87988 0)
(-0.734681 9.89466 0)
(-0.868034 9.92695 0)
(-1.011 9.98205 0)
(-1.15914 10.0654 0)
(-1.30594 10.182 0)
(-1.44271 10.3357 0)
(-1.55875 10.5284 0)
(-1.64262 10.7574 0)
(-1.689 11.01 0)
(-1.69868 11.2716 0)
(-1.68465 11.5512 0)
(-1.64237 11.8445 0)
(-1.55943 12.1259 0)
(-1.44141 12.3876 0)
(-1.28901 12.6263 0)
(-1.12289 12.8358 0)
(-0.967852 13.0168 0)
(-0.82539 13.1741 0)
(-0.695975 13.3107 0)
(-0.579278 13.4274 0)
(-0.474641 13.523 0)
(-0.381014 13.5938 0)
(-0.297478 13.633 0)
(-0.222539 13.6313 0)
(-0.155749 13.571 0)
(-0.0964815 13.3846 0)
(-0.0456134 12.7476 0)
(-0.0112992 10.8637 0)
(-0.204719 9.92221 0)
(-0.156469 9.93878 0)
(-0.115018 9.95342 0)
(-0.0832725 9.96607 5.76104e-18)
(-0.0588776 9.97659 -5.45281e-18)
(-0.0404522 9.98502 5.15677e-18)
(-0.0268114 9.99146 0)
(-0.0169401 9.99609 -2.30256e-18)
(-0.00999723 9.99915 0)
(-0.00529596 10.0009 2.05236e-18)
(-0.00229618 10.0016 0)
(-0.000580969 10.0016 0)
(0.000221058 10.0011 0)
(0.000432075 10.0004 8.36495e-19)
(0.000151473 10 4.02922e-19)
(-0.260543 9.90406 0)
(-0.327911 9.8861 0)
(-0.407635 9.87001 0)
(-0.500782 9.85806 0)
(-0.608092 9.85325 0)
(-0.729718 9.85933 0)
(-0.864931 9.88081 0)
(-1.01179 9.92281 0)
(-1.16678 9.99082 0)
(-1.32445 10.0902 0)
(-1.47725 10.2257 0)
(-1.61546 10.4003 0)
(-1.72758 10.6145 0)
(-1.80194 10.8645 0)
(-1.83432 11.1348 0)
(-1.84229 11.4264 0)
(-1.82034 11.7352 0)
(-1.75342 12.0347 0)
(-1.64713 12.3159 0)
(-1.50825 12.5728 0)
(-1.33788 12.8033 0)
(-1.15756 13.0031 0)
(-0.992109 13.1738 0)
(-0.842084 13.3211 0)
(-0.707261 13.4481 0)
(-0.586727 13.5558 0)
(-0.479386 13.643 0)
(-0.3839 13.7062 0)
(-0.299106 13.7388 0)
(-0.223408 13.7312 0)
(-0.156109 13.6652 0)
(-0.0966834 13.4712 0)
(-0.0456349 12.819 0)
(-0.0114182 10.9128 0)
(-0.257981 9.89733 0)
(-0.199977 9.91671 0)
(-0.149248 9.93436 6.42084e-18)
(-0.109988 9.95005 6.0815e-18)
(-0.0794145 9.96351 5.75358e-18)
(-0.0559852 9.97466 -5.44035e-18)
(-0.0383491 9.98357 0)
(-0.0253345 9.99037 0)
(-0.0159508 9.99529 0)
(-0.00937961 9.99857 4.32671e-18)
(-0.00495296 10.0005 2.04067e-18)
(-0.00214594 10.0013 1.92249e-18)
(-0.000555985 10.0014 0)
(0.000183203 10.001 -8.81953e-19)
(0.000381415 10.0004 -4.25573e-19)
(0.000131224 10 0)
(-0.324038 9.87671 0)
(-0.402964 9.85705 0)
(-0.495374 9.84039 0)
(-0.602163 9.82943 0)
(-0.723813 9.82763 0)
(-0.860063 9.83921 0)
(-1.00959 9.86907 0)
(-1.16967 9.92262 0)
(-1.33586 10.0054 0)
(-1.50168 10.1227 0)
(-1.65851 10.2785 0)
(-1.79573 10.4749 0)
(-1.90124 10.7112 0)
(-1.96328 10.9813 0)
(-1.99611 11.2839 0)
(-1.99742 11.6077 0)
(-1.94919 11.9258 0)
(-1.85667 12.2274 0)
(-1.72702 12.5051 0)
(-1.56797 12.7546 0)
(-1.38073 12.9751 0)
(-1.18746 13.1638 0)
(-1.01269 13.3237 0)
(-0.856015 13.4606 0)
(-0.716498 13.5779 0)
(-0.5927 13.6766 0)
(-0.483092 13.7556 0)
(-0.386073 13.8114 0)
(-0.30026 13.8375 0)
(-0.22397 13.8244 0)
(-0.156282 13.7529 0)
(-0.0967695 13.5518 0)
(-0.0456074 12.8854 0)
(-0.0115049 10.9585 0)
(-0.320962 9.86836 0)
(-0.251965 9.89048 0)
(-0.190572 9.91124 -1.35091e-17)