# Forces        
# CofR          : (0.00000000e+00 0.00000000e+00 0.00000000e+00)
# Time          forces(pressure viscous porous)	moments(pressure viscous porous)
3               	((0.00000000e+00 0.00000000e+00 0.00000000e+00) (6.46957966e-09 1.35154276e-02 1.10829034e-11) (0.00000000e+00 0.00000000e+00 0.00000000e+00)) ((0.00000000e+00 0.00000000e+00 0.00000000e+00) (-3.54440262e-10 3.11558626e-10 -2.01361791e-09) (0.00000000e+00 0.00000000e+00 0.00000000e+00))
4               	((1.50757398e-04 7.72009203e+00 -4.97291808e-06) (6.84592811e-07 1.42648011e-02 -5.21063747e-08) (0.00000000e+00 0.00000000e+00 0.00000000e+00)) ((-7.01108233e-07 1.68352434e-08 -7.47375842e-06) (-2.55277458e-09 -1.56448515e-09 -5.66687978e-08) (0.00000000e+00 0.00000000e+00 0.00000000e+00))
5               	((-3.48692950e-03 9.50354209e+00 -3.17489931e-04) (1.64288037e-06 -3.59187966e-02 -6.39890595e-06) (0.00000000e+00 0.00000000e+00 0.00000000e+00)) ((-2.43885924e-05 -3.53982213e-05 6.97077995e-05) (-2.01162024e-07 4.52978886e-08 -2.42850208e-07) (0.00000000e+00 0.00000000e+00 0.00000000e+00))
6               	((-1.20229717e-02 6.22998879e+00 4.00478330e-03) (4.86169185e-05 -4.17410731e-02 -4.96332637e-05) (0.00000000e+00 0.00000000e+00 0.00000000e+00)) ((-1.13313251e-04 -1.35716220e-04 5.22930696e-04) (-3.17848757e-08 4.30373887e-07 -1.90492648e-06) (0.00000000e+00 0.00000000e+00 0.00000000e+00))
7               	((-2.58427153e-02 1.34520293e+00 5.17710389e-04) (-1.07225437e-04 -4.60152140e-02 -2.91904484e-05) (0.00000000e+00 0.00000000e+00 0.00000000e+00)) ((1.09818296e-04 -9.32826842e-05 5.98308993e-04) (3.86125228e-08 1.28378892e-06 2.76237759e-06) (0.00000000e+00 0.00000000e+00 0.00000000e+00))
8               	((-3.00508348e-02 -1.87543935e+00 9.28280815e-05) (5.26721720e-05 -3.53652083e-02 -3.54017961e-05) (0.00000000e+00 0.00000000e+00 0.00000000e+00)) ((8.07694856e-05 -1.01442816e-04 7.80288807e-04) (-2.20900191e-07 5.39699120e-07 -9.35500364e-07) (0.00000000e+00 0.00000000e+00 0.00000000e+00))
9               	((-1.90933625e-02 -2.97293461e+00 -5.65569018e-04) (1.70847890e-04 -1.75460186e-03 -1.77805410e-05) (0.00000000e+00 0.00000000e+00 0.00000000e+00)) ((6.74276940e-05 -7.57523222e-05 5.25076636e-04) (-8.92143984e-07 1.03220666e-06 -3.72832737e-06) (0.00000000e+00 0.00000000e+00 0.00000000e+00))
10              	((-7.05559968e-03 -2.65551023e+00 -7.62803214e-05) (2.12402890e-04 2.45541653e-02 -1.43741018e-05) (0.00000000e+00 0.00000000e+00 0.00000000e+00)) ((1.00858111e-05 -2.65938635e-05 2.66699033e-04) (-1.24862157e-06 1.27430541e-06 -5.60758975e-06) (0.00000000e+00 0.00000000e+00 0.00000000e+00))
11              	((1.37964769e-03 -1.51001710e+00 8.69475223e-05) (1.61374036e-04 3.70823813e-02 -2.19270157e-05) (0.00000000e+00 0.00000000e+00 0.00000000e+00)) ((-3.58783027e-05 7.13763385e-07 4.59060754e-05) (-1.82343837e-06 8.70368592e-07 -5.59582361e-06) (0.00000000e+00 0.00000000e+00 0.00000000e+00))
12              	((7.50088316e-03 -2.42072790e-01 -6.91870419e-04) (5.96033654e-05 3.67475283e-02 -2.56471324e-05) (0.00000000e+00 0.00000000e+00 0.00000000e+00)) ((-5.93191692e-05 9.30591174e-06 -1.52050508e-04) (-1.50271986e-06 4.35590007e-07 -4.60437461e-06) (0.00000000e+00 0.00000000e+00 0.00000000e+00))
13              	((9.58798922e-03 7.36431648e-01 -1.36905031e-03) (-1.76997520e-05 2.86236260e-02 -2.70474805e-05) (0.00000000e+00 0.00000000e+00 0.00000000e+00)) ((-5.60549898e-05 1.58020292e-05 -2.46441110e-04) (-1.09708681e-06 1.46309044e-07 -3.26088897e-06) (0.00000000e+00 0.00000000e+00 0.00000000e+00))
14              	((7.76424610e-03 1.26776108e+00 -1.56525755e-03) (-4.52554334e-05 1.78697851e-02 -3.13060100e-05) (0.00000000e+00 0.00000000e+00 0.00000000e+00)) ((-2.94526867e-05 2.79301172e-05 -2.20968790e-04) (-6.44655034e-07 -6.06339275e-08 -2.17170589e-06) (0.00000000e+00 0.00000000e+00 0.00000000e+00))
15              	((4.46324683e-03 1.33763351e+00 -1.44800872e-03) (-6.53795129e-05 8.59567076e-03 -2.64486651e-05) (0.00000000e+00 0.00000000e+00 0.00000000e+00)) ((2.07539064e-06 3.48333058e-05 -1.45358175e-04) (-3.85363196e-07 -1.93441640e-07 -8.78939307e-07) (0.00000000e+00 0.00000000e+00 0.00000000e+00))
16              	((1.32070468e-03 1.08581981e+00 -1.19426346e-03) (-8.01589127e-05 2.77392948e-03 -1.49857199e-05) (0.00000000e+00 0.00000000e+00 0.00000000e+00)) ((2.57429626e-05 3.48292342e-05 -6.16849435e-05) (-2.41839869e-07 -3.11598570e-07 3.92582966e-07) (0.00000000e+00 0.00000000e+00 0.00000000e+00))
17              	((-1.03788351e-03 6.94449480e-01 -9.38495902e-04) (-9.05207678e-05 3.75474504e-04 -2.77768018e-06) (0.00000000e+00 0.00000000e+00 0.00000000e+00)) ((3.52106989e-05 2.98240558e-05 1.01833982e-05) (-1.56587864e-07 -3.68722406e-07 1.24515852e-06) (0.00000000e+00 0.00000000e+00 0.00000000e+00))
18              	((-1.87453395e-03 3.07355874e-01 -7.91188511e-04) (-8.74461889e-05 6.20738331e-04 5.75617312e-06) (0.00000000e+00 0.00000000e+00 0.00000000e+00)) ((3.08289301e-05 2.01347255e-05 4.09139740e-05) (-6.74786431e-08 -3.45558241e-07 1.40659983e-06) (0.00000000e+00 0.00000000e+00 0.00000000e+00))
19              	((-1.45675502e-03 1.61561575e-02 -7.23179096e-04) (-7.55572572e-05 2.19113895e-03 9.35707708e-06) (0.00000000e+00 0.00000000e+00 0.00000000e+00)) ((1.85647409e-05 8.18759078e-06 3.45763009e-05) (-7.50240351e-08 -3.16932558e-07 1.20190364e-06) (0.00000000e+00 0.00000000e+00 0.00000000e+00))
20              	((-5.89771731e-04 -1.31306507e-01 -6.73831663e-04) (-5.56237537e-05 3.94436854e-03 8.53034676e-06) (0.00000000e+00 0.00000000e+00 0.00000000e+00)) ((4.81979322e-06 -2.87660542e-06 1.44251742e-05) (-1.19566598e-07 -2.78870313e-07 8.21395787e-07) (0.00000000e+00 0.00000000e+00 0.00000000e+00))
21              	((2.42442039e-04 -1.41021279e-01 -5.98698289e-04) (-3.86113405e-05 5.20859480e-03 6.25689625e-06) (0.00000000e+00 0.00000000e+00 0.00000000e+00)) ((-5.21540458e-06 -1.08001952e-05 -7.35304979e-06) (-2.21720769e-07 -2.44825080e-07 5.15286503e-07) (0.00000000e+00 0.00000000e+00 0.00000000e+00))
22              	((7.87269187e-04 -5.33971577e-02 -4.99737936e-04) (-2.85479306e-05 5.77586127e-03 3.34231331e-06) (0.00000000e+00 0.00000000e+00 0.00000000e+00)) ((-1.09357679e-05 -1.57562072e-05 -2.38066563e-05) (-2.77189429e-07 -2.04945552e-07 2.97480085e-07) (0.00000000e+00 0.00000000e+00 0.00000000e+00))
23              	((9.97267550e-04 7.72680722e-02 -3.98882327e-04) (-2.45676165e-05 5.73279608e-03 4.56681894e-07) (0.00000000e+00 0.00000000e+00 0.00000000e+00)) ((-1.19514943e-05 -1.74942116e-05 -3.42323643e-05) (-2.76599582e-07 -1.97084088e-07 2.31185744e-07) (0.00000000e+00 0.00000000e+00 0.00000000e+00))
24              	((6.83577566e-04 2.12534419e-01 -2.53480777e-04) (-2.35737635e-05 5.27151934e-03 -1.88483475e-06) (0.00000000e+00 0.00000000e+00 0.00000000e+00)) ((-8.93999625e-06 -1.53963479e-05 -2.56270878e-05) (-2.56466745e-07 -1.89460648e-07 1.97702177e-07) (0.00000000e+00 0.00000000e+00 0.00000000e+00))
25              	((1.88339376e-04 3.14431301e-01 -1.28081398e-04) (-2.45985023e-05 4.64845594e-03 -2.02087009e-06) (0.00000000e+00 0.00000000e+00 0.00000000e+00)) ((-4.83333453e-06 -1.06724455e-05 -9.30855201e-06) (-2.02905576e-07 -1.65791865e-07 1.82228431e-07) (0.00000000e+00 0.00000000e+00 0.00000000e+00))
26              	((-2.59101260e-04 3.64452977e-01 -5.63845953e-05) (-2.21839551e-05 4.04750840e-03 -1.10848708e-06) (0.00000000e+00 0.00000000e+00 0.00000000e+00)) ((-9.70306978e-07 -5.46566245e-06 6.09714972e-06) (-1.43216084e-07 -1.49953215e-07 1.70540651e-07) (0.00000000e+00 0.00000000e+00 0.00000000e+00))
27              	((-5.12907831e-04 3.65062772e-01 -2.39639829e-05) (-1.89252969e-05 3.57846754e-03 -6.47973046e-07) (0.00000000e+00 0.00000000e+00 0.00000000e+00)) ((1.81875332e-06 -5.98489660e-07 1.56617471e-05) (-1.07104497e-07 -1.35127391e-07 1.74368641e-07) (0.00000000e+00 0.00000000e+00 0.00000000e+00))
28              	((-5.69524332e-04 3.29074994e-01 -3.44833087e-05) (-1.70032903e-05 3.27972569e-03 4.52821083e-07) (0.00000000e+00 0.00000000e+00 0.00000000e+00)) ((3.16666421e-06 2.80412613e-06 1.88269272e-05) (-7.57940523e-08 -1.20502562e-07 1.80912612e-07) (0.00000000e+00 0.00000000e+00 0.00000000e+00))
29              	((-4.96421665e-04 2.76710467e-01 -6.80489718e-05) (-1.55318517e-05 3.13040860e-03 6.44800187e-07) (0.00000000e+00 0.00000000e+00 0.00000000e+00)) ((3.16624451e-06 4.50823634e-06 1.74690565e-05) (-6.94737980e-08 -1.01105164e-07 1.75400375e-07) (0.00000000e+00 0.00000000e+00 0.00000000e+00))
30              	((-2.83691029e-04 2.25020901e-01 -1.17520814e-04) (-1.32329877e-05 3.07588939e-03 1.56510685e-06) (0.00000000e+00 0.00000000e+00 0.00000000e+00)) ((2.10446630e-06 4.33660467e-06 1.02709938e-05) (-5.32225053e-08 -7.92345769e-08 1.38379511e-07) (0.00000000e+00 0.00000000e+00 0.00000000e+00))
31              	((-3.93391523e-05 1.87405679e-01 -1.56615475e-04) (-1.10635974e-05 3.05764038e-03 1.63654350e-06) (0.00000000e+00 0.00000000e+00 0.00000000e+00)) ((6.37061709e-07 2.93298789e-06 1.18100074e-06) (-5.50715184e-08 -6.36327011e-08 1.04425544e-07) (0.00000000e+00 0.00000000e+00 0.00000000e+00))
32              	((1.48691240e-04 1.69883423e-01 -1.74897690e-04) (-9.33598147e-06 3.03280248e-03 1.49488839e-06) (0.00000000e+00 0.00000000e+00 0.00000000e+00)) ((-7.29184522e-07 9.84274800e-07 -6.11501358e-06) (-6.39767039e-08 -5.23897255e-08 7.87771664e-08) (0.00000000e+00 0.00000000e+00 0.00000000e+00))
33              	((2.49380693e-04 1.71261815e-01 -1.73722054e-04) (-7.59690117e-06 2.97987843e-03 1.37526367e-06) (0.00000000e+00 0.00000000e+00 0.00000000e+00)) ((-1.74303006e-06 -9.37370727e-07 -1.03129590e-05) (-6.67774777e-08 -4.33083447e-08 4.09974839e-08) (0.00000000e+00 0.00000000e+00 0.00000000e+00))
34              	((2.58588816e-04 1.85490392e-01 -1.55240169e-04) (-6.28801890e-06 2.89637604e-03 1.69906950e-06) (0.00000000e+00 0.00000000e+00 0.00000000e+00)) ((-2.30193306e-06 -2.46323360e-06 -1.11170883e-05) (-6.12748461e-08 -3.34289605e-08 2.29443047e-08) (0.00000000e+00 0.00000000e+00 0.00000000e+00))
35              	((2.10965589e-04 2.05236975e-01 -1.22073243e-04) (-5.09567031e-06 2.79162979e-03 1.81482140e-06) (0.00000000e+00 0.00000000e+00 0.00000000e+00)) ((-2.30737549e-06 -3.40514748e-06 -9.59323323e-06) (-5.66992957e-08 -2.76934072e-08 1.52650066e-09) (0.00000000e+00 0.00000000e+00 0.00000000e+00))
36              	((1.04580870e-04 2.24895626e-01 -7.97626800e-05) (-4.42067317e-06 2.67876153e-03 1.35910787e-06) (0.00000000e+00 0.00000000e+00 0.00000000e+00)) ((-1.89185989e-06 -3.52579289e-06 -5.46184065e-06) (-6.15982347e-08 -1.84901664e-08 4.40675340e-09) (0.00000000e+00 0.00000000e+00 0.00000000e+00))
37              	((-1.75457893e-05 2.39803063e-01 -3.72578500e-05) (-3.71553725e-06 2.57049974e-03 1.28607381e-06) (0.00000000e+00 0.00000000e+00 0.00000000e+00)) ((-1.23227247e-06 -2.99496350e-06 -4.49700755e-07) (-5.12622276e-08 -2.07684316e-08 -9.38789481e-10) (0.00000000e+00 0.00000000e+00 0.00000000e+00))
38              	((-1.28554786e-04 2.48324754e-01 -5.17621912e-06) (-2.75459984e-06 2.47196684e-03 1.47110350e-06) (0.00000000e+00 0.00000000e+00 0.00000000e+00)) ((-5.54796593e-07 -2.01638726e-06 4.40990255e-06) (-4.14332930e-08 -1.83777679e-08 7.02148300e-10) (0.00000000e+00 0.00000000e+00 0.00000000e+00))
39              	((-1.87878596e-04 2.50000074e-01 1.87721426e-05) (-2.43949264e-06 2.38685577e-03 1.06286318e-06) (0.00000000e+00 0.00000000e+00 0.00000000e+00)) ((5.76980849e-08 -9.42917479e-07 7.20316161e-06) (-4.37759437e-08 -1.08098766e-08 1.40726991e-08) (0.00000000e+00 0.00000000e+00 0.00000000e+00))
40              	((-1.91872330e-04 2.46842032e-01 3.42683992e-05) (-1.28823252e-06 2.31211665e-03 8.51066126e-07) (0.00000000e+00 0.00000000e+00 0.00000000e+00)) ((5.50590245e-07 2.12866364e-08 7.61990749e-06) (-4.28600090e-08 -5.37080654e-09 2.83155489e-11) (0.00000000e+00 0.00000000e+00 0.00000000e+00))
41              	((-1.56678299e-04 2.41380061e-01 4.24003039e-05) (-6.89432843e-07 2.24396274e-03 5.85102809e-07) (0.00000000e+00 0.00000000e+00 0.00000000e+00)) ((9.20092677e-07 7.08529081e-07 6.23871686e-06) (-4.06749304e-08 -4.36712954e-10 -4.27060217e-09) (0.00000000e+00 0.00000000e+00 0.00000000e+00))
42              	((-1.02068379e-04 2.36027701e-01 4.83570994e-05) (-2.73802126e-07 2.18395882e-03 5.58872838e-07) (0.00000000e+00 0.00000000e+00 0.00000000e+00)) ((1.20448556e-06 1.10428544e-06 3.96490350e-06) (-3.18127186e-08 -1.14001616e-09 2.28610165e-09) (0.00000000e+00 0.00000000e+00 0.00000000e+00))
43              	((-4.49485079e-05 2.32417231e-01 5.49038611e-05) (2.16282209e-07 2.12949216e-03 1.39976802e-07) (0.00000000e+00 0.00000000e+00 0.00000000e+00)) ((1.43901077e-06 1.24728147e-06 1.42500955e-06) (-3.77404040e-08 -5.04423244e-10 2.68590367e-09) (0.00000000e+00 0.00000000e+00 0.00000000e+00))
44              	((1.36991591e-06 2.31145807e-01 6.25710667e-05) (7.51481675e-07 2.07973649e-03 -1.42849634e-08) (0.00000000e+00 0.00000000e+00 0.00000000e+00)) ((1.62772235e-06 1.20387794e-06 -7.18958432e-07) (-3.60211607e-08 -5.08824101e-10 -4.49715678e-09) (0.00000000e+00 0.00000000e+00 0.00000000e+00))
45              	((2.91230575e-05 2.31883869e-01 7.05380405e-05) (1.01446451e-06 2.03400192e-03 -4.08728523e-08) (0.00000000e+00 0.00000000e+00 0.00000000e+00)) ((1.78887505e-06 1.04600510e-06 -2.01643214e-06) (-3.30096788e-08 9.11322421e-10 3.50528164e-09) (0.00000000e+00 0.00000000e+00 0.00000000e+00))
46              	((4.03726323e-05 2.33832915e-01 7.96451307e-05) (1.39420741e-06 1.99263025e-03 -5.58172011e-07) (0.00000000e+00 0.00000000e+00 0.00000000e+00)) ((1.88277347e-06 8.63484448e-07 -2.58951681e-06) (-4.51471591e-08 6.63552758e-09 -6.36804356e-10) (0.00000000e+00 0.00000000e+00 0.00000000e+00))
47              	((3.73370136e-05 2.36491562e-01 8.79690387e-05) (1.77408934e-06 1.95569576e-03 -7.78825150e-07) (0.00000000e+00 0.00000000e+00 0.00000000e+00)) ((2.03263138e-06 7.27784520e-07 -2.52567699e-06) (-4.77007743e-08 2.72144028e-09 -4.22411599e-09) (0.00000000e+00 0.00000000e+00 0.00000000e+00))
48              	((2.36185757e-05 2.39163403e-01 9.50512367e-05) (1.95945391e-06 1.92251950e-03 -4.92959457e-07) (0.00000000e+00 0.00000000e+00 0.00000000e+00)) ((2.20537837e-06 6.82250527e-07 -1.93616365e-06) (-3.72469142e-08 -2.70012293e-09 -5.58001742e-09) (0.00000000e+00 0.00000000e+00 0.00000000e+00))
49              	((6.43499889e-06 2.41341872e-01 1.00120150e-04) (2.08444359e-06 1.89254317e-03 -4.54371938e-07) (0.00000000e+00 0.00000000e+00 0.00000000e+00)) ((2.35399268e-06 7.30070987e-07 -1.12121734e-06) (-3.43747221e-08 2.04612770e-09 -5.20781631e-09) (0.00000000e+00 0.00000000e+00 0.00000000e+00))
50              	((-7.82906507e-06 2.42792637e-01 1.02238996e-04) (2.33081737e-06 1.86578523e-03 -3.86357525e-07) (0.00000000e+00 0.00000000e+00 0.00000000e+00)) ((2.45290190e-06 8.55726219e-07 -4.16421458e-07) (-2.94215500e-08 5.82296744e-09 -1.02344021e-08) (0.00000000e+00 0.00000000e+00 0.00000000e+00))
51              	((-1.71768600e-05 2.43504353e-01 1.01513776e-04) (2.32738004e-06 1.84169806e-03 -3.91719772e-07) (0.00000000e+00 0.00000000e+00 0.00000000e+00)) ((2.49264679e-06 1.02295594e-06 1.41690664e-07) (-2.77748629e-08 8.47682776e-09 -2.80373595e-09) (0.00000000e+00 0.00000000e+00 0.00000000e+00))
52              	((-1.67864418e-05 2.43677780e-01 9.48056975e-05) (2.50995142e-06 1.82004603e-03 -4.41984556e-07) (0.00000000e+00 0.00000000e+00 0.00000000e+00)) ((2.49889818e-06 1.19767700e-06 2.61169941e-07) (-2.75788462e-08 6.13904032e-09 -7.39024669e-09) (0.00000000e+00 0.00000000e+00 0.00000000e+00))
53              	((-1.14296129e-05 2.43389232e-01 8.90861251e-05) (2.52572906e-06 1.80088265e-03 -4.55637887e-07) (0.00000000e+00 0.00000000e+00 0.00000000e+00)) ((2.43323774e-06 1.32849185e-06 1.61164421e-07) (-2.66123212e-08 5.68092194e-09 2.64160979e-09) (0.00000000e+00 0.00000000e+00 0.00000000e+00))
54              	((-1.70162842e-06 2.42939344e-01 8.53707187e-05) (2.81455901e-06 1.78392182e-03 -4.40796527e-07) (0.00000000e+00 0.00000000e+00 0.00000000e+00)) ((2.33834414e-06 1.40330651e-06 -1.99962076e-07) (-2.57198784e-08 9.10914711e-09 -4.22493979e-09) (0.00000000e+00 0.00000000e+00 0.00000000e+00))
55              	((8.45168576e-06 2.42561094e-01 8.31331772e-05) (2.89071687e-06 1.76940747e-03 -2.70625336e-07) (0.00000000e+00 0.00000000e+00 0.00000000e+00)) ((2.23642060e-06 1.42413024e-06 -6.06299684e-07) (-1.92518836e-08 1.24084647e-08 -1.30715936e-09) (0.00000000e+00 0.00000000e+00 0.00000000e+00))
56              	((1.64250937e-05 2.42352464e-01 8.47823712e-05) (3.17167154e-06 1.75685547e-03 -4.04923361e-07) (0.00000000e+00 0.00000000e+00 0.00000000e+00)) ((2.12586962e-06 1.38942661e-06 -9.73446076e-07) (-2.21802184e-08 9.13415526e-09 -9.97441893e-09) (0.00000000e+00 0.00000000e+00 0.00000000e+00))
57              	((2.23602225e-05 2.42351297e-01 8.52572247e-05) (3.10898030e-06 1.74676873e-03 -5.39881292e-07) (0.00000000e+00 0.00000000e+00 0.00000000e+00)) ((2.04484153e-06 1.34244476e-06 -1.22590479e-06) (-2.64034742e-08 8.22686539e-09 -1.87306989e-09) (0.00000000e+00 0.00000000e+00 0.00000000e+00))
58              	((2.61626478e-05 2.42530393e-01 8.47811971e-05) (3.05778114e-06 1.73911150e-03 -2.99072423e-07) (0.00000000e+00 0.00000000e+00 0.00000000e+00)) ((2.00289267e-06 1.30132176e-06 -1.38649605e-06) (-1.76838086e-08 1.34390114e-08 3.67427819e-09) (0.00000000e+00 0.00000000e+00 0.00000000e+00))
59              	((2.92100961e-05 2.42816695e-01 8.30423975e-05) (3.28477323e-06 1.73384623e-03 -1.23470490e-07) (0.00000000e+00 0.00000000e+00 0.00000000e+00)) ((1.96715643e-06 1.27138691e-06 -1.53839763e-06) (-1.11688546e-08 1.59478205e-08 -2.41119499e-09) (0.00000000e+00 0.00000000e+00 0.00000000e+00))
60              	((3.20482062e-05 2.43126143e-01 8.01380153e-05) (3.52380484e-06 1.73083770e-03 -1.45088385e-07) (0.00000000e+00 0.00000000e+00 0.00000000e+00)) ((1.93733635e-06 1.25686738e-06 -1.69645909e-06) (-1.14054430e-08 1.42709919e-08 -1.07427049e-08) (0.00000000e+00 0.00000000e+00 0.00000000e+00))
61              	((3.26553383e-05 2.43384939e-01 7.67034398e-05) (3.38835130e-06 1.72964768e-03 -2.00006904e-07) (0.00000000e+00 0.00000000e+00 0.00000000e+00)) ((1.89767138e-06 1.25919618e-06 -1.70292750e-06) (-1.38114736e-08 1.65310710e-08 -2.11100236e-09) (0.00000000e+00 0.00000000e+00 0.00000000e+00))
62              	((3.43298368e-05 2.43548364e-01 7.33280120e-05) (3.45696756e-06 1.73035288e-03 -1.25933903e-07) (0.00000000e+00 0.00000000e+00 0.00000000e+00)) ((1.84712841e-06 1.26939416e-06 -1.76010432e-06) (-1.07211105e-08 1.86584154e-08 -6.26008022e-09) (0.00000000e+00 0.00000000e+00 0.00000000e+00))
63              	((3.63044404e-05 2.43591166e-01 6.94740949e-05) (3.37212029e-06 1.73247309e-03 -7.54215154e-08) (0.00000000e+00 0.00000000e+00 0.00000000e+00)) ((1.78458164e-06 1.27758042e-06 -1.79172775e-06) (-7.02435435e-09 1.92944129e-08 -2.03649304e-09) (0.00000000e+00 0.00000000e+00 0.00000000e+00))
64              	((3.91440164e-05 2.43503916e-01 6.61320428e-05) (3.38651216e-06 1.73549890e-03 -4.95745539e-08) (0.00000000e+00 0.00000000e+00 0.00000000e+00)) ((1.70617185e-06 1.28005592e-06 -1.88067776e-06) (-6.32604044e-09 1.85133735e-08 -5.02131203e-09) (0.00000000e+00 0.00000000e+00 0.00000000e+00))
65              	((4.05513099e-05 2.43295544e-01 6.37573363e-05) (3.22927220e-06 1.73969056e-03 2.04015120e-08) (0.00000000e+00 0.00000000e+00 0.00000000e+00)) ((1.60810223e-06 1.26853994e-06 -1.88020398e-06) (-3.11498345e-09 1.86140391e-08 1.14351964e-09) (0.00000000e+00 0.00000000e+00 0.00000000e+00))
66              	((4.18709304e-05 2.42997341e-01 6.24787751e-05) (3.24498175e-06 1.74459606e-03 -1.46070549e-08) (0.00000000e+00 0.00000000e+00 0.00000000e+00)) ((1.52651085e-06 1.24614225e-06 -1.90972702e-06) (-5.97014526e-09 1.85670545e-08 -2.89815160e-09) (0.00000000e+00 0.00000000e+00 0.00000000e+00))
67              	((4.30112029e-05 2.42645341e-01 6.25066010e-05) (3.21404240e-06 1.74975876e-03 3.51007791e-08) (0.00000000e+00 0.00000000e+00 0.00000000e+00)) ((1.45760200e-06 1.22012967e-06 -1.95235592e-06) (-5.74977274e-09 1.88407138e-08 -5.30884147e-09) (0.00000000e+00 0.00000000e+00 0.00000000e+00))
68              	((4.32747733e-05 2.42274309e-01 6.29137417e-05) (3.12258638e-06 1.75559896e-03 4.21542444e-08) (0.00000000e+00 0.00000000e+00 0.00000000e+00)) ((1.38946519e-06 1.19346653e-06 -1.97366446e-06) (-3.17028900e-09 1.80845873e-08 -4.78395995e-09) (0.00000000e+00 0.00000000e+00 0.00000000e+00))
69              	((4.35601925e-05 2.41904803e-01 6.35970508e-05) (2.99908823e-06 1.76164324e-03 -4.58060944e-07) (0.00000000e+00 0.00000000e+00 0.00000000e+00)) ((1.34761531e-06 1.16932387e-06 -1.99577423e-06) (-1.31251745e-08 1.76928362e-08 -3.15139189e-09) (0.00000000e+00 0.00000000e+00 0.00000000e+00))
70              	((4.36304865e-05 2.41547739e-01 6.37696628e-05) (2.84599119e-06 1.76787923e-03 -3.09163898e-07) (0.00000000e+00 0.00000000e+00 0.00000000e+00)) ((1.30642269e-06 1.15353650e-06 -2.02579337e-06) (-1.12846374e-08 1.76541276e-08 -8.69594320e-10) (0.00000000e+00 0.00000000e+00 0.00000000e+00))
71              	((4.51318120e-05 2.41207075e-01 6.25070882e-05) (2.77692603e-06 1.77418182e-03 -3.38306278e-08) (0.00000000e+00 0.00000000e+00 0.00000000e+00)) ((1.23687907e-06 1.14304748e-06 -2.11587532e-06) (-4.33763304e-09 1.64014550e-08 -5.70855394e-10) (0.00000000e+00 0.00000000e+00 0.00000000e+00))
72              	((4.70836500e-05 2.40880192e-01 6.06132823e-05) (2.66312369e-06 1.78087374e-03 -2.32401614e-07) (0.00000000e+00 0.00000000e+00 0.00000000e+00)) ((1.17146197e-06 1.13392806e-06 -2.22496428e-06) (-7.60872253e-09 1.63957966e-08 9.79610911e-12) (0.00000000e+00 0.00000000e+00 0.00000000e+00))
73              	((4.78796957e-05 2.40554020e-01 5.89308051e-05) (2.52544283e-06 1.78751235e-03 -3.40253613e-07) (0.00000000e+00 0.00000000e+00 0.00000000e+00)) ((1.12559276e-06 1.12266395e-06 -2.28622924e-06) (-1.30889560e-08 1.74130071e-08 8.64319608e-10) (0.00000000e+00 0.00000000e+00 0.00000000e+00))
74              	((4.78977434e-05 2.40216537e-01 5.72673829e-05) (2.43351805e-06 1.79395347e-03 -1.42945619e-07) (0.00000000e+00 0.00000000e+00 0.00000000e+00)) ((1.06835691e-06 1.11114376e-06 -2.28882404e-06) (-7.92597452e-09 1.81718549e-08 9.28217322e-10) (0.00000000e+00 0.00000000e+00 0.00000000e+00))
75              	((4.66105447e-05 2.39863948e-01 5.59444899e-05) (2.31318961e-06 1.80028567e-03 -4.75792093e-07) (0.00000000e+00 0.00000000e+00 0.00000000e+00)) ((1.01700151e-06 1.09906262e-06 -2.24069257e-06) (-1.18034360e-08 1.59061885e-08 1.77542526e-09) (0.00000000e+00 0.00000000e+00 0.00000000e+00))
76              	((4.55636939e-05 2.39496782e-01 5.49161477e-05) (2.23973533e-06 1.80653360e-03 -3.38082013e-07) (0.00000000e+00 0.00000000e+00 0.00000000e+00)) ((9.76234388e-07 1.08720432e-06 -2.19939413e-06) (-1.15904604e-08 1.45836329e-08 1.19016083e-09) (0.00000000e+00 0.00000000e+00 0.00000000e+00))
77              	((4.50876474e-05 2.39120319e-01 5.34282565e-05) (2.15637215e-06 1.81259210e-03 -6.33950939e-08) (0.00000000e+00 0.00000000e+00 0.00000000e+00)) ((9.12883069e-07 1.07186796e-06 -2.17208825e-06) (-4.61041940e-09 1.37888289e-08 1.54388919e-09) (0.00000000e+00 0.00000000e+00 0.00000000e+00))
78              	((4.39431997e-05 2.38742044e-01 5.21329035e-05) (2.01782459e-06 1.81853011e-03 -3.16427580e-07) (0.00000000e+00 0.00000000e+00 0.00000000e+00)) ((8.63574502e-07 1.05234239e-06 -2.11449457e-06) (-9.57755000e-09 1.63663564e-08 3.68291513e-09) (0.00000000e+00 0.00000000e+00 0.00000000e+00))
79              	((4.29500623e-05 2.38367493e-01 5.09483434e-05) (1.90941605e-06 1.82439585e-03 -6.50453033e-07) (0.00000000e+00 0.00000000e+00 0.00000000e+00)) ((8.28565861e-07 1.02941267e-06 -2.06450676e-06) (-1.40191102e-08 1.57125139e-08 4.33813599e-09) (0.00000000e+00 0.00000000e+00 0.00000000e+00))
80              	((4.22523284e-05 2.38002935e-01 4.98892433e-05) (1.84568734e-06 1.82998313e-03 -1.15126042e-07) (0.00000000e+00 0.00000000e+00 0.00000000e+00)) ((7.92507749e-07 1.00752242e-06 -2.02743654e-06) (-8.23474828e-09 1.57665752e-08 4.81604244e-09) (0.00000000e+00 0.00000000e+00 0.00000000e+00))
81              	((4.19207879e-05 2.37651746e-01 4.90100010e-05) (1.79171911e-06 1.83535446e-03 -3.36256889e-07) (0.00000000e+00 0.00000000e+00 0.00000000e+00)) ((7.64390375e-07 9.88440825e-07 -2.00674692e-06) (-1.01142190e-08 1.52862880e-08 4.29438176e-09) (0.00000000e+00 0.00000000e+00 0.00000000e+00))
82              	((4.09804520e-05 2.37315792e-01 4.82457950e-05) (1.69252876e-06 1.84057525e-03 -3.28874089e-07) (0.00000000e+00 0.00000000e+00 0.00000000e+00)) ((7.38874963e-07 9.71408439e-07 -1.97345347e-06) (-9.51450136e-09 1.40138712e-08 5.48258798e-09) (0.00000000e+00 0.00000000e+00 0.00000000e+00))
83              	((4.01086980e-05 2.36994564e-01 4.74156430e-05) (1.64390083e-06 1.84558336e-03 -1.56867385e-07) (0.00000000e+00 0.00000000e+00 0.00000000e+00)) ((7.07654046e-07 9.58822903e-07 -1.94068487e-06) (-7.53088971e-09 1.33631065e-08 5.39444169e-09) (0.00000000e+00 0.00000000e+00 0.00000000e+00))
84              	((3.92308249e-05 2.36684227e-01 4.67306919e-05) (1.57116676e-06 1.85029963e-03 -5.67774038e-07) (0.00000000e+00 0.00000000e+00 0.00000000e+00)) ((6.90223754e-07 9.46648521e-07 -1.90361668e-06) (-1.13843773e-08 1.34210779e-08 6.09686875e-09) (0.00000000e+00 0.00000000e+00 0.00000000e+00))
85              	((3.82522475e-05 2.36383849e-01 4.57958915e-05) (1.50614916e-06 1.85484360e-03 -2.35956526e-07) (0.00000000e+00 0.00000000e+00 0.00000000e+00)) ((6.63798840e-07 9.33093034e-07 -1.86210737e-06) (-7.66878381e-09 1.30997334e-08 6.53735945e-09) (0.00000000e+00 0.00000000e+00 0.00000000e+00))
86              	((3.74710415e-05 2.36092867e-01 4.46044814e-05) (1.46958409e-06 1.85933101e-03 -1.98854897e-07) (0.00000000e+00 0.00000000e+00 0.00000000e+00)) ((6.31487510e-07 9.19988963e-07 -1.82336251e-06) (-7.00230133e-09 1.29568350e-08 6.47069332e-09) (0.00000000e+00 0.00000000e+00 0.00000000e+00))
87              	((3.63165337e-05 2.35809340e-01 4.35335547e-05) (1.38055640e-06 1.86353235e-03 -4.32419840e-07) (0.00000000e+00 0.00000000e+00 0.00000000e+00)) ((6.07138195e-07 9.05141179e-07 -1.77449076e-06) (-9.18448084e-09 1.24704722e-08 7.78351786e-09) (0.00000000e+00 0.00000000e+00 0.00000000e+00))
88              	((3.54866154e-05 2.35534352e-01 4.27351742e-05) (1.33134659e-06 1.86760327e-03 -2.03909296e-07) (0.00000000e+00 0.00000000e+00 0.00000000e+00)) ((5.86119902e-07 8.92745355e-07 -1.73266451e-06) (-6.52344798e-09 1.28352461e-08 7.94710050e-09) (0.00000000e+00 0.00000000e+00 0.00000000e+00))
89              	((3.47430331e-05 2.35267996e-01 4.21959374e-05) (1.29308500e-06 1.87160309e-03 -1.30575176e-07) (0.00000000e+00 0.00000000e+00 0.00000000e+00)) ((5.69746342e-07 8.82099777e-07 -1.69940056e-06) (-5.60132269e-09 1.24687384e-08 8.22803632e-09) (0.00000000e+00 0.00000000e+00 0.00000000e+00))
90              	((3.40909327e-05 2.35009536e-01 4.18029099e-05) (1.26965232e-06 1.87547595e-03 -4.14250666e-07) (0.00000000e+00 0.00000000e+00 0.00000000e+00)) ((5.62995409e-07 8.73418392e-07 -1.66483313e-06) (-7.96725381e-09 1.25954124e-08 7.92605131e-09) (0.00000000e+00 0.00000000e+00 0.00000000e+00))
91              	((3.33791083e-05 2.34757602e-01 4.14769721e-05) (1.20263779e-06 1.87917905e-03 -2.01017749e-07) (0.00000000e+00 0.00000000e+00 0.00000000e+00)) ((5.52865114e-07 8.66113552e-07 -1.63136466e-06) (-5.56701618e-09 1.29471417e-08 8.44304801e-09) (0.00000000e+00 0.00000000e+00 0.00000000e+00))
92              	((3.26451877e-05 2.34512212e-01 4.11403435e-05) (1.13662260e-06 1.88284633e-03 -1.01998768e-07) (0.00000000e+00 0.00000000e+00 0.00000000e+00)) ((5.38562541e-07 8.58180055e-07 -1.59714866e-06) (-4.66797388e-09 1.27974125e-08 9.21273692e-09) (0.00000000e+00 0.00000000e+00 0.00000000e+00))
93              	((3.18843861e-05 2.34273396e-01 4.06137088e-05) (1.13150378e-06 1.88635229e-03 -3.04214111e-07) (0.00000000e+00 0.00000000e+00 0.00000000e+00)) ((5.27393900e-07 8.49760942e-07 -1.55955902e-06) (-6.45219861e-09 1.26527859e-08 8.82270151e-09) (0.00000000e+00 0.00000000e+00 0.00000000e+00))
94              	((3.13762294e-05 2.34044261e-01 4.02263480e-05) (1.12934880e-06 1.88980439e-03 -5.93112754e-08) (0.00000000e+00 0.00000000e+00 0.00000000e+00)) ((5.16294815e-07 8.43195801e-07 -1.52845621e-06) (-3.46374686e-09 1.32477591e-08 8.39637806e-09) (0.00000000e+00 0.00000000e+00 0.00000000e+00))
95              	((3.05955426e-05 2.33820624e-01 3.98799920e-05) (1.07227613e-06 1.89325775e-03 -2.07669589e-07) (0.00000000e+00 0.00000000e+00 0.00000000e+00)) ((5.05001635e-07 8.36627637e-07 -1.49123713e-06) (-5.23965680e-09 1.31081887e-08 9.07665863e-09) (0.00000000e+00 0.00000000e+00 0.00000000e+00))
96              	((2.95413096e-05 2.33602308e-01 3.94942868e-05) (9.68329540e-07 1.89657237e-03 -3.15495882e-07) (0.00000000e+00 0.00000000e+00 0.00000000e+00)) ((4.97508583e-07 8.30824762e-07 -1.44278908e-06) (-6.05661957e-09 1.26962226e-08 1.02089436e-08) (0.00000000e+00 0.00000000e+00 0.00000000e+00))
97              	((2.81602983e-05 2.33390770e-01 3.91936068e-05) (8.74740347e-07 1.89982524e-03 -7.89022077e-08) (0.00000000e+00 0.00000000e+00 0.00000000e+00)) ((4.87940427e-07 8.27742347e-07 -1.38947744e-06) (-3.22556397e-09 1.34590748e-08 1.13972655e-08) (0.00000000e+00 0.00000000e+00 0.00000000e+00))
98              	((2.75168818e-05 2.33182468e-01 3.90104490e-05) (1.00562334e-06 1.90310593e-03 -2.27873299e-07) (0.00000000e+00 0.00000000e+00 0.00000000e+00)) ((4.80732242e-07 8.25159806e-07 -1.35741201e-06) (-4.87330542e-09 1.29766268e-08 9.39921285e-09) (0.00000000e+00 0.00000000e+00 0.00000000e+00))