/*--------------------------------*- C++ -*----------------------------------*\
  =========                 |
  \\      /  F ield         | OpenFOAM: The Open Source CFD Toolbox
   \\    /   O peration     | Website:  https://openfoam.org
    \\  /    A nd           | Version:  8
     \\/     M anipulation  |
\*---------------------------------------------------------------------------*/
FoamFile
{
    version     2.0;
    format      ascii;
    class       volScalarField;
    location    "0";
    object      k;
}
// * * * * * * * * * * * * * * * * * * * * * * * * * * * * * * * * * * * * * //

dimensions      [0 2 -2 0 0 0 0];

internalField   nonuniform List<scalar> 
15677
(
0.126776
0.483295
0.191681
0.416591
1.32486
0.344442
0.385482
0.710141
1.96802
0.351471
0.378145
0.442836
1.32676
1.92242
0.353367
0.37579
0.384544
0.627245
1.64602
1.87821
0.352742
0.374812
0.373847
0.407255
0.988004
1.77603
1.84269
0.35209
0.374388
0.372079
0.368851
0.499508
1.30902
1.83403
1.81654
0.353276
0.374052
0.371827
0.366215
0.37369
0.695497
1.51232
1.86456
1.80325
0.352406
0.373715
0.37203
0.367307
0.355889
0.407291
0.951881
1.6296
1.8892
1.7864
0.352122
0.373412
0.372343
0.368633
0.358278
0.354929
0.492969
1.16248
1.71315
1.89564
1.77535
0.352283
0.373209
0.372432
0.369666
0.36189
0.352089
0.362119
0.637149
1.32637
1.75865
1.90037
1.76796
0.353415
0.373128
0.372123
0.370245
0.364548
0.355987
0.344908
0.388099
0.804066
1.4356
1.79172
1.90272
1.76517
0.355073
0.373136
0.371584
0.370213
0.366281
0.359667
0.348657
0.344761
0.444878
0.955793
1.51443
1.81344
1.90612
1.76556
0.356967
0.373176
0.371044
0.369739
0.367175
0.362287
0.353839
0.343539
0.349222
0.527715
1.0822
1.56975
1.8307
1.90837
1.7684
0.359603
0.373233
0.370658
0.369012
0.367318
0.363925
0.35773
0.348532
0.33944
0.361677
0.621734
1.17952
1.61223
1.84164
1.91105
1.77487
0.363885
0.373283
0.370422
0.368355
0.366893
0.364683
0.360319
0.353265
0.343699
0.337134
0.38609
0.715951
1.25629
1.64109
1.84981
1.91423
1.78748
0.368231
0.373315
0.37028
0.367885
0.366232
0.364681
0.3618
0.356686
0.34897
0.339387
0.338031
0.423168
0.804813
1.31333
1.66267
1.8551
1.92046
1.80176
0.373804
0.373332
0.370182
0.367567
0.365644
0.364209
0.362334
0.358862
0.353096
0.344956
0.336033
0.341464
0.466105
0.881518
1.35671
1.67731
1.86036
1.92717
1.82077
0.380037
0.373336
0.370105
0.367349
0.365185
0.363624
0.362153
0.359945
0.355918
0.349687
0.341167
0.333703
0.348564
0.511367
0.945528
1.38864
1.68803
1.86422
1.93652
1.84273
0.387095
0.373326
0.370039
0.36719
0.364848
0.363092
0.361676
0.360104
0.357539
0.353088
0.346394
0.337979
0.33203
0.358809
0.556744
0.99654
1.41219
1.69489
1.86798
1.94674
1.86805
0.394862
0.373316
0.369982
0.367066
0.364598
0.362662
0.361135
0.359804
0.358061
0.355212
0.35036
0.343414
0.335074
0.33206
0.371826
0.599304
1.0365
1.42851
1.69871
1.87124
1.95859
1.89632
0.403358
0.373309
0.369937
0.366965
0.364408
0.362329
0.360644
0.359314
0.357961
0.356098
0.352981
0.347826
0.340677
0.332816
0.332633
0.385743
0.636933
1.06668
1.43853
1.70033
1.87428
1.97171
1.92748
0.412585
0.373303
0.369905
0.366887
0.364257
0.362072
0.360238
0.358804
0.357558
0.356226
0.354226
0.350905
0.345508
0.338254
0.331041
0.333906
0.40167
0.668845
1.08792
1.44475
1.69976
1.87711
1.98626
1.96147
0.422413
0.373299
0.369883
0.36683
0.364141
0.36187
0.359912
0.358347
0.357051
0.355948
0.354582
0.352511
0.349021
0.343431
0.336216
0.329601
0.336351
0.416628
0.694755
1.1026
1.44575
1.69806
1.8801
2.00229
1.9978
0.432706
0.373296
0.369868
0.366788
0.364056
0.361715
0.359652
0.357964
0.356554
0.355482
0.354429
0.35312
0.350971
0.347363
0.341656
0.334488
0.328718
0.339189
0.430496
0.714527
1.11132
1.44444
1.69492
1.88333
2.01942
2.03594
0.443494
0.373294
0.369857
0.366757
0.363994
0.361602
0.359453
0.35765
0.356114
0.354973
0.354013
0.353129
0.351813
0.349665
0.345979
0.340192
0.33315
0.328209
0.342441
0.441987
0.729506
1.11442
1.44098
1.69085
1.88656
2.03746
2.07637
0.454701
0.373292
0.369849
0.366733
0.363948
0.361517
0.359306
0.357407
0.355741
0.354494
0.353498
0.352792
0.351967
0.350783
0.348642
0.344922
0.339099
0.332172
0.32826
0.345498
0.451922
0.738459
1.11368
1.43479
1.68603
1.8899
2.05622
2.11852
0.46619
0.373291
0.369843
0.366714
0.363913
0.361453
0.359197
0.357225
0.355447
0.354073
0.352981
0.352295
0.351712
0.351134
0.349982
0.347891
0.344174
0.338337
0.331596
0.328534
0.34854
0.458955
0.744611
1.1109
1.4271
1.68065
1.89331
2.07572
2.16186
0.477938
0.37329
0.369839
0.366699
0.363886
0.361403
0.359114
0.357087
0.355225
0.353732
0.352507
0.351758
0.351244
0.350979
0.350459
0.349566
0.347668
0.344037
0.33822
0.331631
0.329143
0.351145
0.464519
0.745068
1.10519
1.41818
1.67484
1.89692
2.09568
2.20626
0.489737
0.373289
0.369835
0.366687
0.363865
0.361364
0.35905
0.35698
0.355056
0.353469
0.352111
0.351247
0.350691
0.350537
0.350422
0.350352
0.349657
0.347853
0.344266
0.338452
0.331913
0.330073
0.353572
0.467588
0.743868
1.09725
1.40831
1.66882
1.90057
2.11625
2.25113
0.503058
0.373288
0.369833
0.366678
0.363848
0.361333
0.359
0.356897
0.354926
0.353264
0.351801
0.350809
0.350131
0.349975
0.350062
0.350463
0.350569
0.350071
0.348433
0.344926
0.339102
0.332588
0.331327
0.355614
0.469292
0.740876
1.08776
1.39785
1.6626
1.90453
2.13698
2.30185
0.517893
0.373288
0.369831
0.36667
0.363835
0.361308
0.358961
0.35683
0.354825
0.353104
0.35156
0.350459
0.34963
0.349393
0.34951
0.350144
0.350779
0.351184
0.350991
0.349631
0.346251
0.340393
0.333881
0.33287
0.357511
0.46921
0.735303
1.07725
1.38694
1.65647
1.90852
2.16051
2.35812
0.532449
0.373287
0.369829
0.366664
0.363825
0.361288
0.35893
0.356776
0.354745
0.352975
0.351371
0.350179
0.34922
0.348866
0.348881
0.349602
0.350527
0.351535
0.352422
0.352675
0.351611
0.348342
0.342403
0.335733
0.334764
0.359166
0.468624
0.728464
1.06599
1.37592
1.65034
1.91334
2.18676
2.41367
0.54666
0.373287
0.369828
0.366659
0.363816
0.361271
0.358904
0.356733
0.354681
0.352871
0.351221
0.349952
0.348893
0.348429
0.348273
0.348963
0.350008
0.351379
0.352996
0.354446
0.355147
0.354408
0.351236
0.345131
0.33819
0.337
0.360791
0.467354
0.720641
1.05437
1.36486
1.64385
1.91884
2.21292
2.46831
0.560484
0.369826
0.37329
0.366655
0.363808
0.361256
0.358883
0.356697
0.35463
0.352786
0.351102
0.349768
0.348631
0.348067
0.34775
0.348335
0.34936
0.3509
0.352996
0.35526
0.35733
0.358532
0.358135
0.355011
0.348654
0.341271
0.33963
0.362506
0.465426
0.712288
1.04257
1.3528
1.63691
1.92461
2.23885
2.52173
0.573892
0.366652
0.369836
0.373297
0.363802
0.361244
0.358866
0.356667
0.354587
0.352716
0.351004
0.349616
0.348422
0.347765
0.347316
0.347787
0.348705
0.350254
0.352592
0.355432
0.358455
0.361206
0.362963
0.362897
0.359764
0.353012
0.345039
0.34266
0.364353
0.463375
0.703598
1.02957
1.33979
1.63053
1.93058
2.26443
2.57373
0.586805
0.363797
0.366665
0.369856
0.373304
0.361234
0.358851
0.356642
0.354552
0.352658
0.350925
0.34949
0.348252
0.347512
0.346971
0.347324
0.348122
0.349576
0.351961
0.355143
0.358843
0.362733
0.366236
0.368571
0.368814
0.36556
0.358278
0.349496
0.346153
0.366449
0.461206
0.693982
1.01554
1.32744
1.62466
1.93674
2.28967
2.62401
0.599195
0.361225
0.363812
0.366694
0.369878
0.373311
0.358839
0.35662
0.354522
0.352609
0.350858
0.349384
0.348113
0.347299
0.346693
0.346924
0.347622
0.34896
0.35126
0.354576
0.358728
0.363416
0.368278
0.372579
0.375501
0.375977
0.372491
0.364467
0.354698
0.350092
0.368792
0.459087
0.683436
1.00218
1.3159
1.61942
1.94318
2.31437
2.67244
0.61103
0.358828
0.361241
0.363848
0.366724
0.3699
0.373319
0.356603
0.354497
0.352569
0.350803
0.349296
0.347997
0.34712
0.346465
0.346582
0.347197
0.348425
0.350603
0.353901
0.358278
0.363554
0.369384
0.375259
0.380412
0.383874
0.384505
0.380587
0.37164
0.360618
0.354522
0.371823
0.456899
0.673534
0.989744
1.30514
1.6148
1.94974
2.33853
2.71888
0.622306
0.356587
0.358846
0.361282
0.363886
0.366756
0.369923
0.373326
0.354476
0.352534
0.350756
0.349221
0.347901
0.346968
0.346276
0.346292
0.346836
0.347969
0.350022
0.35325
0.35768
0.363304
0.369844
0.376929
0.383902
0.389887
0.393837
0.394447
0.389931
0.37977
0.367293
0.359964
0.375615
0.455445
0.664278
0.978137
1.29533
1.61072
1.95655
2.36206
2.76327
0.633013
0.354458
0.356605
0.358894
0.361325
0.363926
0.36679
0.369946
0.373335
0.352505
0.350716
0.349158
0.347819
0.34684
0.346118
0.346048
0.34653
0.347582
0.349524
0.352668
0.35708
0.362856
0.369906
0.377892
0.386312
0.394397
0.401189
0.405467
0.405913
0.400489
0.388896
0.375498
0.366695
0.380055
0.454304
0.655902
0.967626
1.28631
1.60733
1.96349
2.38493
2.80555
0.643154
0.352479
0.354476
0.356655
0.358945
0.361371
0.363968
0.366824
0.369971
0.373343
0.350682
0.349104
0.34775
0.34673
0.345984
0.345841
0.346271
0.347254
0.349099
0.352163
0.356535
0.362375
0.369722
0.378397
0.387962
0.397772
0.406973
0.414429
0.418906
0.418873
0.412325
0.400081
0.385633
0.374062
0.384844
0.454015
0.648336
0.957915
1.27819
1.60446
1.9706
2.40706
2.8457
0.652737
0.350653
0.352492
0.354532
0.35671
0.358998
0.361418
0.36401
0.36686
0.369996
0.373352
0.349058
0.34769
0.346636
0.34587
0.345664
0.346051
0.346974
0.348738
0.351732
0.356059
0.361929
0.369461
0.378623
0.389123
0.400356
0.411601
0.421805
0.429812
0.434151
0.433432
0.42681
0.413841
0.396681
0.382018
0.390261
0.45428
0.641755
0.949327
1.27085
1.60216
1.97776
2.42844
2.88374
0.661772
0.349018
0.350662
0.352545
0.354591
0.356768
0.359054
0.361468
0.364055
0.366897
0.370022
0.373361
0.347639
0.346555
0.345774
0.345512
0.345862
0.346736
0.348431
0.351364
0.355652
0.361539
0.369206
0.378727
0.389967
0.40244
0.41544
0.428036
0.439161
0.447377
0.451369
0.451282
0.444627
0.428802
0.408512
0.390391
0.395777
0.454972
0.635878
0.94138
1.26429
1.6003
1.98498
2.44901
2.91968
0.670277
0.347595
0.349016
0.350713
0.352603
0.354654
0.356829
0.359112
0.36152
0.364102
0.366935
0.370049
0.37337
0.346485
0.345691
0.345381
0.3457
0.346533
0.348169
0.351052
0.355307
0.361208
0.368987
0.3788
0.390637
0.404183
0.418812
0.433531
0.447438
0.459128
0.467363
0.472624
0.473374
0.464024
0.44477
0.42096
0.399236
0.401377
0.456279
0.631035
0.934118
1.25838
1.59893
1.99217
2.46877
2.95357
0.678268
0.346425
0.347585
0.349054
0.350769
0.352665
0.354721
0.356894
0.359173
0.361574
0.36415
0.366975
0.370077
0.373379
0.345619
0.345267
0.345561
0.346358
0.347945
0.350785
0.355015
0.360931
0.368811
0.378881
0.391233
0.405702
0.421849
0.438648
0.455112
0.469972
0.482066
0.492209
0.499145
0.497607
0.484782
0.461546
0.433875
0.408414
0.407059
0.458001
0.627055
0.927544
1.25314
1.5979
1.99934
2.48769
2.98546
0.685768
0.345557
0.346393
0.347612
0.349098
0.35083
0.352733
0.354792
0.356962
0.359237
0.361631
0.3642
0.367017
0.370105
0.373389
0.345167
0.34544
0.346207
0.347754
0.350558
0.354767
0.360702
0.368676
0.37898
0.391798
0.407097
0.424615
0.443478
0.462599
0.480459
0.496162
0.510851
0.523552
0.528495
0.523765
0.506696
0.478933
0.447105
0.4178
0.412794
0.460038
0.623824
0.921632
1.24845
1.59729
2.0064
2.50577
3.01544
0.692798
0.34508
0.345515
0.34639
0.347645
0.349149
0.350896
0.352805
0.354867
0.357033
0.359303
0.36169
0.364251
0.367059
0.370133
0.373398
0.345335
0.346077
0.34759
0.350362
0.354557
0.360511
0.368576
0.379099
0.392347
0.408417
0.427204
0.448004
0.469948
0.491088
0.510318
0.529405
0.547676
0.558676
0.560495
0.551609
0.529552
0.496747
0.460501
0.427278
0.418544
0.462323
0.621213
0.916345
1.24432
1.59691
2.01336
2.52301
3.04356
0.699378
0.345245
0.344986
0.345491
0.346393
0.347685
0.349207
0.350967
0.352883
0.354945
0.357108
0.359371
0.361751
0.364305
0.367101
0.370161
0.373407
0.345963
0.347449
0.350194
0.354377
0.360353
0.368504
0.379232
0.392884
0.409678
0.429661
0.452312
0.477029
0.50183
0.525159
0.548744
0.57268
0.589617
0.597532
0.594972
0.580915
0.553124
0.514798
0.473926
0.436745
0.424269
0.464788
0.619144
0.911634
1.24065
1.59694
2.02018
2.53941
3.06991
0.705537
0.345865
0.345127
0.344882
0.345473
0.346407
0.347731
0.349273
0.351044
0.352966
0.355027
0.357186
0.359442
0.361814
0.364358
0.367143
0.370187
0.373415
0.347327
0.350047
0.354224
0.360222
0.368455
0.379375
0.393406
0.410882
0.432001
0.456445
0.483879
0.512366
0.540622
0.569762
0.599831
0.622988
0.636947
0.640164
0.631811
0.611476
0.577205
0.532931
0.48726
0.446114
0.429928
0.467379
0.617515
0.907451
1.23744
1.59709
2.02683
2.555
3.09457
0.711283
0.347225
0.345706
0.344975
0.344787
0.345463
0.346432
0.347784
0.349345
0.351126
0.353053
0.355114
0.357268
0.359516
0.361877
0.36441
0.367184
0.370213
0.373424
0.349917
0.354091
0.360112
0.368424
0.379524
0.393908
0.412027
0.434227
0.46041
0.490507
0.522688
0.556239
0.592401
0.6305
0.660787
0.681381
0.690331
0.686844
0.670991
0.643132
0.60161
0.55101
0.500404
0.455311
0.435489
0.470045
0.616274
0.903743
1.23462
1.59741
2.03329
2.56977
3.11764
0.71667
0.349811
0.347005
0.345469
0.344823
0.344715
0.345459
0.346467
0.347844
0.349424
0.351213
0.353146
0.355204
0.357352
0.35959
0.361939
0.364462
0.367223
0.370238
0.373432
0.353974
0.36002
0.368406
0.379674
0.394389
0.413111
0.436335
0.464198
0.496895
0.532815
0.571977
0.615799
0.664723
0.705606
0.734585
0.750097
0.751062
0.738094
0.712587
0.675778
0.626183
0.568919
0.513277
0.464278
0.44092
0.472749
0.615339
0.900467
1.23215
1.59794
2.03955
2.58376
3.13918
0.721654
0.353884
0.349491
0.34664
0.34523
0.344678
0.34467
0.345461
0.346513
0.34791
0.34951
0.351306
0.353243
0.355297
0.357437
0.359662
0.362
0.364512
0.367262
0.370263
0.37344
0.359939
0.368397
0.379822
0.394845
0.414133
0.438324
0.467799
0.503024
0.542735
0.587763
0.639637
0.701481
0.758969
0.802363
0.826757
0.8325
0.820791
0.794532
0.756715
0.709333
0.650805
0.586561
0.525815
0.472971
0.446198
0.475452
0.614677
0.897573
1.22998
1.59861
2.04559
2.59698
3.1593
0.725741
0.359889
0.353458
0.348916
0.346272
0.345011
0.344532
0.344646
0.345469
0.346569
0.347984
0.349604
0.351405
0.353345
0.355392
0.35752
0.359733
0.36206
0.364561
0.3673
0.370287
0.373447
0.368393
0.379964
0.395276
0.41509
0.440192
0.471205
0.508877
0.552408
0.603433
0.663768
0.741135
0.821098
0.88962
0.93119
0.943375
0.931604
0.90078
0.856556
0.803405
0.74371
0.675372
0.603857
0.537968
0.481357
0.4513
0.47813
0.614221
0.895021
1.2281
1.59939
2.05141
2.60946
3.1756
0.729167
0.368418
0.359328
0.352621
0.348334
0.345934
0.344808
0.344396
0.34464
0.345486
0.346635
0.348065
0.349703
0.35151
0.353448
0.355485
0.357602
0.359802
0.362118
0.364609
0.367337
0.37031
0.373455
0.380099
0.395677
0.415983
0.44194
0.474414
0.514443
0.561777
0.618829
0.688238
0.784426
0.893053
0.996091
1.07016
1.09883
1.08722
1.04831
0.991172
0.924063
0.852506
0.778777
0.699789
0.620748
0.549703
0.489411
0.456213
0.480758
0.613955
0.892771
1.22646
1.60026
2.057
2.61968
3.1893
0.732881
0.380255
0.367692
0.358128
0.351771
0.347793
0.34562
0.344619
0.344274
0.344646
0.345514
0.346709
0.348155
0.349809
0.351616
0.35355
0.355576
0.357682
0.35987
0.362176
0.364656
0.367373
0.370332
0.373462
0.396051
0.416812
0.44357
0.477426
0.519713
0.570794
0.633855
0.713217
0.831631
0.974273
1.11911
1.23699
1.30266
1.30393
1.25619
1.18082
1.09076
0.996354
0.903645
0.814343
0.723961
0.637182
0.560992
0.49712
0.460926
0.483323
0.613823
0.890792
1.22503
1.6012
2.06164
2.62833
3.20414
0.736902
0.396424
0.379329
0.365995
0.356909
0.350973
0.347287
0.345328
0.344446
0.34417
0.344663
0.345554
0.346791
0.348253
0.349917
0.351723
0.35365
0.355666
0.357761
0.359937
0.362232
0.364702
0.367407
0.370354
0.373465
0.417583
0.445084
0.480242
0.524683
0.579424
0.648475
0.738815
0.882234
1.06227
1.25325
1.42206
1.53813
1.57918
1.53924
1.44478
1.32543
1.19735
1.07226
0.956261
0.850161
0.747789
0.653118
0.571822
0.504475
0.465432
0.485807
0.613841
0.889048
1.22379
1.60205
2.06561
2.63779
3.22022
0.741258
0.418307
0.395263
0.376954
0.364273
0.355759
0.350216
0.346812
0.345054
0.34429
0.344086
0.344688
0.345608
0.346881
0.348357
0.350025
0.351828
0.353749
0.355754
0.357837
0.360002
0.362286
0.364746
0.367441
0.370365
0.373465
0.446495
0.482869
0.529355
0.587649
0.662685
0.764982
0.935138
1.15383
1.3924
1.61569
1.79004
1.88709
1.88869
1.79588
1.64646
1.4778
1.3083
1.15036
1.00968
0.885949
0.771172
0.668524
0.582183
0.511474
0.469728
0.488204
0.613913
0.887511
1.22286
1.60282
2.07001
2.64813
3.23765
0.745974
0.447778
0.416876
0.391962
0.374552
0.362645
0.35466
0.349495
0.346366
0.344801
0.344152
0.344028
0.344718
0.345676
0.346975
0.348463
0.350133
0.351933
0.353846
0.355841
0.357913
0.360066
0.36234
0.36479
0.367458
0.370365
0.373466
0.485326
0.533739
0.595464
0.676482
0.791528
0.989063
1.246
1.53154
1.81001
2.04666
2.20929
2.27192
2.2211
2.06575
1.85521
1.63378
1.42104
1.22923
1.0632
0.921409
0.79401
0.683371
0.592073
0.518118
0.473814
0.490505
0.61406
0.886335
1.22212
1.60372
2.07486
2.65945
3.25653
0.751089
0.487508
0.446051
0.412304
0.388643
0.372275
0.361081
0.353605
0.348806
0.345952
0.344567
0.344029
0.344006
0.344754
0.345756
0.347071
0.34857
0.350241
0.352036
0.353942
0.355925
0.357986
0.360128
0.362392
0.364811
0.367458
0.370365
0.373466
0.537863
0.602885
0.689868
0.818181
1.04284
1.33656
1.66717
1.99956
2.29938
2.53282
2.66842
2.68272
2.56801
2.34216
2.06608
1.78992
1.53334
1.30756
1.11617
0.956256
0.81621
0.697639
0.601493
0.524415
0.47769
0.492706
0.614247
0.885387
1.22137
1.60477
2.08026
2.67184
3.277
0.756622
0.541474
0.485421
0.439732
0.407745
0.38549
0.370081
0.359573
0.352593
0.348149
0.34557
0.344351
0.343901
0.344013
0.344798
0.345843
0.34717
0.348678
0.350347
0.352139
0.354035
0.356008
0.358058
0.360189
0.362418
0.364811
0.367458
0.370365
0.373466
0.609948
0.702861
0.844665
1.09551
1.42398
1.79709
2.18092
2.54245
2.84811
3.06371
3.15811
3.11123
2.92251
2.61973
2.27515
1.94355
1.64345
1.38429
1.168
0.990237
0.837689
0.711307
0.610449
0.53037
0.481361
0.494529
0.614439
0.884406
1.22062
1.60601
2.08624
2.68543
3.29915
0.762632
0.61612
0.538927
0.476681
0.433488
0.403408
0.382443
0.367956
0.35812
0.351625
0.347526
0.345216
0.344157
0.343786
0.344041
0.344849
0.345934
0.34727
0.348786
0.350454
0.352239
0.354127
0.356089
0.358128
0.360219
0.362417
0.364811
0.367458
0.370365
0.373466
0.715466
0.870754
1.14639
1.50729
1.92005
2.35213
2.77229
3.14854
3.44643
3.63046
3.67016
3.55019
3.27875
2.8942
2.4795
2.09267
1.75005
1.4586
1.21824
1.02314
0.858373
0.724366
0.618946
0.535993
0.484373
0.496083
0.614686
0.883398
1.21987
1.60747
2.09291
2.70032
3.32318
0.769119
0.726572
0.613038
0.526691
0.468134
0.42754
0.399205
0.379484
0.365902
0.356723
0.350702
0.346943
0.344896
0.343983
0.343694
0.344082
0.344908
0.346029
0.347373
0.348893
0.350559
0.352338
0.354217
0.356169
0.358162
0.360218
0.362416
0.364811
0.367458
0.370365
0.373462
0.896208
1.19502
1.58593
2.03536
2.51218
2.98693
3.42987
3.8083
4.08568
4.22483
4.19687
3.99302
3.63173
3.16217
2.67696
2.2359
1.85223
1.5299
1.26655
1.05478
0.878207
0.73681
0.626995
0.540598
0.486927
0.497795
0.614999
0.882367
1.21915
1.60918
2.10034
2.7167
3.34912
0.776182
0.722941
0.918616
0.59516
0.514949
0.459972
0.421767
0.395116
0.376615
0.36392
0.355384
0.349827
0.346403
0.344607
0.343837
0.343629
0.34413
0.344977
0.346125
0.347477
0.349
0.350663
0.352435
0.354305
0.356207
0.358161
0.360217
0.362416
0.364811
0.367458
0.370354
0.373455
1.24108
1.6597
2.14279
2.66067
3.18548
3.68979
4.14386
4.51297
4.75751
4.83872
4.73081
4.43365
3.97717
3.42101
2.86599
2.37233
1.94941
1.5978
1.31267
1.08505
0.897151
0.748638
0.633604
0.544498
0.489724
0.499681
0.615389
0.881329
1.21846
1.61121
2.10866
2.73465
3.37726
0.783774
0.695002
0.915722
1.28072
0.57853
0.503741
0.452038
0.416142
0.391141
0.37384
0.362015
0.354108
0.349003
0.34591
0.344355
0.34372
0.34359
0.344183
0.345053
0.346223
0.347582
0.349106
0.350765
0.35253
0.354347
0.356206
0.35816
0.360217
0.362417
0.364811
0.367441
0.370332
0.373447
1.72843
2.24243
2.79768
3.36778
3.92743
4.45015
4.90499
5.25394
5.4535
5.46397
5.26472
4.86656
4.31153
3.66873
3.04556
2.50141
2.04125
1.66205
1.35645
1.11385
0.915176
0.758375
0.639213
0.548761
0.492787
0.501761
0.615875
0.880287
1.21784
1.6136
2.11796
2.75448
3.40755
0.792071
0.669471
0.870825
1.27899
1.787
0.562871
0.492826
0.444301
0.410666
0.387288
0.371163
0.36019
0.352897
0.348239
0.345475
0.34414
0.343627
0.34358
0.344238
0.345136
0.346321
0.347688
0.34921
0.350867
0.352576
0.354346
0.356205
0.35816
0.360217
0.362417
0.364789
0.367407
0.37031
0.37344
2.33437
2.92364
3.53425
4.14291
4.72624
5.25779
5.70417
6.0226
6.16508
6.09231
5.79169
5.28688
4.63194
3.90393
3.21507
2.62288
2.12761
1.72256
1.3978
1.14114
0.930014
0.766649
0.645353
0.553423
0.496145
0.504055
0.616468
0.879273
1.21731
1.61643
2.12844
2.77621
3.44042
0.80092
0.645868
0.828681
1.21257
1.78765
2.41232
0.547737
0.482163
0.436765
0.405349
0.383566
0.368593
0.35845
0.351762
0.347549
0.345102
0.343958
0.343546
0.343598
0.344295
0.345226
0.346419
0.347794
0.349314
0.350916
0.352574
0.354345
0.356205
0.35816
0.360218
0.362391
0.364745
0.367372
0.370286
0.373432
3.03891
3.68579
4.33719
4.97269
5.57032
6.10279
6.53262
6.81037
6.88345
6.71553
6.30522
5.69041
4.93623
4.12573
3.37424
2.73668
2.2085
1.77933
1.4367
1.1635
0.942621
0.775722
0.65208
0.558524
0.499827
0.506591
0.617198
0.878282
1.21691
1.6198
2.14019
2.80031
3.47557
0.810652
0.623541
0.789139
1.14736
1.70201
2.4166
3.13586
0.533011
0.471766
0.429445
0.400204
0.379983
0.366134
0.356811
0.350731
0.346938
0.344783
0.343804
0.343471
0.343635
0.344356
0.345319
0.346518
0.347901
0.349363
0.350913
0.352573
0.354345
0.356206
0.358161
0.360188
0.362338
0.3647
0.367335
0.370263
0.373423
3.82317
4.51184
5.19123
5.84374
6.44851
6.97603
7.382
7.6085
7.59957
7.32557
6.79949
6.07382
5.22291
4.33365
3.52302
2.84292
2.28401
1.8324
1.46837
1.18244
0.95644
0.785676
0.659456
0.564109
0.50387
0.509391
0.618077
0.877381
1.21668
1.62378
2.15352
2.82668
3.51377
0.820895
0.602228
0.75179
1.08339
1.616
2.31359
3.14421
3.93718
0.51868
0.461661
0.422361
0.395246
0.376551
0.363811
0.355316
0.349814
0.346399
0.344512
0.343677
0.343411
0.343686
0.34442
0.345415
0.346619
0.347952
0.349358
0.350913
0.352573
0.354346
0.356207
0.358126
0.360126
0.362284
0.364654
0.367298
0.370238
0.373415
4.66823
5.38446
6.08091
6.74321
7.35096
7.8695
8.24429
8.408
8.30426
7.91479
7.26954
6.43464
5.4911
4.52758
3.6616
2.94182
2.35433
1.87537
1.49508
1.20312
0.971589
0.796605
0.66755
0.570231
0.508312
0.512491
0.619169
0.876539
1.21675
1.62855
2.16851
2.85607
3.55418
0.832255
0.58183
0.716606
1.02049
1.52949
2.20924
3.02495
3.94856
4.79528
0.504764
0.45188
0.415535
0.390492
0.373302
0.361684
0.353978
0.348999
0.345928
0.344283
0.343572
0.34337
0.343744
0.344489
0.345518
0.346664
0.347947
0.349356
0.350913
0.352574
0.354347
0.356167
0.358055
0.360063
0.362229
0.364606
0.367261
0.370213
0.373407
5.55462
6.28585
6.99124
7.66005
8.26976
8.77628
9.11146
9.19938
8.98826
8.47629
7.71149
6.77127
5.74045
4.70771
3.79031
3.03368
2.41107
1.91148
1.52412
1.22569
0.988199
0.808609
0.676438
0.576945
0.513198
0.515883
0.620498
0.875903
1.21703
1.63419
2.18563
2.88817
3.59818
0.846414
0.562322
0.683444
0.95892
1.44214
2.10318
2.90392
3.81303
4.80672
5.68835
0.491294
0.44246
0.408986
0.385986
0.37032
0.359776
0.352784
0.348277
0.345521
0.344088
0.343489
0.343344
0.34381
0.344569
0.345565
0.346653
0.347946
0.349356
0.350914
0.352576
0.354304
0.356087
0.357983
0.359999
0.362172
0.364558
0.367222
0.370187
0.373398
6.46208
7.19858
7.90949
8.58599
9.19919
9.69007
9.97496
9.97257
9.64263
9.00426
8.12259
7.08292
5.97112
4.87448
3.90956
3.10762
2.45863
1.95058
1.55565
1.25033
1.0064
0.821798
0.686206
0.584316
0.518589
0.519599
0.622111
0.875362
1.21767
1.64097
2.20498
2.92405
3.65243
0.86298
0.543668
0.652391
0.899348
1.35399
1.995
2.78041
3.67612
4.65345
5.69466
6.59448
0.478312
0.433436
0.402781
0.381849
0.367642
0.358067
0.35172
0.347641
0.345168
0.343924
0.343424
0.343336
0.343892
0.344597
0.345556
0.346649
0.347946
0.349358
0.350916
0.35253
0.354215
0.356005
0.357909
0.359933
0.362115
0.364509
0.367182
0.370161
0.373389
7.37046
8.10783
8.82643
9.51621
10.1349
10.6045
10.8253
10.717
10.2592
9.49421
8.50126
7.36958
6.18362
5.02845
4.00531
3.16948
2.50999
1.99289
1.58988
1.27718
1.02635
0.83629
0.696946
0.592412
0.524541
0.523679
0.624041
0.875217
1.21887
1.64904
2.22716
2.97048
3.7176
0.881483
0.525829
0.623635
0.842394
1.2654
1.88442
2.65404
3.53666
4.50028
5.52026
6.58866
7.49236
0.465868
0.424899
0.397082
0.37813
0.365238
0.356538
0.350772
0.34708
0.344864
0.343785
0.343379
0.34336
0.343925
0.344574
0.345555
0.346649
0.347947
0.349364
0.350867
0.352433
0.354124
0.355921
0.357833
0.359866
0.362056
0.364459
0.367142
0.370133
0.373379
8.26264
9.00283
9.73774
10.4479
11.0735
11.5126
11.6513
11.4221
10.8311
9.94321
8.84713
7.63185
6.37872
5.15159
4.08525
3.23615
2.5654
2.0386
1.62697
1.30641
1.04819
0.85221
0.708758
0.601314
0.531117
0.528168
0.626338
0.875362
1.22069
1.65876
2.2571
3.02863
3.77998
0.900161
0.508805
0.597023
0.788645
1.177
1.77138
2.52422
3.39438
4.34543
5.34893
6.38697
7.46586
8.36205
0.454097
0.417074
0.39196
0.374791
0.363082
0.35517
0.34993
0.346586
0.344602
0.343673
0.343372
0.343354
0.343906
0.344569
0.345555
0.346653
0.347952
0.349314
0.350764
0.352335
0.354032
0.355836
0.357756
0.359797
0.361996
0.364408
0.367101
0.370106
0.37337
9.12571
9.87967
10.6406
11.3803
12.0128
12.4044
12.4411
12.078
11.3531
10.3501
9.16078
7.87077
6.53381
5.25407
4.17116
3.30789
2.6251
2.08794
1.66712
1.33819
1.07206
0.869688
0.721751
0.611107
0.538384
0.533114
0.629072
0.875821
1.22332
1.67254
2.29625
3.08949
3.83994
0.918471
0.492731
0.572356
0.738909
1.0896
1.65605
2.39054
3.24846
4.18884
5.17804
6.19356
7.22787
8.30322
9.18906
0.443317
0.410054
0.38736
0.371794
0.36115
0.35395
0.349183
0.346148
0.344385
0.343616
0.343346
0.343316
0.343905
0.344569
0.345556
0.346664
0.347901
0.349209
0.350661
0.352236
0.353938
0.355749
0.357677
0.359728
0.361935
0.364356
0.367059
0.370077
0.373361
9.95154
10.7262
11.5245
12.3048
12.9451
13.2686
13.1815
12.676
11.8223
10.7151
9.44354
8.05908
6.66228
5.36379
4.26333
3.38497
2.68932
2.14108
1.71048
1.37267
1.09811
0.888856
0.736039
0.621884
0.54642
0.538581
0.632279
0.876851
1.22762
1.69178
2.33959
3.15286
3.89731
0.936234
0.478001
0.549644
0.69353
1.00424
1.5388
2.25278
3.09808
4.02951
5.00783
6.00444
7.00614
8.01855
9.07787
9.96742
0.433668
0.403761
0.383233
0.369106
0.359421
0.35286
0.348515
0.345766
0.344249
0.343561
0.343296
0.343312
0.343905
0.344574
0.345565
0.346619
0.347793
0.349104
0.350556
0.352135
0.353842
0.355661
0.357597
0.359657
0.361874
0.364303
0.367016
0.370049
0.373352
10.7395
11.5538
12.4055
13.2277
13.8639
14.0905
13.8593
13.2099
12.2381
11.0398
9.66387
8.21401
6.799
5.48095
4.36202
3.46762
2.75825
2.19822
1.75721
1.40999
1.12648
0.909842
0.751739
0.63375
0.555303
0.544626
0.636054
0.878902
1.23453
1.71439
2.38718
3.2182
3.95151
0.953287
0.464787
0.529236
0.652699
0.922408
1.42026
2.11089
2.94255
3.86626
4.83715
5.82012
6.79486
7.76037
8.73638
9.76994
10.6817
0.425046
0.398122
0.379532
0.366698
0.357874
0.351884
0.34793
0.345498
0.344147
0.3435
0.343292
0.343311
0.343905
0.344596
0.345517
0.346517
0.347686
0.348998
0.350451
0.352033
0.353745
0.355571
0.357516
0.359585
0.361811
0.364249
0.366975
0.370022
0.373343
11.4858
12.3676
13.2973
14.1553
14.7571
14.8522
14.4628
13.6767
12.6019
11.289
9.84353
8.37758
6.944
5.60571
4.46739
3.55604
2.8321
2.25949
1.80744
1.45025
1.15727
0.932765
0.768968
0.646805
0.565132
0.551343
0.641261
0.882592
1.24365
1.74069
2.43918
3.28495
4.00202
0.969267
0.452961
0.511086
0.617481
0.846441
1.30144
1.96496
2.78123
3.69789
4.66449
5.63919
6.59452
7.52139
8.43257
9.36139
10.374
11.325
0.417351
0.393071
0.376219
0.364542
0.356485
0.351023
0.347496
0.345315
0.344066
0.343497
0.343291
0.343314
0.343924
0.344567
0.345413
0.346417
0.34758
0.348891
0.350345
0.35193
0.353646
0.35548
0.357433
0.359512
0.361747
0.364197
0.366935
0.369996
0.373334
12.1941
13.1779
14.2068
15.0865
15.6037
15.5335
14.9836
14.0769
12.8755
11.4899
10.0312
8.5494
7.09716
5.7381
4.57959
3.65038
2.91097
2.32501
1.86124
1.49353
1.19058
0.957723
0.787829
0.66117
0.575995
0.560173
0.648242
0.88774
1.25504
1.77119
2.49535
3.35296
4.0475
0.984259
0.442411
0.494824
0.587939
0.779327
1.18465
1.81537
2.61358
3.52311
4.48814
5.45983
6.40325
7.30181
8.15931
9.00235
9.87948
10.8819
11.9001
0.410485
0.388551
0.373252
0.362605
0.355255
0.350365
0.347217
0.345204
0.344066
0.343496
0.343294
0.343351
0.343889
0.344486
0.345315
0.346319
0.347475
0.348784
0.350239
0.351826
0.353547
0.355388
0.357348
0.359437
0.361685
0.364146
0.366896
0.369971
0.373326
12.8773
14.0061
15.1423
16.0076
16.3735
16.1158
15.4187
14.3696
13.0925
11.6965
10.2257
8.72886
7.25814
5.878
4.69861
3.75069
2.99494
2.39483
1.91867
1.53987
1.22645
0.984783
0.808424
0.676924
0.590232
0.571293
0.656016
0.894341
1.26929
1.80581
2.55617
3.42086
4.08815
0.997466
0.433022
0.480219
0.562825
0.72241
1.07469
1.6638
2.43923
3.34061
4.3062
5.2799
6.21886
7.09891
7.9163
8.68786
9.45355
10.2797
11.2815
12.4112
0.404361
0.384507
0.370588
0.360885
0.354295
0.349957
0.347074
0.345205
0.344065
0.343497
0.343341
0.343355
0.343805
0.344416
0.345222
0.34622
0.347371
0.348676
0.350132
0.351721
0.353446
0.355294
0.357264
0.359365
0.361625
0.364098
0.366859
0.369946
0.373318
13.5587
14.8796
16.0997
16.8837
17.0311
16.5872
15.7248
14.5964
13.3113
11.9071
10.4258
8.91501
7.42639
6.02515
4.82435
3.85693
3.084
2.46894
1.9797
1.58924
1.26487
1.01398
0.830785
0.69741
0.607895
0.583128
0.664709
0.902748
1.28628
1.84545
2.62071
3.4891
4.12167
1.00971
0.424684
0.46711
0.541195
0.674768
0.974995
1.51553
2.25935
3.14911
4.11652
5.09689
6.03874
6.90994
7.6995
8.41692
9.09068
9.77399
10.5511
11.5602
12.8678
0.398897
0.380881
0.36822
0.359522
0.353715
0.349774
0.347078
0.345203
0.344062
0.343556
0.343365
0.343329
0.343738
0.344351
0.345132
0.346123
0.347269
0.348569
0.350025
0.351616
0.353344
0.3552
0.357181
0.359295
0.361567
0.364051
0.366824
0.369923
0.37331
14.2764
15.8192
17.0469
17.6555
17.545
16.8997
15.9537
14.8184
13.5287
12.1191
10.6297
9.10658
7.60107
6.17903
4.95651
3.96894
3.17804
2.54724
2.04421
1.64152
1.30575
1.04525
0.859502
0.722402
0.626409
0.59578
0.674235
0.912786
1.30675
1.8897
2.68983
3.55489
4.1501
1.01928
0.417287
0.455382
0.522301
0.635056
0.886811
1.37486
2.07937