/*--------------------------------*- C++ -*----------------------------------*\
  =========                 |
  \\      /  F ield         | OpenFOAM: The Open Source CFD Toolbox
   \\    /   O peration     | Website:  https://openfoam.org
    \\  /    A nd           | Version:  8
     \\/     M anipulation  |
\*---------------------------------------------------------------------------*/
FoamFile
{
    version     2.0;
    format      ascii;
    class       volVectorField;
    location    "0";
    object      U;
}
// * * * * * * * * * * * * * * * * * * * * * * * * * * * * * * * * * * * * * //

dimensions      [0 1 -1 0 0 0 0];

internalField   nonuniform List<vector> 
15677
(
(-0.618582 6.04653 0)
(0.665456 9.25131 0)
(-0.0684472 3.18005 0)
(0.189376 9.89771 0)
(0.191274 7.25252 0)
(0.00257378 2.67472 0)
(0.289523 10.043 0)
(0.134144 9.22557 0)
(0.0304525 5.9068 0)
(0.00182096 2.49951 0)
(0.281626 10.0765 0)
(0.211211 10.0216 0)
(0.0841172 8.02601 0)
(0.0129919 5.27108 0)
(0.00073092 2.3851 0)
(0.263535 10.0852 0)
(0.209032 10.2404 0)
(0.139609 9.48257 0)
(0.0483929 7.14791 0)
(0.0094709 4.92719 0)
(0.000462556 2.30121 0)
(0.247671 10.0856 0)
(0.204845 10.2935 0)
(0.159151 10.1086 0)
(0.0943115 8.75495 0)
(0.0294941 6.60379 0)
(0.00694381 4.70636 0)
(0.000211813 2.24567 0)
(0.229745 10.0825 0)
(0.198252 10.2982 0)
(0.16495 10.2622 0)
(0.13238 9.81816 0)
(0.0630077 8.11793 0)
(0.0202443 6.25597 0)
(0.00478706 4.55762 0)
(7.13988e-05 2.21138 0)
(0.210139 10.0771 0)
(0.190112 10.2846 0)
(0.164831 10.2919 0)
(0.146681 10.2024 0)
(0.104169 9.38554 0)
(0.0434532 7.65009 0)
(0.014422 6.01992 0)
(0.00331825 4.45647 0)
(-1.42442e-05 2.18709 0)
(0.189527 10.0701 0)
(0.180452 10.263 0)
(0.163241 10.2948 0)
(0.148614 10.2914 0)
(0.129232 10.0699 0)
(0.0785424 8.93306 0)
(0.0311911 7.31831 0)
(0.0104602 5.85476 0)
(0.00225235 4.38453 0)
(-0.000152586 2.17351 0)
(0.168396 10.0622 0)
(0.169385 10.2362 0)
(0.160131 10.2874 0)
(0.147691 10.3103 0)
(0.134892 10.2726 0)
(0.110431 9.85744 0)
(0.0582267 8.54727 0)
(0.023122 7.07967 0)
(0.00751591 5.73569 0)
(0.0012025 4.33681 0)
(-0.000328394 2.16908 0)
(0.14716 10.0538 0)
(0.157213 10.2073 0)
(0.155421 10.2743 0)
(0.145462 10.3102 0)
(0.134992 10.3204 0)
(0.122362 10.2255 0)
(0.0910223 9.58905 0)
(0.0434975 8.24414 0)
(0.0171284 6.90602 0)
(0.00485002 5.65275 0)
(0.000122487 4.3088 0)
(-0.00053429 2.17396 0)
(0.126068 10.0452 0)
(0.144032 10.1798 0)
(0.148889 10.2557 0)
(0.142158 10.3017 0)
(0.13334 10.3277 0)
(0.123985 10.3192 0)
(0.10987 10.1434 0)
(0.0728021 9.31415 0)
(0.0326514 8.01521 0)
(0.0119303 6.78054 0)
(0.00226022 5.59793 0)
(-0.0010005 4.2991 0)
(-0.000743195 2.18722 0)
(0.105492 10.037 0)
(0.130152 10.1531 0)
(0.140524 10.2312 0)
(0.137857 10.2869 0)
(0.130597 10.3225 0)
(0.122759 10.3395 0)
(0.113392 10.3093 0)
(0.0962818 10.0284 0)
(0.0567373 9.06897 0)
(0.0238305 7.84358 0)
(0.00705282 6.69223 0)
(-0.000347594 5.56785 0)
(-0.00214858 4.3052 0)
(-0.000984079 2.20825 0)
(0.088144 10.0305 0)
(0.11616 10.1277 0)
(0.130709 10.2038 0)
(0.13229 10.2661 0)
(0.127048 10.3102 0)
(0.120351 10.3386 0)
(0.112609 10.3488 0)
(0.10286 10.2899 0)
(0.0815935 9.88664 0)
(0.0428185 8.86663 0)
(0.0158823 7.71711 0)
(0.00229056 6.63529 0)
(-0.00298337 5.55904 0)
(-0.00341157 4.32633 0)
(-0.00131482 2.23762 0)
(0.0735118 10.0255 0)
(0.10299 10.1065 0)
(0.119819 10.1754 0)
(0.125267 10.2406 0)
(0.122518 10.2922 0)
(0.117024 10.3286 0)
(0.11033 10.3532 0)
(0.102542 10.3557 0)
(0.0918781 10.2584 0)
(0.0663109 9.73891 0)
(0.0303586 8.70798 0)
(0.00824134 7.62828 0)
(-0.00246479 6.60506 0)
(-0.00581374 5.57 0)
(-0.00487712 4.36198 0)
(-0.00165628 2.27656 0)
(0.0612065 10.0211 0)
(0.0919372 10.0897 0)
(0.109132 10.1503 0)
(0.116811 10.2122 0)
(0.116766 10.2692 0)
(0.112815 10.3128 0)
(0.10694 10.3458 0)
(0.100123 10.3676 0)
(0.0919141 10.361 0)
(0.0794693 10.2163 0)
(0.050817 9.60097 0)
(0.0187345 8.58905 0)
(0.000675386 7.57179 0)
(-0.00747711 6.59913 0)
(-0.0089519 5.59938 0)
(-0.00646568 4.41189 0)
(-0.00200852 2.32309 0)
(0.0509644 10.0172 0)
(0.0821435 10.0754 0)
(0.0996538 10.1296 0)
(0.108048 10.1855 0)
(0.109646 10.2422 0)
(0.107538 10.2919 0)
(0.102667 10.3318 0)
(0.0964233 10.3631 0)
(0.0892151 10.3829 0)
(0.0799107 10.3652 0)
(0.0653343 10.1671 0)
(0.0353146 9.48245 0)
(0.00751103 8.50568 0)
(-0.00716469 7.54375 0)
(-0.0128664 6.61539 0)
(-0.012332 5.64603 0)
(-0.00817451 4.47559 0)
(-0.00242123 2.37832 0)
(0.0424448 10.0137 0)
(0.0733325 10.0628 0)
(0.0909371 10.1117 0)
(0.0998548 10.1626 0)
(0.10201 10.2153 0)
(0.101001 10.2664 0)
(0.0973923 10.3125 0)
(0.0917651 10.3507 0)
(0.0849772 10.3817 0)
(0.0768974 10.3997 0)
(0.0665053 10.3689 0)
(0.0495415 10.1147 0)
(0.0198339 9.38888 0)
(-0.003881 8.45353 0)
(-0.0154535 7.54144 0)
(-0.0186291 6.65207 0)
(-0.0159642 5.70955 0)
(-0.0100311 4.55285 0)
(-0.00285672 2.44141 0)
(0.0353123 10.0106 0)
(0.0654721 10.0518 0)
(0.0829078 10.0961 0)
(0.0920663 10.1425 0)
(0.0946546 10.1914 0)
(0.0938892 10.2402 0)
(0.0909436 10.2884 0)
(0.0861056 10.3326 0)
(0.0796548 10.3707 0)
(0.0719064 10.4024 0)
(0.0628955 10.4187 0)
(0.0514381 10.3726 0)
(0.0323696 10.0665 0)
(0.00406413 9.32202 0)
(-0.015684 8.4297 0)
(-0.0242077 7.56255 0)
(-0.024793 6.70809 0)
(-0.0198652 5.78895 0)
(-0.0119863 4.64259 0)
(-0.00332246 2.51219 0)
(0.0297305 10.0081 0)
(0.0585491 10.0422 0)
(0.0754918 10.0825 0)
(0.0847058 10.1249 0)
(0.0875221 10.17 0)
(0.0869328 10.216 0)
(0.0839413 10.2627 0)
(0.0793169 10.3096 0)
(0.0732831 10.3536 0)
(0.0656943 10.3928 0)
(0.0569162 10.4258 0)
(0.0468701 10.4406 0)
(0.034325 10.378 0)
(0.0138532 10.0276 0)
(-0.0121612 9.28172 0)
(-0.0280621 8.43168 0)
(-0.0334705 7.60528 0)
(-0.0313493 6.782 0)
(-0.0239707 5.88333 0)
(-0.01405 4.74425 0)
(-0.00380751 2.59003 0)
(0.0252577 10.0062 0)
(0.0521377 10.0342 0)
(0.0686625 10.0706 0)
(0.0777438 10.1094 0)
(0.0806833 10.1509 0)
(0.0801104 10.1938 0)
(0.077064 10.2385 0)
(0.0720407 10.2844 0)
(0.0657805 10.3312 0)
(0.0583311 10.3763 0)
(0.0495418 10.4177 0)
(0.0396857 10.4526 0)
(0.0285316 10.4661 0)
(0.0150699 10.3868 0)
(-0.0060001 10.0021 0)
(-0.028996 9.26691 0)
(-0.0410644 8.4574 0)
(-0.0432701 7.66795 0)
(-0.0382444 6.8729 0)
(-0.0282733 5.9917 0)
(-0.0161866 4.85685 0)
(-0.0043142 2.67437 0)
(0.0218724 10.0049 0)
(0.0467109 10.028 0)
(0.0622713 10.0604 0)
(0.0711624 10.0958 0)
(0.0741526 10.1341 0)
(0.0735229 10.1738 0)
(0.0702895 10.2158 0)
(0.0649344 10.2601 0)
(0.0578742 10.3063 0)
(0.0497862 10.3542 0)
(0.0408649 10.4016 0)
(0.0308318 10.4459 0)
(0.0198837 10.4836 0)
(0.00775061 10.496 0)
(-0.00628477 10.4013 0)
(-0.0270432 9.99209 0)
(-0.0465292 9.27623 0)
(-0.0547379 8.50487 0)
(-0.0535443 7.74934 0)
(-0.0454515 6.97943 0)
(-0.0327182 6.11287 0)
(-0.0183848 4.97936 0)
(-0.00483234 2.76458 0)
(0.0192642 10.004 0)
(0.0422489 10.0234 0)
(0.0566431 10.0522 0)
(0.0649328 10.084 0)
(0.06793 10.1191 0)
(0.0672162 10.1558 0)
(0.0637366 10.1948 0)
(0.0579538 10.2368 0)
(0.0502363 10.2817 0)
(0.0409201 10.3291 0)
(0.0309137 10.3793 0)
(0.0204909 10.43 0)
(0.00920124 10.4782 0)
(-0.00270987 10.5193 0)
(-0.0155251 10.5312 0)
(-0.029753 10.423 0)
(-0.0492006 9.99945 0)
(-0.0648172 9.30795 0)
(-0.0690259 8.57247 0)
(-0.064225 7.84773 0)
(-0.0528805 7.10029 0)
(-0.0372767 6.24562 0)
(-0.0206082 5.11065 0)
(-0.00534582 2.85977 0)
(0.0172125 10.0033 0)
(0.0385632 10.02 0)
(0.0518831 10.0459 0)
(0.0593194 10.0743 0)
(0.062016 10.106 0)
(0.0612082 10.1398 0)
(0.057475 10.1758 0)
(0.0512261 10.215 0)
(0.0427934 10.2577 0)
(0.0324581 10.3041 0)
(0.0207242 10.3538 0)
(0.00873678 10.4073 0)
(-0.00317824 10.4623 0)
(-0.0156057 10.5153 0)
(-0.02821 10.5605 0)
(-0.0412949 10.5727 0)
(-0.0552463 10.4543 0)
(-0.0724518 10.0249 0)
(-0.0838 9.36031 0)
(-0.0838185 8.65835 0)
(-0.0752209 7.96166 0)
(-0.0604679 7.23395 0)
(-0.0418703 6.38855 0)
(-0.0228112 5.24935 0)
(-0.00585975 2.959 0)
(0.01557 10.0027 0)
(0.0354926 10.0174 0)
(0.0478697 10.041 0)
(0.0545088 10.0666 0)
(0.0566534 10.095 0)
(0.0555088 10.1255 0)
(0.0515406 10.1587 0)
(0.0448364 10.1949 0)
(0.0356737 10.2348 0)
(0.0242948 10.2791 0)
(0.0111103 10.3279 0)
(-0.00317519 10.3809 0)
(-0.0171655 10.4389 0)
(-0.0304402 10.4992 0)
(-0.0437423 10.5576 0)
(-0.0566908 10.6077 0)
(-0.0695115 10.6213 0)
(-0.082473 10.496 0)
(-0.0966622 10.0682 0)
(-0.103371 9.43169 0)
(-0.0989929 8.76072 0)
(-0.0864167 8.08947 0)
(-0.0681074 7.37883 0)
(-0.0464178 6.54006 0)
(-0.024968 5.39408 0)
(-0.00636872 3.06148 0)
(0.0142349 10.0023 0)
(0.0329136 10.0153 0)
(0.0444595 10.0371 0)
(0.0504064 10.0605 0)
(0.0520375 10.0861 0)
(0.0503552 10.1134 0)
(0.0459523 10.1432 0)
(0.0388361 10.1765 0)
(0.0289737 10.2134 0)
(0.0165597 10.255 0)
(0.00193255 10.3017 0)
(-0.0143059 10.3538 0)
(-0.0312356 10.4113 0)
(-0.0471382 10.4747 0)
(-0.0614982 10.5411 0)
(-0.0752938 10.6059 0)
(-0.0881092 10.6616 0)
(-0.0999918 10.6777 0)
(-0.111192 10.549 0)
(-0.121639 10.1287 0)
(-0.123398 9.52026 0)
(-0.114425 8.87789 0)
(-0.0976558 8.2294 0)
(-0.075679 7.53329 0)
(-0.0508689 6.69863 0)
(-0.027049 5.54333 0)
(-0.00684851 3.16624 0)
(0.0131354 10.0019 0)
(0.0307323 10.0137 0)
(0.0415402 10.0339 0)
(0.0468903 10.0556 0)
(0.0480843 10.079 0)
(0.0459342 10.1036 0)
(0.0409463 10.13 0)
(0.0332545 10.1597 0)
(0.0227583 10.1936 0)
(0.00935944 10.232 0)
(-0.00667478 10.276 0)
(-0.0248322 10.326 0)
(-0.0442875 10.3825 0)
(-0.0638495 10.4454 0)
(-0.0814348 10.5153 0)
(-0.0964722 10.5887 0)
(-0.110228 10.6606 0)
(-0.122253 10.7225 0)
(-0.13249 10.7423 0)
(-0.141132 10.6135 0)
(-0.147166 10.2053 0)
(-0.143679 9.62422 0)
(-0.12992 9.00808 0)
(-0.108795 8.37973 0)
(-0.0830857 7.69562 0)
(-0.055159 6.86256 0)
(-0.0290141 5.69567 0)
(-0.00728885 3.27215 0)
(0.0122195 10.0016 0)
(0.0288751 10.0124 0)
(0.0390335 10.0314 0)
(0.0438646 10.0516 0)
(0.0446855 10.0733 0)
(0.0421618 10.0956 0)
(0.0366953 10.1191 0)
(0.0283297 10.1452 0)
(0.0170679 10.1753 0)
(0.00277168 10.2104 0)
(-0.0145954 10.2511 0)
(-0.0346109 10.2984 0)
(-0.0565392 10.3528 0)
(-0.0792754 10.4147 0)
(-0.101326 10.484 0)
(-0.120221 10.5613 0)
(-0.135368 10.6425 0)
(-0.148376 10.7221 0)
(-0.158861 10.7909 0)
(-0.166688 10.8155 0)
(-0.171956 10.6897 0)
(-0.173016 10.2965 0)
(-0.164002 9.74154 0)
(-0.145254 9.14939 0)
(-0.119699 8.53866 0)
(-0.0902269 7.86409 0)
(-0.059217 7.03027 0)
(-0.030833 5.84964 0)
(-0.0076937 3.37844 0)
(0.0114488 10.0014 0)
(0.027284 10.0113 0)
(0.0368665 10.0293 0)
(0.0412469 10.0483 0)
(0.0417525 10.0685 0)
(0.0389321 10.089 0)
(0.0331062 10.1102 0)
(0.0242167 10.1332 0)
(0.0121472 10.1593 0)
(-0.0031499 10.1904 0)
(-0.0217375 10.2275 0)
(-0.0435118 10.2713 0)
(-0.0678317 10.3227 0)
(-0.0936827 10.3825 0)
(-0.119637 10.4509 0)
(-0.143881 10.5277 0)
(-0.163537 10.6132 0)
(-0.178046 10.703 0)
(-0.189485 10.7907 0)
(-0.197596 10.867 0)
(-0.202197 10.8973 0)
(-0.203295 10.777 0)
(-0.198876 10.4009 0)
(-0.184155 9.87051 0)
(-0.160249 9.29994 0)
(-0.130223 8.70437 0)
(-0.0970034 8.03702 0)
(-0.0629905 7.20014 0)
(-0.0324939 6.00405 0)
(-0.00802548 3.4839 0)
(0.0107945 10.0012 0)
(0.0259134 10.0104 0)
(0.0349695 10.0276 0)
(0.0389663 10.0456 0)
(0.0392119 10.0646 0)
(0.0361573 10.0836 0)
(0.0300665 10.1029 0)
(0.0208045 10.1232 0)
(0.00813127 10.1459 0)
(-0.00814807 10.1725 0)
(-0.0280341 10.2052 0)
(-0.0514272 10.2452 0)
(-0.0780167 10.293 0)
(-0.106887 10.3496 0)
(-0.136684 10.4158 0)
(-0.165637 10.4917 0)
(-0.1916 10.577 0)
(-0.211278 10.6716 0)
(-0.224257 10.7704 0)
(-0.233212 10.8668 0)
(-0.238038 10.9508 0)
(-0.238599 10.9876 0)
(-0.2348 10.8749 0)
(-0.22445 10.5166 0)
(-0.203872 10.0093 0)
(-0.17473 9.45788 0)
(-0.140229 8.87514 0)
(-0.103333 8.21271 0)
(-0.0664481 7.37084 0)
(-0.0339135 6.1573 0)
(-0.00842252 3.59952 0)
(0.010235 10.0011 0)
(0.0247279 10.0097 0)
(0.0333166 10.0261 0)
(0.0369892 10.0433 0)
(0.0370033 10.0613 0)
(0.0337649 10.0791 0)
(0.0274831 10.0967 0)
(0.0179667 10.1149 0)
(0.00488289 10.1347 0)
(-0.0121111 10.1574 0)
(-0.0332092 10.1852 0)
(-0.0582742 10.2202 0)
(-0.0869672 10.2639 0)
(-0.118714 10.3167 0)
(-0.152255 10.3797 0)
(-0.18587 10.4534 0)
(-0.217423 10.5379 0)
(-0.244436 10.6324 0)
(-0.26323 10.7368 0)
(-0.273657 10.8452 0)
(-0.279117 10.9503 0)
(-0.27972 11.0422 0)
(-0.275434 11.0859 0)
(-0.266093 10.9822 0)
(-0.249477 10.6421 0)
(-0.222905 10.156 0)
(-0.18852 9.62142 0)
(-0.1496 9.0492 0)
(-0.109156 8.38972 0)
(-0.0694848 7.54064 0)
(-0.0353486 6.32554 0)
(-0.00879655 3.72454 0)
(0.00975323 10.001 0)
(0.0236982 10.0091 0)
(0.0318683 10.0249 0)
(0.035262 10.0414 0)
(0.0350789 10.0586 0)
(0.0316952 10.0752 0)
(0.0252796 10.0915 0)
(0.0155996 10.1079 0)
(0.00225477 10.1253 0)
(-0.0152097 10.1447 0)
(-0.0371741 10.1681 0)
(-0.0637497 10.1975 0)
(-0.0945796 10.2358 0)
(-0.129013 10.2841 0)
(-0.166146 10.343 0)
(-0.204331 10.4135 0)
(-0.241453 10.4959 0)
(-0.275 10.5899 0)
(-0.302207 10.6945 0)
(-0.319053 10.8092 0)
(-0.325794 10.9273 0)
(-0.326694 11.0412 0)
(-0.322134 11.1408 0)
(-0.312224 11.1918 0)
(-0.296779 11.0979 0)
(-0.273673 10.7755 0)
(-0.241045 10.3088 0)
(-0.201468 9.78879 0)
(-0.158245 9.22509 0)
(-0.114352 8.56627 0)
(-0.0724635 7.72765 0)
(-0.0367502 6.50715 0)
(-0.00902919 3.84511 0)
(0.00933586 10.0008 0)
(0.0228003 10.0085 0)
(0.0305946 10.0239 0)
(0.033748 10.0398 0)
(0.0333957 10.0562 0)
(0.0298985 10.072 0)
(0.0233929 10.0871 0)
(0.0136183 10.102 0)
(0.00012657 10.1173 0)
(-0.01762 10.134 0)
(-0.0401437 10.1535 0)
(-0.0677901 10.178 0)
(-0.100513 10.2099 0)
(-0.137655 10.2523 0)
(-0.178172 10.3064 0)
(-0.220774 10.3726 0)
(-0.263394 10.4516 0)
(-0.3035 10.5438 0)
(-0.338229 10.6482 0)
(-0.36459 10.7637 0)
(-0.378283 10.889 0)
(-0.380122 11.0168 0)
(-0.375382 11.1393 0)
(-0.364742 11.2464 0)
(-0.348521 11.3044 0)
(-0.32651 11.2207 0)
(-0.296761 10.9154 0)
(-0.258109 10.4659 0)
(-0.21345 9.95852 0)
(-0.166048 9.401 0)
(-0.119468 8.76133 0)
(-0.0753515 7.92993 0)
(-0.0377604 6.68207 0)
(-0.00915693 3.95968 0)
(0.00897574 10.0008 0)
(0.0220142 10.0081 0)
(0.0294718 10.023 0)
(0.0324181 10.0384 0)
(0.0319197 10.0542 0)
(0.0283337 10.0692 0)
(0.0217713 10.0834 0)
(0.0119539 10.097 0)
(-0.00159926 10.1105 0)
(-0.0194847 10.1248 0)
(-0.0423308 10.1411 0)
(-0.070664 10.1612 0)
(-0.104728 10.1874 0)
(-0.144248 10.2227 0)
(-0.188171 10.2702 0)
(-0.234974 10.3313 0)
(-0.282954 10.4059 0)
(-0.329587 10.4948 0)
(-0.371929 10.5977 0)
(-0.406822 10.7135 0)
(-0.431124 10.8401 0)
(-0.440347 10.9762 0)
(-0.436029 11.1136 0)
(-0.424585 11.2442 0)
(-0.407021 11.3583 0)
(-0.383884 11.423 0)
(-0.35497 11.3493 0)
(-0.318514 11.0599 0)
(-0.273937 10.6259 0)
(-0.224344 10.1287 0)
(-0.173761 9.59588 0)
(-0.124398 8.97294 0)
(-0.0775583 8.12516 0)
(-0.0384031 6.84869 0)
(-0.00921589 4.06752 0)
(0.0213288 10.0077 0)
(0.00853265 10.0006 0)
(0.0284786 10.0223 0)
(0.0312471 10.0372 0)
(0.0306219 10.0525 0)
(0.026967 10.0669 0)
(0.0203726 10.0802 0)
(0.0105503 10.0927 0)
(-0.00300138 10.1047 0)
(-0.0209192 10.1169 0)
(-0.0439077 10.1304 0)
(-0.0726304 10.1468 0)
(-0.107558 10.168 0)
(-0.148774 10.1967 0)
(-0.19568 10.2362 0)
(-0.246729 10.29 0)
(-0.29986 10.3593 0)
(-0.352911 10.4438 0)
(-0.402896 10.5436 0)
(-0.446499 10.6582 0)
(-0.480338 10.7859 0)
(-0.501226 10.9241 0)
(-0.504589 11.0708 0)
(-0.492855 11.2175 0)
(-0.473696 11.3555 0)
(-0.448458 11.4758 0)
(-0.417906 11.5466 0)
(-0.381874 11.4824 0)
(-0.338734 11.2077 0)
(-0.288404 10.787 0)
(-0.235157 10.3179 0)
(-0.181175 9.80789 0)
(-0.128295 9.17779 0)
(-0.079094 8.31174 0)
(-0.0387574 7.00602 0)
(-0.00921337 4.1684 0)
(0.0276 10.0216 0)
(0.0204813 10.0073 0)
(0.00799661 10.0005 0)
(0.0302135 10.0362 0)
(0.0294785 10.051 0)
(0.0257697 10.0648 0)
(0.019162 10.0774 0)
(0.00936206 10.089 0)
(-0.00414295 10.0997 0)
(-0.0220155 10.1101 0)
(-0.0450129 10.1212 0)
(-0.0738992 10.1343 0)
(-0.10932 10.1511 0)
(-0.151642 10.174 0)
(-0.200698 10.2061 0)
(-0.255481 10.2509 0)
(-0.313856 10.3124 0)
(-0.373141 10.3913 0)
(-0.430713 10.4868 0)
(-0.483142 10.5987 0)
(-0.526805 10.7259 0)
(-0.558195 10.8659 0)
(-0.574203 11.0157 0)
(-0.570284 11.1727 0)
(-0.549918 11.3278 0)
(-0.522127 11.4725 0)
(-0.488572 11.5981 0)
(-0.450244 11.6742 0)
(-0.406977 11.6188 0)
(-0.35729 11.3571 0)
(-0.302808 10.9665 0)
(-0.245571 10.5242 0)
(-0.187172 10.0137 0)
(-0.131157 9.37421 0)
(-0.0800573 8.48858 0)
(-0.0388641 7.15358 0)
(-0.00915011 4.26219 0)
(0.0292981 10.0353 0)
(0.0265311 10.0208 0)
(0.0194065 10.0067 0)
(0.00747772 10.0004 8.28364e-16)
(0.0284697 10.0497 0)
(0.0247187 10.063 0)
(0.0181104 10.0751 0)
(0.00835216 10.0858 0)
(-0.00507457 10.0953 0)
(-0.0228469 10.1043 0)
(-0.0457563 10.1133 0)
(-0.0746383 10.1235 0)
(-0.110269 10.1365 0)
(-0.153236 10.1542 0)
(-0.203722 10.1796 0)
(-0.261235 10.216 0)
(-0.324261 10.2675 0)
(-0.389957 10.3379 0)
(-0.454979 10.4278 0)
(-0.516261 10.5356 0)
(-0.569975 10.6606 0)
(-0.612285 10.8009 0)
(-0.639682 10.9536 0)
(-0.649275 11.1148 0)
(-0.636666 11.2815 0)
(-0.606537 11.4443 0)
(-0.569314 11.5946 0)
(-0.526942 11.7244 0)
(-0.480589 11.8049 0)
(-0.430116 11.7569 0)
(-0.375833 11.5242 0)
(-0.316706 11.1629 0)
(-0.25414 10.7251 0)
(-0.191744 10.2116 0)
(-0.1331 9.56111 0)
(-0.0805169 8.65512 0)
(-0.0387441 7.29116 0)
(-0.0090339 4.34888 0)
(0.0275724 10.0486 0)
(0.0281929 10.0341 0)
(0.0251979 10.0197 3.68591e-15)
(0.0183481 10.0061 -2.62362e-15)
(0.00697194 10.0003 -1.65697e-15)
(0.0237971 10.0615 0)
(0.0171952 10.073 0)
(0.00749002 10.083 0)
(-0.00583707 10.0916 0)
(-0.0234714 10.0992 0)
(-0.0462248 10.1064 0)
(-0.0749807 10.1141 0)
(-0.11061 10.1237 0)
(-0.15387 10.137 0)
(-0.205218 10.1564 0)
(-0.264586 10.1852 0)
(-0.331067 10.2271 0)
(-0.40252 10.2865 0)
(-0.475299 10.3674 0)
(-0.545372 10.4697 0)
(-0.609276 10.5909 0)
(-0.662871 10.7299 0)
(-0.702228 10.8838 0)
(-0.723978 11.049 0)
(-0.7256 11.2211 0)
(-0.702957 11.3968 0)
(-0.662051 11.5661 0)
(-0.614743 11.7208 0)
(-0.563193 11.8538 0)
(-0.50873 11.9373 0)
(-0.453371 11.9119 0)
(-0.393784 11.7077 0)
(-0.328269 11.3547 0)
(-0.260855 10.9187 0)
(-0.19502 10.4005 0)
(-0.134221 9.73779 0)
(-0.0805222 8.81104 0)
(-0.0384274 7.41875 0)
(-0.00887486 4.42862 0)
(0.0229765 10.0602 0)
(0.026513 10.0471 -7.80381e-15)
(0.0268402 10.0327 -3.88632e-15)
(0.023878 10.0187 1.84405e-15)
(0.0172968 10.0056 -1.74931e-15)
(0.00647956 10.0002 0)
(0.0164023 10.0712 0)
(0.00675279 10.0806 0)
(-0.00646368 10.0883 0)
(-0.0239354 10.0948 0)
(-0.0464862 10.1004 0)
(-0.0750305 10.106 0)
(-0.110505 10.1126 0)
(-0.153792 10.1219 0)
(-0.205564 10.136 0)
(-0.266094 10.1579 0)
(-0.334981 10.1911 0)
(-0.410785 10.2398 0)
(-0.490631 10.3086 0)
(-0.569987 10.4015 0)
(-0.644131 10.5175 0)
(-0.709295 10.6534 0)
(-0.761144 10.8069 0)
(-0.795794 10.9746 0)
(-0.810183 11.1521 0)
(-0.802304 11.3343 0)
(-0.768386 11.5179 0)
(-0.715846 11.6924 0)
(-0.657959 11.8505 0)
(-0.597038 11.9852 0)
(-0.537246 12.0862 0)
(-0.476 12.0828 0)
(-0.40886 11.8875 0)
(-0.337492 11.54 0)
(-0.26585 11.1038 0)
(-0.197128 10.5795 0)
(-0.134607 9.90389 0)
(-0.0801342 8.95628 0)
(-0.0379481 7.53655 0)
(-0.00868119 4.50167 0)
(0.0156962 10.0696 0)
(0.0220336 10.0584 1.64572e-14)
(0.0252743 10.0453 0)
(0.0254823 10.0312 3.88827e-15)
(0.0225586 10.0178 5.48453e-22)
(0.0162516 10.0051 0)
(0.00600004 10.0001 0)
(0.00613003 10.0785 0)
(-0.006978 10.0855 0)
(-0.0242758 10.091 0)
(-0.0465946 10.0952 0)
(-0.0748691 10.0989 0)
(-0.11008 10.1029 0)
(-0.153199 10.1087 0)
(-0.205065 10.1181 0)
(-0.266216 10.1339 0)
(-0.336666 10.1591 0)
(-0.415574 10.198 0)
(-0.500861 10.2549 0)
(-0.588819 10.3346 0)
(-0.673948 10.441 0)
(-0.750883 10.5721 0)
(-0.815681 10.7234 0)
(-0.863953 10.8919 0)
(-0.892035 11.0733 0)
(-0.897338 11.2625 0)
(-0.878506 11.454 0)
(-0.83222 11.6441 0)
(-0.767365 11.8227 0)
(-0.698582 11.9825 0)
(-0.631631 12.1331 0)
(-0.565196 12.2507 0)
(-0.495185 12.251 0)
(-0.421066 12.0619 0)
(-0.344529 11.7176 0)
(-0.269286 11.2798 0)
(-0.198183 10.7484 0)
(-0.134347 10.0593 0)
(-0.0794159 9.091 0)
(-0.0373363 7.64489 0)
(-0.00846019 4.56836 0)
(0.00557519 10.0766 0)
(0.0149269 10.0676 2.82807e-21)
(0.0210269 10.0563 0)
(0.0240141 10.0435 -4.09858e-15)
(0.024119 10.0299 6.92232e-24)
(0.0212392 10.0168 0)
(0.0152127 10.0047 0)
(0.00553385 9.99997 0)
(-0.00738664 10.083 0)
(-0.0245178 10.0876 0)
(-0.0465922 10.0907 0)
(-0.07456 10.0926 0)
(-0.109434 10.0944 0)
(-0.152248 10.0971 0)
(-0.203961 10.1024 0)
(-0.265321 10.1127 0)
(-0.336672 10.1308 0)
(-0.417673 10.1606 0)
(-0.506934 10.2064 0)
(-0.601636 10.2731 0)
(-0.697132 10.3654 0)
(-0.786917 10.4868 0)
(-0.865058 10.6342 0)
(-0.927618 10.8017 0)
(-0.970327 10.9852 0)
(-0.989922 11.1799 0)
(-0.984454 11.3799 0)
(-0.953339 11.5794 0)
(-0.893776 11.7747 0)
(-0.816124 11.9556 0)
(-0.740445 12.1314 0)
(-0.665848 12.297 0)
(-0.589129 12.4131 0)
(-0.51095 12.4147 0)
(-0.430575 12.2296 0)
(-0.349571 11.8867 0)
(-0.271317 11.4461 0)
(-0.198315 10.9069 0)
(-0.133539 10.204 0)
(-0.0784241 9.21549 0)
(-0.0366193 7.74421 0)
(-0.0082188 4.62906 0)
(-0.00775211 10.0808 0)
(0.00504063 10.0743 -9.14555e-15)
(0.0142589 10.0651 0)
(0.0199766 10.0542 0)
(0.022746 10.0418 1.22944e-14)
(0.0227502 10.0285 0)
(0.0199211 10.0159 0)
(0.0141805 10.0042 3.48858e-15)
(0.00508078 9.99987 0)
(-0.0246637 10.0847 0)
(-0.046506 10.0867 0)
(-0.0741529 10.0872 0)
(-0.108642 10.0869 0)
(-0.151055 10.0869 0)
(-0.20244 10.0886 0)
(-0.2637 10.094 0)
(-0.335443 10.1058 0)
(-0.417734 10.1274 0)
(-0.509767 10.163 0)
(-0.609508 10.2173 0)
(-0.713285 10.2954 0)
(-0.815435 10.4019 0)
(-0.908426 10.5397 0)
(-0.985901 10.7043 0)
(-1.04415 10.8883 0)
(-1.0792 11.0869 0)
(-1.08839 11.2941 0)
(-1.07055 11.5037 0)
(-1.02599 11.71 0)
(-0.952437 11.9087 0)
(-0.866763 12.1062 0)
(-0.782236 12.2969 0)
(-0.695476 12.4593 0)
(-0.609075 12.5718 0)
(-0.523474 12.5728 0)
(-0.437608 12.3899 0)
(-0.352812 12.047 0)
(-0.272106 11.6026 0)
(-0.197655 11.055 0)
(-0.132271 10.3384 0)
(-0.0772108 9.33016 0)
(-0.0358222 7.835 0)
(-0.00796312 4.68417 0)
(-0.0247989 10.0821 0)
(-0.00798112 10.0782 0)
(0.00483167 10.0715 -9.59458e-15)
(0.0135206 10.0627 -9.10591e-15)
(0.0189194 10.0521 -1.72773e-14)
(0.0214712 10.0401 0)
(0.021376 10.0273 -7.76329e-15)
(0.0186046 10.0151 -7.35392e-15)
(0.0131543 10.0038 3.48165e-15)
(0.00463995 9.99978 0)
(-0.0463343 10.0831 0)
(-0.0736771 10.0824 0)
(-0.107764 10.0804 0)
(-0.149715 10.078 0)
(-0.200648 10.0764 0)
(-0.261584 10.0775 0)
(-0.333334 10.0836 0)
(-0.416287 10.0978 0)
(-0.510126 10.1241 0)
(-0.613494 10.167 0)
(-0.723594 10.2315 0)
(-0.835803 10.3227 0)
(-0.943385 10.445 0)
(-1.03781 10.6005 0)
(-1.11249 10.7831 0)
(-1.16418 10.9837 0)
(-1.18944 11.1967 0)
(-1.18637 11.4155 0)
(-1.15472 11.6335 0)
(-1.0957 11.8445 0)
(-1.01383 12.061 0)
(-0.917742 12.2741 0)
(-0.81881 12.4612 0)
(-0.72052 12.6183 0)
(-0.625201 12.7255 0)
(-0.533001 12.7244 0)
(-0.442406 12.542 0)
(-0.354459 12.198 0)
(-0.27182 11.7491 0)
(-0.196327 11.1929 0)
(-0.130628 10.4627 0)
(-0.075825 9.43552 0)
(-0.0349675 7.91781 0)
(-0.00769858 4.73411 0)
(-0.0461947 10.0801 0)
(-0.0246383 10.079 -1.01396e-14)
(-0.00758752 10.075 1.0104e-14)
(0.00451677 10.0687 -4.44274e-21)
(0.0127801 10.0603 9.10296e-15)
(0.017858 10.0501 8.63176e-15)
(0.0201889 10.0385 1.63622e-14)
(0.0199963 10.026 1.16257e-14)
(0.0172895 10.0142 -3.66935e-15)
(0.0121338 10.0034 0)
(0.00421141 9.99969 0)
(-0.0731271 10.0782 0)
(-0.106832 10.0746 0)
(-0.148297 10.0701 0)
(-0.198697 10.0657 0)
(-0.259151 10.0629 0)
(-0.330623 10.0639 0)
(-0.41376 10.0716 0)
(-0.508642 10.0894 0)
(-0.614486 10.1218 0)
(-0.729266 10.1735 0)
(-0.84932 10.2499 0)
(-0.968986 10.3559 0)
(-1.08044 10.4956 0)
(-1.17422 10.6699 0)
(-1.24375 10.8708 0)
(-1.28653 11.0879 0)
(-1.29987 11.3145 0)
(-1.2828 11.5436 0)
(-1.23606 11.7681 0)
(-1.16927 11.9984 0)
(-1.07617 12.2317 0)
(-0.962783 12.4415 0)
(-0.850106 12.6228 0)
(-0.741125 12.7727 0)
(-0.637769 12.8735 0)
(-0.539801 12.8689 0)
(-0.445219 12.6858 0)
(-0.35473 12.3397 0)
(-0.270627 11.8859 0)
(-0.19445 11.321 0)
(-0.12869 10.5775 0)
(-0.0743104 9.53209 0)
(-0.0340747 7.99321 0)
(-0.00742968 4.77929 0)
(-0.0726647 10.0745 0)
(-0.0455438 10.0764 -8.91136e-21)
(-0.0234698 10.0754 0)
(-0.0073475 10.0719 -5.97705e-21)
(0.00420811 10.066 0)
(0.0120424 10.0581 -9.09508e-15)
(0.0167907 10.0482 -1.72414e-14)
(0.0188988 10.0369 8.97356e-22)
(0.0186112 10.0249 7.73371e-15)
(0.0159763 10.0135 -3.66008e-15)
(0.0111184 10.0031 3.46254e-15)
(0.00379476 9.99961 0)
(-0.105837 10.0696 0)
(-0.146839 10.0632 0)
(-0.196674 10.0562 0)
(-0.256538 10.05 0)
(-0.327526 10.0465 0)
(-0.410489 10.0483 0)
(-0.505824 10.0585 0)
(-0.613225 10.0812 0)
(-0.731331 10.1212 0)
(-0.85734 10.1836 0)
(-0.986617 10.2737 0)
(-1.11242 10.3962 0)
(-1.22584 10.5546 0)
(-1.31662 10.7484 0)
(-1.37848 10.9679 0)
(-1.40997 11.2008 0)
(-1.40933 11.44 0)
(-1.37665 11.6775 0)
(-1.32259 11.9231 0)
(-1.24469 12.1721 0)
(-1.13183 12.4028 0)
(-1.00173 12.6065 0)
(-0.876238 12.78 0)
(-0.757554 12.9217 0)
(-0.64709 13.0149 0)
(-0.544172 13.0059 0)
(-0.446309 12.8211 0)
(-0.353832 12.4722 0)
(-0.268683 12.0131 0)
(-0.192134 11.4396 0)
(-0.126525 10.6832 0)
(-0.0727057 9.62046 0)
(-0.0331605 8.06174 0)
(-0.00716026 4.82012 0)
(-0.105001 10.0651 0)
(-0.0714042 10.0702 1.12143e-14)
(-0.0433915 10.0723 -1.11798e-14)
(-0.0225174 10.0718 1.06297e-14)
(-0.00708958 10.0688 0)
(0.00391373 10.0634 0)
(0.0113048 10.0558 9.08214e-15)
(0.0157169 10.0463 -8.60472e-15)
(0.0176005 10.0354 9.4314e-22)
(0.017221 10.0237 3.85691e-15)
(0.0146656 10.0127 -3.64887e-15)
(0.0101081 10.0028 -3.44661e-15)
(0.00339235 9.99954 0)
(-0.14533 10.057 0)
(-0.194621 10.0478 0)
(-0.253849 10.0387 0)
(-0.324214 10.0312 0)
(-0.406738 10.0276 0)
(-0.502079 10.0309 0)
(-0.610315 10.0449 0)
(-0.73065 10.074 0)
(-0.861037 10.1233 0)
(-0.997784 10.1982 0)
(-1.13522 10.3039 0)
(-1.26548 10.4446 0)
(-1.37866 10.6228 0)
(-1.46386 10.8367 0)
(-1.51541 11.0744 0)
(-1.53324 11.3224 0)
(-1.51665 11.5722 0)
(-1.47728 11.8329 0)
(-1.41204 12.0993 0)
(-1.3127 12.3472 0)
(-1.18052 12.5723 0)
(-1.03466 12.7676 0)
(-0.897444 12.932 0)
(-0.770132 13.0645 0)
(-0.6535 13.1494 0)
(-0.546423 13.1352 0)
(-0.445929 12.9479 0)
(-0.35196 12.5958 0)
(-0.266133 12.1312 0)
(-0.189477 11.5492 0)
(-0.124195 10.7804 0)
(-0.0710439 9.70122 0)
(-0.0322389 8.12398 0)
(-0.00689354 4.85698 0)
(-0.144069 10.0516 0)
(-0.102992 10.0601 0)
(-0.0680171 10.0655 1.17505e-14)
(-0.0415368 10.0683 -2.23568e-14)
(-0.0215304 10.0684 2.12468e-14)
(-0.00680083 10.0659 -2.01743e-14)
(0.00362877 10.0609 0)
(0.0105652 10.0537 9.06437e-15)
(0.0146353 10.0445 -8.58453e-15)
(0.0162938 10.034 -8.12682e-15)
(0.0158242 10.0226 0)
(0.0133557 10.012 3.63199e-15)
(0.00910963 10.0025 0)
(0.00301278 9.99947 0)
(-0.192527 10.0405 0)
(-0.251135 10.0286 0)
(-0.320812 10.0175 0)
(-0.402715 10.0092 0)
(-0.497724 10.0064 0)
(-0.60624 10.0125 0)
(-0.727932 10.0317 0)
(-0.861402 10.0689 0)
(-1.0038 10.1294 0)
(-1.15047 10.2187 0)
(-1.29463 10.3417 0)
(-1.42735 10.5021 0)
(-1.53779 10.7009 0)
(-1.61464 10.9351 0)
(-1.65322 11.1904 0)
(-1.65506 11.4518 0)
(-1.63273 11.7271 0)
(-1.58226 12.0111 0)
(-1.49348 12.2783 0)
(-1.37286 12.5218 0)
(-1.22225 12.7386 0)
(-1.06182 12.9239 0)
(-0.914064 13.078 0)
(-0.779231 13.2006 0)
(-0.657348 13.2767 0)
(-0.546855 13.2567 0)
(-0.444321 13.0664 0)
(-0.349295 12.7107 0)
(-0.263107 12.2407 0)
(-0.186566 11.6504 0)
(-0.121755 10.8696 0)
(-0.0693529 9.77493 0)
(-0.0313217 8.18044 0)
(-0.00663199 4.89024 0)
(-0.190792 10.0339 0)
(-0.141152 10.0457 0)
(-0.0980738 10.0546 0)
(-0.0650367 10.0609 2.34949e-14)
(-0.0396271 10.0644 -2.23406e-14)
(-0.0204926 10.0651 2.12213e-14)
(-0.00649088 10.0631 0)
(0.00334976 10.0585 -9.54702e-15)
(0.0098228 10.0516 0)
(0.0135455 10.0428 8.56038e-15)
(0.0149779 10.0326 0)
(0.0144214 10.0216 0)
(0.0120564 10.0114 0)
(0.00814919 10.0022 3.50815e-15)
(0.00266022 9.99941 1.68533e-15)
(-0.248388 10.0197 0)
(-0.31738 10.0054 0)
(-0.398573 9.99294 0)
(-0.493014 9.98463 0)
(-0.601385 9.98362 0)
(-0.72375 9.99381 0)
(-0.859261 10.0198 0)
(-1.00581 10.0669 0)
(-1.15965 10.1406 0)
(-1.31507 10.2462 0)
(-1.46418 10.3883 0)
(-1.59703 10.5695 0)
(-1.70199 10.7896 0)
(-1.76764 11.0438 0)
(-1.79055 11.3155 0)
(-1.788 11.6049 0)
(-1.755 11.9065 0)
(-1.67884 12.1938 0)
(-1.56628 12.4581 0)
(-1.42502 12.6941 0)
(-1.25717 12.9006 0)
(-1.08355 13.0744 0)
(-0.926496 13.2174 0)
(-0.785237 13.3296 0)
(-0.658983 13.3967 0)
(-0.545753 13.3705 0)
(-0.441705 13.1768 0)
(-0.346 12.8173 0)
(-0.25972 12.3419 0)
(-0.183475 11.7436 0)
(-0.119249 10.9515 0)
(-0.0676569 9.84215 0)
(-0.030418 8.23165 0)
(-0.00637717 4.92024 0)
(-0.246137 10.0118 0)
(-0.186788 10.0269 0)
(-0.134362 10.0394 2.59094e-14)
(-0.0937053 10.0494 2.46787e-14)
(-0.0619744 10.0565 2.34784e-14)
(-0.0376433 10.0607 -2.2312e-14)
(-0.0194181 10.0619 0)
(-0.00616295 10.0603 0)
(0.00307512 10.0561 0)
(0.00907506 10.0496 1.80313e-14)
(0.0124458 10.0412 8.53159e-15)
(0.0136519 10.0313 8.06137e-15)
(0.0130221 10.0207 0)
(0.0108001 10.0108 -3.69663e-15)
(0.00724358 10.002 -1.77951e-15)
(0.00233143 9.99936 0)
(-0.313921 9.99472 0)
(-0.394383 9.97848 0)
(-0.488134 9.96524 0)
(-0.596057 9.95784 0)
(-0.718565 9.95988 0)
(-0.855285 9.97571 0)
(-1.00474 10.0104 0)
(-1.16402 10.0693 0)
(-1.32838 10.1582 0)
(-1.49102 10.2821 0)
(-1.64299 10.4448 0)
(-1.77336 10.6477 0)
(-1.86997 10.8895 0)
(-1.92144 11.1627 0)
(-1.94185 11.4653 0)
(-1.92951 11.7843 0)
(-1.86874 12.0924 0)
(-1.76617 12.3788 0)
(-1.63016 12.6367 0)
(-1.46928 12.8628 0)
(-1.28563 13.0572 0)
(-1.1003 13.2184 0)
(-0.935184 13.3498 0)
(-0.788545 13.4514 0)
(-0.658739 13.5093 0)
(-0.543382 13.4768 0)
(-0.438281 13.2794 0)
(-0.34222 12.9161 0)
(-0.256071 12.4353 0)
(-0.18027 11.8294 0)
(-0.116716 11.0265 0)
(-0.0659742 9.90344 0)
(-0.0295347 8.27807 0)
(-0.00613082 4.9473 0)
(-0.311123 9.98523 0)
(-0.240844 10.0034 0)
(-0.177732 10.0195 -5.43547e-14)
(-0.128295 10.0333 3.34379e-20)
(-0.089218 10.0443 -4.93188e-14)
(-0.0588076 10.0523 4.68959e-14)
(-0.0356015 10.0571 -2.22733e-14)
(-0.0183108 10.0589 0)
(-0.00582102 10.0577 0)
(0.00280207 10.0539 -1.89874e-14)
(0.0083209 10.0477 8.98457e-15)
(0.0113351 10.0396 -8.48992e-15)
(0.0123246 10.03 8.05349e-15)
(0.0116626 10.0198 7.78969e-15)
(0.00960712 10.0102 0)
(0.00638776 10.0018 0)
(0.00202401 9.99932 -1.72991e-15)
(-0.390165 9.96563 0)
(-0.483168 9.94799 0)