/*--------------------------------*- C++ -*----------------------------------*\
  =========                 |
  \\      /  F ield         | OpenFOAM: The Open Source CFD Toolbox
   \\    /   O peration     | Website:  https://openfoam.org
    \\  /    A nd           | Version:  8
     \\/     M anipulation  |
\*---------------------------------------------------------------------------*/
FoamFile
{
    version     2.0;
    format      ascii;
    class       surfaceScalarField;
    location    "0.42";
    object      phi;
}
// * * * * * * * * * * * * * * * * * * * * * * * * * * * * * * * * * * * * * //

dimensions      [0 3 -1 0 0 0 0];

internalField   nonuniform List<scalar> 
31053
(
6.40145e-07
1.27399e-05
8.63161e-07
1.5157e-05
3.57383e-07
1.23825e-05
9.48801e-07
1.75544e-05
5.67567e-07
1.49468e-05
2.75239e-07
1.21072e-05
9.73477e-07
2.02153e-05
6.82326e-07
1.74396e-05
4.71111e-07
1.47509e-05
2.16688e-07
1.18905e-05
9.64859e-07
2.32486e-05
7.41078e-07
2.01566e-05
5.97073e-07
1.73136e-05
3.97e-07
1.45706e-05
1.7225e-07
1.17183e-05
9.34931e-07
2.66899e-05
7.66169e-07
2.32235e-05
6.72256e-07
2.00814e-05
5.2439e-07
1.71862e-05
3.32873e-07
1.441e-05
1.37927e-07
1.15804e-05
8.89496e-07
3.06654e-05
7.69385e-07
2.66867e-05
7.14379e-07
2.31814e-05
6.05458e-07
2.00003e-05
4.55067e-07
1.70641e-05
2.78657e-07
1.42693e-05
1.10875e-07
1.14695e-05
8.31643e-07
3.51979e-05
7.57182e-07
3.06776e-05
7.34339e-07
2.66668e-05
6.53742e-07
2.31331e-05
5.36145e-07
1.99192e-05
3.91764e-07
1.69509e-05
2.31674e-07
1.41485e-05
8.84042e-08
1.13811e-05
7.65161e-07
4.03865e-05
7.33739e-07
3.52213e-05
7.38588e-07
3.06734e-05
6.79305e-07
2.66412e-05
5.85189e-07
2.30841e-05
4.6913e-07
1.98419e-05
3.33018e-07
1.68496e-05
1.89562e-07
1.40473e-05
6.87009e-08
1.13124e-05
6.92638e-07
4.63525e-05
7.0021e-07
4.042e-05
7.31003e-07
3.52289e-05
6.88147e-07
3.06645e-05
6.11215e-07
2.66152e-05
5.15654e-07
2.30376e-05
4.03643e-07
1.97713e-05
2.77185e-07
1.6762e-05
1.5054e-07
1.39655e-05
5.06187e-08
1.12618e-05
6.15917e-07
5.32167e-05
6.58118e-07
4.63946e-05
7.11922e-07
4.04391e-05
6.83199e-07
3.52338e-05
6.20136e-07
3.06556e-05
5.38969e-07
2.65918e-05
4.44888e-07
2.29963e-05
3.3856e-07
1.97099e-05
2.22888e-07
1.66896e-05
1.13314e-07
1.39028e-05
3.33764e-08
1.12284e-05
5.3696e-07
6.1059e-05
6.09266e-07
5.32656e-05
6.81794e-07
4.64247e-05
6.67342e-07
4.04549e-05
6.1533e-07
3.52386e-05
5.44836e-07
3.06498e-05
4.62835e-07
2.65739e-05
3.72138e-07
2.29627e-05
2.72759e-07
1.966e-05
1.69026e-07
1.66339e-05
7.6938e-08
1.38592e-05
1.64641e-08
1.12119e-05
4.57623e-07
7.00613e-05
5.55224e-07
6.1113e-05
6.41714e-07
5.33057e-05
6.41544e-07
4.64505e-05
5.99039e-07
4.04712e-05
5.36713e-07
3.52468e-05
4.62849e-07
3.06497e-05
3.82351e-07
2.65637e-05
2.96351e-07
2.29391e-05
2.05232e-07
1.96238e-05
1.14794e-07
1.65961e-05
4.07174e-08
1.3835e-05
-2.90335e-10
1.12122e-05
3.79599e-07
8.041e-05
4.97408e-07
7.01192e-05
5.92921e-07
6.11618e-05
6.05863e-07
5.33413e-05
5.72369e-07
4.64772e-05
5.16566e-07
4.04914e-05
4.48299e-07
3.52613e-05
3.7398e-07
3.06581e-05
2.96477e-07
2.65636e-05
2.16516e-07
2.29279e-05
1.35288e-07
1.96033e-05
5.95702e-08
1.65772e-05
4.2783e-09
1.38304e-05
-1.71203e-08
1.12293e-05
3.16774e-07
7.62528e-05
4.37116e-07
8.04703e-05
5.36859e-07
7.01752e-05
5.60618e-07
6.1207e-05
5.35593e-07
5.33781e-05
4.85385e-07
4.65084e-05
4.21035e-07
4.05187e-05
3.50215e-07
3.52851e-05
2.77218e-07
3.06774e-05
2.04165e-07
2.65759e-05
1.31949e-07
2.29312e-05
6.23966e-08
1.96005e-05
3.00937e-09
1.65785e-05
-3.25962e-08
1.38459e-05
-3.42171e-08
1.12636e-05
2.63471e-07
7.62433e-05
3.85452e-07
7.63045e-05
4.75183e-07
8.0532e-05
5.06524e-07
7.02293e-05
4.88807e-07
6.12538e-05
4.43511e-07
5.342e-05
3.81927e-07
4.65475e-05
3.12787e-07
4.05561e-05
2.4149e-07
3.53208e-05
1.71467e-07
3.07101e-05
1.04684e-07
2.66032e-05
4.21322e-08
2.29515e-05
-1.36638e-08
1.96172e-05
-5.5019e-08
1.66009e-05
-7.00645e-08
1.38817e-05
-5.15506e-08
1.13151e-05
2.18456e-07
7.6235e-05
3.38754e-07
7.629e-05
4.20583e-07
7.63591e-05
4.44787e-07
8.05937e-05
4.32318e-07
7.02858e-05
3.91023e-07
6.13063e-05
3.31262e-07
5.34706e-05
2.62439e-07
4.65978e-05
1.90856e-07
4.06067e-05
1.20983e-07
3.53713e-05
5.5935e-08
3.07588e-05
-2.49242e-09
2.66478e-05
-5.30692e-08
2.29909e-05
-9.28665e-08
1.9655e-05
-1.14479e-07
1.66453e-05
-1.08026e-07
1.39382e-05
-6.89581e-08
1.13841e-05
1.80634e-07
7.62298e-05
2.9662e-07
7.62771e-05
3.6994e-07
7.63406e-05
3.88503e-07
7.64154e-05
3.66981e-07
8.06591e-05
3.28068e-07
7.03488e-05
2.69109e-07
6.13685e-05
1.99352e-07
5.35337e-05
1.25902e-07
4.66628e-05
5.40426e-08
4.06737e-05
-1.21755e-08
3.54394e-05
-6.9926e-08
3.08263e-05
-1.17459e-07
2.67122e-05
-1.5348e-07
2.30515e-05
-1.74931e-07
1.97155e-05
-1.75068e-07
1.67124e-05
-1.46203e-07
1.40154e-05
-8.63055e-08
1.14704e-05
1.49038e-07
7.62216e-05
2.58671e-07
7.62678e-05
3.23203e-07
7.63239e-05
3.3529e-07
7.63939e-05
3.06777e-07
7.64756e-05
2.55306e-07
8.07318e-05
1.95585e-07
7.04223e-05
1.23557e-07
6.14443e-05
4.66766e-08
5.3613e-05
-2.89715e-08
4.67458e-05
-9.86193e-08
4.07601e-05
-1.58555e-07
3.5528e-05
-2.06183e-07
3.0915e-05
-2.39906e-07
2.67986e-05
-2.58584e-07
2.31351e-05
-2.59264e-07
1.97996e-05
-2.36267e-07
1.68024e-05
-1.84229e-07
1.41134e-05
-1.03332e-07
1.15737e-05
1.22834e-07
7.62162e-05
2.24561e-07
7.62557e-05
2.80257e-07
7.63107e-05
2.8554e-07
7.63736e-05
2.49517e-07
7.64511e-05
1.88184e-07
7.65427e-05
1.11319e-07
8.08161e-05
3.518e-08
7.05107e-05
-4.68548e-08
6.15378e-05
-1.2818e-07
5.37122e-05
-2.0327e-07
4.68505e-05
-2.6772e-07
4.08693e-05
-3.18195e-07
3.564e-05
-3.5237e-07
3.10274e-05
-3.69104e-07
2.69091e-05
-3.67485e-07
2.32433e-05
-3.4498e-07
1.99084e-05
-2.97413e-07
1.69156e-05
-2.21621e-07
1.42316e-05
-1.19851e-07
1.16936e-05
1.01215e-07
7.62116e-05
1.93947e-07
7.62468e-05
2.40964e-07
7.6295e-05
2.3943e-07
7.63568e-05
1.95893e-07
7.64273e-05
1.24361e-07
7.65149e-05
3.39538e-08
7.66201e-05
-6.5062e-08
8.09163e-05
-1.54545e-07
7.06183e-05
-2.43703e-07
6.16533e-05
-3.2646e-07
5.38354e-05
-3.97609e-07
4.69804e-05
-4.53271e-07
4.10043e-05
-4.90459e-07
3.57781e-05
-5.07561e-07
3.11659e-05
-5.03848e-07
2.70455e-05
-4.78883e-07
2.33773e-05
-4.31049e-07
2.0042e-05
-3.57707e-07
1.70517e-05
-2.57867e-07
1.43697e-05
-1.35526e-07
1.18291e-05
8.4761e-08
6.95985e-05
1.66532e-07
7.6239e-05
2.05171e-07
7.62826e-05
1.97042e-07
7.63374e-05
1.46298e-07
7.64064e-05
6.47754e-08
7.64868e-05
-3.9306e-08
7.65882e-05
-1.56447e-07
7.67114e-05
-2.75518e-07
8.10373e-05
-3.75371e-07
7.075e-05
-4.68423e-07
6.17953e-05
-5.4882e-07
5.39866e-05
-6.11981e-07
4.71391e-05
-6.54457e-07
4.11683e-05
-6.74217e-07
3.59448e-05
-6.70233e-07
3.13323e-05
-6.42426e-07
2.7209e-05
-5.91332e-07
2.35375e-05
-5.16238e-07
2.02005e-05
-4.16258e-07
1.72101e-05
-2.9235e-07
1.45265e-05
-1.50167e-07
1.19792e-05
7.21839e-08
6.25566e-05
1.44093e-07
6.96209e-05
1.72752e-07
7.62715e-05
1.58403e-07
7.63212e-05
1.00966e-07
7.63827e-05
1.00247e-08
7.64612e-05
-1.07312e-07
7.65548e-05
-2.42478e-07
7.66742e-05
-3.85025e-07
7.6821e-05
-5.22106e-07
8.1184e-05
-6.28978e-07
7.09106e-05
-7.21731e-07
6.19682e-05
-7.95245e-07
5.41698e-05
-8.45382e-07
4.733e-05
-8.69932e-07
4.1364e-05
-8.67612e-07
3.61422e-05
-8.38242e-07
3.15281e-05
-7.82939e-07
2.74007e-05
-7.0309e-07
2.37244e-05
-5.99229e-07
2.03835e-05
-4.72092e-07
1.73898e-05
-3.24561e-07
1.47009e-05
-1.63304e-07
1.21426e-05
6.23963e-08
5.62278e-05
1.25909e-07
6.25748e-05
1.46012e-07
6.96476e-05
1.23526e-07
7.63063e-05
6.00461e-08
7.63622e-05
-3.95025e-08
7.64322e-05
-1.6927e-07
7.65231e-05
-3.21815e-07
7.66342e-05
-4.87518e-07
7.67767e-05
-6.54132e-07
7.6953e-05
-8.06807e-07
8.13619e-05
-9.16174e-07
7.1105e-05
-1.00364e-06
6.21766e-05
-1.06454e-06
5.4389e-05
-1.09624e-06
4.75563e-05
-1.09748e-06
4.15939e-05
-1.06803e-06
3.63719e-05
-1.00921e-06
3.17544e-05
-9.23115e-07
2.76207e-05
-8.12361e-07
2.39375e-05
-6.7858e-07
2.059e-05
-5.2431e-07
1.75896e-05
-3.53539e-07
1.48911e-05
-1.74176e-07
1.23167e-05
5.46631e-08
5.05397e-05
1.11065e-07
5.62426e-05
1.24235e-07
6.25965e-05
9.49619e-08
6.96762e-05
2.36335e-08
7.63427e-05
-8.3548e-08
7.64062e-05
-2.24631e-07
7.64876e-05
-3.93467e-07
7.65948e-05
-5.81452e-07
7.67281e-05
-7.77081e-07
7.68997e-05
-9.66063e-07
7.71122e-05
-1.13057e-06
8.15763e-05
-1.23702e-06
7.13384e-05
-1.31275e-06
6.24248e-05
-1.35491e-06
5.46477e-05
-1.36196e-06
4.78208e-05
-1.33398e-06
4.18599e-05
-1.2726e-06
3.66353e-05
-1.18032e-06
3.20116e-05
-1.06063e-06
2.78689e-05
-9.17153e-07
2.41761e-05
-7.52968e-07
2.08186e-05
-5.71518e-07
1.78076e-05
-3.78636e-07
1.50956e-05
-1.82755e-07
1.24995e-05
4.8472e-08
4.54262e-05
9.88573e-08
5.05519e-05
1.06414e-07
5.62605e-05
7.19485e-08
6.26196e-05
-5.63552e-09
6.97055e-05
-1.21935e-07
7.63811e-05
-2.73014e-07
7.64546e-05
-4.56707e-07
7.65508e-05
-6.65626e-07
7.6679e-05
-8.89184e-07
7.68402e-05
-1.1138e-06
7.70474e-05
-1.32194e-06
7.73036e-05
-1.49358e-06
8.18328e-05
-1.58997e-06
7.16156e-05
-1.64706e-06
6.27169e-05
-1.66334e-06
5.4949e-05
-1.63888e-06
4.81257e-05
-1.57604e-06
4.21633e-05
-1.47792e-06
3.69329e-05
-1.34867e-06
3.22996e-05
-1.1929e-06
2.81447e-05
-1.01566e-06
2.44388e-05
-8.20542e-07
2.10677e-05
-6.12908e-07
1.80418e-05
-3.96358e-07
1.53092e-05
-1.50585e-07
1.26501e-05
4.34544e-08
4.0831e-05
8.87477e-08
4.54363e-05
9.17542e-08
5.05666e-05
5.33891e-08
5.6279e-05
-2.86844e-08
6.26426e-05
-1.51952e-07
6.97355e-05
-3.14153e-07
7.64223e-05
-5.11016e-07
7.65089e-05
-7.39115e-07
7.66243e-05
-9.89004e-07
7.67788e-05
-1.24798e-06
7.69744e-05
-1.499e-06
7.72245e-05
-1.72209e-06
7.75321e-05
-1.89413e-06
8.2137e-05
-1.9728e-06
7.19414e-05
-2.00314e-06
6.30567e-05
-1.98562e-06
5.52958e-05
-1.92304e-06
4.84727e-05
-1.8196e-06
4.2505e-05
-1.68042e-06
3.72647e-05
-1.51101e-06
3.26177e-05
-1.31755e-06
2.84466e-05
-1.10554e-06
2.47238e-05
-8.80018e-07
2.13348e-05
-6.43474e-07
1.82889e-05
-3.91187e-07
1.55498e-05
-1.0177e-07
1.27518e-05
3.93398e-08
3.67001e-05
8.03354e-08
4.08394e-05
7.96355e-08
4.54484e-05
3.84051e-08
5.05816e-05
-4.67737e-08
5.62971e-05
-1.74788e-07
6.26654e-05
-3.45244e-07
6.97666e-05
-5.56022e-07
7.64673e-05
-8.01237e-07
7.6571e-05
-1.07539e-06
7.67107e-05
-1.36691e-06
7.68977e-05
-1.6594e-06
7.71348e-05
-1.9332e-06
7.74356e-05
-2.16477e-06
7.78028e-05
-2.32989e-06
8.24941e-05
-2.3817e-06
7.23199e-05
-2.37619e-06
6.34473e-05
-2.31713e-06
5.56899e-05
-2.20961e-06
4.88627e-05
-2.06036e-06
4.28849e-05
-1.87616e-06
3.76298e-05
-1.66441e-06
3.29646e-05
-1.43179e-06
2.87728e-05
-1.18499e-06
2.50288e-05
-9.26573e-07
2.16179e-05
-6.56216e-07
1.8554e-05
-3.67113e-07
1.58151e-05
-8.16772e-08
1.28335e-05
3.59292e-08
3.29894e-05
7.33122e-08
3.67071e-05
6.95854e-08
4.08495e-05
2.62918e-08
4.54605e-05
-6.09238e-08
5.05957e-05
-1.91961e-07
5.63143e-05
-3.67846e-07
6.2688e-05
-5.88779e-07
6.97993e-05
-8.51491e-07
7.65175e-05
-1.14747e-06
7.66431e-05
-1.46917e-06
7.6813e-05
-1.80114e-06
7.70394e-05
-2.1242e-06
7.73258e-05
-2.41467e-06
7.76855e-05
-2.6476e-06
7.81205e-05
-2.7967e-06
8.29091e-05
-2.81124e-06
7.2755e-05
-2.76087e-06
6.3891e-05
-2.65226e-06
5.61325e-05
-2.49358e-06
4.92959e-05
-2.29369e-06
4.33025e-05
-2.06167e-06
3.80271e-05
-1.80558e-06
3.33384e-05
-1.53328e-06
2.91211e-05
-1.24972e-06
2.53519e-05
-9.55432e-07
2.19171e-05
-6.55835e-07
1.88427e-05
-3.45586e-07
1.6079e-05
-7.66974e-08
1.29102e-05
3.30767e-08
2.96509e-05
6.74242e-08
3.29953e-05
6.12366e-08
3.67155e-05
1.64636e-08
4.08593e-05
-7.19583e-08
4.54716e-05
-2.04701e-07
5.06085e-05
-3.83831e-07
5.63303e-05
-6.1133e-07
6.27106e-05
-8.86719e-07
6.98346e-05
-1.20459e-06
7.65746e-05
-1.55365e-06
7.67276e-05
-1.92251e-06
7.69343e-05
-2.29273e-06
7.7208e-05
-2.64074e-06
7.75519e-05
-2.9411e-06
7.7979e-05
-3.16618e-06
7.849e-05
-3.28841e-06
8.33862e-05
-3.25536e-06
7.32495e-05
-3.15077e-06
6.43896e-05
-2.98524e-06
5.66242e-05
-2.76957e-06
4.97718e-05
-2.51548e-06
4.37563e-05
-2.23308e-06
3.84546e-05
-1.93172e-06
3.37368e-05
-1.61823e-06
2.94896e-05
-1.29595e-06
2.56924e-05
-9.71733e-07
2.2233e-05
-6.51682e-07
1.91488e-05
-3.34826e-07
1.63372e-05
-8.22593e-08
1.29925e-05
3.06728e-08
2.66504e-05
6.24608e-08
2.96558e-05
5.42834e-08
3.30023e-05
8.44838e-09
3.67235e-05
-8.05432e-08
4.08679e-05
-2.13995e-07
4.54809e-05
-3.94711e-07
5.06194e-05
-6.26003e-07
5.63449e-05
-9.09557e-07
6.27334e-05
-1.24328e-06
6.98732e-05
-1.61952e-06
7.66405e-05
-2.02212e-06
7.68272e-05
-2.43673e-06
7.70783e-05
-2.84019e-06
7.74074e-05
-3.20683e-06
7.78176e-05
-3.50792e-06
7.83207e-05
-3.71385e-06
7.89154e-05
-3.79841e-06
8.39293e-05
-3.70686e-06
7.38055e-05
-3.53935e-06
6.49437e-05
-3.30984e-06
5.71645e-05
-3.03272e-06
5.0289e-05
-2.72127e-06
4.42445e-05
-2.38713e-06
3.891e-05
-2.03934e-06
3.41579e-05
-1.68359e-06
2.98773e-05
-1.3281e-06
2.60488e-05
-9.82776e-07
2.25641e-05
-6.49367e-07
1.94633e-05
-3.33795e-07
1.65887e-05
-1.11478e-07
1.31039e-05
2.86337e-08
2.3956e-05
5.82523e-08
2.66546e-05
4.84695e-08
2.96616e-05
1.88461e-09
3.30088e-05
-8.72109e-08
3.67302e-05
-2.20631e-07
4.08745e-05
-4.01693e-07
4.54878e-05
-6.34677e-07
5.0628e-05
-9.22909e-07
5.63583e-05
-1.26688e-06
6.2757e-05
-1.66288e-06
6.99166e-05
-2.0989e-06
7.67173e-05
-2.5545e-06
7.6945e-05
-3.01058e-06
7.72487e-05
-3.44156e-06
7.76421e-05
-3.81786e-06
7.81276e-05
-4.10812e-06
7.8715e-05
-4.28357e-06
7.94005e-05
-4.31869e-06
8.45411e-05
-4.15833e-06
7.44245e-05
-3.91937e-06
6.55532e-05
-3.62037e-06
5.77521e-05
-3.2779e-06
5.08456e-05
-2.90727e-06
4.47646e-05
-2.52047e-06
3.93911e-05
-2.1259e-06
3.46002e-05
-1.73275e-06
3.02819e-05
-1.35246e-06
2.64185e-05
-9.91964e-07
2.29067e-05
-6.50298e-07
1.97798e-05
-4.15663e-07
1.68929e-05
-1.20301e-07
1.32242e-05
2.68942e-08
2.15337e-05
5.46652e-08
2.39596e-05
4.35834e-08
2.66595e-05
-3.50157e-09
2.9667e-05
-9.23782e-08
3.3014e-05
-2.2523e-07
3.67348e-05
-4.05734e-07
4.08786e-05
-6.3885e-07
4.5492e-05
-9.29114e-07
5.06342e-05
-1.279e-06
5.63704e-05
-1.6879e-06
6.2782e-05
-2.14837e-06
6.99661e-05
-2.64467e-06
7.68075e-05
-3.14981e-06
7.70842e-05
-3.64235e-06
7.74495e-05
-4.09225e-06
7.79165e-05
-4.46665e-06
7.84861e-05
-4.73437e-06
7.91658e-05
-4.86671e-06
7.99486e-05
-4.84089e-06
8.52237e-05
-4.60146e-06
7.51066e-05
-4.28427e-06
6.62171e-05
-3.91096e-06
5.83852e-05
-3.50078e-06
5.14391e-05
-3.07012e-06
4.53143e-05
-2.63084e-06
3.98961e-05
-2.19378e-06
3.50613e-05
-1.77084e-06
3.07003e-05
-1.37177e-06
2.67983e-05
-9.99719e-07
2.32561e-05
-8.05578e-07
2.01697e-05
-4.17155e-07
1.71897e-05
-1.30338e-07
1.33546e-05
2.54031e-08
1.93535e-05
5.15937e-08
2.15368e-05
3.94557e-08
2.39638e-05
-7.92918e-09
2.66639e-05
-9.63686e-08
2.9671e-05
-2.2828e-07
3.3017e-05
-4.07583e-07
3.67366e-05
-6.39701e-07
4.08794e-05
-9.30033e-07
4.54929e-05
-1.28254e-06
5.06378e-05
-1.699e-06
5.63815e-05
-2.17565e-06
6.28093e-05
-2.70199e-06
7.00234e-05
-3.25617e-06
7.69138e-05
-3.80669e-06
7.72486e-05
-4.32764e-06
7.76849e-05
-4.78508e-06
7.8235e-05
-5.14567e-06
7.88974e-05
-5.37754e-06
7.96766e-05
-5.45412e-06
8.05618e-05
-5.35559e-06
8.59778e-05
-5.02874e-06
7.58511e-05
-4.62731e-06
6.69334e-05
-4.17661e-06
5.9061e-05
-3.69776e-06
5.20668e-05
-3.20756e-06
4.5891e-05
-2.71964e-06
4.04219e-05
-2.24693e-06
3.55374e-05
-1.80012e-06
3.11287e-05
-1.38617e-06
2.71847e-05
-1.24146e-06
2.3692e-05
-8.00802e-07
2.05534e-05
-4.19033e-07
1.74784e-05
-1.38132e-07
1.34927e-05
1.73973e-05
2.41194e-08
4.89527e-08
1.93561e-05
3.59513e-08
2.15403e-05
-1.15782e-08
2.39674e-05
-9.94348e-08
2.6667e-05
-2.30159e-07
2.96729e-05
-4.07827e-07
3.30173e-05
-6.38149e-07
3.67351e-05
-9.27126e-07
4.08765e-05
-1.2798e-06
4.54902e-05
-1.69977e-06
5.06385e-05
-2.18613e-06
5.6392e-05
-2.73264e-06
6.284e-05
-3.32341e-06
7.00906e-05
-3.93243e-06
7.70396e-05
-4.521e-06
7.74419e-05
-5.05939e-06
7.79592e-05
-5.5125e-06
7.86018e-05
-5.84543e-06
7.93653e-05
-6.02782e-06
8.02503e-05
-6.03546e-06
8.12417e-05
-5.85428e-06
8.68034e-05
-5.43245e-06
7.66562e-05
-4.94272e-06
6.76996e-05
-4.41331e-06
5.97766e-05
-3.86633e-06
5.27256e-05
-3.32009e-06
4.64914e-05
-2.78974e-06
4.09647e-05
-2.28718e-06
3.60244e-05
-1.82081e-06
3.15633e-05
-1.72398e-06
2.76672e-05
-1.23369e-06
2.41249e-05
-7.93263e-07
2.09276e-05
-4.18351e-07
1.77586e-05
-1.43168e-07
1.36359e-05
1.73996e-05
4.66701e-08
2.78121e-05
2.20414e-08
3.29629e-08
1.93591e-05
-1.45942e-08
2.15433e-05
-1.01776e-07
2.39697e-05
-2.31162e-07
2.6668e-05
-4.06916e-07
2.9672e-05
-6.34908e-07
3.3014e-05
-9.21531e-07
3.67295e-05
-1.27259e-06
4.08693e-05
-1.69304e-06
4.54835e-05
-2.18416e-06
5.06366e-05
-2.74309e-06
5.64024e-05
-3.35883e-06
6.28754e-05
-4.01205e-06
7.01702e-05
-4.6697e-06
7.71883e-05
-5.28595e-06
7.76685e-05
-5.83018e-06
7.82769e-05
-6.26478e-06
7.90212e-05
-6.55567e-06
7.98931e-05
-6.67412e-06
8.0889e-05
-6.60136e-06
8.19887e-05
-6.32811e-06
8.7699e-05
-5.80589e-06
7.75194e-05
-5.22585e-06
6.85121e-05
-4.61808e-06
6.05283e-05
-4.00616e-06
5.34116e-05
-3.40959e-06
4.71113e-05
-2.8425e-06
4.15201e-05
-2.31478e-06
3.65184e-05
-2.2656e-06
3.21049e-05
-1.71428e-06
2.81478e-05
-1.21835e-06
2.455e-05
-7.81211e-07
2.12905e-05
-4.14216e-07
1.80297e-05
-1.45562e-07
1.37814e-05
1.74021e-05
3.04052e-08
2.78157e-05
4.30116e-08
2.8552e-05
2.00638e-08
-1.70949e-08
1.93616e-05
-1.0355e-07
2.15451e-05
-2.31519e-07
2.39701e-05
-4.05198e-07
2.66663e-05
-6.30522e-07
2.96676e-05
-9.1412e-07
3.30066e-05
-1.26231e-06
3.67192e-05
-1.68103e-06
4.08573e-05
-2.17319e-06
4.54725e-05
-2.7386e-06
5.06321e-05
-3.37015e-06
5.64138e-05
-4.05405e-06
6.29174e-05
-4.76457e-06
7.02651e-05
-5.46155e-06
7.73639e-05
-6.0944e-06
7.79327e-05
-6.63021e-06
7.86423e-05
-7.03138e-06
7.94969e-05
-7.26465e-06
8.04836e-05
-7.30627e-06
8.15939e-05
-7.14193e-06
8.28026e-05
-6.76932e-06
8.86624e-05
-6.14358e-06
7.84371e-05
-5.47305e-06
6.93671e-05
-4.78973e-06
6.13119e-05
-4.11821e-06
5.41202e-05
-3.47695e-06
4.77457e-05
-2.87824e-06
4.20835e-05
-2.88085e-06
3.71336e-05
-2.25334e-06
3.2644e-05
-1.69194e-06
2.86214e-05
-1.19519e-06
2.49639e-05
-7.64155e-07
2.16404e-05
-4.06686e-07
1.82908e-05
-1.45599e-07
1.3927e-05
1.74042e-05
-1.9177e-08
2.78193e-05
2.68719e-08
2.85555e-05
3.94994e-08
2.93119e-05
1.81889e-08
-1.04881e-07
1.9363e-05
-2.31404e-07
2.1545e-05
-4.02938e-07
2.39678e-05
-6.25409e-07
2.66612e-05
-9.05561e-07
2.9659e-05
-1.25004e-06
3.29944e-05
-1.66545e-06
3.67036e-05
-2.15595e-06
4.084e-05
-2.72332e-06
4.54572e-05
-3.36359e-06
5.06255e-05
-4.06746e-06
5.64272e-05
-4.81535e-06
6.29682e-05
-5.57499e-06
7.03786e-05
-6.30126e-06
7.75707e-05
-6.93666e-06
7.82391e-05
-7.44883e-06
7.90598e-05
-7.8001e-06
8.00323e-05
-7.96155e-06
8.11389e-05
-7.91344e-06
8.23654e-05
-7.6484e-06
8.36817e-05
-7.17136e-06
8.96902e-05
-6.44097e-06
7.9405e-05
-5.68227e-06
7.02596e-05
-4.92839e-06
6.2122e-05
-4.20291e-06
5.48462e-05
-3.52253e-06
4.839e-05
-3.58302e-06
4.27857e-05
-2.86547e-06
3.77458e-05
-2.22336e-06
3.31754e-05
-1.6579e-06
2.90841e-05
-1.16456e-06
2.53643e-05
-7.42524e-07
2.19763e-05
-3.96102e-07
1.85413e-05
-1.43701e-07
1.40707e-05
1.74052e-05
-1.05866e-07
2.78211e-05
-2.09588e-08
2.85588e-05
2.35677e-08
2.93152e-05
3.61392e-08
3.00898e-05
1.64179e-08
-2.30955e-07
1.93625e-05
-4.00337e-07
2.15424e-05
-6.19879e-07
2.39623e-05
-8.96355e-07
2.6652e-05
-1.2366e-06
2.96456e-05
-1.64764e-06
3.29765e-05
-2.13452e-06
3.66822e-05
-2.70054e-06
4.08173e-05
-3.34414e-06
4.54378e-05
-4.05961e-06
5.06177e-05
-4.83249e-06
5.64443e-05
-5.63724e-06
6.30304e-05
-6.43709e-06
7.05144e-05
-7.17946e-06
7.78135e-05
-7.80217e-06
7.85925e-05
-8.27358e-06
7.95332e-05
-8.55961e-06
8.06304e-05
-8.63468e-06
8.18602e-05
-8.48587e-06
8.32029e-05
-8.11319e-06
8.46235e-05
-7.5286e-06
9.07778e-05
-6.69507e-06
8.04178e-05
-5.85282e-06
7.1184e-05
-5.03404e-06
6.29532e-05
-4.26063e-06
5.55843e-05
-4.38676e-06
4.91938e-05
-3.56451e-06
4.34847e-05
-2.82691e-06
3.83493e-05
-2.17756e-06
3.36951e-05
-1.61334e-06
2.95329e-05
-1.12756e-06
2.57494e-05
-7.17004e-07
2.22972e-05
-3.83011e-07
1.87806e-05
-1.4028e-07
1.4211e-05
1.74045e-05
-2.30276e-07
2.78194e-05
-1.04216e-07
2.85603e-05
-2.24492e-08
2.93183e-05
2.04928e-08
3.0093e-05
3.29333e-08
3.08897e-05
1.47513e-08
-3.97545e-07
1.93597e-05
-6.14165e-07
2.15367e-05
-8.86873e-07
2.39528e-05
-1.22258e-06
2.66379e-05
-1.62858e-06
2.96265e-05
-2.11052e-06
3.29525e-05
-2.67281e-06
3.66545e-05
-3.31572e-06
4.07889e-05
-4.03641e-06
4.54146e-05
-4.82453e-06
5.06097e-05
-5.66023e-06
5.64673e-05
-6.51402e-06
6.31074e-05
-7.34193e-06
7.06769e-05
-8.08584e-06
7.80972e-05
-8.67837e-06
7.89973e-05
-9.09278e-06
8.00664e-05
-9.2975e-06
8.12932e-05
-9.2734e-06
8.26477e-05
-9.01496e-06
8.41046e-05
-8.52961e-06
8.56245e-05
-7.83697e-06
9.19197e-05
-6.90434e-06
8.14694e-05
-5.98418e-06
7.21342e-05
-5.10699e-06
6.37995e-05
-5.30884e-06
5.65064e-05
-4.36557e-06
4.99948e-05
-3.51668e-06
4.41745e-05
-2.76802e-06
3.89398e-05
-2.11795e-06
3.41997e-05
-1.56011e-06
2.99654e-05
-1.08542e-06
2.61178e-05
-6.88446e-07
2.26026e-05
-3.67994e-07
1.90083e-05
-1.35708e-07
1.43467e-05
1.74016e-05
-3.94674e-07
2.78127e-05
-2.23557e-07
2.85582e-05
-1.02157e-07
2.93195e-05
-2.36346e-08
3.00958e-05
1.76507e-08
3.08927e-05
2.98863e-08
3.17096e-05
1.31877e-08
-6.08436e-07
1.9354e-05
-8.77389e-07
2.15272e-05
-1.20844e-06
2.39387e-05
-1.60901e-06
2.66184e-05
-2.08515e-06
2.96012e-05
-2.64206e-06
3.29218e-05
-3.28138e-06
3.66201e-05
-4.00249e-06
4.07549e-05
-4.79835e-06
4.53884e-05
-5.65379e-06
5.06033e-05
-6.54552e-06
5.64988e-05
-7.43726e-06
6.32027e-05
-8.27962e-06
7.08706e-05
-9.00801e-06
7.84268e-05
-9.55347e-06
7.9458e-05
-9.89347e-06
8.06624e-05
-1.00023e-05
8.20221e-05
-9.86818e-06
8.35009e-05
-9.49304e-06
8.50681e-05
-8.8926e-06
8.66801e-05
-8.09403e-06
9.31094e-05
-7.06769e-06
8.25529e-05
-6.07645e-06
7.31036e-05
-6.3681e-06
6.48588e-05
-5.28599e-06
5.74268e-05
-4.3081e-06
5.07863e-05
-3.44341e-06
4.48499e-05
-2.6917e-06
3.95135e-05
-2.04709e-06
3.46866e-05
-1.50009e-06
3.03801e-05
-1.03945e-06
2.64688e-05
-6.57691e-07
2.28923e-05
-3.51609e-07
1.92242e-05
-1.30317e-07
1.44771e-05
1.7396e-05
-6.02814e-07
2.77991e-05
-3.81116e-07
2.8551e-05
-2.16314e-07
2.9317e-05
-9.97066e-08
3.00967e-05
-2.45134e-08
3.08953e-05
1.50401e-08
3.17124e-05
2.70018e-08
3.25535e-05
1.17291e-08
-8.68099e-07
1.93447e-05
-1.1945e-06
2.15133e-05
-1.58948e-06
2.39192e-05
-2.05933e-06
2.65925e-05
-2.60976e-06
2.95689e-05
-3.24346e-06
3.28839e-05
-3.96148e-06
3.65791e-05
-4.7594e-06
4.0716e-05
-5.62585e-06
4.53604e-05
-6.54274e-06
5.06005e-05
-7.48046e-06
5.6542e-05
-8.39758e-06
6.33207e-05
-9.23806e-06
7.11007e-05
-9.93419e-06
7.88076e-05
-1.04141e-05
7.99786e-05
-1.06636e-05
8.13236e-05
-1.06637e-05
8.28177e-05
-1.04103e-05
8.44182e-05
-9.91407e-06
8.60895e-05
-9.19898e-06
8.77851e-05
-8.29806e-06
9.43398e-05
-7.18493e-06
8.36614e-05
-7.58413e-06
7.43197e-05
-6.34537e-06
6.59182e-05
-5.21881e-06
5.83375e-05
-4.21924e-06
5.15621e-05
-3.34853e-06
4.55067e-05
-2.60127e-06
4.00677e-05
-1.96755e-06
3.51541e-05
-1.43513e-06
3.07758e-05
-9.90852e-07
2.6802e-05
-6.25528e-07
2.31662e-05
-3.34369e-07
1.94283e-05
-1.24369e-07
1.46014e-05
1.73871e-05
-8.59136e-07
2.77767e-05
-5.80403e-07
2.85367e-05
-3.6684e-07
2.93092e-05
-2.08492e-07
3.00938e-05
-9.68335e-08
3.08959e-05
-2.50859e-08
3.17148e-05
1.26607e-08
3.25562e-05
2.42773e-08
3.34194e-05
1.03722e-08
-1.18099e-06
1.93312e-05
-1.57038e-06
2.14941e-05
-2.03369e-06
2.38935e-05
-2.577e-06
2.65598e-05
-3.20371e-06
2.95291e-05
-3.91615e-06
3.28385e-05
-4.71192e-06
3.65316e-05
-5.58271e-06
4.06728e-05
-6.51472e-06
4.53324e-05
-7.48403e-06
5.06041e-05
-8.45622e-06
5.66007e-05
-9.38331e-06
6.34659e-05
-1.02057e-05
7.13722e-05
-1.08509e-05
7.92443e-05
-1.12477e-05
8.05628e-05
-1.13919e-05
8.20518e-05
-1.1272e-05
8.36793e-05
-1.08927e-05
8.53968e-05
-1.02739e-05
8.71645e-05
-9.44628e-06
8.89333e-05
-8.44848e-06
9.56033e-05
-8.97881e-06
8.50561e-05
-7.5645e-06
7.55388e-05
-6.2689e-06
6.69683e-05
-5.1133e-06
5.92316e-05
-4.10387e-06
5.23174e-05
-3.23623e-06
4.61417e-05
-2.49999e-06
4.06002e-05
-1.88177e-06
3.56008e-05
-1.3669e-06
3.11518e-05
-9.40707e-07
2.71172e-05
-5.92675e-07
2.34245e-05
-3.16667e-07
1.96206e-05
-1.18095e-07
1.47195e-05
1.73741e-05
-1.16807e-06
2.77431e-05
-8.25506e-07
2.85134e-05
-5.57106e-07
2.92943e-05
-3.51892e-07
3.00855e-05
-2.00176e-07
3.08926e-05
-9.35632e-08
3.17151e-05
-2.53492e-08
3.25583e-05
1.05123e-08
3.34219e-05
2.17161e-08
3.43053e-05
9.11573e-09
-1.55197e-06
1.93128e-05
-2.00872e-06
2.14692e-05
-2.54458e-06
2.38611e-05
-3.16346e-06
2.65195e-05
-3.86861e-06
2.94816e-05
-4.65921e-06
3.27858e-05
-5.52935e-06
3.64783e-05
-6.46873e-06
4.06269e-05
-7.45818e-06
4.53066e-05
-8.4694e-06
5.06172e-05
-9.46166e-06
5.6679e-05
-1.03833e-05
6.36435e-05
-1.11692e-05
7.16906e-05
-1.17452e-05
7.97418e-05
-1.20425e-05
8.12134e-05
-1.20678e-05
8.28476e-05
-1.1819e-05
8.46056e-05
-1.13105e-05
8.64334e-05
-1.05694e-05
8.82876e-05
-9.63338e-06
9.01182e-05
-1.05757e-05
9.72003e-05
-8.96762e-06
8.64592e-05
-7.48027e-06
7.67502e-05
-6.14595e-06
6.80009e-05
-4.97544e-06
6.01031e-05
-3.96714e-06
5.30483e-05
-3.11054e-06
4.67522e-05
-2.39095e-06
4.11093e-05
-1.7919e-06
3.60258e-05
-1.29686e-06
3.1508e-05
-8.9e-07
2.74145e-05
-5.59655e-07
2.36675e-05
-2.98869e-07
1.98014e-05
-1.11672e-07
1.48312e-05
1.73566e-05
-1.53444e-06
2.76958e-05
-1.1208e-06
2.84787e-05
-7.90775e-07
2.927e-05
-5.32869e-07
3.00698e-05
-3.36215e-07
3.08838e-05
-1.91317e-07
3.17114e-05
-8.9887e-08
3.25583e-05
-2.53107e-08
3.34238e-05
8.58867e-09
3.43077e-05
1.93164e-08
3.52192e-05
7.95829e-09
-1.98473e-06
1.92888e-05
-2.51306e-06
2.14377e-05
-3.12366e-06
2.38213e-05
-3.82044e-06
2.64714e-05
-4.60375e-06
2.94261e-05
-5.46961e-06
3.27261e-05
-6.41048e-06
3.642e-05
-7.41116e-06
4.05798e-05
-8.44853e-06
4.52857e-05
-9.48829e-06
5.06439e-05
-1.04861e-05
5.67818e-05
-1.13844e-05
6.38586e-05
-1.21155e-05
7.20608e-05
-1.26049e-05
8.03042e-05
-1.2787e-05
8.19325e-05
-1.26824e-05
8.3711e-05
-1.2299e-05
8.55942e-05
-1.16594e-05
8.75233e-05
-1.07987e-05
8.9453e-05
-1.20812e-05
9.16237e-05
-1.0582e-05
9.88146e-05
-8.87941e-06
8.78583e-05
-7.34009e-06
7.79443e-05
-5.98376e-06
6.90092e-05
-4.8115e-06
6.09475e-05
-3.81399e-06
5.37518e-05
-2.97527e-06
4.73366e-05
-2.27684e-06
4.15943e-05
-1.69984e-06
3.64287e-05
-1.22631e-06
3.18443e-05
-8.39429e-07
2.76943e-05
-5.26972e-07
2.38956e-05
-2.81254e-07
1.9971e-05
-1.05229e-07
1.49364e-05
1.73338e-05
-1.96194e-06
2.76319e-05
-1.47048e-06
2.84301e-05
-1.07218e-06
2.92343e-05
-7.54995e-07
3.00447e-05
-5.07766e-07
3.08674e-05
-3.19881e-07
3.17021e-05
-1.81954e-07
3.25542e-05
-8.5821e-08
3.34235e-05
-2.49674e-08
3.43094e-05
6.88714e-09
3.52214e-05
1.70745e-08
3.61551e-05
6.89653e-09
-2.48282e-06
1.92586e-05
-3.08498e-06
2.1399e-05
-3.77277e-06
2.37736e-05
-4.54743e-06
2.6415e-05
-5.40641e-06
2.93629e-05
-6.34443e-06
3.266e-05
-7.3495e-06
3.63584e-05
-8.40286e-06
4.05342e-05
-9.47577e-06
4.52732e-05
-1.05305e-05
5.06883e-05
-1.15166e-05
5.69141e-05
-1.23736e-05
6.41167e-05
-1.3032e-05
7.24879e-05
-1.34178e-05
8.09351e-05
-1.34714e-05
8.27215e-05
-1.32289e-05
8.46409e-05
-1.27069e-05
8.66417e-05
-1.19371e-05
8.86617e-05
-1.3571e-05
9.09428e-05
-1.21127e-05
9.31544e-05
-1.04965e-05
0.000100432
-8.72405e-06
8.92423e-05
-7.15263e-06
7.91132e-05
-5.78991e-06
6.99877e-05
-4.62749e-06
6.1761e-05
-3.64905e-06
5.44256e-05
-2.83374e-06
4.78935e-05
-2.16003e-06
4.20545e-05
-1.60726e-06
3.68097e-05
-1.15618e-06
3.21611e-05
-7.89675e-07
2.7957e-05
-4.95004e-07
2.41094e-05
-2.64014e-07
2.01297e-05
-9.88733e-08
1.50353e-05
1.73051e-05
-2.45413e-06
2.7548e-05
-1.8781e-06
2.83643e-05
-1.40476e-06
2.91841e-05
-1.02198e-06
3.00077e-05
-7.1799e-07
3.08415e-05
-4.81792e-07
3.16851e-05
-3.02919e-07
3.25444e-05
-1.72103e-07
3.34191e-05
-8.13735e-08
3.43087e-05
-2.43233e-08
3.52229e-05
5.40078e-09
3.61572e-05
1.49854e-08
3.6589e-05
5.94036e-09
-3.0479e-06
1.92215e-05
-3.72643e-06
2.13526e-05
-4.4916e-06
2.37178e-05
-5.34197e-06
2.63506e-05
-6.274e-06
2.92925e-05
-7.27832e-06
3.25888e-05
-8.33978e-06
3.62953e-05
-9.43439e-06
4.04928e-05
-1.05303e-05
4.52729e-05
-1.15836e-05
5.07552e-05
-1.25407e-05
5.70812e-05
-1.33382e-05
6.4423e-05
-1.39063e-05
7.29764e-05
-1.41735e-05
8.16371e-05
-1.40881e-05
8.35807e-05
-1.37012e-05
8.56352e-05
-1.30395e-05
8.77442e-05
-1.50369e-05
9.01276e-05
-1.36378e-05
9.24679e-05
-1.20386e-05
9.46965e-05
-1.03305e-05
0.000102038
-8.5115e-06
9.06012e-05
-6.92679e-06
8.025e-05
-5.5716e-06
7.09318e-05
-4.429e-06
6.2541e-05
-3.47634e-06
5.50682e-05
-2.68885e-06
4.84223e-05
-2.04261e-06
4.24898e-05
-1.51532e-06
3.71688e-05
-1.08735e-06
3.24587e-05
-7.41235e-07
2.82032e-05
-4.63997e-07
2.43093e-05
-2.47313e-07
2.02782e-05
-9.26862e-08
1.5128e-05
1.72699e-05
-3.01272e-06
2.74409e-05
-2.34698e-06
2.82788e-05
-1.79252e-06
2.91168e-05
-1.33747e-06
2.99563e-05
-9.70529e-07
3.08035e-05
-6.80039e-07
3.16583e-05
-4.55006e-07
3.25268e-05
-2.85308e-07
3.34087e-05
-1.61785e-07
3.43039e-05
-7.65645e-08
3.52219e-05
-2.33774e-08
3.61584e-05
4.12658e-09
3.65909e-05
1.3065e-08
3.55528e-05
5.11321e-09
-3.68198e-06
1.9177e-05
-4.43724e-06
2.12983e-05
-5.2779e-06
2.36537e-05
-6.20178e-06
2.62784e-05
-7.20158e-06
2.92158e-05
-8.26513e-06
3.25142e-05
-9.37245e-06
3.62333e-05
-1.04967e-05
4.04592e-05
-1.16001e-05
4.52894e-05
-1.26353e-05
5.08499e-05
-1.35455e-05
5.72885e-05
-1.42658e-05
6.47825e-05
-1.47272e-05
7.35302e-05
-1.48633e-05
8.24124e-05
-1.46302e-05
8.45096e-05
-1.40955e-05
8.66912e-05
-1.64688e-05
8.91761e-05
-1.51506e-05
9.16404e-05
-1.35855e-05
9.40147e-05
-1.18712e-05
9.62372e-05
-1.00955e-05
0.000103622
-8.25218e-06
9.19265e-05
-6.67098e-06
8.13494e-05
-5.33556e-06
7.18383e-05
-4.22092e-06
6.32855e-05
-3.29944e-06
5.56788e-05
-2.54319e-06
4.89229e-05
-1.92604e-06
4.29005e-05
-1.42516e-06
3.75066e-05
-1.02046e-06
3.27379e-05
-6.9442e-07
2.84336e-05
-4.34159e-07
2.44962e-05
-2.31275e-07
2.04168e-05
-8.67229e-08
1.52147e-05
1.72277e-05
-3.6398e-06
2.73076e-05
-2.87943e-06
2.81697e-05
-2.2379e-06
2.9029e-05
-1.70474e-06
2.98874e-05
-1.26861e-06
3.07508e-05
-9.17786e-07
3.16193e-05
-6.41074e-07
3.24993e-05
-4.27525e-07
3.33906e-05
-2.6717e-07
3.42932e-05
-1.51058e-07
3.52168e-05
-7.1422e-08
3.61572e-05
-2.2158e-08
3.65919e-05
3.07257e-09
3.55545e-05
1.13597e-08
3.45447e-05
4.39509e-09
-4.38505e-06
1.91248e-05
-5.21538e-06
2.12358e-05
-6.12968e-06
2.35816e-05