/*--------------------------------*- C++ -*----------------------------------*\
  =========                 |
  \\      /  F ield         | OpenFOAM: The Open Source CFD Toolbox
   \\    /   O peration     | Website:  https://openfoam.org
    \\  /    A nd           | Version:  8
     \\/     M anipulation  |
\*---------------------------------------------------------------------------*/
FoamFile
{
    version     2.0;
    format      ascii;
    class       surfaceScalarField;
    location    "1600";
    object      phi;
}
// * * * * * * * * * * * * * * * * * * * * * * * * * * * * * * * * * * * * * //

dimensions      [0 3 -1 0 0 0 0];

internalField   nonuniform List<scalar> 
31053
(
1.74487e-06
1.16351e-05
1.3637e-06
1.57612e-05
9.63172e-07
1.0672e-05
1.26633e-06
1.77374e-05
1.52674e-06
1.51976e-05
5.92792e-07
1.00792e-05
1.20189e-06
2.03044e-05
1.51005e-06
1.77541e-05
1.20939e-06
1.4581e-05
4.31181e-07
9.64799e-06
1.13123e-06
2.33107e-05
1.45186e-06
2.03626e-05
1.33735e-06
1.76261e-05
9.70624e-07
1.40416e-05
3.06539e-07
9.34145e-06
1.05775e-06
2.67335e-05
1.39866e-06
2.33639e-05
1.32714e-06
2.03728e-05
1.18713e-06
1.74096e-05
7.46725e-07
1.36014e-05
2.13604e-07
9.12785e-06
9.80902e-07
3.06968e-05
1.34272e-06
2.67894e-05
1.29641e-06
2.33946e-05
1.22333e-06
2.03366e-05
1.00163e-06
1.71547e-05
5.66872e-07
1.32481e-05
1.52094e-07
8.97575e-06
9.00452e-07
3.52204e-05
1.2817e-06
3.07579e-05
1.2598e-06
2.6826e-05
1.20995e-06
2.3408e-05
1.07399e-06
2.02643e-05
8.26927e-07
1.68946e-05
4.3004e-07
1.29702e-05
1.09649e-07
8.86611e-06
8.16783e-07
4.04037e-05
1.21513e-06
3.5287e-05
1.21887e-06
3.07988e-05
1.18212e-06
2.68539e-05
1.07794e-06
2.3404e-05
9.21457e-07
2.01697e-05
6.7562e-07
1.6649e-05
3.2343e-07
1.27564e-05
7.84531e-08
8.78765e-06
7.30695e-07
4.63661e-05
1.14278e-06
4.0476e-05
1.17308e-06
3.53328e-05
1.14756e-06
3.08334e-05
1.05873e-06
2.68731e-05
9.37983e-07
2.33875e-05
7.82358e-07
2.0063e-05
5.44178e-07
1.64283e-05
2.39746e-07
1.25951e-05
5.30523e-08
8.7346e-06
6.43459e-07
5.32272e-05
1.06464e-06
4.64442e-05
1.12145e-06
4.05276e-05
1.10761e-06
3.53728e-05
1.02887e-06
3.08632e-05
9.24563e-07
2.68865e-05
8.06736e-07
2.33631e-05
6.54723e-07
1.99525e-05
4.27655e-07
1.62404e-05
1.71474e-07
1.24767e-05
2.89323e-08
8.70567e-06
5.56864e-07
6.10666e-05
9.81016e-07
5.33109e-05
1.06304e-06
4.65026e-05
1.06196e-06
4.05733e-05
9.91887e-07
3.54097e-05
8.96824e-07
3.0891e-05
7.9593e-07
2.68973e-05
6.81902e-07
2.33359e-05
5.34722e-07
1.98454e-05
3.22464e-07
1.60894e-05
1.1159e-07
1.2394e-05
7.92431e-09
8.69775e-06
4.72837e-07
7.0066e-05
8.92654e-07
6.1155e-05
9.97152e-07
5.33768e-05
1.00984e-06
4.65548e-05
9.48604e-07
4.06166e-05
8.59975e-07
3.54466e-05
7.67436e-07
3.09195e-05
6.70255e-07
2.69089e-05
5.60316e-07
2.33104e-05
4.19411e-07
1.97485e-05
2.26189e-07
1.59748e-05
5.80308e-08
1.23439e-05
-9.66377e-09
8.70741e-06
3.93416e-07
8.04114e-05
8.00587e-07
7.01581e-05
9.23593e-07
6.12285e-05
9.50295e-07
5.34363e-05
8.98766e-07
4.66046e-05
8.15683e-07
4.06609e-05
7.27595e-07
3.54864e-05
6.38091e-07
3.09516e-05
5.44427e-07
2.69248e-05
4.39442e-07
2.32903e-05
3.07104e-07
1.96675e-05
1.37056e-07
1.58958e-05
9.35855e-09
1.23249e-05
-2.64723e-08
8.73389e-06
3.32147e-07
7.62513e-05
7.059e-07
8.05061e-05
8.42823e-07
7.02389e-05
8.82507e-07
6.12963e-05
8.41668e-07
5.34934e-05
7.64151e-07
4.66561e-05
6.78712e-07
4.07098e-05
5.9233e-07
3.55322e-05
5.0563e-07
3.09904e-05
4.16019e-07
2.69483e-05
3.17618e-07
2.32798e-05
1.96844e-07
1.96078e-05
5.35062e-08
1.58516e-05
-3.6628e-08
1.23351e-05
-4.40548e-08
8.77795e-06
2.8166e-07
7.62405e-05
6.25372e-07
7.63318e-05
7.5589e-07
8.0593e-05
8.06047e-07
7.03153e-05
7.76505e-07
6.13615e-05
7.04933e-07
5.35526e-05
6.21382e-07
4.67135e-05
5.35654e-07
4.07664e-05
4.51047e-07
3.55868e-05
3.67602e-07
3.10388e-05
2.83459e-07
2.69824e-05
1.94064e-07
2.32826e-05
8.81353e-08
1.95731e-05
-2.65188e-08
1.58415e-05
-8.14153e-08
1.23724e-05
-6.2146e-08
8.84009e-06
2.39762e-07
7.62319e-05
5.53199e-07
7.63127e-05
6.79188e-07
7.64085e-05
7.21311e-07
8.06778e-05
7.02583e-07
7.03892e-05
6.37368e-07
6.1429e-05
5.5541e-07
5.36186e-05
4.68917e-07
4.67802e-05
3.83494e-07
4.0834e-05
3.01262e-07
3.56531e-05
2.22387e-07
3.10999e-05
1.46102e-07
2.70304e-05
6.83721e-08
2.33024e-05
-1.99122e-08
1.95665e-05
-1.04206e-07
1.58643e-05
-1.25481e-07
1.24358e-05
-8.0364e-08
8.92046e-06
2.04763e-07
7.6227e-05
4.88581e-07
7.62965e-05
6.08159e-07
7.63837e-05
6.45215e-07
7.64846e-05
6.19748e-07
8.07606e-05
5.60798e-07
7.04658e-05
4.8032e-07
6.15041e-05
3.92122e-07
5.36954e-05
3.03932e-07
4.68598e-05
2.19739e-07
4.09155e-05
1.41247e-07
3.57343e-05
6.93461e-08
3.11767e-05
3.59062e-09
2.70952e-05
-5.999e-08
2.33424e-05
-1.27583e-07
1.95899e-05
-1.80026e-07
1.59189e-05
-1.68771e-07
1.25242e-05
-9.82945e-08
9.01875e-06
1.75346e-07
7.62194e-05
4.30746e-07
7.62848e-05
5.42661e-07
7.6362e-05
5.73757e-07
7.64551e-05
5.44288e-07
7.65601e-05
4.74984e-07
8.08464e-05
3.95588e-07
7.05506e-05
3.04975e-07
6.15913e-05
2.1246e-07
5.37869e-05
1.23946e-07
4.69555e-05
4.25373e-08
4.10142e-05
-2.97336e-08
3.58333e-05
-9.18364e-08
3.12721e-05
-1.44418e-07
2.71796e-05
-1.90901e-07
2.34058e-05
-2.34601e-07
1.96445e-05
-2.53988e-07
1.60041e-05
-2.10803e-07
1.26367e-05
-1.15713e-07
9.13447e-06
1.50475e-07
7.62149e-05
3.78995e-07
7.62712e-05
4.82459e-07
7.6345e-05
5.07157e-07
7.64286e-05
4.72703e-07
7.65267e-05
3.96695e-07
7.66383e-05
3.01086e-07
8.09409e-05
2.07143e-07
7.06484e-05
1.08923e-07
6.16948e-05
1.39752e-08
5.38968e-05
-7.30117e-08
4.70711e-05
-1.48966e-07
4.11334e-05
-2.11959e-07
3.59535e-05
-2.61262e-07
3.13889e-05
-2.97592e-07
2.72863e-05
-3.23584e-07
2.34947e-05
-3.40228e-07
1.97307e-05
-3.25648e-07
1.61189e-05
-2.51411e-07
1.27724e-05
-1.32411e-07
9.26688e-06
1.2934e-07
7.62111e-05
3.32703e-07
7.62612e-05
4.27307e-07
7.63263e-05
4.45463e-07
7.64067e-05
4.0556e-07
7.64958e-05
3.22378e-07
7.6601e-05
2.15286e-07
7.67241e-05
9.87306e-08
8.10493e-05
-6.82067e-09
7.07641e-05
-1.1025e-07
6.1819e-05
-2.05409e-07
5.40292e-05
-2.87905e-07
4.721e-05
-3.55041e-07
4.12765e-05
-4.05301e-07
3.60975e-05
-4.38341e-07
3.15297e-05
-4.54731e-07
2.74174e-05
-4.56657e-07
2.36112e-05
-4.43584e-07
1.98487e-05
-3.94623e-07
1.62621e-05
-2.902e-07
1.29302e-05
-1.48092e-07
9.41497e-06
1.12733e-07
6.95986e-05
2.91324e-07
7.62525e-05
3.76965e-07
7.63115e-05
3.88641e-07
7.63831e-05
3.43195e-07
7.64691e-05
2.52781e-07
7.65654e-05
1.34225e-07
7.66821e-05
9.28744e-10
7.68219e-05
-1.34353e-07
8.11769e-05
-2.48695e-07
7.09026e-05
-3.54723e-07
6.19683e-05
-4.46764e-07
5.41881e-05
-5.2102e-07
4.7376e-05
-5.75338e-07
4.14466e-05
-6.08913e-07
3.62681e-05
-6.21531e-07
3.16965e-05
-6.13966e-07
2.75747e-05
-5.88605e-07
2.37562e-05
-5.43567e-07
1.99976e-05
-4.60341e-07
1.64323e-05
-3.26723e-07
1.31088e-05
-1.6256e-07
9.57753e-06
9.96498e-08
6.25571e-05
2.57491e-07
6.96324e-05
3.31186e-07
7.62983e-05
3.36606e-07
7.63635e-05
2.85801e-07
7.64405e-05
1.88435e-07
7.65334e-05
5.87872e-08
7.66408e-05
-9.08721e-08
7.67739e-05
-2.48692e-07
7.69363e-05
-4.00598e-07
8.13288e-05
-5.20785e-07
7.10686e-05
-6.25671e-07
6.21473e-05
-7.10398e-07
5.43775e-05
-7.71779e-07
4.75725e-05
-8.08766e-07
4.16464e-05
-8.20914e-07
3.64675e-05
-8.08517e-07
3.1891e-05
-7.73297e-07
2.77594e-05
-7.17614e-07
2.39302e-05
-6.39132e-07
2.01764e-05
-5.22002e-07
1.66276e-05
-3.60419e-07
1.33066e-05
-1.75593e-07
9.75313e-06
8.91686e-08
5.62285e-05
2.3005e-07
6.25845e-05
2.93075e-07
6.96706e-05
2.89253e-07
7.63456e-05
2.33477e-07
7.64159e-05
1.29699e-07
7.64993e-05
-1.03358e-08
7.66026e-05
-1.75647e-07
7.67256e-05
-3.5533e-07
7.68805e-05
-5.36124e-07
7.70718e-05
-7.02471e-07
8.15105e-05
-8.24362e-07
7.12673e-05
-9.23431e-07
6.23603e-05
-9.95507e-07
5.46012e-05
-1.03886e-06
4.78026e-05
-1.05309e-06
4.18786e-05
-1.03855e-06
3.66975e-05
-9.9683e-07
3.21146e-05
-9.30354e-07
2.79722e-05
-8.41955e-07
2.41331e-05
-7.29015e-07
2.03834e-05
-5.78887e-07
1.6846e-05
-3.90822e-07
1.35219e-05
-1.8706e-07
9.94019e-06
8.06532e-08
5.05405e-05
2.07601e-07
5.62509e-05
2.61677e-07
6.26159e-05
2.49992e-07
6.97098e-05
1.86264e-07
7.63929e-05
7.68104e-08
7.64688e-05
-7.26305e-08
7.65616e-05
-2.52539e-07
7.66795e-05
-4.53077e-07
7.68233e-05
-6.61862e-07
7.70063e-05
-8.64018e-07
7.72334e-05
-1.04135e-06
8.17275e-05
-1.15981e-06
7.15037e-05
-1.24698e-06
6.26118e-05
-1.30053e-06
5.48629e-05
-1.31966e-06
4.80691e-05
-1.3051e-06
4.21452e-05
-1.25884e-06
3.69595e-05
-1.18355e-06
3.23678e-05
-1.08282e-06
2.8213e-05
-9.59779e-07
2.43638e-05
-8.12141e-07
2.06167e-05
-6.3044e-07
1.70856e-05
-4.17687e-07
1.37525e-05
-1.96852e-07
1.0137e-05
7.36528e-08
4.5427e-05
1.89087e-07
5.0559e-05
2.35667e-07
5.62769e-05
2.17862e-07
6.26481e-05
1.4762e-07
6.97485e-05
2.99162e-08
7.64398e-05
-1.27738e-07
7.65239e-05
-3.20875e-07
7.66299e-05
-5.40896e-07
7.67673e-05
-7.76415e-07
7.69379e-05
-1.01334e-06
7.71556e-05
-1.23388e-06
7.74259e-05
-1.41772e-06
8.19854e-05
-1.52593e-06
7.17827e-05
-1.59454e-06
6.29058e-05
-1.6225e-06
5.51657e-05
-1.61047e-06
4.83745e-05
-1.56129e-06
4.24476e-05
-1.47832e-06
3.72543e-05
-1.3658e-06
3.26508e-05
-1.22821e-06
2.84815e-05
-1.06949e-06
2.46212e-05
-8.87581e-07
2.08738e-05
-6.76072e-07
1.7344e-05
-4.40755e-07
1.39964e-05
-2.04885e-07
1.03419e-05
6.78387e-08
4.08318e-05
1.73705e-07
4.54424e-05
2.14005e-07
5.05807e-05
1.91469e-07
5.63033e-05
1.16504e-07
6.26792e-05
-7.60606e-09
6.9786e-05
-1.75411e-07
7.64874e-05
-3.80159e-07
7.65831e-05
-6.17931e-07
7.67069e-05
-8.78528e-07
7.68694e-05
-1.14877e-06
7.70733e-05
-1.41141e-06
7.73331e-05
-1.64631e-06
7.76545e-05
-1.83021e-06
8.22897e-05
-1.92069e-06
7.21088e-05
-1.96273e-06
6.3246e-05
-1.95716e-06
5.55124e-05
-1.90724e-06
4.87204e-05
-1.81758e-06
4.27869e-05
-1.6935e-06
3.7582e-05
-1.54048e-06
3.2963e-05
-1.3644e-06
2.87764e-05
-1.16952e-06
2.49031e-05
-9.54552e-07
2.11523e-05
-7.15348e-07
1.76186e-05
-4.5985e-07
1.42514e-05
-2.11147e-07
1.05531e-05
6.2968e-08
3.67009e-05
1.60836e-07
4.08447e-05
1.9587e-07
4.54605e-05
1.69704e-07
5.06025e-05
9.14266e-08
5.63284e-05
-3.69926e-08
6.27086e-05
-2.12319e-07
6.98229e-05
-4.30033e-07
7.65373e-05
-6.83529e-07
7.66487e-05
-9.67138e-07
7.67955e-05
-1.2688e-06
7.69894e-05
-1.57197e-06
7.72339e-05
-1.85684e-06
7.75437e-05
-2.09985e-06
7.79241e-05
-2.27663e-06
8.26456e-05
-2.34039e-06
7.24865e-05
-2.34678e-06
6.36356e-05
-2.29989e-06
5.5905e-05
-2.20521e-06
4.91081e-05
-2.06979e-06
4.31631e-05
-1.90058e-06
3.79421e-05
-1.70489e-06
3.33035e-05
-1.48932e-06
2.90962e-05
-1.25875e-06
2.52073e-05
-1.01244e-06
2.14494e-05
-7.48037e-07
1.79068e-05
-4.7492e-07
1.45151e-05
-2.15621e-07
1.07687e-05
5.88561e-08
3.29901e-05
1.50001e-07
3.67117e-05
1.80612e-07
4.08599e-05
1.51686e-07
4.54785e-05
7.11863e-08
5.06227e-05
-5.9907e-08
5.63513e-05
-2.40039e-07
6.27363e-05
-4.67154e-07
6.986e-05
-7.37206e-07
7.6591e-05
-1.0414e-06
7.6723e-05
-1.37211e-06
7.68989e-05
-1.71374e-06
7.71312e-05
-2.04698e-06
7.7424e-05
-2.34816e-06
7.7792e-05
-2.59228e-06
7.82398e-05
-2.75298e-06
8.30582e-05
-2.77965e-06
7.29193e-05
-2.7414e-06
6.40771e-05
-2.64515e-06
5.6345e-05
-2.49942e-06
4.95377e-05
-2.31342e-06
4.3576e-05
-2.09632e-06
3.83335e-05
-1.85645e-06
3.36706e-05
-1.60137e-06
2.94388e-05
-1.33634e-06
2.55312e-05
-1.06089e-06
2.17622e-05
-7.74065e-07
1.8206e-05
-4.85982e-07
1.47855e-05
-2.18472e-07
1.09872e-05
5.53627e-08
2.96515e-05
1.40825e-07
3.29993e-05
1.67712e-07
3.67246e-05
1.36708e-07
4.08749e-05
5.48214e-08
4.54949e-05
-7.76961e-08
5.06405e-05
-2.60541e-07
5.63718e-05
-4.93566e-07
6.27627e-05
-7.75522e-07
6.98983e-05
-1.10068e-06
7.66503e-05
-1.45765e-06
7.68085e-05
-1.8351e-06
7.70202e-05
-2.21455e-06
7.72988e-05
-2.5724e-06
7.76482e-05
-2.88322e-06
7.80829e-05
-3.11935e-06
7.86061e-05
-3.25321e-06
8.35317e-05
-3.23248e-06
7.34104e-05
-3.14021e-06
6.45722e-05
-2.9872e-06
5.68328e-05
-2.78465e-06
5.00089e-05
-2.5446e-06
4.40243e-05
-2.27754e-06
3.87546e-05
-1.99306e-06
3.40623e-05
-1.69934e-06
2.98018e-05
-1.40168e-06
2.5872e-05
-1.09976e-06
2.20879e-05
-7.93492e-07
1.85135e-05
-4.93254e-07
1.50603e-05
-2.19416e-07
1.12066e-05
5.2377e-08
2.6651e-05
1.33011e-07
2.96593e-05
1.56753e-07
3.30102e-05
1.24206e-07
3.67371e-05
4.15612e-08
4.08882e-05
-9.14406e-08
4.55086e-05
-2.75416e-07
5.06554e-05
-5.11666e-07
5.63899e-05
-8.0111e-07
6.27883e-05
-1.14134e-06
6.9939e-05
-1.52457e-06
7.67172e-05
-1.93474e-06
7.69082e-05
-2.35759e-06
7.71633e-05
-2.76996e-06
7.74963e-05
-3.14619e-06
7.79112e-05
-3.45757e-06
7.84211e-05
-3.67451e-06
7.90274e-05
-3.77073e-06
8.407e-05
-3.69171e-06
7.39619e-05
-3.53672e-06
6.51217e-05
-3.32e-06
5.73681e-05
-3.05633e-06
5.05207e-05
-2.75948e-06
4.45062e-05
-2.4416e-06
3.92031e-05
-2.1131e-06
3.44761e-05
-1.78233e-06
3.01825e-05
-1.4545e-06
2.62267e-05
-1.12913e-06
2.24236e-05
-8.06578e-07
1.88268e-05
-4.96509e-07
1.53374e-05
-2.70771e-07
1.14774e-05
4.98122e-08
2.39566e-05
1.26323e-07
2.66577e-05
1.47404e-07
2.96687e-05
1.13726e-07
3.30207e-05
3.07913e-08
3.67479e-05
-1.02005e-07
4.08987e-05
-2.85939e-07
4.55192e-05
-5.23387e-07
5.06671e-05
-8.16918e-07
5.64057e-05
-1.16671e-06
6.28136e-05
-1.56889e-06
6.99833e-05
-2.01157e-06
7.6794e-05
-2.47444e-06
7.7025e-05
-2.93849e-06
7.73318e-05
-3.37814e-06
7.77283e-05
-3.76386e-06
7.82175e-05
-4.06433e-06
7.8811e-05
-4.25077e-06
7.95075e-05
-4.2976e-06
8.46759e-05
-4.15004e-06
7.45752e-05
-3.92393e-06
6.57256e-05
-3.63815e-06
5.79499e-05
-3.3098e-06
5.1071e-05
-2.95481e-06
4.50194e-05
-2.58643e-06
3.96765e-05
-2.21536e-06
3.49091e-05
-1.8499e-06
3.05779e-05
-1.49487e-06
2.65925e-05
-1.14934e-06
2.27663e-05
-8.13285e-07
1.91436e-05
-6.13797e-07
1.56804e-05
-2.67037e-07
1.17444e-05
4.75984e-08
2.15342e-05
1.20572e-07
2.39623e-05
1.39394e-07
2.66657e-05
1.04906e-07
2.96775e-05
2.20198e-08
3.30295e-05
-1.10076e-07
3.67559e-05
-2.93122e-07
4.09059e-05
-5.30274e-07
4.55261e-05
-8.25322e-07
5.06755e-05
-1.18042e-06
5.64195e-05
-1.5948e-06
6.28396e-05
-2.06111e-06
7.00329e-05
-2.56374e-06
7.68833e-05
-3.07593e-06
7.71625e-05
-3.57623e-06
7.75299e-05
-4.03464e-06
7.7999e-05
-4.41835e-06
7.85715e-05
-4.69624e-06
7.92564e-05
-4.83958e-06
8.00495e-05
-4.8256e-06
8.53514e-05
-4.59934e-06
7.52506e-05
-4.29548e-06
6.6383e-05
-3.9361e-06
5.85762e-05
-3.54111e-06
5.16573e-05
-3.128e-06
4.5561e-05
-2.71042e-06
4.01715e-05
-2.29915e-06
3.53584e-05
-1.90206e-06
3.09851e-05
-1.52314e-06
2.69663e-05
-1.16055e-06
2.31136e-05
-1.00689e-06
1.95367e-05
-6.05984e-07
1.60194e-05
-2.60724e-07
1.20051e-05
4.56803e-08
1.93539e-05
1.15604e-07
2.15392e-05
1.32503e-07
2.39692e-05
9.745e-08
2.66731e-05
1.48564e-08
2.96846e-05
-1.16198e-07
3.30356e-05
-2.97764e-07
3.67606e-05
-5.33545e-07
4.09092e-05
-8.28211e-07
4.55289e-05
-1.1854e-06
5.06805e-05
-1.60673e-06
5.64314e-05
-2.0885e-06
6.28669e-05
-2.62033e-06
7.00894e-05
-3.18059e-06
7.6988e-05
-3.73798e-06
7.73242e-05
-4.26654e-06
7.77618e-05
-4.73238e-06
7.83131e-05
-5.10222e-06
7.89775e-05
-5.34423e-06
7.97611e-05
-5.43189e-06
8.06558e-05
-5.34543e-06
8.60975e-05
-5.03226e-06
7.59874e-05
-4.64486e-06
6.70917e-05
-4.20913e-06
5.92443e-05
-3.7471e-06
5.22764e-05
-3.27698e-06
4.61276e-05
-2.81264e-06
4.0685e-05
-2.36438e-06
3.58207e-05
-1.9391e-06
3.1401e-05
-1.53961e-06
2.73453e-05
-1.43873e-06
2.35454e-05
-9.95252e-07
1.99259e-05
-5.92674e-07
1.63513e-05
-2.5253e-07
1.22577e-05
1.73977e-05
4.40123e-08
1.11298e-07
1.93582e-05
1.26552e-07
2.15451e-05
9.11207e-08
2.39755e-05
8.98757e-09
2.6679e-05
-1.20801e-07
2.96892e-05
-3.00493e-07
3.30383e-05
-5.34156e-07
3.67612e-05
-8.27073e-07
4.09081e-05
-1.18396e-06
4.55275e-05
-1.60826e-06
5.0682e-05
-2.09911e-06
5.6442e-05
-2.65038e-06
6.2897e-05
-3.24636e-06
7.01552e-05
-3.86125e-06
7.71112e-05
-4.45656e-06
7.75142e-05
-5.00246e-06
7.80319e-05
-5.4639e-06
7.86748e-05
-5.80605e-06
7.94393e-05
-5.99863e-06
8.03278e-05
-6.0175e-06
8.13278e-05
-5.84871e-06
8.6914e-05
-5.44122e-06
7.67838e-05
-4.96648e-06
6.78491e-05
-4.45341e-06
5.99506e-05
-3.9252e-06
5.29246e-05
-3.40051e-06
4.67154e-05
-2.89283e-06
4.12135e-05
-2.41127e-06
3.62929e-05
-1.96142e-06
3.18228e-05
-1.91065e-06
2.78173e-05
-1.42375e-06
2.39739e-05
-9.74807e-07
2.03081e-05
-5.751e-07
1.66739e-05
-2.42942e-07
1.25006e-05
1.74014e-05
1.07545e-07
2.78129e-05
4.11604e-08
1.21395e-07
1.93634e-05
8.57254e-08
2.15505e-05
4.16367e-09
2.39804e-05
-1.24225e-07
2.66824e-05
-3.01797e-07
2.96905e-05
-5.32849e-07
3.3037e-05
-8.23068e-07
3.67572e-05
-1.17794e-06
4.0902e-05
-1.60224e-06
4.55215e-05
-2.09729e-06
5.06802e-05
-2.66034e-06
5.6452e-05
-3.28053e-06
6.29312e-05
-3.93871e-06
7.02327e-05
-4.60207e-06
7.72568e-05
-5.22498e-06
7.77368e-05
-5.77665e-06
7.83446e-05
-6.21955e-06
7.90883e-05
-6.51967e-06
7.99604e-05
-6.6484e-06
8.09587e-05
-6.5871e-06
8.20662e-05
-6.32667e-06
8.77994e-05
-5.81962e-06
7.76369e-05
-5.2557e-06
6.86514e-05
-4.66575e-06
6.06911e-05
-4.07375e-06
5.35978e-05
-3.49816e-06
4.73208e-05
-2.95108e-06
4.17533e-05
-2.44026e-06
3.67717e-05
-2.43602e-06
3.23482e-05
-1.89268e-06
2.82862e-05
-1.39618e-06
2.43953e-05
-9.47325e-07
2.06803e-05
-5.54283e-07
1.69852e-05
-2.32314e-07
1.27329e-05
1.74059e-05
1.16913e-07
2.78193e-05
1.01116e-07
2.85528e-05
3.84031e-08
8.11087e-08
1.9368e-05
1.84739e-10
2.15545e-05
-1.26735e-07
2.39829e-05
-3.02056e-07
2.66827e-05
-5.30197e-07
2.96879e-05
-8.17089e-07
3.30311e-05
-1.16873e-06
3.6748e-05
-1.59088e-06
4.08907e-05
-2.0865e-06
4.55107e-05
-2.65544e-06
5.06753e-05
-3.29078e-06
5.64622e-05
-3.97887e-06
6.29713e-05
-4.69416e-06
7.03248e-05
-5.39673e-06
7.74285e-05
-6.03619e-06
7.79963e-05
-6.5794e-06
7.87045e-05
-6.98887e-06
7.95575e-05
-7.23142e-06
8.05434e-05
-7.28347e-06
8.16551e-05
-7.13087e-06
8.28704e-05
-6.77158e-06
8.87514e-05
-6.1619e-06
7.85431e-05
-5.50861e-06
6.94942e-05
-4.84401e-06
6.14614e-05
-4.1921e-06
5.42918e-05
-3.56987e-06
4.79396e-05
-2.98793e-06
4.23009e-05
-3.03263e-06
3.73683e-05
-2.41526e-06
3.28708e-05
-1.85797e-06
2.8748e-05
-1.35844e-06
2.48064e-05
-9.14398e-07
2.10404e-05
-5.31031e-07
1.72839e-05
-2.20967e-07
1.29539e-05
1.74099e-05
7.71411e-08
2.78264e-05
1.09783e-07
2.8559e-05
9.48542e-08
2.93127e-05
3.57438e-08
-3.1081e-09
1.93713e-05
-1.28542e-07
2.15563e-05
-3.01563e-07
2.39824e-05
-5.26639e-07
2.66791e-05
-8.09821e-07
2.96806e-05
-1.15744e-06
3.30198e-05
-1.57591e-06
3.6733e-05
-2.06943e-06
4.08736e-05
-2.63985e-06
4.54951e-05
-3.28333e-06
5.06678e-05
-3.9907e-06
5.6474e-05
-4.74256e-06
6.30197e-05
-5.50683e-06
7.04349e-05
-6.23861e-06
7.76309e-05
-6.88058e-06
7.82975e-05
-7.40015e-06
7.91158e-05
-7.75973e-06
8.00858e-05
-7.93055e-06
8.11905e-05
-7.89303e-06
8.24173e-05
-7.64005e-06
8.37389e-05
-7.17682e-06
8.97663e-05
-6.4633e-06
7.94978e-05
-5.72251e-06
7.03727e-05
-4.98723e-06
6.22565e-05
-4.27999e-06
5.50019e-05
-3.61618e-06
4.85678e-05
-3.7154e-06
4.29837e-05
-3.0091e-06
3.79622e-05
-2.37324e-06
3.3386e-05
-1.80966e-06
2.91992e-05
-1.31273e-06
2.52048e-05
-8.77347e-07
2.13867e-05
-5.06092e-07
1.75691e-05
-2.09204e-07
1.31631e-05
1.74126e-05
-5.84426e-09
2.78317e-05
7.18146e-08
2.85659e-05
1.02887e-07
2.93187e-05
8.87674e-08
3.00906e-05
3.31831e-08
-1.29809e-07
1.93726e-05
-3.00543e-07
2.15553e-05
-5.22504e-07
2.39782e-05
-8.01779e-07
2.66711e-05
-1.14488e-06
2.96681e-05
-1.55867e-06
3.30025e-05
-2.0482e-06
3.67118e-05
-2.61684e-06
4.08506e-05
-3.26314e-06
4.54749e-05
-3.98153e-06
5.06587e-05
-4.75767e-06
5.64891e-05
-5.56622e-06
6.30791e-05
-6.37059e-06
7.05668e-05
-7.11839e-06
7.78687e-05
-7.74766e-06
7.8645e-05
-8.22647e-06
7.95825e-05
-8.52085e-06
8.06761e-05
-8.60539e-06
8.19028e-05
-8.46733e-06
8.32446e-05
-8.10698e-06
8.4669e-05
-7.53659e-06
9.08396e-05
-6.72041e-06
8.04957e-05
-5.89603e-06
7.12815e-05
-5.09494e-06
6.30715e-05
-4.33795e-06
5.57237e-05
-4.49933e-06
4.93517e-05
-3.68922e-06
4.36638e-05
-2.95928e-06
3.85482e-05
-2.31379e-06
3.38902e-05
-1.75055e-06
2.9637e-05
-1.26095e-06
2.55884e-05
-8.37393e-07
2.1718e-05
-4.8014e-07
1.784e-05
-1.9728e-07
1.33604e-05
1.74135e-05
-1.30664e-07
2.78334e-05
-7.52043e-09
2.8571e-05
6.67507e-08
2.93254e-05
9.62163e-08
3.00965e-05
8.2855e-08
3.08905e-05
3.07217e-08
-2.99168e-07
1.93712e-05
-5.18044e-07
2.15508e-05
-7.93348e-07
2.39698e-05
-1.13167e-06
2.66579e-05
-1.54014e-06
2.96495e-05
-2.0244e-06
3.29787e-05
-2.58893e-06
3.66839e-05
-3.23411e-06
4.08216e-05
-3.95719e-06
4.54506e-05
-4.74798e-06
5.0649e-05
-5.58677e-06
5.65097e-05
-6.44423e-06
6.31528e-05
-7.27655e-06
7.0725e-05
-8.02585e-06
7.81469e-05
-8.62494e-06
7.90435e-05
-9.04674e-06
8.01084e-05
-9.25983e-06
8.13305e-05
-9.24527e-06
8.26808e-05
-8.99773e-06
8.41353e-05
-8.52487e-06
8.56573e-05
-7.84657e-06
9.19658e-05
-6.93131e-06
8.1531e-05
-6.02839e-06
7.2215e-05
-5.16758e-06
6.39011e-05
-5.40113e-06
5.66255e-05
-4.47094e-06
5.01335e-05
-3.63106e-06
4.43356e-05
-2.88772e-06
3.91221e-05
-2.24039e-06
3.438e-05
-1.68316e-06
3.00592e-05
-1.20482e-06
2.59558e-05
-7.95635e-07
2.20335e-05
-4.53728e-07
1.80964e-05
-1.854e-07
1.35458e-05
1.74119e-05
-2.97567e-07
2.78296e-05
-1.26892e-07
2.85723e-05
-8.84328e-09
2.93302e-05
6.19695e-08
3.01029e-05
8.97875e-08
3.08962e-05
7.71269e-08
3.17104e-05
2.83561e-08
-5.13442e-07
1.93666e-05
-7.84813e-07
2.15423e-05
-1.11827e-06
2.39564e-05
-1.52106e-06
2.66388e-05
-1.99925e-06
2.96244e-05
-2.55806e-06
3.29479e-05
-3.19927e-06
3.66491e-05
-3.92233e-06
4.07867e-05
-4.72033e-06
4.54229e-05
-5.57825e-06
5.06404e-05
-6.47292e-06
5.65384e-05
-7.36821e-06
6.32444e-05
-8.21491e-06
7.09141e-05
-8.94864e-06
7.84706e-05
-9.50064e-06
7.94974e-05
-9.84801e-06
8.06966e-05
-9.96525e-06
8.20505e-05
-9.84063e-06
8.35237e-05
-9.47641e-06
8.50869e-05
-8.88847e-06
8.66992e-05
-8.10411e-06
9.31386e-05
-7.09474e-06
8.25973e-05
-6.11985e-06
7.31673e-05
-6.43953e-06
6.49395e-05
-5.37152e-06
5.75261e-05
-4.40403e-06
5.09064e-05
-3.54619e-06
4.49941e-05
-2.79857e-06
3.96803e-05
-2.15619e-06
3.4853e-05
-1.6098e-06
3.04642e-05
-1.14594e-06
2.63061e-05
-7.52979e-07
2.23328e-05
-4.27309e-07
1.83384e-05
-1.73737e-07
1.37195e-05
1.74073e-05
-5.08833e-07
2.78186e-05
-2.86518e-07
2.85681e-05
-1.22649e-07
2.93312e-05
-9.80932e-09
3.01074e-05
5.74696e-08
3.09024e-05
8.35994e-08
3.17159e-05
7.15879e-08
3.25543e-05
2.60921e-08
-7.76379e-07
1.93581e-05
-1.105e-06
2.1529e-05
-1.50199e-06
2.39373e-05
-1.97363e-06
2.66132e-05
-2.52568e-06
2.9592e-05
-3.16093e-06
3.29095e-05
-3.88052e-06
3.66072e-05
-4.68013e-06
4.07465e-05
-5.54853e-06
4.53932e-05
-6.46774e-06
5.06353e-05
-7.40829e-06
5.65785e-05
-8.32887e-06
6.33584e-05
-9.17363e-06
7.1139e-05
-9.87504e-06
7.8845e-05
-1.03614e-05
8.00108e-05
-1.06182e-05
8.13495e-05
-1.06267e-05
8.28365e-05
-1.03827e-05
8.443e-05
-9.89729e-06
8.60957e-05
-9.19447e-06
8.77896e-05
-8.30739e-06
9.43512e-05
-7.21065e-06
8.36881e-05
-7.63414e-06
7.43619e-05
-6.41045e-06
6.59784e-05
-5.29574e-06
5.84178e-05
-4.30465e-06
5.16649e-05
-3.43955e-06
4.5635e-05
-2.69575e-06
4.02199e-05
-2.06414e-06
3.53074e-05
-1.53257e-06
3.08508e-05
-1.08561e-06
2.66387e-05
-7.10175e-07
2.26156e-05
-4.01275e-07
1.85659e-05
-1.62398e-07
1.38819e-05
1.73991e-05
-7.6819e-07
2.77983e-05
-4.88517e-07
2.85564e-05
-2.7482e-07
2.93264e-05
-1.179e-07
3.0108e-05
-1.04061e-08
3.09066e-05
5.32534e-08
3.17218e-05
7.76549e-08
3.25596e-05
6.62296e-08
3.34202e-05
2.39225e-08
-1.0921e-06
1.93453e-05
-1.4833e-06
2.15103e-05
-1.9482e-06
2.39119e-05
-2.49288e-06
2.65804e-05
-3.12086e-06
2.95519e-05
-3.83452e-06
3.28635e-05
-4.6316e-06
3.65587e-05
-5.50389e-06
4.07019e-05
-6.4377e-06
4.53632e-05
-7.40921e-06
5.06362e-05
-8.38413e-06
5.66337e-05
-9.3146e-06
6.34994e-05
-1.01412e-05
7.14052e-05
-1.07916e-05
7.92752e-05
-1.11948e-05
8.05874e-05
-1.13462e-05
8.2069e-05
-1.12344e-05
8.36882e-05
-1.08645e-05
8.53971e-05
-1.02562e-05
8.71574e-05
-9.44047e-06
8.89226e-05
-8.45596e-06
9.55965e-05
-9.00679e-06
8.50608e-05
-7.6085e-06
7.55599e-05
-6.32615e-06
6.70088e-05
-5.18071e-06
5.92938e-05
-4.1786e-06
5.2404e-05
-3.31589e-06
4.62552e-05
-2.58288e-06
4.07386e-05
-1.96689e-06
3.57417e-05
-1.45321e-06
3.12184e-05
-1.02492e-06
2.69535e-05
-6.67873e-07
2.28822e-05
-3.7587e-07
1.87794e-05
-1.51486e-07
1.40334e-05
1.73867e-05
-1.07973e-06
2.77664e-05
-7.36288e-07
2.85352e-05
-4.67382e-07
2.93141e-05
-2.62505e-07
3.01028e-05
-1.12697e-07
3.09068e-05
-1.06464e-08
3.17258e-05
4.93198e-08
3.25653e-05
7.19524e-08
3.34253e-05
6.10621e-08
3.43061e-05
2.18469e-08
-1.46528e-06
1.93272e-05
-1.92342e-06
2.14856e-05
-2.46044e-06
2.38795e-05
-3.08034e-06
2.65399e-05
-3.78643e-06
2.95038e-05
-4.578e-06
3.28099e-05
-5.44927e-06
3.65041e-05
-6.38999e-06
4.06542e-05
-7.38112e-06
4.53351e-05
-8.39445e-06
5.06465e-05
-9.38936e-06
5.67085e-05
-1.03143e-05
6.36724e-05
-1.11043e-05
7.17179e-05
-1.16854e-05
7.97657e-05
-1.19889e-05
8.12301e-05
-1.20212e-05
8.28558e-05
-1.17804e-05
8.46042e-05
-1.12809e-05
8.64218e-05
-1.055e-05
8.8267e-05
-9.62544e-06
9.00921e-05
-1.05811e-05
9.71708e-05
-8.98991e-06
8.64422e-05
-7.51714e-06
7.67509e-05
-6.19464e-06
6.80228e-05
-5.03322e-06
6.01484e-05
-4.03158e-06
5.31196e-05
-3.1796e-06
4.68519e-05
-2.46325e-06
4.1235e-05
-1.86667e-06
3.61552e-05
-1.37317e-06
3.15667e-05
-9.64801e-07
2.72504e-05
-6.26489e-07
2.31329e-05
-3.51336e-07
1.89792e-05
-1.41066e-07
1.41744e-05
1.73695e-05
-1.44811e-06
2.77205e-05
-1.03386e-06
2.85023e-05
-7.03356e-07
2.92921e-05
-4.45379e-07
3.00898e-05
-2.49535e-07
3.09012e-05
-1.07017e-07
3.17257e-05
-1.05274e-08
3.2569e-05
4.56761e-08
3.34308e-05
6.64984e-08
3.43111e-05
5.60808e-08
3.522e-05
1.98652e-08
-1.89962e-06
1.93034e-05
-2.42892e-06
2.1454e-05
-3.04032e-06
2.38395e-05
-3.7378e-06
2.64912e-05
-4.52181e-06
2.94476e-05
-5.38845e-06
3.27491e-05
-6.33029e-06
3.64444e-05
-7.3322e-06
4.06052e-05
-8.37116e-06
4.53118e-05
-9.41295e-06
5.06701e-05
-1.04133e-05
5.68075e-05
-1.13148e-05
6.38829e-05
-1.20499e-05
7.20824e-05
-1.25441e-05
8.0321e-05
-1.27323e-05
8.19411e-05
-1.26345e-05
8.37099e-05
-1.22588e-05
8.55821e-05
-1.16279e-05
8.74996e-05
-1.07771e-05
8.94186e-05
-1.20674e-05
9.15784e-05
-1.0582e-05
9.87629e-05
-8.89519e-06
8.78202e-05
-7.36932e-06
7.79256e-05
-6.02382e-06
6.90134e-05
-4.86002e-06
6.09769e-05
-3.8688e-06
5.38088e-05
-3.03465e-06
4.74233e-05
-2.33961e-06
4.17079e-05
-1.76535e-06
3.65473e-05
-1.29373e-06
3.18956e-05
-9.05863e-07
2.75298e-05
-5.86424e-07
2.33679e-05
-3.27829e-07
1.9166e-05
-1.31169e-07
1.43056e-05
1.73469e-05
-1.87701e-06
2.76577e-05
-1.38528e-06
2.84551e-05
-9.86702e-07
2.92582e-05
-6.69434e-07
3.0067e-05
-4.22577e-07
3.08876e-05
-2.3597e-07
3.17195e-05
-1.00888e-07
3.25685e-05
-1.00642e-08
3.34342e-05
4.23046e-08
3.43163e-05
6.12847e-08
3.52248e-05
5.128e-08
3.61559e-05
1.79731e-08
-2.3987e-06
1.92732e-05
-3.00147e-06
2.14152e-05
-3.68975e-06
2.37914e-05
-4.46486e-06
2.64343e-05
-5.32434e-06
2.93835e-05
-6.263e-06
3.26818e-05
-7.26894e-06
3.63811e-05
-8.32345e-06
4.05575e-05
-9.39789e-06
4.52967e-05
-1.04546e-05
5.07114e-05
-1.14432e-05
5.6936e-05
-1.23032e-05
6.41363e-05
-1.29654e-05
7.25037e-05
-1.33559e-05
8.09446e-05
-1.34152e-05
8.27218e-05
-1.31792e-05
8.46303e-05
-1.26646e-05
8.66189e-05
-1.19031e-05
8.86257e-05
-1.35402e-05
9.08914e-05
-1.20939e-05
9.30903e-05
-1.04906e-05
0.000100358
-8.733e-06
8.91839e-05
-7.17424e-06
7.9076e-05
-5.82175e-06
6.99751e-05
-4.66737e-06
6.17755e-05
-3.69509e-06
5.44693e-05
-2.88443e-06
4.79681e-05
-2.21432e-06
4.21569e-05
-1.66456e-06
3.69182e-05
-1.2157e-06
3.22054e-05
-8.48694e-07
2.7792e-05
-5.47947e-07
2.35881e-05
-3.05428e-07
1.93402e-05
-1.21819e-07
1.44274e-05
1.73182e-05
-2.37003e-06
2.75747e-05
-1.79407e-06
2.83906e-05
-1.32075e-06
2.92095e-05
-9.38049e-07
3.0032e-05
-6.34371e-07
3.0864e-05
-3.9898e-07
3.17054e-05
-2.21841e-07
3.25619e-05
-9.43255e-08
3.34334e-05
-9.2653e-09
3.43194e-05
3.921e-08
3.52298e-05
5.63093e-08
3.61605e-05
4.66594e-08
3.65898e-05
1.61919e-08
-2.96425e-06
1.9236e-05
-3.64309e-06
2.13685e-05
-4.40849e-06
2.3735e-05
-5.25913e-06
2.63691e-05
-6.19153e-06
2.93121e-05
-7.1964e-06
3.26093e-05
-8.25866e-06
3.63163e-05
-9.35437e-06
4.0514e-05
-1.04517e-05
4.52938e-05
-1.1507e-05
5.07751e-05
-1.24664e-05
5.70992e-05
-1.32669e-05
6.44378e-05
-1.38384e-05
7.29863e-05
-1.411e-05
8.16394e-05
-1.40301e-05
8.35727e-05
-1.36495e-05
8.56152e-05
-1.29948e-05
8.77105e-05
-1.49909e-05
9.00765e-05
-1.36022e-05
9.23997e-05
-1.20143e-05
9.46141e-05
-1.03185e-05
0.000101944
-8.51373e-06
9.05234e-05
-6.94113e-06
8.01954e-05
-5.59586e-06
7.09036e-05
-4.46106e-06
6.25414e-05
-3.51456e-06
5.50994e-05
-2.73184e-06
4.84856e-05
-2.08942e-06
4.25817e-05
-1.56538e-06
3.72679e-05
-1.13988e-06
3.24966e-05
-7.937e-07
2.80378e-05
-5.11196e-07
2.37938e-05
-2.842e-07
1.95026e-05
-1.13031e-07
1.45405e-05
1.72829e-05
-2.92895e-06
2.74683e-05
-2.26359e-06
2.8306e-05
-1.70946e-06
2.91435e-05
-1.25473e-06
2.99821e-05
-8.88214e-07
3.0828e-05
-5.98426e-07
3.16811e-05
-3.74646e-07
3.25472e-05
-2.0714e-07
3.34264e-05
-8.73504e-08
3.43182e-05
-8.14732e-09
3.52326e-05
3.63774e-08
3.61653e-05
5.15631e-08
3.65942e-05
4.22738e-08
3.55536e-05
1.45765e-08
-3.59837e-06
1.91913e-05
-4.35368e-06
2.13137e-05
-5.19441e-06
2.36703e-05
-6.11842e-06
2.6296e-05
-7.11851e-06
2.92342e-05
-8.18255e-06
3.25332e-05
-9.29063e-06
3.62526e-05
-1.04159e-05
4.04782e-05
-1.15207e-05
4.53076e-05
-1.25578e-05
5.08665e-05
-1.34703e-05
5.73026e-05
-1.41932e-05
6.47925e-05
-1.46579e-05
7.35342e-05
-1.47981e-05
8.24074e-05
-1.45701e-05
8.44933e-05
-1.40413e-05
8.66617e-05
-1.64096e-05
8.91292e-05
-1.51002e-05
9.15745e-05
-1.35448e-05
9.39302e-05
-1.18415e-05
9.61371e-05
-1.00777e-05
0.000103508
-8.2481e-06
9.18304e-05
-6.67866e-06
8.12782e-05
-5.35298e-06
7.17955e-05
-4.24606e-06
6.32729e-05
-3.33076e-06
5.56983e-05
-2.57941e-06
4.89756e-05
-1.96628e-06
4.29826e-05
-1.46885e-06
3.75968e-05
-1.06684e-06
3.27698e-05
-7.41093e-07
2.82677e-05
-4.76292e-07
2.39859e-05
-2.64188e-07
1.96538e-05
-1.04805e-07
1.46453e-05
1.72405e-05
-3.55594e-06
2.73356e-05
-2.79621e-06
2.81977e-05
-2.15529e-06
2.90568e-05
-1.62271e-06
2.99146e-05
-1.1872e-06
3.0777e-05
-8.37163e-07
3.16442e-05
-5.61549e-07
3.25223e-05
-3.49683e-07
3.34112e-05
-1.91969e-07
3.43109e-05
-8.00046e-08
3.52312e-05
-6.73171e-09
3.61678e-05
3.37962e-08
3.65986e-05
4.71037e-08
3.55576e-05
3.82779e-08
3.45455e-05
1.31051e-08
-4.30109e-06
1.91387e-05
-5.13132e-06
2.12506e-05
-6.04556e-06
2.35975e-05
-7.03824e-06
2.62157e-05
-8.09964e-06