/*--------------------------------*- C++ -*----------------------------------*\
  =========                 |
  \\      /  F ield         | OpenFOAM: The Open Source CFD Toolbox
   \\    /   O peration     | Website:  https://openfoam.org
    \\  /    A nd           | Version:  8
     \\/     M anipulation  |
\*---------------------------------------------------------------------------*/
FoamFile
{
    version     2.0;
    format      ascii;
    class       volScalarField;
    location    "0.26";
    object      p;
}
// * * * * * * * * * * * * * * * * * * * * * * * * * * * * * * * * * * * * * //

dimensions      [0 2 -2 0 0 0 0];

internalField   nonuniform List<scalar> 
15677
(
74.5601
74.2035
73.7908
74.2681
73.779
73.7926
74.2431
73.8062
73.802
73.6862
74.2177
73.8076
73.8023
73.6952
73.5948
74.1959
73.8098
73.8022
73.6945
73.6024
73.4986
74.1725
73.8121
73.8018
73.6956
73.6022
73.5053
73.3841
74.1474
73.8147
73.801
73.6959
73.6033
73.5053
73.3899
73.2474
74.1212
73.8178
73.7995
73.696
73.6038
73.5062
73.3901
73.2525
73.0812
74.0939
73.8198
73.7976
73.6958
73.6042
73.5068
73.391
73.2527
73.0855
72.8779
74.0653
73.8213
73.7949
73.6954
73.6046
73.5074
73.3917
73.2538
73.0859
72.8815
72.6297
74.0358
73.8229
73.7917
73.6952
73.605
73.5081
73.3926
73.2546
73.0871
72.882
72.6326
72.3285
74.0059
73.824
73.7883
73.6953
73.6056
73.5089
73.3936
73.2558
73.0882
72.8834
72.6333
72.3306
71.9658
73.9761
73.8241
73.7848
73.6957
73.6066
73.5102
73.395
73.2573
73.0897
72.8849
72.635
72.3315
71.9671
71.5332
73.9495
73.8228
73.7813
73.6965
73.6083
73.5122
73.3972
73.2594
73.0918
72.8869
72.6369
72.3335
71.9681
71.5335
71.0226
73.9266
73.8207
73.7778
73.6979
73.6109
73.5152
73.4004
73.2625
73.0948
72.8898
72.6395
72.3359
71.9705
71.5349
71.0219
70.4264
73.9066
73.8187
73.7749
73.6999
73.6148
73.5198
73.4052
73.2673
73.0993
72.8939
72.6433
72.3394
71.9735
71.5375
71.0235
70.4246
69.738
73.8892
73.8167
73.7727
73.7025
73.6202
73.5263
73.4123
73.2743
73.1059
72.9
72.6489
72.3444
71.978
71.5414
71.0265
70.4264
69.7348
68.9515
73.8741
73.8147
73.7711
73.7054
73.6269
73.5354
73.4222
73.2844
73.1157
72.9091
72.6571
72.3517
71.9844
71.547
71.0313
70.43
69.7369
68.9469
68.0627
73.8611
73.8129
73.7701
73.7088
73.6342
73.5464
73.4359
73.2987
73.1298
72.9224
72.6692
72.3624
71.9938
71.5551
71.0383
70.4357
69.741
68.9493
68.0565
67.0686
73.8499
73.8112
73.7696
73.7127
73.6423
73.5584
73.4526
73.3182
73.1495
72.9414
72.6868
72.3782
72.0076
71.567
71.0483
70.4442
69.7478
68.9539
68.0592
67.0607
65.9682
73.8409
73.8096
73.7696
73.7169
73.651
73.5715
73.4707
73.342
73.1765
72.968
72.712
72.4011
72.0278
71.5843
71.063
70.4565
69.7579
68.9619
68.0644
67.0637
65.9584
64.7621
73.8341
73.8081
73.7701
73.7216
73.6603
73.5857
73.4905
73.3678
73.2094
73.0045
72.7473
72.4339
72.0571
71.6098
71.0845
70.4743
69.7726
68.9737
68.0735
67.0694
65.9618
64.7503
63.4535
73.8288
73.8068
73.7709
73.7266
73.6701
73.6008
73.5117
73.3961
73.2452
73.0489
72.7955
72.4797
72.0989
71.6466
71.116
70.5004
69.7939
68.9909
68.0871
67.0796
65.9678
64.754
63.4396
62.0469
73.8247
73.8056
73.7719
73.7316
73.6803
73.6165
73.5343
73.4265
73.2844
73.0973
72.8543
72.5424
72.1574
71.6991
71.1614
70.5386
69.8251
69.0159
68.1069
67.095
65.9792
64.7604
63.4434
62.0308
60.5546
73.8214
73.8047
73.773
73.7363
73.6903
73.6329
73.5579
73.4587
73.3265
73.1503
72.9185
72.6188
72.2375
71.7725
71.2262
70.5938
69.8707
69.0525
68.1357
67.1174
65.9962
64.7726
63.4499
62.0346
60.5357
59.0069
73.8188
73.8039
73.7742
73.7406
73.6995
73.6489
73.5823
73.4924
73.3711
73.2073
72.9888
72.7023
72.3353
71.8732
71.3169
70.6726
69.9367
69.106
68.1778
67.1499
66.0209
64.791
63.4628
62.0408
60.5369
58.9513
57.3432
73.8167
73.8033
73.7753
73.7446
73.7079
73.6637
73.6062
73.5273
73.4178
73.2678
73.0645
72.794
72.4422
71.9961
71.4414
70.7829
70.0309
69.1836
68.2396
67.1976
66.0569
64.8179
63.4822
62.0538
60.5416
58.954
57.2761
55.5487
73.815
73.8028
73.7764
73.7481
73.7154
73.677
73.6281
73.5614
73.4662
73.3311
73.1449
72.8928
72.5597
72.1309
71.5938
70.9345
70.1629
69.2944
68.3293
67.2677
66.11
64.857
63.5105
62.0734
60.553
58.9549
57.2787
55.5185
53.6967
73.8136
73.8024
73.7772
73.7514
73.7221
73.689
73.6479
73.5927
73.5135
73.3967
73.2291
72.9978
72.6865
72.2792
71.761
71.1204
70.3448
69.4502
68.4579
67.3699
66.1884
64.915
63.552
62.1023
60.5712
58.9634
57.273
55.5108
53.6853
51.793
73.8124
73.802
73.778
73.7545
73.7281
73.6997
73.6657
73.621
73.557
73.461
73.3164
73.1079
72.8214
72.4394
71.9453
71.3248
70.5683
69.6653
68.6389
67.5168
66.3029
65.0009
63.6139
62.1451
60.599
58.9789
57.2808
55.5014
53.6684
51.7875
49.6463
73.8114
73.8017
73.7786
73.7572
73.7335
73.7092
73.6815
73.6463
73.5962
73.52
73.402
73.2221
72.963
72.6101
72.1447
71.5505
70.8146
69.9302
68.8896
67.7241
66.4681
65.1272
63.7064
62.2097
60.6413
59.0041
57.2946
55.5106
53.6598
51.7688
49.6441
47.2278
73.8106
73.8015
73.7793
73.7597
73.7382
73.7176
73.6957
73.669
73.6314
73.5733
73.4807
73.3342
73.1102
72.7896
72.3576
71.7953
71.0871
70.2229
69.1992
68.0122
66.7021
65.3101
63.8433
62.3073
60.7067
59.0444
57.3181
55.5241
53.6696
51.7623
49.6263
47.2275
44.7817
73.8099
73.8013
73.7799
73.7619
73.7424
73.7252
73.7082
73.6891
73.6628
73.6211
73.5517
73.4374
73.2548
72.9763
72.5818
72.057
71.3834
70.5475
69.5422
68.369
67.0284
65.5706
64.0429
62.4532
60.8075
59.1091
57.3568
55.5472
53.6831
51.7706
49.6197
47.2109
44.7832
42.3506
73.8093
73.8012
73.7804
73.7638
73.7462
73.7318
73.7193
73.707
73.6908
73.6639
73.6156
73.5306
73.388
73.1601
72.8154
72.3332
71.7008
70.9012
69.9236
68.7655
67.4343
65.9353
64.3286
62.6677
60.9603
59.2112
57.4206
55.5852
53.7063
51.784
49.6247
47.2038
44.7686
42.3522
39.9548
73.801
73.8087
73.7809
73.7655
73.7495
73.7377
73.7292
73.7229
73.7157
73.7019
73.6727
73.6145
73.5085
73.3296
73.0459
72.6216
72.0366
71.281
70.3404
69.2079
67.8868
66.3908
64.7308
62.9769
61.1875
59.3689
57.5234
55.6483
53.7433
51.8066
49.6368
47.2055
44.7614
42.3387
39.9563
37.6069
73.7814
73.8009
73.8079
73.7669
73.7524
73.7429
73.7379
73.7369
73.7377
73.7358
73.7235
73.6895
73.617
73.4833
73.2587
72.9067
72.388
71.684
70.7892
69.6927
68.3933
66.9006
65.2355
63.4146
61.5175
59.6062
57.6844
55.7511
53.8051
51.8417
49.6567
47.2149
44.7601
42.3305
39.9435
37.6076
35.3191
73.7682
73.7821
73.8008
73.8071
73.755
73.7476
73.7457
73.7494
73.7573
73.7658
73.7688
73.7564
73.7141
73.6217
73.4519
73.1705
72.7362
72.1068
71.2666
70.2164
68.9502
67.4733
65.8027
63.9669
61.9879
59.9541
57.9296
55.9142
53.9068
51.9009
49.688
47.23
44.7661
42.3257
39.9337
37.5955
35.3189
33.1025
73.7573
73.77
73.783
73.8008
73.8065
73.7517
73.7525
73.7605
73.7746
73.7924
73.8089
73.8159
73.8008
73.7457
73.6262
73.4104
73.0591
72.5268
71.7691
70.7753
69.5538
68.1052
66.4424
64.5902
62.5849
60.4535
58.2921
56.1648
54.0698
51.9995
49.7421
47.2551
44.7756
42.3269
39.9249
37.5837
35.3071
33.1013
30.9655
73.7552
73.7603
73.7721
73.7839
73.8007
73.8058
73.7586
73.7703
73.79
73.816
73.8445
73.8687
73.8779
73.8565
73.7825
73.627
73.3533
72.9173
72.2699
71.3654
70.2003
68.7928
67.151
65.2963
63.2619
61.0912
58.8162
56.5383
54.3226
52.1598
49.8347
47.3008
44.7928
42.3294
39.9205
37.5709
35.2932
33.0897
30.9632
28.9141
73.7637
73.7599
73.7637
73.7741
73.7849
73.8006
73.8052
73.7789
73.8036
73.8369
73.8761
73.9156
73.9465
73.9552
73.9224
73.8218
73.6195
73.274
72.7368
71.9555
70.8853
69.5317
67.9249
66.0815
64.0321
61.8181
59.4897
57.0821
54.7029
52.4112
49.9886
47.3831
44.8276
42.3368
39.9146
37.56
35.276
33.0733
30.9518
28.9109
26.9527
73.7862
73.7707
73.7649
73.7671
73.7761
73.7858
73.8006
73.8046
73.8157
73.8555
73.9041
73.9572
74.0074
74.043
74.047
73.9961
73.8592
73.5975
73.1643
72.5074
71.5728
70.3179
68.7599
66.9426
64.8922
62.6484
60.261
57.7853
55.2606
52.7933
50.2342
47.5251
44.8961
42.3583
39.9106
37.5449
35.2584
33.0518
30.9327
28.8994
26.9485
25.0837
73.8258
73.796
73.7776
73.7699
73.7705
73.7781
73.7867
73.8005
73.8041
73.872
73.929
73.9941
74.0614
74.121
74.158
74.1517
74.0741
73.8892
73.5529
73.0143
72.2181
71.1101
69.6521
67.8757
65.8395
63.5799
61.1461
58.5943
55.986
53.3583
50.6129
47.7583
45.0217
42.4099
39.9166
37.5281
35.2334
33.027
30.9068
28.8777
26.9369
25.0786
23.3083
73.8857
73.8393
73.8053
73.7846
73.7749
73.7737
73.78
73.7876
73.8005
73.8037
73.951
74.0269
74.1094
74.1902
74.2567
74.2904
74.2662
74.1512
73.9042
73.4763
72.8127
71.8565
70.5551
68.8771
66.8707
64.6105
62.1435
59.527
56.8248
54.0975
51.1779
48.1249
45.2364
42.515
39.9484
37.5168
35.2027
32.9916
30.8747
28.8473
26.9125
25.0669
23.3025
21.6265
73.9693
73.9039
73.8514
73.8147
73.7915
73.7797
73.7769
73.7818
73.7885
73.8004
73.8032
74.056
74.152
74.2517
74.3444
74.4138
74.4376
74.3857
74.2202
73.8948
73.3561
72.5466
71.4093
69.8953
67.9825
65.7376
63.2524
60.5834
57.7967
54.9571
51.9229
48.6786
45.5823
42.7057
40.0296
37.5269
35.173
32.9464
30.8285
28.8078
26.8778
25.0398
23.2905
21.6199
20.037
74.0801
73.9936
73.9195
73.8639
73.824
73.7981
73.7843
73.78
73.7836
73.7894
73.8004
73.8028
74.1898
74.3065
74.4223
74.5236
74.5903
74.5953
74.5037
74.2722
73.8498
73.1794
72.2021
70.8628
69.1186
66.9589
64.4711
61.7635
58.903
55.9583
52.7948
49.4159
46.1123
43.0225
40.1911
37.5813
35.1597
32.8973
30.7684
28.7508
26.8309
25.0008
23.2608
21.6077
20.0297
18.538
74.221
74.1119
74.0135
73.9358
73.8761
73.8329
73.8045
73.7887
73.7829
73.7853
73.7902
73.8004
73.8025
74.3549
74.4917
74.6211
74.7261
74.7822
74.7573
74.6114
74.296
73.7559
72.9316
71.7643
70.2029
68.2132
65.7983
63.067
60.1451
57.1037
53.8168
50.2862
46.8265
43.5175
40.4716
37.7092
35.185
32.8596
30.6995
28.6755
26.763
24.9466
23.2178
21.5754
20.0172
18.5301
17.1269
74.3948
74.2624
74.1371
74.0344
73.9516
73.8877
73.8413
73.8106
73.793
73.7857
73.787
73.791
73.8004
73.8022
74.5532
74.7082
74.8471
74.9487
74.9839
74.9154
74.6979
74.2784
73.5982
72.5968
71.2176
69.4162
67.1688
64.494
61.5243
58.3966
54.9926
51.3134
47.6777
44.1945
40.9215
37.9471
35.2755
32.854
30.6368
28.5867
26.6725
24.8681
23.1564
21.5285
19.9825
18.5174
17.1185
15.8006
74.6035
74.4481
74.294
74.1637
74.0547
73.9666
73.8987
73.8494
73.8163
73.797
73.7883
73.7885
73.7918
73.8004
73.8019
74.7852
74.9551
75.0971
75.186
75.1874
75.0589
74.7501
74.2041
73.3601
72.1584
70.547
68.4899
65.9758
63.0426
59.84
56.3276
52.5032
48.6898
45.0101
41.5482
38.3428
35.4655
32.9045
30.599
28.4988
26.5641
24.7627
23.0674
21.4601
19.9319
18.4803
17.1055
15.7918
14.5559
74.848
74.6714
74.4873
74.3275
74.1893
74.0737
73.9806
73.909
73.8569
73.8218
73.8008
73.7908
73.79
73.7925
73.8003
73.8017
75.0506
75.2297
75.3662
75.4303
75.3824
75.1747
74.7526
74.0561
73.0241
71.5996
69.7373
67.4118
64.6284
61.4381
57.8272
53.8632
49.8705
45.9873
42.3121
38.9071
35.7997
33.0425
30.6074
28.4279
26.4509
24.6349
22.9474
21.361
19.8568
18.4262
17.0662
15.7785
14.5466
13.3892
75.1281
74.9339
74.72
74.5293
74.3597
74.2133
74.0914
73.9938
73.9187
73.8639
73.8268
73.8043
73.7931
73.7912
73.7931
73.8003
73.8015
75.347
75.5276
75.6473
75.6717
75.5559
75.2474
74.6878
73.8159
72.5718
70.9035
68.7744
66.1736
63.1171
59.4981
55.4019
51.2299
47.1357
43.2348
39.6041
36.2906
33.3089
30.6904
28.393
26.3469
24.4968
22.8009
21.227
19.7479
18.3446
17.0088
15.7372
14.5331
13.3794
12.2969
75.4416
75.2358
74.9936
74.7722
74.5695
74.3896
74.2355
74.1079
74.0059
73.9276
73.8704
73.8314
73.8075
73.7952
73.7924
73.7937
73.8004
73.8013
75.6701
75.8419
75.9307
75.8975
75.6926
75.2592
74.5368
73.4641
71.9847
70.0537
67.6471
64.7621
61.2657
57.1297
52.7795
48.467
44.3266
40.4529
36.9066
33.7167
30.8841
28.4191
26.2681
24.3597
22.6384
21.0624
19.6005
18.2265
16.921
15.6767
14.4898
13.3657
12.2865
11.2748
75.7846
75.5757
75.3091
75.0585
74.8221
74.6066
74.4172
74.2559
74.1229
74.0169
73.9356
73.8762
73.8356
73.8103
73.7969
73.7933
73.7941
73.8004
73.8012
76.0135
76.1632
76.2037
76.0923
75.7745
75.1905
74.2788
72.9806
71.2447
69.0366
66.3385
63.0095
58.9727
54.532
49.9938
45.5988
41.4625
37.6623
34.2389
31.2008
28.5362
26.2361
24.2371
22.4688
20.8761
19.4186
18.0662
16.7941
15.583
14.4265
13.3206
12.2725
11.2633
10.3234
76.1506
75.9505
75.6655
75.3892
75.1201
74.8679
74.6406
74.4423
74.2744
74.1365
74.0268
73.9428
73.8814
73.8391
73.8127
73.7984
73.7941
73.7946
73.8004
73.8011
76.368
76.4793
76.4514
76.238
75.7815
75.0198
73.8929
72.3454
70.3351
67.8324
64.6915
60.8036
56.4121
51.7276
47.0628
42.6425
38.5648
34.8843
31.6183
28.7556
26.2739
24.1467
22.3028
20.6749
19.2093
17.8678
16.6217
15.4477
14.3272
13.2547
12.2257
11.2494
10.3063
9.52973
76.5306
76.3547
76.0603
75.7643
75.4651
75.1765
74.9097
74.6714
74.4648
74.2908
74.1484
74.0355
73.949
73.8857
73.8421
73.8147
73.7996
73.7948
73.7949
73.8004
73.801
76.7214
76.7751
76.6553
76.3143
75.6913
74.725
73.3569
71.5396
69.2347
66.2935
62.5769
58.2858
53.5944
48.7302
44.0043
39.6223
35.6578
32.139
29.06
26.3918
24.1038
22.1543
20.4664
18.9774
17.6365
16.4076
15.264
14.1841
13.1502
12.1575
11.2012
10.2931
9.52363
8.86084
76.9123
76.7802
76.4888
76.1818
75.8576
75.5344
75.2276
74.9472
74.6988
74.4847
74.3051
74.1587
74.0428
73.9541
73.8892
73.8444
73.8163
73.8007
73.7953
73.7952
73.8004
73.8009
77.0589
77.0324
76.795
76.298
75.481
74.2822
72.6502
70.5405
67.8023
64.2684
60.1034
55.4629
50.5384
45.5655
40.8499
36.5687
32.767
29.4456
26.5773
24.1178
22.0303
20.2606
18.7278
17.375
16.1552
15.035
13.9896
12.9998
12.0482
11.1311
10.2434
9.51676
8.86792
8.16562
77.2806
77.2162
76.9438
76.6379
76.2962
75.9424
75.5968
75.2733
74.9803
74.7225
74.5016
74.3171
74.1671
74.0485
73.958
73.8919
73.8463
73.8176
73.8015
73.7958
73.7955
73.8004
73.8009
77.3619
77.2306
76.847
76.1655
75.1249
73.6692
71.7481
69.2095
65.8623
61.8431
57.2916
52.3726
47.2857
42.2769
37.6388
33.5138
29.9167
26.8215
24.1817
21.9402
20.0564
18.466
17.0858
15.8656
14.7626
13.7467
12.7952
11.891
11.0173
10.172
9.46644
8.86235
8.16605
7.4136
77.6169
77.6489
77.4155
77.1266
76.7781
76.4
76.0186
75.6523
75.3132
75.0087
74.7425
74.5155
74.3267
74.1735
74.0528
73.9609
73.8939
73.8478
73.8186
73.8022
73.7962
73.7957
73.8004
73.8008
77.6096
77.3457
76.7865
75.8899
74.5997
72.8585
70.5118
67.3508
63.4936
59.0668
54.2035
49.0714
43.8883
38.9102
34.4087
30.4872
27.1287
24.2815
21.8821
19.8634
18.1833
16.7698
15.5384
14.4461
13.4553
12.5392
11.677
10.8539
10.0539
9.39469
8.81322
8.15518
7.40652
6.58942
77.8993
78.0611
77.8912
77.6392
77.2981
76.905
76.493
76.086
75.7004
75.347
75.0321
74.7584
74.5261
74.3335
74.1779
74.0557
73.9629
73.8953
73.8488
73.8194
73.8027
73.7965
73.7958
73.8004
73.8008
77.7774
77.3524
76.5859
75.446
73.8741
71.7096
68.7324
65.0503
60.7799
56.0201
50.9002
45.6102
40.3913
35.505
31.1931
27.5149
24.4213
21.8372
19.6848
17.8901
16.4112
15.1702
14.0828
13.1133
12.2299
11.4086
10.631
9.8847
9.27289
8.74039
8.10608
7.39109
6.57937
5.69164
78.1023
78.4329
78.3549
78.1643
77.8487
77.4532
77.0185
76.575
76.1441
75.7409
75.3745
75.0505
74.7702
74.5334
74.3379
74.1805
74.0574
73.9641
73.8962
73.8494
73.8199
73.803
73.7967
73.796
73.8004
73.8008
77.8389
77.2221
76.2183
74.799
72.8055
70.0093
66.5118
62.4225
57.8072
52.7557
47.4217
42.0263
36.8312
32.0958
28.0209
24.6186
21.8094
19.4972
17.594
16.0213
14.7389
13.6648
12.7158
11.8639
11.0824
10.351
9.65351
9.0991
8.61583
8.03112
7.34046
6.56261
5.68037
4.71733
78.198
78.7407
78.7876
78.6875
78.4199
78.0382
77.5919
77.1184
76.6454
76.1926
75.7733
75.3956
75.0634
74.7776
74.5374
74.3399
74.1816
74.058
73.9645
73.8966
73.8498
73.8201
73.8032
73.7969
73.796
73.8004
73.8008
77.7646
76.9262
75.6455
73.8047
71.1842
67.8776
63.9862
59.547
54.6133
49.2995
43.7938
38.3488
33.24
28.7123
24.9165
21.816
19.3038
17.2677
15.6119
14.2565
13.1642
12.2506
11.4339
10.6938
10.0089
9.36265
8.86107
8.43798
7.90352
7.26232
6.51023
5.66319
4.70515
3.66006
78.1544
78.9591
79.1669
79.1913
78.9987
78.6513
78.2078
77.7137
77.2039
76.7037
76.231
75.7975
75.4098
75.0708
74.7809
74.5385
74.34
74.1814
74.0577
73.9643
73.8965
73.8498
73.8202
73.8035
73.7971
73.7961
73.8004
73.8008
77.5227
76.4239
74.722
72.262
69.1468
65.4636
61.2221
56.4456
51.211
45.6662
40.0376
34.6051
29.6467
25.381
21.9002
19.1207
16.9127
15.1519
13.7389
12.5941
11.6845
10.9242
10.2334
9.59919
9.00577
8.56139
8.19434
7.72112
7.13115
6.4286
5.60918
4.68707
3.64732
2.51278
77.9347
79.0599
79.4675
79.6551
79.5693
79.2809
78.8586
78.3567
77.8179
77.2744
76.7495
76.2592
75.8132
75.417
75.0731
74.7807
74.5371
74.3384
74.1799
74.0566
73.9635
73.8959
73.8495
73.8205
73.8038
73.7972
73.7961
73.8004
73.8008
77.0694
75.5677
73.2598
70.3211
66.8475
62.8176
58.2271
53.1209
47.6057
41.869
36.1747
30.8222
26.079
22.1248
18.9882
16.5426
14.6408
13.1513
11.9739
11.0316
10.2965
9.68174
9.11023
8.57616
8.19242
7.88713
7.47141
6.94365
6.29343
5.52425
4.63141
3.62808
2.49978
1.26835
77.489
79.0121
79.661
80.055
80.1125
79.9128
79.5343
79.0409
78.4841
77.9037
77.3296
76.7826
76.2766
75.8201
75.4179
75.0709
74.7773
74.5336
74.3353
74.1774
74.0547
73.9621
73.895
73.8497
73.8211
73.804
73.7972
73.7961
73.8004
73.8009
76.2534
74.187
71.4173
68.1351
64.3208
59.9366
54.997
49.5716
43.8036
37.9235
32.2293
27.0284
22.5627
18.9632
16.1932
14.0886
12.4906
11.2652
10.3146
9.5658
8.99643
8.5193
8.06049
7.74669
7.50799
7.15603
6.68728
6.10024
5.38477
4.54325
3.57076
2.47976
1.25522
-0.0808225
78.7734
76.6659
79.7145
80.3646
80.6064
80.5296
80.222
79.7575
79.197
78.589
77.9706
77.3689
76.8023
76.2831
75.8191
75.4132
75.0648
74.7712
74.5281
74.3308
74.1739
74.052
73.9602
73.895
73.8505
73.8213
73.804
73.7971
73.796
73.8004
73.801
74.9241
72.4429
69.3431
65.7255
61.5563
56.8121
51.5257
45.7979
39.8144
33.8497
28.2287
23.252
19.1217
15.9127
13.5244
11.7624
10.4622
9.49194
8.75809
8.19295
7.78016
7.43291
7.20936
7.0487
6.76588
6.36301
5.83659
5.18534
4.39913
3.47923
2.42053
1.23465
-0.0941055
-1.54279
79.5893
78.2006
75.3209
80.5516
81.0263
81.1109
80.9062
80.4953
79.9492
79.3259
78.6709
78.0181
77.3918
76.8088
76.2801
75.8114
75.4038
75.0554
74.7628
74.5211
74.3252
74.1694
74.0486
73.9599
73.8963
73.8509
73.8213
73.8038
73.797
73.7958
73.8004
73.801
73.2469
70.4775
67.0488
63.0759
58.5428
53.4351
47.8093
41.804
35.6523
29.6717
24.2026
19.5214
15.7775
12.9863
10.9879
9.56527
8.55439
7.82859
7.30051
6.90884
6.64367
6.5522
6.49319
6.29195
5.96092
5.50263
4.91376
4.19295
3.33005
2.32536
1.17334
-0.115312
-1.55621
-3.12586
80.5796
79.1643
77.1814
73.6444
81.3417
81.6339
81.5682
81.2404
80.7309
80.1081
79.4268
78.7291
78.0456
77.3986
76.8035
76.2688
75.7979
75.3903
75.0432
74.7524
74.5127
74.3183
74.1639
74.0478
73.9617
73.8969
73.8509
73.8211
73.8035
73.7968
73.7957
73.8004
73.8011
71.3577
68.2964
64.5136
60.1747
55.2706
49.7994
43.8472
37.5977
31.3366
25.4184
20.1824
15.8637
12.5488
10.1938
8.58706
7.49677
6.76444
6.2712
5.93755
5.70927
5.72262
5.81122
5.71676
5.47113
5.08759
4.56925
3.91278
3.11658
2.17067
1.07433
-0.178674
-1.57812
-3.13935
-4.83856
81.5202
80.3429
78.2973
75.843
71.7687
82.0701
82.1872
81.9759
81.5299
80.9273
80.2333
79.4991
78.763
78.0533
77.3909
76.7881
76.2504
75.7794
75.3734
75.0286
74.7403
74.5025
74.3101
74.1625
74.0503
73.9625
73.8969
73.8505
73.8205
73.8032
73.7965
73.7955
73.8004
73.8012
69.2573
65.8746
61.726
57.0119
51.7321
45.9008
39.6412
33.1916
26.8915
21.1217
16.2003
12.3038
9.45067
7.54179
6.32285
5.55487
5.08849
4.81534
4.6648
4.73754
4.94792
5.00796
4.87466
4.58066
4.14019
3.5568
2.8271
1.94935
0.913686
-0.281648
-1.64351
-3.16201
-4.85204
-6.68958
82.3911
81.4753
79.7028
77.1137
74.2938
69.6906
82.7364
82.6828
82.3311
81.7728
81.0832
80.324
79.5419
78.7728
78.0436
77.3711
76.7641
76.2261
75.7568
75.3536
75.012
74.726
74.4908
74.3077
74.1658
74.0513
73.9625
73.8963
73.8497
73.8202
73.803
73.7962
73.7952
73.8004
73.8014
66.9161
63.2018
58.677
53.5805
47.9219
41.7366
35.1963
28.6024
22.3463
16.8165
12.2878
8.86395
6.49478
5.03411
4.1945
3.73592
3.52196
3.45631
3.63428
3.92046
4.10816
4.13691
3.9612
3.61475
3.11259
2.45868
1.64981
0.683935
-0.448669
-1.75063
-3.2294
-4.8754
-6.70297
-8.68738
83.1919
82.5318
81.0674
78.7523
75.7251
72.5449
67.3738
83.3366
83.1173
82.6313
81.9675
81.1977
80.3792
79.5557
78.7615
78.019
77.3408
76.7328
76.1967
75.7307
75.3313
74.9926
74.7099
74.4871
74.3121
74.1672
74.0513
73.9617
73.895
73.8495
73.8202
73.8026
73.7958
73.7949
73.8004
73.8015
64.3247
60.2709
55.3613
49.875
43.8341
37.3048
30.5199
23.8524
17.7349
12.5395
8.47432
5.56225
3.68943
2.67219
2.19922
2.03549
2.05997
2.35639
2.76812
3.0349
3.19779
3.19228
2.97052
2.5672
1.99815
1.26794
0.373549
-0.68743
-1.92448
-3.34093
-4.94482
-6.72699
-8.7002
-10.8441
83.9171
83.5124
82.3493
80.3565
77.5977
74.1654
70.5601
64.8086
83.8662
83.4875
82.8744
82.1128
81.2698
80.3992
79.5438
78.7323
77.9819
77.3018
76.6955
76.1631
75.7017
75.3058
74.9709
74.7045
74.4928
74.3139
74.1672
74.0503
73.9599
73.895
73.8498
73.8199
73.8021
73.7953
73.7946
73.8004
73.8017
61.4786
57.0791
51.7744
45.8884
39.4618
32.6031
25.6233
18.9698
13.0962
8.32749
4.78634
2.41331
1.03973
0.454804
0.333016
0.448568
0.877011
1.43231
1.82966
2.07524
2.21091
2.16811
1.89633
1.43131
0.789868
-0.0227946
-1.00946
-2.17284
-3.52205
-5.06099
-6.79824
-8.72433
-10.8529
-13.5647
84.5608
84.4106
83.5511
81.8731
79.4386
76.2939
72.3969
68.3316
61.9912
84.3212
83.7908
83.0591
82.2073
81.2995
80.3884
79.5103
78.6879
77.9343
77.2556
76.6534
76.1262
75.6688
75.2773
74.9635
74.7119
74.4952
74.3139
74.1658
74.0478
73.9602
73.896
73.8498
73.8194
73.8015
73.7947
73.7941
73.8004
73.8019
58.3769
53.6243
47.9104
41.6117
34.7947
27.6293
20.5232
13.9899
8.4715
4.21546
1.24655
-0.572252
-1.4527
-1.62092
-1.40895
-0.835382
-0.116446
0.431477
0.813152
1.03548
1.14143
1.05802
0.731876
0.200058
-0.519653
-1.42133
-2.50731
-3.7806
-5.24986
-6.91923
-8.79754
-10.877
-13.5786
-16.8105
85.1178
85.2181
84.6668
83.3062
81.1875
78.3865
74.8047
70.4071
65.861
58.922
84.6983
84.0251
83.1834
82.2511
81.292
80.3515
79.4586
78.631
77.878
77.2035
76.6072
76.0844
75.6323
75.2673
74.9728
74.7148
74.4952
74.3121
74.1625
74.0486
73.9622
73.8965
73.8494
73.8186
73.8006
73.7941
73.7937
73.8004
73.8022
55.0204
49.9034
43.7608
37.0292
29.8185
22.3856
15.2447
8.95407
3.90395
0.23612
-2.12661
-3.38828
-3.78867
-3.55925
-2.81845
-1.91326
-1.19194
-0.652059
-0.287543
-0.0906327
-0.0171152
-0.144768
-0.529877
-1.13396
-1.93819
-2.93573
-4.12834
-5.51922
-7.11624
-8.92364
-10.9502
-13.6092
-16.8284
-20.1248
85.5841
85.9265
85.6867
84.6504
82.8486
80.3809
77.1668
73.114
68.1976
63.1555
55.6034
84.9949
84.188
83.2469
82.2501
81.2531
80.2927
79.3919
78.5637
77.8149
77.1467
76.5552
76.0383
75.6191
75.2791
74.9765
74.7148
74.4928
74.3077
74.164
74.0521
73.9636
73.8966
73.8488
73.8176
73.7996
73.7933
73.7931
73.8004
73.8025
51.4086
45.9103
39.3092
32.1205
24.524
16.8851
9.82445
3.91028
-0.563095
-3.58174
-5.32019
-6.03213
-5.97119
-5.12787
-4.0013
-3.07961
-2.35576
-1.82463
-1.4788
-1.30964
-1.27157
-1.44731
-1.89631
-2.57848
-3.47378
-4.57426
-5.881
-7.39702
-9.12932
-11.0812
-13.6884
-16.8616
-20.1375
-23.4431
85.9567
86.5289
86.6012
85.8949
84.4169
82.2815
79.4256
75.7584
71.2231
65.7776
60.2258
52.0368
85.2074
84.2785
83.2567
82.2113
81.1879
80.2158
79.3127
78.4882
77.746
77.0831
76.498
76.0215
75.6337
75.2836
74.9765
74.7119
74.4871
74.3101
74.1695
74.0548
73.9643
73.8962
73.8477
73.8163
73.7984
73.7923
73.7925
73.8004
73.8028
47.5385
41.6339
34.5322
26.8602
18.9
11.1491
4.31031
-1.08842
-4.88808
-7.21522
-8.32583
-8.50433
-7.7377
-6.44385
-5.28064
-4.3412
-3.61449
-3.09277
-2.76725
-2.62841
-2.62896
-2.85694
-3.37509
-4.14143
-5.13458
-6.34527
-7.77359
-9.42221
-11.2958
-13.8296
-16.9487
-20.1667
-23.454
-26.7485
86.2311
87.0196
87.4004
87.0288
85.8819
84.082
81.5859
78.2934
74.1614
69.1426
63.1631
57.0827
48.2214
85.3341
84.3046
83.2211
82.141
81.1009
80.124
79.2236
78.406
77.6692
77.0131
76.4768
76.0395
75.6392
75.2836
74.9728
74.7045
74.4909
74.3184
74.174
74.0566
73.9645
73.8953
73.8463
73.8146
73.7969
73.7912
73.7918
73.8004
73.8032
43.4024
37.0471
29.3871
21.2071
12.9325
5.20485
-1.24122
-5.98657
-9.03448
-10.647
-11.1398
-10.5058
-9.21884
-7.86651
-6.66376
-5.70485
-4.97478
-4.4632
-4.1598
-4.05395
-4.09652
-4.38117
-4.97397
-5.8308
-6.92877
-8.25692
-9.81421
-11.6014
-14.0572
-17.1021
-20.253
-23.4836
-26.7584
-30.0296
86.4043
87.392
88.0747
88.0409
87.2324
85.7713
83.6408
80.7253
76.9818
72.3863
66.8909
60.3729
53.7376
44.1565
85.3837
84.2764
83.1476
82.0446
80.9962
80.0206
79.1268
78.3145
77.5848
76.9869
76.4987
76.0461
75.6393
75.2791
74.9634
74.71
74.5027
74.3254
74.1775
74.0578
73.9641
73.8939
73.8444
73.8126
73.7952
73.79
73.791
73.8004
73.8037
38.9799
32.1082
23.8174
15.1166
6.62005
-0.904311
-6.76538
-10.73
-12.9715
-13.8662
-13.4188
-12.183
-10.8189
-9.40359
-8.15769
-7.17733
-6.44346
-5.94283
-5.66337
-5.59333
-5.6816
-6.02755
-6.70068
-7.6545
-8.86424
-10.3171
-12.0094
-14.3794
-17.346
-20.4111
-23.5709
-26.7894
-30.0385
-33.2661
86.4859
87.6407
88.6116
88.9198
88.4569
87.3378
85.5777
83.0476
79.692
75.5001
70.4522
64.4909
57.4267
50.2043
39.8329
85.3682
84.2026
83.0429
81.9269
80.8775
79.9078
79.019
78.2138
77.5529
77.0134
76.5067
76.0461
75.6337
75.2673
74.971
74.7263
74.513
74.331
74.18
74.058
73.9629
73.8918
73.842
73.8103
73.7931
73.7885
73.7902
73.8005
73.8042
34.2409
26.7644
17.7577
8.55121
-0.0184947
-7.11345
-12.1918
-15.2673
-16.6757
-16.4751
-15.3272
-13.9934
-12.5461
-11.0623
-9.76926
-8.76546
-8.02735
-7.53846
-7.28485
-7.25363
-7.39142
-7.80346
-8.56277
-9.62005
-10.9484
-12.532
-14.8072
-17.6879
-20.6656
-23.7346
-26.8787
-30.0701
-33.2739
-36.436
86.49
87.777
88.9979
89.6491
89.543
88.769
87.3835
85.2481
82.2873
78.4929
73.8673
68.3839
61.9672
54.3439
46.4912
35.2305
85.2982
84.0914
82.9126
81.7925
80.7478
79.7823
78.9003
78.1754
77.5846
77.0228
76.5067
76.0394
75.6191
75.2775
74.993
74.7407
74.5214
74.3354
74.1814
74.0574
73.9609
73.8891
73.8391
73.8075
73.7908
73.787
73.7894
73.8005
73.8047
29.1397
20.9354
11.1237
1.48693
-6.94096
-13.3394
-17.4472
-19.5538
-19.6812
-18.6581
-17.3851
-15.9454
-14.4074
-12.8491
-11.5051
-10.4759
-9.73305
-9.25671
-9.03099
-9.04166
-9.2329
-9.71597
-10.5673
-11.7344
-13.187
-15.3531
-18.1376
-21.0216
-23.9986
-27.0491
-30.1606
-33.3059
-36.4425
-39.5175
86.4291
87.818
89.2415
90.2077
90.4702
90.0527
89.043
87.3133
84.7572
81.3626
77.1451
72.1086
66.2085
59.3443
51.1452
42.6003
30.3195
85.1832
83.9496
82.7623
81.6449
80.6032
79.6439
78.8547
78.2132
77.5957
77.0228
76.4987
76.0214
75.6325
75.3063
75.0124
74.7528
74.5284
74.3385
74.1816
74.0556
73.958
73.8857
73.8355
73.8043
73.7883
73.7853
73.7885
73.8005
73.8052
23.6049
14.4981
3.81668
-6.08552
-14.074
-19.4819
-22.4568
-23.0364
-22.1929
-21.009
-19.6003
-18.045
-16.4086
-14.7702
-13.3713
-12.3148
-11.5667
-11.1039
-10.9081
-10.9637
-11.2124
-11.7714
-12.7204
-14.0026
-16.0357
-18.7075
-21.4871
-24.3656
-27.3227
-30.3369
-33.3971
-36.4746
-39.5227
-42.4894
86.3144
87.7794
89.3615
90.5993
91.2105
91.1668
90.5412
89.227
87.0898
84.102
80.2878
75.6733
70.2525
63.9537
56.6474
47.8536
38.5356
25.0596
85.0316
83.7837
82.5963
81.48
80.4434
79.5904
78.8993
78.2261
77.5957
77.0134
76.4767
76.0386
75.6694
75.332
75.0291
74.7631
74.5338
74.3401
74.1805
74.0527
73.954
73.8814
73.8314
73.8007
73.7857
73.7836
73.7876
73.8006
73.8058
17.5251
7.26701
-4.28004
-14.133
-21.3154
-25.406
-26.5485
-25.9417
-24.8915
-23.5342
-21.9772
-20.2965
-18.5546
-16.8308
-15.3733
-14.2875
-13.534
-13.0855
-12.9216
-13.0254
-13.3356
-13.9752
-15.0263
-16.8852
-19.4172
-22.0739
-24.8419
-27.6986
-30.6177
-33.5778
-36.5658
-39.5546
-42.4933
-45.3309
86.1557
87.6748
89.3769
90.8415
91.7635
92.0781
91.8519
90.9712
89.2697
86.7022
83.2923
79.086
74.1058
68.3282
61.6475
53.9044
44.4922
34.2993
19.3929
84.851
83.5991
82.4101
81.2973
80.3812
79.6427
78.9144
78.2261
77.5846
76.9868
76.4983
76.0852
75.7026
75.3543
75.0437
74.7715
74.5372
74.3399
74.1778
74.0485
73.949
73.8762
73.8267
73.7969
73.7828
73.7818
73.7867
73.8007
73.8065
10.712
-1.072
-13.2051
-22.6172
-28.4248
-30.2721
-29.9622
-29.0565
-27.779
-26.2345
-24.5175
-22.7025
-20.8484
-19.0344
-17.5151
-16.3984
-15.6392
-15.2061
-15.0762
-15.231
-15.6065
-16.3305
-17.9521
-20.2996
-22.8023
-25.439
-28.1819
-30.9989
-33.8629
-36.7493
-39.6451
-42.5245
-45.3332
-48.0216
85.9623
87.5164
89.3051
90.9523
92.1471
92.7839
92.9345
92.514
91.2786
89.1502
86.1543
82.3486
77.7849
72.4721
66.3651
59.3191
51.1431
41.0826
29.9044
13.2554
84.648
83.391
82.2031
81.2257
80.4423
79.6601
78.9144
78.2131
77.5527
77.0135
76.5562
76.1273
75.7316
75.3741
75.0559
74.7775
74.5385
74.3378
74.1734
74.0428
73.9428
73.8703
73.8216
73.7929
73.7799
73.7799
73.7858
73.8007
73.8072
2.81741
-10.8607
-23.1156
-31.1054
-34.3274
-34.3251
-33.6085
-32.3816
-30.8501
-29.1058
-27.2195
-25.2628
-23.2911
-21.3829
-19.7992
-18.6505
-17.8856
-17.4689
-17.375
-17.5836
-18.0272
-19.3125
-21.4079
-23.7075
-26.1781
-28.7835
-31.4839
-34.2449
-37.0355
-39.8294
-42.6135
-45.3634
-48.0228
-50.5429
85.7419
87.3153
89.1624
90.9494
92.3793
93.3032
93.7846
93.803
93.0801
91.4298
88.865
85.4625
81.2972
76.4137
70.8018
64.3928
56.9951
48.3932
37.6613
25.411
6.57137
84.4175
83.1587
82.1214
81.2966
80.4622
79.6601
78.8993
78.1752
77.5853
77.0843
76.6085
76.1643
75.7577
75.3909
75.0651
74.7807
74.5373
74.3335
74.1671
74.0355
73.9355
73.8638
73.8162
73.7886
73.7768
73.778
73.7849
73.8008
73.8079
-6.73309
-23.2811
-33.1924
-38.4356
-39.1861
-38.6125
-37.4695
-35.9031
-34.0949
-32.139
-30.0776
-27.9736
-25.8806
-23.8758
-22.226
-21.0446
-20.2743
-19.8752
-19.819
-20.0832
-21.0835
-22.8223
-24.8452
-27.0968
-29.5262
-32.084
-34.7262
-37.4141
-40.1132
-42.7961
-45.4498
-48.0511
-50.5427
-52.878
85.4897
87.0804
88.9634
90.8505
92.4777
93.6547
94.4244
94.8263
94.6107
93.5029
91.4118
88.4243
84.6508
80.1667
75.0016
69.1239
62.4366
54.7044
45.7001
34.2765
20.931
-0.733961
84.1589
83.0663
82.2032
81.3193
80.4622
79.6427
78.8545
78.2144
77.6707
77.1483
76.6549
76.1978
75.7802
75.4042
75.071
74.7809
74.5333
74.3266
74.1587
74.0267
73.9274
73.8567
73.8104
73.7841
73.7737
73.7761
73.7839
73.8009
73.8087
-20.4228
-36.8748
-43.2069
-44.5805
-44.2838
-43.0829
-41.4979
-39.5923
-37.4983
-35.3199
-33.081
-30.8275
-28.6114
-26.5093
-24.7931
-23.5793
-22.8044
-22.424
-22.4065
-23.2284
-24.6645
-26.2987
-28.2526
-30.4495
-32.8232
-35.3185
-37.8864