/*--------------------------------*- C++ -*----------------------------------*\
  =========                 |
  \\      /  F ield         | OpenFOAM: The Open Source CFD Toolbox
   \\    /   O peration     | Website:  https://openfoam.org
    \\  /    A nd           | Version:  8
     \\/     M anipulation  |
\*---------------------------------------------------------------------------*/
FoamFile
{
    version     2.0;
    format      ascii;
    class       surfaceScalarField;
    location    "0.43";
    object      phi;
}
// * * * * * * * * * * * * * * * * * * * * * * * * * * * * * * * * * * * * * //

dimensions      [0 3 -1 0 0 0 0];

internalField   nonuniform List<scalar> 
31053
(
6.40464e-07
1.27395e-05
8.63774e-07
1.51567e-05
3.5817e-07
1.23814e-05
9.49717e-07
1.75541e-05
5.69207e-07
1.49457e-05
2.76318e-07
1.2105e-05
9.74728e-07
2.0215e-05
6.84881e-07
1.74384e-05
4.73448e-07
1.47485e-05
2.18071e-07
1.1887e-05
9.66472e-07
2.32483e-05
7.44643e-07
2.01552e-05
6.00833e-07
1.7311e-05
4.00015e-07
1.45666e-05
1.73868e-07
1.17131e-05
9.36908e-07
2.66896e-05
7.70859e-07
2.3222e-05
6.77616e-07
2.00784e-05
5.29274e-07
1.71817e-05
3.36416e-07
1.4404e-05
1.3972e-07
1.15734e-05
8.91801e-07
3.06651e-05
7.75344e-07
2.66851e-05
7.2157e-07
2.31781e-05
6.12469e-07
1.99952e-05
4.60832e-07
1.70573e-05
2.82587e-07
1.42612e-05
1.12838e-07
1.14606e-05
8.34158e-07
3.51976e-05
7.64603e-07
3.06758e-05
7.43679e-07
2.6663e-05
6.63183e-07
2.31274e-05
5.44447e-07
1.99116e-05
3.98169e-07
1.69417e-05
2.35963e-07
1.4138e-05
9.05682e-08
1.137e-05
7.67789e-07
4.03864e-05
7.42929e-07
3.52193e-05
7.50505e-07
3.0669e-05
6.91534e-07
2.66346e-05
5.9638e-07
2.30754e-05
4.78368e-07
1.98314e-05
3.40008e-07
1.68377e-05
1.94275e-07
1.40343e-05
7.11241e-08
1.12989e-05
6.95642e-07
4.63521e-05
7.11518e-07
4.04178e-05
7.46082e-07
3.52237e-05
7.03572e-07
3.0657e-05
6.25688e-07
2.66053e-05
5.28109e-07
2.30257e-05
4.13725e-07
1.97577e-05
2.8485e-07
1.67471e-05
1.55803e-07
1.39497e-05
5.33844e-08
1.12455e-05
6.19405e-07
5.32162e-05
6.71626e-07
4.6392e-05
7.30737e-07
4.04331e-05
7.02219e-07
3.52251e-05
6.38328e-07
3.06443e-05
5.55069e-07
2.65784e-05
4.58486e-07
2.29809e-05
3.49604e-07
1.9693e-05
2.31427e-07
1.66715e-05
1.19309e-07
1.38837e-05
3.65799e-08
1.12089e-05
5.40854e-07
6.10586e-05
6.25277e-07
5.32626e-05
7.04507e-07
4.64183e-05
6.9041e-07
4.04449e-05
6.37701e-07
3.52257e-05
5.65062e-07
3.06343e-05
4.80416e-07
2.65564e-05
3.87028e-07
2.29435e-05
2.85043e-07
1.96394e-05
1.78727e-07
1.66121e-05
8.38694e-08
1.38364e-05
2.02034e-08
1.11887e-05
4.6156e-07
7.00613e-05
5.74167e-07
6.11097e-05
6.6866e-07
5.32984e-05
6.69439e-07
4.64392e-05
6.26142e-07
4.04565e-05
5.61616e-07
3.52292e-05
4.84948e-07
3.06298e-05
4.016e-07
2.65418e-05
3.12893e-07
2.29157e-05
2.19155e-07
1.95989e-05
1.2599e-07
1.657e-05
4.88066e-08
1.38078e-05
4.04958e-09
1.11846e-05
3.83412e-07
8.04101e-05
5.19897e-07
7.01156e-05
6.24654e-07
6.11537e-05
6.39281e-07
5.33286e-05
6.04954e-07
4.64604e-05
5.46788e-07
4.04713e-05
4.75531e-07
3.52386e-05
3.98183e-07
3.06332e-05
3.17847e-07
2.65369e-05
2.35231e-07
2.28996e-05
1.51324e-07
1.95736e-05
7.26182e-08
1.65461e-05
1.3725e-08
1.37982e-05
-1.20637e-08
1.11967e-05
3.20876e-07
7.62525e-05
4.637e-07
8.04663e-05
5.74145e-07
7.01661e-05
6.00299e-07
6.11926e-05
5.7449e-07
5.33591e-05
5.21685e-07
4.64855e-05
4.54105e-07
4.04927e-05
3.80047e-07
3.52567e-05
3.04074e-07
3.0647e-05
2.28305e-07
2.65438e-05
1.53459e-07
2.28975e-05
8.10483e-08
1.95652e-05
1.82554e-08
1.65416e-05
-2.15743e-08
1.38077e-05
-2.83106e-08
1.1225e-05
2.68257e-07
7.62426e-05
4.1566e-07
7.63006e-05
5.18788e-07
8.05217e-05
5.53308e-07
7.02131e-05
5.34892e-07
6.12322e-05
4.86762e-07
5.3394e-05
4.2164e-07
4.6518e-05
3.49016e-07
4.05238e-05
2.74577e-07
3.52862e-05
2.01763e-07
3.06735e-05
1.32375e-07
2.65649e-05
6.71008e-08
2.29114e-05
8.1136e-09
1.95753e-05
-3.72127e-08
1.65573e-05
-5.72315e-08
1.38366e-05
-4.47078e-08
1.12697e-05
2.24347e-07
7.62339e-05
3.72398e-07
7.62859e-05
4.69899e-07
7.63495e-05
4.99549e-07
8.05755e-05
4.8652e-07
7.02614e-05
4.42178e-07
6.12768e-05
3.78533e-07
5.34371e-05
3.05933e-07
4.65611e-05
2.31015e-07
4.05673e-05
1.58264e-07
3.53297e-05
9.06259e-08
3.07153e-05
2.95928e-08
2.66024e-05
-2.39554e-08
2.29435e-05
-6.74357e-08
1.96055e-05
-9.3761e-08
1.65938e-05
-9.31783e-08
1.38851e-05
-6.10944e-08
1.13308e-05
1.88141e-07
7.62282e-05
3.33516e-07
7.62728e-05
4.24657e-07
7.63311e-05
4.50523e-07
7.63985e-05
4.30273e-07
8.06317e-05
3.8814e-07
7.03155e-05
3.24944e-07
6.13304e-05
2.51085e-07
5.34919e-05
1.74082e-07
4.6618e-05
9.92454e-08
4.06264e-05
3.04508e-08
3.53899e-05
-2.9797e-08
3.07747e-05
-8.01012e-08
2.66586e-05
-1.19513e-07
2.29955e-05
-1.45352e-07
1.96571e-05
-1.51109e-07
1.66517e-05
-1.29151e-07
1.39531e-05
-7.73431e-08
1.14082e-05
1.58553e-07
7.62196e-05
2.98558e-07
7.62632e-05
3.82979e-07
7.63145e-05
4.04185e-07
7.63775e-05
3.78394e-07
7.64504e-05
3.25353e-07
8.06945e-05
2.61062e-07
7.03794e-05
1.8459e-07
6.13969e-05
1.03929e-07
5.35621e-05
2.5203e-08
4.66921e-05
-4.70036e-08
4.07038e-05
-1.09323e-07
3.54694e-05
-1.59525e-07
3.08541e-05
-1.9638e-07
2.67354e-05
-2.19102e-07
2.30693e-05
-2.25065e-07
1.97311e-05
-2.08762e-07
1.67313e-05
-1.64802e-07
1.40406e-05
-9.31984e-08
1.15014e-05
1.3433e-07
7.62142e-05
2.6719e-07
7.6251e-05
3.44702e-07
7.63014e-05
3.60873e-07
7.63578e-05
3.29093e-07
7.64268e-05
2.67373e-07
7.65083e-05
1.87559e-07
8.0768e-05
1.06649e-07
7.04573e-05
2.06101e-08
6.14802e-05
-6.38742e-08
5.36512e-05
-1.41485e-07
4.67865e-05
-2.08188e-07
4.08027e-05
-2.61034e-07
3.55709e-05
-2.98087e-07
3.09558e-05
-3.18557e-07
2.68349e-05
-3.21852e-07
2.31661e-05
-3.05731e-07
1.9828e-05
-2.66083e-07
1.68326e-05
-1.99659e-07
1.4147e-05
-1.08479e-07
1.16098e-05
1.14401e-07
7.62099e-05
2.39229e-07
7.62422e-05
3.09731e-07
7.62859e-05
3.20726e-07
7.63416e-05
2.83001e-07
7.64039e-05
2.12316e-07
7.64818e-05
1.2004e-07
7.65759e-05
1.80157e-08
8.08566e-05
-7.5659e-08
7.05536e-05
-1.68018e-07
6.15844e-05
-2.53207e-07
5.37629e-05
-3.26438e-07
4.69048e-05
-3.84243e-07
4.09259e-05
-4.24044e-07
3.56969e-05
-4.44588e-07
3.10818e-05
-4.45464e-07
2.69585e-05
-4.26523e-07
2.32869e-05
-3.86341e-07
1.99483e-05
-3.22294e-07
1.69552e-05
-2.33233e-07
1.42718e-05
-1.22861e-07
1.17327e-05
9.9249e-08
6.95972e-05
2.14453e-07
7.62347e-05
2.78065e-07
7.62739e-05
2.83836e-07
7.63228e-05
2.4047e-07
7.63841e-05
1.61064e-07
7.64551e-05
5.6219e-08
7.65456e-05
-6.27859e-08
7.66567e-05
-1.83978e-07
8.09649e-05
-2.86998e-07
7.06725e-05
-3.82313e-07
6.17135e-05
-4.64539e-07
5.3901e-05
-5.29558e-07
4.70501e-05
-5.7435e-07
4.10762e-05
-5.97251e-07
3.58495e-05
-5.97551e-07
3.12339e-05
-5.75455e-07
2.71074e-05
-5.31693e-07
2.34322e-05
-4.65713e-07
2.00917e-05
-3.76544e-07
1.70986e-05
-2.64921e-07
1.44139e-05
-1.36163e-07
1.18689e-05
8.76963e-08
6.25556e-05
1.94368e-07
6.96172e-05
2.49667e-07
7.62631e-05
2.50287e-07
7.63074e-05
2.01714e-07
7.63616e-05
1.14167e-07
7.6431e-05
-2.80699e-09
7.65142e-05
-1.38703e-07
7.66216e-05
-2.82001e-07
7.67547e-05
-4.19726e-07
8.10977e-05
-5.28566e-07
7.08188e-05
-6.22774e-07
6.18717e-05
-6.97748e-07
5.40692e-05
-7.49835e-07
4.72256e-05
-7.77191e-07
4.12561e-05
-7.78849e-07
3.60308e-05
-7.54909e-07
3.14134e-05
-7.06675e-07
2.72824e-05
-6.35697e-07
2.36022e-05
-5.42564e-07
2.02577e-05
-4.27875e-07
1.72615e-05
-2.94242e-07
1.45719e-05
-1.47936e-07
1.20168e-05
7.87324e-08
5.6227e-05
1.78219e-07
6.25717e-05
2.26476e-07
6.96404e-05
2.20136e-07
7.62933e-05
1.66875e-07
7.63422e-05
7.19741e-08
7.64038e-05
-5.62923e-08
7.64845e-05
-2.08445e-07
7.65839e-05
-3.73569e-07
7.67131e-05
-5.39097e-07
7.68741e-05
-6.90657e-07
8.12598e-05
-8.00922e-07
7.09969e-05
-8.89285e-07
6.20633e-05
-9.51637e-07
5.4271e-05
-9.85731e-07
4.74341e-05
-9.90607e-07
4.14679e-05
-9.66318e-07
3.62423e-05
-9.14344e-07
3.16211e-05
-8.36935e-07
2.74836e-05
-7.36767e-07
2.37964e-05
-6.15495e-07
2.04454e-05
-4.7545e-07
1.74427e-05
-3.20272e-07
1.47443e-05
-1.57417e-07
1.21742e-05
7.167e-08
5.05391e-05
1.6512e-07
5.62401e-05
2.07779e-07
6.25904e-05
1.9556e-07
6.9665e-05
1.36065e-07
7.63241e-05
3.47146e-08
7.63795e-05
-1.03729e-07
7.64512e-05
-2.71066e-07
7.65471e-05
-4.57192e-07
7.66675e-05
-6.50073e-07
7.68241e-05
-8.35755e-07
7.70192e-05
-9.9744e-07
8.14563e-05
-1.10399e-06
7.12117e-05
-1.18047e-06
6.22921e-05
-1.22444e-06
5.45097e-05
-1.2347e-06
4.76782e-05
-1.21158e-06
4.17132e-05
-1.15685e-06
3.64848e-05
-1.07312e-06
3.18572e-05
-9.63956e-07
2.77108e-05
-8.32995e-07
2.40139e-05
-6.83257e-07
2.06532e-05
-5.17899e-07
1.76403e-05
-3.42357e-07
1.49292e-05
-1.64632e-07
1.23388e-05
6.60306e-08
4.54256e-05
1.54413e-07
5.05498e-05
1.92635e-07
5.62552e-05
1.7589e-07
6.26101e-05
1.11531e-07
6.96895e-05
2.55182e-09
7.63562e-05
-1.44774e-07
7.64205e-05
-3.25884e-07
7.6506e-05
-5.31717e-07
7.66216e-05
-7.50947e-07
7.67684e-05
-9.70163e-07
7.69585e-05
-1.17278e-06
7.71945e-05
-1.34011e-06
8.16924e-05
-1.43624e-06
7.14674e-05
-1.49433e-06
6.2562e-05
-1.51321e-06
5.47882e-05
-1.49321e-06
4.79598e-05
-1.43679e-06
4.19931e-05
-1.34713e-06
3.67588e-05
-1.22842e-06
3.21217e-05
-1.08526e-06
2.79631e-05
-9.22646e-07
2.42533e-05
-7.44032e-07
2.08793e-05
-5.5445e-07
1.78524e-05
-3.57104e-07
1.51217e-05
-1.30878e-07
1.24697e-05
6.14729e-08
4.08306e-05
1.45602e-07
4.54345e-05
1.80289e-07
5.05621e-05
1.60174e-07
5.62709e-05
9.23872e-08
6.26292e-05
-2.22648e-08
6.97144e-05
-1.7919e-07
7.63906e-05
-3.72419e-07
7.64671e-05
-5.96266e-07
7.65706e-05
-8.40335e-07
7.6711e-05
-1.09192e-06
7.68902e-05
-1.33483e-06
7.71206e-05
-1.55037e-06
7.74048e-05
-1.717e-06
8.19732e-05
-1.79548e-06
7.17686e-05
-1.82753e-06
6.28763e-05
-1.81385e-06
5.51088e-05
-1.75737e-06
4.82804e-05
-1.66229e-06
4.23083e-05
-1.53372e-06
3.70641e-05
-1.37712e-06
3.24136e-05
-1.19857e-06
2.8239e-05
-1.00346e-06
2.45127e-05
-7.96634e-07
2.11215e-05
-5.80203e-07
1.80755e-05
-3.48918e-07
1.53397e-05
-8.06322e-08
1.25504e-05
5.77501e-08
3.66997e-05
1.38302e-07
4.08379e-05
1.70159e-07
4.54446e-05
1.47591e-07
5.05747e-05
7.74897e-08
5.62858e-05
-4.08313e-08
6.26478e-05
-2.04693e-07
6.97399e-05
-4.10336e-07
7.64286e-05
-6.502e-07
7.6521e-05
-9.17144e-07
7.66474e-05
-1.1994e-06
7.68185e-05
-1.48133e-06
7.70367e-05
-1.74445e-06
7.73146e-05
-1.9668e-06
7.76546e-05
-2.1258e-06
8.23035e-05
-2.178e-06
7.2119e-05
-2.1754e-06
6.32378e-05
-2.1219e-06
5.54734e-05
-2.02253e-06
4.86407e-05
-1.88394e-06
4.26585e-05
-1.71282e-06
3.73998e-05
-1.51638e-06
3.27314e-05
-1.30118e-06
2.85368e-05
-1.07373e-06
2.47898e-05
-8.36319e-07
2.13776e-05
-5.88245e-07
1.83149e-05
-3.21875e-07
1.5581e-05
-5.9507e-08
1.26099e-05
5.46794e-08
3.29891e-05
1.32218e-07
3.67058e-05
1.61801e-07
4.08462e-05
1.37488e-07
4.54547e-05
6.59666e-08
5.05862e-05
-5.45019e-08
5.62995e-05
-2.2273e-07
6.26658e-05
-4.37245e-07
6.97668e-05
-6.93057e-07
7.64714e-05
-9.80542e-07
7.65844e-05
-1.29125e-06
7.67392e-05
-1.61036e-06
7.69475e-05
-1.91978e-06
7.7212e-05
-2.19736e-06
7.75452e-05
-2.41976e-06
7.79485e-05
-2.56247e-06
8.2688e-05
-2.57852e-06
7.25222e-05
-2.53279e-06
6.36487e-05
-2.43187e-06
5.58827e-05
-2.2838e-06
4.90405e-05
-2.09724e-06
4.30429e-05
-1.88102e-06
3.77644e-05
-1.64305e-06
3.30732e-05
-1.3909e-06
2.88539e-05
-1.12927e-06
2.50828e-05
-8.58443e-07
2.16478e-05
-5.83357e-07
1.85763e-05
-2.97578e-07
1.5819e-05
-5.3506e-08
1.26634e-05
5.21248e-08
2.96506e-05
1.27117e-07
3.29942e-05
1.54868e-07
3.67127e-05
1.29352e-07
4.08544e-05
5.71156e-08
4.54635e-05
-6.43536e-08
5.05961e-05
-2.3498e-07
5.63117e-05
-4.55059e-07
6.26836e-05
-7.2225e-07
6.9796e-05
-1.02992e-06
7.65208e-05
-1.36642e-06
7.66596e-05
-1.72027e-06
7.68491e-05
-2.07408e-06
7.71018e-05
-2.40573e-06
7.74203e-05
-2.6913e-06
7.78167e-05
-2.90501e-06
7.82911e-05
-3.02112e-06
8.31306e-05
-2.99118e-06
7.29806e-05
-2.8934e-06
6.41103e-05
-2.73813e-06
5.6337e-05
-2.53593e-06
4.94792e-05
-2.29818e-06
4.34601e-05
-2.03468e-06
3.8156e-05
-1.75446e-06
3.34368e-05
-1.46405e-06
2.91887e-05
-1.16645e-06
2.53908e-05
-8.68308e-07
2.19327e-05
-5.7479e-07
1.88536e-05
-2.84097e-07
1.60496e-05
-5.73043e-08
1.27207e-05
4.99827e-08
2.66501e-05
1.22816e-07
2.96549e-05
1.49088e-07
3.3e-05
1.22784e-07
3.67193e-05
5.03642e-08
4.08611e-05
-7.1251e-08
4.54704e-05
-2.42799e-07
5.06039e-05
-4.659e-07
5.63226e-05
-7.40268e-07
6.27016e-05
-1.06238e-06
6.98284e-05
-1.4241e-06
7.65785e-05
-1.80976e-06
7.67491e-05
-2.20539e-06
7.69805e-05
-2.58922e-06
7.72853e-05
-2.93704e-06
7.76661e-05
-3.22194e-06
7.81337e-05
-3.41611e-06
7.86861e-05
-3.49524e-06
8.36346e-05
-3.40891e-06
7.34961e-05
-3.25083e-06
6.4623e-05
-3.03463e-06
5.68357e-05
-2.77425e-06
4.99553e-05
-2.48254e-06
4.39079e-05
-2.17068e-06
3.85723e-05
-1.84732e-06
3.38201e-05
-1.51776e-06
2.954e-05
-1.18989e-06
2.57124e-05
-8.73124e-07
2.22311e-05
-5.68098e-07
1.91376e-05
-2.79917e-07
1.62722e-05
-7.93431e-08
1.28e-05
4.81735e-08
2.39558e-05
1.19172e-07
2.66538e-05
1.44245e-07
2.96597e-05
1.17468e-07
3.30053e-05
4.5255e-08
3.67244e-05
-7.58855e-08
4.08657e-05
-2.47267e-07
4.54749e-05
-4.71479e-07
5.06095e-05
-7.49785e-07
5.63321e-05
-1.08111e-06
6.27204e-05
-1.461e-06
6.98653e-05
-1.87778e-06
7.66465e-05
-2.31208e-06
7.68558e-05
-2.7455e-06
7.71367e-05
-3.1539e-06
7.75022e-05
-3.50942e-06
7.79536e-05
-3.7825e-06
7.85001e-05
-3.9462e-06
7.9137e-05
-3.97702e-06
8.42027e-05
-3.82447e-06
7.40697e-05
-3.5981e-06
6.51864e-05
-3.3159e-06
5.73774e-05
-2.99388e-06
5.04666e-05
-2.64674e-06
4.4384e-05
-2.2859e-06
3.90108e-05
-1.91928e-06
3.42216e-05
-1.55563e-06
2.99058e-05
-1.20586e-06
2.60451e-05
-8.76231e-07
2.25392e-05
-5.64452e-07
1.94221e-05
-3.45804e-07
1.65387e-05
-8.79184e-08
1.28879e-05
4.66358e-08
2.15335e-05
1.16069e-07
2.39589e-05
1.4017e-07
2.66579e-05
1.13156e-07
2.9664e-05
4.1424e-08
3.30091e-05
-7.88038e-08
3.67273e-05
-2.49239e-07
4.08677e-05
-4.73151e-07
4.54766e-05
-7.52951e-07
5.06126e-05
-1.08943e-06
5.63404e-05
-1.48106e-06
6.27404e-05
-1.92049e-06
6.9908e-05
-2.39283e-06
7.67272e-05
-2.87256e-06
7.69828e-05
-3.33905e-06
7.73219e-05
-3.76388e-06
7.77566e-05
-4.11593e-06
7.8287e-05
-4.36583e-06
7.89197e-05
-4.48684e-06
7.96468e-05
-4.45831e-06
8.48366e-05
-4.22982e-06
7.47014e-05
-3.92885e-06
6.57994e-05
-3.57632e-06
5.79598e-05
-3.19072e-06
5.10106e-05
-2.78764e-06
4.48857e-05
-2.37829e-06
3.94699e-05
-1.97293e-06
3.46389e-05
-1.58282e-06
3.02827e-05
-1.2171e-06
2.6386e-05
-8.77945e-07
2.28527e-05
-6.94197e-07
1.97705e-05
-3.4533e-07
1.67961e-05
-9.70696e-08
1.2985e-05
4.53215e-08
1.93533e-05
1.13414e-07
2.15362e-05
1.36725e-07
2.39624e-05
1.09649e-07
2.66614e-05
3.8585e-08
2.96668e-05
-8.04355e-08
3.30107e-05
-2.49381e-07
3.67275e-05
-4.71983e-07
4.08665e-05
-7.51471e-07
4.54751e-05
-1.09003e-06
5.06132e-05
-1.48841e-06
5.63478e-05
-1.94271e-06
6.27627e-05
-2.44303e-06
6.99582e-05
-2.96875e-06
7.68234e-05
-3.49007e-06
7.71338e-05
-3.982e-06
7.754e-05
-4.41225e-06
7.8053e-05
-4.74924e-06
7.86704e-05
-4.96302e-06
7.93959e-05
-5.02912e-06
8.02176e-05
-4.92996e-06
8.55367e-05
-4.61768e-06
7.53903e-05
-4.23663e-06
6.64597e-05
-3.81117e-06
5.85803e-05
-3.36142e-06
5.15844e-05
-2.90326e-06
4.54107e-05
-2.44951e-06
3.99464e-05
-2.01234e-06
3.50684e-05
-1.60169e-06
3.06673e-05
-1.22374e-06
2.67318e-05
-1.08361e-06
2.32421e-05
-6.85613e-07
2.01108e-05
-3.45163e-07
1.70442e-05
-1.04152e-07
1.30892e-05
1.73971e-05
4.41925e-08
1.11133e-07
1.93556e-05
1.338e-07
2.15391e-05
1.06789e-07
2.39652e-05
3.65118e-08
2.66634e-05
-8.11145e-08
2.96675e-05
-2.48213e-07
3.30096e-05
-4.68802e-07
3.67243e-05
-7.46677e-07
4.08617e-05
-1.08505e-06
4.54701e-05
-1.48637e-06
5.06112e-05
-1.94947e-06
5.63545e-05
-2.4685e-06
6.27881e-05
-3.02847e-06
7.0018e-05
-3.60486e-06
7.69382e-05
-4.16084e-06
7.73127e-05
-4.6676e-06
7.77953e-05
-5.09172e-06
7.83954e-05
-5.40014e-06
7.91075e-05
-5.56456e-06
7.99313e-05
-5.563e-06
8.08507e-05
-5.38369e-06
8.63027e-05
-4.98061e-06
7.61342e-05
-4.51598e-06
6.71645e-05
-4.01674e-06
5.92356e-05
-3.50382e-06
5.21849e-05
-2.99439e-06
4.59556e-05
-2.5026e-06
4.04367e-05
-2.03946e-06
3.55062e-05
-1.61254e-06
3.10561e-05
-1.51356e-06
2.71617e-05
-1.07013e-06
2.36266e-05
-6.74746e-07
2.04403e-05
-3.42915e-07
1.7283e-05
-1.08806e-07
1.3198e-05
1.73991e-05
1.09164e-07
2.7812e-05
4.21724e-08
1.31307e-07
1.93581e-05
1.0445e-07
2.15415e-05
3.50277e-08
2.39667e-05
-8.11e-08
2.66634e-05
-2.46132e-07
2.96654e-05
-4.64245e-07
3.3005e-05
-7.39603e-07
3.67172e-05
-1.07613e-06
4.08528e-05
-1.47757e-06
4.54613e-05
-1.94484e-06
5.06066e-05
-2.47528e-06
5.63613e-05
-3.0586e-06
6.28183e-05
-3.67658e-06
7.00897e-05
-4.29783e-06
7.70752e-05
-4.87845e-06
7.75235e-05
-5.38873e-06
7.80924e-05
-5.79285e-06
7.87882e-05
-6.05865e-06
7.96016e-05
-6.15962e-06
8.05279e-05
-6.07933e-06
8.15463e-05
-5.81098e-06
8.71331e-05
-5.31228e-06
7.69305e-05
-4.76258e-06
6.79103e-05
-4.1904e-06
5.99222e-05
-3.61789e-06
5.28084e-05
-3.06312e-06
4.65161e-05
-2.53911e-06
4.09364e-05
-2.05476e-06
3.59484e-05
-1.99581e-06
3.15384e-05
-1.49605e-06
2.75876e-05
-1.05009e-06
2.4002e-05
-6.60221e-07
2.07577e-05
-3.37883e-07
1.7512e-05
-1.11073e-07
1.3309e-05
1.74012e-05
1.29174e-07
2.78157e-05
1.05452e-07
2.85519e-05
4.02369e-08
1.02533e-07
1.936e-05
3.39945e-08
2.15425e-05
-8.05906e-08
2.39662e-05
-2.43443e-07
2.66607e-05
-4.58798e-07
2.966e-05
-7.31038e-07
3.29964e-05
-1.06458e-06
3.67057e-05
-1.46407e-06
4.08393e-05
-1.93202e-06
4.54485e-05
-2.46829e-06
5.05996e-05
-3.06632e-06
5.6369e-05
-3.7132e-06
6.28549e-05
-4.38447e-06
7.01763e-05
-5.04163e-06
7.72384e-05
-5.6361e-06
7.77709e-05
-6.13596e-06
7.84355e-05
-6.50542e-06
7.92349e-05
-6.71333e-06
8.01553e-05
-6.73828e-06
8.11869e-05
-6.56854e-06
8.23039e-05
-6.2044e-06
8.80252e-05
-5.60754e-06
7.77755e-05
-4.97316e-06
6.86931e-05
-4.33134e-06
6.06356e-05
-3.70486e-06
5.34502e-05
-3.11063e-06
4.70876e-05
-2.55964e-06
4.14412e-05
-2.54388e-06
3.64965e-05
-1.97332e-06
3.20156e-05
-1.46749e-06
2.8005e-05
-1.02349e-06
2.43653e-05
-6.4173e-07
2.10615e-05
-3.30059e-07
1.7731e-05
-1.11262e-07
1.34203e-05
1.74028e-05
1.00954e-07
2.78194e-05
1.25508e-07
2.85555e-05
1.01858e-07
2.93118e-05
3.83896e-08
3.33046e-08
1.93607e-05
-7.97387e-08
2.15416e-05
-2.40376e-07
2.39631e-05
-4.52827e-07
2.66548e-05
-7.21581e-07
2.96505e-05
-1.05136e-06
3.29832e-05
-1.44746e-06
3.66891e-05
-1.91354e-06
4.08209e-05
-2.45141e-06
4.54316e-05
-3.05747e-06
5.05907e-05
-3.72315e-06
5.6379e-05
-4.42987e-06
6.29003e-05
-5.14662e-06
7.02813e-05
-5.82996e-06
7.74323e-05
-6.42452e-06
7.80594e-05
-6.89896e-06
7.8829e-05
-7.21755e-06
7.97392e-05
-7.35361e-06
8.07707e-05
-7.29002e-06
8.19084e-05
-7.02222e-06
8.31217e-05
-6.5578e-06
8.89755e-05
-5.86228e-06
7.86646e-05
-5.1461e-06
6.95079e-05
-4.44002e-06
6.13708e-05
-3.76554e-06
5.41051e-05
-3.13759e-06
4.76656e-05
-3.16988e-06
4.20672e-05
-2.5154e-06
3.70385e-05
-1.93528e-06
3.24834e-05
-1.42892e-06
2.84104e-05
-9.90854e-07
2.47144e-05
-6.19643e-07
2.13511e-05
-3.19779e-07
1.79395e-05
-1.09769e-07
1.35301e-05
1.74032e-05
3.28748e-08
2.78213e-05
9.90137e-08
2.8559e-05
1.22023e-07
2.93153e-05
9.83808e-08
3.00898e-05
3.66305e-08
-7.86598e-08
1.93596e-05
-2.37102e-07
2.15384e-05
-4.46603e-07
2.39569e-05
-7.11681e-07
2.66449e-05
-1.03722e-06
2.96364e-05
-1.42895e-06
3.29647e-05
-1.89136e-06
3.66669e-05
-2.4277e-06
4.07972e-05
-3.03672e-06
4.54109e-05
-3.7133e-06
5.05809e-05
-4.44378e-06
5.63929e-05
-5.20361e-06
6.29573e-05
-5.95727e-06
7.04086e-05
-6.65392e-06
7.76617e-05
-7.23353e-06
7.8394e-05
-7.6656e-06
7.92771e-05
-7.91813e-06
8.03037e-05
-7.9681e-06
8.14488e-05
-7.80544e-06
8.26916e-05
-7.43316e-06
8.39971e-05
-6.86599e-06
8.99792e-05
-6.07397e-06
7.95925e-05
-5.28111e-06
7.0349e-05
-4.51685e-06
6.21221e-05
-3.80066e-06
5.47681e-05
-3.8872e-06
4.83829e-05
-3.13487e-06
4.26867e-05
-2.46652e-06
3.75698e-05
-1.88365e-06
3.29382e-05
-1.38172e-06
2.88013e-05
-9.53224e-07
2.5048e-05
-5.946e-07
2.16259e-05
-3.07542e-07
1.81373e-05
-1.06978e-07
1.3637e-05
1.7402e-05
-7.74414e-08
2.78199e-05
3.4303e-08
2.85607e-05
9.73022e-08
2.93186e-05
1.18705e-07
3.00931e-05
9.50171e-08
3.08897e-05
3.49591e-08
-2.33747e-07
1.93563e-05
-4.40327e-07
2.15321e-05
-7.01666e-07
2.39469e-05
-1.02272e-06
2.66304e-05
-1.40946e-06
2.96169e-05
-1.86697e-06
3.29403e-05
-2.39954e-06
3.66387e-05
-3.00773e-06
4.07682e-05
-3.68916e-06
4.53867e-05
-4.43419e-06
5.05713e-05
-5.22373e-06
5.6413e-05
-6.02924e-06
6.30292e-05
-6.80802e-06
7.05627e-05
-7.50362e-06
7.79317e-05
-8.05093e-06
7.87793e-05
-8.42446e-06
7.97834e-05
-8.59508e-06
8.09307e-05
-8.54648e-06
8.21898e-05
-8.2763e-06
8.35347e-05
-7.79514e-06
8.49262e-05
-7.1254e-06
9.10306e-05
-6.24155e-06
8.05529e-05
-5.37817e-06
7.12103e-05
-4.56255e-06
6.2884e-05
-4.71132e-06
5.55923e-05
-3.84548e-06
4.90935e-05
-3.07399e-06
4.32942e-05
-2.40016e-06
3.80863e-05
-1.82059e-06
3.3377e-05
-1.32767e-06
2.91758e-05
-9.1177e-07
2.53651e-05
-5.67377e-07
2.18857e-05
-2.93862e-07
1.83242e-05
-1.03224e-07
1.37403e-05
1.73987e-05
-2.30405e-07
2.78136e-05
-7.11048e-08
2.8559e-05
3.60637e-08
2.93201e-05
9.5836e-08
3.00963e-05
1.15569e-07
3.08929e-05
9.1776e-08
3.17096e-05
3.33714e-08
-4.34144e-07
1.93501e-05
-6.91775e-07
2.15222e-05
-1.00825e-06
2.39324e-05
-1.38966e-06
2.66106e-05
-1.84147e-06
2.95914e-05
-2.36874e-06
3.29095e-05
-2.97337e-06
3.66044e-05
-3.65511e-06
4.07341e-05
-4.40755e-06
4.53601e-05
-5.21617e-06
5.05637e-05
-6.0584e-06
5.64422e-05
-6.89892e-06
6.31201e-05
-7.68944e-06
7.07485e-05
-8.36705e-06
7.82479e-05
-8.86517e-06
7.922e-05
-9.16289e-06
8.03512e-05
-9.23724e-06
8.16214e-05
-9.07955e-06
8.2993e-05
-8.69532e-06
8.44349e-05
-8.10358e-06
8.59044e-05
-7.33411e-06
9.21232e-05
-6.36446e-06
8.15392e-05
-5.43789e-06
7.20856e-05
-5.66007e-06
6.38327e-05
-4.66317e-06
5.641e-05
-3.77163e-06
4.97911e-05
-2.99117e-06
4.38852e-05
-2.31931e-06
3.8585e-05
-1.74861e-06
3.3798e-05
-1.26855e-06
2.95325e-05
-8.67685e-07
2.56654e-05
-5.38717e-07
2.21306e-05
-2.79223e-07
1.85002e-05
-9.88059e-08
1.38391e-05
1.73927e-05
-4.28154e-07
2.78006e-05
-2.1748e-07
2.85522e-05
-6.43174e-08
2.9318e-05
3.81644e-08
3.00975e-05
9.46079e-08
3.08959e-05
1.12609e-07
3.17127e-05
8.8663e-08
3.25535e-05
3.18739e-08
-6.82177e-07
1.93405e-05
-9.94094e-07
2.1508e-05
-1.37004e-06
2.39128e-05
-1.8157e-06
2.65848e-05
-2.33666e-06
2.95593e-05
-2.9358e-06
3.28719e-05
-3.61452e-06
3.65638e-05
-4.36898e-06
4.06955e-05
-5.18838e-06
4.53323e-05
-6.05519e-06
5.05605e-05
-6.94057e-06
5.64838e-05
-7.80378e-06
6.32345e-05
-8.58987e-06
7.09714e-05
-9.23274e-06
7.86154e-05
-9.66322e-06
7.97204e-05
-9.86904e-06
8.0983e-05
-9.83452e-06
8.23764e-05
-9.55897e-06
8.38567e-05
-9.05695e-06
8.53883e-05
-8.35575e-06
8.6926e-05
-7.4909e-06
9.32496e-05
-6.44309e-06
8.25444e-05
-6.7527e-06
7.31783e-05
-5.6064e-06
6.4776e-05
-4.57562e-06
5.72139e-05
-3.67066e-06
5.04706e-05
-2.89036e-06
4.44562e-05
-2.22724e-06
3.90637e-05
-1.67013e-06
3.41996e-05
-1.20608e-06
2.98709e-05
-8.22033e-07
2.59488e-05
-5.09297e-07
2.23607e-05
-2.64065e-07
1.86655e-05
-9.39528e-08
1.3933e-05
1.73835e-05
-6.72986e-07
2.77792e-05
-4.06739e-07
2.85386e-05
-2.03937e-07
2.93107e-05
-5.70588e-08
3.0095e-05
4.06018e-08
3.08969e-05
9.36152e-08
3.17155e-05
1.0982e-07
3.25565e-05
8.56645e-08
3.34194e-05
3.04582e-08
-9.80463e-07
1.93269e-05
-1.35095e-06
2.1489e-05
-1.79027e-06
2.38874e-05
-2.30431e-06
2.65524e-05
-2.89668e-06
2.95202e-05
-3.57002e-06
3.28274e-05
-4.32249e-06
3.65173e-05
-5.14629e-06
4.06535e-05
-6.0281e-06
4.53052e-05
-6.94463e-06
5.05646e-05
-7.86194e-06
5.6542e-05
-8.73266e-06
6.33773e-05
-9.49814e-06
7.12368e-05
-1.00875e-05
7.90397e-05
-1.04327e-05
8.02841e-05
-1.0532e-05
8.16805e-05
-1.03775e-05
8.31949e-05
-9.97814e-06
8.47779e-05
-9.35755e-06
8.63901e-05
-8.54982e-06
8.79849e-05
-7.59584e-06
9.44024e-05
-8.01151e-06
8.38032e-05
-6.69547e-06
7.42673e-05
-5.50479e-06
6.57051e-05
-4.45483e-06
5.79981e-05
-3.54754e-06
5.11278e-05
-2.77566e-06
4.50047e-05
-2.12707e-06
3.95206e-05
-1.58742e-06
3.45809e-05
-1.14174e-06
3.01906e-05
-7.75754e-07
2.62152e-05
-4.79721e-07
2.25763e-05
-2.48718e-07
1.88202e-05
-8.88648e-08
1.40219e-05
1.73705e-05
-9.67483e-07
2.77471e-05
-6.40895e-07
2.85164e-05
-3.84534e-07
2.92966e-05
-1.89799e-07
3.00874e-05
-4.93638e-08
3.08941e-05
4.33666e-08
3.17163e-05
9.28507e-08
3.25591e-05
1.0719e-07
3.34223e-05
8.2791e-08
3.43053e-05
2.91237e-08
-1.33265e-06
1.93085e-05
-1.76559e-06
2.14643e-05
-2.27242e-06
2.38555e-05
-2.85723e-06
2.6513e-05
-3.52357e-06
2.94738e-05
-4.27116e-06
3.27761e-05
-5.09458e-06
3.64656e-05
-5.98397e-06
4.06093e-05
-6.9207e-06
4.52813e-05
-7.87681e-06
5.05794e-05
-8.81192e-06
5.66213e-05
-9.67477e-06
6.35539e-05
-1.04011e-05
7.15504e-05
-1.09187e-05
7.95257e-05
-1.11621e-05
8.09142e-05
-1.11414e-05
8.24444e-05
-1.08586e-05
8.40754e-05
-1.03325e-05
8.57528e-05
-9.59446e-06
8.74347e-05
-8.68529e-06
8.90744e-05
-9.46195e-06
9.58528e-05
-7.95465e-06
8.50624e-05
-6.58022e-06
7.53428e-05
-5.36263e-06
6.66129e-05
-4.30692e-06
5.87575e-05
-3.40737e-06
5.17595e-05
-2.65097e-06
4.55286e-05
-2.02165e-06
3.99548e-05
-1.50242e-06
3.49416e-05
-1.0768e-06
3.04917e-05
-7.29676e-07
2.64652e-05
-4.5042e-07
2.2778e-05
-2.33481e-07
1.89648e-05
-8.36907e-08
1.41056e-05
1.73531e-05
-1.31527e-06
2.77021e-05
-9.22461e-07
2.84833e-05
-6.07807e-07
2.92736e-05
-3.61499e-07
3.00726e-05
-1.75046e-07
3.0886e-05
-4.12297e-08
3.17132e-05
4.64525e-08
3.25596e-05
9.23322e-08
3.34248e-05
1.04726e-07
3.43081e-05
8.00314e-08
3.52193e-05
2.78724e-08
-1.74196e-06
1.92849e-05
-2.24151e-06
2.14334e-05
-2.81835e-06
2.38166e-05
-3.47666e-06
2.64661e-05
-4.21734e-06
2.942e-05
-5.03688e-06
3.27184e-05
-5.92819e-06
3.64098e-05
-6.87655e-06
4.05652e-05
-7.85911e-06
4.52636e-05
-8.84175e-06
5.06093e-05
-9.78024e-06
5.67267e-05
-1.06173e-05
6.377e-05
-1.12861e-05
7.19178e-05
-1.17142e-05
8.00778e-05
-1.18401e-05
8.16129e-05
-1.16886e-05
8.32744e-05
-1.12722e-05
8.50152e-05
-1.06184e-05
8.67767e-05
-9.76653e-06
8.8516e-05
-1.08407e-05
9.04532e-05
-9.41306e-06
9.73112e-05
-7.82802e-06
8.63102e-05
-6.41578e-06
7.63959e-05
-5.18739e-06
6.74934e-05
-4.13812e-06
5.94882e-05
-3.25491e-06
5.23635e-05
-2.51981e-06
4.60267e-05
-1.91342e-06
4.03658e-05
-1.41679e-06
3.52816e-05
-1.01237e-06
3.07744e-05
-6.84362e-07
2.66991e-05
-4.21793e-07
2.29663e-05
-2.18574e-07
1.90997e-05
-7.85378e-08
1.41841e-05
1.73307e-05
-1.71956e-06
2.76414e-05
-1.2545e-06
2.84371e-05
-8.76199e-07
2.92395e-05
-5.7376e-07
3.00488e-05
-3.377e-07
3.08706e-05
-1.59728e-07
3.17046e-05
-3.26816e-08
3.25563e-05
4.98397e-08
3.3425e-05
9.20429e-08
3.43104e-05
1.02405e-07
3.52219e-05
7.73719e-08
3.61552e-05
2.67005e-08
-2.21193e-06
1.92553e-05
-2.78064e-06
2.13957e-05
-3.43034e-06
2.37703e-05
-4.1628e-06
2.64115e-05
-4.97596e-06
2.9359e-05
-5.86498e-06
3.26552e-05
-6.81835e-06
3.63516e-05
-7.81755e-06
4.05236e-05
-8.83395e-06
4.52558e-05
-9.82974e-06
5.06588e-05
-1.07545e-05
5.68639e-05
-1.15476e-05
6.40315e-05
-1.21407e-05
7.23442e-05
-1.24621e-05
8.06998e-05
-1.24572e-05
8.23815e-05
-1.2167e-05
8.41692e-05
-1.16137e-05
8.60105e-05
-1.08339e-05
8.78441e-05
-1.22184e-05
8.98936e-05
-1.08081e-05
9.18482e-05
-9.2803e-06
9.87635e-05
-7.64196e-06
8.75364e-05
-6.21109e-06
7.74196e-05
-4.98658e-06
6.83419e-05
-3.95418e-06
6.01875e-05
-3.09447e-06
5.29381e-05
-2.38521e-06
4.64985e-05
-1.80447e-06
4.07535e-05
-1.33194e-06
3.56011e-05
-9.49184e-07
3.10392e-05
-6.40337e-07
2.69177e-05
-3.94124e-07
2.31419e-05
-2.04142e-07
1.92253e-05
-7.34905e-08
1.42576e-05
1.73027e-05
-2.18392e-06
2.75619e-05
-1.64006e-06
2.83747e-05
-1.19211e-06
2.91918e-05
-8.28508e-07
3.00137e-05
-5.38629e-07
3.08461e-05
-3.13146e-07
3.16888e-05
-1.43878e-07
3.25473e-05
-2.37498e-08
3.34214e-05
5.35087e-08
3.43105e-05
9.19912e-08
3.52241e-05
1.00227e-07
3.61577e-05
7.47981e-08
3.65891e-05
2.56228e-08
-2.74457e-06
1.92193e-05
-3.38539e-06
2.13507e-05
-4.10882e-06
2.37163e-05
-4.91393e-06
2.63495e-05
-5.7976e-06
2.92917e-05
-6.75098e-06
3.25878e-05
-7.75915e-06
3.62932e-05
-8.79822e-06
4.04879e-05
-9.83612e-06
4.52621e-05
-1.08288e-05
5.07332e-05
-1.17222e-05
5.70385e-05
-1.24531e-05
6.43439e-05
-1.29525e-05
7.28346e-05
-1.3152e-05
8.13947e-05
-1.30057e-05
8.32202e-05
-1.2571e-05
8.51265e-05
-1.18804e-05
8.7057e-05
-1.35893e-05
8.9215e-05
-1.22122e-05
9.12977e-05
-1.06779e-05
9.32458e-05
-9.07546e-06
0.000100197
-7.4068e-06
8.87321e-05
-5.97511e-06
7.84081e-05
-4.76712e-06
6.91548e-05
-3.76036e-06
6.08534e-05
-2.92974e-06
5.34826e-05
-2.2497e-06
4.69437e-05
-1.69657e-06
4.11181e-05
-1.24881e-06
3.59007e-05
-8.87926e-07
3.12868e-05
-5.97969e-07
2.71215e-05
-3.67581e-07
2.33053e-05
-1.90299e-07
1.93421e-05
-6.86128e-08
1.43262e-05
1.72685e-05
-2.71038e-06
2.74604e-05
-2.08245e-06
2.82936e-05
-1.55893e-06
2.9128e-05
-1.12827e-06
2.99648e-05
-7.79674e-07
3.08101e-05
-5.02646e-07
3.16635e-05
-2.87895e-07
3.25309e-05
-1.27498e-07
3.34121e-05
-1.44709e-08
3.43065e-05
5.74437e-08
3.52239e-05
9.21521e-08
3.61598e-05
9.81834e-08
3.65916e-05
7.23128e-08
3.5553e-05
2.46681e-08
-3.34233e-06
1.91762e-05
-4.05633e-06
2.12982e-05
-4.8523e-06
2.36547e-05
-5.72851e-06
2.62804e-05
-6.6782e-06
2.92189e-05
-7.68946e-06
3.25181e-05
-8.74241e-06
3.62374e-05
-9.81004e-06
4.04618e-05
-1.08542e-05
4.52875e-05
-1.1827e-05
5.08379e-05
-1.26711e-05
5.72565e-05
-1.33214e-05
6.47128e-05
-1.37104e-05
7.3393e-05
-1.37753e-05
8.21642e-05
-1.3479e-05
8.41282e-05
-1.28969e-05
8.61431e-05
-1.4946e-05
8.84137e-05
-1.36216e-05
9.06244e-05
-1.20945e-05
9.27144e-05
-1.0463e-05
9.46333e-05
-8.81049e-06
0.000101601
-7.13304e-06
8.989e-05
-5.71615e-06
7.93572e-05
-4.53539e-06
6.99298e-05
-3.56114e-06
6.14848e-05
-2.76383e-06
5.39968e-05
-2.1155e-06
4.73627e-05
-1.59088e-06
4.14602e-05
-1.16828e-06
3.61811e-05
-8.29072e-07
3.15179e-05
-5.5746e-07
2.73114e-05
-3.423e-07
2.34573e-05
-1.7713e-07
1.94507e-05
-6.39443e-08
1.43902e-05
1.72277e-05
-3.3015e-06
2.73342e-05
-2.58422e-06
2.81903e-05
-1.97915e-06
2.90448e-05
-1.47576e-06
2.98995e-05
-1.06297e-06
3.07601e-05
-7.29679e-07
3.16266e-05
-4.65775e-07
3.25051e-05
-2.6204e-07
3.33953e-05
-1.1067e-07
3.42969e-05
-4.87585e-09
3.52197e-05
6.16256e-08
3.61594e-05
9.25268e-08
3.65934e-05
9.63103e-08
3.55553e-05
7.00145e-08
3.45449e-05
2.38172e-08
-4.00596e-06
1.91258e-05
-4.79219e-06
2.12381e-05
-5.65953e-06
2.35857e-05
-6.60289e-06
2.62051e-05
-7.61282e-06
2.91422e-05
-8.67281e-06