/*--------------------------------*- C++ -*----------------------------------*\
  =========                 |
  \\      /  F ield         | OpenFOAM: The Open Source CFD Toolbox
   \\    /   O peration     | Website:  https://openfoam.org
    \\  /    A nd           | Version:  8
     \\/     M anipulation  |
\*---------------------------------------------------------------------------*/
FoamFile
{
    version     2.0;
    format      ascii;
    class       volScalarField;
    location    "0.2";
    object      p;
}
// * * * * * * * * * * * * * * * * * * * * * * * * * * * * * * * * * * * * * //

dimensions      [0 2 -2 0 0 0 0];

internalField   nonuniform List<scalar> 
800
(
3.07034e-06
6.60947e-05
0.000107583
0.000102266
4.34202e-05
-6.71811e-05
-0.000222724
-0.00041377
-0.000630175
-0.000861752
-0.00109841
-0.00133012
-0.00154677
-0.00173799
-0.00189344
-0.0020036
-0.00206155
-0.00206569
-0.00202334
-0.00196169
-5.63525e-05
6.50776e-06
3.38074e-05
1.63566e-05
-4.54405e-05
-0.000150222
-0.000293217
-0.000467076
-0.000663357
-0.000873191
-0.00108756
-0.00129742
-0.00149372
-0.0016675
-0.00181021
-0.00191444
-0.00197533
-0.00199171
-0.00196344
-0.00190023
-0.000100454
-1.93784e-05
8.44636e-06
-1.41367e-05
-7.89768e-05
-0.000183388
-0.000322708
-0.000490147
-0.00067805
-0.000878362
-0.00108283
-0.00128313
-0.00147096
-0.00163818
-0.00177704
-0.00188076
-0.00194465
-0.00196613
-0.00193717
-0.0018553
-9.85401e-05
8.37014e-07
3.21196e-05
5.30943e-06
-6.52235e-05
-0.00017486
-0.000318179
-0.000488202
-0.00067748
-0.000878382
-0.00108317
-0.00128404
-0.00147321
-0.00164296
-0.00178574
-0.00189454
-0.00196396
-0.00198947
-0.00195679
-0.00185622
-3.48756e-05
7.40207e-05
0.000103548
6.82015e-05
-1.3143e-05
-0.000134003
-0.000287988
-0.000467705
-0.000665712
-0.000874669
-0.00108728
-0.00129622
-0.00149415
-0.00167358
-0.00182698
-0.00194688
-0.00202687
-0.00206055
-0.00202911
-0.0019183
0.000101692
0.000209047
0.000228576
0.00017773
7.85518e-05
-6.06957e-05
-0.000232578
-0.000429233
-0.000643183
-0.000867372
-0.00109498
-0.00131924
-0.00153321
-0.00172968
-0.00190101
-0.00203918
-0.0021367
-0.00218535
-0.00216308
-0.00205271
0.000320708
0.000413662
0.000412634
0.000337149
0.000211395
4.54217e-05
-0.000152235
-0.000373284
-0.000610298
-0.000856635
-0.00110612
-0.00135267
-0.00158995
-0.00181107
-0.00200835
-0.00217321
-0.00229697
-0.00236955
-0.00236664
-0.00226899
0.000631767
0.000694849
0.000660105
0.000548613
0.000385834
0.000183711
-4.80912e-05
-0.000300992
-0.000567836
-0.000842678
-0.0011203
-0.00139563
-0.0016632
-0.00191669
-0.00214853
-0.00234966
-0.00251013
-0.00261786
-0.00264701
-0.00257674
0.00104533
0.00105929
0.000974518
0.000813231
0.000601218
0.000352475
7.78012e-05
-0.000214196
-0.000517013
-0.000825847
-0.00113693
-0.00144671
-0.00175105
-0.00204458
-0.00232014
-0.00256834
-0.00277786
-0.00293437
-0.00301131
-0.00298659
0.00157288
0.00151319
0.00135815
0.00113054
0.000855214
0.000548427
0.000222017
-0.000115773
-0.00045966
-0.000806641
-0.00115513
-0.00150379
-0.00185049
-0.00219142
-0.00252026
-0.00282753
-0.0031005
-0.00332226
-0.00346654
-0.00351036
0.00222651
0.00206157
0.00181122
0.00149758
0.0011429
0.000765821
0.000379041
-1.01651e-05
-0.000398531
-0.000785811
-0.00117354
-0.00156363
-0.00195687
-0.0023518
-0.00274362
-0.00312319
-0.0034763
-0.0037831
-0.00401902
-0.00416087
0.00301751
0.00270747
0.00233061
0.00190763
0.00145556
0.000995388
0.000540369
9.59254e-05
-0.000337806
-0.000764542
-0.0011903
-0.00162154
-0.00206325
-0.00251745
-0.00298172
-0.00344788
-0.00390032
-0.00431589
-0.00467364
-0.00495129
0.00395589
0.0034496
0.00290811
0.00234852
0.00177906
0.00122294
0.000693367
0.000192706
-0.00028352
-0.000744637
-0.00120287
-0.00167094
-0.00215972
-0.00267618
-0.00322155
-0.00378947
-0.00436306
-0.00491564
-0.00543261
-0.00589396
0.00504737
0.0042807
0.00352824
0.00280045
0.00209193
0.00142763
0.000819839
0.000266188
-0.00024436
-0.00072886
-0.00120794
-0.00170286
-0.0022325
-0.00281073
-0.00344412
-0.00412935
-0.00484866
-0.00557159
-0.00629363
-0.00699917
0.00629087
0.00518426
0.00416512
0.00323318
0.00236276
0.00157976
0.000894185
0.000296764
-0.00023262
-0.000721436
-0.00120153
-0.00170549
-0.00226298
-0.00289734
-0.00362266
-0.0044404
-0.00533254
-0.00626477
-0.0072477
-0.00827299
0.00767454
0.00613052
0.00477868
0.0036024
0.00254699
0.0016379
0.000881019
0.000257328
-0.000265548
-0.000728836
-0.00117907
-0.00166372
-0.0022267
-0.00290408
-0.00372043
-0.00468433
-0.00577849
-0.00696497
-0.00827607
-0.00971459
0.00917063
0.0070714
0.00530977
0.00384523
0.0025828
0.00154534
0.000732156
0.000110824
-0.000367197
-0.000760972
-0.00113597
-0.0015589
-0.00209227
-0.00278909
-0.00368822
-0.00480855
-0.00613511
-0.00762687
-0.0093464
-0.0113126
0.0107288
0.00793406
0.00567408
0.00387467
0.00238612
0.0012257
0.000382773
-0.000192958
-0.000570945
-0.000832978
-0.00106855
-0.00136889
-0.00182049
-0.00249861
-0.00346143
-0.00474243
-0.00633135
-0.00818519
-0.0104078
-0.0130407
0.012268
0.00861294
0.00575476
0.00357282
0.00184454
0.000577403
-0.000253401
-0.000721521
-0.000922923
-0.000967823
-0.000975708
-0.00106865
-0.00136372
-0.00196511
-0.00295688
-0.00439291
-0.00627112
-0.00854861
-0.0113844
-0.0148511
0.0136655
0.00896004
0.0053934
0.00278263
0.000809796
-0.000532989
-0.00129009
-0.00156499
-0.0014866
-0.00120005
-0.000861646
-0.000631699
-0.000665851
-0.00110562
-0.00206942
-0.00363938
-0.00582681
-0.00859225
-0.0121678
-0.0166671
0.0147449
0.00877326
0.00437939
0.00129819
-0.000910998
-0.00227883
-0.00287582
-0.0028428
-0.0023488
-0.00158093
-0.000739936
-3.27888e-05
0.000336792
0.000179516
-0.000668427
-0.00232798
-0.00483147
-0.00814832
-0.0126063
-0.0183731
0.0152606
0.00778261
0.00243732
-0.00114667
-0.00356574
-0.00488286
-0.00520269
-0.00471188
-0.00362728
-0.00218538
-0.000639352
0.000747803
0.00171321
0.00200694
0.00140557
-0.000265041
-0.00306938
-0.00699433
-0.0124922
-0.0198009
0.0148809
0.00563428
-0.000787497
-0.00489145
-0.00746907
-0.00862789
-0.00851635
-0.00737623
-0.00547996
-0.00312061
-0.000611676
0.00171796
0.00353371
0.00450943
0.00434381
0.00279008
-0.000264697
-0.00483834
-0.0115451
-0.0207131
0.0131674
0.00187227
-0.00574559
-0.0103636
-0.0130152
-0.0138684
-0.0131267
-0.0110972
-0.00811516
-0.0045363
-0.000741417
0.00286522
0.00586373
0.00783333
0.00837158
0.00713292
0.00393225
-0.00130023
-0.00938951
-0.02078
0.00955344
-0.00408258
-0.0130021
-0.0180946
-0.0206914
-0.0210415
-0.019418
-0.0162033
-0.0118016
-0.00663529
-0.00115673
0.00414648
0.00875552
0.012134
0.0137495
0.0131226
0.00996174
0.00411251
-0.00552642
-0.0195499
0.00331865
-0.012957
-0.0232581
-0.0287363
-0.0310897
-0.0306762
-0.0278556
-0.0230965
-0.0168758
-0.00968214
-0.00203961
0.00547695
0.0122381
0.0175694
0.0207734
0.0211912
0.0183752
0.0120362
0.000706082
-0.0164075
-0.00643966
-0.025655
-0.0373752
-0.0430784
-0.0449167
-0.0433959
-0.0389853
-0.0322505
-0.0237412
-0.0140055
-0.00363171
0.0067214
0.0163073
0.0242922
0.0297737
0.0318543
0.0298612
0.0232927
0.0101861
-0.010518
-0.020843
-0.043296
-0.0564053
-0.0620633
-0.0629949
-0.0599103
-0.0534187
-0.044194
-0.0328527
-0.0199869
-0.00622936
0.00769246
0.0209191
0.0324424
0.0411131
0.0457223
0.0452766
0.0389453
0.0240827
-0.000746471
-0.0412842
-0.0672709
-0.0816286
-0.0867983
-0.0862509
-0.0809859
-0.0717934
-0.0594665
-0.0446751
-0.0280253
-0.0101586
0.00816381
0.0259922
0.0421434
0.0551845
0.0635128
0.0656873
0.0603743
0.0439634
0.0144596
-0.0695161
-0.0993296
-0.114604
-0.118559
-0.115681
-0.107384
-0.0946948
-0.0785353
-0.0596018
-0.0384662
-0.0157182
0.00790821
0.0314258
0.0535042
0.0724097
0.0860617
0.0924138
0.0893794
0.0719518
0.0372507
-0.107819
-0.141728
-0.15724
-0.158778
-0.152274
-0.139745
-0.122523
-0.101656
-0.0778207
-0.0514798
-0.0230804
0.00676991
0.0371417
0.066633
0.0932346
0.114327
0.127082
0.128316
0.110965
0.0706679
-0.159332
-0.197482
-0.211887
-0.208992
-0.196873
-0.178403
-0.155284
-0.128665
-0.0991195
-0.0668882
-0.0321448
0.0047741
0.0431503
0.0816573
0.118116
0.149376
0.171664
0.180268
0.165076
0.119144
-0.228752
-0.270807
-0.281451
-0.270728
-0.249932
-0.223093
-0.1923
-0.15871
-0.122645
-0.083956
-0.0423662
0.00225515
0.0496242
0.0987352
0.147476
0.192312
0.228474
0.249247
0.240069
0.189423
-0.323831
-0.367858
-0.369446
-0.345191
-0.311085
-0.272521
-0.231835
-0.189943
-0.146659
-0.101204
-0.0526193
-5.9775e-05
0.0569165
0.117988
0.181535
0.244054
0.299997
0.34033
0.34431
0.292393
-0.458569
-0.497873
-0.479732
-0.432517
-0.378359
-0.323721
-0.270629
-0.219231
-0.16839
-0.116359
-0.0612176
-0.00113526
0.0653955
0.139211
0.219854
0.304693
0.388224
0.459429
0.489937
0.446662
-0.658963
-0.67437
-0.615601
-0.530521
-0.447138
-0.371378
-0.303599
-0.242133
-0.184193
-0.126621
-0.0662458
3.25454e-06
0.0750262
0.161353
0.260611
0.3725
0.493442
0.612282
0.693702
0.684177
-0.973459
-0.915468
-0.778103
-0.633784
-0.509873
-0.408041
-0.324419
-0.253703
-0.190426
-0.129529
-0.0663549
0.00356269
0.0847464
0.181937
0.299987
0.443143
0.612979
0.80241
0.976663
1.05958
-1.51314
-1.24295
-0.956326
-0.726748
-0.552375
-0.422576
-0.325313
-0.24902
-0.184374
-0.124087
-0.0620491
0.00746825
0.0905527
0.194429
0.328334
0.503888
0.732553
1.02069
1.36491
1.69227
-2.57578
-1.66641
-1.07984
-0.745903
-0.530411
-0.386725
-0.2894
-0.218917
-0.162122
-0.110242
-0.0566019
0.00484356
0.0807854
0.180028
0.315891
0.509041
0.78754
1.19789
1.87324
2.88613
-4.40257
-2.08027
-1.00864
-0.597713
-0.391995
-0.274206
-0.204409
-0.158588
-0.12301
-0.0898769
-0.0538774
-0.0103501
0.0459457
0.122598
0.233013
0.402633
0.678865
1.18661
2.37228
4.81013
)
;

boundaryField
{
    movingWall
    {
        type            zeroGradient;
    }
    fixedWalls
    {
        type            zeroGradient;
    }
    frontAndBack
    {
        type            empty;
    }
}


// ************************************************************************* //
