# Residuals   
# Time        	p             	Ux            	Uy            	k             	epsilon       
0             	N/A	N/A	N/A	N/A
0.0001        	1.000000e+00	0.000000e+00	1.000000e+00	1.000000e+00	4.096666e-02
0.0002        	2.557227e-02	1.936817e-01	8.112097e-01	3.392270e-02	1.589085e-02
0.0003        	2.926661e-01	2.461203e-02	1.229852e-02	1.231922e-02	7.727124e-03
0.0004        	1.614347e-01	1.569523e-02	8.670133e-03	8.963254e-03	6.156894e-03
0.0005        	1.025661e-01	1.251250e-02	7.020293e-03	7.118917e-03	5.171328e-03
0.0006        	7.307726e-02	1.086290e-02	6.310794e-03	5.996676e-03	4.611491e-03
0.0007        	6.013485e-02	9.821046e-03	5.732132e-03	5.213203e-03	4.133974e-03
0.0008        	5.548240e-02	9.071513e-03	5.279392e-03	4.659306e-03	3.755654e-03
0.0009        	5.315074e-02	8.499065e-03	4.903783e-03	4.226297e-03	3.469720e-03
0.001         	5.213865e-02	8.023301e-03	4.589130e-03	3.900073e-03	3.230878e-03
0.0011        	5.121486e-02	7.599847e-03	4.323375e-03	3.640519e-03	3.065760e-03
0.0012        	5.041762e-02	7.242636e-03	4.091065e-03	3.431538e-03	2.927700e-03
0.0013        	4.979774e-02	6.916831e-03	3.883739e-03	3.257390e-03	2.808365e-03
0.0014        	4.994291e-02	6.637756e-03	3.703020e-03	3.101174e-03	2.701533e-03
0.0015        	4.850596e-02	6.375192e-03	3.536754e-03	2.967616e-03	2.603916e-03
0.0016        	4.797648e-02	6.141236e-03	3.387911e-03	2.844414e-03	2.509286e-03
0.0017        	4.706335e-02	5.939484e-03	3.255532e-03	2.738776e-03	2.431954e-03
0.0018        	4.657113e-02	5.735794e-03	3.131739e-03	2.636092e-03	2.342532e-03
0.0019        	4.604928e-02	5.573707e-03	3.023468e-03	2.545007e-03	2.274680e-03
0.002         	4.519695e-02	5.408010e-03	2.921041e-03	2.464208e-03	2.203614e-03
0.0021        	4.474120e-02	5.254645e-03	2.828677e-03	2.384214e-03	2.134614e-03
0.0022        	4.418288e-02	5.127099e-03	2.743672e-03	2.309511e-03	2.067992e-03
0.0023        	4.344807e-02	4.989245e-03	2.663635e-03	2.240994e-03	2.002602e-03
0.0024        	4.241851e-02	4.874481e-03	2.592205e-03	2.172544e-03	1.940029e-03
0.0025        	4.206576e-02	4.769925e-03	2.523592e-03	2.110739e-03	1.882275e-03
0.0026        	4.177706e-02	4.653646e-03	2.458642e-03	2.050833e-03	1.825211e-03
0.0027        	4.134697e-02	4.561701e-03	2.400396e-03	1.991343e-03	1.766292e-03
0.0028        	3.986066e-02	4.472939e-03	2.344109e-03	1.938119e-03	1.717932e-03
0.0029        	3.908906e-02	4.376540e-03	2.290740e-03	1.884658e-03	1.673247e-03
0.003         	3.902932e-02	4.300540e-03	2.242910e-03	1.835264e-03	1.621710e-03
0.0031        	3.857870e-02	4.225420e-03	2.197078e-03	1.790931e-03	1.573433e-03
0.0032        	3.756544e-02	4.141006e-03	2.151473e-03	1.746914e-03	1.535938e-03
0.0033        	3.692046e-02	4.077128e-03	2.110017e-03	1.703871e-03	1.496832e-03
0.0034        	3.624244e-02	4.015477e-03	2.072376e-03	1.665120e-03	1.462234e-03
0.0035        	3.582090e-02	3.943155e-03	2.034230e-03	1.626672e-03	1.429031e-03
0.0036        	3.522117e-02	3.886480e-03	1.998570e-03	1.591037e-03	1.391957e-03
0.0037        	3.477008e-02	3.837018e-03	1.965695e-03	1.555625e-03	1.355791e-03
0.0038        	3.426657e-02	3.778181e-03	1.932753e-03	1.523592e-03	1.327854e-03
0.0039        	3.360868e-02	3.721600e-03	1.900590e-03	1.492750e-03	1.300391e-03
0.004         	3.299534e-02	3.678764e-03	1.870981e-03	1.461847e-03	1.270394e-03
0.0041        	3.279288e-02	3.631025e-03	1.843292e-03	1.433452e-03	1.242464e-03
0.0042        	3.263508e-02	3.577577e-03	1.815425e-03	1.406618e-03	1.218140e-03
0.0043        	3.195862e-02	3.532569e-03	1.789083e-03	1.380645e-03	1.194096e-03
0.0044        	3.114966e-02	3.497783e-03	1.763636e-03	1.355348e-03	1.169351e-03
0.0045        	3.074377e-02	3.454010e-03	1.738854e-03	1.332671e-03	1.147800e-03
0.0046        	3.052790e-02	3.409037e-03	1.715328e-03	1.311298e-03	1.128202e-03
0.0047        	2.999861e-02	3.369817e-03	1.692783e-03	1.289938e-03	1.105757e-03
0.0048        	2.947269e-02	3.335592e-03	1.671306e-03	1.269640e-03	1.083801e-03
0.0049        	2.919606e-02	3.294770e-03	1.649872e-03	1.252345e-03	1.067549e-03
0.005         	2.891134e-02	3.260252e-03	1.629073e-03	1.235603e-03	1.050448e-03
0.0051        	2.848428e-02	3.227397e-03	1.609399e-03	1.218692e-03	1.032278e-03
0.0052        	2.820765e-02	3.193336e-03	1.590954e-03	1.202780e-03	1.013833e-03
0.0053        	2.791377e-02	3.155922e-03	1.572023e-03	1.189175e-03	9.978177e-04
0.0054        	2.750149e-02	3.124992e-03	1.553535e-03	1.175780e-03	9.826054e-04
0.0055        	2.714886e-02	3.097046e-03	1.535737e-03	1.162602e-03	9.654309e-04
0.0056        	2.687638e-02	3.067037e-03	1.519099e-03	1.149546e-03	9.486327e-04
0.0057        	2.694236e-02	3.033762e-03	1.502936e-03	1.137908e-03	9.330769e-04
0.0058        	2.661235e-02	3.004886e-03	1.486999e-03	1.127572e-03	9.189155e-04
0.0059        	2.609277e-02	2.978121e-03	1.470654e-03	1.116668e-03	9.056978e-04
0.006         	2.576944e-02	2.950640e-03	1.455034e-03	1.105466e-03	8.904019e-04
0.0061        	2.547742e-02	2.919618e-03	1.440394e-03	1.096538e-03	8.759830e-04
0.0062        	2.517353e-02	2.894631e-03	1.426047e-03	1.087709e-03	8.632607e-04
0.0063        	2.485413e-02	2.871229e-03	1.411775e-03	1.078360e-03	8.510870e-04
0.0064        	2.467745e-02	2.845882e-03	1.398062e-03	1.069077e-03	8.381758e-04
0.0065        	2.473723e-02	2.817593e-03	1.384463e-03	1.060321e-03	8.259702e-04
0.0066        	2.455907e-02	2.791559e-03	1.371366e-03	1.052706e-03	8.145034e-04
0.0067        	2.403976e-02	2.768684e-03	1.358480e-03	1.045379e-03	8.041192e-04
0.0068        	2.369807e-02	2.746783e-03	1.345998e-03	1.037377e-03	7.931513e-04
0.0069        	2.353340e-02	2.723816e-03	1.334161e-03	1.028943e-03	7.819094e-04
0.007         	2.351016e-02	2.698516e-03	1.322364e-03	1.021721e-03	7.718007e-04
0.0071        	2.310504e-02	2.677212e-03	1.310601e-03	1.014621e-03	7.621405e-04
0.0072        	2.290898e-02	2.655426e-03	1.298798e-03	1.008081e-03	7.543880e-04
0.0073        	2.277324e-02	2.633420e-03	1.287733e-03	1.001196e-03	7.456321e-04
0.0074        	2.273616e-02	2.610966e-03	1.277658e-03	9.938112e-04	7.355046e-04
0.0075        	2.263297e-02	2.590083e-03	1.267425e-03	9.868811e-04	7.252713e-04
0.0076        	2.221552e-02	2.572308e-03	1.257032e-03	9.807276e-04	7.159876e-04
0.0077        	2.202987e-02	2.552118e-03	1.246797e-03	9.740511e-04	7.087362e-04
0.0078        	2.206727e-02	2.530674e-03	1.236749e-03	9.674755e-04	7.009181e-04
0.0079        	2.181583e-02	2.509103e-03	1.227103e-03	9.611584e-04	6.931928e-04
0.008         	2.143436e-02	2.490709e-03	1.217979e-03	9.546080e-04	6.845699e-04
0.0081        	2.134494e-02	2.474052e-03	1.208937e-03	9.485768e-04	6.764082e-04
0.0082        	2.126036e-02	2.455747e-03	1.199966e-03	9.428759e-04	6.683548e-04
0.0083        	2.107734e-02	2.435918e-03	1.191041e-03	9.362091e-04	6.606760e-04
0.0084        	2.098340e-02	2.415278e-03	1.182411e-03	9.297984e-04	6.537676e-04
0.0085        	2.075675e-02	2.398801e-03	1.174326e-03	9.241976e-04	6.466944e-04
0.0086        	2.057884e-02	2.383866e-03	1.166054e-03	9.185322e-04	6.395996e-04
0.0087        	2.052228e-02	2.366986e-03	1.157687e-03	9.128642e-04	6.327544e-04
0.0088        	2.038179e-02	2.348566e-03	1.149576e-03	9.067037e-04	6.259136e-04
0.0089        	2.015027e-02	2.329164e-03	1.141656e-03	9.001010e-04	6.184929e-04
0.009         	2.003442e-02	2.312485e-03	1.134515e-03	8.943908e-04	6.117969e-04
0.0091        	2.016459e-02	2.299196e-03	1.127551e-03	8.893861e-04	6.062999e-04
0.0092        	2.007479e-02	2.284558e-03	1.120361e-03	8.837402e-04	6.000463e-04
0.0093        	1.987075e-02	2.267974e-03	1.113140e-03	8.782917e-04	5.941421e-04
0.0094        	1.974492e-02	2.249963e-03	1.106227e-03	8.729360e-04	5.889387e-04
0.0095        	1.947068e-02	2.232405e-03	1.099333e-03	8.669983e-04	5.828071e-04
0.0096        	1.934653e-02	2.219223e-03	1.092890e-03	8.614820e-04	5.771624e-04
0.0097        	1.929626e-02	2.205896e-03	1.086574e-03	8.565287e-04	5.715919e-04
0.0098        	1.912382e-02	2.190986e-03	1.080284e-03	8.514356e-04	5.656941e-04
0.0099        	1.898963e-02	2.174857e-03	1.073962e-03	8.461666e-04	5.599058e-04
0.01          	1.894967e-02	2.158027e-03	1.068077e-03	8.408815e-04	5.550937e-04
0.0101        	1.889271e-02	2.144831e-03	1.062076e-03	8.353845e-04	5.497705e-04
0.0102        	1.875285e-02	2.133134e-03	1.056122e-03	8.303121e-04	5.435138e-04
0.0103        	1.890610e-02	2.119756e-03	1.050398e-03	8.257972e-04	5.391285e-04
0.0104        	1.878821e-02	2.105111e-03	1.044814e-03	8.206209e-04	5.336177e-04
0.0105        	1.842402e-02	2.089595e-03	1.039206e-03	8.155468e-04	5.284111e-04
0.0106        	1.842297e-02	2.074039e-03	1.033777e-03	8.107573e-04	5.240618e-04
0.0107        	1.824190e-02	2.062139e-03	1.028419e-03	8.056321e-04	5.195690e-04
0.0108        	1.815013e-02	2.051156e-03	1.023143e-03	8.009239e-04	5.149202e-04
0.0109        	1.813737e-02	2.038995e-03	1.017900e-03	7.964955e-04	5.108006e-04
0.011         	1.805373e-02	2.025462e-03	1.012653e-03	7.918453e-04	5.059278e-04
0.0111        	1.802431e-02	2.010734e-03	1.007702e-03	7.874946e-04	5.014741e-04
0.0112        	1.784096e-02	1.996472e-03	1.002765e-03	7.827469e-04	4.970716e-04
0.0113        	1.780997e-02	1.984975e-03	9.979087e-04	7.781197e-04	4.928856e-04
0.0114        	1.785043e-02	1.974664e-03	9.932446e-04	7.739222e-04	4.891289e-04
0.0115        	1.757988e-02	1.962818e-03	9.883823e-04	7.694751e-04	4.848969e-04
0.0116        	1.763402e-02	1.949863e-03	9.836467e-04	7.655803e-04	4.816583e-04
0.0117        	1.751236e-02	1.936345e-03	9.789858e-04	7.614865e-04	4.786191e-04
0.0118        	1.741025e-02	1.923788e-03	9.744534e-04	7.575672e-04	4.742601e-04
0.0119        	1.731121e-02	1.913398e-03	9.699763e-04	7.532757e-04	4.701334e-04
0.012         	1.731120e-02	1.903226e-03	9.656340e-04	7.491712e-04	4.662627e-04
0.0121        	1.715909e-02	1.892598e-03	9.613547e-04	7.450956e-04	4.625017e-04
0.0122        	1.713115e-02	1.880611e-03	9.572685e-04	7.416412e-04	4.593448e-04
0.0123        	1.698537e-02	1.867582e-03	9.530289e-04	7.377077e-04	4.561599e-04
0.0124        	1.699207e-02	1.855101e-03	9.488828e-04	7.341458e-04	4.530681e-04
0.0125        	1.702685e-02	1.844652e-03	9.447630e-04	7.304754e-04	4.499251e-04
0.0126        	1.702711e-02	1.834976e-03	9.408611e-04	7.267933e-04	4.464231e-04
0.0127        	1.688708e-02	1.825097e-03	9.371042e-04	7.232231e-04	4.429010e-04
0.0128        	1.685647e-02	1.814614e-03	9.334933e-04	7.197108e-04	4.397953e-04
0.0129        	1.669021e-02	1.803452e-03	9.299129e-04	7.161879e-04	4.367740e-04
0.013         	1.659383e-02	1.791356e-03	9.263221e-04	7.127784e-04	4.339113e-04
0.0131        	1.649393e-02	1.781344e-03	9.225699e-04	7.090115e-04	4.307634e-04
0.0132        	1.641715e-02	1.772079e-03	9.188231e-04	7.053732e-04	4.280317e-04
0.0133        	1.638979e-02	1.762249e-03	9.151158e-04	7.017541e-04	4.247740e-04
0.0134        	1.628769e-02	1.752126e-03	9.114895e-04	6.981061e-04	4.215608e-04
0.0135        	1.616921e-02	1.741382e-03	9.080206e-04	6.945857e-04	4.183079e-04
0.0136        	1.608979e-02	1.730030e-03	9.045588e-04	6.909581e-04	4.149261e-04
0.0137        	1.604029e-02	1.719613e-03	9.010823e-04	6.873454e-04	4.116834e-04
0.0138        	1.608849e-02	1.710899e-03	8.976339e-04	6.839213e-04	4.086144e-04
0.0139        	1.611373e-02	1.702302e-03	8.941862e-04	6.805255e-04	4.057681e-04
0.014         	1.596628e-02	1.693097e-03	8.907737e-04	6.771148e-04	4.028778e-04
0.0141        	1.595046e-02	1.683251e-03	8.873678e-04	6.737209e-04	3.996459e-04
0.0142        	1.583784e-02	1.673101e-03	8.839563e-04	6.704298e-04	3.968930e-04
0.0143        	1.577141e-02	1.662464e-03	8.804906e-04	6.673115e-04	3.942139e-04
0.0144        	1.567210e-02	1.652788e-03	8.770435e-04	6.642813e-04	3.918536e-04
0.0145        	1.561895e-02	1.644365e-03	8.736398e-04	6.612646e-04	3.892436e-04
0.0146        	1.559840e-02	1.635718e-03	8.703388e-04	6.582105e-04	3.867162e-04
0.0147        	1.558484e-02	1.626637e-03	8.670307e-04	6.552516e-04	3.839485e-04
0.0148        	1.543450e-02	1.617232e-03	8.638047e-04	6.522347e-04	3.811832e-04
0.0149        	1.541729e-02	1.607661e-03	8.606744e-04	6.494026e-04	3.793599e-04
0.015         	1.534200e-02	1.597966e-03	8.575023e-04	6.465643e-04	3.763494e-04
0.0151        	1.528721e-02	1.589560e-03	8.543024e-04	6.438456e-04	3.743851e-04
0.0152        	1.533653e-02	1.581856e-03	8.511179e-04	6.411410e-04	3.721967e-04
0.0153        	1.531848e-02	1.573928e-03	8.479778e-04	6.384390e-04	3.697058e-04
0.0154        	1.519001e-02	1.565271e-03	8.447997e-04	6.357441e-04	3.675524e-04
0.0155        	1.513362e-02	1.556020e-03	8.416399e-04	6.332102e-04	3.661610e-04
0.0156        	1.509879e-02	1.546276e-03	8.384925e-04	6.306265e-04	3.640978e-04
0.0157        	1.499359e-02	1.537093e-03	8.354297e-04	6.281246e-04	3.620494e-04
0.0158        	1.494673e-02	1.528902e-03	8.324237e-04	6.257202e-04	3.601568e-04
0.0159        	1.488912e-02	1.521374e-03	8.294173e-04	6.233801e-04	3.584365e-04
0.016         	1.486328e-02	1.514267e-03	8.264711e-04	6.210740e-04	3.570517e-04
0.0161        	1.482571e-02	1.506388e-03	8.235389e-04	6.187122e-04	3.549906e-04
0.0162        	1.478353e-02	1.497837e-03	8.206343e-04	6.164958e-04	3.535471e-04
0.0163        	1.470386e-02	1.489286e-03	8.177836e-04	6.142582e-04	3.522974e-04
0.0164        	1.465937e-02	1.480699e-03	8.149619e-04	6.120570e-04	3.501541e-04
0.0165        	1.464140e-02	1.472582e-03	8.120804e-04	6.099687e-04	3.490231e-04
0.0166        	1.459187e-02	1.464860e-03	8.092432e-04	6.078474e-04	3.480262e-04
0.0167        	1.456343e-02	1.457573e-03	8.063967e-04	6.057028e-04	3.460109e-04
0.0168        	1.450351e-02	1.449937e-03	8.034867e-04	6.037210e-04	3.451248e-04
0.0169        	1.456577e-02	1.442187e-03	8.006340e-04	6.018134e-04	3.436387e-04
0.017         	1.450686e-02	1.434118e-03	7.978265e-04	5.998926e-04	3.425363e-04
0.0171        	1.445767e-02	1.426002e-03	7.950995e-04	5.981857e-04	3.414974e-04
0.0172        	1.440039e-02	1.418608e-03	7.924500e-04	5.963904e-04	3.404389e-04
0.0173        	1.434547e-02	1.411283e-03	7.897802e-04	5.945853e-04	3.393420e-04
0.0174        	1.429466e-02	1.404401e-03	7.871109e-04	5.928237e-04	3.375803e-04
0.0175        	1.427364e-02	1.397684e-03	7.845530e-04	5.910451e-04	3.364564e-04
0.0176        	1.417442e-02	1.390618e-03	7.819530e-04	5.893635e-04	3.357749e-04
0.0177        	1.414936e-02	1.383069e-03	7.793102e-04	5.876452e-04	3.346365e-04
0.0178        	1.410179e-02	1.375237e-03	7.767113e-04	5.860127e-04	3.332694e-04
0.0179        	1.407293e-02	1.367586e-03	7.740559e-04	5.845052e-04	3.324738e-04
0.018         	1.401482e-02	1.360333e-03	7.713737e-04	5.830915e-04	3.315737e-04
0.0181        	1.395454e-02	1.353346e-03	7.687250e-04	5.817669e-04	3.306532e-04
0.0182        	1.391808e-02	1.346976e-03	7.661651e-04	5.803544e-04	3.296798e-04
0.0183        	1.391774e-02	1.340481e-03	7.637012e-04	5.789987e-04	3.286419e-04
0.0184        	1.392813e-02	1.333785e-03	7.613072e-04	5.775809e-04	3.276038e-04
0.0185        	1.390289e-02	1.326770e-03	7.589033e-04	5.762376e-04	3.269312e-04
0.0186        	1.379970e-02	1.319465e-03	7.564614e-04	5.748730e-04	3.257407e-04
0.0187        	1.375740e-02	1.312842e-03	7.540888e-04	5.735401e-04	3.245562e-04
0.0188        	1.376439e-02	1.306358e-03	7.517113e-04	5.723263e-04	3.240377e-04
0.0189        	1.370505e-02	1.299768e-03	7.493282e-04	5.712286e-04	3.228880e-04
0.019         	1.372233e-02	1.293760e-03	7.469620e-04	5.702628e-04	3.216954e-04
0.0191        	1.361986e-02	1.287392e-03	7.446200e-04	5.693541e-04	3.212265e-04
0.0192        	1.356667e-02	1.280751e-03	7.422477e-04	5.682782e-04	3.208032e-04
0.0193        	1.350711e-02	1.273926e-03	7.398928e-04	5.671870e-04	3.196258e-04
0.0194        	1.346637e-02	1.266902e-03	7.375440e-04	5.662480e-04	3.192943e-04
0.0195        	1.341730e-02	1.260525e-03	7.352326e-04	5.651518e-04	3.182417e-04
0.0196        	1.344513e-02	1.254490e-03	7.329761e-04	5.640743e-04	3.173451e-04
0.0197        	1.336071e-02	1.248576e-03	7.307175e-04	5.631110e-04	3.164320e-04
0.0198        	1.332119e-02	1.242887e-03	7.284510e-04	5.622311e-04	3.155559e-04
0.0199        	1.329128e-02	1.237196e-03	7.262453e-04	5.614804e-04	3.151026e-04
0.02          	1.324050e-02	1.231263e-03	7.240810e-04	5.605876e-04	3.141921e-04
0.0201        	1.321149e-02	1.225092e-03	7.219115e-04	5.598159e-04	3.133173e-04
0.0202        	1.319490e-02	1.218637e-03	7.197523e-04	5.589510e-04	3.124614e-04
0.0203        	1.317364e-02	1.212346e-03	7.175985e-04	5.582342e-04	3.116377e-04
0.0204        	1.310428e-02	1.206237e-03	7.154064e-04	5.574024e-04	3.108760e-04
0.0205        	1.312364e-02	1.200237e-03	7.132107e-04	5.567142e-04	3.102151e-04
0.0206        	1.309813e-02	1.194573e-03	7.110135e-04	5.559479e-04	3.097605e-04
0.0207        	1.302289e-02	1.189290e-03	7.088523e-04	5.551530e-04	3.089791e-04
0.0208        	1.295049e-02	1.183804e-03	7.067098e-04	5.544853e-04	3.083449e-04
0.0209        	1.294018e-02	1.178248e-03	7.045720e-04	5.538138e-04	3.076664e-04
0.021         	1.290357e-02	1.172390e-03	7.024328e-04	5.531302e-04	3.070241e-04
0.0211        	1.284355e-02	1.166517e-03	7.003050e-04	5.524674e-04	3.062498e-04
0.0212        	1.280320e-02	1.160929e-03	6.982231e-04	5.517390e-04	3.055112e-04
0.0213        	1.276777e-02	1.155398e-03	6.961995e-04	5.510740e-04	3.050564e-04
0.0214        	1.272728e-02	1.149915e-03	6.941657e-04	5.503409e-04	3.044178e-04
0.0215        	1.270219e-02	1.144721e-03	6.921619e-04	5.496666e-04	3.036258e-04
0.0216        	1.272166e-02	1.139507e-03	6.901747e-04	5.490853e-04	3.024634e-04
0.0217        	1.267068e-02	1.134121e-03	6.881207e-04	5.485349e-04	3.022753e-04
0.0218        	1.258677e-02	1.128647e-03	6.860599e-04	5.480025e-04	3.018279e-04
0.0219        	1.255016e-02	1.123169e-03	6.839919e-04	5.474480e-04	3.008790e-04
0.022         	1.250441e-02	1.117672e-03	6.819282e-04	5.468583e-04	3.000330e-04
0.0221        	1.245707e-02	1.112362e-03	6.798940e-04	5.462305e-04	2.991930e-04
0.0222        	1.246504e-02	1.107174e-03	6.778621e-04	5.456241e-04	2.989641e-04
0.0223        	1.248329e-02	1.102075e-03	6.758912e-04	5.451230e-04	2.983563e-04
0.0224        	1.241767e-02	1.097330e-03	6.739116e-04	5.445564e-04	2.973117e-04
0.0225        	1.236662e-02	1.092375e-03	6.719778e-04	5.438980e-04	2.967864e-04
0.0226        	1.232201e-02	1.087389e-03	6.700527e-04	5.433086e-04	2.963253e-04
0.0227        	1.226700e-02	1.082343e-03	6.680988e-04	5.426802e-04	2.956301e-04
0.0228        	1.224106e-02	1.077114e-03	6.661921e-04	5.421435e-04	2.950720e-04
0.0229        	1.218115e-02	1.071883e-03	6.642671e-04	5.415813e-04	2.944905e-04
0.023         	1.213441e-02	1.066900e-03	6.623168e-04	5.410555e-04	2.936857e-04
0.0231        	1.213326e-02	1.062070e-03	6.603848e-04	5.406502e-04	2.936299e-04
0.0232        	1.208895e-02	1.057301e-03	6.584865e-04	5.400550e-04	2.927197e-04
0.0233        	1.204674e-02	1.052755e-03	6.566108e-04	5.396293e-04	2.921386e-04
0.0234        	1.200513e-02	1.048052e-03	6.547247e-04	5.391381e-04	2.915175e-04
0.0235        	1.197659e-02	1.043215e-03	6.528454e-04	5.386357e-04	2.909532e-04
0.0236        	1.194267e-02	1.038392e-03	6.509926e-04	5.381373e-04	2.902561e-04
0.0237        	1.191210e-02	1.033495e-03	6.491298e-04	5.377457e-04	2.898036e-04
0.0238        	1.190299e-02	1.028605e-03	6.473059e-04	5.373395e-04	2.888306e-04
0.0239        	1.185305e-02	1.023884e-03	6.454421e-04	5.368562e-04	2.889346e-04
0.024         	1.180946e-02	1.019254e-03	6.435747e-04	5.363201e-04	2.879105e-04
0.0241        	1.176947e-02	1.014726e-03	6.417236e-04	5.356675e-04	2.870776e-04
0.0242        	1.171291e-02	1.010380e-03	6.399249e-04	5.350674e-04	2.865718e-04
0.0243        	1.167642e-02	1.006091e-03	6.381380e-04	5.345247e-04	2.860688e-04
0.0244        	1.165744e-02	1.001676e-03	6.363489e-04	5.340687e-04	2.856453e-04
0.0245        	1.167018e-02	9.972826e-04	6.345792e-04	5.337487e-04	2.851671e-04
0.0246        	1.160860e-02	9.928100e-04	6.328164e-04	5.333206e-04	2.849360e-04
0.0247        	1.157306e-02	9.881334e-04	6.310323e-04	5.328861e-04	2.840403e-04
0.0248        	1.151737e-02	9.833626e-04	6.292441e-04	5.325125e-04	2.834961e-04
0.0249        	1.148399e-02	9.787960e-04	6.274444e-04	5.320816e-04	2.828980e-04
0.025         	1.144670e-02	9.743883e-04	6.256710e-04	5.316622e-04	2.822028e-04
0.0251        	1.139499e-02	9.700880e-04	6.239242e-04	5.312078e-04	2.816407e-04
0.0252        	1.136134e-02	9.660251e-04	6.221858e-04	5.306959e-04	2.809813e-04
0.0253        	1.136475e-02	9.620696e-04	6.204685e-04	5.301633e-04	2.803269e-04
0.0254        	1.132380e-02	9.579690e-04	6.187112e-04	5.296233e-04	2.799423e-04
0.0255        	1.129885e-02	9.537676e-04	6.169839e-04	5.290832e-04	2.793927e-04
0.0256        	1.126380e-02	9.494967e-04	6.152537e-04	5.286507e-04	2.787676e-04
0.0257        	1.121295e-02	9.451540e-04	6.135382e-04	5.281807e-04	2.780524e-04
0.0258        	1.116549e-02	9.407907e-04	6.118284e-04	5.277643e-04	2.776445e-04
0.0259        	1.113897e-02	9.365378e-04	6.101380e-04	5.274072e-04	2.772936e-04
0.026         	1.113811e-02	9.324927e-04	6.084923e-04	5.271569e-04	2.769922e-04
0.0261        	1.109495e-02	9.284160e-04	6.068093e-04	5.267327e-04	2.760899e-04
0.0262        	1.106045e-02	9.244836e-04	6.051513e-04	5.263121e-04	2.754920e-04
0.0263        	1.100473e-02	9.205831e-04	6.034962e-04	5.257876e-04	2.749162e-04
0.0264        	1.098794e-02	9.166560e-04	6.018044e-04	5.252550e-04	2.744377e-04
0.0265        	1.094401e-02	9.127529e-04	6.001287e-04	5.246509e-04	2.736979e-04
0.0266        	1.091023e-02	9.086745e-04	5.984503e-04	5.240443e-04	2.727376e-04
0.0267        	1.092768e-02	9.047143e-04	5.968122e-04	5.236457e-04	2.726470e-04
0.0268        	1.087365e-02	9.006708e-04	5.951880e-04	5.230691e-04	2.714919e-04
0.0269        	1.081551e-02	8.966992e-04	5.935568e-04	5.226173e-04	2.708131e-04
0.027         	1.079339e-02	8.927911e-04	5.919051e-04	5.221793e-04	2.704723e-04
0.0271        	1.075311e-02	8.890082e-04	5.902806e-04	5.216953e-04	2.695633e-04
0.0272        	1.073484e-02	8.854055e-04	5.886777e-04	5.213340e-04	2.692361e-04
0.0273        	1.068408e-02	8.818286e-04	5.870863e-04	5.208458e-04	2.685028e-04
0.0274        	1.070239e-02	8.783411e-04	5.855020e-04	5.205376e-04	2.685191e-04
0.0275        	1.066393e-02	8.747321e-04	5.839025e-04	5.199673e-04	2.673957e-04
0.0276        	1.062795e-02	8.709911e-04	5.822844e-04	5.193634e-04	2.670719e-04
0.0277        	1.058117e-02	8.671660e-04	5.806851e-04	5.186989e-04	2.661207e-04
0.0278        	1.055326e-02	8.633407e-04	5.790723e-04	5.180672e-04	2.661342e-04
0.0279        	1.052129e-02	8.595032e-04	5.774931e-04	5.173922e-04	2.647255e-04
0.028         	1.047775e-02	8.557310e-04	5.759015e-04	5.168307e-04	2.642170e-04
0.0281        	1.047878e-02	8.521938e-04	5.743504e-04	5.163470e-04	2.637082e-04
0.0282        	1.044638e-02	8.487632e-04	5.727516e-04	5.158669e-04	2.633103e-04
0.0283        	1.040635e-02	8.453804e-04	5.711627e-04	5.152862e-04	2.622531e-04
0.0284        	1.038837e-02	8.419780e-04	5.696061e-04	5.148372e-04	2.620890e-04
0.0285        	1.035591e-02	8.385751e-04	5.680355e-04	5.142460e-04	2.609250e-04
0.0286        	1.031377e-02	8.352712e-04	5.664919e-04	5.137461e-04	2.604901e-04
0.0287        	1.027211e-02	8.318354e-04	5.649241e-04	5.130728e-04	2.595085e-04
0.0288        	1.024695e-02	8.283334e-04	5.633962e-04	5.124162e-04	2.592512e-04
0.0289        	1.023799e-02	8.247751e-04	5.618803e-04	5.117377e-04	2.585286e-04
0.029         	1.019830e-02	8.210903e-04	5.603380e-04	5.109872e-04	2.581727e-04
0.0291        	1.016365e-02	8.174027e-04	5.587785e-04	5.101652e-04	2.573733e-04
0.0292        	1.013029e-02	8.138255e-04	5.572153e-04	5.094114e-04	2.567799e-04
0.0293        	1.010221e-02	8.104558e-04	5.556687e-04	5.085783e-04	2.555958e-04
0.0294        	1.006740e-02	8.071545e-04	5.541180e-04	5.078918e-04	2.552401e-04
0.0295        	1.003109e-02	8.038514e-04	5.525971e-04	5.071079e-04	2.543864e-04
0.0296        	9.999999e-03	8.005069e-04	5.510799e-04	5.063579e-04	2.533666e-04
0.0297        	9.978622e-03	7.971879e-04	5.495604e-04	5.056781e-04	2.530598e-04
0.0298        	9.983900e-03	7.938590e-04	5.480777e-04	5.049750e-04	2.520939e-04
0.0299        	9.942128e-03	7.903826e-04	5.465389e-04	5.041685e-04	2.518461e-04
0.03          	9.896288e-03	7.868417e-04	5.449907e-04	5.032368e-04	2.507196e-04
0.0301        	9.858046e-03	7.832158e-04	5.434482e-04	5.023742e-04	2.504874e-04
0.0302        	9.806891e-03	7.795946e-04	5.419054e-04	5.014698e-04	2.496881e-04
0.0303        	9.773913e-03	7.758131e-04	5.403593e-04	5.004893e-04	2.489557e-04
0.0304        	9.765137e-03	7.721644e-04	5.388133e-04	4.994408e-04	2.480394e-04
0.0305        	9.723975e-03	7.687064e-04	5.372756e-04	4.984003e-04	2.473660e-04
0.0306        	9.691610e-03	7.651959e-04	5.357588e-04	4.972944e-04	2.465497e-04
0.0307        	9.655791e-03	7.616905e-04	5.342360e-04	4.961552e-04	2.457182e-04
0.0308        	9.641571e-03	7.581061e-04	5.327146e-04	4.950510e-04	2.451874e-04
0.0309        	9.640785e-03	7.544622e-04	5.312160e-04	4.940687e-04	2.440262e-04
0.031         	9.576654e-03	7.506926e-04	5.296506e-04	4.930177e-04	2.432552e-04
0.0311        	9.531482e-03	7.468970e-04	5.280740e-04	4.919822e-04	2.428588e-04
0.0312        	9.504325e-03	7.430437e-04	5.264915e-04	4.908161e-04	2.420680e-04
0.0313        	9.469347e-03	7.390528e-04	5.249025e-04	4.896816e-04	2.416460e-04
0.0314        	9.425874e-03	7.349216e-04	5.233084e-04	4.883868e-04	2.406311e-04
0.0315        	9.368342e-03	7.307155e-04	5.217125e-04	4.870816e-04	2.396154e-04
0.0316        	9.355712e-03	7.265935e-04	5.201175e-04	4.857979e-04	2.392434e-04
0.0317        	9.325860e-03	7.226693e-04	5.185001e-04	4.843430e-04	2.387912e-04
0.0318        	9.275676e-03	7.186101e-04	5.168664e-04	4.828411e-04	2.375762e-04
0.0319        	9.272586e-03	7.144448e-04	5.152369e-04	4.813358e-04	2.368300e-04
0.032         	9.187846e-03	7.101303e-04	5.136040e-04	4.797827e-04	2.359576e-04
0.0321        	9.180194e-03	7.058592e-04	5.119486e-04	4.783294e-04	2.355978e-04
0.0322        	9.171609e-03	7.015614e-04	5.103365e-04	4.767886e-04	2.345189e-04
0.0323        	9.097954e-03	6.970710e-04	5.086611e-04	4.751790e-04	2.337013e-04
0.0324        	9.075448e-03	6.924871e-04	5.069872e-04	4.736385e-04	2.326018e-04
0.0325        	9.008387e-03	6.878311e-04	5.052860e-04	4.721143e-04	2.325163e-04
0.0326        	8.947551e-03	6.830296e-04	5.035503e-04	4.703924e-04	2.313661e-04
0.0327        	8.916326e-03	6.784108e-04	5.018094e-04	4.686813e-04	2.306224e-04
0.0328        	8.874456e-03	6.737287e-04	5.000433e-04	4.668440e-04	2.295622e-04
0.0329        	8.837770e-03	6.690605e-04	4.982739e-04	4.650080e-04	2.289699e-04
0.033         	8.784262e-03	6.643684e-04	4.964894e-04	4.630800e-04	2.277807e-04
0.0331        	8.743398e-03	6.595320e-04	4.946894e-04	4.611209e-04	2.271162e-04
0.0332        	8.691391e-03	6.546339e-04	4.928736e-04	4.591239e-04	2.262974e-04
0.0333        	8.634256e-03	6.497139e-04	4.910317e-04	4.570991e-04	2.257826e-04
0.0334        	8.583966e-03	6.447312e-04	4.891722e-04	4.549975e-04	2.246235e-04
0.0335        	8.562040e-03	6.397128e-04	4.872926e-04	4.529300e-04	2.235102e-04
0.0336        	8.480623e-03	6.345414e-04	4.853965e-04	4.507472e-04	2.224273e-04
0.0337        	8.440521e-03	6.295036e-04	4.834763e-04	4.485710e-04	2.221658e-04
0.0338        	8.381903e-03	6.245217e-04	4.815524e-04	4.461833e-04	2.210035e-04
0.0339        	8.349423e-03	6.194994e-04	4.796025e-04	4.439097e-04	2.203749e-04
0.034         	8.270864e-03	6.143274e-04	4.776391e-04	4.415707e-04	2.192684e-04
0.0341        	8.283898e-03	6.092260e-04	4.756630e-04	4.393548e-04	2.189091e-04
0.0342        	8.190199e-03	6.040314e-04	4.736678e-04	4.368141e-04	2.173962e-04
0.0343        	8.135493e-03	5.988863e-04	4.716350e-04	4.344145e-04	2.170029e-04
0.0344        	8.074788e-03	5.936955e-04	4.695759e-04	4.318164e-04	2.158713e-04
0.0345        	8.009586e-03	5.885178e-04	4.675010e-04	4.292164e-04	2.147173e-04
0.0346        	7.992276e-03	5.833629e-04	4.654542e-04	4.267162e-04	2.145041e-04
0.0347        	7.938393e-03	5.783585e-04	4.633945e-04	4.240603e-04	2.132410e-04
0.0348        	7.877778e-03	5.733908e-04	4.612881e-04	4.214023e-04	2.124630e-04
0.0349        	7.807060e-03	5.683286e-04	4.591707e-04	4.186484e-04	2.110839e-04
0.035         	7.733679e-03	5.632494e-04	4.570334e-04	4.158169e-04	2.103012e-04
0.0351        	7.690311e-03	5.581997e-04	4.548783e-04	4.130050e-04	2.097205e-04
0.0352        	7.626517e-03	5.531682e-04	4.527046e-04	4.100038e-04	2.084567e-04
0.0353        	7.565749e-03	5.482098e-04	4.505083e-04	4.070954e-04	2.078401e-04
0.0354        	7.505501e-03	5.432652e-04	4.483196e-04	4.040404e-04	2.068609e-04
0.0355        	7.440849e-03	5.383322e-04	4.461141e-04	4.009228e-04	2.055082e-04
0.0356        	7.382450e-03	5.334841e-04	4.438895e-04	3.978712e-04	2.050270e-04
0.0357        	7.319522e-03	5.287698e-04	4.416414e-04	3.947230e-04	2.038472e-04
0.0358        	7.260614e-03	5.240966e-04	4.393697e-04	3.915137e-04	2.030606e-04
0.0359        	7.208101e-03	5.194402e-04	4.370947e-04	3.883689e-04	2.021748e-04
0.036         	7.141960e-03	5.147687e-04	4.348044e-04	3.851170e-04	2.008980e-04
0.0361        	7.074443e-03	5.101004e-04	4.325088e-04	3.818996e-04	2.001475e-04
0.0362        	7.019689e-03	5.054767e-04	4.302061e-04	3.786778e-04	1.990203e-04
0.0363        	6.972550e-03	5.008978e-04	4.279068e-04	3.754152e-04	1.983931e-04
0.0364        	6.887088e-03	4.963854e-04	4.256000e-04	3.720792e-04	1.969257e-04
0.0365        	6.825750e-03	4.919859e-04	4.232883e-04	3.687709e-04	1.962728e-04
0.0366        	6.764401e-03	4.877348e-04	4.209630e-04	3.653750e-04	1.952053e-04
0.0367        	6.707175e-03	4.836052e-04	4.186263e-04	3.620794e-04	1.941193e-04
0.0368        	6.651102e-03	4.795713e-04	4.162763e-04	3.587915e-04	1.929453e-04
0.0369        	6.591393e-03	4.755888e-04	4.139184e-04	3.554704e-04	1.920754e-04
0.037         	6.548815e-03	4.716319e-04	4.115477e-04	3.522013e-04	1.910190e-04
0.0371        	6.481458e-03	4.677052e-04	4.091648e-04	3.488410e-04	1.900844e-04
0.0372        	6.442259e-03	4.637342e-04	4.067861e-04	3.455808e-04	1.891237e-04
0.0373        	6.376620e-03	4.598834e-04	4.044132e-04	3.423193e-04	1.883582e-04