/*--------------------------------*- C++ -*----------------------------------*\
  =========                 |
  \\      /  F ield         | OpenFOAM: The Open Source CFD Toolbox
   \\    /   O peration     | Website:  https://openfoam.org
    \\  /    A nd           | Version:  8
     \\/     M anipulation  |
\*---------------------------------------------------------------------------*/
FoamFile
{
    version     2.0;
    format      ascii;
    class       volScalarField;
    location    "0.21";
    object      k;
}
// * * * * * * * * * * * * * * * * * * * * * * * * * * * * * * * * * * * * * //

dimensions      [0 2 -2 0 0 0 0];

internalField   nonuniform List<scalar> 
15677
(
0.334165
0.36504
0.294774
0.368733
0.35772
0.28105
0.370694
0.360094
0.366161
0.282772
0.371885
0.361641
0.361495
0.383361
0.288883
0.372611
0.363749
0.357755
0.368368
0.401706
0.300291
0.373039
0.365666
0.357861
0.358181
0.380149
0.419382
0.311785
0.373263
0.367183
0.359471
0.35461
0.36107
0.393328
0.43476
0.322589
0.373348
0.368306
0.361364
0.35479
0.353085
0.36693
0.406189
0.447866
0.332075
0.373349
0.369082
0.36307
0.356353
0.351141
0.353523
0.373584
0.418292
0.458706
0.340468
0.373314
0.369567
0.364445
0.358228
0.351945
0.348808
0.354806
0.380721
0.429107
0.467859
0.347555
0.373276
0.369823
0.365464
0.359965
0.353727
0.348399
0.347167
0.357139
0.387678
0.438837
0.475373
0.353792
0.37325
0.369925
0.366149
0.361397
0.355671
0.349775
0.345372
0.346342
0.35973
0.39447
0.447254
0.481812
0.358995
0.373241
0.369939
0.366548
0.362476
0.357429
0.351728
0.346219
0.342941
0.345909
0.362635
0.400715
0.454741
0.487122
0.363659
0.37324
0.369922
0.366736
0.363206
0.358859
0.353684
0.348081
0.343103
0.340879
0.345924
0.365501
0.406596
0.461096
0.491719
0.367725
0.37324
0.369907
0.366794
0.363632
0.359916
0.35539
0.350163
0.344757
0.340305
0.339209
0.346061
0.368418
0.411789
0.466735
0.495526
0.371334
0.37324
0.3699
0.366795
0.36383
0.360606
0.356735
0.352091
0.346885
0.341709
0.337829
0.337762
0.346398
0.371109
0.416595
0.471424
0.498898
0.374631
0.373239
0.369897
0.366784
0.363888
0.360987
0.357688
0.35369
0.34898
0.343841
0.33893
0.335597
0.336547
0.346802
0.373752
0.420679
0.475562
0.501804
0.377449
0.373238
0.369896
0.366775
0.363897
0.361136
0.358274
0.354888
0.350797
0.346067
0.341021
0.336388
0.333599
0.33548
0.347325
0.376044
0.424378
0.478972
0.504374
0.380288
0.373237
0.369896
0.366768
0.363892
0.361179
0.358544
0.355679
0.352221
0.348074
0.343346
0.338426
0.334069
0.331792
0.334601
0.347776
0.378208
0.427398
0.481966
0.506751
0.382513
0.373236
0.369896
0.366763
0.363887
0.361183
0.358649
0.356078
0.353218
0.349704
0.345517
0.340832
0.336039
0.331959
0.330193
0.333813
0.348268
0.379972
0.430099
0.484432
0.508794
0.385144
0.373235
0.369896
0.366759
0.363882
0.361175
0.358682
0.356251
0.353763
0.350891
0.347337
0.343154
0.338513
0.33387
0.33006
0.328769
0.333158
0.348648
0.381593
0.432192
0.486588
0.510927
0.386913
0.373235
0.369896
0.366757
0.363879
0.361166
0.358687
0.356314
0.354026
0.351571
0.348712
0.34515
0.340969
0.336415
0.331916
0.328381
0.32753
0.332583
0.349019
0.382808
0.434077
0.488378
0.512631
0.389516
0.373235
0.369895
0.366755
0.363876
0.361158
0.358682
0.356328
0.354141
0.351916
0.349543
0.346698
0.34313
0.339011
0.334537
0.330207
0.32692
0.326478
0.332105
0.34929
0.383936
0.435416
0.489982
0.514774
0.390953
0.373235
0.369895
0.366754
0.363874
0.361152
0.358674
0.356323
0.354182
0.352075
0.349993
0.347657
0.344852
0.341345
0.33727
0.332915
0.32874
0.325716
0.325626
0.331758
0.349548
0.384673
0.436705
0.49128
0.516213
0.393554
0.373235
0.369895
0.366753
0.363872
0.361147
0.358667
0.356312
0.354189
0.352134
0.350221
0.348188
0.345966
0.343238
0.33976
0.335803
0.331575
0.327593
0.324778
0.324997
0.331459
0.349733
0.385414
0.43748
0.492676
0.518759
0.394927
0.373236
0.369894
0.366752
0.36387
0.361144
0.358661
0.356301
0.354182
0.352147
0.350322
0.348462
0.346616
0.344472
0.341818
0.3385
0.334659
0.330575
0.326711
0.324107
0.32459
0.331435
0.349995
0.385851
0.438426
0.493561
0.520398
0.504477
0.373236
0.369894
0.366752
0.363869
0.361141
0.358655
0.356292
0.35417
0.35214
0.350354
0.348585
0.346977
0.345192
0.343222
0.340775
0.337523
0.33381
0.329879
0.326283
0.323903
0.324614
0.331524
0.350224
0.386335
0.438869
0.495521
0.529102
0.709749
0.373236
0.369893
0.366752
0.363867
0.361139
0.358651
0.356284
0.354158
0.352126
0.350353
0.348627
0.347155
0.345591
0.344092
0.342303
0.33993
0.336959
0.33355
0.329881
0.326365
0.324045
0.324815
0.331761
0.350537
0.3867
0.439771
0.496123
0.545844
0.883977
0.373237
0.369893
0.366752
0.363866
0.361138
0.358647
0.356279
0.354147
0.352111
0.350338
0.34863
0.347225
0.345788
0.34461
0.343222
0.341669
0.339771
0.33704
0.333752
0.330168
0.326746
0.324483
0.325298
0.332248
0.350978
0.387111
0.44045
0.495841
0.55855
1.02451
0.373237
0.369893
0.366752
0.363865
0.361137
0.358644
0.356274
0.354138
0.352097
0.350318
0.348615
0.347236
0.34587
0.344887
0.343755
0.342818
0.341735
0.340019
0.337478
0.334374
0.330921
0.327602
0.325381
0.326221
0.333055
0.351562
0.387724
0.440198
0.494344
0.567933
1.14576
0.373237
0.369892
0.366753
0.363864
0.361137
0.358641
0.35627
0.35413
0.352086
0.3503
0.348593
0.347219
0.34589
0.345009
0.344038
0.343536
0.342974
0.342149
0.340737
0.338471
0.335652
0.332392
0.329137
0.326866
0.327552
0.334181
0.352399
0.388206
0.439283
0.491185
0.574329
1.2436
0.373237
0.369892
0.366753
0.363863
0.361136
0.358639
0.356268
0.354124
0.352077
0.350284
0.348572
0.347191
0.345878
0.345039
0.34417
0.343951
0.343755
0.343537
0.343117
0.342188
0.340339
0.337762
0.334605
0.331325
0.328888
0.329337
0.335661
0.353429
0.38855
0.437378
0.485775
0.578455
1.31533
0.373238
0.369891
0.366753
0.363862
0.361136
0.358637
0.356265
0.354118
0.352069
0.35027
0.348553
0.347163
0.34585
0.345024
0.344224
0.344163
0.344216
0.344429
0.344732
0.344974
0.344567
0.343073
0.340704
0.337602
0.334192
0.331515
0.331579
0.33751
0.354648
0.388495
0.434125
0.478997
0.581077
1.36957
0.373238
0.369891
0.366753
0.363861
0.361136
0.358635
0.356263
0.354113
0.352062
0.350258
0.348536
0.347137
0.34582
0.344989
0.344226
0.344239
0.34446
0.344973
0.345812
0.346884
0.347782
0.347922
0.346771
0.344574
0.341429
0.337815
0.334747
0.33432
0.339719
0.35598
0.388199
0.429817
0.472222
0.583284
1.41232
0.369891
0.373242
0.366754
0.363861
0.361136
0.358633
0.356262
0.354109
0.352056
0.350248
0.348521
0.347115
0.345791
0.344951
0.344199
0.344251
0.344569
0.34528
0.3465
0.348187
0.350038
0.351669
0.352375
0.351547
0.349433
0.346168
0.342197
0.338639
0.337527
0.342265
0.357566
0.387518
0.425341
0.46585
0.585555
1.44744
0.366754
0.369901
0.373249
0.36386
0.361136
0.358631
0.356261
0.354105
0.352052
0.350239
0.348509
0.347096
0.345765
0.344916
0.344163
0.34423
0.344603
0.345441
0.34692
0.349055
0.351629
0.354362
0.35678
0.35806
0.357482
0.355377
0.351835
0.347402
0.343146
0.341211
0.345474
0.359537
0.386609
0.420939
0.460136
0.58823
1.47748
0.363859
0.366771
0.369921
0.373257
0.361136
0.35863
0.35626
0.354101
0.352048
0.350231
0.348498
0.347079
0.345742
0.344885
0.344127
0.344198
0.344598
0.345515
0.347173
0.349627
0.352742
0.356328
0.360025
0.363275
0.365085
0.364686
0.362431
0.358499
0.353383
0.348289
0.34579
0.349374
0.361657
0.385729
0.416881
0.455117
0.591242
1.50397
0.361136
0.363881
0.366805
0.369942
0.373265
0.358629
0.356259
0.354098
0.352045
0.350224
0.348489
0.347064
0.345722
0.344857
0.344093
0.344164
0.344577
0.345542
0.347321
0.350008
0.353526
0.357769
0.362476
0.36721
0.371283
0.373579
0.3732
0.370676
0.366116
0.360166
0.354656
0.351525
0.353589
0.363957
0.384939
0.413145
0.450826
0.594741
1.52795
0.358628
0.361163
0.363925
0.36684
0.369964
0.373273
0.356258
0.354096
0.352042
0.350218
0.348482
0.347052
0.345705
0.344833
0.344064
0.344133
0.344553
0.345548
0.347409
0.350273
0.354099
0.358851
0.364356
0.370284
0.376076
0.380962
0.383602
0.383122
0.380069
0.374719
0.368533
0.362549
0.357827
0.358091
0.366403
0.384368
0.409813
0.447175
0.598462
1.54996
0.356258
0.358658
0.361219
0.363971
0.366875
0.369986
0.373282
0.354093
0.35204
0.350212
0.348476
0.34704
0.34569
0.344812
0.344038
0.344105
0.34453
0.345546
0.347466
0.350465
0.354546
0.359705
0.365852
0.372745
0.379941
0.386808
0.392392
0.395271
0.39441
0.390658
0.385306
0.378861
0.371179
0.364609
0.362835
0.369032
0.384021
0.406844
0.444116
0.602541
1.57048
0.354091
0.356294
0.358722
0.361276
0.364018
0.366912
0.370009
0.373291
0.352038
0.350207
0.348471
0.34703
0.345678
0.344794
0.344016
0.344081
0.344509
0.345542
0.347509
0.350614
0.354907
0.360425
0.367108
0.374807
0.383169
0.391676
0.399519
0.405723
0.40855
0.40713
0.403678
0.398352
0.390119
0.380439
0.371781
0.367774
0.371783
0.384062
0.404349
0.441491
0.606673
1.58963
0.352037
0.354129
0.356367
0.358788
0.361335
0.364066
0.36695
0.370033
0.373299
0.350203
0.348466
0.347021
0.345667
0.344778
0.343996
0.344061
0.344492
0.34554
0.347545
0.350739
0.35521
0.361049
0.368232
0.376632
0.385995
0.3959
0.405647
0.414407
0.420937
0.423544
0.422767
0.419709
0.412551
0.40217
0.39021
0.379255
0.372875
0.374568
0.384248
0.402194
0.439335
0.611011
1.6077
0.350199
0.352079
0.354207
0.356442
0.358855
0.361396
0.364115
0.366989
0.370057
0.373309
0.348463
0.347013
0.345659
0.344764
0.34398
0.344043
0.344477
0.345538
0.347578
0.350851
0.355476
0.361594
0.369252
0.378339
0.388605
0.399746
0.411147
0.422102
0.43149
0.438194
0.442006
0.442041
0.437149
0.427727
0.414856
0.400371
0.386949
0.378122
0.377391
0.384644
0.400442
0.437509
0.615277
1.62462
0.34846
0.35024
0.352165
0.354288
0.35652
0.358924
0.361458
0.364166
0.367029
0.370082
0.373318
0.347005
0.345651
0.344751
0.343965
0.344027
0.344464
0.345538
0.347609
0.350952
0.355716
0.362084
0.370172
0.379945
0.391138
0.403432
0.416335
0.429233
0.441099
0.450989
0.459564
0.464875
0.463051
0.455784
0.443676
0.42802
0.410809
0.394786
0.383455
0.380235
0.385237
0.39894
0.436033
0.619634
1.64067
0.346998
0.348503
0.350328
0.352254
0.354372
0.3566
0.358996
0.361522
0.364218
0.36707
0.370107
0.373328
0.345645
0.34474
0.343953
0.344014
0.344454
0.345539
0.347638
0.351046
0.355936
0.362533
0.371014
0.381423
0.393584
0.40712
0.421466
0.436177
0.450272
0.46295
0.475277
0.486235
0.489954
0.485559
0.475375
0.460204
0.441511
0.42141
0.402692
0.388815
0.383115
0.386022
0.397779
0.434804
0.623835
1.65567
0.345641
0.347037
0.348595
0.350418
0.352346
0.354458
0.356682
0.359069
0.361587
0.364272
0.367111
0.370134
0.373337
0.344729
0.343942
0.344003
0.344446
0.34554
0.347665
0.351132
0.356137
0.362945
0.371791
0.382794
0.395881
0.41077
0.426732
0.443241
0.459465
0.474703
0.49038
0.505859
0.515709
0.517011
0.509325
0.495702
0.477124
0.455182
0.43207
0.410596
0.394163
0.385985
0.386856
0.396848
0.433843
0.628052
1.66993
0.34472
0.345678
0.347123
0.34869
0.350511
0.35244
0.354546
0.356767
0.359145
0.361655
0.364327
0.367155
0.370161
0.373347
0.343933
0.343994
0.344438
0.345542
0.34769
0.351211
0.356322
0.363325
0.372509
0.384071
0.398041
0.414256
0.432049
0.450672
0.469064
0.486811
0.505655
0.525309
0.539999
0.547773
0.545759
0.534094
0.516539
0.494256
0.468896
0.442691
0.418435
0.399455
0.388875
0.387727
0.396159
0.433054
0.632058
1.68319
0.343926
0.344745
0.345761
0.347211
0.348789
0.350607
0.352538
0.354637
0.356854
0.359222
0.361724
0.364384
0.367198
0.370187
0.373356
0.343985
0.344431
0.345544
0.347713
0.351284
0.356492
0.363673
0.373173
0.38526
0.400072
0.417568
0.437202
0.458339
0.479388
0.499769
0.521834
0.545618
0.564805
0.57756
0.582168
0.575918
0.559616
0.537691
0.511437
0.482532
0.453192
0.426155
0.40466
0.391754
0.388639
0.395614
0.432466
0.636043
1.69582
0.343979
0.343938
0.344806
0.345846
0.347302
0.348891
0.350707
0.352638
0.354731
0.356943
0.359302
0.361795
0.364442
0.367242
0.370213
0.373365
0.344424
0.345546
0.347734
0.35135
0.356647
0.363993
0.373784
0.386363
0.401976
0.420708
0.442164
0.465904
0.490225
0.514012
0.539612
0.567822
0.591534
0.608905
0.618381
0.618649
0.607216
0.585636
0.558964
0.528524
0.495988
0.4635
0.43371
0.409752
0.3946
0.389575
0.395246
0.43199
0.639781
1.70749
0.34442
0.343967
0.343972
0.344867
0.345936
0.347397
0.348997
0.35081
0.352742
0.354828
0.357035
0.359384
0.361867
0.3645
0.367284
0.370239
0.373374
0.345546
0.347753
0.351411
0.356788
0.364286
0.374345
0.387383
0.403753
0.423673
0.446925
0.473284
0.501051
0.529297
0.559671
0.59298
0.621714
0.643824
0.657733
0.662384
0.657013
0.639405
0.611929
0.580184
0.545394
0.509177
0.473556
0.441062
0.414708
0.397394
0.390534
0.394961
0.431665
0.643481
1.71863
0.34555
0.34438
0.343939
0.344013
0.344931
0.346032
0.347496
0.349107
0.350915
0.352848
0.354927
0.357129
0.359468
0.361939
0.364556
0.367325
0.370263
0.373382
0.347768
0.351466
0.356918
0.364554
0.374861
0.388325
0.405406
0.426458
0.451465
0.480426
0.511732
0.544943
0.58175
0.622205
0.657097
0.684811
0.703352
0.711704
0.709625
0.697114
0.672274
0.638302
0.601204
0.561946
0.522028
0.483314
0.448182
0.419509
0.400122
0.391501
0.394813
0.43141
0.646912
1.72887
0.347789
0.34547
0.344294
0.343897
0.344066
0.344998
0.346133
0.347599
0.34922
0.351025
0.352958
0.35503
0.357225
0.359551
0.362009
0.36461
0.367365
0.370287
0.373391
0.351514
0.357034
0.364798
0.375332
0.389192
0.406937
0.429064
0.45577
0.487286
0.522217
0.560769
0.604758
0.655295
0.69996
0.735333
0.759721
0.771712
0.771542
0.760275
0.73886
0.705648
0.664593
0.621898
0.578097
0.534488
0.492739
0.455045
0.424141
0.402773
0.392472
0.394701
0.431266
0.650308
1.73867
0.351568
0.347644
0.345287
0.344202
0.343859
0.344131
0.34507
0.34624
0.347706
0.349337
0.351138
0.35307
0.355135
0.35732
0.359633
0.362076
0.364663
0.367403
0.370311
0.373399
0.357139
0.365018
0.375762
0.389987
0.408352
0.431492
0.459827
0.493836
0.53246
0.576617
0.628226
0.69101
0.751519
0.800736
0.833713
0.850214
0.850833
0.838013
0.8145
0.782168
0.739382
0.690668
0.642164
0.593785
0.546516
0.501803
0.461638
0.428594
0.405336
0.393437
0.394701
0.431161
0.653428
1.74651
0.357246
0.351341
0.347292
0.345095
0.344119
0.34383
0.344204
0.345146
0.346351
0.347817
0.349458
0.351255
0.353185
0.355239
0.357413
0.359712
0.362142
0.364715
0.367441
0.370333
0.373406
0.365218
0.376153
0.390715
0.409656
0.433748
0.463636
0.50006
0.542404
0.592286
0.651942
0.729532
0.811622
0.885234
0.935237
0.958514
0.959417
0.942011
0.911502
0.872298
0.82691
0.773332
0.716416
0.661925
0.608957
0.558084
0.51049
0.467948
0.43286
0.407806
0.394389
0.394721
0.431152
0.656098
1.75311
0.365415
0.356912
0.350757
0.346924
0.344918
0.344046
0.34381
0.344284
0.345228
0.346467
0.347933
0.349582
0.351375
0.353299
0.355341
0.357503
0.359788
0.362206
0.364765
0.367477
0.370355
0.373414
0.37651
0.391379
0.410854
0.435837
0.467198
0.505949
0.551989
0.607612
0.675924
0.771451
0.880934
0.987785
1.0696
1.10984
1.11215
1.08787
1.04509
0.99169
0.933375
0.872862
0.807347
0.74174
0.681119
0.623579
0.569171
0.518791
0.47397
0.436936
0.410177
0.395325
0.394767
0.431164
0.658313
1.76022
0.376851
0.364944
0.355999
0.350149
0.346581
0.344757
0.343982
0.3438
0.344368
0.345317
0.346586
0.348054
0.349709
0.351495
0.35341
0.35544
0.35759
0.359863
0.362268
0.364814
0.367512
0.370377
0.373421
0.39199
0.411953
0.437769
0.470519
0.511498
0.561167
0.622504
0.700316
0.816941
0.958701
1.10537
1.22933
1.30599
1.32247
1.29179
1.23314
1.15836
1.07752
0.997131
0.9197
0.84126
0.76655
0.699698
0.637624
0.579767
0.5267
0.479702
0.440819
0.412448
0.396243
0.394834
0.431195
0.660747
1.76798
0.392559
0.376208
0.363572
0.355055
0.349575
0.346262
0.344608
0.343929
0.3438
0.344456
0.345414
0.346709
0.34818
0.349835
0.351613
0.353518
0.355537
0.357676
0.359936
0.362329
0.364861
0.367547
0.370397
0.373425
0.41297
0.439551
0.473607
0.516708
0.569907
0.63694
0.725218
0.865481
1.04253
1.23278
1.40505
1.5301
1.58595
1.56528
1.49127
1.39089
1.27906
1.1674
1.06273
0.967016
0.874887
0.790766
0.717627
0.651079
0.589869
0.534218
0.485146
0.444511
0.414615
0.397019
0.394906
0.431248
0.66339
1.77639
0.413898
0.391711
0.374198
0.36216
0.354157
0.349031
0.345964
0.344472
0.343887
0.343813
0.344546
0.34552
0.346834
0.348308
0.349958
0.351728
0.353623
0.355631
0.357758
0.360007
0.362387
0.364907
0.36758
0.370408
0.373425
0.441209
0.476476
0.521585
0.578199
0.650921
0.750581
0.916042
1.12944
1.36441
1.58788
1.76798
1.87751
1.89821
1.82907
1.70366
1.55627
1.4041
1.25953
1.12922
1.01436
0.90804
0.814312
0.734879
0.663936
0.599477
0.54135
0.490305
0.448013
0.416407
0.39769
0.394995
0.431359
0.666323
1.7856
0.442697
0.412798
0.388818
0.372143
0.360815
0.353301
0.348511
0.345687
0.344346
0.343853
0.343845
0.344636
0.345635
0.346958
0.348433
0.350077
0.35184
0.353725
0.355723
0.357839
0.360076
0.362444
0.364952
0.367597
0.370408
0.373425
0.479157
0.526148
0.58605
0.664459
0.776222
0.967442
1.21674
1.49569
1.77068
2.00897
2.18023
2.25945
2.23254
2.10555
1.92269
1.72487
1.53058
1.35217
1.19567
1.06127
0.940532
0.837125
0.751436
0.676192
0.608598
0.548102
0.495185
0.450891
0.417935
0.398439
0.395119
0.431491
0.669501
1.79559
0.481524
0.441291
0.408687
0.385884
0.370183
0.359527
0.352478
0.34801
0.345429
0.344231
0.343823
0.343902
0.344726
0.345754
0.34708
0.348557
0.350194
0.351949
0.353825
0.355812
0.357917
0.360143
0.3625
0.364974
0.367597
0.370408
0.373425
0.530432
0.593487
0.677569
0.801891
1.0186
1.30241
1.62347
1.94855
2.24536
2.4824
2.63016
2.66589
2.58046
2.38794
2.14325
1.89304
1.65606
1.44382
1.26123
1.10734
0.972193
0.859145
0.767283
0.687853
0.617241
0.554485
0.499186
0.453335
0.419616
0.399279
0.395267
0.431709
0.673043
1.80653
0.534174
0.479759
0.435497
0.404557
0.383084
0.3683
0.358284
0.351685
0.34753
0.345188
0.344127
0.343786
0.343977
0.344817
0.345874
0.347199
0.348678
0.350308
0.352056
0.353922
0.355899
0.357993
0.360208
0.362527
0.364974
0.367597
0.370408
0.373425
0.600552
0.690276
0.827347
1.06864
1.38503
1.74575
2.11846
2.47207
2.77552
2.99727
3.10822
3.08843
2.93499
2.67081
2.36139
2.05802
1.77866
1.53327
1.32518
1.1522
1.00287
0.880324
0.782415
0.698927
0.62542
0.559715
0.502577
0.456013
0.421468
0.400219
0.395472
0.431953
0.676877
1.81838
0.60672
0.531954
0.471615
0.429736
0.400613
0.380388
0.366476
0.35708
0.350921
0.347075
0.344964
0.344034
0.343755
0.344063
0.344908
0.345993
0.347316
0.348796
0.350419
0.352159
0.354016
0.355983
0.358067
0.36024
0.362527
0.364974
0.367597
0.370408
0.373425
0.70258
0.852374
1.11696
1.46375
1.86141
2.27868
2.68602
3.05385
3.35078
3.54437
3.60604
3.5198
3.29026
2.94985
2.57411
2.21777
1.89702
1.61961
1.387
1.19557
1.03245
0.900627
0.796834
0.709424
0.632128
0.564148
0.506287
0.458949
0.42351
0.401278
0.395709
0.432323
0.681187
1.83139
0.71342
0.603959
0.520414
0.46361
0.42423
0.396805
0.377769
0.364706
0.355918
0.350189
0.346647
0.344761
0.343952
0.343737
0.344152
0.345
0.346111
0.347431
0.348912
0.350527
0.35226
0.354108
0.356065
0.358104
0.36024
0.362527
0.364974
0.367597
0.370408
0.373421
0.876738
1.16314
1.53807
1.96985
2.42835
2.88555
3.31383
3.6836
3.96202
4.11527
4.11595
3.95348
3.64131
3.22166
2.77925
2.37089
2.01021
1.70224
1.44627
1.2372
1.06082
0.92003
0.810543
0.71805
0.637817
0.568994
0.510347
0.462172
0.425767
0.402465
0.396032
0.432727
0.685845
1.84542
0.710086
0.898191
0.586966
0.509293
0.455956
0.418906
0.393101
0.375224
0.362992
0.354798
0.349492
0.346248
0.344577
0.343886
0.343732
0.344242
0.345094
0.346226
0.347545
0.349024
0.350633
0.352359
0.354197
0.356106
0.358103
0.36024
0.362527
0.364974
0.367597
0.370397
0.373414
1.20682
1.60779
2.07091
2.56719
3.06995
3.55363
3.99127
4.35201
4.60064
4.70191
4.63069
4.38355
3.98396
3.48365
2.97525
2.51647
2.11765
1.78075
1.50273
1.27697
1.08793
0.938519
0.821837
0.725375
0.644041
0.574298
0.514795
0.465713
0.428263
0.403812
0.396399
0.433313
0.69114
1.86083
0.683399
0.895384
1.24447
0.571106
0.498682
0.448542
0.413721
0.389495
0.372753
0.361337
0.353725
0.34883
0.345881
0.344416
0.343836
0.34374
0.34433
0.345191
0.346338
0.347657
0.349134
0.350736
0.352455
0.354241
0.356106
0.358103
0.36024
0.362527
0.364974
0.36758
0.370376
0.373406
1.67272
2.16465
2.69532
3.23922
3.77265
4.27151
4.70843
5.05017
5.25829
5.29641
5.14335
4.80478
4.31478
3.73387
3.16111
2.654
2.21904
1.85493
1.55623
1.31476
1.11374
0.953775
0.831443
0.733399
0.650858
0.580106
0.519671
0.469608
0.431029
0.405323
0.396896
0.433947
0.696844
1.87738
0.658957
0.852326
1.24258
1.72805
0.556196
0.488384
0.441316
0.408668
0.385991
0.370363
0.359744
0.3527
0.348211
0.345552
0.344278
0.343801
0.343763
0.344416
0.34529
0.346448
0.347767
0.349241
0.350837
0.352502
0.354241
0.356106
0.358103
0.36024
0.362527
0.364952
0.367546
0.370355
0.373398
2.25109
2.81312
3.39386
3.97121
4.52383
5.02836
5.4559
5.7695
5.92674
5.89104
5.6475
5.21258
4.63105
3.97096
3.33628
2.78325
2.31427
1.92471
1.60673
1.35055
1.13499
0.966759
0.841981
0.742196
0.658328
0.586472
0.525022
0.473897
0.434096
0.407048
0.397451
0.434837
0.703418
1.89556
0.636417
0.811866
1.17873
1.72811
2.3244
0.54184
0.478332
0.434273
0.403753
0.382597
0.368058
0.358217
0.351732
0.347647
0.345266
0.344162
0.343776
0.343806
0.344499
0.345391
0.346555
0.347875
0.349346
0.350887
0.352501
0.35424
0.356106
0.358103
0.36024
0.362499
0.364907
0.367512
0.370332
0.37339
2.92086
3.53467
4.15035
4.74903
5.31137
5.81394
6.22487
6.50173
6.59782
6.47833
6.13723
5.6031
4.93074
4.19411
3.50049
2.90419
2.40339
1.99014
1.65421
1.37987
1.15306
0.981009
0.853552
0.751851
0.666524
0.593456
0.530899
0.478623
0.437507
0.408987
0.398198
0.435803
0.710464
1.91492
0.615178
0.774014
1.11603
1.64563
2.3276
3.01155
0.527882
0.468526
0.427424
0.398989
0.37932
0.365844
0.35677
0.350845
0.347142
0.345022
0.344063
0.343749
0.343864
0.344578
0.345492
0.34666
0.347983
0.349397
0.350886
0.352501
0.35424
0.356106
0.358104
0.360208
0.362443
0.36486
0.367476
0.37031
0.373382
3.66226
4.31149
4.94895
5.55896
6.12389
6.61905
7.00725
7.2388
7.26347
7.05111
6.6073
5.97329
5.21251
4.4029
3.65376
3.01698
2.48655
2.05131
1.69286
1.40469
1.17285
0.99666
0.866269
0.762458
0.675525
0.601127
0.537362
0.483839
0.441297
0.411214
0.39903
0.437114
0.718718
1.93621
0.594945
0.738366
1.05475
1.56275
2.22847
3.01835
3.76828
0.51429
0.458991
0.420787
0.394387
0.376169
0.363741
0.355439
0.350048
0.346689
0.344811
0.343981
0.343724
0.343931
0.344657
0.345595
0.346765
0.348037
0.349395
0.350886
0.352501
0.35424
0.356106
0.358066
0.360142
0.362386
0.364812
0.367439
0.370286
0.373374
4.45576
5.12592
5.77406
6.38809
6.95145
7.43578
7.79554
7.97271
7.91567
7.6027
7.05334
6.32097
5.47556
4.59728
3.79632
3.12191
2.56399
2.10085
1.72545
1.43175
1.19452
1.01386
0.880256
0.774121
0.685419
0.60956
0.544474
0.4896
0.445528
0.413719
0.400135
0.438561
0.727512
1.95859
0.575593
0.704791
0.994742
1.47965
2.12796
2.90406
3.7778
4.57322
0.501082
0.449753
0.414379
0.389961
0.373174
0.361803
0.35424
0.349333
0.346289
0.34463
0.343913
0.343707
0.344003
0.344736
0.345701
0.346815
0.348035
0.349394
0.350886
0.352501
0.354241
0.356065
0.357992
0.360074
0.362327
0.364763
0.367402
0.370262
0.373365
5.28178
5.96031
6.61094
7.22538
7.78614
8.2575
8.58256
8.69532
8.54653
8.12716
7.47195
6.64471
5.71963
4.7775
3.92855
3.2193
2.62647
2.14247
1.76083
1.46126
1.21827
1.03276
0.895652
0.786958
0.696307
0.618841
0.552312
0.495974
0.450242
0.416617
0.401376
0.440257
0.737975
1.98752
0.55706
0.673303
0.936176
1.39603
2.02609
2.78791
3.64879
4.58285
5.40476
0.48829
0.440844
0.408219
0.385753
0.370412
0.360055
0.35316
0.348692
0.345937
0.344475
0.343856
0.343699
0.344079
0.344823
0.345754
0.346809
0.348035
0.349394
0.350886
0.352502
0.354196
0.355982
0.357915
0.360005
0.362266
0.364713
0.367363
0.370238
0.373356
6.12057
6.79782
7.44707
8.06247
8.62217
9.07839
9.36097
9.3982
9.14857
8.61952
7.86072
6.94384
5.94494
4.94403
4.05089
3.29765
2.67883
2.18749
1.79921
1.49342
1.24427
1.05354
0.912607
0.801101
0.708301
0.629066
0.560957
0.50303
0.455525
0.419883
0.402986
0.442171
0.751063
2.022
0.539308
0.643936
0.879505
1.31185
1.92243
2.6697
3.51821
4.43828
5.40998
6.24173
0.475949
0.432293
0.402366
0.381873
0.367918
0.358478
0.352189
0.348121
0.345628
0.34434
0.343811
0.343705
0.344169
0.344859
0.34575
0.346807
0.348035
0.349395
0.350887
0.352454
0.354105
0.355896
0.357836
0.359934
0.362204
0.364662
0.367324
0.370213
0.373347
6.95297
7.62414
8.2731
8.8942
9.4552
9.89281
10.1229
10.0728
9.71498
9.07591
8.21827
7.21843
6.15204
5.09747
4.149
3.36318
2.73532
2.23615
1.84082
1.52842
1.27273
1.07638
0.931288
0.816693
0.721526
0.640345
0.570506
0.51086
0.461428
0.423679
0.404815
0.44484
0.768482
2.05632
0.522313
0.616663
0.825328
1.22743
1.81665
2.54893
3.38554
4.29342
5.24733
6.2365
7.06402
0.464103
0.424185
0.396973
0.378371
0.365668
0.357057
0.351317
0.347612
0.345356
0.344223
0.343783
0.343738
0.344212
0.344844
0.345751
0.346807
0.348035
0.349397
0.350836
0.352357
0.354013
0.355809
0.357755
0.359861
0.36214
0.364609
0.367283
0.370187
0.373337
7.76271
8.42849
9.08422
9.7173
10.2817
10.6948
10.8596
10.7105
10.2399
9.49378
8.54429
7.46906
6.34169
5.21994
4.23086
3.43372
2.79622
2.2887
1.88589
1.56649
1.30386
1.10148
0.951874
0.833895
0.736124
0.6528
0.581068
0.51955
0.468067
0.427983
0.407556
0.448455
0.787478
2.09012
0.506073
0.59138
0.774296
1.14333
1.70869
2.42501
3.25029
4.14731
5.08698
6.05089
7.04102
7.85303
0.452876
0.416733
0.392108
0.375211
0.363638
0.355777
0.350535
0.347156
0.345114
0.344131
0.343788
0.343743
0.344202
0.344841
0.345751
0.346808
0.348037
0.349345
0.350733
0.352257
0.353918
0.355719
0.357672
0.359786
0.362075
0.364555
0.367241
0.37016
0.373328
8.53705
9.2064
9.87663
10.5294
11.0994
11.4766
11.5619
11.3032
10.719
9.87202
8.83931
7.69674
6.49207
5.32177
4.31874
3.50956
2.86177
2.34537
1.93461
1.60783
1.33785
1.12903
0.974554
0.852878
0.752247
0.66657
0.59276
0.529222
0.475516
0.43392
0.411278
0.452645
0.80848
2.12319
0.490706
0.567921
0.727022
1.06034
1.59869
2.2975
3.11163
3.99954
4.92735
5.8721
6.82517
7.80244
8.59449
0.442571
0.410028
0.387725
0.372363
0.361808
0.354624
0.34983
0.346746
0.344915
0.344089
0.343779
0.343714
0.344204
0.344841
0.345751
0.346815
0.347983
0.349238
0.350629
0.352155
0.35382
0.355627
0.357587
0.359709
0.362007
0.364499
0.367198
0.370133
0.373318
9.26835
9.94581
10.6393
11.3203
11.9009
12.2312
12.2191
11.8437
11.1495
10.2108
9.10454
7.87563
6.61647
5.43067
4.41293
3.59098
2.93224
2.40638
1.98722
1.65266
1.37493
1.15926
0.999528
0.873829
0.770066
0.681805
0.60573
0.539994
0.485484
0.44169
0.415708
0.457693
0.831534
2.15505
0.476591
0.546268
0.683968
0.979457
1.48701
2.16617
2.96875
3.84914
4.76819
5.6975
6.62303
7.54798
8.50009
9.283
0.433324
0.403998
0.383776
0.369796
0.360159
0.353584
0.349193
0.346395
0.344794
0.344053
0.343745
0.343712
0.344204
0.344844
0.345755
0.346765
0.347873
0.34913
0.350522
0.352051
0.353721
0.355533
0.3575
0.359631
0.361938
0.364442
0.367155
0.370107
0.373309
9.95414
10.656
11.3875
12.0965
12.679
12.9449
12.8206
12.3268
11.5308
10.5114
9.31046
8.02261
6.74874
5.54684
4.51365
3.6782
3.00784
2.47195
2.04391
1.70115
1.41527
1.19235
1.027
0.896942
0.78976
0.698684
0.620127
0.554247
0.498229
0.450414
0.42095
0.46347
0.856797
2.18574
0.463901
0.52673
0.645256
0.901924
1.37426
2.03096
2.82096
3.69495
4.60839
5.52693
6.43048
7.31604
8.199
9.11481
9.90301
0.425039
0.398577
0.380222
0.367483
0.358669
0.352642
0.348641
0.346149
0.344713
0.344005
0.343744
0.343712
0.344203
0.34486
0.345702
0.346658
0.347763
0.34902
0.350413
0.351944
0.353619
0.355436
0.35741
0.35955
0.361867
0.364384
0.367111
0.370081
0.373299
10.5885
11.3363
12.1268
12.8609
13.4276
13.6048
13.3573
12.7495
11.8637
10.7413
9.47811
8.17762
6.88884
5.67038
4.62109
3.77142
3.08877
2.54227
2.10484
1.75348
1.45907
1.2285
1.05716
0.922412
0.811527
0.717374
0.639103
0.572252
0.512124
0.460179
0.426941
0.470536
0.884732
2.21467
0.452521
0.509286
0.611955
0.829956
1.26137
1.89197
2.66763
3.53577
4.44649
5.35915
6.24725
7.10124
7.93003
8.75992
9.64084
10.4455
0.417622
0.393705
0.377023
0.365394
0.357319
0.351819
0.348237
0.345994
0.344647
0.344005
0.343744
0.343715
0.344214
0.344824
0.345594
0.346552
0.347652
0.348907
0.350302
0.351835
0.353514
0.355337
0.357319
0.359468
0.361795
0.364327
0.367069
0.370056
0.373291
11.1713
11.9924
12.8602
13.6163
14.1373
14.1967
13.8221
13.1117
12.1131
10.9261
9.65298
8.34022
7.0366
5.80128
4.73534
3.8708
3.17519
2.61747
2.17017
1.80979
1.50647
1.26788
1.09019
0.950438
0.835537
0.741935
0.662905
0.591597
0.527258
0.471022
0.434116
0.47867
0.915393
2.24171
0.442343
0.493616
0.583861
0.766282
1.15055
1.74954
2.50824
3.37038
4.28086
5.1924
6.07176
6.90294
7.68785
8.44671
9.21741
10.0693
10.9096
0.410984
0.389329
0.374139
0.363503
0.356135
0.3512
0.347993
0.345899
0.344648
0.344005
0.343746
0.343746
0.344171
0.344736
0.345491
0.346445
0.34754
0.348791
0.350188
0.351723
0.353406
0.355236
0.357224
0.359384
0.361723
0.364271
0.367028
0.370031
0.373282
11.7077
12.6357
13.5911
14.3494
14.7911
14.7072
14.2119
13.3759
12.3104
11.116
9.83398
8.50971
7.19162
5.93938
4.85637
3.97638
3.26719
2.69767
2.23998
1.87017
1.55757
1.31062
1.12627
0.981169
0.866937
0.772509
0.688232
0.612343
0.543689
0.483197
0.442267
0.488509
0.949231
2.26679
0.433261
0.479509
0.559878
0.712249
1.04636
1.60535
2.34242
3.19751
4.10967
5.02468
5.90197
6.71896
7.47129
8.17189
8.85115
9.56053
10.3865
11.2926
0.405042
0.38539
0.371531
0.36184
0.355225
0.350835
0.347866
0.3459
0.344647
0.344006
0.343783
0.343742
0.344081
0.344656
0.345389
0.346335
0.347426
0.348673
0.350072
0.351608
0.353296
0.355133
0.357128
0.359301
0.361654
0.364217
0.366988
0.370008
0.373274
12.2079
13.2811
14.3205
15.0442
15.3615
15.1266
14.486
13.58
12.5089
11.309
10.0196
8.68508
7.35326
6.08434
4.98405
4.08812
3.36479
2.7829
2.31433
1.93467
1.61245
1.3568
1.16547
1.02106
0.905615
0.804693
0.715056
0.634503
0.561551
0.496667
0.451838
0.499954
0.986871
2.28885
0.42517
0.466821
0.539126
0.667054
0.952076
1.4644
2.1713
3.01593
3.93088
4.85362
5.7355
6.54678
7.27719
7.93367
8.53855
9.13133
9.77756
10.5774
11.5922
0.399712
0.381837
0.369236
0.360543
0.354698
0.350669
0.347868
0.345899
0.344648
0.344057
0.343793
0.34371
0.344004
0.344578
0.345288
0.346223
0.347311
0.348552
0.349953
0.351491
0.353183
0.355028
0.357033
0.359221
0.361586
0.364165
0.366949
0.369985
0.373265
12.6899
13.9402
15.0448
15.6908