/*--------------------------------*- C++ -*----------------------------------*\
  =========                 |
  \\      /  F ield         | OpenFOAM: The Open Source CFD Toolbox
   \\    /   O peration     | Website:  https://openfoam.org
    \\  /    A nd           | Version:  8
     \\/     M anipulation  |
\*---------------------------------------------------------------------------*/
FoamFile
{
    version     2.0;
    format      ascii;
    class       volScalarField;
    location    "0.42";
    object      k;
}
// * * * * * * * * * * * * * * * * * * * * * * * * * * * * * * * * * * * * * //

dimensions      [0 2 -2 0 0 0 0];

internalField   nonuniform List<scalar> 
15677
(
0.334152
0.365019
0.294758
0.368728
0.357695
0.28105
0.370691
0.360081
0.366151
0.282785
0.371883
0.361634
0.361489
0.383384
0.288925
0.37261
0.363743
0.357753
0.368379
0.401774
0.300367
0.373038
0.365662
0.35786
0.358187
0.380189
0.419497
0.311877
0.373263
0.367179
0.359471
0.354615
0.361091
0.393406
0.434902
0.322694
0.373348
0.368304
0.361365
0.354795
0.3531
0.366975
0.406295
0.448029
0.332169
0.373349
0.369082
0.363072
0.356358
0.351151
0.353546
0.373646
0.418426
0.458861
0.340547
0.373314
0.369567
0.364447
0.358233
0.351953
0.348821
0.354838
0.380805
0.429248
0.468002
0.347601
0.373275
0.369825
0.365466
0.359969
0.353733
0.348407
0.347181
0.357181
0.387773
0.438983
0.475481
0.353795
0.373249
0.369927
0.366152
0.361401
0.355675
0.349781
0.345377
0.346359
0.359777
0.39458
0.447386
0.48188
0.358958
0.37324
0.369941
0.366551
0.36248
0.357432
0.351731
0.346219
0.342944
0.345924
0.362693
0.400827
0.454853
0.487143
0.363564
0.373239
0.369924
0.36674
0.363211
0.358862
0.353686
0.348079
0.343099
0.340875
0.345939
0.365565
0.406706
0.461179
0.491685
0.367578
0.37324
0.369909
0.366797
0.363636
0.359918
0.355391
0.350158
0.344749
0.340292
0.339199
0.346077
0.368484
0.411893
0.466778
0.495442
0.37113
0.373239
0.369901
0.366797
0.363834
0.360608
0.356735
0.352085
0.346873
0.34169
0.337807
0.337748
0.346413
0.371181
0.416683
0.471432
0.498758
0.374377
0.373239
0.369898
0.366787
0.363892
0.360989
0.357687
0.353684
0.348967
0.343819
0.3389
0.335565
0.336525
0.346822
0.373821
0.420755
0.475527
0.501616
0.377146
0.373238
0.369896
0.366777
0.3639
0.361137
0.358272
0.354881
0.350782
0.346044
0.340988
0.336346
0.333555
0.335456
0.347341
0.376115
0.424434
0.478902
0.504139
0.37994
0.373237
0.369896
0.36677
0.363895
0.361179
0.358542
0.355671
0.352205
0.348049
0.34331
0.338377
0.334013
0.33174
0.334568
0.347797
0.378274
0.427438
0.481858
0.506476
0.382127
0.373236
0.369895
0.366766
0.363888
0.361183
0.358646
0.35607
0.353201
0.349678
0.345479
0.34078
0.335976
0.331888
0.330127
0.333781
0.348284
0.380034
0.430121
0.484295
0.508484
0.384716
0.373236
0.369894
0.366762
0.363883
0.361176
0.358679
0.356242
0.353745
0.350865
0.347296
0.343099
0.338446
0.333788
0.329974
0.328696
0.333113
0.348664
0.381655
0.432201
0.486422
0.510584
0.386456
0.373236
0.369894
0.36676
0.36388
0.361167
0.358684
0.356305
0.354008
0.351547
0.348669
0.345094
0.340899
0.336325
0.331818
0.32828
0.327438
0.332538
0.349035
0.382864
0.434074
0.48819
0.512265
0.389018
0.373236
0.369893
0.366758
0.363876
0.361159
0.358679
0.356319
0.354124
0.351892
0.349499
0.346644
0.343058
0.338915
0.33443
0.330087
0.3268
0.326381
0.332044
0.349298
0.383995
0.435406
0.489778
0.514381
0.390432
0.373236
0.369893
0.366757
0.363874
0.361153
0.358672
0.356313
0.354166
0.352051
0.349949
0.347609
0.344775
0.341246
0.33716
0.332781
0.3286
0.325576
0.325499
0.331693
0.349561
0.384729
0.436691
0.491061
0.515804
0.392992
0.373237
0.369892
0.366756
0.363872
0.361148
0.358665
0.356303
0.354175
0.352111
0.350179
0.348143
0.345885
0.343143
0.339648
0.335657
0.331417
0.32742
0.324613
0.324872
0.331382
0.349729
0.385472
0.437461
0.492447
0.518326
0.394344
0.373237
0.369892
0.366756
0.36387
0.361145
0.358659
0.356292
0.35417
0.352122
0.350284
0.348419
0.346534
0.344388
0.341699
0.338341
0.33449
0.330384
0.326525
0.323922
0.324406
0.33132
0.349985
0.385902
0.438409
0.493326
0.519954
0.503797
0.373237
0.369891
0.366755
0.363868
0.361143
0.358654
0.356283
0.35416
0.352114
0.350321
0.348542
0.346898
0.345117
0.343092
0.340619
0.33736
0.333608
0.329656
0.326022
0.323649
0.32441
0.331395
0.350198
0.386394
0.438851
0.495281
0.528635
0.708871
0.373237
0.369891
0.366755
0.363867
0.361141
0.35865
0.356276
0.35415
0.352099
0.350326
0.348583
0.347084
0.345521
0.343959
0.34217
0.33976
0.336716
0.333274
0.329579
0.326074
0.323766
0.324577
0.331605
0.350498
0.38674
0.439758
0.495877
0.545345
0.882715
0.373238
0.36989
0.366755
0.363866
0.36114
0.358647
0.35627
0.35414
0.352085
0.350316
0.348584
0.347164
0.34572
0.344481
0.343102
0.341467
0.339517
0.336767
0.333444
0.329834
0.326408
0.324158
0.325012
0.332042
0.350906
0.387163
0.440434
0.495595
0.557992
1.02274
0.373238
0.36989
0.366755
0.363864
0.361139
0.358643
0.356266
0.354132
0.352072
0.3503
0.348567
0.347186
0.3458
0.344768
0.343644
0.342616
0.341504
0.339736
0.337155
0.334011
0.330529
0.327183
0.324977
0.325859
0.332791
0.351457
0.387743
0.440182
0.494097
0.567302
1.14328
0.373238
0.36989
0.366755
0.363863
0.361138
0.358641
0.356263
0.354125
0.352062
0.350284
0.348546
0.347179
0.345817
0.344907
0.343933
0.343342
0.342747
0.341873
0.340403
0.338077
0.335198
0.331898
0.328626
0.326367
0.32711
0.333841
0.352242
0.388234
0.439264
0.490936
0.573596
1.24023
0.373238
0.36989
0.366755
0.363863
0.361137
0.358638
0.35626
0.354119
0.352053
0.35027
0.348526
0.347158
0.345804
0.344957
0.344067
0.343767
0.343536
0.343266
0.342779
0.341765
0.339837
0.3372
0.333997
0.330696
0.328274
0.328789
0.335233
0.353212
0.388521
0.437349
0.485507
0.577647
1.31099
0.373238
0.369889
0.366755
0.363862
0.361137
0.358636
0.356258
0.354114
0.352046
0.350258
0.348509
0.347134
0.345778
0.344957
0.344111
0.343993
0.344008
0.344167
0.344389
0.344535
0.344038
0.342451
0.340008
0.33685
0.333417
0.330757
0.330906
0.336963
0.354356
0.388445
0.434077
0.478717
0.58015
1.36428
0.373239
0.369889
0.366755
0.363861
0.361137
0.358634
0.356256
0.354109
0.352041
0.350247
0.348495
0.347112
0.345752
0.344933
0.344113
0.344095
0.344268
0.344723
0.345475
0.34645
0.347232
0.347258
0.345997
0.343709
0.340499
0.336858
0.333816
0.333488
0.339045
0.355586
0.388104
0.42973
0.471905
0.582324
1.40601
0.369889
0.373242
0.366756
0.36386
0.361136
0.358632
0.356255
0.354105
0.352036
0.350238
0.348482
0.347093
0.345727
0.344901
0.344094
0.344122
0.344396
0.345048
0.346178
0.347761
0.349488
0.350978
0.351541
0.350581
0.348359
0.345017
0.34102
0.337496
0.33651
0.341414
0.357054
0.387317
0.425199
0.465522
0.584502
1.44014
0.366756
0.369899
0.37325
0.36386
0.361136
0.358631
0.356254
0.354101
0.352033
0.350229
0.348472
0.347075
0.345705
0.344871
0.344067
0.344112
0.344446
0.345226
0.346617
0.348645
0.351087
0.353665
0.355909
0.357014
0.356278
0.354043
0.350416
0.345956
0.341751
0.33997
0.344427
0.35881
0.386331
0.420735
0.45976
0.587173
1.46915
0.363859
0.366772
0.36992
0.373258
0.361136
0.358629
0.356254
0.354097
0.35203
0.350221
0.348464
0.34706
0.345686
0.344844
0.344039
0.344089
0.344454
0.345319
0.346887
0.349235
0.352215
0.355636
0.35914
0.362176
0.363774
0.363186
0.360782
0.356755
0.351618
0.346593
0.344255
0.348065
0.360736
0.385266
0.416583
0.454739
0.590143
1.49461
0.361136
0.363881
0.366806
0.369941
0.373266
0.358628
0.356253
0.354094
0.352028
0.350215
0.348457
0.347047
0.345669
0.34482
0.344012
0.344064
0.344445
0.345362
0.347056
0.349637
0.353019
0.357091
0.361592
0.366088
0.369901
0.37194
0.371341
0.368643
0.363982
0.35802
0.352571
0.349594
0.351978
0.362743
0.384364
0.412774
0.450393
0.59364
1.51754
0.358627
0.361164
0.363925
0.366841
0.369963
0.373274
0.356253
0.354091
0.352026
0.350208
0.348451
0.347035
0.345656
0.344799
0.343989
0.34404
0.344431
0.345381
0.347165
0.349924
0.353615
0.358193
0.363484
0.369157
0.374657
0.379228
0.381562
0.380823
0.377579
0.372123
0.365893
0.359946
0.355436
0.356113
0.364933
0.383546
0.409366
0.446756
0.597376
1.53849
0.356252
0.358658
0.361219
0.363971
0.366877
0.369985
0.373282
0.354089
0.352025
0.350203
0.348447
0.347024
0.345644
0.344781
0.343968
0.344019
0.344417
0.345391
0.347239
0.350139
0.354086
0.359072
0.365
0.371627
0.37851
0.385022
0.390229
0.392744
0.391589
0.387623
0.38211
0.375568
0.367969
0.361691
0.360441
0.367179
0.383007
0.406294
0.443653
0.601456
1.55794
0.354086
0.356289
0.358722
0.361277
0.364018
0.366913
0.370008
0.373291
0.352024
0.350198
0.348444
0.347014
0.345634
0.344765
0.34395
0.344001
0.344404
0.345398
0.347297
0.350308
0.354473
0.359819
0.366282
0.373708
0.381742
0.389865
0.397282
0.403037
0.405444
0.403686
0.399936
0.394359
0.38606
0.37653
0.368264
0.364918
0.369624
0.382641
0.40364
0.441063
0.605659
1.576
0.352023
0.354124
0.356362
0.358787
0.361336
0.364066
0.366951
0.370032
0.3733
0.350193
0.348441
0.347005
0.345627
0.34475
0.343935
0.343985
0.344393
0.345405
0.347346
0.350452
0.354799
0.360471
0.367436
0.37556
0.384585
0.394087
0.403371
0.411621
0.417625
0.419744
0.418516
0.41503
0.407625
0.397226
0.385508
0.375072
0.369485
0.372044
0.382651
0.401388
0.438866
0.60999
1.593
0.350189
0.352066
0.354203
0.356438
0.358855
0.361396
0.364115
0.36699
0.370056
0.373309
0.348439
0.346997
0.345621
0.344738
0.343922
0.343972
0.344385
0.345412
0.347391
0.350579
0.355086
0.361043
0.368487
0.3773
0.387222
0.397948
0.408861
0.41926
0.428046
0.434134
0.437308
0.436718
0.431371
0.421728
0.408913
0.394787
0.382031
0.37415
0.374473
0.382764
0.399449
0.437075
0.614378
1.60884
0.348437
0.35023
0.352153
0.354284
0.356516
0.358924
0.361458
0.364166
0.367029
0.370081
0.373318
0.346989
0.345616
0.344726
0.343911
0.343961
0.344378
0.345419
0.347432
0.350695
0.355345
0.361558
0.369437
0.378939
0.389788
0.40166
0.414058
0.426368
0.437575
0.446757
0.45453
0.45898
0.456473
0.448745
0.436465
0.420965
0.404254
0.389068
0.378858
0.37691
0.383023
0.397837
0.435567
0.618723
1.62383
0.346982
0.348483
0.350318
0.352243
0.354367
0.356597
0.358995
0.361522
0.364219
0.36707
0.370107
0.373328
0.345612
0.344715
0.343901
0.343951
0.344372
0.345426
0.34747
0.350801
0.355581
0.362028
0.370306
0.380451
0.392271
0.405382
0.419212
0.433312
0.446709
0.458609
0.470018
0.479903
0.482649
0.47753
0.466908
0.451643
0.433236
0.413804
0.396116
0.383563
0.379332
0.383441
0.396457
0.434363
0.623077
1.63777
0.34561
0.347021
0.348577
0.350408
0.352336
0.354453
0.356679
0.359069
0.361588
0.364272
0.367112
0.370133
0.373337
0.344704
0.343893
0.343944
0.344367
0.345433
0.347505
0.350898
0.355797
0.36246
0.371108
0.381854
0.394605
0.409072
0.424512
0.440395
0.455891
0.470301
0.484972
0.499228
0.507848
0.508076
0.499647
0.485641
0.467083
0.445587
0.42334
0.40311
0.388219
0.381748
0.383999
0.395346
0.433366
0.627285
1.65098
0.344695
0.345651
0.347106
0.348674
0.350501
0.352432
0.354542
0.356764
0.359144
0.361655
0.364328
0.367155
0.37016
0.373347
0.343887
0.343937
0.344364
0.34544
0.347537
0.350986
0.355995
0.362857
0.371849
0.38316
0.396798
0.412597
0.429869
0.447857
0.465501
0.482381
0.500154
0.518469
0.531743
0.538136
0.53497
0.522574
0.504729
0.482613
0.457892
0.432774
0.409998
0.392797
0.384127
0.384586
0.394444
0.432598
0.631462
1.66323
0.343883
0.34472
0.345736
0.347195
0.348774
0.350598
0.35253
0.354633
0.356851
0.359222
0.361724
0.364385
0.367199
0.370187
0.373356
0.343931
0.34436
0.345446
0.347566
0.351067
0.356176
0.363221
0.372533
0.384375
0.398861
0.415948
0.435062
0.455561
0.475849
0.495336
0.51628
0.538634
0.556261
0.567411
0.570503
0.563052
0.546066
0.523979
0.498083
0.470042
0.442033
0.416731
0.397265
0.386487
0.385199
0.393725
0.431974
0.63544
1.67485
0.343927
0.3439
0.344781
0.345825
0.347286
0.348878
0.350697
0.352631
0.354727
0.356941
0.359302
0.361795
0.364442
0.367242
0.370213
0.373365
0.344355
0.34545
0.347592
0.351141
0.356342
0.363555
0.373163
0.385502
0.400795
0.419124
0.440062
0.463166
0.486721
0.50959
0.534027
0.560736
0.582774
0.598362
0.606053
0.604697
0.592054
0.569882
0.543214
0.513361
0.481945
0.451058
0.423274
0.401604
0.38881
0.385835
0.393147
0.431516
0.639354
1.68556
0.344353
0.343917
0.343941
0.344841
0.345918
0.347382
0.348986
0.3508
0.352736
0.354824
0.357033
0.359384
0.361867
0.3645
0.367284
0.370239
0.373374
0.345454
0.347615
0.351209
0.356493
0.363861
0.373742
0.386544
0.4026
0.422122
0.444859
0.470586
0.497583
0.52489
0.554068
0.585818
0.612779
0.632953
0.644856
0.647568
0.640506
0.62173
0.593808
0.562276
0.52834
0.493529
0.4598
0.429595
0.405797
0.391078
0.386487
0.392696
0.431158
0.643051
1.69576
0.345461
0.344316
0.343889
0.343988
0.344906
0.346017
0.347481
0.349097
0.350907
0.352843
0.354924
0.357127
0.359468
0.361939
0.364556
0.367325
0.370263
0.373382
0.347635
0.351269
0.35663
0.36414
0.374273
0.387506
0.404278
0.424938
0.449433
0.477767
0.508295
0.540549
0.576137
0.614976
0.647991
0.673617
0.689953
0.696104
0.691982
0.677774
0.651875
0.617664
0.581034
0.542931
0.504736
0.468223
0.435674
0.40983
0.39328
0.387148
0.392342
0.430916
0.646658
1.70509
0.34766
0.345387
0.344235
0.34385
0.344046
0.344974
0.346121
0.347584
0.349211
0.351017
0.352953
0.355026
0.357224
0.359551
0.362009
0.364611
0.367365
0.370287
0.373391
0.351323
0.356754
0.364394
0.374758
0.388391
0.405833
0.427572
0.45377
0.484665
0.518806
0.556386
0.599145
0.647989
0.690635
0.723742
0.745719
0.755272
0.752771
0.739438
0.716404
0.682325
0.641302
0.59938
0.557068
0.515523
0.476301
0.441494
0.413696
0.395408
0.387813
0.392075
0.430744
0.650055
1.714
0.351383
0.347523
0.34521
0.344148
0.343817
0.344114
0.345047
0.346229
0.347692
0.349329
0.351131
0.353066
0.355132
0.357319
0.359632
0.362077
0.364664
0.367403
0.370311
0.373399
0.356866
0.364624
0.375201
0.389203
0.40727
0.430027
0.457859
0.491249
0.52907
0.57225
0.622612
0.683577
0.741857
0.78859
0.818945
0.832776
0.830802
0.815607
0.790096
0.756318
0.712943
0.664606
0.61723
0.570703
0.525863
0.484016
0.447047
0.417388
0.397455
0.388475
0.391873
0.43065
0.653343
1.72111
0.356981
0.351167
0.347182
0.345025
0.344069
0.343792
0.344189
0.345125
0.346341
0.347805
0.349451
0.351248
0.353181
0.355236
0.357412
0.359711
0.362142
0.364715
0.367441
0.370333
0.373406
0.364833
0.375604
0.389946
0.408594
0.432307
0.461697
0.497504
0.539034
0.58794
0.646304
0.721883
0.801502
0.87241
0.919606
0.940009
0.93804
0.917926
0.885049
0.843986
0.79741
0.743608
0.687482
0.634523
0.5838
0.535738
0.491361
0.452328
0.420904
0.399417
0.389131
0.391731
0.430605
0.656017
1.72709
0.365039
0.356661
0.350597
0.346825
0.344855
0.344001
0.343776
0.34427
0.345209
0.346457
0.347922
0.349576
0.351369
0.353296
0.355339
0.357502
0.359788
0.362206
0.364765
0.367477
0.370355
0.373414
0.375972
0.390625
0.409811
0.43442
0.465286
0.503421
0.54864
0.603287
0.670215
0.763505
0.870328
0.974391
1.05335
1.0906
1.08977
1.06235
1.01669
0.960897
0.900884
0.839497
0.774194
0.709852
0.651214
0.596336
0.545139
0.498333
0.457336
0.424242
0.401292
0.389775
0.391634
0.430609
0.658353
1.73352
0.376323
0.364587
0.355769
0.350005
0.346492
0.3447
0.343943
0.34377
0.344355
0.345301
0.346577
0.348045
0.349703
0.35149
0.353407
0.355438
0.35759
0.359863
0.362268
0.364814
0.367512
0.370377
0.373421
0.39125
0.410928
0.436373
0.468633
0.508995
0.55784
0.618192
0.694489
0.808668
0.947693
1.09167
1.21298
1.28681
1.30006
1.26583
1.20361
1.1256
1.04224
0.960281
0.882309
0.804566
0.731651
0.66727
0.608301
0.554064
0.504934
0.462074
0.427406
0.403077
0.390404
0.391582
0.430625
0.6608
1.74052
0.391831
0.375707
0.363244
0.354847
0.349446
0.346183
0.344558
0.343895
0.343775
0.344443
0.345401
0.3467
0.348173
0.349829
0.351608
0.353516
0.355535
0.357675
0.359936
0.362329
0.364861
0.367547
0.370397
0.373425
0.411963
0.438176
0.471746
0.514229
0.566604
0.632627
0.719238
0.856901
1.03125
1.21905
1.38906
1.51175
1.56477
1.54051
1.46233
1.3577
1.24211
1.12765
1.02144
0.9255
0.834579
0.752821
0.682673
0.619691
0.562519
0.511169
0.466548
0.430396
0.404774
0.390933
0.391554
0.430663
0.663597
1.74808
0.412904
0.391018
0.373737
0.361864
0.35397
0.348915
0.345893
0.344427
0.343856
0.343793
0.344533
0.345509
0.346825
0.348301
0.349953
0.351724
0.353621
0.35563
0.357758
0.360007
0.362387
0.364908
0.36758
0.370408
0.373425
0.439854
0.474639
0.51913
0.574917
0.646592
0.744431
0.907204
1.11802
1.35082
1.57248
1.75087
1.85836
1.87615
1.80287
1.67244
1.51992
1.36324
1.21543
1.08351
0.968681
0.864081
0.77331
0.697411
0.630509
0.570511
0.517049
0.470764
0.433218
0.406171
0.391392
0.391538
0.430754
0.666554
1.75633
0.441356
0.411846
0.388181
0.371726
0.360549
0.353134
0.348408
0.345625
0.344306
0.343826
0.34383
0.344623
0.345626
0.34695
0.348428
0.350073
0.351837
0.353723
0.355722
0.357838
0.360076
0.362444
0.364952
0.367597
0.370408
0.373425
0.477342
0.523716
0.582788
0.6601
0.769904
0.958403
1.20527
1.48234
1.75596
1.99324
2.16342
2.24088
2.21082
2.07891
1.88995
1.68588
1.48616
1.30392
1.14562
1.01145
0.892921
0.793076
0.711479
0.640762
0.578052
0.522585
0.474732
0.435526
0.407358
0.3919
0.391542
0.430851
0.669926
1.76526
0.479723
0.440004
0.407815
0.385308
0.369808
0.359289
0.35233
0.347918
0.345374
0.344196
0.343797
0.343891
0.344714
0.345747
0.347072
0.348552
0.35019
0.351946
0.353823
0.355811
0.357917
0.360143
0.3625
0.364974
0.367597
0.370408
0.373425
0.528023
0.590243
0.67317
0.795418
1.00941
1.29094
1.61037
1.93451
2.23098
2.46794
2.61532
2.64946
2.56041
2.36189
2.10973
1.85196
1.60846
1.39167
1.20697
1.05345
0.920965
0.812081
0.724877
0.650463
0.585159
0.527789
0.477968
0.43748
0.408659
0.392476
0.391559
0.431069
0.673514
1.77499
0.531774
0.478029
0.43432
0.403769
0.382565
0.367963
0.358071
0.351553
0.34745
0.34514
0.344096
0.343762
0.343969
0.344806
0.345869
0.347192
0.348674
0.350304
0.352053
0.35392
0.355898
0.357993
0.360208
0.362527
0.364974
0.367597
0.370408
0.373425
0.597321
0.685832
0.82074
1.05935
1.37361
1.73291
2.10504
2.45891
2.76327
2.98605
3.09727
3.07589
2.91801
2.64636
2.3278
2.01534
1.72824
1.47747
1.2669
1.09434
0.948089
0.830294
0.737611
0.659629
0.591846
0.532031
0.480702
0.439612
0.410087
0.393114
0.391606
0.431247
0.677585
1.78549
0.603483
0.529647
0.470035
0.428672
0.399903
0.379921
0.366176
0.356891
0.350805
0.347006
0.344923
0.344007
0.343735
0.344056
0.344897
0.345989
0.34731
0.348793
0.350415
0.352158
0.354015
0.355983
0.358067
0.36024
0.362527
0.364974
0.367597
0.370408
0.373425
0.698087
0.845661
1.1076
1.45238
1.84881
2.26581
2.67394
3.04356
3.34289
3.53869
3.60117
3.51299
3.27777
2.92799
2.54112
2.17396
1.84413
1.56042
1.32488
1.13386
0.974193
0.847698
0.749691
0.668274
0.597302
0.535613
0.48368
0.44194
0.411655
0.393844
0.391666
0.431645
0.68199
1.79693
0.708859
0.600843
0.518314
0.462185
0.423273
0.396168
0.377353
0.36444
0.355751
0.350088
0.346588
0.344726
0.343929
0.34372
0.344146
0.344991
0.346107
0.347426
0.348909
0.350524
0.352259
0.354107
0.356065
0.358104
0.36024
0.362527
0.364974
0.367597
0.370408
0.373421
0.869938
1.15374
1.52677
1.95748
2.41597
2.87442
3.30526
3.67867
3.96114
4.11773
4.11948
3.95427
3.63467
3.20333
2.74745
2.32636
1.95515
1.63991
1.38052
1.17181
0.999201
0.864281
0.761128
0.675344
0.601912
0.539514
0.486927
0.444485
0.413381
0.394648
0.391804
0.431943
0.686927
1.80924
0.705671
0.891292
0.584159
0.507401
0.454674
0.418047
0.392532
0.374854
0.362757
0.354653
0.349404
0.346197
0.344546
0.343866
0.343718
0.344236
0.345087
0.346222
0.34754
0.349022
0.350631
0.352358
0.354196
0.356106
0.358104
0.36024
0.362527
0.364974
0.367597
0.370397
0.373414
1.1974
1.59657
2.05875
2.55523
3.05965
3.54654
3.98886
4.35531
4.6097
4.71526
4.64497
4.39378
3.98444
3.46964
2.94517
2.47157
2.0607
1.71552
1.43354
1.20804
1.02306
0.880037
0.770512
0.681327
0.606937
0.543764
0.490466
0.447267
0.415278
0.39558
0.391926
0.432585
0.692403
1.82261
0.679448
0.888703
1.23499
0.568599
0.496979
0.447392
0.412953
0.388989
0.372427
0.361131
0.353599
0.348756
0.345837
0.344389
0.343819
0.343729
0.344325
0.345185
0.346335
0.347653
0.349132
0.350734
0.352454
0.354241
0.356106
0.358104
0.36024
0.362527
0.364974
0.36758
0.370376
0.373406
1.66157
2.15268
2.68375
3.22964
3.76683
4.27125
4.71525
5.06489
5.28039
5.32344
5.17066
4.8261
4.3235
3.72487
3.13318
2.60903
2.16043
1.78702
1.4838
1.24247
1.04574
0.893
0.77847
0.687859
0.612418
0.548396
0.494327
0.450309
0.417372
0.3966
0.392197
0.433107
0.698422
1.83693
0.655474
0.846259
1.23335
1.71693
0.553954
0.486858
0.440289
0.407985
0.385544
0.370077
0.359566
0.352592
0.348147
0.345515
0.344256
0.343787
0.343754
0.344411
0.345285
0.346445
0.347764
0.349239
0.350836
0.352502
0.354241
0.356106
0.358104
0.36024
0.362527
0.364952
0.367546
0.370355
0.373398
2.23929
2.8019
3.3849
3.96646
4.52535
5.03805
5.47525
5.79896
5.965
5.93441
5.68988
5.24641
4.6489
3.96753
3.31083
2.73845
2.25421
1.8543
1.53123
1.27504
1.06439
0.904011
0.787179
0.694996
0.618397
0.553447
0.498539
0.45364
0.419675
0.397791
0.392422
0.434008
0.705314
1.85242
0.633352
0.806469
1.17008
1.71724
2.3127
0.539835
0.47697
0.433362
0.403151
0.382205
0.36781
0.358064
0.35164
0.347592
0.345235
0.344143
0.343764
0.343799
0.344494
0.345387
0.346552
0.347873
0.349344
0.350886
0.352501
0.354241
0.356106
0.358104
0.360241
0.362499
0.364907
0.367511
0.370332
0.37339
2.90996
3.52628
4.14652
4.75201
5.32335
5.83692
6.26018
6.54928
6.65525
6.54046
6.19643
5.65059
4.95842
4.19665
3.47778
2.85974
2.34204
1.9174
1.57581
1.3017
1.08022
0.916079
0.796715
0.702798
0.624925
0.558957
0.503137
0.457285
0.422224
0.399098
0.392859
0.434931
0.712725
1.86885
0.612484
0.76927
1.10804
1.63518
2.31607
3.00082
0.526094
0.467318
0.426621
0.398461
0.37898
0.36563
0.356639
0.350766
0.347096
0.344996
0.344047
0.343737
0.343859
0.344574
0.34549
0.346658
0.347982
0.349396
0.350886
0.352502
0.354241
0.356106
0.358104
0.360208
0.362443
0.36486
0.367476
0.37031
0.373382
3.65435
4.30846
4.95312
5.57272
6.1496
6.65872
7.06193
7.30763
7.34276
7.13404
6.68469
6.03526
5.25047
4.41167
3.63395
2.97302
2.42405
1.97638
1.61208
1.32425
1.09755
0.929311
0.807165
0.711332
0.632055
0.56497
0.508157
0.461279
0.42503
0.40062
0.393299
0.436172
0.72148
1.88657
0.592578
0.734243
1.04747
1.55284
2.21709
3.00764
3.76063
0.512704
0.457926
0.420084
0.393928
0.375876
0.363558
0.355328
0.349982
0.34665
0.344788
0.343967
0.343713
0.343927
0.344652
0.345593
0.346763
0.348036
0.349395
0.350886
0.352502
0.354241
0.356107
0.358067
0.360142
0.362386
0.364812
0.367439
0.370286
0.373374
4.45338
5.13109
5.78919
6.41577
6.99417
7.49549
7.87285
8.06572
8.0191
7.70799
7.14985
6.39791
5.52406
4.6124
3.7795
3.07852
2.50042
2.02412
1.64265
1.34885
1.11653
0.943826
0.818622
0.720672
0.639846
0.571535
0.513641
0.465654
0.428142
0.402312
0.393929
0.437666
0.73071
1.90507
0.573516
0.70125
0.988167
1.47034
2.1169
2.89304
3.76992
4.57117
0.499685
0.448822
0.413768
0.389566
0.372924
0.361648
0.354145
0.349276
0.346256
0.344611
0.3439
0.343698
0.344
0.344732
0.3457
0.346813
0.348035
0.349395
0.350887
0.352502
0.354242
0.356066
0.357992
0.360075
0.362327
0.364763
0.367402
0.370262
0.373365
5.28775
5.97647
6.63997
7.27002
7.84901
8.34044
8.68548
8.81496
8.67583
8.25582
7.58806
6.73682
5.77872
4.79899
3.91473
3.17652
2.56205
2.06423
1.67584
1.37568
1.1373
0.959748
0.831188
0.730901
0.648366
0.578704
0.519631
0.470451
0.431576
0.404255
0.3947
0.439369
0.74193
1.92841
0.555246
0.670269
0.930321
1.38736
2.01544
2.7768
3.6399
4.5802
5.41101
0.487068
0.440037
0.407693
0.385415
0.370199
0.359923
0.35308
0.348645
0.345909
0.344459
0.343845
0.343692
0.344077
0.34482
0.345753
0.346808
0.348035
0.349395
0.350887
0.352503
0.354197
0.355983
0.357916
0.360005
0.362266
0.364713
0.367363
0.370238
0.373356
6.13747
6.82773
7.49276
8.12695
8.70817
9.18749
9.49206
9.54633
9.30481
8.77201
7.99652
7.05103
6.0145
4.9718
4.04004
3.25541
2.61371
2.10764
1.71187
1.40489
1.16003
0.977215
0.844977
0.742109
0.657685
0.586538
0.526179
0.475709
0.435382
0.406464
0.395607
0.441723
0.75574
1.95547
0.537728
0.641362
0.874387
1.30386
1.91226
2.65864
3.50862
4.43367
5.41514
6.25895
0.47489
0.4316
0.401917
0.381586
0.367738
0.358366
0.352122
0.348081
0.345605
0.344326
0.343802
0.343699
0.344167
0.344857
0.34575
0.346807
0.348036
0.349396
0.350889
0.352455
0.354107
0.355898
0.357837
0.359934
0.362204
0.364662
0.367324
0.370213
0.373347
6.98338
7.67025
8.33803
8.98116
9.56712
10.0306
10.2841
10.2505
9.89858
9.25216
8.37348
7.34039
6.23181
5.13135
4.14064
3.32142
2.6695
2.15459
1.75093
1.43669
1.18488
0.996372
0.860108
0.754393
0.667883
0.595101
0.533336
0.481479
0.4396
0.408947
0.396887
0.44449
0.774845
1.9814
0.520945
0.614491
0.820934
1.22014
1.80704
2.53804
3.37544
4.28727
5.2493
6.25207
7.09447
0.463194
0.423595
0.396592
0.378127
0.365515
0.356962
0.35126
0.347578
0.345336
0.344211
0.343775
0.343733
0.344211
0.344842
0.345752
0.346808
0.348036
0.349398
0.350838
0.352358
0.354015
0.35581
0.357756
0.359861
0.36214
0.364609
0.367283
0.370187
0.373337
7.80874
8.49304
9.17057
9.82924
10.4221
10.8631
11.052
10.9182
10.4506
9.69321
8.71831
7.60529
6.43131
5.25892
4.22465
3.39258
2.72968
2.20531
1.79322
1.47125
1.21202
1.01737
0.87671
0.767859
0.679047
0.604464
0.541164
0.487809
0.444263
0.411855
0.398405
0.449251
0.794858
2.00596
0.504898
0.589549
0.770601
1.13679
1.6997
2.41441
3.23985
4.13989
5.08636
6.06167
7.06898
7.89851
0.452103
0.416233
0.391786
0.375006
0.363509
0.355697
0.350487
0.347127
0.345098
0.344122
0.343782
0.343739
0.344201
0.34484
0.345752
0.34681
0.348039
0.349347
0.350736
0.352259
0.35392
0.355721
0.357674
0.359787
0.362075
0.364555
0.367241
0.370161
0.373327
8.60065
9.29117
9.98584
10.6673
11.2693
11.6767
11.7859
11.5405
10.9559
10.0937
9.0313
7.84659
6.58985
5.36512
4.315
3.46918
2.79452
2.26001
1.83894
1.50876
1.24162
1.04036
0.894918
0.782622
0.691271
0.614705
0.549724
0.494754
0.449471
0.415621
0.401233
0.453332
0.817941
2.02866
0.489705
0.566377
0.723991
1.05456
1.59038
2.28731
3.10104
3.9911
4.9245
5.87898
6.84657
7.84423
8.65678
0.441918
0.409605
0.387452
0.372189
0.361699
0.354558
0.34979
0.346723
0.344902
0.344081
0.343774
0.343711
0.344204
0.344841
0.345752
0.346817
0.347985
0.349241
0.350632
0.352158
0.353823
0.355629
0.357589
0.35971
0.362007
0.364499
0.367198
0.370134
0.373318
9.35046
10.0514
10.7727
11.4858
12.1015
12.4635
12.4741
12.1093
11.4112
10.4534
9.31351
8.03668
6.72121
5.47891
4.41198
3.5515
2.86427
2.31891
1.88827
1.54937
1.27384
1.06549
0.914869
0.798798
0.704654
0.625904
0.559094
0.502395
0.456255
0.42083
0.403689
0.459829
0.842291
2.04936
0.475743
0.54497
0.681491
0.974453
1.47943
2.1565
2.95817
3.83991
4.76345
5.70103
6.63905
7.58127
8.55624
9.36267
0.432774
0.403641
0.383546
0.36965
0.360068
0.353528
0.34916
0.346376
0.344784
0.344046
0.343741
0.34371
0.344205
0.344845
0.345757
0.346767
0.347876
0.349133
0.350526
0.352054
0.353724
0.355535
0.357501
0.359631
0.361938
0.364442
0.367154
0.370107
0.373308
10.0562
10.7847
11.5479
12.291
12.9099
13.2086
13.1051
12.6187
11.8154
10.7736
9.53323
8.19313
6.86113
5.60051
4.51585
3.6398
2.93913
2.38221
1.94138
1.59325
1.30883
1.09292
0.936696
0.816509
0.719298
0.638163
0.569351
0.512317
0.464895
0.426162
0.407734
0.465381
0.869873
2.06765
0.463185
0.525636
0.643254
0.897726
1.36745
2.0219
2.81056
3.68514
4.60206
5.52757
6.44189
7.34233
8.24473
9.18586
10.0001
0.424577
0.398277
0.380029
0.367361
0.358593
0.352597
0.348615
0.346133
0.344704
0.344
0.343741
0.343711
0.344204
0.344863
0.345704
0.346661
0.347767
0.349023
0.350417
0.351948
0.353622
0.355439
0.357412
0.359551
0.361867
0.364384
0.367111
0.370081
0.373299
10.7105
11.4883
12.3144
13.0866
13.6889
13.8983
13.6688
13.0655
12.1694
11.0191
9.71245
8.35845
7.00965
5.73006
4.62682
3.73427
3.01932
2.45006
1.99841
1.64051
1.3467
1.12276
0.960524
0.835867
0.73532
0.65156
0.58265
0.524632
0.473939
0.432571
0.411102
0.474188
0.899351
2.0835
0.451921
0.508358
0.610359
0.826528
1.25538
1.88362
2.65757
3.52562
4.43886
5.35729
6.25467
7.12154
7.96707
8.8181
9.7266
10.5599
0.417235
0.393454
0.376862
0.365293
0.357257
0.351783
0.348215
0.345981
0.344639
0.344002
0.343743
0.343716
0.344216
0.344827
0.345597
0.346556
0.347656
0.348911
0.350306
0.351839
0.353517
0.35534
0.35732
0.359469
0.361795
0.364327
0.367068
0.370056
0.37329
11.3132
12.1679
13.0747
13.872
14.4276
14.5173
14.1576
13.449
12.4353
11.2169
9.89975
8.53224
7.16661
5.8676
4.74499
3.83506
3.10495
2.52258
2.05945
1.69123
1.38755
1.15511
0.986458
0.856991
0.752797
0.668923
0.599009
0.537512
0.483817
0.439
0.416566
0.482226
0.931885
2.09632
0.441841
0.49283
0.582573
0.763539
1.1454
1.74198
2.49867
3.3601
4.2722
5.18839
6.07571
6.91811
7.7175
8.49438
9.28752
10.1689
11.0405
0.410661
0.38912
0.374006
0.36342
0.356086
0.35117
0.347975
0.345888
0.344643
0.344004
0.343747
0.343748
0.344173
0.34474
0.345494
0.346449
0.347545
0.348795
0.350193
0.351727
0.35341
0.35524
0.357226
0.359385
0.361723
0.364271
0.367027
0.370032
0.373281
11.8693
12.8346
13.8325
14.6334
15.1076
15.0507
14.568
13.7294
12.646
11.4205
10.094
8.71381
7.33165
6.01297
4.87036
3.94223
3.1961
2.59983
2.12454
1.74545
1.4314
1.19003
1.01458
0.879938
0.775396
0.690159
0.616053
0.55114
0.494108
0.446804
0.421334
0.49386
0.96784
2.10601
0.432845
0.478847
0.558824
0.710103
1.04202
1.59863
2.3335
3.18733
4.10025
5.01885
5.90289
6.72967
7.49465
8.21076
8.90879
9.64144
10.4985
11.4389
0.404774
0.385217
0.371423
0.361776
0.355186
0.35081
0.347851
0.345892
0.344645
0.344007
0.343785
0.343745
0.344084
0.34466
0.345393
0.346339
0.347432
0.348678
0.350077
0.351613
0.353301
0.355136
0.35713
0.359302
0.361654
0.364217
0.366987
0.370009
0.373273
12.3884
13.5031
14.5877
15.3529
15.7017
15.4889
14.857
13.9464
12.8584
11.6278
10.2938
8.90212
7.50411
6.16585
5.00278
4.05572
3.29275
2.68179
2.19366
1.80312
1.47825
1.22753
1.04489
0.909438
0.802811
0.712134
0.63383
0.56537
0.505425
0.454687
0.428389
0.50601
1.00566
2.11327
0.424827
0.466267
0.538254
0.665373
0.948481
1.45854
2.16315
3.00607
3.92099
4.84629
5.73376
6.55358
7.29514
7.96513
8.58595
9.19772
9.86763
10.6997
11.7521
0.399491
0.381697
0.369151
0.360491
0.354664
0.350648
0.347858
0.345896
0.344648
0.344059
0.343797
0.343714
0.344007
0.344583
0.345293
0.346227
0.347317
0.348558
0.349959
0.351497
0.353188
0.355032
0.357035
0.359222
0.361586
0.364165
0.366948
0.369986
0.373265
12.8884
14.1844
15.3351
16.017