/*--------------------------------*- C++ -*----------------------------------*\
  =========                 |
  \\      /  F ield         | OpenFOAM: The Open Source CFD Toolbox
   \\    /   O peration     | Website:  https://openfoam.org
    \\  /    A nd           | Version:  8
     \\/     M anipulation  |
\*---------------------------------------------------------------------------*/
FoamFile
{
    version     2.0;
    format      ascii;
    class       volScalarField;
    location    "0.5";
    object      kMean;
}
// * * * * * * * * * * * * * * * * * * * * * * * * * * * * * * * * * * * * * //

dimensions      [0 2 -2 0 0 0 0];

internalField   nonuniform List<scalar> 
15677
(
0.309829
0.364209
0.367771
0.369463
0.370862
0.371867
0.372547
0.372973
0.373204
0.373298
0.37331
0.373287
0.373261
0.373246
0.373242
0.373242
0.373242
0.373242
0.373241
0.37324
0.373239
0.373239
0.373239
0.373238
0.373238
0.373239
0.373239
0.373239
0.373239
0.373239
0.373239
0.373239
0.373239
0.373239
0.37324
0.26051
0.380076
0.372795
0.367554
0.366052
0.366408
0.367257
0.368136
0.368869
0.369399
0.369725
0.369886
0.369937
0.369935
0.369922
0.369913
0.369908
0.369904
0.369902
0.3699
0.369898
0.369897
0.369895
0.369895
0.369894
0.369893
0.369893
0.369892
0.369892
0.369892
0.369891
0.369891
0.369891
0.369891
0.369891
0.265381
0.444864
0.395461
0.372884
0.365318
0.363113
0.363123
0.363862
0.36475
0.365544
0.366147
0.366536
0.36674
0.366812
0.366818
0.366807
0.366796
0.366787
0.36678
0.366775
0.366771
0.366768
0.366765
0.366764
0.366763
0.366762
0.366762
0.366761
0.366761
0.366761
0.366761
0.366761
0.366761
0.366761
0.366761
0.289764
0.523231
0.439297
0.387578
0.367683
0.361094
0.359546
0.359847
0.360751
0.361746
0.362611
0.363256
0.36366
0.363861
0.363924
0.363932
0.363924
0.363914
0.363905
0.363897
0.363891
0.363886
0.363882
0.363879
0.363876
0.363874
0.363872
0.363871
0.36387
0.363869
0.363868
0.363867
0.363866
0.363866
0.363865
0.330186
0.582682
0.483562
0.40849
0.3737
0.361097
0.357051
0.356443
0.357105
0.358156
0.359203
0.360069
0.360681
0.361041
0.361186
0.361228
0.361229
0.361218
0.361204
0.361192
0.361182
0.361174
0.361168
0.361164
0.36116
0.361157
0.361155
0.361153
0.361152
0.36115
0.36115
0.361149
0.361148
0.361148
0.361148
0.36426
0.625073
0.522883
0.430342
0.381683
0.361761
0.354977
0.353351
0.353713
0.35477
0.355959
0.357019
0.357832
0.358362
0.358616
0.358714
0.358742
0.35874
0.358727
0.358713
0.3587
0.358688
0.358679
0.358672
0.358666
0.358661
0.358657
0.358653
0.358651
0.358648
0.358646
0.358644
0.358642
0.358641
0.358639
0.390376
0.654559
0.555676
0.451353
0.390095
0.363114
0.35324
0.350468
0.350492
0.351536
0.352855
0.354099
0.355106
0.355807
0.356174
0.356335
0.356391
0.356399
0.356387
0.35637
0.356353
0.356338
0.356325
0.356315
0.356307
0.3563
0.356295
0.356291
0.356287
0.356284
0.356281
0.356279
0.356278
0.356276
0.356275
0.411023
0.676328
0.583659
0.471962
0.399423
0.365163
0.351931
0.347862
0.347478
0.34848
0.349909
0.351324
0.352517
0.353395
0.353892
0.354134
0.354238
0.354268
0.354265
0.354247
0.354226
0.354206
0.354189
0.354175
0.354163
0.354153
0.354145
0.354138
0.354132
0.354127
0.354122
0.354118
0.354115
0.354112
0.354109
0.426356
0.691903
0.606326
0.490726
0.408738
0.367425
0.350782
0.345389
0.344597
0.345564
0.347107
0.348691
0.350065
0.351112
0.351731
0.35205
0.352195
0.352245
0.352249
0.352232
0.352208
0.352183
0.352162
0.352143
0.352128
0.352115
0.352104
0.352095
0.352087
0.352081
0.352076
0.352071
0.352068
0.352064
0.352062
0.439213
0.704501
0.626056
0.50883
0.418805
0.370426
0.350082
0.34319
0.341911
0.342814
0.344458
0.346205
0.34776
0.348983
0.349744
0.35016
0.350369
0.350454
0.350472
0.350457
0.350428
0.350396
0.350368
0.350344
0.350324
0.350307
0.350292
0.350279
0.350269
0.350259
0.350251
0.350243
0.350236
0.35023
0.350225
0.448661
0.71353
0.641663
0.524549
0.428318
0.373513
0.349546
0.341151
0.339383
0.340222
0.341969
0.343882
0.345618
0.347009
0.347892
0.348386
0.348641
0.348753
0.348784
0.348774
0.348744
0.348709
0.348675
0.348644
0.348618
0.348596
0.348576
0.34856
0.348546
0.348534
0.348524
0.348516
0.348509
0.348503
0.348498
0.457322
0.721604
0.65569
0.539575
0.438251
0.377218
0.349443
0.339377
0.337053
0.337806
0.33965
0.341724
0.34364
0.345211
0.346248
0.346861
0.347197
0.347354
0.347403
0.347395
0.347359
0.347315
0.347273
0.347235
0.347203
0.347175
0.347151
0.34713
0.347112
0.347096
0.347082
0.34707
0.347059
0.347049
0.34704
0.463437
0.727161
0.666363
0.551975
0.447092
0.380786
0.349509
0.337804
0.334914
0.335575
0.337519
0.339769
0.341879
0.34363
0.344788
0.345471
0.345851
0.346039
0.346112
0.346117
0.346085
0.346038
0.345988
0.345943
0.345902
0.345867
0.345836
0.34581
0.345787
0.345768
0.345751
0.345736
0.345724
0.345714
0.345705
0.469713
0.732752
0.676375
0.563808
0.456021
0.384694
0.349757
0.336446
0.332991
0.333554
0.335601
0.338023
0.34032
0.342257
0.343602
0.344443
0.344936
0.345183
0.345273
0.345278
0.345239
0.345183
0.345125
0.345073
0.345026
0.344986
0.344951
0.34492
0.344894
0.344871
0.344851
0.344834
0.344818
0.344804
0.344792
0.474127
0.736199
0.683534
0.573044
0.463481
0.388152
0.350111
0.335256
0.331268
0.331749
0.333914
0.336536
0.339072
0.341244
0.342708
0.343597
0.344118
0.344407
0.344546
0.344584
0.344559
0.344504
0.344441
0.344381
0.344326
0.344278
0.344236
0.3442
0.344168
0.344141
0.344117
0.344096
0.344077
0.34406
0.344047
0.479286
0.740323
0.690565
0.581785
0.47073
0.391715
0.35065
0.334277
0.329778
0.330198
0.33251
0.335362
0.338106
0.340442
0.342173
0.343317
0.344029
0.344418
0.34459
0.344642
0.344626
0.344575
0.344514
0.344454
0.3444
0.344352
0.34431
0.344274
0.344242
0.344215
0.344191
0.344171
0.344153
0.344137
0.344126
0.482734
0.742708
0.69522
0.588185
0.476429
0.394648
0.35112
0.333461
0.328525
0.328921
0.331415
0.334484
0.337551
0.340339
0.342275
0.343515
0.344294
0.344741
0.344962
0.345044
0.345049
0.345011
0.344958
0.344905
0.344856
0.344812
0.344775
0.344742
0.344714
0.34469
0.344669
0.344651
0.344635
0.34462
0.34461
0.487035
0.746047
0.70005
0.594191
0.481753
0.397446
0.351622
0.332791
0.327531
0.327965
0.33065
0.334152
0.337629
0.340608
0.342745
0.344147
0.345047
0.345588
0.345882
0.346016
0.346059
0.34605
0.34602
0.345985
0.345952
0.345923
0.345898
0.345877
0.34586
0.345845
0.345833
0.345823
0.345814
0.345804
0.345801
0.489989
0.748011
0.703032
0.598287
0.485638
0.399563
0.352044
0.33233
0.326803
0.327314
0.330472
0.334315
0.338061
0.341359
0.34379
0.345454
0.346561
0.347262
0.347679
0.347907
0.348021
0.348069
0.348085
0.348089
0.34809
0.348091
0.348094
0.348098
0.348103
0.348109
0.348115
0.348121
0.348126
0.348129
0.34814
0.493728
0.750877
0.706268
0.602056
0.489104
0.401431
0.352404
0.331948
0.326392
0.327274
0.330687
0.334875
0.339046
0.342864
0.345744
0.347717
0.349067
0.34996
0.350534
0.350895
0.351124
0.351273
0.351378
0.351461
0.351534
0.3516
0.351662
0.35172
0.351774
0.351824
0.351871
0.351914
0.351952
0.351986
0.352029
0.496429
0.752774
0.708157
0.604372
0.491364
0.402679
0.352704
0.331928
0.326445
0.32751
0.331317
0.336059
0.340893
0.345285
0.348638
0.350993
0.352656
0.353809
0.354606
0.355164
0.355576
0.355893
0.356149
0.356369
0.356567
0.356748
0.356914
0.357067
0.357209
0.357339
0.357458
0.357567
0.357665
0.357753
0.357848
0.499899
0.755459
0.710263
0.606444
0.493225
0.403658
0.353
0.332039
0.326715
0.328145
0.332591
0.338068
0.343599
0.348681
0.35262
0.355453
0.357519
0.359021
0.360128
0.360975
0.361664
0.362243
0.36274
0.363182
0.363585
0.363956
0.364297
0.364612
0.364901
0.365166
0.365409
0.365631
0.365831
0.366011
0.366195
0.502419
0.757429
0.711449
0.607446
0.49423
0.40421
0.35326
0.33234
0.327329
0.329389
0.334602
0.340889
0.34726
0.353174
0.357832
0.361264
0.36385
0.365816
0.367353
0.368614
0.369713
0.370692
0.371563
0.372356
0.373086
0.373762
0.374385
0.37496
0.375489
0.375974
0.376419
0.376825
0.377193
0.377528
0.377854
0.505849
0.760193
0.712845
0.608244
0.494838
0.404555
0.353571
0.332952
0.328484
0.331283
0.337371
0.344617
0.351985
0.358895
0.364433
0.368611
0.37186
0.374437
0.376562
0.378406
0.3801
0.381669
0.383103
0.384427
0.385658
0.386803
0.387866
0.38885
0.389758
0.390594
0.391361
0.392064
0.392705
0.39329
0.393843
0.508204
0.762255
0.713567
0.608316
0.494784
0.404542
0.35392
0.333909
0.33011
0.333808
0.340934
0.349308
0.357852
0.365949
0.372551
0.377648
0.381739
0.385118
0.388036
0.390687
0.393221
0.395642
0.397902
0.40002
0.40201
0.403873
0.405613
0.40723
0.408728
0.410113
0.411389
0.412562
0.413635
0.414623
0.415532
0.511708
0.765287
0.71457
0.608198
0.494537
0.404463
0.354415
0.335235
0.332263
0.337033
0.345366
0.35505
0.364964
0.374459
0.382338
0.388563
0.393711
0.398134
0.402108
0.405863
0.409575
0.413218
0.41668
0.419961
0.423067
0.425998
0.42875
0.431325
0.433724
0.435952
0.438017
0.439924
0.441681
0.443308
0.444777
0.513937
0.767408
0.715026
0.607851
0.494012
0.404287
0.355068
0.336942
0.334933
0.34095
0.350672
0.361858
0.373356
0.384482
0.393875
0.401463
0.40794
0.413696
0.419058
0.424296
0.429618
0.434953
0.440105
0.445054
0.449798
0.454319
0.458603
0.46264
0.466427
0.469968
0.473268
0.476337
0.479182
0.481831
0.484179
0.517499
0.770853
0.715915
0.60734
0.493257
0.404106
0.355948
0.339065
0.338172
0.34562
0.356916
0.36981
0.38312
0.396131
0.407307
0.416546
0.424674
0.432129
0.439305
0.446526
0.454058
0.461783
0.469382
0.476778
0.483927
0.490788
0.497336
0.503555
0.509438
0.514979
0.520181
0.525049
0.529596
0.533855
0.537586
0.519724
0.772939
0.716291
0.606584
0.492353
0.403906
0.357049
0.34162
0.341946
0.351
0.364059
0.378866
0.39422
0.409377
0.422619
0.433839
0.443978
0.453558
0.463057
0.47288
0.483365
0.494316
0.505223
0.515962
0.526494
0.536779
0.54676
0.556376
0.56558
0.574341
0.582652
0.590517
0.597957
0.605017
0.611197
0.523159
0.777071
0.717118
0.6058
0.491349
0.403837
0.358471
0.344527
0.346318
0.357134
0.372145
0.389086
0.406728
0.424323
0.439976
0.453566
0.466171
0.478431
0.490935
0.504202
0.51869
0.534169
0.549975
0.56594
0.581911
0.59769
0.613112
0.628092
0.642609
0.656672
0.670293
0.683477
0.696242
0.708599
0.7195
0.373243
0.373251
0.373259
0.373266
0.373275
0.373283
0.373291
0.3733
0.373309
0.373318
0.373328
0.373338
0.373347
0.373356
0.373365
0.373374
0.373383
0.373391
0.373399
0.373406
0.373414
0.373421
0.369901
0.369921
0.369943
0.369965
0.369987
0.37001
0.370034
0.370058
0.370083
0.370109
0.370135
0.370162
0.370189
0.370215
0.37024
0.370265
0.370289
0.370312
0.370335
0.370357
0.370378
0.370399
0.366777
0.366811
0.366846
0.366881
0.366918
0.366955
0.366994
0.367033
0.367074
0.367116
0.367159
0.367202
0.367245
0.367288
0.367328
0.367368
0.367407
0.367444
0.36748
0.367516
0.36755
0.367583
0.363887
0.363931
0.363977
0.364023
0.364071
0.364121
0.364172
0.364224
0.364278
0.364333
0.36439
0.364448
0.364505
0.364561
0.364615
0.364668
0.36472
0.36477
0.364819
0.364866
0.364912
0.364957
0.361175
0.36123
0.361287
0.361345
0.361405
0.361467
0.36153
0.361595
0.361662
0.361731
0.361802
0.361874
0.361946
0.362015
0.362083
0.362148
0.362212
0.362274
0.362335
0.362393
0.36245
0.362505
0.35867
0.358733
0.358798
0.358865
0.358934
0.359005
0.359078
0.359154
0.359231
0.35931
0.359392
0.359476
0.359559
0.35964
0.359719
0.359796
0.35987
0.359943
0.360014
0.360083
0.360149
0.360214
0.35631
0.356382
0.356457
0.356534
0.356613
0.356694
0.356778
0.356864
0.356953
0.357044
0.357138
0.357233
0.357328
0.357421
0.35751
0.357598
0.357683
0.357765
0.357846
0.357924
0.358
0.358074
0.354146
0.354223
0.354303
0.354386
0.354471
0.354559
0.354649
0.354742
0.354838
0.354937
0.355039
0.355143
0.355247
0.355349
0.355448
0.355544
0.355638
0.355729
0.355819
0.355905
0.35599
0.356072
0.352102
0.352186
0.352273
0.352364
0.352457
0.352553
0.352652
0.352754
0.352859
0.352968
0.35308
0.353194
0.353307
0.353418
0.353525
0.35363
0.353732
0.353831
0.353927
0.354021
0.354113
0.354202
0.350265
0.35035
0.350439
0.35053
0.350625
0.350723
0.350824
0.350928
0.351036
0.351148
0.351264
0.351383
0.351502
0.351619
0.351733
0.351845
0.351954
0.35206
0.352164
0.352265
0.352363
0.352459
0.348538
0.348627
0.348718
0.348814
0.348913
0.349016
0.349123
0.349234
0.349349
0.349468
0.349591
0.349716
0.349841
0.349963
0.350082
0.350198
0.350311
0.350421
0.350529
0.350635
0.350738
0.350839
0.347076
0.347158
0.347243
0.347331
0.347423
0.347519
0.347619
0.347723
0.347831
0.347945
0.348064
0.348188
0.348313
0.348437
0.34856
0.34868
0.348797
0.348912
0.349024
0.349134
0.34924
0.349345
0.345738
0.345813
0.345891
0.345976
0.346066
0.346162
0.346264
0.346371
0.346483
0.346598
0.346718
0.346841
0.346963
0.347083
0.3472
0.347316
0.34743
0.347543
0.347654
0.347764
0.347872
0.347979
0.344813
0.344868
0.344923
0.344983
0.345045
0.345111
0.345181
0.345258
0.345341
0.345433
0.345534
0.345644
0.34576
0.345877
0.345993
0.346109
0.346223
0.346334
0.346443
0.34655
0.346654
0.346758
0.344049
0.344066
0.344091
0.344133
0.344187
0.344252
0.344324
0.344401
0.344483
0.344568
0.344654
0.34474
0.344827
0.344914
0.345003
0.345094
0.345188
0.345285
0.345384
0.345485
0.345586
0.345691
0.344106
0.34407
0.344019
0.343971
0.34393
0.343897
0.343875
0.343863
0.343865
0.343884
0.343929
0.343996
0.344074
0.344158
0.344244
0.34433
0.344413
0.344494
0.344572
0.34465
0.344727
0.344812
0.344559
0.344456
0.344348
0.344251
0.344165
0.344088
0.344021
0.343966
0.343921
0.343883
0.343837
0.343797
0.343769
0.343756
0.343757
0.343773
0.343808
0.343861
0.343925
0.343995
0.344069
0.344154
0.345708
0.345501
0.345286
0.345092
0.344913
0.344747
0.344594
0.344453
0.344323
0.344205
0.344099
0.344006
0.343929
0.343869
0.343826
0.343794
0.343763
0.343734
0.343713
0.343702
0.343704
0.34373
0.347977
0.347591
0.347192
0.346825
0.346481
0.346158
0.345857
0.345577
0.345316
0.345074
0.344853
0.344653
0.344478
0.344329
0.344202
0.344095
0.344005
0.343931
0.343869
0.34382
0.343787
0.343784
0.35178
0.351155
0.350508
0.349904
0.34933
0.348781
0.348253
0.347745
0.347264
0.34681
0.346387
0.345997
0.345649
0.345346
0.345087
0.344864
0.344672
0.344508
0.344368
0.344246
0.344146
0.344093
0.357488
0.356523
0.35553
0.354595
0.353702
0.352841
0.352012
0.351213
0.350447
0.349718
0.349027
0.348379
0.347791
0.347265
0.346794
0.346377
0.346011
0.34569
0.345408
0.34516
0.34495
0.344812
0.365692
0.364255
0.362782
0.361392
0.360057
0.358765
0.357516
0.356309
0.355148
0.354034
0.352971
0.351968
0.351049
0.350225
0.349486
0.348825
0.348235
0.34771
0.347243
0.346824
0.346459
0.34619
0.377174
0.375082
0.372951
0.370935
0.368993
0.367109
0.365281
0.363512
0.361803
0.36016
0.358585
0.357093
0.355722
0.354488
0.353378
0.35238
0.351484
0.350682
0.349962
0.349314
0.348743
0.348308
0.39295
0.389954
0.386927
0.384058
0.381287
0.378593
0.375975
0.373435
0.370978
0.368609
0.366334
0.364175
0.362187
0.360394
0.358778
0.357322
0.356012
0.354835
0.353775
0.352819
0.351971
0.351311
0.414386
0.410145
0.405898
0.401866
0.397965
0.394166
0.390468
0.386877
0.383398
0.380041
0.376814
0.373748
0.370923
0.368373
0.366073
0.364
0.362132
0.36045
0.358936
0.357567
0.356351
0.355388
0.443318
0.437363
0.431456
0.42584
0.420397
0.415093
0.409924
0.404899
0.400028
0.395324
0.390802
0.386504
0.382544
0.378971
0.375749
0.372846
0.37023
0.367876
0.365757
0.363842
0.362137
0.360772
0.482351
0.474001
0.465815
0.458019
0.450451
0.443072
0.435881
0.428893
0.422121
0.415586
0.409304
0.403338
0.397844
0.392891
0.388428
0.38441
0.380795
0.377544
0.37462
0.371982
0.369633
0.367732
0.535291
0.523484
0.512135
0.501338
0.490841
0.48059
0.470594
0.460876
0.451464
0.44239
0.433683
0.425432
0.417852
0.411035
0.404907
0.399399
0.394451
0.390008
0.386018
0.382425
0.379229
0.376623
0.60834
0.590978
0.57481
0.559644
0.54502
0.530799
0.51696
0.503518
0.4905
0.477946
0.465898
0.454483
0.444011
0.434619
0.426207
0.418679
0.411944
0.405919
0.400525
0.39568
0.391371
0.387821
0.716051
0.688841
0.663946
0.641014
0.619377
0.598764
0.579061
0.560203
0.542149
0.524874
0.508374
0.492767
0.478437
0.465558
0.454012
0.443689
0.434481
0.426283
0.418987
0.412476
0.406716
0.401958
0.373425
0.373425
0.373425
0.373425
0.373425
0.373425
0.370409
0.370409
0.370409
0.370409
0.370409
0.370409
0.3676
0.3676
0.3676
0.3676
0.3676
0.3676
0.364979
0.364979
0.364979
0.364979
0.364979
0.364979
0.362533
0.362533
0.362533
0.362533
0.362533
0.362533
0.360247
0.360247
0.360247
0.360247
0.360247
0.360247
0.35811
0.35811
0.35811
0.35811
0.35811
0.35811
0.356112
0.356112
0.356112
0.356112
0.356112
0.356112
0.354246
0.354246
0.354246
0.354246
0.354246
0.354246
0.352506
0.352506
0.352505
0.352505
0.352506
0.352506
0.350889
0.350888
0.350888
0.350888
0.350888
0.350889
0.349396
0.349394
0.349394
0.349394
0.349394
0.349396
0.348032
0.34803
0.34803
0.34803
0.34803
0.348032
0.346807
0.346801
0.3468
0.3468
0.346801
0.346807
0.345742
0.345738
0.34574
0.34574
0.345738
0.345742
0.344846
0.344831
0.344829
0.344828
0.344831
0.344846
0.344195
0.344186
0.344189
0.344189
0.344185
0.344195
0.34373
0.343702
0.343701
0.343701
0.343702
0.34373
0.343769
0.343736
0.343736
0.343736
0.343735
0.343769
0.344048
0.344003
0.344006
0.344006
0.344003
0.344049
0.344719
0.344656
0.344661
0.344661
0.344656
0.344719
0.34602
0.345929
0.345936
0.345936
0.345929
0.34602
0.348043
0.347924
0.347935
0.347935
0.347924
0.348044
0.350919
0.350763
0.35078
0.350779
0.350762
0.35092
0.354826
0.354623
0.354647
0.354646
0.354622
0.354826
0.359986
0.359728
0.359762
0.359762
0.359727
0.359986
0.366647
0.36632
0.366368
0.366367
0.366319
0.366648
0.375156
0.374754
0.37482
0.37482
0.374752
0.375157
0.385829
0.385327
0.385412
0.385411
0.385325
0.385831
0.399327
0.398703
0.398801
0.3988
0.3987
0.399329
0.373421
0.373414
0.373406
0.373398
0.37339
0.373382
0.373374
0.373365
0.373356
0.373347
0.373338
0.373328
0.373318
0.373309
0.3733
0.373291
0.373283
0.373274
0.373266
0.373258
0.373251
0.373243
0.370399
0.370378
0.370356
0.370334
0.370311
0.370288
0.370264
0.370239
0.370214
0.370188
0.370162
0.370135
0.370108
0.370082
0.370057
0.370033
0.370009
0.369986
0.369964
0.369942
0.369921
0.369901
0.367583
0.367549
0.367515
0.367479
0.367443
0.367405
0.367367
0.367327
0.367286
0.367245
0.367202
0.367158
0.367115
0.367073
0.367032
0.366992
0.366954
0.366916
0.36688
0.366845
0.36681
0.366777
0.364957
0.364911
0.364865
0.364817
0.364768
0.364718
0.364667
0.364614
0.36456
0.364504
0.364447
0.364389
0.364332
0.364276
0.364222
0.36417
0.364119
0.36407
0.364022
0.363975
0.36393
0.363886
0.362505
0.362449
0.362392
0.362333
0.362272
0.36221
0.362146
0.362081
0.362013
0.361945
0.361874
0.361802
0.36173
0.361661
0.361593
0.361528
0.361464
0.361403
0.361343
0.361285
0.361229
0.361174
0.360214
0.360148
0.360081
0.360011
0.35994
0.359868
0.359793
0.359716
0.359638
0.359558
0.359475
0.359392
0.359309
0.359229
0.359151
0.359076
0.359003
0.358932
0.358863
0.358796
0.358732
0.358669
0.358073
0.357998
0.357922
0.357843
0.357762
0.357679
0.357595
0.357508
0.357418
0.357327
0.357233
0.357137
0.357042
0.35695
0.356861
0.356775
0.356691
0.35661
0.356531
0.356455
0.356381
0.356309
0.356071
0.355988
0.355903
0.355816
0.355726
0.355634
0.35554
0.355444
0.355346
0.355245
0.355142
0.355038
0.354935
0.354835
0.354739
0.354646
0.354555
0.354468
0.354383
0.354301
0.354222
0.354145
0.354202
0.354111
0.354019
0.353924
0.353827
0.353728
0.353626
0.353522
0.353415
0.353305
0.353193
0.353079
0.352966
0.352856
0.35275
0.352648
0.352549
0.352453
0.35236
0.352271
0.352184
0.352101
0.352458
0.352361
0.352262
0.35216
0.352056
0.35195
0.351841
0.35173
0.351616
0.3515
0.351382
0.351263
0.351146
0.351033
0.350925
0.35082
0.350719
0.350621
0.350527
0.350436
0.350348
0.350264
0.350838
0.350736
0.350632
0.350526
0.350417
0.350306
0.350193
0.350078
0.34996
0.349839
0.349715
0.34959
0.349466
0.349346
0.34923
0.349119
0.349012
0.348909
0.34881
0.348715
0.348625
0.348537
0.349344
0.349238
0.349131
0.34902
0.348908
0.348793
0.348675
0.348556
0.348434
0.348311
0.348187
0.348063
0.347943
0.347828
0.347719
0.347615
0.347515
0.347419
0.347328
0.34724
0.347156
0.347075
0.347978
0.34787
0.347761
0.34765
0.347538
0.347426
0.347311
0.347196
0.347079
0.346961
0.34684
0.346717
0.346596
0.346479
0.346367
0.34626
0.346158
0.346062
0.345972
0.345889
0.345811
0.345737
0.346758
0.346652
0.346547
0.34644
0.34633
0.346219
0.346105
0.34599
0.345873
0.345758
0.345643
0.345533
0.345431
0.345339
0.345255
0.345178
0.345108
0.345042
0.34498
0.344921
0.344866
0.344812
0.34569
0.345584
0.345482
0.345381
0.345281
0.345184
0.34509
0.344999
0.344911
0.344825
0.34474
0.344653
0.344566
0.344481
0.344398
0.34432
0.344248
0.344184
0.34413
0.344089
0.344065
0.344048
0.344811
0.344726
0.344647
0.34457
0.344491
0.34441
0.344326
0.344241
0.344156
0.344073
0.343995
0.343928
0.343883
0.343864
0.343863
0.343874
0.343897
0.34393
0.343971
0.344019
0.344069
0.344105
0.344154
0.344067
0.343992
0.343922
0.343859
0.343806
0.343771
0.343756
0.343755
0.343768
0.343796
0.343837
0.343883
0.343921
0.343966
0.344022
0.344089
0.344166
0.344253
0.344349
0.344456
0.344558
0.34373
0.343703
0.343702
0.343713
0.343735
0.343764
0.343795
0.343826
0.34387
0.343929
0.344006
0.344099
0.344206
0.344325
0.344456
0.344598
0.344752
0.344918
0.345096
0.345289
0.345502
0.345707
0.343784
0.343787
0.343821
0.343871
0.343933
0.344008
0.344098
0.344205
0.344332
0.34448
0.344653
0.344853
0.345076
0.345321
0.345584
0.345865
0.346168
0.346491
0.346834
0.347199
0.347595
0.347976
0.344094
0.344148
0.344249
0.344371
0.344513
0.344678
0.34487
0.345094
0.345352
0.345653
0.345998
0.346387
0.346815
0.347273
0.347759
0.348269
0.348798
0.349348
0.349919
0.35052
0.351161
0.351779
0.344814
0.344953
0.345166
0.345417
0.3457
0.346023
0.34639
0.346807
0.347276
0.347798
0.348381
0.349028
0.349727
0.350464
0.351235
0.352037
0.352869
0.35373
0.35462
0.355549
0.356534
0.357486
0.346193
0.346465
0.346834
0.347256
0.347727
0.348254
0.348846
0.349507
0.350243
0.351062
0.351971
0.352974
0.354049
0.355173
0.356343
0.357555
0.358808
0.360099
0.36143
0.362812
0.364272
0.365691
0.348313
0.348752
0.34933
0.349984
0.350708
0.351515
0.352412
0.353409
0.354515
0.355741
0.357098
0.358589
0.360182
0.361841
0.363562
0.365339
0.367171
0.369055
0.370991
0.372995
0.375106
0.377174
0.351318
0.351985
0.352843
0.353808
0.354874
0.356057
0.35737
0.358824
0.360434
0.362215
0.364183
0.366341
0.368642
0.371033
0.373507
0.376059
0.378684
0.381376
0.384139
0.386992
0.389991
0.392951
0.355398
0.356371
0.357602
0.358982
0.360507
0.362196
0.364068
0.366139
0.368431
0.370963
0.37376
0.376825
0.380088
0.383477
0.38698
0.390589
0.394295
0.398092
0.401982
0.40599
0.410197
0.414385
0.360785
0.362166
0.36389
0.365822
0.367956
0.370321
0.372941
0.375842
0.379052
0.382601
0.386521
0.390818
0.395391
0.400139
0.405044
0.410093
0.415274
0.420577
0.426003
0.431585
0.437437
0.443319
0.36775
0.369673
0.372049
0.374711
0.377655
0.380921
0.384543
0.388558
0.393004
0.397924
0.403364
0.409328
0.41568
0.422277
0.429096
0.436119
0.443325
0.450702
0.458247
0.465998
0.474108
0.482353
0.376647
0.379285
0.382517
0.386143
0.39016
0.394624
0.399582
0.405086
0.411193
0.417964
0.425468
0.433717
0.442522
0.451682
0.461161
0.470926
0.480945
0.491192
0.501657
0.512392
0.523638
0.535296
0.387854
0.391446
0.395804
0.400694
0.406126
0.412181
0.41893
0.426454
0.434836
0.444167
0.454535
0.465947
0.478131
0.490803
0.503914
0.517422
0.531294
0.545512
0.560095
0.575178
0.591206
0.60835
0.402001
0.406818
0.412644
0.419216
0.426566
0.434805
0.444035
0.454354
0.46586
0.478653
0.49284
0.508443
0.525129
0.542569
0.560759
0.579717
0.599479
0.620103
0.641695
0.664516
0.689201
0.716068
0.37324
0.37324
0.373239
0.373239
0.373239
0.373239
0.373239
0.373239
0.373239
0.373239
0.373239
0.373239
0.373239
0.373239
0.373239
0.37324
0.373241
0.373242
0.373242
0.373242
0.373242
0.373246
0.373261
0.373287
0.37331
0.373298
0.373204
0.372972
0.372547
0.371867
0.370862
0.369464
0.367776
0.36422
0.309803
0.369891
0.369891
0.369891
0.369891
0.369891
0.369892
0.369892
0.369892
0.369893
0.369893
0.369894
0.369895
0.369895
0.369896
0.369898
0.3699
0.369902
0.369904
0.369908
0.369913
0.369922
0.369935
0.369937
0.369886
0.369725
0.369399
0.368869
0.368136
0.367257
0.366409
0.366056
0.367565
0.372817
0.380122
0.260492
0.366761
0.366761
0.366761
0.366761
0.366761
0.366761
0.366761
0.366761
0.366762
0.366762
0.366763
0.366764
0.366766
0.366768
0.366771
0.366775
0.36678
0.366787
0.366796
0.366807
0.366818
0.366812
0.36674
0.366536
0.366147
0.365544
0.364751
0.363863
0.363126
0.363118
0.365329
0.372908
0.395522
0.445004
0.265389
0.363865
0.363865
0.363866
0.363867
0.363868
0.363869
0.36387
0.363871
0.363872
0.363874
0.363876
0.363879
0.363882
0.363886
0.363891
0.363897
0.363905
0.363914
0.363924
0.363932
0.363924
0.363861
0.36366
0.363256
0.362611
0.361746
0.360752
0.359849
0.359549
0.361102
0.367702
0.387627
0.439414
0.523436
0.289826
0.361148
0.361148
0.361148
0.361149
0.36115
0.36115
0.361152
0.361153
0.361155
0.361157
0.36116
0.361164
0.361168
0.361174
0.361182
0.361192
0.361204
0.361218
0.361229
0.361228
0.361186
0.361041
0.360681
0.360069
0.359203
0.358156
0.357105
0.356445
0.357056
0.361108
0.373728
0.40856
0.48371
0.582912
0.33028
0.358639
0.35864
0.358642
0.358644
0.358646
0.358648
0.35865
0.358653
0.358657
0.358661
0.358666
0.358672
0.358679
0.358688
0.3587
0.358713
0.358727
0.35874
0.358742
0.358714
0.358616
0.358362
0.357832
0.357019
0.355959
0.354771
0.353714
0.353354
0.354983
0.361775
0.381718
0.430429
0.523054
0.625308
0.364367
0.356275
0.356276
0.356278
0.356279
0.356281
0.356284
0.356287
0.35629
0.356295
0.3563
0.356307
0.356315
0.356325
0.356337
0.356353
0.35637
0.356387
0.356399
0.356391
0.356334
0.356174
0.355807
0.355105
0.354099
0.352855
0.351536
0.350492
0.350469
0.353245
0.363129
0.390138
0.451455
0.555861
0.654792
0.390487
0.354109
0.354111
0.354115
0.354118
0.354122
0.354127
0.354132
0.354138
0.354145
0.354153
0.354163
0.354174
0.354188
0.354205
0.354226
0.354247
0.354264
0.354268
0.354237
0.354134
0.353891
0.353394
0.352517
0.351324
0.349909
0.348479
0.347478
0.347863
0.351936
0.365182
0.399475
0.472081
0.583854
0.676557
0.411134
0.352061
0.352064
0.352067
0.352071
0.352075
0.352081
0.352087
0.352095
0.352104
0.352115
0.352127
0.352143
0.352161
0.352183
0.352207
0.352231
0.352248
0.352245
0.352194
0.352049
0.351731
0.351111
0.350065
0.34869
0.347106
0.345563
0.344596
0.345389
0.350787
0.367446
0.408799
0.490857
0.606526
0.692126
0.426462
0.350225
0.35023
0.350236
0.350243
0.35025
0.350259
0.350268
0.350279
0.350292
0.350306
0.350324
0.350344
0.350368
0.350396
0.350427
0.350456
0.350471
0.350453
0.350368
0.350159
0.349743
0.348982
0.347759
0.346204
0.344456
0.342812
0.34191
0.34319
0.350089
0.370452
0.418877
0.508975
0.626262
0.70472
0.439317
0.348497
0.348502
0.348508
0.348515
0.348524
0.348534
0.348545
0.348559
0.348576
0.348595
0.348617
0.348643
0.348674
0.348708
0.348743
0.348773
0.348783
0.348752
0.34864
0.348385
0.34789
0.347008
0.345617
0.343881
0.341967
0.340219
0.33938
0.34115
0.349553
0.373543
0.4284
0.524704
0.64187
0.713743
0.448761
0.34704
0.347049
0.347059
0.34707
0.347082
0.347096
0.347111
0.347129
0.34715
0.347174
0.347202
0.347234
0.347272
0.347314
0.347358
0.347394
0.347402
0.347352
0.347195
0.346859
0.346247
0.345209
0.343639
0.341722
0.339647
0.337803
0.337049
0.339376
0.349452
0.377255
0.438344
0.53974
0.6559
0.721814
0.45742
0.345704
0.345713
0.345723
0.345735
0.34575
0.345767
0.345786
0.345809
0.345835
0.345866
0.345901
0.345941
0.345987
0.346036
0.346084
0.346115
0.34611
0.346037
0.345849
0.345469
0.344786
0.343628
0.341877
0.339766
0.337516
0.335571
0.334911
0.337803
0.34952
0.380828
0.447194
0.552144
0.66657
0.727364
0.46353
0.344791
0.344803
0.344817
0.344833
0.34485
0.34487
0.344893
0.344919
0.34495
0.344985
0.345025
0.345072
0.345124
0.345181
0.345238
0.345277
0.345271
0.345181
0.344934
0.34444
0.3436
0.342255
0.340317
0.33802
0.335596
0.333549
0.332987
0.336446
0.34977
0.384742
0.456132
0.563985
0.676584
0.732954
0.469805
0.344046
0.344059
0.344076
0.344094
0.344115
0.344139
0.344167
0.344198
0.344235
0.344276
0.344324
0.344379
0.344439
0.344501
0.344557
0.344581
0.344543
0.344404
0.344115
0.343594
0.342706
0.341241
0.339068
0.336532
0.333909
0.331744
0.331264
0.335256
0.350126
0.388205
0.463598
0.573223
0.683739
0.736394
0.474212
0.344124
0.344135
0.344151
0.344169
0.344189
0.344213
0.34424
0.344272
0.344308
0.34435
0.344398
0.344452
0.344511
0.344572
0.344623
0.344639
0.344586
0.344414
0.344024
0.343312
0.342169
0.340438
0.338102
0.335357
0.332504
0.330192
0.329773
0.334277
0.350667
0.391774
0.470854
0.581968
0.690771
0.740517
0.479371
0.344608
0.344618
0.344633
0.344649
0.344667
0.344687
0.344711
0.344739
0.344772
0.34481
0.344853
0.344902
0.344955
0.345007
0.345045
0.34504
0.344958
0.344737
0.34429
0.34351
0.342271
0.340333
0.337545
0.334479
0.331409
0.328914
0.32852
0.333461
0.35114
0.394712
0.476558
0.588369
0.695422
0.742897
0.482815
0.345798
0.345801
0.345811
0.34582
0.34583
0.345842
0.345857
0.345874
0.345895
0.345919
0.345949
0.345981
0.346016
0.346046
0.346054
0.346011
0.345877
0.345583
0.345042
0.344141
0.342739
0.340602
0.337623
0.334144
0.330643
0.327958
0.327524
0.332791
0.351643
0.397513
0.481887
0.594377
0.700251
0.746235
0.487115
0.348136
0.348125
0.348121
0.348117
0.348111
0.348105
0.348099
0.348093
0.348089
0.348086
0.348085
0.348083
0.348079
0.348062
0.348014
0.3479
0.347672
0.347255
0.346554
0.345447
0.343782
0.341352
0.338053
0.334306
0.330463
0.327305
0.326797
0.332331
0.352067
0.399633
0.485775
0.598473
0.703231
0.748197
0.490067
0.352024
0.35198
0.351946
0.351908
0.351864
0.351818
0.351767
0.351713
0.351655
0.351593
0.351526
0.351454
0.35137
0.351265
0.351116
0.350886
0.350525
0.349951
0.349057
0.347708
0.345734
0.342855
0.339037
0.334866
0.330677
0.327264
0.326384
0.331948
0.352429
0.401504
0.489244
0.602242
0.706467
0.751062
0.493805
0.357841
0.357745
0.357657
0.357558
0.357449
0.35733
0.3572
0.357058
0.356905
0.356738
0.356557
0.356359
0.356138
0.355882
0.355565
0.355153
0.354594
0.353797
0.352644
0.350981
0.348626
0.345274
0.340881
0.336047
0.331306
0.327499
0.326436
0.331929
0.352729
0.402755
0.491506
0.604559
0.708354
0.752957
0.496505
0.366185
0.366001
0.36582
0.365619
0.365397
0.365154
0.364889
0.3646
0.364285
0.363943
0.363572
0.363169
0.362726
0.36223