/*--------------------------------*- C++ -*----------------------------------*\
  =========                 |
  \\      /  F ield         | OpenFOAM: The Open Source CFD Toolbox
   \\    /   O peration     | Website:  https://openfoam.org
    \\  /    A nd           | Version:  8
     \\/     M anipulation  |
\*---------------------------------------------------------------------------*/
FoamFile
{
    version     2.0;
    format      ascii;
    class       volScalarField;
    location    "0.5";
    object      TPrime2Mean;
}
// * * * * * * * * * * * * * * * * * * * * * * * * * * * * * * * * * * * * * //

dimensions      [0 0 0 2 0 0 0];

internalField   nonuniform List<scalar> 
15677
(
0.000106332
0.000103581
0.000102792
0.000102637
0.00010273
0.000102947
0.000103225
0.000103522
0.000103807
0.000104054
0.000104247
0.000104382
0.000104471
0.000104521
0.000104535
0.000104537
0.000104538
0.000104537
0.000104535
0.000104535
0.000104529
0.000104498
0.000104444
0.000104376
0.000104291
0.000104183
0.000104041
0.00010386
0.000103637
0.000103379
0.000103102
0.000102835
0.000102618
0.000102493
0.000102496
0.000418284
0.000413116
0.000409968
0.000407677
0.000405769
0.000404316
0.000403252
0.000402549
0.000402136
0.000401932
0.000401877
0.000401913
0.000401987
0.000402047
0.000402044
0.000402026
0.000402003
0.000401976
0.000401942
0.000401892
0.000401809
0.000401672
0.000401468
0.00040118
0.000400788
0.000400268
0.000399608
0.000398817
0.000397933
0.000397024
0.000396182
0.000395503
0.000395065
0.000394922
0.000395091
0.000600973
0.000599959
0.000599353
0.00059815
0.000596626
0.000594914
0.000593203
0.00059159
0.00059015
0.000588975
0.000588095
0.000587494
0.000587119
0.000586882
0.000586697
0.000586551
0.000586428
0.000586314
0.000586197
0.000586057
0.000585865
0.000585577
0.000585184
0.000584661
0.000583981
0.000583124
0.0005821
0.000580958
0.000579787
0.000578701
0.000577816
0.000577222
0.000576979
0.000577092
0.000577524
0.000572857
0.0005842
0.000592717
0.000598003
0.000600366
0.000600883
0.0006004
0.000599397
0.000598181
0.000596943
0.000595808
0.000594858
0.000594124
0.000593574
0.000593166
0.000592856
0.000592598
0.000592369
0.000592149
0.000591912
0.000591622
0.000591235
0.000590738
0.000590106
0.000589311
0.000588347
0.00058725
0.000586094
0.000584989
0.000584052
0.000583387
0.000583053
0.000583065
0.000583382
0.000583929
0.00042887
0.000449743
0.000466149
0.000477332
0.000483505
0.000486483
0.000487679
0.000487895
0.000487584
0.000486992
0.000486272
0.000485534
0.00048485
0.000484253
0.000483775
0.000483401
0.000483086
0.000482811
0.000482555
0.000482295
0.000481995
0.000481621
0.000481155
0.000480566
0.000479831
0.000478953
0.000477972
0.000476969
0.000476043
0.000475296
0.000474802
0.000474594
0.000474657
0.000474934
0.000475341
0.000278423
0.000298604
0.000316627
0.000330259
0.000338437
0.000342862
0.000345237
0.000346511
0.000347164
0.000347441
0.000347476
0.000347345
0.000347099
0.00034678
0.000346451
0.000346152
0.000345889
0.000345655
0.000345444
0.000345239
0.000345011
0.000344734
0.000344383
0.000343924
0.000343335
0.000342615
0.000341798
0.00034095
0.000340154
0.000339492
0.00033902
0.000338762
0.000338701
0.000338784
0.000338938
0.000190381
0.000198609
0.000208022
0.000216978
0.000223444
0.000227506
0.000230096
0.000231886
0.000233223
0.000234263
0.000235071
0.000235669
0.000236059
0.000236245
0.000236251
0.000236171
0.000236058
0.000235942
0.000235833
0.000235726
0.000235605
0.000235448
0.000235229
0.000234912
0.000234471
0.000233895
0.000233206
0.00023245
0.000231698
0.000231018
0.000230468
0.000230074
0.000229833
0.000229711
0.000229656
0.000194568
0.000186644
0.000180588
0.000177159
0.000176139
0.00017639
0.000177159
0.000178158
0.000179246
0.000180354
0.000181424
0.000182399
0.000183222
0.000183845
0.00018421
0.000184403
0.000184507
0.000184566
0.000184604
0.00018463
0.00018464
0.000184612
0.000184523
0.000184341
0.000184035
0.000183585
0.000182994
0.0001823
0.00018156
0.000180837
0.000180187
0.000179653
0.00017925
0.000178967
0.000178777
0.00026474
0.000246018
0.00022758
0.000211876
0.000201444
0.000195862
0.000193293
0.000192255
0.000192076
0.000192371
0.000192932
0.000193625
0.000194351
0.000195021
0.00019552
0.000195878
0.000196152
0.000196373
0.00019656
0.000196724
0.000196865
0.000196961
0.000196994
0.000196937
0.000196754
0.000196418
0.000195924
0.000195296
0.000194577
0.000193828
0.000193124
0.000192525
0.000192067
0.000191759
0.000191587
0.00035355
0.00033278
0.000310377
0.000288896
0.000272279
0.000261764
0.000255754
0.000252413
0.000250553
0.000249565
0.000249125
0.000249051
0.000249222
0.000249543
0.000249896
0.000250235
0.000250562
0.000250872
0.000251163
0.000251437
0.000251687
0.000251891
0.000252032
0.000252086
0.000252016
0.000251791
0.000251395
0.000250829
0.000250147
0.000249433
0.00024877
0.000248229
0.000247854
0.000247661
0.000247639
0.00042327
0.000407234
0.000388785
0.000369673
0.000353229
0.000341451
0.000333982
0.00032926
0.000326149
0.000324035
0.000322588
0.000321641
0.000321091
0.000320867
0.000320894
0.000321072
0.000321343
0.000321658
0.000321994
0.000322332
0.000322657
0.000322943
0.000323169
0.000323314
0.000323337
0.000323199
0.000322863
0.00032236
0.000321758
0.000321141
0.000320593
0.000320188
0.00031997
0.000319957
0.000320132
0.00045999
0.000451979
0.000441704
0.000429851
0.000418489
0.000409337
0.000402661
0.00039796
0.0003945
0.000391846
0.000389777
0.000388189
0.000387035
0.000386292
0.000385948
0.000385892
0.000386016
0.00038625
0.000386541
0.000386858
0.00038718
0.000387473
0.000387714
0.000387877
0.000387917
0.00038779
0.000387484
0.000387031
0.000386498
0.000385972
0.000385543
0.000385284
0.000385237
0.000385408
0.00038577
0.000464515
0.000464468
0.000463292
0.000460705
0.000456931
0.000452867
0.000448976
0.000445603
0.000442694
0.000440159
0.000437958
0.000436091
0.000434584
0.000433466
0.000432791
0.000432469
0.000432377
0.000432425
0.000432558
0.000432733
0.000432919
0.000433084
0.000433211
0.000433274
0.000433222
0.000433015
0.000432647
0.00043216
0.000431625
0.000431133
0.000430774
0.00043061
0.000430674
0.000430959
0.000431425
0.000446764
0.000453026
0.000459558
0.000465211
0.000468957
0.000470492
0.000470236
0.000468932
0.000467168
0.00046525
0.000463338
0.000461542
0.000459955
0.000458655
0.000457736
0.000457162
0.000456814
0.000456613
0.000456495
0.000456417
0.000456349
0.000456273
0.000456175
0.000456023
0.000455772
0.000455389
0.000454878
0.00045428
0.000453672
0.000453144
0.000452777
0.000452628
0.000452714
0.000453016
0.000453483
0.000418573
0.000427826
0.000438727
0.000450245
0.000460185
0.000466627
0.000469769
0.000470627
0.000470217
0.000469161
0.000467798
0.000466325
0.000464898
0.000463609
0.00046258
0.000461831
0.000461268
0.000460825
0.00046045
0.000460105
0.000459768
0.000459421
0.000459067
0.000458677
0.000458205
0.000457622
0.000456937
0.000456197
0.000455482
0.000454878
0.00045446
0.000454271
0.000454316
0.000454563
0.000454955
0.000389658
0.000399247
0.000411415
0.000425262
0.000438295
0.000448024
0.000453706
0.000456345
0.000457179
0.000457023
0.000456327
0.00045534
0.000454257
0.000453161
0.000452184
0.000451388
0.000450715
0.000450126
0.000449585
0.000449067
0.000448548
0.000448025
0.000447504
0.000446945
0.000446308
0.000445578
0.000444771
0.000443932
0.000443141
0.000442477
0.000442003
0.000441754
0.000441724
0.000441876
0.000442151
0.000367395
0.0003746
0.000384821
0.000397706
0.000411082
0.000421997
0.000428999
0.000432768
0.000434531
0.000435149
0.000435111
0.000434683
0.000434055
0.000433301
0.000432531
0.000431835
0.000431191
0.000430585
0.000430004
0.000429428
0.00042884
0.000428244
0.000427639
0.000426997
0.00042628
0.000425457
0.000424558
0.000423638
0.000422772
0.000422039
0.000421497
0.00042117
0.000421048
0.000421086
0.000421233
0.000356625
0.000359468
0.000365128
0.000374025
0.000384862
0.000394848
0.000401906
0.000406106
0.000408411
0.0004096
0.000410132
0.00041025
0.000410102
0.000409758
0.000409284
0.000408775
0.00040825
0.000407715
0.000407163
0.00040659
0.000405982
0.000405343
0.000404687
0.000403981
0.000403185
0.000402283
0.000401299
0.000400295
0.00039935
0.000398534
0.000397904
0.00039748
0.000397248
0.000397163
0.000397183
0.000357988
0.000355722
0.000355421
0.000358243
0.000364153
0.000371182
0.000377002
0.000380919
0.000383375
0.000384915
0.000385897
0.000386488
0.000386793
0.000386873
0.000386727
0.000386458
0.000386102
0.00038568
0.000385207
0.000384685
0.000384104
0.00038347
0.00038279
0.000382032
0.00038117
0.000380199
0.000379158
0.000378094
0.000377083
0.000376198
0.00037549
0.00037498
0.000374654
0.00037447
0.000374392
0.000369324
0.000362273
0.000355991
0.00035211
0.000351807
0.000354387
0.000357805
0.000360701
0.000362857
0.000364465
0.000365707
0.000366622
0.00036729
0.000367739
0.000367908
0.000367884
0.000367727
0.000367478
0.000367148
0.000366748
0.000366269
0.000365714
0.000365091
0.000364368
0.000363523
0.000362565
0.000361513
0.000360425
0.000359387
0.000358469
0.000357723
0.000357169
0.000356793
0.000356559
0.000356431
0.000387413
0.000376371
0.000364854
0.000354756
0.00034817
0.000345681
0.000345953
0.000347265
0.00034874
0.000350165
0.000351483
0.000352573
0.000353522
0.000354287
0.000354756
0.000354998
0.00035508
0.000355041
0.000354913
0.000354708
0.00035442
0.000354038
0.000353564
0.000352969
0.00035223
0.000351346
0.000350344
0.000349327
0.000348348
0.000347478
0.00034677
0.000346243
0.000345888
0.000345671
0.000345551
0.000409355
0.000395391
0.000379699
0.000364292
0.000352087
0.000344786
0.000341785
0.000341246
0.000341787
0.000342813
0.000344017
0.00034513
0.000346243
0.000347245
0.00034798
0.000348479
0.000348824
0.000349058
0.000349214
0.000349296
0.000349291
0.00034918
0.000348948
0.000348573
0.00034803
0.000347322
0.000346497
0.000345608
0.000344754
0.000344005
0.000343408
0.000342982
0.000342712
0.000342569
0.000342512
0.000431977
0.000416217
0.000397835
0.000378692
0.000361898
0.000350213
0.000344056
0.000341636
0.000341148
0.000341657
0.000342629
0.000343671
0.000344867
0.000346051
0.00034704
0.000347836
0.000348516
0.000349109
0.000349624
0.000350082
0.000350487
0.000350784
0.000350914
0.000350859
0.000350607
0.000350174
0.000349595
0.000348932
0.000348286
0.000347722
0.000347295
0.000347025
0.000346907
0.000346906
0.000346978
0.000454579
0.000437662
0.000417347
0.000395423
0.000375385
0.000360471
0.0003517
0.000347552
0.000346041
0.000345971
0.000346629
0.000347523
0.000348722
0.000350032
0.000351252
0.000352328
0.000353324
0.000354264
0.000355181
0.000356094
0.000356976
0.000357755
0.000358372
0.000358762
0.000358904
0.000358816
0.00035856
0.000358214
0.000357833
0.000357529
0.000357348
0.000357303
0.000357394
0.000357594
0.000357857
0.00047609
0.000458866
0.000437558
0.000413819
0.000391288
0.000373738
0.00036286
0.000357297
0.000354895
0.000354273
0.000354592
0.000355308
0.000356457
0.000357838
0.00035924
0.000360584
0.000361934
0.000363326
0.000364776
0.000366226
0.000367623
0.000368927
0.000370025
0.000370892
0.000371499
0.000371834
0.000371958
0.000371956
0.000371937
0.000371955
0.000372078
0.00037233
0.000372694
0.000373145
0.000373643
0.000495703
0.000478695
0.000457239
0.000432736
0.000408685
0.000389247
0.0003767
0.000369946
0.000366755
0.000365614
0.000365597
0.000366122
0.000367192
0.00036861
0.000370164
0.000371738
0.000373382
0.000375104
0.000376901
0.000378824
0.000380904
0.000382934
0.000384637
0.00038602
0.000387066
0.000387834
0.000388361
0.000388739
0.00038907
0.000389446
0.000389907
0.000390473
0.000391141
0.000391874
0.000392629
0.000512316
0.000496056
0.000475159
0.000450799
0.0004263
0.000405891
0.000392238
0.00038458
0.000380734
0.000379122
0.000378778
0.000379108
0.00038007
0.000381498
0.000383182
0.000384971
0.000386896
0.000388944
0.000391113
0.000393421
0.000395832
0.000398219
0.00040053
0.000402566
0.00040418
0.000405416
0.000406375
0.00040717
0.000407893
0.000408634
0.000409449
0.000410347
0.000411317
0.000412328
0.000413334
0.000526191
0.000511028
0.000491176
0.000467555
0.000443263
0.000422532
0.000408296
0.000400059
0.000395726
0.00039372
0.000393085
0.000393235
0.000394077
0.000395491
0.000397278
0.000399263
0.000401466
0.000403872
0.000406469
0.000409218
0.000412055
0.000414824
0.000417342
0.000419537
0.00042153
0.000423243
0.000424654
0.000425862
0.000426997
0.000428134
0.000429318
0.000430563
0.000431847
0.000433137
0.000434396
0.000537453
0.000523596
0.000505117
0.00048271
0.000459193
0.000438685
0.00042428
0.000415724
0.000411051
0.000408728
0.000407841
0.000407828
0.000408539
0.000409915
0.00041177
0.000413904
0.000416326
0.000419011
0.000421944
0.000425107
0.000428451
0.000431725
0.000434608
0.000437056
0.000439082
0.000440763
0.000442301
0.000443792
0.000445256
0.000446733
0.000448257
0.000449832
0.000451431
0.00045301
0.000454526
0.000546424
0.000533959
0.000517047
0.000496154
0.000473797
0.00045391
0.000439651
0.000430989
0.000426105
0.000423542
0.000422446
0.000422289
0.000422873
0.000424197
0.00042609
0.000428336
0.000430931
0.000433842
0.000437046
0.000440518
0.000444208
0.000447881
0.000451222
0.000454076
0.000456357
0.000458199
0.00045977
0.000461226
0.000462732
0.000464375
0.000466127
0.000467934
0.000469751
0.000471534
0.000473237
0.000102363
0.000101916
0.000101365
0.000100732
0.000100033
9.92866e-05
9.84981e-05
9.76767e-05
9.68199e-05
9.59314e-05
9.50081e-05
9.40463e-05
9.30701e-05
9.2109e-05
9.1167e-05
9.02481e-05
8.93557e-05
8.84921e-05
8.76627e-05
8.68762e-05
8.61465e-05
8.54956e-05
0.000394806
0.000393944
0.000393042
0.000392039
0.000390912
0.000389653
0.000388264
0.000386749
0.000385109
0.000383339
0.000381429
0.00037938
0.00037724
0.000375073
0.0003729
0.000370738
0.000368606
0.000366518
0.000364493
0.00036255
0.000360711
0.00035899
0.000577847
0.000578186
0.000578714
0.000579302
0.00057987
0.000580364
0.000580759
0.000581037
0.000581186
0.000581185
0.000581009
0.00058064
0.000580079
0.000579363
0.000578518
0.000577576
0.000576562
0.000575494
0.000574394
0.000573277
0.000572155
0.000571024
0.000585233
0.000587629
0.000590405
0.000593428
0.000596595
0.00059983
0.000603086
0.000606331
0.000609538
0.000612685
0.000615747
0.000618674
0.000621376
0.000623811
0.000626006
0.000627984
0.000629768
0.000631375
0.000632819
0.000634107
0.000635234
0.00063618
0.000477233
0.000481008
0.000485214
0.000489748
0.000494523
0.000499478
0.000504567
0.000509764
0.000515048
0.000520403
0.000525813
0.000531222
0.000536475
0.000541466
0.000546207
0.000550716
0.000555005
0.000559079
0.000562945
0.000566598
0.000570022
0.000573187
0.000340771
0.000344631
0.00034887
0.000353411
0.000358195
0.000363182
0.000368349
0.000373682
0.00037917
0.00038481
0.000390602
0.000396501
0.000402348
0.000408021
0.000413527
0.000418874
0.000424067
0.000429112
0.000434005
0.00043874
0.000443295
0.000447637
0.000230875
0.000233622
0.000236648
0.000239896
0.000243327
0.000246924
0.00025068
0.000254595
0.000258682
0.000262948
0.000267407
0.000272042
0.000276732
0.000281385
0.000286002
0.000290583
0.000295134
0.000299654
0.00030414
0.000308582
0.000312958
0.000317242
0.000178925
0.000179531
0.000180282
0.00018114
0.000182083
0.000183106
0.000184219
0.00018544
0.000186785
0.00018828
0.000189946
0.000191795
0.000193794
0.000195909
0.000198142
0.000200495
0.00020297
0.000205565
0.000208279
0.0002111
0.000214012
0.000216985
0.00019069
0.000189061
0.000187453
0.000185821
0.00018414
0.000182414
0.00018065
0.000178871
0.000177101
0.000175364
0.000173685
0.000172101
0.000170684
0.000169474
0.000168483
0.000167721
0.000167195
0.000166909
0.000166868
0.000167069
0.000167502
0.000168149
0.000246112
0.000243002
0.000239821
0.000236512
0.000233046
0.000229412
0.000225617
0.000221675
0.000217604
0.000213421
0.000209142
0.000204815
0.000200579
0.000196547
0.000192737
0.00018917
0.000185858
0.000182818
0.000180061
0.0001776
0.000175433
0.000173556
0.000318531
0.000315047
0.000311448
0.000307659
0.000303634
0.000299349
0.0002948
0.00028999
0.000284925
0.00027961
0.000274051
0.000268287
0.000262494
0.000256819
0.000251292
0.00024594
0.00024079
0.000235862
0.000231181
0.000226764
0.000222627
0.000218771
0.00038461
0.000381843
0.000378973
0.000375905
0.000372575
0.000368948
0.000365001
0.000360723
0.000356105
0.000351139
0.000345811
0.000340143
0.000334294
0.000328416
0.00032255
0.000316726
0.000310984
0.00030535
0.000299858
0.000294537
0.00028941
0.000284491
0.000430974
0.000429587
0.000428146
0.000426548
0.00042472
0.000422614
0.000420197
0.000417446
0.00041434
0.000410856
0.000406965
0.000402664
0.000398058
0.000393274
0.00038835
0.000383322
0.000378227
0.000373101
0.00036798
0.000362899
0.000357885
0.00035296
0.000453776
0.000453964
0.000454178
0.000454309
0.000454283
0.000454042
0.000453551
0.000452777
0.000451695
0.000450269
0.000448464
0.000446248
0.000443659
0.000440774
0.000437624
0.000434246
0.000430676
0.000426946
0.000423094
0.000419154
0.000415153
0.000411115
0.000455853
0.000457421
0.000459095
0.000460775
0.000462384
0.000463872
0.000465201
0.00046634
0.00046726
0.000467928
0.000468302
0.000468335
0.000467993
0.000467297
0.000466269
0.000464938
0.000463328
0.000461471
0.000459397
0.000457133
0.000454708
0.000452134
0.00044344
0.000445987
0.000448704
0.000451501
0.000454312
0.000457092
0.00045981
0.000462441
0.000464962
0.000467344
0.000469552
0.000471526
0.000473182
0.000474486
0.000475452
0.000476098
0.000476443
0.000476507
0.000476312
0.000475878
0.000475219
0.000474344
0.000422709
0.000425821
0.000429149
0.000432613
0.000436157
0.000439744
0.00044335
0.000446957
0.000450548
0.000454106
0.000457604
0.000460984
0.000464128
0.000466967
0.000469508
0.000471761
0.000473734
0.000475442
0.000476896
0.000478108
0.000479083
0.000479816
0.000398639
0.000401883
0.000405384
0.00040907
0.000412894
0.000416825
0.000420849
0.000424954
0.000429131
0.000433367
0.000437643
0.000441911
0.000446029
0.000449905
0.00045354
0.000456938
0.000460104
0.000463042
0.000465761
0.000468263
0.000470546
0.000472597
0.000375635
0.000378558
0.00038176
0.000385182
0.000388787
0.000392558
0.000396485
0.000400565
0.000404799
0.000409182
0.000413712
0.000418338
0.000422923
0.000427358
0.000431635
0.00043575
0.000439703
0.000443491
0.000447112
0.000450561
0.000453828
0.000456892
0.000357302
0.000359496
0.000361972
0.000364685
0.00036761
0.000370736
0.000374065
0.000377609
0.000381375
0.00038537
0.0003896
0.000394037
0.000398545
0.000403017
0.000407436
0.000411792
0.000416074
0.000420274
0.000424383
0.000428391
0.000432278
0.000436015
0.00034596
0.000347153
0.000348609
0.000350289
0.000352178
0.000354279
0.000356609
0.000359182
0.00036202
0.000365141
0.000368559
0.000372262
0.000376149
0.000380121
0.000384164
0.000388258
0.000392391
0.00039655
0.00040072
0.000404879
0.000409002
0.000413048
0.000342432
0.000342467
0.000342723
0.00034317
0.000343801
0.000344634
0.000345684
0.000346978
0.000348547
0.000350419
0.000352626
0.000355178
0.000358015
0.000361063
0.000364302
0.00036771
0.000371268
0.000374956
0.000378754
0.000382639
0.00038658
0.000390536
0.000346455
0.000345336
0.000344381
0.000343565
0.000342887
0.000342356
0.000342003
0.000341863
0.000341974
0.000342376
0.000343108
0.000344202
0.00034565
0.000347416
0.000349482
0.000351828
0.000354437
0.000357288
0.000360359
0.000363622
0.000367044
0.000370574
0.000357
0.000354865
0.000352817
0.000350837
0.000348926
0.000347095
0.000345374
0.000343805
0.00034243
0.00034129
0.000340437
0.000339921
0.000339793
0.000340056
0.000340701
0.000341717
0.000343088
0.000344799
0.000346828
0.000349148
0.000351725
0.000354508
0.00037259
0.000369652
0.000366713
0.000363753
0.000360778
0.000357814
0.00035488
0.000352008
0.000349243
0.000346633
0.000344228
0.000342104
0.00034036
0.000339047
0.000338168
0.000337718
0.000337688
0.000338069
0.000338845
0.000339996
0.000341488
0.000343273
0.000391519
0.000388044
0.000384473
0.000380782
0.000376987
0.000373098
0.000369161
0.000365197
0.000361238
0.000357327
0.000353517
0.000349897
0.000346619
0.00034378
0.000341395
0.000339471
0.000338004
0.000336997
0.000336438
0.000336308
0.000336582
0.000337217
0.000412264
0.000408499
0.000404564
0.000400416
0.000396061
0.000391532
0.000386829
0.00038201
0.000377107
0.000372136
0.000367145
0.000362227
0.000357585
0.000353353
0.000349564
0.000346235
0.000343375
0.000340995
0.000339096
0.000337667
0.000336687
0.000336124
0.000433503
0.000429704
0.00042566
0.000421311
0.000416654
0.000411728
0.000406564
0.000401144
0.000395538
0.000389781
0.000383882
0.000377927
0.000372146
0.000366724
0.000361703
0.000357114
0.000352973
0.000349311
0.000346136
0.000343446
0.000341233
0.000339469
0.000453932
0.000450422
0.000446563
0.000442308
0.000437614
0.000432533
0.00042713
0.000421415
0.000415355
0.000409053
0.000402526
0.000395822
0.000389177
0.000382803
0.000376771
0.000371113
0.000365863
0.000361063
0.000356735
0.000352887
0.000349521
0.000346624
0.000472919
0.000469781
0.000466326
0.000462448
0.000458047
0.000453074
0.000447636
0.000441817
0.000435599
0.00042896
0.000422028
0.000414846
0.000407617
0.000400558
0.000393753
0.000387252
0.000381092
0.000375333
0.000370008
0.00036514
0.000360735
0.000356797
8.52015e-05
8.52077e-05
8.52144e-05
8.52151e-05
8.52151e-05
8.52158e-05
0.000358312
0.000358535
0.000358652
0.000358661
0.000358565
0.000358364
0.000570814
0.000571353
0.000571631
0.000571645
0.000571393
0.000570879
0.000637102
0.000637852
0.000638239
0.000638253
0.00063789
0.000637159
0.00057517
0.000575884
0.000576255
0.000576265
0.000575915
0.000575213
0.000450059
0.000450527
0.000450775
0.000450784
0.000450548
0.000450088
0.000319487
0.000319685
0.000319797
0.000319804
0.000319702
0.000319509
0.000218469
0.000218451
0.000218452
0.000218458
0.000218466
0.00021849
0.00016842
0.000168273
0.000168211
0.000168217
0.000168289
0.000168443
0.000172584
0.000172444
0.000172384
0.000172391
0.000172462
0.000172612
0.00021688
0.000216849
0.000216843
0.00021685
0.000216869
0.000216911
0.00028215
0.000282272
0.000282343
0.00028235
0.000282294
0.000282183
0.000350693
0.000350975
0.000351126
0.000351133
0.000350996
0.000350727
0.000409346
0.000409754
0.000409968
0.000409975
0.000409774
0.000409376
0.000451125
0.000451606
0.000451859
0.000451864
0.000451623
0.00045115
0.000474183
0.000474678
0.000474938
0.000474943
0.000474692
0.000474201
0.000480437
0.0004809
0.000481142
0.000481147
0.00048091
0.000480448
0.000473831
0.000474219
0.000474427
0.00047443
0.000474227
0.000473838
0.000458589
0.000458889
0.000459052
0.000459055
0.000458894
0.00045859
0.000438004
0.000438214
0.000438331
0.000438333
0.000438219
0.000438007
0.00041516
0.000415287
0.000415362
0.000415364
0.000415292
0.000415161
0.000392575
0.000392628
0.000392666
0.000392668
0.000392632
0.000392578
0.000372383
0.00037238
0.000372389
0.000372391
0.000372385
0.000372387
0.000355937
0.000355895
0.000355885
0.000355888
0.000355902
0.000355943
0.000344203
0.000344141
0.000344122
0.000344124
0.000344149
0.000344211
0.000337577
0.000337515
0.000337494
0.000337497
0.000337523
0.000337587
0.000335895
0.000335848
0.000335835
0.000335839
0.000335858
0.000335907
0.000338648
0.000338629
0.00033863
0.000338634
0.000338641
0.000338665
0.000345251
0.000345271
0.000345292
0.000345297
0.000345285
0.00034527
0.000354916
0.000354984
0.000355029
0.000355034
0.000354998
0.000354936
8.55184e-05
8.61737e-05
8.69059e-05
8.76921e-05
8.85205e-05
8.93814e-05
9.02691e-05
9.11815e-05
9.21164e-05
9.30709e-05
9.40412e-05
9.50113e-05
9.59512e-05
9.6846e-05
9.77007e-05
9.85136e-05
9.92787e-05
9.99814e-05
0.000100602
0.00010111
0.000101473
0.000101669
0.000359062
0.000360794
0.000362637
0.000364573
0.000366587
0.000368659
0.000370773
0.000372915
0.000375068
0.000377219
0.00037935
0.000381418
0.000383348
0.000385106
0.000386696
0.000388112
0.000389338
0.000390355
0.000391148
0.000391728
0.000392142
0.000392524
0.000571106
0.000572239
0.000573351
0.000574448
0.000575522
0.00057656
0.000577547
0.000578463
0.000579288
0.000579994
0.000580553
0.000580922
0.000581068
0.000580995
0.000580711
0.000580226
0.000579538
0.000578662
0.000577631
0.000576527
0.000575497
0.000574769
0.000636238
0.00063527
0.000634112
0.000632786
0.000631302
0.000629659
0.000627846
0.000625848
0.000623646
0.000621219
0.000618534
0.000615581
0.000612426
0.000609141
0.000605737
0.000602227
0.000598633
0.000594991
0.000591375
0.000587907
0.000584765
0.00058219
0.000573211
0.000570001
0.000566527
0.000562825
0.000558914
0.000554806
0.000550494
0.000545979
0.000541247
0.000536282
0.000531065
0.000525619
0.000520081
0.000514563
0.000509073
0.000503617
0.000498218
0.000492914
0.000487778
0.000482923
0.000478503
0.000474709
0.000447637
0.000443239
0.00043863
0.000433848
0.000428916
0.000423844
0.000418639
0.000413297
0.000407812
0.000402176
0.000396377
0.000390444
0.000384529
0.000378746
0.000373081
0.000367537
0.000362121
0.000356861
0.000351803
0.000347031
0.000342663
0.000338843
0.000317235
0.000312899
0.000308476
0.000303997
0.000299483
0.000294947
0.000290393
0.000285822
0.000281231
0.000276614
0.000271968
0.000267315
0.000262771
0.000258404
0.000254194
0.000250123
0.000246182
0.000242373
0.000238724
0.000235285
0.000232139
0.000229405
0.000216987
0.000213979
0.000211039
0.000208196
0.000205469
0.000202866
0.000200395
0.000198053
0.000195841
0.000193753
0.000191784
0.000189936
0.000188242
0.000186704
0.000185289
0.000183969
0.000182716
0.000181518
0.000180373
0.00017931
0.000178387
0.0001777
0.000168169
0.000167517
0.00016708
0.000166877
0.000166919
0.000167205
0.000167735
0.000168502
0.000169499
0.000170717
0.000172143
0.000173747
0.000175458
0.000177204
0.00017895
0.000180662
0.000182308
0.000183863
0.00018532
0.000186697
0.000188047
0.000189475
0.000173598
0.000175499
0.000177684
0.00018016
0.000182924
0.000185967
0.000189277
0.000192839
0.000196638
0.000200659
0.000204879
0.00020924
0.000213592
0.000217815
0.000221884
0.000225769
0.000229442
0.000232881
0.000236083
0.000239071
0.000241914
0.000244731
0.000218831
0.00022273
0.0002269
0.000231337
0.000236028
0.000240954
0.000246094
0.000251427
0.00025693
0.000262578
0.000268341
0.000274144
0.000279792
0.000285153
0.000290213
0.000294954
0.000299356
0.000303412
0.000307125
0.000310541
0.000313746
0.000316889
0.000284561
0.000289531
0.000294693
0.000300033
0.000305528
0.000311152
0.000316875
0.000322669
0.000328502
0.000334344
0.000340158
0.000345862
0.000351268
0.000356265
0.000360855
0.000365035
0.000368804
0.000372166
0.000375148
0.000377812
0.000380269
0.000382693
0.000353028
0.000358001
0.000363042
0.000368132
0.000373246
0.00037835
0.000383416
0.000388408
0.000393296
0.000398045
0.00040262
0.000406948
0.000410888
0.000414372
0.000417419
0.000420042
0.000422251
0.000424065
0.000425529
0.000426716
0.000427757
0.000428838
0.000411171
0.000415245
0.000419257
0.000423193
0.000427024
0.000430722
0.000434257
0.000437596
0.000440711
0.000443568
0.00044614
0.00044837
0.000450187
0.000451578
0.000452572
0.000453189
0.000453452
0.000453389
0.000453052
0.000452527
0.00045195
0.000451513
0.000452173
0.000454761
0.000457181
0.000459423
0.000461466
0.000463284
0.000464852
0.00046615
0.000467149
0.000467829
0.000468167
0.000468137
0.000467738
0.000467005
0.000465971
0.00046466
0.000463095
0.000461307
0.00045935
0.000457312
0.000455323
0.00045357
0.000474363
0.00047523
0.000475865
0.000476265
0.000476419
0.000476311
0.000475927
0.000475249
0.000474263
0.000472956
0.000471312
0.00046933
0.000467068
0.0004646
0.000461952
0.000459143
0.000456192
0.000453126
0.000449992
0.000446873
0.000443888
0.000441207
0.000479815
0.000479055
0.000478041
0.000476786
0.000475285
0.000473533
0.000471523
0.000469246
0.000466696
0.000463864
0.000460743
0.00045735
0.00045378
0.000450124
0.000446401
0.000442619
0.00043879
0.00043494
0.000431102
0.00042735
0.000423794
0.000420584
0.00047258
0.000470487
0.000468156
0.000465603
0.000462837
0.000459856
0.000456659
0.000453243
0.000449606
0.000445745
0.000441658
0.000437374
0.000433014
0.000428678
0.000424374
0.000420104
0.000415876
0.000411703
0.000407613
0.000403669
0.000399965
0.000396644
0.000456865
0.000453748
0.000450427
0.000446925
0.000443257
0.000439431
0.000435452
0.000431325
0.000427053
0.00042264
0.000418091
0.000413443
0.000408831
0.000404349
0.000399995
0.000395764
0.000391653
0.000387663
0.000383817
0.000380159
0.000376769
0.000373772
0.000435983
0.000432186
0.000428243
0.000424186
0.000420032
0.000415798
0.000411495
0.000407134
0.000402724
0.000398278
0.000393806
0.000389353
0.000385048
0.000380968
0.000377098
0.000373422
0.000369926
0.0003666
0.000363451
0.000360512
0.000357848
0.000355567
0.000413014
0.000408908
0.000404731
0.000400525
0.000396316
0.000392128
0.000387979
0.000383882
0.000379852
0.000375903
0.00037205
0.000368332
0.000364853
0.000361665
0.000358742
0.000356057
0.000353583
0.000351299
0.0003492
0.000347299
0.000345649
0.000344342
0.000390504
0.000386492
0.0003825
0.000378574
0.000374744
0.000371036
0.000367467
0.00036406
0.000360833
0.000357805
0.000354993
0.00035243
0.00035018
0.000348259
0.000346626
0.000345237
0.00034406
0.000343061
0.000342225
0.000341555
0.000341085
0.000340903
0.000370547
0.000366969
0.000363506
0.000360209
0.000357115
0.00035425
0.000351633
0.000349287
0.00034723
0.000345477
0.000344043
0.000342942
0.000342192
0.000341762
0.000341603
0.000341665
0.000341903
0.000342273
0.000342751
0.000343335
0.000344057
0.00034499
0.000354489
0.000351668
0.000349061
0.000346718
0.000344673
0.000342953
0.000341577
0.000340562
0.000339921
0.000339661
0.000339789
0.000340302
0.000341159
0.00034229
0.000343635
0.000345139
0.000346752
0.000348427
0.000350135
0.000351873
0.00035366
0.000355572
0.000343263
0.000341453
0.000339944
0.000338783
0.000337998
0.000337613
0.000337639
0.000338087
0.000338963
0.000340267
0.000341996
0.000344119
0.000346545
0.000349163
0.000351912
0.000354727
0.000357558
0.000360369
0.000363135
0.000365836
0.000368491
0.000371169
0.00033722
0.000336574
0.000336297
0.000336425
0.000336984
0.000337991
0.000339452
0.00034137
0.000343742
0.000346559
0.000349804
0.000353424
0.000357274
0.000361206
0.000365155
0.000369066
0.000372906
0.000376639
0.000380216
0.000383634
0.000386896
0.000390081
0.000336138
0.000336708