/*--------------------------------*- C++ -*----------------------------------*\
  =========                 |
  \\      /  F ield         | OpenFOAM: The Open Source CFD Toolbox
   \\    /   O peration     | Website:  https://openfoam.org
    \\  /    A nd           | Version:  8
     \\/     M anipulation  |
\*---------------------------------------------------------------------------*/
FoamFile
{
    version     2.0;
    format      ascii;
    class       volScalarField;
    location    "0.5";
    object      alphat;
}
// * * * * * * * * * * * * * * * * * * * * * * * * * * * * * * * * * * * * * //

dimensions      [1 -1 -1 0 0 0 0];

internalField   nonuniform List<scalar> 
15677
(
0.000766247
0.00184732
0.00619536
0.0109718
0.0156032
0.020152
0.0246538
0.029125
0.0336029
0.0381325
0.0424267
0.0474919
0.0530828
0.0568208
0.0577752
0.0570012
0.0545391
0.0510478
0.0469091
0.0421138
0.0367335
0.0312501
0.0264405
0.0216511
0.0162993
0.0122721
0.00961689
0.00787144
0.00670871
0.00590948
0.00533694
0.00490713
0.00457095
0.00429597
0.00404702
0.0012084
0.0107002
0.0267976
0.0445438
0.0613154
0.0748107
0.0834711
0.0878226
0.0882207
0.0872419
0.0833532
0.0784912
0.0750647
0.0735826
0.0737137
0.0736301
0.0725231
0.0702898
0.0671467
0.0629931
0.0576944
0.0526748
0.04845
0.04508
0.0423959
0.0398441
0.0374208
0.0351946
0.033123
0.0310991
0.0290584
0.0271016
0.0253054
0.0237338
0.0224378
0.00121593
0.0111434
0.0254909
0.0400899
0.0535728
0.0653445
0.0751243
0.0826967
0.0874387
0.0884618
0.0854047
0.0788483
0.0722012
0.0683024
0.0675249
0.0677595
0.0674757
0.0661445
0.0654527
0.0653853
0.065656
0.0651701
0.064127
0.0630043
0.0619238
0.0608635
0.0598121
0.0587979
0.057865
0.0570162
0.0561994
0.0553892
0.0546272
0.0539204
0.0532644
0.000917539
0.00656431
0.0151942
0.0238183
0.0318635
0.0389734
0.0448403
0.049045
0.0513157
0.0528438
0.0524212
0.0511923
0.0493651
0.0473367
0.0464556
0.0464028
0.0467752
0.0468688
0.0462141
0.0446913
0.0427133
0.0410246
0.0399706
0.0398893
0.0406066
0.04185
0.0430622
0.0441865
0.0452144
0.046211
0.0470223
0.0476822
0.0482566
0.048766
0.0492153
0.000582626
0.00416437
0.00869323
0.0130609
0.01736
0.0216073
0.0257689
0.0296302
0.0329715
0.0347356
0.0361003
0.0359124
0.0341006
0.0312817
0.0284863
0.0263913
0.0251968
0.0250013
0.0254181
0.0262904
0.0285238
0.0321619
0.0364195
0.0411141
0.0451104
0.0484413
0.0505291
0.051524
0.0521523
0.0527528
0.053484
0.0543087
0.0551802
0.0560566
0.0569061
0.000231632
0.000884118
0.00206637
0.00312969
0.00405982
0.00499275
0.00590099
0.0067025
0.00728939
0.00800792
0.00885608
0.00997981
0.0115199
0.0136955
0.0162794
0.0190127
0.0217643
0.0244655
0.0272645
0.0308019
0.0355591
0.0403961
0.0446508
0.0477889
0.0498169
0.0511416
0.0520413
0.0526193
0.0530912
0.0536199
0.0542488
0.0549612
0.0557212
0.0564924
0.0572475
0.000353868
0.00216
0.0046345
0.00643124
0.00760427
0.00873146
0.0106073
0.013478
0.0170657
0.0211372
0.0255148
0.030033
0.0344748
0.0389269
0.0428681
0.04619
0.0490328
0.0514799
0.0536271
0.0556692
0.0576861
0.0592449
0.0599187
0.0596366
0.0586945
0.0575873
0.056703
0.0564409
0.0568243
0.0576752
0.0587941
0.0600136
0.0611958
0.0622712
0.0632108
0.000427711
0.00307359
0.00586463
0.00747466
0.00822514
0.00836652
0.00838544
0.00928425
0.0123182
0.017833
0.0248964
0.0328748
0.0407864
0.047965
0.0534495
0.0576555
0.0612795
0.0644959
0.0673384
0.0696709
0.0712303
0.0716404
0.0709118
0.0693432
0.067284
0.0651358
0.0632511
0.0617419
0.0606151
0.0598651
0.0594421
0.059271
0.0592793
0.0594063
0.0596054
0.000237981
0.00113202
0.00209042
0.0026475
0.00367634
0.00535304
0.00794692
0.0119543
0.0172142
0.0234625
0.0304355
0.0380364
0.0460013
0.0537818
0.0602293
0.0651455
0.0689339
0.0718994
0.0742169
0.0759318
0.0770068
0.0773021
0.0768912
0.0759376
0.0746935
0.0733318
0.0718958
0.0704828
0.0692158
0.0681667
0.0673423
0.0666943
0.0661838
0.0657821
0.0654742
0.000187938
0.00124375
0.00327895
0.00599518
0.00943781
0.0136573
0.0185495
0.0239177
0.0296893
0.0357813
0.0420308
0.0482138
0.0541699
0.0597721
0.0645311
0.0683496
0.0715696
0.0743023
0.0766286
0.0785924
0.0801577
0.081125
0.0813889
0.0809633
0.0799243
0.0784739
0.0768462
0.0752262
0.0736431
0.0720851
0.0705961
0.0692515
0.0680889
0.0671187
0.0663208
0.000256114
0.00187986
0.00484884
0.00848462
0.0126343
0.0172249
0.0222049
0.0275476
0.0332035
0.0390946
0.0451126
0.0511508
0.0569836
0.062431
0.0668872
0.070344
0.0731208
0.0754027
0.0772796
0.0788841
0.0802817
0.081375
0.0820594
0.0823359
0.0822187
0.0817664
0.0810454
0.0801381
0.0791308
0.0780997
0.0771076
0.0761778
0.075319
0.0745328
0.0738139
0.000251791
0.00218002
0.00540564
0.00933338
0.0138115
0.0187692
0.0241432
0.0298571
0.035814
0.0418939
0.0479536
0.0538469
0.0593687
0.0643617
0.0682842
0.0712066
0.073461
0.0752112
0.0766744
0.0779351
0.0790223
0.0799185
0.0805499
0.0809258
0.0810875
0.0810626
0.0808984
0.0806223
0.0802415
0.0797563
0.0791701
0.0785216
0.0778484
0.0771804
0.076541
0.000269399
0.00217143
0.00554934
0.00969438
0.0144211
0.0196496
0.0253085
0.0313088
0.0375336
0.0438368
0.0500501
0.0559838
0.0614151
0.0661472
0.069659
0.0720908
0.0738021
0.0750165
0.0759276
0.0766496
0.0772424
0.0777254
0.0781913
0.0785853
0.0788658
0.0790309
0.0790869
0.0790433
0.0789155
0.078719
0.0784693
0.0781828
0.0778741
0.0775561
0.0772383
0.000270547
0.00237166
0.00594875
0.0103202
0.0152958
0.0207794
0.0266814
0.0328957
0.0392902
0.045705
0.0519631
0.0578517
0.0631502
0.0676448
0.0708307
0.0728853
0.0741656
0.0749004
0.0752767
0.0754412
0.0755015
0.0755255
0.0755217
0.0755226
0.0755213
0.0755036
0.0754628
0.0753948
0.0752993
0.0751788
0.0750384
0.074884
0.0747223
0.0745593
0.0744002
0.000278515
0.00239862
0.00609692
0.0106266
0.0157788
0.0214501
0.0275455
0.0339521
0.0405278
0.0470979
0.0534755
0.059425
0.0647043
0.0690783
0.0720453
0.0738198
0.0747667
0.0751233
0.0750813
0.0747929
0.0743756
0.0739355
0.0735485
0.0732196
0.0729428
0.0727095
0.0725079
0.0723264
0.0721585
0.0720001
0.0718492
0.0717055
0.0715697
0.0714429
0.0713259
0.00028044
0.00252241
0.00636064
0.0110596
0.0164041
0.0222779
0.0285713
0.0351562
0.0418747
0.0485427
0.0549797
0.0609356
0.0661616
0.0704145
0.0731999
0.0747575
0.0754547
0.0755324
0.075183
0.0745561
0.0737661
0.0729346
0.0721692
0.0714986
0.0709207
0.0704148
0.0699748
0.0696015
0.0692831
0.0690095
0.0687717
0.0685623
0.068378
0.0682162
0.0680747
0.000284506
0.00257455
0.00652841
0.0113619
0.0168493
0.0228696
0.0293098
0.0360393
0.0428947
0.0496818
0.0562162
0.0622315
0.0674668
0.0716659
0.0743346
0.075736
0.0762458
0.076114
0.0755377
0.0746668
0.0736127
0.0725043
0.0714528
0.0705201
0.0697251
0.0690514
0.0684727
0.0679526
0.067483
0.0670631
0.0666941
0.0663759
0.066101
0.0658628
0.0656551
0.000286232
0.00266944
0.00673599
0.0116973
0.0173203
0.0234772
0.0300501
0.0369031
0.043865
0.0507352
0.057335
0.0633881
0.0686278
0.0727895
0.0753779
0.0766701
0.0770472
0.0767673
0.0760334
0.0749991
0.073775
0.0724691
0.0712014
0.0700913
0.0691176
0.0682558
0.0674951
0.0668448
0.0662883
0.0658023
0.0653653
0.064967
0.0646066
0.0642835
0.0639969
0.000287654
0.00272214
0.00687446
0.0119351
0.0176641
0.0239292
0.0306088
0.0375642
0.0446201
0.051572
0.0582426
0.0643475
0.0696126
0.0737615
0.076302
0.0775238
0.0778055
0.077417
0.0765734
0.0754335
0.0741091
0.0726917
0.0713064
0.0700905
0.0690239
0.0680514
0.0671768
0.0664002
0.0657149
0.065116
0.0645984
0.0641509
0.063759
0.0634105
0.0630949
0.000288336
0.00279133
0.00702862
0.0121765
0.0179937
0.0243461
0.0311094
0.0381425
0.0452676
0.0522754
0.058997
0.0651422
0.0704352
0.0746106
0.0771526
0.0783255
0.0785334
0.0780664
0.0771451
0.0759297
0.074529
0.0730597
0.0716089
0.0703389
0.0692243
0.0682046
0.0672763
0.0664483
0.0657118
0.0650574
0.0644755
0.0639579
0.0634987
0.0630916
0.0627307
0.000288671
0.00284193
0.00714667
0.0123649
0.0182527
0.0246733
0.0315009
0.038593
0.0457712
0.0528246
0.0595835
0.065761
0.0710865
0.075261
0.0777222
0.0788306
0.0789998
0.0784961
0.0775415
0.076303
0.0748954
0.0734395
0.07199
0.0706944
0.0695656
0.0685542
0.0676137
0.0667724
0.0660208
0.0653501
0.0647519
0.0642181
0.0637411
0.0633139
0.0629297
0.000288708
0.0028952
0.00726109
0.0125379
0.0184814
0.0249538
0.031828
0.0389608
0.0461744
0.0532571
0.0600363
0.0662362
0.0715694
0.075715
0.0782172
0.0793397
0.0794775
0.0789252
0.077921
0.0766424
0.075209
0.0737579
0.0723606
0.071065
0.0699402
0.0689577
0.0680475
0.0672251
0.0664888
0.0658309
0.0652432
0.0647179
0.0642479
0.0638262
0.0634463
0.000288456
0.0029389
0.00735529
0.0126795
0.0186666
0.0251778
0.0320852
0.0392449
0.0464806
0.0535803
0.0603655
0.0665817
0.0719063
0.0760966
0.0785972
0.079701
0.0798105
0.0792218
0.0781802
0.0768717
0.0754216
0.0739655
0.0726157
0.0713444
0.0702543
0.0693077
0.0684694
0.0676904
0.0669919
0.0663671
0.0658101
0.0653134
0.0648696
0.064472
0.0641145
0.00028801
0.0029815
0.00744237
0.0128054
0.0188263
0.0253657
0.0322949
0.0394696
0.0467156
0.0538205
0.0605989
0.0667995
0.0721471
0.0763365
0.0788344
0.0799272
0.0800153
0.0793965
0.0783228
0.0769894
0.075531
0.0740887
0.0727784
0.0715685
0.0704719
0.0695349
0.0687289
0.0680147
0.0673815
0.066825
0.0663287
0.0658829
0.0654813
0.0651196
0.0647938
0.000287414
0.00301869
0.00751781
0.0129124
0.0189599
0.0255198
0.0324628
0.039644
0.0468915
0.0539923
0.0607549
0.0669499
0.0722836
0.0764642
0.0789558
0.0800388
0.0801086
0.0794627
0.0783581
0.0769985
0.0755277
0.0740928
0.0728092
0.0716794
0.0706534
0.0697554
0.0689764
0.0682953
0.0676911
0.0671527
0.0666849
0.0662792
0.0659279
0.065621
0.0653489
0.000286713
0.00305387
0.00758714
0.0130088
0.0190761
0.02565
0.0326001
0.0397811
0.0470232
0.0541144
0.0608454
0.0670225
0.0723365
0.076501
0.0789819
0.080054
0.080107
0.0794363
0.0783016
0.076914
0.0754264
0.0739939
0.0727317
0.0716382
0.0706891
0.0698432
0.0691221
0.0685031
0.0679622
0.0674929
0.0670739
0.0667045
0.0663776
0.0660904
0.0658404
0.00028592
0.00308561
0.00764851
0.0130934
0.019178
0.0257615
0.0327137
0.0398894
0.0471209
0.0541918
0.060894
0.0670411
0.0723261
0.0764665
0.0789307
0.0799897
0.0800268
0.0793335
0.0781703
0.0767539
0.0752461
0.0738109
0.0725646
0.0715024
0.0705968
0.0698223
0.0691473
0.0685734
0.0680838
0.0676607
0.0672947
0.0669825
0.0667088
0.0664687
0.0662525
0.000285052
0.00311502
0.00770397
0.0131675
0.0192653
0.0258567
0.0328091
0.0399758
0.0471877
0.0542376
0.0609049
0.0670168
0.0722667
0.0763759
0.0788178
0.0798609
0.0798823
0.0791687
0.0779795
0.0765355
0.0750062
0.0735648
0.07233
0.0712947
0.0704276
0.0696992
0.0690851
0.0685668
0.0681231
0.0677506
0.0674341
0.0671644
0.0669332
0.0667341
0.0665685
0.000284114
0.00314171
0.00775353
0.013232
0.0193379
0.0259304
0.0328771
0.040031
0.0472256
0.0542548
0.0608909
0.0669587
0.0721692
0.0762416
0.078656
0.0796802
0.0796854
0.0789534
0.0777414
0.0762724
0.0747221
0.0732729
0.0720468
0.071035
0.0702032
0.0695182
0.0689527
0.0684846
0.0680961
0.0677737
0.0675058
0.0672828
0.0670968
0.0669408
0.0668106
0.000283065
0.00316544
0.00779622
0.013286
0.0193972
0.0259895
0.0329307
0.0400731
0.0472475
0.0542504
0.0608551
0.066874
0.0720418
0.076073
0.0784553
0.0794572
0.0794451
0.0786961
0.0774642
0.0759731
0.0744035
0.0729463
0.0717269
0.0707359
0.0699359
0.069291
0.0687705
0.0683499
0.0680096
0.0677343
0.0675115
0.067331
0.0671847
0.0670659
0.0669694
0.003721
0.00337138
0.00301777
0.00267782
0.00235695
0.00207101
0.00185129
0.00170306
0.00161307
0.00149025
0.00138304
0.00136381
0.0014478
0.00163057
0.00189422
0.00223205
0.00264516
0.0031347
0.0036768
0.00421137
0.00468763
0.00507816
0.02095
0.0193234
0.0178755
0.0165706
0.0153749
0.0142645
0.0132313
0.0122803
0.0114173
0.0106657
0.00984871
0.00946786
0.00902237
0.00872505
0.00909613
0.0103477
0.0127363
0.0154698
0.018066
0.0204066
0.022242
0.0235985
0.0523605
0.0511908
0.0500703
0.0490413
0.0481471
0.0474373
0.0469593
0.046708
0.0466106
0.046476
0.0463049
0.0468375
0.0488931
0.0530114
0.0582837
0.063306
0.0671763
0.0696651
0.0709212
0.0713591
0.0716426
0.0724548
0.0497402
0.0503027
0.0508051
0.0512495
0.0516325
0.0519486
0.052171
0.0522595
0.0522009
0.0520437
0.0519907
0.0521404
0.0528356
0.0545012
0.0575436
0.0607672
0.063492
0.0652392
0.0660465
0.0662982
0.0661942
0.0661573
0.0579756
0.0593455
0.0608239
0.0623891
0.0640228
0.0657083
0.0674248
0.0691519
0.0708286
0.0723337
0.0734913
0.0742087
0.0744582
0.074546
0.0746231
0.0744906
0.0739249
0.0728736
0.0716553
0.0703605
0.0691959
0.0678068
0.0582328
0.0594988
0.0608841
0.0623498
0.0638305
0.0652441
0.0664664
0.0674062
0.068022
0.0683094
0.0683466
0.0682186
0.0679664
0.0675952
0.0670683
0.0664663
0.0657471
0.0648676
0.0636478
0.0622054
0.0608926
0.0597139
0.0643056
0.065514
0.0666074
0.0675776
0.0684296
0.0691587
0.0697648
0.0702763
0.0706602
0.0708555
0.0708246
0.0705435
0.0700009
0.0692167
0.0682346
0.0670214
0.0656015
0.0640235
0.0624591
0.0611269
0.0597844
0.0585256
0.059943
0.0604926
0.061166
0.0619023
0.0626424
0.0633342
0.0639356
0.0643776
0.0646468
0.0647387
0.064649
0.0643437
0.0638091
0.0630166
0.0620379
0.0609574
0.0597879
0.0586046
0.0574835
0.056431
0.0554864
0.0546417
0.0651223
0.0647865
0.0646217
0.0646123
0.0647256
0.0649165
0.0651325
0.0653173
0.0654171
0.0653829
0.0651717
0.0647488
0.0641084
0.0632547
0.0622761
0.0611812
0.0600068
0.0587978
0.0576109
0.056496
0.0554933
0.054638
0.0653533
0.0642568
0.0634092
0.062814
0.0624551
0.0622964
0.0622818
0.0623419
0.0624203
0.0624651
0.0624272
0.0622647
0.0619506
0.0614835
0.0608573
0.0601155
0.0592812
0.0583847
0.0574662
0.0565669
0.0557281
0.0549857
0.0727806
0.0713218
0.069854
0.0684381
0.0671319
0.0659812
0.0650132
0.0642345
0.0636261
0.0631507
0.0627592
0.0623962
0.0620234
0.0616125
0.0611409
0.0606005
0.0599936
0.0593317
0.0586336
0.057923
0.0572265
0.0565707
0.0756682
0.074424
0.0730837
0.0716724
0.070226
0.0687879
0.0674051
0.0661225
0.0649674
0.0639548
0.0630859
0.06235
0.0617322
0.0612023
0.0607208
0.0602581
0.0597948
0.0593206
0.0588332
0.0583367
0.0578404
0.0573564
0.0768508
0.0762444
0.0754701
0.0745288
0.0734308
0.0721956
0.0708527
0.0694417
0.0680087
0.0666009
0.06526
0.0640262
0.0629449
0.0620304
0.0612538
0.0605838
0.0599913
0.0594539
0.0589567
0.0584894
0.0580459
0.0576244
0.0743105
0.0741906
0.0739515
0.0735736
0.0730418
0.0723472
0.0714899
0.0704805
0.0693406
0.0681028
0.066807
0.0655051
0.0642696
0.0631497
0.06215
0.0612649
0.0604837
0.0597929
0.0591789
0.0586288
0.0581321
0.0576857
0.0713242
0.0713965
0.0714139
0.0713549
0.0711977
0.0709212
0.0705073
0.0699432
0.069224
0.0683545
0.0673509
0.0662471
0.0651095
0.0640023
0.0629532
0.0619791
0.0610882
0.0602822
0.0595581
0.0589106
0.0583335
0.0578199
0.0680518
0.0681373
0.0682168
0.0682749
0.0682935
0.0682528
0.0681314
0.0679084
0.0675653
0.067088
0.0664697
0.065718
0.0648712
0.0639807
0.0630784
0.0621906
0.0613379
0.0605341
0.0597881
0.059104
0.0584829
0.0579237
0.0655225
0.0654772
0.0654561
0.065452
0.0654538
0.0654475
0.0654163
0.0653412
0.0652019
0.0649783
0.0646525
0.0642143
0.0636751
0.063063
0.0623996
0.0617071
0.0610061
0.0603143
0.059646
0.0590119
0.0584194
0.0578733
0.0637362
0.063513
0.0633296
0.0631765
0.0630628
0.0629687
0.0628894
0.0628113
0.0627178
0.0625918
0.0624146
0.06217
0.0618535
0.0614739
0.0610396
0.0605621
0.0600551
0.0595324
0.0590071
0.0584906
0.0579929
0.0575216
0.0627441
0.06236
0.0619969
0.0616673
0.0613813
0.0611315
0.0609171
0.0607446
0.0605849
0.0604327
0.0602719
0.0600891
0.0598753
0.0596283
0.0593463
0.0590316
0.0586892
0.0583264
0.0579513
0.0575722
0.0571973
0.0568342
0.0623055
0.0618135
0.061348
0.0608975
0.0604565
0.0600377
0.0596601
0.0593176
0.0590286
0.0587872
0.0585592
0.0583429
0.0581325
0.0579224
0.0577052
0.0574768
0.057236
0.0569839
0.0567234
0.0564587
0.0561948
0.055937
0.062434
0.0618121
0.0612108
0.0606412
0.0601108
0.0596108
0.0591248
0.0586493
0.0581952
0.0577746
0.0574521
0.0571536
0.0568849
0.0566452
0.0564261
0.0562195
0.0560198
0.0558238
0.0556302
0.0554392
0.0552528
0.0550738
0.0629327
0.0622547
0.0615779
0.0609092
0.060256
0.0596302
0.0590445
0.0585055
0.0579986
0.057498
0.0570095
0.0566095
0.0562584
0.055948
0.0556851
0.0554584
0.055259
0.0550804
0.0549174
0.054767
0.0546277
0.0544992
0.0636169
0.0629383
0.0622478
0.0615509
0.0608536
0.0601632
0.0594869
0.0588326
0.0582135
0.0576374
0.0570949
0.0566009
0.056212
0.0558551
0.0555309
0.055258
0.0550319
0.0548454
0.0546913
0.0545615
0.0544538
0.0543669
0.0643353
0.0636979
0.0630398
0.0623651
0.0616786
0.0609861
0.0602942
0.0596093
0.0589385
0.0582895
0.0576665
0.0570692
0.0565593
0.0561698
0.0558157
0.0555022
0.0552386
0.0550229
0.0548532
0.0547317
0.0546463
0.05459
0.0649616
0.0644044
0.0638157
0.0632011
0.0625658
0.0619152
0.0612551
0.0605915
0.0599292
0.0592756
0.0586393
0.0580249
0.0574486
0.0569813
0.0565918
0.0562296
0.0559199
0.0556608
0.0554463
0.0552716
0.0551387
0.0550448
0.0654973
0.0650129
0.0645076
0.0639737
0.0634114
0.0628268
0.0622252
0.0616121
0.0609935
0.0603758
0.0597662
0.0591734
0.0586054
0.0581228
0.0577176
0.057352
0.057026
0.0567512
0.0565237
0.0563366
0.0561872
0.0560748
0.0659633
0.0655407
0.0650918
0.0646339
0.0641615
0.0636621
0.0631375
0.0625954
0.062041
0.0614809
0.0609219
0.0603719
0.059841
0.0593837
0.0589876
0.0586331
0.0583134
0.0580407
0.0578131
0.0576274
0.0574803
0.0573693
0.0663452
0.0659848
0.0656087
0.0652105
0.0648011
0.0643803
0.0639477
0.0634902
0.063012
0.0625226
0.0620291
0.0615351
0.0610658
0.0606458
0.0602794
0.0599467
0.059649
0.0593929
0.0591775
0.0590012
0.0588619
0.0587572
0.066622
0.0663541
0.066061
0.0657345
0.0653909
0.0650202
0.0646475
0.0642751
0.0638831
0.0634701
0.063043
0.0626196
0.0622135
0.0618407
0.0615139
0.0612102
0.0609432
0.0607124
0.0605178
0.0603583
0.0602325
0.0601388
0.0668415
0.0666479
0.0664311
0.0661896
0.0659252
0.0656331
0.0653121
0.0649861
0.064654
0.0643185
0.0639688
0.063609
0.0632603
0.0629422
0.0626483
0.0623827
0.0621481
0.0619454
0.0617747
0.0616356
0.0615268
0.0614469
0.00544496
0.00561947
0.00560836
0.00525794
0.0044627
0.0030787
0.0246963
0.0260354
0.0260528
0.0250388
0.0236589
0.0215509
0.0746804
0.0780546
0.0808975
0.0818194
0.0801749
0.0761084
0.0659761
0.0650042
0.063346
0.0612391
0.0592066
0.0569343
0.0662289
0.0646567
0.0631811
0.0617045
0.0602538
0.0588775
0.0584708
0.0571925
0.0560051
0.0549855
0.0540401
0.0531574
0.0572179
0.0559601
0.0549294
0.0541255
0.0534941
0.0530565
0.0538121
0.0530667
0.0525652
0.052282
0.0522216
0.052383
0.0538978
0.0533263
0.0530501
0.0530496
0.0533096
0.0538217
0.0543144
0.0538312
0.0535883
0.0536061
0.0538682
0.0543696
0.055962
0.0554646
0.0551255
0.0549666
0.0550015
0.0552354
0.056877
0.0564079
0.0560454
0.0557905
0.0556594
0.0556636
0.0572241
0.0568183
0.0564455
0.0561401
0.0559153
0.0557811
0.0572426
0.0568212
0.0564304
0.056088
0.0558014
0.0555877
0.0573068
0.0568157
0.0563728
0.0559863
0.055652
0.055378
0.0573644
0.0568245
0.0563387
0.0559099
0.0555411
0.0552351
0.0573065
0.0567438
0.0562359
0.0557859
0.0553974
0.0550743
0.0569957
0.0564478
0.0559515
0.0555109
0.0551295
0.0548101
0.0563849
0.0558877
0.0554392
0.0550452
0.0547113
0.0544423
0.0555773
0.0551629
0.0547973
0.0544876
0.0542401
0.0540613
0.054805
0.0545037
0.0542571
0.0540733
0.0539594
0.0539219
0.0543189
0.0541559
0.0540567
0.0540293
0.0540808
0.054217
0.0542841
0.0542786
0.0543436
0.0544789
0.0546851
0.0549621
0.0545918
0.0547007
0.0548637
0.0550966
0.0554044
0.0557889
0.0550585
0.0552679
0.0555628
0.0559462
0.0564271
0.0569965
0.0561398
0.0564849
0.0569113
0.0574117
0.0579771
0.0586131
0.0574784
0.0579025
0.0583972
0.0589593
0.0595854
0.0602669
0.0588979
0.0593727
0.0599098
0.0605056
0.0611508
0.0618382
0.0603021
0.0608029
0.0613572
0.0619547
0.0625879
0.0632814
0.0616261
0.0621344
0.0626771
0.0632551
0.0638899
0.0645566
0.00223295
0.00192219
0.00197904
0.00215282
0.00216069
0.00183002
0.00105139
0.000678204
0.000581162
0.000559293
0.00051856
0.000487363
0.000482911
0.000530815
0.000627666
0.000763735
0.000917975
0.00117812
0.00150652
0.00181166
0.00218504
0.00269506
0.0185796
0.0154817
0.0121296
0.00896259
0.00641003
0.0051834
0.00494408
0.00543257
0.00625167
0.00716989
0.00818762
0.00897194
0.0097282
0.0107088
0.0119529
0.0132137
0.0144124
0.0164413
0.0189903
0.0221768
0.0254312
0.0287438
0.0701307
0.0636164
0.0562272
0.0489409
0.0424159
0.03804
0.0363538
0.0375015
0.0412124
0.0461405
0.0515652
0.0566461
0.060518
0.0626012
0.062569
0.0609954
0.0580777
0.0549481
0.0525422
0.0509163
0.0499635
0.0495312
0.0546869
0.0525349
0.0504237
0.0485802
0.0476347
0.0466781
0.0456246
0.0445465
0.0431461
0.043074
0.0432522
0.043402
0.0434355
0.0438804
0.0455618
0.0490784
0.0540754
0.0586459
0.0620253
0.0639322
0.064425
0.0637851
0.0577008
0.0567556
0.05589
0.0550093
0.0536372
0.0523108
0.0513375
0.0508326
0.0510137
0.0509738
0.0517959
0.0537971
0.0570668
0.061418
0.0664108
0.0712366
0.0762465
0.0804275
0.0834373
0.0852423
0.0859557
0.0856944
0.0523916
0.0517351
0.0511394
0.0506222
0.0502506
0.050094
0.0499593
0.0500805
0.0508771
0.052335
0.0544931
0.0572962
0.0604709
0.0636454
0.0665266
0.0688961
0.0695934
0.0698291
0.0695636
0.068945
0.0681509
0.0673807
0.0528357
0.0528321
0.0530422
0.05351
0.0542897
0.0554373
0.0569477
0.05887
0.0611831
0.0637976
0.0665757
0.0693356
0.0718594
0.0739631
0.0755921
0.076743
0.0774765
0.0779261
0.0781604
0.0782284
0.0781629
0.0779805
0.0527659
0.0533236
0.0540992
0.0551087
0.0563446
0.0578023
0.0594614
0.0612772
0.0632034
0.0651622
0.0670769
0.0688578
0.0703965
0.0716479
0.0726226
0.0733452
0.0738477
0.0741609
0.0743096
0.0743164
0.0742033
0.0739947
0.0545337
0.0554098
0.0564692
0.0577125
0.0591261
0.0606845
0.0623501
0.0640753
0.0658219
0.0675309
0.0691482
0.0706124
0.0718504
0.0728382
0.0735875
0.0741144
0.0744373
0.0745756
0.0745489
0.0743794
0.0740897
0.0737095
0.0550518
0.0558325
0.0567427
0.0577664
0.0588828
0.0600665
0.061289
0.0625183
0.0637215
0.0648654
0.0659189
0.0668467
0.0676075
0.0681905
0.0686068
0.0688711
0.0689976
0.0690026
0.0689039
0.0687202
0.0684714
0.0681711
0.0556534
0.0561526
0.0567501
0.0574337
0.0581886
0.0589978
0.0598422
0.0607012
0.0615534
0.0623769
0.0631498
0.0638458
0.0644312
0.0648937
0.0652386
0.0654745
0.0656123
0.0656656
0.0656478
0.0655734
0.065458
0.0653168
0.0558152
0.0560261
0.0563094
0.0566603
0.0570717
0.0575351
0.0580401
0.0585748
0.0591256
0.0596773
0.0602133
0.0607139
0.0611485
0.0615009
0.0617688
0.0619538
0.0620596
0.0620977
0.0620829
0.062032
0.0619673
0.0619083
0.0557595
0.0557816
0.0558612
0.0559986
0.0561928
0.0564414
0.0567406
0.0570841
0.0574625
0.0578632
0.0582711
0.0586676
0.0590294
0.0593466
0.0596228
0.0598622
0.060074
0.0602705
0.0604659
0.0606752
0.0609121
0.0611888
0.0554681
0.0553822
0.0553431
0.055354
0.0554167
0.0555317
0.0556979
0.0559121
0.0561676
0.0564595
0.0567811
0.0571228
0.0574683
0.0578078
0.0581444
0.0584852
0.0588411
0.0592246
0.0596483
0.0601229
0.0606567
0.0612538
0.0551967
0.0550526
0.0549533
0.054907
0.0549162
0.0549808
0.055099
0.0552698
0.0554914
0.0557609
0.0560769
0.0564392
0.0568316
0.0572656
0.0577464
0.0582788
0.0588733
0.059538
0.0602779
0.0610933
0.06198
0.0629285
0.0550267
0.0548406
0.0547192
0.0546469
0.0546274
0.0546632
0.0547558
0.0549073
0.0551217
0.0553909
0.0557494
0.0562046
0.0567393
0.0573639
0.0580852
0.0589063
0.0598265
0.0608406
0.0619382
0.0631055
0.0643204
0.0655696
0.0548507
0.0546555
0.0545194
0.0544329
0.0544022
0.0544337
0.0545286
0.0547108
0.054983
0.0553651
0.0558797
0.0565448
0.057359
0.0583075
0.0593821
0.0605694
0.0618514
0.0632062
0.0646107
0.0660413
0.0674708
0.0688929
0.054584
0.0543997
0.0542628
0.0541911
0.0541849
0.0542728
0.0544633
0.0547756
0.0552303
0.0558506
0.0566589
0.0576671
0.0588506
0.060166
0.0615881
0.06309
0.0646445
0.0662243
0.0678062
0.0693731
0.0709092
0.0723865
0.0542258
0.0540801
0.0540073
0.0540258
0.0541523
0.0544067
0.054809
0.0553794
0.0561359
0.0570918
0.0582549
0.0596136
0.0611113
0.0626937
0.0643391
0.0660223
0.0677167
0.0693883
0.0710044
0.0725274
0.0739245
0.0751859
0.0539415
0.053919
0.054004
0.0542169
0.0545765
0.0550993
0.0557985
0.0566831
0.0577496
0.0589901
0.0604014
0.0619781
0.0636835
0.0654428
0.0672369
0.0689958
0.0706706
0.0722189
0.0736098
0.0748545
0.0759534
0.0769117
0.0539692
0.0541563
0.0544804
0.0549549
0.0555894
0.0563807
0.0573208
0.058406
0.0596576
0.0611054
0.0627429
0.0645242
0.0663695
0.0682174
0.069959
0.0715494
0.072956
0.0742089
0.0753084
0.076256
0.0770577
0.0777223
0.0544709
0.0548971
0.0554525
0.0561319
0.0569319
0.0578772
0.0590037
0.0603347
0.0618437
0.0634837
0.0652258
0.0670814
0.0689157
0.0705804
0.0720343
0.0733143
0.0744352
0.0753933
0.0761948
0.0768486
0.0773659
0.0777591
0.0553535
0.0559122
0.0565946
0.0574375
0.0584712
0.0596923
0.0610684
0.0625611
0.0641494
0.0658129
0.0675972
0.0693379
0.0708876
0.0722149
0.0733852
0.0743812
0.0752097
0.0758794
0.0764019
0.0767903
0.0770589
0.077222
0.0563235
0.0571014
0.0580564
0.0591689
0.0604142
0.0617674
0.0632093
0.0647199
0.0662956
0.0679633
0.0695406
0.0709428
0.0721804
0.073245
0.0741322
0.0748484
0.0754054
0.0758171
0.0760982
0.0762642
0.0763302
0.0763112
0.0577474
0.0587569
0.0598767
0.0610973
0.0624028
0.0637746
0.0651981
0.0666866
0.0682114
0.069613
0.0708537
0.0719893
0.0729661
0.0737618
0.0743858
0.0748514
0.0751741
0.0753701
0.0754559
0.0754471
0.0753591
0.0752061
0.0594477
0.0605413
0.061716
0.0629575
0.064249
0.0655781
0.0669703
0.0683473
0.0695892
0.0706914
0.0717109
0.0726015
0.073327
0.0738805
0.0742768
0.0745326
0.0746652
0.0746918
0.0746289
0.0744918
0.0742951
0.0740519
0.0611398
0.0622579
0.0634284
0.0646359
0.065869
0.0671595
0.0683916
0.0694965
0.0704931
0.071406
0.0722061
0.0728703
0.0733754
0.0737242
0.0739344
0.0740241
0.0740111
0.0739125
0.0737439
0.0735197
0.0732531
0.072956
0.0627198
0.0638191
0.0649443
0.0660872
0.0672767
0.0683825
0.0693768
0.0702798
0.0711049
0.0718265
0.0724294
0.072899
0.0732217
0.0734067
0.0734725
0.0734375
0.0733191
0.0731332
0.0728943
0.0726154
0.0723082
0.0719831
0.0641387
0.0651855
0.0662455
0.0673359
0.0683367
0.0692403
0.0700662
0.0708205
0.0714814
0.0720356
0.0724734
0.072785
0.0729641
0.0730237
0.0729823
0.0728574
0.0726652
0.0724205
0.0721361
0.0718236
0.0714932
0.0711539
0.065369
0.0663516
0.0673519
0.068266
0.0690989
0.0698635
0.0705634
0.0711795
0.0717002
0.0721168
0.0724224
0.0726108
0.0726804
0.0726462
0.0725257
0.0723351
0.0720894
0.0718018
0.071484
0.0711461
0.0707972
0.0704452
0.00325224
0.00378598
0.0045157
0.00554508
0.00699446
0.00902532
0.0118486
0.0157223
0.0209615
0.0269767
0.0322301
0.0372127
0.0425723
0.0483955
0.054491
0.0602891
0.0653338
0.0695014
0.0724707
0.0737586
0.073135
0.0720583
0.0679323
0.0605198
0.0530512
0.0460218
0.039212
0.0328175
0.0269511
0.0215455
0.0164612
0.0115583
0.00663844
0.00206853
0.000744479
0.0312603
0.0332469
0.0352116
0.0373477
0.039718
0.0422944
0.0450122
0.0477127
0.0502919
0.0529532
0.05612
0.0598893
0.0644397
0.0698679
0.0762617
0.0829917
0.0887521
0.0918169
0.0918876
0.0895691
0.0868853
0.0838009
0.083194
0.0863412
0.0902838
0.0914903
0.0927549
0.0914128
0.0856853
0.0755532
0.0609636
0.0437534
0.0260467
0.010323
0.00117081
0.0493539
0.0493026
0.0493451
0.0494766
0.049674
0.0499114
0.0501852
0.0505875
0.0512779
0.0524016
0.0541757
0.0571563
0.0596997
0.0641992
0.0702225
0.0735229
0.073712
0.0713798
0.0680707
0.0644388
0.0618189
0.0650929
0.0733062
0.081556
0.0877404
0.0898101
0.0876981
0.0821819
0.0741402
0.0640159
0.051925
0.038456
0.024281
0.0105142
0.00115556
0.0625132
0.0612836
0.0599101
0.0584709
0.0570229
0.055681
0.0541604
0.0522711
0.0496634
0.0475609
0.0462641
0.044531
0.0436039
0.0431275
0.042576
0.0414006
0.0399905
0.0388759
0.0386059
0.0393879
0.0414116
0.0446154
0.0479755
0.0506115
0.0522519
0.0525556
0.0510083
0.048492
0.0439374
0.0378575
0.0306663
0.0226739
0.0142234
0.00609634
0.000862624
0.0847022
0.083469
0.0816556
0.0791657
0.075977
0.0722486
0.0682937
0.0645136
0.0612221
0.0580481
0.0541071
0.0478265
0.0404329
0.0352417
0.0317016
0.028817
0.0267534
0.0250667
0.0233021
0.0221737
0.0223678
0.0244382
0.0281997
0.0316137
0.0339126
0.0341281
0.0334803
0.031016
0.0275241
0.0234231
0.0189435
0.0142514
0.00940584
0.00445909
0.00057393
0.0668404
0.0664609
0.0660868
0.065691
0.0651971
0.064391
0.063089
0.0611293
0.0583357
0.0545628
0.0498741
0.0447878
0.0400308
0.0366649
0.0341251
0.0317571
0.0291244
0.0261951
0.0236446
0.021139
0.0183614
0.0155044
0.0126982
0.0105906
0.00904397
0.00807285
0.00748845
0.00678821
0.00620619
0.00526573
0.00418795
0.00308249
0.00196949
0.000874487
0.000246884
0.0776815
0.0773522
0.0769409
0.076439
0.0758852
0.0752101
0.0742424
0.0728715
0.0710921
0.0689258
0.0665011
0.0640224
0.061798
0.0602359
0.0592893
0.0587348
0.0582222
0.0573772
0.0559375
0.0537103
0.0505384
0.0462358
0.0410879
0.0359935
0.0313485
0.0271055
0.023142
0.0194764
0.0161027
0.0129062
0.0098143
0.00680782
0.00394734
0.00149804
0.000259593
0.0737611
0.0735757
0.0733309
0.0729858
0.0724193
0.071683
0.0708931
0.0700557
0.0691857
0.0683115
0.0675075
0.0667841
0.0662524
0.0659376
0.0657848
0.0654702
0.0649846
0.0642981
0.0632006
0.0615661
0.0593366
0.0562836
0.0523173
0.0478512
0.042941
0.0376523
0.0322106
0.0268238
0.0216093
0.016715
0.0122454
0.00826829
0.00482343
0.00197015
0.0002096
0.0733974
0.0731899
0.0729484
0.0726631
0.072325
0.0719339
0.0714962
0.0710228
0.0705151
0.0699713
0.0693598
0.0687277
0.0680718
0.0674825
0.0671702
0.0671717
0.0672945
0.0672838
0.0669007
0.0659338
0.0643021
0.0618687
0.0584399
0.0542586
0.0494139
0.0440476
0.0383123
0.0324141
0.0265082
0.0207527
0.0152854
0.0102358
0.0057596
0.00216309
0.000284213
0.0679441
0.0678316
0.067691
0.0675203
0.0673208
0.067093
0.0668411
0.0665666
0.0662804
0.0660228
0.0658691
0.0659434
0.0663903
0.067305
0.068559
0.0697512
0.0705343
0.0708117
0.0705359
0.069649
0.0680027
0.0653551
0.0615934
0.0571226
0.0520703
0.0465078
0.0405616
0.0344116
0.0282382
0.0222048
0.016469
0.0111759
0.00647627
0.00259858
0.000248206
0.0652467
0.0652588
0.0652711
0.0652876
0.0653055
0.0653249
0.0653515
0.0654011
0.0655071
0.0657184
0.0660982
0.066715
0.0676079
0.068766
0.0701308
0.0714105
0.0723329
0.0728022
0.0727049
0.0719551
0.0704113
0.067813
0.064015
0.0594323
0.0541192
0.048277
0.0420859
0.0356924
0.0292766
0.0229938
0.01699
0.0114238
0.0064783