/*--------------------------------*- C++ -*----------------------------------*\
  =========                 |
  \\      /  F ield         | OpenFOAM: The Open Source CFD Toolbox
   \\    /   O peration     | Website:  https://openfoam.org
    \\  /    A nd           | Version:  8
     \\/     M anipulation  |
\*---------------------------------------------------------------------------*/
FoamFile
{
    version     2.0;
    format      ascii;
    class       volScalarField;
    location    "0.5";
    object      nut;
}
// * * * * * * * * * * * * * * * * * * * * * * * * * * * * * * * * * * * * * //

dimensions      [0 2 -1 0 0 0 0];

internalField   nonuniform List<scalar> 
15677
(
0.000586297
0.00141391
0.00474335
0.00840256
0.0119527
0.0154418
0.0188973
0.0223324
0.0257758
0.0292641
0.03258
0.0364971
0.0408319
0.0437515
0.044522
0.0439519
0.0420655
0.0393788
0.0361926
0.0324962
0.0283427
0.0241066
0.0203914
0.0166944
0.0125663
0.00946111
0.00741431
0.00606907
0.00517303
0.00455721
0.00411619
0.00378508
0.00352609
0.00331417
0.00312227
0.00110742
0.00981152
0.0245908
0.0409133
0.0563689
0.0688316
0.0768539
0.0809127
0.0813356
0.080479
0.0769054
0.072395
0.0691609
0.0677057
0.0677838
0.0676989
0.0667065
0.0646836
0.0618135
0.058005
0.0531335
0.0485143
0.0446366
0.0415446
0.039081
0.0367361
0.0345076
0.0324592
0.0305518
0.0286874
0.0268067
0.0250029
0.0233468
0.0218977
0.0207032
0.000991126
0.00908021
0.020769
0.0326652
0.0436609
0.0532783
0.0612921
0.0675228
0.07145
0.0723215
0.0698285
0.0644542
0.058972
0.055717
0.0550346
0.0552018
0.0549469
0.0538283
0.0532273
0.0531359
0.0533059
0.0528634
0.0519695
0.0510152
0.0500999
0.0492066
0.0483259
0.0474804
0.0467055
0.0460022
0.0453284
0.0446631
0.0440387
0.0434593
0.0429214
0.000810543
0.0057966
0.0134136
0.0210222
0.0281175
0.0343857
0.0395573
0.0432652
0.0452731
0.0466283
0.0462584
0.0451673
0.0435489
0.0417608
0.0409843
0.0409374
0.0412679
0.0413563
0.0407872
0.0394503
0.0377098
0.0362262
0.0353064
0.0352465
0.0358928
0.0370054
0.0380914
0.0391004
0.0400242
0.0409203
0.041652
0.0422492
0.04277
0.043232
0.0436397
0.000487124
0.00348086
0.00726454
0.0109118
0.0145001
0.0180424
0.0215101
0.0247234
0.0274997
0.0289604
0.030087
0.0299198
0.0284032
0.0260539
0.0237251
0.0219799
0.0209849
0.0208215
0.0211678
0.0218919
0.0237463
0.0267669
0.030302
0.0341988
0.0375126
0.0402721
0.0419983
0.0428163
0.0433305
0.0438226
0.0444245
0.0451052
0.0458257
0.046551
0.0472542
0.000200341
0.00076467
0.00178717
0.00270689
0.00351164
0.00431911
0.00510566
0.00580048
0.00631019
0.00693432
0.00767145
0.00864819
0.0099871
0.0118785
0.0141254
0.0165024
0.0188954
0.0212447
0.0236797
0.0267573
0.0308963
0.0351067
0.0388122
0.0415477
0.0433184
0.0444775
0.0452677
0.0457786
0.046197
0.0466636
0.0472163
0.0478404
0.0485048
0.0491788
0.0498384
0.00029825
0.00182064
0.00390673
0.00542189
0.00641141
0.00736228
0.00894407
0.0113642
0.014388
0.0178185
0.0215055
0.0253093
0.0290464
0.0327911
0.0361043
0.0388958
0.0412834
0.0433379
0.0451406
0.0468557
0.04855
0.0498583
0.0504219
0.0501811
0.0493851
0.0484499
0.0477021
0.047478
0.047797
0.0485095
0.0494477
0.0504705
0.0514615
0.0523624
0.05315
0.000368131
0.00264575
0.00504866
0.00643501
0.00708136
0.00720339
0.00721967
0.00799297
0.0106037
0.0153489
0.0214258
0.0282898
0.0350972
0.0412753
0.0459985
0.0496239
0.0527504
0.0555273
0.0579829
0.0600002
0.061352
0.0617134
0.0610917
0.0597438
0.0579713
0.0561192
0.0544936
0.0531913
0.0522186
0.0515705
0.0512042
0.0510554
0.0510615
0.0511701
0.0513408
0.000201986
0.000960604
0.00177345
0.0022456
0.00311781
0.00453938
0.00673885
0.0101374
0.0145985
0.0198985
0.0258139
0.0322628
0.0390208
0.0456221
0.0510906
0.0552583
0.058467
0.0609753
0.0629319
0.064376
0.0652763
0.0655141
0.065153
0.0643318
0.0632657
0.0621059
0.0608838
0.0596817
0.0586042
0.0577125
0.0570122
0.0564624
0.0560297
0.0556891
0.0554288
0.000160912
0.00106488
0.00280742
0.00513307
0.00808078
0.0116938
0.0158829
0.0204797
0.0254219
0.0306384
0.0359898
0.0412847
0.0463857
0.0511842
0.0552616
0.0585339
0.0612946
0.0636388
0.0656355
0.0673223
0.0686679
0.069501
0.0697307
0.0693682
0.0684751
0.0672273
0.0658283
0.0644365
0.0630766
0.0617383
0.0604596
0.0593047
0.0583058
0.0574722
0.0567863
0.00021796
0.00159982
0.00412652
0.00722072
0.0107524
0.0146592
0.0188977
0.0234453
0.0282596
0.0332745
0.0383977
0.0435381
0.0485036
0.0531411
0.056934
0.0598752
0.062236
0.0641744
0.0657667
0.0671259
0.0683076
0.0692295
0.0698034
0.0700295
0.0699275
0.069539
0.0689224
0.0681477
0.0672885
0.0664095
0.065564
0.064772
0.0640407
0.0633711
0.0627595
0.000215127
0.00186256
0.00461844
0.00797416
0.0118
0.0160356
0.0206267
0.0255082
0.0305972
0.0357912
0.0409679
0.0460024
0.0507199
0.0549859
0.0583381
0.0608362
0.0627637
0.0642605
0.0655122
0.0665908
0.0675211
0.0682879
0.0688282
0.0691509
0.0692844
0.0692601
0.0691171
0.0688784
0.0685503
0.068133
0.0676296
0.067073
0.0664955
0.0659227
0.065374
0.000229609
0.00185071
0.00472972
0.00826258
0.0122912
0.0167476
0.0215709
0.0266853
0.0319912
0.0373643
0.0426611
0.0477199
0.0523506
0.0563855
0.0593795
0.0614523
0.0629106
0.0639448
0.0647198
0.065333
0.0658356
0.066244
0.0666377
0.0669691
0.0672076
0.0673468
0.067393
0.0673546
0.0672444
0.0670758
0.0668622
0.0666172
0.0663536
0.0660821
0.0658111
0.000230907
0.00202417
0.00507714
0.00880804
0.0130547
0.0177347
0.022772
0.0280758
0.0335334
0.0390084
0.0443497
0.0493758
0.0538983
0.0577351
0.0604554
0.0622102
0.0633042
0.0639326
0.0642551
0.0643966
0.0644488
0.0644699
0.0644669
0.0644682
0.0644655
0.0644491
0.0644131
0.0643539
0.0642711
0.0641671
0.064046
0.063913
0.0637737
0.0636336
0.0634971
0.000237484
0.00204526
0.00519875
0.00906116
0.0134545
0.0182905
0.0234882
0.0289516
0.0345593
0.0401625
0.0456019
0.0506767
0.0551803
0.0589122
0.061444
0.0629586
0.0637672
0.0640721
0.0640367
0.0637909
0.0634349
0.0630591
0.0627285
0.0624471
0.0622108
0.0620116
0.0618393
0.0616841
0.0615405
0.061405
0.0612759
0.0611531
0.0610369
0.0609286
0.0608294
0.000239221
0.00215167
0.00542578
0.00943415
0.0139932
0.019004
0.0243728
0.0299903
0.0357221
0.0414108
0.0469027
0.0519845
0.0564439
0.0600734
0.0624513
0.0637819
0.0643784
0.0644464
0.0641499
0.0636166
0.0629439
0.0622356
0.0615835
0.061012
0.0605192
0.0600875
0.059712
0.0593932
0.0591213
0.0588874
0.0586841
0.058505
0.0583472
0.0582088
0.0580884
0.000242595
0.0021953
0.00556675
0.0096883
0.0143676
0.0195014
0.0249935
0.0307325
0.0365792
0.0423679
0.0479414
0.0530728
0.0575394
0.0611227
0.0634008
0.064598
0.0650346
0.0649238
0.0644337
0.0636923
0.0627944
0.06185
0.0609538
0.0601587
0.0594811
0.0589069
0.0584135
0.05797
0.0575695
0.0572113
0.0568964
0.0566249
0.0563903
0.0561871
0.0560107
0.000244081
0.00227634
0.00574408
0.00997487
0.01477
0.0200206
0.0256261
0.0314707
0.0374083
0.0432681
0.0488975
0.0540612
0.0585316
0.0620829
0.0642927
0.0653969
0.0657207
0.065484
0.06486
0.0639796
0.0629372
0.0618249
0.0607448
0.059799
0.0589692
0.0582346
0.0575862
0.0570316
0.056557
0.0561425
0.0557697
0.0554297
0.055122
0.0548464
0.0546026
0.00024524
0.00232078
0.00586092
0.0101756
0.0150601
0.020402
0.0260974
0.0320283
0.0380452
0.0439738
0.049663
0.0548702
0.0593618
0.0629021
0.065071
0.0661151
0.0663574
0.0660281
0.0653106
0.0643401
0.0632123
0.0620049
0.0608246
0.0597885
0.0588797
0.058051
0.0573055
0.0566435
0.0560593
0.0555486
0.0551072
0.0547255
0.0543911
0.0540939
0.0538255
0.000245805
0.0023796
0.00599195
0.0103806
0.0153402
0.0207561
0.0265225
0.0325194
0.0385948
0.0445708
0.050303
0.0555442
0.0600593
0.0636219
0.0657919
0.0667943
0.0669737
0.0665775
0.0657938
0.0647591
0.0635663
0.0623148
0.0610788
0.0599969
0.0590472
0.0581782
0.0573871
0.0566813
0.0560534
0.0554955
0.0549993
0.0545579
0.0541661
0.0538189
0.0535118
0.000246056
0.0024224
0.00609173
0.0105398
0.0155588
0.0210322
0.0268527
0.0328991
0.0390192
0.0450333
0.0507967
0.0560651
0.0606075
0.0641691
0.06627
0.0672174
0.0673638
0.0669363
0.066124
0.0650696
0.0638709
0.0626308
0.0613959
0.060292
0.0593302
0.0584684
0.057667
0.0569499
0.0563092
0.0557375
0.0552275
0.0547722
0.0543654
0.0540011
0.0536741
0.000246063
0.00246757
0.00618866
0.0106863
0.0157523
0.0212693
0.0271291
0.0332096
0.0393594
0.045398
0.0511782
0.0564652
0.0610138
0.0645504
0.066686
0.0676453
0.0677649
0.0672959
0.0664414
0.0653528
0.064132
0.062896
0.0617056
0.0606017
0.0596434
0.0588062
0.0580306
0.0573296
0.0567021
0.0561412
0.0556401
0.0551923
0.0547914
0.0544318
0.0541082
0.000245821
0.00250453
0.00626826
0.0108057
0.0159084
0.021458
0.0273454
0.0334482
0.0396163
0.0456687
0.0514537
0.0567541
0.0612949
0.0648694
0.0670036
0.0679468
0.0680422
0.0675422
0.0666558
0.0655416
0.0643066
0.0630662
0.0619162
0.060833
0.0599042
0.0590975
0.0583832
0.0577193
0.0571239
0.0565913
0.0561165
0.0556931
0.0553146
0.0549755
0.0546709
0.000245418
0.0025406
0.00634189
0.0109121
0.0160431
0.0216161
0.0275217
0.0336368
0.039813
0.0458695
0.0516481
0.0569348
0.0614949
0.0650683
0.0672
0.0681338
0.0682109
0.0676852
0.0667715
0.0656361
0.0643939
0.0631653
0.0620489
0.0610181
0.0600836
0.0592851
0.0585982
0.0579896
0.0574499
0.0569754
0.0565524
0.0561724
0.0558299
0.0555214
0.0552436
0.000244888
0.00257206
0.0064056
0.0110023
0.0161554
0.0217455
0.0276623
0.0337825
0.0399595
0.046012
0.0517767
0.0570582
0.0616062
0.0651718
0.0672981
0.0682234
0.068285
0.0677362
0.0667962
0.0656385
0.0643858
0.0631634
0.0620697
0.0611071
0.0602328
0.0594674
0.0588035
0.058223
0.057708
0.057249
0.0568502
0.0565043
0.0562048
0.0559429
0.0557107
0.000244271
0.00260182
0.00646415
0.0110836
0.0162532
0.0218548
0.0277772
0.0338967
0.0400687
0.0461126
0.05185
0.0571159
0.0616467
0.0651985
0.0673153
0.0682314
0.0682787
0.0677089
0.0667433
0.0655617
0.0642947
0.0630744
0.0619989
0.0610672
0.0602584
0.0595375
0.0589229
0.0583952
0.0579342
0.0575341
0.0571768
0.0568618
0.0565831
0.0563381
0.0561246
0.000243577
0.00262868
0.00651597
0.0111548
0.0163389
0.0219482
0.0278721
0.0339866
0.0401491
0.0461753
0.0518878
0.0571278
0.0616337
0.0651646
0.0672672
0.0681721
0.0682059
0.0676169
0.0666271
0.0654211
0.064137
0.0629144
0.0618525
0.0609474
0.0601757
0.0595156
0.0589402
0.0584511
0.0580336
0.0576728
0.0573608
0.0570945
0.0568611
0.0566562
0.0564715
0.000242822
0.00265356
0.00656279
0.0112172
0.0164122
0.0220279
0.0279515
0.0340581
0.0402036
0.0462115
0.0518939
0.0571036
0.0615793
0.0650835
0.0671671
0.0680584
0.0680788
0.0674726
0.0664608
0.0652315
0.063929
0.0627012
0.0616492
0.0607671
0.0600281
0.0594073
0.0588838
0.0584419
0.0580636
0.057746
0.057476
0.057246
0.0570488
0.0568788
0.0567371
0.000242009
0.00267614
0.00660463
0.0112715
0.0164731
0.0220894
0.0280078
0.0341032
0.0402336
0.0462236
0.0518791
0.0570509
0.0614928
0.0649655
0.0670256
0.0679008
0.0679076
0.0672858
0.0662546
0.0650041
0.0636839
0.0624495
0.061405
0.0605429
0.059834
0.0592502
0.0587682
0.0583691
0.0580378
0.0577627
0.0575342
0.0573439
0.0571852
0.057052
0.0569405
0.000241103
0.00269621
0.00664066
0.011317
0.0165228
0.0221387
0.0280522
0.0341374
0.0402503
0.0462175
0.051846
0.056976
0.0613813
0.0648187
0.0668514
0.0677076
0.0676997
0.0670635
0.0660155
0.0647462
0.0634098
0.0621688
0.06113
0.0602856
0.059604
0.0590543
0.0586105
0.0582519
0.0579616
0.0577267
0.0575366
0.0573825
0.0572576
0.0571561
0.0570733
0.00287052
0.00259975
0.00232616
0.00206316
0.00181506
0.00159409
0.00142427
0.0013096
0.00123981
0.00114486
0.00106198
0.00104671
0.00111072
0.00125047
0.0014522
0.00171066
0.00202641
0.00240035
0.00281394
0.00322098
0.00358303
0.00387841
0.0193316
0.0178348
0.016503
0.015302
0.014201
0.013178
0.0122259
0.0113493
0.0105538
0.00986115
0.00910814
0.00875912
0.0083506
0.00807991
0.00842896
0.00959589
0.0118212
0.0143724
0.0168014
0.0189953
0.0207185
0.021995
0.0421873
0.041234
0.0403193
0.0394789
0.0387472
0.0381635
0.037766
0.0375498
0.0374557
0.0373292
0.0371697
0.0375697
0.0391856
0.0424487
0.0466322
0.0506188
0.053693
0.055675
0.0566857
0.0570536
0.0573012
0.057977
0.0441111
0.0446219
0.0450833
0.0454939
0.0458506
0.0461484
0.0463627
0.0464591
0.046426
0.0463085
0.0462849
0.0464415
0.0470829
0.0485823
0.0512935
0.0541499
0.0565546
0.0580843
0.0587788
0.0589841
0.0588784
0.0588351
0.0481429
0.0492845
0.0505156
0.0518192
0.0531809
0.0545876
0.0560223
0.0574681
0.0588734
0.0601331
0.0610969
0.0616829
0.0618681
0.0619092
0.0619321
0.0617733
0.0612503
0.0603262
0.0592724
0.0581693
0.0571904
0.0560438
0.0506929
0.051796
0.0530048
0.0542846
0.0555788
0.0568156
0.0578856
0.0587092
0.059247
0.0594953
0.0595222
0.0594043
0.0591755
0.0588395
0.0583642
0.0578194
0.057168
0.0563733
0.0552812
0.0539963
0.0528239
0.0517649
0.0540702
0.0550902
0.0560116
0.0568295
0.0575496
0.0581683
0.0586858
0.0591263
0.0594644
0.0596503
0.0596491
0.0594378
0.0590046
0.0583657
0.0575584
0.0565544
0.0553742
0.0540581
0.0527516
0.05164
0.0505183
0.0494662
0.0516265
0.0520927
0.0526659
0.0532926
0.0539215
0.0545078
0.0550151
0.0553838
0.0556022
0.055667
0.0555751
0.0552973
0.0548225
0.0541263
0.05327
0.0523266
0.0513074
0.0502772
0.0493013
0.0483851
0.047562
0.0468248
0.055138
0.05486
0.0547279
0.0547282
0.0548335
0.0550055
0.0551999
0.055369
0.0554673
0.055453
0.0552896
0.0549468
0.0544187
0.0537089
0.0528924
0.0519761
0.0509907
0.0499743
0.048975
0.0480356
0.0471906
0.0464709
0.0559506
0.0550016
0.0542662
0.0537469
0.0534297
0.0532839
0.0532612
0.0533023
0.0533593
0.0533878
0.0533458
0.0531978
0.0529213
0.0525153
0.0519746
0.0513362
0.0506196
0.0498504
0.0490631
0.0482924
0.047574
0.0469385
0.0618859
0.0606493
0.0594046
0.0582044
0.0570976
0.0561233
0.0553045
0.054647
0.0541345
0.0537358
0.0534093
0.0531078
0.0527978
0.0524548
0.0520597
0.0516056
0.0510946
0.0505364
0.049947
0.0493464
0.0487576
0.0482041
0.0646218
0.0635507
0.062398
0.0611849
0.059942
0.0587065
0.0575184
0.0564159
0.055423
0.0545527
0.0538055
0.0531728
0.0526419
0.0521872
0.0517746
0.0513789
0.0509833
0.0505791
0.0501639
0.0497415
0.0493193
0.0489087
0.0654826
0.0649676
0.0643089
0.0635078
0.0625728
0.061521
0.0603773
0.0591754
0.0579546
0.0567552
0.0556128
0.0545618
0.0536407
0.0528615
0.0522
0.0516297
0.0511258
0.0506693
0.0502473
0.0498508
0.0494749
0.0491187
0.063416
0.0633097
0.0631012
0.0627741
0.0623155
0.0617181
0.0609819
0.060116
0.059139
0.0580786
0.0569691
0.0558549
0.054798
0.0538403
0.0529856
0.0522292
0.0515617
0.0509717
0.0504476
0.0499786
0.0495555
0.0491756
0.0608269
0.0608895
0.0609043
0.0608537
0.060719
0.0604824
0.0601283
0.0596459
0.0590309
0.0582876
0.0574297
0.0564862
0.055514
0.0545677
0.0536712
0.052839
0.052078
0.0513896
0.0507713
0.0502187
0.0497263
0.0492883
0.0580654
0.0581376
0.0582036
0.058251
0.0582646
0.0582274
0.0581213
0.0579284
0.0576328
0.0572227
0.0566922
0.0560479
0.0553226
0.0545602
0.0537878
0.0530282
0.0522987
0.0516112
0.0509733
0.0503885
0.0498577
0.0493795
0.0558956
0.0558582
0.0558402
0.0558363
0.0558373
0.0558311
0.0558035
0.0557382
0.0556178
0.0554253
0.0551453
0.0547692
0.0543068
0.0537822
0.053214
0.0526209
0.0520207
0.0514285
0.0508564
0.0503137
0.0498067
0.0493387
0.0543775
0.054188
0.054031
0.0538998
0.053802
0.0537208
0.0536521
0.0535841
0.0535029
0.0533937
0.0532406
0.0530298
0.0527575
0.0524314
0.0520585
0.0516489
0.0512141
0.050766
0.0503157
0.0498732
0.0494466
0.0490417
0.0535245
0.0531985
0.052889
0.052608
0.052364
0.0521507
0.0519674
0.0518195
0.0516825
0.0515516
0.0514131
0.0512556
0.0510715
0.0508588
0.0506163
0.0503457
0.0500516
0.04974
0.049418
0.0490926
0.0487708
0.0484578
0.0531474
0.0527292
0.0523326
0.0519485
0.0515725
0.0512151
0.0508928
0.0506003
0.0503531
0.0501464
0.049951
0.0497652
0.0495844
0.0494036
0.0492168
0.0490202
0.048813
0.048596
0.048372
0.0481444
0.0479173
0.047694
0.0532502
0.0527215
0.0522095
0.0517243
0.0512724
0.0508462
0.0504319
0.0500263
0.0496387
0.0492795
0.0490038
0.0487484
0.0485181
0.0483124
0.0481243
0.0479467
0.0477748
0.0476061
0.0474393
0.0472749
0.0471141
0.0469581
0.0536696
0.0530929
0.0525166
0.051947
0.0513906
0.0508574
0.0503583
0.0498989
0.0494666
0.0490394
0.0486225
0.0482808
0.0479806
0.047715
0.0474898
0.0472953
0.047124
0.0469704
0.04683
0.0467004
0.0465801
0.0464674
0.0542465
0.0536693
0.0530815
0.052488
0.0518942
0.051306
0.0507299
0.0501723
0.0496446
0.0491535
0.0486908
0.0482692
0.0479371
0.0476321
0.0473549
0.0471213
0.0469275
0.0467674
0.0466349
0.0465231
0.0464299
0.046353
0.054853
0.0543107
0.0537505
0.0531761
0.0525916
0.052002
0.0514127
0.0508291
0.0502575
0.0497043
0.0491732
0.0486638
0.0482288
0.0478963
0.0475938
0.0473259
0.0471004
0.0469156
0.04677
0.0466655
0.0465916
0.0465412
0.0553812
0.0549071
0.0544062
0.0538831
0.0533424
0.0527886
0.0522263
0.051661
0.0510966
0.0505399
0.0499978
0.0494741
0.0489826
0.0485839
0.0482515
0.0479422
0.0476776
0.047456
0.0472723
0.0471228
0.0470086
0.0469264
0.055833
0.0554207
0.0549908
0.0545365
0.0540579
0.0535603
0.0530481
0.0525262
0.0519993
0.0514731
0.0509536
0.0504484
0.0499643
0.0495527
0.049207
0.048895
0.0486167
0.0483819
0.0481874
0.0480274
0.0478993
0.0478018
0.0562259
0.0558661
0.0554842
0.0550946
0.0546927
0.0542676
0.0538211
0.0533596
0.0528875
0.0524105
0.0519344
0.0514658
0.0510134
0.0506234
0.0502855
0.0499832
0.0497104
0.0494776
0.049283
0.0491243
0.0489985
0.0489026
0.0565477
0.0562408
0.0559209
0.0555821
0.0552337
0.0548757
0.0545075
0.0541181
0.0537109
0.0532943
0.0528739
0.0524531
0.0520532
0.0516952
0.0513828
0.0510991
0.0508451
0.0506265
0.0504426
0.050292
0.0501729
0.050083
0.0567805
0.0565523
0.056303
0.0560252
0.0557328
0.0554174
0.0551002
0.0547832
0.0544495
0.0540979
0.0537343
0.0533736
0.0530276
0.05271
0.0524314
0.0521725
0.0519448
0.0517478
0.0515817
0.0514454
0.051338
0.0512579
0.0569649
0.0568
0.0566156
0.0564101
0.0561851
0.0559366
0.0556633
0.0553859
0.0551032
0.0548176
0.0545198
0.0542134
0.0539163
0.0536454
0.0533949
0.0531685
0.0529684
0.0527955
0.0526498
0.052531
0.0524382
0.0523703
0.00415631
0.00428822
0.00427791
0.004009
0.00340143
0.00234523
0.0230235
0.0242618
0.0242643
0.023304
0.0220004
0.0200218
0.0597899
0.0625103
0.0647949
0.0655259
0.064188
0.0609092
0.0586692
0.0578042
0.0563217
0.0544342
0.0526092
0.0505694
0.0547583
0.0534836
0.0522947
0.0511067
0.0499392
0.0488311
0.0506575
0.0495264
0.0484783
0.0475774
0.0467432
0.0459647
0.0483682
0.0473056
0.046435
0.0457566
0.0452241
0.0448556
0.0461031
0.0454571
0.0450215
0.044774
0.0447188
0.0448549
0.0458453
0.045363
0.0451312
0.0451339
0.0453579
0.0457966
0.046363
0.0459519
0.0457457
0.0457623
0.0459878
0.0464184
0.0476869
0.0472671
0.0469809
0.0468481
0.0468809
0.0470848
0.0484997
0.048103
0.0477964
0.0475815
0.0474726
0.0474805
0.0487782
0.0484355
0.04812
0.0478621
0.0476728
0.0475619
0.0487978
0.0484402
0.0481084
0.047818
0.0475752
0.0473949
0.0488512
0.0484327
0.0480555
0.0477265
0.0474422
0.0472091
0.0489031
0.0484417
0.0480271
0.0476613
0.0473466
0.047085
0.0488559
0.048374
0.0479398
0.0475553
0.0472232
0.0469458
0.048594
0.0481237
0.0476989
0.0473217
0.0469951
0.0467199
0.0480757
0.0476481
0.0472637
0.046926
0.0466396
0.0464069
0.0473886
0.0470313
0.0467175
0.0464516
0.0462389
0.0460822
0.0467304
0.0464694
0.0462571
0.0460984
0.0459993
0.0459635
0.0463152
0.0461722
0.0460856
0.0460604
0.0461022
0.0462145
0.046284
0.0462754
0.0463289
0.0464424
0.0466161
0.0468486
0.046544
0.0466332
0.0467703
0.046967
0.0472274
0.0475517
0.0469391
0.0471143
0.0473639
0.0476889
0.0480969
0.0485792
0.0478578
0.048149
0.0485107
0.0489355
0.0494156
0.0499551
0.0489955
0.0493545
0.0497744
0.0502519
0.0507837
0.0513626
0.0502021
0.0506047
0.0510608
0.0515669
0.0521153
0.0526997
0.0513956
0.0518209
0.0522917
0.0527994
0.0533376
0.0539278
0.0525209
0.052953
0.053414
0.0539051
0.0544448
0.0550127
0.00170062
0.00146478
0.00150917
0.00164343
0.00165119
0.00140017
0.000805379
0.000520005
0.000445872
0.000429315
0.000398136
0.000374274
0.000370919
0.00040782
0.000482371
0.000587092
0.000705862
0.000906188
0.00115918
0.00139444
0.00168239
0.00207592
0.0172469
0.01436
0.0112449
0.00830729
0.0059413
0.00480603
0.00458669
0.00504181
0.00580373
0.00665735
0.00760277
0.00832998
0.00902934
0.0099349
0.0110827
0.012244
0.0133453
0.0152114
0.0175528
0.0204781
0.0234613
0.0264967
0.0561121
0.0509019
0.0450077
0.0391954
0.0339867
0.0304968
0.0291646
0.0301074
0.0331105
0.0370939
0.0414779
0.0455834
0.0487107
0.0503953
0.0503721
0.0491055
0.0467543
0.0442343
0.0423017
0.040999
0.0402404
0.0399013
0.048557
0.0466233
0.0447165
0.04305
0.0421847
0.0413157
0.0403683
0.0394097
0.0381743
0.0381173
0.0382803
0.0384183
0.0384559
0.0388584
0.0403561
0.0434766
0.0479168
0.0519852
0.0550014
0.0567113
0.0571651
0.0566143
0.0478765
0.0471081
0.0464061
0.0456885
0.0445566
0.0434564
0.0426439
0.0422149
0.0423512
0.0423058
0.0429738
0.0446206
0.0473183
0.0509107
0.0550316
0.0590116
0.063148
0.0666106
0.0691158
0.0706307
0.0712473
0.0710497
0.0452984
0.0447315
0.0442164
0.0437687
0.043447
0.0433119
0.043197
0.0433057
0.0440017
0.0452733
0.0471554
0.0496002
0.0523695
0.0551401
0.0576601
0.0597404
0.0603714
0.0605994
0.060388
0.0598657
0.0591894
0.0585344
0.0446672
0.0446588
0.0448318
0.0452221
0.0458745
0.0468366
0.0481038
0.0497177
0.0516602
0.0538553
0.0561852
0.0584969
0.0606068
0.0623609
0.0637139
0.0646634
0.0652614
0.0656206
0.0657996
0.0658399
0.0657688
0.0655992
0.0451843
0.0456667
0.0463352
0.0472046
0.0482696
0.0495263
0.0509577
0.0525256
0.0541908
0.0558865
0.057547
0.0590953
0.0604381
0.0615356
0.0623957
0.0630394
0.0634937
0.0637847
0.0639336
0.0639594
0.0638799
0.0637178
0.0464017
0.0471461
0.0480462
0.0491028
0.0503036
0.0516271
0.0530413
0.0545054
0.0559862
0.0574332
0.0588004
0.0600355
0.0610767
0.0619043
0.0625285
0.0629631
0.0632241
0.0633282
0.0632926
0.0631356
0.062877
0.062542
0.0470021
0.0476738
0.048456
0.0493357
0.0502953
0.0513132
0.0523648
0.0534229
0.0544597
0.055447
0.056358
0.0571629
0.0578256
0.0583361
0.0587036
0.0589401
0.0590581
0.0590715
0.0589955
0.0588462
0.0586404
0.0583904
0.0474417
0.0478697
0.0483807
0.0489648
0.0496094
0.0502999
0.0510198
0.0517515
0.0524765
0.0531762
0.0538317
0.0544205
0.054914
0.0553018
0.055589
0.0557829
0.0558931
0.0559309
0.0559077
0.0558362
0.0557297
0.0556011
0.0476108
0.0477949
0.0480399
0.0483424
0.0486967
0.0490954
0.0495296
0.0499893
0.0504627
0.050937
0.0513978
0.0518281
0.0522017
0.0525048
0.0527356
0.0528954
0.0529879
0.0530229
0.0530128
0.0529718
0.0529187
0.0528706
0.0475439
0.0475648
0.0476338
0.0477519
0.0479181
0.0481303
0.0483851
0.048677
0.0489981
0.0493376
0.0496825
0.0500174
0.0503228
0.0505902
0.0508221
0.0510224
0.0511989
0.0513622
0.0515244
0.0516982
0.0518956
0.0521269
0.0472934
0.0472215
0.0471889
0.0471987
0.0472526
0.047351
0.0474929
0.0476755
0.0478936
0.0481427
0.048417
0.0487083
0.0490027
0.0492919
0.0495785
0.0498688
0.0501721
0.050499
0.0508603
0.0512651
0.0517205
0.0522304
0.0470554
0.0469328
0.0468484
0.0468088
0.0468162
0.0468705
0.0469704
0.0471152
0.0473029
0.0475311
0.0477985
0.0481052
0.0484373
0.0488048
0.0492121
0.0496633
0.0501673
0.0507312
0.051359
0.0520512
0.0528041
0.0536104
0.0469084
0.0467488
0.0466446
0.0465822
0.0465647
0.0465943
0.0466723
0.0468003
0.0469818
0.04721
0.0475142
0.0479007
0.048355
0.048886
0.0494994
0.0501979
0.050981
0.0518441
0.0527785
0.0537723
0.054807
0.0558722
0.0467564
0.0465882
0.046471
0.0463963
0.0463688
0.0463944
0.046474
0.0466278
0.0468584
0.0471824
0.0476194
0.0481845
0.0488766
0.049683
0.050597
0.0516069
0.0526975
0.0538502
0.0550453
0.0562625
0.0574791
0.0586904
0.0465286
0.046369
0.0462509
0.0461886
0.0461818
0.0462553
0.0464162
0.0466809
0.0470669
0.0475939
0.048281
0.0491385
0.0501453
0.0512646
0.0524748
0.053753
0.0550762
0.0564211
0.0577679
0.0591021
0.0604104
0.0616697
0.0462238
0.0460967
0.0460329
0.0460473
0.0461534
0.0463687
0.0467099
0.0471944
0.0478374
0.0486503
0.0496396
0.0507955
0.0520699
0.0534164
0.0548168
0.0562494
0.0576917
0.0591149
0.0604908
0.0617875
0.0629774
0.0640525
0.0459822
0.045959
0.0460299
0.0462099
0.0465146
0.0469584
0.0475525
0.0483046
0.0492116
0.0502668
0.0514675
0.052809
0.0542604
0.0557577
0.0572849
0.0587824
0.0602083
0.0615267
0.0627112
0.0637714
0.0647077
0.0655248
0.0460054
0.0461613
0.0464358
0.0468385
0.0473774
0.0480498
0.0488491
0.0497719
0.0508364
0.0520681
0.0534616
0.0549775
0.0565481
0.0581212
0.0596039
0.0609579
0.0621557
0.0632228
0.0641593
0.0649667
0.06565
0.0662166
0.0464324
0.046792
0.0472634
0.0478406
0.0485204
0.049324
0.0502819
0.0514142
0.052698
0.0540936
0.0555761
0.0571555
0.0587169
0.0601342
0.0613721
0.0624621
0.0634168
0.0642331
0.0649162
0.0654736
0.0659149
0.0662502
0.0471834
0.0476559
0.0482355
0.0489519
0.0498307
0.0508693
0.0520399
0.0533099
0.0546614
0.056077
0.0575957
0.0590775
0.0603967
0.0615268
0.0625235
0.0633719
0.0640779
0.0646488
0.0650944
0.0654261
0.0656557
0.0657946
0.0480082
0.0486677
0.0494794
0.0504256
0.0514847
0.0526359
0.0538625
0.0551479
0.0564888
0.0579082
0.0592508
0.0604444
0.0614982
0.0624048
0.0631607
0.063771
0.064246
0.0645973
0.0648376
0.0649799
0.065037
0.0650205
0.0492195
0.0500765
0.0510287
0.052067
0.0531774
0.0543445
0.0555556
0.0568222
0.05812
0.0593129
0.060369
0.0613359
0.0621678
0.0628457
0.0633776
0.0637747
0.0640503
0.0642181
0.064292
0.0642855
0.0642114
0.0640805
0.0506661
0.0515949
0.052594
0.05365
0.0547487
0.0558795
0.0570641
0.058236
0.0592929
0.0602311
0.061099
0.0618575
0.0624756
0.0629474
0.0632855
0.0635041
0.0636179
0.0636415
0.0635888
0.0634731
0.0633063
0.0630985
0.0521054
0.0530556
0.0540511
0.0550782
0.0561273
0.0572254
0.0582738
0.059214
0.0600623
0.0608394
0.0615208
0.0620866
0.0625172
0.0628149
0.0629946
0.0630718
0.0630617
0.0629785
0.0628359
0.0626459
0.0624195
0.0621657
0.0534492
0.0543838
0.0553409
0.0563131
0.0573251
0.058266
0.0591121
0.0598806
0.0605829
0.0611973
0.0617109
0.0621112
0.0623866
0.0625448
0.0626017
0.0625728
0.0624728
0.0623154
0.0621128
0.0618761
0.0616152
0.0613373
0.0546558
0.0555462
0.0564478
0.0573754
0.0582269
0.0589957
0.0596985
0.0603405
0.0609032
0.0613752
0.0617483
0.0620141
0.0621674
0.0622189
0.0621845
0.062079
0.0619162
0.0617086
0.0614673
0.0612019
0.0609211
0.0606309
0.0557017
0.0565379
0.0573888
0.0581664
0.058875
0.0595255
0.0601211
0.0606456
0.0610891
0.0614441
0.0617048
0.0618658
0.0619258
0.0618975
0.0617957
0.0616343
0.0614259
0.0611817
0.0609118
0.0606247
0.060328
0.060027
0.00250541
0.00291659
0.00347882
0.00427204
0.00538908
0.00695453
0.00913124
0.0121184
0.0161597
0.0208009
0.0248566
0.0287053
0.0328462
0.0373454
0.0420539
0.0465236
0.0504032
0.0536023
0.0558709
0.0568305
0.0563086
0.0554261
0.0521997
0.0464662
0.040709
0.0352991
0.0300648
0.0251537
0.0206511
0.0165046
0.0126066
0.00884985
0.00508175
0.00158309
0.000569641
0.028805
0.0306259
0.0324275
0.0343877
0.036564
0.0389298
0.0414257
0.0439058
0.0462738
0.0487167
0.0516234
0.055082
0.0592586
0.0642475
0.0701383
0.0763229
0.0815947
0.084369
0.0843968
0.0822656
0.079842
0.0770982
0.0766565
0.0796302
0.0832933
0.0843813
0.0855115
0.084231
0.0789084
0.0695295
0.0560572
0.040196
0.0239075
0.00946833
0.00107339
0.0397664
0.0397352
0.0397808
0.0398998
0.0400749
0.0402867
0.0405328
0.0408874
0.0414793
0.0424265
0.043906
0.0463661
0.0484702
0.0521588
0.057066
0.0597702
0.0599504
0.0580748
0.055401
0.0524705
0.0503713
0.0531072
0.0598956
0.066688
0.0717534
0.0734437
0.0716765
0.0671168
0.0605051
0.0522129
0.0423361
0.0313487
0.0197924
0.00857105
0.00094218
0.0554999
0.0544144
0.0532026
0.051934
0.0506548
0.049463
0.0481036
0.0464083
0.0440695
0.0421758
0.0409957
0.0394304
0.038581
0.038132
0.0376187
0.036555
0.0352912
0.0342948
0.03405
0.0347378
0.0365206
0.0393436
0.0423023
0.0446269
0.0460748
0.046331
0.0449577
0.0427365
0.0387238
0.0333689
0.0270342
0.0199917
0.0125432
0.00537739
0.000761135
0.070248
0.0692442
0.0677571
0.0657042
0.0630707
0.0599864
0.0567102
0.0535762
0.0508461
0.0482136
0.0449441
0.0397305
0.0335926
0.029284
0.0263477
0.0239556
0.0222449
0.0208484
0.019386
0.0184515
0.0186169
0.0203447
0.0234818
0.0263297
0.0282532
0.0284433
0.0279138
0.0258702
0.0229671
0.0195525
0.0158184
0.0119038
0.00785849
0.00372637
0.000479714
0.0580752
0.0577506
0.0574307
0.0570916
0.0566658
0.0559693
0.0548427
0.0531444
0.0507208
0.0474452
0.0433718
0.0389523
0.0348182
0.0318922
0.0296828
0.0276214
0.0253287
0.0227774
0.0205551
0.0183718
0.0159527
0.0134654
0.0110238
0.00919063
0.0078459
0.00700155
0.00649324
0.00588465
0.00537902
0.00456326
0.00362895
0.00267095
0.00170655
0.000757756
0.000213934
0.065335
0.0650527
0.0647018
0.0642744
0.0638037
0.0632322
0.0624169
0.0612653
0.0597723
0.0579541
0.0559163
0.0538313
0.051962
0.050654
0.0498647
0.0494048
0.0489802
0.0482761
0.0470709
0.0452023
0.0425378
0.0389213
0.0345917
0.0303059
0.0263973
0.022826
0.0194894
0.016403
0.013562
0.01087
0.00826597
0.00573382
0.00332462
0.00126172
0.000218643
0.0635342
0.0633795
0.0631728
0.0628806
0.0623976
0.0617679
0.0610918
0.0603739
0.0596278
0.0588789
0.0581915
0.0575733
0.0571182
0.0568478
0.0567094
0.0564302
0.0560031
0.0554026
0.0544477
0.0530305
0.0511019
0.048465
0.0450441
0.0411951
0.0369659
0.0324123
0.0277276
0.0230906
0.018602
0.014389
0.0105416
0.00711799
0.00415248
0.00169614
0.000180451
0.0622704
0.062091
0.0618823
0.0616361
0.061345
0.0610088
0.0606327
0.0602257
0.0597894
0.0593225
0.0587986
0.0582582
0.0576999
0.0571967
0.0569372
0.0569415
0.0570497
0.0570451
0.0567249
0.0559095
0.0545293
0.0524686
0.049562
0.0460158
0.0419063
0.0373543
0.0324896
0.0274872
0.0224785
0.0175977
0.0129615
0.00867947
0.00488382
0.00183415
0.00024099
0.0582058
0.0581114
0.0579924
0.057848
0.0576789
0.0574855
0.0572713
0.0570378
0.056794
0.0565744
0.0564436
0.0565083
0.0568932
0.0576802
0.0587535
0.0597712
0.0604372
0.0606697
0.0604286
0.0596645
0.0582506
0.0559798
0.0527559
0.0489256
0.044598
0.039834
0.0347414
0.0294743
0.0241872
0.0190196
0.0141068
0.00957313
0.00554755
0.00222598
0.000212621
0.0555369
0.0555453
0.0555536
0.0555651
0.0555777
0.0555912
0.0556107
0.0556494
0.0557357
0.0559112
0.0562297
0.0567495
0.0575041
0.0584856
0.0596431
0.0607343
0.0615237
0.0619271
0.0618486
0.0612145
0.0599042
0.0576963
0.0544662
0.0505675
0.0460467
0.0410754
0.0358073
0.0303671
0.0249082
0.0195626
0.0144545
0.00971893
0.00551142
0.0021015
0.000236408