/*--------------------------------*- C++ -*----------------------------------*\
  =========                 |
  \\      /  F ield         | OpenFOAM: The Open Source CFD Toolbox
   \\    /   O peration     | Website:  https://openfoam.org
    \\  /    A nd           | Version:  8
     \\/     M anipulation  |
\*---------------------------------------------------------------------------*/
FoamFile
{
    version     2.0;
    format      ascii;
    class       volScalarField;
    location    "0.5";
    object      p;
}
// * * * * * * * * * * * * * * * * * * * * * * * * * * * * * * * * * * * * * //

dimensions      [1 -1 -2 0 0 0 0];

internalField   nonuniform List<scalar> 
15677
(
111993
111997
111996
111997
111996
111994
111991
111986
111979
111964
111932
111883
111810
111715
111624
111540
111480
111439
111406
111383
111373
111372
111372
111369
111362
111352
111341
111332
111323
111315
111308
111302
111296
111291
111285
93555.2
93507.7
93430.3
93342
93260.3
93193.1
93144.7
93112.6
93091.3
93105
93188.3
93346.7
93550.3
93723.3
93789.4
93770.8
93682.7
93568
93460.7
93368.9
93305.3
93268.9
93222.9
93182
93149.2
93124.6
93106.3
93092.8
93083.5
93077.5
93073.9
93072
93071.3
93071.4
93070.3
105900
105899
105892
105873
105835
105772
105680
105567
105445
105348
105300
105285
105325
105392
105431
105449
105483
105547
105632
105734
105881
106041
106197
106337
106461
106568
106659
106736
106798
106850
106892
106924
106951
106976
106999
97618.7
97627.6
97638.8
97648.6
97656
97660.7
97661
97653.4
97634.3
97613.6
97599.7
97611.9
97629.5
97642.4
97654.9
97673.1
97691.3
97703.6
97709.4
97712.1
97712.7
97702.4
97675.9
97641.1
97601.1
97557.8
97512.8
97467.6
97424.5
97383.6
97345
97309.3
97276.6
97247.4
97221.2
103465
103477
103486
103490
103492
103497
103502
103509
103517
103517
103516
103512
103501
103479
103465
103458
103457
103460
103470
103491
103527
103571
103609
103641
103670
103696
103717
103737
103754
103769
103781
103792
103800
103808
103815
99927.1
99926.5
99921.8
99911.5
99894.3
99872.3
99844.1
99808.7
99767.8
99725.6
99680.2
99631.2
99579.4
99528.6
99482.3
99444.1
99411.7
99385.1
99363
99342.8
99322.3
99301.1
99280.4
99260
99239.7
99219.5
99197.8
99174.3
99151.6
99131.4
99114.3
99100.8
99090.2
99080.6
99072.8
102379
102374
102369
102364
102360
102359
102361
102366
102373
102385
102398
102414
102432
102450
102467
102481
102496
102509
102521
102530
102539
102547
102554
102561
102568
102575
102581
102587
102592
102597
102601
102605
102610
102617
102621
100298
100295
100293
100294
100298
100303
100311
100322
100334
100346
100355
100359
100358
100352
100339
100323
100305
100286
100267
100248
100230
100212
100198
100189
100182
100180
100180
100181
100181
100182
100183
100183
100183
100182
100182
101805
101806
101806
101805
101802
101800
101797
101793
101788
101784
101780
101776
101773
101771
101774
101779
101787
101799
101812
101828
101844
101863
101882
101901
101920
101929
101938
101946
101953
101959
101962
101963
101964
101964
101962
100875
100876
100876
100874
100871
100867
100864
100860
100857
100855
100853
100850
100846
100841
100835
100829
100822
100814
100805
100795
100785
100776
100768
100762
100764
100770
100775
100779
100783
100787
100790
100794
100798
100801
100804
101452
101452
101452
101452
101452
101452
101451
101449
101447
101445
101442
101440
101439
101438
101438
101440
101444
101449
101456
101464
101474
101485
101496
101507
101509
101513
101517
101520
101523
101525
101527
101528
101528
101529
101529
101077
101077
101077
101077
101077
101077
101077
101077
101077
101077
101077
101077
101076
101074
101072
101068
101065
101061
101057
101053
101049
101045
101041
101037
101042
101045
101047
101049
101052
101054
101057
101059
101062
101064
101067
101307
101307
101307
101307
101307
101307
101307
101306
101306
101305
101303
101301
101299
101296
101295
101295
101295
101296
101297
101299
101302
101305
101308
101313
101312
101313
101314
101314
101315
101315
101315
101316
101316
101316
101315
101177
101177
101177
101177
101177
101176
101176
101176
101175
101175
101175
101174
101173
101172
101170
101167
101164
101161
101158
101154
101151
101148
101146
101143
101144
101144
101145
101145
101146
101146
101147
101148
101149
101150
101151
101267
101267
101267
101266
101266
101266
101265
101264
101263
101261
101259
101257
101255
101252
101249
101247
101244
101242
101240
101239
101237
101236
101235
101235
101234
101233
101232
101232
101231
101231
101230
101230
101230
101229
101228
101232
101232
101231
101231
101230
101230
101229
101228
101226
101225
101224
101223
101221
101219
101216
101212
101209
101205
101202
101198
101194
101190
101187
101185
101183
101181
101180
101180
101179
101179
101178
101178
101179
101178
101177
101271
101270
101270
101270
101269
101268
101267
101265
101264
101262
101260
101257
101254
101251
101248
101244
101241
101238
101234
101231
101228
101225
101222
101220
101218
101216
101215
101213
101213
101212
101211
101211
101210
101210
101208
101269
101269
101268
101267
101266
101265
101264
101263
101261
101260
101258
101256
101254
101251
101247
101244
101240
101237
101233
101229
101225
101221
101218
101215
101213
101211
101209
101208
101207
101206
101206
101205
101205
101205
101203
101293
101292
101292
101291
101289
101288
101287
101285
101283
101281
101279
101276
101273
101270
101266
101263
101259
101256
101252
101249
101245
101242
101239
101237
101235
101233
101232
101231
101230
101229
101229
101228
101228
101227
101225
101302
101302
101301
101300
101299
101297
101296
101294
101292
101290
101288
101286
101283
101280
101276
101273
101270
101266
101263
101260
101256
101253
101251
101248
101247
101245
101244
101243
101243
101242
101242
101241
101241
101241
101240
101320
101319
101318
101317
101316
101314
101312
101310
101308
101306
101303
101301
101298
101295
101291
101288
101285
101282
101279
101276
101274
101271
101269
101267
101266
101265
101264
101264
101263
101263
101263
101263
101263
101263
101261
101332
101331
101330
101329
101328
101326
101324
101322
101320
101318
101315
101313
101310
101307
101304
101301
101298
101295
101293
101290
101288
101286
101284
101283
101282
101281
101281
101280
101280
101280
101280
101280
101281
101281
101280
101346
101345
101344
101343
101341
101340
101338
101336
101333
101331
101328
101326
101323
101320
101317
101314
101312
101309
101307
101305
101303
101301
101300
101299
101298
101298
101298
101298
101298
101298
101298
101299
101299
101299
101299
101358
101357
101356
101355
101353
101351
101349
101347
101345
101342
101340
101337
101334
101331
101328
101326
101324
101321
101319
101317
101316
101315
101314
101313
101313
101313
101313
101313
101313
101314
101314
101315
101315
101316
101316
101369
101369
101367
101366
101364
101362
101360
101358
101356
101353
101350
101348
101345
101342
101339
101337
101335
101333
101331
101329
101328
101327
101326
101326
101326
101326
101326
101327
101327
101328
101328
101329
101329
101330
101331
101380
101379
101378
101376
101374
101372
101370
101368
101365
101363
101360
101357
101355
101352
101349
101347
101345
101343
101341
101340
101338
101338
101337
101337
101337
101337
101338
101338
101339
101340
101340
101341
101342
101342
101343
101389
101388
101387
101385
101383
101381
101379
101377
101374
101372
101369
101366
101364
101361
101358
101356
101354
101352
101350
101349
101348
101347
101347
101347
101347
101347
101348
101348
101349
101350
101351
101351
101352
101353
101354
101397
101396
101395
101393
101392
101389
101387
101385
101382
101380
101377
101374
101372
101369
101366
101364
101362
101360
101358
101357
101356
101355
101355
101355
101355
101356
101356
101357
101358
101358
101359
101360
101361
101362
101363
101405
101404
101402
101401
101399
101397
101394
101392
101389
101387
101384
101381
101379
101376
101373
101371
101369
101367
101365
101364
101363
101362
101362
101362
101362
101363
101363
101364
101365
101366
101366
101367
101368
101369
101370
101411
101410
101409
101407
101405
101403
101401
101398
101396
101393
101391
101388
101385
101382
101379
101377
101375
101373
101372
101370
101369
101368
101368
101368
101368
101369
101369
101370
101371
101372
101372
101373
101374
101375
101376
111290
111329
111362
111396
111433
111471
111510
111552
111595
111641
111689
111738
111787
111837
111886
111930
111982
112028
112073
112122
112163
112221
93067.8
93046
93017.8
92989.2
92958.9
92926.5
92892.3
92856.8
92820.7
92784.7
92749.2
92713.4
92675.4
92634.3
92587.8
92534.6
92477.3
92418.6
92357.8
92296.2
92234.3
92172
107012
107036
107062
107089
107115
107143
107172
107204
107238
107273
107312
107354
107397
107438
107476
107506
107528
107544
107552
107558
107572
107584
97200.9
97164.8
97120.2
97073.3
97024.2
96973.4
96921.6
96866.8
96810.1
96747.2
96683.4
96623
96567.4
96527.4
96518.8
96541.5
96581
96633
96692.2
96750.5
96803
96847.9
103817
103813
103810
103808
103804
103797
103787
103776
103764
103761
103770
103800
103848
103912
103988
104073
104162
104247
104322
104379
104412
104416
99075.5
99069.7
99062.2
99054.8
99046.8
99038.4
99031.3
99024.8
99023.2
99025.6
99033.1
99040.8
99051.8
99068
99089.9
99118.4
99154.9
99199.2
99249
99301.7
99358.9
99426.1
102622
102615
102612
102610
102607
102600
102590
102577
102556
102525
102486
102446
102407
102370
102334
102298
102263
102230
102199
102169
102140
102112
100190
100201
100211
100223
100237
100253
100272
100293
100318
100345
100373
100402
100431
100460
100489
100518
100546
100573
100599
100623
100647
100672
101948
101934
101919
101902
101883
101864
101843
101820
101796
101770
101743
101715
101688
101661
101634
101608
101583
101559
101537
101517
101497
101477
100816
100832
100848
100864
100880
100897
100915
100933
100952
100970
100989
101008
101025
101040
101053
101064
101074
101082
101088
101094
101098
101100
101519
101511
101503
101494
101484
101474
101463
101452
101441
101430
101416
101402
101389
101377
101366
101355
101345
101335
101326
101316
101307
101296
101077
101088
101100
101111
101123
101134
101146
101158
101170
101180
101190
101199
101207
101213
101218
101221
101224
101225
101226
101226
101225
101222
101312
101307
101304
101301
101298
101295
101292
101289
101286
101284
101282
101280
101278
101277
101276
101275
101273
101271
101268
101265
101262
101257
101157
101162
101167
101173
101179
101186
101192
101198
101204
101211
101216
101222
101227
101231
101234
101237
101240
101242
101243
101244
101244
101243
101229
101225
101224
101223
101222
101222
101222
101222
101223
101224
101226
101228
101230
101233
101235
101237
101239
101241
101243
101244
101245
101246
101182
101182
101184
101186
101188
101191
101193
101196
101199
101203
101206
101210
101213
101217
101220
101224
101227
101230
101233
101236
101238
101241
101210
101206
101205
101204
101203
101202
101202
101203
101204
101205
101207
101209
101211
101214
101217
101220
101223
101226
101229
101232
101235
101239
101207
101204
101203
101202
101202
101202
101202
101202
101203
101204
101206
101208
101210
101212
101215
101218
101221
101224
101227
101230
101233
101239
101228
101223
101221
101219
101217
101215
101214
101213
101213
101212
101213
101214
101215
101216
101218
101221
101223
101226
101229
101231
101235
101240
101242
101238
101235
101233
101231
101229
101227
101226
101224
101224
101223
101223
101224
101224
101226
101227
101229
101231
101234
101236
101239
101245
101263
101258
101255
101253
101250
101247
101245
101243
101241
101239
101238
101237
101236
101236
101237
101237
101239
101240
101242
101244
101246
101252
101281
101277
101274
101271
101269
101266
101263
101261
101258
101256
101254
101252
101251
101251
101250
101250
101251
101252
101253
101254
101255
101261
101299
101296
101293
101290
101288
101285
101282
101279
101277
101274
101272
101269
101268
101266
101265
101265
101265
101265
101265
101266
101267
101271
101315
101313
101310
101308
101305
101302
101299
101297
101294
101292
101289
101287
101285
101283
101281
101280
101279
101279
101279
101279
101279
101283
101330
101328
101326
101323
101321
101318
101316
101314
101311
101308
101306
101303
101300
101299
101297
101295
101294
101293
101293
101292
101292
101295
101342
101341
101339
101337
101335
101333
101330
101328
101325
101323
101321
101318
101316
101314
101312
101310
101308
101307
101306
101305
101305
101306
101353
101352
101350
101348
101347
101345
101343
101341
101339
101337
101334
101332
101330
101328
101326
101324
101322
101320
101319
101318
101317
101317
101361
101361
101360
101358
101357
101356
101354
101352
101350
101348
101346
101344
101342
101340
101338
101336
101334
101333
101331
101330
101328
101328
101369
101369
101368
101367
101366
101365
101363
101362
101361
101359
101357
101355
101353
101351
101349
101347
101346
101344
101342
101341
101339
101337
101375
101375
101375
101374
101373
101372
101372
101370
101369
101368
101367
101365
101363
101361
101359
101358
101356
101354
101352
101351
101349
101346
112245
112238
112245
112249
112247
112263
92118.4
92092.4
92089.3
92105.8
92150.6
92213.4
107593
107627
107667
107719
107786
107855
96876.8
96885.2
96897.9
96921.4
96955.1
96997.2
104391
104356
104302
104238
104172
104110
99483.5
99532.5
99576.5
99619.3
99659.6
99699.1
102093
102089
102085
102081
102077
102074
100691
100703
100714
100723
100730
100734
101464
101453
101443
101433
101425
101417
101103
101098
101094
101089
101084
101078
101293
101284
101277
101270
101263
101254
101223
101216
101212
101207
101201
101192
101257
101251
101247
101243
101239
101233
101245
101242
101241
101239
101237
101235
101246
101246
101247
101247
101247
101248
101241
101244
101246
101247
101249
101252
101238
101243
101246
101249
101252
101258
101237
101243
101247
101251
101255
101263
101238
101246
101250
101255
101259
101268
101241
101250
101255
101260
101264
101275
101248
101257
101262
101267
101272
101281
101257
101266
101271
101275
101280
101289
101267
101276
101280
101285
101290
101298
101279
101287
101291
101295
101300
101307
101291
101298
101302
101306
101310
101316
101304
101310
101313
101317
101320
101325
101316
101321
101324
101327
101330
101333
101328
101331
101334
101337
101339
101341
101339
101341
101343
101346
101348
101349
101349
101350
101352
101354
101356
101356
112239
112178
112140
112086
112040
111988
111939
111888
111839
111789
111740
111690
111643
111598
111556
111516
111479
111444
111411
111380
111349
111312
92286.6
92366.2
92430.5
92470.9
92491.3
92493.8
92482.4
92462.1
92436.3
92407.8
92387.7
92386.3
92406.4
92446.7
92502.3
92569.5
92649.9
92740.8
92835.8
92926.3
93011.4
93081.5
107905
107927
107903
107853
107793
107735
107671
107592
107505
107413
107316
107222
107139
107070
107018
106982
106960
106943
106922
106900
106879
106860
97035.7
97089.6
97165.8
97238.5
97299.3
97348
97381.5
97389.1
97374.3
97349.4
97329.5
97313.9
97296.9
97283.7
97270.6
97258.2
97222.9
97173.2
97120.7
97075.3
97039.1
97006.5
104072
104046
104016
103989
103970
103959
103957
103965
103984
104001
104027
104057
104089
104123
104155
104180
104190
104178
104149
104112
104069
104036
99715.3
99719.2
99724
99728.2
99729.6
99727.6
99720.9
99708.2
99689.4
99665.1
99634.7
99600.1
99565.2
99531.5
99494
99452.7
99411.8
99376.2
99349.2
99329.6
99312.8
99294.3
102078
102090
102100
102110
102123
102136
102152
102170
102191
102214
102243
102275
102310
102344
102379
102413
102446
102478
102508
102537
102564
102591
100731
100721
100712
100703
100690
100675
100656
100635
100611
100584
100555
100523
100489
100454
100420
100386
100353
100321
100290
100261
100235
100210
101417
101419
101422
101425
101430
101436
101442
101450
101461
101475
101491
101510
101530
101552
101573
101596
101618
101640
101662
101683
101704
101725
101075
101065
101055
101045
101034
101022
101009
100996
100981
100965
100947
100928
100908
100889
100870
100853
100838
100823
100809
100796
100783
100771
101253
101249
101247
101245
101244
101244
101246
101248
101252
101257
101265
101274
101285
101297
101310
101323
101337
101351
101366
101381
101396
101411
101191
101183
101177
101171
101165
101159
101153
101147
101141
101135
101129
101123
101119
101115
101112
101109
101105
101101
101096
101092
101088
101084
101233
101230
101229
101228
101228
101229
101231
101234
101238
101244
101251
101258
101266
101273
101281
101289
101298
101307
101316
101325
101334
101343
101235
101234
101234
101234
101235
101236
101237
101238
101239
101240
101241
101242
101244
101246
101248
101249
101251
101251
101252
101252
101252
101250
101247
101248
101250
101252
101255
101258
101262
101266
101270
101275
101281
101288
101294
101301
101308
101314
101320
101326
101332
101338
101343
101346
101252
101256
101259
101262
101266
101270
101274
101279
101284
101289
101294
101300
101305
101309
101314
101317
101320
101323
101325
101327
101328
101326
101257
101263
101267
101271
101276
101281
101287
101292
101298
101304
101310
101317
101322
101328
101333
101337
101341
101345
101348
101351
101353
101353
101261
101269
101274
101279
101284
101290
101296
101302
101308
101314
101320
101326
101331
101336
101340
101343
101346
101348
101350
101351
101352
101350
101266
101275
101280
101286
101292
101298
101304
101310
101316
101322
101328
101333
101338
101342
101346
101349
101351
101353
101355
101356
101357
101357
101272
101282
101288
101294
101300
101306
101312
101318
101323
101329
101334
101339
101343
101347
101350
101352
101354
101355
101356
101357
101357
101357
101279
101289
101295
101301
101307
101313
101319
101325
101330
101335
101340
101344
101348
101350
101353
101355
101356
101357
101358
101359
101359
101359
101287
101297
101303
101309
101315
101321
101326
101331
101336
101341
101345
101348
101351
101354
101356
101357
101358
101359
101359
101360
101360
101360
101296
101306
101312
101317
101323
101328
101333
101338
101342
101346
101350
101353
101355
101357
101358
101360
101360
101361
101361
101361
101361
101362
101306
101315
101320
101326
101331
101336
101340
101344
101348
101352
101354
101357
101359
101360
101361
101362
101363
101363
101363
101363
101363
101364
101316
101324
101329
101334
101339
101343
101347
101351
101354
101357
101359
101361
101363
101364
101365
101365
101365
101365
101365
101365
101365
101367
101326
101333
101338
101342
101346
101350
101354
101357
101360
101362
101364
101366
101367
101368
101368
101368
101368
101368
101368
101368
101368
101370
101335
101341
101346
101350
101353
101357
101360
101363
101365
101367
101369
101370
101371
101371
101372
101372
101372
101371
101371
101371
101370
101373
101345
101349
101353
101357
101360
101363
101366
101368
101370
101372
101373
101374
101375
101375
101375
101375
101375
101375
101374
101374
101374
101376
101353
101357
101360
101364
101367
101369
101372
101374
101376
101377
101378
101379
101379
101379
101379
101379
101379
101378
101378
101377
101377
101379
101361
101364
101367
101370
101373
101376
101378
101379
101381
101382
101383
101383
101384
101383
101383
101383
101382
101382
101381
101381
101380
101382
111309
111317
111322
111328
111334
111342
111349
111358
111365
111371
111374
111376
111378
111380
111385
111407
111444
111490
111552
111635
111724
111823
111914
111973
112006
112025
112037
112044
112050
112053
112055
112056
112056
112056
112054
93118.1
93147.3
93175.3
93202.9
93230.6
93259
93287.6
93315.7
93344.1
93372.9
93402.6
93433.9
93463.6
93487.7
93503.2
93557.7
93648.6
93759.9
93854.4
93891.3
93853.5
93721.1
93507.2
93297.4
93151.8
93098.9
93084.2
93095.4
93122.5
93167.9
93230.9
93306.4
93387.6
93458
93500.9
106844
106821
106796
106768
106733
106687
106629
106559
106476
106381
106271
106151
106028
105905
105816
105727
105655
105612
105583
105548
105505
105420
105321
105284
105314
105367
105477
105597
105704
105786
105841
105874
105891
105897
105898
96981.2
96972.2
96963.6
96955.8
96957.7
96976.6
97015.5
97071.6
97139.8
97214.8
97291.4
97363.5
97426.7
97480.8
97528.7
97577.8
97622.4
97659.2
97687.5
97712.9
97727.1
97735.3
97740.4
97728.1
97722.7
97749.4
97775.5
97792.3
97799.2
97798.9
97794.6
97787.8
97778.2
97767.6
97759.3
104001
103969
103938
103913
103886
103861
103839
103819
103800
103780
103760
103741
103719
103696
103671
103648
103628
103604
103584
103567
103554
103544
103541
103549
103551
103548
103546
103537
103526
103516
103506
103497
103489
103482
103476
99280.5
99273.8
99266.6
99259.6
99254.4
99247.3
99236.7
99224.4
99211.2
99198.1
99186.2
99174.1
99163.9
99160.7
99168.1
99184.6
99207.4
99234.9
99266.2
99301.5
99340.4
99385.2
99433.5
99479.5
99523.3
99561.7
99596.3
99633
99666.2
99692.6
99712.1
99725.3
99733.1
99737.3
99738
102613
102622
102630
102639
102647
102653
102655
102653
102646
102638
102630
102624
102613
102593
102574
102559
102545
102534
102523
102514
102505
102496
102487
102479
102472
102467
102463
102460
102458
102458
102457
102456
102456
102455
102455
100183
100177
100171
100164
100158
100151
100145
100140
100135
100128
100118
100108
100100
100097
100109
100127
100147
100168
100191
100214
100236
100257
100275
100289
100298
100305
100309
100312
100314
100315
100316
100316
100316
100316
100315
101736
101742
101748
101754
101761
101767
101775
101782
101790
101798
101804
101808
101809
101814
101804
101799
101794
101789
101784
101780
101777
101774
101774
101776
101779
101782
101784
101786
101786
101787
101786
101786
101785
101785
101785
100755
100751
100749
100746
100742
100739
100736
100732
100730
100727
100725
100723
100720
100716
100719
100727
100738
100749
100761
100772
100782
100791
100799
100804
100808
100810
100811
100812
100812
100812
100812
100813
100813
100813
100814
101419
101423
101426
101431
101435
101440
101445
101450
101456
101462
101468
101475
101482
101487
101492
101487
101481
101477
101473
101469
101467
101466
101466
101467
101469
101471
101473
101474
101476
101477
101477
101477
101477
101477
101478
101077
101076
101074
101072
101070
101068
101066
101064
101062
101060
101058
101055
101053
101051
101047
101048
101053
101059
101063
101067
101071
101075
101076
101078
101080
101081
101082
101083
101083
101084
101085
101085
101086
101086
101087
101350
101351
101352
101354
101355
101356
101358
101360
101362
101364
101366
101368
101370
101372
101373
101374
101373
101367
101364
101361
101359
101358
101358
101359
101360
101361
101362
101364
101365
101366
101367
101367
101368
101368
101368
101252
101250
101249
101248
101247
101247
101246
101245
101243
101242
101240
101237
101234
101230
101226
101223
101218
101220
101219
101219
101219
101219
101219
101218
101218
101219
101219
101220
101221
101221
101222
101223
101223
101224
101224
101353
101352
101352
101352
101353
101353
101353
101352
101352
101351
101350
101349
101347
101346
101344
101343
101341
101339
101336
101334
101332
101331
101331
101332
101333
101333
101334
101335
101336
101337
101337
101338
101339
101339
101339
101330
101328
101328
101328
101327
101327
101326
101325
101324
101322
101320
101318
101315
101311
101307
101303
101299
101296
101295
101293
101291
101290
101289
101288
101287
101287
101287
101288
101289
101289
101290
101290
101291
101291
101291
101359
101357
101357
101357
101357
101357
101356
101356
101355
101354
101352
101350
101348
101346
101344
101342
101340
101338
101336
101334
101333
101332
101332
101332
101333
101334
101334
101335
101336
101336
101337
101337
101338
101338
101338
101354
101352
101352
101352
101352
101352
101351
101350
101349
101348
101347
101345
101343
101340
101337
101335
101332
101329
101328
101326
101325
101324
101323
101322
101322
101322
101322
101322
101323
101323
101324
101325
101325
101325
101325
101360
101359
101359
101359
101358
101358
101358
101357
101356
101356
101354
101353
101351
101350
101348
101346
101344
101343
101342
101341
101340
101340
101340
101340
101340
101341
101342
101342
101343
101343
101344
101344
101345
101345
101345
101359
101358
101358
101357
101357
101357
101357
101356
101355
101354
101353
101352
101351
101349
101348
101346
101345
101343
101342
101341
101341
101340
101340
101340
101340
101340
101340
101341
101341
101342
101342
101343
101343
101344
101344
101359
101359
101359
101359
101358
101358
101358
101357
101356
101356
101355
101354
101353
101352
101351
101350
101349
101348
101348
101347
101347
101347
101348
101348
101349
101349
101350
101351
101351
101352
101352
101353
101353
101354
101354
101359
101359
101359
101359
101358
101358
101358
101357
101356
101356
101355
101354
101353
101352
101351
101351
101350
101350
101350
101350
101350
101350
101350
101351
101351
101352
101352
101353
101353
101354
101355
101355
101356
101356
101356
101360
101360
101360
101360
101359
101359
101358
101358
101357
101356
101356
101355
101354
101354
101353
101353
101353
101353
101353
101353
101354
101354
101355
101356
101356
101357
101358
101359
101359
101360
101361
101361
101362
101362
101362
101361
101362
101362
101361
101360
101360
101359
101358
101358
101357
101356
101356
101355
101355
101354
101354
101354
101355
101355
101356
101356
101357
101358
101359
101359
101360
101361
101362
101363
101363
101364
101365
101365
101366
101366
101362
101364
101363
101363
101362
101361
101361
101360
101359
101358
101358
101357
101357
101356
101356
101356
101357
101357
101358
101359
101359
101360
101361
101362
101363
101364
101365
101366
101367
101368
101369
101369
101370
101370
101371
101365
101366
101366
101365
101364
101363
101363
101362
101361
101360
101360
101359
101358
101358
101358
101358
101359
101360
101360
101361
101362
101363
101364
101365
101366
101368
101369
101369
101370
101371
101372
101373
101373
101374
101374
101367
101369
101368
101368
101367
101366
101365
101364
101363
101362
101362
101361
101361
101360
101360
101361
101361
101362
101363
101364
101365
101366
101367
101369
101370
101371
101372
101373
101374
101375
101376
101377
101377
101378
101378
101370
101372
101371
101370
101369
101368
101367
101367
101366
101365
101364
101363
101363
101363
101363
101363
101364
101365
101365
101367
101368
101369
101370
101371
101373
101374
101375
101376
101377
101378
101379
101380
101381
101381
101382
101373
101375
101374
101373
101372
101371
101370
101369
101368
101367
101366
101366
101365
101365
101365
101366
101366
101367
101368
101369
101370
101372
101373
101374
101376
101377
101378
101379
101380
101381
101382
101383
101384
101385
101385
101377
101378
101377
101376
101375
101374
101373
101372
101371
101370
101369
101368
101368
101368
101368
101368
101369
101370
101371
101372
101373
101374
101376
101377
101378
101380
101381
101382
101383
101384
101385
101386
101387
101388
101388
101418
101417
101416
101414
101412
101410
101407
101405
101402
101399
101397
101394
101391
101388
101386
101383
101381
101379
101378
101376
101375
101374
101374
101374
101374
101374
101375
101375
101376
101377
101378
101379
101380
101381
101382
101424
101423
101422
101420
101418
101415
101413
101411
101408
101405
101403
101400
101397
101394
101392
101389
101387
101385
101383
101382
101380
101379
101379
101379
101379
101379
101380
101380
101381
101382
101383
101384
101384
101385
101386
101429
101428
101427
101425
101423
101421
101418
101416
101413
101410
101408
101405
101402
101399
101397
101394
101392
101390
101388
101386
101385
101384
101383
101383
101383
101383
101384
101384
101385
101386
101387
101387
101388
101389
101390
101433
101432
101431
101429
101427
101425
101422
101420
101417
101414
101412
101409
101406
101403
101401
101398
101396
101394
101392
101390
101389
101388
101387
101386
101386
101386
101386
101387
101388
101388
101389
101390
101391
101392
101392
101437
101436
101434
101432
101430
101428
101426
101423
101421
101418
101415
101412
101410
101407
101404
101402
101400
101398
101396
101394
101392
101391
101389
101389
101388
101388
101389
101389
101390
101390
101391
101392
101393
101394
101394
101440
101439
101437
101435
101433
101431
101428
101426
101423
101421
101418
101415
101413
101410
101407
101405
101403
101400
101398
101396
101395
101393
101392
101391
101390
101390
101390
101391
101391
101392
101392
101393
101394
101395
101395
101442
101441
101439
101437
101435
101433
101431
101428
101426
101423
101420
101418
101415
101412
101410
101407
101405
101403
101401
101399
101397
101395
101393
101392
101392
101391
101391
101391
101392
101392
101393
101394
101395
101395
101395
101444
101443
101441
101439
101437
101435
101433
101430
101428
101425
101422
101420
101417
101414
101412
101409
101407
101405
101403
101400
101398
101396
101395
101393
101393
101392
101392
101392
101392
101392
101393
101394
101395
101395
101395
101445
101444
101442
101441
101439
101436
101434
101431
101429
101426
101424
101421
101418
101416
101413
101411
101409
101406
101404
101402
101400
101397
101396
101394
101393
101392
101392
101392
101392
101392
101393
101393
101394
101395
101394
101446
101445
101443
101442
101440
101437
101435
101433
101430
101428
101425
101422
101420
101417
101415
101412
101410
101408
101405
101403
101401
101398
101396
101394
101393
101392
101391
101391
101391
101391
101392
101392
101393
101393
101393
101447
101446
101444
101442
101440
101438
101436
101433
101431
101428
101426
101423
101421
101418
101416
101413
101411
101409
101406
101404
101401
101399
101397
101395
101393
101391
101391
101390
101390
101390
101390
101391
101391
101392
101391
101447
101446
101445
101443
101441
101439
101436
101434
101432
101429
101427
101424
101421
101419
101416
101414
101412
101410
101407
101405
101402
101399
101397
101394
101392
101391
101389
101389
101388
101388
101388
101389
101389
101390
101389
101447
101446
101445
101443
101441
101439
101437
101434
101432
101430
101427
101425
101422
101419
101417
101415
101412
101410
101408
101405
101402
101399
101397
101394
101392
101390
101388
101387
101386
101386
101386
101386
101387
101387
101386
101448
101446
101445
101443
101441
101439
101437
101435
101432
101430
101427
101425
101422
101420
101417
101415
101413
101411
101408
101405
101402
101399
101396
101394
101391
101389
101387
101385
101384
101383
101383
101383
101384
101384
101383
101448
101447
101445
101443
101441
101439
101437
101435
101432
101430
101428
101425
101423
101420
101418
101415
101413
101411
101408
101406
101403
101399
101396
101393
101390
101387
101385
101383
101381
101380
101380
101379
101380
101381
101379
101447
101446
101445
101443
101441
101439
101437
101435
101433
101430
101428
101425
101423
101420
101418
101416
101413
101411