/*--------------------------------*- C++ -*----------------------------------*\
  =========                 |
  \\      /  F ield         | OpenFOAM: The Open Source CFD Toolbox
   \\    /   O peration     | Website:  https://openfoam.org
    \\  /    A nd           | Version:  8
     \\/     M anipulation  |
\*---------------------------------------------------------------------------*/
FoamFile
{
    version     2.0;
    format      ascii;
    class       surfaceScalarField;
    location    "0.5";
    object      phi;
}
// * * * * * * * * * * * * * * * * * * * * * * * * * * * * * * * * * * * * * //

dimensions      [1 0 -1 0 0 0 0];

internalField   nonuniform List<scalar> 
31053
(
-4.27565e-06
1.06197e-05
-4.76402e-06
8.17003e-06
-4.45712e-06
9.07306e-06
-3.78079e-06
1.05391e-05
-3.05612e-06
1.23224e-05
-2.12926e-06
1.40108e-05
-1.17109e-07
1.494e-05
4.8831e-06
1.41493e-05
1.65311e-05
9.95636e-06
4.2589e-05
-1.66751e-06
9.12259e-05
-2.09664e-05
0.000172089
-4.92919e-05
0.000281943
-7.36257e-05
0.000410355
-8.67281e-05
0.000524722
-7.51472e-05
0.000619615
-5.39414e-05
0.000687033
-2.60255e-05
0.000723383
5.18764e-06
0.000728879
3.60935e-05
0.000704528
6.58588e-05
0.000656423
8.94341e-05
0.000602714
9.15114e-05
0.000553303
8.34767e-05
0.00051086
7.30925e-05
0.000475442
6.29434e-05
0.000445778
5.438e-05
0.000420501
4.75128e-05
0.000398737
4.18117e-05
0.000379804
3.70462e-05
0.000363193
3.29999e-05
0.000348543
2.95059e-05
0.000335601
2.64403e-05
0.00032419
2.36927e-05
0.000314219
2.11642e-05
1.89607e-05
0.000305378
-7.54846e-05
8.6104e-05
-0.000166817
9.94996e-05
-0.000268013
0.000110265
-0.000376885
0.000119406
-0.000490911
0.000126343
-0.000606521
0.000129615
-0.000718454
0.000126869
-0.000818842
0.000114532
-0.00089621
8.73235e-05
-0.000935964
3.80956e-05
-0.000920885
-3.60222e-05
-0.000843005
-0.000127145
-0.000705626
-0.000211003
-0.000520849
-0.000271452
-0.000346072
-0.000248636
-0.000178395
-0.000221499
-2.27101e-05
-0.000181787
0.000117102
-0.000134791
0.000242733
-8.97478e-05
0.000354004
-4.56178e-05
0.00044513
-1.83147e-06
0.000515692
2.08345e-05
0.000565804
3.32487e-05
0.00059855
4.02435e-05
0.000616857
4.45413e-05
0.00062442
4.67285e-05
0.000624629
4.7218e-05
0.000619898
4.64613e-05
0.000612053
4.48179e-05
0.000602408
4.25755e-05
0.000591901
3.99482e-05
0.000581157
3.71268e-05
0.000570597
3.42001e-05
0.0005605
3.12137e-05
2.77876e-05
0.000551631
3.33594e-06
8.27403e-05
1.18011e-05
9.10061e-05
2.40365e-05
9.80001e-05
3.85022e-05
0.000104908
5.40525e-05
0.000110758
6.94971e-05
0.000114134
8.32257e-05
0.000113101
9.2684e-05
0.000105032
9.34648e-05
8.65005e-05
7.69544e-05
5.45674e-05
2.96531e-05
1.12374e-05
-7.44487e-05
-2.3081e-05
-0.000236136
-4.93629e-05
-0.000434964
-7.27021e-05
-0.000606263
-7.74018e-05
-0.000745858
-8.19551e-05
-0.000845405
-8.23846e-05
-0.000900375
-8.00677e-05
-0.00091235
-7.80616e-05
-0.000879776
-7.85374e-05
-0.000800765
-8.12481e-05
-0.000707717
-7.25529e-05
-0.000613251
-6.14209e-05
-0.000523043
-5.00591e-05
-0.000439172
-3.93459e-05
-0.000362338
-3.00759e-05
-0.000292542
-2.25203e-05
-0.000229435
-1.65778e-05
-0.000173015
-1.15224e-05
-0.000122585
-7.77471e-06
-7.73305e-05
-5.22929e-06
-3.65722e-05
-3.56085e-06
2.21109e-07
-2.52439e-06
3.34665e-05
-1.96491e-06
-1.49684e-06
6.28145e-05
4.3557e-05
3.91965e-05
8.63234e-05
4.82539e-05
0.000130703
5.36363e-05
0.000178308
5.73211e-05
0.000229724
5.93627e-05
0.000284354
5.95278e-05
0.000340461
5.7022e-05
0.000394387
5.11375e-05
0.000439299
4.16272e-05
0.000463789
3.0121e-05
0.000453772
2.13091e-05
0.000418236
1.25138e-05
0.000371263
-2.32673e-06
0.000327949
-2.92999e-05
0.000298736
-4.807e-05
0.000279668
-6.27382e-05
0.000268785
-7.13505e-05
0.000265235
-7.64083e-05
0.000270335
-8.31157e-05
0.000286868
-9.50317e-05
0.000318062
-0.000112376
0.000360559
-0.000114961
0.000406874
-0.000107639
0.000453157
-9.62491e-05
0.000497444
-8.35564e-05
0.000538724
-7.12939e-05
0.000576652
-6.04084e-05
0.000611117
-5.10225e-05
0.000642692
-4.30983e-05
0.000671357
-3.64529e-05
0.000696981
-3.08792e-05
0.000719595
-2.62074e-05
0.000739329
-2.2296e-05
0.000756357
-1.90322e-05
-1.66023e-05
0.000771421
2.57984e-05
1.33971e-05
5.70861e-05
1.69659e-05
9.17327e-05
1.89898e-05
0.000128003
2.1052e-05
0.000164428
2.29376e-05
0.0002005
2.34561e-05
0.000235459
2.20639e-05
0.000268767
1.78298e-05
0.000301152
9.24144e-06
0.000332269
-9.99884e-07
0.000367244
-1.36704e-05
0.000406982
-2.72323e-05
0.000449352
-4.47147e-05
0.000484278
-6.42476e-05
0.000504182
-6.79797e-05
0.000512165
-7.07276e-05
0.000511305
-7.05092e-05
0.00050364
-6.87965e-05
0.000487621
-6.71817e-05
0.000459063
-6.65985e-05
0.00041406
-6.75159e-05
0.000362734
-6.37677e-05
0.000314571
-5.96039e-05
0.000273921
-5.57236e-05
0.000241884
-5.16393e-05
0.000217651
-4.7175e-05
0.000199685
-4.25522e-05
0.00018649
-3.79305e-05
0.000176711
-3.34149e-05
0.000169313
-2.91432e-05
0.000163603
-2.52531e-05
0.000159155
-2.18356e-05
0.000155713
-1.89247e-05
0.000153116
-1.65022e-05
-1.42721e-05
0.000150724
3.72188e-05
-2.38267e-05
7.95712e-05
-2.5392e-05
0.000124677
-2.61216e-05
0.000171941
-2.62195e-05
0.000221076
-2.62058e-05
0.000271868
-2.73456e-05
0.000323737
-2.98158e-05
0.000375006
-3.34522e-05
0.00042173
-3.7497e-05
0.000461888
-4.11727e-05
0.000494326
-4.61249e-05
0.000518346
-5.12711e-05
0.000530119
-5.65035e-05
0.00052992
-6.40594e-05
0.000521199
-5.92539e-05
0.000507153
-5.66587e-05
0.00048947
-5.27757e-05
0.0004692
-4.84525e-05
0.000447168
-4.50652e-05
0.000424276
-4.36119e-05
0.000401693
-4.48264e-05
0.000382532
-4.44969e-05
0.000367595
-4.45534e-05
0.000356159
-4.41718e-05
0.000347195
-4.25557e-05
0.000339627
-3.94907e-05
0.000332352
-3.51655e-05
0.000324496
-2.99691e-05
0.00031552
-2.4337e-05
0.000305172
-1.86961e-05
0.000293424
-1.34126e-05
0.00028037
-8.69183e-06
0.000266181
-4.6569e-06
0.000251012
-1.26551e-06
9.91495e-07
0.000235807
-2.56481e-05
1.8194e-06
-5.22745e-05
1.23254e-06
-7.83069e-05
-9.13044e-08
-0.000101669
-2.85944e-06
-0.000119962
-7.91677e-06
-0.000131254
-1.60597e-05
-0.000134376
-2.67006e-05
-0.000129558
-3.82791e-05
-0.000117735
-4.93291e-05
-9.92146e-05
-5.97036e-05
-7.5408e-05
-6.9942e-05
-4.68367e-05
-7.98524e-05
-1.4287e-05
-8.906e-05
1.92986e-05
-9.76442e-05
4.7741e-05
-8.76872e-05
7.34026e-05
-8.23016e-05
9.69445e-05
-7.62906e-05
0.000118611
-7.00885e-05
0.000137641
-6.4071e-05
0.00015224
-5.81993e-05
0.000159639
-5.22255e-05
0.000157274
-4.21402e-05
0.000145634
-3.29293e-05
0.000126744
-2.53008e-05
0.000103275
-1.91041e-05
7.80415e-05
-1.42729e-05
5.32826e-05
-1.04199e-05
3.06319e-05
-7.32859e-06
1.11185e-05
-4.83005e-06
-4.94335e-06
-2.63931e-06
-1.76855e-05
-6.72034e-07
-2.72943e-05
9.18134e-07
-3.42577e-05
2.3086e-06
-3.90782e-05
3.55905e-06
4.50581e-06
-4.25899e-05
-1.23477e-05
1.41624e-05
-2.26606e-05
1.15398e-05
-2.96045e-05
6.84569e-06
-3.21365e-05
-3.36368e-07
-2.75373e-05
-1.25245e-05
-1.77454e-05
-2.58608e-05
-4.46276e-06
-3.99931e-05
1.08021e-05
-5.35546e-05
2.70489e-05
-6.55872e-05
4.37732e-05
-7.64398e-05
6.06034e-05
-8.67848e-05
7.72984e-05
-9.65603e-05
9.36498e-05
-0.000105425
0.00010909
-0.0001131
0.000120452
-9.9061e-05
0.000129431
-9.12892e-05
0.000136571
-8.34345e-05
0.00014209
-7.56037e-05
0.000145824
-6.7793e-05
0.000147231
-5.95875e-05
0.00014529
-5.02608e-05
0.000139027
-3.58514e-05
0.000128463
-2.23331e-05
0.000113729
-1.05311e-05
9.51245e-05
-4.62195e-07
7.50377e-05
5.8511e-06
5.40666e-05
1.05877e-05
3.25405e-05
1.42326e-05
1.1053e-05
1.66912e-05
-9.68026e-06
1.81268e-05
-2.90471e-05
1.87254e-05
-4.67907e-05
1.86897e-05
-6.26926e-05
1.82377e-05
-7.66377e-05
1.75287e-05
1.65568e-05
-8.86656e-05
1.74772e-05
-3.31649e-06
3.76488e-05
-8.63355e-06
5.90628e-05
-1.45704e-05
8.07494e-05
-2.20252e-05
9.78344e-05
-2.96117e-05
0.000109186
-3.72148e-05
0.000114032
-4.48408e-05
0.000113078
-5.26035e-05
0.000108231
-6.07426e-05
0.000101165
-6.93757e-05
9.27287e-05
-7.83508e-05
8.35861e-05
-8.74191e-05
7.43243e-05
-9.61636e-05
6.50828e-05
-0.000103856
5.78094e-05
-9.17843e-05
5.14803e-05
-8.49564e-05
4.56266e-05
-7.75763e-05
3.96441e-05
-6.9616e-05
3.27973e-05
-6.09402e-05
2.45165e-05
-5.13012e-05
1.47901e-05
-4.05323e-05
5.7886e-06
-2.68518e-05
-1.05777e-06
-1.54932e-05
-4.53667e-06
-7.05322e-06
-4.45953e-06
-5.45291e-07
-4.71887e-06
6.10112e-06
-5.13397e-06
1.09953e-05
-5.05903e-06
1.41506e-05
-4.49117e-06
1.61166e-05
-3.57122e-06
1.71998e-05
-2.44833e-06
1.75941e-05
-1.261e-06
1.74924e-05
-8.87112e-08
1.70567e-05
1.03219e-06
1.63995e-05
1.56926e-05
1.88944e-06
1.33069e-05
-1.66253e-05
2.60742e-05
-2.14031e-05
3.6772e-05
-2.52707e-05
4.4145e-05
-2.94012e-05
4.85909e-05
-3.40609e-05
5.07612e-05
-3.93892e-05
5.13972e-05
-4.54817e-05
5.11932e-05
-5.24052e-05
5.06403e-05
-6.01963e-05
5.00828e-05
-6.88259e-05
4.98691e-05
-7.81462e-05
5.03347e-05
-8.78953e-05
5.17836e-05
-9.76252e-05
5.43303e-05
-0.000106418
5.65755e-05
-9.40432e-05
5.83016e-05
-8.66953e-05
5.94271e-05
-7.87135e-05
5.97528e-05
-6.99522e-05
5.9e-05
-6.01954e-05
5.69778e-05
-4.92836e-05
5.34348e-05
-3.69912e-05
4.81791e-05
-2.15961e-05
4.08062e-05
-8.11955e-06
3.11251e-05
2.62789e-06
2.16415e-05
8.93948e-06
1.39285e-05
1.38168e-05
7.71451e-06
1.72111e-05
2.43427e-06
1.94331e-05
-2.21861e-06
2.07723e-05
-6.4345e-06
2.14174e-05
-1.03497e-05
2.15109e-05
-1.40447e-05
2.11883e-05
-1.75466e-05
2.05608e-05
-2.0861e-05
1.9717e-05
1.86783e-05
-2.38425e-05
2.73849e-06
-1.93641e-05
5.32228e-06
-2.39873e-05
8.12547e-06
-2.80745e-05
1.11801e-05
-3.24565e-05
1.44223e-05
-3.73041e-05
1.77291e-05
-4.26969e-05
2.0944e-05
-4.86978e-05
2.38957e-05
-5.53583e-05
2.63907e-05
-6.26932e-05
2.82369e-05
-7.06744e-05
2.92689e-05
-7.91812e-05
2.93732e-05
-8.80034e-05
2.84868e-05
-9.67435e-05
2.67028e-05
-0.00010464
2.47391e-05
-9.20857e-05
2.22953e-05
-8.4259e-05
1.9536e-05
-7.59624e-05
1.66535e-05
-6.70781e-05
1.37158e-05
-5.7267e-05
1.09729e-05
-4.65514e-05
8.98118e-06
-3.50121e-05
8.65254e-06
-2.12811e-05
1.04341e-05
-9.91473e-06
1.44879e-05
-1.4403e-06
1.65922e-05
6.81944e-06
1.80359e-05
1.23566e-05
1.92058e-05
1.60242e-05
2.02824e-05
1.83397e-05
2.13867e-05
1.96511e-05
2.25676e-05
2.02197e-05
2.38157e-05
2.0247e-05
2.51057e-05
1.98828e-05
2.64104e-05
1.92427e-05
2.77011e-05
1.84149e-05
1.75035e-05
2.88668e-05
1.10236e-06
-2.04687e-05
2.111e-06
-2.49984e-05
3.02982e-06
-2.8996e-05
3.89509e-06
-3.33248e-05
4.76373e-06
-3.81762e-05
5.68391e-06
-4.36211e-05
6.68655e-06
-4.9705e-05
7.78632e-06
-5.64633e-05
8.97809e-06
-6.38911e-05
1.02342e-05
-7.19375e-05
1.15354e-05
-8.04908e-05
1.2863e-05
-8.93407e-05
1.4229e-05
-9.81209e-05
1.57168e-05
-0.000106141
1.69977e-05
-9.33802e-05
1.82525e-05
-8.55277e-05
1.93304e-05
-7.70549e-05
2.01278e-05
-6.78909e-05
2.06672e-05
-5.78224e-05
2.09221e-05
-4.68231e-05
2.07536e-05
-3.48617e-05
1.98934e-05
-2.0438e-05
1.82296e-05
-8.26555e-06
1.52352e-05
1.5384e-06
1.42374e-05
7.80332e-06
1.38601e-05
1.2721e-05
1.3682e-05
1.61897e-05
1.35749e-05
1.84347e-05
1.34851e-05
1.97293e-05
1.33807e-05
2.03127e-05
1.32525e-05
2.03646e-05
1.31026e-05
2.00227e-05
1.29396e-05
1.93975e-05
1.27721e-05
1.85752e-05
1.7602e-05
1.26676e-05
4.69385e-07
-2.09392e-05
9.21461e-07
-2.54518e-05
1.48033e-06
-2.95564e-05
2.13004e-06
-3.39763e-05
2.81387e-06
-3.88621e-05
3.47946e-06
-4.42891e-05
4.08144e-06
-5.03098e-05
4.56858e-06
-5.69537e-05
4.89365e-06
-6.422e-05
5.00388e-06
-7.20523e-05
4.85325e-06
-8.03456e-05
4.40433e-06
-8.88985e-05
3.6145e-06
-9.73395e-05
2.49378e-06
-0.000105031
1.52549e-06
-9.24231e-05
7.38449e-07
-8.47529e-05
6.44349e-08
-7.63942e-05
-5.41817e-07
-6.72992e-05
-9.55702e-07
-5.74248e-05
-1.05336e-06
-4.67434e-05
-6.86245e-07
-3.5249e-05
3.29403e-07
-2.14747e-05
2.13143e-06
-1.00891e-05
5.16366e-06
-1.51435e-06
7.31454e-06
5.63303e-06
9.30714e-06
1.07099e-05
1.12897e-05
1.41897e-05
1.32692e-05
1.64384e-05
1.52166e-05
1.77654e-05
1.71132e-05
1.84002e-05
1.89474e-05
1.85154e-05
2.0707e-05
1.82485e-05
2.23828e-05
1.77081e-05
2.39672e-05
1.69789e-05
1.61384e-05
2.5421e-05
6.60816e-08
-2.10071e-05
1.69787e-09
-2.53895e-05
-1.75311e-07
-2.93818e-05
-4.45523e-07
-3.37088e-05
-7.96052e-07
-3.85146e-05
-1.22022e-06
-4.38684e-05
-1.71332e-06
-4.98207e-05
-2.26989e-06
-5.64018e-05
-2.87933e-06
-6.36159e-05
-3.51452e-06
-7.14233e-05
-4.15195e-06
-7.97156e-05
-4.77321e-06
-8.82859e-05
-5.3627e-06
-9.67604e-05
-5.92049e-06
-0.000104486
-6.43574e-06
-9.19206e-05
-6.89106e-06
-8.43113e-05
-7.25576e-06
-7.60443e-05
-7.49128e-06
-6.70798e-05
-7.55151e-06
-5.7382e-05
-7.38875e-06
-4.69251e-05
-6.97119e-06
-3.56868e-05
-6.40535e-06
-2.20602e-05
-5.78641e-06
-1.0727e-05
-5.49126e-06
-1.82573e-06
-4.47639e-06
4.60018e-06
-3.14102e-06
9.35785e-06
-1.71235e-06
1.27453e-05
-3.09829e-07
1.50211e-05
1.01785e-06
1.64238e-05
2.25455e-06
1.71504e-05
3.39559e-06
1.73622e-05
4.44312e-06
1.71897e-05
5.40375e-06
1.67373e-05
6.28557e-06
1.60877e-05
1.5298e-05
7.11748e-06
-2.34605e-07
-2.07739e-05
-5.25055e-07
-2.51006e-05
-8.45081e-07
-2.90636e-05
-1.21125e-06
-3.33447e-05
-1.65081e-06
-3.80775e-05
-2.19117e-06
-4.33308e-05
-2.86335e-06
-4.91517e-05
-3.70204e-06
-5.55668e-05
-4.73957e-06
-6.25828e-05
-6.00286e-06
-7.01651e-05
-7.51238e-06
-7.82121e-05
-9.28664e-06
-8.65188e-05
-1.13394e-05
-9.47163e-05
-1.36557e-05
-0.00010218
-1.57038e-05
-8.98834e-05
-1.75905e-05
-8.24362e-05
-1.92912e-05
-7.43563e-05
-2.07638e-05
-6.56209e-05
-2.19477e-05
-5.62131e-05
-2.27652e-05
-4.6124e-05
-2.31145e-05
-3.53555e-05
-2.28809e-05
-2.23118e-05
-2.21129e-05
-1.15127e-05
-2.07762e-05
-3.18024e-06
-1.93901e-05
3.19818e-06
-1.79783e-05
7.93076e-06
-1.65262e-05
1.12789e-05
-1.50617e-05
1.35431e-05
-1.36093e-05
1.49589e-05
-1.21896e-05
1.57193e-05
-1.08193e-05
1.59812e-05
-9.51042e-06
1.58711e-05
-8.27212e-06
1.54899e-05
-7.11037e-06
1.49175e-05
1.42208e-05
-6.04141e-06
-4.3383e-07
-2.03415e-05
-1.02147e-06
-2.45146e-05
-1.73041e-06
-2.83565e-05
-2.57945e-06
-3.24978e-05
-3.58684e-06
-3.70725e-05
-4.76097e-06
-4.21595e-05
-6.10811e-06
-4.78079e-05
-7.62983e-06
-5.40488e-05
-9.32651e-06
-6.08905e-05
-1.12049e-05
-6.82919e-05
-1.32757e-05
-7.61473e-05
-1.55527e-05
-8.42489e-05
-1.80504e-05
-9.2227e-05
-2.07867e-05
-9.94541e-05
-2.32912e-05
-8.73889e-05
-2.56846e-05
-8.00535e-05
-2.79409e-05
-7.21115e-05
-3.00282e-05
-6.35458e-05
-3.19052e-05
-5.43494e-05
-3.35202e-05
-4.45232e-05
-3.4818e-05
-3.4073e-05
-3.56987e-05
-2.14462e-05
-3.62205e-05
-1.10055e-05
-3.649e-05
-2.92466e-06
-3.64615e-05
3.15597e-06
-3.61699e-05
7.62626e-06
-3.57224e-05
1.08193e-05
-3.51796e-05
1.2989e-05
-3.45845e-05
1.43534e-05
-3.39673e-05
1.50928e-05
-3.33491e-05
1.53544e-05
-3.27435e-05
1.52578e-05
-3.21596e-05
1.48986e-05
-3.16025e-05
1.43531e-05
1.36784e-05
-3.10673e-05
-5.76715e-07
-1.9766e-05
-1.3074e-06
-2.37853e-05
-2.18009e-06
-2.74854e-05
-3.20962e-06
-3.14701e-05
-4.40173e-06
-3.58826e-05
-5.77088e-06
-4.07928e-05
-7.33694e-06
-4.62446e-05
-9.12429e-06
-5.22648e-05
-1.11679e-05
-5.88507e-05
-1.35051e-05
-6.59591e-05
-1.61737e-05
-7.3484e-05
-1.92101e-05
-8.12185e-05
-2.26496e-05
-8.87947e-05
-2.65192e-05
-9.55931e-05
-3.00779e-05
-8.38388e-05
-3.35239e-05
-7.66165e-05
-3.6846e-05
-6.87989e-05
-4.0023e-05
-6.03788e-05
-4.30227e-05
-5.13602e-05
-4.58002e-05
-4.17568e-05
-4.82948e-05
-3.15903e-05
-5.02482e-05
-1.95043e-05
-5.16815e-05
-9.58323e-06
-5.26536e-05
-1.96313e-06
-5.3301e-05
3.79343e-06
-5.36998e-05
8.01564e-06
-5.38929e-05
1.10036e-05
-5.39253e-05
1.30132e-05
-5.38356e-05
1.42562e-05
-5.3656e-05
1.49065e-05
-5.34135e-05
1.51059e-05
-5.31295e-05
1.49684e-05
-5.28219e-05
1.45856e-05
-5.25038e-05
1.40296e-05
1.33587e-05
-5.21898e-05
-7.20926e-07
-1.90462e-05
-1.68532e-06
-2.28222e-05
-2.83464e-06
-2.63376e-05
-4.15371e-06
-3.01527e-05
-5.64912e-06
-3.43892e-05
-7.3382e-06
-3.9106e-05
-9.24361e-06
-4.43419e-05
-1.13946e-05
-5.01169e-05
-1.38235e-05
-5.64253e-05
-1.65656e-05
-6.32212e-05
-1.96597e-05
-7.03946e-05
-2.31494e-05
-7.77345e-05
-2.70822e-05
-8.48684e-05
-3.15124e-05
-9.11706e-05
-3.56476e-05
-7.97111e-05
-3.97145e-05
-7.25573e-05
-4.37073e-05
-6.48141e-05
-4.76156e-05
-5.64788e-05
-5.14208e-05
-4.75636e-05
-5.50937e-05
-3.80927e-05
-5.85949e-05
-2.80982e-05
-6.16068e-05
-1.65011e-05
-6.41306e-05
-7.0677e-06
-6.62615e-05
1.59867e-07
-6.79659e-05
5.49041e-06
-6.93344e-05
9.37712e-06
-7.0425e-05
1.20877e-05
-7.12881e-05
1.38704e-05
-7.19668e-05
1.49294e-05
-7.24965e-05
1.54316e-05
-7.29072e-05
1.55121e-05
-7.32222e-05
1.52797e-05
-7.34616e-05
1.4821e-05
-7.36407e-05
1.42045e-05
1.34825e-05
-7.3769e-05
-8.18528e-07
-1.82287e-05
-1.82913e-06
-2.18128e-05
-3.00873e-06
-2.51593e-05
-4.3722e-06
-2.87908e-05
-5.94306e-06
-3.28201e-05
-7.74891e-06
-3.73022e-05
-9.82078e-06
-4.22724e-05
-1.21929e-05
-4.77474e-05
-1.49027e-05
-5.37186e-05
-1.79915e-05
-6.01361e-05
-2.15045e-05
-6.68857e-05
-2.54924e-05
-7.37514e-05
-3.0012e-05
-8.03544e-05
-3.51273e-05
-8.60619e-05
-3.99084e-05
-7.49362e-05
-4.46312e-05
-6.7841e-05
-4.93024e-05
-6.01494e-05
-5.39232e-05
-5.18645e-05
-5.8487e-05
-4.30064e-05
-6.29764e-05
-3.36099e-05
-6.73609e-05
-2.37203e-05
-7.12303e-05
-1.26378e-05
-7.4559e-05
-3.74446e-06
-7.73697e-05
2.96568e-06
-7.97851e-05
7.90118e-06
-8.18266e-05
1.14143e-05
-8.35434e-05
1.38005e-05
-8.49812e-05
1.53045e-05
-8.61814e-05
1.61264e-05
-8.7181e-05
1.64285e-05
-8.80127e-05
1.63413e-05
-8.87039e-05
1.59689e-05
-8.9279e-05
1.53939e-05
-8.97579e-05
1.46808e-05
1.388e-05
-9.01583e-05
-8.94135e-07
-1.73356e-05
-2.01108e-06
-2.06969e-05
-3.31902e-06
-2.38527e-05
-4.8278e-06
-2.72835e-05
-6.55729e-06
-3.10922e-05
-8.53286e-06
-3.53286e-05
-1.07846e-05
-4.00228e-05
-1.3347e-05
-4.51875e-05
-1.62596e-05
-5.08089e-05
-1.95669e-05
-5.6832e-05
-2.33195e-05
-6.3137e-05
-2.75749e-05
-6.95004e-05
-3.2399e-05
-7.55354e-05
-3.78693e-05
-8.05975e-05
-4.30075e-05
-6.98035e-05
-4.81076e-05
-6.27464e-05
-5.31793e-05
-5.50833e-05
-5.82289e-05
-4.68203e-05
-6.32579e-05
-3.79827e-05
-6.82591e-05
-2.86138e-05
-7.32145e-05
-1.87697e-05
-7.76753e-05
-8.18117e-06
-8.16092e-05
1.85911e-07
-8.5047e-05
6.40021e-06
-8.80369e-05
1.08882e-05
-9.06252e-05
1.40001e-05
-9.28584e-05
1.60314e-05
-9.47806e-05
1.72246e-05
-9.64325e-05
1.77765e-05
-9.78506e-05
1.78452e-05
-9.90678e-05
1.75572e-05
-0.000100112
1.70126e-05
-0.00010101
1.62902e-05
-0.000101782
1.54511e-05
1.45412e-05
-0.000102445
-9.3556e-07
-1.64009e-05
-2.085e-06
-1.95485e-05
-3.42524e-06
-2.25136e-05
-4.9719e-06
-2.57381e-05
-6.74976e-06
-2.93159e-05
-8.78851e-06
-3.32915e-05
-1.11221e-05
-3.76913e-05
-1.37885e-05
-4.25233e-05
-1.68303e-05
-4.77697e-05
-2.02946e-05
-5.33707e-05
-2.42341e-05
-5.92008e-05
-2.87081e-05
-6.50302e-05
-3.37845e-05
-7.04634e-05
-3.95431e-05
-7.4844e-05
-4.49492e-05
-6.44023e-05
-5.03145e-05
-5.73859e-05
-5.56518e-05
-4.97508e-05
-6.09721e-05
-4.15045e-05
-6.62828e-05
-3.26763e-05
-7.15836e-05
-2.3317e-05
-7.68634e-05
-1.34934e-05
-8.16447e-05
-3.40287e-06
-8.58788e-05
4.41757e-06
-8.96175e-05
1.0137e-05
-9.29008e-05
1.417e-05
-9.57719e-05
1.68698e-05
-9.82731e-05
1.85315e-05
-0.000100446
1.93965e-05
-0.000102329
1.96591e-05
-0.00010396
1.94749e-05
-0.00010537
1.89668e-05
-0.000106589
1.82315e-05
-0.000107644
1.73444e-05
-0.000108557
1.63633e-05
1.53314e-05
-0.000109348
-9.71452e-07
-1.54303e-05
-2.16156e-06
-1.83593e-05
-3.54783e-06
-2.11284e-05
-5.14508e-06
-2.41421e-05
-6.97731e-06
-2.74851e-05
-9.0737e-06
-3.11968e-05
-1.1468e-05
-3.52988e-05
-1.41984e-05
-3.9795e-05
-1.73081e-05
-4.46624e-05
-2.08453e-05
-4.98362e-05
-2.48642e-05
-5.51851e-05
-2.94256e-05
-6.04723e-05
-3.4599e-05
-6.52941e-05
-4.04646e-05
-6.8983e-05
-4.59672e-05
-5.89039e-05
-5.14218e-05
-5.19355e-05
-5.68404e-05
-4.43363e-05
-6.22346e-05
-3.61142e-05
-6.76132e-05
-2.73015e-05
-7.2979e-05
-1.79545e-05
-7.8326e-05
-8.14937e-06
-8.31774e-05
1.44622e-06
-8.749e-05
8.72852e-06
-9.13056e-05
1.39513e-05
-9.46661e-05
1.75297e-05
-9.76144e-05
1.98173e-05
-0.000100192
2.11086e-05
-0.000102439
2.16434e-05
-0.000104395
2.16143e-05
-0.000106094
2.11736e-05
-0.000107569
2.04414e-05
-0.000108848
1.95111e-05
-0.000109959
1.84547e-05
-0.000110923
1.7327e-05
1.6168e-05
-0.00011176
-9.79842e-07
-1.44512e-05
-2.17363e-06
-1.71664e-05
-3.56221e-06
-1.97408e-05
-5.16234e-06
-2.25431e-05
-6.99941e-06
-2.56493e-05
-9.10376e-06
-2.90939e-05
-1.151e-05
-3.28942e-05
-1.42572e-05
-3.70497e-05
-1.73886e-05
-4.15332e-05
-2.09523e-05
-4.6275e-05
-2.50015e-05
-5.11386e-05
-2.95953e-05
-5.58817e-05
-3.47997e-05
-6.00934e-05
-4.0688e-05
-6.30988e-05
-4.61959e-05
-5.33999e-05
-5.16381e-05
-4.64972e-05
-5.70243e-05
-3.89539e-05
-6.23639e-05
-3.07782e-05
-6.76646e-05
-2.20042e-05
-7.29294e-05
-1.26927e-05
-7.81538e-05
-2.92768e-06
-8.28758e-05
6.16619e-06
-8.70613e-05
1.29125e-05
-9.07554e-05
1.76444e-05
-9.40016e-05
2.07751e-05
-9.68428e-05
2.2658e-05
-9.93207e-05
2.35862e-05
-0.000101475
2.37979e-05
-0.000103345
2.34833e-05
-0.000104964
2.27923e-05
-0.000106364
2.18417e-05
-0.000107575
2.07217e-05
-0.000108622
1.95014e-05
-0.000109527
1.82323e-05
1.6952e-05
-0.000110311
-9.83004e-07
-1.34689e-05
-2.1768e-06
-1.59734e-05
-3.56392e-06
-1.83546e-05
-5.16091e-06
-2.09472e-05
-6.99264e-06
-2.38188e-05
-9.08894e-06
-2.69989e-05
-1.14839e-05
-3.05008e-05
-1.4216e-05
-3.43194e-05
-1.73281e-05
-3.84231e-05
-2.08674e-05
-4.27379e-05
-2.4886e-05
-4.71226e-05
-2.94409e-05
-5.13296e-05
-3.45935e-05
-5.4944e-05
-4.04104e-05
-5.72856e-05
-4.58352e-05
-4.79787e-05
-5.11747e-05
-4.11613e-05
-5.64337e-05
-3.36983e-05
-6.16176e-05
-2.55977e-05
-6.67301e-05
-1.68948e-05
-7.17722e-05
-7.65362e-06
-7.67383e-05
2.03576e-06
-8.11942e-05
1.06201e-05
-8.51171e-05
1.68338e-05
-8.85574e-05
2.10835e-05
-9.1562e-05
2.37789e-05
-9.41757e-05
2.52711e-05
-9.64411e-05
2.58512e-05
-9.83983e-05
2.57548e-05
-0.000100085
2.51697e-05
-0.000101535
2.42425e-05
-0.000102781
2.30871e-05
-0.00010385
2.17904e-05
-0.000104767
2.0418e-05
-0.000105553
1.90186e-05
1.76268e-05
-0.000106228
-9.71351e-07
-1.24982e-05
-2.14739e-06
-1.47981e-05
-3.51285e-06
-1.699e-05
-5.08479e-06
-1.93762e-05
-6.88817e-06
-2.20165e-05
-8.95258e-06
-2.49357e-05
-1.13117e-05
-2.8143e-05
-1.40034e-05
-3.16293e-05
-1.70692e-05
-3.53591e-05
-2.05549e-05
-3.92542e-05
-2.45102e-05
-4.31695e-05
-2.89884e-05
-4.68541e-05
-3.40453e-05
-4.989e-05
-3.9739e-05
-5.15953e-05
-4.5029e-05
-4.26919e-05
-5.02118e-05
-3.59817e-05
-5.52877e-05
-2.86257e-05
-6.02566e-05
-2.0632e-05
-6.5118e-05
-1.20366e-05
-6.98685e-05
-2.9061e-06
-7.44999e-05
6.66442e-06
-7.86116e-05
1.47295e-05
-8.21939e-05
2.04144e-05
-8.53039e-05
2.41921e-05
-8.7993e-05
2.6467e-05
-9.03089e-05
2.75863e-05
-9.2296e-05
2.78376e-05
-9.39951e-05
2.74534e-05
-9.54436e-05
2.66177e-05
-9.66756e-05
2.54739e-05
-9.77212e-05
2.41322e-05
-9.86074e-05
2.26761e-05
-9.93575e-05
2.11678e-05
-9.9992e-05
1.96529e-05
1.81635e-05
-0.000100529
-9.55674e-07
-1.15431e-05
-2.10966e-06
-1.36448e-05
-3.44831e-06
-1.56521e-05
-4.98841e-06
-1.7837e-05
-6.75432e-06
-2.02516e-05
-8.77487e-06
-2.29163e-05
-1.10829e-05
-2.58363e-05
-1.37149e-05
-2.89987e-05
-1.67116e-05
-3.23641e-05
-2.01168e-05
-3.58508e-05
-2.3978e-05
-3.93104e-05
-2.83448e-05
-4.24897e-05
-3.32678e-05
-4.49697e-05
-3.87964e-05
-4.60699e-05
-4.39143e-05
-3.75769e-05
-4.89053e-05
-3.09937e-05
-5.37646e-05
-2.37695e-05
-5.84869e-05
-1.59127e-05
-6.30664e-05
-7.46016e-06
-6.74953e-05
1.5197e-06
-7.17614e-05
1.09277e-05
-7.54994e-05
1.8465e-05
-7.87125e-05
2.36255e-05
-8.14639e-05
2.6942e-05
-8.381e-05
2.88117e-05
-8.58015e-05
2.95767e-05
-8.74848e-05
2.952e-05
-8.89018e-05
2.88696e-05
-9.00902e-05
2.78053e-05
-9.10837e-05
2.64665e-05
-9.19115e-05
2.49593e-05
-9.25996e-05
2.33635e-05
-9.31702e-05
2.17378e-05
-9.36425e-05
2.01248e-05
1.8554e-05
-9.4033e-05
-9.33174e-07
-1.06105e-05
-2.05713e-06
-1.25215e-05
-3.35994e-06
-1.435e-05
-4.85837e-06
-1.63393e-05
-6.57626e-06
-1.85346e-05
-8.54172e-06
-2.09519e-05
-1.07866e-05
-2.35926e-05
-1.33463e-05
-2.64403e-05
-1.62598e-05
-2.94521e-05
-1.95692e-05
-3.25431e-05
-2.3319e-05
-3.55625e-05
-2.75553e-05
-3.82556e-05
-3.23232e-05
-4.02042e-05
-3.76641e-05
-4.07318e-05
-4.25908e-05
-3.2653e-05
-4.73736e-05
-2.62138e-05
-5.20034e-05
-1.91427e-05
-5.64702e-05
-1.1449e-05
-6.07631e-05
-3.17023e-06
-6.48698e-05
5.62331e-06
-6.87744e-05
1.48292e-05
-7.21453e-05
2.18333e-05
-7.49978e-05
2.64757e-05
-7.74004e-05
2.93427e-05
-7.94136e-05
3.08232e-05
-8.10909e-05
3.12526e-05
-8.24804e-05
3.09083e-05
-8.36248e-05
3.00129e-05
-8.45619e-05
2.87415e-05
-8.5325e-05
2.72285e-05
-8.59426e-05
2.5576e-05
-8.64397e-05
2.38596e-05
-8.68372e-05
2.21345e-05
-8.71529e-05
2.04401e-05
1.88032e-05
-8.74022e-05
-9.08553e-07
-9.70247e-06
-1.99933e-06
-1.14313e-05
-3.26247e-06
-1.30875e-05
-4.71464e-06
-1.48879e-05
-6.37902e-06
-1.6871e-05
-8.28282e-06
-1.90491e-05
-1.04567e-05
-2.14197e-05
-1.29349e-05
-2.39634e-05
-1.57546e-05
-2.66337e-05
-1.8956e-05
-2.93433e-05
-2.25811e-05
-3.19392e-05
-2.66724e-05
-3.41663e-05
-3.12708e-05
-3.56082e-05
-3.64104e-05
-3.55949e-05
-4.11365e-05
-2.79295e-05
-4.57061e-05
-2.16468e-05
-5.01062e-05
-1.47453e-05
-5.4323e-05
-7.23509e-06
-5.83413e-05
8.45103e-07
-6.21446e-05
9.42353e-06
-6.57136e-05
1.83951e-05
-6.87477e-05
2.48646e-05
-7.12719e-05
2.89975e-05
-7.33592e-05
3.14278e-05
-7.50731e-05
3.25353e-05
-7.64695e-05
3.26474e-05
-7.75977e-05
3.2035e-05
-7.85008e-05
3.09148e-05
-7.92166e-05
2.94561e-05
-7.97778e-05
2.77884e-05
-8.02119e-05
2.60091e-05
-8.0543e-05
2.41895e-05
-8.07905e-05
2.23812e-05
-8.09713e-05
2.06203e-05
1.89309e-05
-8.10993e-05
-8.82912e-07
-8.82004e-06
-1.93624e-06
-1.03785e-05
-3.15521e-06
-1.18692e-05
-4.55662e-06
-1.34872e-05
-6.16294e-06
-1.52655e-05
-8.00034e-06
-1.72125e-05
-1.00983e-05
-1.93228e-05
-1.24893e-05
-2.15734e-05
-1.52091e-05
-2.39153e-05
-1.82955e-05
-2.62583e-05
-2.17884e-05
-2.8448e-05
-2.57272e-05
-3.02293e-05
-3.01488e-05
-3.11887e-05
-3.50817e-05
-3.06645e-05
-3.96059e-05
-2.34078e-05
-4.39652e-05
-1.729e-05
-4.81439e-05
-1.05692e-05
-5.2125e-05
-3.25677e-06
-5.58902e-05
4.60733e-06
-5.94196e-05
1.29499e-05
-6.26911e-05
2.16635e-05
-6.54313e-05
2.7602e-05
-6.76727e-05
3.12363e-05
-6.9491e-05
3.32438e-05
-7.09518e-05
3.39941e-05
-7.21123e-05
3.38062e-05
-7.30226e-05
3.29436e-05
-7.37257e-05
3.16165e-05
-7.4259e-05
2.99881e-05
-7.46543e-05
2.81824e-05
-7.49384e-05
2.6292e-05
-7.51342e-05
2.43841e-05
-7.52604e-05
2.25066e-05
-7.53326e-05
2.06918e-05
1.89613e-05
-7.53635e-05
-8.40572e-07
-7.97992e-06
-1.85449e-06
-9.36508e-06
-3.02995e-06
-1.06943e-05
-4.38155e-06
-1.21363e-05
-5.93025e-06
-1.37176e-05
-7.70082e-06
-1.54428e-05
-9.72129e-06
-1.73033e-05
-1.20227e-05
-1.92731e-05
-1.46391e-05
-2.13002e-05
-1.76065e-05
-2.32922e-05
-2.09628e-05
-2.50933e-05
-2.4745e-05
-2.64488e-05
-2.89868e-05
-2.69489e-05
-3.37123e-05
-2.59414e-05
-3.80374e-05
-1.90851e-05
-4.21936e-05
-1.31362e-05
-4.61633e-05
-6.60208e-06
-4.99273e-05
5.04536e-07
-5.3465e-05
8.14216e-06
-5.67543e-05
1.62362e-05
-5.97712e-05
2.46773e-05
-6.22653e-05
3.00931e-05
-6.42742e-05
3.32426e-05
-6.58747e-05
3.48419e-05
-6.71333e-05
3.52506e-05
-6.81078e-05
3.47788e-05
-6.88481e-05
3.36822e-05
-6.93969e-05
3.21637e-05
-6.97905e-05
3.03803e-05
-7.00595e-05
2.845e-05
-7.02289e-05
2.646e-05
-7.03216e-05
2.44755e-05
-7.03561e-05
2.25401e-05
-7.03462e-05
2.06812e-05
-7.03041e-05
1.89188e-05
0.000286919
3.35745e-05
0.000267902
3.42023e-05
0.000248534
3.46915e-05
0.000228856
3.51364e-05
0.000208955
3.54796e-05
0.000188998
3.56574e-05
0.000169213
3.56019e-05
0.000149895
3.52534e-05
0.000131236
3.47075e-05
0.000113033
3.43531e-05
9.44609e-05
3.48175e-05
7.47381e-05
3.58199e-05
5.43487e-05
3.57223e-05
3.35852e-05
3.53943e-05
1.28421e-05
3.46483e-05
-7.29687e-06
3.34705e-05
-2.6261e-05
3.17925e-05
-4.27231e-05
2.8898e-05
-5.47452e-05
2.40551e-05
-6.20437e-05
1.89494e-05
-6.5434e-05
1.46862e-05
1.17822e-05
-6.63556e-05
0.000543653
4.14856e-05
0.000537957
3.98328e-05
0.000533697
3.88865e-05
0.000530445
3.83257e-05
0.000527514
3.83498e-05
0.000523989
3.91254e-05
0.000518736
4.07973e-05
0.000510523
4.3411e-05
0.000498392
4.6784e-05
0.000482361
5.03268e-05
0.000464166
5.29467e-05
0.000447427
5.2484e-05
0.000436278
4.67903e-05
0.000433386
3.81989e-05
0.000440249
2.76906e-05
0.000457044
1.65725e-05
0.000482499
6.22648e-06
0.000514467
-3.18206e-06
0.000549757
-1.13379e-05
0.000585573
-1.6959e-05
0.000619027
-1.88502e-05
-1.69593e-05
0.000647696
9.78907e-05
6.51115e-06
0.000129935
7.88364e-06
0.000159759
9.15358e-06
0.000187404
1.07676e-05
0.000212888
1.29515e-05
0.000236175
1.59241e-05
0.000256
2.10577e-05
0.000272203
2.72907e-05
0.000285489
3.35792e-05
0.000296508
3.93902e-05
0.00030552
4.40246e-05
0.000312939
4.51535e-05
0.000319071
4.0737e-05
0.000323986
3.33521e-05
0.000327864
2.3865e-05
0.00032896
1.55098e-05
0.000326318
8.88334e-06
0.000319157
3.98202e-06
0.000306746
1.0649e-06
0.000289962
-1.80585e-07
0.000270995
1.13573e-07
1.67048e-06
0.00025236
0.000797743
-1.98788e-05
0.000825222
-1.96735e-05
0.000853133
-1.88463e-05
0.000881429
-1.76281e-05
0.000910068
-1.57936e-05
0.000938712
-1.2835e-05
0.000967666
-8.01917e-06
0.000995387
-5.49806e-07
0.00102126
7.58626e-06
0.00104236
1.81666e-05
0.00105472
3.15465e-05
0.0010538
4.59474e-05
0.00103571
5.87188e-05
0.000998185
7.07862e-05
0.00093973
8.22519e-05
0.000862386
9.28022e-05
0.000769152
0.00010207
0.000663349
0.000109733
0.00054892
0.000115433
0.000429874
0.000118795
0.000310384
0.000119527
0.000116985
0.000194987
0.000146369
-1.5626e-05
0.000141364
-1.47768e-05
0.000136481
-1.40752e-05
0.000132044
-1.33091e-05
0.000128491
-1.23685e-05
0.000126484
-1.09711e-05
0.000127146
-8.8342e-06
0.000131236
-4.79808e-06
0.000137098
1.56081e-06
0.000144007
1.10947e-05
0.000150441
2.49599e-05
0.000156499
3.97556e-05
0.000161878
5.32276e-05
0.000166459
6.61164e-05
0.000170436
7.82059e-05
0.000173953
8.92319e-05
0.000177109
9.88716e-05
0.00018003
0.000106774
0.000182755
0.00011267
0.00018514
0.000116371
0.000186801
0.000117819
0.00011716
0.000186584
0.000213739
6.53004e-06
0.000187955
1.1098e-05
0.000157861
1.61115e-05
0.000123432
2.12108e-05
8.48507e-05
2.63059e-05
4.26175e-05
3.1353e-05
-2.46021e-06
3.63234e-05
-4.82455e-05
4.10908e-05
-9.21894e-05
4.5596e-05
-0.000131135
5.01308e-05
-0.000161591
5.55018e-05
-0.000183318
6.1568e-05
-0.00019656
6.65526e-05
-0.000202604
7.22401e-05
-0.000202584