/*--------------------------------*- C++ -*----------------------------------*\
  =========                 |
  \\      /  F ield         | OpenFOAM: The Open Source CFD Toolbox
   \\    /   O peration     | Website:  https://openfoam.org
    \\  /    A nd           | Version:  8
     \\/     M anipulation  |
\*---------------------------------------------------------------------------*/
FoamFile
{
    version     2.0;
    format      ascii;
    class       surfaceScalarField;
    location    "1900";
    object      phi;
}
// * * * * * * * * * * * * * * * * * * * * * * * * * * * * * * * * * * * * * //

dimensions      [0 3 -1 0 0 0 0];

internalField   nonuniform List<scalar> 
31053
(
1.74486e-06
1.16351e-05
1.36368e-06
1.57612e-05
9.6313e-07
1.0672e-05
1.26631e-06
1.77374e-05
1.52667e-06
1.51976e-05
5.92718e-07
1.00793e-05
1.20187e-06
2.03044e-05
1.50995e-06
1.77541e-05
1.20925e-06
1.45811e-05
4.31064e-07
9.64823e-06
1.13119e-06
2.33107e-05
1.45173e-06
2.03627e-05
1.33714e-06
1.76262e-05
9.70385e-07
1.40418e-05
3.06378e-07
9.34185e-06
1.0577e-06
2.67335e-05
1.39848e-06
2.33639e-05
1.32686e-06
2.03729e-05
1.18677e-06
1.74098e-05
7.46377e-07
1.36018e-05
2.1336e-07
9.12849e-06
9.80835e-07
3.06969e-05
1.34249e-06
2.67895e-05
1.29604e-06
2.33947e-05
1.22283e-06
2.03369e-05
1.00107e-06
1.71551e-05
5.6637e-07
1.32488e-05
1.51803e-07
8.97668e-06
9.00366e-07
3.52205e-05
1.2814e-06
3.07579e-05
1.25931e-06
2.68262e-05
1.2093e-06
2.34083e-05
1.07322e-06
2.02647e-05
8.26132e-07
1.68953e-05
4.29414e-07
1.29712e-05
1.0928e-07
8.8674e-06
8.16674e-07
4.04037e-05
1.21475e-06
3.52871e-05
1.21824e-06
3.0799e-05
1.18128e-06
2.68542e-05
1.07695e-06
2.34046e-05
9.20369e-07
2.01705e-05
6.74582e-07
1.66502e-05
3.22643e-07
1.27578e-05
7.79887e-08
8.78941e-06
7.3056e-07
4.63661e-05
1.14232e-06
4.04761e-05
1.17229e-06
3.53331e-05
1.1465e-06
3.08338e-05
1.05746e-06
2.68737e-05
9.36573e-07
2.33884e-05
7.8091e-07
2.00642e-05
5.42865e-07
1.643e-05
2.38771e-07
1.2597e-05
5.25352e-08
8.73687e-06
6.43296e-07
5.32273e-05
1.06407e-06
4.64444e-05
1.12048e-06
4.05279e-05
1.10628e-06
3.53733e-05
1.02727e-06
3.0864e-05
9.22778e-07
2.68875e-05
8.0486e-07
2.33644e-05
6.52872e-07
1.99542e-05
4.26054e-07
1.62427e-05
1.70343e-07
1.24792e-05
2.83396e-08
8.70854e-06
5.56672e-07
6.10666e-05
9.80337e-07
5.3311e-05
1.06186e-06
4.6503e-05
1.06034e-06
4.05739e-05
9.89913e-07
3.54106e-05
8.94597e-07
3.08922e-05
7.93564e-07
2.68988e-05
6.79503e-07
2.33378e-05
5.32452e-07
1.98478e-05
3.20578e-07
1.60924e-05
1.10296e-07
1.23973e-05
7.32582e-09
8.7012e-06
4.72616e-07
7.00661e-05
8.91855e-07
6.11551e-05
9.95743e-07
5.33771e-05
1.00788e-06
4.65554e-05
9.4619e-07
4.06176e-05
8.57233e-07
3.5448e-05
7.64497e-07
3.09212e-05
6.6724e-07
2.69111e-05
5.57366e-07
2.33129e-05
4.1671e-07
1.97516e-05
2.24023e-07
1.59787e-05
5.65634e-08
1.2348e-05
-1.02451e-08
8.71145e-06
3.93171e-07
8.04114e-05
7.99664e-07
7.01582e-05
9.21931e-07
6.12289e-05
9.47949e-07
5.3437e-05
8.95853e-07
4.66058e-05
8.12346e-07
4.06625e-05
7.23991e-07
3.54885e-05
6.34363e-07
3.09541e-05
5.40726e-07
2.69277e-05
4.35917e-07
2.32936e-05
3.03975e-07
1.96717e-05
1.34585e-07
1.59007e-05
7.77534e-09
1.233e-05
-2.71584e-08
8.7386e-06
3.31885e-07
7.62513e-05
7.04854e-07
8.05063e-05
8.40892e-07
7.02393e-05
8.79739e-07
6.12971e-05
8.38193e-07
5.34947e-05
7.60137e-07
4.6658e-05
6.74342e-07
4.07121e-05
5.87776e-07
3.55351e-05
5.01064e-07
3.09938e-05
4.11598e-07
2.6952e-05
3.1351e-07
2.32841e-05
1.93256e-07
1.9613e-05
5.07836e-08
1.58577e-05
-3.83846e-08
1.23412e-05
-4.48461e-08
8.78344e-06
2.81387e-07
7.62405e-05
6.24222e-07
7.63319e-05
7.53676e-07
8.05935e-05
8.0282e-07
7.03162e-05
7.72405e-07
6.13629e-05
7.00153e-07
5.35547e-05
6.16137e-07
4.67162e-05
5.30148e-07
4.07698e-05
4.45482e-07
3.55907e-05
3.62157e-07
3.10432e-05
2.78302e-07
2.69872e-05
1.89341e-07
2.3288e-05
8.41519e-08
1.95796e-05
-2.95389e-08
1.58488e-05
-8.33384e-08
1.23797e-05
-6.30305e-08
8.84647e-06
2.39486e-07
7.62319e-05
5.51962e-07
7.63128e-05
6.76728e-07
7.64089e-05
7.17591e-07
8.06787e-05
6.97798e-07
7.03908e-05
6.31734e-07
6.14313e-05
5.49175e-07
5.36217e-05
4.62325e-07
4.6784e-05
3.7678e-07
4.08385e-05
2.94637e-07
3.56582e-05
2.16039e-07
3.11055e-05
1.40175e-07
2.70364e-05
6.30923e-08
2.33091e-05
-2.43316e-08
1.95744e-05
-1.07494e-07
1.5873e-05
-1.2757e-07
1.24442e-05
-8.13103e-08
8.92778e-06
2.04493e-07
7.6227e-05
4.87276e-07
7.62966e-05
6.05476e-07
7.6384e-05
6.41055e-07
7.64854e-05
6.14216e-07
8.07623e-05
5.54218e-07
7.04683e-05
4.72975e-07
6.15075e-05
3.84297e-07
5.36997e-05
2.95905e-07
4.68649e-05
2.11758e-07
4.09214e-05
1.33532e-07
3.57407e-05
6.20613e-08
3.11836e-05
-3.0615e-09
2.71026e-05
-6.58584e-08
2.33506e-05
-1.32405e-07
1.95993e-05
-1.83571e-07
1.5929e-05
-1.71001e-07
1.25339e-05
-9.92992e-08
9.02708e-06
1.75093e-07
7.62194e-05
4.29392e-07
7.62849e-05
5.39781e-07
7.63623e-05
5.69186e-07
7.64559e-05
5.38078e-07
7.65615e-05
4.67362e-07
8.08491e-05
3.87008e-07
7.05543e-05
2.95765e-07
6.15961e-05
2.02943e-07
5.37926e-05
1.14417e-07
4.69622e-05
3.3252e-08
4.10216e-05
-3.85753e-08
3.58413e-05
-1.00025e-07
3.12805e-05
-1.51822e-07
2.71885e-05
-1.97328e-07
2.34155e-05
-2.39805e-07
1.96556e-05
-2.57771e-07
1.60157e-05
-2.13164e-07
1.26478e-05
-1.16781e-07
9.14386e-06
1.50251e-07
7.62148e-05
3.77616e-07
7.62712e-05
4.7941e-07
7.63452e-05
5.02207e-07
7.64293e-05
4.65849e-07
7.65281e-05
3.88121e-07
7.66408e-05
2.91138e-07
8.0945e-05
1.96386e-07
7.06537e-05
9.77272e-08
6.17013e-05
2.68574e-09
5.39044e-05
-8.40914e-08
4.70796e-05
-1.59593e-07
4.11427e-05
-2.21905e-07
3.59632e-05
-2.70376e-07
3.13991e-05
-3.05717e-07
2.72969e-05
-3.30542e-07
2.35063e-05
-3.45782e-07
1.97436e-05
-3.29649e-07
1.61322e-05
-2.53899e-07
1.27849e-05
-1.33526e-07
9.27739e-06
1.29158e-07
7.62111e-05
3.31323e-07
7.62611e-05
4.24121e-07
7.63265e-05
4.40171e-07
7.64073e-05
3.98101e-07
7.6497e-05
3.12891e-07
7.66033e-05
2.04079e-07
7.67278e-05
8.62505e-08
8.10551e-05
-1.98983e-08
7.07713e-05
-1.23527e-07
6.18275e-05
-2.1853e-07
5.40388e-05
-3.00574e-07
4.72205e-05
-3.66998e-07
4.12877e-05
-4.16363e-07
3.61092e-05
-4.4835e-07
3.15417e-05
-4.63541e-07
2.74299e-05
-4.64105e-07
2.36246e-05
-4.49463e-07
1.98634e-05
-3.98826e-07
1.62772e-05
-2.92803e-07
1.29442e-05
-1.49242e-07
9.42663e-06
1.12602e-07
6.95986e-05
2.89969e-07
7.62524e-05
3.73675e-07
7.63116e-05
3.83045e-07
7.63836e-05
3.35175e-07
7.64702e-05
2.42426e-07
7.65675e-05
1.21803e-07
7.66856e-05
-1.31434e-08
7.68272e-05
-1.49533e-07
8.11848e-05
-2.64204e-07
7.0912e-05
-3.70151e-07
6.19791e-05
-4.61759e-07
5.42e-05
-5.35276e-07
4.73888e-05
-5.8863e-07
4.146e-05
-6.21063e-07
3.62819e-05
-6.32394e-07
3.17106e-05
-6.23417e-07
2.75892e-05
-5.96504e-07
2.37716e-05
-5.49737e-07
2.00143e-05
-4.64729e-07
1.64491e-05
-3.29415e-07
1.31244e-05
-1.63751e-07
9.59038e-06
9.95727e-08
6.2557e-05
2.56177e-07
6.96323e-05
3.27824e-07
7.62983e-05
3.30746e-07
7.63639e-05
2.77266e-07
7.64415e-05
1.77262e-07
7.65354e-05
4.5201e-08
7.66441e-05
-1.06489e-07
7.6779e-05
-2.65821e-07
7.69435e-05
-4.18609e-07
8.13392e-05
-5.3881e-07
7.10806e-05
-6.433e-07
6.21607e-05
-7.27271e-07
5.4392e-05
-7.8762e-07
4.75878e-05
-8.23365e-07
4.16623e-05
-8.34108e-07
3.64836e-05
-8.20186e-07
3.19074e-05
-7.83341e-07
2.7776e-05
-7.25919e-07
2.39478e-05
-6.45571e-07
2.01951e-05
-5.2655e-07
1.66462e-05
-3.63202e-07
1.33238e-05
-1.76821e-07
9.7672e-06
8.91473e-08
5.62284e-05
2.28787e-07
6.25844e-05
2.89669e-07
6.96705e-05
2.83166e-07
7.63459e-05
2.24472e-07
7.64167e-05
1.17762e-07
7.6501e-05
-2.50294e-08
7.66056e-05
-1.92752e-07
7.67303e-05
-3.74356e-07
7.68875e-05
-5.56459e-07
7.70814e-05
-7.23413e-07
8.15238e-05
-8.44959e-07
7.12823e-05
-9.43269e-07
6.23766e-05
-1.01425e-06
5.46186e-05
-1.05626e-06
4.78207e-05
-1.06895e-06
4.18972e-05
-1.05273e-06
3.67162e-05
-1.00925e-06
3.21333e-05
-9.40937e-07
2.79911e-05
-8.50633e-07
2.41529e-05
-7.35688e-07
2.04043e-05
-5.83589e-07
1.68666e-05
-3.93688e-07
1.35407e-05
-1.88319e-07
9.95551e-06
8.06871e-08
5.05405e-05
2.06392e-07
5.62508e-05
2.58244e-07
6.26158e-05
2.4372e-07
6.97099e-05
1.76832e-07
7.63935e-05
6.41604e-08
7.64703e-05
-8.83709e-08
7.65643e-05
-2.71069e-07
7.66839e-05
-4.73939e-07
7.68299e-05
-6.84466e-07
7.70155e-05
-8.87674e-07
7.72456e-05
-1.06529e-06
8.17441e-05
-1.183e-06
7.1522e-05
-1.26903e-06
6.26314e-05
-1.32112e-06
5.48835e-05
-1.33857e-06
4.80903e-05
-1.32216e-06
4.21666e-05
-1.27396e-06
3.69809e-05
-1.19666e-06
3.2389e-05
-1.0939e-06
2.82343e-05
-9.68783e-07
2.4386e-05
-8.19029e-07
2.06397e-05
-6.35274e-07
1.71082e-05
-4.20625e-07
1.3773e-05
-1.98141e-07
1.01537e-05
7.37383e-08
4.54269e-05
1.87929e-07
5.05589e-05
2.32215e-07
5.62768e-05
2.11434e-07
6.26481e-05
1.37818e-07
6.9749e-05
1.65986e-08
7.64411e-05
-1.44466e-07
7.65264e-05
-3.40761e-07
7.6634e-05
-5.63522e-07
7.67735e-05
-8.01219e-07
7.69467e-05
-1.03965e-06
7.71675e-05
-1.26093e-06
7.74413e-05
-1.44468e-06
8.20058e-05
-1.55169e-06
7.18047e-05
-1.61875e-06
6.2929e-05
-1.64488e-06
5.51898e-05
-1.63082e-06
4.8399e-05
-1.57948e-06
4.24721e-05
-1.4943e-06
3.72785e-05
-1.37956e-06
3.26746e-05
-1.23973e-06
2.85053e-05
-1.07879e-06
2.46457e-05
-8.94661e-07
2.08991e-05
-6.81025e-07
1.73686e-05
-4.43762e-07
1.40186e-05
-2.06201e-07
1.03599e-05
6.79713e-08
4.08318e-05
1.72592e-07
4.54423e-05
2.10533e-07
5.05806e-05
1.84898e-07
5.63034e-05
1.06376e-07
6.26796e-05
-2.15118e-08
6.97871e-05
-1.93078e-07
7.64897e-05
-4.01336e-07
7.65869e-05
-6.42247e-07
7.67128e-05
-9.05455e-07
7.68777e-05
-1.17766e-06
7.70847e-05
-1.44151e-06
7.7348e-05
-1.67678e-06
7.76734e-05
-1.86017e-06
8.23143e-05
-1.949e-06
7.21349e-05
-1.98906e-06
6.32732e-05
-1.98126e-06
5.55402e-05
-1.92895e-06
4.87485e-05
-1.83684e-06
4.28146e-05
-1.71028e-06
3.76093e-05
-1.55481e-06
3.29897e-05
-1.37632e-06
2.88028e-05
-1.17907e-06
2.49301e-05
-9.61805e-07
2.11799e-05
-7.20412e-07
1.76452e-05
-4.62917e-07
1.42753e-05
-2.12488e-07
1.05723e-05
6.31409e-08
3.67008e-05
1.59758e-07
4.08446e-05
1.92372e-07
4.54604e-05
1.62995e-07
5.06025e-05
8.09969e-08
5.63288e-05
-5.14258e-08
6.27095e-05
-2.30822e-07
6.98248e-05
-4.52447e-07
7.65408e-05
-7.09461e-07
7.66542e-05
-9.96105e-07
7.68034e-05
-1.30018e-06
7.70003e-05
-1.60503e-06
7.72482e-05
-1.89077e-06
7.7562e-05
-2.13374e-06
7.79469e-05
-2.30957e-06
8.26748e-05
-2.37119e-06
7.25171e-05
-2.37515e-06
6.36671e-05
-2.32563e-06
5.59369e-05
-2.22822e-06
4.91398e-05
-2.09004e-06
4.31944e-05
-1.9181e-06
3.79725e-05
-1.71974e-06
3.33331e-05
-1.5016e-06
2.91253e-05
-1.26854e-06
2.52369e-05
-1.01986e-06
2.14793e-05
-7.53201e-07
1.79355e-05
-4.78046e-07
1.45409e-05
-2.16987e-07
1.07893e-05
5.90626e-08
3.29901e-05
1.48947e-07
3.67116e-05
1.77078e-07
4.08599e-05
1.44836e-07
4.54786e-05
6.04678e-08
5.0623e-05
-7.48284e-08
5.63522e-05
-2.59296e-07
6.2738e-05
-4.90676e-07
6.9863e-05
-7.64695e-07
7.6596e-05
-1.07233e-06
7.67304e-05
-1.4059e-06
7.69091e-05
-1.74968e-06
7.71449e-05
-2.08427e-06
7.74417e-05
-2.3859e-06
7.78142e-05
-2.62955e-06
7.82669e-05
-2.78883e-06
8.30925e-05
-2.81285e-06
7.29548e-05
-2.77171e-06
6.41132e-05
-2.67244e-06
5.63811e-05
-2.52363e-06
4.95734e-05
-2.33458e-06
4.36109e-05
-2.11451e-06
3.83673e-05
-1.87177e-06
3.37033e-05
-1.61397e-06
2.94708e-05
-1.34635e-06
2.55634e-05
-1.06845e-06
2.17946e-05
-7.79324e-07
1.82368e-05
-4.89163e-07
1.48131e-05
-2.1986e-07
1.10092e-05
5.55946e-08
2.96515e-05
1.39783e-07
3.29992e-05
1.64129e-07
3.67246e-05
1.29711e-07
4.0875e-05
4.38188e-08
4.54953e-05
-9.30807e-08
5.06413e-05
-2.80494e-07
5.63734e-05
-5.18087e-07
6.27654e-05
-8.04409e-07
6.99028e-05
-1.13351e-06
7.66572e-05
-1.49375e-06
7.68182e-05
-1.87382e-06
7.70333e-05
-2.2551e-06
7.73157e-05
-2.61389e-06
7.76697e-05
-2.92474e-06
7.81094e-05
-3.15993e-06
7.8638e-05
-3.29187e-06
8.35715e-05
-3.26798e-06
7.3451e-05
-3.17237e-06
6.46131e-05
-3.01595e-06
5.68734e-05
-2.80999e-06
5.00488e-05
-2.56661e-06
4.4063e-05
-2.29634e-06
3.87919e-05
-2.00882e-06
3.40982e-05
-1.71223e-06
2.98366e-05
-1.41189e-06
2.59068e-05
-1.10744e-06
2.21227e-05
-7.98836e-07
1.85465e-05
-4.96485e-07
1.50897e-05
-2.20838e-07
1.123e-05
5.26274e-08
2.6651e-05
1.3197e-07
2.96593e-05
1.53112e-07
3.30103e-05
1.17055e-07
3.67372e-05
3.02758e-08
4.08886e-05
-1.07273e-07
4.55094e-05
-2.96025e-07
5.06568e-05
-5.37108e-07
5.63924e-05
-8.3126e-07
6.27922e-05
-1.17586e-06
6.99451e-05
-1.56292e-06
7.67264e-05
-1.97614e-06
7.69205e-05
-2.40129e-06
7.71795e-05
-2.8151e-06
7.75169e-05
-3.19186e-06
7.79368e-05
-3.50279e-06
7.84522e-05
-3.71829e-06
7.90644e-05
-3.8121e-06
8.41156e-05
-3.7294e-06
7.40081e-05
-3.57063e-06
6.51678e-05
-3.35011e-06
5.74136e-05
-3.08271e-06
5.05649e-05
-2.78227e-06
4.45489e-05
-2.46097e-06
3.9244e-05
-2.12925e-06
3.45152e-05
-1.79549e-06
3.02202e-05
-1.46487e-06
2.62643e-05
-1.13693e-06
2.24608e-05
-8.12003e-07
1.8862e-05
-4.99803e-07
1.53686e-05
-2.72575e-07
1.15026e-05
5.0074e-08
2.39566e-05
1.25274e-07
2.66577e-05
1.43695e-07
2.96687e-05
1.06414e-07
3.30209e-05
1.92232e-08
3.67483e-05
-1.18272e-07
4.08996e-05
-3.07172e-07
4.55206e-05
-5.49691e-07
5.06694e-05
-8.48227e-07
5.64093e-05
-1.20277e-06
6.28191e-05
-1.60927e-06
6.99915e-05
-2.05557e-06
7.68058e-05
-2.52119e-06
7.70404e-05
-2.98717e-06
7.73515e-05
-3.42784e-06
7.77529e-05
-3.81361e-06
7.82477e-05
-4.11313e-06
7.88471e-05
-4.29763e-06
7.955e-05
-4.34155e-06
8.47278e-05
-4.18981e-06
7.46272e-05
-3.95948e-06
6.57772e-05
-3.66954e-06
5.80004e-05
-3.33715e-06
5.11198e-05
-2.97832e-06
4.50663e-05
-2.60631e-06
3.97211e-05
-2.23187e-06
3.49516e-05
-1.8633e-06
3.06187e-05
-1.50541e-06
2.66327e-05
-1.15725e-06
2.2806e-05
-8.18795e-07
1.9181e-05
-6.1794e-07
1.5714e-05
-2.68851e-07
1.17714e-05
4.78664e-08
2.15342e-05
1.19506e-07
2.39623e-05
1.35611e-07
2.66657e-05
9.74299e-08
2.96777e-05
1.01716e-08
3.303e-05
-1.26767e-07
3.67568e-05
-3.14954e-07
4.09073e-05
-5.57391e-07
4.55283e-05
-8.57708e-07
5.06789e-05
-1.21789e-06
5.64245e-05
-1.637e-06
6.28469e-05
-2.10747e-06
7.00434e-05
-2.61347e-06
7.68981e-05
-3.12804e-06
7.71813e-05
-3.62984e-06
7.75535e-05
-4.0888e-06
7.80281e-05
-4.47206e-06
7.86066e-05
-4.7485e-06
7.92979e-05
-4.88939e-06
8.00978e-05
-4.87201e-06
8.541e-05
-4.64107e-06
7.53088e-05
-4.33257e-06
6.64402e-05
-3.96868e-06
5.86319e-05
-3.56936e-06
5.17109e-05
-3.15216e-06
4.56121e-05
-2.73078e-06
4.022e-05
-2.31599e-06
3.54043e-05
-1.91568e-06
3.10289e-05
-1.53382e-06
2.70093e-05
-1.16857e-06
2.31558e-05
-1.0138e-06
1.95768e-05
-6.10145e-07
1.60553e-05
-2.62532e-07
1.2034e-05
4.595e-08
1.93539e-05
1.14519e-07
2.15392e-05
1.28642e-07
2.39693e-05
8.98109e-08
2.66734e-05
2.73348e-09
2.96851e-05
-1.333e-07
3.30365e-05
-3.20171e-07
3.6762e-05
-5.61433e-07
4.09114e-05
-8.61606e-07
4.55322e-05
-1.22417e-06
5.06852e-05
-1.65059e-06
5.64381e-05
-2.13696e-06
6.28763e-05
-2.67273e-06
7.01026e-05
-3.23603e-06
7.70061e-05
-3.79538e-06
7.73468e-05
-4.32498e-06
7.77897e-05
-4.79087e-06
7.83469e-05
-5.15975e-06
7.90178e-05
-5.3998e-06
7.98084e-05
-5.48452e-06
8.07103e-05
-5.39417e-06
8.61631e-05
-5.07583e-06
7.60521e-05
-4.6834e-06
6.71549e-05
-4.24282e-06
5.93054e-05
-3.77618e-06
5.23349e-05
-3.30176e-06
4.61831e-05
-2.83343e-06
4.07374e-05
-2.38152e-06
3.58701e-05
-1.95292e-06
3.1448e-05
-1.55043e-06
2.73912e-05
-1.44877e-06
2.35908e-05
-1.0022e-06
1.99689e-05
-5.96825e-07
1.63896e-05
-2.54324e-07
1.22883e-05
1.73977e-05
4.42816e-08
1.10189e-07
1.93582e-05
1.22615e-07
2.15452e-05
8.33231e-08
2.39758e-05
-3.39961e-09
2.66795e-05
-1.38297e-07
2.96901e-05
-3.23447e-07
3.30398e-05
-5.62774e-07
3.67633e-05
-8.61416e-07
4.09112e-05
-1.22394e-06
4.5532e-05
-1.65365e-06
5.06882e-05
-2.14949e-06
5.64506e-05
-2.70518e-06
6.29088e-05
-3.3048e-06
7.01714e-05
-3.92234e-06
7.7133e-05
-4.51915e-06
7.7541e-05
-5.06558e-06
7.80644e-05
-5.52656e-06
7.87137e-05
-5.86723e-06
7.94853e-05
-6.05735e-06
8.03812e-05
-6.07277e-06
8.13889e-05
-5.89964e-06
8.69869e-05
-5.48653e-06
7.68552e-05
-5.00636e-06
6.79185e-05
-4.48813e-06
6.00173e-05
-3.95505e-06
5.29882e-05
-3.42585e-06
4.67755e-05
-2.91402e-06
4.12699e-05
-2.42868e-06
3.63459e-05
-1.97543e-06
3.1873e-05
-1.92417e-06
2.78666e-05
-1.43382e-06
2.40224e-05
-9.81736e-07
2.03538e-05
-5.79226e-07
1.67145e-05
-2.44715e-07
1.2533e-05
1.74014e-05
1.06415e-07
2.78129e-05
4.14277e-08
1.17386e-07
1.93635e-05
7.77785e-08
2.15508e-05
-8.47386e-09
2.39808e-05
-1.42094e-07
2.66833e-05
-3.25269e-07
2.96919e-05
-5.62156e-07
3.30391e-05
-8.583e-07
3.67602e-05
-1.21904e-06
4.09063e-05
-1.64903e-06
4.55273e-05
-2.14943e-06
5.06882e-05
-2.71732e-06
5.64627e-05
-3.34167e-06
6.29457e-05
-4.00313e-06
7.02522e-05
-4.6687e-06
7.72826e-05
-5.29261e-06
7.7768e-05
-5.84429e-06
7.83821e-05
-6.28619e-06
7.91327e-05
-6.58433e-06
8.00122e-05
-6.71009e-06
8.10185e-05
-6.64488e-06
8.21341e-05
-6.37965e-06
8.788e-05
-5.86655e-06
7.77154e-05
-5.29684e-06
6.87272e-05
-4.70142e-06
6.07637e-05
-4.10432e-06
5.36666e-05
-3.52402e-06
4.73855e-05
-2.97264e-06
4.18139e-05
-2.45794e-06
3.68284e-05
-2.45353e-06
3.24024e-05
-1.90624e-06
2.8339e-05
-1.40622e-06
2.44469e-05
-9.54215e-07
2.07288e-05
-5.58368e-07
1.70281e-05
-2.34059e-07
1.27671e-05
1.7406e-05
1.12838e-07
2.78193e-05
9.99728e-08
2.85528e-05
3.86667e-08
7.30245e-08
1.93682e-05
-1.26846e-08
2.1555e-05
-1.44952e-07
2.39837e-05
-3.26013e-07
2.6684e-05
-5.60148e-07
2.96899e-05
-8.53152e-07
3.3034e-05
-1.21089e-06
3.67521e-05
-1.63898e-06
4.08962e-05
-2.14025e-06
4.55182e-05
-2.71441e-06
5.06852e-05
-3.35436e-06
5.64754e-05
-4.04627e-06
6.29888e-05
-4.76444e-06
7.03479e-05
-5.46875e-06
7.74587e-05
-6.10866e-06
7.80324e-05
-6.65135e-06
7.87473e-05
-7.05931e-06
7.96077e-05
-7.29937e-06
8.06015e-05
-7.34797e-06
8.17216e-05
-7.191e-06
8.29455e-05
-6.82649e-06
8.88399e-05
-6.21034e-06
7.86289e-05
-5.55093e-06
6.95767e-05
-4.88057e-06
6.15399e-05
-4.22333e-06
5.43659e-05
-3.59621e-06
4.80091e-05
-3.00984e-06
4.23658e-05
-3.05475e-06
3.74296e-05
-2.43283e-06
3.2929e-05
-1.8715e-06
2.88043e-05
-1.36843e-06
2.48611e-05
-9.21221e-07
2.10916e-05
-5.35058e-07
1.73291e-05
-2.22674e-07
1.29898e-05
1.74101e-05
6.89351e-08
2.78265e-05
1.05672e-07
2.8559e-05
9.36993e-08
2.93127e-05
3.60015e-08
-1.6188e-08
1.93717e-05
-1.47078e-07
2.15571e-05
-3.25968e-07
2.39837e-05
-5.57186e-07
2.66811e-05
-8.46654e-07
2.96834e-05
-1.20057e-06
3.30237e-05
-1.62523e-06
3.67383e-05
-2.12468e-06
4.08807e-05
-2.70064e-06
4.55044e-05
-3.34912e-06
5.068e-05
-4.0608e-06
5.64899e-05
-4.8161e-06
6.30405e-05
-5.58279e-06
7.0462e-05
-6.3158e-06
7.76659e-05
-6.95767e-06
7.83387e-05
-7.47619e-06
7.91642e-05
-7.83374e-06
8.0142e-05
-8.00158e-06
8.12551e-05
-7.96016e-06
8.24907e-05
-7.70238e-06
8.38214e-05
-7.23353e-06
8.98631e-05
-6.51316e-06
7.95911e-05
-5.76592e-06
7.0462e-05
-5.02462e-06
6.23412e-05
-4.31183e-06
5.50816e-05
-3.64297e-06
4.86422e-05
-3.74283e-06
4.30539e-05
-3.03132e-06
3.80281e-05
-2.39079e-06
3.34482e-05
-1.82312e-06
2.9259e-05
-1.32262e-06
2.52625e-05
-8.84078e-07
2.14407e-05
-5.10046e-07
1.76165e-05
-2.10867e-07
1.32006e-05
1.7413e-05
-1.91105e-08
2.78319e-05
6.35423e-08
2.8566e-05
9.87471e-08
2.93188e-05
8.76018e-08
3.00906e-05
3.34339e-08
-1.48632e-07
1.93733e-05
-3.25356e-07
2.15565e-05
-5.536e-07
2.39801e-05
-8.39322e-07
2.66737e-05
-1.1889e-06
2.96718e-05
-1.60909e-06
3.30075e-05
-2.10482e-06
3.67185e-05
-2.67929e-06
4.08593e-05
-3.33094e-06
4.54862e-05
-4.05405e-06
5.06733e-05
-4.83414e-06
5.6508e-05
-5.64571e-06
6.31034e-05
-6.45201e-06
7.05982e-05
-7.20051e-06
7.79087e-05
-7.82914e-06
7.86917e-05
-8.30636e-06
7.96368e-05
-8.59822e-06
8.07387e-05
-8.67931e-06
8.19743e-05
-8.53692e-06
8.33253e-05
-8.17138e-06
8.47592e-05
-7.59499e-06
9.09449e-05
-6.7716e-06
8.05968e-05
-5.94046e-06
7.13779e-05
-5.13311e-06
6.31625e-05
-4.37038e-06
5.5809e-05
-4.53292e-06
4.94323e-05
-3.71682e-06
4.37394e-05
-2.98151e-06
3.86188e-05
-2.33127e-06
3.39564e-05
-1.76388e-06
2.97002e-05
-1.2707e-06
2.56491e-05
-8.44005e-07
2.17746e-05
-4.84007e-07
1.78897e-05
-1.98893e-07
1.33995e-05
1.74141e-05
-1.49742e-07
2.78336e-05
-2.0881e-08
2.85711e-05
5.84276e-08
2.93255e-05
9.2055e-08
3.00965e-05
8.16806e-08
3.08905e-05
3.09643e-08
-3.24347e-07
1.93723e-05
-5.49636e-07
2.15525e-05
-8.31539e-07
2.39723e-05
-1.17651e-06
2.66614e-05
-1.59158e-06
2.96543e-05
-2.08227e-06
3.2985e-05
-2.65291e-06
3.66921e-05
-3.30375e-06
4.08321e-05
-4.03193e-06
4.54641e-05
-4.82711e-06
5.06662e-05
-5.66943e-06
5.65317e-05
-6.52944e-06
6.31808e-05
-7.36318e-06
7.07608e-05
-8.11264e-06
7.81922e-05
-8.71054e-06
7.90959e-05
-9.13024e-06
8.01688e-05
-9.34034e-06
8.13997e-05
-9.32189e-06
8.27593e-05
-9.06962e-06
8.42235e-05
-8.5912e-06
8.57554e-05
-7.90655e-06
9.20799e-05
-6.98375e-06
8.16401e-05
-6.07379e-06
7.23186e-05
-5.20647e-06
6.39986e-05
-5.44182e-06
5.67179e-05
-4.50478e-06
5.02203e-05
-3.65871e-06
4.44166e-05
-2.90987e-06
3.91974e-05
-2.25771e-06
3.44502e-05
-1.69632e-06
3.01258e-05
-1.21441e-06
2.60195e-05
-8.02107e-07
2.20927e-05
-4.57493e-07
1.81483e-05
-1.86959e-07
1.35865e-05
1.74128e-05
-3.2307e-07
2.783e-05
-1.46084e-07
2.85725e-05
-2.22748e-08
2.93303e-05
5.36095e-08
3.01029e-05
8.56118e-08
3.08962e-05
7.59445e-08
3.17104e-05
2.85907e-08
-5.45479e-07
1.93681e-05
-8.23588e-07
2.15446e-05
-1.16385e-06
2.39596e-05
-1.57343e-06
2.66432e-05
-2.05825e-06
2.96302e-05
-2.62342e-06
3.29555e-05
-3.27058e-06
3.66589e-05
-3.99907e-06
4.07993e-05
-4.80185e-06
4.54388e-05
-5.66376e-06
5.06606e-05
-6.56152e-06
5.65638e-05
-7.45887e-06
6.32765e-05
-8.30646e-06
7.09547e-05
-9.0398e-06
7.85215e-05
-9.59009e-06
7.95557e-05
-9.93488e-06
8.07634e-05
-1.00487e-05
8.21265e-05
-9.91978e-06
8.36094e-05
-9.55044e-06
8.51828e-05
-8.9566e-06
8.68055e-05
-8.16557e-06
9.32617e-05
-7.14834e-06
8.27147e-05
-6.16614e-06
7.32782e-05
-6.48839e-06
6.50452e-05
-5.41255e-06
5.76257e-05
-4.43797e-06
5.09995e-05
-3.57379e-06
4.50805e-05
-2.82056e-06
3.97603e-05
-2.17331e-06
3.49272e-05
-1.62274e-06
3.05342e-05
-1.15532e-06
2.63727e-05
-7.59286e-07
2.23945e-05
-4.30961e-07
1.83923e-05
-1.75237e-07
1.37617e-05
1.74086e-05
-5.41264e-07
2.7819e-05
-3.12145e-07
2.85683e-05
-1.41929e-07
2.93313e-05
-2.32924e-08
3.01075e-05
4.90871e-08
3.09024e-05
7.94157e-08
3.17159e-05
7.03999e-08
3.25543e-05
2.63185e-08
-8.15677e-07
1.93602e-05
-1.15126e-06
2.1532e-05
-1.5552e-06
2.39414e-05
-2.03366e-06
2.66186e-05
-2.59229e-06
2.95991e-05
-3.23375e-06
3.29187e-05
-3.95907e-06
3.66189e-05
-4.76381e-06
4.07612e-05
-5.63661e-06
4.54117e-05
-6.55939e-06
5.06584e-05
-7.50254e-06
5.66075e-05
-8.42466e-06
6.33947e-05
-9.26977e-06
7.11846e-05
-9.97028e-06
7.89017e-05
-1.04545e-05
8.00753e-05
-1.07082e-05
8.14229e-05
-1.07128e-05
8.29195e-05
-1.04642e-05
8.45232e-05
-9.97333e-06
8.61995e-05
-9.26429e-06
8.79042e-05
-8.37023e-06
9.44836e-05
-7.26532e-06
8.38138e-05
-7.69232e-06
7.44822e-05
-6.45977e-06
6.60924e-05
-5.33696e-06
5.85246e-05
-4.33858e-06
5.17643e-05
-3.467e-06
4.57269e-05
-2.71752e-06
4.03045e-05
-2.08099e-06
3.53855e-05
-1.54525e-06
3.09241e-05
-1.09476e-06
2.67082e-05
-7.16299e-07
2.26799e-05
-4.04801e-07
1.86218e-05
-1.63836e-07
1.39255e-05
1.74009e-05
-8.07949e-07
2.77988e-05
-5.2107e-07
2.85567e-05
-3.00536e-07
2.93266e-05
-1.37235e-07
3.01081e-05
-2.39176e-08
3.09066e-05
4.48616e-08
3.17219e-05
7.34702e-08
3.25596e-05
6.50381e-08
3.34202e-05
2.41419e-08
-1.13895e-06
1.93479e-05
-1.53727e-06
2.1514e-05
-2.00916e-06
2.39169e-05
-2.56063e-06
2.6587e-05
-3.19504e-06
2.95604e-05
-3.91471e-06
3.28743e-05
-4.71723e-06
3.65723e-05
-5.59429e-06
4.07189e-05
-6.53207e-06
4.53844e-05
-7.50667e-06
5.06626e-05
-8.48369e-06
5.66665e-05
-9.41517e-06
6.35401e-05
-1.02416e-05
7.1456e-05
-1.08906e-05
7.93378e-05
-1.12911e-05
8.06582e-05
-1.1439e-05
8.21491e-05
-1.13231e-05
8.37784e-05
-1.09481e-05
8.5498e-05
-1.03341e-05
8.72693e-05
-9.51185e-06
8.90458e-05
-8.52009e-06
9.57384e-05
-9.07555e-06
8.51971e-05
-7.66728e-06
7.56897e-05
-6.37575e-06
6.71312e-05
-5.22198e-06
5.9408e-05
-4.2124e-06
5.25097e-05
-3.3431e-06
4.63525e-05
-2.60434e-06
4.08278e-05
-1.98343e-06
3.58237e-05
-1.46558e-06
3.12949e-05
-1.0338e-06
2.70257e-05
-6.73797e-07
2.29489e-05
-3.79262e-07
1.88372e-05
-1.52858e-07
1.40784e-05
1.7389e-05
-1.12711e-06
2.7767e-05
-7.76148e-07
2.85357e-05
-5.00017e-07
2.93143e-05
-2.88278e-07
3.01029e-05
-1.32063e-07
3.09069e-05
-2.41667e-08
3.17258e-05
4.09332e-08
3.25653e-05
6.77739e-08
3.34253e-05
5.98703e-08
3.43061e-05
2.20602e-08
-1.51992e-06
1.93306e-05
-1.98521e-06
2.14901e-05
-2.5292e-06
2.38855e-05
-3.15575e-06
2.65477e-05
-3.86809e-06
2.95138e-05
-4.66538e-06
3.28225e-05
-5.54173e-06
3.65198e-05
-6.4868e-06
4.06736e-05
-7.48145e-06
4.53592e-05
-8.49738e-06
5.06762e-05
-9.49386e-06
5.67452e-05
-1.04193e-05
6.37177e-05
-1.12086e-05
7.17741e-05
-1.17878e-05
7.98345e-05
-1.20882e-05
8.13074e-05
-1.21168e-05
8.29428e-05
-1.18714e-05
8.47016e-05
-1.13665e-05
8.65304e-05
-1.06297e-05
8.83872e-05
-9.69829e-06
9.0224e-05
-1.06618e-05
9.73246e-05
-9.05945e-06
8.65892e-05
-7.57633e-06
7.68903e-05
-6.24435e-06
6.81536e-05
-5.07438e-06
6.027e-05
-4.06513e-06
5.32317e-05
-3.20646e-06
4.69546e-05
-2.48434e-06
4.13287e-05
-1.88283e-06
3.62409e-05
-1.3852e-06
3.16463e-05
-9.73396e-07
2.73253e-05
-6.32197e-07
2.32018e-05
-3.54587e-07
1.9039e-05
-1.42371e-07
1.42208e-05
1.73725e-05
-1.50333e-06
2.77212e-05
-1.08131e-06
2.85028e-05
-7.43274e-07
2.92924e-05
-4.78054e-07
3.009e-05
-2.75329e-07
3.09012e-05
-1.26385e-07
3.17257e-05
-2.40349e-08
3.2569e-05
3.73066e-08
3.34308e-05
6.2333e-08
3.43111e-05
5.4892e-08
3.522e-05
2.00745e-08
-1.96215e-06
1.93075e-05
-2.49858e-06
2.14595e-05
-3.11683e-06
2.38465e-05
-3.82076e-06
2.65003e-05
-4.61074e-06
2.94591e-05
-5.48275e-06
3.27635e-05
-6.42928e-06
3.64622e-05
-7.43509e-06
4.06273e-05
-8.47708e-06
4.53389e-05
-9.52095e-06
5.07033e-05
-1.05224e-05
5.68483e-05
-1.14238e-05
6.3933e-05
-1.21578e-05
7.2144e-05
-1.26498e-05
8.0396e-05
-1.28344e-05
8.20251e-05
-1.27325e-05
8.38039e-05
-1.23519e-05
8.5687e-05
-1.17154e-05
8.76161e-05
-1.08583e-05
8.95472e-05
-1.21591e-05
9.17213e-05
-1.06636e-05
9.89288e-05
-8.96532e-06
8.79782e-05
-7.42876e-06
7.80747e-05
-6.07351e-06
6.91527e-05
-4.90095e-06
6.11058e-05
-3.90199e-06
5.39273e-05
-3.06109e-06
4.75314e-05
-2.36025e-06
4.18061e-05
-1.78108e-06
3.66368e-05
-1.30538e-06
3.19783e-05
-9.14148e-07
2.76072e-05
-5.91904e-07
2.34391e-05
-3.30934e-07
1.92275e-05
-1.32405e-07
1.43532e-05
1.73505e-05
-1.94019e-06
2.76584e-05
-1.44053e-06
2.84556e-05
-1.03419e-06
2.92585e-05
-7.09369e-07
3.00672e-05
-4.55253e-07
3.08876e-05
-2.61749e-07
3.17195e-05
-1.20228e-07
3.25685e-05
-2.35387e-08
3.34341e-05
3.39668e-08
3.43163e-05
5.71401e-08
3.52248e-05
5.00988e-08
3.61559e-05
1.81804e-08
-2.46916e-06
1.92781e-05
-3.07895e-06
2.14216e-05
-3.77388e-06
2.37997e-05
-4.55518e-06
2.64448e-05
-5.4203e-06
2.93967e-05
-6.36393e-06
3.26981e-05
-7.3741e-06
3.64012e-05
-8.43203e-06
4.05822e-05
-9.50898e-06
4.53269e-05
-1.05673e-05
5.07482e-05
-1.15564e-05
5.69809e-05
-1.24159e-05
6.41911e-05
-1.30766e-05
7.25708e-05
-1.34644e-05
8.1026e-05
-1.35199e-05
8.28125e-05
-1.32794e-05
8.47314e-05
-1.27597e-05
8.67313e-05
-1.19924e-05
8.87502e-05
-1.36423e-05
9.10304e-05
-1.21866e-05
9.32443e-05
-1.0573e-05
0.000100536
-8.80351e-06
8.9353e-05
-7.23375e-06
7.92349e-05
-5.87125e-06
7.0123e-05
-4.70793e-06
6.19118e-05
-3.7278e-06
5.4594e-05
-2.91035e-06
4.80815e-05
-2.23445e-06
4.22595e-05
-1.67983e-06
3.70112e-05
-1.22695e-06
3.22911e-05
-8.56655e-07
2.7872e-05
-5.53192e-07
2.36614e-05
-3.08385e-07
1.94035e-05
-1.22987e-07
1.44762e-05
1.73225e-05
-2.44119e-06
2.75755e-05
-1.85722e-06
2.83911e-05
-1.37597e-06
2.92098e-05
-9.85502e-07
3.00321e-05
-6.74269e-07
3.0864e-05
-4.31614e-07
3.17053e-05
-2.47572e-07
3.25618e-05
-1.13611e-07
3.34333e-05
-2.26859e-08
3.43193e-05
3.09163e-08
3.52297e-05
5.21935e-08
3.61605e-05
4.54897e-08
3.65898e-05
1.63999e-08
-3.04259e-06
1.92417e-05
-3.72825e-06
2.1376e-05
-4.50005e-06
2.37445e-05
-5.35654e-06
2.6381e-05
-6.29418e-06
2.93269e-05
-7.30358e-06
3.26276e-05
-8.36959e-06
3.63388e-05
-9.46821e-06
4.05414e-05
-1.05676e-05
4.53272e-05
-1.16239e-05
5.08156e-05
-1.25834e-05
5.71483e-05
-1.33829e-05
6.44975e-05
-1.39526e-05
7.30591e-05
-1.42211e-05
8.17272e-05
-1.41371e-05
8.36701e-05
-1.37517e-05
8.57234e-05
-1.30916e-05
8.78305e-05
-1.51031e-05
9.0211e-05
-1.37056e-05
9.25494e-05
-1.2108e-05
9.47793e-05
-1.04015e-05
0.000102134
-8.58443e-06
9.07036e-05
-7.00054e-06
8.03642e-05
-5.64503e-06
7.10601e-05
-4.50113e-06
6.26851e-05
-3.5467e-06
5.52303e-05
-2.75717e-06
4.86042e-05
-2.10899e-06
4.26887e-05
-1.58015e-06
3.73644e-05
-1.15071e-06
3.25851e-05
-8.01327e-07
2.81201e-05
-5.16202e-07
2.38692e-05
-2.87009e-07
1.95675e-05
-1.14131e-07
1.45903e-05
1.7288e-05
-3.00804e-06
2.74689e-05
-2.33466e-06
2.83064e-05
-1.77252e-06
2.91437e-05
-1.30988e-06
2.99821e-05
-9.35588e-07
3.0828e-05
-6.38245e-07
3.16809e-05
-4.07194e-07
3.25471e-05
-2.32783e-07
3.34262e-05
-1.06553e-07
3.43181e-05
-2.14943e-08
3.52325e-05
2.81411e-08
3.61652e-05
4.7484e-08
3.65941e-05
4.11203e-08
3.55536e-05
1.47869e-08
-3.68445e-06
1.91979e-05
-4.44633e-06
2.13223e-05
-5.29311e-06
2.36811e-05
-6.22259e-06
2.63094e-05
-7.22747e-06
2.92508e-05
-8.29556e-06
3.25536e-05
-9.40688e-06
3.62775e-05
-1.05346e-05
4.05085e-05
-1.16409e-05
4.53442e-05
-1.26785e-05
5.09107e-05
-1.35906e-05
5.7356e-05
-1.43122e-05
6.48571e-05
-1.47747e-05
7.36126e-05
-1.49115e-05
8.25016e-05
-1.46791e-05
8.45975e-05
-1.41454e-05
8.67771e-05
-1.65313e-05
8.92587e-05
-1.52136e-05
9.17191e-05
-1.36492e-05
9.40906e-05
-1.19358e-05
9.63137e-05
-1.0161e-05
0.000103711
-8.3188e-06
9.20219e-05
-6.73778e-06
8.14569e-05
-5.40167e-06
7.19606e-05
-4.28553e-06
6.3424e-05
-3.36224e-06
5.58354e-05
-2.60409e-06
4.90993e-05
-1.98524e-06
4.30938e-05
-1.48308e-06
3.76968e-05
-1.07723e-06
3.2861e-05
-7.48379e-07
2.83523e-05
-4.81057e-07
2.40632e-05
-2.66849e-07
1.97203e-05
-1.0584e-07
1.46961e-05
1.72464e-05
-3.64283e-06
2.7336e-05
-2.87513e-06
2.81979e-05
-2.22619e-06
2.90568e-05
-1.68562e-06
2.99145e-05
-1.2422e-06
3.07768e-05
-8.84402e-07
3.16439e-05
-6.01238e-07
3.2522e-05
-3.82107e-07
3.34109e-05
-2.17494e-07
3.43107e-05
-9.90984e-08
3.5231e-05
-1.99853e-08
3.61677e-05
2.56297e-08
3.65986e-05
4.30675e-08
3.55576e-05
3.71431e-08
3.45455e-05
1.33199e-08
-4.39471e-06
1.91463e-05
-5.23117e-06
2.12603e-05
-6.15107e-06
2.36096e-05
-7.14877e-06