/*--------------------------------*- C++ -*----------------------------------*\
  =========                 |
  \\      /  F ield         | OpenFOAM: The Open Source CFD Toolbox
   \\    /   O peration     | Website:  https://openfoam.org
    \\  /    A nd           | Version:  8
     \\/     M anipulation  |
\*---------------------------------------------------------------------------*/
FoamFile
{
    version     2.0;
    format      ascii;
    class       volVectorField;
    location    "1900";
    object      U;
}
// * * * * * * * * * * * * * * * * * * * * * * * * * * * * * * * * * * * * * //

dimensions      [0 1 -1 0 0 0 0];

internalField   nonuniform List<vector> 
15677
(
(-2.53854 9.06392 0)
(0.792668 10.3668 0)
(-1.33223 8.26477 0)
(0.128822 10.0152 0)
(0.667035 10.1117 0)
(-0.415134 7.73385 0)
(0.00638153 10.0051 0)
(-0.0361261 10.0874 0)
(0.294848 9.67997 0)
(-0.084733 7.35006 0)
(0.0282795 10.0104 0)
(0.0130713 10.0516 0)
(-0.0470485 10.0467 0)
(0.0986662 9.29125 0)
(-0.00293661 7.07899 0)
(0.0300784 10.0104 0)
(0.0455392 10.0449 0)
(0.0452353 10.0706 0)
(-0.00451161 9.94006 0)
(0.030367 8.97535 0)
(0.00795625 6.89068 0)
(0.027517 10.0096 0)
(0.039845 10.0407 0)
(0.0439949 10.0629 0)
(0.0508428 10.0623 0)
(0.0199964 9.8021 0)
(0.012603 8.71943 0)
(0.00557146 6.75849 0)
(0.0251607 10.0086 0)
(0.0369711 10.0374 0)
(0.037684 10.0571 0)
(0.0384109 10.0712 0)
(0.0421463 10.0339 0)
(0.0253207 9.65274 0)
(0.00874377 8.51516 0)
(0.00296559 6.66251 0)
(0.0229603 10.0075 0)
(0.0352794 10.0344 0)
(0.0368862 10.053 0)
(0.0371984 10.068 0)
(0.0346783 10.0732 0)
(0.033922 9.99191 0)
(0.0229089 9.50743 0)
(0.0072951 8.35701 0)
(0.00157795 6.59441 0)
(0.0206818 10.0065 0)
(0.0333867 10.0313 0)
(0.0358292 10.0495 0)
(0.0369163 10.0642 0)
(0.0357405 10.0771 0)
(0.0323219 10.0687 0)
(0.0285783 9.9411 0)
(0.0188369 9.37423 0)
(0.0059123 8.23669 0)
(0.000843677 6.54548 0)
(0.0183397 10.0054 0)
(0.0312487 10.0282 0)
(0.0343589 10.0461 0)
(0.0357145 10.0606 0)
(0.0350173 10.0749 0)
(0.0331877 10.0832 0)
(0.0298943 10.0595 0)
(0.0246593 9.88683 0)
(0.0149427 9.25731 0)
(0.00441755 8.14713 0)
(0.000252607 6.51538 0)
(0.0159949 10.0044 0)
(0.0289391 10.025 0)
(0.0326902 10.0427 0)
(0.0343098 10.0572 0)
(0.0337769 10.0717 0)
(0.0322289 10.0843 0)
(0.0301753 10.0876 0)
(0.0269352 10.0481 0)
(0.0210669 9.83244 0)
(0.011447 9.16136 0)
(0.00281932 8.08281 0)
(-0.000277822 6.50271 0)
(0.0137006 10.0036 0)
(0.0264794 10.0217 0)
(0.0308191 10.0392 0)
(0.0327521 10.0538 0)
(0.0324082 10.0683 0)
(0.0310098 10.0822 0)
(0.0292035 10.0934 0)
(0.0268642 10.0916 0)
(0.0234752 10.0366 0)
(0.0173206 9.78164 0)
(0.0081297 9.08641 0)
(0.001188 8.04001 0)
(-0.000735952 6.50408 0)
(0.0115195 10.0028 0)
(0.0238983 10.0184 0)
(0.028716 10.0354 0)
(0.0309756 10.0502 0)
(0.030838 10.0648 0)
(0.029552 10.0791 0)
(0.0278749 10.093 0)
(0.02582 10.1032 0)
(0.0231865 10.0968 0)
(0.019551 10.0266 0)
(0.0132765 9.73729 0)
(0.00487198 9.03189 0)
(-0.00042527 8.01823 0)
(-0.00121421 6.51769 0)
(0.00966591 10.0022 0)
(0.0212326 10.0153 0)
(0.0263801 10.0315 0)
(0.0289437 10.0464 0)
(0.0290303 10.0612 0)
(0.0278294 10.0758 0)
(0.0261733 10.0906 0)
(0.0242145 10.1052 0)
(0.021886 10.1148 0)
(0.0189901 10.1041 0)
(0.015134 10.02 0)
(0.00891568 9.70242 0)
(0.00156364 8.99742 0)
(-0.00212543 8.01604 0)
(-0.00178117 6.54432 0)
(0.00817565 10.0017 0)
(0.0187646 10.0128 0)
(0.0238403 10.0274 0)
(0.0266347 10.0422 0)
(0.026962 10.0572 0)
(0.0258403 10.0721 0)
(0.0241438 10.0874 0)
(0.0221261 10.1037 0)
(0.019844 10.1195 0)
(0.0172292 10.1291 0)
(0.0141145 10.1149 0)
(0.0101532 10.0183 0)
(0.00420592 9.67903 0)
(-0.00192718 8.9826 0)
(-0.0040096 8.03233 0)
(-0.00243646 6.58437 0)
(0.00694558 10.0014 0)
(0.0166061 10.0107 0)
(0.0213858 10.0238 0)
(0.0240486 10.0378 0)
(0.024606 10.0529 0)
(0.0235653 10.0681 0)
(0.0217956 10.0838 0)
(0.0196287 10.1008 0)
(0.0172118 10.1191 0)
(0.0145809 10.1367 0)
(0.0116886 10.1471 0)
(0.00844455 10.1304 0)
(0.00452892 10.0232 0)
(-0.000936847 9.66908 0)
(-0.00568235 8.98687 0)
(-0.00611396 8.06564 0)
(-0.00317243 6.63816 0)
(0.005922 10.0011 0)
(0.0146732 10.009 0)
(0.0191657 10.0208 0)
(0.0214831 10.0337 0)
(0.0219436 10.0482 0)
(0.0209778 10.0637 0)
(0.0191121 10.0797 0)
(0.0167341 10.0972 0)
(0.0140643 10.1167 0)
(0.0112193 10.1377 0)
(0.00823842 10.1578 0)
(0.00514121 10.1697 0)
(0.00188188 10.1517 0)
(-0.00183947 10.0362 0)
(-0.00657228 9.67348 0)
(-0.00974278 9.00949 0)
(-0.00843723 8.11579 0)
(-0.00397779 6.70553 0)
(0.0050642 10.0009 0)
(0.0129428 10.0077 0)
(0.0171154 10.0183 0)
(0.0191289 10.0301 0)
(0.019262 10.0436 0)
(0.0180577 10.0587 0)
(0.0160713 10.0751 0)
(0.0134314 10.093 0)
(0.0104157 10.1131 0)
(0.00721145 10.1357 0)
(0.00392798 10.1602 0)
(0.000657431 10.1836 0)
(-0.00254078 10.1979 0)
(-0.00569394 10.1799 0)
(-0.00901898 10.0587 0)
(-0.012741 9.69328 0)
(-0.0141416 9.04987 0)
(-0.0109541 8.18184 0)
(-0.00484321 6.78619 0)
(0.00434156 10.0007 0)
(0.0113942 10.0066 0)
(0.0152286 10.0161 0)
(0.0169287 10.0269 0)
(0.0167713 10.0395 0)
(0.0151105 10.0537 0)
(0.0126582 10.0699 0)
(0.00970475 10.0882 0)
(0.00625952 10.1087 0)
(0.00257143 10.1322 0)
(-0.00118495 10.1587 0)
(-0.00485918 10.1873 0)
(-0.00832321 10.215 0)
(-0.0115021 10.2328 0)
(-0.0143724 10.216 0)
(-0.0170482 10.0918 0)
(-0.0194576 9.72862 0)
(-0.018879 9.10739 0)
(-0.0136623 8.26341 0)
(-0.00575739 6.87971 0)
(0.00373128 10.0006 0)
(0.0100089 10.0056 0)
(0.0134977 10.0141 0)
(0.0148853 10.0241 0)
(0.0144239 10.0357 0)
(0.0123674 10.0491 0)
(0.00922885 10.0645 0)
(0.00554805 10.0825 0)
(0.00158582 10.1035 0)
(-0.00270585 10.1275 0)
(-0.00709097 10.1551 0)
(-0.0113622 10.1863 0)
(-0.0153367 10.2201 0)
(-0.018871 10.2528 0)
(-0.021854 10.2752 0)
(-0.0242036 10.2609 0)
(-0.0259327 10.1365 0)
(-0.0267132 9.77981 0)
(-0.0239524 9.18146 0)
(-0.0165458 8.35972 0)
(-0.00670272 6.9854 0)
(0.00323272 10.0005 0)
(0.00877194 10.0048 0)
(0.0119154 10.0125 0)
(0.0129983 10.0216 0)
(0.0122339 10.0322 0)
(0.00978265 10.0447 0)
(0.00604917 10.0593 0)
(0.00139809 10.0765 0)
(-0.00360032 10.0973 0)
(-0.0086258 10.1217 0)
(-0.013798 10.15 0)
(-0.0188533 10.1827 0)
(-0.023553 10.2195 0)
(-0.0276991 10.2591 0)
(-0.0311183 10.2979 0)
(-0.033661 10.3258 0)
(-0.035195 10.3155 0)
(-0.0356533 10.1933 0)
(-0.0344916 9.84657 0)
(-0.0293447 9.27126 0)
(-0.0195858 8.47011 0)
(-0.00766653 7.10243 0)
(0.00283869 10.0004 0)
(0.00771592 10.0042 0)
(0.0104753 10.011 0)
(0.0112659 10.0193 0)
(0.0102097 10.0291 0)
(0.00737824 10.0406 0)
(0.00306856 10.0542 0)
(-0.0024276 10.0706 0)
(-0.0087469 10.0905 0)
(-0.0151706 10.1147 0)
(-0.0213091 10.1436 0)
(-0.0273479 10.1771 0)
(-0.0329914 10.2156 0)
(-0.0379832 10.2589 0)
(-0.0421022 10.3053 0)
(-0.0451459 10.3509 0)
(-0.0469401 10.3852 0)
(-0.0473276 10.3802 0)
(-0.0461609 10.2626 0)
(-0.0427547 9.92849 0)
(-0.0350118 9.37595 0)
(-0.0227482 8.59362 0)
(-0.00863687 7.22982 0)
(0.00252562 10.0003 0)
(0.00685513 10.0037 0)
(0.00922425 10.0098 0)
(0.00968544 10.0173 0)
(0.00835577 10.0262 0)
(0.00516928 10.0367 0)
(0.000315683 10.0494 0)
(-0.00598991 10.0648 0)
(-0.0134637 10.0837 0)
(-0.0216351 10.107 0)
(-0.0295928 10.1356 0)
(-0.036849 10.1698 0)
(-0.0436793 10.2095 0)
(-0.0497675 10.2548 0)
(-0.0548386 10.3053 0)
(-0.0586484 10.3593 0)
(-0.0609835 10.4125 0)
(-0.0616706 10.454 0)
(-0.0605381 10.4553 0)
(-0.0573877 10.3446 0)
(-0.0514452 10.0248 0)
(-0.0409046 9.49436 0)
(-0.0259907 8.7291 0)
(-0.00960368 7.36642 0)
(0.00227343 10.0003 0)
(0.00615402 10.0033 0)
(0.00818801 10.0088 0)
(0.00831419 10.0155 0)
(0.0066746 10.0235 0)
(0.00316598 10.0331 0)
(-0.0021874 10.0447 0)
(-0.00925251 10.059 0)
(-0.0178272 10.0768 0)
(-0.0275315 10.0991 0)
(-0.0377481 10.1266 0)
(-0.047311 10.1606 0)
(-0.0556235 10.2011 0)
(-0.0630983 10.2478 0)
(-0.069402 10.3007 0)
(-0.0742459 10.3593 0)
(-0.0773835 10.4216 0)
(-0.078615 10.483 0)
(-0.0777865 10.5325 0)
(-0.0747417 10.5412 0)
(-0.0692305 10.4388 0)
(-0.0604688 10.1348 0)
(-0.0469754 9.62543 0)
(-0.0292811 8.87529 0)
(-0.0105562 7.51104 0)
(0.00206761 10.0003 0)
(0.00557827 10.003 0)
(0.0073319 10.008 0)
(0.00718428 10.014 0)
(0.00523093 10.0211 0)
(0.0013752 10.0297 0)
(-0.00442464 10.0403 0)
(-0.0121854 10.0534 0)
(-0.0217918 10.0699 0)
(-0.0329568 10.0909 0)
(-0.0451611 10.1173 0)
(-0.0575895 10.15 0)
(-0.0687646 10.1904 0)
(-0.0779891 10.2382 0)
(-0.085864 10.2929 0)
(-0.0920527 10.3542 0)
(-0.0962704 10.4216 0)
(-0.0982955 10.4927 0)
(-0.0979692 10.5628 0)
(-0.0951821 10.6208 0)
(-0.0898117 10.6375 0)
(-0.081589 10.5448 0)
(-0.0697393 10.2571 0)
(-0.0531522 9.76791 0)
(-0.0325859 9.03088 0)
(-0.0114811 7.66235 0)
(0.00189771 10.0002 0)
(0.0051017 10.0028 0)
(0.00662067 10.0074 0)
(0.00625756 10.0128 0)
(0.00405825 10.0191 0)
(-0.000132936 10.0267 0)
(-0.00638457 10.036 0)
(-0.0147656 10.0479 0)
(-0.0253181 10.063 0)
(-0.0378539 10.0825 0)
(-0.0519552 10.1074 0)
(-0.0669114 10.1389 0)
(-0.0816607 10.1779 0)
(-0.0943693 10.2256 0)
(-0.104253 10.2818 0)
(-0.112172 10.3452 0)
(-0.117806 10.4158 0)
(-0.120906 10.4925 0)
(-0.121311 10.5729 0)
(-0.11893 10.6521 0)
(-0.113715 10.7188 0)
(-0.105599 10.7441 0)
(-0.0943298 10.662 0)
(-0.0791777 10.3907 0)
(-0.0593625 9.92036 0)
(-0.0358684 9.19443 0)
(-0.01237 7.81907 0)
(0.00175609 10.0002 0)
(0.0047043 10.0026 0)
(0.00602654 10.0068 0)
(0.00549434 10.0118 0)
(0.00311268 10.0174 0)
(-0.00132867 10.0241 0)
(-0.00799009 10.0321 0)
(-0.016976 10.0425 0)
(-0.0283745 10.0562 0)
(-0.0421714 10.074 0)
(-0.0580582 10.0972 0)
(-0.0754335 10.127 0)
(-0.0933433 10.1646 0)
(-0.11044 10.2108 0)
(-0.124487 10.267 0)
(-0.134652 10.3324 0)
(-0.142137 10.4055 0)
(-0.146673 10.4859 0)
(-0.148087 10.5724 0)
(-0.146303 10.6623 0)
(-0.141326 10.7508 0)
(-0.133202 10.8263 0)
(-0.121939 10.8604 0)
(-0.107312 10.7892 0)
(-0.088674 10.5342 0)
(-0.0655407 10.0813 0)
(-0.0390943 9.3645 0)
(-0.013209 7.97979 0)
(0.00163702 10.0002 0)
(0.00437062 10.0024 0)
(0.00552748 10.0063 0)
(0.00486301 10.0109 0)
(0.00234881 10.016 0)
(-0.00226532 10.0218 0)
(-0.00921865 10.0287 0)
(-0.0187296 10.0375 0)
(-0.0309367 10.0494 0)
(-0.0458672 10.0655 0)
(-0.0634038 10.0868 0)
(-0.083065 10.1146 0)
(-0.10401 10.1503 0)
(-0.124994 10.195 0)
(-0.144349 10.2495 0)
(-0.159413 10.3152 0)
(-0.169346 10.3908 0)
(-0.175791 10.4742 0)
(-0.178583 10.5649 0)
(-0.177657 10.6613 0)
(-0.173071 10.761 0)
(-0.164949 10.8586 0)
(-0.153438 10.9428 0)
(-0.13865 10.9858 0)
(-0.1204 10.9256 0)
(-0.0981269 10.6863 0)
(-0.0716246 10.2493 0)
(-0.0422262 9.53957 0)
(-0.014006 8.14335 0)
(0.00153615 10.0002 0)
(0.00408861 10.0023 0)
(0.00510604 10.0059 0)
(0.0043384 10.0102 0)
(0.00173022 10.0148 0)
(-0.00299672 10.0199 0)
(-0.0101391 10.0258 0)
(-0.0200142 10.0332 0)
(-0.0329042 10.0431 0)
(-0.0489075 10.057 0)
(-0.0679361 10.0762 0)
(-0.0897205 10.1017 0)
(-0.113547 10.1351 0)
(-0.138281 10.1777 0)
(-0.16235 10.2306 0)
(-0.183747 10.2947 0)
(-0.199347 10.3708 0)
(-0.208377 10.4573 0)
(-0.213056 10.5516 0)
(-0.213367 10.6528 0)
(-0.209405 10.7595 0)
(-0.201376 10.8687 0)
(-0.189556 10.9752 0)
(-0.174207 11.0678 0)
(-0.15555 11.1193 0)
(-0.133454 11.07 0)
(-0.107439 10.8455 0)
(-0.0775492 10.4227 0)
(-0.0452486 9.71834 0)
(-0.0147166 8.30825 0)
(0.00145012 10.0002 0)
(0.00384884 10.0021 0)
(0.00474832 10.0056 0)
(0.00390043 10.0095 0)
(0.00122787 10.0137 0)
(-0.00356611 10.0182 0)
(-0.0108187 10.0233 0)
(-0.0209208 10.0294 0)
(-0.0342777 10.0375 0)
(-0.0511727 10.049 0)
(-0.0716094 10.0655 0)
(-0.095327 10.0885 0)
(-0.121845 10.1193 0)
(-0.150159 10.1594 0)
(-0.178799 10.21 0)
(-0.205827 10.2723 0)
(-0.228875 10.3468 0)
(-0.244363 10.4343 0)
(-0.251685 10.5323 0)
(-0.253769 10.6379 0)
(-0.2508 10.7499 0)
(-0.243062 10.8665 0)
(-0.230946 10.985 0)
(-0.214884 11.1 0)
(-0.195278 11.2005 0)
(-0.172454 11.26 0)
(-0.146341 11.221 0)
(-0.116519 11.0104 0)
(-0.0832738 10.6003 0)
(-0.0480819 9.89911 0)
(-0.0155601 8.49239 0)
(0.00137631 10.0002 0)
(0.00364385 10.002 0)
(0.0044432 10.0053 0)
(0.00353309 10.009 0)
(0.000818618 10.0128 0)
(-0.00400801 10.0168 0)
(-0.0113116 10.0211 0)
(-0.0215359 10.0261 0)
(-0.0351782 10.0326 0)
(-0.0526798 10.0418 0)
(-0.074278 10.0553 0)
(-0.0998226 10.0751 0)
(-0.12881 10.103 0)
(-0.160489 10.14 0)
(-0.193516 10.1878 0)
(-0.226038 10.2477 0)
(-0.255723 10.3205 0)
(-0.279862 10.4064 0)
(-0.294431 10.506 0)
(-0.299111 10.6162 0)
(-0.297681 10.7332 0)
(-0.290576 10.8559 0)
(-0.278304 10.9822 0)
(-0.261464 11.1094 0)
(-0.240657 11.2323 0)
(-0.216419 11.34 0)
(-0.189184 11.4069 0)
(-0.158931 11.3774 0)
(-0.125294 11.1795 0)
(-0.0887048 10.7802 0)
(-0.0511537 10.1018 0)
(-0.0163858 8.69454 0)
(0.00131266 10.0001 0)
(0.00346776 10.0019 0)
(0.00418179 10.0051 0)
(0.00322356 10.0085 0)
(0.000484064 10.0121 0)
(-0.00434982 10.0156 0)
(-0.0116606 10.0192 0)
(-0.0219287 10.0232 0)
(-0.0357179 10.0283 0)
(-0.0535881 10.0354 0)
(-0.0759776 10.0461 0)
(-0.103027 10.0623 0)
(-0.134358 10.0863 0)
(-0.169149 10.1199 0)
(-0.206329 10.1644 0)
(-0.244158 10.2212 0)
(-0.280359 10.2915 0)
(-0.312218 10.3758 0)
(-0.336709 10.474 0)
(-0.349398 10.5864 0)
(-0.350383 10.709 0)
(-0.344445 10.8375 0)
(-0.332319 10.9705 0)
(-0.314764 11.1061 0)
(-0.292597 11.2414 0)
(-0.266594 11.3713 0)
(-0.237405 11.4853 0)
(-0.205571 11.5587 0)
(-0.171121 11.538 0)
(-0.133659 11.3513 0)
(-0.0944392 10.9825 0)
(-0.0542862 10.3249 0)
(-0.0170589 8.89346 0)
(0.0012573 10.0001 0)
(0.00331579 10.0019 0)
(0.00395697 10.0049 0)
(0.0029616 10.0081 0)
(0.000209606 10.0114 0)
(-0.00461318 10.0145 0)
(-0.0118996 10.0175 0)
(-0.0221541 10.0206 0)
(-0.0359866 10.0245 0)
(-0.0540436 10.0298 0)
(-0.0769161 10.038 0)
(-0.104997 10.0506 0)
(-0.138265 10.0702 0)
(-0.176031 10.0993 0)
(-0.217082 10.1399 0)
(-0.259972 10.193 0)
(-0.302513 10.26 0)
(-0.342002 10.3418 0)
(-0.37536 10.4386 0)
(-0.399279 10.55 0)
(-0.408974 10.6756 0)
(-0.405117 10.8108 0)
(-0.393641 10.9504 0)
(-0.375606 11.0933 0)
(-0.352052 11.2374 0)
(-0.324009 11.38 0)
(-0.292417 11.5161 0)
(-0.258029 11.6355 0)
(-0.221475 11.7146 0)
(-0.182781 11.7013 0)
(-0.142492 11.5448 0)
(-0.100382 11.2058 0)
(-0.0570538 10.545 0)
(-0.0176103 9.08718 0)
(0.00120931 10.0001 0)
(0.00318359 10.0018 0)
(0.00376297 10.0047 0)
(0.00273907 10.0078 0)
(-1.63512e-05 10.0108 0)
(-0.00481515 10.0136 0)
(-0.0120551 10.0161 0)
(-0.022255 10.0184 0)
(-0.0360551 10.0212 0)
(-0.0541629 10.0249 0)
(-0.0772824 10.0308 0)
(-0.106001 10.0403 0)
(-0.140608 10.0555 0)
(-0.180848 10.0793 0)
(-0.225633 10.1146 0)
(-0.273281 10.1633 0)
(-0.321916 10.2263 0)
(-0.368888 10.3047 0)
(-0.411069 10.3992 0)
(-0.445037 10.5095 0)
(-0.467285 10.6346 0)
(-0.472752 10.7737 0)
(-0.462846 10.9212 0)
(-0.444785 11.0716 0)
(-0.419988 11.2237 0)
(-0.389766 11.3755 0)
(-0.355367 11.5244 0)
(-0.317867 11.6656 0)
(-0.278105 11.7895 0)
(-0.23674 11.8729 0)
(-0.195134 11.8853 0)
(-0.151647 11.7588 0)
(-0.105736 11.4264 0)
(-0.0594898 10.7598 0)
(-0.0180618 9.27407 0)
(0.00306823 10.0017 0)
(0.00115126 10.0001 0)
(0.00359406 10.0046 0)
(0.00254951 10.0075 0)
(-0.00020287 10.0103 0)
(-0.00496916 10.0128 0)
(-0.0121477 10.0148 0)
(-0.0222647 10.0165 0)
(-0.0359786 10.0183 0)
(-0.0540377 10.0206 0)
(-0.0772271 10.0244 0)
(-0.106279 10.0311 0)
(-0.141728 10.0424 0)
(-0.183699 10.061 0)
(-0.23162 10.0899 0)
(-0.283905 10.1326 0)
(-0.338322 10.1908 0)
(-0.392545 10.2649 0)
(-0.443446 10.3561 0)
(-0.487491 10.4643 0)
(-0.52098 10.5888 0)
(-0.540305 10.7279 0)
(-0.540217 10.8805 0)
(-0.523023 11.04 0)
(-0.497354 11.2006 0)
(-0.464992 11.361 0)
(-0.427512 11.5196 0)
(-0.386354 11.6737 0)
(-0.342709 11.8191 0)
(-0.297443 11.9461 0)
(-0.252973 12.0515 0)
(-0.207904 12.0892 0)
(-0.159941 11.9707 0)
(-0.110506 11.6424 0)
(-0.0616183 10.9679 0)
(-0.0184233 9.45327 0)
(0.00344441 10.0044 0)
(0.00293254 10.0017 0)
(0.00107959 10.0001 0)
(0.0023864 10.0072 0)
(-0.000356928 10.0099 0)
(-0.00508552 10.0121 0)
(-0.0121936 10.0137 0)
(-0.0222091 10.0148 0)
(-0.0357998 10.0157 0)
(-0.0537394 10.0168 0)
(-0.0768689 10.0188 0)
(-0.106027 10.0229 0)
(-0.141932 10.0308 0)
(-0.185012 10.0446 0)
(-0.235156 10.0673 0)
(-0.29138 10.1025 0)
(-0.351497 10.1538 0)
(-0.412668 10.2228 0)
(-0.472093 10.3095 0)
(-0.526177 10.4145 0)
(-0.571029 10.5373 0)
(-0.602769 10.6766 0)
(-0.617791 10.8299 0)
(-0.610759 10.9958 0)
(-0.585048 11.1668 0)
(-0.550798 11.3367 0)
(-0.510146 11.5044 0)
(-0.46491 11.6685 0)
(-0.416679 11.8269 0)
(-0.366716 11.975 0)
(-0.318057 12.1226 0)
(-0.269758 12.2495 0)
(-0.219511 12.2913 0)
(-0.167375 12.1785 0)
(-0.114712 11.852 0)
(-0.0634468 11.168 0)
(-0.0186985 9.62421 0)
(0.00223971 10.007 0)
(0.00328033 10.0042 0)
(0.00276063 10.0016 0)
(0.00101075 10.0001 3.22633e-19)
(-0.000485522 10.0095 0)
(-0.00517183 10.0114 0)
(-0.0122048 10.0127 0)
(-0.022108 10.0134 0)
(-0.0355514 10.0135 0)
(-0.0533231 10.0134 0)
(-0.0763 10.0139 0)
(-0.105395 10.0157 0)
(-0.141465 10.0204 0)
(-0.18517 10.0299 0)
(-0.23677 10.047 0)
(-0.295829 10.0748 0)
(-0.360851 10.1174 0)
(-0.428959 10.1788 0)
(-0.496634 10.2601 0)
(-0.560619 10.3606 0)
(-0.61689 10.4805 0)
(-0.661282 10.6187 0)
(-0.689838 10.7731 0)
(-0.699083 10.9406 0)
(-0.683703 11.1192 0)
(-0.648286 11.3008 0)
(-0.604562 11.479 0)
(-0.554996 11.653 0)
(-0.501602 11.8217 0)
(-0.446069 11.9828 0)
(-0.392357 12.151 0)
(-0.339439 12.3184 0)
(-0.285078 12.446 0)
(-0.229952 12.4898 0)
(-0.173973 12.3804 0)
(-0.118365 12.0541 0)
(-0.0649933 11.3596 0)
(-0.0188952 9.78645 0)
(-0.000604713 10.0091 0)
(0.00209896 10.0067 0)
(0.00307853 10.004 1.39565e-18)
(0.00259507 10.0015 -1.02113e-18)
(0.00094402 10.0001 -6.61934e-19)
(-0.00523532 10.0109 0)
(-0.01219 10.0119 0)
(-0.0219762 10.0121 0)
(-0.0352585 10.0115 0)
(-0.0528307 10.0105 0)
(-0.0755914 10.0095 0)
(-0.104503 10.0093 0)
(-0.140523 10.0112 0)
(-0.184485 10.0169 0)
(-0.236939 10.0287 0)
(-0.297894 10.0498 0)
(-0.366504 10.0838 0)
(-0.440668 10.1352 0)
(-0.516694 10.2081 0)
(-0.590362 10.3031 0)
(-0.658 10.4188 0)
(-0.715219 10.5546 0)
(-0.757687 10.7087 0)
(-0.781496 10.8782 0)
(-0.783437 11.0596 0)
(-0.758324 11.2503 0)
(-0.712096 11.4416 0)
(-0.65811 11.6268 0)
(-0.599111 11.8059 0)
(-0.53726 11.9776 0)
(-0.477526 12.1588 0)
(-0.41904 12.3464 0)
(-0.35905 12.513 0)
(-0.298925 12.6392 0)
(-0.239249 12.6829 0)
(-0.179752 12.5754 0)
(-0.121492 12.2479 0)
(-0.0662789 11.542 0)
(-0.0190238 9.93976 0)
(-0.00530056 10.0104 0)
(-0.000682054 10.0087 -2.73924e-18)
(0.00194063 10.0063 -1.46802e-18)
(0.00288521 10.0038 7.15947e-19)
(0.00243381 10.0014 -6.98043e-19)
(0.000879448 10.0001 0)
(-0.0121562 10.0111 0)
(-0.0218234 10.0109 0)
(-0.0349396 10.0098 0)
(-0.0522941 10.0079 0)
(-0.0747968 10.0057 0)
(-0.103442 10.0037 0)
(-0.139256 10.0031 0)
(-0.1832 10.0053 0)
(-0.236048 10.0124 0)
(-0.298162 10.0273 0)
(-0.369228 10.0534 0)
(-0.447894 10.0949 0)
(-0.531326 10.1565 0)
(-0.614941 10.2424 0)
(-0.693812 10.3525 0)
(-0.763924 10.4845 0)
(-0.820623 10.6369 0)
(-0.85953 10.8073 0)
(-0.876938 10.9919 0)
(-0.870042 11.1865 0)
(-0.833876 11.3883 0)
(-0.77584 11.5881 0)
(-0.710932 11.7793 0)
(-0.642096 11.9619 0)
(-0.57551 12.1539 0)
(-0.510369 12.3544 0)
(-0.443613 12.5407 0)
(-0.37685 12.7044 0)
(-0.31131 12.8275 0)
(-0.247425 12.8698 0)
(-0.184754 12.7627 0)
(-0.124133 12.433 0)
(-0.0673274 11.7151 0)
(-0.0190943 10.0841 0)
(-0.0121402 10.0104 0)
(-0.00527052 10.0098 5.75957e-18)
(-0.000730055 10.0081 0)
(0.00178902 10.006 1.50475e-18)
(0.00269846 10.0036 4.64813e-22)
(0.00227654 10.0013 0)
(0.000817052 10.0001 0)
(-0.0216567 10.0099 0)
(-0.034606 10.0082 0)
(-0.0517367 10.0056 0)
(-0.0739573 10.0023 0)
(-0.102281 9.99874 0)
(-0.13778 9.99588 0)
(-0.181508 9.995 0)
(-0.234403 9.99793 0)
(-0.297107 10.0072 0)
(-0.36973 10.026 0)
(-0.451548 10.0582 0)
(-0.540578 10.1086 0)
(-0.633164 10.1819 0)
(-0.723757 10.2824 0)
(-0.806751 10.409 0)
(-0.877896 10.5582 0)
(-0.932397 10.7278 0)
(-0.965979 10.9145 0)
(-0.975282 11.1138 0)
(-0.958038 11.3209 0)
(-0.909604 11.5326 0)
(-0.838908 11.7396 0)
(-0.762547 11.9352 0)
(-0.688337 12.1385 0)
(-0.615573 12.3501 0)
(-0.540733 12.5491 0)
(-0.465997 12.732 0)
(-0.392836 12.8912 0)
(-0.322256 13.0099 0)
(-0.254532 13.0495 0)
(-0.189034 12.9417 0)
(-0.126332 12.609 0)
(-0.0681624 11.8787 0)
(-0.0191165 10.2196 0)
(-0.0215295 10.009 0)
(-0.0119534 10.0096 4.36972e-22)
(-0.00513115 10.009 0)
(-0.000775826 10.0076 -1.58146e-18)
(0.00164678 10.0056 3.81134e-22)
(0.00251768 10.0034 0)
(0.00212344 10.0012 0)
(0.000756856 10.0001 0)
(-0.0342644 10.0069 0)
(-0.0511723 10.0036 0)
(-0.0731026 9.99926 0)
(-0.101073 9.99434 0)
(-0.136184 9.98952 0)
(-0.179554 9.98589 0)
(-0.232244 9.98506 0)
(-0.295105 9.98923 0)
(-0.368587 10.0013 0)
(-0.452477 10.0251 0)
(-0.545515 10.0648 0)
(-0.644998 10.1254 0)
(-0.74635 10.2121 0)
(-0.843009 10.3287 0)
(-0.928749 10.473 0)
(-0.999243 10.6403 0)
(-1.0497 10.8274 0)
(-1.07611 11.0302 0)
(-1.0756 11.2434 0)
(-1.04657 11.4619 0)
(-0.984772 11.6824 0)
(-0.900709 11.895 0)
(-0.818229 12.1119 0)
(-0.736917 12.3354 0)
(-0.652749 12.5457 0)
(-0.568494 12.7411 0)
(-0.48617 12.9188 0)
(-0.407031 13.0723 0)
(-0.331825 13.1856 0)
(-0.260643 13.2215 0)
(-0.192649 13.112 0)
(-0.128132 12.7756 0)
(-0.0688088 12.0328 0)
(-0.0190987 10.3464 0)
(-0.0339917 10.0056 0)
(-0.0211273 10.0079 -3.17747e-18)
(-0.0115349 10.0087 0)
(-0.00499808 10.0083 0)
(-0.000807456 10.0071 4.86135e-18)
(0.00151304 10.0053 0)
(0.00234311 10.0032 0)
(0.00197466 10.0012 1.50555e-18)
(0.000698913 10.0001 0)
(-0.0506066 10.0018 0)
(-0.0722494 9.99659 0)
(-0.0998544 9.99045 0)
(-0.134534 9.98388 0)
(-0.177452 9.97782 0)
(-0.229756 9.97363 0)
(-0.292455 9.97326 0)
(-0.366262 9.97935 0)
(-0.451375 9.99525 0)
(-0.547135 10.0251 0)
(-0.651661 10.0737 0)
(-0.761426 10.1463 0)
(-0.870861 10.2479 0)
(-0.972356 10.382 0)
(-1.05919 10.5452 0)
(-1.12713 10.7311 0)
(-1.17157 10.9357 0)
(-1.18892 11.1541 0)
(-1.17696 11.3804 0)
(-1.13482 11.6091 0)
(-1.05868 11.8366 0)
(-0.967566 12.0716 0)
(-0.876882 12.3096 0)
(-0.782133 12.5321 0)
(-0.686848 12.7387 0)
(-0.593604 12.9287 0)
(-0.504157 13.1001 0)
(-0.419507 13.2469 0)
(-0.340107 13.354 0)
(-0.265838 13.3853 0)
(-0.195662 13.2735 0)
(-0.129577 12.9328 0)
(-0.0692892 12.1776 0)
(-0.0190488 10.4648 0)
(-0.0501487 10.0001 0)
(-0.0333021 10.0042 0)
(-0.0203164 10.0066 -3.56991e-18)
(-0.0111377 10.0077 -3.48494e-18)
(-0.00484398 10.0076 -6.80344e-18)
(-0.000826055 10.0066 0)
(0.00138791 10.0049 -3.24012e-18)
(0.00217504 10.003 -3.16242e-18)
(0.0018302 10.0011 1.54325e-18)
(0.000643131 10.0001 0)
(-0.0714026 9.99422 0)
(-0.0986471 9.98698 0)
(-0.132879 9.97888 0)
(-0.175286 9.97065 0)
(-0.22708 9.96348 0)
(-0.289386 9.95906 0)
(-0.363119 9.95973 0)
(-0.448801 9.96854 0)
(-0.546264 9.98934 0)
(-0.654321 10.0267 0)
(-0.770365 10.0857 0)
(-0.889957 10.1718 0)
(-1.00647 10.2899 0)
(-1.11127 10.4429 0)
(-1.19727 10.6258 0)
(-1.26059 10.8307 0)
(-1.29696 11.0526 0)
(-1.30338 11.2858 0)
(-1.27841 11.5241 0)
(-1.22197 11.7614 0)
(-1.13899 12.0127 0)
(-1.03825 12.2698 0)
(-0.93163 12.5074 0)
(-0.823715 12.7265 0)
(-0.71778 12.9277 0)
(-0.616078 13.111 0)
(-0.520037 13.2751 0)
(-0.430366 13.4144 0)
(-0.347202 13.5146 0)
(-0.270203 13.5409 0)
(-0.198137 13.4261 0)
(-0.130712 13.0809 0)
(-0.0696263 12.3133 0)
(-0.0189735 10.5752 0)
(-0.0707143 9.99209 0)
(-0.049084 9.99832 -3.50308e-18)
(-0.0319558 10.0027 3.74188e-18)
(-0.0195509 10.0054 -1.68908e-21)
(-0.0107099 10.0068 3.56807e-18)
(-0.00467026 10.007 3.48404e-18)
(-0.000831911 10.0061 6.80276e-18)
(0.00127154 10.0046 4.97961e-18)
(0.00201328 10.0028 -1.6204e-18)
(0.00169008 10.001 0)
(0.000589523 10.0001 0)
(-0.0974541 9.9839 0)
(-0.131245 9.97443 0)
(-0.173118 9.96429 0)
(-0.224323 9.95448 0)
(-0.286075 9.94644 0)
(-0.359442 9.94226 0)
(-0.445199 9.94468 0)
(-0.543571 9.95721 0)
(-0.653946 9.98416 0)
(-0.77451 10.0305 0)
(-0.901834 10.1016 0)
(-1.03048 10.2029 0)
(-1.15274 10.3391 0)
(-1.25901 10.5121 0)
(-1.34206 10.7153 0)
(-1.39856 10.9392 0)
(-1.42476 11.1778 0)
(-1.41846 11.4249 0)
(-1.37901 11.6736 0)
(-1.31709 11.9361 0)
(-1.22429 12.2111 0)
(-1.10451 12.4689 0)
(-0.982157 12.7035 0)
(-0.861534 12.9171 0)
(-0.745545 13.1114 0)
(-0.635995 13.2871 0)
(-0.533924 13.4431 0)
(-0.439728 13.5743 0)
(-0.353216 13.6673 0)
(-0.273824 13.6881 0)
(-0.200135 13.5699 0)
(-0.131577 13.2199 0)
(-0.0698403 12.4402 0)
(-0.0188788 10.6779 0)
(-0.0964854 9.98114 0)
(-0.0691688 9.98976 -5.13796e-21)
(-0.0470251 9.99633 0)
(-0.0306924 10.0011 -2.94271e-21)
(-0.0187421 10.0043 0)
(-0.010253 10.006 -3.65315e-18)
(-0.00447765 10.0063 -7.13495e-18)
(-0.000825101 10.0057 -2.7834e-22)
(0.00116373 10.0043 3.40008e-18)
(0.00185805 10.0026 -1.65956e-18)
(0.00155428 10.001 1.62036e-18)
(0.000538104 10 0)
(-0.129634 9.97047 0)
(-0.170979 9.95864 0)
(-0.221563 9.94647 0)
(-0.282656 9.93523 0)
(-0.35545 9.92671 0)
(-0.440915 9.92338 0)
(-0.539588 9.92843 0)
(-0.651329 9.94586 0)
(-0.774987 9.98039 0)
(-0.908018 10.0374 0)
(-1.04607 10.1223 0)
(-1.18268 10.2405 0)
(-1.30905 10.3961 0)
(-1.4147 10.5901 0)
(-1.49249 10.8139 0)
(-1.53988 11.0564 0)
(-1.55388 11.3111 0)
(-1.5331 11.5705 0)
(-1.48932 11.8461 0)
(-1.41859 12.1341 0)
(-1.30462 12.4114 0)
(-1.16592 12.6668 0)
(-1.0283 12.8961 0)
(-0.895594 13.1027 0)
(-0.770214 13.2891 0)
(-0.653477 13.4563 0)
(-0.545956 13.6036 0)
(-0.447719 13.7265 0)
(-0.358258 13.8119 0)
(-0.276786 13.8269 0)
(-0.201714 13.7051 0)
(-0.132209 13.3503 0)
(-0.0699505 12.5588 0)
(-0.0187697 10.7734 0)
(-0.12833 9.96692 0)
(-0.0943324 9.97818 3.84563e-18)
(-0.0661793 9.98727 -4.11316e-18)
(-0.0451038 9.99442 4.01252e-18)
(-0.0293691 9.99968 0)
(-0.0178913 10.0032 0)
(-0.0097689 10.0051 3.73917e-18)
(-0.00426659 10.0057 -3.65188e-18)
(-0.000805843 10.0052 -2.17639e-22)
(0.0010646 10.004 1.74119e-18)
(0.00170919 10.0025 -1.70008e-18)
(0.00142277 10.0009 -1.65472e-18)
(0.000489152 10 0)
(-0.168871 9.95359 0)
(-0.218839 9.93935 0)
(-0.279229 9.92525 0)
(-0.351311 9.91287 0)
(-0.436219 9.90439 0)
(-0.534738 9.90271 0)
(-0.647105 9.91148 0)
(-0.772723 9.93515 0)
(-0.909804 9.97885 0)
(-1.05497 10.0482 0)
(-1.2029 10.1487 0)
(-1.34605 10.2853 0)
(-1.4746 10.4615 0)
(-1.57731 10.6772 0)
(-1.6474 10.9217 0)
(-1.6834 11.1824 0)
(-1.68317 11.4516 0)
(-1.65947 11.7397 0)
(-1.60765 12.0428 0)
(-1.51465 12.3351 0)
(-1.3794 12.6114 0)
(-1.22224 12.862 0)
(-1.07003 13.0842 0)
(-0.925988 13.2825 0)
(-0.791941 13.4599 0)
(-0.66868 13.6181 0)
(-0.556285 13.7564 0)
(-0.454474 13.8708 0)
(-0.362435 13.9485 0)
(-0.279171 13.9576 0)
(-0.202933 13.8318 0)
(-0.132645 13.4722 0)
(-0.0699744 12.6694 0)
(-0.0186504 10.862 0)
(-0.167176 9.94909 0)
(-0.125421 9.96318 0)
(-0.0901473 9.97507 4.29859e-18)
(-0.0634035 9.98489 -8.41594e-18)
(-0.0431008 9.9926 8.21933e-18)
(-0.0279873 9.99829 -8.02726e-18)
(-0.0170024 10.0021 0)
(-0.00925847 10.0043 3.82752e-18)
(-0.00403752 10.0051 -3.73745e-18)
(-0.000774323 10.0048 -3.65057e-18)
(0.000973854 10.0037 0)
(0.00156666 10.0023 1.7355e-18)
(0.0012964 10.0008 0)
(0.000443653 10 0)
(-0.216152 9.93299 0)
(-0.27584 9.91636 0)
(-0.347149 9.90055 0)
(-0.431318 9.88747 0)
(-0.529348 9.87974 0)
(-0.64178 9.88068 0)
(-0.768468 9.89443 0)
(-0.908263 9.92587 0)
(-1.05863 9.98047 0)
(-1.21531 10.0639 0)
(-1.37192 10.1817 0)
(-1.51988 10.3382 0)
(-1.64841 10.5361 0)
(-1.74569 10.7739 0)
(-1.80558 11.0388 0)
(-1.82791 11.3165 0)
(-1.82651 11.6163 0)
(-1.79582 11.9342 0)
(-1.7203 12.244 0)
(-1.60457 12.5371 0)
(-1.44827 12.8094 0)
(-1.27335 13.053 0)
(-1.10741 13.2667 0)
(-0.952875 13.4556 0)
(-0.810918 13.6235 0)
(-0.681787 13.7722 0)
(-0.56507 13.9014 0)
(-0.460125 14.0071 0)
(-0.365852 14.0772 0)
(-0.281055 14.0803 0)
(-0.203841 13.9505 0)
(-0.132914 13.5862 0)
(-0.0699275 12.7724 0)
(-0.0185244 10.9442 0)
(-0.214009 9.92732 0)
(-0.163341 9.94439 0)
(-0.119726 9.95933 0)
(-0.0862832 9.97211 8.79106e-18)
(-0.0605203 9.98261 -8.5929e-18)
(-0.0410193 9.99086 8.39572e-18)
(-0.026554 9.99696 0)
(-0.0160769 10.0011 -4.00666e-18)
(-0.00872234 10.0036 0)
(-0.00379104 10.0046 3.82387e-18)
(-0.00073107 10.0044 0)
(0.000891335 10.0035 0)
(0.00143115 10.0022 0)
(0.00117813 10.0008 1.65578e-18)
(0.000402028 10 7.72377e-19)
(-0.272492 9.90843 0)
(-0.343019 9.88956 0)
(-0.426367 9.87239 0)
(-0.523673 9.85923 0)
(-0.635749 9.85312 0)
(-0.762823 9.85787 0)
(-0.904273 9.87806 0)
(-1.05829 9.91896 0)
(-1.22154 9.98625 0)
(-1.38875 10.0857 0)
(-1.55254 10.2223 0)
(-1.7033 10.4001 0)
(-1.8294 10.6203 0)
(-1.91866 10.8803 0)
(-1.9658 11.1648 0)
(-1.98911 11.4751 0)
(-1.98216 11.8072 0)
(-1.92647 12.1347 0)
(-1.8264 12.4474 0)
(-1.68787 12.738 0)
(-1.51107 13.004 0)
(-1.31929 13.2389 0)
(-1.14059 13.4428 0)
(-0.976458 13.6217 0)
(-0.827362 13.7795 0)
(-0.692985 13.9185 0)
(-0.57247 14.0385 0)
(-0.4648 14.1357 0)
(-0.368608 14.1981 0)
(-0.282508 14.1953 0)
(-0.204489 14.0615 0)
(-0.133044 13.6925 0)
(-0.0698231 12.8682 0)
(-0.0183944 11.0204 0)
(-0.269847 9.90135 0)
(-0.209055 9.92146 0)
(-0.15577 9.93963 9.42275e-18)
(-0.114497 9.95566 9.21593e-18)
(-0.0822782 9.96929 9.00578e-18)
(-0.0575346 9.98046 -8.79892e-18)
(-0.03887 9.98921 0)
(-0.0250712 9.99571 0)
(-0.0151162 10.0002 0)
(-0.00816209 10.0028 8.00912e-18)
(-0.0035281 10.004 3.91173e-18)
(-0.000676622 10.004 3.81019e-18)
(0.000817035 10.0032 0)
(0.00130544 10.002 -1.73668e-18)
(0.00106949 10.0007 -8.14435e-19)
(0.000363799 10 0)
(-0.33893 9.87976 0)
(-0.421432 9.85893 0)
(-0.517903 9.84094 0)
(-0.629324 9.82849 0)
(-0.756261 9.8251 0)
(-0.898539 9.83503 0)
(-1.05496 9.86329 0)
(-1.22299 9.91545 0)
(-1.39836 9.99731 0)
(-1.57484 10.1145 0)
(-1.744 10.2715 0)
(-1.8953 10.4715 0)
(-2.01646 10.7147 0)
(-2.09498 10.9964 0)
(-2.14575 11.3155 0)
(-2.16545 11.6609 0)
(-2.13245 12.006 0)
(-2.05044 12.3391 0)
(-1.92536 12.6512 0)
(-1.76432 12.9367 0)
(-1.56783 13.1942 0)
(-1.36023 13.4187 0)
(-1.1698 13.6119 0)
(-0.996976 13.7802 0)
(-0.841498 13.9277 0)
(-0.702477 14.057 0)
(-0.578642 14.1678 0)
(-0.468619 14.2566 0)
(-0.370791 14.3116 0)
(-0.283593 14.3029 0)
(-0.204917 14.1652 0)
(-0.13306 13.7917 0)
(-0.0696733 12.9574 0)
(-0.0182633 11.091 0)
(-0.33574 9.87101 0)
(-0.263554 9.8941 0)
(-0.199183 9.91562 -1.96564e-17)
(-0.148849 9.93512 2.92627e-20)
(-0.109082 9.9522 -1.88142e-17)
(-0.0781405 9.96664 1.83883e-17)
(-0.05446 9.97844 -8.99302e-18)
(-0.0366556 9.98767 0)
(-0.0235414 9.99454 0)