/*--------------------------------*- C++ -*----------------------------------*\
  =========                 |
  \\      /  F ield         | OpenFOAM: The Open Source CFD Toolbox
   \\    /   O peration     | Website:  https://openfoam.org
    \\  /    A nd           | Version:  8
     \\/     M anipulation  |
\*---------------------------------------------------------------------------*/
FoamFile
{
    version     2.0;
    format      ascii;
    class       surfaceScalarField;
    location    "0.5";
    object      phi;
}
// * * * * * * * * * * * * * * * * * * * * * * * * * * * * * * * * * * * * * //

dimensions      [0 3 -1 0 0 0 0];

internalField   nonuniform List<scalar> 
31053
(
6.26669e-07
1.27533e-05
8.47501e-07
1.51592e-05
3.73989e-07
1.23793e-05
9.29052e-07
1.75584e-05
5.83977e-07
1.49492e-05
2.66733e-07
1.21126e-05
9.51384e-07
2.02177e-05
6.99374e-07
1.74431e-05
4.58482e-07
1.47574e-05
2.13056e-07
1.18996e-05
9.40876e-07
2.32505e-05
7.55784e-07
2.01613e-05
5.80011e-07
1.73215e-05
3.89601e-07
1.45809e-05
1.69699e-07
1.17299e-05
9.09201e-07
2.66917e-05
7.77351e-07
2.32289e-05
6.50674e-07
2.00906e-05
5.12879e-07
1.71982e-05
3.27007e-07
1.44236e-05
1.35435e-07
1.15944e-05
8.61819e-07
3.06674e-05
7.76233e-07
2.66928e-05
6.87714e-07
2.31919e-05
5.89253e-07
2.00142e-05
4.45241e-07
1.708e-05
2.72978e-07
1.4286e-05
1.08733e-07
1.14857e-05
8.02644e-07
3.51992e-05
7.59288e-07
3.06843e-05
7.01888e-07
2.66786e-05
6.32076e-07
2.31491e-05
5.21625e-07
1.99378e-05
3.82266e-07
1.69707e-05
2.26889e-07
1.41679e-05
8.67047e-08
1.1399e-05
7.33848e-07
4.03888e-05
7.2963e-07
3.52288e-05
6.99375e-07
3.06868e-05
6.51251e-07
2.66594e-05
5.65121e-07
2.31056e-05
4.55105e-07
1.9865e-05
3.2501e-07
1.68726e-05
1.85806e-07
1.40688e-05
6.74396e-08
1.13315e-05
6.57324e-07
4.63565e-05
6.89789e-07
4.04286e-05
6.82699e-07
3.52455e-05
6.52541e-07
3.06855e-05
5.84672e-07
2.66399e-05
4.96309e-07
2.30644e-05
3.91731e-07
1.97983e-05
2.70895e-07
1.67875e-05
1.47742e-07
1.39885e-05
4.96755e-08
1.12819e-05
5.74994e-07
5.32223e-05
6.41435e-07
4.64049e-05
6.5375e-07
4.04576e-05
6.39876e-07
3.52582e-05
5.86183e-07
3.0684e-05
5.13467e-07
2.66227e-05
4.28328e-07
2.30278e-05
3.29121e-07
1.97401e-05
2.18176e-07
1.67171e-05
1.11245e-07
1.39269e-05
3.26756e-08
1.12492e-05
4.89018e-07
6.1066e-05
5.85855e-07
5.32779e-05
6.13633e-07
4.6445e-05
6.14801e-07
4.04827e-05
5.73203e-07
3.52712e-05
5.12296e-07
3.06852e-05
4.40843e-07
2.66102e-05
3.5884e-07
2.29981e-05
2.65597e-07
1.96926e-05
1.65564e-07
1.66628e-05
7.54209e-08
1.38842e-05
1.59167e-08
1.12333e-05
4.01639e-07
7.00694e-05
5.24198e-07
6.11276e-05
5.63187e-07
5.33284e-05
5.78005e-07
4.64818e-05
5.47558e-07
4.05083e-05
4.96197e-07
3.52873e-05
4.34583e-07
3.06915e-05
3.64439e-07
2.66046e-05
2.86076e-07
2.29776e-05
1.99942e-07
1.96583e-05
1.12283e-07
1.66259e-05
3.95405e-08
1.38605e-05
-7.67333e-10
1.1234e-05
3.15742e-07
8.04179e-05
4.57491e-07
7.01361e-05
5.03437e-07
6.11874e-05
5.29759e-07
5.33766e-05
5.1008e-07
4.65193e-05
4.66993e-07
4.05375e-05
4.12838e-07
3.5309e-05
3.50652e-07
3.07053e-05
2.82376e-07
2.66083e-05
2.08804e-07
2.29687e-05
1.3144e-07
1.96391e-05
5.76407e-08
1.66078e-05
3.26306e-09
1.38565e-05
-1.7588e-08
1.12516e-05
2.48482e-07
7.62573e-05
3.86296e-07
8.04891e-05
4.35718e-07
7.02038e-05
4.70338e-07
6.12468e-05
4.61009e-07
5.34257e-05
4.25496e-07
4.65608e-05
3.77358e-07
4.0573e-05
3.20613e-07
3.5339e-05
2.58537e-07
3.07291e-05
1.93348e-07
2.66238e-05
1.26231e-07
2.29739e-05
5.94756e-08
1.96373e-05
1.42545e-09
1.66096e-05
-3.35808e-08
1.38725e-05
-3.46993e-08
1.12863e-05
1.92981e-07
7.62455e-05
3.22725e-07
7.63208e-05
3.61451e-07
8.05634e-05
4.0028e-07
7.02739e-05
4.00407e-07
6.13074e-05
3.71919e-07
5.34793e-05
3.2888e-07
4.66092e-05
2.75972e-07
4.06176e-05
2.17431e-07
3.53801e-05
1.56824e-07
3.07656e-05
9.64467e-08
2.66536e-05
3.77435e-08
2.29957e-05
-1.60616e-08
1.96547e-05
-5.65736e-08
1.66326e-05
-7.10863e-08
1.39089e-05
-5.20262e-08
1.13384e-05
1.47329e-07
7.62357e-05
2.63469e-07
7.63048e-05
2.94891e-07
7.63874e-05
3.20646e-07
8.0643e-05
3.28399e-07
7.03459e-05
3.06259e-07
6.13731e-05
2.67542e-07
5.35406e-05
2.17363e-07
4.66679e-05
1.60557e-07
4.06745e-05
1.01766e-07
3.54352e-05
4.4487e-08
3.08176e-05
-8.94947e-09
2.67003e-05
-5.6669e-08
2.30363e-05
-9.51126e-08
1.96933e-05
-1.1605e-07
1.66776e-05
-1.09069e-07
1.39659e-05
-6.94309e-08
1.14078e-05
1.09753e-07
7.62296e-05
2.08543e-07
7.62906e-05
2.32242e-07
7.63674e-05
2.48087e-07
7.646e-05
2.45494e-07
8.07259e-05
2.2854e-07
7.04236e-05
1.93277e-07
6.14473e-05
1.44836e-07
5.36131e-05
8.84112e-08
4.674e-05
2.94497e-08
4.07468e-05
-2.75428e-08
3.55072e-05
-7.91058e-08
3.08877e-05
-1.22818e-07
2.67664e-05
-1.56769e-07
2.30979e-05
-1.77165e-07
1.97544e-05
-1.76683e-07
1.67452e-05
-1.47221e-07
1.40437e-05
-8.66876e-08
1.14945e-05
7.86315e-08
7.62211e-05
1.57788e-07
7.62803e-05
1.73456e-07
7.63494e-05
1.79103e-07
7.64364e-05
1.68757e-07
7.65367e-05
1.39176e-07
8.08153e-05
1.0605e-07
7.05108e-05
5.82827e-08
6.15339e-05
9.30455e-10
5.37006e-05
-5.98142e-08
4.68293e-05
-1.18653e-07
4.08379e-05
-1.71148e-07
3.55993e-05
-2.13947e-07
3.09789e-05
-2.44767e-07
2.68544e-05
-2.6179e-07
2.31826e-05
-2.6153e-07
1.98392e-05
-2.37843e-07
1.68358e-05
-1.85107e-07
1.41421e-05
-1.03604e-07
1.15981e-05
5.25498e-08
7.62161e-05
1.11061e-07
7.62678e-05
1.18437e-07
7.63353e-05
1.14037e-07
7.64144e-05
9.51049e-08
7.651e-05
5.64622e-08
7.66194e-05
6.31147e-09
8.0915e-05
-4.23336e-08
7.06114e-05
-1.02052e-07
6.16369e-05
-1.66246e-07
5.3807e-05
-2.28788e-07
4.69394e-05
-2.84455e-07
4.09512e-05
-3.29037e-07
3.57144e-05
-3.59426e-07
3.10935e-05
-3.73778e-07
2.69664e-05
-3.70679e-07
2.32917e-05
-3.47186e-07
1.99486e-05
-2.98791e-07
1.69495e-05
-2.22231e-07
1.42608e-05
-1.19869e-07
1.17179e-05
3.05217e-08
7.6212e-05
6.82801e-08
7.62589e-05
6.71344e-08
7.63192e-05
5.30874e-08
7.63963e-05
2.53271e-08
7.64842e-05
-2.28038e-08
7.65893e-05
-8.55513e-08
7.67113e-05
-1.5651e-07
8.10292e-05
-2.20538e-07
7.07299e-05
-2.90076e-07
6.17607e-05
-3.58373e-07
5.39366e-05
-4.19269e-07
4.70742e-05
-4.67899e-07
4.10901e-05
-5.00371e-07
3.58553e-05
-5.1431e-07
3.12341e-05
-5.08443e-07
2.71042e-05
-4.81969e-07
2.34265e-05
-4.32978e-07
2.00828e-05
-3.58661e-07
1.70859e-05
-2.57999e-07
1.43989e-05
-1.3524e-07
1.18532e-05
1.3324e-08
6.95992e-05
2.92437e-08
7.62511e-05
1.95323e-08
7.63065e-05
-3.61693e-09
7.63759e-05
-4.00661e-08
7.64617e-05
-9.76265e-08
7.6559e-05
-1.7311e-07
7.66769e-05
-2.60956e-07
7.68157e-05
-3.53808e-07
8.11624e-05
-4.31275e-07
7.08711e-05
-5.07743e-07
6.19101e-05
-5.76274e-07
5.40936e-05
-6.31162e-07
4.72375e-05
-6.67928e-07
4.12577e-05
-6.83696e-07
3.60247e-05
-6.7682e-07
3.14024e-05
-6.46833e-07
2.7269e-05
-5.94036e-07
2.35875e-05
-5.17588e-07
2.02417e-05
-4.16489e-07
1.72444e-05
-2.91817e-07
1.45555e-05
-1.49319e-07
1.20025e-05
-1.9559e-10
6.25575e-05
-3.23741e-09
6.96317e-05
-2.44064e-08
7.6295e-05
-5.60326e-08
7.63589e-05
-1.00736e-07
7.64365e-05
-1.67303e-07
7.65314e-05
-2.55151e-07
7.66411e-05
-3.59871e-07
7.67758e-05
-4.74888e-07
7.69368e-05
-5.88926e-07
8.13201e-05
-6.76857e-07
7.10402e-05
-7.55956e-07
6.20897e-05
-8.19834e-07
5.42823e-05
-8.63178e-07
4.74327e-05
-8.82842e-07
4.14568e-05
-8.76839e-07
3.62247e-05
-8.44543e-07
3.16001e-05
-7.86837e-07
2.74618e-05
-7.05037e-07
2.3775e-05
-5.99581e-07
2.04248e-05
-4.71264e-07
1.74239e-05
-3.22801e-07
1.4729e-05
-1.61457e-07
1.2164e-05
-1.10556e-08
5.62289e-05
-2.98998e-08
6.25842e-05
-6.14909e-08
6.96688e-05
-1.04147e-07
7.63431e-05
-1.56461e-07
7.64146e-05
-2.31356e-07
7.65006e-05
-3.30825e-07
7.6607e-05
-4.51869e-07
7.67331e-05
-5.88832e-07
7.68897e-05
-7.3127e-07
7.70791e-05
-8.64554e-07
8.15078e-05
-9.58286e-07
7.12426e-05
-1.0346e-06
6.23045e-05
-1.08752e-06
5.45066e-05
-1.11336e-06
4.76632e-05
-1.11005e-06
4.169e-05
-1.07687e-06
3.6457e-05
-1.01485e-06
3.18282e-05
-9.26039e-07
2.76828e-05
-8.13002e-07
2.39884e-05
-6.77454e-07
2.0631e-05
-5.2161e-07
1.76227e-05
-3.50112e-07
1.49176e-05
-1.69513e-07
1.23335e-05
-1.98737e-08
5.05408e-05
-5.18725e-08
5.62508e-05
-9.23896e-08
6.26151e-05
-1.44365e-07
6.9709e-05
-2.07111e-07
7.63938e-05
-2.89474e-07
7.64727e-05
-3.99529e-07
7.65693e-05
-5.35907e-07
7.66911e-05
-6.94049e-07
7.68383e-05
-8.64468e-07
7.70229e-05
-1.0332e-06
7.72478e-05
-1.18186e-06
8.17314e-05
-1.27548e-06
7.14834e-05
-1.3419e-06
6.25589e-05
-1.3771e-06
5.47704e-05
-1.37865e-06
4.79318e-05
-1.34605e-06
4.19592e-05
-1.2806e-06
3.67228e-05
-1.18473e-06
3.20868e-05
-1.0619e-06
2.79317e-05
-9.15856e-07
2.42268e-05
-7.49347e-07
2.08587e-05
-5.66458e-07
1.7839e-05
-3.69343e-07
1.51174e-05
-1.37503e-07
1.2471e-05
-2.70989e-08
4.54272e-05
-7.01174e-08
5.05591e-05
-1.18209e-07
5.62767e-05
-1.77516e-07
6.26482e-05
-2.48843e-07
6.97507e-05
-3.41449e-07
7.64457e-05
-4.60848e-07
7.6534e-05
-6.11213e-07
7.66446e-05
-7.8929e-07
7.67863e-05
-9.86711e-07
7.69605e-05
-1.19033e-06
7.718e-05
-1.38204e-06
7.7448e-05
-1.54085e-06
8.19967e-05
-1.62645e-06
7.1768e-05
-1.67535e-06
6.28571e-05
-1.68504e-06
5.50768e-05
-1.65495e-06
4.82407e-05
-1.58708e-06
4.22657e-05
-1.4844e-06
3.70225e-05
-1.35105e-06
3.2376e-05
-1.19173e-06
2.82076e-05
-1.01125e-06
2.44887e-05
-8.13612e-07
2.11059e-05
-5.99938e-07
1.80696e-05
-3.65111e-07
1.53451e-05
-8.66406e-08
1.25576e-05
-3.30984e-08
4.0832e-05
-8.53654e-08
4.54425e-05
-1.39863e-07
5.05807e-05
-2.04913e-07
5.6304e-05
-2.82644e-07
6.2682e-05
-3.83436e-07
6.97927e-05
-5.14501e-07
7.64994e-05
-6.77237e-07
7.66001e-05
-8.7359e-07
7.67289e-05
-1.09652e-06
7.68961e-05
-1.33387e-06
7.71041e-05
-1.56799e-06
7.7366e-05
-1.77791e-06
7.7685e-05
-1.93932e-06
8.23096e-05
-2.0084e-06
7.2101e-05
-2.0309e-06
6.3203e-05
-2.00659e-06
5.54284e-05
-1.93789e-06
4.85915e-05
-1.82882e-06
4.26101e-05
-1.68447e-06
3.73559e-05
-1.51041e-06
3.26947e-05
-1.31264e-06
2.8509e-05
-1.09685e-06
2.47719e-05
-8.64554e-07
2.13705e-05
-6.15342e-07
1.83199e-05
-3.40028e-07
1.55984e-05
-6.3768e-08
1.26214e-05
-3.81341e-08
3.6701e-05
-9.81591e-08
4.08448e-05
-1.58099e-07
4.54607e-05
-2.27614e-07
5.06034e-05
-3.10034e-07
5.63314e-05
-4.1666e-07
6.27153e-05
-5.56651e-07
6.98349e-05
-7.33596e-07
7.65558e-05
-9.46238e-07
7.66727e-05
-1.19271e-06
7.68251e-05
-1.46208e-06
7.70243e-05
-1.73735e-06
7.72734e-05
-1.99774e-06
7.75858e-05
-2.21851e-06
7.79642e-05
-2.37427e-06
8.26755e-05
-2.41681e-06
7.24869e-05
-2.40318e-06
6.35996e-05
-2.33674e-06
5.58273e-05
-2.22235e-06
4.89851e-05
-2.06671e-06
4.29923e-05
-1.87666e-06
3.77221e-05
-1.65942e-06
3.30415e-05
-1.42169e-06
2.88338e-05
-1.16764e-06
2.5075e-05
-8.97897e-07
2.1653e-05
-6.16901e-07
1.85967e-05
-3.17422e-07
1.58521e-05
-6.08299e-08
1.26822e-05
-4.23972e-08
3.29903e-05
-1.08939e-07
3.67118e-05
-1.73515e-07
4.08602e-05
-2.46478e-07
4.54796e-05
-3.32248e-07
5.06256e-05
-4.4286e-07
5.63576e-05
-5.88885e-07
6.27475e-05
-7.76401e-07
6.98777e-05
-1.00672e-06
7.66162e-05
-1.27437e-06
7.67544e-05
-1.57351e-06
7.69365e-05
-1.88804e-06
7.7175e-05
-2.19761e-06
7.74733e-05
-2.47724e-06
7.78446e-05
-2.70069e-06
7.82906e-05
-2.84075e-06
8.30994e-05
-2.84563e-06
7.29294e-05
-2.78639e-06
6.40492e-05
-2.66946e-06
5.62744e-05
-2.50299e-06
4.94214e-05
-2.29588e-06
4.34115e-05
-2.05707e-06
3.81198e-05
-1.79458e-06
3.34143e-05
-1.51447e-06
2.91807e-05
-1.22024e-06
2.53974e-05
-9.18429e-07
2.19546e-05
-6.13496e-07
1.88928e-05
-3.07677e-07
1.60989e-05
-6.69403e-08
1.27492e-05
-4.60293e-08
2.96516e-05
-1.18063e-07
3.29994e-05
-1.86598e-07
3.67249e-05
-2.622e-07
4.08759e-05
-3.50289e-07
4.54976e-05
-4.63454e-07
5.06462e-05
-6.13267e-07
5.6382e-05
-8.07714e-07
6.27788e-05
-1.05102e-06
6.9922e-05
-1.34083e-06
7.66827e-05
-1.66703e-06
7.68479e-05
-2.01835e-06
7.70668e-05
-2.37513e-06
7.73525e-05
-2.71238e-06
7.77084e-05
-3.00328e-06
7.81471e-05
-3.21925e-06
7.86691e-05
-3.33194e-06
8.35857e-05
-3.28824e-06
7.34312e-05
-3.17362e-06
6.45534e-05
-2.99864e-06
5.677e-05
-2.77418e-06
4.98996e-05
-2.51187e-06
4.38663e-05
-2.22171e-06
3.85469e-05
-1.91185e-06
3.38117e-05
-1.5881e-06
2.95485e-05
-1.25851e-06
2.57375e-05
-9.32569e-07
2.22737e-05
-6.1318e-07
1.91983e-05
-3.08479e-07
1.63405e-05
-7.78805e-08
1.2827e-05
-4.91393e-08
2.66511e-05
-1.25822e-07
2.96594e-05
-1.97744e-07
3.30105e-05
-2.75346e-07
3.6738e-05
-3.64965e-07
4.08906e-05
-4.79588e-07
4.55137e-05
-6.3147e-07
5.06644e-05
-8.30036e-07
5.64043e-05
-1.08179e-06
6.28096e-05
-1.38784e-06
6.9969e-05
-1.74177e-06
7.67574e-05
-2.12684e-06
7.69564e-05
-2.5282e-06
7.72199e-05
-2.92112e-06
7.75613e-05
-3.27849e-06
7.79836e-05
-3.57052e-06
7.84984e-05
-3.76672e-06
7.91039e-05
-3.84055e-06
8.4138e-05
-3.7369e-06
7.39945e-05
-3.55797e-06
6.51127e-05
-3.31782e-06
5.73137e-05
-3.0308e-06
5.04186e-05
-2.71012e-06
4.43548e-05
-2.36663e-06
3.90017e-05
-2.00869e-06
3.42323e-05
-1.64533e-06
2.99353e-05
-1.28812e-06
2.6093e-05
-9.45716e-07
2.26062e-05
-6.1713e-07
1.9507e-05
-3.14263e-07
1.65769e-05
-1.10644e-07
1.29377e-05
-5.18144e-08
2.39567e-05
-1.3245e-07
2.66577e-05
-2.07272e-07
2.96689e-05
-2.86376e-07
3.30216e-05
-3.76928e-07
3.675e-05
-4.92185e-07
4.09032e-05
-6.44841e-07
4.55271e-05
-8.45392e-07
5.06798e-05
-1.10208e-06
5.64246e-05
-1.41875e-06
6.28405e-05
-1.79306e-06
7.00203e-05
-2.21241e-06
7.6843e-05
-2.65507e-06
7.70833e-05
-3.10098e-06
7.73997e-05
-3.52304e-06
7.78059e-05
-3.89049e-06
7.83036e-05
-4.17101e-06
7.89027e-05
-4.33533e-06
7.95987e-05
-4.35798e-06
8.47591e-05
-4.18383e-06
7.46204e-05
-3.93199e-06
6.57269e-05
-3.62111e-06
5.7904e-05
-3.2677e-06
5.09762e-05
-2.88661e-06
4.48747e-05
-2.48941e-06
3.94824e-05
-2.08678e-06
3.46738e-05
-1.69085e-06
3.03381e-05
-1.31337e-06
2.64607e-05
-9.58018e-07
2.29471e-05
-6.22305e-07
1.9815e-05
-3.97903e-07
1.68641e-05
-1.2151e-07
1.30592e-05
-5.41245e-08
2.15343e-05
-1.38138e-07
2.39624e-05
-2.15448e-07
2.66659e-05
-2.95661e-07
2.96782e-05
-3.86702e-07
3.30313e-05
-5.01981e-07
3.67598e-05
-6.54459e-07
4.09128e-05
-8.55401e-07
4.55371e-05
-1.11437e-06
5.06921e-05
-1.43729e-06
5.64432e-05
-1.82508e-06
6.28725e-05
-2.26982e-06
7.00777e-05
-2.75435e-06
7.69423e-05
-3.24983e-06
7.72321e-05
-3.73399e-06
7.76107e-05
-4.17541e-06
7.80908e-05
-4.54021e-06
7.86728e-05
-4.79662e-06
7.9364e-05
-4.91585e-06
8.01566e-05
-4.87551e-06
8.54508e-05
-4.62048e-06
7.53089e-05
-4.28896e-06
6.63948e-05
-3.90263e-06
5.85389e-05
-3.48051e-06
5.15701e-05
-3.03876e-06
4.54241e-05
-2.59074e-06
3.99864e-05
-2.14965e-06
3.51326e-05
-1.72806e-06
3.07528e-05
-1.33415e-06
2.68368e-05
-9.67224e-07
2.3292e-05
-7.75319e-07
2.01924e-05
-4.02943e-07
1.71456e-05
-1.3138e-07
1.31906e-05
-5.61262e-08
1.9354e-05
-1.4304e-07
2.15392e-05
-2.22488e-07
2.39694e-05
-3.03506e-07
2.66738e-05
-3.94707e-07
2.96862e-05
-5.09567e-07
3.30389e-05
-6.61179e-07
3.67665e-05
-8.61354e-07
4.09188e-05
-1.12061e-06
4.55434e-05
-1.44647e-06
5.07013e-05
-1.84235e-06
5.64605e-05
-2.30413e-06
6.29068e-05
-2.81995e-06
7.01433e-05
-3.36592e-06
7.70584e-05
-3.90874e-06
7.74069e-05
-4.42181e-06
7.78571e-05
-4.86999e-06
7.84205e-05
-5.21929e-06
7.90955e-05
-5.43761e-06
7.98858e-05
-5.4987e-06
8.07797e-05
-5.38343e-06
8.62138e-05
-5.0392e-06
7.60591e-05
-4.62213e-06
6.71142e-05
-4.1575e-06
5.92159e-05
-3.66632e-06
5.21976e-05
-3.16636e-06
4.59997e-05
-2.67298e-06
4.05097e-05
-2.19988e-06
3.56044e-05
-1.75695e-06
3.11756e-05
-1.34841e-06
2.7218e-05
-1.20224e-06
2.37189e-05
-7.72794e-07
2.05623e-05
-4.05377e-07
1.74195e-05
-1.38171e-07
1.33287e-05
1.73977e-05
-5.78637e-08
-1.47279e-07
1.93582e-05
-2.2857e-07
2.15453e-05
-3.10158e-07
2.39761e-05
-4.01279e-07
2.66803e-05
-5.15409e-07
2.96921e-05
-6.6568e-07
3.30434e-05
-8.64267e-07
3.67694e-05
-1.12238e-06
4.09205e-05
-1.4487e-06
4.55456e-05
-1.84857e-06
5.07075e-05
-2.32084e-06
5.64772e-05
-2.858e-06
6.29449e-05
-3.44209e-06
7.02194e-05
-4.04512e-06
7.71947e-05
-4.62658e-06
7.76117e-05
-5.15628e-06
7.81434e-05
-5.59836e-06
7.87996e-05
-5.91755e-06
7.95754e-05
-6.08371e-06
8.04708e-05
-6.07325e-06
8.14696e-05
-5.8731e-06
8.70477e-05
-5.43226e-06
7.68692e-05
-4.92591e-06
6.78827e-05
-4.38225e-06
5.99318e-05
-3.82397e-06
5.28552e-05
-3.27061e-06
4.65973e-05
-2.73797e-06
4.10478e-05
-2.23756e-06
3.6085e-05
-1.77598e-06
3.16031e-05
-1.67568e-06
2.76914e-05
-1.19397e-06
2.41401e-05
-7.64797e-07
2.09217e-05
-4.0394e-07
1.76853e-05
-1.41705e-07
1.34704e-05
1.74014e-05
-1.50968e-07
2.78122e-05
-6.00199e-08
-2.33838e-07
1.93635e-05
-3.15819e-07
2.1551e-05
-4.0669e-07
2.39815e-05
-5.19882e-07
2.66848e-05
-6.68494e-07
2.96949e-05
-8.64934e-07
3.30441e-05
-1.12089e-06
3.67679e-05
-1.44586e-06
4.09177e-05
-1.84665e-06
4.55437e-05
-2.32439e-06
5.0711e-05
-2.87504e-06
5.64942e-05
-3.48557e-06
6.29883e-05
-4.13459e-06
7.03089e-05
-4.78705e-06
7.73552e-05
-5.39541e-06
7.78508e-05
-5.92911e-06
7.84741e-05
-6.35008e-06
7.92321e-05
-6.62426e-06
8.0116e-05
-6.7235e-06
8.1121e-05
-6.62997e-06
8.22264e-05
-6.33564e-06
8.79511e-05
-5.79315e-06
7.77365e-05
-5.19606e-06
6.86965e-05
-4.57476e-06
6.06826e-05
-3.95365e-06
5.35383e-05
-3.3527e-06
4.72121e-05
-2.78581e-06
4.15961e-05
-2.26164e-06
3.65706e-05
-2.2063e-06
3.21338e-05
-1.66291e-06
2.81604e-05
-1.17612e-06
2.45514e-05
-7.51069e-07
2.12688e-05
-3.98219e-07
1.79418e-05
-1.42442e-07
1.36129e-05
1.7406e-05
-2.38412e-07
2.78166e-05
-1.55418e-07
2.8552e-05
-6.20324e-08
-3.20652e-07
1.93683e-05
-4.11158e-07
2.15554e-05
-5.23281e-07
2.39849e-05
-6.70041e-07
2.66864e-05
-8.63977e-07
2.96939e-05
-1.11708e-06
3.30403e-05
-1.43944e-06
3.67615e-05
-1.83888e-06
4.09099e-05
-2.31832e-06
4.55376e-05
-2.87641e-06
5.07124e-05
-3.5041e-06
5.65127e-05
-4.18553e-06
6.30393e-05
-4.89292e-06
7.04148e-05
-5.58409e-06
7.75439e-05
-6.20719e-06
7.81289e-05
-6.72974e-06
7.88538e-05
-7.11406e-06
7.97219e-05
-7.32731e-06
8.07198e-05
-7.34663e-06
8.18377e-05
-7.15894e-06
8.30497e-05
-6.76343e-06
8.89213e-05
-6.11667e-06
7.86571e-05
-5.42946e-06
6.95512e-05
-4.73423e-06
6.14632e-05
-4.05587e-06
5.42414e-05
-3.41263e-06
4.78389e-05
-2.81587e-06
4.21503e-05
-2.80873e-06
3.71731e-05
-2.1886e-06
3.26595e-05
-1.63583e-06
2.86201e-05
-1.14955e-06
2.49499e-05
-7.31612e-07
2.16022e-05
-3.88681e-07
1.81881e-05
-1.40833e-07
1.37537e-05
1.74101e-05
-3.24795e-07
2.78214e-05
-2.43218e-07
2.85563e-05
-1.59665e-07
2.93119e-05
-6.39095e-08
-4.14858e-07
1.9372e-05
-5.25839e-07
2.1558e-05
-6.70646e-07
2.39855e-05
-8.61873e-07
2.66842e-05
-1.11169e-06
2.96885e-05
-1.43056e-06
3.30314e-05
-1.82707e-06
3.67497e-05
-2.30542e-06
4.0897e-05
-2.86635e-06
4.55275e-05
-3.50399e-06
5.07123e-05
-4.20701e-06
5.65342e-05
-4.95375e-06
6.31001e-05
-5.70987e-06
7.05406e-05
-6.42861e-06
7.77653e-05
-7.05143e-06
7.84506e-05
-7.54695e-06
7.92867e-05
-7.87774e-06
8.02724e-05
-8.01568e-06
8.13888e-05
-7.9422e-06
8.26209e-05
-7.65147e-06
8.39378e-05
-7.15012e-06
8.99548e-05
-6.39861e-06
7.96262e-05
-5.62435e-06
7.04413e-05
-4.86054e-06
6.22679e-05
-4.13049e-06
5.49593e-05
-3.45013e-06
4.84731e-05
-3.49662e-06
4.28382e-05
-2.78534e-06
3.77698e-05
-2.15171e-06
3.31753e-05
-1.59635e-06
2.90669e-05
-1.1151e-06
2.53334e-05
-7.07197e-07
2.19207e-05
-3.75967e-07
1.84232e-05
-1.37387e-07
1.38911e-05
1.74132e-05
-4.17931e-07
2.78246e-05
-3.27949e-07
2.85607e-05
-2.47707e-07
2.93159e-05
-1.63675e-07
3.00897e-05
-6.5648e-08
-5.27741e-07
1.93739e-05
-6.70564e-07
2.15579e-05
-8.58989e-07
2.39826e-05
-1.10528e-06
2.66778e-05
-1.42011e-06
2.96781e-05
-1.81258e-06
3.30169e-05
-2.28783e-06
3.67321e-05
-2.84821e-06
4.08789e-05
-3.4903e-06
4.55139e-05
-4.20642e-06
5.07117e-05
-4.98002e-06
5.65605e-05
-5.78347e-06
6.31737e-05
-6.57827e-06
7.06902e-05
-7.31039e-06
7.80243e-05
-7.91699e-06
7.88206e-05
-8.36786e-06
7.97768e-05
-8.62955e-06
8.08863e-05
-8.67759e-06
8.21242e-05
-8.50051e-06
8.347e-05
-8.10012e-06
8.48878e-05
-7.49033e-06
9.10465e-05
-6.63621e-06
8.06381e-05
-5.77994e-06
7.13607e-05
-4.95332e-06
6.30907e-05
-4.17748e-06
5.56866e-05
-4.28473e-06
4.92612e-05
-3.46711e-06
4.352e-05
-2.73752e-06
3.83556e-05
-2.09842e-06
3.36774e-05
-1.54619e-06
2.9498e-05
-1.07411e-06
2.57003e-05
-6.78832e-07
2.22236e-05
-3.608e-07
1.86466e-05
-1.32566e-07
1.40237e-05
1.74146e-05
-5.29133e-07
2.78246e-05
-4.18e-07
2.85635e-05
-3.3071e-07
2.932e-05
-2.51841e-07
3.00935e-05
-1.67427e-07
3.08896e-05
-6.72452e-08
-6.69989e-07
1.93734e-05
-8.55605e-07
2.15545e-05
-1.09826e-06
2.39756e-05
-1.40874e-06
2.66665e-05
-1.79646e-06
2.96619e-05
-2.26724e-06
3.29963e-05
-2.82459e-06
3.67085e-05
-3.46702e-06
4.08556e-05
-4.18973e-06
4.54972e-05
-4.98031e-06
5.0712e-05
-5.81682e-06
5.65938e-05
-6.668e-06
6.32634e-05
-7.48833e-06
7.08682e-05
-8.21854e-06
7.83258e-05
-8.79087e-06
7.92436e-05
-9.18055e-06
8.03278e-05
-9.35697e-06
8.15656e-05
-9.30241e-06
8.29261e-05
-9.01307e-06
8.43829e-05
-8.49839e-06
8.58958e-05
-7.78015e-06
9.21905e-05
-6.82794e-06
8.16861e-05
-5.89556e-06
7.23029e-05
-5.01271e-06
6.39259e-05
-5.18995e-06
5.65919e-05
-4.24914e-06
5.00433e-05
-3.40733e-06
4.41898e-05
-2.66892e-06
3.89261e-05
-2.03132e-06
3.41625e-05
-1.48745e-06
2.99113e-05
-1.0281e-06
2.60496e-05
-6.47572e-07
2.25104e-05
-3.43878e-07
1.88579e-05
-1.26783e-07
1.41505e-05
1.74137e-05
-6.69074e-07
2.782e-05
-5.24489e-07
2.8563e-05
-4.17532e-07
2.93224e-05
-3.33072e-07
3.00973e-05
-2.5564e-07
3.08931e-05
-1.70925e-07
3.17094e-05
-6.86922e-08
-8.51932e-07
1.93697e-05
-1.09095e-06
2.15472e-05
-1.39695e-06
2.39638e-05
-1.7795e-06
2.66495e-05
-2.24489e-06
2.96396e-05
-2.79749e-06
3.29692e-05
-3.43726e-06
3.66787e-05
-4.16163e-06
4.08275e-05
-4.96156e-06
4.54784e-05
-5.81978e-06
5.07149e-05
-6.71125e-06
5.66371e-05
-7.59806e-06
6.33732e-05
-8.42954e-06
7.10792e-05
-9.14017e-06
7.86751e-05
-9.661e-06
7.97241e-05
-9.97193e-06
8.09427e-05
-1.00486e-05
8.23118e-05
-9.8807e-06
8.37938e-05
-9.47235e-06
8.53569e-05
-8.84139e-06
8.69571e-05
-8.01726e-06
9.33798e-05
-6.97271e-06
8.27632e-05
-5.97131e-06
7.32615e-05
-6.23155e-06
6.49675e-05
-5.1489e-06
5.74916e-05
-4.17658e-06
5.08125e-05
-3.3218e-06
4.48427e-05
-2.58302e-06
3.94778e-05
-1.95325e-06
3.46283e-05
-1.42224e-06
3.03054e-05
-9.78559e-07
2.63806e-05
-6.14381e-07
2.27809e-05
-3.25832e-07
1.9057e-05
-1.20373e-07
1.42708e-05
1.74099e-05
-8.48126e-07
2.78087e-05
-6.57818e-07
2.85578e-05
-5.19236e-07
2.93215e-05
-4.166e-07
3.00992e-05
-3.35007e-07
3.08965e-05
-2.59081e-07
3.17127e-05
-1.74168e-07
3.25533e-05
-7.00013e-08
-1.08358e-06
1.93623e-05
-1.38508e-06
2.15353e-05
-1.76228e-06
2.39466e-05
-2.22175e-06
2.66264e-05
-2.76844e-06
2.96106e-05
-3.40341e-06
3.29354e-05
-4.12582e-06
3.66429e-05
-4.92926e-06
4.07952e-05
-5.80033e-06
4.5459e-05
-6.71916e-06
5.07229e-05
-7.65453e-06
5.66935e-05
-8.56362e-06
6.35072e-05
-9.38932e-06
7.13283e-05
-1.00632e-05
7.90774e-05
-1.05139e-05
8.0266e-05
-1.07299e-05
8.1624e-05
-1.0694e-05
8.31251e-05
-1.04039e-05
8.47253e-05
-9.87247e-06
8.6388e-05
-9.12606e-06
8.80659e-05
-8.19998e-06
9.4607e-05
-7.07042e-06
8.38624e-05
-7.43004e-06
7.446e-05
-6.18645e-06
6.60051e-05
-5.0631e-06
5.83782e-05
-4.07255e-06
5.15633e-05
-3.21497e-06
4.54746e-05
-2.48348e-06
4.00081e-05
-1.867e-06
3.50731e-05
-1.35259e-06
3.06795e-05
-9.26809e-07
2.6693e-05
-5.8013e-07
2.30352e-05
-3.07203e-07
1.92438e-05
-1.13593e-07
1.43844e-05
1.74026e-05
-1.07632e-06
2.77887e-05
-8.28121e-07
2.85457e-05
-6.45755e-07
2.93155e-05
-5.13253e-07
3.00977e-05
-4.15099e-07
3.0898e-05
-3.36504e-07
3.17158e-05
-2.62155e-07
3.25563e-05
-1.77121e-07
3.34192e-05
-7.11574e-08
-1.37341e-06
1.93507e-05
-1.74522e-06
2.15183e-05
-2.19849e-06
2.39233e-05
-2.73857e-06
2.65965e-05
-3.36729e-06
2.95744e-05
-4.08513e-06
3.28947e-05
-4.88775e-06
3.66014e-05
-5.76484e-06
4.07597e-05
-6.70084e-06
4.54406e-05
-7.67022e-06
5.07386e-05
-8.63718e-06
5.67671e-05
-9.55252e-06
6.36704e-05
-1.03558e-05
7.16209e-05
-1.09741e-05
7.95376e-05
-1.13368e-05
8.0873e-05
-1.14433e-05
8.23733e-05
-1.12837e-05
8.40049e-05
-1.08651e-05
8.57179e-05
-1.02095e-05
8.74714e-05
-9.3501e-06
8.9216e-05
-8.32794e-06
9.58646e-05
-8.80887e-06
8.52412e-05
-7.38358e-06
7.56572e-05
-6.08745e-06
6.70294e-05
-4.93911e-06
5.92447e-05
-3.94251e-06
5.22908e-05
-3.09138e-06
4.60825e-05
-2.37379e-06
4.05148e-05
-1.77522e-06
3.54957e-05
-1.2803e-06
3.1033e-05
-8.74025e-07
2.69869e-05
-5.45577e-07
2.32735e-05
-2.88398e-07
1.94186e-05
-1.06667e-07
1.44911e-05
1.73913e-05
-1.36212e-06
2.77575e-05
-1.04504e-06
2.85248e-05
-8.07177e-07
2.93027e-05
-6.32977e-07
3.00912e-05
-5.06724e-07
3.0896e-05
-4.13086e-07
3.17168e-05
-3.37529e-07
3.25589e-05
-2.64831e-07
3.34218e-05
-1.79805e-07
3.4305e-05
-7.21591e-08
-1.72864e-06
1.93341e-05
-2.17563e-06
2.14954e-05
-2.70871e-06
2.38934e-05
-3.33026e-06
2.65595e-05
-4.04172e-06
2.9531e-05
-4.84038e-06
3.28473e-05
-5.71835e-06
3.65549e-05
-6.6636e-06
4.07225e-05
-7.65541e-06
4.54258e-05
-8.66406e-06
5.07654e-05
-9.64756e-06
5.68622e-05
-1.05533e-05
6.38679e-05
-1.13155e-05
7.19623e-05
-1.18597e-05
8.00604e-05
-1.21182e-05
8.15479e-05
-1.21016e-05
8.31912e-05
-1.18098e-05
8.49497e-05
-1.12595e-05
8.67679e-05
-1.04804e-05
8.86017e-05
-9.51262e-06
9.04007e-05
-1.03941e-05
9.74498e-05
-8.76609e-06
8.66237e-05
-7.2725e-06
7.68422e-05
-5.94232e-06
6.80326e-05
-4.7835e-06
6.00857e-05
-3.79201e-06
5.29914e-05
-2.95534e-06
4.66641e-05
-2.25727e-06
4.09969e-05
-1.6802e-06
3.58956e-05
-1.20689e-06
3.13658e-05
-8.21222e-07
2.72625e-05
-5.11261e-07
2.34964e-05
-2.69778e-07
1.95817e-05
-9.97591e-08
1.45909e-05
1.73754e-05
-1.71272e-06
2.77124e-05
-1.31706e-06
2.84924e-05
-1.01263e-06
2.92807e-05
-7.85232e-07
3.00776e-05
-6.19353e-07
3.08888e-05
-4.99501e-07
3.17142e-05
-4.10519e-07
3.25595e-05
-3.3814e-07
3.34242e-05
-2.67145e-07
3.43074e-05
-1.822e-07
3.52189e-05
-7.30139e-08
-2.15352e-06
1.9312e-05
-2.67947e-06
2.14662e-05
-3.29333e-06
2.38565e-05
-3.99724e-06
2.6515e-05
-4.78969e-06
2.94803e-05
-5.66475e-06
3.27937e-05
-6.61323e-06
3.65046e-05
-7.61837e-06
4.06855e-05
-8.65566e-06
4.54174e-05
-9.68955e-06
5.08074e-05
-1.06747e-05
5.69835e-05
-1.15525e-05
6.4105e-05
-1.22551e-05
7.23577e-05
-1.27079e-05
8.06501e-05
-1.28465e-05
8.22928e-05
-1.26961e-05
8.40775e-05
-1.22667e-05
8.59568e-05
-1.15832e-05
8.78707e-05
-1.06837e-05
8.97728e-05
-1.18962e-05
9.19027e-05
-1.03642e-05
9.90479e-05
-8.6464e-06
8.79976e-05
-7.10598e-06
7.80059e-05
-5.75889e-06
6.9008e-05
-4.60295e-06
6.08966e-05
-3.62628e-06
5.36624e-05
-2.8109e-06
4.72177e-05
-2.13675e-06
4.14534e-05
-1.58389e-06
3.62726e-05
-1.13371e-06
3.16783e-05
-7.69109e-07
2.75204e-05
-4.77683e-07
2.37043e-05
-2.51612e-07
1.97336e-05
-9.29822e-08
1.46838e-05
1.73543e-05
-2.1324e-06
2.76504e-05
-1.65067e-06
2.84459e-05
-1.2706e-06
2.92473e-05
-9.79159e-07
3.00547e-05
-7.62369e-07
3.08744e-05
-6.04987e-07
3.17064e-05
-4.91656e-07
3.25564e-05
-4.07404e-07
3.34243e-05
-3.38247e-07
3.43093e-05
-2.69048e-07
3.5221e-05
-1.84296e-07
3.61547e-05
-7.37145e-08
-2.65127e-06
1.92838e-05
-3.2572e-06
2.14301e-05
-3.95286e-06
2.38121e-05
-4.73762e-06
2.64629e-05
-5.60706e-06
2.94227e-05
-6.55426e-06
3.27347e-05
-7.56571e-06
3.64519e-05
-8.62131e-06
4.06511e-05
-9.69107e-06
4.5419e-05
-1.07362e-05
5.0869e-05
-1.17054e-05
5.71364e-05
-1.25372e-05
6.43871e-05
-1.31623e-05
7.28121e-05
-1.35066e-05
8.13102e-05
-1.35123e-05
8.3109e-05
-1.32202e-05
8.5031e-05
-1.26494e-05
8.7023e-05
-1.18341e-05
8.90211e-05
-1.33909e-05
9.12675e-05
-1.1888e-05
9.34266e-05
-1.02426e-05
0.000100644
-8.46027e-06
8.93519e-05
-6.89327e-06
7.91403e-05
-5.54514e-06
6.99502e-05
-4.40378e-06
6.16741e-05
-3.4502e-06
5.43017e-05
-2.66151e-06
4.77425e-05
-2.01467e-06
4.18842e-05
-1.488e-06
3.66269e-05
-1.06167e-06
3.19709e-05
-7.18352e-07
2.7761e-05
-4.45202e-07
2.38979e-05
-2.34072e-07
1.98747e-05
-8.64255e-08
1.47703e-05
1.73274e-05
-2.62438e-06
2.75681e-05
-2.05012e-06
2.8382e-05
-1.58678e-06
2.91992e-05
-1.22252e-06
3.00199e-05
-9.44392e-07
3.08506e-05
-7.38554e-07
3.16913e-05
-5.899e-07
3.25479e-05
-4.83169e-07
3.34206e-05
-4.03734e-07
3.4309e-05
-3.37904e-07
3.52225e-05
-2.70557e-07
3.61565e-05
-1.86096e-07
3.65885e-05
-7.42617e-08
-3.2224e-06
1.9249e-05
-3.90944e-06
2.13866e-05
-4.68559e-06
2.37601e-05
-5.54754e-06
2.64034e-05
-6.49017e-06
2.93586e-05
-7.50263e-06
3.26716e-05
-8.56846e-06
3.6399e-05
-9.66246e-06
4.06225e-05
-1.07517e-05
4.54344e-05
-1.17914e-05
5.0955e-05
-1.2727e-05
5.73261e-05
-1.34948e-05
6.47196e-05
-1.40246e-05
7.33301e-05
-1.42456e-05
8.20435e-05
-1.41081e-05
8.39969e-05
-1.36682e-05
8.60498e-05
-1.29552e-05
8.81441e-05
-1.48705e-05
9.05007e-05
-1.34154e-05
9.2795e-05
-1.17742e-05
9.49582e-05
-1.00413e-05
0.000102225
-8.21824e-06
9.06768e-05
-6.64384e-06
8.0239e-05
-5.30867e-06
7.08551e-05
-4.19189e-06
6.24158e-05
-3.26799e-06
5.49082e-05
-2.51018e-06
4.8238e-05
-1.89317e-06
4.22894e-05
-1.3937e-06
3.69589e-05
-9.91642e-07
3.22442e-05
-6.69421e-07
2.79853e-05
-4.14037e-07
2.40779e-05
-2.17298e-07
2.00055e-05
-8.01553e-08
1.48504e-05
1.72943e-05
-3.18924e-06
2.74621e-05
-2.51842e-06
2.82979e-05
-1.96602e-06
2.91338e-05
-1.52135e-06
2.99706e-05
-1.17319e-06
3.08149e-05
-9.08652e-07
3.16666e-05
-7.13834e-07
3.25321e-05
-5.74018e-07
3.34115e-05
-4.74047e-07
3.43047e-05
-3.99512e-07
3.52216e-05
-3.37092e-07
3.61576e-05
-2.71653e-07
3.659e-05
-1.87559e-07
3.55524e-05
-7.46536e-08
-3.8676e-06
1.92071e-05
-4.63462e-06
2.13357e-05
-5.48788e-06
2.37004e-05
-6.42363e-06
2.63368e-05
-7.43316e-06
2.92891e-05
-8.50302e-06
3.26062e-05
-9.61207e-06
3.63487e-05
-1.07324e-05
4.06032e-05
-1.18253e-05
4.54683e-05
-1.28426e-05
5.10706e-05
-1.37268e-05
5.75581e-05
-1.44125e-05
6.51075e-05
-1.48311e-05
7.39155e-05
-1.49166e-05
8.2852e-05
-1.46271e-05
8.49558e-05
-1.40363e-05
8.7131e-05
-1.63254e-05
8.95989e-05
-1.49404e-05
9.20257e-05
-1.33207e-05
9.43414e-05
-1.15679e-05
9.64848e-05
-9.77245e-06
0.000103779
-7.93134e-06
9.19643e-05
-6.36654e-06
8.12968e-05
-5.05653e-06
7.17198e-05
-3.97234e-06
6.31202e-05
-3.08328e-06
5.54813e-05
-2.35952e-06
4.87043e-05
-1.77368e-06
4.26694e-05
-1.30206e-06
3.72694e-05
-9.24222e-07
3.2499e-05
-6.22594e-07
2.81938e-05
-3.8437e-07
2.42449e-05
-2.0139e-07
2.01268e-05
-7.42103e-08
1.49246e-05
1.72544e-05
-3.82774e-06
2.73298e-05
-3.05689e-06
2.81899e-05
-2.41043e-06
2.90475e-05
-1.87971e-06
2.99036e-05
-1.45431e-06
3.07642e-05
-1.12251e-06
3.16297e-05
-8.71827e-07
3.25066e-05
-6.88364e-07
3.3395e-05
-5.57518e-07
3.4295e-05
-4.64349e-07
3.52169e-05
-3.94747e-07
3.61563e-05
-3.35804e-07
3.65907e-05
-2.72382e-07
3.55535e-05