/*--------------------------------*- C++ -*----------------------------------*\
  =========                 |
  \\      /  F ield         | OpenFOAM: The Open Source CFD Toolbox
   \\    /   O peration     | Website:  https://openfoam.org
    \\  /    A nd           | Version:  8
     \\/     M anipulation  |
\*---------------------------------------------------------------------------*/
FoamFile
{
    version     2.0;
    format      ascii;
    class       volScalarField;
    location    "0.32";
    object      alphat;
}
// * * * * * * * * * * * * * * * * * * * * * * * * * * * * * * * * * * * * * //

dimensions      [1 -1 -1 0 0 0 0];

internalField   nonuniform List<scalar> 
15677
(
0.000769031
0.00102885
0.0041773
0.00787546
0.0112917
0.0145233
0.0176323
0.0206942
0.0237446
0.0265543
0.0287241
0.0305857
0.0326789
0.0346556
0.0354801
0.0350692
0.0336023
0.0318903
0.0300575
0.0281916
0.0263856
0.0248521
0.0237496
0.0229164
0.022093
0.0212195
0.0202602
0.019207
0.0180772
0.0169064
0.0157366
0.014595
0.0134997
0.0124605
0.0114816
0.0010026
0.00801157
0.020683
0.0330046
0.042026
0.0483268
0.0522374
0.0550849
0.0573939
0.0585473
0.0563305
0.0530169
0.0496808
0.0486467
0.048083
0.0466305
0.0448451
0.043457
0.042497
0.0421232
0.0416901
0.0416026
0.0418798
0.0422311
0.0424938
0.0425935
0.042496
0.0421831
0.0416533
0.0408753
0.0399211
0.0388738
0.0378055
0.0367655
0.0357819
0.001205
0.0117854
0.0270956
0.0422394
0.0559806
0.0676746
0.0771158
0.0838946
0.0872347
0.0860293
0.0796687
0.0687979
0.0556305
0.0427752
0.0369892
0.0355792
0.0362834
0.0390403
0.0428168
0.0470561
0.0507687
0.0553581
0.0600159
0.0641014
0.0667833
0.0685774
0.0698877
0.0710646
0.0723298
0.0736869
0.0747764
0.0751564
0.0748183
0.0740609
0.0731443
0.000952957
0.00668423
0.0155551
0.0243915
0.0325231
0.0395931
0.0452202
0.0490719
0.0506651
0.051638
0.0507259
0.0489032
0.0461097
0.0424419
0.038316
0.0343349
0.0305961
0.0277574
0.0263902
0.0260706
0.0299788
0.0372548
0.0443504
0.0543056
0.060939
0.0649457
0.0669571
0.0674212
0.067543
0.0672845
0.066861
0.0663873
0.0659871
0.0656283
0.0653697
0.000641847
0.00485317
0.0103568
0.0158952
0.0212065
0.0262034
0.0306848
0.0343688
0.0366913
0.0372392
0.0365071
0.0335536
0.0294022
0.024854
0.0217438
0.0211635
0.0239107
0.0303623
0.0381445
0.0458843
0.0528439
0.0586868
0.06297
0.0662646
0.0687605
0.0707024
0.0722694
0.0735172
0.0744568
0.0751495
0.0756551
0.0760243
0.0762951
0.0765
0.0766563
0.000276384
0.00100201
0.00226866
0.00356109
0.00483867
0.00609158
0.00717018
0.00774273
0.00848206
0.00908487
0.010095
0.0118711
0.0143777
0.0184568
0.0234583
0.0291316
0.0355115
0.0425054
0.0496489
0.056408
0.0617456
0.0657383
0.0687055
0.0709413
0.072642
0.0739338
0.0748807
0.0755261
0.0759479
0.0762089
0.076367
0.0764473
0.0764608
0.0764149
0.0763206
0.000288759
0.00173564
0.00445095
0.00758785
0.0109263
0.0144564
0.0182659
0.0224389
0.027073
0.0322241
0.037933
0.0443523
0.0515812
0.0590557
0.0653569
0.0703054
0.073966
0.076205
0.0776082
0.0784733
0.0789111
0.0789261
0.0787466
0.0786487
0.0787544
0.0790691
0.0795544
0.0801608
0.0808059
0.0813867
0.0818131
0.0820547
0.082123
0.0820742
0.0819533
0.000235878
0.00233505
0.00563346
0.00958643
0.0141438
0.0192806
0.0249414
0.0310621
0.0375472
0.0442589
0.0510392
0.0576911
0.063826
0.0692458
0.0732601
0.0759789
0.0778195
0.0790128
0.079747
0.0801902
0.080457
0.0805017
0.0804091
0.0802439
0.0799723
0.0796378
0.079253
0.0788267
0.078385
0.0779334
0.0774813
0.0770521
0.0766515
0.0762785
0.0759331
0.000307549
0.00235868
0.00618287
0.0109443
0.0163965
0.0224302
0.0289474
0.0358257
0.0429119
0.0500129
0.0569278
0.0633823
0.069132
0.0739729
0.0773778
0.0795155
0.0807623
0.0814509
0.0818118
0.0819904
0.0820497
0.0820057
0.0818526
0.0816165
0.0813973
0.0811538
0.0808621
0.0805019
0.080066
0.0795804
0.0790696
0.0785525
0.0780491
0.0775763
0.0771393
0.000274629
0.00280924
0.00694263
0.011982
0.017738
0.024097
0.0309372
0.0381025
0.045401
0.052637
0.0595535
0.0658891
0.0714013
0.0758786
0.0788818
0.0807865
0.0820522
0.0828521
0.0833322
0.0835856
0.0835985
0.0832862
0.0826666
0.0817796
0.0807382
0.0796686
0.0786522
0.0777264
0.0768951
0.0761474
0.0754714
0.0748582
0.0743016
0.073796
0.073339
0.000301507
0.00268127
0.00692548
0.0121753
0.0181733
0.024787
0.0318887
0.0393152
0.0468573
0.0543067
0.0613977
0.0678702
0.0734969
0.0780994
0.0812121
0.083113
0.0841874
0.0846652
0.0847327
0.0845127
0.084102
0.083573
0.0829667
0.0822584
0.0814686
0.0806303
0.0797724
0.0789267
0.0781146
0.0773444
0.0766226
0.0759509
0.0753289
0.074755
0.0742262
0.000283139
0.00294309
0.00741461
0.0129056
0.0191653
0.0260283
0.0333305
0.0408698
0.0484208
0.0558193
0.0627916
0.0691205
0.0746213
0.0791475
0.0822504
0.0841567
0.0852176
0.0856682
0.0856957
0.085425
0.0849245
0.0842292
0.0834132
0.0825168
0.0815839
0.0806602
0.0797675
0.0789134
0.0781013
0.077333
0.0766098
0.0759322
0.0753
0.0747124
0.0741707
0.000289119
0.00281821
0.00722309
0.0126669
0.0188983
0.025765
0.0331121
0.0407452
0.0484349
0.0560001
0.0631606
0.0696738
0.0753238
0.0799306
0.08302
0.0848476
0.0857963
0.0861111
0.0859876
0.0855745
0.0849741
0.0842633
0.0835302
0.0827861
0.0820298
0.0812679
0.0805124
0.0797745
0.0790626
0.0783825
0.0777376
0.0771306
0.0765625
0.0760334
0.0755416
0.000278036
0.00295289
0.00743709
0.0129235
0.0191729
0.0260331
0.0333516
0.0409362
0.0485601
0.0560576
0.0631645
0.0696477
0.0753056
0.0799613
0.0831137
0.0850049
0.0860076
0.0863564
0.0862389
0.0857999
0.0851435
0.0843536
0.0835453
0.0827567
0.0820001
0.0812765
0.0805852
0.0799265
0.0793026
0.0787151
0.0781647
0.0776517
0.0771754
0.0767346
0.0763277
0.00027844
0.0028829
0.00730936
0.0127359
0.0189244
0.0257273
0.0329959
0.04055
0.0481745
0.0556814
0.0628353
0.0693839
0.07511
0.0798169
0.083008
0.0849271
0.0859482
0.0863007
0.0861694
0.0857044
0.085024
0.084239
0.0834651
0.0827331
0.0820479
0.0814089
0.0808134
0.0802585
0.079742
0.0792622
0.0788172
0.0784056
0.0780254
0.077675
0.0773526
0.000272407
0.00298738
0.00750335
0.0129887
0.0192028
0.0259945
0.0332156
0.0406943
0.0482237
0.0556161
0.0626737
0.0691436
0.0748105
0.0794844
0.0826832
0.0846372
0.0857089
0.0861141
0.0860237
0.0855764
0.0848846
0.0840647
0.0832525
0.0824966
0.0818078
0.0811845
0.0806208
0.0801105
0.0796476
0.0792274
0.0788457
0.0784993
0.078185
0.0779004
0.077643
0.000268265
0.00293332
0.00739348
0.0128214
0.0189774
0.0257121
0.0328815
0.0403188
0.0478164
0.0551798
0.0622147
0.0686663
0.0743229
0.0790007
0.0822233
0.0842158
0.0853375
0.0857977
0.0857595
0.0853538
0.0846903
0.0838834
0.0830714
0.0823089
0.0816143
0.0809912
0.0804359
0.0799421
0.0795031
0.0791125
0.0787648
0.0784549
0.0781788
0.0779329
0.077714
0.000261134
0.00295542
0.00739189
0.0127608
0.0188409
0.0254944
0.032583
0.039944
0.047373
0.0546743
0.0616651
0.0680895
0.0737379
0.0784285
0.0816847
0.0837244
0.0849048
0.0854309
0.0854597
0.0851146
0.0844956
0.0837137
0.0829087
0.0821421
0.0814382
0.0808049
0.0802417
0.0797438
0.0793049
0.0789188
0.0785791
0.0782806
0.0780184
0.0777884
0.0775869
0.000254846
0.00289827
0.00725849
0.0125435
0.0185375
0.0251065
0.0321155
0.0394057
0.0467781
0.0540387
0.0610056
0.0674263
0.0730907
0.0778153
0.0811181
0.0832105
0.0844503
0.0850418
0.0851404
0.0848663
0.0843147
0.0835892
0.0828232
0.0820801
0.0813885
0.0807604
0.0801985
0.0797005
0.0792614
0.0788755
0.0785372
0.078241
0.077982
0.0777557
0.0775583
0.000248305
0.0028858
0.00719587
0.0124051
0.0183098
0.0247836
0.0316981
0.0389012
0.0461997
0.0534016
0.0603333
0.0667434
0.0724223
0.0771846
0.0805399
0.0826901
0.0839924
0.0846511
0.0848215
0.0846223
0.0841463
0.0834916
0.0827841
0.0820864
0.0814285
0.0808246
0.0802797
0.0797934
0.0793625
0.0789824
0.0786482
0.078355
0.0780982
0.0778736
0.0776775
0.000242386
0.00284001
0.00707773
0.012199
0.0180083
0.0243852
0.0312067
0.038327
0.0455589
0.0527124
0.0596192
0.0660303
0.0717355
0.0765467
0.079963
0.082176
0.083543
0.0842687
0.0845096
0.0843859
0.0839898
0.0834149
0.0827796
0.0821445
0.0815393
0.080979
0.0804697
0.0800122
0.0796044
0.079243
0.0789237
0.0786423
0.0783948
0.0781772
0.0779862
0.000236556
0.00281484
0.00699306
0.0120318
0.0177457
0.0240217
0.0307438
0.0377735
0.0449308
0.0520278
0.0589053
0.0653154
0.0710479
0.0759114
0.079393
0.0816724
0.0831057
0.0838979
0.0842073
0.0841558
0.0838375
0.083343
0.0827844
0.0822197
0.0816778
0.0811734
0.0807126
0.0802969
0.079925
0.079594
0.0793005
0.0790408
0.0788113
0.0786087
0.0784299
0.000231253
0.00277569
0.00688553
0.0118378
0.0174558
0.0236326
0.0302582
0.0372005
0.0442879
0.0513332
0.0581858
0.0645996
0.0703641
0.0752845
0.0788352
0.0811832
0.0826834
0.0835409
0.0839157
0.0839321
0.0836864
0.0832682
0.0827844
0.0822911
0.0818159
0.0813728
0.0809676
0.0806017
0.080274
0.079982
0.0797227
0.0794928
0.0792891
0.0791087
0.0789488
0.000226225
0.00274754
0.00679755
0.0116687
0.0171931
0.0232707
0.0297983
0.0366506
0.0436651
0.0506555
0.0574809
0.0638971
0.0696934
0.0746717
0.0782929
0.0807104
0.0822775
0.0831985
0.0836349
0.0837137
0.0835339
0.083185
0.0827699
0.0823436
0.0819328
0.0815504
0.0812018
0.0808879
0.0806076
0.0803585
0.0801376
0.079942
0.0797688
0.0796153
0.0794791
0.00022162
0.00271441
0.00670253
0.0114934
0.0169269
0.0229091
0.0293426
0.0361088
0.0430536
0.0499955
0.056792
0.0632116
0.0690403
0.0740768
0.0777686
0.0802554
0.0818884
0.0828707
0.0833649
0.0835004
0.0833791
0.0830908
0.0827363
0.0823698
0.0820173
0.0816911
0.0813958
0.081132
0.0808982
0.0806918
0.08051
0.0803499
0.0802087
0.0800839
0.0799735
0.000217386
0.00268735
0.00661956
0.0113349
0.016681
0.0225703
0.0289113
0.0355923
0.042468
0.0493621
0.056128
0.0625499
0.0684093
0.0735021
0.0772629
0.0798178
0.0815149
0.082556
0.0831041
0.0832905
0.08322
0.0829833
0.0826799
0.0823641
0.0820617
0.0817844
0.0815362
0.0813173
0.0811258
0.0809588
0.0808136
0.0806871
0.0805767
0.08048
0.080395
0.000213535
0.00265932
0.00653535
0.0111763
0.0164377
0.0222381
0.028492
0.0350931
0.0419044
0.048754
0.0554906
0.0619141
0.0678022
0.0729485
0.0767753
0.0793955
0.0811542
0.0822509
0.0828486
0.0830801
0.0830525
0.0828578
0.0825952
0.0823198
0.0820575
0.0818198
0.0816103
0.0814286
0.0812725
0.0811392
0.0810253
0.0809281
0.0808446
0.0807728
0.0807106
0.000210912
0.0026175
0.00643122
0.0110007
0.0161854
0.0219071
0.0280838
0.0346137
0.0413665
0.0481748
0.0548829
0.0613066
0.0672199
0.072415
0.0763034
0.078985
0.0808014
0.0819497
0.0825921
0.0828622
0.0828692
0.0827062
0.0824732
0.0822264
0.0819925
0.0817829
0.0816011
0.0814464
0.0813165
0.081208
0.0811177
0.0810425
0.0809797
0.0809269
0.0808823
0.000209089
0.00257204
0.00632605
0.0108292
0.0159431
0.0215919
0.0276971
0.0341606
0.0408583
0.0476268
0.0543065
0.0607277
0.0666617
0.0718999
0.0758437
0.0785812
0.0804503
0.0816449
0.082326
0.0826274
0.0826594
0.0825166
0.0823003
0.0820686
0.0818492
0.0816539
0.0814862
0.0813455
0.0812292
0.0811338
0.081056
0.0809927
0.080941
0.0808986
0.0808636
0.000207522
0.00253011
0.00622922
0.0106712
0.0157194
0.0213002
0.0273381
0.0337385
0.0403829
0.0471117
0.0537617
0.0601769
0.0661262
0.0714002
0.075392
0.0781787
0.0800939
0.081328
0.0820404
0.0823643
0.0824104
0.0822745
0.0820602
0.0818278
0.0816063
0.0814086
0.0812384
0.0810954
0.0809768
0.0808793
0.0807996
0.0807344
0.0806809
0.0806369
0.0806004
0.0101906
0.00860663
0.0071759
0.00591225
0.00481462
0.0038769
0.00309505
0.00246484
0.00197605
0.00162011
0.00142066
0.00122937
0.00107922
0.00091952
0.000785454
0.000695476
0.000660705
0.000685524
0.00104972
0.00172378
0.00217503
0.00207697
0.0344629
0.0327155
0.0308732
0.0289597
0.0269891
0.0249544
0.0228326
0.020604
0.0184266
0.016453
0.0148704
0.0137128
0.0127065
0.0115862
0.0102477
0.00886098
0.00759026
0.00652964
0.00575143
0.00530345
0.0049099
0.00462075
0.0717773
0.069519
0.0666106
0.0628894
0.0585572
0.0540227
0.0510753
0.0509068
0.0524951
0.0544339
0.0557235
0.0558678
0.0551373
0.0541984
0.0545249
0.0553968
0.055672
0.0547143
0.0523806
0.0488976
0.0442121
0.0389372
0.0650273
0.0645534
0.0639506
0.063119
0.0618573
0.0599871
0.0575971
0.0551015
0.0531876
0.0523553
0.052191
0.0516123
0.0496445
0.0463386
0.0433119
0.0413243
0.0403414
0.0398775
0.0394554
0.0386955
0.0376164
0.0359409
0.0767438
0.0767219
0.0765869
0.0762918
0.0758115
0.0752999
0.0747965
0.0744611
0.0742475
0.0739751
0.0733041
0.0717988
0.0691318
0.0654937
0.0618071
0.057616
0.0534929
0.0498402
0.0468274
0.0444438
0.0426269
0.0412854
0.0761462
0.0757817
0.0752754
0.0745628
0.0735609
0.0722304
0.0707291
0.0691249
0.0675106
0.0660296
0.0647468
0.0636003
0.0624942
0.0613806
0.0588171
0.0560462
0.0531473
0.0502735
0.0475819
0.0451858
0.0431458
0.041473
0.0817233
0.0812768
0.0806259
0.0797784
0.0787799
0.0776129
0.0762797
0.074835
0.0733447
0.071926
0.0705665
0.0691972
0.0677437
0.0661599
0.0642986
0.0621907
0.0598784
0.0573768
0.0547739
0.0521956
0.0497503
0.0475124
0.0755493
0.075054
0.0744887
0.0738388
0.0730921
0.0722369
0.0712693
0.0702107
0.0690892
0.0677944
0.0663459
0.0648416
0.0633626
0.0618912
0.0603884
0.0587587
0.0569893
0.0551761
0.0533239
0.0514659
0.0496481
0.0479194
0.0766262
0.0759837
0.0752828
0.0745089
0.0736482
0.0727006
0.0716717
0.0705448
0.0693166
0.0679728
0.0665285
0.0650279
0.0634654
0.0618825
0.0602739
0.0586582
0.057029
0.0553994
0.0537847
0.0522056
0.0506868
0.0492557
0.0728195
0.0721835
0.0715211
0.0708234
0.0700771
0.0692656
0.0683671
0.0673681
0.0662596
0.0650764
0.0637941
0.0623911
0.060965
0.0595652
0.0581855
0.0568302
0.0555046
0.0542176
0.0529809
0.0518081
0.0507137
0.0497142
0.0735571
0.0726996
0.0718124
0.070891
0.0699326
0.0689335
0.0678887
0.0667922
0.0656317
0.0644095
0.0631347
0.0618082
0.0604786
0.0591909
0.0579561
0.0567822
0.0556763
0.0546451
0.053695
0.0528327
0.052065
0.0514041
0.0734762
0.0725523
0.0715837
0.0705771
0.0695349
0.0684587
0.0673491
0.0661999
0.0650303
0.0638343
0.0626184
0.0613995
0.0602204
0.0591137
0.0580862
0.057144
0.056292
0.0555335
0.0548718
0.0543151
0.0538506
0.0534868
0.0748866
0.0739927
0.0730428
0.0720399
0.0709882
0.0698846
0.0687416
0.067567
0.0663637
0.0651417
0.0639133
0.0627024
0.0615576
0.0605121
0.059572
0.058741
0.0580213
0.0574181
0.056922
0.0565307
0.0562446
0.0560589
0.0757852
0.0750271
0.0742111
0.0733374
0.0724065
0.0714205
0.0703743
0.0692858
0.0681629
0.0670115
0.0658459
0.0646928
0.063603
0.0626123
0.0617296
0.0609606
0.0603092
0.059781
0.0593581
0.0590467
0.0588413
0.0587366
0.0769245
0.076321
0.0756611
0.0749418
0.0741612
0.0733189
0.0724161
0.0714488
0.0704335
0.0693843
0.0683088
0.0672315
0.066201
0.065254
0.0644022
0.0636539
0.0630146
0.0624916
0.0620755
0.0617647
0.0615577
0.0614535
0.0773232
0.0768804
0.0763947
0.0758606
0.0752731
0.0746285
0.0739247
0.0731613
0.0723413
0.0714653
0.0705456
0.0696123
0.0686997
0.0678433
0.0670561
0.0663489
0.0657296
0.0652044
0.0647778
0.0644428
0.0642017
0.0640596
0.0774573
0.0771164
0.0767504
0.0763535
0.0759197
0.0754433
0.0749195
0.0743451
0.0737186
0.0730408
0.0723156
0.0715577
0.0707957
0.0700645
0.0693781
0.0687449
0.0681743
0.0676733
0.067249
0.0668999
0.0666286
0.0664433
0.0773597
0.0770695
0.0767714
0.0764601
0.0761302
0.0757759
0.0753916
0.0749722
0.0745136
0.0740131
0.0734706
0.0728927
0.0723018
0.0717208
0.0711604
0.0706304
0.0701395
0.0696952
0.0693035
0.0689686
0.0686929
0.0684839
0.0773304
0.0770405
0.0767543
0.0764689
0.0761806
0.0758851
0.0755775
0.075253
0.0749065
0.0745338
0.0741318
0.0737022
0.073259
0.0728171
0.0723833
0.0719647
0.071568
0.0711997
0.0708653
0.0705694
0.0703153
0.0701092
0.0774391
0.0771273
0.0768234
0.0765272
0.0762373
0.0759519
0.0756681
0.0753824
0.075091
0.0747897
0.0744747
0.0741451
0.0738087
0.0734743
0.0731448
0.072824
0.0725159
0.0722251
0.0719556
0.0717113
0.0714953
0.0713115
0.0777388
0.0774011
0.0770694
0.0767454
0.0764302
0.076124
0.0758265
0.0755367
0.0752526
0.0749717
0.074691
0.0744094
0.0741318
0.0738629
0.0736025
0.0733512
0.0731106
0.0728828
0.0726701
0.0724749
0.0722994
0.0721461
0.0781845
0.077834
0.0774837
0.077136
0.0767935
0.0764582
0.0761319
0.0758158
0.0755101
0.0752148
0.0749288
0.0746524
0.0743904
0.0741461
0.073917
0.0737019
0.0735002
0.0733119
0.0731375
0.0729781
0.0728344
0.0727078
0.0787178
0.0783732
0.0780216
0.0776655
0.0773078
0.0769513
0.0765988
0.0762531
0.0759165
0.0755908
0.0752773
0.0749785
0.0747012
0.0744492
0.0742195
0.0740099
0.0738185
0.073644
0.0734856
0.073343
0.0732159
0.0731046
0.0792733
0.0789531
0.0786196
0.0782745
0.0779202
0.0775594
0.077195
0.0768302
0.0764685
0.0761131
0.075767
0.0754348
0.0751263
0.0748472
0.0745953
0.0743684
0.0741644
0.0739816
0.0738184
0.0736735
0.0735461
0.0734355
0.0798004
0.0795194
0.0792204
0.0789043
0.0785723
0.0782262
0.0778685
0.077502
0.0771301
0.0767567
0.0763855
0.0760229
0.0756809
0.0753683
0.0750841
0.0748272
0.0745961
0.0743894
0.0742055
0.0740429
0.0739003
0.0737768
0.0802594
0.0800288
0.0797774
0.0795049
0.0792116
0.0788981
0.0785656
0.0782162
0.0778525
0.0774781
0.0770967
0.0767153
0.0763479
0.0760054
0.0756889
0.0753989
0.075135
0.0748966
0.0746827
0.0744922
0.0743239
0.0741767
0.0806149
0.0804441
0.0802512
0.080035
0.0797944
0.0795289
0.0792386
0.0789241
0.0785871
0.07823
0.0778562
0.0774723
0.0770929
0.0767311
0.0763897
0.0760709
0.0757757
0.0755047
0.075258
0.0750351
0.0748355
0.0746583
0.0808279
0.0807263
0.0806026
0.0804544
0.0802798
0.080077
0.0798446
0.079582
0.0792894
0.0789681
0.0786203
0.0782517
0.0778767
0.0775095
0.0771548
0.0768162
0.0764965
0.0761974
0.0759202
0.0756656
0.0754337
0.0752244
0.0808507
0.0808286
0.0807855
0.0807182
0.0806236
0.0804986
0.0803405
0.0801472
0.0799173
0.0796506
0.0793478
0.0790133
0.0786602
0.0783035
0.0779493
0.0776029
0.0772684
0.0769492
0.0766477
0.0763657
0.0761044
0.0758643
0.0806276
0.0806958
0.0807456
0.0807729
0.0807735
0.0807431
0.0806774
0.0805726
0.0804256
0.0802341
0.0799973
0.0797174
0.0794056
0.0790768
0.0787387
0.078398
0.0780606
0.0777313
0.0774139
0.0771114
0.0768261
0.0765596
0.00166413
0.00136089
0.00174852
0.0030347
0.00409256
0.00467626
0.00450851
0.0079514
0.016756
0.0224957
0.0245267
0.0265523
0.0330537
0.0294528
0.0353436
0.0462509
0.0562134
0.0642931
0.0338127
0.0330721
0.0335924
0.0362178
0.0406738
0.0452605
0.0400498
0.0387519
0.0374484
0.0378054
0.0389164
0.0409395
0.0400558
0.0389458
0.0382829
0.0374959
0.037174
0.0375655
0.0453987
0.0434876
0.0419329
0.0407142
0.039846
0.039426
0.0461614
0.0444871
0.0430825
0.0419859
0.0412242
0.0408266
0.0478091
0.0464777
0.045409
0.044635
0.0441775
0.0440474
0.0487421
0.0479477
0.0474007
0.0471277
0.0471398
0.0474257
0.0508701
0.0505688
0.0505078
0.0506787
0.0510982
0.0517566
0.0532871
0.0533866
0.0536886
0.0541941
0.0548934
0.055777
0.0560794
0.0564164
0.0569271
0.0576012
0.0584275
0.0593956
0.05886
0.0593005
0.0598842
0.0606023
0.0614423
0.0623911
0.0615853
0.0620208
0.0625781
0.0632478
0.0640186
0.0648784
0.0641469
0.064514
0.0649853
0.0655523
0.0662052
0.0669334
0.0664706
0.0667462
0.0671083
0.0675517
0.0680685
0.0686473
0.0684616
0.0686464
0.0689031
0.0692273
0.0696126
0.0700524
0.0700564
0.0701687
0.0703384
0.0705624
0.0708363
0.0711556
0.0712462
0.0713069
0.0714123
0.0715604
0.0717484
0.071973
0.0720807
0.0721076
0.0721695
0.0722647
0.0723914
0.0725474
0.0726467
0.0726541
0.0726888
0.0727497
0.0728358
0.0729456
0.0730467
0.073044
0.0730633
0.0731037
0.0731646
0.0732454
0.0733762
0.0733694
0.0733807
0.0734097
0.0734563
0.07352
0.0737107
0.0737029
0.0737105
0.0737338
0.0737725
0.0738266
0.0740992
0.0740918
0.0740984
0.0741186
0.074153
0.0742014
0.0745663
0.0745598
0.074566
0.0745848
0.0746161
0.0746605
0.0751165
0.0751112
0.0751174
0.0751349
0.0751636
0.0752041
0.0757413
0.0757374
0.0757436
0.0757597
0.0757859
0.075822
0.0764237
0.0764219
0.0764285
0.0764434
0.0764665
0.0764979
0.00469901
0.00443105
0.00391826
0.00327467
0.00272919
0.00263302
0.00328934
0.00432811
0.00573427
0.00742141
0.00909797
0.0105259
0.0116749
0.0126347
0.0135513
0.0145881
0.0158949
0.0175969
0.0196978
0.0219545
0.0239202
0.0254241
0.028989
0.0311635
0.0334621
0.0358742
0.0385401
0.0415185
0.0431107
0.0440099
0.0461038
0.0481168
0.0499884
0.0517307
0.0523478
0.0521643
0.051735
0.0514457
0.0514271
0.0514804
0.0513375
0.0511464
0.0511362
0.0512127
0.0704602
0.0754171
0.0795497
0.0825772
0.0840167
0.0836641
0.0815827
0.0785814
0.0758358
0.0744269
0.0748131
0.076462
0.0790429
0.0818299
0.0842177
0.0860338
0.0871962
0.0877163
0.0877074
0.0872825
0.0867278
0.0861328
0.0490673
0.0513605
0.0527873
0.0535735
0.0538164
0.0539724
0.0541581
0.0547386
0.0559438
0.0579605
0.060771
0.0634916
0.0663785
0.069179
0.071888
0.0746675
0.0773478
0.0794934
0.0808178
0.081434
0.0817545
0.0817943
0.0430239
0.0453321
0.047501
0.0493343
0.0507329
0.051501
0.0522713
0.0529119
0.0538301
0.0550874
0.0565689
0.0588949
0.0614157
0.0642257
0.0675579
0.0714836
0.0753596
0.0796822
0.0841498
0.087816
0.0907954
0.0930274
0.0382535
0.0389587
0.0396727
0.0403446
0.0409579
0.0415318
0.0421491
0.0428851
0.0438176
0.0450124
0.0465271
0.0484387
0.0506488
0.0532154
0.0560539
0.0590582
0.0624423
0.0655512
0.0682564
0.0704918
0.0722527
0.0736379
0.039447
0.0396918
0.0401338
0.0407707
0.0415997
0.042616
0.0438205
0.0452339
0.0469012
0.0488792
0.0511953
0.0538626
0.0568037
0.0598625
0.062934
0.0659195
0.0687372
0.0713064
0.0736073
0.0756492
0.0774587
0.0790732
0.0408483
0.0411519
0.0416798
0.0424222
0.0433733
0.0445301
0.0459105
0.0475261
0.0493887
0.0514981
0.0538379
0.0563633
0.0589508
0.0614802
0.0638925
0.0661432
0.0682078
0.0700792
0.0717759
0.0733076
0.0747022
0.0759999
0.0443147
0.0448985
0.0457297
0.0468145
0.0481542
0.0497464
0.0515835
0.0536491
0.0559149
0.0583431
0.0608961
0.0635151
0.0660871
0.0685256
0.0708118
0.0729419
0.0749217
0.076762
0.0784771
0.080081
0.0815866
0.0830064
0.0480436
0.0489748
0.0501308
0.0515054
0.0530856
0.0548515
0.0567768
0.0588335
0.0609946
0.0632316
0.0655151
0.0677995
0.0699993
0.0720659
0.0740003
0.0758075
0.0774965
0.0790755
0.0805518
0.0819314
0.0832179
0.0844121
0.0526745
0.053874
0.0552494
0.0567883
0.0584715
0.0602772
0.0621864
0.0641794
0.0662355
0.0683338
0.0704527
0.0725566
0.0745776
0.0764653
0.0782189
0.0798397
0.0813301
0.082693
0.0839322
0.0850521
0.0860581
0.0869579
0.0568503
0.0581372
0.0595453
0.0610616
0.0626716
0.0643594
0.0661085
0.0679014
0.0697198
0.0715435
0.0733623
0.0751412
0.0768174
0.0783539
0.0797523
0.081016
0.0821495
0.0831587
0.08405
0.0848305
0.0855075
0.086087
0.0605026
0.0617733
0.0631286
0.0645566
0.0660446
0.067579
0.0691455
0.0707256
0.0723111
0.0738836
0.0754272
0.0769146
0.0782928
0.0795333
0.0806394
0.0816163
0.08247
0.0832073
0.0838357
0.084363
0.0847974
0.0851479
0.0634486
0.064628
0.0658625
0.0671416
0.0684542
0.0697854
0.0711277
0.0724655
0.0737853
0.0750731
0.0763146
0.0774868
0.078548
0.0794792
0.0802864
0.0809769
0.0815591
0.082042
0.0824348
0.0827472
0.082989
0.08317
0.0658357
0.0668806
0.0679592
0.0690629
0.070182
0.0713055
0.0724225
0.0735214
0.0745905
0.075618
0.0765922
0.0774951
0.0782956
0.0789825
0.0795639
0.080049
0.0804472
0.0807685
0.0810228
0.0812195
0.0813678
0.0814765
0.0677572
0.0686454
0.069553
0.0704715
0.071392
0.0723056
0.0732027
0.0740738
0.0749093
0.0757
0.0764369
0.077107
0.0776892
0.0781784
0.0785842
0.0789162
0.0791843
0.0793981
0.0795669
0.0796991
0.0798027
0.0798847
0.0693243
0.0700515
0.0707873
0.0715247
0.0722562
0.0729744
0.0736719
0.0743413
0.0749755
0.075568
0.0761133
0.0766031
0.0770241
0.0773759
0.0776678
0.0779094
0.0781096
0.0782769
0.078419
0.0785426
0.0786536
0.0787569
0.0705836
0.0711564
0.0717307
0.0723012
0.072862
0.0734076
0.0739325
0.0744316
0.0749004
0.0753354
0.0757337
0.0760915
0.0764014
0.076665
0.076891
0.0770875
0.0772619
0.0774207
0.0775693
0.0777124
0.0778536
0.0779954
0.0715563
0.0719908
0.0724237
0.0728509
0.0732681
0.0736717
0.0740584
0.0744254
0.0747706
0.0750929
0.0753924
0.0756681
0.0759163
0.0761391
0.0763431
0.0765346
0.0767186
0.0768992
0.0770796
0.077262
0.077448
0.0776387
0.0722663
0.0725864
0.0729045
0.0732179
0.0735241
0.0738214
0.0741082
0.0743837
0.0746481
0.0749021
0.0751476
0.0753855
0.0756133
0.0758317
0.0760452
0.0762574
0.0764708
0.0766874
0.0769081
0.0771332
0.0773627
0.0775957
0.0727593
0.0729932
0.0732271
0.0734597
0.0736901
0.073918
0.0741435
0.0743674
0.0745909
0.0748162
0.0750458
0.0752813
0.0755193
0.0757581
0.0759997
0.0762454
0.0764957
0.0767503
0.0770089
0.0772705
0.0775341
0.077798
0.0731018
0.0732789
0.0734597
0.0736441
0.0738325
0.0740255
0.0742244
0.0744305
0.0746458
0.0748727
0.0751136
0.0753695
0.0756348
0.0759052
0.0761807
0.0764606
0.0767438
0.0770292
0.0773153
0.0776007
0.077884
0.0781634
0.0733687
0.0735165
0.0736726
0.0738378
0.0740129
0.0741994
0.0743985
0.0746121
0.0748417
0.0750894
0.0753569
0.0756436
0.0759416
0.0762442
0.0765499
0.0768569
0.0771635
0.0774679
0.0777685
0.078064
0.0783529
0.0786339
0.0736285
0.0737704
0.0739251
0.0740935
0.074277
0.0744769
0.0746943
0.0749305
0.0751867
0.0754638
0.0757625
0.0760806
0.0764079
0.0767361
0.0770629
0.0773861
0.0777039
0.0780145
0.0783166
0.0786091
0.0788909
0.0791613
0.0739335
0.0740869
0.0742566
0.0744436
0.0746491
0.0748739
0.0751188
0.0753842
0.0756704
0.0759774
0.0763046
0.0766484
0.0769967
0.0773404
0.0776772
0.0780048
0.0783216
0.0786263
0.0789179
0.0791959
0.0794598
0.079709
0.0743149
0.0744909
0.0746856
0.0748997
0.0751337
0.0753881
0.0756627
0.0759573
0.0762711
0.0766032
0.0769519
0.0773124
0.0776714
0.0780195
0.0783546
0.0786748
0.0789789
0.0792661
0.079536
0.0797885
0.0800236
0.0802414
0.0747847
0.0749892
0.0752133
0.0754572
0.075721
0.0760042
0.0763062
0.0766259
0.0769615
0.0773112
0.0776725
0.0780394
0.0783978
0.0787386
0.0790599
0.0793605
0.0796397
0.0798972
0.0801331
0.080348
0.0805423
0.0807168
0.0753402
0.0755747
0.0758285
0.0761011
0.0763922
0.0767007
0.0770251
0.0773634
0.0777132
0.0780716
0.0784351
0.0787969
0.0791422
0.0794626
0.0797566
0.0800236
0.0802634
0.0804765
0.0806638
0.0808263
0.0809654
0.0810824
0.0759692
0.0762324
0.0765132
0.0768112
0.0771251
0.0774533
0.0777934
0.0781426
0.0784975
0.0788542
0.079208
0.0795508
0.079868
0.0801518
0.0804015
0.0806171
0.0807995
0.0809501
0.0810705
0.081163
0.0812296
0.0812728
0.0766544
0.0769427
0.0772467
0.0775651
0.0778961
0.0782371
0.0785849
0.0789356
0.0792845
0.0796263
0.0799549
0.0802611
0.0805304
0.0807568
0.0809404
0.0810826
0.0811854
0.0812516
0.0812843
0.0812867
0.0812624
0.0812145
0.0262808
0.0268983
0.0275505
0.0282552
0.0290242
0.0298596
0.0307546
0.0316949
0.0326617
0.0336307
0.0346015
0.0355952
0.0366102
0.0375807
0.0386613
0.0397182
0.040608
0.0413638
0.0420486
0.0426502
0.0429186
0.0418222
0.0380294
0.0346201
0.0312759
0.027502
0.0237437
0.0202651
0.0170031
0.0138883
0.010822
0.00766933
0.00425082
0.0011438
0.000737428
0.0513424
0.0514145
0.0515216
0.051682
0.0519105
0.0522168
0.0526053
0.0530861
0.0536708
0.0543169
0.0549803
0.0556202
0.0562525
0.0567721
0.0571515
0.0575871
0.0582129
0.0579791
0.0582244
0.059126
0.0602353
0.0613489
0.0624795
0.0638029
0.0658975
0.0657383
0.0638739
0.0611755
0.0577529
0.0525446
0.0450927
0.034366
0.0209876
0.00812168
0.0010019
0.08556
0.0850461
0.0845193
0.0840058
0.0835258
0.0831414
0.0828787
0.0826549
0.0823141
0.0816698
0.0805369
0.0787663
0.0760986
0.0722114
0.0668478
0.0621142
0.0560883
0.0526703
0.050065
0.0495064
0.0515054
0.0572177
0.0694994
0.0807287
0.0899614
0.0944748
0.0938968
0.0890913
0.0810368
0.0703885
0.0575852
0.0430148
0.0273477
0.0118249
0.0011955
0.0816841
0.0815478
0.081347
0.0811204
0.0805471
0.079369
0.0774629
0.0748711
0.0718088
0.0685912
0.0654696
0.062373
0.0588231
0.0520678
0.0456723
0.0364169
0.0339032
0.0361778
0.0414818
0.0472671
0.051331
0.0544108
0.0570369
0.058978
0.0600574
0.0599938
0.0580349
0.0552642
0.0501283
0.043243
0.0350862
0.0260017
0.016416
0.00700304
0.000969671
0.0942446
0.0949657
0.0953805
0.0953727
0.0948258
0.0936114
0.0917176
0.089143
0.0860264
0.0826182
0.0791449
0.0758338
0.0728438
0.0700189
0.0661857
0.0532462
0.0399604
0.0286353
0.0266498
0.0306413
0.0373102
0.0438646
0.04906
0.0515962
0.0519785
0.0505787
0.0479121
0.0435819
0.0382692
0.0322988
0.0258866
0.0192145
0.0123632
0.00567661
0.00071511
0.0745579
0.0753269
0.0761133
0.0768931
0.0777045
0.0785655
0.0794303
0.0802041
0.0807321
0.0808015
0.0802832
0.0790357
0.0768109
0.0733055
0.0667034
0.0558473
0.0451662
0.0378583
0.0307448
0.024539
0.020224
0.017428
0.0163302
0.0158581
0.0155866
0.0149618
0.0141941
0.0131711
0.011491
0.00955706
0.0075438
0.00549835
0.00348058
0.00153442
0.000338745
0.0802619
0.0811717
0.0821221
0.0830788
0.0840065
0.0848351
0.0855514
0.0861216
0.0863893
0.0862303
0.085655
0.0848757
0.0842425
0.0839838
0.0838484
0.0828709
0.0802816
0.0756832
0.0694328
0.0623339
0.0549064
0.0472304
0.0398518
0.0336413
0.0283682
0.0238868
0.0200624
0.0167427
0.0137821
0.0110741
0.00855222
0.00614601
0.00378843
0.00158015
0.000260926
0.0769682
0.0777201
0.0785395
0.0794358
0.0804249
0.08151
0.0826019
0.0836126
0.0846059
0.0856457
0.0867585
0.0878577
0.0886905
0.0889554
0.0883719
0.0868115
0.0846038
0.0820433
0.0790299
0.0753606
0.0709358
0.0655076
0.0592258
0.0527787
0.0462496
0.0399371
0.033864
0.0281102
0.0227238
0.0177238
0.0131338
0.00897994
0.00530796
0.00219533
0.000234879
0.0840624
0.084843
0.0856877
0.086589
0.0875279
0.0884778
0.0894094
0.0903008
0.0911293
0.0918655
0.0924708
0.0928295
0.0927732
0.09219
0.0909994
0.0893178
0.0873065
0.0850405
0.082512
0.0796194
0.0761642
0.0717418
0.0663126
0.0603442
0.0539123
0.0472085
0.0404281
0.0337446
0.0273103
0.0212407
0.0156188
0.010512
0.00600999
0.00233125
0.000295584
0.0852787
0.0859357
0.0866386
0.0873845
0.0881704
0.0889911
0.0898396
0.0906821
0.0914659
0.0921162
0.0925327
0.0926555
0.0924622
0.0919001
0.0908849
0.0893946
0.0876081
0.0855954
0.0833451
0.080769
0.077709
0.0738265
0.0688555
0.0632033
0.0569608
0.0502932
0.0434045
0.0364857
0.0297109
0.0232487
0.0172293
0.0117528
0.00690933
0.00285189
0.000263695
0.0876124
0.0881239
0.0886695
0.0892421
0.089828
0.0904075
0.0909638
0.0914732
0.0919032
0.0922118
0.0923476
0.0922551
0.0918809
0.0911657
0.0901082
0.0887826
0.0873268
0.0857312
0.0839273
0.0817832
0.0790967
0.0754909
0.0706984
0.0650828
0.0587636
0.0519284
0.0448086
0.0376305
0.0305896
0.0238609
0.0175822
0.0118635
0.00682101
0.00268437
0.000292877
0.0865013
0.0868531
0.0872183