/*--------------------------------*- C++ -*----------------------------------*\
  =========                 |
  \\      /  F ield         | OpenFOAM: The Open Source CFD Toolbox
   \\    /   O peration     | Website:  https://openfoam.org
    \\  /    A nd           | Version:  8
     \\/     M anipulation  |
\*---------------------------------------------------------------------------*/
FoamFile
{
    version     2.0;
    format      ascii;
    class       volScalarField;
    location    "0.32";
    object      nut;
}
// * * * * * * * * * * * * * * * * * * * * * * * * * * * * * * * * * * * * * //

dimensions      [0 2 -1 0 0 0 0];

internalField   nonuniform List<scalar> 
15677
(
0.000585597
0.000783336
0.00318133
0.00599914
0.00860396
0.0110699
0.0134447
0.0157862
0.0181217
0.0202775
0.0219497
0.0233915
0.0250106
0.0265319
0.0271586
0.0268348
0.0257042
0.0243895
0.0229847
0.0215563
0.020176
0.0190045
0.0181639
0.0175294
0.0169024
0.016237
0.0155055
0.0147018
0.0138389
0.012944
0.0120494
0.0111761
0.0103379
0.00954228
0.00879268
0.000925796
0.00740179
0.0191219
0.0305379
0.0389153
0.0447854
0.0484529
0.051148
0.053357
0.054487
0.0524548
0.0493663
0.0462078
0.0451862
0.0446185
0.0432442
0.0415694
0.0402715
0.0393797
0.0390379
0.0386472
0.0385829
0.0388582
0.0392016
0.0394605
0.0395656
0.0394855
0.0392031
0.0387179
0.0380012
0.0371203
0.0361515
0.0351619
0.0341982
0.0332875
0.000976551
0.00954863
0.021951
0.0342211
0.0453654
0.0548701
0.0625706
0.0681284
0.0708973
0.0699477
0.0647774
0.0559014
0.0451268
0.0346295
0.0299134
0.0287474
0.0292874
0.0314776
0.0344776
0.0378382
0.0407712
0.04441
0.0481082
0.0513539
0.0534824
0.054909
0.0559557
0.0568998
0.0579181
0.0590105
0.0598866
0.0601939
0.059925
0.0593197
0.058584
0.000847087
0.00593938
0.0138181
0.0216628
0.0288795
0.0351526
0.0401461
0.0435678
0.0449923
0.0458702
0.0450647
0.0434426
0.0409646
0.0377193
0.0340651
0.0305383
0.0272245
0.0247097
0.0235029
0.0232279
0.0267222
0.0332232
0.0395647
0.0484571
0.0543836
0.0579609
0.0597525
0.0601621
0.0602648
0.0600333
0.0596594
0.0592447
0.0588974
0.0585862
0.0583636
0.000535589
0.0040487
0.00863762
0.0132523
0.0176742
0.0218299
0.0255516
0.0286047
0.0305224
0.030964
0.0303411
0.0278756
0.0244212
0.020639
0.0180525
0.017568
0.0198456
0.0251958
0.0316478
0.0380599
0.0438182
0.0486443
0.0521735
0.0548815
0.0569287
0.0585185
0.0597994
0.0608181
0.0615871
0.0621544
0.0625696
0.0628744
0.0630993
0.0632697
0.0633998
0.000240132
0.00087055
0.00197095
0.00309376
0.00420386
0.00529292
0.00623112
0.00673021
0.00737473
0.00790068
0.00878134
0.0103298
0.0125154
0.0160732
0.0204366
0.0253869
0.0309553
0.0370608
0.043299
0.049205
0.0538752
0.0573767
0.059985
0.0619544
0.063455
0.0645955
0.0654306
0.0659987
0.066368
0.0665942
0.066731
0.0667998
0.0668104
0.0667702
0.0666876
0.000243176
0.00146164
0.00374828
0.00638991
0.00920123
0.0121739
0.0153816
0.0188952
0.0227964
0.0271324
0.0319375
0.03734
0.0434243
0.0497171
0.0550246
0.0591966
0.0622867
0.0641808
0.0653702
0.0661039
0.0664738
0.0664829
0.066326
0.0662372
0.0663205
0.0665805
0.066984
0.0674882
0.0680265
0.0685129
0.0688676
0.0690661
0.0691199
0.0690767
0.0689755
0.000203275
0.00201226
0.0048546
0.00826086
0.0121878
0.0166139
0.0214913
0.0267649
0.0323526
0.0381357
0.0439782
0.0497105
0.0549987
0.0596734
0.06314
0.0654912
0.0670868
0.0681264
0.0687726
0.0691696
0.0694147
0.0694667
0.0693969
0.0692616
0.069034
0.068748
0.0684174
0.0680511
0.0676692
0.0672765
0.0668827
0.06651
0.066163
0.0658405
0.0655404
0.000261003
0.00200173
0.00524726
0.00928826
0.0139157
0.0190368
0.0245687
0.0304075
0.0364238
0.0424535
0.0483267
0.0538104
0.0586969
0.0628122
0.0657063
0.0675234
0.0685822
0.069165
0.0694679
0.0696147
0.0696591
0.069614
0.0694759
0.0692679
0.0690727
0.0688636
0.0686147
0.068307
0.0679358
0.0675237
0.0670914
0.0666549
0.0662303
0.0658312
0.0654622
0.000235369
0.00240759
0.00594992
0.0102686
0.0152013
0.0206505
0.026512
0.0326517
0.0389052
0.0451049
0.0510308
0.0564596
0.0611836
0.0650221
0.0675997
0.0692374
0.0703287
0.0710215
0.0714402
0.0716644
0.0716826
0.0714219
0.0708964
0.0701397
0.0692475
0.068328
0.0674532
0.0666568
0.065942
0.065299
0.0647173
0.0641892
0.0637093
0.0632737
0.0628791
0.000256754
0.00228331
0.00589764
0.0103685
0.0154765
0.0211091
0.0271575
0.0334829
0.0399075
0.046254
0.0522959
0.0578117
0.0626074
0.0665305
0.0691828
0.0708015
0.0717151
0.0721195
0.0721734
0.0719819
0.0716272
0.0711706
0.0706474
0.0700388
0.0693654
0.0686497
0.0679178
0.0671968
0.0665047
0.0658486
0.065234
0.0646622
0.0641328
0.0636442
0.0631943
0.000241988
0.00251532
0.00633689
0.0110298
0.0163796
0.022245
0.0284859
0.0349294
0.0413829
0.0477062
0.0536653
0.0590746
0.0637766
0.0676461
0.0703
0.0719312
0.0728399
0.0732274
0.0732531
0.0730239
0.072598
0.0720057
0.0713107
0.0705433
0.069743
0.0689509
0.0681854
0.0674531
0.0667567
0.0660979
0.0654777
0.0648966
0.0643543
0.0638504
0.0633854
0.00024648
0.00240259
0.00615789
0.010799
0.0161117
0.0219662
0.0282304
0.034739
0.0412961
0.0477476
0.0538545
0.0594099
0.0642292
0.0681586
0.0707931
0.0723511
0.0731589
0.0734255
0.0733176
0.0729623
0.0724467
0.0718359
0.0712072
0.0705713
0.0699247
0.0692736
0.0686282
0.0679979
0.0673901
0.0668094
0.066259
0.0657411
0.0652564
0.0648048
0.0643854
0.000237318
0.00252043
0.0063479
0.0110308
0.016365
0.0222207
0.0284675
0.0349416
0.0414494
0.0478493
0.053916
0.0594506
0.0642811
0.0682561
0.0709474
0.0725619
0.0734181
0.0737161
0.0736159
0.0732411
0.0726803
0.0720062
0.0713139
0.0706387
0.0699908
0.0693712
0.0687792
0.0682152
0.0676809
0.0671779
0.0667067
0.0662674
0.0658596
0.0654821
0.0651336
0.000237434
0.00245833
0.00623294
0.0108604
0.0161378
0.0219392
0.028138
0.0345805
0.0410832
0.0474858
0.0535876
0.0591734
0.064058
0.0680733
0.070795
0.0724314
0.0733016
0.0736011
0.0734877
0.0730893
0.0725068
0.0718346
0.0711732
0.0705472
0.0699613
0.0694149
0.0689057
0.0684312
0.0679897
0.0675795
0.0671993
0.0668476
0.0665229
0.0662235
0.0659478
0.000232372
0.00254833
0.0064006
0.0110798
0.0163809
0.0221747
0.028335
0.0347151
0.0411386
0.0474451
0.0534659
0.0589852
0.0638194
0.0678065
0.0705354
0.0722022
0.0731163
0.0734617
0.0733841
0.0730019
0.0724112
0.0717103
0.0710159
0.0703696
0.0697805
0.0692473
0.0687652
0.0683287
0.0679327
0.0675732
0.0672467
0.0669504
0.0666815
0.0664379
0.0662172
0.000228743
0.00250117
0.00630428
0.0109327
0.016182
0.021925
0.0280388
0.0343811
0.0407752
0.0470548
0.0530545
0.0585569
0.0633813
0.0673708
0.0701191
0.0718181
0.0727744
0.0731663
0.073133
0.0727862
0.0722191
0.0715301
0.0708364
0.0701851
0.0695917
0.0690592
0.0685847
0.0681627
0.0677874
0.0674536
0.0671563
0.0668915
0.0666556
0.0664453
0.0662579
0.000222683
0.00252024
0.00630346
0.0108819
0.0160669
0.021741
0.0277863
0.0340639
0.0403996
0.0466264
0.0525884
0.0580673
0.0628843
0.0668843
0.0696609
0.0714
0.0724063
0.0728546
0.0728788
0.072584
0.0720554
0.0713878
0.0707005
0.0700459
0.0694447
0.0689038
0.0684227
0.0679974
0.0676225
0.0672925
0.0670022
0.0667471
0.066523
0.0663263
0.0661538
0.000217281
0.00247105
0.00618857
0.0106946
0.0158053
0.0214063
0.0273826
0.0335988
0.0398852
0.0460764
0.0520172
0.0574924
0.0623225
0.0663512
0.0691673
0.0709512
0.072008
0.072512
0.0725957
0.0723615
0.0718906
0.0712714
0.0706176
0.0699834
0.0693931
0.0688569
0.0683772
0.0679519
0.067577
0.0672475
0.0669586
0.0667056
0.0664844
0.066291
0.0661223
0.000211704
0.00246042
0.00613519
0.0105767
0.0156112
0.021131
0.0270267
0.0331685
0.0393917
0.0455326
0.0514431
0.0569088
0.0617508
0.0658112
0.0686718
0.0705047
0.0716147
0.0721759
0.0723207
0.0721505
0.0717442
0.0711855
0.0705817
0.0699864
0.069425
0.0689097
0.0684446
0.0680296
0.0676617
0.0673373
0.067052
0.0668017
0.0665824
0.0663906
0.066223
0.000206641
0.00242118
0.00603395
0.0104
0.0153527
0.0207894
0.0266053
0.032676
0.038842
0.0449412
0.0508301
0.0562963
0.0611605
0.0652623
0.0681747
0.0700612
0.0712262
0.0718444
0.0720494
0.0719435
0.0716053
0.0711148
0.0705728
0.0700309
0.0695146
0.0690365
0.0686019
0.0682115
0.0678635
0.0675551
0.0672826
0.0670425
0.0668312
0.0666454
0.0664823
0.000201668
0.00239968
0.00596169
0.0102573
0.0151286
0.0204793
0.0262102
0.0322035
0.0383057
0.0443564
0.05022
0.0556851
0.0605723
0.0647184
0.0676863
0.069629
0.0708505
0.0715253
0.0717886
0.0717442
0.0714723
0.0710503
0.0705737
0.0700919
0.0696296
0.0691993
0.0688062
0.0684515
0.0681342
0.0678517
0.0676013
0.0673796
0.0671838
0.0670109
0.0668581
0.000197139
0.00236621
0.00586977
0.0100916
0.0148808
0.0201466
0.025795
0.0317136
0.0377559
0.0437623
0.0496045
0.0550725
0.0599868
0.0641813
0.067208
0.0692091
0.0704875
0.071218
0.0715368
0.0715503
0.0713403
0.0709834
0.0705705
0.0701495
0.0697441
0.0693661
0.0690203
0.0687082
0.0684285
0.0681794
0.0679581
0.0677619
0.0675881
0.0674341
0.0672976
0.000192849
0.00234219
0.00579468
0.00994723
0.0146567
0.0198378
0.0254026
0.0312443
0.0372242
0.0431837
0.0490025
0.0544723
0.0594136
0.0636573
0.0667438
0.0688041
0.0701394
0.0709239
0.0712953
0.0713618
0.071208
0.07091
0.0705557
0.0701919
0.0698413
0.069515
0.0692175
0.0689497
0.0687105
0.0684979
0.0683094
0.0681425
0.0679946
0.0678635
0.0677471
0.00018892
0.00231389
0.00571356
0.00979758
0.0144294
0.0195291
0.0250136
0.0307817
0.0367021
0.0426201
0.0484141
0.0538868
0.0588555
0.0631487
0.0662953
0.0684147
0.0698061
0.0706428
0.0710634
0.0711782
0.0710741
0.0708278
0.070525
0.0702121
0.0699113
0.0696328
0.0693808
0.0691556
0.068956
0.0687798
0.0686246
0.0684879
0.0683673
0.0682608
0.0681663
0.00018531
0.00229081
0.00564278
0.0096624
0.0142197
0.0192401
0.0246457
0.030341
0.0362024
0.0420796
0.0478474
0.0533218
0.0583167
0.0626578
0.0658633
0.0680405
0.0694866
0.0703733
0.0708398
0.0709979
0.0709371
0.0707346
0.0704754
0.0702057
0.0699475
0.0697107
0.0694988
0.0693118
0.0691482
0.0690056
0.0688816
0.0687735
0.0686792
0.0685966
0.0685238
0.000182025
0.00226689
0.00557095
0.0095271
0.0140122
0.0189567
0.0242879
0.0299152
0.0357216
0.0415607
0.0473034
0.0527793
0.0577985
0.0621851
0.0654468
0.0676798
0.0691782
0.0701123
0.0706211
0.0708176
0.0707933
0.0706266
0.0704021
0.0701668
0.0699427
0.0697396
0.0695605
0.0694053
0.0692719
0.0691579
0.0690606
0.0689774
0.0689061
0.0688446
0.0687912
0.000179788
0.00223124
0.00548217
0.00937737
0.013797
0.0186745
0.0239398
0.0295063
0.0352628
0.0410667
0.0467851
0.052261
0.0573017
0.0617299
0.065044
0.0673293
0.068877
0.069855
0.0704018
0.0706312
0.0706363
0.0704966
0.0702973
0.0700863
0.0698864
0.0697072
0.0695518
0.0694195
0.0693084
0.0692155
0.0691382
0.0690739
0.06902
0.0689748
0.0689364
0.000178233
0.00219247
0.00539249
0.00923112
0.0135904
0.0184057
0.02361
0.02912
0.0348295
0.0405994
0.0462935
0.0517673
0.0568256
0.0612905
0.0646519
0.0669848
0.0685774
0.0695948
0.0701746
0.0704306
0.0704571
0.0703345
0.0701494
0.0699513
0.0697636
0.0695966
0.0694532
0.0693328
0.0692332
0.0691516
0.0690849
0.0690306
0.0689862
0.0689498
0.0689196
0.000176898
0.00215673
0.00530995
0.00909646
0.0133997
0.0181571
0.023304
0.0287601
0.0344241
0.0401602
0.0458291
0.0512977
0.0563689
0.0608645
0.0642667
0.0666415
0.0682734
0.0693246
0.069931
0.0702062
0.0702446
0.0701279
0.0699445
0.0697457
0.0695563
0.0693871
0.0692415
0.0691191
0.0690176
0.0689341
0.0688657
0.0688098
0.068764
0.0687262
0.0686947
0.00780289
0.00658706
0.00548941
0.0045204
0.00367908
0.00296076
0.00236217
0.0018799
0.001506
0.00123375
0.00108099
0.000934646
0.000819834
0.000698017
0.0005959
0.000527323
0.000500672
0.000519049
0.000793996
0.00130222
0.00164161
0.00156554
0.0320651
0.0304501
0.0287472
0.0269752
0.025148
0.0232597
0.0212888
0.0192176
0.0171936
0.0153595
0.0138901
0.0128167
0.011883
0.0108411
0.00959305
0.00829829
0.00711042
0.00611711
0.0053872
0.0049652
0.00459361
0.00432052
0.05749
0.055675
0.053336
0.0503451
0.0468617
0.0432121
0.040829
0.0406655
0.0419043
0.0434239
0.0444337
0.0445434
0.0439677
0.0432287
0.0434972
0.0441986
0.0444139
0.0436335
0.0417451
0.0389326
0.0351617
0.0309344
0.0580585
0.0576411
0.0571137
0.0563846
0.0552737
0.0536205
0.0515002
0.0492791
0.0475704
0.0468221
0.0466614
0.0461271
0.0443515
0.0413824
0.038669
0.0368849
0.0359953
0.0355651
0.035172
0.0344773
0.0334968
0.031987
0.06348
0.0634679
0.0633606
0.0631208
0.0627273
0.0623073
0.0618928
0.061616
0.061438
0.0612081
0.0606453
0.0593938
0.0571923
0.0542036
0.0511843
0.0477468
0.0443603
0.0413573
0.0388795
0.0369203
0.0354301
0.0343346
0.0665222
0.0661943
0.0657426
0.0651069
0.0642157
0.0630365
0.0617071
0.0602867
0.0588565
0.0575415
0.0563987
0.0553742
0.0543799
0.0533757
0.0511123
0.0486725
0.0461258
0.0436049
0.0412462
0.0391479
0.0373621
0.0358963
0.0687862
0.0684211
0.0678828
0.0671802
0.0663532
0.0653875
0.0642834
0.0630863
0.0618512
0.0606771
0.0595532
0.0584204
0.0572153
0.055899
0.0543465
0.0525833
0.0506446
0.0485432
0.0463536
0.0441822
0.0421218
0.0402365
0.0651948
0.0647547
0.0642546
0.0636791
0.0630178
0.0622611
0.0614067
0.0604737
0.0594867
0.0583509
0.0570835
0.0557689
0.0544774
0.0531938
0.0518844
0.0504672
0.0489311
0.0473584
0.0457531
0.044144
0.0425708
0.0410746
0.0650338
0.0645009
0.0639182
0.0632736
0.0625555
0.0617634
0.0609022
0.0599577
0.0589267
0.0577972
0.0565818
0.0553177
0.054
0.0526635
0.0513035
0.0499358
0.0485549
0.0471723
0.0458015
0.0444601
0.0431694
0.0419525
0.062424
0.0618704
0.0612943
0.0606876
0.060039
0.0593341
0.0585544
0.0576884
0.0567286
0.0557049
0.0545967
0.0533856
0.0521559
0.0509497
0.0497616
0.0485952
0.047455
0.0463483
0.045285
0.0442766
0.0433355
0.0424755
0.062629
0.0619058
0.0611569
0.0603789
0.0595695
0.0587255
0.0578423
0.0569148
0.0559324
0.0548969
0.0538161
0.0526908
0.0515619
0.0504678
0.0494178
0.0484192
0.0474782
0.0466004
0.0457915
0.0450572
0.0444034
0.04384
0.0627866
0.061992
0.0611595
0.0602945
0.059399
0.0584747
0.0575221
0.056536
0.0555325
0.0545067
0.0534641
0.0524193
0.0514089
0.0504608
0.0495808
0.0487737
0.0480439
0.0473942
0.0468272
0.04635
0.0459518
0.0456394
0.0638303
0.0630715
0.0622647
0.0614127
0.0605189
0.0595808
0.0586091
0.0576102
0.0565868
0.0555472
0.0545019
0.0534713
0.0524966
0.0516064
0.0508057
0.0500979
0.0494848
0.0489709
0.0485481
0.0482145
0.0479706
0.0478124
0.0646692
0.0640196
0.0633206
0.0625724
0.0617755
0.0609316
0.0600367
0.0591059
0.0581462
0.0571624
0.0561667
0.0551819
0.0542512
0.0534053
0.0526516
0.051995
0.0514387
0.0509876
0.0506264
0.0503603
0.0501847
0.0500955
0.0655846
0.0650709
0.0645093
0.063897
0.0632324
0.0625151
0.0617463
0.0609223
0.0600572
0.0591632
0.0582467
0.0573286
0.0564503
0.0556432
0.0549171
0.0542793
0.0537345
0.0532887
0.0529341
0.0526692
0.0524929
0.0524049
0.065944
0.0655647
0.0651492
0.0646925
0.0641903
0.0636395
0.0630384
0.0623865
0.0616865
0.0609387
0.060154
0.0593576
0.0585792
0.0578488
0.0571775
0.0565743
0.0560463
0.0555987
0.0552349
0.0549494
0.0547441
0.054624
0.0660397
0.065749
0.065437
0.0650987
0.0647288
0.0643226
0.0638761
0.0633863
0.0628522
0.0622742
0.061656
0.0610098
0.0603603
0.059737
0.059152
0.0586124
0.0581261
0.0576993
0.0573377
0.0570404
0.0568096
0.0566528
0.0659598
0.0657116
0.0654567
0.0651907
0.0649088
0.0646061
0.0642779
0.0639198
0.0635283
0.0631013
0.0626384
0.0621455
0.0616416
0.0611463
0.0606686
0.0602169
0.0597986
0.0594201
0.0590865
0.0588013
0.0585667
0.0583899
0.0659281
0.0656809
0.0654368
0.0651933
0.0649473
0.0646952
0.0644327
0.0641558
0.0638601
0.0635421
0.0631992
0.0628328
0.0624549
0.0620782
0.0617085
0.0613517
0.0610138
0.0607
0.0604153
0.0601634
0.0599473
0.0597729
0.0660196
0.0657536
0.0654943
0.0652415
0.0649942
0.0647506
0.0645083
0.0642645
0.0640157
0.0637586
0.0634898
0.0632086
0.0629217
0.0626366
0.0623557
0.0620822
0.0618198
0.0615721
0.0613427
0.0611347
0.060951
0.0607954
0.0662715
0.0659837
0.065701
0.0654248
0.065156
0.0648949
0.0646412
0.064394
0.0641516
0.063912
0.0636725
0.0634323
0.0631955
0.0629662
0.0627442
0.06253
0.062325
0.062131
0.0619499
0.0617838
0.0616346
0.0615048
0.066649
0.0663503
0.0660518
0.0657556
0.0654636
0.0651778
0.0648997
0.0646301
0.0643695
0.0641176
0.0638737
0.063638
0.0634145
0.0632062
0.0630109
0.0628276
0.0626557
0.0624953
0.0623468
0.0622111
0.0620889
0.0619817
0.0671008
0.0668072
0.0665077
0.0662044
0.0658997
0.0655959
0.0652955
0.0650009
0.0647139
0.0644363
0.0641691
0.0639144
0.063678
0.0634631
0.0632674
0.0630888
0.0629257
0.062777
0.0626422
0.0625208
0.0624127
0.0623182
0.067572
0.0672992
0.0670151
0.0667212
0.0664194
0.066112
0.0658015
0.0654907
0.0651825
0.0648797
0.0645847
0.0643017
0.0640388
0.0638009
0.0635863
0.063393
0.0632192
0.0630635
0.0629245
0.0628012
0.0626928
0.0625987
0.0680192
0.0677797
0.067525
0.0672557
0.0669729
0.0666781
0.0663734
0.0660612
0.0657445
0.0654263
0.0651101
0.0648011
0.0645099
0.0642435
0.0640013
0.0637825
0.0635857
0.0634097
0.0632531
0.0631147
0.0629934
0.0628881
0.0684085
0.0682119
0.0679977
0.0677657
0.0675158
0.0672488
0.0669656
0.0666679
0.0663582
0.0660392
0.0657144
0.0653895
0.0650765
0.0647848
0.0645153
0.0642682
0.0640435
0.0638405
0.0636584
0.0634963
0.063353
0.0632275
0.06871
0.0685643
0.0683999
0.0682157
0.0680108
0.0677846
0.0675373
0.0672694
0.0669824
0.0666782
0.0663599
0.0660329
0.0657097
0.0654016
0.0651109
0.0648393
0.064588
0.0643572
0.0641472
0.0639575
0.0637876
0.0636365
0.0688902
0.0688035
0.068698
0.0685718
0.068423
0.0682501
0.0680522
0.0678285
0.0675793
0.0673056
0.0670094
0.0666954
0.066376
0.0660633
0.0657613
0.0654729
0.0652006
0.064946
0.0647101
0.0644934
0.064296
0.0641174
0.0689086
0.0688897
0.0688528
0.0687954
0.0687147
0.0686081
0.0684734
0.0683087
0.0681129
0.0678857
0.0676278
0.0673428
0.0670421
0.0667383
0.0664367
0.0661417
0.0658569
0.0655851
0.0653285
0.0650885
0.0648661
0.0646613
0.0687177
0.0687757
0.068818
0.0688411
0.0688415
0.0688154
0.0687593
0.06867
0.0685447
0.0683816
0.0681799
0.0679414
0.0676758
0.0673959
0.0671079
0.0668179
0.0665306
0.0662502
0.06598
0.0657225
0.0654797
0.0652524
0.00125306
0.00102405
0.00131577
0.00228539
0.00308463
0.00352785
0.00421279
0.00742802
0.0156642
0.0210534
0.0229919
0.0249368
0.0262382
0.0233715
0.0280529
0.036751
0.0447533
0.0513122
0.030086
0.0294419
0.0299299
0.0323024
0.0363226
0.0404741
0.0333231
0.0322543
0.031178
0.0314792
0.0324016
0.0340777
0.0346571
0.0336878
0.0331076
0.0324231
0.0321444
0.0324842
0.0384543
0.036838
0.0355232
0.0344928
0.0337587
0.0334027
0.039558
0.0381148
0.0369057
0.0359621
0.0353065
0.0349629
0.040722
0.0395866
0.0386759
0.0380163
0.037626
0.0375134
0.0416413
0.0409581
0.0404873
0.0402511
0.0402585
0.0404993
0.0433845
0.0431254
0.0430716
0.0432155
0.0435714
0.0441308
0.0454672
0.0455498
0.0458052
0.0462345
0.0468291
0.0475812
0.0478287
0.0481149
0.0485492
0.049123
0.0498267
0.0506516
0.0501991
0.0505742
0.0510711
0.0516827
0.0523985
0.0532077
0.0525157
0.0528871
0.053362
0.0539327
0.0545899
0.0553238
0.0546967
0.0550103
0.055412
0.0558955
0.0564523
0.0570744
0.0566745
0.0569103
0.0572191
0.0575973
0.0580383
0.0585331
0.0583693
0.0585279
0.058747
0.0590235
0.0593524
0.0597288
0.0597266
0.0598232
0.0599682
0.0601593
0.0603933
0.0606668
0.0607389
0.0607913
0.0608814
0.0610079
0.0611686
0.0613612
0.0614484
0.0614719
0.0615248
0.0616062
0.0617145
0.0618484
0.0619295
0.0619359
0.0619657
0.0620178
0.0620914
0.0621856
0.0622691
0.0622668
0.0622832
0.0623178
0.0623699
0.062439
0.0625487
0.0625426
0.0625523
0.0625771
0.0626169
0.0626712
0.0628326
0.0628254
0.0628319
0.0628518
0.0628849
0.0629307
0.0631625
0.0631555
0.063161
0.0631783
0.0632077
0.0632485
0.0635592
0.0635529
0.0635581
0.0635742
0.0636008
0.0636381
0.0640266
0.0640213
0.0640265
0.0640414
0.0640659
0.0640998
0.0645576
0.0645535
0.0645587
0.0645724
0.0645947
0.0646248
0.0651377
0.0651354
0.0651409
0.0651536
0.0651732
0.0651993
0.00354953
0.00335307
0.0029698
0.00248577
0.00207389
0.00200276
0.00250406
0.00329775
0.00437266
0.0056636
0.00694819
0.00804464
0.00892913
0.00966969
0.0103777
0.0111784
0.0121867
0.013499
0.0151186
0.0168592
0.0183779
0.0195426
0.0272684
0.0293478
0.0315387
0.033825
0.0363322
0.0391215
0.0405996
0.0414154
0.0433435
0.0451824
0.0468729
0.0484351
0.0489459
0.0487129
0.0482554
0.0479344
0.047871
0.0478792
0.0477119
0.0475042
0.0474682
0.0475193
0.0563543
0.0604365
0.0638549
0.0663695
0.0675863
0.0673358
0.0656667
0.0632483
0.0610247
0.0598657
0.0601429
0.0614362
0.0634851
0.0657021
0.0675982
0.0690395
0.0699626
0.0703765
0.0703718
0.0700409
0.0696095
0.0691423
0.043942
0.0460556
0.0473803
0.0481156
0.0483497
0.0484945
0.0486591
0.0491667
0.0502364
0.0520416
0.0545665
0.057012
0.0596068
0.0621244
0.0645571
0.0670466
0.0694441
0.0713651
0.0725515
0.0731005
0.0733806
0.0734123
0.0357957
0.0376922
0.0394733
0.0409743
0.04211
0.0427186
0.0433281
0.043831
0.0445655
0.0455866
0.0468017
0.0487228
0.0508122
0.0531469
0.0559187
0.0591878
0.0624225
0.0660319
0.0697647
0.0728343
0.0753315
0.0772017
0.0330867
0.0337074
0.0343354
0.0349271
0.0354684
0.0359754
0.0365192
0.0371658
0.0379831
0.0390281
0.0403519
0.0420229
0.0439549
0.0461969
0.048675
0.0512966
0.0542472
0.0569569
0.0593138
0.0612608
0.062794
0.0640023
0.0334172
0.0336158
0.0339804
0.0345079
0.0351958
0.0360404
0.0370433
0.0382217
0.0396137
0.0412675
0.0432058
0.0454396
0.0479036
0.0504665
0.0530396
0.0555401
0.0578993
0.0600498
0.0619751
0.063683
0.0651967
0.0665466
0.0349822
0.0352435
0.0356974
0.0363355
0.0371527
0.0381466
0.0393328
0.0407215
0.042323
0.0441373
0.0461511
0.0483266
0.0505577
0.0527409
0.0548249
0.0567712
0.0585589
0.0601812
0.0616539
0.0629847
0.0641977
0.0653281
0.0377389
0.0382307
0.0389331
0.0398506
0.0409842
0.0423316
0.0438864
0.0456345
0.0475521
0.0496077
0.0517689
0.0539851
0.0561597
0.0582195
0.0601494
0.0619462
0.0636152
0.0651657
0.0666097
0.0679596
0.0692269
0.0704215
0.0410256
0.041819
0.0428048
0.0439774
0.045326
0.0468335
0.0484779
0.0502355
0.0520832
0.0539966
0.0559507
0.0579069
0.0597924
0.0615653
0.0632268
0.0647807
0.0662343
0.0675946
0.0688677
0.0700583
0.0711697
0.0722031
0.0449119
0.0459316
0.0471015
0.0484103
0.0498417
0.0513774
0.0530011
0.0546959
0.0564442
0.0582282
0.0600292
0.061817
0.0635337
0.0651365
0.0666249
0.0679999
0.0692635
0.0704185
0.071468
0.0724158
0.0732669
0.0740275
0.0484954
0.049592
0.0507923
0.0520852
0.0534583
0.0548981
0.0563905
0.0579207
0.0594732
0.0610307
0.0625848
0.0641054
0.065539
0.0668541
0.0680519
0.0691351
0.0701076
0.0709743
0.0717405
0.0724123
0.0729956
0.0734958
0.051594
0.0526765
0.053831
0.0550475
0.0563152
0.0576226
0.0589572
0.0603036
0.0616544
0.0629941
0.0643092
0.0655761
0.0667498
0.067806
0.0687475
0.0695785
0.0703044
0.0709309
0.0714644
0.0719115
0.0722794
0.0725751
0.054108
0.0551138
0.0561663
0.057257
0.0583765
0.0595119
0.0606571
0.0617986
0.062925
0.0640244
0.0650846
0.0660859
0.0669928
0.0677889
0.0684795
0.0690706
0.0695694
0.0699836
0.0703209
0.0705897
0.0707981
0.0709541
0.0561384
0.0570297
0.0579493
0.0588903
0.0598446
0.0608026
0.0617551
0.0626923
0.063604
0.0644803
0.0653111
0.0660809
0.0667634
0.0673489
0.0678443
0.0682574
0.0685964
0.0688697
0.0690857
0.0692525
0.0693779
0.0694688
0.0577751
0.0585333
0.0593073
0.0600907
0.0608759
0.0616552
0.0624205
0.0631638
0.0638767
0.0645514
0.0651804
0.0657525
0.0662496
0.0666675
0.0670142
0.067298
0.0675273
0.0677103
0.0678549
0.0679683
0.0680572
0.0681273
0.0591087
0.0597296
0.0603572
0.060986
0.0616099
0.0622225
0.0628174
0.0633884
0.0639293
0.0644347
0.0648998
0.0653175
0.0656765
0.0659763
0.0662251
0.0664308
0.0666012
0.0667434
0.0668642
0.066969
0.067063
0.0671502
0.0601801
0.0606694
0.0611592
0.0616457
0.0621241
0.0625894
0.0630371
0.0634628
0.0638628
0.0642337
0.0645735
0.0648787
0.0651429
0.0653678
0.0655605
0.0657281
0.0658768
0.0660121
0.0661388
0.0662608
0.066381
0.0665019
0.0610072
0.0613784
0.0617475
0.0621117
0.0624675
0.0628117
0.0631415
0.0634544
0.0637487
0.0640235
0.0642788
0.0645138
0.0647252
0.0649149
0.0650887
0.0652516
0.0654081
0.0655617
0.0657151
0.0658703
0.0660283
0.0661905
0.0616102
0.0618837
0.0621549
0.0624221
0.0626831
0.0629365
0.063181
0.0634159
0.0636412
0.0638576
0.0640668
0.0642695
0.0644635
0.0646495
0.0648313
0.0650119
0.0651935
0.0653778
0.0655656
0.0657572
0.0659526
0.0661512
0.0620285
0.0622282
0.0624275
0.0626257
0.0628221
0.0630163
0.0632084
0.0633991
0.0635895
0.0637814
0.0639769
0.0641774
0.06438
0.0645832
0.0647889
0.064998
0.0652109
0.0654275
0.0656475
0.0658701
0.0660943
0.0663193
0.0623186
0.0624695
0.0626235
0.0627806
0.0629411
0.0631055
0.0632748
0.0634503
0.0636336
0.0638267
0.0640319
0.0642496
0.0644754
0.0647056
0.06494
0.0651782
0.0654192
0.065662
0.0659055
0.0661483
0.0663894
0.0666277
0.0625444
0.0626701
0.062803
0.0629436
0.0630927
0.0632514
0.0634209
0.0636026
0.0637981
0.0640089
0.0642365
0.0644805
0.0647341
0.0649916
0.0652517
0.065513
0.0657739
0.0660329
0.0662888
0.0665402
0.0667862
0.0670258
0.0627643
0.0628847
0.0630162
0.0631596
0.0633157
0.0634857
0.0636707
0.0638717
0.0640897
0.0643255
0.0645797
0.0648504
0.0651289
0.0654082
0.0656863
0.0659614
0.0662318
0.0664962
0.0667534
0.0670023
0.0672423
0.0674729
0.0630227
0.0631527
0.0632969
0.0634561
0.0636309
0.0638221
0.0640304
0.0642562
0.0644998
0.0647609
0.0650394
0.0653319
0.0656283
0.0659209
0.0662075
0.0664863
0.066756
0.0670154
0.0672637
0.0675004
0.0677251
0.0679378
0.0633463
0.0634953
0.0636608
0.0638429
0.064042
0.0642583
0.0644919
0.0647425
0.0650096
0.0652921
0.0655889
0.0658957
0.0662012
0.0664975
0.0667827
0.0670553
0.0673142
0.0675588
0.0677887
0.0680038
0.0682041
0.0683899
0.0637451
0.0639183
0.0641088
0.0643162
0.0645406
0.0647815
0.0650384
0.0653104
0.065596
0.0658936
0.066201
0.0665132
0.0668183
0.0671084
0.067382
0.067638
0.0678758
0.0680951
0.0682962
0.0684792
0.0686449
0.0687939
0.0642169
0.0644156
0.0646313
0.0648632
0.0651108
0.0653732
0.0656492
0.065937
0.0662347
0.0665397
0.0668491
0.0671571
0.0674511
0.0677239
0.0679743
0.0682017
0.068406
0.0685876
0.0687473
0.0688859
0.0690045
0.0691044
0.0647514
0.0649744
0.0652132
0.0654667
0.0657337
0.0660129
0.0663022
0.0665994
0.0669015
0.067205
0.0675062
0.0677981
0.0680681
0.0683099
0.0685226
0.0687063
0.0688619
0.0689902
0.0690931
0.069172
0.0692291
0.0692659
0.0653337
0.0655782
0.0658367
0.0661075
0.0663891
0.0666793
0.0669752
0.0672736
0.0675706
0.0678616
0.0681413
0.0684021
0.0686315
0.0688243
0.0689808
0.0691021
0.0691898
0.0692464
0.0692745
0.0692769
0.0692564
0.0692157
0.0202053
0.0206818
0.0211847
0.0217279
0.0223205
0.022964
0.0236531
0.024377
0.0251211
0.0258667
0.0266137
0.0273785
0.0281597
0.0289067
0.0297377
0.0305518
0.0312373
0.0318206
0.0323504
0.0328169
0.0330266
0.0321832
0.0292525
0.0266123
0.0240264
0.0211154
0.0182207
0.0155442
0.0130367
0.0106447
0.00829196
0.0058748
0.00325549
0.000875772
0.000564646
0.0476308
0.0476904
0.0477831
0.0479248
0.0481287
0.0484036
0.0487532
0.0491868
0.049714
0.0502956
0.0508922
0.0514674
0.0520343
0.0524959
0.0528262
0.0532098
0.0537719
0.0535473
0.0537764
0.0546234
0.055671
0.0567374
0.0578454
0.0591157
0.0610549
0.0608641
0.0590819
0.0565287
0.0533159
0.0484662
0.0415589
0.0316469
0.0193109
0.00746752
0.000920679
0.068683
0.0682752
0.0678561
0.067448
0.067068
0.0667647
0.0665581
0.0663832
0.066117
0.0656114
0.0647191
0.0633233
0.0612219
0.0581452
0.0538863
0.0501379
0.0453411
0.0426383
0.0405705
0.0401471
0.0417932
0.0464646
0.0565295
0.0657303
0.0732574
0.0769235
0.0764037
0.0724318
0.0658266
0.0571344
0.046716
0.034884
0.0221752
0.00958831
0.000969504
0.0733334
0.0732098
0.0730287
0.0728256
0.0723007
0.0712203
0.0694759
0.0671064
0.0643059
0.0613606
0.0585012
0.0556654
0.0524321
0.0463586
0.040628
0.0323754
0.0301288
0.0321406
0.0368481
0.0419826
0.0455811
0.0483012
0.0506263
0.0523589
0.0533249
0.0532586
0.0515058
0.0490341
0.044472
0.0383637
0.0311294
0.0230719
0.0145685
0.00621597
0.000860921
0.0782371
0.0788568
0.0792178
0.079222
0.0787779
0.0777798
0.0762194
0.0740918
0.0715112
0.0686873
0.0658107
0.0630708
0.0605993
0.0582669
0.0550957
0.0443355
0.0332791
0.0238518
0.022203
0.0255323
0.0310907
0.036547
0.0408835
0.0430141
0.043355
0.0422094
0.0400054
0.0364093
0.0319868
0.027008
0.0216541
0.0160781
0.0103481
0.00475255
0.00059884
0.064802
0.0654662
0.0661442
0.0668165
0.0675165
0.0682614
0.0690105
0.0696817
0.0701416
0.0702054
0.0697598
0.0686745
0.0667368
0.0636816
0.0579346
0.0484979
0.0392184
0.0328695
0.0266897
0.0212987
0.0175498
0.0151188
0.0141613
0.0137492
0.0135108
0.0129655
0.0122964
0.0114073
0.00995042
0.00827477
0.00653124
0.0047603
0.00301346
0.00132856
0.000293322
0.0675372
0.0683026
0.069103
0.0699089
0.0706914
0.0713929
0.0720025
0.0724912
0.0727268
0.0726036
0.0721298
0.0714897
0.0709725
0.07077
0.0706669
0.069847
0.0676632
0.0637838
0.0585114
0.0525239
0.0462609
0.0397911
0.0335743
0.0283431
0.0239018
0.0201272
0.0169055
0.0141086
0.0116141
0.00933226
0.00720716
0.00517945
0.00319267
0.00133167
0.000219896
0.0661705
0.0668201
0.067528
0.0683028
0.0691578
0.0700957
0.0710397
0.0719144
0.072775
0.0736762
0.0746415
0.075596
0.0763188
0.0765523
0.0760487
0.074703
0.072799
0.0705916
0.0679956
0.0648358
0.0610264
0.0563539
0.0509489
0.0454026
0.0397859
0.0343556
0.0291314
0.024182
0.0195485
0.0152474
0.011299
0.00772554
0.00456659
0.00188874
0.000202081
0.0713076
0.0719674
0.0726819
0.0734443
0.0742389
0.0750435
0.0758331
0.0765889
0.0772918
0.0779167
0.0784311
0.0787374
0.0786933
0.0781988
0.0772013
0.0757827
0.0740818
0.0721631
0.0700195
0.0675653
0.0646328
0.0608784
0.056268
0.0512001
0.0457397
0.0400499
0.0342961
0.0286254
0.0231667
0.0180177
0.0132487
0.00891678
0.00509793
0.00197745
0.000250723
0.0729546
0.0735201
0.0741244
0.0747661
0.0754422
0.0761484
0.0768787
0.0776043
0.07828
0.078842
0.0792042
0.0793152
0.0791566
0.0786852
0.0778175
0.0765379
0.0750068
0.0732819
0.0713539
0.0691469
0.0665258
0.0632012
0.0589461
0.0541083
0.0487653
0.0430584
0.037162
0.0312392
0.0254392
0.0199065
0.0147526
0.0100635
0.0059163
0.00244205
0.000225803
0.0745808
0.0750149
0.0754781
0.0759642
0.0764619
0.0769545
0.0774276
0.0778609
0.0782267
0.078489
0.0786041
0.0785246
0.078205
0.0775941
0.0766941
0.0755721
0.0743357
0.0729797
0.0714456
0.0696209
0.0673338
0.0642638
0.0601822
0.0553997
0.0500184
0.0441988
0.0381376
0.0320274
0.0260345
0.0203076
0.0149638
0.0100967
0.00580513
0.00228457
0.000249255