/*--------------------------------*- C++ -*----------------------------------*\
  =========                 |
  \\      /  F ield         | OpenFOAM: The Open Source CFD Toolbox
   \\    /   O peration     | Website:  https://openfoam.org
    \\  /    A nd           | Version:  8
     \\/     M anipulation  |
\*---------------------------------------------------------------------------*/
FoamFile
{
    version     2.0;
    format      ascii;
    class       volScalarField;
    location    "0.32";
    object      p;
}
// * * * * * * * * * * * * * * * * * * * * * * * * * * * * * * * * * * * * * //

dimensions      [1 -1 -2 0 0 0 0];

internalField   nonuniform List<scalar> 
15677
(
112504
112512
112507
112509
112508
112507
112504
112501
112496
112484
112455
112409
112349
112296
112257
112231
112214
112199
112187
112179
112174
112170
112166
112160
112155
112150
112145
112140
112136
112132
112128
112123
112120
112116
112112
92817.6
92780
92714.6
92643.1
92580
92523.2
92469.6
92416.2
92366.9
92362.6
92438.1
92577.7
92748.9
92871.7
92901.3
92874.8
92833.4
92787
92737.8
92692.5
92649.3
92600.9
92553.2
92508.1
92465
92423.4
92384.3
92348
92317
92292.3
92273.2
92260.6
92252.2
92246.6
92240.9
106563
106561
106554
106534
106492
106421
106322
106203
106082
105994
105951
105966
106047
106133
106198
106283
106399
106539
106699
106867
107020
107145
107240
107311
107365
107404
107433
107457
107473
107489
107507
107527
107546
107564
107584
97036.2
97045.7
97057.8
97067.9
97074.4
97076.3
97071
97055.5
97025.7
96991.1
96972.6
96981.9
96994.5
96990.8
96988.6
96984.3
96976.6
96960
96934.5
96897.6
96845.3
96780.2
96713.8
96652.3
96600.5
96562
96537.4
96525
96525.4
96525.5
96521.1
96512
96500.3
96489
96478.5
103751
103758
103767
103778
103789
103803
103817
103832
103844
103849
103854
103854
103845
103844
103852
103863
103881
103907
103936
103969
104009
104053
104096
104139
104178
104213
104244
104273
104292
104307
104317
104323
104326
104328
104330
99562.9
99562.2
99557
99547.5
99531.7
99508.8
99478
99440.3
99400.1
99363.1
99325.2
99281.7
99236.8
99190.4
99149.6
99115.9
99085.4
99057
99029.3
99000.2
98967.1
98928.5
98889.3
98852.2
98818.6
98790.6
98769.9
98756.4
98750.7
98751.1
98752.7
98755.1
98757.7
98759.1
98760.7
102550
102550
102551
102552
102553
102554
102555
102557
102561
102565
102569
102573
102575
102573
102566
102555
102540
102524
102510
102500
102495
102497
102503
102511
102518
102526
102533
102542
102550
102555
102562
102571
102578
102582
102583
100295
100296
100296
100296
100296
100296
100295
100293
100291
100288
100284
100279
100271
100259
100243
100226
100207
100186
100161
100133
100105
100079
100058
100042
100028
100020
100015
100010
100009
100011
100014
100016
100016
100015
100017
101781
101781
101781
101782
101782
101782
101781
101779
101775
101770
101763
101755
101745
101736
101729
101723
101720
101719
101721
101723
101728
101735
101744
101752
101764
101766
101767
101770
101771
101772
101770
101766
101762
101758
101755
100845
100845
100844
100844
100843
100843
100843
100843
100843
100843
100843
100841
100837
100832
100822
100811
100798
100784
100770
100756
100741
100726
100714
100704
100699
100700
100702
100703
100704
100705
100707
100709
100712
100715
100718
101464
101464
101464
101463
101463
101462
101461
101458
101455
101451
101445
101440
101434
101428
101426
101424
101424
101425
101427
101430
101434
101439
101446
101451
101451
101452
101453
101453
101453
101453
101452
101451
101450
101450
101449
101127
101127
101126
101125
101124
101123
101122
101120
101119
101118
101116
101114
101112
101108
101104
101099
101093
101087
101081
101075
101069
101062
101055
101054
101056
101057
101058
101060
101062
101064
101066
101068
101071
101073
101075
101374
101374
101373
101372
101371
101370
101368
101366
101363
101360
101356
101352
101349
101346
101344
101343
101343
101343
101344
101346
101349
101353
101356
101356
101357
101358
101359
101360
101361
101362
101362
101362
101363
101363
101363
101268
101267
101266
101265
101264
101263
101262
101261
101259
101258
101256
101253
101250
101248
101246
101244
101242
101240
101238
101236
101234
101232
101233
101234
101236
101237
101239
101241
101243
101244
101246
101248
101250
101251
101253
101365
101365
101364
101363
101362
101360
101358
101356
101354
101352
101350
101347
101344
101341
101340
101339
101339
101339
101340
101341
101342
101345
101346
101347
101348
101350
101351
101353
101354
101355
101356
101357
101358
101359
101360
101338
101337
101336
101335
101333
101332
101330
101328
101326
101325
101324
101323
101322
101321
101320
101319
101318
101317
101317
101317
101317
101318
101319
101321
101322
101324
101325
101327
101328
101329
101331
101332
101333
101334
101336
101382
101382
101381
101379
101378
101376
101374
101372
101370
101368
101366
101364
101362
101360
101358
101358
101357
101357
101357
101358
101359
101360
101361
101363
101364
101365
101367
101368
101369
101370
101371
101372
101373
101374
101375
101379
101378
101377
101376
101374
101372
101371
101369
101367
101366
101364
101363
101362
101361
101360
101360
101360
101359
101359
101360
101360
101361
101362
101364
101365
101366
101367
101368
101369
101370
101371
101372
101373
101374
101375
101400
101399
101398
101397
101396
101394
101392
101391
101389
101387
101385
101383
101381
101380
101379
101378
101378
101377
101378
101378
101379
101379
101380
101381
101382
101384
101385
101386
101387
101387
101388
101389
101390
101390
101391
101403
101402
101401
101400
101399
101397
101396
101394
101393
101391
101390
101388
101387
101386
101385
101385
101384
101384
101384
101385
101385
101386
101387
101388
101389
101389
101390
101391
101392
101393
101394
101394
101395
101396
101396
101414
101414
101413
101412
101410
101409
101407
101406
101404
101402
101400
101399
101397
101396
101395
101394
101394
101394
101394
101394
101395
101395
101396
101397
101398
101399
101399
101400
101401
101402
101402
101403
101404
101404
101405
101418
101417
101417
101415
101414
101413
101411
101410
101408
101407
101406
101404
101403
101402
101401
101401
101400
101400
101400
101400
101401
101401
101402
101403
101403
101404
101405
101406
101406
101407
101408
101408
101409
101409
101410
101424
101424
101423
101422
101421
101419
101418
101417
101415
101414
101412
101411
101409
101408
101407
101407
101406
101406
101406
101406
101407
101407
101408
101408
101409
101410
101410
101411
101412
101412
101413
101414
101414
101415
101415
101428
101427
101426
101425
101424
101423
101422
101420
101419
101417
101416
101415
101414
101412
101412
101411
101411
101411
101411
101411
101411
101411
101412
101413
101413
101414
101415
101415
101416
101416
101417
101418
101418
101418
101419
101431
101431
101430
101429
101428
101427
101426
101424
101423
101422
101420
101419
101418
101416
101416
101415
101415
101414
101414
101415
101415
101415
101416
101416
101417
101418
101418
101419
101419
101420
101420
101421
101421
101422
101423
101434
101433
101433
101432
101431
101429
101428
101427
101426
101424
101423
101422
101421
101420
101419
101418
101418
101418
101418
101418
101418
101418
101419
101419
101420
101420
101421
101422
101422
101423
101423
101424
101424
101425
101425
101436
101436
101435
101434
101433
101432
101431
101430
101428
101427
101426
101424
101423
101422
101421
101421
101420
101420
101420
101420
101420
101421
101421
101422
101422
101423
101423
101424
101425
101425
101426
101426
101426
101427
101428
101438
101437
101437
101436
101435
101434
101433
101431
101430
101429
101428
101426
101425
101424
101423
101423
101422
101422
101422
101422
101422
101423
101423
101424
101424
101425
101425
101426
101426
101427
101427
101428
101428
101429
101429
101439
101439
101438
101437
101436
101435
101434
101433
101432
101430
101429
101428
101427
101426
101425
101424
101424
101424
101424
101424
101424
101424
101425
101425
101426
101426
101427
101427
101428
101428
101429
101429
101430
101430
101431
101440
101440
101439
101438
101437
101436
101435
101434
101433
101432
101431
101429
101428
101427
101426
101426
101425
101425
101425
101425
101425
101426
101426
101426
101427
101427
101428
101429
101429
101430
101430
101431
101431
101432
101432
112121
112162
112203
112243
112286
112330
112377
112425
112475
112528
112583
112642
112700
112759
112814
112873
112924
112983
113028
113094
113129
113203
92236.1
92210.2
92177.6
92146.3
92114.8
92081.8
92045.1
92000.8
91946.7
91881.2
91801.8
91712
91621.2
91532.2
91459.4
91404.7
91370.8
91362.8
91370.9
91394.5
91432.6
91467.9
107602
107634
107671
107707
107747
107795
107845
107893
107933
107969
107993
108008
108019
108044
108082
108121
108174
108241
108320
108407
108498
108575
96479.6
96470.9
96452.1
96427.2
96395.6
96357.7
96318.5
96286.8
96267.2
96262.4
96284.8
96324.5
96375
96429.2
96470.1
96500.8
96523.9
96545.7
96561.4
96577.7
96600.6
96626.9
104321
104314
104311
104308
104307
104307
104310
104315
104322
104334
104349
104362
104357
104325
104271
104202
104130
104059
103991
103926
103863
103801
98781
98795.8
98810.1
98830
98854.1
98879.9
98907.8
98937.9
98970.4
99005.6
99042.8
99083.2
99135.3
99197.3
99261.2
99323.1
99382
99437.6
99489.5
99537
99580.3
99624.1
102578
102563
102549
102533
102512
102485
102454
102420
102383
102344
102303
102261
102221
102181
102144
102108
102075
102043
102014
101987
101962
101937
100037
100055
100072
100094
100120
100149
100181
100214
100247
100282
100316
100352
100387
100421
100456
100489
100523
100556
100589
100622
100653
100687
101743
101723
101703
101682
101660
101638
101616
101593
101570
101546
101523
101500
101478
101458
101440
101424
101411
101400
101390
101381
101374
101368
100732
100744
100756
100770
100783
100798
100814
100831
100849
100867
100886
100905
100923
100939
100955
100970
100984
100998
101011
101025
101038
101052
101441
101428
101415
101402
101389
101376
101363
101349
101336
101324
101312
101300
101290
101282
101275
101269
101264
101260
101257
101254
101251
101250
101083
101089
101096
101102
101109
101116
101123
101130
101137
101144
101151
101158
101164
101170
101175
101180
101185
101189
101193
101197
101201
101205
101357
101351
101344
101338
101331
101325
101319
101312
101306
101300
101295
101290
101285
101281
101278
101275
101272
101270
101268
101266
101265
101263
101255
101257
101260
101263
101266
101268
101271
101273
101275
101276
101278
101278
101279
101279
101279
101279
101279
101278
101278
101277
101277
101275
101356
101354
101351
101348
101345
101342
101339
101336
101333
101331
101328
101325
101323
101320
101318
101316
101313
101311
101309
101307
101305
101302
101336
101337
101338
101339
101339
101340
101340
101340
101340
101339
101339
101338
101337
101336
101334
101333
101331
101329
101327
101325
101323
101319
101373
101372
101371
101370
101368
101367
101366
101365
101363
101362
101360
101359
101357
101355
101354
101352
101350
101348
101345
101343
101341
101337
101375
101375
101375
101375
101375
101375
101375
101374
101374
101373
101372
101371
101370
101369
101367
101366
101364
101362
101360
101358
101356
101352
101391
101390
101390
101389
101388
101388
101387
101387
101386
101385
101384
101383
101382
101381
101380
101378
101376
101375
101373
101371
101369
101365
101396
101396
101396
101396
101396
101396
101395
101395
101395
101394
101393
101393
101392
101391
101390
101388
101387
101385
101384
101382
101380
101377
101405
101404
101404
101404
101403
101403
101403
101403
101402
101402
101401
101401
101400
101399
101398
101397
101396
101394
101393
101391
101390
101387
101410
101410
101410
101409
101409
101409
101409
101409
101408
101408
101408
101407
101407
101406
101405
101404
101403
101402
101401
101400
101398
101396
101415
101415
101415
101415
101414
101414
101414
101414
101414
101414
101413
101413
101412
101412
101411
101411
101410
101409
101408
101407
101405
101404
101419
101419
101419
101419
101419
101419
101419
101418
101418
101418
101418
101418
101417
101417
101416
101416
101415
101414
101413
101412
101411
101410
101422
101422
101422
101422
101422
101422
101422
101422
101422
101422
101422
101422
101422
101421
101421
101420
101420
101419
101418
101418
101417
101416
101425
101425
101425
101425
101425
101425
101425
101425
101425
101425
101425
101425
101425
101425
101425
101424
101424
101423
101423
101422
101421
101421
101427
101428
101428
101428
101428
101428
101428
101428
101428
101428
101428
101428
101428
101428
101428
101428
101427
101427
101426
101426
101425
101425
101429
101430
101430
101430
101430
101430
101430
101430
101431
101431
101431
101431
101431
101431
101431
101430
101430
101430
101429
101429
101428
101428
101431
101431
101431
101432
101432
101432
101432
101432
101433
101433
101433
101433
101433
101433
101433
101433
101433
101432
101432
101431
101431
101431
101432
101432
101433
101433
101433
101434
101434
101434
101434
101435
101435
101435
101435
101435
101435
101435
101435
101435
101434
101434
101433
101434
113223
113205
113215
113203
113197
113195
91512.1
91529.5
91469.5
91374.1
91265.8
91149.9
108639
108661
108588
108448
108254
108024
96625.9
96560
96458.1
96338.3
96216.6
96096.2
103753
103725
103707
103703
103719
103753
99657.9
99685.1
99709
99725.6
99732.2
99734.2
101917
101914
101913
101915
101920
101928
100711
100735
100754
100770
100785
100800
101364
101369
101373
101378
101383
101392
101061
101073
101083
101092
101102
101112
101251
101256
101261
101266
101271
101276
101209
101215
101220
101225
101230
101234
101265
101267
101269
101272
101273
101275
101278
101278
101280
101281
101282
101281
101304
101303
101303
101303
101303
101302
101322
101320
101320
101319
101319
101316
101339
101337
101336
101336
101335
101332
101354
101352
101351
101350
101349
101346
101367
101365
101364
101363
101362
101360
101378
101376
101376
101375
101374
101372
101387
101386
101386
101385
101385
101383
101396
101395
101395
101394
101394
101393
101403
101403
101403
101402
101402
101401
101409
101409
101409
101409
101409
101409
101414
101415
101415
101415
101415
101415
101419
101420
101420
101420
101420
101420
101423
101424
101424
101424
101424
101425
101426
101427
101428
101427
101427
101428
101429
101430
101431
101431
101430
101431
101432
101433
101433
101433
101433
101434
113165
113084
113030
112957
112893
112813
112743
112663
112588
112510
112432
112353
112277
112205
112138
112074
112015
111958
111904
111853
111804
111757
91061.9
91005.5
90973
90974.6
91024.1
91104.9
91202
91326.3
91466.3
91610.9
91760
91899.2
92015.4
92113.8
92200.5
92277.2
92346.7
92410.1
92464.4
92514.1
92560.3
92595.8
107826
107637
107463
107316
107202
107127
107093
107072
107066
107074
107088
107096
107096
107099
107110
107125
107137
107148
107157
107158
107157
107161
95982.2
95883.3
95816.4
95777.2
95761.4
95763
95775.7
95813.2
95858.5
95896
95915.9
95923.2
95918.7
95905.5
95892.7
95889.8
95893.5
95895.1
95896.9
95904.7
95920.8
95935.4
103808
103881
103946
104007
104072
104140
104207
104263
104310
104343
104363
104371
104361
104337
104302
104255
104200
104140
104080
104021
103969
103928
99717.1
99690.8
99665
99639
99611.6
99583.5
99556.3
99527.9
99498.4
99469.6
99440.8
99409.8
99378.3
99349.7
99324.6
99302.9
99285.4
99272.9
99265.1
99260.9
99259.4
99256.2
101945
101977
102011
102048
102088
102130
102171
102211
102249
102287
102324
102361
102396
102429
102459
102488
102514
102537
102558
102577
102594
102610
100802
100802
100799
100794
100787
100778
100766
100751
100735
100717
100696
100673
100648
100622
100597
100572
100547
100524
100501
100479
100459
100439
101400
101416
101431
101447
101463
101480
101498
101517
101536
101555
101573
101593
101615
101638
101661
101684
101705
101727
101747
101766
101784
101801
101117
101122
101125
101128
101129
101129
101127
101124
101119
101113
101106
101098
101088
101078
101065
101052
101038
101024
101010
100995
100981
100966
101281
101288
101295
101302
101309
101316
101323
101331
101338
101346
101355
101364
101373
101383
101393
101403
101414
101424
101434
101444
101453
101462
101237
101240
101242
101244
101245
101245
101245
101244
101243
101241
101238
101234
101230
101225
101220
101214
101209
101203
101197
101191
101185
101179
101278
101281
101284
101287
101290
101293
101295
101298
101301
101304
101308
101311
101315
101319
101323
101328
101333
101337
101342
101347
101352
101358
101284
101285
101287
101288
101289
101289
101290
101290
101290
101290
101290
101289
101288
101287
101285
101284
101283
101281
101280
101278
101276
101276
101305
101305
101307
101308
101309
101311
101312
101313
101314
101316
101317
101319
101321
101323
101325
101328
101330
101333
101336
101339
101342
101346
101319
101319
101320
101321
101322
101322
101323
101324
101324
101325
101326
101326
101327
101328
101328
101329
101329
101330
101330
101331
101331
101332
101335
101335
101336
101337
101337
101338
101339
101340
101341
101343
101344
101345
101347
101349
101350
101352
101354
101356
101358
101360
101362
101364
101349
101349
101350
101351
101352
101352
101353
101354
101355
101357
101358
101359
101360
101362
101363
101364
101365
101366
101367
101368
101369
101370
101362
101362
101363
101364
101365
101366
101367
101368
101370
101371
101372
101373
101375
101376
101378
101379
101381
101382
101383
101385
101386
101387
101374
101374
101375
101376
101377
101378
101380
101381
101382
101383
101384
101386
101387
101388
101389
101390
101391
101392
101393
101394
101395
101395
101384
101385
101386
101387
101388
101389
101390
101392
101393
101394
101395
101396
101397
101398
101400
101401
101401
101402
101403
101404
101405
101405
101393
101394
101396
101397
101398
101399
101400
101401
101402
101403
101404
101405
101406
101407
101408
101408
101409
101410
101410
101411
101411
101411
101401
101403
101404
101405
101406
101407
101408
101409
101410
101411
101411
101412
101413
101414
101414
101415
101415
101416
101416
101417
101417
101417
101408
101410
101411
101412
101413
101414
101414
101415
101416
101417
101418
101418
101419
101419
101420
101420
101421
101421
101421
101421
101421
101421
101414
101416
101417
101417
101418
101419
101420
101421
101421
101422
101423
101423
101423
101424
101424
101424
101425
101425
101425
101425
101425
101424
101419
101421
101422
101422
101423
101424
101424
101425
101426
101426
101427
101427
101427
101427
101428
101428
101428
101428
101428
101428
101428
101427
101423
101425
101426
101426
101427
101428
101428
101429
101429
101430
101430
101430
101430
101430
101430
101430
101430
101430
101430
101430
101430
101430
101426
101428
101429
101430
101430
101431
101431
101432
101432
101432
101433
101433
101433
101433
101433
101433
101433
101432
101432
101432
101432
101432
101430
101431
101432
101433
101433
101434
101434
101434
101435
101435
101435
101435
101435
101435
101435
101435
101434
101434
101434
101434
101433
101433
101432
101434
101435
101435
101436
101436
101436
101437
101437
101437
101437
101437
101437
101437
101437
101436
101436
101436
101435
101435
101435
101435
111739
111734
111730
111726
111722
111717
111713
111708
111703
111698
111693
111687
111682
111674
111665
111656
111651
111650
111653
111660
111675
111698
111736
111776
111801
111815
111823
111828
111832
111834
111835
111836
111835
111838
111832
92609.9
92621.9
92633.2
92646
92661.1
92678.9
92699.8
92723.5
92751.6
92784
92818.6
92854.6
92898.7
92950.6
93007.9
93063.6
93118.1
93167.9
93209.6
93243
93265.1
93243.2
93124.3
92966.5
92852.5
92823
92838.8
92877.7
92922.2
92970.2
93023.7
93086.1
93156.3
93218.5
93254.2
107175
107180
107186
107193
107196
107198
107199
107196
107184
107161
107123
107064
106973
106863
106726
106563
106383
106209
106076
105985
105935
105915
105869
105836
105867
105917
106018
106134
106241
106330
106395
106435
106455
106464
106468
95918.9
95929.1
95941.7
95955.9
95988.2
96041.7
96114.8
96207
96318.5
96445.2
96579.1
96718.6
96856.3
96980.2
97079.2
97143.5
97182
97189.6
97161.2
97112.8
97074.1
97048.6
97044.5
97029.4
97022.6
97050.4
97081.1
97109.5
97124
97127.2
97124.2
97117.3
97107.5
97096.4
97087.8
103882
103843
103810
103785
103762
103740
103716
103697
103683
103673
103661
103646
103628
103604
103575
103551
103526
103493
103462
103447
103458
103503
103521
103520
103509
103495
103478
103457
103436
103418
103403
103390
103379
103369
103361
99259
99267.3
99278.4
99290.2
99302.5
99312.6
99321.7
99329.6
99335.5
99339.5
99343.8
99358
99377.7
99404.8
99436.4
99462.6
99480.5
99494.3
99508.9
99524.8
99543.9
99573.6
99611
99642.1
99673.9
99715.8
99761.5
99801.5
99834.9
99860.3
99878.4
99890
99896.3
99899
99898.2
102626
102626
102625
102623
102620
102613
102603
102590
102576
102563
102550
102531
102511
102493
102479
102475
102478
102485
102493
102503
102513
102519
102522
102521
102518
102515
102513
102512
102511
102510
102509
102508
102507
102506
102506
100426
100423
100420
100416
100411
100407
100403
100399
100394
100389
100383
100375
100371
100368
100375
100384
100395
100405
100414
100422
100431
100439
100445
100450
100453
100456
100458
100460
100461
100461
100461
100461
100461
100460
100459
101816
101820
101824
101828
101832
101834
101836
101838
101840
101841
101842
101841
101838
101841
101827
101819
101813
101810
101809
101810
101813
101817
101824
101832
101839
101845
101849
101852
101853
101854
101854
101853
101853
101852
101852
100954
100950
100947
100944
100940
100937
100933
100929
100925
100921
100916
100911
100906
100896
100898
100906
100912
100918
100923
100929
100934
100938
100940
100941
100940
100939
100938
100936
100936
100936
100936
100936
100936
100937
100937
101469
101472
101474
101477
101480
101482
101484
101486
101488
101490
101493
101496
101500
101505
101508
101503
101502
101501
101502
101503
101505
101508
101512
101518
101523
101528
101531
101534
101535
101536
101537
101537
101537
101537
101537
101172
101170
101169
101167
101166
101164
101163
101162
101161
101160
101159
101157
101156
101153
101153
101158
101161
101164
101167
101170
101172
101174
101175
101176
101177
101177
101178
101178
101179
101179
101180
101181
101182
101182
101183
101360
101362
101364
101365
101366
101367
101368
101369
101370
101372
101374
101376
101379
101382
101386
101386
101387
101388
101390
101392
101395
101398
101402
101406
101409
101412
101415
101417
101419
101421
101422
101423
101424
101424
101425
101272
101272
101271
101271
101270
101270
101270
101270
101270
101270
101270
101270
101270
101271
101270
101274
101276
101279
101281
101283
101284
101286
101287
101289
101291
101292
101293
101295
101296
101297
101298
101299
101300
101300
101301
101347
101348
101348
101348
101349
101349
101350
101350
101351
101352
101353
101354
101355
101357
101361
101361
101362
101364
101366
101368
101370
101372
101375
101378
101381
101384
101386
101388
101390
101391
101393
101394
101395
101395
101395
101331
101331
101331
101330
101330
101330
101330
101330
101330
101330
101330
101331
101331
101332
101333
101334
101336
101337
101339
101340
101341
101343
101344
101345
101346
101348
101349
101350
101352
101353
101355
101356
101357
101357
101358
101365
101365
101365
101365
101365
101365
101365
101365
101365
101365
101366
101366
101367
101367
101368
101370
101370
101371
101373
101374
101376
101377
101380
101382
101384
101386
101388
101390
101392
101393
101395
101396
101397
101398
101398
101370
101370
101370
101369
101369
101369
101369
101368
101368
101368
101368
101368
101368
101368
101369
101369
101370
101371
101371
101372
101373
101374
101375
101376
101377
101379
101380
101381
101383
101384
101385
101387
101388
101389
101389
101388
101388
101387
101387
101387
101386
101386
101386
101386
101385
101385
101385
101385
101385
101385
101385
101386
101386
101387
101388
101389
101390
101392
101393
101395
101397
101399
101400
101402
101403
101405
101406
101407
101408
101408
101397
101396
101395
101395
101394
101394
101394
101393
101393
101392
101392
101392
101391
101391
101391
101391
101391
101391
101392
101392
101393
101394
101395
101396
101397
101398
101400
101401
101402
101404
101405
101406
101407
101408
101408
101406
101405
101405
101404
101404
101404
101403
101403
101402
101401
101401
101400
101400
101400
101399
101399
101399
101400
101400
101400
101401
101402
101403
101405
101406
101408
101409
101411
101412
101414
101415
101416
101417
101418
101418
101413
101412
101411
101411
101410
101410
101409
101408
101408
101407
101407
101406
101406
101405
101405
101405
101405
101405
101405
101405
101406
101407
101408
101409
101410
101411
101412
101414
101415
101416
101417
101418
101419
101420
101420
101418
101417
101417
101416
101416
101415
101415
101414
101413
101413
101412
101411
101411
101410
101410
101410
101410
101410
101410
101410
101411
101412
101413
101414
101415
101417
101418
101419
101420
101422
101423
101424
101424
101425
101426
101422
101421
101421
101420
101420
101419
101419
101418
101417
101417
101416
101415
101415
101414
101414
101413
101413
101413
101413
101414
101414
101415
101416
101417
101418
101419
101421
101422
101423
101424
101425
101426
101427
101427
101428
101425
101425
101424
101424
101423
101422
101422
101421
101421
101420
101419
101419
101418
101417
101417
101417
101417
101417
101417
101417
101418
101418
101419
101420
101422
101423
101424
101425
101426
101427
101428
101429
101430
101431
101431
101428
101427
101427
101426
101426
101425
101424
101424
101423
101423
101422
101421
101421
101420
101420
101419
101419
101419
101419
101420
101420
101421
101422
101423
101424
101425
101426
101427
101428
101429
101430
101431
101432
101432
101433
101430
101429
101429
101428
101428
101427
101427
101426
101425
101425
101424
101423
101423
101422
101422
101421
101421
101421
101421
101422
101422
101423
101424
101425
101426
101427
101428
101429
101430
101431
101432
101433
101434
101434
101435
101432
101431
101430
101430
101429
101429
101428
101428
101427
101426
101426
101425
101424
101424
101423
101423
101423
101423
101423
101423
101424
101424
101425
101426
101427
101429
101430
101431
101432
101433
101433
101434
101435
101435
101436
101433
101432
101432
101431
101431
101430
101430
101429
101428
101428
101427
101426
101426
101425
101425
101424
101424
101424
101424
101425
101425
101426
101427
101428
101429
101430
101431
101432
101433
101434
101435
101435
101436
101437
101437
101434
101434
101433
101433
101432
101431
101431
101430
101429
101429
101428
101427
101427
101426
101426
101425
101425
101425
101425
101426
101426
101427
101428
101429
101430
101431
101432
101433
101434
101435
101435
101436
101437
101437
101438
101441
101440
101440
101439
101438
101437
101436
101435
101434
101433
101432
101430
101429
101428
101427
101427
101426
101426
101426
101426
101426
101427
101427
101427
101428
101428
101429
101430
101430
101431
101431
101432
101432
101433
101433
101441
101441
101440
101440
101439
101438
101437
101436
101435
101434
101432
101431
101430
101429
101428
101428
101427
101427
101427
101427
101427
101427
101428
101428
101429
101429
101430
101430
101431
101432
101432
101433
101433
101433
101434
101442
101441
101441
101440
101439
101438
101437
101436
101435
101434
101433
101432
101431
101430
101429
101428
101428
101428
101428
101427
101428
101428
101428
101429
101429
101430
101430
101431
101431
101432
101433
101433
101434
101434
101434
101442
101442
101441
101440
101440
101439
101438
101437
101436
101434
101433
101432
101431
101430
101429
101429
101428
101428
101428
101428
101428
101428
101428
101429
101429
101430
101430
101431
101432
101432
101433
101433
101434
101434
101434
101442
101442
101441
101440
101440
101439
101438
101437
101436
101435
101433
101432
101431
101430
101430
101429
101428
101428
101428
101428
101428
101428
101428
101429
101429
101430
101430
101431
101432
101432
101433
101433
101434
101434
101434
101442
101441
101441
101440
101439
101439
101438
101437
101436
101435
101433
101432
101431
101430
101430
101429
101428
101428
101428
101428
101428
101428
101428
101428
101429
101429
101430
101431
101431
101432
101432
101433
101434
101434
101434
101442
101441
101441
101440
101439
101438
101437
101436
101435
101434
101433
101432
101431
101430
101429
101429
101428
101428
101428
101427
101427
101427
101428
101428
101428
101429
101429
101430
101431
101431
101432
101433
101433
101434
101434
101441
101441
101440
101440
101439
101438
101437
101436
101435
101434
101433
101432
101431
101430
101429
101429
101428
101428
101427
101427
101427
101427
101427
101427
101428
101428
101429
101429
101430
101431
101431
101432
101433
101433
101433
101441
101440
101440
101439
101439
101438
101437
101436
101435
101434
101433
101432
101431
101430
101429
101428
101428
101427
101427
101427
101426
101426
101426
101427
101427
101427
101428
101428
101429
101430
101430
101431
101432
101432
101432
101440
101440
101439
101439
101438
101437
101436
101436
101435
101434
101433
101432
101431
101430
101429
101428
101427
101427
101427
101426
101426
101426
101426
101426
101426
101426
101427
101427
101428
101429
101429
101430
101431
101431
101431
101440
101440
101439
101438
101438
101437
101436
101435
101434
101433
101432
101431
101430
101429
101428
101428
101427
101427
101426
101426
101425
101425
101425
101425
101425
101425
101426
101426
101427
101427
101428
101429
101430
101430
101430
101439
101439
101439
101438
101437
101437
101436
101435
101434
101433
101432
101431
101430
101429
101428
101427
101427
101426
101426
101425
101425
101424
101424
101424
101424
101424
101424
101425
101425
101426
101426
101427
101428
101429
101429
101439
101439
101438
101437
101437
101436
101435
101434
101433
101432
101431
101431
101430
101429
101428
101427
101426
101426
101425
101424
101424
101423
101423
101423
101423
101423
101423
101423
101424
101424
101425
101426
101426
101427
101427
101438
101438
101438
101437
101436
101436
101435
101434
101433
101432
101431
101430
101429
101428
101427
101427
101426
101425
101425
101424
101423
101423
101422
101422
101421
101421
101421
101421
101422
101422
101423
101424
101425
101425
101425
101438
101438
101437
101437
101436
101435
101434
101434
101433
101432
101431
101430
101429
101428
101427
101426
101425
101425
101424
101423
101423
101422
101421
101421
101420
101420
101420
101420
101420
101420
101421
101421
101422
101423
101423
101437
101437
101437
101436
101435
101435
101434
101433
101432
101431
101430
101429
101428
101427
101427
101426
101425
101424
101424
101423
101422
101421