/*--------------------------------*- C++ -*----------------------------------*\
  =========                 |
  \\      /  F ield         | OpenFOAM: The Open Source CFD Toolbox
   \\    /   O peration     | Website:  https://openfoam.org
    \\  /    A nd           | Version:  8
     \\/     M anipulation  |
\*---------------------------------------------------------------------------*/
FoamFile
{
    version     2.0;
    format      ascii;
    class       volScalarField;
    location    "0.14";
    object      epsilon;
}
// * * * * * * * * * * * * * * * * * * * * * * * * * * * * * * * * * * * * * //

dimensions      [0 2 -3 0 0 0 0];

internalField   nonuniform List<scalar> 
15677
(
59.7302
18.3646
52.6883
8.08377
26.0272
50.2357
4.62237
13.3248
31.6574
50.5439
3.17415
7.74947
17.1289
37.3375
51.6382
2.487
5.05429
10.0487
20.8541
42.6856
53.6777
2.14425
3.62772
6.47296
12.1839
24.574
47.6809
55.7353
1.97932
2.82285
4.5298
7.73516
14.2947
28.2731
52.0322
57.6652
1.91149
2.35341
3.40397
5.31559
8.92626
16.4373
31.7676
55.7059
59.3621
1.88406
2.0803
2.72413
3.91178
6.02719
10.1138
18.5442
34.9591
58.7186
60.8592
1.8705
1.93937
2.30738
3.05668
4.36067
6.71179
11.279
20.5722
37.7734
61.1878
62.1242
1.86763
1.87828
2.0565
2.52159
3.34932
4.77884
7.36673
12.4206
22.4595
40.2293
63.1748
63.235
1.86862
1.84884
1.91655
2.18625
2.71307
3.6165
5.16749
8.00315
13.5058
24.1992
42.3183
64.7951
64.16
1.86954
1.83871
1.85192
1.9827
2.30709
2.88706
3.85935
5.5374
8.60586
14.5342
25.7568
44.1011
66.0934
64.9936
1.86978
1.83699
1.82112
1.86776
2.05145
2.41848
3.04348
4.08563
5.88224
9.17957
15.4803
27.1505
45.5858
67.1459
65.7186
1.86977
1.83726
1.81051
1.81335
1.89821
2.11765
2.51896
3.18704
4.29287
6.20742
9.7097
16.3522
28.3625
46.8348
68.0033
66.3617
1.86972
1.83753
1.80821
1.78979
1.81542
1.93041
2.17884
2.61074
3.31674
4.48539
6.50537
10.2022
17.1294
29.4181
47.8679
68.7017
66.9486
1.86969
1.83763
1.8079
1.78277
1.7757
1.82154
1.9624
2.23535
2.69315
3.43554
4.6596
6.78064
10.6443
17.8249
30.3117
48.7132
69.2976
67.4508
1.86967
1.83765
1.80791
1.78106
1.76145
1.76617
1.83176
1.99319
2.28634
2.76795
3.54181
4.81878
7.0262
11.0441
18.4238
31.0646
49.4066
69.7693
67.9572
1.86966
1.83765
1.80792
1.78073
1.75696
1.74395
1.76039
1.84318
2.02161
2.33258
2.83437
3.6378
4.95926
7.24747
11.3897
18.9413
31.6805
49.9477
70.2122
68.3538
1.86966
1.83764
1.8079
1.7807
1.75568
1.73592
1.72952
1.75744
1.85454
2.04776
2.37363
2.89383
3.72172
5.08452
7.43755
11.6912
19.3656
32.1756
50.3934
70.5394
68.8253
1.86966
1.83763
1.80788
1.78068
1.75535
1.73322
1.71728
1.71804
1.75589
1.8657
2.07123
2.41026
2.94557
3.79575
5.19114
7.6027
11.9375
19.7161
32.5602
50.7116
70.9048
69.1412
1.86966
1.83763
1.80786
1.78067
1.75526
1.73238
1.71265
1.70135
1.70849
1.75582
1.87612
2.0923
2.44216
2.9909
3.85843
5.28287
7.73679
12.1424
19.9804
32.846
50.9808
71.1458
69.6091
1.86966
1.83762
1.80785
1.78064
1.75522
1.73213
1.71101
1.69454
1.68726
1.70092
1.75615
1.88573
2.11087
2.47017
3.02938
3.912
5.35693
7.84729
12.2941
20.1849
33.0475
51.147
71.4886
69.8686
1.86966
1.83762
1.80784
1.78062
1.75518
1.73203
1.71045
1.69193
1.678
1.67539
1.69466
1.75694
1.89461
2.12745
2.49425
3.06235
3.95547
5.41748
7.92913
12.4121
20.3136
33.172
51.2903
71.6864
70.3368
1.86967
1.83761
1.80784
1.7806
1.75515
1.73197
1.71024
1.69097
1.67417
1.66377
1.66492
1.68966
1.75846
1.90291
2.14211
2.51532
3.08987
3.99152
5.463
7.99133
12.4815
20.3996
33.2416
51.378
72.0704
70.587
1.86967
1.83761
1.80783
1.78059
1.75512
1.73192
1.71014
1.69059
1.67266
1.65873
1.65076
1.65645
1.68607
1.76035
1.91088
2.15569
2.53385
3.11348
4.01961
5.49736
8.0288
12.5289
20.4233
33.2444
51.4272
72.3627
430.284
1.86967
1.83761
1.80783
1.78057
1.75511
1.73188
1.71007
1.69041
1.67205
1.65661
1.64434
1.64022
1.64922
1.68343
1.76335
1.91918
2.16853
2.55078
3.13352
4.04255
5.52082
8.05342
12.5341
20.4125
33.2273
51.5237
88.6021
722.54
1.86967
1.8376
1.80783
1.78056
1.75509
1.73185
1.71001
1.6903
1.67177
1.65571
1.64153
1.63258
1.63063
1.64429
1.68344
1.76766
1.92815
2.18168
2.56706
3.15208
4.06128
5.53747
8.0596
12.525
20.3829
33.1892
52.4049
121.821
1010.45
1.86968
1.8376
1.80783
1.78055
1.75508
1.73182
1.70997
1.69021
1.67161
1.65527
1.64031
1.62906
1.62167
1.62429
1.64088
1.68482
1.77371
1.93879
2.19597
2.58411
3.17003
4.07793
5.54806
8.05702
12.5032
20.3267
33.1953
54.8893
157.571
1267.42
1.86968
1.83759
1.80783
1.78054
1.75507
1.73179
1.70993
1.69015
1.6715
1.65503
1.63973
1.62744
1.61751
1.61426
1.61864
1.64137
1.68852
1.78243
1.95186
2.21262
2.60278
3.18905
4.09375
5.55546
8.05051
12.4659
20.2667
33.2654
59.3845
190.576
1507.37
1.86968
1.83759
1.80784
1.78053
1.75507
1.73177
1.7099
1.69009
1.67141
1.65487
1.63941
1.62664
1.61556
1.60935
1.60768
1.61832
1.64394
1.6958
1.79463
1.96853
2.23254
2.62473
3.21033
4.11114
5.56286
8.0391
12.4268
20.2042
33.481
64.0488
222.044
1714.25
1.86968
1.83759
1.80784
1.78052
1.75506
1.73175
1.70988
1.69004
1.67133
1.65475
1.6392
1.6262
1.6146
1.60696
1.60236
1.60627
1.62026
1.64987
1.70753
1.8115
1.9898
2.25733
2.65102
3.23597
4.13148
5.57235
8.02995
12.3865
20.1348
33.901
68.7899
249.964
1874.41
1.86969
1.83758
1.80784
1.78052
1.75506
1.73173
1.70986
1.69
1.67127
1.65465
1.63903
1.62592
1.61405
1.60575
1.59976
1.60023
1.60801
1.62568
1.6612
1.72474
1.83406
2.01717
2.288
2.68347
3.26684
4.15729
5.58656
8.02274
12.3471
20.0737
34.416
73.1031
271.808
2001.23
1.86969
1.83758
1.80784
1.78051
1.75506
1.73172
1.70985
1.68996
1.67122
1.65456
1.63889
1.62572
1.61369
1.60508
1.59841
1.59724
1.60187
1.61325
1.63651
1.67875
1.74848
1.86383
2.0517
2.32623
2.72295
3.30522
4.18948
5.60712
8.02305
12.3078
20.0191
34.9173
76.433
289.212
2105.26
1.83758
1.86972
1.80784
1.7805
1.75506
1.7317
1.70984
1.68992
1.67118
1.65449
1.63878
1.62555
1.61342
1.60465
1.59764
1.5957
1.59884
1.60708
1.62394
1.65447
1.70355
1.78038
1.90193
2.09512
2.37303
2.7714
3.35157
4.23024
5.63495
8.02654
12.2674
19.9624
35.2845
78.9898
303.365
2193.81
1.80785
1.83767
1.8698
1.7805
1.75506
1.73169
1.70983
1.68989
1.67115
1.65442
1.63868
1.62541
1.6132
1.60434
1.59714
1.59486
1.59731
1.6041
1.61784
1.64241
1.6803
1.73721
1.82155
1.9501
2.14833
2.43005
2.82936
3.40806
4.27932
5.67075
8.03647
12.2269
19.8995
35.5401
80.9205
315.399
2271.92
1.78049
1.80801
1.83787
1.86987
1.75506
1.73167
1.70982
1.68986
1.67112
1.65436
1.6386
1.62529
1.61301
1.6041
1.59676
1.59434
1.5965
1.60267
1.61503
1.63686
1.66925
1.71575
1.78113
1.87389
2.00939
2.21306
2.49812
2.89874
3.47415
4.33812
5.7195
8.05736
12.1954
19.8303
35.6772
82.4395
325.843
2342.6
1.75506
1.7807
1.80833
1.83807
1.86995
1.73166
1.70982
1.68984
1.6711
1.6543
1.63854
1.62518
1.61285
1.60389
1.59646
1.59397
1.59602
1.60199
1.61383
1.63466
1.66474
1.70644
1.76238
1.83748
1.93876
2.08187
2.28999
2.57867
2.97913
3.55152
4.41384
5.78535
8.08968
12.1694
19.7535
35.7517
83.6293
335.286
2408.1
1.73165
1.75532
1.78111
1.80866
1.83828
1.87003
1.70982
1.68981
1.67108
1.65425
1.63849
1.62508
1.61272
1.60372
1.5962
1.59369
1.59569
1.60163
1.61342
1.63412
1.66363
1.70381
1.75594
1.82279
1.90785
2.01865
2.16849
2.38111
2.67168
3.07222
3.6491
4.51198
5.86393
8.13138
12.1532
19.6755
35.7485
84.6244
343.887
2469.32
1.70981
1.73194
1.75584
1.78154
1.809
1.8385
1.87011
1.68979
1.67107
1.6542
1.63845
1.62499
1.61261
1.60357
1.59598
1.59346
1.59544
1.60142
1.61332
1.6343
1.66408
1.70428
1.7556
1.82
1.89873
1.99538
2.11493
2.27175
2.48695
2.77828
3.18871
3.77387
4.62376
5.95361
8.18288
12.1424
19.5969
35.7284
85.4501
351.972
2527.43
1.68977
1.71015
1.73253
1.75637
1.78198
1.80934
1.83872
1.87019
1.67106
1.65416
1.63842
1.6249
1.61253
1.60344
1.5958
1.59327
1.59525
1.60128
1.61336
1.63479
1.6653
1.7065
1.75865
1.82328
1.90052
1.99257
2.1009
2.231
2.39246
2.60948
2.91267
3.33531
3.9127
4.74827
6.05321
8.2425
12.143
19.5234
35.6848
86.1897
359.515
2582.38
1.67105
1.69012
1.71083
1.73314
1.75692
1.78244
1.8097
1.83894
1.87028
1.65412
1.63839
1.62483
1.61246
1.60332
1.59564
1.5931
1.59509
1.60119
1.61346
1.63535
1.66674
1.70948
1.76352
1.83023
1.9091
2.00132
2.10628
2.22711
2.36634
2.53366
2.76495
3.08393
3.49988
4.06571
4.8836
6.16154
8.30991
12.1476
19.455
35.6267
86.8339
366.732
2635.01
1.65408
1.67144
1.69084
1.71153
1.73377
1.75749
1.78291
1.81007
1.83918
1.87036
1.63837
1.62475
1.6124
1.6032
1.5955
1.59297
1.59496
1.60112
1.61359
1.63593
1.66821
1.71257
1.76912
1.8392
1.92159
2.01736
2.12447
2.24416
2.37528
2.52359
2.71276
2.96509
3.27783
3.68253
4.23173
5.02843
6.27724
8.38379
12.158
19.3946
35.5631
87.4432
373.529
2684.82
1.63836
1.65446
1.67224
1.69159
1.71224
1.73441
1.75807
1.78339
1.81044
1.83942
1.87045
1.62469
1.61236
1.60309
1.5954
1.59285
1.59485
1.60108
1.61373
1.63649
1.66963
1.71556
1.7747
1.84895
1.9364
2.03782
2.15062
2.27509
2.40745
2.55004
2.7234
2.94105
3.19342
3.49493
3.88168
4.40963
5.18147
6.39914
8.46277
12.1767
19.3412
35.5042
87.9947
380.074
2732.66
1.62463
1.63877
1.65527
1.67306
1.69236
1.71298
1.73508
1.75866
1.78388
1.81083
1.83966
1.87054
1.61233
1.60299
1.59531
1.59275
1.59475
1.60105
1.61387
1.63703
1.67099
1.71839
1.78006
1.85854
1.95211
2.06128
2.18209
2.31522
2.45495
2.60187
2.77453
2.98306
3.2
3.44513
3.73378
4.09704
4.59848
5.34147
6.52572
8.54602
12.2007
19.2961
35.4492
88.5332
386.249
2777.75
1.61231
1.62499
1.63963
1.6561
1.67391
1.69315
1.71374
1.73576
1.75927
1.78439
1.81122
1.83992
1.87063
1.60288
1.59525
1.59266
1.59467
1.60103
1.61401
1.63752
1.67225
1.72102
1.78512
1.86769
1.96747
2.08606
2.21762
2.36224
2.51362
2.67154
2.85392
3.06946
3.28266
3.49149
3.71941
3.98984
4.32693
4.79638
5.50667
6.65575
8.63247
12.2296
19.2578
35.4022
89.0317
392.205
2821.09
1.60279
1.61269
1.62578
1.64052
1.65695
1.67478
1.69397
1.71452
1.73647
1.7599
1.78491
1.81163
1.84018
1.87073
1.59521
1.59257
1.5946
1.60101
1.61414
1.63799
1.67343
1.72346
1.78987
1.87631
1.98219
2.11045
2.25514
2.41524
2.58169
2.75571
2.95531
3.18962
3.41426
3.62371
3.81482
4.01611
4.25959
4.56855
5.00171
5.67622
6.78804
8.72117
12.2623
19.2271
35.3627
89.5246
397.807
2861.67
1.59519
1.60303
1.61351
1.6266
1.64143
1.65784
1.67567
1.69481
1.71532
1.73719
1.76054
1.78545
1.81204
1.84044
1.87081
1.59247
1.59453
1.60099
1.61426
1.63841
1.67451
1.72571
1.7943
1.88436
1.99616
2.13396
2.2922
2.47175
2.65881
2.85342
3.07666
3.33937
3.58827
3.81262
4.00718
4.16917
4.33418
4.54153
4.81899
5.21372
5.84872
6.9216
8.81121
12.2983
19.2023
35.3309
89.987
403.22
2900.71
1.59239
1.59546
1.60363
1.61435
1.62745
1.64238
1.65876
1.67659
1.69568
1.71614
1.73794
1.7612
1.786
1.81245
1.84069
1.8709
1.59445
1.60097
1.61438
1.63881
1.6755
1.72777
1.79839
1.89183
2.00936
2.15639
2.32817
2.52844
2.7419
2.96527
3.2186
3.51937
3.80419
4.05739
4.26826
4.43409
4.55359
4.67151
4.83406
5.07319
5.42971
6.02273
7.05528
8.90177
12.3367
19.184
35.3069
90.4452
408.278
2937
1.5944
1.59233
1.59603
1.60422
1.61523
1.62834
1.64335
1.65971
1.67753
1.69658
1.71698
1.7387
1.76188
1.78654
1.81285
1.84093
1.87098
1.60094
1.61447
1.63917
1.67641
1.72966
1.80216
1.89875
2.02176
2.1776
2.36283
2.5843
2.82599
3.08767
3.38385
3.73392
4.06787
4.36433
4.6065
4.78631
4.90588
4.96704
5.02592
5.13609
5.32998
5.64731
6.19662
7.1882
8.99212
12.3771
19.17
35.2885
90.8786
413.181
2971.96
1.60096
1.59421
1.59224
1.59661
1.60486
1.61615
1.62927
1.64435
1.66069
1.6785
1.6975
1.71785
1.73949
1.76254
1.78707
1.81323
1.84116
1.87106
1.61456
1.63949
1.67724
1.73139
1.80563
1.90512
2.03333
2.19751
2.39605
2.63874
2.90941
3.21413
3.56912
3.99061
4.39111
4.74992
5.04123
5.24974
5.37391
5.42459
5.40862
5.39543
5.44531
5.58803
5.86516
6.36976
7.31977
9.08167
12.4186
19.1617
35.2778
91.3053
417.721
3004.23
1.6147
1.60052
1.59378
1.5921
1.59725
1.60556
1.61709
1.63025
1.64537
1.66171
1.6795
1.69845
1.71873
1.74027
1.76319
1.78758
1.81361
1.84139
1.87114
1.63977
1.67798
1.73297
1.8088
1.911
2.04408
2.21611
2.42771
2.69124
2.99147
3.34295
3.76529
4.28728
4.79285
5.24347
5.61097
5.86759
6.00651
6.04008
5.99273
5.87751
5.77812
5.75965
5.84585
6.08067
6.54158
7.44934
9.1699
12.4611
19.1559
35.2701
91.7109
422.149
3035.39
1.64012
1.61385
1.59943
1.59329
1.59205
1.59793
1.60632
1.61806
1.63127
1.64643
1.66277
1.68052
1.69943
1.71961
1.74103
1.76383
1.78809
1.81397
1.84162
1.87122
1.67864
1.73439
1.81169
1.9164
2.05404
2.23345
2.45773
2.74141
3.07179
3.47314
3.96847
4.61112
5.28063
5.8923
6.38069
6.71712
6.88469
6.89848
6.79386
6.61245
6.37271
6.17212
6.07719
6.10255
6.29156
6.71065
7.57625
9.25639
12.5039
19.1553
35.2702
92.1074
426.213
3060.43
1.67935
1.63866
1.61163
1.59823
1.59289
1.5921
1.59864
1.60716
1.61905
1.63234
1.64751
1.66386
1.68156
1.7004
1.72046
1.74176
1.76444
1.78857
1.81433
1.84184
1.87129
1.73568
1.8143
1.92134
2.06323
2.24957
2.48605
2.78907
3.15013
3.60328
4.17582
4.95938
5.84574
6.73034
7.4478
7.91761
8.14013
8.13147
7.94364
7.64156
7.28448
6.89273
6.57548
6.3962
6.35726
6.49742
6.87593
7.69994
9.34075
12.5466
19.1565
35.2722
92.483
429.663
3081.6
1.737
1.67713
1.63466
1.60927
1.59716
1.5926
1.59229
1.59934
1.60807
1.62007
1.63346
1.64862
1.66498
1.6826
1.70134
1.72129
1.74248
1.76504
1.78905
1.81467
1.84205
1.87137
1.8167
1.92586
2.07168
2.26453
2.51265
2.83415
3.22625
3.73183
4.38547
5.33327
6.49166
7.74995
8.87697
9.62841
9.95686
9.93462
9.63284
9.15079
8.58446
8.00718
7.43525
6.98612
6.71508
6.60864
6.6978
7.03667
7.81994
9.42267
12.5891
19.1594
35.2769
92.7982
432.513
3104.5
1.81905
1.7338
1.67072
1.63039
1.60712
1.5962
1.59236
1.59268
1.60003
1.60906
1.62112
1.63462
1.64976
1.6661
1.68361
1.70226
1.7221
1.74318
1.76562
1.78951
1.81501
1.84225
1.87144
1.93003
2.07943
2.2784
2.53755
2.87671
3.29987
3.85744
4.59695
5.73427
7.22004
8.9467
10.6382
11.9379
12.5628
12.5628
12.1259
11.3941
10.5173
9.61792
8.77626
7.99707
7.40178
7.03229
6.85561
6.89229
7.19232
7.93589
9.5019
12.6308
19.1649
35.2838
93.0639
435.621
3129.59
1.93401
1.81463
1.72393
1.66398
1.62641
1.60514
1.59532
1.59205
1.59324
1.60074
1.61012
1.6222
1.63582
1.6509
1.66718
1.6846
1.70316
1.72289
1.74386
1.76618
1.78995
1.81533
1.84245
1.87147
2.08665
2.29126
2.56079
2.91684
3.3707
3.97926
4.81078
6.16236
8.02555
10.3071
12.7033
14.7757
16.0739
16.3292
15.7603
14.7113
13.403
12.0303
10.732
9.58509
8.57416
7.82006
7.34638
7.09723
7.08052
7.34247
8.04752
9.57828
12.6717
19.1709
35.291
93.3592
438.986
3156.91
2.09332
1.92803
1.79985
1.71367
1.65765
1.6227
1.60329
1.59453
1.59174
1.59392
1.60148
1.61124
1.62332
1.63701
1.65202
1.66824
1.68557
1.70402
1.72365
1.74452
1.76673
1.79039
1.81565
1.84255
1.87147
2.30333
2.58247
2.95464
3.43848
4.09694
5.02782
6.61539
8.8977
11.808
15.0368
18.0867
20.3755
21.3981
20.9654
19.5434
17.6677
15.6343
13.6696
11.9129
10.4253
9.16193
8.23845
7.656
7.33273
7.26217
7.48684
8.15466
9.65162
12.7062
19.1769
35.3002
93.6821
442.699
3187.02
2.31425
2.0855
1.90621
1.78466
1.70403
1.65169
1.6192
1.60159
1.5938
1.59151
1.59469
1.60228
1.61239
1.62446
1.63818
1.65311
1.66927
1.68651
1.70487
1.7244
1.74516
1.76727
1.79081
1.81581
1.84255
1.87147
2.60291
2.99028
3.50308
4.21059
5.2487
7.08939
9.82337
13.4226
17.5939
21.8101
25.3834
27.6096
27.9832
26.4757
23.8838
20.9581
18.0554
15.4112
13.1452
11.2878
9.75548
8.65451
7.95985
7.5614
7.43703
7.62531
8.2572
9.71266
12.7361
19.1844
35.3123
94.0461
446.72
3219.84
2.62099
2.30395
2.05364
1.8841
1.77039
1.6949
1.64601
1.61589
1.60001
1.59315
1.59137
1.59552
1.60314
1.61354
1.62559
1.63931
1.65419
1.67026
1.68742
1.70569
1.72513
1.74578
1.76778
1.79102
1.81581
1.84255
1.87147
3.02413
3.56462
4.32073
5.47363
7.5791
10.7886
15.1233
20.327
25.872
31.0022
34.8427
36.6053
35.8602
32.8343
28.7348
24.5367
20.6302
17.2299
14.4127
12.1631
10.35
9.06585
8.25677
7.78274
7.60494
7.75761
8.34254
9.76493
12.7694
19.194
35.3281
94.4455
451.171
3256.12
3.0537
2.6077
2.25751
2.02178
1.86334
1.75682
1.68614
1.64057
1.61279
1.59854
1.59261
1.59134
1.59638
1.60406
1.61465
1.62671
1.64041
1.65523
1.67123
1.68831
1.70649
1.72583
1.74638
1.76804
1.79102
1.81581
1.84255
1.87147
3.62353
4.42813
5.70233
8.07848
11.7794
16.8834
23.1885
30.1931
37.1126
42.9498
46.6605
47.4344
45.0148
39.9867
34.0357
28.3528
23.3214
19.1008
15.7
13.0425
10.9409
9.4702
8.54574
7.9963
7.76583
7.86664
8.41558
9.82273
12.8068
19.2059
35.3488
94.8986
455.999
3295.63
3.67459
3.03615
2.53991
2.21181
1.99191
1.84354
1.74375
1.67771
1.63538
1.60987
1.59721
1.59219
1.59144
1.59722
1.60503
1.61573
1.62782
1.64148
1.65626
1.67218
1.68918
1.70726
1.72652
1.74668
1.76804
1.79102
1.81581
1.84255
1.87147
4.53343
5.93214
8.58144
12.7824
18.6771
26.1328
34.6946
43.5853
51.7415
57.9255
60.962
60.1047
55.3868
47.8525
39.7156
32.3533
26.093
21.0007
16.993
13.9178
11.524
9.86565
8.82593
8.20175
7.89954
7.95942
8.49622
9.88674
12.8487
19.2209
35.3753
95.3962
461.384
3339.43
4.62595
3.65196
2.93562
2.47433
2.16902
1.96339
1.82445
1.73113
1.66961
1.63044
1.60716
1.59602
1.59188
1.59171
1.59802
1.60603
1.61679
1.62891
1.64252
1.65726
1.6731
1.69003
1.70802
1.72686
1.74668
1.76804
1.79102
1.81581
1.84255
1.87143
6.16041
9.08375
13.7856
20.4806
29.1165
39.3008
50.2914
61.0107
70.1065
76.1143
77.7876
74.556
66.8721
56.331
45.6968
36.4851
28.9112
22.909
18.2794
14.7819
12.0956
10.2505
9.09657
8.37289
8.01392
8.06134
8.58537
9.95777
12.8959
19.2394
35.4094
95.9487
467.235
3387.02
4.59588
6.36201
3.49775
2.8407
2.41303
2.12815
1.93585
1.80598
1.71896
1.66184
1.62575
1.60469
1.59496
1.59166
1.59222
1.59878
1.60705
1.61782
1.62998
1.64353
1.65824
1.67399
1.69085
1.70839
1.72686
1.74668
1.76804
1.79102
1.81581
1.84245
1.87136
9.58059
14.7781
22.2727
32.0999
43.9419
57.1104
70.5532
82.8813
92.4514
97.5979
97.0861
90.6607
79.3295
65.3067
51.8992
40.6976
31.7453
24.8075
19.5485
15.629
12.6528
10.6234
9.32278
8.51952
8.14023
8.1735
8.68402
10.0368
12.9491
19.2627
35.4522
96.5416
473.812
3439.92
4.34178
6.33328
10.0192
3.35725
2.75228
2.35448
2.08867
1.90919
1.78814
1.70727
1.65442
1.62128
1.60246
1.59404
1.59136
1.59287
1.59952
1.60807
1.61882
1.63104
1.64452
1.65919
1.67487
1.69126
1.70839
1.72686
1.74668
1.76804
1.79102
1.81565
1.84225
1.87129
15.7494
24.0349
35.0491
48.5561
63.9351
80.1842
95.9375
109.489
118.901
122.345
118.713
108.231
92.5888
74.6554
58.2439
44.9437
34.5681
26.6805
20.7918
16.4543
13.1931
10.9357
9.517
8.68172
8.27992
8.29714
8.79332
10.1247
13.0095
19.2913
35.5055
97.2092
480.964
3497.16
4.11846
5.88487
10.01
16.6083
3.22789
2.66788
2.29797
2.05047
1.88344
1.77097
1.69606
1.64735
1.61709
1.60048
1.59328
1.59112
1.59359
1.60027
1.60908
1.61981
1.63207
1.64549
1.66013
1.6753
1.69126
1.70838
1.72686
1.74668
1.76804
1.7908
1.81533
1.84204
1.87122
25.7495
37.9353
53.0925
70.6747
89.7461
109
126.762
140.992
149.451
150.206
142.437
127.03
106.46
84.2518
64.6564
49.1811
37.3559
28.5153
22.0021
17.2539
13.6457
11.2041
9.73229
8.86145
8.43467
8.43368
8.91457
10.2229
13.078
19.3268
35.5717
97.9283
489.077
3561
3.91711
5.49309
9.19359
16.6632
27.2749
3.10507
2.58654
2.24336
2.01359
1.85864
1.75449
1.68535
1.6407
1.61334
1.59881
1.59264
1.59099
1.59433
1.60103
1.61008
1.62079
1.63307
1.64645
1.66059
1.67529
1.69126
1.70838
1.72686
1.74668
1.76778
1.79038
1.815
1.84183
1.87114
40.7317
57.5106
77.2591
99.1136
121.847
143.874
163.202
177.417
183.965
180.92
167.95
146.784
120.748
93.9751
71.068
53.3723
40.0895
30.3018
23.1739
17.9233
14.0348
11.502
9.97132
9.06095
8.60635
8.58476
9.0493
10.3327
13.156
19.3704
35.653
98.7527
497.891
3629.6
3.72938
5.14103
8.46379
15.2961
27.4935
43.2279
2.98721
2.5081
2.19071
1.97809
1.83483
1.73873
1.67524
1.63465
1.61006
1.59737
1.59213
1.59097
1.59508
1.60181
1.61106
1.62176
1.63407
1.64691
1.66058
1.67528
1.69126
1.70839
1.72686
1.74638
1.76726
1.78994
1.81466
1.84161
1.87106
61.7722
83.6355
108.196
134.313
160.52
184.967
205.299
218.654
222.178
214.121
194.883
167.199
135.258
103.713
77.4176
57.486
42.7527
32.0316
24.1544
18.4984
14.4665
11.8331
10.2371
9.28275
8.79715
8.75227
9.1992
10.4557
13.2451
19.4243
35.7531
99.6451
508.01
3706.39
3.55222
4.81509
7.80032
14.0285
25.399
43.7526
65.5791
2.87399
2.43267
2.14011
1.94404
1.81206
1.72383
1.666
1.62927
1.6072
1.59614
1.59176
1.59105
1.59581
1.60261
1.61202
1.62274
1.63456
1.64689
1.66058
1.67528
1.69126
1.70839
1.72651
1.74577
1.76672
1.78949
1.81432
1.84139
1.87098
89.7543
116.932
146.29
176.489
205.875
232.314
252.974
264.461
263.697
249.351
222.827
187.981
149.806
113.363
83.6541
61.4967
45.3329
33.479
24.9963
19.1359
14.9461
12.2014
10.5331
9.52976
9.00956
8.93838
9.36631
10.5939
13.3472
19.4903
35.8755
100.689
518.942
3788.01
3.38479
4.51065
7.18217
12.84
23.4228
40.7534
66.5863
95.2101
2.76543
2.36038
2.09166
1.91151
1.79053
1.71018
1.65772
1.62449
1.60469
1.5951
1.59151
1.59125
1.59651
1.60344
1.61301
1.6232
1.63454
1.64689
1.66058
1.67529
1.69126
1.70801
1.72582
1.74514
1.76616
1.78903
1.81396
1.84116
1.8709
125.263
157.716
191.664
225.665
257.903
285.849
306.036
314.469
308.009
286.085
251.361
208.846
164.228
122.84
89.7348
65.3833
47.4923
34.7219
25.9293
19.8435
15.4794
12.6118
10.8632
9.8053
9.24645
9.14562
9.55286
10.7493
13.4646
19.5716
36.026
101.827
531.705
3895.6
3.22671
4.22691
6.60205
11.7112
21.5324
37.8963
62.5159
96.8855
132.657
2.66162
2.29139
2.04545
1.88079
1.77078
1.69791
1.65032
1.62024
1.60251
1.59423
1.59133
1.59159
1.59722
1.60435
1.61347
1.62316
1.63454
1.64689
1.66058
1.6753
1.69085
1.70725
1.72511
1.74449
1.7656
1.78855
1.8136
1.84092
1.87081
168.531
205.996
244.223
281.747
316.522
345.436
364.189
368.175
354.501
323.758
280.065
229.532
178.381
132.074
95.6249
68.6363
49.347
36.0993
26.9645
20.6297
16.073
13.0694
11.2319
10.1131
9.51106
9.37686
9.76166
10.9247
13.5996
19.6711
36.2099
103.178
547.762
4026.91
3.07762
3.96405
6.05987
10.635
19.6995
35.1259
58.6324
91.5869
135.16
178.05
2.56274
2.22583
2.00188
1.85263
1.75304
1.68691
1.64369
1.61646
1.60066
1.59348
1.59112
1.59209
1.59802
1.60477
1.61341
1.62315
1.63454
1.64689
1.66059
1.67486
1.69001
1.70646
1.72438
1.74383
1.76501
1.78807
1.81322
1.84068
1.87072
219.436
261.534
303.746
344.59
381.63
410.896
427.033
424.957
402.486
361.792
308.549
249.816
192.15
141.007
100.551
71.4296
51.4026
37.6274
28.114
21.5038
16.7343
13.5802
11.6439
10.4575
9.80712
9.63546
9.99538
11.1224
13.7561
19.7931
36.4358
104.963
569.014
4160.89
2.93675
3.72266
5.55739
9.61433
17.9128
32.4012
54.8392
86.5646
128.47
181.468
231.119
2.46908
2.16424
1.96204
1.82736
1.73711
1.67703
1.63776
1.61306
1.59906
1.59285
1.59099
1.5928
1.59834
1.60468
1.6134
1.62315
1.63454
1.64691
1.66012
1.67398
1.68916
1.70566
1.72363
1.74315
1.76442
1.78757
1.81284
1.84043
1.87063
277.581
323.957
369.984
414.088
453.175
482.023
494.062
484.079
451.224
399.628
336.471
269.513
205.439
148.463
104.778
74.5245
53.6829
39.3243
29.3916
22.4766
17.4715
14.1509
12.105
10.8432
10.1388
9.92524
10.2587
11.348
13.9377
19.9431
36.7653
107.325
592.271
4296.35
2.80357
3.50508
5.09561
8.6585
16.173
29.7022
51.0755
81.6543
122.223
173.188
235.428
291.282
2.3815
2.1081
1.92636
1.80468
1.7228
1.66817
1.63244
1.61005
1.59768
1.5924
1.59118
1.59311
1.59816
1.60469
1.6134
1.62316
1.63456
1.64644
1.65917
1.67307
1.68828
1.70484
1.72286
1.74246
1.76381
1.78706
1.81244
1.84018
1.87054
342.423
392.882
442.806
490.346
531.261
558.614
564.66
544.702
499.97
436.769
363.549
288.474
216.502
154.852
109.456
77.9559
56.2144
41.2099
30.8126
23.5598
18.2938
14.7887
12.6213
11.2756
10.5109
10.2504
10.5525
11.6051
14.1502
20.1611
37.2384
110.103
617.806
4431.75
2.67903
3.30718
4.67408
7.77032
14.4876
27.0254
47.3055
76.7673
116.151
165.634
225.285
296.306
357.788
2.30212
2.05796
1.89442
1.78433
1.70995
1.66022
1.62767
1.60738
1.59659
1.59236
1.59114
1.59294
1.59814
1.60469
1.61341
1.62321
1.63407
1.64548
1.65821
1.67215
1.68739
1.70399
1.72207
1.74174
1.76318
1.78653
1.81204
1.83992
1.87045
413.429
468.099
522.385
573.785
616.186
640.446
638.065
605.921
548.025
472.791
389.556
304.206
225.959
161.909
114.636
81.7623
59.0266
43.3066
32.394
24.7664
19.2111
15.5016
13.1993
11.7605
10.9286
10.6165
10.8812
11.8987
14.4439
20.4775
37.8316
113.292
645.542
4566.19
2.56615
3.12712
4.29444
6.95135
12.8737
24.3794
43.5138
71.8435
110.129
158.39
216.314
283.903
363.182
429.915
2.23166
2.0132
1.86581
1.76606
1.69841
1.65306
1.62339
1.60518
1.5961
1.59217
1.59077
1.59295
1.59814
1.60468
1.61347
1.62273
1.63306
1.6445
1.65723
1.6712
1.68647
1.70312
1.72127
1.74101
1.76253
1.78599
1.81162
1.83966
1.87036
490.26
549.75
609.324
665.178
708.367
727.151
713.349
666.825
594.775
507.352
411.066
317.62
236.376
169.704
120.371
85.9857
62.1515
45.6389
34.1544
26.1107
20.2343
16.2983
13.8465
12.3041
11.3974
11.0291
11.2505
12.2948
14.8421
20.8643
38.5592
116.977
676.128
4698
2.46607
2.96661
3.95832
6.20741
11.3497
21.7815
39.701
66.8461
104.065
151.286
207.89
273.341
347.937
435.181
507.177
2.16911
1.97322
1.84019
1.74967
1.68802
1.64659
1.61976
1.60389
1.59564
1.5917
1.59075
1.59295
1.59816
1.60477
1.613
1.62174
1.63204
1.6435
1.65622
1.67023
1.68553
1.70223
1.72044
1.74026
1.76187
1.78544
1.81121
1.83941
1.87027
573.013
638.598
704.933
765.82
808.242
818.112
789.471
726.56
639.709
535.881
429.359
332.348
247.843
178.309
126.72
90.6716
65.6245
48.2338
36.1143
27.6081
21.3753
17.1879
14.5703
12.9131
11.9236
11.4933
11.7428
12.8102
15.2978
21.3356
39.4465
121.272
709.237
4826.15
2.37757
2.82467
3.67131
5.5474
9.93445
19.2552
35.8792
61.7561
97.8886
144.187
199.791
263.699
335.511
416.242
511.721
589.62
2.11352
1.93753
1.81725
1.73492
1.67862
1.64104
1.61738
1.60292
1.59501
1.59169
1.59075
1.59294
1.59834
1.60435
1.612
1.62076
1.631
1.64248
1.65519
1.66923
1.68457
1.70132
1.71959
1.73948
1.7612
1.7849
1.81082
1.83917
1.87019
662.564
736.406
811.613
877.597
916.175
912.504
865.381
784.378
676.827
560.099
449.381
348.495
260.449
187.799
133.744
95.8686
69.4834
51.1203
38.2957
29.2754
22.6464
18.1801
15.3788
13.5945
12.5129
12.1119
12.3718
13.3767
15.8189
21.9002
40.5492
126.203
745.995
4948.62
2.29947
2.69819
3.43486
4.98475
8.6589
16.8272
32.0704
56.5673
91.5501
136.985
191.833
254.692
324.549
401.555
487.851
592.807
678.241
2.06408
1.90567
1.79663
1.7216
1.6705
1.6372
1.61576
1.60202
1.59501
1.59169
1.59077
1.59311
1.59802
1.60343
1.61103
1.61978
1.62994
1.64144
1.65415
1.6682
1.68359
1.70038
1.71873
1.7387
1.76053
1.78437
1.81043
1.83894
1.87011
761.004
846.638
933.217
1002.92
1032.4
1009.5
940.066
832.421
708.34
586.547
471.248
366.163
274.283
198.25
141.505
101.628
73.7681
54.3292
40.7221
31.1302
24.0608
19.2849
16.28
14.3543
13.2946
12.8951
13.0512
13.997
16.4074
22.5871
41.8818
132.021
785.77
5064.44
2.23056
2.58556
3.23606
4.5165
7.55368
14.5414
28.3068
51.2863
85.0085
129.586
183.863
246.08
314.687
389.084
470.385
562.253
679.615
775.723
2.0201
1.87714
1.77805
1.71005
1.66466
1.63472
1.61458
1.60203
1.59501
1.5917
1.59115
1.5928
1.59721
1.60259
1.61005
1.61879
1.62887
1.64037
1.65308
1.66715
1.68258
1.69942
1.71784
1.73792
1.75988
1.78386
1.81005
1.83871
1.87002
872.719
975.364
1075.6
1144.7
1157.82
1107.99
1003.04
873.353
742.751
615.353
495.064
385.44
289.425
209.735
150.068
108
78.52
57.8926
43.4178
33.1906
25.6315
20.5122
17.2807
15.3571
14.275
13.7299
13.7797
14.6689
17.0755
23.4003
43.5489
138.711
830.089
5171.59
2.16973
2.48563
3.06554
4.13
6.62364
12.4901
24.656
45.9351
78.2348
121.901
175.738
237.661
305.612
378.356
456.12
541.414
639.791
775.505
887.707
1.98087
1.85152
1.76189
1.70154
1.66098
1.63317
1.6146
1.60203
1.595
1.59217
1.59119
1.59208
1.5965
1.60179
1.60905
1.61778
1.62778
1.63927
1.65199
1.66608
1.68156
1.69845
1.71697
1.73717
1.75925
1.78337
1.80969
1.83849
1.86995
1005.73
1133.27
1246.99
1310.29
1292.22
1193.19
1057.2
918.227
780.232
646.63
520.914
406.403
305.948
222.322
159.49
115.038
83.7808
61.8432
46.4076
35.475
27.3719
21.8705
18.5959
16.6045
15.3094
14.6105
14.5526
15.3954
17.8225
24.3855
45.5515
146.698
878.264
5269.39
2.11585
2.39739
2.91669
3.81211
5.851
10.7171
21.2613
40.5914
71.216
113.842
167.308
229.242
297.075
368.964
444.445
524.983
614.983
722.447
887.639
1026.34
1.94576
1.82924
1.74973
1.69632
1.65896
1.63322
1.6146
1.60202
1.59564
1.59237
1.591
1.59158
1.59579
1.601
1.60803
1.61675
1.62667
1.63815
1.65088
1.66498
1.68051
1.69748
1.71612
1.73644
1.75864
1.78289
1.80933
1.83828
1.86987
1176.09
1338.19
1472.32
1503.93
1412.57
1267.49
1117.21
967.377
820.963
680.481
548.864
429.108
323.909
236.068
169.828
122.788
89.5902
66.2125
49.7157
38.0011
29.2935
23.6494
20.2211
17.9095
16.3881
15.529
15.3666
16.1699
18.6656
25.5363
48.0524
155.929
931.99
5356.32
2.06793
2.31963
2.78496
3.5533
5.2157
9.21341
18.2146
35.4562
64.0113
105.334
158.417
220.616
288.832
360.601
434.814
512.209
595.961
693.033
815.762
1033.04
1215.99
1.91523
1.81225
1.74236
1.69373
1.65904
1.63322
1.61458
1.60292
1.59612
1.59241
1.59112
1.59124
1.59505
1.60024
1.60701
1.6157
1.62556
1.63699
1.64976
1.66386
1.67948
1.69655
1.71529
1.73574
1.75805
1.78242
1.80898
1.83807
1.86979
1418.95
1651.74
1765.8
1682.03
1519.05
1351.15
1183.96
1021.33
865.192
717.019
578.967
453.585
343.339
251.013
181.124
131.292
95.9839
71.0297
53.3645
40.7843
31.8035
25.8371
21.911
19.2596
17.5007
16.4777
16.2152
16.9975
19.5972
26.9185
51.02
167.115
990.511
5432.35
2.02634
2.25111
2.6676
3.34056
4.69604
7.95684
15.5222
30.6864
56.8623
96.3759
148.898
211.55
280.63
352.978
426.85
502.342
581.858
670.978
780.65
932.701
1257.5
1523.14
1.89156
1.80215
1.73904
1.69386
1.65903
1.63317
1.61577
1.60392
1.59661
1.59287
1.59134
1.59105
1.59431
1.5995
1.606
1.61463
1.62444
1.63581
1.64862
1.66275
1.67848
1.69565
1.71449
1.73505
1.75747
1.78197
1.80865
1.83787
1.86972
1851.27
2089.34
2031.39
1840.56
1642.02
1446.75
1259.33
1081.02
913.346
756.401
611.266
479.843
364.246
267.174
193.404
140.58
102.99
76.3191
57.3716
44.4108
34.8785
28.1022
23.6498
20.6417
18.6366
17.4483
17.0958
17.8734
20.6447
28.5119
54.6967
180.064
1055.79
5496.91
1.99377
2.19217
2.56309
3.16118
4.2738
6.91657
13.186
26.3252
49.9878
87.2041
138.651
201.78
272.172
345.804
420.213
494.91
571.693
655.227
755.17
889.983
1105.5
1704.67
2173.46
1.87762
1.79799
1.73923
1.69385
1.65895
1.63473
1.61742
1.60522
1.59771
1.59351
1.59152
1.59097
1.59356
1.59876
1.60501
1.61352
1.62332
1.63462
1.64749
1.66169
1.6775
1.69478
1.71371
1.73439
1.75691
1.78153
1.80832
1.83767
1.86969
2521.45
2519.17
2290.83
2041.72
1791.32
1563.04
1346.54