/*--------------------------------*- C++ -*----------------------------------*\
  =========                 |
  \\      /  F ield         | OpenFOAM: The Open Source CFD Toolbox
   \\    /   O peration     | Website:  https://openfoam.org
    \\  /    A nd           | Version:  8
     \\/     M anipulation  |
\*---------------------------------------------------------------------------*/
FoamFile
{
    version     2.0;
    format      ascii;
    class       volScalarField;
    location    "800";
    object      nut;
}
// * * * * * * * * * * * * * * * * * * * * * * * * * * * * * * * * * * * * * //

dimensions      [0 2 -1 0 0 0 0];

internalField   nonuniform List<scalar> 
15677
(
7.48316e-05
0.000154182
0.000258074
0.000722818
0.00180655
0.00331916
0.00477686
0.00581867
0.00636659
0.00658975
0.0066778
0.00671617
0.00671482
0.00670855
0.00670615
0.00670573
0.00670575
0.00670578
0.00670577
0.00670574
0.00670571
0.00670569
0.00670568
0.00670567
0.00670567
0.00670567
0.00670566
0.00670566
0.00670566
0.00670567
0.00670567
0.00670567
0.00670567
0.00670567
0.00670567
8.20514e-05
0.000137573
0.000177801
0.000375027
0.000873843
0.00172061
0.00284135
0.00405911
0.00517075
0.00598093
0.00641389
0.00659625
0.0066836
0.00670345
0.00670348
0.00670188
0.00670116
0.00670101
0.00670104
0.00670108
0.00670111
0.00670112
0.00670113
0.00670113
0.00670113
0.00670113
0.00670112
0.00670112
0.00670112
0.00670112
0.00670111
0.00670111
0.00670111
0.0067011
0.0067011
8.02036e-05
0.000111443
0.000147518
0.000310391
0.000665522
0.00126629
0.00211328
0.0031446
0.00423185
0.00521261
0.00595691
0.00639454
0.00659107
0.00667464
0.00669489
0.00669774
0.0066973
0.00669675
0.00669647
0.00669636
0.0066963
0.00669626
0.00669624
0.00669622
0.00669621
0.00669621
0.0066962
0.0066962
0.0066962
0.00669619
0.00669619
0.00669619
0.0066962
0.0066962
0.0066962
7.67501e-05
0.00010858
0.0001254
0.000257573
0.000566687
0.00106512
0.00176668
0.00264954
0.00364249
0.00462961
0.00548088
0.00609885
0.00645422
0.00661937
0.00667435
0.00668936
0.00669254
0.00669282
0.00669266
0.00669254
0.00669249
0.00669247
0.00669245
0.00669243
0.00669242
0.0066924
0.00669239
0.00669238
0.00669237
0.00669236
0.00669235
0.00669234
0.00669233
0.00669233
0.00669232
7.43243e-05
0.00011141
0.000122936
0.000234016
0.000504682
0.000947222
0.00156252
0.00234419
0.00325108
0.00420176
0.00508666
0.00580025
0.00628302
0.00654079
0.00664233
0.00667621
0.00668608
0.0066883
0.00668851
0.00668835
0.0066882
0.00668809
0.00668803
0.00668799
0.00668796
0.00668794
0.00668793
0.00668792
0.00668791
0.0066879
0.00668789
0.00668789
0.00668789
0.00668789
0.00668789
7.27318e-05
0.000117718
0.000123033
0.00021253
0.000461301
0.000868373
0.00142906
0.00214028
0.0029776
0.0038831
0.00476778
0.00553124
0.00609601
0.00643964
0.00659536
0.0066557
0.00667692
0.00668339
0.00668499
0.00668524
0.00668519
0.0066851
0.00668503
0.00668498
0.00668493
0.00668489
0.00668485
0.00668482
0.0066848
0.00668477
0.00668476
0.00668474
0.00668472
0.00668471
0.00668469
7.17198e-05
0.000124141
0.000127112
0.000205266
0.000427867
0.000808015
0.00133237
0.00199424
0.00277778
0.00364074
0.00451118
0.00529858
0.00592047
0.00633592
0.00654048
0.00662891
0.00666411
0.00667657
0.00668035
0.00668121
0.00668125
0.00668112
0.00668101
0.00668093
0.00668087
0.00668082
0.00668078
0.00668075
0.00668073
0.00668071
0.00668069
0.00668068
0.00668067
0.00668066
0.00668065
7.10193e-05
0.000129488
0.000135631
0.000196343
0.000401244
0.000758808
0.001257
0.00188322
0.00262542
0.00345161
0.00430309
0.00509971
0.00575966
0.00622948
0.00648024
0.0065976
0.00664879
0.00666905
0.00667627
0.00667852
0.00667906
0.00667907
0.00667897
0.00667886
0.00667875
0.00667867
0.00667859
0.00667853
0.00667848
0.00667844
0.0066784
0.00667837
0.00667834
0.00667831
0.00667828
7.05338e-05
0.000133936
0.000144983
0.000192018
0.000377191
0.000717414
0.00119491
0.00179486
0.00250542
0.00330106
0.00413303
0.00493062
0.00561537
0.00612695
0.00641769
0.00656271
0.00663046
0.00665933
0.00667047
0.00667426
0.0066753
0.00667543
0.00667534
0.00667522
0.00667512
0.00667503
0.00667495
0.00667489
0.00667483
0.00667479
0.00667475
0.00667472
0.00667469
0.00667468
0.00667466
7.01474e-05
0.000136623
0.000153682
0.000192638
0.000357447
0.000682287
0.00114319
0.00172271
0.0024084
0.00317882
0.00399258
0.0047869
0.00548768
0.00603147
0.00635614
0.00652679
0.00661126
0.0066498
0.00666599
0.00667218
0.00667424
0.00667472
0.0066747
0.00667456
0.0066744
0.00667425
0.00667412
0.00667401
0.00667392
0.00667385
0.00667378
0.00667372
0.00667367
0.00667363
0.00667358
6.98743e-05
0.000139325
0.000161898
0.000195234
0.000339877
0.000648493
0.00109765
0.00166232
0.00232905
0.00307893
0.0038763
0.00466513
0.00537595
0.00594424
0.00629706
0.00649053
0.00659065
0.00663842
0.00665939
0.00666781
0.00667081
0.00667163
0.00667173
0.00667163
0.00667148
0.00667134
0.00667121
0.0066711
0.006671
0.00667092
0.00667084
0.00667078
0.00667073
0.00667069
0.00667065
6.9709e-05
0.000141509
0.000169173
0.000199181
0.000327522
0.000619393
0.00105686
0.00161026
0.0022624
0.00299612
0.00377956
0.00456222
0.00527908
0.00586613
0.00624255
0.00645632
0.00657149
0.00662919
0.00665604
0.00666757
0.00667201
0.00667336
0.00667361
0.0066735
0.00667329
0.00667307
0.00667287
0.0066727
0.00667256
0.00667244
0.00667235
0.00667227
0.0066722
0.00667214
0.00667208
6.96389e-05
0.000143176
0.000175721
0.000204032
0.00031887
0.000594226
0.00102115
0.00156564
0.00220739
0.00292778
0.00369938
0.0044759
0.00519639
0.00579784
0.00619324
0.00642439
0.00655269
0.00661854
0.00664999
0.00666401
0.00666973
0.00667166
0.00667214
0.00667212
0.00667197
0.00667178
0.0066716
0.00667144
0.00667129
0.00667116
0.00667103
0.00667092
0.00667081
0.00667072
0.00667065
6.9655e-05
0.000144425
0.000181084
0.000209226
0.000313371
0.000573943
0.000990408
0.00152751
0.00216073
0.00287216
0.00363362
0.00440452
0.00512679
0.0057388
0.00615062
0.00639698
0.00653782
0.0066134
0.00665105
0.00666837
0.00667565
0.00667821
0.00667891
0.00667894
0.00667874
0.00667847
0.0066782
0.00667796
0.00667775
0.00667759
0.00667748
0.0066774
0.00667735
0.00667732
0.0066773
6.97269e-05
0.000145405
0.000185868
0.000214327
0.000309863
0.000557471
0.000964326
0.00149544
0.00212241
0.00282602
0.00358101
0.00434643
0.00506976
0.00569145
0.00611495
0.00637438
0.00652536
0.00660632
0.00664758
0.00666753
0.00667642
0.00667975
0.00668079
0.00668097
0.00668085
0.00668065
0.00668046
0.0066803
0.00668017
0.00668005
0.00667993
0.0066798
0.00667964
0.00667944
0.00667923
6.98824e-05
0.000146075
0.000189487
0.00021912
0.000308312
0.000544013
0.000942554
0.00146892
0.00209183
0.00279
0.00353923
0.00430187
0.00502597
0.00565122
0.00608466
0.00635613
0.00651898
0.00661131
0.00665953
0.00668292
0.00669372
0.00669805
0.00669958
0.00670001
0.00670002
0.00669988
0.0066997
0.00669951
0.00669934
0.00669919
0.00669907
0.00669898
0.00669894
0.00669897
0.00669908
7.01323e-05
0.000146562
0.000192994
0.000223455
0.000307569
0.000533916
0.000924977
0.00144814
0.00206842
0.00276309
0.00350832
0.00426764
0.00499079
0.00562743
0.00607513
0.00635308
0.00652084
0.00661622
0.0066669
0.00669211
0.00670396
0.0067089
0.00671077
0.00671141
0.00671157
0.00671155
0.00671147
0.00671139
0.00671132
0.00671127
0.00671124
0.00671124
0.00671126
0.00671128
0.00671128
7.04607e-05
0.000146801
0.000195332
0.000227692
0.000308455
0.000527503
0.000911744
0.00143204
0.00205188
0.00274545
0.00348776
0.00424624
0.0049768
0.00561555
0.00606761
0.00635406
0.00652806
0.00662788
0.0066819
0.00670944
0.00672274
0.00672857
0.00673101
0.00673204
0.00673251
0.00673274
0.00673289
0.00673301
0.00673313
0.00673326
0.00673339
0.00673353
0.00673365
0.00673374
0.00673382
7.08659e-05
0.00014676
0.000197333
0.000231025
0.000309521
0.000522982
0.000902369
0.00142248
0.00204197
0.00273452
0.00347884
0.00424109
0.00496878
0.0056097
0.00606667
0.0063608
0.00654364
0.00665031
0.00670943
0.00674052
0.00675614
0.00676341
0.00676674
0.00676842
0.00676938
0.00677006
0.00677061
0.0067711
0.00677156
0.00677199
0.00677238
0.00677273
0.00677302
0.00677324
0.00677342
7.13462e-05
0.000146611
0.000198652
0.000234542
0.000311842
0.000521451
0.000897442
0.00141579
0.00203851
0.00273627
0.00348105
0.00424092
0.00496894
0.00561517
0.00608068
0.00638281
0.00657186
0.00668376
0.0067468
0.00678087
0.00679867
0.0068076
0.0068124
0.00681527
0.00681727
0.0068189
0.00682031
0.00682159
0.00682276
0.00682383
0.0068248
0.00682566
0.00682643
0.00682712
0.00682779
7.18984e-05
0.000146283
0.000199783
0.000237426
0.000314169
0.00052136
0.000895657
0.00141718
0.00204411
0.00274316
0.00348931
0.00424987
0.00498385
0.00563731
0.00610959
0.00641822
0.00661343
0.00673075
0.00679807
0.00683546
0.00685615
0.00686777
0.0068747
0.0068794
0.00688301
0.00688603
0.00688867
0.00689105
0.00689321
0.00689518
0.00689699
0.00689863
0.00690013
0.00690148
0.00690275
7.25182e-05
0.000145767
0.00020059
0.000239459
0.000317657
0.000523926
0.000897838
0.00142162
0.00205251
0.00275497
0.0035069
0.00427401
0.00501335
0.00567321
0.00615268
0.00646812
0.00666991
0.00679262
0.00686447
0.00690568
0.00693039
0.00694521
0.00695493
0.0069622
0.00696824
0.00697356
0.0069784
0.00698283
0.00698689
0.00699061
0.00699401
0.00699709
0.00699989
0.0070024
0.0070047
7.32e-05
0.000145111
0.00020095
0.000241555
0.000320618
0.000527995
0.000902754
0.00142977
0.00206669
0.00277664
0.00353565
0.00430971
0.0050562
0.00572399
0.00621149
0.0065345
0.00674366
0.00687251
0.00694906
0.00699658
0.0070265
0.0070463
0.00706067
0.00707224
0.00708218
0.00709101
0.007099
0.00710628
0.00711294
0.00711904
0.00712462
0.00712971
0.00713433
0.0071385
0.00714232
7.39374e-05
0.000144333
0.000201014
0.000243598
0.000324099
0.000533097
0.00091063
0.00144302
0.00208761
0.00280758
0.00357437
0.00435702
0.00511247
0.00578965
0.00628653
0.00661908
0.00683545
0.00696969
0.00705478
0.00710909
0.00714572
0.007172
0.00719238
0.00720959
0.00722495
0.00723904
0.00725209
0.0072642
0.0072754
0.00728569
0.00729511
0.0073037
0.00731148
0.0073185
0.00732485
7.47241e-05
0.000143443
0.000200835
0.00024524
0.000327903
0.000539849
0.000921479
0.00146059
0.0021151
0.00284504
0.00362261
0.00441604
0.00518254
0.00587142
0.00637981
0.0067224
0.00694646
0.00709009
0.00718495
0.00724842
0.00729453
0.00733048
0.00736038
0.00738681
0.00741087
0.00743297
0.00745332
0.00747205
0.00748929
0.00750516
0.00751973
0.00753308
0.00754526
0.00755632
0.00756629
7.55521e-05
0.000142473
0.000200435
0.000246551
0.000332093
0.000548111
0.000935053
0.00148284
0.00214896
0.0028902
0.00368027
0.00448663
0.00526646
0.00596885
0.0064918
0.00684446
0.00707708
0.00723428
0.00734018
0.00741526
0.00747374
0.00752238
0.00756449
0.0076025
0.00763768
0.00767067
0.00770173
0.00773092
0.0077582
0.00778351
0.00780686
0.00782828
0.00784782
0.00786558
0.00788148
7.64161e-05
0.000141421
0.00019984
0.000247719
0.000336648
0.000557708
0.000951098
0.00150846
0.00218746
0.00294254
0.00374718
0.00456866
0.00536399
0.00608417
0.0066218
0.0069845
0.00723304
0.0074046
0.00752499
0.0076156
0.00769094
0.00775732
0.00781743
0.00787365
0.0079269
0.00797718
0.00802428
0.00806813
0.00810883
0.00814656
0.0081815
0.00821377
0.00824346
0.00827065
0.00829498
7.73056e-05
0.000140325
0.000199095
0.000248677
0.00034132
0.000568438
0.000969349
0.00153804
0.00223107
0.00300189
0.00382302
0.00466186
0.00547598
0.00621552
0.0067685
0.00714507
0.00741276
0.00760099
0.0077392
0.00784931
0.00794649
0.00803666
0.00812089
0.00820043
0.00827576
0.00834732
0.00841561
0.00848086
0.00854295
0.00860154
0.00865626
0.00870692
0.00875349
0.00879616
0.0088341
7.8218e-05
0.000139176
0.000198202
0.000249537
0.000346276
0.000580304
0.000989826
0.00157137
0.00227948
0.00306769
0.00390743
0.00476598
0.00560248
0.00636178
0.00692972
0.00732951
0.0076171
0.00782605
0.00798703
0.00812281
0.00824907
0.00837049
0.00848628
0.00859836
0.00870823
0.0088159
0.00892012
0.00901932
0.00911246
0.00919938
0.00928054
0.00935664
0.0094283
0.00949595
0.00955749
7.914e-05
0.000138013
0.000197219
0.000250227
0.000351438
0.000593131
0.00101216
0.00160798
0.00233268
0.0031399
0.00399995
0.00488072
0.00574235
0.00652162
0.00710979
0.00753555
0.00784619
0.00808018
0.00826914
0.00843677
0.00859988
0.00876372
0.0089271
0.0090904
0.00925129
0.00940669
0.00955553
0.00969902
0.00983929
0.00997784
0.0101149
0.0102492
0.0103792
0.0105031
0.0106145
0.00670568
0.0067057
0.00670571
0.00670573
0.00670575
0.00670576
0.00670578
0.0067058
0.00670582
0.00670584
0.00670586
0.00670588
0.0067059
0.00670592
0.00670594
0.00670595
0.00670597
0.00670598
0.006706
0.00670601
0.00670602
0.00670603
0.00670111
0.00670113
0.00670115
0.00670118
0.0067012
0.00670122
0.00670125
0.00670127
0.00670129
0.00670132
0.00670134
0.00670137
0.0067014
0.00670142
0.00670145
0.00670148
0.00670151
0.00670154
0.00670157
0.0067016
0.00670163
0.00670166
0.00669623
0.00669628
0.00669634
0.0066964
0.00669646
0.00669652
0.00669659
0.00669665
0.00669672
0.00669679
0.00669687
0.00669694
0.00669701
0.00669708
0.00669715
0.00669721
0.00669727
0.00669733
0.00669738
0.00669744
0.00669749
0.00669753
0.00669234
0.0066924
0.00669245
0.00669251
0.00669256
0.00669262
0.00669268
0.00669274
0.0066928
0.00669286
0.00669293
0.00669299
0.00669306
0.00669313
0.0066932
0.00669327
0.00669334
0.00669341
0.00669348
0.00669355
0.00669361
0.00669368
0.00668793
0.00668801
0.0066881
0.00668819
0.00668829
0.00668839
0.0066885
0.00668861
0.00668872
0.00668884
0.00668896
0.00668908
0.0066892
0.00668931
0.00668942
0.00668952
0.00668962
0.00668971
0.0066898
0.00668988
0.00668997
0.00669005
0.00668472
0.0066848
0.00668487
0.00668495
0.00668503
0.00668511
0.00668519
0.00668527
0.00668535
0.00668544
0.00668553
0.00668562
0.00668572
0.00668582
0.00668593
0.00668603
0.00668614
0.00668624
0.00668634
0.00668645
0.00668655
0.00668665
0.0066807
0.0066808
0.00668091
0.00668102
0.00668114
0.00668127
0.00668141
0.00668156
0.00668171
0.00668187
0.00668203
0.00668219
0.00668235
0.0066825
0.00668264
0.00668277
0.00668289
0.00668301
0.00668312
0.00668323
0.00668334
0.00668344
0.00667831
0.00667838
0.00667846
0.00667854
0.00667862
0.0066787
0.00667877
0.00667885
0.00667893
0.00667902
0.00667911
0.00667921
0.00667932
0.00667944
0.00667956
0.00667969
0.00667982
0.00667996
0.00668009
0.00668023
0.00668036
0.00668048
0.0066747
0.00667479
0.00667489
0.006675
0.00667512
0.00667526
0.00667541
0.00667558
0.00667576
0.00667596
0.00667615
0.00667634
0.00667653
0.00667669
0.00667685
0.00667699
0.00667712
0.00667724
0.00667736
0.00667748
0.00667759
0.00667771
0.00667358
0.00667362
0.00667366
0.00667369
0.00667373
0.00667375
0.00667377
0.00667379
0.0066738
0.00667382
0.00667385
0.00667391
0.006674
0.0066741
0.00667423
0.00667438
0.00667453
0.00667469
0.00667484
0.00667499
0.00667514
0.00667528
0.00667064
0.00667064
0.00667066
0.0066707
0.00667078
0.00667088
0.00667102
0.0066712
0.00667139
0.00667161
0.00667181
0.00667201
0.00667217
0.0066723
0.0066724
0.00667249
0.00667257
0.00667265
0.00667273
0.00667283
0.00667293
0.00667304
0.00667201
0.00667192
0.00667183
0.00667173
0.0066716
0.00667144
0.00667125
0.00667103
0.0066708
0.00667059
0.00667043
0.00667034
0.00667032
0.00667038
0.00667049
0.00667063
0.00667079
0.00667094
0.00667108
0.00667121
0.00667133
0.00667144
0.00667048
0.00667018
0.00666991
0.0066697
0.00666958
0.00666956
0.00666965
0.00666983
0.00667004
0.00667025
0.00667042
0.0066705
0.00667048
0.0066704
0.00667027
0.00667013
0.00667001
0.00666993
0.00666989
0.0066699
0.00666994
0.00667002
0.00667712
0.00667678
0.00667642
0.00667595
0.00667535
0.00667459
0.0066737
0.00667275
0.00667181
0.00667096
0.00667029
0.00666985
0.00666965
0.00666963
0.00666972
0.00666985
0.00666997
0.00667005
0.00667007
0.00667005
0.00666999
0.00666991
0.00667842
0.00667693
0.00667574
0.00667492
0.00667448
0.00667439
0.00667457
0.0066749
0.00667522
0.0066754
0.0066753
0.00667484
0.00667411
0.00667324
0.00667235
0.00667155
0.00667089
0.00667041
0.00667011
0.00666996
0.00666992
0.00666996
0.00669861
0.00669757
0.00669599
0.00669406
0.00669175
0.00668893
0.00668587
0.00668278
0.00667987
0.00667739
0.00667581
0.00667499
0.00667477
0.00667488
0.00667508
0.00667522
0.00667518
0.00667491
0.00667443
0.00667381
0.00667313
0.00667245
0.00671022
0.00670796
0.00670571
0.00670348
0.00670149
0.00670013
0.00669903
0.00669803
0.00669702
0.00669584
0.00669374
0.00669102
0.00668774
0.00668447
0.00668147
0.00667895
0.00667715
0.0066761
0.0066756
0.00667545
0.00667547
0.00667558
0.00673213
0.00672853
0.00672506
0.00672179
0.00671871
0.00671575
0.00671301
0.00671037
0.00670775
0.00670505
0.00670242
0.00670005
0.00669854
0.00669734
0.00669625
0.00669513
0.00669355
0.0066914
0.00668879
0.00668611
0.0066836
0.00668142
0.00677058
0.00676445
0.00675835
0.00675255
0.006747
0.00674162
0.00673656
0.00673188
0.00672739
0.00672306
0.00671909
0.00671542
0.00671208
0.00670916
0.00670648
0.00670394
0.00670156
0.0066995
0.00669814
0.00669701
0.00669597
0.00669493
0.00682425
0.00681609
0.00680795
0.00680002
0.00679223
0.00678451
0.00677684
0.00676921
0.00676173
0.00675434
0.00674732
0.00674072
0.00673459
0.00672917
0.0067245
0.00672035
0.00671671
0.00671355
0.0067107
0.00670818
0.0067059
0.00670392
0.00689777
0.00688583
0.00687387
0.00686221
0.00685079
0.00683959
0.00682861
0.00681789
0.00680754
0.00679774
0.00678834
0.00677931
0.00677078
0.00676289
0.0067555
0.00674868
0.0067424
0.00673676
0.00673158
0.00672694
0.00672283
0.00671936
0.00699797
0.00698097
0.0069639
0.00694721
0.00693089
0.00691492
0.00689932
0.00688412
0.00686938
0.00685519
0.00684153
0.00682845
0.00681623
0.00680505
0.00679485
0.00678566
0.00677744
0.00676995
0.00676304
0.0067567
0.00675089
0.00674562
0.00713326
0.00710935
0.00708535
0.00706187
0.00703891
0.00701646
0.00699452
0.00697314
0.00695238
0.00693228
0.00691288
0.00689432
0.00687706
0.00686133
0.00684701
0.00683403
0.00682228
0.0068116
0.00680184
0.00679292
0.00678477
0.00677748
0.00731315
0.00728015
0.00724698
0.00721447
0.00718263
0.00715148
0.00712102
0.00709132
0.00706242
0.00703439
0.0070073
0.00698138
0.00695731
0.0069354
0.00691547
0.00689738
0.00688096
0.00686604
0.00685246
0.00684007
0.00682877
0.00681869
0.00755112
0.00750593
0.00746054
0.00741599
0.00737232
0.00732953
0.00728766
0.00724677
0.00720695
0.00716831
0.00713094
0.0070952
0.00706202
0.00703185
0.00700444
0.00697954
0.00695694
0.00693641
0.00691775
0.00690077
0.00688532
0.00687156
0.00786252
0.00780143
0.00774001
0.00767962
0.00762036
0.00756225
0.00750532
0.00744965
0.00739537
0.00734261
0.00729154
0.00724266
0.0071973
0.00715611
0.00711873
0.00708482
0.00705407
0.00702617
0.00700085
0.00697784
0.00695692
0.00693825
0.00827116
0.00818864
0.00810587
0.00802426
0.00794399
0.00786522
0.00778805
0.00771262
0.00763912
0.00756774
0.00749868
0.00743263
0.00737133
0.00731564
0.00726509
0.00721923
0.00717768
0.00714005
0.00710598
0.00707509
0.00704709
0.00702213
0.00880476
0.00869285
0.00858226
0.00847363
0.00836645
0.0082607
0.00815664
0.00805462
0.00795497
0.00785806
0.00776434
0.0076749
0.00759225
0.0075175
0.00744988
0.00738868
0.00733326
0.00728307
0.00723761
0.0071964
0.00715907
0.0071258
0.00952079
0.00935827
0.00920216
0.00905344
0.00890961
0.00876901
0.00863108
0.00849593
0.00836388
0.00823519
0.00811004
0.00798973
0.00787788
0.00777648
0.00768498
0.00760266
0.00752869
0.00746216
0.00740221
0.007348
0.00729889
0.00725496
0.0105732
0.0103251
0.0100812
0.00985241
0.00963803
0.00943509
0.00924119
0.00905476
0.00887511
0.00870294
0.00853857
0.00838225
0.00823711
0.00810465
0.00798371
0.00787365
0.00777408
0.00768458
0.00760447
0.00753285
0.00746876
0.00741198
0.00670604
0.00670604
0.00670604
0.00670604
0.00670604
0.00670604
0.00670167
0.00670167
0.00670167
0.00670167
0.00670167
0.00670167
0.00669756
0.00669756
0.00669756
0.00669756
0.00669756
0.00669756
0.00669371
0.00669371
0.00669371
0.00669371
0.00669371
0.00669371
0.00669008
0.00669008
0.00669008
0.00669008
0.00669008
0.00669009
0.0066867
0.0066867
0.0066867
0.0066867
0.0066867
0.0066867
0.00668349
0.00668349
0.00668349
0.00668349
0.00668349
0.00668349
0.00668055
0.00668055
0.00668055
0.00668055
0.00668055
0.00668055
0.00667776
0.00667776
0.00667775
0.00667775
0.00667776
0.00667776
0.00667535
0.00667535
0.00667535
0.00667535
0.00667535
0.00667535
0.00667309
0.00667309
0.00667309
0.00667309
0.00667309
0.00667309
0.00667147
0.00667145
0.00667144
0.00667144
0.00667145
0.00667147
0.00667008
0.00667011
0.00667013
0.00667013
0.00667011
0.00667008
0.0066698
0.00666969
0.00666963
0.00666963
0.00666968
0.0066698
0.0066701
0.00667024
0.00667033
0.00667033
0.00667024
0.0066701
0.00667189
0.00667155
0.0066714
0.00667139
0.00667155
0.00667189
0.00667591
0.00667626
0.00667645
0.00667645
0.00667626
0.0066759
0.00668001
0.00667948
0.00667931
0.00667931
0.00667948
0.00668
0.00669449
0.00669454
0.00669454
0.00669454
0.00669454
0.00669448
0.00670291
0.00670279
0.00670282
0.00670281
0.00670278
0.0067029
0.00671762
0.0067174
0.00671742
0.00671742
0.00671739
0.0067176
0.00674292
0.00674253
0.00674252
0.00674251
0.00674251
0.00674289
0.00677378
0.00677343
0.00677343
0.00677342
0.00677341
0.00677375
0.00681357
0.00681305
0.00681306
0.00681306
0.00681303
0.00681353
0.00686462
0.00686399
0.00686403
0.00686402
0.00686396
0.00686457
0.00692884
0.00692804
0.0069281
0.00692809
0.006928
0.00692878
0.00700968
0.00700874
0.00700887
0.00700885
0.00700869
0.0070096
0.00710926
0.00710821
0.00710844
0.00710842
0.00710815
0.00710917
0.00723303
0.00723162
0.00723183
0.00723181
0.00723155
0.00723293
0.00738427
0.00738288
0.0073832
0.00738317
0.0073828
0.00738414
0.00670603
0.00670602
0.00670601
0.006706
0.00670598
0.00670597
0.00670595
0.00670594
0.00670592
0.0067059
0.00670588
0.00670586
0.00670584
0.00670582
0.0067058
0.00670578
0.00670576
0.00670575
0.00670573
0.00670571
0.0067057
0.00670568
0.00670166
0.00670163
0.0067016
0.00670157
0.00670154
0.00670151
0.00670148
0.00670145
0.00670142
0.0067014
0.00670137
0.00670134
0.00670132
0.00670129
0.00670127
0.00670125
0.00670122
0.0067012
0.00670118
0.00670116
0.00670113
0.00670111
0.00669753
0.00669748
0.00669743
0.00669738
0.00669733
0.00669727
0.00669721
0.00669715
0.00669708
0.00669701
0.00669694
0.00669687
0.00669679
0.00669672
0.00669665
0.00669658
0.00669651
0.00669645
0.00669639
0.00669633
0.00669627
0.00669622
0.00669368
0.00669361
0.00669355
0.00669348
0.00669341
0.00669334
0.00669327
0.0066932
0.00669313
0.00669306
0.006693
0.00669293
0.00669286
0.0066928
0.00669274
0.00669268
0.00669263
0.00669257
0.00669251
0.00669246
0.00669241
0.00669236
0.00669005
0.00668997
0.00668988
0.0066898
0.00668971
0.00668961
0.00668952
0.00668942
0.00668931
0.0066892
0.00668908
0.00668896
0.00668883
0.00668871
0.0066886
0.00668849
0.00668838
0.00668828
0.00668818
0.00668808
0.006688
0.00668791
0.00668665
0.00668655
0.00668645
0.00668634
0.00668624
0.00668613
0.00668603
0.00668593
0.00668582
0.00668572
0.00668563
0.00668553
0.00668544
0.00668536
0.00668527
0.00668519
0.00668512
0.00668504
0.00668497
0.00668489
0.00668482
0.00668475
0.00668344
0.00668334
0.00668323
0.00668312
0.00668301
0.00668289
0.00668276
0.00668263
0.00668249
0.00668235
0.00668219
0.00668203
0.00668186
0.0066817
0.00668154
0.00668139
0.00668125
0.00668112
0.006681
0.00668088
0.00668077
0.00668067
0.00668048
0.00668035
0.00668022
0.00668009
0.00667995
0.00667982
0.00667969
0.00667956
0.00667943
0.00667932
0.00667921
0.00667911
0.00667902
0.00667893
0.00667885
0.00667878
0.0066787
0.00667863
0.00667856
0.00667848
0.00667841
0.00667834
0.00667771
0.00667759
0.00667747
0.00667735
0.00667723
0.00667711
0.00667698
0.00667684
0.00667669
0.00667653
0.00667634
0.00667615
0.00667595
0.00667575
0.00667557
0.00667539
0.00667523
0.00667509
0.00667496
0.00667484
0.00667473
0.00667464
0.00667528
0.00667514
0.00667499
0.00667484
0.00667468
0.00667452
0.00667437
0.00667423
0.0066741
0.00667399
0.0066739
0.00667384
0.00667381
0.00667379
0.00667378
0.00667377
0.00667375
0.00667373
0.0066737
0.00667368
0.00667365
0.00667362
0.00667304
0.00667292
0.00667282
0.00667273
0.00667264
0.00667256
0.00667248
0.0066724
0.00667229
0.00667217
0.00667201
0.00667181
0.0066716
0.00667138
0.00667117
0.00667099
0.00667084
0.00667073
0.00667065
0.0066706
0.00667057
0.00667056
0.00667143
0.00667133
0.00667121
0.00667108
0.00667093
0.00667078
0.00667062
0.00667048
0.00667037
0.00667031
0.00667032
0.0066704
0.00667056
0.00667077
0.00667099
0.00667121
0.00667141
0.00667158
0.00667171
0.00667183
0.00667193
0.00667204
0.00667002
0.00666994
0.00666989
0.00666988
0.00666992
0.00667
0.00667012
0.00667026
0.00667039
0.00667048
0.00667049
0.00667041
0.00667024
0.00667003
0.0066698
0.00666962
0.00666952
0.00666952
0.00666962
0.00666982
0.00667008
0.00667037
0.00666991
0.00666998
0.00667005
0.00667007
0.00667004
0.00666996
0.00666984
0.00666971
0.00666962
0.00666963
0.00666982
0.00667024
0.0066709
0.00667174
0.00667268
0.00667363
0.00667452
0.00667528
0.00667589
0.00667637
0.00667676
0.00667711
0.00666996
0.00666992
0.00666996
0.00667011
0.00667041
0.00667089
0.00667155
0.00667235
0.00667323
0.00667409
0.00667482
0.00667527
0.00667539
0.0066752
0.00667487
0.00667453
0.00667434
0.00667441
0.00667482
0.00667561
0.00667677
0.00667825
0.00667245
0.00667313
0.00667382
0.00667444
0.00667492
0.00667518
0.00667521
0.00667507
0.00667486
0.00667474
0.00667495
0.00667574
0.0066773
0.00667978
0.00668267
0.00668574
0.00668879
0.00669159
0.0066939
0.00669584
0.00669745
0.00669852
0.00667557
0.00667547
0.00667544
0.0066756
0.00667611
0.00667718
0.006679
0.00668152
0.0066845
0.00668773
0.00669095
0.00669366
0.00669578
0.00669695
0.00669795
0.00669894
0.00670002
0.00670136
0.00670332
0.00670553
0.00670776
0.00671002
0.00668142
0.00668363
0.00668617
0.00668886
0.00669147
0.0066936
0.00669514
0.00669625
0.00669732
0.0066985
0.00669999
0.00670232
0.00670496
0.00670766
0.00671027
0.00671288
0.00671561
0.00671853
0.00672158
0.00672481
0.00672825
0.00673182
0.00669493
0.00669597
0.00669702
0.00669815
0.00669952
0.0067016
0.00670398
0.00670651
0.00670916
0.00671205
0.00671533
0.00671896
0.00672294
0.00672727
0.00673175
0.00673639
0.0067414
0.00674673
0.00675222
0.00675796
0.00676398
0.00677006
0.00670392
0.00670592
0.00670822
0.00671076
0.00671362
0.00671678
0.00672043
0.00672457
0.0067292
0.00673456
0.00674059
0.00674713
0.00675418
0.00676157
0.00676903
0.00677663
0.00678426
0.00679192
0.00679963
0.00680748
0.00681552
0.0068236
0.00671937
0.00672287
0.00672702
0.0067317
0.0067369
0.00674255
0.00674883
0.00675562
0.00676295
0.00677075
0.00677915
0.00678812
0.00679755
0.00680736
0.0068177
0.00682838
0.0068393
0.00685041
0.00686172
0.00687326
0.00688507
0.00689687
0.00674563
0.00675095
0.00675681
0.0067632
0.00677014
0.00677765
0.00678585
0.00679501
0.00680514
0.0068162
0.00682824
0.00684124
0.00685497
0.00686918
0.00688391
0.00689907
0.00691459
0.00693044
0.00694661
0.00696311
0.00697996
0.00699674
0.0067775
0.00678485
0.00679308
0.00680207
0.00681187
0.00682257
0.00683432
0.00684726
0.00686148
0.00687704
0.00689406
0.00691251
0.00693201
0.00695217
0.00697294
0.00699427
0.0070161
0.0070384
0.00706115
0.00708436
0.00710805
0.00713164
0.00681871
0.0068289
0.0068403
0.00685278
0.00686643
0.00688138
0.0068978
0.00691583
0.00693562
0.00695731
0.00698105
0.00700684
0.00703409
0.00706221
0.00709114
0.0071208
0.00715112
0.00718207
0.00721362
0.00724577
0.00727851
0.00731105
0.00687159
0.0068855
0.00690109
0.0069182
0.00693695
0.00695753
0.00698014
0.00700496
0.00703219
0.00706206
0.00709479
0.00713038
0.00716798
0.00720678
0.00724666
0.0072875
0.00732922
0.00737174
0.00741504
0.0074591
0.00750389
0.00754844
0.00693829
0.00695717
0.00697829
0.00700148
0.00702693
0.0070549
0.00708566
0.00711947
0.00715662
0.00719741
0.00724217
0.00729085
0.00734227
0.00739527
0.00744966
0.0075053
0.00756204
0.00761982
0.00767858
0.00773833
0.00779895
0.00785917
0.0070222
0.00704743
0.00707571
0.00710684
0.0071411
0.00717884
0.0072204
0.00726613
0.00731638
0.00737155
0.00743205
0.00749786
0.00756741
0.00763915
0.00771283
0.00778825
0.00786521
0.00794357
0.00802319
0.00810396
0.00818569
0.00826704
0.00712591
0.00715956
0.00719726
0.00723879
0.00728451
0.00733486
0.00739029
0.00745133
0.00751856
0.00759264
0.00767423
0.00776337
0.00785781
0.00795524
0.00805518
0.00815724
0.00826105
0.00836627
0.00847263
0.00858016
0.0086894
0.00879978
0.00725512
0.00729956
0.00734916
0.0074038
0.00746409
0.00753084
0.00760487
0.007687
0.007778
0.00787849
0.00798893
0.00810887
0.008235
0.0083644
0.00849686
0.0086321
0.00876974
0.00890969
0.0090525
0.00919985
0.0093542
0.00951462
0.0074122
0.00746964
0.00753438
0.00760659
0.00768717
0.00777699
0.00787661
0.00798639
0.00810662
0.00823786
0.00838117
0.00853701
0.00870274
0.00887602
0.00905639
0.00924306
0.00943674
0.00963901
0.00985226
0.0100794
0.0103209
0.0105663
0.00670567
0.00670567
0.00670567
0.00670566
0.00670566
0.00670566
0.00670565
0.00670565
0.00670565
0.00670564
0.00670564
0.00670565
0.00670566
0.00670567
0.00670569
0.00670572
0.00670576
0.00670577
0.00670575
0.00670572
0.00670616
0.00670856
0.00671483
0.00671617
0.00667779
0.0065897
0.00636641
0.00581822
0.00477612
0.00331828
0.00180582
0.000722411
0.000257911
0.000154125
7.48191e-05
0.0067011
0.00670111
0.00670111
0.00670112
0.00670113
0.00670113
0.00670114
0.00670115
0.00670115
0.00670116
0.00670116
0.00670116
0.00670116
0.00670115
0.00670113
0.0067011
0.00670106
0.00670102
0.00670117
0.00670188
0.00670347
0.00670344
0.00668359
0.0065962
0.00641378
0.00598065
0.00517027
0.00405851
0.00284073
0.00172012
0.000873526
0.000374864
0.000177729
0.000137547
8.20328e-05
0.00669619
0.00669619
0.00669619
0.00669618
0.00669618
0.00669618
0.00669617
0.00669617
0.00669617
0.00669618
0.00669619
0.0066962
0.00669622
0.00669624
0.00669628
0.00669635
0.00669647
0.00669674
0.0066973
0.00669775
0.0066949
0.00667466
0.00659108
0.00639451
0.00595676
0.00521232
0.00423144
0.00314414
0.00211286
0.00126598
0.000665317
0.000310277
0.000147461
0.000111416
8.01843e-05
0.00669233
0.00669234
0.00669235
0.00669236
0.00669238
0.00669239
0.0066924
0.00669241
0.00669243
0.00669244
0.00669246
0.00669247
0.00669248
0.0066925
0.00669252
0.00669257
0.00669268
0.00669283
0.00669255
0.00668937