/*--------------------------------*- C++ -*----------------------------------*\
  =========                 |
  \\      /  F ield         | OpenFOAM: The Open Source CFD Toolbox
   \\    /   O peration     | Website:  https://openfoam.org
    \\  /    A nd           | Version:  8
     \\/     M anipulation  |
\*---------------------------------------------------------------------------*/
FoamFile
{
    version     2.0;
    format      ascii;
    class       volScalarField;
    location    "800";
    object      p;
}
// * * * * * * * * * * * * * * * * * * * * * * * * * * * * * * * * * * * * * //

dimensions      [0 2 -2 0 0 0 0];

internalField   nonuniform List<scalar> 
15677
(
88.9784
85.9637
85.9417
86.1674
86.1311
86.0693
86.0283
85.9901
85.9496
85.9077
85.8646
85.8209
85.777
85.7338
85.6956
85.6638
85.6365
85.6129
85.5926
85.575
85.5598
85.5471
85.5371
85.529
85.5225
85.5172
85.5129
85.5092
85.5062
85.5036
85.5015
85.4996
85.498
85.4967
85.4955
86.054
85.0957
85.6139
85.6674
85.6104
85.6094
85.6162
85.6172
85.6164
85.615
85.6126
85.6084
85.6018
85.5926
85.5818
85.571
85.5603
85.5499
85.5401
85.5311
85.5228
85.5156
85.5097
85.5049
85.501
85.4977
85.495
85.4927
85.4908
85.4892
85.4878
85.4866
85.4856
85.4847
85.4839
85.518
85.3314
85.533
85.4606
85.4469
85.4591
85.4615
85.4614
85.4618
85.4623
85.4626
85.4628
85.4627
85.4622
85.4613
85.4601
85.4588
85.4575
85.4563
85.4551
85.4541
85.4534
85.4528
85.4525
85.4523
85.4522
85.4521
85.4522
85.4522
85.4523
85.4524
85.4525
85.4526
85.4527
85.4528
85.3704
85.3524
85.3935
85.3538
85.3663
85.37
85.368
85.3672
85.3669
85.3667
85.3667
85.3672
85.3683
85.3699
85.3722
85.3748
85.3777
85.381
85.3846
85.3885
85.3927
85.3969
85.4009
85.4045
85.4079
85.4108
85.4135
85.4159
85.418
85.4199
85.4215
85.423
85.4243
85.4254
85.4263
85.2309
85.2376
85.2406
85.2327
85.2434
85.2437
85.2445
85.2464
85.2484
85.2509
85.2541
85.2584
85.2639
85.2709
85.2787
85.2868
85.2953
85.3043
85.3135
85.3231
85.3329
85.3425
85.3512
85.3591
85.3661
85.3724
85.3779
85.3828
85.3872
85.391
85.3944
85.3974
85.4
85.4023
85.4042
85.1138
85.12
85.1193
85.1211
85.1261
85.1268
85.1291
85.1316
85.1344
85.138
85.1428
85.1493
85.1578
85.1688
85.1816
85.195
85.2093
85.2243
85.2399
85.256
85.2725
85.2884
85.303
85.316
85.3277
85.338
85.3472
85.3553
85.3625
85.3688
85.3744
85.3794
85.3837
85.3875
85.3906
84.9947
84.9986
84.9997
85.0027
85.0052
85.0071
85.0097
85.0124
85.0158
85.0203
85.0265
85.0349
85.0464
85.0616
85.0796
85.0987
85.1194
85.1413
85.1642
85.188
85.2124
85.2362
85.2579
85.2773
85.2947
85.3102
85.3239
85.3361
85.3468
85.3563
85.3647
85.3721
85.3786
85.3843
85.389
84.855
84.8575
84.8599
84.8625
84.8647
84.8674
84.8703
84.8737
84.8781
84.884
84.8922
84.9034
84.9189
84.9396
84.9643
84.9909
85.0197
85.0504
85.0826
85.1162
85.1507
85.1844
85.2151
85.2428
85.2676
85.2896
85.3092
85.3265
85.3419
85.3554
85.3674
85.3779
85.3873
85.3955
85.4022
84.6878
84.6897
84.6924
84.695
84.6975
84.7008
84.7043
84.7085
84.7142
84.722
84.7329
84.7479
84.7685
84.7963
84.8297
84.8658
84.905
84.947
84.9912
85.0373
85.0848
85.1312
85.1737
85.2119
85.2462
85.2767
85.3038
85.3279
85.3491
85.368
85.3846
85.3993
85.4123
85.4237
85.4331
84.4864
84.4878
84.4906
84.4936
84.4965
84.5003
84.5046
84.5101
84.5175
84.5277
84.542
84.5617
84.5889
84.6257
84.6701
84.7182
84.7707
84.8269
84.8863
84.9484
85.0124
85.0751
85.1325
85.1842
85.2306
85.272
85.3088
85.3415
85.3704
85.396
85.4186
85.4386
85.4564
85.472
85.4848
84.2429
84.2442
84.247
84.2504
84.2539
84.2583
84.2637
84.2707
84.2802
84.2935
84.312
84.3377
84.3731
84.4211
84.4792
84.5424
84.6114
84.6855
84.764
84.846
84.9309
85.014
85.0902
85.1591
85.2208
85.2759
85.325
85.3686
85.4072
85.4414
85.4717
85.4985
85.5222
85.5431
85.5602
83.95
83.9511
83.9538
83.9576
83.9618
83.967
83.9736
83.9824
83.9945
84.0115
84.0352
84.0682
84.1137
84.1755
84.2503
84.332
84.4214
84.5175
84.6195
84.7263
84.8369
84.9455
85.0452
85.1353
85.2162
85.2885
85.3529
85.4102
85.461
85.506
85.5459
85.5812
85.6125
85.6401
85.6626
83.5993
83.6001
83.6027
83.607
83.612
83.6183
83.6263
83.6372
83.6524
83.6737
83.7037
83.7454
83.803
83.8814
83.9765
84.0805
84.1945
84.3173
84.4479
84.5848
84.7269
84.8665
84.995
85.1112
85.2157
85.3093
85.3927
85.4669
85.5328
85.5912
85.643
85.6888
85.7296
85.7656
85.7947
83.1823
83.1828
83.1854
83.1902
83.1962
83.2037
83.2135
83.2269
83.2457
83.2722
83.3096
83.3616
83.4335
83.5315
83.6505
83.7809
83.9241
84.0788
84.2435
84.4165
84.5965
84.7735
84.9368
85.0847
85.2179
85.3372
85.4438
85.5387
85.623
85.6979
85.7642
85.8231
85.8754
85.9217
85.959
82.6916
82.6918
82.6945
82.6999
82.7069
82.716
82.7278
82.744
82.7669
82.7994
82.8452
82.9092
82.9975
83.1181
83.2649
83.426
83.6035
83.7954
84.0002
84.2158
84.4405
84.6621
84.8668
85.0526
85.2201
85.3705
85.5049
85.6247
85.7313
85.8261
85.9101
85.9848
86.0512
86.11
86.1571
82.1207
82.1207
82.1233
82.1294
82.1376
82.1483
82.1623
82.1816
82.2091
82.2482
82.3035
82.3808
82.4878
82.634
82.8124
83.0086
83.2252
83.4601
83.7112
83.9763
84.2531
84.5268
84.7801
85.0106
85.2188
85.4059
85.5735
85.7231
85.8563
85.9749
86.0802
86.1737
86.2571
86.3309
86.3898
81.4635
81.4633
81.4659
81.4726
81.4821
81.4946
81.5109
81.5336
81.566
81.6123
81.678
81.77
81.8975
82.0721
82.2858
82.5213
82.782
83.0654
83.3691
83.6907
84.0274
84.3612
84.6709
84.9533
85.209
85.4393
85.6458
85.8305
85.9952
86.1419
86.2724
86.3885
86.492
86.5838
86.6566
80.7152
80.7147
80.7174
80.7246
80.7355
80.7497
80.7685
80.7947
80.8322
80.8862
80.9628
81.0706
81.2203
81.4258
81.6781
81.957
82.2664
82.6037
82.9663
83.3513
83.7556
84.1577
84.5319
84.874
85.1845
85.4647
85.7165
85.942
86.1435
86.3232
86.4833
86.6258
86.7532
86.8661
86.9551
79.872
79.8711
79.8738
79.8816
79.8938
79.9099
79.9312
79.9608
80.0036
80.0654
80.1535
80.2777
80.4509
80.6894
80.9831
81.3086
81.6708
82.0671
82.4943
82.9494
83.4291
83.9076
84.3545
84.7642
85.1371
85.4744
85.7781
86.0508
86.2948
86.5128
86.7073
86.8807
87.0359
87.1734
87.281
78.9315
78.9303
78.933
78.9414
78.9549
78.9728
78.9964
79.0294
79.0773
79.1468
79.2465
79.3877
79.5851
79.8579
80.1949
80.5697
80.9882
81.4476
81.9446
82.476
83.0381
83.6011
84.1286
84.614
85.057
85.4588
85.8215
86.1479
86.4405
86.7025
86.9365
87.1455
87.3329
87.4989
87.6278
77.8933
77.8918
77.8945
77.9033
77.918
77.9375
77.9633
77.9994
78.0521
78.1291
78.2402
78.3982
78.6199
78.9275
79.3089
79.7347
80.2119
80.7377
81.3087
81.9214
82.5724
83.2271
83.8431
84.4118
84.9326
85.4064
85.8353
86.2221
86.5698
86.8817
87.1607
87.4104
87.6347
87.8332
87.9861
76.7584
76.7565
76.7591
76.7684
76.784
76.8049
76.8325
76.8713
76.9283
77.0123
77.1342
77.3083
77.5538
77.8957
78.3216
78.799
79.3361
79.9301
80.578
81.2763
82.0212
82.774
83.4853
84.1447
84.7506
85.3038
85.806
86.2601
86.6693
87.0371
87.3669
87.6625
87.9288
88.1642
88.3435
75.5294
75.5271
75.5295
75.5392
75.5556
75.5776
75.6066
75.6475
75.7082
75.7982
75.9298
76.1189
76.3868
76.7616
77.2309
77.759
78.3558
79.0187
79.7449
80.531
81.3738
82.2296
83.0421
83.7984
84.4963
85.1356
85.7179
86.246
86.7232
87.1531
87.5395
87.8865
88.1999
88.4764
88.6845
74.2106
74.2079
74.2102
74.22
74.2371
74.2598
74.2897
74.332
74.3953
74.4902
74.63
74.8323
75.1205
75.5259
76.036
76.6128
77.2675
77.9981
78.8022
79.6768
80.6193
81.5815
82.4995
83.3581
84.1535
84.8851
85.5538
86.1621
86.7134
87.2113
87.6598
88.0636
88.4293
88.7514
88.9901
72.808
72.805
72.807
72.8168
72.8342
72.8572
72.8873
72.9302
72.995
73.0933
73.2396
73.4529
73.7585
74.1909
74.7381
75.3599
76.0692
76.8645
77.744
78.7057
79.7476
80.8175
81.8436
82.8079
83.7055
84.5343
85.2947
85.9888
86.6197
87.1912
87.7072
88.1728
88.596
88.9677
89.2379
71.3288
71.3254
71.3271
71.3368
71.3541
71.377
71.4066
71.4491
71.5141
71.6142
71.7648
71.9861
72.3057
72.7606
73.3398
74.0016
74.7604
75.6154
76.5659
77.611
78.7498
79.9261
81.0607
82.1325
83.1349
84.0645
84.9207
85.705
86.4202
87.07
87.658
88.1902
88.6755
89.1004
89.4019
69.7816
69.7778
69.7792
69.7885
69.8055
69.8276
69.856
69.897
69.9608
70.0608
70.2132
70.4394
70.7687
71.2407
71.8458
72.5412
73.3426
74.2504
75.2654
76.3878
77.6182
78.8971
80.1381
81.3169
82.4247
83.4568
84.4114
85.2891
86.0922
86.8239
87.4878
88.0903
88.6419
89.1226
89.4533
68.1755
68.1714
68.1723
68.1812
68.1974
68.2182
68.2446
68.283
68.3441
68.442
68.5934
68.821
69.1552
69.6382
70.2621
70.9832
71.8188
72.7709
73.8416
75.0327
76.3466
77.7215
79.064
80.3465
81.5583
82.6926
83.7461
84.7184
85.611
86.4268
87.1691
87.8447
88.4661
89.0043
89.3594
66.5212
66.5168
66.5172
66.5254
66.5405
66.5595
66.583
66.6177
66.6746
66.7681
66.9159
67.1409
67.475
67.9623
68.5967
69.3346
70.1948
71.1808
72.2964
73.5452
74.9321
76.3934
77.8298
79.2105
80.5219
81.7553
82.9059
83.9719
84.9541
85.8547
86.676
87.4256
88.1184
88.7135
89.0824
64.828
64.8232
64.823
64.8302
64.8439
64.8603
64.8802
64.91
64.961
65.0482
65.1893
65.4079
65.7365
66.221
66.857
67.6018
68.4755
69.4835
70.6312
71.9245
73.3707
74.9055
76.4242
77.8929
79.2959
80.6226
81.8662
83.0232
84.0928
85.0759
85.9743
86.7965
87.5606
88.2099
88.5753
85.4941
85.4925
85.4909
85.4894
85.4879
85.4865
85.4852
85.4839
85.4826
85.4815
85.4804
85.4793
85.4784
85.4776
85.4768
85.4762
85.4756
85.4751
85.4747
85.4743
85.474
85.4737
85.4831
85.4822
85.4812
85.4804
85.4795
85.4787
85.4778
85.4771
85.4763
85.4756
85.4749
85.4743
85.4737
85.4732
85.4727
85.4723
85.4719
85.4716
85.4713
85.4711
85.4709
85.4707
85.4531
85.4536
85.4541
85.4545
85.455
85.4555
85.4559
85.4563
85.4567
85.4571
85.4575
85.4578
85.4581
85.4584
85.4586
85.4588
85.4589
85.459
85.4591
85.4592
85.4593
85.4593
85.4278
85.4297
85.4315
85.4333
85.435
85.4367
85.4384
85.44
85.4415
85.443
85.4443
85.4456
85.4467
85.4477
85.4486
85.4493
85.4499
85.4504
85.4508
85.4511
85.4514
85.4516
85.4071
85.4104
85.4137
85.417
85.4202
85.4232
85.4262
85.4291
85.4318
85.4344
85.4368
85.4391
85.441
85.4428
85.4442
85.4455
85.4465
85.4473
85.448
85.4485
85.4488
85.4491
85.3952
85.4002
85.4052
85.4101
85.4149
85.4195
85.4239
85.4282
85.4322
85.436
85.4395
85.4427
85.4456
85.448
85.45
85.4517
85.453
85.4541
85.4549
85.4554
85.4557
85.4559
85.3958
85.4026
85.4096
85.4165
85.4231
85.4294
85.4355
85.4413
85.4467
85.4518
85.4564
85.4607
85.4643
85.4674
85.4698
85.4718
85.4733
85.4744
85.4752
85.4756
85.4757
85.4755
85.4117
85.4208
85.4302
85.4393
85.4481
85.4565
85.4645
85.472
85.479
85.4855
85.4914
85.4966
85.501
85.5046
85.5074
85.5096
85.5111
85.5121
85.5125
85.5126
85.5122
85.5114
85.4462
85.458
85.4703
85.4822
85.4936
85.5045
85.5147
85.5242
85.533
85.541
85.5482
85.5545
85.5596
85.5636
85.5666
85.5687
85.57
85.5706
85.5705
85.5699
85.5686
85.5669
85.5024
85.5175
85.5334
85.5488
85.5634
85.5771
85.59
85.6019
85.6127
85.6225
85.6311
85.6384
85.6442
85.6485
85.6515
85.6533
85.654
85.6538
85.6529
85.6511
85.6486
85.6454
85.5837
85.6029
85.6232
85.6428
85.6612
85.6785
85.6945
85.7092
85.7224
85.7341
85.7442
85.7526
85.7589
85.7633
85.7661
85.7672
85.7671
85.7658
85.7634
85.7602
85.7559
85.7507
85.6935
85.7176
85.7433
85.768
85.7912
85.8127
85.8325
85.8504
85.8664
85.8803
85.8921
85.9014
85.9082
85.9125
85.9147
85.9149
85.9134
85.9104
85.9061
85.9008
85.8941
85.8863
85.8349
85.865
85.8973
85.9284
85.9572
85.9838
86.0081
86.0299
86.0491
86.0655
86.0791
86.0895
86.0966
86.1005
86.1017
86.1004
86.097
86.0918
86.085
86.0769
86.067
86.0558
86.0108
86.0481
86.0886
86.1273
86.163
86.1958
86.2255
86.2519
86.2749
86.2941
86.3096
86.3211
86.3283
86.3316
86.3313
86.3281
86.3222
86.314
86.304
86.2922
86.2784
86.2629
86.2233
86.2693
86.3197
86.3678
86.4119
86.4522
86.4884
86.5203
86.5477
86.5704
86.5881
86.6006
86.6078
86.61
86.6079
86.602
86.5929
86.581
86.5668
86.5506
86.5319
86.5109
86.4737
86.5302
86.5929
86.6523
86.7067
86.756
86.8001
86.8386
86.8713
86.8979
86.9182
86.932
86.939
86.9398
86.9353
86.9261
86.913
86.8965
86.8773
86.8556
86.8309
86.8033
86.762
86.8314
86.909
86.9824
87.0492
87.1096
87.1632
87.2097
87.2488
87.2802
87.3037
87.3188
87.3255
87.3246
87.3171
87.3039
87.286
87.2639
87.2386
87.2104
87.1784
87.143
87.0867
87.1718
87.2677
87.3581
87.4401
87.514
87.5793
87.6356
87.6826
87.7199
87.7472
87.7641
87.7706
87.7677
87.7567
87.7388
87.7151
87.6865
87.6539
87.6179
87.5774
87.5327
87.4444
87.5487
87.667
87.7781
87.8788
87.9692
88.0488
88.1173
88.1741
88.2187
88.2509
88.2703
88.2767
88.2716
88.2567
88.2334
88.203
88.1667
88.1257
88.0807
88.0303
87.9748
87.8294
87.957
88.1028
88.2393
88.3629
88.4736
88.571
88.6545
88.7234
88.7774
88.816
88.8386
88.8454
88.8382
88.819
88.7897
88.7518
88.7068
88.6562
88.6008
88.5391
88.4711
88.2336
88.3896
88.5691
88.7366
88.8882
89.024
89.1434
89.2455
89.3297
89.3955
89.4424
89.4698
89.4778
89.4687
89.445
89.4091
89.3629
89.3082
89.2467
89.1797
89.1051
89.0229
88.6459
88.8364
89.057
89.2625
89.4484
89.615
89.7615
89.8869
89.9905
90.0714
90.1292
90.1632
90.1737
90.1633
90.1353
90.0924
90.0372
89.9718
89.8982
89.8182
89.7293
89.6312
89.0523
89.2846
89.555
89.8066
90.0346
90.2391
90.4192
90.5736
90.7014
90.8017
90.8739
90.9172
90.9319
90.9213
90.8894
90.8396
90.7748
90.6978
90.6111
90.5168
90.412
90.2962
89.4355
89.7178
90.0487
90.3561
90.6352
90.8861
91.1076
91.2981
91.4564
91.5815
91.6725
91.7287
91.7502
91.741
91.7061
91.6495
91.575
91.4858
91.385
91.2751
91.1531
91.0178
89.7751
90.1168
90.5203
90.8949
91.236
91.5435
91.8157
92.0508
92.2472
92.4038
92.5194
92.593
92.6247
92.6194
92.583
92.5204
92.4363
92.3345
92.2187
92.0922
91.9516
91.7951
90.0475
90.4588
90.9488
91.4039
91.8195
92.1955
92.5297
92.8198
93.0637
93.2599
93.4072
93.5041
93.5506
93.5524
93.5166
93.4494
93.3562
93.2417
93.1106
92.9665
92.8061
92.6268
90.2265
90.7178
91.3103
91.8605
92.3651
92.8234
93.2326
93.5898
93.8924
94.1384
94.3261
94.4538
94.5209
94.5343
94.5022
94.4323
94.3312
94.2046
94.0578
93.8956
93.7143
93.5108
90.2839
90.8649
91.5779
92.2403
92.8501
93.4065
93.9058
94.3442
94.7186
95.0263
95.2651
95.4326
95.5278
95.5583
95.5342
95.4646
95.3575
95.2196
95.0576
94.877
94.6743
94.4454
90.1886
90.8662
91.7186
92.5117
93.2449
93.917
94.5235
95.0597
95.5214
95.9053
96.2084
96.4271
96.5597
96.6147
96.6041
96.5388
96.4283
96.2809
96.1043
95.9055
95.6809
95.4256
89.9031
90.6873
91.7004
92.6468
93.5253
94.3346
95.0685
95.721
96.287
96.7623
97.1436
97.4264
97.6073
97.6957
97.7058
97.6502
97.5404
97.3863
97.197
96.9808
96.7348
96.4538
85.4735
85.4732
85.473
85.4729
85.4728
85.4728
85.4705
85.4703
85.4701
85.47
85.4699
85.4698
85.4593
85.4592
85.459
85.4589
85.4587
85.4586
85.4517
85.4517
85.4516
85.4514
85.4512
85.4509
85.4493
85.4494
85.4494
85.4492
85.4489
85.4484
85.4561
85.4564
85.4565
85.4563
85.4558
85.4551
85.4757
85.4763
85.4764
85.4762
85.4756
85.4746
85.5113
85.5123
85.5126
85.5124
85.5116
85.5101
85.5665
85.5679
85.5684
85.5681
85.5671
85.5651
85.6446
85.6466
85.6473
85.647
85.6457
85.6431
85.7491
85.7519
85.753
85.7526
85.7509
85.7474
85.8837
85.8875
85.8889
85.8886
85.8864
85.8818
86.0519
86.057
86.0589
86.0585
86.0557
86.0499
86.2573
86.2639
86.2664
86.2659
86.2625
86.2551
86.5032
86.5117
86.5149
86.5144
86.5103
86.5008
86.793
86.8038
86.8078
86.8072
86.8022
86.7904
87.1296
87.1431
87.1481
87.1475
87.1414
87.1268
87.5156
87.5324
87.5384
87.5377
87.5305
87.5125
87.9533
87.9739
87.9811
87.9805
87.9719
87.95
88.4446
88.4697
88.4783
88.4776
88.4676
88.441
88.9907
89.021
89.0313
89.0305
89.0188
88.9869
89.5925
89.6288
89.6408
89.64
89.6264
89.5885
90.2503
90.2935
90.3075
90.3066
90.2909
90.246
90.9639
91.0149
91.0311
91.0302
91.0122
90.9593
91.7324
91.7924
91.8109
91.81
91.7895
91.7275
92.5546
92.6247
92.6458
92.6448
92.6217
92.5495
93.4282
93.5098
93.5337
93.5327
93.5067
93.4229
94.3518
94.4461
94.473
94.472
94.4429
94.3462
95.3201
95.4285
95.4586
95.4575
95.4251
95.3143
96.3365
96.4587
96.4925
96.4914
96.4552
96.3304
85.4728
85.4729
85.473
85.4732
85.4734
85.4736
85.474
85.4744
85.4748
85.4754
85.4761
85.4768
85.4777
85.4786
85.4796
85.4807
85.4818
85.483
85.4842
85.4856
85.4869
85.4883
85.4698
85.4697
85.4697
85.4697
85.4698
85.4699
85.47
85.4701
85.4703
85.4706
85.4709
85.4713
85.4717
85.4722
85.4727
85.4732
85.4738
85.4744
85.475
85.4757
85.4764
85.4771
85.4583
85.458
85.4577
85.4574
85.457
85.4566
85.4562
85.4557
85.4552
85.4547
85.4541
85.4535
85.4528
85.4521
85.4514
85.4507
85.45
85.4493
85.4486
85.4479
85.4472
85.4465
85.4505
85.45
85.4495
85.4488
85.4481
85.4473
85.4464
85.4454
85.4442
85.4429
85.4414
85.4398
85.4381
85.4363
85.4345
85.4326
85.4306
85.4286
85.4266
85.4245
85.4224
85.4203
85.4479
85.4473
85.4466
85.4457
85.4447
85.4435
85.4422
85.4406
85.4387
85.4367
85.4343
85.4317
85.4289
85.4259
85.4228
85.4196
85.4162
85.4128
85.4093
85.4057
85.4021
85.3985
85.4546
85.454
85.4533
85.4523
85.4511
85.4496
85.4479
85.4458
85.4434
85.4406
85.4374
85.4337
85.4297
85.4255
85.421
85.4163
85.4115
85.4064
85.4013
85.396
85.3906
85.3853
85.474
85.4737
85.4732
85.4723
85.4711
85.4695
85.4675
85.465
85.4621
85.4586
85.4545
85.4498
85.4446
85.439
85.4331
85.4268
85.4202
85.4134
85.4063
85.399
85.3916
85.3844
85.5097
85.5099
85.5098
85.5093
85.5082
85.5067
85.5047
85.502
85.4986
85.4945
85.4896
85.4839
85.4774
85.4703
85.4627
85.4545
85.446
85.437
85.4277
85.418
85.4082
85.3986
85.565
85.5661
85.5668
85.5668
85.5663
85.5651
85.5632
85.5605
85.5569
85.5523
85.5466
85.5397
85.5318
85.5231
85.5136
85.5034
85.4925
85.481
85.469
85.4564
85.4436
85.4312
85.6433
85.6459
85.6477
85.6488
85.6491
85.6485
85.6471
85.6446
85.6409
85.6359
85.6295
85.6215
85.6121
85.6016
85.5899
85.5772
85.5635
85.549
85.5337
85.5176
85.5012
85.4855
85.7484
85.7528
85.7564
85.7589
85.7605
85.761
85.7604
85.7584
85.7549
85.7497
85.7426
85.7335
85.7225
85.7099
85.6957
85.6801
85.6632
85.645
85.6258
85.6054
85.5844
85.5646
85.8837
85.8908
85.8966
85.9012
85.9046
85.9067
85.9073
85.9062
85.9031
85.898
85.8904
85.8801
85.8674
85.8524
85.8353
85.8164
85.7955
85.773
85.749
85.7234
85.6969
85.6721
86.053
86.0634
86.0724
86.0796
86.0854
86.0897
86.092
86.0923
86.0901
86.0852
86.0772
86.0658
86.0512
86.0335
86.0131
85.9901
85.9647
85.9369
85.907
85.8751
85.8419
85.8111
86.2598
86.2745
86.2874
86.2981
86.3071
86.3142
86.3189
86.3211
86.3202
86.3158
86.3076
86.2951
86.2783
86.2576
86.2333
86.2056
86.1746
86.1405
86.1036
86.0638
86.0224
85.9844
86.5076
86.5277
86.5454
86.5605
86.5736
86.5842
86.5921
86.5967
86.5976
86.5942
86.5859
86.5721
86.5529
86.5288
86.4998
86.4664
86.4287
86.387
86.3416
86.2924
86.2409
86.1942
86.7997
86.8264
86.8501
86.8705
86.8886
86.9037
86.9154
86.9232
86.9263
86.9241
86.9158
86.9008
86.8788
86.8505
86.8161
86.7758
86.7301
86.6792
86.6234
86.5627
86.499
86.4416
87.1392
87.1737
87.2045
87.2315
87.2555
87.2761
87.2925
87.304
87.31
87.3094
87.3013
87.2847
87.2595
87.2261
87.185
87.1366
87.0811
87.0189
86.9505
86.8758
86.7972
86.7269
87.5286
87.5724
87.6117
87.6464
87.6775
87.7046
87.7266
87.7427
87.7519
87.7531
87.7451
87.7266
87.6973
87.6579
87.6087
87.5501
87.4827
87.4069
87.3231
87.2313
87.1343
87.0484
87.9704
88.025
88.0742
88.1178
88.1573
88.1918
88.2203
88.2417
88.2546
88.2578
88.2497
88.2287
88.1943
88.1472
88.0879
88.017
87.9349
87.8424
87.7398
87.6271
87.5077
87.4027
88.4664
88.5336
88.5941
88.6479
88.6969
88.74
88.7758
88.803
88.82
88.8251
88.8164
88.7919
88.7509
88.6943
88.6225
88.5362
88.4362
88.323
88.1974
88.0592
87.9124
87.7841
89.018
89.0994
89.1727
89.2381
89.2979
89.3505
89.3945
89.428
89.4492
89.456
89.4459
89.4166
89.367
89.2981
89.2107
89.1054
88.9831
88.8446
88.6907
88.5215
88.341
88.1845
89.626
89.7234
89.811
89.8894
89.961
90.0242
90.077
90.1172
90.1425
90.1503
90.1377
90.1015
90.0406
89.9563
89.8492
89.7202
89.5703
89.4007
89.2123
89.0051
88.7837
88.5928
90.2907
90.4059
90.5094
90.602
90.6867
90.7612
90.8233
90.8702
90.8992
90.9069
90.8899
90.8442
90.7686
90.6644
90.5325
90.3741
90.1903
89.9825
89.7518
89.4985
89.2273
88.995
91.0121
91.1468
91.2675
91.3757
91.4743
91.5609
91.6324
91.6857
91.7174
91.7235
91.6995
91.6409
91.5459
91.4164
91.2535
91.0585
90.8328
90.5782
90.2963
89.987
89.6558
89.3737
91.7891
91.9452
92.0845
92.2092
92.3226
92.4215
92.5024
92.5614
92.5943
92.5963
92.5619
92.4857
92.3656
92.2041
92.0024
91.7621
91.4852
91.1737
90.8296
90.4532
90.0497
89.7087
92.6206
92.7996
92.9587
93.1009
93.2295
93.3408
93.4304
93.4938
93.5257
93.5204
93.4711
93.3713
93.219
93.0171
92.7672
92.4713
92.1318
91.7514
91.3326
90.8759
90.3862
89.9761
93.5044
93.7078
93.8878
94.048
94.192
94.3153
94.4125
94.4781
94.5059
94.4888
94.4188
94.2881
94.0946
93.842
93.5326
93.1688
92.7537
92.2906
91.7827
91.2309
90.6394
90.1501
94.4388
94.6678
94.8692
95.0476
95.2068
95.3409
95.4438
95.5087
95.5282
95.4937
95.3956
95.2249
94.9794
94.6642
94.282
93.8361
93.3302
92.7686
92.1554
91.4917
90.7805
90.2022
95.4189
95.6745
95.8977
96.0943
96.2677
96.411
96.5169
96.5771
96.5827
96.5235
96.3881
96.1659
95.8551
95.4626
94.992
94.4474
93.8336
93.1557
92.419
91.6251
90.7753
90.1013
96.447
96.7284
96.9732
97.1869
97.3728
97.5224
97.6271
97.6771
97.6616
97.5687
97.3852
97.0989
96.7086
96.2234
95.6473
94.9854
94.2433
93.4279
92.546
91.5993
90.5899
89.8105
85.4896
85.4906
85.4918
85.4933
85.495
85.4969
85.4993
85.5021
85.5055
85.5097
85.5147
85.5209
85.5286
85.5384
85.5507
85.5656
85.5828
85.6029
85.6262
85.6533
85.6849
85.7229
85.766
85.8098
85.8535
85.8965
85.9384
85.9789
86.017
86.058
86.1198
86.1561
85.9304
85.9524
88.9672
85.4778
85.4784
85.4791
85.48
85.481
85.4822
85.4836
85.4853
85.4873
85.4898
85.4928
85.4964
85.5009
85.5065
85.5133
85.5213
85.53
85.5395
85.5496
85.5601
85.5708
85.5813
85.5904
85.5969
85.601
85.6034
85.6047
85.6055
85.6044
85.5976
85.5986
85.6556
85.6021
85.0839
86.0421
85.4459
85.4457
85.4454
85.4451
85.4448
85.4444
85.4441
85.4438
85.4435
85.4433
85.4431
85.443
85.443
85.4432
85.4436
85.4443
85.4451
85.4461
85.4471
85.4481
85.4491
85.4498
85.4502
85.4501
85.4499
85.4495
85.449
85.4485
85.4487
85.4462
85.434
85.4477
85.5201
85.3185
85.505
85.4186
85.4174
85.416
85.4145
85.4127
85.4108
85.4087
85.4063
85.4036
85.4006
85.3973
85.3937
85.3897
85.3854
85.3808
85.3762
85.372
85.3681
85.3645
85.3613
85.3585
85.356
85.3542
85.353
85.3524
85.3523
85.3526
85.3528
85.3536
85.3555
85.3518
85.3394
85.379
85.338
85.3559
85.3953
85.3931
85.3904
85.3875
85.3842
85.3805
85.3763
85.3717
85.3664
85.3605
85.3539
85.3465
85.3383
85.3292
85.3192
85.309
85.2991
85.2895
85.2803
85.2715
85.2631
85.255
85.2479
85.2422
85.2379
85.2346
85.2321
85.2301
85.2282
85.2273
85.2271
85.2163
85.2242
85.2212
85.2145
85.3803
85.3768
85.3726
85.3678
85.3625
85.3566
85.3499
85.3423
85.3338
85.3243
85.3135
85.3015
85.288
85.273
85.2567
85.2398
85.2233
85.2073
85.192
85.1774
85.1638
85.1508
85.1395
85.1309
85.1244
85.1195
85.1158
85.113
85.1105
85.1082
85.1074
85.1025
85.1006
85.1013
85.0951
85.3772
85.3719
85.3657
85.3587
85.3509
85.3421
85.3322
85.321
85.3084
85.2943
85.2784
85.2605
85.2406
85.2185
85.1942
85.1694
85.1452
85.1218
85.0996
85.0786
85.0592
85.0409
85.0255
85.014
85.0054
84.9992
84.9946
84.9912
84.9885
84.9859
84.984
84.9814
84.9784
84.9774
84.9735
85.3886
85.3812
85.3724
85.3625
85.3514
85.339
85.3249
85.3091
85.2913
85.2712
85.2487
85.2235
85.1953
85.164
85.1299
85.0949
85.0609
85.0282
84.9971
84.968
84.9411
84.9161
84.8952
84.8796
84.8682
84.86
84.854
84.8496
84.8462
84.8433
84.8406
84.8384
84.8357
84.8334
84.8308
85.4175
85.4074
85.3953
85.3816
85.3663
85.3491
85.3297
85.3079
85.2833
85.2556
85.2246
85.1898
85.151
85.108
85.0611
85.013
84.9664
84.9218
84.8794
84.8398
84.8034
84.7697
84.7417
84.7209
84.7058
84.6949
84.687
84.6813
84.677
84.6735
84.6702
84.6677
84.6651
84.6624
84.6605
85.4671
85.4534
85.437
85.4186
85.3978
85.3745
85.3483
85.3188
85.2855
85.2481
85.2061
85.1591
85.1068
85.0488
84.9856
84.9209
84.8584
84.7985
84.7418
84.6889
84.6404
84.5958
84.5587
84.5314
84.5115
84.4972
84.4869
84.4795
84.474
84.4697
84.4659
84.4629
84.4599
84.4572
84.4557
85.5403
85.5222
85.5004
85.4758
85.4482
85.4172
85.3823
85.3429
85.2987
85.249
85.1932
85.1308
85.0613
84.9844
84.9007
84.8152
84.7326
84.6536
84.579
84.5096
84.446
84.3877
84.3394
84.3038
84.2779
84.2593
84.246
84.2365
84.2294
84.2241
84.2197
84.2161
84.2127
84.21
84.2087
85.6403
85.6167
85.588
85.5557
85.5196
85.4788
85.433
85.3814
85.3234
85.2583
85.1852
85.1036
85.0128
84.9124
84.8032
84.6919
84.5845
84.482
84.3853
84.2955
84.2135
84.1383
84.0762
84.0305
83.9973
83.9735
83.9565
83.9444
83.9356
83.929
83.9238
83.9196
83.9157
83.9131
83.912
85.7699
85.7395
85.7023
85.6605
85.6136
85.5609
85.5016
85.4349
85.3598
85.2756
85.1813
85.076
84.9591
84.8298
84.6895
84.5467
84.4091
84.278
84.1546
84.0401
83.9357
83.8403
83.7616
83.7038
83.6619
83.6318
83.6104
83.5952
83.5843
83.5763
83.57
83.565
83.5606
83.5581
83.5573
85.9315
85.8928
85.8452
85.7917
85.7317
85.6643
85.5885
85.5032
85.4074
85.3
85.1798
85.0458
84.8971
84.7331
84.5552
84.3745
84.2008
84.0355
83.8802
83.7364
83.6056
83.4862
83.3879
83.3159
83.2636
83.2262
83.1996
83.1808
83.1674
83.1576
83.15
83.1441
83.1392
83.1366
83.1361
86.1268
86.0781
86.0179
85.9501
85.8743
85.7891
85.6933
85.5856
85.4648
85.3295
85.1782
85.0098
84.8231
84.6176
84.3952
84.1697
83.9534
83.7479
83.5554
83.3774
83.2158
83.0686
82.9477
82.8591
82.795
82.7491
82.7165
82.6935
82.6773
82.6655
82.6565
82.6494
82.644
82.6413
82.6411
86.3566
86.296
86.2205
86.1357
86.0409
85.9343
85.8146
85.6803
85.5296
85.3611
85.173
84.9638
84.7324
84.4782
84.2036
83.9259
83.6601
83.4083
83.1728
82.9556
82.7589
82.5801
82.4335
82.3263
82.2488
82.1934
82.1542
82.1267
82.1073
82.0933
82.0826
82.0744
82.0684
82.0657
82.0657
86.6203
86.5456
86.4521
86.347
86.2295
86.0977
85.9497
85.7838
85.598
85.3904
85.1591
84.9024
84.619
84.3083
83.9736
83.636
83.3136
83.0091
82.725
82.4638
82.2277
82.0136
81.8386
81.7108
81.6186
81.5529
81.5065
81.4741
81.4514
81.435
81.4226
81.413
81.4064
81.4037
81.4039
86.9156
86.8246
86.7098
86.5807
86.4366
86.2751
86.094
85.8912
85.6645
85.4116
85.1303
84.8187
84.4756
84.1004
83.6973
83.292
82.9062
82.5428
82.2048
81.8947
81.6153
81.3626
81.1566
81.0067
80.8988
80.822
80.768
80.7304
80.7042
80.6854
80.6711
80.6603
80.6531
80.6504
80.6509
87.2382
87.1283
86.9888
86.8317
86.6567
86.4607
86.2412
85.9958
85.7219
85.4169
85.0784
84.7044
84.2936
83.8457
83.3661
82.8855
82.4295
82.0015
81.6045
81.2415
80.9155
80.6213
80.3824
80.2089
80.0845
79.9963
79.9345
79.8917
79.862
79.8407
79.8246
79.8124
79.8046
79.8019
79.8028
87.5814
87.4501
87.282
87.0926
86.8818
86.6461
86.3826
86.0885
85.7608
85.3968
84.9937
84.5496
84.0631
83.5344
82.9703
82.4072
81.875
81.3771
80.9169
80.4977
80.1223
79.7849
79.5116
79.3139
79.1726
79.0727
79.0032
78.9552
78.9222
78.8986
78.8807
78.8672
78.8588
78.8561
78.8573
87.936
87.7806
87.5798
87.3533
87.1018
86.8209
86.5074
86.1582
85.77
85.3397
84.8646
84.3425
83.7726
83.1555
82.4997
81.8477
81.234
80.6621
80.1356
79.6577
79.2313
78.8493
78.5414
78.3194
78.1612
78.0499
77.9728
77.9201
77.8839
77.8582
77.8386
77.824
77.8151
77.8125
77.814
88.2896
88.1076
87.8697
87.6012
87.3035
86.9718
86.6022
86.1914
85.7358
85.2321
84.6777
84.0704
83.4099
82.6974
81.9435
81.1974
80.4982
79.8495
79.2546
78.7168
78.2388
77.8124
77.47
77.2243
77.0499
76.9279
76.8438
76.7868
76.748
76.7204
76.6994
76.6838
76.6745
76.6719
76.6738
88.6267
88.4157
88.1364
87.8206
87.4714
87.0831
86.6513
86.1724
85.6427
85.0589
84.4182
83.719
82.9614
82.1478
81.2907
80.4469
79.6598
78.9328
78.269
77.6715
77.1428
76.673
76.2977
76.0295
75.8402
75.7085
75.6183
75.5577
75.5167
75.4877
75.4657
75.4493
75.4396
75.4372
75.4395
88.9281
88.6863
88.3613
87.993
87.5869
87.1363
86.6364
86.0834
85.4734
84.8031
84.0701
83.2733
82.4135
81.4942
80.5309
79.5873
78.7117
77.9068
77.1753
76.5199
75.9426
75.4319
75.0261
74.7376
74.535
74.395
74.3
74.2367
74.1943
74.1645
74.1417
74.1247
74.1149
74.1126
74.1152
89.1717
88.8981
88.5233
88.0974
87.6293
87.1111
86.5376
85.9048
85.2089
84.4469
83.6166
82.7177
81.752
80.7247
79.6537
78.6107
77.648
76.7676
75.9715
75.2615
74.6392
74.0915
73.6586
73.3526
73.1392
72.9927
72.8943
72.8294
72.7865
72.7564
72.7333
72.716
72.7061
72.7041
72.7071
89.3314
89.0261
88.598
88.1097
87.575
86.9845
86.3326
85.6155
84.8294
83.9715
83.0404
82.0366
80.9634
79.8276
78.6502
77.5104
76.4643
75.513
74.6572
73.8977
73.2354
72.6556
72.2002
71.8804
71.6588
71.508
71.4078
71.3427
71.3002
71.2706
71.2477
71.2304
71.2207
71.2189
71.2224
89.3785
89.0437
88.5594
88.0047
87.3994
86.733
85.999
85.1939
84.3144
83.3581
82.3244
81.2151
80.035
78.7929
77.5128
76.2814
75.1581
74.1423
73.2337
72.4317
71.7357
71.1301
70.6577
70.3281
70.1016
69.949
69.8489
69.785
69.744
69.7155
69.6934
69.6765
69.6671
69.6657
69.6695
89.2801
88.9206
88.3785
87.7538
87.0753
86.3304
85.5122
84.6174
83.6432
82.5879
81.452
80.2388
78.9549
77.6113
76.2354
74.9205
73.7285
72.657
71.7042
70.868
70.1463
69.522
69.0386
68.704
68.4762
68.3245
68.2265
68.1653
68.1268
68.1005
68.0796
68.0634
68.0545
68.0536
68.0577
88.9988
88.6249
88.0257
87.3294
86.5767
85.7526
84.8496
83.8651
82.7971
81.6447
80.4097
79.0968
77.7148
76.2772
74.8148
73.4271
72.1774
71.0611
70.0744
69.2137
68.4752
67.8404
67.3527
67.0183
66.793
66.6451
66.5513
66.4943
66.4596
66.436
66.417
66.4018
66.3937
66.3932
66.3977
88.4876
88.1166
87.4628
86.6949
85.8694
84.9681
83.9824
82.9105
81.7514
80.506
79.1776
77.7731
76.303
74.7831
73.2473
71.8003
70.5062
69.3578
68.3493
67.475
66.7298
66.0934
65.6085
65.2795
65.0607
64.9194
64.832
64.7808
64.7509
64.731
64.7145
64.7008
64.6936
64.6938
64.6987
62.9179
62.9131
62.9123
62.9184
62.9302
62.9436
62.9588
62.9823
63.0254
63.1033
63.2338
63.4407
63.7576
64.2309
64.8586
65.5998
66.476
67.4941
68.6617
69.9874
71.4814
73.0802
74.6757
76.2309
77.7271
79.1496
80.4874
81.7345
82.8885
83.9499
84.9206
85.8111
86.6428
87.3369
87.6777
60.7827
60.7774
60.7758
60.7806
60.79
60.799
60.8078
60.8224
60.8544
60.919
61.0338
61.2223
61.5186
61.9687
62.5734
63.295
64.1559
65.1645
66.3311
67.6672
69.187
70.8302
72.4857
74.1113
75.6814
77.1769
78.5856
79.9023
81.126
82.2581
83.2997
84.2627
85.173
85.923
86.2154
58.6406
58.6349
58.6323
58.6352
58.6415
58.6453
58.6464
58.6507
58.6695
58.7176
58.8123
58.9768
59.2444
59.6596
60.2263
60.9109
61.7358
62.711
63.8492
65.1651
66.6762
68.3244
69.9954
71.6413
73.236
74.764
76.2172
77.592
78.8861
80.0977
81.2238
82.2754
83.2808
84.1023
84.361
56.5183
56.5123
56.5086
56.5096
56.5125
56.5108
56.5037
56.4966
56.5006
56.5301
56.6014
56.7373