/*--------------------------------*- C++ -*----------------------------------*\
  =========                 |
  \\      /  F ield         | OpenFOAM: The Open Source CFD Toolbox
   \\    /   O peration     | Website:  https://openfoam.org
    \\  /    A nd           | Version:  8
     \\/     M anipulation  |
\*---------------------------------------------------------------------------*/
FoamFile
{
    version     2.0;
    format      ascii;
    class       volVectorField;
    location    "800";
    object      U;
}
// * * * * * * * * * * * * * * * * * * * * * * * * * * * * * * * * * * * * * //

dimensions      [0 1 -1 0 0 0 0];

internalField   nonuniform List<vector> 
15677
(
(-2.53765 9.06506 0)
(0.791327 10.3666 0)
(0.128842 10.0153 0)
(0.00641165 10.0051 0)
(0.0282772 10.0104 0)
(0.0300774 10.0104 0)
(0.0275182 10.0096 0)
(0.0251645 10.0086 0)
(0.0229666 10.0075 0)
(0.0206908 10.0065 0)
(0.0183522 10.0054 0)
(0.0160113 10.0044 0)
(0.0137208 10.0036 0)
(0.0115436 10.0028 0)
(0.0096937 10.0022 0)
(0.00820663 10.0017 0)
(0.00697929 10.0014 0)
(0.00595798 10.0011 0)
(0.00510193 10.0009 0)
(0.00438052 10.0007 0)
(0.00377086 10.0006 0)
(0.00327234 10.0005 0)
(0.00287785 10.0004 0)
(0.00256398 10.0003 0)
(0.00231078 10.0003 0)
(0.00210383 10.0003 0)
(0.00193276 10.0002 0)
(0.00178999 10.0002 0)
(0.00166983 10.0002 0)
(0.00156796 10.0002 0)
(0.00148103 10.0002 0)
(0.00140643 10.0002 0)
(0.00134208 10.0001 0)
(0.00128619 10.0001 0)
(0.00123788 10.0001 0)
(-1.33219 8.26616 0)
(0.665862 10.1116 0)
(-0.0358376 10.0874 0)
(0.0130974 10.0516 0)
(0.0455345 10.0448 0)
(0.0398589 10.0407 0)
(0.0369908 10.0374 0)
(0.0353046 10.0343 0)
(0.0334185 10.0313 0)
(0.031288 10.0282 0)
(0.0289874 10.0249 0)
(0.0265379 10.0216 0)
(0.0239676 10.0184 0)
(0.0213136 10.0153 0)
(0.0188568 10.0127 0)
(0.0167082 10.0107 0)
(0.0147839 10.009 0)
(0.0130609 10.0077 0)
(0.0115183 10.0065 0)
(0.0101376 10.0056 0)
(0.00890364 10.0048 0)
(0.00784905 10.0042 0)
(0.00698832 10.0037 0)
(0.00628635 10.0033 0)
(0.00570914 10.003 0)
(0.00523077 10.0028 0)
(0.0048314 10.0026 0)
(0.00449574 10.0024 0)
(0.00421181 10.0023 0)
(0.00397024 10.0022 0)
(0.0037636 10.002 0)
(0.00358598 10.002 0)
(0.00343263 10.0019 0)
(0.00329933 10.0018 0)
(0.00318323 10.0018 0)
(-0.415264 7.73504 0)
(0.294357 9.67991 0)
(-0.0468088 10.0466 0)
(0.0452308 10.0705 0)
(0.0440176 10.0628 0)
(0.0377248 10.057 0)
(0.036935 10.0529 0)
(0.0358882 10.0494 0)
(0.03443 10.046 0)
(0.0327747 10.0426 0)
(0.0309194 10.0391 0)
(0.0288341 10.0353 0)
(0.0265176 10.0313 0)
(0.0239987 10.0273 0)
(0.0215647 10.0237 0)
(0.0193627 10.0207 0)
(0.0173286 10.0182 0)
(0.015456 10.016 0)
(0.0137369 10.0141 0)
(0.0121641 10.0125 0)
(0.0107308 10.011 0)
(0.00948402 10.0098 0)
(0.00844964 10.0088 0)
(0.00759371 10.008 0)
(0.00688155 10.0074 0)
(0.00628576 10.0068 0)
(0.00578464 10.0064 0)
(0.00536095 10.006 0)
(0.00500092 10.0057 0)
(0.00469355 10.0054 0)
(0.00442996 10.0051 0)
(0.00420305 10.0049 0)
(0.00400706 10.0048 0)
(0.0038365 10.0046 0)
(0.00368568 10.0045 0)
(-0.084788 7.35088 0)
(0.0985432 9.29107 0)
(-0.00438722 9.93976 0)
(0.050854 10.062 0)
(0.0384653 10.0709 0)
(0.0372647 10.0678 0)
(0.0369968 10.0639 0)
(0.0358127 10.0604 0)
(0.034428 10.0569 0)
(0.0328926 10.0535 0)
(0.0311416 10.05 0)
(0.0291385 10.0461 0)
(0.0268612 10.042 0)
(0.0243095 10.0376 0)
(0.0217777 10.0335 0)
(0.0194535 10.0299 0)
(0.0172802 10.0268 0)
(0.0152605 10.024 0)
(0.0133938 10.0215 0)
(0.0116778 10.0192 0)
(0.0101098 10.0172 0)
(0.00874696 10.0155 0)
(0.00762166 10.014 0)
(0.00669682 10.0128 0)
(0.00593358 10.0118 0)
(0.00530095 10.0109 0)
(0.00477424 10.0102 0)
(0.00433371 10.0096 0)
(0.00396356 10.0091 0)
(0.00365113 10.0086 0)
(0.00338624 10.0082 0)
(0.00316081 10.0079 0)
(0.00296841 10.0076 0)
(0.00280287 10.0073 0)
(0.00265441 10.0071 0)
(-0.00293783 7.07938 0)
(0.0303707 8.97493 0)
(0.0200645 9.80154 0)
(0.0421961 10.0335 0)
(0.0347637 10.0727 0)
(0.0358416 10.0766 0)
(0.0351417 10.0744 0)
(0.0339284 10.0712 0)
(0.0325901 10.0678 0)
(0.0310539 10.0644 0)
(0.0292851 10.0607 0)
(0.0272606 10.0568 0)
(0.0249528 10.0525 0)
(0.0223429 10.0478 0)
(0.0197127 10.0432 0)
(0.017268 10.0391 0)
(0.0149623 10.0354 0)
(0.0128091 10.032 0)
(0.0108164 10.0289 0)
(0.00898845 10.026 0)
(0.00732743 10.0234 0)
(0.00589778 10.0211 0)
(0.00473342 10.0191 0)
(0.00379194 10.0175 0)
(0.00302915 10.016 0)
(0.00240958 10.0148 0)
(0.00190486 10.0138 0)
(0.00149235 10.0129 0)
(0.00115401 10.0122 0)
(0.000875481 10.0115 0)
(0.000645311 10.0109 0)
(0.000454537 10.0104 0)
(0.000296249 10.01 0)
(0.000163864 10.0096 0)
(4.18666e-05 10.0093 0)
(0.00797943 6.89067 0)
(0.0126498 8.71854 0)
(0.0253914 9.65174 0)
(0.0340136 9.99114 0)
(0.0324444 10.068 0)
(0.0333378 10.0825 0)
(0.0324136 10.0836 0)
(0.0312338 10.0814 0)
(0.0298203 10.0784 0)
(0.0281478 10.075 0)
(0.0262155 10.0714 0)
(0.0240043 10.0674 0)
(0.0214871 10.063 0)
(0.0186436 10.0581 0)
(0.0157715 10.0531 0)
(0.0130959 10.0485 0)
(0.0105722 10.0442 0)
(0.00822187 10.0402 0)
(0.00605945 10.0364 0)
(0.00409472 10.0329 0)
(0.00233414 10.0296 0)
(0.000847274 10.0266 0)
(-0.000335542 10.024 0)
(-0.00126556 10.0218 0)
(-0.00199482 10.0199 0)
(-0.00256525 10.0183 0)
(-0.00301036 10.0169 0)
(-0.00335681 10.0157 0)
(-0.00362571 10.0146 0)
(-0.00383375 10.0137 0)
(-0.00399409 10.0129 0)
(-0.00411687 10.0122 0)
(-0.00420959 10.0116 0)
(-0.00427899 10.0111 0)
(-0.00434871 10.0106 0)
(0.00559185 6.75747 0)
(0.00879802 8.51378 0)
(0.0229924 9.50607 0)
(0.0287056 9.93994 0)
(0.0300642 10.0583 0)
(0.0303879 10.0864 0)
(0.0294651 10.0923 0)
(0.0281927 10.0919 0)
(0.0265545 10.0895 0)
(0.0245964 10.0863 0)
(0.0223291 10.0827 0)
(0.0197364 10.0787 0)
(0.0167956 10.0741 0)
(0.0134915 10.0689 0)
(0.0101688 10.0636 0)
(0.00708492 10.0585 0)
(0.00419108 10.0535 0)
(0.00151508 10.0488 0)
(-0.000921828 10.0442 0)
(-0.00310417 10.0399 0)
(-0.005021 10.0357 0)
(-0.00659615 10.0319 0)
(-0.00780626 10.0286 0)
(-0.00871726 10.0258 0)
(-0.00939402 10.0233 0)
(-0.00988863 10.0211 0)
(-0.0102426 10.0193 0)
(-0.0104886 10.0177 0)
(-0.0106526 10.0162 0)
(-0.0107544 10.015 0)
(-0.0108099 10.0139 0)
(-0.0108309 10.013 0)
(-0.0108257 10.0122 0)
(-0.0108011 10.0114 0)
(-0.010792 10.0108 0)
(0.0029958 6.66122 0)
(0.00736595 8.35495 0)
(0.0189517 9.3719 0)
(0.0248413 9.88498 0)
(0.0271752 10.0464 0)
(0.0271643 10.09 0)
(0.0261883 10.1016 0)
(0.0246605 10.1035 0)
(0.0226598 10.1021 0)
(0.0202613 10.0992 0)
(0.0174787 10.0957 0)
(0.0143014 10.0915 0)
(0.0107131 10.0867 0)
(0.0067072 10.0811 0)
(0.00270468 10.0752 0)
(-0.000988527 10.0695 0)
(-0.00443092 10.0637 0)
(-0.00758735 10.0581 0)
(-0.0104289 10.0526 0)
(-0.0129335 10.0473 0)
(-0.0150845 10.0421 0)
(-0.0167966 10.0372 0)
(-0.0180563 10.033 0)
(-0.0189506 10.0293 0)
(-0.0195625 10.0261 0)
(-0.0199588 10.0233 0)
(-0.0201921 10.0208 0)
(-0.0203039 10.0187 0)
(-0.0203264 10.0168 0)
(-0.0202847 10.0152 0)
(-0.0201979 10.0137 0)
(-0.0200806 10.0124 0)
(-0.0199422 10.0113 0)
(-0.0197891 10.0103 0)
(-0.0196724 10.0094 0)
(0.00162224 6.59169 0)
(0.00601456 8.2338 0)
(0.0151083 9.25422 0)
(0.0213161 9.82981 0)
(0.023804 10.0342 0)
(0.0236001 10.0944 0)
(0.0223923 10.1125 0)
(0.0204561 10.1172 0)
(0.0179435 10.1169 0)
(0.0149307 10.1144 0)
(0.0114344 10.1109 0)
(0.00744874 10.1066 0)
(0.00296304 10.1015 0)
(-0.00201829 10.0953 0)
(-0.00696493 10.0887 0)
(-0.0115023 10.0821 0)
(-0.0157035 10.0754 0)
(-0.0195247 10.0686 0)
(-0.0229278 10.0619 0)
(-0.0258826 10.0553 0)
(-0.0283655 10.0488 0)
(-0.0302779 10.0427 0)
(-0.0316192 10.0372 0)
(-0.0325046 10.0325 0)
(-0.0330417 10.0283 0)
(-0.0333168 10.0246 0)
(-0.0333978 10.0214 0)
(-0.0333378 10.0186 0)
(-0.0331781 10.0161 0)
(-0.0329502 10.0139 0)
(-0.0326784 10.012 0)
(-0.0323805 10.0103 0)
(-0.0320678 10.0088 0)
(-0.0317461 10.0075 0)
(-0.0314888 10.0063 0)
(0.000889067 6.54165 0)
(0.00454579 8.14309 0)
(0.0116591 9.15707 0)
(0.0176497 9.77788 0)
(0.0199929 10.0233 0)
(0.0195459 10.1009 0)
(0.0179098 10.1259 0)
(0.0154041 10.1336 0)
(0.0122029 10.1346 0)
(0.00837565 10.1326 0)
(0.00393972 10.1292 0)
(-0.00110925 10.1246 0)
(-0.0067777 10.119 0)
(-0.0130488 10.1121 0)
(-0.0192466 10.1046 0)
(-0.024904 10.0969 0)
(-0.0301136 10.0889 0)
(-0.0348205 10.0808 0)
(-0.0389752 10.0726 0)
(-0.0425371 10.0643 0)
(-0.0454736 10.0561 0)
(-0.047668 10.0484 0)
(-0.0491345 10.0414 0)
(-0.0500254 10.0353 0)
(-0.0504802 10.0299 0)
(-0.0506106 10.0251 0)
(-0.0505047 10.0209 0)
(-0.0502311 10.0172 0)
(-0.0498426 10.014 0)
(-0.0493798 10.0111 0)
(-0.0488734 10.0086 0)
(-0.048346 10.0064 0)
(-0.0478111 10.0044 0)
(-0.0472738 10.0027 0)
(-0.046838 10.0011 0)
(0.000314367 6.51007 0)
(0.00298299 8.07728 0)
(0.00841072 9.08059 0)
(0.0137109 9.73218 0)
(0.0157192 10.0154 0)
(0.0148527 10.1106 0)
(0.0125929 10.1428 0)
(0.0093309 10.1536 0)
(0.00523218 10.156 0)
(0.000357555 10.1546 0)
(-0.00527948 10.1511 0)
(-0.0116858 10.1461 0)
(-0.0188658 10.1399 0)
(-0.0267895 10.1321 0)
(-0.0345947 10.1234 0)
(-0.0416945 10.1143 0)
(-0.0482066 10.1048 0)
(-0.0540616 10.0949 0)
(-0.0591959 10.0848 0)
(-0.0635554 10.0746 0)
(-0.0670958 10.0643 0)
(-0.0696752 10.0545 0)
(-0.0713255 10.0456 0)
(-0.072245 10.0378 0)
(-0.0726142 10.0308 0)
(-0.0725772 10.0247 0)
(-0.0722479 10.0193 0)
(-0.0717146 10.0145 0)
(-0.0710457 10.0103 0)
(-0.0702929 10.0066 0)
(-0.0694957 10.0033 0)
(-0.0686827 10.0004 0)
(-0.0678706 9.99781 0)
(-0.0670632 9.99552 0)
(-0.0664059 9.99348 0)
(-0.000209381 6.49555 0)
(0.00138918 8.03277 0)
(0.00523774 9.02424 0)
(0.00947979 9.69551 0)
(0.0109173 10.0122 0)
(0.00941036 10.1246 0)
(0.0063237 10.164 0)
(0.00208539 10.178 0)
(-0.00315513 10.1818 0)
(-0.00934776 10.1809 0)
(-0.0164887 10.1774 0)
(-0.0245921 10.172 0)
(-0.0336629 10.1649 0)
(-0.0436576 10.156 0)
(-0.0534826 10.1458 0)
(-0.0623998 10.135 0)
(-0.0705586 10.1236 0)
(-0.0778716 10.1116 0)
(-0.0842568 10.0992 0)
(-0.0896435 10.0865 0)
(-0.093972 10.0736 0)
(-0.0970667 10.0613 0)
(-0.0989785 10.0501 0)
(-0.0999627 10.0401 0)
(-0.10025 10.0312 0)
(-0.100027 10.0233 0)
(-0.0994374 10.0164 0)
(-0.0985964 10.0102 0)
(-0.097591 10.0048 0)
(-0.0964878 10 0)
(-0.0953373 9.99575 0)
(-0.0941763 9.99199 0)
(-0.0930248 9.98865 0)
(-0.0918856 9.98568 0)
(-0.0909592 9.98304 0)
(-0.000662025 6.49518 0)
(-0.000180175 8.00846 0)
(0.00203324 8.98743 0)
(0.00492805 9.66998 0)
(0.00551099 10.0152 0)
(0.00312653 10.1442 0)
(-0.00101464 10.1906 0)
(-0.00648033 10.2078 0)
(-0.0131382 10.213 0)
(-0.0209551 10.2125 0)
(-0.0299434 10.2088 0)
(-0.0401289 10.2029 0)
(-0.051521 10.1948 0)
(-0.0640631 10.1844 0)
(-0.0763794 10.1724 0)
(-0.0875456 10.1596 0)
(-0.0977503 10.1458 0)
(-0.106884 10.1313 0)
(-0.114841 10.1161 0)
(-0.121531 10.1004 0)
(-0.126874 10.0844 0)
(-0.130648 10.0689 0)
(-0.132925 10.0548 0)
(-0.134028 10.0422 0)
(-0.134251 10.031 0)
(-0.133828 10.021 0)
(-0.132946 10.0122 0)
(-0.131749 10.0043 0)
(-0.130349 9.99737 0)
(-0.128832 9.99122 0)
(-0.127261 9.98578 0)
(-0.125683 9.98095 0)
(-0.124124 9.97667 0)
(-0.122585 9.97285 0)
(-0.121338 9.96946 0)
(-0.00111403 6.50659 0)
(-0.00180905 8.00344 0)
(-0.00132509 8.96981 0)
(-1.69227e-05 9.65738 0)
(-0.000588051 10.0258 0)
(-0.00410598 10.1702 0)
(-0.00955425 10.2235 0)
(-0.0165199 10.2436 0)
(-0.024896 10.2501 0)
(-0.0346727 10.25 0)
(-0.0458856 10.2461 0)
(-0.0585789 10.2394 0)
(-0.0727694 10.2302 0)
(-0.0883909 10.2181 0)
(-0.103728 10.2039 0)
(-0.117632 10.1886 0)
(-0.13034 10.1721 0)
(-0.141713 10.1545 0)
(-0.151619 10.1359 0)
(-0.159941 10.1167 0)
(-0.166571 10.097 0)
(-0.171232 10.0777 0)
(-0.174011 10.0602 0)
(-0.175313 10.0444 0)
(-0.175505 10.0303 0)
(-0.174884 10.0177 0)
(-0.173684 10.0066 0)
(-0.172088 9.99666 0)
(-0.170238 9.98788 0)
(-0.168242 9.98008 0)
(-0.166181 9.97317 0)
(-0.164115 9.96704 0)
(-0.162076 9.96159 0)
(-0.160063 9.95674 0)
(-0.158443 9.95242 0)
(-0.00164758 6.53038 0)
(-0.0036029 8.01633 0)
(-0.00492329 8.9707 0)
(-0.00541698 9.65866 0)
(-0.00744586 10.0455 0)
(-0.0123732 10.2038 0)
(-0.0193998 10.2634 0)
(-0.0281561 10.2863 0)
(-0.0385715 10.2939 0)
(-0.05067 10.2941 0)
(-0.0645154 10.2898 0)
(-0.0801769 10.2823 0)
(-0.0976877 10.2717 0)
(-0.116971 10.2576 0)
(-0.135917 10.2408 0)
(-0.153106 10.2227 0)
(-0.168833 10.203 0)
(-0.182927 10.1818 0)
(-0.195222 10.1593 0)
(-0.205565 10.1359 0)
(-0.213818 10.1117 0)
(-0.219624 10.0881 0)
(-0.223085 10.0664 0)
(-0.2247 10.0468 0)
(-0.224924 10.0293 0)
(-0.224126 10.0136 0)
(-0.222598 9.99968 0)
(-0.22057 9.98727 0)
(-0.21822 9.97625 0)
(-0.215683 9.96647 0)
(-0.213064 9.95778 0)
(-0.210439 9.95006 0)
(-0.207844 9.94319 0)
(-0.205281 9.93708 0)
(-0.203236 9.93163 0)
(-0.00226496 6.56695 0)
(-0.0056007 8.0458 0)
(-0.00879808 8.98944 0)
(-0.0113068 9.67472 0)
(-0.0150927 10.0753 0)
(-0.0217154 10.2457 0)
(-0.0306051 10.3111 0)
(-0.041457 10.3365 0)
(-0.0542514 10.3451 0)
(-0.0690545 10.3454 0)
(-0.0859671 10.3407 0)
(-0.10509 10.3321 0)
(-0.126479 10.3199 0)
(-0.150058 10.3035 0)
(-0.173258 10.2839 0)
(-0.194339 10.2625 0)
(-0.213664 10.2391 0)
(-0.231024 10.2137 0)
(-0.246208 10.1868 0)
(-0.259027 10.1585 0)
(-0.269302 10.1291 0)
(-0.276575 10.1003 0)
(-0.280951 10.0738 0)
(-0.283038 10.0498 0)
(-0.283393 10.0282 0)
(-0.282468 10.0088 0)
(-0.280626 9.99156 0)
(-0.278151 9.97618 0)
(-0.275264 9.96249 0)
(-0.272136 9.95031 0)
(-0.268897 9.93949 0)
(-0.265644 9.92987 0)
(-0.262422 9.9213 0)
(-0.259233 9.91366 0)
(-0.256716 9.90687 0)
(-0.00296015 6.61658 0)
(-0.00780142 8.09138 0)
(-0.0129803 9.02524 0)
(-0.0176963 9.70574 0)
(-0.0235319 10.116 0)
(-0.0321356 10.2966 0)
(-0.0431785 10.3671 0)
(-0.0564395 10.3947 0)
(-0.0719643 10.4042 0)
(-0.0898702 10.4045 0)
(-0.110303 10.3992 0)
(-0.133405 10.3894 0)
(-0.159268 10.3754 0)
(-0.187819 10.3564 0)
(-0.215957 10.3336 0)
(-0.241582 10.3085 0)
(-0.265142 10.2809 0)
(-0.286376 10.2509 0)
(-0.305026 10.2189 0)
(-0.320852 10.185 0)
(-0.333624 10.1497 0)
(-0.34276 10.1149 0)
(-0.348352 10.0828 0)
(-0.351127 10.0536 0)
(-0.35176 10.0272 0)
(-0.350801 10.0036 0)
(-0.34869 9.98242 0)
(-0.345779 9.96352 0)
(-0.342341 9.94668 0)
(-0.338587 9.93167 0)
(-0.33468 9.91832 0)
(-0.330741 9.90642 0)
(-0.326825 9.89583 0)
(-0.32294 9.88639 0)
(-0.319912 9.87798 0)
(-0.00372036 6.67917 0)
(-0.0101813 8.1522 0)
(-0.0174651 9.07756 0)
(-0.0245741 9.75191 0)
(-0.032734 10.1682 0)
(-0.0436029 10.3571 0)
(-0.0570861 10.4319 0)
(-0.0730733 10.4614 0)
(-0.0916842 10.4715 0)
(-0.113095 10.4717 0)
(-0.13751 10.4657 0)
(-0.165127 10.4546 0)
(-0.196072 10.4387 0)
(-0.230289 10.4169 0)
(-0.264096 10.3904 0)
(-0.294971 10.3614 0)
(-0.323457 10.3291 0)
(-0.349241 10.2939 0)
(-0.372006 10.2561 0)
(-0.391453 10.216 0)
(-0.407289 10.174 0)
(-0.41877 10.1324 0)
(-0.425958 10.0939 0)
(-0.42971 10.0587 0)
(-0.430831 10.0269 0)
(-0.42998 9.99825 0)
(-0.427692 9.97255 0)
(-0.424395 9.94955 0)
(-0.420421 9.92901 0)
(-0.416032 9.91069 0)
(-0.41143 9.89435 0)
(-0.406763 9.87979 0)
(-0.4021 9.86681 0)
(-0.397458 9.85522 0)
(-0.393898 9.84491 0)
(-0.00453279 6.7543 0)
(-0.0127303 8.22778 0)
(-0.0222455 9.1456 0)
(-0.0319153 9.81295 0)
(-0.0426467 10.2324 0)
(-0.0560506 10.4275 0)
(-0.0722557 10.5058 0)
(-0.0912767 10.5368 0)
(-0.113318 10.5473 0)
(-0.138636 10.5473 0)
(-0.167496 10.5405 0)
(-0.200151 10.5281 0)
(-0.236789 10.5099 0)
(-0.277395 10.4851 0)
(-0.317631 10.4549 0)
(-0.354501 10.4214 0)
(-0.388658 10.3841 0)
(-0.419728 10.3433 0)
(-0.447329 10.2991 0)
(-0.471093 10.2521 0)
(-0.490649 10.2027 0)
(-0.505054 10.1535 0)
(-0.514311 10.1077 0)
(-0.519412 10.0657 0)
(-0.521305 10.0277 0)
(-0.520775 9.9933 0)
(-0.518462 9.96238 0)
(-0.514877 9.93465 0)
(-0.510427 9.90983 0)
(-0.505431 9.88765 0)
(-0.500135 9.86784 0)
(-0.494725 9.85016 0)
(-0.489282 9.83438 0)
(-0.483841 9.82029 0)
(-0.479749 9.80774 0)
(-0.00538929 6.84152 0)
(-0.0154306 8.3173 0)
(-0.0273073 9.22864 0)
(-0.0396803 9.8884 0)
(-0.0531955 10.3083 0)
(-0.0693796 10.5078 0)
(-0.088566 10.5888 0)
(-0.110914 10.621 0)
(-0.136725 10.6318 0)
(-0.166327 10.6314 0)
(-0.200068 10.6237 0)
(-0.23828 10.6098 0)
(-0.281225 10.5895 0)
(-0.328941 10.5615 0)
(-0.376377 10.5272 0)
(-0.42001 10.4891 0)
(-0.460621 10.4465 0)
(-0.49777 10.3995 0)
(-0.530997 10.3485 0)
(-0.559857 10.294 0)
(-0.58389 10.2363 0)
(-0.601906 10.1787 0)
(-0.613806 10.1248 0)
(-0.620727 10.0753 0)
(-0.623768 10.0302 0)
(-0.623852 9.98933 0)
(-0.621734 9.95247 0)
(-0.618025 9.91933 0)
(-0.613214 9.8896 0)
(-0.607685 9.86298 0)
(-0.60174 9.83917 0)
(-0.595606 9.81789 0)
(-0.589379 9.79886 0)
(-0.583122 9.78186 0)
(-0.57853 9.76671 0)
(-0.00627173 6.94014 0)
(-0.0182639 8.42003 0)
(-0.0325974 9.32571 0)
(-0.0478054 9.97746 0)
(-0.0642709 10.3958 0)
(-0.0834616 10.5979 0)
(-0.105869 10.6809 0)
(-0.131812 10.7138 0)
(-0.161689 10.7248 0)
(-0.195929 10.724 0)
(-0.234969 10.7154 0)
(-0.279233 10.7 0)
(-0.329076 10.6774 0)
(-0.3846 10.6462 0)
(-0.440002 10.6077 0)
(-0.491179 10.5648 0)
(-0.539056 10.5165 0)
(-0.583119 10.463 0)
(-0.622829 10.4048 0)
(-0.657649 10.3422 0)
(-0.687016 10.2757 0)
(-0.709441 10.2088 0)
(-0.724675 10.1461 0)
(-0.733995 10.0882 0)
(-0.738665 10.0352 0)
(-0.739751 9.98709 0)
(-0.738138 9.94354 0)
(-0.734548 9.90428 0)
(-0.729559 9.86898 0)
(-0.723631 9.83729 0)
(-0.717135 9.8089 0)
(-0.710343 9.78348 0)
(-0.703365 9.76072 0)
(-0.696313 9.74037 0)
(-0.691294 9.72222 0)
(-0.00716404 7.04926 0)
(-0.0211935 8.53499 0)
(-0.0380646 9.43566 0)
(-0.0561982 10.0793 0)
(-0.0757642 10.4943 0)
(-0.0981404 10.6975 0)
(-0.123973 10.7817 0)
(-0.153742 10.8152 0)
(-0.187957 10.8261 0)
(-0.227156 10.8249 0)
(-0.271876 10.8153 0)
(-0.322643 10.7984 0)
(-0.379924 10.7737 0)
(-0.443926 10.7392 0)
(-0.508039 10.6965 0)
(-0.567535 10.6486 0)
(-0.623502 10.5945 0)
(-0.675351 10.5344 0)
(-0.722452 10.4685 0)
(-0.764174 10.3974 0)
(-0.799834 10.3214 0)
(-0.827583 10.2447 0)
(-0.846965 10.1723 0)
(-0.859386 10.1052 0)
(-0.86628 10.0436 0)
(-0.868867 9.98744 0)
(-0.86817 9.93644 0)
(-0.86503 9.89032 0)
(-0.86013 9.84875 0)
(-0.854016 9.81135 0)
(-0.847131 9.77777 0)
(-0.839804 9.74764 0)
(-0.832162 9.72064 0)
(-0.82438 9.69645 0)
(-0.819061 9.67487 0)
(-0.00805566 7.16786 0)
(-0.024178 8.66101 0)
(-0.0436589 9.55735 0)
(-0.0647639 10.1927 0)
(-0.0875454 10.6031 0)
(-0.113243 10.8061 0)
(-0.142665 10.8908 0)
(-0.176456 10.9245 0)
(-0.21524 10.9353 0)
(-0.259672 10.9336 0)
(-0.310397 10.9232 0)
(-0.368062 10.9049 0)
(-0.433273 10.8779 0)
(-0.506365 10.8403 0)
(-0.579894 10.7935 0)
(-0.648463 10.7407 0)
(-0.713342 10.6808 0)
(-0.773862 10.6138 0)
(-0.829308 10.5401 0)
(-0.87894 10.4601 0)
(-0.921944 10.3742 0)
(-0.956048 10.287 0)
(-0.980513 10.2043 0)
(-0.996866 10.1273 0)
(-1.00671 10.0564 0)
(-1.01141 9.99137 0)
(-1.01216 9.93216 0)
(-1.00991 9.87846 0)
(-1.00546 9.8299 0)
(-0.999458 9.78612 0)
(-0.992427 9.74671 0)
(-0.984762 9.71129 0)
(-0.9766 9.67948 0)
(-0.968213 9.65096 0)
(-0.962782 9.62548 0)
(-0.00893587 7.29481 0)
(-0.0271822 8.79681 0)
(-0.0493111 9.68952 0)
(-0.0734185 10.3165 0)
(-0.0994684 10.7212 0)
(-0.128587 10.9228 0)
(-0.161724 11.0075 0)
(-0.199686 11.0412 0)
(-0.24322 11.0518 0)
(-0.293098 11.0497 0)
(-0.350093 11.0385 0)
(-0.414992 11.0189 0)
(-0.488552 10.9899 0)
(-0.571279 10.9493 0)
(-0.654872 10.8985 0)
(-0.733226 10.841 0)
(-0.807811 10.7753 0)
(-0.877892 10.7015 0)
(-0.942661 10.62 0)
(-1.00126 10.5309 0)
(-1.05275 10.4348 0)
(-1.09435 10.3367 0)
(-1.12496 10.2431 0)
(-1.1462 10.1556 0)
(-1.15984 10.0745 0)
(-1.16742 9.99999 0)
(-1.17026 9.93183 0)
(-1.16945 9.86981 0)
(-1.16593 9.81356 0)
(-1.16044 9.76271 0)
(-1.1536 9.71683 0)
(-1.14587 9.6755 0)
(-1.13741 9.63832 0)
(-1.12861 9.60494 0)
(-1.12333 9.57506 0)
(-0.00979397 7.42885 0)
(-0.0301717 8.94104 0)
(-0.0549473 9.83075 0)
(-0.082059 10.4493 0)
(-0.111393 10.8477 0)
(-0.143988 11.0469 0)
(-0.180916 11.1311 0)
(-0.22315 11.1646 0)
(-0.271558 11.175 0)
(-0.327039 11.1725 0)
(-0.390504 11.1606 0)
(-0.462893 11.1399 0)
(-0.545143 11.1092 0)
(-0.637964 11.0658 0)
(-0.732194 11.0113 0)
(-0.82098 10.9493 0)
(-0.906026 10.878 0)
(-0.98654 10.7977 0)
(-1.06161 10.7083 0)
(-1.13028 10.6102 0)
(-1.19145 10.5037 0)
(-1.24178 10.3944 0)
(-1.27972 10.2895 0)
(-1.30695 10.1909 0)
(-1.32538 10.0992 0)
(-1.33671 10.0145 0)
(-1.34241 9.93669 0)
(-1.34374 9.86565 0)
(-1.34174 9.80104 0)
(-1.33726 9.74244 0)
(-1.33105 9.68944 0)
(-1.32363 9.64159 0)
(-1.31518 9.59846 0)
(-1.30624 9.55967 0)
(-1.30146 9.52489 0)
(-0.0106175 7.56872 0)
(-0.0331113 9.09229 0)
(-0.0605008 9.97956 0)
(-0.090583 10.5899 0)
(-0.123184 10.9812 0)
(-0.159264 11.1774 0)
(-0.200014 11.2607 0)
(-0.246569 11.2939 0)
(-0.299916 11.3041 0)
(-0.361092 11.3013 0)
(-0.431155 11.2888 0)
(-0.511211 11.2671 0)
(-0.602401 11.235 0)
(-0.705682 11.1893 0)
(-0.811024 11.1315 0)
(-0.910809 11.0653 0)
(-1.00702 10.9889 0)
(-1.09879 10.9023 0)
(-1.18514 10.8054 0)
(-1.26499 10.6984 0)
(-1.33709 10.5816 0)
(-1.39748 10.4609 0)
(-1.44403 10.3445 0)
(-1.47845 10.2345 0)
(-1.5028 10.1315 0)
(-1.51891 10.036 0)
(-1.5284 9.94803 0)
(-1.53267 9.86734 0)
(-1.53291 9.7937 0)
(-1.53008 9.72672 0)
(-1.52505 9.66597 0)
(-1.51842 9.611 0)
(-1.51037 9.56134 0)
(-1.50165 9.5166 0)
(-1.49781 9.47641 0)
(-0.0113978 7.71309 0)
(-0.0359672 9.24912 0)
(-0.0659111 10.1345 0)
(-0.0988965 10.7367 0)
(-0.134711 11.1205 0)
(-0.174239 11.3132 0)
(-0.218796 11.3953 0)
(-0.269672 11.4281 0)
(-0.327968 11.4382 0)
(-0.394864 11.4351 0)
(-0.471578 11.4223 0)
(-0.559392 11.4 0)
(-0.659681 11.3666 0)
(-0.773678 11.319 0)
(-0.890493 11.2584 0)
(-1.00176 11.1885 0)
(-1.10975 11.1075 0)
(-1.21355 11.0151 0)
(-1.3121 10.9111 0)
(-1.40424 10.7957 0)
(-1.48856 10.6688 0)
(-1.5604 10.5369 0)
(-1.61694 10.4088 0)
(-1.65989 10.2871 0)
(-1.6914 10.1727 0)
(-1.71344 10.066 0)
(-1.72778 9.96721 0)
(-1.73595 9.87633 0)
(-1.73927 9.79308 0)
(-1.73886 9.71713 0)
(-1.73567 9.64805 0)
(-1.73043 9.58537 0)
(-1.72328 9.52863 0)
(-1.71526 9.47741 0)
(-1.7129 9.43128 0)
(-0.0121226 7.86062 0)
(-0.0387046 9.41005 0)
(-0.071117 10.294 0)
(-0.106909 10.8883 0)
(-0.14585 11.2645 0)
(-0.188753 11.4531 0)
(-0.23706 11.5339 0)
(-0.292206 11.5663 0)
(-0.355406 11.5762 0)
(-0.427989 11.5732 0)
(-0.511331 11.5602 0)
(-0.60691 11.5374 0)
(-0.716354 11.5033 0)
(-0.841204 11.4542 0)
(-0.969738 11.3914 0)
(-1.09287 11.3185 0)
(-1.21317 11.2335 0)
(-1.32968 11.1359 0)
(-1.44131 11.0255 0)
(-1.5468 10.9021 0)
(-1.64463 10.7657 0)
(-1.72934 10.6228 0)
(-1.79735 10.4833 0)
(-1.85026 10.3498 0)
(-1.89032 10.2237 0)
(-1.9196 10.1055 0)
(-1.94 9.99559 0)
(-1.95318 9.89404 0)
(-1.96061 9.80068 0)
(-1.96351 9.71523 0)
(-1.963 9.63729 0)
(-1.95987 9.5664 0)
(-1.95428 9.50207 0)
(-1.94753 9.44389 0)
(-1.94735 9.39136 0)
(-0.0127957 8.01014 0)
(-0.0413079 9.5738 0)
(-0.0760784 10.4568 0)
(-0.114556 11.0434 0)
(-0.156502 11.4119 0)
(-0.202671 11.5963 0)
(-0.254632 11.6755 0)
(-0.313949 11.7076 0)
(-0.381954 11.7175 0)
(-0.460125 11.7145 0)
(-0.55 11.7015 0)
(-0.65327 11.6787 0)
(-0.771829 11.6442 0)
(-0.907542 11.5942 0)
(-1.04794 11.5297 0)
(-1.18321 11.4546 0)
(-1.31621 11.3663 0)
(-1.44602 11.2644 0)
(-1.57153 11.1484 0)
(-1.69141 11.0178 0)
(-1.80402 10.8725 0)
(-1.90309 10.7193 0)
(-1.98412 10.5686 0)
(-2.04858 10.4236 0)
(-2.09871 10.2858 0)
(-2.13669 10.156 0)
(-2.16452 10.0347 0)
(-2.184 9.92214 0)
(-2.19674 9.81831 0)
(-2.20411 9.72296 0)
(-2.20733 9.63573 0)
(-2.20729 9.55616 0)
(-2.20413 9.48379 0)
(-2.19947 9.41821 0)
(-2.20244 9.3588 0)
(-0.0133767 8.16026 0)
(-0.0437057 9.73877 0)
(-0.0807132 10.6213 0)
(-0.121741 11.2005 0)
(-0.166558 11.5612 0)
(-0.215859 11.7413 0)
(-0.271347 11.819 0)
(-0.334701 11.8506 0)
(-0.407367 11.8606 0)
(-0.490974 11.8578 0)
(-0.587222 11.8452 0)
(-0.698032 11.8227 0)
(-0.825557 11.7882 0)
(-0.97202 11.7379 0)
(-1.1243 11.6725 0)
(-1.27184 11.5958 0)
(-1.41783 11.5051 0)
(-1.56143 11.3998 0)
(-1.70151 11.2791 0)
(-1.83673 11.1424 0)
(-1.96537 10.989 0)
(-2.08031 10.8263 0)
(-2.17597 10.6651 0)
(-2.25362 10.5089 0)
(-2.31554 10.3596 0)
(-2.36397 10.2182 0)
(-2.40103 10.0856 0)
(-2.42863 9.96205 0)
(-2.44843 9.84767 0)
(-2.4619 9.74228 0)
(-2.47035 9.64558 0)
(-2.47475 9.55714 0)
(-2.47518 9.47651 0)
(-2.47362 9.4033 0)
(-2.48084 9.3367 0)
(0.00117894 10.0001 0)
(0.00110657 10.0001 0)
(0.00103686 10.0001 0)
(0.000969138 10.0001 -7.82559e-19)
(0.000903508 10.0001 0)
(0.00084001 10.0001 0)
(0.000778653 10.0001 0)
(0.000719432 10.0001 0)
(0.00066233 10.0001 8.86769e-19)
(0.000607323 10.0001 0)
(0.000554389 10.0001 0)
(0.000503827 10 -9.35493e-19)
(0.000456665 10 0)
(0.00041335 10 -9.13151e-19)
(0.000373446 10 0)
(0.000336545 10 0)
(0.000302277 10 0)
(0.000270323 10 8.50867e-19)
(0.000240404 10 0)
(0.000212287 10 4.09774e-19)
(0.000185749 10 0)
(0.000160449 10 0)
(0.00304499 10.0017 0)
(0.00287075 10.0016 0)
(0.00270244 10.0015 0)
(0.00253802 10.0014 8.25617e-19)
(0.00237741 10.0013 0)
(0.00222076 10.0013 0)
(0.00206815 10.0012 -1.7799e-18)
(0.00191964 10.0011 0)
(0.00177522 10.001 -2.8047e-18)
(0.00163487 10.001 1.91567e-18)
(0.00149853 10.0009 1.95631e-18)
(0.00136707 10.0009 9.8607e-19)
(0.00124368 10.0008 0)
(0.00112993 10.0008 9.62831e-19)
(0.00102468 10.0007 0)
(0.000926901 10.0007 0)
(0.000835685 10.0007 0)
(0.000750234 10.0006 -2.69295e-18)
(0.000669841 10.0006 0)
(0.000593906 10.0006 -4.32445e-19)
(0.000522059 10.0006 0)
(0.000453936 10.0006 -8.76594e-19)
(0.00351736 10.0043 0)
(0.00331104 10.0041 0)
(0.00311253 10.0038 0)
(0.00291992 10.0036 0)
(0.00273288 10.0034 0)
(0.00255165 10.0032 1.82386e-18)
(0.00237635 10.0031 1.86965e-18)
(0.00220705 10.0029 0)
(0.00204374 10.0027 1.96249e-18)
(0.00188636 10.0025 -2.00992e-18)
(0.00173482 10.0024 -2.05173e-18)
(0.00158991 10.0022 0)
(0.00145476 10.0021 0)
(0.00133065 10.002 0)
(0.00121608 10.0019 1.98684e-18)
(0.00110977 10.0018 0)
(0.00101059 10.0017 0)
(0.000917556 10.0017 1.88619e-18)
(0.000829788 10.0016 0)
(0.000746502 10.0016 0)
(0.000667317 10.0015 0)
(0.000592836 10.0015 9.21777e-19)
(0.00250723 10.0068 0)
(0.00234106 10.0064 0)
(0.00218084 10.0061 0)
(0.00202901 10.0057 -1.82365e-18)
(0.00188498 10.0054 0)
(0.00174885 10.0051 1.91497e-18)
(0.00162069 10.0048 0)
(0.0015005 10.0045 0)
(0.0013882 10.0042 0)
(0.00128362 10.0039 0)
(0.00118647 10.0036 -4.30005e-18)
(0.00109702 10.0034 0)
(0.00101681 10.0032 0)
(0.000945908 10.003 0)
(0.000882621 10.0028 2.08408e-18)
(0.000825521 10.0027 4.09982e-18)
(0.000773406 10.0026 0)
(0.000725237 10.0025 0)
(0.000680108 10.0024 0)
(0.000637211 10.0023 0)
(0.000596094 10.0023 1.87527e-18)
(0.000557688 10.0022 0)
(-4.48937e-05 10.0088 -3.23923e-18)
(-0.000106038 10.0083 0)
(-0.000165464 10.0078 -3.73938e-18)
(-0.00021215 10.0073 1.91627e-18)
(-0.00024687 10.0068 0)
(-0.000269906 10.0064 -4.02211e-18)
(-0.000281325 10.0059 -4.11863e-18)
(-0.000281275 10.0055 -4.21685e-18)
(-0.000270041 10.0051 0)
(-0.000248039 10.0047 0)
(-0.000215837 10.0043 4.50502e-18)
(-0.000174478 10.004 0)
(-0.000126358 10.0037 0)
(-7.41667e-05 10.0034 0)
(-1.97252e-05 10.0032 -8.74221e-18)
(3.55371e-05 10.003 -4.30062e-18)
(9.04601e-05 10.0028 0)
(0.000144083 10.0027 -4.15788e-18)
(0.000195627 10.0026 0)
(0.000244407 10.0025 4.01337e-18)
(0.000289687 10.0024 -1.97032e-18)
(0.000332129 10.0024 0)
(-0.00433239 10.01 3.40526e-18)
(-0.00421392 10.0093 -3.83162e-18)
(-0.0041022 10.0086 7.85226e-18)
(-0.00397125 10.0079 4.02204e-18)
(-0.003822 10.0073 0)
(-0.00365536 10.0067 0)
(-0.00347171 10.0061 4.31794e-18)
(-0.00327144 10.0055 4.41908e-18)
(-0.00305517 10.005 0)
(-0.0028237 10.0044 0)
(-0.00257809 10.004 0)
(-0.00232147 10.0035 0)
(-0.00206261 10.0031 0)
(-0.00180865 10.0028 4.65123e-18)
(-0.00156148 10.0025 4.57962e-18)
(-0.00132244 10.0023 -4.50843e-18)
(-0.00109255 10.0021 0)
(-0.000872597 10.0019 4.36159e-18)
(-0.000663068 10.0018 0)
(-0.000464353 10.0017 6.78072e-22)
(-0.00027787 10.0017 4.13904e-18)
(-0.000104686 10.0016 -4.27598e-18)
(-0.0106251 10.01 -3.57838e-18)
(-0.0102389 10.0091 4.02236e-18)
(-0.009874 10.0082 -4.12006e-18)
(-0.00948078 10.0073 7.33839e-22)
(-0.00906027 10.0064 4.32052e-18)
(-0.00861444 10.0056 0)
(-0.00814413 10.0049 0)
(-0.00765014 10.0041 0)
(-0.0071336 10.0034 0)
(-0.00659591 10.0028 9.68094e-18)
(-0.00603883 10.0022 0)
(-0.00546858 10.0017 0)
(-0.00490316 10.0012 0)
(-0.00435616 10.0008 -4.86747e-18)
(-0.00382945 10.0005 0)
(-0.00332419 10.0002 9.44624e-18)
(-0.00284116 9.99999 0)
(-0.00238079 9.99982 0)
(-0.0019431 9.9997 0)
(-0.00152796 9.99962 -4.42094e-18)
(-0.00113798 9.99957 -4.34407e-18)
(-0.000778035 9.99955 4.48771e-18)
(-0.0192987 10.0084 3.75716e-18)
(-0.0185362 10.0072 0)
(-0.0178182 10.0061 0)
(-0.0170596 10.005 -8.84756e-18)
(-0.0162618 10.0039 1.88527e-21)
(-0.0154281 10.0029 -4.63347e-18)
(-0.0145603 10.0019 -9.47905e-18)
(-0.0136597 10.001 0)
(-0.0127282 10.0001 -9.9086e-18)
(-0.011768 9.99935 5.32207e-21)
(-0.010782 9.99863 -1.03136e-17)
(-0.00978059 9.99799 1.03845e-17)
(-0.00879454 9.99744 0)
(-0.00784619 9.99699 0)
(-0.00693728 9.99662 0)
(-0.00606865 9.99634 4.95022e-18)
(-0.00524063 9.99613 0)
(-0.00445315 9.99598 0)
(-0.00370546 9.99588 0)
(-0.00299658 9.99584 0)
(-0.00233102 9.99584 0)
(-0.00172016 9.99588 0)
(-0.0308395 10.005 0)
(-0.0295643 10.0035 0)
(-0.0283689 10.002 4.53181e-18)
(-0.0271172 10.0006 -2.98614e-21)
(-0.0258107 9.9993 4.7479e-18)
(-0.0244554 9.99803 1.45547e-17)
(-0.0230538 9.99683 9.91599e-18)
(-0.0216082 9.99571 0)
(-0.0201215 9.99467 1.03552e-17)
(-0.0185974 9.99372 -1.05763e-17)
(-0.0170399 9.99286 1.07673e-17)
(-0.0154653 9.99211 9.03004e-21)
(-0.0139212 9.99149 0)
(-0.0124415 9.99099 0)
(-0.0110276 9.99061 0)
(-0.00967978 9.99033 8.73669e-21)
(-0.00839772 9.99014 0)
(-0.00718052 9.99003 0)
(-0.00602634 9.98999 0)
(-0.0049329 9.99002 0)
(-0.00390737 9.9901 0)
(-0.00297115 9.99022 0)
(-0.0458291 9.9994 0)
(-0.043871 9.9975 4.63991e-18)
(-0.0420448 9.99568 -9.49162e-18)
(-0.0401421 9.99393 4.85256e-18)
(-0.0381654 9.99226 -9.92496e-18)
(-0.0361238 9.99069 1.037e-20)
(-0.0340214 9.98921 -1.03807e-17)
(-0.0318617 9.98785 0)
(-0.0296492 9.9866 0)
(-0.0273891 9.98547 0)
(-0.0250875 9.98447 0)
(-0.0227682 9.98362 -1.13126e-17)
(-0.0205007 9.98293 0)
(-0.0183338 9.9824 0)
(-0.0162682 9.98202 0)
(-0.0143034 9.98177 -1.0825e-17)
(-0.0124378 9.98163 0)
(-0.0106696 9.9816 -1.05254e-17)
(-0.00899513 9.98165 -1.03648e-17)
(-0.00741039 9.98178 5.10095e-18)
(-0.00592607 9.98198 0)