/*--------------------------------*- C++ -*----------------------------------*\
  =========                 |
  \\      /  F ield         | OpenFOAM: The Open Source CFD Toolbox
   \\    /   O peration     | Website:  https://openfoam.org
    \\  /    A nd           | Version:  8
     \\/     M anipulation  |
\*---------------------------------------------------------------------------*/
FoamFile
{
    version     2.0;
    format      ascii;
    class       volScalarField;
    location    "0.01";
    object      nut;
}
// * * * * * * * * * * * * * * * * * * * * * * * * * * * * * * * * * * * * * //

dimensions      [0 2 -1 0 0 0 0];

internalField   nonuniform List<scalar> 
15677
(
0.000168449
0.000652683
0.000148634
0.00151141
0.000441863
0.000140869
0.0026704
0.000875114
0.000379904
0.00014101
0.00391443
0.00151956
0.000683315
0.000351914
0.000142584
0.0050178
0.00235869
0.00113935
0.000580666
0.000338585
0.000145793
0.00583679
0.00332251
0.00176867
0.000936827
0.000529641
0.000332928
0.000148713
0.00633506
0.00430667
0.00254941
0.00144486
0.000824236
0.000503832
0.000331105
0.000150869
0.00656475
0.00519751
0.00342906
0.00210238
0.0012592
0.000765077
0.000491712
0.000331146
0.000152271
0.00666103
0.00590462
0.0043285
0.0028802
0.00183931
0.00115899
0.000735642
0.000486871
0.00033187
0.000153065
0.00670855
0.00634815
0.00515551
0.00372485
0.00254551
0.00169318
0.00110599
0.000721949
0.000485731
0.00033261
0.000153443
0.00671697
0.00656344
0.00582671
0.00456288
0.00333753
0.00235469
0.00161554
0.00108033
0.000717073
0.000486204
0.000333141
0.000153628
0.00671028
0.00667395
0.00628355
0.00531299
0.00415552
0.0031093
0.00225219
0.00157732
0.00107033
0.000716712
0.000487081
0.000333473
0.000153749
0.00670409
0.0067167
0.00652211
0.00590493
0.00492727
0.00390445
0.00298448
0.00220115
0.00156081
0.00106881
0.000717928
0.000487551
0.000333772
0.000153868
0.0067015
0.00672485
0.00664883
0.00630628
0.00558153
0.00467422
0.00376329
0.00292181
0.00217967
0.00155818
0.00107037
0.000718772
0.000488406
0.000334171
0.000153972
0.00670069
0.00672372
0.00670276
0.00651339
0.00606762
0.00534954
0.00452588
0.00369135
0.00289537
0.0021751
0.00156006
0.00107197
0.000720748
0.000489544
0.000334591
0.00015415
0.00670048
0.00672225
0.00671859
0.00661803
0.0063715
0.00587491
0.00520464
0.0044482
0.00366034
0.00288954
0.00217709
0.00156266
0.00107568
0.000723378
0.000490631
0.000334995
0.000154301
0.00670045
0.00672148
0.00672261
0.00665719
0.00651327
0.00622785
0.00574222
0.00512529
0.00441337
0.00365298
0.00289104
0.00218073
0.00156871
0.00108065
0.00072592
0.000491704
0.000335553
0.000154573
0.00670045
0.00672117
0.00672348
0.00667009
0.00656869
0.00642123
0.00611099
0.00566458
0.00508763
0.00440377
0.00365391
0.00289545
0.00218914
0.00157649
0.00108561
0.000728466
0.000493186
0.000336186
0.000154803
0.00670046
0.00672106
0.00672358
0.0066741
0.00658839
0.00649185
0.0063251
0.00603623
0.00562509
0.00507532
0.00440413
0.00365841
0.00290569
0.00219963
0.00158433
0.00109053
0.000731735
0.000494723
0.00033689
0.000155199
0.00670046
0.00672102
0.00672353
0.00667523
0.00659488
0.00651586
0.00641617
0.00625054
0.00599541
0.00561014
0.00507446
0.00440799
0.0036694
0.00291828
0.00221035
0.00159251
0.00109654
0.000735213
0.000496625
0.000337908
0.00015549
0.00670045
0.00672101
0.0067235
0.00667551
0.00659679
0.00652366
0.00644865
0.00634149
0.00620825
0.0059781
0.00560703
0.00507732
0.00441815
0.00368306
0.00293146
0.00222205
0.00160225
0.00110342
0.00073949
0.000498878
0.000338814
0.000156081
0.00670045
0.00672102
0.0067235
0.00667557
0.00659727
0.00652596
0.00645925
0.00637502
0.00629797
0.00618903
0.00597261
0.00560866
0.0050853
0.00443157
0.0036978
0.00294629
0.00223571
0.00161365
0.00111164
0.000744595
0.000501478
0.000340293
0.000156459
0.00670044
0.00672104
0.00672353
0.00667559
0.00659735
0.00652654
0.00646239
0.00638659
0.00633102
0.00627761
0.00618156
0.00597214
0.00561384
0.00509709
0.00444662
0.0037147
0.00296359
0.00225182
0.00162689
0.00112127
0.000750273
0.000504519
0.000341361
0.000157179
0.00670045
0.00672108
0.00672357
0.00667559
0.00659732
0.00652661
0.00646318
0.00639019
0.00634237
0.0063101
0.00626903
0.00617914
0.00597503
0.00562276
0.00511047
0.00446405
0.00373481
0.00298393
0.00227054
0.00164233
0.00113201
0.000756933
0.000507649
0.000343328
0.000157632
0.00670046
0.00672112
0.00672357
0.00667553
0.00659727
0.00652657
0.0064633
0.00639117
0.00634596
0.00632115
0.00630105
0.00626556
0.00618008
0.00598144
0.00563527
0.00512827
0.00448526
0.00375801
0.00300806
0.0022922
0.0016598
0.00114453
0.00076406
0.000511588
0.000344602
0.000158547
0.00670047
0.00672116
0.00672354
0.00667541
0.00659722
0.00652658
0.00646326
0.00639136
0.00634701
0.00632452
0.00631196
0.00629711
0.00626545
0.00618439
0.00599123
0.00565159
0.0051503
0.0045117
0.0037864
0.00303536
0.00231731
0.00167976
0.00115833
0.000772357
0.000515251
0.000347036
0.000159142
0.00670048
0.00672119
0.00672347
0.00667524
0.00659717
0.00652666
0.00646324
0.00639134
0.00634727
0.00632538
0.00631536
0.00630787
0.00629653
0.00626858
0.00619184
0.0060045
0.00567113
0.00517627
0.00454288
0.00382019
0.00306777
0.00234563
0.00170221
0.00117385
0.000780923
0.000520089
0.000348686
0.00016024
0.00670048
0.00672121
0.00672339
0.00667503
0.00659711
0.00652681
0.00646328
0.00639129
0.00634732
0.00632549
0.00631631
0.00631124
0.00630708
0.00629904
0.00627476
0.00620261
0.00602149
0.00569516
0.0052071
0.00457883
0.00385863
0.00310591
0.00237769
0.0017273
0.00119059
0.000791188
0.00052455
0.000351639
0.000160901
0.00670048
0.00672122
0.0067233
0.00667482
0.00659705
0.00652699
0.00646334
0.00639126
0.00634731
0.00632542
0.00631653
0.00631221
0.00631037
0.00630924
0.00630466
0.00628424
0.00621725
0.00604308
0.00572475
0.00524412
0.00462109
0.00390287
0.00314775
0.00241461
0.00175422
0.00120999
0.000801597
0.000530366
0.000353405
0.000162026
0.00670048
0.0067212
0.00672322
0.00667464
0.006597
0.00652719
0.00646338
0.00639122
0.00634731
0.00632537
0.00631657
0.00631247
0.00631129
0.00631228
0.00631465
0.00631363
0.00629767
0.00623658
0.00607033
0.0057608
0.00528814
0.00467023
0.00395309
0.00319488
0.00245475
0.0017855
0.00123012
0.000813499
0.000535053
0.000356646
0.000163175
0.00670046
0.00672116
0.00672315
0.00667451
0.00659698
0.00652738
0.0064634
0.00639113
0.00634731
0.0063254
0.00631663
0.00631254
0.0063115
0.00631298
0.00631763
0.00632349
0.00632663
0.00631591
0.00626174
0.00610428
0.00580431
0.00533979
0.00472663
0.00400988
0.00324731
0.00249881
0.00181893
0.00125214
0.000825309
0.000541366
0.000359044
0.000164422
0.00670045
0.0067211
0.00672309
0.00667443
0.00659699
0.00652756
0.00646338
0.00639099
0.00634727
0.00632547
0.00631673
0.00631262
0.00631153
0.00631299
0.00631838
0.00632653
0.00633647
0.00634452
0.0063401
0.0062938
0.00614604
0.00585601
0.00539975
0.00479066
0.00407328
0.00330511
0.00254678
0.00185414
0.00127544
0.000838474
0.00054842
0.000362912
0.000165679
0.00670043
0.00672103
0.00672304
0.0066744
0.00659705
0.00652773
0.00646333
0.00639081
0.00634717
0.00632553
0.00631686
0.00631275
0.00631155
0.00631291
0.00631849
0.00632741
0.00633964
0.00635435
0.0063685
0.00637136
0.00633402
0.00619649
0.00591681
0.00546835
0.00486255
0.00414327
0.003368
0.00259828
0.00189215
0.00130024
0.000854343
0.000556816
0.000366773
0.000167036
0.00670041
0.00672094
0.00672301
0.00667443
0.00659714
0.00652788
0.00646327
0.00639059
0.00634702
0.00632554
0.00631697
0.00631288
0.0063116
0.00631286
0.00631847
0.00632773
0.00634079
0.00635784
0.00637857
0.00639965
0.00641112
0.00638334
0.00625674
0.00598707
0.005546
0.00494221
0.0042197
0.00343585
0.00265347
0.00193258
0.0013292
0.000872899
0.000565462
0.000370773
0.000168451
0.00672083
0.00670037
0.00672299
0.00667451
0.00659727
0.00652803
0.00646321
0.00639036
0.00634682
0.0063255
0.00631702
0.00631298
0.00631165
0.00631288
0.00631857
0.00632799
0.0063414
0.00635933
0.00638257
0.00641039
0.00643972
0.00646029
0.00644301
0.00632719
0.00606731
0.00563271
0.00502967
0.00430235
0.00350839
0.00271201
0.00197979
0.00136294
0.000891828
0.000574286
0.000374996
0.000169962
0.00672298
0.00672064
0.00670032
0.00667462
0.00659744
0.00652817
0.00646316
0.00639013
0.00634661
0.00632541
0.006317
0.00631302
0.00631168
0.00631294
0.00631879
0.00632836
0.006342
0.00636034
0.00638463
0.00641508
0.00645156
0.00649002
0.00652015
0.00651344
0.00640846
0.0061577
0.00572822
0.00512463
0.00439071
0.00358523
0.00278016
0.00203468
0.00139789
0.000911371
0.000583412
0.000379252
0.000171471
0.00667477
0.00672311
0.00672031
0.00670026
0.00659764
0.00652831
0.00646313
0.00638993
0.00634639
0.0063253
0.00631693
0.00631299
0.00631167
0.006313
0.00631908
0.00632884
0.0063427
0.00636136
0.00638628
0.00641796
0.00645737
0.00650325
0.00655227
0.00659221
0.00659561
0.00650076
0.0062578
0.00583195
0.00522637
0.00448431
0.00367454
0.00285932
0.00209149
0.00143371
0.000931472
0.000592669
0.000383564
0.000173031
0.00659788
0.00667551
0.00672338
0.00671994
0.00670018
0.00652844
0.00646312
0.00638975
0.00634619
0.00632518
0.00631683
0.0063129
0.0063116
0.00631304
0.00631937
0.00632933
0.00634347
0.00636248
0.00638799
0.00642052
0.00646159
0.00651072
0.00656748
0.00662708
0.0066777
0.00668903
0.00660341
0.00636709
0.00594323
0.00533429
0.00459311
0.0037781
0.00294098
0.00214953
0.00147014
0.000951352
0.000602112
0.000387803
0.000174546
0.00652858
0.00659901
0.0066769
0.00672365
0.00671952
0.00670011
0.00646314
0.0063896
0.00634601
0.00632506
0.00631672
0.00631278
0.0063115
0.00631304
0.00631961
0.00632979
0.00634423
0.00636365
0.00638981
0.00642321
0.00646565
0.00651685
0.00657746
0.00664516
0.00671596
0.00677687
0.00679567
0.00671612
0.00648482
0.00606167
0.00546015
0.00471915
0.00388464
0.00302411
0.0022082
0.00150674
0.000971134
0.000611419
0.000392047
0.000176091
0.00646319
0.00652965
0.00660113
0.00667838
0.00672393
0.00671906
0.00670002
0.00638948
0.00634585
0.00632496
0.0063166
0.00631265
0.00631138
0.00631303
0.0063198
0.00633018
0.00634491
0.00636478
0.00639162
0.00642604
0.00646997
0.00652301
0.00658647
0.00665859
0.00673819
0.00681932
0.00688986
0.00691526
0.00683845
0.00661054
0.00619952
0.00560561
0.00484884
0.0039928
0.00310763
0.00226677
0.00154319
0.000990547
0.000620694
0.000396175
0.00017757
0.00638938
0.00646442
0.0065317
0.00660339
0.00667996
0.00672422
0.00671857
0.00669994
0.00634571
0.00632488
0.00631649
0.00631252
0.00631127
0.00631302
0.00631994
0.00633048
0.00634549
0.0063658
0.00639334
0.00642881
0.00647447
0.00652963
0.00659586
0.00667153
0.00675648
0.00684696
0.00693813
0.00701631
0.00704704
0.00696911
0.0067565
0.00635877
0.0057544
0.0049801
0.00410091
0.00319051
0.00232471
0.00157901
0.00100966
0.000629702
0.000400259
0.000179065
0.0063456
0.00639042
0.00646689
0.00653384
0.00660577
0.00668161
0.00672451
0.00671804
0.00669986
0.0063248
0.00631638
0.0063124
0.00631117
0.00631303
0.00632006
0.00633073
0.00634596
0.00636669
0.00639489
0.00643143
0.00647885
0.00653649
0.00660603
0.00668531
0.00677501
0.00687163
0.00697296
0.00707215
0.00715606
0.00719058
0.00712571
0.00692595
0.00652188
0.00590433
0.00511112
0.00420802
0.00327197
0.00238139
0.00161403
0.0010282
0.000638562
0.000404199
0.000180483
0.00632474
0.00634619
0.00639265
0.00646946
0.00653606
0.00660825
0.00668333
0.0067248
0.00671749
0.00669977
0.0063163
0.0063123
0.00631108
0.00631306
0.00632017
0.00633094
0.00634635
0.00636744
0.00639626
0.00643383
0.00648296
0.00654314
0.0066166
0.0067003
0.0067951
0.00689748
0.00700614
0.00711608
0.00722143
0.00730877
0.00736094
0.00731111
0.0070999
0.00668588
0.00605304
0.00523988
0.00431285
0.00335125
0.00243647
0.00164794
0.00104623
0.000647077
0.000408053
0.000181902
0.00631622
0.00632503
0.00634752
0.00639503
0.00647211
0.00653838
0.00661085
0.00668511
0.00672508
0.00671692
0.00669969
0.00631222
0.00631103
0.00631311
0.00632027
0.00633112
0.00634668
0.00636809
0.00639744
0.00643599
0.00648673
0.0065494
0.00662686
0.0067159
0.00681714
0.00692583
0.00704184
0.00716001
0.00727683
0.00738573
0.00749202
0.00756216
0.00750495
0.00727691
0.00684808
0.00619878
0.00536501
0.00441448
0.0034279
0.00248955
0.00168063
0.00106354
0.000655357
0.000411739
0.000183244
0.00631215
0.00631632
0.00632571
0.00634894
0.00639756
0.00647485
0.00654081
0.00661353
0.00668693
0.00672536
0.00671632
0.00669962
0.00631098
0.00631318
0.00632039
0.00633129
0.00634697
0.00636864
0.00639846
0.00643791
0.00649013
0.0065552
0.00663653
0.00673104
0.0068402
0.00695714
0.00708152
0.00720824
0.0073344
0.0074552
0.00758448
0.00771084
0.00777291
0.0077035
0.00745653
0.00700725
0.00634022
0.00548577
0.004512
0.00350139
0.00254041
0.0017119
0.00108017
0.000663237
0.000415307
0.000184557
0.00631096
0.00631215
0.00631664
0.00632646
0.00635047
0.00640025
0.00647767
0.00654333
0.00661631
0.0066888
0.00672561
0.00671569
0.00669956
0.00631326
0.00632051
0.00633146
0.00634724
0.00636914
0.00639937
0.00643964
0.00649318
0.00656051
0.00664551
0.0067454
0.00686275
0.00699006
0.00712573
0.00726235
0.00739871
0.00752965
0.00767291
0.00782426
0.00794236
0.00799016
0.00790306
0.00763558
0.00716238
0.00647649
0.00560114
0.00460489
0.00357138
0.00258879
0.0017417
0.00109597
0.000670819
0.0004187
0.000185802
0.00631335
0.00631092
0.00631224
0.00631701
0.00632729
0.00635212
0.00640312
0.00648057
0.00654596
0.00661916
0.0066907
0.00672584
0.00671504
0.00669952
0.00632063
0.00633163
0.00634749
0.0063696
0.00640019
0.00644118
0.00649591
0.00656536
0.00665376
0.00675882
0.00688427
0.00702243
0.00717263
0.00732305
0.00747165
0.00761405
0.00777033
0.00793854
0.00808075
0.00818346
0.0082109
0.0081015
0.0078116
0.00731159
0.00660601
0.00571048
0.00469282
0.00363761
0.00263459
0.00176989
0.001111
0.000677985
0.000421952
0.000187043
0.00632076
0.00631329
0.00631089
0.00631239
0.00631744
0.0063282
0.00635388
0.00640615
0.00648355
0.0065487
0.0066221
0.00669263
0.00672603
0.00671439
0.00669949
0.0063318
0.00634773
0.00637002
0.00640093
0.00644259
0.00649837
0.00656978
0.00666128
0.00677129
0.00690456
0.0070535
0.00721904
0.00738786
0.00755433
0.00771081
0.00788241
0.00806775
0.00822624
0.00835097
0.0084311
0.0084325
0.00829685
0.00798296
0.00745579
0.00672844
0.00581352
0.00477558
0.00369995
0.00267772
0.00179649
0.00112518
0.000684821
0.000425025
0.000188117
0.00633196
0.00632053
0.00631307
0.0063109
0.0063126
0.00631794
0.00632919
0.00635576
0.00640935
0.0064866
0.00655155
0.00662512
0.00669457
0.00672617
0.00671375
0.00669948
0.00634796
0.00637041
0.00640162
0.00644387
0.00650061
0.00657382
0.00666814
0.00678284
0.00692352
0.00708294
0.00726394
0.00745261
0.00764365
0.00782145
0.00801233
0.00821886
0.00839455
0.00853348
0.00863198
0.00868256
0.00865268
0.00848748
0.00814759
0.00759425
0.00684379
0.00591014
0.0048531
0.00375836
0.00271816
0.00182145
0.00113855
0.000691212
0.000427944
0.000189287
0.00634817
0.0063315
0.00631994
0.00631291
0.00631098
0.00631286
0.00631851
0.00633027
0.00635778
0.00641273
0.00648973
0.00655451
0.00662821
0.00669646
0.00672626
0.00671313
0.00669947
0.00637077
0.00640225
0.00644504
0.00650265
0.00657751
0.00667441
0.00679353
0.00694112
0.0071106
0.00730694
0.00751593
0.00773368
0.00794182
0.00816272
0.0083969
0.00859486
0.00874921
0.00885783
0.00892123
0.00893548
0.00886952
0.008672
0.00830457
0.00772595
0.00695204
0.00600039
0.00492541
0.00381287
0.00275593
0.00184481
0.00115106
0.000697325
0.000430731
0.000190292
0.00637112
0.00634741
0.00633043
0.0063194
0.0063128
0.00631111
0.0063132
0.00631914
0.00633145
0.00635994
0.00641629
0.00649292
0.00655754
0.00663129
0.00669826
0.0067263
0.00671253
0.00669949
0.00640283
0.00644611
0.00650452
0.00658089
0.00668013
0.00680341
0.00695739
0.00713652
0.00734787
0.00757704
0.00782205
0.00806422
0.0083294
0.0086071
0.00883512
0.00901086
0.00913085
0.00919773
0.00921679
0.00918798
0.00908154
0.00884941
0.00845352
0.00785034
0.00705324
0.00608439
0.00499266
0.00386356
0.0027911
0.0018666
0.00116283
0.000702982
0.000433283
0.000191235
0.00640337
0.00636994
0.00634563
0.00632938
0.00631892
0.00631276
0.00631131
0.0063136
0.00631985
0.00633272
0.00636224
0.00642004
0.00649615
0.00656057
0.00663429
0.00669997
0.00672629
0.00671195
0.00669951
0.00644708
0.00650622
0.00658397
0.00668537
0.00681254
0.00697238
0.00716078
0.00738659
0.00763532
0.00790775
0.00818671
0.00850318
0.00884444
0.00912394
0.00933187
0.00947069
0.00954145
0.00955326
0.00951766
0.00943881
0.0092877
0.00901907
0.00859424
0.00796721
0.00714755
0.00616235
0.00505499
0.00391058
0.00282376
0.00188689
0.00117376
0.000708324
0.000435793
0.000192258
0.00644798
0.00640162
0.00636717
0.00634387
0.00632839
0.00631849
0.00631277
0.00631157
0.00631406
0.00632062
0.0063341
0.0063647
0.00642396
0.00649932
0.00656354
0.00663723
0.00670159
0.00672624
0.00671141
0.00669954
0.00650777
0.00658678
0.00669016
0.00682093
0.00698616
0.00718346
0.00742294
0.00769043
0.00799064
0.00830891
0.00867977
0.0090932
0.00945682
0.00973174
0.00990507
0.00998655
0.00998703
0.00992631
0.00982372
0.00968726
0.00948738
0.00918065
0.0087267
0.00807654
0.00723517
0.00623453
0.00511265
0.00395408
0.00285402
0.00190572
0.00118398
0.000713354
0.000438071
0.000192909
0.0065092
0.00644547
0.0063974
0.00636439
0.00634217
0.00632746
0.00631813
0.00631284
0.00631189
0.00631458
0.00632147
0.0063356
0.00636731
0.00642793
0.00650235
0.00656643
0.00664008
0.0067031
0.00672616
0.0067109
0.00669957
0.00658933
0.00669453
0.00682861
0.00699882
0.00720459
0.0074568
0.0077424
0.00807089
0.00842967
0.00885427
0.00934633
0.0098217
0.010225
0.0104831
0.0105889
0.0105764
0.0104753
0.0103194
0.0101353
0.00993299
0.00968026
0.00933405
0.00885103
0.00817849
0.00731641
0.00630126
0.00516586
0.00399426
0.002882
0.00192318
0.0011935
0.00071797
0.000439921
0.000193648
0.00659166
0.00650564
0.00643924
0.00639317
0.00636169
0.00634054
0.0063266
0.00631782
0.00631297
0.00631228
0.00631518
0.0063224
0.00633723
0.00637
0.00643186
0.00650525
0.00656927
0.00664283
0.00670451
0.00672606
0.00671044
0.0066996
0.00669851
0.00683562
0.00701041
0.00722418
0.00748816
0.00779141
0.00814833
0.00854681
0.00902279
0.00960565
0.0102297
0.0108204
0.0112521
0.0114365
0.011411
0.0112518
0.0110105
0.0107336
0.0104524
0.0101758
0.00986619
0.00947936
0.00896747
0.00827333
0.0073915
0.00636261
0.00521486
0.00403131
0.00290785
0.00193935
0.00120231
0.000721798
0.000441597
0.00019427
0.00670214
0.00658683
0.00649656
0.00643296
0.00638903
0.00635907
0.00633898
0.00632578
0.00631755
0.00631316
0.00631273
0.00631584
0.0063234
0.00633893
0.0063727
0.00643574
0.006508
0.00657204
0.00664548
0.0067058
0.00672595
0.00671003
0.00669964
0.00684201
0.007021
0.00724225
0.00751708
0.00783761
0.00822235
0.00865827
0.0091854
0.0098803
0.0106975
0.01153
0.0122002
0.0125694
0.0125894
0.0123616
0.012005
0.0115883
0.0111669
0.010774
0.0104152
0.0100452
0.00961676
0.00907631
0.0083614
0.00746131
0.00641902
0.00525995
0.00406543
0.00293169
0.0019543
0.00120945
0.000724912
0.000443136
0.0001951
0.00684777
0.00669563
0.00657391
0.00648741
0.0064268
0.006385
0.00635654
0.00633748
0.00632502
0.00631734
0.00631341
0.00631326
0.00631655
0.00632445
0.00634068
0.00637541
0.00643956
0.00651061
0.00657474
0.006648
0.00670699
0.00672583
0.00670967
0.00669966
0.00703067
0.00725881
0.00754367
0.00788104
0.00829215
0.00876304
0.00934549
0.0101787
0.0112254
0.0123272
0.0132596
0.0138644
0.014064
0.0138568
0.0133881
0.0128076
0.012195
0.0116135
0.0110981
0.0106507
0.0102172
0.0097465
0.00917792
0.00844288
0.00752604
0.00647089
0.00530139
0.00409683
0.00295367
0.00196628
0.00121536
0.000728403
0.000445263
0.000195985
0.00703939
0.0068393
0.00667744
0.00656086
0.00647842
0.00642079
0.00638108
0.00635407
0.00633603
0.0063243
0.00631718
0.00631373
0.00631385
0.00631728
0.00632549
0.00634247
0.00637811
0.00644329
0.0065131
0.00657736
0.00665037
0.00670806
0.00672572
0.0067094
0.00669967
0.00727394
0.00756807
0.00792161
0.00835713
0.00886136
0.00950701
0.0105012
0.0117913
0.0131499
0.0143186
0.0151473
0.0155695
0.015556
0.01512
0.0144188
0.0136198
0.0128112
0.012065
0.0114215
0.0108814
0.0103822
0.00986887
0.00927269
0.00851825
0.00758593
0.00651858
0.00533946
0.0041257
0.00297122
0.00197626
0.00122182
0.000732151
0.000446996
0.000196757
0.00728747
0.00702837
0.0068142
0.00665907
0.00654802
0.00646964
0.00641491
0.00637725
0.00635168
0.00633463
0.00632362
0.00631707
0.00631414
0.00631449
0.00631801
0.00632652
0.00634429
0.00638082
0.00644692
0.00651547
0.00657989
0.00665259
0.00670903
0.00672561
0.00670924
0.00669968
0.00759045
0.00795926
0.00841706
0.0089542
0.00967204
0.0108397
0.0123616
0.0139327
0.0152784
0.0162776
0.0168942
0.0171105
0.0169058
0.0162832
0.0153906
0.0144033
0.0134162
0.0125118
0.0117406
0.0111061
0.0105401
0.00998418
0.009361
0.00858794
0.00764126
0.00656243
0.00537443
0.00414872
0.00298584
0.00198702
0.00122874
0.000736124
0.000449336
0.000198025
0.00761044
0.00727386
0.00699398
0.00678883
0.006641
0.00653546
0.00646105
0.00640917
0.00637351
0.00634935
0.00633329
0.006323
0.00631704
0.00631463
0.00631516
0.00631873
0.00632751
0.00634613
0.00638354
0.00645044
0.00651775
0.00658233
0.00665464
0.00670962
0.00672554
0.00670916
0.00669968
0.007994
0.00847213
0.00904268
0.00984014
0.0111813
0.0129049
0.0146304
0.0160852
0.0171876
0.0179395
0.0183463
0.0183926
0.0180467
0.0172942
0.0162632
0.0151296
0.0139923
0.0129451
0.0120516
0.0113237
0.010691
0.0100927
0.00944323
0.00865236
0.00769233
0.00660274
0.0054023
0.00416789
0.00300153
0.00199858
0.00123619
0.000740849
0.000452156
0.000198868
0.00802477
0.00759341
0.00722758
0.00695924
0.00676381
0.0066233
0.00652316
0.00645264
0.00640356
0.00636987
0.00634708
0.006332
0.00632244
0.00631708
0.00631515
0.00631588
0.00631945
0.00632847
0.00634796
0.00638625
0.00645383
0.00651994
0.00658466
0.00665588
0.00670984
0.0067255
0.00670916
0.00669967
0.00852274
0.00912766
0.0100089
0.0115131
0.0134
0.0152229
0.016726
0.0178707
0.0186952
0.0192307
0.0194768
0.0194042
0.0189678
0.0181375
0.0170185
0.015782
0.0145272
0.0133572
0.012351
0.0115331
0.0108347
0.0101948
0.00951977
0.00871191
0.00773943
0.00663489
0.0054255
0.00418843
0.00301835
0.00201097
0.00124442
0.000744952
0.000453466
4.93514e-05
0.00856763
0.00800489
0.00753112
0.00718076
0.00692496
0.00673926
0.00660595
0.0065111
0.00644442
0.00639808
0.00636632
0.0063449
0.00633079
0.00632197
0.00631719
0.00631567
0.00631659
0.00632016
0.00632941
0.00634979
0.00638897
0.00645707
0.00652208
0.00658595
0.00665627
0.00670995
0.00672551
0.00670923
0.00669966
0.00920948
0.0101752
0.011825
0.0138361
0.0157087
0.0172136
0.0183529
0.0191973
0.0198014
0.020182
0.0203203
0.0201736
0.0196875
0.0188205
0.0176553
0.0163542
0.0150137
0.0137429
0.0126362
0.0117334
0.0109712
0.0102907
0.00959097
0.00876693
0.00777711
0.00666168
0.00545034
0.0042104
0.00303634
0.00202432
0.0012528
0.000751091
0.000432314
5.37294e-05
0.00928425
0.00854239
0.00792236
0.00746821
0.00713444
0.00689129
0.00671516
0.00658894
0.0064993
0.00643638
0.00639274
0.00636288
0.0063428
0.00632968
0.00632158
0.00631735
0.0063162
0.00631726
0.00632088
0.00633033
0.00635159
0.00639168
0.00646015
0.00652309
0.00658618
0.00665647
0.00670996
0.00672554
0.00670939
0.00669964
0.0103356
0.0121109
0.0142116
0.0160973
0.0175711
0.0186717
0.0194962
0.0201196
0.0205751
0.0208566
0.0209292
0.0207417
0.0202356
0.0193615
0.0181817
0.0168472
0.015449
0.0140991
0.0129051
0.0119238
0.0111005
0.0103806
0.00965715
0.00881102
0.00780856
0.00669039
0.00547689
0.00423387
0.00305558
0.00203845
0.00126238
0.000755412
0.000390231
5.58702e-05
0.0092574
0.0104793
0.00842948
0.00783895
0.00740598
0.00708884
0.00685821
0.00669152
0.00657228
0.00648776
0.00642855
0.00638754
0.00635957
0.00634086
0.00632869
0.00632125
0.00631755
0.00631671
0.00631786
0.00632158
0.00633123
0.00635338
0.00639439
0.00646175
0.00652303
0.0065863
0.00665648
0.00670985
0.00672562
0.00670966
0.0066996
0.0123678
0.01453
0.0164028
0.0178242
0.0188645
0.0196415
0.0202467
0.0207284
0.0210938
0.0213175
0.0213539
0.0211487
0.0206428
0.0197821
0.0186104
0.0172665
0.0158339
0.0144246
0.0131565
0.0121036
0.0112225
0.0104648
0.00971046
0.00884788
0.00784234
0.00672112
0.00550525
0.00425889
0.00307605
0.00205366
0.00127261
0.000752438
0.000373
5.88401e-05
0.0090931
0.01046
0.0125813
0.00831818
0.00775611
0.00734468
0.00704395
0.00682571
0.00666834
0.00655599
0.00647652
0.00642094
0.00638255
0.00635649
0.0063391
0.0063278
0.006321
0.00631777
0.00631719
0.0063184
0.00632225
0.00633214
0.00635516
0.00639586
0.00646192
0.00652299
0.0065863
0.00665629
0.00670965
0.00672572
0.00671002
0.00669957
0.0147974
0.0166402
0.0179966
0.0189635
0.0196751
0.0202353
0.0207053
0.0211058
0.0214224
0.0216161
0.0216362
0.021429
0.0209373
0.0201037
0.0189556
0.0176197
0.0161712
0.0147193
0.0133898
0.0122728
0.0113374
0.0105331
0.00975518
0.00888758
0.00787861
0.00675398
0.00553548
0.00428551
0.00309783
0.00206994
0.00128122
0.0007544
0.000346487
6.3413e-05
0.00893392
0.0102138
0.012559
0.0150068
0.00820884
0.00767418
0.00728429
0.00699979
0.00679385
0.00664567
0.00654011
0.00646558
0.00641361
0.00637789
0.00635368
0.0063375
0.00632701
0.0063208
0.00631802
0.00631762
0.0063189
0.00632288
0.00633306
0.00635609
0.00639604
0.006462
0.00652299
0.00658619
0.00665591
0.00670905
0.00672584
0.00671043
0.00669953
0.0168226
0.0181081
0.0189951
0.0196302
0.0201271
0.0205572
0.0209535
0.0213145
0.0216096
0.0217914
0.0218085
0.0216106
0.0211428
0.0203452
0.019231
0.0179153
0.0164648
0.0149844
0.013605
0.012431
0.0114309
0.0105906
0.0098036
0.00893033
0.0079175
0.00678906
0.00556763
0.00431376
0.00312095
0.00208645
0.00129304
0.000751066
0.000308442
6.77258e-05
0.00878258
0.00996008
0.0122506
0.0149601
0.0169484
0.00810074
0.0075933
0.00722482
0.00695644
0.00676266
0.00662356
0.00652467
0.00645507
0.00640678
0.00637364
0.00635111
0.00633604
0.0063263
0.00632064
0.00631826
0.006318
0.00631935
0.00632349
0.00633347
0.00635614
0.00639615
0.006462
0.00652302
0.00658596
0.00665466
0.00670808
0.00672596
0.0067109
0.0066995
0.0181741
0.0189793
0.0195324
0.0199542
0.0203239
0.0206854
0.0210504
0.0213996
0.0216904
0.021872
0.0218957
0.0217156
0.0212787
0.0205229
0.0194488
0.0181614
0.0167192
0.0152217
0.0138024
0.0125587
0.0115098
0.0106532
0.00985603
0.00897633
0.00795915
0.00682645
0.00560177
0.00434365
0.00314515
0.00210489
0.00130362
0.000731767
0.000278568
7.17439e-05
0.00863682
0.00971639
0.0118922
0.0147047
0.0168494
0.018193
0.0079936
0.00751359
0.00716638
0.00691399
0.00673225
0.00660207
0.00650983
0.00644526
0.00640053
0.00636974
0.00634876
0.0063347
0.00632565
0.00632051
0.00631849
0.00631833
0.00631977
0.00632383
0.00633339
0.00635616
0.00639615
0.00646193
0.00652308
0.00658465
0.00665258
0.006707
0.00672608
0.00671141
0.00669948
0.018931
0.0194008
0.0197407
0.020036
0.0203391
0.0206749
0.021037
0.0213916
0.0216889
0.0218783
0.0219163
0.0217611
0.0213607
0.0206501
0.0196197
0.0183656
0.016939
0.0154333
0.0139587
0.0126661
0.0115959
0.0107214
0.00991277
0.00902582
0.00800371
0.00686624
0.0056379
0.00437512
0.00317083
0.00212382
0.00130789
0.000710903
0.000254558
7.61484e-05
0.0084947
0.00948535
0.0115193
0.0143678
0.0166648
0.0180338
0.018845
0.00788759
0.00743521
0.00710911
0.00687257
0.00670268
0.00658141
0.00649599
0.00643629
0.00639481
0.00636618
0.00634661
0.00633347
0.00632507
0.00632042
0.0063187
0.00631861
0.00632005
0.00632391
0.00633334
0.00635616
0.00639605
0.00646176
0.00652204
0.00658229
0.00665035
0.0067058
0.00672618
0.00671195
0.00669947
0.0192485
0.0195044
0.0197165
0.019944
0.0202236
0.0205633
0.0209409
0.0213111
0.0216213
0.0218251
0.0218846
0.0217608
0.0214011
0.0207379
0.0197528
0.0185347
0.0171284
0.0155961
0.0140884
0.0127823
0.0116896
0.0107956
0.00997418
0.009079
0.00805131
0.00690847
0.00567601
0.00440818
0.00319759
0.00214152
0.00131069
0.000689504
0.000229965
8.07421e-05
0.0083554
0.00926579
0.0111458
0.0139833
0.0164036
0.0178937
0.0186238
0.0190654
0.007783
0.0073584
0.00705318
0.00683231
0.00667426
0.00656214
0.00648334
0.00642809
0.00638958
0.00636291
0.00634463
0.00633235
0.00632455
0.00632034
0.0063189
0.00631883
0.00632017
0.00632395
0.00633334
0.00635614
0.00639587
0.00646013
0.00651987
0.00657983
0.00664795
0.0067045
0.00672626
0.00671253
0.00669947
0.0192575
0.0193826
0.0195227
0.0197255
0.0200125
0.0203762
0.0207799
0.0211713
0.021499
0.0217235
0.0218118
0.0217255
0.0214099
0.020795
0.0198553
0.0186743
0.017269
0.0157289
0.0142267
0.0129079
0.0117917
0.0108763
0.0100406
0.00913611
0.00810207
0.00695318
0.00571607
0.00444268
0.00322485
0.00215925
0.00131204
0.000660893
0.000207249
8.62113e-05
0.0082188
0.00905653
0.0107774
0.013565
0.0160981
0.017688
0.0184953
0.0187817
0.0189836
0.00768022
0.00728343
0.00699881
0.00679363
0.00664778
0.00654455
0.00647178
0.0064206
0.0063848
0.00635991
0.00634281
0.00633131
0.00632407
0.0063203
0.00631909
0.00631896
0.00632023
0.00632394
0.00633338
0.00635609
0.00639438
0.00645702
0.00651765
0.00657727
0.00664542
0.00670309
0.00672631
0.00671313
0.00669949
0.0190461
0.0190927
0.0192037
0.0194135
0.0197304
0.0201299
0.020565
0.0209801
0.02133
0.0215823
0.021707
0.0216636
0.0213949
0.0208284
0.0199335
0.0187729
0.0173819
0.0158677
0.0143736
0.0130432
0.0119027
0.0109641
0.0101125
0.0091974
0.00815609
0.00700037
0.00575798
0.00447834
0.00325278
0.0021767
0.0013064
0.000628099
0.000183316
9.2166e-05
0.00808496
0.00885695
0.0104188
0.0131146
0.0157623
0.0174499
0.0183103
0.0186408
0.0186368
0.0186893
0.00757967
0.00721058
0.00694656
0.00675758
0.00662361
0.0065285
0.00646123
0.00641374
0.00638041
0.00635715
0.00634113
0.00633037
0.00632368
0.00632035
0.00631923
0.00631902
0.00632023
0.0063239
0.00633346
0.00635515
0.00639164
0.00645373
0.00651535
0.00657463
0.00664277
0.00670158
0.00672631
0.00671375
0.00669952
0.0186658
0.0186766
0.0187905
0.0190327
0.0193927
0.0198342
0.0203016
0.0207425
0.0211204
0.0214088
0.0215776
0.0215823
0.0213623
0.0208438
0.0199825
0.0188505
0.0174969
0.0160118
0.0145289
0.0131886
0.0120233
0.0110595
0.0101901
0.00926308
0.00821347
0.00705001
0.00580157
0.00451501
0.00328101
0.00219075
0.00129406
0.000587232
0.000160556
9.74653e-05
0.00795394
0.00866679
0.010074
0.0126364
0.0154
0.0171944
0.0181042