/*--------------------------------*- C++ -*----------------------------------*\
  =========                 |
  \\      /  F ield         | OpenFOAM: The Open Source CFD Toolbox
   \\    /   O peration     | Website:  https://openfoam.org
    \\  /    A nd           | Version:  8
     \\/     M anipulation  |
\*---------------------------------------------------------------------------*/
FoamFile
{
    version     2.0;
    format      ascii;
    class       volVectorField;
    location    "0.01";
    object      U;
}
// * * * * * * * * * * * * * * * * * * * * * * * * * * * * * * * * * * * * * //

dimensions      [0 1 -1 0 0 0 0];

internalField   nonuniform List<vector> 
15677
(
(-0.019937 9.66506 0)
(0.0435887 9.92083 0)
(0.00237734 9.37779 0)
(0.0147289 9.97649 0)
(0.0186201 9.78782 0)
(0.00690282 9.14216 0)
(0.0279629 9.99437 0)
(0.0170945 9.92504 0)
(0.010583 9.65528 0)
(0.00561418 8.96554 0)
(0.026091 10.0016 0)
(0.021482 9.97882 0)
(0.0161231 9.85391 0)
(0.0083037 9.53473 0)
(0.00388267 8.84119 0)
(0.0249291 10.0047 0)
(0.0223333 10.0029 0)
(0.0188493 9.94352 0)
(0.0141247 9.78232 0)
(0.00620151 9.43922 0)
(0.00244004 8.76146 0)
(0.0239386 10.0062 0)
(0.0224901 10.0145 0)
(0.0204111 9.98678 0)
(0.0167572 9.90455 0)
(0.010857 9.72097 0)
(0.00406057 9.37238 0)
(0.00134014 8.71651 0)
(0.0225917 10.0067 0)
(0.0222914 10.0202 0)
(0.0211976 10.0088 0)
(0.018484 9.96657 0)
(0.0132541 9.86966 0)
(0.00731689 9.67555 0)
(0.00225232 9.33246 0)
(0.000544195 8.69616 0)
(0.0208958 10.0067 0)
(0.0217196 10.0225 0)
(0.021492 10.0202 0)
(0.0194821 9.99931 0)
(0.0148356 9.9481 0)
(0.00910257 9.84288 0)
(0.00416744 9.64765 0)
(0.000864378 9.31375 0)
(-1.88173e-05 8.6923 0)
(0.0189661 10.0063 0)
(0.0208549 10.0228 0)
(0.0213489 10.0262 0)
(0.0199531 10.0171 0)
(0.0157795 9.9904 0)
(0.0102717 9.93361 0)
(0.00519061 9.82632 0)
(0.00164881 9.63495 0)
(-0.000197146 9.31024 0)
(-0.000492462 8.69991 0)
(0.0168778 10.0057 0)
(0.0197502 10.0219 0)
(0.020885 10.0291 0)
(0.0200288 10.027 0)
(0.0162637 10.0139 0)
(0.0109537 9.98325 0)
(0.00580862 9.92496 0)
(0.00192485 9.81971 0)
(-0.000343738 9.63404 0)
(-0.00109072 9.31793 0)
(-0.000923314 8.71667 0)
(0.0146834 10.0051 0)
(0.0184224 10.0204 0)
(0.0201194 10.0297 0)
(0.019786 10.0321 0)
(0.0164097 10.0271 0)
(0.0112813 10.0111 0)
(0.00608198 9.97945 0)
(0.00194142 9.92281 0)
(-0.000754919 9.82167 0)
(-0.00203402 9.64257 0)
(-0.00194281 9.33476 0)
(-0.00135774 8.7416 0)
(0.0123436 10.0044 0)
(0.0169391 10.0185 0)
(0.0190874 10.0289 0)
(0.0192705 10.0343 0)
(0.0162942 10.0342 0)
(0.0113457 10.0268 0)
(0.0060878 10.0101 0)
(0.00169783 9.98015 0)
(-0.00137518 9.92706 0)
(-0.00314735 9.83128 0)
(-0.00366688 9.65942 0)
(-0.00283335 9.35988 0)
(-0.00182025 8.77436 0)
(0.0100443 10.0036 0)
(0.0154296 10.0162 0)
(0.0178324 10.0271 0)
(0.0184993 10.0343 0)
(0.0159779 10.0376 0)
(0.011204 10.0355 0)
(0.00588026 10.0276 0)
(0.00122349 10.0126 0)
(-0.00223243 9.98599 0)
(-0.00446857 9.93768 0)
(-0.00553247 9.84826 0)
(-0.00537393 9.68422 0)
(-0.00379671 9.39302 0)
(-0.00232756 8.81477 0)
(0.00807364 10.0029 0)
(0.0138309 10.0137 0)
(0.0164333 10.0245 0)
(0.0175407 10.0328 0)
(0.0154683 10.0384 0)
(0.0108925 10.0399 0)
(0.00549078 10.0374 0)
(0.00053441 10.0312 0)
(-0.00333688 10.0195 0)
(-0.0060483 9.99746 0)
(-0.007647 9.95493 0)
(-0.00807001 9.87269 0)
(-0.00721557 9.71685 0)
(-0.00485399 9.43394 0)
(-0.0028936 8.86289 0)
(0.00655032 10.0022 0)
(0.0123095 10.0113 0)
(0.0149285 10.0215 0)
(0.0163783 10.0303 0)
(0.0147488 10.0373 0)
(0.0104336 10.0413 0)
(0.00493589 10.0424 0)
(-0.000367335 10.0417 0)
(-0.00470678 10.0389 0)
(-0.00793007 10.0317 0)
(-0.0100777 10.015 0)
(-0.0110864 9.97913 0)
(-0.0108299 9.90463 0)
(-0.00923238 9.7572 0)
(-0.00603675 9.48265 0)
(-0.00353347 8.91897 0)
(0.00540191 10.0017 0)
(0.0109347 10.0092 0)
(0.0135097 10.0185 0)
(0.0150727 10.027 0)
(0.0138895 10.0349 0)
(0.00982889 10.0406 0)
(0.00422438 10.0442 0)
(-0.00148685 10.0471 0)
(-0.00636679 10.0499 0)
(-0.0101596 10.0516 0)
(-0.0128899 10.0496 0)
(-0.0145035 10.0392 0)
(-0.0148613 10.0105 0)
(-0.0138632 9.94413 0)
(-0.0114808 9.8053 0)
(-0.00737455 9.53934 0)
(-0.00425474 8.98333 0)
(0.00444791 10.0014 0)
(0.00960428 10.0076 0)
(0.0122399 10.0159 0)
(0.013826 10.0237 0)
(0.0128956 10.0314 0)
(0.00909653 10.0382 0)
(0.00336031 10.0437 0)
(-0.00283387 10.0491 0)
(-0.00834721 10.0557 0)
(-0.012786 10.0631 0)
(-0.0161509 10.0699 0)
(-0.0184041 10.0738 0)
(-0.0194054 10.0702 0)
(-0.0190339 10.0493 0)
(-0.0172482 9.99132 0)
(-0.0140226 9.86135 0)
(-0.00888847 9.6044 0)
(-0.00505853 9.05628 0)
(0.00368074 10.0011 0)
(0.00843865 10.0062 0)
(0.0110959 10.0136 0)
(0.0127407 10.0206 0)
(0.0119247 10.0276 0)
(0.00825681 10.0346 0)
(0.00234533 10.0414 0)
(-0.00442037 10.0488 0)
(-0.0106821 10.058 0)
(-0.0158632 10.0692 0)
(-0.0199302 10.0817 0)
(-0.0228739 10.0942 0)
(-0.024563 10.1046 0)
(-0.0248596 10.1084 0)
(-0.023702 10.0956 0)
(-0.0210712 10.0464 0)
(-0.016898 9.92569 0)
(-0.0105834 9.67809 0)
(-0.00594427 9.13796 0)
(0.00306017 10.0009 0)
(0.00740115 10.0051 0)
(0.0100943 10.0117 0)
(0.0118031 10.0179 0)
(0.0110828 10.024 0)
(0.00743783 10.0305 0)
(0.00119045 10.0377 0)
(-0.0062564 10.0465 0)
(-0.0134039 10.0577 0)
(-0.0194489 10.0717 0)
(-0.0243029 10.088 0)
(-0.0280006 10.1061 0)
(-0.0304383 10.1249 0)
(-0.0314614 10.1425 0)
(-0.0309827 10.1542 0)
(-0.0289748 10.1499 0)
(-0.025393 10.1097 0)
(-0.0201213 9.99862 0)
(-0.0124585 9.76068 0)
(-0.00690283 9.22845 0)
(0.00255215 10.0007 0)
(0.00647241 10.0043 0)
(0.00920238 10.0101 0)
(0.0110223 10.0154 0)
(0.0103725 10.0207 0)
(0.00673347 10.0265 0)
(4.76936e-05 10.0333 0)
(-0.00834518 10.0427 0)
(-0.0165397 10.0554 0)
(-0.0235975 10.0716 0)
(-0.0293474 10.0907 0)
(-0.0338775 10.1125 0)
(-0.0371365 10.1366 0)
(-0.038965 10.1623 0)
(-0.0392368 10.1877 0)
(-0.0379049 10.2077 0)
(-0.0349324 10.2123 0)
(-0.0302384 10.1816 0)
(-0.0236892 10.0804 0)
(-0.0144968 9.85215 0)
(-0.00792577 9.3274 0)
(0.00214903 10.0006 0)
(0.00563906 10.0036 0)
(0.00841117 10.0087 0)
(0.0104056 10.0133 0)
(0.00978698 10.0176 0)
(0.00614843 10.0226 0)
(-0.00097074 10.029 0)
(-0.0104528 10.038 0)
(-0.0201051 10.0514 0)
(-0.0283527 10.0692 0)
(-0.0351368 10.0906 0)
(-0.0406011 10.1151 0)
(-0.044769 10.1429 0)
(-0.0474955 10.1738 0)
(-0.048616 10.2071 0)
(-0.0480395 10.2407 0)
(-0.0457243 10.2694 0)
(-0.0416106 10.2832 0)
(-0.0355996 10.2621 0)
(-0.0275739 10.1709 0)
(-0.0166845 9.95237 0)
(-0.00900163 9.43465 0)
(0.00183941 10.0005 0)
(0.0049238 10.0031 0)
(0.00771861 10.0077 0)
(0.00995601 10.0114 0)
(0.00937539 10.0147 0)
(0.00572575 10.0189 0)
(-0.00187044 10.0246 0)
(-0.0123977 10.0333 0)
(-0.0237171 10.0465 0)
(-0.0337374 10.0649 0)
(-0.0417269 10.088 0)
(-0.0482574 10.1148 0)
(-0.0534485 10.1452 0)
(-0.0571847 10.1797 0)
(-0.0592709 10.218 0)
(-0.0595627 10.2596 0)
(-0.057984 10.3018 0)
(-0.0544864 10.3396 0)
(-0.0489989 10.3627 0)
(-0.0414401 10.3514 0)
(-0.0317393 10.2702 0)
(-0.0189886 10.0609 0)
(-0.0101141 9.54932 0)
(0.00159844 10.0004 0)
(0.00433923 10.0027 0)
(0.00714276 10.0068 0)
(0.00968245 10.0098 0)
(0.00916765 10.0121 0)
(0.00548346 10.0153 0)
(-0.00261159 10.0202 0)
(-0.0142016 10.0284 0)
(-0.0270791 10.0413 0)
(-0.0391719 10.0595 0)
(-0.0491403 10.0833 0)
(-0.0569081 10.1118 0)
(-0.063272 10.1444 0)
(-0.0681644 10.1815 0)
(-0.0713592 10.2234 0)
(-0.0726575 10.27 0)
(-0.071936 10.3201 0)
(-0.0691251 10.3713 0)
(-0.0641797 10.4183 0)
(-0.0570511 10.4509 0)
(-0.0477032 10.4494 0)
(-0.0361363 10.3778 0)
(-0.021386 10.1772 0)
(-0.0112548 9.67101 0)
(0.00140767 10.0004 0)
(0.00386454 10.0024 0)
(0.00668829 10.0061 0)
(0.00957645 10.0084 0)
(0.0091562 10.0097 0)
(0.00545037 10.0118 0)
(-0.00316326 10.0159 0)
(-0.0158282 10.0235 0)
(-0.0302412 10.0359 0)
(-0.0442163 10.0537 0)
(-0.0565686 10.0771 0)
(-0.0665666 10.1063 0)
(-0.0743017 10.1407 0)
(-0.0805438 10.18 0)
(-0.0850383 10.2245 0)
(-0.0875166 10.2746 0)
(-0.0878027 10.3299 0)
(-0.0857981 10.3891 0)
(-0.0814515 10.4494 0)
(-0.0747483 10.5057 0)
(-0.0656925 10.5477 0)
(-0.0543209 10.5555 0)
(-0.040716 10.4932 0)
(-0.0238469 10.3006 0)
(-0.012405 9.79858 0)
(0.00125467 10.0003 0)
(0.0034795 10.0021 0)
(0.00633542 10.0055 0)
(0.00958374 10.0073 0)
(0.00933499 10.0076 0)
(0.00563799 10.0086 0)
(-0.00349779 10.0117 0)
(-0.0172444 10.0185 0)
(-0.0331635 10.0302 0)
(-0.0489538 10.0474 0)
(-0.0634166 10.0703 0)
(-0.0761665 10.099 0)
(-0.0865345 10.1341 0)
(-0.094385 10.1752 0)
(-0.100434 10.222 0)
(-0.10433 10.2749 0)
(-0.10582 10.3338 0)
(-0.104777 10.3982 0)
(-0.101138 10.4666 0)
(-0.0948943 10.5362 0)
(-0.0860983 10.6016 0)
(-0.0748295 10.6527 0)
(-0.0612132 10.6694 0)
(-0.0454199 10.6156 0)
(-0.0263445 10.4302 0)
(-0.0135547 9.93146 0)
(0.00113063 10.0003 0)
(0.00316853 10.0019 0)
(0.00606702 10.0049 0)
(0.00967844 10.0063 0)
(0.00972553 10.0058 0)
(0.00604751 10.0056 0)
(-0.00358669 10.0075 0)
(-0.0184235 10.0134 0)
(-0.0358114 10.0244 0)
(-0.053335 10.0409 0)
(-0.0698027 10.0629 0)
(-0.0849479 10.0908 0)
(-0.0986069 10.1252 0)
(-0.109666 10.167 0)
(-0.117613 10.2158 0)
(-0.123248 10.2711 0)
(-0.12622 10.3331 0)
(-0.126347 10.4014 0)
(-0.123564 10.4751 0)
(-0.117874 10.5528 0)
(-0.10934 10.6315 0)
(-0.0981068 10.7058 0)
(-0.084354 10.7654 0)
(-0.0682949 10.7904 0)
(-0.0501903 10.7443 0)
(-0.0288433 10.565 0)
(-0.0146785 10.0683 0)
(0.00102909 10.0003 0)
(0.00291786 10.0018 0)
(0.00586844 10.0044 0)
(0.00982473 10.0055 0)
(0.0102196 10.0043 0)
(0.0065642 10.0031 0)
(-0.00342469 10.0038 0)
(-0.0193419 10.0084 0)
(-0.0381584 10.0185 0)
(-0.0573203 10.034 0)
(-0.0756639 10.055 0)
(-0.0930682 10.0818 0)
(-0.109577 10.1151 0)
(-0.124674 10.156 0)
(-0.136539 10.2056 0)
(-0.144352 10.2632 0)
(-0.149189 10.328 0)
(-0.15079 10.3995 0)
(-0.149074 10.4774 0)
(-0.14407 10.5607 0)
(-0.135868 10.6475 0)
(-0.124638 10.735 0)
(-0.110634 10.8176 0)
(-0.0941463 10.8851 0)
(-0.075475 10.9176 0)
(-0.0549616 10.8782 0)
(-0.0313082 10.7041 0)
(-0.0157797 10.2083 0)
(0.000945196 10.0002 0)
(0.00271548 10.0016 0)
(0.00572505 10.004 0)
(0.0100017 10.0047 0)
(0.0107778 10.0029 0)
(0.00715756 10.0009 0)
(-0.0030816 10.0005 0)
(-0.0199664 10.0038 0)
(-0.0401863 10.0126 0)
(-0.0608791 10.027 0)
(-0.0809501 10.0468 0)
(-0.100447 10.0722 0)
(-0.119647 10.104 0)
(-0.138253 10.1436 0)
(-0.155086 10.1921 0)
(-0.167597 10.2506 0)
(-0.174837 10.3181 0)
(-0.178347 10.3929 0)
(-0.178016 10.4745 0)
(-0.173893 10.5621 0)
(-0.166129 10.6547 0)
(-0.154934 10.7504 0)
(-0.140607 10.8462 0)
(-0.123527 10.9365 0)
(-0.104079 11.0112 0)
(-0.0826587 11.0502 0)
(-0.0596774 11.0166 0)
(-0.0337211 10.8463 0)
(-0.0168049 10.3504 0)
(0.000875294 10.0002 0)
(0.00255165 10.0015 0)
(0.00562254 10.0036 0)
(0.010199 10.004 0)
(0.0113608 10.0018 0)
(0.00779737 9.99893 0)
(-0.00261922 9.99766 0)
(-0.0203277 9.99981 0)
(-0.0418163 10.0071 0)
(-0.0639888 10.02 0)
(-0.0856197 10.0383 0)
(-0.107018 10.062 0)
(-0.128715 10.0921 0)
(-0.150657 10.1299 0)
(-0.171835 10.1769 0)
(-0.190377 10.2341 0)
(-0.203115 10.3028 0)
(-0.209162 10.3809 0)
(-0.21069 10.4662 0)
(-0.20777 10.558 0)
(-0.200613 10.6554 0)
(-0.18952 10.757 0)
(-0.174855 10.8611 0)
(-0.157052 10.9645 0)
(-0.136614 11.0618 0)
(-0.114026 11.1426 0)
(-0.0897565 11.1871 0)
(-0.0643021 11.1581 0)
(-0.0360675 10.9909 0)
(-0.0184534 10.4927 0)
(0.000816598 10.0002 0)
(0.00241838 10.0014 0)
(0.00555017 10.0033 0)
(0.0104067 10.0034 0)
(0.0119425 10.0008 0)
(0.00845421 9.99729 0)
(-0.00210465 9.99527 0)
(-0.0204999 9.99645 0)
(-0.043037 10.0024 0)
(-0.0665201 10.0134 0)
(-0.0896357 10.0297 0)
(-0.112721 10.0514 0)
(-0.136691 10.0794 0)
(-0.16176 10.115 0)
(-0.187109 10.1599 0)
(-0.210959 10.2156 0)
(-0.230871 10.2829 0)
(-0.243201 10.3626 0)
(-0.247289 10.452 0)
(-0.246069 10.5481 0)
(-0.239829 10.6501 0)
(-0.228971 10.7569 0)
(-0.21398 10.8671 0)
(-0.195384 10.979 0)
(-0.173761 11.0892 0)
(-0.149727 11.1924 0)
(-0.123865 11.2784 0)
(-0.0967125 11.3273 0)
(-0.0687922 11.302 0)
(-0.0390041 11.1359 0)
(-0.0196991 10.6632 0)
(0.000766964 10.0002 0)
(0.00230927 10.0013 0)
(0.00549889 10.003 0)
(0.0106134 10.0029 0)
(0.0125044 10 0)
(0.00910151 9.99591 0)
(-0.00157756 9.99328 0)
(-0.0205487 9.99366 0)
(-0.0439325 9.99845 0)
(-0.0684309 10.0077 0)
(-0.0928194 10.0215 0)
(-0.117498 10.0406 0)
(-0.143492 10.0661 0)
(-0.171441 10.0991 0)
(-0.200745 10.1415 0)
(-0.229739 10.1949 0)
(-0.255999 10.2605 0)
(-0.276696 10.3389 0)
(-0.287812 10.4304 0)
(-0.289052 10.5315 0)
(-0.28423 10.6386 0)
(-0.273887 10.7505 0)
(-0.258654 10.8662 0)
(-0.239213 10.9845 0)
(-0.216261 11.1032 0)
(-0.190518 11.2194 0)
(-0.16271 11.3275 0)
(-0.133505 11.4175 0)
(-0.103461 11.4699 0)
(-0.0735184 11.4466 0)
(-0.0412755 11.2986 0)
(-0.0199647 10.8354 0)
(0.000724781 10.0002 0)
(0.00221923 10.0012 0)
(0.00546249 10.0027 0)
(0.010812 10.0025 0)
(0.0130354 9.99938 0)
(0.0097241 9.9948 0)
(-0.00106595 9.99164 0)
(-0.0205196 9.9914 0)
(-0.0445799 9.99518 0)
(-0.0698279 10.0028 0)
(-0.0951218 10.0142 0)
(-0.121129 10.0302 0)
(-0.149038 10.0525 0)
(-0.179591 10.0825 0)
(-0.212592 10.1218 0)
(-0.246519 10.1723 0)
(-0.278987 10.2355 0)
(-0.307114 10.3123 0)
(-0.327815 10.4027 0)
(-0.336767 10.5065 0)
(-0.334164 10.6195 0)
(-0.324822 10.7373 0)
(-0.309577 10.8588 0)
(-0.289305 10.9829 0)
(-0.264898 11.1083 0)
(-0.23722 11.2331 0)
(-0.207121 11.3541 0)
(-0.175432 11.4661 0)
(-0.142848 11.5592 0)
(-0.110192 11.6134 0)
(-0.0779865 11.6077 0)
(-0.0426187 11.4769 0)
(-0.0206191 11.005 0)
(0.000688669 10.0002 0)
(0.00214412 10.0012 0)
(0.0054361 10.0025 0)
(0.0109976 10.0022 0)
(0.0135277 9.99888 0)
(0.0103106 9.99394 0)
(-0.000584346 9.99034 0)
(-0.0204445 9.98962 0)
(-0.0450371 9.99252 0)
(-0.0708163 9.99874 0)
(-0.0966918 10.0079 0)
(-0.123584 10.0208 0)
(-0.153071 10.0391 0)
(-0.186105 10.0652 0)
(-0.222508 10.101 0)
(-0.261109 10.1481 0)
(-0.299592 10.2082 0)
(-0.335048 10.2825 0)
(-0.36428 10.3715 0)
(-0.384037 10.4745 0)
(-0.389749 10.5911 0)
(-0.382227 10.7159 0)
(-0.367418 10.8441 0)
(-0.346475 10.9746 0)
(-0.32054 11.1062 0)
(-0.290711 11.2378 0)
(-0.258006 11.3675 0)
(-0.223395 11.4923 0)
(-0.187752 11.6071 0)
(-0.151945 11.7017 0)
(-0.116962 11.7733 0)
(-0.0818325 11.7849 0)
(-0.0444932 11.6518 0)
(-0.0213917 11.1697 0)
(0.000657901 10.0002 0)
(0.00208084 10.0011 0)
(0.00541624 10.0024 0)
(0.0111685 10.002 0)
(0.0139769 9.99851 0)
(0.0108537 9.99332 0)
(-0.000139859 9.98936 0)
(-0.0203438 9.98824 0)
(-0.0453467 9.99038 0)
(-0.0714809 9.99532 0)
(-0.0976795 10.0025 0)
(-0.125075 10.0125 0)
(-0.155604 10.0269 0)
(-0.19069 10.0482 0)
(-0.230362 10.0793 0)
(-0.27333 10.1225 0)
(-0.317579 10.1788 0)
(-0.360204 10.2499 0)
(-0.397922 10.3365 0)
(-0.427313 10.4385 0)
(-0.445031 10.5546 0)
(-0.446318 10.6839 0)
(-0.432752 10.8203 0)
(-0.411523 10.9584 0)
(-0.384128 11.097 0)
(-0.351968 11.2353 0)
(-0.316333 11.3721 0)
(-0.278384 11.5056 0)
(-0.239151 11.6331 0)
(-0.199619 11.7492 0)
(-0.161302 11.8609 0)
(-0.12322 11.9492 0)
(-0.0855692 11.9593 0)
(-0.046369 11.8215 0)
(-0.0220879 11.3284 0)
(0.00202799 10.0011 0)
(0.000620901 10.0001 0)
(0.00540065 10.0022 0)
(0.0113229 10.0018 0)
(0.0143817 9.99826 0)
(0.0113498 9.9929 0)
(0.000265172 9.98867 0)
(-0.0202278 9.98723 0)
(-0.0455406 9.98871 0)
(-0.07189 9.99246 0)
(-0.0982109 9.99781 0)
(-0.125813 10.0051 0)
(-0.15693 10.0158 0)
(-0.193403 10.0324 0)
(-0.235808 10.0579 0)
(-0.283019 10.0957 0)
(-0.332727 10.1477 0)
(-0.382297 10.2148 0)
(-0.428393 10.2981 0)
(-0.467447 10.3979 0)
(-0.495878 10.5135 0)
(-0.510325 10.643 0)
(-0.505924 10.785 0)
(-0.48517 10.9324 0)
(-0.456602 11.0795 0)
(-0.422063 11.2254 0)
(-0.383198 11.3692 0)
(-0.341469 11.51 0)
(-0.298118 11.6463 0)
(-0.25426 11.7751 0)
(-0.211954 11.9081 0)
(-0.170328 12.036 0)
(-0.128951 12.1223 0)
(-0.0890202 12.1288 0)
(-0.0479788 11.9846 0)
(-0.022674 11.4805 0)
(0.00539158 10.0021 0)
(0.00195941 10.001 0)
(0.000575971 10.0001 0)
(0.0114605 10.0017 0)
(0.0147425 9.99811 0)
(0.011798 9.99266 0)
(0.000634939 9.98824 0)
(-0.0201093 9.9865 0)
(-0.0456431 9.9874 0)
(-0.0720988 9.9901 0)
(-0.0983906 9.99377 0)
(-0.125973 9.99861 0)
(-0.157327 10.006 0)
(-0.194634 10.0182 0)
(-0.238945 10.038 0)
(-0.289751 10.0691 0)
(-0.34483 10.1149 0)
(-0.401053 10.1773 0)
(-0.455346 10.2566 0)
(-0.504028 10.3533 0)
(-0.5433 10.4671 0)
(-0.569491 10.5967 0)
(-0.579321 10.7396 0)
(-0.567919 10.8938 0)
(-0.538856 11.0516 0)
(-0.502097 11.2069 0)
(-0.459811 11.3589 0)
(-0.413862 11.5071 0)
(-0.365824 11.6508 0)
(-0.317015 11.7884 0)
(-0.270049 11.934 0)
(-0.224154 12.083 0)
(-0.17846 12.2084 0)
(-0.134162 12.2908 0)
(-0.0920123 12.292 0)
(-0.0493242 12.1406 0)
(-0.0231453 11.6254 0)
(0.0115876 10.0016 0)
(0.00535641 10.002 0)
(0.00186373 10.0009 0)
(0.000533234 10.0001 4.02769e-20)
(0.0150617 9.99804 0)
(0.0121992 9.99257 0)
(0.000967769 9.98803 0)
(-0.0199828 9.98599 0)
(-0.0456748 9.98641 0)
(-0.0721526 9.98814 0)
(-0.0983049 9.99031 0)
(-0.1257 9.99293 0)
(-0.157028 9.99725 0)
(-0.194741 10.0054 0)
(-0.240266 10.02 0)
(-0.293647 10.0444 0)
(-0.353347 10.0824 0)
(-0.416211 10.1379 0)
(-0.478445 10.2122 0)
(-0.536643 10.3049 0)
(-0.586818 10.4159 0)
(-0.625001 10.5444 0)
(-0.647525 10.6882 0)
(-0.651309 10.8443 0)
(-0.631591 11.0101 0)
(-0.593153 11.1772 0)
(-0.547445 11.3395 0)
(-0.496922 11.4964 0)
(-0.443603 11.6479 0)
(-0.389151 11.7931 0)
(-0.336827 11.9476 0)
(-0.285887 12.1091 0)
(-0.235088 12.2552 0)
(-0.185771 12.3763 0)
(-0.138688 12.4533 0)
(-0.0945436 12.4483 0)
(-0.050432 12.2891 0)
(-0.02351 11.7628 0)
(0.0153444 9.99803 0)
(0.0117029 10.0015 0)
(0.00527109 10.0019 1.83234e-19)
(0.00177091 10.0009 -1.27668e-19)
(0.000492691 10.0001 -7.90548e-20)
(0.0125533 9.99259 0)
(0.00126992 9.98799 0)
(-0.0198457 9.98572 0)
(-0.0456548 9.98568 0)
(-0.072089 9.98653 0)
(-0.098024 9.98734 0)
(-0.125114 9.98796 0)
(-0.156222 9.98949 0)
(-0.194017 9.99388 0)
(-0.24022 10.0036 0)
(-0.295313 10.0218 0)
(-0.358398 10.0521 0)
(-0.427073 10.0986 0)
(-0.49736 10.1654 0)
(-0.564882 10.253 0)
(-0.625946 10.3602 0)
(-0.676309 10.4864 0)
(-0.711915 10.6299 0)
(-0.729223 10.7878 0)
(-0.725492 10.9566 0)
(-0.696179 11.1331 0)
(-0.647399 11.3085 0)
(-0.592104 11.4765 0)
(-0.532966 11.6371 0)
(-0.472113 11.7903 0)
(-0.413662 11.9526 0)
(-0.356867 12.123 0)
(-0.300071 12.2814 0)
(-0.244838 12.423 0)
(-0.19212 12.5384 0)
(-0.142505 12.6091 0)
(-0.0966454 12.5972 0)
(-0.0513246 12.4298 0)
(-0.0237795 11.8925 0)
(0.0128579 9.9927 0)
(0.0156798 9.99813 -4.14411e-19)
(0.011772 10.0015 -1.93696e-19)
(0.00518738 10.0018 8.99292e-20)
(0.00167879 10.0008 -8.35134e-20)
(0.00045437 10.0001 0)
(0.00153723 9.98809 0)
(-0.0197086 9.98562 0)
(-0.0455878 9.98513 0)
(-0.0719396 9.98521 0)
(-0.0976043 9.98479 0)
(-0.124309 9.98361 0)
(-0.15506 9.98264 0)
(-0.192697 9.98366 0)
(-0.239169 9.989 0)
(-0.2953 10.0015 0)
(-0.360711 10.0245 0)
(-0.433728 10.062 0)
(-0.511191 10.1186 0)
(-0.588327 10.198 0)
(-0.660185 10.3003 0)
(-0.722844 10.4231 0)
(-0.771877 10.565 0)
(-0.80326 10.7237 0)
(-0.813725 10.8954 0)
(-0.801014 11.076 0)
(-0.760908 11.2621 0)
(-0.700949 11.4444 0)
(-0.635559 11.6169 0)
(-0.567563 11.7797 0)
(-0.502125 11.9502 0)
(-0.438586 12.1285 0)
(-0.37484 12.2958 0)
(-0.312664 12.4495 0)
(-0.253308 12.5851 0)
(-0.197484 12.6939 0)
(-0.145654 12.7576 0)
(-0.0983499 12.7383 0)
(-0.0520278 12.5625 0)
(-0.0239664 12.0146 0)
(0.00172876 9.98828 0)
(0.0133163 9.993 8.76437e-19)
(0.0160669 9.99841 0)
(0.0118278 10.0015 1.90045e-19)
(0.00509474 10.0017 3.37716e-23)
(0.00158733 10.0007 0)
(0.000418142 10.0001 0)
(-0.0195746 9.98565 0)
(-0.0454869 9.98474 0)
(-0.0717253 9.98413 0)
(-0.0970907 9.98262 0)
(-0.12336 9.97983 0)
(-0.15366 9.9766 0)
(-0.190968 9.97458 0)
(-0.237402 9.9759 0)
(-0.29405 9.98312 0)
(-0.360948 9.99938 0)
(-0.437031 10.0285 0)
(-0.519961 10.0747 0)
(-0.605833 10.1428 0)
(-0.689021 10.2365 0)
(-0.764017 10.3546 0)
(-0.826755 10.4939 0)
(-0.872739 10.652 0)
(-0.89813 10.8256 0)
(-0.90009 11.0106 0)
(-0.876986 11.202 0)
(-0.82501 11.3964 0)
(-0.753187 11.5843 0)
(-0.677344 11.7596 0)
(-0.604048 11.9401 0)
(-0.532752 12.1269 0)
(-0.460981 12.3021 0)
(-0.390762 12.4645 0)
(-0.323603 12.6121 0)
(-0.260482 12.7407 0)
(-0.201925 12.8422 0)
(-0.148191 12.8984 0)
(-0.0996931 12.8715 0)
(-0.0525633 12.6872 0)
(-0.0240801 12.1289 0)
(-0.0195129 9.98577 0)
(0.00225488 9.98869 8.9275e-23)
(0.0139732 9.99362 0)
(0.0164305 9.99882 -2.00932e-19)
(0.0118594 10.0016 3.15241e-23)
(0.0049846 10.0016 0)
(0.00149588 10.0006 0)
(0.000383838 10.0001 0)
(-0.0453662 9.9845 0)
(-0.071464 9.98326 0)
(-0.0965158 9.98076 0)
(-0.122323 9.97652 0)
(-0.152114 9.97128 0)
(-0.188974 9.96654 0)
(-0.235148 9.96424 0)
(-0.291919 9.9667 0)
(-0.35965 9.97677 0)
(-0.437775 9.99797 0)
(-0.524661 10.0345 0)
(-0.617312 10.091 0)
(-0.711003 10.1722 0)
(-0.799194 10.2815 0)
(-0.875856 10.4166 0)
(-0.936919 10.573 0)
(-0.977968 10.7473 0)
(-0.995524 10.9356 0)
(-0.987339 11.1329 0)
(-0.95252 11.3339 0)
(-0.887756 11.5351 0)
(-0.803551 11.7268 0)
(-0.721515 11.9204 0)
(-0.641388 12.1176 0)
(-0.560327 12.3013 0)
(-0.480808 12.4715 0)
(-0.404598 12.6277 0)
(-0.332892 12.7681 0)
(-0.266435 12.8892 0)
(-0.205517 12.983 0)
(-0.150173 13.0315 0)
(-0.100713 12.9967 0)
(-0.0529522 12.804 0)
(-0.0241301 12.2359 0)
(-0.0453184 9.98437 0)
(-0.0189548 9.98608 -4.90018e-19)
(0.00325653 9.98951 0)
(0.0145885 9.99446 0)
(0.0167567 9.99935 5.91563e-19)
(0.0118539 10.0018 0)
(0.00485847 10.0016 0)
(0.00140504 10.0006 1.57893e-19)
(0.000351325 10.0001 0)
(-0.0711748 9.98256 0)
(-0.0958998 9.97917 0)
(-0.121241 9.97363 0)
(-0.150494 9.96659 0)
(-0.186827 9.95941 0)
(-0.232581 9.95387 0)
(-0.289185 9.95203 0)
(-0.357248 9.95647 0)
(-0.436609 9.97043 0)
(-0.526223 9.99785 0)
(-0.623893 10.0433 0)
(-0.725887 10.1116 0)
(-0.826566 10.2074 0)
(-0.91842 10.3337 0)
(-0.994998 10.4868 0)
(-1.05241 10.6606 0)
(-1.08652 10.851 0)
(-1.09438 11.0532 0)
(-1.07448 11.2616 0)
(-1.02677 11.4709 0)
(-0.948461 11.6771 0)
(-0.856958 11.888 0)
(-0.766861 12.0988 0)
(-0.675082 12.2931 0)
(-0.584751 12.4718 0)
(-0.498041 12.6356 0)
(-0.416369 12.7844 0)
(-0.340618 12.9171 0)
(-0.271261 13.0303 0)
(-0.208338 13.116 0)
(-0.151658 13.1566 0)
(-0.101447 13.114 0)
(-0.0532132 12.9132 0)
(-0.0241252 12.3357 0)
(-0.0709602 9.98201 0)
(-0.0446559 9.98437 0)
(-0.0176555 9.98677 -4.84336e-19)
(0.00418914 9.99062 -4.49375e-19)
(0.0151668 9.99553 -8.33978e-19)
(0.0170319 10 0)
(0.011798 10.0021 -3.59254e-19)
(0.00471286 10.0015 -3.33631e-19)
(0.00131456 10.0005 1.54959e-19)
(0.000320392 10.0001 0)
(-0.0952612 9.9778 0)
(-0.120138 9.97111 0)
(-0.148848 9.96246 0)
(-0.184613 9.95311 0)
(-0.22984 9.94466 0)
(-0.286064 9.93896 0)
(-0.354084 9.93831 0)
(-0.434056 9.94565 0)
(-0.525422 9.96464 0)
(-0.626663 9.99966 0)
(-0.734937 10.0556 0)
(-0.845668 10.1373 0)
(-0.95221 10.2493 0)
(-1.04608 10.3938 0)
(-1.12055 10.5655 0)
(-1.17218 10.7569 0)
(-1.19726 10.9629 0)
(-1.19359 11.178 0)
(-1.16053 11.3963 0)
(-1.0989 11.6119 0)
(-1.01309 11.8385 0)
(-0.911972 12.0674 0)
(-0.807898 12.2756 0)
(-0.704969 12.4649 0)
(-0.605994 12.6371 0)
(-0.512724 12.7934 0)
(-0.426176 12.9342 0)
(-0.346897 13.0587 0)
(-0.275063 13.1636 0)
(-0.210469 13.2413 0)
(-0.152707 13.274 0)
(-0.101934 13.2237 0)
(-0.0533658 13.0149 0)
(-0.0240732 12.4286 0)
(-0.0947121 9.97663 0)
(-0.0700566 9.98152 -5.48393e-19)
(-0.04303 9.98468 5.11862e-19)
(-0.0164257 9.98779 -2.61482e-22)
(0.00511596 9.99203 4.40866e-19)
(0.0157003 9.99684 4.09223e-19)
(0.017243 10.0008 7.59592e-19)
(0.0116878 10.0023 5.28853e-19)
(0.00454264 10.0014 -1.63724e-19)
(0.00122442 10.0005 0)
(0.000290876 10.0001 0)
(-0.119032 9.96889 0)
(-0.147207 9.95881 0)
(-0.182391 9.94753 0)
(-0.227028 9.93648 0)
(-0.282724 9.92732 0)
(-0.350424 9.92209 0)
(-0.430533 9.92342 0)
(-0.522883 9.9347 0)
(-0.626531 9.96003 0)
(-0.739403 10.0042 0)
(-0.857894 10.0722 0)
(-0.97647 10.169 0)
(-1.08742 10.2986 0)
(-1.18135 10.4623 0)
(-1.25148 10.6532 0)
(-1.29504 10.8619 0)
(-1.30902 11.0828 0)
(-1.29209 11.3095 0)
(-1.24455 11.5357 0)
(-1.1761 11.773 0)
(-1.07996 12.019 0)
(-0.961926 12.2459 0)
(-0.844394 12.4491 0)
(-0.731013 12.6317 0)
(-0.62412 12.7961 0)
(-0.524977 12.9442 0)
(-0.434161 13.0766 0)
(-0.351858 13.1926 0)
(-0.277946 13.2892 0)
(-0.211992 13.3588 0)
(-0.153377 13.3838 0)
(-0.102208 13.326 0)
(-0.053426 13.1096 0)
(-0.0239819 12.515 0)
(-0.118052 9.96695 0)
(-0.0933828 9.97549 -8.0134e-22)
(-0.0680002 9.98125 0)
(-0.041471 9.9853 -4.11189e-22)
(-0.0151623 9.98917 0)
(0.00604023 9.99378 -4.32621e-19)
(0.016175 9.9984 -8.03118e-19)
(0.0173791 10.0018 1.7726e-23)
(0.0115128 10.0026 3.45996e-19)
(0.00435027 10.0014 -1.60677e-19)
(0.0011345 10.0005 1.49267e-19)
(0.000262614 10.0001 0)
(-0.145585 9.95559 0)
(-0.180193 9.94259 0)
(-0.224215 9.92923 0)
(-0.279293 9.91698 0)
(-0.346476 9.90763 0)
(-0.426366 9.90354 0)
(-0.519111 9.90778 0)
(-0.624239 9.9242 0)
(-0.740337 9.95734 0)
(-0.864659 10.0123 0)
(-0.992708 10.0941 0)
(-1.11791 10.2076 0)
(-1.23149 10.3561 0)
(-1.32324 10.5399 0)
(-1.3866 10.7499 0)
(-1.41977 10.9755 0)
(-1.42062 11.2101 0)
(-1.38879 11.4467 0)
(-1.33497 11.6962 0)
(-1.25642 11.9545 0)
(-1.14095 12.1994 0)
(-1.0065 12.4217 0)
(-0.876274 12.618 0)
(-0.753286 12.7925 0)
(-0.639275 12.9483 0)
(-0.534971 13.0876 0)
(-0.440484 13.2112 0)
(-0.355635 13.3187 0)
(-0.280019 13.4071 0)
(-0.212985 13.4688 0)
(-0.153721 13.4863 0)
(-0.102303 13.4212 0)
(-0.053409 13.1975 0)
(-0.0238566 12.5952 0)
(-0.144149 9.95275 0)
(-0.116115 9.96502 6.12744e-19)
(-0.0906605 9.97449 -5.73157e-19)
(-0.0660052 9.98124 5.31086e-19)
(-0.0398419 9.98629 0)
(-0.0138464 9.99095 0)
(0.00694691 9.99587 4.2453e-19)
(0.0165739 10.0002 -3.94005e-19)
(0.0174182 10.0029 1.83799e-23)
(0.0112613 10.0029 1.69818e-19)
(0.00413356 10.0013 -1.57715e-19)
(0.00104465 10.0004 -1.46494e-19)
(0.000235621 10.0001 0)
(-0.178038 9.93821 0)
(-0.221439 9.92279 0)
(-0.275858 9.90778 0)
(-0.342398 9.89475 0)
(-0.421812 9.88578 0)
(-0.514504 9.88366 0)
(-0.62039 9.89193 0)
(-0.73861 9.91488 0)
(-0.867167 9.95745 0)
(-1.0025 10.0249 0)
(-1.13913 10.1223 0)
(-1.26939 10.254 0)
(-1.38351 10.4226 0)
(-1.4706 10.6268 0)
(-1.52464 10.8559 0)
(-1.5451 11.0975 0)
(-1.53085 11.3441 0)
(-1.4935 11.6058 0)
(-1.42963 11.8782 0)
(-1.33012 12.1371 0)
(-1.19563 12.3781 0)
(-1.04556 12.5933 0)
(-0.903608 12.7811 0)
(-0.771954 12.9465 0)
(-0.651657 13.0931 0)
(-0.5429 13.2233 0)
(-0.445314 13.3381 0)
(-0.358366 13.4371 0)
(-0.281386 13.5174 0)
(-0.213525 13.5714 0)
(-0.153791 13.5816 0)
(-0.102247 13.5096 0)
(-0.0533287 13.279 0)
(-0.0237028 12.6696 0)
(-0.176149 9.93433 0)
(-0.141447 9.94992 0)
(-0.112394 9.96321 6.05396e-19)
(-0.0880038 9.97373 -1.12511e-18)
(-0.0639145 9.98155 1.04371e-18)
(-0.0381079 9.98765 -9.68315e-19)
(-0.0124824 9.99315 0)
(0.00781727 9.99832 4.16743e-19)
(0.016882 10.0023 -3.86652e-19)
(0.0173327 10.0041 -3.59001e-19)
(0.0109259 10.0032 0)
(0.00389264 10.0013 1.54789e-19)
(0.000955073 10.0004 0)
(0.000210418 10.0001 0)
(-0.218724 9.91708 0)
(-0.272462 9.89961 0)
(-0.338297 9.88328 0)
(-0.417067 9.86994 0)
(-0.509378 9.86208 0)
(-0.615466 9.86294 0)
(-0.734935 9.87654 0)
(-0.866426 9.9076 0)
(-1.00721 9.96134 0)
(-1.15282 10.0431 0)
(-1.29669 10.1578 0)
(-1.43011 10.3091 0)
(-1.54238 10.4985 0)
(-1.62215 10.7235 0)
(-1.66428 10.9711 0)
(-1.66973 11.2271 0)
(-1.65105 11.5009 0)
(-1.60391 11.7878 0)
(-1.51709 12.0628 0)
(-1.39663 12.319 0)
(-1.2438 12.5532 0)
(-1.07917 12.7595 0)
(-0.926579 12.9377 0)
(-0.787249 13.0933 0)
(-0.661504 13.2303 0)
(-0.548972 13.3512 0)
(-0.448823 13.4573 0)
(-0.360187 13.548 0)
(-0.282148 13.6204 0)
(-0.213682 13.667 0)
(-0.153631 13.6703 0)
(-0.102067 13.5917 0)
(-0.0531972 13.3546 0)
(-0.0235297 12.7386 0)
(-0.216376 9.91201 0)
(-0.172535 9.93047 0)
(-0.136351 9.94721 0)
(-0.10877 9.96163 1.18834e-18)
(-0.0852416 9.97323 -1.10251e-18)
(-0.0616841 9.9822 1.02301e-18)
(-0.0362631 9.98944 0)
(-0.0110796 9.99579 -4.40518e-19)
(0.00863224 10.0011 0)
(0.0170844 10.0045 3.79475e-19)
(0.017107 10.0054 0)
(0.0104994 10.0035 0)
(0.00362982 10.0013 0)
(0.000867653 10.0004 1.50489e-19)
(0.000187232 10.0001 7.35073e-20)
(-0.269143 9.89234 0)
(-0.334229 9.87307 0)
(-0.412263 9.85582 0)
(-0.503973 9.84279 0)
(-0.609848 9.83694 0)
(-0.729885 9.84201 0)
(-0.863267 9.86245 0)
(-1.00799 9.90336 0)
(-1.16049 9.97013 0)
(-1.31527 10.0681 0)
(-1.46471 10.2016 0)
(-1.59907 10.3737 0)
(-1.70688 10.5846 0)
(-1.77657 10.8301 0)
(-1.80414 11.0949 0)
(-1.80667 11.3805 0)
(-1.7788 11.6821 0)
(-1.70675 11.9741 0)
(-1.5966 12.248 0)
(-1.45562 12.4984 0)
(-1.28548 12.7237 0)
(-1.10753 12.9195 0)
(-0.945459 13.0872 0)
(-0.79945 13.2324 0)
(-0.669072 13.3596 0)
(-0.553402 13.4714 0)
(-0.451182 13.5688 0)
(-0.361226 13.6515 0)
(-0.282398 13.7163 0)
(-0.213519 13.7559 0)
(-0.153283 13.7526 0)
(-0.101786 13.6678 0)
(-0.053022 13.4246 0)
(-0.0233305 12.8024 0)
(-0.266309 9.88589 0)
(-0.211685 9.90696 0)
(-0.165666 9.92675 1.35995e-18)
(-0.131418 9.94475 1.26064e-18)
(-0.105037 9.96029 1.16883e-18)
(-0.0823244 9.97302 -1.08378e-18)
(-0.0593025 9.98322 0)
(-0.034305 9.99169 0)
(-0.00964801 9.99887 0)
(0.00937072 10.0042 8.0278e-19)
(0.0171524 10.0069 3.72506e-19)
(0.0167272 10.0067 3.45774e-19)
(0.00998201 10.0038 0)
(0.00335276 10.0013 -1.58995e-19)
(0.000783847 10.0004 -7.76854e-20)
(0.000165795 10 0)
(-0.33025 9.86399 0)
(-0.407471 9.84323 0)
(-0.498451 9.82557 0)
(-0.603831 9.81368 0)
(-0.72392 9.81099 0)
(-0.858369 9.8217 0)
(-1.0058 9.85069 0)
(-1.16346 9.90329 0)
(-1.32681 9.985 0)
(-1.48933 10.1009 0)
(-1.64232 10.2548 0)
(-1.77513 10.4486 0)
(-1.87569 10.6812 0)
(-1.9324 10.9464 0)
(-1.95909 11.2432 0)
(-1.95348 11.5598 0)
(-1.89884 11.8695 0)
(-1.80101 12.1626 0)
(-1.66767 12.432 0)
(-1.50702 12.674 0)
(-1.32085 12.8884 0)
(-1.13093 13.0726 0)
(-0.960574 13.2291 0)
(-0.808862 13.3638 0)
(-0.674623 13.4812 0)
(-0.556401 13.5839 0)
(-0.452553 13.673 0)
(-0.361602 13.7479 0)
(-0.28222 13.8055 0)
(-0.213093 13.8384 0)
(-0.152781 13.8289 0)
(-0.101424 13.7382 0)
(-0.0528119 13.4893 0)
(-0.0231156 12.8614 0)
(-0.326892 9.85592 0)
(-0.260351 9.87945 0)
(-0.202626 9.90208 -2.87707e-18)
(-0.159064 9.92332 3.94171e-21)
(-0.126372 9.94255 -2.47203e-18)
(-0.10114 9.95923 2.29218e-18)
(-0.0792373 9.97315 -1.06378e-18)
(-0.0567586 9.98466 0)