/*--------------------------------*- C++ -*----------------------------------*\
  =========                 |
  \\      /  F ield         | OpenFOAM: The Open Source CFD Toolbox
   \\    /   O peration     | Website:  https://openfoam.org
    \\  /    A nd           | Version:  8
     \\/     M anipulation  |
\*---------------------------------------------------------------------------*/
FoamFile
{
    version     2.0;
    format      ascii;
    class       volScalarField;
    location    "0.47";
    object      epsilon;
}
// * * * * * * * * * * * * * * * * * * * * * * * * * * * * * * * * * * * * * //

dimensions      [0 2 -3 0 0 0 0];

internalField   nonuniform List<scalar> 
15677
(
59.7286
18.3629
52.687
8.08319
26.0243
50.2367
4.62212
13.3233
31.6568
50.5468
3.17403
7.74867
17.1279
37.3427
51.6443
2.48695
5.05382
10.0479
20.8564
42.6985
53.6895
2.14422
3.62742
6.47246
12.1848
24.5813
47.7042
55.747
1.9793
2.82264
4.52948
7.73542
14.2982
28.2888
52.0617
57.6807
1.91148
2.35329
3.40378
5.3156
8.92802
16.4459
31.7905
55.7421
59.3744
1.88406
2.08023
2.72402
3.91169
6.02813
10.1183
18.5579
34.991
58.7564
60.872
1.8705
1.93934
2.30732
3.05657
4.36122
6.71421
11.2868
20.5928
37.8121
61.2271
62.133
1.86764
1.87828
2.05647
2.52149
3.34966
4.78019
7.37125
12.4326
22.4867
40.2749
63.2131
63.2403
1.86863
1.84884
1.91654
2.18616
2.71329
3.61727
5.17027
8.01006
13.5228
24.2337
42.37
64.8311
64.1632
1.86955
1.83871
1.85192
1.98264
2.30723
2.8875
3.86113
5.5415
8.61616
14.5564
25.7994
44.1575
66.1273
64.9867
1.86979
1.837
1.82113
1.86774
2.05153
2.41873
3.04464
4.08815
5.88865
9.19297
15.5093
27.2004
45.6496
67.1783
65.7042
1.86979
1.83726
1.81053
1.81335
1.89824
2.11778
2.51971
3.18864
4.29699
6.21555
9.72795
16.3871
28.4223
46.9014
68.0327
66.3392
1.86975
1.83752
1.80823
1.78978
1.81542
1.93046
2.1793
2.61176
3.31944
4.49047
6.51675
10.2242
17.1734
29.4858
47.9413
68.7272
66.9197
1.86972
1.83761
1.80793
1.78276
1.77571
1.82154
1.96266
2.23598
2.69491
3.4388
4.66685
6.79411
10.6729
17.8762
30.3917
48.7929
69.3205
67.4147
1.8697
1.83763
1.80794
1.78104
1.76146
1.76614
1.83187
1.99355
2.28745
2.77006
3.5465
4.82717
7.04403
11.0773
18.4869
31.1553
49.4961
69.7919
67.9141
1.8697
1.83762
1.80795
1.7807
1.75697
1.74389
1.76041
1.84334
2.02225
2.33392
2.83739
3.64313
4.97042
7.26784
11.4316
19.0137
31.7876
50.0484
70.2338
68.305
1.8697
1.83761
1.80794
1.78066
1.7557
1.73585
1.72948
1.75745
1.85484
2.04855
2.37552
2.89726
3.72876
5.09703
7.46356
11.7389
19.4539
32.2974
50.5071
70.5654
68.7679
1.8697
1.8376
1.80793
1.78064
1.75538
1.73312
1.71724
1.71795
1.75595
1.86609
2.07232
2.41239
2.94998
3.80353
5.20707
7.63186
11.9967
19.8159
32.7028
50.844
70.9314
69.0788
1.8697
1.83759
1.80791
1.78062
1.7553
1.73227
1.71262
1.70119
1.70841
1.7559
1.87662
2.09353
2.44483
2.99573
3.86812
5.30038
7.77308
12.2086
20.1014
33.0094
51.1285
71.1798
69.5368
1.8697
1.83758
1.8079
1.78059
1.75526
1.73201
1.711
1.69433
1.68713
1.70078
1.75622
1.88629
2.11231
2.47302
3.03516
3.92249
5.37849
7.88735
12.3755
20.319
33.2342
51.3219
71.5269
69.7897
1.8697
1.83758
1.80789
1.78057
1.75524
1.73191
1.71046
1.69169
1.67788
1.6751
1.69446
1.757
1.89515
2.1289
2.49748
3.06851
3.96797
5.44079
7.97777
12.5005
20.4751
33.3896
51.4828
71.7306
70.2473
1.86971
1.83757
1.80789
1.78055
1.75521
1.73185
1.71027
1.6907
1.67409
1.66336
1.66463
1.68939
1.75831
1.90337
2.1436
2.51857
3.09668
4.00465
5.49058
8.04388
12.5899
20.5746
33.4778
51.6024
72.1259
70.489
1.86971
1.83757
1.80788
1.78053
1.75519
1.7318
1.71018
1.69032
1.6726
1.65825
1.65048
1.6559
1.68547
1.76011
1.9111
2.15688
2.53705
3.12041
4.03453
5.52691
8.09158
12.6421
20.6328
33.532
51.6795
72.4208
428.455
1.86971
1.83757
1.80788
1.78052
1.75517
1.73176
1.71012
1.69014
1.67202
1.65609
1.64409
1.63943
1.64848
1.68277
1.76259
1.91891
2.16933
2.5536
3.14057
4.0578
5.55403
8.11875
12.6724
20.6419
33.5316
51.8008
88.7529
715.143
1.86971
1.83756
1.80788
1.78051
1.75515
1.73173
1.71007
1.69003
1.67176
1.65517
1.64133
1.63164
1.62994
1.64318
1.68181
1.76626
1.92715
2.18159
2.56905
3.15843
4.07698
5.57206
8.13598
12.6706
20.631
33.5366
52.7268
122.066
993.783
1.86971
1.83756
1.80788
1.7805
1.75514
1.7317
1.71003
1.68995
1.67162
1.65475
1.64014
1.62807
1.62104
1.62269
1.63904
1.68269
1.7714
1.93662
2.19455
2.58467
3.17524
4.09317
5.58484
8.13658
12.6604
20.6058
33.5656
55.2945
157.528
1239.44
1.86971
1.83756
1.80788
1.78049
1.75513
1.73168
1.70999
1.68989
1.67151
1.65453
1.63958
1.62645
1.61691
1.61244
1.6171
1.63868
1.68545
1.77872
1.94801
2.20923
2.60127
3.19225
4.10779
5.59298
8.13385
12.6392
20.5721
33.671
59.8729
189.981
1464.93
1.86971
1.83756
1.80788
1.78049
1.75513
1.73166
1.70996
1.68985
1.67143
1.65438
1.63928
1.62567
1.615
1.60747
1.60617
1.61491
1.64026
1.6911
1.78898
1.96229
2.22638
2.6201
3.21048
4.12269
5.59945
8.12773
12.6118
20.5324
33.9344
64.5974
220.716
1655.23
1.86971
1.83756
1.80788
1.78048
1.75512
1.73165
1.70994
1.68981
1.67136
1.65428
1.63908
1.62526
1.61406
1.60509
1.60085
1.60268
1.6161
1.64468
1.70065
1.80311
1.98026
2.24728
2.64209
3.23158
4.13915
5.60702
8.11987
12.5829
20.4898
34.4097
69.3988
247.692
1798.93
1.86971
1.83756
1.80788
1.78048
1.75511
1.73164
1.70992
1.68977
1.6713
1.65419
1.63893
1.62501
1.61355
1.60391
1.59826
1.5966
1.60364
1.62007
1.65346
1.71486
1.82197
2.00316
2.27275
2.66867
3.25643
4.15914
5.61706
8.11423
12.5524
20.4492
34.9778
73.7561
268.595
1909.75
1.86971
1.83755
1.80788
1.78047
1.75511
1.73162
1.7099
1.68974
1.67126
1.65412
1.63881
1.62483
1.61322
1.60329
1.59695
1.59362
1.59744
1.60741
1.62835
1.66788
1.73463
1.84678
2.03179
2.30411
2.7005
3.28655
4.18365
5.63151
8.11052
12.5198
20.4191
35.5255
77.1317
285.118
1998.09
1.83755
1.86975
1.80788
1.78047
1.75511
1.73161
1.70989
1.68972
1.67121
1.65406
1.63871
1.62469
1.61298
1.60291
1.59623
1.59214
1.59443
1.60116
1.61551
1.64303
1.6885
1.76118
1.87836
2.06744
2.34198
2.73903
3.32261
4.21393
5.65057
8.11097
12.4849
20.3827
35.9469
79.7287
298.476
2071.31
1.80788
1.83765
1.86982
1.78047
1.75511
1.73161
1.70988
1.6897
1.67118
1.65401
1.63862
1.62458
1.61278
1.60265
1.59578
1.59137
1.59295
1.59818
1.60934
1.63062
1.66451
1.71655
1.79543
1.91812
2.11082
2.38777
2.78457
3.36564
4.25018
5.67474
8.11412
12.4457
20.3394
36.2367
81.7185
309.779
2134.24
1.78046
1.80803
1.83785
1.86989
1.7551
1.7316
1.70987
1.68968
1.67115
1.65396
1.63854
1.62448
1.61261
1.60244
1.59545
1.59092
1.59221
1.59681
1.60659
1.6249
1.65299
1.69412
1.75319
1.83869
1.96659
2.16303
2.44153
2.83828
3.41571
4.29262
5.70764
8.12188
12.4105
20.281
36.4264
83.2943
319.563
2189.97
1.7551
1.78067
1.80835
1.83805
1.86997
1.73159
1.70986
1.68966
1.67113
1.65392
1.63848
1.62439
1.61247
1.60228
1.59518
1.59061
1.59181
1.5962
1.6055
1.62265
1.64823
1.6842
1.73317
1.79996
1.89198
2.02528
2.22441
2.50481
2.89992
3.47297
4.34687
5.75114
8.1365
12.3766
20.2152
36.5264
84.5597
328.389
2240.59
1.73159
1.75535
1.78109
1.80868
1.83827
1.87004
1.70985
1.68965
1.6711
1.65389
1.63843
1.62431
1.61235
1.60213
1.59496
1.59039
1.59155
1.59593
1.60519
1.62214
1.64703
1.68121
1.72583
1.78352
1.85804
1.95696
2.09468
2.29606
2.57652
2.96983
3.54474
4.41543
5.80209
8.15628
12.3473
20.1396
36.5817
85.6299
336.444
2287.16
1.70985
1.73188
1.75587
1.78152
1.80902
1.83848
1.87012
1.68963
1.67109
1.65385
1.63838
1.62425
1.61225
1.60201
1.59478
1.59021
1.59136
1.59579
1.6052
1.62242
1.64749
1.6815
1.72503
1.77969
1.84677
1.9296
2.0345
2.1763
2.3779
2.65781
3.05667
3.63382
4.49228
5.85943
8.18133
12.3203
20.0634
36.5812
86.5503
343.977
2330.69
1.68962
1.71018
1.73248
1.7564
1.78197
1.80936
1.83871
1.8702
1.67107
1.65383
1.63835
1.62418
1.61217
1.60191
1.59462
1.59006
1.59122
1.59573
1.60534
1.62299
1.64877
1.68367
1.72777
1.7822
1.84702
1.92431
2.0156
2.12658
2.27018
2.47134
2.75764
3.16341
3.7321
4.5759
5.92216
8.21037
12.2984
19.9851
36.5702
87.3783
351.07
2371.35
1.67105
1.68998
1.71085
1.73309
1.75695
1.78242
1.80972
1.83893
1.87028
1.6538
1.63831
1.62413
1.6121
1.60181
1.59448
1.58994
1.59111
1.5957
1.60552
1.62365
1.65029
1.68667
1.73249
1.78862
1.85446
1.93074
2.01725
2.11716
2.23367
2.37817
2.58722
2.88211
3.27987
3.83736
4.66523
5.98882
8.24329
12.2798
19.9106
36.5464
88.1356
357.775
2409.83
1.65378
1.67144
1.69072
1.71155
1.73372
1.75751
1.78289
1.81008
1.83917
1.87037
1.63828
1.62408
1.61204
1.60172
1.59437
1.58984
1.59103
1.59569
1.60573
1.62432
1.65185
1.68982
1.73804
1.79725
1.86608
1.94502
2.03221
2.1287
2.2345
2.3559
2.514
2.73346
3.01954
3.40502
3.94783
4.7584
6.05847
8.27903
12.2659
19.8406
36.5126
88.8379
364.196
2445.88
1.63826
1.65418
1.67223
1.69148
1.71226
1.73438
1.75809
1.78337
1.81045
1.83941
1.87046
1.62404
1.61199
1.60164
1.59427
1.58975
1.59096
1.5957
1.60593
1.62496
1.65336
1.69289
1.74362
1.8068
1.88026
1.96407
2.0557
2.15495
2.25914
2.37076
2.50829
2.68388
2.89593
3.16822
3.53798
4.06317
4.85426
6.13005
8.31712
12.255
19.7762
36.4789
89.5111
370.264
2480.15
1.62401
1.63866
1.65501
1.67304
1.69226
1.71299
1.73505
1.75868
1.78387
1.81083
1.83966
1.87055
1.61195
1.60157
1.5942
1.58968
1.5909
1.59571
1.60613
1.62557
1.65479
1.69579
1.74899
1.81625
1.89552
1.98638
2.08491
2.19102
2.29991
2.41204
2.54314
2.70152
2.87168
3.0741
3.3282
3.67736
4.18171
4.95165
6.20268
8.35665
12.2485
19.7175
36.4473
90.1417
376.112
2512.17
1.61191
1.6244
1.63952
1.65586
1.67388
1.69306
1.71375
1.73574
1.75929
1.78438
1.81123
1.83991
1.87064
1.6015
1.59413
1.58961
1.59085
1.59573
1.60632
1.62613
1.65613
1.69849
1.75408
1.82532
1.91054
2.01021
2.11848
2.23442
2.35247
2.4719
2.60735
2.76465
2.91921
3.076
3.26221
3.49647
3.82117
4.30234
5.04957
6.27547
8.39723
12.2438
19.6653
36.4203
90.7623
381.625
2542.66
1.60144
1.61229
1.62524
1.64039
1.65675
1.67475
1.69389
1.71452
1.73645
1.75991
1.78491
1.81163
1.84018
1.87073
1.59409
1.58954
1.5908
1.59575
1.6065
1.62665
1.65737
1.701
1.75885
1.83389
1.92496
2.03381
2.15431
2.28406
2.4148
2.5467
2.69408
2.86198
3.0174
3.16048
3.29656
3.45898
3.67148
3.96872
4.42401
5.14707
6.34774
8.43812
12.2435
19.619
36.3988
91.3428
386.94
2571.01
1.59406
1.60175
1.61311
1.62611
1.6413
1.65766
1.67563
1.69475
1.71532
1.73718
1.76055
1.78545
1.81204
1.84043
1.87082
1.58947
1.59076
1.59577
1.60666
1.62713
1.65851
1.7033
1.7633
1.8419
1.93869
2.05667
2.18994
2.33748
2.48636
2.63525
2.80084
2.98862
3.15724
3.30174
3.42411
3.53135
3.66252
3.84924
4.11836
4.54554
5.24341
6.41886
8.47902
12.2445
19.5783
36.384
91.9227
391.939
2598.02
1.58941
1.59434
1.60243
1.61395
1.62701
1.64224
1.6586
1.67654
1.69563
1.71613
1.73793
1.76121
1.786
1.81245
1.84069
1.8709
1.59071
1.59578
1.60682
1.62758
1.65956
1.70542
1.76743
1.84934
1.95167
2.07854
2.22463
2.39134
2.56423
2.73794
2.92787
3.14443
3.33683
3.49551
3.61762
3.70875
3.77828
3.87167
4.02734
4.26818
4.66586
5.33779
6.48833
8.51949
12.2471
19.5427
36.374
92.4611
396.744
2622.99
1.5907
1.58944
1.59493
1.60313
1.61482
1.62795
1.6432
1.65958
1.67748
1.69654
1.71697
1.7387
1.76188
1.78654
1.81285
1.84093
1.87098
1.59579
1.60695
1.62798
1.66051
1.70736
1.77122
1.85623
1.96387
2.09927
2.25811
2.44465
2.64363
2.85128
3.07738
3.33283
3.56029
3.74504
3.87946
3.96521
4.01302
4.03528
4.08474
4.20462
4.41648
4.78382
5.42969
6.55574
8.55917
12.2518
19.5121
36.3713
93.0034
401.261
2646.83
1.59583
1.5906
1.58952
1.59553
1.60387
1.61572
1.62893
1.64419
1.66058
1.67845
1.69747
1.71784
1.73949
1.76255
1.78707
1.81323
1.84117
1.87106
1.60707
1.62834
1.66138
1.70913
1.77471
1.86258
1.97527
2.11874
2.29023
2.49682
2.72278
2.96891
3.24619
3.56043
3.83731
4.0626
4.22215
4.31339
4.3453
4.33568
4.30042
4.29983
4.37997
4.5624
4.89916
5.51879
6.62082
8.59785
12.2579
19.4855
36.3732
93.5018
405.576
2668.73
1.60724
1.59552
1.59036
1.58957
1.59617
1.60468
1.61665
1.62996
1.64521
1.66162
1.67944
1.69843
1.71872
1.74027
1.76319
1.78759
1.81361
1.8414
1.87114
1.62865
1.66215
1.71074
1.7779
1.86842
1.98587
2.13695
2.32088
2.5473
2.80078
3.08895
3.42609
3.82567
4.18396
4.47142
4.67418
4.78245
4.80399
4.75949
4.67583
4.57199
4.5153
4.55229
4.70407
5.01142
5.60475
6.68335
8.63534
12.2649
19.4631
36.378
94.0065
409.644
2689.68
1.62902
1.60659
1.59467
1.59006
1.58974
1.59682
1.60556
1.61761
1.63102
1.64626
1.66269
1.68046
1.69941
1.7196
1.74103
1.76382
1.78809
1.81397
1.84162
1.87122
1.66284
1.71219
1.7808
1.87379
1.99569
2.15391
2.34999
2.59564
2.8771
3.21059
3.61387
4.11699
4.60651
5.01088
5.28771
5.43104
5.44591
5.35977
5.20984
5.03273
4.8485
4.72975
4.72102
4.84036
5.11983
5.68727
6.7432
8.67149
12.2728
19.4437
36.3886
94.465
413.502
2706.44
1.66358
1.62779
1.60477
1.59372
1.58982
1.59011
1.59748
1.6065
1.6186
1.63213
1.64734
1.6638
1.68151
1.70039
1.72045
1.74177
1.76444
1.78858
1.81433
1.84184
1.87129
1.71351
1.78344
1.87871
2.00475
2.16968
2.37747
2.64156
2.95153
3.33274
3.80666
4.4307
5.09723
5.71336
6.14952
6.36174
6.37735
6.23405
5.98892
5.69808
5.40558
5.12856
4.94202
4.8856
4.97109
5.22391
5.76617
6.80027
8.7062
12.2812
19.4279
36.3985
94.9312
416.665
2720.55
1.71484
1.66172
1.62435
1.60281
1.59286
1.58954
1.59063
1.59815
1.6075
1.61962
1.63327
1.64847
1.66492
1.68255
1.70133
1.72128
1.74249
1.76504
1.78905
1.81467
1.84205
1.87136
1.78586
1.88321
2.01309
2.18433
2.40331
2.68498
3.02392
3.45394
4.00182
4.76662
5.6609
6.58262
7.33519
7.73128
7.77059
7.55206
7.16335
6.69659
6.22451
5.79316
5.41086
5.15114
5.04533
5.09615
5.32335
5.84132
6.85452
8.73939
12.29
19.4141
36.4169
95.2937
419.361
2735.77
1.7882
1.71215
1.65614
1.62069
1.60102
1.59211
1.58925
1.59128
1.59885
1.60856
1.62068
1.63445
1.64962
1.66604
1.68357
1.70225
1.72209
1.74318
1.76562
1.78951
1.81501
1.84225
1.87143
1.88738
2.02076
2.19792
2.4275
2.72596
3.09407
3.5727
4.19796
5.12611
6.30277
7.62596
8.84643
9.66086
9.86598
9.56852
8.97738
8.24031
7.4829
6.78738
6.19365
5.69404
5.35629
5.19971
5.21546
5.41801
5.91265
6.90595
8.77104
12.299
19.4032
36.4292
95.6245
422.234
2752.35
1.8913
1.78449
1.70352
1.65029
1.6173
1.5994
1.59142
1.58903
1.592
1.59959
1.60966
1.6218
1.63565
1.65077
1.66713
1.68457
1.70315
1.72288
1.74386
1.76618
1.78996
1.81533
1.84245
1.87147
2.0279
2.21054
2.45008
2.76459
3.1617
3.68786
4.39512
5.5103
7.02195
8.83927
10.6754
12.1315
12.8338
12.622
11.779
10.6557
9.46032
8.34264
7.38278
6.60456
5.9767
5.55675
5.34838
5.32902
5.50782
5.98017
6.95457
8.80112
12.3081
19.3949
36.4458
95.963
425.427
2770.32
2.03443
1.88632
1.77153
1.69456
1.64482
1.61417
1.59791
1.59081
1.58889
1.59278
1.60041
1.61079
1.62296
1.63685
1.6519
1.66819
1.68553
1.70402
1.72365
1.74452
1.76673
1.79039
1.81565
1.84255
1.87147
2.22238
2.47117
2.80102
3.22649
3.79876
4.59423
5.91872
7.81143
10.2056
12.7988
15.1165
16.6334
16.954
16.0318
14.3996
12.5731
10.8098
9.26622
8.00504
7.02287
6.25742
5.7519
5.4911
5.43687
5.59279
6.04392
7.00046
8.82965
12.316
19.389
36.4594
96.3667
428.867
2789.96
2.23299
2.0279
1.86717
1.75821
1.68614
1.63967
1.61123
1.59652
1.59029
1.58885
1.5936
1.6013
1.61195
1.62414
1.63802
1.65301
1.66922
1.68648
1.70486
1.72439
1.74516
1.76726
1.79081
1.8158
1.84255
1.87147
2.49104
2.83543
3.28826
3.90535
4.7964
6.3489
8.66011
11.7007
15.1784
18.5728
21.2256
22.5146
22.0877
20.1003
17.4094
14.7048
12.2694
10.2413
8.64735
7.44524
6.53476
5.9412
5.62773
5.53907
5.67303
6.104
7.04367
8.85307
12.323
19.3826
36.4836
96.7812
432.681
2811.26
2.50845
2.22445
1.99998
1.84775
1.74568
1.67816
1.63476
1.60846
1.59524
1.58986
1.58891
1.59444
1.60228
1.6131
1.6253
1.63915
1.6541
1.67022
1.6874
1.70569
1.72512
1.74578
1.76778
1.79102
1.8158
1.84255
1.87147
2.86811
3.34704
4.00821
5.00246
6.79664
9.55488
13.2977
17.7681
22.4351
26.5442
29.2576
29.9049
28.2693
24.8096
20.7745
17.0198
13.8169
11.2545
9.30248
7.86823
6.80736
6.12423
5.75818
5.63576
5.74865
6.16049
7.07894
8.87295
12.3308
19.3774
36.504
97.279
436.818
2834.54
2.89638
2.49762
2.18382
1.97202
1.82947
1.73374
1.67049
1.63006
1.60586
1.59408
1.58955
1.58911
1.59529
1.60331
1.61421
1.62646
1.64025
1.65515
1.67119
1.68829
1.70649
1.72583
1.74639
1.76804
1.79102
1.8158
1.84255
1.87147
3.40311
4.1083
5.21284
7.25656
10.4819
14.9692
20.5193
26.625
32.4829
37.0838
39.4326
38.8915
35.4979
30.1201
24.4511
19.4837
15.4294
12.2921
9.96332
8.28856
7.07396
6.30058
5.88245
5.72709
5.81983
6.20662
7.10875
8.8947
12.3398
19.3719
36.5393
97.7936
441.385
2859.75
3.45112
2.88244
2.43848
2.14378
1.94571
1.812
1.72223
1.66311
1.62557
1.60345
1.59303
1.58931
1.58954
1.5961
1.60438
1.6153
1.62759
1.64133
1.65619
1.67214
1.68916
1.70726
1.72651
1.74669
1.76804
1.79102
1.8158
1.84255
1.87147
4.20628
5.42561
7.72301
11.4277
16.6884
23.3834
31.0584
38.9097
45.822
50.524
51.9155
49.5083
43.7345
35.9732
28.3888
22.0611
17.0849
13.3417
10.6233
8.70321
7.3334
6.47
6.00058
5.81323
5.87776
6.24565
7.14126
8.91853
12.3499
19.3682
36.5706
98.4089
446.406
2887.28
4.29169
3.43362
2.79514
2.38116
2.1061
1.92049
1.7951
1.71108
1.65599
1.62126
1.60125
1.59209
1.58906
1.59017
1.59689
1.60545
1.61636
1.6287
1.64238
1.65719
1.67307
1.69001
1.70802
1.72685
1.74669
1.76804
1.79102
1.8158
1.84255
1.87143
5.63746
8.19177
12.38
18.4303
26.3133
35.6514
45.6819
55.2543
62.9098
67.1295
66.797
61.728
52.9026
42.2939
32.5329
24.7172
18.7629
14.3918
11.2767
9.10948
7.58477
6.63229
6.11266
5.8837
5.92654
6.28825
7.17673
8.94464
12.3617
19.3646
36.6214
99.0588
451.91
2917.01
4.26938
5.82348
3.30075
2.71242
2.32726
2.06995
1.89606
1.77872
1.70032
1.64916
1.61715
1.59921
1.59125
1.58879
1.5909
1.59767
1.60652
1.61742
1.62979
1.64341
1.65817
1.67397
1.69083
1.7084
1.72685
1.74669
1.76804
1.79102
1.8158
1.84245
1.87136
8.65802
13.3279
20.1724
29.2654
40.3241
52.6585
65.1447
76.2413
84.1257
87.0723
84.0803
75.4597
62.8927
48.9957
36.8273
27.4192
20.4452
15.4328
11.9184
9.50517
7.82729
6.78732
6.2048
5.94339
5.97954
6.33473
7.21544
8.97331
12.3749
19.3639
36.6701
99.821
458.058
2949.42
4.05168
5.80695
9.0721
3.17917
2.63479
2.27551
2.03491
1.87236
1.76287
1.68996
1.64262
1.61328
1.59738
1.59054
1.58862
1.59167
1.59847
1.60757
1.61845
1.63085
1.64442
1.65912
1.67485
1.69124
1.70839
1.72686
1.74669
1.76804
1.79102
1.81564
1.84225
1.87129
14.2593
21.8954
32.2021
45.0046
59.7093
75.2646
90.1417
102.367
109.743
110.412
103.673
90.5531
73.5683
55.9847
41.2167
30.1369
22.1158
16.4562
12.5444
9.88851
8.06037
6.91554
6.28304
6.00859
6.03714
6.38545
7.25771
9.00476
12.3904
19.3649
36.7414
100.659
464.738
2984.24
3.86041
5.41997
9.08707
15.0886
3.06607
2.56024
2.22535
2.00089
1.8494
1.74757
1.68001
1.63641
1.60972
1.59578
1.58996
1.58857
1.59246
1.59929
1.6086
1.61948
1.63188
1.6454
1.66006
1.67528
1.69124
1.7084
1.72686
1.74669
1.76804
1.79081
1.81533
1.84204
1.87122
23.5787
35.0914
49.6334
66.7216
85.4098
104.252
121.272
134.016
139.907
137.081
125.39
106.806
84.7742
63.1655
45.6494
32.8433
23.7609
17.4555
13.1516
10.2581
8.25413
7.02487
6.3688
6.07987
6.09976
6.44079
7.30387
9.03937
12.4079
19.3681
36.8185
101.607
472.335
3022.08
3.68633
5.08313
8.37702
15.1773
25.0864
2.95783
2.48806
2.17669
1.96794
1.82724
1.73287
1.67051
1.63059
1.60655
1.59441
1.58953
1.58862
1.59323
1.60014
1.60961
1.62049
1.63289
1.64637
1.66052
1.67528
1.69124
1.7084
1.72686
1.74669
1.76778
1.79038
1.815
1.84183
1.87114
37.901
54.1619
73.607
95.4121
118.263
140.295
159.025
171.442
174.615
166.883
148.957
123.977
96.3469
70.446
50.0777
35.5149
25.3696
18.4253
13.7374
10.566
8.41985
7.14518
6.46287
6.15784
6.16789
6.50116
7.35432
9.07739
12.4285
19.3745
36.9165
102.702
480.508
3062.38
3.52256
4.77838
7.7449
13.9441
25.3584
40.4229
2.85331
2.41817
2.12961
1.93615
1.80592
1.7188
1.66156
1.62531
1.60377
1.59325
1.58923
1.58879
1.59398
1.60101
1.61058
1.62149
1.63388
1.64684
1.66051
1.67528
1.69125
1.7084
1.72686
1.74639
1.76725
1.78994
1.81466
1.84161
1.87106
58.542
80.2982
105.148
131.934
158.979
183.959
203.769
214.749
213.703
199.488
174.028
141.802
108.124
77.7399
54.4594
38.1323
26.9328
19.3616
14.2258
10.8298
8.60282
7.27773
6.56615
6.24316
6.24202
6.567
7.40943
9.11929
12.4518
19.3861
37.038
103.899
489.977
3106.03
3.36682
4.49437
7.16554
12.8116
23.4298
41.0293
62.4692
2.75238
2.35071
2.08423
1.90558
1.7855
1.70549
1.65337
1.62062
1.60135
1.59227
1.58903
1.58912
1.5947
1.6019
1.61154
1.6225
1.63437
1.64684
1.66051
1.67528
1.69125
1.7084
1.72651
1.74577
1.76671
1.78949
1.81431
1.84139
1.87098
86.7285
114.532
145.1
176.985
208.154
235.713
255.751
263.876
256.838
234.448
200.206
160.009
119.951
84.9696
58.7591
40.6796
28.4436
20.1426
14.6443
11.1214
8.80502
7.42389
6.67963
6.33658
6.32274
6.63879
7.46966
9.16542
12.479
19.4044
37.1737
105.345
500.06
3151.83
3.21862
4.22763
6.62243
11.7507
21.621
38.2001
63.5974
92.4675
2.65515
2.28583
2.04064
1.87631
1.76616
1.69328
1.64603
1.61643
1.59928
1.59145
1.58884
1.5896
1.59538
1.60281
1.61252
1.623
1.63435
1.64684
1.66052
1.67529
1.69125
1.70802
1.72582
1.74515
1.76616
1.78903
1.81396
1.84116
1.8709
123.479
157.663
194.107
231.14
266.318
295.956
315.083
318.575
303.515
271.218
227.069
178.336
131.686
92.0696
62.9476
43.1439
29.705
20.812
15.107
11.444
9.02868
7.58522
6.80444
6.43893
6.41066
6.71705
7.53546
9.21625
12.5108
19.426
37.3615
106.878
511.951
3209.93
3.0778
3.97777
6.11084
10.7412
19.8885
35.5196
59.6486
94.3126
131.397
2.56181
2.22372
1.99896
1.84861
1.7484
1.68231
1.63946
1.61269
1.59751
1.59076
1.58863
1.59017
1.59608
1.60378
1.61298
1.62297
1.63434
1.64684
1.66052
1.6753
1.69084
1.70726
1.72511
1.7445
1.76559
1.78856
1.81359
1.84092
1.87081
169.524
210.243
252.664
294.927
333.99
365.019
381.714
378.384
353.07
309.193
254.194
196.538
143.211
98.9857
67.0011
45.2031
30.7867
21.5526
15.6192
11.8013
9.27628
7.76344
6.94181
6.55111
6.50647
6.80233
7.60735
9.27244
12.5467
19.4634
37.5515
108.81
526.791
3277.69
2.94409
3.74531
5.63116
9.77802
18.2053
32.9157
55.9033
89
134.116
179.883
2.47261
2.16453
1.95958
1.82319
1.73243
1.67246
1.63357
1.60936
1.596
1.59018
1.58849
1.59082
1.59688
1.60426
1.61291
1.62298
1.63435
1.64685
1.66053
1.67486
1.69001
1.70648
1.72438
1.74384
1.76501
1.78807
1.81322
1.84068
1.87073
225.294
272.641
321.226
368.922
411.727
443.161
455.397
442.63
404.715
347.735
281.181
214.407
154.425
105.674
70.3879
46.9695
31.984
22.3725
16.1866
12.1972
9.55056
7.96046
7.09311
6.67411
6.61092
6.89523
7.68584
9.33418
12.5904
19.5006
37.8381
111.182
546.598
3343.06
2.81696
3.53143
5.18477
8.86716
16.5604
30.3507
52.2391
83.9991
127.142
183.535
238.178
2.38791
2.10876
1.92351
1.80035
1.71808
1.66361
1.6283
1.60645
1.5947
1.5897
1.58848
1.59162
1.5972
1.6042
1.6129
1.62298
1.63436
1.64686
1.66007
1.67397
1.68916
1.70567
1.72363
1.74316
1.76442
1.78757
1.81284
1.84043
1.87064
290.984
345.17
400.341
453.85
500.156
530.547
535.656
510.43
457.569
386.22
307.679
231.769
165.25
111.255
73.2923
48.9249
33.3101
23.281
16.8153
12.6362
9.85456
8.17839
7.25984
6.80903
6.7248
6.99637
7.77149
9.40287
12.6379
19.5681
38.159
114.638
567.547
3405.35
2.69618
3.33775
4.77319
8.00997
14.9544
27.8066
48.6008
79.105
120.683
174.503
242.659
306.238
2.30852
2.05781
1.89114
1.77982
1.70518
1.65567
1.62361
1.60388
1.59356
1.58939
1.58878
1.59199
1.59703
1.60422
1.61291
1.62298
1.63439
1.64639
1.65913
1.67307
1.68828
1.70485
1.72286
1.74246
1.76381
1.78706
1.81244
1.84017
1.87055
366.716
428.271
490.821
550.691
600.039
627.227
621.755
580.704
510.718
424.085
333.396
248.485
174.259
116.035
76.5055
51.0908
34.78
24.2882
17.5125
13.123
10.1916
8.41954
7.44365
6.95704
6.849
7.10643
7.86497
9.47789
12.6987
19.6405
38.751
118.067
590.784
3463.22
2.58286
3.16016
4.39674
7.20931
13.4015
25.2816
44.9562
74.2379
114.405
166.336
231.007
311.21
383.882
2.23641
2.01222
1.86213
1.76138
1.69359
1.64857
1.61942
1.6016
1.59268
1.58946
1.5888
1.59185
1.59702
1.60422
1.61292
1.62302
1.6339
1.64541
1.65817
1.67214
1.68739
1.704
1.72208
1.74175
1.76318
1.78653
1.81204
1.83991
1.87046
452.759
522.778
593.944
660.933
712.339
733.047
712.634
652.238
563.294
460.847
358.098
262.352
181.96
121.314
80.061
53.4908
36.4099
25.4053
18.2858
13.663
10.5653
8.6864
7.64631
7.11942
6.98446
7.22607
7.96675
9.56233
12.7738
19.7969
39.29
122.396
615.395
3516.23
2.4799
2.99735
4.05694
6.47023
11.9177
22.787
41.2932
69.3431
108.198
158.516
220.79
296.127
388.705
471.05
2.17227
1.97144
1.83612
1.74483
1.6832
1.64218
1.61567
1.59973
1.59235
1.58936
1.58848
1.59188
1.59703
1.60421
1.61301
1.62253
1.6329
1.64442
1.65719
1.67119
1.68647
1.70314
1.72127
1.74102
1.76254
1.78599
1.81163
1.83965
1.87037
549.835
630.013
711.848
786.797
838.142
847.497
806.933
723.784
614.523
496.119
378.522
274.173
190.441
127.143
83.9955
56.1506
38.2177
26.6446
19.1436
14.262
10.9795
8.98163
7.86972
7.29752
7.13212
7.35614
8.07794
9.67042
12.8885
19.9405
40.1065
126.763
642.241
3563.25
2.38849
2.85122
3.75516
5.79895
10.5197
20.3409
37.615
64.3874
101.974
150.89
211.221
283.366
369.012
474.747
568.158
2.11521
1.93498
1.81282
1.72998
1.67384
1.63642
1.61249
1.59869
1.592
1.58896
1.58847
1.59188
1.59706
1.60429
1.61255
1.62151
1.63189
1.64342
1.65619
1.67022
1.68553
1.70225
1.72045
1.74026
1.76188
1.78544
1.81122
1.8394
1.87029
659.003
752.478
848.081
931.281
978.388
969.588
903.088
794.148
663.757
525.209
395.881
287.146
199.772
133.574
88.3476
59.0978
40.2228
28.0193
20.095
14.9259
11.4383
9.30804
8.11583
7.49267
7.29319
7.49732
8.22081
9.80963
13.0054
20.1737
40.8644
132.236
670.93
3603.97
2.3076
2.72118
3.49701
5.20273
9.22848
17.9651
33.9355
59.3555
95.6667
143.327
202.1
271.751
353.005
448.693
569.424
676.549
2.06442
1.9024
1.79193
1.71661
1.66538
1.63149
1.61046
1.59789
1.59145
1.58897
1.58848
1.59187
1.59725
1.60382
1.61157
1.62051
1.63085
1.64239
1.65516
1.66922
1.68457
1.70134
1.7196
1.73949
1.7612
1.78489
1.81083
1.83915
1.8702
782.923
895.101
1008.11
1097.89
1133.57
1097.95
999.448
862.252
704.355
549.875
414.862
301.359
210.025
140.663
93.1581
62.3621
42.4458
29.5438
21.1495
15.6614
11.946
9.66848
8.38661
7.70648
7.46848
7.6786
8.39724
9.95448
13.1544
20.3959
41.9454
138.002
701.603
3636.94
2.23615
2.60486
3.28404
4.69413
8.06248
15.6834
30.2774
54.2443
89.2294
135.717
193.236
261.019
338.911
428.476
534.317
673.965
798.891
2.01919
1.8733
1.77316
1.70454
1.65809
1.62812
1.60905
1.59713
1.59147
1.58898
1.58852
1.59203
1.59694
1.60284
1.6106
1.6195
1.6298
1.64135
1.65411
1.6682
1.68359
1.7004
1.71874
1.73871
1.76054
1.78436
1.81044
1.83892
1.87012
927.246
1066.16
1199.29
1290.53
1304.07
1231.01
1094.3
918.643
738.74
576.756
435.56
316.893
221.267
148.465
98.4688
65.9739
44.9085
31.2331
22.3174
16.4751
12.5069
10.0658
8.68418
7.93999
7.69463
7.89634
8.57955
10.1131
13.3087
20.719
43.0261
144.906
735.787
3661.73
2.17305
2.50112
3.1036
4.27057
7.0511
13.5454
26.672
49.0624
82.6247
127.969
184.466
250.901
326.376
411.301
508.632
625.52
790.648
941.092
1.9789
1.84723
1.75624
1.69409
1.65289
1.62593
1.60799
1.59717
1.59149
1.589
1.58888
1.59167
1.59615
1.60194
1.60963
1.61849
1.62872
1.64028
1.65304
1.66716
1.68259
1.69944
1.71786
1.73793
1.7599
1.78385
1.81007
1.83868
1.87005
1101.32
1277.7
1431.66
1514.97
1490.98
1366.63
1173.72
966.46
776.13
605.938
458.051
333.816
233.56
157.031
104.321
69.9643
47.6332
33.1026
23.609
17.3737
13.1252
10.5029
9.00999
8.24214
7.97007
8.11875
8.76935
10.2795
13.4994
21.0517
44.4192
152.713
771.429
3680.11
2.11729
2.40908
2.94767
3.92076
6.20123
11.6348
23.1866
43.8329
75.8262
119.991
175.64
241.167
315.017
396.665
487.584
592.749
722.755
923.645
1113.51
1.94293
1.82381
1.74154
1.68644
1.64961
1.62454
1.60805
1.59719
1.59151
1.58945
1.58888
1.59087
1.59545
1.60106
1.60863
1.61746
1.62762
1.63918
1.65195
1.66608
1.68156
1.69847
1.71698
1.73717
1.75927
1.78335
1.80971
1.83846
1.86997
1321.3
1548.99
1724.01
1782.71
1695.06
1482.48
1241.33
1018.42
816.57
637.464
482.38
352.179
246.956
166.408
110.754
74.3635
50.642
35.1676
25.0345
18.364
13.8053
10.9817
9.43244
8.60973
8.25345
8.34662
8.96558
10.4617
13.705
21.4817
45.9707
161.567
809.97
3691.39
2.06782
2.32786
2.81066
3.63265
5.4964
9.99164
19.9571
38.6329
68.8232
111.7
166.6
231.596
304.52
384.013
470.444
566.844
681.007
827.978
1083.04
1332.85
1.91074
1.80346
1.73054
1.68175
1.64779
1.62464
1.60808
1.5972
1.59211
1.58959
1.5886
1.59023
1.59477
1.60021
1.60761
1.61642
1.6265
1.63806
1.65084
1.66498
1.68052
1.6975
1.71614
1.73644
1.75866
1.78286
1.80935
1.83824
1.8699
1619.8
1927.99
2116.04
2115.19
1873.67
1581.47
1314.78
1074.45
860.02
671.316
508.552
372.006
261.488
176.634
117.801
79.1993
53.9557
37.4429
26.6038
19.4522
14.55
11.6028
9.94627
8.98734
8.54368
8.5802
9.17004
10.6563
13.9483
21.9682
47.767
171.895
848.988
3698.13
2.02379
2.25635
2.6888
3.39828
4.91727
8.60481
17.0672
33.6572
61.6767
103.02
157.185
221.96
294.583
372.918
456.363
546.706
649.073
775.205
947.06
1292.56
1640.5
1.88276
1.78801
1.72387
1.67942
1.64793
1.62468
1.60809
1.59803
1.59251
1.58954
1.58864
1.58969
1.59406
1.59938
1.60656
1.61537
1.62537
1.63692
1.64971
1.66386
1.67949
1.69657
1.71532
1.73573
1.75807
1.78239
1.80901
1.83803
1.86983
2111.52
2518.61
2717.2
2408.23
2025.25
1688.37
1393.56
1134.27
906.32
707.401
536.52
393.281
277.166
187.732
125.489
84.4945
57.5924
39.9414
28.3257
20.6429
15.5151
12.3571
10.4733
9.37295
8.83992
8.81987
9.3833
10.869
14.2231
22.5352
49.9397
182.966
890.085
3700.5
1.98557
2.19335
2.58
3.20458
4.44378
7.44514
14.5221
29.0539
54.6248
93.9546
147.227
212.009
284.902
362.976
444.766
530.984
625.382
735.934
880.386
1094.04
1605.79
2198.92
1.86116
1.77884
1.72088
1.67963
1.64799
1.62468
1.60925
1.5989
1.59287
1.58988
1.58882
1.58924
1.59331
1.59858
1.60552
1.61429
1.62423
1.63574
1.64856
1.66276
1.67849
1.69566
1.71452
1.73504
1.7575
1.78193
1.80868
1.83783
1.86976
2977.35
3694.58
3206.99
2646.5
2184.41
1801.11
1476.72
1197.41
955.176
745.533
566.169
415.945
293.969
199.704
133.83
90.2646
61.5655
42.6736
30.2062
22.1841
16.6849
13.1292
11.0098
9.76469
9.14135
9.06645
9.60683
11.1012
14.5364
23.2217
52.2941
195.843
931.583
3700.87
1.95574
2.13919
2.48311
3.04012
4.05942
6.48694
12.3265
24.8615
47.8784
84.7419
136.627
201.468
275.147
353.81
435.122
518.902
607.747
708.072
832.422
1008.9
1302.28
2202.1
3388.57
1.84844
1.77508
1.72118
1.67971
1.64797
1.62618
1.61074
1.6
1.59381
1.59041
1.58906
1.58896
1.59255
1.59781
1.60447
1.6132
1.62308
1.63454
1.64744
1.66169
1.67753
1.69478
1.71375
1.73437
1.75694
1.78149
1.80836
1.83763
1.86972
5126.1
4428.09
3550.98
2876.55
2345.57
1917.29
1563.03
1263.16