/*--------------------------------*- C++ -*----------------------------------*\
  =========                 |
  \\      /  F ield         | OpenFOAM: The Open Source CFD Toolbox
   \\    /   O peration     | Website:  https://openfoam.org
    \\  /    A nd           | Version:  8
     \\/     M anipulation  |
\*---------------------------------------------------------------------------*/
FoamFile
{
    version     2.0;
    format      ascii;
    class       surfaceScalarField;
    location    "0.47";
    object      phi;
}
// * * * * * * * * * * * * * * * * * * * * * * * * * * * * * * * * * * * * * //

dimensions      [0 3 -1 0 0 0 0];

internalField   nonuniform List<scalar> 
31053
(
6.27467e-07
1.27525e-05
8.49096e-07
1.51584e-05
3.75863e-07
1.23767e-05
9.3151e-07
1.75576e-05
5.87892e-07
1.49463e-05
2.69203e-07
1.21075e-05
9.54828e-07
2.02167e-05
7.05495e-07
1.744e-05
4.63855e-07
1.47517e-05
2.15896e-07
1.18916e-05
9.4545e-07
2.32494e-05
7.64364e-07
2.01578e-05
5.88693e-07
1.73151e-05
3.95856e-07
1.45717e-05
1.72779e-07
1.17188e-05
9.15059e-07
2.66904e-05
7.88691e-07
2.32251e-05
6.63068e-07
2.00834e-05
5.23087e-07
1.71879e-05
3.33817e-07
1.44107e-05
1.38572e-07
1.15802e-05
8.69136e-07
3.06659e-05
7.90665e-07
2.66884e-05
7.04308e-07
2.31838e-05
6.03973e-07
2.00026e-05
4.56416e-07
1.70653e-05
2.79889e-07
1.42694e-05
1.118e-07
1.14684e-05
8.11166e-07
3.5198e-05
7.7718e-07
3.06794e-05
7.23267e-07
2.66695e-05
6.51954e-07
2.31358e-05
5.37831e-07
1.99211e-05
3.93632e-07
1.69516e-05
2.33656e-07
1.41475e-05
8.97255e-08
1.13787e-05
7.43885e-07
4.03873e-05
7.51927e-07
3.52232e-05
7.26254e-07
3.06764e-05
6.77053e-07
2.66444e-05
5.87089e-07
2.30866e-05
4.71654e-07
1.98431e-05
3.36178e-07
1.6849e-05
1.92422e-07
1.40448e-05
7.04208e-08
1.13083e-05
6.69033e-07
4.63549e-05
7.16931e-07
4.04223e-05
7.164e-07
3.52331e-05
6.85217e-07
3.06683e-05
6.13226e-07
2.66182e-05
5.18828e-07
2.30394e-05
4.08071e-07
1.97712e-05
2.81789e-07
1.67597e-05
1.54257e-07
1.3961e-05
5.27396e-08
1.12555e-05
5.8833e-07
5.32207e-05
6.74184e-07
4.63976e-05
6.95023e-07
4.04437e-05
6.80052e-07
3.52382e-05
6.22223e-07
3.06593e-05
5.42809e-07
2.65942e-05
4.50663e-07
2.29968e-05
3.45074e-07
1.97079e-05
2.28886e-07
1.66851e-05
1.17904e-07
1.38958e-05
3.59358e-08
1.12196e-05
5.03686e-07
6.10646e-05
6.2529e-07
5.32696e-05
6.63378e-07
4.64292e-05
6.63793e-07
4.04599e-05
6.17619e-07
3.52428e-05
5.49407e-07
3.06527e-05
4.70058e-07
2.65748e-05
3.8071e-07
2.29612e-05
2.81288e-07
1.96555e-05
1.76446e-07
1.66265e-05
8.24733e-08
1.38493e-05
1.95054e-08
1.12001e-05
4.17574e-07
7.00681e-05
5.71778e-07
6.11182e-05
6.22537e-07
5.33104e-05
6.37116e-07
4.64559e-05
6.01529e-07
4.0476e-05
5.42133e-07
3.52501e-05
4.71662e-07
3.06511e-05
3.93148e-07
2.65624e-05
3.07635e-07
2.29348e-05
2.15817e-07
1.96162e-05
1.23746e-07
1.65852e-05
4.72994e-08
1.38215e-05
3.27153e-09
1.11968e-05
3.33744e-07
8.04158e-05
5.1476e-07
7.01251e-05
5.73706e-07
6.1167e-05
6.00378e-07
5.33472e-05
5.74975e-07
4.64825e-05
5.22953e-07
4.04952e-05
4.58879e-07
3.52629e-05
3.87221e-07
3.0657e-05
3.10756e-07
2.65593e-05
2.30571e-07
2.29201e-05
1.48079e-07
1.95918e-05
7.02084e-08
1.65623e-05
1.20235e-08
1.38127e-05
-1.296e-08
1.12098e-05
2.69402e-07
7.62543e-05
4.5432e-07
8.04763e-05
5.18251e-07
7.01806e-05
5.53962e-07
6.12134e-05
5.38322e-07
5.33838e-05
4.92846e-07
4.65126e-05
4.33587e-07
4.05205e-05
3.66167e-07
3.5284e-05
2.94791e-07
3.06729e-05
2.22008e-07
2.65679e-05
1.48973e-07
2.29192e-05
7.76092e-08
1.95844e-05
1.55551e-08
1.65588e-05
-2.35135e-08
1.38233e-05
-2.93263e-08
1.12391e-05
2.17737e-07
7.62417e-05
4.00093e-07
7.63086e-05
4.57553e-07
8.0537e-05
4.98474e-07
7.02361e-05
4.91738e-07
6.126e-05
4.52177e-07
5.34245e-05
3.96674e-07
4.65495e-05
3.31761e-07
4.05549e-05
2.62715e-07
3.5316e-05
1.9348e-07
3.07015e-05
1.26341e-07
2.65905e-05
6.24039e-08
2.29344e-05
4.26758e-09
1.95957e-05
-4.03173e-08
1.65756e-05
-5.94509e-08
1.38534e-05
-4.58415e-08
1.12849e-05
1.76415e-07
7.62313e-05
3.49273e-07
7.62925e-05
4.03399e-07
7.63627e-05
4.34986e-07
8.06005e-05
4.35461e-07
7.02923e-05
4.01073e-07
6.13111e-05
3.48439e-07
5.34727e-05
2.84785e-07
4.65965e-05
2.16153e-07
4.06014e-05
1.47621e-07
3.53619e-05
8.26982e-08
3.07451e-05
2.33379e-08
2.66295e-05
-2.91535e-08
2.29678e-05
-7.18306e-08
1.96272e-05
-9.73042e-08
1.66135e-05
-9.56494e-08
1.39032e-05
-6.23246e-08
1.13473e-05
1.43027e-07
7.62254e-05
3.02048e-07
7.62785e-05
3.52644e-07
7.63432e-05
3.77146e-07
7.64206e-05
3.70095e-07
8.06658e-05
3.39693e-07
7.03537e-05
2.88964e-07
6.13706e-05
2.25449e-07
5.35321e-05
1.55747e-07
4.66569e-05
8.58335e-08
4.06632e-05
2.02549e-08
3.54243e-05
-3.79571e-08
3.08064e-05
-8.69482e-08
2.66873e-05
-1.25413e-07
2.30214e-05
-1.50363e-07
1.96803e-05
-1.55065e-07
1.66729e-05
-1.31835e-07
1.39727e-05
-7.86412e-08
1.14259e-05
1.15759e-07
7.62173e-05
2.58677e-07
7.62688e-05
3.0531e-07
7.63259e-05
3.22325e-07
7.63981e-05
3.09451e-07
7.64812e-05
2.68585e-07
8.07369e-05
2.1836e-07
7.04243e-05
1.53786e-07
6.14422e-05
8.15932e-08
5.36062e-05
8.57278e-09
4.67341e-05
-5.98691e-08
4.07434e-05
-1.19768e-07
3.55061e-05
-1.68381e-07
3.08878e-05
-2.04086e-07
2.6766e-05
-2.258e-07
2.30968e-05
-2.30667e-07
1.97559e-05
-2.13072e-07
1.67541e-05
-1.6764e-07
1.40617e-05
-9.4533e-08
1.15204e-05
9.32897e-08
7.62125e-05
2.19172e-07
7.62568e-05
2.61401e-07
7.63127e-05
2.70944e-07
7.63773e-05
2.51378e-07
7.64561e-05
2.02667e-07
7.65471e-05
1.37197e-07
8.08181e-05
6.99269e-08
7.05082e-05
-6.32269e-09
6.15301e-05
-8.42266e-08
5.3699e-05
-1.57465e-07
4.68317e-05
-2.21335e-07
4.08449e-05
-2.72298e-07
3.56101e-05
-3.0797e-07
3.09917e-05
-3.27251e-07
2.68675e-05
-3.29334e-07
2.31955e-05
-3.11847e-07
1.98547e-05
-2.70652e-07
1.68571e-05
-2.02576e-07
1.41698e-05
-1.09811e-07
1.16303e-05
7.46446e-08
7.62086e-05
1.8338e-07
7.62483e-05
2.20851e-07
7.62973e-05
2.23255e-07
7.63604e-05
1.96671e-07
7.6432e-05
1.39679e-07
7.65191e-05
6.24638e-08
7.66219e-05
-2.5492e-08
8.09135e-05
-1.07897e-07
7.06098e-05
-1.92658e-07
6.16386e-05
-2.72801e-07
5.38144e-05
-3.42749e-07
4.69531e-05
-3.98351e-07
4.0971e-05
-4.36524e-07
3.57386e-05
-4.55666e-07
3.11201e-05
-4.55147e-07
2.69933e-05
-4.34695e-07
2.33183e-05
-3.92842e-07
1.99769e-05
-3.27002e-07
1.69815e-05
-2.3615e-07
1.42961e-05
-1.24158e-07
1.17544e-05
6.02965e-08
6.95963e-05
1.51102e-07
7.62409e-05
1.83589e-07
7.62855e-05
1.79372e-07
7.63412e-05
1.45838e-07
7.64112e-05
8.06218e-08
7.6491e-05
-8.50557e-09
7.65901e-05
-1.12734e-07
7.67091e-05
-2.22293e-07
8.10279e-05
-3.16546e-07
7.07337e-05
-4.06074e-07
6.17718e-05
-4.84527e-07
5.39561e-05
-5.46998e-07
4.71018e-05
-5.89892e-07
4.11243e-05
-6.1116e-07
3.58941e-05
-6.09843e-07
3.12748e-05
-5.86021e-07
2.71446e-05
-5.40393e-07
2.34659e-05
-4.72433e-07
2.01223e-05
-3.81266e-07
1.71267e-05
-2.67759e-07
1.44397e-05
-1.37375e-07
1.18918e-05
4.91773e-08
6.25551e-05
1.24626e-07
6.96228e-05
1.49537e-07
7.6275e-05
1.39307e-07
7.63256e-05
9.91964e-08
7.63878e-05
2.61368e-08
7.64657e-05
-7.45783e-08
7.65571e-05
-1.95041e-07
7.66724e-05
-3.26056e-07
7.68129e-05
-4.54899e-07
8.11663e-05
-5.57123e-07
7.08847e-05
-6.47016e-07
6.19343e-05
-7.19068e-07
5.41282e-05
-7.68964e-07
4.72809e-05
-7.9443e-07
4.13076e-05
-7.94223e-07
3.60785e-05
-7.68295e-07
3.14571e-05
-7.17928e-07
2.73221e-05
-6.44716e-07
2.36382e-05
-5.49325e-07
2.02903e-05
-4.32476e-07
1.72914e-05
-2.96907e-07
1.45993e-05
-1.49085e-07
1.20409e-05
4.03868e-08
5.62268e-05
1.03174e-07
6.25766e-05
1.21061e-07
6.96513e-05
1.03022e-07
7.63113e-05
5.69262e-08
7.63679e-05
-2.33406e-08
7.64373e-05
-1.34917e-07
7.6526e-05
-2.71067e-07
7.66331e-05
-4.23334e-07
7.67697e-05
-5.7961e-07
7.69376e-05
-7.24727e-07
8.13339e-05
-8.30068e-07
7.10678e-05
-9.15101e-07
6.21304e-05
-9.74946e-07
5.43342e-05
-1.00687e-06
4.74933e-05
-1.0096e-06
4.1523e-05
-9.83024e-07
3.62932e-05
-9.28598e-07
3.16678e-05
-8.48622e-07
2.7526e-05
-7.45864e-07
2.38347e-05
-6.22103e-07
2.048e-05
-4.79786e-07
1.74743e-05
-3.22744e-07
1.47729e-05
-1.58689e-07
1.21996e-05
3.33232e-08
5.05391e-05
8.56845e-08
5.62443e-05
9.75469e-08
6.26001e-05
7.3115e-08
6.96812e-05
1.91159e-08
7.63491e-05
-6.75434e-08
7.64121e-05
-1.88959e-07
7.64914e-05
-3.39834e-07
7.65948e-05
-5.12612e-07
7.67224e-05
-6.95911e-07
7.6886e-05
-8.75061e-07
7.70879e-05
-1.03224e-06
8.1536e-05
-1.13501e-06
7.12877e-05
-1.20863e-06
6.23641e-05
-1.25012e-06
5.45774e-05
-1.25792e-06
4.77416e-05
-1.23218e-06
4.17721e-05
-1.17462e-06
3.65392e-05
-1.08794e-06
3.19071e-05
-9.75768e-07
2.7756e-05
-8.41916e-07
2.40545e-05
-6.89504e-07
2.06897e-05
-5.21886e-07
1.76734e-05
-3.44549e-07
1.49588e-05
-1.64007e-07
1.23636e-05
2.7571e-08
4.54258e-05
7.13323e-08
5.05534e-05
7.80638e-08
5.62638e-05
4.88081e-08
6.26244e-05
-1.14653e-08
6.97118e-05
-1.06296e-07
7.63878e-05
-2.36333e-07
7.64594e-05
-4.00624e-07
7.65522e-05
-5.92701e-07
7.66749e-05
-8.0207e-07
7.68286e-05
-1.0147e-06
7.70256e-05
-1.21297e-06
7.72686e-05
-1.37712e-06
8.17782e-05
-1.47003e-06
7.15491e-05
-1.5253e-06
6.26392e-05
-1.54136e-06
5.48609e-05
-1.51834e-06
4.80278e-05
-1.45868e-06
4.20562e-05
-1.3656e-06
3.68169e-05
-1.24342e-06
3.21747e-05
-1.09688e-06
2.80109e-05
-9.31112e-07
2.42961e-05
-7.49774e-07
2.09176e-05
-5.57904e-07
1.78868e-05
-3.58189e-07
1.5153e-05
-1.32092e-07
1.24957e-05
2.28353e-08
4.08307e-05
5.9473e-08
4.54376e-05
6.18579e-08
5.05696e-05
2.9001e-08
5.62836e-05
-3.57386e-08
6.26487e-05
-1.36843e-07
6.97423e-05
-2.76799e-07
7.64283e-05
-4.52932e-07
7.65117e-05
-6.62693e-07
7.66222e-05
-8.96682e-07
7.67695e-05
-1.14168e-06
7.69555e-05
-1.38042e-06
7.71931e-05
-1.59312e-06
7.74846e-05
-1.7573e-06
8.20654e-05
-1.83258e-06
7.18563e-05
-1.86141e-06
6.29593e-05
-1.84428e-06
5.51868e-05
-1.78407e-06
4.83532e-05
-1.68505e-06
4.23756e-05
-1.55246e-06
3.7126e-05
-1.39191e-06
3.24698e-05
-1.20965e-06
2.82895e-05
-1.01125e-06
2.45576e-05
-8.01569e-07
2.11612e-05
-5.8249e-07
1.81111e-05
-3.50366e-07
1.53712e-05
-8.26314e-08
1.25783e-05
1.88985e-08
3.66999e-05
4.96112e-08
4.08406e-05
4.8317e-08
4.54512e-05
1.28219e-08
5.05858e-05
-5.49759e-08
5.63028e-05
-1.60321e-07
6.26721e-05
-3.07601e-07
6.97731e-05
-4.9641e-07
7.64718e-05
-7.2192e-07
7.6571e-05
-9.78623e-07
7.67041e-05
-1.25434e-06
7.68821e-05
-1.53232e-06
7.71074e-05
-1.79297e-06
7.73929e-05
-2.01334e-06
7.77407e-05
-2.17002e-06
8.24029e-05
-2.21854e-06
7.22135e-05
-2.21199e-06
6.3327e-05
-2.15421e-06
5.5557e-05
-2.0503e-06
4.87184e-05
-1.90706e-06
4.27302e-05
-1.73134e-06
3.74654e-05
-1.53053e-06
3.27907e-05
-1.31141e-06
2.85896e-05
-1.08044e-06
2.48365e-05
-8.39872e-07
2.14186e-05
-5.90221e-07
1.83509e-05
-3.23279e-07
1.56119e-05
-5.86643e-08
1.2637e-05
1.55956e-08
3.29893e-05
4.13732e-08
3.67082e-05
3.69532e-08
4.0852e-05
-4.20725e-10
4.54644e-05
-7.02049e-08
5.0601e-05
-1.78209e-07
5.63207e-05
-3.30222e-07
6.26948e-05
-5.28208e-07
6.98049e-05
-7.69905e-07
7.65198e-05
-1.04704e-06
7.66394e-05
-1.3513e-06
7.68011e-05
-1.66672e-06
7.70165e-05
-1.97408e-06
7.72886e-05
-2.25019e-06
7.76298e-05
-2.4708e-06
7.80415e-05
-2.61078e-06
8.27951e-05
-2.62231e-06
7.26238e-05
-2.57166e-06
6.37444e-05
-2.46549e-06
5.59722e-05
-2.31203e-06
4.91234e-05
-2.12013e-06
4.3119e-05
-1.8988e-06
3.78336e-05
-1.65616e-06
3.31354e-05
-1.3998e-06
2.8909e-05
-1.13445e-06
2.51311e-05
-8.61422e-07
2.16898e-05
-5.85314e-07
1.86129e-05
-2.97742e-07
1.5851e-05
-5.30466e-08
1.269e-05
1.28031e-08
2.96508e-05
3.44588e-08
3.29962e-05
2.73898e-08
3.67177e-05
-1.12962e-08
4.08628e-05
-8.22476e-08
4.54764e-05
-1.91704e-07
5.06145e-05
-3.46449e-07
5.63369e-05
-5.50265e-07
6.27168e-05
-8.0363e-07
6.98387e-05
-1.1013e-06
7.6574e-05
-1.43149e-06
7.67196e-05
-1.78197e-06
7.69163e-05
-2.13417e-06
7.71766e-05
-2.46487e-06
7.75032e-05
-2.74923e-06
7.79082e-05
-2.96079e-06
7.83915e-05
-3.07332e-06
8.32461e-05
-3.03771e-06
7.30899e-05
-2.93388e-06
6.42128e-05
-2.77235e-06
5.64325e-05
-2.56394e-06
4.95672e-05
-2.32021e-06
4.35405e-05
-2.05123e-06
3.82287e-05
-1.76601e-06
3.35016e-05
-1.47124e-06
2.92458e-05
-1.1708e-06
2.54404e-05
-8.70933e-07
2.19755e-05
-5.75192e-07
1.88904e-05
-2.83306e-07
1.60812e-05
-5.69102e-08
1.27469e-05
1.04263e-08
2.66504e-05
2.86241e-08
2.96566e-05
1.93206e-08
3.30043e-05
-2.02801e-08
3.67267e-05
-9.17604e-08
4.08723e-05
-2.01764e-07
4.54865e-05
-3.57728e-07
5.06258e-05
-5.64797e-07
5.63515e-05
-8.25595e-07
6.27388e-05
-1.13811e-06
6.98755e-05
-1.49408e-06
7.66366e-05
-1.87672e-06
7.68143e-05
-2.27124e-06
7.70534e-05
-2.6547e-06
7.73665e-05
-3.00193e-06
7.77559e-05
-3.28529e-06
7.82327e-05
-3.47643e-06
7.87946e-05
-3.55077e-06
8.37592e-05
-3.45742e-06
7.36134e-05
-3.29208e-06
6.47326e-05
-3.06865e-06
5.69372e-05
-2.8013e-06
5.00483e-05
-2.50314e-06
4.39924e-05
-2.18542e-06
3.86481e-05
-1.85694e-06
3.38873e-05
-1.52373e-06
2.95987e-05
-1.19333e-06
2.57628e-05
-8.73896e-07
2.22742e-05
-5.67131e-07
1.91742e-05
-2.78991e-07
1.63033e-05
-7.80894e-08
1.2825e-05
8.39166e-09
2.3956e-05
2.36743e-08
2.66553e-05
1.24877e-08
2.96635e-05
-2.77382e-08
3.30117e-05
-9.92712e-08
3.67342e-05
-2.09152e-07
4.08797e-05
-3.65213e-07
4.5494e-05
-5.73592e-07
5.06346e-05
-8.38555e-07
5.63644e-05
-1.16063e-06
6.27613e-05
-1.53536e-06
6.99167e-05
-1.94992e-06
7.67098e-05
-2.38365e-06
7.69267e-05
-2.81731e-06
7.7216e-05
-3.22579e-06
7.75903e-05
-3.58044e-06
7.80511e-05
-3.85107e-06
7.86073e-05
-4.01043e-06
7.92542e-05
-4.035e-06
8.43367e-05
-3.87401e-06
7.41953e-05
-3.6392e-06
6.53031e-05
-3.34887e-06
5.74848e-05
-3.01928e-06
5.05644e-05
-2.66526e-06
4.44722e-05
-2.29841e-06
3.90896e-05
-1.92721e-06
3.42908e-05
-1.56011e-06
2.99655e-05
-1.20712e-06
2.60961e-05
-8.75259e-07
2.25823e-05
-5.62858e-07
1.94581e-05
-3.43397e-07
1.65686e-05
-8.63696e-08
1.29114e-05
6.64142e-09
2.15338e-05
1.94522e-08
2.39603e-05
6.67735e-09
2.66611e-05
-3.39457e-08
2.96697e-05
-1.05205e-07
3.30177e-05
-2.14475e-07
3.67396e-05
-3.69816e-07
4.08843e-05
-5.7807e-07
4.54985e-05
-8.44729e-07
5.06408e-05
-1.17227e-06
5.63761e-05
-1.55926e-06
6.27852e-05
-1.99726e-06
6.99641e-05
-2.47003e-06
7.67962e-05
-2.95067e-06
7.70601e-05
-3.41796e-06
7.74081e-05
-3.84262e-06
7.78525e-05
-4.19287e-06
7.83929e-05
-4.43895e-06
7.90359e-05
-4.55405e-06
7.97733e-05
-4.51768e-06
8.49804e-05
-4.27934e-06
7.48355e-05
-3.96884e-06
6.59231e-05
-3.60741e-06
5.80729e-05
-3.21374e-06
5.11129e-05
-2.8036e-06
4.49774e-05
-2.3886e-06
3.9551e-05
-1.97883e-06
3.47095e-05
-1.58482e-06
3.03432e-05
-1.21617e-06
2.6437e-05
-8.75716e-07
2.28951e-05
-6.90646e-07
1.98053e-05
-3.42072e-07
1.68243e-05
-9.49961e-08
1.30064e-05
5.12938e-09
1.93535e-05
1.58329e-08
2.15374e-05
1.71551e-09
2.39652e-05
-3.91251e-08
2.66663e-05
-1.09896e-07
2.96744e-05
-2.18211e-07
3.30214e-05
-3.72257e-07
3.6742e-05
-5.79351e-07
4.08856e-05
-8.45876e-07
4.54996e-05
-1.17579e-06
5.06443e-05
-1.56999e-06
5.63868e-05
-2.02357e-06
6.28115e-05
-2.52529e-06
7.00193e-05
-3.05309e-06
7.68986e-05
-3.57597e-06
7.72181e-05
-4.06851e-06
7.7634e-05
-4.49767e-06
7.81573e-05
-4.83145e-06
7.87854e-05
-5.03971e-06
7.95215e-05
-5.09815e-06
8.03538e-05
-4.98953e-06
8.56906e-05
-4.66606e-06
7.55327e-05
-4.27454e-06
6.65902e-05
-3.83958e-06
5.86987e-05
-3.38149e-06
5.16908e-05
-2.91647e-06
4.55053e-05
-2.45722e-06
4.00294e-05
-2.01537e-06
3.51401e-05
-1.60107e-06
3.07281e-05
-1.22098e-06
2.67822e-05
-1.07885e-06
2.32833e-05
-6.80543e-07
2.01438e-05
-3.4075e-07
1.70701e-05
-1.0162e-07
1.3108e-05
1.73973e-05
3.82004e-09
1.27166e-08
1.93566e-05
-2.53836e-09
2.15416e-05
-4.34581e-08
2.39696e-05
-1.13604e-07
2.667e-05
-2.20735e-07
2.96769e-05
-3.73098e-07
3.30223e-05
-5.78309e-07
3.6741e-05
-8.4338e-07
4.08831e-05
-1.17335e-06
4.54972e-05
-1.57091e-06
5.06452e-05
-2.03392e-06
5.63971e-05
-2.55523e-06
6.28415e-05
-3.11844e-06
7.00847e-05
-3.69773e-06
7.70204e-05
-4.25514e-06
7.74047e-05
-4.76159e-06
7.7898e-05
-5.18317e-06
7.8509e-05
-5.48657e-06
7.92322e-05
-5.64357e-06
8.00669e-05
-5.63253e-06
8.09968e-05
-5.44221e-06
8.64668e-05
-5.02675e-06
7.62849e-05
-4.55087e-06
6.73015e-05
-4.04174e-06
5.9359e-05
-3.52053e-06
5.22949e-05
-3.00436e-06
4.60524e-05
-2.50695e-06
4.0521e-05
-2.03936e-06
3.55784e-05
-1.6095e-06
3.11166e-05
-1.50755e-06
2.72109e-05
-1.06312e-06
2.36659e-05
-6.67901e-07
2.0471e-05
-3.37452e-07
1.73059e-05
-1.05796e-07
1.32138e-05
1.74e-05
1.00152e-08
2.7812e-05
1.83126e-09
-6.19789e-09
1.93603e-05
-4.70936e-08
2.15453e-05
-1.16536e-07
2.39725e-05
-2.22342e-07
2.66716e-05
-3.72775e-07
2.96766e-05
-5.75624e-07
3.30196e-05
-8.38317e-07
3.67359e-05
-1.16667e-06
4.08764e-05
-1.56471e-06
4.5491e-05
-2.03243e-06
5.06437e-05
-2.56595e-06
5.64079e-05
-3.15354e-06
6.28766e-05
-3.77574e-06
7.01627e-05
-4.39989e-06
7.71651e-05
-4.98106e-06
7.76242e-05
-5.48957e-06
7.82044e-05
-5.88927e-06
7.89117e-05
-6.148e-06
7.97367e-05
-6.23954e-06
8.06739e-05
-6.14796e-06
8.17025e-05
-5.86715e-06
8.73072e-05
-5.35508e-06
7.70891e-05
-4.79359e-06
6.80534e-05
-4.21141e-06
6.00499e-05
-3.63068e-06
5.29212e-05
-3.06915e-06
4.66146e-05
-2.53975e-06
4.10214e-05
-2.0516e-06
3.60205e-05
-1.98867e-06
3.15977e-05
-1.48707e-06
2.76349e-05
-1.04066e-06
2.40387e-05
-6.51707e-07
2.07852e-05
-3.3141e-07
1.75315e-05
-1.07651e-07
1.33214e-05
1.74032e-05
-9.35271e-09
2.78161e-05
5.86854e-09
2.85519e-05
-6.11982e-11
-5.0154e-08
1.93633e-05
-1.18851e-07
2.15476e-05
-2.2326e-07
2.39734e-05
-3.71626e-07
2.66705e-05
-5.71815e-07
2.96728e-05
-8.31514e-07
3.30128e-05
-1.15708e-06
3.67263e-05
-1.55349e-06
4.08652e-05
-2.02239e-06
4.54809e-05
-2.56242e-06
5.06402e-05
-3.16566e-06
5.642e-05
-3.81794e-06
6.29188e-05
-4.49359e-06
7.02564e-05
-5.15288e-06
7.73369e-05
-5.74643e-06
7.78811e-05
-6.24257e-06
7.85577e-05
-6.60544e-06
7.93692e-05
-6.80409e-06
8.03012e-05
-6.8176e-06
8.13436e-05
-6.63488e-06
8.24702e-05
-6.257e-06
8.82091e-05
-5.64599e-06
7.79415e-05
-4.99954e-06
6.88415e-05
-4.34771e-06
6.07669e-05
-3.71305e-06
5.35651e-05
-3.11231e-06
4.71872e-05
-2.55655e-06
4.15263e-05
-2.53568e-06
3.65675e-05
-1.96235e-06
3.2073e-05
-1.45536e-06
2.80496e-05
-1.01174e-06
2.43987e-05
-6.3165e-07
2.10855e-05
-3.2266e-07
1.77465e-05
-1.07449e-07
1.34289e-05
1.74058e-05
-5.2741e-08
2.78204e-05
-1.36353e-08
2.85559e-05
1.86808e-09
2.93118e-05
-1.86117e-09
-1.20677e-07
1.93652e-05
-2.23668e-07
2.1548e-05
-3.6991e-07
2.39717e-05
-5.6728e-07
2.66659e-05
-8.23604e-07
2.96648e-05
-1.14558e-06
3.30013e-05
-1.53888e-06
3.67117e-05
-2.00635e-06
4.08492e-05
-2.54859e-06
4.54671e-05
-3.16069e-06
5.06352e-05
-3.83284e-06
5.64349e-05
-4.54527e-06
6.29704e-05
-5.26576e-06
7.03693e-05
-5.94985e-06
7.75404e-05
-6.54151e-06
7.818e-05
-7.00995e-06
7.89622e-05
-7.31959e-06
7.98847e-05
-7.44418e-06
8.09278e-05
-7.36721e-06
8.20759e-05
-7.08488e-06
8.32981e-05
-6.60564e-06
8.91687e-05
-5.89546e-06
7.88374e-05
-5.16708e-06
6.96609e-05
-4.45105e-06
6.15049e-05
-3.76866e-06
5.42214e-05
-3.1348e-06
4.77654e-05
-3.16075e-06
4.21514e-05
-2.50242e-06
3.71075e-05
-1.92032e-06
3.25379e-05
-1.41374e-06
2.84516e-05
-9.7693e-07
2.4744e-05
-6.08106e-07
2.13709e-05
-3.11523e-07
1.79506e-05
-1.05609e-07
1.35345e-05
1.74072e-05
-1.22116e-07
2.7823e-05
-5.53673e-08
2.85599e-05
-1.76688e-08
2.93156e-05
-1.96823e-09
3.00897e-05
-3.56618e-09
-2.23701e-07
1.93652e-05
-3.67823e-07
2.15459e-05
-5.62318e-07
2.39667e-05
-8.15062e-07
2.66574e-05
-1.13296e-06
2.96522e-05
-1.52212e-06
3.29845e-05
-1.9863e-06
3.66916e-05
-2.52756e-06
4.08282e-05
-3.14335e-06
4.54498e-05
-3.82737e-06
5.06298e-05
-4.56476e-06
5.64544e-05
-5.32979e-06
6.30345e-05
-6.08592e-06
7.05053e-05
-6.78141e-06
7.77803e-05
-7.35576e-06
7.85258e-05
-7.77935e-06
7.94219e-05
-8.02052e-06
8.0461e-05
-8.05684e-06
8.16174e-05
-7.87899e-06
8.287e-05
-7.49083e-06
8.41833e-05
-6.90799e-06
9.01812e-05
-6.10099e-06
7.97713e-05
-5.29594e-06
7.05057e-05
-4.52199e-06
6.22582e-05
-3.79848e-06
5.48851e-05
-3.87731e-06
4.8482e-05
-3.11984e-06
4.27688e-05
-2.44859e-06
3.76358e-05
-1.86481e-06
3.2989e-05
-1.36368e-06
2.88383e-05
-9.3727e-07
2.50732e-05
-5.81724e-07
2.16411e-05
-2.98516e-07
1.81435e-05
-1.02502e-07
1.3637e-05
1.7407e-05
-2.23466e-07
2.78225e-05
-1.21565e-07
2.85623e-05
-5.77109e-08
2.93194e-05
-2.14521e-08
3.00934e-05
-5.6355e-09
3.08896e-05
-5.1729e-09
-3.65514e-07
1.93629e-05
-5.57152e-07
2.15407e-05
-8.06241e-07
2.39579e-05
-1.11978e-06
2.66442e-05
-1.50417e-06
2.96343e-05
-1.96378e-06
3.2962e-05
-2.50176e-06
3.66658e-05
-3.11738e-06
4.08022e-05
-3.8071e-06
4.54295e-05
-4.56012e-06
5.06251e-05
-5.3562e-06
5.64808e-05
-6.16575e-06
6.31143e-05
-6.94517e-06
7.06691e-05
-7.63729e-06
7.80618e-05
-8.17674e-06
7.89232e-05
-8.53921e-06
7.99406e-05
-8.69609e-06
8.11003e-05
-8.63179e-06
8.23702e-05
-8.34479e-06
8.3724e-05
-7.84659e-06
8.51219e-05
-7.16054e-06
9.12408e-05
-6.2616e-06
8.0737e-05
-5.38623e-06
7.137e-05
-4.56149e-06
6.30212e-05
-4.70097e-06
5.57088e-05
-3.82841e-06
4.91905e-05
-3.05294e-06
4.33732e-05
-2.37741e-06
3.81484e-05
-1.7981e-06
3.34234e-05
-1.30695e-06
2.9208e-05
-8.93944e-07
2.53854e-05
-5.53287e-07
2.18959e-05
-2.84154e-07
1.83251e-05
-9.84826e-08
1.37355e-05
1.74045e-05
-3.63094e-07
2.78172e-05
-2.18155e-07
2.85613e-05
-1.20636e-07
2.93215e-05
-5.97596e-08
3.00969e-05
-2.49851e-08
3.08931e-05
-9.1291e-09
3.17095e-05
-6.67757e-09
-5.51946e-07
1.93577e-05
-7.97402e-07
2.15319e-05
-1.10648e-06
2.39446e-05
-1.48573e-06
2.66258e-05
-1.93993e-06
2.96104e-05
-2.47302e-06
3.29333e-05
-3.08566e-06
3.66341e-05
-3.77646e-06
4.07715e-05
-4.53788e-06
4.54072e-05
-5.35423e-06
5.06232e-05
-6.20196e-06
5.6517e-05
-7.0448e-06
6.32139e-05
-7.83371e-06
7.08655e-05
-8.50524e-06
7.83903e-05
-8.99277e-06
7.93768e-05
-9.27685e-06
8.05214e-05
-9.33518e-06
8.18036e-05
-9.15989e-06
8.31853e-05
-8.7574e-06
8.46348e-05
-8.1477e-06
8.61091e-05
-7.36148e-06
9.23407e-05
-6.37683e-06
8.17276e-05
-5.43879e-06
7.22473e-05
-5.64975e-06
6.397e-05
-4.64419e-06
5.65245e-05
-3.7473e-06
4.98849e-05
-2.96422e-06
4.396e-05
-2.292e-06
3.86423e-05
-1.7227e-06
3.38392e-05
-1.24537e-06
2.95594e-05
-8.48163e-07
2.56803e-05
-5.23556e-07
2.21353e-05
-2.68936e-07
1.84956e-05
-9.38461e-08
1.38293e-05
1.73994e-05
-5.46819e-07
2.78054e-05
-3.51266e-07
2.85555e-05
-2.12362e-07
2.93202e-05
-1.19351e-07
3.00987e-05
-6.15062e-08
3.08964e-05
-2.82691e-08
3.17128e-05
-1.24437e-08
3.25534e-05
-8.08327e-09
-7.88732e-07
1.9349e-05
-1.09335e-06
2.15188e-05
-1.46731e-06
2.39262e-05
-1.91562e-06
2.66015e-05
-2.44276e-06
2.95802e-05
-3.05043e-06
3.2898e-05
-3.73889e-06
3.65966e-05
-4.50319e-06
4.07369e-05
-5.33141e-06
4.53844e-05
-6.20504e-06
5.06262e-05
-7.09428e-06
5.65665e-05
-7.95766e-06
6.33379e-05
-8.73959e-06
7.10999e-05
-9.37363e-06
7.87712e-05
-9.79077e-06
7.98907e-05
-9.98046e-06
8.11667e-05
-9.92777e-06
8.25715e-05
-9.63292e-06
8.40608e-05
-9.11142e-06
8.55985e-05
-8.39154e-06
8.71391e-05
-7.50973e-06
9.34736e-05
-6.44731e-06
8.27361e-05
-6.74336e-06
7.33409e-05
-5.58588e-06
6.49117e-05
-4.54798e-06
5.73252e-05
-3.63922e-06
5.05599e-05
-2.85781e-06
4.45258e-05
-2.19566e-06
3.91153e-05
-1.64107e-06
3.42349e-05
-1.18067e-06
2.98919e-05
-8.01024e-07
2.59577e-05
-4.93225e-07
2.23596e-05
-2.53302e-07
1.86551e-05
-8.88238e-08
1.39182e-05
1.7391e-05
-7.80359e-07
2.7785e-05
-5.26493e-07
2.85431e-05
-3.38777e-07
2.93139e-05
-2.0604e-07
3.0097e-05
-1.17671e-07
3.08978e-05
-6.29481e-08
3.17159e-05
-3.13066e-08
3.25565e-05
-1.55736e-08
3.34193e-05
-9.39102e-09
-1.08063e-06
1.93363e-05
-1.44928e-06
2.15007e-05
-1.89146e-06
2.3902e-05
-2.41202e-06
2.65707e-05
-3.01337e-06
2.95431e-05
-3.69705e-06
3.28562e-05
-4.46014e-06
3.65535e-05
-5.29374e-06
4.06992e-05
-6.18356e-06
4.53629e-05
-7.10537e-06
5.06373e-05
-8.02447e-06
5.66333e-05
-8.89286e-06
6.34912e-05
-9.65147e-06
7.13777e-05
-1.02292e-05
7.92096e-05
-1.05584e-05
8.04686e-05
-1.06392e-05
8.18781e-05
-1.04646e-05
8.34032e-05
-1.00444e-05
8.49938e-05
-9.40334e-06
8.66103e-05
-8.57641e-06
8.82058e-05
-7.60552e-06
9.46318e-05
-8.00479e-06
8.39975e-05
-6.67423e-06
7.44292e-05
-5.47407e-06
6.58378e-05
-4.41873e-06
5.81047e-05
-3.50932e-06
5.12114e-05
-2.73785e-06
4.5068e-05
-2.09153e-06
3.95657e-05
-1.55552e-06
3.46097e-05
-1.11437e-06
3.02053e-05
-7.53479e-07
2.6218e-05
-4.62897e-07
2.25692e-05
-2.3758e-07
1.88038e-05
-8.36111e-08
1.40018e-05
1.73789e-05
-1.06846e-06
2.77539e-05
-7.49222e-07
2.85219e-05
-5.05343e-07
2.93008e-05
-3.25678e-07
3.00902e-05
-1.99271e-07
3.08958e-05
-1.15619e-07
3.1717e-05
-6.40798e-08
3.25593e-05
-3.40897e-08
3.34223e-05
-1.85221e-08
3.43052e-05
-1.06002e-08
-1.4319e-06
1.93189e-05
-1.86791e-06
2.14772e-05
-2.38154e-06
2.38715e-05
-2.97574e-06
2.65331e-05
-3.65296e-06
2.9499e-05
-4.41185e-06
3.28079e-05
-5.24595e-06
3.65057e-05
-6.14441e-06
4.066e-05
-7.08772e-06
4.53453e-05
-8.04713e-06
5.066e-05
-8.98162e-06
5.6722e-05
-9.83948e-06
6.36792e-05
-1.05562e-05
7.17047e-05
-1.10594e-05
7.97106e-05
-1.12842e-05
8.11137e-05
-1.12428e-05
8.26563e-05
-1.09381e-05
8.42969e-05
-1.03899e-05
8.59804e-05
-9.63061e-06
8.76645e-05
-8.70203e-06
8.93023e-05
-9.46049e-06
9.60875e-05
-7.93426e-06
8.52576e-05
-6.54713e-06
7.55023e-05
-5.32195e-06
6.6741e-05
-4.26271e-06
5.88581e-05
-3.36278e-06
5.18363e-05
-2.60829e-06
4.55847e-05
-1.98255e-06
3.99928e-05
-1.46801e-06
3.49634e-05
-1.04775e-06
3.04996e-05
-7.06353e-07
2.64614e-05
-4.33002e-07
2.27646e-05
-2.22065e-07
1.89423e-05
-7.83561e-08
1.40801e-05
1.73623e-05
-1.41534e-06
2.77096e-05
-1.02417e-06
2.84897e-05
-7.17055e-07
2.92788e-05
-4.83339e-07
3.00764e-05
-3.11916e-07
3.08885e-05
-1.92002e-07
3.17145e-05
-1.1318e-07
3.25602e-05
-6.49152e-08
3.34248e-05
-3.66221e-08
3.4308e-05
-2.12896e-08
3.52191e-05
-1.17116e-08
-1.84527e-06
1.92963e-05
-2.35188e-06
2.14475e-05
-2.93845e-06
2.38343e-05
-3.60812e-06
2.64883e-05
-4.36073e-06
2.94479e-05
-5.19172e-06
3.27537e-05
-6.09307e-06
3.64544e-05
-7.04916e-06
4.06215e-05
-8.03641e-06
4.53346e-05
-9.02002e-06
5.06984e-05
-9.9553e-06
5.68379e-05
-1.07846e-05
6.39076e-05
-1.1441e-05
7.20863e-05
-1.18521e-05
8.02784e-05
-1.1957e-05
8.18278e-05
-1.17828e-05
8.3501e-05
-1.1343e-05
8.525e-05
-1.0666e-05
8.70157e-05
-9.79235e-06
8.87548e-05
-1.08469e-05
9.06887e-05
-9.39618e-06
9.75494e-05
-7.79397e-06
8.65044e-05
-6.37107e-06
7.65514e-05
-5.13713e-06
6.76154e-05
-4.08627e-06
5.95816e-05
-3.20441e-06
5.24325e-05
-2.47274e-06
4.60749e-05
-1.87118e-06
4.03959e-05
-1.38022e-06
3.52959e-05
-9.81936e-07
3.07751e-05
-6.6021e-07
2.66886e-05
-4.03934e-07
2.29464e-05
-2.06974e-07
1.90709e-05
-7.31627e-08
1.41533e-05
1.73408e-05
-1.82375e-06
2.76493e-05
-1.35502e-06
2.84442e-05
-9.78603e-07
2.92456e-05
-6.8393e-07
3.00536e-05
-4.60543e-07
3.08741e-05
-2.97558e-07
3.17068e-05
-1.84276e-07
3.25574e-05
-1.10376e-07
3.34253e-05
-6.54419e-08
3.43103e-05
-3.88964e-08
3.52217e-05
-2.38774e-08
3.6155e-05
-1.27252e-08
-2.3234e-06
1.92678e-05
-2.90217e-06
2.14112e-05
-3.56364e-06
2.37898e-05
-4.30857e-06
2.64361e-05
-5.13389e-06
2.939e-05
-6.03381e-06
3.26944e-05
-6.99596e-06
3.64012e-05
-8.0011e-06
4.05862e-05
-9.01992e-06
4.53345e-05
-1.00142e-05
5.07572e-05
-1.09329e-05
5.69862e-05
-1.17155e-05
6.41821e-05
-1.22936e-05
7.25278e-05
-1.25955e-05
8.09169e-05
-1.25674e-05
8.26124e-05
-1.22528e-05
8.44108e-05
-1.16747e-05
8.62587e-05
-1.08709e-05
8.80943e-05
-1.2235e-05
9.01429e-05
-1.07975e-05
9.209e-05
-9.24801e-06
9.90034e-05
-7.59452e-06
8.77279e-05
-6.15517e-06
7.75695e-05
-4.92727e-06
6.84564e-05
-3.89526e-06
6.02725e-05
-3.03863e-06
5.29983e-05
-2.33425e-06
4.6538e-05
-1.75952e-06
4.07752e-05
-1.29359e-06
3.56075e-05
-9.17649e-07
3.10326e-05
-6.15572e-07
2.69003e-05
-3.75969e-07
2.31154e-05
-1.92445e-07
1.91902e-05
-6.81124e-08
1.42214e-05
1.73137e-05
-2.29636e-06
2.75699e-05
-1.74439e-06
2.83822e-05
-1.293e-06
2.91986e-05
-9.31585e-07
3.00194e-05
-6.49681e-07
3.08506e-05
-4.36952e-07
3.16919e-05
-2.82636e-07
3.25492e-05
-1.76094e-07
3.34222e-05
-1.07214e-07
3.43105e-05
-6.56738e-08
3.52237e-05
-4.09211e-08
3.61574e-05
-2.62887e-08
3.65889e-05
-1.36324e-08
-2.86734e-06
1.9233e-05
-3.52031e-06
2.13679e-05
-4.25671e-06
2.37379e-05
-5.07458e-06
2.63768e-05
-5.96993e-06
2.93262e-05
-6.93304e-06
3.26315e-05
-7.94828e-06
3.63483e-05
-8.9911e-06
4.05574e-05
-1.0029e-05
4.53493e-05
-1.10175e-05
5.08418e-05
-1.19022e-05
5.71729e-05
-1.262e-05
6.45085e-05
-1.31017e-05
7.3034e-05
-1.32794e-05
8.1629e-05
-1.31079e-05
8.34676e-05
-1.26472e-05
8.53833e-05
-1.19307e-05
8.73185e-05
-1.36193e-05
8.94787e-05
-1.22111e-05
9.15565e-05
-1.06505e-05
9.34925e-05
-9.028e-06
0.000100437
-7.34643e-06
8.89191e-05
-5.90858e-06
7.85508e-05
-4.69943e-06
6.92606e-05
-3.69503e-06
6.09289e-05
-2.86917e-06
5.35333e-05
-2.1954e-06
4.69739e-05
-1.64937e-06
4.1131e-05
-1.20904e-06
3.58989e-05
-8.55573e-07
3.12726e-05
-5.72793e-07
2.70971e-05
-3.49269e-07
2.32723e-05
-1.78586e-07
1.93006e-05
-6.32643e-08
1.42847e-05
1.72807e-05
-2.83426e-06
2.74683e-05
-2.19474e-06
2.83011e-05
-1.66332e-06
2.91352e-05
-1.22955e-06
2.99712e-05
-8.83413e-07
3.08154e-05
-6.14562e-07
3.16676e-05
-4.12617e-07
3.25337e-05
-2.6712e-07
3.34135e-05
-1.67476e-07
3.4307e-05
-1.03705e-07
3.52237e-05
-6.56131e-08
3.61592e-05
-4.27001e-08
3.65911e-05
-2.84899e-08
3.55528e-05
-1.4413e-08
-3.47868e-06
1.91914e-05
-4.20608e-06
2.13173e-05
-5.01538e-06
2.36787e-05
-5.90395e-06
2.63108e-05
-6.86422e-06
2.92574e-05
-7.88356e-06
3.25668e-05
-8.94148e-06
3.62987e-05
-1.00105e-05
4.05389e-05
-1.1052e-05
4.53838e-05
-1.20179e-05
5.09575e-05
-1.28507e-05
5.74037e-05
-1.34853e-05
6.48922e-05
-1.38544e-05
7.3609e-05
-1.38954e-05
8.24164e-05
-1.35722e-05
8.43926e-05
-1.29627e-05
8.64153e-05
-1.49925e-05
8.86916e-05
-1.36333e-05
9.09009e-05
-1.20756e-05
9.29817e-05
-1.04191e-05
9.48836e-05
-8.74837e-06
0.000101839
-7.06041e-06
9.0071e-05
-5.63976e-06
7.94911e-05
-4.46008e-06
7.00257e-05
-3.49013e-06
6.15498e-05
-2.69919e-06
5.40371e-05
-2.05841e-06
4.73829e-05
-1.54188e-06
4.14638e-05
-1.12745e-06
3.61708e-05
-7.96164e-07
3.14959e-05
-5.32064e-07
2.72799e-05
-3.23958e-07
2.34176e-05
-1.65473e-07
1.94028e-05
-5.86549e-08
1.43433e-05
1.72411e-05
-3.43913e-06
2.73418e-05
-2.70772e-06
2.81975e-05
-2.09119e-06
2.9052e-05
-1.5802e-06
2.99063e-05
-1.16461e-06
3.07661e-05
-8.34042e-07
3.16315e-05
-5.78515e-07
3.25087e-05
-3.87657e-07
3.33975e-05
-2.51121e-07
3.4298e-05
-1.5847e-07
3.52198e-05
-9.98645e-08
3.61589e-05
-6.52634e-08
3.65926e-05
-4.42341e-08
3.55547e-05
-3.04116e-08
3.45447e-05
-1.50845e-08
-4.15738e-06