/*--------------------------------*- C++ -*----------------------------------*\
  =========                 |
  \\      /  F ield         | OpenFOAM: The Open Source CFD Toolbox
   \\    /   O peration     | Website:  https://openfoam.org
    \\  /    A nd           | Version:  8
     \\/     M anipulation  |
\*---------------------------------------------------------------------------*/
FoamFile
{
    version     2.0;
    format      ascii;
    class       volScalarField;
    location    "0.03";
    object      nut;
}
// * * * * * * * * * * * * * * * * * * * * * * * * * * * * * * * * * * * * * //

dimensions      [0 2 -1 0 0 0 0];

internalField   nonuniform List<scalar> 
15677
(
0.000168253
0.000653016
0.000148416
0.0015137
0.000442465
0.000141506
0.0026754
0.000875842
0.000381107
0.000142375
0.00392112
0.00151902
0.000686504
0.000354235
0.000145469
0.0050241
0.00235633
0.00114607
0.000585596
0.000340258
0.000151205
0.0058407
0.00331768
0.00178018
0.000947685
0.000529268
0.000332005
0.000157042
0.00633526
0.00429902
0.00256675
0.00146315
0.000820781
0.000492479
0.000327047
0.000162441
0.00656315
0.00518797
0.00345177
0.00213135
0.00125698
0.000737259
0.000467531
0.000324093
0.000167203
0.00665877
0.00589367
0.00435408
0.0029218
0.00184117
0.00111233
0.000677428
0.000450385
0.000322501
0.000171359
0.00670583
0.00633835
0.00517961
0.0037786
0.00255649
0.00163173
0.00100449
0.000633951
0.000438586
0.00032183
0.000174984
0.0067147
0.00655349
0.00584426
0.00462488
0.00336222
0.00228644
0.00147241
0.000923889
0.000601928
0.000430514
0.000321885
0.000178156
0.00671022
0.00666153
0.00629469
0.00537671
0.00419649
0.0030453
0.00207734
0.00134848
0.000861692
0.00057823
0.000425206
0.000322426
0.000180778
0.00670657
0.00669883
0.00652874
0.00596393
0.00498392
0.00385748
0.00279516
0.00191095
0.0012503
0.000813681
0.000560631
0.000421827
0.000323166
0.000183169
0.00670566
0.00670453
0.0066459
0.0063561
0.00565007
0.00465627
0.00358283
0.0025926
0.00177653
0.00117249
0.000775909
0.000547621
0.000419706
0.000324051
0.000185305
0.00670569
0.00670309
0.00668696
0.006562
0.00614239
0.00536922
0.00438109
0.00335594
0.00242627
0.00166711
0.00110889
0.000746373
0.000537936
0.000418397
0.000325115
0.000187196
0.00670582
0.00670193
0.00669552
0.00665554
0.00644726
0.00593481
0.00512133
0.00414777
0.00316655
0.00228839
0.00157664
0.00105749
0.000723287
0.000530545
0.000417852
0.000326248
0.000188585
0.0067059
0.00670152
0.00669637
0.00668369
0.00660509
0.00632325
0.00573844
0.00490341
0.00394885
0.00300718
0.00217316
0.00150218
0.00101636
0.000704676
0.000525233
0.000417845
0.000326946
0.000189874
0.00670592
0.00670146
0.00669609
0.0066902
0.00666369
0.00654308
0.00618993
0.00555707
0.00471225
0.00377869
0.00287267
0.00207717
0.00144083
0.000982131
0.000690222
0.000521561
0.000417542
0.00032758
0.000191051
0.00670592
0.00670149
0.00669591
0.00669102
0.00668204
0.0066365
0.00647024
0.00605889
0.00539166
0.00454531
0.00363346
0.00275944
0.00199677
0.00138905
0.000954697
0.000679207
0.000518219
0.000417245
0.000328427
0.000192256
0.00670591
0.00670153
0.00669586
0.00669076
0.00668684
0.00667108
0.00660123
0.00639131
0.00593282
0.00524319
0.00440074
0.00350988
0.00266348
0.00192838
0.0013469
0.000933087
0.000669689
0.000515276
0.000417614
0.000329407
0.00019315
0.0067059
0.00670156
0.00669587
0.00669048
0.00668762
0.00668269
0.00665524
0.0065585
0.00630878
0.00581561
0.00511209
0.00427611
0.00340426
0.00258163
0.00187232
0.00131329
0.000914223
0.00066168
0.000513941
0.000418281
0.000330131
0.000194074
0.0067059
0.00670157
0.00669588
0.00669032
0.00668748
0.006686
0.00667601
0.00663305
0.00650998
0.00622876
0.00570937
0.00499717
0.00416895
0.00331429
0.00251419
0.00182713
0.00128396
0.000899067
0.000656806
0.000513295
0.000418683
0.000330894
0.000194766
0.00670589
0.00670157
0.00669589
0.00669023
0.00668726
0.0066867
0.00668319
0.00666436
0.00660543
0.0064607
0.00615407
0.00561425
0.00489815
0.00407793
0.00323958
0.00245892
0.00178767
0.00126005
0.000888992
0.000653207
0.000512453
0.000419363
0.000331633
0.000195648
0.00670589
0.00670158
0.0066959
0.00669018
0.0066871
0.00668672
0.00668538
0.00667639
0.00664832
0.00657645
0.0064114
0.00608506
0.00553292
0.00481413
0.00400135
0.00317723
0.00241113
0.00175591
0.00124429
0.000880825
0.000650243
0.000512955
0.00042015
0.000332523
0.000196269
0.00670589
0.00670158
0.00669591
0.00669015
0.00668699
0.00668662
0.00668592
0.00668057
0.00666618
0.00663147
0.00654475
0.00636678
0.00602825
0.00546323
0.00474209
0.00393672
0.00312445
0.00237332
0.00173484
0.00123148
0.000875488
0.000649886
0.000513607
0.00042122
0.000333301
0.000197129
0.00670588
0.00670158
0.00669591
0.00669014
0.00668692
0.00668653
0.00668599
0.00668183
0.00667306
0.00665581
0.0066104
0.00651758
0.00633365
0.00597727
0.00540294
0.00468176
0.00388342
0.00308314
0.00234725
0.00171837
0.00122375
0.000874008
0.000650268
0.00051434
0.000422037
0.000334183
0.00019775
0.00670588
0.00670158
0.00669592
0.00669013
0.00668687
0.00668645
0.00668596
0.00668211
0.00667552
0.00666581
0.00664031
0.00659478
0.00650254
0.00629973
0.00593577
0.0053533
0.00463177
0.00384094
0.00305332
0.00232813
0.00170915
0.0012217
0.000874201
0.000651179
0.00051574
0.000423112
0.000335014
0.00019852
0.00670588
0.00670158
0.00669593
0.00669013
0.00668683
0.00668639
0.00668591
0.00668211
0.00667631
0.00666961
0.00665282
0.00663172
0.0065915
0.006482
0.00627747
0.00589918
0.0053108
0.00459435
0.00381356
0.00303643
0.00232046
0.00170916
0.00122334
0.00087603
0.000653427
0.00051744
0.000424269
0.000335979
0.000199077
0.00670587
0.00670158
0.00669594
0.00669013
0.00668679
0.00668633
0.00668587
0.00668205
0.00667649
0.0066709
0.00665753
0.00664823
0.00663501
0.0065819
0.00647323
0.00625341
0.00587467
0.00528682
0.00457203
0.00379737
0.00302803
0.00231926
0.00171242
0.00122779
0.000880916
0.000656756
0.000519496
0.000425474
0.000336616
5.33215e-05
0.00670586
0.00670158
0.00669596
0.00669014
0.00668676
0.00668627
0.00668583
0.006682
0.00667649
0.00667123
0.00665901
0.00665509
0.00665473
0.00663346
0.00657955
0.00646645
0.0062473
0.00585945
0.00526752
0.00455661
0.00378939
0.0030276
0.00232486
0.00172016
0.00123627
0.000887405
0.000660824
0.000521874
0.00042711
0.000289161
5.93592e-05
0.00670586
0.00670158
0.00669598
0.00669015
0.00668673
0.0066862
0.00668579
0.00668197
0.00667642
0.00667127
0.00665927
0.00665771
0.00666296
0.0066584
0.00663367
0.00658973
0.00646746
0.00624294
0.00584895
0.00525655
0.00455186
0.00379278
0.00303804
0.00233861
0.00173497
0.00124851
0.000895551
0.000665738
0.000524406
0.000423799
0.000249871
6.60922e-05
0.00670585
0.00670158
0.006696
0.00669016
0.00668671
0.00668614
0.00668574
0.00668195
0.00667635
0.00667123
0.00665921
0.00665854
0.00666598
0.0066696
0.00665957
0.00665649
0.00659523
0.00647227
0.00624166
0.00584781
0.00526026
0.00456243
0.0038096
0.00305884
0.00236057
0.00175455
0.0012642
0.000905803
0.000671439
0.00052702
0.000415119
0.000208976
7.16135e-05
0.00670585
0.00670158
0.00669602
0.00669018
0.00668668
0.00668608
0.00668569
0.00668195
0.00667628
0.00667117
0.0066591
0.00665873
0.0066668
0.00667414
0.00667146
0.00669047
0.00666525
0.0066065
0.00648277
0.00625151
0.00586109
0.00527784
0.00458585
0.00383782
0.00308923
0.00238956
0.00177947
0.00128329
0.000917557
0.000677631
0.000529546
0.000397175
0.000181492
7.59827e-05
0.00670584
0.00670158
0.00669604
0.00669019
0.00668666
0.00668601
0.00668564
0.00668196
0.00667622
0.00667111
0.00665904
0.0066587
0.00666685
0.0066756
0.00667655
0.0067062
0.0067015
0.0066812
0.00662604
0.00650206
0.00627335
0.00588675
0.00530903
0.00462221
0.00387751
0.00312878
0.00242544
0.00180813
0.00130475
0.000930986
0.000685193
0.000529964
0.000374959
0.000162867
7.95865e-05
0.00670157
0.00670584
0.00669606
0.00669021
0.00668664
0.00668595
0.00668558
0.00668197
0.00667618
0.00667105
0.00665905
0.00665859
0.00666667
0.0066759
0.00667839
0.00671313
0.00671936
0.0067207
0.00670696
0.00665317
0.00653113
0.006307
0.00592647
0.00535417
0.00467171
0.0039283
0.00317713
0.00246777
0.00184133
0.00132972
0.000947352
0.000694037
0.000527018
0.000355003
0.000149129
8.26119e-05
0.00669608
0.00670159
0.00670584
0.00669023
0.00668662
0.00668588
0.00668552
0.00668198
0.00667615
0.00667099
0.00665913
0.00665846
0.00666642
0.00667581
0.00667895
0.00671586
0.00672764
0.00674079
0.00675074
0.00674048
0.0066885
0.0065718
0.00635467
0.00598056
0.0054138
0.00473418
0.00399006
0.003234
0.00251592
0.00187893
0.00135904
0.000967675
0.000703078
0.000523616
0.000337227
0.000138716
8.51784e-05
0.00669025
0.00669614
0.00670161
0.00670583
0.0066866
0.00668582
0.00668546
0.006682
0.00667615
0.00667093
0.00665926
0.00665833
0.00666616
0.00667562
0.00667906
0.00671684
0.00673104
0.00675056
0.00677357
0.00678882
0.00678064
0.00673508
0.0066267
0.00641792
0.00605115
0.00548868
0.00480978
0.00406218
0.00329864
0.0025699
0.00192432
0.00139496
0.000989436
0.000712005
0.00051925
0.000321366
0.000130618
8.73719e-05
0.00668658
0.00669031
0.00669624
0.00670164
0.00670583
0.00668576
0.0066854
0.00668201
0.00667615
0.00667087
0.00665944
0.0066582
0.0066659
0.00667541
0.00667902
0.00671712
0.00673231
0.00675494
0.0067852
0.00681489
0.00683293
0.00683191
0.00679574
0.00669698
0.00649842
0.00613801
0.00557883
0.00489765
0.0041443
0.0033709
0.00263546
0.00197977
0.00143177
0.0010121
0.00072084
0.000514233
0.000307601
0.000124216
8.92611e-05
0.0066857
0.00668658
0.00669042
0.00669634
0.00670166
0.00670583
0.00668534
0.00668202
0.00667617
0.00667081
0.00665964
0.00665808
0.00666565
0.00667522
0.00667894
0.0067171
0.00673278
0.00675688
0.00679085
0.00682852
0.00686154
0.00688726
0.00689693
0.00687178
0.00678487
0.00659578
0.00624158
0.00568437
0.00499857
0.0042359
0.00345861
0.00271527
0.00203898
0.0014714
0.00103589
0.00072934
0.000509262
0.000295649
0.000119051
9.08956e-05
0.00668528
0.00668563
0.0066866
0.00669055
0.00669645
0.00670169
0.00670582
0.00668204
0.00667619
0.00667075
0.00665987
0.00665798
0.00666539
0.00667505
0.00667885
0.00671697
0.00673291
0.00675777
0.00679365
0.00683578
0.00687811
0.00692009
0.00695769
0.00697831
0.00696477
0.00688927
0.00671048
0.00636126
0.00580374
0.00511121
0.00434751
0.00356545
0.00280076
0.00210133
0.00151279
0.00106001
0.000737757
0.000504514
0.000285386
0.000114796
9.23242e-05
0.00668205
0.00668523
0.00668554
0.00668663
0.00669068
0.00669657
0.00670171
0.00670582
0.00667623
0.0066707
0.0066601
0.0066579
0.00666515
0.0066749
0.00667878
0.00671679
0.00673288
0.0067582
0.00679517
0.00683972
0.00688754
0.00693981
0.0069953
0.00704584
0.00708121
0.007079
0.00701226
0.00684071
0.00649515
0.00593565
0.00524953
0.00448413
0.00367986
0.00289082
0.00216637
0.00155459
0.00108459
0.00074627
0.000500191
0.000276495
0.000111256
9.35788e-05
0.00667626
0.00668215
0.00668518
0.00668545
0.00668666
0.00669083
0.00669669
0.00670173
0.00670581
0.00667066
0.00666034
0.00665784
0.0066649
0.00667477
0.00667871
0.00671658
0.00673278
0.00675841
0.00679609
0.00684219
0.00689336
0.00695206
0.00701953
0.00708919
0.0071563
0.00720536
0.00721664
0.00715709
0.00698683
0.00664249
0.00609543
0.00541552
0.00463132
0.00380133
0.00298465
0.0022333
0.00159709
0.00110873
0.000754719
0.000496317
0.000268832
0.000108308
9.4695e-05
0.00667062
0.00667644
0.00668233
0.00668511
0.00668535
0.0066867
0.00669098
0.00669681
0.00670174
0.00670581
0.00666057
0.0066578
0.00666466
0.00667464
0.00667865
0.00671638
0.00673265
0.0067585
0.00679671
0.00684396
0.00689748
0.00696038
0.00703616
0.00711929
0.00720757
0.00729006
0.00735444
0.00737615
0.00732394
0.00715259
0.00681692
0.006284
0.00559125
0.00478543
0.00392783
0.00308114
0.00230146
0.00164032
0.00113214
0.00076312
0.000492892
0.000262145
0.000105795
9.56901e-05
0.00666079
0.00667078
0.00667678
0.0066825
0.00668502
0.00668525
0.00668675
0.00669115
0.00669693
0.00670176
0.00670581
0.00665778
0.00666443
0.00667452
0.00667861
0.00671618
0.0067325
0.00675853
0.00679717
0.00684536
0.0069007
0.00696676
0.00704862
0.00714171
0.00724609
0.00735149
0.00745175
0.00752822
0.007559
0.00751034
0.00735853
0.00703296
0.00648135
0.00577268
0.00494332
0.00405691
0.00317928
0.00237028
0.00168368
0.00115542
0.000771357
0.000489877
0.000256322
0.000103657
9.65879e-05
0.00665778
0.00666127
0.00667114
0.00667713
0.00668266
0.00668491
0.00668514
0.00668681
0.00669132
0.00669705
0.00670177
0.00670581
0.00666421
0.0066744
0.00667858
0.006716
0.00673234
0.00675851
0.0067975
0.00684655
0.0069034
0.0069721
0.00705888
0.00715963
0.00727718
0.00740106
0.00752705
0.00764118
0.00772883
0.00776481
0.00773939
0.00760899
0.0072682
0.00668748
0.00595612
0.00510293
0.00418723
0.00327792
0.00243918
0.00172686
0.00117824
0.000779517
0.000487374
0.000251211
0.000101796
9.73937e-05
0.00666401
0.00665774
0.00666202
0.0066715
0.0066775
0.0066828
0.00668479
0.00668504
0.00668689
0.0066915
0.00669717
0.00670178
0.00670581
0.00667428
0.00667858
0.00671583
0.00673217
0.00675845
0.00679775
0.00684759
0.00690573
0.00697682
0.0070678
0.00717498
0.00730362
0.00744369
0.00759195
0.00773389
0.00786181
0.0079562
0.00801942
0.00802009
0.00787837
0.00751755
0.0069044
0.00614065
0.00526216
0.00431679
0.00337615
0.00250756
0.00176957
0.00120039
0.000787466
0.000485257
0.000246671
0.000100183
9.81251e-05
0.00667414
0.00666345
0.00665774
0.00666282
0.00667187
0.00667788
0.00668292
0.00668466
0.00668494
0.00668697
0.00669169
0.00669729
0.00670179
0.00670581
0.00667861
0.00671568
0.006732
0.00675836
0.00679792
0.00684852
0.00690781
0.0069811
0.00707576
0.00718869
0.00732727
0.0074814
0.00765079
0.00781837
0.00797746
0.00811389
0.00823987
0.00833409
0.00832447
0.00816339
0.00777528
0.00712815
0.00632508
0.00541827
0.00444433
0.00347293
0.00257495
0.00181152
0.00122193
0.000795096
0.000483415
0.000242638
9.87641e-05
9.87818e-05
0.00667867
0.00667366
0.00666253
0.00665786
0.00666363
0.00667226
0.00667827
0.00668302
0.00668451
0.00668485
0.00668707
0.00669189
0.00669741
0.0067018
0.00670581
0.00671553
0.00673181
0.00675825
0.00679804
0.00684936
0.0069097
0.00698503
0.00708294
0.00720123
0.00734893
0.00751572
0.0077047
0.00789851
0.00808833
0.00825808
0.00843147
0.00859435
0.00867883
0.00864918
0.00846051
0.00803854
0.00735525
0.00651194
0.00557085
0.00456884
0.00356776
0.00264093
0.00185248
0.00124282
0.000802719
0.000481962
0.000239013
9.75201e-05
9.93808e-05
0.00671537
0.0066779
0.00667278
0.00666162
0.00665809
0.00666445
0.00667267
0.00667867
0.00668308
0.00668435
0.00668477
0.00668719
0.00669209
0.00669752
0.0067018
0.00670582
0.00673159
0.00675811
0.00679813
0.00685014
0.00691143
0.00698865
0.00708945
0.00721283
0.00736887
0.00754743
0.0077552
0.00797427
0.00819725
0.00840193
0.00861594
0.008834
0.00898788
0.00905094
0.00899101
0.00876664
0.00830479
0.00758131
0.00669849
0.00571984
0.00468996
0.00365986
0.00270511
0.00189227
0.00126298
0.000809977
0.000480674
0.000235782
9.64158e-05
9.99184e-05
0.00673134
0.00671385
0.00667632
0.0066718
0.00666077
0.00665846
0.00666528
0.00667309
0.00667906
0.00668312
0.00668418
0.0066847
0.00668732
0.00669229
0.00669762
0.00670181
0.00670582
0.00675797
0.00679821
0.00685087
0.00691302
0.00699199
0.00709539
0.00722357
0.0073872
0.00757695
0.00780303
0.00804628
0.00830191
0.00854776
0.00880868
0.00907751
0.00928816
0.00941944
0.00944857
0.00934771
0.00907933
0.00857171
0.00780471
0.00688252
0.00586372
0.00480617
0.0037487
0.0027672
0.00193074
0.00128248
0.000816756
0.000479621
0.000232869
9.54493e-05
0.000100412
0.00675789
0.00672983
0.00671054
0.00667517
0.00667067
0.00666001
0.00665895
0.00666608
0.00667354
0.00667944
0.00668314
0.00668401
0.00668464
0.00668746
0.00669248
0.00669772
0.00670182
0.00670583
0.0067983
0.00685155
0.0069145
0.00699506
0.00710082
0.00723351
0.00740401
0.00760457
0.00784829
0.00811454
0.00840264
0.0086927
0.00901217
0.00934273
0.00960814
0.00979743
0.00989154
0.00987247
0.00971842
0.00939689
0.00883753
0.00802408
0.00706284
0.0060043
0.0049173
0.00383394
0.00282697
0.00196779
0.00130129
0.000823168
0.000478784
0.000230276
9.4585e-05
0.000100855
0.00679844
0.00675595
0.00672735
0.00670638
0.0066744
0.0066694
0.00665938
0.00665956
0.00666686
0.00667402
0.00667981
0.00668312
0.00668384
0.0066846
0.0066876
0.00669267
0.0066978
0.00670182
0.00670584
0.0068522
0.00691585
0.00699787
0.00710578
0.00724268
0.0074194
0.00763045
0.00789077
0.00817896
0.00850037
0.00883743
0.00921857
0.00962943
0.00997234
0.0102251
0.0103767
0.0104132
0.0103263
0.0101036
0.00971839
0.009101
0.00823843
0.00723734
0.00614109
0.00502344
0.00391541
0.00288426
0.00200333
0.00131934
0.000829247
0.00047812
0.00022793
9.38302e-05
0.000101265
0.00685282
0.00679561
0.0067519
0.00672513
0.00670182
0.00667393
0.00666798
0.00665891
0.00666027
0.00666762
0.00667453
0.00668015
0.00668308
0.00668368
0.00668458
0.00668775
0.00669284
0.00669788
0.00670183
0.00670585
0.00691709
0.00700043
0.00711033
0.0072511
0.00743351
0.00765463
0.0079303
0.00823979
0.00859563
0.00898098
0.00942267
0.00992607
0.010392
0.0107522
0.0109709
0.0110511
0.0109962
0.0108143
0.0105039
0.0100432
0.00936123
0.00844698
0.00740532
0.00627321
0.00512463
0.00399301
0.00293897
0.00203732
0.00133663
0.000835022
0.000477587
0.00022584
9.31547e-05
0.000101587
0.00691824
0.0068495
0.00678945
0.00674796
0.00672291
0.00669712
0.00667363
0.00666646
0.00665862
0.00666106
0.00666834
0.00667506
0.00668045
0.00668301
0.00668354
0.00668458
0.0066879
0.006693
0.00669795
0.00670184
0.00670586
0.00700275
0.00711447
0.00725879
0.00744642
0.00767713
0.00796687
0.0082974
0.00868815
0.00912058
0.00962141
0.0102377
0.0108743
0.0114218
0.0117618
0.0118853
0.0118369
0.0116458
0.0113375
0.0109189
0.0103706
0.00961749
0.00864916
0.00756655
0.00640011
0.00522087
0.00406673
0.00299105
0.00206974
0.00135312
0.000840506
0.000477184
0.000223933
9.26384e-05
0.000101853
0.00700489
0.006914
0.00684185
0.00678319
0.00674415
0.0067206
0.00669246
0.0066734
0.0066649
0.00665853
0.0066619
0.00666905
0.00667561
0.00668071
0.00668294
0.00668341
0.0066846
0.00668805
0.00669316
0.00669801
0.00670185
0.00670587
0.00711825
0.00726578
0.00745824
0.00769793
0.00800059
0.00835205
0.00877688
0.00925379
0.00981694
0.0105784
0.0114387
0.0122366
0.012793
0.0130136
0.0129586
0.0127217
0.0123533
0.0118907
0.011346
0.0106991
0.00986907
0.00884459
0.00772086
0.00652145
0.00531222
0.00413658
0.00304049
0.00210057
0.00136883
0.000845717
0.00047686
0.000222459
9.22192e-05
0.000102137
0.00712173
0.00699936
0.00690375
0.00683404
0.00677708
0.00674038
0.00671819
0.006688
0.00667311
0.00666337
0.00665862
0.00666277
0.00666973
0.00667615
0.00668092
0.00668285
0.0066833
0.00668462
0.0066882
0.0066933
0.00669807
0.00670186
0.00670587
0.00727214
0.00746904
0.00771706
0.00803166
0.00840371
0.00886068
0.00938
0.0100152
0.0109582
0.0120824
0.0131607
0.0139741
0.0143999
0.0144104
0.0141226
0.013664
0.0130959
0.0124628
0.01178
0.0110267
0.0101152
0.00903296
0.00786821
0.00663706
0.00539875
0.00420265
0.00308732
0.00212982
0.00138375
0.000850654
0.000476666
0.000221221
9.17843e-05
0.00010244
0.00727791
0.00711424
0.00698524
0.0068933
0.00682623
0.00677114
0.00673658
0.00671571
0.00668387
0.00667263
0.00666196
0.00665891
0.00666364
0.00667039
0.00667666
0.00668109
0.00668277
0.0066832
0.00668467
0.00668835
0.00669343
0.00669813
0.00670187
0.00670588
0.00747891
0.00773456
0.00806024
0.0084522
0.00893883
0.00950026
0.0102212
0.0113738
0.0127714
0.0141147
0.0151672
0.0158187
0.0160292
0.0158064
0.0152853
0.0146091
0.0138437
0.0130388
0.0122143
0.0113507
0.010355
0.00921405
0.00800861
0.00674689
0.00548056
0.00426499
0.00313156
0.00215752
0.0013979
0.000854718
0.000476503
0.000219942
9.13375e-05
0.000102763
0.00748787
0.0072681
0.00709435
0.00697093
0.00688296
0.00681842
0.00676532
0.00673274
0.00671308
0.00668026
0.00667181
0.00666077
0.00665935
0.00666447
0.00667102
0.00667713
0.00668122
0.00668268
0.00668313
0.00668472
0.00668849
0.00669355
0.00669818
0.00670187
0.00670588
0.00775053
0.00808649
0.00849734
0.00901121
0.00961621
0.0104362
0.0118096
0.013458
0.0150144
0.0162489
0.0170855
0.0175079
0.017506
0.0170849
0.0163699
0.0155085
0.014568
0.0136034
0.0126417
0.0116682
0.0105875
0.00938768
0.00814212
0.006851
0.0055578
0.00432354
0.00317327
0.00218369
0.00140952
0.000858157
0.000476388
0.000218557
9.0874e-05
0.00010311
0.00776485
0.00747465
0.00724027
0.0070743
0.0069568
0.00687279
0.00681047
0.00675964
0.00672884
0.00671009
0.00667745
0.00667057
0.00665986
0.0066599
0.00666523
0.00667162
0.00667756
0.00668132
0.00668261
0.00668307
0.00668478
0.00668862
0.00669367
0.00669821
0.00670187
0.00670588
0.0081106
0.00853901
0.00907817
0.00972911
0.010657
0.0122451
0.0141007
0.0158034
0.0171491
0.0181066
0.0186923
0.0189111
0.018746
0.0181846
0.0173306
0.0163289
0.0152466
0.0141435
0.0130555
0.0119763
0.0108119
0.0095537
0.00826886
0.00694942
0.00563109
0.0043785
0.00321252
0.00220512
0.00141937
0.000861942
0.000476268
0.000217138
9.04073e-05
0.000103478
0.00813222
0.00774808
0.00743577
0.00721226
0.00705462
0.00694294
0.00686287
0.00680232
0.0067542
0.00672501
0.0067061
0.00667573
0.00666896
0.00665929
0.0066605
0.00666592
0.00667221
0.00667795
0.0066814
0.00668253
0.00668303
0.00668484
0.00668875
0.00669373
0.00669821
0.00670186
0.00670588
0.00857731
0.00914033
0.00983939
0.0108781
0.0126617
0.0146735
0.0164583
0.0178505
0.0188645
0.0195501
0.0199332
0.0200058
0.0197346
0.0190896
0.0181499
0.0170536
0.0158657
0.0146495
0.0134501
0.0122724
0.0110273
0.00971202
0.00838893
0.00704213
0.00570042
0.00443008
0.00324454
0.00222327
0.00143017
0.000866086
0.00047622
0.000215599
8.99217e-05
0.000103873
0.00861132
0.00811069
0.00769476
0.00739669
0.00718477
0.00703538
0.00692939
0.00685315
0.00679408
0.00674893
0.00672198
0.00670093
0.00667471
0.00666715
0.00665902
0.00666113
0.00666656
0.00667277
0.0066783
0.00668147
0.00668247
0.006683
0.00668492
0.00668883
0.00669375
0.00669821
0.00670186
0.00670588
0.00919828
0.00994672
0.0110933
0.0130465
0.0151659
0.0169804
0.0183685
0.0193865
0.0201136
0.0205966
0.0208416
0.0208226
0.0204935
0.0198103
0.0188292
0.0176786
0.016419
0.0151155
0.0138218
0.0125546
0.011233
0.00986258
0.00850251
0.0071294
0.00576585
0.00447207
0.00327161
0.0022431
0.001442
0.000870658
0.000476169
0.00021402
8.94455e-05
0.000104292
0.00925062
0.00858522
0.0080377
0.00764108
0.00735835
0.00715795
0.00701659
0.0069161
0.00684345
0.00678596
0.00674378
0.0067192
0.00669549
0.00667404
0.00666536
0.006659
0.00666174
0.00666715
0.0066733
0.0066786
0.00668152
0.00668243
0.00668299
0.00668495
0.00668884
0.00669376
0.00669821
0.00670187
0.00670588
0.0100502
0.0112977
0.0133928
0.0155787
0.017384
0.0187326
0.0197164
0.0204391
0.0209657
0.0213171
0.0214779
0.0214091
0.0210571
0.0203693
0.0193805
0.0182079
0.0169058
0.015539
0.0141679
0.0128215
0.0114286
0.0100054
0.00860977
0.00721145
0.00581937
0.00450753
0.0033011
0.00226478
0.00145498
0.000875676
0.000476206
0.00021234
8.89514e-05
0.000104741
0.0101442
0.00921721
0.00848672
0.00796432
0.00758829
0.00732095
0.00713177
0.00699823
0.00690304
0.00683374
0.0067779
0.00673898
0.0067163
0.00669037
0.00667344
0.0066637
0.00665915
0.00666234
0.0066677
0.00667381
0.00667887
0.00668157
0.00668239
0.00668297
0.00668494
0.00668885
0.00669376
0.00669821
0.00670187
0.00670587
0.0114877
0.013699
0.0159189
0.0176885
0.0189749
0.0198993
0.0205844
0.0211108
0.0215128
0.0217866
0.0219019
0.0218122
0.0214616
0.0207921
0.01982
0.01865
0.0173292
0.0159199
0.0144874
0.0130721
0.0116138
0.0101405
0.00871091
0.00727839
0.00586468
0.00454613
0.00333324
0.0022885
0.00146923
0.000881212
0.000476254
0.000210603
8.8474e-05
0.000105213
0.0101084
0.0116567
0.00907714
0.00838828
0.00789204
0.00753668
0.00728447
0.00710624
0.00698029
0.00689013
0.00682397
0.00677014
0.00673432
0.0067134
0.00668586
0.00667272
0.00666229
0.00665943
0.0066629
0.00666822
0.00667429
0.00667911
0.00668161
0.00668235
0.00668294
0.00668494
0.00668885
0.00669375
0.00669821
0.00670187
0.00670586
0.0139664
0.0161966
0.0179134
0.0191244
0.0199742
0.0205998
0.0210937
0.0215029
0.021835
0.0220685
0.0221636
0.0220723
0.0217392
0.0211034
0.0201648
0.0190153
0.0176941
0.0162597
0.0147802
0.0133061
0.0117884
0.0102681
0.00879358
0.00733496
0.00591411
0.00458817
0.00336831
0.00231446
0.00148488
0.000887345
0.000476328
0.000208816
8.79931e-05
0.000105717
0.00989923
0.0116232
0.0141864
0.00894102
0.00829113
0.00782125
0.00748627
0.00724891
0.00708135
0.00696271
0.00687735
0.00681428
0.00676273
0.00672981
0.00671055
0.00668207
0.00667179
0.00666117
0.00665978
0.00666342
0.00666871
0.00667474
0.00667932
0.00668161
0.0066823
0.00668292
0.00668494
0.00668884
0.00669373
0.00669818
0.00670186
0.00670586
0.0164216
0.0180762
0.0192056
0.0199727
0.0205249
0.0209642
0.0213478
0.0216949
0.0219936
0.0222105
0.0223021
0.022222
0.0219173
0.0213252
0.0204311
0.0193146
0.0180067
0.0165611
0.0150471
0.0135235
0.0119524
0.0103724
0.00886355
0.00739659
0.00596806
0.00463398
0.00340656
0.00234288
0.00150209
0.000894124
0.000476509
0.000206925
8.75142e-05
0.000106242
0.00969432
0.0113174
0.0141374
0.0165923
0.00880973
0.00819545
0.00775205
0.00743709
0.00721431
0.00705711
0.0069455
0.00686474
0.00680478
0.00675578
0.00672556
0.00670761
0.00667912
0.00667059
0.00666035
0.00666017
0.00666391
0.00666918
0.00667515
0.00667942
0.00668159
0.00668228
0.00668292
0.00668494
0.00668883
0.00669366
0.00669813
0.00670185
0.00670585
0.018191
0.0192375
0.0199188
0.02039
0.0207598
0.021094
0.0214223
0.0217439
0.0220326
0.022248
0.022347
0.022287
0.022018
0.0214759
0.0206332
0.0195579
0.0182732
0.0168273
0.0152893
0.0137246
0.0120856
0.0104606
0.00893987
0.00746377
0.00602698
0.00468393
0.00344832
0.00237402
0.001521
0.000901713
0.000476664
0.000205032
8.70726e-05
0.000106798
0.00950085
0.0109941
0.0138021
0.0165127
0.0182593
0.00868181
0.00810137
0.00768449
0.00738918
0.00718068
0.00703351
0.00692865
0.0068525
0.00679559
0.00674944
0.00672165
0.00670408
0.00667711
0.00666917
0.00665981
0.00666057
0.00666436
0.00666962
0.00667539
0.00667943
0.00668158
0.00668228
0.00668294
0.00668495
0.00668875
0.00669355
0.00669807
0.00670184
0.00670584
0.0192343
0.0198305
0.0202175
0.0205088
0.0207768
0.0210602
0.02137
0.0216895
0.0219826
0.0222062
0.0223204
0.0222872
0.0220593
0.0215709
0.0207834
0.0197544
0.0184997
0.0170617
0.0155083
0.0138855
0.0121979
0.0105568
0.00902318
0.00753705
0.00609133
0.00473842
0.00349392
0.00240813
0.00154186
0.000910047
0.000477086
0.00020305
8.66062e-05
0.000107376
0.00931736
0.0106805
0.0133932
0.0162833
0.0181261
0.0191957
0.00855639
0.00800912
0.00761869
0.00734264
0.00714808
0.00701056
0.00691234
0.00684102
0.00678675
0.00674387
0.00671873
0.00669998
0.00667589
0.00666762
0.00665951
0.00666096
0.00666479
0.00666987
0.00667545
0.00667944
0.00668158
0.0066823
0.00668297
0.00668491
0.00668862
0.00669343
0.00669801
0.00670183
0.00670583
0.0197207
0.0200237
0.0202318
0.0204223
0.0206412
0.0209109
0.0212264
0.0215586
0.0218649
0.0221034
0.0222391
0.0222383
0.0220554
0.0216227
0.0208919
0.0199119
0.0186915
0.0172676
0.0156795
0.0140197
0.0123198
0.0106618
0.00911414
0.00761702
0.00616166
0.0047979
0.00354373
0.00244554
0.00156477
0.000919492
0.00047743
0.000201033
8.62271e-05
0.000107984
0.0091413
0.0103843
0.0129505
0.0159651
0.0179705
0.019006
0.0195844
0.00843335
0.00791898
0.00755477
0.00729756
0.00711653
0.00698846
0.00689704
0.00683049
0.00677841
0.00673886
0.00671618
0.0066956
0.0066751
0.00666605
0.0066594
0.00666135
0.00666502
0.0066699
0.00667548
0.00667944
0.00668159
0.00668235
0.00668299
0.00668484
0.00668848
0.00669329
0.00669795
0.00670182
0.00670582
0.0198197
0.0199437
0.02005
0.0201902
0.0203971
0.0206784
0.0210154
0.0213689
0.021694
0.0219526
0.0221157
0.0221525
0.0220175
0.0216413
0.0209674
0.0200373
0.0188538
0.0174239
0.0158204
0.0141637
0.0124519
0.0107762
0.0092135
0.00770434
0.00623854
0.00486287
0.00359817
0.00248653
0.00159013
0.000929829
0.000478195
0.000198954
8.58686e-05
0.00010861
0.0089712
0.0101059
0.0124932
0.015588
0.0177411
0.0188872
0.0193383
0.0195949
0.00831283
0.00783127
0.00749289
0.00725406
0.00708631
0.00696781
0.00688296
0.00682055
0.00677054
0.00673442
0.00671376
0.00669141
0.0066745
0.00666454
0.00665945
0.00666158
0.00666505
0.00666992
0.00667548
0.00667943
0.00668161
0.00668239
0.006683
0.00668477
0.00668834
0.00669315
0.00669787
0.00670182
0.00670582
0.0196543
0.0196744
0.0197262
0.019853
0.0200743
0.0203849
0.0207526
0.0211322
0.0214799
0.021764
0.0219604
0.0220394
0.0219546
0.0216347
0.0210168
0.0201363
0.0189719
0.0175505
0.0159692
0.0143177
0.0125949
0.0109009
0.00932203
0.00779973
0.0063226
0.00493386
0.00365767
0.00253152
0.00161798
0.000941598
0.000478914
0.000196823
8.56102e-05
0.000109398
0.00880731
0.00984297
0.0120304
0.0151657
0.0174672
0.0187075
0.0192248
0.0192928
0.0193471
0.008195
0.00774636
0.0074332
0.00721252
0.00705818
0.00694888
0.00686991
0.00681113
0.00676339
0.0067304
0.00671137
0.0066876
0.006674
0.00666316
0.00665961
0.00666165
0.00666507
0.00666992
0.00667545
0.00667943
0.00668161
0.00668243
0.00668303
0.00668471
0.0066882
0.006693
0.0066978
0.00670181
0.00670581
0.0193048
0.0192638
0.0192979
0.0194382
0.0196943
0.0200445
0.0204476
0.0208556
0.0212298
0.0215454
0.0217813
0.0219069
0.0218737
0.0216093
0.0210457
0.020202
0.0190656
0.0176814
0.0161254
0.014482
0.0127494
0.0110367
0.00944058
0.00790397
0.00641455
0.00501147
0.00372275
0.00258084
0.00164885
0.000954542
0.000480086
0.000194701
8.55386e-05
0.000110289
0.00864998
0.00958928
0.01157
0.0146996
0.0171625
0.0184983
0.0190591
0.0191644
0.0189883
0.0189198
0.00808015
0.00766461
0.00737628
0.00717402
0.00703252
0.00693149
0.00685775
0.00680233
0.00675692
0.00672664
0.00670904
0.00668424
0.00667355
0.00666216
0.00665973
0.00666168
0.00666507
0.0066699
0.00667539
0.00667932
0.00668157
0.00668248
0.00668307
0.00668466
0.00668805
0.00669283
0.00669771
0.0067018
0.00670581
0.0188122
0.0187473
0.0187904
0.018968
0.0192701
0.0196654
0.0201055
0.0205434
0.0209491
0.0213032
0.021585
0.021761
0.0217804
0.0215701
0.0210551
0.0202521
0.0191595
0.0178158
0.0162888
0.0146564
0.0129159
0.0111845
0.00957004
0.00801791
0.00651515
0.00509635
0.00379393
0.00263499
0.0016828
0.000969191
0.000481371
0.000192128