/*--------------------------------*- C++ -*----------------------------------*\
  =========                 |
  \\      /  F ield         | OpenFOAM: The Open Source CFD Toolbox
   \\    /   O peration     | Website:  https://openfoam.org
    \\  /    A nd           | Version:  8
     \\/     M anipulation  |
\*---------------------------------------------------------------------------*/
FoamFile
{
    version     2.0;
    format      ascii;
    class       volScalarField;
    location    "0.39";
    object      epsilon;
}
// * * * * * * * * * * * * * * * * * * * * * * * * * * * * * * * * * * * * * //

dimensions      [0 2 -3 0 0 0 0];

internalField   nonuniform List<scalar> 
15677
(
59.7284
18.3627
52.6898
8.08273
26.0299
50.2391
4.62183
13.3259
31.6658
50.5485
3.17385
7.74987
17.1333
37.3523
51.6437
2.48683
5.05443
10.051
20.8636
42.7043
53.6834
2.14416
3.62775
6.47422
12.1892
24.5879
47.7019
55.7371
1.97928
2.82284
4.53054
7.7381
14.3032
28.2921
52.0507
57.6655
1.91148
2.35337
3.40442
5.31727
8.9313
16.4497
31.7896
55.721
59.3558
1.88406
2.08026
2.72441
3.91276
6.03028
10.1213
18.5601
34.984
58.7265
60.8503
1.8705
1.93936
2.30756
3.05726
4.36265
6.71632
11.2893
20.5919
37.7988
61.1897
62.1094
1.86764
1.87828
2.05659
2.52193
3.35063
4.78166
7.37321
12.4337
22.4824
40.2557
63.1698
63.2168
1.86864
1.84884
1.91659
2.18643
2.71394
3.6183
5.17169
8.01135
13.522
24.2255
42.3455
64.7847
64.1405
1.86957
1.8387
1.85193
1.98279
2.30765
2.88821
3.86214
5.54257
8.61647
14.5535
25.7872
44.1298
66.0791
64.9649
1.86981
1.83698
1.82112
1.8678
2.05179
2.41921
3.04535
4.08896
5.88914
9.19208
15.504
27.1853
45.6201
67.1314
65.6842
1.86981
1.83724
1.8105
1.81335
1.89837
2.11808
2.5202
3.18922
4.29741
6.21532
9.72559
16.3797
28.4051
46.8714
67.9871
66.3227
1.86976
1.8375
1.8082
1.78975
1.81545
1.93062
2.17962
2.61216
3.31976
4.49045
6.51562
10.2206
17.1642
29.4678
47.9125
68.684
66.9064
1.86974
1.83759
1.8079
1.78271
1.77569
1.82161
1.96284
2.23625
2.69514
3.43883
4.66622
6.79219
10.6679
17.8659
30.374
48.7668
69.2805
67.4048
1.86973
1.8376
1.80792
1.78099
1.76142
1.76613
1.83196
1.99371
2.2876
2.77009
3.5461
4.82602
7.04123
11.0715
18.4762
31.1389
49.4739
69.7544
67.9077
1.86972
1.83759
1.80793
1.78066
1.75692
1.74386
1.76042
1.84341
2.02234
2.33393
2.83712
3.64238
4.96867
7.26441
11.4252
19.0031
31.7736
50.0298
70.1994
68.3013
1.86972
1.83758
1.80793
1.78061
1.75564
1.73581
1.72945
1.75746
1.85489
2.04855
2.37533
2.89672
3.72758
5.09485
7.45964
11.7322
19.4443
32.2858
50.4931
70.5326
68.767
1.86972
1.83757
1.80792
1.7806
1.75533
1.73308
1.71718
1.71794
1.75595
1.86606
2.07218
2.41201
2.94915
3.80204
5.20448
7.62761
11.9903
19.8072
32.6946
50.8332
70.9004
69.0797
1.86972
1.83756
1.80791
1.78058
1.75525
1.73224
1.71255
1.70117
1.70838
1.75585
1.87652
2.09325
2.44423
2.99465
3.86631
5.29754
7.76875
12.2023
20.0943
33.0037
51.1215
71.1491
69.5399
1.86972
1.83756
1.8079
1.78055
1.75521
1.73198
1.71092
1.69431
1.68707
1.70075
1.75614
1.88609
2.11189
2.47223
3.03384
3.92048
5.37546
7.88293
12.3698
20.3131
33.2316
51.3172
71.4963
69.7936
1.86972
1.83756
1.80789
1.78053
1.75519
1.73188
1.71038
1.69168
1.6778
1.67508
1.69438
1.75686
1.89485
2.12832
2.49651
3.06701
3.96574
5.43763
7.97347
12.4952
20.4707
33.3888
51.4802
71.699
70.2528
1.86972
1.83755
1.80789
1.78052
1.75516
1.73183
1.71019
1.6907
1.67399
1.66337
1.66454
1.68931
1.75811
1.90295
2.14289
2.51743
3.09501
4.00229
5.48736
8.03959
12.5851
20.5709
33.4789
51.601
72.0928
70.4948
1.86972
1.83755
1.80788
1.7805
1.75514
1.73178
1.7101
1.69032
1.6725
1.65827
1.65038
1.65586
1.68531
1.75982
1.91058
2.15602
2.53577
3.11859
4.03204
5.52357
8.08738
12.6376
20.6302
33.5342
51.6785
72.3855
428.21
1.86972
1.83755
1.80788
1.78049
1.75513
1.73174
1.71004
1.69015
1.67192
1.65612
1.64398
1.63943
1.64834
1.68258
1.76221
1.91826
2.16833
2.55216
3.13859
4.05515
5.55061
8.11443
12.6679
20.6393
33.5341
51.7996
88.7477
713.474
1.86972
1.83755
1.80788
1.78048
1.75511
1.73171
1.70999
1.69004
1.67167
1.65521
1.64122
1.63166
1.62981
1.64305
1.6815
1.76578
1.92637
2.18044
2.56744
3.15627
4.07417
5.56844
8.13169
12.666
20.6284
33.539
52.7295
122.08
990.074
1.86972
1.83755
1.80788
1.78048
1.7551
1.73169
1.70995
1.68997
1.67152
1.65479
1.64003
1.6281
1.62092
1.6226
1.63881
1.68232
1.77079
1.93568
2.19322
2.58287
3.17289
4.09016
5.58107
8.13182
12.6556
20.6032
33.5679
55.3083
157.447
1233.49
1.86972
1.83755
1.80788
1.78047
1.7551
1.73167
1.70992
1.68991
1.67142
1.65457
1.63948
1.62647
1.61679
1.61236
1.61691
1.63832
1.68496
1.77796
1.94689
2.20771
2.59926
3.18968
4.10454
5.5889
8.12889
12.634
20.568
33.6735
59.8932
189.755
1456.58
1.86972
1.83754
1.80788
1.78047
1.75509
1.73165
1.7099
1.68986
1.67134
1.65442
1.63919
1.6257
1.61488
1.6074
1.606
1.61459
1.63983
1.69043
1.78802
1.96096
2.22463
2.61785
3.20764
4.11917
5.59503
8.12242
12.6055
20.5282
33.9372
64.614
220.329
1644.58
1.86972
1.83754
1.80788
1.78046
1.75509
1.73164
1.70988
1.68982
1.67128
1.65431
1.63899
1.62529
1.61395
1.60501
1.60068
1.60236
1.6157
1.6441
1.69979
1.80193
1.97869
2.24526
2.63956
3.22847
4.1353
5.60228
8.11381
12.5763
20.4831
34.4134
69.4089
247.111
1786.49
1.86972
1.83754
1.80788
1.78046
1.75508
1.73163
1.70986
1.68979
1.67122
1.65423
1.63885
1.62503
1.61344
1.60383
1.59809
1.59627
1.60324
1.61952
1.65265
1.71376
1.82053
2.0013
2.27043
2.66585
3.253
4.15498
5.61185
8.10789
12.5442
20.4424
34.9789
73.7477
267.883
1895.83
1.86972
1.83754
1.80788
1.78046
1.75508
1.73162
1.70985
1.68976
1.67118
1.65416
1.63872
1.62485
1.61311
1.6032
1.59678
1.59328
1.59703
1.60685
1.62754
1.66681
1.73324
1.84503
2.02962
2.30149
2.69737
3.28283
4.17914
5.62598
8.10311
12.5111
20.4091
35.5243
77.113
284.261
1983.07
1.83754
1.86976
1.80788
1.78045
1.75508
1.73161
1.70984
1.68973
1.67114
1.65409
1.63862
1.62471
1.61287
1.60282
1.59605
1.59177
1.59399
1.60058
1.6147
1.64196
1.68713
1.75946
1.87627
2.06493
2.33903
2.7356
3.31858
4.20914
5.64458
8.10326
12.4742
20.3721
35.9402
79.6918
297.546
2055.36
1.80788
1.83764
1.86983
1.78045
1.75508
1.7316
1.70983
1.68971
1.67111
1.65404
1.63854
1.62459
1.61268
1.60255
1.59559
1.59099
1.59249
1.59758
1.60853
1.62951
1.66311
1.71483
1.79335
1.91566
2.10797
2.3845
2.78083
3.36137
4.24512
5.66848
8.10586
12.4346
20.3243
36.2272
81.6731
308.742
2117.61
1.78045
1.80804
1.83784
1.8699
1.75508
1.73159
1.70982
1.68969
1.67109
1.65399
1.63847
1.62449
1.61251
1.60233
1.59526
1.59052
1.59173
1.59617
1.60574
1.62371
1.65152
1.69234
1.75107
1.83622
1.96375
2.15984
2.43796
2.83432
3.41124
4.28741
5.70108
8.11303
12.3969
20.2649
36.4093
83.2325
318.475
2172.77
1.75508
1.78066
1.80835
1.83805
1.86997
1.73158
1.70981
1.68967
1.67107
1.65395
1.63841
1.6244
1.61237
1.60216
1.59499
1.59021
1.59131
1.59554
1.6046
1.6214
1.64666
1.68232
1.73096
1.7974
1.88909
2.02208
2.2209
2.501
2.89579
3.46842
4.34158
5.74457
8.12678
12.3625
20.1947
36.5073
84.4891
327.226
2222.95
1.73158
1.75533
1.78108
1.80868
1.83826
1.87005
1.70981
1.68965
1.67105
1.65391
1.63836
1.62432
1.61226
1.60202
1.59477
1.58997
1.59104
1.59524
1.60425
1.62083
1.64539
1.67922
1.72347
1.78081
1.85501
1.95363
2.09111
2.29231
2.57256
2.96567
3.54024
4.41033
5.79556
8.14661
12.3313
20.1178
36.5531
85.5451
335.226
2269.19
1.7098
1.73187
1.75585
1.78151
1.80902
1.83848
1.87013
1.68964
1.67103
1.65388
1.63832
1.62425
1.61216
1.6019
1.59458
1.58979
1.59084
1.59509
1.60423
1.62105
1.64577
1.67941
1.72256
1.77682
1.84354
1.92605
2.03073
2.17241
2.37395
2.65382
3.0526
3.62964
4.48763
5.85337
8.17155
12.3041
20.0381
36.5496
86.4541
342.714
2312.47
1.68963
1.71014
1.73247
1.75638
1.78196
1.80936
1.8387
1.87021
1.67102
1.65385
1.63829
1.62419
1.61208
1.60179
1.59442
1.58964
1.5907
1.59501
1.60435
1.62159
1.64698
1.68148
1.72515
1.77917
1.84359
1.92054
2.01156
2.12239
2.26601
2.46731
2.75377
3.15975
3.72857
4.57207
5.91682
8.20106
12.2811
19.9578
36.5344
87.2709
349.729
2352.99
1.67101
1.68998
1.71081
1.73308
1.75693
1.78241
1.80971
1.83893
1.87029
1.65382
1.63826
1.62413
1.61201
1.60169
1.59429
1.58951
1.59058
1.59498
1.60452
1.62222
1.64845
1.68438
1.72974
1.78541
1.8508
1.92669
2.01291
2.11266
2.22915
2.37384
2.58327
2.87865
3.27697
3.83485
4.66257
5.9846
8.23455
12.2625
19.8811
36.5038
88.0097
356.422
2391.34
1.6538
1.67139
1.69072
1.71151
1.73372
1.75749
1.78288
1.81008
1.83917
1.87037
1.63823
1.62408
1.61195
1.6016
1.59417
1.58941
1.59049
1.59496
1.60471
1.62287
1.64997
1.68746
1.73517
1.79385
1.86218
1.94067
2.02751
2.12378
2.22955
2.35113
2.50959
2.72983
3.01688
3.40328
3.94676
4.75732
6.05571
8.27134
12.2482
19.8092
36.4644
88.7054
362.738
2427.39
1.63821
1.65419
1.67219
1.69148
1.71223
1.73437
1.75807
1.78337
1.81045
1.83941
1.87046
1.62404
1.6119
1.60152
1.59408
1.58933
1.59042
1.59497
1.60492
1.6235
1.65145
1.69048
1.74065
1.80324
1.87613
1.95941
2.0506
2.14955
2.25364
2.36542
2.50337
2.67977
2.893
3.16674
3.53786
4.06402
4.8552
6.12914
8.31066
12.2378
19.743
36.4254
89.3533
368.817
2461.65
1.624
1.63862
1.65502
1.67301
1.69226
1.71297
1.73504
1.75866
1.78387
1.81083
1.83966
1.87055
1.61186
1.60145
1.594
1.58925
1.59037
1.59498
1.60511
1.6241
1.65287
1.69334
1.74595
1.81257
1.89117
1.9814
2.07939
2.18509
2.29378
2.40598
2.53744
2.69664
2.86818
3.07237
3.32841
3.67937
4.18495
4.95502
6.20398
8.35182
12.2312
19.6828
36.3883
89.98
374.545
2493.78
1.61183
1.62439
1.63948
1.65587
1.67385
1.69306
1.71372
1.73573
1.75927
1.78438
1.81123
1.83991
1.87064
1.60138
1.59394
1.58919
1.59032
1.595
1.6053
1.62466
1.6542
1.69602
1.75099
1.82154
1.90602
2.00494
2.11252
2.22791
2.34563
2.46501
2.60069
2.75873
2.91467
3.07351
3.26214
3.49889
3.82583
4.30845
5.05581
6.27934
8.39425
12.2277
19.6293
36.3561
90.5711
380.079
2524.34
1.60132
1.61221
1.62523
1.64036
1.65675
1.67472
1.69389
1.7145
1.73644
1.7599
1.7849
1.81163
1.84018
1.87073
1.59389
1.58912
1.59027
1.59502
1.60549
1.62518
1.65543
1.69851
1.75573
1.83003
1.9203
2.02829
2.14796
2.27697
2.40719
2.53885
2.68628
2.85474
3.01146
3.15664
3.29554
3.46111
3.67669
3.97659
4.43351
5.15658
6.35451
8.43728
12.2281
19.5818
36.3299
91.1492
385.267
2552.88
1.59386
1.60163
1.61304
1.62609
1.64127
1.65766
1.67561
1.69474
1.7153
1.73717
1.76054
1.78544
1.81204
1.84043
1.87082
1.58905
1.59023
1.59505
1.60566
1.62567
1.65658
1.70081
1.76016
1.83799
1.93392
2.05095
2.18324
2.32984
2.47796
2.62637
2.79174
2.97979
3.14949
3.29603
3.42137
3.53234
3.66742
3.8578
4.12996
4.55888
5.2566
6.42883
8.48058
12.23
19.5401
36.3093
91.6969
390.291
2580.04
1.58899
1.59415
1.60232
1.61389
1.62699
1.64221
1.6586
1.67653
1.69562
1.71612
1.73792
1.7612
1.78599
1.81245
1.84069
1.8709
1.59019
1.59506
1.60581
1.62611
1.65763
1.70293
1.76427
1.8454
1.94682
2.07267
2.21765
2.38322
2.55506
2.72795
2.91732
3.13374
3.32686
3.48735
3.61242
3.70754
3.78181
3.87992
4.03981
4.28405
4.68351
5.35499
6.50177
8.52363
12.2339
19.5035
36.2958
92.2334
394.968
2605.26
1.59018
1.58904
1.59476
1.60302
1.61476
1.62793
1.64318
1.65957
1.67747
1.69653
1.71696
1.73869
1.76187
1.78654
1.81285
1.84093
1.87098
1.59507
1.60595
1.62652
1.65859
1.70487
1.76806
1.85226
1.95896
2.09326
2.2509
2.43611
2.63376
2.84022
3.06528
3.32003
3.54769
3.73381
3.87097
3.96081
4.0138
4.04191
4.09695
4.22154
4.43707
4.80613
5.45124
6.5729
8.56607
12.24
19.4721
36.2864
92.7423
399.51
2629.29
1.59512
1.59009
1.58914
1.59537
1.60377
1.61567
1.62891
1.64418
1.66058
1.67844
1.69746
1.71783
1.73948
1.76254
1.78707
1.81323
1.84117
1.87106
1.60607
1.62689
1.65946
1.70665
1.77155
1.8586
1.97032
2.11265
2.28283
2.48793
2.71231
2.95686
3.23253
3.54531
3.82161
4.04758
4.2094
4.30459
4.34198
4.33893
4.31073
4.31656
4.40186
4.58823
4.92658
5.54497
6.64189
8.60766
12.2475
19.4449
36.2842
93.2389
403.702
2651.47
1.60624
1.59482
1.58988
1.58922
1.59601
1.60458
1.61661
1.62993
1.6452
1.66161
1.67943
1.69842
1.71871
1.74026
1.76319
1.78759
1.81361
1.8414
1.87114
1.62721
1.66025
1.70827
1.77475
1.86444
1.9809
2.13079
2.31334
2.53811
2.78979
3.07603
3.41095
3.80809
4.16469
4.45178
4.65593
4.76769
4.79477
4.75746
4.68198
4.58653
4.5371
4.57961
4.73537
5.04426
5.63579
6.70849
8.64817
12.2561
19.4219
36.2857
93.7104
407.793
2672.65
1.62757
1.60562
1.59402
1.58961
1.58943
1.59667
1.60546
1.61757
1.631
1.64625
1.66268
1.68046
1.6994
1.71959
1.74102
1.76382
1.78809
1.81397
1.84162
1.87122
1.66095
1.70973
1.77766
1.86982
1.9907
2.1477
2.34232
2.5862
2.86569
3.19689
3.59734
4.09698
4.58328
4.98555
5.26228
5.40805
5.42817
5.34974
5.20921
5.04218
4.86778
4.75713
4.75426
4.87745
5.15833
5.72336
6.77253
8.68742
12.2656
19.4021
36.29
94.1668
411.534
2689.67
1.66168
1.62639
1.60387
1.5931
1.58938
1.58984
1.59734
1.60641
1.61856
1.6321
1.64734
1.66379
1.68151
1.70038
1.72044
1.74176
1.76444
1.78858
1.81433
1.84184
1.87129
1.71106
1.78031
1.87475
1.99976
2.16344
2.36972
2.63193
2.93977
3.31835
3.78886
4.40837
5.06989
5.68124
6.11447
6.32707
6.34692
6.21164
5.97733
5.69876
5.41864
5.15305
4.97543
4.92513
5.01427
5.26825
5.80744
6.83388
8.7253
12.2757
19.3857
36.2979
94.6007
414.714
2703.97
1.7124
1.65988
1.62304
1.60195
1.59227
1.58909
1.5904
1.59801
1.60742
1.61959
1.63325
1.64846
1.66491
1.68255
1.70132
1.72128
1.74248
1.76503
1.78905
1.81467
1.84205
1.87136
1.78273
1.87925
2.0081
2.17807
2.39549
2.6752
3.01186
3.43894
3.98287
4.74213
5.62946
6.54303
7.28797
7.68008
7.72111
7.51008
7.13373
6.68223
6.22622
5.81004
5.44094
5.19098
5.09147
5.14565
5.37368
5.88786
6.89246
8.76167
12.2863
19.3717
36.3096
94.9612
417.326
2719.46
1.78508
1.70978
1.65443
1.61946
1.60022
1.59156
1.58883
1.59107
1.59872
1.60848
1.62066
1.63443
1.64962
1.66604
1.68357
1.70225
1.72209
1.74318
1.76561
1.78951
1.81501
1.84225
1.87143
1.88343
2.01577
2.19165
2.41962
2.71606
3.08177
3.55716
4.17802
5.09968
6.26742
7.57885
8.78594
9.58892
9.78947
9.49667
8.91841
8.20013
7.46413
6.78961
6.21444
5.73005
5.40289
5.25272
5.27145
5.47441
5.9645
6.94821
8.79651
12.297
19.3604
36.3206
95.2677
420.213
2736.29
1.88736
1.78146
1.70131
1.64868
1.61616
1.59866
1.59091
1.58864
1.59181
1.59948
1.60959
1.62177
1.63564
1.65077
1.66712
1.68456
1.70314
1.72288
1.74386
1.76618
1.78996
1.81533
1.84245
1.87147
2.02291
2.20425
2.44216
2.7546
3.14918
3.67184
4.37435
5.4822
6.98319
8.78544
10.6025
12.0382
12.7247
12.5089
11.6757
10.5733
9.40571
8.31751
7.38483
6.62923
6.01888
5.61038
5.40844
5.39161
5.57034
6.03733
7.00116
8.82976
12.3079
19.352
36.332
95.6047
423.3
2754.63
2.02946
1.88248
1.76871
1.69248
1.64331
1.61311
1.59722
1.59033
1.58853
1.59261
1.6003
1.61074
1.62294
1.63684
1.6519
1.66818
1.68553
1.70401
1.72364
1.74452
1.76673
1.79039
1.81565
1.84255
1.87147
2.21608
2.46322
2.79095
3.21379
3.78232
4.57279
5.88926
7.76997
10.1465
12.7159
15.0045
16.4925
16.7928
15.8689
14.2547
12.4604
10.7366
9.23259
8.00608
7.05131
6.30593
5.81274
5.55836
5.50613
5.66145
6.10637
7.05132
8.86142
12.3173
19.3458
36.3448
95.9771
426.754
2774.63
2.22671
2.02303
1.86361
1.75557
1.6842
1.63826
1.61025
1.59588
1.58985
1.58852
1.59345
1.6012
1.6119
1.62411
1.63801
1.65301
1.66921
1.68647
1.70486
1.72439
1.74516
1.76726
1.79081
1.81581
1.84255
1.87147
2.48305
2.82529
3.27539
3.88856
4.77447
6.31843
8.61683
11.6383
15.0889
18.4473
21.0583
22.3079
21.8569
19.8729
17.2123
14.5548
12.1733
10.197
8.64652
7.47725
6.58969
6.00939
5.70225
5.61503
5.74778
6.17166
7.09873
8.88751
12.3255
19.3395
36.3619
96.3901
430.437
2796.43
2.50049
2.2183
1.99548
1.84441
1.7432
1.67634
1.63346
1.60756
1.59465
1.58946
1.58861
1.59431
1.60219
1.61305
1.62528
1.63914
1.65409
1.67022
1.68739
1.70568
1.72512
1.74578
1.76778
1.79102
1.81581
1.84255
1.87147
2.85791
3.33402
3.99112
4.98027
6.76553
9.51073
13.2342
17.6761
22.3027
26.3595
29.0146
29.6106
27.9487
24.5016
20.5138
16.8253
13.6939
11.1974
9.29889
7.90357
6.86874
6.19983
5.83999
5.71839
5.82944
6.2333
7.13759
8.90969
12.3349
19.3339
36.3815
96.8477
434.58
2820.24
2.88624
2.48983
2.17816
1.96781
1.82634
1.73143
1.66881
1.62887
1.60504
1.59354
1.58918
1.58885
1.59516
1.60324
1.61417
1.62644
1.64025
1.65515
1.67119
1.68829
1.70648
1.72582
1.74639
1.76804
1.79102
1.81581
1.84255
1.87147
3.38995
4.09098
5.19059
7.22515
10.4379
14.9066
20.4289
26.4926
32.2915
36.8182
39.0883
38.4836
35.0645
29.7144
24.1154
19.2378
15.2758
12.2204
9.95613
8.32697
7.14175
6.3836
5.97153
5.81633
5.90651
6.28389
7.17052
8.93405
12.3455
19.3284
36.4075
97.3593
438.99
2846.15
3.43802
2.8725
2.43134
2.13848
1.94176
1.80908
1.72008
1.66156
1.62447
1.60272
1.59255
1.58898
1.58933
1.59599
1.60431
1.61527
1.62757
1.64133
1.65618
1.67214
1.68916
1.70726
1.72651
1.74669
1.76804
1.79102
1.81581
1.84255
1.87147
4.18881
5.40328
7.6916
11.3846
16.6288
23.2983
30.9328
38.7226
45.55
50.1498
51.4389
48.9566
43.1633
35.4518
27.9669
21.7574
16.8973
13.2537
10.6118
8.7444
7.40754
6.56041
6.09686
5.909
5.9693
6.32681
7.20654
8.96082
12.3577
19.3244
36.4382
97.9239
443.999
2874.46
4.2744
3.42076
2.78606
2.37448
2.10116
1.91682
1.7924
1.70911
1.65457
1.62025
1.60059
1.59165
1.58873
1.58999
1.59678
1.60539
1.61634
1.62869
1.64238
1.65719
1.67307
1.69001
1.70802
1.72685
1.74669
1.76804
1.79102
1.81581
1.84255
1.87143
5.61516
8.16078
12.3386
18.3752
26.2368
35.5386
45.5095
54.9925
62.5293
66.6125
66.1519
60.9992
52.1673
41.639
32.0141
24.35
18.5383
14.2861
11.2602
9.15319
7.66514
6.73001
6.21604
5.9851
6.02232
6.37375
7.24597
8.99027
12.3715
19.3208
36.4765
98.5655
449.315
2905.2
4.25245
5.80171
3.28907
2.70396
2.32103
2.06536
1.89268
1.77623
1.69852
1.64787
1.61624
1.59863
1.59086
1.5885
1.59075
1.59758
1.60647
1.61739
1.62978
1.64341
1.65817
1.67397
1.69083
1.70839
1.72685
1.74669
1.76804
1.79102
1.81581
1.84245
1.87136
8.62763
13.2887
20.1233
29.2003
40.2292
52.5097
64.9083
75.8783
83.6016
86.3722
83.2263
74.5186
61.9667
48.19
36.2018
26.9833
20.1811
15.3082
11.8964
9.55117
7.91378
6.89223
6.31425
6.04969
6.08008
6.42511
7.28915
9.02271
12.3874
19.3199
36.5243
99.2674
455.419
2938.78
4.03637
5.78572
9.04347
3.16833
2.62693
2.26974
2.03067
1.86925
1.7606
1.68832
1.64146
1.61247
1.59687
1.59019
1.58837
1.59154
1.59839
1.60753
1.61843
1.63084
1.64441
1.65912
1.67485
1.69124
1.70839
1.72686
1.74669
1.76804
1.79102
1.81565
1.84225
1.87129
14.2232
21.8532
32.1505
44.9316
59.5914
75.0662
89.8175
101.869
109.034
109.484
102.568
89.3642
72.4259
55.0124
40.476
29.6281
21.8104
16.312
12.5166
9.93659
8.15284
7.02663
6.39782
6.12039
6.14305
6.48131
7.33649
9.05849
12.4056
19.3208
36.5802
100.082
461.871
2975.05
3.84623
5.40092
9.05999
15.0569
3.05606
2.55299
2.22004
1.997
1.84656
1.74551
1.67853
1.63537
1.60901
1.59533
1.58966
1.58834
1.59235
1.59922
1.60857
1.61946
1.63187
1.6454
1.66006
1.67528
1.69124
1.70839
1.72686
1.74669
1.76804
1.79081
1.81533
1.84204
1.87122
23.5445
35.0547
49.585
66.6399
85.259
103.984
120.83
133.344
138.969
135.88
123.991
105.335
83.392
62.0126
44.7861
32.2584
23.4129
17.2912
13.1178
10.3081
8.35173
7.14136
6.48953
6.19786
6.21174
6.54284
7.38843
9.09799
12.4267
19.3238
36.6541
100.962
469.375
3014.69
3.67327
5.06551
8.35348
15.1487
25.0622
2.94866
2.48141
2.17184
1.96441
1.82467
1.73102
1.6692
1.62968
1.60593
1.59401
1.58926
1.58843
1.59314
1.60008
1.60958
1.62048
1.63288
1.64636
1.66052
1.67528
1.69124
1.7084
1.72686
1.74669
1.76778
1.79039
1.815
1.84183
1.87114
37.8803
54.1401
73.5649
95.3156
118.064
139.932
158.43
170.555
173.401
165.363
147.224
122.194
94.7042
69.1009
49.0862
34.8515
24.9781
18.2407
13.6975
10.6178
8.52195
7.26771
6.59029
6.2828
6.28674
6.61022
7.44543
9.1417
12.4508
19.3312
36.7343
102.011
477.259
3057.14
3.51063
4.76213
7.72343
13.9198
25.3414
40.4212
2.84495
2.41211
2.12521
1.93296
1.80361
1.71715
1.66039
1.62451
1.60323
1.5929
1.58899
1.58863
1.5939
1.60096
1.61056
1.62148
1.63388
1.64684
1.66051
1.67528
1.69125
1.7084
1.72686
1.74639
1.76726
1.78995
1.81466
1.84161
1.87106
58.5479
80.2978
105.11
131.81
158.71
183.472
202.989
213.609
212.174
197.609
171.927
139.68
106.204
76.1933
53.3356
37.3889
26.4977
19.1567
14.1807
10.883
8.70986
7.407
6.70112
6.376
6.36869
6.68403
7.50806
9.19003
12.4791
19.341
36.848
103.121
486.566
3103.55
3.35602
4.47951
7.1458
12.7899
23.4201
41.0417
62.5065
2.74481
2.34522
2.08027
1.90272
1.78345
1.70404
1.65235
1.61992
1.60089
1.59198
1.58883
1.58899
1.59463
1.60185
1.61152
1.62249
1.63436
1.64683
1.66051
1.67528
1.69125
1.7084
1.72652
1.74578
1.76672
1.7895
1.81432
1.84139
1.87098
86.7707
114.554
145.057
176.818
207.793
235.078
254.758
262.455
254.963
232.179
197.709
157.528
117.74
83.215
57.5004
39.8557
27.9649
19.9205
14.5947
11.1761
8.91753
7.56073
6.82313
6.47837
6.45833
6.76491
7.57689
9.24372
12.5111
19.3609
36.9624
104.493
496.265
3152.61
3.20889
4.21412
6.60435
11.731
21.6153
38.2256
63.659
92.5567
2.64834
2.2809
2.0371
1.87377
1.76436
1.69201
1.64515
1.61583
1.59889
1.59119
1.58866
1.5895
1.59532
1.60277
1.61249
1.62298
1.63434
1.64684
1.66052
1.67529
1.69125
1.70802
1.72582
1.74515
1.76617
1.78904
1.81396
1.84116
1.8709
123.56
157.7
194.045
230.915
265.851
295.161
313.867
316.857
301.273
268.537
224.156
175.48
129.177
90.1031
61.5529
42.2398
29.1892
20.5749
15.0522
11.5003
9.14727
7.73058
6.95761
6.5909
6.55646
6.85357
7.6526
9.30316
12.5494
19.3815
37.1363
105.909
507.883
3215.7
3.06911
3.96554
6.09435
10.7231
19.8852
35.5526
59.7335
94.4395
131.543
2.55571
2.21933
1.99583
1.84638
1.74683
1.68121
1.63869
1.61217
1.59718
1.59054
1.58847
1.59008
1.59602
1.60374
1.61295
1.62296
1.63434
1.64684
1.66052
1.6753
1.69084
1.70726
1.72511
1.74451
1.7656
1.78856
1.8136
1.84092
1.87081
169.64
210.285
252.573
294.635
333.419
364.074
380.285
376.376
350.459
306.09
250.854
193.299
140.397
96.8056
65.471
44.2304
30.2386
21.2983
15.5581
11.8591
9.40162
7.91842
7.10599
6.71471
6.66399
6.9508
7.73588
9.36949
12.5923
19.4201
37.2998
107.718
522.115
3290.86
2.93643
3.73423
5.61615
9.76154
18.2031
32.953
56.003
89.1665
134.315
180.082
2.46719
2.16066
1.95684
1.82125
1.73106
1.6715
1.63291
1.60892
1.59572
1.59
1.58835
1.59074
1.59682
1.60422
1.6129
1.62297
1.63434
1.64685
1.66053
1.67486
1.69001
1.70648
1.72438
1.74385
1.76502
1.78808
1.81322
1.84068
1.87073
225.434
272.678
321.104
368.58
411.085
442.11
453.798
440.361
401.747
344.21
277.408
210.781
151.306
103.281
68.7416
45.9369
31.3991
22.0985
16.1182
12.2565
9.68345
8.12634
7.26984
6.85104
6.78194
7.05748
7.82762
9.44293
12.6446
19.4575
37.5612
109.813
541.151
3365.43
2.81026
3.52126
5.17109
8.85256
16.5582
30.3896
52.348
84.1928
127.404
183.803
238.422
2.38313
2.10539
1.92112
1.79866
1.7169
1.66279
1.62774
1.60607
1.59446
1.58954
1.58835
1.59154
1.59716
1.60419
1.6129
1.62298
1.63435
1.64686
1.66007
1.67397
1.68916
1.70568
1.72364
1.74317
1.76442
1.78758
1.81284
1.84043
1.87064
291.141
345.206
400.214
453.51
499.519
529.477
533.967
507.953
454.271
382.283
303.477
227.757
161.828
108.679
71.5446
47.8243
32.6832
22.9844
16.7384
12.697
9.99591
8.35666
7.45094
7.00128
6.91142
7.17456
7.9286
9.52533
12.7024
19.5243
37.8431
112.888
561.391
3438.66
2.69035
3.32873
4.76086
7.99647
14.9511
27.8447
48.7142
79.3176
120.99
174.861
242.986
306.515
2.30435
2.05488
1.88908
1.77837
1.70417
1.65498
1.62314
1.60357
1.59336
1.58925
1.58866
1.59194
1.59702
1.60422
1.6129
1.62298
1.63439
1.64639
1.65913
1.67307
1.68829
1.70485
1.72287
1.74247
1.76381
1.78706
1.81245
1.84017
1.87055
366.894
428.335
490.753
550.453
599.54
626.279
620.092
578.096
507.129
419.751
328.77
244.092
170.578
113.3
74.6429
49.9128
34.1051
23.9656
17.4257
13.1854
10.3425
8.61191
7.65124
7.16697
7.05371
7.30314
8.03998
9.61663
12.7742
19.6008
38.3605
115.91
583.158
3510.41
2.57782
3.15234
4.38564
7.19667
13.3972
25.3168
45.0698
74.4623
114.747
166.762
231.451
311.58
384.194
2.2328
2.00969
1.86035
1.76014
1.69273
1.64798
1.61903
1.60134
1.5925
1.58933
1.58872
1.59184
1.59703
1.60422
1.61292
1.62302
1.6339
1.64541
1.65817
1.67214
1.68739
1.70401
1.72208
1.74176
1.76319
1.78654
1.81204
1.83991
1.87046
452.986
522.939
594.048
660.967
712.187
732.425
711.151
649.588
559.457
456.137
353.061
257.636
178.052
118.4
78.0681
52.2248
35.6802
25.0529
18.1875
13.727
10.7269
8.89491
7.8729
7.3498
7.21021
7.44437
8.16272
9.71958
12.868
19.75
38.8481
119.57
607.26
3578.98
2.47555
2.99068
4.04706
6.45837
11.9121
22.8177
41.4028
69.5723
108.564
158.996
221.326
296.638
389.108
471.419
2.16916
1.96927
1.8346
1.74378
1.68247
1.64169
1.61534
1.5995
1.59219
1.58927
1.58845
1.59189
1.59703
1.60422
1.61301
1.62253
1.6329
1.64443
1.65719
1.67119
1.68648
1.70314
1.72128
1.74103
1.76254
1.786
1.81163
1.83965
1.87037
550.183
630.397
712.327
787.374
838.64
847.465
805.807
721.187
610.479
491.053
373.139
269.176
186.28
124.026
81.8549
54.7844
37.4255
26.258
19.032
14.3275
11.1533
9.20865
8.11824
7.55164
7.38244
7.59971
8.29838
9.85521
13.0021
19.9076
39.5206
123.467
631.596
3646.08
2.38474
2.84561
3.74644
5.7879
10.5129
20.3659
37.7169
64.6148
102.355
151.413
211.833
283.987
369.567
475.187
568.643
2.11255
1.93313
1.81153
1.72909
1.67323
1.63601
1.6122
1.59849
1.59189
1.58893
1.58848
1.59189
1.59707
1.6043
1.61256
1.62152
1.63189
1.64342
1.65619
1.67022
1.68554
1.70225
1.72045
1.74027
1.76189
1.78545
1.81123
1.8394
1.87028
659.596
753.301
849.265
932.812
979.949
970.464
902.502
791.685
659.544
519.851
390.2
281.837
195.328
130.229
86.0393
57.6175
39.3591
27.5937
19.968
14.9932
11.6261
9.55637
8.38976
7.77444
7.5722
7.77055
8.47693
10.0296
13.1521
20.1213
40.2292
127.832
659.884
3708.57
2.30437
2.71648
3.48919
5.19252
9.22135
17.9834
34.0264
59.5744
96.0538
143.882
202.776
272.468
353.68
449.277
569.936
677.263
2.06216
1.90083
1.79085
1.71587
1.66488
1.63113
1.6102
1.59776
1.59142
1.58898
1.5885
1.59189
1.59728
1.60384
1.61158
1.62052
1.63086
1.6424
1.65516
1.66923
1.68458
1.70134
1.71961
1.7395
1.76122
1.7849
1.81083
1.83916
1.8702
783.967
896.719
1010.5
1100.97
1136.73
1100.07
999.562
859.984
700.016
544.27
408.855
295.703
205.262
137.059
90.6596
60.7518
41.5006
29.0735
21.005
15.7307
12.1498
9.94146
8.69008
8.0205
7.78123
7.99147
8.70019
10.2194
13.3249
20.3696
41.0776
132.918
687.333
3769.71
2.23339
2.6009
3.27733
4.68493
8.05457
15.6945
30.3546
54.4483
89.6127
136.293
193.965
261.821
339.693
429.173
534.931
674.628
800.021
2.01727
1.87197
1.77225
1.70392
1.65764
1.62781
1.60889
1.5971
1.59149
1.589
1.58855
1.59206
1.59698
1.60287
1.61062
1.61951
1.62981
1.64135
1.65411
1.66821
1.68359
1.70041
1.71875
1.73872
1.76055
1.78437
1.81045
1.83892
1.87012
929.062
1069.13
1203.65
1295.95
1309.43
1234.69
1095.21
916.569
734.302
570.885
429.193
310.85
216.146
144.569
95.7547
64.2158
43.8703
30.7118
22.1529
16.5468
12.7293
10.3674
9.02208
8.29178
8.05497
8.26334
8.93759
10.4241
13.5264
20.6609
42.081
138.267
719.494
3826.04
2.17072
2.49777
3.09797
4.26236
7.04279
13.5504
26.7337
49.2457
82.9939
128.553
185.237
251.778
327.258
412.104
509.325
626.185
791.597
942.939
1.97728
1.84612
1.75548
1.69353
1.65251
1.62574
1.60795
1.59719
1.59152
1.58904
1.58894
1.59172
1.59619
1.60197
1.60965
1.6185
1.62873
1.64028
1.65304
1.66716
1.68259
1.69945
1.71787
1.73794
1.75991
1.78386
1.81007
1.83869
1.87004
1104.44
1282.9
1439.09
1523.79
1499.15
1372.06
1175.35
964.56
771.592
599.778
451.287
327.343
228.038
152.806
101.363
68.0383
46.4894
32.5234
23.422
17.4488
13.3695
10.8379
9.38818
8.64655
8.39434
8.54897
9.18831
10.6507
13.7483
21.0257
43.1759
144.775
751.099
3881.06
2.11532
2.40623
2.94301
3.91357
6.1929
11.635
23.2325
43.9905
76.1712
120.571
176.439
242.11
315.994
397.573
488.365
593.427
723.519
925.067
1116.55
1.94158
1.82287
1.74086
1.68598
1.64938
1.6245
1.60807
1.59722
1.59155
1.58952
1.58897
1.59093
1.5955
1.6011
1.60866
1.61747
1.62763
1.63919
1.65195
1.66609
1.68157
1.69848
1.717
1.73718
1.75929
1.78336
1.80971
1.83847
1.86996
1326.59
1557.81
1736.13
1796.15
1706.44
1489.41
1243.56
1016.72
811.927
630.988
475.178
345.228
240.985
161.813
107.519
72.2474
49.3786
34.5232
24.8229
18.4437
14.0754
11.3561
9.86666
9.08523
8.75093
8.84866
9.45648
10.8928
14.0154
21.4266
44.5425
151.554
786.763
3932.72
2.06617
2.32544
2.80683
3.62644
5.48835
9.98899
19.9882
38.7616
69.1344
112.26
167.413
232.593
305.585
385.026
471.321
567.568
681.673
828.909
1085.21
1337.89
1.90959
1.80263
1.72998
1.68148
1.64774
1.62467
1.60812
1.59726
1.5922
1.5897
1.58872
1.59031
1.59483
1.60026
1.60764
1.61644
1.62652
1.63807
1.65084
1.66499
1.68052
1.69751
1.71615
1.73645
1.75868
1.78287
1.80936
1.83825
1.86989
1628.6
1942.77
2135.18
2134.14
1887.74
1589.65
1317.66
1072.95
855.256
664.491
500.865
364.522
255.017
171.624
114.256
76.8688
52.5577
36.7258
26.3656
19.5388
14.8513
12.0321
10.4565
9.5444
9.12427
9.16485
9.73931
11.1648
14.3057
21.9344
46.0076
159.756
823.331
3983.27
2.02239
2.25429
2.68566
3.39287
4.90981
8.59989
17.0853
33.7566
61.9457
103.544
157.994
222.997
295.728
374.035
457.343
547.502
649.718
775.877
948.236
1295.94
1648.65
1.88174
1.78733
1.72355
1.67935
1.64796
1.62473
1.60818
1.59816
1.59265
1.58967
1.58877
1.58978
1.59413
1.59944
1.60661
1.61539
1.62539
1.63693
1.64971
1.66387
1.6795
1.69658
1.71534
1.73574
1.75809
1.7824
1.80902
1.83804
1.86982
2127.64
2543.44
2746.01
2431.6
2041.39
1697.77
1397.07
1132.96
901.403
700.183
528.295
385.208
270.137
182.258
121.596
81.9239
56.0442
39.1443
28.06
20.7401
15.8613
12.8622
11.0712
10.023
9.5149
9.49677
10.0442
11.4566
14.6536
22.4991
47.8187
168.599
862.349
4033.43
1.98434
2.19159
2.5774
3.20005
4.43717
7.43891
14.5307
29.1261
54.847
94.4292
148.012
213.069
286.118
364.195
445.857
531.868
626.057
736.49
881.094
1095.53
1611.35
2213.05
1.86033
1.77845
1.72078
1.67966
1.64805
1.62478
1.60941
1.5991
1.59305
1.59004
1.58898
1.58936
1.5934
1.59866
1.60557
1.61432
1.62425
1.63575
1.64857
1.66277
1.6785
1.69567
1.71454
1.73505
1.75752
1.78195
1.80868
1.83783
1.86975
3006.19
3737.29
3242.81
2672.94
2202.3
1811.57
1480.76
1196.21
950.047
737.864
557.345
407.219
286.323
193.715
129.55
87.4275
59.8519
41.7903
29.9135
22.3001
17.0965
13.7237
11.7089
10.5207
9.92242
9.84811
10.3673
11.7848
15.0427
23.1824
49.8632
178.746
905.059
4082.23
1.95475
2.13762
2.48089
3.03641
4.05363
6.48031
12.3283
24.9103
48.0535
85.1544
137.366
202.529
276.42
355.127
436.326
519.889
608.481
708.602
832.885
1009.66
1304.12
2211.17
3414.13
1.84798
1.77496
1.7212
1.67977
1.64809
1.62638
1.61099
1.60024
1.59401
1.5906
1.58925
1.58912
1.59265
1.59789
1.60453
1.61323
1.6231
1.63456
1.64744
1.6617
1.67754
1.69479
1.71377
1.73438
1.75696
1.7815
1.80836