# Forces      
# CofR        : (0.000000e+00 0.000000e+00 0.000000e+00)
# Time        forces(pressure viscous porous)	moments(pressure viscous porous)
0             	((2.396693e-04 3.093904e-02 -2.302912e-16) (8.384327e-06 -2.455374e-05 -3.940604e-19) (0.000000e+00 0.000000e+00 0.000000e+00)) ((-2.215494e-17 1.064768e-16 -1.699716e-05) (-8.424530e-21 -4.475382e-21 -2.682248e-07) (0.000000e+00 0.000000e+00 0.000000e+00))
1.19904e-05   	((2.268488e-04 3.035444e-02 -2.303064e-16) (4.412753e-05 -6.279023e-04 6.013947e-17) (0.000000e+00 0.000000e+00 0.000000e+00)) ((-2.215507e-17 1.064763e-16 -1.633827e-05) (1.806826e-18 -9.379795e-18 -1.529313e-06) (0.000000e+00 0.000000e+00 0.000000e+00))
2.62999e-05   	((2.301804e-04 3.009618e-02 -2.302793e-16) (6.869376e-06 3.484953e-05 1.143673e-17) (0.000000e+00 0.000000e+00 0.000000e+00)) ((-2.215458e-17 1.064748e-16 -1.649769e-05) (3.463278e-19 -1.441147e-18 -2.024447e-07) (0.000000e+00 0.000000e+00 0.000000e+00))
4.29227e-05   	((2.318967e-04 2.999507e-02 -2.302696e-16) (9.107901e-06 2.279236e-05 2.543753e-17) (0.000000e+00 0.000000e+00 0.000000e+00)) ((-2.215428e-17 1.064746e-16 -1.671412e-05) (7.669559e-19 -2.820492e-18 -2.776812e-07) (0.000000e+00 0.000000e+00 0.000000e+00))
6.18525e-05   	((2.337111e-04 3.004516e-02 -2.302868e-16) (1.002764e-05 2.319792e-05 2.944274e-17) (0.000000e+00 0.000000e+00 0.000000e+00)) ((-2.215464e-17 1.064749e-16 -1.685958e-05) (8.877396e-19 -2.957394e-18 -3.045719e-07) (0.000000e+00 0.000000e+00 0.000000e+00))
8.30879e-05   	((2.367371e-04 3.014835e-02 -2.303073e-16) (1.058865e-05 2.372337e-05 3.281562e-17) (0.000000e+00 0.000000e+00 0.000000e+00)) ((-2.215507e-17 1.064750e-16 -1.668956e-05) (9.895793e-19 -3.079600e-18 -3.187334e-07) (0.000000e+00 0.000000e+00 0.000000e+00))
0.00010615    	((2.334919e-04 3.025048e-02 -2.303138e-16) (1.087540e-05 2.544118e-05 3.480033e-17) (0.000000e+00 0.000000e+00 0.000000e+00)) ((-2.215517e-17 1.064753e-16 -1.592224e-05) (1.049663e-18 -3.176752e-18 -3.248115e-07) (0.000000e+00 0.000000e+00 0.000000e+00))
0.000129106   	((2.293657e-04 3.030929e-02 -2.303086e-16) (1.095091e-05 2.773484e-05 3.463706e-17) (0.000000e+00 0.000000e+00 0.000000e+00)) ((-2.215501e-17 1.064753e-16 -1.515082e-05) (1.044761e-18 -3.189016e-18 -3.255493e-07) (0.000000e+00 0.000000e+00 0.000000e+00))
0.000151955   	((2.302294e-04 3.034439e-02 -2.303000e-16) (1.097759e-05 3.044313e-05 3.476431e-17) (0.000000e+00 0.000000e+00 0.000000e+00)) ((-2.215479e-17 1.064752e-16 -1.501231e-05) (1.048574e-18 -3.190244e-18 -3.270779e-07) (0.000000e+00 0.000000e+00 0.000000e+00))
0.000174752   	((2.396494e-04 3.035929e-02 -2.302946e-16) (1.101355e-05 3.305667e-05 3.494318e-17) (0.000000e+00 0.000000e+00 0.000000e+00)) ((-2.215467e-17 1.064751e-16 -1.574298e-05) (1.053949e-18 -3.190565e-18 -3.294747e-07) (0.000000e+00 0.000000e+00 0.000000e+00))
0.000197443   	((2.545452e-04 3.036111e-02 -2.302945e-16) (1.105282e-05 3.521473e-05 3.504695e-17) (0.000000e+00 0.000000e+00 0.000000e+00)) ((-2.215466e-17 1.064749e-16 -1.709530e-05) (1.057054e-18 -3.188559e-18 -3.238729e-07) (0.000000e+00 0.000000e+00 0.000000e+00))
0.000220082   	((2.697333e-04 3.035670e-02 -2.302987e-16) (1.103607e-05 3.601566e-05 3.512772e-17) (0.000000e+00 0.000000e+00 0.000000e+00)) ((-2.215474e-17 1.064747e-16 -1.858908e-05) (1.059484e-18 -3.189742e-18 -3.229387e-07) (0.000000e+00 0.000000e+00 0.000000e+00))
0.000242668   	((2.794816e-04 3.035088e-02 -2.303047e-16) (1.092348e-05 3.691582e-05 3.519002e-17) (0.000000e+00 0.000000e+00 0.000000e+00)) ((-2.215486e-17 1.064745e-16 -1.976176e-05) (1.061358e-18 -3.190719e-18 -3.207413e-07) (0.000000e+00 0.000000e+00 0.000000e+00))
0.000265202   	((2.809000e-04 3.034664e-02 -2.303104e-16) (1.068554e-05 3.771416e-05 3.524095e-17) (0.000000e+00 0.000000e+00 0.000000e+00)) ((-2.215495e-17 1.064743e-16 -2.033884e-05) (1.062889e-18 -3.191705e-18 -3.130529e-07) (0.000000e+00 0.000000e+00 0.000000e+00))
0.000287736   	((2.735392e-04 3.034668e-02 -2.303145e-16) (1.034345e-05 3.840992e-05 3.533923e-17) (0.000000e+00 0.000000e+00 0.000000e+00)) ((-2.215500e-17 1.064740e-16 -2.025183e-05) (1.065856e-18 -3.194827e-18 -3.018121e-07) (0.000000e+00 0.000000e+00 0.000000e+00))
0.000310271   	((2.593125e-04 3.034939e-02 -2.303166e-16) (9.937590e-06 3.896045e-05 3.543317e-17) (0.000000e+00 0.000000e+00 0.000000e+00)) ((-2.215501e-17 1.064737e-16 -1.960581e-05) (1.068691e-18 -3.197736e-18 -2.888060e-07) (0.000000e+00 0.000000e+00 0.000000e+00))
0.000332753   	((2.414640e-04 3.035270e-02 -2.303172e-16) (9.528422e-06 3.941846e-05 3.546300e-17) (0.000000e+00 0.000000e+00 0.000000e+00)) ((-2.215497e-17 1.064734e-16 -1.861044e-05) (1.069586e-18 -3.198215e-18 -2.762865e-07) (0.000000e+00 0.000000e+00 0.000000e+00))
0.000355235   	((2.232771e-04 3.035410e-02 -2.303166e-16) (9.163418e-06 3.979952e-05 3.553563e-17) (0.000000e+00 0.000000e+00 0.000000e+00)) ((-2.215491e-17 1.064732e-16 -1.749716e-05) (1.071780e-18 -3.200661e-18 -2.658432e-07) (0.000000e+00 0.000000e+00 0.000000e+00))
0.000377717   	((2.074006e-04 3.034938e-02 -2.303156e-16) (8.878868e-06 4.011113e-05 3.559379e-17) (0.000000e+00 0.000000e+00 0.000000e+00)) ((-2.215484e-17 1.064729e-16 -1.645066e-05) (1.073539e-18 -3.202846e-18 -2.583938e-07) (0.000000e+00 0.000000e+00 0.000000e+00))
0.000400199   	((1.959433e-04 3.033492e-02 -2.303147e-16) (8.686873e-06 4.035177e-05 3.563419e-17) (0.000000e+00 0.000000e+00 0.000000e+00)) ((-2.215479e-17 1.064727e-16 -1.564203e-05) (1.074765e-18 -3.204841e-18 -2.541277e-07) (0.000000e+00 0.000000e+00 0.000000e+00))
0.000422681   	((1.890231e-04 3.031067e-02 -2.303143e-16) (8.566301e-06 4.054729e-05 3.564857e-17) (0.000000e+00 0.000000e+00 0.000000e+00)) ((-2.215475e-17 1.064725e-16 -1.510514e-05) (1.075209e-18 -3.206819e-18 -2.523480e-07) (0.000000e+00 0.000000e+00 0.000000e+00))
0.000445163   	((1.873636e-04 3.027560e-02 -2.303146e-16) (8.519519e-06 4.069087e-05 3.564181e-17) (0.000000e+00 0.000000e+00 0.000000e+00)) ((-2.215474e-17 1.064724e-16 -1.490918e-05) (1.075018e-18 -3.208664e-18 -2.530374e-07) (0.000000e+00 0.000000e+00 0.000000e+00))
0.000467592   	((1.892283e-04 3.023353e-02 -2.303157e-16) (8.505153e-06 4.079603e-05 3.555667e-17) (0.000000e+00 0.000000e+00 0.000000e+00)) ((-2.215475e-17 1.064723e-16 -1.495652e-05) (1.072460e-18 -3.208146e-18 -2.546031e-07) (0.000000e+00 0.000000e+00 0.000000e+00))
0.000490021   	((1.939325e-04 3.018799e-02 -2.303174e-16) (8.510808e-06 4.087212e-05 3.551448e-17) (0.000000e+00 0.000000e+00 0.000000e+00)) ((-2.215477e-17 1.064722e-16 -1.521537e-05) (1.071205e-18 -3.209698e-18 -2.565621e-07) (0.000000e+00 0.000000e+00 0.000000e+00))
0.00051245    	((1.997058e-04 3.014435e-02 -2.303194e-16) (8.513181e-06 4.092846e-05 3.546665e-17) (0.000000e+00 0.000000e+00 0.000000e+00)) ((-2.215481e-17 1.064721e-16 -1.556451e-05) (1.069781e-18 -3.210920e-18 -2.580242e-07) (0.000000e+00 0.000000e+00 0.000000e+00))
0.000534879   	((2.053637e-04 3.010682e-02 -2.303213e-16) (8.512733e-06 4.095607e-05 3.542098e-17) (0.000000e+00 0.000000e+00 0.000000e+00)) ((-2.215483e-17 1.064720e-16 -1.592478e-05) (1.068421e-18 -3.211741e-18 -2.588945e-07) (0.000000e+00 0.000000e+00 0.000000e+00))
0.000557309   	((2.102690e-04 3.007970e-02 -2.303224e-16) (8.498128e-06 4.098341e-05 3.538218e-17) (0.000000e+00 0.000000e+00 0.000000e+00)) ((-2.215484e-17 1.064719e-16 -1.622637e-05) (1.067267e-18 -3.212145e-18 -2.591736e-07) (0.000000e+00 0.000000e+00 0.000000e+00))
0.000579738   	((2.139521e-04 3.006582e-02 -2.303224e-16) (8.483881e-06 4.099632e-05 3.535282e-17) (0.000000e+00 0.000000e+00 0.000000e+00)) ((-2.215481e-17 1.064717e-16 -1.643028e-05) (1.066396e-18 -3.212165e-18 -2.590757e-07) (0.000000e+00 0.000000e+00 0.000000e+00))
0.000602114   	((2.168106e-04 3.006581e-02 -2.303208e-16) (8.470128e-06 4.101200e-05 3.527525e-17) (0.000000e+00 0.000000e+00 0.000000e+00)) ((-2.215474e-17 1.064715e-16 -1.653474e-05) (1.064062e-18 -3.209619e-18 -2.590225e-07) (0.000000e+00 0.000000e+00 0.000000e+00))
0.00062449    	((2.194196e-04 3.007993e-02 -2.303174e-16) (8.478334e-06 4.102445e-05 3.526299e-17) (0.000000e+00 0.000000e+00 0.000000e+00)) ((-2.215462e-17 1.064712e-16 -1.656805e-05) (1.063703e-18 -3.209182e-18 -2.593917e-07) (0.000000e+00 0.000000e+00 0.000000e+00))
0.000646865   	((2.228375e-04 3.010533e-02 -2.303123e-16) (8.503801e-06 4.104720e-05 3.525807e-17) (0.000000e+00 0.000000e+00 0.000000e+00)) ((-2.215445e-17 1.064709e-16 -1.658290e-05) (1.063565e-18 -3.208662e-18 -2.605835e-07) (0.000000e+00 0.000000e+00 0.000000e+00))
0.000669241   	((2.278969e-04 3.013869e-02 -2.303057e-16) (8.560418e-06 4.105917e-05 3.525893e-17) (0.000000e+00 0.000000e+00 0.000000e+00)) ((-2.215425e-17 1.064705e-16 -1.664186e-05) (1.063599e-18 -3.208155e-18 -2.625935e-07) (0.000000e+00 0.000000e+00 0.000000e+00))
0.000691617   	((2.353615e-04 3.017587e-02 -2.302981e-16) (8.634128e-06 4.108096e-05 3.526187e-17) (0.000000e+00 0.000000e+00 0.000000e+00)) ((-2.215403e-17 1.064702e-16 -1.680226e-05) (1.063696e-18 -3.207788e-18 -2.655077e-07) (0.000000e+00 0.000000e+00 0.000000e+00))
0.000713993   	((2.453743e-04 3.021252e-02 -2.302902e-16) (8.725188e-06 4.109248e-05 3.526555e-17) (0.000000e+00 0.000000e+00 0.000000e+00)) ((-2.215380e-17 1.064699e-16 -1.710305e-05) (1.063815e-18 -3.207599e-18 -2.688514e-07) (0.000000e+00 0.000000e+00 0.000000e+00))
0.000736369   	((2.577001e-04 3.024434e-02 -2.302828e-16) (8.810490e-06 4.111403e-05 3.526721e-17) (0.000000e+00 0.000000e+00 0.000000e+00)) ((-2.215358e-17 1.064696e-16 -1.755751e-05) (1.063872e-18 -3.207635e-18 -2.723578e-07) (0.000000e+00 0.000000e+00 0.000000e+00))
0.000758745   	((2.714806e-04 3.026792e-02 -2.302766e-16) (8.884037e-06 4.112531e-05 3.526587e-17) (0.000000e+00 0.000000e+00 0.000000e+00)) ((-2.215340e-17 1.064693e-16 -1.815305e-05) (1.063840e-18 -3.207872e-18 -2.752980e-07) (0.000000e+00 0.000000e+00 0.000000e+00))
0.000781121   	((2.855793e-04 3.028102e-02 -2.302722e-16) (8.920321e-06 4.114812e-05 3.525915e-17) (0.000000e+00 0.000000e+00 0.000000e+00)) ((-2.215327e-17 1.064691e-16 -1.885185e-05) (1.063647e-18 -3.208317e-18 -2.773570e-07) (0.000000e+00 0.000000e+00 0.000000e+00))
0.000803497   	((2.985177e-04 3.028311e-02 -2.302702e-16) (8.915494e-06 4.116102e-05 3.524788e-17) (0.000000e+00 0.000000e+00 0.000000e+00)) ((-2.215320e-17 1.064689e-16 -1.959544e-05) (1.063316e-18 -3.208885e-18 -2.778239e-07) (0.000000e+00 0.000000e+00 0.000000e+00))
0.000825873   	((3.087322e-04 3.027507e-02 -2.302707e-16) (8.844756e-06 4.118718e-05 3.530902e-17) (0.000000e+00 0.000000e+00 0.000000e+00)) ((-2.215320e-17 1.064688e-16 -2.030507e-05) (1.065158e-18 -3.207199e-18 -2.764678e-07) (0.000000e+00 0.000000e+00 0.000000e+00))
0.000848249   	((3.146642e-04 3.025927e-02 -2.302736e-16) (8.709900e-06 4.120287e-05 3.545769e-17) (0.000000e+00 0.000000e+00 0.000000e+00)) ((-2.215326e-17 1.064688e-16 -2.089727e-05) (1.069625e-18 -3.202773e-18 -2.727276e-07) (0.000000e+00 0.000000e+00 0.000000e+00))
0.000870625   	((3.152089e-04 3.023878e-02 -2.302787e-16) (8.495358e-06 4.123307e-05 3.561258e-17) (0.000000e+00 0.000000e+00 0.000000e+00)) ((-2.215337e-17 1.064688e-16 -2.129522e-05) (1.074279e-18 -3.198050e-18 -2.667666e-07) (0.000000e+00 0.000000e+00 0.000000e+00))
0.000892946   	((3.097236e-04 3.021700e-02 -2.302855e-16) (8.216013e-06 4.124708e-05 3.559879e-17) (0.000000e+00 0.000000e+00 0.000000e+00)) ((-2.215353e-17 1.064688e-16 -2.144289e-05) (1.073855e-18 -3.194188e-18 -2.583924e-07) (0.000000e+00 0.000000e+00 0.000000e+00))
0.000915267   	((2.982807e-04 3.019879e-02 -2.302932e-16) (7.871322e-06 4.128279e-05 3.559753e-17) (0.000000e+00 0.000000e+00 0.000000e+00)) ((-2.215370e-17 1.064687e-16 -2.131183e-05) (1.073824e-18 -3.193954e-18 -2.482980e-07) (0.000000e+00 0.000000e+00 0.000000e+00))
0.000937588   	((2.814563e-04 3.018774e-02 -2.303011e-16) (7.487362e-06 4.130487e-05 3.559581e-17) (0.000000e+00 0.000000e+00 0.000000e+00)) ((-2.215388e-17 1.064687e-16 -2.090200e-05) (1.073779e-18 -3.193629e-18 -2.366908e-07) (0.000000e+00 0.000000e+00 0.000000e+00))
0.00095991    	((2.602898e-04 3.018761e-02 -2.303085e-16) (7.069413e-06 4.133939e-05 3.559300e-17) (0.000000e+00 0.000000e+00 0.000000e+00)) ((-2.215404e-17 1.064687e-16 -2.023485e-05) (1.073700e-18 -3.193239e-18 -2.244717e-07) (0.000000e+00 0.000000e+00 0.000000e+00))
0.000982231   	((2.361023e-04 3.020169e-02 -2.303146e-16) (6.650791e-06 4.135660e-05 3.558981e-17) (0.000000e+00 0.000000e+00 0.000000e+00)) ((-2.215416e-17 1.064686e-16 -1.935561e-05) (1.073610e-18 -3.192767e-18 -2.119637e-07) (0.000000e+00 0.000000e+00 0.000000e+00))
0.00100455    	((2.105755e-04 3.023238e-02 -2.303186e-16) (6.236007e-06 4.138780e-05 3.558523e-17) (0.000000e+00 0.000000e+00 0.000000e+00)) ((-2.215422e-17 1.064684e-16 -1.832609e-05) (1.073479e-18 -3.192246e-18 -2.001310e-07) (0.000000e+00 0.000000e+00 0.000000e+00))
0.00102687    	((1.854384e-04 3.028163e-02 -2.303201e-16) (5.859556e-06 4.140031e-05 3.558003e-17) (0.000000e+00 0.000000e+00 0.000000e+00)) ((-2.215422e-17 1.064681e-16 -1.722472e-05) (1.073328e-18 -3.191664e-18 -1.892233e-07) (0.000000e+00 0.000000e+00 0.000000e+00))
0.00104919    	((1.624219e-04 3.035059e-02 -2.303187e-16) (5.522200e-06 4.142778e-05 3.557296e-17) (0.000000e+00 0.000000e+00 0.000000e+00)) ((-2.215414e-17 1.064678e-16 -1.613038e-05) (1.073120e-18 -3.191058e-18 -1.801232e-07) (0.000000e+00 0.000000e+00 0.000000e+00))
0.00107152    	((1.428705e-04 3.044012e-02 -2.303141e-16) (5.253246e-06 4.143548e-05 3.556465e-17) (0.000000e+00 0.000000e+00 0.000000e+00)) ((-2.215398e-17 1.064673e-16 -1.511760e-05) (1.072876e-18 -3.190414e-18 -1.728274e-07) (0.000000e+00 0.000000e+00 0.000000e+00))
0.00109384    	((1.279270e-04 3.055046e-02 -2.303062e-16) (5.043652e-06 4.145883e-05 3.555382e-17) (0.000000e+00 0.000000e+00 0.000000e+00)) ((-2.215373e-17 1.064668e-16 -1.424825e-05) (1.072555e-18 -3.189770e-18 -1.679418e-07) (0.000000e+00 0.000000e+00 0.000000e+00))
0.00111616    	((1.182233e-04 3.068169e-02 -2.302951e-16) (4.915792e-06 4.146135e-05 3.554132e-17) (0.000000e+00 0.000000e+00 0.000000e+00)) ((-2.215339e-17 1.064662e-16 -1.357402e-05) (1.072184e-18 -3.189106e-18 -1.651761e-07) (0.000000e+00 0.000000e+00 0.000000e+00))
0.00113848    	((1.141792e-04 3.083334e-02 -2.302809e-16) (4.853423e-06 4.147979e-05 3.552581e-17) (0.000000e+00 0.000000e+00 0.000000e+00)) ((-2.215296e-17 1.064654e-16 -1.312852e-05) (1.071722e-18 -3.188461e-18 -1.649392e-07) (0.000000e+00 0.000000e+00 0.000000e+00))
0.0011608     	((1.156564e-04 3.100471e-02 -2.302638e-16) (4.871120e-06 4.147548e-05 3.550829e-17) (0.000000e+00 0.000000e+00 0.000000e+00)) ((-2.215245e-17 1.064645e-16 -1.292529e-05) (1.071200e-18 -3.187811e-18 -1.666315e-07) (0.000000e+00 0.000000e+00 0.000000e+00))
0.00118312    	((1.222758e-04 3.119458e-02 -2.302442e-16) (4.941585e-06 4.148681e-05 3.548755e-17) (0.000000e+00 0.000000e+00 0.000000e+00)) ((-2.215187e-17 1.064635e-16 -1.295346e-05) (1.070581e-18 -3.187195e-18 -1.703689e-07) (0.000000e+00 0.000000e+00 0.000000e+00))
0.00120539    	((1.331698e-04 3.140048e-02 -2.302224e-16) (5.070527e-06 4.146914e-05 3.540489e-17) (0.000000e+00 0.000000e+00 0.000000e+00)) ((-2.215122e-17 1.064623e-16 -1.318832e-05) (1.068086e-18 -3.184144e-18 -1.752417e-07) (0.000000e+00 0.000000e+00 0.000000e+00))
0.00122765    	((1.476328e-04 3.162146e-02 -2.301988e-16) (5.231122e-06 4.147524e-05 3.537959e-17) (0.000000e+00 0.000000e+00 0.000000e+00)) ((-2.215051e-17 1.064610e-16 -1.360048e-05) (1.067329e-18 -3.183595e-18 -1.814571e-07) (0.000000e+00 0.000000e+00 0.000000e+00))
0.00124992    	((1.647895e-04 3.185396e-02 -2.301738e-16) (5.429848e-06 4.145513e-05 3.535468e-17) (0.000000e+00 0.000000e+00 0.000000e+00)) ((-2.214974e-17 1.064595e-16 -1.416077e-05) (1.066584e-18 -3.183115e-18 -1.881742e-07) (0.000000e+00 0.000000e+00 0.000000e+00))
0.00127218    	((1.838292e-04 3.209405e-02 -2.301479e-16) (5.637430e-06 4.144740e-05 3.533099e-17) (0.000000e+00 0.000000e+00 0.000000e+00)) ((-2.214893e-17 1.064579e-16 -1.483550e-05) (1.065875e-18 -3.182796e-18 -1.955133e-07) (0.000000e+00 0.000000e+00 0.000000e+00))
0.00129445    	((2.040012e-04 3.233711e-02 -2.301218e-16) (5.860235e-06 4.141539e-05 3.531181e-17) (0.000000e+00 0.000000e+00 0.000000e+00)) ((-2.214810e-17 1.064562e-16 -1.559946e-05) (1.065301e-18 -3.182664e-18 -2.027545e-07) (0.000000e+00 0.000000e+00 0.000000e+00))
0.00131671    	((2.244300e-04 3.257772e-02 -2.300959e-16) (6.083423e-06 4.138203e-05 3.529824e-17) (0.000000e+00 0.000000e+00 0.000000e+00)) ((-2.214726e-17 1.064544e-16 -1.641989e-05) (1.064894e-18 -3.182802e-18 -2.100052e-07) (0.000000e+00 0.000000e+00 0.000000e+00))
0.00133892    	((2.445810e-04 3.280885e-02 -2.300710e-16) (6.290607e-06 4.133595e-05 3.523121e-17) (0.000000e+00 0.000000e+00 0.000000e+00)) ((-2.214642e-17 1.064524e-16 -1.726797e-05) (1.062866e-18 -3.180747e-18 -2.166354e-07) (0.000000e+00 0.000000e+00 0.000000e+00))
0.00136113    	((2.636953e-04 3.302598e-02 -2.300476e-16) (6.475592e-06 4.129631e-05 3.523239e-17) (0.000000e+00 0.000000e+00 0.000000e+00)) ((-2.214561e-17 1.064505e-16 -1.811613e-05) (1.062902e-18 -3.181456e-18 -2.225937e-07) (0.000000e+00 0.000000e+00 0.000000e+00))
0.00138333    	((2.813022e-04 3.322216e-02 -2.300264e-16) (6.626034e-06 4.124935e-05 3.524088e-17) (0.000000e+00 0.000000e+00 0.000000e+00)) ((-2.214484e-17 1.064484e-16 -1.894028e-05) (1.063156e-18 -3.182418e-18 -2.274090e-07) (0.000000e+00 0.000000e+00 0.000000e+00))
0.00140549    	((2.967667e-04 3.339072e-02 -2.300080e-16) (6.733313e-06 4.120072e-05 3.519338e-17) (0.000000e+00 0.000000e+00 0.000000e+00)) ((-2.214412e-17 1.064464e-16 -1.971618e-05) (1.061713e-18 -3.181095e-18 -2.310313e-07) (0.000000e+00 0.000000e+00 0.000000e+00))
0.00142764    	((3.097944e-04 3.352787e-02 -2.299929e-16) (6.792832e-06 4.115770e-05 3.520808e-17) (0.000000e+00 0.000000e+00 0.000000e+00)) ((-2.214348e-17 1.064444e-16 -2.042845e-05) (1.062153e-18 -3.182417e-18 -2.331769e-07) (0.000000e+00 0.000000e+00 0.000000e+00))
0.00144979    	((3.198138e-04 3.362851e-02 -2.299815e-16) (6.797758e-06 4.111543e-05 3.522368e-17) (0.000000e+00 0.000000e+00 0.000000e+00)) ((-2.214292e-17 1.064424e-16 -2.105306e-05) (1.062620e-18 -3.183783e-18 -2.336613e-07) (0.000000e+00 0.000000e+00 0.000000e+00))
0.00147188    	((3.264693e-04 3.368894e-02 -2.299741e-16) (6.738939e-06 4.106826e-05 3.517852e-17) (0.000000e+00 0.000000e+00 0.000000e+00)) ((-2.214247e-17 1.064406e-16 -2.156797e-05) (1.061246e-18 -3.182598e-18 -2.321606e-07) (0.000000e+00 0.000000e+00 0.000000e+00))
0.00149397    	((3.293727e-04 3.370876e-02 -2.299710e-16) (6.616550e-06 4.103395e-05 3.519397e-17) (0.000000e+00 0.000000e+00 0.000000e+00)) ((-2.214212e-17 1.064388e-16 -2.195260e-05) (1.061708e-18 -3.183830e-18 -2.287151e-07) (0.000000e+00 0.000000e+00 0.000000e+00))
0.00151607    	((3.282962e-04 3.368699e-02 -2.299721e-16) (6.427826e-06 4.100249e-05 3.520916e-17) (0.000000e+00 0.000000e+00 0.000000e+00)) ((-2.214188e-17 1.064371e-16 -2.218829e-05) (1.062162e-18 -3.184940e-18 -2.232210e-07) (0.000000e+00 0.000000e+00 0.000000e+00))
0.0015381     	((3.230800e-04 3.362473e-02 -2.299773e-16) (6.157585e-06 4.097266e-05 3.516259e-17) (0.000000e+00 0.000000e+00 0.000000e+00)) ((-2.214176e-17 1.064356e-16 -2.226013e-05) (1.060745e-18 -3.183388e-18 -2.152235e-07) (0.000000e+00 0.000000e+00 0.000000e+00))
0.00156014    	((3.138140e-04 3.352549e-02 -2.299865e-16) (5.837180e-06 4.095744e-05 3.517740e-17) (0.000000e+00 0.000000e+00 0.000000e+00)) ((-2.214174e-17 1.064343e-16 -2.216377e-05) (1.061187e-18 -3.184235e-18 -2.056966e-07) (0.000000e+00 0.000000e+00 0.000000e+00))
0.00158218    	((3.006337e-04 3.339244e-02 -2.299991e-16) (5.469508e-06 4.095204e-05 3.519273e-17) (0.000000e+00 0.000000e+00 0.000000e+00)) ((-2.214182e-17 1.064331e-16 -2.189700e-05) (1.061644e-18 -3.184952e-18 -1.947946e-07) (0.000000e+00 0.000000e+00 0.000000e+00))
0.00160421    	((2.838925e-04 3.323035e-02 -2.300147e-16) (5.063200e-06 4.095453e-05 3.520884e-17) (0.000000e+00 0.000000e+00 0.000000e+00)) ((-2.214198e-17 1.064321e-16 -2.146722e-05) (1.062125e-18 -3.185545e-18 -1.827796e-07) (0.000000e+00 0.000000e+00 0.000000e+00))
0.00162619    	((2.640805e-04 3.304491e-02 -2.300328e-16) (4.628779e-06 4.096338e-05 3.516340e-17) (0.000000e+00 0.000000e+00 0.000000e+00)) ((-2.214223e-17 1.064312e-16 -2.088597e-05) (1.060741e-18 -3.183451e-18 -1.699944e-07) (0.000000e+00 0.000000e+00 0.000000e+00))
0.00164817    	((2.417462e-04 3.284272e-02 -2.300525e-16) (4.176062e-06 4.098966e-05 3.518040e-17) (0.000000e+00 0.000000e+00 0.000000e+00)) ((-2.214253e-17 1.064304e-16 -2.016721e-05) (1.061248e-18 -3.183795e-18 -1.567209e-07) (0.000000e+00 0.000000e+00 0.000000e+00))
0.00167015    	((2.175792e-04 3.262919e-02 -2.300732e-16) (3.715219e-06 4.102424e-05 3.519818e-17) (0.000000e+00 0.000000e+00 0.000000e+00)) ((-2.214287e-17 1.064298e-16 -1.933096e-05) (1.061779e-18 -3.184026e-18 -1.432840e-07) (0.000000e+00 0.000000e+00 0.000000e+00))
0.00169213    	((1.923744e-04 3.241032e-02 -2.300943e-16) (3.241155e-06 4.106278e-05 3.521666e-17) (0.000000e+00 0.000000e+00 0.000000e+00)) ((-2.214324e-17 1.064293e-16 -1.840498e-05) (1.062330e-18 -3.184159e-18 -1.294863e-07) (0.000000e+00 0.000000e+00 0.000000e+00))
0.0017141     	((1.669979e-04 3.219184e-02 -2.301150e-16) (2.779780e-06 4.110663e-05 3.523533e-17) (0.000000e+00 0.000000e+00 0.000000e+00)) ((-2.214362e-17 1.064290e-16 -1.742091e-05) (1.062887e-18 -3.184207e-18 -1.161691e-07) (0.000000e+00 0.000000e+00 0.000000e+00))
0.00173608    	((1.423597e-04 3.197887e-02 -2.301347e-16) (2.344708e-06 4.115691e-05 3.525315e-17) (0.000000e+00 0.000000e+00 0.000000e+00)) ((-2.214399e-17 1.064287e-16 -1.641572e-05) (1.063418e-18 -3.184212e-18 -1.038499e-07) (0.000000e+00 0.000000e+00 0.000000e+00))
0.00175806    	((1.193626e-04 3.177564e-02 -2.301529e-16) (1.945741e-06 4.121093e-05 3.526909e-17) (0.000000e+00 0.000000e+00 0.000000e+00)) ((-2.214434e-17 1.064285e-16 -1.542876e-05) (1.063892e-18 -3.184211e-18 -9.273025e-08) (0.000000e+00 0.000000e+00 0.000000e+00))
0.00178004    	((9.878042e-05 3.158549e-02 -2.301693e-16) (1.591809e-06 4.126571e-05 3.528391e-17) (0.000000e+00 0.000000e+00 0.000000e+00)) ((-2.214466e-17 1.064283e-16 -1.449649e-05) (1.064333e-18 -3.184178e-18 -8.304864e-08) (0.000000e+00 0.000000e+00 0.000000e+00))
0.00180202    	((8.131659e-05 3.141092e-02 -2.301834e-16) (1.289119e-06 4.132050e-05 3.529773e-17) (0.000000e+00 0.000000e+00 0.000000e+00)) ((-2.214494e-17 1.064283e-16 -1.365241e-05) (1.064744e-18 -3.184109e-18 -7.496329e-08) (0.000000e+00 0.000000e+00 0.000000e+00))
0.001824      	((6.747277e-05 3.125368e-02 -2.301951e-16) (1.041931e-06 4.137279e-05 3.531045e-17) (0.000000e+00 0.000000e+00 0.000000e+00)) ((-2.214518e-17 1.064282e-16 -1.292397e-05) (1.065121e-18 -3.184011e-18 -6.860046e-08) (0.000000e+00 0.000000e+00 0.000000e+00))
0.00184598    	((5.763916e-05 3.111477e-02 -2.302044e-16) (8.523550e-07 4.142226e-05 3.532191e-17) (0.000000e+00 0.000000e+00 0.000000e+00)) ((-2.214537e-17 1.064282e-16 -1.233364e-05) (1.065461e-18 -3.183894e-18 -6.399337e-08) (0.000000e+00 0.000000e+00 0.000000e+00))
0.00186795    	((5.200930e-05 3.099453e-02 -2.302111e-16) (7.215292e-07 4.146681e-05 3.533191e-17) (0.000000e+00 0.000000e+00 0.000000e+00)) ((-2.214551e-17 1.064283e-16 -1.189868e-05) (1.065757e-18 -3.183769e-18 -6.117241e-08) (0.000000e+00 0.000000e+00 0.000000e+00))
0.00188993    	((5.060338e-05 3.089279e-02 -2.302154e-16) (6.556355e-07 4.149767e-05 3.534030e-17) (0.000000e+00 0.000000e+00 0.000000e+00)) ((-2.214560e-17 1.064283e-16 -1.162980e-05) (1.066004e-18 -3.183644e-18 -6.004855e-08) (0.000000e+00 0.000000e+00 0.000000e+00))
0.00191191    	((5.339222e-05 3.080881e-02 -2.302175e-16) (6.381696e-07 4.153465e-05 3.534648e-17) (0.000000e+00 0.000000e+00 0.000000e+00)) ((-2.214564e-17 1.064284e-16 -1.152846e-05) (1.066184e-18 -3.183540e-18 -6.068476e-08) (0.000000e+00 0.000000e+00 0.000000e+00))
0.00193389    	((5.999256e-05 3.074169e-02 -2.302176e-16) (6.733537e-07 4.155767e-05 3.535111e-17) (0.000000e+00 0.000000e+00 0.000000e+00)) ((-2.214564e-17 1.064285e-16 -1.158783e-05) (1.066319e-18 -3.183442e-18 -6.262642e-08) (0.000000e+00 0.000000e+00 0.000000e+00))
0.00195587    	((7.001778e-05 3.069003e-02 -2.302159e-16) (7.463404e-07 4.158309e-05 3.535369e-17) (0.000000e+00 0.000000e+00 0.000000e+00)) ((-2.214561e-17 1.064285e-16 -1.179611e-05) (1.066391e-18 -3.183371e-18 -6.589986e-08) (0.000000e+00 0.000000e+00 0.000000e+00))
0.00197791    	((8.301767e-05 3.065273e-02 -2.302126e-16) (8.614149e-07 4.159828e-05 3.542019e-17) (0.000000e+00 0.000000e+00 0.000000e+00)) ((-2.214554e-17 1.064286e-16 -1.214001e-05) (1.068400e-18 -3.185992e-18 -7.012546e-08) (0.000000e+00 0.000000e+00 0.000000e+00))
0.00199995    	((9.836937e-05 3.062699e-02 -2.302082e-16) (9.971341e-07 4.160729e-05 3.541976e-17) (0.000000e+00 0.000000e+00 0.000000e+00)) ((-2.214545e-17 1.064287e-16 -1.259642e-05) (1.068381e-18 -3.185971e-18 -7.516603e-08) (0.000000e+00 0.000000e+00 0.000000e+00))
0.00202198    	((1.154948e-04 3.061158e-02 -2.302028e-16) (1.157711e-06 4.160017e-05 3.541801e-17) (0.000000e+00 0.000000e+00 0.000000e+00)) ((-2.214534e-17 1.064288e-16 -1.314623e-05) (1.068324e-18 -3.185966e-18 -8.053368e-08) (0.000000e+00 0.000000e+00 0.000000e+00))
0.00204402    	((1.338208e-04 3.060443e-02 -2.301969e-16) (1.326100e-06 4.159872e-05 3.541438e-17) (0.000000e+00 0.000000e+00 0.000000e+00)) ((-2.214522e-17 1.064289e-16 -1.376755e-05) (1.068209e-18 -3.185989e-18 -8.633952e-08) (0.000000e+00 0.000000e+00 0.000000e+00))
0.00206606    	((1.527857e-04 3.060380e-02 -2.301906e-16) (1.505157e-06 4.158284e-05 3.540977e-17) (0.000000e+00 0.000000e+00 0.000000e+00)) ((-2.214509e-17 1.064290e-16 -1.443987e-05) (1.068065e-18 -3.186023e-18 -9.205989e-08) (0.000000e+00 0.000000e+00 0.000000e+00))
0.0020881     	((1.718445e-04 3.060792e-02 -2.301843e-16) (1.678961e-06 4.157259e-05 3.540374e-17) (0.000000e+00 0.000000e+00 0.000000e+00)) ((-2.214496e-17 1.064290e-16 -1.514163e-05) (1.067878e-18 -3.186084e-18 -9.783871e-08) (0.000000e+00 0.000000e+00 0.000000e+00))
0.00211014    	((1.905491e-04 3.061534e-02 -2.301781e-16) (1.851313e-06 4.154725e-05 3.539709e-17) (0.000000e+00 0.000000e+00 0.000000e+00)) ((-2.214483e-17 1.064291e-16 -1.585516e-05) (1.067672e-18 -3.186148e-18 -1.031609e-07) (0.000000e+00 0.000000e+00 0.000000e+00))
0.00213218    	((2.084264e-04 3.062457e-02 -2.301724e-16) (2.005136e-06 4.152881e-05 3.538927e-17) (0.000000e+00 0.000000e+00 0.000000e+00)) ((-2.214471e-17 1.064292e-16 -1.655814e-05) (1.067431e-18 -3.186229e-18 -1.081692e-07) (0.000000e+00 0.000000e+00 0.000000e+00))
0.00215422    	((2.251421e-04 3.063446e-02 -2.301671e-16) (2.147146e-06 4.149492e-05 3.538118e-17) (0.000000e+00 0.000000e+00 0.000000e+00)) ((-2.214461e-17 1.064293e-16 -1.723622e-05) (1.067182e-18 -3.186304e-18 -1.123990e-07) (0.000000e+00 0.000000e+00 0.000000e+00))
0.00217626    	((2.404021e-04 3.064385e-02 -2.301626e-16) (2.263457e-06 4.146941e-05 3.537224e-17) (0.000000e+00 0.000000e+00 0.000000e+00)) ((-2.214452e-17 1.064294e-16 -1.787482e-05) (1.066907e-18 -3.186389e-18 -1.161329e-07) (0.000000e+00 0.000000e+00 0.000000e+00))
0.00219829    	((2.539917e-04 3.065201e-02 -2.301588e-16) (2.361995e-06 4.143019e-05 3.536330e-17) (0.000000e+00 0.000000e+00 0.000000e+00)) ((-2.214445e-17 1.064295e-16 -1.846311e-05) (1.066631e-18 -3.186458e-18 -1.189478e-07) (0.000000e+00 0.000000e+00 0.000000e+00))
0.00222033    	((2.654889e-04 3.065820e-02 -2.301559e-16) (2.433331e-06 4.139465e-05 3.535373e-17) (0.000000e+00 0.000000e+00 0.000000e+00)) ((-2.214440e-17 1.064296e-16 -1.898189e-05) (1.066337e-18 -3.186527e-18 -1.210861e-07) (0.000000e+00 0.000000e+00 0.000000e+00))
0.00224237    	((2.748224e-04 3.066201e-02 -2.301537e-16) (2.474507e-06 4.135559e-05 3.534409e-17) (0.000000e+00 0.000000e+00 0.000000e+00)) ((-2.214437e-17 1.064297e-16 -1.942107e-05) (1.066041e-18 -3.186583e-18 -1.221961e-07) (0.000000e+00 0.000000e+00 0.000000e+00))
0.00226441    	((2.817913e-04 3.066318e-02 -2.301524e-16) (2.484499e-06 4.131716e-05 3.533438e-17) (0.000000e+00 0.000000e+00 0.000000e+00)) ((-2.214436e-17 1.064298e-16 -1.977497e-05) (1.065742e-18 -3.186629e-18 -1.224350e-07) (0.000000e+00 0.000000e+00 0.000000e+00))
0.00228645    	((2.866304e-04 3.066155e-02 -2.301520e-16) (2.462760e-06 4.127794e-05 3.532485e-17) (0.000000e+00 0.000000e+00 0.000000e+00)) ((-2.214437e-17 1.064299e-16 -2.004950e-05) (1.065448e-18 -3.186662e-18 -1.216889e-07) (0.000000e+00 0.000000e+00 0.000000e+00))
0.00230849    	((2.892822e-04 3.065706e-02 -2.301525e-16) (2.412151e-06 4.123903e-05 3.531556e-17) (0.000000e+00 0.000000e+00 0.000000e+00)) ((-2.214440e-17 1.064300e-16 -2.024694e-05) (1.065162e-18 -3.186683e-18 -1.201462e-07) (0.000000e+00 0.000000e+00 0.000000e+00))
0.00233053    	((2.898900e-04 3.064988e-02 -2.301539e-16) (2.333092e-06 4.120024e-05 3.530655e-17) (0.000000e+00 0.000000e+00 0.000000e+00)) ((-2.214446e-17 1.064302e-16 -2.037048e-05) (1.064883e-18 -3.186686e-18 -1.177462e-07) (0.000000e+00 0.000000e+00 0.000000e+00))
0.00235257    	((2.883780e-04 3.064037e-02 -2.301562e-16) (2.227290e-06 4.116211e-05 3.529777e-17) (0.000000e+00 0.000000e+00 0.000000e+00)) ((-2.214453e-17 1.064303e-16 -2.041885e-05) (1.064612e-18 -3.186670e-18 -1.146150e-07) (0.000000e+00 0.000000e+00 0.000000e+00))
0.0023746     	((2.848809e-04 3.062905e-02 -2.301592e-16) (2.094273e-06 4.112479e-05 3.528926e-17) (0.000000e+00 0.000000e+00 0.000000e+00)) ((-2.214462e-17 1.064305e-16 -2.039351e-05) (1.064348e-18 -3.186632e-18 -1.106815e-07) (0.000000e+00 0.000000e+00 0.000000e+00))
0.00239664    	((2.793886e-04 3.061640e-02 -2.301628e-16) (1.935024e-06 4.108812e-05 3.528104e-17) (0.000000e+00 0.000000e+00 0.000000e+00)) ((-2.214473e-17 1.064306e-16 -2.029377e-05) (1.064093e-18 -3.186576e-18 -1.060331e-07) (0.000000e+00 0.000000e+00 0.000000e+00))