/*--------------------------------*- C++ -*----------------------------------*\
  =========                 |
  \\      /  F ield         | OpenFOAM: The Open Source CFD Toolbox
   \\    /   O peration     | Website:  https://openfoam.org
    \\  /    A nd           | Version:  8
     \\/     M anipulation  |
\*---------------------------------------------------------------------------*/
FoamFile
{
    version     2.0;
    format      ascii;
    class       surfaceScalarField;
    location    "1900";
    object      phi;
}
// * * * * * * * * * * * * * * * * * * * * * * * * * * * * * * * * * * * * * //

dimensions      [0 3 -1 0 0 0 0];

internalField   nonuniform List<scalar> 
31053
(
1.74412e-06
1.16446e-05
1.36337e-06
1.5748e-05
1.26579e-06
1.77358e-05
1.20117e-06
2.03093e-05
1.13035e-06
2.33072e-05
1.05665e-06
2.6744e-05
9.79618e-07
3.06886e-05
8.98927e-07
3.52159e-05
8.14942e-07
4.04114e-05
7.28489e-07
4.63734e-05
6.40863e-07
5.32147e-05
5.53791e-07
6.10652e-05
4.69206e-07
7.00739e-05
3.89158e-07
8.04122e-05
3.27295e-07
7.62523e-05
2.76215e-07
7.62416e-05
2.33727e-07
7.6233e-05
1.98145e-07
7.62261e-05
1.68151e-07
7.62205e-05
1.42712e-07
7.62159e-05
1.2102e-07
7.62122e-05
1.03911e-07
6.95992e-05
9.03818e-08
6.25575e-05
7.95017e-08
5.62286e-05
7.06316e-08
5.05402e-05
6.33115e-08
4.54275e-05
5.72121e-08
4.0832e-05
5.20826e-08
3.67016e-05
4.77399e-08
3.2989e-05
4.40363e-08
2.9652e-05
4.08637e-08
2.66525e-05
3.81294e-08
2.39565e-05
3.57662e-08
2.15333e-05
3.37128e-08
1.93551e-05
1.73973e-05
3.19268e-08
9.63053e-07
1.06815e-05
1.52556e-06
1.51855e-05
1.50861e-06
1.77527e-05
1.45e-06
2.03679e-05
1.39631e-06
2.33609e-05
1.3398e-06
2.68005e-05
1.27814e-06
3.07502e-05
1.21084e-06
3.52832e-05
1.13762e-06
4.04846e-05
1.05847e-06
4.64525e-05
9.73712e-07
5.32995e-05
8.84004e-07
6.11549e-05
7.90366e-07
7.01675e-05
6.93872e-07
8.05087e-05
6.1163e-07
7.63346e-05
5.37744e-07
7.63154e-05
4.71418e-07
7.62993e-05
4.11879e-07
7.62856e-05
3.58433e-07
7.62739e-05
3.10453e-07
7.62639e-05
2.67399e-07
7.62552e-05
2.32047e-07
6.96346e-05
2.03255e-07
6.25863e-05
1.79599e-07
5.62522e-05
1.6001e-07
5.05598e-05
1.43666e-07
4.54438e-05
1.29941e-07
4.08458e-05
1.18341e-07
3.67132e-05
1.08485e-07
3.29988e-05
1.00066e-07
2.96604e-05
9.28449e-08
2.66598e-05
8.66206e-08
2.39628e-05
8.12383e-08
2.15387e-05
7.65634e-08
1.93598e-05
1.74014e-05
7.24881e-08
5.92702e-07
1.00888e-05
1.208e-06
1.45701e-05
1.33537e-06
1.76253e-05
1.32449e-06
2.03788e-05
1.29299e-06
2.33924e-05
1.25546e-06
2.6838e-05
1.2135e-06
3.07922e-05
1.16652e-06
3.53302e-05
1.11351e-06
4.05376e-05
1.05352e-06
4.65125e-05
9.85829e-07
5.33672e-05
9.1017e-07
6.12305e-05
8.26963e-07
7.02507e-05
7.37224e-07
8.05984e-05
6.57848e-07
7.64139e-05
5.84136e-07
7.63891e-05
5.15951e-07
7.63675e-05
4.53059e-07
7.63485e-05
3.95219e-07
7.63317e-05
3.4219e-07
7.63169e-05
2.9373e-07
7.63037e-05
2.53173e-07
6.96751e-05
2.19578e-07
6.26199e-05
1.91595e-07
5.62802e-05
1.68165e-07
5.05832e-05
1.48446e-07
4.54635e-05
1.31774e-07
4.08624e-05
1.17614e-07
3.67273e-05
1.05542e-07
3.30109e-05
9.52071e-08
2.96707e-05
8.6332e-08
2.66686e-05
7.86802e-08
2.39704e-05
7.20636e-08
2.15453e-05
6.63192e-08
1.93655e-05
1.74064e-05
6.132e-08
4.30896e-07
9.65783e-06
9.68952e-07
1.40321e-05
1.18454e-06
1.74097e-05
1.21983e-06
2.03435e-05
1.20545e-06
2.34068e-05
1.17644e-06
2.6867e-05
1.14057e-06
3.0828e-05
1.09908e-06
3.53717e-05
1.05167e-06
4.0585e-05
9.97512e-07
4.65667e-05
9.35641e-07
5.3429e-05
8.65147e-07
6.1301e-05
7.8554e-07
7.03303e-05
6.97161e-07
8.06868e-05
6.17576e-07
7.64935e-05
5.42599e-07
7.64641e-05
4.72453e-07
7.64376e-05
4.0719e-07
7.64137e-05
3.46775e-07
7.63922e-05
2.91126e-07
7.63725e-05
2.40141e-07
7.63546e-05
1.97546e-07
6.97177e-05
1.62411e-07
6.2655e-05
1.33311e-07
5.63093e-05
1.0912e-07
5.06074e-05
8.89312e-08
4.54837e-05
7.20263e-08
4.08793e-05
5.78202e-08
3.67415e-05
4.58459e-08
3.30229e-05
3.57165e-08
2.96808e-05
2.71221e-08
2.66772e-05
1.98002e-08
2.39777e-05
1.35411e-08
2.15515e-05
8.1646e-09
1.93709e-05
1.7411e-05
3.52745e-09
3.06003e-07
9.35179e-06
7.44843e-07
1.35932e-05
9.98633e-07
1.71559e-05
1.06987e-06
2.02722e-05
1.07263e-06
2.3404e-05
1.05205e-06
2.68875e-05
1.02064e-06
3.08594e-05
9.81876e-07
3.54104e-05
9.3653e-07
4.06304e-05
8.84315e-07
4.66189e-05
8.24492e-07
5.34889e-05
7.56155e-07
6.13694e-05
6.78533e-07
7.0408e-05
5.91392e-07
8.07739e-05
5.11784e-07
7.65731e-05
4.35989e-07
7.65399e-05
3.64577e-07
7.6509e-05
2.97884e-07
7.64804e-05
2.36103e-07
7.64539e-05
1.79333e-07
7.64293e-05
1.27622e-07
7.64064e-05
8.48257e-08
6.97605e-05
4.99523e-08
6.26899e-05
2.14858e-08
5.63378e-05
-1.79116e-09
5.06307e-05
-2.08621e-08
4.55028e-05
-3.65119e-08
4.0895e-05
-4.9379e-08
3.67544e-05
-5.99738e-08
3.30335e-05
-6.87185e-08
2.96896e-05
-7.5951e-08
2.66845e-05
-8.19553e-08
2.39837e-05
-8.69574e-08
2.15565e-05
-9.11487e-08
1.93751e-05
1.74146e-05
-9.46794e-08
2.13159e-07
9.13859e-06
5.65072e-07
1.32412e-05
8.2373e-07
1.68972e-05
9.16944e-07
2.0179e-05
9.32126e-07
2.33888e-05
9.17209e-07
2.69025e-05
8.87786e-07
3.08889e-05
8.49001e-07
3.54492e-05
8.02467e-07
4.06769e-05
7.48347e-07
4.6673e-05
6.86153e-07
5.35511e-05
6.15111e-07
6.14404e-05
5.34469e-07
7.04886e-05
4.43885e-07
8.08645e-05
3.60971e-07
7.6656e-05
2.81922e-07
7.66189e-05
2.07488e-07
7.65834e-05
1.38194e-07
7.65497e-05
7.44e-08
7.65177e-05
1.63421e-08
7.64874e-05
-3.5824e-08
7.64585e-05
-7.82428e-08
6.98029e-05
-1.12079e-07
6.27237e-05
-1.3901e-07
5.63647e-05
-1.60394e-07
5.06521e-05
-1.77328e-07
4.55197e-05
-1.90692e-07
4.09083e-05
-2.012e-07
3.67649e-05
-2.09424e-07
3.30417e-05
-2.15834e-07
2.9696e-05
-2.20804e-07
2.66894e-05
-2.24646e-07
2.39876e-05
-2.27604e-07
2.15595e-05
-2.2988e-07
1.93774e-05
1.74163e-05
-2.31632e-07
1.51399e-07
8.98716e-06
4.28012e-07
1.29646e-05
6.72306e-07
1.66529e-05
7.77704e-07
2.00736e-05
8.00682e-07
2.33659e-05
7.88337e-07
2.69148e-05
7.58125e-07
3.09191e-05
7.16311e-07
3.5491e-05
6.6514e-07
4.07281e-05
6.05159e-07
4.6733e-05
5.36128e-07
5.36201e-05
4.5744e-07
6.15191e-05
3.68464e-07
7.05776e-05
2.68948e-07
8.0964e-05
1.78239e-07
7.67467e-05
9.2107e-08
7.67051e-05
1.14287e-08
7.66641e-05
-6.31104e-08
7.66242e-05
-1.31002e-07
7.65856e-05
-1.91885e-07
7.65482e-05
-2.45504e-07
7.65121e-05
-2.87971e-07
6.98454e-05
-3.20762e-07
6.27565e-05
-3.45844e-07
5.63898e-05
-3.6481e-07
5.0671e-05
-3.78947e-07
4.55338e-05
-3.89284e-07
4.09187e-05
-3.96654e-07
3.67723e-05
-4.01719e-07
3.30467e-05
-4.0502e-07
2.96993e-05
-4.0698e-07
2.66914e-05
-4.07948e-07
2.39885e-05
-4.08191e-07
2.15597e-05
-4.07925e-07
1.93771e-05
1.74157e-05
-4.07315e-07
1.09053e-07
8.87807e-06
3.21611e-07
1.2752e-05
5.41097e-07
1.64334e-05
6.50298e-07
1.99644e-05
6.76104e-07
2.334e-05
6.62969e-07
2.69279e-05
6.29155e-07
3.09529e-05
5.81505e-07
3.55386e-05
5.22633e-07
4.0787e-05
4.53342e-07
4.68022e-05
3.73586e-07
5.36998e-05
2.82925e-07
6.16097e-05
1.80902e-07
7.06796e-05
6.748e-08
8.10775e-05
-3.52913e-08
7.68495e-05
-1.32294e-07
7.68021e-05
-2.2252e-07
7.67543e-05
-3.05123e-07
7.67068e-05
-3.79441e-07
7.66599e-05
-4.44974e-07
7.66138e-05
-5.01349e-07
7.65685e-05
-5.44594e-07
6.98886e-05
-5.76616e-07
6.27885e-05
-5.9979e-07
5.64129e-05
-6.16039e-07
5.06873e-05
-6.26913e-07
4.55447e-05
-6.33651e-07
4.09254e-05
-6.37247e-07
3.67758e-05
-6.38489e-07
3.3048e-05
-6.38008e-07
2.96988e-05
-6.36298e-07
2.66897e-05
-6.33751e-07
2.3986e-05
-6.30665e-07
2.15566e-05
-6.27276e-07
1.93737e-05
1.74122e-05
-6.23756e-07
7.81699e-08
8.79989e-06
2.38465e-07
1.25917e-05
4.25144e-07
1.62467e-05
5.30983e-07
1.98585e-05
5.55337e-07
2.33157e-05
5.38115e-07
2.69451e-05
4.97861e-07
3.09931e-05
4.41613e-07
3.55949e-05
3.72114e-07
4.08564e-05
2.90274e-07
4.68841e-05
1.96144e-07
5.3794e-05
8.94016e-08
6.17165e-05
-3.02308e-08
7.07992e-05
-1.62497e-07
8.12097e-05
-2.81624e-07
7.69686e-05
-3.93371e-07
7.69138e-05
-4.96574e-07
7.68575e-05
-5.90214e-07
7.68005e-05
-6.73453e-07
7.67432e-05
-7.45634e-07
7.66859e-05
-8.06246e-07
7.66291e-05
-8.51156e-07
6.99335e-05
-8.82818e-07
6.28202e-05
-9.04132e-07
5.64343e-05
-9.1745e-07
5.07006e-05
-9.24664e-07
4.55519e-05
-9.2728e-07
4.0928e-05
-9.26504e-07
3.67751e-05
-9.23283e-07
3.30448e-05
-9.18364e-07
2.96939e-05
-9.12329e-07
2.66836e-05
-9.05626e-07
2.39793e-05
-8.98596e-07
2.15496e-05
-8.91495e-07
1.93666e-05
1.74052e-05
-8.84509e-07
5.27733e-08
8.74712e-06
1.70586e-07
1.24739e-05
3.20839e-07
1.60964e-05
4.16829e-07
1.97625e-05
4.35866e-07
2.32966e-05
4.11397e-07
2.69696e-05
3.61859e-07
3.10427e-05
2.94231e-07
3.56625e-05
2.11181e-07
4.09395e-05
1.13576e-07
4.69817e-05
1.4617e-09
5.39061e-05
-1.25423e-07
6.18434e-05
-2.67197e-07
7.0941e-05
-4.2328e-07
8.13658e-05
-5.63168e-07
7.71085e-05
-6.93699e-07
7.70443e-05
-8.1351e-07
7.69773e-05
-9.21377e-07
7.69083e-05
-1.01626e-06
7.6838e-05
-1.0973e-06
7.6767e-05
-1.16383e-06
7.66956e-05
-1.21146e-06
6.99812e-05
-1.2433e-06
6.2852e-05
-1.2629e-06
5.64539e-05
-1.27315e-06
5.07108e-05
-1.27635e-06
4.55551e-05
-1.27436e-06
4.0926e-05
-1.26864e-06
3.67693e-05
-1.26032e-06
3.30365e-05
-1.25031e-06
2.96839e-05
-1.23929e-06
2.66726e-05
-1.22778e-06
2.39678e-05
-1.21617e-06
2.1538e-05
-1.20476e-06
1.93552e-05
1.73942e-05
-1.19373e-06
2.90103e-08
8.71809e-06
1.11384e-07
1.23915e-05
2.25638e-07
1.59822e-05
3.06009e-07
1.96821e-05
3.15941e-07
2.32867e-05
2.81172e-07
2.70044e-05
2.19474e-07
3.11044e-05
1.37609e-07
3.57444e-05
3.80023e-08
4.10391e-05
-7.86553e-08
4.70983e-05
-2.12413e-07
5.40398e-05
-3.63545e-07
6.19945e-05
-5.32052e-07
7.11095e-05
-7.17017e-07
8.15508e-05
-8.82194e-07
7.72737e-05
-1.03571e-06
7.71978e-05
-1.17595e-06
7.71176e-05
-1.30144e-06
7.70338e-05
-1.4109e-06
7.69475e-05
-1.50325e-06
7.68593e-05
-1.57762e-06
7.677e-05
-1.62921e-06
7.00328e-05
-1.66192e-06
6.28847e-05
-1.68009e-06
5.6472e-05
-1.68722e-06
5.0718e-05
-1.68615e-06
4.5554e-05
-1.67912e-06
4.0919e-05
-1.6679e-06
3.67581e-05
-1.65389e-06
3.30224e-05
-1.63814e-06
2.96681e-05
-1.62148e-06
2.6656e-05
-1.60451e-06
2.39508e-05
-1.58768e-06
2.15212e-05
-1.57133e-06
1.93389e-05
1.73785e-05
-1.55567e-06
8.36186e-09
8.70974e-06
5.87598e-08
1.23411e-05
1.38034e-07
1.59029e-05
1.97878e-07
1.96223e-05
1.95049e-07
2.32895e-05
1.47039e-07
2.70524e-05
7.03078e-08
3.11811e-05
-2.87606e-08
3.58434e-05
-1.48065e-07
4.11584e-05
-2.87189e-07
4.72375e-05
-4.46377e-07
5.4199e-05
-6.25986e-07
6.21741e-05
-8.25937e-07
7.13094e-05
-1.04498e-06
8.17698e-05
-1.24012e-06
7.74688e-05
-1.42099e-06
7.73787e-05
-1.58569e-06
7.72823e-05
-1.73243e-06
7.71806e-05
-1.85965e-06
7.70747e-05
-1.966e-06
7.69657e-05
-2.05036e-06
7.68544e-05
-2.10739e-06
7.00898e-05
-2.14187e-06
6.29192e-05
-2.15904e-06
5.64892e-05
-2.16316e-06
5.07221e-05
-2.15766e-06
4.55485e-05
-2.14525e-06
4.09066e-05
-2.12808e-06
3.6741e-05
-2.1078e-06
3.30022e-05
-2.08572e-06
2.9646e-05
-2.06277e-06
2.6633e-05
-2.03971e-06
2.39277e-05
-2.01703e-06
2.14985e-05
-1.99513e-06
1.93169e-05
1.73576e-05
-1.97425e-06
-8.84246e-09
8.71856e-06
1.11575e-08
1.23211e-05
5.62622e-08
1.58578e-05
9.16857e-08
1.95869e-05
7.26215e-08
2.33086e-05
8.55738e-09
2.71164e-05
-8.59927e-08
3.12756e-05
-2.05149e-07
3.59626e-05
-3.47237e-07
4.13005e-05
-5.12208e-07
4.74024e-05
-7.00583e-07
5.43874e-05
-9.12871e-07
6.23864e-05
-1.14897e-06
7.15455e-05
-1.40733e-06
8.20282e-05
-1.63718e-06
7.76987e-05
-1.84991e-06
7.75914e-05
-2.04326e-06
7.74756e-05
-2.2151e-06
7.73524e-05
-2.36352e-06
7.72231e-05
-2.48686e-06
7.7089e-05
-2.58368e-06
7.69512e-05
-2.64791e-06
7.0154e-05
-2.68532e-06
6.29566e-05
-2.70217e-06
5.6506e-05
-2.70357e-06
5.07235e-05
-2.69364e-06
4.55386e-05
-2.67565e-06
4.08886e-05
-2.65216e-06
3.67175e-05
-2.62517e-06
3.29752e-05
-2.5962e-06
2.96171e-05
-2.56641e-06
2.66032e-05
-2.53664e-06
2.3898e-05
-2.50753e-06
2.14694e-05
-2.47949e-06
1.92889e-05
1.7331e-05
-2.45282e-06
-2.50531e-08
8.7436e-06
-3.34709e-08
1.23295e-05
-2.15367e-08
1.58459e-05
-1.32276e-08
1.95786e-05
-5.17131e-08
2.33471e-05
-1.34505e-07
2.71992e-05
-2.4945e-07
3.13906e-05
-3.91385e-07
3.61045e-05
-5.5916e-07
4.14683e-05
-7.53173e-07
4.75964e-05
-9.7431e-07
5.46085e-05
-1.22331e-06
6.26354e-05
-1.50012e-06
7.18224e-05
-1.80291e-06
8.23309e-05
-2.0722e-06
7.7968e-05
-2.32133e-06
7.78406e-05
-2.54763e-06
7.77019e-05
-2.74859e-06
7.75534e-05
-2.92189e-06
7.73964e-05
-3.06548e-06
7.72326e-05
-3.17758e-06
7.70633e-05
-3.25113e-06
7.02276e-05
-3.29294e-06
6.29984e-05
-3.31043e-06
5.65235e-05
-3.30967e-06
5.07227e-05
-3.29556e-06
4.55245e-05
-3.27197e-06
4.0865e-05
-3.24198e-06
3.66875e-05
-3.20795e-06
3.29411e-05
-3.17169e-06
2.95808e-05
-3.13458e-06
2.65661e-05
-3.09762e-06
2.3861e-05
-3.06153e-06
2.14333e-05
-3.02683e-06
1.92542e-05
1.7298e-05
-2.99386e-06
-4.19248e-08
8.78552e-06
-7.66654e-08
1.23642e-05
-9.66506e-08
1.58658e-05
-1.17256e-07
1.95992e-05
-1.77879e-07
2.34077e-05
-2.8181e-07
2.73031e-05
-4.19425e-07
3.15282e-05
-5.86524e-07
3.62716e-05
-7.82589e-07
4.16643e-05
-1.00855e-06
4.78224e-05
-1.26572e-06
5.48657e-05
-1.55517e-06
6.29248e-05
-1.87696e-06
7.21441e-05
-2.22907e-06
8.2683e-05
-2.54239e-06
7.82813e-05
-2.83242e-06
7.81306e-05
-3.09605e-06
7.79655e-05
-3.33031e-06
7.77876e-05
-3.53243e-06
7.75986e-05
-3.6999e-06
7.74001e-05
-3.83048e-06
7.71939e-05
-3.91585e-06
7.03129e-05
-3.96394e-06
6.30465e-05
-3.98341e-06
5.6543e-05
-3.98139e-06
5.07207e-05
-3.96363e-06
4.55067e-05
-3.93473e-06
4.08361e-05
-3.89828e-06
3.6651e-05
-3.85709e-06
3.28999e-05
-3.81331e-06
2.9537e-05
-3.76855e-06
2.65214e-05
-3.72401e-06
2.38165e-05
-3.68054e-06
2.13898e-05
-3.63874e-06
1.92124e-05
1.72583e-05
-3.59902e-06
-5.92133e-08
8.84473e-06
-1.1893e-07
1.2424e-05
-1.69541e-07
1.59164e-05
-2.20105e-07
1.96497e-05
-3.05111e-07
2.34927e-05
-4.32185e-07
2.74302e-05
-5.94405e-07
3.16904e-05
-7.88705e-07
3.64659e-05
-1.0153e-06
4.18909e-05
-1.27573e-06
4.80828e-05
-1.57182e-06
5.51618e-05
-1.90504e-06
6.32581e-05
-2.27569e-06
7.25148e-05
-2.68167e-06
8.3089e-05
-3.0434e-06
7.8643e-05
-3.37874e-06
7.84659e-05
-3.68404e-06
7.82709e-05
-3.95585e-06
7.80594e-05
-4.19087e-06
7.78336e-05
-4.38609e-06
7.75953e-05
-4.53875e-06
7.73465e-05
-4.63889e-06
7.04131e-05
-4.69557e-06
6.31032e-05
-4.7188e-06
5.65662e-05
-4.71682e-06
5.07187e-05
-4.69633e-06
4.54862e-05
-4.6627e-06
4.08025e-05
-4.62015e-06
3.66085e-05
-4.57196e-06
3.28518e-05
-4.52066e-06
2.94857e-05
-4.46815e-06
2.64688e-05
-4.41583e-06
2.37642e-05
-4.36473e-06
2.13387e-05
-4.31555e-06
1.91632e-05
1.72115e-05
-4.26878e-06
-7.65478e-08
8.92128e-06
-1.60198e-07
1.25076e-05
-2.40239e-07
1.59965e-05
-3.21108e-07
1.97306e-05
-4.32108e-07
2.36037e-05
-5.83846e-07
2.7582e-05
-7.72174e-07
3.18787e-05
-9.95297e-07
3.66891e-05
-1.25423e-06
4.21499e-05
-1.55118e-06
4.83798e-05
-1.88858e-06
5.54992e-05
-2.26842e-06
6.36379e-05
-2.69131e-06
7.29377e-05
-3.15516e-06
8.35529e-05
-3.56921e-06
7.90571e-05
-3.9539e-06
7.88506e-05
-4.30509e-06
7.86221e-05
-4.61873e-06
7.83731e-05
-4.89095e-06
7.81058e-05
-5.11812e-06
7.78225e-05
-5.29689e-06
7.75253e-05
-5.41525e-06
7.05314e-05
-5.48336e-06
6.31713e-05
-5.51261e-06
5.65955e-05
-5.51246e-06
5.07186e-05
-5.49062e-06
4.54644e-05
-5.45328e-06
4.07651e-05
-5.40535e-06
3.65605e-05
-5.35066e-06
3.27971e-05
-5.29215e-06
2.94272e-05
-5.23204e-06
2.64087e-05
-5.17201e-06
2.37041e-05
-5.11324e-06
2.128e-05
-5.05657e-06
1.91066e-05
1.71575e-05
-5.00259e-06
-9.35257e-08
9.0148e-06
-2.00075e-07
1.26142e-05
-3.08341e-07
1.61048e-05
-4.19367e-07
1.98416e-05
-5.5734e-07
2.37417e-05
-7.34774e-07
2.77594e-05
-9.50235e-07
3.20942e-05
-1.20329e-06
3.69421e-05
-1.49582e-06
4.24424e-05
-1.83078e-06
4.87147e-05
-2.21127e-06
5.58797e-05
-2.63986e-06
6.40665e-05
-3.11761e-06
7.34154e-05
-3.64261e-06
8.40779e-05
-4.11244e-06
7.95269e-05
-4.55024e-06
7.92884e-05
-4.95134e-06
7.90231e-05
-5.31106e-06
7.87328e-05
-5.62488e-06
7.84196e-05
-5.88849e-06
7.80861e-05
-6.09784e-06
7.77346e-05
-6.23838e-06
7.0672e-05
-6.3213e-06
6.32542e-05
-6.35942e-06
5.66336e-05
-6.36344e-06
5.07226e-05
-6.34214e-06
4.54431e-05
-6.3026e-06
4.07256e-05
-6.25047e-06
3.65084e-05
-6.19017e-06
3.27368e-05
-6.12513e-06
2.93622e-05
-6.05792e-06
2.63415e-05
-5.9905e-06
2.36367e-05
-5.92427e-06
2.12137e-05
-5.86024e-06
1.90425e-05
1.70964e-05
-5.7991e-06
-1.09896e-07
9.12469e-06
-2.38307e-07
1.27426e-05
-3.73433e-07
1.62399e-05
-5.13829e-07
1.9982e-05
-6.79069e-07
2.39069e-05
-8.82698e-07
2.7963e-05
-1.12577e-06
3.23373e-05
-1.40929e-06
3.72256e-05
-1.73608e-06
4.27692e-05
-2.10987e-06
4.90885e-05
-2.53447e-06
5.63043e-05
-3.01313e-06
6.45451e-05
-3.54755e-06
7.39499e-05
-4.13627e-06
8.46666e-05
-4.66475e-06
8.00554e-05
-5.15895e-06
7.97826e-05
-5.61361e-06
7.94778e-05
-6.02346e-06
7.91426e-05
-6.38326e-06
7.87794e-05
-6.68796e-06
7.83908e-05
-6.93269e-06
7.79794e-05
-7.09985e-06
7.08391e-05
-7.20153e-06
6.33559e-05
-7.25194e-06
5.6684e-05
-7.26306e-06
5.07337e-05
-7.24477e-06
4.54248e-05
-7.20509e-06
4.06859e-05
-7.15046e-06
3.64538e-05
-7.08593e-06
3.26722e-05
-7.01544e-06
2.92917e-05
-6.942e-06
2.62681e-05
-6.86787e-06
2.35626e-05
-6.79471e-06
2.11406e-05
-6.72371e-06
1.89715e-05
1.70284e-05
-6.65571e-06
-1.25446e-07
9.25015e-06
-2.74507e-07
1.28916e-05
-4.34985e-07
1.64004e-05
-6.03451e-07
2.01505e-05
-7.95532e-07
2.4099e-05
-1.02525e-06
2.81927e-05
-1.29586e-06
3.26079e-05
-1.60981e-06
3.75396e-05
-1.97085e-06
4.31302e-05
-2.38351e-06
4.95012e-05
-2.85244e-06
5.67732e-05
-3.38169e-06
6.50744e-05
-3.97376e-06
7.45419e-05
-4.62781e-06
8.53206e-05
-5.21699e-06
8.06446e-05
-5.77019e-06
8.03358e-05
-6.2816e-06
7.99892e-05
-6.74531e-06
7.96064e-05
-7.15536e-06
7.91895e-05
-7.50587e-06
7.87413e-05
-7.79108e-06
7.82646e-05
-7.98974e-06
7.10378e-05
-8.11465e-06
6.34808e-05
-8.18138e-06
5.67507e-05
-8.20314e-06
5.07555e-05
-8.19093e-06
4.54126e-05
-8.15374e-06
4.06487e-05
-8.09884e-06
3.63989e-05
-8.03196e-06
3.26054e-05
-7.95761e-06
2.92173e-05
-7.87924e-06
2.61897e-05
-7.79947e-06
2.34828e-05
-7.72026e-06
2.10614e-05
-7.643e-06
1.88943e-05
1.69541e-05
-7.56872e-06
-1.39931e-07
9.39008e-06
-3.08316e-07
1.306e-05
-4.92247e-07
1.65843e-05
-6.87084e-07
2.03453e-05
-9.05087e-07
2.4317e-05
-1.16021e-06
2.84479e-05
-1.4577e-06
3.29054e-05
-1.80136e-06
3.78832e-05
-2.19592e-06
4.35248e-05
-2.64678e-06
4.9952e-05
-3.15946e-06
5.72859e-05
-3.73896e-06
6.56539e-05
-4.38864e-06
7.51916e-05
-5.10853e-06
8.60405e-05
-5.75957e-06
8.12956e-05
-6.37363e-06
8.09499e-05
-6.94437e-06
8.056e-05
-7.46525e-06
8.01272e-05
-7.92957e-06
7.96538e-05
-8.33058e-06
7.91423e-05
-8.66155e-06
7.85956e-05
-8.89697e-06
7.12732e-05
-9.05007e-06
6.36339e-05
-9.13769e-06
5.68384e-05
-9.17423e-06
5.0792e-05
-9.17179e-06
4.54102e-05
-9.14034e-06
4.06173e-05
-9.08799e-06
3.63465e-05
-9.02119e-06
3.25386e-05
-8.94505e-06
2.91412e-05
-8.86352e-06
2.61082e-05
-8.77963e-06
2.33989e-05
-8.69563e-06
2.09774e-05
-8.6132e-06
1.88118e-05
1.68744e-05
-8.53354e-06
-1.53126e-07
9.54321e-06
-3.39161e-07
1.32461e-05
-5.445e-07
1.67896e-05
-7.63656e-07
2.05645e-05
-1.0061e-06
2.45595e-05
-1.28539e-06
2.87272e-05
-1.60852e-06
3.32285e-05
-1.98061e-06
3.82553e-05
-2.40736e-06
4.39515e-05
-2.89504e-06
5.04397e-05
-3.45009e-06
5.78409e-05
-4.07847e-06
6.62823e-05
-4.78466e-06
7.58978e-05
-5.56981e-06
8.68257e-05
-6.2829e-06
8.20087e-05
-6.95882e-06
8.16258e-05
-7.59076e-06
8.11919e-05
-8.17155e-06
8.0708e-05
-8.69377e-06
8.0176e-05
-9.1498e-06
7.95983e-05
-9.53187e-06
7.89776e-05
-9.80953e-06
7.15509e-05
-9.99619e-06
6.38206e-05
-1.01098e-05
5.69519e-05
-1.01658e-05
5.0848e-05
-1.01774e-05
4.54218e-05
-1.01555e-05
4.05954e-05
-1.01091e-05
3.63001e-05
-1.00454e-05
3.24748e-05
-9.9701e-06
2.90659e-05
-9.88769e-06
2.60258e-05
-9.80163e-06
2.33129e-05
-9.71455e-06
2.08903e-05
-9.6284e-06
1.87257e-05
1.67906e-05
-9.54462e-06
-1.64862e-07
9.70808e-06
-3.66642e-07
1.34478e-05
-5.91271e-07
1.70143e-05
-8.32321e-07
2.08055e-05
-1.09719e-06
2.48243e-05
-1.39895e-06
2.90289e-05
-1.74599e-06
3.35756e-05
-2.14468e-06
3.8654e-05
-2.60164e-06
4.44085e-05
-3.12403e-06
5.09621e-05
-3.71921e-06
5.84361e-05
-4.39422e-06
6.69573e-05
-5.15479e-06
7.66584e-05
-6.00346e-06
8.76744e-05
-6.77779e-06
8.2783e-05
-7.51564e-06
8.23636e-05
-8.20978e-06
8.18861e-05
-8.85253e-06
8.13508e-05
-9.43576e-06
8.07592e-05
-9.95096e-06
8.01135e-05
-1.03893e-05
7.9416e-05
-1.07148e-05
7.18764e-05
-1.09406e-05
6.40464e-05
-1.10857e-05
5.7097e-05
-1.11663e-05
5.09287e-05
-1.11968e-05
4.54522e-05
-1.11889e-05
4.05875e-05
-1.11524e-05
3.62636e-05
-1.10953e-05
3.24177e-05
-1.1024e-05
2.89945e-05
-1.09435e-05
2.59453e-05
-1.08577e-05
2.32271e-05
-1.07697e-05
2.08023e-05
-1.06817e-05
1.86377e-05
1.67044e-05
-1.05954e-05
-1.74985e-07
9.88307e-06
-3.90491e-07
1.36633e-05
-6.3203e-07
1.72558e-05
-8.9237e-07
2.10659e-05
-1.17725e-06
2.51092e-05
-1.49935e-06
2.9351e-05
-1.86815e-06
3.39444e-05
-2.2911e-06
3.9077e-05
-2.77573e-06
4.48931e-05
-3.33004e-06
5.15164e-05
-3.96235e-06
5.90684e-05
-4.68088e-06
6.76758e-05
-5.49271e-06
7.74702e-05
-6.40208e-06
8.85837e-05
-7.23579e-06
8.36168e-05
-8.03462e-06
8.31625e-05
-8.79107e-06
8.26425e-05
-9.497e-06
8.20567e-05
-1.01437e-05
8.14059e-05
-1.07217e-05
8.06916e-05
-1.12212e-05
7.99155e-05
-1.16001e-05
7.22552e-05
-1.18708e-05
6.43172e-05
-1.2053e-05
5.72791e-05
-1.21639e-05
5.10396e-05
-1.22184e-05
4.55068e-05
-1.22293e-05
4.05984e-05
-1.22072e-05
3.62415e-05
-1.21608e-05
3.23713e-05
-1.20971e-05
2.89308e-05
-1.20217e-05
2.58699e-05
-1.19391e-05
2.31445e-05
-1.18527e-05
2.07158e-05
-1.17651e-05
1.85501e-05
1.66176e-05
-1.16784e-05
-1.83423e-07
1.00665e-05
-4.10521e-07
1.38905e-05
-6.66393e-07
1.75117e-05
-9.4328e-07
2.13428e-05
-1.24558e-06
2.54115e-05
-1.58551e-06
2.9691e-05
-1.97349e-06
3.43323e-05
-2.41794e-06
3.95214e-05
-2.9272e-06
4.54024e-05
-3.51008e-06
5.20993e-05
-4.1759e-06
5.97343e-05
-4.93405e-06
6.8434e-05
-5.79313e-06
7.83293e-05
-6.75928e-06
8.95499e-05
-7.64949e-06
8.4507e-05
-8.50735e-06
8.40203e-05
-9.32522e-06
8.34604e-05
-1.00947e-05
8.28262e-05
-1.08064e-05
8.21176e-05
-1.14502e-05
8.13354e-05
-1.20153e-05
8.04806e-05
-1.24527e-05
7.26925e-05
-1.2774e-05
6.46385e-05
-1.29991e-05
5.75043e-05
-1.3146e-05
5.11864e-05
-1.32301e-05
4.5591e-05
-1.32651e-05
4.06334e-05
-1.32623e-05
3.62387e-05
-1.3231e-05
3.234e-05
-1.3179e-05
2.88788e-05
-1.31125e-05
2.58034e-05
-1.30364e-05
2.30684e-05
-1.29545e-05
2.0634e-05
-1.28701e-05
1.84656e-05
1.65327e-05
-1.27851e-05
-1.90098e-07
1.02566e-05
-4.26579e-07
1.41269e-05
-6.94177e-07
1.77793e-05
-9.84776e-07
2.16334e-05
-1.30169e-06
2.57284e-05
-1.65672e-06
3.0046e-05
-2.06104e-06
3.47367e-05
-2.52389e-06
3.99843e-05
-3.05433e-06
4.59328e-05
-3.66199e-06
5.2707e-05
-4.35713e-06
6.04294e-05
-5.15035e-06
6.92272e-05
-6.05187e-06
7.92308e-05
-7.06992e-06
9.05679e-05
-8.01276e-06
8.54498e-05
-8.92668e-06
8.49343e-05
-9.80413e-06
8.43378e-05
-1.06364e-05
8.36585e-05
-1.14139e-05
8.28951e-05
-1.21257e-05
8.20472e-05
-1.27601e-05
8.1115e-05
-1.32607e-05
7.31932e-05
-1.3638e-05
6.50158e-05
-1.39119e-05
5.77781e-05
-1.41005e-05
5.1375e-05
-1.422e-05
4.57105e-05
-1.42846e-05
4.0698e-05
-1.43061e-05
3.62602e-05
-1.42948e-05
3.23287e-05
-1.4259e-05
2.8843e-05
-1.42054e-05
2.57498e-05
-1.41395e-05
2.30025e-05
-1.40656e-05
2.05602e-05
-1.39872e-05
1.83872e-05
1.64524e-05
-1.39069e-05
-1.95029e-07
1.04516e-05
-4.38677e-07
1.43706e-05
-7.15397e-07
1.8056e-05
-1.01682e-06
2.19348e-05
-1.34545e-06
2.60571e-05
-1.71269e-06
3.04132e-05
-2.13031e-06
3.51543e-05
-2.60822e-06
4.04622e-05
-3.15614e-06
4.64808e-05
-3.78443e-06
5.33353e-05
-4.50427e-06
6.11492e-05
-5.3275e-06
7.00504e-05
-6.26598e-06
8.01693e-05
-7.33019e-06
9.16321e-05
-8.32089e-06
8.64405e-05
-9.28703e-06
8.59004e-05
-1.02212e-05
8.5272e-05
-1.11148e-05
8.4552e-05
-1.19577e-05
8.3738e-05
-1.27387e-05
8.28283e-05
-1.34452e-05
8.18215e-05
-1.40133e-05
7.37613e-05
-1.44516e-05
6.5454e-05
-1.47796e-05
5.81062e-05
-1.50156e-05
5.16111e-05
-1.51762e-05
4.58711e-05
-1.52759e-05
4.07977e-05
-1.53273e-05
3.63116e-05
-1.5341e-05
3.23425e-05
-1.5326e-05
2.8828e-05
-1.52897e-05
2.57134e-05
-1.5238e-05
2.29508e-05
-1.51758e-05
2.0498e-05
-1.51069e-05
1.83183e-05
1.63797e-05
-1.50342e-05
-1.982e-07
1.06498e-05
-4.46828e-07
1.46192e-05
-7.30126e-07
1.83393e-05
-1.03955e-06
2.22442e-05
-1.37698e-06
2.63945e-05
-1.7535e-06
3.07898e-05
-2.18129e-06
3.55821e-05
-2.67082e-06
4.09517e-05
-3.23235e-06
4.70423e-05
-3.87692e-06
5.39798e-05
-4.61657e-06
6.18889e-05
-5.46434e-06
7.08982e-05
-6.4338e-06
8.11388e-05
-7.53768e-06
9.2736e-05
-8.57073e-06
8.74736e-05
-9.58442e-06
8.69141e-05
-1.05716e-05
8.62592e-05
-1.15237e-05
8.55041e-05
-1.24308e-05
8.46451e-05
-1.32812e-05
8.36787e-05
-1.40618e-05
8.2602e-05
-1.47007e-05
7.44003e-05
-1.52044e-05
6.59577e-05
-1.55917e-05
5.84935e-05
-1.58808e-05
5.19002e-05
-1.60882e-05
4.60785e-05
-1.62287e-05
4.09382e-05
-1.63154e-05
3.63983e-05
-1.63595e-05
3.23866e-05
-1.63705e-05
2.8839e-05
-1.63563e-05
2.56992e-05
-1.63233e-05
2.29178e-05
-1.62768e-05
2.04515e-05
-1.62212e-05
1.82627e-05
1.63181e-05
-1.61596e-05
-1.99799e-07
1.08496e-05
-4.51321e-07
1.48707e-05
-7.38731e-07
1.86267e-05
-1.0534e-06
2.25589e-05
-1.39679e-06
2.67379e-05
-1.77966e-06
3.11726e-05
-2.21447e-06
3.60169e-05
-2.7121e-06
4.14494e-05
-3.28331e-06
4.76135e-05
-3.93969e-06
5.46362e-05
-4.69411e-06
6.26433e-05
-5.56076e-06
7.17648e-05
-6.55483e-06
8.21328e-05
-7.69141e-06
9.38726e-05
-8.76079e-06
8.85429e-05
-9.81656e-06
8.79699e-05
-1.08521e-05
8.72946e-05
-1.18592e-05
8.65112e-05
-1.28281e-05
8.56141e-05
-1.37473e-05
8.45979e-05
-1.46029e-05
8.34577e-05
-1.53155e-05
7.51129e-05
-1.58886e-05
6.65307e-05
-1.63402e-05
5.8945e-05
-1.66876e-05
5.22476e-05
-1.69474e-05
4.63383e-05
-1.71346e-05
4.11254e-05
-1.72626e-05
3.65263e-05
-1.7343e-05
3.2467e-05
-1.73858e-05
2.88818e-05
-1.73993e-05
2.57127e-05
-1.73905e-05
2.2909e-05
-1.7365e-05
2.0426e-05
-1.73276e-05
1.82253e-05
1.62722e-05
-1.72817e-05
-1.99548e-07
1.10492e-05
-4.51943e-07
1.51231e-05
-7.41222e-07
1.8916e-05
-1.05864e-06
2.28763e-05
-1.40532e-06
2.70846e-05
-1.79174e-06
3.15591e-05
-2.23052e-06
3.64557e-05
-2.73285e-06
4.19517e-05
-3.30985e-06
4.81905e-05
-3.97363e-06
5.53e-05
-4.73777e-06
6.34075e-05
-5.61754e-06
7.26446e-05
-6.62961e-06
8.31449e-05
-7.79156e-06
9.50346e-05
-8.89076e-06
8.96421e-05
-9.98256e-06
8.90617e-05
-1.1061e-05
8.83731e-05
-1.21187e-05
8.75689e-05
-1.31463e-05
8.66417e-05
-1.41325e-05
8.5584e-05
-1.50634e-05
8.43886e-05
-1.58514e-05
7.5901e-05
-1.64972e-05
6.71765e-05
-1.70173e-05
5.94652e-05
-1.74289e-05
5.26592e-05
-1.77481e-05
4.66575e-05
-1.79899e-05
4.13672e-05
-1.81677e-05
3.67041e-05
-1.8293e-05
3.25923e-05
-1.83759e-05
2.89647e-05
-1.84249e-05
2.57617e-05
-1.84473e-05
2.29313e-05
-1.84489e-05
2.04277e-05
-1.8435e-05
1.82113e-05
-1.84091e-05
1.62464e-05
2.89908e-08
2.78135e-05
2.61618e-08
2.85527e-05
2.34343e-08
2.93116e-05
2.08128e-08
3.00906e-05
1.82938e-08
3.08903e-05
1.58815e-08
3.17113e-05
1.35714e-08
3.25542e-05
1.1367e-08
3.34194e-05
9.26319e-09
3.43077e-05
7.26263e-09
3.52195e-05
5.359e-09
3.61557e-05
3.57751e-09
3.65907e-05
1.96788e-09
3.55529e-05
5.12316e-10
3.45446e-05
-8.12484e-10
3.35648e-05
-2.01844e-09
3.26129e-05
-3.12425e-09
3.1688e-05
-4.13778e-09
3.07893e-05
-5.07429e-09
2.99161e-05
-5.93881e-09
2.90677e-05
-6.74391e-09
2.82434e-05
2.74424e-05
-7.49191e-09
6.58538e-08
2.78201e-05
5.94003e-08
2.85592e-05
5.31362e-08
2.93178e-05
4.707e-08
3.00967e-05
4.1201e-08
3.08962e-05
3.55363e-08
3.1717e-05
3.00735e-08
3.25596e-05
2.48177e-08
3.34247e-05
1.97643e-08
3.43127e-05
1.49163e-08
3.52244e-05
1.02667e-08
3.61603e-05
5.88029e-09
3.6595e-05
1.90311e-09
3.55569e-05
-1.70951e-09
3.45482e-05
-5.00628e-09
3.35681e-05
-8.02108e-09
3.26159e-05
-1.07923e-08
3.16908e-05
-1.33448e-08
3.07919e-05
-1.5709e-08
2.99185e-05
-1.79031e-08
2.90699e-05
-1.99515e-08
2.82454e-05
2.74443e-05
-2.18705e-08
5.38644e-08
2.78276e-05
4.66619e-08
2.85664e-05
3.97119e-08
2.93248e-05
3.30247e-08
3.01034e-05
2.66016e-08
3.09026e-05
2.04505e-08
3.17232e-05
1.45698e-08
3.25655e-05
8.96454e-09
3.34303e-05
3.62962e-09
3.43181e-05
-1.43356e-09
3.52294e-05
-6.23418e-09
3.61651e-05
-1.07152e-08
3.65995e-05
-1.47459e-08
3.55609e-05
-1.83814e-08
3.45518e-05
-2.16777e-08
3.35714e-05
-2.46754e-08
3.26189e-05
-2.74181e-08
3.16935e-05
-2.99359e-08
3.07944e-05
-3.22631e-08
2.99208e-05
-3.44217e-08
2.90721e-05
-3.64387e-08
2.82474e-05
2.74462e-05
-3.83296e-08
-2.21862e-09
2.78333e-05
-7.67712e-09
2.85718e-05
-1.28377e-08
2.93299e-05
-1.76898e-08
3.01082e-05
-2.22326e-08
3.09072e-05
-2.64592e-08
3.17274e-05
-3.03728e-08
3.25694e-05
-3.39712e-08
3.34339e-05
-3.72624e-08
3.43213e-05
-4.02494e-08
3.52324e-05
-4.29457e-08
3.61678e-05
-4.53272e-08
3.66019e-05
-4.73465e-08
3.55629e-05
-4.90591e-08
3.45535e-05
-5.0521e-08
3.35729e-05
-5.17724e-08
3.26202e-05
-5.28558e-08
3.16946e-05
-5.37999e-08
3.07953e-05
-5.4637e-08
2.99217e-05
-5.53871e-08
2.90728e-05
-5.60747e-08
2.82481e-05
2.74469e-05
-5.67148e-08
-9.6855e-08
2.78355e-05
-9.8668e-08
2.85736e-05
-1.00106e-07
2.93314e-05
-1.01161e-07
3.01093e-05
-1.01836e-07
3.09078e-05
-1.02128e-07
3.17277e-05
-1.02045e-07
3.25693e-05
-1.01591e-07
3.34334e-05
-1.0078e-07
3.43205e-05
-9.96248e-08
3.52313e-05
-9.81461e-08
3.61663e-05
-9.63902e-08
3.66002e-05
-9.44805e-08
3.5561e-05
-9.24675e-08
3.45515e-05
-9.04004e-08
3.35708e-05
-8.83135e-08
3.26181e-05
-8.6242e-08
3.16925e-05
-8.4208e-08
3.07933e-05
-8.22365e-08
2.99197e-05
-8.03405e-08
2.90709e-05
-7.85371e-08
2.82463e-05
2.74452e-05
-7.6833e-08
-2.28447e-07
2.78323e-05
-2.24794e-07
2.857e-05
-2.20655e-07
2.93272e-05
-2.16031e-07
3.01046e-05
-2.10931e-07
3.09027e-05
-2.05359e-07
3.17221e-05
-1.99332e-07
3.25633e-05
-1.92865e-07
3.3427e-05
-1.85981e-07
3.43136e-05
-1.78706e-07
3.5224e-05
-1.71075e-07
3.61587e-05
-1.63234e-07
3.65923e-05
-1.55557e-07
3.55533e-05
-1.48085e-07
3.4544e-05
-1.40855e-07
3.35636e-05
-1.33892e-07
3.26111e-05
-1.27219e-07
3.16858e-05
-1.20846e-07
3.07869e-05
-1.14789e-07
2.99136e-05
-1.09047e-07
2.90652e-05
-1.03627e-07
2.82409e-05
2.744e-05
-9.85212e-08
-3.9698e-07
2.7822e-05
-3.86036e-07
2.8559e-05
-3.7446e-07
2.93157e-05
-3.62262e-07
3.00924e-05
-3.49462e-07
3.08899e-05
-3.36077e-07
3.17087e-05
-3.22138e-07
3.25494e-05
-3.07673e-07
3.34125e-05
-2.92722e-07
3.42987e-05
-2.77329e-07
3.52086e-05
-2.61547e-07
3.61429e-05
-2.45659e-07
3.65764e-05
-2.30368e-07
3.5538e-05