/*--------------------------------*- C++ -*----------------------------------*\
  =========                 |
  \\      /  F ield         | OpenFOAM: The Open Source CFD Toolbox
   \\    /   O peration     | Website:  https://openfoam.org
    \\  /    A nd           | Version:  8
     \\/     M anipulation  |
\*---------------------------------------------------------------------------*/
FoamFile
{
    version     2.0;
    format      ascii;
    class       volScalarField;
    location    "0";
    object      nut;
}
// * * * * * * * * * * * * * * * * * * * * * * * * * * * * * * * * * * * * * //

dimensions      [0 2 -1 0 0 0 0];

internalField   nonuniform List<scalar> 
15677
(
6.44128e-06
0.000178314
9.29766e-06
0.000561123
0.000148955
1.8266e-05
0.00148614
0.00014366
0.00023701
1.88791e-05
0.00295298
0.000261146
0.00020907
0.000253051
1.93181e-05
0.00444246
0.000717609
0.000164928
0.000275495
0.000276601
1.90919e-05
0.00554216
0.00167546
0.000299718
0.000220084
0.000338172
0.000286514
1.89323e-05
0.00618425
0.00299112
0.000766486
0.000214637
0.000308248
0.000370516
0.000294817
1.89744e-05
0.0064936
0.00434934
0.00166802
0.000447166
0.000231784
0.00037578
0.000400351
0.00030309
1.89058e-05
0.00662163
0.00545003
0.00288551
0.00102537
0.000322954
0.000304764
0.000428425
0.00042683
0.00030809
1.88713e-05
0.00667894
0.00614263
0.00417365
0.00197317
0.000728114
0.000275943
0.000375774
0.000477711
0.000444657
0.00031242
1.88527e-05
0.00670666
0.00649067
0.00528994
0.00315677
0.00149505
0.000526511
0.000304974
0.000444908
0.000510689
0.000459881
0.00031582
1.88803e-05
0.00670878
0.0066355
0.00605659
0.0043656
0.00254143
0.00113628
0.000423584
0.000359912
0.000498771
0.000541081
0.000471747
0.000318629
1.89424e-05
0.00670611
0.00670102
0.00645553
0.00538992
0.00371025
0.00207098
0.000902119
0.000377621
0.000419799
0.000546138
0.000564879
0.000481697
0.00032104
1.90359e-05
0.00670567
0.00671346
0.00662463
0.00610613
0.00481409
0.00319118
0.00172643
0.000734651
0.000381759
0.000478683
0.000584634
0.000585317
0.000489449
0.000323131
1.91417e-05
0.00670619
0.00671097
0.00669609
0.00648516
0.00569335
0.00432304
0.0027819
0.00146372
0.000615949
0.000407736
0.000529899
0.000619043
0.000601554
0.000495742
0.000324622
1.93109e-05
0.00670658
0.00670786
0.0067095
0.0066474
0.00626863
0.00530181
0.00391075
0.00245877
0.00124693
0.000546057
0.000444618
0.000576014
0.000646005
0.000614954
0.000500467
0.000326535
1.95383e-05
0.00670668
0.00670575
0.00670875
0.00669823
0.00655378
0.00601459
0.00494725
0.00356931
0.00218685
0.00108655
0.000513549
0.000486386
0.000615164
0.000668969
0.000625708
0.000504546
0.00032852
1.97858e-05
0.00670664
0.00670427
0.00670605
0.00670787
0.00666366
0.00643808
0.00576082
0.00463552
0.00327887
0.00196579
0.000957589
0.000502739
0.000528025
0.000648948
0.000688243
0.00063466
0.000507797
0.000330131
2.00875e-05
0.00670657
0.00670318
0.0067038
0.00670651
0.00669726
0.00661549
0.00629332
0.00551981
0.00436253
0.00303168
0.0017802
0.000859723
0.000507584
0.000566511
0.000677273
0.000704521
0.000641983
0.000510467
0.000331977
2.04235e-05
0.00670651
0.00670243
0.00670212
0.00670335
0.00670427
0.00667945
0.00654466
0.00614101
0.00529847
0.00412364
0.00282112
0.00162468
0.000792933
0.000520325
0.000601391
0.000702658
0.000718067
0.000647729
0.000512839
0.000333729
2.07957e-05
0.00670645
0.00670196
0.00670089
0.00670059
0.00670326
0.0066985
0.0066505
0.00646489
0.0059923
0.0050973
0.00391602
0.00264083
0.00149803
0.000745885
0.000539568
0.000631436
0.000723159
0.000728797
0.0006523
0.000514287
0.000335487
2.12051e-05
0.0067064
0.00670164
0.00670002
0.00669849
0.00670062
0.00670139
0.00668866
0.00661173
0.0063811
0.00584934
0.00491773
0.00373534
0.00248775
0.00139689
0.00071695
0.000558819
0.0006594
0.000739339
0.000737319
0.000655667
0.000515371
0.000337285
2.1649e-05
0.00670637
0.0067014
0.00669944
0.0066969
0.00669817
0.00669945
0.00669909
0.00667224
0.00656878
0.00629259
0.00571672
0.00475817
0.00357988
0.00235944
0.00131658
0.000697889
0.000580065
0.000680649
0.000754187
0.000744367
0.000658066
0.000516211
0.000339186
2.21226e-05
0.00670633
0.00670123
0.00669905
0.00669577
0.00669626
0.00669659
0.00669961
0.00669289
0.0066533
0.00652046
0.00620743
0.00559527
0.00461893
0.00344706
0.00225328
0.00125235
0.000689411
0.000598669
0.000701523
0.000765154
0.000749888
0.000659732
0.000516644
0.000341142
2.2625e-05
0.0067063
0.00670112
0.00669877
0.00669499
0.0066949
0.00669396
0.00669732
0.00669729
0.00668626
0.00662934
0.0064721
0.00612607
0.00548686
0.00449854
0.00333571
0.0021654
0.00120506
0.000686247
0.000617719
0.000716974
0.00077441
0.000753951
0.000660415
0.000516798
0.000343164
2.31496e-05
0.00670628
0.00670104
0.00669854
0.00669443
0.00669396
0.0066919
0.00669471
0.00669591
0.00669618
0.00667584
0.00660627
0.00642244
0.00605211
0.00539195
0.0043969
0.00324359
0.00209535
0.00116919
0.000687938
0.000634043
0.000728362
0.000782276
0.000756627
0.000660644
0.000516773
0.000345207
2.3694e-05
0.00670625
0.006701
0.00669834
0.00669404
0.00669327
0.00669041
0.00669256
0.00669295
0.00669704
0.00669231
0.00666693
0.00657908
0.00637935
0.00598725
0.00531166
0.00431332
0.00316936
0.00204161
0.0011454
0.000693008
0.000649833
0.000738454
0.000787596
0.000758247
0.000660395
0.000516533
0.000347289
2.42525e-05
0.00670622
0.00670098
0.00669817
0.00669375
0.00669274
0.00668935
0.00669096
0.00669006
0.00669497
0.00669556
0.0066906
0.00665464
0.00655902
0.00633898
0.00592971
0.0052438
0.00424541
0.00311215
0.00200302
0.00113018
0.000699556
0.000663904
0.000747594
0.000791544
0.000759095
0.000659506
0.000516099
0.000349389
2.48237e-05
0.00670619
0.00670097
0.00669802
0.00669354
0.00669232
0.00668858
0.00668976
0.00668778
0.00669246
0.00669367
0.0066975
0.00668673
0.0066474
0.00653268
0.00630499
0.00588819
0.00519747
0.00420031
0.00307446
0.00197575
0.00112386
0.000709565
0.000671952
0.000754677
0.000794333
0.000759108
0.000658245
0.000515504
0.0003515
2.53985e-05
0.00670617
0.00670097
0.00669788
0.00669339
0.00669196
0.00668802
0.00668882
0.00668607
0.0066903
0.0066904
0.00669762
0.00669701
0.00668636
0.00663692
0.00652137
0.00628408
0.00585685
0.00516132
0.00416669
0.00304763
0.00196235
0.00112388
0.000719856
0.000682186
0.000759932
0.000795993
0.000758508
0.000656632
0.0005148
0.000353607
2.60477e-05
0.00670615
0.00670098
0.00669777
0.00669328
0.00669166
0.00668762
0.00668806
0.00668481
0.00668854
0.00668738
0.00669549
0.00669745
0.00670124
0.00668616
0.00663603
0.00651472
0.00626648
0.00583335
0.00513694
0.00414595
0.00303422
0.00195974
0.00113195
0.000730095
0.000691851
0.000763862
0.000796861
0.000757326
0.000654751
0.000513995
0.000355962
2.67708e-05
0.00670612
0.00670099
0.00669767
0.0066932
0.0066914
0.00668733
0.00668743
0.00668388
0.0066871
0.00668496
0.00669304
0.00669427
0.00670504
0.00670441
0.00669193
0.00663768
0.00650968
0.00625649
0.00582334
0.00512905
0.00414254
0.0030364
0.00196815
0.00114536
0.000740792
0.000698925
0.000766972
0.000796931
0.000755738
0.000652637
0.000513067
0.000358531
2.74795e-05
0.00670611
0.006701
0.00669759
0.00669315
0.00669118
0.00668711
0.00668689
0.0066832
0.00668591
0.00668311
0.00669078
0.00669059
0.00670418
0.0067078
0.00671659
0.00669877
0.006644
0.00651302
0.00626158
0.00582959
0.00513811
0.00415515
0.00305191
0.00198619
0.00116192
0.000753928
0.000705236
0.000769183
0.000796506
0.000753744
0.000650088
0.000512027
0.000361048
2.81726e-05
0.00670609
0.00670101
0.00669752
0.00669311
0.00669099
0.00668695
0.00668643
0.00668269
0.00668489
0.00668173
0.00668878
0.00668742
0.00670189
0.00670488
0.00672474
0.00672563
0.00671138
0.00665754
0.00652939
0.00627936
0.00585058
0.00516235
0.00418249
0.00307994
0.00201333
0.00118423
0.00076833
0.000710501
0.000770946
0.000795527
0.000751252
0.000646964
0.000510979
0.000363518
2.88489e-05
0.00670102
0.00670607
0.00669746
0.00669308
0.00669083
0.00668683
0.00668604
0.00668232
0.00668402
0.00668069
0.00668704
0.00668492
0.00669924
0.0067004
0.00672515
0.00673464
0.00674146
0.00673388
0.00668238
0.00655763
0.00631116
0.00588678
0.00520217
0.00422406
0.00311979
0.00204805
0.00121139
0.000782873
0.000715289
0.000772091
0.000794143
0.000748088
0.000643685
0.00050995
0.000365926
2.95066e-05
0.00669742
0.00670105
0.00670606
0.00669306
0.00669069
0.00668673
0.0066857
0.00668203
0.00668327
0.00667992
0.00668552
0.006683
0.00669663
0.00669644
0.00672291
0.00673506
0.00675199
0.00676902
0.00676471
0.00671868
0.00659912
0.00635798
0.00593894
0.00525705
0.00427947
0.00317109
0.00208974
0.00124281
0.00079888
0.000719444
0.000773211
0.000792069
0.000744699
0.000640335
0.000508943
0.000368268
3.0143e-05
0.00669305
0.00669738
0.00670109
0.00670604
0.00669057
0.00668666
0.00668541
0.00668181
0.00668262
0.00667933
0.00668419
0.00668154
0.00669422
0.0066933
0.00671958
0.00673235
0.00675284
0.00678197
0.00680411
0.0068062
0.00676844
0.00665539
0.00642087
0.00600733
0.00532763
0.00434854
0.00323266
0.00213953
0.0012781
0.00081534
0.000723791
0.00077378
0.000789795
0.000741134
0.000636956
0.000507994
0.000370532
3.07556e-05
0.00669046
0.00669306
0.00669736
0.00670114
0.00670603
0.0066866
0.00668516
0.00668164
0.00668206
0.00667888
0.00668302
0.00668044
0.00669204
0.00669084
0.00671611
0.00672877
0.00675002
0.00678332
0.00681965
0.00685012
0.00686178
0.00683308
0.00672804
0.00650085
0.00609277
0.00541378
0.00443053
0.00330466
0.00219415
0.00131689
0.00083568
0.000728305
0.000774478
0.000787299
0.000737498
0.000633623
0.000507094
0.000372711
3.13432e-05
0.00668655
0.00669037
0.00669311
0.00669735
0.00670118
0.00670601
0.00668494
0.0066815
0.00668157
0.00667854
0.006682
0.00667961
0.0066901
0.00668896
0.00671291
0.00672519
0.00674627
0.00678006
0.00682282
0.00686846
0.00691045
0.00693304
0.00691445
0.00681867
0.00659945
0.00619523
0.00551518
0.00452533
0.00338588
0.00225543
0.00136406
0.000858527
0.000732363
0.000774539
0.00078466
0.000733786
0.000630329
0.000506269
0.000374803
3.19045e-05
0.00668476
0.00668654
0.0066903
0.00669316
0.00669735
0.00670122
0.006706
0.00668138
0.00668115
0.00667826
0.0066811
0.00667897
0.00668837
0.00668752
0.0067099
0.00672195
0.00674254
0.00677566
0.00682098
0.00687342
0.00693268
0.00698613
0.00702262
0.00701509
0.00692915
0.00671617
0.00631528
0.00563206
0.0046321
0.00347603
0.00232969
0.00142081
0.000884465
0.000737157
0.000774123
0.000781877
0.000730121
0.000627205
0.000505524
0.000376804
3.24395e-05
0.00668129
0.00668458
0.00668656
0.00669024
0.00669322
0.00669735
0.00670127
0.00670599
0.00668078
0.00667804
0.00668032
0.00667848
0.00668683
0.00668641
0.00670715
0.00671933
0.00673918
0.00677129
0.00681753
0.00687269
0.00694018
0.00701275
0.00708261
0.00713114
0.00713497
0.00705747
0.00685121
0.00645176
0.00576279
0.0047505
0.00358554
0.0024194
0.00148178
0.000911458
0.000742712
0.000773352
0.000779044
0.000726377
0.000624222
0.000504857
0.000378717
3.29478e-05
0.00668047
0.00668122
0.00668441
0.00668659
0.00669019
0.00669329
0.00669735
0.00670131
0.00670599
0.00667786
0.00667963
0.00667809
0.00668546
0.00668555
0.00670472
0.00671723
0.00673629
0.00676733
0.00681384
0.00687
0.00694139
0.00702409
0.00711487
0.00719905
0.00726266
0.00727651
0.00720536
0.0070011
0.00660211
0.00590689
0.00489387
0.00371819
0.00251413
0.00154402
0.000939131
0.000748971
0.000772511
0.000776187
0.000722633
0.000621393
0.00050427
0.000380538
3.34299e-05
0.0066777
0.00668013
0.00668118
0.00668426
0.00668663
0.00669015
0.00669335
0.00669736
0.00670135
0.00670598
0.00667904
0.00667779
0.00668425
0.0066849
0.00670257
0.00671547
0.00673383
0.00676383
0.00681039
0.0068669
0.00694027
0.00702815
0.0071313
0.00723933
0.00734176
0.00741849
0.00744383
0.0073774
0.00717024
0.00676524
0.00607827
0.00506581
0.00386023
0.00261528
0.00160654
0.000968737
0.000755932
0.000771589
0.000773332
0.000718951
0.0006187
0.000503753
0.000382271
3.38859e-05
0.00667852
0.00667755
0.00667978
0.00668116
0.00668413
0.00668667
0.00669013
0.00669342
0.00669738
0.00670139
0.00670598
0.00667754
0.00668317
0.00668441
0.00670068
0.00671397
0.00673176
0.0067608
0.00680729
0.00686395
0.00693842
0.00702936
0.00713997
0.00726271
0.00739243
0.00751077
0.00760209
0.00763532
0.00757271
0.00736149
0.00696111
0.0062816
0.00524812
0.0040091
0.00272109
0.00167026
0.000999142
0.000763314
0.000770774
0.000770532
0.000715281
0.000616157
0.000503308
0.000383912
3.43167e-05
0.00667733
0.00667792
0.0066774
0.00667947
0.00668114
0.00668402
0.00668672
0.00669012
0.00669349
0.0066974
0.00670143
0.00670598
0.00668222
0.00668405
0.00669898
0.00671268
0.00672999
0.00675824
0.00680457
0.00686131
0.00693651
0.00702963
0.00714546
0.00727761
0.00742611
0.00757487
0.00771152
0.00781336
0.00785311
0.00779038
0.00759697
0.0072048
0.00649286
0.00543488
0.00416201
0.00283022
0.00173358
0.00103013
0.000771159
0.000769969
0.000767777
0.000711865
0.000613773
0.000502925
0.000385469
3.4723e-05
0.00668138
0.00667705
0.00667723
0.00667726
0.00667919
0.00668113
0.00668394
0.00668677
0.00669013
0.00669355
0.00669743
0.00670146
0.00670599
0.00668379
0.00669744
0.00671158
0.00672849
0.00675609
0.00680226
0.00685904
0.00693476
0.00702969
0.00714944
0.00728871
0.00745087
0.007622
0.00779373
0.007944
0.00805578
0.0080977
0.0080574
0.00788382
0.00747209
0.00671903
0.00562361
0.00431694
0.00294123
0.00179799
0.0010613
0.000779171
0.000769333
0.00076512
0.000708585
0.000611534
0.000502604
0.000386939
3.51053e-05
0.00668361
0.00668027
0.00667669
0.00667659
0.00667714
0.00667895
0.00668113
0.00668389
0.00668682
0.00669015
0.00669362
0.00669746
0.0067015
0.00670599
0.006696
0.00671067
0.00672722
0.00675431
0.00680029
0.00685711
0.00693325
0.0070298
0.00715276
0.00729802
0.0074713
0.00765947
0.00785962
0.00804946
0.00821376
0.0083302
0.00840019
0.0083863
0.00819442
0.00775534
0.00695903
0.00581488
0.00447289
0.00305306
0.00186065
0.00109237
0.000787444
0.000768718
0.000762555
0.000705404
0.000609441
0.000502333
0.000388329
3.54655e-05
0.00669466
0.00668318
0.00667887
0.00667635
0.00667602
0.00667701
0.00667876
0.00668113
0.00668386
0.00668688
0.00669019
0.00669368
0.0066975
0.00670154
0.006706
0.00670993
0.00672615
0.00675286
0.0067986
0.00685548
0.006932
0.00703003
0.00715576
0.00730644
0.00748931
0.00769182
0.00791585
0.00814026
0.00834982
0.00852183
0.00867321
0.00877715
0.00874616
0.00852606
0.00805074
0.00720864
0.00600512
0.00462654
0.00316399
0.00192338
0.00112329
0.000795663
0.000768286
0.00076012
0.000702381
0.000607488
0.000502113
0.000389636
3.58026e-05
0.00670939
0.00669236
0.00668255
0.00667754
0.00667601
0.00667552
0.00667689
0.00667861
0.00668113
0.00668386
0.00668693
0.00669023
0.00669375
0.00669754
0.00670157
0.00670601
0.00672526
0.00675168
0.00679714
0.00685409
0.00693098
0.00703042
0.00715859
0.00731434
0.00750571
0.00772121
0.00796693
0.00822147
0.00847328
0.00869655
0.00891259
0.00910723
0.00919534
0.00913517
0.00887626
0.00835607
0.00746567
0.00619841
0.00477674
0.0032731
0.00198574
0.00115374
0.000804021
0.00076786
0.000757767
0.000699515
0.000605671
0.000501934
0.00039087
3.61209e-05
0.0067245
0.00670822
0.00668897
0.00668197
0.00667633
0.00667566
0.0066751
0.00667676
0.0066785
0.00668113
0.00668388
0.00668699
0.00669029
0.00669381
0.00669758
0.0067016
0.00670602
0.00675068
0.00679585
0.00685289
0.00693016
0.00703085
0.00716131
0.00732181
0.00752083
0.00774868
0.00801477
0.00829664
0.00858747
0.00886422
0.00914512
0.00941577
0.0095971
0.00965569
0.00955321
0.00924391
0.00866984
0.00772523
0.00639483
0.00492343
0.00337986
0.00204616
0.00118361
0.00081213
0.000767611
0.000755593
0.000696816
0.000603982
0.000501795
0.000392029
3.64164e-05
0.00674986
0.00672249
0.00670646
0.0066857
0.00668132
0.00667528
0.00667527
0.00667477
0.00667663
0.00667844
0.00668113
0.00668392
0.00668705
0.00669035
0.00669387
0.00669763
0.00670163
0.00670603
0.0067947
0.00685186
0.00692949
0.00703136
0.00716391
0.00732887
0.00753487
0.00777466
0.00805983
0.00836737
0.00869655
0.00902755
0.00937947
0.0097321
0.00999692
0.0101524
0.0101656
0.010004
0.00962974
0.00899121
0.00798495
0.00659203
0.00506638
0.00348361
0.00210494
0.00121269
0.000820316
0.000767306
0.000753568
0.000694271
0.000602418
0.000501686
0.000393118
3.66973e-05
0.00679369
0.00674689
0.00671912
0.00670471
0.00668292
0.00668051
0.00667443
0.00667484
0.00667452
0.00667649
0.00667842
0.00668114
0.00668398
0.00668712
0.00669042
0.00669392
0.00669767
0.00670166
0.00670604
0.00685096
0.00692896
0.00703192
0.00716642
0.00733551
0.00754794
0.00779927
0.00810214
0.00843459
0.00880305
0.00918926
0.00961071
0.0100644
0.0104379
0.0106907
0.0107995
0.0107401
0.0104942
0.0100356
0.00931986
0.00824409
0.00678832
0.00520536
0.00358402
0.00216188
0.00124095
0.000828071
0.00076702
0.000751689
0.000691888
0.000600969
0.000501609
0.000394142
3.6954e-05
0.00685022
0.00678923
0.0067417
0.00671572
0.00670254
0.00668089
0.00667948
0.00667379
0.00667438
0.00667435
0.00667636
0.00667843
0.00668116
0.00668405
0.00668718
0.00669049
0.00669398
0.00669772
0.00670169
0.00670605
0.00692855
0.0070325
0.00716881
0.00734172
0.00756013
0.00782247
0.00814171
0.00849899
0.00890744
0.00934827
0.00983741
0.0104132
0.0109534
0.0113517
0.0115562
0.0115697
0.0113933
0.0110288
0.0104627
0.00965549
0.00850211
0.00698239
0.00533997
0.00368071
0.0022169
0.00126821
0.000835954
0.00076675
0.000749926
0.000689676
0.000599631
0.000501554
0.0003951
3.71678e-05
0.00692828
0.0068447
0.00678116
0.00673659
0.00671237
0.00669969
0.00667952
0.00667824
0.00667333
0.0066739
0.00667425
0.00667624
0.00667846
0.00668119
0.00668413
0.00668725
0.00669057
0.00669403
0.00669776
0.00670172
0.00670606
0.00703309
0.00717108
0.00734749
0.00757147
0.00784418
0.00817867
0.00856085
0.00900868
0.00950225
0.010063
0.0107977
0.0115667
0.0122005
0.0125525
0.0126231
0.0124705
0.0121251
0.0116066
0.0109098
0.00999715
0.0087584
0.0071733
0.00547029
0.0037738
0.00226982
0.00129451
0.000843367
0.000766497
0.000748243
0.000687619
0.000598396
0.000501522
0.000395882
3.73475e-05
0.00703374
0.00692113
0.00683407
0.0067731
0.00673175
0.00670913
0.00669628
0.00667871
0.00667686
0.00667303
0.00667342
0.00667419
0.00667615
0.00667852
0.00668124
0.00668422
0.00668732
0.00669064
0.00669409
0.00669781
0.00670174
0.00670607
0.00717322
0.00735282
0.007582
0.00786438
0.00821318
0.00862003
0.00910533
0.00965056
0.0102956
0.0112364
0.0122905
0.0132179
0.0138157
0.0139973
0.0138454
0.0134688
0.0129161
0.0122175
0.0113723
0.0103429
0.0090122
0.00736024
0.0055955
0.00386225
0.00232048
0.00131966
0.000850527
0.00076628
0.000746647
0.000685708
0.000597257
0.000501507
0.00039654
3.7543e-05
0.00717528
0.00702463
0.00690654
0.00682365
0.00676525
0.00672727
0.00670623
0.00669234
0.00667829
0.00667543
0.00667282
0.00667298
0.00667416
0.00667609
0.00667858
0.00668129
0.0066843
0.00668739
0.00669071
0.00669415
0.00669785
0.00670177
0.00670608
0.00735774
0.00759172
0.00788305
0.00824537
0.00867611
0.00919645
0.00979466
0.0105426
0.0117302
0.0130947
0.0143227
0.0151903
0.0155972
0.0155309
0.0151209
0.014503
0.0137324
0.0128447
0.0118428
0.0106897
0.00926251
0.0075427
0.00571794
0.00394632
0.00236894
0.00134328
0.000857631
0.000766104
0.000745134
0.000683929
0.000596345
0.000501505
0.000397254
3.77549e-05
0.00736227
0.00716364
0.0070047
0.00689206
0.00681365
0.00675781
0.00672306
0.00670407
0.00668823
0.00667805
0.00667407
0.00667264
0.00667263
0.00667415
0.00667607
0.00667865
0.00668136
0.00668439
0.00668747
0.00669078
0.0066942
0.0066979
0.0067018
0.00670608
0.00760068
0.00790022
0.0082753
0.00872869
0.00928193
0.00993668
0.0108058
0.0122602
0.0139188
0.0154043
0.0165023
0.0171404
0.0172992
0.0169897
0.0163449
0.0155087
0.0145371
0.0134688
0.0123122
0.011034
0.00950816
0.00771908
0.00583695
0.00402621
0.00241537
0.00136549
0.00086449
0.000765963
0.000743708
0.000682495
0.000595586
0.000501513
0.000398031
3.79846e-05
0.00760885
0.00734779
0.00713651
0.00698484
0.006878
0.00680398
0.00675075
0.00671905
0.00670222
0.00668426
0.00667777
0.0066729
0.00667243
0.00667237
0.00667414
0.00667609
0.00667873
0.00668144
0.00668448
0.00668754
0.00669085
0.00669426
0.00669794
0.00670181
0.00670608
0.007916
0.00830301
0.00877753
0.00936225
0.010078
0.0110801
0.0127978
0.0147024
0.0163739
0.0176318
0.0184474
0.0188274
0.0187683
0.0182698
0.0174456
0.0164374
0.0152991
0.014072
0.0127715
0.0113718
0.00974783
0.00788914
0.0059521
0.00410209
0.00245971
0.00138635
0.000871073
0.000765858
0.00074254
0.000681289
0.000594771
0.000501534
0.000398877
3.82334e-05
0.00793018
0.00759085
0.00731126
0.00710943
0.00696545
0.00686437
0.00679455
0.00674398
0.00671531
0.00670048
0.00668079
0.00667727
0.00667201
0.00667218
0.00667222
0.00667413
0.00667614
0.00667881
0.00668152
0.00668457
0.00668762
0.00669092
0.00669431
0.00669796
0.00670181
0.00670608
0.00832859
0.00882263
0.0094381
0.0102183
0.0113566
0.0133163
0.015405
0.0171871
0.0185301
0.0194535
0.0199958
0.0201684
0.0199538
0.0193318
0.0183897
0.0172618
0.0159977
0.0146405
0.0132129
0.0116995
0.00998023
0.00805268
0.00606304
0.0041741
0.00250194
0.00140597
0.000877364
0.000765791
0.000741556
0.00067999
0.000593898
0.000501571
0.000399798
3.85037e-05
0.00835153
0.00790857
0.00754176
0.00727471
0.00708292
0.00694658
0.00685111
0.00678526
0.00673769
0.0067117
0.00669863
0.00667833
0.00667644
0.00667142
0.0066719
0.00667215
0.00667413
0.0066762
0.00667889
0.00668162
0.00668466
0.0066877
0.00669099
0.00669434
0.00669796
0.00670181
0.00670608
0.00886416
0.00951005
0.0103561
0.0116258
0.0137965
0.0160081
0.017836
0.0192014
0.0201686
0.0208062
0.0211448
0.0211766
0.0208667
0.0201781
0.0191721
0.0179721
0.0166223
0.0151652
0.0136305
0.0120141
0.0102042
0.00820949
0.00616954
0.00424238
0.00254207
0.0014244
0.000882559
0.000765749
0.000740476
0.000678575
0.000592962
0.000501628
0.000400801
3.87969e-05
0.00890114
0.00832492
0.00784322
0.00749263
0.00723884
0.00705708
0.00692823
0.0068382
0.00677608
0.00673189
0.0067081
0.00669588
0.00667685
0.00667536
0.00667109
0.00667161
0.00667214
0.00667414
0.00667628
0.00667898
0.00668171
0.00668475
0.00668778
0.00669103
0.00669433
0.00669796
0.00670181
0.00670608
0.0095784
0.0104895
0.01188
0.0142285
0.0165101
0.0183347
0.019676
0.020637
0.0213119
0.0217496
0.0219554
0.0219023
0.0215439
0.0208317
0.0198036
0.0185709
0.0171702
0.0156418
0.0140203
0.0123131
0.0104189
0.00835938
0.00627146
0.00430707
0.00258011
0.00143942
0.000886988
0.000765716
0.000739311
0.000677073
0.000591965
0.000501709
0.000401895
3.91162e-05
0.00964063
0.00886899
0.00823791
0.00777765
0.00744436
0.00720379
0.00703191
0.00691038
0.00682564
0.00676705
0.00672641
0.00670462
0.00669239
0.00667613
0.00667417
0.00667091
0.00667134
0.00667216
0.00667417
0.00667637
0.00667908
0.00668181
0.00668484
0.00668782
0.00669102
0.00669433
0.00669796
0.00670181
0.00670608
0.0106164
0.0121193
0.0146097
0.0169189
0.0187062
0.0199925
0.0209119
0.0215795
0.0220606
0.0223733
0.0225003
0.0224026
0.0220283
0.0213222
0.0203026
0.0190672
0.0176441
0.0160693
0.0143803
0.012595
0.0106234
0.00850225
0.00636873
0.00436828
0.00261137
0.00145212
0.000891856
0.000765702
0.00073802
0.000675426
0.000590898
0.000501821
0.000403089
3.94627e-05
0.0107301
0.00960164
0.00875189
0.00815065
0.00771309
0.00739711
0.00716956
0.0070074
0.00689306
0.00681352
0.00675827
0.00672141
0.00670156
0.00668837
0.00667586
0.00667303
0.00667082
0.00667113
0.00667221
0.00667421
0.00667647
0.00667918
0.00668192
0.00668488
0.00668781
0.00669102
0.00669433
0.00669796
0.00670181
0.00670608
0.0123436
0.0149386
0.0172469
0.0189753
0.0201875
0.0210422
0.0216709
0.0221526
0.0225177
0.0227587
0.0228437
0.0227282
0.0223596
0.0216797
0.0206895
0.0194732
0.0180496
0.016449
0.01471
0.0128589
0.0108172
0.00863804
0.00646132
0.00441851
0.00263792
0.00146598
0.000897206
0.000765701
0.000736643
0.000673624
0.000589767
0.000501971
0.000404393
3.9841e-05
0.0106865
0.0125426
0.00943261
0.00863623
0.00806446
0.00764982
0.0073509
0.00713619
0.00698359
0.00687632
0.00680205
0.00674991
0.00671686
0.00669949
0.00668445
0.00667573
0.00667203
0.00667075
0.00667098
0.00667226
0.00667428
0.00667657
0.00667929
0.00668196
0.00668487
0.00668781
0.00669102
0.00669433
0.00669796
0.0067018
0.00670607
0.0152172
0.0175074
0.0191645
0.0202923
0.0210687
0.0216371
0.0220879
0.0224632
0.0227656
0.02297
0.0230366
0.0229206
0.0225717
0.0219309
0.0209838
0.0198018
0.0183939
0.016784
0.0150097
0.0131044
0.0110003
0.00876674
0.00653765
0.00446113
0.002667
0.00148107
0.000903093
0.000765734
0.000735095
0.00067171
0.000588564
0.000502168
0.000405819
4.02516e-05
0.01043
0.0125023
0.0154424
0.00926991
0.00852251
0.00797971
0.00758784
0.00730573
0.00710372
0.00696054
0.00686025
0.00679119
0.00674213
0.00671278
0.00669782
0.00668099
0.00667555
0.00667125
0.00667066
0.0066709
0.00667231
0.00667437
0.00667668
0.00667933
0.00668195
0.00668487
0.00668781
0.00669102
0.00669434
0.00669794
0.00670177
0.00670606
0.0177126
0.0192929
0.0203321
0.0210229
0.0215176
0.0219153
0.0222684
0.0225905
0.0228646
0.0230543
0.0231173
0.023012
0.0226922
0.0220983
0.021203
0.0200651
0.0186845
0.017078
0.0152811
0.0133317
0.0111723
0.00887234
0.00660258
0.00450779
0.00269888
0.00149762
0.000909572
0.000765788
0.000733471
0.000669624
0.000587297
0.000502425
0.000407376
4.07014e-05
0.0101769
0.0121414
0.0153741
0.0178635
0.00911467
0.00841036
0.00789656
0.00752719
0.00726171
0.00707221
0.00693831
0.00684488
0.00678085
0.00673501
0.00670922
0.00669631
0.00667826
0.00667517
0.00667071
0.00667054
0.00667088
0.00667236
0.00667448
0.00667671
0.00667932
0.00668195
0.00668487
0.00668781
0.00669103
0.00669431
0.00669789
0.00670174
0.00670605
0.0193752
0.020326
0.0209288
0.021342
0.0216715
0.0219783
0.0222867
0.0225899
0.0228567
0.0230449
0.023114
0.0230274
0.0227431
0.0222009
0.0213621
0.0202743
0.0189289
0.0173353
0.0155257
0.0135414
0.0113123
0.00896191
0.00667385
0.00455894
0.00273388
0.00151555
0.000916699
0.000765897
0.00073161
0.000667397
0.000585961
0.000502752
0.000409085
4.11885e-05
0.00993869
0.0117478
0.0150198
0.017763
0.0194138
0.00896462
0.00829972
0.00781513
0.00746796
0.00721893
0.00704175
0.00691695
0.00683026
0.00677115
0.00672882
0.00670597
0.00669464
0.00667654
0.00667458
0.00667038
0.00667039
0.00667093
0.00667242
0.00667453
0.00667669
0.00667932
0.00668195
0.00668487
0.00668782
0.00669099
0.00669426
0.00669785
0.00670172
0.00670604
0.0202883
0.0208041
0.0211323
0.0213838
0.0216267
0.0218948
0.0221931
0.0224987
0.0227707
0.0229655
0.0230475
0.0229858
0.0227415
0.0222535
0.0214734
0.020439
0.0191336
0.0175598
0.0157456
0.0137087
0.0114302
0.00905984
0.00675215
0.00461508
0.00277233
0.00153531
0.000924561
0.000766036
0.000729709
0.00066497
0.000584567
0.000503175
0.000410949
4.17247e-05
0.00971527
0.0113579
0.0145753
0.0175403
0.0192585
0.0202185
0.00881802
0.00819087
0.00773559
0.00741028
0.0071775
0.00701241
0.00689662
0.0068167
0.00676221
0.00672353
0.00670291
0.00669222
0.0066756
0.00667382
0.00667024
0.00667023
0.00667102
0.0066724
0.00667452
0.00667668
0.00667932
0.00668195
0.00668488
0.00668778
0.00669092
0.0066942
0.0066978
0.00670169
0.00670603
0.0206609
0.0209042
0.0210724
0.0212391
0.0214462
0.0217107
0.022021
0.0223414
0.0226256
0.0228327
0.0229332
0.0229018
0.0227009
0.0222684
0.0215473
0.0205672
0.0193047
0.0177554
0.0159167
0.0138479
0.0115582
0.00916695
0.00683822
0.00467675
0.00281461
0.00155704
0.000933214
0.000766259
0.00072744
0.000662384
0.00058312
0.000503699
0.000413004
4.23023e-05
0.00950365
0.0109862
0.0140809
0.0172289
0.0191079
0.0200065
0.0204942
0.00867432
0.00808415
0.00765814
0.00735433
0.00713754
0.00698445
0.00687781
0.00680439
0.00675395
0.00671888
0.00670021
0.0066893
0.00667519
0.00667297
0.00667023
0.00667007
0.00667109
0.00667234
0.00667451
0.00667668
0.00667932
0.00668196
0.00668484
0.0066877
0.00669085
0.00669414
0.00669776
0.00670166
0.00670602
0.0206686
0.0207521
0.0208349
0.0209653
0.0211719
0.0214563
0.0217921
0.0221339
0.0224343
0.0226581
0.022783
0.0227867
0.0226319
0.022255
0.021592
0.020666
0.0194475
0.0179028
0.016057
0.0139968
0.0116969
0.00928407
0.00693291
0.0047446
0.00286117
0.00158079
0.000942773
0.000766531
0.00072514
0.000659576
0.000581627
0.000504375
0.000415235
4.29419e-05
0.00930137
0.010638
0.0135577
0.0168543
0.0188858
0.0198862
0.0202253
0.0204142
0.00853358
0.00797994
0.00758301
0.00730026
0.00709943
0.00695858
0.00686078
0.00679327
0.00674639
0.00671495
0.00669822
0.0066862
0.0066751
0.00667211
0.00667032
0.00666987
0.00667111
0.0066723
0.00667451
0.00667669
0.00667933
0.00668192
0.00668475
0.00668762
0.00669078
0.00669409
0.00669771
0.00670163
0.00670601
0.0204326
0.0204284
0.0204712
0.0206008
0.0208319
0.0211516
0.02152
0.0218859
0.0222051
0.0224506
0.0226059
0.0226494
0.0225427
0.0222207
0.0216142
0.0207408
0.0195497
0.0180216
0.0162043
0.0141555
0.0118469
0.0094121
0.00703712
0.00481933
0.00291251
0.00160691
0.00095329
0.000766913
0.000722617
0.000656609
0.000580118
0.000505197
0.000417713
4.37626e-05
0.00910727
0.0103134
0.0130167
0.0164283
0.0186198
0.0197076
0.0201043
0.0200883
0.0200962
0.00839612
0.00787864
0.00751045
0.00724864
0.00706417
0.00693516
0.00684539
0.00678341
0.00673963
0.00671149
0.00669675
0.00668323
0.00667518
0.00667131
0.00667049
0.00666968
0.00667113
0.0066723
0.00667452
0.00667671
0.00667928
0.00668181
0.00668466
0.00668754
0.00669071
0.00669403
0.00669767
0.0067016
0.006706
0.0200293
0.0199788
0.020017
0.0201718
0.0204457
0.0208089
0.0212121
0.0216027
0.0219437
0.0222171
0.0224092
0.022497
0.0224398
0.0221715
0.0216192
0.0207878
0.0196302
0.0181435
0.0163583
0.0143242
0.0120089
0.00955196
0.00715184
0.00490175
0.00296918
0.00163566
0.000964938
0.000767374
0.000719903
0.00065339
0.000578591
0.000506253
0.000420884
4.47528e-05
0.00892042
0.0100115
0.0124682
0.0159513
0.0183226
0.0195007
0.0199333
0.0199468
0.019712
0.0196162
0.00826233
0.00778072
0.00744116
0.00720085
0.00703224
0.00691397
0.00683154
0.00677459
0.00673355
0.00670845
0.0066955
0.00668058
0.00667536
0.00667061
0.00667063
0.00666958
0.00667113
0.00667234
0.00667453
0.00667668
0.00667918
0.00668171
0.00668457
0.00668746
0.00669063
0.00669398
0.00669762
0.00670157
0.00670599
0.019498
0.0194367
0.0194968
0.0196985
0.0200245
0.0204346
0.0208716
0.0212868