/*--------------------------------*- C++ -*----------------------------------*\
  =========                 |
  \\      /  F ield         | OpenFOAM: The Open Source CFD Toolbox
   \\    /   O peration     | Website:  https://openfoam.org
    \\  /    A nd           | Version:  8
     \\/     M anipulation  |
\*---------------------------------------------------------------------------*/
FoamFile
{
    version     2.0;
    format      ascii;
    class       volScalarField;
    location    "0";
    object      T;
}
// * * * * * * * * * * * * * * * * * * * * * * * * * * * * * * * * * * * * * //

dimensions      [0 0 0 1 0 0 0];

internalField   nonuniform List<scalar> 
15677
(
899.942
899.934
899.812
899.929
899.831
899.666
899.927
899.84
899.705
899.526
899.926
899.843
899.734
899.574
899.39
899.925
899.843
899.752
899.615
899.442
899.252
899.924
899.843
899.76
899.651
899.492
899.31
899.112
899.924
899.843
899.762
899.672
899.54
899.367
899.176
898.97
899.923
899.842
899.762
899.68
899.578
899.425
899.24
899.04
898.827
899.923
899.842
899.762
899.683
899.597
899.477
899.307
899.111
898.903
898.682
899.923
899.842
899.762
899.683
899.604
899.512
899.371
899.187
898.981
898.765
898.539
899.923
899.841
899.761
899.683
899.606
899.527
899.422
899.262
899.065
898.85
898.628
898.398
899.923
899.841
899.761
899.683
899.607
899.531
899.448
899.327
899.15
898.942
898.719
898.492
898.261
899.923
899.841
899.76
899.682
899.607
899.533
899.458
899.368
899.229
899.037
898.819
898.59
898.36
898.131
899.923
899.841
899.76
899.681
899.606
899.533
899.461
899.385
899.285
899.128
898.923
898.697
898.463
898.234
898.009
899.923
899.841
899.759
899.681
899.605
899.532
899.461
899.39
899.312
899.2
899.025
898.809
898.577
898.342
898.115
897.896
899.923
899.841
899.759
899.68
899.604
899.532
899.461
899.392
899.321
899.238
899.112
898.922
898.697
898.461
898.226
898.003
897.792
899.923
899.841
899.759
899.68
899.604
899.531
899.46
899.392
899.323
899.252
899.163
899.022
898.82
898.588
898.349
898.117
897.9
897.698
899.923
899.841
899.759
899.679
899.603
899.53
899.459
899.391
899.324
899.256
899.184
899.088
898.932
898.718
898.482
898.244
898.015
897.806
897.614
899.923
899.841
899.759
899.679
899.602
899.529
899.458
899.39
899.323
899.257
899.19
899.116
899.012
898.842
898.62
898.382
898.146
897.922
897.721
897.539
899.923
899.841
899.759
899.679
899.602
899.528
899.457
899.389
899.322
899.257
899.192
899.125
899.048
898.936
898.754
898.526
898.287
898.054
897.837
897.644
897.472
899.923
899.841
899.759
899.679
899.601
899.527
899.456
899.387
899.321
899.256
899.192
899.128
899.061
898.982
898.86
898.668
898.436
898.199
897.97
897.76
897.576
897.414
899.924
899.841
899.759
899.679
899.601
899.527
899.455
899.386
899.319
899.254
899.191
899.128
899.065
898.998
898.916
898.785
898.585
898.352
898.117
897.893
897.69
897.515
897.362
899.924
899.841
899.759
899.678
899.601
899.526
899.454
899.385
899.318
899.253
899.189
899.127
899.065
899.003
898.936
898.85
898.711
898.506
898.273
898.041
897.823
897.628
897.461
897.317
899.924
899.841
899.759
899.678
899.601
899.526
899.454
899.384
899.317
899.251
899.187
899.125
899.064
899.004
898.942
898.875
898.786
898.64
898.431
898.199
897.972
897.76
897.572
897.413
897.278
899.924
899.841
899.759
899.678
899.601
899.526
899.453
899.383
899.315
899.25
899.185
899.123
899.062
899.003
898.943
898.883
898.815
898.723
898.572
898.361
898.132
897.909
897.703
897.522
897.371
897.243
899.924
899.841
899.759
899.678
899.601
899.526
899.453
899.383
899.315
899.248
899.184
899.121
899.06
899.001
898.943
898.884
898.824
898.757
898.662
898.506
898.295
898.069
897.851
897.652
897.478
897.334
897.213
899.924
899.841
899.759
899.678
899.6
899.525
899.453
899.382
899.314
899.247
899.182
899.119
899.058
898.999
898.941
898.884
898.827
898.768
898.7
898.603
898.445
898.234
898.012
897.799
897.606
897.438
897.301
897.187
899.924
899.841
899.759
899.678
899.6
899.525
899.452
899.382
899.313
899.246
899.181
899.118
899.056
898.996
898.938
898.881
898.826
898.77
898.712
898.645
898.546
898.386
898.178
897.959
897.752
897.565
897.403
897.271
897.163
899.924
899.841
899.759
899.678
899.6
899.525
899.452
899.382
899.313
899.245
899.18
899.116
899.054
898.994
898.935
898.879
898.824
898.77
898.715
898.658
898.591
898.492
898.332
898.126
897.912
897.709
897.528
897.372
897.245
897.142
899.924
899.841
899.759
899.678
899.6
899.525
899.452
899.381
899.312
899.245
899.179
899.115
899.052
898.992
898.933
898.876
898.821
898.767
898.715
898.662
898.606
898.54
898.44
898.28
898.078
897.868
897.671
897.494
897.343
897.222
897.12
899.924
899.841
899.759
899.678
899.6
899.525
899.452
899.381
899.312
899.244
899.178
899.114
899.051
898.99
898.931
898.873
898.818
898.764
898.712
898.661
898.61
898.556
898.49
898.391
898.232
898.033
897.828
897.635
897.464
897.318
897.197
897.101
899.924
899.841
899.759
899.678
899.6
899.525
899.452
899.381
899.312
899.244
899.178
899.113
899.05
898.988
898.928
898.87
898.815
898.761
898.709
898.659
898.609
898.56
898.507
898.442
898.344
898.188
897.992
897.791
897.603
897.436
897.29
897.175
897.084
899.924
899.841
899.759
899.678
899.6
899.525
899.452
899.381
899.311
899.244
899.177
899.112
899.048
898.986
898.926
898.868
898.812
898.757
898.705
898.655
898.607
898.559
898.511
898.46
898.396
898.299
898.146
897.954
897.758
897.574
897.406
897.265
897.155
897.069
899.924
899.841
899.759
899.678
899.6
899.525
899.452
899.381
899.311
899.243
899.177
899.111
899.048
898.985
898.924
898.866
898.809
898.754
898.701
898.651
898.603
898.556
898.511
898.464
898.415
898.353
898.257
898.107
897.919
897.727
897.542
897.379
897.243
897.138
897.056
899.841
899.924
899.759
899.678
899.601
899.525
899.452
899.381
899.311
899.243
899.176
899.111
899.047
898.984
898.923
898.864
898.806
898.751
898.698
898.647
898.598
898.552
898.507
898.464
898.419
898.371
898.311
898.217
898.07
897.887
897.692
897.512
897.355
897.224
897.123
897.045
899.759
899.842
899.924
899.679
899.601
899.525
899.452
899.381
899.311
899.243
899.176
899.111
899.046
898.983
898.922
898.862
898.804
898.748
898.694
898.643
898.594
898.547
898.503
898.46
898.418
898.376
898.33
898.271
898.18
898.036
897.85
897.661
897.486
897.333
897.206
897.109
897.034
899.679
899.76
899.842
899.925
899.601
899.525
899.452
899.381
899.311
899.243
899.176
899.11
899.046
898.983
898.921
898.86
898.802
898.745
898.691
898.639
898.59
898.542
898.497
898.455
898.414
898.375
898.334
898.29
898.233
898.144
897.997
897.816
897.632
897.462
897.314
897.191
897.097
897.025
899.601
899.679
899.761
899.843
899.925
899.525
899.452
899.381
899.311
899.243
899.176
899.11
899.046
898.982
898.92
898.859
898.8
898.743
898.688
898.636
898.585
898.538
898.492
898.449
898.409
898.37
898.333
898.294
898.252
898.197
898.103
897.961
897.785
897.607
897.441
897.296
897.176
897.086
897.017
899.525
899.602
899.681
899.762
899.844
899.925
899.452
899.381
899.311
899.243
899.176
899.11
899.045
898.982
898.919
898.858
898.799
898.741
898.685
898.632
898.581
898.533
898.487
898.444
898.403
898.365
898.328
898.293
898.256
898.215
898.154
898.065
897.927
897.757
897.583
897.421
897.28
897.164
897.076
897.01
899.452
899.526
899.603
899.682
899.763
899.845
899.926
899.381
899.311
899.243
899.176
899.11
899.045
898.981
898.919
898.858
898.798
898.74
898.683
898.629
898.577
898.528
898.482
898.438
898.397
898.358
898.322
898.288
898.254
898.219
898.173
898.115
898.029
897.897
897.731
897.561
897.403
897.265
897.152
897.067
897.003
899.381
899.454
899.529
899.605
899.684
899.764
899.845
899.926
899.311
899.243
899.176
899.11
899.045
898.981
898.919
898.857
898.797
898.738
898.681
898.627
898.574
898.524
898.477
898.432
898.391
898.352
898.315
898.281
898.249
898.217
898.177
898.133
898.078
897.996
897.868
897.708
897.541
897.387
897.252
897.141
897.059
896.997
899.311
899.383
899.456
899.531
899.607
899.685
899.765
899.846
899.927
899.243
899.176
899.11
899.045
898.981
898.918
898.857
898.796
898.737
898.68
898.624
898.571
898.52
898.472
898.427
898.384
898.345
898.308
898.274
898.242
898.211
898.174
898.136
898.095
898.044
897.965
897.842
897.686
897.523
897.372
897.24
897.132
897.052
896.991
899.243
899.313
899.385
899.459
899.533
899.609
899.687
899.766
899.847
899.927
899.176
899.11
899.045
898.981
898.918
898.856
898.796
898.737
898.679
898.623
898.569
898.517
898.468
898.421
898.378
898.338
898.3
898.266
898.234
898.203
898.168
898.133
898.098
898.06
898.011
897.937
897.818
897.665
897.506
897.358
897.228
897.123
897.045
896.986
899.176
899.245
899.316
899.388
899.461
899.535
899.611
899.689
899.768
899.848
899.927
899.11
899.045
898.981
898.918
898.856
898.795
898.736
898.678
898.621
898.567
898.514
898.464
898.416
898.372
898.331
898.293
898.258
898.225
898.195
898.159
898.127
898.095
898.063
898.027
897.982
897.91
897.795
897.646
897.491
897.345
897.218
897.115
897.039
896.982
899.11
899.178
899.249
899.32
899.391
899.464
899.538
899.613
899.69
899.769
899.849
899.928
899.045
898.981
898.918
898.856
898.795
898.735
898.677
898.62
898.565
898.512
898.461
898.412
898.367
898.324
898.285
898.249
898.216
898.186
898.15
898.118
898.088
898.059
898.03
897.997
897.954
897.885
897.775
897.629
897.476
897.333
897.208
897.107
897.033
896.978
899.045
899.112
899.182
899.252
899.323
899.394
899.467
899.54
899.615
899.692
899.771
899.85
899.928
898.981
898.918
898.856
898.795
898.735
898.676
898.619
898.564
898.51
898.458
898.409
898.362
898.318
898.278
898.241
898.208
898.176
898.14
898.108
898.078
898.052
898.026
897.999
897.969
897.928
897.863
897.755
897.613
897.463
897.322
897.2
897.1
897.028
896.974
898.981
899.048
899.117
899.186
899.256
899.327
899.398
899.47
899.543
899.617
899.694
899.772
899.851
899.929
898.918
898.856
898.795
898.735
898.676
898.618
898.562
898.508
898.456
898.405
898.358
898.313
898.271
898.233
898.199
898.167
898.13
898.097
898.067
898.041
898.018
897.995
897.97
897.942
897.904
897.841
897.737
897.598
897.451
897.312
897.192
897.094
897.023
896.97
898.918
898.984
899.052
899.121
899.191
899.26
899.33
899.401
899.473
899.545
899.62
899.696
899.773
899.852
899.929
898.856
898.795
898.735
898.676
898.618
898.562
898.507
898.454
898.403
898.354
898.308
898.265
898.226
898.19
898.157
898.119
898.086
898.056
898.03
898.007
897.986
897.966
897.944
897.917
897.881
897.821
897.721
897.584
897.439
897.303
897.184
897.088
897.019
896.967
898.856
898.921
898.989
899.058
899.126
899.195
899.264
899.334
899.404
899.476
899.548
899.622
899.698
899.775
899.853
899.93
898.795
898.734
898.675
898.618
898.561
898.506
898.452
898.401
898.351
898.304
898.26
898.219
898.181
898.147
898.108
898.074
898.044
898.017
897.994
897.974
897.956
897.938
897.919
897.895
897.86
897.803
897.705
897.571
897.429
897.294
897.177
897.083
897.015
896.964
898.795
898.859
898.927
898.995
899.063
899.131
899.2
899.269
899.338
899.408
899.479
899.551
899.624
899.7
899.776
899.854
899.93
898.734
898.675
898.617
898.56
898.505
898.451
898.399
898.349
898.301
898.255
898.213
898.173
898.137
898.097
898.062
898.031
898.004
897.981
897.961
897.944
897.929
897.913
897.895
897.873
897.841
897.786
897.691
897.559
897.419
897.286
897.171
897.078
897.011
896.961
898.734
898.798
898.865
898.933
899
899.068
899.136
899.204
899.273
899.342
899.411
899.482
899.554
899.627
899.701
899.778
899.854
899.93
898.675
898.617
898.56
898.504
898.45
898.397
898.347
898.298
898.251
898.207
898.167
898.129
898.086
898.049
898.017
897.989
897.966
897.947
897.93
897.915
897.903
897.889
897.874
897.853
897.823
897.77
897.677
897.548
897.41
897.279
897.165
897.073
897.008
896.959
898.675
898.738
898.805
898.872
898.939
899.006
899.074
899.141
899.209
899.277
899.346
899.415
899.485
899.556
899.629
899.703
899.779
899.855
899.931
898.617
898.56
898.504
898.449
898.396
898.345
898.295
898.248
898.203
898.161
898.121
898.076
898.037
898.003
897.974
897.95
897.931
897.914
897.901
897.889
897.879
897.867
897.853
897.835
897.806
897.755
897.665
897.538
897.401
897.272
897.159
897.069
897.004
896.956
898.617
898.679
898.745
898.812
898.878
898.945
899.012
899.079
899.147
899.214
899.282
899.35
899.419
899.489
899.559
899.631
899.705
899.78
899.856
899.931
898.56
898.504
898.449
898.395
898.343
898.293
898.245
898.199
898.155
898.114
898.067
898.025
897.988
897.958
897.933
897.913
897.897
897.884
897.873
897.864
897.856
897.847
897.835
897.818
897.791
897.741
897.653
897.528
897.393
897.265
897.154
897.065
897.001
896.955
898.559
898.621
898.686
898.753
898.819
898.885
898.952
899.018
899.085
899.152
899.219
899.287
899.354
899.423
899.492
899.562
899.633
899.706
899.781
899.857
899.932
898.503
898.448
898.395
898.342
898.292
898.243
898.196
898.151
898.108
898.059
898.014
897.974
897.941
897.915
897.894
897.878
897.865
897.855
897.848
897.841
897.835
897.828
897.817
897.802
897.776
897.729
897.642
897.52
897.386
897.259
897.149
897.061
896.999
896.953
898.503
898.563
898.629
898.694
898.76
898.826
898.892
898.958
899.025
899.091
899.158
899.224
899.291
899.359
899.426
899.495
899.564
899.635
899.708
899.782
899.858
899.932
898.448
898.394
898.341
898.29
898.24
898.193
898.147
898.102
898.051
898.004
897.962
897.926
897.896
897.874
897.857
897.845
897.835
897.829
897.823
897.819
897.816
897.81
897.801
897.787
897.763
897.717
897.632
897.511
897.379
897.254
897.145
897.059
896.997
896.951
898.448
898.507
898.572
898.637
898.703
898.768
898.834
898.9
898.965
899.031
899.097
899.163
899.23
899.296
899.363
899.43
899.498
899.567
899.637
899.71
899.784
899.858
899.932
898.393
898.341
898.289
898.239
898.19
898.143
898.097
898.045
897.995
897.95
897.911
897.879
897.854
897.835
897.823
897.813
897.807
897.804
897.801
897.799
897.797
897.793
897.786
897.773
897.75
897.706
897.623
897.504
897.373
897.249
897.142
897.056
896.995
896.949
898.393
898.452
898.516
898.581
898.646
898.711
898.776
898.842
898.907
898.972
899.038
899.104
899.169
899.235
899.301
899.367
899.433
899.501
899.569
899.639
899.711
899.785
899.859
899.932
898.34
898.288
898.237
898.188
898.14
898.093
898.039
897.986
897.939
897.898
897.863
897.834
897.813
897.799
897.79
897.784
897.781
897.78
897.78
897.78
897.78
897.778
897.772
897.76
897.738
897.695
897.614
897.496
897.367
897.245
897.139
897.053
896.993
896.947
898.339
898.397
898.461
898.525
898.59
898.655
898.72
898.784
898.85
898.915
898.98
899.045
899.11
899.175
899.24
899.305
899.37
899.436
899.503
899.571
899.641
899.713
899.786
899.859
899.932
898.287
898.236
898.186
898.137
898.089
898.033
897.979
897.929
897.886
897.848
897.817
897.793
897.776
897.765
897.76
897.757
897.757
897.758
897.761
897.763
897.765
897.764
897.759
897.748
897.728
897.686
897.606
897.49
897.363
897.241
897.135
897.05
896.99
896.945
898.287
898.344
898.407
898.471
898.535
898.599
898.664
898.728
898.793
898.858
898.922
898.987
899.052
899.116
899.181
899.245
899.309
899.374
899.44
899.506
899.574
899.643
899.714
899.786
899.859
899.932
898.235
898.185
898.135
898.086
898.028
897.972
897.921
897.875
897.835
897.801
897.774
897.754
897.741
897.734
897.732
897.732
897.735
897.738
897.742
897.746
897.75
897.75
897.747
897.737
897.718
897.677
897.599
897.485
897.358
897.237
897.132
897.047
896.987
896.943
898.234
898.291
898.354
898.417
898.481
898.545
898.609
898.673
898.737
898.802
898.866
898.93
898.995
899.059
899.122
899.186
899.25
899.313
899.378
899.443
899.509
899.576
899.645
899.715
899.786
899.859
899.932
898.183
898.133
898.083
898.024
897.966
897.913
897.865
897.823
897.787
897.757
897.734
897.718
897.708
897.705
897.705
897.709
897.714
897.719
897.726
897.731
897.736
897.738
897.735
897.727
897.708
897.669
897.594
897.48
897.354
897.233
897.128
897.043
896.984
896.94
898.182
898.239
898.302
898.365
898.428
898.491
898.555
898.619
898.683
898.747
898.811
898.875
898.939
899.002
899.065
899.128
899.191
899.254
899.317
899.381
899.446
899.511
899.578
899.645
899.715
899.786
899.859
899.932
898.131
898.08
898.02
897.961
897.907
897.857
897.813
897.774
897.742
897.715
897.696
897.683
897.677
897.677
897.681
897.687
897.694
897.702
897.71
897.717
897.724
897.727
897.725
897.717
897.7
897.663
897.588
897.475
897.349
897.228
897.123
897.04
896.981
896.938
898.129
898.186
898.25
898.313
898.376
898.439
898.502
898.566
898.629
898.693
898.756
898.82
898.883
898.947
899.009
899.072
899.134
899.196
899.259
899.321
899.384
899.448
899.513
899.579
899.646
899.715
899.786
899.859
899.932
898.077
898.017
897.957
897.901
897.849
897.803
897.762
897.727
897.698
897.676
897.66
897.651
897.649
897.652
897.659
897.667
897.676
897.686
897.695
897.704
897.712
897.716
897.715
897.709
897.694
897.657
897.582
897.469
897.343
897.223
897.119
897.036
896.977
896.935
898.075
898.134
898.198
898.261
898.324
898.387
898.45
898.513
898.576
898.64
898.703
898.766
898.829
898.892
898.954
899.016
899.078
899.14
899.201
899.263
899.325
899.388
899.451
899.515
899.579
899.646
899.715
899.786
899.859
899.932
898.014
897.953
897.895
897.843
897.795
897.752
897.715
897.683
897.657
897.639
897.626
897.621
897.622
897.628
897.637
897.648
897.659
897.671
897.682
897.692
897.701
897.706
897.706
897.702
897.687
897.65
897.576
897.463
897.337
897.218
897.114
897.031
896.974
896.931
898.079
898.011
898.146
898.21
898.273
898.336
898.399
898.462
898.525
898.588
898.65
898.713
898.776
898.838
898.9
898.962
899.023
899.084
899.145
899.206
899.267
899.329
899.391
899.453
899.515
899.579
899.646
899.715
899.786
899.859
899.932
897.949
897.891
897.837
897.787
897.742
897.703
897.669
897.64
897.618
897.603
897.594
897.592
897.596
897.605
897.617
897.63
897.644
897.657
897.669
897.68
897.69
897.697
897.7
897.696
897.68
897.643
897.569
897.457
897.331
897.212
897.108
897.026
896.97
896.928
898.092
898.015
897.946
898.158
898.222
898.285
898.348
898.411
898.474
898.536
898.599
898.661
898.724
898.786
898.847
898.908
898.969
899.03
899.09
899.15
899.21
899.271
899.332
899.392
899.453
899.515
899.579
899.646
899.715
899.786
899.858
899.932
897.886
897.831
897.78
897.734
897.692
897.656
897.625
897.6
897.581
897.569
897.563
897.563
897.571
897.584
897.599
897.614
897.629
897.644
897.657
897.67
897.681
897.69
897.693
897.689
897.673
897.636
897.561
897.449
897.324
897.205
897.102
897.021
896.965
896.925
898.105
898.028
897.949
897.883
898.171
898.235
898.298
898.361
898.423
898.486
898.548
898.611
898.673
898.734
898.795
898.856
898.916
898.976
899.036
899.095
899.155
899.215
899.275
899.334
899.392
899.453
899.515
899.579
899.645
899.714
899.785
899.858
899.931
897.826
897.774
897.726
897.683
897.644
897.61
897.583
897.561
897.545
897.535
897.532
897.535
897.546
897.563
897.581
897.598
897.615
897.632
897.646
897.66
897.673
897.683
897.686
897.681
897.665
897.627
897.553
897.442
897.317
897.198
897.096
897.016
896.961
896.921
898.118
898.042
897.962
897.886
897.822
898.185
898.248
898.311
898.374
898.436
898.498
898.56
898.622
898.684
898.744
898.805
898.864
898.924
898.983
899.042
899.101
899.16
899.219
899.277
899.334
899.392
899.453
899.515
899.579
899.645
899.713
899.784
899.857
899.931
897.769
897.719
897.674
897.633
897.597
897.567
897.542
897.523
897.509
897.501
897.5
897.507
897.522
897.542
897.564
897.584
897.603
897.62
897.636
897.652
897.666
897.675
897.678
897.673
897.656
897.619
897.545
897.433
897.309
897.191
897.089
897.01
896.956
896.917
898.133
898.056
897.976
897.898
897.825
897.764
898.199
898.262
898.325
898.387
898.449
898.511
898.573
898.634
898.694
898.754
898.814
898.872
898.931
898.989
899.048
899.106
899.164
899.221
899.277
899.334
899.392
899.453
899.515
899.578
899.643
899.711
899.782
899.856
899.93
897.713
897.666
897.623
897.585
897.552
897.525
897.502
897.485
897.472
897.465
897.466
897.477
897.496
897.522
897.547
897.57
897.591
897.609
897.628
897.645
897.659
897.667
897.669
897.664
897.647
897.609
897.535
897.424
897.3
897.183
897.082
897.004
896.951
896.913
898.147
898.07
897.99
897.912
897.837
897.766
897.707
898.213
898.277
898.339
898.401
898.463
898.524
898.585
898.645
898.705
898.764
898.822
898.88
898.938
898.996
899.053
899.111
899.167
899.221
899.277
899.334
899.392
899.453
899.513
899.576
899.641
899.71
899.781
899.855
899.93
897.659
897.615
897.574
897.539
897.509
897.483
897.462
897.445
897.431
897.424
897.427
897.443
897.47
897.501
897.531
897.556
897.579
897.601
897.62
897.637
897.651
897.659
897.66
897.654
897.637
897.598
897.525
897.414
897.29
897.174
897.074
896.997
896.945
896.908
898.163
898.086
898.005
897.926
897.85
897.778
897.709
897.653
898.228
898.291
898.354
898.415
898.477
898.537
898.597
898.656
898.715
898.773
898.831
898.888
898.945
899.002
899.059
899.114
899.167
899.221
899.277
899.334
899.392
899.451
899.511
899.574
899.639
899.708
899.78
899.854
899.93
897.607
897.565
897.527
897.494
897.466
897.442
897.421
897.4
897.383
897.375
897.382
897.406
897.441
897.48
897.514
897.543
897.57
897.593
897.612
897.628
897.642
897.649
897.65
897.644
897.626
897.587
897.514
897.403
897.28
897.164
897.065
896.99
896.939
896.902
898.178
898.102
898.02
897.94
897.864
897.791
897.721
897.654
897.6
898.243
898.306
898.368
898.43
898.49
898.55
898.609
898.667
898.725
898.782
898.839
898.895
898.951
899.008
899.062
899.114
899.167
899.221
899.277
899.334
899.391
899.448
899.508
899.571
899.637
899.706
899.779
899.854
899.929
897.556
897.516
897.481
897.451
897.424
897.399
897.373
897.345
897.321
897.313
897.328
897.364
897.41
897.458
897.498
897.533
897.561
897.584
897.603
897.619
897.632
897.639
897.64
897.633
897.614
897.575
897.501
897.392
897.269
897.154
897.056
896.982
896.931
896.896
898.195
898.118
898.037
897.956
897.879
897.804
897.733
897.665
897.6
897.548
898.259
898.322
898.383
898.444
898.504
898.562
898.62
898.677
898.734
898.79
898.846
898.902
898.958
899.011
899.062
899.114
899.167
899.221
899.277
899.332
899.388
899.446
899.506
899.569
899.635
899.705
899.777
899.853
899.929
897.506
897.469
897.436
897.407
897.38
897.351
897.313
897.269
897.236
897.232
897.261
897.314
897.376
897.435
897.484
897.522
897.551
897.575
897.594
897.609
897.622
897.629
897.628
897.62
897.601
897.562
897.488
897.379
897.257
897.143
897.047
896.971
896.923
896.889
898.211
898.135
898.054
897.972
897.894
897.819
897.747
897.677
897.611
897.548
897.498
898.276
898.338
898.398
898.458
898.516
898.574
898.631
898.687
898.743
898.799
898.854
898.909
898.961
899.011
899.062
899.114
899.167
899.221
899.275
899.329
899.384
899.443
899.503
899.567
899.633
899.703
899.776
899.852
899.928
897.458
897.423
897.392
897.363
897.331
897.287
897.225
897.159
897.118
897.126
897.179
897.257
897.339
897.414
897.471
897.511
897.541
897.565
897.584
897.599
897.611
897.617
897.616
897.607
897.587
897.547
897.474
897.366
897.244
897.131
897.032
896.96
896.914
896.884
898.228
898.153
898.072
897.99
897.91
897.834
897.761
897.691
897.623
897.558
897.496
897.449
898.292
898.354
898.413
898.471
898.529
898.585
898.641
898.697
898.752
898.806
898.861
898.912
898.961
899.011
899.062
899.114
899.167
899.219
899.271
899.325
899.381
899.44
899.5
899.564
899.631
899.701
899.775
899.851
899.928
897.412
897.379
897.348
897.315
897.268
897.192
897.087
896.992
896.953
896.989
897.079
897.19
897.303
897.394
897.456
897.498
897.53
897.554
897.573
897.587
897.599
897.604
897.603
897.593
897.572
897.532
897.459
897.351
897.23
897.113
897.018
896.949
896.906
896.878
898.246
898.171
898.09
898.008
897.928
897.851
897.777
897.705
897.636
897.569
897.506
897.447
897.401
898.309
898.369
898.427
898.484
898.541
898.596
898.651
898.706
898.76
898.814
898.865
898.912
898.961
899.011
899.062
899.114
899.164
899.215
899.267
899.321
899.378
899.436
899.498
899.562
899.629
899.699
899.773
899.85
899.927
897.366
897.334
897.301
897.255
897.172
897.033
896.864
896.743
896.727
896.813
896.958
897.124
897.266
897.369
897.438
897.484
897.517
897.542
897.561
897.575
897.586
897.591
897.588
897.578
897.556
897.515
897.442
897.335
897.21
897.096
897.004
896.938
896.898
896.873
898.263
898.189
898.109
898.027
897.946
897.868
897.793
897.72
897.65
897.582
897.518
897.456
897.398
897.355
898.325
898.384
898.441
898.497
898.552
898.607
898.661
898.715
898.768
898.818
898.865
898.912
898.961
899.011
899.062
899.111
899.16
899.21
899.263
899.317
899.374
899.433
899.495
899.559
899.627
899.698
899.772
899.849
899.927
897.321
897.288
897.246
897.165
897.003
896.753
896.504
896.38
896.424
896.594
896.833
897.054
897.221
897.339
897.417
897.468
897.503
897.529
897.548
897.562
897.572
897.576
897.572
897.561
897.538
897.497
897.424
897.311
897.189
897.077
896.989
896.928
896.891
896.868
898.28
898.207
898.128
898.046
897.965
897.886
897.81
897.737
897.665
897.596
897.53
897.467
897.407
897.351
897.309
898.34
898.398
898.454
898.509
898.564
898.617
898.671
898.723
898.772
898.818
898.865
898.912
898.961
899.011
899.059
899.106
899.155
899.206
899.259
899.313
899.37
899.43
899.492
899.556
899.624
899.696
899.77
899.848
899.927
897.276
897.237
897.166
897.002
896.681
896.262
895.942
895.87
896.033
896.362
896.699
896.966
897.164
897.303
897.392
897.449
897.487
897.514
897.533
897.547
897.557
897.56
897.556
897.543
897.519
897.477
897.398
897.287
897.167
897.059
896.974
896.917
896.883
896.863
898.296
898.225
898.148
898.066
897.984
897.905
897.828
897.754
897.682
897.612
897.544
897.48
897.418
897.36
897.306
897.264
898.355
898.412
898.467
898.521
898.574
898.627
898.68
898.728
898.772
898.818
898.865
898.912
898.961
899.008
899.053
899.101
899.15
899.201
899.254
899.309
899.367
899.426
899.488
899.554
899.622
899.694
899.769
899.847
899.926
897.228
897.17
897.025
896.669
896.059
895.427
895.104
895.184
895.607
896.108
896.527
896.854
897.093
897.258
897.362
897.427
897.469
897.498
897.518
897.531
897.54
897.543
897.537
897.524
897.499
897.449
897.371
897.263
897.145
897.04
896.96
896.907
896.876
896.859
898.312
898.242
898.166
898.087
898.005
897.925
897.847
897.772
897.699
897.628
897.559
897.493
897.43
897.37
897.314
897.261
897.219
898.37
898.425
898.479
898.532
898.585
898.637
898.684
898.728
898.773
898.818
898.865
898.912
898.958
899.002
899.048
899.095
899.145
899.196
899.25
899.305
899.363
899.423
899.485
899.551
899.62
899.692
899.768
899.846
899.926
897.171
897.058
896.722
895.954
894.886
894.084
893.921
894.416
895.132
895.776
896.304
896.71
897.003
897.202
897.325
897.401
897.448
897.48
897.501
897.514
897.523
897.524
897.517
897.502
897.469
897.42
897.343
897.237
897.122
897.021
896.945
896.896
896.87
896.856
898.328
898.258
898.185
898.107
898.026
897.946
897.868
897.792
897.717
897.645
897.575
897.508
897.444
897.382
897.324
897.269
897.217
897.169
898.384
898.438
898.491
898.543
898.595
898.642
898.684
898.728
898.773
898.818
898.865
898.909
898.951
898.996
899.042
899.09
899.139
899.191
899.245
899.301
899.359
899.419
899.482
899.548
899.617
899.69
899.766
899.845
899.925
897.089
896.821
896.001
894.426
892.799
892.066
892.547
893.54
894.504
895.342
896.015
896.524
896.887
897.132
897.28
897.369
897.424
897.459
897.481
897.495
897.503
897.504
897.496
897.472
897.438
897.389
897.315
897.211
897.099
897.002
896.931
896.887
896.864
896.854
898.343
898.275
898.202
898.126
898.046
897.967
897.889
897.812
897.737
897.664
897.593
897.524
897.458
897.396
897.336
897.279
897.226
897.174
897.108
898.398
898.451
898.503
898.554
898.6
898.642
898.684
898.728
898.772
898.818
898.861
898.902
898.945
898.989
899.036
899.084
899.134
899.186
899.24
899.296
899.354
899.415
899.479
899.545
899.615
899.688
899.765
899.845
899.925
896.931
896.214
894.223
891.316
889.375
889.618
890.945
892.367
893.675
894.774
895.639
896.283
896.739
897.042
897.223
897.33
897.395
897.435
897.46
897.474
897.482
897.481
897.465
897.441
897.407
897.358
897.285
897.185
897.076
896.983
896.917
896.878
896.859
896.852
898.357
898.29
898.219
898.145
898.067
897.988
897.91
897.833
897.758
897.684
897.611
897.541
897.474
897.41
897.349
897.291
897.236
897.183
897.131
897.015
898.411
898.463
898.514
898.559
898.6
898.642
898.684
898.728
898.772
898.814
898.854
898.895
898.938
898.983
899.029
899.078
899.128
899.181
899.235
899.291
899.35
899.411
899.476
899.543
899.613
899.687
899.764
899.844
899.925
896.529
894.472
889.898
885.516
884.968
886.68
888.772
890.807
892.583
894.032
895.15
895.972
896.547
896.926
897.151
897.282
897.36
897.407
897.435
897.451
897.458
897.45
897.433
897.408
897.375
897.327
897.255
897.157
897.052
896.964
896.903
896.869
896.855
896.852
898.371
898.305
898.236
898.164
898.087
898.008
897.931
897.855
897.779
897.704
897.631
897.56
897.492
897.426
897.363
897.304
897.248
897.194
897.142
897.089
896.817
898.424
898.475
898.519
898.559
898.6
898.642
898.684
898.728
898.768
898.806
898.846
898.888
898.931
898.976
899.023
899.072
899.122
899.175
899.23
899.287
899.346
899.408
899.472
899.54
899.611
899.685
899.763
899.843
899.924
895.243
889.186
880.069
877.343
879.508
882.657
885.87
888.752
891.159
893.068
894.516
895.568
896.299
896.778
897.059
897.222
897.317
897.374
897.406
897.424
897.425
897.417
897.4
897.375
897.341
897.294
897.225
897.129
897.028
896.944
896.89
896.861
896.851
896.853
898.384
898.32
898.252
898.181
898.106
898.029
897.952
897.876
897.801
897.727
897.652
897.58
897.51
897.443
897.379
897.318
897.261
897.206
897.154
897.1
897.056
896.215
898.436
898.481
898.52
898.559
898.6
898.642
898.684
898.723
898.76
898.798
898.838
898.88
898.924
898.969
899.016
899.065
899.116
899.169
899.224
899.282
899.342
899.404
899.469
899.538
899.609
899.684
899.762
899.842
899.924
890.248
873.007
863.941
866.892
872.019
877.306
882.07
886.085
889.318
891.824
893.698
895.047
895.978
896.586
896.941
897.145
897.264
897.333
897.372
897.385
897.389
897.382
897.366
897.341
897.308
897.261
897.193
897.101
897.004
896.926
896.877
896.855
896.849
896.855
898.397
898.334
898.267
898.198
898.125
898.049
897.973
897.898
897.823
897.749
897.675
897.601
897.53
897.461
897.396
897.334
897.275
897.219
897.166
897.114
897.058
897.05
893.44
898.442
898.481
898.52
898.56
898.6
898.642
898.68
898.715
898.752
898.79
898.83
898.872
898.916
898.962
899.009
899.059
899.11
899.163
899.219
899.277
899.338
899.401
899.467
899.535
899.607
899.682
899.761
899.842
899.924
866.706
837.789