/*--------------------------------*- C++ -*----------------------------------*\
  =========                 |
  \\      /  F ield         | OpenFOAM: The Open Source CFD Toolbox
   \\    /   O peration     | Website:  https://openfoam.org
    \\  /    A nd           | Version:  8
     \\/     M anipulation  |
\*---------------------------------------------------------------------------*/
FoamFile
{
    version     2.0;
    format      ascii;
    class       volScalarField;
    location    "0.15";
    object      epsilon;
}
// * * * * * * * * * * * * * * * * * * * * * * * * * * * * * * * * * * * * * //

dimensions      [0 2 -3 0 0 0 0];

internalField   nonuniform List<scalar> 
15677
(
59.7004
18.3535
52.6124
8.08759
25.8893
50.1625
4.62719
13.2622
31.5749
50.4824
3.17782
7.7228
17.0791
37.2638
51.5982
2.48948
5.04249
10.0237
20.807
42.636
53.6553
2.1457
3.62252
6.46059
12.1583
24.5349
47.6496
55.7185
1.97985
2.8208
4.52369
7.72168
14.2705
28.2449
52.0082
57.6559
1.91169
2.35295
3.40103
5.30841
8.91243
16.418
31.7456
55.6908
59.3538
1.88417
2.08027
2.72284
3.90794
6.01945
10.1018
18.5284
34.9444
58.7091
60.8559
1.87055
1.9394
2.3069
3.05468
4.35637
6.70452
11.269
20.5609
37.7646
61.1851
62.1218
1.86765
1.87831
2.05637
2.5206
3.34699
4.77449
7.36055
12.4129
22.4524
40.2279
63.1775
63.2356
1.86863
1.84884
1.91654
2.1858
2.71186
3.61393
5.16377
7.99807
13.5009
24.1973
42.3245
64.8033
64.1634
1.86954
1.83869
1.85192
1.98252
2.30651
2.88557
3.85714
5.53408
8.60267
14.5323
25.7612
44.1151
66.1077
64.9954
1.86978
1.83697
1.82112
1.86771
2.0512
2.41765
3.04221
4.08348
5.88021
9.17793
15.483
27.1615
45.6106
67.1669
65.7207
1.86978
1.83723
1.81049
1.81332
1.89811
2.11721
2.51825
3.18569
4.29159
6.20608
9.71118
16.359
28.383
46.8674
68.0308
66.3626
1.86974
1.8375
1.8082
1.78976
1.81538
1.93019
2.17847
2.60991
3.31595
4.48438
6.50613
10.206
17.1435
29.4468
47.9126
68.7332
66.9507
1.86972
1.8376
1.8079
1.78273
1.77569
1.82144
1.96222
2.23488
2.69267
3.43483
4.65998
6.78251
10.653
17.8447
30.3536
48.7682
69.3358
67.4508
1.86971
1.83761
1.80792
1.78101
1.76145
1.7661
1.83167
1.99293
2.28606
2.76747
3.54199
4.81968
7.03129
11.056
18.4543
31.1173
49.4768
69.8126
67.958
1.8697
1.83761
1.80794
1.78068
1.75696
1.74389
1.76035
1.84304
2.02144
2.33228
2.83443
3.63822
4.9622
7.25421
11.4089
18.9795
31.7507
50.0309
70.2625
68.3522
1.8697
1.83759
1.80794
1.78064
1.7557
1.73586
1.72948
1.75735
1.85443
2.04757
2.37363
2.89402
3.72338
5.0883
7.44891
11.7148
19.4186
32.2592
50.4939
70.5966
68.8229
1.8697
1.83758
1.80793
1.78062
1.75539
1.73315
1.71726
1.71796
1.7558
1.86556
2.07118
2.41031
2.94647
3.79787
5.19768
7.61633
11.9713
19.7783
32.6652
50.8295
70.9689
69.1358
1.8697
1.83758
1.80792
1.7806
1.75531
1.7323
1.71266
1.70126
1.7084
1.75569
1.87602
2.09226
2.44258
2.99205
3.86208
5.29058
7.75657
12.1814
20.0623
32.968
51.1166
71.2179
69.6022
1.8697
1.83757
1.80791
1.78057
1.75528
1.73205
1.71104
1.69443
1.68719
1.70079
1.756
1.88562
2.11098
2.47069
3.03131
3.91631
5.36809
7.86986
12.3465
20.2764
33.1928
51.3058
71.5691
69.8554
1.86971
1.83757
1.8079
1.78055
1.75525
1.73195
1.71051
1.69181
1.67796
1.67523
1.69446
1.75676
1.89448
2.12754
2.49511
3.06462
3.96149
5.43003
7.95919
12.4696
20.4304
33.3409
51.467
71.7725
70.3223
1.86971
1.83756
1.80789
1.78053
1.75522
1.73188
1.71032
1.69083
1.67418
1.66357
1.66473
1.68943
1.75813
1.90271
2.14227
2.51624
3.09277
3.99817
5.4793
8.02428
12.5562
20.5243
33.429
51.5809
72.1659
70.5663
1.86971
1.83756
1.80789
1.78052
1.7552
1.73183
1.71022
1.69045
1.6727
1.6585
1.65063
1.65614
1.68558
1.75995
1.91054
2.15567
2.53485
3.11661
4.02787
5.51525
8.07051
12.6067
20.5807
33.4721
51.6529
72.4607
429.275
1.86971
1.83756
1.80789
1.78051
1.75518
1.73179
1.71016
1.69027
1.67211
1.65636
1.64426
1.6398
1.64872
1.68294
1.7626
1.91851
2.16831
2.5516
3.13691
4.05124
5.54196
8.09696
12.6327
20.5809
33.4659
51.7733
88.7956
717.347
1.86971
1.83756
1.80788
1.7805
1.75516
1.73176
1.7101
1.69016
1.67185
1.65545
1.6415
1.63208
1.63023
1.64363
1.68225
1.76647
1.927
2.18088
2.5674
3.15512
4.07058
5.55982
8.11252
12.6292
20.5671
33.4677
52.692
122.13
998.166
1.86971
1.83755
1.80788
1.78049
1.75515
1.73173
1.71006
1.69007
1.6717
1.65502
1.64031
1.62854
1.62136
1.62334
1.63957
1.68329
1.77189
1.93684
2.19428
2.58351
3.1724
4.08709
5.57245
8.11218
12.6165
20.5362
33.4914
55.2429
157.699
1246.59
1.86971
1.83755
1.80788
1.78048
1.75514
1.73171
1.71002
1.69001
1.67158
1.65479
1.63974
1.62692
1.61724
1.61318
1.61766
1.63963
1.68632
1.77963
1.94873
2.20957
2.60076
3.19007
4.10222
5.58057
8.10883
12.5913
20.4969
33.5885
59.8071
190.318
1475.55
1.86971
1.83755
1.80788
1.78047
1.75513
1.73169
1.70999
1.68995
1.67149
1.65463
1.63943
1.62613
1.61532
1.60824
1.60678
1.61607
1.64144
1.69245
1.79043
1.96369
2.22751
2.6205
3.20921
4.1179
5.58747
8.10158
12.5617
20.4519
33.8387
64.5236
221.269
1669.86
1.86971
1.83755
1.80788
1.78047
1.75512
1.73167
1.70996
1.68991
1.67142
1.65451
1.63922
1.62571
1.61437
1.60586
1.60148
1.60392
1.61747
1.64625
1.70259
1.80531
1.98256
2.24947
2.64366
3.23157
4.13546
5.59559
8.09374
12.5299
20.4019
34.3035
69.3201
248.5
1817.65
1.86971
1.83755
1.80788
1.78047
1.75512
1.73166
1.70994
1.68987
1.67135
1.65441
1.63906
1.62543
1.61384
1.60466
1.59889
1.59786
1.60509
1.62183
1.65571
1.71759
1.82514
2.00664
2.27631
2.6718
3.258
4.15697
5.60687
8.08768
12.4968
20.3561
34.859
73.6724
269.667
1932.44
1.86971
1.83755
1.80788
1.78046
1.75511
1.73164
1.70992
1.68984
1.6713
1.65433
1.63892
1.62523
1.61349
1.60401
1.59756
1.59487
1.59892
1.60925
1.63077
1.67095
1.73838
1.85123
2.03679
2.30944
2.70559
3.29023
4.18351
5.62292
8.08498
12.4624
20.3189
35.3957
77.0441
286.411
2024.71
1.83755
1.86975
1.80788
1.78046
1.75511
1.73163
1.70991
1.68981
1.67126
1.65426
1.63881
1.62507
1.61323
1.6036
1.59681
1.59336
1.59589
1.60303
1.61802
1.6463
1.69264
1.76628
1.88445
2.0744
2.34956
2.74663
3.32892
4.21644
5.64413
8.08605
12.4251
20.2773
35.8026
79.63
299.998
2101.77
1.80788
1.83765
1.86982
1.78046
1.75511
1.73162
1.70989
1.68978
1.67122
1.6542
1.63871
1.62494
1.61301
1.6033
1.59632
1.59254
1.59438
1.60004
1.61183
1.63399
1.66887
1.72209
1.80226
1.9263
2.12023
2.39815
2.79526
3.37531
4.2559
5.67115
8.09058
12.3855
20.2274
36.0839
81.6078
311.47
2168.59
1.78045
1.80804
1.83785
1.86989
1.7551
1.73161
1.70988
1.68976
1.67119
1.65414
1.63863
1.62482
1.61283
1.60306
1.59596
1.59204
1.59359
1.59862
1.60902
1.62831
1.65748
1.69993
1.76052
1.84774
1.97743
2.17551
2.45542
2.85287
3.42938
4.30236
5.70773
8.10112
12.3499
20.1655
36.2556
83.1627
321.431
2228.17
1.7551
1.78066
1.80835
1.83805
1.86997
1.73161
1.70988
1.68973
1.67116
1.65409
1.63856
1.62472
1.61267
1.60286
1.59566
1.59169
1.59313
1.59795
1.60787
1.62604
1.65276
1.69015
1.74083
1.80961
1.90384
2.03945
2.24068
2.52296
2.91911
3.49155
4.3618
5.75668
8.11958
12.3177
20.0946
36.351
84.4073
330.4
2282.67
1.7316
1.75536
1.78108
1.80868
1.83826
1.87004
1.70987
1.68972
1.67114
1.65405
1.63851
1.62462
1.61254
1.6027
1.59542
1.59141
1.59281
1.59761
1.60749
1.62547
1.65155
1.68723
1.73369
1.79359
1.87064
1.97238
2.113
2.31703
2.59981
2.99469
3.56961
4.43757
5.81418
8.14444
12.2899
20.017
36.3826
85.4472
338.583
2333.11
1.70986
1.73189
1.75587
1.78151
1.80902
1.83848
1.87012
1.6897
1.67112
1.65401
1.63846
1.62454
1.61243
1.60255
1.5952
1.59119
1.59258
1.59742
1.60743
1.62566
1.65194
1.68752
1.73297
1.78998
1.85986
1.94597
2.05436
2.19973
2.40463
2.6873
3.08863
3.66726
4.52299
5.87948
8.17531
12.2664
19.9375
36.3749
86.3371
346.251
2380.52
1.68969
1.71019
1.73249
1.7564
1.78196
1.80936
1.8387
1.8702
1.67111
1.65397
1.63842
1.62447
1.61234
1.60242
1.59502
1.59101
1.59239
1.59729
1.60749
1.62615
1.65313
1.68962
1.73571
1.79262
1.86042
1.94121
2.03654
2.15203
2.29998
2.505
2.79524
3.20507
3.77572
4.61663
5.95101
8.2114
12.2482
19.8581
36.3532
87.1311
353.421
2425.05
1.67109
1.69004
1.71086
1.7331
1.75695
1.78242
1.80972
1.83893
1.87029
1.65394
1.63839
1.6244
1.61226
1.60231
1.59487
1.59085
1.59224
1.59721
1.60761
1.62672
1.65456
1.69252
1.74037
1.79908
1.86804
1.94809
2.03895
2.14379
2.2657
2.4156
2.62997
2.93084
3.33313
3.89241
4.71711
6.0277
8.25227
12.2344
19.7829
36.3124
87.845
360.266
2467.38
1.65392
1.67147
1.69077
1.71156
1.73374
1.75751
1.78289
1.81008
1.83917
1.87037
1.63836
1.62434
1.6122
1.6022
1.59473
1.59072
1.59212
1.59716
1.60775
1.62731
1.65602
1.69556
1.74582
1.80766
1.87974
1.96264
2.05451
2.15639
2.26818
2.396
2.5616
2.78875
3.08161
3.472
4.01632
4.82291
6.10848
8.29683
12.2259
19.7123
36.2655
88.5134
366.721
2507.25
1.63833
1.6543
1.67227
1.69153
1.71227
1.73439
1.75809
1.78337
1.81045
1.83941
1.87046
1.62429
1.61215
1.6021
1.59463
1.59061
1.59201
1.59712
1.6079
1.62787
1.65743
1.69851
1.75129
1.81711
1.89391
1.98185
2.07841
2.18346
2.29422
2.41308
2.5589
2.74484
2.96675
3.24639
3.62077
4.14684
4.93268
6.19226
8.34455
12.2208
19.648
36.2183
89.134
372.93
2545.29
1.62424
1.63874
1.65512
1.67308
1.6923
1.713
1.73506
1.75868
1.78387
1.81083
1.83966
1.87055
1.6121
1.60201
1.59454
1.59051
1.59192
1.59709
1.60805
1.62841
1.65877
1.70131
1.75654
1.82646
1.90909
2.0042
2.10788
2.22015
2.33612
2.45624
2.59684
2.76696
2.94876
3.1619
3.42464
3.77796
4.2821
5.04529
6.27796
8.39433
12.2213
19.5902
36.1736
89.7311
378.786
2581.01
1.61207
1.62462
1.63959
1.65597
1.67392
1.69311
1.71376
1.73574
1.75929
1.78438
1.81123
1.83991
1.87064
1.60192
1.59447
1.59042
1.59184
1.59707
1.60819
1.62891
1.66003
1.70391
1.76151
1.83541
1.92401
2.02801
2.1416
2.26399
2.38959
2.51768
2.66364
2.83428
3.00276
3.17253
3.36973
3.61358
3.94174
4.42123
5.1595
6.36466
8.44576
12.2237
19.5386
36.1345
90.294
384.434
2615.14
1.60185
1.61245
1.62544
1.64047
1.65684
1.67478
1.69393
1.71453
1.73645
1.75991
1.7849
1.81163
1.84017
1.87073
1.59442
1.59033
1.59177
1.59706
1.60833
1.62937
1.6612
1.70632
1.76618
1.84385
1.93832
2.05156
2.1775
2.31396
2.45265
2.59384
2.75263
2.93533
3.1067
3.26556
3.41569
3.58901
3.8114
4.1116
4.56288
5.27448
6.45151
8.49803
12.229
19.4932
36.1011
90.8428
389.74
2647.01
1.59439
1.60214
1.61326
1.62628
1.64137
1.65774
1.67567
1.69478
1.71533
1.73718
1.76055
1.78544
1.81204
1.84043
1.87082
1.59024
1.59171
1.59705
1.60845
1.6298
1.66227
1.70854
1.77053
1.85174
1.95194
2.07435
2.21315
2.36762
2.52485
2.6836
2.86143
3.06539
3.25188
3.41469
3.55452
3.67648
3.81793
4.01303
4.28511
4.70573
5.38897
6.53775
8.55053
12.2376
19.4536
36.0746
91.3626
394.867
2677.51
1.59016
1.59466
1.60278
1.61409
1.62717
1.64231
1.65867
1.67658
1.69566
1.71614
1.73793
1.76121
1.78599
1.81245
1.84068
1.8709
1.59164
1.59703
1.60857
1.63019
1.66325
1.71058
1.77455
1.85907
1.96481
2.09614
2.24784
2.4217
2.60326
2.78739
2.99038
3.2245
3.43668
3.61611
3.75874
3.86864
3.95282
4.05554
4.21717
4.45994
4.84811
5.50233
6.62274
8.60285
12.2483
19.4194
36.054
91.8716
399.652
2705.79
1.59161
1.59017
1.59524
1.60343
1.61496
1.62809
1.64327
1.65964
1.67752
1.69656
1.71698
1.7387
1.76188
1.78654
1.81285
1.84093
1.87098
1.59701
1.60867
1.63055
1.66415
1.71244
1.77826
1.86585
1.97691
2.11677
2.28131
2.47519
2.68313
2.90177
3.1418
3.41624
3.66552
3.87358
4.03159
4.13968
4.20675
4.24268
4.29958
4.42246
4.63506
4.98981
5.61396
6.70599
8.65456
12.2606
19.39
36.0398
92.3533
404.287
2732.9
1.59704
1.59148
1.59018
1.59582
1.60414
1.61587
1.62905
1.64426
1.66064
1.67848
1.69749
1.71785
1.73949
1.76254
1.78707
1.81323
1.84117
1.87106
1.60876
1.63087
1.66496
1.71414
1.78165
1.8721
1.9882
2.13615
2.31341
2.52751
2.76268
3.02038
3.31262
3.64752
3.94843
4.19993
4.38649
4.50377
4.55889
4.5679
4.54414
4.54804
4.62736
4.80738
5.12978
5.72322
6.78709
8.70532
12.2743
19.3651
36.0307
92.825
408.579
2757.88
1.60891
1.59669
1.59116
1.59016
1.59646
1.60492
1.6168
1.63006
1.64528
1.66167
1.67947
1.69845
1.71873
1.74027
1.76319
1.78759
1.81361
1.8414
1.87114
1.63114
1.66568
1.71569
1.78476
1.87784
1.9987
2.15426
2.34404
2.5781
2.84102
3.14144
3.49466
3.91682
4.30198
4.61917
4.85307
4.99171
5.04059
5.01864
4.95139
4.85544
4.79906
4.83116
4.9756
5.26681
5.82954
6.86571
8.75485
12.2889
19.3441
36.0266
93.27
412.753
2781.86
1.63148
1.60822
1.59575
1.59079
1.59026
1.59713
1.60576
1.61775
1.63111
1.64633
1.66273
1.68049
1.69943
1.7196
1.74103
1.76382
1.78809
1.81397
1.84162
1.87122
1.66632
1.71708
1.78759
1.88312
2.00841
2.17113
2.3731
2.62651
2.9177
3.26415
3.68457
4.21238
4.73255
5.17159
5.48482
5.66398
5.71122
5.65175
5.5216
5.35667
5.17497
5.05108
5.03277
5.13925
5.40007
5.93247
6.94157
8.80293
12.3043
19.3266
36.0274
93.7049
416.589
2801.12
1.66702
1.63019
1.60627
1.59471
1.59053
1.59053
1.59779
1.60667
1.61874
1.6322
1.64741
1.66383
1.68154
1.7004
1.72046
1.74177
1.76444
1.78858
1.81433
1.84184
1.87129
1.71832
1.79015
1.88795
2.01737
2.18679
2.40054
2.67249
2.99249
3.38737
3.87936
4.5304
5.23203
5.88943
6.36927
6.62427
6.67892
6.56782
6.34621
6.06979
5.78292
5.50117
5.3027
5.23106
5.29789
5.52894
6.03163
7.0145
8.84939
12.32
19.3121
36.0305
94.1133
419.834
2817.36
1.71961
1.66507
1.62655
1.60418
1.59381
1.59026
1.59098
1.59845
1.60765
1.61975
1.63333
1.64853
1.66495
1.68258
1.70134
1.72129
1.74248
1.76503
1.78905
1.81467
1.84205
1.87136
1.79246
1.89236
2.0256
2.20133
2.4263
2.71594
3.06521
3.50955
4.0764
4.87087
5.80515
6.775
7.57998
8.02805
8.11511
7.93701
7.57807
7.12903
6.66337
6.2287
5.83244
5.55268
5.42514
5.45113
5.65302
6.12681
7.08433
8.89408
12.336
19.3004
36.0362
94.4588
422.513
2834.91
1.79475
1.71679
1.65921
1.62269
1.60231
1.593
1.58995
1.59157
1.59914
1.60868
1.62081
1.63451
1.64967
1.66607
1.68359
1.70226
1.7221
1.74318
1.76562
1.78951
1.81501
1.84225
1.87143
1.89638
2.03315
2.21481
2.4504
2.75693
3.13563
3.62918
4.2744
5.23534
6.45704
7.83467
9.11516
9.99144
10.2554
10.0095
9.45878
8.74719
7.99947
7.29996
6.69172
6.16707
5.79988
5.61425
5.59869
5.772
6.21776
7.151
8.93694
12.3521
19.2907
36.0443
94.7464
425.449
2854.08
1.90023
1.79085
1.70776
1.65308
1.61919
1.6006
1.59226
1.58968
1.59226
1.59986
1.60977
1.62191
1.63571
1.65082
1.66716
1.68458
1.70315
1.72288
1.74386
1.76618
1.78996
1.81533
1.84245
1.87147
2.04009
2.22727
2.47288
2.79555
3.20348
3.74512
4.47349
5.6249
7.18646
9.06362
10.9655
12.4905
13.2623
13.1155
12.3274
11.2439
10.0685
8.95084
7.97464
7.16882
6.50322
6.04328
5.79783
5.74039
5.88583
6.30463
7.21452
8.97789
12.368
19.2841
36.0513
95.0698
428.625
2874.92
2.04653
1.895
1.77734
1.69842
1.64745
1.61592
1.59903
1.59159
1.58949
1.59302
1.60065
1.6109
1.62305
1.6369
1.65194
1.66821
1.68555
1.70402
1.72365
1.74452
1.76673
1.79039
1.81565
1.84255
1.87147
2.23887
2.49379
2.83191
3.26845
3.85679
4.67461
6.03882
7.98581
10.4441
13.1068
15.4967
17.0885
17.4854
16.6354
15.0626
13.2755
11.5262
9.97181
8.68055
7.65622
6.83895
6.28192
5.97542
5.87606
5.99404
6.38753
7.27491
9.01693
12.3816
19.279
36.0615
95.4187
432.131
2897.8
2.24937
2.03971
1.87509
1.76351
1.68978
1.64212
1.61284
1.59756
1.59101
1.58939
1.59383
1.60151
1.61205
1.62422
1.63806
1.65305
1.66924
1.68649
1.70487
1.7244
1.74516
1.76726
1.79081
1.8158
1.84255
1.87147
2.51336
2.86614
3.33032
3.96416
4.87884
6.47439
8.84354
11.9513
15.4998
18.9657
21.6919
23.0599
22.7183
20.8143
18.1903
15.5259
13.0985
11.0483
9.40963
8.14971
7.17232
6.51496
6.14666
6.00577
6.09639
6.46637
7.33221
9.04915
12.3934
19.2746
36.073
95.8156
435.92
2922.67
2.53068
2.24046
2.01073
1.85497
1.75068
1.68154
1.63702
1.60994
1.5962
1.59052
1.5894
1.59467
1.60245
1.6132
1.62537
1.63919
1.65412
1.67024
1.68741
1.70569
1.72512
1.74578
1.76778
1.79102
1.8158
1.84255
1.87147
2.89852
3.38907
4.06765
5.08684
6.92723
9.74637
13.5583
18.0987
22.8319
27.0047
29.7873
30.5191
28.9845
25.6273
21.6723
17.9613
14.7613
12.1653
10.1534
8.64503
7.50146
6.74165
6.3113
6.12959
6.1931
6.54112
7.37931
9.07659
12.4067
19.2701
36.0898
96.2446
440.117
2950.04
2.92676
2.51933
2.19839
1.98182
1.83627
1.73838
1.67361
1.63214
1.60721
1.59496
1.59014
1.58953
1.59552
1.60346
1.61431
1.62652
1.64029
1.65518
1.67121
1.6883
1.70649
1.72583
1.74639
1.76804
1.79102
1.8158
1.84255
1.87147
3.445
4.16811
5.29874
7.39179
10.6805
15.2377
20.8549
27.0173
32.921
37.5669
39.9787
39.535
36.2714
31.0287
25.4613
20.5451
16.4899
13.3077
10.9036
9.13814
7.82461
6.9613
6.46917
6.24751
6.2844
6.6025
7.4193
9.10674
12.4217
19.2672
36.1088
96.7358
444.665
2979.74
3.49324
2.9121
2.4582
2.15706
1.95489
1.8183
1.72649
1.66598
1.62748
1.60466
1.59384
1.58987
1.58986
1.59633
1.6045
1.61539
1.62764
1.64137
1.65621
1.67216
1.68917
1.70726
1.72651
1.74669
1.76804
1.79102
1.8158
1.84255
1.87147
4.26636
5.51277
7.86214
11.6322
16.963
23.7204
31.4389
39.3108
46.2296
50.949
52.4021
50.1219
44.5287
36.9537
29.5038
23.2399
18.2608
14.4618
11.6529
9.62529
8.14018
7.1734
6.62017
6.35954
6.35914
6.65456
7.46311
9.13991
12.4386
19.2643
36.1358
97.268
449.729
3012.49
4.35242
3.47476
2.822
2.39911
2.11851
1.92898
1.80089
1.715
1.65863
1.62302
1.60235
1.59283
1.58962
1.59043
1.59711
1.60556
1.61645
1.62875
1.64242
1.65721
1.67308
1.69001
1.70802
1.72685
1.74669
1.76804
1.79102
1.8158
1.84255
1.87143
5.72596
8.33393
12.5891
18.7092
26.6487
36.0143
46.0343
55.5629
63.1672
67.3746
67.1179
62.2337
53.6701
43.3228
33.7427
26.0095
20.0524
15.6153
12.3945
10.1032
8.44686
7.37753
6.76425
6.45177
6.42244
6.71154
7.51114
9.17644
12.4578
19.2642
36.1665
97.8819
455.23
3047.93
4.32863
5.91378
3.33777
2.73686
2.34394
2.08137
1.90384
1.78402
1.70391
1.65158
1.61876
1.60022
1.59193
1.58932
1.59112
1.59788
1.60661
1.61749
1.62983
1.64344
1.65819
1.67398
1.69084
1.70839
1.72685
1.74669
1.76804
1.79102
1.8158
1.84245
1.87136
8.80314
13.5404
20.4536
29.5967
40.6651
52.9537
65.3372
76.2957
84.0579
86.9716
84.1002
75.7635
63.5789
50.0463
38.1203
28.8199
21.8456
16.7578
13.1229
10.5692
8.74356
7.57335
6.88334
6.53017
6.49162
6.77393
7.56384
9.21672
12.4796
19.2653
36.2088
98.5491
461.391
3087.05
4.10462
5.89526
9.21975
3.21273
2.65739
2.29079
2.04535
1.87947
1.76772
1.69324
1.64483
1.61474
1.59829
1.59117
1.5891
1.59188
1.59866
1.60766
1.61852
1.63089
1.64444
1.65914
1.67485
1.69124
1.70839
1.72685
1.74669
1.76804
1.79102
1.81565
1.84225
1.87129
14.4755
22.1771
32.5261
45.3203
59.9423
75.3309
89.9709
101.936
109.116
109.756
103.232
90.5499
74.1146
57.0293
42.5808
31.6403
23.6238
17.8801
13.8335
11.0211
9.0294
7.73596
6.98485
6.61618
6.5673
6.84229
7.6217
9.26119
12.5044
19.2684
36.2568
99.3241
468.098
3129.19
3.90797
5.49901
9.23083
15.3081
3.09691
2.58086
2.23927
2.01041
1.85589
1.75199
1.68299
1.6384
1.61103
1.59661
1.59054
1.589
1.59265
1.59946
1.60869
1.61954
1.63191
1.64542
1.66007
1.67529
1.69124
1.70839
1.72685
1.74669
1.76804
1.79081
1.81533
1.84204
1.87122
23.8615
35.4061
49.9199
66.8896
85.3467
103.847
120.453
132.793
138.426
135.624
124.308
106.385
85.1217
64.1767
47.0724
34.4434
25.3727
18.9754
14.5227
11.4572
9.26757
7.87498
7.09652
6.71062
6.65015
6.91724
7.68528
9.31036
12.5328
19.2746
36.3219
100.17
475.664
3175.79
3.7295
5.15402
8.50588
15.3933
25.3703
2.98582
2.50676
2.18935
1.9766
1.83313
1.73688
1.67321
1.63239
1.60773
1.59517
1.59006
1.58901
1.59342
1.60029
1.60969
1.62054
1.63292
1.64638
1.66053
1.67528
1.69124
1.70839
1.72685
1.74669
1.76778
1.79038
1.815
1.84183
1.87114
38.2077
54.4175
73.7068
95.2203
117.628
139.086
157.181
169.044
171.931
164.349
147.048
123.029
96.4395
71.3982
51.5479
37.2057
27.0812
20.038
15.1879
11.8209
9.47159
8.02839
7.21953
6.81444
6.74096
6.99945
7.7552
9.36478
12.5652
19.2859
36.3961
101.159
483.91
3225.55
3.56131
4.84222
7.86081
14.1458
25.6386
40.7233
2.87859
2.43508
2.14109
1.94399
1.81125
1.72242
1.66399
1.62694
1.60484
1.59394
1.58971
1.58914
1.59417
1.60114
1.61066
1.62154
1.63391
1.64685
1.66052
1.67528
1.69124
1.70839
1.72685
1.74638
1.76725
1.78994
1.81466
1.84161
1.87106
58.7705
80.3299
104.828
131.078
157.398
181.509
200.432
210.718
209.425
195.587
171.106
140.223
107.911
78.6105
55.9662
39.9078
28.74
21.0635
15.7426
12.1327
9.69717
8.19788
7.35519
6.92867
6.84057
7.08969
7.83213
9.42509
12.6024
19.3009
36.495
102.246
493.3
3280.7
3.40147
4.55121
7.26986
12.9975
23.6991
41.3267
62.6767
2.77515
2.36594
2.09459
1.91265
1.7903
1.70875
1.65556
1.62209
1.60232
1.59291
1.58948
1.5894
1.59489
1.60201
1.61162
1.62253
1.63439
1.64684
1.66052
1.67528
1.69124
1.70839
1.72651
1.74577
1.76671
1.78949
1.81431
1.84139
1.87098
86.7017
114.089
144.034
175.062
205.144
231.479
250.357
257.691
250.547
228.89
196.098
157.71
119.39
85.7394
60.2933
42.5343
30.3422
21.919
16.218
12.4775
9.94687
8.38536
7.50498
7.0545
6.94996
7.18882
7.91686
9.49202
12.6449
19.3238
36.6083
103.496
503.513
3338.88
3.24954
4.27794
6.71529
11.9204
21.8771
38.5013
63.8043
92.3971
2.67559
2.2995
2.04995
1.88266
1.77048
1.69622
1.64802
1.61778
1.60016
1.59205
1.5893
1.58984
1.59558
1.6029
1.61258
1.62301
1.63437
1.64684
1.66052
1.67528
1.69124
1.70801
1.72581
1.74514
1.76616
1.78903
1.81396
1.84116
1.8709
122.933
156.402
191.869
227.635
261.28
289.28
306.977
309.666
294.785
263.732
221.626
175.242
130.745
92.7238
64.5014
45.0726
31.6794
22.6523
16.7439
12.8594
10.2235
8.59299
7.67055
7.19325
7.0702
7.29776
8.0102
9.56635
12.6942
19.3526
36.7568
104.838
515.286
3414.64
3.10532
4.02219
6.19275
10.894
20.1294
35.8195
59.8912
94.2481
130.779
2.58008
2.23594
2.00731
1.8543
1.75229
1.68497
1.64127
1.61394
1.59831
1.59132
1.58908
1.59039
1.59626
1.60385
1.61303
1.62299
1.63437
1.64684
1.66052
1.67529
1.69083
1.70725
1.7251
1.7445
1.76559
1.78856
1.81359
1.84092
1.87081
168.106
207.724
248.721
289.205
326.195
355.127
370.17
366.163
341.497
299.541
247.295
192.595
141.865
99.5131
68.5682
47.192
32.8258
23.4633
17.326
13.2825
10.5304
8.82315
7.85378
7.34641
7.20252
7.41761
8.11318
9.64904
12.7505
19.3934
36.9264
106.399
530.265
3505.55
2.9685
3.7844
5.70296
9.91377
18.4291
33.2094
56.1717
89.0282
133.519
178.363
2.48887
2.17541
1.96703
1.82829
1.73594
1.67487
1.63523
1.6105
1.59673
1.59072
1.58892
1.591
1.59702
1.6043
1.61296
1.623
1.63437
1.64684
1.66053
1.67485
1.69
1.70647
1.72437
1.74384
1.76501
1.78807
1.81322
1.84068
1.87073
222.559
268.323
314.926
360.211
400.307
429.176
439.639
426.518
389.937
335.728
272.739
209.58
152.66
106.067
71.9623
49.0092
34.0942
24.3612
17.9709
13.7519
10.871
9.07855
8.05677
7.51565
7.34827
7.54943
8.22659
9.74102
12.8162
19.4434
37.1439
108.422
549.779
3596.79
2.83854
3.56576
5.24742
8.98555
16.7661
30.6345
52.5234
84.102
126.73
182.068
235.328
2.4023
2.11843
1.93016
1.80493
1.72125
1.66581
1.62982
1.60749
1.5954
1.59022
1.58886
1.59175
1.59732
1.60425
1.61296
1.623
1.63437
1.64685
1.66006
1.67396
1.68914
1.70566
1.72362
1.74316
1.76442
1.78757
1.81284
1.84043
1.87064
286.403
338.405
390.897
441.225
484.11
511.5
514.895
489.895
439.294
371.726
297.645
226.04
163.059
111.529
74.8709
51.0194
35.4986
25.356
18.686
14.2727
11.2493
9.36218
8.28185
7.70283
7.509
7.69486
8.35229
9.84384
12.8914
19.5114
37.4393
111.116
571.086
3687.17
2.71519
3.3677
4.82738
8.11317
15.1419
28.0773
48.8946
79.2647
120.423
173.359
239.923
301.556
2.32122
2.06643
1.89711
1.78396
1.70806
1.65768
1.62501
1.60486
1.59424
1.58985
1.58907
1.59209
1.59717
1.60427
1.61296
1.62299
1.63439
1.64637
1.65912
1.67305
1.68827
1.70484
1.72285
1.74246
1.7638
1.78706
1.81244
1.84017
1.87055
359.664
418.278
477.279
533.075
578.22
602.08
595.227
555.3
488.742
407.033
321.754
241.856
171.701
116.203
78.086
53.2447
37.0548
26.459
19.4793
14.8511
11.6697
9.67734
8.53161
7.91002
7.68632
7.85431
8.49174
9.95862
12.9797
19.6086
37.8773
114.101
594.186
3775.89
2.59956
3.18623
4.4433
7.29853
13.5691
25.5367
45.2535
74.4442
114.269
165.462
228.791
306.755
376.8
2.24763
2.01992
1.8675
1.76514
1.69622
1.65041
1.62074
1.60255
1.59327
1.58981
1.58904
1.59198
1.59716
1.60427
1.61296
1.62301
1.6339
1.6454
1.65816
1.67213
1.68737
1.70399
1.72207
1.74174
1.76318
1.78653
1.81204
1.83991
1.87046
442.491
508.602
575.21
637.036
683.444
700.742
679.665
621.642
537.514
441.229
344.866
254.955
179.08
121.359
81.6409
55.7093
38.78
27.6827
20.3599
15.4935
12.137
10.0277
8.80889
8.13946
7.88247
8.02889
8.64619
10.0875
13.0996
19.7614
38.3826
117.497
619.256
3862.03
2.49458
3.02001
4.0967
6.54646
12.065
23.0238
41.5884
69.5852
108.168
157.86
219.009
292.47
382.039
460.911
2.18223
1.97835
1.84097
1.74824
1.68561
1.64392
1.61693
1.60056
1.5928
1.58964
1.58875
1.59202
1.59716
1.60425
1.61303
1.62252
1.6329
1.64441
1.65718
1.67117
1.68645
1.70312
1.72126
1.74101
1.76253
1.78599
1.81163
1.83965
1.87037
535.446
610.638
686.541
755.064
800.755
807.023
766.998
687.826
584.937
473.981
363.945
266.109
187.199
127.048
85.5719
58.4395
40.6934
29.0407
21.3377
16.2072
12.6564
10.4171
9.11677
8.39367
8.09952
8.22054
8.81718
10.2581
13.2629
19.9447
38.9995
121.302
646.339
3944.82
2.40143
2.87098
3.78906
5.86331
10.6469
20.5572
37.9029
64.6559
102.032
150.426
209.791
280.369
363.538
465.322
554.162
2.1241
1.94121
1.81721
1.7331
1.6761
1.63809
1.61359
1.59929
1.59235
1.58929
1.58877
1.59202
1.59717
1.6043
1.61258
1.62152
1.63189
1.64341
1.65617
1.6702
1.68551
1.70223
1.72044
1.74026
1.76187
1.78544
1.81122
1.8394
1.87028
639.704
726.495
814.392
889.918
931.053
920.088
855.877
752.827
630.463
500.964
380.149
278.341
196.124
133.32
89.9177
61.4639
42.816
30.5482
22.4233
16.9999
13.2336
10.8498
9.45854
8.67526
8.33973
8.43114
9.04111
10.4756
13.4464
20.1745
39.7071
125.667
675.703
4023.22
2.31905
2.73851
3.52614
5.25674
9.33553
18.1594
34.2111
59.6413
95.7981
143.028
200.979
269.281
348.49
441.034
556.578
657.724
2.0724
1.90802
1.79593
1.71953
1.66755
1.63294
1.61126
1.59836
1.59188
1.58933
1.58877
1.59198
1.59732
1.60384
1.6116
1.62052
1.63085
1.64238
1.65514
1.6692
1.68455
1.70132
1.71959
1.73948
1.7612
1.78489
1.81082
1.83916
1.8702
757.36
860.444
963.853
1044.92
1074.93
1038.82
944.934
815.74
667.995
523.834
397.857
291.732
205.924
140.23
94.7194
64.8134
45.17
32.2214
23.6286
17.88
13.8746
11.3302
9.83762
8.98716
8.60509
8.70573
9.31996
10.7096
13.6562
20.4437
40.5643
130.599
707.392
4096.5
2.24632
2.62014
3.30922
4.73935
8.15206
15.8552
30.5362
54.5387
89.42
135.559
192.379
259.01
335.151
422.174
524.114
656.754
774.246
2.02637
1.8784
1.7769
1.70733
1.65996
1.62917
1.6097
1.5977
1.59194
1.58932
1.58875
1.59209
1.59702
1.60289
1.61064
1.6195
1.62979
1.64133
1.65409
1.66818
1.68357
1.70038
1.71872
1.7387
1.76054
1.78437
1.81044
1.83892
1.87012
893.586
1020.35
1141.88
1223.92
1232.95
1162.12
1032.77
867.901
699.796
548.759
417.161
306.361
216.664
147.83
100.02
68.5203
47.7797
34.0777
24.9661
18.8565
14.5856
11.863
10.2577
9.33189
8.9526
9.04542
9.61394
10.9621
13.8909
20.7733
41.5502
136.287
741.77
4163.68
2.18215
2.51463
3.12555
4.30866
7.12553
13.6932
26.9102
49.3569
82.8608
127.93
183.838
249.28
323.266
406.033
500.322
612.356
768.491
908.686
1.98541
1.85197
1.75979
1.69649
1.65424
1.62677
1.60879
1.5978
1.59194
1.58929
1.58904
1.59175
1.59625
1.60199
1.60965
1.61848
1.62871
1.64025
1.65301
1.66713
1.68256
1.69942
1.71784
1.73792
1.75989
1.78385
1.81007
1.83869
1.87004
1057.4
1217.54
1358.16
1432.34
1406.99
1288.46
1106.57
912.201
734.41
575.829
438.138
322.296
228.406
156.175
105.861
72.6182
50.6703
36.1356
26.449
19.9387
15.3732
12.4528
10.7218
9.78346
9.38267
9.4016
9.92342
11.2329
14.1581
21.1567
42.7381
142.761
778.875
4224.21
2.12548
2.42106
2.96698
3.9531
6.26295
11.7595
23.4009
44.1197
76.0947
120.053
175.209
239.88
312.443
392.282
480.643
582.264
706.228
896.218
1071.64
1.94896
1.82829
1.74459
1.68817
1.65069
1.62558
1.60893
1.5978
1.59187
1.58964
1.58907
1.59099
1.59556
1.60111
1.60865
1.61745
1.6276
1.63916
1.65192
1.66605
1.68153
1.69844
1.71697
1.73716
1.75927
1.78335
1.8097
1.83847
1.86996
1264.1
1470.43
1629.44
1683.61
1599.12
1397.07
1169.6
960.462
771.912
605.104
460.844
339.593
241.204
165.313
112.287
77.1408
53.8674
38.4142
28.0909
21.1362
16.2438
13.1037
11.3292
10.3413
9.83237
9.77376
10.2478
11.5245
14.4574
21.6196
44.1109
150.272
819.109
4277.36
2.07538
2.33855
2.82773
3.66038
5.54774
10.0947
20.1462
38.9046
69.1113
111.844
166.341
230.599
302.404
380.334
464.671
558.118
668.235
807.834
1048.64
1278.85
1.91642
1.8073
1.73272
1.68311
1.64913
1.62579
1.60893
1.59769
1.59235
1.58981
1.58886
1.59037
1.59487
1.60025
1.60762
1.61641
1.62648
1.63803
1.6508
1.66495
1.68049
1.69747
1.71612
1.73643
1.75866
1.78287
1.80935
1.83825
1.86989
1546.83
1821.71
2000.85
2001.71
1768.61
1490.35
1238.39
1012.68
812.312
636.601
485.302
358.286
255.1
175.289
119.335
82.1208
57.3969
40.9327
29.9056
22.4586
17.2035
13.9545
12.0776
10.9229
10.2996
10.1608
10.5876
11.8377
14.7979
22.1581
45.7616
158.888
862.55
4323.01
2.03088
2.2661
2.70401
3.42241
4.96014
8.69016
17.2316
33.9083
61.9718
103.227
157.073
221.217
292.859
369.835
451.48
539.49
638.498
760.124
923.168
1249.25
1574
1.88761
1.79074
1.72559
1.68113
1.64942
1.62579
1.60878
1.59836
1.59281
1.58985
1.58892
1.58982
1.59414
1.59943
1.60658
1.61536
1.62534
1.63688
1.64967
1.66382
1.67946
1.69654
1.7153
1.73572
1.75806
1.7824
1.80901
1.83804
1.86982
2005.75
2390.69
2583.61
2283.59
1913.27
1591.73
1312.59
1068.72
855.531
670.275
511.499
378.384
270.118
186.134
127.04
87.5881
61.2831
43.7096
31.9068
23.9148
18.4562
15.0001
12.8554
11.5247
10.7819
10.5613
10.9411
12.1754
15.1804
22.8025
47.6819
168.953
909.428
4359.72
1.99164
2.2024
2.59379
3.22583
4.4798
7.5157
14.6621
29.2812
54.9155
94.2075
147.238
211.489
283.523
360.396
440.63
524.856
616.732
723.485
863.091
1065.42
1551.63
2119.36
1.8646
1.78098
1.72304
1.68153
1.64941
1.62558
1.6097
1.59931
1.59329
1.59023
1.58909
1.58938
1.59339
1.59863
1.60552
1.61428
1.6242
1.6357
1.64852
1.66272
1.67846
1.69563
1.7145
1.73503
1.75749
1.78194
1.80867
1.83784
1.86975
2854.86
3537.19
3059.14
2513.7
2066.44
1699.49
1391.5
1128.24
901.384
706.019
539.372
399.859
286.259
197.867
135.426
93.568
65.5477
46.7624
34.1065
25.8132
19.9924
16.0841
13.6576
12.1428
11.2764
10.9741
11.308
12.5379
15.6147
23.5536
49.9922
180.603
961.251
4388.17
1.96005
2.14685
2.49576
3.05925
4.09005
6.54511
12.444
25.063
48.1556
85.0216
136.738
201.143
274.072
351.665
431.599
513.678
600.39
698.038
818.098
989.414
1268.32
2152.69
3299.7
1.85113
1.77779
1.72357
1.68152
1.64913
1.62677
1.61129
1.60059
1.59427
1.59074
1.58931
1.58913
1.59262
1.59785
1.60447
1.61318
1.62305
1.6345
1.64739
1.66164
1.67749
1.69475
1.71373
1.73436
1.75693
1.7815
1.80835
1.83764
1.86971
4971.7
4253.97
3395.61
2738.53
2223
1811.73
1474.17
1190.76