/*--------------------------------*- C++ -*----------------------------------*\
  =========                 |
  \\      /  F ield         | OpenFOAM: The Open Source CFD Toolbox
   \\    /   O peration     | Website:  https://openfoam.org
    \\  /    A nd           | Version:  8
     \\/     M anipulation  |
\*---------------------------------------------------------------------------*/
FoamFile
{
    version     2.0;
    format      ascii;
    class       volScalarField;
    location    "0.15";
    object      k;
}
// * * * * * * * * * * * * * * * * * * * * * * * * * * * * * * * * * * * * * //

dimensions      [0 2 -2 0 0 0 0];

internalField   nonuniform List<scalar> 
15677
(
0.333994
0.364683
0.294341
0.368614
0.357024
0.280635
0.370641
0.359746
0.36565
0.282425
0.371857
0.361481
0.36118
0.383043
0.288667
0.372597
0.363664
0.357593
0.36812
0.40154
0.300175
0.373032
0.365621
0.357773
0.358026
0.379981
0.419305
0.311718
0.373261
0.36716
0.359421
0.354514
0.360944
0.393229
0.434718
0.322557
0.373349
0.368292
0.361332
0.354727
0.353005
0.366847
0.406124
0.447857
0.332055
0.37335
0.369074
0.36305
0.35631
0.351086
0.353457
0.373524
0.418255
0.458711
0.340459
0.373315
0.369563
0.364433
0.3582
0.351906
0.348762
0.35476
0.380681
0.429083
0.467877
0.347541
0.373275
0.369822
0.365457
0.359947
0.3537
0.348365
0.347132
0.357106
0.387647
0.438827
0.475387
0.353772
0.373249
0.369925
0.366145
0.361387
0.355653
0.349751
0.345344
0.346316
0.359703
0.394451
0.447243
0.481823
0.358963
0.373238
0.369939
0.366546
0.362471
0.357418
0.351711
0.346198
0.34292
0.345887
0.362616
0.400695
0.454731
0.487123
0.363618
0.373237
0.369921
0.366735
0.363205
0.358853
0.353673
0.348064
0.343085
0.34086
0.345905
0.365481
0.406579
0.461076
0.491705
0.367675
0.373238
0.369906
0.366792
0.363631
0.359913
0.355383
0.35015
0.344742
0.340288
0.339192
0.346043
0.368401
0.411765
0.466704
0.495499
0.371266
0.373238
0.369899
0.366792
0.36383
0.360605
0.356731
0.352082
0.346872
0.341693
0.337813
0.337745
0.346382
0.371088
0.416565
0.471377
0.498855
0.374557
0.373238
0.369897
0.366782
0.363888
0.360987
0.357686
0.353684
0.34897
0.343826
0.338914
0.33558
0.33653
0.346784
0.373729
0.420637
0.475498
0.501751
0.377354
0.373238
0.369896
0.366774
0.363896
0.361135
0.358273
0.354884
0.350789
0.346055
0.341006
0.336371
0.333581
0.335463
0.347306
0.376014
0.424323
0.478894
0.504304
0.380192
0.373237
0.369896
0.366768
0.363892
0.361179
0.358543
0.355676
0.352215
0.348064
0.343332
0.338409
0.33405
0.331774
0.334583
0.347754
0.378172
0.42733
0.481868
0.506677
0.382397
0.373237
0.369896
0.366764
0.363887
0.361183
0.358649
0.356076
0.353213
0.349695
0.345504
0.340816
0.33602
0.33194
0.330174
0.333795
0.348244
0.379925
0.430015
0.484322
0.508702
0.385031
0.373236
0.369895
0.366761
0.363883
0.361176
0.358682
0.356249
0.353758
0.350883
0.347325
0.343138
0.338494
0.33385
0.330039
0.328751
0.333138
0.348619
0.381539
0.432095
0.486455
0.510835
0.386781
0.373236
0.369895
0.366758
0.363879
0.361168
0.358687
0.356312
0.354022
0.351565
0.348701
0.345136
0.340952
0.336395
0.331895
0.328363
0.327512
0.332563
0.348988
0.382743
0.433963
0.488238
0.512525
0.38939
0.373236
0.369895
0.366756
0.363877
0.36116
0.358683
0.356327
0.354138
0.35191
0.349533
0.346685
0.343114
0.338992
0.334516
0.330188
0.326902
0.326462
0.332086
0.349254
0.383862
0.435291
0.489819
0.514669
0.390807
0.373236
0.369894
0.366755
0.363874
0.361154
0.358676
0.356322
0.35418
0.35207
0.349984
0.347647
0.344836
0.341327
0.337252
0.332897
0.328723
0.325703
0.325615
0.33174
0.349508
0.38459
0.436562
0.491115
0.516101
0.393419
0.373236
0.369894
0.366755
0.363872
0.361149
0.358669
0.356312
0.354188
0.35213
0.350214
0.348179
0.345951
0.343222
0.339744
0.335787
0.331561
0.327582
0.324771
0.324989
0.331445
0.349691
0.385324
0.437329
0.492482
0.518626
0.394784
0.373237
0.369893
0.366754
0.36387
0.361146
0.358662
0.356302
0.354182
0.352144
0.350317
0.348454
0.346603
0.34446
0.341803
0.338485
0.334647
0.330566
0.326709
0.324107
0.324595
0.331426
0.349952
0.385752
0.438255
0.49337
0.520271
0.504455
0.373237
0.369893
0.366754
0.363868
0.361143
0.358657
0.356292
0.354171
0.352137
0.350351
0.348578
0.346966
0.345183
0.343209
0.340763
0.337514
0.333806
0.329887
0.326297
0.323922
0.324626
0.331519
0.35018
0.386231
0.438692
0.495359
0.528966
0.71037
0.373237
0.369892
0.366754
0.363867
0.361141
0.358652
0.356285
0.354159
0.352123
0.350352
0.348622
0.347148
0.345584
0.344082
0.342294
0.339926
0.336965
0.333565
0.329898
0.326389
0.324072
0.324839
0.331764
0.350496
0.386586
0.439594
0.495923
0.545734
0.885389
0.373237
0.369892
0.366754
0.363866
0.36114
0.358648
0.356279
0.354148
0.352108
0.350338
0.348626
0.347222
0.345784
0.344604
0.343217
0.341673
0.339783
0.337057
0.333779
0.330203
0.326789
0.324528
0.325338
0.332265
0.35094
0.386995
0.440272
0.495634
0.558531
1.02679
0.373238
0.369891
0.366754
0.363865
0.361139
0.358645
0.356274
0.354139
0.352095
0.350319
0.348611
0.347236
0.345868
0.344885
0.343755
0.342828
0.341748
0.340042
0.337512
0.334422
0.330982
0.327676
0.325456
0.326288
0.333089
0.35153
0.38761
0.440017
0.494143
0.567977
1.14895
0.373238
0.369891
0.366754
0.363863
0.361138
0.358642
0.356271
0.354131
0.352084
0.350301
0.34859
0.347221
0.345891
0.345011
0.344044
0.343553
0.342993
0.342178
0.340781
0.338537
0.335736
0.332494
0.329246
0.326973
0.327645
0.334235
0.352382
0.388088
0.439105
0.490998
0.574438
1.24773
0.373238
0.369891
0.366754
0.363863
0.361138
0.358639
0.356267
0.354124
0.352074
0.350285
0.348569
0.347194
0.345881
0.345045
0.344185
0.343974
0.343781
0.343573
0.343171
0.342268
0.340443
0.337889
0.334749
0.331477
0.329034
0.329461
0.335743
0.353422
0.388441
0.437204
0.485618
0.578617
1.3203
0.373238
0.36989
0.366754
0.363862
0.361137
0.358637
0.356265
0.354118
0.352066
0.350271
0.348551
0.347166
0.345855
0.345032
0.344245
0.344189
0.344249
0.344474
0.344799
0.345068
0.34469
0.343226
0.340883
0.337801
0.334396
0.331709
0.331745
0.337626
0.354658
0.388391
0.433983
0.478858
0.581255
1.37532
0.373238
0.36989
0.366754
0.363861
0.361137
0.358635
0.356263
0.354113
0.35206
0.350259
0.348534
0.347141
0.345826
0.344999
0.344251
0.344269
0.3445
0.345026
0.34589
0.34699
0.347922
0.3481
0.346985
0.344819
0.341692
0.338081
0.335
0.334534
0.339873
0.356009
0.38811
0.429689
0.472101
0.583497
1.41876
0.36989
0.373242
0.366755
0.36386
0.361137
0.358633
0.356262
0.354109
0.352054
0.350248
0.34852
0.347119
0.345798
0.344963
0.344227
0.344285
0.344615
0.345343
0.346589
0.348306
0.350193
0.351869
0.352621
0.351837
0.349758
0.346511
0.342541
0.33896
0.337798
0.342466
0.357634
0.387452
0.425254
0.465749
0.585769
1.45453
0.366755
0.3699
0.37325
0.36386
0.361137
0.358632
0.35626
0.354105
0.35205
0.350239
0.348508
0.3471
0.345772
0.344928
0.344194
0.344268
0.344654
0.345512
0.347022
0.349188
0.351801
0.354582
0.357055
0.358393
0.357864
0.355797
0.352274
0.347837
0.343547
0.341544
0.345724
0.359651
0.386595
0.42087
0.46003
0.588448
1.48519
0.363859
0.366772
0.36992
0.373258
0.361137
0.35863
0.356259
0.354101
0.352046
0.350231
0.348497
0.347083
0.34575
0.344897
0.344159
0.344238
0.344653
0.345592
0.347284
0.349772
0.352929
0.356568
0.360325
0.363643
0.365522
0.365181
0.362967
0.359052
0.353923
0.348782
0.346205
0.349687
0.361835
0.385737
0.416849
0.455031
0.59146
1.51228
0.361136
0.363881
0.366805
0.369942
0.373266
0.358629
0.356258
0.354098
0.352043
0.350224
0.348489
0.347068
0.34573
0.34487
0.344127
0.344206
0.344636
0.345624
0.347441
0.350165
0.353729
0.358027
0.3628
0.367611
0.371767
0.374144
0.373831
0.371349
0.366802
0.360827
0.355261
0.352045
0.353984
0.364198
0.385016
0.413132
0.450725
0.594941
1.53683
0.358628
0.361164
0.363925
0.36684
0.369963
0.373274
0.356258
0.354095
0.35204
0.350218
0.348481
0.347055
0.345714
0.344846
0.344098
0.344176
0.344614
0.345634
0.347536
0.35044
0.354316
0.359127
0.364703
0.370714
0.3766
0.381586
0.384321
0.383913
0.380904
0.375558
0.36934
0.363301
0.358473
0.358573
0.366718
0.384461
0.409816
0.447086
0.598661
1.55939
0.356257
0.358659
0.36122
0.363971
0.366876
0.369986
0.373282
0.354093
0.352038
0.350212
0.348475
0.347044
0.345699
0.344825
0.344073
0.34415
0.344592
0.345635
0.347598
0.35064
0.354774
0.359997
0.366219
0.373202
0.380501
0.387483
0.393186
0.396172
0.39539
0.391679
0.38633
0.379864
0.372105
0.36539
0.363416
0.369431
0.384228
0.406888
0.444007
0.602715
1.58045
0.354091
0.356293
0.358722
0.361277
0.364018
0.366913
0.370009
0.373291
0.352037
0.350207
0.34847
0.347034
0.345687
0.344807
0.344051
0.344126
0.344573
0.345633
0.347644
0.350795
0.355145
0.360731
0.367495
0.375289
0.383762
0.392395
0.400376
0.406718
0.409668
0.408329
0.404925
0.399623
0.391351
0.381554
0.37271
0.36846
0.372255
0.384304
0.404402
0.441385
0.606835
1.6001
0.352035
0.354128
0.356366
0.358788
0.361336
0.364066
0.366951
0.370032
0.3733
0.350203
0.348466
0.347025
0.345676
0.344792
0.344032
0.344106
0.344556
0.345632
0.347683
0.350925
0.355455
0.361366
0.368636
0.377137
0.386619
0.39666
0.406559
0.41548
0.422172
0.424912
0.424233
0.421259
0.414112
0.403651
0.391529
0.380345
0.373684
0.375119
0.384541
0.40229
0.439211
0.611154
1.61866
0.350198
0.352077
0.354207
0.356442
0.358855
0.361396
0.364115
0.366989
0.370057
0.373309
0.348462
0.347016
0.345668
0.344778
0.344015
0.344088
0.344541
0.345631
0.347718
0.35104
0.355727
0.36192
0.36967
0.378865
0.389257
0.400544
0.412111
0.423246
0.432826
0.439708
0.44368
0.443866
0.439052
0.429605
0.416609
0.401915
0.388213
0.37906
0.37802
0.385016
0.400551
0.437381
0.615399
1.63605
0.34846
0.350239
0.352163
0.354288
0.35652
0.358925
0.361458
0.364166
0.367029
0.370082
0.373318
0.347008
0.34566
0.344765
0.344001
0.344073
0.344529
0.345632
0.34775
0.351144
0.355971
0.362418
0.370601
0.380487
0.391815
0.404265
0.417346
0.430441
0.442523
0.452629
0.461425
0.466967
0.465295
0.458075
0.445899
0.430069
0.412592
0.396234
0.384525
0.380954
0.38568
0.399096
0.435891
0.619743
1.65256
0.347002
0.348503
0.350327
0.352253
0.354371
0.3566
0.358996
0.361522
0.364219
0.36707
0.370107
0.373328
0.345654
0.344754
0.343988
0.34406
0.344519
0.345633
0.34778
0.351239
0.356194
0.362872
0.371452
0.38198
0.394282
0.407984
0.422521
0.437444
0.451778
0.464703
0.477297
0.488571
0.49254
0.488267
0.47809
0.462803
0.443878
0.423447
0.404331
0.390023
0.383919
0.386519
0.39796
0.434658
0.623915
1.66798
0.34565
0.34704
0.348595
0.350417
0.352344
0.354457
0.356682
0.359069
0.361588
0.364272
0.367112
0.370134
0.373337
0.344744
0.343977
0.344049
0.344511
0.345635
0.347807
0.351327
0.356398
0.363288
0.372236
0.383363
0.396598
0.411662
0.427827
0.444564
0.461048
0.476561
0.492546
0.508409
0.518614
0.520148
0.512547
0.498882
0.480126
0.457882
0.434369
0.412432
0.395511
0.386885
0.387402
0.397075
0.433685
0.628127
1.68266
0.344735
0.345688
0.347126
0.34869
0.35051
0.352439
0.354545
0.356766
0.359145
0.361655
0.364328
0.367155
0.370161
0.373347
0.343967
0.344039
0.344504
0.345637
0.347833
0.351407
0.356585
0.363671
0.37296
0.384649
0.398773
0.415172
0.433179
0.452047
0.470721
0.488768
0.507958
0.528057
0.543188
0.551319
0.549514
0.537886
0.520221
0.497682
0.471942
0.445262
0.420473
0.400945
0.389869
0.388327
0.396405
0.432892
0.632102
1.6963
0.34396
0.34476
0.345769
0.347213
0.348789
0.350607
0.352537
0.354637
0.356853
0.359222
0.361724
0.364384
0.367198
0.370187
0.373356
0.344031
0.344497
0.345639
0.347857
0.35148
0.356756
0.364022
0.373628
0.385846
0.400817
0.418505
0.438364
0.459762
0.481115
0.501824
0.524269
0.548556
0.568264
0.58148
0.586441
0.580363
0.564025
0.541906
0.515306
0.485935
0.456038
0.428397
0.406293
0.392842
0.389289
0.395906
0.432294
0.636086
1.7093
0.344026
0.343971
0.34482
0.345853
0.347305
0.348891
0.350706
0.352637
0.35473
0.356943
0.359302
0.361795
0.364442
0.367242
0.370213
0.373365
0.34449
0.345641
0.347878
0.351547
0.356912
0.364344
0.374243
0.386955
0.402732
0.421662
0.443354
0.467372
0.492019
0.516162
0.542178
0.57095
0.595264
0.613194
0.623145
0.623749
0.61242
0.590707
0.563738
0.53285
0.499754
0.466624
0.436156
0.411528
0.395781
0.390279
0.395551
0.431815
0.639792
1.72132
0.344487
0.344014
0.344
0.344881
0.345943
0.3474
0.348997
0.350809
0.352741
0.354827
0.357034
0.359384
0.361867
0.3645
0.367284
0.370239
0.373374
0.345641
0.347896
0.351608
0.357054
0.364638
0.374808
0.387981
0.404519
0.42464
0.44814
0.474791
0.502905
0.531536
0.562369
0.596305
0.625728
0.648503
0.663006
0.668129
0.66304
0.645434
0.617702
0.58554
0.550187
0.513308
0.476958
0.443711
0.416624
0.398666
0.391286
0.395313
0.431482
0.643495
1.7328
0.345646
0.344447
0.343986
0.344037
0.344945
0.346039
0.347499
0.349107
0.350915
0.352847
0.354926
0.357129
0.359468
0.361939
0.364556
0.367325
0.370263
0.373382
0.347911
0.351662
0.357183
0.364907
0.375324
0.388926
0.406179
0.427438
0.452702
0.481967
0.513636
0.547267
0.584584
0.625743
0.661422
0.689922
0.709196
0.718158
0.716502
0.704173
0.679192
0.644812
0.607159
0.567212
0.526525
0.486991
0.45103
0.421564
0.401483
0.392304
0.395172
0.431221
0.646895
1.74334
0.347933
0.345566
0.344356
0.343943
0.344089
0.345012
0.34614
0.347601
0.34922
0.351024
0.352957
0.355029
0.357225
0.359551
0.362009
0.36461
0.367365
0.370287
0.373391
0.35171
0.357299
0.365151
0.375797
0.389796
0.407716
0.430053
0.457025
0.488855
0.524167
0.563174
0.60773
0.659062
0.70464
0.740948
0.766237
0.779008
0.779408
0.768452
0.74706
0.713521
0.671872
0.628464
0.583841
0.539348
0.496686
0.458089
0.426331
0.40422
0.393322
0.395109
0.431074
0.650297
1.75343
0.351765
0.347787
0.345375
0.34426
0.343905
0.344152
0.345083
0.346246
0.347708
0.349337
0.351137
0.35307
0.355134
0.35732
0.359633
0.362076
0.364663
0.367403
0.370311
0.373399
0.357402
0.365372
0.376228
0.390593
0.409134
0.43249
0.461098
0.495429
0.534453
0.5791
0.631331
0.695002
0.756586
0.806947
0.841041
0.85854
0.85992
0.847549
0.824157
0.791624
0.748268
0.698744
0.649351
0.600005
0.551735
0.506016
0.464872
0.430915
0.406867
0.394333
0.39512
0.430967
0.653388
1.76152
0.357512
0.351537
0.347423
0.345176
0.344176
0.343874
0.344223
0.345158
0.346357
0.347819
0.349458
0.351254
0.353185
0.355238
0.357413
0.359712
0.362142
0.364715
0.367441
0.370333
0.373406
0.365569
0.376619
0.391322
0.410441
0.434751
0.464918
0.501673
0.544437
0.594843
0.655167
0.733735
0.817065
0.892073
0.943487
0.968049
0.969985
0.953242
0.922974
0.883616
0.83773
0.783287
0.72531
0.669735
0.615651
0.563654
0.514961
0.471367
0.435309
0.409417
0.39533
0.395154
0.430958
0.656066
1.76832
0.365768
0.357176
0.350937
0.347044
0.344998
0.344101
0.343852
0.344302
0.34524
0.346472
0.347935
0.349582
0.351375
0.353299
0.35534
0.357503
0.359788
0.362206
0.364765
0.367477
0.370355
0.373414
0.376971
0.391986
0.411641
0.436845
0.468488
0.507577
0.554057
0.610233
0.679256
0.775848
0.88671
0.995159
1.07869
1.1206
1.12432
1.10107
1.05878
1.00534
0.946518
0.885143
0.818417
0.751466
0.689552
0.630738
0.575084
0.523511
0.477567
0.439507
0.411866
0.396312
0.39522
0.43097
0.658257
1.77565
0.377314
0.365294
0.356242
0.350315
0.346698
0.344834
0.344035
0.343839
0.344385
0.345328
0.346591
0.348056
0.349709
0.351495
0.35341
0.35544
0.35759
0.359863
0.362268
0.364814
0.367512
0.370377
0.373421
0.392591
0.412739
0.438778
0.471814
0.513138
0.563264
0.625179
0.703747
0.821515
0.964744
1.11311
1.23896
1.31764
1.33604
1.3069
1.24924
1.17475
1.09353
1.01223
0.93352
0.853481
0.777118
0.708751
0.645241
0.586014
0.531662
0.48347
0.443507
0.414211
0.397273
0.395302
0.430998
0.660698
1.78365
0.393161
0.376668
0.363894
0.355279
0.349737
0.346374
0.344681
0.343979
0.343837
0.344472
0.345424
0.346713
0.348182
0.349835
0.351612
0.353518
0.355537
0.357675
0.359936
0.362329
0.364861
0.367547
0.370397
0.373425
0.413746
0.440559
0.474905
0.518357
0.572028
0.639658
0.72874
0.870206
1.04875
1.2407
1.41487
1.54208
1.60026
1.58182
1.5095
1.41007
1.29831
1.1859
1.07987
0.982429
0.888282
0.802177
0.727291
0.659141
0.596438
0.539411
0.489077
0.447311
0.41645
0.398085
0.395383
0.431062
0.663318
1.79232
0.414672
0.392308
0.37462
0.362459
0.354377
0.349188
0.34607
0.344541
0.343934
0.343847
0.344562
0.345529
0.346838
0.348309
0.349958
0.351727
0.353623
0.355631
0.357758
0.360007
0.362387
0.364908
0.36758
0.370408
0.373425
0.442204
0.477769
0.52324
0.580339
0.653679
0.754187
0.92088
1.13574
1.3723
1.59754
1.77973
1.89175
1.91518
1.84862
1.72509
1.57862
1.42629
1.28059
1.14846
1.03139
0.922617
0.826564
0.745143
0.672431
0.606357
0.546764
0.494392
0.450919
0.418301
0.398786
0.395488
0.431155
0.666261
1.80182
0.443689
0.413568
0.389367
0.372536
0.361109
0.353514
0.34866
0.345785
0.344412
0.343899
0.343873
0.344652
0.345643
0.346962
0.348435
0.350078
0.351839
0.353725
0.355723
0.357839
0.360076
0.362444
0.364952
0.367597
0.370408
0.373425
0.480431
0.527797
0.588201
0.667252
0.779904
0.972349
1.22303
1.50339
1.7799
2.02003
2.19363
2.27575
2.25208
2.1281
1.94734
1.7504
1.55571
1.3758
1.21702
1.07993
0.956287
0.850204
0.762285
0.685105
0.615776
0.553727
0.49942
0.453885
0.419879
0.399569
0.395621
0.431309
0.669409
1.81211
0.482793
0.442278
0.409396
0.386396
0.370569
0.35981
0.35268
0.348153
0.345521
0.344294
0.34387
0.343926
0.344742
0.345762
0.347083
0.348558
0.350194
0.351949
0.353825
0.355812
0.357917
0.360143
0.3625
0.364974
0.367597
0.370408
0.373425
0.532063
0.595635
0.680384
0.805635
1.02353
1.30859
1.63084
1.95713
2.25539
2.49438
2.64483
2.68401
2.60245
2.41345
2.17111
1.92175
1.68412
1.46999
1.28465
1.12761
0.98911
0.873035
0.7787
0.697167
0.624705
0.560311
0.503543
0.456404
0.421615
0.400445
0.395793
0.431498
0.672958
1.82341
0.535801
0.48102
0.436408
0.40522
0.383587
0.368671
0.358552
0.351876
0.347665
0.345275
0.344186
0.343831
0.343998
0.344832
0.345881
0.347202
0.348679
0.350308
0.352056
0.353921
0.355899
0.357993
0.360208
0.362527
0.364974
0.367597
0.370408
0.373425
0.602682
0.693092
0.831118
1.07356
1.39105
1.75271
2.12627
2.48086
2.78569
3.00959
3.12371
3.10809
2.95927
2.69921
2.3924
2.08984
1.80959
1.56192
1.35064
1.17404
1.02092
0.895001
0.794381
0.708625
0.633155
0.565707
0.507038
0.459164
0.423528
0.401427
0.396005
0.431775
0.676761
1.83563
0.608852
0.53357
0.472779
0.430589
0.401261
0.380869
0.366828
0.357335
0.351102
0.347202
0.345046
0.34409
0.343798
0.344082
0.344922
0.346
0.347319
0.348797
0.350419
0.352159
0.354016
0.355983
0.358067
0.36024
0.362527
0.364974
0.367597
0.370408
0.373425
0.705388
0.856137
1.12181
1.46956
1.86791
2.28566
2.69346
3.062
3.3603
3.55635
3.62186
3.54068
3.31667
2.98104
2.6082
2.25263
1.93073
1.65066
1.41442
1.21892
1.0516
0.916064
0.809325
0.719489
0.640086
0.57028
0.510861
0.46219
0.425637
0.402528
0.396276
0.432102
0.681075
1.84905
0.716238
0.606072
0.521908
0.464703
0.425064
0.397426
0.378227
0.36504
0.356158
0.35036
0.346766
0.344837
0.344005
0.343777
0.34417
0.345013
0.346117
0.347434
0.348913
0.350527
0.352261
0.354107
0.356065
0.358103
0.36024
0.362527
0.364974
0.367597
0.370408
0.373421
0.880487
1.16788
1.54363
1.97589
2.43451
2.89162
3.3199
3.69014
3.96998
4.12617
4.13156
3.97524
3.66967
3.25555
2.81633
2.40869
2.04659
1.73559
1.47557
1.26202
1.08102
0.936195
0.823535
0.728415
0.645964
0.57528
0.515045
0.465512
0.427968
0.403768
0.396604
0.432555
0.685707
1.86352
0.712881
0.901936
0.588916
0.510703
0.45702
0.419703
0.393689
0.375657
0.363308
0.355025
0.349652
0.346358
0.344648
0.343936
0.343769
0.344258
0.345106
0.346232
0.347548
0.349026
0.350633
0.352359
0.354197
0.356106
0.358103
0.36024
0.362527
0.364974
0.367597
0.370397
0.373414
1.21148
1.61306
2.07644
2.57253
3.07472
3.55769
3.99482
4.35579
4.60602
4.71091
4.64552
4.40588
4.01409
3.52013
3.01523
2.55711
2.15659
1.81629
1.53381
1.30316
1.10913
0.955375
0.835239
0.735994
0.652396
0.580752
0.51963
0.469163
0.430546
0.405165
0.397019
0.433081
0.690996
1.87944
0.685987
0.89909
1.24904
0.572945
0.500047
0.449553
0.414475
0.390051
0.373163
0.361634
0.353938
0.34898
0.345983
0.344482
0.343883
0.343775
0.344346
0.345202
0.346344
0.347659
0.349135
0.350736
0.352455
0.354241
0.356106
0.358103
0.36024
0.362527
0.364974
0.36758
0.370376
0.373406
1.67775
2.16967
2.69984
3.24276
3.77482
4.27224
4.70812
5.04989
5.25996
5.30265
5.15686
4.82736
4.34652
3.77281
3.20388
2.69735
2.26042
1.89254
1.589
1.34226
1.13588
0.971194
0.845192
0.744298
0.659441
0.586746
0.524656
0.473177
0.433401
0.406744
0.397515
0.433784
0.696689
1.8965
0.661397
0.855817
1.24707
1.73287
0.557967
0.489678
0.442271
0.40938
0.386516
0.370749
0.360023
0.352899
0.348351
0.345647
0.344341
0.343844
0.343794
0.344432
0.3453
0.346454
0.347769
0.349242
0.350837
0.352502
0.35424
0.356106
0.358103
0.36024
0.362527
0.364952
0.367546
0.370355
0.373398
2.2557
2.81686
3.3962
3.97165
4.522
5.02426
5.45019
5.76372
5.92348
5.89365
5.65914
5.23512
4.66423
4.01226
3.38171
2.82918
2.35795
1.96427
1.64107
1.37926
1.15791
0.984655
0.856114
0.753405
0.667163
0.593317
0.530172
0.477598
0.43657
0.408527
0.398138
0.434592
0.703239
1.91528
0.638748
0.815199
1.18304
1.7328
2.32864
0.54351
0.479549
0.435172
0.404425
0.383091
0.36842
0.358478
0.351918
0.347777
0.345354
0.344221
0.343817
0.343832
0.344514
0.3454
0.346561
0.347877
0.349347
0.350887
0.352502
0.35424
0.356106
0.358103
0.36024
0.362499
0.364907
0.367511
0.370332
0.37339
2.92397
3.53589
4.14916
4.74492
5.30394
5.8033
6.21203
6.48887
6.58839
6.47645
6.1465
5.62534
4.96522
4.23765
3.54848
2.95258
2.44923
2.03151
1.69001
1.40956
1.17661
0.999432
0.868109
0.763402
0.675637
0.600527
0.536232
0.482469
0.440089
0.410553
0.398877
0.43565
0.710303
1.93524
0.617358
0.777208
1.12022
1.65018
2.33168
3.01412
0.529446
0.469669
0.428271
0.39962
0.379783
0.366182
0.357014
0.351019
0.347265
0.345103
0.344119
0.343791
0.343886
0.344594
0.345501
0.346665
0.347985
0.349398
0.350887
0.352502
0.35424
0.356106
0.358103
0.360208
0.362443
0.36486
0.367476
0.37031
0.373382
3.6626
4.30882
4.94274
5.54864
6.10901
6.59991
6.98533
7.21716
7.24658
7.04393
6.61377
5.995
5.24815
4.44857
3.70417
3.06769
2.53443
2.09436
1.72983
1.43519
1.19711
1.01566
0.881294
0.774385
0.684943
0.608445
0.542894
0.487845
0.444005
0.412848
0.399801
0.436859
0.718511
1.95724
0.596971
0.741362
1.05885
1.56727
2.23253
3.02073
3.7679
0.515756
0.460061
0.421582
0.394977
0.376602
0.364057
0.355667
0.350211
0.346805
0.344887
0.344034
0.343765
0.343951
0.344673
0.345602
0.34677
0.348038
0.349396
0.350887
0.352502
0.35424
0.356106
0.358066
0.360142
0.362386
0.364812
0.367439
0.370286
0.373374
4.45197
5.11785
5.76117
6.36967
6.92702
7.40588
7.76242
7.94054
7.89011
7.58951
7.05664
6.34198
5.51226
4.64496
3.84902
3.17479
2.61374
2.14524
1.7634
1.46316
1.21957
1.0335
0.895796
0.786463
0.695173
0.61715
0.550227
0.493783
0.448368
0.415467
0.400893
0.438332
0.727364
1.98031
0.577474
0.707572
0.998676
1.48415
2.1321
2.90659
3.77724
4.56857
0.502452
0.450753
0.415123
0.390512
0.373578
0.362098
0.354453
0.349486
0.346397
0.3447
0.343963
0.343747
0.344022
0.344751
0.345707
0.346819
0.348036
0.349396
0.350887
0.352502
0.354241
0.356065
0.357991
0.360074
0.362327
0.364763
0.367402
0.370262
0.373365
5.27239
5.94522
6.58948
7.19669
7.74969
8.21433
8.53597
8.65089
8.51119
8.10736
7.4718
6.66488
5.75729
4.82708
3.9834
3.27421
2.67773
2.18799
1.79985
1.49366
1.24416
1.0531
0.911759
0.799758
0.706431
0.62673
0.558306
0.50035
0.453238
0.418445
0.40225
0.4399
0.737748
2.01015
0.558805
0.675874
0.939915
1.40045
2.03033
2.79071
3.64864
4.5781
5.39442
0.489566
0.441775
0.408913
0.386266
0.370789
0.360331
0.35336
0.348836
0.346038
0.344541
0.343905
0.343738
0.344096
0.344835
0.345758
0.346813
0.348037
0.349396
0.350887
0.352502
0.354196
0.355982
0.357915
0.360005
0.362266
0.364713
0.367363
0.370238
0.373356
6.10402
6.77386
7.41487
8.02095
8.57089
9.01919
9.29864
9.33992
9.10252
8.59266
7.85694
6.9631
5.98347
4.9954
4.10777
3.35419
2.73137
2.23426
1.83941
1.52689
1.2711
1.07465
0.929337
0.814403
0.718832
0.637284
0.567218
0.507622
0.45868
0.421858
0.403844
0.441843
0.750946
2.04567
0.540923
0.646299
0.883032
1.31617
1.92672
2.67277
3.51859
4.43431
5.39974
6.22421
0.477135
0.433159
0.403012
0.382351
0.368271
0.358736
0.352377
0.348255
0.345723
0.344404
0.343858
0.34374
0.344181
0.34487
0.345755
0.346813
0.348037
0.349396
0.350887
0.352454
0.354106
0.355896
0.357836
0.359934
0.362204
0.364662
0.367324
0.370213
0.373347
6.92754
7.58923
8.22761
8.83687
9.38595
9.81477
10.0426
9.99925
9.65753
9.04173
8.21078
7.23672
6.19136
5.1505
4.2075
3.42109
2.78927
2.28429
1.88231
1.56306
1.30058
1.09833
0.948701
0.830546
0.732503
0.648923
0.577058
0.515685
0.464776
0.425752
0.405811
0.44438
0.768289
2.08102
0.523808
0.618825
0.828626
1.23162
1.82096
2.55223
3.38639
4.29032
5.23842
6.21941
7.03776
0.465201
0.42499
0.397575
0.378817
0.365998
0.357299
0.351494
0.347738
0.345447
0.344286
0.343825
0.343766
0.344222
0.344856
0.345757
0.346813
0.348036
0.349398
0.350837
0.352357
0.354013
0.355809
0.357755
0.359861
0.36214
0.364609
0.367283
0.370187
0.373337
7.7265
8.38014
9.02242
9.64073
10.1913
10.5951
10.7595
10.6207
10.1706
9.45217
8.5331
7.48638
6.38175
5.27433
4.29074
3.49316
2.85171
2.33834
1.92878
1.60241
1.33281
1.12434
0.970031
0.848349
0.747587
0.661772
0.587938
0.524636
0.471609
0.430239
0.408551
0.44801
0.787422
2.11573
0.507453
0.593355
0.77734
1.14738
1.713
2.42852
3.25159
4.14496
5.07945
6.03595
7.01573
7.81636
0.453889
0.417482
0.392671
0.37563
0.363948
0.356005
0.350701
0.347278
0.345203
0.344188
0.343821
0.343767
0.344214
0.344854
0.345757
0.346813
0.348038
0.349346
0.350734
0.352258
0.353918
0.355719
0.357672
0.359786
0.362074
0.364555
0.367241
0.37016
0.373328
8.48778
9.14168
9.79492
10.4296
10.984
11.3525
11.4403
11.1964
10.6377
9.82304
8.8245
7.71311
6.53271
5.37731
4.38015
3.5707
2.91897
2.39665
1.97903
1.64513
1.368
1.15289
0.993521
0.867987
0.764241
0.675971
0.599979
0.534587
0.479297
0.436329
0.412465
0.452139
0.808452
2.14954
0.491978
0.569727
0.729784
1.06423
1.60298
2.3012
3.11337
3.99793
4.92095
5.85925
6.80317
7.76764
8.54532
0.443509
0.410728
0.388251
0.372756
0.362099
0.35484
0.349991
0.346865
0.344993
0.344133
0.343807
0.343741
0.344218
0.344854
0.345755
0.346819
0.347984
0.34924
0.35063
0.352156
0.353821
0.355627
0.357587
0.359709
0.362007
0.364499
0.367198
0.370133
0.373318
9.20363
9.86172
10.5339
11.1934
11.7572
12.0806
12.0749
11.7197
11.0564
10.1547
9.08625
7.8912
6.65762
5.48748
4.47604
3.65397
2.99131
2.45945
2.0333
1.69145
1.40636
1.18419
1.01937
0.889646
0.782633
0.691671
0.613326
0.54567
0.489542
0.44439
0.416991
0.457161
0.831607
2.18211
0.477763
0.547921
0.686467
0.983164
1.49126
2.17005
2.97091
3.84822
4.76288
5.68631
6.6041
7.518
8.45451
9.21928
0.434196
0.404654
0.384269
0.370165
0.360434
0.353792
0.349351
0.346502
0.344853
0.344089
0.343778
0.343741
0.344218
0.344856
0.345758
0.346769
0.347875
0.349132
0.350524
0.352052
0.353721
0.355533
0.3575
0.359631
0.361938
0.364442
0.367154
0.370107
0.373309
9.87058
10.5481
11.2546
11.9387
12.5029
12.766
12.6534
12.1856
11.4261
10.4485
9.28934
8.03752
6.79044
5.60507
4.57865
3.74325
3.06896
2.52697
2.09177
1.74154
1.44808
1.21842
1.04777
0.913516
0.802938
0.709048
0.62813
0.560314
0.50267
0.453369
0.42239
0.462948
0.857014
2.21318
0.464984
0.528246
0.647529
0.905402
1.37844
2.03498
2.82351
3.69467
4.60408
5.51732
6.41394
7.29043
8.16025
9.0569
9.82229
0.425853
0.399192
0.380684
0.367831
0.358935
0.352846
0.348782
0.346231
0.344761
0.344048
0.34378
0.343741
0.344214
0.34487
0.345706
0.346663
0.347766
0.349022
0.350415
0.351945
0.353619
0.355437
0.35741
0.35955
0.361867
0.364384
0.367111
0.370081
0.373299
10.4826
11.2002
11.9617
12.6703
13.2172
13.3968
13.1673
12.5919
11.7482
10.6728
9.45459
8.1918
6.93117
5.73018
4.68817
3.83874
3.15214
2.5994
2.15464
1.79558
1.49335
1.25578
1.07892
0.939785
0.82535
0.728263
0.647617
0.578798
0.516938
0.463435
0.428597
0.469983
0.885019
2.24241
0.453525
0.51068
0.614043
0.83316
1.26545
1.89609
2.67054
3.53611
4.4431
5.35091
6.2329
7.07897
7.89732
8.71167
9.56896
10.3449
0.418385
0.394283
0.37746
0.36573
0.357579
0.352001
0.348343
0.346062
0.344704
0.344053
0.34378
0.343741
0.344222
0.344835
0.3456
0.346558
0.347655
0.348909
0.350304
0.351836
0.353514
0.355338
0.357318
0.359468
0.361795
0.364327
0.367069
0.370056
0.37329
11.0392
11.8233
12.6577
13.3887
13.8913
13.9599
13.6102
12.9385
11.9888
10.853
9.62685
8.35362
7.07965
5.86283
4.8047
3.94059
3.24101
2.6769
2.22203
1.85371
1.54228
1.29643
1.11299
0.968641
0.850025
0.753472
0.672008
0.598609
0.532464
0.47462
0.435958
0.47812
0.915739
2.26956
0.443277
0.494904
0.585777
0.769192
1.15449
1.75374
2.5115
3.37131
4.27832
5.18539
6.05926
6.88365
7.65968
8.40668
9.15904
9.98167
10.786
0.411701
0.389873
0.37456
0.363832
0.356367
0.351337
0.348081
0.345981
0.344713
0.344053
0.343777
0.343767
0.344181
0.344749
0.345498
0.34645
0.347543
0.348793
0.35019
0.351724
0.353407
0.355237
0.357224
0.359384
0.361723
0.364271
0.367028
0.370032
0.373282
11.5453
12.4281
13.3471
14.0822
14.5093
14.4426
13.9795
13.1903
12.1788
11.0379
9.80503
8.5223
7.23548
6.00287
4.92827
4.04889
3.33567
2.75956
2.29405
1.916
1.59499
1.34047
1.15011
1.00021
0.882227
0.78475
0.697877
0.619801
0.5493
0.487142
0.444391
0.487959
0.94966
2.2943
0.434134
0.480702
0.561645
0.714867
1.05012
1.60958
2.34599
3.19902
4.10794
5.01878
5.89107
6.7021
7.44708
8.13786
8.80386
9.49148
10.2813
11.1436
0.405718
0.385913
0.371943
0.362134
0.355399
0.350948
0.347973
0.345992
0.344712
0.344048
0.343808
0.343766
0.344095
0.34467
0.345396
0.34634
0.34743
0.348675
0.350074
0.351609
0.353297
0.355133
0.357128
0.359301
0.361653
0.364217
0.366988
0.370008
0.373273
12.011
13.029
14.0303
14.7351
15.0495
14.8368
14.2377
13.3843
12.3695
11.2254
9.98768
8.69684
7.39805
6.14997
5.05872
4.1636
3.43615
2.84743
2.37072
1.98248
1.6515
1.38796
1.19035
1.04108
0.921723
0.817529
0.725167
0.642372
0.56756
0.501013
0.454338
0.499377
0.986872
2.31648
0.425992
0.467928
0.540758
0.669445
0.955641
1.46861
2.17515
3.018
3.92993
4.84874
5.72598
6.53196
7.25609
7.90479
8.4989
9.07717
9.69724
10.4532
11.4162
0.400362
0.382348
0.369603
0.360762
0.35484
0.350807
0.347989
0.345992
0.344704
0.344089
0.343822
0.34374
0.34402
0.344592
0.345296
0.346227
0.347315
0.348554
0.349955
0.351493
0.353184
0.355028
0.357033
0.35922
0.361586
0.364164
0.366949
0.369985
0.373265
12.454
13.6345
14.7029
15.3409
15.4815
15.0975
14.4292