/*--------------------------------*- C++ -*----------------------------------*\
  =========                 |
  \\      /  F ield         | OpenFOAM: The Open Source CFD Toolbox
   \\    /   O peration     | Website:  https://openfoam.org
    \\  /    A nd           | Version:  8
     \\/     M anipulation  |
\*---------------------------------------------------------------------------*/
FoamFile
{
    version     2.0;
    format      ascii;
    class       volScalarField;
    location    "0.14";
    object      p;
}
// * * * * * * * * * * * * * * * * * * * * * * * * * * * * * * * * * * * * * //

dimensions      [0 2 -2 0 0 0 0];

internalField   nonuniform List<scalar> 
15677
(
74.54
74.134
73.7985
74.2883
73.7972
73.7346
74.2082
73.8162
73.7442
73.6703
74.1886
73.8163
73.7447
73.679
73.5743
74.1704
73.8194
73.7452
73.6783
73.5819
73.4743
74.1476
73.8223
73.7453
73.6788
73.5819
73.4809
73.3617
74.1228
73.824
73.7451
73.6789
73.5827
73.481
73.3676
73.2259
74.0971
73.8251
73.7444
73.6787
73.5833
73.4818
73.3677
73.231
73.0601
74.0702
73.8258
73.7434
73.678
73.5838
73.4825
73.3685
73.2313
73.0645
72.8573
74.0423
73.8262
73.742
73.6771
73.5842
73.4832
73.3693
73.2322
73.0649
72.861
72.6099
74.0134
73.8262
73.7404
73.6762
73.5847
73.4839
73.3701
73.2332
73.0659
72.8616
72.6128
72.3093
73.9834
73.8252
73.7389
73.6755
73.5855
73.4848
73.3712
73.2343
73.0671
72.8628
72.6135
72.3115
71.9473
73.9526
73.8234
73.7376
73.6749
73.5865
73.4862
73.3726
73.2358
73.0687
72.8644
72.615
72.3124
71.9487
71.5156
73.9243
73.8209
73.7368
73.6747
73.5883
73.4882
73.3747
73.2379
73.0707
72.8664
72.617
72.3142
71.9496
71.5159
71.0058
73.8999
73.8179
73.7366
73.675
73.5909
73.4914
73.3779
73.241
73.0737
72.8692
72.6197
72.3167
71.952
71.5172
71.0051
70.4106
73.879
73.8149
73.7371
73.6759
73.5948
73.4961
73.3826
73.2458
73.0782
72.8734
72.6235
72.3202
71.9551
71.5198
71.0066
70.4088
69.7231
73.8616
73.8116
73.7381
73.6777
73.6
73.5029
73.3896
73.2527
73.0849
72.8795
72.629
72.3251
71.9595
71.5237
71.0097
70.4105
69.72
68.9378
73.847
73.8076
73.7394
73.6801
73.6064
73.5121
73.3996
73.2628
73.0946
72.8886
72.6372
72.3324
71.966
71.5293
71.0145
70.4141
69.722
68.9332
68.0501
73.8348
73.8034
73.7407
73.6832
73.6134
73.5233
73.4132
73.277
73.1087
72.9018
72.6493
72.3432
71.9753
71.5374
71.0214
70.4198
69.7262
68.9354
68.044
67.0574
73.8245
73.7993
73.7421
73.6868
73.6211
73.5355
73.4298
73.2965
73.1284
72.9208
72.6669
72.359
71.9891
71.5493
71.0315
70.4283
69.7329
68.9402
68.0465
67.0496
65.9584
73.8162
73.7954
73.7436
73.6911
73.6294
73.5487
73.4479
73.3202
73.1554
72.9474
72.692
72.3819
72.0093
71.5667
71.0462
70.4406
69.743
68.9481
68.0518
67.0523
65.9487
64.7539
73.8099
73.792
73.7451
73.6958
73.6383
73.563
73.4677
73.3459
73.1881
72.9838
72.7273
72.4146
72.0386
71.5921
71.0677
70.4584
69.7577
68.9599
68.0609
67.0582
65.9516
64.7423
63.4468
73.8049
73.7893
73.7467
73.7009
73.6478
73.5781
73.4889
73.3741
73.2238
73.0281
72.7755
72.4603
72.0804
71.6289
71.0991
70.4845
69.779
68.9771
68.0745
67.0683
65.9581
64.7453
63.4332
62.0424
73.801
73.7872
73.7482
73.7061
73.6577
73.5939
73.5114
73.4044
73.2629
73.0764
72.8341
72.523
72.1388
71.6814
71.1446
70.5227
69.8102
69.0021
68.0943
67.0837
65.9692
64.7522
63.4363
62.0266
60.5524
73.7979
73.7855
73.7497
73.7111
73.6675
73.6102
73.535
73.4365
73.3049
73.1293
72.8982
72.5993
72.2188
71.7547
71.2094
70.5779
69.8558
69.0387
68.123
67.106
65.9862
64.7642
63.4434
62.0295
60.5328
59.0048
73.7954
73.7841
73.751
73.7156
73.6766
73.6261
73.5593
73.47
73.3494
73.1862
72.9684
72.6827
72.3164
71.8552
71.2999
70.6566
69.9218
69.0922
68.1652
67.1385
66.011
64.7827
63.456
62.0363
60.5332
58.9442
57.3431
73.7934
73.7831
73.7522
73.7196
73.6848
73.6408
73.5832
73.5048
73.396
73.2466
73.0439
72.7742
72.4232
71.978
71.4243
70.7668
70.0159
69.1698
68.227
67.1863
66.047
64.8095
63.4754
62.0489
60.5386
58.9501
57.2736
55.5514
73.7917
73.7823
73.7533
73.7233
73.6923
73.654
73.6051
73.5388
73.4442
73.3098
73.1242
72.8729
72.5406
72.1127
71.5765
70.9183
70.1478
69.2805
68.3166
67.2564
66.1001
64.8486
63.5037
62.0686
60.5497
58.9527
57.2789
55.5261
53.7007
73.7903
73.7816
73.7542
73.7267
73.6989
73.6659
73.6248
73.57
73.4914
73.3752
73.2082
72.9776
72.6672
72.2608
71.7436
71.104
70.3296
69.4362
68.4451
67.3585
66.1784
64.9066
63.5452
62.0974
60.5678
58.9606
57.2742
55.5155
53.6902
51.8014
73.7892
73.781
73.7549
73.7298
73.7049
73.6765
73.6425
73.5982
73.5347
73.4393
73.2953
73.0876
72.8019
72.4208
71.9276
71.3082
70.5528
69.6511
68.626
67.5052
66.2929
64.9924
63.6071
62.1401
60.5955
58.9762
57.28
55.5067
53.6742
51.7952
49.6554
73.7882
73.7806
73.7556
73.7326
73.7102
73.6859
73.6583
73.6235
73.5738
73.4982
73.3808
73.2016
72.9434
72.5913
72.1269
71.5337
70.7989
69.9158
68.8765
67.7125
66.4579
65.1186
63.6995
62.2046
60.6378
59.0016
57.2943
55.5135
53.6661
51.7774
49.6525
47.2363
73.7874
73.7802
73.7562
73.7351
73.7149
73.6943
73.6724
73.646
73.6089
73.5513
73.4593
73.3135
73.0903
72.7706
72.3395
71.7783
71.0713
70.2082
69.1858
68.0003
66.6918
65.3014
63.8363
62.3021
60.7032
59.0422
57.318
55.5277
53.6741
51.7704
49.6358
47.2354
44.7978
73.7867
73.7799
73.7567
73.7374
73.7191
73.7018
73.6849
73.6661
73.6402
73.599
73.5302
73.4165
73.2346
72.957
72.5635
72.0397
71.3673
70.5325
69.5285
68.3568
67.0178
65.5616
64.0356
62.4478
60.8039
59.107
57.3568
55.5506
53.6887
51.7781
49.6287
47.22
44.7986
42.3697
73.7861
73.7796
73.7573
73.7393
73.7228
73.7084
73.696
73.6839
73.6681
73.6416
73.5939
73.5096
73.3676
73.1406
72.7969
72.3157
71.6844
70.886
69.9097
68.753
67.4233
65.926
64.3212
62.6621
60.9566
59.2092
57.4206
55.5883
53.7114
51.7923
49.6337
47.2125
44.785
42.3707
39.9753
73.7794
73.7854
73.7578
73.741
73.7261
73.7142
73.7058
73.6997
73.6929
73.6796
73.6508
73.5932
73.488
73.3099
73.027
72.6038
72.0199
71.2655
70.3261
69.195
67.8755
66.3811
64.7229
62.971
61.1835
59.3668
57.5234
55.6512
53.7483
51.8143
49.6459
47.2146
44.777
42.3582
39.9761
37.63
73.7582
73.7791
73.7847
73.7425
73.729
73.7194
73.7145
73.7138
73.7149
73.7133
73.7016
73.6681
73.5963
73.4633
73.2396
72.8885
72.371
71.6681
70.7746
69.6795
68.3816
66.8905
65.2273
63.4083
61.5133
59.604
57.6844
55.7538
53.8099
51.8496
49.6655
47.2238
44.7762
42.3491
39.9642
37.6303
35.3453
73.7438
73.7589
73.7789
73.7839
73.7315
73.724
73.7222
73.7262
73.7344
73.7433
73.7467
73.7349
73.6932
73.6015
73.4326
73.152
72.7188
72.0905
71.2517
70.2028
68.9381
67.4628
65.794
63.9601
61.9832
59.9517
57.9293
55.9167
53.9114
51.9087
49.6972
47.2389
44.7816
42.3451
39.9536
37.6187
35.3449
33.1315
73.7338
73.7456
73.7599
73.7786
73.7832
73.7281
73.729
73.7372
73.7517
73.7698
73.7867
73.7942
73.7797
73.7254
73.6066
73.3917
73.0413
72.5102
71.7538
70.7613
69.5413
68.0943
66.4332
64.583
62.5797
60.4505
58.2915
56.1668
54.0741
52.0071
49.7514
47.2642
44.7911
42.3457
39.9457
37.6063
35.3334
33.1302
30.9969
73.7316
73.7368
73.7477
73.7608
73.7784
73.7826
73.7351
73.7469
73.767
73.7933
73.8223
73.847
73.8568
73.836
73.7627
73.6081
73.3353
72.9004
72.2541
71.351
70.1873
68.7813
67.1413
65.2884
63.2562
61.0877
58.8151
56.54
54.3265
52.1672
49.844
47.3098
44.8082
42.3483
39.9407
37.5942
35.319
33.1186
30.9948
28.948
73.7403
73.7362
73.7402
73.7497
73.7617
73.7782
73.7819
73.7556
73.7806
73.8142
73.8538
73.8938
73.9252
73.9345
73.9024
73.8026
73.6013
73.2567
72.7206
71.9405
70.8718
69.5198
67.9146
66.0731
64.0257
61.814
59.4879
57.0831
54.7063
52.4183
49.9977
47.3921
44.8428
42.3556
39.935
37.5828
35.3025
33.102
30.983
28.945
26.9888
73.763
73.7469
73.7412
73.7435
73.7517
73.7626
73.778
73.7814
73.7925
73.8327
73.8817
73.9353
73.986
74.0222
74.0269
73.9767
73.8407
73.5799
73.1478
72.492
71.5587
70.3054
68.7491
66.9335
64.8851
62.6436
60.2586
57.7855
55.2632
52.8
50.2431
47.5339
44.9112
42.377
39.9309
37.568
35.2843
33.081
30.964
28.933
26.9851
25.1221
73.8028
73.7723
73.754
73.7462
73.7468
73.7537
73.7636
73.7778
73.7808
73.8491
73.9065
73.9721
74.0399
74.1
74.1377
74.1321
74.0553
73.8713
73.536
72.9985
72.2036
71.097
69.6406
67.866
65.8317
63.5744
61.1428
58.5938
55.9878
53.3641
50.6212
47.7667
45.0365
42.4284
39.9369
37.551
35.2595
33.0557
30.9384
28.9115
26.9727
25.1177
23.3489
73.8631
73.8156
73.7819
73.7609
73.7511
73.7501
73.7556
73.7645
73.7776
73.7803
73.9285
74.0048
74.0877
74.1691
74.2362
74.2706
74.2472
74.133
73.887
73.4601
72.7977
71.8429
70.5429
68.8667
66.8622
64.6041
62.1395
59.5257
56.8258
54.1026
51.1854
48.1326
45.2508
42.5332
39.9687
37.5399
35.2287
33.0205
30.9059
28.8813
26.9488
25.1049
23.3437
21.6692
73.9471
73.8803
73.8282
73.7912
73.7677
73.7558
73.7532
73.7575
73.7653
73.7775
73.7799
74.0338
74.1303
74.2305
74.3238
74.3939
74.4184
74.3674
74.2027
73.8783
73.3408
72.5325
71.3966
69.8842
67.9733
65.7305
63.2475
60.5811
57.7968
54.9612
51.9296
48.6852
45.5958
42.7234
40.0496
37.5499
35.1991
32.9752
30.86
28.8415
26.9141
25.0785
23.3307
21.6633
20.0816
74.0584
73.97
73.8967
73.8406
73.8004
73.7743
73.7604
73.7562
73.7593
73.7662
73.7773
73.7794
74.168
74.2852
74.4016
74.5035
74.5709
74.5767
74.486
74.2554
73.834
73.1648
72.1888
70.851
69.1085
66.9509
64.4654
61.7602
58.902
55.9614
52.8006
49.4216
46.1249
43.0395
40.2107
37.604
35.1857
32.9262
30.7997
28.7848
26.867
25.0394
23.3018
21.6498
20.0751
18.5845
74.1999
74.0883
73.9911
73.9128
73.8526
73.8092
73.7806
73.7648
73.7591
73.761
73.767
73.7772
73.7791
74.3335
74.4709
74.601
74.7066
74.7634
74.7394
74.5943
74.28
73.7409
72.9178
71.7519
70.1922
68.2043
65.7916
63.0628
60.143
57.1058
53.8214
50.2905
46.8382
43.5337
40.4906
37.7315
35.2107
32.8885
30.731
28.7093
26.7994
24.9851
23.2585
21.6187
20.0614
18.5774
17.1753
74.3744
74.2386
74.1152
74.0117
73.9284
73.8642
73.8176
73.7867
73.769
73.7619
73.7626
73.7678
73.7771
73.7787
74.5322
74.6879
74.8275
74.9297
74.9657
74.8981
74.6816
74.2631
73.584
72.5839
71.2062
69.4066
67.1611
64.4888
61.5211
58.3975
54.9961
51.3162
47.688
44.2098
40.9395
37.9688
35.3009
32.8825
30.6682
28.6207
26.7089
24.9068
23.1971
21.5712
20.0279
18.5634
17.1675
15.8507
74.5839
74.4241
74.2726
74.1413
74.0316
73.9432
73.8751
73.8255
73.7924
73.773
73.7644
73.7642
73.7686
73.777
73.7784
74.7647
74.9353
75.0781
75.1676
75.1698
75.0422
74.7344
74.1895
73.3467
72.1464
70.5366
68.4813
65.9696
63.0383
59.8397
56.3298
52.5044
48.6987
45.0238
41.5653
38.3636
35.4904
32.9327
30.6301
28.5326
26.6006
24.8013
23.1083
21.503
19.9766
18.5276
17.1533
15.8425
14.6076
74.8294
74.647
74.4666
74.3054
74.1666
74.0506
73.9572
73.8854
73.833
73.7977
73.7767
73.7669
73.7656
73.7693
73.7769
73.7782
75.0305
75.2105
75.3478
75.4126
75.3654
75.1587
74.7376
74.0423
73.0115
71.5885
69.7279
67.4046
64.6229
61.4366
57.8282
53.8627
49.8778
45.9996
42.3277
38.927
35.8237
33.0703
30.6383
28.4616
26.4872
24.6737
22.9884
21.404
19.9017
18.4727
17.1154
15.828
14.5988
13.4424
75.1105
74.909
74.6999
74.5077
74.3372
74.1904
74.0682
73.9702
73.8949
73.84
73.8027
73.7801
73.7691
73.7669
73.7699
73.7768
73.7779
75.3273
75.5089
75.6296
75.6546
75.5396
75.2321
74.6736
73.8029
72.5601
70.8933
68.7663
66.1671
63.1143
59.498
55.3997
51.2354
47.1463
43.249
39.6224
36.3137
33.3357
30.7209
28.4266
26.383
24.5355
22.842
21.2701
19.7929
18.3915
17.057
15.7881
14.5842
13.4332
12.3515
75.4254
75.2102
74.9745
74.7511
74.5474
74.367
74.2125
74.0846
73.9823
73.9037
73.8463
73.8073
73.7833
73.7711
73.768
73.7704
73.7767
73.7778
75.6509
75.8237
75.9136
75.8811
75.6769
75.2446
74.5233
73.4518
71.9739
70.0448
67.6394
64.7583
61.2645
57.1259
52.7831
48.4757
44.3389
40.4697
36.9281
33.7428
30.9136
28.4523
26.3042
24.3983
22.6793
21.1056
19.6456
18.2733
16.9698
15.7264
14.5423
13.4183
12.3416
11.331
75.7698
75.5492
75.2909
75.0378
74.8003
74.5844
74.3945
74.2328
74.0995
73.9932
73.9117
73.8521
73.8114
73.786
73.7728
73.7689
73.7708
73.7767
73.7776
75.9946
76.1454
76.1874
76.0766
75.7594
75.1766
74.2661
72.9692
71.2349
69.028
66.3338
63.0072
58.9669
54.5333
50.0001
45.609
41.4775
37.6824
34.2634
31.2297
28.5684
26.2719
24.2756
22.5097
20.9192
19.4638
18.1133
16.8427
15.6335
14.4777
13.3746
12.3264
11.3199
10.3786
76.1376
75.9229
75.6484
75.3691
75.0987
74.846
74.6183
74.4195
74.2512
74.1129
74.003
73.9188
73.8572
73.8149
73.7884
73.7742
73.7697
73.7712
73.7766
73.7775
76.3492
76.462
76.4358
76.223
75.7671
75.0066
73.8809
72.335
70.3258
67.8269
64.6879
60.7958
56.4111
51.7317
47.0706
42.6554
38.583
34.9074
31.6456
28.7874
26.3088
24.1849
22.3437
20.7179
19.2545
17.9149
16.6706
15.498
14.3794
13.3074
12.2811
11.3046
10.3632
9.5888
76.5195
76.3256
76.0445
75.7447
75.4441
75.155
74.8877
74.6489
74.4419
74.2675
74.1247
74.0115
73.9249
73.8614
73.8177
73.7903
73.7754
73.7703
73.7715
73.7766
73.7773
76.7027
76.7581
76.6406
76.3
75.6776
74.7124
73.3459
71.5297
69.2282
66.2883
62.567
58.2828
53.5965
48.7361
44.0149
39.6386
35.6792
32.1651
29.0902
26.4263
24.1412
22.1949
20.5096
19.0226
17.6836
16.4566
15.3146
14.236
13.204
12.2115
11.258
10.3491
9.58198
8.92308
76.9036
76.7495
76.4743
76.1628
75.837
75.5132
75.206
74.925
74.6761
74.4615
74.2816
74.1349
74.0187
73.9299
73.8649
73.8201
73.7919
73.7764
73.7709
73.7718
73.7765
73.7772
77.04
77.0157
76.7813
76.2846
75.4677
74.2704
72.6398
70.5331
67.7955
64.2569
60.0994
55.4638
50.5427
45.5744
40.8637
36.5882
32.7914
29.4748
26.6105
24.155
22.0703
20.3035
18.7731
17.4223
16.2043
15.0857
14.0419
13.0532
12.1034
11.1864
10.3015
9.57413
8.92716
8.22456
77.2748
77.1835
76.9308
76.6195
76.276
75.9217
75.5755
75.2514
74.9579
74.6996
74.4783
74.2935
74.1432
74.0244
73.9337
73.8675
73.8219
73.7932
73.7772
73.7713
73.772
73.7765
73.7772
77.3426
77.214
76.8343
76.1527
75.1124
73.6579
71.7396
69.2014
65.85
61.8389
57.2919
52.3757
47.2926
42.2887
37.6556
33.5363
29.9442
26.8537
24.2177
21.9801
20.0989
18.5111
17.1332
15.9147
14.8134
13.799
12.8491
11.9458
11.074
10.2284
9.52562
8.92136
8.22509
7.47289
77.6143
77.6137
77.4043
77.1088
76.7583
76.3797
75.9977
75.6308
75.2911
74.9861
74.7194
74.492
74.3029
74.1494
74.0286
73.9366
73.8695
73.8233
73.7941
73.7778
73.7717
73.7722
73.7764
73.7771
77.5894
77.3291
76.7749
75.8781
74.5876
72.8487
70.5026
67.3383
63.4894
59.0664
54.2053
49.0763
43.8975
38.9244
34.4285
30.5129
27.1592
24.3166
21.9208
19.9058
18.2282
16.8171
15.5877
14.497
13.5078
12.593
11.7323
10.9099
10.1119
9.45197
8.87327
8.21512
7.46688
6.65153
77.9005
78.0231
77.8818
77.622
77.2787
76.8852
76.4726
76.0649
75.6786
75.3247
75.0093
74.7352
74.5025
74.3096
74.1537
74.0314
73.9385
73.8708
73.8243
73.7948
73.7783
73.772
73.7723
73.7764
73.777
77.7559
77.3354
76.5757
75.4351
73.8629
71.6992
68.7201
65.0462
60.7783
56.0199
50.9028
45.6169
40.4027
35.5219
31.216
27.5437
24.4549
21.8752
19.7262
17.9349
16.4583
15.2196
14.1339
13.166
12.284
11.4639
10.6877
9.94194
9.33201
8.79868
8.1667
7.45168
6.64208
5.75542
78.1082
78.3914
78.3477
78.1478
77.8298
77.4339
76.9986
76.5543
76.1227
75.7188
75.352
75.0274
74.7468
74.5096
74.3138
74.1563
74.033
73.9396
73.8716
73.8249
73.7953
73.7786
73.7722
73.7724
73.7763
73.777
77.8155
77.2047
76.2095
74.7893
72.7943
69.9965
66.5074
62.4196
57.8051
52.756
47.4256
42.0346
36.845
32.1155
28.047
24.6506
21.846
19.5381
17.638
16.0684
14.7882
13.7161
12.7687
11.9182
11.138
10.4076
9.71159
9.15725
8.67587
8.09042
7.40166
6.6243
5.74466
4.78188
78.2094
78.6952
78.7827
78.6716
78.4014
78.0194
77.5724
77.0981
76.6243
76.1709
75.751
75.3728
75.0402
74.754
74.5134
74.3158
74.1573
74.0335
73.9399
73.8719
73.8251
73.7955
73.7787
73.7724
73.7725
73.7763
73.7769
77.7384
76.908
75.6382
73.7963
71.1712
67.8719
63.9819
59.5432
54.6116
49.3008
43.7991
38.3591
33.2564
28.735
24.9458
21.8511
19.3434
17.3113
15.6584
14.3059
13.2156
12.3037
11.4886
10.7497
10.0661
9.42058
8.9202
8.49709
7.96442
7.32266
6.57253
5.72613
4.77035
3.72573
78.1726
78.9087
79.1647
79.176
78.9807
78.633
78.1888
77.6939
77.1832
76.6824
76.2091
75.775
75.3868
75.0474
74.7572
74.5144
74.3157
74.1569
74.0331
73.9396
73.8717
73.825
73.7956
73.779
73.7725
73.7725
73.7763
73.7769
77.4927
76.4039
74.7174
72.2533
69.14
65.457
61.2168
56.4424
51.21
45.6686
40.0444
34.6175
29.666
25.4069
21.9328
19.1589
16.9551
15.1981
13.7878
12.6456
11.7378
10.979
10.2896
9.65652
9.06424
8.62031
8.25446
7.7812
7.19295
6.49017
5.67292
4.75112
3.71361
2.58005
77.9617
79.0034
79.4684
79.6403
79.5517
79.2632
78.8401
78.3373
77.7977
77.2535
76.7279
76.2369
75.7904
75.3938
75.0495
74.7567
74.5129
74.314
74.1553
74.0319
73.9387
73.8711
73.8248
73.7958
73.7793
73.7726
73.7725
73.7762
73.7769
77.0333
75.5467
73.2562
70.3186
66.839
62.8101
58.2225
53.1182
47.6054
41.8724
36.1832
30.8371
26.1013
22.1539
19.0242
16.5839
14.686
13.2
12.0251
11.085
10.3517
9.73828
9.16797
8.63485
8.25196
7.94706
7.53252
7.00477
6.35626
5.58715
4.69655
3.69334
2.56759
1.33736
77.5262
78.9479
79.6656
80.0408
80.0954
79.8956
79.5163
79.022
78.4643
77.8832
77.3083
76.7606
76.2541
75.7971
75.3944
75.0471
74.7532
74.5092
74.3108
74.1527
74.0299
73.9372
73.8702
73.825
73.7963
73.7794
73.7725
73.7724
73.7762
73.7769
76.2123
74.1623
71.4201
68.1315
64.3117
59.9296
54.9927
49.5691
43.8038
37.928
32.2397
27.0459
22.5883
18.9956
16.2324
14.1328
12.5386
11.3164
10.368
9.62122
9.05332
8.57742
8.11964
7.80647
7.56857
7.21698
6.74944
6.16252
5.44876
4.6075
3.63724
2.54642
1.32475
-0.0100174
78.6972
76.7193
79.7241
80.3507
80.5897
80.513
80.2046
79.739
79.1776
78.5688
77.9497
77.3472
76.7801
76.2604
75.7959
75.3896
75.0408
74.7469
74.5037
74.3062
74.1491
74.027
73.9354
73.8703
73.8257
73.7965
73.7793
73.7724
73.7723
73.7762
73.777
74.873
72.4193
69.3458
65.7222
61.5473
56.805
51.5214
45.7955
39.8151
33.8554
28.2413
23.2725
19.1507
15.9485
13.5669
11.8095
10.5128
9.54544
8.81359
8.2502
7.83871
7.49252
7.26965
7.10955
6.8275
6.42504
5.8999
5.24889
4.4644
3.54483
2.48848
1.30292
-0.0227691
-1.47007
79.6019
78.1153
75.3917
80.5389
81.0097
81.0949
80.8893
80.4773
79.9303
79.3061
78.6503
77.9968
77.3699
76.7862
76.2571
75.7879
75.38
75.0313
74.7384
74.4966
74.3004
74.1443
74.0238
73.9352
73.8713
73.826
73.7965
73.7791
73.7722
73.7721
73.7762
73.777
73.1906
70.4495
67.0531
63.0737
58.5333
53.4276
47.8047
41.8015
35.6536
29.6791
24.2178
19.5452
15.8102
13.0255
11.0336
9.61516
8.60749
7.8843
7.358
6.96784
6.70379
6.61299
6.55457
6.35386
6.02364
5.56584
4.97831
4.25788
3.39669
2.39243
1.24298
-0.045252
-1.48295
-3.05106
80.5654
79.1847
77.0774
73.7364
81.3262
81.6182
81.5519
81.2229
80.7124
80.0888
79.4066
78.7081
78.024
77.3763
76.7806
76.2455
75.7742
75.3663
75.0189
74.7279
74.4878
74.2931
74.1392
74.0231
73.9366
73.8718
73.826
73.7961
73.7788
73.7719
73.7719
73.7762
73.7771
71.2916
68.2654
64.5204
60.1727
55.26
49.7911
43.842
37.595
31.3386
25.4277
20.2007
15.891
12.5851
10.2365
8.63585
7.54936
6.81996
6.32901
5.99693
5.76995
5.784
5.87315
5.77925
5.53419
5.15153
4.63375
3.97866
3.18299
2.2388
1.14303
-0.107184
-1.50615
-3.06403
-4.76151
81.5021
80.3332
78.3251
75.7227
71.876
82.0559
82.1711
81.959
81.5119
80.9083
80.2135
79.4784
78.7416
78.0313
77.3684
76.765
76.2269
75.7555
75.3492
75.0042
74.7155
74.4773
74.2854
74.1379
74.0251
73.9374
73.8718
73.8255
73.7956
73.7784
73.7716
73.7716
73.7761
73.7771
69.1828
65.8416
61.7346
57.0096
51.7199
45.8914
39.6354
33.1887
26.8946
21.1335
16.222
12.3351
9.49081
7.58795
6.37464
5.61005
5.14629
4.87514
4.72598
4.79955
5.01047
5.07105
4.93834
4.64497
4.20545
3.62268
2.89442
2.01735
0.983465
-0.211168
-1.57008
-3.08798
-4.7745
-6.61006
82.3745
81.4598
79.6947
77.1518
74.1546
69.8131
82.722
82.6661
82.3137
81.7543
81.0638
80.3037
79.5209
78.7511
78.0212
77.3482
76.7407
76.2023
75.7328
75.3293
74.9871
74.7007
74.4661
74.2832
74.1405
74.0262
73.9373
73.8711
73.8247
73.7952
73.7782
73.7713
73.7714
73.7761
73.7772
66.8337
63.1655
58.6872
53.5773
47.9075
41.7257
35.1895
28.5995
22.351
16.8314
12.3134
8.89924
6.53874
5.08364
4.2492
3.79359
3.58195
3.51803
3.6969
3.98368
4.17194
4.20124
4.02618
3.68041
3.17926
2.52607
1.71869
0.753652
-0.377083
-1.67825
-3.15391
-4.79916
-6.62298
-8.60539
83.1751
82.5176
81.0524
78.7471
75.7702
72.3886
67.5121
83.3215
83.1
82.6133
81.9484
81.1778
80.3584
79.5342
78.7394
77.9963
77.3176
76.7092
76.1728
75.7066
75.3065
74.9672
74.6853
74.4629
74.2867
74.142
74.0261
73.9363
73.8699
73.8244
73.7951
73.7778
73.7708
73.771
73.7761
73.7774
64.2327
60.2311
55.3728
49.8701
43.8168
37.2921
30.5122
23.8498
17.742
12.5582
8.50426
5.60176
3.73716
2.72499
2.2567
2.09554
2.12205
2.41966
2.83204
3.09943
3.26288
3.25797
3.03689
2.63432
2.06635
1.33697
0.444124
-0.615851
-1.85093
-3.26648
-4.86711
-6.64826
-8.61779
-10.7569
83.8999
83.4974
82.337
80.3426
77.5936
74.2151
70.3907
64.9607
83.8505
83.4697
82.8559
82.0932
81.2494
80.378
79.522
78.7098
77.9589
77.2784
76.6718
76.1391
75.6769
75.2802
74.9465
74.6805
74.4674
74.2886
74.1419
74.0248
73.9348
73.8697
73.8245
73.7947
73.7772
73.7703
73.7706
73.7761
73.7775
61.3757
57.0351
51.7869
45.8811
39.4409
32.5882
25.6147
18.9682
13.1064
8.35062
4.82091
2.45709
1.09116
0.510791
0.39315
0.510882
0.940812
1.49694
1.89498
2.14115
2.27742
2.23525
1.96419
1.5
0.859722
0.0480024
-0.937051
-2.09925
-3.44639
-4.98432
-6.71811
-8.64315
-10.7664
-13.4786
84.5434
84.3939
83.539
81.8621
79.4261
76.2871
72.4537
68.149
62.1563
84.3049
83.7724
83.0401
82.1873
81.2786
80.3668
79.4881
78.6651
77.911
77.232
76.6295
76.1014
75.643
75.2531
74.9398
74.6863
74.4698
74.2885
74.1402
74.0227
73.9348
73.8705
73.8245
73.7942
73.7765
73.7696
73.7702
73.7761
73.7777
58.2621
53.5756
47.9236
41.601
34.7693
27.6123
20.5142
13.9901
8.48579
4.24362
1.28599
-0.524181
-1.39764
-1.56188
-1.3463
-0.771174
-0.0511633
0.497623
0.879975
1.10288
1.20947
1.12674
0.801368
0.270455
-0.448009
-1.34861
-2.43292
-3.70485
-5.17191
-6.84013
-8.71489
-10.7918
-13.4917
-16.7205
85.1004
85.1999
84.6536
83.2951
81.1792
78.371
74.7979
70.47
65.6655
59.0996
84.6813
84.0062
83.1638
82.2305
81.2707
80.3294
79.436
78.6079
77.8546
77.1798
76.5824
76.0585
75.6082
75.244
74.9471
74.6895
74.4697
74.2863
74.1374
74.0232
73.9366
73.871
73.8241
73.7934
73.7756
73.7689
73.7697
73.7761
73.7779
54.8918
49.8491
43.7742
37.014
29.7882
22.367
15.2366
8.95743
3.92327
0.269794
-2.08219
-3.33597
-3.73012
-3.49731
-2.75366
-1.84744
-1.12501
-0.584303
-0.219108
-0.0216117
0.0525727
-0.0743483
-0.458628
-1.06172
-1.86462
-2.86095
-4.05179
-5.44113
-7.03583
-8.84196
-10.8645
-13.5227
-16.7373
-20.0237
85.5667
85.9073
85.6724
84.6377
82.8412
80.3699
77.152
73.1061
68.2657
62.9472
55.7929
84.9772
84.1686
83.2268
82.229
81.2313
80.2703
79.3689
78.5405
77.7913
77.1219
76.529
76.0144
75.5962
75.2532
74.9511
74.6893
74.467
74.2826
74.1385
74.0263
73.938
73.8711
73.8234
73.7923
73.7746
73.768
73.7691
73.7761
73.7782
51.2641
45.8494
39.3225
32.0997
24.4879
16.8655
9.81873
3.91851
-0.537867
-3.54221
-5.27073
-5.97567
-5.90936
-5.06344
-3.93473
-3.012
-2.28707
-1.75514
-1.40861
-1.23887
-1.20009
-1.37505
-1.82316
-2.50426
-3.39811
-4.49724
-5.80213
-7.31644
-9.04626
-10.9967
-13.6009
-16.7716
-20.0368
-23.341
85.9391
86.5089
86.5856
85.8809
84.4088
82.2714
79.415
75.7447
71.2128
65.8507
60.0042
52.2377
85.189
84.2586
83.236
82.1898
81.1657
80.193
79.2896
78.4648
77.7213
77.0566
76.4743
75.9991
75.6077
75.2582
74.951
74.6859
74.4622
74.2846
74.1436
74.029
73.9387
73.8706
73.8223
73.7909
73.7733
73.767
73.7684
73.7762
73.7785
47.3755
41.5647
34.5443
26.8315
18.8574
11.1291
4.30844
-1.07353
-4.85622
-7.16963
-8.27141
-8.44399
-7.67299
-6.37739
-5.21209
-4.27163
-3.54389
-3.0214
-2.69518
-2.55575
-2.55555
-2.78269
-3.29989
-4.06506
-5.05665
-6.26586
-7.69223
-9.33888
-11.2101
-13.7423
-16.8569
-20.0678
-23.352
-26.6456
86.2131
86.9994
87.3833
87.0135
85.873
84.0715
81.5755
78.2844
74.148
69.129
63.2407
56.8471
48.4337
85.315
84.2841
83.1999
82.119
81.0783
80.1011
79.2005
78.3813
77.6424
76.9897
76.455
76.0132
75.6139
75.258
74.9466
74.6798
74.4654
74.2923
74.1482
74.0309
73.9388
73.8696
73.8208
73.7892
73.7718
73.7658
73.7677
73.7762
73.7789
43.2178
36.9683
29.3976
21.1691
12.8845
5.18635
-1.23741
-5.96339
-8.99537
-10.5954
-11.0808
-10.442
-9.15184
-7.79778
-6.59302
-5.63315
-4.90212
-4.38979
-4.08568
-3.97924
-4.02102
-4.30477
-4.89655
-5.75212
-6.84841
-8.17493
-9.73011
-11.5154
-13.9682
-17.0102
-20.1537
-23.3821
-26.6556
-29.923
86.3855
87.3719
88.0561
88.0242
87.2228
85.7609
83.6291
80.7166
76.9733
72.3732
66.8733
60.4544
53.487
44.3793
85.3639
84.2553
83.1259
82.0221
80.9735
79.9976
79.102
78.2872
77.5616
76.9657
76.4722
76.0207
75.6137
75.2527
74.9389
74.6845
74.4764
74.2994
74.1516
74.0319
73.9383
73.8681
73.8188
73.7871
73.77
73.7645
73.7668
73.7763
73.7793
38.7703
32.0186
23.826
15.0683
6.5697
-0.918537
-6.75348
-10.6972
-12.9247
-13.8088
-13.3556
-12.1165
-10.7493
-9.33233
-8.08458
-7.10335
-6.36855
-5.86721
-5.58703
-5.5164
-5.60383
-5.94883
-6.62087
-7.57333
-8.78127
-10.2323
-11.9226
-14.2898
-17.2523
-20.3131
-23.4687
-26.6865
-29.932
-33.1564
86.4664
87.6209
88.5919
88.9016
88.4461
87.3277
85.5652
83.0377
79.684
75.4918
70.4395
64.4684
57.5116
49.9368
40.0647
85.3478
84.181
83.0206
81.9043
80.8547
79.8831
78.9913
78.1909
77.5324
76.9866
76.4813
76.0205
75.6071
75.2431
74.9456
74.6998
74.4868
74.305
74.154
74.0321
73.937
73.866
73.8163
73.7847
73.7679
73.763
73.766
73.7764
73.7797
34.0016
26.6617
17.7625
8.49194
-0.0656257
-7.12088
-12.1689
-15.2244
-16.6215
-16.4126
-15.2609
-13.9239
-12.4736
-10.9882
-9.69358
-8.68899
-7.95002
-7.46044
-7.20611
-7.1743
-7.3112
-7.72224
-8.4804
-9.53622
-10.8626
-12.4444
-14.7167
-17.5932
-20.5668
-23.6331
-26.7753
-29.9637
-33.1641
-36.3245
86.4696
87.7572
88.9775
89.6291
89.5307
88.7593
87.3703
85.2372
82.2784
78.485
73.859
68.3715
61.9389
54.4319
46.2041
35.4691
85.2772
84.0692
82.8902
81.7698
80.7231
79.7541
78.8776
78.1558
77.5575
76.9975
76.4811
76.0126
75.5952
75.2521
74.9662
74.7143
74.4953
74.3093
74.1553
74.0313
73.9349
73.8632
73.8133
73.7819
73.7655
73.7613
73.765
73.7765
73.7802
28.8649
20.8178
11.1209
1.41772
-6.97618
-13.3385
-17.4098
-19.5019
-19.6201
-18.5919
-17.3151
-15.8724
-14.3317
-12.7721
-11.4266
-10.3967
-9.65307
-9.17609
-8.94964
-8.95973
-9.15004
-9.63205
-10.4821
-11.6476
-13.0985
-15.2618
-18.0417
-20.9226
-23.8959
-26.9457
-30.0543
-33.1961
-36.3309
-39.4053
86.4078
87.798
89.221
90.1861
90.4562
90.0431
89.0297
87.3012
84.7477
81.3541
77.1374
72.0999
66.1964
59.3091
51.2357
42.2909
30.5613
85.1616
83.9272
82.7399
81.6201
80.5745
79.6215
78.836
78.1857
77.5704
76.9972
76.4715
75.9979
75.6071
75.2792
74.986
74.7265
74.5021
74.3122
74.1554
74.0295
73.9319
73.8597
73.8097
73.7786
73.763
73.7596
73.7641
73.7766
73.7807
23.289
14.3662
3.79595
-6.15344
-14.0907
-19.4675
-22.4046
-22.9766
-22.127
-20.9384
-19.5262
-17.9682
-16.3295
-14.69
-13.2898
-12.2326
-11.4839
-11.0204
-10.8239
-10.879
-11.1267
-11.6846
-12.6322
-13.9131
-15.9435
-18.6106
-21.3878
-24.2627
-27.2175
-30.2304
-33.2877
-36.3629
-39.4103
-42.3772
86.2922
87.7588
89.3414
90.576
91.1946
91.1569
90.5281
89.2138
87.0795
84.093
80.2796
75.6655
70.2429
63.942
56.6048
47.9454
38.1991
25.2981
85.0098
83.7614
82.5716
81.4506
80.4213
79.5726
78.8714
78.2009
77.5701
76.9858
76.4537
76.0133
75.642
75.3054
75.0028
74.7367
74.5073
74.3137
74.1541
74.0264
73.9278
73.8553
73.8055
73.775
73.7602
73.7578
73.7631
73.7767
73.7813
17.1652
7.12122
-4.32775
-14.1838
-21.2947
-25.3795
-26.4831
-25.8769
-24.8199
-23.4583
-21.8986
-20.2157
-18.4717
-16.747
-15.2885
-14.2022
-13.448
-12.999
-12.8344
-12.9376
-13.2468
-13.8852
-14.9354
-16.7921
-19.3191
-21.9739
-24.7388
-27.5928
-30.5095
-33.468
-36.4548
-39.4419
-42.3807
-45.2196
86.1332
87.6535
89.3572
90.8169
91.7456
92.0672
91.8393
90.9571
89.2584
86.6926
83.2839
79.0779
74.0977
68.3175
61.6363
53.8533
44.5834
33.9292
19.6175
84.8293
83.5742
82.3802
81.2754
80.3645
79.6142
78.8892
78.2006
77.5566
76.9643
76.4732
76.0574
75.6758
75.3279
75.0172
74.7449
74.5106
74.3134
74.1513
74.0221
73.9227
73.85
73.8007
73.7711
73.7574
73.7559
73.7622
73.7768
73.7819
10.3136
-1.21251
-13.3363
-22.5691
-28.3808
-30.2294
-29.8894
-28.9855
-27.7011
-26.1529
-24.434
-22.6174
-20.7616
-18.9468
-17.4268
-16.3097
-15.5499
-15.1163
-14.9858
-15.14
-15.5143
-16.2376
-17.8575
-20.2002
-22.7015
-25.3353
-28.0754
-30.8903
-33.7517
-36.6375
-39.5333
-42.4117
-45.2216
-47.9126
85.9398
87.4947
89.2859
90.9268
92.1273
92.7715
92.9224
92.499
91.2663
89.1399
86.1453
82.3405
77.7768
72.4638
66.353
59.3084
51.0823
41.1725
29.4913
13.4409
84.6236
83.3602
82.1815
81.2102
80.4132
79.6349
78.8889
78.1847
77.5309
76.9884
76.528
76.1003
75.7051
75.3474
75.0291
74.7507
74.5118
74.3111
74.1468
74.0162
73.9164
73.844
73.7955
73.767
73.7544
73.754
73.7612
73.777
73.7825
2.42384
-11.1044
-23.2464
-30.9883
-34.2527
-34.2678
-33.5271
-32.3031
-30.7663
-29.0184
-27.1309
-25.1731
-23.2
-21.2913
-19.7071
-18.5581
-17.7927
-17.3756
-17.281
-17.4889
-17.9319
-19.2159
-21.3067
-23.6054
-26.0738
-28.6763
-31.3748
-34.1337
-36.9224
-39.7167
-42.5016
-45.2515
-47.9132
-50.4376
85.7163
87.2934
89.1438
90.9237
92.3576
93.289
93.7728
93.7876
93.0666
91.4188
88.8554
85.454
81.2893
76.4054
70.7933
64.3786
56.985
48.323
37.7484
24.9315
6.66081
84.3865
83.137
82.1073
81.2667
80.4371
79.6346
78.8704
78.1541
77.5603
77.0556
76.5813
76.1377
75.7309
75.364
75.0382
74.7538
74.5104
74.3066
74.1403
74.0088
73.909
73.8374
73.79
73.7626
73.7513
73.752
73.7602
73.7771
73.7832
-7.18575
-23.3554
-33.5152
-38.2207
-39.0951
-38.5368
-37.3753
-35.8155
-34.0052
-32.0458
-29.9834
-27.8791
-25.7849
-23.7797
-22.1298
-20.9482
-20.1776
-19.7781
-19.7211
-19.9853
-20.9843
-22.7186
-24.7414
-26.9912
-29.4181
-31.9741
-34.6146
-37.301
-39.9993
-42.6832
-45.3389
-47.9415
-50.4368
-52.7776
85.4568
87.0544
88.9453
90.8256
92.4542
93.6385
94.4125
94.8109
94.5959
93.4908
91.4015
88.4153
84.6426
80.1589
74.9932
69.1148
62.4201
54.6962
45.6211
34.3512
20.3421
-0.908525
84.1379
83.0534
82.1727
81.2942
80.4368
79.6131
78.8342
78.1895
77.6415
77.121
76.6282
76.1709
75.7532
75.3771
75.0439
74.7538
74.5062
74.2996
74.1318
73.9999
73.9008
73.8302
73.7841
73.7581
73.748
73.7499
73.7592
73.7773
73.7839
-20.0677
-37.2686
-43.3939
-44.4078
-44.1956
-42.9959
-41.3897
-39.4928
-37.4014
-35.221
-32.9811
-30.7277
-28.5109
-26.4086
-24.6926
-23.4787
-22.7034
-22.3225
-22.305
-23.1266
-24.5575
-26.1923
-28.1451
-30.34
-32.7123
-35.2063
-37.7732
-40.3701
-42.9599
-45.5163
-48.0253
-50.4628
-52.7754