/*--------------------------------*- C++ -*----------------------------------*\
  =========                 |
  \\      /  F ield         | OpenFOAM: The Open Source CFD Toolbox
   \\    /   O peration     | Website:  https://openfoam.org
    \\  /    A nd           | Version:  8
     \\/     M anipulation  |
\*---------------------------------------------------------------------------*/
FoamFile
{
    version     2.0;
    format      ascii;
    class       volScalarField;
    location    "0.39";
    object      T;
}
// * * * * * * * * * * * * * * * * * * * * * * * * * * * * * * * * * * * * * //

dimensions      [0 0 0 1 0 0 0];

internalField   nonuniform List<scalar> 
15677
(
297.969
298.005
298.073
298.14
298.209
298.282
298.361
298.444
298.533
298.625
298.719
298.812
298.902
298.954
298.944
298.886
298.806
298.737
298.696
298.679
298.678
298.685
298.703
298.703
298.693
298.67
298.643
298.616
298.59
298.566
298.544
298.523
298.502
298.48
298.456
298.025
298.038
298.026
298.027
298.047
298.085
298.144
298.226
298.339
298.5
298.741
299.09
299.473
299.679
299.703
299.612
299.456
299.273
299.097
298.947
298.83
298.742
298.669
298.604
298.556
298.527
298.509
298.498
298.49
298.484
298.479
298.476
298.473
298.472
298.471
300.035
299.977
299.953
299.937
299.921
299.898
299.866
299.816
299.742
299.639
299.524
299.414
299.277
299.056
298.799
298.668
298.623
298.616
298.632
298.675
298.733
298.803
298.882
298.968
299.067
299.18
299.297
299.406
299.504
299.586
299.653
299.705
299.742
299.764
299.773
299.636
299.578
299.558
299.543
299.529
299.515
299.499
299.483
299.466
299.448
299.428
299.382
299.341
299.322
299.341
299.412
299.499
299.604
299.713
299.806
299.872
299.905
299.899
299.867
299.807
299.735
299.663
299.599
299.55
299.516
299.493
299.475
299.461
299.449
299.437
300.648
300.607
300.566
300.518
300.465
300.404
300.334
300.255
300.165
300.067
299.968
299.869
299.781
299.711
299.666
299.639
299.621
299.611
299.611
299.624
299.645
299.669
299.689
299.702
299.709
299.71
299.709
299.705
299.7
299.695
299.692
299.692
299.693
299.697
299.703
300.501
300.475
300.448
300.421
300.39
300.358
300.322
300.281
300.239
300.197
300.159
300.126
300.095
300.072
300.056
300.05
300.047
300.046
300.045
300.043
300.038
300.03
300.022
300.015
300.008
299.999
299.99
299.98
299.967
299.954
299.94
299.928
299.919
299.914
299.912
300.172
300.17
300.17
300.169
300.167
300.164
300.158
300.151
300.141
300.129
300.116
300.103
300.089
300.076
300.064
300.055
300.046
300.038
300.03
300.023
300.015
300.007
300.001
299.996
299.993
299.993
299.995
300
300.006
300.011
300.017
300.023
300.028
300.032
300.035
300.324
300.327
300.325
300.322
300.319
300.314
300.309
300.302
300.295
300.286
300.276
300.265
300.252
300.237
300.221
300.207
300.193
300.179
300.164
300.149
300.132
300.115
300.098
300.081
300.066
300.053
300.043
300.036
300.03
300.027
300.024
300.021
300.019
300.016
300.014
300.151
300.153
300.157
300.161
300.165
300.169
300.173
300.176
300.179
300.181
300.182
300.181
300.179
300.175
300.169
300.162
300.154
300.145
300.134
300.122
300.109
300.095
300.082
300.07
300.06
300.051
300.045
300.041
300.038
300.037
300.037
300.037
300.038
300.038
300.039
300.321
300.317
300.312
300.307
300.302
300.297
300.291
300.285
300.278
300.271
300.263
300.255
300.245
300.234
300.223
300.212
300.201
300.189
300.177
300.164
300.15
300.136
300.123
300.111
300.099
300.089
300.08
300.072
300.065
300.059
300.055
300.051
300.048
300.046
300.044
300.207
300.208
300.21
300.212
300.214
300.216
300.217
300.218
300.218
300.218
300.217
300.215
300.211
300.206
300.2
300.194
300.186
300.177
300.168
300.158
300.147
300.136
300.125
300.116
300.109
300.102
300.097
300.093
300.09
300.087
300.085
300.084
300.082
300.081
300.081
300.295
300.291
300.288
300.284
300.28
300.277
300.273
300.268
300.264
300.259
300.253
300.247
300.24
300.232
300.224
300.215
300.206
300.197
300.188
300.178
300.167
300.157
300.147
300.137
300.129
300.121
300.114
300.108
300.103
300.099
300.096
300.093
300.091
300.09
300.089
300.247
300.246
300.246
300.246
300.246
300.246
300.246
300.245
300.244
300.242
300.24
300.236
300.232
300.227
300.22
300.214
300.207
300.199
300.191
300.183
300.174
300.165
300.157
300.15
300.144
300.138
300.133
300.129
300.126
300.123
300.121
300.119
300.118
300.117
300.116
300.287
300.284
300.281
300.279
300.276
300.274
300.271
300.268
300.265
300.261
300.257
300.252
300.247
300.241
300.234
300.227
300.219
300.211
300.203
300.195
300.186
300.177
300.169
300.161
300.155
300.149
300.143
300.139
300.135
300.132
300.129
300.127
300.126
300.125
300.124
300.271
300.27
300.269
300.268
300.267
300.266
300.265
300.264
300.262
300.259
300.257
300.253
300.249
300.244
300.238
300.231
300.225
300.217
300.21
300.202
300.194
300.186
300.179
300.173
300.167
300.162
300.158
300.154
300.151
300.148
300.146
300.145
300.144
300.143
300.142
300.29
300.288
300.286
300.284
300.283
300.281
300.279
300.277
300.274
300.272
300.268
300.264
300.26
300.254
300.247
300.24
300.233
300.226
300.218
300.21
300.202
300.194
300.187
300.181
300.175
300.171
300.166
300.163
300.16
300.157
300.155
300.154
300.152
300.152
300.151
300.288
300.286
300.285
300.284
300.283
300.282
300.281
300.279
300.277
300.275
300.272
300.269
300.264
300.259
300.252
300.246
300.239
300.232
300.224
300.217
300.209
300.202
300.195
300.189
300.184
300.179
300.175
300.172
300.169
300.167
300.165
300.164
300.163
300.162
300.161
300.299
300.297
300.296
300.294
300.293
300.291
300.289
300.287
300.285
300.282
300.279
300.275
300.271
300.265
300.259
300.252
300.245
300.238
300.231
300.223
300.215
300.208
300.201
300.195
300.19
300.186
300.182
300.179
300.176
300.173
300.171
300.17
300.169
300.168
300.167
300.301
300.3
300.298
300.297
300.296
300.295
300.294
300.292
300.29
300.287
300.284
300.281
300.276
300.271
300.264
300.258
300.251
300.244
300.237
300.229
300.221
300.214
300.207
300.202
300.196
300.192
300.188
300.185
300.182
300.18
300.178
300.176
300.175
300.174
300.173
300.308
300.306
300.305
300.303
300.302
300.301
300.299
300.297
300.295
300.293
300.29
300.286
300.282
300.276
300.27
300.264
300.257
300.25
300.242
300.235
300.227
300.22
300.214
300.208
300.203
300.198
300.194
300.191
300.188
300.186
300.184
300.182
300.181
300.18
300.179
300.313
300.312
300.31
300.309
300.308
300.307
300.305
300.303
300.301
300.299
300.296
300.292
300.288
300.282
300.276
300.269
300.263
300.256
300.248
300.241
300.233
300.226
300.22
300.214
300.209
300.205
300.201
300.198
300.195
300.193
300.191
300.19
300.188
300.187
300.186
300.319
300.317
300.315
300.314
300.313
300.312
300.311
300.309
300.307
300.304
300.302
300.298
300.294
300.288
300.282
300.275
300.269
300.262
300.254
300.247
300.24
300.233
300.227
300.221
300.216
300.212
300.209
300.206
300.203
300.201
300.199
300.198
300.196
300.195
300.194
300.325
300.323
300.321
300.32
300.319
300.318
300.316
300.315
300.313
300.31
300.307
300.304
300.299
300.294
300.288
300.281
300.275
300.268
300.261
300.254
300.246
300.24
300.234
300.229
300.224
300.22
300.217
300.214
300.212
300.21
300.208
300.207
300.206
300.205
300.204
300.33
300.328
300.327
300.326
300.325
300.323
300.322
300.32
300.318
300.316
300.313
300.31
300.305
300.3
300.294
300.287
300.281
300.274
300.267
300.26
300.253
300.247
300.241
300.237
300.232
300.229
300.226
300.223
300.221
300.22
300.218
300.217
300.216
300.215
300.214
300.336
300.334
300.333
300.332
300.33
300.329
300.328
300.326
300.324
300.322
300.319
300.316
300.311
300.306
300.3
300.293
300.287
300.28
300.274
300.267
300.26
300.254
300.249
300.245
300.241
300.238
300.235
300.233
300.231
300.23
300.229
300.228
300.227
300.226
300.225
300.341
300.339
300.338
300.337
300.336
300.335
300.333
300.332
300.33
300.328
300.325
300.321
300.317
300.312
300.306
300.3
300.293
300.287
300.28
300.274
300.268
300.262
300.257
300.253
300.25
300.247
300.245
300.243
300.242
300.24
300.239
300.239
300.238
300.238
300.237
300.346
300.345
300.344
300.343
300.342
300.34
300.339
300.337
300.336
300.333
300.331
300.327
300.323
300.317
300.312
300.305
300.299
300.293
300.287
300.281
300.275
300.27
300.265
300.262
300.259
300.256
300.255
300.253
300.252
300.251
300.25
300.25
300.249
300.249
300.249
300.352
300.35
300.349
300.348
300.347
300.346
300.344
300.343
300.341
300.339
300.336
300.333
300.328
300.323
300.317
300.311
300.305
300.299
300.293
300.287
300.282
300.277
300.273
300.27
300.267
300.265
300.264
300.263
300.262
300.261
300.261
300.261
300.26
300.26
300.26
300.357
300.355
300.354
300.353
300.352
300.351
300.35
300.348
300.346
300.344
300.341
300.338
300.334
300.329
300.323
300.317
300.311
300.305
300.299
300.294
300.288
300.284
300.28
300.277
300.275
300.274
300.273
300.272
300.271
300.271
300.271
300.271
300.271
300.271
300.271
300.362
300.36
300.359
300.358
300.357
300.356
300.355
300.353
300.351
300.349
300.347
300.343
300.339
300.334
300.328
300.322
300.317
300.311
300.305
300.3
300.295
300.29
300.287
300.285
300.283
300.282
300.281
300.28
300.28
300.28
300.28
300.28
300.28
300.28
300.281
298.421
298.378
298.329
298.274
298.212
298.142
298.06
297.966
297.871
297.795
297.73
297.661
297.626
297.624
297.673
297.767
297.849
297.903
297.937
297.9
297.836
297.692
298.465
298.447
298.416
298.376
298.329
298.272
298.205
298.14
298.098
298.074
298.056
298.022
297.966
297.857
297.689
297.57
297.532
297.532
297.547
297.58
297.597
297.617
299.767
299.727
299.652
299.541
299.404
299.257
299.116
299.003
298.931
298.904
298.926
298.999
299.117
299.258
299.402
299.535
299.661
299.774
299.865
299.921
299.933
299.897
299.421
299.396
299.362
299.317
299.26
299.191
299.122
299.069
299.042
299.045
299.077
299.15
299.256
299.369
299.445
299.455
299.423
299.365
299.304
299.243
299.189
299.138
299.709
299.722
299.743
299.772
299.809
299.85
299.886
299.913
299.93
299.937
299.94
299.943
299.953
299.978
300.02
300.057
300.066
300.058
300.043
300.027
300.018
300.017
299.91
299.912
299.917
299.928
299.941
299.954
299.962
299.959
299.946
299.924
299.896
299.867
299.844
299.829
299.82
299.813
299.803
299.79
299.775
299.761
299.749
299.742
300.038
300.04
300.042
300.043
300.045
300.047
300.051
300.056
300.057
300.054
300.048
300.041
300.035
300.03
300.027
300.025
300.023
300.02
300.016
300.011
300.006
300.003
300.01
300.006
300.002
299.997
299.993
299.99
299.987
299.984
299.981
299.977
299.973
299.968
299.963
299.959
299.957
299.954
299.952
299.95
299.947
299.944
299.94
299.937
300.04
300.04
300.041
300.041
300.042
300.043
300.044
300.045
300.046
300.047
300.047
300.047
300.046
300.045
300.045
300.044
300.044
300.043
300.042
300.04
300.037
300.035
300.042
300.039
300.037
300.035
300.034
300.034
300.033
300.034
300.034
300.034
300.035
300.035
300.035
300.035
300.034
300.034
300.033
300.032
300.031
300.03
300.028
300.026
300.079
300.078
300.077
300.076
300.076
300.077
300.077
300.078
300.08
300.081
300.081
300.082
300.082
300.081
300.08
300.078
300.076
300.074
300.072
300.069
300.066
300.062
300.087
300.085
300.083
300.082
300.082
300.082
300.082
300.083
300.084
300.085
300.086
300.087
300.087
300.086
300.085
300.084
300.082
300.08
300.078
300.075
300.072
300.068
300.115
300.113
300.111
300.111
300.111
300.111
300.112
300.113
300.114
300.116
300.117
300.117
300.117
300.117
300.116
300.114
300.111
300.108
300.104
300.101
300.096
300.092
300.123
300.121
300.12
300.119
300.119
300.12
300.121
300.123
300.125
300.127
300.13
300.132
300.133
300.134
300.134
300.133
300.131
300.128
300.125
300.121
300.117
300.113
300.141
300.14
300.139
300.138
300.138
300.139
300.14
300.143
300.146
300.149
300.153
300.156
300.16
300.162
300.163
300.163
300.162
300.16
300.156
300.152
300.147
300.14
300.15
300.148
300.147
300.147
300.147
300.147
300.149
300.151
300.155
300.159
300.163
300.168
300.173
300.177
300.18
300.182
300.182
300.182
300.18
300.176
300.172
300.167
300.16
300.159
300.158
300.157
300.157
300.157
300.158
300.16
300.163
300.166
300.171
300.175
300.181
300.185
300.19
300.193
300.196
300.197
300.197
300.196
300.193
300.19
300.166
300.164
300.163
300.162
300.161
300.161
300.162
300.163
300.165
300.168
300.172
300.177
300.182
300.187
300.192
300.197
300.201
300.204
300.207
300.208
300.208
300.206
300.171
300.17
300.168
300.167
300.166
300.165
300.165
300.166
300.167
300.169
300.173
300.177
300.181
300.186
300.192
300.197
300.202
300.206
300.21
300.213
300.215
300.216
300.177
300.175
300.173
300.172
300.17
300.169
300.169
300.169
300.169
300.171
300.173
300.176
300.18
300.185
300.19
300.195
300.2
300.205
300.209
300.213
300.217
300.22
300.184
300.182
300.18
300.178
300.176
300.174
300.173
300.172
300.172
300.173
300.174
300.176
300.179
300.183
300.187
300.192
300.197
300.202
300.207
300.212
300.216
300.22
300.193
300.19
300.187
300.185
300.183
300.181
300.179
300.178
300.177
300.177
300.177
300.178
300.18
300.183
300.186
300.19
300.195
300.199
300.204
300.209
300.214
300.218
300.202
300.199
300.196
300.194
300.191
300.189
300.187
300.185
300.183
300.182
300.182
300.182
300.183
300.185
300.187
300.19
300.194
300.198
300.202
300.206
300.211
300.215
300.212
300.209
300.206
300.203
300.201
300.198
300.195
300.193
300.191
300.19
300.189
300.188
300.188
300.189
300.19
300.192
300.195
300.198
300.202
300.206
300.21
300.214
300.224
300.22
300.217
300.214
300.211
300.208
300.206
300.203
300.201
300.199
300.197
300.196
300.195
300.195
300.195
300.196
300.198
300.2
300.203
300.206
300.21
300.213
300.235
300.232
300.229
300.226
300.223
300.22
300.217
300.214
300.211
300.209
300.207
300.205
300.204
300.203
300.203
300.203
300.204
300.205
300.206
300.209
300.211
300.214
300.247
300.244
300.241
300.238
300.235
300.232
300.228
300.225
300.223
300.22
300.217
300.215
300.213
300.212
300.211
300.211
300.211
300.211
300.212
300.214
300.215
300.217
300.259
300.256
300.253
300.25
300.247
300.244
300.241
300.237
300.234
300.232
300.229
300.226
300.224
300.222
300.221
300.22
300.219
300.219
300.22
300.22
300.221
300.223
300.27
300.267
300.264
300.261
300.259
300.256
300.253
300.25
300.246
300.244
300.241
300.238
300.235
300.233
300.232
300.23
300.229
300.228
300.228
300.228
300.229
300.229
300.28
300.277
300.275
300.272
300.27
300.267
300.264
300.261
300.258
300.255
300.252
300.25
300.247
300.245
300.243
300.241
300.239
300.238
300.237
300.237
300.237
300.237
297.498
297.262
296.949
296.528
296.433
296.673
297.607
297.617
297.549
297.313
297.315
297.458
299.836
299.775
299.741
299.681
299.61
299.668
299.087
299.05
299.033
299.009
298.973
298.979
300.033
300.071
300.122
300.172
300.206
300.228
299.741
299.75
299.768
299.789
299.807
299.819
300.004
300.012
300.026
300.043
300.061
300.074
299.934
299.933
299.934
299.937
299.941
299.943
300.033
300.032
300.031
300.03
300.029
300.028
300.024
300.021
300.018
300.014
300.01
300.005
300.059
300.055
300.051
300.045
300.04
300.034
300.065
300.061
300.056
300.051
300.046
300.04
300.088
300.083
300.079
300.074
300.067
300.061
300.108
300.104
300.099
300.093
300.087
300.081
300.135
300.129
300.124
300.118
300.112
300.106
300.162
300.157
300.152
300.146
300.14
300.135
300.186
300.183
300.179
300.174
300.169
300.165
300.205
300.203
300.201
300.198
300.195
300.191
300.217
300.217
300.217
300.216
300.214
300.212
300.222
300.224
300.226
300.226
300.226
300.226
300.223
300.226
300.229
300.231
300.233
300.234
300.222
300.226
300.23
300.233
300.235
300.238
300.22
300.224
300.229
300.232
300.236
300.239
300.218
300.223
300.227
300.231
300.235
300.239
300.218
300.222
300.227
300.231
300.235
300.239
300.218
300.223
300.227
300.232
300.236
300.24
300.221
300.225
300.23
300.234
300.238
300.243
300.225
300.23
300.234
300.238
300.243
300.247
300.232
300.236
300.24
300.244
300.248
300.252
300.239
300.243
300.247
300.251
300.255
300.259
296.967
297.289
297.638
297.952
298.199
298.338
298.417
298.447
298.454
298.434
298.385
298.328
298.277
298.234
298.218
298.221
298.244
298.279
298.317
298.356
298.394
298.43
297.696
297.92
298.111
298.278
298.409
298.524
298.663
298.832
298.958
299
298.954
298.832
298.669
298.506
298.384
298.343
298.333
298.345
298.372
298.402
298.433
298.462
299.786
299.883
299.934
299.925
299.876
299.806
299.725
299.635
299.527
299.394
299.244
299.115
299.016
298.965
298.954
298.981
299.038
299.113
299.196
299.277
299.348
299.407
299.018
299.076
299.131
299.17
299.194
299.21
299.219
299.265
299.345
299.412
299.418
299.369
299.291
299.215
299.159
299.136
299.138
299.166
299.209
299.26
299.317
299.38
300.231
300.231
300.224
300.212
300.193
300.171
300.145
300.107
300.067
300.041
300.03
300.013
299.984
299.948
299.916
299.885
299.85
299.807
299.757
299.704
299.654
299.61
299.822
299.819
299.808
299.791
299.77
299.745
299.72
299.697
299.678
299.668
299.667
299.672
299.68
299.689
299.698
299.706
299.713
299.72
299.728
299.738
299.751
299.77
300.08
300.083
300.08
300.074
300.063
300.051
300.039
300.027
300.017
300.01
300.007
300.005
300.003
300.001
299.997
299.994
299.993
299.993
299.997
300.004
300.014
300.023
299.945
299.943
299.94
299.934
299.927
299.919
299.91
299.903
299.897
299.893
299.891
299.89
299.889
299.889
299.889
299.892
299.896
299.902
299.911
299.922
299.934
299.947
300.027
300.024
300.021
300.016
300.01
300.005
299.999
299.995
299.992
299.99
299.99
299.99
299.992
299.995
300
300.007
300.015
300.025
300.035
300.046
300.058
300.069
300.001
299.996
299.991
299.985
299.98
299.975
299.971
299.968
299.965
299.964
299.963
299.965
299.968
299.972
299.979
299.987
299.996
300.006
300.017
300.027
300.038
300.047
300.028
300.024
300.02
300.015
300.012
300.009
300.006
300.005
300.004
300.005
300.007
300.011
300.016
300.023
300.03
300.039
300.048
300.058
300.067
300.076
300.084
300.091
300.036
300.032
300.029
300.026
300.023
300.021
300.019
300.018
300.019
300.02
300.023
300.027
300.033
300.039
300.046
300.053
300.061
300.068
300.075
300.081
300.087
300.092
300.056
300.053
300.049
300.046
300.044
300.043
300.043
300.044
300.046
300.05
300.055
300.061
300.068
300.074
300.081
300.087
300.092
300.097
300.101
300.105
300.109
300.112
300.077
300.074
300.072
300.07
300.069
300.069
300.07
300.072
300.075
300.078
300.083
300.088
300.093
300.098
300.102
300.106
300.11
300.113
300.116
300.118
300.121
300.123
300.102
300.1
300.099
300.099
300.099
300.099
300.101
300.102
300.105
300.108
300.112
300.116
300.119
300.123
300.126
300.129
300.132
300.134
300.136
300.138
300.14
300.142
300.132
300.131
300.13
300.13
300.131
300.131
300.133
300.134
300.137
300.139
300.141
300.144
300.147
300.149
300.151
300.153
300.154
300.156
300.157
300.158
300.159
300.159
300.162
300.162
300.162
300.162
300.162
300.163
300.164
300.166
300.167
300.169
300.171
300.172
300.174
300.175
300.176
300.177
300.178
300.179
300.179
300.179
300.18
300.18
300.189
300.189
300.19
300.19
300.191
300.192
300.193
300.194
300.195
300.196
300.197
300.198
300.199
300.199
300.199
300.2
300.2
300.199
300.199
300.199
300.199
300.199
300.211
300.211
300.212
300.213
300.214
300.215
300.215
300.216
300.217
300.218
300.219
300.219
300.219
300.219
300.219
300.219
300.219
300.218
300.218
300.217
300.217
300.216
300.226
300.227
300.228
300.229
300.23
300.231
300.232
300.233
300.234
300.235
300.235
300.236
300.236
300.235
300.235
300.235
300.234
300.234
300.233
300.232
300.231
300.231
300.235
300.236
300.238
300.239
300.241
300.242
300.243
300.245
300.246
300.247
300.247
300.248
300.248
300.248
300.248
300.247
300.247
300.246
300.245
300.244
300.243
300.242
300.239
300.241
300.243
300.245
300.247
300.249
300.25
300.252
300.254
300.255
300.256
300.257
300.257
300.258
300.257
300.257
300.256
300.256
300.255
300.254
300.253
300.252
300.241
300.244
300.246
300.248
300.251
300.253
300.255
300.257
300.259
300.261
300.263
300.264
300.265
300.265
300.265
300.265
300.265
300.264
300.263
300.263
300.262
300.261
300.242
300.245
300.248
300.251
300.253
300.256
300.259
300.262
300.264
300.267
300.269
300.27
300.271
300.272
300.272
300.272
300.272
300.271
300.271
300.27
300.27
300.27
300.243
300.246
300.249
300.253
300.256
300.26
300.263
300.266
300.269
300.272
300.274
300.276
300.277
300.278
300.279
300.279
300.279
300.278
300.278
300.278
300.278
300.277
300.244
300.248
300.252
300.256
300.26
300.264
300.267
300.271
300.274
300.277
300.28
300.282
300.283
300.284
300.285
300.285
300.285
300.285
300.285
300.285
300.285
300.285
300.247
300.251
300.256
300.26
300.264
300.269
300.273
300.277
300.28
300.283
300.286
300.288
300.29
300.291
300.291
300.292
300.292
300.292
300.292
300.293
300.293
300.293
300.251
300.256
300.261
300.266
300.27
300.275
300.279
300.283
300.287
300.29
300.293
300.295
300.296
300.297
300.298
300.299
300.299
300.299
300.3
300.3
300.301
300.301
300.257
300.262
300.267
300.272
300.277
300.282
300.286
300.29
300.294
300.297
300.299
300.301
300.303
300.304
300.305
300.306
300.306
300.307
300.307
300.308
300.308
300.309
300.263
300.269
300.274
300.279
300.284
300.289
300.293
300.297
300.301
300.304
300.306
300.309
300.31
300.311
300.312
300.313
300.314
300.314
300.315
300.315
300.316
300.316
298.459
298.481
298.5
298.517
298.535
298.553
298.572
298.594
298.616
298.639
298.66
298.677
298.687
298.689
298.673
298.664
298.663
298.675
298.705
298.756
298.83
298.891
298.882
298.811
298.709
298.595
298.482
298.376
298.279
298.19
298.108
298.032
297.959
297.882
297.847
298.475
298.484
298.494
298.506
298.52
298.535
298.55
298.563
298.573
298.581
298.587
298.592
298.602
298.629
298.675
298.736
298.829
298.973
299.165
299.384
299.584
299.697
299.627
299.364
299.014
298.734
298.538
298.399
298.298
298.225
298.176
298.144
298.126
298.114
298.059
299.444
299.468
299.49
299.507
299.516
299.516
299.505
299.478
299.435
299.373
299.292
299.197
299.094
298.993
298.894
298.8
298.71
298.627
298.552
298.535
298.605
298.84
299.188
299.384
299.5
299.593
299.684
299.76
299.817
299.857
299.887
299.912
299.937
299.971
300.034
299.436
299.484
299.54
299.605
299.675
299.747
299.815
299.876
299.927
299.967
299.997
300.02
300.035
300.041
300.031
299.961
299.829
299.642
299.443
299.291
299.179
299.153
299.19
299.249
299.306
299.359
299.385
299.405
299.425
299.445
299.464
299.483
299.505
299.53
299.59
299.58
299.558
299.54
299.525
299.516
299.514
299.516
299.522
299.528
299.529
299.527
299.527
299.528
299.526
299.514
299.476
299.461
299.454
299.464
299.519
299.599
299.673
299.731
299.812
299.912
300.017
300.119
300.217
300.306
300.384
300.453
300.514
300.569
300.618
300.664
299.788
299.803
299.82
299.839
299.859
299.879
299.9
299.923
299.95
299.982
300.019
300.056
300.091
300.114
300.123
300.123
300.112
300.092
300.07
300.051
300.043
300.057
300.077
300.104
300.135
300.17
300.21
300.25
300.289
300.325
300.359
300.39
300.418
300.446
300.473
300.027
300.029
300.029
300.029
300.03
300.031
300.033
300.035
300.039
300.045
300.053
300.062
300.07
300.074
300.075
300.073
300.071
300.069
300.067
300.068
300.072
300.08
300.089
300.098
300.107
300.115
300.122
300.128
300.132
300.135
300.136
300.136
300.135
300.133
300.134
299.958
299.966
299.976
299.986
299.998
300.011
300.026
300.042
300.059
300.077
300.093
300.107
300.117
300.127
300.137
300.149
300.161
300.173
300.186
300.199
300.212
300.225
300.238
300.249
300.259
300.268
300.275
300.282
300.288
300.293
300.298
300.302
300.305
300.308
300.307
300.077
300.083
300.089
300.095
300.102
300.109
300.117
300.124
300.132
300.138
300.143
300.146
300.149
300.153
300.156
300.159
300.162
300.165
300.169
300.172
300.176
300.179
300.182
300.183
300.183
300.182
300.181
300.178
300.175
300.172
300.168
300.164
300.16
300.156
300.154
300.055
300.06
300.066
300.072
300.079
300.086
300.094
300.101
300.109
300.117
300.125
300.132
300.139
300.146
300.153
300.161
300.17
300.18
300.19
300.2
300.211
300.221
300.231
300.24
300.248
300.256
300.262
300.269
300.275
300.281
300.286
300.292
300.297
300.302
300.307
300.097
300.1
300.104
300.108
300.112
300.116
300.12
300.124
300.128
300.132
300.136
300.14
300.145
300.149
300.155
300.161
300.167
300.174
300.18
300.187
300.193
300.199
300.204
300.208
300.211
300.213
300.214
300.214
300.214
300.213
300.212
300.211
300.21
300.208
300.208
300.096
300.098
300.101
300.104
300.107
300.11
300.113
300.117
300.121
300.125
300.13
300.135
300.14
300.146
300.152
300.16
300.169
300.177
300.187
300.196
300.205
300.214
300.223
300.23
300.237
300.243
300.248
300.253
300.257
300.261
300.265
300.269
300.273
300.277
300.282
300.114
300.115
300.117
300.118
300.12
300.122
300.124
300.126
300.129
300.131
300.135
300.138
300.142
300.148
300.155
300.162
300.169
300.177
300.185
300.193
300.201
300.209
300.216
300.222
300.226
300.23
300.232
300.234
300.235
300.236
300.237
300.237
300.238
300.238
300.239
300.124
300.124
300.125
300.126
300.127
300.128
300.129
300.131
300.133
300.135
300.138
300.141
300.146
300.151
300.158
300.165
300.174
300.183
300.192
300.201
300.21
300.219
300.227
300.234
300.24
300.244
300.248
300.252
300.255
300.258
300.261
300.263
300.266
300.269
300.273
300.143
300.143
300.143
300.143
300.143
300.143
300.143
300.143
300.144
300.145
300.147
300.149
300.153
300.158
300.164
300.171
300.179
300.188
300.197
300.205
300.214
300.223
300.23
300.236
300.241
300.244
300.247
300.25
300.252
300.254
300.255
300.256
300.258
300.259
300.261
300.159
300.159
300.158
300.157
300.157
300.156
300.156
300.156
300.156
300.156
300.158
300.16
300.163
300.167
300.173
300.18
300.187
300.196
300.205
300.214
300.223
300.232
300.24
300.246
300.252
300.257
300.26
300.263
300.266
300.268
300.27
300.272
300.274
300.276
300.279
300.18
300.178
300.177
300.176
300.175
300.174
300.173
300.172
300.171
300.171
300.171
300.172
300.175
300.178
300.183
300.19
300.197
300.205
300.214
300.223
300.231
300.24
300.247
300.253
300.258
300.262
300.265
300.268
300.27
300.272
300.273
300.274
300.275
300.276
300.278
300.198
300.197
300.195
300.194
300.192
300.191
300.189
300.188
300.187
300.186
300.186
300.186
300.188
300.191
300.195
300.201
300.208
300.216
300.224
300.232
300.24
300.248
300.255
300.261
300.266
300.27
300.273
300.276
300.278
300.281
300.283
300.285
300.287
300.289
300.291
300.215
300.214
300.212
300.21
300.208
300.207
300.205
300.203
300.201
300.2
300.2
300.2
300.201
300.203
300.207
300.213
300.22
300.227
300.234
300.242
300.25
300.257
300.264
300.27
300.274
300.278
300.281
300.284
300.286
300.288
300.289
300.291
300.292
300.293
300.295
300.23
300.228
300.226
300.224
300.222
300.22
300.218
300.216
300.215
300.213
300.213
300.213
300.214
300.216
300.22
300.225
300.231
300.238
300.245
300.252
300.259
300.267
300.273
300.278
300.282
300.286
300.289
300.291
300.293
300.295
300.297
300.298
300.299
300.301
300.303
300.241
300.24
300.238
300.236
300.234
300.232
300.23
300.229
300.227
300.226
300.225
300.225
300.226
300.228
300.232
300.237
300.242
300.249
300.255
300.262
300.269
300.275
300.281
300.286
300.29
300.294
300.296
300.299
300.301
300.302
300.304
300.305
300.307
300.308
300.31
300.251
300.25
300.248
300.246
300.245
300.243
300.241
300.24
300.238
300.237
300.236
300.236
300.237
300.239
300.243
300.248
300.253
300.259
300.265
300.272
300.278
300.284
300.29
300.294
300.298
300.301
300.303
300.306
300.307
300.309
300.311
300.312
300.313
300.314
300.316
300.26
300.259
300.257
300.256
300.254
300.253
300.251
300.25
300.248
300.247
300.247
300.247
300.248
300.25
300.254
300.258
300.263
300.269
300.275
300.281
300.286
300.292
300.297
300.301
300.305
300.308
300.31
300.312
300.314
300.316
300.317
300.318
300.32
300.321
300.323
300.269
300.267
300.266
300.265
300.263
300.262
300.26
300.259
300.258
300.257
300.257
300.257
300.258
300.26
300.264
300.268
300.273
300.278
300.283
300.289
300.294
300.299
300.304
300.308
300.311
300.314
300.316
300.318
300.32
300.322
300.323
300.324
300.325
300.326
300.328
300.277
300.276
300.274
300.273
300.272
300.27
300.269
300.268
300.267
300.267
300.266
300.267
300.268
300.27
300.273
300.277
300.282
300.287
300.292
300.296
300.301
300.306
300.311
300.314
300.317
300.32
300.322
300.324
300.326
300.327
300.328
300.33
300.331
300.332
300.334
300.285
300.284
300.282
300.281
300.28
300.279
300.278
300.277
300.276
300.276
300.276
300.276
300.277
300.279
300.282
300.286
300.29
300.294
300.299
300.303
300.308
300.312
300.317
300.32
300.323
300.326
300.328
300.329
300.331
300.332
300.333
300.335
300.336
300.337
300.338
300.293
300.292
300.291
300.29
300.288
300.287
300.286
300.285
300.285
300.284
300.284
300.284
300.286
300.287
300.29
300.293
300.297
300.301
300.306
300.31
300.314
300.318
300.322
300.325
300.328
300.331
300.333
300.334
300.336
300.337
300.338
300.339
300.34
300.342
300.343
300.301
300.3
300.299
300.298
300.296
300.295
300.294
300.293
300.293
300.292
300.292
300.292
300.293
300.295
300.297
300.301
300.304
300.308
300.312
300.316
300.319
300.323
300.327
300.33
300.333
300.335
300.337
300.339
300.34
300.342
300.343
300.344
300.345
300.346
300.347
300.308
300.308
300.306
300.305
300.304
300.303
300.302
300.301
300.3
300.3
300.3
300.3
300.301
300.302
300.304
300.307
300.31
300.314
300.317
300.321
300.325
300.328
300.332
300.335
300.337
300.34
300.341
300.343
300.344
300.346
300.347
300.348
300.349
300.35
300.351
300.316
300.315
300.314
300.313
300.311
300.31
300.309
300.308
300.307
300.307
300.307
300.307
300.307
300.309
300.31
300.313
300.316
300.319
300.322
300.326
300.329
300.333
300.336
300.339
300.342
300.344
300.345
300.347
300.348
300.35
300.351
300.352
300.353
300.354
300.355
300.367
300.366
300.365
300.364
300.363
300.361
300.36
300.359
300.357
300.355
300.352
300.349
300.345
300.34
300.334
300.328
300.322
300.317
300.311
300.306
300.301
300.297
300.294
300.292
300.291
300.289
300.289
300.289
300.288
300.289
300.289
300.289
300.289
300.29
300.29
300.372
300.371
300.37
300.369
300.368
300.367
300.366
300.364
300.363
300.36
300.358
300.355
300.35
300.345
300.34
300.334
300.328
300.323
300.317
300.312
300.308
300.304
300.301
300.299
300.298
300.297
300.297
300.296
300.296
300.297
300.297
300.297
300.298
300.298
300.299
300.378
300.376
300.375
300.374
300.373
300.372
300.371
300.37
300.368
300.366
300.363
300.36
300.356
300.351
300.345
300.34
300.334
300.328
300.323
300.318
300.314
300.31
300.307
300.305
300.304
300.303
300.303
300.303
300.303
300.303
300.303
300.304
300.304
300.305
300.305
300.382
300.381
300.38
300.379
300.378
300.377
300.376
300.375
300.373
300.371
300.368