/*--------------------------------*- C++ -*----------------------------------*\
  =========                 |
  \\      /  F ield         | OpenFOAM: The Open Source CFD Toolbox
   \\    /   O peration     | Website:  https://openfoam.org
    \\  /    A nd           | Version:  8
     \\/     M anipulation  |
\*---------------------------------------------------------------------------*/
FoamFile
{
    version     2.0;
    format      ascii;
    class       volVectorField;
    location    "0.39";
    object      U;
}
// * * * * * * * * * * * * * * * * * * * * * * * * * * * * * * * * * * * * * //

dimensions      [0 1 -1 0 0 0 0];

internalField   nonuniform List<vector> 
15677
(
(0.0451209 -78.8102 0)
(-0.20393 -81.7939 0)
(-0.121263 -78.2848 0)
(-0.188935 -74.6268 0)
(-0.227046 -71.0848 0)
(-0.298138 -67.7885 0)
(-0.38901 -64.8548 0)
(-0.480641 -62.2992 0)
(-0.530645 -60.0471 0)
(-0.475656 -57.9224 0)
(-0.151137 -55.5394 0)
(0.665461 -51.9253 0)
(2.13869 -48.8117 0)
(4.24373 -47.2763 0)
(6.37872 -47.3991 0)
(8.15878 -48.7391 0)
(9.4768 -51.1607 0)
(10.4012 -53.7744 0)
(10.9058 -55.4773 0)
(11.1467 -56.4515 0)
(11.112 -56.853 0)
(10.9016 -56.8176 0)
(10.6038 -56.4212 0)
(10.2177 -55.8702 0)
(9.75677 -55.4201 0)
(9.26661 -55.1517 0)
(8.80833 -54.9905 0)
(8.39095 -54.856 0)
(8.01586 -54.7594 0)
(7.68312 -54.7091 0)
(7.38954 -54.7077 0)
(7.13344 -54.7545 0)
(6.9124 -54.8486 0)
(6.72054 -54.9967 0)
(6.52333 -55.2273 0)
(-1.0121 78.6334 0)
(-3.0667 78.2739 0)
(-5.45664 75.7476 0)
(-8.07554 73.1687 0)
(-10.9094 70.5187 0)
(-13.862 67.7228 0)
(-16.8512 64.6666 0)
(-19.7427 61.1929 0)
(-22.3367 57.0436 0)
(-24.3567 51.5819 0)
(-25.353 43.6409 0)
(-24.8106 33.5305 0)
(-22.4374 25.1193 0)
(-18.5683 21.9595 0)
(-13.993 24.1774 0)
(-9.80224 29.3686 0)
(-5.77909 36.1632 0)
(-2.30437 42.817 0)
(0.846749 47.7936 0)
(3.69609 51.6172 0)
(6.41921 54.3253 0)
(8.9407 55.9944 0)
(11.0902 57.2324 0)
(12.9687 58.542 0)
(14.5213 59.8995 0)
(15.7076 60.7137 0)
(16.5801 61.1856 0)
(17.1485 61.4904 0)
(17.4592 61.7371 0)
(17.5528 61.9472 0)
(17.4724 62.1459 0)
(17.2666 62.3441 0)
(16.9809 62.5304 0)
(16.6517 62.677 0)
(16.2859 62.748 0)
(-0.0569322 44.1066 0)
(-0.0115218 41.8587 0)
(0.122043 39.0857 0)
(0.320296 35.7195 0)
(0.551711 31.5627 0)
(0.793046 26.2998 0)
(1.03239 19.5942 0)
(1.23378 11.0447 0)
(1.35023 0.181494 0)
(1.3028 -13.3318 0)
(1.08314 -28.9613 0)
(-0.00899287 -43.2735 0)
(-2.48089 -53.2083 0)
(-6.43761 -58.9109 0)
(-10.8758 -60.4266 0)
(-14.5631 -59.8046 0)
(-17.2997 -58.3911 0)
(-18.8339 -57.1032 0)
(-19.2341 -55.8833 0)
(-18.6045 -54.9558 0)
(-17.1338 -54.2419 0)
(-15.2827 -53.4087 0)
(-13.4051 -52.4229 0)
(-11.6331 -51.063 0)
(-10.0067 -49.0171 0)
(-8.57023 -46.0877 0)
(-7.37565 -42.8745 0)
(-6.36687 -39.637 0)
(-5.53716 -36.4332 0)
(-4.83398 -33.2271 0)
(-4.21409 -30.3731 0)
(-3.65738 -28.0746 0)
(-3.15723 -26.4021 0)
(-2.68107 -25.3498 0)
(-2.20417 -24.8635 0)
(0.657155 49.8336 0)
(1.72278 50.9806 0)
(2.8449 49.9177 0)
(4.04024 48.2683 0)
(5.34689 46.2114 0)
(6.76238 43.8461 0)
(8.28045 41.2176 0)
(9.85286 38.4117 0)
(11.3892 35.6215 0)
(12.7326 33.4953 0)
(13.5243 33.1837 0)
(13.2467 34.9248 0)
(12.1312 36.6039 0)
(10.5773 38.0609 0)
(9.12368 38.3937 0)
(7.99631 37.0215 0)
(7.27239 33.7544 0)
(6.96974 28.8867 0)
(6.97499 23.2822 0)
(7.21797 18.3236 0)
(7.65288 14.7503 0)
(8.15088 12.9388 0)
(8.65863 13.214 0)
(9.14634 14.6947 0)
(9.63623 17.1113 0)
(10.1411 20.1046 0)
(10.6733 23.2491 0)
(11.2287 26.2032 0)
(11.8533 28.6355 0)
(12.5256 30.247 0)
(13.2562 31.183 0)
(14.0257 31.6521 0)
(14.7965 31.9232 0)
(15.5325 32.083 0)
(16.1858 32.1377 0)
(0.333239 16.8101 0)
(0.720768 16.561 0)
(1.24911 14.9169 0)
(1.81729 12.9471 0)
(2.43304 10.566 0)
(3.07591 7.69058 0)
(3.73328 4.22378 0)
(4.37966 0.0524846 0)
(4.98106 -4.94131 0)
(5.5605 -10.6987 0)
(6.17758 -16.7903 0)
(7.05335 -22.3843 0)
(8.12872 -27.4455 0)
(9.43002 -31.8873 0)
(10.8711 -34.2732 0)
(12.1096 -35.6155 0)
(13.0092 -36.4793 0)
(13.3475 -36.961 0)
(13.0053 -37.1486 0)
(11.9531 -37.1345 0)
(10.3773 -37.0022 0)
(8.45854 -36.7078 0)
(6.69072 -36.3903 0)
(5.17274 -36.0676 0)
(3.99602 -35.7138 0)
(3.1668 -35.3157 0)
(2.6604 -34.9553 0)
(2.41118 -34.6832 0)
(2.34779 -34.5408 0)
(2.39283 -34.557 0)
(2.47815 -34.7183 0)
(2.56387 -34.9887 0)
(2.63973 -35.3232 0)
(2.71577 -35.7013 0)
(2.79726 -36.1156 0)
(0.607753 11.7478 0)
(1.78905 17.5138 0)
(3.15336 18.4419 0)
(4.61251 18.4296 0)
(6.20157 17.9602 0)
(7.9127 17.1818 0)
(9.73127 16.2042 0)
(11.6258 15.1653 0)
(13.5265 14.282 0)
(15.3147 13.8266 0)
(16.8038 14.0526 0)
(17.8769 14.2954 0)
(18.6125 14.6004 0)
(19.0067 14.5847 0)
(19.0239 14.4281 0)
(18.8591 14.1357 0)
(18.564 13.7303 0)
(18.1842 13.2723 0)
(17.7625 12.8519 0)
(17.3239 12.5596 0)
(16.8739 12.4599 0)
(16.4525 12.5869 0)
(16.0852 12.8625 0)
(15.7619 13.2017 0)
(15.4902 13.5609 0)
(15.261 13.9628 0)
(15.0678 14.449 0)
(14.8855 15.0535 0)
(14.6992 15.8017 0)
(14.4827 16.6951 0)
(14.2267 17.7002 0)
(13.9136 18.758 0)
(13.5434 19.7892 0)
(13.1179 20.7105 0)
(12.6512 21.5242 0)
(-0.105204 -19.1814 0)
(0.00477873 -19.7178 0)
(0.193783 -19.6192 0)
(0.447277 -19.5004 0)
(0.743026 -19.4421 0)
(1.06497 -19.4819 0)
(1.39409 -19.6388 0)
(1.71457 -19.9189 0)
(2.01489 -20.3063 0)
(2.30162 -20.7377 0)
(2.63545 -21.1289 0)
(3.05303 -21.4091 0)
(3.57503 -21.5739 0)
(4.17629 -21.6663 0)
(4.75569 -21.655 0)
(5.27894 -21.5884 0)
(5.72443 -21.4839 0)
(6.09444 -21.3668 0)
(6.36237 -21.2297 0)
(6.52521 -21.0646 0)
(6.57182 -20.9101 0)
(6.51149 -20.8165 0)
(6.37365 -20.8071 0)
(6.16492 -20.8734 0)
(5.89198 -20.9911 0)
(5.56937 -21.1203 0)
(5.22222 -21.2023 0)
(4.885 -21.173 0)
(4.5767 -20.973 0)
(4.32185 -20.5303 0)
(4.1363 -19.819 0)
(4.02226 -18.8291 0)
(3.97699 -17.5934 0)
(3.98567 -16.1618 0)
(4.00392 -14.6504 0)
(0.120659 4.68616 0)
(0.349498 3.84551 0)
(0.620602 3.33987 0)
(0.912623 2.96963 0)
(1.23679 2.63749 0)
(1.59175 2.31707 0)
(1.97681 2.00076 0)
(2.38652 1.68704 0)
(2.81359 1.37648 0)
(3.24837 1.06828 0)
(3.68038 0.795861 0)
(4.10895 0.590061 0)
(4.5272 0.492826 0)
(4.93409 0.53671 0)
(5.26781 0.669441 0)
(5.49397 0.817985 0)
(5.653 0.957705 0)
(5.74903 1.13623 0)
(5.80899 1.44674 0)
(5.84099 1.94957 0)
(5.84014 2.69434 0)
(5.77592 3.6936 0)
(5.63038 4.91041 0)
(5.40162 6.30467 0)
(5.09034 7.80528 0)
(4.69235 9.31926 0)
(4.1833 10.7426 0)
(3.59824 11.9778 0)
(2.97742 13.0334 0)
(2.33284 13.8928 0)
(1.6833 14.5724 0)
(1.06601 15.0918 0)
(0.489909 15.4294 0)
(-0.0341875 15.5933 0)
(-0.489639 15.6605 0)
(0.034887 -19.4636 0)
(0.130512 -20.0567 0)
(0.252161 -19.9382 0)
(0.399909 -19.7099 0)
(0.57449 -19.4421 0)
(0.773571 -19.1506 0)
(0.994036 -18.8412 0)
(1.23268 -18.5166 0)
(1.48465 -18.1787 0)
(1.74172 -17.8299 0)
(1.99191 -17.4564 0)
(2.21711 -17.0449 0)
(2.40463 -16.5857 0)
(2.53628 -16.0638 0)
(2.60307 -15.5076 0)
(2.61494 -14.9738 0)
(2.54511 -14.4877 0)
(2.37182 -14.0785 0)
(2.09778 -13.7369 0)
(1.73856 -13.3819 0)
(1.29654 -12.9536 0)
(0.812582 -12.4659 0)
(0.359216 -11.9494 0)
(-0.0276677 -11.3893 0)
(-0.321064 -10.7717 0)
(-0.487975 -9.97695 0)
(-0.511238 -8.87309 0)
(-0.475843 -7.4375 0)
(-0.444764 -5.93144 0)
(-0.395477 -4.51572 0)
(-0.320632 -3.23461 0)
(-0.230915 -2.09889 0)
(-0.135361 -1.1333 0)
(-0.0354967 -0.357587 0)
(0.067483 0.291834 0)
(0.036357 -5.04494 0)
(0.0991629 -6.0294 0)
(0.161365 -6.43258 0)
(0.221568 -6.69112 0)
(0.285589 -6.88779 0)
(0.357924 -7.04589 0)
(0.44192 -7.17032 0)
(0.542231 -7.25858 0)
(0.662972 -7.3011 0)
(0.804976 -7.26807 0)
(0.968405 -7.1344 0)
(1.15396 -6.89183 0)
(1.35599 -6.53474 0)
(1.56549 -6.04064 0)
(1.72822 -5.44245 0)
(1.83171 -4.78459 0)
(1.89691 -4.02873 0)
(1.90957 -3.19493 0)
(1.84257 -2.30158 0)
(1.68379 -1.2859 0)
(1.4284 -0.0630013 0)
(1.08307 1.32837 0)
(0.666556 2.7444 0)
(0.16826 4.1044 0)
(-0.377924 5.31798 0)
(-0.921282 6.34879 0)
(-1.45337 7.21228 0)
(-1.91886 7.90012 0)
(-2.28496 8.47765 0)
(-2.57592 8.98905 0)
(-2.81533 9.45241 0)
(-3.01785 9.87286 0)
(-3.19146 10.2535 0)
(-3.35277 10.5977 0)
(-3.50536 10.9071 0)
(0.011736 -16.4853 0)
(0.05652 -17.0855 0)
(0.106351 -17.0493 0)
(0.171077 -16.8995 0)
(0.244025 -16.701 0)
(0.322392 -16.471 0)
(0.401488 -16.212 0)
(0.477802 -15.926 0)
(0.543542 -15.6041 0)
(0.593863 -15.2268 0)
(0.625556 -14.7825 0)
(0.629452 -14.2566 0)
(0.592777 -13.623 0)
(0.502667 -12.8534 0)
(0.372165 -12.0397 0)
(0.209235 -11.2799 0)
(0.00229249 -10.5282 0)
(-0.230231 -9.72982 0)
(-0.505128 -8.87286 0)
(-0.82911 -7.95147 0)
(-1.18621 -6.96158 0)
(-1.52284 -5.93686 0)
(-1.78791 -4.93515 0)
(-1.90171 -3.94227 0)
(-1.94907 -2.84934 0)
(-2.02842 -1.67657 0)
(-2.10727 -0.53185 0)
(-2.17436 0.523745 0)
(-2.23356 1.46497 0)
(-2.28518 2.3044 0)
(-2.32765 3.06919 0)
(-2.36298 3.76352 0)
(-2.39159 4.39372 0)
(-2.41103 4.96565 0)
(-2.42316 5.48494 0)
(0.00909343 -9.75672 0)
(0.0199579 -10.6017 0)
(0.0269895 -10.869 0)
(0.0281256 -10.984 0)
(0.0263093 -11.0239 0)
(0.0248126 -11.0059 0)
(0.0257547 -10.94 0)
(0.0284068 -10.828 0)
(0.032526 -10.6624 0)
(0.0374181 -10.4283 0)
(0.045652 -10.1042 0)
(0.0508076 -9.6682 0)
(0.0532785 -9.09892 0)
(0.0562523 -8.37488 0)
(0.0424054 -7.53209 0)
(0.000993468 -6.63045 0)
(-0.076368 -5.68328 0)
(-0.199411 -4.6657 0)
(-0.358237 -3.5289 0)
(-0.555111 -2.27977 0)
(-0.79263 -0.92971 0)
(-1.0693 0.441236 0)
(-1.41409 1.72332 0)
(-1.80505 2.8758 0)
(-2.15119 3.87285 0)
(-2.43465 4.77449 0)
(-2.67595 5.60767 0)
(-2.88774 6.37875 0)
(-3.0783 7.0906 0)
(-3.25499 7.74471 0)
(-3.4192 8.34493 0)
(-3.57236 8.89289 0)
(-3.71507 9.39163 0)
(-3.85137 9.84492 0)
(-3.98086 10.2573 0)
(0.0066065 -14.4363 0)
(0.00422926 -15.0747 0)
(0.0144379 -15.097 0)
(0.0237143 -15.0054 0)
(0.0336829 -14.8648 0)
(0.0423731 -14.6801 0)
(0.0456704 -14.4504 0)
(0.0409991 -14.169 0)
(0.0257277 -13.8303 0)
(-0.00478738 -13.4281 0)
(-0.0540241 -12.9434 0)
(-0.122004 -12.3611 0)
(-0.216833 -11.67 0)
(-0.345318 -10.8416 0)
(-0.495405 -9.93606 0)
(-0.652292 -9.01034 0)
(-0.826903 -8.03401 0)
(-1.02687 -7.01005 0)
(-1.24841 -5.93279 0)
(-1.48284 -4.79305 0)
(-1.72266 -3.57907 0)
(-1.94015 -2.3333 0)
(-2.07431 -1.11247 0)
(-2.19532 0.0982085 0)
(-2.34476 1.25998 0)
(-2.48494 2.34731 0)
(-2.6139 3.3542 0)
(-2.73049 4.28175 0)
(-2.83469 5.13362 0)
(-2.92729 5.91462 0)
(-3.00879 6.63026 0)
(-3.08104 7.28789 0)
(-3.14551 7.89296 0)
(-3.19983 8.44877 0)
(-3.24626 8.95877 0)
(-0.00324956 -11.5212 0)
(-0.0152597 -12.1926 0)
(-0.0312428 -12.3624 0)
(-0.0550133 -12.3932 0)
(-0.0838571 -12.3437 0)
(-0.115892 -12.239 0)
(-0.153394 -12.0848 0)
(-0.194234 -11.8809 0)
(-0.238803 -11.6242 0)
(-0.288253 -11.3035 0)
(-0.342421 -10.902 0)
(-0.401377 -10.3961 0)
(-0.466913 -9.75669 0)
(-0.542033 -8.9489 0)
(-0.630162 -8.02341 0)
(-0.730706 -7.04732 0)
(-0.845292 -5.99675 0)
(-0.975933 -4.87042 0)
(-1.12481 -3.66675 0)
(-1.2933 -2.38637 0)
(-1.47874 -1.03292 0)
(-1.70215 0.319597 0)
(-1.93602 1.58064 0)
(-2.13561 2.72587 0)
(-2.30809 3.79009 0)
(-2.46444 4.78096 0)
(-2.60733 5.70219 0)
(-2.73875 6.55647 0)
(-2.86024 7.34635 0)
(-2.97279 8.07452 0)
(-3.07652 8.744 0)
(-3.17206 9.35926 0)
(-3.25973 9.92312 0)
(-3.34008 10.4375 0)
(-3.41087 10.9022 0)
(-0.0028363 -13.164 0)
(-0.0213023 -13.7908 0)
(-0.0338385 -13.8383 0)
(-0.0514441 -13.771 0)
(-0.0713281 -13.6472 0)
(-0.0952503 -13.4756 0)
(-0.124672 -13.2561 0)
(-0.161241 -12.9845 0)
(-0.205885 -12.6553 0)
(-0.261388 -12.2588 0)
(-0.330674 -11.7817 0)
(-0.416662 -11.206 0)
(-0.522387 -10.5073 0)
(-0.651449 -9.65286 0)
(-0.790358 -8.69896 0)
(-0.928385 -7.70845 0)
(-1.07147 -6.65476 0)
(-1.22029 -5.53715 0)
(-1.37483 -4.35472 0)
(-1.53408 -3.10587 0)
(-1.70029 -1.78657 0)
(-1.83161 -0.449658 0)
(-1.94935 0.842658 0)
(-2.07745 2.06294 0)
(-2.19278 3.20142 0)
(-2.2959 4.25823 0)
(-2.3867 5.23586 0)
(-2.46548 6.13762 0)
(-2.53288 6.96716 0)
(-2.5898 7.72821 0)
(-2.63727 8.42455 0)
(-2.67654 9.05979 0)
(-2.70866 9.63706 0)
(-2.73342 10.1599 0)
(-2.74629 10.6321 0)
(-0.00902588 -11.8728 0)
(-0.0284494 -12.462 0)
(-0.0551479 -12.5748 0)
(-0.088893 -12.5655 0)
(-0.128198 -12.4836 0)
(-0.173004 -12.3508 0)
(-0.223589 -12.1728 0)
(-0.280511 -11.9475 0)
(-0.344297 -11.6655 0)
(-0.415001 -11.3149 0)
(-0.493644 -10.8799 0)
(-0.581326 -10.3404 0)
(-0.679546 -9.67005 0)
(-0.790005 -8.83403 0)
(-0.905329 -7.88416 0)
(-1.01946 -6.88612 0)
(-1.13482 -5.8146 0)
(-1.25171 -4.66983 0)
(-1.37046 -3.45264 0)
(-1.49106 -2.16482 0)
(-1.61283 -0.809765 0)
(-1.74226 0.546744 0)
(-1.85759 1.80988 0)
(-1.94851 2.98659 0)
(-2.02631 4.08021 0)
(-2.09215 5.09362 0)
(-2.14753 6.02944 0)
(-2.19351 6.89024 0)
(-2.23112 7.67923 0)
(-2.26143 8.40002 0)
(-2.28545 9.05648 0)
(-2.30424 9.65265 0)
(-2.31896 10.1927 0)
(-2.33024 10.6809 0)
(-2.3331 11.1213 0)
(-0.00927533 -12.3351 0)
(-0.0312339 -12.9152 0)
(-0.056906 -12.9605 0)
(-0.0869752 -12.8928 0)
(-0.121576 -12.7741 0)
(-0.162858 -12.6116 0)
(-0.211712 -12.4027 0)
(-0.26861 -12.144 0)
(-0.33559 -11.8289 0)
(-0.413936 -11.447 0)
(-0.505054 -10.984 0)
(-0.610255 -10.4209 0)
(-0.730705 -9.7322 0)
(-0.867382 -8.88469 0)
(-1.00517 -7.93256 0)
(-1.13372 -6.939 0)
(-1.25673 -5.87768 0)
(-1.37368 -4.74818 0)
(-1.48399 -3.55079 0)
(-1.58695 -2.28622 0)
(-1.68091 -0.954931 0)
(-1.75924 0.383074 0)
(-1.82238 1.65298 0)
(-1.87233 2.83357 0)
(-1.90775 3.92636 0)
(-1.93041 4.93565 0)
(-1.94273 5.86278 0)
(-1.94613 6.71033 0)
(-1.94211 7.48388 0)
(-1.93194 8.18841 0)
(-1.91697 8.82892 0)
(-1.89863 9.41009 0)
(-1.87833 9.93632 0)
(-1.85645 10.4119 0)
(-1.82914 10.8415 0)
(-0.0137353 -11.6776 0)
(-0.0387628 -12.2094 0)
(-0.0732099 -12.2928 0)
(-0.113932 -12.2538 0)
(-0.161395 -12.1524 0)
(-0.215801 -12.005 0)
(-0.278906 -11.8149 0)
(-0.350887 -11.5777 0)
(-0.431888 -11.2851 0)
(-0.52298 -10.9261 0)
(-0.625038 -10.4856 0)
(-0.738978 -9.94437 0)
(-0.865558 -9.27691 0)
(-1.00508 -8.44982 0)
(-1.14342 -7.51522 0)
(-1.27106 -6.53662 0)
(-1.39034 -5.48871 0)
(-1.50019 -4.37158 0)
(-1.59951 -3.18625 0)
(-1.68709 -1.93467 0)
(-1.76188 -0.619762 0)
(-1.8197 0.694431 0)
(-1.85795 1.92716 0)
(-1.87923 3.06529 0)
(-1.88631 4.1125 0)
(-1.88148 5.0793 0)
(-1.8675 5.96822 0)
(-1.84632 6.77917 0)
(-1.81943 7.5162 0)
(-1.78854 8.18418 0)
(-1.75513 8.78915 0)
(-1.72032 9.33759 0)
(-1.68499 9.83512 0)
(-1.65 10.2851 0)
(-1.61407 10.6904 0)
(-0.0136218 -11.6568 0)
(-0.044093 -12.1938 0)
(-0.0819537 -12.2314 0)
(-0.12592 -12.1589 0)
(-0.177335 -12.0335 0)
(-0.23612 -11.8677 0)
(-0.303343 -11.6627 0)
(-0.38104 -11.4125 0)
(-0.469958 -11.1092 0)
(-0.571642 -10.7415 0)
(-0.687317 -10.295 0)
(-0.817967 -9.75095 0)
(-0.964134 -9.08478 0)
(-1.12562 -8.26437 0)
(-1.28403 -7.34252 0)
(-1.42746 -6.3808 0)
(-1.55886 -5.35392 0)
(-1.67667 -4.26179 0)
(-1.77928 -3.10514 0)
(-1.86498 -1.88565 0)
(-1.93178 -0.60573 0)
(-1.97536 0.674001 0)
(-1.99613 1.87635 0)
(-1.99869 2.98714 0)
(-1.98744 4.00827 0)
(-1.965 4.94509 0)
(-1.93299 5.80139 0)
(-1.89344 6.57784 0)
(-1.84834 7.28071 0)
(-1.80044 7.91892 0)
(-1.75118 8.49721 0)
(-1.70151 9.01999 0)
(-1.65222 9.49229 0)
(-1.60386 9.91904 0)
(-1.5577 10.3044 0)
(-0.0154683 -11.2061 0)
(-0.0547175 -11.6833 0)
(-0.100148 -11.7282 0)
(-0.153931 -11.6733 0)
(-0.215259 -11.5665 0)
(-0.285091 -11.4175 0)
(-0.364149 -11.2263 0)
(-0.454119 -10.9885 0)
(-0.55613 -10.6971 0)
(-0.671503 -10.3415 0)
(-0.801505 -9.90799 0)
(-0.947201 -9.3783 0)
(-1.10922 -8.72863 0)
(-1.28739 -7.9277 0)
(-1.46212 -7.02727 0)
(-1.62057 -6.08814 0)
(-1.76554 -5.08597 0)
(-1.89509 -4.02097 0)
(-2.0072 -2.89427 0)
(-2.09969 -1.7081 0)
(-2.1703 -0.465784 0)
(-2.21443 0.77174 0)
(-2.23276 1.93048 0)
(-2.23028 2.99923 0)
(-2.21172 3.97987 0)
(-2.1807 4.87596 0)
(-2.14004 5.69156 0)
(-2.09259 6.43137 0)
(-2.04128 7.10169 0)
(-1.9878 7.70831 0)
(-1.93338 8.25634 0)
(-1.87908 8.75078 0)
(-1.82566 9.19655 0)
(-1.7739 9.59828 0)
(-1.72808 9.96022 0)
(-0.0194497 -10.9702 0)
(-0.0587091 -11.4202 0)
(-0.108635 -11.4492 0)
(-0.165883 -11.3822 0)
(-0.23267 -11.2655 0)
(-0.309666 -11.1087 0)
(-0.39816 -10.9117 0)
(-0.499499 -10.6702 0)
(-0.6151 -10.377 0)
(-0.746397 -10.0217 0)
(-0.894772 -9.59092 0)
(-1.06136 -9.06678 0)
(-1.24682 -8.42628 0)
(-1.45101 -7.63926 0)
(-1.65133 -6.75736 0)
(-1.83315 -5.83989 0)
(-2.00006 -4.86308 0)
(-2.15 -3.8273 0)
(-2.28074 -2.73383 0)
(-2.38988 -1.58494 0)
(-2.47485 -0.383912 0)
(-2.53036 0.810846 0)
(-2.55713 1.92774 0)
(-2.56055 2.95584 0)
(-2.54571 3.89705 0)
(-2.51686 4.75502 0)
(-2.47763 5.53443 0)
(-2.43115 6.24056 0)
(-2.37995 6.8791 0)
(-2.32599 7.45566 0)
(-2.27082 7.97565 0)
(-2.21559 8.44422 0)
(-2.16097 8.8662 0)
(-2.10797 9.24613 0)
(-2.06398 9.58824 0)
(-0.0222038 -10.5709 0)
(-0.0675072 -10.9868 0)
(-0.12517 -11.0106 0)
(-0.191146 -10.9447 0)
(-0.267739 -10.8316 0)
(-0.355534 -10.6795 0)
(-0.455877 -10.4881 0)
(-0.570229 -10.2532 0)
(-0.700162 -9.96744 0)
(-0.847303 -9.62091 0)
(-1.01328 -9.2003 0)
(-1.19953 -8.68834 0)
(-1.40708 -8.06261 0)
(-1.63617 -7.29392 0)
(-1.86222 -6.43316 0)
(-2.069 -5.53869 0)
(-2.26064 -4.58775 0)
(-2.43504 -3.58109 0)
(-2.58981 -2.52037 0)
(-2.72239 -1.40829 0)
(-2.82995 -0.248528 0)
(-2.90601 0.901926 0)
(-2.95028 1.97471 0)
(-2.96841 2.96008 0)
(-2.96594 3.86033 0)
(-2.9476 4.67938 0)
(-2.91741 5.42211 0)
(-2.87871 6.09392 0)
(-2.83423 6.70042 0)
(-2.78615 7.24715 0)
(-2.73622 7.73945 0)
(-2.68565 8.18239 0)
(-2.63504 8.58072 0)
(-2.58568 8.93887 0)
(-2.54783 9.261 0)
(-0.0253505 -10.2274 0)
(-0.0752034 -10.6105 0)
(-0.139021 -10.6226 0)
(-0.211796 -10.5506 0)
(-0.296415 -10.4337 0)
(-0.393595 -10.2797 0)
(-0.504899 -10.0878 0)
(-0.632003 -9.85374 0)
(-0.776699 -9.57043 0)
(-0.940834 -9.22803 0)
(-1.12625 -8.81354 0)
(-1.33465 -8.31008 0)
(-1.56733 -7.69582 0)
(-1.82493 -6.94248 0)
(-2.08035 -6.10048 0)
(-2.31555 -5.22704 0)
(-2.53565 -4.30017 0)
(-2.7386 -3.32099 0)
(-2.92206 -2.29156 0)
(-3.08339 -1.2149 0)
(-3.21959 -0.094912 0)
(-3.32283 1.01319 0)
(-3.39143 2.04386 0)
(-3.43104 2.98825 0)
(-3.44744 3.84912 0)
(-3.44569 4.63071 0)
(-3.43006 5.33812 0)
(-3.40414 5.97687 0)
(-3.37088 6.55258 0)
(-3.33267 7.07077 0)
(-3.29145 7.53673 0)
(-3.24857 7.95544 0)
(-3.20463 8.33156 0)
(-3.16122 8.66939 0)
(-3.13103 8.97301 0)
(-0.0285963 -9.81504 0)
(-0.0841601 -10.1662 0)
(-0.155389 -10.1715 0)
(-0.236423 -10.0981 0)
(-0.330455 -9.98211 0)
(-0.438214 -9.83039 0)
(-0.56139 -9.642 0)
(-0.701811 -9.41254 0)
(-0.861465 -9.13496 0)
(-1.04244 -8.79963 0)
(-1.24687 -8.39378 0)
(-1.47682 -7.90085 0)
(-1.73405 -7.29949 0)
(-2.01978 -6.56218 0)
(-2.3047 -5.73865 0)
(-2.56905 -4.88523 0)
(-2.81883 -3.98088 0)
(-3.05211 -3.0272 0)
(-3.26662 -2.02675 0)
(-3.45969 -0.982995 0)
(-3.62835 0.0996879 0)
(-3.76308 1.16754 0)
(-3.86034 2.15787 0)
(-3.92574 3.06286 0)
(-3.96525 3.88576 0)
(-3.98413 4.63119 0)
(-3.98689 5.30447 0)
(-3.97734 5.91123 0)
(-3.95865 6.45715 0)
(-3.93341 6.94773 0)
(-3.90376 7.38819 0)
(-3.87116 7.78344 0)
(-3.83627 8.13802 0)
(-3.80099 8.45612 0)
(-3.77993 8.74169 0)
(-0.0317474 -9.40889 0)
(-0.0926453 -9.72813 0)
(-0.170557 -9.72438 0)
(-0.25912 -9.64735 0)
(-0.361849 -9.53019 0)
(-0.479582 -9.37882 0)
(-0.614187 -9.1921 0)
(-0.767687 -8.96554 0)
(-0.942274 -8.69216 0)
(-1.14027 -8.36245 0)
(-1.36405 -7.96384 0)
(-1.61602 -7.48004 0)
(-1.89833 -6.89008 0)
(-2.21274 -6.16709 0)
(-2.5277 -5.36013 0)
(-2.8217 -4.52466 0)
(-3.10181 -3.64048 0)
(-3.36627 -2.7097 0)
(-3.61296 -1.7354 0)
(-3.83927 -0.721572 0)
(-4.04216 0.326909 0)
(-4.21052 1.35769 0)
(-4.33887 2.31052 0)
(-4.43253 3.17856 0)
(-4.49758 3.96562 0)
(-4.53941 4.67672 0)
(-4.56274 5.31745 0)
(-4.57157 5.89364 0)
(-4.56925 6.41101 0)
(-4.5586 6.87509 0)
(-4.54193 7.29108 0)
(-4.52089 7.66379 0)
(-4.49616 7.99769 0)
(-4.46997 8.29683 0)
(-4.45833 8.56507 0)
(-0.0349823 -8.97093 0)
(-0.101423 -9.26028 0)
(-0.1863 -9.24982 0)
(-0.282661 -9.17123 0)
(-0.394286 -9.05469 0)
(-0.522076 -8.90534 0)
(-0.668045 -8.72176 0)
(-0.834385 -8.49942 0)
(-1.02349 -8.23139 0)
(-1.23791 -7.90825 0)
(-1.48032 -7.51761 0)
(-1.75345 -7.04337 0)
(-2.05992 -6.46485 0)
(-2.40202 -5.75566 0)
(-2.74613 -4.96412 0)
(-3.06907 -4.14497 0)
(-3.3789 -3.27887 0)
(-3.6741 -2.36849 0)
(-3.95268 -1.41748 0)
(-4.21216 -0.430465 0)
(-4.44947 0.587117 0)
(-4.65188 1.58395 0)
(-4.81189 2.50211 0)
(-4.9345 3.33572 0)
(-5.02583 4.08913 0)
(-5.09139 4.76778 0)
(-5.13604 5.3776 0)
(-5.16395 5.92458 0)
(-5.17869 6.41459 0)
(-5.18324 6.85319 0)
(-5.18011 7.24556 0)
(-5.17111 7.59647 0)
(-5.157 7.91029 0)
(-5.14031 8.191 0)
(-5.1379 8.44231 0)
(-0.0380397 -8.52833 0)
(-0.109824 -8.78841 0)
(-0.201151 -8.77093 0)
(-0.304824 -8.69031 0)
(-0.424825 -8.57391 0)
(-0.56216 -8.4261 0)
(-0.718999 -8.24524 0)
(-0.897705 -8.02672 0)
(-1.10086 -7.76364 0)
(-1.33122 -7.44666 0)
(-1.5917 -7.06353 0)
(-1.88534 -6.59829 0)
(-2.21515 -6.03047 0)
(-2.58395 -5.33401 0)
(-2.95607 -4.55644 0)
(-3.30677 -3.75186 0)
(-3.64512 -2.90174 0)
(-3.96984 -2.00929 0)
(-4.27912 -1.07881 0)
(-4.5706 -0.115573 0)
(-4.84125 0.874328 0)
(-5.07676 1.84041 0)
(-5.26765 2.72683 0)
(-5.41856 3.52855 0)
(-5.53564 4.25051 0)
(-5.62447 4.89862 0)
(-5.69004 5.47912 0)
(-5.73669 5.99826 0)
(-5.76814 6.46205 0)
(-5.78756 6.87613 0)
(-5.79767 7.24569 0)
(-5.80039 7.57548 0)
(-5.79664 7.86981 0)
(-5.7892 8.13258 0)
(-5.79529 8.36737 0)
(-0.0412074 -8.07091 0)
(-0.118095 -8.30423 0)
(-0.21568 -8.28119 0)
(-0.326401 -8.19959 0)
(-0.454458 -8.08415 0)
(-0.600946 -7.93859 0)
(-0.768173 -7.76103 0)
(-0.958653 -7.54683 0)
(-1.17513 -7.28913 0)
(-1.42058 -6.97863 0)
(-1.69813 -6.60318 0)
(-2.01111 -6.14693 0)
(-2.3629 -5.58956 0)
(-2.75681 -4.90518 0)
(-3.15525 -4.1405 0)
(-3.53201 -3.34905 0)
(-3.89711 -2.5131 0)
(-4.2495 -1.63642 0)
(-4.58758 -0.723963 0)
(-4.9091 0.218249 0)
(-5.21109 1.18343 0)
(-5.47777 2.12171 0)
(-5.69774 2.97905 0)
(-5.87532 3.75126 0)
(-6.01666 4.44384 0)
(-6.12741 5.06315 0)
(-6.21265 5.61583 0)
(-6.27689 6.10839 0)
(-6.32401 6.54701 0)
(-6.35736 6.93744 0)
(-6.37981 7.28491 0)
(-6.39347 7.59418 0)
(-6.39937 7.86951 0)
(-6.40052 8.11474 0)
(-6.41411 8.33333 0)
(-0.0443742 -7.61021 0)
(-0.126109 -7.81914 0)
(-0.229344 -7.79086 0)
(-0.346601 -7.70812 0)
(-0.482179 -7.59343 0)
(-0.637261 -7.44989 0)
(-0.814275 -7.27546 0)
(-1.01586 -7.06548 0)
(-1.24493 -6.81306 0)
(-1.50459 -6.50896 0)
(-1.7982 -6.14106 0)
(-2.12932 -5.69359 0)
(-2.50168 -5.14627 0)
(-2.91901 -4.47331 0)
(-3.34189 -3.72053 0)
(-3.74277 -2.94095 0)
(-4.13255 -2.11758 0)
(-4.51042 -1.25478 0)
(-4.87497 -0.358187 0)
(-5.22413 0.56547 0)
(-5.55494 1.50858 0)
(-5.85022 2.42169 0)
(-6.09687 3.25237 0)
(-6.2989 3.99722 0)
(-6.46243 4.66228 0)
(-6.59319 5.2544 0)
(-6.69636 5.78062 0)
(-6.77658 6.24773 0)
(-6.83788 6.66214 0)
(-6.88379 7.02971 0)
(-6.91735 7.35575 0)
(-6.94081 7.64504 0)
(-6.95536 7.90183 0)
(-6.96417 8.12989 0)
(-6.98413 8.33257 0)
(-0.0457308 -7.14114 0)
(-0.131321 -7.33248 0)
(-0.240387 -7.29971 0)
(-0.364114 -7.21618 0)
(-0.507152 -7.10254 0)
(-0.670629 -6.96138 0)
(-0.857063 -6.79044 0)
(-1.06921 -6.58497 0)
(-1.31011 -6.33809 0)
(-1.58306 -6.04056 0)
(-1.89159 -5.68027 0)
(-2.23951 -5.24149 0)
(-2.63085 -4.70396 0)
(-3.06973 -4.0419 0)
(-3.51501 -3.30023 0)
(-3.93792 -2.53148 0)
(-4.35015 -1.7194 0)
(-4.75112 -0.868895 0)
(-5.13966 0.0137433 0)
(-5.51381 0.920947 0)
(-5.8706 1.84421 0)
(-6.19166 2.73441 0)
(-6.46232 3.54053 0)
(-6.6863 4.25988 0)
(-6.86972 4.89906 0)
(-7.01835 5.4654 0)
(-7.13748 5.96635 0)
(-7.23188 6.40903 0)
(-7.30574 6.80008 0)
(-7.36274 7.14551 0)
(-7.40606 7.45073 0)
(-7.43814 7.72056 0)
(-7.46027 7.95925 0)
(-7.47579 8.17053 0)
(-7.50105 8.35765 0)
(6.72476 -55.7241 0)
(6.31698 -56.4991 0)
(5.95491 -57.4814 0)
(5.62666 -58.688 -6.13045e-17)
(5.27737 -60.1191 0)
(4.93853 -61.7468 0)
(4.60851 -63.5175 0)
(4.28985 -65.3882 0)
(3.98781 -67.3155 5.71263e-17)
(3.75039 -69.3365 0)
(3.57977 -71.6258 0)
(3.53749 -74.0192 -5.47533e-17)
(3.53094 -75.6855 0)
(3.60112 -76.315 -5.85508e-17)
(3.47631 -76.1063 0)
(3.35301 -75.3541 0)
(2.87141 -74.3966 0)
(2.70782 -73.8814 6.71149e-17)
(1.92669 -73.9356 0)
(1.98564 -75.0833 3.59782e-17)
(0.862629 -77.3678 0)
(1.51243 -81.2961 0)
(15.7695 62.7128 0)
(15.4656 62.8274 0)
(15.2352 63.051 0)
(15.0783 63.3765 6.10663e-17)
(15.0782 63.8091 0)
(15.295 64.3638 0)
(15.7707 65.0459 -1.21671e-16)
(16.5237 65.7849 0)
(17.5299 66.0534 -1.81289e-16)
(18.7469 65.8884 1.18799e-16)
(20.1107 65.609 1.17055e-16)
(21.5574 65.5869 5.92587e-17)
(22.8985 65.9873 0)
(24.1374 67.1536 6.25312e-17)
(25.1988 69.3794 0)
(25.7618 71.418 0)
(25.749 72.3418 0)
(25.2235 72.9162 -2.09093e-16)
(24.1512 73.3771 0)
(22.3786 73.9339 -3.82426e-17)
(20.0525 74.7602 0)
(17.1167 76.1602 -8.28646e-17)
(-1.65779 -24.8341 0)
(-1.24579 -25.8869 0)
(-0.858037 -28.1637 0)
(-0.470877 -31.7901 0)
(-0.0993185 -36.6814 0)
(0.268469 -42.5481 1.0992e-16)
(0.603179 -48.9325 1.0601e-16)
(0.809088 -55.1032 0)
(0.912585 -60.2568 1.02697e-16)
(0.880462 -64.3384 -1.0153e-16)
(0.705116 -67.3474 -1.00582e-16)
(0.354333 -69.0862 0)
(-0.0287482 -69.0736 0)
(-0.39633 -66.4817 0)
(-0.740927 -60.4187 1.07633e-16)
(-0.763144 -50.6449 0)
(-0.581998 -39.017 0)
(-0.297924 -26.5496 1.10248e-16)
(0.00722767 -13.968 0)
(0.328795 -1.76172 0)
(0.614825 9.78554 0)
(0.70582 20.5031 6.51471e-17)
(17.0541 32.0913 0)
(18.321 32.0735 0)
(19.6338 32.267 0)
(20.8401 32.8379 -1.16978e-16)
(21.809 33.9746 0)
(22.4505 35.9106 1.13437e-16)
(22.663 38.3739 0)
(22.3649 41.1604 0)
(21.4319 43.7232 0)
(19.8225 46.1996 0)
(17.5038 48.6188 -2.18116e-16)
(14.4931 50.9344 0)
(11.0133 52.9473 0)
(7.25061 54.1907 0)
(3.53558 53.6738 1.25093e-16)
(0.229652 50.9702 2.65151e-16)
(-2.38197 47.2252 0)
(-4.17976 44.3943 0)
(-5.21515 43.2299 0)
(-5.54865 43.6658 0)
(-5.23299 45.6374 1.45502e-16)
(-4.34044 48.729 0)
(2.83398 -36.6986 -2.45524e-16)
(2.78985 -37.2711 0)
(2.68572 -37.6372 -2.48266e-16)
(2.57788 -37.6564 1.21461e-16)
(2.48367 -37.093 0)
(2.46012 -35.5554 -2.34566e-16)
(2.5783 -32.5282 -2.31643e-16)
(2.8542 -27.9553 -2.26106e-16)
(3.26256 -22.0483 0)
(3.81057 -15.0648 0)
(4.4954 -7.51577 2.11399e-16)
(5.27843 -0.10372 0)
(6.09651 6.39276 0)
(6.8612 11.346 0)
(7.53167 14.6531 -4.57548e-16)
(7.94881 16.54 -2.35264e-16)
(8.05804 17.2809 0)
(7.87933 17.3761 -2.55996e-16)
(7.53498 17.3358 0)
(7.15458 17.6263 2.74807e-16)
(6.8203 18.3823 -1.40109e-16)
(6.55627 19.6103 0)
(12.0377 22.4835 2.5829e-16)
(11.1566 23.5594 -2.62019e-16)
(10.0853 24.5839 5.20326e-16)
(8.80375 25.526 2.57468e-16)
(7.32678 26.3277 0)
(5.69733 26.9026 0)
(4.01089 27.1058 2.56971e-16)
(2.38644 26.8252 2.56738e-16)
(0.998071 26.2475 0)
(-0.0177497 25.789 0)
(-0.64435 25.7852 0)
(-0.822159 26.3538 0)
(-0.591447 27.4275 0)
(-0.0741802 28.8617 2.55601e-16)
(0.528734 30.4119 2.62482e-16)
(1.17205 31.8247 -2.65976e-16)
(1.74289 32.9715 0)
(2.2152 33.8309 2.82649e-16)
(2.56452 34.4778 0)
(2.80978 34.9782 -2.32387e-18)
(3.00075 35.4123 3.06208e-16)
(3.2217 35.8526 -3.19767e-16)
(4.12287 -12.5487 -2.57109e-16)
(4.37318 -9.79137 2.62604e-16)
(4.61373 -6.94338 -2.59646e-16)
(4.88409 -4.0944 1.07954e-18)
(5.18133 -1.33902 2.55372e-16)
(5.45721 1.05621 0)
(5.69684 3.02066 0)
(5.87773 4.71155 0)
(5.94856 6.17586 0)
(5.89701 7.53358 4.93614e-16)
(5.75263 8.9415 0)
(5.55565 10.4814 0)
(5.35712 12.1574 0)
(5.22438 13.9382 -2.54823e-16)
(5.16278 15.7983 0)
(5.16936 17.6506 5.31367e-16)
(5.22596 19.4122 0)
(5.30274 21.0185 0)
(5.38296 22.4168 0)
(5.45283 23.613 -2.90678e-16)
(5.50555 24.6381 -2.98266e-16)
(5.51967 25.529 3.11507e-16)
(-0.911686 15.6815 2.80654e-16)
(-1.25455 15.7729 0)
(-1.49239 15.9612 0)
(-1.62719 16.255 -5.68093e-16)
(-1.65456 16.6542 -1.04782e-18)
(-1.56816 17.1565 -2.78895e-16)
(-1.42425 17.7522 -5.53441e-16)
(-1.23295 18.4079 0)
(-1.01776 19.101 -5.45569e-16)
(-0.79867 19.8231 -2.05131e-18)
(-0.578441 20.5822 -5.37999e-16)
(-0.357881 21.3934 5.37497e-16)
(-0.139951 22.2491 0)
(0.0720304 23.1422 0)
(0.290139 24.0743 0)
(0.532045 25.032 2.90402e-16)
(0.793378 25.9933 0)
(1.06988 26.9483 0)
(1.35059 27.8928 0)
(1.61982 28.7983 0)
(1.87177 29.6412 0)
(2.14204 30.4162 0)
(0.157562 1.11824 0)
(0.249055 2.15969 0)
(0.302177 3.2189 2.96093e-16)
(0.33719 4.31166 -7.79026e-19)
(0.358858 5.45412 2.93221e-16)
(0.372615 6.65837 8.70717e-16)
(0.384908 7.92705 5.75487e-16)
(0.398677 9.25135 0)
(0.412953 10.6165 5.67504e-16)
(0.426805 12.0109 -5.63607e-16)
(0.437396 13.4267 5.59238e-16)
(0.445778 14.8492 1.19971e-18)
(0.456605 16.2376 0)
(0.475541 17.5621 0)
(0.503697 18.8273 0)
(0.540365 20.0363 1.12654e-18)
(0.59179 21.2095 0)
(0.657005 22.3693 0)
(0.736765 23.5126 0)
(0.830382 24.6223 0)
(0.934743 25.6796 0)
(1.05162 26.6572 0)
(-3.62192 11.2608 0)
(-3.68375 11.7034 3.15111e-16)
(-3.72844 12.1892 -6.27251e-16)
(-3.76182 12.7181 3.11933e-16)
(-3.77926 13.2907 -6.19715e-16)
(-3.77841 13.9106 -8.31028e-19)
(-3.75614 14.5845 -6.10011e-16)
(-3.70804 15.3179 0)
(-3.63391 16.1127 0)
(-3.53273 16.9659 0)
(-3.40429 17.867 0)
(-3.24826 18.8261 -5.91749e-16)
(-3.08029 19.8323 0)
(-2.9165 20.8516 0)
(-2.75713 21.8751 0)
(-2.60421 22.8872 -6.44176e-16)
(-2.46064 23.8695 0)
(-2.32076 24.8182 -6.69604e-16)
(-2.18037 25.7328 -6.82807e-16)
(-2.03798 26.6081 3.48067e-16)
(-1.89086 27.4354 0)
(-1.70672 28.2044 3.68449e-16)
(-2.47428 6.13802 0)
(-2.54487 6.96162 -6.61451e-16)
(-2.63457 7.81352 3.29338e-16)
(-2.73133 8.69571 0)
(-2.83441 9.60848 0)
(-2.94383 10.5526 -6.48629e-16)
(-3.05802 11.5302 6.44514e-16)
(-3.17489 12.5425 -6.4099e-16)
(-3.29004 13.5885 6.36415e-16)
(-3.40034 14.6644 0)
(-3.50857 15.7648 0)
(-3.60534 16.917 0)
(-3.67469 18.1199 0)
(-3.72239 19.316 0)
(-3.74568 20.4812 -6.66277e-16)
(-3.74224 21.6098 0)
(-3.7167 22.6929 0)
(-3.67237 23.7226 7.06245e-16)
(-3.61064 24.6933 7.19904e-16)
(-3.53362 25.6011 -3.66784e-16)
(-3.44354 26.4423 -3.73833e-16)
(-3.32584 27.2138 -3.87499e-16)
(-4.10479 10.7361 0)
(-4.22254 11.3166 3.48153e-16)
(-4.33785 11.9311 0)
(-4.45038 12.581 6.91624e-16)
(-4.55811 13.2678 0)
(-4.66113 13.9939 0)
(-4.76053 14.762 0)
(-4.85542 15.5717 6.76878e-16)
(-4.9457 16.4221 -6.72359e-16)
(-5.03126 17.3121 6.67499e-16)
(-5.11163 18.2407 0)
(-5.1896 19.2023 6.61134e-16)
(-5.25518 20.1716 0)
(-5.30315 21.1199 -6.90878e-16)
(-5.33126 22.0448 7.05202e-16)
(-5.33783 22.9477 0)
(-5.32446 23.8218 7.33806e-16)
(-5.29161 24.6598 0)
(-5.24045 25.4565 0)
(-5.17292 26.2074 -7.76683e-16)
(-5.08979 26.9082 3.95376e-16)
(-4.97669 27.5543 4.09611e-16)