/*--------------------------------*- C++ -*----------------------------------*\
  =========                 |
  \\      /  F ield         | OpenFOAM: The Open Source CFD Toolbox
   \\    /   O peration     | Website:  https://openfoam.org
    \\  /    A nd           | Version:  8
     \\/     M anipulation  |
\*---------------------------------------------------------------------------*/
FoamFile
{
    version     2.0;
    format      ascii;
    class       surfaceScalarField;
    location    "1400";
    object      phi;
}
// * * * * * * * * * * * * * * * * * * * * * * * * * * * * * * * * * * * * * //

dimensions      [0 3 -1 0 0 0 0];

internalField   nonuniform List<scalar> 
31053
(
1.7442e-06
1.16445e-05
1.36349e-06
1.5748e-05
1.26595e-06
1.77357e-05
1.20138e-06
2.03093e-05
1.13062e-06
2.33072e-05
1.057e-06
2.67439e-05
9.80059e-07
3.06885e-05
8.99475e-07
3.52158e-05
8.15616e-07
4.04113e-05
7.2931e-07
4.63732e-05
6.41853e-07
5.32146e-05
5.54974e-07
6.1065e-05
4.70604e-07
7.00737e-05
3.90797e-07
8.0412e-05
3.29155e-07
7.62521e-05
2.78291e-07
7.62413e-05
2.3601e-07
7.62328e-05
2.00626e-07
7.62259e-05
1.70821e-07
7.62203e-05
1.45559e-07
7.62157e-05
1.24031e-07
7.6212e-05
1.07063e-07
6.95991e-05
9.36528e-08
6.25574e-05
8.2875e-08
5.62285e-05
7.40924e-08
5.05401e-05
6.68496e-08
4.54274e-05
6.08178e-08
4.0832e-05
5.575e-08
3.67015e-05
5.14623e-08
3.29889e-05
4.78102e-08
2.96519e-05
4.46839e-08
2.66525e-05
4.19934e-08
2.39565e-05
3.96694e-08
2.15332e-05
3.76528e-08
1.93551e-05
1.73973e-05
3.58991e-08
9.63253e-07
1.06812e-05
1.52591e-06
1.51853e-05
1.50912e-06
1.77525e-05
1.45068e-06
2.03677e-05
1.39719e-06
2.33607e-05
1.34091e-06
2.68002e-05
1.27953e-06
3.07499e-05
1.21253e-06
3.52828e-05
1.13967e-06
4.04841e-05
1.06094e-06
4.6452e-05
9.76653e-07
5.32988e-05
8.87492e-07
6.11541e-05
7.94477e-07
7.01667e-05
6.98689e-07
8.05078e-05
6.17103e-07
7.63337e-05
5.43858e-07
7.63146e-05
4.78156e-07
7.62985e-05
4.19222e-07
7.62848e-05
3.6636e-07
7.62731e-05
3.18942e-07
7.62632e-05
2.76426e-07
7.62545e-05
2.41546e-07
6.9634e-05
2.13162e-07
6.25858e-05
1.89862e-07
5.62518e-05
1.70583e-07
5.05594e-05
1.54513e-07
4.54435e-05
1.41029e-07
4.08455e-05
1.29645e-07
3.67129e-05
1.19981e-07
3.29986e-05
1.11734e-07
2.96602e-05
1.04665e-07
2.66596e-05
9.85788e-08
2.39626e-05
9.33182e-08
2.15385e-05
8.87522e-08
1.93597e-05
1.74013e-05
8.47721e-08
5.92996e-07
1.00882e-05
1.20858e-06
1.45697e-05
1.33622e-06
1.76249e-05
1.32564e-06
2.03783e-05
1.29447e-06
2.33918e-05
1.25732e-06
2.68373e-05
1.21581e-06
3.07914e-05
1.16934e-06
3.53293e-05
1.11692e-06
4.05366e-05
1.0576e-06
4.65113e-05
9.90678e-07
5.33658e-05
9.15899e-07
6.12289e-05
8.33695e-07
7.02489e-05
7.45092e-07
8.05964e-05
6.66779e-07
7.6412e-05
5.94111e-07
7.63872e-05
5.26946e-07
7.63656e-05
4.6505e-07
7.63467e-05
4.08175e-07
7.633e-05
3.56083e-07
7.63152e-05
3.08527e-07
7.63021e-05
2.6877e-07
6.96737e-05
2.35876e-07
6.26187e-05
2.08509e-07
5.62792e-05
1.85621e-07
5.05823e-05
1.66384e-07
4.54627e-05
1.50139e-07
4.08617e-05
1.3636e-07
3.67267e-05
1.24627e-07
3.30103e-05
1.14595e-07
2.96702e-05
1.05988e-07
2.66682e-05
9.85742e-08
2.397e-05
9.21667e-08
2.15449e-05
8.66071e-08
1.93652e-05
1.74061e-05
8.17692e-08
4.31271e-07
9.65694e-06
9.69731e-07
1.40312e-05
1.18574e-06
1.74088e-05
1.22145e-06
2.03426e-05
1.20752e-06
2.34058e-05
1.17905e-06
2.68658e-05
1.14378e-06
3.08266e-05
1.10299e-06
3.53701e-05
1.05638e-06
4.05832e-05
1.00314e-06
4.65645e-05
9.42317e-07
5.34266e-05
8.73022e-07
6.12982e-05
7.94783e-07
7.03271e-05
7.0796e-07
8.06832e-05
6.29833e-07
7.64901e-05
5.56294e-07
7.64608e-05
4.87559e-07
7.64344e-05
4.23678e-07
7.64106e-05
3.64612e-07
7.63891e-05
3.10276e-07
7.63696e-05
2.60568e-07
7.63518e-05
2.1911e-07
6.97152e-05
1.84973e-07
6.26528e-05
1.56755e-07
5.63074e-05
1.33344e-07
5.06057e-05
1.13848e-07
4.54822e-05
9.75576e-08
4.0878e-05
8.38975e-08
3.67403e-05
7.24051e-08
3.30218e-05
6.27014e-08
2.96799e-05
5.44792e-08
2.66764e-05
4.74838e-08
2.3977e-05
4.15083e-08
2.15509e-05
3.63802e-08
1.93703e-05
1.74105e-05
3.19592e-08
3.06439e-07
9.35049e-06
7.4579e-07
1.35919e-05
1.00015e-06
1.71545e-05
1.07194e-06
2.02708e-05
1.07528e-06
2.34024e-05
1.05537e-06
2.68857e-05
1.02472e-06
3.08573e-05
9.86832e-07
3.54079e-05
9.42489e-07
4.06275e-05
8.91422e-07
4.66156e-05
8.32915e-07
5.34851e-05
7.66082e-07
6.1365e-05
6.90179e-07
7.0403e-05
6.04997e-07
8.07684e-05
5.27231e-07
7.65679e-05
4.53258e-07
7.65348e-05
3.83639e-07
7.6504e-05
3.18708e-07
7.64755e-05
2.58653e-07
7.64491e-05
2.03572e-07
7.64247e-05
1.5351e-07
7.64018e-05
1.12189e-07
6.97565e-05
7.86173e-08
6.26864e-05
5.13044e-08
5.63347e-05
2.90496e-08
5.0628e-05
1.08857e-08
4.55004e-05
-3.96333e-09
4.08928e-05
-1.61252e-08
3.67525e-05
-2.61052e-08
3.30318e-05
-3.43153e-08
2.96881e-05
-4.10878e-08
2.66832e-05
-4.66952e-08
2.39826e-05
-5.13567e-08
2.15555e-05
-5.52524e-08
1.93742e-05
1.74138e-05
-5.85261e-08
2.13684e-07
9.1368e-06
5.66202e-07
1.32393e-05
8.25551e-07
1.68951e-05
9.19449e-07
2.01769e-05
9.35344e-07
2.33865e-05
9.21224e-07
2.68998e-05
8.92709e-07
3.08858e-05
8.54966e-07
3.54457e-05
8.09624e-07
4.06729e-05
7.56871e-07
4.66683e-05
6.96243e-07
5.35457e-05
6.26993e-07
6.14343e-05
5.48401e-07
7.04816e-05
4.60159e-07
8.08566e-05
3.7945e-07
7.66486e-05
3.02589e-07
7.66116e-05
2.30315e-07
7.65762e-05
1.63152e-07
7.65427e-05
1.01453e-07
7.65108e-05
4.54524e-08
7.64807e-05
-4.6949e-09
7.6452e-05
-4.52996e-08
6.97971e-05
-7.75282e-08
6.27186e-05
-1.03034e-07
5.63602e-05
-1.23155e-07
5.06481e-05
-1.38975e-07
4.55162e-05
-1.51365e-07
4.09052e-05
-1.61028e-07
3.67622e-05
-1.68527e-07
3.30393e-05
-1.74319e-07
2.96939e-05
-1.78767e-07
2.66876e-05
-1.82166e-07
2.3986e-05
-1.8475e-07
2.15581e-05
-1.86704e-07
1.93762e-05
1.74153e-05
-1.88177e-07
1.5196e-07
8.98483e-06
4.29253e-07
1.2962e-05
6.74371e-07
1.665e-05
7.80594e-07
2.00707e-05
8.04409e-07
2.33627e-05
7.92988e-07
2.69112e-05
7.63821e-07
3.0915e-05
7.23204e-07
3.54863e-05
6.73403e-07
4.07227e-05
6.14992e-07
4.67268e-05
5.4776e-07
5.3613e-05
4.71133e-07
6.15109e-05
3.84516e-07
7.05682e-05
2.87701e-07
8.09534e-05
1.99541e-07
7.67368e-05
1.15942e-07
7.66952e-05
3.77737e-08
7.66544e-05
-3.42832e-08
7.66147e-05
-9.97252e-08
7.65763e-05
-1.58194e-07
7.65391e-05
-2.09433e-07
7.65032e-05
-2.49755e-07
6.98374e-05
-2.80642e-07
6.27495e-05
-3.04039e-07
5.63836e-05
-3.21522e-07
5.06656e-05
-3.34363e-07
4.5529e-05
-3.43583e-07
4.09145e-05
-3.5e-07
3.67686e-05
-3.54264e-07
3.30436e-05
-3.56895e-07
2.96965e-05
-3.58301e-07
2.6689e-05
-3.58807e-07
2.39865e-05
-3.58664e-07
2.1558e-05
-3.58069e-07
1.93756e-05
1.74144e-05
-3.57172e-07
1.09671e-07
8.87515e-06
3.22973e-07
1.27487e-05
5.43387e-07
1.64296e-05
6.53547e-07
1.99605e-05
6.80311e-07
2.33359e-05
6.68215e-07
2.69233e-05
6.35572e-07
3.09476e-05
5.89257e-07
3.55326e-05
5.31911e-07
4.078e-05
4.64371e-07
4.67943e-05
3.86622e-07
5.36907e-05
2.98264e-07
6.15993e-05
1.98882e-07
7.06676e-05
8.84872e-08
8.10638e-05
-1.14214e-08
7.68367e-05
-1.05574e-07
7.67894e-05
-1.92967e-07
7.67418e-05
-2.72761e-07
7.66945e-05
-3.44297e-07
7.66478e-05
-4.07077e-07
7.66019e-05
-4.60732e-07
7.65569e-05
-5.01522e-07
6.98782e-05
-5.3137e-07
6.27793e-05
-5.52627e-07
5.64048e-05
-5.67204e-07
5.06801e-05
-5.76637e-07
4.55384e-05
-5.82151e-07
4.092e-05
-5.84721e-07
3.67711e-05
-5.85116e-07
3.30439e-05
-5.83942e-07
2.96954e-05
-5.81668e-07
2.66868e-05
-5.78659e-07
2.39835e-05
-5.75193e-07
2.15545e-05
-5.71481e-07
1.93719e-05
1.74106e-05
-5.67681e-07
7.88528e-08
8.79631e-06
2.39951e-07
1.25876e-05
4.27612e-07
1.62419e-05
5.34519e-07
1.98536e-05
5.59941e-07
2.33105e-05
5.43866e-07
2.69394e-05
5.04894e-07
3.09866e-05
4.50105e-07
3.55874e-05
3.82272e-07
4.08478e-05
3.02343e-07
4.68742e-05
2.10405e-07
5.37826e-05
1.0618e-07
6.17035e-05
-1.05613e-08
7.07844e-05
-1.39509e-07
8.11928e-05
-2.55492e-07
7.69527e-05
-3.64102e-07
7.6898e-05
-4.64182e-07
7.68419e-05
-5.54715e-07
7.6785e-05
-6.34868e-07
7.6728e-05
-7.03987e-07
7.6671e-05
-7.61567e-07
7.66145e-05
-8.03742e-07
6.99204e-05
-8.32991e-07
6.28086e-05
-8.52194e-07
5.6424e-05
-8.63689e-07
5.06916e-05
-8.69351e-07
4.55441e-05
-8.70672e-07
4.09213e-05
-8.68828e-07
3.67693e-05
-8.6474e-07
3.30399e-05
-8.59126e-07
2.96897e-05
-8.52534e-07
2.66802e-05
-8.45383e-07
2.39764e-05
-8.37988e-07
2.15471e-05
-8.30581e-07
1.93645e-05
1.74033e-05
-8.23329e-07
5.34564e-08
8.74287e-06
1.7212e-07
1.2469e-05
3.23419e-07
1.60906e-05
4.20575e-07
1.97564e-05
4.40781e-07
2.32903e-05
4.17552e-07
2.69626e-05
3.69392e-07
3.10347e-05
3.03329e-07
3.56535e-05
2.22065e-07
4.09291e-05
1.26508e-07
4.69698e-05
1.6744e-08
5.38924e-05
-1.07439e-07
6.18277e-05
-2.46107e-07
7.0923e-05
-3.98619e-07
8.13453e-05
-5.35118e-07
7.70892e-05
-6.62262e-07
7.70251e-05
-7.78693e-07
7.69583e-05
-8.83188e-07
7.68895e-05
-9.7471e-07
7.68195e-05
-1.05242e-06
7.67487e-05
-1.11565e-06
7.66777e-05
-1.1603e-06
6.99651e-05
-1.18952e-06
6.28378e-05
-1.20685e-06
5.64414e-05
-1.21516e-06
5.06999e-05
-1.21674e-06
4.55457e-05
-1.21341e-06
4.0918e-05
-1.2066e-06
3.67625e-05
-1.19742e-06
3.30307e-05
-1.18672e-06
2.9679e-05
-1.17516e-06
2.66686e-05
-1.16323e-06
2.39644e-05
-1.15128e-06
2.15352e-05
-1.13957e-06
1.93528e-05
1.73921e-05
-1.1283e-06
2.97146e-08
8.71315e-06
1.12971e-07
1.23857e-05
2.28313e-07
1.59753e-05
3.0992e-07
1.96748e-05
3.21105e-07
2.32791e-05
2.87654e-07
2.69961e-05
2.27412e-07
3.1095e-05
1.47196e-07
3.57337e-05
4.94688e-08
4.10268e-05
-6.50339e-08
4.70843e-05
-1.96317e-07
5.40237e-05
-3.44601e-07
6.1976e-05
-5.09827e-07
7.10883e-05
-6.91012e-07
8.15265e-05
-8.52598e-07
7.72508e-05
-1.00252e-06
7.7175e-05
-1.13916e-06
7.7095e-05
-1.26105e-06
7.70114e-05
-1.36692e-06
7.69254e-05
-1.4557e-06
7.68375e-05
-1.52652e-06
7.67485e-05
-1.57493e-06
7.00135e-05
-1.60487e-06
6.28677e-05
-1.62064e-06
5.64572e-05
-1.62576e-06
5.07051e-05
-1.62301e-06
4.55429e-05
-1.61462e-06
4.09096e-05
-1.60232e-06
3.67502e-05
-1.58745e-06
3.30158e-05
-1.57103e-06
2.96626e-05
-1.55385e-06
2.66514e-05
-1.53648e-06
2.3947e-05
-1.51934e-06
2.1518e-05
-1.50272e-06
1.93362e-05
1.73762e-05
-1.48683e-06
8.98656e-09
8.70418e-06
6.03341e-08
1.23344e-05
1.4072e-07
1.58949e-05
2.01849e-07
1.96137e-05
2.00344e-07
2.32806e-05
1.53716e-07
2.70427e-05
7.85029e-08
3.11702e-05
-1.8851e-08
3.5831e-05
-1.36204e-07
4.11442e-05
-2.7309e-07
4.72212e-05
-4.29708e-07
5.41803e-05
-6.06355e-07
6.21526e-05
-8.0289e-07
7.12848e-05
-1.01799e-06
8.17416e-05
-1.20938e-06
7.74421e-05
-1.38648e-06
7.73521e-05
-1.5474e-06
7.72559e-05
-1.69036e-06
7.71544e-05
-1.8138e-06
7.70488e-05
-1.91638e-06
7.69401e-05
-1.997e-06
7.68291e-05
-2.05068e-06
7.00672e-05
-2.08226e-06
6.28993e-05
-2.09695e-06
5.64718e-05
-2.09899e-06
5.07071e-05
-2.09179e-06
4.55357e-05
-2.07801e-06
4.08958e-05
-2.05976e-06
3.67319e-05
-2.03865e-06
3.29947e-05
-2.01592e-06
2.96399e-05
-1.99249e-06
2.6628e-05
-1.96904e-06
2.39236e-05
-1.94607e-06
2.14951e-05
-1.92392e-06
1.9314e-05
1.73551e-05
-1.90283e-06
-8.27537e-09
8.71245e-06
1.27149e-08
1.23134e-05
5.8956e-08
1.58487e-05
9.56844e-08
1.9577e-05
7.79851e-08
2.32983e-05
1.5347e-08
2.71053e-05
-7.76453e-08
3.12632e-05
-1.95049e-07
3.59484e-05
-3.35144e-07
4.12843e-05
-4.9783e-07
4.73839e-05
-6.83577e-07
5.43661e-05
-8.92833e-07
6.23619e-05
-1.12543e-06
7.15174e-05
-1.37973e-06
8.19959e-05
-1.60571e-06
7.76681e-05
-1.81455e-06
7.7561e-05
-2.00398e-06
7.74453e-05
-2.17189e-06
7.73223e-05
-2.31638e-06
7.71933e-05
-2.43578e-06
7.70595e-05
-2.52871e-06
7.69221e-05
-2.58947e-06
7.01279e-05
-2.62388e-06
6.29337e-05
-2.63818e-06
5.64862e-05
-2.63748e-06
5.07064e-05
-2.62583e-06
4.55241e-05
-2.60647e-06
4.08764e-05
-2.58192e-06
3.67074e-05
-2.55411e-06
3.29669e-05
-2.52453e-06
2.96103e-05
-2.49427e-06
2.65977e-05
-2.46415e-06
2.38935e-05
-2.43476e-06
2.14657e-05
-2.40649e-06
1.92857e-05
1.73282e-05
-2.37962e-06
-2.44629e-08
8.73691e-06
-3.19395e-08
1.23209e-05
-1.88775e-08
1.58356e-05
-9.26781e-09
1.95674e-05
-4.6371e-08
2.33354e-05
-1.27715e-07
2.71867e-05
-2.41083e-07
3.13766e-05
-3.81251e-07
3.60886e-05
-5.47019e-07
4.14501e-05
-7.38732e-07
4.75756e-05
-9.5722e-07
5.45845e-05
-1.20316e-06
6.26078e-05
-1.47642e-06
7.17907e-05
-1.77509e-06
8.22945e-05
-2.04044e-06
7.79335e-05
-2.28559e-06
7.78061e-05
-2.50789e-06
7.76676e-05
-2.70481e-06
7.75192e-05
-2.87406e-06
7.73625e-05
-3.0136e-06
7.7199e-05
-3.12168e-06
7.70302e-05
-3.19165e-06
7.01979e-05
-3.2304e-06
6.29725e-05
-3.24531e-06
5.65011e-05
-3.24242e-06
5.07035e-05
-3.22659e-06
4.55083e-05
-3.20166e-06
4.08515e-05
-3.17062e-06
3.66763e-05
-3.1358e-06
3.29321e-05
-3.09895e-06
2.95735e-05
-3.0614e-06
2.65602e-05
-3.0241e-06
2.38562e-05
-2.98775e-06
2.14293e-05
-2.95284e-06
1.92508e-05
1.7295e-05
-2.91967e-06
-4.13157e-08
8.77823e-06
-7.51706e-08
1.23547e-05
-9.40716e-08
1.58545e-05
-1.13404e-07
1.95867e-05
-1.72653e-07
2.33947e-05
-2.75141e-07
2.72892e-05
-4.11187e-07
3.15126e-05
-5.7653e-07
3.6254e-05
-7.70603e-07
4.16441e-05
-9.94277e-07
4.77992e-05
-1.24881e-06
5.48391e-05
-1.53521e-06
6.28942e-05
-1.85346e-06
7.21089e-05
-2.20144e-06
8.26425e-05
-2.51079e-06
7.82428e-05
-2.79681e-06
7.80922e-05
-3.05638e-06
7.79272e-05
-3.28654e-06
7.77494e-05
-3.48453e-06
7.75605e-05
-3.64785e-06
7.73624e-05
-3.77433e-06
7.71566e-05
-3.85606e-06
7.02796e-05
-3.90104e-06
6.30174e-05
-3.91791e-06
5.65179e-05
-3.91376e-06
5.06994e-05
-3.8943e-06
4.54888e-05
-3.86406e-06
4.08213e-05
-3.82659e-06
3.66389e-05
-3.78464e-06
3.28901e-05
-3.74029e-06
2.95291e-05
-3.6951e-06
2.6515e-05
-3.65024e-06
2.38113e-05
-3.60652e-06
2.13856e-05
-3.56452e-06
1.92088e-05
1.72551e-05
-3.52462e-06
-5.86133e-08
8.83685e-06
-1.17497e-07
1.24136e-05
-1.67083e-07
1.59041e-05
-2.16424e-07
1.9636e-05
-3.00088e-07
2.34784e-05
-4.25749e-07
2.74148e-05
-5.86433e-07
3.16733e-05
-7.79017e-07
3.64465e-05
-1.00367e-06
4.18688e-05
-1.26186e-06
4.80574e-05
-1.55537e-06
5.51326e-05
-1.88559e-06
6.32244e-05
-2.25274e-06
7.24761e-05
-2.65463e-06
8.30444e-05
-3.01242e-06
7.86006e-05
-3.34375e-06
7.84235e-05
-3.64499e-06
7.82284e-05
-3.91266e-06
7.80171e-05
-4.14351e-06
7.77914e-05
-4.33453e-06
7.75534e-05
-4.48304e-06
7.73052e-05
-4.5795e-06
7.03761e-05
-4.63305e-06
6.3071e-05
-4.65367e-06
5.65386e-05
-4.64957e-06
5.06953e-05
-4.6274e-06
4.54666e-05
-4.59246e-06
4.07863e-05
-4.54891e-06
3.65953e-05
-4.49998e-06
3.28412e-05
-4.44812e-06
2.94773e-05
-4.39521e-06
2.64621e-05
-4.34258e-06
2.37587e-05
-4.29124e-06
2.13343e-05
-4.24185e-06
1.91594e-05
1.72082e-05
-4.19489e-06
-7.59857e-08
8.91284e-06
-1.58866e-07
1.24965e-05
-2.3795e-07
1.59832e-05
-3.1767e-07
1.97158e-05
-4.27389e-07
2.35881e-05
-5.77766e-07
2.75652e-05
-7.64617e-07
3.18602e-05
-9.86088e-07
3.6668e-05
-1.24315e-06
4.21259e-05
-1.53795e-06
4.83522e-05
-1.87286e-06
5.54675e-05
-2.24978e-06
6.36014e-05
-2.66928e-06
7.28956e-05
-3.12912e-06
8.35043e-05
-3.5393e-06
7.90108e-05
-3.92004e-06
7.88042e-05
-4.2672e-06
7.85756e-05
-4.57672e-06
7.83266e-05
-4.84475e-06
7.80594e-05
-5.0677e-06
7.77763e-05
-5.24229e-06
7.74797e-05
-5.35695e-06
7.04907e-05
-5.42192e-06
6.3136e-05
-5.44857e-06
5.65652e-05
-5.44632e-06
5.0693e-05
-5.42282e-06
4.54431e-05
-5.3842e-06
4.07477e-05
-5.3353e-06
3.65464e-05
-5.27989e-06
3.27858e-05
-5.22084e-06
2.94182e-05
-5.16034e-06
2.64016e-05
-5.1e-06
2.36984e-05
-5.04098e-06
2.12752e-05
-4.9841e-06
1.91026e-05
1.7154e-05
-4.92992e-06
-9.30089e-08
9.00586e-06
-1.98857e-07
1.26024e-05
-3.06254e-07
1.60906e-05
-4.16227e-07
1.98257e-05
-5.53003e-07
2.37249e-05
-7.29156e-07
2.77414e-05
-9.43222e-07
3.20742e-05
-1.19472e-06
3.69195e-05
-1.48548e-06
4.24166e-05
-1.81841e-06
4.86852e-05
-2.19653e-06
5.58456e-05
-2.62235e-06
6.40272e-05
-3.09684e-06
7.33701e-05
-3.618e-06
8.40254e-05
-4.08407e-06
7.94769e-05
-4.51802e-06
7.92382e-05
-4.91514e-06
7.89727e-05
-5.27078e-06
7.86822e-05
-5.58044e-06
7.83691e-05
-5.83984e-06
7.80357e-05
-6.045e-06
7.76849e-05
-6.18184e-06
7.06276e-05
-6.26164e-06
6.32158e-05
-6.29718e-06
5.66007e-05
-6.29912e-06
5.0695e-05
-6.27619e-06
4.54202e-05
-6.2354e-06
4.07069e-05
-6.18233e-06
3.64934e-05
-6.12132e-06
3.27248e-05
-6.05574e-06
2.93526e-05
-5.98813e-06
2.6334e-05
-5.92039e-06
2.36306e-05
-5.8539e-06
2.12087e-05
-5.78964e-06
1.90383e-05
1.70926e-05
-5.72829e-06
-1.09437e-07
9.1153e-06
-2.37231e-07
1.27302e-05
-3.71589e-07
1.6225e-05
-5.11047e-07
1.99652e-05
-6.75198e-07
2.3889e-05
-8.77649e-07
2.79438e-05
-1.11944e-06
3.2316e-05
-1.40152e-06
3.72016e-05
-1.72668e-06
4.27418e-05
-2.09858e-06
4.90571e-05
-2.52099e-06
5.6268e-05
-2.99706e-06
6.45033e-05
-3.52841e-06
7.39014e-05
-4.11348e-06
8.46105e-05
-4.63836e-06
8.00018e-05
-5.12884e-06
7.97286e-05
-5.57963e-06
7.94235e-05
-5.98548e-06
7.90881e-05
-6.34117e-06
7.87247e-05
-6.64169e-06
7.83363e-05
-6.88225e-06
7.79255e-05
-7.04574e-06
7.07911e-05
-7.14431e-06
6.33143e-05
-7.19218e-06
5.66486e-05
-7.20125e-06
5.0704e-05
-7.18136e-06
4.54003e-05
-7.14045e-06
4.0666e-05
-7.08488e-06
3.64378e-05
-7.01965e-06
3.26595e-05
-6.94862e-06
2.92816e-05
-6.87477e-06
2.62601e-05
-6.8003e-06
2.35562e-05
-6.72685e-06
2.11353e-05
-6.65559e-06
1.89671e-05
1.70244e-05
-6.58735e-06
-1.25072e-07
9.24038e-06
-2.7361e-07
1.28787e-05
-4.3343e-07
1.63848e-05
-6.01086e-07
2.01329e-05
-7.9221e-07
2.40801e-05
-1.02087e-06
2.81725e-05
-1.29033e-06
3.25855e-05
-1.60298e-06
3.75142e-05
-1.96255e-06
4.31013e-05
-2.37352e-06
4.9468e-05
-2.84045e-06
5.6735e-05
-3.36734e-06
6.50302e-05
-3.95658e-06
7.44907e-05
-4.60722e-06
8.52611e-05
-5.19302e-06
8.05876e-05
-5.74267e-06
8.02783e-05
-6.25037e-06
7.99312e-05
-6.71018e-06
7.95479e-05
-7.1162e-06
7.91308e-05
-7.46258e-06
7.86826e-05
-7.74367e-06
7.82066e-05
-7.93869e-06
7.09861e-05
-8.06053e-06
6.34362e-05
-8.12474e-06
5.67128e-05
-8.14448e-06
5.07238e-05
-8.13069e-06
4.53865e-05
-8.0923e-06
4.06276e-05
-8.03646e-06
3.63819e-05
-7.96886e-06
3.25919e-05
-7.89395e-06
2.92067e-05
-7.81513e-06
2.61813e-05
-7.735e-06
2.3476e-05
-7.65546e-06
2.10558e-05
-7.57791e-06
1.88895e-05
1.69498e-05
-7.50334e-06
-1.39644e-07
9.38003e-06
-3.07611e-07
1.30467e-05
-4.91001e-07
1.65682e-05
-6.85172e-07
2.0327e-05
-9.02368e-07
2.42973e-05
-1.15658e-06
2.84267e-05
-1.45308e-06
3.2882e-05
-1.79561e-06
3.78568e-05
-2.1889e-06
4.34946e-05
-2.63827e-06
4.99174e-05
-3.1492e-06
5.72459e-05
-3.7266e-06
6.56076e-05
-4.37375e-06
7.51378e-05
-5.09053e-06
8.59779e-05
-5.73844e-06
8.12355e-05
-6.34916e-06
8.0889e-05
-6.91637e-06
8.04984e-05
-7.43351e-06
8.0065e-05
-7.89389e-06
7.95912e-05
-8.29085e-06
7.90796e-05
-8.61777e-06
7.85335e-05
-8.84958e-06
7.12179e-05
-8.99965e-06
6.35862e-05
-9.08478e-06
5.6798e-05
-9.11933e-06
5.07583e-05
-9.11533e-06
4.53825e-05
-9.08267e-06
4.0595e-05
-9.02936e-06
3.63286e-05
-8.96182e-06
3.25244e-05
-8.88509e-06
2.913e-05
-8.80307e-06
2.60993e-05
-8.71875e-06
2.33917e-05
-8.63437e-06
2.09714e-05
-8.55159e-06
1.88067e-05
1.68699e-05
-8.4716e-06
-1.52923e-07
9.53296e-06
-3.38655e-07
1.32324e-05
-5.43597e-07
1.67731e-05
-7.62242e-07
2.05457e-05
-1.00405e-06
2.45392e-05
-1.2826e-06
2.87053e-05
-1.6049e-06
3.32043e-05
-1.97607e-06
3.8228e-05
-2.40176e-06
4.39203e-05
-2.88821e-06
5.04039e-05
-3.44178e-06
5.77995e-05
-4.06837e-06
6.62341e-05
-4.77235e-06
7.58418e-05
-5.55474e-06
8.67603e-05
-6.265e-06
8.19458e-05
-6.93785e-06
8.15619e-05
-7.56647e-06
8.1127e-05
-8.14369e-06
8.06423e-05
-8.66211e-06
8.01096e-05
-9.11419e-06
7.95317e-05
-9.49227e-06
7.89116e-05
-9.76638e-06
7.1492e-05
-9.95005e-06
6.37699e-05
-1.00612e-05
5.69091e-05
-1.01152e-05
5.08124e-05
-1.01253e-05
4.53926e-05
-1.01022e-05
4.05718e-05
-1.00548e-05
3.62813e-05
-9.99026e-06
3.24599e-05
-9.9143e-06
2.9054e-05
-9.83133e-06
2.60163e-05
-9.74478e-06
2.33051e-05
-9.65725e-06
2.08839e-05
-9.57069e-06
1.87202e-05
1.67857e-05
-9.48652e-06
-1.64754e-07
9.69772e-06
-3.66358e-07
1.3434e-05
-5.90735e-07
1.69975e-05
-8.31434e-07
2.07864e-05
-1.09583e-06
2.48036e-05
-1.39704e-06
2.90065e-05
-1.74346e-06
3.35507e-05
-2.14144e-06
3.86259e-05
-2.59759e-06
4.43765e-05
-3.11903e-06
5.09253e-05
-3.71304e-06
5.83935e-05
-4.38661e-06
6.69077e-05
-5.14534e-06
7.66005e-05
-5.99166e-06
8.76066e-05
-6.7635e-06
8.27176e-05
-7.49858e-06
8.2297e-05
-8.18966e-06
8.18181e-05
-8.82903e-06
8.12816e-05
-9.40862e-06
8.06892e-05
-9.91999e-06
8.0043e-05
-1.03544e-05
7.9346e-05
-1.06764e-05
7.1814e-05
-1.08993e-05
6.39928e-05
-1.10419e-05
5.70517e-05
-1.11206e-05
5.08911e-05
-1.11495e-05
4.54214e-05
-1.11403e-05
4.05627e-05
-1.11028e-05
3.62437e-05
-1.10448e-05
3.24019e-05
-1.09727e-05
2.89819e-05
-1.08916e-05
2.59351e-05
-1.08052e-05
2.32188e-05
-1.07167e-05
2.07953e-05
-1.06282e-05
1.86317e-05
1.66989e-05
-1.05414e-05
-1.74982e-07
9.87271e-06
-3.90441e-07
1.36495e-05
-6.31876e-07
1.72389e-05
-8.9204e-07
2.10466e-05
-1.17665e-06
2.50882e-05
-1.49838e-06
2.93282e-05
-1.86677e-06
3.39191e-05
-2.28926e-06
3.90484e-05
-2.77335e-06
4.48606e-05
-3.327e-06
5.14789e-05
-3.95851e-06
5.9025e-05
-4.67597e-06
6.76252e-05
-5.48639e-06
7.74109e-05
-6.39385e-06
8.85141e-05
-7.22546e-06
8.35492e-05
-8.02187e-06
8.30934e-05
-8.77552e-06
8.25718e-05
-9.47831e-06
8.19844e-05
-1.01215e-05
8.13324e-05
-1.06959e-05
8.06174e-05
-1.11916e-05
7.98418e-05
-1.1567e-05
7.21894e-05
-1.18348e-05
6.42606e-05
-1.20146e-05
5.72314e-05
-1.21235e-05
5.1e-05
-1.21764e-05
4.54744e-05
-1.2186e-05
4.05722e-05
-1.21627e-05
3.62205e-05
-1.21153e-05
3.23545e-05
-1.20508e-05
2.89174e-05
-1.19747e-05
2.5859e-05
-1.18914e-05
2.31355e-05
-1.18043e-05
2.07083e-05
-1.17162e-05
1.85435e-05
1.66116e-05
-1.16289e-05
-1.83523e-07
1.00562e-05
-4.10709e-07
1.38767e-05
-6.66637e-07
1.74949e-05
-9.43527e-07
2.13235e-05
-1.24574e-06
2.53904e-05
-1.58553e-06
2.9668e-05
-1.97332e-06
3.43069e-05
-2.41757e-06
3.94927e-05
-2.92658e-06
4.53696e-05
-3.50915e-06
5.20615e-05
-4.17452e-06
5.96904e-05
-4.93203e-06
6.83827e-05
-5.79017e-06
7.82691e-05
-6.7549e-06
8.94788e-05
-7.64344e-06
8.44377e-05
-8.49925e-06
8.39492e-05
-9.31464e-06
8.33872e-05
-1.00812e-05
8.2751e-05
-1.07897e-05
8.20408e-05
-1.143e-05
8.12577e-05
-1.19914e-05
8.04032e-05
-1.24254e-05
7.26234e-05
-1.27438e-05
6.4579e-05
-1.29665e-05
5.74541e-05
-1.31113e-05
5.11448e-05
-1.31938e-05
4.55569e-05
-1.32273e-05
4.06058e-05
-1.32232e-05
3.62164e-05
-1.31909e-05
3.23222e-05
-1.31379e-05
2.88644e-05
-1.30705e-05
2.57916e-05
-1.29936e-05
2.30586e-05
-1.29111e-05
2.06257e-05
-1.28259e-05
1.84583e-05
1.65261e-05
-1.27404e-05
-1.9031e-07
1.02466e-05
-4.27016e-07
1.41134e-05
-6.9483e-07
1.77627e-05
-9.85615e-07
2.16142e-05
-1.30265e-06
2.57074e-05
-1.65775e-06
3.00231e-05
-2.06213e-06
3.47113e-05
-2.52505e-06
3.99556e-05
-3.05555e-06
4.59001e-05
-3.66325e-06
5.26692e-05
-4.35835e-06
6.03855e-05
-5.15138e-06
6.91757e-05
-6.05245e-06
7.91701e-05
-7.06964e-06
9.0496e-05
-8.01126e-06
8.53794e-05
-8.92355e-06
8.48615e-05
-9.79888e-06
8.42625e-05
-1.06286e-05
8.35807e-05
-1.1403e-05
8.28153e-05
-1.21115e-05
8.19662e-05
-1.27422e-05
8.10339e-05
-1.32396e-05
7.31208e-05
-1.36141e-05
6.49535e-05
-1.38854e-05
5.77255e-05
-1.4072e-05
5.13313e-05
-1.41897e-05
4.56746e-05
-1.42527e-05
4.06688e-05
-1.42729e-05
3.62366e-05
-1.42604e-05
3.23096e-05
-1.42234e-05
2.88275e-05
-1.41688e-05
2.5737e-05
-1.4102e-05
2.29918e-05
-1.40273e-05
2.0551e-05
-1.39481e-05
1.83792e-05
1.64451e-05
-1.38671e-05
-1.95349e-07
1.04419e-05
-4.39362e-07
1.43574e-05
-7.16464e-07
1.80398e-05
-1.01826e-06
2.1916e-05
-1.34721e-06
2.60364e-05
-1.71475e-06
3.03906e-05
-2.13268e-06
3.51292e-05
-2.61095e-06
4.04339e-05
-3.15926e-06
4.64484e-05
-3.78797e-06
5.32979e-05
-4.5082e-06
6.11057e-05
-5.33172e-06
6.99992e-05
-6.27029e-06
8.01087e-05
-7.33421e-06
9.15599e-05
-8.3242e-06
8.63694e-05
-9.28915e-06
8.58264e-05
-1.02216e-05
8.51949e-05
-1.11129e-05
8.4472e-05
-1.1953e-05
8.36554e-05
-1.27309e-05
8.2744e-05
-1.34339e-05
8.1737e-05
-1.39988e-05
7.36857e-05
-1.44342e-05
6.53889e-05
-1.47598e-05
5.8051e-05
-1.49936e-05
5.15652e-05
-1.51523e-05
4.58333e-05
-1.52503e-05
4.07668e-05
-1.53002e-05
3.62865e-05
-1.53125e-05
3.2322e-05
-1.52963e-05
2.88112e-05
-1.52588e-05
2.56995e-05
-1.52061e-05
2.2939e-05
-1.51429e-05
2.04878e-05
-1.50731e-05
1.83094e-05
1.63716e-05
-1.49997e-05
-1.98635e-07
1.06405e-05
-4.4777e-07
1.46065e-05
-7.31613e-07
1.83236e-05
-1.04159e-06
2.2226e-05
-1.37956e-06
2.63743e-05
-1.7566e-06
3.07677e-05
-2.18496e-06
3.55575e-05
-2.67514e-06
4.0924e-05
-3.23741e-06
4.70107e-05
-3.88278e-06
5.39433e-05
-4.62327e-06
6.18462e-05
-5.47185e-06
7.08478e-05
-6.44196e-06
8.10788e-05
-7.54617e-06
9.26641e-05
-8.57905e-06
8.74022e-05
-9.59203e-06
8.68394e-05
-1.05779e-05
8.61808e-05
-1.1528e-05
8.54221e-05
-1.24326e-05
8.456e-05
-1.32801e-05
8.35915e-05
-1.40574e-05
8.25142e-05
-1.46932e-05
7.43216e-05
-1.5194e-05
6.58897e-05
-1.55788e-05
5.84358e-05
-1.58657e-05
5.1852e-05
-1.6071e-05
4.60387e-05
-1.62097e-05
4.09055e-05
-1.62948e-05
3.63715e-05
-1.63374e-05
3.23646e-05
-1.63469e-05
2.88208e-05
-1.63314e-05
2.5684e-05
-1.62973e-05
2.29049e-05
-1.62497e-05
2.04403e-05
-1.61932e-05
1.82528e-05
1.63092e-05
-1.61307e-05
-2.00341e-07
1.08409e-05
-4.52511e-07
1.48587e-05
-7.4063e-07
1.86118e-05
-1.05604e-06
2.25414e-05
-1.40017e-06
2.67185e-05
-1.7838e-06
3.11513e-05
-2.21944e-06
3.59932e-05
-2.71803e-06
4.14226e-05
-3.29032e-06
4.7583e-05
-3.94792e-06
5.46009e-05
-4.70364e-06
6.26019e-05
-5.57163e-06
7.17158e-05
-6.56694e-06
8.20741e-05
-7.7045e-06
9.38017e-05
-8.77428e-06
8.8472e-05
-9.82985e-06
8.7895e-05
-1.08645e-05
8.72154e-05
-1.187e-05
8.64277e-05
-1.28368e-05
8.55268e-05
-1.37532e-05
8.45079e-05
-1.46057e-05
8.33668e-05
-1.53153e-05
7.50311e-05
-1.58856e-05
6.64599e-05
-1.63345e-05
5.88848e-05
-1.66797e-05
5.21971e-05
-1.69373e-05
4.62963e-05
-1.71226e-05
4.10908e-05
-1.72488e-05
3.64977e-05
-1.73276e-05
3.24434e-05
-1.73688e-05
2.88621e-05
-1.7381e-05
2.56961e-05
-1.73709e-05
2.28948e-05
-1.73442e-05
2.04137e-05
-1.73058e-05
1.82143e-05
1.62624e-05
-1.7259e-05
-2.0021e-07
1.10411e-05
-4.53396e-07
1.51119e-05
-7.43544e-07
1.89019e-05
-1.06189e-06
2.28598e-05
-1.40951e-06
2.70661e-05
-1.79692e-06
3.15387e-05
-2.2368e-06
3.64331e-05
-2.74039e-06
4.19262e-05
-3.31884e-06
4.81614e-05
-3.98424e-06
5.52663e-05
-4.75017e-06
6.33679e-05
-5.63182e-06
7.25975e-05
-6.64575e-06
8.30881e-05
-7.80935e-06
9.49653e-05
-8.90955e-06
8.95722e-05
-1.00017e-05
8.89871e-05
-1.10797e-05
8.82935e-05
-1.21363e-05
8.74842e-05
-1.3162e-05
8.65525e-05
-1.41457e-05
8.54915e-05
-1.50736e-05
8.42947e-05
-1.58587e-05
7.58163e-05
-1.65017e-05
6.71029e-05
-1.70193e-05
5.94024e-05
-1.74285e-05
5.26063e-05
-1.77456e-05
4.66134e-05
-1.79854e-05
4.13306e-05
-1.81613e-05
3.66736e-05
-1.82848e-05
3.25669e-05
-1.83661e-05
2.89433e-05
-1.84136e-05
2.57436e-05
-1.84346e-05
2.29157e-05
-1.8435e-05
2.04141e-05
-1.84198e-05
1.81992e-05
-1.8393e-05
1.62356e-05
3.29784e-08
2.78135e-05
3.01619e-08
2.85527e-05
2.74459e-08
2.93116e-05
2.48328e-08
3.00906e-05
2.2321e-08
3.08903e-05
1.99122e-08
3.17113e-05
1.76039e-08
3.25542e-05
1.53971e-08
3.34194e-05
1.32887e-08
3.43077e-05
1.12784e-08
3.52196e-05
9.36234e-09
3.61557e-05
7.56307e-09
3.65907e-05
5.93405e-09
3.55529e-05
4.45533e-09
3.45446e-05
3.10679e-09
3.35649e-05
1.87418e-09
3.26129e-05
7.41952e-10
3.1688e-05
-3.00236e-10
3.07894e-05
-1.26459e-09
2.99162e-05
-2.15864e-09
2.90678e-05
-2.99215e-09
2.82434e-05
2.74424e-05
-3.76998e-09
7.81755e-08
2.78201e-05
7.17514e-08
2.85591e-05
6.55106e-08
2.93178e-05
5.94592e-08
3.00966e-05
5.35986e-08
3.08962e-05
4.79332e-08
3.1717e-05
4.24628e-08
3.25597e-05
3.71895e-08
3.34247e-05
3.21109e-08
3.43128e-05
2.72269e-08
3.52244e-05
2.25327e-08
3.61604e-05
1.80906e-08
3.65951e-05
1.40525e-08
3.55569e-05
1.03717e-08
3.45483e-05
7.00323e-09
3.35682e-05
3.91105e-09
3.2616e-05
1.06039e-09
3.16909e-05
-1.57593e-09
3.0792e-05
-4.02497e-09
2.99186e-05
-6.30727e-09
2.907e-05
-8.44402e-09
2.82455e-05
2.74444e-05
-1.04539e-08
7.43732e-08
2.78275e-05
6.7216e-08
2.85663e-05
6.02989e-08
2.93247e-05
5.36301e-08
3.01033e-05
4.72131e-08
3.09026e-05
4.10532e-08
3.17232e-05
3.51509e-08
3.25656e-05
2.95083e-08
3.34303e-05
2.41225e-08
3.43181e-05
1.89919e-08
3.52296e-05
1.41093e-08
3.61652e-05
9.5301e-09
3.65997e-05
5.39261e-09
3.55611e-05
1.64025e-09
3.4552e-05
-1.77894e-09
3.35717e-05
-4.90739e-09
3.26192e-05
-7.78513e-09
3.16938e-05
-1.04441e-08
3.07947e-05
-1.29153e-08
2.99211e-05
-1.52226e-08
2.90723e-05
-1.73899e-08
2.82477e-05
2.74465e-05
-1.94345e-08
2.62769e-08
2.78332e-05
2.08642e-08
2.85717e-05
1.57332e-08
2.93298e-05
1.08918e-08
3.01082e-05
6.34296e-09
3.09072e-05
2.09064e-09
3.17274e-05
-1.86622e-09
3.25695e-05
-5.52831e-09
3.3434e-05
-8.90175e-09
3.43215e-05
-1.19926e-08
3.52327e-05
-1.48124e-08
3.61681e-05
-1.73384e-08
3.66022e-05
-1.95135e-08
3.55633e-05
-2.13945e-08
3.45539e-05
-2.30329e-08
3.35733e-05
-2.44708e-08
3.26206e-05
-2.57468e-08
3.1695e-05
-2.68914e-08
3.07958e-05
-2.79333e-08
2.99221e-05
-2.88943e-08
2.90733e-05
-2.97955e-08
2.82486e-05
2.74474e-05
-3.06531e-08
-6.06553e-08
2.78353e-05
-6.24402e-08
2.85735e-05
-6.3867e-08
2.93313e-05
-6.49314e-08
3.01092e-05
-6.56342e-08
3.09079e-05
-6.59762e-08
3.17278e-05
-6.59638e-08
3.25695e-05
-6.5604e-08
3.34336e-05
-6.49101e-08
3.43208e-05
-6.38967e-08
3.52316e-05
-6.25845e-08
3.61667e-05
-6.10199e-08
3.66007e-05
-5.93154e-08
3.55616e-05
-5.75219e-08
3.45521e-05
-5.56849e-08
3.35715e-05
-5.38397e-08
3.26188e-05
-5.20179e-08
3.16932e-05
-5.02431e-08
3.0794e-05
-4.85365e-08
2.99204e-05
-4.69129e-08
2.90717e-05
-4.53854e-08
2.82471e-05
2.74459e-05
-4.39616e-08
-1.84985e-07
2.78321e-05
-1.8134e-07
2.85698e-05
-1.77225e-07
2.93272e-05
-1.72643e-07
3.01046e-05
-1.67602e-07
3.09028e-05
-1.62111e-07
3.17223e-05
-1.56186e-07
3.25636e-05
-1.49845e-07
3.34273e-05
-1.43113e-07
3.43141e-05
-1.36017e-07
3.52245e-05
-1.28593e-07
3.61593e-05
-1.20987e-07
3.65931e-05
-1.13562e-07
3.55541e-05
-1.06357e-07
3.45449e-05
-9.94074e-08
3.35645e-05
-9.27379e-08
3.26121e-05
-8.63684e-08
3.16868e-05
-8.03111e-08
3.0788e-05
-7.45751e-08
2.99147e-05
-6.91638e-08
2.90663e-05
-6.4078e-08
2.8242e-05
2.74412e-05
-5.93116e-08
-3.46888e-07
2.78218e-05
-3.36005e-07
2.8559e-05
-3.245e-07
2.93157e-05
-3.12387e-07
3.00925e-05
-2.99687e-07
3.08901e-05
-2.8642e-07
3.1709e-05
-2.72618e-07
3.25498e-05
-2.58313e-07
3.3413e-05
-2.43547e-07
3.42993e-05
-2.28368e-07
3.52094e-05
-2.1283e-07
3.61438e-05
-1.97217e-07
3.65774e-05
-1.82217e-07
3.55391e-05
-1.67858e-07