# Forces      
# CofR        : (0.000000e+00 0.000000e+00 0.000000e+00)
# Time        forces(pressure viscous porous)	moments(pressure viscous porous)
0             	((0.000000e+00 0.000000e+00 0.000000e+00) (0.000000e+00 0.000000e+00 0.000000e+00) (0.000000e+00 0.000000e+00 0.000000e+00)) ((0.000000e+00 0.000000e+00 0.000000e+00) (0.000000e+00 0.000000e+00 0.000000e+00) (0.000000e+00 0.000000e+00 0.000000e+00))
0.0001        	((2.408778e-06 1.539777e+00 2.853927e-17) (-2.089714e-08 3.093951e-05 -6.074519e-20) (0.000000e+00 0.000000e+00 0.000000e+00)) ((3.719508e-19 -1.861853e-20 -1.809591e-07) (-3.540862e-22 1.887669e-21 1.834666e-09) (0.000000e+00 0.000000e+00 0.000000e+00))
0.0002        	((-1.454688e-06 7.535929e-02 1.030853e-19) (1.642527e-08 4.226473e-05 -1.154226e-22) (0.000000e+00 0.000000e+00 0.000000e+00)) ((2.199106e-21 3.025507e-21 1.207351e-07) (-3.554698e-24 -2.092759e-24 5.916669e-10) (0.000000e+00 0.000000e+00 0.000000e+00))
0.0003        	((-2.522834e-06 7.048380e-02 8.021087e-20) (2.671291e-08 5.015627e-05 -7.298951e-23) (0.000000e+00 0.000000e+00 0.000000e+00)) ((1.682551e-21 2.897463e-21 1.752054e-07) (-2.760111e-24 -2.497440e-24 1.415028e-10) (0.000000e+00 0.000000e+00 0.000000e+00))
0.0004        	((-2.041564e-06 6.706636e-02 6.868143e-20) (2.578667e-08 5.558805e-05 -4.845745e-23) (0.000000e+00 0.000000e+00 0.000000e+00)) ((1.415583e-21 2.797520e-21 1.253867e-07) (-2.221460e-24 -2.552860e-24 1.409316e-11) (0.000000e+00 0.000000e+00 0.000000e+00))
0.0005        	((-1.801004e-06 6.403214e-02 6.110668e-20) (1.924417e-08 5.954755e-05 -2.913411e-23) (0.000000e+00 0.000000e+00 0.000000e+00)) ((1.244592e-21 2.716106e-21 1.020712e-07) (-1.781178e-24 -2.584264e-24 9.238825e-11) (0.000000e+00 0.000000e+00 0.000000e+00))
0.0006        	((-1.005467e-06 6.147030e-02 5.551323e-20) (1.461788e-08 6.249362e-05 -2.275489e-23) (0.000000e+00 0.000000e+00 0.000000e+00)) ((1.122871e-21 2.647868e-21 4.539202e-08) (-1.709318e-24 -2.706013e-24 1.455864e-10) (0.000000e+00 0.000000e+00 0.000000e+00))
0.0007        	((-7.402831e-07 5.937111e-02 5.135465e-20) (1.182526e-08 6.478450e-05 -1.588510e-23) (0.000000e+00 0.000000e+00 0.000000e+00)) ((1.035325e-21 2.595626e-21 3.100347e-08) (-1.617710e-24 -2.844921e-24 2.042269e-10) (0.000000e+00 0.000000e+00 0.000000e+00))
0.0008        	((-4.053683e-07 5.759658e-02 4.819366e-20) (9.870919e-09 6.665734e-05 -1.075868e-23) (0.000000e+00 0.000000e+00 0.000000e+00)) ((9.712715e-22 2.555435e-21 1.834901e-08) (-1.571692e-24 -2.930684e-24 2.226679e-10) (0.000000e+00 0.000000e+00 0.000000e+00))
0.0009        	((-4.050481e-07 5.609258e-02 4.565847e-20) (8.644882e-09 6.829842e-05 -8.312892e-24) (0.000000e+00 0.000000e+00 0.000000e+00)) ((9.210459e-22 2.523394e-21 1.927870e-08) (-1.598082e-24 -2.874245e-24 1.940643e-10) (0.000000e+00 0.000000e+00 0.000000e+00))
0.001         	((-3.134612e-07 5.481968e-02 4.359276e-20) (8.119047e-09 6.976992e-05 -2.089178e-24) (0.000000e+00 0.000000e+00 0.000000e+00)) ((8.810896e-22 2.500161e-21 1.174491e-08) (-1.510437e-24 -2.840407e-24 1.487224e-10) (0.000000e+00 0.000000e+00 0.000000e+00))
0.0011        	((1.668512e-08 5.371368e-02 4.185528e-20) (8.935351e-09 7.113383e-05 2.933323e-24) (0.000000e+00 0.000000e+00 0.000000e+00)) ((8.480780e-22 2.481441e-21 -1.507198e-08) (-1.439799e-24 -2.843015e-24 7.196541e-11) (0.000000e+00 0.000000e+00 0.000000e+00))
0.0012        	((-6.818949e-08 5.274850e-02 4.037885e-20) (1.070750e-08 7.239892e-05 6.907185e-24) (0.000000e+00 0.000000e+00 0.000000e+00)) ((8.203677e-22 2.466404e-21 -7.748075e-09) (-1.376970e-24 -2.911894e-24 -3.110589e-11) (0.000000e+00 0.000000e+00 0.000000e+00))
0.0013        	((-5.099052e-08 5.189142e-02 3.906274e-20) (1.274826e-08 7.359432e-05 1.130862e-23) (0.000000e+00 0.000000e+00 0.000000e+00)) ((7.957768e-22 2.453494e-21 -8.080434e-09) (-1.292356e-24 -2.970085e-24 -1.337680e-10) (0.000000e+00 0.000000e+00 0.000000e+00))
0.0014        	((-1.789285e-08 5.111620e-02 3.789005e-20) (1.446235e-08 7.473867e-05 1.451673e-23) (0.000000e+00 0.000000e+00 0.000000e+00)) ((7.739902e-22 2.442061e-21 -1.060648e-08) (-1.228265e-24 -3.030490e-24 -2.183870e-10) (0.000000e+00 0.000000e+00 0.000000e+00))
0.0015        	((2.200135e-07 5.041445e-02 3.682564e-20) (1.581314e-08 7.583795e-05 1.581013e-23) (0.000000e+00 0.000000e+00 0.000000e+00)) ((7.543684e-22 2.431854e-21 -1.795467e-08) (-1.209665e-24 -3.057379e-24 -2.422049e-10) (0.000000e+00 0.000000e+00 0.000000e+00))
0.0016        	((8.212516e-08 4.975873e-02 3.585492e-20) (1.493353e-08 7.689307e-05 1.655609e-23) (0.000000e+00 0.000000e+00 0.000000e+00)) ((7.365835e-22 2.421479e-21 -2.004878e-08) (-1.199087e-24 -3.145141e-24 -2.677599e-10) (0.000000e+00 0.000000e+00 0.000000e+00))
0.0017        	((-2.625723e-10 4.915518e-02 3.498884e-20) (1.275886e-08 7.789934e-05 1.669350e-23) (0.000000e+00 0.000000e+00 0.000000e+00)) ((7.208049e-22 2.411628e-21 -1.887622e-08) (-1.195790e-24 -3.223765e-24 -2.624008e-10) (0.000000e+00 0.000000e+00 0.000000e+00))
0.0018        	((1.198144e-07 4.859313e-02 3.418785e-20) (1.124418e-08 7.885740e-05 1.704545e-23) (0.000000e+00 0.000000e+00 0.000000e+00)) ((7.062642e-22 2.402042e-21 -2.076729e-08) (-1.182901e-24 -3.259010e-24 -2.286675e-10) (0.000000e+00 0.000000e+00 0.000000e+00))
0.0019        	((1.234462e-07 4.806196e-02 3.345021e-20) (9.830218e-09 7.977087e-05 1.770557e-23) (0.000000e+00 0.000000e+00 0.000000e+00)) ((6.928340e-22 2.391892e-21 -2.095141e-08) (-1.158250e-24 -3.293267e-24 -1.936509e-10) (0.000000e+00 0.000000e+00 0.000000e+00))
0.002         	((2.337384e-07 4.756024e-02 3.276274e-20) (9.755951e-09 8.063444e-05 1.709858e-23) (0.000000e+00 0.000000e+00 0.000000e+00)) ((6.803599e-22 2.381615e-21 -2.237616e-08) (-1.165105e-24 -3.327446e-24 -1.654302e-10) (0.000000e+00 0.000000e+00 0.000000e+00))
0.0021        	((7.435626e-08 4.708220e-02 3.212686e-20) (6.034540e-09 8.144509e-05 1.703397e-23) (0.000000e+00 0.000000e+00 0.000000e+00)) ((6.688487e-22 2.370787e-21 -1.960639e-08) (-1.155697e-24 -3.361951e-24 -1.083881e-10) (0.000000e+00 0.000000e+00 0.000000e+00))
0.0022        	((3.993520e-08 4.662619e-02 3.154406e-20) (4.686672e-09 8.220435e-05 1.669442e-23) (0.000000e+00 0.000000e+00 0.000000e+00)) ((6.583483e-22 2.359755e-21 -1.783969e-08) (-1.152112e-24 -3.406356e-24 -9.064416e-11) (0.000000e+00 0.000000e+00 0.000000e+00))
0.0023        	((6.118208e-08 4.619252e-02 3.100370e-20) (3.678698e-09 8.291509e-05 1.654494e-23) (0.000000e+00 0.000000e+00 0.000000e+00)) ((6.487042e-22 2.348632e-21 -1.970197e-08) (-1.143490e-24 -3.445658e-24 -7.247301e-11) (0.000000e+00 0.000000e+00 0.000000e+00))
0.0024        	((1.770100e-07 4.577100e-02 3.050539e-20) (2.492218e-09 8.357646e-05 1.143837e-23) (0.000000e+00 0.000000e+00 0.000000e+00)) ((6.398105e-22 2.336905e-21 -2.381224e-08) (-1.265217e-24 -3.390604e-24 -2.942849e-11) (0.000000e+00 0.000000e+00 0.000000e+00))
0.0025        	((1.766846e-07 4.536364e-02 3.004865e-20) (2.995204e-09 8.418603e-05 2.397954e-24) (0.000000e+00 0.000000e+00 0.000000e+00)) ((6.318427e-22 2.324913e-21 -2.485536e-08) (-1.492732e-24 -3.384421e-24 -1.677204e-11) (0.000000e+00 0.000000e+00 0.000000e+00))
0.0026        	((1.095320e-07 4.496654e-02 2.962368e-20) (2.588254e-09 8.475010e-05 -3.312851e-24) (0.000000e+00 0.000000e+00 0.000000e+00)) ((6.244315e-22 2.312590e-21 -2.400603e-08) (-1.631020e-24 -3.536009e-24 -2.203711e-11) (0.000000e+00 0.000000e+00 0.000000e+00))
0.0027        	((1.139422e-07 4.458327e-02 2.922284e-20) (-5.489708e-10 8.527337e-05 -7.292986e-24) (0.000000e+00 0.000000e+00 0.000000e+00)) ((6.175059e-22 2.300064e-21 -2.385977e-08) (-1.722492e-24 -3.533037e-24 3.202072e-11) (0.000000e+00 0.000000e+00 0.000000e+00))
0.0028        	((1.330793e-07 4.421233e-02 2.885486e-20) (-1.962609e-11 8.575340e-05 -1.180523e-23) (0.000000e+00 0.000000e+00 0.000000e+00)) ((6.111965e-22 2.287361e-21 -2.468097e-08) (-1.828762e-24 -3.550203e-24 2.502518e-11) (0.000000e+00 0.000000e+00 0.000000e+00))
0.0029        	((1.217402e-07 4.385537e-02 2.851161e-20) (4.409361e-10 8.619911e-05 -1.737529e-23) (0.000000e+00 0.000000e+00 0.000000e+00)) ((6.053611e-22 2.274776e-21 -2.324029e-08) (-1.962807e-24 -3.564862e-24 1.944343e-11) (0.000000e+00 0.000000e+00 0.000000e+00))
0.003         	((1.181555e-07 4.350878e-02 2.818854e-20) (7.661085e-10 8.660946e-05 -2.410319e-23) (0.000000e+00 0.000000e+00 0.000000e+00)) ((5.999301e-22 2.262172e-21 -2.194892e-08) (-2.127742e-24 -3.578376e-24 1.593785e-11) (0.000000e+00 0.000000e+00 0.000000e+00))
0.0031        	((1.715450e-07 4.317126e-02 2.789132e-20) (1.945415e-09 8.698728e-05 -2.509148e-23) (0.000000e+00 0.000000e+00 0.000000e+00)) ((5.949958e-22 2.249304e-21 -2.344979e-08) (-2.149584e-24 -3.496893e-24 1.995677e-11) (0.000000e+00 0.000000e+00 0.000000e+00))
0.0032        	((1.017099e-07 4.283842e-02 2.761477e-20) (1.392418e-09 8.733639e-05 -2.534748e-23) (0.000000e+00 0.000000e+00 0.000000e+00)) ((5.904685e-22 2.236436e-21 -2.070285e-08) (-2.152873e-24 -3.393343e-24 2.392794e-11) (0.000000e+00 0.000000e+00 0.000000e+00))
0.0033        	((8.894668e-08 4.251965e-02 2.734927e-20) (8.428299e-10 8.765490e-05 -3.037691e-23) (0.000000e+00 0.000000e+00 0.000000e+00)) ((5.860973e-22 2.223833e-21 -1.989656e-08) (-2.275962e-24 -3.376443e-24 2.272033e-11) (0.000000e+00 0.000000e+00 0.000000e+00))
0.0034        	((7.048410e-08 4.220806e-02 2.710242e-20) (4.271373e-10 8.794825e-05 -3.545637e-23) (0.000000e+00 0.000000e+00 0.000000e+00)) ((5.820585e-22 2.211179e-21 -1.840219e-08) (-2.400150e-24 -3.352135e-24 2.487431e-11) (0.000000e+00 0.000000e+00 0.000000e+00))
0.0035        	((7.654440e-08 4.190796e-02 2.686180e-20) (9.704576e-11 8.822258e-05 -3.983341e-23) (0.000000e+00 0.000000e+00 0.000000e+00)) ((5.781344e-22 2.198868e-21 -1.816410e-08) (-2.507114e-24 -3.314664e-24 2.659595e-11) (0.000000e+00 0.000000e+00 0.000000e+00))
0.0036        	((7.446873e-08 4.161683e-02 2.664001e-20) (-1.811511e-10 8.847076e-05 -4.360192e-23) (0.000000e+00 0.000000e+00 0.000000e+00)) ((5.745277e-22 2.186673e-21 -1.770702e-08) (-2.598301e-24 -3.263659e-24 2.992842e-11) (0.000000e+00 0.000000e+00 0.000000e+00))
0.0037        	((7.154442e-08 4.133291e-02 2.642943e-20) (-4.221242e-10 8.869445e-05 -4.471311e-23) (0.000000e+00 0.000000e+00 0.000000e+00)) ((5.710523e-22 2.174548e-21 -1.745948e-08) (-2.626283e-24 -3.254864e-24 3.389281e-11) (0.000000e+00 0.000000e+00 0.000000e+00))
0.0038        	((7.198528e-08 4.106054e-02 2.623242e-20) (-1.205743e-09 8.889651e-05 -4.625238e-23) (0.000000e+00 0.000000e+00 0.000000e+00)) ((5.678677e-22 2.162813e-21 -1.773039e-08) (-2.665338e-24 -3.234065e-24 3.941430e-11) (0.000000e+00 0.000000e+00 0.000000e+00))
0.0039        	((8.704039e-08 4.079515e-02 2.604760e-20) (-1.716838e-09 8.907586e-05 -5.022987e-23) (0.000000e+00 0.000000e+00 0.000000e+00)) ((5.648739e-22 2.151187e-21 -1.825501e-08) (-2.762630e-24 -3.182477e-24 4.163405e-11) (0.000000e+00 0.000000e+00 0.000000e+00))
0.004         	((1.099680e-07 4.053672e-02 2.587179e-20) (-4.154568e-10 8.923191e-05 -5.329257e-23) (0.000000e+00 0.000000e+00 0.000000e+00)) ((5.620290e-22 2.139728e-21 -1.860882e-08) (-2.837803e-24 -3.142178e-24 2.824415e-11) (0.000000e+00 0.000000e+00 0.000000e+00))
0.0041        	((1.186027e-07 4.028634e-02 2.570995e-20) (2.117569e-10 8.937074e-05 -5.652565e-23) (0.000000e+00 0.000000e+00 0.000000e+00)) ((5.594456e-22 2.128515e-21 -1.874234e-08) (-2.916221e-24 -3.094467e-24 2.464774e-11) (0.000000e+00 0.000000e+00 0.000000e+00))
0.0042        	((1.204126e-07 4.004403e-02 2.555882e-20) (4.115128e-10 8.949301e-05 -5.962159e-23) (0.000000e+00 0.000000e+00 0.000000e+00)) ((5.570572e-22 2.117570e-21 -1.870756e-08) (-2.990787e-24 -3.049256e-24 2.688461e-11) (0.000000e+00 0.000000e+00 0.000000e+00))
0.0043        	((6.387499e-08 3.980823e-02 2.541402e-20) (1.130840e-09 8.960172e-05 -6.254645e-23) (0.000000e+00 0.000000e+00 0.000000e+00)) ((5.547769e-22 2.106737e-21 -1.723807e-08) (-3.060178e-24 -3.017143e-24 1.478789e-12) (0.000000e+00 0.000000e+00 0.000000e+00))
0.0044        	((1.233996e-07 3.957937e-02 2.528675e-20) (8.027541e-10 8.969535e-05 -6.502519e-23) (0.000000e+00 0.000000e+00 0.000000e+00)) ((5.528029e-22 2.096215e-21 -1.855729e-08) (-3.118333e-24 -2.968882e-24 1.592806e-11) (0.000000e+00 0.000000e+00 0.000000e+00))
0.0045        	((1.130392e-07 3.935678e-02 2.516291e-20) (7.236635e-10 8.977697e-05 -6.772988e-23) (0.000000e+00 0.000000e+00 0.000000e+00)) ((5.509020e-22 2.085856e-21 -1.805941e-08) (-3.180020e-24 -2.923621e-24 1.787224e-11) (0.000000e+00 0.000000e+00 0.000000e+00))
0.0046        	((1.177900e-07 3.914047e-02 2.504563e-20) (2.244347e-10 8.985024e-05 -6.964794e-23) (0.000000e+00 0.000000e+00 0.000000e+00)) ((5.490912e-22 2.075667e-21 -1.800531e-08) (-3.224007e-24 -2.880286e-24 2.906100e-11) (0.000000e+00 0.000000e+00 0.000000e+00))
0.0047        	((1.645866e-07 3.893037e-02 2.493825e-20) (-1.025854e-09 8.990906e-05 -7.142675e-23) (0.000000e+00 0.000000e+00 0.000000e+00)) ((5.474903e-22 2.065780e-21 -1.835570e-08) (-3.264642e-24 -2.829416e-24 7.034851e-11) (0.000000e+00 0.000000e+00 0.000000e+00))
0.0048        	((1.160142e-07 3.872571e-02 2.483344e-20) (1.417103e-09 8.996268e-05 -7.313386e-23) (0.000000e+00 0.000000e+00 0.000000e+00)) ((5.459135e-22 2.056001e-21 -1.742598e-08) (-3.302971e-24 -2.775764e-24 3.753818e-11) (0.000000e+00 0.000000e+00 0.000000e+00))
0.0049        	((1.110622e-07 3.852722e-02 2.473462e-20) (1.528572e-10 9.000547e-05 -7.507496e-23) (0.000000e+00 0.000000e+00 0.000000e+00)) ((5.444548e-22 2.046488e-21 -1.778622e-08) (-3.345742e-24 -2.727568e-24 5.143194e-11) (0.000000e+00 0.000000e+00 0.000000e+00))
0.005         	((1.043253e-07 3.833347e-02 2.464458e-20) (-4.578859e-10 9.004157e-05 -7.761598e-23) (0.000000e+00 0.000000e+00 0.000000e+00)) ((5.431434e-22 2.037128e-21 -1.785567e-08) (-3.400204e-24 -2.706521e-24 5.359893e-11) (0.000000e+00 0.000000e+00 0.000000e+00))
0.0051        	((1.524720e-07 3.814540e-02 2.456012e-20) (-1.509417e-09 9.007191e-05 -7.516123e-23) (0.000000e+00 0.000000e+00 0.000000e+00)) ((5.419041e-22 2.027990e-21 -1.874089e-08) (-3.350525e-24 -2.729404e-24 8.934955e-11) (0.000000e+00 0.000000e+00 0.000000e+00))
0.0052        	((9.383548e-08 3.796292e-02 2.447614e-20) (-3.167681e-09 9.009562e-05 -8.004627e-23) (0.000000e+00 0.000000e+00 0.000000e+00)) ((5.406766e-22 2.019059e-21 -1.795103e-08) (-3.452290e-24 -2.746216e-24 1.084098e-10) (0.000000e+00 0.000000e+00 0.000000e+00))
0.0053        	((1.001927e-07 3.778534e-02 2.440002e-20) (-3.877618e-09 9.011302e-05 -8.204256e-23) (0.000000e+00 0.000000e+00 0.000000e+00)) ((5.395841e-22 2.010329e-21 -1.839736e-08) (-3.493581e-24 -2.722399e-24 1.160883e-10) (0.000000e+00 0.000000e+00 0.000000e+00))
0.0054        	((1.047853e-07 3.761245e-02 2.432885e-20) (-2.462093e-09 9.012406e-05 -8.298473e-23) (0.000000e+00 0.000000e+00 0.000000e+00)) ((5.385718e-22 2.001770e-21 -1.853972e-08) (-3.512431e-24 -2.687378e-24 9.636296e-11) (0.000000e+00 0.000000e+00 0.000000e+00))
0.0055        	((1.127523e-07 3.744409e-02 2.426234e-20) (-7.425552e-10 9.013085e-05 -8.369841e-23) (0.000000e+00 0.000000e+00 0.000000e+00)) ((5.376273e-22 1.993368e-21 -1.907610e-08) (-3.525812e-24 -2.659260e-24 7.313466e-11) (0.000000e+00 0.000000e+00 0.000000e+00))
0.0056        	((1.580576e-07 3.728129e-02 2.420076e-20) (-1.571601e-09 9.013192e-05 -8.269416e-23) (0.000000e+00 0.000000e+00 0.000000e+00)) ((5.367807e-22 1.985259e-21 -2.033843e-08) (-3.504603e-24 -2.595291e-24 9.651100e-11) (0.000000e+00 0.000000e+00 0.000000e+00))
0.0057        	((1.565868e-07 3.712266e-02 2.413642e-20) (-2.413351e-09 9.012960e-05 -8.526890e-23) (0.000000e+00 0.000000e+00 0.000000e+00)) ((5.358500e-22 1.977226e-21 -2.063999e-08) (-3.559015e-24 -2.594824e-24 1.150893e-10) (0.000000e+00 0.000000e+00 0.000000e+00))
0.0058        	((1.277197e-07 3.696654e-02 2.408025e-20) (-2.984381e-09 9.012329e-05 -8.655213e-23) (0.000000e+00 0.000000e+00 0.000000e+00)) ((5.350590e-22 1.969259e-21 -2.018832e-08) (-3.583635e-24 -2.566094e-24 1.182449e-10) (0.000000e+00 0.000000e+00 0.000000e+00))
0.0059        	((1.266426e-07 3.681626e-02 2.402528e-20) (-3.012044e-09 9.011452e-05 -8.822585e-23) (0.000000e+00 0.000000e+00 0.000000e+00)) ((5.342790e-22 1.961577e-21 -2.071069e-08) (-3.614524e-24 -2.539875e-24 1.145457e-10) (0.000000e+00 0.000000e+00 0.000000e+00))
0.006         	((1.295035e-07 3.666960e-02 2.397449e-20) (-2.996191e-09 9.010509e-05 -8.901326e-23) (0.000000e+00 0.000000e+00 0.000000e+00)) ((5.335602e-22 1.954041e-21 -2.086945e-08) (-3.629413e-24 -2.526241e-24 1.112210e-10) (0.000000e+00 0.000000e+00 0.000000e+00))
0.0061        	((1.090604e-07 3.652620e-02 2.392484e-20) (-2.330185e-09 9.009105e-05 -9.093638e-23) (0.000000e+00 0.000000e+00 0.000000e+00)) ((5.328539e-22 1.946611e-21 -2.119521e-08) (-3.664574e-24 -2.503958e-24 9.046587e-11) (0.000000e+00 0.000000e+00 0.000000e+00))
0.0062        	((1.214916e-07 3.638672e-02 2.387825e-20) (-2.329404e-09 9.007631e-05 -8.958300e-23) (0.000000e+00 0.000000e+00 0.000000e+00)) ((5.321876e-22 1.939339e-21 -2.220326e-08) (-3.640645e-24 -2.519095e-24 8.258691e-11) (0.000000e+00 0.000000e+00 0.000000e+00))
0.0063        	((1.292839e-07 3.625067e-02 2.383374e-20) (-2.780566e-09 9.005988e-05 -8.731991e-23) (0.000000e+00 0.000000e+00 0.000000e+00)) ((5.315456e-22 1.932196e-21 -2.246284e-08) (-3.600049e-24 -2.548039e-24 8.436285e-11) (0.000000e+00 0.000000e+00 0.000000e+00))
0.0064        	((1.626886e-07 3.611938e-02 2.378936e-20) (-1.898524e-09 9.004133e-05 -8.687346e-23) (0.000000e+00 0.000000e+00 0.000000e+00)) ((5.309005e-22 1.925289e-21 -2.301493e-08) (-3.591847e-24 -2.557179e-24 8.079519e-11) (0.000000e+00 0.000000e+00 0.000000e+00))
0.0065        	((1.644951e-07 3.599087e-02 2.374844e-20) (-1.970244e-09 9.002031e-05 -9.034596e-23) (0.000000e+00 0.000000e+00 0.000000e+00)) ((5.303046e-22 1.918473e-21 -2.321399e-08) (-3.653260e-24 -2.530894e-24 8.542260e-11) (0.000000e+00 0.000000e+00 0.000000e+00))
0.0066        	((1.617083e-07 3.586403e-02 2.371097e-20) (-2.665597e-09 8.999793e-05 -8.458498e-23) (0.000000e+00 0.000000e+00 0.000000e+00)) ((5.297456e-22 1.911685e-21 -2.170313e-08) (-3.551185e-24 -2.580644e-24 1.057740e-10) (0.000000e+00 0.000000e+00 0.000000e+00))
0.0067        	((1.604058e-07 3.574169e-02 2.367310e-20) (-3.273875e-09 8.997397e-05 -8.468241e-23) (0.000000e+00 0.000000e+00 0.000000e+00)) ((5.291881e-22 1.905127e-21 -2.161387e-08) (-3.553751e-24 -2.575307e-24 1.221604e-10) (0.000000e+00 0.000000e+00 0.000000e+00))
0.0068        	((1.420504e-07 3.562196e-02 2.363646e-20) (-3.332517e-09 8.994925e-05 -8.674683e-23) (0.000000e+00 0.000000e+00 0.000000e+00)) ((5.286316e-22 1.898678e-21 -2.089958e-08) (-3.587391e-24 -2.631902e-24 1.240264e-10) (0.000000e+00 0.000000e+00 0.000000e+00))
0.0069        	((1.288927e-07 3.550519e-02 2.360237e-20) (-2.741263e-09 8.992244e-05 -9.439638e-23) (0.000000e+00 0.000000e+00 0.000000e+00)) ((5.281199e-22 1.892345e-21 -2.093671e-08) (-3.723125e-24 -2.570426e-24 1.104680e-10) (0.000000e+00 0.000000e+00 0.000000e+00))
0.007         	((1.496440e-07 3.539080e-02 2.357058e-20) (-3.096855e-09 8.989557e-05 -8.987264e-23) (0.000000e+00 0.000000e+00 0.000000e+00)) ((5.276259e-22 1.886111e-21 -2.019122e-08) (-3.642072e-24 -2.638080e-24 1.227045e-10) (0.000000e+00 0.000000e+00 0.000000e+00))
0.0071        	((1.388396e-07 3.527972e-02 2.353743e-20) (-3.114589e-09 8.986852e-05 -9.142598e-23) (0.000000e+00 0.000000e+00 0.000000e+00)) ((5.271091e-22 1.880032e-21 -2.027776e-08) (-3.666945e-24 -2.692450e-24 1.230230e-10) (0.000000e+00 0.000000e+00 0.000000e+00))
0.0072        	((1.304139e-07 3.517118e-02 2.350673e-20) (-3.368813e-09 8.984000e-05 -8.898082e-23) (0.000000e+00 0.000000e+00 0.000000e+00)) ((5.266235e-22 1.874069e-21 -1.912667e-08) (-3.629168e-24 -2.667556e-24 1.306048e-10) (0.000000e+00 0.000000e+00 0.000000e+00))
0.0073        	((1.210075e-07 3.506554e-02 2.347657e-20) (-3.249034e-09 8.981160e-05 -9.381077e-23) (0.000000e+00 0.000000e+00 0.000000e+00)) ((5.261414e-22 1.868235e-21 -1.865525e-08) (-3.707619e-24 -2.723149e-24 1.299431e-10) (0.000000e+00 0.000000e+00 0.000000e+00))
0.0074        	((1.163742e-07 3.496244e-02 2.344924e-20) (-3.103464e-09 8.978165e-05 -9.790627e-23) (0.000000e+00 0.000000e+00 0.000000e+00)) ((5.256937e-22 1.862510e-21 -1.833446e-08) (-3.778558e-24 -2.697641e-24 1.272603e-10) (0.000000e+00 0.000000e+00 0.000000e+00))
0.0075        	((1.092179e-07 3.486166e-02 2.342262e-20) (-3.149254e-09 8.975136e-05 -9.524556e-23) (0.000000e+00 0.000000e+00 0.000000e+00)) ((5.252453e-22 1.856889e-21 -1.726592e-08) (-3.736154e-24 -2.713874e-24 1.293905e-10) (0.000000e+00 0.000000e+00 0.000000e+00))
0.0076        	((1.045733e-07 3.476403e-02 2.339668e-20) (-2.807379e-09 8.972040e-05 -9.900215e-23) (0.000000e+00 0.000000e+00 0.000000e+00)) ((5.248089e-22 1.851425e-21 -1.720277e-08) (-3.800620e-24 -2.687084e-24 1.233387e-10) (0.000000e+00 0.000000e+00 0.000000e+00))
0.0077        	((1.080105e-07 3.466875e-02 2.337219e-20) (-3.172092e-09 8.968926e-05 -9.059333e-23) (0.000000e+00 0.000000e+00 0.000000e+00)) ((5.243817e-22 1.846071e-21 -1.658733e-08) (-3.662045e-24 -2.673878e-24 1.314381e-10) (0.000000e+00 0.000000e+00 0.000000e+00))
0.0078        	((1.085452e-07 3.457608e-02 2.334802e-20) (-3.039725e-09 8.965799e-05 -9.627235e-23) (0.000000e+00 0.000000e+00 0.000000e+00)) ((5.239542e-22 1.840837e-21 -1.687298e-08) (-3.756119e-24 -2.717218e-24 1.295559e-10) (0.000000e+00 0.000000e+00 0.000000e+00))
0.0079        	((1.101966e-07 3.448575e-02 2.332433e-20) (-3.151880e-09 8.962655e-05 -9.500611e-23) (0.000000e+00 0.000000e+00 0.000000e+00)) ((5.235286e-22 1.835726e-21 -1.695481e-08) (-3.736808e-24 -2.711744e-24 1.315334e-10) (0.000000e+00 0.000000e+00 0.000000e+00))
0.008         	((1.130474e-07 3.439787e-02 2.330112e-20) (-2.929150e-09 8.959485e-05 -9.871852e-23) (0.000000e+00 0.000000e+00 0.000000e+00)) ((5.231051e-22 1.830731e-21 -1.746327e-08) (-3.798593e-24 -2.702183e-24 1.272404e-10) (0.000000e+00 0.000000e+00 0.000000e+00))
0.0081        	((1.182091e-07 3.431216e-02 2.327952e-20) (-2.989163e-09 8.956333e-05 -9.393213e-23) (0.000000e+00 0.000000e+00 0.000000e+00)) ((5.226955e-22 1.825845e-21 -1.747154e-08) (-3.722172e-24 -2.737073e-24 1.297032e-10) (0.000000e+00 0.000000e+00 0.000000e+00))
0.0082        	((1.230755e-07 3.422919e-02 2.325729e-20) (-3.022865e-09 8.953171e-05 -9.402422e-23) (0.000000e+00 0.000000e+00 0.000000e+00)) ((5.222748e-22 1.821110e-21 -1.777760e-08) (-3.724196e-24 -2.742765e-24 1.309656e-10) (0.000000e+00 0.000000e+00 0.000000e+00))
0.0083        	((1.274520e-07 3.414824e-02 2.323587e-20) (-3.108304e-09 8.950012e-05 -9.203541e-23) (0.000000e+00 0.000000e+00 0.000000e+00)) ((5.218602e-22 1.816475e-21 -1.803491e-08) (-3.695598e-24 -2.749747e-24 1.329870e-10) (0.000000e+00 0.000000e+00 0.000000e+00))
0.0084        	((1.301676e-07 3.406924e-02 2.321432e-20) (-3.026195e-09 8.946850e-05 -9.051536e-23) (0.000000e+00 0.000000e+00 0.000000e+00)) ((5.214428e-22 1.811940e-21 -1.849117e-08) (-3.673947e-24 -2.758809e-24 1.320384e-10) (0.000000e+00 0.000000e+00 0.000000e+00))
0.0085        	((1.313344e-07 3.399284e-02 2.319400e-20) (-2.999866e-09 8.943702e-05 -8.999546e-23) (0.000000e+00 0.000000e+00 0.000000e+00)) ((5.210336e-22 1.807545e-21 -1.842384e-08) (-3.666233e-24 -2.761422e-24 1.326572e-10) (0.000000e+00 0.000000e+00 0.000000e+00))
0.0086        	((1.329370e-07 3.391840e-02 2.317349e-20) (-3.090419e-09 8.940565e-05 -9.025230e-23) (0.000000e+00 0.000000e+00 0.000000e+00)) ((5.206177e-22 1.803259e-21 -1.853019e-08) (-3.670074e-24 -2.779537e-24 1.346993e-10) (0.000000e+00 0.000000e+00 0.000000e+00))
0.0087        	((1.342694e-07 3.384608e-02 2.315231e-20) (-3.019590e-09 8.937431e-05 -8.788019e-23) (0.000000e+00 0.000000e+00 0.000000e+00)) ((5.201899e-22 1.799092e-21 -1.863762e-08) (-3.637384e-24 -2.791793e-24 1.342161e-10) (0.000000e+00 0.000000e+00 0.000000e+00))
0.0088        	((1.344496e-07 3.377583e-02 2.313185e-20) (-3.184755e-09 8.934310e-05 -8.629197e-23) (0.000000e+00 0.000000e+00 0.000000e+00)) ((5.197687e-22 1.795037e-21 -1.852792e-08) (-3.615500e-24 -2.806916e-24 1.377108e-10) (0.000000e+00 0.000000e+00 0.000000e+00))
0.0089        	((1.343178e-07 3.370767e-02 2.311226e-20) (-3.404472e-09 8.931218e-05 -8.866340e-23) (0.000000e+00 0.000000e+00 0.000000e+00)) ((5.193576e-22 1.791098e-21 -1.850526e-08) (-3.649527e-24 -2.827733e-24 1.414980e-10) (0.000000e+00 0.000000e+00 0.000000e+00))
0.009         	((1.356381e-07 3.364125e-02 2.309320e-20) (-3.541728e-09 8.928145e-05 -8.822442e-23) (0.000000e+00 0.000000e+00 0.000000e+00)) ((5.189502e-22 1.787255e-21 -1.859316e-08) (-3.643884e-24 -2.844116e-24 1.439335e-10) (0.000000e+00 0.000000e+00 0.000000e+00))
0.0091        	((1.369144e-07 3.357694e-02 2.307386e-20) (-3.487379e-09 8.925086e-05 -8.422026e-23) (0.000000e+00 0.000000e+00 0.000000e+00)) ((5.185383e-22 1.783534e-21 -1.864997e-08) (-3.588729e-24 -2.867731e-24 1.433036e-10) (0.000000e+00 0.000000e+00 0.000000e+00))
0.0092        	((1.358903e-07 3.351505e-02 2.305460e-20) (-3.469967e-09 8.922053e-05 -8.228868e-23) (0.000000e+00 0.000000e+00 0.000000e+00)) ((5.181240e-22 1.779955e-21 -1.850085e-08) (-3.564536e-24 -2.885432e-24 1.431993e-10) (0.000000e+00 0.000000e+00 0.000000e+00))
0.0093        	((1.441090e-07 3.345492e-02 2.303183e-20) (-3.483040e-09 8.919044e-05 -8.354675e-23) (0.000000e+00 0.000000e+00 0.000000e+00)) ((5.176630e-22 1.776489e-21 -1.902830e-08) (-3.582533e-24 -2.901609e-24 1.436206e-10) (0.000000e+00 0.000000e+00 0.000000e+00))
0.0094        	((1.359911e-07 3.339591e-02 2.301806e-20) (-3.465902e-09 8.916063e-05 -8.813228e-23) (0.000000e+00 0.000000e+00 0.000000e+00)) ((5.173167e-22 1.773048e-21 -1.844517e-08) (-3.645775e-24 -2.917929e-24 1.436404e-10) (0.000000e+00 0.000000e+00 0.000000e+00))
0.0095        	((1.363706e-07 3.333947e-02 2.299710e-20) (-3.349592e-09 8.913101e-05 -8.523939e-23) (0.000000e+00 0.000000e+00 0.000000e+00)) ((5.168770e-22 1.769794e-21 -1.819745e-08) (-3.607368e-24 -2.930059e-24 1.423376e-10) (0.000000e+00 0.000000e+00 0.000000e+00))
0.0096        	((1.362665e-07 3.328472e-02 2.297793e-20) (-3.314400e-09 8.910165e-05 -8.579246e-23) (0.000000e+00 0.000000e+00 0.000000e+00)) ((5.164596e-22 1.766628e-21 -1.798971e-08) (-3.615991e-24 -2.946106e-24 1.420234e-10) (0.000000e+00 0.000000e+00 0.000000e+00))
0.0097        	((1.283460e-07 3.323122e-02 2.296183e-20) (-3.310336e-09 8.907256e-05 -8.298998e-23) (0.000000e+00 0.000000e+00 0.000000e+00)) ((5.160830e-22 1.763522e-21 -1.733834e-08) (-3.579044e-24 -2.965941e-24 1.418332e-10) (0.000000e+00 0.000000e+00 0.000000e+00))
0.0098        	((1.361518e-07 3.317983e-02 2.293961e-20) (-3.310810e-09 8.904372e-05 -8.454014e-23) (0.000000e+00 0.000000e+00 0.000000e+00)) ((5.156256e-22 1.760568e-21 -1.772276e-08) (-3.599126e-24 -2.983187e-24 1.417863e-10) (0.000000e+00 0.000000e+00 0.000000e+00))
0.0099        	((1.343743e-07 3.312982e-02 2.292523e-20) (-3.372467e-09 8.901519e-05 -8.653040e-23) (0.000000e+00 0.000000e+00 0.000000e+00)) ((5.152678e-22 1.757665e-21 -1.759362e-08) (-3.628794e-24 -3.002153e-24 1.423334e-10) (0.000000e+00 0.000000e+00 0.000000e+00))
0.01          	((1.347413e-07 3.308161e-02 2.290624e-20) (-3.314431e-09 8.898682e-05 -8.438373e-23) (0.000000e+00 0.000000e+00 0.000000e+00)) ((5.148501e-22 1.754891e-21 -1.755760e-08) (-3.599729e-24 -3.011066e-24 1.413581e-10) (0.000000e+00 0.000000e+00 0.000000e+00))
0.0101        	((1.383873e-07 3.303512e-02 2.288693e-20) (-3.319522e-09 8.895866e-05 -8.498346e-23) (0.000000e+00 0.000000e+00 0.000000e+00)) ((5.144265e-22 1.752220e-21 -1.778515e-08) (-3.608702e-24 -3.027384e-24 1.412858e-10) (0.000000e+00 0.000000e+00 0.000000e+00))
0.0102        	((1.373416e-07 3.298986e-02 2.286940e-20) (-3.357177e-09 8.893061e-05 -8.300816e-23) (0.000000e+00 0.000000e+00 0.000000e+00)) ((5.140247e-22 1.749618e-21 -1.772876e-08) (-3.583364e-24 -3.049058e-24 1.415005e-10) (0.000000e+00 0.000000e+00 0.000000e+00))
0.0103        	((1.381918e-07 3.294645e-02 2.285104e-20) (-3.324074e-09 8.890275e-05 -8.461697e-23) (0.000000e+00 0.000000e+00 0.000000e+00)) ((5.136118e-22 1.747132e-21 -1.773474e-08) (-3.606011e-24 -3.056822e-24 1.410868e-10) (0.000000e+00 0.000000e+00 0.000000e+00))
0.0104        	((1.389890e-07 3.290441e-02 2.283374e-20) (-3.343177e-09 8.887499e-05 -8.281954e-23) (0.000000e+00 0.000000e+00 0.000000e+00)) ((5.132124e-22 1.744727e-21 -1.776977e-08) (-3.582845e-24 -3.076624e-24 1.412118e-10) (0.000000e+00 0.000000e+00 0.000000e+00))
0.0105        	((1.404803e-07 3.286392e-02 2.281675e-20) (-3.348023e-09 8.884732e-05 -8.235986e-23) (0.000000e+00 0.000000e+00 0.000000e+00)) ((5.128162e-22 1.742417e-21 -1.787775e-08) (-3.577702e-24 -3.092447e-24 1.411782e-10) (0.000000e+00 0.000000e+00 0.000000e+00))
0.0106        	((1.408983e-07 3.282484e-02 2.279890e-20) (-3.331373e-09 8.881973e-05 -8.218595e-23) (0.000000e+00 0.000000e+00 0.000000e+00)) ((5.124089e-22 1.740198e-21 -1.793699e-08) (-3.576412e-24 -3.107356e-24 1.410495e-10) (0.000000e+00 0.000000e+00 0.000000e+00))
0.0107        	((1.424643e-07 3.278723e-02 2.278162e-20) (-3.333265e-09 8.879224e-05 -8.194688e-23) (0.000000e+00 0.000000e+00 0.000000e+00)) ((5.120092e-22 1.738067e-21 -1.798762e-08) (-3.574212e-24 -3.122720e-24 1.412867e-10) (0.000000e+00 0.000000e+00 0.000000e+00))
0.0108        	((1.422715e-07 3.275097e-02 2.276362e-20) (-3.340807e-09 8.876473e-05 -8.128572e-23) (0.000000e+00 0.000000e+00 0.000000e+00)) ((5.115987e-22 1.736029e-21 -1.799464e-08) (-3.566339e-24 -3.138617e-24 1.414593e-10) (0.000000e+00 0.000000e+00 0.000000e+00))
0.0109        	((1.430108e-07 3.271604e-02 2.274673e-20) (-3.378534e-09 8.873717e-05 -8.061076e-23) (0.000000e+00 0.000000e+00 0.000000e+00)) ((5.112022e-22 1.734068e-21 -1.803444e-08) (-3.558253e-24 -3.154668e-24 1.420310e-10) (0.000000e+00 0.000000e+00 0.000000e+00))