/*--------------------------------*- C++ -*----------------------------------*\
  =========                 |
  \\      /  F ield         | OpenFOAM: The Open Source CFD Toolbox
   \\    /   O peration     | Website:  https://openfoam.org
    \\  /    A nd           | Version:  8
     \\/     M anipulation  |
\*---------------------------------------------------------------------------*/
FoamFile
{
    version     2.0;
    format      ascii;
    class       volVectorField;
    location    "0.35";
    object      U;
}
// * * * * * * * * * * * * * * * * * * * * * * * * * * * * * * * * * * * * * //

dimensions      [0 1 -1 0 0 0 0];

internalField   nonuniform List<vector> 
15677
(
(-0.0199285 9.66511 0)
(0.0435656 9.92088 0)
(0.002383 9.37817 0)
(0.014728 9.9765 0)
(0.0186102 9.78792 0)
(0.0070231 9.14247 0)
(0.027948 9.99437 0)
(0.0171027 9.92496 0)
(0.0107385 9.65514 0)
(0.00609272 8.95998 0)
(0.0260878 10.0016 0)
(0.0214944 9.97871 0)
(0.0164032 9.85361 0)
(0.00903668 9.53032 0)
(0.00492546 8.8163 0)
(0.0249277 10.0047 0)
(0.0223619 10.0028 0)
(0.0191929 9.94312 0)
(0.0154036 9.77935 0)
(0.00791539 9.41908 0)
(0.00406234 8.70116 0)
(0.0239417 10.0062 0)
(0.0225325 10.0144 0)
(0.0208056 9.98632 0)
(0.0183277 9.90247 0)
(0.0139609 9.7076 0)
(0.00685774 9.3204 0)
(0.00340099 8.60809 0)
(0.0225912 10.0067 0)
(0.0223627 10.0201 0)
(0.0216343 10.0083 0)
(0.0202421 9.96508 0)
(0.0171366 9.86164 0)
(0.0125592 9.6399 0)
(0.00592339 9.23438 0)
(0.00284789 8.53311 0)
(0.0208944 10.0067 0)
(0.0218136 10.0225 0)
(0.0219621 10.0198 0)
(0.0213467 9.99823 0)
(0.019207 9.94355 0)
(0.0157949 9.82158 0)
(0.0112233 9.57786 0)
(0.0050596 9.16111 0)
(0.00233864 8.47352 0)
(0.0189644 10.0063 0)
(0.020967 10.0228 0)
(0.0218595 10.0257 0)
(0.0218629 10.0164 0)
(0.0204134 9.98805 0)
(0.0179051 9.92221 0)
(0.0143682 9.78383 0)
(0.00985941 9.52295 0)
(0.00420855 9.10041 0)
(0.0018351 8.42785 0)
(0.0168765 10.0058 0)
(0.0198962 10.022 0)
(0.0214102 10.0287 0)
(0.0219196 10.0264 0)
(0.0210028 10.013 0)
(0.0191088 9.97809 0)
(0.0164203 9.90225 0)
(0.0127867 9.74989 0)
(0.00840378 9.47618 0)
(0.00332519 9.05207 0)
(0.00130865 8.39513 0)
(0.014648 10.0051 0)
(0.0185874 10.0205 0)
(0.020656 10.0294 0)
(0.0216194 10.0318 0)
(0.021091 10.0273 0)
(0.0196331 10.0099 0)
(0.0175209 9.96935 0)
(0.0146672 9.88491 0)
(0.0109857 9.72097 0)
(0.00680764 9.43835 0)
(0.00236933 9.01608 0)
(0.000736474 8.37511 0)
(0.0123166 10.0044 0)
(0.0171482 10.0185 0)
(0.0196041 10.0287 0)
(0.0209828 10.0343 0)
(0.020755 10.0353 0)
(0.0196276 10.0284 0)
(0.0178832 10.008 0)
(0.0155512 9.9629 0)
(0.0125647 9.87125 0)
(0.00890569 9.69814 0)
(0.00502121 9.41023 0)
(0.00130773 8.99249 0)
(8.46675e-05 8.36758 0)
(0.0100224 10.0036 0)
(0.0156395 10.0162 0)
(0.0183018 10.027 0)
(0.0200302 10.0347 0)
(0.0200953 10.0394 0)
(0.0191816 10.0392 0)
(0.0176688 10.0307 0)
(0.0156341 10.0082 0)
(0.0131034 9.95968 0)
(0.0100368 9.86225 0)
(0.00648363 9.68249 0)
(0.00299779 9.39248 0)
(0.000126097 8.98149 0)
(-0.000556613 8.37254 0)
(0.00805033 10.0029 0)
(0.0140244 10.0137 0)
(0.0167958 10.0246 0)
(0.0187743 10.0336 0)
(0.0191 10.041 0)
(0.0183536 10.0451 0)
(0.0169713 10.0441 0)
(0.0150784 10.0351 0)
(0.012769 10.0115 0)
(0.0100805 9.96055 0)
(0.00700204 9.85895 0)
(0.00365736 9.675 0)
(0.000690275 9.38578 0)
(-0.00122319 8.9834 0)
(-0.00132771 8.39009 0)
(0.00652328 10.0022 0)
(0.0124722 10.0114 0)
(0.0151199 10.0218 0)
(0.0172274 10.0315 0)
(0.0177773 10.0406 0)
(0.0171573 10.0478 0)
(0.0158381 10.0518 0)
(0.0139792 10.0511 0)
(0.0117203 10.0423 0)
(0.00916983 10.0186 0)
(0.00637812 9.96645 0)
(0.00337902 9.86234 0)
(0.000356826 9.67666 0)
(-0.00194321 9.39074 0)
(-0.00275528 8.99838 0)
(-0.00219825 8.4205 0)
(0.00535576 10.0018 0)
(0.0110409 10.0094 0)
(0.0134809 10.0189 0)
(0.0154176 10.0286 0)
(0.0161328 10.0388 0)
(0.0156001 10.0482 0)
(0.0142883 10.0556 0)
(0.0123814 10.0604 0)
(0.0100502 10.0608 0)
(0.00745279 10.0533 0)
(0.00470741 10.0304 0)
(0.00189442 9.97832 0)
(-0.000895443 9.87344 0)
(-0.00342038 9.68832 0)
(-0.00490513 9.40791 0)
(-0.004471 9.0267 0)
(-0.00316482 8.46386 0)
(0.00438346 10.0014 0)
(0.00965888 10.0077 0)
(0.0119793 10.0165 0)
(0.0135849 10.0256 0)
(0.0141801 10.036 0)
(0.013686 10.0468 0)
(0.0123272 10.0567 0)
(0.0103019 10.0653 0)
(0.00780019 10.0717 0)
(0.00501643 10.0741 0)
(0.00212142 10.0687 0)
(-0.00074877 10.0479 0)
(-0.00347854 9.99708 0)
(-0.00592243 9.89317 0)
(-0.00775666 9.7108 0)
(-0.00824448 9.43773 0)
(-0.00637958 9.06843 0)
(-0.00422476 8.5202 0)
(0.00359419 10.0011 0)
(0.00842196 10.0064 0)
(0.0105679 10.0143 0)
(0.0118871 10.0228 0)
(0.0121646 10.0328 0)
(0.0114253 10.0441 0)
(0.00995659 10.0558 0)
(0.00774357 10.067 0)
(0.00498131 10.0775 0)
(0.00189547 10.0864 0)
(-0.00130699 10.0917 0)
(-0.00444156 10.0895 0)
(-0.00733367 10.0717 0)
(-0.00983012 10.0236 0)
(-0.0117387 9.9224 0)
(-0.0126851 9.74469 0)
(-0.0119758 9.48047 0)
(-0.00848665 9.12366 0)
(-0.00537635 8.58937 0)
(0.0029499 10.0009 0)
(0.00729956 10.0054 0)
(0.0092699 10.0125 0)
(0.0102941 10.0204 0)
(0.0102745 10.0297 0)
(0.00909336 10.0406 0)
(0.007187 10.0531 0)
(0.00470663 10.0663 0)
(0.00159009 10.0798 0)
(-0.00190607 10.0931 0)
(-0.00555334 10.1053 0)
(-0.00912099 10.1145 0)
(-0.0123895 10.1164 0)
(-0.0151548 10.1029 0)
(-0.0172289 10.0588 0)
(-0.0183808 9.96186 0)
(-0.0182141 9.79053 0)
(-0.0160949 9.53629 0)
(-0.01078 9.19217 0)
(-0.00660853 8.67105 0)
(0.00241937 10.0008 0)
(0.00628162 10.0045 0)
(0.00807346 10.0109 0)
(0.00881517 10.0181 0)
(0.00848941 10.0267 0)
(0.00691119 10.0372 0)
(0.00435137 10.0494 0)
(0.0012006 10.0636 0)
(-0.00236657 10.0792 0)
(-0.00639555 10.0957 0)
(-0.0106204 10.1126 0)
(-0.0147785 10.1292 0)
(-0.0186091 10.1432 0)
(-0.0218619 10.1504 0)
(-0.0243064 10.1422 0)
(-0.0257261 10.1033 0)
(-0.0258667 10.0121 0)
(-0.0243365 9.84857 0)
(-0.0205875 9.60515 0)
(-0.0132517 9.27377 0)
(-0.00791365 8.76479 0)
(0.00199695 10.0006 0)
(0.00536294 10.0038 0)
(0.0069761 10.0095 0)
(0.0074571 10.0162 0)
(0.00682891 10.024 0)
(0.00485849 10.0337 0)
(0.00171383 10.0455 0)
(-0.00235226 10.0596 0)
(-0.00687265 10.0763 0)
(-0.0115709 10.0951 0)
(-0.0165239 10.1155 0)
(-0.0214348 10.137 0)
(-0.0260044 10.1588 0)
(-0.029943 10.1787 0)
(-0.0329764 10.1921 0)
(-0.0348544 10.1902 0)
(-0.0353451 10.1578 0)
(-0.0341887 10.0736 0)
(-0.0310296 9.91893 0)
(-0.0254242 9.68684 0)
(-0.015871 9.36782 0)
(-0.00927014 8.86976 0)
(0.0016721 10.0005 0)
(0.00458022 10.0033 0)
(0.00597565 10.0084 0)
(0.00622064 10.0144 0)
(0.00530779 10.0216 0)
(0.002963 10.0305 0)
(-0.000749382 10.0415 0)
(-0.0056315 10.0551 0)
(-0.0114051 10.0717 0)
(-0.0174108 10.0918 0)
(-0.0232674 10.1147 0)
(-0.0291159 10.1399 0)
(-0.034616 10.167 0)
(-0.0394363 10.195 0)
(-0.0432653 10.2216 0)
(-0.0458151 10.2422 0)
(-0.0468288 10.2476 0)
(-0.0460759 10.2226 0)
(-0.0433153 10.1465 0)
(-0.0382479 10.0015 0)
(-0.0305615 9.78087 0)
(-0.0186169 9.47375 0)
(-0.0106601 8.98525 0)
(0.00141922 10.0005 0)
(0.00394768 10.0029 0)
(0.00510562 10.0074 0)
(0.00510602 10.0128 0)
(0.0039329 10.0193 0)
(0.00124314 10.0274 0)
(-0.003002 10.0375 0)
(-0.00867789 10.0503 0)
(-0.0155652 10.0664 0)
(-0.0232402 10.0864 0)
(-0.0308233 10.1107 0)
(-0.0378297 10.1387 0)
(-0.0444844 10.1697 0)
(-0.0504078 10.2033 0)
(-0.055246 10.2385 0)
(-0.0586784 10.2727 0)
(-0.0604182 10.3012 0)
(-0.0602208 10.3148 0)
(-0.0578763 10.298 0)
(-0.0531821 10.2307 0)
(-0.045926 10.0959 0)
(-0.0359452 9.88664 0)
(-0.0214317 9.59052 0)
(-0.0120441 9.10962 0)
(0.0012187 10.0004 0)
(0.0034326 10.0025 0)
(0.00438342 10.0066 0)
(0.00415159 10.0114 0)
(0.00270798 10.0171 0)
(-0.00028933 10.0244 0)
(-0.00502064 10.0337 0)
(-0.0114431 10.0455 0)
(-0.0194052 10.0607 0)
(-0.028563 10.0801 0)
(-0.0383216 10.1043 0)
(-0.0475421 10.1338 0)
(-0.0556243 10.1678 0)
(-0.0629179 10.2056 0)
(-0.0690167 10.2467 0)
(-0.0735601 10.2898 0)
(-0.0762356 10.3325 0)
(-0.0767787 10.3697 0)
(-0.0749768 10.3919 0)
(-0.0706641 10.384 0)
(-0.0637018 10.3261 0)
(-0.0539773 10.2015 0)
(-0.0414634 10.0032 0)
(-0.0242047 9.71683 0)
(-0.012984 9.24118 0)
(0.00105732 10.0004 0)
(0.00301288 10.0023 0)
(0.00379216 10.0059 0)
(0.00337779 10.0102 0)
(0.00168019 10.0152 0)
(-0.00162661 10.0217 0)
(-0.00678844 10.0299 0)
(-0.0138931 10.0407 0)
(-0.0228667 10.0548 0)
(-0.0334509 10.0732 0)
(-0.0451413 10.0967 0)
(-0.0571411 10.126 0)
(-0.0679957 10.1617 0)
(-0.0769927 10.2028 0)
(-0.0846644 10.2483 0)
(-0.090598 10.2977 0)
(-0.0944469 10.3497 0)
(-0.0959312 10.4014 0)
(-0.0948342 10.4478 0)
(-0.0910013 10.4792 0)
(-0.0843262 10.4805 0)
(-0.0747508 10.4321 0)
(-0.0622592 10.3177 0)
(-0.0470649 10.1295 0)
(-0.0269506 9.8524 0)
(-0.0140275 9.37991 0)
(0.000925803 10.0003 0)
(0.00266877 10.002 0)
(0.00330569 10.0054 0)
(0.00275571 10.0092 0)
(0.000868849 10.0136 0)
(-0.0027172 10.0191 0)
(-0.00829398 10.0263 0)
(-0.0160039 10.036 0)
(-0.0259055 10.0488 0)
(-0.0378334 10.0659 0)
(-0.0513812 10.0882 0)
(-0.0658486 10.1168 0)
(-0.0801913 10.1522 0)
(-0.0925875 10.1951 0)
(-0.10223 10.2443 0)
(-0.109912 10.2985 0)
(-0.115239 10.357 0)
(-0.117909 10.4184 0)
(-0.117703 10.4797 0)
(-0.114477 10.5356 0)
(-0.108151 10.5764 0)
(-0.0987047 10.587 0)
(-0.0861534 10.5481 0)
(-0.0706191 10.4433 0)
(-0.0518606 10.2646 0)
(-0.0233014 9.99068 0)
(-0.00902448 9.46327 0)
(0.000817487 10.0003 0)
(0.00238493 10.0019 0)
(0.00290368 10.0049 0)
(0.00225405 10.0083 0)
(0.000235872 10.0122 0)
(-0.00354829 10.0169 0)
(-0.00947877 10.023 0)
(-0.0177591 10.0313 0)
(-0.0284886 10.0428 0)
(-0.0416539 10.0583 0)
(-0.056955 10.0792 0)
(-0.0737981 10.1064 0)
(-0.0912377 10.1409 0)
(-0.107938 10.1835 0)
(-0.121667 10.2348 0)
(-0.131567 10.2931 0)
(-0.138778 10.3568 0)
(-0.142959 10.4251 0)
(-0.14388 10.4963 0)
(-0.141417 10.5675 0)
(-0.135528 10.633 0)
(-0.126234 10.6832 0)
(-0.11358 10.703 0)
(-0.0976955 10.6732 0)
(-0.0784757 10.5775 0)
(-0.0564889 10.4056 0)
(-0.0189288 10.1597 0)
(-0.00126947 9.52683 0)
(0.000727469 10.0003 0)
(0.00214933 10.0017 0)
(0.00256991 10.0045 0)
(0.00184866 10.0076 0)
(-0.000255645 10.011 0)
(-0.00416766 10.015 0)
(-0.010338 10.0201 0)
(-0.0190898 10.027 0)
(-0.0305926 10.0368 0)
(-0.0448682 10.0507 0)
(-0.0617909 10.0697 0)
(-0.0808836 10.0951 0)
(-0.101313 10.1281 0)
(-0.121836 10.1698 0)
(-0.140793 10.2207 0)
(-0.155522 10.2813 0)
(-0.165161 10.3496 0)
(-0.171293 10.4235 0)
(-0.173676 10.5021 0)
(-0.172202 10.5836 0)
(-0.166871 10.6646 0)
(-0.157763 10.7397 0)
(-0.144989 10.7991 0)
(-0.128692 10.8277 0)
(-0.108842 10.8064 0)
(-0.085352 10.7189 0)
(-0.0601752 10.5602 0)
(-0.0207948 10.3305 0)
(0.00282073 9.58193 0)
(0.000652089 10.0002 0)
(0.00195256 10.0016 0)
(0.00229141 10.0042 0)
(0.00152041 10.007 0)
(-0.000635674 10.01 0)
(-0.00462151 10.0134 0)
(-0.0109357 10.0176 0)
(-0.0200012 10.0231 0)
(-0.0321342 10.0311 0)
(-0.047444 10.043 0)
(-0.0658306 10.06 0)
(-0.0870139 10.0833 0)
(-0.110286 10.1142 0)
(-0.134512 10.1542 0)
(-0.158118 10.204 0)
(-0.179106 10.2643 0)
(-0.194347 10.3352 0)
(-0.203047 10.4144 0)
(-0.207372 10.4991 0)
(-0.207226 10.5883 0)
(-0.202653 10.6801 0)
(-0.193806 10.7709 0)
(-0.180887 10.8553 0)
(-0.164112 10.9234 0)
(-0.143539 10.9602 0)
(-0.119055 10.9471 0)
(-0.0907956 10.8683 0)
(-0.061514 10.7275 0)
(-0.0240995 10.498 0)
(0.00374604 9.63662 0)
(0.00058855 10.0002 0)
(0.00178722 10.0015 0)
(0.00205953 10.0039 0)
(0.00125385 10.0065 0)
(-0.000928935 10.0091 0)
(-0.00494703 10.012 0)
(-0.0113322 10.0154 0)
(-0.0205803 10.0197 0)
(-0.0331313 10.0261 0)
(-0.0492786 10.0356 0)
(-0.0690303 10.0501 0)
(-0.0921136 10.071 0)
(-0.118041 10.0995 0)
(-0.145807 10.1371 0)
(-0.173936 10.1851 0)
(-0.200492 10.2443 0)
(-0.223111 10.3149 0)
(-0.238211 10.3971 0)
(-0.245165 10.4878 0)
(-0.246851 10.5837 0)
(-0.243367 10.6837 0)
(-0.234945 10.7856 0)
(-0.221895 10.886 0)
(-0.204555 10.9791 0)
(-0.183145 11.0553 0)
(-0.157694 11.1 0)
(-0.128527 11.0948 0)
(-0.0958365 11.0259 0)
(-0.063196 10.9021 0)
(-0.0267776 10.661 0)
(0.00336041 9.7076 0)
(0.000534639 10.0002 0)
(0.00164758 10.0014 0)
(0.00186353 10.0037 0)
(0.00103655 10.006 0)
(-0.00115405 10.0084 0)
(-0.00517387 10.0108 0)
(-0.0115756 10.0134 0)
(-0.0209069 10.0168 0)
(-0.0337006 10.0216 0)
(-0.0504051 10.029 0)
(-0.0712612 10.0406 0)
(-0.0961236 10.0585 0)
(-0.124483 10.0842 0)
(-0.155577 10.1189 0)
(-0.188053 10.1643 0)
(-0.220055 10.2214 0)
(-0.249247 10.2911 0)
(-0.272929 10.3731 0)
(-0.287076 10.4674 0)
(-0.291346 10.5701 0)
(-0.289466 10.6775 0)
(-0.281771 10.7881 0)
(-0.268706 10.8998 0)
(-0.250751 11.0092 0)
(-0.22833 11.1104 0)
(-0.201704 11.1943 0)
(-0.171311 11.2465 0)
(-0.137934 11.2488 0)
(-0.101679 11.1906 0)
(-0.0657015 11.0789 0)
(-0.0295517 10.8383 0)
(0.00227635 9.78935 0)
(0.0004886 10.0002 0)
(0.0015291 10.0013 0)
(0.00169758 10.0035 0)
(0.000860441 10.0056 0)
(-0.00132595 10.0077 0)
(-0.00532542 10.0097 0)
(-0.0117039 10.0117 0)
(-0.0210449 10.0142 0)
(-0.033948 10.0176 0)
(-0.0509786 10.0231 0)
(-0.0725743 10.0321 0)
(-0.0988809 10.0464 0)
(-0.129532 10.0684 0)
(-0.163696 10.0999 0)
(-0.200288 10.142 0)
(-0.237556 10.1963 0)
(-0.273218 10.2639 0)
(-0.304554 10.345 0)
(-0.328555 10.4393 0)
(-0.340781 10.5463 0)
(-0.341304 10.6613 0)
(-0.334847 10.7802 0)
(-0.322025 10.9012 0)
(-0.303511 11.0223 0)
(-0.279938 11.14 0)
(-0.25184 11.2488 0)
(-0.219814 11.3397 0)
(-0.184746 11.3987 0)
(-0.147629 11.408 0)
(-0.108281 11.3593 0)
(-0.069447 11.2761 0)
(-0.0324786 11.0299 0)
(0.000598833 9.88002 0)
(0.000449138 10.0002 0)
(0.00142813 10.0013 0)
(0.00155723 10.0033 0)
(0.000716119 10.0053 0)
(-0.00145618 10.0071 0)
(-0.00542 10.0087 0)
(-0.0117472 10.0102 0)
(-0.0210443 10.0119 0)
(-0.0339578 10.0142 0)
(-0.0511384 10.0179 0)
(-0.0731731 10.0244 0)
(-0.100456 10.0354 0)
(-0.13298 10.0531 0)
(-0.170062 10.0802 0)
(-0.210483 10.1186 0)
(-0.252774 10.1693 0)
(-0.294733 10.2338 0)
(-0.333654 10.3129 0)
(-0.366453 10.4066 0)
(-0.389843 10.5139 0)
(-0.399024 10.6341 0)
(-0.394637 10.7616 0)
(-0.382545 10.8916 0)
(-0.363666 11.0226 0)
(-0.338907 11.1524 0)
(-0.309077 11.2777 0)
(-0.275004 11.3934 0)
(-0.23768 11.4907 0)
(-0.198239 11.5555 0)
(-0.157523 11.5705 0)
(-0.115872 11.5503 0)
(-0.0740888 11.4921 0)
(-0.0355494 11.2167 0)
(-0.00126496 9.97768 0)
(0.000415366 10.0002 0)
(0.00134139 10.0012 0)
(0.00143779 10.0032 0)
(0.000597614 10.005 0)
(-0.00155395 10.0066 0)
(-0.00547193 10.0079 0)
(-0.0117286 10.0089 0)
(-0.0209442 10.0099 0)
(-0.0337963 10.0111 0)
(-0.0509954 10.0133 0)
(-0.0732392 10.0176 0)
(-0.101113 10.0255 0)
(-0.134918 10.0391 0)
(-0.174407 10.061 0)
(-0.218504 10.0943 0)
(-0.265508 10.1408 0)
(-0.313522 10.2015 0)
(-0.359883 10.2774 0)
(-0.401458 10.3691 0)
(-0.434824 10.4762 0)
(-0.456493 10.5972 0)
(-0.461381 10.7308 0)
(-0.450857 10.8706 0)
(-0.432049 11.0114 0)
(-0.406205 11.1517 0)
(-0.374487 11.2895 0)
(-0.33799 11.4217 0)
(-0.297903 11.5434 0)
(-0.255469 11.646 0)
(-0.211761 11.715 0)
(-0.168377 11.7543 0)
(-0.124129 11.7618 0)
(-0.0790375 11.7036 0)
(-0.038524 11.3982 0)
(-0.00305979 10.08 0)
(0.00126619 10.0012 0)
(0.000375356 10.0002 0)
(0.00133476 10.003 0)
(0.000499823 10.0047 0)
(-0.00162637 10.0062 0)
(-0.00549222 10.0072 0)
(-0.0116663 10.0078 0)
(-0.020775 10.0081 0)
(-0.0335149 10.0084 0)
(-0.0506368 10.0093 0)
(-0.0729177 10.0116 0)
(-0.101086 10.0168 0)
(-0.135683 10.0266 0)
(-0.176843 10.0434 0)
(-0.224004 10.0705 0)
(-0.275585 10.1112 0)
(-0.329335 10.1671 0)
(-0.382908 10.239 0)
(-0.43316 10.3276 0)
(-0.476553 10.433 0)
(-0.509389 10.5542 0)
(-0.528072 10.6892 0)
(-0.527326 10.8362 0)
(-0.509402 10.988 0)
(-0.482822 11.139 0)
(-0.449185 11.2878 0)
(-0.409973 11.4328 0)
(-0.366629 11.571 0)
(-0.320587 11.6977 0)
(-0.273112 11.8038 0)
(-0.226589 11.8949 0)
(-0.179957 11.9584 0)
(-0.13209 11.9707 0)
(-0.0839509 11.9094 0)
(-0.0412744 11.5739 0)
(-0.0047578 10.1849 0)
(0.00124491 10.0029 0)
(0.0011793 10.0011 0)
(0.000327647 10.0001 0)
(0.000417874 10.0045 0)
(-0.00167934 10.0058 0)
(-0.0054892 10.0066 0)
(-0.0115738 10.0068 0)
(-0.0205598 10.0065 0)
(-0.0331533 10.006 0)
(-0.0501305 10.0057 0)
(-0.0723225 10.0063 0)
(-0.100562 10.0089 0)
(-0.135573 10.0153 0)
(-0.17779 10.0276 0)
(-0.227112 10.0486 0)
(-0.28256 10.082 0)
(-0.341947 10.1313 0)
(-0.402419 10.198 0)
(-0.461156 10.2824 0)
(-0.514544 10.3848 0)
(-0.558693 10.5049 0)
(-0.589717 10.6408 0)
(-0.604025 10.79 0)
(-0.596242 10.9503 0)
(-0.569671 11.1135 0)
(-0.534337 11.2739 0)
(-0.492228 11.4304 0)
(-0.445185 11.5815 0)
(-0.394915 11.7246 0)
(-0.342914 11.8545 0)
(-0.29236 11.9818 0)
(-0.242298 12.0945 0)
(-0.190946 12.1607 0)
(-0.139572 12.175 0)
(-0.088598 12.1081 0)
(-0.0437377 11.7433 0)
(-0.00633505 10.2905 0)
(0.000346566 10.0043 0)
(0.00114955 10.0027 0)
(0.00107144 10.001 0)
(0.000282232 10.0001 4.016e-20)
(-0.00171858 10.0054 0)
(-0.00546953 10.006 0)
(-0.0114614 10.0059 0)
(-0.0203162 10.0052 0)
(-0.0327418 10.0039 0)
(-0.0495283 10.0025 0)
(-0.0715421 10.0015 0)
(-0.099689 10.002 0)
(-0.13483 10.0053 0)
(-0.177627 10.0134 0)
(-0.22835 10.0289 0)
(-0.286569 10.055 0)
(-0.350787 10.0958 0)
(-0.41813 10.1551 0)
(-0.485067 10.2342 0)
(-0.548318 10.3324 0)
(-0.60384 10.4497 0)
(-0.647468 10.5851 0)
(-0.675239 10.7361 0)
(-0.683689 10.8995 0)
(-0.667458 11.0725 0)
(-0.631053 11.2465 0)
(-0.586111 11.4153 0)
(-0.535023 11.5784 0)
(-0.479922 11.7345 0)
(-0.422643 11.8808 0)
(-0.367156 12.0315 0)
(-0.312658 12.1791 0)
(-0.25703 12.2922 0)
(-0.201186 12.3592 0)
(-0.146429 12.373 0)
(-0.0928572 12.299 0)
(-0.0458853 11.9059 0)
(-0.00775952 10.3954 0)
(-0.00175237 10.0051 0)
(0.000285328 10.0041 0)
(0.00103892 10.0026 1.8275e-19)
(0.000967772 10.001 -1.27323e-19)
(0.000239063 10.0001 -7.88261e-20)
(-0.00543969 10.0055 0)
(-0.0113366 10.0052 0)
(-0.0200567 10.004 0)
(-0.0323031 10.0021 0)
(-0.0488699 9.9997 0)
(-0.0706445 9.99737 0)
(-0.098582 9.99587 0)
(-0.133641 9.99641 0)
(-0.176658 10.0007 0)
(-0.228189 10.0111 0)
(-0.288249 10.0306 0)
(-0.355988 10.063 0)
(-0.429312 10.1126 0)
(-0.504532 10.1834 0)
(-0.577415 10.2762 0)
(-0.644265 10.3895 0)
(-0.700675 10.5227 0)
(-0.74231 10.6739 0)
(-0.765258 10.8402 0)
(-0.766322 11.0174 0)
(-0.740265 11.2024 0)
(-0.692955 11.3862 0)
(-0.637708 11.5624 0)
(-0.577253 11.7309 0)
(-0.513909 11.8903 0)
(-0.452659 12.0573 0)
(-0.392675 12.2278 0)
(-0.331588 12.3746 0)
(-0.270637 12.4864 0)
(-0.210535 12.5522 0)
(-0.15259 12.5637 0)
(-0.0966745 12.4816 0)
(-0.0477203 12.0613 0)
(-0.00902028 10.4982 0)
(-0.00541281 10.0051 0)
(-0.00174573 10.0048 -4.12814e-19)
(0.000225142 10.0038 -1.93118e-19)
(0.000933558 10.0024 8.96938e-20)
(0.000867644 10.0009 -8.32848e-20)
(0.000198137 10.0001 0)
(-0.0112065 10.0045 0)
(-0.0197901 10.0029 0)
(-0.0318532 10.0004 0)
(-0.0481849 9.99723 0)
(-0.0696813 9.99368 0)
(-0.0973289 9.99044 0)
(-0.132154 9.98851 0)
(-0.175121 9.98941 0)
(-0.227007 9.9952 0)
(-0.288177 10.0086 0)
(-0.358315 10.0332 0)
(-0.436073 10.0731 0)
(-0.518623 10.1328 0)
(-0.601385 10.2167 0)
(-0.679418 10.3246 0)
(-0.748684 10.4541 0)
(-0.804506 10.604 0)
(-0.842508 10.7715 0)
(-0.858976 10.9527 0)
(-0.851124 11.1432 0)
(-0.813951 11.3395 0)
(-0.754804 11.5318 0)
(-0.688687 11.7142 0)
(-0.618566 11.8864 0)
(-0.550647 12.0666 0)
(-0.484233 12.2532 0)
(-0.416438 12.4224 0)
(-0.349002 12.5666 0)
(-0.282984 12.6754 0)
(-0.218917 12.7385 0)
(-0.15803 12.7464 0)
(-0.100027 12.6555 0)
(-0.0492666 12.2094 0)
(-0.010119 10.5979 0)
(-0.0110921 10.0039 0)
(-0.00529898 10.0046 8.7239e-19)
(-0.00169552 10.0043 0)
(0.000171632 10.0035 1.89488e-19)
(0.000834668 10.0022 3.8176e-23)
(0.000771629 10.0008 0)
(0.000159435 10.0001 0)
(-0.0195245 10.002 0)
(-0.0314025 9.99899 0)
(-0.0474938 9.99505 0)
(-0.0686911 9.99042 0)
(-0.0959965 9.98563 0)
(-0.130482 9.98151 0)
(-0.173204 9.97937 0)
(-0.225103 9.98101 0)
(-0.286822 9.98892 0)
(-0.358468 10.0063 0)
(-0.439319 10.037 0)
(-0.527399 10.0857 0)
(-0.619057 10.1573 0)
(-0.708743 10.2557 0)
(-0.79084 10.3801 0)
(-0.861077 10.5269 0)
(-0.914631 10.6939 0)
(-0.947236 10.8776 0)
(-0.955528 11.0736 0)
(-0.93727 11.2766 0)
(-0.887799 11.4828 0)
(-0.816035 11.6825 0)
(-0.7386 11.8693 0)
(-0.663217 12.0626 0)
(-0.589307 12.2626 0)
(-0.513621 12.4478 0)
(-0.438274 12.6138 0)
(-0.364778 12.7537 0)
(-0.294012 12.8581 0)
(-0.226312 12.9174 0)
(-0.162763 12.9206 0)
(-0.102928 12.8205 0)
(-0.0505525 12.3498 0)
(-0.0110632 10.6938 0)
(-0.0192919 10.0011 0)
(-0.0108227 10.0032 8.97729e-23)
(-0.0050695 10.004 0)
(-0.00163937 10.0039 -2.00222e-19)
(0.000126305 10.0032 2.57202e-23)
(0.000742301 10.002 0)
(0.000679759 10.0008 0)
(0.000122926 10.0001 0)
(-0.0309601 9.99772 0)
(-0.0468093 9.99313 0)
(-0.0677002 9.98754 0)
(-0.0946349 9.98137 0)
(-0.128711 9.97531 0)
(-0.17105 9.97046 0)
(-0.222715 9.96839 0)
(-0.284555 9.9713 0)
(-0.357018 9.9821 0)
(-0.43989 10.0044 0)
(-0.531917 10.0427 0)
(-0.630403 10.1017 0)
(-0.730775 10.1865 0)
(-0.82647 10.301 0)
(-0.91125 10.4431 0)
(-0.980767 10.608 0)
(-1.03021 10.7925 0)
(-1.05558 10.9924 0)
(-1.054 11.2023 0)
(-1.02393 11.4167 0)
(-0.961114 11.6317 0)
(-0.876076 11.837 0)
(-0.79258 12.0455 0)
(-0.710237 12.259 0)
(-0.625313 12.4576 0)
(-0.540624 12.6392 0)
(-0.458064 12.8002 0)
(-0.378868 12.9346 0)
(-0.303728 13.0338 0)
(-0.232747 13.0883 0)
(-0.166822 13.086 0)
(-0.105397 12.9765 0)
(-0.0516075 12.4824 0)
(-0.0118641 10.7855 0)
(-0.030574 9.9966 0)
(-0.0188086 10.0002 -4.8702e-19)
(-0.0103246 10.0024 0)
(-0.00483609 10.0034 0)
(-0.00157131 10.0035 5.89487e-19)
(8.93463e-05 10.0029 0)
(0.000656399 10.0019 0)
(0.000592155 10.0007 1.57463e-19)
(8.86036e-05 10.0001 0)
(-0.0461416 9.99142 0)
(-0.0667241 9.98499 0)
(-0.0932779 9.97761 0)
(-0.126906 9.96982 0)
(-0.16877 9.96256 0)
(-0.220022 9.95717 0)
(-0.281669 9.9556 0)
(-0.35442 9.96044 0)
(-0.438472 9.97505 0)
(-0.53317 10.0035 0)
(-0.636638 10.0507 0)
(-0.745354 10.1216 0)
(-0.853754 10.2214 0)
(-0.954225 10.3535 0)
(-1.04003 10.5144 0)
(-1.10693 10.6979 0)
(-1.15028 10.8999 0)
(-1.16653 11.1154 0)
(-1.15347 11.3384 0)
(-1.1103 11.5629 0)
(-1.03321 11.7849 0)
(-0.941113 12.0128 0)
(-0.849491 12.2423 0)
(-0.754072 12.4547 0)
(-0.658415 12.6497 0)
(-0.565109 12.8261 0)
(-0.475761 12.9808 0)
(-0.391294 13.1087 0)
(-0.312179 13.2018 0)
(-0.238274 13.2509 0)
(-0.170257 13.2426 0)
(-0.107473 13.1236 0)
(-0.0524591 12.6075 0)
(-0.012535 10.8727 0)
(-0.0455608 9.98992 0)
(-0.0298057 9.99537 0)
(-0.0179303 9.99917 -4.81567e-19)
(-0.00982833 10.0016 -4.47176e-19)
(-0.00458582 10.0028 -8.30528e-19)
(-0.00149001 10.0031 0)
(6.10051e-05 10.0027 -3.58231e-19)
(0.000576935 10.0017 -3.32753e-19)
(0.000508872 10.0006 1.54537e-19)
(5.64465e-05 10.0001 0)
(-0.0657746 9.98274 0)
(-0.0919446 9.97427 0)
(-0.12511 9.96496 0)
(-0.166447 9.95555 0)
(-0.217164 9.94721 0)
(-0.278391 9.94162 0)
(-0.351035 9.9411 0)
(-0.435618 9.94869 0)
(-0.531975 9.96821 0)
(-0.638921 10.0042 0)
(-0.753856 10.0618 0)
(-0.872348 10.1463 0)
(-0.987766 10.2626 0)
(-1.09148 10.4136 0)
(-1.17639 10.5942 0)
(-1.23859 10.7966 0)
(-1.2738 11.0159 0)
(-1.27908 11.2462 0)
(-1.25299 11.4811 0)
(-1.19555 11.7142 0)
(-1.11157 11.96 0)
(-1.00985 12.21 0)
(-0.902613 12.4389 0)
(-0.794402 12.6479 0)
(-0.68846 12.8375 0)
(-0.587032 13.0072 0)
(-0.491391 13.1547 0)
(-0.402124 13.2754 0)
(-0.319443 13.3618 0)
(-0.242962 13.4049 0)
(-0.173119 13.3903 0)
(-0.109192 13.262 0)
(-0.0531354 12.725 0)
(-0.0130898 10.9551 0)
(-0.0649518 9.98074 0)
(-0.0444212 9.9883 -5.44707e-19)
(-0.0284083 9.99402 5.08785e-19)
(-0.0170638 9.99817 -2.37565e-22)
(-0.00930942 10.0009 4.38766e-19)
(-0.00431696 10.0023 4.07563e-19)
(-0.00139567 10.0027 7.57036e-19)
(4.11898e-05 10.0024 5.27353e-19)
(0.000503676 10.0016 -1.63294e-19)
(0.000429989 10.0006 0)
(2.646e-05 10.0001 0)
(-0.0906492 9.97132 0)
(-0.123347 9.96065 0)
(-0.164135 9.94934 0)
(-0.214247 9.93837 0)
(-0.274895 9.92919 0)
(-0.347144 9.92386 0)
(-0.431768 9.92511 0)
(-0.528994 9.93644 0)
(-0.638214 9.96213 0)
(-0.757617 10.0071 0)
(-0.883781 10.0768 0)
(-1.01127 10.1765 0)
(-1.13238 10.3109 0)
(-1.2375 10.4819 0)
(-1.31939 10.6829 0)
(-1.37469 10.9043 0)
(-1.39968 11.1403 0)
(-1.39218 11.3844 0)
(-1.35162 11.6296 0)
(-1.28859 11.8879 0)
(-1.19472 12.1574 0)
(-1.07423 12.4076 0)
(-0.951594 12.6335 0)
(-0.831046 12.837 0)
(-0.715396 13.0198 0)
(-0.606429 13.1818 0)
(-0.505037 13.3214 0)
(-0.411455 13.4343 0)
(-0.32561 13.5136 0)
(-0.246886 13.5503 0)
(-0.175468 13.5293 0)
(-0.110595 13.3919 0)
(-0.0536609 12.8351 0)
(-0.0135415 11.0327 0)
(-0.0895312 9.96871 0)
(-0.0633373 9.97863 -7.94628e-22)
(-0.0423334 9.98657 0)
(-0.0270396 9.99273 -3.96052e-22)
(-0.0161677 9.9972 0)
(-0.00876333 10.0001 -4.30621e-19)
(-0.0040288 10.0018 -7.99959e-19)
(-0.00128841 10.0024 7.39568e-24)
(2.99801e-05 10.0022 3.45024e-19)
(0.000436608 10.0014 -1.60253e-19)
(0.000355266 10.0005 1.48861e-19)
(-2.06597e-06 10.0001 0)
(-0.121634 9.95684 0)
(-0.161863 9.94384 0)
(-0.211339 9.93053 0)
(-0.271313 9.91815 0)
(-0.342964 9.90851 0)
(-0.427265 9.90405 0)
(-0.524758 9.90796 0)
(-0.635303 9.9242 0)
(-0.757755 9.9575 0)
(-0.889576 10.0131 0)
(-1.02642 10.0967 0)
(-1.16182 10.2133 0)
(-1.28698 10.3671 0)
(-1.39141 10.5591 0)
(-1.46796 10.7807 0)
(-1.51409 11.0208 0)
(-1.52681 11.2727 0)
(-1.5048 11.529 0)
(-1.45973 11.8011 0)
(-1.38772 12.0848 0)
(-1.2729 12.3561 0)
(-1.1338 12.604 0)
(-0.996228 12.8244 0)
(-0.863949 13.0209 0)
(-0.739261 13.1957 0)
(-0.623398 13.3492 0)
(-0.51682 13.4803 0)
(-0.419404 13.5851 0)
(-0.330782 13.6571 0)
(-0.250126 13.6873 0)
(-0.177361 13.6597 0)
(-0.11172 13.5135 0)
(-0.0540574 12.9382 0)
(-0.0139036 11.1057 0)
(-0.120163 9.95345 0)
(-0.0873169 9.96599 6.08556e-19)
(-0.0603485 9.97643 -5.69593e-19)
(-0.0403007 9.98492 5.27915e-19)
(-0.0256333 9.99149 0)
(-0.0152332 9.99628 0)
(-0.00818991 9.99947 4.22625e-19)
(-0.00372224 10.0013 -3.92501e-19)
(-0.00116952 10.002 1.42379e-23)
(2.84599e-05 10.0019 1.6934e-19)
(0.000375503 10.0013 -1.57302e-19)
(0.000285139 10.0005 -1.46096e-19)
(-2.84246e-05 10.0001 0)
(-0.159656 9.93896 0)
(-0.208478 9.92357 0)
(-0.267733 9.90835 0)
(-0.338658 9.89486 0)
(-0.422376 9.88528 0)
(-0.519683 9.88249 0)
(-0.630819 9.89013 0)
(-0.755191 9.91264 0)
(-0.891018 9.95513 0)
(-1.03493 10.0231 0)
(-1.18159 10.1223 0)
(-1.32347 10.2573 0)
(-1.45075 10.4319 0)
(-1.55217 10.6456 0)
(-1.62093 10.8878 0)
(-1.6556 11.146 0)
(-1.65403 11.4123 0)
(-1.62889 11.6974 0)
(-1.57552 11.9968 0)
(-1.48137 12.2843 0)
(-1.34551 12.5545 0)
(-1.18826 12.7973 0)
(-1.03644 13.0106 0)
(-0.893178 13.1987 0)
(-0.760177 13.3645 0)
(-0.638085 13.5091 0)
(-0.526883 13.6313 0)
(-0.426097 13.7279 0)
(-0.335065 13.7924 0)
(-0.252759 13.816 0)
(-0.178857 13.782 0)
(-0.112604 13.6272 0)
(-0.0543451 13.0345 0)
(-0.0141896 11.174 0)
(-0.157769 9.93463 0)
(-0.117201 9.94998 0)
(-0.0831709 9.9632 6.01595e-19)
(-0.0574527 9.97433 -1.11834e-18)
(-0.03822 9.98334 1.03766e-18)
(-0.0241737 9.99031 -9.6299e-19)
(-0.0142605 9.9954 0)
(-0.00759055 9.99882 4.14928e-19)
(-0.00339829 10.0008 -3.85213e-19)
(-0.00103777 10.0017 -3.57858e-19)
(3.53912e-05 10.0017 0)
(0.00032033 10.0012 1.54384e-19)
(0.000219741 10.0004 0)
(-5.20781e-05 10.0001 0)
(-0.205696 9.91739 0)
(-0.264202 9.89964 0)
(-0.334338 9.88272 0)
(-0.417307 9.86856 0)
(-0.514097 9.85974 0)
(-0.625264 9.85959 0)
(-0.750671 9.87224 0)
(-0.889172 9.90254 0)
(-1.03824 9.95595 0)
(-1.19361 10.0381 0)
(-1.3489 10.1545 0)
(-1.49554 10.3096 0)
(-1.62273 10.5058 0)
(-1.71864 10.7415 0)
(-1.77711 11.0042 0)
(-1.79802 11.2792 0)
(-1.79502 11.5763 0)
(-1.76257 11.891 0)
(-1.68554 12.1966 0)
(-1.56879 12.4847 0)
(-1.41215 12.7507 0)
(-1.23749 12.9864 0)
(-1.07229 13.1909 0)
(-0.918881 13.3696 0)
(-0.77831 13.5259 0)
(-0.650656 13.6611 0)
(-0.535381 13.7743 0)
(-0.431663 13.8625 0)
(-0.338561 13.9196 0)
(-0.254864 13.9367 0)
(-0.180009 13.8963 0)
(-0.11328 13.7334 0)
(-0.054543 13.1242 0)
(-0.014411 11.2378 0)
(-0.203332 9.91191 0)
(-0.153893 9.93023 0)
(-0.111593 9.94648 0)
(-0.0791747 9.96056 1.18112e-18)
(-0.0544989 9.97234 -1.09608e-18)
(-0.0360683 9.98185 1.01727e-18)
(-0.0226621 9.9892 0)
(-0.0132519 9.99457 -4.38364e-19)
(-0.00696613 9.99821 0)
(-0.00305847 10.0004 3.78096e-19)
(-0.000892669 10.0013 0)
(5.05443e-05 10.0015 0)
(0.000271789 10.0011 0)
(0.000160681 10.0004 1.50082e-19)
(-7.32873e-05 10.0001 7.33012e-20)
(-0.260765 9.8919 0)
(-0.330061 9.87194 0)
(-0.412191 9.85368 0)
(-0.50825 9.83946 0)
(-0.619035 9.83228 0)
(-0.744792 9.83596 0)
(-0.884912 9.85506 0)
(-1.03759 9.89484 0)
(-1.19949 9.96098 0)
(-1.36534 10.0592 0)
(-1.52777 10.1945 0)
(-1.67714 10.3708 0)
(-1.80183 10.5894 0)
(-1.88962 10.8473 0)
(-1.93525 11.1294 0)
(-1.95685 11.4372 0)
(-1.94791 11.7664 0)
(-1.89042 12.0902 0)
(-1.7889 12.3985 0)
(-1.6495 12.6839 0)
(-1.47264 12.9433 0)
(-1.2815 13.17 0)
(-1.10391 13.3647 0)
(-0.941258 13.5332 0)
(-0.793877 13.6795 0)
(-0.661299 13.805 0)
(-0.542473 13.9093 0)
(-0.436228 13.9893 0)
(-0.341371 14.0391 0)
(-0.256512 14.0497 0)
(-0.180868 14.003 0)
(-0.113779 13.8324 0)
(-0.0546668 13.2079 0)
(-0.0145771 11.2974 0)
(-0.257864 9.88504 0)
(-0.19835 9.90639 0)
(-0.146468 9.92585 1.35144e-18)
(-0.106214 9.94316 1.25304e-18)
(-0.0751081 9.95806 1.162e-18)
(-0.0514532 9.97047 -1.07767e-18)
(-0.0338478 9.98046 0)
(-0.0211021 9.98816 0)
(-0.0122092 9.9938 0)
(-0.00631827 9.99764 7.99472e-19)
(-0.00270232 9.99996 3.71177e-19)
(-0.000736812 10.0011 3.44714e-19)
(7.38471e-05 10.0013 0)
(0.000230203 10.001 -1.58582e-19)
(0.000108354 10.0003 -7.74771e-20)
(-9.21413e-05 10.0001 0)
(-0.325895 9.86234 0)
(-0.407104 9.84044 0)
(-0.502307 9.82138 0)
(-0.612434 9.80788 0)
(-0.738029 9.80344 0)
(-0.878942 9.81232 0)
(-1.03399 9.83952 0)
(-1.20063 9.89059 0)
(-1.37461 9.97134 0)
(-1.54969 10.0873 0)
(-1.71743 10.2431 0)
(-1.86727 10.4416 0)
(-1.98692 10.6832 0)
(-2.06387 10.9627 0)
(-2.11283 11.2796 0)
(-2.13038 11.6225 0)
(-2.0953 11.9641 0)
(-2.01144 12.2932 0)
(-1.88497 12.6008 0)
(-1.72324 12.8807 0)
(-1.527 13.1313 0)
(-1.32046 13.3475 0)
(-1.13154 13.5313 0)
(-0.960547 13.6891 0)
(-0.807111 13.8251 0)
(-0.670208 13.9411 0)
(-0.548316 14.0364 0)
(-0.439918 14.1083 0)
(-0.343584 14.1509 0)
(-0.257768 14.1552 0)
(-0.18148 14.1026 0)
(-0.114127 13.9246 0)
(-0.0547288 13.2858 0)
(-0.0146986 11.3529 0)
(-0.322405 9.85383 0)
(-0.251558 9.87816 0)
(-0.188695 9.90095 -2.85919e-18)
(-0.139374 9.92173 4.02004e-21)