/*--------------------------------*- C++ -*----------------------------------*\
  =========                 |
  \\      /  F ield         | OpenFOAM: The Open Source CFD Toolbox
   \\    /   O peration     | Website:  https://openfoam.org
    \\  /    A nd           | Version:  8
     \\/     M anipulation  |
\*---------------------------------------------------------------------------*/
FoamFile
{
    version     2.0;
    format      ascii;
    class       volScalarField;
    location    "0.29";
    object      p;
}
// * * * * * * * * * * * * * * * * * * * * * * * * * * * * * * * * * * * * * //

dimensions      [1 -1 -2 0 0 0 0];

internalField   nonuniform List<scalar> 
15677
(
114018
114021
114020
114018
114016
114012
114007
114000
113990
113978
113964
113943
113914
113879
113815
113738
113668
113608
113557
113512
113475
113448
113429
113417
113412
113411
113410
113409
113408
113407
113406
113405
113404
113403
113405
91659.7
91620.7
91552.2
91468.4
91385.8
91312
91253.6
91213.9
91188.8
91171.2
91173.3
91231.3
91363.6
91591.9
91838.7
92010.8
92108.5
92162.1
92173
92135.3
92073
92003.4
91944.6
91897.6
91862
91835.5
91816.3
91801.5
91787
91773.1
91761.1
91750.7
91741.1
91731.9
91724.5
107101
107095
107082
107058
107017
106953
106860
106734
106580
106408
106234
106103
106043
106050
106144
106281
106446
106613
106777
106951
107131
107305
107458
107587
107692
107775
107838
107885
107922
107950
107971
107988
108002
108014
108023
97191.2
97198
97206.9
97216
97223.5
97229.3
97232.5
97228.1
97209.8
97176.2
97134.4
97099.3
97086.3
97105.5
97120.9
97124.2
97112.2
97079.6
97026.9
96952
96850.9
96724.5
96592
96460.5
96336.7
96227.5
96134.4
96058.4
95999.2
95955.3
95924.8
95905.4
95892.7
95879.2
95866.4
103227
103235
103247
103261
103278
103297
103319
103346
103375
103401
103427
103456
103475
103475
103487
103523
103578
103637
103692
103751
103818
103892
103964
104032
104096
104153
104206
104255
104301
104345
104385
104421
104452
104481
104512
100085
100088
100088
100086
100079
100065
100041
100008
99963.3
99907.2
99835.6
99766.4
99725
99683.9
99648.3
99623.9
99597.1
99563.3
99521.6
99475.5
99423.6
99359.6
99295.2
99239.4
99193.2
99155.1
99126.5
99105.9
99086.4
99068.3
99053.1
99040.2
99030
99020.5
99013
102567
102568
102569
102571
102574
102576
102578
102580
102581
102583
102586
102593
102602
102613
102625
102634
102640
102643
102642
102641
102644
102655
102671
102693
102716
102741
102761
102778
102795
102813
102828
102840
102849
102858
102865
100527
100528
100529
100529
100527
100525
100522
100517
100512
100506
100499
100492
100486
100480
100474
100466
100455
100442
100429
100413
100396
100377
100363
100351
100341
100333
100327
100321
100315
100309
100304
100301
100298
100295
100295
102037
102037
102037
102039
102040
102043
102044
102045
102045
102043
102038
102032
102024
102015
102007
102001
101998
101999
102002
102008
102015
102024
102027
102029
102034
102037
102041
102044
102047
102050
102052
102053
102054
102054
102054
100947
100947
100946
100946
100945
100945
100945
100946
100947
100948
100951
100954
100958
100959
100957
100954
100949
100944
100936
100931
100929
100928
100930
100930
100930
100930
100929
100928
100927
100926
100925
100925
100925
100925
100926
101711
101711
101711
101711
101711
101711
101711
101710
101708
101705
101700
101695
101689
101683
101680
101679
101679
101681
101686
101683
101679
101677
101675
101674
101674
101674
101675
101676
101678
101679
101680
101680
101680
101680
101679
101209
101208
101207
101206
101205
101204
101204
101204
101204
101205
101207
101208
101209
101210
101210
101209
101206
101206
101206
101212
101216
101219
101221
101223
101223
101224
101223
101223
101223
101222
101222
101222
101223
101223
101224
101557
101556
101556
101556
101556
101555
101554
101552
101550
101547
101544
101541
101537
101534
101532
101532
101533
101529
101525
101521
101517
101514
101513
101512
101512
101512
101513
101514
101514
101515
101515
101515
101515
101515
101514
101335
101334
101334
101333
101332
101331
101331
101330
101331
101331
101332
101332
101332
101333
101332
101333
101335
101339
101342
101345
101348
101350
101351
101352
101352
101352
101352
101352
101351
101351
101351
101351
101351
101351
101352
101489
101489
101489
101488
101488
101487
101486
101484
101483
101481
101478
101476
101473
101471
101469
101466
101463
101460
101457
101455
101453
101452
101452
101451
101452
101452
101452
101453
101453
101454
101454
101454
101453
101453
101453
101392
101391
101391
101390
101389
101389
101388
101388
101388
101388
101388
101388
101387
101388
101390
101392
101394
101396
101398
101399
101400
101401
101402
101402
101402
101401
101401
101401
101401
101401
101400
101400
101400
101400
101401
101460
101460
101460
101459
101459
101458
101457
101456
101455
101453
101451
101449
101447
101444
101442
101439
101437
101436
101434
101433
101433
101432
101432
101432
101432
101432
101433
101433
101433
101433
101433
101433
101433
101434
101434
101416
101416
101415
101415
101414
101414
101414
101413
101413
101413
101412
101413
101413
101414
101415
101416
101417
101417
101418
101418
101419
101419
101419
101419
101419
101419
101419
101419
101419
101418
101418
101418
101418
101419
101419
101448
101448
101447
101447
101447
101446
101445
101444
101443
101441
101440
101438
101436
101434
101432
101431
101430
101429
101428
101428
101428
101427
101427
101427
101428
101428
101428
101428
101428
101428
101428
101428
101428
101428
101428
101427
101427
101427
101426
101426
101426
101425
101425
101424
101424
101424
101424
101424
101424
101424
101425
101425
101425
101425
101425
101425
101425
101425
101425
101425
101425
101425
101425
101425
101425
101425
101425
101425
101425
101425
101441
101441
101441
101441
101440
101440
101439
101438
101437
101436
101435
101433
101432
101431
101430
101429
101428
101428
101428
101427
101427
101427
101427
101427
101427
101427
101427
101427
101427
101428
101428
101428
101428
101428
101428
101433
101432
101432
101432
101431
101431
101430
101430
101430
101429
101429
101429
101428
101428
101428
101428
101427
101427
101427
101427
101427
101427
101427
101427
101427
101427
101427
101427
101427
101427
101427
101427
101427
101427
101427
101438
101438
101438
101437
101437
101436
101436
101435
101434
101434
101433
101432
101431
101430
101429
101429
101428
101428
101428
101428
101427
101427
101427
101428
101428
101428
101428
101428
101428
101428
101428
101428
101428
101428
101428
101435
101434
101434
101434
101433
101433
101433
101432
101432
101431
101431
101430
101430
101429
101429
101428
101428
101428
101428
101428
101428
101428
101428
101428
101428
101428
101428
101428
101428
101428
101428
101428
101429
101429
101429
101436
101436
101436
101436
101435
101435
101434
101434
101433
101432
101432
101431
101430
101430
101429
101429
101428
101428
101428
101428
101428
101428
101428
101428
101428
101428
101428
101428
101429
101429
101429
101429
101429
101429
101429
101435
101435
101435
101434
101434
101434
101433
101433
101432
101432
101431
101431
101430
101429
101429
101429
101428
101428
101428
101428
101428
101428
101428
101428
101428
101428
101429
101429
101429
101429
101429
101429
101429
101429
101429
101436
101435
101435
101435
101434
101434
101433
101433
101432
101432
101431
101431
101430
101429
101429
101429
101428
101428
101428
101428
101428
101428
101428
101428
101428
101429
101429
101429
101429
101429
101429
101430
101430
101430
101430
101435
101435
101434
101434
101434
101433
101433
101432
101432
101431
101431
101430
101430
101429
101429
101428
101428
101428
101428
101428
101428
101428
101428
101428
101428
101429
101429
101429
101429
101429
101430
101430
101430
101430
101430
101435
101435
101434
101434
101434
101433
101433
101432
101432
101431
101431
101430
101429
101429
101428
101428
101428
101428
101428
101428
101428
101428
101428
101428
101428
101429
101429
101429
101429
101430
101430
101430
101430
101430
101430
101434
101434
101434
101434
101433
101433
101432
101432
101431
101431
101430
101430
101429
101429
101428
101428
101428
101427
101427
101427
101427
101428
101428
101428
101428
101429
101429
101429
101429
101430
101430
101430
101430
101430
101430
113414
113449
113496
113544
113594
113646
113701
113759
113819
113881
113946
114015
114085
114155
114225
114294
114362
114430
114497
114563
114629
114695
91726.4
91703.2
91664.2
91619.8
91569.1
91511.4
91446.3
91372.4
91289
91198
91101.2
90998.2
90888.6
90787.4
90696.1
90612.1
90532.2
90459.9
90396.9
90338.8
90284
90239.2
108015
108014
108021
108029
108039
108048
108055
108061
108067
108078
108092
108108
108137
108173
108215
108262
108317
108379
108446
108515
108585
108651
95876.4
95867.3
95854.6
95844.1
95835
95827.4
95820.7
95811.2
95803.8
95807.2
95811.9
95819.1
95826.4
95837.1
95856.2
95882.8
95911.8
95942.1
95973.9
96008.6
96048.9
96101
104545
104571
104600
104629
104656
104680
104700
104713
104719
104716
104704
104683
104653
104616
104578
104539
104500
104461
104423
104386
104348
104306
99015.4
99021.7
99025.1
99030
99037.5
99047.7
99060.5
99075.4
99092.2
99111.2
99132.6
99155.2
99176.8
99198.6
99221.1
99244.3
99268.3
99293
99318.4
99344.3
99371.1
99401.9
102860
102851
102842
102830
102817
102802
102785
102766
102747
102726
102704
102681
102659
102637
102615
102593
102572
102550
102529
102507
102486
102462
100307
100322
100334
100348
100363
100379
100397
100415
100435
100454
100475
100495
100514
100532
100550
100566
100583
100598
100614
100629
100644
100660
102042
102029
102016
102002
101987
101972
101956
101940
101924
101907
101891
101874
101859
101845
101831
101818
101806
101794
101783
101772
101761
101750
100935
100946
100956
100967
100978
100989
101002
101014
101027
101039
101052
101064
101075
101084
101094
101102
101110
101118
101125
101132
101138
101145
101669
101661
101652
101642
101633
101623
101613
101603
101593
101583
101573
101563
101555
101547
101539
101532
101526
101520
101515
101509
101504
101499
101228
101235
101241
101247
101253
101260
101266
101273
101279
101285
101290
101295
101299
101302
101305
101307
101309
101311
101313
101315
101316
101317
101509
101505
101500
101495
101490
101484
101479
101474
101469
101465
101460
101455
101451
101447
101444
101441
101439
101437
101435
101433
101431
101427
101353
101357
101360
101362
101365
101368
101370
101372
101375
101377
101378
101379
101380
101381
101382
101383
101384
101385
101385
101385
101385
101385
101450
101449
101447
101444
101442
101439
101437
101435
101433
101431
101429
101427
101426
101424
101423
101421
101420
101419
101417
101416
101415
101413
101402
101404
101405
101406
101406
101407
101408
101409
101409
101410
101410
101410
101410
101410
101410
101409
101409
101409
101408
101408
101407
101406
101432
101432
101431
101430
101429
101428
101427
101426
101425
101424
101423
101422
101421
101420
101420
101419
101418
101417
101417
101416
101415
101414
101419
101419
101420
101420
101420
101421
101421
101421
101421
101420
101420
101420
101420
101419
101419
101418
101418
101417
101417
101416
101416
101414
101428
101427
101427
101427
101426
101426
101425
101425
101425
101424
101424
101423
101423
101422
101422
101421
101421
101420
101420
101419
101419
101417
101425
101425
101425
101425
101425
101425
101425
101425
101425
101425
101424
101424
101424
101423
101423
101422
101422
101422
101421
101421
101420
101419
101428
101427
101427
101427
101427
101427
101427
101426
101426
101426
101426
101425
101425
101425
101424
101424
101423
101423
101423
101422
101422
101421
101427
101427
101427
101427
101427
101427
101427
101427
101427
101427
101426
101426
101426
101426
101425
101425
101425
101424
101424
101423
101423
101422
101428
101428
101428
101428
101428
101428
101428
101428
101428
101427
101427
101427
101427
101427
101426
101426
101426
101425
101425
101425
101424
101424
101429
101429
101429
101429
101429
101429
101429
101428
101428
101428
101428
101428
101428
101427
101427
101427
101427
101426
101426
101426
101425
101425
101430
101429
101429
101429
101429
101429
101429
101429
101429
101429
101429
101429
101428
101428
101428
101428
101427
101427
101427
101426
101426
101426
101430
101430
101430
101430
101430
101430
101430
101430
101430
101430
101429
101429
101429
101429
101429
101428
101428
101428
101428
101427
101427
101427
101430
101430
101430
101430
101430
101430
101430
101430
101430
101430
101430
101430
101430
101430
101429
101429
101429
101429
101428
101428
101428
101428
101431
101430
101431
101431
101431
101431
101431
101431
101431
101431
101431
101431
101430
101430
101430
101430
101430
101429
101429
101429
101429
101428
101431
101431
101431
101431
101431
101431
101431
101431
101431
101431
101431
101431
101431
101431
101431
101430
101430
101430
101430
101429
101429
101429
101432
101431
101431
101431
101432
101432
101432
101432
101432
101432
101432
101432
101432
101431
101431
101431
101431
101431
101430
101430
101430
101430
114732
114739
114748
114757
114763
114775
90208.2
90186.9
90178.6
90175.6
90177.2
90187
108705
108796
108880
108959
109032
109094
96156.2
96208.3
96264.9
96324.3
96386.2
96449.1
104272
104250
104226
104202
104180
104159
99430.1
99447.8
99466.2
99486.1
99507.6
99528.3
102447
102439
102431
102424
102416
102409
100672
100677
100684
100690
100696
100701
101743
101741
101738
101736
101734
101732
101149
101150
101150
101151
101152
101154
101497
101496
101496
101495
101495
101494
101319
101318
101318
101318
101318
101318
101428
101427
101427
101427
101427
101425
101387
101385
101385
101385
101385
101384
101414
101413
101412
101412
101411
101410
101407
101406
101405
101405
101405
101403
101415
101414
101413
101413
101412
101411
101415
101414
101414
101413
101413
101412
101418
101417
101417
101416
101416
101415
101419
101419
101418
101418
101418
101417
101421
101420
101420
101420
101420
101419
101422
101422
101422
101421
101421
101421
101423
101423
101423
101423
101422
101422
101424
101424
101424
101424
101424
101423
101425
101425
101425
101425
101425
101425
101426
101426
101426
101426
101426
101426
101427
101427
101427
101427
101426
101427
101428
101428
101428
101427
101427
101427
101428
101429
101428
101428
101428
101428
101429
101429
101429
101429
101429
101429
114751
114688
114633
114574
114516
114456
114397
114336
114274
114211
114148
114085
114023
113965
113910
113858
113809
113761
113717
113675
113632
113598
90205.5
90243.1
90290.4
90338.9
90382.6
90415.3
90438.2
90449.5
90447.8
90439.1
90435.6
90445.7
90469.4
90506.1
90553.6
90610.6
90674.9
90743.1
90812.7
90882.8
90952.7
91010.3
109144
109175
109175
109158
109131
109092
109033
108954
108860
108754
108644
108538
108442
108356
108279
108209
108146
108089
108034
107981
107931
107887
96479.7
96497.1
96520.6
96542.6
96554.3
96553.8
96542.1
96521
96493.5
96463.6
96434.4
96410.4
96390.6
96369.7
96348.4
96328.6
96308.9
96290.3
96276.3
96263.9
96253.7
96236.9
104157
104168
104178
104195
104216
104240
104267
104300
104337
104377
104419
104464
104512
104559
104605
104648
104690
104726
104752
104770
104778
104783
99532.8
99526.9
99522.5
99517.1
99508.6
99495.6
99479.8
99459.6
99438.8
99416.9
99392.7
99365.2
99334.9
99304.5
99274.4
99244.4
99214.4
99184.6
99155.4
99128
99101.2
99071
102413
102424
102436
102448
102461
102476
102491
102507
102526
102546
102568
102592
102616
102643
102670
102696
102722
102746
102770
102793
102815
102837
100699
100692
100685
100679
100671
100662
100652
100641
100627
100613
100597
100578
100558
100537
100515
100493
100471
100449
100428
100407
100386
100362
101736
101745
101753
101762
101770
101779
101789
101800
101811
101824
101838
101853
101869
101886
101903
101920
101936
101953
101969
101985
101999
102015
101153
101148
101144
101140
101135
101130
101124
101117
101110
101102
101092
101081
101069
101056
101042
101028
101014
101000
100986
100973
100959
100944
101497
101501
101505
101509
101514
101518
101523
101529
101535
101541
101549
101556
101565
101574
101583
101593
101602
101612
101621
101630
101640
101649
101318
101316
101314
101313
101310
101308
101305
101302
101299
101295
101291
101286
101279
101272
101265
101258
101250
101243
101235
101228
101220
101212
101427
101429
101430
101432
101433
101435
101436
101437
101439
101442
101445
101449
101453
101457
101461
101466
101471
101476
101481
101485
101490
101495
101385
101383
101382
101382
101380
101379
101378
101376
101374
101372
101370
101367
101364
101361
101358
101354
101351
101347
101344
101340
101336
101332
101412
101411
101412
101412
101413
101413
101414
101415
101415
101416
101417
101418
101420
101421
101423
101425
101427
101429
101431
101433
101435
101438
101405
101404
101403
101403
101403
101402
101402
101401
101401
101400
101399
101398
101397
101396
101394
101393
101392
101390
101389
101387
101385
101384
101412
101412
101412
101412
101412
101412
101412
101412
101412
101412
101412
101413
101413
101413
101414
101415
101415
101416
101417
101418
101419
101420
101413
101412
101412
101412
101412
101412
101411
101411
101411
101411
101411
101410
101410
101410
101409
101409
101408
101408
101407
101407
101406
101405
101416
101415
101415
101415
101415
101415
101415
101415
101415
101415
101415
101415
101415
101415
101415
101416
101416
101416
101416
101417
101417
101417
101417
101417
101417
101417
101417
101417
101417
101417
101417
101417
101416
101416
101416
101416
101416
101416
101416
101416
101416
101416
101415
101415
101419
101419
101419
101419
101419
101419
101419
101419
101419
101419
101419
101419
101419
101419
101419
101419
101419
101419
101419
101419
101419
101419
101420
101420
101420
101420
101420
101420
101420
101420
101420
101420
101420
101420
101420
101420
101420
101420
101420
101420
101420
101420
101420
101420
101422
101422
101422
101422
101422
101422
101422
101422
101422
101422
101422
101422
101422
101422
101422
101422
101422
101422
101422
101422
101422
101422
101423
101423
101423
101423
101423
101423
101423
101423
101423
101423
101423
101423
101423
101423
101423
101423
101423
101423
101423
101423
101423
101423
101424
101424
101424
101424
101424
101424
101424
101424
101424
101424
101424
101424
101424
101424
101424
101424
101424
101424
101424
101424
101424
101424
101425
101425
101425
101425
101425
101425
101425
101425
101425
101425
101425
101425
101425
101425
101425
101425
101425
101425
101425
101425
101425
101425
101426
101426
101426
101426
101426
101426
101426
101426
101426
101426
101426
101426
101426
101426
101426
101426
101426
101426
101426
101426
101425
101425
101427
101427
101427
101427
101427
101427
101427
101427
101427
101427
101427
101427
101427
101427
101427
101427
101427
101427
101426
101426
101426
101426
101427
101428
101428
101428
101428
101428
101428
101428
101428
101428
101428
101428
101428
101428
101428
101427
101427
101427
101427
101427
101427
101427
101428
101429
101429
101429
101429
101429
101429
101429
101429
101429
101429
101429
101429
101428
101428
101428
101428
101428
101428
101427
101427
101427
113593
113597
113606
113614
113623
113634
113645
113658
113671
113685
113698
113710
113719
113728
113744
113772
113810
113855
113906
113965
114047
114134
114217
114267
114295
114314
114325
114329
114331
114333
114333
114332
114332
114330
114331
91033.3
91059.6
91087.5
91118.4
91153.7
91193.6
91238.4
91287.9
91342.4
91402.6
91468.6
91539.6
91614
91697.1
91799.3
91923.1
92069.6
92213.3
92314.1
92342.5
92281.2
92143.9
91899.4
91645.6
91455.2
91343.9
91292.3
91290.3
91316.2
91362.2
91427.2
91507.2
91594.8
91671.7
91719.8
107852
107815
107775
107732
107684
107630
107571
107507
107436
107357
107268
107169
107063
106950
106838
106741
106664
106619
106576
106507
106393
106222
106054
105944
105918
105952
106034
106149
106259
106343
106399
106433
106448
106451
106448
96217.6
96216.5
96218.1
96219.9
96222.9
96227.7
96234.4
96243.8
96258.2
96280.2
96308.8
96347.7
96412.8
96505.5
96618.8
96738.9
96845.4
96944.4
97056.9
97184
97310.1
97426.2
97526.6
97604.4
97663.9
97717.5
97776.6
97814.6
97840.9
97855.1
97859.7
97857.5
97850.2
97840.7
97832
104782
104764
104737
104707
104673
104634
104592
104544
104490
104435
104387
104339
104284
104220
104146
104069
103989
103905
103840
103806
103789
103787
103810
103837
103853
103869
103880
103892
103897
103898
103897
103895
103892
103889
103885
99047
99044.6
99043.7
99041.4
99039.1
99037.5
99037.1
99038.3
99039.6
99039.3
99037.6
99040.2
99043.8
99050.6
99058.5
99069.9
99090.3
99114.2
99145.9
99178.5
99205
99231.2
99254.4
99275.3
99291.8
99309.2
99333.4
99360.6
99385.1
99404.9
99418.6
99426.9
99431
99432.2
99431.1
102859
102862
102864
102866
102867
102868
102869
102870
102871
102872
102872
102871
102865
102855
102842
102820
102788
102765
102750
102743
102747
102750
102751
102740
102716
102688
102674
102665
102661
102659
102660
102661
102663
102665
102667
100343
100338
100334
100330
100325
100320
100315
100310
100304
100296
100285
100274
100260
100244
100227
100216
100216
100220
100225
100230
100236
100242
100246
100249
100253
100257
100261
100265
100268
100271
100273
100274
100275
100276
100276
102029
102032
102035
102037
102040
102042
102045
102048
102051
102055
102059
102063
102070
102078
102087
102095
102093
102083
102074
102066
102060
102054
102050
102045
102041
102036
102032
102029
102026
102024
102023
102024
102025
102027
102029
100931
100928
100926
100924
100921
100917
100914
100910
100905
100900
100894
100886
100877
100867
100855
100842
100834
100833
100837
100839
100842
100844
100846
100847
100848
100849
100850
100850
100851
100852
100853
100854
100855
100856
100856
101657
101658
101659
101660
101662
101663
101664
101666
101667
101669
101671
101674
101678
101683
101690
101697
101704
101704
101697
101693
101690
101688
101687
101688
101689
101690
101691
101692
101692
101693
101693
101694
101694
101695
101695
101204
101203
101202
101200
101199
101197
101196
101194
101192
101190
101188
101184
101180
101174
101167
101159
101149
101145
101146
101147
101148
101149
101149
101149
101149
101148
101148
101148
101148
101149
101150
101151
101152
101153
101153
101499
101499
101500
101500
101500
101501
101501
101501
101500
101500
101501
101501
101503
101505
101509
101513
101518
101524
101524
101522
101522
101523
101525
101527
101530
101532
101535
101536
101538
101539
101540
101540
101540
101541
101541
101328
101327
101326
101325
101324
101324
101323
101323
101323
101322
101321
101319
101318
101315
101312
101307
101303
101298
101294
101294
101294
101294
101293
101293
101293
101292
101292
101292
101292
101292
101293
101294
101295
101296
101297
101439
101440
101440
101440
101439
101439
101438
101438
101437
101437
101436
101436
101436
101437
101439
101441
101443
101446
101450
101453
101453
101454
101457
101460
101462
101465
101467
101469
101470
101471
101472
101472
101473
101473
101473
101382
101381
101381
101380
101380
101380
101380
101379
101379
101379
101378
101378
101377
101376
101375
101373
101370
101368
101366
101363
101362
101361
101361
101361
101361
101361
101361
101360
101361
101361
101362
101362
101363
101364
101364
101421
101421
101421
101421
101420
101420
101419
101419
101419
101418
101418
101417
101417
101417
101417
101418
101419
101421
101423
101425
101427
101429
101432
101434
101436
101438
101440
101441
101442
101443
101444
101445
101445
101446
101446
101405
101405
101404
101404
101404
101404
101403
101403
101403
101403
101402
101402
101402
101401
101401
101400
101399
101398
101397
101396
101394
101393
101392
101392
101392
101392
101393
101393
101393
101394
101394
101395
101395
101396
101396
101418
101418
101418
101417
101417
101417
101417
101416
101416
101415
101415
101415
101414
101414
101414
101414
101415
101415
101416
101417
101419
101421
101423
101425
101427
101429
101430
101431
101432
101433
101434
101434
101435
101435
101435
101415
101415
101414
101414
101414
101414
101414
101413
101413
101413
101413
101412
101412
101412
101412
101411
101411
101410
101410
101410
101409
101409
101408
101408
101408
101408
101408
101409
101409
101409
101410
101410
101411
101411
101411
101420
101419
101419
101419
101419
101418
101418
101418
101418
101417
101417
101417
101416
101416
101416
101416
101416
101416
101417
101417
101418
101419
101421
101422
101423
101425
101426
101427
101428
101429
101430
101430
101431
101431
101431
101420
101420
101419
101419
101419
101419
101419
101418
101418
101418
101418
101417
101417
101417
101417
101416
101416
101416
101416
101416
101416
101416
101416
101416
101417
101417
101417
101417
101418
101418
101419
101419
101419
101420
101420
101422
101422
101421
101421
101421
101421
101420
101420
101420
101420
101419
101419
101419
101418
101418
101418
101418
101418
101418
101419
101419
101420
101421
101422
101423
101424
101425
101426
101426
101427
101428
101428
101428
101429
101429
101423
101422
101422
101422
101422
101422
101421
101421
101421
101420
101420
101420
101420
101419
101419
101419
101419
101419
101419
101419
101419
101419
101420
101420
101421
101421
101421
101422
101422
101423
101423
101423
101424
101424
101424
101424
101424
101423
101423
101423
101423
101422
101422
101422
101421
101421
101421
101420
101420
101420
101420
101420
101420
101420
101420
101420
101421
101421
101422
101423
101424
101424
101425
101426
101426
101427
101427
101427
101428
101428
101424
101424
101424
101424
101424
101423
101423
101423
101422
101422
101422
101421
101421
101421
101421
101420
101420
101420
101420
101420
101421
101421
101421
101422
101422
101423
101423
101424
101424
101425
101425
101425
101426
101426
101426
101425
101425
101425
101424
101424
101424
101424
101423
101423
101423
101422
101422
101422
101421
101421
101421
101421
101421
101421
101421
101421
101421
101422
101422
101423
101424
101424
101425
101425
101426
101426
101427
101427
101427
101428
101426
101425
101425
101425
101425
101424
101424
101424
101423
101423
101423
101422
101422
101422
101421
101421
101421
101421
101421
101421
101421
101422
101422
101422
101423
101423
101424
101425
101425
101425
101426
101426
101427
101427
101427
101426
101426
101426
101425
101425
101425
101424
101424
101424
101423
101423
101423
101422
101422
101421
101421
101421
101421
101421
101421
101421
101422
101422
101423
101423
101424
101424
101425
101425
101426
101426
101427
101427
101427
101427
101426
101426
101426
101426
101425
101425
101425
101424
101424
101423
101423
101423
101422
101422
101421
101421
101421
101421
101421
101421
101421
101422
101422
101423
101423
101424
101424
101425
101425
101426
101426
101426
101427
101427
101427
101434
101434
101434
101433
101433
101432
101432
101431
101431
101430
101430
101429
101429
101428
101428
101427
101427
101427
101427
101427
101427
101427
101428
101428
101428
101428
101429
101429
101429
101430
101430
101430
101430
101431
101430
101434
101433
101433
101433
101432
101432
101431
101431
101430
101430
101429
101429
101428
101428
101427
101427
101427
101427
101426
101427
101427
101427
101427
101427
101428
101428
101429
101429
101429
101430
101430
101430
101431
101431
101430
101433
101433
101433
101432
101432
101431
101431
101430
101430
101429
101429
101428
101428
101427
101427
101426
101426
101426
101426
101426
101426
101426
101427
101427
101427
101428
101428
101429
101429
101429
101430
101430
101431
101431
101430
101432
101432
101432
101432
101431
101431
101430
101430
101429
101429
101428
101428
101427
101427
101426
101426
101426
101425
101425
101425
101426
101426
101426
101426
101427
101427
101428
101428
101429
101429
101430
101430
101430
101431
101430
101432
101432
101431
101431
101431
101430
101430
101429
101429
101428
101428
101427
101427
101426
101426
101425
101425
101425
101425
101425
101425
101425
101425
101426
101426
101427
101427
101428
101428
101429
101429
101430
101430
101430
101430
101431
101431
101431
101431
101430
101430
101429
101429
101428
101428
101427
101427
101426
101425
101425
101425
101424
101424
101424
101424
101424
101424
101425
101425
101426
101426
101427
101427
101428
101428
101429
101429
101430
101430
101430
101431
101431
101430
101430
101430
101429
101429
101428
101428
101427
101426
101426
101425
101425
101424
101424
101424
101424
101423
101423
101423
101424
101424
101424
101425
101425
101426
101426
101427
101428
101428
101429
101429
101430
101429
101430
101430
101430
101429
101429
101429
101428
101428
101427
101426
101426
101425
101425
101424
101424
101423
101423
101423
101423
101423
101423
101423
101423
101424
101424
101424
101425
101426
101426
101427
101428
101428
101429
101429
101429
101430
101429
101429
101429
101428
101428
101427
101427
101426
101426
101425
101425
101424
101424
101423
101423
101422
101422
101422
101422
101422
101422
101422
101423
101423
101423
101424
101425
101425
101426
101427
101427
101428
101429
101428
101429
101429
101429
101428
101428
101427
101427
101426
101426
101425
101425
101424
101424
101423
101423
101422
101422
101422
101421
101421
101421
101421
101421
101422
101422
101422
101423
101424
101424
101425
101426
101426
101427
101428
101427
101428
101428
101428
101428
101427
101427
101426
101426
101425
101425
101424
101424
101423
101423
101422
101422
101421
101421
101421
101420
101420
101420
101420
101421
101421
101421
101422
101422
101423
101424
101425
101425
101426
101427
101427
101428
101428
101427
101427
101427
101426
101426
101425
101425
101424
101424
101423
101423
101422
101422
101421
101421
101420
101420
101420
101420
101419
101419
101419
101420
101420
101421
101421
101422
101423
101423
101424
101425
101426
101426
101427
101427
101427
101427
101426
101426
101425
101425
101424
101424
101423
101423
101422
101422
101421
101421
101420
101420
101419
101419
101419
101419
101418
101418
101419
101419
101419
101420
101420
101421
101422
101423
101424
101425
101424
101427
101427
101426
101426
101426
101425
101425
101424
101424
101423
101423
101422
101422
101421
101421
101420
101420
101419
101419
101418
101418
101418
101417
101417
101417
101417
101418
101418
101419
101419
101420
101421
101422
101423
101423
101426
101426
101426
101426
101425
101425
101425
101424
101424
101423
101422
101422
101421
101421
101420
101420
101419
101419
101418
101418
101417
101417
101416
101416
101416
101416
101416
101417
101417
101418
101418
101419
101421
101422
101422
101426
101426
101426
101425
101425
101425
101424
101424
101423
101423
101422
101422
101421
101420
101420
101419
101419
101418
101418
101417