/*--------------------------------*- C++ -*----------------------------------*\
  =========                 |
  \\      /  F ield         | OpenFOAM: The Open Source CFD Toolbox
   \\    /   O peration     | Website:  https://openfoam.org
    \\  /    A nd           | Version:  8
     \\/     M anipulation  |
\*---------------------------------------------------------------------------*/
FoamFile
{
    version     2.0;
    format      ascii;
    class       surfaceScalarField;
    location    "0.29";
    object      phi;
}
// * * * * * * * * * * * * * * * * * * * * * * * * * * * * * * * * * * * * * //

dimensions      [1 0 -1 0 0 0 0];

internalField   nonuniform List<scalar> 
31053
(
-9.76964e-06
1.45804e-05
-1.72328e-05
1.34284e-05
-2.57717e-05
1.59701e-05
-3.65003e-05
1.96969e-05
-5.07151e-05
2.46894e-05
-6.92532e-05
3.06167e-05
-9.23332e-05
3.6931e-05
-0.000119524
4.29995e-05
-0.000149568
4.80174e-05
-0.00018019
5.09874e-05
-0.000207117
4.99231e-05
-0.000219523
3.82907e-05
-0.00020251
1.20081e-05
-0.00014081
-2.89708e-05
-5.4588e-05
-5.4535e-05
4.29414e-05
-6.54699e-05
0.000141122
-6.57104e-05
0.000231107
-5.70608e-05
0.000307687
-4.33147e-05
0.000369304
-2.8095e-05
0.000415033
-1.19441e-05
0.000443271
3.45432e-06
0.000458336
1.44064e-05
0.000464317
2.14738e-05
0.000464514
2.544e-05
0.000461033
2.74911e-05
0.000455446
2.81524e-05
0.000449221
2.75035e-05
0.000443392
2.59502e-05
0.000438504
2.39581e-05
0.000434845
2.17564e-05
0.000432552
1.94707e-05
0.00043167
1.71789e-05
0.000432169
1.49336e-05
1.32317e-05
0.000433025
-7.19275e-05
8.64596e-05
-0.000160331
0.00010178
-0.000259379
0.000114964
-0.000367082
0.000127342
-0.000481436
0.000138984
-0.000600345
0.000149464
-0.000721167
0.000157685
-0.000840032
0.000161791
-0.000951005
0.000158916
-0.00104459
0.000144496
-0.00110639
0.000111639
-0.00111787
4.9724e-05
-0.00106171
-4.42336e-05
-0.000934994
-0.000155841
-0.0007863
-0.000203358
-0.000626683
-0.000225176
-0.000464931
-0.000227511
-0.000308783
-0.000213209
-0.00016474
-0.000187258
-3.55522e-05
-0.000157146
7.71162e-05
-0.000124459
0.000164789
-8.40923e-05
0.000233338
-5.40479e-05
0.000288174
-3.32794e-05
0.000332854
-1.91649e-05
0.000369757
-9.34427e-06
0.000400928
-2.9541e-06
0.00042797
5.324e-07
0.000451008
2.9826e-06
0.000470466
4.56682e-06
0.000487027
5.2551e-06
0.000501236
5.31267e-06
0.000513445
5.01426e-06
0.000523869
4.552e-06
3.56961e-06
0.000533572
-5.28667e-06
9.16758e-05
-6.0898e-06
0.000102504
-3.29542e-06
0.000112085
1.60863e-06
0.000122344
7.66631e-06
0.000132822
1.43994e-05
0.000142614
2.15517e-05
0.000150407
2.90132e-05
0.000154191
3.67869e-05
0.00015098
4.41488e-05
0.000136941
4.8616e-05
0.000106931
4.41373e-05
5.38621e-05
8.36428e-06
-8.8774e-06
-8.43986e-05
-6.35886e-05
-0.000192312
-9.59629e-05
-0.000292077
-0.000125938
-0.000370687
-0.000149336
-0.000421634
-0.000162613
-0.000442239
-0.000166999
-0.000433903
-0.000165836
-0.0003986
-0.00016015
-0.000343794
-0.000139261
-0.000279888
-0.000118281
-0.000213906
-9.95529e-05
-0.000150508
-8.28141e-05
-9.19071e-05
-6.81624e-05
-3.9454e-05
-5.55887e-05
5.83783e-06
-4.49172e-05
4.46854e-05
-3.60006e-05
7.79558e-05
-2.88231e-05
0.000106328
-2.32213e-05
0.000130524
-1.89714e-05
0.000151287
-1.58276e-05
0.000169256
-1.34914e-05
-1.14503e-05
0.000184205
3.73071e-05
5.44659e-05
7.37698e-05
6.61459e-05
0.000110939
7.50283e-05
0.000150272
8.31365e-05
0.000192902
9.03332e-05
0.000239524
9.61502e-05
0.000290306
9.9806e-05
0.000344622
0.000100084
0.000400576
9.52709e-05
0.000454104
8.3701e-05
0.000496119
6.52342e-05
0.000507905
4.24139e-05
0.000481272
1.80875e-05
0.000446612
-2.85332e-05
0.000429205
-7.82141e-05
0.000426533
-0.000122962
0.000434167
-0.000156733
0.000448899
-0.000177139
0.000469967
-0.000187865
0.000495543
-0.000191232
0.000524326
-0.000188777
0.000550897
-0.000165699
0.000573142
-0.00014041
0.000590342
-0.000116653
0.000602172
-9.45585e-05
0.000608506
-7.44202e-05
0.000609518
-5.65314e-05
0.000605646
-4.09826e-05
0.00059749
-2.77835e-05
0.000585626
-1.68995e-05
0.000570671
-8.20758e-06
0.000553194
-1.43746e-06
0.000533992
3.43005e-06
0.000513557
6.9943e-06
9.15929e-06
0.000492994
1.40813e-05
4.03639e-05
3.10537e-05
4.9152e-05
5.16178e-05
5.44406e-05
7.51716e-05
5.95564e-05
0.000101121
6.43537e-05
0.000128852
6.83832e-05
0.000157613
7.10023e-05
0.00018639
7.12577e-05
0.000213992
6.76108e-05
0.000239553
5.80707e-05
0.000263788
4.09192e-05
0.000294249
1.18487e-05
0.000330693
-1.84882e-05
0.000353431
-5.14419e-05
0.000347229
-7.21361e-05
0.000313095
-8.89182e-05
0.000256799
-0.000100514
0.000187842
-0.000108289
0.000114144
-0.000114276
4.07536e-05
-0.000117941
-3.02574e-05
-0.000117862
-9.23305e-05
-0.000103721
-0.000146075
-8.67553e-05
-0.000192428
-7.03869e-05
-0.000231431
-5.5645e-05
-0.000263022
-4.29152e-05
-0.000287286
-3.23486e-05
-0.000304528
-2.38152e-05
-0.000315436
-1.69438e-05
-0.000320933
-1.14656e-05
-0.000322043
-7.15246e-06
-0.000319802
-3.72958e-06
-0.000315621
-7.94003e-07
-0.000310037
1.37367e-06
3.13772e-06
-0.000304047
3.50588e-05
5.33482e-06
7.40401e-05
1.02028e-05
0.000116976
1.15392e-05
0.000165101
1.14679e-05
0.000219356
1.01393e-05
0.000280012
7.76939e-06
0.000346135
4.92501e-06
0.000416037
1.40264e-06
0.000487182
-3.48677e-06
0.000556138
-1.08368e-05
0.000615238
-1.81263e-05
0.000651157
-2.39958e-05
0.000662392
-2.96211e-05
0.000649119
-3.80629e-05
0.000617301
-4.02176e-05
0.000573228
-4.4759e-05
0.000523482
-5.06964e-05
0.000473765
-5.85228e-05
0.000426968
-6.7446e-05
0.000383496
-7.44385e-05
0.000341983
-7.6332e-05
0.000303367
-6.51125e-05
0.000266827
-5.02301e-05
0.000231516
-3.50859e-05
0.000196846
-2.09804e-05
0.000162225
-8.29681e-06
0.000128476
1.4028e-06
9.73498e-05
7.31546e-06
6.85951e-05
1.18156e-05
4.20851e-05
1.50488e-05
1.78449e-05
1.70901e-05
-4.03273e-06
1.81516e-05
-2.32805e-05
1.84566e-05
-4.0105e-05
1.81997e-05
1.74303e-05
-5.43963e-05
4.46199e-06
8.70923e-07
1.07717e-05
3.89299e-06
1.75019e-05
4.81001e-06
2.4484e-05
4.48767e-06
3.19415e-05
2.68471e-06
3.93244e-05
3.86977e-07
4.70829e-05
-2.83521e-06
5.49201e-05
-6.4395e-06
6.22677e-05
-1.08418e-05
6.78396e-05
-1.64206e-05
7.3242e-05
-2.35474e-05
8.13323e-05
-3.2112e-05
9.31923e-05
-4.15174e-05
0.000106458
-5.13737e-05
0.000116255
-5.00588e-05
0.000120696
-4.92522e-05
0.000117032
-4.70924e-05
0.000102575
-4.41386e-05
7.57131e-05
-4.06653e-05
3.78088e-05
-3.66188e-05
-7.29904e-06
-3.13094e-05
-5.00652e-05
-2.24242e-05
-8.5962e-05
-1.44023e-05
-0.000113172
-7.93506e-06
-0.000132349
-1.85513e-06
-0.000144065
3.37434e-06
-0.000151143
8.43772e-06
-0.000155783
1.19176e-05
-0.000158049
1.40478e-05
-0.000158235
1.52051e-05
-0.000156831
1.56566e-05
-0.000154309
1.56029e-05
-0.000151078
1.52021e-05
-0.000147473
1.45713e-05
1.39211e-05
-0.000143984
1.01336e-05
-9.26581e-06
2.29296e-05
-8.90617e-06
3.62791e-05
-8.54257e-06
4.89904e-05
-8.22791e-06
5.96966e-05
-8.02681e-06
6.82592e-05
-8.1794e-06
7.44994e-05
-9.07792e-06
7.91154e-05
-1.10565e-05
8.25226e-05
-1.42472e-05
8.48554e-05
-1.87488e-05
8.59182e-05
-2.46017e-05
8.55576e-05
-3.17374e-05
8.39629e-05
-3.99017e-05
8.07214e-05
-4.81032e-05
7.56494e-05
-4.49561e-05
6.90326e-05
-4.26022e-05
6.09304e-05
-3.89555e-05
5.12149e-05
-3.43873e-05
3.93397e-05
-2.87565e-05
2.47057e-05
-2.19537e-05
6.86986e-06
-1.34443e-05
-1.33329e-05
-2.19673e-06
-3.34518e-05
5.73717e-06
-5.24245e-05
1.10528e-05
-6.95816e-05
1.53149e-05
-8.44858e-05
1.82894e-05
-9.62281e-05
2.01904e-05
-0.00010559
2.12881e-05
-0.000113303
2.17687e-05
-0.000119845
2.17533e-05
-0.000125523
2.13415e-05
-0.000130537
2.06236e-05
-0.000135025
1.96947e-05
-0.000139078
1.86292e-05
1.74019e-05
-0.000142555
-2.4323e-06
-6.83753e-06
-3.00399e-06
-8.33882e-06
-1.81022e-06
-9.74101e-06
1.20641e-06
-1.12496e-05
6.06524e-06
-1.28913e-05
1.25531e-05
-1.46738e-05
2.0087e-05
-1.66202e-05
2.78066e-05
-1.87866e-05
3.47671e-05
-2.12207e-05
3.99508e-05
-2.39484e-05
4.23006e-05
-2.6971e-05
4.0761e-05
-3.02215e-05
3.43238e-05
-3.3493e-05
2.24578e-05
-3.62706e-05
8.79892e-06
-3.13292e-05
-6.43297e-06
-2.74029e-05
-2.26224e-05
-2.27988e-05
-3.92525e-05
-1.77906e-05
-5.55003e-05
-1.25432e-05
-7.0347e-05
-7.14264e-06
-8.29166e-05
-9.10215e-07
-9.16268e-05
6.47991e-06
-9.91609e-05
1.324e-05
-0.000105948
1.78111e-05
-0.000111433
2.0775e-05
-0.000115639
2.24707e-05
-0.000118679
2.32089e-05
-0.000120658
2.32482e-05
-0.000121704
2.27971e-05
-0.000121969
2.2002e-05
-0.000121612
2.09699e-05
-0.000120784
1.97838e-05
-0.000119625
1.85234e-05
-0.000118247
1.72409e-05
1.60285e-05
-0.000116884
-1.08175e-08
-6.82353e-06
-4.10944e-07
-7.93523e-06
-1.17818e-06
-8.97e-06
-2.25933e-06
-1.01642e-05
-3.5897e-06
-1.15562e-05
-5.09864e-06
-1.31595e-05
-6.71805e-06
-1.49946e-05
-8.41418e-06
-1.70832e-05
-1.01951e-05
-1.94313e-05
-1.21161e-05
-2.20175e-05
-1.43059e-05
-2.47694e-05
-1.69888e-05
-2.75244e-05
-2.04477e-05
-3.00173e-05
-2.49649e-05
-3.17337e-05
-3.0022e-05
-2.62529e-05
-3.57889e-05
-2.16163e-05
-4.23954e-05
-1.6172e-05
-5.03945e-05
-9.77092e-06
-6.09703e-05
-1.94709e-06
-7.26971e-05
4.60438e-06
-8.45159e-05
1.09279e-05
-9.41837e-05
1.61657e-05
-0.00010091
1.99807e-05
-0.000105758
2.26713e-05
-0.000109376
2.44043e-05
-0.000112222
2.53248e-05
-0.000114584
2.55791e-05
-0.000116641
2.53114e-05
-0.000118487
2.46485e-05
-0.000120177
2.36982e-05
-0.000121752
2.25498e-05
-0.000123246
2.12815e-05
-0.00012467
1.99516e-05
-0.000126024
1.85976e-05
1.72106e-05
-0.000127204
-3.69838e-07
-6.4557e-06
-5.44275e-07
-7.76292e-06
-5.38659e-07
-8.97795e-06
-4.59845e-07
-1.02456e-05
-4.31672e-07
-1.15873e-05
-5.84663e-07
-1.30099e-05
-1.07403e-06
-1.45092e-05
-2.09081e-06
-1.60711e-05
-3.86194e-06
-1.76657e-05
-6.64827e-06
-1.92377e-05
-1.07406e-05
-2.06849e-05
-1.64515e-05
-2.18227e-05
-2.40991e-05
-2.238e-05
-3.38293e-05
-2.20154e-05
-4.30357e-05
-1.70583e-05
-5.17644e-05
-1.28997e-05
-5.95933e-05
-8.35521e-06
-6.5668e-05
-3.70855e-06
-6.93543e-05
1.7271e-06
-7.41153e-05
9.35274e-06
-7.98766e-05
1.66762e-05
-8.54193e-05
2.16962e-05
-9.02918e-05
2.48421e-05
-9.43429e-05
2.67119e-05
-9.75478e-05
2.75996e-05
-9.99016e-05
2.767e-05
-0.000101459
2.71288e-05
-0.000102334
2.61792e-05
-0.000102644
2.49518e-05
-0.000102501
2.35493e-05
-0.000102008
2.20519e-05
-0.000101265
2.05341e-05
-0.000100363
1.90454e-05
-9.93777e-05
1.76078e-05
1.6257e-05
-9.8428e-05
-1.3573e-06
-5.09558e-06
-3.16637e-06
-5.95077e-06
-5.38588e-06
-6.75506e-06
-7.9657e-06
-7.66203e-06
-1.08549e-05
-8.69392e-06
-1.40081e-05
-9.85192e-06
-1.73835e-05
-1.11284e-05
-2.09456e-05
-1.2503e-05
-2.46696e-05
-1.39348e-05
-2.85496e-05
-1.535e-05
-3.25959e-05
-1.66299e-05
-3.68196e-05
-1.75893e-05
-4.12745e-05
-1.79145e-05
-4.62263e-05
-1.70518e-05
-5.12395e-05
-1.20343e-05
-5.66826e-05
-7.44629e-06
-6.32681e-05
-1.75936e-06
-7.01294e-05
3.16266e-06
-7.662e-05
8.22751e-06
-8.11379e-05
1.38805e-05
-8.44207e-05
1.99687e-05
-8.66683e-05
2.39523e-05
-8.82278e-05
2.64093e-05
-8.93341e-05
2.7825e-05
-9.0132e-05
2.84029e-05
-9.07254e-05
2.8268e-05
-9.1197e-05
2.76047e-05
-9.16026e-05
2.65883e-05
-9.19759e-05
2.53283e-05
-9.23358e-05
2.39119e-05
-9.26908e-05
2.24091e-05
-9.30356e-05
2.08807e-05
-9.33568e-05
1.93681e-05
-9.3644e-05
1.78963e-05
1.64607e-05
-9.38466e-05
-7.18308e-07
-4.37801e-06
-1.46723e-06
-5.20264e-06
-2.25905e-06
-5.96417e-06
-3.16574e-06
-6.75638e-06
-4.27309e-06
-7.58778e-06
-5.67064e-06
-8.45576e-06
-7.45361e-06
-9.34707e-06
-9.72298e-06
-1.02355e-05
-1.25833e-05
-1.10768e-05
-1.61383e-05
-1.17978e-05
-2.04865e-05
-1.2285e-05
-2.57014e-05
-1.23784e-05
-3.1808e-05
-1.18125e-05
-3.86847e-05
-1.01807e-05
-4.46473e-05
-6.07723e-06
-4.96302e-05
-2.46923e-06
-5.31449e-05
1.74945e-06
-5.70663e-05
7.07822e-06
-6.12415e-05
1.23971e-05
-6.53695e-05
1.8003e-05
-6.93336e-05
2.39275e-05
-7.25956e-05
2.72098e-05
-7.50423e-05
2.88524e-05
-7.67238e-05
2.95033e-05
-7.7732e-05
2.94084e-05
-7.82168e-05
2.87501e-05
-7.83067e-05
2.76922e-05
-7.80852e-05
2.63647e-05
-7.76283e-05
2.48694e-05
-7.70029e-05
2.32847e-05
-7.62649e-05
2.16694e-05
-7.54521e-05
2.00662e-05
-7.45898e-05
1.85043e-05
-7.36995e-05
1.70046e-05
1.55926e-05
-7.28324e-05
-1.31733e-06
-3.05951e-06
-2.95301e-06
-3.56572e-06
-4.87096e-06
-4.04489e-06
-7.04976e-06
-4.57611e-06
-9.46894e-06
-5.16698e-06
-1.21119e-05
-5.81094e-06
-1.49649e-05
-6.49205e-06
-1.80174e-05
-7.18071e-06
-2.12651e-05
-7.82659e-06
-2.47073e-05
-8.35283e-06
-2.83446e-05
-8.64468e-06
-3.22046e-05
-8.51507e-06
-3.6352e-05
-7.66179e-06
-4.09376e-05
-5.59145e-06
-4.56312e-05
-1.3804e-06
-5.03725e-05
2.2751e-06
-5.47795e-05
6.1593e-06
-5.81966e-05
1.0498e-05
-6.0968e-05
1.51712e-05
-6.31134e-05
2.01512e-05
-6.46355e-05
2.54524e-05
-6.5511e-05
2.80877e-05
-6.58929e-05
2.92365e-05
-6.5918e-05
2.95304e-05
-6.56999e-05
2.91922e-05
-6.53302e-05
2.8382e-05
-6.48727e-05
2.72361e-05
-6.43716e-05
2.58647e-05
-6.38565e-05
2.43553e-05
-6.33461e-05
2.2775e-05
-6.28511e-05
2.1175e-05
-6.2377e-05
1.95927e-05
-6.19272e-05
1.8055e-05
-6.15031e-05
1.65812e-05
1.51765e-05
-6.10863e-05
-5.76452e-07
-2.48403e-06
-1.25023e-06
-2.89301e-06
-2.0281e-06
-3.2682e-06
-2.95563e-06
-3.64989e-06
-4.08811e-06
-4.036e-06
-5.48331e-06
-4.41743e-06
-7.20053e-06
-4.77677e-06
-9.29824e-06
-5.08521e-06
-1.18305e-05
-5.29686e-06
-1.48433e-05
-5.34292e-06
-1.83659e-05
-5.12544e-06
-2.23984e-05
-4.48629e-06
-2.68643e-05
-3.20015e-06
-3.1406e-05
-1.05482e-06
-3.51287e-05
2.33764e-06
-3.87508e-05
5.89271e-06
-4.22703e-05
9.67452e-06
-4.55233e-05
1.37471e-05
-4.8443e-05
1.80871e-05
-5.09678e-05
2.26727e-05
-5.2976e-05
2.74578e-05
-5.42455e-05
2.93548e-05
-5.49271e-05
2.99163e-05
-5.51583e-05
2.976e-05
-5.50334e-05
2.9066e-05
-5.46365e-05
2.7984e-05
-5.40383e-05
2.66369e-05
-5.32974e-05
2.51231e-05
-5.2462e-05
2.35191e-05
-5.15711e-05
2.18833e-05
-5.06554e-05
2.02588e-05
-4.97393e-05
1.86758e-05
-4.88412e-05
1.71564e-05
-4.79753e-05
1.57149e-05
1.43648e-05
-4.71638e-05
-1.06044e-06
-1.42374e-06
-2.32443e-06
-1.62921e-06
-3.77113e-06
-1.82173e-06
-5.3932e-06
-2.02811e-06
-7.18477e-06
-2.24476e-06
-9.14307e-06
-2.45951e-06
-1.12685e-05
-2.65175e-06
-1.35653e-05
-2.78897e-06
-1.6039e-05
-2.82378e-06
-1.86965e-05
-2.68616e-06
-2.1564e-05
-2.25884e-06
-2.47158e-05
-1.33544e-06
-2.83235e-05
4.06428e-07
-3.22128e-05
2.8332e-06
-3.54635e-05
5.58701e-06
-3.83049e-05
8.73285e-06
-4.07924e-05
1.21607e-05
-4.28991e-05
1.58525e-05
-4.45964e-05
1.97833e-05
-4.58354e-05
2.39107e-05
-4.65725e-05
2.81942e-05
-4.68202e-05
2.96019e-05
-4.67008e-05
2.97965e-05
-4.6316e-05
2.93749e-05
-4.57473e-05
2.84973e-05
-4.50606e-05
2.72972e-05
-4.43069e-05
2.58832e-05
-4.35247e-05
2.43407e-05
-4.27416e-05
2.27359e-05
-4.19768e-05
2.11184e-05
-4.1243e-05
1.95249e-05
-4.05484e-05
1.79811e-05
-3.98971e-05
1.6505e-05
-3.92903e-05
1.51081e-05
1.37947e-05
-3.87201e-05
-4.80148e-07
-9.44659e-07
-1.0705e-06
-1.04005e-06
-1.77238e-06
-1.12119e-06
-2.61248e-06
-1.18951e-06
-3.62399e-06
-1.23497e-06
-4.84128e-06
-1.24416e-06
-6.29772e-06
-1.19752e-06
-8.02228e-06
-1.06693e-06
-1.0033e-05
-8.15902e-07
-1.23149e-05
-4.07582e-07
-1.48793e-05
3.02111e-07
-1.78224e-05
1.60347e-06
-2.09423e-05
3.52181e-06
-2.45567e-05
6.44279e-06
-2.77405e-05
8.76652e-06
-3.06275e-05
1.16158e-05
-3.31825e-05
1.4712e-05
-3.53706e-05
1.80372e-05
-3.71574e-05
2.1567e-05
-3.85173e-05
2.52678e-05
-3.94309e-05
2.91053e-05
-3.9845e-05
3.00139e-05
-3.98613e-05
2.98111e-05
-3.95817e-05
2.9094e-05
-3.90879e-05
2.80023e-05
-3.84448e-05
2.66531e-05
-3.77033e-05
2.51408e-05
-3.69035e-05
2.35401e-05
-3.60762e-05
2.19079e-05
-3.5245e-05
2.02867e-05
-3.44275e-05
1.87068e-05
-3.36364e-05
1.71895e-05
-3.2881e-05
1.57493e-05
-3.21675e-05
1.43943e-05
1.31297e-05
-3.15027e-05
-8.14039e-07
-1.31222e-07
-1.7724e-06
-8.23839e-08
-2.86579e-06
-2.85842e-08
-4.08656e-06
3.0351e-08
-5.42846e-06
1.05911e-07
-6.89479e-06
2.20992e-07
-8.49755e-06
4.03889e-07
-1.02501e-05
6.84097e-07
-1.217e-05
1.1022e-06
-1.43009e-05
1.72131e-06
-1.66406e-05
2.63941e-06
-1.90473e-05
4.0075e-06
-2.15867e-05
6.05819e-06
-2.42856e-05
9.13831e-06
-2.66445e-05
1.11224e-05
-2.8774e-05
1.37425e-05
-3.06402e-05
1.65755e-05
-3.22073e-05
1.96018e-05
-3.34406e-05
2.27979e-05
-3.43112e-05
2.61361e-05
-3.47951e-05
2.95871e-05
-3.48911e-05
3.01081e-05
-3.46903e-05
2.96088e-05
-3.42756e-05
2.86781e-05
-3.37144e-05
2.74401e-05
-3.30601e-05
2.59979e-05
-3.2354e-05
2.44339e-05
-3.16267e-05
2.28122e-05
-3.09005e-05
2.11812e-05
-3.01912e-05
1.95768e-05
-2.95091e-05
1.80243e-05
-2.88613e-05
1.65412e-05
-2.82508e-05
1.51384e-05
-2.76788e-05
1.38221e-05
1.25941e-05
-2.71434e-05
-3.13912e-07
1.81804e-07
-7.33314e-07
3.3602e-07
-1.25127e-06
4.88251e-07
-1.89246e-06
6.70253e-07
-2.68818e-06
9.00187e-07
-3.66476e-06
1.19593e-06
-4.84323e-06
1.5805e-06
-6.24572e-06
2.08447e-06
-7.89397e-06
2.74807e-06
-9.80267e-06
3.62734e-06
-1.19779e-05
4.81172e-06
-1.44169e-05
6.44314e-06
-1.70942e-05
8.73176e-06
-1.99587e-05
1.19988e-05
-2.24122e-05
1.35722e-05
-2.45912e-05
1.5918e-05
-2.64771e-05
1.84582e-05
-2.80511e-05
2.11727e-05
-2.92951e-05
2.40391e-05
-3.01939e-05
2.70323e-05
-3.07337e-05
3.01245e-05
-3.08997e-05
3.0272e-05
-3.07762e-05
2.94835e-05
-3.04421e-05
2.83424e-05
-2.99602e-05
2.69569e-05
-2.93797e-05
2.54163e-05
-2.87389e-05
2.3792e-05
-2.80666e-05
2.2139e-05
-2.73848e-05
2.04987e-05
-2.67098e-05
1.89011e-05
-2.60532e-05
1.73672e-05
-2.54233e-05
1.59107e-05
-2.48253e-05
1.454e-05
-2.42628e-05
1.32591e-05
1.20697e-05
-2.37388e-05
-7.02847e-07
8.84116e-07
-1.47674e-06
1.1093e-06
-2.32562e-06
1.33642e-06
-3.25595e-06
1.59977e-06
-4.27339e-06
1.9167e-06
-5.38373e-06
2.3052e-06
-6.59089e-06
2.78641e-06
-7.89866e-06
3.3908e-06
-9.32038e-06
4.16816e-06
-1.08795e-05
5.18462e-06
-1.26008e-05
6.53086e-06
-1.45069e-05
8.34683e-06
-1.66105e-05
1.08326e-05
-1.88895e-05
1.42747e-05
-2.08872e-05
1.55671e-05
-2.26897e-05
1.77177e-05
-2.42658e-05
2.00316e-05
-2.55883e-05
2.24926e-05
-2.66335e-05
2.50817e-05
-2.7381e-05
2.77773e-05
-2.78142e-05
3.05553e-05
-2.79261e-05
3.03818e-05
-2.77903e-05
2.93459e-05
-2.74751e-05
2.80256e-05
-2.70355e-05
2.65159e-05
-2.6515e-05
2.48946e-05
-2.59471e-05
2.3223e-05
-2.53571e-05
2.15481e-05
-2.47637e-05
1.99045e-05
-2.41804e-05
1.8317e-05
-2.36163e-05
1.68024e-05
-2.30777e-05
1.53715e-05
-2.25683e-05
1.40301e-05
-2.20903e-05
1.27806e-05
1.16227e-05
-2.16438e-05
-2.83493e-07
1.16707e-06
-6.75406e-07
1.5006e-06
-1.1643e-06
1.82462e-06
-1.76066e-06
2.19535e-06
-2.48097e-06
2.63611e-06
-3.34226e-06
3.16547e-06
-4.36191e-06
3.80488e-06
-5.5544e-06
4.58193e-06
-6.9267e-06
5.53892e-06
-8.48746e-06
6.74364e-06
-1.02482e-05
8.28963e-06
-1.22088e-05
1.03052e-05
-1.43542e-05
1.29756e-05
-1.66485e-05
1.65662e-05
-1.86254e-05
1.75414e-05
-2.03904e-05
1.94802e-05
-2.19257e-05
2.15644e-05
-2.32143e-05
2.37787e-05
-2.42405e-05
2.61055e-05
-2.49902e-05
2.85247e-05
-2.54515e-05
3.10143e-05
-2.56115e-05
3.05397e-05
-2.55378e-05
2.92704e-05
-2.52937e-05
2.77798e-05
-2.49295e-05
2.61503e-05
-2.44851e-05
2.44489e-05
-2.39913e-05
2.27281e-05
-2.34715e-05
2.10273e-05
-2.29435e-05
1.93756e-05
-2.24202e-05
1.77929e-05
-2.19109e-05
1.62925e-05
-2.14222e-05
1.48822e-05
-2.09583e-05
1.35657e-05
-2.05219e-05
1.23437e-05
1.12148e-05
-2.01145e-05
-4.80013e-07
1.64679e-06
-1.03105e-06
2.05129e-06
-1.6508e-06
2.44397e-06
-2.34094e-06
2.88501e-06
-3.10523e-06
3.39986e-06
-3.95209e-06
4.0117e-06
-4.8948e-06
4.74686e-06
-5.95351e-06
5.63981e-06
-7.1499e-06
6.73432e-06
-8.49999e-06
8.09258e-06
-1.00162e-05
9.80452e-06
-1.17064e-05
1.19939e-05
-1.35672e-05
1.48346e-05
-1.55775e-05
1.85743e-05
-1.73366e-05
1.92985e-05
-1.89271e-05
2.10685e-05
-2.03262e-05
2.29614e-05
-2.1514e-05
2.49643e-05
-2.24723e-05
2.70616e-05
-2.31857e-05
2.92358e-05
-2.36409e-05
3.14673e-05
-2.38223e-05
3.07191e-05
-2.37895e-05
2.92358e-05
-2.35995e-05
2.75881e-05
-2.32982e-05
2.58475e-05
-2.29219e-05
2.40713e-05
-2.2499e-05
2.2304e-05
-2.20511e-05
2.05784e-05
-2.15944e-05
1.8918e-05
-2.11408e-05
1.73385e-05
-2.06987e-05
1.58497e-05
-2.0274e-05
1.44568e-05
-1.98704e-05
1.31615e-05
-1.94903e-05
1.1963e-05
1.08585e-05
-1.91345e-05
-3.06148e-07
1.95271e-06
-6.89495e-07
2.43438e-06
-1.14959e-06
2.90377e-06
-1.69645e-06
3.43151e-06
-2.34019e-06
4.04319e-06
-3.09189e-06
4.76293e-06
-3.96454e-06
5.61897e-06
-4.97121e-06
6.64585e-06
-6.1259e-06
7.88829e-06
-7.44089e-06
9.40673e-06
-8.92306e-06
1.12857e-05
-1.05733e-05
1.3643e-05
-1.23834e-05
1.66433e-05
-1.43289e-05
2.05181e-05
-1.6022e-05
2.09899e-05
-1.75506e-05
2.25954e-05
-1.88985e-05
2.43075e-05
-2.00499e-05
2.61139e-05
-2.09904e-05
2.80001e-05
-2.17065e-05
2.995e-05
-2.21869e-05
3.19456e-05
-2.2411e-05
3.09413e-05
-2.24325e-05
2.92556e-05
-2.2304e-05
2.74581e-05
-2.2068e-05
2.561e-05
-2.1758e-05
2.37601e-05
-2.14005e-05
2.19453e-05
-2.10155e-05
2.01924e-05
-2.06184e-05
1.852e-05
-2.02207e-05
1.69399e-05
-1.98305e-05
1.54588e-05
-1.94537e-05
1.40794e-05
-1.90942e-05
1.28014e-05
-1.87545e-05
1.16227e-05
1.05395e-05
-1.8436e-05
-3.72856e-07
2.32548e-06
-8.09483e-07
2.8709e-06
-1.30569e-06
3.39985e-06
-1.86755e-06
3.99322e-06
-2.50483e-06
4.68028e-06
-3.22754e-06
5.48543e-06
-4.04657e-06
6.43773e-06
-4.97429e-06
7.57325e-06
-6.02462e-06
8.93824e-06
-7.2122e-06
1.05938e-05
-8.54974e-06
1.26227e-05
-1.0045e-05
1.51376e-05
-1.1697e-05
1.82943e-05
-1.34893e-05
2.23093e-05
-1.50659e-05
2.25653e-05
-1.6503e-05
2.40312e-05
-1.77828e-05
2.55858e-05
-1.88887e-05
2.72183e-05
-1.98059e-05
2.89156e-05
-2.05206e-05
3.0663e-05
-2.10211e-05
3.24442e-05
-2.12821e-05
3.12006e-05
-2.13517e-05
2.93236e-05
-2.12781e-05
2.73829e-05
-2.11004e-05
2.5431e-05
-2.08501e-05
2.35085e-05
-2.05518e-05
2.16458e-05
-2.02245e-05
1.98642e-05
-1.98829e-05
1.81775e-05
-1.95378e-05
1.6594e-05
-1.91971e-05
1.51174e-05
-1.88665e-05
1.37481e-05
-1.85498e-05
1.24842e-05
-1.82495e-05
1.13219e-05
1.02566e-05
-1.79671e-05
-2.95126e-07
2.62058e-06
-6.62171e-07
3.2379e-06
-1.09467e-06
3.83229e-06
-1.59792e-06
4.49641e-06
-2.18038e-06
5.26266e-06
-2.85252e-06
6.15747e-06
-3.62541e-06
7.21051e-06
-4.51051e-06
8.4582e-06
-5.51942e-06
9.94696e-06
-6.66323e-06
1.17374e-05
-7.95116e-06
1.39103e-05
-9.38849e-06
1.65745e-05
-1.09733e-05
1.98786e-05
-1.26911e-05
2.40263e-05
-1.4203e-05
2.40764e-05
-1.55858e-05
2.5413e-05
-1.68245e-05
2.68234e-05
-1.79047e-05
2.82973e-05
-1.88129e-05
2.98224e-05
-1.95364e-05
3.13849e-05
-2.00635e-05
3.29696e-05
-2.03644e-05
3.15e-05
-2.04824e-05
2.94401e-05
-2.04619e-05
2.73611e-05
-2.03394e-05
2.53072e-05
-2.01443e-05
2.33123e-05
-1.98997e-05
2.14003e-05
-1.9624e-05
1.95875e-05
-1.9331e-05
1.78837e-05
-1.90313e-05
1.62936e-05
-1.87326e-05
1.48181e-05
-1.84407e-05
1.34556e-05
-1.81595e-05
1.22025e-05
-1.78917e-05
1.10536e-05
1.00034e-05
-1.7639e-05
-3.10157e-07
2.93077e-06
-6.80342e-07
3.60812e-06
-1.10787e-06
4.25985e-06
-1.59809e-06
4.98666e-06
-2.15857e-06
5.82316e-06
-2.79842e-06
6.79734e-06
-3.52798e-06
7.94008e-06
-4.35861e-06
9.28883e-06
-5.30236e-06
1.08907e-05
-6.37134e-06
1.28063e-05
-7.57642e-06
1.51153e-05
-8.92522e-06
1.79231e-05
-1.04188e-05
2.13719e-05
-1.20467e-05
2.56538e-05
-1.34891e-05
2.55182e-05
-1.48174e-05
2.67406e-05
-1.60173e-05
2.80224e-05
-1.70749e-05
2.93538e-05
-1.79769e-05
3.07232e-05
-1.87108e-05
3.21175e-05
-1.92649e-05
3.35223e-05
-1.96047e-05
3.18384e-05
-1.97687e-05
2.96027e-05
-1.97981e-05
2.73892e-05
-1.97268e-05
2.52348e-05
-1.95826e-05
2.3167e-05
-1.93875e-05
2.12043e-05
-1.9159e-05
1.93581e-05
-1.89104e-05
1.76344e-05
-1.86522e-05
1.60346e-05
-1.8392e-05
1.45573e-05
-1.81354e-05
1.31986e-05
-1.78866e-05
1.19532e-05
-1.76484e-05
1.08149e-05
9.77704e-06
-1.74225e-05
-2.75577e-07
3.20639e-06
-6.13397e-07
3.946e-06
-1.00854e-06
4.65505e-06
-1.4662e-06
5.44439e-06
-1.99393e-06
6.35096e-06
-2.60053e-06
7.40402e-06
-3.29577e-06
8.6354e-06
-4.09011e-06
1.00832e-05
-4.99442e-06
1.17951e-05
-6.01945e-06
1.38314e-05
-7.17489e-06
1.62707e-05
-8.4678e-06
1.9216e-05
-9.89996e-06
2.28039e-05
-1.14635e-05
2.7217e-05
-1.28534e-05
2.69076e-05
-1.414e-05
2.80267e-05
-1.53106e-05
2.91923e-05
-1.63526e-05
3.03949e-05
-1.72535e-05
3.16231e-05
-1.80012e-05
3.2864e-05
-1.85842e-05
3.4104e-05
-1.89632e-05
3.22162e-05
-1.91724e-05
2.98108e-05
-1.92501e-05
2.74657e-05
-1.92279e-05
2.52117e-05
-1.91321e-05
2.30702e-05
-1.89835e-05
2.10549e-05
-1.8799e-05
1.91728e-05
-1.85915e-05
1.74263e-05
-1.83714e-05
1.58139e-05
-1.81462e-05
1.43316e-05
-1.79217e-05
1.29736e-05
-1.7702e-05
1.17331e-05
-1.74903e-05
1.06027e-05
9.57472e-06
-1.72883e-05
-2.71581e-07
3.47804e-06
-5.9945e-07
4.27394e-06
-9.80645e-07
5.03632e-06
-1.42002e-06
5.88385e-06
-1.92459e-06
6.85561e-06
-2.50263e-06
7.98216e-06
-3.16353e-06
9.2964e-06
-3.91758e-06
1.08374e-05
-4.77569e-06
1.26533e-05
-5.7489e-06
1.48047e-05
-6.84748e-06
1.73694e-05
-8.07944e-06
2.0448e-05
-9.44811e-06
2.41725e-05
-1.09483e-05
2.8717e-05
-1.22888e-05
2.82478e-05
-1.35373e-05
2.92748e-05
-1.46823e-05
3.03366e-05
-1.57117e-05
3.14237e-05
-1.66139e-05
3.25245e-05
-1.73772e-05
3.36263e-05
-1.799e-05
3.47157e-05
-1.84083e-05
3.26334e-05
-1.86622e-05
3.00637e-05
-1.87871e-05
2.75896e-05
-1.88127e-05
2.52363e-05
-1.87636e-05
2.30202e-05
-1.86598e-05
2.09503e-05
-1.85175e-05
1.90299e-05
-1.83494e-05
1.72577e-05
-1.81656e-05
1.56296e-05
-1.79737e-05
1.41392e-05
-1.77796e-05
1.27791e-05
-1.75876e-05
1.15407e-05
-1.74008e-05
1.04156e-05
9.395e-06
-1.72214e-05
-2.53408e-07
3.73151e-06
-5.62758e-07
4.58335e-06
-9.2384e-07
5.39748e-06
-1.34126e-06
6.30136e-06
-1.8218e-06
7.33624e-06
-2.37343e-06
8.53389e-06
-3.0051e-06
9.92817e-06
-3.72655e-06
1.1559e-05
-4.54808e-06
1.34749e-05
-5.4802e-06
1.5737e-05
-6.53286e-06
1.84221e-05
-7.71428e-06
2.16294e-05
-9.0289e-06
2.54871e-05
-1.0474e-05
3.01619e-05
-1.17708e-05
2.95444e-05
-1.29858e-05
3.04894e-05
-1.41084e-05
3.14587e-05
-1.5128e-05
3.24426e-05
-1.60334e-05
3.34291e-05
-1.68134e-05
3.44055e-05
-1.74567e-05
3.53579e-05
-1.79146e-05
3.30903e-05
-1.82132e-05
3.03614e-05
-1.8385e-05
2.77606e-05
-1.84579e-05
2.53084e-05
-1.84548e-05
2.30165e-05
-1.83951e-05
2.089e-05
-1.82943e-05
1.89285e-05
-1.81649e-05
1.71277e-05
-1.80166e-05
1.54809e-05
-1.78573e-05
1.39795e-05
-1.76927e-05
1.26142e-05
-1.75276e-05
1.13752e-05
-1.7365e-05
1.02527e-05
9.23721e-06
-1.72075e-05
-2.47122e-07
3.97868e-06
-5.44569e-07
4.88085e-06
-8.90478e-07
5.74344e-06
-1.2896e-06
6.70053e-06
-1.74848e-06
7.79519e-06
-2.27484e-06
9.06032e-06
-2.87735e-06
1.05308e-05
-3.5655e-06
1.22472e-05
-4.34944e-06
1.4259e-05
-5.23962e-06
1.66272e-05
-6.24611e-06
1.94287e-05
-7.37763e-06
2.2761e-05
-8.63974e-06
2.67492e-05
-1.0032e-05
3.1554e-05
-1.12874e-05
3.07996e-05
-1.24707e-05
3.16723e-05
-1.35725e-05
3.25601e-05
-1.45832e-05
3.34526e-05
-1.54925e-05
3.43378e-05
-1.62897e-05
3.5202e-05
-1.69637e-05
3.6031e-05
-1.74612e-05
3.3587e-05
-1.78045e-05
3.07038e-05
-1.80233e-05
2.79787e-05
-1.81434e-05
2.54278e-05
-1.81865e-05
2.3059e-05
-1.81708e-05
2.08738e-05
-1.81115e-05
1.88686e-05
-1.80206e-05
1.70364e-05
-1.7908e-05
1.53678e-05
-1.77811e-05
1.38523e-05
-1.76462e-05
1.24789e-05
-1.75078e-05
1.12365e-05
-1.73695e-05
1.01141e-05
-1.72338e-05
9.10131e-06
0.000425239
2.66138e-05
0.000416023
2.76543e-05
0.000406487
2.80489e-05
0.000396732
2.83216e-05
0.000386801
2.85362e-05
0.00037666
2.87612e-05
0.000366184
2.90872e-05
0.000355111
2.96397e-05
0.000343027
3.05678e-05
0.00032929
3.20869e-05
0.000313128
3.43391e-05
0.000294343
3.66364e-05
0.000274319
3.71473e-05
0.000253397
3.73663e-05
0.000231852
3.7315e-05
0.000209933
3.70186e-05
0.000187856
3.65165e-05
0.000165777
3.58714e-05
0.00014391
3.50341e-05
0.000122498
3.3977e-05
0.000101774
3.27024e-05
3.14829e-05
8.14392e-05
0.000556091
4.16026e-06
0.000582301
1.50004e-06
0.000611255
-8.55242e-07
0.000642947
-3.32429e-06
0.000677058
-5.5343e-06
0.000713483
-7.63111e-06
0.000752266
-9.66918e-06
0.00079323
-1.13042e-05
0.000835728
-1.19188e-05
0.000878687
-1.08654e-05
0.000920511
-7.48531e-06
0.000958393
-1.25067e-06
0.000986398
9.1325e-06
0.00100444
1.93219e-05
0.00101263
2.9139e-05
0.0010113
3.83675e-05
0.00100099
4.68423e-05
0.000982334
5.45469e-05
0.000955971
6.14269e-05
0.000922539
6.74438e-05
0.000882673
7.26027e-05
7.65087e-05
0.000837685
0.000198744
-1.04972e-05
0.000209058
-8.92964e-06
0.000215967
-7.87578e-06
0.000219483
-6.94612e-06
0.000219998
-6.15343e-06
0.000217779
-5.51227e-06
0.000213046
-5.03227e-06
0.00020625
-4.58928e-06
0.000197912
-3.64682e-06
0.000188851
-1.8564e-06
0.000180341
9.80373e-07
0.000173905
5.14727e-06
0.000172576
1.04331e-05
0.000175297
1.65849e-05
0.000180151
2.42716e-05
0.000185614
3.29084e-05
0.000191699
4.07765e-05
0.000198253
4.80216e-05
0.000205081
5.46349e-05
0.000211975
6.05879e-05
0.000218777
6.58435e-05
7.07827e-05
0.000224549
0.000463476
1.90921e-05
0.000429439
2.51822e-05
0.000390057
3.15848e-05
0.00034542
3.77714e-05
0.000295727
4.36235e-05
0.000241292
4.90096e-05
0.000182551
5.37995e-05
0.000120207
5.78583e-05
5.54261e-05
6.12515e-05
-1.02233e-05
6.39125e-05
-7.4697e-05
6.55788e-05
-0.000134911
6.5486e-05
-0.00018685
6.25022e-05
-0.000229765
5.96373e-05
-0.000262634
5.72905e-05
-0.0002853
5.57221e-05
-0.000299437
5.50548e-05
-0.000306501
5.52205e-05
-0.000307801
5.60629e-05
-0.000304511
5.7423e-05
-0.000297696
5.91516e-05
6.07823e-05
-0.000287579
-0.00029094
5.93753e-06
-0.000277449
1.16453e-05
-0.000262849
1.69386e-05
-0.000247304
2.21795e-05
-0.000231085
2.73569e-05
-0.000214542
3.24167e-05
-0.000198059
3.72639e-05
-0.000182052
4.17957e-05
-0.000166855
4.5995e-05
-0.000152952
4.99442e-05
-0.000141095
5.36483e-05
-0.000131838
5.61511e-05
-0.000125028
5.56153e-05
-0.000120316
5.48546e-05
-0.000117333
5.42449e-05
-0.00011555
5.38846e-05
-0.000114357
5.3815e-05
-0.000113211
5.40372e-05
-0.000111693
5.45149e-05
-0.000109479
5.51864e-05
-0.000106338
5.59942e-05
5.70732e-05
-0.000102638
-7.35056e-05
2.50502e-05
-8.92315e-05
2.73746e-05
-0.000102316
3.00274e-05
-0.000112882
3.27519e-05
-0.000121069
3.55524e-05
-0.00012705
3.84077e-05
-0.000131087
4.13131e-05
-0.000133542
4.4264e-05
-0.000134801
4.72689e-05
-0.000135209
5.03689e-05
-0.000135122
5.35792e-05
-0.000135103
5.61499e-05
-0.000135991
5.65217e-05
-0.000137838
5.67183e-05
-0.000140349
5.67728e-05
-0.000143189
5.67403e-05
-0.000146013
5.66551e-05
-0.0001485
5.6538e-05
-0.000150372
5.64003e-05
-0.000151419
5.62457e-05
-0.000151497
5.60827e-05
5.57452e-05
-0.000150158