/*--------------------------------*- C++ -*----------------------------------*\
  =========                 |
  \\      /  F ield         | OpenFOAM: The Open Source CFD Toolbox
   \\    /   O peration     | Website:  https://openfoam.org
    \\  /    A nd           | Version:  8
     \\/     M anipulation  |
\*---------------------------------------------------------------------------*/
FoamFile
{
    version     2.0;
    format      ascii;
    class       volScalarField;
    location    "0.29";
    object      T;
}
// * * * * * * * * * * * * * * * * * * * * * * * * * * * * * * * * * * * * * //

dimensions      [0 0 0 1 0 0 0];

internalField   nonuniform List<scalar> 
15677
(
297.196
297.238
297.314
297.401
297.506
297.63
297.77
297.919
298.074
298.229
298.377
298.515
298.641
298.758
298.852
298.914
298.943
298.937
298.899
298.837
298.772
298.732
298.724
298.732
298.754
298.783
298.808
298.829
298.845
298.857
298.863
298.865
298.865
298.862
298.857
297.4
297.471
297.519
297.584
297.66
297.744
297.833
297.923
298.01
298.098
298.203
298.38
298.692
299.152
299.565
299.781
299.865
299.848
299.749
299.6
299.423
299.256
299.123
299.025
298.955
298.907
298.877
298.861
298.856
298.856
298.861
298.869
298.879
298.889
298.898
300.322
300.298
300.274
300.246
300.218
300.188
300.154
300.11
300.045
299.945
299.8
299.621
299.456
299.318
299.189
299.074
299.002
298.98
299
299.047
299.101
299.148
299.186
299.215
299.238
299.256
299.271
299.284
299.296
299.307
299.318
299.326
299.333
299.339
299.343
299.534
299.486
299.482
299.485
299.493
299.503
299.515
299.526
299.536
299.546
299.557
299.58
299.626
299.739
299.856
299.97
300.065
300.128
300.155
300.153
300.135
300.103
300.062
300.016
299.963
299.906
299.848
299.793
299.741
299.697
299.659
299.631
299.611
299.599
299.592
300.793
300.775
300.748
300.713
300.672
300.623
300.565
300.497
300.416
300.323
300.213
300.1
299.997
299.919
299.87
299.847
299.839
299.845
299.849
299.851
299.852
299.853
299.854
299.856
299.858
299.862
299.866
299.872
299.878
299.885
299.893
299.903
299.914
299.925
299.937
300.663
300.633
300.609
300.586
300.559
300.528
300.491
300.451
300.408
300.362
300.317
300.288
300.273
300.277
300.29
300.313
300.333
300.338
300.33
300.312
300.29
300.266
300.243
300.221
300.2
300.182
300.167
300.156
300.147
300.14
300.135
300.131
300.127
300.123
300.119
300.637
300.647
300.634
300.613
300.586
300.558
300.53
300.505
300.481
300.458
300.436
300.415
300.396
300.381
300.372
300.367
300.363
300.36
300.354
300.346
300.335
300.324
300.313
300.302
300.294
300.288
300.284
300.283
300.283
300.285
300.287
300.29
300.293
300.295
300.298
300.566
300.56
300.553
300.546
300.54
300.534
300.529
300.523
300.516
300.508
300.499
300.489
300.478
300.466
300.453
300.441
300.428
300.416
300.404
300.392
300.381
300.371
300.363
300.356
300.35
300.345
300.34
300.335
300.332
300.328
300.326
300.323
300.321
300.319
300.318
300.48
300.484
300.487
300.49
300.492
300.494
300.496
300.497
300.497
300.496
300.493
300.49
300.485
300.478
300.47
300.462
300.454
300.446
300.437
300.429
300.422
300.416
300.411
300.409
300.407
300.406
300.406
300.405
300.405
300.405
300.404
300.403
300.403
300.402
300.401
300.563
300.558
300.554
300.551
300.547
300.544
300.54
300.536
300.532
300.527
300.521
300.515
300.507
300.497
300.487
300.478
300.469
300.461
300.453
300.446
300.44
300.435
300.431
300.427
300.424
300.422
300.42
300.418
300.417
300.415
300.414
300.413
300.412
300.411
300.41
300.545
300.545
300.545
300.546
300.546
300.545
300.545
300.544
300.542
300.539
300.536
300.531
300.524
300.516
300.507
300.499
300.49
300.483
300.476
300.47
300.465
300.461
300.459
300.457
300.456
300.455
300.454
300.454
300.453
300.453
300.452
300.452
300.451
300.451
300.451
300.592
300.588
300.585
300.582
300.579
300.575
300.572
300.568
300.563
300.558
300.552
300.546
300.538
300.529
300.52
300.511
300.503
300.495
300.488
300.482
300.476
300.472
300.468
300.466
300.464
300.462
300.461
300.46
300.459
300.459
300.458
300.458
300.458
300.457
300.457
300.596
300.595
300.593
300.592
300.59
300.588
300.586
300.583
300.579
300.575
300.569
300.563
300.556
300.547
300.538
300.529
300.521
300.513
300.505
300.499
300.493
300.489
300.485
300.483
300.481
300.48
300.478
300.478
300.477
300.477
300.476
300.476
300.476
300.476
300.476
300.617
300.613
300.61
300.607
300.605
300.602
300.599
300.595
300.591
300.586
300.581
300.575
300.568
300.559
300.55
300.542
300.534
300.526
300.518
300.511
300.505
300.5
300.495
300.492
300.49
300.488
300.486
300.485
300.484
300.483
300.483
300.482
300.482
300.482
300.481
300.628
300.625
300.623
300.62
300.618
300.615
300.612
300.609
300.605
300.601
300.595
300.589
300.582
300.574
300.565
300.557
300.548
300.54
300.533
300.526
300.519
300.514
300.509
300.506
300.503
300.501
300.499
300.498
300.496
300.496
300.495
300.494
300.494
300.493
300.493
300.635
300.633
300.63
300.628
300.626
300.624
300.621
300.618
300.614
300.61
300.605
300.6
300.593
300.585
300.577
300.569
300.561
300.553
300.546
300.538
300.532
300.526
300.521
300.517
300.514
300.511
300.509
300.508
300.506
300.505
300.504
300.503
300.502
300.502
300.501
300.648
300.644
300.642
300.64
300.637
300.635
300.632
300.629
300.625
300.621
300.616
300.611
300.604
300.597
300.589
300.581
300.573
300.566
300.558
300.551
300.545
300.539
300.534
300.53
300.527
300.524
300.521
300.52
300.518
300.517
300.515
300.514
300.513
300.513
300.512
300.653
300.65
300.648
300.646
300.644
300.642
300.64
300.637
300.634
300.63
300.625
300.62
300.614
300.607
300.599
300.592
300.585
300.577
300.57
300.563
300.557
300.551
300.546
300.542
300.538
300.535
300.533
300.531
300.529
300.528
300.526
300.525
300.524
300.523
300.523
300.662
300.659
300.657
300.655
300.653
300.651
300.648
300.645
300.642
300.639
300.634
300.629
300.623
300.616
300.609
300.602
300.595
300.588
300.581
300.575
300.568
300.563
300.558
300.554
300.55
300.547
300.545
300.543
300.541
300.539
300.538
300.537
300.536
300.535
300.534
300.667
300.665
300.663
300.661
300.66
300.657
300.655
300.652
300.649
300.646
300.642
300.637
300.632
300.625
300.618
300.611
300.605
300.598
300.591
300.585
300.579
300.574
300.569
300.565
300.561
300.558
300.556
300.554
300.552
300.55
300.549
300.548
300.547
300.546
300.545
300.675
300.672
300.67
300.668
300.666
300.664
300.662
300.66
300.657
300.653
300.649
300.645
300.639
300.633
300.626
300.62
300.614
300.607
300.601
300.595
300.589
300.584
300.579
300.575
300.572
300.569
300.567
300.565
300.563
300.561
300.56
300.559
300.558
300.557
300.556
300.68
300.677
300.676
300.674
300.672
300.67
300.668
300.666
300.663
300.66
300.656
300.651
300.646
300.64
300.634
300.628
300.622
300.616
300.61
300.604
300.598
300.593
300.589
300.585
300.582
300.579
300.577
300.575
300.573
300.572
300.571
300.569
300.568
300.568
300.567
300.686
300.683
300.681
300.68
300.678
300.676
300.674
300.671
300.669
300.666
300.662
300.658
300.653
300.647
300.641
300.635
300.629
300.624
300.618
300.612
300.607
300.602
300.598
300.595
300.592
300.589
300.587
300.585
300.583
300.582
300.581
300.579
300.579
300.578
300.577
300.69
300.688
300.686
300.685
300.683
300.681
300.679
300.677
300.674
300.671
300.668
300.664
300.659
300.653
300.648
300.642
300.636
300.631
300.625
300.62
300.615
300.61
300.606
300.603
300.6
300.598
300.596
300.594
300.592
300.591
300.59
300.589
300.588
300.587
300.586
300.695
300.693
300.691
300.689
300.688
300.686
300.684
300.682
300.679
300.676
300.673
300.669
300.664
300.659
300.654
300.648
300.643
300.637
300.632
300.627
300.622
300.618
300.614
300.611
300.608
300.606
300.604
300.602
300.601
300.6
300.599
300.598
300.597
300.596
300.595
300.699
300.697
300.695
300.694
300.692
300.691
300.689
300.686
300.684
300.681
300.678
300.674
300.67
300.664
300.659
300.654
300.649
300.644
300.639
300.634
300.629
300.625
300.622
300.618
300.616
300.614
300.612
300.61
300.609
300.608
300.607
300.606
300.605
300.604
300.604
300.703
300.701
300.7
300.698
300.696
300.695
300.693
300.691
300.688
300.685
300.682
300.679
300.674
300.669
300.664
300.659
300.654
300.649
300.645
300.64
300.636
300.632
300.628
300.625
300.623
300.621
300.619
300.618
300.616
300.615
300.614
300.613
300.612
300.612
300.611
300.707
300.705
300.703
300.702
300.7
300.699
300.697
300.695
300.692
300.69
300.686
300.683
300.679
300.674
300.669
300.664
300.659
300.655
300.65
300.646
300.641
300.638
300.634
300.632
300.629
300.627
300.626
300.624
300.623
300.622
300.621
300.62
300.619
300.619
300.618
300.71
300.708
300.707
300.705
300.704
300.702
300.7
300.698
300.696
300.693
300.69
300.687
300.683
300.678
300.673
300.669
300.664
300.659
300.655
300.651
300.647
300.643
300.64
300.637
300.635
300.633
300.632
300.63
300.629
300.628
300.627
300.626
300.626
300.625
300.625
300.714
300.712
300.71
300.709
300.707
300.706
300.704
300.702
300.699
300.697
300.694
300.691
300.687
300.682
300.677
300.673
300.668
300.664
300.66
300.656
300.652
300.648
300.645
300.643
300.64
300.639
300.637
300.636
300.635
300.634
300.633
300.632
300.631
300.631
300.63
298.851
298.843
298.832
298.82
298.805
298.788
298.767
298.742
298.714
298.683
298.647
298.608
298.567
298.525
298.482
298.44
298.398
298.359
298.324
298.294
298.269
298.251
298.908
298.917
298.924
298.928
298.928
298.924
298.914
298.895
298.864
298.827
298.783
298.739
298.699
298.665
298.636
298.611
298.588
298.565
298.543
298.521
298.498
298.473
299.347
299.35
299.355
299.361
299.37
299.382
299.397
299.416
299.442
299.475
299.514
299.561
299.615
299.676
299.742
299.81
299.878
299.942
300.001
300.053
300.097
300.133
299.586
299.584
299.588
299.598
299.613
299.63
299.648
299.664
299.677
299.685
299.686
299.68
299.672
299.664
299.658
299.654
299.651
299.648
299.643
299.638
299.632
299.624
299.95
299.967
299.988
300.011
300.035
300.059
300.083
300.106
300.127
300.146
300.165
300.182
300.196
300.208
300.218
300.226
300.235
300.244
300.254
300.265
300.276
300.288
300.113
300.104
300.097
300.09
300.086
300.082
300.08
300.079
300.079
300.079
300.081
300.083
300.086
300.088
300.091
300.094
300.097
300.101
300.104
300.108
300.113
300.117
300.299
300.299
300.298
300.297
300.295
300.294
300.293
300.293
300.293
300.295
300.297
300.299
300.302
300.305
300.308
300.311
300.314
300.318
300.322
300.326
300.33
300.334
300.315
300.311
300.306
300.302
300.298
300.294
300.29
300.286
300.283
300.281
300.279
300.278
300.277
300.277
300.277
300.277
300.278
300.28
300.281
300.282
300.284
300.286
300.399
300.396
300.393
300.389
300.386
300.383
300.381
300.378
300.375
300.373
300.371
300.369
300.368
300.367
300.366
300.366
300.365
300.365
300.365
300.365
300.365
300.365
300.408
300.406
300.403
300.4
300.397
300.394
300.391
300.388
300.385
300.382
300.38
300.377
300.375
300.373
300.372
300.37
300.369
300.368
300.367
300.366
300.365
300.364
300.449
300.447
300.445
300.443
300.44
300.438
300.435
300.432
300.429
300.427
300.424
300.421
300.418
300.415
300.412
300.41
300.407
300.405
300.403
300.401
300.399
300.397
300.456
300.455
300.453
300.452
300.45
300.448
300.446
300.444
300.441
300.439
300.436
300.434
300.431
300.429
300.426
300.423
300.421
300.418
300.416
300.413
300.411
300.409
300.475
300.474
300.473
300.471
300.47
300.469
300.467
300.465
300.464
300.462
300.46
300.457
300.455
300.452
300.45
300.447
300.445
300.442
300.439
300.437
300.434
300.431
300.481
300.48
300.479
300.478
300.477
300.475
300.474
300.473
300.472
300.47
300.468
300.467
300.465
300.463
300.46
300.458
300.456
300.454
300.451
300.449
300.447
300.444
300.492
300.49
300.489
300.488
300.486
300.485
300.484
300.482
300.481
300.479
300.478
300.476
300.474
300.472
300.47
300.468
300.466
300.464
300.462
300.459
300.457
300.455
300.5
300.498
300.497
300.495
300.493
300.492
300.49
300.489
300.487
300.486
300.484
300.482
300.48
300.479
300.477
300.475
300.473
300.471
300.469
300.467
300.466
300.464
300.51
300.508
300.506
300.504
300.502
300.5
300.498
300.496
300.494
300.493
300.491
300.489
300.487
300.485
300.483
300.482
300.48
300.478
300.476
300.475
300.473
300.471
300.521
300.519
300.516
300.514
300.511
300.509
300.507
300.504
300.502
300.5
300.498
300.496
300.494
300.492
300.49
300.488
300.487
300.485
300.483
300.482
300.48
300.478
300.532
300.529
300.527
300.524
300.521
300.519
300.516
300.514
300.511
300.509
300.506
300.504
300.502
300.5
300.498
300.496
300.494
300.492
300.49
300.489
300.487
300.485
300.543
300.54
300.538
300.535
300.532
300.529
300.526
300.523
300.521
300.518
300.515
300.512
300.51
300.508
300.505
300.503
300.501
300.5
300.498
300.496
300.494
300.493
300.554
300.551
300.548
300.545
300.542
300.539
300.536
300.533
300.53
300.527
300.524
300.522
300.519
300.516
300.514
300.512
300.509
300.507
300.506
300.504
300.502
300.5
300.565
300.562
300.559
300.556
300.553
300.549
300.546
300.543
300.54
300.537
300.534
300.531
300.528
300.525
300.523
300.52
300.518
300.516
300.514
300.512
300.51
300.508
300.575
300.572
300.569
300.566
300.563
300.559
300.556
300.553
300.55
300.546
300.543
300.54
300.537
300.534
300.531
300.529
300.526
300.524
300.522
300.52
300.518
300.516
300.585
300.582
300.578
300.575
300.572
300.569
300.566
300.562
300.559
300.556
300.552
300.549
300.546
300.543
300.54
300.537
300.535
300.532
300.53
300.528
300.526
300.524
300.593
300.591
300.588
300.584
300.581
300.578
300.575
300.571
300.568
300.565
300.561
300.558
300.555
300.552
300.549
300.546
300.543
300.541
300.538
300.536
300.534
300.532
300.602
300.599
300.596
300.593
300.59
300.587
300.583
300.58
300.577
300.573
300.57
300.566
300.563
300.56
300.557
300.554
300.551
300.549
300.546
300.544
300.541
300.539
300.609
300.607
300.604
300.601
300.598
300.595
300.591
300.588
300.585
300.581
300.578
300.574
300.571
300.568
300.565
300.562
300.559
300.556
300.554
300.551
300.549
300.547
300.617
300.614
300.611
300.608
300.605
300.602
300.599
300.596
300.592
300.589
300.586
300.582
300.579
300.575
300.572
300.569
300.567
300.564
300.561
300.559
300.556
300.554
300.623
300.62
300.618
300.615
300.612
300.609
300.606
300.603
300.599
300.596
300.593
300.589
300.586
300.583
300.58
300.577
300.574
300.571
300.568
300.566
300.563
300.561
300.629
300.626
300.624
300.621
300.618
300.615
300.612
300.609
300.606
300.603
300.599
300.596
300.593
300.589
300.586
300.583
300.58
300.578
300.575
300.572
300.57
300.567
298.237
298.227
298.225
298.225
298.218
298.19
298.443
298.418
298.392
298.366
298.342
298.324
300.169
300.207
300.239
300.269
300.297
300.325
299.615
299.606
299.596
299.587
299.581
299.58
300.304
300.325
300.345
300.364
300.382
300.399
300.123
300.131
300.14
300.15
300.16
300.17
300.34
300.348
300.355
300.362
300.367
300.372
300.288
300.291
300.294
300.298
300.301
300.303
300.367
300.369
300.37
300.371
300.372
300.372
300.363
300.363
300.363
300.363
300.363
300.362
300.396
300.395
300.394
300.393
300.392
300.39
300.407
300.405
300.404
300.402
300.4
300.399
300.429
300.427
300.426
300.424
300.422
300.42
300.442
300.44
300.438
300.436
300.434
300.433
300.453
300.451
300.45
300.448
300.446
300.445
300.462
300.46
300.459
300.458
300.456
300.455
300.47
300.469
300.468
300.466
300.465
300.464
300.477
300.476
300.475
300.475
300.474
300.473
300.484
300.484
300.483
300.483
300.482
300.482
300.492
300.491
300.491
300.49
300.49
300.49
300.499
300.499
300.499
300.498
300.498
300.498
300.507
300.507
300.507
300.506
300.506
300.506
300.515
300.515
300.515
300.514
300.514
300.514
300.523
300.523
300.522
300.522
300.522
300.522
300.531
300.53
300.53
300.53
300.53
300.53
300.538
300.538
300.538
300.538
300.538
300.538
300.546
300.545
300.545
300.545
300.545
300.546
300.553
300.553
300.553
300.553
300.553
300.553
300.56
300.56
300.559
300.559
300.559
300.56
300.566
300.566
300.566
300.566
300.566
300.566
298.134
298.054
297.941
297.798
297.639
297.556
297.553
297.649
297.794
297.934
298.054
298.155
298.238
298.305
298.359
298.401
298.429
298.448
298.46
298.469
298.474
298.475
298.313
298.303
298.28
298.238
298.174
298.105
298.067
298.083
298.163
298.274
298.369
298.432
298.471
298.496
298.511
298.521
298.528
298.532
298.534
298.535
298.532
298.527
300.356
300.392
300.43
300.465
300.493
300.508
300.512
300.509
300.499
300.474
300.43
300.368
300.294
300.217
300.141
300.069
300.004
299.945
299.891
299.841
299.795
299.751
299.585
299.595
299.609
299.628
299.652
299.678
299.706
299.734
299.762
299.789
299.815
299.842
299.869
299.896
299.918
299.936
299.945
299.944
299.934
299.918
299.896
299.87
300.414
300.43
300.441
300.449
300.453
300.452
300.447
300.439
300.429
300.42
300.413
300.409
300.408
300.409
300.41
300.41
300.407
300.4
300.39
300.374
300.354
300.332
300.178
300.185
300.191
300.195
300.197
300.199
300.198
300.197
300.196
300.194
300.193
300.192
300.192
300.193
300.193
300.192
300.191
300.189
300.187
300.183
300.18
300.176
300.375
300.378
300.38
300.381
300.38
300.378
300.376
300.373
300.369
300.366
300.363
300.36
300.356
300.353
300.35
300.346
300.341
300.336
300.331
300.325
300.319
300.314
300.306
300.307
300.308
300.309
300.309
300.309
300.308
300.307
300.306
300.305
300.304
300.303
300.302
300.3
300.299
300.298
300.297
300.296
300.295
300.294
300.294
300.294
300.372
300.372
300.372
300.371
300.37
300.369
300.368
300.366
300.364
300.362
300.36
300.358
300.356
300.354
300.353
300.351
300.349
300.348
300.347
300.346
300.346
300.345
300.362
300.362
300.362
300.361
300.36
300.36
300.359
300.357
300.356
300.355
300.354
300.354
300.353
300.353
300.353
300.353
300.353
300.354
300.355
300.357
300.358
300.36
300.389
300.389
300.388
300.387
300.386
300.385
300.384
300.383
300.382
300.381
300.38
300.38
300.379
300.379
300.38
300.381
300.382
300.383
300.385
300.387
300.389
300.391
300.398
300.397
300.397
300.396
300.395
300.395
300.394
300.393
300.393
300.393
300.393
300.393
300.394
300.395
300.396
300.398
300.4
300.402
300.405
300.407
300.41
300.413
300.418
300.418
300.417
300.417
300.417
300.416
300.416
300.416
300.416
300.416
300.416
300.417
300.418
300.419
300.421
300.423
300.425
300.427
300.429
300.431
300.434
300.436
300.431
300.431
300.431
300.431
300.43
300.43
300.43
300.431
300.431
300.432
300.432
300.434
300.435
300.437
300.439
300.441
300.443
300.446
300.448
300.451
300.453
300.456
300.444
300.443
300.443
300.443
300.444
300.444
300.444
300.445
300.446
300.447
300.449
300.45
300.452
300.454
300.456
300.459
300.461
300.464
300.466
300.469
300.471
300.474
300.454
300.454
300.455
300.455
300.456
300.456
300.457
300.458
300.459
300.461
300.462
300.464
300.467
300.469
300.471
300.474
300.476
300.479
300.482
300.484
300.487
300.49
300.464
300.464
300.465
300.466
300.467
300.467
300.469
300.47
300.472
300.473
300.475
300.478
300.48
300.483
300.485
300.488
300.491
300.493
300.496
300.499
300.502
300.505
300.473
300.474
300.475
300.476
300.477
300.478
300.479
300.481
300.483
300.485
300.487
300.49
300.492
300.495
300.498
300.501
300.504
300.507
300.509
300.512
300.515
300.518
300.482
300.483
300.484
300.485
300.487
300.488
300.49
300.492
300.494
300.496
300.499
300.501
300.504
300.507
300.51
300.513
300.516
300.519
300.522
300.525
300.528
300.53
300.49
300.491
300.493
300.494
300.496
300.498
300.5
300.502
300.504
300.507
300.509
300.512
300.515
300.518
300.521
300.524
300.527
300.53
300.533
300.536
300.539
300.542
300.499
300.5
300.502
300.503
300.505
300.507
300.509
300.512
300.514
300.517
300.52
300.523
300.526
300.529
300.532
300.535
300.538
300.541
300.544
300.547
300.55
300.553
300.507
300.509
300.51
300.512
300.514
300.517
300.519
300.521
300.524
300.527
300.53
300.533
300.536
300.539
300.543
300.546
300.549
300.552
300.555
300.558
300.561
300.564
300.515
300.517
300.519
300.521
300.523
300.526
300.528
300.531
300.533
300.536
300.539
300.543
300.546
300.549
300.552
300.556
300.559
300.562
300.565
300.568
300.571
300.573
300.523
300.525
300.527
300.53
300.532
300.534
300.537
300.54
300.542
300.545
300.549
300.552
300.555
300.558
300.562
300.565
300.568
300.571
300.574
300.577
300.58
300.583
300.531
300.534
300.536
300.538
300.54
300.543
300.545
300.548
300.551
300.554
300.557
300.561
300.564
300.567
300.571
300.574
300.577
300.58
300.583
300.586
300.589
300.592
300.539
300.541
300.544
300.546
300.548
300.551
300.554
300.556
300.559
300.563
300.566
300.569
300.572
300.576
300.579
300.582
300.585
300.588
300.591
300.594
300.597
300.6
300.547
300.549
300.551
300.554
300.556
300.559
300.561
300.564
300.567
300.57
300.574
300.577
300.58
300.584
300.587
300.59
300.593
300.596
300.599
300.602
300.605
300.607
300.554
300.556
300.559
300.561
300.564
300.566
300.569
300.572
300.575
300.578
300.581
300.585
300.588
300.591
300.594
300.598
300.601
300.604
300.606
300.609
300.612
300.614
300.561
300.563
300.565
300.568
300.571
300.573
300.576
300.579
300.582
300.585
300.588
300.592
300.595
300.598
300.601
300.604
300.607
300.61
300.613
300.616
300.618
300.621
300.567
300.57
300.572
300.575
300.577
300.58
300.583
300.586
300.589
300.592
300.595
300.598
300.602
300.605
300.608
300.611
300.614
300.617
300.619
300.622
300.624
300.627
298.477
298.477
298.473
298.466
298.456
298.444
298.435
298.432
298.436
298.449
298.47
298.501
298.536
298.57
298.602
298.634
298.678
298.732
298.795
298.843
298.86
298.828
298.745
298.641
298.545
298.462
298.39
298.327
298.272
298.223
298.181
298.144
298.114
298.089
298.069
298.515
298.503
298.492
298.485
298.482
298.483
298.491
298.506
298.528
298.558
298.598
298.65
298.722
298.827
298.97
299.16
299.381
299.602
299.788
299.915
299.963
299.892
299.643
299.189
298.707
298.35
298.111
297.953
297.848
297.776
297.727
297.697
297.684
297.69
297.716
299.713
299.68
299.645
299.606
299.563
299.517
299.467
299.414
299.355
299.289
299.214
299.127
299.031
298.936
298.86
298.816
298.81
298.824
298.841
298.841
298.852
298.888
298.98
299.12
299.292
299.491
299.731
299.96
300.141
300.284
300.4
300.497
300.585
300.67
300.762
299.845
299.821
299.794
299.765
299.733
299.7
299.667
299.635
299.607
299.585
299.576
299.58
299.612
299.645
299.664
299.654
299.646
299.681
299.771
299.933
300.099
300.176
300.203
300.198
300.146
300.088
300.058
300.054
300.078
300.117
300.161
300.208
300.26
300.32
300.424
300.31
300.291
300.268
300.241
300.211
300.177
300.141
300.102
300.063
300.027
299.994
299.967
299.945
299.922
299.891
299.85
299.799
299.746
299.707
299.691
299.697
299.726
299.788
299.865
299.931
299.979
300.034
300.116
300.227
300.355
300.486
300.608
300.716
300.808
300.857
300.173
300.171
300.168
300.165
300.162
300.159
300.157
300.155
300.155
300.156
300.159
300.163
300.168
300.176
300.191
300.215
300.244
300.274
300.304
300.334
300.354
300.366
300.378
300.388
300.402
300.425
300.463
300.51
300.555
300.59
300.617
300.636
300.651
300.661
300.665
300.309
300.303
300.298
300.291
300.284
300.276
300.268
300.26
300.252
300.243
300.233
300.225
300.22
300.218
300.221
300.228
300.238
300.249
300.261
300.274
300.287
300.297
300.298
300.288
300.274
300.262
300.255
300.249
300.245
300.242
300.239
300.235
300.232
300.23
300.232
300.294
300.293
300.293
300.293
300.293
300.293
300.294
300.296
300.299
300.303
300.309
300.318
300.328
300.342
300.358
300.374
300.39
300.407
300.424
300.442
300.461
300.48
300.498
300.513
300.526
300.538
300.548
300.559
300.57
300.581
300.592
300.602
300.613
300.624
300.635
300.345
300.344
300.344
300.343
300.342
300.342
300.342
300.341
300.341
300.342
300.343
300.345
300.348
300.353
300.359
300.366
300.375
300.384
300.392
300.401
300.407
300.413
300.416
300.417
300.416
300.414
300.41
300.406
300.401
300.396
300.391
300.385
300.379
300.373
300.366
300.361
300.362
300.363
300.364
300.366
300.368
300.37
300.373
300.377
300.381
300.387
300.393
300.401
300.41
300.421
300.433
300.444
300.455
300.465
300.475
300.485
300.495
300.505
300.514
300.522
300.53
300.538
300.546
300.554
300.562
300.57
300.578
300.587
300.596
300.608
300.392
300.393
300.394
300.394
300.395
300.396
300.398
300.399
300.401
300.404
300.407
300.411
300.416
300.422
300.43
300.437
300.445
300.454
300.462
300.47
300.478
300.485
300.492
300.496
300.5
300.502
300.503
300.504
300.503
300.502
300.5
300.499
300.496
300.494
300.491
300.414
300.415
300.416
300.418
300.419
300.421
300.423
300.426
300.429
300.432
300.437
300.442
300.448
300.455
300.463
300.472
300.481
300.491
300.5
300.509
300.517
300.526
300.535
300.542
300.549
300.555
300.561
300.566
300.571
300.577
300.582
300.587
300.592
300.598
300.606
300.438
300.439
300.44
300.441
300.442
300.443
300.445
300.447
300.449
300.452
300.455
300.46
300.464
300.47
300.477
300.484
300.492
300.5
300.508
300.516
300.524
300.532
300.539
300.545
300.549
300.553
300.556
300.559
300.56
300.562
300.563
300.563
300.563
300.563
300.563
300.458
300.459
300.46
300.461
300.462
300.464
300.465
300.467
300.47
300.473
300.476
300.481
300.486
300.491
300.498
300.506
300.514
300.522
300.53
300.538
300.546
300.555
300.562
300.569
300.575
300.58
300.585
300.589
300.593
300.597
300.6
300.604
300.607
300.611
300.616
300.476
300.477
300.478
300.479
300.48
300.481
300.483
300.485
300.487
300.49
300.493
300.497
300.501
300.506
300.513
300.519
300.526
300.534
300.541
300.549
300.556
300.564
300.571
300.577
300.582
300.586
300.59
300.592
300.595
300.597
300.598
300.6
300.601
300.603
300.604
300.492
300.493
300.493
300.495
300.496
300.497
300.499
300.501
300.503
300.506
300.509
300.512
300.517
300.522
300.528
300.535
300.541
300.549
300.556
300.563
300.571
300.578
300.586
300.592
300.597
300.602
300.606
300.61
300.613
300.616
300.619
300.622
300.624
300.627
300.631
300.506
300.507
300.508
300.509
300.51
300.512
300.513
300.515
300.517
300.52
300.523
300.526
300.53
300.535
300.541
300.547
300.554
300.56
300.567
300.574
300.581
300.588
300.595
300.601
300.606
300.61
300.613
300.616
300.619
300.621
300.623
300.625
300.626
300.628
300.63
300.52
300.521
300.521
300.522
300.524
300.525
300.527
300.528
300.53
300.533
300.536
300.539
300.543
300.548
300.553
300.559
300.565
300.572
300.579
300.585
300.592
300.599
300.606
300.612
300.617
300.621
300.625
300.628
300.631
300.634
300.636
300.639
300.641
300.643
300.647
300.532
300.533
300.534
300.535
300.536
300.537
300.539
300.541
300.543
300.545
300.548
300.551
300.555
300.559
300.564
300.57
300.576
300.582
300.589
300.595
300.602
300.608
300.615
300.62
300.625
300.629
300.632
300.635
300.638
300.64
300.642
300.644
300.645
300.647
300.649
300.544
300.545
300.545
300.546
300.548
300.549
300.55
300.552
300.554
300.556
300.559
300.562
300.565
300.57
300.575
300.58
300.586
300.592
300.598
300.605
300.611
300.617
300.624
300.629
300.634
300.638
300.641
300.644
300.647
300.649
300.651
300.653
300.655
300.657
300.66
300.555
300.556
300.556
300.557
300.558
300.56
300.561
300.563
300.564
300.567
300.569
300.572
300.576
300.58
300.585
300.59
300.596
300.601
300.607
300.613
300.619
300.626
300.632
300.637
300.641
300.645
300.648
300.651
300.654
300.656
300.658
300.66
300.661
300.663
300.665
300.565
300.566
300.567
300.568
300.569
300.57
300.571
300.573
300.574
300.576
300.579
300.582
300.585
300.589
300.594
300.599
300.604
300.61
300.616
300.621
300.627
300.633
300.639
300.644
300.648
300.652
300.655
300.658
300.661
300.663
300.665
300.667
300.668
300.67
300.673
300.575
300.576
300.577
300.577
300.578
300.579
300.581
300.582
300.584
300.586
300.588
300.591
300.594
300.598
300.602
300.607
300.612
300.618
300.623
300.629
300.635
300.641
300.646
300.651
300.655
300.659
300.662
300.665
300.667
300.669
300.671
300.673
300.674
300.676
300.679
300.584
300.585
300.586
300.587
300.587
300.588
300.59
300.591
300.593
300.595
300.597
300.599
300.602
300.606
300.61
300.615
300.62
300.625
300.631
300.636
300.642
300.647
300.653
300.657
300.661
300.665
300.668
300.67
300.673
300.675
300.677
300.678
300.68
300.682
300.684
300.593
300.594
300.594
300.595
300.596
300.597
300.598
300.599
300.601
300.603
300.605
300.607
300.61
300.614
300.618
300.622
300.627
300.632
300.637
300.643
300.648
300.653
300.659
300.663
300.667
300.67
300.673
300.676
300.678
300.68
300.682
300.684
300.685
300.687
300.689
300.601
300.602
300.603
300.603
300.604
300.605
300.606
300.607
300.609
300.61
300.612
300.615
300.618
300.621
300.625
300.629
300.634
300.639
300.644
300.649
300.654
300.659
300.664
300.668
300.672
300.676
300.678
300.681
300.683
300.685
300.687
300.689
300.69
300.692
300.694
300.609
300.609
300.61
300.611
300.611
300.612
300.613
300.615
300.616
300.617
300.619
300.622
300.624
300.628
300.631
300.636
300.64
300.645
300.649
300.654
300.659
300.664
300.669
300.673
300.677
300.68
300.683
300.686
300.688
300.69
300.691
300.693
300.695
300.696
300.698
300.616
300.616
300.617
300.618
300.618
300.619
300.62
300.621
300.623
300.624
300.626
300.628
300.631
300.634
300.637
300.641
300.646
300.65
300.655
300.659
300.664
300.669
300.674
300.678
300.682
300.685
300.687
300.69
300.692
300.694
300.696
300.697
300.699
300.7
300.702
300.622
300.623
300.623
300.624
300.625
300.625
300.626
300.627
300.629
300.63
300.632
300.634
300.636
300.639
300.643
300.647
300.651
300.655
300.66
300.664
300.669
300.674
300.678
300.682
300.686
300.689
300.691
300.694
300.696
300.698
300.699
300.701
300.702
300.704
300.706
300.628
300.629
300.629
300.63
300.63
300.631
300.632
300.633
300.634
300.636
300.637
300.639
300.642
300.645
300.648
300.652
300.656
300.66
300.664
300.669
300.673
300.678
300.682
300.686
300.69
300.693
300.695
300.697
300.7
300.701
300.703
300.704
300.706
300.707
300.71
300.717
300.715
300.713
300.712
300.711
300.709
300.707
300.705
300.703
300.701
300.698
300.694
300.691
300.686
300.682
300.677
300.673
300.669
300.665
300.661
300.657
300.653
300.65
300.648
300.646
300.644
300.643
300.641
300.64
300.639
300.639
300.638
300.637
300.637
300.636
300.72
300.718
300.717
300.715
300.714
300.712
300.711
300.709
300.707
300.704
300.702
300.698
300.695
300.69
300.686
300.682
300.678
300.674
300.67
300.666
300.662
300.659
300.656
300.653
300.651
300.65
300.648
300.647
300.646
300.645
300.644
300.644
300.643
300.642
300.642
300.723
300.721
300.72
300.719
300.717
300.716
300.714
300.712
300.71
300.708
300.705
300.702
300.698
300.694
300.69
300.686
300.682
300.678
300.674
300.67
300.667
300.664
300.661
300.658
300.656
300.655
300.653
300.652
300.651
300.65
300.649
300.649
300.648
300.647
300.647
300.726
300.724
300.723
300.721
300.72
300.719
300.717
300.715