/*--------------------------------*- C++ -*----------------------------------*\
  =========                 |
  \\      /  F ield         | OpenFOAM: The Open Source CFD Toolbox
   \\    /   O peration     | Website:  https://openfoam.org
    \\  /    A nd           | Version:  8
     \\/     M anipulation  |
\*---------------------------------------------------------------------------*/
FoamFile
{
    version     2.0;
    format      ascii;
    class       volVectorField;
    location    "0.29";
    object      U;
}
// * * * * * * * * * * * * * * * * * * * * * * * * * * * * * * * * * * * * * //

dimensions      [0 1 -1 0 0 0 0];

internalField   nonuniform List<vector> 
15677
(
(-0.0390683 -85.9376 0)
(-0.317721 -88.2256 0)
(-0.422553 -83.9489 0)
(-0.621353 -79.5661 0)
(-0.867378 -75.2451 0)
(-1.1988 -71.2708 0)
(-1.62021 -67.9439 0)
(-2.13567 -65.398 0)
(-2.72909 -63.6138 0)
(-3.35548 -62.383 0)
(-3.95299 -61.462 0)
(-4.45503 -60.5627 0)
(-4.42679 -59.3359 0)
(-3.67712 -56.916 0)
(-2.09116 -54.5724 0)
(-0.159373 -53.3138 0)
(1.8945 -52.8918 0)
(3.83646 -53.1056 0)
(5.55142 -54.009 0)
(6.9458 -55.6484 0)
(8.05565 -57.7421 0)
(8.78045 -59.6003 0)
(9.20704 -60.5147 0)
(9.40904 -60.8045 0)
(9.46451 -60.6619 0)
(9.42654 -60.1922 0)
(9.32506 -59.5409 0)
(9.19958 -58.8363 0)
(9.074 -58.1234 0)
(8.96289 -57.4349 0)
(8.87451 -56.7997 0)
(8.81329 -56.2409 0)
(8.77954 -55.7761 0)
(8.76938 -55.4171 0)
(8.79947 -55.1686 0)
(-1.02667 86.6439 0)
(-3.14905 86.4855 0)
(-5.63509 83.9373 0)
(-8.36394 81.4415 0)
(-11.3367 79.0086 0)
(-14.4683 76.6342 0)
(-17.6888 74.2979 0)
(-20.9202 71.9308 0)
(-24.0398 69.4014 0)
(-26.8773 66.4614 0)
(-29.0358 62.6365 0)
(-30.056 56.4038 0)
(-29.5275 47.5246 0)
(-26.7529 36.3855 0)
(-22.9865 28.5158 0)
(-18.8114 25.0287 0)
(-14.5357 24.5862 0)
(-10.1468 26.6411 0)
(-6.22368 30.418 0)
(-2.56256 35.1762 0)
(0.649223 40.5897 0)
(3.29198 45.8749 0)
(5.33744 49.9451 0)
(6.95678 52.9929 0)
(8.27014 55.1833 0)
(9.34444 56.792 0)
(10.2437 57.9951 0)
(11.0139 58.8017 0)
(11.6787 59.2784 0)
(12.2444 59.5601 0)
(12.7235 59.7131 0)
(13.1328 59.7674 0)
(13.4842 59.7341 0)
(13.7849 59.6132 0)
(14.0328 59.3984 0)
(-0.114727 43.7721 0)
(-0.161785 41.9938 0)
(-0.125029 39.7306 0)
(-0.028401 36.9721 0)
(0.110005 33.6718 0)
(0.267991 29.6539 0)
(0.43053 24.6367 0)
(0.602865 18.2655 0)
(0.792249 10.1191 0)
(0.980301 -0.34159 0)
(1.11962 -13.6278 0)
(1.24525 -29.6736 0)
(0.939866 -45.6052 0)
(-0.641247 -55.8362 0)
(-3.33465 -60.4001 0)
(-5.97874 -61.61 0)
(-8.13786 -61.4483 0)
(-9.79335 -60.1006 0)
(-10.6069 -57.9349 0)
(-10.7229 -55.8806 0)
(-10.176 -54.054 0)
(-9.03387 -52.5641 0)
(-7.5516 -51.357 0)
(-5.95308 -50.3771 0)
(-4.37838 -49.5793 0)
(-2.90516 -48.9529 0)
(-1.56434 -48.4744 0)
(-0.391223 -48.1041 0)
(0.614817 -47.8158 0)
(1.47504 -47.6783 0)
(2.21093 -47.7057 0)
(2.83627 -47.883 0)
(3.372 -48.1847 0)
(3.83651 -48.5834 0)
(4.24665 -49.0486 0)
(0.620028 56.6521 0)
(1.6036 58.6514 0)
(2.62342 57.829 0)
(3.68371 56.3597 0)
(4.83019 54.4465 0)
(6.08695 52.1319 0)
(7.46382 49.4453 0)
(8.94445 46.3917 0)
(10.5078 42.989 0)
(12.0797 39.5568 0)
(13.5079 36.6694 0)
(14.4304 35.2905 0)
(14.1136 35.2144 0)
(12.9577 32.6538 0)
(12.2059 27.3443 0)
(11.9599 20.7816 0)
(12.0663 14.7537 0)
(12.3919 10.1676 0)
(12.9163 6.99847 0)
(13.6006 5.26994 0)
(14.3843 4.85228 0)
(15.1976 5.41569 0)
(15.9317 6.54163 0)
(16.5003 8.14473 0)
(16.9466 10.2038 0)
(17.224 12.5978 0)
(17.3442 15.1967 0)
(17.3151 17.9075 0)
(17.1518 20.6362 0)
(16.8711 23.2702 0)
(16.4913 25.7016 0)
(16.0327 27.8514 0)
(15.5085 29.6709 0)
(14.9323 31.1978 0)
(14.3226 32.4803 0)
(0.249226 23.3094 0)
(0.62496 23.5422 0)
(1.16499 22.1981 0)
(1.78281 20.5094 0)
(2.4817 18.4351 0)
(3.23931 15.9005 0)
(4.03812 12.8108 0)
(4.85838 9.03201 0)
(5.6446 4.38064 0)
(6.37941 -1.42002 0)
(7.05656 -8.33551 0)
(7.76594 -16.1867 0)
(8.75034 -24.244 0)
(9.7211 -31.5985 0)
(9.98112 -36.6678 0)
(9.41316 -39.6736 0)
(8.08291 -40.9056 0)
(6.24751 -40.6929 0)
(4.20768 -39.8113 0)
(2.1394 -38.7649 0)
(0.126581 -37.7742 0)
(-1.72118 -36.9091 0)
(-3.32523 -36.0626 0)
(-4.71365 -35.1965 0)
(-5.90414 -34.2754 0)
(-6.88597 -33.2356 0)
(-7.66098 -32.0617 0)
(-8.23381 -30.7591 0)
(-8.61898 -29.344 0)
(-8.83924 -27.8427 0)
(-8.92139 -26.2823 0)
(-8.90012 -24.6816 0)
(-8.80562 -23.0687 0)
(-8.66407 -21.5076 0)
(-8.48046 -20.0581 0)
(0.58728 21.6035 0)
(1.67963 25.3363 0)
(2.93518 25.4566 0)
(4.31936 24.9896 0)
(5.88556 24.1964 0)
(7.65112 23.1564 0)
(9.60467 21.9126 0)
(11.707 20.4991 0)
(13.8975 18.9204 0)
(16.077 17.3683 0)
(18.0732 16.1738 0)
(19.6996 15.7121 0)
(20.3464 15.3712 0)
(20.2774 14.5906 0)
(19.5668 13.5604 0)
(18.3519 12.2977 0)
(16.8571 10.66 0)
(15.3006 8.61596 0)
(13.8056 6.39993 0)
(12.4456 4.57659 0)
(11.1561 3.67176 0)
(9.93086 3.96786 0)
(8.79257 5.17275 0)
(7.69786 6.95088 0)
(6.62659 8.99652 0)
(5.56013 11.0649 0)
(4.49927 12.9698 0)
(3.49015 14.6122 0)
(2.56354 16.0121 0)
(1.71158 17.1884 0)
(0.927247 18.1691 0)
(0.21116 18.9774 0)
(-0.423809 19.6277 0)
(-0.984793 20.1352 0)
(-1.47603 20.5353 0)
(0.0499074 -10.6702 0)
(0.248324 -9.57484 0)
(0.450601 -10.0415 0)
(0.6687 -11.2417 0)
(0.896487 -12.8373 0)
(1.13231 -14.4987 0)
(1.36843 -15.8244 0)
(1.61375 -16.8147 0)
(1.86506 -17.3718 0)
(2.07022 -17.698 0)
(2.21837 -17.9893 0)
(2.41473 -18.2147 0)
(2.73943 -18.2459 0)
(3.16329 -18.1823 0)
(3.54171 -18.0095 0)
(3.78564 -17.7044 0)
(3.81771 -17.3314 0)
(3.55513 -16.9686 0)
(2.90365 -16.6852 0)
(1.85653 -16.3867 0)
(0.518086 -15.9085 0)
(-0.912601 -15.2239 0)
(-2.17667 -14.4057 0)
(-3.17788 -13.4352 0)
(-3.9088 -12.3118 0)
(-4.3838 -11.0344 0)
(-4.66568 -9.64995 0)
(-4.84186 -8.23304 0)
(-4.94848 -6.89553 0)
(-4.98433 -5.68749 0)
(-4.96388 -4.62033 0)
(-4.90008 -3.69296 0)
(-4.8068 -2.89313 0)
(-4.69356 -2.20824 0)
(-4.56991 -1.61562 0)
(0.174345 9.42462 0)
(0.563143 10.911 0)
(1.02765 11.6784 0)
(1.47409 12.1839 0)
(1.87907 12.4506 0)
(2.20717 12.3694 0)
(2.45089 11.8404 0)
(2.62815 10.8945 0)
(2.76299 9.66976 0)
(2.85982 8.28516 0)
(2.91654 6.8535 0)
(2.92793 5.47762 0)
(2.89378 4.2456 0)
(2.81918 3.31083 0)
(2.6794 2.86843 0)
(2.47308 2.79425 0)
(2.22178 2.9642 0)
(1.92405 3.32563 0)
(1.56305 3.88316 0)
(1.1161 4.56493 0)
(0.567767 5.39809 0)
(-0.0830575 6.4676 0)
(-0.782655 7.55332 0)
(-1.45828 8.53375 0)
(-2.08 9.38427 0)
(-2.63483 10.0858 0)
(-3.09054 10.6748 0)
(-3.44637 11.2037 0)
(-3.73356 11.6926 0)
(-3.97446 12.1444 0)
(-4.18136 12.5589 0)
(-4.362 12.9358 0)
(-4.52327 13.2748 0)
(-4.67304 13.5774 0)
(-4.809 13.8461 0)
(-0.0761161 -17.6516 0)
(-0.107459 -17.4792 0)
(-0.0992857 -16.8737 0)
(-0.0231308 -16.2323 0)
(0.120961 -15.5832 0)
(0.325589 -14.9228 0)
(0.582333 -14.259 0)
(0.859675 -13.6177 0)
(1.12753 -13.0171 0)
(1.34947 -12.4646 0)
(1.48858 -11.9636 0)
(1.50806 -11.5061 0)
(1.36939 -11.0648 0)
(1.03548 -10.5913 0)
(0.568042 -10.068 0)
(0.0523381 -9.5289 0)
(-0.508339 -8.9471 0)
(-1.09326 -8.35928 0)
(-1.68673 -7.75083 0)
(-2.24485 -7.05383 0)
(-2.73964 -6.25263 0)
(-3.10483 -5.30621 0)
(-3.37909 -4.21137 0)
(-3.63471 -3.08603 0)
(-3.85503 -2.02118 0)
(-4.02739 -1.04882 0)
(-4.15581 -0.171248 0)
(-4.24472 0.616843 0)
(-4.29742 1.3263 0)
(-4.31876 1.9608 0)
(-4.3176 2.52114 0)
(-4.29625 3.00904 0)
(-4.25937 3.43942 0)
(-4.2113 3.82252 0)
(-4.15461 4.16218 0)
(0.00391939 6.0182 0)
(-0.00605098 5.45855 0)
(-0.0283691 4.88338 0)
(-0.0641204 4.32421 0)
(-0.110555 3.77853 0)
(-0.164846 3.24943 0)
(-0.224863 2.73844 0)
(-0.287945 2.25039 0)
(-0.353413 1.79615 0)
(-0.422738 1.38942 0)
(-0.49934 1.04654 0)
(-0.587795 0.78794 0)
(-0.701939 0.636478 0)
(-0.855441 0.643366 0)
(-1.0345 0.889369 0)
(-1.23793 1.30887 0)
(-1.47001 1.84888 0)
(-1.73626 2.49507 0)
(-2.08938 3.21497 0)
(-2.52327 3.97709 0)
(-2.98006 4.74082 0)
(-3.39866 5.43484 0)
(-3.70771 6.06228 0)
(-3.92031 6.65827 0)
(-4.07641 7.22593 0)
(-4.1961 7.75857 0)
(-4.29304 8.25201 0)
(-4.37585 8.70497 0)
(-4.44935 9.11805 0)
(-4.51591 9.493 0)
(-4.57764 9.83174 0)
(-4.63491 10.1359 0)
(-4.69006 10.4069 0)
(-4.74527 10.646 0)
(-4.79831 10.8573 0)
(-0.0128038 -12.4889 0)
(-0.018816 -12.218 0)
(-0.022004 -11.6865 0)
(-0.0198772 -11.1358 0)
(-0.0163033 -10.5806 0)
(-0.017852 -10.0247 0)
(-0.0294677 -9.47241 0)
(-0.0579995 -8.92923 0)
(-0.112078 -8.39894 0)
(-0.201281 -7.8819 0)
(-0.336921 -7.37291 0)
(-0.531207 -6.86 0)
(-0.795995 -6.33056 0)
(-1.14534 -5.78208 0)
(-1.52958 -5.23961 0)
(-1.88884 -4.69206 0)
(-2.22432 -4.10348 0)
(-2.51005 -3.46913 0)
(-2.68734 -2.76626 0)
(-2.83647 -1.95524 0)
(-3.05163 -1.05185 0)
(-3.28227 -0.126118 0)
(-3.49215 0.748494 0)
(-3.6708 1.55178 0)
(-3.81586 2.28367 0)
(-3.92674 2.9445 0)
(-4.00426 3.53582 0)
(-4.05209 4.06269 0)
(-4.07501 4.53078 0)
(-4.07738 4.94577 0)
(-4.06408 5.3135 0)
(-4.03955 5.64445 0)
(-4.00654 5.94755 0)
(-3.96575 6.22534 0)
(-3.92136 6.47871 0)
(-0.0306507 2.48496 0)
(-0.0937356 1.96818 0)
(-0.180544 1.52275 0)
(-0.282041 1.1259 0)
(-0.398398 0.761872 0)
(-0.526664 0.430281 0)
(-0.664992 0.136284 0)
(-0.811899 -0.112385 0)
(-0.966042 -0.306838 0)
(-1.12529 -0.437448 0)
(-1.29331 -0.4935 0)
(-1.46952 -0.461126 0)
(-1.65046 -0.324993 0)
(-1.84398 -0.0628414 0)
(-2.05181 0.316819 0)
(-2.26818 0.771761 0)
(-2.52236 1.30062 0)
(-2.81341 1.89082 0)
(-3.10876 2.50344 0)
(-3.3446 3.10698 0)
(-3.50109 3.73911 0)
(-3.61427 4.37927 0)
(-3.692 4.98749 0)
(-3.74636 5.56196 0)
(-3.78599 6.10236 0)
(-3.81491 6.58504 0)
(-3.83628 7.01035 0)
(-3.85452 7.39257 0)
(-3.87071 7.73332 0)
(-3.8861 8.03479 0)
(-3.90122 8.30036 0)
(-3.91582 8.53881 0)
(-3.92984 8.7576 0)
(-3.94366 8.95946 0)
(-3.9569 9.14266 0)
(-0.0183881 -7.73925 0)
(-0.0489077 -7.45342 0)
(-0.0832283 -7.04826 0)
(-0.120116 -6.64999 0)
(-0.164308 -6.25872 0)
(-0.219444 -5.87369 0)
(-0.289672 -5.49506 0)
(-0.379378 -5.12275 0)
(-0.493147 -4.75529 0)
(-0.635805 -4.38861 0)
(-0.811773 -4.01701 0)
(-1.02488 -3.63407 0)
(-1.27814 -3.22473 0)
(-1.57082 -2.76548 0)
(-1.85998 -2.27765 0)
(-2.11031 -1.78439 0)
(-2.28971 -1.25614 0)
(-2.44466 -0.664502 0)
(-2.62858 -0.00671359 0)
(-2.81602 0.708083 0)
(-2.99726 1.45927 0)
(-3.15996 2.20651 0)
(-3.28751 2.89708 0)
(-3.37931 3.52271 0)
(-3.43859 4.08346 0)
(-3.47051 4.5822 0)
(-3.48268 5.02581 0)
(-3.47923 5.42019 0)
(-3.46363 5.77067 0)
(-3.43905 6.08231 0)
(-3.40807 6.35982 0)
(-3.3737 6.60743 0)
(-3.33683 6.82794 0)
(-3.29693 7.02454 0)
(-3.25066 7.20009 0)
(-0.0339283 1.19605 0)
(-0.100193 0.804698 0)
(-0.184754 0.495614 0)
(-0.2814 0.233136 0)
(-0.390244 0.00319133 0)
(-0.509913 -0.195229 0)
(-0.639787 -0.35865 0)
(-0.779127 -0.481687 0)
(-0.926949 -0.558023 0)
(-1.08561 -0.580811 0)
(-1.25317 -0.542203 0)
(-1.42869 -0.434218 0)
(-1.61723 -0.244914 0)
(-1.81859 0.0429129 0)
(-2.03496 0.41759 0)
(-2.26138 0.83721 0)
(-2.48392 1.29271 0)
(-2.66887 1.76187 0)
(-2.81197 2.26208 0)
(-2.92761 2.79693 0)
(-3.01314 3.37853 0)
(-3.06893 3.96851 0)
(-3.0969 4.50752 0)
(-3.10537 4.99757 0)
(-3.09997 5.44521 0)
(-3.0854 5.8496 0)
(-3.06541 6.21229 0)
(-3.04247 6.53582 0)
(-3.01829 6.82323 0)
(-2.99396 7.07773 0)
(-2.97008 7.30254 0)
(-2.94732 7.50063 0)
(-2.92574 7.67469 0)
(-2.90599 7.8271 0)
(-2.88354 7.96018 0)
(-0.0157067 -4.4424 0)
(-0.0451153 -4.17951 0)
(-0.0814552 -3.88752 0)
(-0.123237 -3.61188 0)
(-0.174132 -3.34679 0)
(-0.236696 -3.08959 0)
(-0.313887 -2.83864 0)
(-0.40866 -2.59184 0)
(-0.523935 -2.34568 0)
(-0.66208 -2.09579 0)
(-0.82509 -1.8373 0)
(-1.01408 -1.55966 0)
(-1.22816 -1.24857 0)
(-1.45641 -0.889301 0)
(-1.65781 -0.493638 0)
(-1.83683 -0.0649256 0)
(-2.0162 0.408534 0)
(-2.18599 0.922853 0)
(-2.33995 1.46731 0)
(-2.47637 2.03973 0)
(-2.59092 2.63454 0)
(-2.67162 3.21389 0)
(-2.71865 3.74296 0)
(-2.7406 4.21962 0)
(-2.74255 4.64684 0)
(-2.72896 5.02798 0)
(-2.70367 5.36687 0)
(-2.66991 5.66751 0)
(-2.63031 5.93386 0)
(-2.58686 6.16967 0)
(-2.54166 6.37843 0)
(-2.49619 6.56308 0)
(-2.45113 6.72668 0)
(-2.40705 6.87231 0)
(-2.35953 7.00253 0)
(-0.0310742 0.770357 0)
(-0.0890644 0.512802 0)
(-0.161021 0.319535 0)
(-0.241741 0.162418 0)
(-0.33187 0.0319022 0)
(-0.430776 -0.0727199 0)
(-0.538287 -0.149314 0)
(-0.654379 -0.194621 0)
(-0.780612 -0.204856 0)
(-0.916069 -0.175666 0)
(-1.06038 -0.101651 0)
(-1.21835 0.0250865 0)
(-1.3962 0.213827 0)
(-1.59615 0.480771 0)
(-1.785 0.797451 0)
(-1.94429 1.13656 0)
(-2.08425 1.50942 0)
(-2.20535 1.91598 0)
(-2.30572 2.3547 0)
(-2.38363 2.82095 0)
(-2.4356 3.3093 0)
(-2.46025 3.79355 0)
(-2.46253 4.24197 0)
(-2.44844 4.6495 0)
(-2.42265 5.01686 0)
(-2.38903 5.34584 0)
(-2.35067 5.63897 0)
(-2.3099 5.89911 0)
(-2.26844 6.12929 0)
(-2.22751 6.33249 0)
(-2.18794 6.51155 0)
(-2.15026 6.66915 0)
(-2.11515 6.80768 0)
(-2.08222 6.92934 0)
(-2.04833 7.0367 0)
(-0.0142767 -2.25454 0)
(-0.0426292 -2.02878 0)
(-0.0788577 -1.82213 0)
(-0.121286 -1.63522 0)
(-0.172611 -1.45947 0)
(-0.234453 -1.29117 0)
(-0.308754 -1.12761 0)
(-0.397365 -0.96585 0)
(-0.501608 -0.802872 0)
(-0.621393 -0.635193 0)
(-0.755804 -0.456141 0)
(-0.910161 -0.256624 0)
(-1.07831 -0.0217414 0)
(-1.26554 0.271716 0)
(-1.45702 0.611701 0)
(-1.62584 0.971029 0)
(-1.77754 1.35638 0)
(-1.90977 1.76631 0)
(-2.02062 2.19813 0)
(-2.1083 2.64771 0)
(-2.1718 3.11133 0)
(-2.20788 3.5638 0)
(-2.21883 3.97784 0)
(-2.21066 4.35057 0)
(-2.18846 4.68409 0)
(-2.15627 4.98121 0)
(-2.11731 5.24509 0)
(-2.07409 5.47901 0)
(-2.02853 5.68616 0)
(-1.98206 5.86957 0)
(-1.93623 6.03205 0)
(-1.89149 6.17598 0)
(-1.84828 6.30394 0)
(-1.8071 6.41802 0)
(-1.76591 6.51971 0)
(-0.0265581 0.791814 0)
(-0.0760396 0.642719 0)
(-0.136965 0.530884 0)
(-0.204952 0.443825 0)
(-0.28049 0.376772 0)
(-0.362968 0.329668 0)
(-0.453088 0.303899 0)
(-0.552089 0.301405 0)
(-0.659978 0.32442 0)
(-0.778733 0.375723 0)
(-0.911545 0.458405 0)
(-1.05249 0.576982 0)
(-1.19633 0.742556 0)
(-1.34995 0.962073 0)
(-1.49933 1.22844 0)
(-1.63143 1.51877 0)
(-1.74931 1.83751 0)
(-1.85063 2.18195 0)
(-1.9333 2.54904 0)
(-1.99542 2.93526 0)
(-2.0354 3.3369 0)
(-2.05154 3.73207 0)
(-2.04754 4.09592 0)
(-2.02867 4.42495 0)
(-1.99933 4.72032 0)
(-1.96308 4.98404 0)
(-1.92267 5.21855 0)
(-1.88021 5.42648 0)
(-1.83723 5.61045 0)
(-1.79486 5.77299 0)
(-1.75387 5.91644 0)
(-1.71458 6.04302 0)
(-1.67764 6.15473 0)
(-1.64311 6.25329 0)
(-1.60891 6.34023 0)
(-0.00979081 -0.832938 0)
(-0.0319401 -0.635711 0)
(-0.0612078 -0.482799 0)
(-0.0968879 -0.350204 0)
(-0.141394 -0.227851 0)
(-0.196349 -0.111611 0)
(-0.263429 0.00147769 0)
(-0.343686 0.113598 0)
(-0.438552 0.226607 0)
(-0.549548 0.344773 0)
(-0.676836 0.475457 0)
(-0.820569 0.628441 0)
(-0.980977 0.815038 0)
(-1.15425 1.05147 0)
(-1.31966 1.32391 0)
(-1.46365 1.61133 0)
(-1.59016 1.91956 0)
(-1.69784 2.24671 0)
(-1.78556 2.59051 0)
(-1.85229 2.94818 0)
(-1.89714 3.31663 0)
(-1.91824 3.67609 0)
(-1.91865 4.00496 0)
(-1.90367 4.30096 0)
(-1.87769 4.56578 0)
(-1.84419 4.80167 0)
(-1.80584 5.01116 0)
(-1.76473 5.19682 0)
(-1.72241 5.36119 0)
(-1.68006 5.50663 0)
(-1.63853 5.63533 0)
(-1.59846 5.7493 0)
(-1.56029 5.85028 0)
(-1.52412 5.93981 0)
(-1.48889 6.01933 0)
(-0.0256825 0.943906 0)
(-0.0724032 0.891338 0)
(-0.125682 0.845913 0)
(-0.183991 0.812906 0)
(-0.247839 0.792003 0)
(-0.317637 0.783959 0)
(-0.394422 0.789792 0)
(-0.477265 0.811299 0)
(-0.566147 0.850969 0)
(-0.663994 0.90998 0)
(-0.77184 0.99104 0)
(-0.890708 1.10045 0)
(-1.02283 1.24592 0)
(-1.16786 1.4376 0)
(-1.30851 1.66531 0)
(-1.43374 1.9105 0)
(-1.54507 2.17703 0)
(-1.64058 2.46257 0)
(-1.71862 2.76458 0)
(-1.77772 3.08028 0)
(-1.81665 3.40671 0)
(-1.83376 3.72618 0)
(-1.83214 4.01912 0)
(-1.81662 4.28317 0)
(-1.79124 4.51961 0)
(-1.75924 4.73034 0)
(-1.72311 4.91747 0)
(-1.68478 5.08326 0)
(-1.64569 5.22988 0)
(-1.60686 5.35942 0)
(-1.56904 5.4738 0)
(-1.53272 5.57477 0)
(-1.49827 5.66393 0)
(-1.46584 5.74267 0)
(-1.43486 5.81229 0)
(-0.0093559 0.273862 0)
(-0.032855 0.418535 0)
(-0.0634635 0.514284 0)
(-0.100842 0.595433 0)
(-0.14667 0.67043 0)
(-0.201576 0.742172 0)
(-0.266514 0.812127 0)
(-0.344 0.882165 0)
(-0.433671 0.956947 0)
(-0.534959 1.04244 0)
(-0.650644 1.14409 0)
(-0.780562 1.2683 0)
(-0.923718 1.42272 0)
(-1.07905 1.61613 0)
(-1.22732 1.83678 0)
(-1.35741 2.06895 0)
(-1.47221 2.31743 0)
(-1.57045 2.58072 0)
(-1.65099 2.85692 0)
(-1.7128 3.14381 0)
(-1.75498 3.43889 0)
(-1.77578 3.72636 0)
(-1.77796 3.98903 0)
(-1.76625 4.22514 0)
(-1.74457 4.43614 0)
(-1.71605 4.62388 0)
(-1.68311 4.79043 0)
(-1.64764 4.93788 0)
(-1.61104 5.06826 0)
(-1.57436 5.18348 0)
(-1.53837 5.2853 0)
(-1.50362 5.37531 0)
(-1.47048 5.45494 0)
(-1.43913 5.52546 0)
(-1.40954 5.58802 0)
(-0.0187375 1.13618 0)
(-0.0554476 1.17904 0)
(-0.0989621 1.18979 0)
(-0.147139 1.19881 0)
(-0.200224 1.21252 0)
(-0.259556 1.2326 0)
(-0.324939 1.26008 0)
(-0.397874 1.29622 0)
(-0.481028 1.34247 0)
(-0.574522 1.40236 0)
(-0.679767 1.48041 0)
(-0.797776 1.58123 0)
(-0.928624 1.71093 0)
(-1.07161 1.87748 0)
(-1.21004 2.0708 0)
(-1.33329 2.27602 0)
(-1.44331 2.49677 0)
(-1.5385 2.73133 0)
(-1.61748 2.97776 0)
(-1.67903 3.23387 0)
(-1.72206 3.4973 0)
(-1.74471 3.75388 0)
(-1.7494 3.98825 0)
(-1.74058 4.1988 0)
(-1.72201 4.38679 0)
(-1.6967 4.55393 0)
(-1.66702 4.7021 0)
(-1.63478 4.83315 0)
(-1.60136 4.94893 0)
(-1.56779 5.05113 0)
(-1.53478 5.14134 0)
(-1.50287 5.22098 0)
(-1.47238 5.29131 0)
(-1.44355 5.35349 0)
(-1.41676 5.40853 0)
(-0.0131059 1.00171 0)
(-0.0380492 1.13089 0)
(-0.0707827 1.20148 0)
(-0.110108 1.25648 0)
(-0.156651 1.30554 0)
(-0.210313 1.35381 0)
(-0.273416 1.40432 0)
(-0.346436 1.45951 0)
(-0.430356 1.52159 0)
(-0.526332 1.59326 0)
(-0.635132 1.6785 0)
(-0.757071 1.78216 0)
(-0.891919 1.9101 0)
(-1.03857 2.06955 0)
(-1.17971 2.25063 0)
(-1.3049 2.44036 0)
(-1.41671 2.64258 0)
(-1.51388 2.85598 0)
(-1.59522 3.07897 0)
(-1.65966 3.30969 0)
(-1.70623 3.54608 0)
(-1.73287 3.77549 0)
(-1.74167 3.98438 0)
(-1.73689 4.17155 0)
(-1.72224 4.33832 0)
(-1.70063 4.48631 0)
(-1.67439 4.61729 0)
(-1.64532 4.733 0)
(-1.61476 4.83512 0)
(-1.58376 4.92521 0)
(-1.55306 5.0047 0)
(-1.5232 5.07487 0)
(-1.49452 5.13687 0)
(-1.46728 5.1917 0)
(-1.44231 5.2403 0)
(-0.0172853 1.44958 0)
(-0.0483995 1.5386 0)
(-0.0871885 1.57716 0)
(-0.130043 1.60728 0)
(-0.179427 1.63654 0)
(-0.235149 1.66769 0)
(-0.298333 1.70303 0)
(-0.369961 1.74448 0)
(-0.451073 1.79399 0)
(-0.542885 1.85399 0)
(-0.646576 1.92763 0)
(-0.763037 2.01893 0)
(-0.892605 2.13299 0)
(-1.03472 2.27616 0)
(-1.17295 2.43934 0)
(-1.29681 2.61039 0)
(-1.40848 2.79253 0)
(-1.50655 2.98442 0)
(-1.58973 3.1845 0)
(-1.65684 3.391 0)
(-1.70684 3.602 0)
(-1.73742 3.80619 0)
(-1.75028 3.9916 0)
(-1.74952 4.15731 0)
(-1.73871 4.30461 0)
(-1.72074 4.43505 0)
(-1.69791 4.55025 0)
(-1.67199 4.65184 0)
(-1.64434 4.74134 0)
(-1.61602 4.82018 0)
(-1.58776 4.88963 0)
(-1.56012 4.95085 0)
(-1.53344 5.00486 0)
(-1.50802 5.05256 0)
(-1.48507 5.09478 0)
(-0.0135827 1.52606 0)
(-0.0411599 1.65812 0)
(-0.0762434 1.71873 0)
(-0.116539 1.76388 0)
(-0.163633 1.80477 0)
(-0.21801 1.8454 0)
(-0.280668 1.88827 0)
(-0.352581 1.93544 0)
(-0.434753 1.98898 0)
(-0.528184 2.05126 0)
(-0.63379 2.1252 0)
(-0.752244 2.21442 0)
(-0.883745 2.32343 0)
(-1.02773 2.45787 0)
(-1.16775 2.60896 0)
(-1.29345 2.76586 0)
(-1.40732 2.93175 0)
(-1.50806 3.10546 0)
(-1.59447 3.28562 0)
(-1.66539 3.47065 0)
(-1.71977 3.6588 0)
(-1.75506 3.84 0)
(-1.77255 4.0038 0)
(-1.77619 4.1496 0)
(-1.76951 4.27871 0)
(-1.75534 4.39265 0)
(-1.73595 4.49297 0)
(-1.71313 4.58119 0)
(-1.68826 4.65872 0)
(-1.6624 4.72686 0)
(-1.63633 4.78677 0)
(-1.61062 4.8395 0)
(-1.58561 4.88595 0)
(-1.56167 4.92694 0)
(-1.5404 4.96319 0)
(-0.0157947 1.79573 0)
(-0.0451245 1.92022 0)
(-0.082202 1.97284 0)
(-0.123947 2.01087 0)
(-0.172124 2.04529 0)
(-0.22711 2.08005 0)
(-0.289855 2.11742 0)
(-0.361352 2.15926 0)
(-0.442688 2.20743 0)
(-0.534986 2.26406 0)
(-0.639334 2.33174 0)
(-0.75663 2.41367 0)
(-0.887328 2.51386 0)
(-1.03113 2.63721 0)
(-1.17187 2.77536 0)
(-1.29906 2.91823 0)
(-1.41515 3.06859 0)
(-1.51882 3.2253 0)
(-1.60883 3.38702 0)
(-1.684 3.55223 0)
(-1.74321 3.7193 0)
(-1.7836 3.87927 0)
(-1.80604 4.02304 0)
(-1.81434 4.15032 0)
(-1.81195 4.26245 0)
(-1.80168 4.36093 0)
(-1.78581 4.44725 0)
(-1.76613 4.52283 0)
(-1.74405 4.58899 0)
(-1.72066 4.64693 0)
(-1.69677 4.6977 0)
(-1.67298 4.74225 0)
(-1.64964 4.78138 0)
(-1.62716 4.81583 0)
(-1.60757 4.84623 0)
(-0.0143377 1.93968 0)
(-0.042776 2.08511 0)
(-0.078693 2.1463 0)
(-0.119735 2.18973 0)
(-0.167498 2.22805 0)
(-0.222439 2.26566 0)
(-0.28551 2.305 0)
(-0.357689 2.34795 0)
(-0.440022 2.39633 0)
(-0.533567 2.45213 0)
(-0.639341 2.51773 0)
(-0.7582 2.59601 0)
(-0.890622 2.69053 0)
(-1.03644 2.8056 0)
(-1.17951 2.93318 0)
(-1.30937 3.06409 0)
(-1.42862 3.20089 0)
(-1.53601 3.34251 0)
(-1.63033 3.48766 0)
(-1.7104 3.63492 0)
(-1.77506 3.78273 0)
(-1.82113 3.92311 0)
(-1.84901 4.04828 0)
(-1.86237 4.15823 0)
(-1.8646 4.25438 0)
(-1.85849 4.3382 0)
(-1.84633 4.41117 0)
(-1.82993 4.47465 0)
(-1.81073 4.52988 0)
(-1.78984 4.57797 0)
(-1.76814 4.61989 0)
(-1.74623 4.65649 0)
(-1.72451 4.6885 0)
(-1.70342 4.71657 0)
(-1.68548 4.74126 0)
(-0.015191 2.13667 0)
(-0.0443193 2.28644 0)
(-0.0810981 2.34736 0)
(-0.122827 2.38962 0)
(-0.171193 2.42639 0)
(-0.226615 2.46222 0)
(-0.290054 2.49956 0)
(-0.362515 2.54023 0)
(-0.445098 2.58595 0)
(-0.538939 2.63856 0)
(-0.645156 2.70025 0)
(-0.764729 2.7736 0)
(-0.898286 2.86178 0)
(-1.04585 2.96855 0)
(-1.19132 3.08615 0)
(-1.32408 3.20604 0)
(-1.44685 3.33049 0)
(-1.5584 3.4584 0)
(-1.65752 3.58851 0)
(-1.74302 3.71939 0)
(-1.8137 3.84954 0)
(-1.86601 3.97185 0)
(-1.89985 4.07973 0)
(-1.91873 4.17346 0)
(-1.92599 4.25454 0)
(-1.9244 4.32447 0)
(-1.91625 4.38471 0)
(-1.90339 4.43658 0)
(-1.88728 4.48126 0)
(-1.86909 4.5198 0)
(-1.84972 4.5531 0)
(-1.82982 4.58192 0)
(-1.80981 4.60694 0)
(-1.7902 4.6287 0)
(-1.77401 4.64775 0)
(-0.0146892 2.29208 0)
(-0.0439308 2.45468 0)
(-0.0806051 2.51992 0)
(-0.122481 2.56447 0)
(-0.171116 2.60263 0)
(-0.226976 2.63922 0)
(-0.291029 2.67679 0)
(-0.364285 2.71716 0)
(-0.447841 2.76199 0)
(-0.542833 2.813 0)
(-0.650389 2.87219 0)
(-0.771536 2.94192 0)
(-0.907001 3.02501 0)
(-1.05699 3.12474 0)
(-1.2054 3.23367 0)
(-1.34153 3.34386 0)
(-1.46825 3.45734 0)
(-1.5844 3.57301 0)
(-1.6888 3.6896 0)
(-1.78026 3.80567 0)
(-1.85754 3.91972 0)
(-1.91669 4.02542 0)
(-1.95709 4.11725 0)
(-1.98206 4.19581 0)
(-1.99488 4.26267 0)
(-1.99828 4.31939 0)
(-1.99457 4.36744 0)
(-1.98562 4.40813 0)
(-1.97293 4.44261 0)
(-1.95772 4.47185 0)
(-1.94094 4.49671 0)
(-1.92328 4.51789 0)
(-1.90516 4.536 0)
(-1.88717 4.55154 0)
(-1.87293 4.56498 0)
(-0.0152634 2.45653 0)
(-0.0451068 2.62725 0)
(-0.0822638 2.69436 0)
(-0.124629 2.73939 0)
(-0.173747 2.77741 0)
(-0.230107 2.81349 0)
(-0.294695 2.85021 0)
(-0.368552 2.88937 0)
(-0.452811 2.93258 0)
(-0.548661 2.98146 0)
(-0.657295 3.03786 0)
(-0.779829 3.10392 0)
(-0.917118 3.18216 0)
(-1.06955 3.27546 0)
(-1.22103 3.37659 0)
(-1.36072 3.47812 0)
(-1.49164 3.58185 0)
(-1.6127 3.68664 0)
(-1.72276 3.79115 0)
(-1.82063 3.89391 0)
(-1.90506 3.99337 0)
(-1.97168 4.08388 0)
(-2.01929 4.16091 0)
(-2.05099 4.22532 0)
(-2.06997 4.27881 0)
(-2.07895 4.32301 0)
(-2.08021 4.35942 0)
(-2.07564 4.38936 0)
(-2.06682 4.41395 0)
(-2.055 4.43415 0)
(-2.04117 4.45074 0)
(-2.02604 4.46442 0)
(-2.01009 4.47571 0)
(-1.99398 4.48508 0)
(-1.98195 4.49293 0)
(8.96 -54.9567 0)
(8.83776 -54.7881 0)
(8.66723 -54.686 0)
(8.5092 -54.6133 -4.37101e-17)
(8.35033 -54.5622 0)
(8.18609 -54.5301 0)
(8.01668 -54.5178 0)
(7.83824 -54.5304 0)
(7.64276 -54.5818 4.27099e-17)
(7.41972 -54.6528 0)
(7.15282 -54.706 0)
(6.82316 -54.735 -4.25369e-17)
(6.43727 -54.7477 0)
(6.02303 -54.7793 -4.52996e-17)
(5.58914 -54.8661 0)
(5.13962 -55.0319 0)
(4.67994 -55.2893 0)
(4.21346 -55.646 5.17175e-17)
(3.74406 -56.1312 0)
(3.27217 -56.7664 2.76962e-17)
(2.8182 -57.5807 0)
(2.45594 -58.6133 0)
(14.3439 59.0069 0)
(15.0382 58.5131 0)
(15.8649 57.979 0)
(16.7613 57.3974 4.66688e-17)
(17.7366 56.7993 0)
(18.7898 56.2191 0)
(19.9219 55.7014 -8.99061e-17)
(21.1328 55.3064 0)
(22.4172 55.1076 -1.34383e-16)
(23.7563 55.172 8.84228e-17)
(25.1125 55.5176 8.79096e-17)
(26.4238 56.1185 4.49837e-17)
(27.5606 56.7491 0)
(28.4204 57.32 4.66265e-17)
(28.9826 57.8422 0)
(29.2671 58.3399 0)
(29.2584 58.8387 0)
(29.0212 59.373 -1.47772e-16)
(28.5154 59.9449 0)
(27.7818 60.5477 -2.57001e-17)
(26.8207 61.1918 0)
(25.6789 61.8874 -5.23196e-17)
(4.69251 -49.7177 0)
(5.02293 -50.5514 0)
(5.24918 -51.3567 0)
(5.39966 -52.1066 0)
(5.47487 -52.7938 0)
(5.48247 -53.4035 8.02425e-17)
(5.42283 -53.9109 7.87708e-17)
(5.3056 -54.218 0)
(5.14769 -54.1091 7.85518e-17)
(4.96172 -53.372 -7.84089e-17)
(4.75755 -51.7546 -7.81203e-17)
(4.57699 -49.0428 0)
(4.50418 -45.2789 0)
(4.54926 -40.9063 0)
(4.67547 -36.2295 8.21801e-17)
(4.83449 -31.4675 0)
(5.00542 -26.7752 0)
(5.19191 -22.2583 8.31919e-17)
(5.38903 -17.9823 0)
(5.59061 -13.9972 0)
(5.79966 -10.3403 0)
(6.01084 -7.02637 4.51475e-17)
(13.5884 33.9433 0)
(12.7485 35.5438 0)
(11.7546 37.0205 0)
(10.5893 38.376 -9.02633e-17)
(9.26255 39.6009 0)
(7.7823 40.6783 8.97682e-17)
(6.15668 41.5858 0)
(4.37375 42.2982 0)
(2.51068 42.8571 0)
(0.583533 43.2067 0)
(-1.39726 43.1853 -1.86192e-16)
(-3.30971 42.7501 0)
(-5.03859 42.0598 0)
(-6.51341 41.3144 0)
(-7.7096 40.6213 9.49744e-17)
(-8.59534 40.091 1.95356e-16)
(-9.19374 39.8097 0)
(-9.5563 39.7837 0)
(-9.72062 39.981 0)
(-9.72359 40.3736 0)
(-9.60123 40.9304 1.04398e-16)
(-9.33596 41.5959 0)
(-8.22415 -18.2297 -1.64253e-16)
(-7.86182 -15.9581 0)
(-7.5016 -13.7637 -1.75383e-16)
(-7.10752 -11.716 8.70515e-17)
(-6.68673 -9.85489 0)
(-6.24892 -8.21335 -1.76338e-16)
(-5.80414 -6.81301 -1.7988e-16)
(-5.36388 -5.66294 -1.80837e-16)
(-4.94034 -4.75384 0)
(-4.53992 -4.04502 0)
(-4.18569 -3.5042 1.8005e-16)
(-3.89867 -3.08337 0)
(-3.69828 -2.77121 0)
(-3.55389 -2.47306 0)
(-3.46119 -2.06243 -3.83547e-16)
(-3.41721 -1.49651 -1.93292e-16)
(-3.39829 -0.757453 0)
(-3.38727 0.157264 -2.01991e-16)
(-3.36972 1.23259 0)
(-3.33238 2.44002 2.07727e-16)
(-3.26935 3.75148 -1.03765e-16)
(-3.20965 5.12998 0)
(-2.02501 20.9579 1.90511e-16)
(-2.58805 21.3881 -2.00219e-16)
(-3.04354 21.8 4.03014e-16)
(-3.42606 22.2184 2.01259e-16)
(-3.73616 22.6467 0)
(-3.9764 23.0839 0)
(-4.15275 23.5099 2.04157e-16)
(-4.27508 23.8985 2.04563e-16)
(-4.3548 24.2547 0)
(-4.40251 24.5995 0)
(-4.42705 24.9333 0)
(-4.44519 25.2347 0)
(-4.47836 25.4878 0)
(-4.54614 25.7091 2.10776e-16)
(-4.64257 25.9215 2.15596e-16)
(-4.75612 26.1345 -2.16719e-16)
(-4.8754 26.3547 0)
(-4.98899 26.5866 2.24286e-16)
(-5.08635 26.8329 0)
(-5.16082 27.0943 -1.86297e-18)
(-5.20558 27.3733 2.30545e-16)
(-5.18785 27.6606 -2.39306e-16)
(-4.44076 -0.881172 -1.94291e-16)
(-4.30835 0.04664 2.0466e-16)
(-4.20507 0.947886 -2.05537e-16)
(-4.10588 1.7975 1.16842e-18)
(-4.01434 2.59474 2.08208e-16)
(-3.93081 3.32888 0)
(-3.85158 4.01772 0)
(-3.77967 4.68854 0)
(-3.7182 5.345 0)
(-3.66764 5.98883 4.20886e-16)
(-3.62884 6.62158 0)
(-3.6 7.24258 0)
(-3.57293 7.84064 0)
(-3.54196 8.40439 -2.16904e-16)
(-3.5054 8.93924 0)
(-3.46298 9.45699 4.47635e-16)
(-3.41479 9.96388 0)
(-3.35943 10.4617 0)
(-3.29498 10.9502 0)
(-3.21937 11.4281 -2.34675e-16)
(-3.13333 11.8953 -2.37275e-16)
(-3.05628 12.3431 2.46213e-16)
(-4.92981 14.1553 2.14195e-16)
(-5.01821 14.5225 0)
(-5.06811 14.8935 0)
(-5.09546 15.2647 -4.53528e-16)
(-5.10061 15.632 -8.03212e-19)
(-5.08428 15.9931 -2.27076e-16)
(-5.05162 16.3501 -4.54637e-16)
(-5.00122 16.7026 0)
(-4.9338 17.0506 -4.55155e-16)
(-4.84926 17.3941 -1.6087e-18)
(-4.74718 17.7336 -4.54526e-16)
(-4.63091 18.0679 4.55147e-16)
(-4.51317 18.3895 0)
(-4.40281 18.6912 0)
(-4.30001 18.9731 0)
(-4.20318 19.2366 2.40831e-16)
(-4.11047 19.4837 0)
(-4.02016 19.7158 0)
(-3.93083 19.9338 0)
(-3.8416 20.1387 0)
(-3.75028 20.3311 0)
(-3.64165 20.5104 0)
(-4.11699 4.59096 0)
(-4.10007 5.14152 0)
(-4.09048 5.69984 2.38477e-16)
(-4.07767 6.2577 -6.40395e-19)
(-4.06358 6.81368 2.39983e-16)
(-4.04904 7.36726 7.18274e-16)
(-4.03347 7.91696 4.78404e-16)
(-4.0172 8.46232 0)
(-4.00004 9.00328 4.78646e-16)
(-3.98247 9.53959 -4.78489e-16)
(-3.96489 10.0704 4.77554e-16)
(-3.94571 10.5891 1.19937e-18)
(-3.91857 11.0784 0)
(-3.87918 11.5281 0)
(-3.8284 11.9413 0)
(-3.76755 12.3212 1.20565e-18)
(-3.69724 12.6699 0)
(-3.61801 12.9892 0)
(-3.53014 13.2803 0)
(-3.43365 13.5441 0)
(-3.33007 13.7816 0)
(-3.23131 13.9922 0)
(-4.83546 11.0992 0)
(-4.85432 11.3895 2.56181e-16)
(-4.85644 11.6893 -5.13523e-16)
(-4.84922 11.9946 2.57232e-16)
(-4.83192 12.3025 -5.148e-16)
(-4.80311 12.6111 -7.71996e-19)
(-4.76215 12.9191 -5.14122e-16)
(-4.70823 13.228 0)
(-4.63969 13.5399 0)
(-4.55545 13.854 0)
(-4.45493 14.1689 0)
(-4.34047 14.4805 -5.12474e-16)
(-4.22078 14.7784 0)
(-4.1027 15.0552 0)
(-3.98658 15.3106 0)
(-3.87216 15.5445 -5.4294e-16)
(-3.75937 15.7575 0)
(-3.64817 15.9503 -5.54669e-16)
(-3.53853 16.1237 -5.60307e-16)
(-3.43041 16.2788 2.82769e-16)
(-3.32322 16.4172 0)
(-3.21241 16.5386 2.95094e-16)
(-3.89962 6.8098 0)
(-3.90319 7.2364 -5.44288e-16)
(-3.9085 7.66437 2.72365e-16)
(-3.90987 8.09283 0)
(-3.91017 8.52097 0)
(-3.90999 8.94292 -5.45596e-16)
(-3.90836 9.35432 5.45405e-16)
(-3.90354 9.75402 -5.45612e-16)
(-3.89481 10.1416 5.44954e-16)
(-3.88057 10.5205 0)
(-3.85879 10.8976 0)
(-3.82834 11.2712 0)
(-3.78696 11.6256 0)
(-3.73357 11.9505 0)
(-3.66989 12.2459 -5.67199e-16)
(-3.59679 12.5131 0)
(-3.51487 12.7537 0)
(-3.42493 12.9688 5.86576e-16)
(-3.32759 13.1592 5.92404e-16)
(-3.22329 13.3257 -2.98894e-16)
(-3.11397 13.4688 -3.01598e-16)
(-3.00674 13.5888 -3.11734e-16)
(-3.96119 9.35553 0)
(-3.96101 9.61939 2.91345e-16)
(-3.94719 9.89182 0)
(-3.92533 10.1701 5.83218e-16)
(-3.89501 10.4538 0)
(-3.85581 10.7394 0)
(-3.80886 11.0205 0)
(-3.75456 11.2929 5.82222e-16)
(-3.69405 11.555 -5.8125e-16)
(-3.62702 11.8109 5.79744e-16)
(-3.55176 12.0667 0)
(-3.46888 12.3209 5.77429e-16)
(-3.38162 12.5648 0)
(-3.29368 12.7915 -5.96039e-16)
(-3.20518 12.9966 6.04082e-16)
(-3.11552 13.1774 0)
(-3.0258 13.3352 6.18204e-16)
(-2.93654 13.4722 0)
(-2.84789 13.5902 0)
(-2.75995 13.6907 -6.36329e-16)
(-2.67286 13.775 3.20783e-16)
(-2.59049 13.8444 3.31565e-16)
(-3.22712 7.42998 5.89135e-16)
(-3.22749 7.73432 6.19418e-16)
(-3.21932 8.04614 0)
(-3.2055 8.35989 -1.23986e-15)
(-3.18732 8.6748 -6.2e-16)
(-3.164 8.99022 6.19629e-16)