/*--------------------------------*- C++ -*----------------------------------*\
  =========                 |
  \\      /  F ield         | OpenFOAM: The Open Source CFD Toolbox
   \\    /   O peration     | Website:  https://openfoam.org
    \\  /    A nd           | Version:  8
     \\/     M anipulation  |
\*---------------------------------------------------------------------------*/
FoamFile
{
    version     2.0;
    format      ascii;
    class       volScalarField;
    location    "500";
    object      nut;
}
// * * * * * * * * * * * * * * * * * * * * * * * * * * * * * * * * * * * * * //

dimensions      [0 2 -1 0 0 0 0];

internalField   nonuniform List<scalar> 
15677
(
7.4799e-05
0.000154173
8.20044e-05
0.000258016
0.000137613
8.01551e-05
0.000722415
0.000177816
0.000111477
7.67047e-05
0.001806
0.000374861
0.000147544
0.000108613
7.42857e-05
0.00331824
0.000873546
0.00031032
0.000125453
0.000111437
7.26927e-05
0.00477634
0.00171998
0.000665358
0.000257544
0.000122942
0.000117685
7.16997e-05
0.00581854
0.00284081
0.0012659
0.000566627
0.000234034
0.000123109
0.000124283
7.09913e-05
0.0063665
0.00405887
0.00211292
0.00106489
0.000504671
0.000212572
0.000127183
0.000129301
7.05247e-05
0.00658968
0.00517053
0.00314444
0.00176649
0.000947124
0.000461411
0.000205327
0.000135481
0.000134112
7.01449e-05
0.00667777
0.00598073
0.00423165
0.00264955
0.00156247
0.000868395
0.000428022
0.000196504
0.000145037
0.000136544
6.98837e-05
0.00671615
0.00641389
0.00521234
0.00364248
0.00234431
0.00142919
0.000808195
0.000401505
0.000192092
0.000153601
0.000139267
6.97292e-05
0.00671482
0.00659628
0.00595683
0.00462952
0.00325117
0.00214066
0.00133263
0.000759144
0.000377404
0.00019268
0.000161874
0.000141412
6.96789e-05
0.00670858
0.00668361
0.00639454
0.00548095
0.00420176
0.00297802
0.00199471
0.00125756
0.000717846
0.000358061
0.000195384
0.000169031
0.00014306
6.97048e-05
0.00670622
0.00670342
0.00659107
0.00609898
0.00508681
0.00388345
0.00277829
0.0018841
0.00119558
0.00068316
0.000340244
0.000199147
0.000175655
0.000144269
6.97948e-05
0.00670583
0.00670341
0.00667467
0.0064543
0.00580046
0.00476826
0.00364123
0.00262643
0.00179582
0.00114426
0.000649221
0.00032814
0.000204218
0.00018085
0.000145237
6.99789e-05
0.00670591
0.00670176
0.00669497
0.0066194
0.00628315
0.00553173
0.00451185
0.0034526
0.00250653
0.0017243
0.00109888
0.000620684
0.000319666
0.00020912
0.00018569
0.000145896
7.02575e-05
0.00670599
0.00670097
0.00669787
0.00667431
0.00654089
0.00609634
0.0052993
0.0043042
0.00330228
0.00241025
0.00166394
0.0010589
0.00059564
0.000314094
0.000214437
0.000189142
0.000146356
7.06178e-05
0.00670603
0.00670075
0.00669749
0.00668925
0.00664244
0.00643986
0.00592102
0.00510081
0.00413451
0.00318073
0.00233101
0.00161289
0.00102327
0.00057587
0.000310871
0.000218859
0.00019271
0.000146516
7.10599e-05
0.00670605
0.00670071
0.00669701
0.00669233
0.00667638
0.00659544
0.00633627
0.00576053
0.00493218
0.00399464
0.00308125
0.00226552
0.00156847
0.000993484
0.000559532
0.00030912
0.000223478
0.000194893
0.000146459
7.15819e-05
0.00670605
0.00670069
0.00669681
0.00669251
0.00668633
0.00665565
0.00654076
0.00623011
0.00561668
0.00478895
0.00387904
0.0029993
0.00221077
0.00153159
0.000967521
0.0005466
0.000308827
0.00022727
0.000196832
0.000146254
7.21804e-05
0.00670606
0.00670066
0.00669676
0.00669225
0.00668866
0.00667673
0.00662919
0.00648064
0.0061279
0.00548947
0.00466802
0.003783
0.00293185
0.00216539
0.00149976
0.000946934
0.000536935
0.000309429
0.000230988
0.000198049
0.000145844
7.28521e-05
0.00670606
0.00670064
0.00669676
0.00669204
0.00668898
0.00668304
0.00666448
0.00659778
0.00641834
0.00603291
0.00537852
0.00456573
0.00370397
0.00287731
0.00212776
0.00147507
0.000929668
0.000530969
0.00031107
0.000234091
0.000199152
0.000145262
7.35901e-05
0.00670605
0.00670063
0.00669676
0.00669192
0.00668892
0.00668448
0.00667709
0.00664871
0.00656324
0.00635726
0.00594623
0.0052823
0.00448077
0.00363928
0.00283222
0.00209911
0.0014544
0.000917912
0.00052714
0.000313101
0.00023704
0.000199859
0.000144519
7.43901e-05
0.00670605
0.00670063
0.00669675
0.00669185
0.00668884
0.0066846
0.00668103
0.00666869
0.00663106
0.00652754
0.00629843
0.00586895
0.00520101
0.00441029
0.0035882
0.00279801
0.00207645
0.00144122
0.00090921
0.00052628
0.000316183
0.000238861
0.000200075
0.000143656
7.52434e-05
0.00670603
0.00670063
0.00669673
0.00669181
0.00668878
0.00668445
0.00668204
0.00667565
0.00666016
0.00661154
0.0064915
0.00624499
0.00580165
0.00513211
0.00435424
0.00354807
0.00277295
0.00206281
0.00143159
0.000905838
0.000526976
0.000319581
0.000241096
0.000200059
0.000142663
7.61452e-05
0.00670602
0.00670065
0.00669671
0.00669179
0.00668873
0.0066843
0.00668218
0.00667769
0.00667156
0.00664954
0.0065917
0.00645841
0.00619595
0.00574373
0.00507784
0.00431133
0.0035196
0.00275725
0.00205352
0.0014284
0.000905884
0.000530918
0.000322725
0.000243126
0.00019976
0.000141596
7.70861e-05
0.006706
0.00670066
0.00669669
0.00669179
0.00668869
0.00668421
0.00668211
0.00667809
0.00667555
0.00666526
0.00663989
0.00657271
0.00642599
0.00615524
0.00569845
0.0050342
0.00427896
0.00350071
0.00274968
0.00205536
0.00143158
0.00090933
0.000535602
0.000326758
0.00024466
0.00019926
0.000140423
7.80604e-05
0.00670599
0.00670068
0.00669667
0.00669179
0.00668865
0.00668415
0.00668201
0.00667802
0.00667672
0.00667112
0.00666129
0.00662927
0.00655448
0.00640205
0.00611918
0.0056587
0.00500464
0.0042635
0.00349791
0.00275573
0.0020621
0.00143828
0.00091607
0.000541847
0.000331034
0.000245975
0.000198539
0.000139214
7.90595e-05
0.00670597
0.0067007
0.00669664
0.0066918
0.00668861
0.00668411
0.00668192
0.00667789
0.00667691
0.00667299
0.00667
0.00665523
0.00662139
0.00654128
0.00637617
0.00609487
0.00564201
0.00499296
0.00425967
0.00350197
0.00276389
0.00207391
0.00144939
0.000926396
0.000550249
0.000335858
0.000247141
0.000197689
0.000137928
8.00706e-05
0.00670596
0.00670072
0.00669662
0.00669182
0.00668856
0.00668409
0.00668184
0.00667777
0.00667684
0.00667337
0.00667314
0.00666627
0.00665363
0.00661414
0.00652797
0.00636573
0.00608621
0.0056305
0.00498729
0.00426264
0.00351385
0.00278046
0.00209192
0.00146638
0.000939909
0.000560204
0.000341049
0.000248132
0.000196665
0.000136687
8.1203e-05
0.00670595
0.00670074
0.0066966
0.00669184
0.00668852
0.00668409
0.00668176
0.00667769
0.00667671
0.00667332
0.00667401
0.00667047
0.00666797
0.00665022
0.00661243
0.0065268
0.00636316
0.00608037
0.00562727
0.00499164
0.00427809
0.00353743
0.00280874
0.00211843
0.00148836
0.000956501
0.000571801
0.000346472
0.000249023
0.000195574
0.0001353
8.2464e-05
0.00670594
0.00670075
0.00669658
0.00669186
0.00668848
0.0066841
0.00668168
0.00667763
0.00667658
0.00667317
0.00667411
0.00667173
0.00667378
0.00666694
0.00665491
0.00661532
0.00652939
0.00636571
0.00608357
0.00563893
0.00501421
0.00430868
0.003573
0.00284569
0.00215204
0.00151512
0.000975928
0.000584721
0.000352375
0.000249808
0.000194219
0.000133847
8.37105e-05
0.00670593
0.00670077
0.00669656
0.00669188
0.00668844
0.00668412
0.00668161
0.0066776
0.00667644
0.00667302
0.00667399
0.00667193
0.00667571
0.006674
0.00667494
0.00666237
0.00662291
0.00653883
0.00637707
0.00610409
0.0056678
0.0050509
0.00435229
0.00361967
0.00289064
0.00219257
0.00154618
0.000998143
0.00059924
0.000358623
0.000250645
0.000192555
0.00013239
8.49388e-05
0.00670592
0.00670078
0.00669654
0.0066919
0.0066884
0.00668413
0.00668153
0.00667758
0.00667632
0.0066729
0.00667382
0.00667181
0.00667618
0.00667648
0.00668376
0.00668553
0.00667265
0.00663771
0.00655869
0.00640456
0.0061397
0.00571183
0.00510278
0.00440901
0.00367724
0.00294474
0.00223867
0.00158257
0.00102312
0.000614742
0.000366326
0.000251765
0.000190761
0.000131042
8.61375e-05
0.00670079
0.00670591
0.00669652
0.00669192
0.00668836
0.00668416
0.00668146
0.00667758
0.00667619
0.00667281
0.00667363
0.00667161
0.00667615
0.00667713
0.00668705
0.00669618
0.0066975
0.00669091
0.006665
0.00659238
0.00644699
0.00619118
0.00577262
0.00516977
0.00447935
0.0037461
0.00300726
0.00229134
0.00162325
0.00105065
0.000633066
0.000375467
0.000252939
0.000188918
0.000129697
8.73008e-05
0.00669651
0.00670082
0.00670591
0.00669194
0.00668833
0.00668418
0.0066814
0.0066776
0.00667606
0.00667276
0.00667344
0.0066714
0.00667597
0.00667713
0.00668807
0.00670042
0.00670919
0.00671801
0.00672346
0.00670367
0.00664105
0.00650562
0.00626063
0.00585043
0.00525314
0.00456332
0.00382584
0.00307864
0.00235017
0.00166785
0.00108436
0.000654932
0.000385003
0.000254298
0.000187044
0.000128478
8.84242e-05
0.00669195
0.00669651
0.00670087
0.0067059
0.0066883
0.0066842
0.00668133
0.00667762
0.00667594
0.00667274
0.00667325
0.00667124
0.00667575
0.00667691
0.00668824
0.00670189
0.00671404
0.00673112
0.00675405
0.00676606
0.00675767
0.00670648
0.0065832
0.00634864
0.00594692
0.00535238
0.00466111
0.00391707
0.00315812
0.00241512
0.00172194
0.00112487
0.000677874
0.000395116
0.000255692
0.000185168
0.000127254
8.95019e-05
0.00668828
0.006692
0.00669654
0.00670092
0.0067059
0.00668422
0.00668128
0.00667764
0.00667583
0.00667274
0.00667306
0.00667112
0.00667551
0.00667664
0.00668812
0.00670229
0.00671587
0.00673688
0.00676951
0.00679968
0.0068244
0.00682842
0.00679151
0.00668139
0.0064584
0.00606232
0.00546904
0.00477296
0.00401865
0.00324617
0.00249358
0.00178773
0.00116852
0.000702136
0.000405701
0.000257307
0.000183365
0.00012608
9.05334e-05
0.00668424
0.00668829
0.00669209
0.00669657
0.00670097
0.0067059
0.00668123
0.00667766
0.00667572
0.00667275
0.00667287
0.00667104
0.00667528
0.00667638
0.0066879
0.00670227
0.00671649
0.0067393
0.00677683
0.00681723
0.00686129
0.00689954
0.0069196
0.00689719
0.00680138
0.00658933
0.00619915
0.00560316
0.00489853
0.00413185
0.00335252
0.00258876
0.00185852
0.00121569
0.000727304
0.000416892
0.000258942
0.000181723
0.000124952
9.15145e-05
0.00668118
0.00668431
0.00668833
0.00669218
0.0066966
0.00670102
0.00670589
0.00667768
0.00667562
0.00667277
0.00667268
0.00667102
0.00667503
0.00667615
0.00668768
0.0067021
0.00671663
0.00674033
0.00678028
0.00682611
0.00688191
0.00694056
0.00699586
0.00703075
0.00702486
0.00694321
0.00674233
0.00635504
0.00575615
0.00503886
0.00426813
0.00348175
0.00269131
0.00193395
0.00126515
0.000753544
0.000428201
0.00026077
0.000180148
0.000123882
9.24472e-05
0.00667771
0.00668118
0.00668443
0.00668838
0.00669227
0.00669663
0.00670107
0.00670589
0.00667553
0.0066728
0.0066725
0.00667102
0.00667476
0.00667598
0.00668746
0.00670189
0.00671659
0.00674078
0.00678205
0.00683093
0.00689354
0.00696518
0.00704326
0.00711605
0.00716942
0.00717683
0.00710628
0.00691443
0.00652966
0.00592487
0.00521164
0.00443698
0.00362208
0.00280083
0.00201362
0.00131653
0.000780311
0.000440048
0.000262627
0.000178716
0.000122883
9.33289e-05
0.00667545
0.00667779
0.00668122
0.00668455
0.00668843
0.00669236
0.00669667
0.00670112
0.00670589
0.00667284
0.00667232
0.00667106
0.00667449
0.00667588
0.00668724
0.00670167
0.00671648
0.006741
0.00678309
0.00683384
0.00690053
0.00698006
0.00707329
0.00717039
0.00726451
0.00733512
0.00735918
0.00729694
0.00710684
0.00672055
0.00612829
0.00542048
0.00461958
0.00377201
0.00291684
0.00209681
0.00136959
0.000807917
0.000451801
0.000264607
0.000177347
0.000121938
9.41624e-05
0.00667287
0.00667541
0.00667794
0.00668127
0.00668468
0.00668849
0.00669245
0.00669671
0.00670116
0.0067059
0.00667216
0.00667111
0.0066742
0.00667585
0.00668702
0.00670146
0.00671634
0.00674111
0.00678379
0.00683589
0.00690531
0.00698993
0.00709337
0.0072073
0.00732839
0.00744187
0.00753215
0.00756914
0.00751643
0.00732575
0.00695088
0.00636959
0.00564229
0.00481248
0.00392957
0.0030376
0.00218291
0.00142423
0.000835738
0.000464061
0.000266654
0.000176113
0.000121071
9.49471e-05
0.00667202
0.00667296
0.0066754
0.00667809
0.00668133
0.00668481
0.00668856
0.00669254
0.00669675
0.00670121
0.0067059
0.00667118
0.0066739
0.00667589
0.00668677
0.00670126
0.00671621
0.00674117
0.0067843
0.00683752
0.00690898
0.00699737
0.00710804
0.00723396
0.00737519
0.0075179
0.00765419
0.00776017
0.00780983
0.00776253
0.00759697
0.00723916
0.00662917
0.00587225
0.0050112
0.0040921
0.00316264
0.00227139
0.00147988
0.00086417
0.000475946
0.00026897
0.000174965
0.000120253
9.56856e-05
0.00667124
0.00667187
0.0066731
0.00667541
0.00667824
0.00668139
0.00668493
0.00668863
0.00669263
0.0066968
0.00670125
0.00670591
0.00667362
0.006676
0.00668648
0.00670109
0.00671608
0.00674121
0.00678472
0.0068389
0.00691199
0.00700354
0.00711987
0.00725477
0.00741198
0.00757751
0.00774653
0.00790113
0.00802343
0.00808153
0.00806627
0.00793095
0.00755512
0.00691082
0.00611227
0.00521444
0.00425854
0.00328993
0.00236136
0.00153635
0.000892512
0.00048756
0.000271213
0.000173922
0.000119511
9.6379e-05
0.00667335
0.00667132
0.0066717
0.00667325
0.00667542
0.00667839
0.00668147
0.00668505
0.0066887
0.00669272
0.00669685
0.0067013
0.00670592
0.00667615
0.00668614
0.00670094
0.00671598
0.00674125
0.00678509
0.00684011
0.00691459
0.00700893
0.00712998
0.00727238
0.00744272
0.00762729
0.00782375
0.00801408
0.00818888
0.00832251
0.00841926
0.00844328
0.00829615
0.00789275
0.00720952
0.00636503
0.00541865
0.00442476
0.00341809
0.00245218
0.00159318
0.00092143
0.000498928
0.000273665
0.000172973
0.000118814
9.70289e-05
0.00667634
0.00667291
0.00667141
0.00667155
0.0066734
0.00667546
0.00667853
0.00668155
0.00668518
0.00668879
0.00669281
0.00669691
0.00670134
0.00670593
0.00668573
0.00670083
0.0067159
0.0067413
0.00678542
0.00684117
0.00691687
0.00701376
0.00713889
0.00728807
0.00746982
0.00767037
0.00789211
0.0081143
0.00832911
0.0085181
0.00869743
0.00884238
0.00885892
0.00868957
0.00824935
0.00751984
0.00662813
0.00562999
0.0045911
0.00354638
0.00254315
0.00165005
0.000950637
0.000510058
0.000276064
0.000172105
0.000118183
9.76384e-05
0.00668527
0.0066764
0.00667229
0.00667151
0.00667142
0.00667355
0.00667551
0.00667867
0.00668165
0.00668529
0.00668888
0.00669289
0.00669696
0.00670138
0.00670593
0.0067008
0.00671587
0.00674136
0.00678572
0.00684213
0.0069189
0.00701812
0.00714686
0.00730237
0.00749435
0.0077092
0.00795416
0.00820739
0.00845973
0.00869233
0.00893541
0.00917285
0.00931405
0.00931108
0.0091087
0.00862228
0.00783961
0.00689575
0.00584565
0.00475647
0.00367343
0.00263348
0.0017067
0.000979558
0.000520952
0.000278397
0.000171316
0.000117595
9.82077e-05
0.00670087
0.00668401
0.00667639
0.00667166
0.0066716
0.00667132
0.00667368
0.00667559
0.0066788
0.00668177
0.00668541
0.00668898
0.00669298
0.00669703
0.00670142
0.00670595
0.00671587
0.00674144
0.006786
0.00684297
0.00692071
0.00702204
0.00715402
0.00731551
0.0075167
0.00774507
0.00801209
0.00829389
0.00858517
0.0088625
0.00915985
0.00947247
0.00971027
0.00983445
0.00979928
0.0095522
0.00900946
0.0081666
0.00716614
0.00606361
0.00492167
0.00379821
0.00272261
0.00176278
0.00100823
0.000531587
0.000280744
0.000170596
0.000117061
9.87411e-05
0.0067159
0.00670043
0.00668177
0.00667644
0.00667108
0.00667168
0.00667127
0.00667379
0.00667569
0.00667892
0.0066819
0.00668552
0.00668909
0.00669306
0.00669709
0.00670145
0.00670596
0.00674154
0.00678623
0.00684371
0.00692233
0.00702557
0.00716049
0.00732758
0.00753712
0.0077786
0.0080666
0.00837499
0.00870486
0.00903398
0.00939046
0.00977059
0.0100903
0.0103161
0.0104091
0.0103264
0.0100204
0.00940964
0.00849909
0.00743789
0.00628148
0.00508737
0.00392069
0.00281015
0.00181801
0.00103653
0.000541967
0.000283072
0.000169942
0.000116569
9.92381e-05
0.00674166
0.00671483
0.00669957
0.00667949
0.00667645
0.00667059
0.0066717
0.00667127
0.00667388
0.00667582
0.00667904
0.00668203
0.00668563
0.0066892
0.00669314
0.00669715
0.00670149
0.00670597
0.00678641
0.00684435
0.00692378
0.00702874
0.00716635
0.00733862
0.00755577
0.00781002
0.00811764
0.00845153
0.0088211
0.00920461
0.00962924
0.0100892
0.0104923
0.0108126
0.0110107
0.0110508
0.0108985
0.0105149
0.00982227
0.0088358
0.00770975
0.00649728
0.00525214
0.0040406
0.00289575
0.00187218
0.00106435
0.000552071
0.000285357
0.000169348
0.000116116
9.97035e-05
0.00678656
0.00673982
0.00671255
0.00669875
0.00667748
0.00667633
0.00667023
0.00667167
0.00667133
0.00667395
0.00667597
0.00667916
0.00668218
0.00668574
0.0066893
0.00669321
0.0066972
0.00670152
0.00670598
0.00684491
0.00692508
0.00703159
0.00717165
0.00734868
0.00757283
0.00783936
0.00816512
0.00852424
0.00893505
0.0093732
0.00986562
0.0104334
0.0109582
0.011388
0.0116873
0.0118225
0.0117734
0.0115209
0.011037
0.0102469
0.00917571
0.00798065
0.00671029
0.0054149
0.00415783
0.00297926
0.0019251
0.00109157
0.0005619
0.000287589
0.000168807
0.000115705
0.000100136
0.00684543
0.00678342
0.00673583
0.00671021
0.00669772
0.00667606
0.00667599
0.00667003
0.00667157
0.00667145
0.00667401
0.00667614
0.00667927
0.00668233
0.00668585
0.0066894
0.00669329
0.00669726
0.00670156
0.00670599
0.00692624
0.00703415
0.00717646
0.00735783
0.00758843
0.0078666
0.00820911
0.00859364
0.00904603
0.00953693
0.0100985
0.0108052
0.0115227
0.0121222
0.0125341
0.0127504
0.0127648
0.0125802
0.0121934
0.0115857
0.0106822
0.00951771
0.00824964
0.00691987
0.0055748
0.0042718
0.0030602
0.00197655
0.00111815
0.00057143
0.000289763
0.000168313
0.000115322
0.000100489
0.00692734
0.00684127
0.00677671
0.00673185
0.00670786
0.00669601
0.0066752
0.00667541
0.00666999
0.00667142
0.00667161
0.00667405
0.00667632
0.00667938
0.00668248
0.00668596
0.0066895
0.00669336
0.00669731
0.00670159
0.006706
0.00703643
0.0071808
0.00736612
0.00760268
0.00789176
0.0082498
0.00865985
0.00915241
0.00969386
0.0103345
0.0112235
0.0121953
0.0130541
0.0136353
0.0139279
0.0139811
0.013817
0.0134565
0.0129073
0.0121562
0.0111261
0.00986046
0.00851583
0.00712545
0.00573127
0.00438303
0.0031383
0.00202642
0.00114396
0.000580664
0.000291874
0.000167845
0.000115023
0.000100785
0.00703855
0.00692157
0.00683195
0.00676992
0.00672803
0.00670556
0.00669388
0.00667482
0.00667462
0.00667009
0.00667122
0.00667181
0.0066741
0.00667651
0.0066795
0.00668261
0.00668606
0.0066896
0.00669343
0.00669736
0.00670162
0.00670601
0.00718471
0.00737361
0.00761568
0.00791487
0.00828741
0.00872261
0.00925278
0.00984468
0.0105828
0.0116983
0.0129627
0.0141135
0.0149473
0.0153752
0.0154624
0.0153014
0.0149284
0.0143725
0.0136464
0.0127405
0.0115748
0.0102023
0.00877834
0.00732652
0.00588352
0.00449175
0.00321357
0.00207457
0.001169
0.000589584
0.000293916
0.000167493
0.000114765
0.000101106
0.00718831
0.00703077
0.00690818
0.00682274
0.00676329
0.00672448
0.00670325
0.00669128
0.00667483
0.0066737
0.00667027
0.00667102
0.00667202
0.00667417
0.00667668
0.00667962
0.00668275
0.00668617
0.00668969
0.00669351
0.00669741
0.00670165
0.00670601
0.00738035
0.0076275
0.00793601
0.00832215
0.00878157
0.00934656
0.00999178
0.0108486
0.012219
0.0137761
0.0151951
0.0162722
0.0169237
0.0171319
0.0169932
0.0166166
0.0160397
0.0152929
0.0143916
0.0133291
0.0120241
0.0105414
0.0090363
0.0075226
0.00603099
0.00459748
0.00328604
0.002121
0.00119316
0.000598191
0.000295638
0.000167197
0.000114503
0.000101452
0.00738646
0.00717786
0.00701183
0.00689485
0.00681393
0.00675697
0.00672114
0.00670137
0.00668822
0.00667509
0.00667272
0.00667049
0.00667085
0.00667221
0.00667425
0.00667684
0.00667975
0.00668287
0.00668628
0.00668977
0.00669358
0.00669746
0.00670168
0.00670602
0.00763822
0.00795526
0.00835415
0.00883641
0.00943399
0.0101375
0.0111302
0.0127603
0.0145738
0.0161999
0.0174597
0.0183076
0.0187342
0.0187384
0.0184076
0.0178501
0.0170997
0.0161852
0.0151235
0.013912
0.0124701
0.0108761
0.00928887
0.00771331
0.00617354
0.00469991
0.0033557
0.00216559
0.0012165
0.000605415
0.00029712
0.000166888
0.000114207
0.000101827
0.00764792
0.00737292
0.0071513
0.00699291
0.00688195
0.00680542
0.00675099
0.00671795
0.00670005
0.00668501
0.00667544
0.00667179
0.00667069
0.00667073
0.00667238
0.00667435
0.00667699
0.00667988
0.00668299
0.00668638
0.00668986
0.00669364
0.00669751
0.0067017
0.00670602
0.00797273
0.00838351
0.00888703
0.00951584
0.010283
0.0114202
0.0132932
0.0153061
0.0170655
0.0184334
0.0194102
0.020018
0.0202569
0.0201119
0.019645
0.0189564
0.0180743
0.0170249
0.015826
0.0144796
0.012908
0.0112049
0.00953557
0.00789833
0.00631105
0.00479879
0.00342255
0.00220847
0.00123602
0.000611626
0.000298769
0.000166556
0.000113914
0.000102232
0.00798839
0.0076304
0.00733632
0.00712478
0.00697452
0.00686945
0.00679714
0.00674523
0.00671493
0.00669895
0.00668188
0.00667572
0.00667102
0.00667081
0.00667069
0.00667251
0.00667448
0.00667712
0.00668001
0.0066831
0.00668649
0.00668994
0.00669371
0.00669753
0.0067017
0.00670602
0.00841033
0.0089335
0.0095929
0.0104278
0.0117086
0.0137945
0.0159455
0.0177696
0.0191775
0.0202141
0.0209336
0.0213573
0.0214692
0.0212347
0.0206876
0.0199172
0.018946
0.0177966
0.0164871
0.0150237
0.0133335
0.0115259
0.00977606
0.00807744
0.00644352
0.00489406
0.00348668
0.00224408
0.00125279
0.000618513
0.000300593
0.000166209
0.000113579
0.000102671
0.00843436
0.00796635
0.00758031
0.00729973
0.00709896
0.00695663
0.00685728
0.00678903
0.00673969
0.00671211
0.00669791
0.00667907
0.00667576
0.00667048
0.00667084
0.00667072
0.00667262
0.00667462
0.00667724
0.00668015
0.0066832
0.00668659
0.00669001
0.00669375
0.00669753
0.0067017
0.00670602
0.00897606
0.0096658
0.0105702
0.0119861
0.0142498
0.0164834
0.0183177
0.0197125
0.020752
0.0215178
0.0220528
0.0223576
0.0223983
0.0221238
0.0215428
0.0207331
0.0197107
0.018494
0.0171002
0.0155392
0.013743
0.0118372
0.0100097
0.00825102
0.00657096
0.0049855
0.00353985
0.00227464
0.00127136
0.000626151
0.000302642
0.00016585
0.000113252
0.000103145
0.00901401
0.00840637
0.00789876
0.00753027
0.00726402
0.0070738
0.00693921
0.00684541
0.006781
0.00673454
0.00670938
0.00669678
0.00667699
0.00667547
0.00667019
0.00667079
0.00667081
0.0066727
0.00667477
0.00667736
0.00668029
0.0066833
0.00668669
0.00669005
0.00669375
0.00669753
0.0067017
0.00670602
0.00973493
0.0107081
0.0122453
0.0146529
0.016924
0.0187293
0.0200742
0.0210747
0.0218352
0.0224168
0.0228368
0.023076
0.0230879
0.0228102
0.0222304
0.0214145
0.0203722
0.0191165
0.0176626
0.0160228
0.0141341
0.0121375
0.010236
0.00841907
0.00669361
0.00506219
0.00358553
0.00230838
0.00129196
0.000634673
0.000304905
0.000165463
0.000112878
0.000103659
0.00979816
0.00897913
0.00831514
0.00783111
0.00748139
0.00722919
0.00704928
0.00692224
0.00683381
0.00677304
0.00672975
0.00670662
0.00669511
0.00667583
0.00667489
0.0066701
0.00667068
0.00667095
0.00667277
0.00667493
0.00667746
0.00668042
0.0066834
0.00668674
0.00669005
0.00669375
0.00669753
0.0067017
0.00670602
0.0108396
0.0124855
0.0150038
0.017278
0.0190288
0.0203003
0.0212341
0.0219518
0.0225298
0.023
0.0233577
0.02357
0.0235828
0.0233276
0.0227741
0.0219769
0.0209389
0.0196673
0.0181744
0.0164734
0.0145055
0.0124259
0.0104544
0.00858203
0.00679776
0.00512799
0.00363598
0.00234572
0.00131485
0.000644155
0.000307483
0.000165074
0.000112516
0.000104214
0.0109579
0.00975412
0.00885492
0.00822411
0.00776488
0.00743366
0.00719519
0.00702539
0.0069057
0.00682248
0.00676518
0.00672517
0.00670387
0.00669272
0.00667537
0.00667411
0.00667014
0.00667054
0.0066711
0.00667283
0.0066751
0.00667757
0.00668056
0.00668345
0.00668675
0.00669005
0.00669375
0.00669753
0.0067017
0.00670601
0.012707
0.0153038
0.0175584
0.0192397
0.0204248
0.021275
0.0219249
0.0224628
0.0229334
0.023345
0.0236771
0.0238887
0.0239227
0.0237073
0.0231973
0.0224366
0.0214211
0.020152
0.0186376
0.0168909
0.0148568
0.0127024
0.0106654
0.00871926
0.006887
0.00520059
0.00369183
0.00238711
0.00134036
0.000654828
0.000310327
0.000164662
0.000112109
0.000104815
0.0109087
0.0129012
0.00957168
0.00873319
0.00813477
0.00770017
0.00738704
0.00716204
0.00700212
0.00688961
0.0068115
0.0067575
0.0067209
0.0067013
0.00668971
0.00667535
0.00667326
0.00667026
0.0066704
0.00667128
0.00667289
0.00667526
0.00667767
0.00668063
0.00668344
0.00668675
0.00669005
0.00669375
0.00669753
0.00670168
0.00670601
0.0155564
0.0177783
0.0193825
0.0204754
0.0212332
0.0217999
0.0222727
0.0227071
0.0231231
0.023512
0.0238431
0.0240717
0.0241406
0.0239763
0.0235214
0.0228093
0.0218296
0.020577
0.0190554
0.0172767
0.0151881
0.0129672
0.0108421
0.0088366
0.00698531
0.00528111
0.00375377
0.00243312
0.00136885
0.000666675
0.000313608
0.000164236
0.000111711
0.000105465
0.0106321
0.0128465
0.0157648
0.00939731
0.00861457
0.00804722
0.00763692
0.00734152
0.00712975
0.00697951
0.00687404
0.00680103
0.00675009
0.00671713
0.00669961
0.00668654
0.00667552
0.00667243
0.0066704
0.00667028
0.00667145
0.00667295
0.00667542
0.0066777
0.00668064
0.00668343
0.00668675
0.00669005
0.00669375
0.00669751
0.00670165
0.006706
0.0179494
0.0194742
0.0204737
0.0211358
0.0216109
0.0220026
0.0223748
0.0227584
0.0231557
0.0235457
0.0238924
0.0241501
0.024263
0.0241574
0.0237647
0.0231094
0.0221747
0.0209491
0.0194318
0.0176324
0.0154999
0.0131863
0.0109926
0.00896558
0.00709375
0.00537055
0.00382265
0.00248438
0.00140079
0.000680204
0.000317238
0.000163841
0.000111283
0.000106166
0.0103581
0.0124674
0.0156845
0.0180806
0.00923287
0.00849818
0.00796156
0.00757514
0.00729714
0.00709836
0.00695761
0.00685905
0.00679122
0.00674336
0.00671377
0.00669836
0.00668351
0.00667572
0.00667169
0.00667054
0.00667018
0.00667161
0.00667302
0.00667552
0.00667768
0.00668065
0.00668343
0.00668675
0.00669005
0.00669371
0.00669746
0.00670162
0.00670599
0.0195282
0.0204362
0.0210031
0.0213833
0.0216845
0.0219768
0.0223007
0.0226694
0.0230717
0.0234789
0.0238524
0.0241478
0.0243114
0.024269
0.023943
0.0233493
0.0224657
0.0212748
0.0197705
0.0179598
0.0157532
0.0133712
0.011157
0.00910758
0.00721353
0.00547004
0.0038994
0.00254167
0.00143667
0.000695503
0.000321377
0.000163502
0.000110856
0.000106925
0.0101009
0.0120508
0.0153339
0.017965
0.0195485
0.00907556
0.00838373
0.00787787
0.00751486
0.00725399
0.00706793
0.00693648
0.00684481
0.00678212
0.00673723
0.00671082
0.00669728
0.00668082
0.00667581
0.0066711
0.00667064
0.00667011
0.00667178
0.00667302
0.00667554
0.00667767
0.00668064
0.00668344
0.00668674
0.00669001
0.00669364
0.00669741
0.00670159
0.00670598
0.0203751
0.0208495
0.0211348
0.0213411
0.0215425
0.0217873
0.0220989
0.0224768
0.0229001
0.0233353
0.0237439
0.0240836
0.0243025
0.0243263
0.0240691
0.0235397
0.022711
0.0215599
0.0200751
0.0182199
0.0159646
0.0135716
0.011337
0.00926408
0.00734611
0.00558091
0.00398522
0.00260568
0.00147715
0.000713026
0.000325879
0.000163156
0.000110433
0.000107741
0.00986138
0.0116342
0.0148945
0.0177241
0.0193813
0.0202903
0.00892308
0.00827137
0.00779627
0.00745617
0.00721214
0.00703854
0.00691632
0.00683161
0.0067737
0.00673173
0.00670818
0.00669625
0.00667863
0.00667573
0.00667064
0.00667071
0.00667007
0.00667188
0.00667298
0.00667555
0.00667767
0.00668064
0.00668345
0.00668669
0.00668993
0.00669357
0.00669736
0.00670156
0.00670597
0.0206857
0.0208784
0.0209889
0.0210933
0.0212457
0.0214787
0.0218026
0.0222062
0.0226613
0.0231323
0.0235825
0.0239719
0.0242499
0.0243414
0.0241538
0.0236897
0.0229178
0.0218097
0.0203116
0.0184341
0.0161905
0.0137884
0.0115338
0.00943669
0.00749317
0.00570469
0.00408197
0.00267752
0.00152292
0.000733085
0.000331084
0.000162817
0.000109988
0.000108624
0.00963665
0.0112343
0.0143982
0.0174066
0.0192166
0.0200711
0.020507
0.00877438
0.00816139
0.0077169
0.00739921
0.00717171
0.00701045
0.00689762
0.00681954
0.00676592
0.0067269
0.00670571
0.00669512
0.00667719
0.00667547
0.00667032
0.00667077
0.00667002
0.00667191
0.00667297
0.00667555
0.00667768
0.00668063
0.0066834
0.00668659
0.00668985
0.0066935
0.00669731
0.00670152
0.00670596
0.020623
0.0206393
0.0206443
0.0206965
0.0208352
0.0210817
0.0214354
0.0218756
0.0223698
0.022883
0.0233806
0.0238244
0.0241641
0.024324
0.0242057
0.0238066
0.023092
0.0219981
0.0205038
0.0186595
0.0164315
0.0140229
0.0117491
0.00962715
0.00765672
0.00584291
0.00419127
0.00275849
0.00157499
0.000756325
0.000336866
0.000162619
0.000109609
0.000109571
0.00942407
0.0108576
0.0138697
0.0170354
0.0189882
0.019942
0.0202369
0.0203588
0.00862923
0.00805412
0.00763995
0.00734411
0.00713307
0.0069844
0.00688058
0.00680849
0.00675871
0.0067227
0.00670334
0.00669335
0.00667633
0.00667506
0.00667011
0.00667079
0.00666997
0.00667192
0.00667296
0.00667554
0.0066777
0.00668055
0.0066833
0.00668648
0.00668977
0.00669343
0.00669726
0.00670149
0.00670595
0.0203002
0.0202064
0.0201543
0.0201888
0.0203397
0.0206182
0.0210132
0.0214974
0.0220364
0.0225973
0.0231478
0.0236502
0.0240537
0.024282
0.0242318
0.0238966
0.0232175
0.0221491
0.020703
0.0188962
0.0166882
0.014276
0.0119843
0.00983708
0.00783898
0.0059976
0.00431503
0.00285022
0.00163441
0.000783171
0.000343598
0.000162487
0.000109181
0.000110776
0.00922169
0.0105067
0.0133214
0.0166176
0.0187208
0.0197617
0.0201149
0.0200382
0.0199562
0.00848777
0.00794992
0.00756563
0.00729143
0.00709723
0.00696069
0.00686505
0.00679838
0.00675197
0.00671895
0.00670121
0.00669113
0.00667586
0.00667461
0.00667002
0.00667078
0.00666995
0.00667192
0.00667298
0.00667551
0.00667766
0.00668042
0.0066832
0.00668638
0.00668968
0.00669336
0.0066972
0.00670145
0.00670593
0.0197866
0.0196299
0.0195542
0.0195969
0.01978
0.020103
0.0205469
0.0210801
0.0216689
0.0222831
0.022892
0.0234567
0.0239254
0.0242215
0.024238
0.0239538
0.023316
0.0223023
0.0209084
0.0191437
0.0169606
0.0145486
0.0122409
0.0100684
0.00804211
0.00617109
0.00445548
0.00295457
0.00170265
0.000814756
0.000351235
0.000162452
0.000108851
0.000112211
0.00902816
0.0101827
0.0127609
0.0161541
0.0184249
0.0195566
0.01995
0.0199063
0.0195851
0.019372
0.00835019
0.00784925
0.00749461
0.00724257
0.00706465
0.00693911
0.00685089
0.00678918
0.00674572
0.00671572
0.00669955
0.00668874
0.00667561
0.00667425
0.00667004
0.00667077
0.00666995
0.0066719
0.00667302
0.00667542
0.00667756
0.00668028
0.00668309
0.00668627
0.00668959
0.00669329
0.00669714
0.00670142
0.00670593
0.0191304
0.0189426
0.018869
0.0189418
0.01917
0.0195458
0.0200438
0.0206295
0.0212734
0.0219472
0.0226198
0.02325
0.0237848
0.0241477
0.0242277
0.0239959
0.0234123
0.0224568
0.0211193
0.0194016
0.0172487
0.0148414
0.0125203
0.010323
0.00826844
0.00636598
0.00461518
0.00307399
0.00178151
0.00085158
0.00036039
0.000162679