/*--------------------------------*- C++ -*----------------------------------*\
  =========                 |
  \\      /  F ield         | OpenFOAM: The Open Source CFD Toolbox
   \\    /   O peration     | Website:  https://openfoam.org
    \\  /    A nd           | Version:  8
     \\/     M anipulation  |
\*---------------------------------------------------------------------------*/
FoamFile
{
    version     2.0;
    format      ascii;
    class       surfaceScalarField;
    location    "500";
    object      phi;
}
// * * * * * * * * * * * * * * * * * * * * * * * * * * * * * * * * * * * * * //

dimensions      [0 3 -1 0 0 0 0];

internalField   nonuniform List<scalar> 
31053
(
1.74478e-06
1.16352e-05
1.36356e-06
1.57612e-05
9.62956e-07
1.06723e-05
1.26615e-06
1.77374e-05
1.52635e-06
1.51978e-05
5.92484e-07
1.00798e-05
1.20166e-06
2.03045e-05
1.5095e-06
1.77543e-05
1.20878e-06
1.45815e-05
4.30778e-07
9.64897e-06
1.13092e-06
2.33107e-05
1.45112e-06
2.03629e-05
1.33644e-06
1.76266e-05
9.69784e-07
1.40425e-05
3.06036e-07
9.34293e-06
1.05736e-06
2.67336e-05
1.3977e-06
2.33642e-05
1.32592e-06
2.03734e-05
1.18583e-06
1.74105e-05
7.45656e-07
1.36029e-05
2.13003e-07
9.12991e-06
9.80417e-07
3.06969e-05
1.34151e-06
2.67897e-05
1.29482e-06
2.33952e-05
1.22157e-06
2.03376e-05
9.99931e-07
1.71563e-05
5.65566e-07
1.32503e-05
1.51367e-07
8.97853e-06
8.99852e-07
3.52206e-05
1.2802e-06
3.07583e-05
1.25779e-06
2.68268e-05
1.20767e-06
2.34091e-05
1.07166e-06
2.02659e-05
8.24799e-07
1.6897e-05
4.28471e-07
1.29732e-05
1.08802e-07
8.86971e-06
8.16048e-07
4.04038e-05
1.21329e-06
3.52875e-05
1.21637e-06
3.07997e-05
1.17926e-06
2.68552e-05
1.07494e-06
2.34059e-05
9.18517e-07
2.01722e-05
6.73045e-07
1.66524e-05
3.21604e-07
1.27604e-05
7.74744e-08
8.79222e-06
7.29802e-07
4.63662e-05
1.14056e-06
4.04765e-05
1.17002e-06
3.53338e-05
1.14402e-06
3.08349e-05
1.05496e-06
2.68752e-05
9.34197e-07
2.33902e-05
7.78771e-07
2.00664e-05
5.41155e-07
1.64329e-05
2.37635e-07
1.26002e-05
5.19312e-08
8.74027e-06
6.42383e-07
5.32274e-05
1.06198e-06
4.64448e-05
1.11775e-06
4.05288e-05
1.10328e-06
3.53745e-05
1.02422e-06
3.08656e-05
9.19827e-07
2.68895e-05
8.02112e-07
2.33668e-05
6.50469e-07
1.99571e-05
4.24159e-07
1.62463e-05
1.69072e-07
1.2483e-05
2.76661e-08
8.71258e-06
5.55581e-07
6.10668e-05
9.77842e-07
5.33116e-05
1.05861e-06
4.6504e-05
1.05674e-06
4.05753e-05
9.86238e-07
3.54125e-05
8.91004e-07
3.08945e-05
7.90157e-07
2.69015e-05
6.76403e-07
2.33409e-05
5.29755e-07
1.98515e-05
3.18498e-07
1.60969e-05
1.08877e-07
1.24018e-05
6.72026e-09
8.70586e-06
4.71322e-07
7.00663e-05
8.88894e-07
6.11557e-05
9.91883e-07
5.33783e-05
1.0036e-06
4.65571e-05
9.41803e-07
4.06198e-05
8.5291e-07
3.54506e-05
7.60358e-07
3.09243e-05
6.63396e-07
2.69145e-05
5.53879e-07
2.33168e-05
4.13732e-07
1.97563e-05
2.2172e-07
1.5984e-05
5.51007e-08
1.23534e-05
-1.08629e-08
8.7167e-06
3.91644e-07
8.04117e-05
7.96162e-07
7.0159e-05
9.17369e-07
6.12303e-05
9.42894e-07
5.3439e-05
8.90647e-07
4.66083e-05
8.07197e-07
4.06655e-05
7.19024e-07
3.54919e-05
6.29692e-07
3.0958e-05
5.364e-07
2.6932e-05
4.32048e-07
2.32984e-05
3.00679e-07
1.96773e-05
1.32155e-07
1.5907e-05
6.1671e-09
1.23364e-05
-2.78638e-08
8.74458e-06
3.30139e-07
7.62515e-05
7.00725e-07
8.05071e-05
8.35518e-07
7.02408e-05
8.73781e-07
6.12994e-05
8.32049e-07
5.34976e-05
7.5404e-07
4.66614e-05
6.68436e-07
4.07161e-05
5.82176e-07
3.55395e-05
4.95819e-07
3.09985e-05
4.06792e-07
2.69572e-05
3.09216e-07
2.32899e-05
1.89734e-07
1.96197e-05
4.80887e-08
1.58651e-05
-4.012e-08
1.23486e-05
-4.56861e-08
8.79025e-06
2.79425e-07
7.62407e-05
6.19507e-07
7.63327e-05
7.47369e-07
8.05953e-05
7.95821e-07
7.03188e-05
7.65179e-07
6.13662e-05
6.92971e-07
5.35586e-05
6.09159e-07
4.67207e-05
5.23495e-07
4.07747e-05
4.39201e-07
3.55961e-05
3.56329e-07
3.1049e-05
2.72967e-07
2.69934e-05
1.84696e-07
2.32949e-05
8.02578e-08
1.95875e-05
-3.24676e-08
1.58574e-05
-8.53052e-08
1.23882e-05
-6.39859e-08
8.85424e-06
2.37309e-07
7.62321e-05
5.46666e-07
7.63135e-05
6.69542e-07
7.64105e-05
7.09394e-07
8.06817e-05
6.89326e-07
7.03946e-05
6.23303e-07
6.14359e-05
5.40971e-07
5.36268e-05
4.54472e-07
4.67897e-05
3.69332e-07
4.08446e-05
2.8766e-07
3.56647e-05
2.0957e-07
3.11124e-05
1.34367e-07
2.70438e-05
5.79552e-08
2.33172e-05
-2.85752e-08
1.95837e-05
-1.10762e-07
1.58829e-05
-1.29751e-07
1.2454e-05
-8.23785e-08
8.93661e-06
2.02104e-07
7.62272e-05
4.81406e-07
7.62974e-05
5.97421e-07
7.63857e-05
6.31732e-07
7.64882e-05
6.04314e-07
8.07667e-05
5.44355e-07
7.04736e-05
4.63363e-07
6.15135e-05
3.75073e-07
5.37062e-05
2.87126e-07
4.68719e-05
2.03488e-07
4.09288e-05
1.25795e-07
3.57485e-05
5.49825e-08
3.11918e-05
-9.4899e-09
2.71112e-05
-7.14831e-08
2.33601e-05
-1.37119e-07
1.961e-05
-1.87177e-07
1.59403e-05
-1.73417e-07
1.2545e-05
-1.00491e-07
9.0371e-06
1.72494e-07
7.62196e-05
4.22955e-07
7.62857e-05
5.30869e-07
7.63639e-05
5.58751e-07
7.64586e-05
5.26835e-07
7.65657e-05
4.5586e-07
8.08552e-05
3.75785e-07
7.05612e-05
2.84972e-07
6.16036e-05
1.92648e-07
5.38007e-05
1.04675e-07
4.69707e-05
2.40877e-08
4.10305e-05
-4.70675e-08
3.58506e-05
-1.07857e-07
3.12901e-05
-1.58889e-07
2.71986e-05
-2.03563e-07
2.34266e-05
-2.44996e-07
1.96678e-05
-2.61751e-07
1.60286e-05
-2.15842e-07
1.26604e-05
-1.18117e-07
9.1552e-06
1.47443e-07
7.6215e-05
3.7062e-07
7.62719e-05
4.69655e-07
7.63469e-05
4.90678e-07
7.6432e-05
4.53286e-07
7.65322e-05
3.75085e-07
7.66465e-05
2.78076e-07
8.09529e-05
1.838e-07
7.06623e-05
8.56978e-08
6.17105e-05
-8.7299e-09
5.39141e-05
-9.48768e-08
4.70897e-05
-1.69673e-07
4.11531e-05
-2.31296e-07
3.5974e-05
-2.79005e-07
3.14102e-05
-3.13546e-07
2.73086e-05
-3.37415e-07
2.3519e-05
-3.515e-07
1.97576e-05
-3.34042e-07
1.61468e-05
-2.56882e-07
1.27992e-05
-1.34989e-07
9.2902e-06
1.26142e-07
7.62113e-05
3.23775e-07
7.62619e-05
4.13538e-07
7.63281e-05
4.27569e-07
7.641e-05
3.84241e-07
7.6501e-05
2.98346e-07
7.66089e-05
1.89302e-07
7.67352e-05
7.16265e-08
8.10651e-05
-3.39008e-08
7.07819e-05
-1.36851e-07
6.18387e-05
-2.31156e-07
5.40504e-05
-3.12451e-07
4.72324e-05
-3.78139e-07
4.12999e-05
-4.26721e-07
3.61217e-05
-4.579e-07
3.15546e-05
-4.72176e-07
2.74434e-05
-4.71673e-07
2.36392e-05
-4.55755e-07
1.98793e-05
-4.03695e-07
1.62936e-05
-2.96074e-07
1.29602e-05
-1.50868e-07
9.44105e-06
1.09396e-07
6.95987e-05
2.81877e-07
7.62532e-05
3.6228e-07
7.63131e-05
3.69392e-07
7.63862e-05
3.20044e-07
7.64742e-05
2.26405e-07
7.6573e-05
1.05345e-07
7.66929e-05
-2.96596e-08
7.68365e-05
-1.65772e-07
8.11969e-05
-2.79693e-07
7.09248e-05
-3.84872e-07
6.19924e-05
-4.75671e-07
5.42136e-05
-5.48393e-07
4.74027e-05
-6.00926e-07
4.14741e-05
-6.32522e-07
3.62963e-05
-6.42935e-07
3.17254e-05
-6.32931e-07
2.76046e-05
-6.04833e-07
2.37882e-05
-5.56688e-07
2.00323e-05
-4.70063e-07
1.64676e-05
-3.33038e-07
1.31424e-05
-1.65525e-07
9.60658e-06
9.61972e-08
6.25572e-05
2.476e-07
6.9633e-05
3.15635e-07
7.62998e-05
3.16066e-07
7.63665e-05
2.60896e-07
7.64454e-05
1.598e-07
7.65408e-05
2.71028e-08
7.66512e-05
-1.24852e-07
7.67881e-05
-2.84127e-07
7.69549e-05
-4.36542e-07
8.13538e-05
-5.55899e-07
7.10958e-05
-6.59516e-07
6.21762e-05
-7.42625e-07
5.44078e-05
-8.02099e-07
4.76039e-05
-8.3696e-07
4.16786e-05
-8.4676e-07
3.65001e-05
-8.31812e-07
3.19242e-05
-7.93817e-07
2.77936e-05
-7.35094e-07
2.39666e-05
-6.53178e-07
2.02154e-05
-5.32423e-07
1.6667e-05
-3.67156e-07
1.3344e-05
-1.78776e-07
9.78535e-06
8.56198e-08
5.62286e-05
2.19786e-07
6.2585e-05
2.76777e-07
6.96719e-05
2.67488e-07
7.63484e-05
2.06898e-07
7.64205e-05
9.88997e-08
7.65063e-05
-4.47223e-08
7.66126e-05
-2.12908e-07
7.67393e-05
-3.94672e-07
7.68986e-05
-5.7664e-07
7.7095e-05
-7.43164e-07
8.1541e-05
-8.63772e-07
7.13001e-05
-9.6115e-07
6.23947e-05
-1.03119e-06
5.46369e-05
-1.07226e-06
4.78392e-05
-1.08397e-06
4.19158e-05
-1.0667e-06
3.6735e-05
-1.02206e-06
3.21525e-05
-9.52476e-07
2.8011e-05
-8.60684e-07
2.41741e-05
-7.44047e-07
2.0427e-05
-5.90022e-07
1.68899e-05
-3.9804e-07
1.35633e-05
-1.90451e-07
9.97581e-06
7.70244e-08
5.05406e-05
1.97019e-07
5.62513e-05
2.44741e-07
6.2617e-05
2.27165e-07
6.97122e-05
1.58096e-07
7.63972e-05
4.39439e-08
7.64754e-05
-1.09606e-07
7.65712e-05
-2.92962e-07
7.66926e-05
-4.96197e-07
7.68408e-05
-7.06821e-07
7.70288e-05
-9.09862e-07
7.72617e-05
-1.087e-06
8.17643e-05
-1.20372e-06
7.15426e-05
-1.28874e-06
6.26523e-05
-1.33983e-06
5.49045e-05
-1.35624e-06
4.81114e-05
-1.33873e-06
4.21878e-05
-1.28935e-06
3.70023e-05
-1.21078e-06
3.24108e-05
-1.10656e-06
2.82569e-05
-9.79816e-07
2.44099e-05
-8.28171e-07
2.06652e-05
-6.4233e-07
1.71341e-05
-4.2537e-07
1.37982e-05
-2.00469e-07
1.01763e-05
6.99558e-08
4.54271e-05
1.78235e-07
5.05594e-05
2.18183e-07
5.62779e-05
1.94126e-07
6.26501e-05
1.18069e-07
6.97522e-05
-4.91517e-09
7.64461e-05
-1.67184e-07
7.6533e-05
-3.64324e-07
7.66425e-05
-5.8765e-07
7.67841e-05
-8.25662e-07
7.69596e-05
-1.06418e-06
7.71831e-05
-1.28528e-06
7.74599e-05
-1.46855e-06
8.20291e-05
-1.57451e-06
7.18284e-05
-1.6405e-06
6.29529e-05
-1.66553e-06
5.52138e-05
-1.65032e-06
4.8423e-05
-1.59776e-06
4.24962e-05
-1.51127e-06
3.73028e-05
-1.39506e-06
3.26993e-05
-1.25362e-06
2.85307e-05
-1.09085e-06
2.46726e-05
-9.04664e-07
2.09275e-05
-6.88711e-07
1.73975e-05
-4.48934e-07
1.40467e-05
-2.0873e-07
1.0385e-05
6.40837e-08
4.08319e-05
1.6262e-07
4.54427e-05
1.96049e-07
5.05815e-05
1.66947e-07
5.63051e-05
8.57664e-08
6.26824e-05
-4.41464e-08
6.97914e-05
-2.17205e-07
7.64961e-05
-4.26494e-07
7.65952e-05
-6.68161e-07
7.6723e-05
-9.31897e-07
7.68903e-05
-1.20443e-06
7.70999e-05
-1.46838e-06
7.73662e-05
-1.70351e-06
7.76949e-05
-1.88642e-06
8.2341e-05
-1.97414e-06
7.2162e-05
-2.01305e-06
6.33005e-05
-2.00405e-06
5.55675e-05
-1.95047e-06
4.87757e-05
-1.857e-06
4.28419e-05
-1.72894e-06
3.76367e-05
-1.57182e-06
3.30175e-05
-1.39151e-06
2.88313e-05
-1.19225e-06
2.49602e-05
-9.72693e-07
2.12115e-05
-7.28773e-07
1.76773e-05
-4.68524e-07
1.43065e-05
-2.15224e-07
1.06002e-05
5.91618e-08
3.67009e-05
1.49549e-07
4.08449e-05
1.77503e-07
4.54612e-05
1.44502e-07
5.0604e-05
5.96641e-08
5.63312e-05
-7.50001e-08
6.27132e-05
-2.56155e-07
6.98304e-05
-4.79108e-07
7.65487e-05
-7.3707e-07
7.66641e-05
-1.02444e-06
7.68156e-05
-1.32907e-06
7.7015e-05
-1.6343e-06
7.72658e-05
-1.9202e-06
7.75829e-05
-2.16306e-06
7.79715e-05
-2.33843e-06
8.27053e-05
-2.39889e-06
7.25479e-05
-2.40161e-06
6.3698e-05
-2.35078e-06
5.59678e-05
-2.25194e-06
4.91707e-05
-2.11221e-06
4.32252e-05
-1.93858e-06
3.80035e-05
-1.73837e-06
3.33643e-05
-1.51819e-06
2.91573e-05
-1.28288e-06
2.52704e-05
-1.03169e-06
2.15144e-05
-7.62257e-07
1.79711e-05
-4.84108e-07
1.45754e-05
-2.19931e-07
1.08201e-05
5.50051e-08
3.29902e-05
1.38537e-07
3.67119e-05
1.61885e-07
4.08606e-05
1.25891e-07
4.54798e-05
3.85357e-08
5.06251e-05
-9.91811e-08
5.63553e-05
-2.85626e-07
6.27427e-05
-5.18607e-07
6.98699e-05
-7.93884e-07
7.66055e-05
-1.10245e-06
7.67421e-05
-1.43679e-06
7.69233e-05
-1.78119e-06
7.71619e-05
-2.11625e-06
7.74618e-05
-2.41813e-06
7.78379e-05
-2.66174e-06
7.82948e-05
-2.82058e-06
8.3127e-05
-2.84337e-06
7.29896e-05
-2.80089e-06
6.41481e-05
-2.70015e-06
5.6416e-05
-2.54975e-06
4.96082e-05
-2.35895e-06
4.36456e-05
-2.13696e-06
3.8402e-05
-1.89214e-06
3.37383e-05
-1.63204e-06
2.95064e-05
-1.36192e-06
2.56006e-05
-1.08124e-06
2.18334e-05
-7.89097e-07
1.8276e-05
-4.95678e-07
1.48511e-05
-2.23022e-07
1.10432e-05
5.14705e-08
2.96515e-05
1.29205e-07
3.29995e-05
1.48668e-07
3.67251e-05
1.10394e-07
4.08761e-05
2.1397e-08
4.5497e-05
-1.18066e-07
5.0644e-05
-3.07636e-07
5.63774e-05
-5.47053e-07
6.27711e-05
-8.34916e-07
6.99109e-05
-1.16527e-06
7.66683e-05
-1.5265e-06
7.68318e-05
-1.90743e-06
7.70495e-05
-2.28945e-06
7.73351e-05
-2.64882e-06
7.76925e-05
-2.96004e-06
7.81362e-05
-3.19527e-06
7.86695e-05
-3.32678e-06
8.36104e-05
-3.30158e-06
7.34903e-05
-3.2045e-06
6.46525e-05
-3.04645e-06
5.69127e-05
-2.8387e-06
5.0088e-05
-2.59333e-06
4.4102e-05
-2.3209e-06
3.88308e-05
-2.03101e-06
3.41372e-05
-1.73185e-06
2.98764e-05
-1.42872e-06
2.59481e-05
-1.12124e-06
2.21655e-05
-8.09332e-07
1.85897e-05
-5.03469e-07
1.51315e-05
-2.24199e-07
1.12674e-05
4.84479e-08
2.6651e-05
1.21251e-07
2.96595e-05
1.37429e-07
3.30107e-05
9.74358e-08
3.67381e-05
7.46121e-09
4.089e-05
-1.32763e-07
4.55117e-05
-3.23812e-07
5.06601e-05
-5.669e-07
5.63972e-05
-8.62821e-07
6.2799e-05
-1.20897e-06
6.99546e-05
-1.59735e-06
7.67392e-05
-2.01167e-06
7.6936e-05
-2.43782e-06
7.71979e-05
-2.85253e-06
7.75388e-05
-3.23003e-06
7.79625e-05
-3.54145e-06
7.84824e-05
-3.75707e-06
7.90998e-05
-3.85048e-06
8.41593e-05
-3.76638e-06
7.40522e-05
-3.60599e-06
6.5212e-05
-3.38365e-06
5.74577e-05
-3.11422e-06
5.06088e-05
-2.81152e-06
4.45926e-05
-2.48775e-06
3.92876e-05
-2.15337e-06
3.45588e-05
-1.81672e-06
3.02644e-05
-1.48301e-06
2.63098e-05
-1.15174e-06
2.25079e-05
-8.23233e-07
1.89095e-05
-5.07223e-07
1.54146e-05
-2.77006e-07
1.15444e-05
4.58483e-08
2.39566e-05
1.1444e-07
2.66578e-05
1.27831e-07
2.96691e-05
8.65551e-08
3.30216e-05
-3.90094e-09
3.67495e-05
-1.44156e-07
4.09014e-05
-3.35462e-07
4.55233e-05
-5.80124e-07
5.06734e-05
-8.80612e-07
5.6415e-05
-1.23693e-06
6.2827e-05
-1.64506e-06
7.00023e-05
-2.09283e-06
7.68203e-05
-2.5597e-06
7.70579e-05
-3.02686e-06
7.73722e-05
-3.46862e-06
7.77774e-05
-3.85531e-06
7.82764e-05
-4.15546e-06
7.88808e-05
-4.34018e-06
7.95895e-05
-4.38372e-06
8.47766e-05
-4.23047e-06
7.46767e-05
-3.99834e-06
6.58267e-05
-3.70634e-06
5.80498e-05
-3.37164e-06
5.1169e-05
-3.01024e-06
4.51151e-05
-2.63544e-06
3.97696e-05
-2.25798e-06
3.5e-05
-1.88618e-06
3.06675e-05
-1.52487e-06
2.6683e-05
-1.17308e-06
2.28577e-05
-8.30726e-07
1.9233e-05
-6.27721e-07
1.57653e-05
-2.73575e-07
1.18179e-05
4.36033e-08
2.15342e-05
1.08577e-07
2.39625e-05
1.19601e-07
2.66661e-05
7.73799e-08
2.96783e-05
-1.3191e-08
3.30309e-05
-1.5295e-07
3.67583e-05
-3.4362e-07
4.09095e-05
-5.88306e-07
4.55315e-05
-8.90711e-07
5.06835e-05
-1.25285e-06
5.64309e-05
-1.67383e-06
6.28558e-05
-2.14608e-06
7.00556e-05
-2.65371e-06
7.69143e-05
-3.16975e-06
7.72008e-05
-3.67296e-06
7.75766e-05
-4.13322e-06
7.80553e-05
-4.51759e-06
7.86385e-05
-4.79483e-06
7.93355e-05
-4.93605e-06
8.01418e-05
-4.9183e-06
8.54645e-05
-4.68571e-06
7.5364e-05
-4.37521e-06
6.64956e-05
-4.00898e-06
5.86872e-05
-3.60702e-06
5.17657e-05
-3.1869e-06
4.56665e-05
-2.76235e-06
4.0274e-05
-2.34415e-06
3.5458e-05
-1.94025e-06
3.10829e-05
-1.55462e-06
2.70645e-05
-1.18538e-06
2.32124e-05
-1.02953e-06
1.96348e-05
-6.20544e-07
1.61122e-05
-2.67514e-07
1.20854e-05
4.16557e-08
1.93539e-05
1.03512e-07
2.15393e-05
1.12514e-07
2.39695e-05
6.96122e-08
2.66738e-05
-2.08102e-08
2.96859e-05
-1.59703e-07
3.30376e-05
-3.49109e-07
3.67637e-05
-5.92692e-07
4.09139e-05
-8.95055e-07
4.55358e-05
-1.25971e-06
5.06903e-05
-1.68819e-06
5.64453e-05
-2.17658e-06
6.28863e-05
-2.71431e-06
7.01162e-05
-3.27947e-06
7.70241e-05
-3.84054e-06
7.73683e-05
-4.3718e-06
7.78151e-05
-4.83924e-06
7.83769e-05
-5.20946e-06
7.90531e-05
-5.4505e-06
7.98499e-05
-5.53564e-06
8.07592e-05
-5.44492e-06
8.62237e-05
-5.12477e-06
7.61136e-05
-4.73007e-06
6.72167e-05
-4.28683e-06
5.9367e-05
-3.81718e-06
5.2396e-05
-3.33943e-06
4.62436e-05
-2.8675e-06
4.07973e-05
-2.41178e-06
3.59295e-05
-1.97918e-06
3.15075e-05
-1.57253e-06
2.74517e-05
-1.47093e-06
2.36538e-05
-1.01889e-06
2.00331e-05
-6.0778e-07
1.64525e-05
-2.59543e-07
1.2345e-05
1.73977e-05
3.99617e-08
9.91168e-08
1.93583e-05
1.0639e-07
2.15454e-05
6.30074e-08
2.39761e-05
-2.70777e-08
2.66801e-05
-1.64856e-07
2.9691e-05
-3.5257e-07
3.30411e-05
-5.94265e-07
3.67653e-05
-8.95163e-07
4.0914e-05
-1.25988e-06
4.5536e-05
-1.69178e-06
5.06939e-05
-2.18982e-06
5.64585e-05
-2.74771e-06
6.29197e-05
-3.34953e-06
7.01862e-05
-3.96921e-06
7.71527e-05
-4.56801e-06
7.75646e-05
-5.1164e-06
7.80923e-05
-5.5792e-06
7.87467e-05
-5.92147e-06
7.95241e-05
-6.11276e-06
8.0427e-05
-6.12872e-06
8.1443e-05
-5.95519e-06
8.70541e-05
-5.54005e-06
7.69236e-05
-5.05733e-06
6.79872e-05
-4.53605e-06
6.00858e-05
-3.99953e-06
5.30561e-05
-3.46654e-06
4.68427e-05
-2.95065e-06
4.13362e-05
-2.46105e-06
3.64114e-05
-2.00336e-06
3.19383e-05
-1.95329e-06
2.7934e-05
-1.45732e-06
2.40922e-05
-9.99312e-07
2.04246e-05
-5.90686e-07
1.67836e-05
-2.50135e-07
1.25951e-05
1.74015e-05
9.52871e-08
2.78129e-05
3.71037e-08
1.01081e-07
1.93636e-05
5.73707e-08
2.15511e-05
-3.22521e-08
2.39813e-05
-1.68759e-07
2.6684e-05
-3.54511e-07
2.9693e-05
-5.93786e-07
3.30406e-05
-8.92225e-07
3.67624e-05
-1.25522e-06
4.09094e-05
-1.68749e-06
4.55317e-05
-2.19021e-06
5.06943e-05
-2.76048e-06
5.64713e-05
-3.38727e-06
6.29574e-05
-4.05121e-06
7.02682e-05
-4.71922e-06
7.73039e-05
-5.34545e-06
7.77936e-05
-5.89941e-06
7.84125e-05
-6.34346e-06
7.91686e-05
-6.64346e-06
8.00548e-05
-6.77059e-06
8.10689e-05
-6.706e-06
8.21938e-05
-6.44034e-06
8.79544e-05
-5.92496e-06
7.77912e-05
-5.35233e-06
6.88034e-05
-4.75343e-06
6.08397e-05
-4.15239e-06
5.3742e-05
-3.5678e-06
4.74598e-05
-3.01186e-06
4.1887e-05
-2.49239e-06
3.69004e-05
-2.49034e-06
3.24753e-05
-1.93713e-06
2.84138e-05
-1.43095e-06
2.45239e-05
-9.72583e-07
2.08065e-05
-5.70263e-07
1.71038e-05
-2.39648e-07
1.28348e-05
1.74061e-05
9.64644e-08
2.78193e-05
8.88479e-08
2.85528e-05
3.43431e-08
5.25413e-08
1.93685e-05
-3.65371e-08
2.15554e-05
-1.71688e-07
2.39842e-05
-3.55321e-07
2.66848e-05
-5.91849e-07
2.9691e-05
-8.87158e-07
3.30356e-05
-1.24718e-06
3.67543e-05
-1.6776e-06
4.08995e-05
-2.18127e-06
4.55228e-05
-2.75793e-06
5.06917e-05
-3.40049e-06
5.64845e-05
-4.09512e-06
6.30013e-05
-4.81607e-06
7.03651e-05
-5.52316e-06
7.74816e-05
-6.16577e-06
7.806e-05
-6.7111e-06
7.87801e-05
-7.12153e-06
7.96467e-05
-7.36374e-06
8.06479e-05
-7.41392e-06
8.17768e-05
-7.25766e-06
8.30111e-05
-6.89263e-06
8.89221e-05
-6.27391e-06
7.87128e-05
-5.61114e-06
6.96612e-05
-4.93681e-06
6.16241e-05
-4.27508e-06
5.44492e-05
-3.64311e-06
4.80911e-05
-3.05161e-06
4.24462e-05
-3.10019e-06
3.75103e-05
-2.47191e-06
3.30101e-05
-1.90401e-06
2.88869e-05
-1.39426e-06
2.49455e-05
-9.40273e-07
2.11765e-05
-5.4732e-07
1.74114e-05
-2.2839e-07
1.30631e-05
1.74103e-05
4.83882e-08
2.78264e-05
8.93208e-08
2.8559e-05
8.25822e-08
2.93127e-05
3.16814e-08
-4.00988e-08
1.9372e-05
-1.73859e-07
2.15575e-05
-3.55308e-07
2.39842e-05
-5.88905e-07
2.66819e-05
-8.80672e-07
2.96845e-05
-1.23687e-06
3.30252e-05
-1.66388e-06
3.67406e-05
-2.16577e-06
4.0884e-05
-2.74431e-06
4.55091e-05
-3.3955e-06
5.06867e-05
-4.11005e-06
5.64994e-05
-4.86837e-06
6.30536e-05
-5.63818e-06
7.04801e-05
-6.37436e-06
7.76902e-05
-7.01933e-06
7.83682e-05
-7.54088e-06
7.91995e-05
-7.90127e-06
8.01843e-05
-8.07157e-06
8.13056e-05
-8.03193e-06
8.25511e-05
-7.77492e-06
8.38934e-05
-7.30544e-06
8.99536e-05
-6.58212e-06
7.96838e-05
-5.83104e-06
7.05554e-05
-5.08519e-06
6.24343e-05
-4.36731e-06
5.51734e-05
-3.69297e-06
4.87324e-05
-3.79799e-06
4.3144e-05
-3.07961e-06
3.8118e-05
-2.43194e-06
3.3538e-05
-1.85707e-06
2.93497e-05
-1.3494e-06
2.53547e-05
-9.03701e-07
2.15329e-05
-5.22592e-07
1.77056e-05
-2.16679e-07
1.32798e-05
1.74133e-05
-4.30692e-08
2.78318e-05
4.30572e-08
2.85659e-05
8.24226e-08
2.93187e-05
7.64976e-08
3.00906e-05
2.9121e-08
-1.75445e-07
1.93736e-05
-3.54703e-07
2.15569e-05
-5.85302e-07
2.39806e-05
-8.73298e-07
2.66745e-05
-1.22515e-06
2.96728e-05
-1.64768e-06
3.3009e-05
-2.14585e-06
3.67207e-05
-2.72292e-06
4.08626e-05
-3.37734e-06
4.5491e-05
-4.10342e-06
5.06801e-05
-4.88666e-06
5.65177e-05
-5.70157e-06
6.3117e-05
-6.51138e-06
7.06171e-05
-7.26345e-06
7.79343e-05
-7.89562e-06
7.87229e-05
-8.3763e-06
7.96745e-05
-8.6714e-06
8.07841e-05
-8.75527e-06
8.20289e-05
-8.61486e-06
8.3391e-05
-8.25013e-06
8.48381e-05
-7.67294e-06
9.10444e-05
-6.84617e-06
8.06989e-05
-6.01062e-06
7.14808e-05
-5.19807e-06
6.3265e-05
-4.42957e-06
5.591e-05
-4.599e-06
4.95334e-05
-3.77548e-06
4.38399e-05
-3.0324e-06
3.87184e-05
-2.37428e-06
3.40552e-05
-1.7991e-06
2.97994e-05
-1.29827e-06
2.57492e-05
-8.64073e-07
2.18744e-05
-4.96763e-07
1.79857e-05
-2.04764e-07
1.34846e-05
1.74144e-05
-1.76577e-07
2.78334e-05
-4.47255e-08
2.8571e-05
3.80076e-08
2.93254e-05
7.57636e-08
3.00965e-05
7.05965e-08
3.08905e-05
2.66612e-08
-3.5369e-07
1.93726e-05
-5.813e-07
2.15529e-05
-8.65441e-07
2.39728e-05
-1.21265e-06
2.6662e-05
-1.63002e-06
2.96552e-05
-2.12314e-06
3.29863e-05
-2.69636e-06
3.66941e-05
-3.34998e-06
4.08352e-05
-4.08117e-06
4.54687e-05
-4.87956e-06
5.0673e-05
-5.72535e-06
5.65415e-05
-6.58906e-06
6.31947e-05
-7.4267e-06
7.07804e-05
-8.18019e-06
7.82189e-05
-8.78211e-06
7.91287e-05
-9.20575e-06
8.02089e-05
-9.41951e-06
8.14483e-05
-9.40416e-06
8.28182e-05
-9.15406e-06
8.42949e-05
-8.67645e-06
8.58416e-05
-7.99077e-06
9.2189e-05
-7.06407e-06
8.17523e-05
-6.14906e-06
7.24318e-05
-5.27583e-06
6.41113e-05
-5.52011e-06
5.68311e-05
-4.57512e-06
5.03331e-05
-3.7206e-06
4.45281e-05
-2.96311e-06
3.93072e-05
-2.30235e-06
3.45585e-05
-1.73258e-06
3.02337e-05
-1.24259e-06
2.61278e-05
-8.22498e-07
2.22001e-05
-4.70379e-07
1.82513e-05
-1.92857e-07
1.36774e-05
1.74131e-05
-3.52404e-07
2.78296e-05
-1.72739e-07
2.85722e-05
-4.60013e-08
2.93301e-05
3.32573e-08
3.01029e-05
6.93595e-08
3.08962e-05
6.48859e-08
3.17104e-05
2.4301e-08
-5.77097e-07
1.93684e-05
-8.57399e-07
2.15449e-05
-1.19985e-06
2.396e-05
-1.61169e-06
2.66437e-05
-2.09889e-06
2.96309e-05
-2.6666e-06
3.29566e-05
-3.31651e-06
3.66606e-05
-4.04799e-06
4.0802e-05
-4.854e-06
4.54432e-05
-5.71942e-06
5.06671e-05
-6.62097e-06
5.65734e-05
-7.52239e-06
6.32904e-05
-8.37432e-06
7.09745e-05
-9.11218e-06
7.8549e-05
-9.66702e-06
7.959e-05
-1.00163e-05
8.08056e-05
-1.01342e-05
8.21783e-05
-1.00087e-05
8.36729e-05
-9.6417e-06
8.52602e-05
-9.04861e-06
8.68994e-05
-8.25625e-06
9.33812e-05
-7.23453e-06
8.28378e-05
-6.24655e-06
7.34025e-05
-6.5802e-06
6.51714e-05
-5.49597e-06
5.7752e-05
-4.51226e-06
5.11247e-05
-3.63859e-06
4.52036e-05
-2.87585e-06
3.98808e-05
-2.2193e-06
3.50452e-05
-1.65982e-06
3.06509e-05
-1.18395e-06
2.64892e-05
-7.79874e-07
2.25096e-05
-4.43905e-07
1.85024e-05
-1.8113e-07
1.38586e-05
1.74088e-05
-5.72835e-07
2.78184e-05
-3.4122e-07
2.85679e-05
-1.68404e-07
2.9331e-05
-4.69023e-08
3.01073e-05
2.88087e-08
3.09023e-05
6.3209e-08
3.17159e-05
5.93726e-08
3.25543e-05
2.20439e-08
-8.49391e-07
1.93604e-05
-1.1871e-06
2.15321e-05
-1.59325e-06
2.39415e-05
-2.07403e-06
2.66188e-05
-2.63515e-06
2.95995e-05
-3.2793e-06
3.29194e-05
-4.00755e-06
3.66202e-05
-4.81548e-06
4.07635e-05
-5.69176e-06
4.54155e-05
-6.61834e-06
5.06644e-05
-7.56562e-06
5.66166e-05
-8.4922e-06
6.34083e-05
-9.34212e-06
7.12044e-05
-1.00477e-05
7.89296e-05
-1.0537e-05
8.01108e-05
-1.07957e-05
8.14672e-05
-1.08049e-05
8.29745e-05
-1.05601e-05
8.45912e-05
-1.00717e-05
8.62833e-05
-9.36329e-06
8.80065e-05
-8.46752e-06
9.46142e-05
-7.35742e-06
8.39487e-05
-7.79882e-06
7.46212e-05
-6.55766e-06
6.62331e-05
-5.42513e-06
5.86649e-05
-4.41643e-06
5.19026e-05
-3.53435e-06
4.58621e-05
-2.77452e-06
4.0436e-05
-2.12804e-06
3.55134e-05
-1.58291e-06
3.10499e-05
-1.12365e-06
2.6833e-05
-7.36968e-07
2.28027e-05
-4.17731e-07
1.8739e-05
-1.69694e-07
1.40283e-05
1.7401e-05
-8.41571e-07
2.77978e-05
-5.52291e-07
2.8556e-05
-3.29352e-07
2.93262e-05
-1.63526e-07
3.01078e-05
-4.74044e-08
3.09065e-05
2.46626e-08
3.17218e-05
5.73169e-08
3.25596e-05
5.40486e-08
3.34202e-05
1.98856e-08
-1.17465e-06
1.93479e-05
-1.5751e-06
2.1514e-05
-2.04924e-06
2.39167e-05
-2.60311e-06
2.65868e-05
-3.24014e-06
2.95603e-05
-3.96266e-06
3.28745e-05
-4.7683e-06
3.6573e-05
-5.64876e-06
4.07205e-05
-6.59028e-06
4.53875e-05
-7.56897e-06
5.06678e-05
-8.55047e-06
5.66749e-05
-9.48684e-06
6.3553e-05
-1.03186e-05
7.14754e-05
-1.09732e-05
7.93658e-05
-1.13795e-05
8.06945e-05
-1.1533e-05
8.21952e-05
-1.14221e-05
8.38365e-05
-1.10512e-05
8.55708e-05
-1.04398e-05
8.73598e-05
-9.61801e-06
8.9157e-05
-8.62406e-06
9.58808e-05
-9.19761e-06
8.53475e-05
-7.78093e-06
7.58444e-05
-6.47932e-06
6.72872e-05
-5.31447e-06
5.95629e-05
-4.29339e-06
5.26616e-05
-3.41259e-06
4.65002e-05
-2.66271e-06
4.09706e-05
-2.03125e-06
3.59618e-05
-1.50361e-06
3.14298e-05
-1.0628e-06
2.71588e-05
-6.94438e-07
2.30794e-05
-3.92116e-07
1.89614e-05
-1.58656e-07
1.41869e-05
1.7389e-05
-1.16267e-06
2.77656e-05
-8.09318e-07
2.85346e-05
-5.30894e-07
2.93137e-05
-3.16841e-07
3.01025e-05
-1.58173e-07
3.09066e-05
-4.75281e-08
3.17256e-05
2.08226e-08
3.25652e-05
5.16824e-08
3.34253e-05
4.89244e-08
3.43061e-05
1.78243e-08
-1.55753e-06
1.93304e-05
-2.025e-06
2.14897e-05
-2.57131e-06
2.38849e-05
-3.20037e-06
2.6547e-05
-3.91546e-06
2.95131e-05
-4.71576e-06
3.28219e-05
-5.59541e-06
3.65197e-05
-6.54411e-06
4.06743e-05
-7.54274e-06
4.53612e-05
-8.56305e-06
5.06804e-05
-9.56438e-06
5.67524e-05
-1.04952e-05
6.37295e-05
-1.12903e-05
7.17925e-05
-1.18758e-05
7.98621e-05
-1.21826e-05
8.13442e-05
-1.22174e-05
8.29905e-05
-1.19776e-05
8.47629e-05
-1.14771e-05
8.66081e-05
-1.07429e-05
8.84847e-05
-9.8117e-06
9.03446e-05
-1.07996e-05
9.74828e-05
-9.18983e-06
8.67564e-05
-7.69669e-06
7.70618e-05
-6.35309e-06
6.83259e-05
-5.17068e-06
6.04402e-05
-4.14876e-06
5.33978e-05
-3.27767e-06
4.71151e-05
-2.54369e-06
4.14831e-05
-1.93113e-06
3.63893e-05
-1.42337e-06
3.17904e-05
-1.00235e-06
2.74667e-05
-6.52707e-07
2.334e-05
-3.67304e-07
1.917e-05
-1.48083e-07
1.4335e-05
1.73723e-05
-1.54075e-06
2.77192e-05
-1.11631e-06
2.85013e-05
-7.75999e-07
2.92913e-05
-5.0859e-07
3.00893e-05
-3.03634e-07
3.09007e-05
-1.52309e-07
3.17253e-05
-4.7264e-08
3.25687e-05
1.72891e-08
3.34307e-05
4.63105e-08
3.4311e-05
4.3995e-08
3.522e-05
1.58614e-08
-2.00166e-06
1.9307e-05
-2.54031e-06
2.14587e-05
-3.16097e-06
2.38455e-05
-3.86755e-06
2.64991e-05
-4.6604e-06
2.94577e-05
-5.53557e-06
3.27621e-05
-6.48557e-06
3.64611e-05
-7.49522e-06
4.06268e-05
-8.54143e-06
4.53396e-05
-9.58999e-06
5.0706e-05
-1.05967e-05
5.68539e-05
-1.15039e-05
6.39431e-05
-1.22443e-05
7.2161e-05
-1.27433e-05
8.04228e-05
-1.29351e-05
8.20619e-05
-1.284e-05
8.3853e-05
-1.24655e-05
8.57513e-05
-1.18337e-05
8.76989e-05
-1.09792e-05
8.96521e-05
-1.23094e-05
9.18544e-05
-1.0811e-05
9.91039e-05
-9.10351e-06
8.81632e-05
-7.55527e-06
7.8264e-05
-6.18684e-06
6.9342e-05
-5.00048e-06
6.12919e-05
-3.98774e-06
5.41078e-05
-3.13357e-06
4.7705e-05
-2.42025e-06
4.19722e-05
-1.82959e-06
3.67955e-05
-1.34349e-06
3.21316e-05
-9.429e-07
2.77569e-05
-6.12189e-07
2.35849e-05
-3.43464e-07
1.93654e-05
-1.38012e-07
1.4473e-05
1.735e-05
-1.97943e-06
2.76557e-05
-1.47726e-06
2.84536e-05
-1.06863e-06
2.9257e-05
-7.41657e-07
3.00661e-05
-4.8545e-07
3.08869e-05
-2.898e-07
3.1719e-05
-1.45964e-07
3.25681e-05
-4.66295e-08
3.34339e-05
1.40537e-08
3.43161e-05
4.11955e-08
3.52247e-05
3.92576e-08
3.61559e-05
1.39916e-08
-2.51054e-06
1.92773e-05
-3.12262e-06
2.14204e-05
-3.82007e-06
2.3798e-05
-4.60411e-06
2.64428e-05
-5.47223e-06
2.93944e-05
-6.41917e-06
3.26957e-05
-7.43298e-06
3.63989e-05
-8.49492e-06
4.05803e-05
-9.57634e-06
4.53259e-05
-1.06396e-05
5.07489e-05
-1.16344e-05
5.69844e-05
-1.25003e-05
6.41991e-05
-1.3168e-05
7.25858e-05
-1.35635e-05
8.10512e-05
-1.3627e-05
8.28489e-05
-1.33941e-05
8.47816e-05
-1.2881e-05
8.67985e-05
-1.21185e-05
8.88383e-05
-1.38025e-05
9.11452e-05
-1.23474e-05
9.33909e-05
-1.07293e-05
0.00010073
-8.94893e-06
8.95568e-05
-7.36577e-06
7.94429e-05
-5.98852e-06
7.03301e-05
-4.81008e-06
6.21143e-05
-3.81515e-06
5.47894e-05
-2.98366e-06
4.82684e-05
-2.29473e-06
4.24373e-05
-1.72829e-06
3.71803e-05
-1.2648e-06
3.24535e-05
-8.85082e-07
2.80298e-05
-5.7317e-07
2.38146e-05
-3.20683e-07
1.95481e-05
-1.2847e-07
1.46015e-05
1.73217e-05
-2.48224e-06
2.75719e-05
-1.89564e-06
2.83884e-05
-1.41203e-06
2.92078e-05
-1.01939e-06
3.00306e-05
-7.0612e-07
3.08629e-05
-4.61473e-07
3.17046e-05
-2.75367e-07
3.25613e-05
-1.39154e-07
3.34329e-05
-4.56297e-08
3.4319e-05
1.11151e-08
3.52296e-05
3.6336e-08
3.61604e-05
3.47098e-08
3.65898e-05
1.22375e-08
-3.08582e-06
1.92405e-05
-3.77388e-06
2.13742e-05
-4.54827e-06
2.37422e-05
-5.4076e-06
2.63781e-05
-6.34835e-06
2.93236e-05
-7.36117e-06
3.26239e-05
-8.43095e-06
3.63349e-05
-9.53377e-06
4.05377e-05
-1.06378e-05
4.53242e-05
-1.16995e-05
5.0814e-05
-1.2665e-05
5.71492e-05
-1.34715e-05
6.45026e-05
-1.40489e-05
7.30712e-05
-1.4326e-05
8.17502e-05
-1.42508e-05
8.37056e-05
-1.38737e-05
8.57743e-05
-1.32207e-05
8.79007e-05
-1.52701e-05
9.03059e-05
-1.38768e-05
9.26746e-05
-1.22786e-05
9.49402e-05
-1.05661e-05
0.000102347
-8.73635e-06
9.09274e-05
-7.13729e-06
8.05917e-05
-5.76554e-06
7.12855e-05
-4.60528e-06
6.29044e-05
-3.63511e-06
5.54409e-05
-2.83087e-06
4.88045e-05
-2.16924e-06
4.28783e-05
-1.6283e-06
3.75438e-05
-1.18815e-06
3.27565e-05
-8.29314e-07
2.8286e-05
-5.358e-07
2.40297e-05
-2.99035e-07
1.97187e-05
-1.19477e-07
1.4721e-05
1.72868e-05
-3.05088e-06
2.74644e-05
-2.37472e-06
2.83029e-05
-1.81013e-06
2.9141e-05
-1.34526e-06
2.99801e-05
-9.68938e-07
3.08264e-05
-6.69667e-07
3.16798e-05
-4.36714e-07
3.25462e-05
-2.60317e-07
3.34256e-05
-1.31895e-07
3.43177e-05
-4.42828e-08
3.52322e-05
8.46219e-09
3.6165e-05
3.17232e-08
3.65941e-05
3.04085e-08
3.55536e-05
1.06508e-08
-3.72954e-06
1.91961e-05
-4.49387e-06
2.13198e-05
-5.34332e-06
2.36779e-05
-6.27572e-06
2.63055e-05
-7.28379e-06
2.92462e-05
-8.3554e-06
3.25483e-05
-9.47061e-06
3.62718e-05
-1.06027e-05
4.05026e-05
-1.17139e-05
4.53386e-05
-1.27572e-05
5.09061e-05
-1.36758e-05
5.73535e-05
-1.4405e-05
6.48587e-05
-1.4876e-05
7.36212e-05
-1.50223e-05
8.25217e-05
-1.47996e-05
8.46315e-05
-1.42749e-05
8.68285e-05
-1.67019e-05
8.93324e-05
-1.53921e-05
9.18212e-05
-1.38311e-05
9.42271e-05
-1.21158e-05
9.64899e-05
-1.03332e-05
0.000103944
-8.47638e-06
9.22665e-05
-6.87846e-06
8.17046e-05
-5.52467e-06
7.22049e-05
-4.39105e-06
6.36603e-05
-3.45119e-06
5.60612e-05
-2.67778e-06
4.93131e-05
-2.04514e-06
4.32951e-05
-1.53072e-06
3.78864e-05
-1.11409e-06
3.30413e-05
-7.75826e-07
2.8526e-05
-5.00212e-07
2.42309e-05
-2.7857e-07
1.98778e-05
-1.11035e-07
1.4832e-05
1.72447e-05
-3.68744e-06
2.73304e-05
-2.91683e-06
2.81935e-05
-2.2653e-06
2.90533e-05
-1.72243e-06
2.99118e-05
-1.27693e-06
3.07747e-05
-9.17216e-07
3.16424e-05
-6.32231e-07
3.25208e-05
-4.11291e-07
3.34101e-05
-2.44764e-07
3.431e-05
-1.24234e-07
3.52305e-05
-4.26077e-08
3.61674e-05
6.08351e-09
3.65984e-05
2.74106e-08
3.55575e-05
2.65014e-08
3.45454e-05
9.21104e-09
-4.44162e-06
1.91439e-05
-5.28058e-06
2.12571e-05
-6.2032e-06
2.36054e-05
-7.20387e-06
2.62256e-05
-8.27282e-06
2.91636e-05
-9.39347e-06