/*--------------------------------*- C++ -*----------------------------------*\
  =========                 |
  \\      /  F ield         | OpenFOAM: The Open Source CFD Toolbox
   \\    /   O peration     | Website:  https://openfoam.org
    \\  /    A nd           | Version:  8
     \\/     M anipulation  |
\*---------------------------------------------------------------------------*/
FoamFile
{
    version     2.0;
    format      ascii;
    class       volScalarField;
    location    "0.1";
    object      epsilon;
}
// * * * * * * * * * * * * * * * * * * * * * * * * * * * * * * * * * * * * * //

dimensions      [0 2 -3 0 0 0 0];

internalField   nonuniform List<scalar> 
15677
(
3.36519e+06
892067
574600
472894
424632
397452
381047
372573
373364
381377
385074
372037
348727
329715
306947
289356
272917
258284
245780
232676
216445
198014
181154
166807
154387
142996
132201
121929
112261
103309
95157.3
87852.3
81402.6
75786.7
70960.4
1.33334e+07
4.25104e+06
2.68727e+06
2.11908e+06
1.83774e+06
1.68466e+06
1.61443e+06
1.60312e+06
1.65801e+06
1.716e+06
1.44075e+06
925585
554817
363945
288759
265197
264569
277497
298837
323149
344810
348634
339420
317553
285862
258894
236387
217413
201183
187110
174774
163880
154224
145662
138088
6.96726e+06
3.12084e+06
2.2949e+06
1.99967e+06
1.92202e+06
1.99898e+06
2.22396e+06
2.50615e+06
2.67468e+06
2.55737e+06
2.07762e+06
1.40029e+06
802879
370175
164175
107469
103924
115888
136779
164024
196218
226896
243789
246480
226925
193729
164025
143773
130330
121014
114155
108829
104529
100971
97973.3
1.0793e+06
814854
810977
831571
859992
880708
889293
872913
808059
650584
492472
339165
211375
124457
82278
65364.7
62260.7
66091.2
76807.1
93311.5
108700
113516
112713
110264
107699
104702
101645
98852.3
96486.4
94563.1
93035.5
91837.6
90902.3
90167.6
89577.9
137523
43479.3
31220.3
28697.2
28989
30281.1
31952
33147
33347.6
32464.6
30874.3
29414
28970.8
30216.9
33743.6
39269.3
47022
56215.3
66661.1
78202.2
90114.1
99562.6
103428
102361
98325.8
94246.1
90930.5
88433.2
86623.8
85343.8
84450.8
83829.5
83391.1
83070.3
82821
75758.2
33495.1
23349.3
18914.7
16434
14929.3
14042.1
13607.1
13545.8
13814.7
14448.8
15482.8
17011.2
19299.9
22445.5
26372
31307.9
37245.1
43876
50466
55975.7
59967
62850
64930.3
66235.2
66960.7
67341.3
67531.2
67614.5
67636.5
67619.1
67572.9
67503.1
67412.7
67305.4
162273
46626.1
27052.3
19823.6
16102
13886.9
12493.9
11647
11240.2
11205.1
11566.5
12380.9
13748.7
15815.5
18502.9
21627.1
25261.3
29391.7
33947.3
38732.9
43297.6
46934
49256.4
50299.5
50539
50509.8
50405.8
50302.6
50218.1
50148.1
50083.1
50014.9
49938.5
49851.6
49756.9
71769.9
28272.1
19042.4
15057
12805.2
11369.1
10403.4
9758.96
9377.12
9236.77
9345.67
9754.99
10546.5
11831.3
13581
15638.6
17988.8
20524.7
23082.8
25497.2
27643.5
29425.5
30867
32016.4
32900.5
33569.9
34068.8
34427.9
34669.1
34816.2
34897.3
34932.5
34938.3
34925.3
34902
111254
35278.7
21603.4
16227.8
13324.9
11501.4
10266.3
9407.21
8828.82
8499.63
8399.63
8538.85
8962.82
9728.09
10797
12048
13467.1
15003.1
16595.7
18171
19667.5
20930.4
21856.3
22498.1
22926.9
23242
23486
23677.8
23827.8
23943.1
24029.5
24092.1
24135.4
24163.6
24179.8
55054.8
21325.1
14385.4
11422.5
9738.9
8636.41
7857.87
7295.27
6900.27
6660.05
6574.8
6659.32
6954.64
7492.41
8232.62
9086.57
10033.8
11024.3
11999
12905.6
13731.8
14481.9
15106.8
15610.7
16002.4
16295.9
16518.1
16686.8
16814.7
16911.5
16984.5
17039.6
17081.3
17113.5
17138.4
67121.9
23665.9
15367.3
11898.4
9909.29
8576.28
7609.4
6887.65
6354.83
5985.16
5775.17
5718.04
5822.13
6107.69
6549.07
7076.62
7672.86
8306.95
8956.63
9604.61
10233.2
10758.4
11169.6
11477.2
11707.3
11885.7
12029
12146
12243.1
12324.4
12392.3
12448.5
12493.5
12529.2
12557.2
41948.1
16659
11348.8
8991.23
7591.92
6636.27
5937.78
5415.25
5029.8
4762.83
4611.78
4572.88
4656.59
4878.1
5215.16
5611.98
6051.82
6509.47
6962.84
7375.61
7755.29
8091.37
8370.11
8596.51
8778.81
8927.52
9049.62
9150.32
9233.66
9302.8
9360.32
9408.41
9448.93
9483.4
9513.27
37857.6
14218.2
9554.31
7556.13
6386.63
5591.52
5009.25
4570.5
4242.57
4009.76
3867.23
3813.15
3847.78
3980.65
4197.62
4459.54
4754.62
5068.06
5388.66
5703.74
6002.61
6267.17
6486.83
6666.27
6811.6
6927.86
7024.1
7105.72
7175.67
7235.83
7287.44
7331.84
7370.11
7403.16
7431.7
30315.5
12243.6
8359.75
6562.45
5468.82
4715.6
4168.06
3763.95
3470.07
3267.2
3146.4
3101.48
3130.38
3238.75
3412.46
3620.16
3850.9
4087.2
4319.29
4545.54
4765.17
4965.94
5137.6
5281.99
5402.94
5504.24
5589.32
5661.26
5722.43
5774.63
5819.33
5857.88
5891.35
5920.59
5946.61
23346.5
9129.26
6217.05
4941.15
4188.3
3678.85
3310.07
3036.52
2835.76
2696.15
2612.66
2582.57
2605.24
2684.21
2810.01
2960.49
3130.02
3310.86
3495.94
3679.18
3856.87
4019.4
4159.09
4277.52
4377.52
4461.64
4532.11
4591.81
4643.15
4687.67
4726.45
4760.36
4790.1
4816.23
4839.21
20789.2
8190.51
5496.61
4281.78
3561.75
3080.66
2741.64
2499.15
2328.61
2215.78
2153.29
2135.54
2161.55
2233.06
2340.44
2464.55
2601.19
2743.48
2888.51
3033.43
3175.68
3307.19
3421.24
3518.77
3601.9
3672.71
3733.12
3784.82
3829.26
3867.6
3900.83
3929.73
3954.96
3977.23
3997.05
14785.6
5848.25
3978.27
3166.68
2697.89
2389.25
2172.97
2018.28
1909.6
1838.59
1801.33
1796.02
1823.35
1884.93
1973.05
2073.47
2183.55
2298.9
2417.29
2535.53
2651.88
2759.86
2854.01
2935.03
3004.55
3064.13
3115.17
3158.86
3196.25
3228.62
3256.85
3281.58
3303.34
3322.54
3339.5
13874.3
5310.31
3508.73
2728.66
2286.86
2004.01
1812.43
1680.69
1592.3
1538.33
1513.85
1515.39
1543.35
1598.46
1674.07
1759.12
1851.26
1947.32
2044.95
2142.69
2239.15
2329.01
2407.64
2475.54
2534.02
2584.34
2627.66
2665
2697.28
2725.28
2749.64
2770.91
2789.54
2806.01
2820.63
10132.4
4049.6
2749.77
2185.35
1863.22
1655.52
1513.97
1416.28
1350.93
1311.66
1295.38
1300.27
1326.41
1374.36
1438.24
1509.1
1585.64
1665.55
1747.05
1828.78
1909.58
1985.05
2051.31
2108.75
2158.42
2201.33
2238.4
2270.46
2298.22
2322.27
2343.18
2361.48
2377.58
2391.79
2404.36
9671.39
3688.72
2439.05
1907.64
1611.36
1424.64
1300.17
1216.13
1161.21
1129.45
1117.39
1123.18
1146.78
1188.53
1243.43
1303.99
1369.12
1436.7
1505.57
1574.69
1643.14
1707.24
1763.67
1812.71
1855.23
1892.07
1923.97
1951.64
1975.68
1996.59
2014.83
2030.79
2044.79
2057.14
2068.05
7593.72
3024.85
2050.05
1627.84
1388.37
1235.23
1131.89
1061.41
1015.08
988.248
978.225
983.529
1003.91
1039.67
1086.48
1137.81
1192.9
1250.28
1308.87
1367.76
1426.2
1481.05
1529.47
1571.68
1608.38
1640.27
1667.98
1692.08
1713.07
1731.38
1747.38
1761.39
1773.68
1784.48
1793.99
7308.8
2800.36
1858.75
1458.78
1235.83
1095.34
1001.7
938.505
897.285
873.542
864.716
869.273
886.847
917.45
957.347
1001.12
1048.17
1097.28
1147.51
1198.1
1248.41
1295.74
1337.63
1374.23
1406.14
1433.93
1458.13
1479.22
1497.62
1513.69
1527.75
1540.07
1550.89
1560.4
1568.78
6231.44
2442.22
1641.38
1297.07
1102.95
979.38
896.295
839.798
802.654
780.95
772.476
775.798
790.446
816.456
850.638
888.252
928.763
971.123
1014.52
1058.31
1101.94
1143.08
1179.57
1211.55
1239.49
1263.89
1285.18
1303.78
1320.03
1334.24
1346.7
1357.63
1367.24
1375.7
1383.16
5853.2
2250.8
1497.68
1177.31
998.266
885.063
809.309
757.94
724.136
704.184
695.929
698.064
710.262
732.495
761.984
794.555
829.713
866.539
904.331
942.524
980.653
1016.69
1048.73
1076.87
1101.52
1123.09
1141.96
1158.47
1172.93
1185.61
1196.73
1206.51
1215.12
1222.71
1229.42
5220.11
2029.21
1357.86
1070.46
908.851
806.126
737.045
689.952
658.723
639.953
631.743
632.908
643.094
662.231
687.872
716.31
747.08
779.364
812.545
846.131
879.72
911.534
939.889
964.849
986.771
1006
1022.87
1037.66
1050.64
1062.05
1072.09
1080.92
1088.72
1095.6
1101.69
4882.97
1878.91
1251.06
983.902
834.384
739.614
675.924
632.379
603.306
585.599
577.505
577.901
586.448
603.05
625.535
650.581
677.744
706.293
735.677
765.466
795.31
823.636
848.943
871.276
890.944
908.244
923.458
936.841
948.619
958.994
968.143
976.22
983.362
989.684
995.289
4474.03
1729.73
1154.14
908.45
770.536
682.883
623.789
583.244
556.026
539.252
531.296
531.103
538.329
552.863
572.761
595.019
619.218
644.693
670.951
697.611
724.368
749.821
772.617
792.792
810.611
826.334
840.206
852.447
863.256
872.807
881.255
888.736
895.369
901.257
906.49
4193.24
1612.98
1073.82
844.343
715.712
633.965
578.815
540.898
515.334
499.425
491.648
491.019
497.185
510.031
527.804
547.77
569.527
592.471
616.156
640.241
664.461
687.555
708.297
726.711
743.03
757.481
770.278
781.613
791.66
800.572
808.483
815.514
821.769
827.339
832.306
3910.06
1505.69
1002.56
788.246
668.002
591.502
539.817
504.205
480.103
464.98
457.404
456.454
461.772
473.241
489.268
507.345
527.091
547.951
569.52
591.493
613.636
634.807
653.882
670.876
685.994
699.437
711.393
722.029
731.498
739.935
747.457
754.169
760.165
765.525
770.322
3687.27
1415.82
941.327
739.528
626.397
554.43
505.777
472.203
449.411
435.011
427.654
426.472
431.109
441.451
456.039
472.557
490.645
509.79
529.623
549.869
570.323
589.941
607.679
623.545
637.721
650.386
661.703
671.822
680.876
688.983
696.247
702.76
708.605
713.853
718.569
65228.1
58588.6
52362.7
46590.2
41309.1
36549.3
32330.5
28661.6
25540.4
22951.7
20865
19245.3
18054.2
17205.6
16603
16172.6
15862.5
15639.6
15487.6
15404.2
15396.9
15472
128889
117796
106925
96362.1
86201.9
76563.8
67595.7
59543.7
52568.1
46728.2
41997.7
38328.1
35690.8
33988.4
33137.7
33127.2
33915.4
35676.3
38351.2
41685.1
45068.3
48126.6
94589.1
90684.1
86941.7
83391.1
80037.1
76903.8
74037.4
71518.8
69349.9
67517.7
65989.8
64725.8
63702
62849.2
62075.4
61320.9
60577.7
59882.3
59283.9
58817
58487.4
58283.5
88972.2
88380.8
87940.2
87702.2
87647.9
87701.7
87714.1
87440.3
86729.3
85485
83661.1
81305.4
78602.9
75757.5
72941.4
70306.7
67938.8
65867.7
64075.1
62552.9
61295.2
60282.3
82658.5
82617.3
82611.5
82583
82513
82365.6
82088.6
81620.7
80903.6
79893
78567.2
76944.7
75096.1
73142.7
71178.9
69296
67552.1
65986
64577.7
63269.9
62056.5
60935.5
67351.5
67547.7
67698.2
67785.8
67800.7
67731.5
67569.2
67305.6
66931.3
66435.1
65802.6
65026
64131.7
63162.2
62145.5
61106.5
60064.1
59031.3
58017.9
57039.6
56108.1
55228.9
49861.5
50162.5
50415.9
50619.9
50767.8
50852.1
50870.6
50818.9
50693.6
50493.5
50219.7
49878.4
49487.2
49065.3
48622.8
48168.6
47710.3
47254.5
46806
46368.4
45944
45535
35093.3
35510.3
35906.4
36271.4
36598.1
36883
37122.6
37315.1
37458.6
37550.5
37588
37571
37503.5
37398.5
37267.6
37120.5
36964.7
36806.4
36651.7
36504.6
36368.2
36243.6
24381
24775.7
25159.8
25528.9
25876.6
26202.2
26504.7
26783.6
27038.6
27270.2
27479.1
27665.7
27827.5
27965.3
28083.2
28185
28274.1
28353.5
28425.4
28493.3
28559.2
28624.6
17310.6
17637.6
17963.2
18284.5
18601
18912.1
19217.1
19514.8
19804.2
20084.3
20354.1
20611
20849.1
21067.2
21269.1
21458.2
21637.1
21808.3
21974
22136
22295.9
22454.3
12697.5
12957.5
13220.8
13486.7
13754.6
14023.9
14294.2
14565
14836.1
15107
15379.3
15649.6
15911.2
16160.1
16397.6
16625.1
16844.1
17055.8
17261.3
17461.8
17658.2
17850.9
9632.21
9847.17
10066.8
10290.4
10518
10749.5
10985
11224.4
11467.3
11713.7
11963.3
12214.2
12459.7
12695.8
12923.6
13144.1
13358.3
13566.9
13770.9
13970.9
14167.7
14361.6
7530.99
7707.71
7889.89
8077.36
8270.07
8467.98
8671.07
8879.32
9092.73
9311.31
9535.13
9762.67
9987.82
10206.3
10418.5
10625
10826.3
11022.9
11215.4
11404.2
11589.8
11772.6
6031.07
6179.69
6333.37
6492.2
6656.35
6825.95
7001.11
7181.92
7368.46
7560.77
7758.89
7961.41
8162.8
8359.1
8550.6
8737.59
8920.38
9099.28
9274.63
9446.75
9615.98
9782.6
4911.18
5037.49
5168.64
5304.73
5445.94
5592.46
5744.49
5902.23
6065.87
6235.65
6411.82
6593.38
6775.21
6953.39
7127.87
7298.73
7466.05
7629.97
7790.63
7948.18
8102.82
8254.79
4058.65
4166.59
4278.92
4395.82
4517.52
4644.24
4776.22
4913.68
5056.9
5206.19
5361.89
5522.88
5684.64
5843.63
5999.71
6152.95
6303.43
6451.23
6596.42
6739.1
6879.35
7017.28
3392.49
3485.63
3582.76
3684.05
3789.76
3900.16
4015.52
4136.03
4261.86
4393.19
4530.19
4672
4814.9
4955.88
5094.87
5231.81
5366.7
5499.53
5630.33
5759.12
5885.94
6010.84
2866.6
2947.43
3031.8
3119.9
3211.97
3308.2
3408.72
3513.78
3623.63
3738.51
3858.66
3983.43
4109.48
4234.15
4357.39
4479.15
4599.39
4718.08
4835.2
4950.75
5064.73
5177.13
2444.45
2515.24
2589.24
2666.55
2747.27
2831.59
2919.75
3011.93
3108.39
3209.36
3315.09
3425.07
3536.38
3646.69
3755.94
3864.07
3971.06
4076.85
4181.43
4284.78
4386.87
4487.7
2103.19
2165.31
2230.31
2298.28
2369.38
2443.74
2521.53
2602.94
2688.17
2777.43
2870.97
2968.34
3066.98
3164.84
3261.86
3358
3453.24
3547.53
3640.85
3733.17
3824.47
3914.74
1824.98
1879.89
1937.37
1997.53
2060.51
2126.44
2195.47
2267.77
2343.5
2422.87
2506.08
2592.74
2680.59
2767.77
2854.27
2940.04
3025.05
3109.28
3192.7
3275.29
3357.03
3437.89
1596.33
1645.21
1696.39
1750
1806.15
1864.98
1926.61
1991.2
2058.89
2129.88
2204.33
2281.9
2360.55
2438.64
2516.13
2593
2669.2
2744.73
2819.56
2893.67
2967.04
3039.65
1407.76
1451.44
1497.23
1545.24
1595.58
1648.34
1703.67
1761.69
1822.54
1886.37
1953.36
2023.18
2094
2164.32
2234.12
2303.36
2372.02
2440.07
2507.5
2574.29
2640.41
2705.87
1251.49
1290.71
1331.86
1375.05
1420.38
1467.94
1517.85
1570.23
1625.2
1682.91
1743.5
1806.67
1870.77
1934.45
1997.65
2060.36
2122.54
2184.17
2245.24
2305.72
2365.61
2424.88
1121.61
1156.95
1194.08
1233.09
1274.06
1317.11
1362.32
1409.81
1459.7
1512.1
1567.16
1624.6
1682.9
1740.84
1798.36
1855.44
1912.05
1968.15
2023.74
2078.79
2133.3
2187.24
1013.35
1045.33
1078.96
1114.32
1151.51
1190.61
1231.73
1274.95
1320.39
1368.17
1418.4
1470.84
1524.1
1577.05
1629.64
1681.83
1733.6
1784.92
1835.77
1886.12
1935.97
1985.3
922.966
952.016
982.595
1014.78
1048.66
1084.31
1121.82
1161.29
1202.83
1246.53
1292.52
1340.56
1389.39
1437.96
1486.23
1534.15
1581.69
1628.83
1675.54
1721.8
1767.59
1812.91
847.434
873.945
901.868
931.278
962.251
994.868
1029.21
1065.38
1103.46
1143.55
1185.77
1229.92
1274.82
1319.51
1363.95
1408.09
1451.91
1495.37
1538.45
1581.11
1623.34
1665.14
784.318
808.63
834.247
861.239
889.676
919.633
951.189
984.43
1019.44
1056.33
1095.19
1135.85
1177.23
1218.44
1259.46
1300.23
1340.73
1380.92
1420.77
1460.25
1499.34
1538.02
731.626
754.043
777.668
802.564
828.794
856.427
885.535
916.196
948.492
982.517
1018.37
1055.89
1094.09
1132.17
1170.08
1207.8
1245.3
1282.55
1319.51
1356.16
1392.47
1428.4
15714.9
16076.8
16494.7
16994.1
17596.8
18436.6
51399.8
54913.9
57820.5
60350.7
62076.4
62954
58218.8
58292.6
58449.6
58671.9
58889.7
58991
59392.6
58632.4
57968.9
57300.8
56517.5
55610.6
59729.6
58488.6
57364.1
56333.9
55383.4
54521.3
54169.3
52954.6
51806.2
50740.7
49766.8
48883.9
44895.5
44064.4
43300.7
42604
41976.2
41419.6
35909
35390.5
34913.3
34481.2
34096
33757.9
28497.5
28197.2
27928.4
27688.9
27479.4
27300.7
22449.1
22295.4
22158.4
22038.4
21934.8
21846.8
17907.2
17835.9
17774.7
17723
17680.4
17647
14442.7
14416.8
14396.5
14382
14372.9
14369
11861.4
11859.4
11860.6
11864.8
11871.9
11881.8
9869.56
9878.79
9889.6
9901.93
9915.71
9930.8
8337.45
8351.36
8365.53
8379.9
8394.45
8408.99
7093.48
7107.83
7121.83
7135.45
7148.65
7161.28
6080.2
6093.28
6105.57
6117.03
6127.62
6137.24
5239.16
5249.88
5259.69
5268.54
5276.42
5283.23
4542.87
4551.3
4558.7
4565.04
4570.31
4574.44
3963.55
3969.82
3975.05
3979.24
3982.35
3984.36
3481.1
3485.62
3489.11
3491.58
3493.01
3493.37
3078.01
3081.15
3083.31
3084.51
3084.71
3083.92
2740.09
2742.22
2743.44
2743.74
2743.11
2741.55
2455.6
2457.03
2457.6
2457.31
2456.15
2454.13
2215.01
2215.97
2216.12
2215.48
2214.02
2211.77
2010.57
2011.23
2011.15
2010.31
2008.72
2006.39
1836.05
1836.55
1836.34
1835.43
1833.82
1831.52
1686.45
1686.86
1686.61
1685.71
1684.14
1681.93
1557.73
1558.12
1557.88
1557.02
1555.55
1553.46
1446.67
1447.05
1446.84
1446.06
1444.71
1442.78
19511.6
20761.7
22288.8
24109.2
26218.2
28593.3
31194.9
33967.6
36842
39737.6
42564.5
45207.6
47520.8
49440
50982.1
52165.5
53015.2
53565.1
53924.1
54155.4
54295.4
54374.6
63274.6
63020.7
61838.9
59943.2
57620.3
55125.7
52694
50545.4
48828.6
47639.4
47067.7
47022.7
47374.8
47871.7
48425.1
49009.5
49627.3
50287.1
50988
51723.4
52459.2
53124.2
58911.3
58627
58115.7
57375.1
56446.3
55443.4
54500.6
53712.3
53200.6
53065.3
53378.9
54119.2
55179.1
56342.9
57335.5
57965.1
58252.2
58474.6
58938.9
59848.4
61203.3
62919.2
54806.8
54080
53378.1
52709.7
52090.1
51496.1
50918.2
50409.2
50040.4
49908.3
50116.5
50813.9
52175.2
54283.8
57277.7
61300.9
66404.7
72538.4
79571.8
86399.7
92570.8
97868.3
53757.1
53069.8
52392.2
51727.3
51086.3
50475.3
49978.7
49606.3
49391.6
49398.2
49696.8
50404.4
51554.1
53129.7
55126.7
57496.5
60174.3
63051.3
66225.8
69555.8
72847
76038
48068.3
47290.5
46568.5
45908.8
45320.9
44818.9
44419.2
44131.5
43970.8
43952.9
44094.6
44431.8
44950.9
45615.8
46397.2
47267.1
48205
49203.1
50228
51243.3
52218
53128.6
40839.3
40223.2
39658.9
39146.4
38682.3
38264.9
37898.2
37591.1
37352.1
37189.7
37111
37129
37233.1
37410.8
37642.6
37912
38203.6
38502.9
38796.1
39071.6
39320.4
39533.1
33343.2
32846.2
32382.3
31950.4
31550.3
31182.7
30848.8
30549.4
30285.2
30055.5
29858.4
29691.5
29552.3
29434.7
29329.7
29229.1
29125
29010.6
28879.9
28727.8
28551.1
28348.9
27017.7
26626.4
26252.6
25892.4
25546.3
25214.5
24897.1
24594
24304.6
24027.9
23762.5
23508.2
23267.9
23040.5
22821.8
22608.5
22397.1
22184.2
21965.7
21740.7
21508.7
21269.7
21643.5
21325
21017.1
20719.3
20431
20151.1
19878.8
19612.6
19351.1
19092.4
18833.9
18574.3
18317.3
18065.2
17817.4
17573.4
17331.8
17091
16849.6
16606.4
16360.9
16113.6
17502.8
17248.2
16999
16754.2
16512.9
16274.5
16038.1
15802.7
15567.3
15330.5
15091.1
14849.3
14610
14376.4
14146.6
13920.7
13698.5
13479.7
13264.3
13052.1
12843.1
12637.5
14264.8
14060.3
13858.3
13658.2
13459.5
13261.2
13062.8
12863.5
12662.6
12458.6
12250.3
12037.6
11824.7
11615.4
11409.3
11206.1
11005.5
10807.9
10613.2
10421.3
10232.3
10045.9
11801.9
11632.3
11463.1
11293.7
11123.5
10951.8
10777.9
10601.6
10421.9
10237.8
10048.4
9854.32
9660.28
9469.86
9282.73
9098.71
8917.68
8739.6
8564.42
8392.1
8222.65
8056.14
9866.48
9721.72
9575.92
9428.57
9279.13
9127.08
8971.87
8812.95
8649.71
8481.56
8307.9
8129.44
7950.7
7775.2
7602.87
7433.62
7267.4
7104.09
6943.55
6785.76
6630.91
6479.27
8351.85
8222.07
8090.14
7955.57
7817.97
7676.96
7532.15
7383.16
7229.62
7071.22
6907.77
6740.37
6573.37
6410.03
6250.21
6093.85
5940.91
5791.41
5645.37
5502.87
5363.96
5228.78
7108.75
6989.85
6868.41
6744.08
6616.58
6485.6
6350.82
6211.93
6068.72
5921.09
5768.96
5613.42
5458.85
5308.31
5161.7
5018.96
4880.08
4745.08
4614
4486.85
4363.64
4244.42
6087.39
5976.99
5864.02
5748.27
5629.52
5507.6
5382.33
5253.59
5121.27
4985.3
4845.59
4703.09
4561.64
4424.23
4290.94
4161.86
4037.04
3916.52
3800.35
3688.44
3580.71
3477.11
5235.94
5133.45
5028.57
4921.16
4811.13
4698.37
4582.81
4464.39
4343.08
4218.86
4091.71
3962.61
3835.2
3712.16
3593.48
3479.13
3369.05
3263.18
3161.54
3064.13
2970.83
2881.54
4529.52
4434.64
4337.68
4238.55
4137.21
4033.64
3927.81
3819.72
3709.38
3596.86
3482.2
3366.36
3252.65
3143.39
3038.52
2937.97
2841.66
2749.5
2661.4
2577.22
2496.83
2420.16
3942.02
3854.6
3765.42
3674.44
3581.68
3487.12
3390.81
3292.78
3193.08
3091.81
2989.06
2885.71
2784.71
2688.11
2595.79
2507.65
2423.57
2343.41
2267.06
2194.37
2125.22
2059.47
3453.7
3373.46
3291.76
3208.62
3124.06
3038.12
2950.84
2862.3
2772.56
2681.74
2589.93
2497.96
2408.44
2323.14
2241.91
2164.64
2091.16
2021.33
1955.02
1892.06
1832.31
1775.64
3046.97
2973.5
2898.85
2823.06
2746.18
2668.24
2589.32
2509.48
2428.82
2347.43
2265.44
2183.56
2104.12
2028.66
1957.02
1889.05
1824.57
1763.44
1705.5
1650.6
1598.58
1549.31
2707.27
2640.07
2571.94
2502.92
2433.06
2362.41
2291.04
2219.04
2146.47
2073.45
2000.08
1927.01
1856.31
1789.31
1725.84
1665.74
1608.85
1555
1504.04
1455.82
1410.19
1367.02
2422.42
2360.96
2298.75
2235.86
2172.33
2108.22
2043.59
1978.53
1913.1
1847.41
1781.54
1716.08
1652.88
1593.09
1536.56
1483.11
1432.58
1384.81
1339.66
1296.98
1256.63
1218.47
2182.47
2126.19
2069.32
2011.92
1954.04
1895.74
1837.07
1778.11
1718.93
1659.61
1600.25
1541.35
1484.56
1430.93
1380.28
1332.44
1287.27
1244.6
1204.3
1166.23
1130.26
1096.27
1979.33
1927.7
1875.61
1823.11
1770.25
1717.08
1663.66
1610.06
1556.33
1502.56
1448.82
1395.57
1344.29
1295.91
1250.27
1207.2
1166.55
1128.18
1091.95
1057.74
1025.43
994.898
1806.52
1759.05
1711.22
1663.08
1614.67
1566.04
1517.24
1468.33
1419.38
1370.43
1321.57
1273.21
1226.68
1182.82
1141.46
1102.45
1065.64
1030.91
998.127
967.169
937.929
910.299
1658.81
1615.07
1571.05
1526.79
1482.33
1437.71
1392.99
1348.22
1303.45
1258.74
1214.14
1170.03
1127.62
1087.66
1049.98
1014.45
980.932
949.296
919.429
891.222
864.575
839.391
1532.06
1491.68
1451.06
1410.25
1369.3
1328.25
1287.15
1246.04
1204.98
1164
1123.15
1082.76
1043.95
1007.36
972.874
940.338
909.63
880.637
853.252
827.379
802.926
779.808
1422.98
1385.57
1347.98
1310.26
1272.45
1234.6
1196.74
1158.91
1121.15
1083.49
1045.96
1008.86
973.19
939.558
907.826
877.868
849.571
822.832
797.557
773.66
751.064
729.691
54406.9
54429.5
54472.6
54492.4
54439.9
54275
53998.1
53653.1
53522.7
54003.7
55605.3
58742
63627.9
70303.4
78918.1
89324.6
101325
115321
131786
151323
175263
204874
243802
289758
338324
380873
411293
431524
447906
464915
487957
527948
619423
946698
3.70077e+06
53634.7
54096.4
54681.3
55414.9
56325.9
57447.6
58816.5
60475.6
62477.3
64888.8
67806.1
71374.8
75841.2
81620.9
88716.6
96611.4
106547
120383
140607
169278
207101
251082
334250
523783
880707
1.33952e+06
1.64716e+06
1.64159e+06
1.62062e+06
1.64651e+06
1.76011e+06
2.0477e+06
2.69763e+06
4.50348e+06
1.4659e+07
64515.9
65847.9
67490.2
69516.8
72015.8
75090.5
78857.2
83428.6
88870.3
94992.4
101252
106507
110014
111856
112451
112864
114093
118005
126741
146520
187423
276714
515535
1.05549e+06
2.04406e+06
3.19478e+06
4.12896e+06
4.56177e+06
4.57371e+06
4.39271e+06
4.1885e+06
4.07024e+06
4.18746e+06
5.20649e+06
1.23277e+07
101896
105484
109821
115028
121239
128626
137415
147846
159961
172837
180689
174488
155864
133644
117137
110958
114507
136729
189479
293708
443635
568149
620697
798035
1.07245e+06
1.40553e+06
1.73888e+06
2.00389e+06
2.17718e+06
2.26628e+06
2.31673e+06
2.39013e+06
2.57399e+06
3.16991e+06
6.28196e+06
78681.7
80992.9
83621.2
86724.5
90489.6
95118.9
100702
106815
111869
113829
112097
106048
96678.3
86614.5
78432.6
73584.5
73281.1
77540.4
90679.3
124885
209207
359251
533312
667104
756455
820209
870125
901797
914173
916538
918029
930262
976056
1.13809e+06
2.13637e+06
53973.6
54858.2
55828.2
56885.1
58026.1
59241.4
60510.2
61797.6
63044.5
64097.9
64534.5
63701.4
60856.9
55933.9
50222.3
46572.5
46540.6
50006.9
54667.2
62053.4
77897.4
106617
141679
175596
209025
241104
266497
283701
291398
293454
292890
292073
296037
325824
542649
39800.1
40163
40542.6
40946.7
41386.7
41875
42418
42992.9
43495.2
43639.4
42919.9
41136.4
38554.9
35579.6
32445
29219.9
26287.8
24157.2
22984.8
22796.9
23610.7
25379.9
27632.2
29823.8
32584.6
37993.5
49015.6
67105.8
86324.3
94779.7
90472.8
76890.7
66748.1
62920.2
87678.6
28274.5
28341.4
28405.6
28461.1
28501
28515.1
28490
28404.5
28229.1
27928.3
27461.7
26783.6
25810.5
24408.4
22484
20362.4
18461.3
17008.2
16184.8
16122.3
16962.7
18688.3
20155.7
20366.2
19154.4
18206.2
18407.9
20302
23703.3
24911.3
23905.8
21475.5
20424.4
22399.1
35796.9
21153.8
21158.4
21152.8
21135.2
21103.9
21057.2
20992
20901.5
20769.9
20564.4
20214.1
19642.3
18820.2
17751.7
16503.4
15206.4
13947.5
12765.5
11710.2
10837.1
10202.3
9797.59
9603.77
9527.22
9472.13
9492.01
9637.62
9995.7
10703.7
11913.4
13661
16584.4
22195.7
37344.9
125122
15978.2
15951.3
15916.8
15872.2
15814.3
15739.2
15641.4
15513.2
15343.9
15119.8
14824
14437.5
13943.1
13325.7
12566.7
11675.5
10736.8
9815.25
8957.12
8189.41
7543.01
7018.77
6671.99
6518.64
6536.13
6720.42
7091.32
7669.77
8504.68
9670.74
11301.9
13684.8
17601.9
26271.8
71121.1
12525.1
12499.7
12465.9
12422.4
12367.3
12298.5
12213
12108
11977.6
11812.7
11597.3
11303.6
10914.2
10415.6
9804.6
9124.56
8436.3
7764.23
7125.47
6537.3
6021.44
5593.03
5323.45
5241.43
5335
5595.92
6020.88
6612.35
7385.07
8378.68
9688.16
11550.3
14663.7
22022.1
62507.5
9941.17
9913.79
9881.03
9841.33
9792.51
9731.69
9655.11
9558.23
9435.87
9281.78
9088.15
8845.51
8544.41
8175.42
7737.92
7256.42
6756.95
6245.54
5743.94
5273.25
4853.23
4492.91
4244.38
4127.19
4130.11
4244.29
4481
4852.14
5383.6
6126.94
7184.19
8781.42
11527.2
17749.3
47942.6
7962.06
7935.73
7903.78
7865.22
7818.78
7762.86
7695.46
7614.02
7515.18
7394.3
7244.52
7054.65
6817.86
6525.55
6178.84
5792.85
5394.23
4996.47
4613.88
4258.78
3942.18
3668.82
3477.24
3386.2
3389.77
3485.04
3675.79
3968.94
4379.93
4939.62
5712.41
6848.47
8770.27
13215.4
35683.4
6392.92
6367.54
6337.85
6302.89
6261.46
6212.06
6152.82
6081.43
5995.02
5890.07
5762.24
5606.48
5417.55
5189.62
4920.66
4626.59
4324.86
4024.06
3733.1
3457.41
3205.37
2981.76
2817.9
2730.22
2712.83
2762.53
2885.38
3092.13
3400.84
3846.66
4497.17
5498.34
7235.34
11150.1
29744.5
5151.66
5128.28
5101.02
5069.19
5031.96
4988.3
4936.96
4876.36
4804.51
4718.75
4615.28
4489.86
4339.08
4159.24
3947.4
3718.22
3484.63
3251.95
3025.95
2812.79
2619.69
2450.16
2327.03
2261.56
2249.86
2290.53
2386.41
2543.33
2772.57
3095.74
3555.6
4247.73
5433.59
8154.11
21252.2
4176.22
4155.03
4130.86
4103.09
4070.8
4033.09
3988.88
3936.86
3875.44
3802.72
3716.42
3614.01
3492.82
3350.27
3185.19
3006.72
2827.24
2649.51
2476.49
2313.57
2165.35
2033.72
1935.71
1881.34
1868.19
1895.13
1965.8
2087.11
2270.32
2537.07
2929.07
3536.89
4601.16
7041.39
18737.1
3417.89
3399.04
3377.53
3352.92
3324.67
3292.11
3254.46
3210.74
3159.73
3099.81
3029.12
2946
2848.69
2735.43
2605.68
2466.2
2326.68
2189.2
2056.24
1930.94
1816.81
1715.36
1640.19
1599.02
1590.23
1613.51
1670.98
1767.01
1909.81
2114.61
2411
2863.92
3647.77
5445.11
13962.7
2830.39
2813.75
2794.94
2773.61
2749.33
2721.5
2689.38
2652.2
2609.06
2558.89
2500.51
2432.6
2353.85
2262.99
2159.85
2050.17
1940.21
1832.7
1729.06
1630.92
1541.53
1462.12
1403.31
1371.27
1364.83
1383.59
1430.16
1509.2
1628.78
1804.31
2065.5
2476.99
3211.18
4929.64
13156.3
2376.29
2361.76
2345.32
2326.71
2305.6
2281.58
2254.15
2222.69
2186.43
2144.49
2096.04
2040.14
1975.83
1902.22
1819.28
1731.69
1644.37
1559.05
1476.95
1399.8
1329.72
1267.75
1222.43
1198.59
1195.46
1213.04
1253.12
1318.95
1416.55
1557.18
1762.38
2078.84
2630.58
3895.93
9781.27
2021.87
2009.34
1995.16
1979.11
1960.92
1940.28
1916.76
1889.87
1859.06
1823.73
1783.19
1736.74
1683.64
1623.22
1555.53
1484.44
1413.95
1345.12
1279.1
1217.13
1160.66
1110.8
1074.57
1056.01
1054.67
1070.48
1105.43
1162.69
1248.11
1372.72
1557.86
1849.93
2372.38
3600.96
9496.98
1743.28
1732.47
1720.26
1706.43
1690.75
1672.94
1652.68
1629.61
1603.3
1573.28
1539.03
1499.99
1455.61
1405.38
1349.36
1290.77
1232.89
1176.5
1122.52
1072.01
1026.3
986.197
957.575
943.775
944.522
960.084
992.113
1043.27
1118.45
1226.55
1384.6
1629.26
2057
3036.65
7590.73
1521.19
1511.81
1501.23
1489.25
1475.7
1460.32
1442.87
1423.03
1400.47
1374.81
1345.63
1312.5
1274.99
1232.67
1185.66
1136.64
1088.34
1041.4
996.548
954.66
916.824
883.76
860.476
849.867
851.856
866.922
896.712
943.817
1013.03
1113.11
1260.94
1493.05
1906.4
2874.45
7497.13
1342.43
1334.24
1325
1314.57
1302.76
1289.39
1274.24
1257.05
1237.54
1215.41
1190.31
1161.89
1129.81
1093.73
1053.74
1012.16
971.268
931.592
893.751
858.498
826.815
799.365
780.448
772.573
775.844
790.844
819.066
862.897
926.639
1018
1151.66
1359.29
1724.47
2567.86
6537.17
1196.76
1189.54
1181.41
1172.24
1161.88
1150.16
1136.89
1121.87
1104.85
1085.59
1063.79
1039.16
1011.41
980.281
945.856
910.12
875.027
841.025
808.646
778.551
751.622
728.509
713.039
707.363
711.531
726.137
752.671
793.443
852.598
937.551
1062.37
1257.51
1603.73
2412.19
6263.04
1076.92
1070.5
1063.26
1055.11
1045.92
1035.53
1023.79
1010.53
995.531
978.58
959.441
937.864
913.604
886.434
856.442
825.352
794.853
765.332
737.251
711.201
687.98
668.223
655.355
651.275
656.083
670.461
695.73
734.029
789.216
868.097
983.497
1163.06
1479.9
2215.15
5694.17
977.507
971.705
965.184
957.845
949.579
940.263
929.756
917.903
904.532
889.452
872.461
853.347
831.897
807.919
781.489
754.125
727.305
701.362
676.706
653.87
633.583
616.461
605.604
602.71
607.911
621.923
645.995
682.14
733.943
807.755
915.719
1084.08
1382.44
2079.16
5399.73
894.522
889.198
883.225
876.517
868.979
860.502
850.966
840.236
828.162
814.581
799.317
782.187
763.005
741.604
718.051
693.694
669.838
646.775
624.871
604.609
586.661
571.621
562.313
560.275
565.658
579.19
602.036
636.102
684.742
753.885
854.818
1011.86
1289.56
1936.53
5010.83
824.943
819.967
814.398
808.162
801.174
793.34
784.555
774.701
763.649
751.256
737.371
721.832
704.477
685.156
663.931
642.008
620.553
599.823
580.145
561.963
545.896
532.515
524.414
522.993
528.416
541.407
563.063
595.191
640.958
705.961
800.862
948.674
1210.5
1822.27
4739.44
766.45
761.705
756.414
750.508
743.916
736.554
728.33
719.141
708.877
697.412
684.613
670.339
654.446
636.799
617.454
597.503
577.997
559.161
541.292
524.797
510.252
498.2
491.039
490.058
495.426
507.856
528.382
558.721
601.863
663.08
752.407
891.491
1137.79
1713.29
4456.72
717.217
712.6
707.472
701.775
695.443
688.404
680.577
671.875
662.199
651.441
639.483
626.202
611.467
595.158
577.324
558.965
541.038
523.742
507.345
492.223
478.914
467.934
461.513
460.845
466.099
477.974
497.449
526.153
566.922
624.749
709.141
840.623
1073.74
1619.45
4226.26
3456.2
1326.03
881.099
691.908
585.826
518.309
472.624
441.048
419.549
405.88
398.771
397.407
401.438
410.751
424.019
439.107
455.677
473.256
491.513
510.201
529.142
547.381
563.949
578.841
592.22
604.24
615.046
624.767
633.517
641.401
648.507
654.915
660.698
665.919
670.633
3244.64
1241.89
824.084
646.636
547.195
483.906
441.06
411.408
391.167
378.228
371.397
369.91
373.426
381.842
393.95
407.782
423.023
439.244
456.145
473.51
491.186
508.297
523.928
538.065
550.849
562.413
572.882
582.368
590.969
598.773
605.858
612.292
618.136
623.445
628.27
3059
1168.94
774.881
607.639
513.944
454.307
413.915
385.933
366.794
354.507
347.946
346.392
349.516
357.227
368.417
381.259
395.46
410.63
426.497
442.873
459.63
475.948
490.951
504.611
517.047
528.377
538.706
548.133
556.743
564.611
571.804
578.38
584.394
589.891
594.915
2899.87
1105.91
732.245
573.812
485.096
428.634
390.381
363.862
345.696
333.995
327.694
326.113