/*--------------------------------*- C++ -*----------------------------------*\
  =========                 |
  \\      /  F ield         | OpenFOAM: The Open Source CFD Toolbox
   \\    /   O peration     | Website:  https://openfoam.org
    \\  /    A nd           | Version:  8
     \\/     M anipulation  |
\*---------------------------------------------------------------------------*/
FoamFile
{
    version     2.0;
    format      ascii;
    class       volScalarField;
    location    "0.1";
    object      nut;
}
// * * * * * * * * * * * * * * * * * * * * * * * * * * * * * * * * * * * * * //

dimensions      [0 2 -1 0 0 0 0];

internalField   nonuniform List<scalar> 
15677
(
0.00106074
0.00595041
0.0157999
0.0263724
0.0367451
0.0466263
0.055789
0.0639445
0.0710081
0.076911
0.0819192
0.0861149
0.0898617
0.0938262
0.0976792
0.101067
0.104216
0.106931
0.108682
0.109171
0.108434
0.106819
0.104868
0.102717
0.100304
0.0976134
0.0947046
0.0916769
0.0886366
0.0856804
0.0828888
0.0803239
0.0780301
0.0760351
0.0743502
0.00167845
0.0145032
0.0344241
0.054587
0.0725668
0.0868042
0.0959898
0.100501
0.100886
0.0994968
0.0928175
0.0834102
0.0754297
0.0775335
0.0835883
0.0945455
0.107671
0.119068
0.127603
0.133136
0.136558
0.137337
0.135844
0.1326
0.128605
0.124823
0.121289
0.117993
0.114922
0.112064
0.109415
0.106974
0.104747
0.102737
0.100945
0.00135198
0.0111503
0.0253801
0.0400024
0.0535436
0.0651928
0.0747136
0.0819326
0.0859876
0.0854567
0.0798968
0.0687354
0.0535231
0.0343119
0.0398532
0.0585398
0.0775996
0.0947238
0.109367
0.121545
0.13041
0.136306
0.139556
0.140087
0.137873
0.133937
0.129592
0.125803
0.122864
0.120742
0.119296
0.118364
0.117806
0.117508
0.117384
0.000726222
0.00381572
0.00848804
0.0135995
0.018979
0.0246434
0.0297092
0.0321562
0.0325025
0.0316706
0.029204
0.0264736
0.0253195
0.0290217
0.039753
0.0527026
0.0653662
0.0809378
0.0945299
0.105002
0.112452
0.116429
0.118359
0.119755
0.121096
0.122073
0.122859
0.123696
0.124563
0.125442
0.126312
0.12715
0.12793
0.128635
0.12925
0.00036535
0.00181858
0.00433412
0.00694478
0.00949815
0.0120975
0.0148208
0.0179631
0.0219525
0.027341
0.0349273
0.0453537
0.059052
0.0759029
0.0910069
0.100359
0.106028
0.111383
0.116801
0.122025
0.12668
0.130538
0.132882
0.134143
0.134606
0.134761
0.134845
0.134937
0.135052
0.135182
0.135315
0.135439
0.135541
0.135614
0.135655
0.000299522
0.0028385
0.00696383
0.0118664
0.0173893
0.0234527
0.0299393
0.036722
0.0437044
0.0508905
0.058195
0.0657658
0.0737914
0.0824329
0.0907608
0.0981225
0.104799
0.110917
0.116454
0.12108
0.124643
0.127241
0.129161
0.130732
0.132145
0.133353
0.134287
0.134961
0.135418
0.135701
0.135852
0.135911
0.135904
0.135852
0.135771
0.00038609
0.00307041
0.00823125
0.0146517
0.0219199
0.0298281
0.0381752
0.0467462
0.0552798
0.0636672
0.0716138
0.0789866
0.0858206
0.0923129
0.0980218
0.10295
0.107433
0.111594
0.115501
0.119154
0.122448
0.12511
0.127009
0.128298
0.129017
0.129396
0.129626
0.12975
0.129808
0.129826
0.129818
0.129794
0.129759
0.129718
0.129674
0.000294175
0.00331429
0.00806988
0.0137621
0.0202337
0.0274079
0.0352043
0.0434982
0.0521013
0.0608052
0.0694084
0.0776496
0.0853626
0.0923959
0.098174
0.102831
0.106794
0.110202
0.113091
0.115457
0.117324
0.118704
0.119734
0.120547
0.121202
0.121722
0.122127
0.122437
0.122669
0.12284
0.122966
0.123063
0.123134
0.12319
0.123236
0.000340445
0.00306426
0.00790207
0.0137752
0.020399
0.0276591
0.0354666
0.0437198
0.0522774
0.0608751
0.0693207
0.0774236
0.0848896
0.0915401
0.0968017
0.100872
0.104217
0.107041
0.109465
0.11155
0.113342
0.114767
0.115787
0.116479
0.116933
0.117243
0.117472
0.117653
0.117806
0.117941
0.118063
0.118174
0.118276
0.11837
0.118456
0.000269286
0.00300565
0.00727044
0.0123072
0.017996
0.024324
0.0312953
0.0388779
0.0469916
0.0554552
0.0640669
0.0725408
0.0804802
0.0876444
0.0933264
0.0976746
0.101166
0.104015
0.106342
0.108219
0.109719
0.1109
0.111808
0.112512
0.113057
0.113478
0.11381
0.11408
0.114305
0.114498
0.114666
0.114815
0.114948
0.115068
0.115175
0.00028767
0.00269237
0.00660249
0.0112201
0.016424
0.0222321
0.0286835
0.0357877
0.0435001
0.0516948
0.0600922
0.0684628
0.076495
0.0838251
0.0896548
0.0940848
0.097601
0.100442
0.10278
0.104742
0.106423
0.107754
0.108752
0.109493
0.110048
0.110479
0.110826
0.111115
0.111365
0.111585
0.111782
0.111959
0.112118
0.112259
0.112385
0.000245947
0.00263844
0.00624322
0.0104563
0.015237
0.0206205
0.0266412
0.0333049
0.0405664
0.0483113
0.0563001
0.0643386
0.0721555
0.0794332
0.0853641
0.0899686
0.0936833
0.0967151
0.099212
0.101253
0.102927
0.104262
0.105297
0.106108
0.106752
0.107272
0.1077
0.108058
0.108362
0.108623
0.10885
0.109048
0.109223
0.109377
0.109515
0.00023768
0.0023451
0.00567173
0.00958525
0.0140228
0.019016
0.0246067
0.0308178
0.0376289
0.0449554
0.0526127
0.0603734
0.0680132
0.0752075
0.0811254
0.0857443
0.0894807
0.0925418
0.0950875
0.0972328
0.0990501
0.100526
0.101682
0.102594
0.103322
0.103908
0.104388
0.104789
0.105129
0.105421
0.105673
0.105893
0.106085
0.106255
0.106404
0.000220712
0.00234797
0.00549403
0.00916568
0.0133608
0.0181203
0.0234745
0.0294215
0.0359144
0.0428534
0.050056
0.0573386
0.064536
0.0713805
0.0771047
0.0816551
0.0854013
0.0885071
0.0911001
0.0932864
0.0951537
0.0966936
0.0979191
0.0989016
0.099699
0.100353
0.100894
0.101346
0.101727
0.102052
0.10233
0.102569
0.102778
0.10296
0.10312
0.000202311
0.00211962
0.00508534
0.00858186
0.0125691
0.0170716
0.0221158
0.0277079
0.0338176
0.0403656
0.0472051
0.0541637
0.0610619
0.0676688
0.0732363
0.07769
0.0813801
0.0844728
0.0870936
0.0893367
0.0912725
0.0928817
0.0941709
0.0952106
0.0960587
0.0967568
0.0973356
0.0978199
0.0982294
0.0985786
0.0988785
0.0991378
0.0993631
0.09956
0.0997326
0.000194635
0.00212071
0.00503835
0.00847265
0.0123873
0.0167945
0.0216979
0.0270787
0.0328884
0.039044
0.0454131
0.0518838
0.058313
0.0645228
0.0698274
0.0741273
0.0777317
0.0807725
0.0833683
0.0856089
0.0875609
0.0891989
0.090522
0.0915967
0.0924792
0.0932106
0.0938216
0.0943358
0.0947714
0.0951428
0.0954614
0.0957362
0.0959744
0.0961823
0.0963647
0.000173738
0.00194924
0.0047196
0.00800772
0.0117582
0.0159693
0.0206406
0.0257555
0.0312727
0.0371193
0.0431859
0.0493643
0.0555069
0.0614638
0.0665802
0.070754
0.0742776
0.0772771
0.0798569
0.082096
0.0840562
0.0857089
0.0870501
0.0881442
0.0890467
0.0897977
0.0904273
0.0909586
0.0914093
0.0917944
0.0921256
0.092412
0.092661
0.0928783
0.0930687
0.000170093
0.00192058
0.0046645
0.00793517
0.011655
0.0157987
0.0203441
0.0252602
0.0305027
0.0360039
0.0416787
0.0474623
0.0532246
0.0588493
0.0637254
0.0677403
0.0711582
0.0740906
0.0766281
0.0788433
0.080792
0.0824425
0.083787
0.0848878
0.0857987
0.0865591
0.0871987
0.0877402
0.0882015
0.0885965
0.0889365
0.0892305
0.089486
0.0897092
0.0899049
0.000153175
0.00180606
0.00438612
0.00746333
0.010979
0.0149166
0.0192583
0.0239736
0.0290153
0.0343156
0.0397923
0.0453622
0.0509137
0.0563409
0.0610599
0.0649588
0.0682918
0.0711639
0.0736598
0.0758462
0.0777755
0.0794141
0.0807522
0.0818504
0.0827612
0.0835234
0.0841658
0.0847108
0.0851758
0.0855744
0.0859178
0.0862152
0.086474
0.0867001
0.0868985
0.000150815
0.00174467
0.00427384
0.00730144
0.0107449
0.0145729
0.0187603
0.0232767
0.0280819
0.033117
0.038318
0.0436166
0.048914
0.0541158
0.0586645
0.0624433
0.0656896
0.0684984
0.0709476
0.0730992
0.0750024
0.076622
0.0779469
0.0790359
0.0799404
0.0806983
0.081338
0.0818815
0.0823458
0.0827444
0.0830884
0.0833864
0.0836458
0.0838725
0.0840715
0.000139135
0.00168577
0.00409167
0.0069575
0.0102242
0.0138719
0.0178809
0.0222224
0.0268548
0.03172
0.0367506
0.0418748
0.0470019
0.0520445
0.0564647
0.0601455
0.0633159
0.0660665
0.0684703
0.0705857
0.0724593
0.0740555
0.0753623
0.0764372
0.0773307
0.0780799
0.0787128
0.0792509
0.0797109
0.0801062
0.0804475
0.0807434
0.081001
0.0812262
0.0814237
0.000137372
0.00160196
0.00392834
0.00671471
0.0098868
0.0134175
0.0172848
0.021462
0.0259127
0.030585
0.0354206
0.0403552
0.0453034
0.0501835
0.0544756
0.0580616
0.0611589
0.0638521
0.0662098
0.0682872
0.0701285
0.0716978
0.0729829
0.07404
0.0749186
0.0756554
0.0762779
0.0768071
0.0772596
0.0776485
0.0779843
0.0782756
0.0785292
0.078751
0.0789455
0.000130261
0.00154493
0.00376805
0.00642701
0.0094614
0.0128504
0.0165749
0.0206085
0.0249145
0.0294416
0.0341306
0.0389185
0.0437251
0.0484736
0.0526584
0.0561615
0.0591924
0.0618314
0.0641437
0.0661821
0.0679889
0.0695284
0.0707884
0.0718242
0.0726846
0.0734057
0.0740146
0.074532
0.0749743
0.0753543
0.0756823
0.0759667
0.0762144
0.0764308
0.0766207
0.00012757
0.00148159
0.00363304
0.00621188
0.00915215
0.012431
0.0160299
0.0199249
0.0240827
0.0284568
0.0329923
0.0376329
0.042302
0.0469251
0.0510085
0.0544329
0.0573996
0.0599851
0.0622515
0.0642493
0.066019
0.0675255
0.0687568
0.0697677
0.0706062
0.071308
0.0718998
0.0724021
0.072831
0.0731991
0.0735166
0.0737917
0.074031
0.07424
0.0744233
0.000122794
0.00143352
0.00350616
0.00598965
0.00882502
0.0119924
0.0154745
0.0192482
0.0232808
0.027528
0.0319363
0.0364522
0.0410021
0.0455139
0.0495047
0.0528553
0.0557603
0.0582928
0.0605124
0.0624675
0.0641972
0.0656667
0.0668653
0.067847
0.0686593
0.0693375
0.0699081
0.0703913
0.070803
0.0711556
0.0714592
0.0717217
0.0719498
0.0721486
0.0723227
0.000120091
0.0013846
0.00339626
0.00580878
0.00856128
0.0116335
0.0150094
0.0186679
0.0225801
0.0267052
0.0309917
0.0353892
0.0398264
0.0442325
0.0481346
0.0514134
0.0542573
0.0567362
0.0589072
0.0608168
0.0625026
0.0639307
0.0650915
0.0660387
0.0668195
0.0674689
0.068013
0.0684721
0.0688617
0.0691942
0.0694795
0.0697254
0.0699383
0.0701235
0.0702851
0.000116641
0.0013429
0.00329114
0.00562886
0.00829896
0.0112825
0.014564
0.0181233
0.0219322
0.0259515
0.0301313
0.0344226
0.0387566
0.0430642
0.0468818
0.0500908
0.0528738
0.0552979
0.0574179
0.0592785
0.0609159
0.0622971
0.0634142
0.0643207
0.0650635
0.0656775
0.0661888
0.0666174
0.0669789
0.0672855
0.0675469
0.067771
0.0679638
0.0681307
0.0682757
0.000114148
0.00130407
0.00320059
0.00547714
0.00807682
0.0109814
0.0141767
0.0176438
0.0213561
0.0252762
0.0293559
0.0335471
0.0377837
0.0419972
0.0457329
0.0488729
0.0515944
0.053962
0.0560282
0.0578358
0.0594196
0.0607475
0.0618139
0.0626723
0.0633697
0.0639407
0.0644114
0.0648021
0.0651281
0.0654017
0.0656325
0.0658282
0.065995
0.0661379
0.0662608
0.000111518
0.00126949
0.00311601
0.00533416
0.00786878
0.0107022
0.0138206
0.0172057
0.0208316
0.0246622
0.0286506
0.0327493
0.0368944
0.0410183
0.0446743
0.0477459
0.0504052
0.0527143
0.0547235
0.0564736
0.0579979
0.0592656
0.0602736
0.0610758
0.0617191
0.0622383
0.0626599
0.0630039
0.0632859
0.0635183
0.0637107
0.0638706
0.0640042
0.0641164
0.0642111
0.000109358
0.00123785
0.00304108
0.00520841
0.00768526
0.0104544
0.0135025
0.016812
0.0203579
0.0241052
0.0280082
0.03202
0.0360784
0.040116
0.0436942
0.0466977
0.0492938
0.0515422
0.0534909
0.0551789
0.0566376
0.0578376
0.0587789
0.059516
0.060096
0.0605541
0.0609169
0.0612048
0.0614337
0.0616159
0.061761
0.0618768
0.0619694
0.0620435
0.0621029
0.0723659
0.0700098
0.0678046
0.0657995
0.0640502
0.0626158
0.0615549
0.0609181
0.060736
0.0610062
0.0616837
0.0626784
0.0638582
0.065124
0.0664423
0.0678124
0.0692315
0.0706877
0.0721916
0.0737636
0.0753585
0.0769304
0.0987209
0.0958892
0.0929805
0.0900563
0.0873167
0.0850054
0.0833651
0.0824566
0.0822706
0.082732
0.0837236
0.0851112
0.0867391
0.088468
0.0901856
0.0916229
0.0930758
0.0941352
0.0949175
0.0955659
0.0961318
0.0966571
0.117282
0.117285
0.117426
0.117656
0.117925
0.118136
0.118217
0.118074
0.117747
0.117284
0.116724
0.116114
0.115516
0.114973
0.1145
0.114095
0.113748
0.113438
0.113146
0.112858
0.112566
0.112267
0.129917
0.13073
0.131598
0.132407
0.133009
0.133341
0.133351
0.133183
0.132832
0.132304
0.131607
0.13077
0.129846
0.128884
0.127911
0.12694
0.125995
0.125095
0.12425
0.123451
0.122695
0.121983
0.135629
0.135531
0.135408
0.135309
0.135192
0.135028
0.134802
0.134514
0.134167
0.133766
0.133319
0.13284
0.132352
0.131884
0.131459
0.131102
0.130772
0.130435
0.130059
0.129638
0.129176
0.128683
0.135683
0.13556
0.135402
0.135232
0.135054
0.134875
0.134699
0.134519
0.134334
0.13414
0.133931
0.133703
0.133457
0.133187
0.132874
0.132501
0.132108
0.131726
0.131375
0.131048
0.130743
0.130458
0.129717
0.129827
0.129918
0.129993
0.130054
0.130103
0.130141
0.13017
0.130194
0.130213
0.130228
0.13024
0.130248
0.130253
0.130254
0.130253
0.130237
0.130202
0.130151
0.130086
0.130011
0.129926
0.123398
0.12366
0.123918
0.124169
0.124411
0.124645
0.124868
0.125081
0.125284
0.125476
0.125657
0.12582
0.125966
0.126091
0.126198
0.126287
0.126362
0.126422
0.126469
0.126505
0.126532
0.126551
0.11865
0.118943
0.11924
0.119541
0.119842
0.12014
0.120434
0.120723
0.121006
0.121281
0.121548
0.121803
0.12204
0.122255
0.122448
0.122622
0.122776
0.122913
0.123034
0.123141
0.123237
0.123322
0.115377
0.115668
0.115965
0.116266
0.116572
0.116881
0.117193
0.117505
0.117816
0.118123
0.118425
0.118716
0.118987
0.119233
0.119456
0.119658
0.11984
0.120004
0.120152
0.120285
0.120405
0.120515
0.112611
0.112937
0.113265
0.113594
0.113925
0.114257
0.11459
0.114922
0.115253
0.115582
0.115907
0.116225
0.116526
0.116803
0.117058
0.117292
0.117506
0.117702
0.11788
0.118041
0.118188
0.118323
0.109771
0.110148
0.110527
0.110906
0.111285
0.111663
0.112041
0.112418
0.112792
0.113163
0.11353
0.113888
0.114226
0.114539
0.114828
0.115094
0.115339
0.115563
0.115769
0.115958
0.11613
0.116287
0.106697
0.107134
0.107571
0.108006
0.108441
0.108874
0.109305
0.109734
0.110161
0.110583
0.111001
0.11141
0.111798
0.112159
0.112495
0.112806
0.113094
0.11336
0.113606
0.113833
0.114041
0.114234
0.103446
0.103941
0.104435
0.104927
0.105417
0.105905
0.106392
0.106876
0.107357
0.107834
0.108307
0.108771
0.109212
0.109623
0.110006
0.110363
0.110694
0.111002
0.111288
0.111552
0.111797
0.112023
0.100091
0.100639
0.101187
0.101732
0.102275
0.102817
0.103356
0.103892
0.104425
0.104955
0.10548
0.105996
0.10649
0.106951
0.107382
0.107785
0.108161
0.108512
0.108839
0.109144
0.109428
0.109691
0.0967494
0.0973419
0.0979338
0.0985247
0.0991143
0.0997021
0.100288
0.100871
0.10145
0.102026
0.102598
0.10316
0.103697
0.1042
0.10467
0.10511
0.105522
0.105908
0.106269
0.106607
0.106923
0.107218
0.0934746
0.0941032
0.0947324
0.0953617
0.0959906
0.0966186
0.0972451
0.0978694
0.0984906
0.099108
0.0997204
0.100322
0.100898
0.101436
0.101941
0.102415
0.102859
0.103276
0.103667
0.104034
0.104379
0.104702
0.090326
0.0909813
0.0916389
0.092298
0.0929579
0.093618
0.0942772
0.0949348
0.0955899
0.0962416
0.0968891
0.0975266
0.0981364
0.0987083
0.099245
0.0997487
0.100222
0.100666
0.101083
0.101475
0.101844
0.10219
0.0873292
0.0880031
0.0886813
0.0893626
0.0900463
0.0907314
0.0914171
0.0921024
0.0927865
0.0934682
0.0941466
0.0948155
0.0954563
0.0960582
0.0966236
0.0971548
0.0976541
0.0981234
0.0985648
0.0989799
0.0993705
0.0997381
0.0845072
0.0851922
0.0858829
0.0865785
0.0872783
0.0879815
0.0886871
0.089394
0.0901014
0.0908079
0.0915124
0.0922085
0.0928766
0.0935051
0.0940964
0.0946527
0.0951761
0.0956687
0.0961323
0.0965687
0.0969796
0.0973665
0.0818614
0.082553
0.0832516
0.0839566
0.0846673
0.085383
0.0861027
0.0868257
0.0875507
0.0882766
0.0890022
0.0897207
0.090412
0.0910635
0.0916776
0.0922562
0.0928015
0.0933153
0.0937994
0.0942557
0.0946857
0.0950909
0.079383
0.0800782
0.0807816
0.0814927
0.0822109
0.0829354
0.0836655
0.0844003
0.0851387
0.0858797
0.086622
0.0873588
0.0880692
0.0887402
0.0893739
0.0899721
0.0905367
0.0910696
0.0915725
0.092047
0.0924947
0.0929171
0.0770565
0.0777539
0.0784606
0.079176
0.0798996
0.0806309
0.0813689
0.082113
0.0828622
0.0836153
0.0843713
0.0851231
0.0858495
0.086537
0.0871874
0.0878026
0.0883843
0.0889341
0.0894538
0.0899449
0.0904089
0.0908473
0.0748566
0.0755565
0.0762666
0.0769864
0.0777155
0.0784531
0.0791986
0.0799513
0.0807101
0.0814742
0.0822422
0.0830074
0.0837479
0.08445
0.0851153
0.0857455
0.0863424
0.0869075
0.0874424
0.0879486
0.0884275
0.0888806
0.0727531
0.0734572
0.0741723
0.0748981
0.075634
0.0763794
0.0771336
0.0778959
0.0786653
0.0794409
0.0802215
0.0810001
0.0817545
0.0824706
0.0831501
0.0837946
0.0844057
0.084985
0.085534
0.0860542
0.086547
0.0870138
0.070712
0.0714228
0.0721456
0.0728801
0.0736257
0.0743818
0.0751476
0.0759224
0.0767052
0.0774948
0.0782902
0.0790842
0.0798542
0.0805856
0.0812801
0.0819393
0.0825649
0.0831584
0.0837213
0.0842551
0.0847613
0.0852413
0.0686981
0.0694183
0.070152
0.0708987
0.0716578
0.0724286
0.0732103
0.0740019
0.0748024
0.0756106
0.076425
0.0772385
0.0780276
0.0787774
0.0794895
0.0801657
0.0808074
0.0814164
0.0819942
0.0825424
0.0830624
0.0835557
0.0666771
0.0674093
0.0681569
0.0689194
0.0696961
0.0704862
0.0712888
0.0721027
0.0729267
0.0737593
0.0745989
0.0754377
0.0762516
0.0770248
0.0777591
0.0784561
0.0791175
0.0797449
0.0803399
0.0809043
0.0814396
0.0819474
0.0646185
0.0653642
0.0661279
0.0669091
0.067707
0.068521
0.0693497
0.0701919
0.0710459
0.07191
0.0727823
0.0736541
0.0745002
0.0753038
0.0760666
0.0767902
0.0774763
0.0781266
0.078743
0.0793271
0.0798805
0.080405
0.0624978
0.0632569
0.0640374
0.0648388
0.0656605
0.0665017
0.0673611
0.0682371
0.0691278
0.070031
0.0709442
0.071858
0.0727453
0.073588
0.0743875
0.0751452
0.0758628
0.0765423
0.0771855
0.0777943
0.0783705
0.0789158
0.0786415
0.0802219
0.0813194
0.0818941
0.0819302
0.0814904
0.09739
0.0984214
0.0995779
0.100886
0.102155
0.10324
0.112019
0.11183
0.111644
0.111451
0.111356
0.111407
0.121316
0.120708
0.120138
0.119653
0.11924
0.11895
0.128162
0.127619
0.12709
0.126604
0.126186
0.125846
0.130178
0.129927
0.129727
0.12955
0.129377
0.129201
0.129785
0.129579
0.129373
0.129169
0.128972
0.12879
0.126488
0.126341
0.126195
0.126053
0.125916
0.125786
0.123324
0.123238
0.123148
0.123056
0.122963
0.122872
0.12055
0.120508
0.12046
0.120405
0.120345
0.120281
0.118387
0.118378
0.118358
0.118329
0.118292
0.118248
0.11637
0.116376
0.116371
0.116357
0.116335
0.116303
0.114338
0.114352
0.114355
0.114347
0.114329
0.114301
0.112144
0.112158
0.11216
0.112151
0.112131
0.1121
0.10983
0.109841
0.109839
0.109824
0.109797
0.109757
0.10737
0.107375
0.107367
0.107346
0.107312
0.107265
0.104865
0.104866
0.104854
0.104827
0.104787
0.104734
0.102364
0.102362
0.102346
0.102316
0.102272
0.102215
0.0999218
0.0999196
0.099903
0.099872
0.0998266
0.0997674
0.0975606
0.09756
0.0975448
0.097515
0.0974707
0.0974123
0.0952957
0.0952984
0.0952864
0.0952596
0.0952184
0.0951627
0.0931324
0.0931395
0.0931316
0.0931093
0.0930724
0.0930209
0.0910729
0.0910847
0.0910817
0.0910642
0.0910322
0.0909858
0.0891159
0.0891323
0.0891342
0.0891217
0.0890948
0.0890536
0.0872581
0.0872788
0.0872852
0.0872773
0.0872552
0.087219
0.085494
0.0855185
0.0855288
0.085525
0.0855072
0.0854755
0.0838165
0.083844
0.0838575
0.0838573
0.0838432
0.0838154
0.0822163
0.0822461
0.0822622
0.0822647
0.0822537
0.0822292
0.0806826
0.0807139
0.0807318
0.0807364
0.0807279
0.0807062
0.079203
0.0792347
0.0792536
0.0792598
0.0792533
0.0792342
0.0808332
0.080251
0.0796726
0.0791845
0.0788665
0.0787764
0.0789424
0.0793624
0.0800073
0.0808273
0.0817584
0.0827216
0.083625
0.0844123
0.0850452
0.0855111
0.0858131
0.0859637
0.0859958
0.0859428
0.0858332
0.0856914
0.103997
0.104529
0.104728
0.104573
0.104103
0.103385
0.102497
0.101479
0.100411
0.0993571
0.0984827
0.0980542
0.0979602
0.0981566
0.0984655
0.0988097
0.0991605
0.0995075
0.0998484
0.100178
0.100484
0.100742
0.111636
0.112023
0.112547
0.113218
0.114017
0.114834
0.115574
0.116289
0.117001
0.117763
0.118614
0.119541
0.120362
0.121031
0.121565
0.121962
0.122206
0.122325
0.122361
0.122366
0.122358
0.122335
0.118867
0.118922
0.119033
0.119167
0.119295
0.119502
0.119887
0.120443
0.121172
0.122035
0.12312
0.124436
0.125741
0.127009
0.128189
0.129176
0.129989
0.130685
0.13134
0.131871
0.132221
0.132371
0.125688
0.125684
0.125749
0.125881
0.126084
0.126366
0.126743
0.127207
0.127747
0.128321
0.128977
0.129608
0.13016
0.13061
0.13094
0.131197
0.131395
0.131569
0.131741
0.131944
0.132187
0.132482
0.129076
0.128997
0.12894
0.128911
0.128912
0.128942
0.128994
0.129061
0.129139
0.129216
0.129291
0.129352
0.129388
0.129393
0.129352
0.129267
0.129149
0.128991
0.128863
0.128776
0.128738
0.128753
0.128612
0.128427
0.128252
0.128089
0.127935
0.127788
0.127646
0.127507
0.127368
0.127227
0.12708
0.126929
0.126771
0.126608
0.126445
0.126284
0.12613
0.125989
0.125864
0.125759
0.125675
0.125613
0.125617
0.1254
0.125188
0.124977
0.124769
0.124563
0.124355
0.124146
0.123931
0.12371
0.123478
0.123236
0.122988
0.122742
0.122499
0.122262
0.122032
0.121812
0.121604
0.121409
0.121228
0.121061
0.122725
0.122521
0.122315
0.122108
0.121898
0.121686
0.121471
0.121252
0.121029
0.1208
0.120564
0.120324
0.120085
0.119853
0.11963
0.119418
0.119217
0.119027
0.118847
0.118676
0.118512
0.118356
0.120159
0.11998
0.119798
0.119613
0.119424
0.119232
0.119034
0.11883
0.118619
0.1184
0.118172
0.117935
0.117695
0.117459
0.117226
0.116999
0.116777
0.116559
0.116343
0.116129
0.115914
0.115698
0.118143
0.117978
0.117807
0.117629
0.117444
0.11725
0.117048
0.116835
0.116613
0.116378
0.116131
0.115871
0.115603
0.115335
0.115063
0.11479
0.114515
0.114238
0.113957
0.113671
0.11338
0.113082
0.116201
0.11603
0.115848
0.115655
0.11545
0.115232
0.114999
0.114751
0.114487
0.114203
0.113898
0.113572
0.113232
0.112885
0.11253
0.112168
0.111798
0.111421
0.111037
0.110645
0.110245
0.109837
0.114184
0.113981
0.113762
0.113528
0.113276
0.113006
0.112716
0.112405
0.112071
0.111711
0.111324
0.110909
0.110477
0.110037
0.109589
0.109132
0.108669
0.108197
0.107719
0.107234
0.106742
0.106245
0.111961
0.111715
0.111449
0.111164
0.110857
0.110527
0.110172
0.109791
0.109383
0.108943
0.108472
0.10797
0.107448
0.10692
0.106385
0.105844
0.105299
0.104748
0.104194
0.103637
0.103078
0.102519
0.109589
0.109292
0.108974
0.108633
0.108268
0.107876
0.107458
0.107011
0.106533
0.106023
0.105479
0.104904
0.104311
0.103714
0.103114
0.102512
0.101909
0.101305
0.100703
0.100101
0.0995028
0.0989074
0.107071
0.106731
0.106368
0.105981
0.105569
0.105129
0.104662
0.104165
0.103637
0.103076
0.10248
0.101853
0.101211
0.100568
0.099926
0.099285
0.0986465
0.0980115
0.0973809
0.0967555
0.096136
0.095523
0.104517
0.104141
0.103742
0.103318
0.10287
0.102394
0.101891
0.101359
0.100796
0.100201
0.099572
0.0989125
0.0982396
0.0975686
0.0969009
0.0962377
0.09558
0.0949286
0.0942844
0.0936478
0.093019
0.0923984
0.101982
0.101579
0.101153
0.100703
0.100229
0.0997276
0.0991994
0.0986428
0.0980565
0.0974392
0.0967894
0.0961106
0.095421
0.094736
0.0940566
0.0933836
0.0927176
0.0920591
0.0914088
0.0907673
0.0901347
0.0895113
0.0995237
0.0991007
0.0986554
0.0981867
0.0976936
0.0971751
0.0966301
0.0960576
0.0954564
0.0948252
0.0941629
0.0934729
0.0927737
0.0920808
0.0913948
0.0907164
0.0900461
0.0893842
0.0887309
0.0880866
0.0874512
0.0868252
0.0971615
0.0967244
0.0962653
0.0957834
0.0952776
0.0947471
0.0941908
0.0936077
0.0929965
0.0923562
0.0916855
0.090988
0.0902822
0.0895834
0.0888924
0.0882096
0.0875353
0.0868697
0.0862132
0.0855659
0.0849278
0.0842992
0.0949078
0.0944602
0.0939911
0.0934996
0.0929847
0.0924455
0.091881
0.0912901
0.0906717
0.0900245
0.0893472
0.0886435
0.0879319
0.0872278
0.0865318
0.0858443
0.0851654
0.0844955
0.0838348
0.0831833
0.0825412
0.0819086
0.092764
0.0923084
0.0918315
0.0913325
0.0908105
0.0902643
0.089693
0.0890956
0.0884707
0.0878171
0.0871334
0.0864233
0.0857053
0.0849951
0.084293
0.0835994
0.0829146
0.0822389
0.0815724
0.0809155
0.0802681
0.0796305
0.090728
0.0902657
0.0897823
0.0892768
0.0887483
0.0881957
0.087618
0.087014
0.0863823
0.0857218
0.0850309
0.0843131
0.0835874
0.0828694
0.0821596
0.0814583
0.080766
0.080083
0.0794095
0.0787459
0.0780922
0.0774487
0.0887954
0.0883269
0.0878372
0.0873253
0.0867903
0.086231
0.0856462
0.0850347
0.0843952
0.0837262
0.0830262
0.0822988
0.0815631
0.0808351
0.0801153
0.0794042
0.0787022
0.0780098
0.0773274
0.0766553
0.0759937
0.075343
0.0869603
0.0864855
0.0859891
0.0854702
0.0849278
0.0843605
0.0837672
0.0831464
0.0824969
0.081817
0.0811052
0.0803651
0.0796163
0.0788751
0.0781422
0.0774181
0.0767036
0.0759991
0.0753051
0.0746221
0.0739505
0.0732906
0.0852159
0.0847337
0.0842296
0.0837023
0.0831507
0.0825734
0.0819691
0.0813362
0.0806734
0.0799791
0.0792515
0.0784946
0.0777283
0.0769695
0.0762192
0.0754781
0.0747471
0.0740268
0.073318
0.0726211
0.0719367
0.0712652
0.0835537
0.0830627
0.0825488
0.0820108
0.0814473
0.0808568
0.0802378
0.0795888
0.0789083
0.0781945
0.0774459
0.0766663
0.0758768
0.0750949
0.0743218
0.0735586
0.0728064
0.072066
0.0713384
0.0706243
0.0699242
0.0692386
0.0819641
0.0814617
0.0809352
0.080383
0.0798036
0.0791954
0.0785568
0.0778863
0.077182
0.0764423
0.0756657
0.0748565
0.0740367
0.0732249
0.0724227
0.0716315
0.0708529
0.0700879
0.0693377
0.0686031
0.0678848
0.0671833
0.0804358
0.0799186
0.0793752
0.078804
0.0782034
0.0775717
0.0769071
0.0762079
0.0754724
0.0746989
0.073886
0.0730386
0.0721803
0.071331
0.0704929
0.069668
0.0688579
0.0680643
0.0672882
0.0665308
0.0657927
0.0650744
0.0789564
0.0784192
0.0778532
0.0772568
0.0766283
0.0759658
0.0752673
0.074531
0.0737552
0.0729385
0.0720798
0.0711848
0.0702793
0.0693849
0.0685044
0.0676403
0.0667948
0.0659695
0.0651659
0.0643849
0.0636272
0.0628931
0.0855201
0.0853301
0.0851582
0.0849955
0.0848152
0.0845817
0.0842448
0.0837189
0.0830673
0.0822068
0.0812631
0.0804514
0.0799458
0.0797695
0.0797946
0.0797968
0.0796471
0.0792825
0.0786674
0.0777239
0.0762889
0.0740733
0.0701331
0.066658
0.0633647
0.0599839
0.0563465
0.0517904
0.0459958
0.039073
0.0312263
0.0226522
0.0136136
0.00507999
0.00109454
0.100884
0.100948
0.101025
0.10112
0.101235
0.101373
0.101538
0.101738
0.101979
0.102274
0.102644
0.103111
0.103688
0.104378
0.105037
0.104937
0.104345
0.103195
0.10162
0.0995011
0.0963846
0.0919241
0.0868619
0.0833741
0.0869073
0.0934507
0.0990239
0.0998042
0.0977983
0.0909268
0.0785292
0.0598335
0.0373491
0.0153698
0.00173177
0.122258
0.122156
0.12206
0.121973
0.121907
0.121877
0.121907
0.122034
0.122308
0.122775
0.123475
0.124351
0.125074
0.125028
0.123464
0.120281
0.114988
0.107359
0.0977786
0.0879142
0.0790058
0.0727037
0.0709873
0.077133
0.0858823
0.0938096
0.0975715
0.0963207
0.0903203
0.080443
0.0674961
0.052133
0.0345699
0.0157902
0.00163466
0.132345
0.132303
0.132288
0.132342
0.132519
0.13289
0.133535
0.134538
0.13595
0.137682
0.139168
0.138829
0.135935
0.130018
0.119318
0.104874
0.092204
0.0792079
0.0712122
0.068422
0.070059
0.0716345
0.069286
0.0662043
0.0643976
0.0633581
0.0620823
0.0590628
0.0549569
0.0488525
0.0408541
0.0313206
0.0206117
0.00935495
0.00130561
0.132777
0.133078
0.133466
0.13398
0.13466
0.13554
0.136619
0.137798
0.138823
0.139389
0.139204
0.138309
0.13696
0.135277
0.132771
0.127346
0.116574
0.0988056
0.072609
0.0509989
0.0463731
0.0524584
0.0590855
0.0618358
0.0611035
0.05843
0.0546274
0.0497704
0.0440802
0.0377214
0.0308614
0.0235654
0.0158481
0.00774125
0.000911235
0.128828
0.128939
0.129092
0.129295
0.129561
0.129898
0.130311
0.130786
0.131268
0.131624
0.131611
0.130738
0.128307
0.123511
0.115363
0.102173
0.0866552
0.0691203
0.0522013
0.0407568
0.0323552
0.0290214
0.028239
0.0277644
0.0272244
0.0259767
0.0243584
0.0226384
0.0202788
0.017377
0.0141364
0.0106831
0.00706513
0.00331504
0.000577103
0.125614
0.125672
0.125744
0.125835
0.125949
0.126088
0.126244
0.126392
0.126469
0.126356
0.12587
0.124967
0.123676
0.121812
0.118873
0.11415
0.107027
0.0975002
0.0865678
0.0752219
0.0640685
0.0532591
0.0435204
0.0353489
0.0280822
0.0218248
0.0170846
0.0143116
0.0125002
0.0111787
0.00931631
0.00712545
0.00478092
0.00234749
0.000314352
0.120969
0.120947
0.120924
0.120902
0.120883
0.120863
0.120841
0.120809
0.12076
0.120674
0.120507
0.120169
0.119507
0.11828
0.116229
0.113256
0.10938
0.104438
0.0982495
0.0907702
0.0822561
0.0727464
0.0628173
0.0530095
0.0429972
0.0328551
0.0240064
0.0173179
0.0133068
0.0107242
0.00839538
0.00612809
0.00381287
0.00161447
0.000233217
0.118258
0.118226
0.118188
0.118144
0.118093
0.118034
0.117962
0.117865
0.117723
0.117496
0.117122
0.116524
0.115635
0.114376
0.112642
0.110328
0.10738
0.103662
0.0990098
0.0932221
0.086085
0.0776439
0.0688429
0.0608939
0.0537151
0.047097
0.0409583
0.0351867
0.0296424
0.0241946
0.0187175
0.0131978
0.00779829
0.00308339
0.000353935
0.115551
0.115476
0.115387
0.115281
0.115153
0.114999
0.114811
0.114577
0.114281
0.113898
0.113399
0.112736
0.111842
0.110612
0.108912
0.106676
0.103968
0.100765
0.0969968
0.0925494
0.0872775
0.0808317
0.0733499
0.0656164
0.0577848
0.0500036
0.0423663
0.0350282
0.028131
0.0217886
0.0160655
0.0109754
0.00650286
0.00268851
0.000293178
0.112878
0.112772
0.112646
0.112497
0.11232
0.112108
0.111853
0.111542
0.111159
0.110675
0.110051
0.109233
0.108159
0.106754
0.10494
0.10273
0.100184
0.0972492
0.0938375
0.0898212
0.0850133
0.0789876
0.0717259
0.0639644
0.0559438
0.047941
0.040229
0.0330148
0.0264093
0.0204425
0.0150913
0.0103105
0.00606932
0.00245463
0.000280833
0.109561
0.109418
0.109252
0.109056
0.108825
0.108551
0.108223
0.107827
0.107346
0.106756
0.106028
0.105125
0.103999
0.102588
0.100825
0.0987092
0.0962778
0.093481
0.0902649
0.0865329
0.0821267
0.0766677
0.0701404
0.0631649
0.0558824
0.0485414
0.0412421
0.0341873
0.0275294
0.0213629
0.015746
0.0107125
0.00629321
0.00258915
0.000257066
0.105913
0.105743
0.105547
0.105319
0.105054
0.104744
0.104379
0.103948
0.103434
0.102815
0.102062
0.101135
0.0999878
0.098561
0.0967932
0.0946925
0.0923111
0.0896091
0.0865141
0.082907
0.0786098
0.0732329
0.066748
0.0597907
0.052533
0.0452124
0.0380372
0.031218
0.0249007
0.0191642
0.0140333
0.00949887
0.00554947
0.00225032
0.000232966
0.102149
0.101962
0.101747
0.1015
0.101214
0.10088
0.100491
0.100032
0.0994891
0.0988418
0.0980647
0.0971254
0.0959824
0.0945804
0.092861
0.0908396
0.088556
0.0859603
0.0829745
0.0794861
0.0753466
0.0702187
0.0641198
0.0576523
0.0509428
0.0441858
0.037502
0.0310393
0.0249415
0.0193011
0.0141797
0.00961494
0.00563629
0.00232066
0.00021925
0.0985157
0.0983179
0.0980918
0.0978328
0.0975348
0.0971907
0.0967913
0.0963253
0.095778
0.0951308
0.0943585
0.0934295
0.0923045
0.0909304
0.0892466
0.08727
0.085033
0.0824778
0.0795259
0.0760707
0.0719666
0.0668791
0.060831
0.0544343