/*--------------------------------*- C++ -*----------------------------------*\
  =========                 |
  \\      /  F ield         | OpenFOAM: The Open Source CFD Toolbox
   \\    /   O peration     | Website:  https://openfoam.org
    \\  /    A nd           | Version:  8
     \\/     M anipulation  |
\*---------------------------------------------------------------------------*/
FoamFile
{
    version     2.0;
    format      ascii;
    class       surfaceScalarField;
    location    "0.1";
    object      phi;
}
// * * * * * * * * * * * * * * * * * * * * * * * * * * * * * * * * * * * * * //

dimensions      [1 0 -1 0 0 0 0];

internalField   nonuniform List<scalar> 
31053
(
-2.28175e-05
2.15638e-05
-4.33959e-05
2.16173e-05
-6.23963e-05
2.25572e-05
-8.10678e-05
2.41807e-05
-0.000100405
2.61282e-05
-0.00012063
2.77744e-05
-0.000141008
2.82068e-05
-0.000159147
2.57695e-05
-0.000169199
1.6975e-05
-0.000157767
-5.7476e-06
-0.000106408
-4.73549e-05
3.10034e-06
-0.000107698
0.000167181
-0.000163039
0.00036622
-0.000199082
0.000564147
-0.000196155
0.000756962
-0.00018937
0.00093763
-0.000175655
0.00110063
-0.000156773
0.00122787
-0.000120097
0.00131248
-7.69211e-05
0.00135078
-3.0173e-05
0.00134637
1.38418e-05
0.00131365
4.35692e-05
0.00126603
5.9621e-05
0.00121486
6.40407e-05
0.00116708
6.13237e-05
0.00112474
5.63835e-05
0.00108828
5.08602e-05
0.00105757
4.53247e-05
0.00103222
4.00382e-05
0.00101175
3.51025e-05
0.00099567
3.05362e-05
0.000983521
2.63201e-05
0.000974874
2.24259e-05
1.95348e-05
0.000967948
-0.00010023
0.000121585
-0.000223235
0.000144398
-0.000361697
0.000160782
-0.000512349
0.000174577
-0.000671586
0.000185097
-0.000834392
0.000190299
-0.000992925
0.000186459
-0.00113473
0.00016731
-0.00124168
0.00012373
-0.00129
4.24662e-05
-0.00125988
-7.75218e-05
-0.00114117
-0.000226378
-0.000925464
-0.000378859
-0.000619874
-0.00050449
-0.000343528
-0.000472479
-8.86516e-05
-0.000444493
0.000143268
-0.00040835
0.000352367
-0.00036702
0.00054686
-0.000315985
0.000723418
-0.000254918
0.000876561
-0.000184723
0.00099191
-0.000102671
0.00107495
-4.03372e-05
0.00112851
5.32718e-06
0.00114415
4.77998e-05
0.00113483
7.01422e-05
0.00110925
8.15179e-05
0.00107355
8.6194e-05
0.00103203
8.65295e-05
0.000987742
8.40654e-05
0.000942785
7.98369e-05
0.000898581
7.45516e-05
0.000856029
6.86985e-05
0.000815679
6.26157e-05
5.61155e-05
0.000778942
4.06757e-05
8.10847e-05
8.15376e-05
0.000103749
0.000128485
0.000114086
0.000181579
0.000121789
0.000240646
0.000126417
0.000305517
0.000125915
0.000375233
0.000117364
0.000447
9.63297e-05
0.000515936
5.58064e-05
0.000568105
-8.47031e-06
0.000567358
-7.52767e-05
0.000495332
-0.000152566
0.000350513
-0.00023199
0.000147543
-0.000299389
-4.61474e-05
-0.000277229
-0.000228994
-0.000260261
-0.000394935
-0.000241118
-0.000540552
-0.000220274
-0.000660374
-0.000195254
-0.000750943
-0.000163674
-0.000810187
-0.000124889
-0.000834668
-7.77824e-05
-0.000840688
-3.41663e-05
-0.00083459
-5.23104e-07
-0.000810772
2.44271e-05
-0.000779783
3.96618e-05
-0.000749198
5.14568e-05
-0.000717939
5.54903e-05
-0.00068615
5.52955e-05
-0.000654247
5.2693e-05
-0.000622673
4.87605e-05
-0.000591848
4.41913e-05
-0.000562159
3.94447e-05
-0.00053395
3.48111e-05
3.10216e-05
-0.000508491
9.6339e-05
-1.53885e-05
0.000202053
-2.11846e-06
0.000315531
4.43572e-07
0.000437479
-3.4233e-07
0.000567972
-4.27897e-06
0.000705075
-1.14134e-05
0.000844146
-2.19484e-05
0.000976199
-3.59784e-05
0.00108433
-5.2597e-05
0.00114544
-6.98124e-05
0.00116367
-9.37419e-05
0.00113837
-0.000127598
0.0010738
-0.000167895
0.000981689
-0.00020792
0.000902745
-0.000199008
0.000834722
-0.000193092
0.000773972
-0.00018123
0.000716281
-0.000163319
0.000659302
-0.000138844
0.000601747
-0.000106484
0.000541453
-6.47591e-05
0.000475476
-1.18083e-05
0.000422181
1.91411e-05
0.000384471
3.71096e-05
0.00036226
4.64464e-05
0.00035043
5.12551e-05
0.000347999
5.3678e-05
0.000348521
5.47636e-05
0.000348815
5.47958e-05
0.000347399
5.39075e-05
0.000343742
5.2225e-05
0.000337843
4.99058e-05
0.000329995
4.71247e-05
0.00032061
4.40449e-05
4.05198e-05
0.000310979
4.12308e-06
-1.9533e-05
2.51164e-05
-2.31347e-05
5.19497e-05
-2.64083e-05
8.15896e-05
-3.00059e-05
0.000111307
-3.40227e-05
0.000138531
-3.86638e-05
0.000160763
-4.42081e-05
0.000175751
-5.09931e-05
0.000182406
-5.92761e-05
0.000181656
-6.90832e-05
0.000168139
-8.02348e-05
0.000133528
-9.29645e-05
7.32212e-05
-0.000107557
-1.10523e-05
-0.000123646
-9.42344e-05
-0.000115745
-0.000175701
-0.000111398
-0.000252744
-0.000103814
-0.000322805
-9.27526e-05
-0.000382755
-7.82722e-05
-0.000427883
-6.06336e-05
-0.00045087
-4.10085e-05
-0.00044428
-1.77598e-05
-0.00042891
4.29752e-06
-0.000411305
1.99334e-05
-0.000397974
3.34559e-05
-0.000386492
4.00667e-05
-0.000375521
4.29702e-05
-0.000364141
4.36237e-05
-0.000351953
4.28293e-05
-0.000338943
4.11027e-05
-0.000325329
3.88024e-05
-0.00031143
3.61849e-05
-0.000297573
3.34345e-05
-0.00028405
3.06774e-05
2.82726e-05
-0.000271657
8.75829e-06
-2.83329e-05
1.6752e-05
-3.11755e-05
2.40899e-05
-3.37998e-05
3.09646e-05
-3.69406e-05
3.75453e-05
-4.06721e-05
4.38129e-05
-4.5011e-05
4.95095e-05
-4.99975e-05
5.41238e-05
-5.5715e-05
5.70104e-05
-6.22867e-05
5.7665e-05
-6.98789e-05
5.59766e-05
-7.87128e-05
5.18253e-05
-8.90229e-05
4.51864e-05
-0.000101161
3.62249e-05
-0.000114978
2.52461e-05
-0.000105109
1.19131e-05
-9.84353e-05
-3.75659e-06
-8.85294e-05
-2.17399e-05
-7.51564e-05
-4.20641e-05
-5.83375e-05
-6.50247e-05
-3.80724e-05
-9.38269e-05
-1.26221e-05
-0.000118991
7.06106e-06
-0.000133709
1.87263e-05
-0.000140294
2.62557e-05
-0.000138456
3.13846e-05
-0.000133476
3.48807e-05
-0.000127724
3.70364e-05
-0.000122346
3.80847e-05
-0.000117867
3.82058e-05
-0.000114466
3.75728e-05
-0.000112135
3.63544e-05
-0.000110764
3.47077e-05
-0.000110197
3.27719e-05
-0.000110268
3.06619e-05
2.83022e-05
-0.000110375
-9.98023e-06
-1.83603e-05
-1.9355e-05
-2.18097e-05
-2.80037e-05
-2.51636e-05
-3.61903e-05
-2.87702e-05
-4.41995e-05
-3.26836e-05
-5.22677e-05
-3.69677e-05
-6.06234e-05
-4.16692e-05
-6.95452e-05
-4.68233e-05
-7.9413e-05
-5.24508e-05
-9.07772e-05
-5.85461e-05
-0.000104462
-6.50522e-05
-0.000121705
-7.17881e-05
-0.000144561
-7.8299e-05
-0.00017562
-8.38884e-05
-0.000207253
-7.33922e-05
-0.00023933
-6.62282e-05
-0.000269921
-5.77721e-05
-0.000296863
-4.80189e-05
-0.000317862
-3.71218e-05
-0.00033009
-2.56018e-05
-0.000328243
-1.41617e-05
-0.000320728
-2.34065e-07
-0.00031346
1.16426e-05
-0.000308895
2.18475e-05
-0.00030474
2.73661e-05
-0.000299966
3.02258e-05
-0.000294191
3.13662e-05
-0.000287349
3.13345e-05
-0.00027957
3.05075e-05
-0.000271083
2.91586e-05
-0.000262157
2.74919e-05
-0.000253048
2.56557e-05
-0.000243981
2.37559e-05
-0.000235139
2.18653e-05
2.01598e-05
-0.000226957
-2.20253e-07
-1.8175e-05
-1.83338e-06
-2.02358e-05
-4.80699e-06
-2.2234e-05
-8.97921e-06
-2.46475e-05
-1.41994e-05
-2.75198e-05
-2.03655e-05
-3.08655e-05
-2.74002e-05
-3.47082e-05
-3.52385e-05
-3.90708e-05
-4.38275e-05
-4.39622e-05
-5.31324e-05
-4.93585e-05
-6.31523e-05
-5.51713e-05
-7.39058e-05
-6.12018e-05
-8.53432e-05
-6.70619e-05
-9.75944e-05
-7.18748e-05
-0.000109727
-6.14912e-05
-0.000122181
-5.40126e-05
-0.000134821
-4.53751e-05
-0.000147591
-3.54929e-05
-0.000160688
-2.42703e-05
-0.000175526
-1.10146e-05
-0.000191474
1.49787e-06
-0.000202013
1.0088e-05
-0.000206129
1.55712e-05
-0.000204221
1.97744e-05
-0.000199748
2.27475e-05
-0.000194301
2.46499e-05
-0.000188738
2.56901e-05
-0.000183528
2.6024e-05
-0.000178898
2.57876e-05
-0.000174924
2.51061e-05
-0.000171599
2.40963e-05
-0.000168866
2.28605e-05
-0.00016665
2.14839e-05
-0.000164868
2.00339e-05
1.84689e-05
-0.000163222
-7.00898e-06
-1.11723e-05
-1.3849e-05
-1.34037e-05
-2.04916e-05
-1.56014e-05
-2.71548e-05
-1.79966e-05
-3.40629e-05
-2.06264e-05
-4.14224e-05
-2.35235e-05
-4.94472e-05
-2.67036e-05
-5.83783e-05
-3.01628e-05
-6.84939e-05
-3.3872e-05
-8.01135e-05
-3.77663e-05
-9.35835e-05
-4.17293e-05
-0.000109257
-4.55555e-05
-0.000127469
-4.88735e-05
-0.000148196
-5.11659e-05
-0.000166377
-4.33167e-05
-0.000182957
-3.74307e-05
-0.000197497
-3.08239e-05
-0.000209324
-2.36472e-05
-0.000217439
-1.6129e-05
-0.00021978
-8.63777e-06
-0.000217753
-4.93966e-07
-0.00021559
7.95958e-06
-0.000214341
1.43547e-05
-0.000212771
1.82327e-05
-0.000210493
2.04953e-05
-0.000207419
2.15989e-05
-0.000203571
2.18629e-05
-0.000199047
2.15178e-05
-0.000193986
2.07434e-05
-0.000188551
1.96847e-05
-0.000182899
1.84562e-05
-0.000177172
1.7145e-05
-0.000171494
1.58144e-05
-0.000165958
1.45066e-05
1.33243e-05
-0.000160805
-1.6683e-06
-9.52522e-06
-4.24782e-06
-1.08481e-05
-7.71584e-06
-1.21605e-05
-1.2024e-05
-1.37193e-05
-1.71224e-05
-1.55631e-05
-2.29765e-05
-1.77095e-05
-2.9553e-05
-2.0173e-05
-3.68093e-05
-2.29592e-05
-4.4689e-05
-2.60531e-05
-5.31212e-05
-2.94046e-05
-6.20259e-05
-3.29065e-05
-7.13085e-05
-3.63685e-05
-8.08389e-05
-3.94555e-05
-9.05989e-05
-4.1538e-05
-9.94486e-05
-3.4595e-05
-0.000107782
-2.92276e-05
-0.000115586
-2.31529e-05
-0.000123124
-1.62427e-05
-0.000131308
-8.07977e-06
-0.000140652
5.72926e-07
-0.00014794
6.66216e-06
-0.000150693
1.05943e-05
-0.000149762
1.33185e-05
-0.000146897
1.52752e-05
-0.000143109
1.66257e-05
-0.000139073
1.74898e-05
-0.000135203
1.79295e-05
-0.000131712
1.79699e-05
-0.000128679
1.76603e-05
-0.000126106
1.70662e-05
-0.000123949
1.62593e-05
-0.000122148
1.53087e-05
-0.000120646
1.4281e-05
-0.000119396
1.3228e-05
1.21453e-05
-0.000118242
-3.79875e-06
-5.72933e-06
-7.54321e-06
-7.10719e-06
-1.12523e-05
-8.45584e-06
-1.50575e-05
-9.91941e-06
-1.90979e-05
-1.15289e-05
-2.35146e-05
-1.33001e-05
-2.84607e-05
-1.52355e-05
-3.41063e-05
-1.73234e-05
-4.06359e-05
-1.95346e-05
-4.82391e-05
-2.18139e-05
-5.70912e-05
-2.40682e-05
-6.73308e-05
-2.61439e-05
-7.90177e-05
-2.77844e-05
-9.19855e-05
-2.85862e-05
-0.000103057
-2.35361e-05
-0.000112748
-1.95473e-05
-0.000120845
-1.50625e-05
-0.000126911
-1.01816e-05
-0.000129797
-5.19522e-06
-0.000129172
-5.16573e-08
-0.000128792
6.28427e-06
-0.000128861
1.06641e-05
-0.000128836
1.32946e-05
-0.000128345
1.47856e-05
-0.000127239
1.55203e-05
-0.000125526
1.5777e-05
-0.000123274
1.56768e-05
-0.000120585
1.52809e-05
-0.000117581
1.46566e-05
-0.000114386
1.38701e-05
-0.000111107
1.29808e-05
-0.000107836
1.20375e-05
-0.000104642
1.10862e-05
-0.000101582
1.01669e-05
9.32977e-06
-9.87667e-05
-1.73899e-06
-4.00152e-06
-4.02733e-06
-4.83148e-06
-6.84545e-06
-5.65204e-06
-1.01749e-05
-6.60617e-06
-1.39965e-05
-7.72587e-06
-1.82942e-05
-9.02358e-06
-2.30491e-05
-1.05047e-05
-2.82356e-05
-1.21646e-05
-3.38192e-05
-1.39827e-05
-3.9757e-05
-1.59124e-05
-4.59997e-05
-1.78672e-05
-5.24853e-05
-1.97059e-05
-5.91239e-05
-2.12003e-05
-6.58409e-05
-2.19316e-05
-7.16703e-05
-1.77657e-05
-7.69631e-05
-1.43134e-05
-8.18082e-05
-1.02758e-05
-8.63981e-05
-5.64974e-06
-9.11185e-05
-5.32241e-07
-9.45619e-05
3.33522e-06
-9.53844e-05
7.05107e-06
-9.46275e-05
9.858e-06
-9.30847e-05
1.17087e-05
-9.11854e-05
1.28488e-05
-8.91879e-05
1.34895e-05
-8.72015e-05
1.37608e-05
-8.52854e-05
1.37341e-05
-8.34974e-05
1.34691e-05
-8.18733e-05
1.30111e-05
-8.0428e-05
1.24058e-05
-7.91679e-05
1.17036e-05
-7.80918e-05
1.09459e-05
-7.71829e-05
1.01635e-05
-7.64145e-05
9.38613e-06
8.61132e-06
-7.5707e-05
-1.19501e-06
-2.80716e-06
-2.46542e-06
-3.56191e-06
-3.84237e-06
-4.27613e-06
-5.40704e-06
-5.04279e-06
-7.25641e-06
-5.87803e-06
-9.49479e-06
-6.78702e-06
-1.22333e-05
-7.76826e-06
-1.5587e-05
-8.81344e-06
-1.96677e-05
-9.90487e-06
-2.45739e-05
-1.10097e-05
-3.03746e-05
-1.20704e-05
-3.70966e-05
-1.29884e-05
-4.47059e-05
-1.35959e-05
-5.30289e-05
-1.36139e-05
-6.01246e-05
-1.06741e-05
-6.6281e-05
-8.16041e-06
-7.11824e-05
-5.37674e-06
-7.43223e-05
-2.51083e-06
-7.53416e-05
4.86364e-07
-7.65285e-05
4.52159e-06
-7.77503e-05
8.27252e-06
-7.8569e-05
1.06763e-05
-7.89102e-05
1.20496e-05
-7.88149e-05
1.2753e-05
-7.82947e-05
1.29686e-05
-7.73636e-05
1.28289e-05
-7.60888e-05
1.24584e-05
-7.45584e-05
1.19378e-05
-7.28557e-05
1.13076e-05
-7.10544e-05
1.06036e-05
-6.92201e-05
9.86841e-06
-6.74088e-05
9.13376e-06
-6.56625e-05
8.41641e-06
-6.40045e-05
7.72746e-06
7.08904e-06
-6.24829e-05
-1.48504e-06
-1.32906e-06
-3.30196e-06
-1.75278e-06
-5.42055e-06
-2.16631e-06
-7.82978e-06
-2.64353e-06
-1.05168e-05
-3.2023e-06
-1.34682e-05
-3.8486e-06
-1.66682e-05
-4.58293e-06
-2.00994e-05
-5.39908e-06
-2.37432e-05
-6.28014e-06
-2.75824e-05
-7.19213e-06
-3.16029e-05
-8.07434e-06
-3.57886e-05
-8.83024e-06
-4.01052e-05
-9.30962e-06
-4.4515e-05
-9.23765e-06
-4.83198e-05
-6.89994e-06
-5.17536e-05
-4.75611e-06
-5.49804e-05
-2.17822e-06
-5.82554e-05
7.37018e-07
-6.08837e-05
3.08924e-06
-6.21139e-05
5.72794e-06
-6.23267e-05
8.46299e-06
-6.18533e-05
1.01836e-05
-6.09957e-05
1.11754e-05
-5.99358e-05
1.16788e-05
-5.87908e-05
1.1811e-05
-5.76449e-05
1.16719e-05
-5.65416e-05
1.13453e-05
-5.55018e-05
1.08892e-05
-5.45431e-05
1.0341e-05
-5.36786e-05
9.73194e-06
-5.29088e-05
9.09222e-06
-5.22262e-05
8.44539e-06
-5.16213e-05
7.80638e-06
-5.10844e-05
7.18589e-06
6.58239e-06
-5.05819e-05
-2.2297e-07
-1.10735e-06
-5.77639e-07
-1.39966e-06
-1.07435e-06
-1.67147e-06
-1.76058e-06
-1.95951e-06
-2.69864e-06
-2.26681e-06
-3.95596e-06
-2.5943e-06
-5.60174e-06
-2.94065e-06
-7.70346e-06
-3.30141e-06
-1.03215e-05
-3.66678e-06
-1.35012e-05
-4.01779e-06
-1.72627e-05
-4.3189e-06
-2.15953e-05
-4.50453e-06
-2.6448e-05
-4.46442e-06
-3.16758e-05
-4.01778e-06
-3.60542e-05
-2.52816e-06
-3.97085e-05
-1.10745e-06
-4.25053e-05
6.14065e-07
-4.47062e-05
2.93423e-06
-4.67882e-05
5.16801e-06
-4.85259e-05
7.4629e-06
-4.98502e-05
9.78514e-06
-5.06211e-05
1.09529e-05
-5.09172e-05
1.14704e-05
-5.08427e-05
1.16035e-05
-5.04852e-05
1.1453e-05
-4.99133e-05
1.10995e-05
-4.91745e-05
1.06062e-05
-4.83111e-05
1.00254e-05
-4.73683e-05
9.39793e-06
-4.63882e-05
8.75152e-06
-4.54022e-05
8.10593e-06
-4.44325e-05
7.47536e-06
-4.34956e-05
6.86924e-06
-4.26036e-05
6.29362e-06
5.75835e-06
-4.17799e-05
-1.36451e-06
2.51779e-07
-2.88459e-06
1.14287e-07
-4.52699e-06
-3.60551e-08
-6.26481e-06
-2.29693e-07
-8.0881e-06
-4.52676e-07
-1.0003e-05
-6.8992e-07
-1.20102e-05
-9.45384e-07
-1.41118e-05
-1.21338e-06
-1.63141e-05
-1.47986e-06
-1.86287e-05
-1.72044e-06
-2.10722e-05
-1.89453e-06
-2.36649e-05
-1.93281e-06
-2.64322e-05
-1.71984e-06
-2.94607e-05
-1.0133e-06
-3.22945e-05
2.84706e-07
-3.4861e-05
1.43974e-06
-3.71764e-05
2.91207e-06
-3.88606e-05
4.60309e-06
-4.00889e-05
6.38287e-06
-4.08462e-05
8.20845e-06
-4.11506e-05
1.00794e-05
-4.10794e-05
1.08736e-05
-4.07568e-05
1.11414e-05
-4.02743e-05
1.11158e-05
-3.96997e-05
1.08741e-05
-3.9083e-05
1.04792e-05
-3.84615e-05
9.98176e-06
-3.78606e-05
9.42192e-06
-3.7293e-05
8.82812e-06
-3.67645e-05
8.22111e-06
-3.62769e-05
7.61657e-06
-3.5829e-05
7.02599e-06
-3.54184e-05
6.45729e-06
-3.50422e-05
5.91617e-06
5.40243e-06
-3.46873e-05
1.73781e-07
7.58356e-08
2.47263e-07
3.82962e-08
1.79909e-07
2.84243e-08
-8.64796e-08
3.34017e-08
-5.90759e-07
4.78508e-08
-1.35667e-06
7.1699e-08
-2.41338e-06
1.06468e-07
-3.78799e-06
1.55732e-07
-5.51781e-06
2.4374e-07
-7.6337e-06
3.8832e-07
-1.01468e-05
6.10486e-07
-1.30443e-05
9.55736e-07
-1.62711e-05
1.49699e-06
-1.96683e-05
2.37344e-06
-2.24617e-05
3.06923e-06
-2.50738e-05
4.04399e-06
-2.73876e-05
5.21913e-06
-2.93612e-05
6.57125e-06
-3.09705e-05
7.98779e-06
-3.22233e-05
9.45815e-06
-3.3129e-05
1.09831e-05
-3.36375e-05
1.13812e-05
-3.38294e-05
1.13333e-05
-3.37861e-05
1.1073e-05
-3.35702e-05
1.06592e-05
-3.32308e-05
1.01408e-05
-3.28052e-05
9.55737e-06
-3.23208e-05
8.93873e-06
-3.17988e-05
8.30732e-06
-3.12584e-05
7.68181e-06
-3.07156e-05
7.07493e-06
-3.01831e-05
6.4945e-06
-2.96702e-05
5.94522e-06
-2.91829e-05
5.42973e-06
4.95163e-06
-2.87314e-05
-9.878e-07
1.05938e-06
-2.05081e-06
1.09648e-06
-3.16842e-06
1.14057e-06
-4.33269e-06
1.19143e-06
-5.53881e-06
1.24687e-06
-6.78474e-06
1.30952e-06
-8.073e-06
1.38552e-06
-9.41431e-06
1.4866e-06
-1.08127e-05
1.63034e-06
-1.22787e-05
1.84125e-06
-1.38402e-05
2.15748e-06
-1.55308e-05
2.63077e-06
-1.7381e-05
3.33073e-06
-1.93991e-05
4.37467e-06
-2.11992e-05
4.85533e-06
-2.2835e-05
5.66766e-06
-2.42707e-05
6.6447e-06
-2.54489e-05
7.74123e-06
-2.63668e-05
8.8994e-06
-2.70341e-05
1.01209e-05
-2.7441e-05
1.13872e-05
-2.75938e-05
1.15327e-05
-2.75581e-05
1.12975e-05
-2.73909e-05
1.09064e-05
-2.71371e-05
1.04064e-05
-2.68308e-05
9.83586e-06
-2.64971e-05
9.22521e-06
-2.61544e-05
8.5976e-06
-2.58164e-05
7.9709e-06
-2.54913e-05
7.35821e-06
-2.51828e-05
6.7679e-06
-2.48922e-05
6.20535e-06
-2.46198e-05
5.6741e-06
-2.43654e-05
5.1765e-06
4.71218e-06
-2.41249e-05
2.04215e-07
8.53404e-07
2.83495e-07
1.01515e-06
2.44102e-07
1.17762e-06
6.85573e-08
1.36429e-06
-2.67578e-07
1.57995e-06
-7.88584e-07
1.82703e-06
-1.51708e-06
2.11005e-06
-2.47236e-06
2.43739e-06
-3.66956e-06
2.82245e-06
-5.11933e-06
3.28525e-06
-6.82123e-06
3.85295e-06
-8.76172e-06
4.56419e-06
-1.09154e-05
5.4769e-06
-1.32356e-05
6.68707e-06
-1.52355e-05
6.849e-06
-1.70338e-05
7.46099e-06
-1.85923e-05
8.19948e-06
-1.9894e-05
9.04069e-06
-2.096e-05
9.96459e-06
-2.17931e-05
1.09546e-05
-2.23955e-05
1.19916e-05
-2.27409e-05
1.18811e-05
-2.28848e-05
1.14451e-05
-2.28809e-05
1.09065e-05
-2.277e-05
1.02997e-05
-2.25837e-05
9.65365e-06
-2.2346e-05
8.99154e-06
-2.20757e-05
8.33117e-06
-2.17868e-05
7.68563e-06
-2.14891e-05
7.06393e-06
-2.11903e-05
6.47231e-06
-2.08972e-05
5.91516e-06
-2.06151e-05
5.39463e-06
-2.03475e-05
4.91136e-06
4.4657e-06
-2.00988e-05
-5.54436e-07
1.40566e-06
-1.15355e-06
1.61177e-06
-1.7935e-06
1.81475e-06
-2.4705e-06
2.03807e-06
-3.1813e-06
2.28708e-06
-3.92668e-06
2.56825e-06
-4.71192e-06
2.8906e-06
-5.54557e-06
3.26575e-06
-6.43956e-06
3.71059e-06
-7.41248e-06
4.25174e-06
-8.49106e-06
4.92461e-06
-9.69673e-06
5.76265e-06
-1.10311e-05
6.80413e-06
-1.24823e-05
8.13145e-06
-1.3774e-05
8.1357e-06
-1.49549e-05
8.63848e-06
-1.59977e-05
9.24033e-06
-1.68955e-05
9.93827e-06
-1.7639e-05
1.07094e-05
-1.82161e-05
1.15346e-05
-1.86193e-05
1.23993e-05
-1.88357e-05
1.21026e-05
-1.8907e-05
1.15221e-05
-1.88732e-05
1.08784e-05
-1.87659e-05
1.01981e-05
-1.86099e-05
9.50317e-06
-1.84239e-05
8.81089e-06
-1.82219e-05
8.13412e-06
-1.80136e-05
7.48209e-06
-1.78064e-05
6.86108e-06
-1.76053e-05
6.27519e-06
-1.7413e-05
5.72655e-06
-1.72309e-05
5.21595e-06
-1.70598e-05
4.74334e-06
4.30714e-06
-1.68985e-05
5.49422e-08
1.35011e-06
2.05581e-08
1.64547e-06
-8.76549e-08
1.92219e-06
-2.77762e-07
2.22729e-06
-5.63871e-07
2.5722e-06
-9.61354e-07
2.96462e-06
-1.48522e-06
3.41321e-06
-2.14987e-06
3.929e-06
-2.9667e-06
4.52589e-06
-3.94115e-06
5.22456e-06
-5.07267e-06
6.05446e-06
-6.35336e-06
7.04173e-06
-7.76794e-06
8.21742e-06
-9.28513e-06
9.64814e-06
-1.05915e-05
9.44267e-06
-1.17698e-05
9.81842e-06
-1.28114e-05
1.02847e-05
-1.37049e-05
1.08359e-05
-1.44465e-05
1.14564e-05
-1.50343e-05
1.2129e-05
-1.54671e-05
1.284e-05
-1.57255e-05
1.23693e-05
-1.58465e-05
1.16514e-05
-1.58662e-05
1.09061e-05
-1.58125e-05
1.01522e-05
-1.57072e-05
9.40522e-06
-1.55669e-05
8.67744e-06
-1.54042e-05
7.97791e-06
-1.5229e-05
7.31287e-06
-1.50486e-05
6.68622e-06
-1.48684e-05
6.10001e-06
-1.46921e-05
5.55488e-06
-1.45224e-05
5.05047e-06
-1.43608e-05
4.58556e-06
4.15862e-06
-1.42088e-05
-3.0781e-07
1.65782e-06
-6.44781e-07
1.98231e-06
-1.01158e-06
2.28883e-06
-1.40855e-06
2.62408e-06
-1.83735e-06
3.0008e-06
-2.30184e-06
3.42888e-06
-2.80834e-06
3.9195e-06
-3.3667e-06
4.48719e-06
-3.989e-06
5.1481e-06
-4.68373e-06
5.91939e-06
-5.44983e-06
6.82097e-06
-6.28948e-06
7.88229e-06
-7.21614e-06
9.14576e-06
-8.24701e-06
1.06819e-05
-9.19031e-06
1.03897e-05
-1.00789e-05
1.07119e-05
-1.08908e-05
1.11025e-05
-1.16052e-05
1.15573e-05
-1.22079e-05
1.20673e-05
-1.26905e-05
1.26209e-05
-1.30476e-05
1.32076e-05
-1.32625e-05
1.25947e-05
-1.33648e-05
1.17638e-05
-1.33839e-05
1.09349e-05
-1.33432e-05
1.01206e-05
-1.32612e-05
9.33166e-06
-1.31517e-05
8.57595e-06
-1.30255e-05
7.85906e-06
-1.28904e-05
7.18445e-06
-1.27518e-05
6.55381e-06
-1.26136e-05
5.96755e-06
-1.24786e-05
5.42504e-06
-1.23484e-05
4.92497e-06
-1.2224e-05
4.4655e-06
4.04439e-06
-1.21059e-05
-3.39417e-08
1.69261e-06
-1.21054e-07
2.07039e-06
-2.54946e-07
2.42384e-06
-4.40915e-07
2.81132e-06
-6.87507e-07
3.24886e-06
-1.00449e-06
3.74756e-06
-1.40198e-06
4.31895e-06
-1.8888e-06
4.9763e-06
-2.47054e-06
5.73251e-06
-3.14578e-06
6.59779e-06
-3.90563e-06
7.58462e-06
-4.74505e-06
8.72629e-06
-5.66883e-06
1.00752e-05
-6.67627e-06
1.16965e-05
-7.56858e-06
1.12896e-05
-8.39079e-06
1.15424e-05
-9.13284e-06
1.18537e-05
-9.78444e-06
1.2219e-05
-1.03371e-05
1.26308e-05
-1.07848e-05
1.30804e-05
-1.11236e-05
1.3559e-05
-1.13355e-05
1.28189e-05
-1.14457e-05
1.18856e-05
-1.14798e-05
1.09799e-05
-1.14582e-05
1.01092e-05
-1.13967e-05
9.27961e-06
-1.13076e-05
8.49558e-06
-1.12003e-05
7.75981e-06
-1.1082e-05
7.07348e-06
-1.09581e-05
6.43657e-06
-1.08325e-05
5.84808e-06
-1.07082e-05
5.30634e-06
-1.05874e-05
4.80923e-06
-1.04715e-05
4.35428e-06
3.93897e-06
-1.03619e-05
-1.84196e-07
1.87821e-06
-3.91566e-07
2.27935e-06
-6.23428e-07
2.6575e-06
-8.82114e-07
3.07206e-06
-1.17081e-06
3.53991e-06
-1.4931e-06
4.07254e-06
-1.8523e-06
4.68126e-06
-2.25007e-06
5.37766e-06
-2.689e-06
6.17563e-06
-3.17644e-06
7.09013e-06
-3.72698e-06
8.14093e-06
-4.35516e-06
9.36134e-06
-5.06887e-06
1.07972e-05
-5.86952e-06
1.25071e-05
-6.59796e-06
1.20281e-05
-7.2822e-06
1.22373e-05
-7.9094e-06
1.24923e-05
-8.46784e-06
1.27894e-05
-8.94769e-06
1.31234e-05
-9.34135e-06
1.34875e-05
-9.64317e-06
1.3875e-05
-9.83527e-06
1.30244e-05
-9.93824e-06
1.20011e-05
-9.97381e-06
1.10271e-05
-9.9596e-06
1.01057e-05
-9.90961e-06
9.23952e-06
-9.8348e-06
8.42986e-06
-9.74366e-06
7.67697e-06
-9.64262e-06
6.98004e-06
-9.53655e-06
6.33742e-06
-9.42902e-06
5.74685e-06
-9.32262e-06
5.20567e-06
-9.21917e-06
4.71098e-06
-9.11993e-06
4.25975e-06
3.8489e-06
-9.02559e-06
-6.87497e-08
1.94888e-06
-1.71667e-07
2.38446e-06
-3.05988e-07
2.79433e-06
-4.74623e-07
3.24356e-06
-6.82517e-07
3.75109e-06
-9.35342e-07
4.32913e-06
-1.2371e-06
4.98734e-06
-1.58974e-06
5.73527e-06
-1.99532e-06
6.58694e-06
-2.4606e-06
7.56203e-06
-2.99444e-06
8.68246e-06
-3.60179e-06
9.97765e-06
-4.28267e-06
1.14885e-05
-5.03322e-06
1.32701e-05
-5.7051e-06
1.27121e-05
-6.33041e-06
1.28752e-05
-6.90131e-06
1.30762e-05
-7.40994e-06
1.33116e-05
-7.84912e-06
1.35765e-05
-8.21271e-06
1.38656e-05
-8.49562e-06
1.41728e-05
-8.67992e-06
1.32228e-05
-8.78322e-06
1.21174e-05
-8.8246e-06
1.10805e-05
-8.81959e-06
1.01117e-05
-8.7807e-06
9.21064e-06
-8.7178e-06
8.37611e-06
-8.63864e-06
7.60616e-06
-8.54922e-06
6.89823e-06
-8.45413e-06
6.24924e-06
-8.35682e-06
5.65583e-06
-8.25989e-06
5.11443e-06
-8.16518e-06
4.62144e-06
-8.07403e-06
4.17327e-06
3.76645e-06
-7.98736e-06
-1.27245e-07
2.07837e-06
-2.74718e-07
2.53449e-06
-4.41187e-07
2.9637e-06
-6.27681e-07
3.43337e-06
-8.34841e-07
3.96205e-06
-1.06435e-06
4.56299e-06
-1.32035e-06
5.24833e-06
-1.61015e-06
6.0308e-06
-1.94227e-06
6.92566e-06
-2.32453e-06
7.9519e-06
-2.7655e-06
9.13223e-06
-3.27268e-06
1.0495e-05
-3.85033e-06
1.2078e-05
-4.49814e-06
1.39317e-05
-5.08717e-06
1.33145e-05
-5.64181e-06
1.34435e-05
-6.15324e-06
1.36016e-05
-6.61334e-06
1.3786e-05
-7.01485e-06
1.39926e-05
-7.35139e-06
1.4217e-05
-7.61747e-06
1.44542e-05
-7.79489e-06
1.34144e-05
-7.89844e-06
1.2234e-05
-7.94484e-06
1.11387e-05
-7.94795e-06
1.01256e-05
-7.91902e-06
9.19155e-06
-7.86714e-06
8.33318e-06
-7.79953e-06
7.54668e-06
-7.7218e-06
6.82788e-06
-7.63827e-06
6.17241e-06
-7.55218e-06
5.57582e-06
-7.46597e-06
5.03372e-06
-7.38138e-06
4.54183e-06
-7.29966e-06
4.09605e-06
3.69246e-06
-7.22162e-06
-7.15906e-08
2.1524e-06
-1.67011e-07
2.6327e-06
-2.84041e-07
3.08392e-06
-4.25609e-07
3.57859e-06
-5.9524e-07
4.13586e-06
-7.95707e-07
4.76824e-06
-1.03073e-06
5.48883e-06
-1.30505e-06
6.31142e-06
-1.62373e-06
7.25156e-06
-1.99148e-06
8.32795e-06
-2.41292e-06
9.56321e-06
-2.89241e-06
1.09855e-05
-3.43275e-06
1.26311e-05
-4.03362e-06
1.45473e-05
-4.57728e-06
1.38722e-05
-5.08896e-06
1.39694e-05
-5.56209e-06
1.40891e-05
-5.9902e-06
1.42286e-05
-6.36708e-06
1.43842e-05
-6.68695e-06
1.45518e-05
-6.94446e-06
1.47267e-05
-7.12096e-06
1.36048e-05
-7.22899e-06
1.23546e-05
-7.28341e-06
1.12046e-05
-7.29667e-06
1.01493e-05
-7.2789e-06
9.18319e-06
-7.23851e-06
8.30132e-06
-7.18224e-06
7.49815e-06
-7.11545e-06
6.7681e-06
-7.04225e-06
6.10555e-06
-6.96578e-06
5.50511e-06
-6.88845e-06
4.96159e-06
-6.812e-06
4.47009e-06
-6.73773e-06
4.02601e-06
3.62506e-06
-6.66651e-06
-9.08672e-08
2.2458e-06
-1.99559e-07
2.74428e-06
-3.24045e-07
3.2117e-06
-4.65137e-07
3.72344e-06
-6.25539e-07
4.30057e-06
-8.09109e-07
4.95674e-06
-1.01979e-06
5.70516e-06
-1.26236e-06
6.56047e-06
-1.54233e-06
7.53897e-06
-1.86559e-06
8.65974e-06
-2.23808e-06
9.9455e-06
-2.66526e-06
1.14239e-05
-3.151e-06
1.31297e-05
-3.69609e-06
1.51072e-05
-4.19361e-06
1.43839e-05
-4.66558e-06
1.44555e-05
-5.10566e-06
1.45434e-05
-5.50774e-06
1.46449e-05
-5.86592e-06
1.47567e-05
-6.17458e-06
1.48748e-05
-6.42831e-06
1.49949e-05
-6.60758e-06
1.37974e-05
-6.72289e-06
1.24819e-05
-6.78751e-06
1.128e-05
-6.81285e-06
1.01844e-05
-6.80771e-06
9.18687e-06
-6.77951e-06
8.28109e-06
-6.73517e-06
7.461e-06
-6.67997e-06
6.71941e-06
-6.61777e-06
6.04924e-06
-6.55158e-06
5.44424e-06
-6.48372e-06
4.89855e-06
-6.41596e-06
4.40667e-06
-6.34959e-06
3.96354e-06
3.5645e-06
-6.28551e-06
-6.78894e-08
2.3162e-06
-1.5536e-07
2.83463e-06
-2.60653e-07
3.32028e-06
-3.85133e-07
3.85169e-06
-5.31023e-07
4.45077e-06
-7.01285e-07
5.13194e-06
-8.99447e-07
5.90898e-06
-1.12929e-06
6.79679e-06
-1.39503e-06
7.81213e-06
-1.7012e-06
8.97442e-06
-2.0525e-06
1.03065e-05
-2.45343e-06
1.1836e-05
-2.90764e-06
1.35967e-05
-3.41659e-06
1.56308e-05
-3.88178e-06
1.48629e-05
-4.32491e-06
1.49124e-05
-4.74086e-06
1.49731e-05
-5.12443e-06
1.50422e-05
-5.47036e-06
1.51163e-05
-5.77341e-06
1.51915e-05
-6.02827e-06
1.52634e-05
-6.21433e-06
1.39958e-05
-6.34013e-06
1.26188e-05
-6.41731e-06
1.13672e-05
-6.45603e-06
1.02321e-05
-6.46487e-06
9.20381e-06
-6.45086e-06
8.27439e-06
-6.42015e-06
7.43689e-06
-6.37761e-06
6.68281e-06
-6.32706e-06
6.00406e-06
-6.27153e-06
5.39356e-06
-6.21339e-06
4.84478e-06
-6.15444e-06
4.35167e-06
-6.09603e-06
3.90868e-06
3.51081e-06
-6.03914e-06
-7.40538e-08
2.39269e-06
-1.63506e-07
2.92687e-06
-2.67211e-07
3.42717e-06
-3.86745e-07
3.97487e-06
-5.24398e-07
4.5926e-06
-6.8302e-07
5.29535e-06
-8.66009e-07
6.09745e-06
-1.07725e-06
7.01431e-06
-1.32111e-06
8.06318e-06
-1.60234e-06
9.26387e-06
-1.92586e-06
1.06395e-05
-2.29642e-06
1.22174e-05
-2.71799e-06
1.40306e-05
-3.19269e-06
1.61195e-05
-3.62915e-06
1.53126e-05
-4.04778e-06
1.53441e-05
-4.4441e-06
1.53824e-05
-4.81351e-06
1.54245e-05
-5.15129e-06
1.54668e-05
-5.4525e-06
1.55053e-05
-5.71199e-06
1.55354e-05
-5.90782e-06
1.4203e-05
-6.04662e-06
1.27678e-05
-6.13853e-06
1.14682e-05
-6.1924e-06
1.02941e-05
-6.21671e-06
9.23545e-06
-6.21851e-06
8.28278e-06
-6.20286e-06
7.42716e-06
-6.17414e-06
6.65944e-06
-6.13625e-06
5.97099e-06
-6.09229e-06
5.35396e-06
-6.04467e-06
4.80108e-06
-5.99524e-06
4.30577e-06
-5.94542e-06
3.86204e-06
-5.89626e-06
3.4645e-06
0.00094208
3.99657e-05
0.000913697
4.11144e-05
0.000884445
4.13774e-05
0.00085428
4.16538e-05
0.000823129
4.19773e-05
0.00079092
4.23557e-05
0.000757618
4.27597e-05
0.000723199
4.31883e-05
0.000687587
4.36995e-05
0.000650642
4.43577e-05
0.000612209
4.52092e-05
0.00057315
4.54065e-05
0.000536081
4.3453e-05
0.000500858
4.17797e-05
0.00046724
4.03798e-05
0.000435085
3.91516e-05
0.00040434
3.80029e-05
0.000374982
3.6901e-05
0.000346972
3.58593e-05
0.000320281
3.48629e-05
0.000295034
3.37461e-05
3.29212e-05
0.000270358
0.000732951
8.56869e-05
0.000689766
8.40306e-05
0.000648443
8.24348e-05
0.0006095
8.03345e-05
0.000573339
7.78747e-05
0.000540222
7.52117e-05
0.000510188
7.25392e-05
0.000483044
7.00872e-05
0.000458404
6.81097e-05
0.000435671
6.68808e-05
0.000413952
6.67394e-05
0.000391802
6.7393e-05
0.000367578
6.75425e-05
0.000340465
6.87851e-05
0.000310216
7.05403e-05
0.000276861
7.24342e-05
0.000240621
7.41849e-05
0.000201846
7.56315e-05
0.000160931
7.67394e-05
0.000118235
7.75297e-05
7.40596e-05
7.7895e-05
7.70757e-05
2.98856e-05
-0.000476119
5.38887e-05
-0.00044704
5.55154e-05
-0.000419859
5.58089e-05
-0.000394672
5.56844e-05
-0.000371537
5.52599e-05
-0.000350516
5.46834e-05
-0.000331658
5.41459e-05
-0.000315023
5.38798e-05
-0.000300658
5.41356e-05
-0.000288621
5.51945e-05
-0.000278902
5.73434e-05
-0.000270978
5.97639e-05
-0.000263584
6.04025e-05
-0.000256316
6.17307e-05
-0.000249043
6.34448e-05
-0.000241711
6.52458e-05
-0.000234338
6.69246e-05
-0.00022684
6.82229e-05
-0.000219028
6.89976e-05
-0.000210751
6.93048e-05
-0.000202002
6.91826e-05
6.91915e-05
-0.000194093
0.000301403
6.32576e-05
0.000291098
6.55909e-05
0.00027814
6.85111e-05
0.000262147
7.13922e-05
0.00024287
7.42228e-05
0.000220238
7.69852e-05
0.000194389
7.96645e-05
0.000165706
8.22317e-05
0.000134877
8.46276e-05
0.000102948
8.67888e-05
7.12544e-05
8.87089e-05
4.13039e-05
8.94133e-05
1.45052e-05
8.69382e-05
-8.50687e-06
8.44588e-05
-2.73385e-05
8.20688e-05
-4.21463e-05
7.98722e-05
-5.32514e-05
7.78669e-05
-6.10464e-05
7.58657e-05
-6.59157e-05
7.3731e-05
-6.8309e-05
7.15868e-05
-6.8701e-05
6.948e-05
6.69279e-05
-6.65163e-05
-0.000253507
4.5355e-05
-0.000236913
4.92598e-05
-0.000220778
5.26539e-05
-0.000205106
5.60146e-05
-0.000189916
5.93426e-05
-0.000175238
6.26339e-05
-0.000161116
6.58821e-05
-0.000147613
6.90757e-05
-0.000134832
7.22026e-05
-0.000122939
7.52588e-05
-0.000112094
7.82314e-05
-0.000102072
7.97454e-05
-9.21158e-05
7.72999e-05
-8.20221e-05
7.46405e-05
-7.1687e-05
7.19758e-05
-6.09889e-05
6.93877e-05
-4.98039e-05
6.68899e-05
-3.8138e-05
6.43939e-05
-2.60752e-05
6.18145e-05
-1.36161e-05
5.92303e-05
-7.55481e-07
5.67024e-05
5.45282e-05
1.1706e-05
-0.000104736
3.95935e-05
-9.74124e-05
4.18144e-05
-8.92786e-05
4.43995e-05
-8.03805e-05
4.69971e-05
-7.07521e-05
4.9596e-05
-6.04119e-05
5.21776e-05
-4.93658e-05
5.4722e-05
-3.76115e-05
5.72099e-05
-2.51409e-05
5.96226e-05
-1.19331e-05
6.19446e-05
2.00806e-06
6.41871e-05
1.61147e-05
6.5534e-05
2.89345e-05
6.43818e-05
4.03748e-05
6.31089e-05
5.05602e-05
6.17061e-05
5.96526e-05
6.0218e-05
6.77987e-05
5.86732e-05
7.50376e-05
5.70927e-05
8.1318e-05
5.54793e-05
8.66637e-05
5.38374e-05