/*--------------------------------*- C++ -*----------------------------------*\
  =========                 |
  \\      /  F ield         | OpenFOAM: The Open Source CFD Toolbox
   \\    /   O peration     | Website:  https://openfoam.org
    \\  /    A nd           | Version:  8
     \\/     M anipulation  |
\*---------------------------------------------------------------------------*/
FoamFile
{
    version     2.0;
    format      ascii;
    class       volScalarField;
    location    "0.1";
    object      rho;
}
// * * * * * * * * * * * * * * * * * * * * * * * * * * * * * * * * * * * * * //

dimensions      [1 -3 0 0 0 0 0];

internalField   nonuniform List<scalar> 
15677
(
1.4458
1.44656
1.44697
1.44719
1.4473
1.44733
1.44725
1.44702
1.4466
1.44587
1.44456
1.44228
1.43898
1.43575
1.43363
1.432
1.4309
1.43029
1.42987
1.42951
1.42905
1.42873
1.4287
1.42889
1.42913
1.42933
1.42945
1.42951
1.42953
1.42953
1.42952
1.42949
1.42946
1.42943
1.42945
0.994276
0.99364
0.992086
0.990166
0.988241
0.986365
0.984452
0.982346
0.980254
0.978629
0.977649
0.978151
0.982206
0.9884
0.992092
0.994137
0.994496
0.992839
0.990049
0.986814
0.983804
0.981131
0.979063
0.977681
0.97642
0.975463
0.974676
0.974037
0.973547
0.973181
0.972905
0.972693
0.972528
0.972374
0.97221
1.24747
1.24867
1.24946
1.24984
1.2498
1.24934
1.24852
1.24737
1.24631
1.24626
1.24729
1.2501
1.25493
1.26102
1.26538
1.2679
1.2699
1.27226
1.2748
1.27735
1.27982
1.28201
1.28325
1.28376
1.28472
1.28597
1.28717
1.28856
1.2901
1.29165
1.29316
1.29459
1.29593
1.29722
1.2984
1.11691
1.11779
1.11817
1.11831
1.11828
1.11804
1.11752
1.11665
1.11532
1.11389
1.11268
1.11121
1.10952
1.10778
1.10601
1.1039
1.10172
1.09951
1.09734
1.09525
1.0934
1.09195
1.09124
1.09046
1.08938
1.08803
1.08677
1.08549
1.08427
1.08314
1.08211
1.08119
1.08037
1.07962
1.07901
1.21456
1.21464
1.21468
1.21471
1.21471
1.21468
1.21464
1.21457
1.21448
1.21437
1.21418
1.21386
1.21346
1.21302
1.21273
1.21272
1.21301
1.21358
1.21439
1.21544
1.21676
1.21831
1.21938
1.22029
1.2209
1.22148
1.2221
1.22274
1.22339
1.22403
1.22465
1.22523
1.22576
1.22627
1.22671
1.14039
1.14046
1.14053
1.14058
1.14063
1.14066
1.14067
1.14065
1.14059
1.1405
1.14036
1.14019
1.13997
1.13973
1.13935
1.13882
1.13815
1.1374
1.1366
1.13579
1.13494
1.13436
1.13398
1.13357
1.13324
1.13285
1.13245
1.13205
1.13166
1.1313
1.13097
1.13068
1.13043
1.13019
1.13003
1.19021
1.19012
1.19003
1.18994
1.18986
1.18979
1.18972
1.18964
1.18957
1.18948
1.1894
1.18931
1.18923
1.18914
1.18916
1.18926
1.18948
1.18981
1.19023
1.19073
1.1914
1.19184
1.19212
1.19225
1.19239
1.19254
1.19272
1.19293
1.19315
1.19337
1.19357
1.19376
1.19393
1.1941
1.19422
1.15714
1.15721
1.15725
1.15728
1.1573
1.15731
1.15731
1.15731
1.1573
1.15729
1.15726
1.15721
1.15711
1.15694
1.15668
1.15641
1.15609
1.15575
1.15539
1.155
1.15463
1.15443
1.15429
1.15419
1.15404
1.15389
1.15374
1.15359
1.15346
1.15333
1.15323
1.15313
1.15304
1.15296
1.15292
1.17893
1.17886
1.1788
1.17874
1.17868
1.17863
1.17857
1.17851
1.17844
1.17838
1.17832
1.17827
1.17823
1.17823
1.17831
1.17842
1.17858
1.17877
1.179
1.1793
1.17954
1.17964
1.17969
1.17975
1.1798
1.17987
1.17994
1.18001
1.18009
1.18016
1.18023
1.1803
1.18036
1.18042
1.18045
1.16496
1.165
1.16502
1.16503
1.16503
1.16502
1.16501
1.16499
1.16497
1.16495
1.16493
1.1649
1.16483
1.16471
1.16456
1.16439
1.16421
1.16402
1.1638
1.16359
1.16347
1.16343
1.16339
1.16333
1.16326
1.16319
1.16312
1.16305
1.16298
1.16292
1.16287
1.16283
1.16279
1.16275
1.16275
1.17422
1.17419
1.17416
1.17412
1.17409
1.17405
1.17401
1.17396
1.17391
1.17385
1.17379
1.17373
1.17368
1.17364
1.17364
1.17367
1.17373
1.1738
1.17392
1.17405
1.17406
1.17407
1.17408
1.1741
1.17411
1.17414
1.17417
1.1742
1.17423
1.17427
1.1743
1.17433
1.17435
1.17438
1.1744
1.16823
1.16825
1.16825
1.16825
1.16825
1.16824
1.16823
1.16822
1.1682
1.16819
1.16818
1.16817
1.16813
1.16807
1.16799
1.1679
1.1678
1.16769
1.16756
1.1675
1.16749
1.16746
1.16743
1.16738
1.16734
1.16729
1.16725
1.1672
1.16717
1.16713
1.16711
1.16708
1.16706
1.16704
1.16704
1.17243
1.17241
1.17239
1.17237
1.17234
1.17231
1.17228
1.17224
1.17219
1.17214
1.17208
1.17201
1.17194
1.17187
1.17182
1.17179
1.17178
1.17179
1.17181
1.17176
1.17172
1.17169
1.17167
1.17167
1.17168
1.17169
1.1717
1.17171
1.17172
1.17174
1.17175
1.17176
1.17176
1.17177
1.17178
1.16968
1.16969
1.16969
1.16968
1.16968
1.16967
1.16965
1.16964
1.16963
1.16962
1.16962
1.16961
1.16959
1.16955
1.16951
1.16946
1.1694
1.16933
1.16929
1.16928
1.16927
1.16924
1.16921
1.16918
1.16914
1.16911
1.16908
1.16905
1.16903
1.16901
1.16899
1.16897
1.16896
1.16895
1.16895
1.1718
1.17178
1.17176
1.17174
1.17172
1.1717
1.17167
1.17163
1.17159
1.17154
1.17148
1.17142
1.17134
1.17127
1.1712
1.17115
1.1711
1.17105
1.17099
1.17093
1.17088
1.17084
1.17082
1.1708
1.1708
1.17079
1.17079
1.17079
1.17079
1.17079
1.17079
1.17079
1.17079
1.17079
1.17079
1.17043
1.17043
1.17042
1.17041
1.1704
1.17039
1.17038
1.17037
1.17037
1.17036
1.17035
1.17034
1.17033
1.1703
1.17026
1.17023
1.17019
1.17017
1.17015
1.17013
1.1701
1.17007
1.17004
1.17001
1.16998
1.16995
1.16993
1.16991
1.16989
1.16988
1.16986
1.16985
1.16984
1.16984
1.16984
1.17162
1.1716
1.17159
1.17158
1.17156
1.17154
1.17151
1.17148
1.17144
1.1714
1.17134
1.17129
1.17122
1.17114
1.17107
1.171
1.17093
1.17087
1.17081
1.17076
1.17071
1.17067
1.17064
1.17062
1.17061
1.1706
1.17059
1.17058
1.17057
1.17056
1.17056
1.17055
1.17054
1.17054
1.17054
1.17093
1.17092
1.17091
1.1709
1.17089
1.17087
1.17086
1.17085
1.17084
1.17083
1.17082
1.17081
1.1708
1.17077
1.17074
1.17071
1.17068
1.17065
1.17062
1.17058
1.17055
1.17052
1.17049
1.17046
1.17043
1.17041
1.17039
1.17037
1.17036
1.17034
1.17033
1.17032
1.17032
1.17031
1.17031
1.17161
1.17159
1.17158
1.17157
1.17156
1.17154
1.17152
1.17149
1.17146
1.17142
1.17137
1.17132
1.17126
1.17119
1.17113
1.17107
1.17101
1.17096
1.17091
1.17086
1.17082
1.17078
1.17075
1.17073
1.17071
1.17069
1.17067
1.17066
1.17065
1.17064
1.17063
1.17063
1.17062
1.17061
1.17061
1.17133
1.17132
1.1713
1.17129
1.17128
1.17127
1.17125
1.17124
1.17123
1.17121
1.1712
1.17118
1.17115
1.17112
1.17109
1.17105
1.17101
1.17098
1.17094
1.1709
1.17086
1.17083
1.1708
1.17077
1.17075
1.17073
1.17071
1.17069
1.17068
1.17067
1.17066
1.17065
1.17064
1.17063
1.17063
1.17171
1.17169
1.17168
1.17167
1.17165
1.17163
1.17161
1.17159
1.17156
1.17153
1.17149
1.17145
1.1714
1.17135
1.1713
1.17125
1.1712
1.17115
1.17111
1.17107
1.17103
1.17099
1.17096
1.17093
1.17091
1.17089
1.17088
1.17086
1.17085
1.17084
1.17083
1.17082
1.17082
1.17081
1.17081
1.17165
1.17163
1.17162
1.1716
1.17159
1.17158
1.17156
1.17155
1.17153
1.17152
1.17149
1.17147
1.17144
1.1714
1.17136
1.17132
1.17128
1.17125
1.17121
1.17117
1.17113
1.1711
1.17107
1.17104
1.17102
1.171
1.17098
1.17097
1.17095
1.17094
1.17093
1.17092
1.17092
1.17091
1.17091
1.17187
1.17185
1.17184
1.17183
1.17181
1.1718
1.17178
1.17176
1.17173
1.17171
1.17167
1.17164
1.1716
1.17155
1.17151
1.17146
1.17142
1.17138
1.17134
1.1713
1.17126
1.17123
1.1712
1.17117
1.17115
1.17113
1.17111
1.1711
1.17109
1.17108
1.17107
1.17106
1.17105
1.17105
1.17104
1.17191
1.17189
1.17188
1.17186
1.17185
1.17184
1.17182
1.17181
1.17179
1.17177
1.17174
1.17171
1.17168
1.17164
1.1716
1.17157
1.17153
1.17149
1.17145
1.17141
1.17137
1.17134
1.17131
1.17129
1.17127
1.17125
1.17123
1.17122
1.17121
1.17119
1.17119
1.17118
1.17117
1.17116
1.17116
1.17206
1.17204
1.17203
1.17201
1.172
1.17198
1.17197
1.17195
1.17193
1.1719
1.17187
1.17184
1.1718
1.17176
1.17172
1.17168
1.17164
1.1716
1.17156
1.17153
1.17149
1.17146
1.17143
1.17141
1.17138
1.17137
1.17135
1.17134
1.17133
1.17132
1.17131
1.1713
1.17129
1.17129
1.17128
1.17213
1.17211
1.1721
1.17209
1.17207
1.17206
1.17204
1.17203
1.17201
1.17199
1.17196
1.17193
1.1719
1.17186
1.17182
1.17178
1.17175
1.17171
1.17167
1.17163
1.1716
1.17157
1.17154
1.17152
1.1715
1.17148
1.17146
1.17145
1.17144
1.17143
1.17142
1.17141
1.1714
1.1714
1.17139
1.17224
1.17223
1.17221
1.1722
1.17219
1.17217
1.17216
1.17214
1.17212
1.17209
1.17207
1.17204
1.172
1.17196
1.17192
1.17189
1.17185
1.17181
1.17177
1.17174
1.17171
1.17167
1.17165
1.17162
1.1716
1.17159
1.17157
1.17156
1.17155
1.17154
1.17153
1.17152
1.17151
1.17151
1.1715
1.17233
1.17231
1.1723
1.17228
1.17227
1.17226
1.17224
1.17222
1.1722
1.17218
1.17216
1.17213
1.1721
1.17206
1.17202
1.17198
1.17194
1.17191
1.17187
1.17184
1.1718
1.17177
1.17175
1.17172
1.17171
1.17169
1.17167
1.17166
1.17165
1.17164
1.17163
1.17162
1.17162
1.17161
1.17161
1.17242
1.1724
1.17239
1.17238
1.17236
1.17235
1.17233
1.17232
1.1723
1.17227
1.17225
1.17222
1.17219
1.17215
1.17211
1.17207
1.17204
1.172
1.17196
1.17193
1.1719
1.17187
1.17184
1.17182
1.1718
1.17178
1.17177
1.17176
1.17175
1.17174
1.17173
1.17172
1.17172
1.17171
1.1717
1.1725
1.17248
1.17247
1.17246
1.17244
1.17243
1.17241
1.1724
1.17238
1.17236
1.17233
1.1723
1.17227
1.17223
1.17219
1.17216
1.17212
1.17209
1.17205
1.17202
1.17199
1.17196
1.17193
1.17191
1.17189
1.17187
1.17186
1.17185
1.17184
1.17183
1.17182
1.17181
1.17181
1.1718
1.17179
1.42956
1.43026
1.43123
1.43223
1.43327
1.43438
1.43557
1.43683
1.43817
1.43958
1.44105
1.44258
1.44413
1.44564
1.4471
1.44849
1.44983
1.45112
1.45237
1.45358
1.45481
1.4558
0.972271
0.971736
0.970996
0.970262
0.969518
0.968744
0.96794
0.96711
0.966261
0.9654
0.96453
0.963652
0.962769
0.961927
0.961136
0.960395
0.959692
0.959008
0.958334
0.957695
0.957118
0.956782
1.29938
1.30071
1.30216
1.30357
1.30492
1.30623
1.30748
1.30868
1.30983
1.31091
1.312
1.31312
1.31423
1.31525
1.31615
1.31694
1.31763
1.31824
1.31876
1.31922
1.31962
1.31978
1.07873
1.07815
1.07744
1.07675
1.07612
1.07554
1.07504
1.07464
1.07434
1.07414
1.07406
1.07409
1.07417
1.07428
1.07443
1.07464
1.07484
1.07504
1.07524
1.07544
1.07566
1.07602
1.22696
1.22717
1.22747
1.22776
1.22804
1.22831
1.22855
1.22877
1.22896
1.22911
1.22924
1.22935
1.22944
1.22945
1.22938
1.22928
1.22918
1.22911
1.229
1.22882
1.22858
1.22823
1.13021
1.13035
1.13042
1.13049
1.13059
1.13071
1.13084
1.13099
1.13115
1.13133
1.13152
1.13164
1.13176
1.13186
1.13195
1.13204
1.13213
1.13222
1.13231
1.13241
1.13252
1.13271
1.19409
1.19394
1.19383
1.19371
1.19358
1.19345
1.19331
1.19317
1.19303
1.19289
1.19275
1.19263
1.19256
1.1925
1.19246
1.19242
1.19238
1.19233
1.19229
1.19223
1.19217
1.19205
1.15308
1.15328
1.15344
1.1536
1.15375
1.15391
1.15407
1.15424
1.1544
1.15457
1.15473
1.15488
1.155
1.1551
1.1552
1.15529
1.15539
1.15545
1.15555
1.15564
1.15574
1.15588
1.18029
1.18015
1.18004
1.1799
1.17976
1.1796
1.17945
1.17929
1.17914
1.17898
1.17883
1.17868
1.17857
1.17846
1.17837
1.17829
1.17821
1.17813
1.17805
1.17798
1.17791
1.17782
1.16285
1.16299
1.16309
1.1632
1.16331
1.16342
1.16353
1.16365
1.16376
1.16387
1.16399
1.16409
1.16417
1.16424
1.16431
1.16437
1.16443
1.16449
1.16455
1.16461
1.16467
1.16476
1.17428
1.17418
1.17409
1.17399
1.17388
1.17378
1.17367
1.17356
1.17345
1.17334
1.17323
1.17313
1.17304
1.17296
1.17289
1.17282
1.17275
1.17269
1.17262
1.17256
1.1725
1.17243
1.16709
1.16718
1.16724
1.1673
1.16736
1.16743
1.16749
1.16755
1.16762
1.16768
1.16774
1.16779
1.16783
1.16787
1.1679
1.16793
1.16796
1.16798
1.16801
1.16803
1.16806
1.16809
1.17171
1.17165
1.17159
1.17152
1.17146
1.17139
1.17133
1.17126
1.1712
1.17113
1.17107
1.17101
1.17096
1.17091
1.17087
1.17083
1.17079
1.17075
1.17072
1.17068
1.17065
1.17061
1.16898
1.16902
1.16905
1.16907
1.1691
1.16913
1.16916
1.16918
1.16921
1.16923
1.16925
1.16927
1.16928
1.16929
1.1693
1.16931
1.16931
1.16932
1.16932
1.16932
1.16933
1.16933
1.17074
1.17071
1.17067
1.17062
1.17058
1.17054
1.1705
1.17046
1.17043
1.17039
1.17035
1.17032
1.1703
1.17028
1.17026
1.17023
1.17021
1.17019
1.17017
1.17016
1.17013
1.17011
1.16984
1.16985
1.16986
1.16986
1.16986
1.16987
1.16987
1.16987
1.16987
1.16987
1.16988
1.16988
1.16988
1.16988
1.16988
1.16987
1.16987
1.16986
1.16986
1.16985
1.16985
1.16984
1.17051
1.17048
1.17045
1.17042
1.17039
1.17036
1.17034
1.17032
1.17029
1.17027
1.17025
1.17023
1.17021
1.17019
1.17017
1.17016
1.17014
1.17013
1.17012
1.17011
1.17009
1.17008
1.1703
1.1703
1.17028
1.17027
1.17026
1.17025
1.17024
1.17023
1.17021
1.1702
1.17019
1.17017
1.17016
1.17015
1.17014
1.17013
1.17011
1.1701
1.1701
1.17009
1.17008
1.17007
1.17059
1.17056
1.17054
1.17051
1.17049
1.17046
1.17043
1.17041
1.17038
1.17036
1.17034
1.17032
1.1703
1.17028
1.17026
1.17024
1.17023
1.17022
1.1702
1.17019
1.17018
1.17017
1.17062
1.1706
1.17058
1.17056
1.17053
1.17051
1.17049
1.17047
1.17044
1.17042
1.1704
1.17038
1.17036
1.17034
1.17032
1.1703
1.17029
1.17027
1.17026
1.17025
1.17024
1.17022
1.17079
1.17076
1.17073
1.1707
1.17067
1.17064
1.17062
1.17059
1.17056
1.17053
1.17051
1.17048
1.17046
1.17043
1.17041
1.17039
1.17037
1.17036
1.17034
1.17033
1.17031
1.1703
1.17089
1.17086
1.17083
1.1708
1.17077
1.17075
1.17072
1.17069
1.17066
1.17063
1.1706
1.17057
1.17054
1.17052
1.1705
1.17047
1.17045
1.17044
1.17042
1.1704
1.17039
1.17037
1.17102
1.17099
1.17096
1.17093
1.1709
1.17086
1.17083
1.1708
1.17077
1.17073
1.1707
1.17067
1.17064
1.17061
1.17059
1.17056
1.17054
1.17052
1.1705
1.17048
1.17047
1.17045
1.17114
1.17111
1.17108
1.17104
1.17101
1.17097
1.17094
1.17091
1.17087
1.17084
1.1708
1.17077
1.17074
1.17071
1.17068
1.17065
1.17063
1.17061
1.17058
1.17056
1.17055
1.17053
1.17126
1.17123
1.17119
1.17116
1.17112
1.17109
1.17105
1.17102
1.17098
1.17094
1.17091
1.17087
1.17084
1.1708
1.17077
1.17075
1.17072
1.17069
1.17067
1.17065
1.17063
1.1706
1.17137
1.17134
1.1713
1.17127
1.17123
1.1712
1.17116
1.17112
1.17108
1.17105
1.17101
1.17097
1.17093
1.1709
1.17087
1.17084
1.17081
1.17078
1.17076
1.17073
1.17071
1.17068
1.17148
1.17145
1.17141
1.17138
1.17134
1.1713
1.17126
1.17122
1.17119
1.17115
1.17111
1.17107
1.17103
1.17099
1.17096
1.17093
1.1709
1.17087
1.17084
1.17082
1.17079
1.17077
1.17159
1.17155
1.17151
1.17148
1.17144
1.1714
1.17136
1.17132
1.17128
1.17124
1.1712
1.17116
1.17112
1.17109
1.17105
1.17102
1.17098
1.17095
1.17092
1.1709
1.17087
1.17084
1.17169
1.17165
1.17161
1.17157
1.17154
1.1715
1.17146
1.17142
1.17138
1.17134
1.17129
1.17125
1.17121
1.17117
1.17114
1.1711
1.17107
1.17104
1.17101
1.17098
1.17095
1.17092
1.17178
1.17174
1.1717
1.17167
1.17163
1.17159
1.17155
1.17151
1.17147
1.17142
1.17138
1.17134
1.1713
1.17126
1.17122
1.17118
1.17115
1.17112
1.17109
1.17106
1.17103
1.171
1.45613
1.45613
1.45607
1.45608
1.45614
1.45611
0.956796
0.956903
0.957072
0.95721
0.957366
0.957649
1.31978
1.32001
1.32018
1.32027
1.32023
1.32001
1.07639
1.0763
1.0762
1.07605
1.07584
1.07561
1.22797
1.22796
1.228
1.22803
1.22807
1.22811
1.13277
1.13258
1.13237
1.13219
1.13202
1.13184
1.192
1.19217
1.19233
1.19248
1.1926
1.19273
1.15591
1.15581
1.1557
1.15561
1.15554
1.15546
1.17778
1.17785
1.17792
1.17797
1.17802
1.17806
1.16478
1.16474
1.1647
1.16467
1.16465
1.16463
1.1724
1.17242
1.17244
1.17245
1.17246
1.17247
1.1681
1.16808
1.16806
1.16805
1.16805
1.16805
1.17059
1.1706
1.1706
1.1706
1.1706
1.1706
1.16933
1.16932
1.16932
1.16931
1.16931
1.16932
1.1701
1.1701
1.17011
1.17011
1.17011
1.17011
1.16984
1.16984
1.16984
1.16984
1.16984
1.16984
1.17008
1.17008
1.17008
1.17008
1.17008
1.17009
1.17007
1.17007
1.17007
1.17007
1.17007
1.17008
1.17017
1.17017
1.17017
1.17017
1.17018
1.17018
1.17022
1.17022
1.17022
1.17023
1.17023
1.17023
1.1703
1.1703
1.1703
1.1703
1.1703
1.17031
1.17037
1.17037
1.17037
1.17037
1.17037
1.17038
1.17044
1.17044
1.17044
1.17045
1.17045
1.17045
1.17052
1.17052
1.17052
1.17052
1.17053
1.17053
1.1706
1.1706
1.1706
1.1706
1.1706
1.1706
1.17068
1.17068
1.17068
1.17068
1.17068
1.17068
1.17076
1.17076
1.17076
1.17076
1.17076
1.17076
1.17084
1.17084
1.17084
1.17084
1.17084
1.17084
1.17092
1.17091
1.17091
1.17091
1.17092
1.17091
1.17099
1.17099
1.17099
1.17099
1.17099
1.17099
1.45572
1.45465
1.4532
1.45194
1.45066
1.44931
1.44793
1.44651
1.44504
1.44352
1.44196
1.44039
1.43885
1.43734
1.43588
1.43447
1.43314
1.43189
1.43071
1.4296
1.42854
1.42778
0.957923
0.958548
0.959406
0.960287
0.961187
0.962121
0.96309
0.964101
0.965156
0.966258
0.967442
0.968694
0.969933
0.971161
0.972381
0.973614
0.974863
0.976036
0.977175
0.978307
0.97942
0.980245
1.32005
1.31986
1.31947
1.31902
1.31853
1.31798
1.3174
1.31681
1.31623
1.31569
1.3152
1.31481
1.31454
1.31429
1.31405
1.31384
1.31366
1.31357
1.31351
1.31346
1.31342
1.31354
1.07511
1.07448
1.07395
1.07338
1.07276
1.0721
1.07139
1.07065
1.06987
1.06907
1.06824
1.06745
1.0667
1.0661
1.06563
1.06526
1.06497
1.06471
1.06444
1.06425
1.06421
1.06426
1.22851
1.229
1.22942
1.22983
1.23026
1.2307
1.23119
1.23171
1.23225
1.23279
1.23336
1.23401
1.23474
1.23546
1.23612
1.23671
1.23716
1.23748
1.2378
1.23807
1.23823
1.23838
1.13141
1.13094
1.13054
1.13017
1.1298
1.12944
1.12909
1.12874
1.12842
1.12813
1.12787
1.12762
1.1274
1.12722
1.12708
1.12697
1.12689
1.12683
1.12678
1.12675
1.12673
1.12665
1.19299
1.1934
1.19377
1.19414
1.1945
1.19486
1.19519
1.19552
1.19585
1.19617
1.19648
1.19681
1.19715
1.19747
1.19776
1.19802
1.19826
1.19847
1.19866
1.19882
1.19896
1.19913
1.15524
1.15496
1.15474
1.15452
1.15428
1.15405
1.15382
1.15359
1.15336
1.15314
1.1529
1.15266
1.1524
1.15215
1.15192
1.15169
1.15148
1.15128
1.15109
1.1509
1.15071
1.15048
1.17817
1.1784
1.17861
1.1788
1.17898
1.17917
1.17936
1.17956
1.17976
1.17996
1.18018
1.18041
1.18065
1.18089
1.18112
1.18135
1.18158
1.18179
1.182
1.18218
1.18236
1.18254
1.16454
1.1644
1.16427
1.16414
1.16402
1.16389
1.16376
1.16362
1.16348
1.16334
1.16318
1.16302
1.16283
1.16264
1.16245
1.16227
1.1621
1.16194
1.16179
1.16165
1.1615
1.16133
1.17251
1.17262
1.17271
1.17281
1.1729
1.173
1.1731
1.17321
1.17332
1.17344
1.17357
1.17371
1.17387
1.17403
1.17418
1.17433
1.17448
1.17463
1.17478
1.17493
1.17507
1.17522
1.16802
1.16797
1.16792
1.16787
1.16782
1.16777
1.16772
1.16766
1.1676
1.16754
1.16747
1.1674
1.16731
1.16722
1.16712
1.16703
1.16693
1.16683
1.16674
1.16665
1.16656
1.16646
1.17061
1.17066
1.1707
1.17074
1.17079
1.17083
1.17088
1.17094
1.171
1.17106
1.17113
1.17121
1.17129
1.17138
1.17148
1.17157
1.17167
1.17176
1.17186
1.17195
1.17204
1.17213
1.16931
1.16931
1.1693
1.16929
1.16928
1.16927
1.16926
1.16925
1.16924
1.16923
1.16921
1.16919
1.16916
1.16913
1.1691
1.16906
1.16903
1.16899
1.16896
1.16892
1.16888
1.16883
1.17011
1.17014
1.17017
1.17019
1.17021
1.17024
1.17026
1.17029
1.17032
1.17035
1.17039
1.17043
1.17048
1.17053
1.17058
1.17064
1.17069
1.17075
1.1708
1.17086
1.17092
1.17097
1.16985
1.16985
1.16986
1.16987
1.16987
1.16988
1.16989
1.1699
1.1699
1.1699
1.16991
1.16991
1.16991
1.16991
1.16991
1.16991
1.16991
1.1699
1.1699
1.16989
1.16988
1.16987
1.17009
1.17011
1.17012
1.17014
1.17016
1.17018
1.1702
1.17022
1.17024
1.17026
1.17029
1.17032
1.17035
1.17038
1.1704
1.17044
1.17047
1.1705
1.17054
1.17057
1.17061
1.17064
1.17008
1.1701
1.17011
1.17012
1.17013
1.17015
1.17016
1.17018
1.17019
1.17021
1.17023
1.17025
1.17026
1.17028
1.17029
1.17031
1.17032
1.17033
1.17034
1.17035
1.17036
1.17037
1.17019
1.1702
1.17022
1.17023
1.17025
1.17027
1.17028
1.1703
1.17033
1.17035
1.17037
1.1704
1.17042
1.17045
1.17048
1.17051
1.17054
1.17057
1.1706
1.17063
1.17065
1.17068
1.17024
1.17026
1.17027
1.17029
1.1703
1.17032
1.17034
1.17036
1.17038
1.1704
1.17043
1.17045
1.17048
1.1705
1.17053
1.17055
1.17058
1.1706
1.17062
1.17065
1.17067
1.17069
1.17032
1.17033
1.17035
1.17037
1.17039
1.17041
1.17043
1.17045
1.17047
1.1705
1.17053
1.17055
1.17058
1.17061
1.17064
1.17067
1.1707
1.17073
1.17076
1.17079
1.17082
1.17085
1.17039
1.1704
1.17042
1.17044
1.17046
1.17048
1.17051
1.17053
1.17056
1.17058
1.17061
1.17064
1.17067
1.1707
1.17074
1.17077
1.1708
1.17083
1.17086
1.17088
1.17091
1.17094
1.17046
1.17048
1.1705
1.17052
1.17054
1.17057
1.17059
1.17062
1.17065
1.17068
1.17071
1.17074
1.17077
1.17081
1.17084
1.17087
1.17091
1.17094
1.17097
1.171
1.17104
1.17107
1.17054
1.17056
1.17058
1.1706
1.17063
1.17065
1.17068
1.17071
1.17074
1.17077
1.1708
1.17084
1.17087
1.17091
1.17094
1.17098
1.17101
1.17105
1.17108
1.17111
1.17114
1.17118
1.17062
1.17064
1.17066
1.17069
1.17071
1.17074
1.17077
1.1708
1.17083
1.17086
1.1709
1.17094
1.17097
1.17101
1.17105
1.17108
1.17112
1.17115
1.17119
1.17122
1.17126
1.17129
1.1707
1.17072
1.17074
1.17077
1.1708
1.17083
1.17086
1.17089
1.17092
1.17096
1.17099
1.17103
1.17107
1.17111
1.17115
1.17118
1.17122
1.17126
1.17129
1.17133
1.17136
1.1714
1.17078
1.1708
1.17083
1.17085
1.17088
1.17091
1.17094
1.17098
1.17101
1.17105
1.17109
1.17113
1.17117
1.17121
1.17124
1.17128
1.17132
1.17136
1.17139
1.17143
1.17147
1.1715
1.17086
1.17088
1.17091
1.17094
1.17097
1.171
1.17103
1.17106
1.1711
1.17114
1.17118
1.17122
1.17126
1.1713
1.17134
1.17138
1.17142
1.17145
1.17149
1.17153
1.17156
1.1716
1.17093
1.17096
1.17099
1.17102
1.17105
1.17108
1.17111
1.17115
1.17118
1.17122
1.17126
1.1713
1.17135
1.17139
1.17143
1.17147
1.17151
1.17154
1.17158
1.17162
1.17165
1.17169
1.17101
1.17103
1.17106
1.17109
1.17113
1.17116
1.17119
1.17123
1.17127
1.17131
1.17135
1.17139
1.17143
1.17147
1.17151
1.17155
1.17159
1.17163
1.17167
1.1717
1.17174
1.17178
1.42762
1.42751
1.42747
1.42747
1.4275
1.42758
1.42773
1.42794
1.42824
1.42863
1.4291
1.42963
1.43024
1.43071
1.431
1.43104
1.43078
1.43027
1.4296
1.42879
1.42826
1.42862
1.43049
1.43312
1.43597
1.43851
1.44042
1.44181
1.44278
1.44352
1.44412
1.4446
1.44499
1.44535
1.44579
0.980452
0.980836
0.981253
0.981675
0.982105
0.982548
0.983007
0.983481
0.983968
0.984465
0.984974
0.985506
0.986054
0.986594
0.987105
0.987511
0.987877
0.988204
0.988472
0.988558
0.988205
0.987383
0.985736
0.983271
0.981119
0.980885
0.981973
0.98372
0.985592
0.987342
0.989134
0.991167
0.993331
0.995066
0.995777
1.31374
1.31372
1.3137
1.31368
1.31365
1.31362
1.31361
1.31361
1.3136
1.3135
1.31316
1.31235
1.31118
1.30964
1.30738
1.30447
1.30113
1.29731
1.29318
1.28951
1.28649
1.28413
1.28279
1.27965
1.27676
1.27596
1.27617
1.27724
1.27887
1.28037
1.28138
1.28173
1.28139
1.28048
1.27892
1.06414
1.06438
1.0646
1.06484
1.06513
1.06547
1.06586
1.06626
1.06662
1.06692
1.06763
1.06913
1.07129
1.07396
1.07704
1.08005
1.08269
1.08472
1.08611
1.0871
1.08767
1.08806
1.08867
1.08984
1.08992
1.08957
1.08933
1.08925
1.08911
1.08876
1.08818
1.08744
1.08659
1.0856
1.08429
1.23847
1.23804
1.23748
1.23688
1.23621
1.23544
1.23461
1.2337
1.2327
1.23169
1.23036
1.22888
1.22723
1.22542
1.22357
1.22186
1.22027
1.21905
1.21838
1.21765
1.21641
1.21561
1.21598
1.2158
1.21517
1.21392
1.21263
1.21136
1.21012
1.20893
1.20784
1.20682
1.20588
1.20499
1.20409
1.1266
1.12684
1.12713
1.12744
1.12777
1.12813
1.12849
1.12884
1.12922
1.12956
1.13004
1.1307
1.13156
1.13258
1.13381
1.13494
1.13573
1.13639
1.13698
1.13733
1.1375
1.13762
1.13791
1.13809
1.13838
1.13883
1.13929
1.13956
1.13961
1.13953
1.13936
1.1391
1.13878
1.13838
1.13787
1.19931
1.19919
1.199
1.1988
1.19859
1.19835
1.1981
1.19783
1.19755
1.19726
1.19687
1.1963
1.19563
1.19495
1.19439
1.1941
1.19407
1.19415
1.19417
1.1941
1.19392
1.19363
1.19329
1.19289
1.19243
1.19194
1.1914
1.19082
1.19025
1.18964
1.18908
1.18856
1.1881
1.18769
1.18736
1.15033
1.15039
1.15048
1.15057
1.15067
1.15079
1.15093
1.15108
1.15123
1.15138
1.15154
1.15171
1.15192
1.15222
1.15263
1.15298
1.15329
1.15351
1.1536
1.15361
1.15359
1.15358
1.15362
1.15368
1.15379
1.15391
1.15399
1.15397
1.15392
1.15384
1.15373
1.15362
1.15352
1.15344
1.15341
1.18273
1.18271
1.18266
1.18261
1.18255
1.18249
1.18242
1.18236
1.1823
1.18225
1.18219
1.18213
1.18208
1.18195
1.18175
1.18163
1.18159
1.18162
1.18172
1.18188
1.18204
1.18219
1.18234
1.18245
1.18248
1.18245
1.18239
1.18228
1.18216
1.18208
1.18203
1.18203
1.18209
1.18217
1.18225
1.1612
1.1612
1.16124
1.16127
1.16131
1.16136
1.16141
1.16147
1.16154
1.16161
1.16168
1.16174
1.16176
1.16182
1.16188
1.16202
1.16217
1.1623
1.1624
1.16246
1.16246
1.16243
1.16238
1.16235
1.16233
1.16233
1.16234
1.16236
1.16239
1.16243
1.16248
1.16252
1.16255
1.16259
1.16263
1.17537
1.17537
1.17536
1.17534
1.17533
1.17531
1.17529
1.17528
1.17527
1.17527
1.17528
1.17529
1.17532
1.17538
1.17546
1.17553
1.17554
1.17555
1.17559
1.17566
1.17576
1.17588
1.17601
1.17613
1.17622
1.1763
1.17635
1.17639
1.17642
1.17644
1.17645
1.17646
1.17647
1.17648
1.1765
1.16638
1.16638
1.1664
1.16642
1.16644
1.16647
1.1665
1.16654
1.16658
1.16662
1.16666
1.16669
1.16672
1.16672
1.16671
1.16668
1.16668
1.16672
1.16677
1.16681
1.16683
1.16683
1.1668
1.16676
1.16674
1.16673
1.16673
1.16674
1.16676
1.16679
1.16683
1.16686
1.1669
1.16694
1.16699
1.17223
1.17223
1.17223
1.17223
1.17223
1.17223
1.17223
1.17223
1.17223
1.17224
1.17226
1.17228
1.17231
1.17237
1.17245
1.17255
1.17267
1.17278
1.17285
1.17291
1.17298
1.17308
1.17318
1.17328
1.17337
1.17344
1.1735
1.17354
1.17357
1.1736
1.17361
1.17362
1.17363
1.17364
1.17364
1.16879
1.16879
1.1688
1.16881
1.16883
1.16885
1.16887
1.1689
1.16892
1.16895
1.16898
1.16901
1.16904
1.16905
1.16905
1.16903
1.16901
1.16898
1.16897
1.16896
1.16897
1.16899
1.16898
1.16896
1.16895
1.16894
1.16895
1.16896
1.16898
1.169
1.16903
1.16906
1.16909
1.16912
1.16916
1.17103
1.17103
1.17104
1.17104
1.17105
1.17105
1.17106
1.17107
1.17107
1.17109
1.1711
1.17112
1.17115
1.17119
1.17125
1.17133
1.17142
1.17152
1.17163
1.17173
1.17183
1.17193
1.17202
1.17211
1.17218
1.17224
1.17229
1.17233
1.17236
1.17239
1.1724
1.17241
1.17242
1.17243
1.17244
1.16986
1.16986
1.16987
1.16988
1.16989
1.16991
1.16993
1.16995
1.16997
1.16999
1.17002
1.17005
1.17008
1.1701
1.17012
1.17013
1.17014
1.17014
1.17013
1.17013
1.17012
1.17011
1.1701
1.1701
1.17009
1.1701
1.1701
1.17012
1.17013
1.17016
1.17018
1.1702
1.17023
1.17025
1.17029
1.17068
1.17068
1.17069
1.1707
1.17071
1.17072
1.17073
1.17074
1.17075
1.17077
1.17079
1.17081
1.17083
1.17087
1.17092
1.17098
1.17104
1.17111
1.17119
1.17128
1.17137
1.17147
1.17157
1.17166
1.17173
1.17179
1.17184
1.17188
1.17191
1.17193
1.17195
1.17196
1.17197
1.17198
1.17199
1.17037
1.17038
1.17038
1.17039
1.17041
1.17042
1.17044
1.17045
1.17047
1.1705
1.17052
1.17055
1.17058
1.17061
1.17065
1.17068
1.1707
1.17073
1.17075
1.17077
1.17078
1.1708
1.1708
1.1708
1.1708
1.17081
1.17081
1.17082
1.17084
1.17085
1.17087
1.17089
1.17091
1.17093
1.17096
1.1707
1.17071
1.17071
1.17072
1.17073
1.17074
1.17076
1.17077
1.17079
1.1708
1.17082
1.17085
1.17088
1.17091
1.17095
1.171
1.17106
1.17111
1.17117
1.17124
1.17131
1.17138
1.17146
1.17153
1.17159
1.17165
1.17169
1.17173
1.17176
1.17178
1.1718
1.17182
1.17183
1.17184
1.17185
1.1707
1.1707
1.17071
1.17072
1.17073
1.17074
1.17075
1.17077
1.17079
1.17081
1.17083
1.17086
1.17089
1.17093
1.17097
1.17101
1.17104
1.17108
1.17112
1.17115
1.17119
1.17122
1.17125
1.17127
1.17128
1.1713
1.17131
1.17132
1.17134
1.17135
1.17137
1.17139
1.1714
1.17142
1.17144
1.17087
1.17088
1.17089
1.17089
1.1709
1.17091
1.17093
1.17094
1.17096
1.17098
1.171
1.17102
1.17105
1.17109
1.17113
1.17117
1.17122
1.17127
1.17132
1.17137
1.17143
1.17149
1.17155
1.1716
1.17165
1.1717
1.17173
1.17176
1.17179
1.17181
1.17183
1.17185
1.17186
1.17187
1.17189
1.17096
1.17096
1.17097
1.17098
1.17099
1.171
1.17101
1.17103
1.17105
1.17107
1.17109
1.17112
1.17115
1.17118
1.17122
1.17126
1.1713
1.17135
1.17139
1.17143
1.17147
1.17151
1.17155
1.17158
1.17161
1.17163
1.17165
1.17167
1.17169
1.1717
1.17172
1.17173
1.17175
1.17176
1.17178
1.17109
1.17109
1.1711
1.17111
1.17112
1.17113
1.17114
1.17116
1.17118
1.17119
1.17122
1.17124
1.17127
1.17131
1.17134
1.17139
1.17143
1.17148
1.17152
1.17157
1.17162
1.17167
1.17172
1.17177
1.17181
1.17184
1.17187
1.1719
1.17192
1.17194
1.17196
1.17197
1.17199
1.172
1.17202
1.17119
1.1712
1.17121
1.17122
1.17123
1.17124
1.17125
1.17127
1.17128
1.1713
1.17132
1.17135
1.17138
1.17141
1.17145
1.17149
1.17153
1.17158
1.17162
1.17166
1.17171
1.17175
1.17179
1.17183
1.17186
1.17188
1.1719
1.17192
1.17194
1.17196
1.17197
1.17199
1.172
1.17202
1.17204
1.17131
1.17132
1.17132
1.17133
1.17134
1.17135
1.17137
1.17138
1.1714
1.17141
1.17144
1.17146
1.17149
1.17152
1.17156
1.1716
1.17164
1.17168
1.17173
1.17177
1.17182
1.17186
1.17191
1.17195
1.17198
1.17201
1.17204
1.17207
1.17209
1.1721
1.17212
1.17213
1.17215
1.17216
1.17218
1.17142
1.17142
1.17143
1.17144
1.17145
1.17146
1.17147
1.17148
1.1715
1.17152
1.17154
1.17156
1.17159
1.17162
1.17166
1.1717
1.17174
1.17178
1.17183
1.17187
1.17191
1.17195
1.172
1.17203
1.17206
1.17209
1.17211
1.17213
1.17215
1.17217
1.17218
1.1722
1.17221
1.17222
1.17224
1.17152
1.17153
1.17153
1.17154
1.17155
1.17156
1.17157
1.17159
1.1716
1.17162
1.17164
1.17166
1.17169
1.17172
1.17176
1.1718
1.17184
1.17188
1.17192
1.17196
1.172
1.17205
1.17209
1.17213
1.17216
1.17219
1.17221
1.17223
1.17225
1.17227
1.17229
1.1723
1.17231
1.17233
1.17234
1.17162
1.17162
1.17163
1.17164
1.17165
1.17166
1.17167
1.17168
1.1717
1.17171
1.17173
1.17176
1.17178
1.17181
1.17185
1.17189
1.17193
1.17197
1.17201
1.17205
1.17209
1.17213
1.17217
1.17221
1.17224
1.17226
1.17229
1.17231
1.17233
1.17234
1.17236
1.17237
1.17238
1.1724
1.17242
1.17171
1.17171
1.17172
1.17173
1.17174
1.17175
1.17176
1.17177
1.17179
1.1718
1.17182
1.17185
1.17187
1.1719
1.17194
1.17197
1.17201
1.17205
1.17209
1.17213
1.17217
1.17221
1.17225
1.17229
1.17232
1.17235
1.17237
1.17239
1.17241
1.17242
1.17244
1.17245
1.17247
1.17248
1.1725
1.17179
1.1718
1.17181
1.17181
1.17182
1.17183
1.17184
1.17186
1.17187
1.17189
1.17191
1.17193
1.17195
1.17198
1.17202
1.17205
1.17209
1.17213
1.17217
1.17221
1.17225
1.17229
1.17233
1.17236
1.17239
1.17242
1.17244
1.17246
1.17248
1.17249
1.17251
1.17252
1.17254
1.17255
1.17257
1.17259
1.17257
1.17256
1.17255
1.17253
1.17252
1.1725
1.17248
1.17247
1.17244
1.17242
1.17239
1.17236
1.17232
1.17228
1.17225
1.17221
1.17218
1.17214
1.17211
1.17208
1.17205
1.17202
1.172
1.17198
1.17197
1.17195
1.17194
1.17193
1.17192
1.17191
1.17191
1.1719
1.17189
1.17189
1.17268
1.17266
1.17265
1.17263
1.17262
1.17261
1.17259
1.17257
1.17255
1.17253
1.17251
1.17248
1.17245
1.17241
1.17237
1.17234
1.1723
1.17227
1.17223
1.1722
1.17217
1.17214
1.17212
1.17209
1.17208
1.17206
1.17205
1.17204
1.17203
1.17202
1.17201
1.172
1.172
1.17199
1.17198
1.17276
1.17274
1.17273
1.17272
1.1727
1.17269
1.17267
1.17266
1.17264
1.17261
1.17259
1.17256
1.17253
1.17249
1.17246
1.17242
1.17239
1.17235
1.17232
1.17228
1.17225
1.17222
1.1722
1.17218
1.17216
1.17214
1.17213
1.17212
1.17211
1.1721
1.1721