/*--------------------------------*- C++ -*----------------------------------*\
  =========                 |
  \\      /  F ield         | OpenFOAM: The Open Source CFD Toolbox
   \\    /   O peration     | Website:  https://openfoam.org
    \\  /    A nd           | Version:  8
     \\/     M anipulation  |
\*---------------------------------------------------------------------------*/
FoamFile
{
    version     2.0;
    format      ascii;
    class       volScalarField;
    location    "0.1";
    object      T;
}
// * * * * * * * * * * * * * * * * * * * * * * * * * * * * * * * * * * * * * //

dimensions      [0 0 0 1 0 0 0];

internalField   nonuniform List<scalar> 
15677
(
297.761
297.594
297.507
297.463
297.444
297.446
297.469
297.519
297.602
297.731
297.92
298.192
298.525
298.707
298.707
298.678
298.611
298.519
298.424
298.35
298.321
298.319
298.317
298.309
298.289
298.263
298.246
298.235
298.228
298.224
298.222
298.221
298.22
298.22
298.221
295.743
295.606
295.554
295.555
295.606
295.717
295.906
296.201
296.649
297.337
298.351
299.56
300.448
300.868
300.98
300.946
300.798
300.556
300.216
299.781
299.29
298.837
298.505
298.305
298.22
298.2
298.208
298.232
298.267
298.307
298.351
298.399
298.448
298.497
298.544
302.029
301.772
301.552
301.342
301.121
300.868
300.557
300.166
299.669
299.096
298.611
298.196
297.885
297.725
297.904
298.098
298.237
298.325
298.384
298.452
298.565
298.754
298.994
299.282
299.618
299.955
300.252
300.497
300.692
300.846
300.965
301.056
301.125
301.177
301.215
301.98
301.777
301.672
301.592
301.511
301.414
301.307
301.199
301.12
301.077
301.104
301.141
301.187
301.217
301.202
301.145
301.028
300.874
300.688
300.499
300.336
300.228
300.196
300.216
300.263
300.319
300.38
300.442
300.501
300.555
300.605
300.649
300.689
300.725
300.755
300.846
300.829
300.825
300.82
300.813
300.801
300.784
300.763
300.739
300.716
300.7
300.687
300.674
300.655
300.625
300.589
300.551
300.518
300.499
300.494
300.512
300.555
300.621
300.704
300.795
300.881
300.956
301.022
301.083
301.136
301.183
301.223
301.258
301.287
301.312
301.554
301.536
301.517
301.498
301.479
301.459
301.438
301.416
301.393
301.368
301.34
301.31
301.275
301.235
301.194
301.153
301.113
301.077
301.05
301.033
301.029
301.036
301.051
301.067
301.083
301.099
301.114
301.128
301.142
301.155
301.166
301.176
301.185
301.192
301.199
300.928
300.947
300.964
300.981
300.997
301.012
301.027
301.041
301.053
301.062
301.069
301.072
301.071
301.066
301.057
301.048
301.04
301.036
301.035
301.04
301.051
301.07
301.095
301.122
301.151
301.177
301.202
301.224
301.243
301.26
301.274
301.287
301.298
301.307
301.316
301.42
301.401
301.385
301.371
301.357
301.344
301.331
301.32
301.309
301.299
301.29
301.282
301.274
301.266
301.259
301.253
301.249
301.247
301.247
301.249
301.253
301.258
301.264
301.27
301.276
301.282
301.288
301.293
301.297
301.301
301.305
301.308
301.311
301.313
301.316
301.138
301.149
301.159
301.167
301.175
301.184
301.192
301.2
301.207
301.214
301.221
301.227
301.231
301.235
301.238
301.241
301.243
301.246
301.249
301.254
301.26
301.269
301.278
301.287
301.296
301.305
301.313
301.32
301.326
301.332
301.337
301.341
301.345
301.348
301.351
301.362
301.349
301.34
301.332
301.325
301.319
301.313
301.309
301.306
301.303
301.302
301.303
301.304
301.307
301.311
301.315
301.319
301.323
301.328
301.333
301.337
301.341
301.346
301.35
301.354
301.358
301.361
301.364
301.367
301.369
301.371
301.373
301.375
301.376
301.378
301.222
301.227
301.232
301.237
301.242
301.247
301.252
301.257
301.263
301.269
301.275
301.281
301.287
301.294
301.301
301.308
301.314
301.32
301.326
301.332
301.339
301.345
301.351
301.356
301.361
301.365
301.369
301.373
301.376
301.379
301.381
301.384
301.386
301.388
301.389
301.323
301.315
301.31
301.305
301.302
301.299
301.298
301.297
301.297
301.298
301.3
301.304
301.308
301.314
301.321
301.328
301.335
301.342
301.348
301.355
301.36
301.366
301.371
301.375
301.379
301.382
301.385
301.387
301.39
301.392
301.393
301.395
301.396
301.398
301.399
301.224
301.229
301.233
301.238
301.242
301.246
301.251
301.256
301.261
301.267
301.273
301.28
301.288
301.296
301.305
301.314
301.322
301.33
301.338
301.345
301.352
301.359
301.365
301.37
301.374
301.378
301.381
301.383
301.386
301.388
301.39
301.391
301.393
301.394
301.395
301.272
301.268
301.266
301.264
301.263
301.262
301.263
301.264
301.266
301.269
301.273
301.278
301.285
301.292
301.301
301.309
301.317
301.326
301.334
301.341
301.349
301.355
301.361
301.366
301.37
301.373
301.376
301.379
301.381
301.383
301.385
301.386
301.387
301.389
301.389
301.191
301.197
301.201
301.206
301.21
301.214
301.219
301.224
301.229
301.235
301.242
301.249
301.258
301.267
301.277
301.287
301.297
301.306
301.315
301.324
301.332
301.34
301.346
301.351
301.356
301.36
301.363
301.366
301.368
301.37
301.372
301.373
301.375
301.376
301.377
301.213
301.212
301.211
301.211
301.211
301.212
301.214
301.216
301.219
301.223
301.227
301.234
301.241
301.25
301.26
301.269
301.279
301.288
301.297
301.306
301.315
301.322
301.329
301.335
301.339
301.343
301.347
301.35
301.352
301.354
301.356
301.358
301.359
301.36
301.361
301.15
301.154
301.158
301.162
301.165
301.169
301.173
301.178
301.183
301.189
301.196
301.203
301.212
301.222
301.233
301.243
301.253
301.263
301.273
301.282
301.291
301.3
301.307
301.312
301.317
301.322
301.325
301.329
301.331
301.334
301.336
301.337
301.339
301.34
301.341
301.143
301.145
301.147
301.148
301.15
301.152
301.155
301.158
301.162
301.167
301.173
301.18
301.188
301.198
301.208
301.218
301.228
301.238
301.248
301.258
301.267
301.275
301.282
301.288
301.294
301.298
301.302
301.305
301.308
301.311
301.313
301.314
301.316
301.317
301.319
301.102
301.105
301.108
301.111
301.114
301.118
301.122
301.126
301.131
301.136
301.143
301.15
301.159
301.169
301.18
301.19
301.2
301.21
301.221
301.23
301.24
301.248
301.256
301.262
301.267
301.272
301.276
301.279
301.282
301.285
301.287
301.289
301.291
301.292
301.293
301.079
301.083
301.085
301.088
301.09
301.093
301.096
301.1
301.105
301.11
301.116
301.123
301.132
301.141
301.152
301.162
301.172
301.183
301.193
301.202
301.212
301.22
301.228
301.234
301.24
301.245
301.249
301.252
301.255
301.258
301.26
301.262
301.264
301.265
301.267
301.046
301.05
301.053
301.056
301.059
301.063
301.066
301.07
301.075
301.081
301.087
301.094
301.103
301.113
301.123
301.134
301.144
301.154
301.164
301.174
301.183
301.192
301.199
301.206
301.211
301.216
301.22
301.224
301.227
301.229
301.232
301.234
301.236
301.237
301.239
301.02
301.024
301.027
301.03
301.033
301.036
301.039
301.043
301.048
301.053
301.06
301.067
301.075
301.085
301.095
301.105
301.115
301.126
301.135
301.145
301.154
301.163
301.171
301.177
301.182
301.187
301.191
301.195
301.198
301.201
301.203
301.205
301.207
301.209
301.21
300.991
300.995
300.998
301.001
301.004
301.008
301.011
301.016
301.02
301.026
301.032
301.039
301.048
301.057
301.068
301.078
301.088
301.097
301.107
301.117
301.126
301.135
301.142
301.148
301.154
301.158
301.163
301.166
301.169
301.172
301.174
301.176
301.178
301.18
301.181
300.965
300.969
300.972
300.975
300.978
300.982
300.985
300.989
300.994
301
301.006
301.013
301.021
301.031
301.041
301.051
301.06
301.07
301.08
301.089
301.098
301.107
301.114
301.12
301.126
301.13
301.134
301.138
301.141
301.143
301.146
301.148
301.15
301.151
301.153
300.939
300.943
300.946
300.949
300.953
300.956
300.96
300.964
300.969
300.974
300.98
300.987
300.995
301.005
301.015
301.025
301.034
301.044
301.053
301.062
301.071
301.08
301.087
301.093
301.098
301.103
301.107
301.11
301.113
301.116
301.118
301.12
301.122
301.124
301.125
300.914
300.919
300.922
300.925
300.928
300.932
300.935
300.939
300.944
300.949
300.956
300.963
300.971
300.98
300.99
300.999
301.009
301.018
301.028
301.037
301.045
301.053
301.061
301.067
301.072
301.076
301.08
301.084
301.087
301.089
301.091
301.093
301.095
301.097
301.098
300.891
300.895
300.899
300.902
300.905
300.908
300.912
300.916
300.921
300.926
300.932
300.939
300.947
300.957
300.966
300.976
300.985
300.994
301.003
301.012
301.021
301.029
301.036
301.041
301.047
301.051
301.055
301.058
301.061
301.064
301.066
301.068
301.07
301.071
301.073
300.869
300.873
300.876
300.88
300.883
300.886
300.89
300.894
300.899
300.904
300.91
300.917
300.925
300.934
300.944
300.953
300.962
300.971
300.98
300.989
300.997
301.005
301.012
301.018
301.023
301.027
301.031
301.034
301.037
301.039
301.042
301.044
301.045
301.047
301.048
300.848
300.852
300.856
300.859
300.862
300.865
300.869
300.873
300.878
300.883
300.889
300.896
300.904
300.913
300.922
300.931
300.94
300.949
300.958
300.967
300.975
300.983
300.989
300.995
301
301.004
301.008
301.011
301.014
301.017
301.019
301.021
301.023
301.024
301.026
300.828
300.832
300.836
300.839
300.842
300.845
300.849
300.853
300.858
300.863
300.869
300.876
300.884
300.893
300.902
300.911
300.92
300.929
300.938
300.946
300.954
300.962
300.968
300.974
300.979
300.983
300.987
300.99
300.993
300.995
300.997
300.999
301.001
301.003
301.004
298.228
298.24
298.253
298.263
298.269
298.271
298.267
298.257
298.242
298.221
298.195
298.167
298.142
298.121
298.105
298.094
298.086
298.081
298.077
298.074
298.072
298.072
298.593
298.641
298.682
298.717
298.745
298.767
298.782
298.793
298.797
298.794
298.783
298.763
298.737
298.708
298.678
298.649
298.622
298.595
298.569
298.545
298.523
298.503
301.246
301.265
301.272
301.268
301.252
301.228
301.195
301.156
301.113
301.068
301.025
300.988
300.961
300.945
300.94
300.944
300.954
300.967
300.983
300.999
301.012
301.022
300.79
300.829
300.864
300.895
300.921
300.94
300.952
300.955
300.949
300.932
300.904
300.865
300.819
300.77
300.72
300.671
300.625
300.584
300.547
300.515
300.487
300.462
301.338
301.368
301.396
301.422
301.444
301.464
301.479
301.49
301.496
301.496
301.49
301.48
301.465
301.447
301.428
301.408
301.388
301.369
301.351
301.334
301.316
301.299
301.206
301.215
301.223
301.23
301.237
301.241
301.245
301.246
301.246
301.243
301.239
301.233
301.224
301.215
301.205
301.194
301.183
301.172
301.161
301.151
301.14
301.129
301.324
301.335
301.344
301.354
301.363
301.37
301.377
301.383
301.387
301.39
301.391
301.391
301.39
301.387
301.383
301.379
301.374
301.369
301.363
301.357
301.351
301.345
301.318
301.321
301.324
301.327
301.33
301.333
301.335
301.337
301.339
301.341
301.341
301.342
301.341
301.34
301.339
301.337
301.334
301.332
301.329
301.326
301.322
301.319
301.354
301.357
301.36
301.363
301.366
301.37
301.373
301.377
301.38
301.383
301.385
301.388
301.39
301.391
301.393
301.393
301.394
301.394
301.394
301.393
301.392
301.391
301.379
301.38
301.381
301.383
301.384
301.385
301.387
301.388
301.39
301.392
301.393
301.395
301.397
301.398
301.399
301.401
301.401
301.402
301.402
301.403
301.403
301.403
301.391
301.393
301.395
301.397
301.399
301.401
301.403
301.405
301.407
301.409
301.412
301.414
301.416
301.419
301.421
301.423
301.424
301.426
301.427
301.429
301.43
301.431
301.4
301.401
301.403
301.404
301.406
301.407
301.409
301.41
301.412
301.414
301.416
301.418
301.42
301.422
301.424
301.426
301.427
301.429
301.431
301.432
301.434
301.435
301.397
301.398
301.4
301.402
301.404
301.406
301.408
301.41
301.412
301.414
301.416
301.418
301.42
301.422
301.424
301.426
301.428
301.43
301.431
301.433
301.435
301.436
301.391
301.393
301.395
301.397
301.399
301.401
301.403
301.405
301.407
301.409
301.411
301.413
301.415
301.417
301.419
301.421
301.423
301.424
301.426
301.428
301.429
301.431
301.379
301.381
301.384
301.386
301.389
301.391
301.394
301.396
301.398
301.401
301.403
301.405
301.407
301.409
301.411
301.413
301.415
301.417
301.418
301.42
301.421
301.423
301.363
301.366
301.37
301.373
301.376
301.379
301.381
301.384
301.387
301.39
301.392
301.395
301.397
301.399
301.401
301.403
301.405
301.407
301.408
301.41
301.411
301.413
301.344
301.348
301.351
301.355
301.359
301.362
301.366
301.369
301.373
301.376
301.379
301.382
301.385
301.387
301.389
301.392
301.394
301.396
301.397
301.399
301.401
301.402
301.321
301.326
301.331
301.335
301.339
301.344
301.348
301.352
301.356
301.36
301.363
301.367
301.37
301.373
301.376
301.379
301.381
301.383
301.385
301.387
301.389
301.39
301.297
301.302
301.307
301.312
301.317
301.322
301.327
301.332
301.337
301.341
301.346
301.35
301.354
301.358
301.361
301.364
301.367
301.369
301.372
301.374
301.376
301.378
301.27
301.276
301.282
301.288
301.293
301.299
301.305
301.31
301.316
301.321
301.326
301.331
301.336
301.34
301.344
301.348
301.351
301.354
301.357
301.36
301.362
301.364
301.242
301.249
301.255
301.262
301.268
301.275
301.281
301.287
301.293
301.299
301.305
301.311
301.316
301.321
301.326
301.33
301.334
301.338
301.341
301.344
301.347
301.35
301.214
301.221
301.228
301.235
301.242
301.249
301.256
301.263
301.27
301.276
301.283
301.289
301.296
301.301
301.307
301.311
301.316
301.32
301.324
301.328
301.331
301.334
301.185
301.193
301.2
301.208
301.215
301.223
301.23
301.238
301.245
301.253
301.26
301.267
301.274
301.28
301.286
301.292
301.297
301.301
301.306
301.31
301.314
301.317
301.157
301.165
301.173
301.181
301.189
301.197
301.205
301.213
301.221
301.228
301.236
301.244
301.252
301.259
301.265
301.271
301.277
301.282
301.287
301.291
301.296
301.3
301.13
301.138
301.146
301.154
301.162
301.171
301.179
301.187
301.196
301.204
301.213
301.221
301.229
301.237
301.244
301.25
301.256
301.262
301.268
301.273
301.277
301.282
301.103
301.111
301.12
301.128
301.137
301.145
301.154
301.163
301.172
301.181
301.189
301.198
301.207
301.215
301.222
301.229
301.236
301.242
301.248
301.253
301.259
301.263
301.077
301.086
301.094
301.103
301.112
301.121
301.13
301.139
301.148
301.157
301.167
301.176
301.185
301.193
301.201
301.208
301.215
301.222
301.228
301.234
301.24
301.245
301.053
301.062
301.07
301.079
301.088
301.097
301.107
301.116
301.125
301.135
301.144
301.154
301.163
301.172
301.18
301.188
301.195
301.202
301.209
301.215
301.221
301.227
301.03
301.039
301.048
301.057
301.066
301.075
301.084
301.094
301.104
301.113
301.123
301.133
301.142
301.151
301.16
301.168
301.176
301.183
301.19
301.197
301.203
301.209
301.009
301.018
301.026
301.035
301.045
301.054
301.063
301.073
301.083
301.093
301.103
301.113
301.123
301.132
301.141
301.149
301.157
301.165
301.172
301.179
301.185
301.191
298.07
298.066
298.062
298.055
298.046
298.034
298.487
298.475
298.459
298.44
298.417
298.392
301.035
301.051
301.061
301.068
301.069
301.065
300.44
300.42
300.402
300.387
300.372
300.36
301.284
301.27
301.255
301.238
301.22
301.2
301.119
301.108
301.098
301.089
301.08
301.071
301.34
301.335
301.33
301.325
301.32
301.314
301.315
301.313
301.31
301.308
301.306
301.303
301.391
301.392
301.392
301.392
301.392
301.392
301.403
301.404
301.405
301.406
301.407
301.407
301.433
301.435
301.436
301.438
301.44
301.441
301.436
301.438
301.44
301.441
301.442
301.444
301.438
301.439
301.441
301.442
301.443
301.444
301.432
301.433
301.434
301.435
301.435
301.436
301.424
301.424
301.425
301.425
301.426
301.426
301.414
301.414
301.414
301.414
301.414
301.414
301.403
301.403
301.403
301.403
301.402
301.402
301.391
301.391
301.391
301.39
301.39
301.39
301.379
301.378
301.378
301.378
301.377
301.377
301.365
301.365
301.365
301.364
301.364
301.363
301.351
301.35
301.35
301.35
301.349
301.349
301.335
301.335
301.335
301.334
301.334
301.333
301.319
301.319
301.318
301.318
301.317
301.317
301.302
301.301
301.301
301.301
301.3
301.3
301.284
301.284
301.283
301.283
301.283
301.282
301.266
301.266
301.265
301.265
301.265
301.264
301.248
301.247
301.247
301.247
301.246
301.246
301.229
301.229
301.229
301.229
301.228
301.228
301.212
301.212
301.211
301.211
301.211
301.21
301.194
301.194
301.194
301.194
301.193
301.193
298.019
298.003
297.987
297.972
297.958
297.947
297.938
297.933
297.932
297.935
297.942
297.954
297.971
297.993
298.017
298.042
298.067
298.091
298.111
298.126
298.137
298.141
298.374
298.365
298.357
298.351
298.35
298.352
298.358
298.367
298.38
298.398
298.419
298.44
298.459
298.475
298.487
298.497
298.502
298.505
298.504
298.497
298.483
298.462
301.06
301.054
301.04
301.018
300.988
300.948
300.899
300.838
300.766
300.682
300.585
300.478
300.364
300.249
300.137
300.03
299.932
299.844
299.768
299.702
299.646
299.599
300.35
300.342
300.334
300.325
300.315
300.302
300.288
300.271
300.25
300.226
300.199
300.17
300.142
300.116
300.093
300.073
300.057
300.046
300.038
300.031
300.022
300.011
301.183
301.17
301.156
301.14
301.123
301.106
301.088
301.072
301.057
301.045
301.037
301.032
301.031
301.033
301.036
301.038
301.039
301.034
301.025
301.01
300.989
300.964
301.064
301.06
301.055
301.05
301.045
301.04
301.035
301.03
301.025
301.021
301.016
301.011
301.006
301.002
300.997
300.992
300.988
300.983
300.978
300.973
300.969
300.965
301.309
301.308
301.307
301.305
301.304
301.303
301.303
301.302
301.301
301.301
301.3
301.3
301.299
301.299
301.299
301.298
301.298
301.297
301.297
301.296
301.296
301.297
301.303
301.303
301.303
301.304
301.304
301.304
301.304
301.304
301.305
301.305
301.305
301.306
301.306
301.307
301.308
301.309
301.31
301.311
301.313
301.314
301.316
301.317
301.392
301.394
301.396
301.398
301.401
301.403
301.405
301.407
301.409
301.411
301.413
301.415
301.417
301.419
301.421
301.423
301.424
301.426
301.427
301.428
301.429
301.43
301.409
301.411
301.413
301.415
301.416
301.418
301.42
301.421
301.422
301.423
301.424
301.425
301.425
301.426
301.426
301.425
301.425
301.425
301.424
301.423
301.421
301.42
301.442
301.444
301.446
301.447
301.448
301.449
301.45
301.451
301.451
301.452
301.452
301.451
301.45
301.449
301.448
301.447
301.445
301.443
301.441
301.439
301.437
301.435
301.445
301.446
301.446
301.447
301.447
301.447
301.447
301.447
301.446
301.445
301.443
301.442
301.44
301.437
301.435
301.432
301.429
301.426
301.423
301.42
301.416
301.413
301.444
301.444
301.444
301.444
301.444
301.443
301.442
301.441
301.439
301.438
301.435
301.433
301.43
301.427
301.424
301.421
301.418
301.414
301.411
301.408
301.404
301.401
301.436
301.435
301.434
301.433
301.432
301.43
301.429
301.427
301.424
301.422
301.419
301.416
301.412
301.409
301.405
301.401
301.397
301.394
301.39
301.386
301.382
301.378
301.425
301.424
301.423
301.421
301.419
301.417
301.415
301.413
301.41
301.407
301.404
301.4
301.396
301.393
301.389
301.385
301.381
301.377
301.373
301.369
301.365
301.362
301.413
301.411
301.41
301.408
301.405
301.403
301.4
301.398
301.394
301.391
301.387
301.383
301.379
301.375
301.371
301.367
301.363
301.359
301.354
301.35
301.346
301.342
301.401
301.399
301.397
301.394
301.392
301.389
301.386
301.383
301.379
301.376
301.372
301.367
301.363
301.359
301.354
301.35
301.345
301.341
301.336
301.331
301.327
301.322
301.388
301.386
301.383
301.381
301.378
301.375
301.371
301.368
301.364
301.36
301.355
301.351
301.346
301.341
301.336
301.331
301.326
301.321
301.316
301.311
301.306
301.3
301.375
301.373
301.37
301.367
301.363
301.36
301.356
301.352
301.348
301.343
301.338
301.333
301.327
301.322
301.316
301.311
301.305
301.3
301.294
301.288
301.283
301.277
301.361
301.358
301.355
301.352
301.348
301.344
301.34
301.335
301.33
301.325
301.32
301.314
301.308
301.302
301.296
301.289
301.283
301.277
301.271
301.265
301.258
301.252
301.347
301.343
301.34
301.336
301.331
301.327
301.322
301.317
301.312
301.306
301.3
301.294
301.287
301.28
301.273
301.267
301.26
301.253
301.246
301.239
301.233
301.226
301.331
301.327
301.323
301.319
301.314
301.309
301.304
301.298
301.292
301.286
301.279
301.272
301.265
301.257
301.25
301.243
301.235
301.228
301.221
301.213
301.206
301.199
301.314
301.31
301.306
301.301
301.296
301.29
301.284
301.278
301.272
301.265
301.258
301.25
301.242
301.234
301.226
301.218
301.21
301.202
301.195
301.187
301.179
301.172
301.297
301.292
301.287
301.282
301.277
301.271
301.264
301.258
301.251
301.243
301.235
301.227
301.219
301.21
301.202
301.193
301.185
301.177
301.169
301.161
301.153
301.145
301.279
301.274
301.269
301.263
301.257
301.251
301.244
301.237
301.229
301.222
301.213
301.204
301.195
301.187
301.178
301.169
301.16
301.152
301.143
301.135
301.126
301.118
301.261
301.256
301.25
301.244
301.237
301.231
301.224
301.216
301.208
301.2
301.191
301.182
301.172
301.163
301.154
301.145
301.136
301.127
301.118
301.109
301.101
301.093
301.243
301.237
301.231
301.225
301.218
301.211
301.203
301.195
301.187
301.178
301.169
301.16
301.15
301.14
301.131
301.121
301.112
301.103
301.094
301.085
301.077
301.068
301.225
301.219
301.212
301.205
301.198
301.191
301.183
301.175
301.166
301.157
301.148
301.138
301.128
301.118
301.108
301.099
301.089
301.08
301.071
301.062
301.053
301.045
301.207
301.2
301.194
301.187
301.179
301.172
301.164
301.155
301.146
301.137
301.127
301.117
301.107
301.097
301.087
301.077
301.068
301.058
301.049
301.04
301.031
301.023
301.189
301.183
301.176
301.169
301.161
301.153
301.145
301.136
301.127
301.118
301.108
301.098
301.087
301.077
301.067
301.057
301.047
301.038
301.029
301.019
301.011
301.002
298.142
298.141
298.136
298.126
298.106
298.074
298.028
297.964
297.877
297.764
297.625
297.462
297.279
297.133
297.044
297.018
297.058
297.166
297.335
297.567
297.809
298.024
298.093
298.05
297.917
297.741
297.59
297.436
297.29
297.154
297.031
296.92
296.82
296.729
296.637
298.437
298.411
298.383
298.356
298.332
298.311
298.294
298.279
298.263
298.242
298.216
298.187
298.167
298.165
298.21
298.324
298.507
298.766
299.099
299.516
299.975
300.422
300.708
300.619
300.185
299.389
298.621
298.107
297.83
297.701
297.671
297.704
297.789
297.933
298.132
299.563
299.533
299.502
299.469
299.435
299.4
299.363
299.322
299.278
299.227
299.174
299.129
299.087
299.035
298.975
298.903
298.819
298.716
298.598
298.468
298.359
298.388
298.654
299.221
299.622
299.834
300.015
300.212
300.416
300.627
300.834
301.04
301.253
301.5
301.868
299.995
299.976
299.953
299.925
299.894
299.863
299.839
299.831
299.85
299.909
300.014
300.154
300.32
300.497
300.668
300.815
300.935
301.029
301.075
301.023
300.791
300.393
300.001
299.731
299.645
299.612
299.653
299.7
299.775
299.877
300.001
300.144
300.305
300.494
300.792
300.937
300.907
300.871
300.828
300.777
300.718
300.653
300.584
300.517
300.457
300.407
300.368
300.337
300.32
300.316
300.321
300.332
300.352
300.383
300.409
300.453
300.526
300.652
300.809
300.97
301.166
301.349
301.533
301.719
301.902
302.081
302.252
302.417
302.583
302.767
300.961
300.956
300.95
300.944
300.938
300.933
300.928
300.925
300.923
300.925
300.934
300.951
300.977
301.009
301.044
301.076
301.108
301.142
301.181
301.216
301.24
301.27
301.302
301.382
301.46
301.552
301.634
301.707
301.78
301.859
301.945
302.034
302.124
302.227
302.351
301.296
301.293
301.289
301.284
301.278
301.27
301.261
301.251
301.242
301.234
301.229
301.226
301.226
301.226
301.227
301.225
301.222
301.217
301.211
301.203
301.194
301.19
301.199
301.228
301.283
301.368
301.484
301.624
301.774
301.924
302.062
302.185
302.291
302.383
302.459
301.317
301.316
301.315
301.313
301.312
301.31
301.307
301.304
301.3
301.296
301.291
301.285
301.278
301.271
301.263
301.254
301.243
301.232
301.219
301.204
301.189
301.173
301.159
301.15
301.146
301.146
301.147
301.158
301.183
301.224
301.271
301.313
301.346
301.366
301.37
301.43
301.429
301.427
301.425
301.422
301.419
301.415
301.411
301.405
301.398
301.391
301.383
301.373
301.363
301.351
301.338
301.324
301.31
301.296
301.281
301.267
301.254
301.241
301.23
301.22
301.21
301.2
301.19
301.181
301.173
301.165
301.158
301.152
301.145
301.138
301.418
301.417
301.415
301.413
301.41
301.407
301.403
301.399
301.394
301.388
301.38
301.372
301.361
301.349
301.335
301.321
301.306
301.292
301.278
301.264
301.25
301.236
301.223
301.212
301.202
301.193
301.185
301.178
301.171
301.164
301.158
301.153
301.147
301.141
301.132
301.433
301.432
301.43
301.428
301.425
301.422
301.418
301.414
301.409
301.403
301.396
301.388
301.378
301.368
301.356
301.343
301.33
301.317
301.304
301.292
301.28
301.267
301.256
301.247
301.239
301.232
301.226
301.221
301.216
301.211
301.207
301.202
301.198
301.194
301.188
301.41
301.409
301.407
301.404
301.402
301.398
301.395
301.391
301.386
301.38
301.373
301.366
301.357
301.346
301.335
301.322
301.31
301.297
301.285
301.273
301.261
301.25
301.239
301.229
301.221
301.214
301.207
301.201
301.195
301.189
301.184
301.179
301.173
301.167
301.159
301.398
301.397
301.395
301.393
301.39
301.387
301.384
301.38
301.376
301.37
301.364
301.357
301.349
301.34
301.33
301.318
301.307
301.296
301.285
301.274
301.263
301.253
301.243
301.235
301.228
301.222
301.218
301.213
301.21
301.207
301.204
301.202
301.199
301.197
301.194
301.375
301.374
301.372
301.37
301.367
301.365
301.361
301.358
301.353
301.349
301.343
301.336
301.329
301.32
301.31
301.299
301.288
301.277
301.265
301.254
301.243
301.232
301.222
301.212
301.205
301.198
301.191
301.186
301.18
301.175
301.171
301.166
301.161
301.156
301.148
301.359
301.357
301.356
301.354
301.351
301.348
301.345
301.342
301.338
301.333
301.327
301.321
301.314
301.305
301.295
301.285
301.274
301.263
301.252
301.242
301.231
301.22
301.21
301.201
301.194
301.188
301.183
301.179
301.175
301.172
301.169
301.167
301.165
301.163
301.16
301.339
301.337
301.335
301.333
301.331
301.328
301.325
301.321
301.317
301.312
301.307
301.301
301.293
301.285
301.275
301.264
301.253
301.242
301.231
301.22
301.208
301.197
301.186
301.177
301.169
301.161
301.155
301.149
301.144
301.139
301.135
301.13
301.126
301.121
301.114
301.319
301.318
301.316
301.314
301.311
301.309
301.305
301.302
301.297
301.293
301.287
301.281
301.273
301.265
301.255
301.244
301.233
301.222
301.211
301.199
301.188
301.177
301.166
301.157
301.149
301.142
301.136
301.132
301.127
301.124
301.12
301.118
301.115
301.112
301.109
301.297
301.296
301.294
301.291
301.289
301.286
301.283
301.279
301.275
301.27
301.264
301.258
301.25
301.241
301.231
301.221
301.209
301.198
301.187
301.175
301.164
301.152
301.14
301.131
301.122
301.115
301.109
301.103
301.098
301.093
301.089
301.085
301.081
301.077
301.071
301.274
301.272
301.27
301.268
301.265
301.262
301.259
301.255
301.251
301.246
301.24
301.234
301.226
301.217
301.207
301.196
301.185
301.174
301.162
301.151
301.139
301.127
301.116
301.107
301.098
301.091
301.085
301.08
301.075
301.071
301.068
301.065
301.062
301.059
301.055
301.248
301.247
301.245
301.242
301.24
301.237
301.234
301.23
301.225
301.22
301.215
301.208
301.2
301.191
301.181
301.17
301.159
301.148
301.136
301.125
301.113
301.101
301.09
301.08
301.072
301.065
301.059
301.053
301.048
301.044
301.04
301.036
301.033
301.029
301.024
301.222
301.22
301.218
301.216
301.213
301.21
301.207
301.203
301.199
301.194
301.188
301.181
301.174
301.165
301.155
301.144
301.133
301.122
301.11
301.099
301.087
301.076
301.064
301.055
301.047
301.04
301.034
301.028
301.024
301.02
301.016
301.013
301.01
301.006
301.002
301.195
301.193
301.191
301.189
301.186
301.183
301.18
301.176
301.172
301.167
301.161
301.155
301.147
301.138
301.128
301.117
301.106
301.095
301.084
301.073
301.061
301.05
301.039
301.029
301.021
301.014
301.008
301.003
300.998
300.994
300.99
300.987
300.983
300.979
300.975
301.167
301.166
301.164
301.161
301.159
301.156
301.153
301.149
301.145
301.14
301.134
301.128
301.12
301.111
301.102
301.091
301.08
301.069
301.058
301.047
301.036
301.024
301.014
301.004
300.996
300.99
300.984
300.978
300.974
300.97
300.966
300.963
300.96
300.956
300.952
301.14
301.139
301.137
301.134
301.132
301.129
301.126
301.122
301.118
301.113
301.107
301.101
301.094
301.085
301.076
301.065
301.054
301.044
301.033
301.022
301.011
301
300.989
300.98
300.972
300.966
300.96
300.954
300.95
300.946
300.942
300.939
300.936
300.932
300.927
301.114
301.112
301.11
301.108
301.105
301.103
301.099
301.096
301.092
301.087
301.081
301.075
301.068
301.06
301.05
301.04
301.03
301.019
301.008
300.998
300.987
300.976
300.966
300.957
300.949
300.942
300.937
300.932
300.927
300.923
300.92
300.916
300.913
300.91
300.906
301.088
301.086
301.084
301.082
301.08
301.077
301.074
301.07
301.066
301.062
301.056
301.05
301.043
301.035
301.026
301.016
301.005
300.995
300.985
300.974
300.964
300.953
300.943
300.934
300.927
300.92
300.915
300.91
300.905
300.901
300.898
300.895
300.891
300.888
300.883
301.063
301.062
301.06
301.058
301.055
301.052
301.049
301.046
301.042
301.037
301.032
301.026
301.019
301.011
301.002
300.992
300.982
300.972
300.962
300.952
300.942
300.931
300.921
300.913
300.905
300.899
300.893
300.889
300.884
300.88
300.877
300.874
300.871
300.867
300.863
301.04
301.038
301.036
301.034
301.032
301.029
301.026
301.023
301.019
301.014
301.009
301.003
300.996
300.989
300.98
300.97
300.961
300.951
300.941
300.931
300.921
300.91
300.901
300.892
300.885
300.879
300.873
300.868
300.864
300.86
300.857
300.854
300.851
300.848
300.843
301.018
301.016
301.014
301.012
301.01
301.007
301.004
301.001
300.997
300.993
300.987
300.982
300.975
300.967
300.959
300.949
300.94
300.93
300.92
300.91
300.901
300.891
300.881
300.873
300.866
300.86
300.854
300.849
300.845
300.842
300.838
300.835
300.832
300.829
300.824
300.997
300.995
300.993
300.991
300.989
300.986
300.983
300.98
300.976
300.972
300.967
300.961
300.955
300.947
300.939
300.93
300.92
300.911
300.901
300.891
300.882
300.872
300.863
300.854
300.847
300.841
300.836
300.831
300.827
300.824
300.82
300.817
300.814
300.811
300.807
300.807
300.812
300.815
300.818
300.821
300.825
300.828
300.833
300.837
300.842
300.848
300.855
300.863
300.872
300.881
300.89
300.899
300.908
300.916
300.924
300.933
300.94
300.946
300.952
300.957
300.961
300.965
300.968
300.971
300.973
300.975
300.977
300.979
300.98
300.982
300.786
300.79
300.794
300.797
300.8
300.803
300.807
300.811
300.816
300.821
300.827
300.834
300.841
300.85
300.859
300.868
300.877
300.886
300.894
300.902
300.91
300.918
300.924
300.93
300.935
300.939
300.942
300.945
300.948
300.95
300.953
300.954
300.956
300.958
300.959
300.766
300.771
300.774
300.777
300.78
300.784
300.787
300.792
300.796
300.801
300.807
300.814
300.821
300.83
300.839
300.848
300.857
300.866
300.874
300.882
300.89
300.898
300.904
300.91
300.914
300.918
300.922
300.925
300.928
300.93
300.932
300.934
300.936
300.937
300.938
300.748
300.753
300.756
300.759
300.762
300.766
300.769
300.773
300.778
300.783
300.789
300.796