/*--------------------------------*- C++ -*----------------------------------*\
  =========                 |
  \\      /  F ield         | OpenFOAM: The Open Source CFD Toolbox
   \\    /   O peration     | Website:  https://openfoam.org
    \\  /    A nd           | Version:  8
     \\/     M anipulation  |
\*---------------------------------------------------------------------------*/
FoamFile
{
    version     2.0;
    format      ascii;
    class       volVectorField;
    location    "0.1";
    object      U;
}
// * * * * * * * * * * * * * * * * * * * * * * * * * * * * * * * * * * * * * //

dimensions      [0 1 -1 0 0 0 0];

internalField   nonuniform List<vector> 
15677
(
(-0.29708 -130.301 0)
(-0.625882 -129.158 0)
(-0.9934 -124.787 0)
(-1.3395 -120.44 0)
(-1.68822 -116.1 0)
(-2.0548 -111.708 0)
(-2.43921 -107.209 0)
(-2.81351 -102.517 0)
(-3.09995 -97.4495 0)
(-3.15702 -91.6146 0)
(-2.64459 -84.7737 0)
(-1.21787 -78.3693 0)
(1.48521 -72.9113 0)
(4.89752 -68.911 0)
(8.68695 -70.1598 0)
(12.4259 -70.7602 0)
(15.9324 -71.2721 0)
(19.2444 -71.734 0)
(22.0381 -72.521 0)
(24.0333 -73.7854 0)
(25.2043 -75.3132 0)
(25.4832 -76.1955 0)
(25.0902 -76.3152 0)
(24.2858 -76.4138 0)
(23.2959 -76.6933 0)
(22.3463 -77.1443 0)
(21.4929 -77.6915 0)
(20.7497 -78.2759 0)
(20.1177 -78.8555 0)
(19.5913 -79.4053 0)
(19.1618 -79.9163 0)
(18.8198 -80.3918 0)
(18.5542 -80.8427 0)
(18.3548 -81.283 0)
(18.2305 -81.7249 0)
(-1.73019 129.66 0)
(-4.75108 128.636 0)
(-8.45419 124.769 0)
(-12.579 120.373 0)
(-17.0802 115.375 0)
(-21.7813 109.621 0)
(-26.5228 102.852 0)
(-31.066 94.5915 0)
(-34.8178 83.8457 0)
(-37.2219 68.5641 0)
(-37.5525 48.7958 0)
(-35.2972 27.8048 0)
(-29.9844 11.6591 0)
(-22.2315 3.86723 0)
(-13.7139 3.26362 0)
(-5.87583 6.00737 0)
(0.861367 10.6902 0)
(7.16669 17.0178 0)
(12.8652 25.5568 0)
(18.3763 35.8432 0)
(23.2115 47.1519 0)
(27.1328 57.9868 0)
(30.0505 66.754 0)
(32.1956 73.4176 0)
(33.2202 77.7574 0)
(33.275 80.2879 0)
(32.7455 82.1151 0)
(31.8487 83.5968 0)
(30.7199 84.8388 0)
(29.4654 85.8893 0)
(28.1611 86.7659 0)
(26.8594 87.4663 0)
(25.5961 87.9744 0)
(24.3844 88.2677 0)
(23.2203 88.3246 0)
(0.744202 56.4322 0)
(1.44832 54.8314 0)
(2.51287 49.8784 0)
(3.71803 44.2335 0)
(5.06006 37.3925 0)
(6.56599 28.8105 0)
(8.18946 17.7769 0)
(9.88079 3.30702 0)
(11.5859 -15.1932 0)
(13.2943 -37.2721 0)
(14.0681 -58.6213 0)
(13.159 -75.8829 0)
(10.5513 -87.5972 0)
(6.11304 -92.9272 0)
(1.17883 -90.0566 0)
(-3.49114 -86.3083 0)
(-7.45721 -83.316 0)
(-11.1575 -81.1271 0)
(-14.2826 -79.0033 0)
(-16.7454 -76.2856 0)
(-18.4627 -72.4346 0)
(-19.3306 -67.537 0)
(-19.6685 -61.7472 0)
(-19.7251 -54.6344 0)
(-19.2258 -46.4449 0)
(-18.5632 -39.5331 0)
(-17.8242 -34.2882 0)
(-17.078 -30.4447 0)
(-16.3256 -27.7356 0)
(-15.5655 -25.9273 0)
(-14.8103 -24.8268 0)
(-14.0722 -24.2752 0)
(-13.3551 -24.1406 0)
(-12.6617 -24.3147 0)
(-11.9967 -24.7107 0)
(1.58508 30.6006 0)
(4.27112 46.5256 0)
(7.36742 48.6456 0)
(10.7196 47.4419 0)
(14.3089 44.6655 0)
(18.1248 40.797 0)
(22.0915 36.282 0)
(26.0292 31.7329 0)
(29.5368 27.8609 0)
(32.2105 25.3156 0)
(33.2036 21.6909 0)
(33.0689 16.7526 0)
(31.7823 12.0203 0)
(29.4591 8.80032 0)
(26.8758 7.6216 0)
(24.8436 8.29247 0)
(23.0942 10.2768 0)
(21.4497 13.3839 0)
(19.8436 17.5705 0)
(18.2206 22.9263 0)
(16.5938 29.4092 0)
(14.8141 35.9708 0)
(12.9923 40.448 0)
(11.6544 42.8622 0)
(10.7568 43.5747 0)
(10.3048 43.8254 0)
(10.1408 44.0301 0)
(10.1526 44.3985 0)
(10.1942 44.91 0)
(10.1971 45.5007 0)
(10.1357 46.1043 0)
(10.0057 46.6702 0)
(9.81126 47.168 0)
(9.55282 47.5805 0)
(9.25072 47.9035 0)
(-0.128748 -39.4262 0)
(0.389736 -40.5789 0)
(1.06501 -40.3949 0)
(1.85853 -40.1558 0)
(2.6915 -39.9626 0)
(3.49238 -39.8869 0)
(4.18928 -40.0007 0)
(4.70853 -40.349 0)
(4.99174 -40.8828 0)
(5.0852 -41.4368 0)
(4.92656 -41.8038 0)
(4.29581 -42.0095 0)
(2.97774 -42.017 0)
(0.899051 -41.6225 0)
(-1.46306 -40.9518 0)
(-3.74745 -40.3838 0)
(-5.95437 -39.7631 0)
(-7.99887 -38.9017 0)
(-9.81059 -37.6503 0)
(-11.2948 -35.8518 0)
(-12.2743 -33.3606 0)
(-12.4409 -30.0466 0)
(-12.0242 -25.8686 0)
(-11.5224 -21.6561 0)
(-11.0937 -18.0992 0)
(-10.7538 -15.1804 0)
(-10.4481 -12.7639 0)
(-10.1406 -10.7469 0)
(-9.81419 -9.06189 0)
(-9.46408 -7.66181 0)
(-9.09378 -6.50919 0)
(-8.71214 -5.57027 0)
(-8.32808 -4.81314 0)
(-7.9442 -4.2075 0)
(-7.56606 -3.72564 0)
(0.173616 4.58347 0)
(0.402098 5.32578 0)
(0.648005 5.8053 0)
(0.863451 6.15801 0)
(1.07145 6.42678 0)
(1.27203 6.62844 0)
(1.46006 6.77382 0)
(1.62313 6.86525 0)
(1.7424 6.89989 0)
(1.79742 6.87076 0)
(1.78109 6.76401 0)
(1.68407 6.56858 0)
(1.51961 6.22348 0)
(1.29295 5.72227 0)
(0.972226 5.59698 0)
(0.590888 6.15796 0)
(0.141551 7.38125 0)
(-0.381635 9.21105 0)
(-0.979038 11.5485 0)
(-1.63943 14.2706 0)
(-2.45177 17.1195 0)
(-3.35303 19.4817 0)
(-4.0052 21.0226 0)
(-4.34222 21.9388 0)
(-4.39563 22.6486 0)
(-4.26661 23.352 0)
(-4.0873 24.0547 0)
(-3.90887 24.7526 0)
(-3.75297 25.4253 0)
(-3.62941 26.0535 0)
(-3.5403 26.6234 0)
(-3.48259 27.1278 0)
(-3.45277 27.5649 0)
(-3.45512 27.9351 0)
(-3.47505 28.2401 0)
(-0.1978 -32.9152 0)
(-0.474812 -33.0153 0)
(-0.760527 -32.3314 0)
(-1.01944 -31.574 0)
(-1.27117 -30.7918 0)
(-1.52344 -29.9934 0)
(-1.78094 -29.1828 0)
(-2.05114 -28.3692 0)
(-2.34403 -27.5636 0)
(-2.67477 -26.7764 0)
(-3.06391 -26.0149 0)
(-3.54198 -25.2746 0)
(-4.15866 -24.5153 0)
(-5.01003 -23.6711 0)
(-6.01619 -22.8123 0)
(-7.02929 -21.9697 0)
(-8.02905 -21.0465 0)
(-8.94789 -19.979 0)
(-9.72082 -18.7193 0)
(-10.2701 -17.2498 0)
(-10.4219 -15.4786 0)
(-10.2079 -13.2963 0)
(-9.9393 -10.9187 0)
(-9.76096 -8.7521 0)
(-9.63559 -6.88106 0)
(-9.4973 -5.27274 0)
(-9.33251 -3.89027 0)
(-9.13334 -2.70693 0)
(-8.90154 -1.69841 0)
(-8.64361 -0.842535 0)
(-8.36758 -0.118782 0)
(-8.08248 0.491258 0)
(-7.79497 1.00409 0)
(-7.50672 1.43473 0)
(-7.22665 1.79613 0)
(0.00869055 3.17194 0)
(-0.02612 3.00102 0)
(-0.10827 2.76437 0)
(-0.231807 2.47842 0)
(-0.394168 2.1511 0)
(-0.590533 1.79547 0)
(-0.817637 1.42808 0)
(-1.07279 1.06896 0)
(-1.35477 0.742183 0)
(-1.66082 0.47566 0)
(-1.99041 0.302857 0)
(-2.34879 0.265927 0)
(-2.7302 0.415285 0)
(-3.12884 0.808073 0)
(-3.54011 1.47085 0)
(-3.9642 2.34247 0)
(-4.39586 3.43032 0)
(-4.83223 4.707 0)
(-5.26825 6.12957 0)
(-5.74225 7.61772 0)
(-6.29932 9.02163 0)
(-6.78403 10.1351 0)
(-7.04384 10.9617 0)
(-7.06813 11.6805 0)
(-6.94046 12.3495 0)
(-6.76198 12.972 0)
(-6.5694 13.5578 0)
(-6.38257 14.1024 0)
(-6.2125 14.5987 0)
(-6.06477 15.041 0)
(-5.94002 15.4283 0)
(-5.83618 15.762 0)
(-5.75197 16.0462 0)
(-5.68876 16.2851 0)
(-5.63854 16.4785 0)
(-0.153519 -22.0559 0)
(-0.379896 -21.6924 0)
(-0.619388 -20.9354 0)
(-0.85091 -20.1787 0)
(-1.09065 -19.4229 0)
(-1.34265 -18.6643 0)
(-1.61452 -17.9038 0)
(-1.91431 -17.1447 0)
(-2.25118 -16.3922 0)
(-2.63586 -15.6505 0)
(-3.08025 -14.9222 0)
(-3.59691 -14.2058 0)
(-4.19972 -13.4917 0)
(-4.89934 -12.7449 0)
(-5.5943 -11.9937 0)
(-6.21251 -11.247 0)
(-6.76817 -10.4596 0)
(-7.24257 -9.61589 0)
(-7.60956 -8.70182 0)
(-7.79344 -7.66503 0)
(-7.77697 -6.48518 0)
(-7.67421 -5.21031 0)
(-7.61751 -4.00529 0)
(-7.57559 -2.89658 0)
(-7.5095 -1.92125 0)
(-7.41423 -1.07357 0)
(-7.29118 -0.339589 0)
(-7.14206 0.292999 0)
(-6.971 0.835864 0)
(-6.78336 1.30069 0)
(-6.58549 1.69888 0)
(-6.38298 2.04091 0)
(-6.17988 2.33594 0)
(-5.97633 2.5915 0)
(-5.77616 2.81422 0)
(-0.0304345 4.3828 0)
(-0.107588 3.6944 0)
(-0.224976 3.04579 0)
(-0.372661 2.42254 0)
(-0.552419 1.81071 0)
(-0.761358 1.21555 0)
(-0.998353 0.65067 0)
(-1.26201 0.134244 0)
(-1.55052 -0.312812 0)
(-1.86145 -0.667652 0)
(-2.1888 -0.906079 0)
(-2.53776 -1.00155 0)
(-2.89978 -0.919786 0)
(-3.25926 -0.635381 0)
(-3.60968 -0.146471 0)
(-3.93846 0.485096 0)
(-4.24474 1.24717 0)
(-4.53029 2.11422 0)
(-4.82162 3.0522 0)
(-5.16779 3.99435 0)
(-5.51145 4.83028 0)
(-5.7099 5.45466 0)
(-5.73287 5.94212 0)
(-5.65197 6.40322 0)
(-5.51747 6.86045 0)
(-5.36429 7.30556 0)
(-5.21203 7.72647 0)
(-5.07082 8.11149 0)
(-4.94632 8.45186 0)
(-4.83981 8.74302 0)
(-4.75012 8.98453 0)
(-4.67498 9.17916 0)
(-4.61284 9.33156 0)
(-4.56416 9.44616 0)
(-4.51945 9.53552 0)
(-0.0931856 -14.2208 0)
(-0.231079 -13.6857 0)
(-0.379237 -12.977 0)
(-0.526508 -12.2932 0)
(-0.681812 -11.6286 0)
(-0.849262 -10.9815 0)
(-1.03477 -10.3542 0)
(-1.24481 -9.75006 0)
(-1.48655 -9.17178 0)
(-1.76757 -8.61975 0)
(-2.09525 -8.09097 0)
(-2.47602 -7.57887 0)
(-2.91475 -7.07246 0)
(-3.41259 -6.54067 0)
(-3.89481 -5.99852 0)
(-4.30945 -5.46086 0)
(-4.66584 -4.90252 0)
(-4.95568 -4.29827 0)
(-5.14223 -3.60238 0)
(-5.16921 -2.83304 0)
(-5.12644 -2.09734 0)
(-5.12457 -1.4515 0)
(-5.12959 -0.848988 0)
(-5.12319 -0.307948 0)
(-5.09282 0.173736 0)
(-5.03573 0.618173 0)
(-4.95655 1.03408 0)
(-4.85766 1.41232 0)
(-4.74342 1.74753 0)
(-4.61894 2.03789 0)
(-4.48885 2.28465 0)
(-4.35794 2.49118 0)
(-4.22904 2.6671 0)
(-4.10187 2.823 0)
(-3.97597 2.96356 0)
(-0.0407259 5.06942 0)
(-0.120382 4.10489 0)
(-0.229098 3.2683 0)
(-0.359388 2.5155 0)
(-0.511476 1.81828 0)
(-0.683872 1.17607 0)
(-0.876048 0.597157 0)
(-1.08705 0.0926445 0)
(-1.31565 -0.326027 0)
(-1.56025 -0.647982 0)
(-1.81691 -0.862948 0)
(-2.08813 -0.960943 0)
(-2.36935 -0.929064 0)
(-2.6492 -0.754741 0)
(-2.91234 -0.451353 0)
(-3.14842 -0.05758 0)
(-3.36044 0.43511 0)
(-3.55732 1.00076 0)
(-3.76117 1.57104 0)
(-3.94776 2.10889 0)
(-4.03963 2.59558 0)
(-4.03079 3.03632 0)
(-3.97755 3.42342 0)
(-3.90209 3.76415 0)
(-3.81748 4.08155 0)
(-3.73295 4.38539 0)
(-3.6499 4.66731 0)
(-3.57098 4.92118 0)
(-3.49843 5.14362 0)
(-3.43325 5.33343 0)
(-3.37579 5.49098 0)
(-3.32614 5.61731 0)
(-3.28468 5.71518 0)
(-3.25131 5.79284 0)
(-3.21922 5.85639 0)
(-0.0312593 -8.9089 0)
(-0.0818494 -8.33008 0)
(-0.141293 -7.71062 0)
(-0.205525 -7.13735 0)
(-0.280992 -6.59867 0)
(-0.371443 -6.09251 0)
(-0.481808 -5.62057 0)
(-0.61719 -5.18471 0)
(-0.782742 -4.78508 0)
(-0.983281 -4.41888 0)
(-1.22259 -4.07992 0)
(-1.50291 -3.7588 0)
(-1.82441 -3.44291 0)
(-2.18426 -3.10904 0)
(-2.52972 -2.76243 0)
(-2.82734 -2.40825 0)
(-3.07858 -2.03149 0)
(-3.26313 -1.63623 0)
(-3.34402 -1.22951 0)
(-3.38104 -0.791111 0)
(-3.43893 -0.327814 0)
(-3.48663 0.115918 0)
(-3.51287 0.512164 0)
(-3.5177 0.861477 0)
(-3.50495 1.17004 0)
(-3.47313 1.44166 0)
(-3.42305 1.68468 0)
(-3.35982 1.9039 0)
(-3.28704 2.09815 0)
(-3.20834 2.26679 0)
(-3.12674 2.41477 0)
(-3.04503 2.54702 0)
(-2.96548 2.66569 0)
(-2.8884 2.77282 0)
(-2.81146 2.87024 0)
(-0.039628 4.30324 0)
(-0.113077 3.43458 0)
(-0.206263 2.72137 0)
(-0.31297 2.09905 0)
(-0.434061 1.54025 0)
(-0.567564 1.04188 0)
(-0.713212 0.607165 0)
(-0.870162 0.240401 0)
(-1.03757 -0.0548375 0)
(-1.21465 -0.276044 0)
(-1.39942 -0.421377 0)
(-1.59398 -0.488878 0)
(-1.79703 -0.474521 0)
(-2.00179 -0.370796 0)
(-2.19414 -0.183642 0)
(-2.36528 0.0571283 0)
(-2.51888 0.347401 0)
(-2.67482 0.675018 0)
(-2.82377 1.01924 0)
(-2.91635 1.34628 0)
(-2.94631 1.67185 0)
(-2.93672 1.9852 0)
(-2.90319 2.2703 0)
(-2.8566 2.52614 0)
(-2.80403 2.75403 0)
(-2.7488 2.95586 0)
(-2.69549 3.1369 0)
(-2.64474 3.29966 0)
(-2.59728 3.44233 0)
(-2.55411 3.56397 0)
(-2.51548 3.66724 0)
(-2.48105 3.75528 0)
(-2.45117 3.82963 0)
(-2.42532 3.89159 0)
(-2.39909 3.94283 0)
(-0.00470823 -5.30772 0)
(-0.0184499 -4.74969 0)
(-0.0399783 -4.24468 0)
(-0.0690544 -3.79929 0)
(-0.109068 -3.39683 0)
(-0.163438 -3.03382 0)
(-0.235541 -2.7101 0)
(-0.328842 -2.42517 0)
(-0.446596 -2.17661 0)
(-0.59153 -1.95934 0)
(-0.765292 -1.76553 0)
(-0.968169 -1.58531 0)
(-1.19876 -1.40754 0)
(-1.45349 -1.21593 0)
(-1.69458 -1.01147 0)
(-1.8965 -0.800185 0)
(-2.05654 -0.567827 0)
(-2.17596 -0.313353 0)
(-2.28163 -0.0301254 0)
(-2.37909 0.270647 0)
(-2.45618 0.57492 0)
(-2.50817 0.864402 0)
(-2.53405 1.12277 0)
(-2.5389 1.35032 0)
(-2.52729 1.55036 0)
(-2.50376 1.72645 0)
(-2.47117 1.88125 0)
(-2.43083 2.01757 0)
(-2.38526 2.13826 0)
(-2.33695 2.24559 0)
(-2.28766 2.34152 0)
(-2.23873 2.42784 0)
(-2.1913 2.50599 0)
(-2.14501 2.5771 0)
(-2.09795 2.64217 0)
(-0.0419325 3.31954 0)
(-0.113467 2.66911 0)
(-0.197398 2.15051 0)
(-0.286092 1.7085 0)
(-0.380194 1.32189 0)
(-0.478778 0.986107 0)
(-0.582192 0.700942 0)
(-0.690501 0.466744 0)
(-0.803885 0.283157 0)
(-0.922893 0.148777 0)
(-1.04765 0.0619916 0)
(-1.18061 0.0226894 0)
(-1.32258 0.0326891 0)
(-1.47347 0.0966337 0)
(-1.62879 0.211491 0)
(-1.77264 0.367833 0)
(-1.904 0.55251 0)
(-2.01012 0.747441 0)
(-2.08589 0.950147 0)
(-2.13842 1.16159 0)
(-2.16591 1.38001 0)
(-2.17074 1.5944 0)
(-2.15936 1.79146 0)
(-2.1374 1.9692 0)
(-2.10895 2.12807 0)
(-2.07726 2.26886 0)
(-2.04419 2.39278 0)
(-2.01153 2.50178 0)
(-1.98075 2.5977 0)
(-1.95178 2.68157 0)
(-1.92483 2.75437 0)
(-1.90021 2.81707 0)
(-1.878 2.87058 0)
(-1.85769 2.91592 0)
(-1.83631 2.95416 0)
(0.00701406 -2.65434 0)
(0.0139367 -2.28178 0)
(0.0142109 -1.9576 0)
(0.00504479 -1.6729 0)
(-0.0164346 -1.42001 0)
(-0.0518381 -1.19711 0)
(-0.102753 -1.00352 0)
(-0.1706 -0.838262 0)
(-0.257314 -0.698818 0)
(-0.364487 -0.580823 0)
(-0.493924 -0.478421 0)
(-0.645803 -0.384475 0)
(-0.81833 -0.290552 0)
(-1.00618 -0.183402 0)
(-1.17618 -0.057455 0)
(-1.32605 0.088291 0)
(-1.46464 0.252357 0)
(-1.58439 0.440511 0)
(-1.68446 0.635397 0)
(-1.76379 0.830574 0)
(-1.82411 1.0289 0)
(-1.86283 1.21878 0)
(-1.88158 1.3893 0)
(-1.88511 1.54025 0)
(-1.87741 1.67345 0)
(-1.86157 1.79087 0)
(-1.83973 1.89453 0)
(-1.8144 1.98625 0)
(-1.78633 2.06719 0)
(-1.75639 2.13893 0)
(-1.72602 2.20292 0)
(-1.69601 2.26033 0)
(-1.66693 2.31214 0)
(-1.63881 2.35911 0)
(-1.6094 2.40195 0)
(-0.0338794 2.51103 0)
(-0.0910995 2.10934 0)
(-0.155435 1.79135 0)
(-0.222299 1.52474 0)
(-0.292301 1.29346 0)
(-0.364455 1.09371 0)
(-0.438981 0.92433 0)
(-0.516314 0.784831 0)
(-0.59685 0.674639 0)
(-0.681192 0.593144 0)
(-0.769462 0.540251 0)
(-0.865032 0.514954 0)
(-0.969922 0.516792 0)
(-1.08376 0.548521 0)
(-1.19654 0.609679 0)
(-1.29876 0.689085 0)
(-1.38939 0.79499 0)
(-1.46683 0.918654 0)
(-1.52846 1.04954 0)
(-1.57523 1.19087 0)
(-1.6069 1.34002 0)
(-1.62268 1.48785 0)
(-1.62551 1.62431 0)
(-1.61904 1.74766 0)
(-1.60625 1.85813 0)
(-1.58943 1.95635 0)
(-1.57035 2.04314 0)
(-1.55038 2.11933 0)
(-1.53004 2.18593 0)
(-1.51039 2.24429 0)
(-1.49164 2.29545 0)
(-1.4741 2.34006 0)
(-1.45784 2.37868 0)
(-1.44243 2.41199 0)
(-1.42563 2.44067 0)
(0.00956512 -0.883858 0)
(0.0174323 -0.64928 0)
(0.0183047 -0.473644 0)
(0.0116006 -0.326912 0)
(-0.00432269 -0.199749 0)
(-0.0310084 -0.0900481 0)
(-0.0698909 0.00368171 0)
(-0.122614 0.0840171 0)
(-0.189709 0.15402 0)
(-0.272297 0.216873 0)
(-0.371144 0.27642 0)
(-0.485111 0.337038 0)
(-0.613527 0.403017 0)
(-0.754039 0.479798 0)
(-0.888138 0.566439 0)
(-1.00675 0.660181 0)
(-1.11185 0.766138 0)
(-1.20061 0.881605 0)
(-1.2741 1.00463 0)
(-1.3332 1.13313 0)
(-1.37791 1.26517 0)
(-1.40684 1.39301 0)
(-1.4215 1.50892 0)
(-1.4254 1.61234 0)
(-1.42147 1.70416 0)
(-1.41195 1.78544 0)
(-1.39854 1.8573 0)
(-1.38252 1.92087 0)
(-1.36493 1.97722 0)
(-1.34669 2.02722 0)
(-1.32806 2.07157 0)
(-1.30956 2.11101 0)
(-1.29174 2.14625 0)
(-1.27445 2.17794 0)
(-1.25579 2.20668 0)
(-0.0207656 1.75991 0)
(-0.0571034 1.58601 0)
(-0.097839 1.44098 0)
(-0.141067 1.31838 0)
(-0.186802 1.21134 0)
(-0.23465 1.11789 0)
(-0.284858 1.03768 0)
(-0.338041 0.970653 0)
(-0.394786 0.917073 0)
(-0.455808 0.877629 0)
(-0.522799 0.852357 0)
(-0.598128 0.840756 0)
(-0.682557 0.842943 0)
(-0.7743 0.862343 0)
(-0.864351 0.901136 0)
(-0.946683 0.953716 0)
(-1.0198 1.02078 0)
(-1.08349 1.10057 0)
(-1.13794 1.19032 0)
(-1.18149 1.28803 0)
(-1.21382 1.39167 0)
(-1.23374 1.49477 0)
(-1.24275 1.59016 0)
(-1.24361 1.67656 0)
(-1.23866 1.75412 0)
(-1.22975 1.82328 0)
(-1.21831 1.88466 0)
(-1.20541 1.9389 0)
(-1.19183 1.98665 0)
(-1.17808 2.02853 0)
(-1.16448 2.06522 0)
(-1.15165 2.09745 0)
(-1.13945 2.1258 0)
(-1.12781 2.15088 0)
(-1.11488 2.17306 0)
(0.00420096 0.1882 0)
(0.00393511 0.341395 0)
(-0.00133779 0.43672 0)
(-0.0116741 0.510482 0)
(-0.0281495 0.571349 0)
(-0.0519643 0.622428 0)
(-0.0839856 0.665653 0)
(-0.12524 0.70263 0)
(-0.176967 0.735209 0)
(-0.23958 0.766241 0)
(-0.313253 0.798926 0)
(-0.397411 0.833485 0)
(-0.49176 0.86938 0)
(-0.594846 0.909782 0)
(-0.692652 0.957325 0)
(-0.778888 1.01143 0)
(-0.856574 1.0748 0)
(-0.923782 1.14774 0)
(-0.980726 1.22803 0)
(-1.02697 1.31354 0)
(-1.06249 1.40273 0)
(-1.0861 1.4902 0)
(-1.09886 1.57032 0)
(-1.10341 1.64238 0)
(-1.10196 1.70676 0)
(-1.09622 1.76404 0)
(-1.08751 1.8149 0)
(-1.07684 1.86001 0)
(-1.06499 1.90005 0)
(-1.05253 1.93564 0)
(-1.03995 1.96735 0)
(-1.02753 1.99563 0)
(-1.01551 2.02092 0)
(-1.004 2.04361 0)
(-0.99107 2.06395 0)
(-0.0116014 1.41695 0)
(-0.0358815 1.38255 0)
(-0.0612679 1.3304 0)
(-0.0892613 1.28198 0)
(-0.119601 1.23812 0)
(-0.152408 1.19914 0)
(-0.188054 1.16543 0)
(-0.22703 1.13761 0)
(-0.269987 1.11599 0)
(-0.31886 1.10082 0)
(-0.37291 1.09243 0)
(-0.431535 1.09029 0)
(-0.496448 1.09425 0)
(-0.568271 1.10712 0)
(-0.64106 1.13194 0)
(-0.708799 1.16692 0)
(-0.771652 1.21184 0)
(-0.828044 1.26563 0)
(-0.876636 1.32695 0)
(-0.916635 1.39416 0)
(-0.947563 1.46578 0)
(-0.96823 1.53727 0)
(-0.979523 1.6036 0)
(-0.983682 1.66382 0)
(-0.982644 1.71802 0)
(-0.977937 1.76652 0)
(-0.970747 1.80975 0)
(-0.961971 1.84818 0)
(-0.952278 1.88228 0)
(-0.94215 1.91251 0)
(-0.931927 1.93927 0)
(-0.921856 1.96294 0)
(-0.91219 1.98387 0)
(-0.902905 2.00231 0)
(-0.892277 2.01848 0)
(-6.20565e-06 0.773102 0)
(-0.00554736 0.886303 0)
(-0.0139722 0.943653 0)
(-0.0264952 0.983976 0)
(-0.0432237 1.01567 0)
(-0.0649991 1.04165 0)
(-0.0927752 1.0636 0)
(-0.127291 1.08302 0)
(-0.168644 1.10052 0)
(-0.218109 1.11584 0)
(-0.274487 1.12856 0)
(-0.336192 1.14098 0)
(-0.404792 1.15638 0)
(-0.480303 1.17798 0)
(-0.554065 1.20685 0)
(-0.620822 1.24126 0)
(-0.681762 1.28203 0)
(-0.736072 1.32889 0)
(-0.782979 1.38107 0)
(-0.821929 1.43758 0)
(-0.852551 1.49736 0)
(-0.873629 1.55672 0)
(-0.885809 1.61159 0)
(-0.891144 1.66131 0)
(-0.891412 1.70601 0)
(-0.888011 1.74598 0)
(-0.882026 1.78162 0)
(-0.874293 1.81333 0)
(-0.865447 1.84151 0)
(-0.855969 1.86656 0)
(-0.846216 1.8888 0)
(-0.836483 1.90855 0)
(-0.827017 1.92609 0)
(-0.817831 1.94166 0)
(-0.807458 1.95549 0)
(-0.0086234 1.32829 0)
(-0.0233886 1.36285 0)
(-0.0419983 1.35677 0)
(-0.0618492 1.34488 0)
(-0.0844233 1.33214 0)
(-0.109261 1.32022 0)
(-0.137438 1.31005 0)
(-0.168678 1.30194 0)
(-0.202862 1.29559 0)
(-0.240799 1.2898 0)
(-0.283215 1.28442 0)
(-0.331508 1.2817 0)
(-0.386765 1.28441 0)
(-0.449221 1.29443 0)
(-0.512191 1.31257 0)
(-0.570428 1.33699 0)
(-0.624499 1.36764 0)
(-0.673381 1.40393 0)
(-0.716175 1.44507 0)
(-0.752168 1.49016 0)
(-0.78082 1.53832 0)
(-0.800839 1.58649 0)
(-0.812667 1.63124 0)
(-0.818114 1.67194 0)
(-0.818791 1.7086 0)
(-0.815994 1.74144 0)
(-0.81074 1.77073 0)
(-0.803824 1.79678 0)
(-0.795854 1.8199 0)
(-0.787287 1.84039 0)
(-0.778463 1.85852 0)
(-0.769652 1.87454 0)
(-0.761081 1.88867 0)
(-0.752784 1.90114 0)
(-0.743532 1.91211 0)
(-0.00260863 1.09962 0)
(-0.0100093 1.19801 0)
(-0.0205904 1.24024 0)
(-0.0335341 1.26787 0)
(-0.0498466 1.2889 0)
(-0.0697351 1.30539 0)
(-0.0939847 1.31799 0)
(-0.122743 1.3268 0)
(-0.155409 1.33283 0)
(-0.193058 1.33741 0)
(-0.236554 1.3415 0)
(-0.286157 1.34661 0)
(-0.342268 1.35438 0)
(-0.404694 1.36665 0)
(-0.466492 1.38411 0)
(-0.522913 1.40564 0)
(-0.574975 1.43158 0)
(-0.62197 1.46163 0)
(-0.663236 1.49527 0)
(-0.69819 1.53187 0)
(-0.726347 1.57075 0)
(-0.746394 1.60946 0)
(-0.758617 1.64529 0)
(-0.764675 1.67776 0)
(-0.766071 1.70692 0)
(-0.764016 1.73296 0)
(-0.759476 1.75612 0)
(-0.753214 1.77667 0)
(-0.745821 1.79489 0)
(-0.737751 1.81102 0)
(-0.729348 1.82529 0)
(-0.720888 1.83792 0)
(-0.712598 1.84908 0)
(-0.704528 1.85895 0)
(-0.695758 1.86768 0)
(-0.00682036 1.35861 0)
(-0.0180917 1.42665 0)
(-0.0329021 1.44252 0)
(-0.0491663 1.44723 0)
(-0.0672237 1.44812 0)
(-0.0872012 1.44777 0)
(-0.109366 1.44646 0)
(-0.134268 1.44424 0)
(-0.162752 1.4415 0)
(-0.195448 1.43908 0)
(-0.233174 1.43755 0)
(-0.276695 1.43758 0)
(-0.326582 1.44039 0)
(-0.38307 1.44746 0)
(-0.439948 1.4595 0)
(-0.492578 1.4754 0)
(-0.541647 1.49517 0)
(-0.586365 1.51842 0)
(-0.626029 1.54463 0)
(-0.66001 1.57322 0)
(-0.687768 1.60359 0)
(-0.707917 1.63376 0)
(-0.720574 1.66158 0)
(-0.727252 1.68669 0)
(-0.729353 1.70913 0)
(-0.728027 1.72906 0)
(-0.724203 1.74671 0)
(-0.718626 1.7623 0)
(-0.711883 1.77605 0)
(-0.704424 1.78816 0)
(-0.696592 1.79884 0)
(-0.688658 1.80823 0)
(-0.680834 1.81649 0)
(-0.673192 1.82376 0)
(-0.665139 1.83013 0)
(-0.00347524 1.30346 0)
(-0.0113186 1.39906 0)
(-0.021754 1.43447 0)
(-0.0340784 1.45539 0)
(-0.0493883 1.46939 0)
(-0.0673107 1.47897 0)
(-0.0882863 1.48578 0)
(-0.113042 1.49052 0)
(-0.141776 1.49382 0)
(-0.175073 1.49625 0)
(-0.21336 1.49842 0)
(-0.257096 1.50108 0)
(-0.306653 1.50521 0)
(-0.362216 1.51208 0)
(-0.417781 1.52226 0)
(-0.469067 1.53509 0)
(-0.516949 1.55072 0)
(-0.560778 1.56886 0)
(-0.599938 1.58913 0)
(-0.633844 1.61103 0)
(-0.66196 1.63406 0)
(-0.682835 1.65667 0)
(-0.696422 1.67726 0)
(-0.704114 1.6956 0)
(-0.70724 1.71176 0)
(-0.706889 1.72592 0)
(-0.703954 1.73829 0)
(-0.699174 1.74911 0)
(-0.693132 1.75856 0)
(-0.686284 1.76682 0)
(-0.678978 1.77403 0)
(-0.671488 1.78034 0)
(-0.664023 1.78585 0)
(-0.656679 1.79067 0)
(-0.649225 1.79488 0)
(-0.00499979 1.4282 0)
(-0.0147486 1.51368 0)
(-0.0269991 1.53933 0)
(-0.0403907 1.55187 0)
(-0.0558262 1.55928 0)
(-0.0734591 1.56382 0)
(-0.0935935 1.56645 0)
(-0.116785 1.56787 0)
(-0.143518 1.56842 0)
(-0.174401 1.56852 0)
(-0.210046 1.56861 0)
(-0.251058 1.56927 0)
(-0.297935 1.57127 0)
(-0.350978 1.57557 0)
(-0.404504 1.58269 0)
(-0.454313 1.59201 0)
(-0.501185 1.60352 0)
(-0.544473 1.61692 0)
(-0.583566 1.63181 0)
(-0.617869 1.64773 0)
(-0.646822 1.66418 0)
(-0.668871 1.67998 0)
(-0.683782 1.69401 0)
(-0.69283 1.70616 0)
(-0.6973 1.71654 0)
(-0.698221 1.72533 0)
(-0.696399 1.7328 0)
(-0.692582 1.73913 0)
(-0.687405 1.7445 0)
(-0.68133 1.74907 0)
(-0.674703 1.75294 0)
(-0.667798 1.75624 0)
(-0.660819 1.75904 0)
(-0.653889 1.76143 0)
(-0.647162 1.76346 0)
(-0.0037827 1.43779 0)
(-0.0118246 1.53655 0)
(-0.0225185 1.57021 0)
(-0.0348457 1.58857 0)
(-0.0495 1.60056 0)
(-0.0666049 1.60891 0)
(-0.0865435 1.61482 0)
(-0.109712 1.61898 0)
(-0.136542 1.62185 0)
(-0.167512 1.6238 0)
(-0.203128 1.62525 0)
(-0.243904 1.62669 0)
(-0.290299 1.62874 0)
(-0.342646 1.6322 0)
(-0.395475 1.63752 0)
(-0.444775 1.64432 0)
(-0.491423 1.65262 0)
(-0.534848 1.66214 0)
(-0.574489 1.6725 0)
(-0.609772 1.68326 0)
(-0.640132 1.69396 0)
(-0.663902 1.70368 0)
(-0.680634 1.71176 0)
(-0.691482 1.71825 0)
(-0.697614 1.72338 0)
(-0.700086 1.72704 0)
(-0.699703 1.72955 0)
(-0.69718 1.73154 0)
(-0.693144 1.73307 0)
(-0.688042 1.7341 0)
(-0.682247 1.73474 0)
(-0.676052 1.73509 0)
(-0.66966 1.73524 0)
(-0.663223 1.73523 0)
(-0.657299 1.73511 0)
(-0.00446806 1.50842 0)
(-0.0135212 1.6055 0)
(-0.0246865 1.63672 0)
(-0.0373726 1.65296 0)
(-0.0520926 1.66316 0)
(-0.0690243 1.67005 0)
(-0.0885532 1.67479 0)
(-0.111093 1.678 0)
(-0.137119 1.68008 0)
(-0.167159 1.68135 0)
(-0.201776 1.68215 0)
(-0.241535 1.68285 0)
(-0.28695 1.68394 0)
(-0.338419 1.68603 0)
(-0.390646 1.68946 0)
(-0.439691 1.69397 0)
(-0.486452 1.69945 0)
(-0.530402 1.70563 0)
(-0.571012 1.71209 0)
(-0.607726 1.71839 0)
(-0.639974 1.72403 0)
(-0.665958 1.72836 0)
(-0.684984 1.73106 0)
(-0.69807 1.7323 0)
(-0.706286 1.73232 0)
(-0.710636 1.73134 0)
(-0.712039 1.72962 0)
(-0.711172 1.72752 0)
(-0.70856 1.72517 0)
(-0.704683 1.72266 0)
(-0.69995 1.72009 0)
(-0.694664 1.71754 0)
(-0.689037 1.71505 0)
(-0.68325 1.71265 0)
(-0.678281 1.71038 0)
(18.2147 -82.3329 0)
(17.8091 -83.0458 0)
(17.3153 -83.7871 0)
(16.8283 -84.542 -3.53683e-17)
(16.3285 -85.2831 0)
(15.8038 -85.9909 0)
(15.2539 -86.6681 0)
(14.6789 -87.3062 0)
(14.0777 -87.8708 3.58905e-17)
(13.4472 -88.3336 0)
(12.7808 -88.6721 0)
(12.0776 -88.8638 -3.53286e-17)
(11.3708 -88.8982 0)
(10.6906 -88.8053 -3.64126e-17)
(10.0377 -88.6193 0)
(9.40858 -88.3734 0)
(8.80178 -88.0939 0)
(8.21701 -87.8037 3.77661e-17)
(7.65149 -87.525 0)
(7.10888 -87.2839 1.90441e-17)
(6.62629 -87.1056 0)
(6.14558 -87.0087 0)
(21.7994 88.1101 0)
(20.5746 87.8472 0)
(19.4422 87.5968 0)
(18.3351 87.3671 4.82968e-17)
(17.289 87.157 0)
(16.3247 86.9592 0)
(15.4487 86.7692 -9.69896e-17)
(14.658 86.5846 0)
(13.9451 86.4017 -1.48841e-16)
(13.2963 86.2189 9.78514e-17)
(12.6931 86.0426 9.74282e-17)
(12.109 85.9006 5.05748e-17)
(11.4887 85.8274 0)
(10.7757 85.8105 5.18257e-17)
(9.95139 85.8347 0)
(9.01431 85.8872 0)
(7.96444 85.9496 0)
(6.80981 86.024 -1.56717e-16)
(5.56268 86.1386 0)
(4.24329 86.3132 -2.73305e-17)
(2.82857 86.4761 0)
(1.40399 86.504 -5.47888e-17)
(-11.2478 -25.4153 0)
(-10.5486 -26.6441 0)
(-9.93268 -28.1711 0)
(-9.35152 -29.9069 0)
(-8.8119 -31.755 0)
(-8.31905 -33.617 7.02723e-17)
(-7.87413 -35.3876 6.76584e-17)
(-7.47871 -36.9532 0)
(-7.13651 -38.1971 6.82136e-17)
(-6.84732 -39.0059 -6.84696e-17)
(-6.60956 -39.2712 -6.85933e-17)
(-6.42794 -38.9009 0)
(-6.28405 -37.9061 0)
(-6.14567 -36.4501 0)
(-6.00326 -34.7017 7.46275e-17)
(-5.85786 -32.8152 0)
(-5.70923 -30.9148 0)
(-5.55816 -29.0939 7.31861e-17)
(-5.40128 -27.416 0)
(-5.22798 -25.9127 0)
(-5.02605 -24.594 0)
(-4.86641 -23.4637 3.85223e-17)
(8.92303 48.2324 0)
(8.66587 48.6492 0)
(8.37658 49.1177 0)
(7.98722 49.6242 -8.18255e-17)
(7.49335 50.1584 0)
(6.89497 50.7108 8.04427e-17)
(6.18991 51.2722 0)
(5.38137 51.8274 0)
(4.48501 52.3457 0)
(3.52697 52.7921 0)
(2.54607 53.1354 -1.7195e-16)
(1.59209 53.3586 0)
(0.719895 53.4734 0)
(-0.050836 53.5108 0)
(-0.720974 53.5173 8.73761e-17)
(-1.26577 53.5294 1.81978e-16)
(-1.68235 53.5708 0)
(-1.989 53.604 0)
(-2.19461 53.5969 0)
(-2.31876 53.5788 0)
(-2.37756 53.5534 9.39802e-17)
(-2.32378 53.4869 0)
(-7.13631 -3.19362 -1.41351e-16)
(-6.66721 -2.62772 0)
(-6.2459 -2.1511 -1.52839e-16)
(-5.83116 -1.76386 7.5481e-17)
(-5.42423 -1.45482 0)
(-5.02816 -1.21702 -1.5316e-16)
(-4.64451 -1.04378 -1.57512e-16)
(-4.27435 -0.931285 -1.58546e-16)
(-3.91958 -0.876344 0)
(-3.58515 -0.872039 0)
(-3.27608 -0.905716 1.57508e-16)
(-2.99545 -0.95818 0)
(-2.73188 -1.04739 0)
(-2.46253 -1.18294 0)
(-2.18117 -1.32038 -3.31227e-16)
(-1.88829 -1.43607 -1.65151e-16)
(-1.57461 -1.53785 0)
(-1.24074 -1.68261 -1.71316e-16)
(-0.90054 -1.91489 0)
(-0.540119 -2.19696 1.73323e-16)
(-0.162595 -2.5032 -8.51651e-17)
(0.182562 -2.8481 0)
(-3.4209 28.571 1.63756e-16)
(-3.23646 28.9409 -1.73376e-16)
(-3.00027 29.2909 3.51866e-16)
(-2.74205 29.6164 1.7622e-16)
(-2.46037 29.9132 0)
(-2.15327 30.1773 0)
(-1.82056 30.4048 1.82339e-16)
(-1.46206 30.5923 1.83456e-16)
(-1.07725 30.7369 0)
(-0.662911 30.837 0)
(-0.209815 30.8931 0)
(0.255255 30.9055 0)
(0.700644 30.87 0)
(1.11288 30.7917 1.87455e-16)
(1.48386 30.6817 1.91402e-16)
(1.81838 30.5525 -1.89939e-16)
(2.12151 30.4126 0)
(2.39785 30.2676 1.94601e-16)
(2.64402 30.117 0)
(2.85604 29.9619 -2.66933e-18)
(3.03869 29.8098 1.93727e-16)
(3.22684 29.6698 -2.00312e-16)
(-6.9242 2.22067 -1.66083e-16)
(-6.59004 2.72953 1.75995e-16)
(-6.26898 3.21071 -1.77278e-16)
(-5.93579 3.65649 1.57971e-18)
(-5.59541 4.06689 1.8123e-16)
(-5.24975 4.43824 0)
(-4.90048 4.76725 0)
(-4.54902 5.05133 0)
(-4.1973 5.28844 0)
(-3.8479 5.47711 3.71606e-16)
(-3.5035 5.61614 0)
(-3.16495 5.70429 0)
(-2.82608 5.74595 0)
(-2.48318 5.7467 -1.89333e-16)
(-2.13822 5.71353 0)
(-1.79241 5.65051 3.86364e-16)
(-1.44658 5.55941 0)
(-1.10107 5.44157 0)
(-0.756043 5.29591 0)
(-0.411205 5.12189 -1.96351e-16)
(-0.0681767 4.91777 -1.96905e-16)
(0.253099 4.67949 2.03588e-16)
(-5.5338 16.6823 1.87833e-16)
(-5.3527 16.8943 0)
(-5.12982 17.0821 0)
(-4.88402 17.2518 -4.03519e-16)
(-4.61274 17.4086 -1.03709e-18)
(-4.31525 17.5523 -2.03035e-16)
(-3.99221 17.6793 -4.07639e-16)
(-3.64347 17.7872 0)
(-3.26991 17.875 -4.10332e-16)
(-2.87202 17.9425 -2.14865e-18)
(-2.45025 17.9902 -4.11809e-16)
(-2.01243 18.019 4.12448e-16)
(-1.58444 18.0303 0)
(-1.18634 18.0259 0)
(-0.818172 18.0067 0)
(-0.477775 17.9751 2.13343e-16)
(-0.161456 17.9341 0)
(0.123836 17.887 0)
(0.378944 17.8373 0)
(0.6111 17.7887 0)
(0.819264 17.746 0)
(1.02572 17.7108 0)
(-5.57941 3.08872 0)
(-5.38059 3.43242 0)
(-5.1802 3.76871 2.11783e-16)
(-4.97105 4.08946 -7.82866e-19)
(-4.75588 4.3952 2.14348e-16)
(-4.53387 4.68852 6.42166e-16)
(-4.30644 4.96816 4.28384e-16)
(-4.07379 5.23222 0)
(-3.83648 5.47895 4.30463e-16)
(-3.59546 5.707 -4.31229e-16)
(-3.35186 5.91523 4.31177e-16)
(-3.1058 6.1013 1.54205e-18)
(-2.85599 6.26024 0)
(-2.60154 6.39064 0)
(-2.34323 6.49483 0)
(-2.08331 6.57429 1.59412e-18)
(-1.82201 6.63079 0)
(-1.56091 6.66504 0)
(-1.29921 6.67645 0)
(-1.03731 6.66476 0)
(-0.777789 6.63027 0)
(-0.52737 6.57008 0)
(-4.45514 9.63959 0)
(-4.36309 9.77326 2.29479e-16)
(-4.2404 9.91024 -4.6132e-16)
(-4.10314 10.0464 2.31738e-16)
(-3.95016 10.1775 -4.64926e-16)
(-3.78064 10.3022 -9.89174e-19)
(-3.59422 10.4205 -4.66231e-16)
(-3.39062 10.5318 0)
(-3.16965 10.6359 0)
(-2.93135 10.7324 0)
(-2.67539 10.8203 0)
(-2.40604 10.8996 -4.68969e-16)
(-2.13755 10.9683 0)
(-1.8812 11.0252 0)
(-1.6374 11.0709 0)
(-1.40589 11.1064 -4.87535e-16)
(-1.18659 11.1325 0)
(-0.979494 11.1507 -4.92358e-16)
(-0.784578 11.1626 -4.94599e-16)
(-0.602292 11.1712 2.48193e-16)
(-0.430917 11.18 0)
(-0.261386 11.1933 2.57223e-16)
(-3.86736 3.14523 0)
(-3.77208 3.37755 -4.87411e-16)
(-3.67101 3.61045 2.44411e-16)
(-3.56282 3.8404 0)
(-3.44924 4.06656 0)
(-3.33037 4.2881 -4.92867e-16)
(-3.20591 4.50421 4.93767e-16)
(-3.07565 4.71406 -4.95197e-16)
(-2.94022 4.91681 4.95654e-16)
(-2.79789 5.11376 0)
(-2.64966 5.30223 0)
(-2.49641 5.47747 0)
(-2.33574 5.63607 0)
(-2.16928 5.7753 0)
(-1.99775 5.89626 -5.11038e-16)
(-1.82239 6.00014 0)
(-1.64414 6.08781 0)
(-1.46379 6.15982 5.20403e-16)
(-1.28197 6.21632 5.22881e-16)
(-1.09923 6.25701 -2.62453e-16)
(-0.916981 6.28088 -2.63591e-16)
(-0.739294 6.28674 -2.72085e-16)
(-3.18032 5.93078 0)
(-3.13258 6.03085 2.62953e-16)
(-3.06608 6.13625 0)
(-2.99091 6.24466 5.28149e-16)
(-2.90612 6.35393 0)
(-2.81103 6.46292 0)
(-2.70525 6.5707 0)
(-2.58853 6.67644 5.31338e-16)
(-2.46069 6.7794 -5.31463e-16)
(-2.32123 6.87916 5.30938e-16)
(-2.16999 6.97576 0)
(-2.00876 7.06687 5.29667e-16)
(-1.84565 7.14941 0)
(-1.68673 7.2219 -5.42148e-16)
(-1.53224 7.28489 5.47083e-16)