/*--------------------------------*- C++ -*----------------------------------*\
  =========                 |
  \\      /  F ield         | OpenFOAM: The Open Source CFD Toolbox
   \\    /   O peration     | Website:  https://openfoam.org
    \\  /    A nd           | Version:  8
     \\/     M anipulation  |
\*---------------------------------------------------------------------------*/
FoamFile
{
    version     2.0;
    format      ascii;
    class       volScalarField;
    location    "0.41";
    object      k;
}
// * * * * * * * * * * * * * * * * * * * * * * * * * * * * * * * * * * * * * //

dimensions      [0 2 -2 0 0 0 0];

internalField   nonuniform List<scalar> 
15677
(
0.334165
0.36504
0.294778
0.368731
0.357728
0.281053
0.370693
0.360098
0.366169
0.282774
0.371885
0.361644
0.3615
0.383366
0.288881
0.372611
0.36375
0.357757
0.368373
0.401703
0.30028
0.373039
0.365668
0.357862
0.358183
0.380151
0.419367
0.311766
0.373263
0.367185
0.359472
0.354612
0.361071
0.393321
0.434733
0.322558
0.373348
0.368307
0.361364
0.354791
0.353085
0.366927
0.406175
0.447823
0.332039
0.373349
0.369082
0.36307
0.356353
0.35114
0.353522
0.373577
0.418264
0.458654
0.340426
0.373315
0.369566
0.364444
0.358228
0.351944
0.348806
0.354803
0.380706
0.429071
0.467798
0.347512
0.373276
0.369823
0.365463
0.359964
0.353726
0.348396
0.347164
0.357131
0.387658
0.438791
0.475307
0.353751
0.373251
0.369924
0.366148
0.361396
0.355669
0.349773
0.345369
0.346338
0.35972
0.394443
0.447202
0.481747
0.35896
0.373242
0.369938
0.366547
0.362475
0.357427
0.351725
0.346216
0.342938
0.345903
0.362622
0.400683
0.454688
0.487059
0.36363
0.373241
0.369921
0.366735
0.363205
0.358857
0.353682
0.348078
0.343101
0.340876
0.345919
0.365485
0.40656
0.461043
0.491664
0.367706
0.373241
0.369906
0.366793
0.36363
0.359913
0.355388
0.35016
0.344755
0.340303
0.339207
0.346056
0.3684
0.411751
0.466686
0.49548
0.371327
0.37324
0.369899
0.366794
0.363828
0.360604
0.356733
0.352088
0.346882
0.341708
0.33783
0.337761
0.346393
0.371089
0.416559
0.471382
0.498863
0.374635
0.373239
0.369896
0.366784
0.363887
0.360985
0.357685
0.353688
0.348978
0.343839
0.338931
0.335598
0.33655
0.346797
0.373733
0.420647
0.47553
0.50178
0.377465
0.373238
0.369895
0.366774
0.363895
0.361134
0.358272
0.354885
0.350795
0.346066
0.341023
0.33639
0.333605
0.335483
0.347322
0.376027
0.424351
0.478951
0.504362
0.380315
0.373237
0.369895
0.366767
0.363891
0.361177
0.358542
0.355676
0.35222
0.348073
0.343347
0.338429
0.334077
0.3318
0.334608
0.347774
0.378194
0.42738
0.481958
0.506749
0.38255
0.373236
0.369896
0.366762
0.363885
0.361181
0.358647
0.356076
0.353216
0.349703
0.345519
0.340836
0.336047
0.331968
0.330206
0.333822
0.348268
0.379961
0.430089
0.484436
0.508802
0.385191
0.373235
0.369896
0.366759
0.363881
0.361174
0.35868
0.356248
0.353762
0.35089
0.347338
0.343157
0.338521
0.33388
0.330075
0.328783
0.33317
0.34865
0.381587
0.432192
0.486603
0.510943
0.386967
0.373235
0.369896
0.366756
0.363878
0.361165
0.358685
0.356312
0.354025
0.351571
0.348714
0.345153
0.340977
0.336425
0.331932
0.328398
0.327548
0.332596
0.349024
0.382808
0.434085
0.488404
0.512655
0.389577
0.373235
0.369896
0.366754
0.363876
0.361157
0.35868
0.356326
0.35414
0.351915
0.349546
0.346701
0.343137
0.339022
0.334552
0.330224
0.326942
0.326497
0.332121
0.349299
0.383941
0.435435
0.490018
0.514803
0.391019
0.373235
0.369896
0.366753
0.363873
0.361151
0.358673
0.356322
0.354181
0.352074
0.349996
0.34766
0.34486
0.341355
0.337285
0.332932
0.328762
0.325739
0.325648
0.331776
0.349558
0.384685
0.436732
0.491324
0.516246
0.393626
0.373235
0.369895
0.366752
0.363872
0.361146
0.358665
0.356311
0.354188
0.352135
0.350224
0.348191
0.345974
0.343247
0.339773
0.335821
0.331597
0.327617
0.324803
0.325019
0.331477
0.349747
0.385429
0.437515
0.492728
0.518796
0.395001
0.373235
0.369895
0.366752
0.36387
0.361143
0.358659
0.356301
0.35418
0.352148
0.350324
0.348465
0.346624
0.344481
0.341831
0.338517
0.33468
0.330597
0.326737
0.324132
0.324613
0.331455
0.35001
0.385874
0.438468
0.493617
0.520435
0.504505
0.373235
0.369895
0.366752
0.363868
0.361141
0.358654
0.356292
0.354168
0.352142
0.350356
0.348589
0.346984
0.3452
0.343235
0.34079
0.337541
0.333831
0.329904
0.326309
0.323929
0.324638
0.331543
0.350243
0.38636
0.438915
0.495584
0.52914
0.709545
0.373236
0.369894
0.366752
0.363867
0.361139
0.35865
0.356285
0.354156
0.352128
0.350354
0.348632
0.347161
0.345597
0.344105
0.342316
0.339946
0.336979
0.333572
0.329905
0.32639
0.324069
0.324837
0.33178
0.350555
0.38673
0.439823
0.496188
0.545872
0.883487
0.373236
0.369894
0.366752
0.363866
0.361138
0.358646
0.356279
0.354145
0.352113
0.350338
0.348635
0.34723
0.345795
0.344621
0.343233
0.341684
0.339789
0.33706
0.333774
0.33019
0.326769
0.324505
0.325317
0.332265
0.351
0.387142
0.440507
0.495905
0.558563
1.02372
0.373236
0.369893
0.366752
0.363865
0.361137
0.358643
0.356275
0.354136
0.3521
0.350318
0.34862
0.34724
0.345878
0.344896
0.343765
0.342831
0.341749
0.340036
0.337495
0.334392
0.33094
0.327621
0.325399
0.326237
0.333072
0.351581
0.387759
0.440255
0.494404
0.567905
1.14464
0.373237
0.369893
0.366752
0.363864
0.361136
0.35864
0.356271
0.354128
0.352089
0.3503
0.348598
0.347222
0.345898
0.345016
0.344047
0.343547
0.342986
0.342161
0.34075
0.338484
0.335665
0.332404
0.32915
0.326878
0.327565
0.334194
0.35242
0.388242
0.439338
0.491228
0.574291
1.24218
0.373237
0.369892
0.366753
0.363863
0.361136
0.358638
0.356268
0.354122
0.352079
0.350284
0.348577
0.347194
0.345885
0.345045
0.344178
0.343959
0.343764
0.343546
0.343125
0.342194
0.340345
0.337767
0.334609
0.33133
0.328894
0.329343
0.335672
0.353448
0.388586
0.437421
0.485834
0.578404
1.31363
0.373237
0.369892
0.366753
0.363862
0.361135
0.358635
0.356266
0.354117
0.352071
0.35027
0.348557
0.347165
0.345857
0.345029
0.34423
0.344169
0.344222
0.344434
0.344735
0.344974
0.344565
0.343069
0.340698
0.337597
0.334188
0.331513
0.331581
0.337516
0.354667
0.388529
0.434179
0.479039
0.580996
1.36765
0.373237
0.369892
0.366753
0.363861
0.361135
0.358634
0.356264
0.354112
0.352064
0.350258
0.34854
0.34714
0.345826
0.344994
0.34423
0.344244
0.344464
0.344974
0.34581
0.346878
0.347772
0.347908
0.346754
0.344556
0.341411
0.3378
0.334737
0.334314
0.339723
0.355995
0.388231
0.429852
0.472251
0.583207
1.4102
0.369891
0.373241
0.366753
0.36386
0.361135
0.358632
0.356262
0.354108
0.352059
0.350248
0.348526
0.347117
0.345796
0.344955
0.344202
0.344254
0.344569
0.345278
0.346493
0.348175
0.35002
0.351645
0.352346
0.351514
0.3494
0.346136
0.34217
0.338618
0.337516
0.342262
0.357581
0.38754
0.425368
0.465891
0.585474
1.44513
0.366754
0.369901
0.373249
0.36386
0.361135
0.35863
0.356261
0.354104
0.352054
0.350239
0.348513
0.347098
0.345769
0.344919
0.344164
0.344231
0.344601
0.345435
0.346909
0.349037
0.351604
0.354329
0.356739
0.358013
0.35743
0.355325
0.351786
0.347361
0.343115
0.341192
0.345469
0.359544
0.386631
0.420966
0.460157
0.588133
1.47502
0.363859
0.36677
0.369922
0.373257
0.361135
0.358629
0.35626
0.354101
0.35205
0.350231
0.348502
0.347081
0.345746
0.344887
0.344127
0.344197
0.344594
0.345506
0.347156
0.349603
0.352709
0.356286
0.359973
0.363212
0.365015
0.364613
0.362358
0.358432
0.353327
0.348247
0.345764
0.349362
0.361663
0.385743
0.416894
0.455154
0.591167
1.50135
0.361135
0.363881
0.366804
0.369943
0.373265
0.358628
0.356259
0.354098
0.352047
0.350225
0.348493
0.347066
0.345726
0.344859
0.344093
0.344162
0.344571
0.345531
0.347301
0.349979
0.353487
0.357719
0.362413
0.367134
0.371195
0.373483
0.373101
0.370579
0.366028
0.360094
0.354601
0.351489
0.353573
0.363957
0.384952
0.413165
0.45085
0.594641
1.5252
0.358627
0.361163
0.363925
0.366839
0.369964
0.373273
0.356259
0.354095
0.352044
0.350218
0.348486
0.347053
0.345708
0.344835
0.344062
0.34413
0.344546
0.345534
0.347386
0.350239
0.354054
0.358793
0.364283
0.370196
0.375973
0.380844
0.383475
0.382994
0.379947
0.37461
0.368441
0.362479
0.357784
0.358071
0.366401
0.384376
0.409821
0.447212
0.598386
1.54708
0.356258
0.358658
0.361219
0.363971
0.366875
0.369987
0.373282
0.354093
0.352042
0.350213
0.348479
0.347042
0.345693
0.344814
0.344036
0.344101
0.344521
0.34553
0.34744
0.350427
0.354495
0.35964
0.36577
0.372646
0.379823
0.386672
0.392241
0.39511
0.39425
0.390508
0.385171
0.378748
0.371096
0.364559
0.362813
0.369029
0.384029
0.406861
0.444147
0.602449
1.56748
0.354091
0.356294
0.358721
0.361276
0.364017
0.366912
0.37001
0.37329
0.35204
0.350208
0.348474
0.347032
0.34568
0.344795
0.344013
0.344076
0.3445
0.345526
0.34748
0.350573
0.354851
0.360353
0.367018
0.374697
0.383038
0.391523
0.399346
0.405533
0.408352
0.406935
0.403493
0.398186
0.389984
0.380343
0.371726
0.367752
0.371781
0.384071
0.404357
0.44153
0.606587
1.58652
0.352039
0.354128
0.356367
0.358787
0.361335
0.364066
0.36695
0.370033
0.373299
0.350204
0.348469
0.347023
0.34567
0.344779
0.343993
0.344055
0.344481
0.345522
0.347515
0.350695
0.35515
0.360971
0.368134
0.376512
0.385851
0.395731
0.405453
0.41419
0.420703
0.423303
0.422529
0.419484
0.412354
0.402014
0.390103
0.379197
0.372855
0.374569
0.384258
0.402212
0.439373
0.610926
1.60448
0.3502
0.35208
0.354207
0.356443
0.358855
0.361395
0.364115
0.366989
0.370057
0.373309
0.348466
0.347014
0.345661
0.344765
0.343976
0.344037
0.344466
0.345519
0.347546
0.350805
0.355413
0.361511
0.369148
0.378211
0.38845
0.399563
0.410935
0.421861
0.431225
0.43791
0.441713
0.441752
0.436882
0.4275
0.414682
0.400256
0.386891
0.378106
0.377396
0.384658
0.400455
0.437551
0.615181
1.62131
0.348463
0.350241
0.352167
0.354288
0.35652
0.358924
0.361458
0.364166
0.367029
0.370082
0.373318
0.347007
0.345653
0.344752
0.343961
0.344021
0.344453
0.345518
0.347576
0.350904
0.355651
0.361998
0.370062
0.379808
0.390972
0.403235
0.416106
0.42897
0.440804
0.450667
0.45922
0.46452
0.462708
0.455475
0.44342
0.427829
0.410689
0.39473
0.383445
0.380249
0.385254
0.398963
0.436078
0.619551
1.63728
0.347
0.348506
0.350329
0.352255
0.354372
0.3566
0.358995
0.361521
0.364218
0.36707
0.370108
0.373327
0.345647
0.344741
0.343949
0.344007
0.344442
0.345518
0.347604
0.350997
0.355868
0.362443
0.370899
0.38128
0.393409
0.406911
0.42122
0.435893
0.44995
0.462593
0.474885
0.485814
0.48953
0.48516
0.475024
0.459921
0.441308
0.421288
0.402642
0.388816
0.383137
0.386049
0.3978
0.434851
0.623728
1.6522
0.345642
0.347038
0.348598
0.350419
0.352347
0.354458
0.356682
0.359069
0.361587
0.364272
0.367111
0.370134
0.373337
0.34473
0.343938
0.343996
0.344433
0.345519
0.34763
0.351081
0.356068
0.362853
0.371673
0.382646
0.395699
0.41055
0.426471
0.442937
0.459117
0.474312
0.489944
0.505378
0.515203
0.516512
0.508868
0.495311
0.476818
0.45497
0.43195
0.410555
0.394176
0.386019
0.386889
0.396882
0.433895
0.627965
1.66638
0.34472
0.34568
0.347124
0.348693
0.350512
0.352442
0.354546
0.356767
0.359144
0.361654
0.364327
0.367155
0.370161
0.373347
0.343928
0.343986
0.344425
0.345521
0.347655
0.35116
0.356252
0.363231
0.372388
0.383918
0.397852
0.414026
0.431774
0.45035
0.468692
0.486388
0.505175
0.52477
0.539416
0.547172
0.54518
0.533578
0.51611
0.49393
0.468679
0.442578
0.418408
0.399484
0.388922
0.38777
0.396192
0.433107
0.631943
1.67958
0.343921
0.344745
0.345762
0.347212
0.348791
0.350609
0.352539
0.354637
0.356854
0.359222
0.361724
0.364384
0.367198
0.370188
0.373356
0.343977
0.344418
0.345522
0.347677
0.351232
0.35642
0.363578
0.373049
0.385103
0.399877
0.417331
0.436916
0.458
0.478993
0.499315
0.521313
0.54502
0.564143
0.576859
0.581461
0.575255
0.559041
0.537227
0.511095
0.482316
0.45309
0.426145
0.404707
0.391817
0.388692
0.395662
0.432525
0.635946
1.69214
0.343971
0.343934
0.344806
0.345847
0.347304
0.348893
0.350708
0.352639
0.354731
0.356943
0.359302
0.361795
0.364442
0.367242
0.370213
0.373365
0.344411
0.345524
0.347698
0.351298
0.356574
0.363896
0.373658
0.386203
0.401777
0.420464
0.441869
0.465551
0.489809
0.513529
0.539049
0.567165
0.590792
0.608099
0.617544
0.617827
0.606465
0.585003
0.558468
0.528173
0.495777
0.463414
0.433721
0.40982
0.394681
0.389641
0.395294
0.43205
0.639656
1.70376
0.344406
0.343958
0.343968
0.344867
0.345937
0.347399
0.348999
0.350811
0.352743
0.354828
0.357035
0.359384
0.361867
0.3645
0.367284
0.370239
0.373374
0.345523
0.347716
0.351358
0.356715
0.364188
0.374218
0.387222
0.403551
0.423423
0.446622
0.472918
0.500617
0.528786
0.559067
0.592265
0.62089
0.642908
0.656756
0.661392
0.656063
0.638561
0.611239
0.57966
0.545038
0.508977
0.47349
0.441097
0.414799
0.397495
0.390612
0.395026
0.431732
0.64337
1.71484
0.345527
0.344366
0.34393
0.34401
0.344931
0.346033
0.347498
0.349108
0.350917
0.352849
0.354927
0.357129
0.359468
0.361939
0.364556
0.367325
0.370263
0.373382
0.347731
0.351413
0.356844
0.364455
0.374732
0.388161
0.4052
0.426204
0.451155
0.48005
0.511282
0.544409
0.581109
0.621432
0.656188
0.683776
0.70222
0.710521
0.708453
0.696021
0.671332
0.637555
0.600656
0.56159
0.521843
0.483272
0.448243
0.419626
0.400244
0.391594
0.394877
0.431476
0.646778
1.72504
0.347751
0.345448
0.344281
0.343888
0.344064
0.344998
0.346134
0.347601
0.349221
0.351026
0.352958
0.35503
0.357225
0.359551
0.362008
0.36461
0.367365
0.370287
0.373391
0.351461
0.35696
0.364699
0.375203
0.389026
0.406729
0.428806
0.455454
0.486902
0.521755
0.560215
0.604085
0.654467
0.698964
0.734168
0.758411
0.770305
0.770108
0.758893
0.737609
0.704604
0.663792
0.621332
0.577747
0.534324
0.492725
0.455137
0.424285
0.402916
0.392579
0.394784
0.43134
0.650181
1.73479
0.351514
0.347608
0.345267
0.34419
0.343851
0.344129
0.345069
0.346241
0.347707
0.349338
0.351139
0.353071
0.355135
0.35732
0.359632
0.362076
0.364663
0.367403
0.370311
0.373399
0.357065
0.364919
0.375633
0.389821
0.408142
0.431231
0.459507
0.493445
0.531988
0.576046
0.627525
0.690134
0.750436
0.799429
0.832195
0.848533
0.849071
0.836269
0.812871
0.78074
0.738229
0.689815
0.641584
0.593445
0.546378
0.501821
0.461762
0.428767
0.405502
0.39356
0.394789
0.431234
0.653284
1.7426
0.357172
0.351288
0.347258
0.345075
0.344107
0.343822
0.344203
0.345145
0.346352
0.347818
0.349459
0.351256
0.353186
0.355239
0.357413
0.359711
0.362142
0.364715
0.367441
0.370333
0.373406
0.365119
0.376023
0.390548
0.409445
0.433485
0.463312
0.499664
0.541923
0.591701
0.651219
0.728616
0.81046
0.883781
0.933484
0.956508
0.957246
0.939799
0.909379
0.87038
0.825283
0.772065
0.715512
0.661336
0.608634
0.557975
0.510544
0.468107
0.433065
0.407996
0.394527
0.394816
0.431232
0.655952
1.74917
0.365315
0.356839
0.350707
0.346892
0.3449
0.344034
0.343802
0.344282
0.345227
0.346467
0.347934
0.349583
0.351376
0.3533
0.355341
0.357503
0.359788
0.362206
0.364765
0.367477
0.370355
0.373414
0.376379
0.391211
0.410642
0.435572
0.466871
0.505548
0.5515
0.607016
0.675182
0.770502
0.879708
0.986208
1.06763
1.10749
1.1095
1.08508
1.04233
0.989117
0.931125
0.871017
0.80596
0.740786
0.680524
0.623276
0.569096
0.518882
0.474166
0.437172
0.410392
0.395481
0.394868
0.431246
0.658161
1.75626
0.376719
0.364846
0.355931
0.350102
0.346551
0.34474
0.343972
0.343793
0.344367
0.345317
0.346587
0.348056
0.34971
0.351496
0.353411
0.35544
0.35759
0.359863
0.362268
0.364814
0.367512
0.370377
0.373421
0.391822
0.41174
0.437502
0.470189
0.511094
0.560672
0.6219
0.69956
0.815967
0.957433
1.10371
1.2272
1.30335
1.31937
1.28836
1.22961
1.15495
1.07443
0.994506
0.917616
0.839747
0.765549
0.699103
0.637346
0.579729
0.526832
0.479936
0.441088
0.412688
0.396414
0.394952
0.431276
0.660587
1.76399
0.39239
0.376079
0.36348
0.35499
0.349531
0.346234
0.344592
0.34392
0.343794
0.344455
0.345414
0.346709
0.348182
0.349836
0.351614
0.353519
0.355537
0.357676
0.359936
0.362328
0.364861
0.367547
0.370398
0.373425
0.412756
0.439284
0.473276
0.5163
0.569408
0.636328
0.724449
0.864493
1.04125
1.23111
1.40288
1.52734
1.58255
1.56132
1.48696
1.38651
1.27492
1.16373
1.05969
0.964675
0.873244
0.789719
0.717034
0.650829
0.589871
0.534393
0.485419
0.444813
0.41488
0.397206
0.395021
0.43135
0.663228
1.77236
0.413683
0.391545
0.374076
0.362073
0.354096
0.34899
0.345938
0.344457
0.343878
0.343808
0.344544
0.34552
0.346834
0.348309
0.349959
0.351728
0.353624
0.355631
0.357758
0.360007
0.362387
0.364907
0.36758
0.370408
0.373425
0.440941
0.476143
0.521175
0.577696
0.650304
0.749803
0.91505
1.12817
1.36278
1.58577
1.76526
1.87406
1.89398
1.82417
1.69838
1.55098
1.39916
1.25524
1.12575
1.01175
0.906263
0.813222
0.734293
0.663718
0.599521
0.541568
0.490618
0.448348
0.416695
0.397888
0.395132
0.431432
0.666141
1.78155
0.442427
0.412586
0.388661
0.372028
0.360733
0.353244
0.348472
0.345664
0.344332
0.343845
0.343841
0.344635
0.345635
0.346959
0.348434
0.350078
0.35184
0.353726
0.355723
0.357839
0.360076
0.362444
0.364952
0.367597
0.370408
0.373425
0.478822
0.525736
0.585543
0.663837
0.775438
0.966456
1.21551
1.49414
1.76871
2.00645
2.17697
2.2553
2.22744
2.09965
1.91637
1.7186
1.5248
1.34723
1.19174
1.05838
0.938618
0.835993
0.750859
0.676009
0.608687
0.548365
0.495539
0.451256
0.418241
0.398654
0.395245
0.431613
0.66933
1.79149
0.481189
0.441026
0.408488
0.385736
0.370074
0.35945
0.352425
0.347974
0.345407
0.344219
0.343814
0.343899
0.344725
0.345754
0.34708
0.348558
0.350195
0.35195
0.353825
0.355812
0.357917
0.360143
0.3625
0.364974
0.367597
0.370408
0.373425
0.530018
0.592978
0.676943
0.801104
1.01763
1.30123
1.62204
1.94679
2.24315
2.47953
2.62641
2.66105
2.57447
2.38101
2.13587
1.88577
1.64942
1.43821
1.25683
1.10416
0.970143
0.857974
0.766719
0.687707
0.617377
0.554794
0.499575
0.453725
0.419945
0.399507
0.395429
0.431774
0.672827
1.80242
0.53376
0.479429
0.435248
0.404369
0.382944
0.368198
0.358211
0.351635
0.347497
0.345168
0.344115
0.343778
0.343975
0.344816
0.345874
0.347199
0.348678
0.350308
0.352056
0.353922
0.355899
0.357993
0.360208
0.362527
0.364974
0.367597
0.370408
0.373425
0.60004
0.689646
0.82656
1.0677
1.38393
1.74447
2.11695
2.47024
2.77319
2.99417
3.10404
3.08293
2.9281
2.66282
2.35291
2.04972
1.77116
1.52698
1.32031
1.14874
1.00069
0.879116
0.781867
0.69882
0.625602
0.560064
0.502999
0.456432
0.421821
0.400472
0.395613
0.432094
0.676696
1.81422
0.606209
0.531546
0.471306
0.4295
0.400435
0.380256
0.36638
0.357013
0.350875
0.347045
0.344947
0.344024
0.343748
0.344061
0.344907
0.345993
0.347316
0.348797
0.350419
0.35216
0.354016
0.355983
0.358067
0.36024
0.362527
0.364974
0.367597
0.370408
0.373425
0.701948
0.851591
1.11604
1.46272
1.86028
2.27744
2.68461
3.05212
3.34848
3.54115
3.60152
3.51367
3.28247
2.94078
2.56452
2.20844
1.88864
1.61264
1.38165
1.19181
1.03013
0.899385
0.796304
0.709359
0.632352
0.564533
0.506744
0.459402
0.423894
0.401545
0.395905
0.432386
0.680917
1.82722
0.712791
0.603455
0.520033
0.463318
0.424008
0.396638
0.377646
0.364617
0.355855
0.350147
0.34662
0.344746
0.343943
0.34373
0.34415
0.344999
0.346111
0.347431
0.348912
0.350528
0.352261
0.354108
0.356065
0.358104
0.36024
0.362527
0.364974
0.367597
0.370408
0.373421
0.87596
1.16225
1.53713
1.96889
2.42739
2.88457
3.31273
3.68218
3.95994
4.11209
4.11118
3.94675
3.63262
3.21151
2.76853
2.36053
2.00097
1.6946
1.44046
1.23317
1.05838
0.918758
0.810033
0.718022
0.638079
0.569421
0.510845
0.462664
0.426183
0.40277
0.396193
0.43289
0.685654
1.84119
0.709464
0.897428
0.586496
0.508934
0.455681
0.418697
0.392945
0.375109
0.36291
0.354741
0.349453
0.346224
0.344563
0.343878
0.343726
0.34424
0.345093
0.346226
0.347545
0.349025
0.350633
0.352359
0.354197
0.356106
0.358103
0.36024
0.362527
0.364974
0.367597
0.370397
0.373414
1.20598
1.60693
2.07011
2.5665
3.0694
3.55316
3.99073
4.35114
4.59901
4.69894
4.62577
4.37629
3.97439
3.47241
2.96341
2.50509
2.10756
1.77247
1.49647
1.27267
1.08537
0.937221
0.821349
0.725382
0.644347
0.574771
0.51534
0.46625
0.42872
0.404132
0.396642
0.433377
0.69079
1.85663
0.682819
0.894634
1.24367
0.570664
0.498343
0.448283
0.413525
0.389349
0.372647
0.361261
0.353673
0.348796
0.345859
0.344403
0.343829
0.343736
0.344329
0.34519
0.346339
0.347657
0.349134
0.350736
0.352455
0.354241
0.356106
0.358103
0.36024
0.362527
0.364974
0.36758
0.370376
0.373406
1.67194
2.164
2.69489
3.23907
3.77278
4.27183
4.70874
5.05013
5.25734
5.29383
5.13842
4.79704
4.30435
3.72154
3.14817
2.64162
2.20812
1.84602
1.54955
1.31021
1.11106
0.95246
0.830975
0.733445
0.651213
0.580634
0.520272
0.470197
0.431529
0.405699
0.397085
0.434135
0.696637
1.8731
0.658412
0.85162
1.2418
1.72736
0.555781
0.488066
0.441073
0.408485
0.385856
0.370265
0.359675
0.352653
0.34818
0.345533
0.344268
0.343795
0.34376
0.344415
0.34529
0.346448
0.347767
0.349241
0.350838
0.352502
0.354241
0.356106
0.358103
0.36024
0.362527
0.364952
0.367546
0.370355
0.373398
2.25059
2.81294
3.39409
3.97188
4.52493
5.02977
5.45739
5.77061
5.92677
5.88908
5.64267
5.20442
4.61977
3.95756
3.32224
2.76988
2.30254
1.9152
1.59963
1.34576
1.13223
0.965433
0.841536
0.742287
0.658741
0.587063
0.525686
0.474546
0.434653
0.40744
0.397756
0.434908
0.702949
1.89135
0.635906
0.811196
1.17799
1.72748
2.32405
0.541452
0.478035
0.434046
0.403584
0.382472
0.367968
0.358155
0.351689
0.347619
0.34525
0.344153
0.343771
0.343803
0.344498
0.34539
0.346555
0.347875
0.349346
0.350887
0.352502
0.354241
0.356106
0.358104
0.36024
0.362499
0.364907
0.367512
0.370333
0.37339
2.92092
3.53525
4.15152
4.75083
5.31378
5.81683
6.22794
6.50439
6.59916
6.47722
6.13265
5.59458
4.91865
4.17965
3.48538
2.88987
2.39089
1.98005
1.64672
1.37488
1.15022
0.97967
0.853135
0.751995
0.667004
0.594121
0.531638
0.479343
0.43812
0.40946
0.398431
0.436014
0.710221
1.91064
0.614702
0.77338
1.11532
1.64503
2.32733
3.01183
0.527519
0.468249
0.427214
0.398833
0.379206
0.365763
0.356714
0.350807
0.347117
0.345008
0.344055
0.343743
0.343862
0.344577
0.345492
0.34666
0.347984
0.349397
0.350887
0.352501
0.354241
0.356106
0.358104
0.360208
0.362443
0.36486
0.367476
0.37031
0.373382
3.66316
4.31311
4.95137
5.56223
6.12799
6.62385
7.01237
7.24346
7.26649
7.05109
6.6031
5.96448
5.19962
4.38742
3.63761
3.00175
2.47332
2.04068
1.68507
1.39954
1.16992
0.995306
0.865884
0.762662
0.676082
0.601878
0.538188
0.484642
0.441993
0.411708
0.399417
0.437204
0.718082
1.93208
0.594502
0.737771
1.05406
1.56218
2.22824
3.01873
3.76947
0.513953
0.458734
0.420594
0.394244
0.376066
0.363668
0.355389
0.350014
0.346668
0.344799
0.343974
0.343719
0.343929
0.344656
0.345595
0.346765
0.348037
0.349395
0.350887
0.352501
0.354241
0.356106
0.358067
0.360142
0.362386
0.364813
0.367439
0.370286
0.373374
4.45777
5.12888
5.77807
6.39321
6.95772
7.44303
7.80326
7.97987
7.92074
7.60401
7.04963
6.31191
5.46192
4.5808
3.77916
3.10579
2.55005
2.08978
1.71739
1.42643
1.19151
1.01249
0.879909
0.774397
0.686068
0.610411
0.545404
0.490503
0.446303
0.414331
0.400441
0.438788
0.727187
1.95443
0.575182
0.704241
0.994073
1.47909
2.12774
2.90446
3.7791
4.57559
0.500771
0.449516
0.414202
0.389831
0.373081
0.361738
0.354195
0.349303
0.34627
0.34462
0.343906
0.343703
0.344001
0.344735
0.345701
0.346814
0.348035
0.349394
0.350886
0.352501
0.354241
0.356065
0.357992
0.360074
0.362327
0.364764
0.367402
0.370262
0.373365
5.2852
5.96493
6.6169
7.23283
7.79514
8.26785
8.59353
8.70552
8.55404
8.13002
7.46884
6.63545
5.70526
4.76005
3.91042
3.20234
2.61196
2.13102
1.75248
1.45573
1.21515
1.03137
0.895349
0.787319
0.697064
0.619811
0.553363
0.496992
0.451136
0.417262
0.401868
0.440377
0.737121
1.98364
0.556682
0.672784
0.935525
1.39547
2.02587
2.7883
3.65008
4.58533
5.40857
0.488002
0.440626
0.408058
0.385635
0.370328
0.359996
0.353121
0.348666
0.345921
0.344466
0.343851
0.343696
0.344078
0.344822
0.345754
0.346808
0.348035
0.349394
0.350886
0.352502
0.354196
0.355982
0.357915
0.360005
0.362266
0.364713
0.367363
0.370238
0.373356
6.1257
6.80445
7.45543
8.07282
8.6346
9.09258
9.3759
9.41201
9.15887
8.62411
7.85829
6.93442
5.92987
4.92564
4.03184
3.28001
2.66383
2.17563
1.79053
1.48766
1.24105
1.05214
0.912359
0.801562
0.709185
0.630178
0.562154
0.504192
0.456531
0.42069
0.403418
0.442375
0.750599
2.01828
0.538961
0.643456
0.878885
1.3113
1.92219
2.67007
3.51947
4.4407
5.41388
6.24726
0.475686
0.432095
0.40222
0.381767
0.367843
0.358426
0.352154
0.348098
0.345615
0.344332
0.343806
0.343702
0.344168
0.344858
0.34575
0.346807
0.348035
0.349394
0.350887
0.352454
0.354105
0.355896
0.357836
0.359934
0.362204
0.364662
0.367324
0.370213
0.373347
6.96013
7.63319
8.28443
8.90814
9.47188
9.91171
10.1426
10.0907
9.72839
9.08238
8.21658
7.20887
6.13629
5.07819
4.12918
3.34494
2.71979
2.22383
1.83179
1.52242
1.26939
1.07497
0.931107
0.817273
0.722562
0.641626
0.571877
0.512188
0.462606
0.424557
0.405442
0.444994
0.767207
2.05312
0.521996
0.616223
0.82474
1.22687
1.81639
2.54926
3.38675
4.29577
5.25108
6.24204
7.07155
0.463863
0.424006
0.396841
0.378276
0.365601
0.35701
0.351287
0.347592
0.345344
0.344216
0.343779
0.343736
0.344212
0.344843
0.345751
0.346807
0.348034
0.349396
0.350836
0.352357
0.354013
0.355809
0.357755
0.359861
0.36214
0.364609
0.367283
0.370187
0.373337
7.77227
8.44048
9.09918
9.7357
10.3036
10.7194
10.8848
10.7331
10.2567
9.50221
8.54336
7.45939
6.3253
5.19992
4.21038
3.41483
2.78008
2.27587
1.87645
1.56022
1.30038
1.10006
0.951773
0.834617
0.73734
0.654283
0.582647
0.521088
0.469416
0.429069
0.408206
0.448556
0.786309
2.08749
0.505785
0.59098
0.773744
1.14277
1.7084
2.42528
3.25142
4.14956
5.09059
6.05615
7.04842
7.86288
0.452658
0.416572
0.391991
0.375127
0.363578
0.355736
0.350508
0.347139
0.345104
0.344125
0.343785
0.343741
0.344202
0.34484
0.345751
0.346808
0.348036
0.349344
0.350733
0.352257
0.353918
0.355719
0.357673
0.359786
0.362075
0.364555
0.367241
0.37016
0.373328
8.54945
9.22194
9.89603
10.5532
11.1276
11.5079
11.5932
11.3308
10.7393
9.88245
8.83915
7.68695
6.47514
5.30111
4.29753
3.48994
2.84497
2.33197
1.92474
1.60127
1.33423
1.12761
0.974554
0.853773
0.753681
0.668296
0.594593
0.531004
0.477115
0.435194
0.412121
0.452876
0.806723
2.12133
0.490446
0.567559
0.72652
1.05977
1.59836
2.2977
3.11267
4.00169
4.93081
5.8771
6.83206
7.81196
8.60704
0.442375
0.409883
0.387619
0.372287
0.361755
0.354588
0.349807
0.346731
0.344906
0.344084
0.343777
0.343713
0.344204
0.34484
0.34575
0.346814
0.347982
0.349238
0.350629
0.352155
0.35382
0.355627
0.357588
0.359709
0.362007
0.364499
0.367198
0.370133
0.373318
9.2841
9.9656
10.6641
11.3508
11.9367
12.27
12.2572
11.8766
11.1733
10.2232
9.10512
7.86575
6.59909
5.40931
4.39091
3.57054
2.91469
2.39236
1.97686
1.64577
1.37116
1.15785
0.999653
0.874932
0.771763
0.683826
0.607871
0.542087
0.487407
0.443307
0.416872
0.457691
0.829336
2.15437
0.476356
0.545942
0.683508
0.978882
1.48664
2.1663
2.96969
3.85117
4.77148
5.70224
6.62949
7.55665
8.51196
9.2987
0.433148
0.403868
0.383682
0.369729
0.360112
0.353553
0.349173
0.346382
0.344787
0.344049
0.343743
0.343711
0.344205
0.344843
0.345755
0.346764
0.347873
0.34913
0.350522
0.352051
0.353721
0.355533
0.3575
0.359631
0.361938
0.364442
0.367155
0.370107
0.373309
9.97391
10.6809
11.4188
12.1349
12.7237
12.9922
12.8659
12.3651
11.5581
10.5258
9.31166
8.01266
6.73085
5.52469
4.49074
3.65687
2.98947
2.45724
2.03302
1.69391
1.41135
1.19096
1.02728
0.898298
0.791776
0.701064
0.622646
0.556783
0.500645
0.452509
0.42219
0.463717
0.854143
2.18628
0.463689
0.526439
0.644838
0.901363
1.37384
2.031
2.82178
3.69683
4.61152
5.53144
6.43654
7.32401
8.20957
9.1293
9.92235
0.424881
0.398461
0.380138
0.367424
0.358628
0.352614
0.348623
0.346137
0.344707
0.344003
0.343743
0.343711
0.344203
0.34486
0.345702
0.346658
0.347763
0.349019
0.350413
0.351944
0.353619
0.355436
0.357411
0.359551
0.361868
0.364385
0.367111
0.370081
0.3733
10.613
11.3675
12.166
12.9086
13.4824
13.6614
13.41
12.7931
11.8944
10.7572
9.47984
8.16759
6.8704
5.64737
4.59718
3.7491
3.06951
2.52679
2.09337
1.74587
1.45499
1.22715
1.05764
0.924079
0.813932
0.720194
0.642171
0.575431
0.515177
0.462701
0.42883
0.470465
0.881146
2.21708
0.452331
0.509025
0.611574
0.829422
1.26091
1.89192
2.66831
3.53749
4.44944
5.36343
6.25296
7.1086
7.93954
8.77249
9.65824
10.4691
0.417481
0.393602
0.376949
0.365342
0.357283
0.351794
0.348221
0.345985
0.344643
0.344004
0.343743
0.343715
0.344214
0.344824
0.345594
0.346552
0.347652
0.348906
0.350301
0.351834
0.353514
0.355338
0.357319
0.359468
0.361795
0.364327
0.367069
0.370056
0.373291
11.2015
12.0311
12.9089
13.6748
14.2034
14.2627
13.8822
13.1604
12.1466
10.9434
9.65528
8.33009
7.01754
5.77731
4.71033
3.84737
3.15493
2.60117
2.15807
1.80178
1.50224
1.2666
1.09092
0.952489
0.83842
0.745395
0.666765
0.595581
0.531026
0.474352
0.436098
0.47881
0.911262
2.24622
0.442172
0.493383
0.583519
0.765788
1.15006
1.74939
2.50877
3.37192
4.28362
5.19647
6.07717
6.9098
7.69648
8.45776
9.23207
10.0899
10.9379
0.410857
0.389236
0.374073
0.363456
0.356102
0.351178
0.34798
0.345892
0.344644
0.344004
0.343745
0.343746
0.344172
0.344736
0.345491
0.346444
0.347539
0.34879
0.350187
0.351722
0.353406
0.355236
0.357224
0.359384
0.361724
0.364272
0.367028
0.370031
0.373282
11.7445
12.6835
13.6513
14.4204
14.869
14.7829
14.279
13.4287
12.3462
11.1348
9.83691
8.49949
7.17188
5.91435
4.83014
3.95174
3.24583
2.68045
2.22721
1.86174
1.5532
1.30945
1.12732
0.983694
0.870517
0.776888
0.693064
0.617284
0.54844
0.48717
0.445154
0.488396
0.943579
2.2738
0.433108
0.4793
0.559573
0.711806
1.04585
1.6051
2.34279
3.19884
4.11221
5.02852
5.90711
6.7254
7.4792
8.18172
8.86372
9.57734
10.4106
11.3264
0.404929
0.385308
0.371472
0.361798
0.355196
0.350817
0.347856
0.345894
0.344645
0.344005
0.343783
0.343743
0.344082
0.344656
0.345389
0.346335
0.347425
0.348672
0.350071
0.351608
0.353296
0.355133
0.357128
0.359301
0.361654
0.364218
0.366988
0.370007
0.373274
12.2527
13.3398
14.3941
15.1295
15.4512
15.2114
14.5587
13.6362
12.5472
11.3293
10.0232
8.67473
7.33276
6.05814
4.95647
4.06214
3.34222
2.76469
2.30083
1.92581
1.60796
1.35582
1.16692
1.02429
0.9102
0.810191
0.721058
0.640636
0.567367
0.501808
0.455125
0.49987
0.98072
2.29934
0.425034
0.466633
0.538855
0.666653
0.951551
1.46406
2.1715
3.01703
3.93319
4.85724
5.74039
6.55288
7.28454
7.94253
8.54947
9.14535
9.79652
10.605
11.6323
0.399611
0.381763
0.369182
0.360506
0.354673
0.350654
0.34786
0.345894
0.344646
0.344057
0.343795
0.343711
0.344006
0.344578
0.345288
0.346222
0.34731
0.348551
0.349952
0.351491
0.353183
0.355028
0.357033
0.359221
0.361586
0.364165
0.366949
0.369985
0.373266
12.7443
14.0124
15.1333
15.7909