/*--------------------------------*- C++ -*----------------------------------*\
  =========                 |
  \\      /  F ield         | OpenFOAM: The Open Source CFD Toolbox
   \\    /   O peration     | Website:  https://openfoam.org
    \\  /    A nd           | Version:  8
     \\/     M anipulation  |
\*---------------------------------------------------------------------------*/
FoamFile
{
    version     2.0;
    format      ascii;
    class       volScalarField;
    location    "0.37";
    object      nut;
}
// * * * * * * * * * * * * * * * * * * * * * * * * * * * * * * * * * * * * * //

dimensions      [0 2 -1 0 0 0 0];

internalField   nonuniform List<scalar> 
15677
(
0.000168248
0.000653033
0.000148413
0.00151382
0.000442474
0.000141511
0.00267563
0.000875853
0.000381147
0.000142384
0.00392144
0.00151898
0.000686632
0.000354242
0.000145476
0.00502441
0.0023562
0.00114638
0.000585578
0.000340241
0.000151236
0.00584089
0.00331744
0.00178072
0.000947623
0.000529211
0.000332
0.000157032
0.00633518
0.00429874
0.00256754
0.00146307
0.0008207
0.000492381
0.000326967
0.000162478
0.00656295
0.00518778
0.00345279
0.00213127
0.00125682
0.000736966
0.000467326
0.000324094
0.000167248
0.00665852
0.00589355
0.00435527
0.00292176
0.00184093
0.00111176
0.000677055
0.000450315
0.000322515
0.000171466
0.00670554
0.00633834
0.00518085
0.00377862
0.00255619
0.00163095
0.00100397
0.000633759
0.000438555
0.000321955
0.000175018
0.00671441
0.00655352
0.00584539
0.004625
0.00336189
0.00228539
0.00147163
0.000923514
0.000601815
0.000430627
0.000321887
0.000178136
0.00670993
0.00666155
0.00629572
0.00537696
0.00419612
0.00304399
0.00207636
0.00134786
0.000861455
0.000578209
0.000425156
0.00032236
0.000180735
0.00670628
0.00669876
0.00652964
0.00596438
0.00498349
0.00385596
0.00279395
0.00191006
0.0012499
0.000813309
0.000560458
0.000421678
0.000322982
0.000183054
0.00670539
0.00670439
0.00664685
0.00635685
0.00564957
0.00465462
0.00358138
0.00259144
0.00177584
0.00117158
0.000775476
0.0005473
0.00041932
0.000323887
0.000185075
0.00670542
0.00670288
0.0066879
0.00656289
0.0061418
0.00536746
0.00437937
0.00335452
0.00242531
0.00166594
0.00110804
0.000745707
0.000537219
0.0004181
0.000324726
0.000186864
0.00670556
0.00670166
0.00669639
0.00665656
0.00644664
0.00593295
0.00511934
0.00414612
0.00316542
0.00228704
0.00157537
0.00105631
0.000722022
0.000529957
0.000417229
0.000325762
0.000188498
0.00670563
0.00670119
0.00669713
0.00668492
0.00660478
0.00632132
0.00573619
0.00490155
0.00394773
0.00300584
0.00217149
0.00150014
0.0010143
0.000703541
0.000524258
0.0004171
0.000326686
0.000189893
0.00670564
0.00670109
0.00669673
0.00669166
0.00666368
0.006541
0.00618743
0.00555501
0.00471133
0.00377764
0.0028708
0.0020743
0.00143775
0.000980194
0.000688676
0.000520391
0.000417031
0.000327751
0.000191299
0.00670563
0.00670109
0.00669644
0.00669272
0.00668228
0.00663441
0.00646734
0.00605654
0.00539116
0.00454484
0.00363174
0.00275602
0.00199266
0.0013861
0.000952312
0.000677306
0.000517285
0.000417536
0.000328717
0.0001924
0.00670561
0.00670112
0.00669631
0.00669265
0.00668727
0.00666905
0.00659777
0.00638851
0.00593293
0.00524362
0.0043997
0.00350641
0.00265859
0.00192432
0.00134341
0.000929978
0.000668154
0.000515532
0.000417938
0.000329771
0.000193704
0.0067056
0.00670113
0.00669625
0.00669253
0.00668819
0.00668076
0.00665125
0.00655558
0.00630971
0.00581709
0.00511232
0.00427331
0.00339903
0.00257635
0.00186736
0.00130853
0.000911979
0.000661555
0.000514074
0.000418824
0.000330785
0.00019458
0.0067056
0.00670114
0.00669621
0.00669248
0.00668817
0.0066842
0.00667155
0.00663002
0.00651053
0.00623116
0.00571134
0.00499586
0.00416394
0.00330774
0.0025074
0.00182048
0.00128033
0.000898059
0.000656291
0.000513722
0.000419526
0.000331805
0.00019587
0.00670559
0.00670114
0.00669619
0.00669247
0.00668801
0.00668503
0.00667837
0.00666124
0.0066056
0.00646376
0.00615786
0.00561518
0.00489396
0.00407024
0.0032308
0.0024504
0.00178247
0.00125804
0.000887276
0.000653103
0.000513382
0.000420667
0.000332928
0.000196582
0.0067056
0.00670114
0.00669617
0.00669246
0.0066879
0.00668517
0.00668027
0.00667325
0.00664805
0.00657978
0.00641789
0.00608894
0.00553007
0.00480568
0.00399073
0.00316697
0.00240421
0.00175254
0.00124115
0.000879729
0.0006506
0.000514012
0.000421553
0.000333822
0.000197871
0.0067056
0.00670114
0.00669617
0.00669245
0.00668784
0.00668516
0.00668062
0.00667747
0.00666537
0.00663494
0.00655301
0.00637344
0.00602693
0.00545476
0.00473026
0.00392495
0.00311565
0.00236811
0.00172996
0.00122863
0.000874316
0.000649958
0.000514467
0.000422953
0.000335247
0.000198551
0.0067056
0.00670113
0.00669616
0.00669244
0.0066878
0.00668512
0.00668056
0.0066788
0.00667172
0.00665939
0.00661968
0.00652681
0.00633315
0.00597021
0.00539096
0.00466855
0.00387212
0.0030751
0.00234058
0.00171366
0.00122093
0.000871978
0.000649567
0.000515861
0.000423831
0.000335983
5.33167e-05
0.00670561
0.00670113
0.00669616
0.00669243
0.00668778
0.00668508
0.00668046
0.00667914
0.00667373
0.00666949
0.00665009
0.00660623
0.00650269
0.00629559
0.00592418
0.00533798
0.00461731
0.00383008
0.00304594
0.00232322
0.00170534
0.00121739
0.000870946
0.000650938
0.000516905
0.000426196
0.000283381
6.32432e-05
0.00670562
0.00670112
0.00669616
0.00669241
0.00668777
0.00668505
0.00668039
0.00667916
0.0066742
0.00667335
0.00666286
0.00664488
0.00659205
0.00647996
0.00626545
0.00588211
0.00529484
0.00458217
0.00380527
0.0030297
0.00231397
0.00170157
0.00121635
0.000872563
0.000652445
0.000518969
0.000419715
0.000219271
7.05725e-05
0.00670562
0.00670111
0.00669616
0.0066924
0.00668777
0.00668501
0.00668035
0.00667911
0.00667422
0.00667465
0.00666774
0.00666252
0.00663588
0.0065817
0.006464
0.00623644
0.00585664
0.00527058
0.00455979
0.00378815
0.00301984
0.0023104
0.00170222
0.00121946
0.000875294
0.000654669
0.000520111
0.000399765
0.000177888
7.59634e-05
0.00670563
0.00670111
0.00669616
0.00669239
0.00668776
0.00668498
0.00668033
0.00667903
0.00667415
0.00667496
0.00666936
0.00667003
0.00665594
0.00663462
0.00657242
0.00644715
0.00622762
0.00584011
0.00525188
0.00454492
0.00377986
0.00301803
0.00231383
0.00170861
0.00122537
0.000879517
0.000657708
0.000517891
0.000366963
0.000152469
8.03143e-05
0.00670563
0.0067011
0.00669617
0.00669238
0.00668776
0.00668494
0.00668031
0.00667895
0.00667409
0.00667495
0.00666977
0.00667293
0.00666448
0.00666047
0.00662829
0.00656977
0.00644586
0.00622025
0.00582948
0.00524225
0.00454201
0.00378386
0.00302742
0.00232522
0.00171977
0.00123404
0.000885365
0.000660644
0.000511724
0.000335787
0.00013417
8.36498e-05
0.00670564
0.0067011
0.00669617
0.00669236
0.00668777
0.00668491
0.00668031
0.00667888
0.00667405
0.00667484
0.00666981
0.00667381
0.00666782
0.00667228
0.00665548
0.00663631
0.00657238
0.00644807
0.00621816
0.00583019
0.00524891
0.00455372
0.00379998
0.00304566
0.00234312
0.00173511
0.00124556
0.000892296
0.000662994
0.000500263
0.000305681
0.000121257
8.60026e-05
0.00670564
0.00670109
0.00669617
0.00669235
0.00668777
0.00668488
0.00668031
0.00667881
0.00667402
0.00667471
0.00666977
0.00667394
0.00666895
0.00667722
0.00666795
0.00667036
0.00664168
0.00658039
0.00645585
0.00622999
0.00584685
0.00526908
0.004578
0.0038267
0.00307237
0.00236727
0.00175439
0.00125932
0.000900258
0.00066405
0.000484796
0.000279638
0.000112794
8.77324e-05
0.00670565
0.00670109
0.00669618
0.00669234
0.00668777
0.00668486
0.00668032
0.00667874
0.00667401
0.00667459
0.00666971
0.00667383
0.00666927
0.00667885
0.0066735
0.00668681
0.00667755
0.00665371
0.00659688
0.00647691
0.00625588
0.00587683
0.00530299
0.00461455
0.00386398
0.00310737
0.00239714
0.0017773
0.00127551
0.000908881
0.000663861
0.000467808
0.000259845
0.000107057
8.9064e-05
0.00670109
0.00670566
0.00669618
0.00669233
0.00668778
0.00668483
0.00668032
0.00667868
0.006674
0.00667447
0.00666967
0.00667365
0.00666932
0.00667921
0.00667577
0.00669413
0.00669515
0.00669229
0.00667638
0.00662475
0.00651055
0.00629528
0.00592151
0.0053506
0.00466365
0.00391142
0.00315009
0.00243267
0.00180355
0.00129333
0.000918955
0.000662346
0.000452626
0.000244628
0.000103034
9.01381e-05
0.00669618
0.00670109
0.00670568
0.00669233
0.00668778
0.0066848
0.00668033
0.00667863
0.00667401
0.00667436
0.00666963
0.00667347
0.00666929
0.00667915
0.00667661
0.00669695
0.00670331
0.00671167
0.00671897
0.00670914
0.00666501
0.00655822
0.00634997
0.00598078
0.00541235
0.00472474
0.00396884
0.00320051
0.00247313
0.00183299
0.00131574
0.000930938
0.00066038
0.000439625
0.000232803
0.000100185
9.10411e-05
0.00669232
0.00669621
0.00670112
0.00670569
0.00668779
0.00668478
0.00668035
0.00667857
0.00667402
0.00667426
0.00666961
0.00667329
0.00666923
0.00667894
0.0066769
0.00669795
0.00670672
0.00672104
0.00674096
0.00675561
0.00675464
0.00671937
0.00662159
0.00642091
0.00605641
0.00548858
0.00479833
0.00403589
0.00325767
0.00251858
0.00186867
0.0013424
0.000943626
0.000658633
0.000428749
0.000223435
9.81043e-05
9.18264e-05
0.0066878
0.00669234
0.00669627
0.00670114
0.00670571
0.00668476
0.00668036
0.00667852
0.00667403
0.00667416
0.0066696
0.00667313
0.00666918
0.00667871
0.00667697
0.00669826
0.00670808
0.00672528
0.00675213
0.00678052
0.00680515
0.00681438
0.00678985
0.00670157
0.00650915
0.00614795
0.00557956
0.00488317
0.00411181
0.00332172
0.00257368
0.0019125
0.00137029
0.00095677
0.000657684
0.000419789
0.00021591
9.66027e-05
9.25278e-05
0.00668474
0.00668784
0.00669239
0.00669632
0.00670116
0.00670573
0.00668037
0.00667847
0.00667405
0.00667406
0.0066696
0.00667298
0.00666914
0.00667849
0.00667698
0.00669829
0.00670862
0.00672719
0.00675764
0.00679382
0.00683308
0.00686873
0.00689034
0.00687726
0.00679964
0.00661448
0.00625589
0.00568508
0.00498026
0.00419666
0.0033992
0.00264085
0.00195961
0.00139927
0.000970657
0.000657345
0.000412265
0.000209777
9.54818e-05
9.3164e-05
0.00668039
0.00668477
0.00668794
0.00669245
0.00669638
0.00670119
0.00670575
0.00667843
0.00667408
0.00667398
0.00666962
0.00667284
0.0066691
0.00667829
0.00667696
0.00669823
0.00670884
0.00672814
0.00676049
0.00680102
0.00684942
0.00690124
0.00695112
0.00698461
0.0069826
0.00691485
0.00673692
0.00637944
0.00580424
0.00508825
0.00429926
0.00349358
0.00271269
0.00200934
0.0014291
0.00098479
0.000657989
0.000406104
0.00020468
9.46707e-05
9.37509e-05
0.00667839
0.00668045
0.00668483
0.00668803
0.0066925
0.00669644
0.00670121
0.00670577
0.0066741
0.00667389
0.00666964
0.00667271
0.00666908
0.00667811
0.00667694
0.00669813
0.00670893
0.00672869
0.00676215
0.0068052
0.00685905
0.00692108
0.00698897
0.00705312
0.00710141
0.00710945
0.00704823
0.00687538
0.00651761
0.00593525
0.00522059
0.00442486
0.00359432
0.0027885
0.00206097
0.00145965
0.000999729
0.0006593
0.000400936
0.000200373
9.406e-05
9.42925e-05
0.00667413
0.0066784
0.00668058
0.0066849
0.00668813
0.00669256
0.00669651
0.00670123
0.00670579
0.00667381
0.00666968
0.00667258
0.00666907
0.00667795
0.00667692
0.00669803
0.00670897
0.00672906
0.00676329
0.00680799
0.00686532
0.00693385
0.00701391
0.00709761
0.00717871
0.00724011
0.00726004
0.0072033
0.00702824
0.00666836
0.00609369
0.00537938
0.00455974
0.00370091
0.00286711
0.0021141
0.00149044
0.0010144
0.000661808
0.000396732
0.000196685
9.36222e-05
9.47995e-05
0.00667373
0.00667422
0.00667845
0.00668072
0.00668497
0.00668823
0.00669262
0.00669657
0.00670126
0.00670582
0.00666971
0.00667246
0.00666908
0.00667782
0.00667689
0.00669793
0.00670899
0.00672935
0.00676417
0.00681013
0.00686995
0.00694291
0.00703158
0.00712916
0.00723218
0.00732848
0.0074041
0.0074327
0.00738072
0.00720095
0.00684717
0.0062804
0.00554692
0.00470138
0.00381217
0.00294793
0.00216807
0.00152173
0.00102886
0.000664535
0.000393276
0.000193535
9.33002e-05
9.52695e-05
0.00666976
0.0066737
0.00667437
0.00667851
0.00668086
0.00668504
0.00668834
0.00669267
0.00669664
0.00670128
0.00670584
0.00667234
0.0066691
0.00667769
0.00667685
0.00669785
0.00670901
0.00672959
0.0067649
0.00681192
0.00687369
0.0069501
0.00704524
0.00715325
0.00727309
0.00739341
0.00750678
0.00759328
0.00762895
0.00757807
0.00741403
0.00706535
0.00647665
0.00572113
0.0048465
0.00392554
0.00302999
0.00222243
0.00155313
0.00104322
0.000667599
0.000390465
0.000190761
9.30743e-05
9.57121e-05
0.00667222
0.00666984
0.00667369
0.00667453
0.00667857
0.006681
0.00668512
0.00668845
0.00669273
0.00669671
0.00670131
0.00670586
0.00666914
0.00667758
0.0066768
0.0066978
0.00670904
0.00672981
0.00676554
0.00681349
0.00687688
0.00695626
0.00705669
0.0071729
0.00730676
0.00744654
0.00758703
0.00771354
0.00780984
0.00784893
0.00781938
0.00767388
0.00730199
0.00667721
0.005896
0.00499282
0.0040399
0.00311243
0.00227671
0.00158442
0.00105724
0.000671049
0.000388099
0.000188379
9.29215e-05
9.61219e-05
0.00666919
0.00667208
0.00666997
0.00667369
0.0066747
0.00667863
0.00668116
0.00668519
0.00668857
0.00669279
0.00669679
0.00670134
0.00670588
0.00667746
0.00667675
0.00669778
0.00670908
0.00673001
0.0067661
0.00681489
0.00687968
0.00696175
0.00706674
0.00718999
0.00733582
0.0074928
0.00765685
0.00781305
0.00795251
0.00805437
0.00811991
0.00811483
0.00795289
0.00755428
0.00688864
0.00607172
0.00513911
0.00415376
0.00319437
0.00233049
0.00161528
0.00107116
0.000674794
0.000386213
0.000186235
9.28208e-05
9.6509e-05
0.00667733
0.0066692
0.00667191
0.00667011
0.00667369
0.00667488
0.00667869
0.00668132
0.00668527
0.00668869
0.00669286
0.00669686
0.00670136
0.0067059
0.0066767
0.0066978
0.00670912
0.0067302
0.0067666
0.00681615
0.00688218
0.00696673
0.00707573
0.00720543
0.00736202
0.00753404
0.00772069
0.00790445
0.00807733
0.00822463
0.00835829
0.00845483
0.00843532
0.00824827
0.00781499
0.00710676
0.00624589
0.00528263
0.00426574
0.00327512
0.00238337
0.00164559
0.00108459
0.000678459
0.000384679
0.000184395
9.27691e-05
9.6866e-05
0.00667666
0.00667702
0.00666912
0.00667175
0.00667026
0.00667369
0.00667507
0.00667876
0.00668148
0.00668535
0.00668881
0.00669292
0.00669694
0.00670139
0.00670592
0.00669787
0.00670917
0.00673035
0.00676704
0.00681728
0.00688444
0.00697127
0.00708386
0.00721965
0.00738609
0.00757181
0.00777972
0.00799183
0.00819753
0.00838094
0.00856652
0.00873868
0.00882239
0.00877791
0.00855671
0.00808152
0.00732889
0.00642059
0.00542234
0.00437497
0.00335401
0.00243503
0.00167514
0.00109787
0.000682039
0.000383435
0.000182705
9.27438e-05
9.7204e-05
0.00669799
0.00667617
0.00667652
0.00666908
0.00667157
0.00667044
0.00667369
0.00667528
0.00667883
0.00668165
0.00668543
0.00668894
0.00669299
0.00669701
0.00670142
0.00670594
0.00670918
0.00673048
0.00676741
0.0068183
0.00688649
0.00697543
0.00709125
0.00723282
0.00740828
0.00760697
0.00783545
0.00807482
0.00831595
0.0085376
0.00876799
0.00900135
0.00916235
0.00922067
0.00914
0.00887554
0.00835163
0.00755103
0.00659551
0.00555797
0.0044808
0.00343063
0.0024852
0.0017038
0.00111087
0.000685543
0.000382416
0.000181257
9.2753e-05
9.75142e-05
0.00670915
0.00669745
0.00667526
0.00667598
0.00666909
0.00667138
0.00667065
0.00667368
0.00667549
0.0066789
0.00668183
0.00668552
0.00668906
0.00669306
0.00669708
0.00670145
0.00670596
0.00673057
0.00676773
0.00681922
0.00688836
0.00697923
0.00709801
0.00724502
0.00742871
0.00764
0.00788846
0.00815384
0.00843025
0.00869788
0.0089799
0.00926932
0.00949432
0.00963021
0.00964958
0.00952053
0.00920301
0.00862342
0.00777083
0.00676863
0.00568942
0.00458295
0.00350458
0.00253368
0.0017315
0.00112344
0.000688942
0.000381569
0.0001799
9.27732e-05
9.78085e-05
0.00673066
0.00670811
0.00669603
0.00667459
0.00667535
0.00666917
0.00667117
0.00667087
0.00667368
0.0066757
0.00667898
0.006682
0.00668561
0.00668919
0.00669313
0.00669715
0.00670148
0.00670597
0.00676801
0.00682007
0.00689009
0.0069827
0.00710419
0.00725629
0.00744752
0.0076711
0.00793862
0.008229
0.0085414
0.00885911
0.00920461
0.00956202
0.00985045
0.0100548
0.0101499
0.0101133
0.00992051
0.00953837
0.00889557
0.00798725
0.00693844
0.00581591
0.00468065
0.00357551
0.00258028
0.00175816
0.00113558
0.00069225
0.000380862
0.000178743
9.28185e-05
9.80773e-05
0.00676827
0.0067291
0.00670598
0.00669429
0.00667419
0.00667463
0.00666933
0.00667095
0.00667111
0.00667369
0.00667592
0.00667907
0.00668217
0.00668571
0.0066893
0.0066932
0.00669721
0.00670151
0.00670598
0.00682086
0.00689167
0.00698587
0.00710986
0.00726665
0.00746485
0.00770034
0.00798567
0.0083005
0.00865049
0.00902108
0.00943172
0.00988018
0.0102626
0.0105458
0.0107105
0.010738
0.0106193
0.0103423
0.00988158
0.00916723
0.0081995
0.00710408
0.00593834
0.00477352
0.00364322
0.00262491
0.00178372
0.00114725
0.00069543
0.000380294
0.00017764
9.28655e-05
9.83331e-05
0.00682163
0.00676568
0.00672581
0.00670381
0.00669226
0.0066741
0.0066738
0.00666955
0.00667073
0.00667136
0.00667372
0.00667613
0.00667918
0.00668234
0.00668581
0.00668941
0.00669327
0.00669727
0.00670154
0.006706
0.00689313
0.00698875
0.00711505
0.00727616
0.00748082
0.00772767
0.00802952
0.00836875
0.0087575
0.00918128
0.00965583
0.0102172
0.0107551
0.0111724
0.0114185
0.011496
0.0114105
0.0111737
0.0107874
0.0102325
0.00943777
0.00840705
0.00726434
0.00605711
0.00486178
0.00370763
0.00266748
0.00180814
0.00115842
0.000698507
0.000379794
0.000176703
9.29318e-05
9.85368e-05
0.00689451
0.00681836
0.00676002
0.00672261
0.00670175
0.00668974
0.00667427
0.0066729
0.0066698
0.00667052
0.0066716
0.00667377
0.00667634
0.00667929
0.00668249
0.00668592
0.00668951
0.00669334
0.00669733
0.00670157
0.00670601
0.00699138
0.00711978
0.00728485
0.00749551
0.00775306
0.00807029
0.00843399
0.00886121
0.00933646
0.00987768
0.0105876
0.0113454
0.0119924
0.0123803
0.0125045
0.0124219
0.0121685
0.0117755
0.0112546
0.0105902
0.00970655
0.00860945
0.00741853
0.00617163
0.00494558
0.00376875
0.00270796
0.0018314
0.00116909
0.000701441
0.000379417
0.000175796
9.29835e-05
9.87077e-05
0.0069938
0.00688985
0.00681066
0.0067544
0.0067196
0.00670031
0.0066869
0.0066746
0.006672
0.00667006
0.00667036
0.00667183
0.00667384
0.00667653
0.00667942
0.00668263
0.00668602
0.00668961
0.0066934
0.00669738
0.0067016
0.00670602
0.0071241
0.00729276
0.00750899
0.0077765
0.00810813
0.00849611
0.00896007
0.00948525
0.010104
0.011009
0.0120456
0.0129845
0.0136177
0.0138503
0.0137596
0.0134546
0.0129916
0.0124137
0.011739
0.0109525
0.00997265
0.00880629
0.00756659
0.00628154
0.00502503
0.0038266
0.00274637
0.00185351
0.00117925
0.000704267
0.000379036
0.000175134
9.30447e-05
9.88913e-05
0.00712805
0.00698745
0.0068785
0.006803
0.00674899
0.00671672
0.00669924
0.00668396
0.00667498
0.00667117
0.00667028
0.00667025
0.00667202
0.00667395
0.0066767
0.00667955
0.00668277
0.00668613
0.00668971
0.00669347
0.00669743
0.00670163
0.00670603
0.00729995
0.00752133
0.00779805
0.00814324
0.00855475
0.00905305
0.00962864
0.0103422
0.0114838
0.0128278
0.0140685
0.014973
0.015431
0.0154235
0.0150769
0.0145289
0.0138434
0.0130702
0.0122321
0.0113159
0.0102349
0.00899721
0.00770849
0.00638662
0.00510026
0.00388126
0.0027827
0.00187448
0.0011889
0.000706944
0.000378813
0.000174539
9.31e-05
9.90906e-05
0.00730645
0.00711948
0.00697121
0.00686713
0.00679545
0.00674374
0.00671405
0.0066983
0.0066811
0.00667527
0.00667047
0.00667043
0.00667022
0.00667218
0.00667408
0.00667685
0.00667968
0.00668289
0.00668623
0.0066898
0.00669354
0.00669748
0.00670165
0.00670604
0.0075326
0.00781776
0.00817572
0.00860956
0.00913993
0.00976866
0.0105948
0.0119955
0.0136339
0.0151351
0.0162713
0.0169601
0.0171765
0.016928
0.0163456
0.0155759
0.014684
0.0137237
0.012724
0.0116765
0.010492
0.00918183
0.00784423
0.0064868
0.0051714
0.00393282
0.00281702
0.00189431
0.00119805
0.000709169
0.000378582
0.000173958
9.31851e-05
9.93056e-05
0.00754278
0.00729534
0.00709654
0.0069549
0.00685598
0.00678799
0.00673875
0.00671152
0.00669738
0.00667853
0.00667535
0.00666997
0.00667048
0.00667027
0.00667231
0.00667423
0.00667699
0.00667982
0.00668301
0.00668634
0.00668988
0.00669361
0.00669753
0.00670167
0.00670604
0.00783576
0.00820566
0.00866031
0.00922113
0.00990679
0.0108581
0.0125174
0.014405
0.0160958
0.0173924
0.0182569
0.0186922
0.0186921
0.018254
0.0174896
0.0165439
0.0154799
0.0143547
0.0132047
0.0120298
0.0107425
0.00935979
0.00797383
0.00658207
0.00523858
0.00398139
0.00284938
0.00191304
0.00120556
0.000711053
0.000378418
0.000173298
9.32637e-05
9.95397e-05
0.00785187
0.00752834
0.00726357
0.00707352
0.00693889
0.00684504
0.00678058
0.00673415
0.00670904
0.0066964
0.00667655
0.00667513
0.00666969
0.00667044
0.00667037
0.00667241
0.00667439
0.00667713
0.00667996
0.00668313
0.00668644
0.00668997
0.00669367
0.00669756
0.00670167
0.00670604
0.0082332
0.00870704
0.00929735
0.0100432
0.0111244
0.0130235
0.0151004
0.0169056
0.0182876
0.0192574
0.0198512
0.0200794
0.0199229
0.0193591
0.0184735
0.0174038
0.0162092
0.0149485
0.0136658
0.0123718
0.0109848
0.00953075
0.00809733
0.00667246
0.00530194
0.00402708
0.00287984
0.00192837
0.00121194
0.000713136
0.000378169
0.00017264
9.33792e-05
9.97921e-05
0.00825781
0.0078338
0.0074847
0.00723166
0.00705092
0.00692323
0.00683432
0.00677318
0.00672977
0.00670651
0.00669497
0.00667537
0.00667458
0.00666961
0.00667034
0.00667052
0.0066725
0.00667455
0.00667725
0.0066801
0.00668324
0.00668654
0.00669005
0.00669371
0.00669756
0.00670167
0.00670604
0.00874995
0.00936923
0.0101768
0.0113847
0.0134949
0.0157009
0.0175555
0.01896
0.019971
0.0206559
0.0210457
0.0211321
0.0208784
0.0202449
0.0192914
0.0181453
0.0168606
0.0154955
0.0141008
0.0126992
0.0112178
0.00969443
0.00821478
0.00675809
0.00536165
0.00407003
0.0029047
0.00194136
0.00121892
0.00071543
0.000378002
0.000171923
9.34889e-05
0.000100067
0.00878806
0.00823513
0.00777463
0.00744089
0.00720027
0.00702882
0.00690791
0.0068238
0.00676589
0.00672554
0.00670395
0.00669277
0.00667487
0.00667379
0.00666968
0.00667021
0.00667069
0.00667258
0.00667472
0.00667738
0.00668023
0.00668335
0.00668664
0.00669009
0.00669371
0.00669756
0.00670167
0.00670604
0.00943716
0.0103059
0.0116318
0.0139212
0.0162037
0.0180586
0.0194392
0.0204417
0.0211599
0.0216441
0.0219001
0.0219002
0.0215953
0.0209343
0.0199543
0.0187711
0.0174315
0.0159911
0.0145057
0.0130094
0.0114404
0.00985057
0.00832628
0.00683905
0.00541783
0.004105
0.00292571
0.00195554
0.00122657
0.000717965
0.000377714
0.000171172
9.36433e-05
0.000100362
0.00949883
0.00876004
0.00815502
0.00771517
0.00739777
0.00716955
0.00700722
0.00689295
0.00681359
0.00675873
0.0067215
0.00670145
0.0066899
0.00667484
0.00667292
0.00666982
0.00667009
0.00667086
0.00667267
0.00667487
0.0066775
0.00668036
0.00668345
0.00668669
0.00669008
0.00669371
0.00669756
0.00670167
0.00670604
0.0104287
0.0118646
0.014299
0.0166159
0.0184369
0.0197628
0.0207219
0.0214293
0.0219521
0.0223102
0.0224865
0.0224403
0.0221164
0.0214574
0.020481
0.0192906
0.0179247
0.0164345
0.0148784
0.0133009
0.0116518
0.00999904
0.00843191
0.0069155
0.00546379
0.00413447
0.0029486
0.00197104
0.00123496
0.000720775
0.000377528
0.000170401
9.3798e-05
0.000100683
0.010539
0.00946387
0.00865113
0.00807466
0.00765657
0.00735551
0.00713949
0.00698612
0.00687838
0.00680379
0.00675172
0.00671779
0.00669951
0.00668666
0.00667505
0.00667208
0.00666997
0.00666999
0.00667102
0.00667277
0.00667503
0.00667762
0.00668049
0.00668351
0.00668669
0.00669008
0.00669371
0.00669756
0.00670167
0.00670603
0.0120837
0.0146272
0.0169491
0.0187142
0.0199666
0.0208598
0.0215254
0.0220444
0.0224498
0.0227354
0.022869
0.0228032
0.0224817
0.0218443
0.0208923
0.0197165
0.0183463
0.0168273
0.0152185
0.0135727
0.0118516
0.0101398
0.00853181
0.00697801
0.00550278
0.0041665
0.00297356
0.00198799
0.00124416
0.00072386
0.000377247
0.000169538
9.40029e-05
0.000101028
0.010499
0.012279
0.00930563
0.00854346
0.00799529
0.00759908
0.00731411
0.0071101
0.00696555
0.00686429
0.00679447
0.00674509
0.00671433
0.00669817
0.0066835
0.00667527
0.00667134
0.00667009
0.00666994
0.00667116
0.00667287
0.00667517
0.00667774
0.00668056
0.0066835
0.0066867
0.00669008
0.00669371
0.00669756
0.00670165
0.00670602
0.0149067
0.0172158
0.0189124
0.0200813
0.0208955
0.0214986
0.0219829
0.0223932
0.0227349
0.0229837
0.0230983
0.0230301
0.0227251
0.0221219
0.0212081
0.020062
0.018704
0.017173
0.0155268
0.0138247
0.0120395
0.0102728
0.00861366
0.00703089
0.00554545
0.00420136
0.00300077
0.00200653
0.00125427
0.000727315
0.000377018
0.000168726
9.42247e-05
0.0001014
0.0102561
0.0122425
0.0151333
0.0091536
0.00843754
0.00791726
0.0075427
0.00727359
0.00708142
0.00694558
0.00685069
0.00678547
0.00673878
0.00671121
0.00669706
0.00668068
0.00667538
0.00667077
0.00667016
0.00666993
0.00667129
0.00667298
0.00667531
0.0066778
0.00668056
0.0066835
0.0066867
0.00669009
0.00669371
0.00669753
0.00670163
0.00670601
0.0174278
0.0190501
0.0201314
0.0208599
0.0213877
0.0218157
0.022199
0.0225544
0.0228674
0.0231017
0.0232125
0.0231535
0.0228742
0.0223133
0.0214461
0.0203398
0.0190057
0.0174756
0.0158048
0.0140571
0.0122155
0.0103815
0.00868303
0.00708859
0.00559218
0.00423932
0.00303046
0.00202683
0.00126538
0.000731036
0.000376767
0.000167737
9.44946e-05
0.000101797
0.0100179
0.0118935
0.0150682
0.0175856
0.00900855
0.00833307
0.00784068
0.00748746
0.00723401
0.00705351
0.00692623
0.00683756
0.00677676
0.00673296
0.00670843
0.00669603
0.00667838
0.00667527
0.00667038
0.00667017
0.00666997
0.0066714
0.00667311
0.00667538
0.0066778
0.00668056
0.0066835
0.0066867
0.00669009
0.00669367
0.00669748
0.0067016
0.006706
0.0191418
0.0201359
0.0207764
0.0212218
0.0215791
0.0219116
0.0222475
0.0225831
0.0228893
0.0231229
0.0232398
0.0231979
0.0229508
0.0224372
0.0216217
0.0205613
0.019259
0.0177395
0.0160545
0.0142707
0.0123581
0.0104736
0.00875885
0.00715161
0.00564338
0.00428068
0.00306286
0.00204906
0.00127759
0.000735323
0.00037646
0.000166863
9.48168e-05
0.000102226
0.00979475
0.0115171
0.014711
0.017489
0.0191899
0.00886821
0.00822999
0.00776563
0.00743341
0.00719545
0.00702643
0.00690752
0.00682494
0.00676852
0.00672785
0.00670586
0.0066949
0.00667687
0.00667493
0.00667016
0.00667012
0.00667004
0.0066715
0.00667317
0.00667538
0.0066778
0.00668056
0.00668351
0.00668669
0.00669005
0.00669361
0.00669743
0.00670157
0.00670598
0.0201085
0.0206624
0.0210223
0.0212998
0.0215647
0.0218547
0.0221785
0.0225164
0.022829
0.0230707
0.0232008
0.0231824
0.0229724
0.0225089
0.0217476
0.0207364
0.019471
0.0179691
0.0162782
0.0144403
0.012478
0.010574
0.00884179
0.00722049
0.00569949
0.00432581
0.00309823
0.00207342
0.00129102
0.000739928
0.000376264
0.000165792
9.51754e-05
0.000102678
0.00958573
0.0111474
0.0142692
0.0172599
0.0190393
0.0200494
0.00873093
0.00812856
0.00769224
0.00738068
0.007158
0.00700022
0.00688959
0.00681313
0.00676087
0.00672341
0.00670337
0.00669313
0.00667605
0.0066744
0.00667007
0.00667005
0.00667015
0.00667154
0.00667318
0.00667539
0.0066778
0.00668056
0.00668351
0.00668664
0.00668997
0.00669354
0.00669738
0.00670154
0.00670597
0.0205299
0.0208047
0.0209977
0.0211832
0.0214074
0.0216906
0.0220253
0.022379
0.0227059
0.0229616
0.0231108
0.0231216
0.0229524
0.0225406
0.0218343
0.0208736
0.019648
0.0181686
0.0164514
0.0145812
0.0126078
0.0106836
0.00893252
0.00729583
0.00576104
0.00437508
0.00313687
0.00210011
0.00130582
0.000745118
0.000375904
0.000164816
9.56412e-05
0.000103164
0.00938773
0.010797
0.0137825
0.0169414
0.018883
0.0198428
0.0203743
0.0085962
0.00802908
0.00762069
0.00732941
0.00712175
0.00697511
0.00687287
0.00680231
0.0067537
0.00671943
0.00670111
0.00669082
0.00667571
0.00667375
0.00667008
0.00666997
0.00667023
0.00667151
0.00667318
0.00667539
0.00667781
0.00668056
0.00668346
0.00668655
0.00668988
0.00669347
0.00669733
0.00670151
0.00670595
0.0205795
0.0206871
0.0207861
0.0209297
0.0211489
0.0214495
0.0218097
0.0221868
0.0225326
0.0228073
0.0229817
0.0230268
0.0229015
0.0225421
0.0218901
0.0209799
0.0197955
0.0183183
0.0165932
0.0147315
0.012748
0.010803
0.0090318
0.00737829
0.00582858
0.00442893
0.00317911
0.0021294
0.00132212
0.000750788
0.000375708
0.000163676
9.61295e-05
0.000103668
0.00919831
0.0104698
0.013272
0.0165604
0.018655
0.0197191
0.0201117
0.0203364
0.00846411
0.00793187
0.00755115
0.00727974
0.00708704
0.00695175
0.00685763
0.00679246
0.00674706
0.00671599
0.00669929
0.00668818
0.00667565
0.00667305
0.00667017
0.00666985
0.00667027
0.0066715
0.00667319
0.00667539
0.00667781
0.0066805
0.00668336
0.00668645
0.0066898
0.0066934
0.00669727
0.00670148
0.00670593
0.0203775
0.0203872
0.0204403
0.0205773
0.0208172
0.0211516
0.0215455
0.0219497
0.0223179
0.0226169
0.0228225
0.022907
0.0228281
0.0225209
0.021922
0.0210612
0.0199009
0.0184388
0.0167418
0.0148913
0.0128992
0.010933
0.00914045
0.0074686
0.00590273
0.00448785
0.0032253
0.00216152
0.00134005
0.000757178
0.000375331
0.000162591
9.67993e-05
0.000104302
0.00901599
0.0101659
0.0127483
0.0161295
0.0183827
0.0195373
0.0199894
0.0200173
0.0200526
0.00833503
0.00783729
0.00748385
0.00723217
0.00705478
0.00693047
0.00684375
0.00678361
0.00674102
0.00671295
0.00669802
0.00668555
0.00667573
0.00667239
0.00667033
0.00666974
0.0066703
0.00667151
0.00667319
0.00667539
0.00667776
0.00668037
0.00668325
0.00668634
0.00668971
0.00669333
0.00669721
0.00670146
0.00670591
0.0199959
0.0199536
0.0199953
0.0201525
0.0204318
0.0208096
0.0212407
0.0216736
0.0220677
0.0223971
0.0226407
0.0227694
0.0227389
0.0224831
0.0219354
0.0211127
0.0199839
0.0185622
0.0168967
0.0150606
0.0130619
0.0110745
0.00925931
0.00756756
0.00598419
0.00455239
0.00327586
0.00219676
0.00135988
0.000764074
0.000375125
0.000161419
9.76117e-05
0.000105031
0.00884
0.00988558
0.0122207
0.0156495
0.0180789
0.0193267
0.0198178
0.0198766
0.0196759
0.0195976
0.00820921
0.00774577
0.0074194
0.00718798
0.00702542
0.00691111
0.00683117
0.00677565
0.00673554
0.00671022
0.00669695
0.00668313
0.00667588
0.00667185
0.00667049
0.00666969
0.0066703
0.00667152
0.0066732
0.00667533
0.00667764
0.00668025
0.00668314
0.00668624
0.00668961
0.00669326
0.00669714
0.00670143
0.00670589
0.0194792
0.0194184
0.019476
0.0196749
0.0200047
0.0204301
0.0208986
0.0213615
0.0217867
0.0221541
0.0224426
0.0226198
0.0226388
0.0224334
0.0219328
0.0211512
0.0200659
0.0186877
0.0170572
0.015239
0.0132363
0.011228
0.00938926
0.00767603
0.00607372
0.00462315
0.00333124
0.00223549
0.00138161
0.000771927
0.000374739