# y+ ()       
# Time        	patch         	min           	max           	average       
0             	splitter	7.510327e+00	9.419490e+00	7.782308e+00
0             	back	5.144482e+00	6.647994e+00	5.217431e+00
0             	sides	7.320244e+00	7.322185e+00	7.321214e+00
0.01          	splitter	2.281283e+01	3.892473e+01	2.566182e+01
0.01          	back	5.237817e+00	1.171649e+01	9.553355e+00
0.01          	sides	6.359390e+00	1.012378e+01	8.309074e+00
0.02          	splitter	2.271024e+01	3.868140e+01	2.547507e+01
0.02          	back	7.955790e+00	1.153727e+01	1.050659e+01
0.02          	sides	6.284693e+00	2.023476e+01	1.044164e+01
0.03          	splitter	2.264083e+01	3.856892e+01	2.538579e+01
0.03          	back	6.763975e+00	1.153290e+01	9.695895e+00
0.03          	sides	6.230883e+00	2.109340e+01	1.122919e+01
0.04          	splitter	2.268658e+01	3.863442e+01	2.544413e+01
0.04          	back	5.677488e+00	1.045382e+01	8.445449e+00
0.04          	sides	6.194262e+00	2.110152e+01	1.171783e+01
0.05          	splitter	2.257010e+01	3.837517e+01	2.530714e+01
0.05          	back	4.939090e+00	9.477527e+00	7.528507e+00
0.05          	sides	6.172534e+00	2.101571e+01	1.191149e+01
0.06          	splitter	2.244857e+01	3.817051e+01	2.517154e+01
0.06          	back	4.421406e+00	8.823629e+00	6.876513e+00
0.06          	sides	6.157457e+00	2.087224e+01	1.200113e+01
0.07          	splitter	2.236287e+01	3.802182e+01	2.507473e+01
0.07          	back	4.041632e+00	8.355482e+00	6.398734e+00
0.07          	sides	6.145909e+00	2.080458e+01	1.199205e+01
0.08          	splitter	2.230490e+01	3.792727e+01	2.501060e+01
0.08          	back	3.766473e+00	8.018439e+00	6.053520e+00
0.08          	sides	6.138443e+00	2.076463e+01	1.194740e+01
0.09          	splitter	2.226731e+01	3.786201e+01	2.496804e+01
0.09          	back	3.570387e+00	7.782319e+00	5.806059e+00
0.09          	sides	6.131894e+00	2.073522e+01	1.192379e+01
0.1           	splitter	2.223763e+01	3.781106e+01	2.493472e+01
0.1           	back	3.456805e+00	7.642759e+00	5.663211e+00
0.1           	sides	6.127012e+00	2.071102e+01	1.191199e+01
0.11          	splitter	2.221617e+01	3.777383e+01	2.491053e+01
0.11          	back	3.389189e+00	7.548004e+00	5.570363e+00
0.11          	sides	6.123438e+00	2.069475e+01	1.190432e+01
0.12          	splitter	2.219903e+01	3.774424e+01	2.489143e+01
0.12          	back	3.325709e+00	7.458950e+00	5.483551e+00
0.12          	sides	6.120628e+00	2.068264e+01	1.189811e+01
0.13          	splitter	2.218531e+01	3.772123e+01	2.487605e+01
0.13          	back	3.270357e+00	7.383895e+00	5.409821e+00
0.13          	sides	6.118265e+00	2.066539e+01	1.189253e+01
0.14          	splitter	2.217359e+01	3.770128e+01	2.486285e+01
0.14          	back	3.205767e+00	7.297547e+00	5.323106e+00
0.14          	sides	6.116504e+00	2.066361e+01	1.188841e+01
0.15          	splitter	2.216497e+01	3.768761e+01	2.485346e+01
0.15          	back	3.137607e+00	7.216779e+00	5.240259e+00
0.15          	sides	6.115070e+00	2.065158e+01	1.188448e+01
0.16          	splitter	2.215886e+01	3.767609e+01	2.484607e+01
0.16          	back	3.073953e+00	7.144830e+00	5.161610e+00
0.16          	sides	6.114096e+00	2.065059e+01	1.188118e+01
0.17          	splitter	2.215390e+01	3.766900e+01	2.484126e+01
0.17          	back	3.018400e+00	7.076583e+00	5.095229e+00
0.17          	sides	6.113310e+00	2.063987e+01	1.187908e+01
0.18          	splitter	2.215120e+01	3.766266e+01	2.483729e+01
0.18          	back	2.975063e+00	7.031017e+00	5.042455e+00
0.18          	sides	6.112687e+00	2.064144e+01	1.187749e+01
0.19          	splitter	2.214746e+01	3.765799e+01	2.483405e+01
0.19          	back	2.940123e+00	6.986370e+00	5.000202e+00
0.19          	sides	6.112267e+00	2.065844e+01	1.187641e+01
0.2           	splitter	2.214650e+01	3.765634e+01	2.483242e+01
0.2           	back	2.913527e+00	6.954195e+00	4.967560e+00
0.2           	sides	6.111924e+00	2.066687e+01	1.187571e+01
0.21          	splitter	2.214507e+01	3.765428e+01	2.483079e+01
0.21          	back	2.892631e+00	6.936031e+00	4.941534e+00
0.21          	sides	6.111753e+00	2.068272e+01	1.187507e+01
0.22          	splitter	2.214263e+01	3.765279e+01	2.482950e+01
0.22          	back	2.874747e+00	6.913192e+00	4.921014e+00
0.22          	sides	6.111685e+00	2.067630e+01	1.187430e+01
0.23          	splitter	2.214143e+01	3.765025e+01	2.482809e+01
0.23          	back	2.861472e+00	6.908433e+00	4.904809e+00
0.23          	sides	6.111580e+00	2.065870e+01	1.187311e+01
0.24          	splitter	2.213854e+01	3.764701e+01	2.482672e+01
0.24          	back	2.850166e+00	6.892786e+00	4.892715e+00
0.24          	sides	6.111547e+00	2.063394e+01	1.187130e+01
0.25          	splitter	2.213761e+01	3.764077e+01	2.482460e+01
0.25          	back	2.843914e+00	6.888397e+00	4.884982e+00
0.25          	sides	6.111326e+00	2.069172e+01	1.186776e+01
0.26          	splitter	2.213775e+01	3.764388e+01	2.482519e+01
0.26          	back	2.841297e+00	6.868182e+00	4.882853e+00
0.26          	sides	6.110786e+00	2.076827e+01	1.186284e+01
0.27          	splitter	2.214482e+01	3.765799e+01	2.483177e+01
0.27          	back	2.840860e+00	6.889089e+00	4.889114e+00
0.27          	sides	6.110234e+00	2.080928e+01	1.185616e+01
0.28          	splitter	2.214281e+01	3.765633e+01	2.483080e+01
0.28          	back	2.846447e+00	6.950126e+00	4.909496e+00
0.28          	sides	6.110105e+00	2.078634e+01	1.184394e+01
0.29          	splitter	2.213728e+01	3.765465e+01	2.483019e+01
0.29          	back	2.863598e+00	7.032774e+00	4.953599e+00
0.29          	sides	6.109532e+00	2.064899e+01	1.182746e+01
0.3           	splitter	2.213781e+01	3.766560e+01	2.483704e+01
0.3           	back	2.906573e+00	7.165800e+00	5.038288e+00
0.3           	sides	6.108136e+00	2.039015e+01	1.180953e+01
0.31          	splitter	2.213999e+01	3.767688e+01	2.484817e+01
0.31          	back	2.994200e+00	7.342487e+00	5.195485e+00
0.31          	sides	6.107556e+00	2.043207e+01	1.178821e+01
0.32          	splitter	2.213769e+01	3.765577e+01	2.484505e+01
0.32          	back	3.162373e+00	7.584745e+00	5.464834e+00
0.32          	sides	6.107175e+00	2.064188e+01	1.175784e+01
0.33          	splitter	2.214295e+01	3.767371e+01	2.484848e+01
0.33          	back	3.446283e+00	8.019132e+00	5.887165e+00
0.33          	sides	6.106101e+00	2.077424e+01	1.172414e+01
0.34          	splitter	2.215649e+01	3.770389e+01	2.485742e+01
0.34          	back	3.799505e+00	8.838448e+00	6.457605e+00
0.34          	sides	6.106344e+00	2.072645e+01	1.169769e+01
0.35          	splitter	2.212965e+01	3.767183e+01	2.484027e+01
0.35          	back	4.233687e+00	9.766005e+00	7.104939e+00
0.35          	sides	6.109097e+00	2.047335e+01	1.167459e+01
0.36          	splitter	2.209152e+01	3.758822e+01	2.480290e+01
0.36          	back	4.686951e+00	1.057231e+01	7.731871e+00
0.36          	sides	6.111170e+00	1.997623e+01	1.165605e+01
0.37          	splitter	2.209731e+01	3.758372e+01	2.480815e+01
0.37          	back	5.114381e+00	1.100609e+01	8.263303e+00
0.37          	sides	6.108541e+00	2.041076e+01	1.165772e+01
0.38          	splitter	2.214466e+01	3.768284e+01	2.486346e+01
0.38          	back	5.492538e+00	1.101624e+01	8.691133e+00
0.38          	sides	6.106781e+00	2.076549e+01	1.167152e+01
0.39          	splitter	2.216557e+01	3.770551e+01	2.486917e+01
0.39          	back	5.768238e+00	1.147210e+01	9.029734e+00
0.39          	sides	6.108194e+00	2.082365e+01	1.166440e+01
0.4           	splitter	2.216479e+01	3.774758e+01	2.488067e+01
0.4           	back	5.924534e+00	1.151908e+01	9.189165e+00
0.4           	sides	6.108937e+00	2.062295e+01	1.165656e+01
0.41          	splitter	2.212472e+01	3.769632e+01	2.485579e+01
0.41          	back	6.079684e+00	1.152464e+01	9.332794e+00
0.41          	sides	6.113807e+00	2.012609e+01	1.164936e+01
0.42          	splitter	2.208822e+01	3.756785e+01	2.480393e+01
0.42          	back	6.217395e+00	1.157459e+01	9.460349e+00
0.42          	sides	6.115359e+00	2.031645e+01	1.164130e+01
0.43          	splitter	2.213460e+01	3.765424e+01	2.484831e+01
0.43          	back	6.319611e+00	1.155290e+01	9.610364e+00
0.43          	sides	6.109822e+00	2.076955e+01	1.166283e+01
0.44          	splitter	2.218193e+01	3.773107e+01	2.488689e+01
0.44          	back	6.352137e+00	1.154041e+01	9.616745e+00
0.44          	sides	6.110123e+00	2.085703e+01	1.167252e+01
0.45          	splitter	2.217612e+01	3.776555e+01	2.489388e+01
0.45          	back	6.319552e+00	1.150895e+01	9.571445e+00
0.45          	sides	6.110251e+00	2.062447e+01	1.166166e+01
0.46          	splitter	2.213685e+01	3.772610e+01	2.487206e+01
0.46          	back	6.342775e+00	1.155557e+01	9.590189e+00
0.46          	sides	6.114648e+00	2.012117e+01	1.165495e+01
0.47          	splitter	2.209232e+01	3.757466e+01	2.480931e+01
0.47          	back	6.381617e+00	1.159473e+01	9.641788e+00
0.47          	sides	6.116832e+00	2.037640e+01	1.164394e+01
0.48          	splitter	2.213954e+01	3.766111e+01	2.485215e+01
0.48          	back	6.416318e+00	1.154973e+01	9.675347e+00
0.48          	sides	6.110555e+00	2.079831e+01	1.166596e+01
0.49          	splitter	2.218808e+01	3.773966e+01	2.489181e+01
0.49          	back	6.392964e+00	1.153264e+01	9.652559e+00
0.49          	sides	6.110604e+00	2.084893e+01	1.167587e+01
0.5           	splitter	2.217768e+01	3.777274e+01	2.489782e+01
0.5           	back	6.339509e+00	1.154080e+01	9.593473e+00
0.5           	sides	6.110654e+00	2.059639e+01	1.166426e+01
