/*--------------------------------*- C++ -*----------------------------------*\
  =========                 |
  \\      /  F ield         | OpenFOAM: The Open Source CFD Toolbox
   \\    /   O peration     | Website:  https://openfoam.org
    \\  /    A nd           | Version:  8
     \\/     M anipulation  |
\*---------------------------------------------------------------------------*/
FoamFile
{
    version     2.0;
    format      ascii;
    class       surfaceScalarField;
    location    "0.25";
    object      phi;
}
// * * * * * * * * * * * * * * * * * * * * * * * * * * * * * * * * * * * * * //

dimensions      [0 3 -1 0 0 0 0];

internalField   nonuniform List<scalar> 
31053
(
6.40145e-07
1.27399e-05
8.63161e-07
1.5157e-05
3.57383e-07
1.23825e-05
9.488e-07
1.75544e-05
5.67566e-07
1.49468e-05
2.75239e-07
1.21072e-05
9.73476e-07
2.02153e-05
6.82326e-07
1.74396e-05
4.71111e-07
1.47509e-05
2.16688e-07
1.18905e-05
9.64858e-07
2.32486e-05
7.41077e-07
2.01566e-05
5.97073e-07
1.73136e-05
3.97001e-07
1.45706e-05
1.72251e-07
1.17183e-05
9.34929e-07
2.66899e-05
7.66168e-07
2.32235e-05
6.72256e-07
2.00814e-05
5.24391e-07
1.71862e-05
3.32875e-07
1.441e-05
1.37928e-07
1.15804e-05
8.89493e-07
3.06654e-05
7.69384e-07
2.66867e-05
7.14379e-07
2.31814e-05
6.0546e-07
2.00003e-05
4.55071e-07
1.70641e-05
2.78661e-07
1.42693e-05
1.10878e-07
1.14695e-05
8.3164e-07
3.51979e-05
7.57179e-07
3.06776e-05
7.34339e-07
2.66668e-05
6.53744e-07
2.31331e-05
5.36149e-07
1.99192e-05
3.91769e-07
1.69509e-05
2.31679e-07
1.41485e-05
8.84071e-08
1.13811e-05
7.65157e-07
4.03865e-05
7.33736e-07
3.52213e-05
7.38588e-07
3.06734e-05
6.79308e-07
2.66412e-05
5.85195e-07
2.30841e-05
4.69138e-07
1.98419e-05
3.33026e-07
1.68496e-05
1.89568e-07
1.40473e-05
6.87044e-08
1.13124e-05
6.92633e-07
4.63525e-05
7.00206e-07
4.042e-05
7.31003e-07
3.52289e-05
6.88151e-07
3.06645e-05
6.11223e-07
2.66152e-05
5.15664e-07
2.30376e-05
4.03654e-07
1.97712e-05
2.77195e-07
1.6762e-05
1.50548e-07
1.39655e-05
5.06228e-08
1.12618e-05
6.15911e-07
5.32167e-05
6.58113e-07
4.63946e-05
7.11923e-07
4.04391e-05
6.83204e-07
3.52338e-05
6.20145e-07
3.06556e-05
5.38982e-07
2.65918e-05
4.44903e-07
2.29963e-05
3.38574e-07
1.97099e-05
2.22901e-07
1.66896e-05
1.13323e-07
1.39028e-05
3.33811e-08
1.12284e-05
5.36953e-07
6.1059e-05
6.09261e-07
5.32656e-05
6.81794e-07
4.64247e-05
6.67348e-07
4.04549e-05
6.15342e-07
3.52386e-05
5.44852e-07
3.06498e-05
4.62854e-07
2.65739e-05
3.72158e-07
2.29627e-05
2.72777e-07
1.966e-05
1.69041e-07
1.66339e-05
7.69484e-08
1.38592e-05
1.64694e-08
1.12119e-05
4.57615e-07
7.00613e-05
5.55218e-07
6.1113e-05
6.41713e-07
5.33057e-05
6.41551e-07
4.64505e-05
5.99053e-07
4.04712e-05
5.36733e-07
3.52468e-05
4.62872e-07
3.06497e-05
3.82375e-07
2.65637e-05
2.96375e-07
2.29391e-05
2.05253e-07
1.96238e-05
1.14811e-07
1.6596e-05
4.07292e-08
1.38349e-05
-2.84586e-10
1.12122e-05
3.7959e-07
8.041e-05
4.974e-07
7.01192e-05
5.92921e-07
6.11618e-05
6.05872e-07
5.33413e-05
5.72386e-07
4.64772e-05
5.1659e-07
4.04914e-05
4.48327e-07
3.52613e-05
3.7401e-07
3.06581e-05
2.96507e-07
2.65635e-05
2.16544e-07
2.29278e-05
1.35312e-07
1.96033e-05
5.95894e-08
1.65772e-05
4.29112e-09
1.38304e-05
-1.71139e-08
1.12293e-05
3.16763e-07
7.62528e-05
4.37105e-07
8.04703e-05
5.36857e-07
7.01752e-05
5.60628e-07
6.1207e-05
5.35613e-07
5.33781e-05
4.85414e-07
4.65084e-05
4.21069e-07
4.05186e-05
3.50252e-07
3.52851e-05
2.77255e-07
3.06774e-05
2.04201e-07
2.65759e-05
1.31982e-07
2.29312e-05
6.24241e-08
1.96004e-05
3.03033e-09
1.65784e-05
-3.25821e-08
1.38458e-05
-3.42104e-08
1.12635e-05
2.63459e-07
7.62433e-05
3.8544e-07
7.63045e-05
4.75181e-07
8.0532e-05
5.06534e-07
7.02293e-05
4.8883e-07
6.12538e-05
4.43545e-07
5.342e-05
3.81967e-07
4.65475e-05
3.12832e-07
4.05561e-05
2.41535e-07
3.53208e-05
1.71512e-07
3.071e-05
1.04725e-07
2.66031e-05
4.21689e-08
2.29514e-05
-1.36337e-08
1.96171e-05
-5.49961e-08
1.66009e-05
-7.00497e-08
1.38817e-05
-5.15434e-08
1.13151e-05
2.18443e-07
7.6235e-05
3.38741e-07
7.629e-05
4.2058e-07
7.63591e-05
4.44799e-07
8.05937e-05
4.32345e-07
7.02858e-05
3.91062e-07
6.13063e-05
3.31309e-07
5.34706e-05
2.62492e-07
4.65978e-05
1.9091e-07
4.06067e-05
1.21037e-07
3.53712e-05
5.59864e-08
3.07588e-05
-2.44565e-09
2.66478e-05
-5.30289e-08
2.29908e-05
-9.28337e-08
1.96549e-05
-1.14455e-07
1.66453e-05
-1.0801e-07
1.39381e-05
-6.89506e-08
1.1384e-05
1.8062e-07
7.62298e-05
2.96605e-07
7.62772e-05
3.69936e-07
7.63406e-05
3.88517e-07
7.64154e-05
3.67012e-07
8.06591e-05
3.28114e-07
7.03487e-05
2.69164e-07
6.13684e-05
1.99415e-07
5.35337e-05
1.25967e-07
4.66628e-05
5.41078e-08
4.06736e-05
-1.21129e-08
3.54393e-05
-6.9868e-08
3.08262e-05
-1.17407e-07
2.67121e-05
-1.53436e-07
2.30514e-05
-1.74896e-07
1.97154e-05
-1.75042e-07
1.67123e-05
-1.46186e-07
1.40154e-05
-8.62977e-08
1.14703e-05
1.49023e-07
7.62216e-05
2.58655e-07
7.62678e-05
3.232e-07
7.63239e-05
3.35305e-07
7.63939e-05
3.06812e-07
7.64756e-05
2.55358e-07
8.07318e-05
1.9565e-07
7.04223e-05
1.2363e-07
6.14442e-05
4.67537e-08
5.36129e-05
-2.88939e-08
4.67458e-05
-9.85441e-08
4.076e-05
-1.58484e-07
3.5528e-05
-2.06119e-07
3.09149e-05
-2.3985e-07
2.67985e-05
-2.58537e-07
2.31351e-05
-2.59227e-07
1.97996e-05
-2.3624e-07
1.68023e-05
-1.84211e-07
1.41133e-05
-1.03324e-07
1.15736e-05
1.2282e-07
7.62162e-05
2.24544e-07
7.62557e-05
2.80252e-07
7.63107e-05
2.85556e-07
7.63736e-05
2.49556e-07
7.64511e-05
1.88243e-07
7.65427e-05
1.11395e-07
8.08161e-05
3.52655e-08
7.05106e-05
-4.67642e-08
6.15377e-05
-1.28089e-07
5.37121e-05
-2.0318e-07
4.68504e-05
-2.67635e-07
4.08692e-05
-3.18117e-07
3.564e-05
-3.52301e-07
3.10274e-05
-3.69044e-07
2.69091e-05
-3.67435e-07
2.32433e-05
-3.44941e-07
1.99083e-05
-2.97385e-07
1.69155e-05
-2.21603e-07
1.42316e-05
-1.19843e-07
1.16935e-05
1.01201e-07
7.62116e-05
1.93929e-07
7.62468e-05
2.4096e-07
7.6295e-05
2.39447e-07
7.63568e-05
1.95935e-07
7.64273e-05
1.24426e-07
7.65149e-05
3.40392e-08
7.662e-05
-6.49627e-08
8.09163e-05
-1.54439e-07
7.06183e-05
-2.43595e-07
6.16533e-05
-3.26355e-07
5.38353e-05
-3.97508e-07
4.69803e-05
-4.53177e-07
4.10043e-05
-4.90374e-07
3.5778e-05
-5.07487e-07
3.11658e-05
-5.03784e-07
2.70454e-05
-4.78831e-07
2.33772e-05
-4.31008e-07
2.00419e-05
-3.57677e-07
1.70516e-05
-2.57849e-07
1.43696e-05
-1.35517e-07
1.1829e-05
8.47465e-08
6.95985e-05
1.66513e-07
7.6239e-05
2.05167e-07
7.62826e-05
1.9706e-07
7.63374e-05
1.46343e-07
7.64064e-05
6.48477e-08
7.64868e-05
-3.92109e-08
7.65882e-05
-1.56334e-07
7.67114e-05
-2.75395e-07
8.10373e-05
-3.75246e-07
7.075e-05
-4.68299e-07
6.17952e-05
-5.48701e-07
5.39865e-05
-6.1187e-07
4.7139e-05
-6.54354e-07
4.11682e-05
-6.74126e-07
3.59447e-05
-6.70153e-07
3.13322e-05
-6.42359e-07
2.72089e-05
-5.91277e-07
2.35374e-05
-5.16196e-07
2.02004e-05
-4.16228e-07
1.721e-05
-2.92331e-07
1.45264e-05
-1.50158e-07
1.19791e-05
7.21689e-08
6.25566e-05
1.44074e-07
6.96209e-05
1.72747e-07
7.62715e-05
1.58423e-07
7.63212e-05
1.01016e-07
7.63827e-05
1.01032e-08
7.64612e-05
-1.07207e-07
7.65548e-05
-2.42353e-07
7.66742e-05
-3.84886e-07
7.68209e-05
-5.2196e-07
8.1184e-05
-6.28834e-07
7.09105e-05
-7.21592e-07
6.19681e-05
-7.95113e-07
5.41697e-05
-8.4526e-07
4.73299e-05
-8.69822e-07
4.13639e-05
-8.67515e-07
3.6142e-05
-8.38158e-07
3.1528e-05
-7.82869e-07
2.74005e-05
-7.03034e-07
2.37243e-05
-5.99185e-07
2.03834e-05
-4.72061e-07
1.73897e-05
-3.24541e-07
1.47008e-05
-1.63294e-07
1.21424e-05
6.2381e-08
5.62278e-05
1.25889e-07
6.25748e-05
1.46007e-07
6.96476e-05
1.23547e-07
7.63063e-05
6.00983e-08
7.63622e-05
-3.94181e-08
7.64322e-05
-1.69157e-07
7.65231e-05
-3.21678e-07
7.66342e-05
-4.87363e-07
7.67767e-05
-6.53966e-07
7.69529e-05
-8.06639e-07
8.13618e-05
-9.16011e-07
7.11049e-05
-1.00348e-06
6.21765e-05
-1.0644e-06
5.43889e-05
-1.09611e-06
4.75562e-05
-1.09736e-06
4.15938e-05
-1.06793e-06
3.63718e-05
-1.00912e-06
3.17542e-05
-9.23042e-07
2.76205e-05
-8.12302e-07
2.39374e-05
-6.78535e-07
2.05898e-05
-5.24278e-07
1.75894e-05
-3.53519e-07
1.4891e-05
-1.74167e-07
1.23166e-05
5.46473e-08
5.05397e-05
1.11044e-07
5.62426e-05
1.24229e-07
6.25965e-05
9.49833e-08
6.96762e-05
2.36887e-08
7.63427e-05
-8.34579e-08
7.64062e-05
-2.24509e-07
7.64876e-05
-3.93318e-07
7.65948e-05
-5.81282e-07
7.67281e-05
-7.76897e-07
7.68996e-05
-9.65873e-07
7.71121e-05
-1.13038e-06
8.15761e-05
-1.23684e-06
7.13383e-05
-1.31258e-06
6.24246e-05
-1.35476e-06
5.46475e-05
-1.36182e-06
4.78206e-05
-1.33386e-06
4.18597e-05
-1.2725e-06
3.66352e-05
-1.18023e-06
3.20114e-05
-1.06056e-06
2.78688e-05
-9.17092e-07
2.41759e-05
-7.52922e-07
2.08185e-05
-5.71485e-07
1.78074e-05
-3.78616e-07
1.50954e-05
-1.82746e-07
1.24994e-05
4.84557e-08
4.54262e-05
9.88359e-08
5.05519e-05
1.06408e-07
5.62605e-05
7.19708e-08
6.26196e-05
-5.57756e-09
6.97055e-05
-1.2184e-07
7.63811e-05
-2.72883e-07
7.64546e-05
-4.56546e-07
7.65508e-05
-6.65441e-07
7.66789e-05
-8.88982e-07
7.68402e-05
-1.11359e-06
7.70473e-05
-1.32173e-06
7.73035e-05
-1.49337e-06
8.18327e-05
-1.58977e-06
7.16155e-05
-1.64688e-06
6.27168e-05
-1.66317e-06
5.49489e-05
-1.63873e-06
4.81255e-05
-1.57592e-06
4.21631e-05
-1.47781e-06
3.69328e-05
-1.34858e-06
3.22994e-05
-1.19282e-06
2.81445e-05
-1.01559e-06
2.44386e-05
-8.20494e-07
2.10675e-05
-6.12874e-07
1.80417e-05
-3.96337e-07
1.5309e-05
-1.50575e-07
1.26499e-05
4.34378e-08
4.0831e-05
8.87259e-08
4.54363e-05
9.17484e-08
5.05666e-05
5.3412e-08
5.6279e-05
-2.86241e-08
6.26426e-05
-1.51852e-07
6.97355e-05
-3.14014e-07
7.64223e-05
-5.10844e-07
7.65089e-05
-7.38916e-07
7.66243e-05
-9.88784e-07
7.67787e-05
-1.24775e-06
7.69743e-05
-1.49876e-06
7.72244e-05
-1.72185e-06
7.7532e-05
-1.8939e-06
8.21368e-05
-1.97259e-06
7.19412e-05
-2.00294e-06
6.30565e-05
-1.98544e-06
5.52956e-05
-1.92288e-06
4.84725e-05
-1.81946e-06
4.25048e-05
-1.6803e-06
3.72645e-05
-1.51091e-06
3.26175e-05
-1.31747e-06
2.84464e-05
-1.10548e-06
2.47236e-05
-8.7997e-07
2.13346e-05
-6.4344e-07
1.82888e-05
-3.91166e-07
1.55496e-05
-1.0176e-07
1.27517e-05
3.93229e-08
3.67001e-05
8.0313e-08
4.08394e-05
7.96295e-08
4.54484e-05
3.84286e-08
5.05816e-05
-4.67113e-08
5.62971e-05
-1.74684e-07
6.26654e-05
-3.45098e-07
6.97666e-05
-5.55839e-07
7.64672e-05
-8.01024e-07
7.6571e-05
-1.07516e-06
7.67107e-05
-1.36665e-06
7.68976e-05
-1.65914e-06
7.71347e-05
-1.93293e-06
7.74354e-05
-2.16451e-06
7.78026e-05
-2.32964e-06
8.24939e-05
-2.38148e-06
7.23197e-05
-2.37599e-06
6.34471e-05
-2.31695e-06
5.56896e-05
-2.20945e-06
4.88625e-05
-2.06022e-06
4.28847e-05
-1.87605e-06
3.76296e-05
-1.66431e-06
3.29644e-05
-1.4317e-06
2.87726e-05
-1.18492e-06
2.50285e-05
-9.26524e-07
2.16177e-05
-6.56181e-07
1.85538e-05
-3.67091e-07
1.58149e-05
-8.16668e-08
1.28334e-05
3.59121e-08
3.29894e-05
7.32893e-08
3.67071e-05
6.95792e-08
4.08495e-05
2.63157e-08
4.54605e-05
-6.08595e-08
5.05957e-05
-1.91853e-07
5.63143e-05
-3.67694e-07
6.2688e-05
-5.88587e-07
6.97993e-05
-8.51265e-07
7.65175e-05
-1.14722e-06
7.66431e-05
-1.46889e-06
7.68129e-05
-1.80086e-06
7.70393e-05
-2.12391e-06
7.73257e-05
-2.41438e-06
7.76853e-05
-2.64733e-06
7.81203e-05
-2.79644e-06
8.29088e-05
-2.811e-06
7.27547e-05
-2.76066e-06
6.38908e-05
-2.65207e-06
5.61323e-05
-2.49341e-06
4.92956e-05
-2.29355e-06
4.33022e-05
-2.06154e-06
3.80269e-05
-1.80548e-06
3.33381e-05
-1.5332e-06
2.91209e-05
-1.24965e-06
2.53517e-05
-9.55382e-07
2.19169e-05
-6.558e-07
1.88425e-05
-3.45563e-07
1.60788e-05
-7.66866e-08
1.291e-05
3.30594e-08
2.96509e-05
6.74009e-08
3.29953e-05
6.123e-08
3.67155e-05
1.64881e-08
4.08593e-05
-7.18923e-08
4.54716e-05
-2.04589e-07
5.06085e-05
-3.83674e-07
5.63302e-05
-6.11129e-07
6.27106e-05
-8.86481e-07
6.98345e-05
-1.20432e-06
7.65746e-05
-1.55336e-06
7.67275e-05
-1.9222e-06
7.69342e-05
-2.29242e-06
7.72078e-05
-2.64042e-06
7.75517e-05
-2.94079e-06
7.79788e-05
-3.16589e-06
7.84897e-05
-3.28813e-06
8.3386e-05
-3.25511e-06
7.32492e-05
-3.15055e-06
6.43893e-05
-2.98504e-06
5.66239e-05
-2.76939e-06
4.97715e-05
-2.51533e-06
4.3756e-05
-2.23296e-06
3.84543e-05
-1.93161e-06
3.37366e-05
-1.61815e-06
2.94894e-05
-1.29588e-06
2.56922e-05
-9.71681e-07
2.22328e-05
-6.51645e-07
1.91486e-05
-3.34802e-07
1.6337e-05
-8.22479e-08
1.29923e-05
3.06554e-08
2.66504e-05
6.24372e-08
2.96558e-05
5.42764e-08
3.30023e-05
8.47347e-09
3.67235e-05
-8.04756e-08
4.08679e-05
-2.1388e-07
4.54809e-05
-3.94548e-07
5.06193e-05
-6.25795e-07
5.63449e-05
-9.09308e-07
6.27334e-05
-1.24299e-06
6.98732e-05
-1.61921e-06
7.66404e-05
-2.02179e-06
7.68271e-05
-2.43639e-06
7.70782e-05
-2.83985e-06
7.74073e-05
-3.20649e-06
7.78174e-05
-3.50759e-06
7.83205e-05
-3.71353e-06
7.89151e-05
-3.79812e-06
8.3929e-05
-3.7066e-06
7.38052e-05
-3.53912e-06
6.49433e-05
-3.30963e-06
5.71641e-05
-3.03254e-06
5.02887e-05
-2.72112e-06
4.42442e-05
-2.387e-06
3.89097e-05
-2.03923e-06
3.41576e-05
-1.6835e-06
2.9877e-05
-1.32803e-06
2.60485e-05
-9.82723e-07
2.25638e-05
-6.49329e-07
1.94631e-05
-3.3377e-07
1.65885e-05
-1.11464e-07
1.31038e-05
2.86162e-08
2.3956e-05
5.82285e-08
2.66546e-05
4.84621e-08
2.96616e-05
1.91028e-09
3.30088e-05
-8.71416e-08
3.67302e-05
-2.20513e-07
4.08745e-05
-4.01525e-07
4.54878e-05
-6.34463e-07
5.0628e-05
-9.2265e-07
5.63583e-05
-1.26658e-06
6.2757e-05
-1.66255e-06
6.99165e-05
-2.09855e-06
7.67172e-05
-2.55413e-06
7.69449e-05
-3.01021e-06
7.72486e-05
-3.44119e-06
7.7642e-05
-3.8175e-06
7.81273e-05
-4.10778e-06
7.87147e-05
-4.28324e-06
7.94002e-05
-4.31839e-06
8.45408e-05
-4.15806e-06
7.44242e-05
-3.91913e-06
6.55528e-05
-3.62016e-06
5.77518e-05
-3.27772e-06
5.08453e-05
-2.90712e-06
4.47643e-05
-2.52034e-06
3.93908e-05
-2.12579e-06
3.45999e-05
-1.73266e-06
3.02816e-05
-1.35239e-06
2.64182e-05
-9.9191e-07
2.29064e-05
-6.50259e-07
1.97796e-05
-4.15632e-07
1.68926e-05
-1.20287e-07
1.3224e-05
2.68767e-08
2.15337e-05
5.46413e-08
2.39596e-05
4.35759e-08
2.66595e-05
-3.4754e-09
2.9667e-05
-9.23074e-08
3.3014e-05
-2.2511e-07
3.67348e-05
-4.05562e-07
4.08786e-05
-6.3863e-07
4.5492e-05
-9.28847e-07
5.06342e-05
-1.27869e-06
5.63704e-05
-1.68755e-06
6.2782e-05
-2.148e-06
6.9966e-05
-2.64428e-06
7.68073e-05
-3.14941e-06
7.70841e-05
-3.64195e-06
7.74493e-05
-4.09186e-06
7.79163e-05
-4.46626e-06
7.84858e-05
-4.73401e-06
7.91655e-05
-4.86637e-06
7.99482e-05
-4.84057e-06
8.52233e-05
-4.60118e-06
7.51062e-05
-4.28402e-06
6.62167e-05
-3.91074e-06
5.83848e-05
-3.50059e-06
5.14388e-05
-3.06996e-06
4.53139e-05
-2.6307e-06
3.98957e-05
-2.19367e-06
3.50609e-05
-1.77075e-06
3.07e-05
-1.3717e-06
2.6798e-05
-9.99664e-07
2.32558e-05
-8.05529e-07
2.01695e-05
-4.17124e-07
1.71895e-05
-1.30324e-07
1.33544e-05
2.53855e-08
1.93535e-05
5.15697e-08
2.15368e-05
3.94481e-08
2.39638e-05
-7.90253e-09
2.66639e-05
-9.62963e-08
2.9671e-05
-2.28156e-07
3.3017e-05
-4.07408e-07
3.67366e-05
-6.39475e-07
4.08794e-05
-9.29759e-07
4.54929e-05
-1.28222e-06
5.06377e-05
-1.69865e-06
5.63815e-05
-2.17527e-06
6.28093e-05
-2.70158e-06
7.00233e-05
-3.25575e-06
7.69137e-05
-3.80626e-06
7.72484e-05
-4.32722e-06
7.76847e-05
-4.78466e-06
7.82347e-05
-5.14527e-06
7.88971e-05
-5.37716e-06
7.96763e-05
-5.45376e-06
8.05614e-05
-5.35526e-06
8.59774e-05
-5.02846e-06
7.58506e-05
-4.62705e-06
6.6933e-05
-4.17639e-06
5.90606e-05
-3.69756e-06
5.20664e-05
-3.20739e-06
4.58906e-05
-2.7195e-06
4.04216e-05
-2.24682e-06
3.5537e-05
-1.80003e-06
3.11283e-05
-1.3861e-06
2.71844e-05
-1.24139e-06
2.36917e-05
-8.00753e-07
2.05531e-05
-4.19002e-07
1.74782e-05
-1.38117e-07
1.34925e-05
1.73973e-05
2.41017e-08
4.89287e-08
1.93561e-05
3.59437e-08
2.15403e-05
-1.15511e-08
2.39674e-05
-9.93612e-08
2.6667e-05
-2.30033e-07
2.96729e-05
-4.07648e-07
3.30173e-05
-6.37918e-07
3.67351e-05
-9.26846e-07
4.08765e-05
-1.27947e-06
4.54902e-05
-1.69941e-06
5.06385e-05
-2.18573e-06
5.63919e-05
-2.73222e-06
6.28399e-05
-3.32296e-06
7.00905e-05
-3.93198e-06
7.70394e-05
-4.52055e-06
7.74417e-05
-5.05894e-06
7.7959e-05
-5.51207e-06
7.86015e-05
-5.84501e-06
7.93649e-05
-6.02743e-06
8.02499e-05
-6.03509e-06
8.12412e-05
-5.85394e-06
8.68028e-05
-5.43215e-06
7.66557e-05
-4.94246e-06
6.76991e-05
-4.41308e-06
5.97761e-05
-3.86614e-06
5.27251e-05
-3.31993e-06
4.6491e-05
-2.7896e-06
4.09643e-05
-2.28706e-06
3.60241e-05
-1.82072e-06
3.15629e-05
-1.72389e-06
2.76669e-05
-1.23362e-06
2.41246e-05
-7.93213e-07
2.09273e-05
-4.18319e-07
1.77584e-05
-1.43154e-07
1.36356e-05
1.73996e-05
4.66461e-08
2.78121e-05
2.20238e-08
3.29553e-08
1.93591e-05
-1.45667e-08
2.15433e-05
-1.01701e-07
2.39697e-05
-2.31035e-07
2.6668e-05
-4.06734e-07
2.9672e-05
-6.34672e-07
3.3014e-05
-9.21244e-07
3.67295e-05
-1.27226e-06
4.08693e-05
-1.69267e-06
4.54834e-05
-2.18375e-06
5.06365e-05
-2.74265e-06
5.64024e-05
-3.35837e-06
6.28753e-05
-4.01157e-06
7.01701e-05
-4.66922e-06
7.71881e-05
-5.28547e-06
7.76682e-05
-5.82971e-06
7.82766e-05
-6.26433e-06
7.90208e-05
-6.55523e-06
7.98927e-05
-6.67371e-06
8.08886e-05
-6.60098e-06
8.19883e-05
-6.32776e-06
8.76985e-05
-5.80559e-06
7.75189e-05
-5.22559e-06
6.85116e-05
-4.61784e-06
6.05278e-05
-4.00596e-06
5.34112e-05
-3.40942e-06
4.71108e-05
-2.84236e-06
4.15196e-05
-2.31466e-06
3.6518e-05
-2.26549e-06
3.21045e-05
-1.71418e-06
2.81475e-05
-1.21828e-06
2.45496e-05
-7.81161e-07
2.12902e-05
-4.14185e-07
1.80294e-05
-1.45547e-07
1.37812e-05
1.74021e-05
3.03976e-08
2.78157e-05
4.29876e-08
2.8552e-05
2.00461e-08
-1.70669e-08
1.93616e-05
-1.03474e-07
2.15451e-05
-2.31389e-07
2.39701e-05
-4.05013e-07
2.66663e-05
-6.30283e-07
2.96676e-05
-9.13828e-07
3.30066e-05
-1.26197e-06
3.67192e-05
-1.68064e-06
4.08573e-05
-2.17277e-06
4.54724e-05
-2.73814e-06
5.0632e-05
-3.36967e-06
5.64137e-05
-4.05355e-06
6.29173e-05
-4.76406e-06
7.02649e-05
-5.46104e-06
7.73636e-05
-6.0939e-06
7.79324e-05
-6.62972e-06
7.8642e-05
-7.03091e-06
7.94965e-05
-7.2642e-06
8.04832e-05
-7.30585e-06
8.15934e-05
-7.14154e-06
8.2802e-05
-6.76896e-06
8.86618e-05
-6.14327e-06
7.84365e-05
-5.47278e-06
6.93665e-05
-4.78949e-06
6.13113e-05
-4.118e-06
5.41197e-05
-3.47678e-06
4.77453e-05
-2.87809e-06
4.20831e-05
-2.8807e-06
3.71332e-05
-2.25322e-06
3.26436e-05
-1.69185e-06
2.8621e-05
-1.19512e-06
2.49636e-05
-7.64105e-07
2.16401e-05
-4.06655e-07
1.82905e-05
-1.45585e-07
1.39268e-05
1.74042e-05
-1.91487e-08
2.78193e-05
2.68641e-08
2.85555e-05
3.94754e-08
2.93119e-05
1.81713e-08
-1.04804e-07
1.9363e-05
-2.31273e-07
2.1545e-05
-4.0275e-07
2.39678e-05
-6.25166e-07
2.66612e-05
-9.05264e-07
2.9659e-05
-1.2497e-06
3.29943e-05
-1.66506e-06
3.67036e-05
-2.15552e-06
4.084e-05
-2.72286e-06
4.54572e-05
-3.36309e-06
5.06254e-05
-4.06694e-06
5.6427e-05
-4.81482e-06
6.2968e-05
-5.57445e-06
7.03784e-05
-6.30073e-06
7.75705e-05
-6.93614e-06
7.82388e-05
-7.44833e-06
7.90594e-05
-7.79962e-06
8.00319e-05
-7.96109e-06
8.11385e-05
-7.91301e-06
8.23649e-05
-7.648e-06
8.36811e-05
-7.171e-06
8.96896e-05
-6.44065e-06
7.94044e-05
-5.68199e-06
7.0259e-05
-4.92815e-06
6.21215e-05
-4.2027e-06
5.48457e-05
-3.52235e-06
4.83895e-05
-3.58283e-06
4.27852e-05
-2.86532e-06
3.77453e-05
-2.22324e-06
3.3175e-05
-1.6578e-06
2.90837e-05
-1.16449e-06
2.5364e-05
-7.42474e-07
2.19759e-05
-3.96071e-07
1.8541e-05
-1.43688e-07
1.40705e-05
1.74052e-05
-1.05788e-07
2.78211e-05
-2.09307e-08
2.85588e-05
2.35598e-08
2.93152e-05
3.61152e-08
3.00898e-05
1.64003e-08
-2.30822e-07
1.93625e-05
-4.00147e-07
2.15424e-05
-6.19632e-07
2.39623e-05
-8.96053e-07
2.66519e-05
-1.23624e-06
2.96456e-05
-1.64724e-06
3.29765e-05
-2.13408e-06
3.66822e-05
-2.70007e-06
4.08172e-05
-3.34363e-06
4.54377e-05
-4.05908e-06
5.06176e-05
-4.83194e-06
5.64442e-05
-5.63668e-06
6.30303e-05
-6.43653e-06
7.05142e-05
-7.1789e-06
7.78132e-05
-7.80163e-06
7.85921e-05
-8.27305e-06
7.95329e-05
-8.55911e-06
8.06299e-05
-8.63421e-06
8.18597e-05
-8.48542e-06
8.32023e-05
-8.11278e-06
8.46229e-05
-7.52823e-06
9.07771e-05
-6.69474e-06
8.04172e-05
-5.85253e-06
7.11834e-05
-5.03379e-06
6.29526e-05
-4.26042e-06
5.55837e-05
-4.38654e-06
4.91932e-05
-3.56432e-06
4.34842e-05
-2.82676e-06
3.83488e-05
-2.17744e-06
3.36946e-05
-1.61325e-06
2.95325e-05
-1.12749e-06
2.5749e-05
-7.16955e-07
2.22968e-05
-3.8298e-07
1.87803e-05
-1.40266e-07
1.42107e-05
1.74045e-05
-2.30141e-07
2.78194e-05
-1.04138e-07
2.85603e-05
-2.24214e-08
2.93183e-05
2.04847e-08
3.0093e-05
3.29092e-08
3.08897e-05
1.47337e-08
-3.97353e-07
1.93597e-05
-6.13915e-07
2.15367e-05
-8.86568e-07
2.39528e-05
-1.22222e-06
2.66379e-05
-1.62817e-06
2.96265e-05
-2.11007e-06
3.29525e-05
-2.67232e-06
3.66544e-05
-3.3152e-06
4.07888e-05
-4.03587e-06
4.54145e-05
-4.82397e-06
5.06096e-05
-5.65966e-06
5.64671e-05
-6.51344e-06
6.31072e-05
-7.34135e-06
7.06766e-05
-8.08527e-06
7.80969e-05
-8.67782e-06
7.89969e-05
-9.09224e-06
8.0066e-05
-9.29698e-06
8.12927e-05
-9.27291e-06
8.26472e-05
-9.01451e-06
8.4104e-05
-8.52919e-06
8.56238e-05
-7.83659e-06
9.1919e-05
-6.90401e-06
8.14686e-05
-5.98388e-06
7.21335e-05
-5.10674e-06
6.37989e-05
-5.30857e-06
5.65058e-05
-4.36534e-06
4.99943e-05
-3.5165e-06
4.41739e-05
-2.76787e-06
3.89393e-05
-2.11783e-06
3.41992e-05
-1.56001e-06
2.9965e-05
-1.08535e-06
2.61174e-05
-6.88397e-07
2.26022e-05
-3.67964e-07
1.9008e-05
-1.35695e-07
1.43464e-05
1.74016e-05
-3.9448e-07
2.78127e-05
-2.23423e-07
2.85582e-05
-1.02079e-07
2.93195e-05
-2.36071e-08
3.00958e-05
1.76424e-08
3.08927e-05
2.98622e-08
3.17096e-05
1.31701e-08
-6.08183e-07
1.9354e-05
-8.7708e-07
2.15272e-05
-1.20807e-06
2.39387e-05
-1.6086e-06
2.66183e-05
-2.0847e-06
2.96011e-05
-2.64156e-06
3.29217e-05
-3.28085e-06
3.66201e-05
-4.00193e-06
4.07549e-05
-4.79778e-06
4.53883e-05
-5.6532e-06
5.06031e-05
-6.54492e-06
5.64986e-05
-7.43665e-06
6.32025e-05
-8.27902e-06
7.08703e-05
-9.00742e-06
7.84265e-05
-9.5529e-06
7.94576e-05
-9.89292e-06
8.06619e-05
-1.00018e-05
8.20216e-05
-9.86768e-06
8.35003e-05
-9.49258e-06
8.50674e-05
-8.89218e-06
8.66794e-05
-8.09365e-06
9.31086e-05
-7.06735e-06
8.25521e-05
-6.07616e-06
7.31029e-05
-6.36778e-06
6.48581e-05
-5.28572e-06
5.74261e-05
-4.30787e-06
5.07856e-05
-3.44322e-06
4.48493e-05
-2.69155e-06
3.9513e-05
-2.04697e-06
3.46861e-05
-1.49999e-06
3.03796e-05
-1.03938e-06
2.64684e-05
-6.57643e-07
2.28919e-05
-3.51579e-07
1.92239e-05
-1.30304e-07
1.44767e-05
1.7396e-05
-6.02559e-07
2.77991e-05
-3.80922e-07
2.8551e-05
-2.16181e-07
2.9317e-05
-9.96298e-08
3.00967e-05
-2.44863e-08
3.08953e-05
1.50316e-08
3.17124e-05
2.69777e-08
3.25535e-05
1.17116e-08
-8.67786e-07
1.93447e-05
-1.19413e-06
2.15132e-05
-1.58907e-06
2.39191e-05
-2.05887e-06
2.65925e-05
-2.60926e-06
2.95688e-05
-3.24292e-06
3.28838e-05
-3.96091e-06
3.6579e-05
-4.75881e-06
4.07159e-05
-5.62524e-06
4.53603e-05
-6.54212e-06
5.06003e-05
-7.47984e-06
5.65418e-05
-8.39695e-06
6.33204e-05
-9.23744e-06
7.11004e-05
-9.93359e-06
7.88072e-05
-1.04135e-05
7.99782e-05
-1.0663e-05
8.13231e-05
-1.06632e-05
8.28171e-05
-1.04098e-05
8.44176e-05
-9.9136e-06
8.60889e-05
-9.19855e-06
8.77843e-05
-8.29766e-06
9.43389e-05
-7.18458e-06
8.36605e-05
-7.58376e-06
7.43189e-05
-6.34505e-06
6.59174e-05
-5.21854e-06
5.83368e-05
-4.21901e-06
5.15614e-05
-3.34835e-06
4.55061e-05
-2.60111e-06
4.00671e-05
-1.96743e-06
3.51536e-05
-1.43504e-06
3.07753e-05
-9.90784e-07
2.68015e-05
-6.25481e-07
2.31658e-05
-3.3434e-07
1.94279e-05
-1.24356e-07
1.46011e-05
1.7387e-05
-8.58821e-07
2.77767e-05
-5.80148e-07
2.85367e-05
-3.66647e-07
2.93092e-05
-2.08359e-07
3.00938e-05
-9.67573e-08
3.08959e-05
-2.50592e-08
3.17148e-05
1.2652e-08
3.25562e-05
2.42531e-08
3.34194e-05
1.03546e-08
-1.18062e-06
1.93312e-05
-1.56996e-06
2.14941e-05
-2.03323e-06
2.38935e-05
-2.57649e-06
2.65598e-05
-3.20317e-06
2.95291e-05
-3.91557e-06
3.28385e-05
-4.71132e-06
3.65315e-05
-5.58209e-06
4.06727e-05
-6.51409e-06
4.53323e-05
-7.48338e-06
5.06039e-05
-8.45558e-06
5.66004e-05
-9.38266e-06
6.34656e-05
-1.02051e-05
7.13719e-05
-1.08503e-05
7.92439e-05
-1.12471e-05
8.05623e-05
-1.13913e-05
8.20512e-05
-1.12714e-05
8.36787e-05
-1.08922e-05
8.53962e-05
-1.02735e-05
8.71638e-05
-9.44584e-06
8.89325e-05
-8.44808e-06
9.56024e-05
-8.97838e-06
8.50552e-05
-7.56412e-06
7.5538e-05
-6.26858e-06
6.69675e-05
-5.11302e-06
5.92308e-05
-4.10364e-06
5.23167e-05
-3.23604e-06
4.6141e-05
-2.49984e-06
4.05995e-05
-1.88165e-06
3.56002e-05
-1.36681e-06
3.11513e-05
-9.4064e-07
2.71167e-05
-5.92629e-07
2.34241e-05
-3.16639e-07
1.96202e-05
-1.18082e-07
1.47192e-05
1.73741e-05
-1.16769e-06
2.77431e-05
-8.25191e-07
2.85134e-05
-5.56852e-07
2.92943e-05
-3.517e-07
3.00855e-05
-2.00044e-07
3.08926e-05
-9.34877e-08
3.17151e-05
-2.53229e-08
3.25583e-05
1.05035e-08
3.34219e-05
2.16919e-08
3.43053e-05
9.09816e-09
-1.55155e-06
1.93128e-05
-2.00825e-06
2.14691e-05
-2.54407e-06
2.38611e-05
-3.16291e-06
2.65195e-05
-3.86802e-06
2.94815e-05
-4.65859e-06
3.27857e-05
-5.52872e-06
3.64782e-05
-6.46808e-06
4.06267e-05
-7.45752e-06
4.53064e-05
-8.46874e-06
5.0617e-05
-9.461e-06
5.66788e-05
-1.03827e-05
6.36432e-05
-1.11686e-05
7.16902e-05
-1.17446e-05
7.97414e-05
-1.20419e-05
8.12129e-05
-1.20672e-05
8.2847e-05
-1.18185e-05
8.4605e-05
-1.13099e-05
8.64327e-05
-1.05689e-05
8.82869e-05
-9.63293e-06
9.01174e-05
-1.05752e-05
9.71993e-05
-8.96717e-06
8.64582e-05
-7.47988e-06
7.67493e-05
-6.14562e-06
6.80001e-05
-4.97516e-06
6.01023e-05
-3.96692e-06
5.30476e-05
-3.11035e-06
4.67515e-05
-2.3908e-06
4.11087e-05
-1.79179e-06
3.60252e-05
-1.29677e-06
3.15074e-05
-8.89935e-07
2.7414e-05
-5.5961e-07
2.3667e-05
-2.98841e-07
1.98009e-05
-1.1166e-07
1.48308e-05
1.73566e-05
-1.53401e-06
2.76958e-05
-1.12043e-06
2.84787e-05
-7.90462e-07
2.927e-05
-5.32616e-07
3.00698e-05
-3.36024e-07
3.08838e-05
-1.91185e-07
3.17114e-05
-8.98122e-08
3.25583e-05
-2.52848e-08
3.34238e-05
8.57957e-09
3.43077e-05
1.92921e-08
3.52192e-05
7.94073e-09
-1.98425e-06
1.92888e-05
-2.51254e-06
2.14376e-05
-3.1231e-06
2.38213e-05
-3.81984e-06
2.64713e-05
-4.60313e-06
2.94261e-05
-5.46896e-06
3.2726e-05
-6.40982e-06
3.64199e-05
-7.41049e-06
4.05797e-05
-8.44785e-06
4.52855e-05
-9.4876e-06
5.06437e-05
-1.04854e-05
5.67815e-05
-1.13837e-05
6.38583e-05
-1.21148e-05
7.20604e-05
-1.26042e-05
8.03037e-05
-1.27863e-05
8.1932e-05
-1.26818e-05
8.37104e-05
-1.22985e-05
8.55935e-05
-1.16589e-05
8.75226e-05
-1.07983e-05
8.94522e-05
-1.20806e-05
9.16227e-05
-1.05815e-05
9.88136e-05
-8.87897e-06
8.78573e-05
-7.3397e-06
7.79433e-05
-5.98343e-06
6.90083e-05
-4.81123e-06
6.09466e-05
-3.81376e-06
5.3751e-05
-2.97509e-06
4.73358e-05
-2.27669e-06
4.15936e-05
-1.69973e-06
3.64281e-05
-1.22623e-06
3.18437e-05
-8.39366e-07
2.76937e-05
-5.26929e-07
2.38951e-05
-2.81227e-07
1.99705e-05
-1.05218e-07
1.4936e-05
1.73338e-05
-1.96146e-06
2.76319e-05
-1.47006e-06
2.84301e-05
-1.07181e-06
2.92343e-05
-7.54682e-07
3.00447e-05
-5.07514e-07
3.08674e-05
-3.1969e-07
3.17021e-05
-1.81824e-07
3.25542e-05
-8.57471e-08
3.34235e-05
-2.4942e-08
3.43094e-05
6.87782e-09
3.52214e-05
1.705e-08
3.61551e-05
6.87899e-09
-2.4823e-06
1.92585e-05
-3.08441e-06
2.13989e-05
-3.77217e-06
2.37736e-05
-4.5468e-06
2.6415e-05
-5.40576e-06
2.93628e-05
-6.34375e-06
3.26599e-05
-7.34881e-06
3.63582e-05
-8.40216e-06
4.0534e-05
-9.47507e-06
4.5273e-05
-1.05298e-05
5.0688e-05
-1.1516e-05
5.69138e-05
-1.23729e-05
6.41163e-05
-1.30313e-05
7.24875e-05
-1.34172e-05
8.09345e-05
-1.34708e-05
8.27209e-05
-1.32283e-05
8.46402e-05
-1.27064e-05
8.6641e-05
-1.19365e-05
8.86609e-05
-1.35704e-05
9.09419e-05
-1.21121e-05
9.31534e-05
-1.0496e-05
0.000100431
-8.7236e-06
8.92412e-05
-7.15224e-06
7.91121e-05
-5.78959e-06
6.99867e-05
-4.62722e-06
6.17601e-05
-3.64882e-06
5.44247e-05
-2.83356e-06
4.78927e-05
-2.15988e-06
4.20538e-05
-1.60715e-06
3.6809e-05
-1.1561e-06
3.21605e-05
-7.89613e-07
2.79564e-05
-4.94962e-07
2.41089e-05
-2.63989e-07
2.01293e-05
-9.88624e-08
1.50349e-05
1.73051e-05
-2.4536e-06
2.7548e-05
-1.87762e-06
2.83643e-05
-1.40433e-06
2.91841e-05
-1.02161e-06
3.00077e-05
-7.17678e-07
3.08415e-05
-4.81542e-07
3.16851e-05
-3.0273e-07
3.25444e-05
-1.71973e-07
3.34191e-05
-8.13005e-08
3.43087e-05
-2.42984e-08
3.52229e-05
5.39118e-09
3.61572e-05
1.49608e-08
3.6589e-05
5.92285e-09
-3.04733e-06
1.92214e-05
-3.72582e-06
2.13526e-05
-4.49096e-06
2.37177e-05
-5.34131e-06
2.63505e-05
-6.27331e-06
2.92924e-05
-7.27762e-06
3.25887e-05
-8.33907e-06
3.62952e-05
-9.43368e-06
4.04926e-05
-1.05295e-05
4.52727e-05
-1.15829e-05
5.0755e-05
-1.254e-05
5.70809e-05
-1.33376e-05
6.44226e-05
-1.39056e-05
7.2976e-05
-1.41728e-05
8.16366e-05
-1.40874e-05
8.35801e-05
-1.37006e-05
8.56345e-05
-1.30389e-05
8.77434e-05
-1.50362e-05
9.01267e-05
-1.36372e-05
9.2467e-05
-1.2038e-05
9.46955e-05
-1.033e-05
0.000102037
-8.51105e-06
9.06e-05
-6.9264e-06
8.0249e-05
-5.57128e-06
7.09308e-05
-4.42873e-06
6.254e-05
-3.47612e-06
5.50673e-05
-2.68867e-06
4.84215e-05
-2.04247e-06
4.24891e-05
-1.51521e-06
3.71682e-05
-1.08726e-06
3.24581e-05
-7.41176e-07
2.82026e-05
-4.63956e-07
2.43088e-05
-2.47288e-07
2.02777e-05
-9.26757e-08
1.51276e-05
1.72699e-05
-3.01214e-06
2.74409e-05
-2.34645e-06
2.82788e-05
-1.79204e-06
2.91168e-05
-1.33705e-06
2.99563e-05
-9.7016e-07
3.08035e-05
-6.79729e-07
3.16583e-05
-4.54757e-07
3.25268e-05
-2.8512e-07
3.34087e-05
-1.61657e-07
3.43039e-05
-7.64925e-08
3.52219e-05
-2.3353e-08
3.61584e-05
4.11668e-09
3.65909e-05
1.30401e-08
3.55528e-05
5.09574e-09
-3.68137e-06
1.9177e-05
-4.4366e-06
2.12982e-05
-5.27723e-06
2.36537e-05
-6.20109e-06
2.62783e-05
-7.20087e-06
2.92157e-05
-8.26441e-06
3.25141e-05
-9.37172e-06
3.62332e-05
-1.0496e-05
4.0459e-05
-1.15993e-05
4.52892e-05
-1.26346e-05
5.08496e-05
-1.35448e-05
5.72881e-05
-1.42651e-05
6.47821e-05
-1.47265e-05
7.35297e-05
-1.48627e-05
8.24118e-05
-1.46295e-05
8.4509e-05
-1.40949e-05
8.66905e-05
-1.64681e-05
8.91753e-05
-1.515e-05
9.16395e-05
-1.35848e-05
9.40138e-05
-1.18706e-05
9.62361e-05
-1.0095e-05
0.000103621
-8.25173e-06
9.19253e-05
-6.67059e-06
8.13483e-05
-5.33524e-06
7.18373e-05
-4.22065e-06
6.32845e-05
-3.29922e-06
5.56778e-05
-2.54302e-06
4.8922e-05
-1.9259e-06
4.28998e-05
-1.42505e-06
3.75059e-05
-1.02038e-06
3.27373e-05
-6.94363e-07
2.8433e-05
-4.3412e-07
2.44957e-05
-2.31251e-07
2.04163e-05
-8.67129e-08
1.52143e-05
1.72277e-05
-3.63918e-06
2.73076e-05
-2.87886e-06
2.81697e-05
-2.23737e-06
2.9029e-05
-1.70426e-06
2.98874e-05
-1.26818e-06
3.07508e-05
-9.1742e-07
3.16193e-05
-6.40767e-07
3.24993e-05
-4.27278e-07
3.33906e-05
-2.66984e-07
3.42932e-05
-1.50932e-07
3.52168e-05
-7.13511e-08
3.61572e-05
-2.21342e-08
3.65919e-05
3.06237e-09
3.55545e-05
1.13347e-08
3.45447e-05
4.37766e-09
-4.3844e-06
1.91248e-05
-5.21471e-06
2.12357e-05
-6.12898e-06
2.35816e-05
-7.12158e-06