/*--------------------------------*- C++ -*----------------------------------*\
  =========                 |
  \\      /  F ield         | OpenFOAM: The Open Source CFD Toolbox
   \\    /   O peration     | Website:  https://openfoam.org
    \\  /    A nd           | Version:  8
     \\/     M anipulation  |
\*---------------------------------------------------------------------------*/
FoamFile
{
    version     2.0;
    format      ascii;
    class       volScalarField;
    location    "0.12";
    object      nut;
}
// * * * * * * * * * * * * * * * * * * * * * * * * * * * * * * * * * * * * * //

dimensions      [0 2 -1 0 0 0 0];

internalField   nonuniform List<scalar> 
15677
(
0.000168168
0.000652159
0.000148203
0.00151205
0.000443116
0.000141301
0.00267198
0.000878249
0.000381093
0.000142202
0.00391622
0.00152278
0.00068742
0.000354364
0.000145345
0.00501895
0.00236047
0.00114813
0.000586152
0.000340348
0.00015114
0.00583669
0.00332119
0.00178313
0.000948849
0.00052964
0.000332079
0.000156951
0.00633337
0.00430111
0.00257013
0.00146486
0.000821644
0.000492711
0.000327027
0.000162409
0.00656227
0.00518816
0.00345498
0.00213337
0.00125837
0.00073772
0.0004676
0.000324144
0.000167192
0.0066582
0.00589318
0.00435665
0.00292381
0.00184294
0.00111306
0.000677704
0.000450554
0.000322563
0.000171423
0.00670541
0.00633802
0.00518141
0.0037803
0.00255841
0.00163279
0.00100514
0.000634341
0.000438772
0.000322003
0.000174989
0.00671436
0.00655332
0.00584539
0.0046261
0.00336401
0.00228762
0.0014734
0.000924616
0.000602356
0.000430826
0.000321939
0.000178126
0.0067099
0.00666146
0.00629552
0.00537747
0.00419785
0.00304635
0.00207864
0.00134959
0.000862516
0.000578712
0.000425342
0.000322418
0.00018074
0.00670626
0.00669874
0.00652946
0.00596448
0.00498469
0.00385817
0.00279656
0.00191241
0.00125164
0.000814331
0.000560926
0.000421855
0.000323048
0.000183083
0.00670536
0.00670438
0.00664671
0.00635677
0.00565024
0.00465642
0.00358403
0.00259427
0.00177828
0.0011733
0.000776459
0.000547746
0.00041949
0.000323964
0.000185127
0.0067054
0.00670288
0.00668782
0.00656281
0.00614206
0.00536872
0.00438178
0.00335759
0.00242838
0.00166846
0.00110977
0.000746668
0.000537629
0.000418268
0.000324805
0.000186935
0.00670555
0.00670166
0.00669633
0.00665648
0.00644672
0.00593369
0.00512127
0.00414911
0.00316889
0.0022903
0.00157796
0.00105803
0.000722929
0.00053036
0.000417379
0.000325854
0.000188591
0.00670562
0.00670121
0.00669707
0.00668486
0.00660479
0.00632166
0.00573754
0.00490416
0.00395128
0.00300965
0.00217495
0.00150279
0.00101599
0.000704442
0.000524622
0.000417256
0.000326785
0.00019
0.00670564
0.00670113
0.00669667
0.00669163
0.00666367
0.00654115
0.00618823
0.00555703
0.00471461
0.00378168
0.00287496
0.00207791
0.00144044
0.000981904
0.000689527
0.000520756
0.000417176
0.000327863
0.000191429
0.00670563
0.00670115
0.00669638
0.00669271
0.00668226
0.00663447
0.00646775
0.00605792
0.00539385
0.00454873
0.0036363
0.00276043
0.00199643
0.00138887
0.000953988
0.000678164
0.000517625
0.000417695
0.000328837
0.000192539
0.00670561
0.00670119
0.00669624
0.00669267
0.00668725
0.00666907
0.00659798
0.00638935
0.00593487
0.00524701
0.00440423
0.00351132
0.00266332
0.00192822
0.0013462
0.000931695
0.000668988
0.000515889
0.000418092
0.000329903
0.000193865
0.00670559
0.00670121
0.00669617
0.00669257
0.00668817
0.00668077
0.00665138
0.00655607
0.00631092
0.00581974
0.00511639
0.0042783
0.00340443
0.00258127
0.0018714
0.00131143
0.000913697
0.000662413
0.000514416
0.000418998
0.00033093
0.000194747
0.00670559
0.00670123
0.00669613
0.00669254
0.00668814
0.00668421
0.00667166
0.00663031
0.00651124
0.00623304
0.00571459
0.00500048
0.00416959
0.00331342
0.00251263
0.00182471
0.00128328
0.000899839
0.000657164
0.000514107
0.000419704
0.000331958
0.00019606
0.00670558
0.00670123
0.0066961
0.00669254
0.00668799
0.00668504
0.00667849
0.00666139
0.00660605
0.00646501
0.0061601
0.00561908
0.00489935
0.00407623
0.00323695
0.00245585
0.00178685
0.00126118
0.000889157
0.000654036
0.000513756
0.000420868
0.000333099
0.000196774
0.00670559
0.00670123
0.00669609
0.00669254
0.00668788
0.00668517
0.00668042
0.00667331
0.0066484
0.00658059
0.0064193
0.00609197
0.00553471
0.00481142
0.00399736
0.00317341
0.00241006
0.0017573
0.00124442
0.000881667
0.000651567
0.000514465
0.000421774
0.000334005
0.000198089
0.00670559
0.00670122
0.00669608
0.00669253
0.00668781
0.00668515
0.00668079
0.00667745
0.00666573
0.00663542
0.00655394
0.00637574
0.00603035
0.00545977
0.00473691
0.00393203
0.00312274
0.0023743
0.00173482
0.00123213
0.000876499
0.000651065
0.000514913
0.000423189
0.000335443
0.000198776
0.00670559
0.00670122
0.00669608
0.00669251
0.00668778
0.0066851
0.00668076
0.00667872
0.00667213
0.00665962
0.0066204
0.00652845
0.00633535
0.00597441
0.00539718
0.00467558
0.00387977
0.00308234
0.00234716
0.00171933
0.00122494
0.000874293
0.00065072
0.000516432
0.000424122
0.0003362
5.3352e-05
0.0067056
0.00670121
0.00669608
0.0066925
0.00668776
0.00668506
0.00668067
0.00667901
0.00667421
0.00666953
0.00665079
0.00660733
0.00650422
0.0062993
0.00592915
0.00534395
0.00462498
0.00383848
0.00305467
0.00233095
0.00171138
0.00122161
0.000873624
0.000652332
0.000517555
0.000426556
0.000283598
6.33107e-05
0.00670561
0.0067012
0.00669609
0.00669248
0.00668775
0.00668501
0.0066806
0.006679
0.00667474
0.00667323
0.00666363
0.00664553
0.00659326
0.00648279
0.00626833
0.00588712
0.0053031
0.00459167
0.00381513
0.00303876
0.00232203
0.00170811
0.00122107
0.000875449
0.000653972
0.000519657
0.000420073
0.000219471
7.06803e-05
0.00670561
0.00670119
0.00669609
0.00669246
0.00668775
0.00668497
0.00668056
0.00667891
0.00667479
0.0066744
0.00666863
0.0066628
0.00663702
0.00658374
0.00646625
0.00624172
0.00586419
0.00527904
0.00456948
0.00379833
0.00302962
0.00231916
0.00170948
0.00122482
0.000878548
0.000656342
0.000520893
0.000400206
0.000178035
7.61147e-05
0.00670562
0.00670118
0.0066961
0.00669244
0.00668775
0.00668494
0.00668053
0.00667882
0.00667474
0.00667463
0.00667036
0.00666999
0.00665719
0.00663604
0.00657436
0.00645134
0.00623321
0.00584761
0.00526101
0.00455538
0.00379097
0.00302921
0.00232384
0.00171697
0.0012314
0.000883273
0.000659692
0.000518786
0.000367442
0.000152553
8.0515e-05
0.00670562
0.00670117
0.00669611
0.00669243
0.00668775
0.0066849
0.00668051
0.00667874
0.00667467
0.00667456
0.00667083
0.00667264
0.00666596
0.00666127
0.00663
0.00657306
0.00645041
0.00622632
0.0058376
0.00525267
0.00455427
0.00379685
0.00304006
0.00233662
0.00172914
0.001241
0.000889646
0.000662774
0.000512816
0.00033626
0.000134217
8.39042e-05
0.00670563
0.00670116
0.00669612
0.00669241
0.00668775
0.00668487
0.0066805
0.00667867
0.00667462
0.00667443
0.00667089
0.00667336
0.00666949
0.00667246
0.00665737
0.00663911
0.00657612
0.00645335
0.00622522
0.00584013
0.00526141
0.00456781
0.00381481
0.00306008
0.00235612
0.00174583
0.00125344
0.000897175
0.000665606
0.000501495
0.000306174
0.000121255
8.63095e-05
0.00670563
0.00670115
0.00669612
0.0066924
0.00668776
0.00668484
0.00668049
0.00667861
0.00667457
0.0066743
0.00667084
0.00667341
0.00667069
0.00667695
0.00667048
0.00667261
0.00664488
0.00658492
0.00646234
0.00623925
0.00585869
0.00528361
0.00459431
0.00384376
0.00308895
0.00238218
0.00176656
0.00126848
0.000905853
0.000666931
0.000486259
0.00028012
0.000112759
8.80891e-05
0.00670564
0.00670115
0.00669613
0.00669239
0.00668777
0.00668482
0.00668049
0.00667855
0.00667453
0.00667417
0.00667076
0.00667327
0.006671
0.0066784
0.00667629
0.00668823
0.00668026
0.00665767
0.00660272
0.00648503
0.006267
0.00589097
0.00532003
0.00463355
0.00388372
0.00312647
0.00241428
0.00179125
0.00128585
0.000915288
0.000667183
0.000469452
0.000260357
0.000106988
8.94692e-05
0.00670114
0.00670565
0.00669614
0.00669237
0.00668777
0.00668479
0.00668049
0.0066785
0.0066745
0.00667407
0.00667068
0.00667308
0.00667102
0.0066787
0.0066785
0.00669525
0.0066974
0.00669579
0.00668171
0.00663214
0.00652068
0.00630873
0.00593843
0.00537069
0.00468583
0.00393434
0.0031722
0.00245238
0.00181951
0.00130538
0.000926431
0.000666286
0.000454587
0.000245166
0.000102939
9.059e-05
0.00669614
0.00670114
0.00670567
0.00669236
0.00668778
0.00668477
0.00668049
0.00667846
0.00667447
0.00667398
0.0066706
0.00667289
0.00667093
0.00667861
0.00667923
0.00669801
0.00670528
0.00671487
0.00672414
0.00671598
0.00667439
0.0065708
0.00636638
0.00600113
0.00543615
0.0047508
0.00399556
0.00322607
0.00249585
0.00185123
0.00132958
0.000939904
0.000664978
0.000441788
0.000233388
0.000100058
9.15397e-05
0.00669235
0.00669617
0.00670116
0.00670569
0.00668779
0.00668475
0.00668049
0.00667842
0.00667445
0.0066739
0.00667053
0.00667273
0.00667083
0.00667839
0.00667941
0.00669895
0.00670856
0.00672396
0.00674607
0.00676201
0.00676346
0.00673121
0.00663725
0.00644093
0.00608087
0.00551688
0.00482888
0.00406697
0.0032873
0.00254471
0.0018899
0.00135847
0.000954103
0.000664059
0.000431336
0.000224072
9.79517e-05
9.23704e-05
0.00668779
0.00669237
0.00669623
0.00670118
0.00670571
0.00668473
0.00668049
0.00667838
0.00667444
0.00667383
0.00667047
0.00667259
0.00667072
0.00667815
0.00667939
0.0066992
0.00670983
0.00672802
0.006757
0.00678666
0.00681354
0.00682568
0.00680484
0.00672094
0.00653355
0.00617735
0.00561316
0.00491916
0.0041481
0.00335597
0.00260415
0.00193758
0.0013889
0.000969131
0.000663913
0.000422564
0.000216611
9.64184e-05
9.31172e-05
0.00668471
0.00668784
0.00669242
0.0066963
0.0067012
0.00670573
0.0066805
0.00667835
0.00667443
0.00667377
0.00667042
0.00667247
0.00667061
0.00667792
0.00667932
0.00669918
0.0067103
0.0067298
0.00676226
0.0067997
0.00684117
0.0068796
0.00690473
0.00689594
0.00682352
0.00664404
0.00629108
0.00572494
0.00502256
0.00423876
0.0034393
0.00267686
0.00198912
0.00142079
0.000984803
0.000664566
0.000415446
0.000210532
9.52678e-05
9.37979e-05
0.0066805
0.00668474
0.00668794
0.00669247
0.00669636
0.00670122
0.00670575
0.00667832
0.00667443
0.00667371
0.00667038
0.00667237
0.00667051
0.00667772
0.00667922
0.00669907
0.00671045
0.00673066
0.00676492
0.00680667
0.00685726
0.00691179
0.00696516
0.00700291
0.00700602
0.00694395
0.00677261
0.00642149
0.00585114
0.00513784
0.00434898
0.00354121
0.00275513
0.00204367
0.00145392
0.00100135
0.000666409
0.000409618
0.000205504
9.44249e-05
9.44289e-05
0.00667829
0.00668056
0.00668481
0.00668803
0.00669252
0.00669642
0.00670124
0.00670577
0.00667443
0.00667366
0.00667034
0.00667228
0.00667041
0.00667756
0.00667914
0.00669893
0.00671048
0.00673112
0.00676645
0.00681064
0.00686665
0.00693137
0.00700269
0.00707103
0.00712446
0.00713858
0.00708402
0.00691789
0.00656714
0.00599031
0.00527918
0.00448435
0.00365064
0.00283806
0.00210081
0.00148799
0.00101822
0.000669338
0.000404869
0.000201232
9.37778e-05
9.5014e-05
0.00667443
0.00667831
0.00668068
0.00668488
0.00668813
0.00669258
0.00669649
0.00670126
0.00670579
0.0066736
0.00667032
0.00667221
0.00667032
0.00667743
0.00667905
0.00669879
0.00671046
0.00673141
0.00676746
0.00681328
0.00687271
0.00694388
0.00702735
0.0071152
0.00720143
0.00726886
0.00729587
0.00724694
0.00707967
0.00672682
0.00615878
0.0054493
0.00463041
0.00376728
0.00292475
0.00215994
0.0015229
0.00103512
0.000672712
0.0004011
0.000197636
9.3311e-05
9.55635e-05
0.00667356
0.00667449
0.00667838
0.00668081
0.00668496
0.00668824
0.00669263
0.00669656
0.00670128
0.00670581
0.00667031
0.00667213
0.00667025
0.00667733
0.00667896
0.00669866
0.00671043
0.00673163
0.00676822
0.00681529
0.00687716
0.0069527
0.00704478
0.00714648
0.00725461
0.00735695
0.00743973
0.00747641
0.00743336
0.00726237
0.00691614
0.00635811
0.00562975
0.00478403
0.00388923
0.00301435
0.00222046
0.00155862
0.00105192
0.000676789
0.000398155
0.000194512
9.29456e-05
9.60753e-05
0.0066703
0.00667355
0.00667461
0.00667845
0.00668093
0.00668503
0.00668835
0.00669269
0.00669663
0.0067013
0.00670583
0.00667206
0.00667018
0.00667726
0.00667886
0.00669855
0.0067104
0.0067318
0.00676885
0.00681696
0.00688074
0.00695969
0.00705821
0.00717031
0.00729526
0.00742164
0.00754222
0.00763693
0.00768198
0.00764095
0.00748831
0.00714972
0.00656766
0.0058171
0.00494203
0.00401416
0.00310596
0.00228187
0.00159471
0.00106876
0.000681347
0.000395783
0.000191845
9.26941e-05
9.65587e-05
0.006672
0.00667033
0.00667359
0.00667473
0.00667853
0.00668107
0.00668511
0.00668846
0.00669274
0.00669671
0.00670132
0.00670586
0.00667013
0.00667722
0.00667874
0.00669846
0.00671038
0.00673196
0.00676939
0.00681842
0.00688379
0.00696567
0.00706946
0.0071897
0.00732869
0.00747454
0.0076223
0.00775711
0.00786303
0.00791255
0.00789527
0.00776401
0.00740419
0.00678581
0.00600675
0.00510236
0.00414101
0.00319851
0.00234365
0.00163092
0.00108542
0.000686334
0.000394019
0.000189491
9.24933e-05
9.70082e-05
0.00667009
0.00667192
0.00667038
0.00667362
0.00667487
0.00667861
0.00668121
0.00668518
0.00668858
0.0066928
0.00669678
0.00670135
0.00670588
0.00667718
0.0066786
0.00669841
0.00671038
0.00673212
0.00676988
0.00681973
0.00688646
0.00697101
0.0070793
0.00720655
0.00735753
0.00752055
0.00769192
0.00785653
0.0080058
0.00811841
0.00819697
0.00820762
0.00806123
0.00767508
0.00701628
0.00619859
0.0052633
0.00426777
0.00329115
0.00240529
0.00166692
0.00110204
0.000691295
0.000392694
0.000187469
9.23698e-05
9.74338e-05
0.00667714
0.00666998
0.00667183
0.00667044
0.00667366
0.00667502
0.00667868
0.00668136
0.00668526
0.0066887
0.00669286
0.00669686
0.00670137
0.0067059
0.00667844
0.0066984
0.0067104
0.00673226
0.00677031
0.0068209
0.00688884
0.00697584
0.00708811
0.00722177
0.00738353
0.00756152
0.00775556
0.00794782
0.00813067
0.00828894
0.00843611
0.00854946
0.0085474
0.00837685
0.00795629
0.00725501
0.00639036
0.00542162
0.00439314
0.0033829
0.00246634
0.00170251
0.00111862
0.000696218
0.000391732
0.000185654
9.22685e-05
9.7828e-05
0.00667828
0.00667694
0.00666976
0.00667173
0.00667053
0.00667369
0.00667518
0.00667876
0.00668152
0.00668534
0.00668882
0.00669292
0.00669693
0.0067014
0.00670592
0.00669845
0.00671043
0.0067324
0.00677069
0.00682196
0.00689099
0.00698025
0.00709606
0.00723578
0.00740738
0.007599
0.0078144
0.00803507
0.00825085
0.00844542
0.00864491
0.00883464
0.00893714
0.0089115
0.00870763
0.00824516
0.00749898
0.00658582
0.00557704
0.00451614
0.00347324
0.00252641
0.0017375
0.00113495
0.000701097
0.000391033
0.00018409
9.22228e-05
9.82021e-05
0.00669857
0.00667757
0.00667659
0.00666957
0.00667163
0.00667064
0.00667372
0.00667536
0.00667884
0.00668168
0.00668543
0.00668894
0.00669299
0.00669701
0.00670143
0.00670594
0.00671045
0.00673252
0.00677102
0.00682291
0.00689294
0.00698428
0.00710329
0.00724876
0.00742934
0.0076339
0.00786998
0.00811786
0.00836914
0.00860222
0.0088469
0.00909844
0.00927924
0.00935807
0.00929754
0.00905096
0.00853934
0.00774336
0.00678217
0.00572952
0.00463636
0.00356145
0.00258516
0.00177173
0.001151
0.000705909
0.000390556
0.000182663
9.21826e-05
9.85467e-05
0.00671045
0.0066981
0.00667626
0.0066762
0.00666944
0.0066715
0.00667078
0.00667374
0.00667555
0.00667892
0.00668185
0.00668552
0.00668907
0.00669306
0.00669708
0.00670145
0.00670595
0.0067326
0.0067713
0.00682377
0.00689472
0.00698796
0.00710988
0.00726078
0.00744955
0.00766667
0.00792283
0.00819658
0.00848329
0.00876271
0.00905935
0.00936745
0.0096132
0.00977108
0.00981273
0.00970478
0.00940512
0.0088368
0.00798666
0.00697725
0.00587764
0.00475237
0.00364697
0.00264228
0.00180504
0.00116667
0.000710635
0.000390241
0.000181432
9.21846e-05
9.88746e-05
0.00673269
0.00670942
0.00669699
0.00667524
0.00667572
0.00666939
0.00667135
0.00667096
0.00667376
0.00667574
0.00667901
0.00668201
0.00668562
0.00668919
0.00669313
0.00669714
0.00670148
0.00670597
0.00677153
0.00682454
0.00689635
0.00699131
0.00711591
0.00727187
0.00746814
0.00769754
0.00797279
0.00827138
0.00859441
0.00892425
0.00928445
0.00966112
0.00997159
0.0101997
0.0103192
0.0103061
0.0101346
0.00976951
0.00913619
0.00822766
0.0071698
0.00602312
0.00486384
0.00372944
0.00269755
0.00183732
0.0011819
0.000715257
0.00039006
0.000180291
9.2182e-05
9.91749e-05
0.00677173
0.00673106
0.00670722
0.00669538
0.00667457
0.00667511
0.00666944
0.00667116
0.00667116
0.00667378
0.00667595
0.0066791
0.00668218
0.00668572
0.0066893
0.0066932
0.00669721
0.00670151
0.00670598
0.00682525
0.00689784
0.00699436
0.00712143
0.00728206
0.00748525
0.00772654
0.00801961
0.00834253
0.00870362
0.00908638
0.00951154
0.00998047
0.0103872
0.0106965
0.0108878
0.0109411
0.0108462
0.0105895
0.0101441
0.00943661
0.00846546
0.00735777
0.00616571
0.00497087
0.00380867
0.0027508
0.00186848
0.00119664
0.000719755
0.000389982
0.000179309
9.22127e-05
9.94614e-05
0.00682595
0.00676898
0.00672758
0.00670504
0.00669346
0.00667426
0.00667436
0.00666959
0.00667096
0.00667139
0.00667381
0.00667615
0.0066792
0.00668234
0.00668582
0.00668941
0.00669327
0.00669727
0.00670154
0.006706
0.0068992
0.00699714
0.00712648
0.0072914
0.00750099
0.00775364
0.00806321
0.00841048
0.00881078
0.00924639
0.00973558
0.0103199
0.0108856
0.0113317
0.0116064
0.0117118
0.0116524
0.0114386
0.0110709
0.0105286
0.00973729
0.00869933
0.0075403
0.00630449
0.00507347
0.00388452
0.00280191
0.00189846
0.00121086
0.000724118
0.000389994
0.000178387
9.22338e-05
9.96905e-05
0.0069005
0.0068225
0.006763
0.00672421
0.00670289
0.00669113
0.00667427
0.00667349
0.0066698
0.00667075
0.00667162
0.00667385
0.00667635
0.00667932
0.0066825
0.00668592
0.00668951
0.00669334
0.00669733
0.00670157
0.00670601
0.00699966
0.00713108
0.00729993
0.00751547
0.0077788
0.00810369
0.00847545
0.00891455
0.00940109
0.00995815
0.0106948
0.0114835
0.0121606
0.0125779
0.0127315
0.0126779
0.0124511
0.0120806
0.0115766
0.0109217
0.0100373
0.00892862
0.0077171
0.00643883
0.00517163
0.00395694
0.00285081
0.00192721
0.00122452
0.000728331
0.000390029
0.000177607
9.22729e-05
9.98827e-05
0.00700199
0.00689561
0.00681448
0.00675708
0.00672106
0.00670108
0.00668835
0.00667452
0.00667258
0.00667005
0.00667057
0.00667184
0.00667392
0.00667654
0.00667944
0.00668264
0.00668603
0.00668961
0.00669341
0.00669738
0.0067016
0.00670602
0.00713525
0.00730768
0.00752875
0.00780203
0.00814125
0.00853731
0.00901335
0.00954939
0.0101865
0.0111219
0.0121893
0.0131553
0.013815
0.0140772
0.0140187
0.0137464
0.013313
0.0127589
0.0121001
0.0113203
0.0103355
0.00915274
0.00788792
0.00656832
0.00526537
0.00402592
0.00289747
0.00195469
0.00123761
0.000732401
0.000390098
0.000176967
9.2301e-05
0.00010009
0.00713909
0.00699535
0.00688384
0.00680651
0.00675144
0.00671808
0.00669983
0.00668537
0.0066749
0.00667168
0.00667029
0.00667043
0.00667205
0.00667401
0.00667671
0.00667957
0.00668277
0.00668613
0.0066897
0.00669348
0.00669743
0.00670163
0.00670603
0.0073147
0.00754088
0.00782336
0.00817607
0.00859571
0.00910618
0.00969252
0.0104278
0.0116016
0.0129724
0.0142325
0.0151557
0.0156383
0.0156641
0.0153565
0.0148483
0.0141985
0.013453
0.0126317
0.0117202
0.0106302
0.00937109
0.00805258
0.00669268
0.00535473
0.00409153
0.00294187
0.0019809
0.00125012
0.00073633
0.000390174
0.000176453
9.23454e-05
0.000100315
0.00732107
0.00713014
0.00697854
0.00687207
0.00679873
0.00674603
0.00671525
0.00669881
0.00668238
0.00667525
0.00667089
0.00667047
0.00667036
0.00667222
0.00667413
0.00667687
0.0066797
0.0066829
0.00668624
0.00668979
0.00669354
0.00669748
0.00670166
0.00670604
0.00755194
0.00784285
0.00820825
0.00865029
0.00919287
0.00983257
0.010684
0.0121161
0.013774
0.0152847
0.0164297
0.017134
0.0173775
0.0171691
0.0166346
0.015914
0.0150664
0.01414
0.01316
0.0121166
0.0109195
0.00958307
0.00821093
0.00681178
0.00543967
0.00415366
0.002984
0.00200584
0.00126205
0.000739596
0.000390258
0.000175906
9.23895e-05
0.000100558
0.00756194
0.00730948
0.00710644
0.00696169
0.00686058
0.00679108
0.00674082
0.0067126
0.00669787
0.00667959
0.00667545
0.00667027
0.00667056
0.00667037
0.00667235
0.00667427
0.00667701
0.00667984
0.00668301
0.00668634
0.00668988
0.00669361
0.00669753
0.00670167
0.00670604
0.00786062
0.00823789
0.00870084
0.00927386
0.00997104
0.0109509
0.0126382
0.0145369
0.0162277
0.0175241
0.0183948
0.0188471
0.0188784
0.0184875
0.0177803
0.0168935
0.0158834
0.0148
0.0136744
0.0125043
0.0112017
0.00978808
0.00836285
0.00692557
0.00552062
0.0042123
0.00302391
0.00202951
0.0012719
0.000742404
0.000390358
0.000175337
9.24551e-05
0.000100824
0.00787654
0.00754687
0.00727672
0.00708269
0.00694522
0.00684935
0.00678351
0.00673594
0.00671006
0.00669691
0.00667724
0.00667535
0.00666989
0.00667056
0.00667044
0.00667246
0.00667442
0.00667714
0.00667997
0.00668313
0.00668645
0.00668996
0.00669368
0.00669756
0.00670167
0.00670604
0.00826509
0.00874734
0.00934986
0.010108
0.0112203
0.0131425
0.0152221
0.0170199
0.0183947
0.019363
0.0199642
0.0202123
0.0200916
0.0195814
0.0187612
0.0177597
0.0166285
0.0154181
0.0141658
0.0128789
0.0114749
0.00998558
0.00850824
0.00703386
0.00559791
0.00426763
0.00306163
0.00204899
0.0012803
0.000745497
0.000390494
0.000174737
9.25194e-05
0.000101112
0.00828944
0.00785767
0.00750193
0.00724383
0.00705946
0.00692912
0.00683833
0.00677597
0.0067314
0.00670751
0.00669575
0.00667577
0.00667491
0.00666973
0.00667048
0.00667057
0.00667255
0.00667458
0.00667727
0.00668011
0.00668324
0.00668655
0.00669004
0.00669371
0.00669756
0.00670167
0.00670604
0.00879
0.00942149
0.0102424
0.0114833
0.0136106
0.0158123
0.0176541
0.0190468
0.0200508
0.0207354
0.0211344
0.0212432
0.0210291
0.0204547
0.0195738
0.0185042
0.0172918
0.0159855
0.0146279
0.0132367
0.0117376
0.0101751
0.00864705
0.00713663
0.00567148
0.0043198
0.00309253
0.00206554
0.00128953
0.000748943
0.000390655
0.00017411
9.26116e-05
0.000101426
0.00882794
0.0082657
0.00779685
0.00745685
0.0072116
0.00703676
0.00691337
0.00682753
0.0067685
0.00672703
0.00670489
0.00669367
0.00667504
0.00667419
0.00666974
0.00667036
0.00667072
0.00667263
0.00667474
0.00667739
0.00668024
0.00668334
0.00668665
0.00669008
0.00669371
0.00669756
0.00670167
0.00670604
0.00948915
0.0103724
0.0117325
0.0140327
0.0163054
0.018144
0.0195101
0.0205018
0.021214
0.0216989
0.0219655
0.0219903
0.0217285
0.0211314
0.0202303
0.0191308
0.0178714
0.0164981
0.0150568
0.013575
0.0119884
0.0103562
0.00877925
0.00723402
0.00574134
0.00436249
0.00311873
0.00208368
0.00129969
0.000752738
0.000390867
0.00017345
9.27031e-05
0.000101766
0.0095507
0.00879865
0.00818346
0.00773577
0.00741262
0.00718006
0.00701456
0.00689799
0.006817
0.00676117
0.00672281
0.00670234
0.00669098
0.00667488
0.00667334
0.00666985
0.00667023
0.00667088
0.00667272
0.00667489
0.00667751
0.00668037
0.00668345
0.0066867
0.00669008
0.00669371
0.00669756
0.00670167
0.00670604
0.0104963
0.0119661
0.0144058
0.0167089
0.0185116
0.0198214
0.0207675
0.021465
0.021982
0.0223411
0.0225291
0.0225098
0.0222325
0.0216421
0.0207503
0.01965
0.0183713
0.0169557
0.0154506
0.0138921
0.0122264
0.0105286
0.00890488
0.0073262
0.00579881
0.00439864
0.00314736
0.00210359
0.00131089
0.000756992
0.000391114
0.000172761
9.28318e-05
0.000102137
0.0106077
0.00951399
0.008687
0.00810103
0.00767571
0.00736928
0.0071492
0.00699288
0.006883
0.00680684
0.00675391
0.00671895
0.00670008
0.00668776
0.00667502
0.00667247
0.00666999
0.00667012
0.00667104
0.0066728
0.00667505
0.00667762
0.0066805
0.0066835
0.0066867
0.00669008
0.00669371
0.00669756
0.00670167
0.00670603
0.0121852
0.0147294
0.0170343
0.0187803
0.0200161
0.020895
0.0215479
0.0220564
0.0224553
0.0227421
0.0228886
0.0228523
0.0225811
0.0220169
0.0211547
0.0200747
0.0187981
0.0173606
0.0158094
0.0141874
0.0124513
0.0106922
0.00902398
0.00740183
0.00584763
0.00443815
0.0031787
0.00212545
0.00132325
0.00076167
0.000391427
0.00017204
9.29614e-05
0.000102536
0.0105663
0.0123801
0.00935166
0.00857674
0.00801977
0.00761681
0.00732683
0.00711904
0.00697176
0.00686848
0.00679722
0.00674703
0.00671537
0.00669863
0.00668454
0.00667526
0.00667169
0.00667012
0.00667005
0.00667119
0.0066729
0.00667519
0.00667774
0.00668057
0.00668349
0.0066867
0.00669008
0.00669371
0.00669756
0.00670166
0.00670602
0.0150047
0.0172943
0.0189716
0.0201239
0.0209231
0.0215117
0.0219821
0.0223805
0.0227148
0.022965
0.0230943
0.0230587
0.022808
0.0222827
0.0214637
0.0204186
0.0191599
0.0177165
0.0161341
0.0144607
0.0126626
0.010847
0.00912179
0.00746598
0.00590113
0.00448135
0.00321301
0.00214949
0.0013369
0.000766908
0.000391793
0.000171289
9.31407e-05
0.000102973
0.010318
0.0123407
0.015229
0.00919584
0.00846848
0.00793991
0.00755908
0.00728529
0.00708963
0.00695124
0.0068545
0.00678798
0.00674055
0.00671211
0.00669747
0.0066816
0.00667541
0.00667105
0.00667021
0.00667001
0.00667132
0.006673
0.00667533
0.00667779
0.00668057
0.00668349
0.0066867
0.00669008
0.00669371
0.00669753
0.00670163
0.00670601
0.0175007
0.0191037
0.0201688
0.020882
0.0213943
0.021806
0.0221733
0.0225151
0.02282
0.0230565
0.0231842
0.0231613
0.0229407
0.0224624
0.0216951
0.0206946
0.0194649
0.0180279
0.0164266
0.0147125
0.0128604
0.0109737
0.00920481
0.0075362
0.00595982
0.00452865
0.00325063
0.00217595
0.00135202
0.000772777
0.00039225
0.000170508
9.33248e-05
0.000103439
0.0100742
0.0119871
0.0151628
0.0176541
0.00904747
0.00836173
0.00786154
0.00750252
0.00724474
0.00706101
0.00693137
0.00684102
0.00677908
0.00673453
0.00670925
0.00669641
0.00667912
0.00667539
0.00667059
0.00667024
0.00667002
0.00667144
0.00667311
0.00667541
0.00667779
0.00668057
0.00668349
0.0066867
0.00669008
0.00669368
0.00669748
0.0067016
0.00670599
0.0191911
0.0201692
0.0207945
0.0212238
0.0215633
0.0218771
0.0221946
0.0225149
0.0228128
0.02305
0.0231867
0.0231849
0.0230011
0.022575
0.0218642
0.0209142
0.019721
0.0182995
0.0166893
0.0149436
0.0130205
0.0110809
0.00929567
0.00761311
0.00602425
0.00458051
0.0032919
0.0022051
0.00136876
0.00077932
0.000392782
0.000169697
9.35754e-05
0.00010395
0.00984567
0.0116042
0.0148086
0.017555
0.0192361
0.0089041
0.00825644
0.00778479
0.00744723
0.00720524
0.00703325
0.00691219
0.0068281
0.00677066
0.0067292
0.00670663
0.00669532
0.00667735
0.00667513
0.0066703
0.00667022
0.00667007
0.00667155
0.00667317
0.00667541
0.00667778
0.00668057
0.00668349
0.0066867
0.00669004
0.00669361
0.00669743
0.00670157
0.00670598
0.0201388
0.0206774
0.0210209
0.0212799
0.0215242
0.0217927
0.0220958
0.0224172
0.022722
0.0229693
0.0231225
0.0231486
0.0230066
0.0226356
0.0219837
0.0210873
0.0199353
0.018536
0.0169246
0.0151272
0.0131552
0.0111979
0.00939516
0.00769743
0.00609506
0.00463741
0.00333723
0.00223726
0.00138734
0.000786617
0.000393435
0.000168859
9.38384e-05
0.00010449
0.00963168
0.0112271
0.0143674
0.0173249
0.0190844
0.0200777
0.008764
0.00815285
0.00770978
0.00739331
0.00716691
0.00700641
0.00689383
0.00681602
0.00676287
0.00672461
0.00670412
0.00669378
0.00667632
0.00667466
0.00667015
0.00667016
0.00667015
0.00667159
0.00667316
0.00667541
0.00667778
0.00668057
0.0066835
0.00668665
0.00668996
0.00669354
0.00669738
0.00670154
0.00670597
0.0205428
0.0208008
0.0209748
0.021139
0.0213397
0.0215985
0.0219105
0.0222473
0.0225675
0.0228314
0.0230076
0.0230672
0.0229709
0.0226564
0.0220641
0.0212225
0.0201143
0.0187416
0.0171069
0.0152796
0.0133007
0.0113255
0.00950416
0.00778996
0.00617293
0.00469994
0.0033871
0.00227277
0.00140798
0.00079482
0.000394198
0.000167992
9.4191e-05
0.000105082
0.00942925
0.0108685
0.0138796
0.0170084
0.0189277
0.0198715
0.020386
0.00862659
0.0080513
0.00763668
0.00734089
0.00712982
0.00698072
0.00687673
0.00680495
0.00675556
0.00672052
0.00670178
0.00669165
0.00667584
0.00667405
0.00667012
0.00667009
0.00667022
0.00667157
0.00667316
0.00667541
0.00667779
0.00668057
0.00668345
0.00668655
0.00668988
0.00669347
0.00669732
0.00670151
0.00670595
0.0205739
0.020662
0.0207396
0.0208587
0.0210513
0.0213249
0.0216612
0.0220216
0.0223627
0.0226488
0.022854
0.0229523
0.0229047
0.0226473
0.0221139
0.0213268
0.0202636
0.0188961
0.0172561
0.015442
0.0134579
0.0114645
0.00962358
0.00789158
0.00625866
0.00476874
0.003442
0.00231204
0.00143097
0.000803997
0.000395123
0.000167087
9.45691e-05
0.0001057
0.00923592
0.0105328
0.0133665
0.0166304
0.0187009
0.0197483
0.0201251
0.0203302
0.00849195
0.0079521
0.00756569
0.00729014
0.00709433
0.00695683
0.00686113
0.00679485
0.0067488
0.00671692
0.00669975
0.00668907
0.00667569
0.00667338
0.00667016
0.00666999
0.00667025
0.00667156
0.00667316
0.00667541
0.00667779
0.0066805
0.00668334
0.00668644
0.00668979
0.0066934
0.00669727
0.00670148
0.00670594
0.020351
0.0203393
0.0203678
0.0204773
0.0206876
0.020993
0.0213623
0.0217509
0.0221168
0.0224306
0.022671
0.0228131
0.0228164
0.0226159
0.0221399
0.0214061
0.0203704
0.0190205
0.0174125
0.0156145
0.0136272
0.011616
0.00975443
0.00800324
0.00635312
0.00484455
0.00350256
0.00235552
0.00145657
0.000814349
0.000396208
0.000166129
9.50643e-05
0.000106494
0.00905006
0.0102213
0.0128389
0.0162026
0.0184306
0.0195681
0.0200049
0.0200142
0.020026
0.00836042
0.00785563
0.007497
0.00724156
0.00706137
0.00693508
0.00684693
0.00678574
0.00674259
0.00671379
0.00669841
0.00668641
0.00667572
0.00667271
0.0066703
0.00666988
0.00667027
0.00667156
0.00667316
0.00667541
0.00667774
0.00668037
0.00668324
0.00668634
0.0066897
0.00669333
0.00669721
0.00670145
0.00670592
0.0199477
0.0198806
0.0198949
0.0200214
0.0202686
0.0206159
0.0210227
0.0214419
0.0218367
0.0221843
0.0224665
0.0226568
0.0227128
0.0225683
0.0221477
0.021456
0.0204544
0.019148
0.0175754
0.0157972
0.0138092
0.0117806
0.00989775
0.00812602
0.0064573
0.00492818
0.00356941
0.00240374
0.00148518
0.000825969
0.000397515
0.000165144
9.57152e-05
0.000107431
0.00887097
0.00993361
0.0123051
0.0157261
0.0181288
0.0193597
0.0198361
0.0198776
0.0196538
0.0195482
0.00823224
0.00776232
0.00743128
0.00719646
0.00703139
0.00691529
0.00683405
0.0067776
0.00673699
0.00671097
0.0066973
0.00668393
0.00667583
0.00667216
0.00667044
0.00666983
0.00667027
0.00667157
0.00667317
0.00667533
0.00667762
0.00668024
0.00668312
0.00668623
0.00668961
0.00669327
0.00669714
0.00670143
0.0067059
0.019407
0.019319
0.0193459
0.0195115
0.0198069
0.0202013
0.0206468
0.0210984
0.0215272
0.0219161
0.0222467
0.0224893
0.022599
0.0225092
0.0221405
0.021493
0.0205374
0.0192775
0.0177443
0.0159897
0.0140042
0.0119594
0.0100546
0.00826106
0.00657227
0.00502065
0.00364343
0.00245731
0.00151714
0.000839124
0.000399062
0.000163931