/*--------------------------------*- C++ -*----------------------------------*\
  =========                 |
  \\      /  F ield         | OpenFOAM: The Open Source CFD Toolbox
   \\    /   O peration     | Website:  https://openfoam.org
    \\  /    A nd           | Version:  8
     \\/     M anipulation  |
\*---------------------------------------------------------------------------*/
FoamFile
{
    version     2.0;
    format      ascii;
    class       volScalarField;
    location    "0.3";
    object      k;
}
// * * * * * * * * * * * * * * * * * * * * * * * * * * * * * * * * * * * * * //

dimensions      [0 2 -2 0 0 0 0];

internalField   nonuniform List<scalar> 
15677
(
0.334162
0.365034
0.29476
0.368735
0.357694
0.281038
0.370695
0.360081
0.366136
0.282763
0.371886
0.361635
0.361479
0.38334
0.288887
0.372611
0.363745
0.357745
0.368349
0.401706
0.300304
0.373039
0.365664
0.357855
0.35817
0.380138
0.4194
0.311823
0.373263
0.367181
0.359468
0.354606
0.361062
0.393323
0.434811
0.32263
0.373347
0.368306
0.361362
0.35479
0.353083
0.366923
0.406204
0.447928
0.332133
0.373348
0.369084
0.36307
0.356355
0.351142
0.353521
0.373586
0.418306
0.458792
0.340515
0.373313
0.369569
0.364445
0.358232
0.351948
0.348811
0.354807
0.380717
0.429136
0.467937
0.347602
0.373274
0.369826
0.365465
0.35997
0.353731
0.348405
0.347169
0.357133
0.387679
0.438848
0.475457
0.353818
0.373248
0.369927
0.36615
0.361403
0.355675
0.349784
0.345375
0.346343
0.359722
0.39445
0.447264
0.481876
0.359006
0.373239
0.369941
0.366549
0.362483
0.357434
0.351738
0.346224
0.342947
0.345901
0.362612
0.40069
0.454714
0.487177
0.363671
0.373239
0.369924
0.366738
0.363214
0.358865
0.353696
0.348087
0.343112
0.340875
0.34591
0.365471
0.406531
0.461047
0.49173
0.367734
0.37324
0.369908
0.366796
0.363639
0.359921
0.355402
0.350169
0.344769
0.340305
0.339204
0.346038
0.368357
0.411699
0.466629
0.495515
0.371332
0.37324
0.3699
0.366796
0.363837
0.360612
0.356748
0.352099
0.346899
0.341713
0.337834
0.337747
0.346358
0.371025
0.416446
0.471268
0.498859
0.374619
0.37324
0.369897
0.366786
0.363895
0.360993
0.3577
0.353699
0.348995
0.343847
0.338941
0.335589
0.336529
0.346744
0.373622
0.420477
0.475338
0.501739
0.377428
0.37324
0.369894
0.366778
0.363902
0.361142
0.358286
0.354897
0.350813
0.346077
0.341038
0.336388
0.333601
0.335447
0.347245
0.375874
0.424095
0.478683
0.504284
0.380263
0.37324
0.369893
0.366772
0.363896
0.361185
0.358555
0.355688
0.352238
0.348086
0.343366
0.338434
0.334085
0.331782
0.334571
0.347669
0.377974
0.427041
0.481605
0.506635
0.382482
0.37324
0.369892
0.366768
0.363889
0.361189
0.358659
0.356087
0.353234
0.349717
0.34554
0.340848
0.336066
0.331965
0.330203
0.333765
0.348133
0.379682
0.429648
0.483992
0.508655
0.38512
0.37324
0.36989
0.366765
0.363882
0.361183
0.35869
0.35626
0.353779
0.350905
0.347362
0.343176
0.338549
0.333893
0.330098
0.32877
0.333121
0.348477
0.381223
0.431648
0.486072
0.51077
0.386889
0.37324
0.36989
0.366763
0.363877
0.361174
0.358692
0.356323
0.35404
0.351585
0.34874
0.345177
0.341013
0.336455
0.33198
0.328419
0.32757
0.332526
0.348821
0.382376
0.433436
0.487778
0.512452
0.389508
0.37324
0.369889
0.366762
0.363873
0.361167
0.358684
0.356338
0.354153
0.35193
0.349572
0.346727
0.343181
0.339068
0.334621
0.330278
0.327016
0.326521
0.332088
0.349062
0.383413
0.434665
0.489301
0.514589
0.390961
0.373241
0.369888
0.366761
0.36387
0.361162
0.358675
0.356334
0.354191
0.35209
0.350021
0.347687
0.344912
0.341415
0.33737
0.333019
0.32889
0.325842
0.325751
0.331721
0.349289
0.384088
0.435864
0.490526
0.516015
0.393582
0.373241
0.369888
0.36676
0.363867
0.361157
0.358666
0.356325
0.354194
0.352152
0.350246
0.348219
0.346032
0.343312
0.339874
0.335947
0.33178
0.327787
0.324993
0.325129
0.331508
0.349484
0.384753
0.436528
0.491827
0.518555
0.394983
0.373241
0.369888
0.36676
0.363865
0.361154
0.358658
0.356314
0.354184
0.352166
0.350341
0.348496
0.346684
0.344546
0.341957
0.338684
0.334894
0.330807
0.327013
0.324412
0.324921
0.33154
0.349738
0.38513
0.437377
0.492663
0.520215
0.505452
0.373241
0.369888
0.366759
0.363863
0.361151
0.358652
0.356305
0.35417
0.35216
0.350369
0.348625
0.34704
0.345269
0.343387
0.340965
0.337764
0.334123
0.330357
0.326804
0.324428
0.325023
0.331696
0.349989
0.385568
0.437757
0.49454
0.528932
0.714449
0.373241
0.369887
0.366759
0.363862
0.361149
0.358647
0.356298
0.354156
0.352147
0.350363
0.348672
0.347208
0.345677
0.344267
0.342479
0.340236
0.337424
0.334129
0.330473
0.327004
0.324685
0.325366
0.332055
0.350366
0.385894
0.438569
0.495096
0.545811
0.893846
0.373241
0.369887
0.366759
0.363861
0.361148
0.358643
0.356292
0.354144
0.352132
0.350345
0.348677
0.347269
0.345891
0.344776
0.3434
0.34206
0.340275
0.337624
0.33446
0.33096
0.327601
0.325334
0.326078
0.33275
0.350893
0.386298
0.439161
0.494825
0.558937
1.03996
0.373241
0.369887
0.366758
0.36386
0.361146
0.35864
0.356286
0.354134
0.352118
0.350323
0.348663
0.347274
0.345985
0.345027
0.343955
0.343237
0.34223
0.340664
0.338273
0.335325
0.332026
0.328817
0.326591
0.327298
0.333789
0.351614
0.38692
0.438914
0.49337
0.568822
1.16775
0.373241
0.369887
0.366758
0.363859
0.361145
0.358637
0.356282
0.354126
0.352106
0.350303
0.348641
0.347253
0.346011
0.345128
0.344291
0.343961
0.343495
0.342831
0.341625
0.339623
0.337014
0.333941
0.330772
0.328486
0.328986
0.335224
0.352636
0.387449
0.438037
0.49029
0.575716
1.27264
0.373241
0.369887
0.366758
0.363859
0.361144
0.358635
0.356279
0.35412
0.352096
0.350286
0.348619
0.347222
0.346
0.34515
0.344458
0.344343
0.344287
0.34425
0.344104
0.343488
0.341926
0.339616
0.33667
0.333494
0.331016
0.331222
0.337085
0.353912
0.387909
0.436219
0.485011
0.580304
1.35099
0.373241
0.369887
0.366758
0.363858
0.361143
0.358633
0.356276
0.354114
0.352088
0.350272
0.3486
0.347192
0.345972
0.345131
0.344519
0.344535
0.344742
0.345161
0.345781
0.346381
0.346355
0.345226
0.343182
0.340327
0.337022
0.334274
0.334014
0.339413
0.355444
0.388062
0.433158
0.478348
0.583279
1.41149
0.373241
0.369887
0.366758
0.363858
0.361143
0.358631
0.356273
0.354109
0.35208
0.35026
0.348582
0.347166
0.345941
0.345094
0.344521
0.344612
0.344982
0.345717
0.346897
0.348358
0.349718
0.350344
0.349646
0.347842
0.34497
0.341462
0.338271
0.337428
0.342197
0.357174
0.387974
0.429068
0.471743
0.585795
1.46018
0.369887
0.373245
0.366758
0.363857
0.361142
0.35863
0.356271
0.354105
0.352074
0.35025
0.348567
0.347143
0.345911
0.345055
0.344493
0.344624
0.345091
0.34603
0.347615
0.349712
0.352073
0.354293
0.355609
0.355337
0.353681
0.350723
0.346834
0.34309
0.341434
0.345429
0.359382
0.387692
0.424909
0.465498
0.588232
1.501
0.366758
0.369897
0.373252
0.363857
0.361142
0.358629
0.356269
0.354102
0.352069
0.350241
0.348554
0.347123
0.345884
0.345018
0.344455
0.344603
0.345126
0.346193
0.348053
0.35062
0.353737
0.357127
0.360289
0.362325
0.36241
0.360839
0.357615
0.353238
0.348697
0.346064
0.349425
0.362097
0.387349
0.420851
0.459926
0.59107
1.53655
0.363857
0.366775
0.369918
0.37326
0.361141
0.358628
0.356268
0.354099
0.352064
0.350233
0.348542
0.347106
0.34586
0.344986
0.344418
0.344569
0.34512
0.346269
0.348312
0.351216
0.354903
0.359195
0.363728
0.367905
0.370636
0.371025
0.369363
0.365767
0.360637
0.355133
0.351901
0.35439
0.365186
0.387038
0.417092
0.455008
0.59413
1.56838
0.361141
0.363878
0.366808
0.369939
0.373267
0.358627
0.356266
0.354096
0.35206
0.350227
0.348532
0.347091
0.345839
0.344957
0.344383
0.344534
0.345099
0.346296
0.348465
0.351611
0.355724
0.360711
0.366321
0.372105
0.37732
0.380725
0.381254
0.379394
0.375141
0.369092
0.363174
0.359264
0.359882
0.368482
0.387098
0.413734
0.450837
0.597681
1.59758
0.358626
0.361168
0.363923
0.366843
0.369961
0.373275
0.356265
0.354094
0.352057
0.350221
0.348523
0.347079
0.345821
0.344932
0.344353
0.344501
0.345073
0.346302
0.348556
0.351884
0.35632
0.361845
0.368305
0.375374
0.382468
0.388745
0.392695
0.39326
0.3909
0.385825
0.379616
0.373255
0.367446
0.365862
0.372223
0.387393
0.410767
0.447255
0.601372
1.62464
0.356264
0.358657
0.361223
0.363969
0.366878
0.369984
0.373284
0.354092
0.352054
0.350216
0.348516
0.347068
0.345805
0.344911
0.344326
0.344473
0.345049
0.346299
0.348614
0.352082
0.356783
0.362736
0.369878
0.377983
0.386602
0.395065
0.402315
0.406731
0.407018
0.404
0.399095
0.392767
0.384427
0.376378
0.372248
0.376073
0.388022
0.408312
0.444189
0.605411
1.65011
0.35409
0.356299
0.358721
0.36128
0.364016
0.366915
0.370007
0.373292
0.352051
0.350212
0.348509
0.347059
0.345791
0.344892
0.344303
0.344447
0.345027
0.346295
0.348657
0.352234
0.357155
0.363482
0.371191
0.380157
0.390037
0.400302
0.410072
0.418255
0.42283
0.422678
0.420256
0.415663
0.407309
0.396588
0.385955
0.379084
0.380065
0.389059
0.406335
0.441627
0.60946
1.67401
0.352049
0.354128
0.356372
0.358787
0.361338
0.364065
0.366952
0.370031
0.373301
0.350208
0.348504
0.347051
0.345779
0.344877
0.344282
0.344426
0.345008
0.346291
0.348692
0.352362
0.357466
0.364125
0.372359
0.382068
0.393026
0.404817
0.416703
0.427779
0.436598
0.441188
0.442115
0.440543
0.433956
0.423107
0.409611
0.396095
0.386286
0.384226
0.39038
0.404776
0.439469
0.613705
1.69676
0.350205
0.35209
0.354207
0.356447
0.358855
0.361398
0.364114
0.366991
0.370056
0.37331
0.348499
0.347044
0.345768
0.344863
0.344265
0.344407
0.344992
0.346288
0.348725
0.352474
0.357737
0.364685
0.373414
0.383845
0.395767
0.408899
0.422612
0.436158
0.44826
0.457622
0.464033
0.46641
0.462936
0.453802
0.439992
0.423366
0.406704
0.393776
0.388549
0.391961
0.403664
0.43773
0.617859
1.71812
0.348495
0.350247
0.352175
0.354289
0.356524
0.358924
0.36146
0.364166
0.36703
0.370081
0.373319
0.347038
0.345758
0.344852
0.344249
0.34439
0.344979
0.346287
0.348754
0.352577
0.357982
0.365186
0.37436
0.385505
0.398409
0.412783
0.428143
0.443861
0.458794
0.471875
0.48393
0.492745
0.493294
0.487242
0.474989
0.45779
0.437715
0.417681
0.401486
0.393005
0.393641
0.402916
0.436293
0.622096
1.73853
0.347032
0.348536
0.350335
0.352263
0.354372
0.356603
0.358996
0.361524
0.364218
0.367071
0.370107
0.373328
0.345749
0.344843
0.344235
0.344376
0.344967
0.346286
0.348783
0.352671
0.358204
0.365643
0.375223
0.387028
0.400947
0.416642
0.433569
0.4513
0.468766
0.485092
0.501595
0.517234
0.524744
0.522603
0.513225
0.497305
0.476318
0.452517
0.428925
0.409345
0.39761
0.395416
0.402467
0.43518
0.626177
1.75764
0.345742
0.347072
0.348625
0.350426
0.352353
0.354459
0.356685
0.359069
0.361589
0.364272
0.367112
0.370133
0.373338
0.344835
0.344222
0.344363
0.344957
0.346287
0.348809
0.352757
0.358408
0.366063
0.376018
0.388435
0.403321
0.420439
0.439099
0.458809
0.478676
0.497966
0.518438
0.53956
0.554635
0.559848
0.554102
0.540661
0.520535
0.495395
0.46763
0.440334
0.417294
0.402309
0.397286
0.402267
0.434278
0.630267
1.77593
0.344829
0.345775
0.347158
0.348717
0.350519
0.352447
0.354548
0.356769
0.359145
0.361656
0.364327
0.367155
0.37016
0.373347
0.34421
0.344352
0.344949
0.346288
0.348834
0.352836
0.358595
0.366449
0.376751
0.389743
0.405546
0.424045
0.444648
0.466652
0.488939
0.511114
0.535322
0.561513
0.582636
0.596039
0.597823
0.587534
0.56932
0.544467
0.514841
0.482919
0.451814
0.425274
0.407062
0.399227
0.402308
0.433626
0.634158
1.79295
0.344199
0.344856
0.345849
0.347246
0.348813
0.350616
0.352543
0.354639
0.356855
0.359223
0.361725
0.364384
0.367199
0.370187
0.373356
0.344341
0.344941
0.34629
0.348857
0.352909
0.358766
0.366803
0.377427
0.390958
0.407633
0.42746
0.450004
0.474693
0.499889
0.525066
0.553055
0.584244
0.611023
0.630891
0.641308
0.638434
0.622624
0.598953
0.568892
0.534491
0.498258
0.463279
0.43323
0.411828
0.401233
0.402437
0.433129
0.63802
1.80926
0.344335
0.344199
0.344918
0.345926
0.347339
0.348913
0.350716
0.352643
0.354733
0.356944
0.359303
0.361796
0.364443
0.367242
0.370213
0.373365
0.344934
0.346291
0.348878
0.352976
0.358922
0.367127
0.378048
0.392085
0.409584
0.430689
0.455147
0.482584
0.511299
0.540287
0.572386
0.608898
0.641391
0.667365
0.684423
0.690349
0.68146
0.659107
0.629317
0.593625
0.554197
0.513538
0.474653
0.441112
0.416574
0.403277
0.402684
0.432843
0.641655
1.82434
0.344931
0.344318
0.344208
0.344981
0.346008
0.347434
0.349016
0.350819
0.352746
0.35483
0.357036
0.359385
0.361868
0.3645
0.367284
0.370239
0.373374
0.346292
0.348896
0.353037
0.359064
0.367423
0.378618
0.393126
0.411402
0.433733
0.460066
0.490242
0.522637
0.556532
0.594039
0.636613
0.675463
0.707843
0.73122
0.743547
0.743166
0.726715
0.696739
0.660178
0.618487
0.573825
0.52866
0.485867
0.448877
0.42127
0.405361
0.403016
0.432645
0.645247
1.83882
0.346298
0.344883
0.344286
0.344217
0.345048
0.346096
0.347533
0.349124
0.350925
0.352852
0.354929
0.35713
0.359469
0.361939
0.364556
0.367325
0.370263
0.373382
0.348912
0.353091
0.359194
0.367694
0.379141
0.394085
0.41309
0.436589
0.464746
0.497625
0.533794
0.573093
0.617684
0.668564
0.715233
0.75532
0.785611
0.803861
0.808842
0.799866
0.774059
0.73531
0.691336
0.643318
0.59326
0.543542
0.496865
0.456486
0.425892
0.40746
0.403414
0.432601
0.648592
1.85213
0.348933
0.346204
0.344779
0.344249
0.344241
0.345117
0.346191
0.347636
0.349235
0.351034
0.352961
0.355032
0.357225
0.359552
0.362009
0.364611
0.367364
0.370287
0.37339
0.353138
0.35931
0.36794
0.379619
0.394968
0.414653
0.439258
0.469173
0.504703
0.544734
0.589759
0.642114
0.704564
0.763395
0.813995
0.853158
0.877821
0.886982
0.881009
0.860591
0.823374
0.774634
0.722614
0.667978
0.612403
0.558115
0.507598
0.463908
0.430418
0.409559
0.403857
0.432629
0.651899
1.86494
0.353192
0.348762
0.345986
0.344666
0.344211
0.344284
0.345188
0.346292
0.347742
0.349351
0.351147
0.353073
0.355137
0.357321
0.359633
0.362077
0.364664
0.367403
0.370311
0.373398
0.359414
0.368162
0.380055
0.395777
0.416096
0.441744
0.473338
0.511456
0.555404
0.606346
0.666911
0.743499
0.821516
0.890017
0.941773
0.974673
0.987583
0.982004
0.960531
0.925373
0.874518
0.814534
0.753857
0.692345
0.631174
0.572323
0.518028
0.471118
0.434831
0.411639
0.404345
0.432703
0.654947
1.87519
0.359523
0.35293
0.348351
0.345755
0.344563
0.344171
0.344342
0.345261
0.346399
0.347851
0.349471
0.351263
0.353188
0.355241
0.357413
0.359712
0.362142
0.364715
0.367441
0.370333
0.373406
0.368364
0.380449
0.396518
0.417424
0.444051
0.477244
0.51787
0.565737
0.62266
0.692027
0.785763
0.889136
0.987045
1.06119
1.1058
1.12335
1.11627
1.08928
1.04734
0.994006
0.927272
0.854824
0.784922
0.716314
0.649503
0.58612
0.528125
0.478096
0.439115
0.413689
0.404855
0.432852
0.657552
1.88385
0.368565
0.35914
0.352263
0.347922
0.345543
0.344472
0.344134
0.344412
0.345338
0.346511
0.347965
0.349594
0.351383
0.353302
0.355343
0.357503
0.359789
0.362206
0.364766
0.367477
0.370356
0.373414
0.380811
0.397192
0.418645
0.446188
0.480894
0.523936
0.575666
0.638585
0.717616
0.831835
0.966012
1.10147
1.21333
1.28161
1.30682
1.29832
1.26264
1.20774
1.14066
1.06598
0.981322
0.895304
0.815678
0.739793
0.667334
0.599474
0.537868
0.484824
0.44326
0.415697
0.405393
0.432996
0.659729
1.89318
0.381158
0.368026
0.358109
0.351571
0.34752
0.34535
0.344388
0.344105
0.344489
0.34542
0.346629
0.348084
0.349721
0.351502
0.353413
0.355442
0.357591
0.359864
0.362268
0.364814
0.367512
0.370377
0.373421
0.397813
0.419762
0.448161
0.484296
0.529649
0.58515
0.654083
0.743845
0.881502
1.05034
1.22826
1.38638
1.49795
1.546
1.53935
1.49495
1.4233
1.33513
1.23913
1.14053
1.03626
0.935753
0.845997
0.762709
0.68462
0.612355
0.547239
0.491293
0.447258
0.417655
0.405862
0.433163
0.662084
1.90338
0.398395
0.380424
0.366486
0.357045
0.350916
0.347146
0.34517
0.344313
0.344085
0.344573
0.345508
0.34675
0.348207
0.349847
0.351619
0.353521
0.355538
0.357676
0.359937
0.362328
0.364862
0.367546
0.370398
0.373424
0.420797
0.44998
0.487457
0.535007
0.594172
0.669169
0.770727
0.933844
1.13913
1.36154
1.56977
1.73405
1.82976
1.8442
1.79507
1.70696
1.59381
1.46856
1.34102
1.2167
1.09161
0.975937
0.875758
0.784998
0.701325
0.624746
0.556227
0.497496
0.4511
0.419304
0.406288
0.433343
0.664675
1.91445
0.421745
0.397421
0.378174
0.364905
0.356034
0.350297
0.346794
0.345003
0.344248
0.344077
0.344662
0.345605
0.346875
0.348332
0.349969
0.351734
0.353625
0.355632
0.357758
0.360008
0.362387
0.364908
0.36758
0.370408
0.373424
0.451673
0.490392
0.540019
0.602731
0.683858
0.798094
0.9876
1.22935
1.49598
1.7552
1.97597
2.13034
2.19626
2.16575
2.06567
1.92805
1.76972
1.6051
1.44455
1.29348
1.14688
1.01562
0.904851
0.806603
0.71742
0.636633
0.564829
0.503427
0.454297
0.420728
0.406765
0.433612
0.667512
1.92663
0.453197
0.420483
0.39419
0.375882
0.363401
0.355071
0.349706
0.346462
0.344848
0.344195
0.34408
0.344754
0.34571
0.346999
0.348455
0.350088
0.351845
0.353727
0.355724
0.357839
0.360076
0.362444
0.364953
0.367596
0.370408
0.373424
0.493134
0.544703
0.610845
0.698153
0.825653
1.04153
1.31856
1.62772
1.93672
2.2146
2.43201
2.56248
2.5866
2.50162
2.34398
2.15282
1.94713
1.7421
1.54802
1.36992
1.20158
1.05458
0.933169
0.827477
0.732887
0.648011
0.573039
0.508341
0.457035
0.422314
0.407331
0.433903
0.670628
1.93984
0.495563
0.451576
0.415893
0.390924
0.373698
0.361961
0.354145
0.349139
0.346151
0.344707
0.344152
0.3441
0.344846
0.34582
0.34712
0.348577
0.350205
0.351954
0.353827
0.355813
0.357917
0.360144
0.362499
0.364975
0.367596
0.370408
0.373424
0.549102
0.618547
0.712049
0.853079
1.0946
1.40505
1.75431
2.11063
2.44398
2.72516
2.92556
3.01988
2.99175
2.84441
2.62422
2.3769
2.12289
1.87737
1.65004
1.44516
1.25527
1.0926
0.96062
0.847585
0.747713
0.658877
0.579831
0.512536
0.460062
0.424087
0.407969
0.434317
0.674049
1.9544
0.552959
0.493501
0.445108
0.411298
0.387813
0.371603
0.360571
0.353253
0.348596
0.345863
0.344577
0.344119
0.344144
0.344936
0.345933
0.347237
0.348696
0.350318
0.352061
0.353923
0.3559
0.357993
0.360209
0.362527
0.364975
0.367596
0.370408
0.373424
0.62589
0.725543
0.880082
1.14604
1.48774
1.87436
2.27488
2.66059
3.00351
3.27494
3.44632
3.49358
3.40416
3.18809
2.9018
2.59696
2.2946
2.00923
1.74945
1.5185
1.30756
1.1295
0.987127
0.866899
0.76189
0.667868
0.585623
0.517159
0.463414
0.426071
0.408735
0.434763
0.677807
1.97019
0.632344
0.550322
0.484403
0.438697
0.406921
0.384821
0.369575
0.359228
0.352394
0.348075
0.345596
0.34446
0.344082
0.344209
0.345023
0.346048
0.347352
0.348814
0.350428
0.352164
0.354017
0.355985
0.358067
0.360241
0.362526
0.364975
0.367596
0.370408
0.373424
0.738626
0.906428
1.19533
1.56599
1.98714
2.4285
2.86268
3.26343
3.60347
3.85367
3.9852
3.97572
3.81738
3.52775
3.17319
2.81052
2.46052
2.13645
1.84542
1.58939
1.35814
1.16513
1.01263
0.885398
0.773632
0.675537
0.591999
0.522259
0.467132
0.428303
0.409598
0.435379
0.681975
1.98762
0.750187
0.629005
0.53739
0.475493
0.432593
0.402706
0.381921
0.367609
0.35793
0.351569
0.347579
0.345349
0.344355
0.344046
0.344286
0.345109
0.346162
0.347465
0.348929
0.350536
0.352266
0.354109
0.356067
0.358103
0.360241
0.362526
0.364975
0.367596
0.370408
0.373421
0.931903
1.24213
1.63949
2.09238
2.57117
3.04957
3.50313
3.9069
4.23329
4.45202
4.53396
4.45926
4.22587
3.85942
3.43574
3.01579
2.61943
2.25819
1.93734
1.65743
1.40677
1.19938
1.03708
0.900739
0.783654
0.683983
0.599028
0.527897
0.471266
0.430809
0.410642
0.435983
0.686546
2.00646
0.746092
0.954267
0.609822
0.524994
0.46701
0.426706
0.398614
0.379104
0.365707
0.35668
0.35078
0.347113
0.345125
0.344266
0.34402
0.344368
0.345196
0.346275
0.347576
0.349041
0.35064
0.352364
0.354198
0.356108
0.358103
0.360241
0.362526
0.364975
0.367596
0.370398
0.373413
1.2862
1.70815
2.19009
2.70294
3.22127
3.72218
4.18324
4.57985
4.88321
5.06128
5.08492
4.93788
4.62496
4.17997
3.68746
3.21157
2.77059
2.37392
2.02484
1.72236
1.4533
1.23216
1.05736
0.913842
0.794697
0.693298
0.606789
0.534139
0.47587
0.433645
0.411818
0.436779
0.691672
2.0273
0.715955
0.950149
1.32413
0.592002
0.513237
0.458818
0.420987
0.394636
0.376374
0.36387
0.355479
0.350028
0.346681
0.344929
0.344193
0.344007
0.344453
0.345284
0.346387
0.347685
0.34915
0.350743
0.35246
0.354241
0.356108
0.358103
0.360241
0.362526
0.364975
0.36758
0.370377
0.373406
1.77191
2.28046
2.82419
3.37824
3.92096
4.4322
4.8909
5.27188
5.54406
5.67323
5.63096
5.40598
5.01074
4.487
3.92701
3.39713
2.91357
2.48335
2.1077
1.784
1.4976
1.25929
1.07468
0.928291
0.806882
0.703586
0.615373
0.541063
0.481011
0.436843
0.413249
0.437574
0.697273
2.04972
0.68829
0.902291
1.32018
1.82621
0.575385
0.501876
0.450856
0.415426
0.390776
0.373735
0.362102
0.354331
0.349323
0.346295
0.34476
0.344135
0.344007
0.344537
0.345374
0.346496
0.347793
0.349257
0.350843
0.352508
0.354241
0.356108
0.358103
0.360241
0.362526
0.364952
0.367546
0.370355
0.373398
2.36366
2.93541
3.52126
4.10043
4.65469
5.16631
5.61487
5.97336
6.20725
6.28012
6.16558
5.8587
5.38008
4.77877
4.15355
3.57207
3.04816
2.58639
2.18585
1.84228
1.53407
1.28242
1.09377
0.944242
0.820348
0.714967
0.624884
0.548757
0.486762
0.440487
0.414864
0.438628
0.703646
2.07458
0.662888
0.857064
1.2509
1.82337
2.43386
0.559501
0.490822
0.443114
0.410027
0.387042
0.371191
0.360408
0.353247
0.348682
0.345956
0.344615
0.344093
0.344019
0.344621
0.345467
0.346602
0.347899
0.349363
0.350893
0.352507
0.354241
0.356107
0.358103
0.360241
0.362499
0.364907
0.367511
0.370333
0.37339
3.03704
3.65128
4.26198
4.85238
5.40766
5.9122
6.34496
6.67544
6.86466
6.87472
6.68291
6.29198
5.7306
5.05415
4.36662
3.73628
3.1744
2.68309
2.2593
1.88996
1.56506
1.30786
1.11483
0.961874
0.835249
0.727578
0.63544
0.557325
0.493215
0.444617
0.416838
0.439716
0.710568
2.10111
0.639103
0.814704
1.18278
1.73515
2.43304
3.12205
0.544143
0.480068
0.435605
0.404802
0.383441
0.368749
0.358801
0.352252
0.34811
0.34566
0.344492
0.344063
0.344046
0.344701
0.34556
0.346707
0.348005
0.349415
0.350891
0.352507
0.354241
0.356107
0.358103
0.360208
0.362443
0.36486
0.367476
0.37031
0.373382
3.76907
4.40716
5.0275
5.61761
6.16626
6.65892
7.07212
7.36996
7.50871
7.45034
7.17786
6.70259
6.06069
5.31252
4.5661
3.88986
3.29246
2.77357
2.31906
1.93029
1.599
1.33585
1.13809
0.981385
0.851762
0.741576
0.647181
0.566889
0.500469
0.449355
0.419079
0.441155
0.71859
2.1306
0.616595
0.774815
1.11629
1.64666
2.32843
3.12372
3.86641
0.529257
0.469634
0.428342
0.399762
0.379981
0.366429
0.357323
0.35136
0.347598
0.345403
0.344388
0.34404
0.34409
0.344778
0.345656
0.346813
0.348056
0.349413
0.350891
0.352507
0.354241
0.356107
0.358066
0.360142
0.362385
0.364813
0.367439
0.370287
0.373374
4.53726
5.1825
5.79956
6.38103
6.91857
7.39713
7.78836
8.0494
8.13222
8.00092
7.6462
7.08819
6.36935
5.55363
4.75214
4.03309
3.40259
2.8469
2.36943
1.97426
1.63618
1.36665
1.16378
1.003
0.870088
0.757141
0.660267
0.577588
0.508656
0.454759
0.42183
0.442701
0.727217
2.1617
0.595211
0.737272
1.05123
1.55831
2.2225
3.00474
3.86986
4.64271
0.514843
0.459548
0.421342
0.39492
0.376694
0.364293
0.355992
0.350558
0.34714
0.345183
0.344299
0.344012
0.344146
0.344856
0.345757
0.346863
0.348052
0.349413
0.350891
0.352507
0.354241
0.356066
0.357991
0.360074
0.362326
0.364764
0.367402
0.370263
0.373365
5.31931
5.9571
6.56144
7.12948
7.65479
8.11912
8.48661
8.70667
8.72852
8.5212
8.08468
7.44727
6.65616
5.77768
4.92512
4.16633
3.49159
2.90856
2.42415
2.02217
1.67688
1.40055
1.19217
1.02696
0.890453
0.774477
0.674881
0.589589
0.517909
0.461006
0.424983
0.444725
0.737441
2.20231
0.574867
0.702112
0.987702
1.4697
2.11564
2.88404
3.73783
4.64574
5.4271
0.500922
0.449837
0.414624
0.390321
0.373665
0.362365
0.354793
0.349838
0.346731
0.344992
0.344224
0.343989
0.344211
0.344942
0.345805
0.346857
0.348052
0.349413
0.350891
0.352507
0.354197
0.355983
0.357914
0.360005
0.362265
0.364713
0.367363
0.370238
0.373356
6.09309
6.71263
7.29854
7.85246
8.36734
8.81838
9.16041
9.33501
9.29146
9.00685
8.49103
7.77908
6.92127
5.9851
5.0855
4.27372
3.56626
2.97535
2.48355
2.07435
1.72142
1.43785
1.22355
1.05354
0.913109
0.793819
0.69124
0.603084
0.52842
0.468182
0.428869
0.446983
0.750265
2.25131
0.555497
0.669399
0.926129
1.3807
2.0073
2.76181
3.60443
4.50107
5.42606
6.19662
0.487522
0.440533
0.408249
0.386084
0.370931
0.360626
0.353712
0.349191
0.346368
0.344828
0.344161
0.34398
0.344292
0.344977
0.345799
0.346856
0.348052
0.349413
0.350892
0.352459
0.354106
0.355897
0.357835
0.359934
0.362203
0.364662
0.367324
0.370213
0.373347
6.83867
7.43287
7.99941
8.54243
9.05017
9.4895
9.80367
9.92788
9.81562
9.45463
8.86401
8.08365
7.1652
6.17652
5.21433
4.36365
3.64699
3.04765
2.54798
2.13113
1.77012
1.47885
1.25823
1.08304
0.938339
0.815431
0.709588
0.618306
0.540378
0.476547
0.433385
0.45051
0.767432
2.30065
0.537051
0.639142
0.867096
1.29154
1.89708
2.63739
3.46958
4.3563
5.26785
6.18693
6.92982
0.474679
0.431723
0.402381
0.382261
0.368463
0.359057
0.35274
0.348613
0.346048
0.344685
0.344116
0.344
0.344329
0.34496
0.345799
0.346856
0.348052
0.349414
0.350842
0.352361
0.354014
0.35581
0.357755
0.359861
0.362139
0.364609
0.367283
0.370187
0.373338
7.53812
8.10526
8.65654
9.19339
9.69871
10.1279
10.4104
10.4789
10.2965
9.86247
9.20339
8.36159
7.38877
6.3295
5.32194
4.46065
3.73417
3.12583
2.61779
2.19284
1.8233
1.5239
1.29653
1.11578
0.96645
0.839607
0.730209
0.635511
0.554053
0.486246
0.440021
0.454985
0.786381
2.34987
0.519496
0.611261
0.811274
1.20271
1.78483
2.51008
3.33255
4.21096
5.11197
6.01254
6.90551
7.60745
0.462521
0.423637
0.397093
0.378814
0.366237
0.357643
0.351866
0.348094
0.345765
0.34457
0.344107
0.343997
0.344316
0.344957
0.345799
0.346856
0.348055
0.349361
0.35074
0.352262
0.353919
0.35572
0.357672
0.359786
0.362074
0.364554
0.367241
0.37016
0.373328
8.17769
8.72179
9.2584
9.79206
10.2992
10.7238
10.9735
10.9821
10.7308
10.2297
9.50978
8.61393
7.56611
6.4568
5.43766
4.56514
3.82821
3.21028
2.69332
2.25982
1.88129
1.5733
1.33879
1.15208
0.997771
0.866676
0.753416
0.655028
0.569731
0.499767
0.449098
0.461111
0.80763
2.39839
0.502927
0.585604
0.759328
1.11494
1.67065
2.37935
3.19236
4.06431
4.95743
5.84452
6.71128
7.56093
8.21527
0.451372
0.416369
0.392329
0.375705
0.364229
0.356369
0.351077
0.347628
0.345527
0.344509
0.344088
0.343963
0.344317
0.344956
0.345798
0.346861
0.348002
0.349254
0.350637
0.35216
0.353822
0.355628
0.357587
0.359709
0.362007
0.364499
0.367198
0.370133
0.373319
8.74702
9.27156
9.80661
10.3479
10.8544
11.2691
11.4855
11.4326
11.117
10.5567
9.78448
8.81202
7.71285
6.59308
5.56188
4.67752
3.92948
3.30134
2.77493
2.33238
1.94441
1.62738
1.38532
1.19229
1.03265
0.896974
0.779582
0.677199
0.591126
0.517976
0.46027
0.468044
0.831254
2.44583
0.487731
0.562105
0.711815
1.02918
1.55484
2.24488
3.04809
3.91517
4.80348
5.68099
6.52889
7.34276
8.13315
8.74486
0.441375
0.409838
0.388038
0.372904
0.362419
0.355218
0.350365
0.347229
0.345372
0.344459
0.344046
0.343959
0.344317
0.344958
0.345803
0.34681
0.347895
0.349146
0.350531
0.352056
0.353723
0.355534
0.357499
0.35963
0.361937
0.364442
0.367155
0.370106
0.373309
9.24264
9.75481
10.2992
10.8606
11.3708
11.7624
11.9399
11.8276
11.4551
10.8449
9.99704
8.97463
7.86889
6.73859
5.69492
4.79813
4.03834
3.39937
2.86292
2.41081
2.01293
1.68644
1.43645
1.23673
1.07142
0.93088
0.809051
0.707124
0.619341
0.539084
0.473488
0.476881
0.857687
2.49165
0.474081
0.541025
0.669376
0.946647
1.4379
2.10651
2.89894
3.76226
4.64879
5.52113
6.35547
7.14286
7.88821
8.60552
9.17895
0.432423
0.40397
0.384177
0.37038
0.360783
0.354175
0.349747
0.346945
0.345265
0.344401
0.344043
0.343958
0.344314
0.344973
0.345753
0.346703
0.347788
0.349035
0.350423
0.351949
0.35362
0.355437
0.35741
0.35955
0.361867
0.364384
0.367111
0.37008
0.3733
9.65177
10.1654
10.7339
11.3249
11.8409
12.1974
12.3312
12.1666
11.7464
11.0635
10.1696
9.1459
8.03417
6.89346
5.83702
4.92727
4.15511
3.50465
2.95757
2.49537
2.08711
1.75074
1.49244
1.2857
1.11442
0.968697
0.848431
0.745848
0.650981
0.563264
0.489673
0.487205
0.887382
2.53533
0.461841
0.522305
0.632859
0.86934
1.32069
1.96428
2.74418
3.60428
4.49175
5.36342
6.19006
6.95776
7.66758
8.33189
8.97247
9.50984
0.424414
0.398698
0.380702
0.368099
0.3593
0.353265
0.34929
0.346766
0.345182
0.344398
0.344042
0.34396
0.344325
0.344936
0.34565
0.346596
0.347679
0.348922
0.350312
0.35184
0.353516
0.355339
0.357318
0.359467
0.361794
0.364326
0.367069
0.370055
0.373292
9.9706
10.5023
11.1123
11.7393
12.2554
12.5656
12.6538
12.4496
11.9609
11.2382
10.3489
9.32526
8.20841
7.05765
5.9883
5.06515
4.28
3.61742
3.05909
2.58627
2.16713
1.82045
1.55351
1.33944
1.16188
1.01866
0.898401
0.78817
0.686125
0.591046
0.50892
0.500227
0.920452
2.57634
0.450891
0.505547
0.60215
0.80055
1.20531
1.81847
2.58323
3.43992
4.33066
5.20604
6.03087
6.78623
7.46856
8.0877
8.6632
9.22478
9.73211
0.41725
0.393963
0.377568
0.366035
0.358001
0.352574
0.349011
0.346657
0.345178
0.344397
0.344043
0.34399
0.344286
0.344849
0.345553
0.346489
0.347569
0.348807
0.350198
0.351728
0.353408
0.355238
0.357223
0.359383
0.361723
0.36427
0.367029
0.37003
0.373283
10.1948
10.7667
11.436
12.0989
12.6023
12.8586
12.9043
12.6484
12.1282
11.4162
10.5336
9.51176
8.39106
7.2309
6.14873
5.21184
4.41317
3.73783
3.16762
2.6836
2.2531
1.8957
1.61978
1.39807
1.22383
1.08079
0.951708
0.833852
0.724827
0.622518
0.532074
0.515687
0.958031
2.61404
0.441117
0.490483
0.576117
0.741722
1.09643
1.67075
2.41563
3.26785
4.16364
5.04693
5.87585
6.62607
7.28968
7.87259
8.39175
8.87411
9.35171
9.8361
0.41084
0.389701
0.374735
0.364221
0.356995
0.352162
0.348866
0.346653
0.345177
0.344397
0.34408
0.34399
0.344203
0.34477
0.345458
0.346378
0.347458
0.348689
0.350082
0.351614
0.353298
0.355134
0.357127
0.3593
0.361653
0.364216
0.366989
0.370006
0.373275
10.322
10.9619
11.705
12.3896
12.8677
13.0743
13.0611
12.7966
12.2934
11.595
10.7218
9.70405
8.58121
7.41271
6.31804
5.36725
4.55459
3.8659
3.28319
2.78739
2.34501
1.97648
1.69122
1.47359
1.29932
1.14557
1.00774
0.882485
0.766827
0.657877
0.559231
0.53505
0.999782
2.64805
0.432409
0.476933
0.553748
0.692344
0.997426
1.52614
2.24246
3.08675
3.98862
4.88376
5.72274
6.47499
7.12826
7.68498
8.15863
8.57148
8.95743
9.34132
9.81314
0.405092
0.385858
0.372243
0.362797
0.356404
0.351972
0.348864
0.346651
0.345175
0.344448
0.344096
0.343968
0.344135
0.344691
0.345364
0.346266
0.347344
0.34857
0.349963
0.351498
0.353185
0.355029
0.357032
0.359219
0.361586
0.364163
0.36695
0.369983
0.373267
10.3488
11.0931
11.9013
12.5923
13.0324
13.1922
13.1642
12.9327
12.4534
11.7716
10.9111