/*--------------------------------*- C++ -*----------------------------------*\
  =========                 |
  \\      /  F ield         | OpenFOAM: The Open Source CFD Toolbox
   \\    /   O peration     | Website:  https://openfoam.org
    \\  /    A nd           | Version:  8
     \\/     M anipulation  |
\*---------------------------------------------------------------------------*/
FoamFile
{
    version     2.0;
    format      ascii;
    class       volVectorField;
    location    "0";
    object      U;
}
// * * * * * * * * * * * * * * * * * * * * * * * * * * * * * * * * * * * * * //

dimensions      [0 1 -1 0 0 0 0];

internalField   nonuniform List<vector> 
15677
(
(-0.397188 6.49098 0)
(0.585582 9.38642 0)
(-0.0510347 3.66978 0)
(0.0880076 9.91275 0)
(0.189221 7.65747 0)
(0.00135539 3.09344 0)
(0.288055 10.0291 0)
(0.118016 9.41429 0)
(0.0354733 6.35257 0)
(0.00210255 2.85967 0)
(0.246363 10.0582 0)
(0.211705 10.0522 0)
(0.0837057 8.35081 0)
(0.0141641 5.65083 0)
(0.000997795 2.74961 0)
(0.227222 10.0664 0)
(0.199635 10.2104 0)
(0.136725 9.64163 0)
(0.0520681 7.47225 0)
(0.0102971 5.28941 0)
(0.000979415 2.65601 0)
(0.214729 10.0684 0)
(0.191794 10.2455 0)
(0.151033 10.1397 0)
(0.0953017 8.99106 0)
(0.0322195 6.91421 0)
(0.00827032 5.05558 0)
(0.000561569 2.58824 0)
(0.200622 10.0671 0)
(0.186753 10.2409 0)
(0.153677 10.2557 0)
(0.127119 9.90881 0)
(0.0661167 8.3762 0)
(0.0225192 6.55865 0)
(0.00591365 4.89357 0)
(0.000268696 2.54908 0)
(0.184337 10.0633 0)
(0.179986 10.2302 0)
(0.153028 10.2896 0)
(0.137501 10.2089 0)
(0.103647 9.54757 0)
(0.046996 7.916 0)
(0.0162199 6.31384 0)
(0.00406406 4.78463 0)
(0.000124975 2.52221 0)
(0.166617 10.0578 0)
(0.171003 10.217 0)
(0.15023 10.2904 0)
(0.138962 10.2818 0)
(0.123983 10.1131 0)
(0.0808948 9.14066 0)
(0.033914 7.5831 0)
(0.0117417 6.14303 0)
(0.0027919 4.70804 0)
(-6.31638e-05 2.50816 0)
(0.147902 10.0514 0)
(0.160857 10.2011 0)
(0.146063 10.2791 0)
(0.137684 10.297 0)
(0.12831 10.2714 0)
(0.107945 9.95259 0)
(0.0613846 8.77487 0)
(0.0249965 7.34183 0)
(0.00849664 6.01988 0)
(0.00159017 4.65797 0)
(-0.000270526 2.50452 0)
(0.128584 10.0445 0)
(0.14995 10.1825 0)
(0.140999 10.2637 0)
(0.135554 10.296 0)
(0.127886 10.3089 0)
(0.117106 10.2446 0)
(0.0906515 9.73095 0)
(0.0463162 8.47756 0)
(0.0185333 7.16549 0)
(0.00561056 5.93454 0)
(0.000404583 4.62891 0)
(-0.000512805 2.51077 0)
(0.109208 10.038 0)
(0.138311 10.1619 0)
(0.134854 10.2455 0)
(0.132374 10.2868 0)
(0.126316 10.3144 0)
(0.117946 10.3167 0)
(0.105693 10.1875 0)
(0.0739416 9.48797 0)
(0.034853 8.25019 0)
(0.0130647 7.03815 0)
(0.00286196 5.87832 0)
(-0.000808304 4.61906 0)
(-0.000788241 2.52618 0)
(0.0894871 10.0317 0)
(0.125937 10.1404 0)
(0.127611 10.2246 0)
(0.128109 10.2723 0)
(0.12373 10.3087 0)
(0.116642 10.3319 0)
(0.108154 10.3153 0)
(0.093409 10.1017 0)
(0.0586505 9.262 0)
(0.0254807 8.07925 0)
(0.00800114 6.94856 0)
(0.000106143 5.84764 0)
(-0.00209015 4.62577 0)
(-0.00107866 2.5507 0)
(0.0723357 10.0259 0)
(0.113664 10.1188 0)
(0.119328 10.201 0)
(0.122734 10.2541 0)
(0.120248 10.2968 0)
(0.114212 10.3299 0)
(0.10696 10.3453 0)
(0.0981429 10.3066 0)
(0.0799668 9.99141 0)
(0.0448898 9.07026 0)
(0.0171878 7.95314 0)
(0.00304169 6.89101 0)
(-0.00270799 5.83901 0)
(-0.0034608 4.64824 0)
(-0.00145634 2.58371 0)
(0.0589174 10.0207 0)
(0.102376 10.099 0)
(0.110378 10.1757 0)
(0.11615 10.2324 0)
(0.115837 10.2805 0)
(0.110927 10.3202 0)
(0.104581 10.3484 0)
(0.0971139 10.3578 0)
(0.0875269 10.2892 0)
(0.0657879 9.86999 0)
(0.0323044 8.91759 0)
(0.00926743 7.86443 0)
(-0.0019326 6.86076 0)
(-0.00567623 5.8505 0)
(-0.00503485 4.68584 0)
(-0.00190134 2.6271 0)
(0.0483036 10.0162 0)
(0.0921407 10.082 0)
(0.101678 10.1519 0)
(0.108388 10.2078 0)
(0.110359 10.2602 0)
(0.106792 10.3056 0)
(0.101215 10.3411 0)
(0.0946314 10.3663 0)
(0.086881 10.3688 0)
(0.0757872 10.2635 0)
(0.0511738 9.75264 0)
(0.0203553 8.80191 0)
(0.00141907 7.80812 0)
(-0.00709657 6.85498 0)
(-0.00897385 5.881 0)
(-0.00678797 4.73838 0)
(-0.00235352 2.67973 0)
(0.040238 10.0126 0)
(0.0826024 10.0672 0)
(0.0936217 10.1311 0)
(0.100454 10.1839 0)
(0.103677 10.2364 0)
(0.101711 10.2867 0)
(0.096997 10.328 0)
(0.0909673 10.3614 0)
(0.084005 10.3851 0)
(0.0754279 10.3791 0)
(0.0625131 10.232 0)
(0.0361887 9.64889 0)
(0.00870399 8.72063 0)
(-0.00659202 7.78048 0)
(-0.0127093 6.87178 0)
(-0.0125661 5.92938 0)
(-0.0086731 4.80527 0)
(-0.00285462 2.74135 0)
(0.0336078 10.01 0)
(0.0736606 10.055 0)
(0.0860521 10.1128 0)
(0.093032 10.1627 0)
(0.096558 10.2124 0)
(0.0955411 10.2638 0)
(0.0918572 10.3104 0)
(0.0863827 10.3497 0)
(0.0797908 10.3829 0)
(0.072002 10.4056 0)
(0.0623247 10.3898 0)
(0.0475164 10.1979 0)
(0.0208716 9.56551 0)
(-0.00313992 8.67021 0)
(-0.0151021 7.77867 0)
(-0.0187402 6.9095 0)
(-0.0164208 5.99493 0)
(-0.0107139 4.88629 0)
(-0.00340411 2.81215 0)
(0.0282809 10.0081 0)
(0.0658645 10.0455 0)
(0.0788161 10.0973 0)
(0.0859683 10.1438 0)
(0.0896866 10.1906 0)
(0.0888958 10.24 0)
(0.0856723 10.2885 0)
(0.080863 10.3331 0)
(0.0745418 10.3725 0)
(0.067041 10.4066 0)
(0.0582357 10.4283 0)
(0.0475026 10.4016 0)
(0.0309416 10.166 0)
(0.00496194 9.50564 0)
(-0.0151382 8.64798 0)
(-0.0241753 7.80064 0)
(-0.0251881 6.96694 0)
(-0.0205568 6.07694 0)
(-0.0128855 4.98073 0)
(-0.00398171 2.89136 0)
(0.023991 10.0066 0)
(0.0587737 10.0383 0)
(0.0720354 10.0844 0)
(0.0792371 10.1274 0)
(0.0829772 10.171 0)
(0.0823913 10.2178 0)
(0.0790336 10.2651 0)
(0.0742989 10.3119 0)
(0.0683028 10.3566 0)
(0.0608801 10.3974 0)
(0.0522799 10.433 0)
(0.0424763 10.4541 0)
(0.0307616 10.4155 0)
(0.0129464 10.1415 0)
(-0.0113447 9.47053 0)
(-0.0278386 8.6513 0)
(-0.033787 7.84454 0)
(-0.0320523 7.04271 0)
(-0.0249408 6.17436 0)
(-0.0151607 5.08759 0)
(-0.0045904 2.97848 0)
(0.0206288 10.0055 0)
(0.0520569 10.0325 0)
(0.0657749 10.0739 0)
(0.072854 10.1133 0)
(0.0764991 10.1535 0)
(0.0759842 10.1974 0)
(0.0725423 10.2429 0)
(0.0673213 10.2889 0)
(0.0609972 10.3359 0)
(0.0536232 10.3819 0)
(0.0449338 10.4249 0)
(0.0352239 10.4627 0)
(0.0244386 10.4836 0)
(0.0118818 10.4333 0)
(-0.00658116 10.1279 0)
(-0.0284339 9.45947 0)
(-0.0412549 8.67843 0)
(-0.0439408 7.90858 0)
(-0.0392909 7.1356 0)
(-0.0295341 6.28626 0)
(-0.0175302 5.20606 0)
(-0.00523349 3.07297 0)
(0.0180758 10.0048 0)
(0.0464288 10.028 0)
(0.0602085 10.0652 0)
(0.0668545 10.1013 0)
(0.0703011 10.1383 0)
(0.0697711 10.1789 0)
(0.0661572 10.2219 0)
(0.0605427 10.2665 0)
(0.0533442 10.3129 0)
(0.0452358 10.3613 0)
(0.0363492 10.4097 0)
(0.0263745 10.4557 0)
(0.0155786 10.4966 0)
(0.00392984 10.5179 0)
(-0.00922624 10.4566 0)
(-0.0275187 10.128 0)
(-0.0463473 9.47168 0)
(-0.0553298 8.72732 0)
(-0.0546109 7.99155 0)
(-0.046877 7.24459 0)
(-0.034297 6.41155 0)
(-0.0199761 5.33513 0)
(-0.00589704 3.17414 0)
(0.0161038 10.0042 0)
(0.0418926 10.0246 0)
(0.0551661 10.058 0)
(0.061305 10.0911 0)
(0.064422 10.1251 0)
(0.0638152 10.1625 0)
(0.0599808 10.2026 0)
(0.0539072 10.245 0)
(0.0459885 10.2902 0)
(0.0365727 10.3381 0)
(0.0265279 10.3889 0)
(0.0161054 10.4407 0)
(0.00487684 10.4906 0)
(-0.00687017 10.5352 0)
(-0.0192302 10.5575 0)
(-0.0324384 10.4871 0)
(-0.0497651 10.1433 0)
(-0.0650607 9.5059 0)
(-0.0700675 8.79654 0)
(-0.0657476 8.09183 0)
(-0.054734 7.36835 0)
(-0.0391863 6.54894 0)
(-0.0224587 5.47351 0)
(-0.00656083 3.28107 0)
(0.0145424 10.0038 0)
(0.0381424 10.0221 0)
(0.0507737 10.0524 0)
(0.0562798 10.0825 0)
(0.0588865 10.1136 0)
(0.0581572 10.1481 0)
(0.0540845 10.1852 0)
(0.0475228 10.2249 0)
(0.0388496 10.268 0)
(0.0283416 10.3148 0)
(0.0165011 10.3651 0)
(0.00444341 10.4193 0)
(-0.0074752 10.4754 0)
(-0.0198451 10.5303 0)
(-0.0323471 10.5794 0)
(-0.0449557 10.6036 0)
(-0.0577187 10.526 0)
(-0.0731917 10.1751 0)
(-0.08455 9.56049 0)
(-0.0853818 8.88419 0)
(-0.0772572 8.20794 0)
(-0.062772 7.50535 0)
(-0.0441334 6.69693 0)
(-0.0249328 5.61988 0)
(-0.0072173 3.39277 0)
(0.0132811 10.0034 0)
(0.0350448 10.0202 0)
(0.0470481 10.048 0)
(0.0519522 10.0758 0)
(0.0538995 10.104 0)
(0.0528159 10.1354 0)
(0.0485136 10.1696 0)
(0.0414718 10.2064 0)
(0.0320403 10.2468 0)
(0.0204365 10.2916 0)
(0.00707398 10.3408 0)
(-0.00734377 10.3945 0)
(-0.0214129 10.4533 0)
(-0.0347136 10.5147 0)
(-0.0479769 10.5753 0)
(-0.0608381 10.6297 0)
(-0.0731849 10.6567 0)
(-0.0849546 10.5749 0)
(-0.0976943 10.2234 0)
(-0.104737 9.63396 0)
(-0.101125 8.98842 0)
(-0.0890102 8.33829 0)
(-0.0708886 7.65402 0)
(-0.0490631 6.85405 0)
(-0.0273655 5.77283 0)
(-0.00785861 3.50821 0)
(0.0122457 10.0032 0)
(0.0324701 10.0187 0)
(0.0438636 10.0446 0)
(0.0482611 10.0703 0)
(0.0496355 10.0964 0)
(0.0480142 10.1247 0)
(0.0432912 10.1556 0)
(0.0358095 10.1895 0)
(0.0256519 10.227 0)
(0.0129747 10.2691 0)
(-0.00188667 10.3163 0)
(-0.0183213 10.369 0)
(-0.035406 10.4271 0)
(-0.0514149 10.4914 0)
(-0.0658358 10.5591 0)
(-0.0795976 10.6262 0)
(-0.0923044 10.6868 0)
(-0.103796 10.7176 0)
(-0.113853 10.6347 0)
(-0.123115 10.288 0)
(-0.12544 9.72463 0)
(-0.117187 9.10769 0)
(-0.100858 8.48118 0)
(-0.0789774 7.8127 0)
(-0.0539098 7.01872 0)
(-0.0297246 5.9309 0)
(-0.00847692 3.62636 0)
(0.0113846 10.003 0)
(0.0303136 10.0175 0)
(0.0411202 10.0418 0)
(0.045088 10.0659 0)
(0.0460036 10.0902 0)
(0.0439148 10.116 0)
(0.0386373 10.1438 0)
(0.0305684 10.1743 0)
(0.0197503 10.2087 0)
(0.00605629 10.2477 0)
(-0.0102554 10.2922 0)
(-0.0286697 10.3428 0)
(-0.0483536 10.3999 0)
(-0.0681061 10.4635 0)
(-0.0858402 10.5344 0)
(-0.100968 10.6092 0)
(-0.114686 10.6837 0)
(-0.126634 10.7511 0)
(-0.136547 10.7867 0)
(-0.144112 10.7054 0)
(-0.149228 10.3682 0)
(-0.146458 9.83075 0)
(-0.133384 9.24029 0)
(-0.112651 8.63482 0)
(-0.0869429 7.97971 0)
(-0.0586116 7.18929 0)
(-0.0319786 6.09263 0)
(-0.00905993 3.74615 0)
(0.010661 10.0028 0)
(0.0284943 10.0165 0)
(0.0387532 10.0395 0)
(0.0423473 10.0623 0)
(0.0428917 10.0851 0)
(0.0404283 10.1089 0)
(0.0347021 10.134 0)
(0.0259724 10.1611 0)
(0.0143775 10.192 0)
(-0.000240819 10.2277 0)
(-0.0179229 10.269 0)
(-0.0382449 10.3167 0)
(-0.0604677 10.3716 0)
(-0.0834794 10.4342 0)
(-0.105778 10.5044 0)
(-0.124868 10.5828 0)
(-0.140124 10.6657 0)
(-0.153136 10.7481 0)
(-0.163571 10.8228 0)
(-0.171115 10.8642 0)
(-0.175405 10.787 0)
(-0.175819 10.4626 0)
(-0.16759 9.95037 0)
(-0.14949 9.38435 0)
(-0.124256 8.79745 0)
(-0.0946826 8.15334 0)
(-0.0631105 7.36418 0)
(-0.0340927 6.25653 0)
(-0.00957746 3.86665 0)
(0.0100474 10.0026 0)
(0.026949 10.0157 0)
(0.0367113 10.0376 0)
(0.0399743 10.0593 0)
(0.0402126 10.0809 0)
(0.0374503 10.1031 0)
(0.0313912 10.126 0)
(0.0221584 10.1502 0)
(0.00976519 10.1773 0)
(-0.00586312 10.2091 0)
(-0.0247975 10.2468 0)
(-0.0469208 10.2911 0)
(-0.0715914 10.3431 0)
(-0.0977928 10.4035 0)
(-0.124094 10.4726 0)
(-0.148657 10.5503 0)
(-0.168549 10.6372 0)
(-0.183205 10.7288 0)
(-0.194696 10.8197 0)
(-0.202772 10.9023 0)
(-0.207135 10.9503 0)
(-0.207365 10.8792 0)
(-0.202554 10.57 0)
(-0.188632 10.0818 0)
(-0.165328 9.53801 0)
(-0.135539 8.96732 0)
(-0.102101 8.33191 0)
(-0.0673488 7.54178 0)
(-0.036058 6.42137 0)
(-0.0103175 3.98653 0)
(0.00952331 10.0025 0)
(0.0256278 10.015 0)
(0.0349168 10.036 0)
(0.0378927 10.0568 0)
(0.0378959 10.0774 0)
(0.0348963 10.0983 0)
(0.0285956 10.1194 0)
(0.0190144 10.1412 0)
(0.00603251 10.165 0)
(-0.0105688 10.1926 0)
(-0.0308133 10.226 0)
(-0.0545903 10.2665 0)
(-0.0815788 10.3148 0)
(-0.110865 10.372 0)
(-0.141097 10.4389 0)
(-0.170484 10.5156 0)
(-0.196838 10.602 0)
(-0.216809 10.6981 0)
(-0.229977 10.7991 0)
(-0.239021 10.8988 0)
(-0.24383 10.9896 0)
(-0.244191 11.0448 0)
(-0.239658 10.9815 0)
(-0.229109 10.6886 0)
(-0.209335 10.2234 0)
(-0.180725 9.69945 0)
(-0.146367 9.14268 0)
(-0.109115 8.51374 0)
(-0.0712821 7.72072 0)
(-0.0376699 6.58546 0)
(-0.011299 4.11913 0)
(0.00907267 10.0024 0)
(0.0244913 10.0144 0)
(0.0333461 10.0347 0)
(0.0360815 10.0548 0)
(0.0358822 10.0745 0)
(0.0326973 10.0942 0)
(0.0262265 10.1138 0)
(0.0164157 10.1336 0)
(0.00304112 10.1547 0)
(-0.0142608 10.1786 0)
(-0.0357095 10.2072 0)
(-0.0611726 10.2429 0)
(-0.0903028 10.2871 0)
(-0.122521 10.3405 0)
(-0.156574 10.404 0)
(-0.190726 10.4785 0)
(-0.222809 10.564 0)
(-0.250301 10.6598 0)
(-0.269456 10.7659 0)
(-0.28011 10.8767 0)
(-0.285691 10.9856 0)
(-0.286301 11.0847 0)
(-0.281848 11.1474 0)
(-0.2719 11.093 0)
(-0.255239 10.817 0)
(-0.22945 10.3731 0)
(-0.195515 9.8669 0)
(-0.156624 9.3218 0)
(-0.115654 8.69739 0)
(-0.0748396 7.89922 0)
(-0.0392225 6.76659 0)
(-0.0120074 4.26295 0)
(0.0086827 10.0024 0)
(0.0235084 10.0139 0)
(0.0319667 10.0336 0)
(0.0344973 10.0531 0)
(0.0341285 10.072 0)
(0.0307974 10.0908 0)
(0.0242114 10.1091 0)
(0.0142613 10.1273 0)
(0.000644611 10.1461 0)
(-0.0171114 10.1668 0)
(-0.0394126 10.1912 0)
(-0.06638 10.2215 0)
(-0.0976627 10.2604 0)
(-0.132612 10.3092 0)
(-0.170321 10.3687 0)
(-0.209134 10.4398 0)
(-0.246911 10.523 0)
(-0.281104 10.6182 0)
(-0.308892 10.7244 0)
(-0.32617 10.841 0)
(-0.333171 10.9619 0)
(-0.334222 11.0799 0)
(-0.329689 11.1871 0)
(-0.319645 11.2574 0)
(-0.303699 11.2126 0)
(-0.280665 10.9534 0)
(-0.248771 10.5293 0)
(-0.209545 10.0386 0)
(-0.166207 9.50322 0)
(-0.121645 8.88102 0)
(-0.0784344 8.09666 0)
(-0.0408523 6.96293 0)
(-0.0124432 4.40212 0)
(0.00834357 10.0023 0)
(0.0226531 10.0135 0)
(0.0307515 10.0327 0)
(0.0331078 10.0516 0)
(0.0325959 10.0699 0)
(0.0291505 10.0879 0)
(0.0224914 10.1051 0)
(0.0124694 10.1219 0)
(-0.00127542 10.1387 0)
(-0.0192956 10.1568 0)
(-0.0421388 10.1776 0)
(-0.0701638 10.203 0)
(-0.103334 10.2357 0)
(-0.141012 10.2786 0)
(-0.182155 10.3333 0)
(-0.225463 10.4 0)
(-0.268848 10.4799 0)
(-0.30975 10.573 0)
(-0.345257 10.6788 0)
(-0.372307 10.796 0)
(-0.386503 10.9236 0)
(-0.388635 11.0546 0)
(-0.384069 11.1815 0)
(-0.373472 11.2966 0)
(-0.35714 11.3743 0)
(-0.334716 11.3392 0)
(-0.305113 11.0964 0)
(-0.267113 10.6901 0)
(-0.222683 10.2131 0)
(-0.17503 9.68504 0)
(-0.127702 9.08465 0)
(-0.0819976 8.31105 0)
(-0.0421904 7.15292 0)
(-0.0127244 4.53542 0)
(0.0080511 10.0022 0)
(0.0219034 10.0132 0)
(0.0296748 10.0319 0)
(0.0318864 10.0504 0)
(0.0312534 10.0682 0)
(0.0277185 10.0854 0)
(0.0210178 10.1017 0)
(0.0109736 10.1172 0)
(-0.00281448 10.1324 0)
(-0.0209555 10.1482 0)
(-0.0441015 10.1659 0)
(-0.0727951 10.1871 0)
(-0.107293 10.2142 0)
(-0.147344 10.2502 0)
(-0.191916 10.2982 0)
(-0.239486 10.3599 0)
(-0.288327 10.4352 0)
(-0.335887 10.5249 0)
(-0.379184 10.629 0)
(-0.414998 10.7464 0)
(-0.440105 10.8751 0)
(-0.449906 11.0138 0)
(-0.445911 11.1548 0)
(-0.434654 11.2902 0)
(-0.417139 11.4126 0)
(-0.393898 11.4972 0)
(-0.364633 11.4716 0)
(-0.32835 11.2442 0)
(-0.284312 10.8542 0)
(-0.23483 10.3884 0)
(-0.183958 9.88718 0)
(-0.133647 9.30629 0)
(-0.0849076 8.51887 0)
(-0.0432045 7.33513 0)
(-0.012911 4.66185 0)
(0.0212474 10.0129 0)
(0.00769435 10.0022 0)
(0.0287152 10.0313 0)
(0.0308099 10.0493 0)
(0.0300755 10.0666 0)
(0.0264704 10.0833 0)
(0.0197508 10.0988 0)
(0.00972047 10.1133 0)
(-0.00404922 10.127 0)
(-0.0222045 10.1409 0)
(-0.0454727 10.1558 0)
(-0.0745347 10.1734 0)
(-0.109877 10.1956 0)
(-0.151609 10.2251 0)
(-0.199162 10.2653 0)
(-0.251005 10.3197 0)
(-0.305072 10.3896 0)
(-0.359165 10.4748 0)
(-0.410261 10.5757 0)
(-0.454995 10.6916 0)
(-0.48991 10.8212 0)
(-0.511727 10.9618 0)
(-0.515743 11.1116 0)
(-0.504355 11.2621 0)
(-0.485386 11.4054 0)
(-0.460187 11.5343 0)
(-0.429519 11.6252 0)
(-0.393167 11.6086 0)
(-0.350178 11.3956 0)
(-0.300251 11.0195 0)
(-0.247126 10.5838 0)
(-0.19271 10.1077 0)
(-0.138603 9.52167 0)
(-0.0871637 8.71867 0)
(-0.0439362 7.50837 0)
(-0.0130227 4.781 0)
(0.0278591 10.0307 0)
(0.0204558 10.0125 0)
(0.00725111 10.0021 0)
(0.0298517 10.0484 0)
(0.0290374 10.0653 0)
(0.0253806 10.0814 0)
(0.0186584 10.0963 0)
(0.00866657 10.1099 0)
(-0.00504082 10.1224 0)
(-0.0231334 10.1345 0)
(-0.04639 10.1471 0)
(-0.0755931 10.1615 0)
(-0.111405 10.1794 0)
(-0.154221 10.2032 0)
(-0.203909 10.236 0)
(-0.259485 10.2815 0)
(-0.318831 10.3436 0)
(-0.379249 10.4231 0)
(-0.438071 10.5195 0)
(-0.491818 10.6326 0)
(-0.536803 10.7614 0)
(-0.569436 10.9036 0)
(-0.586503 11.0562 0)
(-0.583309 11.2167 0)
(-0.563301 11.3762 0)
(-0.535686 11.5265 0)
(-0.502143 11.6612 0)
(-0.463657 11.7573 0)
(-0.420064 11.749 0)
(-0.370455 11.5488 0)
(-0.316391 11.2044 0)
(-0.259211 10.7976 0)
(-0.20011 10.3225 0)
(-0.142564 9.72927 0)
(-0.0888463 8.90919 0)
(-0.0444203 7.67199 0)
(-0.0130628 4.89273 0)
(0.0289904 10.0476 0)
(0.0268678 10.0299 0)
(0.0194231 10.012 0)
(0.00681884 10.002 3.21102e-16)
(0.028111 10.0642 0)
(0.0244241 10.0799 0)
(0.0177146 10.0941 0)
(0.00777752 10.1069 0)
(-0.00583814 10.1184 0)
(-0.0238138 10.1291 0)
(-0.0469624 10.1396 0)
(-0.0761382 10.1512 0)
(-0.112134 10.1653 0)
(-0.155569 10.1841 0)
(-0.206662 10.2103 0)
(-0.264951 10.2474 0)
(-0.32895 10.2995 0)
(-0.395826 10.3705 0)
(-0.462208 10.4611 0)
(-0.524971 10.57 0)
(-0.580229 10.6964 0)
(-0.62407 10.8386 0)
(-0.652888 10.9938 0)
(-0.663672 11.1582 0)
(-0.651854 11.3289 0)
(-0.622078 11.4965 0)
(-0.584998 11.6529 0)
(-0.54258 11.7921 0)
(-0.495998 11.8927 0)
(-0.445151 11.8912 0)
(-0.391035 11.7206 0)
(-0.332286 11.4071 0)
(-0.269537 11.0063 0)
(-0.206145 10.5301 0)
(-0.145617 9.9278 0)
(-0.090026 9.08969 0)
(-0.0446795 7.82568 0)
(-0.0130361 4.99698 0)
(0.0272721 10.0632 0)
(0.0280216 10.0465 0)
(0.0255839 10.0289 1.45505e-15)
(0.0184019 10.0115 -1.01777e-15)
(0.00639643 10.0019 -6.32507e-16)
(0.0235711 10.0785 0)
(0.0168946 10.0923 0)
(0.00702625 10.1043 0)
(-0.00647946 10.1149 0)
(-0.0243025 10.1243 0)
(-0.0472756 10.1331 0)
(-0.0763024 10.1422 0)
(-0.112271 10.153 0)
(-0.155968 10.1673 0)
(-0.207892 10.1876 0)
(-0.268008 10.2171 0)
(-0.335444 10.2597 0)
(-0.408082 10.3197 0)
(-0.48228 10.4012 0)
(-0.553969 10.5044 0)
(-0.619612 10.6269 0)
(-0.674997 10.7675 0)
(-0.716109 10.9237 0)
(-0.739466 11.0918 0)
(-0.742411 11.2676 0)
(-0.720611 11.4477 0)
(-0.680033 11.6224 0)
(-0.632808 11.7837 0)
(-0.581124 11.9264 0)
(-0.526315 12.0301 0)
(-0.47077 12.0513 0)
(-0.41136 11.9096 0)
(-0.34597 11.6056 0)
(-0.278076 11.2082 0)
(-0.210905 10.729 0)
(-0.147856 10.1164 0)
(-0.0907563 9.25978 0)
(-0.0447388 7.96938 0)
(-0.0129508 5.09385 0)
(0.0227909 10.0773 0)
(0.0263794 10.0618 -3.24523e-15)
(0.0267704 10.0451 -1.5368e-15)
(0.0243197 10.028 7.1662e-16)
(0.017391 10.0111 -6.68268e-16)
(0.00598384 10.0018 0)
(0.0161679 10.0906 0)
(0.0063876 10.1021 0)
(-0.00699415 10.1119 0)
(-0.0246434 10.1201 0)
(-0.0473967 10.1274 0)
(-0.0761895 10.1344 0)
(-0.111977 10.1423 0)
(-0.15567 10.1527 0)
(-0.207984 10.1677 0)
(-0.269225 10.1904 0)
(-0.339032 10.2242 0)
(-0.416003 10.2735 0)
(-0.49728 10.3429 0)
(-0.578327 10.4365 0)
(-0.65437 10.5536 0)
(-0.721554 10.6909 0)
(-0.775459 10.8464 0)
(-0.812101 11.0167 0)
(-0.828287 11.1976 0)
(-0.821856 11.384 0)
(-0.788817 11.5725 0)
(-0.736553 11.753 0)
(-0.678657 11.9181 0)
(-0.617473 12.0629 0)
(-0.55751 12.1847 0)
(-0.496187 12.228 0)
(-0.428956 12.0953 0)
(-0.35742 11.7982 0)
(-0.284928 11.4022 0)
(-0.214509 10.9184 0)
(-0.149365 10.2948 0)
(-0.091091 9.41933 0)
(-0.0446262 8.10319 0)
(-0.0128168 5.18353 0)
(0.0154942 10.0892 0)
(0.0220303 10.0757 6.85489e-15)
(0.0252363 10.0601 0)
(0.0255157 10.0438 1.51373e-15)
(0.0230574 10.027 8.85816e-22)
(0.0163871 10.0107 0)
(0.00558069 10.0018 0)
(0.00583068 10.1002 0)
(-0.00740812 10.1092 0)
(-0.0248693 10.1165 0)
(-0.0473774 10.1224 0)
(-0.0758803 10.1276 0)
(-0.111378 10.1329 0)
(-0.154873 10.1398 0)
(-0.207243 10.1502 0)
(-0.269064 10.1668 0)
(-0.340392 10.1927 0)
(-0.420429 10.2321 0)
(-0.507127 10.2896 0)
(-0.596792 10.37 0)
(-0.683913 10.4772 0)
(-0.763058 10.6095 0)
(-0.830181 10.7625 0)
(-0.880793 10.9333 0)
(-0.911114 11.1177 0)
(-0.918404 11.3107 0)
(-0.901135 11.507 0)
(-0.855739 11.7027 0)
(-0.791074 11.8877 0)
(-0.722158 12.055 0)
(-0.655139 12.2168 0)
(-0.588624 12.3559 0)
(-0.518318 12.4022 0)
(-0.443816 12.2762 0)
(-0.366742 11.9836 0)
(-0.290242 11.5872 0)
(-0.217075 11.0978 0)
(-0.150224 10.4626 0)
(-0.091084 9.5684 0)
(-0.0443704 8.22736 0)
(-0.0126436 5.26631 0)
(0.00530256 10.0985 0)
(0.0149317 10.0873 -1.18102e-21)
(0.0210981 10.0736 0)
(0.0240875 10.0584 -1.59862e-15)
(0.0242626 10.0425 7.83322e-22)
(0.0217963 10.0261 0)
(0.0153897 10.0103 0)
(0.00518667 10.0017 0)
(-0.00775273 10.1069 0)
(-0.0250075 10.1134 0)
(-0.0472552 10.1181 0)
(-0.0754363 10.1216 0)
(-0.110573 10.1247 0)
(-0.153731 10.1285 0)
(-0.205911 10.1348 0)
(-0.267898 10.1459 0)
(-0.34008 10.1647 0)
(-0.422159 10.1951 0)
(-0.512788 10.2415 0)
(-0.609176 10.3086 0)
(-0.706688 10.4016 0)
(-0.798796 10.524 0)
(-0.879487 10.6728 0)
(-0.9447 10.8422 0)
(-0.99005 11.0285 0)
(-1.01214 11.2266 0)
(-1.00884 11.431 0)
(-0.97938 11.6358 0)
(-0.92069 11.8373 0)
(-0.843105 12.0253 0)
(-0.767525 12.2097 0)
(-0.692984 12.3876 0)
(-0.615888 12.5252 0)
(-0.537174 12.5724 0)
(-0.456063 12.4508 0)
(-0.374108 12.1608 0)
(-0.294169 11.7629 0)
(-0.218719 11.2671 0)
(-0.150519 10.6198 0)
(-0.0907888 9.70719 0)
(-0.0439984 8.34225 0)
(-0.012439 5.34253 0)
(-0.00809767 10.1049 0)
(0.00500071 10.0963 -3.82259e-15)
(0.0143255 10.0849 0)
(0.0201551 10.0716 0)
(0.0229395 10.0568 4.72325e-15)
(0.0230049 10.0412 0)
(0.0205359 10.0253 0)
(0.0143987 10.0099 1.27566e-15)
(0.00480194 10.0016 0)
(-0.0250896 10.1106 0)
(-0.0470592 10.1143 0)
(-0.0749017 10.1163 0)
(-0.109636 10.1175 0)
(-0.152364 10.1186 0)
(-0.204179 10.1213 0)
(-0.266023 10.1275 0)
(-0.338545 10.14 0)
(-0.421856 10.1621 0)
(-0.515199 10.1982 0)
(-0.616577 10.253 0)
(-0.722347 10.3316 0)
(-0.826853 10.4389 0)
(-0.92253 10.5778 0)
(-1.00292 10.744 0)
(-1.06417 10.9303 0)
(-1.10218 11.132 0)
(-1.11412 11.3432 0)
(-1.09862 11.5579 0)
(-1.05578 11.7699 0)
(-0.983038 11.9755 0)
(-0.897712 12.1813 0)
(-0.813471 12.3819 0)
(-0.726453 12.5569 0)
(-0.639333 12.6912 0)
(-0.552879 12.7373 0)
(-0.465897 12.6181 0)
(-0.379705 12.3294 0)
(-0.296861 11.9288 0)
(-0.219556 11.4261 0)
(-0.150336 10.7667 0)
(-0.0902561 9.83604 0)
(-0.0435334 8.4483 0)
(-0.0122102 5.41256 0)
(-0.0252074 10.1081 0)
(-0.00806914 10.1023 0)
(0.00483961 10.0935 -3.82286e-15)
(0.0136991 10.0826 -3.56578e-15)
(0.0192148 10.0696 -6.65089e-15)
(0.0217853 10.0552 0)
(0.0217413 10.04 -2.8907e-15)
(0.0192773 10.0244 -2.69443e-15)
(0.013414 10.0095 1.25568e-15)
(0.00442561 10.0016 0)
(-0.0468214 10.1109 0)
(-0.0743076 10.1117 0)
(-0.108619 10.1111 0)
(-0.150864 10.1099 0)
(-0.202192 10.1093 0)
(-0.263668 10.1112 0)
(-0.336144 10.118 0)
(-0.420059 10.1328 0)
(-0.51514 10.1595 0)
(-0.620077 10.2028 0)
(-0.732114 10.2677 0)
(-0.846654 10.3594 0)
(-0.956961 10.4825 0)
(-1.05447 10.6393 0)
(-1.13246 10.8238 0)
(-1.18752 11.0272 0)
(-1.21606 11.2437 0)
(-1.21599 11.4671 0)
(-1.18684 11.6907 0)
(-1.12958 11.9082 0)
(-1.04891 12.1328 0)
(-0.953402 12.3555 0)
(-0.854457 12.5531 0)
(-0.755537 12.7233 0)
(-0.659103 12.8524 0)
(-0.565649 12.896 0)
(-0.473537 12.7777 0)
(-0.383725 12.489 0)
(-0.298477 12.085 0)
(-0.219704 11.5749 0)
(-0.149754 10.9034 0)
(-0.0895307 9.95538 0)
(-0.0429972 8.546 0)
(-0.0119641 5.47682 0)
(-0.0466635 10.108 0)
(-0.0247638 10.1052 -4.25996e-15)
(-0.00764736 10.0992 4.03619e-15)
(0.00464471 10.0909 7.11823e-22)
(0.0130788 10.0803 3.51163e-15)
(0.0182722 10.0677 3.27435e-15)
(0.020624 10.0536 6.10541e-15)
(0.0204719 10.0388 4.26838e-15)
(0.0180189 10.0236 -1.32608e-15)
(0.0124355 10.0092 0)
(0.00405747 10.0015 0)
(-0.0736871 10.1077 0)
(-0.107557 10.1055 0)
(-0.149293 10.1022 0)
(-0.200062 10.0988 0)
(-0.261014 10.0968 0)
(-0.33316 10.0985 0)
(-0.417196 10.1067 0)
(-0.513251 10.1249 0)
(-0.620586 10.1576 0)
(-0.737224 10.2096 0)
(-0.859542 10.2864 0)
(-0.981906 10.3929 0)
(-1.09649 10.5335 0)
(-1.19377 10.7093 0)
(-1.26703 10.9125 0)
(-1.31358 11.1327 0)
(-1.33053 11.3634 0)
(-1.3167 11.5977 0)
(-1.27259 11.8284 0)
(-1.20812 12.0665 0)
(-1.11658 12.3092 0)
(-1.00344 12.5293 0)
(-0.890384 12.7217 0)
(-0.780355 12.8854 0)
(-0.675419 13.008 0)
(-0.575736 13.0477 0)
(-0.479214 12.9291 0)
(-0.38636 12.6395 0)
(-0.299167 12.2314 0)
(-0.219275 11.7139 0)
(-0.148848 11.0305 0)
(-0.0886545 10.0657 0)
(-0.0424089 8.63585 0)
(-0.0117058 5.53569 0)
(-0.0732012 10.1041 0)
(-0.0457036 10.1045 -8.09798e-22)
(-0.0235885 10.1016 0)
(-0.00727947 10.0962 2.57191e-22)
(0.00446208 10.0883 0)
(0.0124626 10.0781 -3.45773e-15)
(0.0173253 10.0659 -6.44755e-15)
(0.0194544 10.0521 -1.2998e-21)
(0.0191962 10.0376 2.80089e-15)
(0.0167629 10.0229 -1.30524e-15)
(0.0114629 10.0089 1.21629e-15)
(0.00369734 10.0015 0)
(-0.106485 10.1006 0)
(-0.14769 10.0954 0)
(-0.197866 10.0895 0)
(-0.258197 10.0841 0)
(-0.329811 10.0813 0)
(-0.413611 10.0835 0)
(-0.510046 10.0941 0)
(-0.618855 10.1171 0)
(-0.738728 10.1572 0)
(-0.866909 10.2198 0)
(-0.998806 10.3102 0)
(-1.12771 10.4334 0)
(-1.24469 10.5927 0)
(-1.33944 10.7883 0)
(-1.40547 11.0104 0)
(-1.44112 11.247 0)
(-1.44442 11.4908 0)
(-1.41521 11.7341 0)
(-1.36447 11.9872 0)
(-1.28945 12.2452 0)
(-1.17792 12.4861 0)
(-1.04766 12.701 0)
(-0.92132 12.8864 0)
(-0.801115 13.0422 0)
(-0.688554 13.1573 0)
(-0.583419 13.1921 0)
(-0.48316 13.0722 0)
(-0.387802 12.7809 0)
(-0.299081 12.3684 0)
(-0.218369 11.8433 0)
(-0.147683 11.1484 0)
(-0.0876647 10.1675 0)
(-0.0417848 8.7184 0)
(-0.0114403 5.58959 0)
(-0.105614 10.0962 0)
(-0.0716055 10.1 4.74333e-15)
(-0.043566 10.1004 -4.49551e-15)
(-0.0224947 10.0982 4.19554e-15)
(-0.00689155 10.0932 0)
(0.0042937 10.0858 0)
(0.0118476 10.0759 3.40414e-15)
(0.0163725 10.0641 -3.17333e-15)
(0.0182768 10.0506 -1.24904e-21)
(0.0179154 10.0365 1.37847e-15)
(0.0155092 10.0221 -1.28451e-15)
(0.0104959 10.0086 -1.19657e-15)
(0.00334682 10.0014 0)
(-0.146094 10.0894 0)
(-0.195649 10.0813 0)
(-0.255311 10.0729 0)
(-0.326265 10.0661 0)
(-0.409568 10.063 0)
(-0.505935 10.0666 0)
(-0.615495 10.0808 0)
(-0.737499 10.11 0)
(-0.869952 10.1594 0)
(-1.00921 10.2344 0)
(-1.14965 10.3403 0)
(-1.28344 10.4816 0)
(-1.40065 10.661 0)
(-1.49031 10.8769 0)
(-1.54651 11.1177 0)
(-1.5689 11.3697 0)
(-1.55658 11.6249 0)
(-1.52151 11.8926 0)
(-1.46031 12.1676 0)
(-1.36377 12.4254 0)
(-1.23262 12.6618 0)
(-1.0861 12.8691 0)
(-0.947466 13.0459 0)
(-0.818104 13.1929 0)
(-0.698815 13.2998 0)
(-0.588973 13.3289 0)
(-0.485609 13.2069 0)
(-0.388235 12.9133 0)
(-0.298351 12.4962 0)
(-0.217083 11.9636 0)
(-0.146318 11.2575 0)
(-0.0865929 10.2613 0)
(-0.0411382 8.79415 0)
(-0.0111711 5.63889 0)
(-0.14478 10.0841 0)
(-0.103242 10.0914 0)
(-0.0682566 10.0953 4.74314e-15)
(-0.0415492 10.0965 -8.85554e-15)
(-0.0213715 10.0948 8.26368e-15)
(-0.00647554 10.0904 -7.70901e-15)
(0.00413636 10.0833 0)
(0.0112325 10.0738 3.35084e-15)
(0.0154139 10.0623 -3.12342e-15)
(0.0170905 10.0492 -2.91133e-15)
(0.0166288 10.0354 0)
(0.0142612 10.0214 1.26372e-15)
(0.00954144 10.0083 0)
(0.00301379 10.0014 0)
(-0.193455 10.074 0)
(-0.252409 10.063 0)
(-0.322635 10.0525 0)
(-0.405274 10.0447 0)
(-0.501242 10.0422 0)
(-0.610995 10.0484 0)
(-0.734256 10.0676 0)
(-0.869679 10.1047 0)
(-1.01447 10.1652 0)
(-1.16402 10.2545 0)
(-1.3116 10.3778 0)
(-1.44831 10.5388 0)
(-1.56328 10.739 0)
(-1.64511 10.9755 0)
(-1.68883 11.2343 0)
(-1.69565 11.5004 0)
(-1.67854 11.7821 0)
(-1.63326 12.0742 0)
(-1.54857 12.351 0)
(-1.4306 12.6054 0)
(-1.28061 12.8345 0)
(-1.11894 13.0324 0)
(-0.96911 13.1995 0)
(-0.831644 13.3369 0)
(-0.70652 13.4351 0)
(-0.59268 13.458 0)
(-0.486781 13.3332 0)
(-0.387826 13.037 0)
(-0.297098 12.6152 0)
(-0.2155 12.0753 0)
(-0.144803 11.3584 0)
(-0.0854661 10.3477 0)
(-0.0404807 8.86362 0)
(-0.010902 5.68398 0)
(-0.191642 10.0676 0)
(-0.141472 10.0783 0)
(-0.0983871 10.086 0)
(-0.0650862 10.0908 9.34287e-15)
(-0.0394939 10.0927 -8.7205e-15)
(-0.020203 10.0916 8.13637e-15)
(-0.00603528 10.0876 0)
(0.0039876 10.0809 -3.53806e-15)
(0.0106154 10.0718 0)
(0.0144477 10.0606 3.07416e-15)
(0.0158944 10.0479 0)
(0.0153327 10.0344 0)
(0.0130219 10.0208 0)
(0.00862492 10.0081 1.22727e-15)
(0.00270255 10.0013 5.97728e-16)
(-0.249548 10.0542 0)
(-0.318987 10.0406 0)
(-0.400867 10.0285 0)
(-0.496216 10.0204 0)
(-0.605746 10.0195 0)
(-0.729579 10.0296 0)
(-0.866925 10.0555 0)
(-1.01573 10.1024 0)
(-1.1723 10.1758 0)
(-1.33099 10.2814 0)
(-1.48397 10.4237 0)
(-1.6213 10.6057 0)
(-1.73134 10.8274 0)
(-1.80252 11.0842 0)
(-1.83108 11.3599 0)
(-1.8346 11.655 0)
(-1.80786 11.964 0)
(-1.73709 12.2603 0)
(-1.6286 12.5353 0)
(-1.48972 12.7834 0)
(-1.322 13.0029 0)
(-1.14648 13.1901 0)
(-0.986624 13.3466 0)
(-0.842092 13.4739 0)
(-0.711984 13.5632 0)
(-0.59481 13.5795 0)
(-0.486885 13.4515 0)
(-0.386727 13.1523 0)
(-0.295429 12.7258 0)
(-0.21369 12.1787 0)
(-0.143182 11.4516 0)
(-0.0843069 10.4272 0)
(-0.0398213 8.92731 0)
(-0.0106343 5.72521 0)
(-0.247184 10.0464 0)
(-0.187219 10.0606 0)
(-0.134768 10.0721 1.0553e-14)
(-0.0937898 10.0808 9.85607e-15)
(-0.0618661 10.0865 9.20134e-15)
(-0.0373719 10.089 -8.586e-15)
(-0.0189934 10.0885 0)
(-0.00557505 10.0849 0)
(0.00384483 10.0786 0)
(0.00999487 10.0699 6.492e-15)
(0.0134729 10.059 3.02513e-15)
(0.0146875 10.0466 2.81845e-15)
(0.0140371 10.0334 0)
(0.0118235 10.0202 -1.29603e-15)
(0.00776242 10.0078 -6.316e-16)
(0.00241088 10.0013 0)
(-0.315395 10.0299 0)
(-0.396427 10.0141 0)
(-0.491026 10.0011 0)
(-0.600049 9.99374 0)
(-0.723935 9.99566 0)
(-0.862372 10.0112 0)
(-1.01395 10.0455 0)
(-1.1758 10.1041 0)
(-1.34326 10.1927 0)
(-1.5096 10.3164 0)
(-1.6659 10.4793 0)
(-1.80129 10.6831 0)
(-1.90356 10.9266 0)
(-1.96114 11.2029 0)
(-1.98839 11.5104 0)
(-1.9833 11.836 0)
(-1.92917 12.1523 0)
(-1.83215 12.4489 0)
(-1.70008 12.7187 0)
(-1.5412 12.9578 0)
(-1.35708 13.1662 0)
(-1.1691 13.3415 0)
(-1.00042 13.4867 0)
(-0.84981 13.6037 0)
(-0.715518 13.6838 0)
(-0.595608 13.6934 0)
(-0.486106 13.5619 0)
(-0.385077 13.2597 0)
(-0.293437 12.8285 0)
(-0.211715 12.2746 0)
(-0.141493 11.5376 0)
(-0.0831339 10.5003 0)
(-0.0391674 8.98568 0)
(-0.0103717 5.76289 0)
(-0.31244 10.0205 0)
(-0.241439 10.0381 0)
(-0.17827 10.0533 -2.22566e-14)
(-0.128423 10.066 7.54851e-21)
(-0.0891276 10.0758 -1.94128e-14)
(-0.0585529 10.0823 1.812e-14)
(-0.0351866 10.0855 -8.45322e-15)
(-0.0177483 10.0855 0)
(-0.00509803 10.0824 0)
(0.00370581 10.0764 -6.85478e-15)
(0.00936881 10.068 3.19427e-15)
(0.0124876 10.0574 -2.97607e-15)
(0.0134777 10.0453 2.80482e-15)
(0.012778 10.0325 2.73742e-15)
(0.0106846 10.0196 0)
(0.00694947 10.0076 0)
(0.00213667 10.0013 -6.3246e-16)
(-0.392057 10.0013 0)
(-0.485771 9.98389 0)