/*--------------------------------*- C++ -*----------------------------------*\
  =========                 |
  \\      /  F ield         | OpenFOAM: The Open Source CFD Toolbox
   \\    /   O peration     | Website:  https://openfoam.org
    \\  /    A nd           | Version:  8
     \\/     M anipulation  |
\*---------------------------------------------------------------------------*/
FoamFile
{
    version     2.0;
    format      ascii;
    class       volVectorField;
    location    "0.07";
    object      U;
}
// * * * * * * * * * * * * * * * * * * * * * * * * * * * * * * * * * * * * * //

dimensions      [0 1 -1 0 0 0 0];

internalField   nonuniform List<vector> 
15677
(
(-0.0399021 9.66594 0)
(0.048497 9.92198 0)
(-0.00181209 9.37823 0)
(0.0206554 9.97701 0)
(0.0198958 9.78861 0)
(0.00731653 9.14111 0)
(0.0258427 9.99515 0)
(0.0165444 9.92463 0)
(0.0111857 9.65385 0)
(0.00649693 8.9604 0)
(0.0263358 10.0025 0)
(0.020562 9.97867 0)
(0.0165626 9.85192 0)
(0.00913553 9.53055 0)
(0.0051679 8.81656 0)
(0.0255765 10.0057 0)
(0.0215975 10.0029 0)
(0.0194236 9.9414 0)
(0.0153845 9.77927 0)
(0.00799667 9.41939 0)
(0.00425268 8.70162 0)
(0.0245162 10.0071 0)
(0.0218823 10.0146 0)
(0.021026 9.98468 0)
(0.0182815 9.9022 0)
(0.0138852 9.70767 0)
(0.00694932 9.32084 0)
(0.00356215 8.60903 0)
(0.0231046 10.0075 0)
(0.0217634 10.0205 0)
(0.0218996 10.0068 0)
(0.0202383 9.96475 0)
(0.0170067 9.86151 0)
(0.0124874 9.64013 0)
(0.00600332 9.2353 0)
(0.00298314 8.53448 0)
(0.0214172 10.0074 0)
(0.0212174 10.0233 0)
(0.022192 10.0183 0)
(0.0213396 9.99786 0)
(0.0191147 9.9433 0)
(0.0156751 9.82161 0)
(0.0111444 9.57857 0)
(0.00512587 9.1625 0)
(0.00245282 8.47523 0)
(0.0195245 10.007 0)
(0.0203616 10.0235 0)
(0.0221619 10.024 0)
(0.021846 10.016 0)
(0.0202962 9.98774 0)
(0.0178115 9.92209 0)
(0.0142398 9.78432 0)
(0.00977791 9.52414 0)
(0.00426623 9.10218 0)
(0.00193368 8.4298 0)
(0.017511 10.0063 0)
(0.0193122 10.0223 0)
(0.0217281 10.027 0)
(0.0218814 10.0259 0)
(0.0208473 10.0127 0)
(0.0189797 9.9779 0)
(0.0163061 9.90257 0)
(0.0126561 9.75086 0)
(0.00833136 9.4778 0)
(0.00338014 9.05412 0)
(0.00139724 8.39714 0)
(0.0154114 10.0056 0)
(0.0180105 10.0206 0)
(0.0210109 10.028 0)
(0.0215544 10.0313 0)
(0.0209038 10.0269 0)
(0.0194674 10.0097 0)
(0.0173585 9.96958 0)
(0.0145444 9.8857 0)
(0.0108708 9.72237 0)
(0.00675629 9.44029 0)
(0.00242708 9.01822 0)
(0.00082104 8.37693 0)
(0.013275 10.0048 0)
(0.0165345 10.0185 0)
(0.0199495 10.0273 0)
(0.0208983 10.0338 0)
(0.0205484 10.035 0)
(0.0194231 10.0282 0)
(0.0176758 10.0082 0)
(0.0153736 9.96357 0)
(0.0124577 9.87245 0)
(0.00882553 9.69989 0)
(0.00500348 9.41232 0)
(0.00137435 8.9945 0)
(0.000177524 8.36891 0)
(0.0111772 10.0041 0)
(0.0149473 10.0162 0)
(0.0186129 10.0257 0)
(0.019935 10.0343 0)
(0.0198433 10.0392 0)
(0.0189344 10.039 0)
(0.0174117 10.0309 0)
(0.0154074 10.0088 0)
(0.0129425 9.96074 0)
(0.00997062 9.8638 0)
(0.00645907 9.68442 0)
(0.00302843 9.39449 0)
(0.000195064 8.98304 0)
(-0.000475341 8.37304 0)
(0.00927863 10.0034 0)
(0.013255 10.014 0)
(0.017041 10.0234 0)
(0.0186647 10.0332 0)
(0.0188039 10.0408 0)
(0.018052 10.0449 0)
(0.0166574 10.0443 0)
(0.0147973 10.0357 0)
(0.0125626 10.0125 0)
(0.00996994 9.96194 0)
(0.00700383 9.86069 0)
(0.00371432 9.6769 0)
(0.000792582 9.3874 0)
(-0.00111341 8.98413 0)
(-0.00123224 8.38933 0)
(0.00773717 10.0029 0)
(0.0117085 10.0119 0)
(0.0152714 10.0208 0)
(0.0171015 10.0312 0)
(0.0174307 10.0405 0)
(0.016795 10.0477 0)
(0.0154587 10.052 0)
(0.0136359 10.0517 0)
(0.0114628 10.0433 0)
(0.009025 10.0199 0)
(0.00635476 9.96804 0)
(0.00348073 9.86407 0)
(0.000537216 9.67823 0)
(-0.00175091 9.39161 0)
(-0.00260386 8.99787 0)
(-0.00208011 8.41802 0)
(0.00642455 10.0024 0)
(0.0103216 10.0102 0)
(0.0135528 10.0183 0)
(0.0152753 10.0284 0)
(0.0157279 10.0388 0)
(0.0151676 10.0482 0)
(0.0138344 10.0559 0)
(0.0119669 10.0611 0)
(0.00973397 10.0618 0)
(0.00726861 10.0545 0)
(0.00466982 10.032 0)
(0.00199766 9.9799 0)
(-0.000668365 9.87489 0)
(-0.00312055 9.68922 0)
(-0.00461929 9.40761 0)
(-0.00427243 9.02447 0)
(-0.00301725 8.45912 0)
(0.00532172 10.002 0)
(0.009074 10.0087 0)
(0.011989 10.0162 0)
(0.0134277 10.0255 0)
(0.0137122 10.0361 0)
(0.0131704 10.0469 0)
(0.0117882 10.0571 0)
(0.0098053 10.066 0)
(0.00741602 10.0727 0)
(0.00478658 10.0754 0)
(0.00206426 10.0702 0)
(-0.000627728 10.0494 0)
(-0.0031967 9.99841 0)
(-0.005514 9.894 0)
(-0.00729799 9.7106 0)
(-0.00783762 9.43577 0)
(-0.00612228 9.06393 0)
(-0.00403878 8.51262 0)
(0.00440124 10.0016 0)
(0.00794891 10.0074 0)
(0.010546 10.0142 0)
(0.011715 10.0229 0)
(0.0116407 10.033 0)
(0.0108125 10.0443 0)
(0.00932041 10.0562 0)
(0.00715242 10.0678 0)
(0.00451889 10.0786 0)
(0.00161201 10.0877 0)
(-0.0013857 10.0932 0)
(-0.00430277 10.091 0)
(-0.00698662 10.073 0)
(-0.00931094 10.0244 0)
(-0.0111034 9.92223 0)
(-0.0120222 9.74295 0)
(-0.011418 9.47632 0)
(-0.00815662 9.11632 0)
(-0.00514226 8.57833 0)
(0.00362723 10.0013 0)
(0.00693466 10.0062 0)
(0.00921569 10.0125 0)
(0.0101057 10.0205 0)
(0.00970591 10.03 0)
(0.00838414 10.041 0)
(0.00643839 10.0537 0)
(0.00400807 10.0672 0)
(0.00103968 10.081 0)
(-0.00225264 10.0945 0)
(-0.00565737 10.1068 0)
(-0.00896628 10.116 0)
(-0.0119789 10.1177 0)
(-0.014514 10.1036 0)
(-0.0164138 10.0586 0)
(-0.0174696 9.96023 0)
(-0.0173025 9.7867 0)
(-0.0153561 9.52938 0)
(-0.0103616 9.18134 0)
(-0.00631439 8.65587 0)
(0.0030058 10.001 0)
(0.00603154 10.0052 0)
(0.00799382 10.0109 0)
(0.00860644 10.0183 0)
(0.00787995 10.0272 0)
(0.00611375 10.0377 0)
(0.00348731 10.0501 0)
(0.000381525 10.0646 0)
(-0.00302295 10.0805 0)
(-0.00681613 10.0972 0)
(-0.0107587 10.1142 0)
(-0.0146101 10.1307 0)
(-0.0181317 10.1445 0)
(-0.0210957 10.1511 0)
(-0.0232959 10.142 0)
(-0.0245487 10.1018 0)
(-0.0246243 10.0085 0)
(-0.0231294 9.84209 0)
(-0.0196349 9.59483 0)
(-0.0127276 9.25878 0)
(-0.00754747 8.74476 0)
(0.00250504 10.0008 0)
(0.005207 10.0044 0)
(0.00687964 10.0096 0)
(0.00722073 10.0163 0)
(0.00617943 10.0245 0)
(0.00397374 10.0343 0)
(0.000737951 10.0463 0)
(-0.00330029 10.0607 0)
(-0.00765595 10.0777 0)
(-0.0120818 10.0968 0)
(-0.0167067 10.1172 0)
(-0.0212564 10.1387 0)
(-0.0254568 10.1602 0)
(-0.0290412 10.1795 0)
(-0.0317594 10.1919 0)
(-0.0333885 10.1887 0)
(-0.0337309 10.1544 0)
(-0.032554 10.0675 0)
(-0.0294758 9.90918 0)
(-0.0242232 9.67243 0)
(-0.0152217 9.34794 0)
(-0.00881781 8.84413 0)
(0.00212315 10.0007 0)
(0.00450895 10.0037 0)
(0.00586165 10.0084 0)
(0.0059502 10.0145 0)
(0.00461368 10.022 0)
(0.00199006 10.0311 0)
(-0.00184181 10.0424 0)
(-0.00671078 10.0563 0)
(-0.01232 10.0733 0)
(-0.0180318 10.0936 0)
(-0.0235079 10.1166 0)
(-0.0289335 10.1417 0)
(-0.0339953 10.1685 0)
(-0.0383881 10.1959 0)
(-0.0418245 10.2216 0)
(-0.0440419 10.2408 0)
(-0.0448132 10.2443 0)
(-0.0439434 10.2168 0)
(-0.0412201 10.1372 0)
(-0.0362932 9.98778 0)
(-0.0290734 9.76167 0)
(-0.0178225 9.44822 0)
(-0.0101064 8.95325 0)
(0.0018278 10.0006 0)
(0.00393983 10.0032 0)
(0.00498414 10.0073 0)
(0.00479462 10.0128 0)
(0.00318831 10.0196 0)
(0.000178521 10.028 0)
(-0.00421668 10.0385 0)
(-0.00989209 10.0517 0)
(-0.0166146 10.0682 0)
(-0.0239788 10.0884 0)
(-0.0311389 10.1128 0)
(-0.0376532 10.1406 0)
(-0.0437907 10.1713 0)
(-0.0492023 10.2043 0)
(-0.0535609 10.2386 0)
(-0.0565712 10.2715 0)
(-0.0579728 10.2981 0)
(-0.0575517 10.3092 0)
(-0.0551356 10.2892 0)
(-0.0505547 10.2177 0)
(-0.0435105 10.0775 0)
(-0.0341307 9.86189 0)
(-0.0204641 9.55857 0)
(-0.0113472 9.07049 0)
(0.00159578 10.0005 0)
(0.00347591 10.0028 0)
(0.00426303 10.0065 0)
(0.00380026 10.0113 0)
(0.00190744 10.0174 0)
(-0.00145035 10.0251 0)
(-0.00636343 10.0347 0)
(-0.012799 10.047 0)
(-0.0205975 10.0626 0)
(-0.0294263 10.0823 0)
(-0.0387238 10.1066 0)
(-0.0473862 10.136 0)
(-0.0548628 10.1697 0)
(-0.0615473 10.2068 0)
(-0.0670661 10.2469 0)
(-0.0710864 10.2888 0)
(-0.0733215 10.3296 0)
(-0.0735331 10.3644 0)
(-0.0715424 10.3835 0)
(-0.0672203 10.3716 0)
(-0.0604612 10.3086 0)
(-0.0510417 10.1778 0)
(-0.039277 9.97217 0)
(-0.0230295 9.67767 0)
(-0.0122501 9.19397 0)
(0.001411 10.0005 0)
(0.0030959 10.0025 0)
(0.00367364 10.0058 0)
(0.00299026 10.0101 0)
(0.000822189 10.0155 0)
(-0.00288905 10.0223 0)
(-0.00826575 10.031 0)
(-0.0153997 10.0422 0)
(-0.0242123 10.0568 0)
(-0.0344535 10.0755 0)
(-0.0456437 10.0992 0)
(-0.0570215 10.1285 0)
(-0.0671769 10.1638 0)
(-0.0754549 10.2043 0)
(-0.0824297 10.2489 0)
(-0.0877235 10.2969 0)
(-0.0910175 10.347 0)
(-0.0920567 10.3964 0)
(-0.0906509 10.4397 0)
(-0.0866797 10.4673 0)
(-0.0800746 10.4639 0)
(-0.0708203 10.4095 0)
(-0.0587349 10.2879 0)
(-0.0444602 10.0913 0)
(-0.0257106 9.80498 0)
(-0.0143741 9.32375 0)
(0.00126202 10.0004 0)
(0.00278169 10.0022 0)
(0.00318784 10.0053 0)
(0.00233549 10.0091 0)
(-4.43603e-05 10.0139 0)
(-0.0040795 10.0197 0)
(-0.00991203 10.0274 0)
(-0.0176708 10.0375 0)
(-0.0274166 10.0508 0)
(-0.0389907 10.0683 0)
(-0.052006 10.0909 0)
(-0.065788 10.1195 0)
(-0.0793362 10.1547 0)
(-0.090887 10.197 0)
(-0.0997004 10.2452 0)
(-0.106606 10.298 0)
(-0.111244 10.3547 0)
(-0.113339 10.4137 0)
(-0.112698 10.472 0)
(-0.109204 10.5242 0)
(-0.102813 10.5604 0)
(-0.0935403 10.5654 0)
(-0.0814376 10.5196 0)
(-0.0664472 10.4066 0)
(-0.0489247 10.2184 0)
(-0.0222125 9.93417 0)
(-0.0101069 9.39724 0)
(0.00114052 10.0004 0)
(0.00251977 10.002 0)
(0.00278805 10.0049 0)
(0.00180488 10.0083 0)
(-0.00072871 10.0125 0)
(-0.00500198 10.0175 0)
(-0.0112354 10.0241 0)
(-0.0195954 10.0329 0)
(-0.0301787 10.0449 0)
(-0.0429833 10.0609 0)
(-0.0577245 10.0821 0)
(-0.0738282 10.1094 0)
(-0.0903811 10.1438 0)
(-0.106103 10.1859 0)
(-0.118839 10.2362 0)
(-0.127805 10.293 0)
(-0.134168 10.3549 0)
(-0.137623 10.4208 0)
(-0.137967 10.4891 0)
(-0.135102 10.5565 0)
(-0.129008 10.6176 0)
(-0.119745 10.6625 0)
(-0.107387 10.6757 0)
(-0.0921301 10.638 0)
(-0.0736678 10.5329 0)
(-0.0523601 10.3505 0)
(-0.0172841 10.0941 0)
(-0.0016248 9.4503 0)
(0.00104036 10.0003 0)
(0.00230065 10.0018 0)
(0.00245451 10.0045 0)
(0.00137304 10.0076 0)
(-0.0012678 10.0113 0)
(-0.0057042 10.0156 0)
(-0.0122222 10.0211 0)
(-0.021095 10.0286 0)
(-0.0324744 10.039 0)
(-0.0463884 10.0534 0)
(-0.0627296 10.0728 0)
(-0.0810361 10.0984 0)
(-0.100498 10.1314 0)
(-0.119917 10.1726 0)
(-0.137704 10.2226 0)
(-0.151292 10.2819 0)
(-0.159897 10.3483 0)
(-0.165124 10.4198 0)
(-0.166763 10.4954 0)
(-0.164732 10.5732 0)
(-0.159053 10.6498 0)
(-0.149829 10.7197 0)
(-0.137207 10.7728 0)
(-0.121371 10.7939 0)
(-0.102353 10.7637 0)
(-0.07958 10.6658 0)
(-0.0549617 10.4958 0)
(-0.0183192 10.2547 0)
(0.00377975 9.49422 0)
(0.000956937 10.0003 0)
(0.00211655 10.0017 0)
(0.00217557 10.0042 0)
(0.00102365 10.007 0)
(-0.00169173 10.0102 0)
(-0.00623298 10.014 0)
(-0.0129362 10.0186 0)
(-0.0221647 10.0247 0)
(-0.03421 10.0333 0)
(-0.049173 10.0458 0)
(-0.066965 10.0632 0)
(-0.0873234 10.0868 0)
(-0.109558 10.1178 0)
(-0.132569 10.1575 0)
(-0.154838 10.2066 0)
(-0.174455 10.2656 0)
(-0.188407 10.3347 0)
(-0.195989 10.4114 0)
(-0.199367 10.4931 0)
(-0.198479 10.5786 0)
(-0.193393 10.6659 0)
(-0.184281 10.7516 0)
(-0.171365 10.8299 0)
(-0.154908 10.8909 0)
(-0.134999 10.9192 0)
(-0.1115 10.8961 0)
(-0.0842283 10.806 0)
(-0.0563027 10.6531 0)
(-0.0207731 10.4108 0)
(0.00484068 9.53711 0)
(0.000886838 10.0003 0)
(0.00196131 10.0016 0)
(0.00194259 10.0039 0)
(0.000738547 10.0065 0)
(-0.002024 10.0094 0)
(-0.00662614 10.0126 0)
(-0.0134382 10.0164 0)
(-0.0228905 10.0214 0)
(-0.0353919 10.0283 0)
(-0.0512226 10.0385 0)
(-0.0703857 10.0536 0)
(-0.0926168 10.0748 0)
(-0.117448 10.1035 0)
(-0.143899 10.1409 0)
(-0.170543 10.1883 0)
(-0.195517 10.2464 0)
(-0.216556 10.3153 0)
(-0.230226 10.3951 0)
(-0.23599 10.4826 0)
(-0.236707 10.5748 0)
(-0.232508 10.6704 0)
(-0.223646 10.7671 0)
(-0.210449 10.8615 0)
(-0.193277 10.9476 0)
(-0.172385 11.0158 0)
(-0.14776 11.051 0)
(-0.119948 11.0348 0)
(-0.0886709 10.9537 0)
(-0.0573404 10.8169 0)
(-0.0229793 10.5618 0)
(0.00444261 9.59292 0)
(0.000827487 10.0003 0)
(0.00182983 10.0015 0)
(0.00174697 10.0036 0)
(0.000504551 10.006 0)
(-0.00228426 10.0086 0)
(-0.00691393 10.0113 0)
(-0.0137772 10.0145 0)
(-0.023352 10.0184 0)
(-0.036135 10.0239 0)
(-0.0525576 10.032 0)
(-0.0728501 10.0443 0)
(-0.0968562 10.0626 0)
(-0.124074 10.0885 0)
(-0.153769 10.1233 0)
(-0.184627 10.1682 0)
(-0.214857 10.2244 0)
(-0.242205 10.2924 0)
(-0.264095 10.3722 0)
(-0.276674 10.4635 0)
(-0.279699 10.5623 0)
(-0.276855 10.6652 0)
(-0.268506 10.7706 0)
(-0.255112 10.8763 0)
(-0.237175 10.9788 0)
(-0.215119 11.0722 0)
(-0.189182 11.147 0)
(-0.159845 11.1888 0)
(-0.128318 11.1791 0)
(-0.0937461 11.1076 0)
(-0.0591358 10.9821 0)
(-0.025317 10.7247 0)
(0.00338206 9.65858 0)
(0.00077689 10.0002 0)
(0.00171785 10.0014 0)
(0.0015836 10.0034 0)
(0.000311724 10.0056 0)
(-0.00248797 10.0079 0)
(-0.00712038 10.0103 0)
(-0.0139921 10.0128 0)
(-0.0236133 10.0158 0)
(-0.0365443 10.02 0)
(-0.0533304 10.0262 0)
(-0.0743945 10.0358 0)
(-0.0998637 10.0507 0)
(-0.129357 10.0732 0)
(-0.162056 10.1047 0)
(-0.196915 10.1466 0)
(-0.232239 10.2002 0)
(-0.265818 10.2663 0)
(-0.295036 10.3454 0)
(-0.317026 10.4368 0)
(-0.327556 10.54 0)
(-0.326803 10.6504 0)
(-0.319423 10.7639 0)
(-0.306047 10.8788 0)
(-0.287363 10.993 0)
(-0.264008 11.103 0)
(-0.236473 11.203 0)
(-0.205387 11.284 0)
(-0.171699 11.3316 0)
(-0.136771 11.3279 0)
(-0.0994429 11.265 0)
(-0.0620915 11.1655 0)
(-0.0277773 10.8996 0)
(0.0017673 9.73265 0)
(0.000733447 10.0002 0)
(0.00162206 10.0014 0)
(0.00144533 10.0033 0)
(0.000151371 10.0053 0)
(-0.00264727 10.0074 0)
(-0.00726446 10.0093 0)
(-0.0141135 10.0113 0)
(-0.0237251 10.0135 0)
(-0.0367038 10.0165 0)
(-0.0536783 10.021 0)
(-0.0752182 10.0283 0)
(-0.101694 10.0399 0)
(-0.133071 10.0582 0)
(-0.168656 10.0856 0)
(-0.207253 10.1239 0)
(-0.24745 10.1741 0)
(-0.28711 10.2374 0)
(-0.323616 10.3147 0)
(-0.354007 10.4057 0)
(-0.375164 10.5094 0)
(-0.382536 10.625 0)
(-0.376878 10.747 0)
(-0.363942 10.8707 0)
(-0.344659 10.9947 0)
(-0.319934 11.1167 0)
(-0.290543 11.2333 0)
(-0.257312 11.3394 0)
(-0.22131 11.4258 0)
(-0.183536 11.4783 0)
(-0.145236 11.4793 0)
(-0.105905 11.4426 0)
(-0.0658564 11.3656 0)
(-0.0303896 11.0691 0)
(-4.61406e-06 9.81299 0)
(0.000696191 10.0002 0)
(0.00153964 10.0013 0)
(0.00132782 10.0031 0)
(1.91039e-05 10.005 0)
(-0.00277174 10.0069 0)
(-0.00736103 10.0085 0)
(-0.0141654 10.01 0)
(-0.0237273 10.0115 0)
(-0.03668 10.0135 0)
(-0.0537113 10.0165 0)
(-0.0755 10.0216 0)
(-0.102603 10.0303 0)
(-0.135289 10.0445 0)
(-0.173282 10.0669 0)
(-0.215504 10.1003 0)
(-0.260294 10.1465 0)
(-0.305819 10.2062 0)
(-0.349496 10.2806 0)
(-0.388301 10.3699 0)
(-0.418956 10.4736 0)
(-0.438173 10.5903 0)
(-0.441161 10.7184 0)
(-0.429409 10.8517 0)
(-0.409889 10.9852 0)
(-0.383843 11.1175 0)
(-0.352399 11.2465 0)
(-0.316645 11.3692 0)
(-0.277788 11.4804 0)
(-0.237061 11.5712 0)
(-0.195335 11.627 0)
(-0.154465 11.65 0)
(-0.112839 11.6387 0)
(-0.0699462 11.5607 0)
(-0.0328999 11.2327 0)
(-0.00172928 9.89769 0)
(0.00146762 10.0012 0)
(0.000651821 10.0002 0)
(0.00122711 10.003 0)
(-9.05719e-05 10.0047 0)
(-0.00286861 10.0064 0)
(-0.00742171 10.0078 0)
(-0.0141666 10.0089 0)
(-0.0236507 10.0098 0)
(-0.0365248 10.0108 0)
(-0.0535164 10.0125 0)
(-0.0753827 10.0157 0)
(-0.102822 10.0216 0)
(-0.136337 10.0322 0)
(-0.176024 10.0497 0)
(-0.221302 10.0772 0)
(-0.270596 10.1178 0)
(-0.321701 10.1731 0)
(-0.372353 10.2436 0)
(-0.419506 10.3301 0)
(-0.459749 10.4325 0)
(-0.489561 10.5497 0)
(-0.50558 10.6794 0)
(-0.502873 10.8199 0)
(-0.483817 10.9642 0)
(-0.456714 11.1069 0)
(-0.42313 11.2468 0)
(-0.384515 11.382 0)
(-0.342313 11.5097 0)
(-0.297905 11.625 0)
(-0.252537 11.7185 0)
(-0.208194 11.794 0)
(-0.164238 11.8389 0)
(-0.119473 11.8317 0)
(-0.0739931 11.7494 0)
(-0.0352044 11.3901 0)
(-0.00326183 9.98497 0)
(0.00113894 10.0029 0)
(0.00138456 10.0012 0)
(0.000598772 10.0002 0)
(-0.000182395 10.0045 0)
(-0.00294351 10.006 0)
(-0.00745533 10.0072 0)
(-0.0141316 10.0079 0)
(-0.0235194 10.0082 0)
(-0.0362785 10.0084 0)
(-0.0531612 10.0089 0)
(-0.0749792 10.0104 0)
(-0.102534 10.014 0)
(-0.136508 10.0212 0)
(-0.17729 10.0343 0)
(-0.224748 10.0559 0)
(-0.277887 10.0894 0)
(-0.33453 10.1384 0)
(-0.391887 10.2042 0)
(-0.447234 10.2868 0)
(-0.497073 10.3866 0)
(-0.537669 10.5029 0)
(-0.565349 10.6339 0)
(-0.576794 10.7769 0)
(-0.567031 10.9295 0)
(-0.539486 11.0841 0)
(-0.503885 11.2352 0)
(-0.462168 11.3816 0)
(-0.416141 11.522 0)
(-0.367456 11.6538 0)
(-0.317522 11.7714 0)
(-0.269219 11.8839 0)
(-0.221678 11.9787 0)
(-0.173444 12.0256 0)
(-0.125622 12.0195 0)
(-0.0778025 11.9307 0)
(-0.0372704 11.541 0)
(-0.00466695 10.0731 0)
(-0.000263868 10.0043 0)
(0.00104639 10.0027 0)
(0.00128436 10.0011 0)
(0.00054823 10.0002 2.00588e-19)
(-0.00300097 10.0057 0)
(-0.00746829 10.0066 0)
(-0.0140712 10.007 0)
(-0.0233516 10.0068 0)
(-0.0359718 10.0063 0)
(-0.0526981 10.0058 0)
(-0.0743774 10.0057 0)
(-0.101884 10.0072 0)
(-0.136036 10.0114 0)
(-0.177448 10.0204 0)
(-0.226345 10.0366 0)
(-0.282269 10.0633 0)
(-0.343709 10.1041 0)
(-0.40781 10.1628 0)
(-0.471115 10.2405 0)
(-0.530464 10.3365 0)
(-0.581952 10.4505 0)
(-0.621603 10.5813 0)
(-0.645708 10.7265 0)
(-0.65112 10.8825 0)
(-0.632944 11.0467 0)
(-0.595799 11.2108 0)
(-0.550934 11.3692 0)
(-0.500676 11.5212 0)
(-0.447077 11.6657 0)
(-0.391875 11.7998 0)
(-0.338579 11.936 0)
(-0.28661 12.0665 0)
(-0.234177 12.1611 0)
(-0.181907 12.2079 0)
(-0.131169 12.2006 0)
(-0.0812602 12.104 0)
(-0.0390493 11.6852 0)
(-0.00591387 10.1606 0)
(-0.00305494 10.0054 0)
(-0.000333249 10.0041 0)
(0.000941101 10.0025 8.95957e-19)
(0.00118766 10.001 -6.3558e-19)
(0.000500003 10.0002 -4.00057e-19)
(-0.00746626 10.0061 0)
(-0.0139929 10.0062 0)
(-0.0231611 10.0056 0)
(-0.0356285 10.0045 0)
(-0.052167 10.003 0)
(-0.0736452 10.0016 0)
(-0.100987 10.0011 0)
(-0.135107 10.0027 0)
(-0.176792 10.008 0)
(-0.226551 10.0193 0)
(-0.284357 10.0395 0)
(-0.349328 10.0723 0)
(-0.41936 10.1217 0)
(-0.490789 10.1917 0)
(-0.559475 10.2826 0)
(-0.621864 10.3931 0)
(-0.673718 10.5222 0)
(-0.710934 10.668 0)
(-0.729903 10.8273 0)
(-0.727792 10.996 0)
(-0.699896 11.171 0)
(-0.652171 11.3436 0)
(-0.597449 11.5082 0)
(-0.53835 11.6646 0)
(-0.477062 11.8116 0)
(-0.418007 11.964 0)
(-0.360498 12.1178 0)
(-0.302638 12.2469 0)
(-0.24553 12.3393 0)
(-0.189503 12.3843 0)
(-0.136064 12.3743 0)
(-0.0843149 12.2691 0)
(-0.0405452 11.8224 0)
(-0.00699487 10.2464 0)
(-0.00746948 10.0057 0)
(-0.00306492 10.005 -1.91474e-18)
(-0.00039396 10.0038 -9.45081e-19)
(0.000841516 10.0024 4.46993e-19)
(0.00109456 10.001 -4.22449e-19)
(0.000454145 10.0001 0)
(-0.013903 10.0055 0)
(-0.0229567 10.0046 0)
(-0.0352656 10.0029 0)
(-0.0515982 10.0005 0)
(-0.0728341 9.99796 0)
(-0.099929 9.99576 0)
(-0.133866 9.99493 0)
(-0.175558 9.99692 0)
(-0.225732 10.0038 0)
(-0.284708 10.0181 0)
(-0.352122 10.0434 0)
(-0.426595 10.0835 0)
(-0.50529 10.1429 0)
(-0.583656 10.2255 0)
(-0.656869 10.3311 0)
(-0.721064 10.4571 0)
(-0.771776 10.6021 0)
(-0.804907 10.7631 0)
(-0.817104 10.9362 0)
(-0.805997 11.117 0)
(-0.767176 11.3018 0)
(-0.708053 11.4816 0)
(-0.643011 11.6512 0)
(-0.574854 11.8104 0)
(-0.5091 11.9757 0)
(-0.445169 12.1457 0)
(-0.38065 12.2975 0)
(-0.317155 12.4231 0)
(-0.255641 12.512 0)
(-0.196194 12.554 0)
(-0.140301 12.5401 0)
(-0.0869566 12.4256 0)
(-0.0417813 11.9524 0)
(-0.00791513 10.3296 0)
(-0.0138314 10.0049 0)
(-0.00738072 10.0052 4.03793e-18)
(-0.00302035 10.0046 0)
(-0.000450537 10.0035 9.42652e-19)
(0.000748237 10.0022 1.44402e-22)
(0.00100524 10.0009 0)
(0.000410673 10.0001 0)
(-0.0227448 10.0037 0)
(-0.034894 10.0014 0)
(-0.051014 9.99838 0)
(-0.0719834 9.99474 0)
(-0.0987772 9.99102 0)
(-0.132424 9.98805 0)
(-0.173929 9.98709 0)
(-0.224182 9.98991 0)
(-0.283776 9.99891 0)
(-0.352767 10.0172 0)
(-0.430383 10.0486 0)
(-0.514613 10.0974 0)
(-0.601793 10.1683 0)
(-0.686416 10.2651 0)
(-0.763008 10.3866 0)
(-0.827513 10.5291 0)
(-0.875371 10.6903 0)
(-0.902654 10.8664 0)
(-0.906419 11.0529 0)
(-0.884899 11.2448 0)
(-0.834085 11.4382 0)
(-0.7629 11.624 0)
(-0.687195 11.7969 0)
(-0.613856 11.9747 0)
(-0.542395 12.1577 0)
(-0.4701 12.3253 0)
(-0.398875 12.4731 0)
(-0.330071 12.594 0)
(-0.264491 12.6783 0)
(-0.201981 12.7163 0)
(-0.143901 12.6975 0)
(-0.0891973 12.5735 0)
(-0.0427849 12.0752 0)
(-0.00868715 10.4095 0)
(-0.02257 10.0028 0)
(-0.0136002 10.0042 4.36862e-22)
(-0.00716405 10.0046 0)
(-0.00297617 10.0042 -9.93981e-19)
(-0.000497866 10.0032 9.50843e-23)
(0.000661073 10.002 0)
(0.000919681 10.0008 0)
(0.000369592 10.0001 0)
(-0.0345202 10.0002 0)
(-0.0504271 9.99646 0)
(-0.0711214 9.99189 0)
(-0.0975818 9.98682 0)
(-0.130867 9.98196 0)
(-0.172047 9.97836 0)
(-0.222132 9.97756 0)
(-0.281924 9.98172 0)
(-0.351813 9.99366 0)
(-0.43153 10.0169 0)
(-0.519767 10.0557 0)
(-0.613781 10.1147 0)
(-0.708988 10.1987 0)
(-0.798879 10.3111 0)
(-0.877403 10.4496 0)
(-0.940479 10.6094 0)
(-0.983614 10.7869 0)
(-1.00322 10.9779 0)
(-0.99692 11.177 0)
(-0.963672 11.3787 0)
(-0.899945 11.5794 0)
(-0.816181 11.7695 0)
(-0.734441 11.9615 0)
(-0.654409 12.1572 0)
(-0.572956 12.3378 0)
(-0.492632 12.5012 0)
(-0.41509 12.6435 0)
(-0.341381 12.7586 0)
(-0.272117 12.8375 0)
(-0.206904 12.8707 0)
(-0.146902 12.8464 0)
(-0.0910596 12.7128 0)
(-0.043584 12.1908 0)
(-0.00932659 10.4857 0)
(-0.0342092 9.99905 0)
(-0.0221398 10.0019 -2.2434e-18)
(-0.0131266 10.0034 0)
(-0.00695423 10.004 0)
(-0.00291801 10.0038 2.97297e-18)
(-0.00053616 10.0029 0)
(0.000580071 10.0019 0)
(0.000837991 10.0007 8.35384e-19)
(0.000330928 10.0001 0)
(-0.0498446 9.99477 0)
(-0.070264 9.98936 0)
(-0.0963792 9.98311 0)
(-0.129259 9.97656 0)
(-0.170019 9.97061 0)
(-0.219759 9.96659 0)
(-0.279437 9.96639 0)
(-0.349704 9.97256 0)
(-0.430698 9.98835 0)
(-0.521701 10.0178 0)
(-0.62077 10.0654 0)
(-0.72433 10.1361 0)
(-0.826801 10.2347 0)
(-0.92065 10.3642 0)
(-0.999377 10.5208 0)
(-1.05907 10.6982 0)
(-1.0955 10.8921 0)
(-1.10558 11.0972 0)
(-1.08767 11.3078 0)
(-1.04152 11.5182 0)
(-0.964099 11.7243 0)
(-0.873237 11.9343 0)
(-0.78362 12.1448 0)
(-0.691658 12.3383 0)
(-0.60059 12.5145 0)
(-0.512689 12.6719 0)
(-0.4293 12.8078 0)
(-0.351136 12.9163 0)
(-0.278585 12.9891 0)
(-0.211019 13.017 0)
(-0.149356 12.9868 0)
(-0.0925753 12.8437 0)
(-0.0442064 12.2993 0)
(-0.00985041 10.5581 0)
(-0.049359 9.99328 0)
(-0.0335111 9.9978 0)
(-0.021302 10.0008 -2.3345e-18)
(-0.0126727 10.0026 -2.20927e-18)
(-0.00672432 10.0034 -4.1786e-18)
(-0.00284583 10.0034 0)
(-0.000565427 10.0027 -1.86597e-18)
(0.000505392 10.0017 -1.76199e-18)
(0.000760205 10.0007 8.31416e-19)
(0.000294628 10.0001 0)
(-0.0694184 9.98713 0)
(-0.0951889 9.97982 0)
(-0.127647 9.97178 0)
(-0.16793 9.96373 0)
(-0.217201 9.95684 0)
(-0.276537 9.95273 0)
(-0.346791 9.9537 0)
(-0.428423 9.96271 0)
(-0.521202 9.98347 0)
(-0.623866 10.0204 0)
(-0.733734 10.0784 0)
(-0.846309 10.1626 0)
(-0.954952 10.2773 0)
(-1.05114 10.4251 0)
(-1.12808 10.6005 0)
(-1.18228 10.7957 0)
(-1.20995 11.0055 0)
(-1.2087 11.2239 0)
(-1.17773 11.4448 0)
(-1.11766 11.662 0)
(-1.03304 11.8891 0)
(-0.932759 12.1184 0)
(-0.828842 12.3271 0)
(-0.725363 12.5161 0)
(-0.625212 12.6862 0)
(-0.530285 12.8367 0)
(-0.441575 12.9652 0)
(-0.359428 13.0666 0)
(-0.283985 13.133 0)
(-0.214399 13.1551 0)
(-0.15132 13.1188 0)
(-0.0937803 12.9663 0)
(-0.0446778 12.4009 0)
(-0.0102745 10.6263 0)
(-0.0687146 9.98515 0)
(-0.0483086 9.99164 -2.49393e-18)
(-0.0321729 9.99643 2.45912e-18)
(-0.020505 9.9998 -1.09079e-21)
(-0.0121898 10.0019 2.20186e-18)
(-0.00647398 10.0029 2.08197e-18)
(-0.0027604 10.003 3.93435e-18)
(-0.000585559 10.0024 2.7866e-18)
(0.000436891 10.0016 -8.76788e-19)
(0.000686378 10.0006 0)
(0.00026068 10.0001 0)
(-0.0940186 9.97691 0)
(-0.126055 9.96754 0)
(-0.165837 9.95764 0)
(-0.214562 9.94818 0)
(-0.273396 9.94058 0)
(-0.343349 9.93688 0)
(-0.425133 9.93974 0)
(-0.518911 9.95259 0)
(-0.623991 9.97961 0)
(-0.73847 10.0256 0)
(-0.858829 10.0957 0)
(-0.979561 10.1948 0)
(-1.09296 10.3273 0)
(-1.18955 10.4944 0)
(-1.2625 10.6891 0)
(-1.30898 10.902 0)
(-1.32583 11.127 0)
(-1.31153 11.3575 0)
(-1.2662 11.5869 0)
(-1.19982 11.8264 0)
(-1.10523 12.0741 0)
(-0.987641 12.3022 0)
(-0.869814 12.5065 0)
(-0.755422 12.6893 0)
(-0.646842 12.8521 0)
(-0.54551 12.9949 0)
(-0.452028 13.1155 0)
(-0.366371 13.2093 0)
(-0.288418 13.2689 0)
(-0.217121 13.2851 0)
(-0.152854 13.2426 0)
(-0.0947139 13.081 0)
(-0.0450212 12.4959 0)
(-0.0106139 10.6906 0)
(-0.0930485 9.97433 0)
(-0.0672107 9.98303 -3.27926e-21)
(-0.0463014 9.98988 0)
(-0.0309087 9.9951 -1.77281e-21)
(-0.0196673 9.99881 0)
(-0.0116777 10.0012 -2.19393e-18)
(-0.0062041 10.0023 -4.14696e-18)
(-0.00266144 10.0026 5.46257e-23)
(-0.000596675 10.0022 1.84861e-18)
(0.000374595 10.0015 -8.72109e-19)
(0.000616503 10.0006 8.22407e-19)
(0.000229059 10.0001 0)
(-0.124492 9.96378 0)
(-0.163771 9.95223 0)
(-0.211916 9.94049 0)
(-0.270145 9.92978 0)
(-0.33959 9.92189 0)
(-0.421165 9.91921 0)
(-0.515344 9.92488 0)
(-0.621906 9.94278 0)
(-0.739609 9.97749 0)
(-0.8658 10.0341 0)
(-0.996024 10.118 0)
(-1.12372 10.2339 0)
(-1.24012 10.3853 0)
(-1.33493 10.5726 0)
(-1.40151 10.7869 0)
(-1.43798 11.0169 0)
(-1.44201 11.2561 0)
(-1.41303 11.497 0)
(-1.36211 11.7504 0)
(-1.28626 12.0122 0)
(-1.17206 12.2598 0)
(-1.03753 12.4838 0)
(-0.906433 12.6817 0)
(-0.78186 12.8569 0)
(-0.665586 13.0115 0)
(-0.558501 13.1459 0)
(-0.4608 13.2582 0)
(-0.372093 13.3443 0)
(-0.291989 13.397 0)
(-0.219265 13.4071 0)
(-0.154013 13.3585 0)
(-0.0954129 13.1881 0)
(-0.0452572 12.5844 0)
(-0.0108819 10.7508 0)
(-0.123204 9.96044 0)
(-0.0909692 9.9716 2.7656e-18)
(-0.0643265 9.98079 -2.73294e-18)
(-0.0444164 9.98818 2.58363e-18)
(-0.0295889 9.99383 0)
(-0.0187881 9.99786 0)
(-0.0111379 10.0005 2.18492e-18)
(-0.00591534 10.0018 -2.06387e-18)
(-0.0025492 10.0023 8.3741e-23)
(-0.000598752 10.002 9.1949e-19)
(0.000318363 10.0013 -8.67205e-19)
(0.000550524 10.0005 -8.16631e-19)
(0.000199908 10.0001 0)
(-0.161742 9.94743 0)
(-0.2093 9.93366 0)
(-0.266877 9.92018 0)
(-0.335679 9.90855 0)
(-0.416779 9.9009 0)
(-0.510908 9.90006 0)
(-0.618225 9.90964 0)
(-0.738038 9.93396 0)
(-0.868449 9.97799 0)
(-1.00595 10.0471 0)
(-1.14509 10.1464 0)
(-1.27822 10.2805 0)
(-1.39557 10.4521 0)
(-1.48617 10.6602 0)
(-1.54388 10.8937 0)
(-1.56805 11.1403 0)
(-1.55732 11.392 0)
(-1.5237 11.6587 0)
(-1.46354 11.9363 0)
(-1.36664 12.1996 0)
(-1.23305 12.444 0)
(-1.08226 12.6616 0)
(-0.938729 12.8515 0)
(-0.804798 13.0181 0)
(-0.681605 13.1638 0)
(-0.56943 13.2894 0)
(-0.468049 13.3933 0)
(-0.376727 13.4715 0)
(-0.294804 13.5174 0)
(-0.220907 13.5214 0)
(-0.154853 13.4667 0)
(-0.095912 13.288 0)
(-0.0454044 12.6669 0)
(-0.0110908 10.8071 0)
(-0.160081 9.94317 0)
(-0.120407 9.95697 0)
(-0.0869556 9.96877 2.87444e-18)
(-0.0616319 9.97864 -5.45159e-18)
(-0.042456 9.98656 5.15654e-18)
(-0.0282118 9.99261 -4.87543e-18)
(-0.0178709 9.99695 0)
(-0.0105715 9.99979 2.17564e-18)
(-0.00560766 10.0014 -2.05356e-18)
(-0.00242363 10.0019 -1.93836e-18)
(-0.000591798 10.0018 0)
(0.000268031 10.0012 8.61088e-19)
(0.000488779 10.0005 0)
(0.000173791 10.0001 0)
(-0.20673 9.9276 0)
(-0.263639 9.91165 0)
(-0.331732 9.89668 0)
(-0.412179 9.88457 0)
(-0.505922 9.87788 0)
(-0.613435 9.8799 0)
(-0.734482 9.89469 0)
(-0.867803 9.92698 0)
(-1.01073 9.98208 0)
(-1.15883 10.0654 0)
(-1.30558 10.182 0)
(-1.44229 10.3357 0)
(-1.55827 10.5284 0)
(-1.64206 10.7574 0)
(-1.68835 11.0098 0)
(-1.69795 11.2714 0)
(-1.68383 11.5509 0)
(-1.64145 11.8441 0)
(-1.55843 12.1253 0)
(-1.44036 12.3868 0)
(-1.28793 12.6252 0)
(-1.12184 12.8345 0)
(-0.966843 13.0152 0)
(-0.824444 13.1723 0)
(-0.695103 13.3087 0)
(-0.578489 13.4252 0)
(-0.47394 13.5206 0)
(-0.380405 13.5912 0)
(-0.296963 13.6302 0)
(-0.222117 13.6283 0)
(-0.155421 13.5676 0)
(-0.0962425 13.3809 0)
(-0.045479 12.7436 0)
(-0.01125 10.8596 0)
(-0.204642 9.92222 0)
(-0.156404 9.93879 0)
(-0.114964 9.95342 0)
(-0.0832268 9.96607 5.73331e-18)
(-0.058839 9.97659 -5.42654e-18)
(-0.0404196 9.98502 5.1319e-18)
(-0.0267839 9.99146 0)
(-0.0169172 9.99609 -2.29145e-18)
(-0.0099788 9.99916 0)
(-0.00528182 10.0009 2.04245e-18)
(-0.00228625 10.0016 0)
(-0.000575068 10.0016 0)
(0.000223472 10.0011 0)
(0.00043245 10.0004 8.32456e-19)
(0.000150811 10 4.00977e-19)
(-0.260453 9.90407 0)
(-0.327805 9.88612 0)
(-0.407511 9.87003 0)
(-0.500637 9.85808 0)
(-0.607924 9.85328 0)
(-0.729522 9.85937 0)
(-0.864705 9.88085 0)
(-1.01153 9.92286 0)
(-1.16648 9.99087 0)
(-1.32411 10.0903 0)
(-1.47684 10.2257 0)
(-1.61499 10.4003 0)
(-1.72703 10.6146 0)
(-1.8013 10.8645 0)
(-1.83359 11.1347 0)
(-1.84146 11.4263 0)
(-1.81939 11.7349 0)
(-1.75236 12.0342 0)
(-1.64599 12.3152 0)
(-1.50706 12.5719 0)
(-1.33667 12.8022 0)
(-1.1564 13.0017 0)
(-0.990999 13.1722 0)
(-0.84105 13.3192 0)
(-0.706315 13.446 0)
(-0.585876 13.5534 0)
(-0.478635 13.6404 0)
(-0.383252 13.7034 0)
(-0.29856 13.7357 0)
(-0.222962 13.728 0)
(-0.155764 13.6617 0)
(-0.0964331 13.4674 0)
(-0.0454946 12.8149 0)
(-0.0113672 10.9086 0)
(-0.257892 9.89734 0)
(-0.199901 9.91672 0)
(-0.149184 9.93437 6.39011e-18)
(-0.109935 9.95005 6.05234e-18)
(-0.0793696 9.96351 5.72594e-18)
(-0.0559472 9.97466 -5.41417e-18)
(-0.0383169 9.98357 0)
(-0.0253073 9.99037 0)
(-0.0159282 9.99529 0)
(-0.00936139 9.99857 4.30583e-18)
(-0.00493899 10.0005 2.03082e-18)
(-0.00213615 10.0013 1.9132e-18)
(-0.000550208 10.0014 0)
(0.000185563 10.001 -8.77694e-19)
(0.000381744 10.0004 -4.23518e-19)
(0.000130552 10 0)
(-0.323933 9.87673 0)
(-0.402841 9.85707 0)
(-0.495231 9.84042 0)
(-0.601996 9.82947 0)
(-0.723621 9.82768 0)
(-0.859841 9.83925 0)
(-1.00933 9.86912 0)
(-1.16938 9.92268 0)
(-1.33552 10.0055 0)
(-1.50129 10.1228 0)
(-1.65806 10.2786 0)
(-1.7952 10.475 0)
(-1.90063 10.7113 0)
(-1.96257 10.9813 0)
(-1.99528 11.2839 0)
(-1.99646 11.6075 0)
(-1.9481 11.9254 0)
(-1.85547 12.2269 0)
(-1.72574 12.5044 0)
(-1.56664 12.7536 0)
(-1.3794 12.9738 0)
(-1.18618 13.1623 0)
(-1.01148 13.3219 0)
(-0.854893 13.4585 0)
(-0.715478 13.5756 0)
(-0.591788 13.6741 0)
(-0.482291 13.7529 0)
(-0.385385 13.8084 0)
(-0.299683 13.8343 0)
(-0.223501 13.821 0)
(-0.155921 13.7492 0)
(-0.0965082 13.5478 0)
(-0.0454613 12.881 0)
(-0.0114522 10.9541 0)
(-0.320858 9.86838 0)
(-0.251876 9.89049 0)
(-0.190498 9.91125 -1.34446e-17)