/*--------------------------------*- C++ -*----------------------------------*\
  =========                 |
  \\      /  F ield         | OpenFOAM: The Open Source CFD Toolbox
   \\    /   O peration     | Website:  https://openfoam.org
    \\  /    A nd           | Version:  8
     \\/     M anipulation  |
\*---------------------------------------------------------------------------*/
FoamFile
{
    version     2.0;
    format      ascii;
    class       volScalarField;
    location    "0.33";
    object      epsilon;
}
// * * * * * * * * * * * * * * * * * * * * * * * * * * * * * * * * * * * * * //

dimensions      [0 2 -3 0 0 0 0];

internalField   nonuniform List<scalar> 
15677
(
59.7319
18.3665
52.6882
8.08454
26.0278
50.2338
4.62274
13.3252
31.654
50.5408
3.17434
7.74977
17.1273
37.3298
51.6322
2.4871
5.05449
10.0479
20.8496
42.6717
53.6729
2.1443
3.62785
6.47264
12.1816
24.5647
47.6654
55.7305
1.97934
2.82293
4.52968
7.73393
14.2895
28.2606
52.017
57.666
1.9115
2.35346
3.40395
5.31488
8.92343
16.4295
31.7525
55.6969
59.3675
1.88407
2.08032
2.72416
3.91133
6.02562
10.1092
18.5339
34.9454
58.7186
60.8731
1.8705
1.93938
2.30743
3.05639
4.35977
6.70897
11.2728
20.561
37.7642
61.2005
62.1457
1.86763
1.87829
2.05654
2.5214
3.3488
4.77704
7.363
12.4131
22.4496
40.2281
63.2018
63.2656
1.86863
1.84883
1.91658
2.18613
2.71277
3.61531
5.16521
7.99823
13.4985
24.1926
42.3284
64.8374
64.1997
1.86955
1.83869
1.85192
1.98263
2.30693
2.88626
3.85792
5.53416
8.60104
14.5276
25.7566
44.1242
66.1515
65.0397
1.86979
1.83697
1.82114
1.86774
2.05137
2.41796
3.04257
4.08345
5.87915
9.1746
15.4772
27.1581
45.6252
67.2201
65.7716
1.86979
1.83723
1.81052
1.81334
1.89818
2.11733
2.51837
3.18557
4.29086
6.2039
9.70672
16.3526
28.3815
46.8894
68.0933
66.4203
1.86975
1.83749
1.80823
1.78978
1.81541
1.93023
2.17848
2.60975
3.31541
4.48294
6.50315
10.2006
17.1372
29.4484
47.9408
68.8059
67.0129
1.86972
1.83759
1.80793
1.78275
1.77574
1.82147
1.9622
2.23472
2.69226
3.43385
4.65804
6.77883
10.6472
17.839
30.3577
48.8036
69.4161
67.5195
1.86971
1.8376
1.80796
1.78103
1.76151
1.76616
1.83169
1.99283
2.28577
2.7668
3.54072
4.81729
7.02722
11.0501
18.4492
31.1249
49.517
69.9021
68.0297
1.86971
1.83759
1.80797
1.78069
1.75704
1.74396
1.76041
1.84302
2.02126
2.33184
2.83361
3.63669
4.95956
7.24985
11.4029
18.9755
31.7604
50.0778
70.3579
68.4303
1.86971
1.83757
1.80797
1.78064
1.75578
1.73593
1.72959
1.75741
1.85437
2.04732
2.37311
2.89306
3.72174
5.08548
7.44445
11.709
19.4153
32.2724
50.5444
70.7004
68.9034
1.86971
1.83756
1.80796
1.78061
1.75547
1.73321
1.7174
1.71808
1.75585
1.86548
2.07091
2.40974
2.94548
3.79615
5.19483
7.61181
11.9657
19.7763
32.6799
50.8863
71.0781
69.2224
1.86971
1.83755
1.80795
1.78058
1.75539
1.73235
1.71281
1.7014
1.70855
1.75577
1.87595
2.09199
2.44204
2.99107
3.8604
5.28771
7.75221
12.176
20.0608
32.9863
51.1764
71.3344
69.6911
1.86971
1.83755
1.80794
1.78055
1.75536
1.73208
1.7112
1.69458
1.68739
1.70096
1.7561
1.88557
2.11076
2.47021
3.03041
3.91468
5.36537
7.86553
12.3416
20.2763
33.2118
51.3716
71.692
69.9507
1.86971
1.83754
1.80793
1.78053
1.75532
1.73197
1.71065
1.69195
1.67819
1.67546
1.69469
1.75689
1.89452
2.12742
2.49475
3.06385
3.96004
5.42741
7.95527
12.465
20.4307
33.3641
51.5357
71.901
70.4197
1.86971
1.83754
1.80792
1.78051
1.75529
1.7319
1.71045
1.69096
1.67441
1.66382
1.66503
1.68969
1.75838
1.90284
2.14229
2.51605
3.09221
3.99691
5.47698
8.02045
12.5524
20.5264
33.4523
51.6554
72.3059
70.6676
1.86971
1.83754
1.80791
1.78049
1.75527
1.73184
1.71035
1.69056
1.67292
1.65875
1.65095
1.65648
1.68599
1.76028
1.91084
2.15588
2.53488
3.11628
4.02689
5.51315
8.06734
12.6031
20.5831
33.5006
51.7323
72.6059
430.285
1.86971
1.83754
1.80791
1.78048
1.75524
1.7318
1.71028
1.69037
1.67232
1.65661
1.64458
1.6402
1.64919
1.68337
1.76313
1.91901
2.16875
2.55189
3.13688
4.05059
5.54034
8.09401
12.6306
20.586
33.4969
51.8533
88.9763
719.408
1.86971
1.83754
1.80791
1.78047
1.75522
1.73177
1.71022
1.69025
1.67204
1.65568
1.6418
1.6325
1.6307
1.64417
1.68298
1.76719
1.92775
2.18161
2.56802
3.15545
4.07036
5.55861
8.11059
12.6276
20.5732
33.4994
52.7767
122.39
1001.7
1.86971
1.83754
1.8079
1.78047
1.75521
1.73174
1.71017
1.69016
1.67188
1.65523
1.64059
1.62895
1.62181
1.62398
1.64036
1.68414
1.77285
1.93788
2.19536
2.58452
3.17317
4.0873
5.57183
8.11083
12.6159
20.5441
33.5245
55.3392
158.087
1251.59
1.86971
1.83753
1.8079
1.78046
1.7552
1.73172
1.71012
1.69009
1.67175
1.65498
1.64
1.62731
1.61766
1.61385
1.61836
1.64055
1.68738
1.78088
1.95012
2.21103
2.6022
3.1913
4.10297
5.58056
8.10817
12.5922
20.506
33.6244
59.914
190.868
1482.24
1.86972
1.83753
1.8079
1.78046
1.75519
1.7317
1.71009
1.69003
1.67165
1.65481
1.63967
1.62649
1.61571
1.60889
1.60744
1.61713
1.64257
1.69383
1.79204
1.96548
2.22942
2.62242
3.21097
4.11923
5.58823
8.10192
12.5638
20.4635
33.8786
64.6492
222.016
1678.12
1.86972
1.83753
1.8079
1.78045
1.75518
1.73168
1.71006
1.68998
1.67157
1.65468
1.63944
1.62604
1.61473
1.60647
1.60211
1.60498
1.61867
1.64766
1.70433
1.80733
1.98481
2.25188
2.64614
3.23391
4.13747
5.59704
8.09529
12.5334
20.4153
34.348
69.4693
249.452
1827.11
1.86972
1.83753
1.8079
1.78045
1.75517
1.73167
1.71003
1.68994
1.6715
1.65458
1.63926
1.62575
1.61417
1.60524
1.59948
1.59888
1.60628
1.62325
1.65755
1.71976
1.82765
2.00941
2.27929
2.67487
3.26099
4.15967
5.60918
8.08971
12.5022
20.3728
34.9084
73.8485
270.798
1942.82
1.86972
1.83753
1.8079
1.78045
1.75516
1.73166
1.71001
1.6899
1.67144
1.65449
1.63912
1.62553
1.61379
1.60455
1.5981
1.59584
1.60007
1.61067
1.63261
1.6732
1.74104
1.85427
2.04015
2.31304
2.7093
3.2939
4.18689
5.62596
8.0889
12.4697
20.3385
35.4498
77.2478
287.703
2035.77
1.83753
1.86975
1.8079
1.78045
1.75516
1.73165
1.70999
1.68987
1.67139
1.65441
1.63899
1.62535
1.61351
1.6041
1.59731
1.59426
1.59698
1.6044
1.61982
1.64856
1.69538
1.7695
1.88811
2.0784
2.35382
2.75102
3.33325
4.22054
5.6481
8.0906
12.4342
20.3
35.8648
79.8611
301.406
2113.36
1.80789
1.83763
1.86982
1.78045
1.75515
1.73164
1.70998
1.68984
1.67135
1.65434
1.63889
1.6252
1.61327
1.60377
1.59679
1.59339
1.59541
1.60135
1.61357
1.63622
1.67163
1.7254
1.80611
1.93062
2.12492
2.4031
2.80033
3.38033
4.26071
5.67602
8.0962
12.3968
20.2535
36.1508
81.8618
313
2180.51
1.78044
1.80805
1.83783
1.8699
1.75515
1.73163
1.70996
1.68982
1.67131
1.65428
1.6388
1.62507
1.61307
1.60351
1.59639
1.59284
1.59456
1.59986
1.61067
1.63048
1.6602
1.70326
1.76448
1.85229
1.98248
2.18093
2.4611
2.85863
3.43506
4.30789
5.71355
8.10855
12.363
20.1946
36.3325
83.4401
323.049
2240.35
1.75514
1.78065
1.80837
1.83804
1.86997
1.73162
1.70995
1.6898
1.67128
1.65422
1.63872
1.62495
1.6129
1.60329
1.59607
1.59244
1.59404
1.59913
1.60941
1.62813
1.65542
1.69346
1.74482
1.81429
1.90916
2.04529
2.24686
2.52935
2.92554
3.49789
4.36814
5.76346
8.12824
12.3328
20.1272
36.4306
84.7034
332.099
2295.01
1.73162
1.75539
1.78107
1.80869
1.83825
1.87005
1.70994
1.68978
1.67125
1.65417
1.63866
1.62485
1.61276
1.6031
1.59579
1.59213
1.59368
1.59873
1.60895
1.6275
1.65415
1.69049
1.73767
1.79833
1.87612
1.97853
2.11966
2.32399
2.6069
3.00178
3.5767
4.44465
5.82171
8.1543
12.3069
20.0524
36.4733
85.7621
340.374
2345.53
1.70993
1.73191
1.75591
1.78151
1.80903
1.83847
1.87012
1.68976
1.67123
1.65413
1.63861
1.62476
1.61264
1.60293
1.59556
1.59187
1.5934
1.59847
1.60882
1.62759
1.65446
1.69071
1.73692
1.79474
1.86544
1.95234
2.0614
2.20724
2.41236
2.69506
3.09647
3.67502
4.53055
5.88765
8.18621
12.285
19.9757
36.4686
86.6715
348.085
2393
1.68975
1.71026
1.73251
1.75644
1.78195
1.80937
1.83869
1.87021
1.67121
1.65409
1.63856
1.62468
1.61253
1.60279
1.59536
1.59165
1.59317
1.5983
1.60882
1.628
1.65556
1.69274
1.73961
1.79737
1.86605
1.94771
2.04385
2.16004
2.30838
2.5135
2.80381
3.21352
3.78385
4.62464
5.95969
8.22311
12.2681
19.899
36.4514
87.4779
355.357
2437.51
1.67119
1.6901
1.71093
1.73312
1.75698
1.78241
1.80972
1.83892
1.87029
1.65406
1.63853
1.6246
1.61245
1.60266
1.59519
1.59146
1.59298
1.59817
1.60888
1.6285
1.6569
1.69554
1.74419
1.80378
1.87369
1.95469
2.04647
2.1521
2.27463
2.42487
2.63939
2.94014
3.34197
3.90079
4.72534
6.03664
8.26452
12.2557
19.826
36.4172
88.2141
362.224
2479.82
1.65403
1.67157
1.69083
1.71162
1.73375
1.75754
1.78288
1.81008
1.83916
1.87037
1.63849
1.62453
1.61238
1.60254
1.59504
1.5913
1.59282
1.59807
1.60896
1.62901
1.65827
1.69849
1.74955
1.81231
1.88538
1.96932
2.06219
2.16502
2.27754
2.40588
2.57199
2.79905
3.09136
3.48113
4.02483
4.83111
6.11745
8.30945
12.2478
19.7577
36.3761
88.8912
368.781
2519.59
1.63846
1.65441
1.67236
1.69158
1.71232
1.73441
1.75811
1.78337
1.81046
1.8394
1.87046
1.62447
1.61233
1.60242
1.59492
1.59117
1.59269
1.59799
1.60906
1.6295
1.65959
1.70135
1.75492
1.82168
1.89951
1.98856
2.08623
2.19236
2.304
2.42355
2.56996
2.75615
2.9777
3.25656
3.63
4.15517
4.94061
6.20103
8.35727
12.2439
19.6954
36.3332
89.5345
375.006
2557.55
1.62442
1.63886
1.65523
1.67316
1.69236
1.71305
1.73508
1.7587
1.78387
1.81084
1.83965
1.87055
1.61228
1.60232
1.59482
1.59105
1.59257
1.59793
1.60916
1.62997
1.66085
1.70405
1.76006
1.83093
1.91464
2.01093
2.11582
2.22929
2.3463
2.46727
2.60871
2.77921
2.96074
3.17323
3.43496
3.78696
4.28999
5.05268
6.2863
8.40699
12.2447
19.6393
36.2937
90.1396
380.953
2593.14
1.61224
1.62479
1.63971
1.65607
1.674
1.69316
1.7138
1.73576
1.7593
1.78438
1.81123
1.83991
1.87064
1.60222
1.59474
1.59094
1.59247
1.59787
1.60925
1.63041
1.66203
1.70656
1.76493
1.83977
1.92947
2.03473
2.14962
2.27335
2.40015
2.52929
2.67629
2.84754
3.01594
3.18514
3.38123
3.62377
3.95028
4.42841
5.16612
6.37235
8.45813
12.2475
19.5893
36.2585
90.7231
386.624
2627.14
1.60213
1.61261
1.6256
1.64058
1.65693
1.67485
1.69398
1.71457
1.73647
1.75992
1.78491
1.81163
1.84017
1.87073
1.59468
1.59083
1.59237
1.59783
1.60935
1.63081
1.66312
1.70887
1.76949
1.84811
1.94369
2.05822
2.18557
2.32353
2.46359
2.60603
2.76612
2.94969
3.12119
3.27964
3.42873
3.60036
3.82097
4.11935
4.56906
5.28005
6.45832
8.50989
12.2532
19.5454
36.2294
91.2816
392.004
2658.87
1.59464
1.6024
1.61342
1.62643
1.64148
1.65783
1.67574
1.69483
1.71536
1.7372
1.76056
1.78545
1.81204
1.84043
1.87082
1.59072
1.59228
1.59779
1.60944
1.63118
1.66412
1.711
1.77373
1.85588
1.95719
2.08093
2.22122
2.37735
2.53614
2.69637
2.87581
3.08097
3.26785
3.43044
3.56932
3.6896
3.82884
4.02168
4.29172
4.71062
5.39326
6.54346
8.56172
12.2618
19.507
36.2068
91.8185
397.165
2689.2
1.59063
1.5949
1.60302
1.61424
1.6273
1.64241
1.65876
1.67664
1.6957
1.71618
1.73795
1.76122
1.786
1.81245
1.84068
1.8709
1.59219
1.59775
1.60952
1.63153
1.66504
1.71295
1.77765
1.86309
1.96993
2.10262
2.25587
2.43151
2.61485
2.80075
3.00571
3.24143
3.45434
3.63382
3.77564
3.88385
3.96568
4.06565
4.22458
4.46508
4.85142
5.5051
6.62716
8.61319
12.2724
19.4739
36.1898
92.3399
402.007
2717.33
1.59214
1.59059
1.59547
1.60366
1.6151
1.62822
1.64336
1.65972
1.67757
1.6966
1.71701
1.73872
1.76189
1.78654
1.81285
1.84093
1.87098
1.59771
1.60959
1.63184
1.66588
1.71473
1.78125
1.86975
1.98189
2.12313
2.28926
2.48503
2.69493
2.9157
3.15815
3.43467
3.68511
3.8936
4.05105
4.15751
4.22209
4.25494
4.30853
4.42831
4.63842
4.9913
5.61498
6.70895
8.6639
12.2845
19.4455
36.1795
92.8348
406.688
2744.24
1.5977
1.59197
1.59058
1.59605
1.60435
1.616
1.62917
1.64435
1.66071
1.67853
1.69753
1.71787
1.73951
1.76255
1.78707
1.81323
1.84117
1.87106
1.60965
1.63212
1.66664
1.71636
1.78456
1.87588
1.99306
2.14239
2.32125
2.53732
2.77464
3.03482
3.32994
3.66755
3.97024
4.22273
4.40911
4.52493
4.57746
4.58306
4.55543
4.55544
4.6313
4.80864
5.12917
5.7223
6.78843
8.71353
12.2978
19.4215
36.1731
93.3214
411.018
2769.06
1.60977
1.5973
1.59163
1.59053
1.59667
1.6051
1.61692
1.63016
1.64536
1.66174
1.67952
1.69849
1.71875
1.74028
1.7632
1.78759
1.81361
1.8414
1.87114
1.63237
1.66731
1.71784
1.78758
1.88152
2.00343
2.16036
2.35175
2.58785
2.8531
3.15628
3.51276
3.93842
4.32636
4.64544
4.87982
5.01728
5.06353
5.03781
4.96609
4.86541
4.80457
4.83289
4.97452
5.26389
5.82651
6.86529
8.76182
12.312
19.4011
36.1736
93.7761
415.249
2792.86
1.63267
1.60901
1.59633
1.59123
1.59058
1.59732
1.60591
1.61787
1.6312
1.6464
1.66279
1.68054
1.69946
1.71962
1.74104
1.76383
1.78809
1.81397
1.84162
1.87122
1.66791
1.71917
1.79033
1.8867
2.01302
2.17709
2.38067
2.63619
2.92984
3.27925
3.70326
4.23555
4.75998
5.20247
5.51734
5.6959
5.74046
5.67677
5.54134
5.37066
5.18328
5.05435
5.03199
5.1356
5.39464
5.92718
6.93928
8.80857
12.3268
19.3844
36.1762
94.2279
419.107
2811.97
1.66856
1.63128
1.60702
1.59526
1.59092
1.59079
1.59797
1.6068
1.61884
1.63229
1.64748
1.66389
1.68158
1.70043
1.72048
1.74178
1.76444
1.78858
1.81433
1.84184
1.87129
1.72038
1.79282
1.89144
2.02187
2.19263
2.40797
2.68207
3.00461
3.4026
3.89859
4.55537
5.2633
5.92666
6.41032
6.66593
6.71809
6.60201
6.37385
6.09016
5.79602
5.50752
5.30343
5.22752
5.29145
5.52084
6.02396
7.01023
8.85361
12.342
19.3703
36.1827
94.6426
422.407
2828.05
1.72161
1.66649
1.62758
1.60489
1.5943
1.59064
1.5912
1.59863
1.60776
1.61985
1.63341
1.64859
1.665
1.68261
1.70137
1.7213
1.7425
1.76504
1.78905
1.81467
1.84205
1.87136
1.7951
1.89576
2.03
2.20705
2.4336
2.72544
3.07728
3.52485
4.09622
4.89795
5.84101
6.82029
7.63308
8.08463
8.17015
7.98639
7.61894
7.16013
6.6846
6.24081
5.83659
5.55061
5.4186
5.44174
5.64212
6.11665
7.07804
8.89685
12.3573
19.3591
36.1902
95.0034
425.098
2845.47
1.79731
1.71863
1.66056
1.62366
1.60293
1.59343
1.59029
1.59175
1.5993
1.60879
1.6209
1.63458
1.64973
1.66611
1.68363
1.70229
1.72211
1.74319
1.76562
1.78951
1.81501
1.84225
1.87143
1.89976
2.03746
2.22041
2.45759
2.76633
3.14764
3.64456
4.29489
5.26467
6.49774
7.88884
9.1827
10.0684
10.3344
10.0832
9.52195
8.79689
8.0351
7.32243
6.70282
6.16884
5.7948
5.60453
5.58622
5.7582
6.20507
7.14262
8.9382
12.3726
19.3497
36.2018
95.2939
428.094
2864.44
1.90354
1.79323
1.70951
1.65435
1.62002
1.60114
1.59265
1.58998
1.59242
1.60001
1.60986
1.62199
1.63577
1.65087
1.6672
1.68461
1.70318
1.7229
1.74387
1.76618
1.78996
1.81533
1.84245
1.87147
2.04441
2.2328
2.47997
2.80485
3.21541
3.7606
4.49471
5.6564
7.23178
9.12656
11.0482
12.5908
13.3728
13.2248
12.4256
11.3247
10.1295
8.99227
7.99887
7.17899
6.50247
6.03501
5.78477
5.72471
5.86902
6.28928
7.20402
8.97762
12.3877
19.3436
36.2095
95.6341
431.269
2885.1
2.05076
1.89805
1.77959
1.70006
1.64853
1.61664
1.5995
1.59193
1.58974
1.59316
1.60077
1.61098
1.62313
1.63696
1.65199
1.66825
1.68557
1.70404
1.72366
1.74453
1.76673
1.79039
1.81565
1.84255
1.87147
2.24443
2.50086
2.84115
3.28031
3.87239
4.69654
6.07233
8.03535
10.5151
13.204
15.6207
17.2338
17.6399
16.7833
15.1911
13.378
11.6008
10.0204
8.70712
7.66561
6.83563
6.27034
5.95891
5.85711
5.97428
6.36951
7.26227
9.01512
12.4007
19.3386
36.2237
95.9841
434.859
2907.71
2.25484
2.04365
1.87797
1.76561
1.69117
1.64305
1.61347
1.59797
1.5913
1.5896
1.59394
1.60161
1.61212
1.62428
1.63811
1.65309
1.66927
1.68651
1.70488
1.72441
1.74517
1.76727
1.79081
1.8158
1.84255
1.87147
2.52052
2.8754
3.34216
3.97989
4.90137
6.50968
8.89681
12.0296
15.6101
19.1119
21.8719
23.2634
22.9276
21.0086
18.3546
15.6538
13.1891
11.1054
9.43917
8.15853
7.1664
6.49999
6.12663
5.98347
6.07365
6.44568
7.31743
9.046
12.4119
19.3344
36.2353
96.4047
438.642
2932.35
2.53776
2.24556
2.01441
1.85763
1.75244
1.68273
1.63782
1.61047
1.59654
1.59076
1.58957
1.59477
1.60254
1.61326
1.62543
1.63924
1.65416
1.67026
1.68743
1.7057
1.72513
1.74579
1.76778
1.79102
1.8158
1.84255
1.87147
2.90792
3.40103
4.08363
5.10991
6.96402
9.80278
13.6426
18.2199
22.9972
27.2162
30.0386
30.7939
29.2588
25.8755
21.8776
18.118
14.8701
12.2321
10.1866
8.65353
7.49298
6.72324
6.2877
6.10391
6.16739
6.51778
7.36269
9.07226
12.4245
19.3301
36.2576
96.8329
442.959
2959.34
2.93607
2.52597
2.2031
1.98519
1.83849
1.73989
1.67464
1.63283
1.60766
1.59524
1.59034
1.58967
1.5956
1.60353
1.61436
1.62656
1.64033
1.65521
1.67123
1.68832
1.7065
1.72584
1.7464
1.76804
1.79102
1.8158
1.84255
1.87147
3.45722
4.18453
5.32245
7.42988
10.7393
15.3265
20.9842
27.1973
33.1584
37.8607
40.3167
39.8937
36.6201
31.3373
25.7121
20.7335
16.6188
13.3854
10.9411
9.14659
7.81364
6.93945
6.442
6.21845
6.25572
6.57689
7.40106
9.10107
12.4386
19.3274
36.2759
97.3571
447.486
2988.74
3.50539
2.92081
2.46428
2.16131
1.9577
1.82019
1.72779
1.66685
1.62805
1.60503
1.59407
1.59002
1.58996
1.5964
1.60455
1.61543
1.62768
1.6414
1.65623
1.67218
1.68918
1.70728
1.72652
1.74669
1.76804
1.79102
1.8158
1.84255
1.87147
4.28323
5.53729
7.90159
11.6929
17.0546
23.8547
31.6285
39.5666
46.5571
51.3426
52.8419
50.5761
44.9599
37.3282
29.8037
23.4626
18.4115
14.5514
11.6951
9.63396
8.12682
7.14814
6.58944
6.32715
6.32792
6.62697
7.44304
9.1327
12.4546
19.3247
36.3109
97.8857
452.717
3020.96
4.36928
3.48619
2.82984
2.40454
2.12202
1.93137
1.80251
1.7161
1.65935
1.62349
1.60264
1.59301
1.58974
1.5905
1.59716
1.6056
1.61649
1.62878
1.64244
1.65723
1.6731
1.69003
1.70803
1.72686
1.74669
1.76804
1.79102
1.8158
1.84255
1.87143
5.75106
8.3747
12.6513
18.802
26.7847
36.2078
46.3001
55.9127
63.6038
67.8854
67.6736
62.7933
54.1905
43.7676
34.0947
26.2684
20.2261
15.7177
12.4421
10.1124
8.43123
7.34892
6.73001
6.41652
6.389
6.6817
7.48898
9.16748
12.4726
19.3248
36.3395
98.5439
458.182
3055.98
4.3445
5.93882
3.34786
2.74373
2.34842
2.08436
1.90588
1.78539
1.70481
1.65215
1.61912
1.60043
1.59206
1.5894
1.59117
1.59791
1.60664
1.61752
1.62985
1.64346
1.65821
1.67399
1.69085
1.7084
1.72686
1.74669
1.76804
1.79102
1.8158
1.84245
1.87136
8.84451
13.6038
20.5468
29.7313
40.8571
53.221
65.6972
76.76
84.6241
87.6172
84.7843
76.4367
64.1934
50.5646
38.5266
29.1164
22.0434
16.8735
13.1762
10.5791
8.72579
7.54146
6.84609
6.49241
6.45567
6.74155
7.5393
9.20571
12.4932
19.3259
36.3929
99.2059
464.567
3094.36
4.11832
5.91877
9.26025
3.22138
2.66302
2.29459
2.04787
1.88117
1.76882
1.69395
1.64527
1.61501
1.59843
1.59125
1.58915
1.5919
1.59868
1.60768
1.61854
1.6309
1.64446
1.65915
1.67487
1.69125
1.7084
1.72686
1.74669
1.76804
1.79102
1.81565
1.84225
1.87129
14.5385
22.2696
32.6579
45.5062
60.2028
75.689
90.4467
102.539
109.834
110.554
104.055
91.3424
74.8264
57.6231
43.0428
31.9756
23.8464
18.0099
13.8929
11.032
9.00963
7.7013
6.94497
6.57559
6.52849
6.80702
7.59444
9.24787
12.5162
19.3295
36.4374
100.038
471.23
3135.88
3.91945
5.51881
9.26825
15.3686
3.1039
2.58561
2.24247
2.01249
1.85726
1.75286
1.68353
1.63872
1.6112
1.5967
1.59058
1.58901
1.59266
1.59947
1.60869
1.61955
1.63193
1.64544
1.66008
1.6753
1.69125
1.7084
1.72686
1.74669
1.76804
1.79081
1.81533
1.84204
1.87122
23.9507
35.5332
50.0974
67.1368
85.6914
104.319
121.073
133.564
139.321
136.59
125.279
107.301
85.9323
64.847
47.5908
34.8182
25.6207
19.1195
14.5885
11.4692
9.24616
7.8379
7.05369
6.66684
6.60811
6.87866
7.6549
9.29427
12.543
19.335
36.5173
100.881
479.084
3181.42
3.73866
5.17025
8.53667
15.4485
25.4532
2.99165
2.51074
2.19196
1.97827
1.8342
1.73753
1.67359
1.63259
1.60782
1.5952
1.59006
1.589
1.59341
1.60029
1.60969
1.62055
1.63293
1.6464
1.66054
1.67529
1.69125
1.7084
1.72685
1.74669
1.76778
1.79038
1.815
1.84183
1.87114
38.3261
54.5841
73.9379
95.5431
118.08
139.703
157.983
170.018
173.029
165.498
148.172
124.068
97.349
72.145
52.1232
37.6203
27.3548
20.1966
15.2602
11.8341
9.44879
7.98862
7.17338
6.76703
6.69522
6.95709
7.7212
9.3456
12.5727
19.3476
36.5873
101.94
487.3
3230.26
3.56883
4.85504
7.88546
14.1914
25.7115
40.829
2.8834
2.43833
2.14315
1.94526
1.81203
1.72286
1.66421
1.62703
1.60486
1.59393
1.58968
1.5891
1.59414
1.60113
1.61065
1.62154
1.63392
1.64687
1.66052
1.67529
1.69124
1.70839
1.72685
1.74639
1.76725
1.78995
1.81466
1.84161
1.87106
58.9202
80.5418
105.126
131.5
157.994
182.32
201.465
211.937
210.752
196.93
172.386
141.386
108.918
79.4332
56.5982
40.3623
29.0394
21.2369
15.8208
12.1469
9.67288
8.15512
7.30529
6.87715
6.7906
7.04299
7.79397
9.40211
12.6079
19.3596
36.7036
103.037
497.035
3283.89
3.40756
4.56155
7.28911
13.0334
23.7567
41.415
62.8036
2.77899
2.3685
2.09614
1.91356
1.79081
1.70899
1.65565
1.62209
1.60228
1.59286
1.58941
1.58935
1.59484
1.60199
1.6116
1.62254
1.63439
1.64685
1.66052
1.67528
1.69124
1.70839
1.72651
1.74577
1.76672
1.7895
1.81431
1.84139
1.87098
86.885
114.358
144.423
175.624
205.943
232.551
251.684
259.201
252.128
230.436
197.534
158.993
120.493
86.637
60.9815
43.0284
30.6673
22.1052
16.3014
12.4931
9.92098
8.33927
7.45082
6.99827
6.89512
7.1371
7.87383
9.46483
12.6465
19.385
36.815
104.387
507.295
3340.56
3.25429
4.28615
6.73048
11.9479
21.9199
38.5661
63.9033
92.544
2.67854
2.30142
2.05103
1.88323
1.77074
1.69629
1.64799
1.6177
1.60006
1.59195
1.5892
1.58978
1.59551
1.60288
1.61257
1.62303
1.63436
1.64684
1.66052
1.67528
1.69124
1.70801
1.72581
1.74514
1.76616
1.78903
1.81396
1.84116
1.8709
123.16
156.754
192.394
228.404
262.364
290.699
308.674
311.514
296.641
265.484
223.214
176.642
131.94
93.6945
65.2451
45.6061
32.0268
22.8498
16.8332
12.8765
10.196
8.54316
7.61158
7.13165
7.00976
7.24025
7.96154
9.53386
12.6926
19.4103
36.9814
105.776
519.447
3413.85
3.10886
4.02846
6.20452
10.915
20.1597
35.8619
59.9549
94.3525
130.952
2.58222
2.23727
2.00795
1.85457
1.75232
1.68488
1.64113
1.61377
1.59817
1.59118
1.58894
1.59031
1.5962
1.60384
1.61301
1.62299
1.63435
1.64684
1.66051
1.67528
1.69083
1.70725
1.7251
1.7445
1.76559
1.78856
1.8136
1.84092
1.87081
168.4
208.209
249.459
290.28
327.68
357.005
372.315
368.393
343.642
301.499
249.03
194.107
143.149
100.555
69.3666
47.7594
33.1927
23.6735
17.4221
13.3017
10.501
8.76914
7.78933
7.27864
7.13559
7.35333
8.05781
9.61069
12.7436
19.452
37.1586
107.439
534.724
3501.09
2.97095
3.78896
5.71172
9.92926
18.4495
33.2336
56.202
89.0799
133.631
178.586
2.49029
2.17619
1.96728
1.82828
1.73578
1.67465
1.63499
1.61028
1.59654
1.59054
1.58874
1.59093
1.59698
1.6043
1.61293
1.62298
1.63434
1.64683
1.66052
1.67484
1.68999
1.70646
1.72437
1.74383
1.76501
1.78807
1.81322
1.84068
1.87073
222.972
269.024
315.991
361.732
402.341
431.636
442.314
429.166
392.379
337.887
274.614
211.197
154.03
107.179
72.8074
49.606
34.4828
24.5859
18.0749
13.7734
10.8397
9.01987
7.98608
7.44078
7.27381
7.47733
8.16356
9.69525
12.8041
19.4998
37.3881
109.613
554.73
3587.88
2.84002
3.56886
5.25361
8.99603
16.7789
30.6439
52.5276
84.1043
126.764
182.207
235.647
2.40307
2.11871
1.93007
1.80468
1.72092
1.66547
1.6295
1.6072
1.59515
1.59
1.58869
1.59172
1.59727
1.60422
1.61291
1.62298
1.63434
1.64684
1.66005
1.67395
1.68914
1.70566
1.72362
1.74315
1.76442
1.78757
1.81284
1.84043
1.87064
287.018
339.449
392.453
443.38
486.87
514.676
518.171
492.986
442.034
374.079
299.652
227.757
164.512
112.7
75.7565
51.6491
35.9118
25.5972
18.7992
14.2973
11.216
9.29826
8.20404
7.61976
7.42576
7.61335
8.27969
9.78946
12.8722
19.5642
37.7183
112.42
576.898
3672.39
2.71583
3.36948
4.83136
8.11984
15.1486
28.0751
48.8775
79.23
120.385
173.384
240.132
302.052
2.32139
2.06624
1.89671
1.78349
1.70758
1.65724
1.62462
1.6045
1.59394
1.58964
1.58895
1.59206
1.59707
1.60422
1.6129
1.62297
1.63436
1.64636
1.65911
1.67304
1.68826
1.70483
1.72285
1.74246
1.7638
1.78706
1.81244
1.84017
1.87055
360.61
419.85
479.554
536.095
581.908
606.103
599.164
558.848
491.774
409.569
323.884
243.668
173.223
117.425
79.0163
53.9111
37.4956
26.719
19.6031
14.8793
11.6344
9.60755
8.44565
7.81745
7.59286
7.76237
8.40794
9.89373
12.9513
19.664
38.1504
115.788
600.516
3754.65
2.59947
3.18683
4.44539
7.30218
13.5709
25.5257
45.2199
74.3787
114.177
165.381
228.838
307.106
377.597
2.24728
2.01935
1.86684
1.76448
1.69562
1.64987
1.62025
1.60212
1.593
1.58967
1.58893
1.59189
1.59703
1.60422
1.6129
1.62298
1.63387
1.64538
1.65814
1.67211
1.68736
1.70398
1.72206
1.74174
1.76318
1.78653
1.81204
1.83991
1.87046
443.958
510.965
578.486
641.198
688.272
705.726
684.299
625.646
540.825
443.935
347.111
256.844
180.661
122.637
82.6208
56.4167
39.2522
27.9641
20.4961
15.5262
12.0996
9.95129
8.7136
8.03588
7.7768
7.92454
8.54915
10.0096
13.0609
19.798
38.7489
119.299
626.994
3831.51
2.49388
3.01959
4.09717
6.5477
12.0632
23.0064
41.5426
69.4964
108.031
157.703
218.903
292.593
382.644
462.186
2.18141
1.97744
1.84008
1.74743
1.68489
1.64326
1.61635
1.60016
1.59261
1.58951
1.58855
1.59189
1.59702
1.60419
1.61296
1.62248
1.63286
1.64438
1.65715
1.67116
1.68644
1.70311
1.72125
1.741
1.76253
1.78599
1.81163
1.83965
1.87037
537.703
614.105
691.181
760.675
806.921
813.05
772.339
692.269
588.508
476.844
366.283
268.065
188.843
128.387
86.6069
59.1931
41.2012
29.3469
21.4883
16.2454
12.617
10.3333
9.01075
8.27724
7.97952
8.10137
8.70423
10.1627
13.201
19.9949
39.3419
123.709
654.936
3904.78
2.40021
2.86971
3.78815
5.86258
10.6422
20.5355
37.8489
64.5504
101.861
150.203
209.579
280.279
363.819
466.341
556.169
2.12287
1.94002
1.81613
1.73214
1.67523
1.63731
1.61305
1.59904
1.59218
1.58904
1.5885
1.59188
1.59702
1.60423
1.61249
1.62146
1.63184
1.64337
1.65614
1.67018
1.68549
1.70222
1.72042
1.74025
1.76187
1.78544
1.81122
1.8394
1.87028
643.025
731.51
820.848
897.293
938.714
927.194
861.904
757.677
634.269
503.95
382.564
280.366
197.838
134.727
91.0142
62.2696
43.3643
30.8828
22.591
17.0448
13.1922
10.7577
9.34018
8.54382
8.20289
8.29417
8.9059
10.3526
13.3697
20.191
40.1874
128.334
686.205
3969.04
2.31739
2.73655
3.52406
5.25444
9.32858
18.1355
34.1524
59.5255
95.6031
142.754
200.672
269.045
348.477
441.579
558.236
660.8
2.07081
1.9066
1.79468
1.71839
1.66652
1.63222
1.61091
1.59813
1.59155
1.589
1.58848
1.59184
1.59717
1.60374
1.6115
1.62045
1.6308
1.64234
1.65511
1.66918
1.68453
1.7013
1.71958
1.73948
1.7612
1.7849
1.81082
1.83916
1.8702
762.208
867.629
972.645
1054.33
1084.16
1046.98
951.572
820.946
671.98
526.922
400.352
293.831
207.712
141.71
95.8846
65.678
45.7647
32.5889
23.8162
17.9332
13.8312
11.2289
9.70501
8.83817
8.4483
8.5435
9.15274
10.5582
13.5433
20.4781
41.0375
134.092
719.735
4027.66
2.24429
2.61764
3.30611
4.73576
8.14389
15.8307
30.4759
54.4182
89.2106
135.25
191.999
258.64
334.942
422.314
525.054
659.391
778.755
2.02449
1.87678
1.77543
1.706
1.65902
1.62871
1.60938
1.59726
1.59151
1.58897
1.58846
1.59195
1.59683
1.60276
1.61053
1.61943
1.62974
1.64128
1.65405
1.66815
1.68354
1.70036
1.71871
1.73869
1.76053
1.78437
1.81044
1.83892
1.87012
900.566
1030.49
1153.49
1235.49
1243.74
1171.15
1039.89
873.362
703.922
551.948
419.739
308.538
218.532
149.392
101.262
69.4518
48.4276
34.4833
25.1771
18.9198
14.5405
11.7511
10.1086
9.16224
8.76775
8.84774
9.41038
10.7704
13.7556
20.7667
42.1818
140.453
756.338
4075.31
2.17977
2.51172
3.12159
4.30399
7.11669
13.669
26.8509
49.2369
82.646
127.599
183.404
248.81
322.876
405.919
500.692
613.866
772.37
915.25
1.98327
1.85008
1.75808
1.69527
1.65364
1.62635
1.60817
1.59722
1.59148
1.58893
1.58875
1.59156
1.59602
1.60184
1.60955
1.61839
1.62864
1.6402
1.65297
1.66709
1.68253
1.6994
1.71782
1.73791
1.75988
1.78385
1.81006
1.83869
1.87004
1067.13
1231.44
1372.94
1446.34
1418.82
1297.98
1113.99
917.85
738.674
579.12
440.8
324.556
230.362
157.828
107.191
73.6258
51.3792
36.5855
26.6875
20.0142
15.3265
12.329
10.5535
9.58495
9.15929
9.16269
9.67483
11.0011
13.9736
21.1575
43.4391
148.015
796.899
4108.99
2.1228
2.41783
2.96235
3.94751
6.25368
11.7362
23.3445
44.0041
75.8826
119.712
174.74
239.332
311.919
391.925
480.698
582.928
708.507
901.516
1080.76
1.94651
1.82613
1.74302
1.68739
1.65014
1.62478
1.60812
1.59718
1.59142
1.58929
1.5887
1.59074
1.59531
1.60094
1.60853
1.61735
1.62753
1.6391
1.65186
1.66601
1.6815
1.69842
1.71695
1.73715
1.75926
1.78335
1.8097
1.83847
1.86997
1277.24
1488.99
1648.74
1698.18
1610.78
1406.75
1177.21
966.278
776.305
608.494
463.591
341.94
243.256
167.068
113.714
78.2354
54.6468
38.9156
28.3619
21.2265
16.196
12.9664
11.1345
10.1036
9.56432
9.48587
9.94916
11.2376
14.2346
21.5863
44.9712
157.029
843.062
4132.63
2.07231
2.33504
2.8226
3.654
5.53814
10.0727
20.0937
38.7967
68.9088
111.505
165.853
229.997
301.774
379.809
464.402
558.411
669.223
811.045
1055.94
1290.97
1.91363
1.80532
1.73172
1.68242
1.64809
1.62473
1.60806
1.59709
1.59192
1.58937
1.58838
1.59009
1.59462
1.60006
1.6075
1.6163
1.6264
1.63797
1.65074
1.6649
1.68045
1.69744
1.7161
1.73642
1.75865
1.78287
1.80935
1.83826
1.86989
1563.11
1848.21
2019.27
2012.9
1779.79
1500.02
1246.11
1018.63
816.817
640.082
488.134
360.725
257.257
177.157
120.874
83.3152
58.2577
41.4941
30.2148
22.5667
17.1546
13.7986
11.8473
10.64
9.97954
9.8168
10.2276
11.4931
14.5149
22.1045
46.8325
167.228
893.512
4134.4
2.02739
2.26217
2.69849
3.41535
4.9502
8.6696
17.1837
33.8096
61.7844
102.902
156.583
220.583
292.153
369.172
451.01
539.35
639.085
761.392
927.322
1258.77
1587.34
1.88507
1.78948
1.7247
1.6798
1.64805
1.62465
1.60794
1.59779
1.59224
1.58928
1.58838
1.5895
1.59389
1.5992
1.60644
1.61523
1.62525
1.63681
1.6496
1.66378
1.67941
1.6965
1.71528
1.7357
1.75805
1.7824
1.809
1.83805
1.86982
2030.32
2410.38
2591.85
2292.38
1923.91
1601.21
1320.34
1074.75
860.12
673.835
514.413
380.919
272.39
188.13
128.706
88.8973
62.2383
44.3411
32.261
24.0439
18.4062
14.8194
12.5841
11.1894
10.4019
10.1516
10.5138
11.7585
14.8325
22.7343
48.9517
180.673
947.32
4128.56
1.98843
2.19801
2.58782
3.21814
4.46955
7.49648
14.6187
29.192
54.7463
93.9058
146.761
210.843
282.765
359.633
439.988
524.488
616.73
724.386
864.463
1071.04
1561.42
2125.77
1.86297
1.77986
1.72135
1.67978
1.64795
1.62449
1.60893
1.59855
1.59255
1.58958
1.58851
1.589
1.59313
1.59837
1.60537
1.61414
1.62409
1.63562
1.64844
1.66266
1.67841
1.69559
1.71448
1.73501
1.75748
1.78195
1.80867
1.83784
1.86975
2859.44
3535.34
3062.47
2521.08
2076.18
1708.59
1399.14
1134.27
906.017
709.638
542.362
402.496
288.659
200.008
137.238
95.0098
66.6126
47.4758
34.5133
25.9717
19.9409
15.8745
13.3384
11.7469
10.8272
10.4895
10.8026
12.04
15.1983
23.4329
51.6326
196.107
1004.59
4112.11
1.95796
2.14287
2.48935
3.05082
4.07947
6.52706
12.4049
24.9831
48.0053
84.7496
136.29
200.504
273.287
350.83
430.835
513.102
600.142
698.139
819.268
990.671
1275.01
2141.93
3273.26
1.84969
1.77567
1.72136
1.67965
1.64773
1.62578
1.61029
1.59958
1.59343
1.59005
1.5887
1.58865
1.59234
1.59757
1.60429
1.61303
1.62292
1.63442
1.64731
1.66158
1.67744
1.69471
1.7137
1.73434
1.75692
1.7815
1.80835
1.83765
1.86972
4927.52
4245.54
3396.12
2743.94
2231.44
1820.18
1481.54
1196.7
954.212
747.299