/*--------------------------------*- C++ -*----------------------------------*\
  =========                 |
  \\      /  F ield         | OpenFOAM: The Open Source CFD Toolbox
   \\    /   O peration     | Website:  https://openfoam.org
    \\  /    A nd           | Version:  8
     \\/     M anipulation  |
\*---------------------------------------------------------------------------*/
FoamFile
{
    version     2.0;
    format      ascii;
    class       volScalarField;
    location    "0.33";
    object      k;
}
// * * * * * * * * * * * * * * * * * * * * * * * * * * * * * * * * * * * * * //

dimensions      [0 2 -2 0 0 0 0];

internalField   nonuniform List<scalar> 
15677
(
0.334171
0.36505
0.294765
0.368741
0.357702
0.281034
0.370699
0.360084
0.366133
0.282751
0.371889
0.361637
0.361477
0.383317
0.288857
0.372614
0.363746
0.357743
0.368336
0.40166
0.300274
0.373041
0.365664
0.357854
0.358163
0.380107
0.41935
0.311785
0.373264
0.367181
0.359467
0.354601
0.361046
0.393285
0.434753
0.322613
0.373349
0.368306
0.361363
0.354786
0.353073
0.3669
0.406153
0.447895
0.332132
0.373349
0.369082
0.36307
0.356352
0.351137
0.353511
0.373554
0.418272
0.45878
0.340555
0.373314
0.369567
0.364446
0.358229
0.351946
0.348806
0.354792
0.380694
0.429113
0.467976
0.347675
0.373275
0.369823
0.365465
0.359967
0.35373
0.348403
0.347165
0.357124
0.387659
0.438866
0.475537
0.35394
0.373249
0.369925
0.366151
0.3614
0.355676
0.349783
0.345378
0.346342
0.359716
0.394457
0.447317
0.482014
0.359166
0.37324
0.369939
0.36655
0.36248
0.357435
0.351738
0.34623
0.342951
0.345908
0.362621
0.400717
0.454827
0.487368
0.363865
0.373239
0.369922
0.366738
0.363211
0.358867
0.353696
0.348095
0.343119
0.34089
0.345922
0.36549
0.406605
0.461214
0.491989
0.36796
0.37324
0.369907
0.366796
0.363636
0.359924
0.355403
0.350178
0.344777
0.340323
0.33922
0.346059
0.368404
0.411812
0.466872
0.495827
0.371589
0.373239
0.3699
0.366796
0.363834
0.360615
0.356749
0.352108
0.346907
0.341733
0.33785
0.337775
0.346392
0.371098
0.416627
0.471579
0.499227
0.374905
0.373238
0.369897
0.366786
0.363892
0.360997
0.357702
0.353709
0.349004
0.343868
0.338958
0.335621
0.336554
0.346797
0.37374
0.420718
0.475731
0.502161
0.377739
0.373237
0.369896
0.366776
0.3639
0.361146
0.358288
0.354908
0.350823
0.346097
0.341054
0.33642
0.333621
0.335491
0.347316
0.376033
0.42442
0.479157
0.504755
0.380593
0.373237
0.369896
0.366769
0.363896
0.361188
0.358557
0.3557
0.352247
0.348106
0.343383
0.338465
0.334102
0.33182
0.334609
0.347766
0.378195
0.427444
0.482162
0.507157
0.382834
0.373236
0.369896
0.366764
0.36389
0.361192
0.358661
0.356099
0.353244
0.349737
0.345557
0.340876
0.336082
0.332
0.330221
0.333823
0.348256
0.379958
0.430146
0.48464
0.509225
0.385481
0.373235
0.369896
0.36676
0.363886
0.361183
0.358694
0.356271
0.353788
0.350925
0.347378
0.343201
0.338563
0.333922
0.330104
0.328802
0.33317
0.348635
0.381577
0.432242
0.486808
0.511381
0.387266
0.373235
0.369896
0.366757
0.363883
0.361173
0.358698
0.356333
0.354049
0.351605
0.348753
0.3452
0.341026
0.336476
0.331975
0.328434
0.32757
0.332597
0.349007
0.382793
0.434129
0.488608
0.513114
0.389888
0.373235
0.369896
0.366755
0.36388
0.361164
0.358693
0.356345
0.354164
0.351949
0.349583
0.346749
0.343191
0.339081
0.334609
0.330278
0.326985
0.326525
0.332128
0.349282
0.383919
0.435472
0.490227
0.515283
0.39134
0.373235
0.369896
0.366753
0.363878
0.361156
0.358685
0.356338
0.354204
0.352105
0.350031
0.347708
0.344916
0.34142
0.337353
0.333003
0.328829
0.325793
0.32569
0.331787
0.349541
0.384661
0.436766
0.491536
0.516749
0.393964
0.373236
0.369895
0.366752
0.363876
0.361151
0.358678
0.356325
0.35421
0.352163
0.350258
0.348238
0.346029
0.343315
0.339852
0.335908
0.331688
0.327698
0.324877
0.325069
0.331503
0.349739
0.385404
0.437546
0.49295
0.519328
0.395351
0.373236
0.369895
0.366752
0.363874
0.361147
0.358672
0.356313
0.354202
0.352173
0.350357
0.348509
0.346678
0.34455
0.341917
0.338619
0.334788
0.330702
0.326846
0.324227
0.324703
0.331504
0.35001
0.385851
0.4385
0.493848
0.520991
0.505246
0.373236
0.369894
0.366751
0.363873
0.361144
0.358666
0.356302
0.35419
0.352163
0.350388
0.34863
0.347036
0.345268
0.343328
0.3409
0.33766
0.333967
0.330067
0.326466
0.324073
0.324744
0.331604
0.350253
0.386338
0.438951
0.495818
0.529739
0.711728
0.373237
0.369894
0.366751
0.363871
0.361142
0.358661
0.356293
0.354177
0.352146
0.350385
0.34867
0.347211
0.345665
0.3442
0.342422
0.340083
0.337163
0.333775
0.330095
0.326572
0.324234
0.324972
0.331864
0.350581
0.386721
0.439854
0.496466
0.546601
0.887471
0.373237
0.369893
0.366752
0.36387
0.36114
0.358657
0.356287
0.354165
0.352129
0.350368
0.34867
0.347277
0.345862
0.344714
0.343338
0.341853
0.339996
0.337275
0.334006
0.330425
0.326997
0.324711
0.325492
0.332389
0.351048
0.387135
0.44057
0.496203
0.559448
1.02953
0.373237
0.369893
0.366752
0.363868
0.361139
0.358654
0.356281
0.354155
0.352115
0.350346
0.348652
0.347285
0.345944
0.344983
0.343871
0.343009
0.341949
0.340276
0.337763
0.334682
0.331239
0.327922
0.325672
0.326469
0.333235
0.351656
0.387776
0.44033
0.494739
0.569026
1.15241
0.373237
0.369892
0.366752
0.363867
0.361138
0.35865
0.356277
0.354146
0.352102
0.350326
0.348628
0.347264
0.345963
0.345094
0.344158
0.343728
0.343194
0.342414
0.34105
0.338839
0.336047
0.332802
0.32953
0.327221
0.327851
0.334406
0.352524
0.388266
0.439442
0.491652
0.57558
1.25183
0.373238
0.369892
0.366752
0.363866
0.361138
0.358647
0.356274
0.354139
0.352092
0.350308
0.348605
0.347233
0.345948
0.345117
0.344306
0.344138
0.343976
0.343808
0.343452
0.342598
0.340798
0.338251
0.335103
0.331801
0.329316
0.329695
0.335932
0.353589
0.388659
0.437592
0.486264
0.579868
1.32486
0.373238
0.369891
0.366753
0.363865
0.361138
0.358645
0.356271
0.354133
0.352083
0.350293
0.348584
0.347202
0.345917
0.345096
0.34436
0.344328
0.344433
0.344703
0.34509
0.345419
0.345081
0.343641
0.341302
0.338203
0.334763
0.332026
0.332002
0.337841
0.354846
0.388623
0.434361
0.479546
0.582587
1.38022
0.373238
0.369891
0.366753
0.363864
0.361137
0.358642
0.356269
0.354127
0.352075
0.35028
0.348565
0.347174
0.345884
0.345058
0.344358
0.344399
0.344669
0.345245
0.346176
0.347341
0.348337
0.348559
0.347466
0.345298
0.342148
0.338492
0.33535
0.334818
0.340104
0.356225
0.388362
0.430119
0.472798
0.584915
1.4239
0.369891
0.373242
0.366753
0.363863
0.361137
0.35864
0.356268
0.354122
0.352069
0.350268
0.348549
0.347149
0.345852
0.345016
0.344327
0.344407
0.344771
0.34555
0.346867
0.348654
0.350615
0.352357
0.353156
0.352389
0.350301
0.347021
0.342995
0.339343
0.338105
0.342723
0.357865
0.38775
0.425682
0.466465
0.58723
1.45986
0.366754
0.369901
0.373249
0.363863
0.361137
0.358638
0.356266
0.354117
0.352064
0.350258
0.348536
0.347128
0.345823
0.344978
0.344286
0.344381
0.344801
0.345706
0.347291
0.349528
0.352221
0.355082
0.357626
0.359009
0.358493
0.356408
0.352838
0.348332
0.343961
0.341874
0.345993
0.359912
0.386889
0.421328
0.46076
0.589986
1.49062
0.363862
0.36677
0.369921
0.373257
0.361137
0.358637
0.356265
0.354113
0.35206
0.35025
0.348524
0.34711
0.345798
0.344943
0.344245
0.344344
0.344791
0.345775
0.347539
0.350103
0.353344
0.35707
0.360914
0.364304
0.366226
0.365889
0.363644
0.359669
0.354458
0.349222
0.346559
0.349974
0.3621
0.386066
0.417311
0.455774
0.593039
1.51777
0.361137
0.363883
0.366804
0.369942
0.373265
0.358635
0.356264
0.35411
0.352057
0.350242
0.348514
0.347094
0.345776
0.344913
0.344208
0.344305
0.344765
0.345796
0.347683
0.350483
0.354134
0.358526
0.363395
0.368296
0.372525
0.37494
0.374618
0.372092
0.367468
0.361397
0.355731
0.352416
0.354275
0.364474
0.385336
0.413608
0.451465
0.596571
1.54236
0.358634
0.361165
0.363928
0.366839
0.369964
0.373274
0.356264
0.354106
0.352054
0.350235
0.348506
0.34708
0.345757
0.344887
0.344175
0.34427
0.344735
0.345796
0.347765
0.350744
0.354708
0.359617
0.365297
0.371411
0.37739
0.382446
0.385209
0.38478
0.381708
0.376269
0.36995
0.36379
0.358844
0.358864
0.36699
0.384799
0.410288
0.447849
0.600361
1.56491
0.356263
0.358664
0.361221
0.363973
0.366875
0.369986
0.373282
0.354103
0.352051
0.350229
0.348498
0.347067
0.34574
0.344864
0.344145
0.344238
0.344707
0.345788
0.347815
0.35093
0.355151
0.360475
0.366807
0.373902
0.38131
0.388384
0.394151
0.397155
0.396331
0.392539
0.387093
0.380499
0.372594
0.365754
0.363698
0.369693
0.384544
0.407362
0.444757
0.604432
1.58595
0.354101
0.356299
0.358728
0.361278
0.36402
0.366912
0.370009
0.373291
0.352049
0.350223
0.348492
0.347056
0.345726
0.344844
0.34412
0.34421
0.344681
0.345779
0.347851
0.351072
0.355508
0.361195
0.368072
0.375986
0.384579
0.393323
0.401393
0.40779
0.410739
0.40934
0.40585
0.40042
0.391987
0.382033
0.373054
0.368719
0.372497
0.38461
0.404866
0.442162
0.608655
1.60556
0.352048
0.354138
0.356372
0.358793
0.361337
0.364068
0.36695
0.370033
0.3733
0.350218
0.348487
0.347046
0.345713
0.344826
0.344097
0.344185
0.344659
0.34577
0.34788
0.35119
0.355803
0.361815
0.369199
0.377826
0.387437
0.397604
0.407613
0.416618
0.423348
0.426069
0.425325
0.422229
0.414915
0.404277
0.391983
0.380654
0.373909
0.37533
0.384831
0.402753
0.439975
0.61297
1.62409
0.350213
0.352089
0.354216
0.356447
0.35886
0.361397
0.364117
0.366989
0.370057
0.373309
0.348483
0.347038
0.345703
0.344811
0.344078
0.344164
0.34464
0.345763
0.347906
0.351293
0.356061
0.362354
0.370218
0.379543
0.390072
0.401496
0.413189
0.424432
0.43408
0.440986
0.444938
0.445018
0.440036
0.430399
0.417205
0.402322
0.388471
0.379237
0.378196
0.38528
0.400995
0.438168
0.61733
1.64141
0.34848
0.350254
0.352175
0.354296
0.356525
0.358929
0.36146
0.364168
0.367029
0.370082
0.373318
0.347029
0.345694
0.344798
0.344061
0.344145
0.344623
0.345758
0.347929
0.351387
0.356293
0.362836
0.371134
0.381151
0.392621
0.405219
0.418442
0.431665
0.44384
0.454003
0.462826
0.468304
0.466474
0.459056
0.446661
0.430609
0.412933
0.396424
0.384643
0.381084
0.385901
0.399527
0.43667
0.62167
1.65785
0.347022
0.348522
0.35034
0.352263
0.354379
0.356605
0.359
0.361524
0.36422
0.36707
0.370107
0.373328
0.345686
0.344786
0.344046
0.344129
0.344609
0.345753
0.347952
0.351472
0.356503
0.363275
0.371968
0.382628
0.395078
0.408936
0.423627
0.438697
0.453147
0.466158
0.478816
0.490075
0.493925
0.489457
0.479043
0.463504
0.444337
0.423701
0.404437
0.390069
0.383997
0.386708
0.398362
0.435451
0.625951
1.6732
0.34568
0.34706
0.348613
0.35043
0.352355
0.354465
0.356687
0.359073
0.361589
0.364273
0.367112
0.370134
0.373337
0.344775
0.344032
0.344115
0.344597
0.34575
0.347972
0.35155
0.356695
0.363678
0.372736
0.383995
0.397379
0.412607
0.428939
0.445841
0.462462
0.478087
0.494171
0.510056
0.520186
0.521563
0.51372
0.499772
0.480735
0.458236
0.434516
0.412439
0.395473
0.3869
0.387551
0.397453
0.434474
0.630173
1.68779
0.344765
0.345716
0.347144
0.348707
0.350522
0.352449
0.354552
0.356771
0.359148
0.361656
0.364328
0.367155
0.370161
0.373347
0.34402
0.344103
0.344586
0.345748
0.347992
0.351621
0.356871
0.364046
0.373444
0.385264
0.399538
0.416105
0.434292
0.453342
0.472174
0.490361
0.509683
0.529842
0.544934
0.552947
0.550928
0.539003
0.521016
0.498172
0.472166
0.44528
0.420365
0.400812
0.389813
0.388433
0.396754
0.433689
0.634239
1.70135
0.34401
0.344789
0.345795
0.347231
0.348804
0.350618
0.352546
0.354643
0.356858
0.359225
0.361726
0.364385
0.367198
0.370187
0.373356
0.344092
0.344577
0.345746
0.348009
0.351686
0.357031
0.364384
0.374096
0.386442
0.401563
0.419423
0.439471
0.461068
0.482602
0.503479
0.526093
0.550479
0.570185
0.583317
0.588098
0.581738
0.565051
0.542574
0.515647
0.486005
0.45591
0.42816
0.406055
0.392708
0.389346
0.396222
0.433089
0.638252
1.71427
0.344085
0.344017
0.344849
0.345877
0.347322
0.348905
0.350717
0.352646
0.354736
0.356947
0.359305
0.361796
0.364443
0.367242
0.370213
0.373365
0.344568
0.345744
0.348025
0.351746
0.357177
0.364693
0.374695
0.387533
0.403459
0.422563
0.44445
0.46868
0.493531
0.517875
0.5441
0.573015
0.597367
0.615252
0.625052
0.625396
0.613717
0.591605
0.564246
0.533017
0.499648
0.466333
0.435777
0.411176
0.395563
0.390283
0.39584
0.432615
0.642026
1.7262
0.344561
0.34407
0.34404
0.344908
0.345965
0.347416
0.34901
0.350819
0.352749
0.354832
0.357038
0.359387
0.361869
0.3645
0.367284
0.370239
0.373374
0.345741
0.348039
0.3518
0.35731
0.364976
0.375245
0.388541
0.405225
0.425522
0.44922
0.476093
0.504433
0.533301
0.564388
0.598517
0.628026
0.6508
0.665188
0.670073
0.664643
0.646618
0.618437
0.585856
0.550152
0.513005
0.476488
0.443179
0.41615
0.39836
0.391236
0.395561
0.43228
0.64578
1.73758
0.345743
0.344517
0.344042
0.344072
0.344971
0.346058
0.347514
0.349119
0.350924
0.352855
0.354932
0.357132
0.35947
0.36194
0.364556
0.367325
0.370263
0.373382
0.34805
0.351848
0.357431
0.365233
0.375748
0.389469
0.406866
0.428299
0.453763
0.483258
0.515174
0.549072
0.586688
0.628103
0.663932
0.69249
0.711694
0.720448
0.718458
0.7057
0.680228
0.645349
0.607254
0.566952
0.526008
0.486328
0.450335
0.42096
0.401084
0.392196
0.395394
0.432024
0.649225
1.74804
0.348066
0.345656
0.344422
0.343997
0.344118
0.345037
0.346157
0.347615
0.349231
0.351033
0.352964
0.355034
0.357228
0.359553
0.36201
0.364611
0.367365
0.370287
0.373391
0.351891
0.35754
0.365467
0.376207
0.390323
0.408383
0.430893
0.458065
0.490132
0.525707
0.565004
0.609895
0.661561
0.707388
0.743846
0.769133
0.781731
0.781808
0.770406
0.748485
0.714375
0.67218
0.628311
0.583334
0.538601
0.495819
0.457223
0.425593
0.403725
0.393154
0.395285
0.431873
0.652695
1.75804
0.35194
0.34791
0.345459
0.344322
0.343954
0.344177
0.345106
0.346261
0.347721
0.349347
0.351145
0.353076
0.355138
0.357323
0.359634
0.362077
0.364664
0.367403
0.370311
0.373399
0.357638
0.365679
0.376626
0.391105
0.409784
0.433309
0.462115
0.496689
0.535987
0.58094
0.63354
0.697644
0.759624
0.810282
0.844485
0.86187
0.862933
0.850087
0.826107
0.792927
0.748913
0.698796
0.648925
0.599233
0.550743
0.504934
0.463828
0.430039
0.406273
0.394105
0.395262
0.431767
0.655811
1.76606
0.357739
0.351698
0.347538
0.345254
0.344231
0.343917
0.344246
0.345179
0.34637
0.347831
0.349467
0.351262
0.35319
0.355242
0.357415
0.359713
0.362143
0.364715
0.367441
0.370333
0.373406
0.365871
0.377006
0.39182
0.411074
0.435551
0.465914
0.502913
0.545957
0.596679
0.657419
0.736546
0.820462
0.895999
0.947719
0.97228
0.973926
0.956654
0.925701
0.885573
0.838899
0.783701
0.725082
0.669018
0.614597
0.562407
0.513659
0.470141
0.434291
0.408723
0.395039
0.395274
0.43175
0.658557
1.77278
0.36606
0.357386
0.351089
0.347152
0.345067
0.34415
0.34389
0.344321
0.345258
0.346484
0.347946
0.34959
0.351381
0.353304
0.355344
0.357505
0.35979
0.362207
0.364766
0.367477
0.370355
0.373414
0.377353
0.392472
0.412258
0.437626
0.469464
0.508799
0.55556
0.612061
0.681556
0.778849
0.89051
0.999781
1.08396
1.12612
1.12965
1.10583
1.06273
1.00833
0.94851
0.886178
0.818585
0.75094
0.688526
0.629391
0.573574
0.521983
0.476156
0.438346
0.411071
0.395956
0.395308
0.431761
0.66076
1.78006
0.377685
0.365565
0.35644
0.350457
0.346791
0.344894
0.344079
0.343872
0.344403
0.345344
0.346601
0.348066
0.349717
0.351501
0.353414
0.355443
0.357592
0.359865
0.362269
0.364814
0.367512
0.370377
0.373421
0.393072
0.413343
0.439542
0.472771
0.514341
0.564748
0.626999
0.706102
0.824703
0.968935
1.11843
1.24533
1.32471
1.34323
1.31362
1.25506
1.17939
1.09687
1.0143
0.934429
0.853394
0.77628
0.707404
0.64359
0.584233
0.529903
0.481872
0.442202
0.413315
0.396853
0.395362
0.431786
0.663277
1.78796
0.39363
0.377012
0.364149
0.355464
0.349859
0.346455
0.344735
0.344017
0.343865
0.344488
0.345438
0.346723
0.348191
0.349842
0.351618
0.353522
0.355539
0.357677
0.359937
0.362329
0.364862
0.367547
0.370397
0.373425
0.414346
0.44131
0.475845
0.519541
0.573493
0.641473
0.731151
0.873559
1.05328
1.24663
1.42227
1.55071
1.60957
1.59102
1.51788
1.41713
1.30377
1.18968
1.08206
0.983228
0.887938
0.801019
0.725615
0.657182
0.594384
0.53742
0.487291
0.445862
0.415453
0.397609
0.395421
0.431848
0.665892
1.79655
0.41526
0.392744
0.374944
0.362696
0.354536
0.349294
0.346139
0.344587
0.343967
0.34387
0.344576
0.345541
0.346847
0.348317
0.349964
0.351732
0.353626
0.355633
0.35776
0.360008
0.362388
0.364908
0.36758
0.370408
0.373425
0.442954
0.4787
0.524408
0.581785
0.65549
0.756648
0.924369
1.14054
1.37874
1.60581
1.78974
1.90307
1.92706
1.86009
1.73532
1.58708
1.43269
1.28489
1.15082
1.0321
0.922019
0.82508
0.743133
0.670158
0.604026
0.544541
0.49242
0.449328
0.417217
0.398263
0.3955
0.431932
0.668946
1.80592
0.444425
0.414117
0.389774
0.372835
0.361311
0.35365
0.348752
0.345844
0.344452
0.343927
0.343892
0.344664
0.345653
0.34697
0.348441
0.350083
0.351844
0.353728
0.355725
0.35784
0.360077
0.362445
0.364952
0.367597
0.370408
0.373425
0.481366
0.528958
0.589633
0.669058
0.782406
0.975943
1.22804
1.51023
1.78887
2.03119
2.20669
2.2901
2.26678
2.14203
1.95957
1.76038
1.56315
1.38069
1.21959
1.08058
0.955442
0.848396
0.759938
0.682518
0.61317
0.551274
0.497263
0.452172
0.418719
0.39899
0.395604
0.432089
0.672076
1.81611
0.483714
0.442968
0.409907
0.386772
0.370824
0.359984
0.352799
0.348232
0.345571
0.344327
0.343893
0.343941
0.344752
0.34577
0.34709
0.348564
0.350199
0.351953
0.353827
0.355814
0.357918
0.360144
0.3625
0.364975
0.367597
0.370408
0.373425
0.53323
0.597067
0.682198
0.808169
1.0272
1.31375
1.63797
1.96662
2.26742
2.50884
2.66127
2.70161
2.62011
2.42993
2.18542
1.93331
1.69266
1.47553
1.28748
1.12822
0.98803
0.870905
0.776017
0.694267
0.621825
0.55763
0.501228
0.454585
0.42037
0.399804
0.39574
0.432264
0.675787
1.82724
0.536951
0.481885
0.437044
0.405686
0.383905
0.36889
0.358702
0.351977
0.347731
0.345316
0.344213
0.343851
0.344009
0.34484
0.345887
0.347208
0.348684
0.350312
0.352059
0.353924
0.3559
0.357994
0.360209
0.362527
0.364975
0.367597
0.370408
0.373425
0.604128
0.69493
0.833693
1.07728
1.39632
1.76004
2.13609
2.49347
2.80116
3.02765
3.14373
3.12906
2.97996
2.71828
2.40882
2.10303
1.81928
1.56815
1.35377
1.17463
1.01962
0.892555
0.791365
0.705415
0.630005
0.562831
0.504586
0.457224
0.422185
0.400713
0.395914
0.432549
0.679549
1.83932
0.610281
0.53465
0.473572
0.431165
0.401655
0.381142
0.367017
0.357462
0.351186
0.347256
0.345078
0.344111
0.343812
0.34409
0.344928
0.346005
0.347324
0.348802
0.350422
0.352162
0.354018
0.355985
0.358068
0.360241
0.362527
0.364975
0.367597
0.370408
0.373425
0.707256
0.858764
1.12559
1.47488
1.87533
2.29566
2.70639
3.07808
3.37947
3.5782
3.64555
3.56505
3.34038
3.00269
2.62675
2.26747
1.94159
1.65762
1.41787
1.21952
1.05008
0.913309
0.805983
0.715973
0.636705
0.567234
0.508253
0.460115
0.424184
0.401734
0.396138
0.432853
0.684091
1.85252
0.718095
0.607417
0.522885
0.465415
0.425548
0.397763
0.37846
0.365199
0.356263
0.350427
0.346807
0.344862
0.344021
0.343787
0.344175
0.345018
0.346121
0.347438
0.348916
0.35053
0.352263
0.354109
0.356067
0.358104
0.360241
0.362527
0.364975
0.367597
0.370408
0.373421
0.883146
1.17171
1.549
1.98332
2.44451
2.90464
3.33624
3.70993
3.99305
4.1519
4.15894
4.00297
3.69632
3.27974
2.83696
2.42517
2.05864
1.74328
1.47936
1.26264
1.07932
0.933141
0.819872
0.72464
0.642382
0.572043
0.512262
0.463282
0.426387
0.402879
0.396413
0.433321
0.688655
1.86681
0.714632
0.904572
0.590115
0.511566
0.457616
0.420115
0.393977
0.375852
0.363438
0.355109
0.349704
0.346389
0.344665
0.343946
0.343775
0.344262
0.34511
0.346235
0.347551
0.349028
0.350636
0.352361
0.354198
0.356107
0.358104
0.360241
0.362527
0.364975
0.367597
0.370397
0.373414
1.21531
1.61845
2.08385
2.58243
3.08761
3.57397
4.01478
4.37947
4.6331
4.74055
4.67653
4.43686
4.04359
3.54675
3.0379
2.5752
2.16982
1.82474
1.53797
1.30384
1.10725
0.952032
0.831305
0.731992
0.648587
0.577299
0.516648
0.466756
0.428818
0.404168
0.396765
0.433812
0.694256
1.88241
0.687518
0.901568
1.25282
0.573985
0.500767
0.450062
0.414824
0.39029
0.373321
0.361737
0.354001
0.349017
0.346003
0.344493
0.343888
0.343777
0.344348
0.345204
0.346346
0.347662
0.349137
0.350739
0.352457
0.354242
0.356107
0.358104
0.360241
0.362527
0.364975
0.36758
0.370376
0.373406
1.68308
2.17703
2.70959
3.25536
3.79079
4.292
4.7319
5.07764
5.29113
5.33618
5.19138
4.86143
4.37872
3.80178
3.22853
2.71703
2.27481
1.90174
1.59353
1.34299
1.13383
0.967609
0.841022
0.740042
0.655377
0.583048
0.521447
0.470568
0.431506
0.405618
0.397187
0.434535
0.699863
1.89921
0.662698
0.857943
1.25061
1.73806
0.558823
0.490289
0.4427
0.409668
0.386709
0.370872
0.3601
0.352944
0.348374
0.345658
0.344345
0.343846
0.343794
0.344432
0.345301
0.346455
0.347771
0.349244
0.35084
0.352504
0.354242
0.356106
0.358104
0.36024
0.362527
0.364952
0.367546
0.370355
0.373398
2.26288
2.8264
3.40846
3.98711
4.54123
5.0477
5.47803
5.79572
5.95881
5.93099
5.697
5.27208
4.69897
4.04346
3.40826
2.85041
2.37349
1.97422
1.64598
1.38007
1.15572
0.980861
0.85168
0.748863
0.662811
0.58934
0.526704
0.474756
0.434478
0.407256
0.397724
0.435298
0.706817
1.91755
0.639804
0.816971
1.18605
1.73763
2.33551
0.544228
0.480063
0.435525
0.404654
0.38324
0.368511
0.358531
0.351945
0.347789
0.345357
0.34422
0.343815
0.34383
0.344512
0.3454
0.34656
0.347879
0.349348
0.350889
0.352503
0.354241
0.356106
0.358104
0.36024
0.362499
0.364907
0.367512
0.370332
0.37339
2.93316
3.54775
4.16406
4.7634
5.32663
5.83071
6.24422
6.5253
6.62788
6.51746
6.18749
5.66498
5.00233
4.27096
3.57685
2.9753
2.46591
2.0422
1.6953
1.41043
1.17431
0.995407
0.863382
0.758538
0.670957
0.596232
0.532466
0.47936
0.43777
0.409105
0.398359
0.436376
0.713812
1.93713
0.61823
0.778634
1.1227
1.65425
2.33795
3.02278
0.53004
0.470089
0.42855
0.399794
0.379891
0.366243
0.357044
0.35103
0.347265
0.345099
0.344113
0.343784
0.343883
0.34459
0.3455
0.346665
0.347987
0.349399
0.350888
0.352502
0.354241
0.356106
0.358104
0.360208
0.362443
0.36486
0.367476
0.37031
0.373382
3.67388
4.3231
4.96043
5.57034
6.13554
6.63172
7.02223
7.25821
7.29022
7.08842
6.65764
6.03711
5.28746
4.48387
3.7343
3.09186
2.5522
2.10579
1.73546
1.43613
1.19469
1.01138
0.876238
0.769158
0.679891
0.603786
0.538785
0.484425
0.441419
0.411197
0.399163
0.437537
0.722503
1.95852
0.59768
0.742521
1.06083
1.57058
2.2378
3.02855
3.77841
0.516232
0.460392
0.421791
0.395101
0.376671
0.364089
0.355676
0.350208
0.346795
0.344876
0.344024
0.343755
0.343946
0.344667
0.345601
0.346769
0.348039
0.349396
0.350887
0.352502
0.354241
0.356106
0.358066
0.360142
0.362386
0.364813
0.367439
0.370286
0.373374
4.46539
5.1347
5.78183
6.39501
6.95793
7.44265
7.80444
7.98635
7.93778
7.63725
7.10314
6.38632
5.55359
4.68213
3.88082
3.20036
2.63259
2.15729
1.76931
1.46418
1.21702
1.02894
0.890374
0.780825
0.689697
0.612073
0.545722
0.49
0.44547
0.413569
0.400102
0.439085
0.731395
1.98099
0.578028
0.708497
1.00026
1.48676
2.13636
2.91311
3.78661
4.58091
0.502818
0.451
0.415267
0.390588
0.373611
0.362104
0.354445
0.34947
0.346379
0.344685
0.343949
0.343733
0.344015
0.344745
0.345706
0.346818
0.348036
0.349395
0.350887
0.352501
0.354241
0.356064
0.357991
0.360074
0.362327
0.364764
0.367402
0.370262
0.373365
5.28809
5.96478
6.6136
7.22632
7.78573
8.25672
8.5835
8.70152
8.56273
8.15809
7.52067
6.71126
5.8005
4.86602
4.01681
3.30114
2.69748
2.20058
1.80609
1.49476
1.24148
1.04824
0.905924
0.793654
0.700468
0.621171
0.55334
0.496144
0.44997
0.416258
0.401285
0.440629
0.742308
2.00987
0.559217
0.676581
0.941159
1.40247
2.03364
2.79591
3.65635
4.58897
5.40873
0.48983
0.441944
0.408997
0.386297
0.37079
0.360314
0.353336
0.348809
0.346013
0.344521
0.343886
0.34372
0.344089
0.34483
0.345758
0.34681
0.348036
0.349395
0.350886
0.352502
0.354196
0.355981
0.357914
0.360005
0.362266
0.364713
0.367363
0.370238
0.373356
6.12205
6.79668
7.44316
8.05577
8.61297
9.06791
9.35197
9.39533
9.1577
8.6461
7.90793
7.01131
6.02841
5.03601
4.14272
3.38226
2.75189
2.24744
1.84601
1.52811
1.26828
1.06944
0.923039
0.807768
0.71231
0.631167
0.561715
0.502917
0.454974
0.419317
0.402664
0.442613
0.755884
2.04397
0.541207
0.646807
0.883971
1.31769
1.92919
2.67677
3.52465
4.44309
5.41222
6.24079
0.477306
0.433254
0.40304
0.382343
0.368243
0.3587
0.352339
0.34822
0.345692
0.344378
0.343836
0.343723
0.344177
0.344864
0.345752
0.346808
0.348035
0.349394
0.350886
0.352453
0.354105
0.355896
0.357836
0.359933
0.362204
0.364662
0.367324
0.370213
0.373347
6.94851
7.61607
8.26115
8.87802
9.43512
9.87041
10.1019
10.0593
9.71606
9.09761
8.26367
7.2866
6.23792
5.19271
4.24374
3.45013
2.81064
2.29813
1.88933
1.56443
1.29761
1.09275
0.941882
0.823307
0.725339
0.642158
0.570926
0.510391
0.460544
0.42279
0.40436
0.445219
0.773904
2.07762
0.523975
0.619154
0.829289
1.23271
1.82271
2.55515
3.39098
4.29706
5.24825
6.23393
7.057
0.465286
0.425016
0.397553
0.378774
0.365946
0.357245
0.351444
0.347694
0.345408
0.344255
0.343803
0.343752
0.344218
0.344846
0.345752
0.346808
0.348034
0.349396
0.350835
0.352356
0.354012
0.355808
0.357755
0.35986
0.36214
0.364609
0.367283
0.370187
0.373337
7.75113
8.41224
9.06249
9.68961
10.2484
10.658
10.8247
10.6851
10.2322
9.51022
8.58768
7.53779
6.42983
5.31786
4.32807
3.52326
2.87401
2.35291
1.93626
1.60394
1.32969
1.11835
0.962626
0.84042
0.739681
0.654251
0.581066
0.518642
0.466748
0.426755
0.406741
0.44876
0.794248
2.11013
0.507516
0.593527
0.777758
1.14809
1.71411
2.43047
3.25484
4.14992
5.08674
6.04703
7.03253
7.83887
0.453897
0.417447
0.392606
0.375556
0.363874
0.355936
0.35064
0.347224
0.345157
0.344157
0.343805
0.343753
0.344205
0.344842
0.345752
0.346808
0.348035
0.349344
0.350732
0.352256
0.353917
0.355718
0.357671
0.359785
0.362074
0.364555
0.367241
0.37016
0.373328
8.51738
9.18042
9.84288
10.4872
11.0499
11.423
11.5113
11.2649
10.7021
9.88304
8.88061
7.76591
6.58204
5.42195
4.41866
3.60194
2.9423
2.41203
1.98705
1.64686
1.36472
1.14645
0.985455
0.859269
0.755474
0.667565
0.59223
0.527757
0.473669
0.432102
0.410035
0.453235
0.815971
2.14154
0.491947
0.569762
0.729982
1.06462
1.60355
2.3023
3.11541
4.00126
4.92609
5.86715
6.81579
7.78712
8.57256
0.443446
0.410638
0.388148
0.372655
0.362007
0.354757
0.349917
0.346802
0.34495
0.344111
0.343791
0.343719
0.344205
0.344841
0.345749
0.346811
0.34798
0.349237
0.350628
0.352154
0.353819
0.355626
0.357586
0.359709
0.362007
0.364499
0.367198
0.370133
0.373318
9.23915
9.90804
10.5914
11.2613
11.8326
12.1586
12.1513
11.7919
11.1232
10.2164
9.14374
7.94515
6.70798
5.53331
4.51582
3.68648
3.01578
2.47575
2.04192
1.69342
1.40293
1.17724
1.01056
0.880022
0.772868
0.682224
0.604538
0.537834
0.482819
0.439058
0.413952
0.457999
0.841158
2.17067
0.47765
0.547836
0.686468
0.983284
1.49137
2.17041
2.97189
3.85011
4.76606
5.69161
6.6128
7.53252
8.47705
9.25204
0.43407
0.404516
0.384135
0.370041
0.360324
0.353694
0.349265
0.346441
0.344822
0.344067
0.34375
0.343713
0.344204
0.344841
0.345751
0.346761
0.34787
0.349128
0.35052
0.352049
0.353719
0.355531
0.357499
0.35963
0.361938
0.364442
0.367155
0.370107
0.373308
9.91419
10.6051
11.3237
12.018
12.5884
12.8513
12.7349
12.2613
11.4953
10.5118
9.34793
8.0924
6.84189
5.65215
4.6198
3.77713
3.09469
2.54429
2.10109
1.7438
1.44449
1.21092
1.03812
0.902851
0.792011
0.698376
0.618099
0.551041
0.494365
0.446719
0.41837
0.464342
0.867689
2.19827
0.464802
0.528057
0.647367
0.905297
1.37818
2.03471
2.82357
3.6953
4.60553
5.52024
6.41952
7.30024
8.17705
9.08384
9.86171
0.425672
0.399014
0.380523
0.367687
0.358805
0.352732
0.3487
0.346186
0.344732
0.344012
0.343745
0.34371
0.3442
0.344853
0.345696
0.346654
0.34776
0.349017
0.350411
0.351942
0.353617
0.355434
0.357409
0.359549
0.361867
0.364384
0.367111
0.370081
0.373299
10.536
11.2698
12.0438
12.7606
13.3125
13.4889
13.2534
12.6706
11.8194
10.7374
9.5141
8.24765
6.98376
5.77861
4.73081
3.87413
3.17927
2.61787
2.16474
1.79818
1.4896
1.24767
1.06831
0.927923
0.813068
0.71614
0.635823
0.567489
0.506737
0.455108
0.423602
0.471134
0.898559
2.22235
0.453284
0.510403
0.613738
0.832859
1.2649
1.8953
2.66983
3.53565
4.44306
5.35178
6.23564
7.08508
7.90857
8.73137
9.60162
10.393
0.418154
0.394072
0.377273
0.365562
0.35743
0.351893
0.348284
0.346019
0.344655
0.344006
0.343742
0.343709
0.344207
0.344815
0.345588
0.346548
0.347648
0.348904
0.350299
0.351832
0.353511
0.355335
0.357317
0.359466
0.361794
0.364326
0.367069
0.370056
0.37329
11.1045
11.9076
12.7541
13.4903
13.9957
14.0581
13.7004
13.0201
12.0617
10.9186
9.68728
8.41047
7.13344
5.91271
4.84897
3.97766
3.26969
2.69666
2.23303
1.85671
1.53838
1.28764
1.10129
0.955401
0.836158
0.73931
0.657757
0.584881
0.519941
0.464295
0.429483
0.479905
0.93162
2.24419
0.442984
0.494553
0.585352
0.768726
1.15372
1.75253
2.51013
3.36994
4.27702
5.1845
6.05958
6.8864
7.66663
8.41972
9.18233
10.0213
10.8447
0.411428
0.389633
0.374344
0.36364
0.356227
0.351259
0.348024
0.34591
0.344648
0.344002
0.343738
0.343733
0.344161
0.344726
0.345483
0.346439
0.347534
0.348787
0.350185
0.351719
0.353404
0.355234
0.357222
0.359382
0.361722
0.364271
0.367028
0.370031
0.373282
11.6245
12.5292
13.4583
14.1945
14.622
14.5463
14.0736
13.2742
12.253
11.1045
9.86641
8.58018
7.29054
6.05431
4.97431
4.08779
3.36608
2.78077
2.30607
1.91948
1.59093
1.33093
1.13719
0.985375
0.866154
0.767796
0.680746
0.603178
0.534014
0.474311
0.436308
0.489871
0.969088
2.26189
0.433796
0.480293
0.56112
0.714257
1.04919
1.60805
2.3441
3.19691
4.10559
5.01641
5.88932
6.70204
7.45011
8.14595
8.81895
9.51906
10.3293
11.2141
0.40541
0.385639
0.371698
0.361953
0.355297
0.350873
0.347879
0.3459
0.344643
0.343997
0.343767
0.343724
0.34407
0.344645
0.34538
0.346328
0.34742
0.348668
0.350068
0.351604
0.353293
0.35513
0.357126
0.359299
0.361653
0.364217
0.366988
0.370008
0.373273
12.1056
13.1489
14.1569
14.8581
15.1666
14.9449
14.3346
13.4699
12.445
11.2932
10.05
8.75579
7.45445
6.2031
5.1067
4.20454
3.4685
2.87028
2.3839
1.98652
1.64728
1.37758
1.17602
1.02405
0.902682
0.797351
0.704661
0.622359
0.548936
0.485197
0.444059
0.501884
1.01088
2.27436
0.425612
0.467472
0.54015
0.668721
0.954594
1.46687
2.17285
3.01531
3.92677
4.84517
5.72252
6.52952
7.25593
7.90837
8.5084
9.09437
9.73001
10.5109
11.4986
0.400012
0.382039
0.369372
0.360632
0.354743
0.350684
0.347869
0.345893
0.344635
0.344038
0.343772
0.343689
0.343991
0.344565
0.345277
0.346215
0.347303
0.348546
0.349948
0.351487
0.35318
0.355025
0.35703
0.359219
0.361585
0.364164
0.36695
0.369985
0.373265
12.5651
13.7772
14.8473
15.4708
15.6022
15.2092
14.5286
13.66
12.6344
11.4819