/*--------------------------------*- C++ -*----------------------------------*\
  =========                 |
  \\      /  F ield         | OpenFOAM: The Open Source CFD Toolbox
   \\    /   O peration     | Website:  https://openfoam.org
    \\  /    A nd           | Version:  8
     \\/     M anipulation  |
\*---------------------------------------------------------------------------*/
FoamFile
{
    version     2.0;
    format      ascii;
    class       volScalarField;
    location    "0.33";
    object      nut;
}
// * * * * * * * * * * * * * * * * * * * * * * * * * * * * * * * * * * * * * //

dimensions      [0 2 -1 0 0 0 0];

internalField   nonuniform List<scalar> 
15677
(
0.000168257
0.000653012
0.000148416
0.00151367
0.000442434
0.000141502
0.00267539
0.000875743
0.000381145
0.000142367
0.00392117
0.00151879
0.000686621
0.000354244
0.000145441
0.00502419
0.00235593
0.00114632
0.000585643
0.000340267
0.00015119
0.00584076
0.0033171
0.00178062
0.000947765
0.000529352
0.000332041
0.000156986
0.00633513
0.00429837
0.0025674
0.00146326
0.000821016
0.000492579
0.000327026
0.000162437
0.00656293
0.00518743
0.00345259
0.00213148
0.0012573
0.000737421
0.000467568
0.000324164
0.00016723
0.00665851
0.0058933
0.00435503
0.00292197
0.00184159
0.00111258
0.000677613
0.000450577
0.000322609
0.000171471
0.00670553
0.00633821
0.00518061
0.0037788
0.002557
0.00163213
0.00100498
0.000634379
0.000438839
0.000322058
0.000175056
0.00671441
0.00655344
0.00584518
0.00462514
0.00336277
0.0022869
0.0014732
0.000924703
0.000602467
0.000430901
0.000322019
0.000178211
0.00670992
0.0066615
0.00629559
0.00537705
0.004197
0.00304575
0.00207846
0.00134977
0.000862734
0.000578843
0.000425442
0.000322506
0.000180842
0.00670627
0.00669875
0.0065296
0.00596443
0.00498429
0.00385785
0.00279652
0.00191273
0.00125203
0.000814615
0.000561085
0.000421948
0.000323159
0.000183208
0.00670537
0.00670439
0.00664681
0.00635688
0.00565022
0.00465644
0.00358424
0.00259481
0.00177892
0.00117385
0.000776784
0.000547884
0.000419607
0.000324081
0.00018527
0.00670541
0.0067029
0.00668787
0.00656291
0.00614226
0.00536905
0.00438229
0.00335841
0.00242931
0.00166932
0.00111038
0.00074697
0.000537781
0.000418372
0.000324937
0.000187097
0.00670554
0.0067017
0.00669636
0.00665656
0.00644699
0.00593415
0.00512202
0.00415021
0.00317015
0.00229154
0.00157897
0.00105864
0.000723238
0.000530488
0.00041749
0.000325996
0.000188767
0.00670561
0.00670127
0.00669708
0.00668493
0.00660499
0.0063221
0.00573841
0.00490546
0.00395283
0.00301129
0.00217639
0.00150383
0.00101662
0.000704711
0.000524753
0.000417363
0.00032694
0.000190194
0.00670562
0.0067012
0.00669665
0.00669171
0.00666379
0.00654148
0.00618904
0.00555837
0.00471636
0.00378366
0.00287684
0.00207944
0.00144152
0.000982484
0.00068979
0.000520866
0.000417295
0.000328031
0.000191631
0.0067056
0.00670124
0.00669632
0.00669282
0.00668232
0.0066347
0.00646839
0.00605911
0.00539564
0.00455094
0.00363856
0.00276246
0.00199804
0.00138992
0.000954551
0.000678392
0.000517744
0.000417815
0.000329014
0.000192759
0.00670557
0.00670129
0.00669614
0.00669281
0.00668726
0.00666926
0.00659842
0.00639025
0.0059365
0.00524924
0.00440674
0.00351378
0.00266546
0.00192984
0.00134723
0.000932227
0.00066922
0.000515992
0.000418223
0.000330096
0.000194092
0.00670556
0.00670134
0.00669604
0.00669274
0.00668813
0.00668096
0.00665167
0.00655669
0.00631222
0.00582177
0.00511894
0.00428106
0.00340704
0.00258346
0.00187301
0.00131246
0.000914212
0.000662617
0.000514538
0.000419137
0.000331128
0.000194991
0.00670555
0.00670136
0.00669597
0.00669273
0.00668804
0.00668442
0.00667183
0.00663076
0.00651218
0.00623463
0.00571693
0.00500332
0.00417252
0.00331611
0.00251482
0.00182635
0.00128426
0.00090034
0.000657388
0.000514217
0.00041985
0.000332178
0.000196311
0.00670554
0.00670138
0.00669593
0.00669276
0.00668784
0.00668528
0.00667857
0.00666175
0.0066067
0.00646622
0.00616201
0.00562176
0.0049024
0.00407927
0.00323966
0.00245811
0.00178845
0.00126219
0.000889657
0.000654235
0.000513889
0.000421031
0.000333321
0.000197042
0.00670554
0.00670138
0.0066959
0.00669277
0.00668768
0.00668544
0.00668043
0.00667363
0.00664886
0.00658148
0.00642072
0.0060943
0.00553759
0.00481459
0.00400048
0.00317626
0.00241228
0.00175897
0.00124539
0.000882162
0.0006518
0.000514588
0.000421935
0.000334246
0.000198363
0.00670555
0.00670137
0.00669589
0.00669277
0.00668759
0.00668544
0.00668073
0.00667777
0.00666605
0.00663607
0.006555
0.00637765
0.00603276
0.00546284
0.00474029
0.00393534
0.00312552
0.0023766
0.00173641
0.00123316
0.000877012
0.000651272
0.000515066
0.000423383
0.000335701
0.000199062
0.00670555
0.00670136
0.0066959
0.00669276
0.00668754
0.00668541
0.00668065
0.00667905
0.00667236
0.00666011
0.00662122
0.00652993
0.00633712
0.00597727
0.00540061
0.00467905
0.00388292
0.00308526
0.00234948
0.00172114
0.00122599
0.000874832
0.000650984
0.000516571
0.000424294
0.000336458
5.33939e-05
0.00670556
0.00670134
0.0066959
0.00669274
0.00668752
0.00668537
0.00668053
0.00667934
0.00667437
0.00666992
0.00665147
0.00660838
0.00650557
0.00630203
0.00593216
0.00534719
0.00462851
0.00384223
0.00305787
0.00233351
0.00171313
0.0012227
0.000874141
0.000652536
0.000517689
0.000426688
0.000283852
6.33718e-05
0.00670557
0.00670133
0.00669592
0.00669271
0.00668751
0.00668532
0.00668045
0.00667932
0.00667486
0.00667356
0.00666424
0.00664624
0.00659446
0.00648512
0.00627027
0.00589015
0.00530729
0.00459591
0.00381875
0.00304186
0.00232449
0.0017099
0.00122211
0.000875988
0.000654239
0.000519784
0.00042032
0.000219704
7.07644e-05
0.00670558
0.00670131
0.00669593
0.00669268
0.00668752
0.00668527
0.0066804
0.00667923
0.00667488
0.0066747
0.00666918
0.00666324
0.00663818
0.00658538
0.00646767
0.00624512
0.00586838
0.00528305
0.00457349
0.00380197
0.00303275
0.00232167
0.00171129
0.00122594
0.000879138
0.000656567
0.000521087
0.000400432
0.000178183
7.62177e-05
0.00670559
0.0067013
0.00669595
0.00669265
0.00668753
0.00668522
0.00668037
0.00667913
0.0066748
0.00667489
0.00667087
0.00667028
0.00665837
0.00663707
0.00657596
0.0064545
0.00623667
0.00585153
0.0052651
0.00455945
0.00379476
0.00303261
0.00232651
0.00171889
0.00123259
0.000883848
0.000659972
0.000518974
0.000367677
0.000152677
8.06381e-05
0.00670559
0.00670128
0.00669597
0.00669263
0.00668754
0.00668518
0.00668036
0.00667903
0.00667473
0.0066748
0.00667131
0.00667282
0.00666712
0.00666176
0.00663169
0.00657545
0.00645351
0.00622982
0.00584159
0.0052573
0.00455881
0.00380112
0.00304365
0.00233943
0.00173109
0.00124223
0.000890224
0.000663012
0.000513003
0.000336507
0.000134298
8.40442e-05
0.0067056
0.00670126
0.00669598
0.0066926
0.00668756
0.00668513
0.00668035
0.00667895
0.00667467
0.00667465
0.00667134
0.00667348
0.0066706
0.00667269
0.00665947
0.00664107
0.00657873
0.00645666
0.00622904
0.00584487
0.00526644
0.00457273
0.00381932
0.00306387
0.00235903
0.00174787
0.00125462
0.000897781
0.000665923
0.000501742
0.000306333
0.000121315
8.64611e-05
0.00670561
0.00670125
0.006696
0.00669257
0.00668758
0.00668509
0.00668036
0.00667887
0.00667462
0.00667449
0.00667126
0.00667349
0.00667173
0.00667704
0.00667251
0.00667379
0.00664706
0.00658788
0.00646606
0.00624405
0.00586398
0.0052891
0.00459962
0.00384855
0.00309292
0.00238521
0.00176858
0.0012698
0.000906436
0.00066719
0.000486423
0.00028026
0.000112803
8.82491e-05
0.00670561
0.00670124
0.00669601
0.00669255
0.0066876
0.00668504
0.00668036
0.0066788
0.00667458
0.00667436
0.00667115
0.00667332
0.00667198
0.00667842
0.00667819
0.00668925
0.00668203
0.00666025
0.00660626
0.00648943
0.00627238
0.00589687
0.00532604
0.00463926
0.00388878
0.00313062
0.00241739
0.00179334
0.00128699
0.000915869
0.000667415
0.000469683
0.00026044
0.000107024
8.96346e-05
0.00670123
0.00670563
0.00669603
0.00669253
0.00668762
0.006685
0.00668037
0.00667873
0.00667454
0.00667424
0.00667105
0.00667311
0.00667194
0.00667868
0.00668027
0.00669616
0.00669892
0.00669813
0.00668498
0.00663633
0.00652581
0.00631478
0.00594496
0.00537723
0.00469195
0.00393968
0.00317651
0.00245557
0.00182156
0.00130662
0.000926965
0.000666575
0.00045472
0.000245214
0.000102969
9.07591e-05
0.00669604
0.00670123
0.00670565
0.0066925
0.00668764
0.00668497
0.00668039
0.00667868
0.00667452
0.00667414
0.00667096
0.00667291
0.00667181
0.00667855
0.00668089
0.00669882
0.00670667
0.00671693
0.00672729
0.00671995
0.00667934
0.00657673
0.00637318
0.00600836
0.00544326
0.00475733
0.00400115
0.00323051
0.00249907
0.00185323
0.00133075
0.000940431
0.000665144
0.000441943
0.000233405
0.000100088
9.17105e-05
0.00669248
0.00669608
0.00670124
0.00670567
0.00668766
0.00668493
0.0066804
0.00667862
0.0066745
0.00667405
0.00667087
0.00667274
0.00667166
0.00667832
0.00668097
0.00669969
0.00670984
0.00672587
0.00674908
0.00676582
0.00676823
0.00673703
0.00664407
0.00644854
0.0060888
0.00552457
0.00483579
0.00407278
0.00329184
0.0025479
0.00189187
0.00135948
0.000954497
0.000664248
0.000431387
0.000224061
9.79805e-05
9.25418e-05
0.00668767
0.00669249
0.00669615
0.00670125
0.00670569
0.0066849
0.00668042
0.00667857
0.00667449
0.00667397
0.00667079
0.0066726
0.00667151
0.00667806
0.00668087
0.00669988
0.00671101
0.00672977
0.00675996
0.00679026
0.00681818
0.00683137
0.0068116
0.00672868
0.00654201
0.00618601
0.00562139
0.00492645
0.00415409
0.00336052
0.00260729
0.00193941
0.00138971
0.000969426
0.000663953
0.000422622
0.000216566
9.64492e-05
9.32885e-05
0.00668487
0.00668774
0.00669253
0.00669622
0.00670126
0.00670571
0.00668043
0.00667852
0.00667449
0.0066739
0.00667072
0.00667248
0.00667136
0.00667782
0.00668072
0.00669981
0.00671139
0.00673145
0.00676506
0.00680303
0.00684555
0.00688511
0.00691141
0.00690371
0.00683224
0.00665335
0.00630042
0.00573369
0.00503014
0.00424483
0.00344385
0.00267982
0.00199069
0.0014214
0.000984924
0.000664575
0.00041538
0.00021048
9.53039e-05
9.39681e-05
0.00668045
0.00668489
0.00668784
0.00669257
0.00669629
0.00670127
0.00670573
0.00667848
0.00667448
0.00667384
0.00667066
0.00667238
0.00667122
0.00667762
0.00668056
0.00669966
0.00671148
0.00673221
0.00676756
0.00680985
0.0068614
0.00691708
0.00697167
0.00701064
0.00701485
0.0069536
0.00678274
0.0064315
0.00586026
0.00514566
0.00435519
0.00354559
0.00275781
0.00204493
0.00145426
0.00100127
0.000666242
0.000409529
0.000205406
9.44609e-05
9.45978e-05
0.00667844
0.00668052
0.00668494
0.00668796
0.00669261
0.00669637
0.00670129
0.00670575
0.00667449
0.00667378
0.00667062
0.0066723
0.00667109
0.00667745
0.00668041
0.00669948
0.00671144
0.00673258
0.00676895
0.00681365
0.00687061
0.00693642
0.00700901
0.00707864
0.00713331
0.00714853
0.00709469
0.00692874
0.00657758
0.00599974
0.0052872
0.00449047
0.0036547
0.00284031
0.00210166
0.00148798
0.00101791
0.000669042
0.000404717
0.000201144
9.38251e-05
9.51807e-05
0.00667449
0.00667845
0.00668065
0.00668499
0.00668807
0.00669265
0.00669644
0.0067013
0.00670578
0.00667372
0.00667058
0.00667223
0.00667096
0.00667732
0.00668027
0.00669931
0.00671137
0.0067328
0.00676984
0.00681615
0.0068765
0.00694874
0.00703346
0.00712264
0.00721022
0.00727888
0.00730691
0.00725865
0.00709131
0.00673774
0.00616852
0.0054572
0.00463617
0.00377092
0.00292647
0.00216027
0.0015225
0.00103451
0.000672276
0.000400878
0.000197497
9.33564e-05
9.57283e-05
0.00667367
0.00667455
0.0066785
0.00668079
0.00668505
0.00668819
0.00669269
0.00669652
0.00670131
0.0067058
0.00667055
0.00667217
0.00667084
0.00667724
0.00668013
0.00669915
0.00671129
0.00673294
0.00677048
0.00681803
0.00688079
0.00695738
0.00705069
0.00715372
0.00726328
0.00736697
0.00745095
0.00748855
0.0074459
0.00727476
0.00692743
0.00636776
0.00563728
0.00478922
0.00389219
0.00301539
0.00222018
0.00155773
0.00105104
0.000676174
0.000397835
0.000194386
9.30055e-05
9.62375e-05
0.00667053
0.00667366
0.00667468
0.00667856
0.00668093
0.00668511
0.00668831
0.00669273
0.0066966
0.00670133
0.00670583
0.00667211
0.00667073
0.00667719
0.00667997
0.00669901
0.00671122
0.00673305
0.006771
0.00681958
0.00688423
0.00696419
0.00706393
0.00717736
0.00730378
0.00743159
0.00755352
0.00764936
0.0076951
0.00765434
0.00750156
0.00716137
0.00657681
0.0058239
0.00494643
0.00401625
0.00310615
0.00228086
0.00159328
0.00106749
0.000680505
0.000395394
0.000191672
9.27522e-05
9.67184e-05
0.00667205
0.00667054
0.00667368
0.00667481
0.00667862
0.00668107
0.00668517
0.00668844
0.00669278
0.00669668
0.00670134
0.00670585
0.00667064
0.00667716
0.0066798
0.00669889
0.00671116
0.00673315
0.00677145
0.00682093
0.00688713
0.00697001
0.00707499
0.00719656
0.00733704
0.00748438
0.00763362
0.00776974
0.00787658
0.0079267
0.00790962
0.00777761
0.0074159
0.0067947
0.00601271
0.00510573
0.00414202
0.00319771
0.0023418
0.00162886
0.00108381
0.000685305
0.00039352
0.000189324
9.2566e-05
9.71651e-05
0.00667057
0.00667198
0.00667058
0.00667371
0.00667495
0.00667868
0.00668123
0.00668523
0.00668856
0.00669283
0.00669676
0.00670136
0.00670587
0.00667715
0.0066796
0.00669881
0.00671112
0.00673325
0.00677185
0.00682213
0.00688967
0.00697517
0.00708465
0.0072132
0.0073657
0.00753025
0.00770321
0.00786927
0.00801967
0.00813315
0.00821229
0.00822258
0.0080749
0.00768647
0.00702457
0.00620336
0.00526534
0.00426749
0.00328919
0.00240249
0.00166418
0.0011
0.000690051
0.000392106
0.000187263
9.24428e-05
9.7588e-05
0.00667714
0.00667041
0.0066719
0.00667063
0.00667374
0.0066751
0.00667875
0.00668138
0.0066853
0.00668869
0.00669288
0.00669685
0.00670138
0.0067059
0.00667939
0.00669878
0.00671111
0.00673335
0.0067722
0.00682321
0.00689193
0.00697985
0.00709328
0.00722822
0.00739148
0.00757104
0.00776678
0.00796062
0.00814477
0.00830417
0.00845225
0.00856562
0.00856267
0.00839041
0.00796708
0.00726238
0.00639398
0.00542216
0.00439142
0.00337965
0.0024625
0.00169903
0.00111611
0.000694753
0.000391043
0.000185446
9.23542e-05
9.79793e-05
0.00667915
0.00667697
0.00667013
0.00667181
0.00667069
0.00667376
0.00667526
0.00667881
0.00668155
0.00668538
0.00668882
0.00669294
0.00669693
0.00670141
0.00670592
0.00669881
0.00671111
0.00673345
0.00677252
0.00682418
0.00689396
0.00698412
0.00710105
0.00724202
0.00741512
0.00760833
0.00782549
0.00804784
0.00826511
0.00846107
0.00866178
0.00885189
0.00895389
0.00892694
0.00872079
0.00825502
0.00750499
0.00658797
0.00557592
0.0045128
0.00346857
0.00252143
0.00173321
0.00113195
0.000699397
0.000390238
0.000183851
9.23115e-05
9.83505e-05
0.00669893
0.00667833
0.00667667
0.00666988
0.00667172
0.00667079
0.00667378
0.00667543
0.00667888
0.00668171
0.00668545
0.00668895
0.006693
0.006697
0.00670143
0.00670593
0.00671113
0.00673354
0.00677279
0.00682506
0.0068958
0.006988
0.0071081
0.0072548
0.00743687
0.00764301
0.00788089
0.00813052
0.0083835
0.00861823
0.00886446
0.00911671
0.00929737
0.0093753
0.00931287
0.00906339
0.00854796
0.00774777
0.00678259
0.00572657
0.00463128
0.00355525
0.00257896
0.00176658
0.00114748
0.000703962
0.000389669
0.000182413
9.22814e-05
9.86923e-05
0.00671112
0.00669848
0.00667685
0.00667633
0.00666969
0.0066716
0.00667092
0.0066738
0.00667562
0.00667896
0.00668188
0.00668554
0.00668908
0.00669307
0.00669708
0.00670146
0.00670595
0.00673361
0.00677302
0.00682584
0.00689748
0.00699155
0.00711453
0.00726661
0.00745685
0.00767554
0.00793351
0.0082091
0.00849772
0.008779
0.00907748
0.00938666
0.00963268
0.00979007
0.00983023
0.00971972
0.00941656
0.00884392
0.00798921
0.00697569
0.00587269
0.0047454
0.00363913
0.00263479
0.00179899
0.00116262
0.000708439
0.000389231
0.00018116
9.2289e-05
9.90172e-05
0.00673367
0.00671006
0.00669746
0.00667567
0.0066759
0.00666959
0.00667145
0.00667107
0.00667382
0.00667581
0.00667904
0.00668205
0.00668563
0.0066892
0.00669313
0.00669715
0.00670148
0.00670597
0.00677319
0.00682654
0.00689901
0.00699478
0.0071204
0.00727751
0.00747523
0.00770616
0.00798323
0.00828372
0.00860882
0.00894065
0.00930296
0.00968118
0.00999245
0.0102206
0.010339
0.0103237
0.010149
0.00977975
0.00914158
0.00822814
0.00716606
0.00601606
0.00485489
0.00371989
0.00268871
0.00183034
0.0011773
0.000712798
0.000388971
0.000180002
9.22938e-05
9.93149e-05
0.00677333
0.00673198
0.00670783
0.00669591
0.00667486
0.00667532
0.0066696
0.00667127
0.00667126
0.00667383
0.00667601
0.00667913
0.00668221
0.00668573
0.00668931
0.0066932
0.00669721
0.00670151
0.00670598
0.00682718
0.00690041
0.00699772
0.00712577
0.00728753
0.00749212
0.00773492
0.00802981
0.00835467
0.00871791
0.00910271
0.00953026
0.0100014
0.0104096
0.0107197
0.0109104
0.010962
0.010864
0.0106033
0.010153
0.00944008
0.00846369
0.00735165
0.00615639
0.00495986
0.00379734
0.00274057
0.00186053
0.00119147
0.000717038
0.000388751
0.000179004
9.23324e-05
9.95986e-05
0.00682781
0.00677045
0.0067284
0.00670562
0.00669401
0.00667443
0.00667459
0.0066697
0.00667107
0.00667147
0.00667386
0.00667621
0.00667923
0.00668237
0.00668583
0.00668942
0.00669327
0.00669727
0.00670154
0.006706
0.00690169
0.00700039
0.00713067
0.0072967
0.00750765
0.00776178
0.00807316
0.00842238
0.00882485
0.00926254
0.00975452
0.0103419
0.0109102
0.0113581
0.0116331
0.0117372
0.0116748
0.0114569
0.0110841
0.0105361
0.0097387
0.00869516
0.00753168
0.00629278
0.00506032
0.00387137
0.00279025
0.00188953
0.00120512
0.000721132
0.000388677
0.000178058
9.23579e-05
9.98253e-05
0.00690291
0.00682423
0.00676433
0.00672495
0.00670341
0.00669173
0.00667436
0.00667374
0.00666989
0.00667086
0.00667169
0.0066739
0.0066764
0.00667934
0.00668252
0.00668593
0.00668953
0.00669334
0.00669733
0.00670157
0.00670601
0.00700282
0.00713514
0.00730507
0.00752193
0.00778671
0.00811341
0.00848709
0.00892835
0.00941703
0.00997743
0.0107181
0.0115107
0.0121912
0.0126102
0.0127633
0.0127071
0.012476
0.0120999
0.0115894
0.0109278
0.0100366
0.00892194
0.00770587
0.00642464
0.0051563
0.00394194
0.0028377
0.00191727
0.0012182
0.00072508
0.000388632
0.000177264
9.24056e-05
0.000100015
0.00700506
0.00689786
0.00681606
0.00675826
0.0067217
0.00670144
0.00668895
0.00667457
0.00667281
0.00667012
0.00667067
0.0066719
0.00667397
0.00667658
0.00667946
0.00668266
0.00668604
0.00668962
0.00669341
0.00669738
0.0067016
0.00670602
0.00713922
0.00731268
0.00753502
0.00780973
0.00815073
0.00854868
0.00902688
0.00956513
0.0102062
0.0111464
0.0122189
0.0131901
0.0138537
0.0141172
0.0140571
0.0137807
0.0133413
0.0127798
0.012113
0.0113251
0.0103326
0.00914349
0.00787403
0.00655157
0.00524782
0.00400905
0.00288289
0.00194375
0.00123071
0.000728872
0.000388617
0.000176599
9.24358e-05
0.00010022
0.00714295
0.00699822
0.0068859
0.00680793
0.00675246
0.00671864
0.00670011
0.00668591
0.00667492
0.00667189
0.00667034
0.00667052
0.0066721
0.00667406
0.00667675
0.00667959
0.00668279
0.00668614
0.00668972
0.00669348
0.00669744
0.00670163
0.00670603
0.0073196
0.00754699
0.00783087
0.00818532
0.0086068
0.00911942
0.00970805
0.0104478
0.011627
0.0130038
0.0142707
0.0151999
0.0156864
0.0157128
0.0154022
0.0148883
0.0142307
0.013476
0.0126449
0.011724
0.0106252
0.00935925
0.00803598
0.00667335
0.00533493
0.00407276
0.00292582
0.00196895
0.00124264
0.000732533
0.000388599
0.000176082
9.24898e-05
0.000100443
0.00732584
0.00713375
0.00698118
0.00687394
0.00679999
0.00674692
0.00671571
0.00669904
0.00668285
0.00667527
0.00667107
0.00667051
0.00667044
0.00667226
0.00667417
0.0066769
0.00667972
0.00668291
0.00668625
0.0066898
0.00669354
0.00669749
0.00670165
0.00670604
0.00755792
0.00785019
0.00821727
0.00866109
0.00920582
0.00984787
0.0107042
0.0121419
0.0138065
0.0153253
0.0164784
0.017189
0.0174357
0.0172267
0.0166879
0.01596
0.0151028
0.0141655
0.013174
0.0121196
0.0109126
0.00956865
0.00819161
0.00678984
0.00541765
0.00413304
0.00296651
0.00199289
0.00125399
0.000735562
0.000388633
0.000175506
9.25342e-05
0.000100684
0.00756777
0.00731395
0.00710975
0.00696409
0.00686224
0.00679219
0.00674156
0.00671299
0.00669806
0.00667996
0.00667547
0.00667042
0.0066706
0.00667044
0.00667239
0.00667431
0.00667704
0.00667985
0.00668303
0.00668635
0.00668989
0.00669361
0.00669754
0.00670167
0.00670604
0.00786783
0.00824671
0.00871137
0.00928652
0.00998607
0.0109712
0.0126642
0.01457
0.0162702
0.0175763
0.0184554
0.0189134
0.0189468
0.0185538
0.0178408
0.0169453
0.0159242
0.0148281
0.0136893
0.0125067
0.0111929
0.00977112
0.00834081
0.00690101
0.00549628
0.00418984
0.00300497
0.00201557
0.00126334
0.000738171
0.000388636
0.000174934
9.26139e-05
0.000100946
0.00788359
0.00755236
0.00728082
0.0070857
0.00694733
0.0068508
0.00678448
0.00673653
0.00671039
0.00669708
0.0066775
0.00667539
0.00666999
0.0066706
0.0066705
0.00667249
0.00667445
0.00667717
0.00667999
0.00668314
0.00668645
0.00668997
0.00669368
0.00669756
0.00670167
0.00670604
0.00827376
0.00875765
0.00936224
0.0101228
0.0112406
0.0131684
0.0152557
0.0170638
0.0184499
0.0194284
0.0200374
0.0202899
0.0201698
0.0196561
0.0188286
0.0178171
0.0166735
0.0154491
0.0141819
0.0128808
0.0114644
0.00996615
0.00848353
0.00700676
0.00557127
0.00424335
0.00304128
0.0020342
0.00127131
0.000741031
0.000388715
0.000174298
9.26766e-05
0.00010123
0.00829792
0.00786433
0.00750695
0.00724756
0.00706211
0.00693096
0.00683959
0.00677682
0.00673188
0.00670779
0.00669593
0.00667593
0.00667496
0.0066698
0.00667052
0.00667061
0.00667258
0.0066746
0.00667729
0.00668012
0.00668325
0.00668655
0.00669005
0.00669371
0.00669756
0.00670167
0.00670604
0.00880013
0.00943362
0.0102569
0.0115036
0.0136362
0.0158461
0.0176994
0.0191046
0.0201201
0.0208142
0.0212198
0.0213316
0.0211166
0.0205372
0.0196476
0.0185668
0.0173408
0.0160192
0.0146453
0.0132383
0.0117254
0.0101533
0.00861971
0.00710701
0.00564258
0.00429373
0.00307098
0.00205001
0.00128005
0.00074422
0.000388744
0.000173667
9.27895e-05
0.00010154
0.00883785
0.00827371
0.00780294
0.00746139
0.00721487
0.00703905
0.00691496
0.0068286
0.00676919
0.00672741
0.00670512
0.00669384
0.00667513
0.00667424
0.00666979
0.0066704
0.00667076
0.00667266
0.00667476
0.00667741
0.00668025
0.00668336
0.00668665
0.00669009
0.00669371
0.00669756
0.00670167
0.00670604
0.00950109
0.0103867
0.0117528
0.0140579
0.0163394
0.0181905
0.01957
0.0205743
0.0212972
0.0217903
0.0220621
0.0220885
0.0218245
0.0212212
0.0203102
0.0191983
0.0179242
0.0165344
0.0150755
0.0135765
0.0119748
0.0103321
0.00874935
0.00720194
0.00571022
0.00433489
0.00309612
0.00206732
0.00128966
0.000747716
0.000388889
0.00017296
9.28761e-05
0.000101875
0.00956238
0.00880801
0.00819075
0.00774125
0.00741658
0.00718289
0.00701653
0.00689933
0.00681787
0.00676173
0.0067231
0.00670251
0.00669113
0.00667492
0.00667338
0.00666988
0.00667027
0.00667091
0.00667274
0.00667491
0.00667753
0.00668038
0.00668346
0.0066867
0.00669009
0.00669371
0.00669756
0.00670167
0.00670604
0.0105105
0.0119865
0.0144308
0.0167431
0.0185591
0.0198831
0.0208423
0.0215513
0.0220778
0.0224436
0.0226355
0.0226167
0.0223361
0.0217384
0.0208357
0.0197219
0.0184276
0.0169944
0.0154707
0.0138937
0.0122115
0.0105023
0.00887249
0.00729169
0.00576578
0.0043697
0.00312358
0.0020863
0.00130023
0.000751634
0.000388955
0.000172268
9.30343e-05
0.00010224
0.0106217
0.00952501
0.00869548
0.00810757
0.00768049
0.00737269
0.00715162
0.00699453
0.0068841
0.00680752
0.00675435
0.00671915
0.00670017
0.00668786
0.00667504
0.00667251
0.00667001
0.00667015
0.00667106
0.00667283
0.00667506
0.00667765
0.0066805
0.00668351
0.0066867
0.00669009
0.00669371
0.00669756
0.00670167
0.00670603
0.0122056
0.0147542
0.0170689
0.0188288
0.020079
0.0209712
0.021636
0.0221545
0.0225615
0.0228539
0.0230032
0.0229664
0.0226913
0.0221191
0.0212453
0.0201508
0.0188577
0.0174016
0.0158307
0.014189
0.0124351
0.0106638
0.00898917
0.00736525
0.00581294
0.00440771
0.00315359
0.00210709
0.00131188
0.000755923
0.000389189
0.000171487
9.31555e-05
0.000102634
0.0105795
0.0124002
0.00936156
0.00858428
0.00802547
0.00762092
0.00732973
0.00712106
0.0069731
0.00686934
0.00679772
0.00674734
0.0067155
0.00669868
0.00668459
0.00667525
0.00667171
0.00667012
0.00667008
0.00667119
0.00667293
0.0066752
0.00667776
0.00668057
0.00668351
0.0066867
0.00669009
0.00669371
0.00669756
0.00670165
0.00670602
0.0150296
0.0173294
0.019021
0.0201876
0.021
0.0216004
0.022081
0.022488
0.0228292
0.023084
0.0232153
0.0231788
0.0229238
0.0223902
0.021559
0.0204987
0.0192225
0.0177597
0.0161566
0.0144624
0.0126453
0.0108166
0.00908492
0.00742761
0.0058646
0.00444923
0.0031864
0.00212993
0.00132469
0.000760721
0.000389307
0.000170729
9.33755e-05
0.000103062
0.0103298
0.0123597
0.0152545
0.00920455
0.00847499
0.0079448
0.00756254
0.0072877
0.00709125
0.00695228
0.00685513
0.00678832
0.00674074
0.00671217
0.0066975
0.0066816
0.00667539
0.00667107
0.00667019
0.00667005
0.00667132
0.00667303
0.00667533
0.00667782
0.00668057
0.0066835
0.0066867
0.00669009
0.00669371
0.00669753
0.00670162
0.00670601
0.0175361
0.0191539
0.020233
0.020959
0.0214825
0.0219042
0.0222803
0.0226296
0.0229405
0.0231809
0.0233102
0.0232861
0.0230612
0.0225746
0.0217947
0.0207784
0.0195304
0.0180732
0.0164502
0.0147143
0.012842
0.0109415
0.00916615
0.00749584
0.00592123
0.00449463
0.00322231
0.002155
0.00133888
0.00076605
0.00038966
0.000169874
9.35484e-05
0.000103521
0.0100844
0.0120037
0.0151876
0.0176905
0.0090549
0.00836726
0.00786567
0.00750537
0.00724667
0.00706226
0.00693214
0.00684144
0.00677928
0.00673461
0.00670925
0.00669641
0.00667908
0.00667534
0.0066706
0.00667021
0.00667006
0.00667143
0.00667315
0.0066754
0.00667781
0.00668057
0.0066835
0.00668669
0.00669009
0.00669367
0.00669749
0.00670159
0.006706
0.0192418
0.0202336
0.020871
0.0213107
0.0216596
0.0219819
0.0223072
0.0226343
0.0229375
0.0231781
0.0233161
0.0233134
0.0231256
0.0226913
0.0219678
0.0210014
0.0197892
0.0183467
0.016714
0.0149455
0.0130013
0.0110473
0.00925506
0.00757054
0.00598335
0.00454434
0.00326164
0.00218257
0.00135449
0.000772028
0.00038986
0.000169046
9.38521e-05
0.00010402
0.00985418
0.0116183
0.0148306
0.0175902
0.0192869
0.00891032
0.00826106
0.00778818
0.00744948
0.00720672
0.00703415
0.00691269
0.00682833
0.00677074
0.00672918
0.00670658
0.00669528
0.00667732
0.00667506
0.00667031
0.00667018
0.00667011
0.00667153
0.0066732
0.00667539
0.0066778
0.00668056
0.0066835
0.00668669
0.00669005
0.00669361
0.00669743
0.00670157
0.00670598
0.0202031
0.0207531
0.0211061
0.0213736
0.0216257
0.0219018
0.022212
0.0225397
0.0228493
0.0230997
0.0232544
0.0232798
0.0231343
0.0227555
0.0220909
0.0211778
0.0200061
0.018585
0.0169502
0.0151291
0.0131351
0.0111628
0.00935243
0.00765242
0.00605156
0.0045988
0.00330477
0.00221288
0.00137185
0.000778545
0.000390356
0.00016812
9.41054e-05
0.00010455
0.00963869
0.0112387
0.0143862
0.0173549
0.0191331
0.0201413
0.00876911
0.00815662
0.00771246
0.00739499
0.00716795
0.00700698
0.00689408
0.00681608
0.00676282
0.00672452
0.00670403
0.00669365
0.0066763
0.00667456
0.00667017
0.00667011
0.0066702
0.00667156
0.0066732
0.00667539
0.0066778
0.00668056
0.00668351
0.00668664
0.00668997
0.00669354
0.00669738
0.00670154
0.00670597
0.0206171
0.0208839
0.0210654
0.0212363
0.021444
0.02171
0.0220289
0.0223715
0.0226961
0.0229631
0.0231409
0.0232004
0.0231012
0.0227796
0.0221747
0.021316
0.0201876
0.0187923
0.0171333
0.0152815
0.0132799
0.0112887
0.0094591
0.00774222
0.00612651
0.00465856
0.00335209
0.00224631
0.00139092
0.000786042
0.00039069
0.000167216
9.45224e-05
0.000105126
0.00943487
0.010878
0.0138951
0.0170335
0.0189714
0.0199322
0.0204586
0.00863066
0.00805424
0.00763868
0.00734205
0.00713046
0.00698098
0.00687677
0.00680487
0.0067554
0.00672036
0.00670165
0.00669143
0.00667582
0.00667393
0.00667014
0.00667002
0.00667026
0.00667153
0.00667319
0.00667539
0.0066778
0.00668056
0.00668345
0.00668654
0.00668988
0.00669347
0.00669733
0.00670151
0.00670595
0.0206546
0.0207494
0.0208323
0.0209576
0.0211571
0.0214378
0.0217806
0.0221464
0.0224915
0.0227807
0.022988
0.0230869
0.0230372
0.0227733
0.0222276
0.0214232
0.0203391
0.0189481
0.0172832
0.015444
0.0134363
0.011426
0.00957597
0.00784078
0.00620893
0.00472418
0.00340407
0.00228309
0.00141225
0.000794097
0.000391345
0.000166223
9.49043e-05
0.000105727
0.00924025
0.0105403
0.0133789
0.0166506
0.0187392
0.0198039
0.0201939
0.0204079
0.00849504
0.00795426
0.00756703
0.0072908
0.00709459
0.00695682
0.00686098
0.00679463
0.00674855
0.00671673
0.00669964
0.00668877
0.00667569
0.00667323
0.0066702
0.0066699
0.00667029
0.00667151
0.00667319
0.00667539
0.0066778
0.00668049
0.00668335
0.00668644
0.00668979
0.0066934
0.00669727
0.00670148
0.00670594
0.0204349
0.0204274
0.0204609
0.0205766
0.0207939
0.0211064
0.0214818
0.0218754
0.0222452
0.0225621
0.0228052
0.0229486
0.0229507
0.0227445
0.0222565
0.0215053
0.0204478
0.0190736
0.0174403
0.0156167
0.0136048
0.0115756
0.00970401
0.00794904
0.00629965
0.00479635
0.00346123
0.00232375
0.00143568
0.000803404
0.000391892
0.000165196
9.54706e-05
0.000106496
0.0090532
0.0102269
0.0128487
0.0162184
0.0184631
0.0196181
0.0200684
0.0200872
0.0201058
0.00836258
0.00785705
0.00749773
0.00724176
0.00706129
0.00693483
0.00684661
0.00678541
0.00674225
0.00671356
0.00669829
0.00668607
0.00667573
0.00667255
0.00667034
0.00666977
0.0066703
0.0066715
0.00667318
0.00667538
0.00667774
0.00668036
0.00668324
0.00668633
0.0066897
0.00669333
0.00669721
0.00670145
0.00670592
0.0200306
0.0199681
0.0199875
0.0201206
0.0203751
0.0207292
0.0211416
0.0215653
0.0219639
0.022315
0.0226004
0.022793
0.0228487
0.0226992
0.0222671
0.0215575
0.0205334
0.0192023
0.017604
0.0157996
0.013786
0.0117382
0.00984425
0.008068
0.00639958
0.00487581
0.00352418
0.00236854
0.00146192
0.000813514
0.000392708
0.000164107
9.61662e-05
0.000107396
0.00887305
0.00993737
0.0123127
0.0157381
0.0181555
0.0194038
0.019894
0.0199449
0.0197282
0.0196279
0.00823353
0.00776304
0.00743142
0.00719625
0.00703101
0.00691483
0.00683358
0.00677717
0.00673658
0.00671071
0.00669717
0.00668357
0.00667586
0.00667198
0.00667049
0.0066697
0.0066703
0.00667151
0.00667317
0.00667531
0.00667762
0.00668023
0.00668312
0.00668623
0.00668961
0.00669326
0.00669715
0.00670142
0.0067059
0.0194884
0.019405
0.0194379
0.0196105
0.0199133
0.020314
0.0207645
0.0212202
0.0216529
0.0220458
0.0223803
0.0226259
0.0227362
0.0226422
0.0222621
0.0215963
0.0206181
0.0193333
0.0177738
0.0159923
0.0139802
0.0119148
0.00999774
0.00819875
0.00650972
0.00496341
0.00359355
0.00241819
0.00149086
0.000825016
0.000393591