/*--------------------------------*- C++ -*----------------------------------*\
  =========                 |
  \\      /  F ield         | OpenFOAM: The Open Source CFD Toolbox
   \\    /   O peration     | Website:  https://openfoam.org
    \\  /    A nd           | Version:  8
     \\/     M anipulation  |
\*---------------------------------------------------------------------------*/
FoamFile
{
    version     2.0;
    format      ascii;
    class       surfaceScalarField;
    location    "0.33";
    object      phi;
}
// * * * * * * * * * * * * * * * * * * * * * * * * * * * * * * * * * * * * * //

dimensions      [0 3 -1 0 0 0 0];

internalField   nonuniform List<scalar> 
31053
(
6.27859e-07
1.27521e-05
8.49914e-07
1.51579e-05
3.76278e-07
1.23759e-05
9.328e-07
1.75571e-05
5.88877e-07
1.49453e-05
2.69391e-07
1.21065e-05
9.56666e-07
2.02161e-05
7.07154e-07
1.74388e-05
4.64372e-07
1.47504e-05
2.15701e-07
1.18908e-05
9.47926e-07
2.32487e-05
7.6681e-07
2.01565e-05
5.89686e-07
1.73135e-05
3.9552e-07
1.45705e-05
1.72077e-07
1.17187e-05
9.18283e-07
2.66896e-05
7.92046e-07
2.32235e-05
6.64655e-07
2.00815e-05
5.22709e-07
1.71863e-05
3.32354e-07
1.44103e-05
1.37403e-07
1.15813e-05
8.7325e-07
3.0665e-05
7.95059e-07
2.66866e-05
7.06601e-07
2.31816e-05
6.03646e-07
2.00006e-05
4.54201e-07
1.70645e-05
2.77358e-07
1.42703e-05
1.1023e-07
1.14711e-05
8.16225e-07
3.5197e-05
7.82747e-07
3.06773e-05
7.26379e-07
2.66669e-05
6.51746e-07
2.31335e-05
5.34883e-07
1.99199e-05
3.89629e-07
1.69522e-05
2.30211e-07
1.41503e-05
8.78538e-08
1.13832e-05
7.50057e-07
4.03862e-05
7.58932e-07
3.52208e-05
7.30283e-07
3.06734e-05
6.77017e-07
2.66416e-05
5.83402e-07
2.30849e-05
4.66103e-07
1.98434e-05
3.30626e-07
1.68518e-05
1.88298e-07
1.40499e-05
6.83537e-08
1.13149e-05
6.7647e-07
4.63536e-05
7.25558e-07
4.04195e-05
7.21558e-07
3.52296e-05
6.85401e-07
3.06651e-05
6.08756e-07
2.66162e-05
5.11636e-07
2.30394e-05
4.0023e-07
1.97738e-05
2.75076e-07
1.6765e-05
1.49696e-07
1.39685e-05
5.05676e-08
1.12643e-05
5.97158e-07
5.32193e-05
6.84672e-07
4.63945e-05
7.01433e-07
4.04397e-05
6.80392e-07
3.52346e-05
6.16897e-07
3.06569e-05
5.33843e-07
2.6594e-05
4.40355e-07
2.29993e-05
3.35489e-07
1.97134e-05
2.21418e-07
1.66933e-05
1.13114e-07
1.3906e-05
3.37188e-08
1.12306e-05
5.14026e-07
6.10631e-05
6.37918e-07
5.32661e-05
6.71194e-07
4.64247e-05
6.64317e-07
4.04557e-05
6.11318e-07
3.52402e-05
5.38479e-07
3.06523e-05
4.57062e-07
2.65773e-05
3.6799e-07
2.29668e-05
2.70541e-07
1.96643e-05
1.68575e-07
1.66378e-05
7.75942e-08
1.38621e-05
1.72833e-08
1.12133e-05
4.29515e-07
7.00665e-05
5.86796e-07
6.11143e-05
6.31919e-07
5.33053e-05
6.37828e-07
4.64512e-05
5.9411e-07
4.0473e-05
5.28999e-07
3.52496e-05
4.5569e-07
3.06537e-05
3.76997e-07
2.65683e-05
2.93269e-07
2.29441e-05
2.04424e-07
1.96284e-05
1.15714e-07
1.65997e-05
4.24199e-08
1.3837e-05
1.08711e-09
1.12122e-05
3.47232e-07
8.04143e-05
5.32335e-07
7.0121e-05
5.84805e-07
6.11614e-05
6.01268e-07
5.33419e-05
5.66253e-07
4.64791e-05
5.07317e-07
4.04946e-05
4.39577e-07
3.52657e-05
3.67269e-07
3.06634e-05
2.92411e-07
2.65692e-05
2.15253e-07
2.29332e-05
1.36408e-07
1.96077e-05
6.21682e-08
1.658e-05
7.19654e-09
1.38309e-05
-1.51287e-08
1.12273e-05
2.84011e-07
7.62532e-05
4.74572e-07
8.0472e-05
5.31204e-07
7.01746e-05
5.55013e-07
6.12076e-05
5.28082e-07
5.33801e-05
4.74354e-07
4.6512e-05
4.10529e-07
4.05237e-05
3.41966e-07
3.5291e-05
2.72034e-07
3.06838e-05
2.02354e-07
2.65821e-05
1.33208e-07
2.29364e-05
6.59012e-08
1.9604e-05
7.60089e-09
1.65796e-05
-2.8305e-08
1.38441e-05
-3.15085e-08
1.12588e-05
2.33171e-07
7.62408e-05
4.22651e-07
7.63051e-05
4.72465e-07
8.05308e-05
4.99676e-07
7.02299e-05
4.79748e-07
6.1256e-05
4.30424e-07
5.3424e-05
3.69362e-07
4.65532e-05
3.02784e-07
4.05629e-05
2.35032e-07
3.53281e-05
1.69013e-07
3.07171e-05
1.06033e-07
2.66092e-05
4.65317e-08
2.29558e-05
-7.34618e-09
1.96189e-05
-4.8227e-08
1.65995e-05
-6.42434e-08
1.38768e-05
-4.80672e-08
1.13069e-05
1.92597e-07
7.62306e-05
3.73983e-07
7.62895e-05
4.20033e-07
7.63576e-05
4.36357e-07
8.05941e-05
4.21499e-07
7.02882e-05
3.75621e-07
6.13108e-05
3.16307e-07
5.34771e-05
2.50419e-07
4.66056e-05
1.8294e-07
4.0615e-05
1.1778e-07
3.53793e-05
5.73352e-08
3.07658e-05
2.8171e-09
2.6653e-05
-4.49387e-08
2.29934e-05
-8.33766e-08
1.96541e-05
-1.05202e-07
1.66404e-05
-1.00518e-07
1.39292e-05
-6.46245e-08
1.13715e-05
1.60064e-07
7.62245e-05
3.28798e-07
7.62758e-05
3.70921e-07
7.63386e-05
3.78723e-07
7.64152e-05
3.53981e-07
8.06616e-05
3.10094e-07
7.03537e-05
2.51389e-07
6.13757e-05
1.84997e-07
5.35425e-05
1.16304e-07
4.66722e-05
4.99637e-08
4.06828e-05
-1.07545e-08
3.54474e-05
-6.36511e-08
3.08323e-05
-1.07414e-07
2.67154e-05
-1.41124e-07
2.30511e-05
-1.61895e-07
1.97108e-05
-1.63066e-07
1.6703e-05
-1.36853e-07
1.40015e-05
-8.10507e-08
1.14526e-05
1.33746e-07
7.62163e-05
2.87377e-07
7.6266e-05
3.25154e-07
7.63215e-05
3.2416e-07
7.63932e-05
2.91454e-07
7.64777e-05
2.34405e-07
8.07373e-05
1.74679e-07
7.04304e-05
1.06485e-07
6.14542e-05
3.51237e-08
5.36237e-05
-3.40803e-08
4.67562e-05
-9.72108e-08
4.07692e-05
-1.51252e-07
3.5535e-05
-1.94088e-07
3.09189e-05
-2.24487e-07
2.67988e-05
-2.415e-07
2.31307e-05
-2.42327e-07
1.97901e-05
-2.21291e-07
1.67874e-05
-1.72886e-07
1.40933e-05
-9.7089e-08
1.15497e-05
1.12285e-07
7.62115e-05
2.49774e-07
7.62539e-05
2.82743e-07
7.63084e-05
2.73051e-07
7.63726e-05
2.31636e-07
7.6453e-05
1.64347e-07
7.65478e-05
8.67455e-08
8.08252e-05
1.49306e-08
7.0522e-05
-6.07064e-08
6.155e-05
-1.3452e-07
5.37241e-05
-2.01935e-07
4.6861e-05
-2.59323e-07
4.08773e-05
-3.03872e-07
3.56448e-05
-3.33629e-07
3.10281e-05
-3.47655e-07
2.69049e-05
-3.45192e-07
2.32336e-05
-3.23795e-07
1.98926e-05
-2.79222e-07
1.68938e-05
-2.08134e-07
1.42044e-05
-1.1255e-07
1.16622e-05
9.46789e-08
7.62076e-05
2.15848e-07
7.62454e-05
2.43656e-07
7.6293e-05
2.25621e-07
7.63558e-05
1.75276e-07
7.6429e-05
9.74171e-08
7.65199e-05
5.8066e-09
7.66287e-05
-8.9103e-08
8.09293e-05
-1.71138e-07
7.06324e-05
-2.51544e-07
6.1667e-05
-3.253e-07
5.38475e-05
-3.88056e-07
4.69897e-05
-4.36515e-07
4.10099e-05
-4.68079e-07
3.57792e-05
-4.81353e-07
3.11618e-05
-4.75747e-07
2.70355e-05
-4.50918e-07
2.33607e-05
-4.05266e-07
2.00186e-05
-3.36057e-07
1.70217e-05
-2.42098e-07
1.43339e-05
-1.27114e-07
1.17893e-05
8.1297e-08
6.95954e-05
1.85385e-07
7.62381e-05
2.07826e-07
7.62812e-05
1.81988e-07
7.63366e-05
1.22837e-07
7.64082e-05
3.45461e-08
7.64919e-05
-7.11889e-08
7.65969e-05
-1.84243e-07
7.67239e-05
-2.95425e-07
8.10536e-05
-3.85091e-07
7.07659e-05
-4.67606e-07
6.18093e-05
-5.38079e-07
5.39975e-05
-5.9258e-07
4.71458e-05
-6.28078e-07
4.11699e-05
-6.42779e-07
3.59406e-05
-6.35775e-07
3.13218e-05
-6.0707e-07
2.71917e-05
-5.57222e-07
2.35127e-05
-4.85522e-07
2.01681e-05
-3.90935e-07
1.71705e-05
-2.74172e-07
1.4481e-05
-1.40582e-07
1.19299e-05
7.10512e-08
6.25542e-05
1.60499e-07
6.96203e-05
1.75152e-07
7.62707e-05
1.42177e-07
7.6321e-05
7.46221e-08
7.63849e-05
-2.3646e-08
7.64664e-05
-1.43077e-07
7.65638e-05
-2.74205e-07
7.66869e-05
-4.08326e-07
7.68368e-05
-5.34253e-07
8.12027e-05
-6.28794e-07
7.09271e-05
-7.09841e-07
6.19811e-05
-7.73008e-07
5.41779e-05
-8.14621e-07
4.73323e-05
-8.32724e-07
4.13599e-05
-8.26148e-07
3.6131e-05
-7.94775e-07
3.15095e-05
-7.39727e-07
2.73742e-05
-6.62399e-07
2.36896e-05
-5.63265e-07
2.03404e-05
-4.42882e-07
1.73392e-05
-3.03856e-07
1.46442e-05
-1.52569e-07
1.20825e-05
6.30422e-08
5.6226e-05
1.40409e-07
6.25743e-05
1.47864e-07
6.96476e-05
1.06158e-07
7.63068e-05
3.08124e-08
7.63648e-05
-7.67343e-08
7.64379e-05
-2.09063e-07
7.65324e-05
-3.57685e-07
7.66472e-05
-5.14499e-07
7.67931e-05
-6.68934e-07
7.69715e-05
-8.07739e-07
8.13817e-05
-9.03301e-07
7.11206e-05
-9.78441e-07
6.21865e-05
-1.02902e-06
5.43923e-05
-1.05269e-06
4.75523e-05
-1.04827e-06
4.1582e-05
-1.01561e-06
3.63518e-05
-9.55986e-07
3.17258e-05
-8.71481e-07
2.75832e-05
-7.64653e-07
2.38909e-05
-6.37073e-07
2.05346e-05
-4.91042e-07
1.75264e-05
-3.30287e-07
1.48219e-05
-1.62473e-07
1.2245e-05
5.66708e-08
5.05384e-05
1.24076e-07
5.62423e-05
1.25343e-07
6.25969e-05
7.65087e-08
6.96772e-05
-8.49015e-09
7.63461e-05
-1.24431e-07
7.64125e-05
-2.6859e-07
7.64975e-05
-4.33701e-07
7.66084e-05
-6.12427e-07
7.67452e-05
-7.94932e-07
7.69191e-05
-9.68536e-07
7.71323e-05
-1.11711e-06
8.15955e-05
-1.20889e-06
7.1351e-05
-1.27217e-06
6.24297e-05
-1.30442e-06
5.46441e-05
-1.30421e-06
4.78082e-05
-1.27164e-06
4.1838e-05
-1.2083e-06
3.66042e-05
-1.11662e-06
3.19709e-05
-1.00001e-06
2.78186e-05
-8.6205e-07
2.41159e-05
-7.05666e-07
2.07492e-05
-5.3409e-07
1.77302e-05
-3.52738e-07
1.50122e-05
-1.68098e-07
1.24131e-05
5.15213e-08
4.54251e-05
1.1072e-07
5.05517e-05
1.06704e-07
5.6261e-05
5.24519e-08
6.26209e-05
-4.03799e-08
6.97091e-05
-1.66545e-07
7.63882e-05
-3.21273e-07
7.64652e-05
-5.01522e-07
7.65653e-05
-7.00919e-07
7.66969e-05
-9.10515e-07
7.68607e-05
-1.11835e-06
7.70689e-05
-1.30856e-06
7.73237e-05
-1.46278e-06
8.18494e-05
-1.54418e-06
7.1623e-05
-1.58912e-06
6.27144e-05
-1.59622e-06
5.49361e-05
-1.56557e-06
4.81021e-05
-1.49945e-06
4.21292e-05
-1.40084e-06
3.68884e-05
-1.27379e-06
3.22447e-05
-1.12281e-06
2.80794e-05
-9.52809e-07
2.43631e-05
-7.67271e-07
2.09824e-05
-5.7114e-07
1.79486e-05
-3.67045e-07
1.52112e-05
-1.36411e-07
1.25495e-05
4.73031e-08
4.08302e-05
9.97396e-08
4.54361e-05
9.12703e-08
5.05672e-05
3.28836e-08
5.62805e-05
-6.57752e-08
6.26463e-05
-2.00031e-07
6.97426e-05
-3.66846e-07
7.64338e-05
-5.60624e-07
7.65243e-05
-7.79055e-07
7.66434e-05
-1.01427e-06
7.68007e-05
-1.25519e-06
7.69976e-05
-1.4864e-06
7.72467e-05
-1.6896e-06
7.75505e-05
-1.84328e-06
8.21485e-05
-1.90707e-06
7.1941e-05
-1.9259e-06
6.30441e-05
-1.90025e-06
5.52707e-05
-1.83282e-06
4.84355e-05
-1.72767e-06
4.2456e-05
-1.58972e-06
3.72043e-05
-1.42435e-06
3.25462e-05
-1.23754e-06
2.83641e-05
-1.03471e-06
2.46305e-05
-8.20523e-07
2.12318e-05
-5.9681e-07
1.81784e-05
-3.59859e-07
1.54346e-05
-8.71392e-08
1.26366e-05
4.38103e-08
3.66995e-05
9.06476e-08
4.08393e-05
7.84828e-08
4.54489e-05
1.68736e-08
5.05832e-05
-8.59844e-08
5.63008e-05
-2.26043e-07
6.26723e-05
-4.02115e-07
6.97778e-05
-6.10636e-07
7.64838e-05
-8.46151e-07
7.65914e-05
-1.10506e-06
7.67342e-05
-1.37739e-06
7.69229e-05
-1.64836e-06
7.71595e-05
-1.89993e-06
7.7457e-05
-2.11017e-06
7.78174e-05
-2.25637e-06
8.24978e-05
-2.29379e-06
7.23089e-05
-2.27777e-06
6.34216e-05
-2.21196e-06
5.56499e-05
-2.10122e-06
4.8809e-05
-1.95208e-06
4.28184e-05
-1.77109e-06
3.7551e-05
-1.56539e-06
3.28741e-05
-1.34153e-06
2.86709e-05
-1.10582e-06
2.49158e-05
-8.60371e-07
2.14953e-05
-6.05612e-07
1.84241e-05
-3.33413e-07
1.56809e-05
-6.3472e-08
1.27001e-05
4.08912e-08
3.29889e-05
8.30638e-08
3.67071e-05
6.78396e-08
4.085e-05
3.69086e-09
4.54621e-05
-1.02066e-07
5.05993e-05
-2.46121e-07
5.63208e-05
-4.2858e-07
6.26988e-05
-6.48154e-07
6.98154e-05
-9.01706e-07
7.65393e-05
-1.18202e-06
7.66684e-05
-1.48356e-06
7.68404e-05
-1.79247e-06
7.7067e-05
-2.09114e-06
7.73508e-05
-2.35748e-06
7.77043e-05
-2.568e-06
7.81291e-05
-2.69797e-06
8.2902e-05
-2.699e-06
7.27301e-05
-2.63946e-06
6.38491e-05
-2.52575e-06
5.60744e-05
-2.36578e-06
4.92227e-05
-2.16811e-06
4.32154e-05
-1.94148e-06
3.79271e-05
-1.69377e-06
3.32263e-05
-1.43236e-06
2.89975e-05
-1.16189e-06
2.52173e-05
-8.83489e-07
2.17732e-05
-6.01778e-07
1.86925e-05
-3.08588e-07
1.5926e-05
-5.81098e-08
1.27582e-05
3.84323e-08
2.96505e-05
7.66972e-08
3.29953e-05
5.89236e-08
3.6716e-05
-7.1865e-09
4.08608e-05
-1.14866e-07
4.54749e-05
-2.61514e-07
5.06146e-05
-4.48119e-07
5.63404e-05
-6.75134e-07
6.27258e-05
-9.42062e-07
6.98557e-05
-1.24448e-06
7.66018e-05
-1.57262e-06
7.67574e-05
-1.91705e-06
7.6965e-05
-2.26093e-06
7.72368e-05
-2.5822e-06
7.75755e-05
-2.85685e-06
7.79932e-05
-3.05883e-06
7.84899e-05
-3.16206e-06
8.3365e-05
-3.11669e-06
7.32073e-05
-3.00456e-06
6.43279e-05
-2.8359e-06
5.65445e-05
-2.62119e-06
4.96758e-05
-2.3717e-06
4.36456e-05
-2.09724e-06
3.83306e-05
-1.80665e-06
3.36006e-05
-1.50644e-06
2.9342e-05
-1.20037e-06
2.55342e-05
-8.9459e-07
2.2066e-05
-5.92843e-07
1.89768e-05
-2.94904e-07
1.61628e-05
-6.24902e-08
1.28207e-05
3.63466e-08
2.66501e-05
7.13213e-08
2.96558e-05
5.14096e-08
3.30028e-05
-1.61638e-08
3.6725e-05
-1.25051e-07
4.0871e-05
-2.73221e-07
4.54866e-05
-4.62253e-07
5.06288e-05
-6.93905e-07
5.63591e-05
-9.69737e-07
6.27534e-05
-1.28847e-06
6.98997e-05
-1.64371e-06
7.66729e-05
-2.02075e-06
7.68611e-05
-2.40729e-06
7.71113e-05
-2.78163e-06
7.74362e-05
-3.1195e-06
7.78381e-05
-3.39369e-06
7.83281e-05
-3.57607e-06
7.89039e-05
-3.64202e-06
8.38903e-05
-3.53965e-06
7.37424e-05
-3.36656e-06
6.48586e-05
-3.13628e-06
5.70596e-05
-2.86269e-06
5.01668e-05
-2.55862e-06
4.4107e-05
-2.23512e-06
3.87591e-05
-1.90085e-06
3.3995e-05
-1.56168e-06
2.97033e-05
-1.22508e-06
2.58647e-05
-8.99254e-07
2.23724e-05
-5.86037e-07
1.92679e-05
-2.91508e-07
1.63918e-05
-8.54448e-08
1.29061e-05
3.45665e-08
2.39558e-05
6.6757e-08
2.66546e-05
4.50456e-08
2.96622e-05
-2.35841e-08
3.30102e-05
-1.33153e-07
3.67331e-05
-2.8204e-07
4.08798e-05
-4.722e-07
4.54966e-05
-7.0635e-07
5.06412e-05
-9.87614e-07
5.6377e-05
-1.31718e-06
6.27821e-05
-1.69241e-06
6.99484e-05
-2.10249e-06
7.67546e-05
-2.52853e-06
7.69824e-05
-2.95336e-06
7.72831e-05
-3.35279e-06
7.76695e-05
-3.69866e-06
7.81431e-05
-3.96105e-06
7.8713e-05
-4.11271e-06
7.93746e-05
-4.12986e-06
8.44805e-05
-3.96055e-06
7.43364e-05
-3.71839e-06
6.54407e-05
-3.42134e-06
5.76183e-05
-3.08539e-06
5.06936e-05
-2.72517e-06
4.4597e-05
-2.35212e-06
3.92104e-05
-1.97457e-06
3.44079e-05
-1.60091e-06
3.00792e-05
-1.24117e-06
2.62066e-05
-9.02391e-07
2.26888e-05
-5.83139e-07
1.95595e-05
-3.59982e-07
1.66663e-05
-9.40411e-08
1.30002e-05
3.3039e-08
2.15335e-05
6.28616e-08
2.39597e-05
3.96318e-08
2.66601e-05
-2.97302e-08
2.96683e-05
-1.39598e-07
3.30167e-05
-2.88607e-07
3.67396e-05
-4.78934e-07
4.08866e-05
-7.13978e-07
4.55042e-05
-9.98026e-07
5.06516e-05
-1.33415e-06
5.6394e-05
-1.7227e-06
6.28124e-05
-2.15726e-06
7.00032e-05
-2.62331e-06
7.68494e-05
-3.09537e-06
7.71244e-05
-3.55386e-06
7.74841e-05
-3.97009e-06
7.79409e-05
-4.31257e-06
7.84946e-05
-4.55161e-06
7.91519e-05
-4.66017e-06
7.99049e-05
-4.61731e-06
8.51373e-05
-4.37121e-06
7.49892e-05
-4.0536e-06
6.60729e-05
-3.68541e-06
5.82183e-05
-3.2851e-06
5.12535e-05
-2.86832e-06
4.51133e-05
-2.44654e-06
3.96823e-05
-2.02978e-06
3.48368e-05
-1.6286e-06
3.04666e-05
-1.25258e-06
2.65568e-05
-9.04709e-07
2.30104e-05
-7.17528e-07
1.99171e-05
-3.59632e-07
1.69319e-05
-1.03129e-07
1.31033e-05
3.17222e-08
1.93533e-05
5.95215e-08
2.15369e-05
3.50076e-08
2.39643e-05
-3.48345e-08
2.66652e-05
-1.44723e-07
2.96735e-05
-2.93426e-07
3.30215e-05
-4.83223e-07
3.67439e-05
-7.17984e-07
4.08906e-05
-1.00283e-06
4.5509e-05
-1.34226e-06
5.06597e-05
-1.73892e-06
5.64102e-05
-2.18992e-06
6.28451e-05
-2.68584e-06
7.00657e-05
-3.20594e-06
7.696e-05
-3.72025e-06
7.72908e-05
-4.20463e-06
7.77187e-05
-4.62644e-06
7.82548e-05
-4.95376e-06
7.88968e-05
-5.15631e-06
7.96481e-05
-5.20936e-06
8.0497e-05
-5.09509e-06
8.58612e-05
-4.76426e-06
7.56999e-05
-4.36568e-06
6.67532e-05
-3.92373e-06
5.88569e-05
-3.45857e-06
5.18438e-05
-2.98631e-06
4.5653e-05
-2.5196e-06
4.01721e-05
-2.07006e-06
3.52782e-05
-1.6479e-06
3.08619e-05
-1.25982e-06
2.69119e-05
-1.11724e-06
2.34101e-05
-7.09115e-07
2.02666e-05
-3.59319e-07
1.71881e-05
-1.10222e-07
1.32135e-05
1.73971e-05
3.05843e-08
5.66456e-08
1.93562e-05
3.10437e-08
2.15408e-05
-3.90872e-08
2.39686e-05
-1.48798e-07
2.66692e-05
-2.96893e-07
2.96769e-05
-4.85673e-07
3.30239e-05
-7.19305e-07
3.67453e-05
-1.0035e-06
4.08912e-05
-1.34379e-06
4.55105e-05
-1.74457e-06
5.06654e-05
-2.20574e-06
5.6426e-05
-2.72198e-06
6.28812e-05
-3.27828e-06
7.01381e-05
-3.84981e-06
7.70895e-05
-4.39931e-06
7.74854e-05
-4.89875e-06
7.7991e-05
-5.31439e-06
7.86154e-05
-5.61282e-06
7.93533e-05
-5.76545e-06
8.02042e-05
-5.75008e-06
8.1152e-05
-5.55481e-06
8.66517e-05
-5.1322e-06
7.64664e-05
-4.64913e-06
6.74786e-05
-4.1326e-06
5.95309e-05
-3.60371e-06
5.24612e-05
-3.07958e-06
4.6213e-05
-2.57393e-06
4.0676e-05
-2.09789e-06
3.57282e-05
-1.65942e-06
3.12615e-05
-1.55892e-06
2.73536e-05
-1.10394e-06
2.38049e-05
-6.98092e-07
2.06053e-05
-3.56996e-07
1.74349e-05
-1.14829e-07
1.33283e-05
1.73996e-05
5.41524e-08
2.78119e-05
2.87094e-08
2.7635e-08
1.93596e-05
-4.26423e-08
2.15444e-05
-1.52041e-07
2.39718e-05
-2.99324e-07
2.66717e-05
-4.86756e-07
2.9678e-05
-7.18674e-07
3.30233e-05
-1.00118e-06
3.67429e-05
-1.34053e-06
4.0888e-05
-1.74245e-06
4.55084e-05
-2.20895e-06
5.06686e-05
-2.738e-06
5.64421e-05
-3.31932e-06
6.29223e-05
-3.93448e-06
7.02227e-05
-4.55149e-06
7.72417e-05
-5.12592e-06
7.77126e-05
-5.62892e-06
7.83055e-05
-6.02428e-06
7.90269e-05
-6.27955e-06
7.98674e-05
-6.36801e-06
8.08221e-05
-6.27308e-06
8.18702e-05
-5.98786e-06
8.75074e-05
-5.46865e-06
7.72859e-05
-4.89963e-06
6.82456e-05
-4.30946e-06
6.02367e-05
-3.72029e-06
5.31019e-05
-3.14994e-06
4.6789e-05
-2.61145e-06
4.11896e-05
-2.11399e-06
3.61828e-05
-2.05466e-06
3.17573e-05
-1.5417e-06
2.77913e-05
-1.08377e-06
2.41906e-05
-6.83417e-07
2.09318e-05
-3.51825e-07
1.76719e-05
-1.17021e-07
1.34454e-05
1.74026e-05
2.46992e-08
2.78159e-05
5.01334e-08
2.85518e-05
2.69205e-08
-4.56246e-08
1.93626e-05
-1.54622e-07
2.1547e-05
-3.00962e-07
2.39734e-05
-4.86836e-07
2.66718e-05
-7.16655e-07
2.9676e-05
-9.96758e-07
3.30189e-05
-1.33391e-06
3.67363e-05
-1.73476e-06
4.08803e-05
-2.20296e-06
4.55024e-05
-2.73901e-06
5.06696e-05
-3.33648e-06
5.64592e-05
-3.98228e-06
6.29701e-05
-4.65143e-06
7.03227e-05
-5.30474e-06
7.74205e-05
-5.89311e-06
7.79768e-05
-6.38544e-06
7.86667e-05
-6.74565e-06
7.9493e-05
-6.94234e-06
8.04417e-05
-6.95398e-06
8.1503e-05
-6.76871e-06
8.26511e-05
-6.38679e-06
8.84255e-05
-5.76845e-06
7.81548e-05
-5.11392e-06
6.90501e-05
-4.45332e-06
6.09697e-05
-3.80933e-06
5.37613e-05
-3.19882e-06
4.73764e-05
-2.63299e-06
4.17086e-05
-2.61815e-06
3.67463e-05
-2.03254e-06
3.22481e-05
-1.51302e-06
2.82206e-05
-1.05695e-06
2.45641e-05
-6.64695e-07
2.12446e-05
-3.43787e-07
1.78987e-05
-1.17113e-07
1.35625e-05
1.74051e-05
-4.81381e-08
2.78197e-05
2.08501e-08
2.85557e-05
4.62445e-08
2.93117e-05
2.52146e-08
-1.56675e-07
1.93646e-05
-3.02001e-07
2.1548e-05
-4.86198e-07
2.39728e-05
-7.13684e-07
2.66688e-05
-9.90921e-07
2.96702e-05
-1.32499e-06
3.301e-05
-1.72321e-06
3.67248e-05
-2.19041e-06
4.08678e-05
-2.72909e-06
4.54925e-05
-3.33581e-06
5.0669e-05
-4.00189e-06
5.64788e-05
-4.7083e-06
6.30269e-05
-5.42341e-06
7.04413e-05
-6.10307e-06
7.76305e-05
-6.69132e-06
7.82827e-05
-7.15776e-06
7.90788e-05
-7.46642e-06
8.00171e-05
-7.59048e-06
8.10782e-05
-7.51272e-06
8.2247e-05
-7.22849e-06
8.34928e-05
-6.74537e-06
8.94025e-05
-6.02745e-06
7.90683e-05
-5.29025e-06
6.9887e-05
-4.56453e-06
6.17249e-05
-3.87176e-06
5.44342e-05
-3.22705e-06
4.79704e-05
-3.26181e-06
4.23522e-05
-2.59016e-06
3.73039e-05
-1.99438e-06
3.27295e-05
-1.47415e-06
2.86378e-05
-1.02398e-06
2.49234e-05
-6.42249e-07
2.15431e-05
-3.33228e-07
1.81148e-05
-1.15482e-07
1.3678e-05
1.74067e-05
-1.58311e-07
2.78217e-05
-5.00849e-08
2.85593e-05
1.72481e-08
2.93154e-05
4.25042e-08
3.00896e-05
2.35908e-08
-3.02589e-07
1.93652e-05
-4.85059e-07
2.15469e-05
-7.10091e-07
2.39692e-05
-9.84188e-07
2.66621e-05
-1.31461e-06
2.96598e-05
-1.70911e-06
3.29959e-05
-2.17339e-06
3.67077e-05
-2.71143e-06
4.08501e-05
-3.32216e-06
4.54788e-05
-4.0004e-06
5.06675e-05
-4.73212e-06
5.65026e-05
-5.49218e-06
6.30957e-05
-6.24444e-06
7.05827e-05
-6.93726e-06
7.78764e-05
-7.51011e-06
7.8635e-05
-7.93352e-06
7.95459e-05
-8.17534e-06
8.06019e-05
-8.21246e-06
8.1778e-05
-8.03475e-06
8.30533e-05
-7.64517e-06
8.43926e-05
-7.05842e-06
9.04334e-05
-6.24306e-06
8.00211e-05
-5.42828e-06
7.07508e-05
-4.64354e-06
6.24967e-05
-3.90846e-06
5.51156e-05
-3.99931e-06
4.87079e-05
-3.22741e-06
4.29895e-05
-2.5412e-06
3.78507e-05
-1.94237e-06
3.31977e-05
-1.42649e-06
2.90403e-05
-9.85838e-07
2.5267e-05
-6.1673e-07
2.18266e-05
-3.20635e-07
1.83199e-05
-1.12509e-07
1.37905e-05
1.7407e-05
-3.02843e-07
2.78203e-05
-1.56964e-07
2.85609e-05
-5.17328e-08
2.93188e-05
1.38937e-08
3.00932e-05
3.89162e-08
3.08895e-05
2.20481e-08
-4.83584e-07
1.93638e-05
-7.06126e-07
2.15429e-05
-9.76949e-07
2.3962e-05
-1.30339e-06
2.66508e-05
-1.69347e-06
2.96441e-05
-2.1535e-06
3.2976e-05
-2.68853e-06
3.66848e-05
-3.29934e-06
4.08273e-05
-3.98353e-06
4.54619e-05
-4.73111e-06
5.06665e-05
-5.52248e-06
5.65329e-05
-6.32851e-06
6.31798e-05
-7.10578e-06
7.07512e-05
-7.79715e-06
7.81635e-05
-8.33703e-06
7.90385e-05
-8.70113e-06
8.00717e-05
-8.86019e-06
8.12496e-05
-8.79788e-06
8.25411e-05
-8.5118e-06
8.39199e-05
-8.01248e-06
8.53466e-05
-7.32229e-06
9.15127e-05
-6.41417e-06
8.1007e-05
-5.52798e-06
7.16352e-05
-4.69117e-06
6.32794e-05
-4.84644e-06
5.59627e-05
-3.95832e-06
4.94388e-05
-3.1665e-06
4.36148e-05
-2.47439e-06
3.83827e-05
-1.87871e-06
3.36499e-05
-1.37174e-06
2.94262e-05
-9.43696e-07
2.5594e-05
-5.88915e-07
2.20949e-05
-3.06529e-07
1.8514e-05
-1.0855e-07
1.3899e-05
1.74053e-05
-4.81898e-07
2.78142e-05
-2.96744e-07
2.85592e-05
-1.55192e-07
2.93201e-05
-5.30669e-08
3.00963e-05
1.07943e-08
3.0893e-05
3.54875e-08
3.17095e-05
2.0584e-08
-7.01976e-07
1.93596e-05
-9.69496e-07
2.15354e-05
-1.2918e-06
2.39504e-05
-1.67704e-06
2.66344e-05
-2.13194e-06
2.96226e-05
-2.66232e-06
3.29498e-05
-3.27034e-06
3.66558e-05
-3.95578e-06
4.07995e-05
-4.71192e-06
4.54427e-05
-5.52372e-06
5.06677e-05
-6.36811e-06
5.65725e-05
-7.20909e-06
6.32831e-05
-7.99772e-06
7.09518e-05
-8.67046e-06
7.84969e-05
-9.16036e-06
7.94978e-05
-9.44779e-06
8.06593e-05
-9.50974e-06
8.19615e-05
-9.3375e-06
8.33668e-05
-8.93655e-06
8.48439e-05
-8.32582e-06
8.63502e-05
-7.53504e-06
9.26335e-05
-6.5402e-06
8.20192e-05
-5.59003e-06
7.25341e-05
-5.82133e-06
6.42543e-05
-4.79915e-06
5.68036e-05
-3.8845e-06
5.01568e-05
-3.08318e-06
4.42236e-05
-2.39279e-06
3.88968e-05
-1.80583e-06
3.4084e-05
-1.3117e-06
2.97942e-05
-8.98758e-07
2.59038e-05
-5.59557e-07
2.23479e-05
-2.91412e-07
1.86968e-05
-1.03905e-07
1.40029e-05
1.74011e-05
-6.97778e-07
2.78017e-05
-4.69357e-07
2.85525e-05
-2.90102e-07
2.9318e-05
-1.53026e-07
3.00973e-05
-5.40835e-08
3.08958e-05
7.95201e-09
3.17127e-05
3.2226e-08
3.25534e-05
1.91986e-08
-9.62042e-07
1.93521e-05
-1.28018e-06
2.15238e-05
-1.66038e-06
2.39337e-05
-2.10961e-06
2.66121e-05
-2.63425e-06
2.95945e-05
-3.23745e-06
3.29169e-05
-3.92069e-06
3.66207e-05
-4.67981e-06
4.07674e-05
-5.50356e-06
4.54226e-05
-6.37393e-06
5.06735e-05
-7.26143e-06
5.66249e-05
-8.12474e-06
6.34101e-05
-8.90832e-06
7.11897e-05
-9.54553e-06
7.88821e-05
-9.96691e-06
8.00169e-05
-1.01616e-05
8.13111e-05
-1.01138e-05
8.27378e-05
-9.82296e-06
8.42532e-05
-9.30344e-06
8.58216e-05
-8.58246e-06
8.73976e-05
-7.69545e-06
9.37888e-05
-6.62159e-06
8.30508e-05
-6.94347e-06
7.36562e-05
-5.7687e-06
6.52238e-05
-4.71172e-06
5.76308e-05
-3.783e-06
5.08567e-05
-2.98146e-06
4.48123e-05
-2.29961e-06
3.93906e-05
-1.72615e-06
3.44985e-05
-1.24808e-06
3.01435e-05
-8.52111e-07
2.61964e-05
-5.29357e-07
2.25858e-05
-2.75735e-07
1.88686e-05
-9.88099e-08
1.41017e-05
1.73938e-05
-9.5474e-07
2.77808e-05
-6.76891e-07
2.85392e-05
-4.56069e-07
2.93107e-05
-2.82852e-07
3.00947e-05
-1.5042e-07
3.08965e-05
-5.47833e-08
3.17153e-05
5.36738e-09
3.25565e-05
2.91347e-08
3.34193e-05
1.78855e-08
-1.26877e-06
1.93407e-05
-1.6439e-06
2.15073e-05
-2.0872e-06
2.39113e-05
-2.60541e-06
2.65832e-05
-3.20242e-06
2.95595e-05
-3.88097e-06
3.28772e-05
-4.63895e-06
3.65799e-05
-5.4681e-06
4.0732e-05
-6.35467e-06
4.54033e-05
-7.27473e-06
5.06868e-05
-8.19382e-06
5.6694e-05
-9.064e-06
6.35658e-05
-9.82617e-06
7.14703e-05
-1.0409e-05
7.93242e-05
-1.07442e-05
8.05995e-05
-1.08315e-05
8.20288e-05
-1.06631e-05
8.35779e-05
-1.02476e-05
8.51974e-05
-9.60883e-06
8.68479e-05
-8.78053e-06
8.84827e-05
-7.80358e-06
9.49708e-05
-8.23539e-06
8.43427e-05
-6.88751e-06
7.4775e-05
-5.66731e-06
6.61794e-05
-4.59038e-06
5.84382e-05
-3.65883e-06
5.1534e-05
-2.86541e-06
4.53781e-05
-2.19794e-06
3.98624e-05
-1.64198e-06
3.48923e-05
-1.18241e-06
3.04738e-05
-8.04722e-07
2.64717e-05
-4.98936e-07
2.2809e-05
-2.59837e-07
1.90297e-05
-9.34691e-08
1.41952e-05
1.73828e-05
-1.25775e-06
2.77493e-05
-9.23246e-07
2.85174e-05
-6.55091e-07
2.92967e-05
-4.421e-07
3.0087e-05
-2.751e-07
3.08935e-05
-1.47409e-07
3.17157e-05
-5.5162e-08
3.25588e-05
3.04243e-09
3.34222e-05
2.62245e-08
3.43052e-05
1.66422e-08
-1.62787e-06
1.93247e-05
-2.06517e-06
2.14853e-05
-2.5766e-06
2.38825e-05
-3.16656e-06
2.65474e-05
-3.83871e-06
2.95172e-05
-4.59252e-06
3.28307e-05
-5.42216e-06
3.65339e-05
-6.31733e-06
4.06946e-05
-7.25881e-06
4.53874e-05
-8.21813e-06
5.07111e-05
-9.15436e-06
5.67843e-05
-1.00159e-05
6.37555e-05
-1.0738e-05
7.17993e-05
-1.12481e-05
7.9828e-05
-1.14806e-05
8.12486e-05
-1.14472e-05
8.28129e-05
-1.11498e-05
8.44801e-05
-1.0607e-05
8.61955e-05
-9.85003e-06
8.79174e-05
-8.91956e-06
8.95986e-05
-9.72253e-06
9.64579e-05
-8.18009e-06
8.56353e-05
-6.77264e-06
7.58804e-05
-5.52462e-06
6.71137e-05
-4.44127e-06
5.92206e-05
-3.51705e-06
5.21857e-05
-2.7389e-06
4.5919e-05
-2.09069e-06
4.03111e-05
-1.55528e-06
3.52652e-05
-1.11599e-06
3.07851e-05
-7.57441e-07
2.67302e-05
-4.6874e-07
2.30179e-05
-2.44027e-07
1.91802e-05
-8.80365e-08
1.42832e-05
1.73674e-05
-1.6125e-06
2.77049e-05
-1.21336e-06
2.84848e-05
-8.90627e-07
2.9274e-05
-6.32333e-07
3.00722e-05
-4.27366e-07
3.08852e-05
-2.66772e-07
3.17123e-05
-1.43976e-07
3.25589e-05
-5.52356e-08
3.34243e-05
9.66306e-10
3.4308e-05
2.3499e-08
3.52192e-05
1.54666e-08
-2.04387e-06
1.93034e-05
-2.54839e-06
2.14571e-05
-3.13081e-06
2.38467e-05
-3.79546e-06
2.65041e-05
-4.54299e-06
2.94677e-05
-5.3695e-06
3.27781e-05
-6.26747e-06
3.64841e-05
-7.22162e-06
4.06574e-05
-8.2086e-06
4.53779e-05
-9.19378e-06
5.07506e-05
-1.01325e-05
5.6901e-05
-1.09672e-05
6.39847e-05
-1.16308e-05
7.21821e-05
-1.20505e-05
8.03979e-05
-1.21649e-05
8.19663e-05
-1.2e-05
8.36632e-05
-1.15684e-05
8.54415e-05
-1.08973e-05
8.72428e-05
-1.0026e-05
8.90238e-05
-1.11346e-05
9.10107e-05
-9.67557e-06
9.79534e-05
-8.05406e-06
8.69167e-05
-6.60771e-06
7.69635e-05
-5.34806e-06
6.80205e-05
-4.2706e-06
5.99742e-05
-3.36243e-06
5.28092e-05
-2.60552e-06
4.64338e-05
-1.98034e-06
4.07361e-05
-1.46774e-06
3.5617e-05
-1.04995e-06
3.10776e-05
-7.10852e-07
2.69723e-05
-4.39184e-07
2.32131e-05
-2.28537e-07
1.93207e-05
-8.2623e-08
1.43659e-05
1.7347e-05
-2.02353e-06
2.76447e-05
-1.55227e-06
2.8439e-05
-1.16759e-06
2.92403e-05
-8.56963e-07
3.00486e-05
-6.08685e-07
3.08698e-05
-4.11945e-07
3.17034e-05
-2.57914e-07
3.2555e-05
-1.40134e-07
3.34241e-05
-5.49983e-08
3.43098e-05
-8.61793e-10
3.52217e-05
2.09601e-08
3.61551e-05
1.4354e-08
-2.52119e-06
1.92762e-05
-3.09586e-06
2.14222e-05
-3.75235e-06
2.38036e-05
-4.49221e-06
2.64533e-05
-5.31299e-06
2.94112e-05
-6.20943e-06
3.272e-05
-7.16949e-06
3.6432e-05
-8.17415e-06
4.0623e-05
-9.19428e-06
4.53784e-05
-1.01917e-05
5.08097e-05
-1.11157e-05
5.70494e-05
-1.19053e-05
6.42593e-05
-1.24923e-05
7.26238e-05
-1.28045e-05
8.10376e-05
-1.27874e-05
8.27537e-05
-1.24834e-05
8.45782e-05
-1.19145e-05
8.64587e-05
-1.11169e-05
8.83338e-05
-1.25436e-05
9.04329e-05
-1.11041e-05
9.24392e-05
-9.54368e-06
9.9443e-05
-7.86762e-06
8.81766e-05
-6.40163e-06
7.8017e-05
-5.14513e-06
6.8895e-05
-4.08414e-06
6.06959e-05
-3.19933e-06
5.3403e-05
-2.46832e-06
4.69218e-05
-1.86901e-06
4.11374e-05
-1.38083e-06
3.59478e-05
-9.85063e-07
3.13518e-05
-6.65506e-07
2.71987e-05
-4.10569e-07
2.33951e-05
-2.13517e-07
1.94516e-05
-7.73167e-08
1.44432e-05
1.73211e-05
-2.49526e-06
2.75655e-05
-1.94436e-06
2.8377e-05
-1.49022e-06
2.9193e-05
-1.12024e-06
3.00137e-05
-8.22037e-07
3.08452e-05
-5.84128e-07
3.16873e-05
-3.95865e-07
3.25457e-05
-2.48531e-07
3.34198e-05
-1.35895e-07
3.43093e-05
-5.44646e-08
3.52233e-05
-2.45476e-09
3.61575e-05
1.86107e-08
3.6589e-05
1.33145e-08
-3.0622e-06
1.92426e-05
-3.71022e-06
2.138e-05
-4.44152e-06
2.37529e-05
-5.2548e-06
2.63951e-05
-6.14657e-06
2.93483e-05
-7.10741e-06
3.26579e-05
-8.12194e-06
3.63798e-05
-9.16578e-06
4.05945e-05
-1.02065e-05
4.53931e-05
-1.11997e-05
5.08938e-05
-1.20912e-05
5.72353e-05
-1.28176e-05
6.45846e-05
-1.33099e-05
7.31291e-05
-1.34996e-05
8.17498e-05
-1.33407e-05
8.36109e-05
-1.28918e-05
8.55556e-05
-1.21852e-05
8.75269e-05
-1.39439e-05
8.9734e-05
-1.25399e-05
9.18687e-05
-1.09751e-05
9.38706e-05
-9.33867e-06
0.000100914
-7.63108e-06
8.9406e-05
-6.16337e-06
7.90353e-05
-4.9228e-06
6.97336e-05
-3.88721e-06
6.13838e-05
-3.03149e-06
5.39662e-05
-2.32991e-06
4.73827e-05
-1.75853e-06
4.15151e-05
-1.29551e-06
3.62583e-05
-9.22038e-07
3.16083e-05
-6.21789e-07
2.74099e-05
-3.83073e-07
2.35647e-05
-1.9909e-07
1.95734e-05
-7.21852e-08
1.45154e-05
1.72891e-05
-3.03015e-06
2.74641e-05
-2.39387e-06
2.82961e-05
-1.86344e-06
2.91294e-05
-1.42666e-06
2.99651e-05
-1.07163e-06
3.08093e-05
-7.86144e-07
3.16619e-05
-5.58712e-07
3.25289e-05
-3.79086e-07
3.34099e-05
-2.38632e-07
3.43046e-05
-1.31273e-07
3.52225e-05
-5.36425e-08
3.61588e-05
-3.82425e-09
3.65912e-05
1.64821e-08
3.55529e-05
1.2377e-08
-3.66964e-06
1.9202e-05
-4.39192e-06
2.13304e-05
-5.19655e-06
2.36947e-05
-6.08144e-06
2.633e-05
-7.03927e-06
2.92802e-05
-8.05766e-06
3.25937e-05
-9.11627e-06
3.63302e-05
-1.01877e-05
4.05757e-05
-1.12335e-05
4.54269e-05
-1.22056e-05
5.10083e-05
-1.30466e-05
5.74643e-05
-1.36914e-05
6.49662e-05
-1.40727e-05
7.37022e-05
-1.41273e-05
8.25363e-05
-1.38181e-05
8.45372e-05
-1.32216e-05
8.6592e-05
-1.53276e-05
8.89106e-05
-1.39788e-05
9.11729e-05
-1.24237e-05
9.33173e-05
-1.07603e-05
9.52922e-05
-9.07245e-06
0.000102355
-7.35492e-06
9.05976e-05
-5.90124e-06
8.00137e-05
-4.68751e-06
7.05339e-05
-3.68435e-06
6.20367e-05
-2.8621e-06
5.44984e-05
-2.19255e-06
4.78167e-05
-1.6501e-06
4.18697e-05
-1.21271e-06
3.6549e-05
-8.61382e-07
3.18479e-05
-5.79923e-07
2.76067e-05
-3.56846e-07
2.37224e-05
-1.85349e-07
1.96866e-05
-6.72702e-08
1.45826e-05
1.72504e-05
-3.63099e-06
2.73378e-05
-2.90382e-06
2.81927e-05
-2.2905e-06
2.90463e-05
-1.78035e-06
2.98999e-05
-1.36151e-06
3.07594e-05
-1.0217e-06
3.16249e-05
-7.49191e-07
3.25027e-05
-5.32565e-07
3.33926e-05
-3.61739e-07
3.42943e-05
-2.28273e-07
3.52175e-05
-1.26285e-07
3.61577e-05
-5.25368e-08
3.65923e-05
-4.97737e-09
3.55548e-05
1.46415e-08
3.45448e-05
1.15284e-08
-4.3441e-06
1.91542e-05
-5.13941e-06
2.12733e-05