/*--------------------------------*- C++ -*----------------------------------*\
  =========                 |
  \\      /  F ield         | OpenFOAM: The Open Source CFD Toolbox
   \\    /   O peration     | Website:  https://openfoam.org
    \\  /    A nd           | Version:  8
     \\/     M anipulation  |
\*---------------------------------------------------------------------------*/
FoamFile
{
    version     2.0;
    format      ascii;
    class       volVectorField;
    location    "0.2";
    object      U;
}
// * * * * * * * * * * * * * * * * * * * * * * * * * * * * * * * * * * * * * //

dimensions      [0 1 -1 0 0 0 0];

internalField   nonuniform List<vector> 
15677
(
(-0.0399015 9.66595 0)
(0.0484951 9.92199 0)
(-0.00181361 9.37829 0)
(0.0206523 9.97702 0)
(0.019892 9.78866 0)
(0.00731343 9.14125 0)
(0.0258391 9.99515 0)
(0.0165373 9.92467 0)
(0.0111792 9.65398 0)
(0.00649143 8.96067 0)
(0.0263308 10.0025 0)
(0.0205523 9.97871 0)
(0.0165508 9.85203 0)
(0.0091249 9.53081 0)
(0.00515969 8.81703 0)
(0.0255702 10.0057 0)
(0.0215843 10.003 0)
(0.019406 9.94152 0)
(0.0153647 9.77951 0)
(0.00798038 9.41984 0)
(0.00424046 8.70238 0)
(0.0245087 10.0071 0)
(0.0218659 10.0147 0)
(0.0210021 9.98479 0)
(0.0182523 9.90244 0)
(0.0138545 9.70811 0)
(0.00692507 9.32158 0)
(0.00354486 8.6102 0)
(0.023097 10.0075 0)
(0.0217423 10.0205 0)
(0.0218693 10.0069 0)
(0.0201985 9.96497 0)
(0.0169614 9.86193 0)
(0.0124418 9.64084 0)
(0.00596848 9.23644 0)
(0.0029586 8.53617 0)
(0.021409 10.0074 0)
(0.0211908 10.0233 0)
(0.0221524 10.0184 0)
(0.0212878 9.99809 0)
(0.019053 9.94372 0)
(0.0156077 9.82229 0)
(0.0110789 9.57967 0)
(0.00507689 9.16417 0)
(0.00241875 8.47764 0)
(0.0195158 10.007 0)
(0.0203302 10.0235 0)
(0.0221096 10.0241 0)
(0.0217802 10.0162 0)
(0.0202162 9.98815 0)
(0.0177199 9.92276 0)
(0.0141427 9.78537 0)
(0.0096855 9.52576 0)
(0.00419866 9.10455 0)
(0.00188718 8.43311 0)
(0.0175005 10.0063 0)
(0.0192738 10.0223 0)
(0.0216661 10.0271 0)
(0.0218023 10.0261 0)
(0.0207469 10.0131 0)
(0.0188611 9.97856 0)
(0.016174 9.9036 0)
(0.0125189 9.75242 0)
(0.00820346 9.48011 0)
(0.00328838 9.05741 0)
(0.00133482 8.40163 0)
(0.015399 10.0056 0)
(0.0179645 10.0206 0)
(0.0209334 10.0281 0)
(0.021456 10.0315 0)
(0.0207798 10.0273 0)
(0.0193188 10.0103 0)
(0.0171875 9.97058 0)
(0.0143577 9.88721 0)
(0.0106809 9.7246 0)
(0.00658214 9.4435 0)
(0.00230446 9.02269 0)
(0.00073905 8.38289 0)
(0.0132619 10.0048 0)
(0.0164813 10.0185 0)
(0.0198586 10.0274 0)
(0.020781 10.034 0)
(0.0203991 10.0354 0)
(0.0192403 10.0289 0)
(0.0174614 10.0092 0)
(0.015132 9.96505 0)
(0.0121989 9.87461 0)
(0.00856683 9.70299 0)
(0.00477037 9.41668 0)
(0.00121265 9.00044 0)
(5.64365e-05 8.37669 0)
(0.0111597 10.0041 0)
(0.0148846 10.0162 0)
(0.0185074 10.0258 0)
(0.0197953 10.0345 0)
(0.0196645 10.0396 0)
(0.0187136 10.0396 0)
(0.0171485 10.0319 0)
(0.0151047 10.0103 0)
(0.0126076 9.96284 0)
(0.00961786 9.86679 0)
(0.00611259 9.68864 0)
(0.00272113 9.40031 0)
(-1.52786e-05 8.99082 0)
(-0.000614257 8.38299 0)
(0.00927034 10.0034 0)
(0.0131858 10.014 0)
(0.0169185 10.0235 0)
(0.0184999 10.0334 0)
(0.0185915 10.0412 0)
(0.0177878 10.0456 0)
(0.0163392 10.0453 0)
(0.0144259 10.0371 0)
(0.0121429 10.0146 0)
(0.00951344 9.96485 0)
(0.00653096 9.86475 0)
(0.00325771 9.68252 0)
(0.000396918 9.39501 0)
(-0.00137866 8.99415 0)
(-0.0014026 8.40194 0)
(0.00772487 10.0029 0)
(0.0116225 10.0119 0)
(0.0151316 10.0209 0)
(0.016909 10.0313 0)
(0.0171806 10.0409 0)
(0.0164819 10.0483 0)
(0.0150785 10.053 0)
(0.0131871 10.0531 0)
(0.0109481 10.0453 0)
(0.0084532 10.0228 0)
(0.00574261 9.97198 0)
(0.00285671 9.86949 0)
(-6.21336e-05 9.6856 0)
(-0.00226124 9.40143 0)
(-0.00294158 9.01059 0)
(-0.00229257 8.4338 0)
(0.00641337 10.0024 0)
(0.01023 10.0102 0)
(0.0133925 10.0184 0)
(0.0150525 10.0286 0)
(0.015436 10.0392 0)
(0.0147997 10.0488 0)
(0.0133844 10.0569 0)
(0.011431 10.0624 0)
(0.00911255 10.0638 0)
(0.00656776 10.0573 0)
(0.00390322 10.0358 0)
(0.00118971 9.98516 0)
(-0.00148096 9.88199 0)
(-0.00388363 9.69873 0)
(-0.00526787 9.42011 0)
(-0.00469659 9.04041 0)
(-0.00328057 8.47864 0)
(0.00530895 10.002 0)
(0.00897356 10.0087 0)
(0.0118136 10.0162 0)
(0.0131749 10.0257 0)
(0.0133747 10.0364 0)
(0.0127417 10.0475 0)
(0.0112601 10.058 0)
(0.00917154 10.0674 0)
(0.00667453 10.0747 0)
(0.00394082 10.0781 0)
(0.00112499 10.0739 0)
(-0.00163978 10.0545 0)
(-0.00424788 10.0053 0)
(-0.00655624 9.90317 0)
(-0.00826399 9.72271 0)
(-0.00865062 9.45145 0)
(-0.0066487 9.08367 0)
(-0.00436148 8.53652 0)
(0.00438494 10.0016 0)
(0.00784118 10.0074 0)
(0.0103556 10.0143 0)
(0.0114361 10.0231 0)
(0.011259 10.0333 0)
(0.0103174 10.0448 0)
(0.00870572 10.0571 0)
(0.00640937 10.0691 0)
(0.0036427 10.0805 0)
(0.000603433 10.0904 0)
(-0.00251869 10.0969 0)
(-0.00554284 10.096 0)
(-0.00830442 10.0797 0)
(-0.0106626 10.0333 0)
(-0.0124263 9.93391 0)
(-0.0132329 9.75816 0)
(-0.0124264 9.49576 0)
(-0.00880302 9.14048 0)
(-0.00553381 8.60729 0)
(0.00361091 10.0013 0)
(0.00682129 10.0062 0)
(0.00901289 10.0126 0)
(0.00980346 10.0206 0)
(0.009285 10.0303 0)
(0.00782492 10.0415 0)
(0.00572932 10.0545 0)
(0.00314415 10.0685 0)
(1.32317e-05 10.0828 0)
(-0.0034437 10.0971 0)
(-0.00700779 10.1104 0)
(-0.0104617 10.1209 0)
(-0.0135933 10.1242 0)
(-0.0162081 10.1122 0)
(-0.0181297 10.0699 0)
(-0.0191289 9.97489 0)
(-0.0188038 9.80558 0)
(-0.0165942 9.5532 0)
(-0.0111478 9.21063 0)
(-0.00678471 8.69062 0)
(0.00297811 10.001 0)
(0.00590969 10.0052 0)
(0.0077812 10.011 0)
(0.00828422 10.0184 0)
(0.00742415 10.0274 0)
(0.00549756 10.0381 0)
(0.00268707 10.0509 0)
(-0.000614071 10.0658 0)
(-0.00421537 10.0823 0)
(-0.00821052 10.0997 0)
(-0.0123526 10.1178 0)
(-0.0163918 10.1355 0)
(-0.0200782 10.1509 0)
(-0.0231708 10.1595 0)
(-0.0254465 10.1529 0)
(-0.0267015 10.1159 0)
(-0.0266825 10.0267 0)
(-0.0249723 9.86525 0)
(-0.0211405 9.62373 0)
(-0.0136749 9.29393 0)
(-0.00810731 8.78609 0)
(0.00247743 10.0008 0)
(0.00508684 10.0044 0)
(0.00665802 10.0096 0)
(0.00688208 10.0164 0)
(0.00569348 10.0247 0)
(0.00330678 10.0347 0)
(-0.00014323 10.047 0)
(-0.00442299 10.0618 0)
(-0.00902896 10.0794 0)
(-0.0137005 10.0992 0)
(-0.0185716 10.1206 0)
(-0.0233585 10.1433 0)
(-0.0277753 10.1664 0)
(-0.0315427 10.1877 0)
(-0.034394 10.2026 0)
(-0.0360873 10.2024 0)
(-0.0364021 10.1719 0)
(-0.0350812 10.0898 0)
(-0.0317161 9.93729 0)
(-0.0260367 9.70713 0)
(-0.0163533 9.38975 0)
(-0.00947821 8.89287 0)
(0.00209277 10.0007 0)
(0.00438316 10.0037 0)
(0.00563621 10.0084 0)
(0.00559861 10.0145 0)
(0.00410262 10.0221 0)
(0.00127912 10.0315 0)
(-0.00279517 10.043 0)
(-0.00794627 10.0573 0)
(-0.0138672 10.0748 0)
(-0.0198943 10.0958 0)
(-0.0256715 10.1198 0)
(-0.0313918 10.1462 0)
(-0.0367297 10.1746 0)
(-0.0413669 10.2039 0)
(-0.0449999 10.232 0)
(-0.0473483 10.2542 0)
(-0.048163 10.2614 0)
(-0.0472243 10.2383 0)
(-0.0442926 10.1644 0)
(-0.0389907 10.0216 0)
(-0.0312391 9.80295 0)
(-0.0191626 9.49752 0)
(-0.0108786 9.01024 0)
(0.00179628 10.0006 0)
(0.00381224 10.0032 0)
(0.00475426 10.0074 0)
(0.00443408 10.0129 0)
(0.00265746 10.0198 0)
(-0.000569126 10.0283 0)
(-0.00523262 10.039 0)
(-0.0112281 10.0526 0)
(-0.0183162 10.0695 0)
(-0.0260761 10.0905 0)
(-0.0336268 10.1158 0)
(-0.0405037 10.145 0)
(-0.0469873 10.1772 0)
(-0.0527145 10.2122 0)
(-0.0573418 10.2487 0)
(-0.0605565 10.2846 0)
(-0.0620774 10.3147 0)
(-0.0616673 10.3301 0)
(-0.0591253 10.3154 0)
(-0.0542553 10.2503 0)
(-0.0467311 10.1178 0)
(-0.0366943 9.91058 0)
(-0.0220377 9.61621 0)
(-0.0122434 9.13661 0)
(0.00156355 10.0005 0)
(0.00334738 10.0028 0)
(0.00403181 10.0065 0)
(0.00343407 10.0114 0)
(0.00136208 10.0175 0)
(-0.00222709 10.0253 0)
(-0.00743165 10.0351 0)
(-0.0142222 10.0477 0)
(-0.0224366 10.0638 0)
(-0.0317315 10.0842 0)
(-0.0415234 10.1094 0)
(-0.0506618 10.14 0)
(-0.0585678 10.1753 0)
(-0.0656518 10.2144 0)
(-0.071523 10.2569 0)
(-0.0758312 10.3015 0)
(-0.0782693 10.3458 0)
(-0.0785769 10.3847 0)
(-0.0765486 10.4089 0)
(-0.0720275 10.4031 0)
(-0.0648802 10.3475 0)
(-0.0548526 10.2253 0)
(-0.042286 10.0291 0)
(-0.0248631 9.74454 0)
(-0.0132749 9.27013 0)
(0.00137833 10.0005 0)
(0.00296633 10.0025 0)
(0.0034415 10.0059 0)
(0.0026219 10.0102 0)
(0.000268134 10.0156 0)
(-0.00368716 10.0224 0)
(-0.00937548 10.0313 0)
(-0.0168956 10.0428 0)
(-0.0261704 10.0578 0)
(-0.0369438 10.0772 0)
(-0.0487191 10.1017 0)
(-0.0607055 10.1322 0)
(-0.0714322 10.1691 0)
(-0.08021 10.2115 0)
(-0.0876367 10.2584 0)
(-0.093316 10.3093 0)
(-0.0969083 10.3628 0)
(-0.0981375 10.4162 0)
(-0.0967885 10.4644 0)
(-0.0927146 10.4978 0)
(-0.0858154 10.5013 0)
(-0.0760493 10.4553 0)
(-0.0632084 10.3434 0)
(-0.0479668 10.1574 0)
(-0.0278286 9.88199 0)
(-0.0156036 9.4108 0)
(0.0012291 10.0004 0)
(0.00265165 10.0022 0)
(0.00295757 10.0053 0)
(0.00196735 10.0092 0)
(-0.000601993 10.0139 0)
(-0.0048904 10.0198 0)
(-0.0110521 10.0276 0)
(-0.0192245 10.038 0)
(-0.0294741 10.0517 0)
(-0.0416409 10.0697 0)
(-0.0553263 10.0932 0)
(-0.0698324 10.1229 0)
(-0.084119 10.1595 0)
(-0.0963456 10.2038 0)
(-0.105731 10.2543 0)
(-0.113138 10.31 0)
(-0.118187 10.3701 0)
(-0.120581 10.433 0)
(-0.120101 10.4961 0)
(-0.116605 10.5538 0)
(-0.110021 10.5967 0)
(-0.100337 10.6096 0)
(-0.087578 10.5732 0)
(-0.0716556 10.471 0)
(-0.052977 10.2945 0)
(-0.0246796 10.0222 0)
(-0.0115226 9.4963 0)
(0.0011074 10.0004 0)
(0.00239031 10.002 0)
(0.00256008 10.0049 0)
(0.00143847 10.0083 0)
(-0.0012859 10.0125 0)
(-0.00581811 10.0176 0)
(-0.0123936 10.0242 0)
(-0.0211911 10.0332 0)
(-0.0323148 10.0456 0)
(-0.0457666 10.0621 0)
(-0.0612562 10.084 0)
(-0.0781921 10.1123 0)
(-0.0956287 10.1481 0)
(-0.112234 10.192 0)
(-0.125758 10.2447 0)
(-0.135369 10.3044 0)
(-0.14228 10.3697 0)
(-0.14616 10.4396 0)
(-0.146784 10.5125 0)
(-0.144029 10.5855 0)
(-0.137851 10.6529 0)
(-0.128282 10.7053 0)
(-0.115367 10.7275 0)
(-0.0992789 10.7003 0)
(-0.0796821 10.6072 0)
(-0.0569768 10.4375 0)
(-0.0201776 10.1939 0)
(-0.00295175 9.56212 0)
(0.00100701 10.0003 0)
(0.00217242 10.0018 0)
(0.00222794 10.0045 0)
(0.00101082 10.0076 0)
(-0.00182175 10.0112 0)
(-0.00651978 10.0156 0)
(-0.0133878 10.0212 0)
(-0.0227158 10.0288 0)
(-0.0346676 10.0394 0)
(-0.0492767 10.0543 0)
(-0.0664367 10.0743 0)
(-0.085675 10.1009 0)
(-0.106157 10.1352 0)
(-0.126639 10.1781 0)
(-0.145472 10.2304 0)
(-0.159967 10.2925 0)
(-0.169286 10.3623 0)
(-0.175093 10.4379 0)
(-0.177155 10.5181 0)
(-0.175366 10.6013 0)
(-0.169723 10.6843 0)
(-0.160307 10.7614 0)
(-0.147235 10.823 0)
(-0.130666 10.8541 0)
(-0.110611 10.8355 0)
(-0.0864748 10.7507 0)
(-0.0601857 10.5946 0)
(-0.021592 10.3672 0)
(0.00235346 9.61951 0)
(0.000923389 10.0003 0)
(0.00199015 10.0017 0)
(0.00195218 10.0041 0)
(0.000667053 10.007 0)
(-0.00224031 10.0102 0)
(-0.00704388 10.0139 0)
(-0.014101 10.0186 0)
(-0.0237954 10.0248 0)
(-0.0364368 10.0336 0)
(-0.0521372 10.0464 0)
(-0.0708098 10.0644 0)
(-0.0921897 10.0889 0)
(-0.115568 10.1211 0)
(-0.139813 10.1623 0)
(-0.16335 10.2136 0)
(-0.184189 10.2753 0)
(-0.19917 10.3478 0)
(-0.207527 10.4285 0)
(-0.211505 10.515 0)
(-0.211018 10.6059 0)
(-0.20611 10.6995 0)
(-0.196931 10.7923 0)
(-0.183678 10.8787 0)
(-0.166593 10.9492 0)
(-0.145739 10.9886 0)
(-0.120961 10.9782 0)
(-0.0920629 10.9024 0)
(-0.062242 10.7643 0)
(-0.0244135 10.5371 0)
(0.00320162 9.67647 0)
(0.000853159 10.0003 0)
(0.00183693 10.0016 0)
(0.00172356 10.0038 0)
(0.000386663 10.0064 0)
(-0.00256598 10.0093 0)
(-0.0074295 10.0125 0)
(-0.0145964 10.0163 0)
(-0.0245197 10.0213 0)
(-0.0376316 10.0284 0)
(-0.0542309 10.0389 0)
(-0.0743292 10.0544 0)
(-0.0976608 10.0764 0)
(-0.123749 10.1061 0)
(-0.151589 10.145 0)
(-0.17971 10.1944 0)
(-0.206175 10.255 0)
(-0.228626 10.3272 0)
(-0.243449 10.4111 0)
(-0.250037 10.5034 0)
(-0.251356 10.6011 0)
(-0.24751 10.7029 0)
(-0.238731 10.8067 0)
(-0.225324 10.9091 0)
(-0.207633 11.0044 0)
(-0.185894 11.0831 0)
(-0.160073 11.1304 0)
(-0.130695 11.1282 0)
(-0.0974958 11.0624 0)
(-0.0640444 10.9414 0)
(-0.0270808 10.7026 0)
(0.00271713 9.74994 0)
(0.00079377 10.0003 0)
(0.00170737 10.0015 0)
(0.0015339 10.0036 0)
(0.000156774 10.006 0)
(-0.00281924 10.0085 0)
(-0.00770793 10.0112 0)
(-0.0149246 10.0143 0)
(-0.0249716 10.0182 0)
(-0.0383721 10.0238 0)
(-0.0555821 10.0321 0)
(-0.0768501 10.0447 0)
(-0.102026 10.0637 0)
(-0.1306 10.0905 0)
(-0.161823 10.1266 0)
(-0.19435 10.1733 0)
(-0.226325 10.232 0)
(-0.255412 10.3031 0)
(-0.278916 10.3868 0)
(-0.292771 10.4828 0)
(-0.296655 10.5872 0)
(-0.294386 10.6964 0)
(-0.286306 10.809 0)
(-0.272858 10.9227 0)
(-0.254526 11.0342 0)
(-0.231725 11.1377 0)
(-0.204678 11.2241 0)
(-0.17385 11.2791 0)
(-0.140444 11.2846 0)
(-0.103643 11.2295 0)
(-0.0667096 11.1207 0)
(-0.0299328 10.8827 0)
(0.00158422 9.83467 0)
(0.000743229 10.0002 0)
(0.00159723 10.0014 0)
(0.00137439 10.0034 0)
(-3.23764e-05 10.0056 0)
(-0.00301576 10.0078 0)
(-0.00790396 10.0101 0)
(-0.0151261 10.0125 0)
(-0.0252176 10.0155 0)
(-0.0387676 10.0197 0)
(-0.0563502 10.0261 0)
(-0.078414 10.0359 0)
(-0.105105 10.0513 0)
(-0.136041 10.0745 0)
(-0.170391 10.1073 0)
(-0.20709 10.1508 0)
(-0.244393 10.2065 0)
(-0.280018 10.2756 0)
(-0.311245 10.3584 0)
(-0.335063 10.4544 0)
(-0.346982 10.5632 0)
(-0.347097 10.68 0)
(-0.34023 10.8008 0)
(-0.326998 10.9238 0)
(-0.308076 11.047 0)
(-0.284093 11.1669 0)
(-0.255533 11.2781 0)
(-0.223024 11.3717 0)
(-0.187515 11.4337 0)
(-0.150375 11.4462 0)
(-0.110517 11.4006 0)
(-0.0706066 11.3206 0)
(-0.032876 11.0777 0)
(-0.000177305 9.92865 0)
(0.000699926 10.0002 0)
(0.00150314 10.0013 0)
(0.00123982 10.0032 0)
(-0.000187105 10.0052 0)
(-0.00316786 10.0072 0)
(-0.00803707 10.0091 0)
(-0.0152324 10.011 0)
(-0.0253104 10.0132 0)
(-0.0389056 10.0161 0)
(-0.0566785 10.0207 0)
(-0.0792298 10.0281 0)
(-0.106957 10.0401 0)
(-0.139841 10.0589 0)
(-0.177186 10.0873 0)
(-0.217772 10.127 0)
(-0.260156 10.1792 0)
(-0.302145 10.2452 0)
(-0.341029 10.3259 0)
(-0.37372 10.4213 0)
(-0.396924 10.5304 0)
(-0.405787 10.6524 0)
(-0.400972 10.7819 0)
(-0.388444 10.9139 0)
(-0.369128 11.047 0)
(-0.343925 11.179 0)
(-0.313614 11.3067 0)
(-0.279025 11.4249 0)
(-0.241241 11.5249 0)
(-0.201281 11.5929 0)
(-0.160425 11.6112 0)
(-0.118322 11.5943 0)
(-0.0753582 11.5398 0)
(-0.0360494 11.2683 0)
(-0.00211557 10.0295 0)
(0.000662868 10.0002 0)
(0.00142218 10.0013 0)
(0.00112595 10.0031 0)
(-0.000314354 10.0049 0)
(-0.00328503 10.0067 0)
(-0.00812251 10.0083 0)
(-0.0152685 10.0097 0)
(-0.0252913 10.0111 0)
(-0.0388552 10.013 0)
(-0.0566816 10.016 0)
(-0.0794838 10.0211 0)
(-0.107853 10.03 0)
(-0.142083 10.0447 0)
(-0.181915 10.0678 0)
(-0.226257 10.1024 0)
(-0.273416 10.1503 0)
(-0.321521 10.2124 0)
(-0.367916 10.29 0)
(-0.409463 10.3834 0)
(-0.442727 10.4922 0)
(-0.46421 10.6151 0)
(-0.468771 10.7507 0)
(-0.457794 10.8926 0)
(-0.438523 11.0355 0)
(-0.412204 11.178 0)
(-0.379979 11.318 0)
(-0.34295 11.4528 0)
(-0.302346 11.5771 0)
(-0.259435 11.6826 0)
(-0.215126 11.7548 0)
(-0.171485 11.7977 0)
(-0.126736 11.8091 0)
(-0.0805031 11.7551 0)
(-0.0391451 11.4535 0)
(-0.00396897 10.135 0)
(0.00135195 10.0012 0)
(0.000618927 10.0002 0)
(0.00102861 10.0029 0)
(-0.000419164 10.0046 0)
(-0.0033747 10.0062 0)
(-0.00817218 10.0075 0)
(-0.0152535 10.0085 0)
(-0.0251922 10.0093 0)
(-0.0386703 10.0102 0)
(-0.0564499 10.0118 0)
(-0.0793253 10.015 0)
(-0.108033 10.021 0)
(-0.143109 10.0318 0)
(-0.18468 10.0499 0)
(-0.232173 10.0782 0)
(-0.283993 10.1202 0)
(-0.337898 10.1777 0)
(-0.39157 10.2511 0)
(-0.441869 10.3414 0)
(-0.485249 10.4485 0)
(-0.517994 10.5716 0)
(-0.536495 10.7086 0)
(-0.535409 10.8577 0)
(-0.517006 11.0117 0)
(-0.489927 11.1649 0)
(-0.455761 11.3161 0)
(-0.415988 11.4635 0)
(-0.372092 11.6043 0)
(-0.325493 11.7337 0)
(-0.277488 11.8428 0)
(-0.230362 11.9374 0)
(-0.18331 12.005 0)
(-0.134917 12.0216 0)
(-0.0856238 11.9645 0)
(-0.0420379 11.6329 0)
(-0.00573822 10.2433 0)
(0.000943359 10.0028 0)
(0.00127149 10.0012 0)
(0.000566635 10.0002 0)
(-0.000506231 10.0044 0)
(-0.00344249 10.0058 0)
(-0.00819506 10.0069 0)
(-0.0152025 10.0075 0)
(-0.025038 10.0077 0)
(-0.0383926 10.0077 0)
(-0.0560539 10.0081 0)
(-0.0788717 10.0095 0)
(-0.107688 10.013 0)
(-0.143226 10.0204 0)
(-0.185911 10.0337 0)
(-0.235636 10.056 0)
(-0.291414 10.0906 0)
(-0.351046 10.1413 0)
(-0.411685 10.2097 0)
(-0.470538 10.2957 0)
(-0.523994 10.3999 0)
(-0.568149 10.5217 0)
(-0.599099 10.6596 0)
(-0.613229 10.8109 0)
(-0.605092 10.9734 0)
(-0.57801 11.139 0)
(-0.542129 11.3017 0)
(-0.499439 11.4607 0)
(-0.451801 11.6143 0)
(-0.400935 11.7601 0)
(-0.3483 11.8929 0)
(-0.297178 12.0234 0)
(-0.246532 12.1401 0)
(-0.194632 12.2108 0)
(-0.142636 12.2294 0)
(-0.0904908 12.1668 0)
(-0.0446447 11.8061 0)
(-0.00735595 10.3525 0)
(-0.000583661 10.0042 0)
(0.000854633 10.0027 0)
(0.0011738 10.0011 0)
(0.000516897 10.0002 1.86839e-19)
(-0.00349366 10.0055 0)
(-0.0081977 10.0063 0)
(-0.0151264 10.0066 0)
(-0.0248476 10.0063 0)
(-0.0380541 10.0056 0)
(-0.0555479 10.0048 0)
(-0.0782146 10.0046 0)
(-0.106971 10.0059 0)
(-0.142678 10.0102 0)
(-0.185994 10.0193 0)
(-0.23718 10.0359 0)
(-0.295803 10.0633 0)
(-0.360362 10.1054 0)
(-0.427968 10.1663 0)
(-0.495091 10.2469 0)
(-0.558484 10.3468 0)
(-0.614103 10.466 0)
(-0.657763 10.6033 0)
(-0.685477 10.7564 0)
(-0.693754 10.922 0)
(-0.677152 11.0973 0)
(-0.640198 11.2738 0)
(-0.59466 11.4451 0)
(-0.542948 11.6108 0)
(-0.487203 11.7696 0)
(-0.429253 11.9187 0)
(-0.373093 12.0725 0)
(-0.317992 12.2239 0)
(-0.261783 12.3413 0)
(-0.205238 12.4128 0)
(-0.149742 12.431 0)
(-0.0949913 12.3615 0)
(-0.0469391 11.9727 0)
(-0.00879412 10.461 0)
(-0.00354132 10.0052 0)
(-0.000646264 10.004 0)
(0.000755389 10.0025 8.34535e-19)
(0.00108029 10.001 -5.92024e-19)
(0.000469566 10.0002 -3.72635e-19)
(-0.00818587 10.0058 0)
(-0.0150331 10.0058 0)
(-0.0246349 10.005 0)
(-0.0376793 10.0037 0)
(-0.0549733 10.0019 0)
(-0.0774244 10.0003 0)
(-0.106 9.99965 0)
(-0.141658 10.0011 0)
(-0.185235 10.0063 0)
(-0.237282 10.0178 0)
(-0.297809 10.0385 0)
(-0.365967 10.0722 0)
(-0.439654 10.1232 0)
(-0.515163 10.1955 0)
(-0.588262 10.29 0)
(-0.655288 10.4051 0)
(-0.711829 10.5402 0)
(-0.753527 10.6935 0)
(-0.77644 10.8619 0)
(-0.777336 11.0415 0)
(-0.750889 11.229 0)
(-0.702985 11.4154 0)
(-0.647096 11.5943 0)
(-0.585964 11.7655 0)
(-0.5219 11.9278 0)
(-0.459958 12.0978 0)
(-0.399283 12.2719 0)
(-0.337518 12.4229 0)
(-0.275923 12.539 0)
(-0.21497 12.6092 0)
(-0.15617 12.6253 0)
(-0.0990652 12.5478 0)
(-0.0489301 12.1321 0)
(-0.0100472 10.5674 0)
(-0.00818006 10.0054 0)
(-0.00354128 10.0048 -1.78343e-18)
(-0.000696913 10.0037 -8.80296e-19)
(0.000661902 10.0023 4.16353e-19)
(0.00099067 10.0009 -3.93495e-19)
(0.000424707 10.0001 0)
(-0.0149287 10.0051 0)
(-0.0244092 10.0039 0)
(-0.0372858 10.002 0)
(-0.0543616 9.99941 0)
(-0.0765547 9.99655 0)
(-0.104865 9.99408 0)
(-0.140319 9.993 0)
(-0.183881 9.99482 0)
(-0.236326 10.0016 0)
(-0.298018 10.0162 0)
(-0.36864 10.042 0)
(-0.446842 10.0832 0)
(-0.529787 10.1444 0)
(-0.612872 10.2299 0)
(-0.691159 10.3395 0)
(-0.760642 10.4709 0)
(-0.816637 10.6228 0)
(-0.854738 10.7924 0)
(-0.871196 10.976 0)
(-0.863182 11.169 0)
(-0.825595 11.3679 0)
(-0.765812 11.563 0)
(-0.698996 11.7482 0)
(-0.628121 11.9233 0)
(-0.559478 12.1066 0)
(-0.492363 12.2968 0)
(-0.423801 12.47 0)
(-0.355575 12.6183 0)
(-0.288803 12.7314 0)
(-0.223756 12.7992 0)
(-0.161894 12.8117 0)
(-0.102687 12.7256 0)
(-0.0506389 12.2841 0)
(-0.0111222 10.6707 0)
(-0.0148443 10.0044 0)
(-0.0080774 10.0048 3.76116e-18)
(-0.00348156 10.0044 0)
(-0.000743328 10.0034 8.78036e-19)
(0.000574889 10.0021 1.37651e-22)
(0.000904866 10.0009 0)
(0.000382341 10.0001 0)
(-0.0241769 10.003 0)
(-0.0368847 10.0005 0)
(-0.0537356 9.99716 0)
(-0.0756463 9.9932 0)
(-0.103635 9.98914 0)
(-0.138775 9.98584 0)
(-0.182123 9.98458 0)
(-0.234618 9.98719 0)
(-0.296903 9.99615 0)
(-0.36909 10.0147 0)
(-0.450453 10.0467 0)
(-0.539011 10.0967 0)
(-0.631102 10.1698 0)
(-0.721156 10.2699 0)
(-0.803552 10.3961 0)
(-0.874054 10.5448 0)
(-0.92783 10.714 0)
(-0.960576 10.9 0)
(-0.968886 11.0984 0)
(-0.950472 11.304 0)
(-0.900563 11.5131 0)
(-0.828112 11.7158 0)
(-0.749901 11.9056 0)
(-0.673779 12.102 0)
(-0.599151 12.3057 0)
(-0.522665 12.4947 0)
(-0.446445 12.6647 0)
(-0.372016 12.8088 0)
(-0.300379 12.9177 0)
(-0.231577 12.9817 0)
(-0.166921 12.9896 0)
(-0.10586 12.8945 0)
(-0.0520904 12.4285 0)
(-0.0120325 10.7703 0)
(-0.0239842 10.0021 0)
(-0.0145919 10.0037 4.92145e-22)
(-0.00783661 10.0042 0)
(-0.00342144 10.0039 -9.25818e-19)
(-0.000779944 10.0031 8.51386e-23)
(0.000494224 10.002 0)
(0.000823003 10.0008 0)
(0.000342476 10.0001 0)
(-0.0364826 9.99919 0)
(-0.0531086 9.99517 0)
(-0.0747282 9.99023 0)
(-0.102363 9.98478 0)
(-0.137115 9.9795 0)
(-0.180107 9.97549 0)
(-0.232399 9.97434 0)
(-0.294844 9.97825 0)
(-0.367894 9.99013 0)
(-0.451335 10.0136 0)
(-0.543911 10.0532 0)
(-0.642916 10.1136 0)
(-0.743769 10.2 0)
(-0.839882 10.3163 0)
(-0.925015 10.4602 0)
(-0.994856 10.6271 0)
(-1.04457 10.8139 0)
(-1.07013 11.0161 0)
(-1.06861 11.2287 0)
(-1.03838 11.4458 0)
(-0.975101 11.6639 0)
(-0.889308 11.8724 0)
(-0.805075 12.0842 0)
(-0.722017 12.3014 0)
(-0.636257 12.5039 0)
(-0.550639 12.6895 0)
(-0.467072 12.8546 0)
(-0.3868 12.9932 0)
(-0.310658 13.097 0)
(-0.238455 13.1563 0)
(-0.171281 13.1588 0)
(-0.108601 13.0544 0)
(-0.0533104 12.5652 0)
(-0.0127951 10.8657 0)
(-0.0361469 9.99802 0)
(-0.0235236 10.0011 -2.08971e-18)
(-0.0140821 10.0029 0)
(-0.00760312 10.0036 0)
(-0.00334664 10.0035 2.76914e-18)
(-0.000806942 10.0028 0)
(0.000419947 10.0018 0)
(0.000745191 10.0007 7.78132e-19)
(0.00030514 10.0001 0)
(-0.0524876 9.99341 0)
(-0.073817 9.98761 0)
(-0.101086 9.98091 0)
(-0.135407 9.97388 0)
(-0.177946 9.96742 0)
(-0.229852 9.96291 0)
(-0.292137 9.96228 0)
(-0.365515 9.96815 0)
(-0.450184 9.98387 0)
(-0.545489 10.0136 0)
(-0.649548 10.062 0)
(-0.758833 10.1344 0)
(-0.867768 10.2358 0)
(-0.968716 10.3696 0)
(-1.05494 10.5325 0)
(-1.12222 10.7182 0)
(-1.16592 10.9225 0)
(-1.18241 11.1405 0)
(-1.16943 11.3663 0)
(-1.12611 11.5939 0)
(-1.04852 11.8191 0)
(-0.955739 12.0505 0)
(-0.863428 12.2838 0)
(-0.767162 12.5003 0)
(-0.67053 12.6994 0)
(-0.576139 12.8798 0)
(-0.485634 13.0387 0)
(-0.399946 13.171 0)
(-0.319685 13.2686 0)
(-0.244439 13.3225 0)
(-0.17502 13.3191 0)
(-0.110943 13.2053 0)
(-0.0543255 12.6941 0)
(-0.0134281 10.9564 0)
(-0.0519686 9.99185 0)
(-0.0354061 9.99673 0)
(-0.0226328 10 -2.17474e-18)
(-0.0135931 10.0021 -2.05791e-18)
(-0.00734823 10.003 -3.89225e-18)
(-0.00325709 10.0031 0)
(-0.000824324 10.0025 -1.73807e-18)
(0.000352212 10.0017 -1.64122e-18)
(0.000671443 10.0007 7.74437e-19)
(0.000270286 10.0001 0)
(-0.0729197 9.98529 0)
(-0.0998242 9.97749 0)
(-0.133698 9.9689 0)
(-0.175725 9.96027 0)
(-0.227121 9.95276 0)
(-0.289014 9.94807 0)
(-0.362319 9.94852 0)
(-0.447559 9.95716 0)
(-0.544571 9.97781 0)
(-0.652168 10.015 0)
(-0.767745 10.074 0)
(-0.886859 10.1599 0)
(-1.00287 10.2779 0)
(-1.10713 10.4307 0)
(-1.19253 10.6134 0)
(-1.2552 10.818 0)
(-1.29083 11.0398 0)
(-1.2964 11.2728 0)
(-1.27043 11.5107 0)
(-1.21284 11.7469 0)
(-1.12848 11.9964 0)
(-1.02616 12.2504 0)
(-0.918103 12.4836 0)
(-0.80889 12.6968 0)
(-0.701804 12.8905 0)
(-0.599116 13.0644 0)
(-0.502159 13.2162 0)
(-0.411515 13.3413 0)
(-0.32753 13.4323 0)
(-0.24959 13.4802 0)
(-0.17819 13.4706 0)
(-0.11292 13.3475 0)
(-0.0551609 12.8155 0)
(-0.0139488 11.0423 0)
(-0.0721716 9.98323 0)
(-0.0508594 9.99016 -2.32368e-18)
(-0.0339922 9.99531 2.29069e-18)
(-0.0217849 9.99897 -1.17687e-21)
(-0.0130734 10.0013 2.05094e-18)
(-0.00707182 10.0025 1.93935e-18)
(-0.00315329 10.0027 3.66466e-18)
(-0.000831956 10.0023 2.5956e-18)
(0.000290993 10.0015 -8.16696e-19)
(0.000601805 10.0006 0)
(0.0002379 10.0001 0)
(-0.0985856 9.97446 0)
(-0.132013 9.96449 0)
(-0.173507 9.95393 0)
(-0.224313 9.94375 0)
(-0.285651 9.93543 0)
(-0.35859 9.93102 0)
(-0.443906 9.93326 0)
(-0.541828 9.94565 0)
(-0.651748 9.97249 0)
(-0.771852 10.0187 0)
(-0.898711 10.0898 0)
(-1.02689 10.191 0)
(-1.14866 10.3271 0)
(-1.2544 10.5 0)
(-1.33687 10.7031 0)
(-1.39273 10.9268 0)
(-1.41821 11.1654 0)
(-1.41108 11.4124 0)
(-1.37066 11.6608 0)
(-1.30766 11.9226 0)
(-1.21356 12.1962 0)
(-1.09235 12.451 0)
(-0.968733 12.6813 0)
(-0.846999 12.8892 0)
(-0.730018 13.0762 0)
(-0.619606 13.2425 0)
(-0.516722 13.3864 0)
(-0.421596 13.5038 0)
(-0.334282 13.5878 0)
(-0.253978 13.6293 0)
(-0.180846 13.6132 0)
(-0.11457 13.4811 0)
(-0.0558407 12.9295 0)
(-0.0143733 11.1235 0)
(-0.0975571 9.97177 0)
(-0.0705876 9.98103 -3.46682e-21)
(-0.0487461 9.98833 0)
(-0.0326558 9.99394 -1.89018e-21)
(-0.0208942 9.99795 0)
(-0.0125229 10.0005 -2.04358e-18)
(-0.00677473 10.0019 -3.86282e-18)
(-0.00303508 10.0023 8.93081e-23)
(-0.000830017 10.0021 1.72192e-18)
(0.000235989 10.0014 -8.12339e-19)
(0.000536264 10.0005 7.66045e-19)
(0.00020795 10.0001 0)
(-0.130361 9.96058 0)
(-0.17132 9.9483 0)
(-0.221506 9.93576 0)
(-0.282185 9.9242 0)
(-0.354549 9.91544 0)
(-0.439572 9.91191 0)
(-0.537796 9.91682 0)
(-0.649082 9.93415 0)
(-0.772283 9.96861 0)
(-0.904857 10.0255 0)
(-1.04246 10.1104 0)
(-1.17861 10.2286 0)
(-1.30451 10.3841 0)
(-1.40965 10.5781 0)
(-1.48687 10.8019 0)
(-1.53366 11.0444 0)
(-1.54697 11.2991 0)
(-1.52539 11.5585 0)
(-1.48071 11.834 0)
(-1.40896 12.1218 0)
(-1.29381 12.3978 0)
(-1.15384 12.6503 0)
(-1.0151 12.8754 0)
(-0.881432 13.0764 0)
(-0.755208 13.2556 0)
(-0.637698 13.4136 0)
(-0.529436 13.549 0)
(-0.430301 13.6583 0)
(-0.340038 13.7349 0)
(-0.257679 13.7699 0)
(-0.183048 13.7473 0)
(-0.115932 13.6064 0)
(-0.0563865 13.0363 0)
(-0.014716 11.1998 0)
(-0.128996 9.95711 0)
(-0.0953711 9.96894 2.5771e-18)
(-0.0675578 9.97871 -2.54663e-18)
(-0.0467608 9.98658 2.40703e-18)
(-0.0312612 9.99262 0)
(-0.0199599 9.99697 0)
(-0.0119433 9.99982 2.03521e-18)
(-0.00645749 10.0014 -1.92244e-18)
(-0.00290255 10.002 1.19382e-22)
(-0.000818101 10.0018 8.56467e-19)
(0.000187313 10.0013 -8.07772e-19)
(0.000474743 10.0005 -7.60665e-19)
(0.000180565 10.0001 0)
(-0.169176 9.94331 0)
(-0.218736 9.92866 0)
(-0.278712 9.91422 0)
(-0.350365 9.90157 0)
(-0.434829 9.89288 0)
(-0.532897 9.89103 0)
(-0.644808 9.89969 0)
(-0.769969 9.92329 0)
(-0.906594 9.96695 0)
(-1.05131 10.0362 0)
(-1.1988 10.1367 0)
(-1.34151 10.2734 0)
(-1.46961 10.4496 0)
(-1.57185 10.6654 0)
(-1.6414 10.9099 0)
(-1.67684 11.1707 0)
(-1.67596 11.44 0)
(-1.65153 11.7283 0)
(-1.59885 12.0317 0)
(-1.50493 12.3238 0)
(-1.36862 12.5989 0)
(-1.21032 12.8467 0)
(-1.05713 13.0648 0)
(-0.912248 13.2576 0)
(-0.77748 13.428 0)
(-0.653525 13.577 0)
(-0.540437 13.7037 0)
(-0.43775 13.8047 0)
(-0.344901 13.8738 0)
(-0.26077 13.9022 0)
(-0.184851 13.8731 0)
(-0.11704 13.7238 0)
(-0.0568191 13.1362 0)
(-0.0149898 11.2714 0)
(-0.167417 9.93888 0)
(-0.126058 9.95351 0)
(-0.0911612 9.96601 2.67858e-18)
(-0.0647265 9.97648 -5.08019e-18)
(-0.0446968 9.9849 4.80486e-18)
(-0.0298064 9.99136 -4.54233e-18)
(-0.0189856 9.99604 0)
(-0.0113354 9.99914 2.02671e-18)
(-0.00612038 10.0009 -1.91284e-18)
(-0.00275705 10.0016 -1.80555e-18)
(-0.000795561 10.0016 0)
(0.000144674 10.0011 8.02075e-19)
(0.00041737 10.0004 0)
(0.000156249 10 0)
(-0.216018 9.92236 0)
(-0.275277 9.90536 0)
(-0.346157 9.88924 0)
(-0.429885 9.87593 0)
(-0.52746 9.868 0)
(-0.639433 9.86881 0)
(-0.765662 9.88247 0)
(-0.905001 9.91387 0)
(-1.05492 9.96844 0)
(-1.21116 10.0519 0)
(-1.36734 10.1697 0)
(-1.51489 10.3263 0)
(-1.64301 10.5243 0)
(-1.73986 10.7621 0)
(-1.79925 11.0272 0)
(-1.82105 11.305 0)
(-1.81906 11.6051 0)
(-1.78769 11.9236 0)
(-1.7114 12.2337 0)
(-1.59483 12.5266 0)
(-1.43759 12.7978 0)
(-1.26167 13.0388 0)
(-1.09485 13.2484 0)
(-0.939578 13.432 0)
(-0.796995 13.5929 0)
(-0.667247 13.7326 0)
(-0.549874 13.8503 0)
(-0.444067 13.9429 0)
(-0.348971 14.0046 0)
(-0.263324 14.0264 0)
(-0.186308 13.9909 0)
(-0.11793 13.8334 0)
(-0.0571562 13.2295 0)
(-0.0152048 11.3385 0)
(-0.213807 9.91677 0)
(-0.163558 9.93433 0)
(-0.120355 9.94984 0)
(-0.0872493 9.96322 5.34283e-18)
(-0.0617928 9.97437 -5.05613e-18)
(-0.0425532 9.98331 4.7813e-18)
(-0.0282985 9.99017 0)
(-0.0179729 9.99516 -2.1346e-18)
(-0.0106999 9.99849 0)
(-0.0057642 10.0005 1.9025e-18)
(-0.00259741 10.0013 0)
(-0.000764003 10.0014 0)
(0.00010927 10.001 0)
(0.000365417 10.0004 7.75406e-19)
(0.000135033 10 3.73496e-19)
(-0.271905 9.89748 0)
(-0.341983 9.87828 0)
(-0.424889 9.86083 0)
(-0.521743 9.84746 0)
(-0.633356 9.84118 0)
(-0.759966 9.84582 0)
(-0.900956 9.86594 0)
(-1.05453 9.90681 0)
(-1.21733 9.97411 0)
(-1.38412 10.0736 0)
(-1.54751 10.2103 0)
(-1.69789 10.3881 0)
(-1.82362 10.6085 0)
(-1.91249 10.8686 0)
(-1.95918 11.1533 0)
(-1.98203 11.4639 0)
(-1.97454 11.7967 0)
(-1.91823 12.1247 0)
(-1.81745 12.4378 0)
(-1.67817 12.7283 0)
(-1.50053 12.9933 0)
(-1.30788 13.2256 0)
(-1.1284 13.4255 0)
(-0.963611 13.599 0)
(-0.813959 13.75 0)
(-0.679043 13.8802 0)
(-0.5579 13.9889 0)
(-0.449376 14.0732 0)
(-0.352344 14.1275 0)
(-0.26541 14.1428 0)
(-0.187468 14.1011 0)
(-0.118631 13.9358 0)
(-0.0574131 13.3166 0)
(-0.0153693 11.4012 0)
(-0.269186 9.89049 0)
(-0.208832 9.91107 0)
(-0.155998 9.92977 5.95905e-18)
(-0.115085 9.94635 5.64233e-18)
(-0.0832039 9.96058 5.3374e-18)
(-0.0587557 9.97237 -5.04579e-18)
(-0.0403403 9.98181 0)
(-0.0267393 9.98906 0)
(-0.016923 9.99433 0)
(-0.0100382 9.99789 4.01119e-18)
(-0.00539105 10 1.89176e-18)
(-0.00242404 10.001 1.78214e-18)
(-0.000723445 10.0012 0)
(8.03728e-05 10.0009 -8.17545e-19)
(0.000318718 10.0004 -3.94493e-19)
(0.000116441 10 0)
(-0.337877 9.86853 0)
(-0.419909 9.84739 0)
(-0.515928 9.82914 0)
(-0.626888 9.8165 0)
(-0.753356 9.81296 0)
(-0.895169 9.82279 0)
(-1.05113 9.851 0)
(-1.21871 9.90314 0)
(-1.39366 9.98503 0)
(-1.56974 10.1022 0)
(-1.73853 10.2594 0)
(-1.88949 10.4595 0)
(-2.01033 10.7029 0)
(-2.08851 10.9847 0)
(-2.1389 11.3042 0)
(-2.1582 11.6502 0)
(-2.12471 11.9959 0)
(-2.04213 12.3296 0)
(-1.91641 12.6422 0)
(-1.75469 12.9277 0)
(-1.55745 13.1842 0)
(-1.3491 13.4063 0)
(-1.15798 13.5955 0)
(-0.984571 13.7584 0)
(-0.828595 13.8992 0)
(-0.689101 14.0197 0)
(-0.564669 14.1195 0)
(-0.453798 14.1957 0)
(-0.355109 14.2428 0)
(-0.267091 14.2517 0)
(-0.188374 14.204 0)
(-0.119172 14.0314 0)
(-0.057601 13.3978 0)
(-0.0154946 11.4597 0)
(-0.334604 9.85987 0)
(-0.262875 9.88341 0)
(-0.198993 9.90542 -1.25367e-17)
(-0.149042 9.92545 1.78201e-20)