/*--------------------------------*- C++ -*----------------------------------*\
  =========                 |
  \\      /  F ield         | OpenFOAM: The Open Source CFD Toolbox
   \\    /   O peration     | Website:  https://openfoam.org
    \\  /    A nd           | Version:  8
     \\/     M anipulation  |
\*---------------------------------------------------------------------------*/
FoamFile
{
    version     2.0;
    format      ascii;
    class       volVectorField;
    location    "0.32";
    object      U;
}
// * * * * * * * * * * * * * * * * * * * * * * * * * * * * * * * * * * * * * //

dimensions      [0 1 -1 0 0 0 0];

internalField   nonuniform List<vector> 
15677
(
(-0.0199277 9.66512 0)
(0.0435608 9.92088 0)
(0.00237813 9.37832 0)
(0.0147219 9.97651 0)
(0.0185965 9.78804 0)
(0.00701519 9.14289 0)
(0.02794 9.99437 0)
(0.017079 9.92507 0)
(0.0107209 9.65554 0)
(0.00608365 8.96072 0)
(0.0260759 10.0016 0)
(0.0214616 9.97882 0)
(0.0163697 9.85398 0)
(0.00901734 9.53106 0)
(0.00491689 8.81734 0)
(0.0249129 10.0047 0)
(0.022317 10.0029 0)
(0.0191423 9.94348 0)
(0.0153651 9.78006 0)
(0.00789653 9.42014 0)
(0.00405639 8.70246 0)
(0.0239218 10.0062 0)
(0.022477 10.0145 0)
(0.0207359 9.98667 0)
(0.0182681 9.90317 0)
(0.0139234 9.70866 0)
(0.00684348 9.32174 0)
(0.00339903 8.60952 0)
(0.0225703 10.0067 0)
(0.0222882 10.0202 0)
(0.0215434 10.0087 0)
(0.0201585 9.96577 0)
(0.017078 9.86269 0)
(0.0125307 9.64125 0)
(0.00591728 9.2359 0)
(0.00285159 8.53455 0)
(0.0208699 10.0067 0)
(0.0217227 10.0226 0)
(0.0218462 10.0201 0)
(0.0212371 9.99891 0)
(0.0191243 9.94459 0)
(0.015749 9.82294 0)
(0.0112104 9.57941 0)
(0.00506501 9.16266 0)
(0.00235009 8.4748 0)
(0.0189351 10.0063 0)
(0.0208606 10.0228 0)
(0.0217114 10.0261 0)
(0.0217238 10.0171 0)
(0.0203032 9.98908 0)
(0.0178389 9.92356 0)
(0.0143454 9.7854 0)
(0.0098687 9.52455 0)
(0.00422942 9.10181 0)
(0.00185682 8.42877 0)
(0.0168401 10.0058 0)
(0.019763 10.022 0)
(0.0212301 10.029 0)
(0.0217411 10.0271 0)
(0.020859 10.014 0)
(0.0190189 9.97944 0)
(0.0163852 9.90382 0)
(0.0127973 9.75153 0)
(0.00844282 9.47766 0)
(0.00336622 9.05313 0)
(0.00134397 8.39545 0)
(0.0146253 10.0051 0)
(0.0184314 10.0205 0)
(0.0204346 10.0298 0)
(0.021402 10.0325 0)
(0.0209133 10.0283 0)
(0.0195155 10.0113 0)
(0.0174707 9.97093 0)
(0.0146775 9.88658 0)
(0.011041 9.72252 0)
(0.00688564 9.43951 0)
(0.00243674 9.01654 0)
(0.000789404 8.37454 0)
(0.0122816 10.0044 0)
(0.0169443 10.0186 0)
(0.0193398 10.0291 0)
(0.0207197 10.0349 0)
(0.0205353 10.0363 0)
(0.019479 10.0298 0)
(0.0178152 10.0096 0)
(0.0155594 9.96458 0)
(0.0126359 9.87285 0)
(0.00901938 9.69941 0)
(0.00515013 9.41083 0)
(0.0014094 8.99209 0)
(0.000169094 8.36578 0)
(0.00998101 10.0036 0)
(0.0154016 10.0163 0)
(0.0179841 10.0274 0)
(0.0197129 10.0353 0)
(0.0198283 10.0405 0)
(0.0189968 10.0405 0)
(0.0175797 10.0323 0)
(0.0156386 10.0099 0)
(0.0131901 9.96131 0)
(0.0101876 9.8636 0)
(0.0066735 9.68323 0)
(0.00319246 9.39225 0)
(0.000267777 8.97987 0)
(-0.000445014 8.36913 0)
(0.00800644 10.0029 0)
(0.0137418 10.0138 0)
(0.0164235 10.025 0)
(0.0183954 10.0343 0)
(0.018778 10.042 0)
(0.0181271 10.0464 0)
(0.0168577 10.0457 0)
(0.0150776 10.0368 0)
(0.0128715 10.0132 0)
(0.0102701 9.96195 0)
(0.00725661 9.85981 0)
(0.00394587 9.67495 0)
(0.000970377 9.38435 0)
(-0.00102655 8.98014 0)
(-0.00118903 8.3846 0)
(0.00643806 10.0023 0)
(0.0121364 10.0115 0)
(0.0146842 10.0221 0)
(0.0167794 10.0322 0)
(0.0173925 10.0416 0)
(0.0168825 10.0491 0)
(0.0156955 10.0534 0)
(0.0139711 10.0528 0)
(0.0118388 10.044 0)
(0.00940053 10.0201 0)
(0.00670209 9.9674 0)
(0.00376789 9.86245 0)
(0.000776625 9.67548 0)
(-0.00156274 9.38773 0)
(-0.00248881 8.99302 0)
(-0.00201932 8.4124 0)
(0.00525735 10.0018 0)
(0.0106826 10.0095 0)
(0.0129766 10.0193 0)
(0.0148917 10.0293 0)
(0.0156758 10.0399 0)
(0.0152693 10.0495 0)
(0.0141115 10.0572 0)
(0.0123637 10.0621 0)
(0.0101851 10.0625 0)
(0.00772755 10.0547 0)
(0.00510565 10.0315 0)
(0.00239073 9.97857 0)
(-0.000339829 9.87249 0)
(-0.00284678 9.68561 0)
(-0.00438838 9.40284 0)
(-0.00411811 9.0187 0)
(-0.00293432 8.45252 0)
(0.00427096 10.0014 0)
(0.00925928 10.0079 0)
(0.0114213 10.0169 0)
(0.0129792 10.0263 0)
(0.0136403 10.037 0)
(0.0132897 10.0482 0)
(0.0121094 10.0583 0)
(0.0102711 10.067 0)
(0.00795171 10.0734 0)
(0.00533866 10.0756 0)
(0.00259963 10.0698 0)
(-0.000133912 10.0482 0)
(-0.00275871 9.99632 0)
(-0.00514613 9.89077 0)
(-0.00698503 9.7061 0)
(-0.0075626 9.43006 0)
(-0.00592255 9.05717 0)
(-0.00393209 8.50493 0)
(0.00346497 10.0012 0)
(0.00797469 10.0066 0)
(0.00994743 10.0147 0)
(0.0112071 10.0235 0)
(0.0115383 10.0338 0)
(0.0109519 10.0454 0)
(0.00968946 10.0573 0)
(0.0076949 10.0688 0)
(0.00514898 10.0793 0)
(0.00226862 10.0879 0)
(-0.00074033 10.0928 0)
(-0.0036971 10.0899 0)
(-0.00643918 10.0711 0)
(-0.00882659 10.0215 0)
(-0.0106884 9.91812 0)
(-0.0116689 9.73749 0)
(-0.0110938 9.46959 0)
(-0.00790498 9.10844 0)
(-0.00500987 8.56941 0)
(0.00280501 10.001 0)
(0.00681187 10.0055 0)
(0.00859136 10.0128 0)
(0.00953721 10.021 0)
(0.00956311 10.0307 0)
(0.00853668 10.042 0)
(0.00685915 10.0547 0)
(0.00463338 10.0681 0)
(0.00176943 10.0816 0)
(-0.00147875 10.0946 0)
(-0.00488955 10.1065 0)
(-0.00823537 10.115 0)
(-0.0113045 10.116 0)
(-0.0139068 10.101 0)
(-0.0158726 10.0549 0)
(-0.0169947 9.95517 0)
(-0.0168994 9.78022 0)
(-0.0149727 9.52152 0)
(-0.0100502 9.17223 0)
(-0.00615585 8.64555 0)
(0.00225941 10.0008 0)
(0.00575541 10.0047 0)
(0.00733781 10.0113 0)
(0.0079832 10.0188 0)
(0.00769073 10.0278 0)
(0.0062695 10.0385 0)
(0.00395448 10.051 0)
(0.00109302 10.0654 0)
(-0.00217748 10.081 0)
(-0.00591223 10.0973 0)
(-0.00985249 10.1139 0)
(-0.0137375 10.1298 0)
(-0.0173144 10.1428 0)
(-0.0203452 10.1487 0)
(-0.0226167 10.1385 0)
(-0.0239347 10.0971 0)
(-0.0240721 10.0025 0)
(-0.0226634 9.83448 0)
(-0.0191795 9.58571 0)
(-0.0123481 9.24825 0)
(-0.00736132 8.73285 0)
(0.00182307 10.0007 0)
(0.00479985 10.004 0)
(0.00618216 10.0099 0)
(0.00654734 10.0168 0)
(0.00594072 10.0251 0)
(0.00412768 10.0351 0)
(0.00123948 10.0471 0)
(-0.00250486 10.0614 0)
(-0.00667956 10.0782 0)
(-0.0110325 10.0969 0)
(-0.0156452 10.1168 0)
(-0.0202243 10.1377 0)
(-0.0244783 10.1586 0)
(-0.0281293 10.1771 0)
(-0.0309195 10.1887 0)
(-0.0326195 10.1844 0)
(-0.0330238 10.1487 0)
(-0.0319037 10.0603 0)
(-0.0289306 9.90031 0)
(-0.0236816 9.6619 0)
(-0.0147655 9.33581 0)
(-0.00860395 8.83042 0)
(0.00148575 10.0006 0)
(0.00397912 10.0034 0)
(0.00512321 10.0087 0)
(0.00523208 10.015 0)
(0.00432666 10.0226 0)
(0.00213802 10.0319 0)
(-0.00130436 10.0432 0)
(-0.00583812 10.057 0)
(-0.0112234 10.0737 0)
(-0.0168228 10.0936 0)
(-0.0222742 10.1162 0)
(-0.027723 10.1407 0)
(-0.0328362 10.1669 0)
(-0.0372946 10.1936 0)
(-0.0408025 10.2185 0)
(-0.0430917 10.2367 0)
(-0.0439301 10.2391 0)
(-0.0431177 10.2101 0)
(-0.0404473 10.1288 0)
(-0.0356502 9.97751 0)
(-0.0284303 9.74954 0)
(-0.0172798 9.43427 0)
(-0.00986557 8.93747 0)
(0.00122174 10.0005 0)
(0.0033099 10.003 0)
(0.00419912 10.0077 0)
(0.00403724 10.0134 0)
(0.00285646 10.0203 0)
(0.00031781 10.0288 0)
(-0.00364181 10.0393 0)
(-0.00894812 10.0523 0)
(-0.0154083 10.0685 0)
(-0.0226189 10.0884 0)
(-0.029718 10.1124 0)
(-0.036245 10.1397 0)
(-0.0424299 10.1698 0)
(-0.0479055 10.2021 0)
(-0.052334 10.2355 0)
(-0.0554143 10.2676 0)
(-0.0568829 10.2931 0)
(-0.0565234 10.3029 0)
(-0.0541616 10.2813 0)
(-0.0496319 10.2079 0)
(-0.042749 10.0657 0)
(-0.0333685 9.84794 0)
(-0.0198321 9.54254 0)
(-0.0111057 9.05236 0)
(0.00101138 10.0004 0)
(0.00276582 10.0027 0)
(0.00343159 10.0069 0)
(0.00300649 10.012 0)
(0.00153387 10.0181 0)
(-0.00131835 10.0258 0)
(-0.00575786 10.0354 0)
(-0.0117877 10.0475 0)
(-0.0192879 10.0629 0)
(-0.027929 10.0822 0)
(-0.0371249 10.1061 0)
(-0.0457636 10.135 0)
(-0.0532786 10.1682 0)
(-0.0600236 10.2046 0)
(-0.0656099 10.244 0)
(-0.0696968 10.285 0)
(-0.0719947 10.3248 0)
(-0.0722663 10.3584 0)
(-0.0703319 10.3761 0)
(-0.0660625 10.3624 0)
(-0.0593575 10.2973 0)
(-0.0501371 10.1642 0)
(-0.0383826 9.95617 0)
(-0.0223095 9.65928 0)
(-0.0118924 9.17335 0)
(0.000841249 10.0004 0)
(0.00232074 10.0024 0)
(0.00279682 10.0062 0)
(0.00216316 10.0108 0)
(0.000410032 10.0162 0)
(-0.00276331 10.0231 0)
(-0.00763076 10.0317 0)
(-0.0143247 10.0428 0)
(-0.0228052 10.0571 0)
(-0.0328255 10.0755 0)
(-0.0438835 10.0988 0)
(-0.0551964 10.1276 0)
(-0.0653511 10.1624 0)
(-0.0736801 10.2022 0)
(-0.0807183 10.246 0)
(-0.0860743 10.2932 0)
(-0.0894244 10.3424 0)
(-0.0905155 10.3906 0)
(-0.0891612 10.4326 0)
(-0.0852414 10.4586 0)
(-0.0786937 10.4532 0)
(-0.0694998 10.3964 0)
(-0.0576664 10.2722 0)
(-0.043415 10.073 0)
(-0.0247295 9.78419 0)
(-0.0126864 9.30042 0)
(0.000701971 10.0003 0)
(0.00195431 10.0022 0)
(0.00226966 10.0057 0)
(0.00147753 10.0098 0)
(-0.00048839 10.0146 0)
(-0.00396245 10.0206 0)
(-0.00924945 10.0282 0)
(-0.0165351 10.0381 0)
(-0.0259169 10.0512 0)
(-0.0372396 10.0683 0)
(-0.0500925 10.0905 0)
(-0.0637801 10.1186 0)
(-0.0772834 10.1533 0)
(-0.088842 10.195 0)
(-0.0977078 10.2425 0)
(-0.104668 10.2945 0)
(-0.109353 10.3502 0)
(-0.111488 10.4081 0)
(-0.110886 10.4652 0)
(-0.107437 10.5158 0)
(-0.101099 10.5503 0)
(-0.0918912 10.553 0)
(-0.0798687 10.5046 0)
(-0.0651812 10.3886 0)
(-0.0475793 10.1976 0)
(-0.0206805 9.91069 0)
(-0.0074219 9.37072 0)
(0.000586799 10.0003 0)
(0.00165056 10.002 0)
(0.00183117 10.0052 0)
(0.000918709 10.009 0)
(-0.00119858 10.0132 0)
(-0.00489421 10.0184 0)
(-0.0105507 10.0249 0)
(-0.0184031 10.0336 0)
(-0.0285912 10.0453 0)
(-0.041116 10.061 0)
(-0.0556679 10.0817 0)
(-0.0716476 10.1085 0)
(-0.0881248 10.1424 0)
(-0.103806 10.1839 0)
(-0.116545 10.2335 0)
(-0.125549 10.2896 0)
(-0.131947 10.3505 0)
(-0.135428 10.4154 0)
(-0.135795 10.4824 0)
(-0.132957 10.5485 0)
(-0.126904 10.6079 0)
(-0.117697 10.6507 0)
(-0.105426 10.6615 0)
(-0.0902544 10.6207 0)
(-0.0721038 10.5125 0)
(-0.0515793 10.3269 0)
(-0.01587 10.067 0)
(0.000123473 9.42028 0)
(0.000490708 10.0003 0)
(0.00139726 10.0018 0)
(0.00146607 10.0049 0)
(0.000461226 10.0083 0)
(-0.00176088 10.012 0)
(-0.00560542 10.0165 0)
(-0.011521 10.022 0)
(-0.0198542 10.0293 0)
(-0.030805 10.0394 0)
(-0.0444116 10.0535 0)
(-0.0605393 10.0725 0)
(-0.0786958 10.0976 0)
(-0.0980515 10.1301 0)
(-0.117397 10.1708 0)
(-0.13513 10.2201 0)
(-0.148695 10.2786 0)
(-0.157314 10.3441 0)
(-0.16255 10.4146 0)
(-0.164191 10.489 0)
(-0.162163 10.5654 0)
(-0.1565 10.6405 0)
(-0.147317 10.7084 0)
(-0.134767 10.7592 0)
(-0.119031 10.7776 0)
(-0.100117 10.7441 0)
(-0.0779425 10.6426 0)
(-0.0545442 10.4689 0)
(-0.0171386 10.2238 0)
(0.00454362 9.46042 0)
(0.000409865 10.0003 0)
(0.00118501 10.0017 0)
(0.00115627 10.0045 0)
(8.67274e-05 10.0077 0)
(-0.00220513 10.011 0)
(-0.00614306 10.0148 0)
(-0.0122227 10.0195 0)
(-0.0208846 10.0255 0)
(-0.0324698 10.0338 0)
(-0.0470949 10.046 0)
(-0.0646501 10.063 0)
(-0.0848357 10.0862 0)
(-0.106937 10.1167 0)
(-0.129841 10.1558 0)
(-0.152017 10.2042 0)
(-0.171548 10.2625 0)
(-0.185442 10.3307 0)
(-0.193001 10.4063 0)
(-0.196353 10.4869 0)
(-0.195438 10.5711 0)
(-0.190337 10.6568 0)
(-0.181234 10.7407 0)
(-0.16837 10.8169 0)
(-0.151995 10.8752 0)
(-0.132206 10.9005 0)
(-0.108918 10.8738 0)
(-0.0822502 10.7797 0)
(-0.0550269 10.6226 0)
(-0.0200227 10.3762 0)
(0.0056368 9.49927 0)
(0.000341343 10.0002 0)
(0.00100635 10.0016 0)
(0.000893233 10.0043 0)
(-0.000218331 10.0071 0)
(-0.00255576 10.0101 0)
(-0.00654479 10.0134 0)
(-0.0127159 10.0173 0)
(-0.0215784 10.0221 0)
(-0.0335934 10.0289 0)
(-0.0490576 10.0388 0)
(-0.067957 10.0535 0)
(-0.0899939 10.0743 0)
(-0.114669 10.1025 0)
(-0.140984 10.1394 0)
(-0.167496 10.1861 0)
(-0.192339 10.2435 0)
(-0.213243 10.3116 0)
(-0.2268 10.3904 0)
(-0.232494 10.4767 0)
(-0.233146 10.5676 0)
(-0.228893 10.6616 0)
(-0.220002 10.7566 0)
(-0.206818 10.8489 0)
(-0.189707 10.9326 0)
(-0.168919 10.9979 0)
(-0.144521 11.0297 0)
(-0.116867 11.0095 0)
(-0.0861236 10.9239 0)
(-0.0557378 10.7826 0)
(-0.0221613 10.523 0)
(0.0052837 9.55008 0)
(0.00028288 10.0002 0)
(0.000855237 10.0015 0)
(0.000673548 10.004 0)
(-0.000470704 10.0067 0)
(-0.0028317 10.0094 0)
(-0.00684074 10.0122 0)
(-0.0130486 10.0153 0)
(-0.0220141 10.0192 0)
(-0.0342885 10.0245 0)
(-0.0503216 10.0323 0)
(-0.0703257 10.0442 0)
(-0.0941124 10.0622 0)
(-0.121154 10.0877 0)
(-0.150687 10.1219 0)
(-0.181381 10.1662 0)
(-0.211435 10.2218 0)
(-0.23859 10.289 0)
(-0.260273 10.3678 0)
(-0.272673 10.4579 0)
(-0.275576 10.5554 0)
(-0.272627 10.6568 0)
(-0.2642 10.7604 0)
(-0.250772 10.8641 0)
(-0.232852 10.9643 0)
(-0.210886 11.055 0)
(-0.185161 11.1266 0)
(-0.156144 11.1646 0)
(-0.124645 11.1505 0)
(-0.0906715 11.0741 0)
(-0.0571565 10.9438 0)
(-0.0243175 10.681 0)
(0.00427172 9.60991 0)
(0.000232674 10.0002 0)
(0.00072679 10.0014 0)
(0.000487545 10.0038 0)
(-0.000682466 10.0063 0)
(-0.0030489 10.0087 0)
(-0.00705479 10.0111 0)
(-0.0132591 10.0136 0)
(-0.0222547 10.0166 0)
(-0.0346584 10.0206 0)
(-0.0510358 10.0266 0)
(-0.071793 10.0359 0)
(-0.0970214 10.0505 0)
(-0.126313 10.0725 0)
(-0.158827 10.1036 0)
(-0.193495 10.1449 0)
(-0.228605 10.1978 0)
(-0.261937 10.2632 0)
(-0.290877 10.3414 0)
(-0.312572 10.4317 0)
(-0.322845 10.5336 0)
(-0.321915 10.6425 0)
(-0.314392 10.7541 0)
(-0.300922 10.8671 0)
(-0.282204 10.979 0)
(-0.258893 11.0863 0)
(-0.231538 11.1833 0)
(-0.200749 11.2608 0)
(-0.167425 11.3041 0)
(-0.132563 11.2956 0)
(-0.095869 11.2276 0)
(-0.0597025 11.1225 0)
(-0.0266267 10.8497 0)
(0.00277295 9.67753 0)
(0.000189311 10.0002 0)
(0.000616971 10.0014 0)
(0.000328724 10.0036 0)
(-0.000858197 10.0059 0)
(-0.00322 10.0081 0)
(-0.0072058 10.0102 0)
(-0.0133776 10.0122 0)
(-0.0223499 10.0143 0)
(-0.0347857 10.0172 0)
(-0.0513357 10.0215 0)
(-0.0725541 10.0285 0)
(-0.0987742 10.0398 0)
(-0.12993 10.0577 0)
(-0.165304 10.0846 0)
(-0.203685 10.1224 0)
(-0.243636 10.172 0)
(-0.283004 10.2347 0)
(-0.319166 10.3111 0)
(-0.349171 10.401 0)
(-0.36993 10.5036 0)
(-0.37696 10.6176 0)
(-0.371068 10.7378 0)
(-0.357958 10.8595 0)
(-0.338573 10.9812 0)
(-0.313835 11.1006 0)
(-0.284562 11.2143 0)
(-0.251584 11.317 0)
(-0.21589 11.3994 0)
(-0.178599 11.4473 0)
(-0.140558 11.4431 0)
(-0.101827 11.4005 0)
(-0.0630898 11.3166 0)
(-0.029 11.0124 0)
(0.00114209 9.75124 0)
(0.000152007 10.0002 0)
(0.000522305 10.0013 0)
(0.000192632 10.0034 0)
(-0.00100461 10.0056 0)
(-0.00335461 10.0076 0)
(-0.0073086 10.0093 0)
(-0.0134277 10.0109 0)
(-0.0223387 10.0123 0)
(-0.0347357 10.0141 0)
(-0.0513296 10.017 0)
(-0.0727849 10.0218 0)
(-0.0996223 10.0302 0)
(-0.132076 10.0441 0)
(-0.16984 10.0661 0)
(-0.211817 10.0991 0)
(-0.256334 10.1448 0)
(-0.301528 10.2039 0)
(-0.344805 10.2774 0)
(-0.383142 10.3658 0)
(-0.413286 10.4684 0)
(-0.431986 10.5836 0)
(-0.434544 10.7099 0)
(-0.422506 10.8411 0)
(-0.402789 10.9723 0)
(-0.376652 11.102 0)
(-0.345253 11.2281 0)
(-0.309683 11.3475 0)
(-0.271114 11.4549 0)
(-0.230755 11.5414 0)
(-0.189658 11.5922 0)
(-0.149184 11.6092 0)
(-0.108249 11.5909 0)
(-0.0667352 11.5053 0)
(-0.0312373 11.169 0)
(-0.000436589 9.82896 0)
(0.000440089 10.0013 0)
(0.000108677 10.0002 0)
(7.51923e-05 10.0033 0)
(-0.00112735 10.0053 0)
(-0.00346029 10.0071 0)
(-0.00737477 10.0086 0)
(-0.0134277 10.0097 0)
(-0.0222515 10.0106 0)
(-0.034559 10.0115 0)
(-0.0511027 10.013 0)
(-0.0726264 10.0159 0)
(-0.0997923 10.0217 0)
(-0.133069 10.032 0)
(-0.172518 10.0492 0)
(-0.217535 10.0762 0)
(-0.266524 10.1164 0)
(-0.317267 10.1711 0)
(-0.367475 10.241 0)
(-0.41409 10.3266 0)
(-0.453718 10.4279 0)
(-0.482874 10.5437 0)
(-0.498248 10.6718 0)
(-0.49502 10.8102 0)
(-0.475633 10.9521 0)
(-0.448328 11.0922 0)
(-0.414693 11.2291 0)
(-0.376186 11.361 0)
(-0.334217 11.485 0)
(-0.29018 11.5961 0)
(-0.245299 11.685 0)
(-0.201591 11.7548 0)
(-0.158227 11.7926 0)
(-0.114297 11.7776 0)
(-0.0703124 11.6872 0)
(-0.033245 11.319 0)
(-0.00187398 9.90889 0)
(-2.82601e-05 10.0032 0)
(0.000346448 10.0012 0)
(5.70702e-05 10.0002 0)
(-0.00123188 10.0051 0)
(-0.00354332 10.0068 0)
(-0.00741308 10.008 0)
(-0.0133919 10.0087 0)
(-0.0221116 10.009 0)
(-0.0342951 10.0091 0)
(-0.0507213 10.0094 0)
(-0.0721894 10.0107 0)
(-0.0994659 10.0141 0)
(-0.133198 10.0211 0)
(-0.17374 10.0339 0)
(-0.220931 10.0552 0)
(-0.273749 10.0883 0)
(-0.329997 10.1369 0)
(-0.386872 10.2021 0)
(-0.441627 10.2839 0)
(-0.490764 10.3827 0)
(-0.530575 10.4977 0)
(-0.557437 10.6272 0)
(-0.568101 10.7682 0)
(-0.55773 10.9185 0)
(-0.529823 11.0703 0)
(-0.494037 11.2183 0)
(-0.452322 11.3614 0)
(-0.40646 11.4982 0)
(-0.358095 11.6258 0)
(-0.308677 11.739 0)
(-0.260892 11.846 0)
(-0.213987 11.934 0)
(-0.166595 11.9731 0)
(-0.11981 11.9589 0)
(-0.0736232 11.8614 0)
(-0.0349968 11.4621 0)
(-0.00313726 9.98939 0)
(-0.00132378 10.0049 0)
(-0.000136978 10.003 0)
(0.000231404 10.0011 0)
(6.60032e-06 10.0002 4.43075e-20)
(-0.00360989 10.0064 0)
(-0.00743072 10.0074 0)
(-0.0133307 10.0078 0)
(-0.0219367 10.0077 0)
(-0.0339741 10.007 0)
(-0.0502367 10.0063 0)
(-0.0715606 10.0061 0)
(-0.0987863 10.0073 0)
(-0.132695 10.0114 0)
(-0.173867 10.0201 0)
(-0.2225 10.0361 0)
(-0.278102 10.0625 0)
(-0.339132 10.1029 0)
(-0.402713 10.1612 0)
(-0.465383 10.2382 0)
(-0.523963 10.3333 0)
(-0.574556 10.4462 0)
(-0.613229 10.5756 0)
(-0.636341 10.7189 0)
(-0.640832 10.8727 0)
(-0.621967 11.0342 0)
(-0.584448 11.1951 0)
(-0.539433 11.35 0)
(-0.489234 11.4983 0)
(-0.43589 11.6387 0)
(-0.381147 11.7684 0)
(-0.32839 11.8993 0)
(-0.276987 12.0234 0)
(-0.225314 12.1104 0)
(-0.174152 12.149 0)
(-0.124685 12.1332 0)
(-0.0765623 12.0274 0)
(-0.0364733 11.5983 0)
(-0.00426826 10.0691 0)
(-0.00366934 10.0061 0)
(-0.00140546 10.0046 0)
(-0.000263366 10.0029 2.01623e-19)
(0.000120366 10.0011 -1.40473e-19)
(-4.07831e-05 10.0002 -8.69672e-20)
(-0.00743503 10.0069 0)
(-0.0132523 10.007 0)
(-0.0217399 10.0065 0)
(-0.0336188 10.0052 0)
(-0.0496881 10.0036 0)
(-0.0708064 10.002 0)
(-0.0978652 10.0014 0)
(-0.131743 10.0027 0)
(-0.173193 10.0079 0)
(-0.222692 10.019 0)
(-0.280183 10.039 0)
(-0.344747 10.0715 0)
(-0.414246 10.1205 0)
(-0.484998 10.1899 0)
(-0.552862 10.2802 0)
(-0.614273 10.3896 0)
(-0.665014 10.5175 0)
(-0.701041 10.6616 0)
(-0.718828 10.8188 0)
(-0.715656 10.9849 0)
(-0.687002 11.1568 0)
(-0.638908 11.3257 0)
(-0.584084 11.4864 0)
(-0.525132 11.6386 0)
(-0.46424 11.7811 0)
(-0.40563 11.9284 0)
(-0.348681 12.076 0)
(-0.291597 12.1979 0)
(-0.235443 12.2824 0)
(-0.180801 12.3189 0)
(-0.128878 12.2999 0)
(-0.0790773 12.1849 0)
(-0.0376647 11.7273 0)
(-0.00525549 10.1469 0)
(-0.00743983 10.0065 0)
(-0.00368945 10.0057 -4.5541e-19)
(-0.00148868 10.0043 -2.13058e-19)
(-0.000383548 10.0027 9.89574e-20)
(1.28535e-05 10.001 -9.18869e-20)
(-8.54435e-05 10.0001 0)
(-0.0131651 10.0064 0)
(-0.0215305 10.0054 0)
(-0.0332454 10.0036 0)
(-0.0491049 10.0011 0)
(-0.0699778 9.99842 0)
(-0.0967888 9.99606 0)
(-0.130485 9.99508 0)
(-0.171947 9.99692 0)
(-0.22187 10.0036 0)
(-0.280543 10.0178 0)
(-0.347562 10.0429 0)
(-0.421511 10.0827 0)
(-0.499518 10.1418 0)
(-0.577015 10.2238 0)
(-0.649185 10.3286 0)
(-0.712163 10.4535 0)
(-0.761519 10.597 0)
(-0.79323 10.756 0)
(-0.80405 10.9267 0)
(-0.791741 11.1045 0)
(-0.752106 11.2856 0)
(-0.692639 11.4614 0)
(-0.627575 11.6266 0)
(-0.559699 11.7811 0)
(-0.494294 11.9413 0)
(-0.430807 12.105 0)
(-0.36706 12.2499 0)
(-0.304603 12.368 0)
(-0.244292 12.4486 0)
(-0.186503 12.4817 0)
(-0.132387 12.4583 0)
(-0.081162 12.3336 0)
(-0.0385903 11.849 0)
(-0.00610096 10.2221 0)
(-0.01309 10.0058 0)
(-0.00735993 10.006 9.62366e-19)
(-0.00367242 10.0053 0)
(-0.00156612 10.004 2.09049e-19)
(-0.000496947 10.0025 4.3215e-23)
(-9.05538e-05 10.0009 0)
(-0.00012952 10.0001 0)
(-0.021318 10.0045 0)
(-0.032865 10.0022 0)
(-0.0485076 9.999 0)
(-0.0691128 9.99523 0)
(-0.0956227 9.99137 0)
(-0.129032 9.98827 0)
(-0.170313 9.98719 0)
(-0.220326 9.9899 0)
(-0.27963 9.9988 0)
(-0.348244 10.017 0)
(-0.425356 10.0482 0)
(-0.508914 10.0968 0)
(-0.595217 10.1673 0)
(-0.678743 10.2635 0)
(-0.754038 10.384 0)
(-0.817057 10.5253 0)
(-0.863291 10.6848 0)
(-0.888908 10.8587 0)
(-0.891093 11.0424 0)
(-0.868237 11.2307 0)
(-0.81657 11.42 0)
(-0.745093 11.6012 0)
(-0.669491 11.7692 0)
(-0.596343 11.9416 0)
(-0.525196 12.1182 0)
(-0.453592 12.279 0)
(-0.383403 12.4195 0)
(-0.315941 12.5325 0)
(-0.251845 12.6081 0)
(-0.191273 12.6368 0)
(-0.135241 12.6082 0)
(-0.0828366 12.4736 0)
(-0.039282 11.9633 0)
(-0.00681266 10.2939 0)
(-0.0211343 10.0036 0)
(-0.0128646 10.005 4.94195e-23)
(-0.00717622 10.0053 0)
(-0.00365064 10.0048 -2.20891e-19)
(-0.00163479 10.0037 3.34599e-23)
(-0.000603483 10.0023 0)
(-0.000188492 10.0009 0)
(-0.000170933 10.0001 0)
(-0.0324881 10.0009 0)
(-0.0479096 9.9971 0)
(-0.0682377 9.9924 0)
(-0.0944163 9.98722 0)
(-0.127467 9.98224 0)
(-0.16843 9.97855 0)
(-0.218286 9.97768 0)
(-0.277805 9.98179 0)
(-0.347338 9.99367 0)
(-0.426576 10.0169 0)
(-0.514169 10.0555 0)
(-0.607329 10.1143 0)
(-0.701435 10.1979 0)
(-0.789967 10.3097 0)
(-0.866907 10.4472 0)
(-0.928199 10.6054 0)
(-0.969421 10.781 0)
(-0.987099 10.9694 0)
(-0.979014 11.1652 0)
(-0.944305 11.363 0)
(-0.879706 11.5589 0)
(-0.795746 11.7438 0)
(-0.713965 11.9301 0)
(-0.634048 12.1193 0)
(-0.553178 12.2929 0)
(-0.473845 12.449 0)
(-0.397654 12.5836 0)
(-0.325616 12.6904 0)
(-0.258143 12.7603 0)
(-0.195156 12.7839 0)
(-0.137494 12.7495 0)
(-0.0841351 12.6049 0)
(-0.0397713 12.0705 0)
(-0.00740217 10.3621 0)
(-0.0321628 9.99979 0)
(-0.0207066 10.0027 -5.37179e-19)
(-0.012429 10.0042 0)
(-0.00698916 10.0047 0)
(-0.00361689 10.0044 6.50322e-19)
(-0.00169458 10.0034 0)
(-0.000703109 10.0022 0)
(-0.00028455 10.0008 1.73729e-19)
(-0.0002093 10.0001 0)
(-0.0473232 9.99542 0)
(-0.0673688 9.9899 0)
(-0.0932031 9.98354 0)
(-0.125855 9.97689 0)
(-0.166406 9.97087 0)
(-0.215927 9.96681 0)
(-0.275348 9.9666 0)
(-0.345283 9.97278 0)
(-0.425827 9.98859 0)
(-0.516221 10.018 0)
(-0.614475 10.0656 0)
(-0.716966 10.1361 0)
(-0.818077 10.2343 0)
(-0.910271 10.363 0)
(-0.987094 10.5184 0)
(-1.04468 10.6941 0)
(-1.07888 10.8857 0)
(-1.08677 11.0879 0)
(-1.06686 11.2947 0)
(-1.01914 11.5005 0)
(-0.940865 11.7013 0)
(-0.849587 11.9053 0)
(-0.75979 12.1089 0)
(-0.66823 12.2951 0)
(-0.578072 12.4638 0)
(-0.491517 12.6136 0)
(-0.409831 12.7413 0)
(-0.333691 12.8412 0)
(-0.263267 12.9047 0)
(-0.198222 12.9228 0)
(-0.139201 12.8823 0)
(-0.0850952 12.7278 0)
(-0.0400881 12.1706 0)
(-0.00788291 10.4265 0)
(-0.0468179 9.99393 0)
(-0.0314642 9.99854 0)
(-0.0199116 10.0016 -5.3109e-19)
(-0.0119947 10.0034 -4.93232e-19)
(-0.00678542 10.0042 -9.16187e-19)
(-0.00357028 10.004 0)
(-0.00174533 10.0032 -3.95214e-19)
(-0.000795522 10.002 -3.67123e-19)
(-0.000375031 10.0007 1.70501e-19)
(-0.000245647 10.0001 0)
(-0.0665204 9.98768 0)
(-0.0920032 9.98028 0)
(-0.124238 9.97216 0)
(-0.164322 9.96406 0)
(-0.213386 9.95715 0)
(-0.272482 9.95307 0)
(-0.342427 9.9541 0)
(-0.423641 9.96319 0)
(-0.51585 9.98404 0)
(-0.617744 10.021 0)
(-0.726593 10.079 0)
(-0.837852 10.163 0)
(-0.944844 10.2774 0)
(-1.03904 10.4243 0)
(-1.11372 10.5983 0)
(-1.16546 10.7916 0)
(-1.19057 10.9987 0)
(-1.18684 11.2137 0)
(-1.15368 11.4302 0)
(-1.09195 11.6422 0)
(-1.00613 11.8632 0)
(-0.905207 12.0853 0)
(-0.801404 12.2862 0)
(-0.698678 12.4674 0)
(-0.599822 12.6295 0)
(-0.506642 12.7719 0)
(-0.42002 12.892 0)
(-0.340272 12.9844 0)
(-0.267313 13.0413 0)
(-0.200552 13.0534 0)
(-0.140423 13.0066 0)
(-0.0857578 12.8425 0)
(-0.0402604 12.2638 0)
(-0.0082682 10.487 0)
(-0.0657917 9.98572 0)
(-0.0457654 9.99231 -6.0048e-19)
(-0.0301745 9.99717 5.61112e-19)
(-0.0191274 10.0006 -1.88258e-22)
(-0.0115382 10.0027 4.84004e-19)
(-0.00656409 10.0036 4.49583e-19)
(-0.00351006 10.0036 8.35171e-19)
(-0.0017871 10.0029 5.81803e-19)
(-0.000882962 10.0018 -1.80163e-19)
(-0.000460573 10.0007 0)
(-0.000279798 10.0001 0)
(-0.0908338 9.97739 0)
(-0.122641 9.96795 0)
(-0.162232 9.95802 0)
(-0.210765 9.94857 0)
(-0.269376 9.94104 0)
(-0.339043 9.93743 0)
(-0.420441 9.94043 0)
(-0.51369 9.95345 0)
(-0.618052 9.98064 0)
(-0.731572 10.0267 0)
(-0.850678 10.0969 0)
(-0.969814 10.1959 0)
(-1.08123 10.3279 0)
(-1.17547 10.494 0)
(-1.24577 10.6872 0)
(-1.2894 10.8978 0)
(-1.30334 11.1197 0)
(-1.28628 11.3463 0)
(-1.23857 11.5707 0)
(-1.17003 11.8043 0)
(-1.07385 12.0446 0)
(-0.955884 12.2644 0)
(-0.838534 12.4604 0)
(-0.725313 12.6348 0)
(-0.618469 12.7891 0)
(-0.519326 12.9233 0)
(-0.428353 13.0352 0)
(-0.345492 13.1199 0)
(-0.270396 13.1699 0)
(-0.202231 13.1759 0)
(-0.141223 13.1228 0)
(-0.0861632 12.9493 0)
(-0.0403134 12.3505 0)
(-0.00857123 10.5435 0)
(-0.089833 9.97483 0)
(-0.0642864 9.98362 -6.91744e-22)
(-0.0438155 9.99055 0)
(-0.0289124 9.99584 -3.33249e-22)
(-0.0183141 9.99958 0)
(-0.0110552 10.0019 -4.75019e-19)
(-0.00632276 10.003 -8.82468e-19)
(-0.00343825 10.0032 -1.11982e-23)
(-0.00181991 10.0026 3.80646e-19)
(-0.000963026 10.0017 -1.76805e-19)
(-0.000542639 10.0006 1.64241e-19)
(-0.000311665 10.0001 0)
(-0.121085 9.96423 0)
(-0.160167 9.95267 0)
(-0.208133 9.94096 0)
(-0.26616 9.93033 0)
(-0.335343 9.92258 0)
(-0.416561 9.92009 0)
(-0.510252 9.92598 0)
(-0.61615 9.94414 0)
(-0.732959 9.97911 0)
(-0.857974 10.036 0)
(-0.986683 10.1199 0)
(-1.11248 10.2357 0)
(-1.22653 10.3866 0)
(-1.31857 10.5728 0)
(-1.38208 10.7852 0)
(-1.41528 11.0127 0)
(-1.41603 11.2483 0)
(-1.38402 11.4847 0)
(-1.33007 11.7324 0)
(-1.25148 11.9871 0)
(-1.13585 12.2262 0)
(-1.00129 12.4411 0)
(-0.871106 12.63 0)
(-0.748193 12.7963 0)
(-0.634145 12.9419 0)
(-0.529732 13.0674 0)
(-0.434991 13.1708 0)
(-0.349492 13.2476 0)
(-0.272629 13.2906 0)
(-0.203346 13.2905 0)
(-0.141665 13.2311 0)
(-0.0863516 13.0486 0)
(-0.0402692 12.431 0)
(-0.00880397 10.5962 0)
(-0.11976 9.96092 0)
(-0.0877567 9.97214 6.70673e-19)
(-0.0614743 9.9814 -6.27726e-19)
(-0.0419186 9.98887 5.82092e-19)
(-0.0276131 9.99457 0)
(-0.0174632 9.99862 0)
(-0.0105463 10.0012 4.66198e-19)
(-0.00606337 10.0025 -4.33001e-19)
(-0.00335317 10.0028 -3.50955e-24)
(-0.00184339 10.0024 1.8683e-19)
(-0.00103579 10.0015 -1.73553e-19)
(-0.000620598 10.0006 -1.61191e-19)
(-0.000341065 10.0001 0)
(-0.158156 9.94791 0)
(-0.205528 9.93419 0)
(-0.262921 9.92082 0)
(-0.331488 9.90935 0)
(-0.412263 9.90193 0)
(-0.505942 9.90138 0)
(-0.612646 9.91129 0)
(-0.731634 9.93597 0)
(-0.860951 9.98036 0)
(-0.997034 10.0497 0)
(-1.13436 10.1493 0)
(-1.26524 10.2833 0)
(-1.37985 10.4543 0)
(-1.46724 10.6611 0)
(-1.52142 10.8925 0)
(-1.54187 11.1361 0)
(-1.52749 11.3837 0)
(-1.49004 11.6453 0)
(-1.42611 11.916 0)
(-1.32646 12.1711 0)
(-1.19168 12.4061 0)
(-1.04129 12.6138 0)
(-0.899188 12.794 0)
(-0.76747 12.9511 0)
(-0.647041 13.0875 0)
(-0.538054 13.2038 0)
(-0.440108 13.2986 0)
(-0.352419 13.3675 0)
(-0.274128 13.4036 0)
(-0.203979 13.3974 0)
(-0.141804 13.3318 0)
(-0.0863592 13.1409 0)
(-0.0401473 12.5056 0)
(-0.00897789 10.6452 0)
(-0.15645 9.94369 0)
(-0.116974 9.95749 0)
(-0.0838384 9.96933 6.62988e-19)
(-0.0587517 9.97927 -1.23245e-18)
(-0.0399744 9.98725 1.14385e-18)
(-0.0262619 9.99335 -1.0618e-18)
(-0.016575 9.9977 0)
(-0.0100109 10.0005 4.57658e-19)
(-0.00578781 10.002 -4.24962e-19)
(-0.00325574 10.0025 -3.94787e-19)
(-0.00185797 10.0022 0)
(-0.00110196 10.0014 1.70334e-19)
(-0.000693675 10.0005 0)
(-0.000367454 10.0001 0)
(-0.202989 9.92818 0)
(-0.259706 9.91236 0)
(-0.327586 9.89758 0)
(-0.407746 9.88574 0)
(-0.501079 9.87938 0)
(-0.608027 9.8818 0)
(-0.728314 9.89703 0)
(-0.860626 9.92981 0)
(-1.00224 9.98537 0)
(-1.14864 10.0691 0)
(-1.29326 10.1859 0)
(-1.42734 10.3396 0)
(-1.54013 10.5315 0)
(-1.62022 10.7591 0)
(-1.66248 11.0091 0)
(-1.66791 11.2672 0)
(-1.64923 11.5422 0)
(-1.6021 11.8291 0)
(-1.51513 12.1023 0)
(-1.39438 12.3547 0)
(-1.2411 12.5827 0)
(-1.07593 12.7812 0)
(-0.922957 12.9516 0)
(-0.783379 13.0987 0)
(-0.65739 13.2254 0)
(-0.544505 13.3326 0)
(-0.443883 13.4187 0)
(-0.354414 13.4799 0)
(-0.274998 13.5091 0)
(-0.204208 13.497 0)
(-0.141692 13.4255 0)
(-0.0862195 13.2264 0)
(-0.0399645 12.5746 0)
(-0.00910213 10.6907 0)
(-0.200848 9.92285 0)
(-0.152797 9.93936 0)
(-0.11166 9.95398 0)
(-0.0800638 9.96666 1.30162e-18)
(-0.0559716 9.97724 -1.20826e-18)
(-0.0379613 9.98572 1.12165e-18)
(-0.0248604 9.99219 0)
(-0.0156517 9.99683 -4.83507e-19)
(-0.00945149 9.99986 0)
(-0.00549406 10.0015 4.17113e-19)
(-0.0031462 10.0021 0)
(-0.00186339 10.0019 0)
(-0.00116133 10.0013 0)
(-0.000760161 10.0005 1.6559e-19)
(-0.000390723 10.0001 8.08762e-20)
(-0.256569 9.90485 0)
(-0.323699 9.88711 0)
(-0.403143 9.87131 0)
(-0.495907 9.85974 0)
(-0.602681 9.85539 0)
(-0.723579 9.862 0)
(-0.857835 9.88405 0)
(-1.00345 9.92667 0)
(-1.15684 9.99527 0)
(-1.31247 10.0952 0)
(-1.46272 10.2309 0)
(-1.59781 10.4054 0)
(-1.70618 10.619 0)
(-1.77623 10.8672 0)
(-1.80394 11.1345 0)
(-1.80663 11.4223 0)
(-1.77892 11.7254 0)
(-1.7068 12.0174 0)
(-1.59637 12.2895 0)
(-1.45492 12.5359 0)
(-1.28412 12.7548 0)
(-1.10539 12.9427 0)
(-0.942678 13.1021 0)
(-0.796207 13.2388 0)
(-0.665447 13.3557 0)
(-0.549302 13.4536 0)
(-0.446493 13.5313 0)
(-0.355613 13.5848 0)
(-0.27534 13.6075 0)
(-0.204102 13.5896 0)
(-0.141376 13.5124 0)
(-0.0859608 13.3056 0)
(-0.0397347 12.6384 0)
(-0.00918495 10.7328 0)
(-0.253943 9.89818 0)
(-0.196147 9.91741 0)
(-0.14575 9.93498 1.4874e-18)
(-0.106565 9.95065 1.37977e-18)
(-0.0762189 9.96413 1.28005e-18)
(-0.0531019 9.97533 -1.18759e-18)
(-0.0358815 9.98428 0)
(-0.0234116 9.9911 0)
(-0.0146952 9.99601 0)
(-0.00886859 9.99925 8.81806e-19)
(-0.00518425 10.0011 4.0945e-19)
(-0.00302597 10.0018 3.80291e-19)
(-0.00185906 10.0017 0)
(-0.00121295 10.0012 -1.74968e-19)
(-0.000819492 10.0004 -8.54835e-20)
(-0.000411246 10 0)
(-0.319901 9.8778 0)
(-0.398534 9.85847 0)
(-0.490591 9.84222 0)
(-0.596905 9.83176 0)
(-0.717894 9.83054 0)
(-0.853261 9.84278 0)
(-1.00164 9.87336 0)
(-1.16025 9.92768 0)
(-1.32456 10.0112 0)
(-1.48802 10.1291 0)
(-1.64191 10.2853 0)
(-1.77553 10.4816 0)
(-1.87675 10.717 0)
(-1.93389 10.9851 0)
(-1.96095 11.2847 0)
(-1.95573 11.6038 0)
(-1.9012 11.9151 0)
(-1.80318 12.2082 0)
(-1.66937 12.4757 0)
(-1.50802 12.7135 0)
(-1.32091 12.9213 0)
(-1.12995 13.0973 0)
(-0.958669 13.2453 0)
(-0.806261 13.3712 0)
(-0.671479 13.4782 0)
(-0.55266 13.5671 0)
(-0.448106 13.6365 0)
(-0.356141 13.6827 0)
(-0.275246 13.699 0)
(-0.203725 13.6756 0)
(-0.140898 13.593 0)
(-0.0856085 13.379 0)
(-0.0394686 12.6974 0)
(-0.00923437 10.7718 0)