/*--------------------------------*- C++ -*----------------------------------*\
  =========                 |
  \\      /  F ield         | OpenFOAM: The Open Source CFD Toolbox
   \\    /   O peration     | Website:  https://openfoam.org
    \\  /    A nd           | Version:  8
     \\/     M anipulation  |
\*---------------------------------------------------------------------------*/
FoamFile
{
    version     2.0;
    format      ascii;
    class       volScalarField;
    location    "0.24";
    object      nut;
}
// * * * * * * * * * * * * * * * * * * * * * * * * * * * * * * * * * * * * * //

dimensions      [0 2 -1 0 0 0 0];

internalField   nonuniform List<scalar> 
15677
(
0.000168248
0.000653032
0.00014842
0.00151383
0.000442448
0.000141516
0.0026757
0.000875752
0.000381105
0.000142387
0.00392156
0.00151881
0.000686498
0.000354202
0.000145471
0.00502455
0.00235598
0.00114612
0.000585465
0.000340196
0.000151217
0.00584099
0.00331721
0.00178033
0.000947379
0.000529119
0.000331953
0.000157003
0.00633521
0.00429853
0.00256704
0.00146267
0.000820498
0.000492315
0.000326925
0.000162437
0.00656295
0.00518763
0.0034522
0.00213069
0.00125644
0.000736836
0.000467285
0.00032405
0.000167201
0.00665852
0.00589345
0.00435467
0.00292102
0.00184037
0.00111152
0.000676984
0.000450291
0.000322476
0.000171413
0.00670556
0.00633825
0.00518031
0.00377779
0.00255544
0.00163054
0.00100381
0.000633746
0.00043855
0.000321915
0.000174963
0.00671443
0.00655345
0.00584498
0.00462417
0.003361
0.00228479
0.00147136
0.000923478
0.000601854
0.000430631
0.000321848
0.000178086
0.00670995
0.00666151
0.00629545
0.00537622
0.00419516
0.00304322
0.00207593
0.00134776
0.00086152
0.000578284
0.000425165
0.000322323
0.00018069
0.0067063
0.00669875
0.00652948
0.0059638
0.00498257
0.00385509
0.00279338
0.00190987
0.00124997
0.000813462
0.000560557
0.000421693
0.000322943
0.000183016
0.00670539
0.00670439
0.00664677
0.00635647
0.00564879
0.00465373
0.00358069
0.00259115
0.00177588
0.00117181
0.000775694
0.000547419
0.000419327
0.000323858
0.000185044
0.00670541
0.00670289
0.00668786
0.00656264
0.00614123
0.00536665
0.00437863
0.00335414
0.00242532
0.00166623
0.0011084
0.000745977
0.000537333
0.000418119
0.000324699
0.000186844
0.00670553
0.00670168
0.00669636
0.00665643
0.00644632
0.0059323
0.00511862
0.00414568
0.00316538
0.00228737
0.00157587
0.00105677
0.000722307
0.000530078
0.000417245
0.000325742
0.00018849
0.00670559
0.00670124
0.00669709
0.00668485
0.00660459
0.00632088
0.00573557
0.0049011
0.00394765
0.00300619
0.00217212
0.00150082
0.00101482
0.000703843
0.000524366
0.000417118
0.000326667
0.000189894
0.00670559
0.00670115
0.00669668
0.00669162
0.00666358
0.00654075
0.00618695
0.00555461
0.00471122
0.00377798
0.00287153
0.00207519
0.00143855
0.000980767
0.000688965
0.000520493
0.000417042
0.000327737
0.000191311
0.00670556
0.00670118
0.00669638
0.0066927
0.00668221
0.00663427
0.00646702
0.00605624
0.00539101
0.00454515
0.00363254
0.00275707
0.00199378
0.00138701
0.000952886
0.000677585
0.00051737
0.000417546
0.000328704
0.00019242
0.00670553
0.00670123
0.00669624
0.00669265
0.00668723
0.00666895
0.00659758
0.00638833
0.00593275
0.00524388
0.00440049
0.00350757
0.00265999
0.00192557
0.00134436
0.000930558
0.00066841
0.000515605
0.00041794
0.00032976
0.000193732
0.00670551
0.00670126
0.00669617
0.00669254
0.00668817
0.00668067
0.00665115
0.00655548
0.00630952
0.0058173
0.00511303
0.00427447
0.00340064
0.00257792
0.00186873
0.00130952
0.000912532
0.000661783
0.000514128
0.000418824
0.000330775
0.000194612
0.0067055
0.00670128
0.00669613
0.0066925
0.00668816
0.0066841
0.00667153
0.00662995
0.00651037
0.00623137
0.00571188
0.00499692
0.00416562
0.00330955
0.0025092
0.00182191
0.00128129
0.00089858
0.000656497
0.000513767
0.00041952
0.000331795
0.000195908
0.0067055
0.00670129
0.0066961
0.0066925
0.00668802
0.00668491
0.00667842
0.00666114
0.00660551
0.00646391
0.00615816
0.00561606
0.00489557
0.00407213
0.00323293
0.00245226
0.0017839
0.001259
0.000887781
0.000653284
0.000513409
0.00042066
0.000332918
0.000196623
0.0067055
0.00670129
0.00669609
0.0066925
0.00668792
0.00668502
0.00668039
0.00667309
0.00664805
0.00657987
0.00641802
0.00608962
0.00553143
0.00480746
0.00399301
0.00316916
0.00240616
0.00175403
0.00124208
0.000880185
0.000650758
0.000514036
0.000421542
0.000333811
0.000197916
0.00670551
0.00670128
0.00669609
0.00669249
0.00668787
0.006685
0.00668079
0.00667724
0.00666547
0.00663493
0.00655306
0.00637397
0.00602787
0.00545626
0.00473249
0.00392732
0.00311803
0.00237009
0.00173138
0.00122952
0.000874767
0.000650109
0.000514478
0.000422939
0.000335236
0.000198598
0.00670552
0.00670127
0.00669609
0.00669248
0.00668784
0.00668495
0.00668077
0.00667851
0.00667193
0.00665927
0.00661974
0.00652716
0.00633368
0.00597137
0.00539295
0.00467087
0.00387467
0.00307742
0.00234251
0.0017151
0.00122182
0.000872408
0.000649703
0.000515876
0.000423818
0.000335971
5.33116e-05
0.00670553
0.00670126
0.00669609
0.00669246
0.00668782
0.00668491
0.00668069
0.0066788
0.00667403
0.00666926
0.00665021
0.00660642
0.00650298
0.0062965
0.00592569
0.00533992
0.00461975
0.00383261
0.00304834
0.00232522
0.00170677
0.00121829
0.000871397
0.00065109
0.000516924
0.000426193
0.00028325
6.32047e-05
0.00670554
0.00670125
0.0066961
0.00669245
0.00668781
0.00668487
0.00668063
0.0066788
0.00667457
0.00667302
0.00666307
0.00664492
0.0065922
0.00648056
0.0062664
0.00588355
0.00529697
0.00458469
0.00380789
0.00303213
0.00231597
0.00170302
0.00121725
0.000873024
0.000652606
0.000519
0.000419653
0.000219096
7.05018e-05
0.00670555
0.00670123
0.0066961
0.00669243
0.00668781
0.00668484
0.00668059
0.00667872
0.00667462
0.00667424
0.00666804
0.00666244
0.00663598
0.00658206
0.00646453
0.0062374
0.00585823
0.00527282
0.00456238
0.00379081
0.00302228
0.00231242
0.00170369
0.00122044
0.000875778
0.000654844
0.000520118
0.000399626
0.000177788
7.5865e-05
0.00670556
0.00670122
0.00669611
0.00669242
0.00668781
0.00668481
0.00668057
0.00667865
0.00667458
0.0066745
0.00666976
0.00666982
0.00665603
0.0066348
0.00657267
0.00644777
0.00622868
0.00584182
0.00525413
0.00454748
0.0037825
0.00302045
0.00231586
0.00171015
0.00122638
0.000880064
0.00065793
0.000517888
0.000366776
0.000152421
8.0191e-05
0.00670557
0.00670121
0.00669612
0.0066924
0.0066878
0.00668479
0.00668055
0.00667858
0.00667452
0.00667446
0.00667022
0.0066726
0.00666463
0.00666053
0.00662835
0.00657005
0.00644646
0.00622135
0.00583114
0.00524439
0.00454443
0.0037864
0.00302986
0.00232734
0.0017214
0.00123516
0.000885995
0.000660877
0.000511701
0.000335597
0.000134161
8.35059e-05
0.00670558
0.0067012
0.00669612
0.00669239
0.00668781
0.00668476
0.00668053
0.00667852
0.00667446
0.00667435
0.00667029
0.00667339
0.00666805
0.00667221
0.00665542
0.00663635
0.00657261
0.00644859
0.00621914
0.0058316
0.00525081
0.00455607
0.00380253
0.00304818
0.00234538
0.00173692
0.00124683
0.000893026
0.000663297
0.000500202
0.000305499
0.000121273
8.58445e-05
0.00670558
0.00670119
0.00669613
0.00669238
0.00668781
0.00668474
0.00668052
0.00667847
0.00667442
0.00667423
0.00667025
0.00667349
0.00666922
0.00667703
0.00666783
0.00667023
0.00664165
0.0065805
0.00645622
0.00623066
0.00584807
0.00527089
0.00458031
0.00382931
0.00307505
0.00236975
0.0017564
0.00126077
0.000901112
0.000664363
0.00048469
0.000279505
0.000112828
8.7564e-05
0.00670559
0.00670118
0.00669614
0.00669237
0.00668781
0.00668473
0.00668051
0.00667843
0.00667439
0.00667412
0.00667018
0.00667337
0.00666955
0.00667861
0.00667325
0.00668661
0.00667734
0.00665354
0.00659678
0.00647704
0.00625636
0.00587787
0.0053047
0.00461688
0.00386673
0.00311028
0.00239991
0.0017796
0.00127722
0.000909916
0.000664273
0.000467752
0.000259727
0.000107099
8.88892e-05
0.00670117
0.00670561
0.00669614
0.00669236
0.00668781
0.00668471
0.00668051
0.00667839
0.00667436
0.00667403
0.00667012
0.0066732
0.00666959
0.00667897
0.00667545
0.00669404
0.00669483
0.00669192
0.00667594
0.00662439
0.00651041
0.00629554
0.00592238
0.00535228
0.00466606
0.00391439
0.00315334
0.00243583
0.00180621
0.00129533
0.000920154
0.000662847
0.000452561
0.00024456
0.000103085
8.99585e-05
0.00669615
0.00670117
0.00670563
0.00669234
0.00668782
0.00668469
0.0066805
0.00667835
0.00667434
0.00667394
0.00667006
0.00667303
0.00666954
0.0066789
0.00667622
0.00669684
0.00670291
0.00671113
0.00671818
0.00670844
0.00666436
0.00655778
0.00635001
0.00598154
0.00541404
0.00472734
0.00397217
0.00320421
0.00247677
0.00183612
0.00131809
0.000932483
0.00066089
0.000439638
0.000232744
0.000100235
9.08594e-05
0.00669233
0.00669618
0.00670119
0.00670565
0.00668782
0.00668468
0.0066805
0.00667832
0.00667433
0.00667387
0.00667001
0.00667287
0.00666946
0.00667871
0.00667646
0.00669782
0.00670629
0.00672034
0.00673994
0.0067547
0.00675364
0.0067184
0.00662088
0.00642072
0.00605711
0.00549041
0.00480126
0.00403969
0.00326196
0.00252283
0.00187237
0.00134533
0.000945483
0.00065943
0.000428815
0.000223424
9.81601e-05
9.16432e-05
0.00668783
0.00669236
0.00669624
0.0067012
0.00670567
0.00668466
0.0066805
0.00667829
0.00667432
0.0066738
0.00666998
0.00667273
0.00666939
0.00667848
0.00667651
0.00669811
0.00670761
0.0067245
0.00675089
0.0067794
0.0068039
0.00681304
0.00678858
0.00670062
0.00650884
0.00614868
0.00558162
0.00488657
0.00411627
0.00332676
0.00257876
0.00191704
0.00137386
0.000959087
0.00065853
0.000419932
0.000215913
9.66553e-05
9.23452e-05
0.00668465
0.00668787
0.00669241
0.0066963
0.00670122
0.0067057
0.0066805
0.00667826
0.00667432
0.00667374
0.00666995
0.00667261
0.00666932
0.00667827
0.00667648
0.00669813
0.00670813
0.00672636
0.00675625
0.00679248
0.00683156
0.00686707
0.00688869
0.00687576
0.00679855
0.00661414
0.0062568
0.00568756
0.0049843
0.00420194
0.00340525
0.00264706
0.00196519
0.00140357
0.000973428
0.000658599
0.000412517
0.000209826
9.55374e-05
9.29823e-05
0.00668051
0.00668468
0.00668796
0.00669246
0.00669637
0.00670123
0.00670572
0.00667824
0.00667432
0.00667368
0.00666994
0.0066725
0.00666927
0.00667807
0.00667645
0.00669805
0.00670834
0.00672728
0.00675901
0.00679952
0.00684769
0.00689929
0.00694904
0.00698259
0.00698086
0.00691371
0.00673674
0.00638071
0.00580733
0.00509317
0.00430572
0.00350107
0.00272031
0.00201611
0.00143428
0.000988153
0.000659339
0.000406438
0.000204749
9.47204e-05
9.35713e-05
0.00667821
0.00668057
0.00668476
0.00668806
0.00669251
0.00669643
0.00670125
0.00670575
0.00667432
0.00667362
0.00666993
0.00667239
0.00666922
0.0066779
0.00667641
0.00669795
0.00670841
0.00672781
0.00676062
0.00680359
0.00685715
0.0069189
0.00698659
0.00705064
0.00709909
0.00710752
0.00704712
0.00687551
0.00651947
0.00593921
0.00522672
0.00443295
0.00360354
0.00279777
0.00206915
0.00146579
0.00100373
0.000661257
0.000401401
0.000200471
9.4109e-05
9.41158e-05
0.00667433
0.00667824
0.00668068
0.00668483
0.00668815
0.00669257
0.0066965
0.00670127
0.00670577
0.00667357
0.00666993
0.00667229
0.00666919
0.00667776
0.00667638
0.00669784
0.00670844
0.00672816
0.00676173
0.00680632
0.0068633
0.00693148
0.00701126
0.00709478
0.00717589
0.00723754
0.00725806
0.00720234
0.00702885
0.00667105
0.00609884
0.00538727
0.00456988
0.00371224
0.00287832
0.00212387
0.00149773
0.00101901
0.000664012
0.000397334
0.000196822
9.36665e-05
9.4626e-05
0.00667352
0.00667439
0.00667832
0.0066808
0.00668491
0.00668825
0.00669262
0.00669657
0.00670129
0.0067058
0.00666994
0.00667219
0.00666918
0.00667763
0.00667634
0.00669774
0.00670846
0.00672844
0.00676258
0.00680842
0.00686785
0.00694039
0.00702873
0.00712603
0.00722895
0.00732536
0.0074014
0.0074308
0.00738015
0.00720226
0.00685107
0.00628741
0.00555698
0.00471394
0.00382595
0.00296136
0.00217963
0.00153028
0.00103425
0.000667072
0.000394042
0.000193687
9.33375e-05
9.51001e-05
0.00666996
0.00667351
0.00667452
0.0066784
0.00668093
0.00668499
0.00668836
0.00669268
0.00669664
0.00670131
0.00670582
0.0066721
0.00666918
0.00667751
0.0066763
0.00669766
0.00670847
0.00672867
0.00676329
0.00681018
0.00687153
0.00694748
0.00704223
0.00714989
0.00726952
0.00738981
0.00750344
0.00759055
0.00762732
0.00757809
0.0074164
0.00707098
0.00648587
0.00573379
0.00486184
0.00394206
0.0030459
0.00223599
0.00156311
0.00104933
0.000670622
0.000391374
0.000190968
9.311e-05
9.55468e-05
0.006672
0.00667001
0.00667354
0.00667465
0.00667848
0.00668106
0.00668508
0.00668847
0.00669273
0.00669671
0.00670133
0.00670585
0.00666919
0.0066774
0.00667626
0.0066976
0.00670849
0.00672888
0.00676392
0.00681173
0.00687469
0.00695357
0.00705357
0.00716935
0.0073029
0.00744254
0.00758314
0.00771009
0.00780726
0.00784775
0.0078203
0.00767789
0.0073099
0.00668921
0.00591166
0.0050113
0.00405953
0.0031311
0.00229245
0.0015959
0.00106428
0.000674584
0.000389209
0.000188593
9.29443e-05
9.59616e-05
0.00666922
0.0066719
0.0066701
0.00667358
0.00667479
0.00667856
0.0066812
0.00668516
0.00668858
0.00669279
0.00669679
0.00670135
0.00670587
0.00667729
0.00667621
0.00669758
0.00670853
0.00672908
0.00676448
0.00681311
0.00687746
0.00695902
0.00706353
0.00718629
0.00733174
0.00748846
0.00765247
0.00780895
0.00794908
0.00805209
0.00811946
0.00811717
0.00795898
0.0075649
0.00690393
0.0060909
0.00516114
0.00417677
0.00321602
0.00234858
0.00162841
0.00107903
0.000678749
0.000387512
0.000186517
9.28444e-05
9.63533e-05
0.00667717
0.0066692
0.00667178
0.0066702
0.00667361
0.00667495
0.00667864
0.00668135
0.00668524
0.0066887
0.00669286
0.00669686
0.00670137
0.00670589
0.00667617
0.0066976
0.00670857
0.00672926
0.00676497
0.00681437
0.00687995
0.00696397
0.00707247
0.00720163
0.00735778
0.0075294
0.0077159
0.00789976
0.00807311
0.00822133
0.00835653
0.00845554
0.00843949
0.00825688
0.00782881
0.0071258
0.00626887
0.00530845
0.00429239
0.00329997
0.00240398
0.00166043
0.00109349
0.000682857
0.000386185
0.000184678
9.27756e-05
9.67159e-05
0.00667614
0.00667687
0.00666909
0.00667165
0.00667032
0.00667364
0.00667512
0.00667873
0.0066815
0.00668533
0.00668882
0.00669292
0.00669694
0.0067014
0.00670592
0.00669766
0.0067086
0.00672942
0.00676541
0.0068155
0.00688221
0.0069685
0.00708056
0.00721577
0.00738172
0.00756695
0.00777459
0.00798662
0.00819257
0.00837667
0.00856351
0.00873779
0.00882459
0.00878429
0.00856829
0.008099
0.00735218
0.00644802
0.0054523
0.0044055
0.00338223
0.00245828
0.00169177
0.00110785
0.000686908
0.000385134
0.000183063
9.2753e-05
9.70588e-05
0.00669776
0.00667569
0.0066764
0.00666902
0.00667151
0.00667047
0.00667366
0.0066753
0.00667881
0.00668166
0.00668542
0.00668894
0.00669299
0.00669701
0.00670143
0.00670593
0.00670861
0.00672954
0.00676579
0.00681653
0.00688426
0.00697265
0.00708794
0.00722889
0.00740381
0.00760194
0.00783006
0.00806916
0.00831031
0.00853244
0.0087638
0.00899888
0.00916256
0.00922467
0.00914897
0.0088905
0.0083732
0.00757889
0.00662777
0.00559235
0.00451539
0.00346241
0.00251122
0.00172231
0.00112192
0.000690889
0.000384322
0.000181611
9.27423e-05
9.73748e-05
0.00670856
0.00669718
0.00667487
0.00667587
0.006669
0.00667136
0.00667064
0.00667368
0.0066755
0.00667889
0.00668183
0.00668551
0.00668907
0.00669306
0.00669708
0.00670145
0.00670595
0.00672963
0.00676612
0.00681747
0.00688614
0.00697645
0.00709468
0.00724105
0.00742417
0.00763484
0.00788286
0.00814781
0.00842408
0.00869194
0.00897457
0.00926526
0.00949249
0.00963173
0.0096557
0.00953246
0.00922176
0.00864951
0.00780363
0.00680605
0.00572855
0.00462186
0.00354002
0.00256254
0.00175194
0.0011356
0.000694786
0.00038367
0.000180333
9.27664e-05
9.76743e-05
0.00672972
0.00670753
0.00669564
0.00667426
0.00667527
0.00666907
0.00667117
0.00667085
0.0066737
0.0066757
0.00667898
0.006682
0.00668561
0.00668919
0.00669313
0.00669715
0.00670148
0.00670597
0.00676641
0.00681833
0.00688788
0.00697993
0.00710086
0.0072523
0.00744294
0.00766585
0.00793286
0.00822267
0.00853483
0.00885255
0.00919818
0.00955636
0.00984657
0.0100538
0.010153
0.0101218
0.00993575
0.0095613
0.00892654
0.00802532
0.00698128
0.00585985
0.00472384
0.00361468
0.00261206
0.00178057
0.00114885
0.000698587
0.000383185
0.00017917
9.27903e-05
9.7949e-05
0.0067667
0.0067282
0.00670544
0.00669384
0.00667391
0.00667455
0.00666921
0.00667097
0.00667108
0.00667372
0.00667591
0.00667908
0.00668217
0.00668571
0.0066893
0.0066932
0.00669721
0.00670151
0.00670598
0.00681914
0.00688947
0.00698311
0.00710653
0.00726266
0.00746025
0.00769502
0.00797979
0.00829396
0.00864364
0.00901396
0.00942425
0.00987306
0.0102568
0.0105423
0.0107104
0.0107428
0.0106304
0.0103611
0.009909
0.00920342
0.00824314
0.00715264
0.00598768
0.00482114
0.00368619
0.00265963
0.00180812
0.00116165
0.00070228
0.000382771
0.000178143
9.2842e-05
9.82099e-05
0.00681993
0.00676417
0.00672499
0.00670329
0.00669178
0.00667386
0.00667373
0.00666943
0.00667076
0.00667132
0.00667375
0.00667612
0.00667918
0.00668233
0.00668581
0.00668941
0.00669327
0.00669727
0.00670154
0.006706
0.00689094
0.00698601
0.00711173
0.00727217
0.00747619
0.00772231
0.00802355
0.00836206
0.00875043
0.00917365
0.00964751
0.0102091
0.0107479
0.0111665
0.0114149
0.0114963
0.0114165
0.0111873
0.0108098
0.0102646
0.00947945
0.00845652
0.00731862
0.00611199
0.00491395
0.00375444
0.00270518
0.00183455
0.00117397
0.000705852
0.000382514
0.0001772
9.28862e-05
9.84186e-05
0.00689233
0.0068167
0.00675862
0.00672185
0.00670129
0.00668921
0.00667407
0.00667284
0.00666969
0.00667056
0.00667156
0.00667379
0.00667633
0.0066793
0.00668248
0.00668592
0.00668951
0.00669334
0.00669733
0.00670157
0.00670601
0.00698865
0.00711647
0.00728087
0.00749088
0.00774767
0.00806426
0.00842721
0.00885396
0.00932839
0.00986887
0.0105792
0.0113374
0.0119841
0.0123722
0.0124986
0.0124207
0.0121745
0.0117908
0.0112806
0.0106271
0.00975389
0.00866492
0.00747869
0.00623212
0.00500236
0.0038194
0.00274864
0.00185983
0.00118577
0.000709297
0.000382274
0.000176365
9.29423e-05
9.85932e-05
0.00699108
0.00688771
0.00680909
0.00675311
0.0067189
0.00669998
0.00668636
0.00667443
0.00667194
0.00666996
0.00667039
0.00667179
0.00667387
0.00667652
0.00667942
0.00668263
0.00668602
0.00668961
0.00669341
0.00669738
0.0067016
0.00670602
0.0071208
0.00728879
0.00750436
0.00777111
0.00810207
0.00848926
0.00895267
0.00947687
0.0100951
0.0110009
0.012037
0.0129735
0.0136039
0.0138359
0.013748
0.0134494
0.0129959
0.0124298
0.0117679
0.0109941
0.0100258
0.00886791
0.00763273
0.00634768
0.00508646
0.0038811
0.00279
0.00188393
0.00119706
0.00071261
0.000382137
0.000175701
9.29863e-05
9.87818e-05
0.00712476
0.00698479
0.00687647
0.0068015
0.0067478
0.00671607
0.00669896
0.00668343
0.00667483
0.0066711
0.0066702
0.00667027
0.006672
0.00667397
0.00667669
0.00667955
0.00668276
0.00668613
0.00668971
0.00669347
0.00669744
0.00670163
0.00670603
0.00729599
0.0075167
0.00779265
0.00813716
0.00854787
0.00904553
0.00962013
0.0103336
0.0114762
0.0128185
0.0140545
0.0149531
0.0154067
0.0153987
0.0150564
0.0145171
0.0138441
0.0130859
0.0122634
0.011362
0.0102938
0.00906504
0.00778067
0.00645842
0.00516635
0.00393959
0.00282927
0.00190686
0.00120782
0.000715782
0.000382036
0.000175158
9.3047e-05
9.89858e-05
0.00730251
0.00711625
0.00696867
0.0068652
0.00679403
0.00674262
0.00671345
0.00669805
0.00668061
0.00667515
0.0066704
0.00667037
0.00667023
0.00667217
0.00667409
0.00667685
0.00667969
0.00668289
0.00668623
0.0066898
0.00669354
0.00669749
0.00670165
0.00670604
0.00752799
0.00781237
0.00816963
0.00860266
0.00913232
0.00976017
0.0105866
0.0119884
0.0136239
0.0151183
0.0162461
0.0169272
0.0171388
0.0168905
0.0163142
0.0155558
0.0146796
0.0137377
0.0127569
0.0117267
0.0105566
0.00925588
0.00792247
0.00656424
0.00524212
0.00399492
0.00286648
0.00192864
0.00121806
0.000718418
0.000381957
0.000174575
9.31093e-05
9.92071e-05
0.00753817
0.00729146
0.00709346
0.00695249
0.00685414
0.00678662
0.00673775
0.00671097
0.00669715
0.0066781
0.00667524
0.00666989
0.00667045
0.00667026
0.00667231
0.00667423
0.006677
0.00667982
0.00668301
0.00668634
0.00668988
0.00669361
0.00669754
0.00670167
0.00670604
0.00783039
0.00819958
0.00865341
0.00921349
0.00989847
0.0108504
0.0125108
0.0143944
0.0160769
0.0173634
0.0182181
0.0186453
0.0186406
0.0182035
0.0174468
0.0165148
0.0154696
0.0143663
0.0132386
0.0120838
0.0108126
0.00944
0.0080581
0.00666509
0.00531388
0.0040472
0.00290167
0.00194927
0.0012265
0.000720679
0.000381881
0.000173991
9.31954e-05
9.94474e-05
0.00784653
0.0075238
0.00725988
0.00707059
0.00693661
0.00684331
0.00677926
0.00673326
0.00670852
0.00669616
0.00667622
0.00667503
0.0066696
0.00667042
0.00667036
0.00667242
0.00667439
0.00667713
0.00667996
0.00668313
0.00668644
0.00668997
0.00669368
0.00669756
0.00670167
0.00670604
0.00822712
0.00870014
0.00928971
0.0100351
0.0111171
0.0130174
0.0150894
0.0168852
0.0182563
0.0192153
0.0197992
0.0200196
0.0198587
0.0192964
0.0184197
0.0173656
0.0161925
0.014957
0.0137
0.0124291
0.0110603
0.00961704
0.00818757
0.00676098
0.00538175
0.00409655
0.0029349
0.00196621
0.00123367
0.000723173
0.000381839
0.000173327
9.32809e-05
9.97082e-05
0.00825176
0.00782853
0.00748036
0.00722814
0.00704814
0.00692108
0.00683268
0.00677191
0.00672898
0.00670603
0.00669463
0.00667512
0.00667449
0.00666953
0.00667034
0.0066705
0.00667251
0.00667455
0.00667726
0.0066801
0.00668324
0.00668654
0.00669005
0.00669371
0.00669756
0.00670167
0.00670604
0.00874306
0.00936162
0.010169
0.0113778
0.0134892
0.0156896
0.0175344
0.0189278
0.0199279
0.0206024
0.0209826
0.0210612
0.0208031
0.0201713
0.0192273
0.0180985
0.0168376
0.0155006
0.014135
0.0127594
0.0112984
0.00978666
0.00831089
0.006852
0.00544586
0.00414302
0.00296208
0.00198059
0.00124156
0.000725947
0.000381761
0.000172703
9.34e-05
9.99912e-05
0.00878123
0.00822915
0.00776959
0.00743675
0.00719694
0.0070262
0.00690589
0.00682227
0.0067647
0.00672482
0.00670351
0.0066924
0.00667467
0.00667371
0.0066696
0.00667021
0.00667067
0.0066726
0.00667471
0.00667738
0.00668023
0.00668335
0.00668664
0.00669009
0.00669371
0.00669756
0.00670167
0.00670604
0.00942961
0.0102984
0.011625
0.0139159
0.0161923
0.0180373
0.0194072
0.0203993
0.0211073
0.0215816
0.0218282
0.0218201
0.0215105
0.020851
0.0198811
0.0187163
0.0174024
0.0159928
0.0145395
0.0130722
0.0115258
0.00994858
0.00842813
0.00693824
0.00550644
0.00418089
0.0029851
0.00199633
0.00125022
0.000729006
0.000381778
0.000171944
9.35159e-05
0.000100298
0.00949142
0.00875327
0.00814929
0.00771035
0.00739384
0.0071664
0.00700476
0.00689106
0.00681218
0.0067576
0.00672088
0.00670105
0.00668949
0.00667469
0.00667285
0.00666975
0.00667009
0.00667084
0.00667268
0.00667487
0.00667751
0.00668036
0.00668345
0.00668669
0.00669009
0.00669371
0.00669756
0.00670167
0.00670604
0.0104216
0.0118581
0.0142943
0.0166046
0.0184157
0.0197316
0.0206812
0.0213795
0.021893
0.0222413
0.0224078
0.0223529
0.0220236
0.0213657
0.0203996
0.0192286
0.01789
0.0164328
0.0149117
0.013366
0.0117418
0.0101027
0.00853938
0.00701977
0.00555629
0.00421288
0.00301024
0.00201358
0.00125975
0.000732428
0.000381694
0.000171281
9.368e-05
0.00010063
0.0105322
0.0094565
0.00864463
0.00806917
0.00765199
0.0073518
0.00713653
0.00698382
0.00687664
0.00680254
0.00675071
0.00671724
0.00669923
0.00668626
0.00667492
0.00667201
0.00666991
0.00667
0.006671
0.00667278
0.00667502
0.00667763
0.00668049
0.0066835
0.00668669
0.00669008
0.00669371
0.00669756
0.00670167
0.00670603
0.0120775
0.0146227
0.0169378
0.0186935
0.0199368
0.0208217
0.0214794
0.0219902
0.0223865
0.0226621
0.0227852
0.0227097
0.022382
0.0217452
0.0208037
0.0196479
0.0183065
0.0168225
0.0152512
0.0136399
0.011946
0.0102488
0.00864474
0.00708655
0.00559865
0.00424775
0.00303771
0.0020325
0.00127026
0.000736194
0.000381796
0.00017043
9.38375e-05
0.000100989
0.0104922
0.0122732
0.00929843
0.00853724
0.00799006
0.00759474
0.00731062
0.00710733
0.00696343
0.0068627
0.00679334
0.0067442
0.00671384
0.00669795
0.00668314
0.00667517
0.00667128
0.00667004
0.00666994
0.00667115
0.00667288
0.00667517
0.00667775
0.00668055
0.0066835
0.00668669
0.00669009
0.00669371
0.00669756
0.00670165
0.00670602
0.0149025
0.0172047
0.0188923
0.020053
0.0208602
0.0214568
0.0219342
0.0223367
0.0226691
0.0229073
0.0230105
0.0229317
0.0226195
0.0220164
0.021113
0.0199876
0.0186596
0.0171654
0.0155589
0.0138939
0.012138
0.0103871
0.00873124
0.00714313
0.00564507
0.00428579
0.00306774
0.00205328
0.00128184
0.000740435
0.000381726
0.000169723
9.40637e-05
0.000101378
0.0102493
0.0122367
0.0151291
0.00914662
0.00843163
0.00791228
0.00753861
0.00727032
0.00707886
0.00694363
0.00684925
0.00678445
0.00673797
0.00671079
0.00669687
0.00668036
0.00667529
0.00667071
0.00667012
0.00666993
0.00667128
0.00667299
0.00667531
0.0066778
0.00668056
0.0066835
0.0066867
0.00669009
0.00669371
0.00669754
0.00670163
0.00670601
0.0174169
0.0190307
0.0201048
0.0208275
0.0213502
0.0217728
0.0221497
0.0224972
0.0228004
0.0230232
0.0231215
0.0230508
0.0227634
0.0222019
0.0213453
0.0202603
0.0189572
0.0174655
0.0158364
0.0141282
0.0123181
0.0105003
0.00880463
0.00720494
0.00569597
0.00432733
0.0031006
0.0020761
0.00129465
0.000745054
0.000381939
0.000168782
9.42794e-05
0.000101796
0.0100111
0.0118878
0.0150642
0.0175753
0.00900184
0.00832745
0.00783597
0.00748363
0.00723097
0.00705116
0.00692446
0.00683626
0.00677583
0.00673228
0.00670807
0.00669586
0.00667811
0.0066752
0.00667032
0.00667013
0.00666996
0.00667139
0.00667311
0.00667538
0.0066778
0.00668056
0.0066835
0.0066867
0.00669009
0.00669368
0.00669749
0.0067016
0.006706
0.0191231
0.020111
0.0207469
0.0211885
0.0215418
0.0218695
0.0221989
0.0225261
0.0228217
0.0230428
0.0231461
0.0230915
0.0228353
0.0223206
0.0215157
0.0204771
0.0192069
0.0177273
0.0160859
0.0143436
0.0124641
0.0105962
0.00888489
0.00727254
0.00575182
0.00437274
0.00313659
0.0021012
0.00130876
0.000750391
0.000381906
0.000168031
9.45918e-05
0.000102248
0.00978794
0.0115111
0.014708
0.0174802
0.0191723
0.00886181
0.00822469
0.0077612
0.00742985
0.00719265
0.00702429
0.00690592
0.00682378
0.00676768
0.00672729
0.00670553
0.00669473
0.00667667
0.00667486
0.0066701
0.0066701
0.00667003
0.00667149
0.00667318
0.00667538
0.0066778
0.00668056
0.0066835
0.00668669
0.00669005
0.00669361
0.00669744
0.00670157
0.00670598
0.0200853
0.0206357
0.0209929
0.0212678
0.0215292
0.0218144
0.0221314
0.0224602
0.0227613
0.0229895
0.0231048
0.0230725
0.0228526
0.0223875
0.0216368
0.0206481
0.0194159
0.0179552
0.0163096
0.014515
0.0125869
0.0107008
0.0089727
0.00734653
0.00581315
0.00442245
0.00317603
0.00212882
0.00132447
0.000756141
0.000382272
0.000167004
9.48902e-05
0.000102728
0.00957903
0.011141
0.0142669
0.0172539
0.0190236
0.020028
0.00872489
0.00812357
0.00768811
0.0073774
0.00715545
0.00699829
0.00688816
0.00681209
0.00676009
0.00672294
0.00670309
0.00669292
0.0066759
0.00667434
0.00667001
0.00667003
0.00667014
0.00667153
0.00667318
0.00667538
0.0066778
0.00668056
0.00668351
0.00668665
0.00668997
0.00669354
0.00669738
0.00670154
0.00670597
0.0205057
0.0207789
0.0209704
0.0211539
0.0213747
0.0216527
0.02198
0.0223239
0.0226383
0.0228794
0.0230127
0.0230085
0.0228286
0.0224148
0.0217191
0.0207816
0.0195902
0.0181534
0.0164831
0.0146574
0.0127198
0.0108149
0.00906883
0.00742758
0.00588055
0.00447693
0.0032193
0.00215929
0.00134177
0.00076283
0.00038231
0.00016621
9.53242e-05
0.000103247
0.00938119
0.0107903
0.0137805
0.0169382
0.0188699
0.0198239
0.0203527
0.00859054
0.00802441
0.00761687
0.00732641
0.00711944
0.00697338
0.0068716
0.00680139
0.00675301
0.00671903
0.00670087
0.00669059
0.00667559
0.00667369
0.00667003
0.00666995
0.00667022
0.00667151
0.00667318
0.00667539
0.0066778
0.00668056
0.00668346
0.00668655
0.00668989
0.00669347
0.00669733
0.00670151
0.00670595
0.020557
0.020664
0.0207623
0.0209037
0.0211192
0.0214141
0.0217664
0.022133
0.0224655
0.0227244
0.0228817
0.0229108
0.022774
0.0224121
0.0217711
0.0208847
0.0197355
0.0183022
0.0166251
0.0148091
0.0128633
0.0109392
0.0091741
0.00751645
0.00595468
0.00453671
0.00326683
0.00219285
0.00136112
0.00076998
0.000382883
0.000165112
9.57406e-05
0.000103792
0.00919204
0.0104633
0.0132696
0.0165595
0.0186449
0.0197023
0.020093
0.0203171
0.00845884
0.00792753
0.00754765
0.00727702
0.00708497
0.00695021
0.0068565
0.00679165
0.00674644
0.00671566
0.00669912
0.00668796
0.00667556
0.006673
0.00667012
0.00666984
0.00667026
0.0066715
0.00667319
0.00667539
0.00667781
0.0066805
0.00668335
0.00668645
0.0066898
0.00669341
0.00669727
0.00670148
0.00670594
0.0203581
0.0203683
0.0204202
0.0205549
0.0207906
0.021119
0.0215044
0.0218974
0.0222513
0.0225334
0.0227208
0.0227882
0.022697
0.0223871
0.0217994
0.0209631
0.0198393
0.018422
0.0167737
0.0149704
0.013018
0.0110746
0.00928939
0.00761397
0.00603629
0.0046024
0.00331909
0.00222999
0.00138243
0.000778422
0.000383052
0.000164278
9.63472e-05
0.000104483
0.00901014
0.0101588
0.0127448
0.0161303
0.0183755
0.0195231
0.0199727
0.0200013
0.0200366
0.00833015
0.00783329
0.00748067
0.00722973
0.00705294
0.00692911
0.00684277
0.00678293
0.00674049
0.00671267
0.00669788
0.00668535
0.00667565
0.00667234
0.00667029
0.00666973
0.00667029
0.0066715
0.00667319
0.00667539
0.00667776
0.00668037
0.00668325
0.00668634
0.00668971
0.00669334
0.00669721
0.00670146
0.00670592
0.0199812
0.0199387
0.0199791
0.0201334
0.0204084
0.0207797
0.021202
0.021623
0.0220019
0.0223132
0.0225374
0.022648
0.0226044
0.0223458
0.0218095
0.0210125
0.0199209
0.0185446
0.0169286
0.0151411
0.0131843
0.011222
0.00941563
0.00772105
0.00612619
0.00467469
0.00337666
0.00227096
0.00140642
0.000787405
0.000383897
0.000163148
9.70468e-05
0.000105297
0.00883455
0.00987844
0.0122167
0.0156512
0.0180745
0.0193152
0.0198033
0.0198624
0.0196635
0.0195854
0.00820473
0.00774212
0.00741655
0.00718581
0.0070238
0.00690992
0.00683032
0.00677506
0.00673509
0.00670999
0.00669683
0.00668296
0.00667581
0.00667181
0.00667047
0.00666968
0.0066703
0.00667152
0.00667319
0.00667533
0.00667764
0.00668025
0.00668314
0.00668624
0.00668962
0.00669327
0.00669714
0.00670143
0.0067059
0.0194687
0.0194075
0.0194633
0.0196593
0.0199844
0.0204033
0.0208627
0.021313
0.0217218
0.0220698
0.0223377
0.0224958
0.0225012
0.0222928
0.0218044
0.0210491
0.0200013
0.018669
0.0170891
0.0153211
0.0133627
0.011382
0.00955379
0.00783869
0.00622531
0.00475438
0.00344011
0.00231647
0.00143283
0.00079811
0.00038431
0.000162045
9.81642e-05