/*--------------------------------*- C++ -*----------------------------------*\
  =========                 |
  \\      /  F ield         | OpenFOAM: The Open Source CFD Toolbox
   \\    /   O peration     | Website:  https://openfoam.org
    \\  /    A nd           | Version:  8
     \\/     M anipulation  |
\*---------------------------------------------------------------------------*/
FoamFile
{
    version     2.0;
    format      ascii;
    class       volScalarField;
    location    "0.37";
    object      p;
}
// * * * * * * * * * * * * * * * * * * * * * * * * * * * * * * * * * * * * * //

dimensions      [0 2 -2 0 0 0 0];

internalField   nonuniform List<scalar> 
15677
(
74.597
74.2405
73.8278
74.305
73.8159
73.8296
74.28
73.8431
73.839
73.7232
74.2547
73.8445
73.8393
73.7322
73.6318
74.2329
73.8468
73.8391
73.7315
73.6394
73.5357
74.2094
73.8491
73.8388
73.7326
73.6392
73.5423
73.4212
74.1843
73.8516
73.8379
73.7329
73.6403
73.5423
73.427
73.2845
74.1581
73.8547
73.8365
73.733
73.6408
73.5432
73.4271
73.2896
73.1184
74.1308
73.8568
73.8345
73.7328
73.6412
73.5438
73.4281
73.2898
73.1227
72.9151
74.1022
73.8582
73.8319
73.7324
73.6416
73.5445
73.4288
73.2909
73.1231
72.9187
72.667
74.0727
73.8599
73.8286
73.7321
73.642
73.5451
73.4296
73.2917
73.1243
72.9193
72.6699
72.3659
74.0428
73.861
73.8253
73.7323
73.6426
73.546
73.4307
73.2929
73.1254
72.9207
72.6706
72.368
72.0032
74.013
73.861
73.8218
73.7327
73.6436
73.5472
73.4321
73.2944
73.1269
72.9221
72.6723
72.3689
72.0045
71.5707
73.9864
73.8598
73.8183
73.7335
73.6453
73.5492
73.4342
73.2965
73.129
72.9242
72.6742
72.3708
72.0056
71.571
71.0602
73.9635
73.8577
73.8148
73.7349
73.6479
73.5523
73.4375
73.2997
73.132
72.927
72.6768
72.3733
72.0079
71.5724
71.0595
70.4641
73.9436
73.8556
73.8119
73.7369
73.6518
73.5568
73.4423
73.3044
73.1365
72.9311
72.6806
72.3767
72.011
71.575
71.0611
70.4623
69.7757
73.9262
73.8536
73.8097
73.7394
73.6572
73.5634
73.4493
73.3114
73.1431
72.9373
72.6862
72.3817
72.0154
71.5789
71.0641
70.4641
69.7726
68.9894
73.911
73.8516
73.8081
73.7424
73.6639
73.5724
73.4593
73.3215
73.1529
72.9463
72.6944
72.389
72.0219
71.5845
71.0689
70.4677
69.7747
68.9848
68.1006
73.898
73.8498
73.807
73.7458
73.6712
73.5834
73.473
73.3358
73.1669
72.9596
72.7065
72.3997
72.0312
71.5926
71.0759
70.4734
69.7788
68.9872
68.0945
67.1067
73.8868
73.8481
73.8065
73.7496
73.6793
73.5954
73.4896
73.3553
73.1867
72.9786
72.7241
72.4155
72.045
71.6045
71.0859
70.4819
69.7856
68.9918
68.0972
67.0988
66.0064
73.8778
73.8466
73.8065
73.7539
73.688
73.6086
73.5077
73.3791
73.2137
73.0053
72.7493
72.4385
72.0652
71.6218
71.1006
70.4942
69.7957
68.9998
68.1024
67.1018
65.9966
64.8004
73.871
73.845
73.807
73.7585
73.6973
73.6227
73.5275
73.4049
73.2466
73.0417
72.7845
72.4712
72.0946
71.6473
71.1221
70.512
69.8104
69.0116
68.1114
67.1075
66
64.7887
63.4919
73.8657
73.8437
73.8078
73.7635
73.7071
73.6378
73.5488
73.4332
73.2823
73.0861
72.8328
72.517
72.1364
71.6841
71.1535
70.5381
69.8317
69.0288
68.1251
67.1177
66.006
64.7923
63.478
62.0855
73.8616
73.8425
73.8088
73.7685
73.7172
73.6535
73.5713
73.4636
73.3215
73.1345
72.8916
72.5797
72.1948
71.7366
71.199
70.5763
69.8629
69.0538
68.1449
67.1331
66.0174
64.7987
63.4818
62.0694
60.5933
73.8583
73.8416
73.8099
73.7732
73.7273
73.6699
73.5949
73.4958
73.3636
73.1875
72.9557
72.6562
72.2749
71.81
71.2638
70.6315
69.9085
69.0904
68.1736
67.1554
66.0344
64.8109
63.4884
62.0732
60.5744
59.0457
73.8557
73.8408
73.8111
73.7775
73.7365
73.6859
73.6193
73.5295
73.4082
73.2445
73.026
72.7397
72.3727
71.9107
71.3545
70.7103
69.9745
69.1439
68.2158
67.1879
66.0591
64.8294
63.5012
62.0793
60.5756
58.9901
57.3821
73.8536
73.8402
73.8122
73.7815
73.7448
73.7007
73.6432
73.5643
73.4549
73.305
73.1017
72.8313
72.4796
72.0336
71.479
70.8205
70.0686
69.2215
68.2776
67.2357
66.0951
64.8562
63.5206
62.0923
60.5803
58.9928
57.315
55.5878
73.8519
73.8396
73.8133
73.785
73.7524
73.714
73.6651
73.5985
73.5033
73.3683
73.1821
72.9301
72.5971
72.1683
71.6313
70.9722
70.2006
69.3323
68.3673
67.3058
66.1482
64.8953
63.5489
62.112
60.5917
58.9937
57.3176
55.5576
53.7359
73.8505
73.8392
73.8141
73.7883
73.7591
73.7259
73.6849
73.6298
73.5506
73.4339
73.2663
73.035
72.7239
72.3166
71.7985
71.158
70.3826
69.488
68.4958
67.408
66.2266
64.9533
63.5904
62.1409
60.6099
59.0022
57.312
55.5498
53.7245
51.8323
73.8493
73.8389
73.8149
73.7914
73.7651
73.7366
73.7027
73.658
73.5941
73.4981
73.3536
73.1451
72.8587
72.4768
71.9828
71.3624
70.606
69.7031
68.6769
67.5548
66.3411
65.0392
63.6524
62.1837
60.6377
59.0177
57.3197
55.5404
53.7076
51.8268
49.6858
73.8483
73.8386
73.8155
73.7941
73.7704
73.7461
73.7185
73.6833
73.6333
73.5571
73.4392
73.2593
73.0004
72.6475
72.1823
71.5881
70.8523
69.968
68.9276
67.7622
66.5062
65.1655
63.7448
62.2483
60.68
59.0429
57.3336
55.5497
53.699
51.8081
49.6836
47.2674
73.8475
73.8384
73.8162
73.7966
73.7752
73.7546
73.7326
73.706
73.6684
73.6104
73.5178
73.3715
73.1475
72.827
72.3951
71.8329
71.1248
70.2607
69.2372
68.0502
66.7403
65.3484
63.8817
62.3459
60.7454
59.0832
57.3571
55.5631
53.7088
51.8016
49.6658
47.2671
44.8215
73.8468
73.8382
73.8168
73.7988
73.7794
73.7621
73.7452
73.7261
73.6999
73.6582
73.5889
73.4746
73.2921
73.0137
72.6193
72.0945
71.4211
70.5853
69.5801
68.4071
67.0666
65.6088
64.0813
62.4917
60.8462
59.1479
57.3958
55.5863
53.7222
51.8099
49.6592
47.2505
44.823
42.3905
73.8462
73.838
73.8173
73.8007
73.7831
73.7688
73.7563
73.744
73.7278
73.701
73.6527
73.5679
73.4252
73.1975
72.8529
72.3707
71.7384
70.9389
69.9615
68.8035
67.4724
65.9735
64.367
62.7062
60.999
59.25
57.4595
55.6242
53.7455
51.8234
49.6642
47.2435
44.8084
42.3922
39.9949
73.8379
73.8455
73.8178
73.8024
73.7864
73.7747
73.7662
73.7599
73.7527
73.739
73.7098
73.6517
73.5458
73.367
73.0833
72.6591
72.0742
71.3188
70.3782
69.2459
67.9249
66.4291
64.7691
63.0154
61.2261
59.4077
57.5623
55.6873
53.7825
51.8459
49.6763
47.2451
44.8012
42.3787
39.9963
37.6471
73.8183
73.8378
73.8447
73.8038
73.7894
73.7799
73.7749
73.7739
73.7748
73.7728
73.7607
73.7267
73.6543
73.5206
73.2961
72.9442
72.4256
71.7217
70.827
69.7306
68.4313
66.9388
65.2739
63.4531
61.5562
59.645
57.7233
55.7902
53.8443
51.881
49.6961
47.2545
44.7999
42.3704
39.9836
37.6479
35.3595
73.8051
73.819
73.8377
73.844
73.7919
73.7845
73.7826
73.7864
73.7943
73.8029
73.8059
73.7935
73.7514
73.659
73.4893
73.2079
72.7737
72.1444
71.3044
70.2543
68.9882
67.5115
65.841
64.0053
62.0265
59.9929
57.9685
55.9533
53.946
51.9402
49.7275
47.2696
44.8059
42.3656
39.9738
37.6357
35.3593
33.143
73.7942
73.8069
73.8199
73.8376
73.8433
73.7886
73.7895
73.7974
73.8116
73.8295
73.846
73.853
73.838
73.783
73.6635
73.4478
73.0966
72.5645
71.8069
70.8132
69.5919
68.1434
66.4807
64.6287
62.6235
60.4922
58.331
56.2038
54.109
52.0388
49.7816
47.2947
44.8154
42.3669
39.965
37.624
35.3475
33.1418
31.0061
73.7921
73.7972
73.8089
73.8208
73.8376
73.8427
73.7956
73.8072
73.827
73.8531
73.8816
73.9059
73.9152
73.8938
73.8199
73.6645
73.3908
72.955
72.3076
71.4033
70.2382
68.8309
67.1893
65.3347
63.3005
61.13
58.855
56.5773
54.3618
52.1991
49.8742
47.3404
44.8326
42.3693
39.9606
37.6111
35.3336
33.1302
31.0039
28.9549
73.8007
73.7969
73.8006
73.811
73.8217
73.8375
73.8421
73.8159
73.8406
73.874
73.9132
73.9528
73.9837
73.9925
73.9597
73.8592
73.657
73.3116
72.7745
71.9933
70.9232
69.5698
67.9631
66.1199
64.0706
61.8568
59.5285
57.1211
54.742
52.4505
50.028
47.4227
44.8674
42.3767
39.9547
37.6003
35.3164
33.1138
30.9924
28.9516
26.9936
73.8232
73.8076
73.8018
73.804
73.813
73.8227
73.8374
73.8415
73.8527
73.8926
73.9412
73.9943
74.0446
74.0802
74.0844
74.0335
73.8967
73.635
73.202
72.5452
71.6107
70.3559
68.7981
66.9809
64.9307
62.6871
60.2998
57.8242
55.2997
52.8326
50.2736
47.5647
44.9359
42.3983
39.9507
37.5852
35.2988
33.0923
30.9734
28.9402
26.9894
25.1247
73.8628
73.833
73.8145
73.8068
73.8074
73.815
73.8236
73.8374
73.841
73.909
73.9661
74.0312
74.0986
74.1582
74.1953
74.1891
74.1116
73.9267
73.5906
73.0521
72.256
71.1481
69.6902
67.914
65.8779
63.6185
61.1848
58.6333
56.0251
53.3976
50.6523
47.7979
45.0615
42.4498
39.9566
37.5683
35.2737
33.0675
30.9474
28.9185
26.9778
25.1196
23.3495
73.9227
73.8762
73.8422
73.8215
73.8118
73.8106
73.8169
73.8245
73.8373
73.8405
73.9881
74.064
74.1465
74.2274
74.294
74.3278
74.3036
74.1887
73.9418
73.514
72.8505
71.8945
70.5932
68.9153
66.9091
64.6491
62.1823
59.5659
56.8639
54.1367
51.2173
48.1645
45.2762
42.5549
39.9885
37.5571
35.2431
33.0321
30.9153
28.8881
26.9534
25.1079
23.3436
21.6677
74.0064
73.9409
73.8884
73.8517
73.8284
73.8166
73.8138
73.8187
73.8254
73.8373
73.8401
74.0931
74.1892
74.2889
74.3816
74.4512
74.475
74.4232
74.2578
73.9325
73.3939
72.5846
71.4474
69.9335
68.0208
65.7762
63.2911
60.6222
57.8358
54.9962
51.9622
48.7182
45.622
42.7456
40.0697
37.5671
35.2133
32.9869
30.8692
28.8486
26.9187
25.0808
23.3317
21.6611
20.0783
74.1172
74.0306
73.9566
73.9009
73.8609
73.835
73.8212
73.8169
73.8205
73.8262
73.8373
73.8397
74.2269
74.3437
74.4595
74.5609
74.6277
74.6328
74.5413
74.3099
73.8876
73.2173
72.2401
70.901
69.1569
66.9973
64.5098
61.8023
58.942
55.9974
52.8342
49.4554
46.152
43.0624
40.2312
37.6215
35.2
32.9378
30.809
28.7916
26.8718
25.0419
23.3019
21.6489
20.0711
18.5794
74.2581
74.149
74.0506
73.9728
73.9131
73.8698
73.8414
73.8256
73.8198
73.8222
73.8271
73.8372
73.8393
74.3921
74.529
74.6585
74.7635
74.8197
74.7949
74.649
74.3338
73.7938
72.9695
71.8024
70.2412
68.2516
65.8369
63.1057
60.184
57.1428
53.856
50.3257
46.8661
43.5574
40.5117
37.7494
35.2253
32.9001
30.7401
28.7162
26.8039
24.9876
23.2589
21.6167
20.0586
18.5716
17.1685
74.432
74.2995
74.1742
74.0715
73.9886
73.9247
73.8783
73.8475
73.8299
73.8226
73.8238
73.8279
73.8372
73.839
74.5904
74.7455
74.8844
74.9862
75.0214
74.953
74.7357
74.3162
73.6361
72.6348
71.2559
69.4546
67.2073
64.5327
61.5632
58.4356
55.0319
51.3528
47.7174
44.2343
40.9615
37.9872
35.3159
32.8945
30.6774
28.6275
26.7134
24.9091
23.1975
21.5698
20.0239
18.5589
17.1601
15.8423
74.6407
74.4853
74.3311
74.2008
74.0917
74.0035
73.9356
73.8863
73.8532
73.8339
73.8252
73.8254
73.8286
73.8372
73.8387
74.8225
74.9924
75.1345
75.2235
75.225
75.0966
74.7879
74.242
73.3982
72.1966
70.5853
68.5284
66.0145
63.0814
59.879
56.3668
52.5426
48.7294
45.0499
41.5882
38.383
35.5059
32.9449
30.6396
28.5395
26.605
24.8037
23.1085
21.5014
19.9733
18.5218
17.1471
15.8334
14.5977
74.8853
74.7086
74.5245
74.3646
74.2264
74.1107
74.0176
73.946
73.8938
73.8587
73.8377
73.8277
73.8268
73.8294
73.8372
73.8385
75.0879
75.2671
75.4037
75.4679
75.4201
75.2125
74.7905
74.0941
73.0622
71.6379
69.7758
67.4504
64.6672
61.477
57.8664
53.9025
49.9101
46.0271
42.352
38.9472
35.84
33.0829
30.648
28.4687
26.4918
24.6759
22.9886
21.4023
19.8982
18.4677
17.1078
15.8202
14.5883
13.4311
75.1654
74.9712
74.7572
74.5665
74.3968
74.2503
74.1284
74.0307
73.9556
73.9008
73.8637
73.8412
73.83
73.8281
73.83
73.8372
73.8383
75.3844
75.5651
75.6849
75.7094
75.5937
75.2853
74.7258
73.854
72.61
70.9419
68.8129
66.2124
63.156
59.5372
55.4412
51.2694
47.1754
43.2748
39.6442
36.3308
33.3494
30.7309
28.4338
26.3878
24.5378
22.8421
21.2683
19.7893
18.3861
17.0504
15.7788
14.5749
13.4213
12.3389
75.479
75.2731
75.0309
74.8094
74.6066
74.4266
74.2725
74.1449
74.0428
73.9645
73.9073
73.8683
73.8444
73.832
73.8292
73.8305
73.8372
73.8382
75.7076
75.8794
75.9683
75.9352
75.7305
75.2972
74.5749
73.5023
72.0231
70.0922
67.6857
64.8009
61.3047
57.1689
52.819
48.5067
44.3665
40.4929
36.9468
33.7571
30.9247
28.4598
26.309
24.4007
22.6795
21.1037
19.6419
18.2679
16.9626
15.7184
14.5315
13.4076
12.3284
11.3168
75.8221
75.6131
75.3464
75.0957
74.8593
74.6437
74.4542
74.2929
74.1599
74.0539
73.9726
73.9131
73.8724
73.8472
73.8338
73.8301
73.831
73.8372
73.838
76.051
76.2008
76.2414
76.1301
75.8124
75.2286
74.317
73.0189
71.2831
69.0752
66.3773
63.0485
59.0118
54.5714
50.0334
45.6386
41.5025
37.7025
34.2793
31.2413
28.5769
26.277
24.2781
22.5099
20.9173
19.46
18.1077
16.8356
15.6247
14.4682
13.3624
12.3145
11.3053
10.3655
76.1881
75.988
75.7029
75.4265
75.1573
74.9051
74.6777
74.4793
74.3114
74.1734
74.0638
73.9797
73.9183
73.876
73.8495
73.8352
73.8309
73.8314
73.8372
73.8379
76.4056
76.517
76.4891
76.2759
75.8195
75.058
73.9312
72.3838
70.3736
67.8712
64.7304
60.8427
56.4514
51.7672
47.1026
42.6825
38.6049
34.9246
31.6588
28.7963
26.3148
24.1877
22.3439
20.7161
19.2506
17.9093
16.6633
15.4894
14.369
13.2965
12.2676
11.2914
10.3484
9.5719
76.5681
76.3922
76.0977
75.8016
75.5024
75.2137
74.9468
74.7085
74.5019
74.3278
74.1854
74.0724
73.9859
73.9226
73.8789
73.8515
73.8365
73.8316
73.8317
73.8372
73.8378
76.7591
76.8128
76.6932
76.3522
75.7295
74.7632
73.3953
71.5781
69.2734
66.3324
62.616
58.3251
53.6339
48.7699
44.0442
39.6624
35.6981
32.1795
29.1006
26.4326
24.1447
22.1954
20.5076
19.0187
17.6779
16.4492
15.3056
14.2259
13.1921
12.1994
11.2432
10.3352
9.5658
8.90307
76.9499
76.8178
76.5262
76.2191
75.8949
75.5716
75.2648
74.9843
74.7358
74.5217
74.3421
74.1956
74.0797
73.991
73.9261
73.8813
73.8532
73.8375
73.8322
73.832
73.8372
73.8378
77.0966
77.0703
76.833
76.3361
75.5192
74.3205
72.6887
70.5791
67.8411
64.3075
60.1427
55.5023
50.578
45.6053
40.8899
36.609
32.8075
29.4862
26.6181
24.1587
22.0714
20.3018
18.7691
17.4165
16.1968
15.0767
14.0314
13.0417
12.0901
11.1732
10.2855
9.55892
8.91015
8.20792
77.3184
77.2538
76.9813
76.6753
76.3336
75.9796
75.634
75.3104
75.0174
74.7596
74.5386
74.3541
74.204
74.0855
73.9949
73.9288
73.8832
73.8545
73.8383
73.8327
73.8323
73.8372
73.8377
77.3997
77.2685
76.885
76.2037
75.1632
73.7076
71.7867
69.2483
65.9013
61.8822
57.3309
52.4122
47.3255
42.3169
37.679
33.5542
29.9573
26.8623
24.2226
21.9813
20.0976
18.5073
17.1272
15.9071
14.8043
13.7885
12.8371
11.9329
11.0593
10.2141
9.50861
8.90458
8.20834
7.45596
77.6547
77.6866
77.4531
77.1641
76.8155
76.4373
76.0558
75.6895
75.3503
75.0457
74.7795
74.5525
74.3636
74.2104
74.0897
73.9978
73.9308
73.8846
73.8555
73.839
73.833
73.8325
73.8372
73.8377
77.6475
77.3837
76.8247
75.9281
74.6381
72.8971
70.5505
67.3897
63.5327
59.1062
54.2431
49.1111
43.9282
38.9503
34.4491
30.5278
27.1694
24.3223
21.9231
19.9046
18.2246
16.8112
15.5799
14.4877
13.4971
12.581
11.7189
10.8959
10.096
9.43686
8.85545
8.19747
7.44888
6.63184
77.9371
78.0989
77.9288
77.6767
77.3355
76.9423
76.5303
76.1232
75.7376
75.3841
75.0692
74.7954
74.5631
74.3705
74.2148
74.0926
73.9998
73.9322
73.8856
73.8562
73.8395
73.8333
73.8326
73.8372
73.8376
77.8154
77.3905
76.6242
75.4843
73.9127
71.7483
68.7713
65.0894
60.8192
56.0596
50.9398
45.6501
40.4314
35.5453
31.2336
27.5556
24.4622
21.8782
19.7259
17.9314
16.4526
15.2118
14.1244
13.1551
12.2717
11.4505
10.673
9.92681
9.31507
8.78263
8.14838
7.43346
6.62179
5.73413
78.1403
78.4707
78.3926
78.2019
77.8862
77.4906
77.0559
76.6122
76.1813
75.778
75.4116
75.0875
74.8072
74.5703
74.3748
74.2174
74.0943
74.001
73.933
73.8863
73.8567
73.8398
73.8336
73.8328
73.8372
73.8376
77.877
77.2603
76.2566
74.8375
72.8442
70.0481
66.5508
62.4617
57.8467
52.7953
47.4615
42.0663
36.8715
32.1362
28.0615
24.6594
21.8503
19.5384
17.6353
16.0627
14.7804
13.7065
12.7575
11.9057
11.1243
10.393
9.69562
9.14128
8.65808
8.07343
7.38283
6.60504
5.72286
4.75989
78.2361
78.7786
78.8254
78.7251
78.4575
78.0757
77.6293
77.1557
76.6826
76.2298
75.8104
75.4326
75.1005
74.8146
74.5743
74.3768
74.2185
74.0949
74.0014
73.9334
73.8866
73.857
73.84
73.8338
73.8329
73.8372
73.8376
77.8028
76.9645
75.6839
73.8433
71.223
67.9166
64.0254
59.5864
54.6529
49.3393
43.8338
38.389
33.2804
28.7529
24.9572
21.8569
19.345
17.3089
15.6533
14.298
13.2059
12.2923
11.4758
10.7358
10.051
9.40476
8.90326
8.48024
7.94584
7.3047
6.55267
5.7057
4.74772
3.7027
78.1925
78.9971
79.2047
79.2291
79.0363
78.6889
78.2452
77.7511
77.2411
76.7409
76.2682
75.8346
75.4468
75.1078
74.8179
74.5754
74.3769
74.2182
74.0946
74.0012
73.9333
73.8866
73.857
73.8403
73.8339
73.8329
73.8372
73.8376
77.561
76.4623
74.7605
72.3008
69.1858
65.5028
61.2614
56.4852
51.2507
45.7062
40.0777
34.6454
29.6873
25.4218
21.9411
19.1618
16.9539
15.1933
13.7805
12.6357
11.7262
10.966
10.2754
9.64122
9.04789
8.60359
8.2366
7.76346
7.17354
6.47105
5.65169
4.72964
3.68995
2.55548
77.973
79.098
79.5054
79.6929
79.607
79.3185
78.8961
78.3941
77.8552
77.3117
76.7867
76.2963
75.8502
75.454
75.1101
74.8176
74.574
74.3753
74.2168
74.0934
74.0004
73.9328
73.8863
73.8573
73.8406
73.834
73.8329
73.8372
73.8376
77.1077
75.6062
73.2986
70.36
66.8866
62.8569
58.2666
53.1606
47.6456
41.909
36.215
30.8627
26.1197
22.1657
19.0293
16.5838
14.6821
13.1928
12.0155
11.0733
10.3384
9.72369
9.15227
8.61828
8.23463
7.92941
7.51376
6.98606
6.33589
5.56676
4.67399
3.67072
2.54249
1.31112
77.5274
79.0503
79.6991
80.0929
80.1503
79.9505
79.5718
79.0783
78.5214
77.941
77.3668
76.8197
76.3136
75.8571
75.4549
75.1078
74.8142
74.5705
74.3721
74.2142
74.0915
73.9989
73.9318
73.8865
73.8579
73.8408
73.834
73.8328
73.8372
73.8377
76.2918
74.2257
71.4562
68.1741
64.3601
59.976
55.0366
49.6114
43.8436
37.9637
32.2697
27.069
22.6035
19.0042
16.2344
14.1299
12.5321
11.3068
10.3563
9.60765
9.03839
8.56135
8.10262
7.78891
7.55029
7.1984
6.7297
6.14272
5.4273
4.58584
3.61341
2.52247
1.298
-0.0379843
78.8117
76.7043
79.7526
80.4026
80.6442
80.5674
80.2596
79.795
79.2344
78.6263
78.0079
77.406
76.8394
76.3202
75.8561
75.4502
75.1018
74.8081
74.565
74.3677
74.2108
74.0888
73.997
73.9319
73.8874
73.8581
73.8408
73.8339
73.8327
73.8372
73.8377
74.9627
72.4817
69.3821
65.7647
61.5956
56.8516
51.5654
45.8378
39.8545
33.89
28.2692
23.2928
19.1627
15.9538
13.5657
11.8038
10.5038
9.53367
8.79994
8.23491
7.82222
7.47506
7.25161
7.09103
6.80828
6.40546
5.87909
5.22789
4.44174
3.52189
2.46325
1.27743
-0.0512658
-1.49989
79.6275
78.239
75.3595
80.5897
81.0642
81.1487
80.9439
80.5328
79.9866
79.3633
78.7081
78.0553
77.429
76.8459
76.3171
75.8484
75.4408
75.0923
74.7997
74.558
74.3621
74.2062
74.0854
73.9967
73.9331
73.8877
73.8581
73.8406
73.8337
73.8326
73.8372
73.8378
73.2857
70.5165
67.0879
63.1152
58.5823
53.4748
47.8492
41.844
35.6926
29.7122
24.2433
19.5623
15.8186
13.0275
11.0294
9.60684
8.5961
7.87043
7.34248
6.95091
6.68583
6.59446
6.53554
6.33438
6.0034
5.54516
4.95634
4.23558
3.37272
2.36809
1.21612
-0.0724671
-1.51331
-3.0829
80.6178
79.2026
77.22
73.6831
81.3797
81.6717
81.6059
81.278
80.7684
80.1455
79.4641
78.7663
78.0828
77.4357
76.8405
76.3058
75.8349
75.4272
75.0801
74.7893
74.5495
74.3551
74.2008
74.0847
73.9985
73.9337
73.8877
73.8579
73.8403
73.8335
73.8324
73.8372
73.8379
71.3966
68.3355
64.5528
60.2142
55.3102
49.8392
43.8872
37.6379
31.377
25.459
20.2233
15.9047
12.59
10.2352
8.62861
7.53847
6.80628
6.31316
5.97963
5.75146
5.76491
5.85361
5.75923
5.51366
5.13015
4.61186
3.95543
3.15928
2.21342
1.11712
-0.135821
-1.53521
-3.09639
-4.79555
81.5583
80.3812
78.3357
75.8816
71.8076
82.1081
82.2249
82.0136
81.5675
80.9647
80.2706
79.5363
78.8002
78.0904
77.428
76.8251
76.2874
75.8164
75.4103
75.0655
74.7772
74.5393
74.3469
74.1993
74.0871
73.9993
73.9337
73.8873
73.8573
73.84
73.8333
73.8322
73.8371
73.838
69.2963
65.9139
61.7654
57.0515
51.7719
45.9408
39.6814
33.2319
26.9321
21.1624
16.2413
12.345
9.492
7.5833
6.36452
5.59668
5.13044
4.85741
4.707
4.77985
4.99034
5.05047
4.91723
4.62327
4.18284
3.59948
2.86982
1.99212
0.956497
-0.238785
-1.60059
-3.11904
-4.80903
-6.64653
82.4291
81.5135
79.7412
77.1522
74.3326
69.7296
82.7743
82.7205
82.3687
81.8103
81.1206
80.3613
79.5792
78.81
78.0807
77.4081
76.8011
76.263
75.7937
75.3905
75.0488
74.7629
74.5276
74.3445
74.2026
74.0881
73.9993
73.9331
73.8865
73.857
73.8398
73.833
73.832
73.8371
73.8381
66.9553
63.2412
58.7165
53.6202
47.9618
41.7767
35.2365
28.6429
22.3869
16.8574
12.3288
8.90522
6.53624
5.07575
4.2363
3.77786
3.56404
3.49851
3.67661
3.96291
4.15072
4.17953
4.00387
3.65745
3.15532
2.50144
1.6926
0.726766
-0.405793
-1.70771
-3.18643
-4.83238
-6.65991
-8.6443
83.2299
82.5699
81.1057
78.7907
75.7638
72.5838
67.4129
83.3744
83.155
82.6688
82.0049
81.2351
80.4164
79.5928
78.7986
78.0561
77.3778
76.7698
76.2336
75.7676
75.3682
75.0295
74.7467
74.5239
74.3489
74.204
74.0881
73.9985
73.9318
73.8862
73.8569
73.8394
73.8326
73.8317
73.8371
73.8383
64.364
60.3104
55.4009
49.9148
43.8741
37.345
30.5603
23.893
17.7757
12.5805
8.51552
5.60365
3.73101
2.71395
2.24113
2.07756
2.10217
2.39873
2.8106
3.0775
3.24047
3.235
3.01328
2.60998
2.04095
1.31077
0.416406
-0.644535
-1.88154
-3.29795
-4.90179
-6.68393
-8.65712
-10.801
83.955
83.5504
82.3875
80.3948
77.6363
74.2042
70.5991
64.8479
83.9039
83.5251
82.9119
82.1502
81.3071
80.4364
79.581
78.7694
78.0189
77.3388
76.7325
76.2001
75.7386
75.3427
75.0078
74.7414
74.5297
74.3507
74.204
74.0871
73.9967
73.9318
73.8865
73.8567
73.8389
73.8321
73.8313
73.8371
73.8385
61.518
57.1186
51.8141
45.9283
39.5019
32.6434
25.6638
19.0105
13.1371
8.36862
4.82767
2.45483
1.08144
0.496686
0.375056
0.490756
0.919348
1.47479
1.87228
2.11797
2.2537
2.21093
1.93917
1.47417
0.832741
0.0200991
-0.966538
-2.12988
-3.47906
-5.01796
-6.75518
-8.68124
-10.8098
-13.5217
84.5986
84.4486
83.5892
81.9114
79.4772
76.3326
72.4358
68.3707
62.0305
84.3589
83.8283
83.0965
82.2446
81.3367
80.4256
79.5474
78.725
77.9713
77.2925
76.6903
76.1631
75.7057
75.3142
75.0003
74.7487
74.532
74.3507
74.2026
74.0846
73.997
73.9327
73.8865
73.8561
73.8382
73.8315
73.8309
73.8371
73.8387
58.4165
53.664
47.9503
41.6518
34.8349
27.6698
20.5638
14.0307
8.51255
4.25672
1.28801
-0.530602
-1.41086
-1.57892
-1.36679
-0.793056
-0.0739599
0.474114
0.855908
1.07832
1.18432
1.10094
0.774802
0.24299
-0.476712
-1.37837
-2.46433
-3.73759
-5.20681
-6.87616
-8.75444
-10.8339
-13.5355
-16.7675
85.1555
85.2559
84.7048
83.3444
81.2259
78.4251
74.8436
70.4462
65.9003
58.9615
84.7359
84.0626
83.2207
82.2884
81.3292
80.3886
79.4957
78.6681
77.915
77.2405
76.6441
76.1213
75.6691
75.3042
75.0097
74.7516
74.532
74.3489
74.1993
74.0854
73.9989
73.9333
73.8862
73.8554
73.8374
73.8308
73.8304
73.8371
73.8389
55.0601
49.9432
43.8007
37.0693
29.8588
22.4261
15.2854
8.99504
3.94513
0.277505
-2.08503
-3.34651
-3.74671
-3.51712
-2.77615
-1.87078
-1.1493
-0.609285
-0.244663
-0.0476775
0.0258771
-0.101765
-0.486874
-1.09096
-1.89519
-2.89271
-4.0853
-5.47616
-7.07316
-8.88055
-10.9071
-13.5661
-16.7854
-20.0819
85.6218
85.9643
85.7247
84.6885
82.8869
80.4194
77.2055
73.1529
68.2368
63.1949
55.643
85.0324
84.2254
83.2842
82.2873
81.2902
80.3298
79.4289
78.6007
77.8518
77.1836
76.5921
76.0752
75.656
75.3159
75.0133
74.7516
74.5296
74.3444
74.2008
74.0888
74.0003
73.9333
73.8855
73.8543
73.8364
73.83
73.8299
73.8371
73.8392
51.4484
45.9502
39.3493
32.1608
24.5644
16.9257
9.86533
3.95138
-0.521787
-3.54023
-5.27848
-5.99022
-5.9291
-5.08561
-3.95886
-3.03699
-2.31299
-1.78173
-1.4358
-1.26658
-1.22848
-1.40423
-1.85324
-2.53542
-3.43072
-4.53119
-5.83793
-7.35393
-9.08622
-11.0381
-13.6453
-16.8186
-20.0946
-23.4004
85.9943
86.5666
86.6391
85.9329
84.4552
82.3199
79.4642
75.7972
71.2622
65.8169
60.2652
52.0764
85.2449
84.3159
83.294
82.2485
81.225
80.2529
79.3497
78.5252
77.783
77.12
76.5349
76.0583
75.6706
75.3204
75.0133
74.7487
74.5239
74.3469
74.2063
74.0915
74.0011
73.9329
73.8845
73.853
73.8351
73.8291
73.8293
73.8371
73.8396
47.5783
41.6739
34.5724
26.9006
18.9406
11.1899
4.35132
-1.04719
-4.84665
-7.17358
-8.28399
-8.4623
-7.69549
-6.40145
-5.23806
-4.29845
-3.57158
-3.04974
-2.72414
-2.58525
-2.58578
-2.81378
-3.33195
-4.09831
-5.09147
-6.30216
-7.73048
-9.37909
-11.2527
-13.7865
-16.9056
-20.1238
-23.4113
-26.706
86.2686
87.0572
87.4382
87.0667
85.92
84.1203
81.6244
78.3321
74.2003
69.1817
63.2025
57.1223
48.2612
85.3715
84.3419
83.2583
82.1782
81.138
80.1611
79.2606
78.443
77.7062
77.05
76.5137
76.0763
75.6761
75.3204
75.0096
74.7413
74.5276
74.3552
74.2108
74.0934
74.0013
73.9321
73.883
73.8514
73.8336
73.828
73.8286
73.8372
73.84
43.4423
37.0872
29.4274
21.2476
12.9732
5.24577
-1.20007
-5.94521
-8.99292
-10.6053
-11.0978
-10.4636
-9.1765
-7.82397
-6.62104
-5.66196
-4.93175
-4.42006
-4.11658
-4.01069
-4.05327
-4.33794
-4.93076
-5.78762
-6.88562
-8.21378
-9.77108
-11.5583
-14.0141
-17.0591
-20.2101
-23.4408
-26.7159
-29.9874
86.4417
87.4295
88.1124
88.0788
87.2704
85.8095
83.6792
80.7639
77.0206
72.4253
66.9301
60.4123
53.7773
44.1964
85.421
84.3136
83.1848
82.0817
81.0333
80.0576
79.1638
78.3514
77.6217
77.0238
76.5356
76.0829
75.6761
75.3159
75.0002
74.7467
74.5395
74.3622
74.2142
74.0945
74.0008
73.9306
73.8811
73.8494
73.8319
73.8267
73.8278
73.8372
73.8404
39.0199
32.1484
23.8578
15.1572
6.66088
-0.863259
-6.72411
-10.6885
-12.9298
-13.8243
-13.3768
-12.1407
-10.7765
-9.36093
-8.11484
-7.13431
-6.4003
-5.89957
-5.62005
-5.54998
-5.63827
-5.98426
-6.65742
-7.61128
-8.82105
-10.2739
-11.9663
-14.3363
-17.303
-20.3682
-23.5282
-26.7469
-29.9963
-33.2243
86.5233
87.6782
88.6492
88.9576
88.4948
87.376
85.6161
83.0861
79.7308
75.5391
70.4914
64.5302
57.4662
50.2441
39.8729
85.4055
84.2398
83.08
81.964
80.9146
79.9448
79.0559
78.2507
77.5897
77.0502
76.5435
76.0829
75.6705
75.304
75.0078
74.7631
74.5497
74.3677
74.2167
74.0948
73.9996
73.9286
73.8787
73.847
73.8299
73.8253
73.827
73.8372
73.8409
34.2811
26.8048
17.7983
8.59195
0.0224672
-7.07226
-12.1504
-15.2257
-16.6339
-16.4331
-15.285
-13.9511
-12.5035
-11.0195
-9.72628
-8.72231
-7.98408
-7.49509
-7.24143
-7.2102
-7.34802
-7.76011
-8.51947
-9.5768
-10.9052
-12.4888
-14.7641
-17.6449
-20.6227
-23.6918
-26.8362
-30.028
-33.2321
-36.3947
86.5274
87.8144
89.0354
89.6868
89.5808
88.8071
87.4217
85.2865
82.3259
78.5317
73.9063
68.4231
62.0066
54.3835
46.5311
35.2706
85.3354
84.1286
82.9497
81.8295
80.7848
79.8192
78.9372
78.2123
77.6214
77.0596
76.5435
76.0762
75.6558
75.3143
75.0297
74.7774
74.5581
74.3721
74.2181
74.0941
73.9976
73.9259
73.8758
73.8442
73.8276
73.8237
73.8261
73.8372
73.8414
29.1799
20.9758
11.1643
1.5278
-6.89987
-13.2981
-17.4057
-19.512
-19.6393
-18.6159
-17.3428
-15.9029
-14.3647
-12.8062
-11.462
-10.4326
-9.68966
-9.21324
-8.98747
-8.99815
-9.18943
-9.67257
-10.5239
-11.6911
-13.1438
-15.31
-18.0945
-20.9787
-23.9559
-27.0066
-30.1185
-33.2641
-36.4012
-39.4768
86.4664
87.8554
89.279
90.2454
90.508
90.0907
89.0811
87.3516
84.7957
81.4013
77.184
72.1477
66.2478
59.3838
51.1849
42.6403
30.3597
85.2204
83.9867
82.7993
81.6819
80.6401
79.6808
78.8916
78.25
77.6325
77.0596
76.5355
76.0582
75.6692
75.343
75.0492
74.7895
74.5651
74.3752
74.2184
74.0924
73.9947
73.9224
73.8723
73.841
73.825
73.822
73.8252
73.8373
73.842
23.6452
14.5387
3.85745
-6.04451
-14.0328
-19.4404
-22.4151
-22.9945
-22.1509
-20.9668
-19.5579
-18.0023
-16.3657
-14.7272
-13.3281
-12.2714
-11.5232
-11.0603
-10.8645
-10.9201
-11.1689
-11.728
-12.677
-13.9593
-15.9925
-18.6645
-21.4442
-24.3229
-27.2802
-30.2947
-33.3553
-36.4333
-39.482
-42.4495
86.3516
87.8167
89.3989
90.6368
91.2482
91.2047
90.5793
89.2652
87.1282
84.1406
80.3266
75.7122
70.2916
63.9931
56.687
47.8934
38.5756
25.0999
85.0687
83.8208
82.6333
81.5169
80.4803
79.6272
78.9362
78.263
77.6325
77.0501
76.5135
76.0753
75.7061
75.3687
75.0659
74.7998
74.5705
74.3768
74.2172
74.0894
73.9908
73.9181
73.8681
73.8375
73.8224
73.8203
73.8243
73.8373
73.8426
17.5656
7.30768
-4.23913
-14.0919
-21.2741
-25.3644
-26.5067
-25.8997
-24.8494
-23.4919
-21.9347
-20.2537
-18.5116
-16.7876
-15.3299
-14.2439
-13.4903
-13.0418
-12.8779
-12.9817
-13.292
-13.9317
-14.983
-16.842
-19.3741
-22.031
-24.7992
-27.6562
-30.5756
-33.536
-36.5245
-39.5139
-42.4533
-45.2917
86.1929
87.7121
89.4142
90.879
91.8011
92.1158
91.8898
91.0093
89.308
86.7406
83.331
79.1249
74.1448
68.3674
61.6869
53.9441
44.5321
34.3394
19.4333
84.888
83.6362
82.4471
81.3342
80.4181
79.6796
78.9512
78.263
77.6214
77.0235
76.5351
76.122
75.7393
75.391
75.0804
74.8082
74.5739
74.3766
74.2145
74.0852
73.9857
73.9129
73.8634
73.8337
73.8196
73.8185
73.8234
73.8374
73.8432
10.7526
-1.03121
-13.1641
-22.5759
-28.3833
-30.2304
-29.9203
-29.0144
-27.7367
-26.192
-24.4748
-22.6596
-20.8053
-18.9911
-17.4716
-16.3548
-15.5955
-15.1623
-15.0325
-15.1873
-15.5629
-16.287
-17.9088
-20.2564
-22.7593
-25.3963
-28.1394
-30.9568
-33.8211
-36.708
-39.6044
-42.4845
-45.2941
-47.9835
85.9994
87.5536
89.3424
90.9897
92.1846
92.8216
92.9724
92.552
91.3168
89.1886
86.1929
82.3874
77.8238
72.5113
66.4045
59.3586
51.1828
41.1226
29.9447
13.2959
84.685
83.428
82.24
81.2626
80.4792
79.6969
78.9512
78.2499
77.5895
77.0502
76.593
76.164
75.7683
75.4108
75.0925
74.8141
74.5752
74.3745
74.2101
74.0794
73.9795
73.907
73.8583
73.8296
73.8166
73.8167
73.8225
73.8375
73.8439
2.85814
-10.8197
-23.0743
-31.064
-34.2857
-34.2833
-33.5665
-32.3394
-30.8077
-29.0632
-27.1766
-25.2197
-23.2478
-21.3394
-19.7555
-18.6067
-17.8417
-17.4251
-17.3311
-17.5398
-17.9836
-19.269
-21.3647
-23.6645
-26.1354
-28.741
-31.4418
-34.2032
-36.9942
-39.7888
-42.5735
-45.3243
-47.9847
-50.5061
85.7789
87.3524
89.1996
90.9867
92.4167
93.3408
93.8223
93.8409
93.1182
91.4681
88.9034
85.5012
81.336
76.4527
70.841
64.4322
57.0347
48.433
37.7014
25.4513
6.61207
84.4545
83.1957
82.1583
81.3335
80.499
79.6969
78.9361
78.212
77.622
77.121
76.6452
76.201
75.7944
75.4276
75.1018
74.8174
74.574
74.3701
74.2037
74.0721
73.9722
73.9005
73.8529
73.8253
73.8135
73.8148
73.8216
73.8375
73.8446
-6.69222
-23.24
-33.1509
-38.394
-39.1444
-38.5705
-37.4274
-35.8608
-34.0523
-32.0962
-30.0346
-27.9304
-25.8371
-23.8321
-22.1822
-21.0007
-20.2304
-19.8313
-19.7751
-20.0394
-21.0399
-22.7789
-24.8021
-27.0539
-29.4837
-32.0419
-34.6845
-37.3729
-40.0726
-42.7562
-45.4107
-48.0131
-50.5059
-52.8425
85.5267
87.1174
89.0005
90.8877
92.5151
93.6922
94.462
94.8641
94.6486
93.541
91.4502
88.4628
84.6895
80.2056
75.0407
69.1631
62.4761
54.744
45.74
34.3166
20.9715
-0.693068
84.1959
83.1033
82.2401
81.3562
80.499
79.6795
78.8913
78.2511
77.7074
77.185
76.6916
76.2345
75.8169
75.4409
75.1077
74.8176
74.57
74.3633
74.1953
74.0634
73.9641
73.8934
73.8471
73.8209
73.8104
73.8128
73.8207
73.8376
73.8454
-20.3817
-36.8335
-43.1651
-44.5387
-44.2419
-43.0408
-41.4556
-39.5498
-37.4555
-35.2769
-33.0378
-30.7841
-28.5678
-26.4655
-24.7492
-23.5353
-22.7603
-22.3799
-22.3625
-23.1845
-24.6209
-26.2554
-28.2096
-30.407
-32.781
-35.2767
-37.8452
-40.4434
-43.0339
-45.5892
-48.0959