/*--------------------------------*- C++ -*----------------------------------*\
  =========                 |
  \\      /  F ield         | OpenFOAM: The Open Source CFD Toolbox
   \\    /   O peration     | Website:  https://openfoam.org
    \\  /    A nd           | Version:  8
     \\/     M anipulation  |
\*---------------------------------------------------------------------------*/
FoamFile
{
    version     2.0;
    format      ascii;
    class       volScalarField;
    location    "1700";
    object      k;
}
// * * * * * * * * * * * * * * * * * * * * * * * * * * * * * * * * * * * * * //

dimensions      [0 2 -2 0 0 0 0];

internalField   nonuniform List<scalar> 
15677
(
0.991539
0.878709
1.19177
0.495983
0.831007
1.13863
0.398763
0.479959
0.693333
1.04271
0.380438
0.386828
0.414435
0.659576
0.977988
0.37573
0.37261
0.358584
0.359293
0.668549
0.936473
0.374332
0.370445
0.355689
0.317531
0.358548
0.691629
0.911087
0.373838
0.370028
0.359204
0.329887
0.296002
0.368844
0.717268
0.893125
0.373577
0.369929
0.36205
0.342611
0.309252
0.283174
0.392652
0.731951
0.88143
0.373421
0.36999
0.364006
0.350929
0.326925
0.292398
0.284212
0.423412
0.744689
0.87193
0.373329
0.370043
0.365278
0.356119
0.339393
0.312662
0.282007
0.289378
0.456288
0.747432
0.865408
0.373281
0.370047
0.366076
0.359368
0.347557
0.328244
0.300836
0.275544
0.300396
0.483678
0.750032
0.861543
0.373257
0.370014
0.366542
0.36141
0.352857
0.33897
0.318054
0.291623
0.272402
0.31529
0.507858
0.751012
0.860227
0.373247
0.369972
0.366772
0.362671
0.356301
0.346192
0.330701
0.309275
0.284374
0.272825
0.331777
0.527191
0.751227
0.860831
0.373245
0.369937
0.366849
0.363404
0.35852
0.351034
0.339588
0.323154
0.301659
0.279359
0.274531
0.347448
0.543697
0.751048
0.862989
0.373244
0.369916
0.366849
0.363775
0.359901
0.354255
0.345742
0.333337
0.316292
0.295392
0.275772
0.277932
0.363276
0.555467
0.751041
0.867446
0.373243
0.369906
0.366825
0.36392
0.360693
0.356344
0.349955
0.340621
0.327481
0.310255
0.290184
0.273326
0.28285
0.376787
0.565426
0.75094
0.874262
0.373243
0.3699
0.366805
0.363944
0.361081
0.357625
0.352776
0.345748
0.335732
0.322137
0.304959
0.285931
0.271947
0.287891
0.389357
0.571567
0.751046
0.883135
0.373242
0.369897
0.366791
0.363934
0.361211
0.358329
0.35458
0.349277
0.341687
0.331168
0.317291
0.300392
0.282498
0.271344
0.293508
0.398935
0.576985
0.751042
0.894089
0.373242
0.369895
0.366783
0.363918
0.361237
0.358621
0.355641
0.351612
0.345885
0.337844
0.326943
0.312987
0.296444
0.279782
0.271461
0.298582
0.407317
0.579738
0.751012
0.907116
0.373241
0.369893
0.366777
0.363905
0.361229
0.358719
0.356129
0.353054
0.348738
0.342655
0.334247
0.323115
0.309156
0.293138
0.277637
0.271846
0.303409
0.413242
0.581548
0.751025
0.922179
0.373241
0.369892
0.366773
0.363895
0.361214
0.358739
0.356324
0.353772
0.35056
0.346003
0.339617
0.330944
0.319658
0.305859
0.29031
0.276057
0.27259
0.307414
0.418004
0.58148
0.751085
0.939214
0.373241
0.36989
0.36677
0.363887
0.3612
0.358731
0.356387
0.354092
0.351511
0.348209
0.343431
0.33681
0.327947
0.316635
0.302988
0.288069
0.2748
0.273599
0.310912
0.420645
0.580977
0.751213
0.958136
0.373241
0.369889
0.366768
0.363881
0.361189
0.358716
0.356395
0.354219
0.351963
0.349413
0.345999
0.341054
0.33427
0.325304
0.314001
0.300648
0.286187
0.274058
0.2746
0.313538
0.422632
0.579808
0.75137
0.978819
0.373241
0.369889
0.366766
0.363876
0.36118
0.3587
0.356383
0.354254
0.35216
0.35002
0.347437
0.343981
0.338926
0.332029
0.323022
0.311828
0.298698
0.284866
0.273512
0.27566
0.315608
0.422623
0.577652
0.751583
1.00116
0.373241
0.369888
0.366765
0.363872
0.361174
0.358686
0.356367
0.354249
0.352231
0.350307
0.348184
0.345681
0.34219
0.337054
0.33013
0.321159
0.310092
0.297319
0.283867
0.273466
0.27664
0.317053
0.422165
0.574976
0.751882
1.02499
0.373241
0.369888
0.366764
0.363869
0.361168
0.358675
0.356351
0.354231
0.352242
0.350421
0.348554
0.346603
0.344103
0.340643
0.335546
0.328647
0.319752
0.308851
0.296274
0.28337
0.273621
0.277652
0.317818
0.421099
0.571869
0.75226
1.0502
0.373241
0.369888
0.366763
0.363867
0.361164
0.358666
0.356338
0.354209
0.35223
0.350448
0.348719
0.347081
0.345151
0.342837
0.339489
0.334393
0.32755
0.318771
0.308098
0.295959
0.283444
0.274019
0.278591
0.318264
0.419099
0.56837
0.752724
1.07654
0.373241
0.369887
0.366762
0.363865
0.361161
0.358659
0.356327
0.354189
0.352209
0.350435
0.348774
0.347298
0.345713
0.344097
0.341862
0.338585
0.33371
0.327121
0.318608
0.308155
0.296137
0.283779
0.274732
0.279568
0.318232
0.416622
0.56465
0.75328
1.10395
0.373241
0.369887
0.366762
0.363864
0.361158
0.358654
0.356317
0.354173
0.352187
0.350408
0.348777
0.347372
0.345995
0.344792
0.343204
0.341315
0.338465
0.33379
0.327315
0.318902
0.308567
0.296693
0.284508
0.27577
0.280574
0.318073
0.413728
0.560683
0.75391
1.13198
0.373241
0.369887
0.366761
0.363863
0.361155
0.358649
0.35631
0.354159
0.352167
0.350378
0.348755
0.347375
0.346115
0.345125
0.343965
0.342975
0.341439
0.338768
0.334275
0.327984
0.319728
0.309531
0.297835
0.285842
0.277098
0.281695
0.31773
0.410602
0.556664
0.754749
1.16382
0.373241
0.369887
0.366761
0.363862
0.361153
0.358646
0.356303
0.354149
0.352151
0.350352
0.348725
0.347346
0.346145
0.345257
0.344403
0.343954
0.343211
0.341974
0.339614
0.335395
0.329394
0.321372
0.311345
0.299714
0.287659
0.278781
0.28296
0.317311
0.407259
0.552503
0.755943
1.1997
0.373241
0.369887
0.36676
0.363861
0.361152
0.358643
0.356298
0.35414
0.352136
0.35033
0.348695
0.347306
0.346129
0.345284
0.344615
0.344456
0.344268
0.343931
0.343152
0.341307
0.337516
0.331787
0.323915
0.313948
0.302237
0.290031
0.280792
0.284395
0.31683
0.403863
0.547992
0.757667
1.23571
0.373241
0.369887
0.36676
0.36386
0.36115
0.35864
0.356293
0.354132
0.352124
0.350311
0.348668
0.347268
0.346092
0.345259
0.34469
0.344699
0.344854
0.345124
0.345405
0.345339
0.344037
0.340629
0.335142
0.327384
0.317352
0.305481
0.292923
0.283193
0.286064
0.316485
0.40005
0.542838
0.759538
1.27164
0.373241
0.369887
0.36676
0.36386
0.361149
0.358638
0.356289
0.354126
0.352113
0.350295
0.348645
0.347234
0.346051
0.345213
0.344691
0.344792
0.345152
0.345824
0.346831
0.347923
0.348571
0.347871
0.344844
0.339574
0.33182
0.321645
0.309423
0.2964
0.28594
0.287915
0.316237
0.396032
0.53781
0.761722
1.30717
0.369887
0.373245
0.36676
0.363859
0.361148
0.358636
0.356285
0.354121
0.352104
0.350282
0.348624
0.347205
0.346012
0.345164
0.344655
0.344805
0.345282
0.346205
0.347713
0.34961
0.351562
0.353022
0.352953
0.350297
0.345151
0.337322
0.326817
0.314131
0.300423
0.289111
0.290154
0.316308
0.392362
0.532853
0.763945
1.34208
0.36676
0.369897
0.373252
0.363859
0.361147
0.358635
0.356282
0.354116
0.352096
0.350271
0.348606
0.34718
0.345978
0.345119
0.344608
0.344775
0.34532
0.346395
0.348233
0.350697
0.353582
0.356519
0.358862
0.359447
0.357088
0.351989
0.343899
0.332951
0.319567
0.305034
0.29308
0.292942
0.316583
0.38898
0.528154
0.766445
1.37618
0.363859
0.366776
0.369918
0.37326
0.361147
0.358633
0.35628
0.354112
0.352089
0.350261
0.34859
0.347158
0.345947
0.345078
0.344561
0.344733
0.345309
0.346477
0.348528
0.351387
0.354945
0.358966
0.362992
0.366284
0.367484
0.365353
0.360119
0.351649
0.340003
0.325778
0.31078
0.298073
0.296059
0.31715
0.385987
0.523608
0.768935
1.40927
0.361146
0.36388
0.36681
0.369939
0.373268
0.358632
0.356277
0.354109
0.352083
0.350252
0.348576
0.347139
0.345919
0.345043
0.344517
0.344688
0.345279
0.346502
0.348694
0.351827
0.355873
0.360698
0.36599
0.371205
0.375451
0.37723
0.375151
0.369656
0.360532
0.348042
0.333502
0.317973
0.303623
0.299465
0.318109
0.383334
0.5194
0.771372
1.44124
0.358631
0.361173
0.363925
0.366844
0.369961
0.373276
0.356276
0.354105
0.352077
0.350244
0.348563
0.347123
0.345894
0.345012
0.344478
0.344647
0.345245
0.346501
0.348786
0.352121
0.356526
0.361957
0.368215
0.374908
0.381356
0.386567
0.388777
0.38662
0.380571
0.370637
0.358016
0.343145
0.325938
0.309675
0.303182
0.319342
0.38105
0.515581
0.773763
1.47197
0.356274
0.358662
0.361228
0.363971
0.366879
0.369984
0.373284
0.354103
0.352073
0.350238
0.348551
0.347109
0.345872
0.344984
0.344443
0.344609
0.345212
0.346491
0.348841
0.352325
0.357018
0.362917
0.369928
0.377779
0.385955
0.393683
0.399753
0.402295
0.399748
0.392978
0.383158
0.370453
0.353804
0.334595
0.31618
0.307159
0.320868
0.379094
0.512101
0.776117
1.50141
0.3541
0.356308
0.358726
0.361284
0.364018
0.366916
0.370007
0.373292
0.352068
0.350231
0.348541
0.347096
0.345851
0.34496
0.34441
0.344575
0.345181
0.346478
0.348878
0.352479
0.357405
0.363704
0.371327
0.380116
0.389679
0.399416
0.408346
0.41522
0.41778
0.414677
0.408352
0.398774
0.384196
0.365375
0.34386
0.323068
0.311386
0.322614
0.377474
0.508966
0.778443
1.5295
0.352065
0.354137
0.35638
0.358791
0.361342
0.364066
0.366953
0.370031
0.373301
0.350226
0.348532
0.347084
0.345832
0.344938
0.34438
0.344543
0.345152
0.346465
0.348907
0.352604
0.357722
0.364371
0.37255
0.382133
0.392858
0.404254
0.415512
0.425618
0.43299
0.435423
0.433176
0.427531
0.416024
0.399106
0.377741
0.353644
0.330281
0.315809
0.324592
0.376136
0.506122
0.780736
1.55623
0.350221
0.352104
0.354216
0.356454
0.358859
0.361402
0.364116
0.366991
0.370056
0.37331
0.348524
0.347073
0.345814
0.344918
0.344352
0.344513
0.345125
0.346452
0.34893
0.352711
0.357995
0.364945
0.373641
0.383983
0.395728
0.408556
0.421784
0.434581
0.445578
0.453339
0.457332
0.456287
0.448714
0.43473
0.415024
0.390781
0.363857
0.33775
0.320401
0.326724
0.375082
0.503578
0.783002
1.58158
0.348518
0.350261
0.352188
0.354296
0.356531
0.358928
0.361463
0.364167
0.367031
0.370081
0.373319
0.347064
0.345799
0.3449
0.344325
0.344484
0.345098
0.346437
0.348947
0.352804
0.358237
0.365454
0.374612
0.385696
0.398465
0.412597
0.42757
0.442691
0.456749
0.468575
0.478757
0.484857
0.481881
0.471703
0.45469
0.43179
0.404365
0.374398
0.345409
0.325115
0.329022
0.374311
0.501294
0.785225
1.60559
0.347056
0.348557
0.350348
0.352274
0.354379
0.356609
0.358999
0.361526
0.364219
0.367071
0.370107
0.373328
0.345785
0.344885
0.3443
0.344457
0.345072
0.346421
0.348959
0.352884
0.35845
0.365911
0.375489
0.387254
0.401073
0.416577
0.433186
0.450424
0.467176
0.482485
0.497468
0.510924
0.515548
0.509776
0.496275
0.475715
0.449232
0.418357
0.38517
0.353193
0.329915
0.331319
0.373828
0.499277
0.787418
1.62824
0.345773
0.347093
0.348643
0.350437
0.352363
0.354465
0.35669
0.359073
0.361591
0.364273
0.367113
0.370133
0.373338
0.344871
0.344277
0.344432
0.345047
0.346404
0.348965
0.352951
0.358638
0.366322
0.376286
0.388683
0.403496
0.420464
0.438864
0.458156
0.477424
0.495864
0.515063
0.534362
0.547061
0.549204
0.539756
0.522238
0.4976
0.467177
0.432621
0.396076
0.361037
0.334803
0.333619
0.373522
0.497474
0.789556
1.6496
0.34486
0.345802
0.347176
0.348732
0.35053
0.352456
0.354553
0.356774
0.359148
0.361658
0.364329
0.367156
0.37016
0.373347
0.344255
0.344409
0.345023
0.346386
0.348967
0.353006
0.358801
0.366688
0.37701
0.389997
0.405751
0.424136
0.444527
0.466178
0.487948
0.509391
0.532504
0.557128
0.576229
0.587044
0.585604
0.571574
0.549368
0.52015
0.485459
0.447031
0.407029
0.368888
0.339729
0.33592
0.373432
0.495899
0.791656
1.66969
0.344237
0.344883
0.345871
0.347261
0.348826
0.350625
0.352551
0.354644
0.35686
0.359226
0.361727
0.364385
0.367199
0.370187
0.373356
0.344388
0.345001
0.346368
0.348965
0.353049
0.358941
0.367013
0.377663
0.391202
0.407847
0.427591
0.449963
0.474359
0.499109
0.523638
0.550655
0.580464
0.605477
0.623093
0.630737
0.624531
0.604974
0.577417
0.543175
0.503928
0.461473
0.417947
0.376691
0.344657
0.338214
0.37348
0.494497
0.793692
1.68858
0.344373
0.34423
0.344939
0.345944
0.347351
0.348923
0.350724
0.352649
0.354738
0.356948
0.359305
0.361798
0.364444
0.367243
0.370213
0.373365
0.34498
0.346351
0.34896
0.353084
0.35906
0.367299
0.378248
0.3923
0.409786
0.430832
0.455153
0.482349
0.510682
0.539093
0.570308
0.605566
0.636475
0.660439
0.675041
0.678053
0.665767
0.639695
0.606146
0.566485
0.52244
0.475842
0.428756
0.384402
0.349546
0.340497
0.373606
0.493275
0.795681
1.70629
0.344967
0.344348
0.34423
0.344997
0.346022
0.347445
0.349025
0.350825
0.352751
0.354834
0.357039
0.359387
0.361869
0.364501
0.367285
0.370239
0.373374
0.346334
0.348953
0.353112
0.359163
0.36755
0.378771
0.393296
0.411569
0.433858
0.460084
0.490063
0.522127
0.555506
0.592212
0.633616
0.670987
0.701511
0.722651
0.732363
0.728978
0.709119
0.675502
0.635338
0.58991
0.540874
0.49005
0.439395
0.391977
0.354368
0.342753
0.373847
0.492193
0.797597
1.72289
0.346328
0.34491
0.344306
0.344233
0.345061
0.346108
0.347542
0.349131
0.35093
0.352856
0.354933
0.357133
0.359471
0.361941
0.364557
0.367325
0.370263
0.373382
0.348946
0.353135
0.359252
0.36777
0.379237
0.394196
0.4132
0.436668
0.464741
0.497456
0.533331
0.572169
0.616045
0.665814
0.711033
0.74931
0.777476
0.793315
0.79559
0.783595
0.754445
0.712189
0.664799
0.613292
0.559122
0.50402
0.449811
0.399383
0.359096
0.344979
0.374171
0.491253
0.799458
1.73842
0.348951
0.346224
0.344795
0.344261
0.344253
0.345127
0.346199
0.347643
0.349241
0.351039
0.352964
0.355035
0.357228
0.359554
0.36201
0.364612
0.367365
0.370287
0.37339
0.353153
0.35933
0.367966
0.379653
0.395007
0.414688
0.439265
0.469107
0.504496
0.544261
0.588876
0.640592
0.701947
0.75928
0.808003
0.845024
0.867367
0.874038
0.865376
0.842028
0.801624
0.749573
0.69436
0.636493
0.577089
0.517691
0.459963
0.40659
0.363712
0.347161
0.374555
0.490426
0.801242
1.75296
0.353188
0.348768
0.345992
0.344672
0.344219
0.344293
0.345195
0.346298
0.347747
0.349355
0.351151
0.353076
0.355139
0.357323
0.359635
0.362078
0.364665
0.367403
0.370311
0.373398
0.359398
0.368141
0.380027
0.395741
0.416044
0.441657
0.473181
0.511166
0.554869
0.605445
0.665411
0.740838
0.817212
0.883674
0.933149
0.96368
0.974202
0.966198
0.942192
0.904311
0.850517
0.787482
0.723872
0.6594
0.594694
0.531008
0.469814
0.413577
0.368194
0.349297
0.374986
0.489709
0.802967
1.76469
0.359483
0.352912
0.34834
0.345751
0.344566
0.344174
0.344348
0.345266
0.346403
0.347855
0.349473
0.351266
0.35319
0.355243
0.357415
0.359714
0.362144
0.364716
0.367441
0.370334
0.373406
0.368297
0.380364
0.396406
0.417279
0.443856
0.47697
0.517461
0.565091
0.62168
0.690427
0.782846
0.884365
0.979995
1.05163
1.09368
1.10877
1.09938
1.07018
1.026
0.970259
0.900922
0.825741
0.7532
0.681916
0.611871
0.543929
0.47934
0.420323
0.372535
0.351375
0.375449
0.489079
0.804393
1.77458
0.368469
0.359084
0.352227
0.347899
0.345536
0.344471
0.344133
0.344415
0.34534
0.346513
0.347967
0.349596
0.351385
0.353304
0.355345
0.357505
0.359791
0.362207
0.364766
0.367477
0.370356
0.373414
0.380668
0.39701
0.418408
0.445878
0.480486
0.523378
0.57487
0.63746
0.715786
0.828495
0.960626
1.09361
1.20266
1.26805
1.29052
1.27957
1.24179
1.185
1.11608
1.0394
0.952545
0.864163
0.78222
0.703958
0.628565
0.556424
0.488519
0.426819
0.376718
0.353394
0.37594
0.488612
0.805621
1.78533
0.38098
0.367915
0.358035
0.351522
0.347497
0.34534
0.344384
0.344101
0.34449
0.345419
0.346629
0.348085
0.349722
0.351504
0.353414
0.355443
0.357592
0.359866
0.362269
0.364815
0.367513
0.370377
0.373421
0.39756
0.419439
0.44774
0.483748
0.528925
0.584173
0.652753
0.741675
0.877647
1.04434
1.21972
1.37485
1.48315
1.52795
1.51841
1.47166
1.39817
1.30852
1.21114
1.11101
1.00501
0.90254
0.810814
0.725456
0.644736
0.568467
0.497339
0.433049
0.380744
0.355345
0.376377
0.488235
0.806977
1.79703
0.398099
0.380231
0.366355
0.356957
0.350869
0.347121
0.345158
0.344305
0.344079
0.344571
0.345506
0.346749
0.348207
0.349847
0.35162
0.353522
0.35554
0.357677
0.359938
0.36233
0.364863
0.367547
0.370398
0.373424
0.420385
0.449454
0.486774
0.534115
0.592995
0.667582
0.768142
0.929454
1.13261
1.35253
1.55777
1.71857
1.81053
1.82138
1.76926
1.67891
1.56425
1.43797
1.30954
1.18418
1.05785
0.940654
0.838868
0.746352
0.660349
0.580043
0.505787
0.439018
0.384599
0.356977
0.376773
0.487854
0.808487
1.80976
0.421282
0.397112
0.377964
0.364763
0.355954
0.350251
0.346768
0.344988
0.344238
0.344068
0.344658
0.345601
0.346872
0.34833
0.349968
0.351734
0.353626
0.355634
0.35776
0.360009
0.362388
0.364909
0.36758
0.370408
0.373424
0.451038
0.489579
0.538964
0.601351
0.681986
0.795056
0.982697
1.22242
1.48672
1.7431
1.96041
2.11078
2.17247
2.13804
2.03489
1.89521
1.73571
1.57051
1.40956
1.25796
1.11061
0.97827
0.866278
0.766595
0.675378
0.59114
0.51387
0.444708
0.387795
0.35838
0.377226
0.48746
0.810161
1.82359
0.452501
0.420011
0.393869
0.375665
0.363273
0.354995
0.349659
0.346434
0.344831
0.344182
0.34407
0.344747
0.345704
0.346995
0.348452
0.350087
0.351845
0.353728
0.355725
0.35784
0.360078
0.362445
0.364953
0.367597
0.370408
0.373424
0.492187
0.54349
0.609265
0.695983
0.822162
1.03616
1.31129
1.61837
1.9248
2.19946
2.4129
2.53881
2.55821
2.46901
2.30828
2.11524
1.90874
1.70358
1.5096
1.33144
1.16283
1.01518
0.892935
0.786141
0.689807
0.601758
0.521567
0.449414
0.390527
0.359941
0.377756
0.487071
0.812033
1.83865
0.494543
0.450881
0.415421
0.390605
0.373507
0.361843
0.354072
0.349093
0.346122
0.344688
0.344138
0.344088
0.344838
0.345813
0.347115
0.348573
0.350203
0.351954
0.353827
0.355814
0.357918
0.360145
0.3625
0.364976
0.367597
0.370408
0.373424
0.547729
0.616764
0.709579
0.849158
1.08881
1.39753
1.74498
2.09909
2.42961
2.70714
2.90302
2.99218
2.95883
2.80699
2.58369
2.33473
2.08028
1.83508
1.6083
1.40383
1.2141
1.05121
0.918757
0.804951
0.703628
0.611881
0.527933
0.453425
0.393545
0.361678
0.378364
0.486676
0.814118
1.85501
0.551502
0.492494
0.444431
0.410841
0.387535
0.371428
0.360461
0.353183
0.348551
0.345834
0.344557
0.344103
0.344131
0.344926
0.345926
0.347231
0.348692
0.350315
0.35206
0.353923
0.355901
0.357994
0.36021
0.362528
0.364976
0.367597
0.370408
0.373424
0.6239
0.722767
0.875755
1.13989
1.48003
1.86512
2.26386
2.64727
2.98705
3.25431
3.42052
3.46199
3.36684
3.14601
2.85664
2.55041
2.24798
1.96335
1.70457
1.47445
1.26407
1.08617
0.943678
0.822999
0.716825
0.620247
0.533351
0.457843
0.396883
0.363619
0.379079
0.486304
0.816459
1.87279
0.630241
0.548897
0.483442
0.438058
0.406526
0.38457
0.369414
0.359124
0.352327
0.34803
0.345567
0.344438
0.344062
0.344195
0.345011
0.346039
0.347346
0.348809
0.350425
0.352163
0.354017
0.355985
0.358068
0.360242
0.362528
0.364976
0.367597
0.370408
0.373424
0.735555
0.901717
1.18885
1.55814
1.97807
2.41809
2.85054
3.24882
3.58533
3.83075
3.95638
3.9404
3.77583
3.48122
3.12366
2.75983
2.41013
2.08722
1.7976
1.54279
1.31245
1.11995
0.967647
0.840253
0.727702
0.627372
0.539315
0.462716
0.400582
0.365787
0.379902
0.485939
0.819082
1.89211
0.746943
0.626949
0.536065
0.474605
0.432043
0.402352
0.381692
0.367462
0.357834
0.351505
0.347535
0.345319
0.344332
0.344025
0.344271
0.345096
0.346153
0.347458
0.348924
0.350533
0.352264
0.354109
0.356068
0.358104
0.360242
0.362528
0.364976
0.367597
0.370408
0.373421
0.926863
1.23535
1.63153
2.08352
2.56142
3.03869
3.49055
3.89159
4.21391
4.4271
4.50232
4.42041
4.18032
3.80869
3.3821
2.96127
2.56558
2.20589
1.88684
1.60848
1.35904
1.15245
0.990606
0.85451
0.736981
0.635218
0.545888
0.4681
0.404687
0.368223
0.380875
0.485624
0.822039
1.91309
0.74291
0.949054
0.60796
0.523798
0.466246
0.426219
0.398295
0.378898
0.365572
0.356591
0.350719
0.34707
0.345095
0.344242
0.343998
0.344352
0.345182
0.346265
0.347569
0.349036
0.350637
0.352363
0.354198
0.356108
0.358104
0.360242
0.362528
0.364976
0.367597
0.370398
0.373413
1.27919
1.70008
2.18145
2.69389
3.2117
3.71165
4.17091
4.56439
4.86298
5.03463
5.05065
4.89568
4.57562
4.12533
3.63003
3.15355
2.7136
2.31886
1.97192
1.67128
1.40369
1.18357
1.00963
0.866698
0.747219
0.643868
0.553146
0.474057
0.409251
0.370957
0.381996
0.485338
0.825373
1.93584
0.713109
0.945054
1.31704
0.590372
0.512216
0.458143
0.420553
0.394351
0.376189
0.363748
0.355397
0.349971
0.34664
0.344899
0.344167
0.343985
0.344436
0.34527
0.346376
0.347678
0.349145
0.35074
0.352459
0.354241
0.356108
0.358104
0.360242
0.362528
0.364976
0.36758
0.370377
0.373406
1.76381
2.27202
2.81578
3.36994
3.91247
4.42284
4.87948
5.25675
5.52329
5.64503
5.59421
5.36061
4.95786
4.42874
3.86611
3.33594
2.85376
2.42585
2.05266
1.73106
1.4463
1.20935
1.0259
0.880166
0.758529
0.653421
0.56117
0.480659
0.414334
0.374047
0.383331
0.485145
0.82915
1.96052
0.685844
0.897665
1.31323
1.81821
0.574019
0.500977
0.450257
0.415041
0.390523
0.373569
0.361991
0.354255
0.349269
0.346255
0.34473
0.344109
0.343984
0.34452
0.34536
0.346485
0.347785
0.349252
0.35084
0.352506
0.354241
0.356108
0.358104
0.360242
0.362528
0.364953
0.367546
0.370355
0.373398
2.35548
2.92757
3.51411
4.09388
4.64818
5.15885
5.60493
5.95894
6.18614
6.25049
6.12646
5.81034
5.3239
4.71719
4.08951
3.50807
2.98591
2.52679
2.12902
1.78774
1.48147
1.23139
1.04389
0.895064
0.771041
0.663991
0.570059
0.48799
0.42001
0.377534
0.384871
0.485015
0.833435
1.98722
0.660866
0.853028
1.24442
1.81556
2.42602
0.558317
0.490028
0.442588
0.409688
0.386817
0.371042
0.360306
0.353175
0.34863
0.345916
0.344584
0.344066
0.343996
0.344603
0.345452
0.346592
0.347891
0.349357
0.350889
0.352506
0.354241
0.356108
0.358104
0.360242
0.3625
0.364908
0.367512
0.370333
0.37339
3.02984
3.64514
4.25714
4.84854
5.40395
5.90728
6.33694
6.66195
6.8433
6.84369
6.64149
6.24078
5.67137
4.98956
4.29979
3.66982
3.11007
2.62176
2.20099
1.83427
1.51143
1.2557
1.06378
0.911565
0.784904
0.675706
0.579923
0.496146
0.426357
0.381501
0.386722
0.485076
0.838321
2.01613
0.637392
0.811293
1.17693
1.7278
2.4255
3.11552
0.543114
0.479371
0.435146
0.404505
0.383242
0.368615
0.358708
0.352186
0.34806
0.345621
0.344461
0.344036
0.344023
0.344683
0.345546
0.346696
0.347996
0.349408
0.350888
0.352506
0.354241
0.356108
0.358104
0.360209
0.362444
0.364861
0.367476
0.37031
0.373382
3.76399
4.40381
5.026
5.61733
6.16604
6.65705
7.06631
7.3575
7.48705
7.41785
7.13419
6.64871
5.99865
5.24519
4.49681
3.82131
3.22643
2.71087
2.25977
1.87371
1.54431
1.2825
1.0858
0.929861
0.800285
0.688715
0.590892
0.50524
0.433479
0.386005
0.388859
0.485288
0.843908
2.04728
0.615149
0.771912
1.11113
1.63995
2.3213
3.11765
3.86236
0.528368
0.469026
0.427943
0.399502
0.379806
0.36631
0.357238
0.351297
0.34755
0.345365
0.344356
0.344012
0.344068
0.344761
0.345642
0.3468
0.348047
0.349407
0.350887
0.352506
0.354241
0.356108
0.358067
0.360144
0.362387
0.364814
0.36744
0.370287
0.373374
4.53542
5.18298
5.80222
6.38504
6.9224
7.39868
7.7849
8.03788
8.11011
7.9669
7.60033
7.03181
6.30474
5.48387
4.68073
3.96281
3.33522
2.78333
2.30937
1.91674
1.58038
1.31207
1.11018
0.950171
0.817375
0.703189
0.603117
0.515404
0.441485
0.391176
0.391332
0.485752
0.850317
2.0809
0.593997
0.734827
1.04664
1.55228
2.21601
2.99905
3.86644
4.64229
0.514076
0.45902
0.420998
0.394693
0.37654
0.364185
0.355914
0.350499
0.347093
0.345145
0.344267
0.343984
0.344126
0.344837
0.345741
0.34685
0.348044
0.349407
0.350887
0.352506
0.354241
0.356067
0.357993
0.360076
0.362328
0.364765
0.367402
0.370263
0.373365
5.32181
5.96221
6.56898
7.13838
7.6631
8.12429
8.48543
8.69585
8.70571
8.48555
8.03669
7.38855
6.5892
5.70576
4.85189
4.09466
3.42337
2.84428
2.36326
1.96368
1.61994
1.34468
1.13719
0.972738
0.836395
0.719323
0.616771
0.526792
0.450518
0.397131
0.394179
0.486634
0.857727
2.12374
0.57385
0.70009
0.983641
1.46422
2.10981
2.87897
3.73478
4.6461
5.43128
0.500262
0.449381
0.414328
0.390123
0.373529
0.362268
0.35472
0.349781
0.346685
0.344956
0.344195
0.343963
0.34419
0.34492
0.345789
0.346845
0.348044
0.349407
0.350888
0.352506
0.354197
0.355984
0.357916
0.360007
0.362267
0.364714
0.367364
0.370238
0.373356
6.10067
6.72306
7.31158
7.86675
8.38045
8.82722
9.16123
9.32446
9.26768
8.96955
8.44103
7.71819
6.85218
5.91128
5.01077
4.20114
3.49735
2.9103
2.42178
2.01485
1.6633
1.38063
1.16712
0.997832
0.857594
0.737346
0.63206
0.539589
0.460735
0.404031
0.397534
0.487853
0.867865
2.17473
0.554644
0.667756
0.922584
1.37572
2.00202
2.75734
3.60198
4.5018
5.43109
6.20618
0.486955
0.440141
0.407995
0.385911
0.370809
0.360537
0.353645
0.349137
0.346325
0.344795
0.344133
0.343952
0.344267
0.344954
0.345784
0.346844
0.348044
0.349407
0.350889
0.352458
0.354107
0.355899
0.357837
0.359936
0.362205
0.364663
0.367324
0.370213
0.373347
6.852
7.44921
8.01847
8.5625
9.06831
9.50175
9.80594
9.91707
9.79071
9.4157
8.81214
8.02077
7.09418
6.10104
5.13854
4.29031
3.57728
2.98175
2.48526
2.07056
1.71076
1.42024
1.20028
1.02575
0.881252
0.757514
0.649222
0.554014
0.472347
0.412034
0.401473
0.490039
0.881448
2.22594
0.536335
0.637824
0.864051
1.28701
1.89227
2.63343
3.46764
4.35761
5.27325
6.19739
6.94539
0.474193
0.43139
0.402163
0.38211
0.368354
0.358976
0.352677
0.348562
0.346009
0.344655
0.344086
0.343966
0.344303
0.344939
0.345785
0.346844
0.348044
0.349408
0.350839
0.352361
0.354015
0.355811
0.357757
0.359863
0.362141
0.36461
0.367284
0.370187
0.373338
7.55777
8.12798
8.68203
9.21971
9.72192
10.1431
10.4129
10.4676
10.2704
9.82206
9.14982
8.2969
7.316
6.25278
5.24525
4.38641
3.66356
3.05899
2.55405
2.13114
1.76267
1.46384
1.237
1.05681
0.90768
0.780119
0.668535
0.570326
0.485576
0.421381
0.407091
0.493451
0.896674
2.27714
0.518892
0.610213
0.808717
1.19861
1.78044
2.50653
3.33102
4.21265
5.11795
6.0233
6.92197
7.62956
0.462106
0.423355
0.396905
0.37868
0.366139
0.357569
0.351807
0.34805
0.345731
0.344537
0.34407
0.34396
0.344294
0.344938
0.345785
0.346845
0.348047
0.349356
0.350738
0.352261
0.35392
0.355722
0.357674
0.359788
0.362076
0.364556
0.367242
0.37016
0.373328
8.20401
8.75175
9.29139
9.82532
10.328
10.7423
10.9766
10.9702
10.7037
10.188
9.45474
8.5476
7.49199
6.37903
5.35992
4.48987
3.75656
3.14238
2.62849
2.19692
1.81934
1.51175
1.27761
1.09136
0.937213
0.805487
0.69031
0.588829
0.500747
0.434357
0.41487
0.498193
0.914126
2.32777
0.502417
0.58477
0.757241
1.11124
1.66662
2.37614
3.19114
4.06631
4.96367
5.8558
6.72783
7.58389
8.24411
0.45102
0.41613
0.392165
0.375587
0.364141
0.356302
0.351027
0.347591
0.345489
0.344465
0.344047
0.343932
0.344298
0.344938
0.345784
0.34685
0.347995
0.34925
0.350635
0.35216
0.353823
0.35563
0.357589
0.359711
0.362009
0.3645
0.367199
0.370133
0.373319
8.78052
9.30845
9.84617
10.3858
10.887
11.2896
11.4885
11.4203
11.0893
10.5141
9.72819
8.74443
7.6376
6.51411
5.48294
4.60106
3.85667
3.23228
2.70889
2.26822
1.88108
1.56431
1.32245
1.12975
0.970209
0.833972
0.714917
0.609889
0.521416
0.451908
0.424319
0.504086
0.933589
2.37761
0.487298
0.561438
0.710175
1.02589
1.55111
2.24193
3.04709
3.91735
4.80991
5.69235
6.54582
7.36537
8.1631
8.78124
0.441077
0.409635
0.387896
0.372799
0.36234
0.355162
0.350325
0.347186
0.345318
0.344409
0.344013
0.343933
0.344298
0.34494
0.345789
0.3468
0.347889
0.349142
0.350529
0.352056
0.353724
0.355536
0.357502
0.359633
0.36194
0.364443
0.367156
0.370106
0.37331
9.28409
9.79977
10.3461
10.9031
11.4032
11.783
11.9431
11.8153
11.4274
10.8019
9.9399
8.90603
7.79241
6.65829
5.61464
4.72035
3.96423
3.32902
2.79559
2.34532
1.94819
1.62181
1.37185
1.17232
1.00703
0.865966
0.742728
0.638371
0.548685
0.472202
0.435629
0.511786
0.955987
2.42592
0.47371
0.540484
0.668097
0.943754
1.43443
2.10376
2.89807
3.76451
4.65526
5.53255
6.37223
7.16557
7.91705
8.64251
9.22364
0.432172
0.403797
0.384052
0.370288
0.360719
0.354133
0.3497
0.346881
0.345203
0.344363
0.344015
0.343933
0.344294
0.344955
0.345741
0.346694
0.347782
0.349032
0.350421
0.351949
0.353622
0.35544
0.357413
0.359553
0.361869
0.364385
0.367112
0.37008
0.373301
9.70196
10.2189
10.7875
11.3709
11.8727
12.2179
12.3357
12.155
11.7196
11.0206
10.1119
9.07631
7.9564
6.81171
5.75524
4.848
4.07954
3.43287
2.88883
2.42847
2.0209
1.68452
1.4261
1.21939
1.04804
0.901814
0.780053
0.67538
0.579309
0.495594
0.449495
0.521144
0.980853
2.47249
0.461523
0.521854
0.631897
0.866887
1.31746
1.96168
2.74336
3.60649
4.49815
5.37476
6.2067
6.97993
7.69602
8.36693
9.01672
9.56342
0.424203
0.39855
0.380593
0.368026
0.359254
0.353213
0.349214
0.346691
0.345137
0.344368
0.344015
0.343933
0.344304
0.344921
0.34564
0.346589
0.347674
0.348919
0.350311
0.351841
0.353518
0.355342
0.357321
0.35947
0.361797
0.364327
0.367071
0.370055
0.373292
10.0304
10.564
11.1704
11.786
12.2866
12.5877
12.663
12.4413
11.9359
11.1957
10.2909
9.25475
8.12932
6.97434
5.90487
4.98423
4.20282
3.54408
2.98883
2.51787
2.09942
1.75264
1.48543
1.27125
1.09351
0.949431
0.827729
0.716069
0.613537
0.522585
0.466228
0.533061
1.00961
2.51642
0.450619
0.505164
0.601439
0.798524
1.20231
1.81596
2.58238
3.44199
4.33686
5.21716
6.04725
6.80802
7.49591
8.12167
8.7043
9.27688
9.79552
0.417073
0.393837
0.377484
0.365985
0.357942
0.352483
0.348921
0.346604
0.345145
0.344369
0.344013
0.343962
0.344268
0.344837
0.345544
0.346482
0.347565
0.348805
0.350198
0.35173
0.353411
0.355241
0.357227
0.359386
0.361726
0.364271
0.36703
0.37003
0.373284
10.265
10.8351
11.4952
12.1452
12.6349
12.887
12.9228
12.6451
12.1054
11.3747
10.4756
9.4405
8.31065
7.14594
6.0635
5.1291
4.3342
3.66277
3.09573
2.61364
2.18385
1.8263
1.55
1.32803
1.15315
1.00908
0.878999
0.760372
0.651537
0.553437
0.486737
0.547478
1.04147
2.55769
0.440888
0.490151
0.575589
0.740113
1.09366
1.6683
2.41469
3.26967
4.16951
5.05772
5.89189
6.64738
7.31629
7.90477
8.4309
8.92115
9.41225
9.91081
0.410695
0.389605
0.374681
0.364155
0.356885
0.352052
0.348806
0.346616
0.345146
0.344364
0.344048
0.343968
0.34419
0.344759
0.34545
0.346372
0.347454
0.348688
0.350083
0.351617
0.353301
0.355138
0.357132
0.359303
0.361656
0.364217
0.36699
0.370006
0.373276
10.4015
11.034
11.763
12.436
12.9107
13.1135
13.0911
12.7992
12.2739
11.5553
10.6644
9.63228
8.49955
7.32604
6.23089
5.28253
4.47368
3.78898
3.20955
2.71578
2.27418
1.90549
1.61981
1.40148
1.22631
1.07178
0.933405
0.808028
0.69319
0.588465
0.511343
0.565609
1.0785
2.59517
0.43222
0.476643
0.553349
0.691133
0.994913
1.52372
2.24137
3.08823
3.99403
4.89408
5.73832
6.49579
7.15409
7.71589
8.19513
8.61533
9.0103
9.41035
9.89677
0.404987
0.385798
0.372168
0.362666
0.356272
0.351902
0.348824
0.346617
0.345138
0.344411
0.344072
0.343954
0.344125
0.344681
0.345357
0.346261
0.347342
0.34857
0.349965
0.351502
0.353189
0.355034
0.357037
0.359223
0.361589
0.364164
0.366952
0.369983
0.373268
10.4393
11.166
11.9544
12.6582
13.103
13.2482
13.2067
12.9448
12.4383
11.7349
10.855
9.82839
8.69478
7.51381
6.40654