/*--------------------------------*- C++ -*----------------------------------*\
  =========                 |
  \\      /  F ield         | OpenFOAM: The Open Source CFD Toolbox
   \\    /   O peration     | Website:  https://openfoam.org
    \\  /    A nd           | Version:  8
     \\/     M anipulation  |
\*---------------------------------------------------------------------------*/
FoamFile
{
    version     2.0;
    format      ascii;
    class       volScalarField;
    location    "300";
    object      epsilon;
}
// * * * * * * * * * * * * * * * * * * * * * * * * * * * * * * * * * * * * * //

dimensions      [0 2 -3 0 0 0 0];

internalField   nonuniform List<scalar> 
15677
(
1181.43
450.323
85.7382
19.7958
7.21009
3.82788
2.64005
2.16165
1.97287
1.90447
1.87843
1.86721
1.86735
1.869
1.86963
1.86974
1.86972
1.8697
1.86969
1.86969
1.86969
1.86969
1.86969
1.86969
1.86969
1.86969
1.86969
1.86969
1.86969
1.8697
1.8697
1.8697
1.8697
1.8697
1.8697
1557.45
451.377
116.522
35.9023
14.2986
7.17786
4.33689
3.03416
2.38265
2.0605
1.92145
1.868
1.84318
1.83737
1.83716
1.83751
1.83766
1.83768
1.83766
1.83763
1.83762
1.83761
1.8376
1.83759
1.83759
1.83759
1.83759
1.83758
1.83758
1.83758
1.83757
1.83757
1.83757
1.83757
1.83756
1454.6
387.912
104.723
37.2733
17.1074
9.17012
5.58233
3.7922
2.83764
2.31382
2.02987
1.89332
1.83763
1.81462
1.8089
1.80793
1.80791
1.80796
1.80797
1.80796
1.80794
1.80792
1.80791
1.8079
1.80789
1.80788
1.80788
1.80787
1.80787
1.80787
1.80787
1.80787
1.80787
1.80787
1.80787
1274.7
360.343
92.5902
35.2194
17.2808
9.91778
6.27328
4.30763
3.19082
2.53911
2.15976
1.94878
1.84526
1.80065
1.78607
1.78197
1.78098
1.78079
1.78074
1.78071
1.78067
1.78064
1.78061
1.78059
1.78058
1.78056
1.78056
1.78055
1.78054
1.78054
1.78053
1.78052
1.78052
1.78051
1.78051
1157.64
360.834
94.1048
33.6888
17.0523
10.1543
6.63429
4.63746
3.44664
2.71916
2.27419
2.00979
1.86355
1.79396
1.76781
1.75909
1.75641
1.75567
1.75547
1.7554
1.75535
1.7553
1.75527
1.75524
1.75521
1.75519
1.75517
1.75515
1.75514
1.75512
1.75512
1.75511
1.75511
1.7551
1.7551
1084.82
365.881
99.516
33.9524
16.6776
10.1305
6.78472
4.83103
3.62216
2.8558
2.3688
2.06601
1.88812
1.79443
1.75493
1.73999
1.73467
1.73293
1.73239
1.73219
1.73209
1.73201
1.73195
1.7319
1.73186
1.73183
1.73181
1.73179
1.73177
1.73176
1.73175
1.73174
1.73173
1.73172
1.73171
1040.21
372.079
108.998
35.4059
16.7245
10.0788
6.83227
4.93499
3.73603
2.95479
2.44313
2.11374
1.91113
1.79653
1.74513
1.72374
1.71523
1.71209
1.711
1.71061
1.71044
1.71034
1.71026
1.7102
1.71014
1.7101
1.71006
1.71002
1.70999
1.70997
1.70994
1.70993
1.70991
1.7099
1.70989
1010.02
373.099
119.286
38.3867
17.0259
10.0841
6.84685
4.98957
3.80828
3.02482
2.49991
2.15271
1.93165
1.80066
1.73804
1.71023
1.69831
1.69352
1.69168
1.69097
1.69065
1.69047
1.69035
1.69025
1.69017
1.69011
1.69006
1.69001
1.68998
1.68995
1.68992
1.6899
1.68988
1.68986
1.68984
989.507
371.929
129.233
42.2973
17.7034
10.1422
6.85222
5.01526
3.85173
3.0726
2.54193
2.18343
1.94897
1.80499
1.7326
1.69867
1.68319
1.67654
1.67382
1.67273
1.67226
1.67202
1.67186
1.67174
1.67164
1.67156
1.67149
1.67143
1.67138
1.67134
1.6713
1.67127
1.67124
1.67122
1.6712
973.349
368.062
137.202
46.5126
18.7401
10.2907
6.86681
5.0269
3.87659
3.10422
2.57226
2.20702
1.96301
1.80888
1.72838
1.68907
1.67027
1.66173
1.65802
1.65641
1.65568
1.6553
1.65507
1.6549
1.65476
1.65464
1.65454
1.65446
1.65438
1.65431
1.65426
1.6542
1.65416
1.65412
1.65408
962.07
363.412
143.501
50.7626
19.9601
10.5506
6.90151
5.0333
3.889
3.12358
2.59313
2.22446
1.97397
1.8121
1.72487
1.68067
1.65864
1.64821
1.64349
1.64141
1.64045
1.63997
1.63967
1.63945
1.63927
1.63913
1.639
1.6389
1.63881
1.63874
1.63868
1.63863
1.63858
1.63854
1.63851
955.284
358.92
148.186
54.6996
21.2466
10.8531
6.95797
5.04016
3.8947
3.13461
2.60684
2.23693
1.98223
1.81458
1.72201
1.67389
1.64918
1.63701
1.63121
1.62849
1.62718
1.6265
1.6261
1.62581
1.62559
1.6254
1.62524
1.6251
1.62498
1.62487
1.62477
1.62468
1.62461
1.62454
1.62448
952.458
354.818
151.626
58.287
22.5838
11.197
7.02991
5.04885
3.89466
3.13923
2.61491
2.24536
1.98829
1.81659
1.71982
1.6681
1.64071
1.62689
1.62021
1.61704
1.61548
1.61467
1.61417
1.61381
1.61353
1.6133
1.6131
1.61293
1.6128
1.61268
1.61259
1.61251
1.61245
1.61239
1.61235
953.138
351.597
153.81
61.3173
23.8477
11.5427
7.10678
5.05773
3.89286
3.13883
2.61888
2.25082
1.99273
1.81822
1.71819
1.66412
1.635
1.61974
1.61201
1.60817
1.60622
1.60519
1.60458
1.60415
1.60382
1.60355
1.60332
1.60313
1.60296
1.60281
1.60268
1.60255
1.60244
1.60234
1.60225
956.131
349.141
155.2
63.8504
25.0478
11.8942
7.18897
5.06769
3.88893
3.13661
2.61941
2.25401
1.99613
1.82015
1.71827
1.66142
1.63005
1.6137
1.60543
1.60129
1.59917
1.59802
1.59732
1.59682
1.59643
1.5961
1.59583
1.5956
1.59541
1.59525
1.59512
1.59502
1.59494
1.59487
1.59483
962.601
347.336
155.771
65.7586
26.1072
12.2239
7.26733
5.07617
3.88274
3.13186
2.61872
2.25594
1.99926
1.82281
1.71944
1.66189
1.62967
1.61201
1.60275
1.59801
1.59554
1.59423
1.59345
1.59292
1.59251
1.59219
1.59193
1.59171
1.59154
1.59139
1.59126
1.59114
1.59104
1.59092
1.59083
973.021
346.215
155.811
67.1683
27.0094
12.5244
7.34019
5.08298
3.87544
3.12575
2.61721
2.25779
2.00286
1.82671
1.72249
1.66418
1.63139
1.61348
1.60406
1.59923
1.59673
1.59543
1.59467
1.59416
1.59379
1.5935
1.59326
1.59307
1.59292
1.59279
1.59268
1.59258
1.59249
1.5924
1.59235
986.811
345.691
155.575
68.0395
27.7068
12.7742
7.40063
5.08691
3.86688
3.11888
2.61491
2.25996
2.00777
1.83276
1.72848
1.66941
1.63618
1.61806
1.60854
1.60369
1.60124
1.60002
1.59936
1.59896
1.59868
1.59848
1.59833
1.59822
1.59814
1.59808
1.59803
1.59798
1.59795
1.5979
1.59791
1004
345.727
155.056
68.5925
28.2418
12.9806
7.44985
5.0866
3.85787
3.11269
2.61448
2.26381
2.01493
1.8418
1.7383
1.67936
1.64578
1.62748
1.6179
1.61313
1.61085
1.60985
1.60944
1.60928
1.60923
1.60924
1.60929
1.60935
1.60943
1.60951
1.60959
1.60968
1.60976
1.60982
1.60996
1024.62
346.091
154.143
68.5881
28.5605
13.1202
7.4808
5.08409
3.8486
3.10756
2.61566
2.27038
2.02541
1.85488
1.75284
1.69472
1.66173
1.6439
1.63482
1.63058
1.62889
1.62848
1.62857
1.62889
1.62929
1.6297
1.63012
1.63052
1.6309
1.63126
1.6316
1.63192
1.63222
1.63247
1.6328
1048.67
346.944
153.09
68.4291
28.7366
13.2177
7.50145
5.07883
3.84012
3.10498
2.61931
2.2804
2.04009
1.87293
1.77309
1.71645
1.68461
1.66776
1.65968
1.65648
1.6558
1.65633
1.65736
1.65854
1.65974
1.66091
1.66203
1.66307
1.66405
1.66495
1.66579
1.66657
1.66727
1.66789
1.66859
1076.1
348.313
151.992
68.0311
28.7181
13.2462
7.50026
5.07023
3.83415
3.106
2.62693
2.29507
2.06022
1.89725
1.80038
1.74593
1.71589
1.70078
1.69443
1.69296
1.69391
1.69614
1.69876
1.70143
1.70399
1.70641
1.70866
1.71074
1.71266
1.71444
1.71608
1.71759
1.71897
1.7202
1.72151
1106.85
350.097
150.802
67.3526
28.6227
13.2331
7.4921
5.06016
3.82932
3.10993
2.63999
2.31538
2.08671
1.92875
1.83575
1.78432
1.75687
1.74436
1.74076
1.74158
1.74511
1.74989
1.75494
1.75988
1.7646
1.76905
1.77321
1.77708
1.78067
1.78398
1.78703
1.78985
1.79241
1.79472
1.79704
1140.71
352.241
149.519
66.5311
28.4181
13.1942
7.4742
5.05033
3.82975
3.11856
2.65893
2.34255
2.12086
1.96889
1.8807
1.83302
1.8095
1.80112
1.80077
1.80537
1.81286
1.82167
1.8306
1.83923
1.8474
1.85507
1.8622
1.86882
1.87495
1.88061
1.88586
1.8907
1.89514
1.89919
1.90308
1177.64
354.792
148.234
65.6101
28.1114
13.1169
7.44722
5.0423
3.83301
3.13405
2.68453
2.37719
2.16338
2.01838
1.93602
1.89357
1.87549
1.87196
1.87652
1.88645
1.89958
1.91416
1.92868
1.94267
1.95602
1.96864
1.98051
1.99164
2.00203
2.01169
2.02067
2.02897
2.03661
2.04361
2.05012
1217.32
357.655
146.917
64.5862
27.737
13.0106
7.4147
5.03518
3.84081
3.15617
2.71797
2.42049
2.21552
2.07878
2.00328
1.96798
1.95713
1.95968
1.97139
1.98895
2.01037
2.03365
2.05683
2.07931
2.10083
2.12122
2.14042
2.15842
2.17524
2.19094
2.20558
2.21921
2.23183
2.24351
2.2541
1259.72
360.89
145.644
63.526
27.324
12.8875
7.37964
5.03307
3.85579
3.18532
2.75931
2.4727
2.27776
2.15004
2.08367
2.05783
2.05479
2.0661
2.08738
2.11538
2.14829
2.18374
2.21908
2.2535
2.28674
2.31864
2.34912
2.37812
2.40557
2.43147
2.4558
2.47858
2.49978
2.51954
2.537
1304.33
364.366
144.371
62.4221
26.8787
12.7539
7.34529
5.03506
3.87801
3.22255
2.80969
2.53492
2.3509
2.23417
2.17934
2.16465
2.17175
2.19492
2.22925
2.27184
2.32119
2.37457
2.42847
2.48181
2.53398
2.58448
2.63291
2.67906
2.72284
2.76426
2.80338
2.84024
2.87486
2.90742
2.9358
1351.25
368.182
143.175
61.3296
26.423
12.6148
7.31191
5.04111
3.90703
3.26759
2.86866
2.60674
2.43451
2.33138
2.29117
2.2881
2.30892
2.34731
2.39875
2.46083
2.53264
2.61096
2.69081
2.77037
2.84882
2.92572
3.00086
3.07405
3.14503
3.21353
3.27922
3.34184
3.40125
3.45763
3.50626
1399.71
372.16
142.004
60.233
25.9616
12.4761
7.28282
5.05355
3.94345
3.32102
2.93714
2.68914
2.53017
2.44362
2.41983
2.43167
2.47015
2.52851
2.60304
2.69216
2.79589
2.91054
3.0296
3.15121
3.27459
3.39858
3.52174
3.64262
3.76012
3.8736
3.98287
4.08807
4.18971
4.28852
4.37479
1.86974
1.86981
1.86988
1.86996
1.87004
1.87011
1.8702
1.87028
1.87036
1.87045
1.87054
1.87063
1.87072
1.87081
1.8709
1.87098
1.87106
1.87114
1.87122
1.87129
1.87136
1.87143
1.83766
1.83786
1.83807
1.83828
1.8385
1.83872
1.83895
1.83918
1.83942
1.83967
1.83992
1.84018
1.84044
1.84069
1.84093
1.84117
1.8414
1.84162
1.84184
1.84205
1.84226
1.84246
1.80802
1.80834
1.80867
1.80901
1.80935
1.80971
1.81007
1.81044
1.81083
1.81122
1.81163
1.81204
1.81245
1.81285
1.81323
1.81361
1.81397
1.81433
1.81467
1.81501
1.81533
1.81565
1.78071
1.78113
1.78156
1.78201
1.78246
1.78293
1.78341
1.7839
1.78441
1.78493
1.78546
1.78601
1.78656
1.78708
1.7876
1.7881
1.78859
1.78906
1.78952
1.78997
1.7904
1.79082
1.75535
1.75587
1.7564
1.75695
1.75751
1.75809
1.75868
1.75929
1.75992
1.76056
1.76122
1.76189
1.76256
1.76321
1.76384
1.76445
1.76505
1.76563
1.76619
1.76674
1.76727
1.76779
1.732
1.73259
1.73319
1.73381
1.73446
1.73512
1.7358
1.7365
1.73722
1.73797
1.73873
1.73952
1.7403
1.74105
1.74179
1.74251
1.74321
1.74388
1.74454
1.74518
1.7458
1.74641
1.71022
1.7109
1.71159
1.71231
1.71304
1.71379
1.71457
1.71536
1.71618
1.71702
1.71788
1.71876
1.71963
1.72049
1.72132
1.72212
1.72291
1.72367
1.72442
1.72514
1.72585
1.72654
1.69018
1.6909
1.69164
1.6924
1.69319
1.694
1.69484
1.69571
1.69661
1.69753
1.69849
1.69946
1.70043
1.70137
1.70228
1.70318
1.70404
1.70488
1.7057
1.7065
1.70728
1.70803
1.67158
1.67237
1.67318
1.67401
1.67487
1.67575
1.67665
1.67758
1.67854
1.67952
1.68054
1.68158
1.68261
1.68362
1.68461
1.68557
1.68651
1.68742
1.68831
1.68918
1.69003
1.69085
1.65446
1.65527
1.6561
1.65696
1.65785
1.65877
1.65972
1.66071
1.66173
1.66279
1.66388
1.66499
1.6661
1.66718
1.66823
1.66925
1.67025
1.67122
1.67217
1.67309
1.67398
1.67486
1.63891
1.63975
1.64061
1.64151
1.64243
1.64338
1.64436
1.64536
1.6464
1.64747
1.64858
1.64971
1.65085
1.65197
1.65306
1.65414
1.65519
1.65621
1.65721
1.65819
1.65914
1.66007
1.62484
1.62564
1.62647
1.62733
1.62823
1.62918
1.63017
1.6312
1.63228
1.6334
1.63456
1.63575
1.63693
1.63808
1.63921
1.6403
1.64137
1.64242
1.64344
1.64444
1.64541
1.64637
1.61271
1.6135
1.61431
1.61516
1.61604
1.61695
1.61789
1.61885
1.61985
1.62089
1.62197
1.6231
1.62425
1.6254
1.62653
1.62765
1.62875
1.62982
1.63088
1.6319
1.63291
1.63389
1.6025
1.60311
1.60373
1.60441
1.60514
1.60595
1.60683
1.60778
1.60879
1.60986
1.61097
1.61211
1.61324
1.61434
1.61541
1.61646
1.6175
1.61852
1.61953
1.62053
1.62152
1.62251
1.59507
1.59561
1.59615
1.59676
1.5974
1.59803
1.59867
1.59933
1.60002
1.60078
1.60161
1.60253
1.60351
1.60453
1.60557
1.60662
1.60765
1.60867
1.60967
1.61064
1.61159
1.61256
1.5908
1.59075
1.59066
1.5907
1.59089
1.59127
1.59181
1.59246
1.59319
1.59396
1.59478
1.5956
1.59639
1.59715
1.5979
1.59867
1.59945
1.60027
1.60111
1.60198
1.60286
1.6038
1.59219
1.59181
1.59138
1.59105
1.59076
1.5904
1.59006
1.58981
1.58966
1.58961
1.5897
1.58997
1.5905
1.59116
1.59189
1.59265
1.5934
1.59414
1.59485
1.59554
1.59622
1.59698
1.59753
1.59653
1.59541
1.59445
1.59357
1.59277
1.59203
1.59138
1.59084
1.5904
1.59007
1.58979
1.58945
1.58919
1.58906
1.58904
1.58914
1.58937
1.5898
1.59034
1.59094
1.59168
1.60924
1.60722
1.60504
1.6031
1.6013
1.59964
1.5981
1.59666
1.59535
1.59416
1.59309
1.59214
1.59133
1.59066
1.59013
1.58975
1.58949
1.58931
1.58907
1.58889
1.58882
1.58901
1.63149
1.62777
1.62381
1.62021
1.61683
1.61365
1.61065
1.60782
1.60518
1.60278
1.60057
1.59856
1.59682
1.59533
1.59406
1.59299
1.5921
1.59134
1.59072
1.59021
1.58982
1.58977
1.66663
1.66069
1.65445
1.64871
1.64326
1.63804
1.63304
1.62827
1.6237
1.61933
1.61522
1.61141
1.60803
1.60508
1.60251
1.60029
1.59841
1.59679
1.59543
1.59426
1.59328
1.59278
1.71869
1.70957
1.70009
1.69134
1.68296
1.67489
1.66711
1.65963
1.65245
1.64557
1.63903
1.63291
1.62736
1.62244
1.61806
1.61416
1.61068
1.60762
1.60496
1.60263
1.60062
1.59932
1.79317
1.77956
1.76557
1.7526
1.74014
1.72809
1.71643
1.70518
1.69435
1.68395
1.67403
1.66467
1.65614
1.6485
1.64167
1.63556
1.6301
1.62524
1.62093
1.61709
1.61373
1.61135
1.89788
1.87783
1.85752
1.83865
1.82049
1.80288
1.78582
1.76932
1.7534
1.73811
1.72347
1.70965
1.69698
1.68561
1.67542
1.66628
1.65808
1.65075
1.64421
1.63835
1.63317
1.62935
2.04335
2.01417
1.98501
1.95788
1.93172
1.90634
1.88173
1.8579
1.83492
1.81281
1.79165
1.77164
1.75328
1.73679
1.72199
1.7087
1.69678
1.68609
1.67653
1.66794
1.66032
1.65452
2.2452
2.20282
2.16113
2.12231
2.08486
2.04851
2.01327
1.97916
1.94625
1.91463
1.88438
1.85579
1.82958
1.80605
1.78493
1.76598
1.74899
1.73376
1.72013
1.70788
1.69699
1.68857
2.52564
2.46401
2.40443
2.34887
2.29527
2.24332
2.19298
2.14432
2.09745
2.05247
2.0095
1.96894
1.93182
1.89855
1.86876
1.84207
1.81818
1.79681
1.77769
1.76054
1.74527
1.73327
2.92095
2.82991
2.74404
2.66397
2.58679
2.51208
2.43983
2.37015
2.3032
2.23917
2.17821
2.12085
2.06852
2.02175
1.97996
1.94262
1.90928
1.87953
1.853
1.82927
1.80819
1.79144
3.48746
3.34879
3.2225
3.10572
2.99365
2.88555
2.78134
2.68107
2.5849
2.49309
2.40596
2.32437
2.25035
2.18459
2.12616
2.0742
2.02798
1.98686
1.95029
1.91768
1.88876
1.8655
4.3499
4.12269
3.92345
3.74287
3.57273
3.41127
3.25798
3.1126
2.97479
2.84397
2.71989
2.60362
2.49811
2.40451
2.32173
2.24868
2.18423
2.12734
2.07708
2.0325
1.99312
1.96121
1.87147
1.87147
1.87147
1.87147
1.87147
1.87147
1.84255
1.84256
1.84256
1.84256
1.84255
1.84255
1.81581
1.81581
1.81581
1.81581
1.81581
1.81581
1.79103
1.79103
1.79103
1.79103
1.79103
1.79103
1.76805
1.76805
1.76805
1.76805
1.76805
1.76805
1.74671
1.74671
1.74671
1.74671
1.74671
1.74671
1.72688
1.72688
1.72688
1.72688
1.72688
1.72688
1.70841
1.7084
1.7084
1.7084
1.7084
1.70841
1.69125
1.69125
1.69125
1.69125
1.69125
1.69125
1.67529
1.67529
1.67528
1.67528
1.67529
1.67529
1.66052
1.66051
1.66051
1.66051
1.66052
1.66052
1.64684
1.64683
1.64683
1.64683
1.64683
1.64684
1.63437
1.63435
1.63435
1.63435
1.63435
1.63437
1.62299
1.62297
1.62297
1.62297
1.62297
1.623
1.613
1.61294
1.61293
1.61293
1.61294
1.61301
1.60425
1.6042
1.60422
1.60422
1.6042
1.60426
1.59727
1.59711
1.5971
1.5971
1.59711
1.59728
1.59201
1.59189
1.59194
1.59194
1.5919
1.59202
1.58897
1.58867
1.58869
1.58869
1.58867
1.58898
1.58958
1.58921
1.58925
1.58925
1.58922
1.58958
1.59231
1.59182
1.59189
1.59189
1.59182
1.59232
1.59835
1.59767
1.59777
1.59777
1.59767
1.59836
1.60974
1.60881
1.60896
1.60896
1.60881
1.60975
1.62688
1.62567
1.62589
1.62589
1.62568
1.6269
1.65088
1.64931
1.64961
1.64962
1.64932
1.6509
1.68341
1.68141
1.68184
1.68184
1.68142
1.68344
1.72601
1.72346
1.72403
1.72403
1.72347
1.72604
1.78152
1.77836
1.77913
1.77913
1.77837
1.78156
1.85182
1.84787
1.84887
1.84888
1.84788
1.85188
1.9427
1.93762
1.9388
1.93881
1.93764
1.94277
1.87143
1.87136
1.87129
1.87121
1.87114
1.87106
1.87098
1.87089
1.87081
1.87072
1.87063
1.87054
1.87045
1.87036
1.87028
1.87019
1.87011
1.87003
1.86996
1.86988
1.86981
1.86974
1.84245
1.84225
1.84205
1.84183
1.84162
1.84139
1.84116
1.84093
1.84068
1.84044
1.84018
1.83992
1.83967
1.83942
1.83917
1.83894
1.83871
1.83849
1.83827
1.83806
1.83786
1.83766
1.81565
1.81533
1.815
1.81466
1.81432
1.81396
1.8136
1.81322
1.81284
1.81244
1.81204
1.81163
1.81122
1.81082
1.81043
1.81006
1.80969
1.80934
1.80899
1.80866
1.80833
1.80802
1.79082
1.79039
1.78995
1.7895
1.78904
1.78857
1.78808
1.78758
1.78707
1.78655
1.78601
1.78546
1.78492
1.78439
1.78388
1.78339
1.78291
1.78244
1.78199
1.78155
1.78112
1.78071
1.76779
1.76727
1.76673
1.76617
1.76561
1.76503
1.76443
1.76382
1.76319
1.76255
1.76189
1.76122
1.76055
1.7599
1.75927
1.75866
1.75806
1.75749
1.75693
1.75638
1.75586
1.75535
1.74641
1.74579
1.74517
1.74452
1.74386
1.74318
1.74248
1.74177
1.74104
1.74028
1.73951
1.73873
1.73795
1.7372
1.73648
1.73577
1.73509
1.73443
1.7338
1.73318
1.73258
1.732
1.72653
1.72584
1.72513
1.7244
1.72365
1.72288
1.72209
1.72129
1.72047
1.71962
1.71876
1.71788
1.71701
1.71616
1.71534
1.71454
1.71377
1.71302
1.71228
1.71158
1.71089
1.71022
1.70803
1.70726
1.70648
1.70568
1.70485
1.70401
1.70314
1.70226
1.70135
1.70041
1.69946
1.69848
1.69752
1.69659
1.69569
1.69482
1.69398
1.69317
1.69238
1.69163
1.6909
1.69019
1.69084
1.69001
1.68916
1.68828
1.68739
1.68647
1.68554
1.68458
1.6836
1.6826
1.68157
1.68053
1.67951
1.67852
1.67756
1.67663
1.67572
1.67484
1.67399
1.67316
1.67236
1.67158
1.67486
1.67397
1.67306
1.67214
1.67119
1.67022
1.66922
1.6682
1.66716
1.66609
1.66499
1.66388
1.66278
1.66171
1.66069
1.6597
1.65874
1.65782
1.65694
1.65608
1.65526
1.65447
1.66006
1.65912
1.65816
1.65718
1.65618
1.65515
1.6541
1.65303
1.65195
1.65084
1.64971
1.64858
1.64746
1.64638
1.64534
1.64433
1.64335
1.6424
1.64149
1.6406
1.63974
1.63891
1.64637
1.6454
1.64441
1.64341
1.64238
1.64134
1.64027
1.63918
1.63806
1.63692
1.63575
1.63456
1.63339
1.63226
1.63118
1.63014
1.62915
1.62821
1.62731
1.62646
1.62564
1.62486
1.63389
1.63289
1.63188
1.63085
1.62979
1.62871
1.62761
1.6265
1.62538
1.62424
1.62311
1.62198
1.62088
1.61984
1.61883
1.61787
1.61693
1.61602
1.61514
1.6143
1.6135
1.61273
1.62251
1.62151
1.62051
1.6195
1.61849
1.61747
1.61643
1.61539
1.61432
1.61323
1.61211
1.61098
1.60985
1.60878
1.60776
1.60681
1.60594
1.60513
1.6044
1.60373
1.60313
1.60253
1.61256
1.61158
1.61062
1.60964
1.60864
1.60762
1.60659
1.60555
1.60452
1.60351
1.60254
1.60162
1.60078
1.60002
1.59933
1.59867
1.59803
1.59739
1.59676
1.59616
1.59562
1.5951
1.6038
1.60285
1.60196
1.60109
1.60025
1.59943
1.59865
1.5979
1.59715
1.5964
1.59562
1.59479
1.59397
1.59319
1.59246
1.59181
1.59128
1.5909
1.59073
1.5907
1.59079
1.59085
1.59698
1.59621
1.59553
1.59484
1.59413
1.59339
1.59264
1.59189
1.59117
1.59051
1.59
1.58973
1.58964
1.58969
1.58985
1.59011
1.59044
1.59081
1.5911
1.59142
1.59186
1.59225
1.59169
1.59094
1.59033
1.5898
1.58938
1.58915
1.58906
1.58909
1.58923
1.58949
1.58983
1.59011
1.59044
1.59088
1.59144
1.5921
1.59284
1.59364
1.59452
1.59548
1.59659
1.5976
1.58903
1.58883
1.58891
1.5891
1.58934
1.58953
1.58979
1.59018
1.59071
1.59138
1.59218
1.59314
1.59422
1.59542
1.59675
1.59819
1.59974
1.60141
1.6032
1.60514
1.60731
1.60932
1.58978
1.58984
1.59024
1.59076
1.59139
1.59216
1.59306
1.59413
1.59541
1.59689
1.59862
1.60063
1.60287
1.6053
1.60795
1.6108
1.61381
1.617
1.62037
1.62395
1.62789
1.6316
1.5928
1.59331
1.59431
1.5955
1.59688
1.59851
1.6004
1.60263
1.6052
1.60814
1.6115
1.6153
1.61947
1.62387
1.62847
1.63327
1.63828
1.6435
1.64894
1.65465
1.66085
1.66676
1.59935
1.60067
1.60271
1.60507
1.60776
1.61084
1.61434
1.61825
1.62262
1.62752
1.63301
1.63914
1.64575
1.6527
1.65993
1.66745
1.67524
1.68331
1.69166
1.70037
1.70978
1.71883
1.6114
1.61381
1.61722
1.6211
1.62545
1.63034
1.63583
1.64195
1.64876
1.65635
1.66481
1.67417
1.6842
1.6947
1.70561
1.71691
1.72859
1.74063
1.75305
1.76595
1.77983
1.79333
1.62941
1.63329
1.63854
1.64446
1.65106
1.65844
1.66666
1.67581
1.68598
1.69728
1.70983
1.72366
1.73845
1.75389
1.76991
1.78649
1.80358
1.82117
1.83928
1.85804
1.87819
1.89805
1.65461
1.66048
1.66821
1.67689
1.68653
1.69728
1.70924
1.72254
1.73731
1.7537
1.77188
1.79189
1.81329
1.83559
1.85874
1.88266
1.90732
1.93268
1.95875
1.98573
2.01464
2.04352
1.68869
1.69723
1.70826
1.72063
1.73437
1.74969
1.76674
1.7857
1.80676
1.83014
1.8561
1.88469
1.91528
1.94719
1.98032
2.01458
2.04989
2.0862
2.12353
2.16212
2.20343
2.24535
1.73344
1.7456
1.76106
1.77839
1.79766
1.81916
1.84313
1.86982
1.89953
1.93259
1.96936
2.00991
2.05336
2.09875
2.14595
2.19482
2.24525
2.29716
2.35057
2.40579
2.46483
2.52575
1.79167
1.80864
1.82998
1.85396
1.88071
1.91063
1.94408
1.98142
2.0231
2.06959
2.12141
2.17875
2.24039
2.30502
2.37243
2.44242
2.51481
2.58946
2.66637
2.74594
2.83103
2.92095
1.86581
1.88937
1.91865
1.9516
1.98848
2.02984
2.07621
2.12818
2.18646
2.25182
2.32512
2.40668
2.49478
2.58744
2.68429
2.78501
2.88943
2.99745
3.10915
3.22522
3.35034
3.48723
1.96161
1.99394
2.03381
2.07886
2.12954
2.18678
2.25144
2.32454
2.40709
2.50012
2.60461
2.72084
2.8463
2.97835
3.11716
3.26326
3.41692
3.57834
3.74795
3.92745
4.12482
4.34891
1.8697
1.8697
1.8697
1.8697
1.8697
1.8697
1.86969
1.86969
1.86969
1.86969
1.86969
1.86969
1.86969
1.86969
1.86969
1.86969
1.86969
1.8697
1.86972
1.86974
1.86963
1.869
1.86735
1.86722
1.87844
1.90449
1.97292
2.16181
2.64043
3.82883
7.2128
19.8061
85.7936
450.645
1182.08
1.83756
1.83757
1.83757
1.83757
1.83757
1.83758
1.83758
1.83758
1.83759
1.83759
1.83759
1.8376
1.8376
1.83761
1.83762
1.83763
1.83766
1.83768
1.83766
1.83751
1.83716
1.83737
1.84318
1.86801
1.92148
2.06059
2.38286
3.03458
4.33776
7.17974
14.3031
35.9154
116.57
451.594
1558.02
1.80787
1.80787
1.80787
1.80787
1.80787
1.80787
1.80787
1.80787
1.80787
1.80788
1.80789
1.8079
1.80791
1.80792
1.80794
1.80796
1.80797
1.80796
1.80791
1.80793
1.8089
1.81463
1.83764
1.89334
2.02993
2.31395
2.83792
3.79274
5.58336
9.17214
17.1116
37.2829
104.757
388.064
1455.04
1.78051
1.78051
1.78052
1.78052
1.78053
1.78053
1.78054
1.78055
1.78056
1.78057
1.78058
1.78059
1.78061
1.78064
1.78068
1.78071
1.78075
1.78079
1.78099
1.78197
1.78607
1.80066
1.84526
1.94881
2.15982
2.53926
3.19112
4.30818
6.27425
9.91948
17.2839
35.2269
92.6201
360.48
1275.07
1.7551
1.7551
1.75511
1.75511
1.75512
1.75513
1.75514
1.75515
1.75517
1.75519
1.75521
1.75524
1.75527
1.75531
1.75535
1.7554
1.75547
1.75567
1.75641
1.75909
1.76782
1.79396
1.86355
2.00982
2.27426
2.7193
3.44692
4.63794
6.63509
10.1556
17.055
33.6969
94.1398
360.967
1158
1.73172
1.73173
1.73174
1.73175
1.73176
1.73177
1.73178
1.7318
1.73181
1.73184
1.73187
1.73191
1.73196
1.73202
1.7321
1.7322
1.7324
1.73294
1.73468
1.74
1.75493
1.79443
1.88812
2.06603
2.36885
2.85592
3.62239
4.83143
6.7854
10.1317
16.6804
33.9618
99.5602
366.021
1085.22
1.7099
1.70991
1.70992
1.70993
1.70995
1.70997
1.71
1.71003
1.71006
1.7101
1.71015
1.7102
1.71027
1.71034
1.71045
1.71062
1.71101
1.7121
1.71524
1.72374
1.74513
1.79652
1.91112
2.11375
2.44317
2.95488
3.73622
4.93533
6.83286
10.08
16.7274
35.4168
109.04
372.192
1040.62
1.68985
1.68987
1.68989
1.68992
1.68994
1.68996
1.68999
1.69003
1.69007
1.69012
1.69019
1.69027
1.69036
1.69049
1.69067
1.69099
1.6917
1.69354
1.69833
1.71024
1.73804
1.80065
1.93164
2.15271
2.49993
3.02488
3.80842
4.98983
6.84735
10.0852
17.0291
38.4004
119.34
373.23
1010.48
1.67121
1.67123
1.67125
1.67128
1.67131
1.67135
1.6714
1.67145
1.67151
1.67158
1.67166
1.67175
1.67188
1.67203
1.67228
1.67275
1.67384
1.67656
1.68321
1.69868
1.7326
1.80497
1.94894
2.18341
2.54193
3.07264
3.85184
5.01548
6.85269
10.1434
17.7075
42.3134
129.285
372.045
989.992
1.6541
1.65413
1.65418
1.65422
1.65428
1.65434
1.65441
1.65449
1.65458
1.65468
1.65479
1.65493
1.6551
1.65533
1.65571
1.65645
1.65805
1.66176
1.6703
1.68908
1.72839
1.80886
1.96298
2.20698
2.57224
3.10422
3.87665
5.02707
6.86723
10.2918
18.7439
46.5283
137.251
368.174
973.879
1.63853
1.63856
1.6386
1.63865
1.6387
1.63877
1.63884
1.63893
1.63903
1.63916
1.6393
1.63948
1.6397
1.64
1.64048
1.64144
1.64352
1.64824
1.65867
1.68069
1.72487
1.81207
1.97393
2.22441
2.59309
3.12356
3.88903
5.03344
6.9019
10.5519
19.9647
50.7803
143.553
363.532
962.649
1.6245
1.62456
1.62464
1.62472
1.62481
1.62492
1.62503
1.62516
1.6253
1.62546
1.62565
1.62587
1.62616
1.62656
1.62724
1.62855
1.63127
1.63706
1.64923
1.67392
1.72202
1.81456
1.98219
2.23688
2.60679
3.13457
3.89469
5.04023
6.95826
10.8541
21.2504
54.715
148.235
359.041
955.913
1.61237
1.61242
1.61248
1.61255
1.61264
1.61273
1.61285
1.61299
1.61316
1.61336
1.61359
1.61387
1.61423
1.61472
1.61554
1.61709
1.62026
1.62694
1.64075
1.66814
1.71983
1.81657
1.98825
2.2453
2.61485
3.13916
3.89463
5.04889
7.03016
11.198
22.588
58.3037
151.676
354.956
953.148
1.60229
1.60238
1.6025
1.60262
1.60276
1.6029
1.60306
1.60324
1.60344
1.60367
1.60394
1.60426
1.60469
1.6053
1.60632
1.60827
1.61211
1.61983
1.63508
1.66417
1.71822
1.81822
1.9927
2.25076
2.61881
3.13876
3.89281
5.05773
7.10694
11.5434
23.8509
61.3307
153.855
351.745
953.856
1.59487
1.59492
1.595
1.59509
1.59521
1.59535
1.59552
1.59571
1.59594
1.59622
1.59654
1.59692
1.59742
1.59812
1.59926
1.60138
1.60552
1.61379
1.63013
1.66151
1.71832
1.82016
1.99611
2.25396
2.61935
3.13654
3.88886
5.06767
7.1891
11.8949
25.0511
63.8635
155.245
349.3
956.899
1.5909
1.59101
1.59114
1.59127
1.59141
1.59156
1.59173
1.59192
1.59214
1.59241
1.59272
1.59312
1.59364
1.59441
1.59572
1.59817
1.60291
1.61217
1.62981
1.66199
1.71951
1.82285
1.99926
2.25591
2.61866
3.13178
3.88266
5.07611
7.26736
12.2243
26.109
65.7678
155.814
347.511
963.446
1.59242
1.59249
1.59261
1.59273
1.59285
1.59299
1.59314
1.59331
1.59351
1.59374
1.59403
1.5944
1.59489
1.59564
1.59693
1.59942
1.60424
1.61366
1.63155
1.66432
1.72259
1.82677
2.00289
2.25779
2.61718
3.1257
3.87537
5.08291
7.34013
12.5245
27.0105
67.1765
155.855
346.401
973.931
1.598
1.59802
1.59809
1.59817
1.59824
1.59833
1.59842
1.59852
1.59864
1.59879
1.59898
1.59924
1.59963
1.60027
1.60148
1.60391
1.60876
1.61827
1.63638
1.66959
1.72863
1.83286
2.00783
2.25998
2.6149
3.11884
3.86681
5.08679
7.40049
12.7739
27.7068
68.0456
155.619
345.891
987.788
1.61006
1.60995
1.60994
1.6099
1.60987
1.60983
1.60978
1.60973
1.60968
1.60963
1.60961
1.60965
1.60979
1.61017
1.61115
1.61342
1.61818
1.62775
1.64604
1.6796
1.7385
1.84196
2.01504
2.26388
2.61453
3.1127
3.85783
5.08647
7.44958
12.98
28.2406
68.5961
155.1
345.933
1005.05
1.63293
1.63264
1.63245
1.63222
1.63196
1.63168
1.63137
1.63103
1.63064
1.63023
1.6298
1.62939
1.62904
1.62891
1.62929
1.63095
1.63517
1.64423
1.66205
1.69502
1.7531
1.85509
2.02558
2.27051
2.61574
3.10759
3.84857
5.08397
7.4805
13.1193
28.5589
68.5909
154.187
346.307
1025.75
1.66874
1.66809
1.66755
1.66693
1.66625
1.66549
1.66465
1.66372
1.6627
1.66158
1.6604
1.65916
1.65794
1.65687
1.65629
1.65694
1.6601
1.66816
1.685
1.71682
1.77343
1.87321
2.04032
2.28059
2.61944
3.10509
3.84016
5.07874
7.50099
13.2166
28.7332
68.4311
153.135
347.173
1049.88
1.72166
1.72043
1.7193
1.71803
1.71663
1.7151
1.71341
1.71155
1.7095
1.70725
1.70482
1.70221
1.69949
1.6968
1.69451
1.69351
1.69495
1.70127
1.71636
1.74638
1.8008
1.89761
2.06053
2.29533
2.62715
3.10615
3.83422
5.07015
7.49976
13.2444
28.7145
68.0316
152.036
348.55
1077.39
1.7972
1.79497
1.79279
1.79037
1.78771
1.78479
1.7816
1.7781
1.77427
1.77012
1.76564
1.76086
1.75584
1.75071
1.74584
1.74224
1.74137
1.74495
1.75743
1.78485
1.83625
1.9292
2.0871
2.31572
2.64028
3.11014
3.82948
5.06014
7.49161
13.2314
28.6187
67.353
150.848
350.345
1108.22
1.90324
1.89945
1.89557
1.89132
1.88667
1.88161
1.87609
1.87008
1.86352
1.85639
1.84869
1.84044
1.83171
1.82268
1.81375
1.80617
1.8015
1.80182
1.81016
1.83366
1.8813
1.96943
2.12134
2.34298
2.65929
3.11887
3.82995
5.05035
7.47373
13.1924
28.4138
66.5306
149.564
352.498
1142.17
2.05027
2.04389
2.03709
2.02969
2.02163
2.01289
2.00343
1.99319
1.98215
1.97028
1.95762
1.94418
1.93005
1.91539
1.90066
1.8874
1.87738
1.87277
1.87626
1.89431
1.93672
2.01902
2.16396
2.37771
2.68499
3.13444
3.83328
5.0424
7.44683
13.1151
28.1071
65.6099
148.28
355.059
1179.19
2.2542
2.24377
2.23234
2.22002
2.20671
2.19237
2.17694
2.16031
2.14243
2.12326
2.10281
2.08117
2.05852
2.03514
2.01167
1.99008
1.9724
1.96062
1.95802
1.96883
2.00409
2.07953
2.2162
2.4211
2.71851
3.15665
3.84117
5.03534
7.41437
13.0089
27.7326
64.5854
146.962
357.93
1218.95
2.537
2.51973
2.5003
2.47947
2.4571
2.43316
2.40761
2.38042
2.35158
2.32114
2.28917
2.25577
2.22113
2.18553
2.14983
2.1167
2.08854
2.06717
2.05579
2.0588
2.08458
2.15089
2.27853
2.4734
2.75995
3.18589
3.85627
5.03336
7.37943
12.8859
27.32
63.5258
145.69
361.174
1261.45
2.9356
2.90747
2.87529
2.84115
2.80482
2.76621
2.72525
2.68182
2.63589
2.58753
2.53695
2.48458
2.43096
2.37673
2.32302
2.27339
2.2306
2.19613
2.17288
2.16573
2.18037
2.23513
2.35177
2.53572
2.81042
3.22321
3.87858
5.03541
7.34519
12.7524
26.8749
62.4218
144.417
364.658
1306.14
3.50565
3.45734
3.40145
3.34266
3.28071
3.21569
3.14781
3.07731
3.00443
2.92941
2.85243
2.77374
2.69381
2.61354
2.53479
2.46262
2.40027
2.34866
2.31018
2.28929
2.2923
2.33243
2.43547
2.60762
2.86946
3.26833
3.90768
5.04155
7.31191
12.6136
26.4196
61.3299
143.223
368.482
1353.16
4.37312
4.28733
4.18925
4.08848
3.9842
3.87584
3.76318
3.64634
3.52591
3.40295
3.2789
3.15526
3.0332
2.91361
2.79842
2.69422
2.60476
2.53002
2.47152
2.43296
2.42106
2.44476
2.53121
2.69009
2.93802
3.32183
3.94418
5.05412
7.28296
12.4752
25.9585
60.2337
142.051
372.467
1401.71
1455.25
376.916
140.812
59.0623
25.4594
12.3251
7.25504
5.07508
3.99222
3.38948
3.02297
2.79095
2.6498
2.58563
2.58037
2.61363
2.67637
2.76282
2.8705
2.99932
3.15125
3.32299
3.50614
3.69731
3.89369
4.09281
4.29347
4.49563
4.69982
4.90665
5.11641
5.32893
5.54325
5.75628
5.94401
1518.27
382.447
139.561
57.7966
24.9186
12.1674
7.23429
5.10876
4.05677
3.47675
3.13119
2.91848
2.80186
2.76438
2.78504
2.84854
2.9463
3.07453
3.2332
3.42555
3.65821
3.92958
4.22788
4.54955
4.89467
5.26445
5.65937
6.07801
6.51706
6.97189
7.43701
7.90662
8.37584
8.84163
9.25498
1582.14
388.257
138.478
56.625
24.4156
12.0228
7.2215
5.1516
4.13172
3.57535
3.2502
3.0609
2.97369
2.96322
3.0171
3.11819
3.26091
3.44469
3.67393
3.95846
4.31481
4.74957
5.2545
5.83371
6.49125
7.22466
8.0254
8.88136
9.77914
10.7054
11.6472
12.5929
13.5326
14.4573
15.2843
1646.36
394.195
137.471
55.526
23.9491
11.8953
7.22275
5.20387
4.21555
3.68244