/*--------------------------------*- C++ -*----------------------------------*\
  =========                 |
  \\      /  F ield         | OpenFOAM: The Open Source CFD Toolbox
   \\    /   O peration     | Website:  https://openfoam.org
    \\  /    A nd           | Version:  8
     \\/     M anipulation  |
\*---------------------------------------------------------------------------*/
FoamFile
{
    version     2.0;
    format      ascii;
    class       volScalarField;
    location    "300";
    object      k;
}
// * * * * * * * * * * * * * * * * * * * * * * * * * * * * * * * * * * * * * //

dimensions      [0 2 -2 0 0 0 0];

internalField   nonuniform List<scalar> 
15677
(
0.991116
0.878329
0.495836
0.398731
0.38043
0.375727
0.374331
0.373838
0.373578
0.373423
0.373331
0.373282
0.373258
0.373248
0.373245
0.373244
0.373242
0.373241
0.37324
0.373239
0.373239
0.373239
0.373239
0.37324
0.37324
0.373241
0.373241
0.373242
0.373242
0.373242
0.373242
0.373243
0.373243
0.373243
0.373243
1.1916
0.830644
0.479791
0.386788
0.3726
0.370441
0.370024
0.369925
0.369987
0.37004
0.370044
0.370012
0.369971
0.369936
0.369916
0.369906
0.369902
0.3699
0.369898
0.369897
0.369895
0.369894
0.369893
0.369891
0.36989
0.369889
0.369888
0.369887
0.369886
0.369886
0.369885
0.369885
0.369885
0.369885
0.369884
1.13854
0.693059
0.41431
0.35854
0.355678
0.359201
0.36205
0.364006
0.365279
0.366077
0.366542
0.366772
0.366848
0.366848
0.366825
0.366804
0.366789
0.36678
0.366774
0.366769
0.366765
0.366763
0.366762
0.366761
0.366761
0.366761
0.366762
0.366762
0.366762
0.366762
0.366763
0.366763
0.366763
0.366763
0.366763
1.04262
0.659334
0.359186
0.31749
0.329869
0.342604
0.350922
0.356113
0.359362
0.361405
0.362667
0.3634
0.363772
0.363917
0.363942
0.363933
0.363918
0.363906
0.363897
0.363891
0.363885
0.363881
0.363877
0.363873
0.36387
0.363867
0.363865
0.363863
0.363861
0.363859
0.363858
0.363857
0.363857
0.363856
0.363856
0.977766
0.668321
0.35853
0.295979
0.309238
0.326919
0.33939
0.347555
0.352855
0.3563
0.358519
0.359898
0.36069
0.361078
0.361208
0.361233
0.361225
0.361209
0.361194
0.361182
0.361173
0.361166
0.361161
0.361157
0.361155
0.361154
0.361153
0.361152
0.361152
0.361152
0.361152
0.361152
0.361152
0.361152
0.361151
0.936319
0.691758
0.368845
0.283166
0.292386
0.312652
0.328232
0.338957
0.346181
0.351025
0.354247
0.356336
0.357617
0.358322
0.358615
0.358715
0.358736
0.35873
0.358717
0.358703
0.358691
0.358681
0.358672
0.358665
0.358659
0.358654
0.358649
0.358645
0.358641
0.358638
0.358635
0.358632
0.35863
0.358629
0.358627
0.910474
0.716397
0.392362
0.284181
0.28199
0.300825
0.318046
0.330692
0.339581
0.345736
0.349948
0.352768
0.354573
0.355634
0.356122
0.356317
0.356379
0.356385
0.356372
0.356354
0.356338
0.356324
0.356313
0.356304
0.356298
0.356293
0.356289
0.356286
0.356284
0.356282
0.356281
0.356279
0.356278
0.356277
0.356276
0.892769
0.732609
0.423972
0.289405
0.275528
0.291599
0.309251
0.32313
0.333316
0.340604
0.345732
0.349262
0.351598
0.35304
0.353758
0.354079
0.354209
0.354247
0.354246
0.354231
0.354212
0.354193
0.354178
0.354165
0.354154
0.354145
0.354136
0.354129
0.354122
0.354116
0.35411
0.354105
0.354101
0.354098
0.354095
0.880641
0.743982
0.456276
0.300417
0.272405
0.284354
0.301637
0.316271
0.327463
0.335715
0.341669
0.345866
0.34872
0.350543
0.351495
0.351946
0.352143
0.35221
0.352219
0.352204
0.352182
0.35216
0.352141
0.352125
0.352111
0.3521
0.352091
0.352083
0.352076
0.352071
0.352067
0.352063
0.35206
0.352058
0.352055
0.871028
0.747446
0.484011
0.315535
0.272845
0.279332
0.295353
0.310212
0.322097
0.331133
0.337813
0.342624
0.345973
0.348177
0.349381
0.349989
0.35028
0.3504
0.350434
0.350426
0.350403
0.350375
0.35035
0.350328
0.35031
0.350293
0.35028
0.350268
0.350257
0.350248
0.35024
0.350233
0.350226
0.350221
0.350216
0.864285
0.750029
0.508067
0.331853
0.274569
0.275742
0.290144
0.30492
0.317254
0.326905
0.334205
0.339574
0.343388
0.345959
0.3474
0.348147
0.348515
0.348674
0.348724
0.348724
0.348701
0.34867
0.348641
0.348615
0.348592
0.348572
0.348555
0.348541
0.34853
0.348521
0.348513
0.348506
0.348501
0.348496
0.348491
0.860216
0.751191
0.527749
0.347932
0.278089
0.273328
0.285869
0.300316
0.312914
0.32305
0.330882
0.336749
0.340993
0.343914
0.345608
0.346529
0.347015
0.347244
0.34733
0.34734
0.347315
0.347278
0.347241
0.347208
0.347179
0.347155
0.347133
0.347115
0.3471
0.347086
0.347074
0.347063
0.347053
0.347044
0.347036
0.858519
0.751275
0.544087
0.363518
0.282896
0.271925
0.282446
0.296381
0.309085
0.319581
0.327861
0.334177
0.338829
0.342097
0.344021
0.345072
0.345626
0.345893
0.346002
0.346028
0.34601
0.345973
0.345933
0.345894
0.34586
0.34583
0.345804
0.345782
0.345763
0.345747
0.345733
0.345722
0.345712
0.345703
0.345697
0.858927
0.751105
0.556268
0.377544
0.288182
0.271344
0.279684
0.293013
0.305733
0.316514
0.325182
0.331906
0.33693
0.340505
0.342674
0.343926
0.344634
0.344998
0.34515
0.345186
0.345165
0.34512
0.345072
0.345027
0.344987
0.344953
0.344923
0.344897
0.344875
0.344855
0.344838
0.344823
0.344809
0.344797
0.344787
0.860724
0.751013
0.566124
0.389945
0.293691
0.271462
0.277568
0.290206
0.302858
0.31385
0.322853
0.329944
0.335338
0.339278
0.341686
0.343037
0.343784
0.344172
0.344361
0.344433
0.344434
0.344398
0.34435
0.344302
0.344258
0.344218
0.344183
0.344153
0.344126
0.344102
0.344082
0.344064
0.344049
0.344035
0.344026
0.864602
0.750792
0.572634
0.400105
0.299078
0.271862
0.275913
0.287867
0.300433
0.311611
0.320925
0.328393
0.33415
0.338325
0.340961
0.3426
0.343579
0.344122
0.344379
0.344472
0.344485
0.344454
0.34441
0.344364
0.34432
0.344282
0.344247
0.344217
0.344191
0.344168
0.344148
0.344131
0.344117
0.344105
0.344098
0.87083
0.750826
0.578004
0.408369
0.303842
0.272619
0.274697
0.286014
0.298466
0.309802
0.319429
0.327217
0.333278
0.337978
0.340996
0.342754
0.343809
0.344408
0.344713
0.344843
0.344879
0.344865
0.344832
0.344794
0.344758
0.344724
0.344695
0.344669
0.344647
0.344627
0.344611
0.344598
0.344587
0.344576
0.344571
0.879038
0.750859
0.581027
0.414861
0.308173
0.273667
0.273849
0.284537
0.296948
0.308477
0.318355
0.32656
0.333225
0.33818
0.341378
0.34332
0.344506
0.345202
0.345583
0.345772
0.345851
0.34587
0.345862
0.345845
0.345827
0.345809
0.345794
0.345781
0.34577
0.345761
0.345755
0.34575
0.345747
0.345743
0.345747
0.889216
0.750792
0.583032
0.419602
0.311679
0.274688
0.273346
0.283577
0.295884
0.307556
0.317927
0.32664
0.33355
0.338838
0.342321
0.344526
0.34593
0.346793
0.347304
0.347595
0.347752
0.347834
0.347877
0.347902
0.347921
0.347936
0.347949
0.347962
0.347976
0.347989
0.348003
0.348017
0.34803
0.348041
0.348061
0.901348
0.7508
0.583239
0.422751
0.314598
0.275762
0.273167
0.282844
0.295287
0.30741
0.318101
0.327109
0.334424
0.340208
0.344151
0.346699
0.348354
0.349416
0.35009
0.350518
0.350796
0.350983
0.351118
0.351225
0.351316
0.351397
0.351472
0.351541
0.351605
0.351666
0.351724
0.351778
0.351829
0.351873
0.351926
0.915402
0.750871
0.582893
0.424856
0.316751
0.276759
0.273281
0.282845
0.295368
0.307669
0.318703
0.32818
0.336141
0.342537
0.346959
0.349885
0.351856
0.353182
0.354084
0.354714
0.35518
0.355539
0.355828
0.356074
0.356293
0.356491
0.356672
0.356839
0.356995
0.357139
0.357274
0.357399
0.357513
0.357613
0.35772
0.931293
0.751014
0.581977
0.425418
0.318404
0.277752
0.273595
0.283051
0.295748
0.308385
0.319974
0.330172
0.338798
0.345854
0.350854
0.354252
0.356625
0.358302
0.359519
0.360441
0.361188
0.361813
0.362345
0.362815
0.36324
0.36363
0.36399
0.364323
0.364631
0.364918
0.365182
0.365426
0.365647
0.365842
0.366039
0.94895
0.751241
0.580205
0.425132
0.319344
0.278693
0.274198
0.283582
0.296586
0.309797
0.322086
0.333017
0.342429
0.350277
0.355979
0.359964
0.362855
0.364997
0.366645
0.367985
0.369147
0.370174
0.371084
0.371907
0.372662
0.37336
0.374006
0.374606
0.375162
0.375676
0.37615
0.376585
0.376979
0.377331
0.37767
0.968206
0.751484
0.577802
0.424335
0.319942
0.279627
0.275069
0.284624
0.298106
0.311957
0.32501
0.336805
0.347142
0.355934
0.362487
0.367205
0.370755
0.373508
0.375746
0.377672
0.37943
0.38105
0.382522
0.383877
0.385134
0.386306
0.387398
0.388415
0.38936
0.390235
0.391042
0.391783
0.392456
0.393062
0.393629
0.988995
0.751884
0.57508
0.422795
0.320057
0.280574
0.276208
0.28613
0.300198
0.314816
0.328775
0.341584
0.353008
0.362924
0.370508
0.376131
0.380516
0.384068
0.3871
0.389835
0.392434
0.394908
0.397208
0.399361
0.401382
0.403279
0.405057
0.406719
0.408266
0.409701
0.411028
0.412248
0.413361
0.41437
0.415292
1.01108
0.752315
0.571912
0.42059
0.319963
0.281574
0.277635
0.288105
0.302907
0.318431
0.333447
0.347434
0.360126
0.371368
0.380194
0.386926
0.392359
0.396951
0.401039
0.404879
0.408656
0.41235
0.41585
0.419165
0.422306
0.425277
0.42808
0.430713
0.433178
0.435473
0.437604
0.439571
0.441375
0.443026
0.444506
1.03443
0.752931
0.568612
0.418127
0.319742
0.282687
0.279352
0.29053
0.306211
0.322791
0.339024
0.354367
0.368527
0.381323
0.391623
0.3997
0.406448
0.41237
0.417845
0.423165
0.42855
0.433935
0.439128
0.444119
0.448911
0.453491
0.457845
0.46196
0.465832
0.469457
0.472838
0.475977
0.478873
0.481542
0.483896
1.05871
0.753564
0.565024
0.415264
0.319325
0.283921
0.281371
0.293433
0.310148
0.32794
0.34556
0.362452
0.378298
0.392899
0.404939
0.414644
0.42303
0.430646
0.437931
0.445231
0.452821
0.460593
0.468232
0.475671
0.482875
0.489807
0.496444
0.502766
0.50876
0.514414
0.519719
0.524673
0.529276
0.533552
0.537283
1.08395
0.75441
0.561453
0.412341
0.318906
0.285309
0.283691
0.296786
0.314677
0.333835
0.353014
0.371646
0.389404
0.406067
0.42013
0.431789
0.442174
0.451907
0.461508
0.471402
0.481937
0.492931
0.503886
0.514694
0.525324
0.535732
0.545855
0.555621
0.564971
0.573866
0.58229
0.590241
0.597729
0.60479
0.610955
1.10971
0.755247
0.557713
0.409191
0.318465
0.286869
0.286311
0.300603
0.31982
0.340504
0.361422
0.382007
0.401923
0.420935
0.43736
0.451362
0.464198
0.476601
0.489198
0.502525
0.517056
0.532583
0.548455
0.56451
0.5806
0.596523
0.612113
0.627275
0.641981
0.656229
0.670019
0.683339
0.696181
0.708553
0.719436
0.373247
0.373254
0.373261
0.373269
0.373277
0.373285
0.373294
0.373302
0.373311
0.37332
0.373329
0.373339
0.373348
0.373357
0.373366
0.373375
0.373383
0.373391
0.373399
0.373407
0.373414
0.373421
0.369895
0.369916
0.369937
0.369959
0.369982
0.370005
0.370029
0.370054
0.370079
0.370105
0.370132
0.370159
0.370186
0.370212
0.370238
0.370263
0.370287
0.37031
0.370333
0.370355
0.370376
0.370397
0.366779
0.366813
0.366847
0.366882
0.366919
0.366956
0.366994
0.367033
0.367073
0.367115
0.367157
0.367201
0.367244
0.367285
0.367326
0.367366
0.367404
0.367441
0.367478
0.367513
0.367547
0.367581
0.363877
0.363922
0.363967
0.364015
0.364063
0.364113
0.364164
0.364217
0.364271
0.364327
0.364384
0.364443
0.364501
0.364557
0.364612
0.364665
0.364717
0.364767
0.364816
0.364863
0.364909
0.364954
0.361178
0.361233
0.361289
0.361347
0.361406
0.361467
0.361529
0.361594
0.36166
0.361728
0.361799
0.36187
0.361942
0.362011
0.362079
0.362144
0.362208
0.36227
0.36233
0.362389
0.362446
0.362501
0.358659
0.358723
0.358789
0.358857
0.358926
0.358998
0.359072
0.359148
0.359225
0.359305
0.359387
0.359471
0.359554
0.359636
0.359714
0.359791
0.359866
0.359939
0.360009
0.360078
0.360145
0.36021
0.35631
0.356382
0.356456
0.356533
0.356611
0.356692
0.356775
0.356861
0.356949
0.35704
0.357133
0.357229
0.357324
0.357416
0.357506
0.357593
0.357678
0.357761
0.357841
0.357919
0.357995
0.358069
0.354133
0.354212
0.354294
0.354378
0.354464
0.354552
0.354643
0.354737
0.354833
0.354932
0.355034
0.355138
0.355242
0.355344
0.355442
0.355539
0.355633
0.355724
0.355813
0.3559
0.355984
0.356066
0.352095
0.352179
0.352266
0.352357
0.35245
0.352546
0.352645
0.352748
0.352854
0.352962
0.353074
0.353188
0.353302
0.353412
0.35352
0.353624
0.353726
0.353825
0.353922
0.354016
0.354107
0.354197
0.350255
0.350342
0.35043
0.350522
0.350617
0.350715
0.350817
0.350922
0.35103
0.351142
0.351258
0.351378
0.351497
0.351613
0.351727
0.351839
0.351948
0.352054
0.352157
0.352258
0.352357
0.352452
0.348532
0.34862
0.348711
0.348807
0.348906
0.349009
0.349117
0.349228
0.349343
0.349463
0.349586
0.349711
0.349836
0.349958
0.350076
0.350192
0.350305
0.350416
0.350523
0.350629
0.350732
0.350833
0.347072
0.347155
0.347239
0.347327
0.347419
0.347515
0.347614
0.347718
0.347827
0.34794
0.348059
0.348184
0.348309
0.348434
0.348556
0.348676
0.348794
0.348909
0.349021
0.34913
0.349237
0.349342
0.345731
0.345808
0.345888
0.345973
0.346064
0.346161
0.346263
0.34637
0.346482
0.346598
0.346718
0.34684
0.346963
0.347083
0.3472
0.347316
0.347431
0.347543
0.347654
0.347764
0.347872
0.347978
0.34481
0.344867
0.344924
0.344984
0.345047
0.345113
0.345184
0.34526
0.345344
0.345436
0.345538
0.345648
0.345764
0.345882
0.346
0.346116
0.34623
0.346342
0.346451
0.346558
0.346662
0.346766
0.344034
0.344057
0.344088
0.344134
0.344192
0.344258
0.344332
0.34441
0.344493
0.344578
0.344664
0.344751
0.344838
0.344926
0.345016
0.345108
0.345202
0.3453
0.345399
0.3455
0.345601
0.345705
0.344086
0.344057
0.34401
0.343967
0.343931
0.343903
0.343884
0.343875
0.343879
0.343899
0.343945
0.344012
0.344092
0.344177
0.344264
0.34435
0.344434
0.344516
0.344595
0.344673
0.34475
0.344834
0.34453
0.344434
0.344334
0.344244
0.344164
0.344092
0.34403
0.343978
0.343937
0.343902
0.343859
0.34382
0.343793
0.343781
0.343782
0.343799
0.343834
0.343887
0.343951
0.344021
0.344096
0.34418
0.345665
0.345468
0.345262
0.345078
0.344908
0.344748
0.344601
0.344465
0.34434
0.344224
0.344122
0.34403
0.343954
0.343896
0.343853
0.343822
0.343793
0.343764
0.343743
0.343733
0.343734
0.343759
0.347912
0.34754
0.347153
0.346799
0.346466
0.346153
0.345859
0.345586
0.345331
0.345093
0.344876
0.344679
0.344505
0.344357
0.344232
0.344125
0.344035
0.343961
0.3439
0.343852
0.343818
0.343814
0.351694
0.351083
0.35045
0.349862
0.349302
0.348764
0.348247
0.347748
0.347274
0.346827
0.346409
0.346023
0.345677
0.345376
0.345118
0.344894
0.344703
0.34454
0.344399
0.344279
0.344179
0.344123
0.357377
0.356429
0.355449
0.354533
0.353656
0.352809
0.351992
0.351205
0.350449
0.349728
0.349043
0.348401
0.347816
0.347294
0.346824
0.346408
0.346042
0.345722
0.345441
0.345195
0.344983
0.344842
0.365555
0.364134
0.362675
0.361306
0.359989
0.358713
0.357479
0.356286
0.355137
0.354034
0.35298
0.351983
0.351071
0.350251
0.349514
0.348855
0.348266
0.347742
0.347276
0.34686
0.346493
0.346218
0.37701
0.374931
0.372814
0.370821
0.368898
0.367032
0.365222
0.363469
0.361776
0.360145
0.358582
0.357099
0.355736
0.354509
0.353403
0.352408
0.351515
0.350715
0.349997
0.349353
0.348779
0.348335
0.392754
0.389769
0.386755
0.383911
0.38116
0.378486
0.375888
0.373368
0.370929
0.368576
0.366316
0.364169
0.362192
0.360408
0.358799
0.357349
0.356043
0.354868
0.353813
0.352861
0.35201
0.351338
0.41416
0.409924
0.405687
0.401682
0.3978
0.394023
0.390348
0.386778
0.383321
0.379984
0.376775
0.373726
0.370915
0.368378
0.366088
0.364023
0.362161
0.360485
0.358976
0.357614
0.356394
0.355414
0.443058
0.437099
0.431199
0.42561
0.420187
0.414905
0.409761
0.404761
0.399916
0.395237
0.390737
0.38646
0.382519
0.378962
0.375755
0.372863
0.370257
0.367911
0.365799
0.363894
0.362185
0.360798
0.482066
0.473697
0.465511
0.457738
0.450187
0.442829
0.435664
0.428704
0.421962
0.415456
0.409203
0.403265
0.397796
0.392864
0.38842
0.384418
0.380816
0.377577
0.374664
0.372038
0.369686
0.367756
0.534971
0.523122
0.511768
0.500994
0.490511
0.480282
0.470312
0.460625
0.451246
0.442205
0.433532
0.425315
0.417768
0.41098
0.404877
0.399392
0.394462
0.390035
0.38606
0.382485
0.379284
0.376641
0.608046
0.590581
0.574375
0.559215
0.544595
0.530395
0.516588
0.503184
0.490208
0.477696
0.465689
0.454315
0.443882
0.434525
0.426145
0.418646
0.411937
0.405934
0.400561
0.395739
0.391427
0.387833
0.715904
0.68853
0.663525
0.640534
0.618851
0.59823
0.578548
0.55973
0.541728
0.524512
0.508072
0.492521
0.478244
0.465411
0.453906
0.443618
0.434442
0.426272
0.419004
0.412525
0.406765
0.401956
0.373425
0.373425
0.373425
0.373425
0.373425
0.373425
0.370408
0.370408
0.370408
0.370408
0.370408
0.370408
0.367597
0.367597
0.367597
0.367597
0.367597
0.367597
0.364976
0.364976
0.364976
0.364976
0.364976
0.364976
0.362528
0.362528
0.362528
0.362528
0.362528
0.362528
0.360242
0.360242
0.360242
0.360242
0.360242
0.360242
0.358106
0.358106
0.358106
0.358106
0.358106
0.358106
0.356107
0.356107
0.356107
0.356107
0.356107
0.356107
0.354241
0.354241
0.354241
0.354241
0.354241
0.354241
0.3525
0.352499
0.3525
0.3525
0.3525
0.3525
0.350882
0.350881
0.350881
0.350882
0.350882
0.350883
0.349392
0.34939
0.34939
0.34939
0.349391
0.349393
0.348031
0.348029
0.348029
0.348029
0.348029
0.34803
0.346814
0.346807
0.346806
0.346806
0.346807
0.346813
0.345755
0.345751
0.345753
0.345753
0.345751
0.345755
0.344867
0.344853
0.344851
0.344851
0.344852
0.344867
0.344221
0.344212
0.344216
0.344216
0.344212
0.344221
0.343759
0.343733
0.343734
0.343734
0.343733
0.34376
0.343798
0.343768
0.34377
0.343771
0.343768
0.343799
0.344078
0.344036
0.344041
0.344042
0.344036
0.344079
0.344747
0.344689
0.344698
0.344698
0.34469
0.344749
0.346045
0.345962
0.345974
0.345974
0.345963
0.346047
0.348066
0.347957
0.347973
0.347974
0.347958
0.348069
0.35094
0.350796
0.350821
0.350821
0.350797
0.350942
0.354843
0.354658
0.354692
0.354692
0.354659
0.354846
0.36
0.359766
0.359813
0.359813
0.359767
0.360004
0.366657
0.366361
0.366425
0.366426
0.366362
0.366661
0.375157
0.374796
0.374884
0.374884
0.374797
0.375162
0.385821
0.385371
0.385482
0.385482
0.385372
0.385827
0.399303
0.398745
0.398875
0.398876
0.398747
0.399311
0.373421
0.373414
0.373406
0.373399
0.373391
0.373383
0.373374
0.373366
0.373357
0.373348
0.373339
0.373329
0.37332
0.373311
0.373302
0.373293
0.373285
0.373277
0.373269
0.373261
0.373254
0.373247
0.370397
0.370376
0.370354
0.370332
0.370309
0.370286
0.370262
0.370237
0.370212
0.370185
0.370159
0.370131
0.370104
0.370078
0.370053
0.370028
0.370004
0.369981
0.369958
0.369936
0.369915
0.369894
0.36758
0.367547
0.367512
0.367477
0.36744
0.367403
0.367364
0.367325
0.367284
0.367243
0.3672
0.367157
0.367114
0.367072
0.367032
0.366993
0.366954
0.366917
0.366881
0.366846
0.366812
0.366779
0.364954
0.364908
0.364862
0.364814
0.364765
0.364715
0.364663
0.36461
0.364556
0.3645
0.364443
0.364384
0.364326
0.36427
0.364216
0.364163
0.364111
0.364061
0.364013
0.363966
0.363921
0.363877
0.3625
0.362444
0.362387
0.362328
0.362267
0.362205
0.362142
0.362076
0.362009
0.36194
0.36187
0.361798
0.361727
0.361658
0.361592
0.361527
0.361464
0.361404
0.361345
0.361287
0.361232
0.361178
0.360209
0.360144
0.360076
0.360007
0.359936
0.359863
0.359788
0.359712
0.359633
0.359553
0.35947
0.359387
0.359304
0.359223
0.359145
0.359069
0.358995
0.358924
0.358854
0.358787
0.358721
0.358658
0.358069
0.357994
0.357917
0.357838
0.357758
0.357675
0.35759
0.357503
0.357414
0.357322
0.357228
0.357133
0.357038
0.356946
0.356858
0.356772
0.356688
0.356608
0.35653
0.356454
0.356381
0.35631
0.356066
0.355983
0.355898
0.355811
0.355721
0.35563
0.355536
0.35544
0.355341
0.355241
0.355138
0.355034
0.35493
0.354831
0.354734
0.35464
0.354549
0.35446
0.354375
0.354291
0.354211
0.354132
0.354197
0.354106
0.354014
0.353919
0.353822
0.353723
0.353621
0.353517
0.35341
0.353301
0.353189
0.353074
0.352961
0.352852
0.352745
0.352642
0.352543
0.352447
0.352354
0.352264
0.352178
0.352095
0.352453
0.352356
0.352257
0.352155
0.352051
0.351945
0.351836
0.351725
0.351612
0.351496
0.351378
0.351259
0.351142
0.351028
0.350919
0.350814
0.350712
0.350614
0.350519
0.350428
0.35034
0.350255
0.350833
0.350731
0.350627
0.350521
0.350413
0.350302
0.350189
0.350074
0.349956
0.349836
0.349712
0.349586
0.349462
0.349342
0.349226
0.349114
0.349006
0.348903
0.348804
0.34871
0.348619
0.348532
0.349341
0.349235
0.349128
0.349018
0.348905
0.34879
0.348673
0.348553
0.348432
0.348309
0.348184
0.34806
0.34794
0.347825
0.347716
0.347611
0.347512
0.347416
0.347325
0.347237
0.347154
0.347073
0.347978
0.347869
0.347761
0.347651
0.347539
0.347427
0.347313
0.347197
0.34708
0.346962
0.346841
0.346718
0.346597
0.34648
0.346367
0.34626
0.346158
0.346061
0.345971
0.345887
0.345809
0.345733
0.346764
0.346659
0.346554
0.346447
0.346338
0.346226
0.346112
0.345996
0.345879
0.345763
0.345648
0.345538
0.345435
0.345343
0.345258
0.345182
0.345111
0.345045
0.344983
0.344924
0.344868
0.344812
0.345703
0.345598
0.345496
0.345395
0.345296
0.345199
0.345104
0.345013
0.344924
0.344837
0.344751
0.344664
0.344577
0.344491
0.344408
0.344329
0.344256
0.344191
0.344134
0.344089
0.34406
0.344039
0.344833
0.344748
0.34467
0.344592
0.344512
0.344431
0.344347
0.344261
0.344175
0.344091
0.344013
0.343946
0.343899
0.34388
0.343877
0.343886
0.343906
0.343935
0.343972
0.344015
0.344062
0.344092
0.34418
0.344094
0.344019
0.343949
0.343885
0.343833
0.343799
0.343783
0.343782
0.343795
0.343822
0.343861
0.343905
0.343939
0.343982
0.344034
0.344097
0.34417
0.344251
0.34434
0.344442
0.344538
0.34376
0.343735
0.343734
0.343745
0.343766
0.343796
0.343825
0.343856
0.343899
0.343958
0.344033
0.344125
0.344229
0.344346
0.344472
0.344609
0.344758
0.344918
0.345089
0.345273
0.345478
0.345676
0.343815
0.34382
0.343855
0.343904
0.343966
0.344041
0.344131
0.344238
0.344364
0.344511
0.344683
0.344881
0.345101
0.345341
0.345599
0.345874
0.346169
0.346483
0.346816
0.347169
0.347556
0.347927
0.344126
0.344183
0.344284
0.344406
0.344548
0.344713
0.344906
0.345129
0.345388
0.345688
0.34603
0.346417
0.34684
0.347292
0.34777
0.348271
0.34879
0.349328
0.349888
0.350474
0.351104
0.351712
0.344846
0.34499
0.345204
0.345454
0.345737
0.34606
0.346428
0.346845
0.347313
0.347833
0.348413
0.349055
0.349748
0.350476
0.351237
0.352029
0.352848
0.353695
0.354571
0.355483
0.356457
0.3574
0.346224
0.346503
0.346875
0.347296
0.347766
0.348293
0.348884
0.349544
0.350279
0.351094
0.351999
0.352995
0.354062
0.355176
0.356333
0.357531
0.358769
0.360044
0.361359
0.362722
0.364171
0.365583
0.348343
0.348793
0.349374
0.350026
0.350749
0.351555
0.352451
0.353446
0.354549
0.355769
0.35712
0.358602
0.360184
0.361829
0.363535
0.365296
0.36711
0.368975
0.370894
0.372877
0.374979
0.377041
0.351348
0.35203
0.352891
0.353853
0.354917
0.356098
0.357408
0.358859
0.360463
0.362237
0.364196
0.366342
0.368628
0.371002
0.373458
0.37599
0.378594
0.381267
0.38401
0.386839
0.389831
0.39279
0.355428
0.35642
0.357655
0.359031
0.360552
0.362238
0.364105
0.366171
0.368454
0.370976
0.37376
0.376809
0.380053
0.383421
0.386902
0.390488
0.39417
0.397946
0.401815
0.405799
0.410002
0.414196
0.360815
0.362221
0.36395
0.365875
0.368003
0.370363
0.372976
0.375868
0.379066
0.3826
0.386503
0.39078
0.39533
0.400052
0.40493
0.409952
0.415106
0.420385
0.42579
0.431347
0.437197
0.443094
0.367778
0.369733
0.372115
0.374767
0.377702
0.38096
0.384572
0.388575
0.393005
0.397906
0.403321
0.409259
0.415581
0.422146
0.428934
0.435925
0.443103
0.450456
0.457982
0.465708
0.473822
0.482097
0.376671
0.379348
0.382588
0.3862
0.390206
0.394657
0.399601
0.405087
0.411171
0.417916
0.42539
0.433605
0.442374
0.451497
0.46094
0.470669
0.480656
0.490877
0.501323
0.512032
0.523284
0.534991
0.387873
0.391514
0.395879
0.400749
0.406165
0.412202
0.418931
0.42643
0.434784
0.444082
0.454413
0.465783
0.477922
0.490548
0.503611
0.517074
0.530906
0.545095
0.559665
0.574734
0.590792
0.608034
0.402008
0.406881
0.412711
0.419256
0.426582
0.434799
0.444002
0.45429
0.465759
0.478509
0.492646
0.50819
0.524812
0.542185
0.560314
0.579221
0.598948
0.619562
0.641177
0.664028
0.688792
0.71579
0.373243
0.373243
0.373243
0.373243
0.373242
0.373242
0.373242
0.373242
0.373241
0.373241
0.37324
0.37324
0.373239
0.373239
0.373239
0.373239
0.37324
0.373241
0.373242
0.373244
0.373245
0.373248
0.373258
0.373282
0.373331
0.373423
0.373578
0.373837
0.37433
0.375724
0.380424
0.398722
0.495839
0.878481
0.991309
0.369884
0.369884
0.369885
0.369885
0.369885
0.369886
0.369886
0.369887
0.369888
0.369889
0.36989
0.369891
0.369893
0.369894
0.369895
0.369897
0.369898
0.369899
0.369902
0.369906
0.369916
0.369936
0.369971
0.370012
0.370044
0.37004
0.369986
0.369923
0.370021
0.370435
0.37259
0.386772
0.479788
0.830765
1.19168
0.366763
0.366763
0.366763
0.366763
0.366762
0.366762
0.366762
0.366762
0.366762
0.366761
0.366761
0.366761
0.366762
0.366763
0.366766
0.366769
0.366774
0.36678
0.36679
0.366804
0.366825
0.366848
0.366849
0.366772
0.366542
0.366076
0.365277
0.364003
0.362043
0.359191
0.355661
0.358514
0.414294
0.693114
1.13857
0.363856
0.363856
0.363857
0.363858
0.363858
0.36386
0.363861
0.363863
0.363865
0.363867
0.36387
0.363873
0.363877
0.363881
0.363885
0.363891
0.363898
0.363907
0.363919
0.363934
0.363943
0.363918
0.363772
0.3634
0.362666
0.361404
0.359359
0.356107
0.350914
0.34259
0.329847
0.317459
0.359168
0.659399
1.04264
0.361151
0.361152
0.361152
0.361153
0.361153
0.361153
0.361153
0.361153
0.361153
0.361154
0.361156
0.361158
0.361161
0.361166
0.361173
0.361183
0.361195
0.36121
0.361226
0.361234
0.361209
0.361079
0.360691
0.359899
0.358518
0.356298
0.352852
0.347549
0.33938
0.326904
0.309216
0.295955
0.358556
0.668387
0.977801
0.358627
0.358628
0.35863
0.358632
0.358635
0.358638
0.358641
0.358645
0.358649
0.358654
0.35866
0.358666
0.358673
0.358681
0.358692
0.358704
0.358718
0.358732
0.358738
0.358716
0.358616
0.358324
0.357619
0.356337
0.354246
0.351023
0.346177
0.33895
0.328222
0.312637
0.292369
0.283161
0.368881
0.69184
0.936386
0.356276
0.356277
0.356278
0.356279
0.356281
0.356283
0.356284
0.356287
0.35629
0.356294
0.356299
0.356306
0.356314
0.356325
0.356339
0.356356
0.356374
0.356387
0.356381
0.356318
0.356124
0.355635
0.354574
0.352769
0.349948
0.345735
0.339577
0.330686
0.318037
0.300814
0.281978
0.284181
0.392402
0.716422
0.910552
0.354095
0.354098
0.354101
0.354105
0.35411
0.354116
0.354122
0.354129
0.354137
0.354146
0.354155
0.354166
0.354179
0.354195
0.354213
0.354233
0.354248
0.354249
0.354211
0.354082
0.35376
0.353043
0.3516
0.349263
0.345733
0.340603
0.333313
0.323124
0.309243
0.291588
0.275518
0.289415
0.424047
0.732684
0.892887
0.352056
0.352058
0.352061
0.352064
0.352068
0.352073
0.352078
0.352085
0.352093
0.352103
0.352114
0.352128
0.352144
0.352164
0.352186
0.352208
0.352222
0.352214
0.352146
0.35195
0.351499
0.350547
0.348722
0.345868
0.34167
0.335715
0.32746
0.316266
0.301631
0.284347
0.272404
0.300442
0.456338
0.743995
0.880775
0.350216
0.350221
0.350227
0.350234
0.350241
0.350249
0.350259
0.35027
0.350282
0.350296
0.350312
0.350331
0.350353
0.350378
0.350406
0.35043
0.350437
0.350405
0.350285
0.349994
0.349386
0.348183
0.345977
0.342628
0.337815
0.331134
0.322096
0.310209
0.295349
0.279328
0.272845
0.31556
0.484067
0.747474
0.871193
0.348492
0.348497
0.348503
0.348509
0.348516
0.348524
0.348534
0.348546
0.34856
0.348577
0.348597
0.34862
0.348647
0.348676
0.348707
0.34873
0.34873
0.34868
0.348521
0.348153
0.347407
0.345965
0.343393
0.339578
0.334209
0.326907
0.317254
0.304918
0.290141
0.27574
0.274572
0.331887
0.508126
0.750063
0.864482
0.347037
0.347046
0.347056
0.347066
0.347078
0.34709
0.347104
0.34712
0.347139
0.34716
0.347185
0.347213
0.347247
0.347284
0.347321
0.347347
0.347337
0.347252
0.347023
0.346538
0.345617
0.343923
0.341001
0.336756
0.330888
0.323054
0.312917
0.300317
0.285869
0.273327
0.278093
0.347953
0.527794
0.75122
0.860445
0.3457
0.345708
0.345717
0.345728
0.345741
0.345756
0.345773
0.345792
0.345815
0.345841
0.345872
0.345906
0.345944
0.345985
0.346021
0.346039
0.346013
0.345904
0.345636
0.345082
0.344031
0.342108
0.338839
0.334185
0.327868
0.319586
0.309089
0.296383
0.282447
0.271926
0.282905
0.36355
0.544135
0.751318
0.858786
0.34479
0.344802
0.344815
0.34483
0.344846
0.344864
0.344885
0.344908
0.344934
0.344964
0.344998
0.345038
0.345083
0.345131
0.345175
0.345197
0.345162
0.345012
0.34465
0.343942
0.34269
0.34052
0.336944
0.331919
0.325193
0.316523
0.305741
0.293018
0.279688
0.271346
0.288185
0.377554
0.556292
0.751151
0.859211
0.344033
0.344044
0.34406
0.344078
0.344098
0.34412
0.344146
0.344174
0.344205
0.34424
0.34428
0.344324
0.344371
0.344418
0.344454
0.344452
0.34438
0.344188
0.3438
0.343053
0.341703
0.339296
0.335354
0.329959
0.322866
0.313861
0.302866
0.290211
0.277572
0.271464
0.293697
0.389957
0.566148
0.751069
0.861038
0.344107
0.344116
0.34413
0.344147
0.344167
0.344189
0.344214
0.344242
0.344273
0.344308
0.344347
0.344389
0.344434
0.344478
0.344507
0.344495
0.344402
0.344147
0.343605
0.342627
0.340987
0.338347
0.334172
0.328413
0.320942
0.311626
0.300446
0.287877
0.27592
0.271864
0.299072
0.400091
0.572639
0.750867
0.864961
0.344582
0.34459
0.344603
0.344618
0.344635
0.344655
0.344677
0.344701
0.344728
0.344758
0.344791
0.344826
0.344863
0.344895
0.344907
0.34487
0.34474
0.344436
0.343839
0.342784
0.341026
0.338009
0.333303
0.327238
0.319449
0.309819
0.298479
0.286024
0.274703
0.272621
0.303837
0.408359
0.578016
0.750907
0.871226
0.34576
0.34576
0.345768
0.345776
0.345786
0.345797
0.345809
0.345822
0.345837
0.345853
0.34587
0.345887
0.345902
0.345907
0.345886
0.345806
0.345617
0.345236
0.344541
0.343355
0.341413
0.338215
0.333261
0.326592
0.318379
0.308499
0.296967
0.284552
0.273859
0.273668
0.308157
0.414828
0.581021
0.750947
0.879471
0.348078
0.348063
0.348058
0.348052
0.348045
0.348037
0.348029
0.348019
0.348008
0.347995
0.347979
0.347959
0.34793
0.347884
0.347799
0.347639
0.347348
0.346836
0.345974
0.34457
0.342364
0.338879
0.333589
0.326676
0.31796
0.307581
0.295902
0.283591
0.273354
0.274686
0.311661
0.419572
0.583031
0.75089
0.889687
0.351947
0.3519
0.351864
0.351822
0.351777
0.351727
0.351673
0.351613
0.351547
0.351473
0.351391
0.351296
0.351185
0.351046
0.350855
0.350573
0.350144
0.349469
0.348407
0.346753
0.344205
0.340259
0.334469
0.32715
0.318138
0.307445
0.295315
0.282865
0.273178
0.27576
0.314572
0.422705
0.583225
0.750901
0.90186
0.357744
0.357645
0.357555
0.357453
0.35734
0.357216
0.35708
0.356931
0.356767
0.356587
0.356387
0.356165
0.355913
0.355618
0.355252
0.354781
0.354148
0.353246
0.35192
0.349949
0.347023
0.342597
0.336196
0.32823
0.318745
0.307706
0.295398
0.282867
0.273293
0.276755
0.316721
0.424812
0.582878
0.750976
0.915952
0.366067
0.36588
0.365697
0.365491
0.365263
0.365012
0.364737
0.364437
0.364109
0.363751
0.363359
0.362928
0.36245