/*--------------------------------*- C++ -*----------------------------------*\
  =========                 |
  \\      /  F ield         | OpenFOAM: The Open Source CFD Toolbox
   \\    /   O peration     | Website:  https://openfoam.org
    \\  /    A nd           | Version:  8
     \\/     M anipulation  |
\*---------------------------------------------------------------------------*/
FoamFile
{
    version     2.0;
    format      ascii;
    class       volScalarField;
    location    "0.37";
    object      k;
}
// * * * * * * * * * * * * * * * * * * * * * * * * * * * * * * * * * * * * * //

dimensions      [0 2 -2 0 0 0 0];

internalField   nonuniform List<scalar> 
15677
(
0.334001
0.364693
0.294331
0.368623
0.357004
0.28062
0.370647
0.359735
0.365623
0.282407
0.371862
0.361475
0.361161
0.383007
0.288649
0.3726
0.36366
0.35758
0.368092
0.401509
0.30017
0.373035
0.365617
0.357765
0.358011
0.379951
0.419292
0.311733
0.373263
0.367156
0.359416
0.354506
0.360928
0.393205
0.434734
0.322593
0.37335
0.36829
0.36133
0.354724
0.352999
0.366831
0.406114
0.447906
0.332122
0.373351
0.369074
0.363049
0.35631
0.351086
0.353453
0.373514
0.418262
0.4588
0.340546
0.373315
0.369563
0.364433
0.358201
0.351909
0.348764
0.354758
0.380675
0.429115
0.467998
0.347658
0.373275
0.369823
0.365458
0.359949
0.353705
0.348371
0.347137
0.357104
0.387652
0.438878
0.475549
0.353906
0.373248
0.369926
0.366147
0.36139
0.355658
0.349759
0.345354
0.346322
0.359704
0.394461
0.447326
0.482011
0.359116
0.373237
0.36994
0.366548
0.362475
0.357424
0.35172
0.346209
0.342931
0.345894
0.362617
0.400723
0.454831
0.487348
0.363791
0.373236
0.369921
0.366737
0.363209
0.358861
0.353683
0.348077
0.3431
0.340872
0.345911
0.365489
0.406613
0.461207
0.491946
0.367868
0.373237
0.369906
0.366794
0.363636
0.359921
0.355394
0.350164
0.344759
0.340304
0.339203
0.346049
0.368407
0.411818
0.466849
0.495765
0.371467
0.373237
0.369899
0.366794
0.363835
0.360614
0.356743
0.352097
0.346891
0.341712
0.33783
0.337757
0.346385
0.371102
0.416625
0.471542
0.499137
0.374767
0.373237
0.369896
0.366784
0.363892
0.360996
0.357697
0.3537
0.348989
0.343847
0.338935
0.335597
0.336537
0.346791
0.373744
0.42071
0.475673
0.502054
0.377571
0.373237
0.369896
0.366775
0.3639
0.361144
0.358284
0.354901
0.350809
0.346077
0.341031
0.336393
0.333596
0.335473
0.347309
0.376036
0.424402
0.479085
0.504622
0.380413
0.373236
0.369896
0.366768
0.363896
0.361187
0.358554
0.355693
0.352235
0.348087
0.343359
0.338434
0.334072
0.331792
0.334589
0.347761
0.378195
0.42742
0.482068
0.507011
0.382627
0.373236
0.369896
0.366764
0.36389
0.361191
0.358658
0.356093
0.353232
0.34972
0.345532
0.340844
0.336048
0.331964
0.330188
0.333804
0.348249
0.379955
0.43011
0.484536
0.509055
0.385264
0.373236
0.369896
0.36676
0.363886
0.361183
0.358692
0.356265
0.353776
0.350909
0.347353
0.343169
0.338527
0.33388
0.330062
0.328769
0.333144
0.348627
0.381571
0.432201
0.486682
0.511203
0.387023
0.373236
0.369895
0.366758
0.363883
0.361173
0.358696
0.356328
0.354039
0.351591
0.348729
0.345168
0.340988
0.33643
0.331926
0.328389
0.327527
0.332572
0.348998
0.382783
0.434075
0.488477
0.512915
0.389639
0.373236
0.369895
0.366756
0.363881
0.361164
0.358692
0.356341
0.354154
0.351936
0.349559
0.346719
0.343152
0.339031
0.334555
0.330225
0.326928
0.326482
0.332096
0.349267
0.383908
0.435416
0.490076
0.515078
0.391063
0.373236
0.369894
0.366755
0.363878
0.361157
0.358685
0.356334
0.354196
0.352094
0.350009
0.347682
0.344875
0.341369
0.337297
0.332943
0.328761
0.325734
0.325635
0.331753
0.349527
0.384646
0.436699
0.491385
0.516532
0.393687
0.373236
0.369894
0.366754
0.363876
0.361151
0.358678
0.356322
0.354204
0.352152
0.350237
0.348214
0.345989
0.343267
0.339795
0.33584
0.331609
0.327627
0.324805
0.325014
0.331462
0.349717
0.385387
0.43748
0.492777
0.519084
0.395057
0.373237
0.369894
0.366753
0.363874
0.361147
0.358672
0.35631
0.354198
0.352163
0.350339
0.348488
0.346639
0.344507
0.341858
0.338544
0.334707
0.330624
0.32676
0.324149
0.324626
0.33145
0.349984
0.385829
0.438425
0.49368
0.520745
0.504909
0.373237
0.369893
0.366753
0.363872
0.361144
0.358666
0.356299
0.354186
0.352153
0.350374
0.34861
0.347001
0.345231
0.343265
0.340826
0.337583
0.333879
0.329959
0.326358
0.323969
0.32466
0.331545
0.35022
0.386318
0.438874
0.495684
0.529475
0.711438
0.373237
0.369893
0.366753
0.363871
0.361142
0.358661
0.35629
0.354174
0.352136
0.350374
0.34865
0.347182
0.345631
0.344138
0.342359
0.340003
0.337055
0.333654
0.329976
0.326454
0.324123
0.324876
0.331794
0.350542
0.386689
0.439787
0.496297
0.546327
0.887137
0.373237
0.369892
0.366753
0.363869
0.361141
0.358657
0.356283
0.354163
0.352119
0.35036
0.34865
0.347254
0.345829
0.344659
0.343283
0.341761
0.339883
0.337155
0.333875
0.33029
0.326862
0.324583
0.325379
0.3323
0.350994
0.387107
0.440509
0.496023
0.559201
1.02919
0.373238
0.369892
0.366753
0.363868
0.361139
0.358653
0.356278
0.354153
0.352105
0.35034
0.348632
0.347267
0.345911
0.344938
0.343821
0.34292
0.341846
0.340152
0.337625
0.334532
0.331082
0.32776
0.325518
0.326331
0.333126
0.351588
0.387739
0.440267
0.494558
0.568756
1.15194
0.373238
0.369891
0.366754
0.363867
0.361139
0.35865
0.356274
0.354145
0.352092
0.35032
0.348609
0.34725
0.345931
0.34506
0.34411
0.343645
0.343095
0.342294
0.340908
0.338673
0.335866
0.332609
0.329335
0.327035
0.327685
0.334267
0.352442
0.388228
0.439374
0.49147
0.57528
1.25116
0.373238
0.369891
0.366754
0.363866
0.361138
0.358647
0.356271
0.354137
0.352082
0.350303
0.348586
0.347222
0.345918
0.345091
0.344256
0.344065
0.343885
0.343694
0.34331
0.342423
0.340599
0.338033
0.334872
0.331567
0.32909
0.329491
0.335768
0.35348
0.388596
0.437517
0.486086
0.579558
1.32398
0.373238
0.369891
0.366754
0.363865
0.361138
0.358644
0.356268
0.354131
0.352073
0.350288
0.348566
0.347192
0.34589
0.345075
0.344315
0.344271
0.344352
0.344597
0.344949
0.34524
0.344869
0.3434
0.341039
0.337924
0.334479
0.33175
0.331757
0.337632
0.354707
0.388552
0.43428
0.479395
0.582227
1.3791
0.373238
0.36989
0.366754
0.363864
0.361138
0.358642
0.356266
0.354125
0.352066
0.350275
0.348548
0.347165
0.345858
0.34504
0.344319
0.344349
0.3446
0.34515
0.346045
0.347169
0.34812
0.348301
0.347173
0.344978
0.341809
0.338146
0.335016
0.334518
0.339853
0.356047
0.388272
0.430053
0.472617
0.584539
1.42251
0.36989
0.373242
0.366754
0.363863
0.361137
0.35864
0.356265
0.35412
0.352061
0.350264
0.348533
0.347141
0.345828
0.345001
0.344292
0.344363
0.344713
0.345467
0.346748
0.348492
0.350402
0.352091
0.35284
0.352032
0.34991
0.346606
0.342575
0.338937
0.33774
0.342407
0.357637
0.387633
0.425569
0.46631
0.586836
1.45816
0.366755
0.3699
0.37325
0.363862
0.361137
0.358638
0.356263
0.354115
0.352056
0.350254
0.34852
0.347121
0.345801
0.344964
0.344256
0.344343
0.344749
0.345634
0.347183
0.349378
0.352019
0.354819
0.357299
0.358621
0.358054
0.355928
0.352334
0.347822
0.343468
0.341431
0.34561
0.359617
0.386711
0.421235
0.460566
0.589572
1.48862
0.363862
0.366771
0.369921
0.373258
0.361137
0.358636
0.356262
0.354111
0.352052
0.350245
0.348509
0.347103
0.345777
0.344931
0.344218
0.34431
0.344746
0.345713
0.347446
0.349967
0.353154
0.356816
0.360587
0.3639
0.365749
0.36535
0.36306
0.359055
0.353839
0.348626
0.346006
0.349496
0.361724
0.385878
0.417146
0.455594
0.592622
1.51545
0.361137
0.363883
0.366805
0.369942
0.373266
0.358635
0.356262
0.354107
0.352049
0.350237
0.3485
0.347087
0.345756
0.344901
0.344184
0.344276
0.344725
0.345742
0.347601
0.350362
0.353959
0.358286
0.363077
0.36789
0.372025
0.374351
0.373959
0.371377
0.366722
0.360646
0.354993
0.351722
0.353681
0.364009
0.385039
0.41345
0.451262
0.596153
1.5397
0.358633
0.361165
0.363927
0.36684
0.369964
0.373274
0.356261
0.354104
0.352046
0.35023
0.348492
0.347073
0.345738
0.344876
0.344152
0.344243
0.3447
0.345748
0.347693
0.350636
0.354549
0.359393
0.364992
0.371011
0.376884
0.381828
0.384486
0.383971
0.380839
0.375364
0.369021
0.362869
0.357988
0.358139
0.366413
0.384503
0.410089
0.447647
0.599934
1.56191
0.356261
0.358664
0.361221
0.363973
0.366876
0.369986
0.373282
0.354101
0.352044
0.350224
0.348486
0.347061
0.345723
0.344854
0.344125
0.344213
0.344675
0.345746
0.347751
0.350834
0.355009
0.360269
0.366519
0.373516
0.380808
0.387754
0.393389
0.396267
0.395348
0.391483
0.385971
0.379338
0.37146
0.364707
0.362812
0.368991
0.384069
0.407117
0.444549
0.604037
1.58259
0.354099
0.356296
0.358727
0.361278
0.36402
0.366913
0.370009
0.373291
0.352042
0.350218
0.348481
0.34705
0.345709
0.344834
0.344101
0.344187
0.344653
0.345741
0.347794
0.350985
0.355378
0.361006
0.367803
0.375618
0.38409
0.392695
0.400613
0.406851
0.409657
0.408143
0.40454
0.399018
0.39056
0.380646
0.371785
0.367663
0.371673
0.384082
0.404581
0.441953
0.608241
1.60184
0.352041
0.354136
0.35637
0.358792
0.361337
0.364068
0.366951
0.370033
0.3733
0.350213
0.348476
0.34704
0.345698
0.344817
0.34408
0.344164
0.344633
0.345735
0.347828
0.351111
0.355685
0.361641
0.36895
0.377478
0.386967
0.396988
0.406831
0.415653
0.422201
0.42475
0.423838
0.420591
0.41319
0.402531
0.390304
0.379138
0.37265
0.374372
0.384218
0.402414
0.439759
0.612611
1.61999
0.350208
0.352083
0.354214
0.356445
0.358859
0.361397
0.364117
0.366989
0.370057
0.373309
0.348472
0.347031
0.345688
0.344803
0.344061
0.344145
0.344616
0.345731
0.347858
0.351221
0.355953
0.362194
0.369987
0.379217
0.389625
0.4009
0.412419
0.423461
0.432899
0.439585
0.443297
0.443157
0.438019
0.428289
0.415093
0.400316
0.386679
0.377758
0.377094
0.384529
0.400598
0.437954
0.616955
1.63695
0.34847
0.350249
0.352169
0.354294
0.356523
0.358928
0.36146
0.364168
0.367029
0.370082
0.373318
0.347022
0.34568
0.344789
0.344045
0.344127
0.344601
0.345728
0.347886
0.35132
0.356193
0.362688
0.370918
0.380845
0.392198
0.404647
0.417691
0.430703
0.442649
0.452557
0.461078
0.46625
0.464182
0.456589
0.44411
0.428089
0.410565
0.39433
0.382926
0.379821
0.385039
0.399072
0.436447
0.621357
1.65301
0.347015
0.348513
0.350335
0.352258
0.354377
0.356603
0.358999
0.361523
0.36422
0.36707
0.370107
0.373328
0.345674
0.344777
0.344031
0.344112
0.344588
0.345726
0.347911
0.35141
0.35641
0.363136
0.371766
0.382341
0.394677
0.40839
0.422903
0.437756
0.451963
0.464694
0.477008
0.487885
0.491389
0.486649
0.476057
0.460459
0.441365
0.420937
0.402016
0.3881
0.38256
0.385714
0.39783
0.435231
0.625636
1.668
0.345668
0.347053
0.348605
0.350425
0.35235
0.354462
0.356685
0.359072
0.361589
0.364273
0.367112
0.370134
0.373337
0.344766
0.344018
0.344099
0.344578
0.345725
0.347935
0.351492
0.356608
0.363547
0.372545
0.383723
0.396999
0.412088
0.428244
0.444927
0.461298
0.476627
0.492335
0.507787
0.517485
0.518455
0.510318
0.496207
0.477144
0.45477
0.431325
0.409669
0.393237
0.385282
0.386449
0.396846
0.434241
0.629914
1.68221
0.344757
0.345705
0.347137
0.348699
0.350517
0.352444
0.35455
0.356769
0.359147
0.361656
0.364328
0.367155
0.370161
0.373347
0.344007
0.344088
0.344568
0.345724
0.347957
0.351567
0.356788
0.363923
0.373263
0.385006
0.399177
0.41561
0.433626
0.45246
0.471039
0.48892
0.507843
0.527533
0.542132
0.549634
0.547163
0.534936
0.516808
0.493984
0.468168
0.441636
0.417227
0.398298
0.387996
0.387218
0.396069
0.43346
0.633997
1.69542
0.343998
0.344781
0.345785
0.347224
0.348797
0.350613
0.352542
0.354641
0.356856
0.359225
0.361725
0.364385
0.367199
0.370187
0.373356
0.344078
0.34456
0.345724
0.347976
0.351635
0.356952
0.364267
0.373924
0.386196
0.401219
0.418951
0.438833
0.460218
0.481504
0.502069
0.524268
0.54816
0.56733
0.579876
0.58408
0.577236
0.560247
0.53766
0.510815
0.48144
0.451788
0.424639
0.403253
0.390689
0.388015
0.395464
0.432845
0.638052
1.70797
0.344072
0.344007
0.34484
0.345868
0.347314
0.348899
0.350712
0.352642
0.354734
0.356945
0.359304
0.361796
0.364443
0.367242
0.370213
0.373365
0.344551
0.345723
0.347994
0.351697
0.357102
0.364581
0.374531
0.387298
0.403129
0.42211
0.443836
0.467863
0.492472
0.516503
0.542303
0.570708
0.594496
0.611739
0.620872
0.620586
0.608397
0.585995
0.558571
0.527497
0.494487
0.461713
0.43186
0.408077
0.393337
0.388833
0.395003
0.432375
0.641863
1.71955
0.344547
0.344059
0.34403
0.344899
0.345957
0.347408
0.349004
0.350814
0.352745
0.35483
0.357037
0.359386
0.361868
0.364501
0.367284
0.370239
0.373374
0.345721
0.348008
0.351753
0.357238
0.364867
0.375086
0.388314
0.404908
0.425085
0.448628
0.475307
0.50341
0.531966
0.562626
0.596239
0.625165
0.647258
0.660908
0.665054
0.658945
0.640395
0.611954
0.57937
0.54391
0.507224
0.471355
0.438856
0.41275
0.395926
0.389665
0.394655
0.432026
0.645643
1.73059
0.345724
0.344504
0.34403
0.344064
0.344962
0.346051
0.347506
0.349114
0.350919
0.352852
0.35493
0.357131
0.35947
0.36194
0.364557
0.367325
0.370263
0.373382
0.34802
0.351803
0.357361
0.365128
0.375594
0.38925
0.406559
0.427877
0.453191
0.4825
0.51418
0.54777
0.584972
0.625871
0.661102
0.688944
0.707355
0.715283
0.712487
0.699013
0.673022
0.637934
0.599911
0.559955
0.519586
0.480671
0.445601
0.417256
0.398441
0.390502
0.394409
0.431774
0.649143
1.74072
0.348039
0.34564
0.344408
0.343984
0.344112
0.345028
0.346151
0.347608
0.349226
0.351028
0.352961
0.355032
0.357227
0.359553
0.36201
0.364611
0.367365
0.370287
0.373391
0.351846
0.357472
0.365366
0.376058
0.390109
0.408085
0.430483
0.45751
0.489396
0.524735
0.563735
0.608237
0.659387
0.704589
0.740291
0.764739
0.776449
0.77562
0.763359
0.740707
0.706109
0.663776
0.620074
0.575558
0.531524
0.489631
0.452075
0.421584
0.400873
0.391339
0.394234
0.431609
0.652622
1.75039
0.351898
0.347887
0.345441
0.344308
0.343943
0.344173
0.345098
0.346256
0.347714
0.349343
0.351141
0.353073
0.355137
0.357322
0.359634
0.362077
0.364664
0.367403
0.370311
0.373399
0.35757
0.365579
0.376481
0.390897
0.409493
0.432908
0.461575
0.49597
0.535034
0.579708
0.63194
0.695499
0.756807
0.806678
0.840012
0.85647
0.856559
0.842738
0.817863
0.783959
0.739514
0.689352
0.639764
0.590657
0.543002
0.498211
0.458265
0.425725
0.403214
0.392167
0.394134
0.431505
0.655808
1.75813
0.357675
0.351662
0.347513
0.345236
0.34422
0.343908
0.344242
0.345172
0.346365
0.347825
0.349463
0.351258
0.353188
0.355241
0.357415
0.359713
0.362143
0.364716
0.367441
0.370333
0.373406
0.365771
0.376863
0.391616
0.410788
0.435157
0.465384
0.502207
0.545022
0.595485
0.655853
0.734362
0.817545
0.892286
0.943161
0.966796
0.967425
0.949082
0.917079
0.876027
0.828652
0.773102
0.714557
0.658906
0.605209
0.553996
0.5064
0.464165
0.429676
0.40546
0.392984
0.394073
0.431466
0.658552
1.76463
0.365963
0.357329
0.35105
0.347126
0.345053
0.344141
0.343882
0.344318
0.345251
0.346479
0.34794
0.349587
0.351378
0.353302
0.355342
0.357504
0.35979
0.362207
0.364766
0.367477
0.370355
0.373414
0.377209
0.392271
0.411976
0.437238
0.468941
0.508101
0.554639
0.610898
0.679987
0.776563
0.887444
0.995959
1.07939
1.12071
1.12323
1.09826
1.05394
0.99837
0.937581
0.874578
0.806731
0.739298
0.677447
0.619184
0.564493
0.514192
0.469773
0.433434
0.407608
0.393781
0.394069
0.431472
0.660809
1.77164
0.377543
0.365478
0.356381
0.350418
0.346772
0.344883
0.344071
0.343866
0.344399
0.345338
0.346597
0.348061
0.349713
0.351498
0.353412
0.355442
0.357592
0.359864
0.362269
0.364814
0.367513
0.370377
0.373421
0.392866
0.413063
0.439158
0.472253
0.513647
0.563838
0.625852
0.704489
0.822282
0.96573
1.11456
1.2409
1.31966
1.33731
1.30652
1.24656
1.16943
1.08557
1.00194
0.921421
0.84024
0.763495
0.695345
0.632562
0.574486
0.521586
0.475087
0.436999
0.409655
0.394558
0.394076
0.431492
0.663319
1.77927
0.393427
0.376883
0.36406
0.355405
0.34983
0.34644
0.344725
0.344011
0.34386
0.344484
0.345433
0.346718
0.348186
0.349838
0.351615
0.35352
0.355538
0.357677
0.359937
0.362329
0.364862
0.367547
0.370398
0.373425
0.414059
0.440925
0.475329
0.51885
0.57259
0.640326
0.729463
0.870998
1.04997
1.24279
1.41807
1.54618
1.60452
1.58501
1.51043
1.40794
1.29277
1.17707
1.06826
0.968781
0.873455
0.787074
0.712571
0.645335
0.583976
0.528587
0.480114
0.440375
0.411602
0.395214
0.394092
0.431543
0.666024
1.78753
0.414973
0.392556
0.374814
0.362609
0.354491
0.349271
0.346127
0.344579
0.343961
0.343866
0.344572
0.345537
0.346842
0.348313
0.349961
0.35173
0.353625
0.355632
0.357759
0.360008
0.362388
0.364908
0.36758
0.370408
0.373425
0.442558
0.478178
0.523714
0.580885
0.654328
0.754869
0.921674
1.13715
1.37494
1.60184
1.78575
1.899
1.92256
1.85446
1.72788
1.57743
1.42079
1.27104
1.1356
1.01621
0.906191
0.809967
0.729105
0.657501
0.592969
0.535201
0.48486
0.443565
0.413205
0.39578
0.394127
0.43162
0.669057
1.79656
0.444027
0.413851
0.389588
0.372711
0.361243
0.353614
0.348733
0.345835
0.344445
0.343922
0.343889
0.34466
0.345649
0.346966
0.348438
0.35008
0.351842
0.353727
0.355724
0.35784
0.360077
0.362445
0.364952
0.367597
0.370408
0.373425
0.480826
0.528254
0.588728
0.66787
0.78053
0.973123
1.22457
1.50644
1.78506
2.02761
2.2035
2.28712
2.26339
2.13724
1.95248
1.75052
1.55051
1.36569
1.20298
1.06324
0.938267
0.832114
0.744933
0.669062
0.601475
0.54144
0.489332
0.446177
0.414568
0.396411
0.394178
0.431764
0.672312
1.80633
0.483167
0.442595
0.409646
0.386596
0.370725
0.359929
0.352769
0.348216
0.345563
0.344323
0.34389
0.343939
0.344749
0.345767
0.347086
0.348561
0.350196
0.351951
0.353826
0.355813
0.357918
0.360143
0.3625
0.364975
0.367597
0.370408
0.373425
0.532502
0.59614
0.680962
0.806192
1.02427
1.3102
1.63414
1.96286
2.26411
2.50628
2.65955
2.70037
2.61842
2.42645
2.17901
1.92347
1.67943
1.45948
1.26954
1.10946
0.969515
0.853463
0.760047
0.680027
0.609508
0.547317
0.492984
0.448389
0.416063
0.397115
0.394262
0.431931
0.675982
1.81701
0.536214
0.481369
0.436685
0.405444
0.383764
0.368808
0.358656
0.351952
0.347719
0.34531
0.344209
0.343848
0.344008
0.344837
0.345885
0.347205
0.348681
0.350309
0.352057
0.353923
0.3559
0.357994
0.360208
0.362527
0.364975
0.367597
0.370408
0.373425
0.603164
0.693624
0.831599
1.07424
1.39267
1.75613
2.13232
2.49028
2.799
3.02686
3.14427
3.13031
2.98059
2.71656
2.40341
2.09341
1.80559
1.55113
1.33455
1.15449
0.999786
0.873968
0.774446
0.690409
0.617082
0.552114
0.496073
0.450805
0.417704
0.397904
0.394368
0.432198
0.679925
1.82856
0.609297
0.533954
0.473081
0.430837
0.401459
0.381024
0.366946
0.357423
0.351166
0.347246
0.345073
0.344109
0.34381
0.344089
0.344925
0.346002
0.347321
0.348799
0.35042
0.352161
0.354017
0.355984
0.358067
0.360241
0.362527
0.364975
0.367597
0.370408
0.373425
0.705872
0.856542
1.12241
1.47113
1.87133
2.2918
2.70319
3.07612
3.37928
3.58006
3.64924
3.56957
3.34394
3.00315
2.6226
2.25823
1.92756
1.63971
1.39743
1.19803
1.02895
0.893597
0.788134
0.70022
0.623272
0.556168
0.499441
0.453447
0.419508
0.398786
0.394524
0.432496
0.684402
1.84118
0.716652
0.606481
0.522235
0.464971
0.425281
0.397596
0.378358
0.365139
0.356231
0.350411
0.3468
0.344858
0.344019
0.343785
0.344175
0.345015
0.346119
0.347435
0.348914
0.350528
0.352262
0.354108
0.356066
0.358104
0.360241
0.362527
0.364975
0.367597
0.370408
0.373421
0.880815
1.16839
1.5451
1.9792
2.44055
2.90136
3.33432
3.71004
3.99576
4.15741
4.16672
4.01155
3.7034
3.28276
2.83431
2.41646
2.04436
1.72456
1.45776
1.23984
1.05692
0.912326
0.801113
0.708253
0.628507
0.560589
0.503115
0.456335
0.421493
0.399779
0.394713
0.43294
0.689219
1.85478
0.713242
0.90216
0.589263
0.510989
0.457251
0.419887
0.393833
0.375766
0.363388
0.355083
0.349692
0.346384
0.344663
0.343945
0.343774
0.344261
0.345107
0.346233
0.347548
0.349026
0.350634
0.35236
0.354197
0.356106
0.358104
0.36024
0.362527
0.364975
0.367597
0.370397
0.373414
1.21189
1.6144
2.07957
2.57834
3.08422
3.57197
4.01497
4.38263
4.63977
4.75077
4.68936
4.45027
4.05472
3.55267
3.03692
2.56714
2.15536
1.80526
1.51525
1.27976
1.08361
0.930135
0.81177
0.715057
0.63422
0.565412
0.507126
0.459497
0.423679
0.400891
0.394977
0.433427
0.694729
1.86963
0.68628
0.899234
1.24931
0.57325
0.500289
0.449747
0.414627
0.390167
0.373249
0.361697
0.353981
0.349009
0.346
0.344492
0.343888
0.343777
0.344347
0.345202
0.346344
0.34766
0.349136
0.350737
0.352456
0.354241
0.356106
0.358104
0.36024
0.362527
0.364975
0.36758
0.370376
0.373406
1.67894
2.17258
2.70532
3.25183
3.78867
4.29212
4.73517
5.0849
5.30289
5.35218
5.21018
4.88037
4.39436
3.81086
3.22938
2.70968
2.26023
1.88154
1.56973
1.31769
1.10898
0.944787
0.820815
0.722494
0.640458
0.570675
0.511507
0.462958
0.426088
0.402147
0.395288
0.434124
0.700676
1.88551
0.66166
0.855843
1.24717
1.73385
0.558221
0.489874
0.442425
0.409499
0.386605
0.370813
0.360068
0.352928
0.348368
0.345656
0.344345
0.343846
0.343794
0.344431
0.3453
0.346453
0.34777
0.349242
0.350838
0.352503
0.354241
0.356106
0.358103
0.36024
0.362527
0.364952
0.367546
0.370355
0.373398
2.25835
2.82195
3.40473
3.98485
4.54121
5.05086
5.48539
5.80818
5.97677
5.95382
5.72263
5.29715
4.71949
4.05589
3.41104
2.84382
2.35881
1.95333
1.62112
1.35354
1.12982
0.957239
0.830724
0.730631
0.647276
0.576423
0.516292
0.46675
0.428747
0.403557
0.395709
0.43488
0.707525
1.90286
0.63897
0.815184
1.18282
1.73345
2.33091
0.543707
0.479698
0.435289
0.404511
0.383153
0.368462
0.358506
0.351934
0.347785
0.345357
0.344221
0.343815
0.34383
0.344512
0.345399
0.346559
0.347878
0.349347
0.350888
0.352502
0.354241
0.356106
0.358103
0.36024
0.362499
0.364907
0.367512
0.370333
0.37339
2.92864
3.54382
4.16156
4.76319
5.32957
5.83785
6.25671
6.54407
6.65315
6.54808
6.22068
5.69665
5.02799
4.28688
3.58161
2.9695
2.45114
2.02063
1.6694
1.38287
1.14752
0.970898
0.84159
0.739541
0.654731
0.582703
0.521524
0.470906
0.431681
0.405154
0.396199
0.435934
0.714951
1.92122
0.61753
0.777167
1.11981
1.65023
2.33335
3.01819
0.529585
0.469772
0.428349
0.399674
0.379819
0.366204
0.357025
0.351022
0.347264
0.3451
0.344114
0.343785
0.343884
0.34459
0.345499
0.346663
0.347985
0.349397
0.350887
0.352502
0.354241
0.356106
0.358103
0.360207
0.362443
0.36486
0.367476
0.37031
0.373382
3.66989
4.32035
4.95991
5.57298
6.14228
6.64373
7.04083
7.28435
7.32381
7.12768
6.69896
6.07573
5.31844
4.50335
3.74104
3.08684
2.53733
2.08352
1.70865
1.40768
1.16691
0.98589
0.853515
0.749306
0.66289
0.589569
0.527244
0.475464
0.434925
0.406948
0.396845
0.437077
0.723563
1.94124
0.597085
0.741301
1.05828
1.56685
2.23327
3.0239
3.77434
0.515837
0.46012
0.421622
0.395001
0.376613
0.364059
0.355663
0.350204
0.346796
0.344878
0.344025
0.343756
0.343947
0.344667
0.3456
0.346767
0.348037
0.349395
0.350887
0.352501
0.35424
0.356106
0.358066
0.360141
0.362386
0.364812
0.367439
0.370286
0.373374
4.4626
5.13386
5.78402
6.40123
6.9692
7.46035
7.83007
8.02084
7.98058
7.68579
7.153
6.43209
5.58997
4.70518
3.88954
3.19608
2.61758
2.13441
1.74173
1.43475
1.18816
1.00236
0.866612
0.760013
0.671823
0.597079
0.533503
0.480464
0.43851
0.408988
0.397596
0.438635
0.732946
1.96211
0.577526
0.707491
0.998005
1.48334
2.13207
2.90839
3.78238
4.57804
0.502479
0.450768
0.415127
0.390506
0.373566
0.362082
0.354436
0.349469
0.346381
0.344687
0.343951
0.343735
0.344017
0.344744
0.345704
0.346815
0.348035
0.349395
0.350886
0.352501
0.35424
0.356064
0.357991
0.360074
0.362326
0.364763
0.367402
0.370262
0.373365
5.28721
5.96647
6.61909
7.23668
7.80212
8.28079
8.617
8.74522
8.61545
8.21637
7.57929
6.76425
5.84226
4.8926
4.02745
3.29754
2.68232
2.17717
1.77769
1.46429
1.21143
1.02044
0.881002
0.771763
0.681611
0.605297
0.540351
0.485951
0.442479
0.411283
0.398561
0.440332
0.743915
1.98876
0.558793
0.67577
0.939182
1.39932
2.02962
2.79134
3.65185
4.5858
5.40775
0.489541
0.441749
0.408883
0.386232
0.370755
0.360299
0.353331
0.34881
0.346016
0.344524
0.34389
0.343724
0.34409
0.344827
0.345755
0.346809
0.348035
0.349394
0.350886
0.352501
0.354196
0.355981
0.357914
0.360004
0.362266
0.364713
0.367363
0.370238
0.373356
6.12364
6.80141
7.45236
8.07066
8.6349
9.09897
9.39411
9.44894
9.22081
8.71435
7.97537
7.07148
6.0755
5.06603
4.15519
3.37921
2.73661
2.22349
1.81673
1.49649
1.23692
1.04031
0.896819
0.784664
0.69234
0.614295
0.54785
0.491974
0.446869
0.413896
0.399694
0.442375
0.758092
2.0198
0.540849
0.646164
0.882273
1.31479
1.92542
2.67235
3.52013
4.43937
5.41077
6.24229
0.477061
0.433093
0.402949
0.382293
0.368218
0.35869
0.352338
0.348222
0.345696
0.344384
0.343841
0.343725
0.344174
0.34486
0.345751
0.346808
0.348035
0.349394
0.350886
0.352453
0.354105
0.355896
0.357835
0.359933
0.362203
0.364662
0.367324
0.370213
0.373347
6.95302
7.62409
8.27422
8.89751
9.46287
9.909
10.1533
10.1233
9.78979
9.17583
8.33981
7.35382
6.29018
5.22605
4.25771
3.44755
2.79526
2.27362
1.8591
1.53156
1.26482
1.06213
0.914206
0.798833
0.704107
0.624151
0.55606
0.498587
0.451735
0.416842
0.401102
0.445134
0.776728
2.04998
0.523674
0.61865
0.82787
1.23007
1.81917
2.55092
3.38645
4.29312
5.24592
6.23481
7.06137
0.465081
0.424886
0.397483
0.378737
0.365929
0.357241
0.351445
0.347699
0.345415
0.344262
0.343806
0.343748
0.344213
0.344845
0.345752
0.346807
0.348034
0.349396
0.350836
0.352356
0.354012
0.355808
0.357754
0.35986
0.36214
0.364609
0.367283
0.370187
0.373337
7.75872
8.4235
9.07916
9.71362
10.2824
10.7045
10.8859
10.7598
10.3166
9.59822
8.67229
7.61184
6.48709
5.35394
4.34333
3.52124
2.85857
2.32781
1.90502
1.56973
1.29532
1.08607
0.933316
0.814398
0.717016
0.634948
0.565054
0.505848
0.457121
0.420196
0.403079
0.448943
0.797476
2.07866
0.507263
0.593133
0.776607
1.14572
1.71082
2.42644
3.25036
4.14573
5.08394
6.04665
7.03608
7.8462
0.453728
0.417346
0.392553
0.37553
0.363864
0.355935
0.350645
0.347233
0.345168
0.344161
0.343799
0.343746
0.344204
0.344842
0.345752
0.346807
0.348035
0.349344
0.350733
0.352256
0.353917
0.355718
0.357671
0.359785
0.362074
0.364554
0.367241
0.37016
0.373327
8.52792
9.19443
9.86223
10.5146
11.0895
11.4781
11.5824
11.3501
10.7967
9.98045
8.97337
7.84653
6.64344
5.46038
4.43538
3.60058
2.92683
2.38633
1.95472
1.61118
1.32862
1.11232
0.954308
0.831494
0.731179
0.646781
0.574902
0.513824
0.463094
0.424695
0.405856
0.453462
0.820393
2.10552
0.491737
0.569454
0.729078
1.06253
1.60051
2.29848
3.11102
3.99693
4.92277
5.86602
6.81771
7.7934
8.58272
0.443311
0.410562
0.38811
0.372639
0.362003
0.354761
0.349927
0.346816
0.344956
0.344103
0.343782
0.343717
0.344206
0.344841
0.345749
0.346812
0.347981
0.349237
0.350628
0.352154
0.35382
0.355626
0.357586
0.359708
0.362007
0.364499
0.367198
0.370134
0.373318
9.25198
9.9237
10.6125
11.2917
11.8772
12.2219
12.2323
11.8873
11.2276
10.3228
9.24428
8.0312
6.77291
5.57435
4.53418
3.68588
3.00031
2.4494
2.00841
1.65612
1.3649
1.14105
0.977342
0.850261
0.746715
0.659742
0.585694
0.522582
0.470938
0.430508
0.409128
0.458703
0.845816
2.13011
0.477479
0.547596
0.685779
0.981491
1.48859
2.16682
2.96763
3.84568
4.76236
5.68965
6.61373
7.53688
8.4857
9.26431
0.433966
0.404462
0.384109
0.370033
0.360327
0.353705
0.349282
0.346448
0.344812
0.344055
0.343748
0.343715
0.344205
0.344841
0.345751
0.346762
0.347871
0.349129
0.350521
0.35205
0.35372
0.355532
0.357499
0.35963
0.361937
0.364442
0.367155
0.370107
0.373308
9.92832
10.6216
11.3471
12.0515
12.6381
12.923
12.8254
12.3663
11.6088
10.6266
9.45484
8.18302
6.91067
5.69607
4.64001
3.77742
3.07926
2.51726
2.06629
1.70473
1.40433
1.17243
1.00258
0.870839
0.763741
0.673947
0.59751
0.533982
0.48074
0.436869
0.412857
0.465052
0.873994
2.15191
0.464664
0.527867
0.646864
0.903809
1.37565
2.03137
2.81948
3.69084
4.60153
5.51767
6.41932
7.30343
8.18371
9.0943
9.87485
0.425596
0.398978
0.380508
0.367687
0.358818
0.352752
0.348708
0.346171
0.344714
0.34401
0.343747
0.343712
0.3442
0.344853
0.345697
0.346655
0.347761
0.349018
0.350412
0.351943
0.353617
0.355435
0.357409
0.359549
0.361866
0.364384
0.367111
0.370081
0.373299
10.5496
11.2849
12.068
12.7996
13.3682
13.5689
13.3528
12.7843
11.9413
10.859
9.62632
8.34322
7.05676
5.82571
4.75307
3.87541
3.1639
2.5901
2.12853
1.75716
1.44708
1.20661
1.03015
0.89336
0.782385
0.68948
0.612849
0.548036
0.491139
0.443758
0.417262
0.472498
0.905164
2.17085
0.453177
0.51025
0.613411
0.831675
1.26265
1.89224
2.66594
3.53121
4.43881
5.34866
6.23459
7.08688
7.91401
8.73994
9.61286
10.4053
0.418104
0.394051
0.37727
0.365576
0.357455
0.351903
0.348264
0.345994
0.344652
0.344011
0.343744
0.343709
0.344205
0.344816
0.34559
0.346549
0.34765
0.348905
0.350301
0.351833
0.353512
0.355336
0.357317
0.359466
0.361794
0.364326
0.367069
0.370056
0.37329
11.1157
11.9198
12.7778
13.534
14.0576
14.146
13.8077
13.1416
12.1903
11.0458
9.80517
8.51136
7.211
5.96328
4.87349
3.98005
3.25441
2.66809
2.19527
1.81353
1.49323
1.2437
1.06019
0.917949
0.802731
0.709622
0.631654
0.562742
0.50212
0.451294
0.422206
0.481441
0.939693
2.18545
0.442905
0.494431
0.585149
0.767818
1.15175
1.74975
2.50648
3.36559
4.27259
5.1809
6.05775
6.88717
7.67049
8.42722
9.19216
10.0317
10.8543
0.4114
0.389625
0.374358
0.363669
0.356237
0.351231
0.34799
0.345905
0.344654
0.344006
0.343738
0.343731
0.344161
0.344729
0.345486
0.346441
0.347537
0.348789
0.350187
0.351721
0.353405
0.355235
0.357222
0.359382
0.361722
0.36427
0.367028
0.370032
0.373282
11.6315
12.5367
13.4815
14.243
14.69
14.6407
14.1876
13.4016
12.387
11.2376
9.9903
8.68678
7.37303
6.10866
5.00131
4.09141
3.35089
2.7513
2.26658
1.87389
1.54286
1.28377
1.09278
0.944663
0.82903
0.734184
0.651178
0.578068
0.513743
0.459399
0.428006
0.492174
0.978624
2.19533
0.433743
0.480197
0.561
0.713611
1.04751
1.60555
2.34074
3.1927
4.10106
5.01241
5.88679
6.70182
7.45283
8.15176
8.82821
9.52913
10.3368
11.2192
0.405401
0.385653
0.371732
0.361964
0.35526
0.350828
0.347873
0.345909
0.344649
0.343997
0.343764
0.343725
0.344073
0.344649
0.345382
0.34633
0.347422
0.34867
0.35007
0.351606
0.353294
0.355131
0.357126
0.359299
0.361652
0.364216
0.366988
0.370008
0.373273
12.1069
13.1501
14.1792
14.9101
15.2438
15.0452
14.4535
13.602
12.5845
11.4323
10.1802
8.86843
7.54224
6.26154
5.1364
4.20948
3.45337
2.83979
2.34248
1.93824
1.59595
1.32684
1.1279
0.97899
0.860827
0.75946
0.671326
0.594012
0.525957
0.468242
0.43453
0.504849
1.02127
2.20118
0.425585
0.467399
0.540085
0.668288
0.953194
1.46465
2.1698
3.0113
3.9222
4.84084
5.71935
6.52839
7.25749
7.91304
8.51589
9.10501
9.7388
10.5135
11.4986
0.400031
0.382077
0.369385
0.360582
0.354684
0.350675
0.347879
0.345901
0.344635
0.344033
0.343773
0.343695
0.343995
0.344569
0.34528
0.346217
0.347306
0.348549
0.349951
0.351489
0.353181
0.355026
0.35703
0.359218
0.361585
0.364164
0.366949
0.369985
0.373265
12.5597
13.7682
14.8657
15.5268
15.686