/*--------------------------------*- C++ -*----------------------------------*\
  =========                 |
  \\      /  F ield         | OpenFOAM: The Open Source CFD Toolbox
   \\    /   O peration     | Website:  https://openfoam.org
    \\  /    A nd           | Version:  8
     \\/     M anipulation  |
\*---------------------------------------------------------------------------*/
FoamFile
{
    version     2.0;
    format      ascii;
    class       volScalarField;
    location    "0.24";
    object      p;
}
// * * * * * * * * * * * * * * * * * * * * * * * * * * * * * * * * * * * * * //

dimensions      [0 2 -2 0 0 0 0];

internalField   nonuniform List<scalar> 
15677
(
74.6363
74.2303
73.8944
74.3846
73.8931
73.8294
74.3044
73.9121
73.839
73.7634
74.2849
73.9122
73.8395
73.7721
73.6655
74.2667
73.9154
73.8399
73.7715
73.673
73.5629
74.2438
73.9182
73.8401
73.7719
73.673
73.5696
73.4474
74.2191
73.92
73.8399
73.7721
73.6738
73.5696
73.4532
73.3081
74.1934
73.9211
73.8392
73.7718
73.6744
73.5704
73.4534
73.3132
73.1384
74.1665
73.9218
73.8382
73.7712
73.6749
73.5711
73.4541
73.3135
73.1427
72.9312
74.1386
73.9223
73.8368
73.7703
73.6753
73.5718
73.4549
73.3144
73.1431
72.9349
72.6789
74.1098
73.9224
73.8353
73.7694
73.6759
73.5725
73.4558
73.3154
73.1442
72.9354
72.6818
72.373
74.08
73.9215
73.8339
73.7687
73.6767
73.5735
73.4568
73.3165
73.1454
72.9367
72.6825
72.3752
72.0052
74.0493
73.9197
73.8327
73.7683
73.6778
73.5749
73.4583
73.318
73.147
72.9383
72.6841
72.376
72.0066
71.5673
74.0213
73.9173
73.832
73.7682
73.6796
73.577
73.4604
73.3202
73.1491
72.9403
72.686
72.3779
72.0075
71.5676
71.0509
73.9972
73.9145
73.8319
73.7686
73.6824
73.5803
73.4637
73.3234
73.1521
72.9432
72.6887
72.3804
72.01
71.5689
71.0502
70.4486
73.9765
73.9117
73.8326
73.7697
73.6864
73.5851
73.4686
73.3282
73.1567
72.9474
72.6926
72.384
72.013
71.5715
71.0517
70.4467
69.7537
73.9593
73.9086
73.8339
73.7717
73.6919
73.592
73.4757
73.3353
73.1634
72.9536
72.6982
72.389
72.0175
71.5754
71.0548
70.4485
69.7505
68.9605
73.945
73.9049
73.8354
73.7744
73.6985
73.6015
73.4859
73.3456
73.1733
72.9628
72.7065
72.3963
72.024
71.5811
71.0596
70.4521
69.7525
68.9559
68.0647
73.933
73.901
73.837
73.7777
73.7058
73.6131
73.4998
73.36
73.1876
72.9762
72.7187
72.4072
72.0335
71.5893
71.0666
70.4579
69.7567
68.9581
68.0586
67.0634
73.9231
73.8972
73.8386
73.7817
73.7138
73.6256
73.5168
73.3798
73.2076
72.9954
72.7365
72.4231
72.0474
71.6012
71.0767
70.4664
69.7635
68.9629
68.061
67.0556
65.9557
73.9151
73.8936
73.8405
73.7863
73.7225
73.6392
73.5353
73.4039
73.235
73.0224
72.7619
72.4463
72.0678
71.6188
71.0915
70.4787
69.7737
68.9709
68.0664
67.0583
65.946
64.7422
73.909
73.8906
73.8424
73.7914
73.7319
73.6539
73.5555
73.4301
73.2682
73.0593
72.7975
72.4793
72.0974
71.6444
71.1132
70.4967
69.7884
68.9828
68.0755
67.0643
65.949
64.7306
63.4259
73.9043
73.8883
73.8443
73.7969
73.7418
73.6695
73.5772
73.4588
73.3045
73.1041
72.8463
72.5255
72.1395
71.6815
71.1448
70.523
69.8099
69.0001
68.0892
67.0745
65.9554
64.7337
63.4123
62.0121
73.9007
73.8864
73.8461
73.8026
73.7522
73.6858
73.6003
73.4897
73.3442
73.1531
72.9056
72.5887
72.1984
71.7343
71.1906
70.5614
69.8413
69.0252
68.1091
67.0899
65.9666
64.7406
63.4154
61.9962
60.5125
73.8978
73.885
73.8479
73.8079
73.7624
73.7026
73.6245
73.5224
73.3868
73.2067
72.9704
72.6658
72.2791
71.8082
71.2559
70.617
69.8871
69.062
68.138
67.1124
65.9837
64.7527
63.4225
61.9992
60.4928
58.9552
73.8955
73.8839
73.8495
73.8128
73.772
73.7191
73.6495
73.5567
73.4321
73.2644
73.0414
72.75
72.3775
71.9096
71.3471
70.6962
69.9535
69.1159
68.1804
67.1451
66.0086
64.7712
63.4352
62.006
60.4933
58.8946
57.2837
73.8937
73.8831
73.851
73.8172
73.7807
73.7343
73.674
73.5922
73.4795
73.3256
73.1179
72.8425
72.4853
72.0333
71.4723
70.8071
70.0482
69.1938
68.2425
67.1931
66.0449
64.7981
63.4547
62.0187
60.4987
58.9006
57.2142
55.4822
73.8922
73.8824
73.8523
73.8213
73.7885
73.7481
73.6965
73.627
73.5285
73.3897
73.199
72.9421
72.6037
72.169
71.6255
70.9596
70.1809
69.3052
68.3327
67.2636
66.0982
64.8375
63.4832
62.0385
60.5099
58.9031
57.2196
55.4568
53.6215
73.891
73.8819
73.8534
73.825
73.7955
73.7604
73.7168
73.6589
73.5766
73.4561
73.2842
73.048
72.7315
72.3183
71.7938
71.1464
70.3637
69.4617
68.4618
67.3662
66.1769
64.8957
63.5249
62.0674
60.5282
58.9112
57.2149
55.4463
53.6111
51.7124
73.89
73.8815
73.8543
73.8284
73.8018
73.7714
73.735
73.6878
73.6208
73.5212
73.3724
73.1592
72.8674
72.4796
71.9792
71.3519
70.5883
69.6778
68.6436
67.5136
66.2919
64.982
63.5871
62.1104
60.556
58.9269
57.2208
55.4375
53.5951
51.7061
49.5554
73.8892
73.8812
73.8552
73.8315
73.8074
73.7813
73.7513
73.7137
73.6607
73.581
73.459
73.2745
73.0102
72.6515
72.1799
71.5789
70.8358
69.9438
68.8954
67.7219
66.4577
65.1088
63.6799
62.1752
60.5985
58.9525
57.2351
55.4444
53.587
51.6884
49.5525
47.1242
73.8885
73.881
73.8561
73.8342
73.8124
73.79
73.7659
73.7368
73.6965
73.6351
73.5386
73.3877
73.1586
72.8323
72.3941
71.8251
71.1097
70.2378
69.2062
68.011
66.6927
65.2924
63.8173
62.2732
60.6643
58.9932
57.259
55.4587
53.5951
51.6814
49.5358
47.1233
44.6738
73.888
73.8808
73.8568
73.8366
73.8169
73.7978
73.7788
73.7574
73.7285
73.6836
73.6106
73.4919
73.3045
73.0205
72.6198
72.0883
71.4075
70.564
69.5506
68.3692
67.0201
65.5538
64.0176
62.4196
60.7655
59.0584
57.2981
55.4818
53.6098
51.6892
49.5287
47.108
44.6746
42.2341
73.8875
73.8806
73.8576
73.8387
73.8208
73.8047
73.7902
73.7757
73.757
73.727
73.6752
73.5862
73.4389
73.2057
72.855
72.3662
71.7266
70.9193
69.9337
68.7673
67.4274
65.9197
64.3043
62.6348
60.9189
59.1612
57.3623
55.5198
53.6327
51.7035
49.5338
47.1004
44.661
42.2351
39.8283
73.8805
73.8869
73.8582
73.8406
73.8243
73.8108
73.8004
73.792
73.7823
73.7657
73.7331
73.671
73.5606
73.3766
73.0871
72.6563
72.0642
71.301
70.3523
69.2114
67.8816
66.3768
64.7078
62.945
61.1468
59.3196
57.4656
55.5831
53.6699
51.7258
49.5462
47.1026
44.6531
42.2226
39.8292
37.472
73.8588
73.8804
73.8863
73.8422
73.8274
73.8163
73.8094
73.8064
73.8048
73.8001
73.7846
73.7469
73.6701
73.5315
73.3014
72.9432
72.4175
71.7059
70.8031
69.6981
68.3899
66.8883
65.2141
63.384
61.4779
59.5577
57.6274
55.6863
53.732
51.7614
49.566
47.112
44.6524
42.2136
39.8173
37.4723
35.1768
73.8436
73.8597
73.8803
73.8858
73.8301
73.8211
73.8174
73.8192
73.8248
73.8306
73.8305
73.8146
73.7682
73.6711
73.4961
73.2087
72.7676
72.1308
71.2827
70.224
68.9489
67.4629
65.7832
63.938
61.9497
59.9068
57.8734
55.85
53.834
51.8209
49.5981
47.1274
44.658
42.2096
39.8068
37.4607
35.1763
32.9527
73.8325
73.8456
73.8609
73.8803
73.8852
73.8254
73.8245
73.8306
73.8425
73.8577
73.8713
73.8748
73.8558
73.7963
73.6717
73.4502
73.0924
72.553
71.7875
70.7852
69.5549
68.0971
66.4249
64.5634
62.5485
60.4077
58.2371
56.1013
53.9976
51.92
49.6527
47.153
44.6677
42.2104
39.7989
37.4485
35.1648
32.9515
30.8083
73.8291
73.8358
73.8479
73.862
73.8802
73.8848
73.8308
73.8406
73.8582
73.8818
73.9074
73.9283
73.9338
73.9081
73.8293
73.6683
73.3884
72.9456
72.2905
71.3778
70.2038
68.7871
67.1358
65.2715
63.2276
61.0473
58.7627
56.476
54.2512
52.0809
49.7459
47.1991
44.6851
42.2132
39.7941
37.4364
35.1505
32.9399
30.8062
28.75
73.8362
73.8339
73.8394
73.8501
73.8632
73.8802
73.8844
73.8495
73.8722
73.9031
73.9395
73.9758
74.0032
74.0078
73.9703
73.8644
73.6564
73.3043
72.7597
71.9704
70.8915
69.5287
67.9123
66.0592
64
61.7763
59.4382
57.0213
54.6326
52.3332
49.9005
47.282
44.7203
42.2209
39.7887
37.4252
35.1341
32.9233
30.7945
28.7471
26.782
73.8572
73.8432
73.8393
73.8431
73.8524
73.8643
73.8802
73.884
73.8845
73.922
73.9679
74.018
74.0647
74.0964
74.096
74.0401
73.8976
73.6295
73.1894
72.5248
71.5817
70.3177
68.7502
66.9229
64.8626
62.609
60.2117
57.7264
55.1918
52.7166
50.1472
47.4248
44.7893
42.2428
39.785
37.4107
35.1161
32.9024
30.7755
28.735
26.7783
24.9068
73.8951
73.8669
73.8506
73.8446
73.8467
73.8546
73.8655
73.8803
73.8836
73.9388
73.9932
74.0554
74.1194
74.1752
74.208
74.1969
74.1139
73.9229
73.58
73.034
72.2297
71.1128
69.6453
67.8591
65.8127
63.5431
61.0992
58.5376
55.9192
53.2831
50.5271
47.659
44.9156
42.295
39.7915
37.3941
35.0916
32.8773
30.75
28.7136
26.7659
24.9023
23.1256
73.9531
73.9083
73.8769
73.858
73.8498
73.8502
73.8568
73.8666
73.8803
73.8834
74.0156
74.0887
74.1679
74.2451
74.3075
74.3367
74.3073
74.1865
73.9331
73.4981
72.8267
71.862
70.5513
68.8636
66.847
64.5766
62.0994
59.4729
56.7603
54.0245
51.0937
48.0267
45.1313
42.4008
39.824
37.3835
35.0612
32.8424
30.7177
28.6836
26.742
24.8896
23.1204
21.4382
74.0347
73.9708
73.9214
73.8867
73.8652
73.8549
73.8536
73.8589
73.8677
73.8804
73.8831
74.1182
74.2112
74.3073
74.396
74.4611
74.4799
74.4225
74.2509
73.9186
73.3725
72.5548
71.4086
69.885
67.9622
65.707
63.2112
60.532
57.7348
54.8863
51.841
48.5818
45.4782
42.5924
39.906
37.3942
35.0321
32.7975
30.6721
28.6439
26.7075
24.8633
23.1073
21.4323
19.8435
74.1432
74.0581
73.9879
73.9343
73.8964
73.8722
73.8598
73.857
73.8609
73.8688
73.8805
73.8829
74.2493
74.3627
74.4747
74.5717
74.6337
74.6334
74.5359
74.2979
73.8683
73.1901
72.2042
70.8557
69.1016
66.9317
64.4333
61.7152
58.8439
55.8902
52.7153
49.3213
46.0099
42.9105
40.0685
37.4494
35.0195
32.7491
30.6122
28.5875
26.6605
24.8243
23.0785
21.4189
19.837
18.3397
74.2817
74.1737
74.08
74.0045
73.947
73.9057
73.8789
73.8646
73.8602
73.8629
73.8699
73.8806
73.8828
74.4116
74.5448
74.6702
74.7705
74.8215
74.791
74.6388
74.3166
73.7689
72.9363
71.7601
70.1893
68.1894
65.7641
63.0221
60.0891
57.0386
53.7399
50.1938
46.7265
43.4073
40.3503
37.5783
35.0455
32.7121
30.5441
28.5125
26.5932
24.7701
23.0353
21.3878
19.8233
18.3325
16.924
74.453
74.3212
74.2015
74.1013
74.0208
73.9591
73.9146
73.8854
73.8692
73.8633
73.8649
73.8709
73.8808
73.8827
74.6068
74.758
74.8925
74.9891
75.0189
74.9444
74.7203
74.2935
73.6054
72.5954
71.2071
69.3959
67.1381
64.4529
61.4719
58.3347
54.9189
51.2234
47.58
44.0868
40.802
37.8176
35.1372
32.7072
30.482
28.4244
26.5031
24.6921
22.9741
21.3404
19.7898
18.3185
16.9163
15.5936
74.6591
74.5036
74.3562
74.2285
74.122
74.0364
73.9706
73.9231
73.8916
73.8736
73.8662
73.8667
73.8719
73.8809
73.8826
74.8355
75.0013
75.1386
75.2222
75.2178
75.083
74.7672
74.2136
73.3613
72.1507
70.5299
68.4628
65.9385
62.994
59.7818
56.2572
52.4161
48.5948
44.9046
41.4313
38.2153
35.3287
32.7588
30.4449
28.3371
26.3953
24.5871
22.8856
21.2724
19.7386
18.2828
16.9021
15.5853
14.3449
74.9009
74.7232
74.5473
74.3901
74.2547
74.1418
74.0511
73.9815
73.9311
73.8974
73.8777
73.869
73.8685
73.8729
73.881
73.8826
75.0973
75.2721
75.4037
75.4621
75.408
75.1936
74.7642
74.0598
73.0191
71.5855
69.7136
67.3782
64.5837
61.3838
57.7606
53.7792
49.7785
45.8846
42.1975
38.7821
35.6648
32.8984
30.4546
28.2671
26.2827
24.46
22.7661
21.1737
19.664
18.228
16.8643
15.5709
14.3362
13.1745
75.1781
74.9816
74.7775
74.5895
74.4229
74.2795
74.1602
74.0648
73.9917
73.9385
73.9028
73.8815
73.8716
73.8701
73.8737
73.8812
73.8826
75.3899
75.5659
75.6805
75.6989
75.5765
75.2609
74.6937
73.8135
72.5606
70.8829
68.7442
66.1326
63.0668
59.4358
55.3214
51.1411
47.0361
43.1231
39.4815
36.1583
33.1667
30.5392
28.2335
26.1796
24.3225
22.6202
21.0402
19.5555
18.147
16.806
15.531
14.3215
13.1653
12.0788
75.4888
75.279
75.0486
74.8299
74.6304
74.4538
74.3025
74.1774
74.0775
74.0011
73.9455
73.9079
73.8851
73.8739
73.8715
73.8745
73.8813
73.8826
75.7089
75.8759
75.9594
75.9198
75.7079
75.2671
74.5368
73.4555
71.9671
70.0268
67.6095
64.7157
61.2077
57.0532
52.6942
48.3707
44.218
40.3333
36.7768
33.5773
30.7347
28.2612
26.1021
24.1863
22.4583
20.8763
19.4086
18.0291
16.719
15.4695
14.2797
13.1504
12.0689
11.0538
75.8288
75.614
75.3614
75.1134
74.8805
74.6686
74.4823
74.3238
74.1932
74.0892
74.0097
73.9518
73.9125
73.8883
73.876
73.8727
73.8752
73.8814
73.8827
76.0479
76.1926
76.2278
76.1095
75.7842
75.1926
74.2728
72.9657
71.2207
69.0023
66.296
62.9557
58.9
54.4503
49.9007
45.4935
41.3461
37.5356
34.1019
31.0544
28.3801
26.0717
24.065
22.2896
20.6905
19.2273
17.8695
16.5922
15.3768
14.2152
13.1068
12.0537
11.0426
10.0971
76.1919
75.9834
75.7151
75.4413
75.1758
74.9276
74.7037
74.5084
74.3431
74.2074
74.0998
74.0175
73.9575
73.9164
73.891
73.8777
73.8738
73.8759
73.8816
73.8827
76.3975
76.5038
76.4705
76.2498
75.7855
75.0159
73.8806
72.3243
70.304
67.7934
64.6412
60.7343
56.334
51.6385
46.961
42.5296
38.4414
34.7506
31.4743
28.6025
26.1114
23.9762
22.125
20.4902
19.0186
17.6716
16.4205
15.2416
14.1171
13.0397
12.0084
11.0273
10.0818
9.30394
76.5689
76.3817
76.1071
75.8133
75.518
75.2337
74.9706
74.7356
74.5319
74.3604
74.2201
74.1091
74.0242
73.9623
73.9198
73.8933
73.8793
73.8747
73.8764
73.8817
73.8828
76.7458
76.7943
76.6694
76.3205
75.6894
74.7148
73.3384
71.5116
69.1989
66.2462
62.5106
58.2115
53.5094
48.6328
43.8951
39.5026
35.5276
31.9985
28.9094
26.2324
23.9352
21.978
20.2831
18.7876
17.441
16.2069
15.0586
13.974
12.9365
11.939
10.9808
10.0677
9.29713
8.63535
76.9479
76.8008
76.5326
76.2275
75.9074
75.5889
75.2862
75.0093
74.764
74.5526
74.3755
74.2311
74.117
74.0299
73.9662
73.9226
73.8953
73.8805
73.8756
73.8769
73.8819
73.8829
77.0776
77.0461
76.8038
76.2987
75.4728
74.2658
72.625
70.5075
67.7577
64.2053
60.0334
55.3827
50.4459
45.4611
40.734
36.4424
32.6301
29.2987
26.4205
23.9523
21.856
20.0788
18.5393
17.1805
15.9552
14.8301
13.7803
12.786
11.8311
10.9093
10.0201
9.28927
8.63945
7.93375
77.3136
77.2298
76.9846
76.6802
76.3428
75.994
75.6529
75.3332
75.0436
74.7888
74.5705
74.3884
74.2403
74.1235
74.0344
73.9694
73.9248
73.8969
73.8816
73.8763
73.8774
73.8821
73.883
77.3745
77.2384
76.8505
76.1602
75.1106
73.6462
71.7175
69.1675
65.8028
61.7778
57.2163
52.285
47.186
42.1656
37.5161
33.3808
29.7733
26.6684
24.0189
21.7689
19.8766
18.279
16.8925
15.6665
14.5584
13.5378
12.5823
11.6737
10.7971
9.94714
9.2408
8.63364
7.93429
7.17873
77.6475
77.6548
77.4533
77.1652
76.8213
76.4487
76.0721
75.7099
75.3745
75.0732
74.8099
74.5854
74.3988
74.2475
74.1283
74.0378
73.9719
73.9266
73.8983
73.8825
73.8769
73.8777
73.8822
73.8831
77.6153
77.3472
76.7845
75.8788
74.5787
72.8297
70.4722
67.2952
63.4329
58.9959
54.1201
48.976
43.7812
38.7917
34.2794
30.3479
26.9791
24.1223
21.7135
19.6867
17.9984
16.578
15.3406
14.2428
13.2472
12.3266
11.4607
10.6333
9.83083
9.16725
8.58559
7.92431
7.17273
6.35374
77.9279
78.0588
77.926
77.6739
77.3376
76.9505
76.5437
76.1411
75.7595
75.4097
75.0979
74.827
74.5971
74.4065
74.2526
74.1318
74.0403
73.9737
73.928
73.8993
73.8833
73.8774
73.8781
73.8824
73.8833
77.7756
77.3471
76.5786
75.4288
73.8469
71.6721
68.6807
64.9939
60.7125
55.9401
50.8083
45.5071
40.277
35.3797
31.0575
27.3695
24.2658
21.6723
19.5107
17.7081
16.2214
14.9739
13.8807
12.9061
12.0181
11.1926
10.4115
9.66114
9.04751
8.51111
7.87592
7.15751
6.34431
5.45372
78.1294
78.4214
78.3866
78.1949
77.8845
77.4954
77.0663
76.6275
76.201
75.8015
75.4386
75.1175
74.8399
74.6053
74.4116
74.2559
74.1341
74.0419
73.9749
73.929
73.9001
73.8838
73.8779
73.8784
73.8826
73.8835
77.8288
77.2097
76.2056
74.7759
72.7703
69.9605
66.4589
62.3581
57.7301
52.667
47.3219
41.9157
36.7101
31.9641
27.8793
24.4674
21.6482
19.327
17.4147
15.8343
14.5445
13.4642
12.5097
11.653
10.8673
10.1318
9.43113
8.87303
8.3885
7.79974
7.10752
6.32651
5.44298
4.47595
78.2243
78.7193
78.8162
78.7138
78.4517
78.077
77.6366
77.1682
76.6998
76.2512
75.8356
75.4611
75.1318
74.8484
74.6102
74.4145
74.2577
74.1353
74.0428
73.9757
73.9296
73.9006
73.8843
73.8783
73.8786
73.8828
73.8837
77.7451
76.9062
75.6273
73.7751
71.1383
67.8269
63.9243
59.4727
54.5277
49.2029
43.6865
38.2312
33.1125
28.5746
24.7692
21.6592
19.1373
17.0922
15.4277
14.0649
12.9655
12.0459
11.2242
10.4795
9.79069
9.14049
8.63631
8.21
7.67394
7.02863
6.27477
5.42442
4.46443
3.41523
78.1809
78.9267
79.1925
79.2131
79.0263
78.6864
78.2492
77.7607
77.2558
76.76
76.2914
75.8614
75.4767
75.1404
74.8527
74.6122
74.4153
74.258
74.1355
74.043
73.976
73.9299
73.901
73.8848
73.8788
73.8789
73.883
73.8839
77.4927
76.3952
74.6987
72.2232
69.0982
65.403
61.1504
56.3631
51.1174
45.562
39.9232
34.4809
29.5133
25.2377
21.7476
18.9586
16.7409
14.9714
13.55
12.398
11.4818
10.7158
10.0202
9.38169
8.78459
8.33679
7.9677
7.49101
6.89912
6.1925
5.37124
4.44519
3.40311
2.26462
77.9633
79.015
79.4904
79.6721
79.5924
79.3122
78.8966
78.4007
77.8672
77.3284
76.8078
76.3212
75.8786
75.4853
75.1438
74.8534
74.6116
74.4144
74.2571
74.1349
74.0426
73.9757
73.93
73.9016
73.8854
73.8791
73.8791
73.8833
73.8841
77.0264
75.5303
73.2287
70.2797
66.7884
62.7475
58.1476
53.0305
47.5044
41.7574
36.0535
30.692
25.9401
21.9762
18.8305
16.3754
14.4641
12.966
11.7805
10.8313
10.09
9.46984
8.89379
8.35569
7.96884
7.66065
7.24264
6.71121
6.0588
5.28556
4.39063
3.38283
2.25216
1.01664
77.5211
78.953
79.6815
80.067
80.131
79.94
79.5687
79.0816
78.5305
77.9553
77.3857
76.8428
76.3404
75.887
75.4874
75.1427
74.851
74.6089
74.412
74.2552
74.1334
74.0416
73.9752
73.9306
73.9024
73.8859
73.8793
73.8792
73.8835
73.8843
76.1978
74.1372
71.3839
68.0839
64.2525
59.8586
54.9095
49.4732
43.6947
37.8049
32.1019
26.8925
22.4187
18.8096
16.0306
13.9165
12.3091
11.0755
10.117
9.36156
8.78627
8.30413
7.84104
7.52379
7.28253
6.92743
6.45619
5.86533
5.14737
4.30167
3.32674
2.23096
1.00402
-0.336428
78.6957
76.7065
79.7338
80.3711
80.6201
80.5526
80.2527
79.7949
79.2405
78.638
78.0245
77.4271
76.8644
76.3486
75.8875
75.484
75.1377
74.8458
74.6043
74.4082
74.2522
74.1311
74.0402
73.9758
73.9317
73.903
73.8861
73.8795
73.8793
73.8837
73.8845
74.8498
72.3855
69.301
65.6661
61.4799
56.726
51.4302
45.6918
39.6981
33.7245
28.0955
23.1111
18.9731
15.7544
13.3572
11.5856
10.2763
9.29784
8.55649
7.98499
7.56663
7.21468
6.98746
6.8239
6.5383
6.13211
5.60301
4.94777
4.15877
3.23443
2.17305
0.982151
-0.349171
-1.80256
79.6052
78.1064
75.3703
80.5534
81.0346
81.1295
80.9329
80.5291
79.9896
79.3722
78.7224
78.0743
77.4522
76.8728
76.3472
75.8811
75.4758
75.1293
74.8383
74.598
74.4031
74.2481
74.1284
74.0405
73.9772
73.9325
73.9033
73.8862
73.8796
73.8794
73.8838
73.8848
73.1588
70.4071
66.9999
63.0096
58.458
53.3408
47.7059
41.6901
35.529
29.5405
24.0643
19.376
15.6247
12.8237
10.8163
9.38399
8.36412
7.63038
7.09512
6.69739
6.42698
6.33145
6.26935
6.065
5.73103
5.26926
4.67749
3.95252
3.08649
2.07709
0.922233
-0.371704
-1.81544
-3.39004
80.5737
79.1808
77.0601
73.7064
81.3454
81.6476
81.5909
81.2706
80.768
80.1515
79.4758
78.7831
78.1042
77.461
76.8692
76.3374
75.8689
75.4634
75.1181
74.8287
74.5901
74.3965
74.2435
74.1283
74.0424
73.9782
73.9328
73.9033
73.8862
73.8796
73.8794
73.884
73.885
71.2513
68.2148
64.4592
60.1007
55.177
49.6967
43.7358
37.4763
31.2066
25.2816
20.0396
15.7142
12.392
10.0271
8.41124
7.31122
6.57006
6.06909
5.72858
5.49455
5.50333
5.58847
5.49073
5.24186
4.85522
4.33321
3.67359
2.87306
1.92368
0.822383
-0.43362
-1.8387
-3.40301
-5.10739
81.5155
80.3346
78.3131
75.6969
71.8375
82.08
82.2052
82.0023
81.5636
80.9677
80.2797
79.5509
78.8196
78.1141
77.4553
76.8555
76.3205
75.8517
75.4476
75.1044
74.8172
74.5803
74.3894
74.2429
74.1308
74.0437
73.9786
73.9327
73.903
73.8861
73.8795
73.8794
73.8842
73.8853
69.1343
65.783
61.6657
56.9301
51.6296
45.7898
39.5219
33.0627
26.7554
20.9801
16.0536
12.1509
9.2903
7.37125
6.14298
5.36522
4.89018
4.60952
4.45245
4.52009
4.72652
4.78296
4.64626
4.34888
3.90514
3.31787
2.58477
1.70249
0.663038
-0.537505
-1.90261
-3.42702
-5.12037
-6.96321
82.393
81.4665
79.6882
77.1316
74.1204
69.7665
82.751
82.7048
82.3613
81.81
81.1269
80.3734
79.5965
78.8319
78.1065
77.4372
76.8331
76.2975
75.8303
75.4288
75.0883
74.8033
74.5699
74.388
74.2461
74.1325
74.0442
73.9784
73.9323
73.903
73.8861
73.8794
73.8794
73.8843
73.8856
66.7773
63.0994
58.6109
53.4906
47.8101
41.6171
35.0691
28.4666
22.2047
16.671
12.1379
8.70787
6.33104
4.85988
4.01075
3.54237
3.31992
3.247
3.41912
3.70078
3.88442
3.90946
3.73025
3.38026
2.87464
2.21665
1.4041
0.433494
-0.703199
-2.01068
-3.49294
-5.1451
-6.97612
-8.96614
83.1989
82.5297
81.0515
78.7327
75.7418
72.3464
67.4577
83.3555
83.1434
82.6653
82.0083
81.2448
80.4316
79.6129
78.8229
78.0839
77.4087
76.8034
76.2695
75.8054
75.4072
75.0693
74.7888
74.5674
74.3922
74.2483
74.133
74.0438
73.9777
73.9324
73.9032
73.886
73.8792
73.8793
73.8845
73.886
64.1688
60.1577
55.2894
49.7764
43.7125
37.1766
30.385
23.7101
17.589
12.391
8.32186
5.40341
3.52251
2.49443
2.01173
1.83821
1.85438
2.14416
2.55062
2.81276
2.9715
2.96219
2.73679
2.32976
1.75706
1.02259
0.124218
-0.941695
-2.18313
-3.60541
-5.21306
-7.00148
-8.97854
-11.1255
83.9289
83.515
82.3418
80.334
77.5712
74.1788
70.3408
64.8988
83.8895
83.5178
82.9124
82.1572
81.3201
80.4546
79.6036
78.7958
78.0487
77.3714
76.7676
76.2372
75.777
75.3819
75.0496
74.7849
74.5727
74.3949
74.2488
74.1324
74.0427
73.9779
73.9329
73.9032
73.8858
73.8789
73.8791
73.8847
73.8863
61.3046
56.9547
51.6967
45.7807
39.33
32.4661
25.4809
18.822
12.9468
8.17677
4.63182
2.25199
0.869797
0.273666
0.141941
0.247717
0.668471
1.21762
1.6096
1.85041
1.98185
1.93515
1.65958
1.1907
0.545417
-0.271724
-1.26265
-2.43117
-3.78508
-5.33016
-7.07134
-9.004
-11.135
-13.8569
84.5777
84.4172
83.5496
81.8594
79.4097
76.2569
72.4099
68.0918
62.0873
84.3489
83.8252
83.1009
82.2553
81.3529
80.4465
79.5724
78.7536
78.0029
77.3268
76.7269
76.2008
75.7443
75.3559
75.0439
74.7915
74.5761
74.3955
74.2479
74.1308
74.0433
73.9791
73.9332
73.903
73.8853
73.8785
73.8789
73.885
73.8868
58.1841
53.4885
47.8269
41.4941
34.6519
27.4838
20.374
13.8374
8.31986
4.06337
1.09041
-0.735814
-1.62549
-1.80531
-1.60349
-1.03919
-0.327503
0.214121
0.590283
0.807704
0.909345
0.821942
0.491868
-0.0439699
-0.767722
-1.67407
-2.76462
-4.04326
-5.51749
-7.19325
-9.07575
-11.1605
-13.87
-17.1094
85.1401
85.2288
84.6701
83.2985
81.169
78.347
74.7603
70.419
65.6013
59.0237
84.7304
84.0638
83.229
82.3024
81.3483
80.4121
79.523
78.6986
77.9485
77.2763
76.6812
76.1592
75.7106
75.3478
75.0522
74.7957
74.5768
74.3941
74.2457
74.1319
74.0455
73.9801
73.9332
73.9025
73.8848
73.878
73.8787
73.8852
73.8872
54.8071
49.7556
43.6711
36.9008
29.6646
22.2323
15.0902
8.79866
3.75122
0.0833745
-2.28402
-3.55392
-3.96423
-3.7468
-3.01584
-2.11961
-1.40573
-0.872351
-0.513492
-0.321614
-0.252496
-0.384235
-0.77341
-1.38167
-2.19014
-3.19254
-4.38999
-5.78642
-7.38868
-9.2027
-11.2333
-13.9011
-17.1261
-20.4215
85.6118
85.9419
85.695
84.6474
82.8373
80.3522
77.1207
73.0615
68.2078
62.8763
55.7104
85.0314
84.2308
83.2962
82.3046
81.3122
80.3557
79.4583
78.6333
77.887
77.2201
76.6292
76.1165
75.6998
75.3582
75.0573
74.7965
74.5749
74.3912
74.2475
74.1355
74.0473
73.9805
73.9329
73.9018
73.884
73.8774
73.8784
73.8855
73.8877
51.173
45.7496
39.2132
31.9804
24.3582
16.7248
9.66638
3.75385
-0.715797
-3.73457
-5.47861
-6.19972
-6.1495
-5.31799
-4.20119
-3.28873
-2.57257
-2.04816
-1.70812
-1.54413
-1.51054
-1.69046
-2.14365
-2.83015
-3.72986
-4.83539
-6.14723
-7.66898
-9.4067
-11.3653
-13.9793
-17.1605
-20.4345
-23.7457
85.9897
86.5494
86.6143
85.8969
84.4114
82.2602
79.3901
75.7065
71.1614
65.7863
59.9268
52.1489
85.2482
84.3254
83.3094
82.2688
81.2496
80.2811
79.3813
78.5597
77.8187
77.1563
76.576
76.1024
75.7125
75.3643
75.0582
74.794
74.571
74.3939
74.2531
74.1388
74.0486
73.9805
73.9322
73.9007
73.883
73.8767
73.8779
73.8858
73.8883
47.2782
41.4589
34.429
26.7062
18.7217
10.9826
4.15038
-1.24382
-5.03977
-7.3677
-8.48512
-8.67391
-7.91818
-6.63629
-5.48326
-4.55335
-3.83462
-3.31985
-3.00029
-2.86675
-2.87184
-3.10407
-3.62653
-4.39734
-5.39506
-6.61095
-8.04459
-9.69901
-11.5784
-14.1205
-17.2459
-20.4657
-23.7567
-27.0547
86.2691
87.0457
87.4181
87.0359
85.8822
84.067
81.5572
78.2527
74.1032
69.0713
63.17
56.7636
48.3388
85.379
84.3552
83.277
82.2013
81.1651
80.1917
79.2944
78.478
77.7415
77.0909
76.558
76.1179
75.72
75.3654
75.0549
74.7888
74.5749
74.4022
74.2583
74.1412
74.0492
73.98
73.9311
73.8994
73.8818
73.8758
73.8774
73.8861
73.8889
43.1146
36.8566
29.2764
21.0379
12.743
5.03413
-1.4009
-6.13902
-9.18427
-10.7989
-11.3001
-10.6768
-9.40139
-8.06149
-6.86936
-5.92037
-5.1986
-4.6942
-4.39692
-4.29649
-4.34367
-4.63262
-5.22982
-6.09124
-7.19389
-8.52737
-10.0901
-11.8834
-14.3461
-17.3989
-20.5516
-23.787
-27.0647
-30.3335
86.4467
87.424
88.0972
88.0532
87.2387
85.7632
83.6176
80.6915
76.9351
72.3221
66.8095
60.3778
53.3977
44.2784
85.4326
84.3303
83.2065
82.1075
81.063
80.0906
79.198
78.3858
77.6624
77.0684
76.5767
76.1268
75.7211
75.3612
75.0482
74.7944
74.5867
74.41
74.2624
74.1428
74.0492
73.979
73.9295
73.8977
73.8804
73.8748
73.8769
73.8864
73.8895
38.6613
31.9011
23.6991
14.9313
6.42259
-1.07618
-6.9221
-10.8779
-13.1187
-14.0176
-13.5796
-12.3556
-11.0037
-9.60133
-8.36662
-7.39661
-6.67137
-6.17817
-5.90498
-5.84049
-5.9334
-6.28367
-6.96127
-7.91974
-9.13424
-10.5924
-12.2904
-14.6672
-17.6405
-20.7106
-23.8736
-27.0959
-30.3424
-33.5641
86.5325
87.6786
88.6392
88.9372
88.469
87.337
85.5606
83.0195
79.6525
75.4475
70.3825
64.3988
57.4294
49.8418
39.9581
85.4207
84.2598
83.1046
81.9926
80.9468
79.9783
79.0893
78.2912
77.6348
77.0909
76.5873
76.128
75.7158
75.3526
75.0558
74.8105
74.5979
74.4164
74.2655
74.1436
74.0484
73.9774
73.9275
73.8957
73.8787
73.8735
73.8763
73.8867
73.8901
33.887
26.5387
17.6299
8.34938
-0.218176
-7.2837
-12.3423
-15.4098
-16.8203
-16.6258
-15.4889
-14.1677
-12.7333
-11.2631
-9.98194
-8.98894
-8.25982
-7.7786
-7.53143
-7.50586
-7.64827
-8.06462
-8.82842
-9.89037
-11.2234
-12.8125
-15.0941
-17.9809
-20.9637
-24.0374
-27.1846
-30.3744
-33.5718
-36.7245
86.5403
87.8202
89.0308
89.6714
89.5606
88.7758
87.3729
85.226
82.2538
78.4475
73.8088
68.3089
61.8638
54.3442
46.1037
35.357
85.3542
84.1516
82.9772
81.8609
80.8175
79.8514
78.9775
78.2579
77.6616
77.1034
76.5886
76.1215
75.7051
75.3627
75.0774
74.826
74.6072
74.4214
74.2675
74.1435
74.0469
73.9751
73.925
73.8932
73.8767
73.8722
73.8756
73.8871
73.8908
28.7449
20.6892
10.9826
1.26971
-7.13398
-13.5061
-17.5877
-19.6916
-19.8228
-18.8087
-17.5477
-16.1214
-14.5973
-13.0535
-11.722
-10.7041
-9.9706
-9.50221
-9.28306
-9.29945
-9.49525
-9.98256
-10.8383
-12.0099
-13.4675
-15.6396
-18.4293
-21.319
-24.2995
-27.3544
-30.4649
-33.6041
-36.7309
-39.7915
86.4828
87.866
89.2801
90.2349
90.4932
90.067
89.0397
87.2973
84.7301
81.3235
77.0941
72.0442
66.1284
59.2289
51.1428
42.1853
30.4439
85.2424
84.0129
82.8299
81.7137
80.6712
79.7209
78.9378
78.2896
77.6763
77.1049
76.5806
76.1081
75.7182
75.3909
75.0982
74.8391
74.6149
74.4251
74.2683
74.1423
74.0445
73.9721
73.9218
73.8904
73.8744
73.8707
73.8749
73.8874
73.8916
23.1637
14.2321
3.65184
-6.30663
-14.2535
-19.6397
-22.5865
-23.1698
-22.333
-21.1594
-19.7637
-18.223
-16.6016
-14.9786
-13.593
-12.5482
-11.81
-11.3553
-11.1662
-11.2276
-11.4808
-12.0438
-12.997
-14.2839
-16.3225
-18.9988
-21.7841
-24.6657
-27.6253
-30.6402
-33.6955
-36.7632
-39.7964
-42.7424
86.3714
87.8315
89.4059
90.6309
91.2386
91.1884
90.5457
89.2174
87.0692
84.0695
80.2433
75.6168
70.1821
63.869
56.5196
47.8476
38.0885
25.1755
85.0941
83.8503
82.6643
81.5467
80.5202
79.674
78.9751
78.3068
77.6779
77.0951
76.5642
76.1248
75.7542
75.4182
75.116
74.8503
74.621
74.4274
74.2678
74.1399
74.0411
73.9682
73.9181
73.8872
73.8721
73.8692
73.8742
73.8878
73.8923
17.0346
6.98114
-4.4779
-14.341
-21.4627
-25.5559
-26.6679
-26.0729
-25.0295
-23.6839
-22.1416
-20.4771
-18.7513
-17.0438
-15.6004
-14.5269
-13.7836
-13.3436
-13.1865
-13.296
-13.6104
-14.2537
-15.3092
-17.1733
-19.7089
-22.3711
-25.1418
-27.9999
-30.9182
-33.8748
-36.8548
-39.8285
-42.7457
-45.5552
86.2161
87.7306
89.4269
90.8777
91.7963
92.1061
91.8648
90.9685
89.2558
86.6764
83.2547
79.0364
74.044
68.2518
61.5585
53.7634
44.4809
33.8138
19.4901
84.9171
83.666
82.4755
81.3738
80.4656
79.7177
78.995
78.3084
77.6662
77.0752
76.5851
76.1702
75.7892
75.4418
75.1315
74.8594
74.6253
74.428
74.2658
74.1363
74.0366
73.9636
73.9138
73.8837
73.8695
73.8676
73.8734
73.8881
73.8931
10.1777
-1.35962
-13.4913
-22.7312
-28.5545
-30.4083
-30.0766
-29.1845
-27.9147
-26.3835
-24.6833
-22.8861
-21.0495
-19.2527
-17.7484
-16.6447
-15.8961
-15.4717
-15.3486
-15.509
-15.8882
-16.616
-18.2425
-20.5929
-23.1007
-25.7395
-28.4826
-31.2983
-34.1572
-37.0363
-39.9194
-42.7772
-45.5569
-48.2086
86.0264
87.5759
89.3604
90.9932
92.1843
92.8175
92.9558
92.5185
91.2715
89.1313
86.1235
82.3062
77.7302
72.4053
66.2827
59.2261
50.9878
41.0655
29.3714
13.309
84.7145
83.4548
82.2794
81.3109
80.5165
79.7407
78.9968
78.2946
77.6421
77.1008
76.6414
76.2144
75.8198
75.4626
75.1446
74.8663
74.6274
74.4266
74.2621
74.1312
74.031
73.9581
73.9091
73.88
73.8669
73.8659
73.8727
73.8885
73.8939
2.28226
-11.2595
-23.409
-31.1549
-34.43
-34.4483
-33.7163
-32.5051
-30.9842
-29.2546
-27.3871
-25.45
-23.4972
-21.6074
-20.0397
-18.9046
-18.1506
-17.7428
-17.6556
-17.8694
-18.3168
-19.6065
-21.7042
-24.0084
-26.4805
-29.0849
-31.7829
-34.5382
-37.3195
-40.1012
-42.8665
-45.5874
-48.2091
-50.6835
85.8062
87.3784
89.2228
90.9953
92.4205
93.3418
93.8137
93.8152
93.08
91.418
88.8411
85.427
81.25
76.3543
70.7304
64.304
56.8985
48.2243
37.6371
24.8075
6.52516
84.4804
83.2343
82.2077
81.3698
80.5428
79.7426
78.9804
78.2657
77.6732
77.1696
76.6961
76.2532
75.8469
75.4804
75.1548
74.8705
74.627
74.4231
74.2565
74.1245
74.0242
73.9521
73.904
73.876
73.8641
73.8642
73.8719
73.8888
73.8948
-7.33425
-23.528
-33.681
-38.3877
-39.2741
-38.7181
-37.5664
-36.0208
-34.2279
-32.2884
-30.2476
-28.1654
-26.0927
-24.1075
-22.4748
-21.3076
-20.5486
-20.1585
-20.1087
-20.3783
-21.3831
-23.1233
-25.1503
-27.4025
-29.8298
-32.3839
-35.0195
-37.6971
-40.3818
-43.0461
-45.6739
-48.2379
-50.682
-52.9595
85.5499
87.143
89.0285
90.9022
92.5228
93.6978
94.4608
94.8464
94.6176
93.4982
91.3951
88.3958
84.6107
80.1151
74.9377
69.0477
62.3414
54.6056
45.5184
34.236
20.2142
-1.04706
84.2347
83.1533
82.2755
81.3999
80.5449
79.7235
78.9462
78.3029
77.7561
77.2365
76.7445
76.2879
75.8706
75.4948
75.1617
74.8716
74.6239
74.417
74.2488
74.1164
74.0166
73.9454
73.8986
73.8719
73.8611
73.8624
73.8711
73.8892
73.8957
-20.2282
-37.4606
-43.5529
-44.5705
-44.3731
-43.1762
-41.583
-39.7018
-37.6295
-35.4709
-33.2543
-31.0247
-28.8309
-26.7495
-25.0516
-23.8525
-23.0892
-22.7176
-22.7069
-23.5357
-24.9726
-26.61
-28.5636
-30.7572
-33.1258
-35.6132
-38.1696
-40.7514
-43.3205
-45.849
-48.3206
-50.7082