/*--------------------------------*- C++ -*----------------------------------*\
  =========                 |
  \\      /  F ield         | OpenFOAM: The Open Source CFD Toolbox
   \\    /   O peration     | Website:  https://openfoam.org
    \\  /    A nd           | Version:  8
     \\/     M anipulation  |
\*---------------------------------------------------------------------------*/
FoamFile
{
    version     2.0;
    format      ascii;
    class       volVectorField;
    location    "0.22";
    object      U;
}
// * * * * * * * * * * * * * * * * * * * * * * * * * * * * * * * * * * * * * //

dimensions      [0 1 -1 0 0 0 0];

internalField   nonuniform List<vector> 
15677
(
(-0.0199285 9.66511 0)
(0.0435642 9.92087 0)
(0.00237965 9.37824 0)
(0.0147261 9.9765 0)
(0.0186019 9.78797 0)
(0.0070174 9.14272 0)
(0.0279458 9.99436 0)
(0.0170884 9.925 0)
(0.0107264 9.65536 0)
(0.0060852 8.96046 0)
(0.0260846 10.0016 0)
(0.0214752 9.97875 0)
(0.0163804 9.85381 0)
(0.00902146 9.53078 0)
(0.00491708 8.81703 0)
(0.0249239 10.0047 0)
(0.022336 10.0029 0)
(0.0191591 9.94331 0)
(0.0153735 9.77978 0)
(0.00789812 9.41981 0)
(0.00405472 8.70216 0)
(0.0239364 10.0062 0)
(0.022501 10.0145 0)
(0.0207595 9.9865 0)
(0.018282 9.90289 0)
(0.0139267 9.70831 0)
(0.00684136 9.32141 0)
(0.00339547 8.60928 0)
(0.0225873 10.0067 0)
(0.0223204 10.0201 0)
(0.0215746 10.0085 0)
(0.0201789 9.96549 0)
(0.0170844 9.86233 0)
(0.0125265 9.64089 0)
(0.00591119 9.23562 0)
(0.00284633 8.53443 0)
(0.0208906 10.0067 0)
(0.0217625 10.0225 0)
(0.0218863 10.0199 0)
(0.0212652 9.99863 0)
(0.0191347 9.94423 0)
(0.015744 9.82255 0)
(0.0111981 9.5791 0)
(0.00505533 9.1625 0)
(0.00234343 8.47482 0)
(0.0189601 10.0063 0)
(0.0209079 10.0228 0)
(0.0217629 10.0259 0)
(0.0217605 10.0168 0)
(0.0203185 9.98872 0)
(0.0178339 9.92316 0)
(0.014328 9.78505 0)
(0.00984911 9.52434 0)
(0.00421689 9.1018 0)
(0.00184915 8.42895 0)
(0.0168706 10.0057 0)
(0.0198219 10.022 0)
(0.021293 10.0288 0)
(0.0217871 10.0268 0)
(0.02088 10.0137 0)
(0.0190143 9.97904 0)
(0.0163629 9.90346 0)
(0.0127684 9.75128 0)
(0.00841738 9.47761 0)
(0.00335175 9.0533 0)
(0.00133561 8.39581 0)
(0.0146554 10.0051 0)
(0.0185009 10.0205 0)
(0.020512 10.0296 0)
(0.0214601 10.0322 0)
(0.0209416 10.0279 0)
(0.0195118 10.0109 0)
(0.0174436 9.97055 0)
(0.0146389 9.8863 0)
(0.0110027 9.72241 0)
(0.00685615 9.43964 0)
(0.00242106 9.0169 0)
(0.000780668 8.37508 0)
(0.0123191 10.0044 0)
(0.0170322 10.0185 0)
(0.0194322 10.0289 0)
(0.0207902 10.0347 0)
(0.0205703 10.036 0)
(0.0194767 10.0294 0)
(0.0177831 10.0092 0)
(0.0155107 9.96428 0)
(0.0125839 9.8727 0)
(0.00897459 9.69947 0)
(0.00511813 9.41114 0)
(0.0013932 8.99262 0)
(0.000159526 8.36648 0)
(0.0100241 10.0036 0)
(0.0155037 10.0162 0)
(0.0180944 10.0272 0)
(0.0197979 10.0351 0)
(0.0198719 10.0401 0)
(0.0189956 10.0401 0)
(0.0175423 10.0319 0)
(0.0155792 10.0096 0)
(0.0131235 9.96112 0)
(0.010126 9.8636 0)
(0.00662459 9.68348 0)
(0.00315935 9.39275 0)
(0.000251966 8.98058 0)
(-0.000455047 8.36999 0)
(0.00805471 10.0029 0)
(0.0138607 10.0138 0)
(0.016552 10.0248 0)
(0.0184965 10.034 0)
(0.0188312 10.0416 0)
(0.0181277 10.046 0)
(0.0168144 10.0453 0)
(0.0150065 10.0364 0)
(0.0127892 10.013 0)
(0.0101905 9.96191 0)
(0.00718884 9.86 0)
(0.00389496 9.67539 0)
(0.000936844 9.38504 0)
(-0.00104187 8.98102 0)
(-0.00119783 8.3856 0)
(0.00649265 10.0023 0)
(0.0122721 10.0114 0)
(0.014833 10.022 0)
(0.0168983 10.0319 0)
(0.0174564 10.0413 0)
(0.016885 10.0487 0)
(0.0156457 10.053 0)
(0.0138872 10.0525 0)
(0.0117395 10.0438 0)
(0.00930156 10.02 0)
(0.00661377 9.96754 0)
(0.00369687 9.86282 0)
(0.000725555 9.67611 0)
(-0.00159453 9.38859 0)
(-0.0025035 8.99405 0)
(-0.00202752 8.41353 0)
(0.00532067 10.0018 0)
(0.0108328 10.0095 0)
(0.0131458 10.0192 0)
(0.0150301 10.029 0)
(0.0157516 10.0395 0)
(0.0152739 10.0491 0)
(0.0140545 10.0568 0)
(0.0122654 10.0618 0)
(0.010067 10.0623 0)
(0.00760749 10.0547 0)
(0.00499524 10.0316 0)
(0.00229773 9.97887 0)
(-0.000410554 9.87304 0)
(-0.00289694 9.68642 0)
(-0.0044194 9.40386 0)
(-0.00413228 9.01987 0)
(-0.00294224 8.45376 0)
(0.00433868 10.0014 0)
(0.00942017 10.0078 0)
(0.011609 10.0167 0)
(0.0131372 10.0261 0)
(0.0137296 10.0367 0)
(0.0132969 10.0478 0)
(0.0120444 10.058 0)
(0.0101569 10.0667 0)
(0.00781255 10.0732 0)
(0.00519533 10.0755 0)
(0.00246531 10.0699 0)
(-0.000251143 10.0485 0)
(-0.00285389 9.9968 0)
(-0.00521693 9.8915 0)
(-0.00703349 9.70708 0)
(-0.00759236 9.43123 0)
(-0.00593605 9.05845 0)
(-0.00393991 8.50628 0)
(0.00353831 10.0012 0)
(0.00815056 10.0065 0)
(0.0101535 10.0146 0)
(0.0113837 10.0233 0)
(0.0116415 10.0335 0)
(0.0109623 10.0451 0)
(0.00961563 10.057 0)
(0.00756282 10.0685 0)
(0.00498625 10.0791 0)
(0.00209946 10.0878 0)
(-0.000901318 10.0929 0)
(-0.00384072 10.0902 0)
(-0.00655976 10.0716 0)
(-0.00892148 10.0222 0)
(-0.0107575 9.91901 0)
(-0.0117151 9.73862 0)
(-0.0111222 9.47089 0)
(-0.00791794 9.10984 0)
(-0.00501774 8.57086 0)
(0.00288373 10.0009 0)
(0.0070018 10.0055 0)
(0.00881603 10.0127 0)
(0.00973235 10.0208 0)
(0.00968005 10.0304 0)
(0.00855077 10.0416 0)
(0.00677583 10.0543 0)
(0.00448138 10.0678 0)
(0.00158315 10.0813 0)
(-0.00167692 10.0946 0)
(-0.00508033 10.1065 0)
(-0.00840791 10.1152 0)
(-0.0114527 10.1164 0)
(-0.0140275 10.1016 0)
(-0.0159652 10.0557 0)
(-0.017061 9.95622 0)
(-0.0169435 9.78148 0)
(-0.0150001 9.52294 0)
(-0.0100629 9.17372 0)
(-0.00616399 8.64709 0)
(0.00234331 10.0008 0)
(0.00595941 10.0046 0)
(0.00758044 10.0111 0)
(0.00819631 10.0186 0)
(0.00782119 10.0275 0)
(0.00628754 10.0382 0)
(0.00386176 10.0507 0)
(0.000919554 10.0651 0)
(-0.00239306 10.0808 0)
(-0.00614285 10.0973 0)
(-0.0100763 10.1139 0)
(-0.0139423 10.13 0)
(-0.0174931 10.1432 0)
(-0.0204944 10.1492 0)
(-0.0227353 10.1393 0)
(-0.024024 10.0981 0)
(-0.0241355 10.0037 0)
(-0.0227058 9.83587 0)
(-0.0192065 9.58724 0)
(-0.0123609 9.24984 0)
(-0.00736997 8.73448 0)
(0.00191182 10.0006 0)
(0.00501798 10.0039 0)
(0.00644206 10.0098 0)
(0.00677758 10.0166 0)
(0.00608417 10.0248 0)
(0.00414958 10.0348 0)
(0.00113898 10.0468 0)
(-0.00270046 10.0611 0)
(-0.00693006 10.078 0)
(-0.0112996 10.0968 0)
(-0.0159061 10.1169 0)
(-0.0204651 10.1379 0)
(-0.024691 10.1589 0)
(-0.0283099 10.1776 0)
(-0.0310668 10.1894 0)
(-0.0327345 10.1853 0)
(-0.0331096 10.1498 0)
(-0.0319646 10.0616 0)
(-0.028972 9.90182 0)
(-0.0237089 9.66353 0)
(-0.0147788 9.33749 0)
(-0.00861337 8.83214 0)
(0.00157886 10.0006 0)
(0.00421069 10.0034 0)
(0.00539923 10.0086 0)
(0.00547813 10.0148 0)
(0.0044823 10.0223 0)
(0.00216354 10.0315 0)
(-0.00141324 10.0429 0)
(-0.0060559 10.0567 0)
(-0.0115069 10.0735 0)
(-0.0171307 10.0935 0)
(-0.0225767 10.1162 0)
(-0.0280041 10.1409 0)
(-0.0330869 10.1672 0)
(-0.0375102 10.1941 0)
(-0.0409814 10.2192 0)
(-0.0432351 10.2375 0)
(-0.044041 10.2401 0)
(-0.0432003 10.2113 0)
(-0.0405068 10.1303 0)
(-0.0356919 9.97913 0)
(-0.0284589 9.75126 0)
(-0.0172943 9.43604 0)
(-0.00987604 8.93929 0)
(0.00131879 10.0005 0)
(0.0035534 10.0029 0)
(0.0044893 10.0076 0)
(0.00429745 10.0132 0)
(0.00302328 10.02 0)
(0.000347331 10.0285 0)
(-0.00375961 10.0389 0)
(-0.00918668 10.052 0)
(-0.0157238 10.0683 0)
(-0.0229683 10.0883 0)
(-0.0300669 10.1124 0)
(-0.0365712 10.1399 0)
(-0.042723 10.1701 0)
(-0.0481601 10.2026 0)
(-0.0525483 10.2362 0)
(-0.0555891 10.2684 0)
(-0.0570215 10.2941 0)
(-0.0566304 10.3041 0)
(-0.0542423 10.2827 0)
(-0.0496915 10.2095 0)
(-0.0427924 10.0674 0)
(-0.0333994 9.84976 0)
(-0.0198482 9.54441 0)
(-0.0111175 9.05429 0)
(0.00111197 10.0004 0)
(0.00301964 10.0026 0)
(0.00373351 10.0068 0)
(0.00327866 10.0118 0)
(0.00171093 10.0179 0)
(-0.0012846 10.0256 0)
(-0.00588272 10.0351 0)
(-0.0120461 10.0473 0)
(-0.0196345 10.0627 0)
(-0.0283179 10.0822 0)
(-0.037521 10.1062 0)
(-0.0461401 10.1352 0)
(-0.0536191 10.1685 0)
(-0.0603218 10.2051 0)
(-0.0658636 10.2446 0)
(-0.0699067 10.2857 0)
(-0.0721643 10.3258 0)
(-0.0724004 10.3595 0)
(-0.0704363 10.3774 0)
(-0.0661429 10.3639 0)
(-0.059419 10.299 0)
(-0.0501837 10.166 0)
(-0.0384169 9.95809 0)
(-0.0223278 9.66125 0)
(-0.0119057 9.17539 0)
(0.000945035 10.0004 0)
(0.00258335 10.0023 0)
(0.00310843 10.0061 0)
(0.00244507 10.0106 0)
(0.000596975 10.016 0)
(-0.00272492 10.0228 0)
(-0.00776123 10.0315 0)
(-0.0146023 10.0425 0)
(-0.0231822 10.0569 0)
(-0.0332531 10.0754 0)
(-0.0443242 10.0988 0)
(-0.0556236 10.1277 0)
(-0.0657443 10.1627 0)
(-0.074027 10.2026 0)
(-0.081016 10.2466 0)
(-0.0863233 10.294 0)
(-0.0896284 10.3433 0)
(-0.0906797 10.3917 0)
(-0.0892921 10.4338 0)
(-0.0853455 10.46 0)
(-0.0787763 10.4547 0)
(-0.0695653 10.3982 0)
(-0.0577177 10.2741 0)
(-0.0434538 10.075 0)
(-0.0247505 9.78627 0)
(-0.0127006 9.30257 0)
(0.000808627 10.0003 0)
(0.00222434 10.0021 0)
(0.00258937 10.0056 0)
(0.00176755 10.0097 0)
(-0.00029391 10.0144 0)
(-0.00391879 10.0203 0)
(-0.00938375 10.0279 0)
(-0.0168302 10.0379 0)
(-0.0263237 10.051 0)
(-0.0377053 10.0682 0)
(-0.0505768 10.0906 0)
(-0.0642552 10.1188 0)
(-0.0777296 10.1536 0)
(-0.089243 10.1954 0)
(-0.0980544 10.2431 0)
(-0.10496 10.2952 0)
(-0.109595 10.3511 0)
(-0.111686 10.4091 0)
(-0.111047 10.4663 0)
(-0.107567 10.5171 0)
(-0.101205 10.5518 0)
(-0.0919786 10.5547 0)
(-0.0799404 10.5064 0)
(-0.0652389 10.3907 0)
(-0.0476234 10.1997 0)
(-0.0207017 9.91289 0)
(-0.00743558 9.37297 0)
(0.000696023 10.0003 0)
(0.00192682 10.0019 0)
(0.00215791 10.0051 0)
(0.00121565 10.0088 0)
(-0.000998462 10.013 0)
(-0.00484551 10.0181 0)
(-0.0106872 10.0246 0)
(-0.0187138 10.0333 0)
(-0.0290265 10.0451 0)
(-0.0416191 10.0609 0)
(-0.0561948 10.0817 0)
(-0.0721692 10.1087 0)
(-0.0886209 10.1427 0)
(-0.104261 10.1843 0)
(-0.116946 10.2341 0)
(-0.12589 10.2903 0)
(-0.132232 10.3514 0)
(-0.135664 10.4164 0)
(-0.135989 10.4836 0)
(-0.133117 10.5498 0)
(-0.127037 10.6093 0)
(-0.117808 10.6523 0)
(-0.10552 10.6632 0)
(-0.0903346 10.6227 0)
(-0.0721694 10.5147 0)
(-0.0516288 10.3292 0)
(-0.0158922 10.0694 0)
(0.00011047 9.42263 0)
(0.000602216 10.0003 0)
(0.0016788 10.0018 0)
(0.0017984 10.0048 0)
(0.000764173 10.0081 0)
(-0.00155514 10.0118 0)
(-0.00555221 10.0163 0)
(-0.0116585 10.0217 0)
(-0.0201782 10.029 0)
(-0.0312678 10.0392 0)
(-0.0449516 10.0534 0)
(-0.0611082 10.0725 0)
(-0.0792624 10.0978 0)
(-0.0985955 10.1304 0)
(-0.117903 10.1712 0)
(-0.135585 10.2207 0)
(-0.14909 10.2793 0)
(-0.157648 10.3449 0)
(-0.162828 10.4155 0)
(-0.164422 10.4901 0)
(-0.162355 10.5666 0)
(-0.156662 10.6418 0)
(-0.147456 10.7099 0)
(-0.134888 10.7609 0)
(-0.119136 10.7794 0)
(-0.100208 10.7461 0)
(-0.0780168 10.6449 0)
(-0.0546002 10.4713 0)
(-0.0171652 10.2263 0)
(0.00453272 9.46288 0)
(0.000523391 10.0003 0)
(0.00147097 10.0017 0)
(0.00149361 10.0044 0)
(0.000395109 10.0075 0)
(-0.00199455 10.0108 0)
(-0.00608597 10.0146 0)
(-0.0123608 10.0192 0)
(-0.0212195 10.0252 0)
(-0.0329574 10.0337 0)
(-0.0476708 10.0459 0)
(-0.0652602 10.0631 0)
(-0.0854463 10.0863 0)
(-0.107527 10.117 0)
(-0.130396 10.1562 0)
(-0.152523 10.2048 0)
(-0.171996 10.2631 0)
(-0.185828 10.3315 0)
(-0.193325 10.4073 0)
(-0.196625 10.4879 0)
(-0.195667 10.5723 0)
(-0.190532 10.6582 0)
(-0.181403 10.7422 0)
(-0.16852 10.8185 0)
(-0.152128 10.877 0)
(-0.132325 10.9025 0)
(-0.109021 10.876 0)
(-0.0823346 10.7821 0)
(-0.0550916 10.6252 0)
(-0.0200565 10.3788 0)
(0.00562514 9.50186 0)
(0.000456638 10.0002 0)
(0.00129609 10.0016 0)
(0.00123543 10.0042 0)
(9.44007e-05 10.007 0)
(-0.00234091 10.0099 0)
(-0.00648453 10.0132 0)
(-0.0128545 10.017 0)
(-0.0219223 10.0219 0)
(-0.0341024 10.0287 0)
(-0.0496669 10.0387 0)
(-0.0686076 10.0535 0)
(-0.0906474 10.0745 0)
(-0.115304 10.1028 0)
(-0.141585 10.1398 0)
(-0.168051 10.1867 0)
(-0.192838 10.2441 0)
(-0.213681 10.3123 0)
(-0.227175 10.3913 0)
(-0.232811 10.4778 0)
(-0.233416 10.5688 0)
(-0.229125 10.6629 0)
(-0.220205 10.758 0)
(-0.206999 10.8504 0)
(-0.189872 10.9343 0)
(-0.169069 10.9998 0)
(-0.144656 11.0318 0)
(-0.116985 11.0118 0)
(-0.0862201 10.9264 0)
(-0.0558125 10.7853 0)
(-0.0222021 10.5258 0)
(0.00527222 9.55283 0)
(0.000399717 10.0002 0)
(0.00114827 10.0015 0)
(0.00101835 10.0039 0)
(-0.000153708 10.0065 0)
(-0.00261308 10.0092 0)
(-0.0067779 10.012 0)
(-0.0131879 10.0151 0)
(-0.0223657 10.019 0)
(-0.0348155 10.0243 0)
(-0.0509599 10.0322 0)
(-0.0710139 10.0443 0)
(-0.0948077 10.0623 0)
(-0.121831 10.0879 0)
(-0.151332 10.1223 0)
(-0.181981 10.1667 0)
(-0.211981 10.2224 0)
(-0.239077 10.2898 0)
(-0.260699 10.3687 0)
(-0.27304 10.4589 0)
(-0.27589 10.5565 0)
(-0.2729 10.658 0)
(-0.264441 10.7618 0)
(-0.250989 10.8656 0)
(-0.233051 10.9659 0)
(-0.21107 11.0568 0)
(-0.185331 11.1286 0)
(-0.156299 11.1668 0)
(-0.12478 11.1529 0)
(-0.0907826 11.0768 0)
(-0.0572432 10.9467 0)
(-0.0243664 10.684 0)
(0.00425962 9.61286 0)
(0.000350873 10.0002 0)
(0.00102268 10.0014 0)
(0.000835651 10.0037 0)
(-0.000360722 10.0061 0)
(-0.00282706 10.0085 0)
(-0.00698986 10.0109 0)
(-0.0133991 10.0134 0)
(-0.0226128 10.0164 0)
(-0.0352006 10.0204 0)
(-0.051699 10.0265 0)
(-0.0725141 10.0359 0)
(-0.0977553 10.0506 0)
(-0.127032 10.0727 0)
(-0.159515 10.1039 0)
(-0.194139 10.1454 0)
(-0.229196 10.1984 0)
(-0.262469 10.2639 0)
(-0.291349 10.3422 0)
(-0.312987 10.4327 0)
(-0.323208 10.5347 0)
(-0.322233 10.6437 0)
(-0.314675 10.7555 0)
(-0.301179 10.8686 0)
(-0.282443 10.9806 0)
(-0.259116 11.0881 0)
(-0.231747 11.1852 0)
(-0.200943 11.2629 0)
(-0.167602 11.3065 0)
(-0.132719 11.2982 0)
(-0.0959971 11.2305 0)
(-0.0598038 11.1255 0)
(-0.0266847 10.853 0)
(0.00275874 9.68069 0)
(0.000308745 10.0002 0)
(0.000915347 10.0013 0)
(0.000680049 10.0035 0)
(-0.000533577 10.0058 0)
(-0.00299526 10.0079 0)
(-0.0071392 10.01 0)
(-0.0135185 10.012 0)
(-0.0227136 10.0141 0)
(-0.0353408 10.017 0)
(-0.05202 10.0214 0)
(-0.0733034 10.0285 0)
(-0.0995417 10.0399 0)
(-0.130687 10.0579 0)
(-0.166031 10.085 0)
(-0.20437 10.1229 0)
(-0.244269 10.1726 0)
(-0.283579 10.2354 0)
(-0.319681 10.3119 0)
(-0.349631 10.402 0)
(-0.37034 10.5046 0)
(-0.377327 10.6188 0)
(-0.371398 10.7391 0)
(-0.35826 10.8609 0)
(-0.338855 10.9827 0)
(-0.314102 11.1023 0)
(-0.284814 11.2161 0)
(-0.251823 11.319 0)
(-0.216114 11.4016 0)
(-0.178804 11.4497 0)
(-0.140737 11.4459 0)
(-0.101976 11.4036 0)
(-0.0632085 11.32 0)
(-0.0290685 11.016 0)
(0.00112461 9.75463 0)
(0.00027249 10.0002 0)
(0.000822856 10.0013 0)
(0.000546689 10.0034 0)
(-0.000677321 10.0055 0)
(-0.00312744 10.0074 0)
(-0.0072407 10.0092 0)
(-0.0135694 10.0107 0)
(-0.0227072 10.0121 0)
(-0.0353015 10.014 0)
(-0.0520316 10.0169 0)
(-0.0735585 10.0218 0)
(-0.100419 10.0303 0)
(-0.132865 10.0444 0)
(-0.170603 10.0665 0)
(-0.212541 10.0996 0)
(-0.257006 10.1453 0)
(-0.302143 10.2045 0)
(-0.345361 10.2782 0)
(-0.383643 10.3667 0)
(-0.41374 10.4694 0)
(-0.432399 10.5847 0)
(-0.434923 10.7111 0)
(-0.422857 10.8425 0)
(-0.40312 10.9738 0)
(-0.376967 11.1037 0)
(-0.345555 11.2299 0)
(-0.309972 11.3495 0)
(-0.271388 11.4571 0)
(-0.231012 11.5437 0)
(-0.189893 11.5948 0)
(-0.149392 11.6122 0)
(-0.108425 11.5942 0)
(-0.0668731 11.5089 0)
(-0.0313177 11.1728 0)
(-0.000458201 9.83261 0)
(0.000742628 10.0012 0)
(0.000229863 10.0002 0)
(0.000431281 10.0032 0)
(-0.000797604 10.0052 0)
(-0.00323102 10.007 0)
(-0.00730585 10.0084 0)
(-0.0135704 10.0095 0)
(-0.022624 10.0104 0)
(-0.0351338 10.0113 0)
(-0.0518197 10.0129 0)
(-0.0734205 10.016 0)
(-0.100614 10.0218 0)
(-0.133887 10.0322 0)
(-0.173313 10.0495 0)
(-0.218293 10.0766 0)
(-0.267233 10.1169 0)
(-0.317918 10.1717 0)
(-0.368068 10.2417 0)
(-0.414628 10.3274 0)
(-0.45421 10.4288 0)
(-0.483329 10.5447 0)
(-0.498674 10.673 0)
(-0.495423 10.8116 0)
(-0.476016 10.9536 0)
(-0.448697 11.0937 0)
(-0.415049 11.2308 0)
(-0.376531 11.3629 0)
(-0.334549 11.4871 0)
(-0.290496 11.5984 0)
(-0.245594 11.6875 0)
(-0.201864 11.7576 0)
(-0.158472 11.7958 0)
(-0.114502 11.7812 0)
(-0.0704718 11.6911 0)
(-0.0333379 11.3232 0)
(-0.0018996 9.91282 0)
(0.000330179 10.0031 0)
(0.000651083 10.0012 0)
(0.000179419 10.0002 0)
(-0.000899835 10.005 0)
(-0.00331223 10.0066 0)
(-0.00734337 10.0078 0)
(-0.0135355 10.0085 0)
(-0.0224877 10.0089 0)
(-0.0348775 10.009 0)
(-0.0514509 10.0094 0)
(-0.0730011 10.0107 0)
(-0.100309 10.0142 0)
(-0.13404 10.0213 0)
(-0.174562 10.0342 0)
(-0.221718 10.0556 0)
(-0.27449 10.0888 0)
(-0.330682 10.1374 0)
(-0.387498 10.2027 0)
(-0.442199 10.2847 0)
(-0.49129 10.3836 0)
(-0.531066 10.4987 0)
(-0.557904 10.6283 0)
(-0.568552 10.7695 0)
(-0.558169 10.9199 0)
(-0.53025 11.0718 0)
(-0.494455 11.22 0)
(-0.45273 11.3633 0)
(-0.406856 11.5002 0)
(-0.358477 11.628 0)
(-0.309039 11.7414 0)
(-0.261235 11.8487 0)
(-0.214307 11.9371 0)
(-0.166879 11.9765 0)
(-0.120047 11.9627 0)
(-0.0738056 11.8657 0)
(-0.0351032 11.4667 0)
(-0.00316858 9.99362 0)
(-0.000989919 10.0048 0)
(0.000224117 10.003 0)
(0.000538463 10.0011 0)
(0.000131167 10.0002 4.65579e-20)
(-0.00337711 10.0063 0)
(-0.00736039 10.0072 0)
(-0.0134752 10.0077 0)
(-0.022316 10.0075 0)
(-0.034563 10.0069 0)
(-0.050977 10.0063 0)
(-0.0723872 10.0061 0)
(-0.0996477 10.0074 0)
(-0.133558 10.0116 0)
(-0.174712 10.0204 0)
(-0.223312 10.0365 0)
(-0.27887 10.0629 0)
(-0.339846 10.1035 0)
(-0.403369 10.1618 0)
(-0.465984 10.2389 0)
(-0.524518 10.3341 0)
(-0.575079 10.4471 0)
(-0.613731 10.5766 0)
(-0.636833 10.7201 0)
(-0.641322 10.874 0)
(-0.622456 11.0356 0)
(-0.584932 11.1967 0)
(-0.539911 11.3518 0)
(-0.489703 11.5002 0)
(-0.436347 11.6408 0)
(-0.381586 11.7707 0)
(-0.328811 11.9019 0)
(-0.277389 12.0263 0)
(-0.225685 12.1137 0)
(-0.174479 12.1528 0)
(-0.124956 12.1374 0)
(-0.0767692 12.032 0)
(-0.0365934 11.6032 0)
(-0.00430541 10.0736 0)
(-0.00343523 10.006 0)
(-0.00106943 10.0045 0)
(0.000101155 10.0028 2.11872e-19)
(0.000428933 10.001 -1.47608e-19)
(8.52112e-05 10.0001 -9.1384e-20)
(-0.00736411 10.0068 0)
(-0.0133976 10.0069 0)
(-0.0221219 10.0063 0)
(-0.0342132 10.0051 0)
(-0.0504374 10.0035 0)
(-0.0716458 10.002 0)
(-0.0987424 10.0015 0)
(-0.132624 10.0029 0)
(-0.174057 10.0081 0)
(-0.223525 10.0193 0)
(-0.280973 10.0394 0)
(-0.345485 10.072 0)
(-0.414928 10.1211 0)
(-0.485625 10.1906 0)
(-0.553443 10.2809 0)
(-0.614821 10.3905 0)
(-0.665545 10.5185 0)
(-0.701568 10.6627 0)
(-0.719362 10.82 0)
(-0.7162 10.9863 0)
(-0.687554 11.1583 0)
(-0.639461 11.3275 0)
(-0.584634 11.4883 0)
(-0.525673 11.6407 0)
(-0.464764 11.7834 0)
(-0.406141 11.9309 0)
(-0.349176 12.0788 0)
(-0.292063 12.201 0)
(-0.23587 12.286 0)
(-0.181175 12.3229 0)
(-0.129186 12.3043 0)
(-0.0793097 12.1898 0)
(-0.0377986 11.7325 0)
(-0.0052987 10.1518 0)
(-0.00736869 10.0063 0)
(-0.00345308 10.0056 -4.78583e-19)
(-0.00114873 10.0042 -2.23888e-19)
(-1.59147e-05 10.0026 1.03985e-19)
(0.000323455 10.001 -9.65557e-20)
(4.10458e-05 10.0001 0)
(-0.013311 10.0062 0)
(-0.0219148 10.0052 0)
(-0.0338444 10.0035 0)
(-0.0498619 10.0011 0)
(-0.070828 9.99842 0)
(-0.0976796 9.99615 0)
(-0.131382 9.99525 0)
(-0.172829 9.99718 0)
(-0.222722 10.004 0)
(-0.281352 10.0182 0)
(-0.34832 10.0434 0)
(-0.422213 10.0833 0)
(-0.500165 10.1424 0)
(-0.577616 10.2245 0)
(-0.649754 10.3294 0)
(-0.712716 10.4544 0)
(-0.762072 10.598 0)
(-0.793798 10.7572 0)
(-0.80464 10.928 0)
(-0.792356 11.1059 0)
(-0.752738 11.2872 0)
(-0.693275 11.4632 0)
(-0.628208 11.6286 0)
(-0.560321 11.7833 0)
(-0.494906 11.9437 0)
(-0.431407 12.1077 0)
(-0.367635 12.2529 0)
(-0.305139 12.3714 0)
(-0.244778 12.4524 0)
(-0.186926 12.486 0)
(-0.132731 12.4631 0)
(-0.0814205 12.3389 0)
(-0.0387384 11.8546 0)
(-0.00615026 10.2273 0)
(-0.0132369 10.0056 0)
(-0.0072871 10.0058 1.01135e-18)
(-0.00343058 10.0051 0)
(-0.00122208 10.0039 2.19679e-19)
(-0.000126246 10.0024 4.1265e-23)
(0.00022167 10.0009 0)
(-2.07595e-06 10.0001 0)
(-0.021704 10.0043 0)
(-0.0334678 10.0021 0)
(-0.0492712 9.99893 0)
(-0.0699725 9.99523 0)
(-0.0965254 9.99145 0)
(-0.129942 9.98843 0)
(-0.17121 9.98743 0)
(-0.221193 9.99022 0)
(-0.280456 9.99919 0)
(-0.349018 10.0174 0)
(-0.426073 10.0487 0)
(-0.509577 10.0974 0)
(-0.595833 10.168 0)
(-0.679326 10.2642 0)
(-0.754606 10.3849 0)
(-0.81763 10.5262 0)
(-0.863885 10.6858 0)
(-0.889534 10.8598 0)
(-0.891758 11.0437 0)
(-0.86894 11.2322 0)
(-0.817297 11.4217 0)
(-0.745826 11.6031 0)
(-0.670219 11.7713 0)
(-0.597067 11.944 0)
(-0.525914 12.1209 0)
(-0.454289 12.282 0)
(-0.384064 12.4228 0)
(-0.316552 12.5362 0)
(-0.252394 12.6122 0)
(-0.191746 12.6414 0)
(-0.135625 12.6133 0)
(-0.0831224 12.4792 0)
(-0.0394444 11.9694 0)
(-0.00686804 10.2995 0)
(-0.0215222 10.0035 0)
(-0.0130104 10.0049 6.17425e-23)
(-0.00709689 10.0052 0)
(-0.00340374 10.0047 -2.32123e-19)
(-0.0012867 10.0036 3.09404e-23)
(-0.000230044 10.0023 0)
(0.00012493 10.0008 0)
(-4.17772e-05 10.0001 0)
(-0.033094 10.0008 0)
(-0.0486787 9.99703 0)
(-0.0691055 9.9924 0)
(-0.0953293 9.98729 0)
(-0.12839 9.98239 0)
(-0.169339 9.97878 0)
(-0.219167 9.97799 0)
(-0.278644 9.98216 0)
(-0.348125 9.99411 0)
(-0.427306 10.0174 0)
(-0.514843 10.0561 0)
(-0.607956 10.115 0)
(-0.702027 10.1986 0)
(-0.790544 10.3104 0)
(-0.867491 10.448 0)
(-0.928809 10.6064 0)
(-0.970072 10.7821 0)
(-0.987802 10.9706 0)
(-0.979772 11.1666 0)
(-0.945113 11.3645 0)
(-0.880543 11.5607 0)
(-0.79659 11.7458 0)
(-0.714814 11.9324 0)
(-0.634899 12.1219 0)
(-0.554013 12.2958 0)
(-0.474647 12.4522 0)
(-0.398407 12.5872 0)
(-0.326306 12.6944 0)
(-0.258757 12.7647 0)
(-0.195681 12.7888 0)
(-0.137917 12.755 0)
(-0.084448 12.6109 0)
(-0.0399479 12.0769 0)
(-0.00746355 10.368 0)
(-0.0327714 9.99968 0)
(-0.0210945 10.0026 -5.64534e-19)
(-0.0125671 10.0041 0)
(-0.00690408 10.0046 0)
(-0.00336496 10.0043 6.83394e-19)
(-0.00134245 10.0033 0)
(-0.000327227 10.0021 0)
(3.11473e-05 10.0008 1.82552e-19)
(-7.89763e-05 10.0001 0)
(-0.0480966 9.99535 0)
(-0.0682435 9.9899 0)
(-0.0941251 9.98361 0)
(-0.126788 9.97704 0)
(-0.167327 9.97109 0)
(-0.21682 9.9671 0)
(-0.276199 9.96696 0)
(-0.346082 9.9732 0)
(-0.426568 9.98907 0)
(-0.516904 10.0185 0)
(-0.615107 10.0661 0)
(-0.717562 10.1368 0)
(-0.818658 10.235 0)
(-0.910858 10.3638 0)
(-0.98771 10.5193 0)
(-1.04534 10.6951 0)
(-1.07961 10.8868 0)
(-1.08757 11.0891 0)
(-1.06773 11.2962 0)
(-1.02007 11.5022 0)
(-0.941829 11.7032 0)
(-0.850571 11.9075 0)
(-0.760788 12.1114 0)
(-0.669221 12.2979 0)
(-0.579035 12.467 0)
(-0.492432 12.6171 0)
(-0.410681 12.7452 0)
(-0.334462 12.8454 0)
(-0.263947 12.9095 0)
(-0.198799 12.9281 0)
(-0.139663 12.8881 0)
(-0.0854358 12.7342 0)
(-0.0402788 12.1774 0)
(-0.00795008 10.4328 0)
(-0.0475948 9.99387 0)
(-0.0320747 9.99844 0)
(-0.0202912 10.0015 -5.58134e-19)
(-0.0121261 10.0033 -5.18337e-19)
(-0.00669476 10.004 -9.62792e-19)
(-0.00331324 10.0039 0)
(-0.00138901 10.0031 -4.15303e-19)
(-0.000417624 10.0019 -3.85772e-19)
(-5.82633e-05 10.0007 1.7916e-19)
(-0.000115075 10.0001 0)
(-0.0674005 9.98768 0)
(-0.0929329 9.98034 0)
(-0.12518 9.97229 0)
(-0.165252 9.96428 0)
(-0.214289 9.95743 0)
(-0.273343 9.95342 0)
(-0.343235 9.9545 0)
(-0.42439 9.96364 0)
(-0.516539 9.98455 0)
(-0.618381 10.0216 0)
(-0.727191 10.0796 0)
(-0.83843 10.1637 0)
(-0.945427 10.2781 0)
(-1.03965 10.425 0)
(-1.11439 10.5992 0)
(-1.1662 10.7926 0)
(-1.1914 10.9998 0)
(-1.18776 11.215 0)
(-1.15469 11.4317 0)
(-1.09302 11.644 0)
(-1.00725 11.8653 0)
(-0.906365 12.0876 0)
(-0.802567 12.2889 0)
(-0.69982 12.4705 0)
(-0.600919 12.6329 0)
(-0.507675 12.7757 0)
(-0.420972 12.8961 0)
(-0.341127 12.989 0)
(-0.268061 13.0464 0)
(-0.201183 13.0591 0)
(-0.140925 13.0128 0)
(-0.0861254 12.8493 0)
(-0.0404653 12.271 0)
(-0.00834101 10.4936 0)
(-0.0666758 9.98572 0)
(-0.0465471 9.99225 -6.31064e-19)
(-0.0307781 9.99707 5.89683e-19)
(-0.0194998 10.0005 -2.01437e-22)
(-0.011663 10.0025 5.08628e-19)
(-0.00646768 10.0034 4.72452e-19)
(-0.00324787 10.0035 8.77629e-19)
(-0.00142676 10.0028 6.11369e-19)
(-0.000501396 10.0018 -1.89312e-19)
(-0.000141858 10.0007 0)
(-0.000149626 10.0001 0)
(-0.0917695 9.97745 0)
(-0.123591 9.96809 0)
(-0.163171 9.95823 0)
(-0.211677 9.94884 0)
(-0.270246 9.94137 0)
(-0.339859 9.93782 0)
(-0.421197 9.94086 0)
(-0.514384 9.95393 0)
(-0.618691 9.98115 0)
(-0.732168 10.0273 0)
(-0.851251 10.0974 0)
(-0.970389 10.1965 0)
(-1.08183 10.3285 0)
(-1.17613 10.4948 0)
(-1.24651 10.6881 0)
(-1.29023 10.8988 0)
(-1.30429 11.1208 0)
(-1.28734 11.3476 0)
(-1.23973 11.5723 0)
(-1.17128 11.8062 0)
(-1.07518 12.0468 0)
(-0.957235 12.267 0)
(-0.839876 12.4633 0)
(-0.726616 12.6381 0)
(-0.61971 12.7928 0)
(-0.520483 12.9274 0)
(-0.42941 13.0397 0)
(-0.346433 13.1248 0)
(-0.271212 13.1753 0)
(-0.202915 13.1819 0)
(-0.141765 13.1293 0)
(-0.0865581 12.9564 0)
(-0.0405321 12.3581 0)
(-0.00864932 10.5504 0)
(-0.0907729 9.97489 0)
(-0.0651784 9.98361 -7.1604e-22)
(-0.0445934 9.99049 0)
(-0.0295099 9.99575 -3.48946e-22)
(-0.0186793 9.99947 0)
(-0.0111733 10.0018 -4.99181e-19)
(-0.00622062 10.0029 -9.27342e-19)
(-0.00317075 10.0031 -6.13234e-24)
(-0.0014555 10.0026 3.9999e-19)
(-0.000577995 10.0016 -1.85786e-19)
(-0.000222379 10.0006 1.7258e-19)
(-0.000180757 10.0001 0)
(-0.122041 9.96436 0)
(-0.161114 9.95286 0)
(-0.209052 9.94122 0)
(-0.267037 9.93065 0)
(-0.336166 9.92295 0)
(-0.417322 9.9205 0)
(-0.51095 9.92643 0)
(-0.616789 9.94462 0)
(-0.733552 9.97962 0)
(-0.85854 10.0365 0)
(-0.987245 10.1205 0)
(-1.11306 10.2363 0)
(-1.22717 10.3872 0)
(-1.3193 10.5735 0)
(-1.38292 10.7861 0)
(-1.41624 11.0137 0)
(-1.41712 11.2495 0)
(-1.38524 11.4861 0)
(-1.33143 11.7341 0)
(-1.25296 11.9891 0)
(-1.1374 12.2285 0)
(-1.00285 12.4439 0)
(-0.872639 12.6332 0)
(-0.749666 12.7998 0)
(-0.635534 12.9459 0)
(-0.531016 13.0717 0)
(-0.436153 13.1756 0)
(-0.35052 13.2528 0)
(-0.273515 13.2964 0)
(-0.204083 13.2968 0)
(-0.142246 13.238 0)
(-0.0867729 13.0561 0)
(-0.0405015 12.439 0)
(-0.00888717 10.6035 0)
(-0.120719 9.96105 0)
(-0.0887074 9.97219 7.04821e-19)
(-0.0623667 9.98138 -6.59669e-19)
(-0.0426936 9.98881 6.1172e-19)
(-0.0282044 9.99448 0)
(-0.0178209 9.99851 0)
(-0.0106574 10.0011 4.89907e-19)
(-0.00595537 10.0024 -4.55013e-19)
(-0.00308019 10.0027 1.15888e-24)
(-0.00147477 10.0023 1.96321e-19)
(-0.000647455 10.0015 -1.82365e-19)
(-0.000299477 10.0006 -1.69375e-19)
(-0.000209404 10.0001 0)
(-0.159108 9.9481 0)
(-0.206454 9.93444 0)
(-0.263805 9.92113 0)
(-0.332317 9.90971 0)
(-0.413028 9.90232 0)
(-0.506642 9.90181 0)
(-0.613285 9.91174 0)
(-0.732223 9.93644 0)
(-0.861508 9.98085 0)
(-0.997582 10.0503 0)
(-1.13493 10.1498 0)
(-1.26586 10.2838 0)
(-1.38055 10.4549 0)
(-1.46805 10.6618 0)
(-1.52236 10.8934 0)
(-1.54297 11.137 0)
(-1.52875 11.3849 0)
(-1.49147 11.6467 0)
(-1.42771 11.9178 0)
(-1.32819 12.1733 0)
(-1.19347 12.4087 0)
(-1.04308 12.6168 0)
(-0.900923 12.7974 0)
(-0.76912 12.9549 0)
(-0.648583 13.0917 0)
(-0.539467 13.2085 0)
(-0.441377 13.3037 0)
(-0.353534 13.3731 0)
(-0.275081 13.4097 0)
(-0.204768 13.4041 0)
(-0.142423 13.3391 0)
(-0.0868069 13.1487 0)
(-0.0403928 12.5139 0)
(-0.0090658 10.6528 0)
(-0.157406 9.94388 0)
(-0.117947 9.95761 0)
(-0.0847929 9.96938 6.96725e-19)
(-0.0596451 9.97925 -1.29513e-18)
(-0.0407461 9.98719 1.20203e-18)
(-0.0268464 9.99326 -1.11581e-18)
(-0.0169248 9.9976 0)
(-0.010115 10.0004 4.80929e-19)
(-0.00567363 10.0019 -4.46562e-19)
(-0.0029772 10.0023 -4.1485e-19)
(-0.00148525 10.0021 0)
(-0.000711152 10.0014 1.78983e-19)
(-0.000370474 10.0005 0)
(-0.000235487 10.0001 0)
(-0.20392 9.92843 0)
(-0.260596 9.91266 0)
(-0.32842 9.89793 0)
(-0.408515 9.88612 0)
(-0.50178 9.87979 0)
(-0.608665 9.88223 0)
(-0.728898 9.89748 0)
(-0.861174 9.93026 0)
(-1.00277 9.98584 0)
(-1.14919 10.0696 0)
(-1.29385 10.1864 0)
(-1.42801 10.3401 0)
(-1.54091 10.5321 0)
(-1.62114 10.7598 0)
(-1.66357 11.0099 0)
(-1.66918 11.2682 0)
(-1.6507 11.5434 0)
(-1.60379 11.8306 0)
(-1.517 12.1042 0)
(-1.39639 12.357 0)
(-1.24316 12.5855 0)
(-1.07796 12.7845 0)
(-0.924904 12.9553 0)
(-0.785212 13.1028 0)
(-0.659087 13.23 0)
(-0.546048 13.3376 0)
(-0.445259 13.4242 0)
(-0.355615 13.4858 0)
(-0.276019 13.5155 0)
(-0.205048 13.504 0)
(-0.142348 13.4331 0)
(-0.0866925 13.2346 0)
(-0.0402229 12.5833 0)
(-0.00919456 10.6986 0)
(-0.201781 9.92309 0)
(-0.153767 9.93953 0)
(-0.112639 9.95408 0)
(-0.0810228 9.9667 1.36782e-18)
(-0.0568657 9.97722 -1.26972e-18)
(-0.038729 9.98566 1.1787e-18)
(-0.0254375 9.99211 0)
(-0.0159933 9.99673 -5.08092e-19)
(-0.00954827 9.99975 0)
(-0.00537362 10.0014 4.3831e-19)
(-0.00286221 10.002 0)
(-0.00148632 10.0019 0)
(-0.000769008 10.0013 0)
(-0.000435612 10.0005 1.73995e-19)
(-0.000258605 10.0001 8.49807e-20)
(-0.257462 9.90514 0)
(-0.324537 9.88745 0)
(-0.403916 9.87168 0)
(-0.49661 9.86013 0)
(-0.603317 9.8558 0)
(-0.724159 9.86242 0)
(-0.858374 9.88448 0)
(-1.00397 9.92709 0)
(-1.15736 9.99569 0)
(-1.31304 10.0956 0)
(-1.46336 10.2314 0)
(-1.59854 10.4059 0)
(-1.70706 10.6195 0)
(-1.77728 10.8678 0)
(-1.8052 11.1353 0)
(-1.80812 11.4233 0)
(-1.78066 11.7267 0)
(-1.70878 12.019 0)
(-1.59854 12.2915 0)
(-1.45722 12.5384 0)
(-1.28645 12.7578 0)
(-1.10766 12.9462 0)
(-0.944843 13.1061 0)
(-0.798228 13.2433 0)
(-0.667302 13.3606 0)
(-0.550976 13.4589 0)
(-0.447976 13.5371 0)
(-0.356899 13.5911 0)
(-0.276428 13.6142 0)
(-0.204993 13.5969 0)
(-0.142068 13.5203 0)
(-0.0864587 13.3142 0)
(-0.0400055 12.6475 0)
(-0.00928152 10.7411 0)
(-0.254836 9.89846 0)
(-0.197095 9.91764 0)
(-0.146728 9.93514 1.56283e-18)
(-0.107551 9.95074 1.4498e-18)
(-0.0771826 9.96416 1.34504e-18)
(-0.0539961 9.97531 -1.24792e-18)
(-0.0366444 9.98422 0)
(-0.0239808 9.99102 0)
(-0.0150283 9.99592 0)
(-0.00895786 9.99914 9.26621e-19)
(-0.00505732 10.001 4.30256e-19)
(-0.00273642 10.0017 3.9961e-19)
(-0.00147795 10.0017 0)
(-0.000818513 10.0011 -1.8385e-19)
(-0.000494089 10.0004 -8.98218e-20)
(-0.00027904 10 0)
(-0.320741 9.87812 0)
(-0.399309 9.85882 0)
(-0.491295 9.84259 0)
(-0.59754 9.83215 0)
(-0.718469 9.83094 0)
(-0.853791 9.84317 0)
(-1.00214 9.87375 0)
(-1.16076 9.92806 0)
(-1.32509 10.0116 0)
(-1.48861 10.1295 0)
(-1.6426 10.2857 0)
(-1.77636 10.482 0)
(-1.87776 10.7175 0)
(-1.9351 10.9856 0)
(-1.96242 11.2854 0)
(-1.95749 11.6047 0)
(-1.90325 11.9164 0)
(-1.80548 12.2099 0)
(-1.67187 12.4778 0)
(-1.51063 12.7162 0)
(-1.32353 12.9245 0)
(-1.13248 13.1011 0)
(-0.961057 13.2496 0)
(-0.808472 13.376 0)
(-0.673492 13.4834 0)
(-0.554464 13.5727 0)
(-0.449694 13.6426 0)
(-0.357511 13.6893 0)
(-0.276398 13.7061 0)
(-0.204664 13.6832 0)
(-0.141624 13.6013 0)
(-0.0861303 13.3879 0)
(-0.0397515 12.7069 0)
(-0.00933487 10.7804 0)