/*--------------------------------*- C++ -*----------------------------------*\
  =========                 |
  \\      /  F ield         | OpenFOAM: The Open Source CFD Toolbox
   \\    /   O peration     | Website:  https://openfoam.org
    \\  /    A nd           | Version:  8
     \\/     M anipulation  |
\*---------------------------------------------------------------------------*/
FoamFile
{
    version     2.0;
    format      ascii;
    class       volScalarField;
    location    "0.14";
    object      k;
}
// * * * * * * * * * * * * * * * * * * * * * * * * * * * * * * * * * * * * * //

dimensions      [0 2 -2 0 0 0 0];

internalField   nonuniform List<scalar> 
15677
(
0.333995
0.364683
0.294341
0.368614
0.357025
0.280635
0.370641
0.359746
0.36565
0.282425
0.371857
0.361481
0.36118
0.383043
0.288666
0.372597
0.363665
0.357593
0.36812
0.40154
0.300175
0.373032
0.365621
0.357773
0.358026
0.379981
0.419304
0.311717
0.373261
0.36716
0.359421
0.354514
0.360944
0.393229
0.434716
0.322556
0.373349
0.368292
0.361332
0.354727
0.353005
0.366847
0.406123
0.447856
0.332054
0.37335
0.369074
0.36305
0.35631
0.351086
0.353457
0.373524
0.418254
0.458709
0.340458
0.373315
0.369563
0.364433
0.358199
0.351906
0.348762
0.35476
0.380681
0.429082
0.467875
0.34754
0.373275
0.369822
0.365457
0.359947
0.3537
0.348365
0.347132
0.357106
0.387646
0.438826
0.475385
0.353771
0.373249
0.369925
0.366145
0.361387
0.355653
0.349751
0.345344
0.346316
0.359703
0.394451
0.447242
0.481821
0.358962
0.373238
0.369939
0.366546
0.362471
0.357418
0.35171
0.346198
0.34292
0.345887
0.362616
0.400695
0.454729
0.48712
0.363617
0.373237
0.369921
0.366734
0.363205
0.358853
0.353673
0.348064
0.343085
0.34086
0.345905
0.365481
0.406578
0.461075
0.491703
0.367675
0.373238
0.369906
0.366792
0.363631
0.359912
0.355383
0.35015
0.344742
0.340288
0.339192
0.346043
0.368401
0.411765
0.466703
0.495497
0.371266
0.373238
0.369899
0.366792
0.36383
0.360605
0.356731
0.352082
0.346872
0.341693
0.337813
0.337745
0.346382
0.371088
0.416565
0.471377
0.498853
0.374556
0.373238
0.369897
0.366782
0.363888
0.360987
0.357686
0.353684
0.34897
0.343826
0.338914
0.33558
0.33653
0.346785
0.373729
0.420637
0.475497
0.50175
0.377354
0.373238
0.369896
0.366773
0.363896
0.361135
0.358273
0.354884
0.350789
0.346055
0.341006
0.336371
0.333581
0.335463
0.347307
0.376014
0.424323
0.478893
0.504302
0.380192
0.373237
0.369896
0.366768
0.363892
0.361179
0.358543
0.355676
0.352215
0.348064
0.343332
0.338409
0.33405
0.331775
0.334583
0.347754
0.378172
0.42733
0.481867
0.506675
0.382397
0.373237
0.369896
0.366763
0.363887
0.361183
0.358648
0.356075
0.353213
0.349695
0.345504
0.340816
0.33602
0.33194
0.330174
0.333795
0.348244
0.379925
0.430016
0.484322
0.508701
0.385031
0.373236
0.369895
0.36676
0.363883
0.361176
0.358682
0.356249
0.353758
0.350883
0.347325
0.343138
0.338494
0.33385
0.33004
0.328751
0.333138
0.348619
0.381539
0.432095
0.486455
0.510833
0.386781
0.373236
0.369895
0.366758
0.363879
0.361168
0.358687
0.356312
0.354022
0.351565
0.348701
0.345136
0.340952
0.336395
0.331896
0.328363
0.327512
0.332563
0.348988
0.382743
0.433963
0.488238
0.512523
0.38939
0.373236
0.369895
0.366756
0.363877
0.36116
0.358683
0.356327
0.354138
0.35191
0.349533
0.346685
0.343114
0.338992
0.334516
0.330188
0.326902
0.326462
0.332086
0.349254
0.383863
0.435291
0.489819
0.514667
0.390807
0.373236
0.369894
0.366755
0.363874
0.361154
0.358676
0.356322
0.35418
0.35207
0.349984
0.347647
0.344836
0.341327
0.337252
0.332897
0.328723
0.325703
0.325615
0.33174
0.349508
0.38459
0.436563
0.491115
0.516099
0.393419
0.373236
0.369894
0.366755
0.363872
0.361149
0.358669
0.356312
0.354188
0.35213
0.350214
0.348179
0.345951
0.343222
0.339743
0.335787
0.33156
0.327582
0.324771
0.324989
0.331444
0.349691
0.385324
0.43733
0.492482
0.518624
0.394784
0.373237
0.369893
0.366754
0.36387
0.361146
0.358662
0.356302
0.354182
0.352144
0.350317
0.348454
0.346603
0.34446
0.341803
0.338485
0.334647
0.330565
0.326708
0.324107
0.324595
0.331426
0.349952
0.385752
0.438256
0.493369
0.520268
0.504451
0.373237
0.369893
0.366754
0.363868
0.361143
0.358657
0.356292
0.354171
0.352137
0.350351
0.348578
0.346966
0.345183
0.343209
0.340762
0.337514
0.333806
0.329886
0.326296
0.323921
0.324626
0.331518
0.35018
0.386231
0.438692
0.495359
0.528963
0.710348
0.373237
0.369892
0.366754
0.363867
0.361141
0.358652
0.356285
0.354158
0.352123
0.350352
0.348622
0.347148
0.345584
0.344082
0.342294
0.339925
0.336965
0.333564
0.329898
0.326388
0.324071
0.324838
0.331764
0.350496
0.386586
0.439594
0.495923
0.54573
0.885345
0.373237
0.369892
0.366754
0.363866
0.36114
0.358648
0.356279
0.354148
0.352108
0.350338
0.348626
0.347221
0.345784
0.344603
0.343217
0.341672
0.339782
0.337056
0.333777
0.330202
0.326788
0.324527
0.325337
0.332265
0.35094
0.386995
0.440272
0.495633
0.558525
1.02672
0.373238
0.369891
0.366754
0.363864
0.361139
0.358645
0.356274
0.354138
0.352095
0.350319
0.348611
0.347236
0.345868
0.344885
0.343755
0.342827
0.341747
0.340041
0.337511
0.334421
0.330981
0.327674
0.325455
0.326287
0.333088
0.35153
0.38761
0.440017
0.494141
0.567968
1.14887
0.373238
0.369891
0.366754
0.363863
0.361138
0.358642
0.35627
0.354131
0.352084
0.3503
0.34859
0.34722
0.345891
0.345011
0.344043
0.343552
0.342992
0.342177
0.340779
0.338535
0.335734
0.332491
0.329244
0.326972
0.327644
0.334234
0.352381
0.388088
0.439105
0.490995
0.574428
1.24762
0.373238
0.369891
0.366754
0.363863
0.361138
0.358639
0.356267
0.354124
0.352074
0.350284
0.34857
0.347194
0.345881
0.345044
0.344184
0.343973
0.34378
0.343572
0.343169
0.342265
0.34044
0.337886
0.334747
0.331475
0.329032
0.32946
0.335743
0.353421
0.38844
0.437203
0.485616
0.578606
1.32018
0.373238
0.36989
0.366754
0.363862
0.361137
0.358637
0.356265
0.354118
0.352066
0.350271
0.348551
0.347166
0.345855
0.345031
0.344244
0.344188
0.344248
0.344472
0.344797
0.345066
0.344687
0.343222
0.34088
0.337798
0.334394
0.331707
0.331744
0.337625
0.354657
0.38839
0.433983
0.478855
0.581243
1.37519
0.373238
0.36989
0.366754
0.363861
0.361137
0.358635
0.356263
0.354113
0.35206
0.350259
0.348534
0.347141
0.345826
0.344999
0.34425
0.344268
0.344499
0.345025
0.345887
0.346987
0.347919
0.348096
0.346981
0.344815
0.341689
0.338078
0.334998
0.334533
0.339872
0.356008
0.388109
0.429687
0.472098
0.583485
1.41862
0.36989
0.373242
0.366755
0.36386
0.361137
0.358633
0.356261
0.354109
0.352054
0.350248
0.34852
0.347119
0.345798
0.344962
0.344227
0.344284
0.344613
0.345341
0.346587
0.348303
0.35019
0.351865
0.352617
0.351832
0.349753
0.346507
0.342538
0.338958
0.337797
0.342466
0.357634
0.38745
0.425252
0.465745
0.585755
1.45438
0.366755
0.3699
0.37325
0.36386
0.361137
0.358632
0.35626
0.354105
0.35205
0.350239
0.348508
0.347099
0.345772
0.344928
0.344193
0.344267
0.344652
0.34551
0.347019
0.349184
0.351797
0.354577
0.35705
0.358387
0.357859
0.355792
0.35227
0.347833
0.343545
0.341543
0.345723
0.35965
0.386594
0.420867
0.460027
0.588436
1.48504
0.363859
0.366772
0.36992
0.373258
0.361137
0.35863
0.356259
0.354101
0.352046
0.350231
0.348497
0.347083
0.34575
0.344897
0.344158
0.344237
0.344652
0.34559
0.347282
0.349769
0.352925
0.356563
0.36032
0.363637
0.365516
0.365175
0.362962
0.359047
0.35392
0.34878
0.346204
0.349687
0.361835
0.385736
0.416847
0.455028
0.591446
1.51212
0.361136
0.363881
0.366805
0.369942
0.373266
0.358629
0.356258
0.354098
0.352043
0.350224
0.348489
0.347068
0.34573
0.344869
0.344126
0.344205
0.344634
0.345623
0.347439
0.350162
0.353725
0.358022
0.362795
0.367604
0.37176
0.374137
0.373824
0.371343
0.366797
0.360824
0.355259
0.352045
0.353985
0.364199
0.385015
0.41313
0.450721
0.594929
1.53667
0.358628
0.361164
0.363925
0.36684
0.369963
0.373274
0.356258
0.354095
0.35204
0.350218
0.348481
0.347055
0.345713
0.344846
0.344097
0.344175
0.344612
0.345632
0.347533
0.350437
0.354312
0.359122
0.364697
0.370707
0.376593
0.381578
0.384312
0.383905
0.380897
0.375553
0.369337
0.3633
0.358473
0.358574
0.366719
0.38446
0.409813
0.447083
0.598645
1.55922
0.356257
0.358659
0.36122
0.363971
0.366876
0.369986
0.373282
0.354093
0.352038
0.350212
0.348475
0.347044
0.345699
0.344825
0.344072
0.344148
0.344591
0.345633
0.347595
0.350637
0.35477
0.359992
0.366213
0.373195
0.380493
0.387474
0.393177
0.396163
0.395382
0.391672
0.386326
0.379862
0.372105
0.365392
0.363419
0.369434
0.384229
0.406886
0.444005
0.602702
1.58027
0.354091
0.356293
0.358722
0.361277
0.364018
0.366913
0.370009
0.373291
0.352037
0.350207
0.34847
0.347033
0.345687
0.344807
0.34405
0.344125
0.344571
0.345631
0.347641
0.350791
0.355141
0.360726
0.367489
0.375282
0.383753
0.392386
0.400366
0.406708
0.409659
0.408321
0.404918
0.399619
0.391349
0.381555
0.372713
0.368464
0.372259
0.384305
0.404401
0.441382
0.606818
1.59992
0.352035
0.354128
0.356366
0.358788
0.361336
0.364066
0.366951
0.370032
0.3733
0.350202
0.348466
0.347024
0.345676
0.344791
0.344031
0.344105
0.344554
0.34563
0.34768
0.350921
0.355451
0.361361
0.368629
0.377129
0.38661
0.39665
0.406548
0.415469
0.422161
0.424902
0.424225
0.421253
0.414109
0.403651
0.391533
0.38035
0.37369
0.375123
0.384543
0.402289
0.439208
0.611141
1.61849
0.350198
0.352077
0.354207
0.356442
0.358855
0.361396
0.364115
0.366989
0.370057
0.373309
0.348462
0.347016
0.345667
0.344777
0.344014
0.344087
0.34454
0.345629
0.347715
0.351036
0.355722
0.361915
0.369663
0.378857
0.389248
0.400534
0.412099
0.423233
0.432813
0.439697
0.44367
0.443857
0.439047
0.429603
0.416611
0.40192
0.38822
0.379067
0.378026
0.38502
0.40055
0.437378
0.615381
1.63587
0.34846
0.350239
0.352163
0.354288
0.35652
0.358925
0.361458
0.364166
0.367029
0.370082
0.373318
0.347008
0.34566
0.344765
0.344
0.344072
0.344528
0.34563
0.347747
0.35114
0.355967
0.362412
0.370594
0.380479
0.391805
0.404254
0.417334
0.430428
0.44251
0.452616
0.461413
0.466956
0.465288
0.458071
0.445899
0.430074
0.412601
0.396244
0.384534
0.380961
0.385684
0.399097
0.435889
0.619729
1.65238
0.347002
0.348503
0.350327
0.352253
0.354371
0.3566
0.358996
0.361522
0.364219
0.36707
0.370107
0.373328
0.345654
0.344754
0.343988
0.344059
0.344518
0.345631
0.347777
0.351236
0.35619
0.362866
0.371445
0.381972
0.394272
0.407973
0.422508
0.437431
0.451763
0.464689
0.477283
0.488558
0.49253
0.488261
0.478089
0.462807
0.443886
0.423458
0.404344
0.390035
0.383928
0.386525
0.397961
0.434656
0.623896
1.6678
0.34565
0.34704
0.348595
0.350417
0.352344
0.354457
0.356682
0.359069
0.361588
0.364272
0.367112
0.370134
0.373337
0.344743
0.343977
0.344048
0.34451
0.345633
0.347805
0.351323
0.356394
0.363283
0.372229
0.383355
0.396588
0.411651
0.427814
0.44455
0.461032
0.476545
0.49253
0.508394
0.518601
0.520139
0.512544
0.498884
0.480133
0.457894
0.434384
0.412448
0.395526
0.386896
0.387409
0.397078
0.433684
0.628112
1.68247
0.344734
0.345688
0.347125
0.34869
0.35051
0.352439
0.354545
0.356766
0.359145
0.361655
0.364328
0.367155
0.370161
0.373347
0.343967
0.344038
0.344502
0.345635
0.347831
0.351404
0.356581
0.363666
0.372954
0.384641
0.398763
0.41516
0.433166
0.452032
0.470704
0.488751
0.50794
0.528039
0.543172
0.551307
0.549506
0.537885
0.520227
0.497694
0.471959
0.445281
0.420493
0.400963
0.389883
0.388336
0.396408
0.43289
0.632082
1.69612
0.343959
0.34476
0.345769
0.347213
0.348789
0.350607
0.352537
0.354637
0.356853
0.359222
0.361724
0.364384
0.367198
0.370187
0.373356
0.34403
0.344496
0.345638
0.347854
0.351477
0.356752
0.364017
0.373622
0.385837
0.400807
0.418493
0.43835
0.459746
0.481097
0.501805
0.52425
0.548536
0.568246
0.581464
0.58643
0.580358
0.564028
0.541916
0.515322
0.485956
0.456062
0.428421
0.406314
0.392858
0.389299
0.39591
0.432293
0.636069
1.70912
0.344025
0.343971
0.34482
0.345853
0.347305
0.348891
0.350706
0.352637
0.35473
0.356943
0.359302
0.361795
0.364442
0.367242
0.370213
0.373365
0.344489
0.345639
0.347876
0.351544
0.356908
0.364339
0.374237
0.386947
0.402722
0.42165
0.443341
0.467356
0.492
0.516142
0.542156
0.570927
0.595242
0.613174
0.623129
0.62374
0.612418
0.590714
0.563753
0.532872
0.49978
0.466653
0.436185
0.411552
0.395799
0.39029
0.395556
0.431813
0.63977
1.72114
0.344486
0.344013
0.343999
0.34488
0.345943
0.3474
0.348997
0.350809
0.352741
0.354827
0.357034
0.359384
0.361867
0.3645
0.367284
0.370239
0.373374
0.345639
0.347894
0.351605
0.35705
0.364634
0.374802
0.387973
0.404509
0.424629
0.448126
0.474775
0.502886
0.531515
0.562345
0.59628
0.625702
0.648478
0.662985
0.668114
0.663033
0.645436
0.617714
0.585561
0.550215
0.51334
0.476992
0.443744
0.416653
0.398688
0.3913
0.39532
0.431482
0.643477
1.73261
0.345644
0.344446
0.343986
0.344036
0.344944
0.346038
0.347498
0.349107
0.350915
0.352847
0.354926
0.357129
0.359468
0.361939
0.364556
0.367325
0.370263
0.373382
0.347909
0.351659
0.35718
0.364902
0.375319
0.388919
0.40617
0.427426
0.452689
0.481951
0.513617
0.547245
0.584559
0.625715
0.661392
0.689892
0.709168
0.718136
0.716488
0.704168
0.679199
0.644831
0.607187
0.567247
0.526564
0.487031
0.451068
0.421596
0.401507
0.392319
0.395179
0.43122
0.646872
1.74316
0.347931
0.345565
0.344355
0.343942
0.344088
0.345012
0.346139
0.347601
0.34922
0.351024
0.352957
0.355029
0.357225
0.359551
0.362009
0.36461
0.367365
0.370287
0.373391
0.351707
0.357296
0.365147
0.375792
0.389788
0.407707
0.430043
0.457012
0.488839
0.524148
0.563151
0.607704
0.659031
0.704606
0.740912
0.766202
0.778977
0.779384
0.768438
0.747059
0.713533
0.671897
0.6285
0.583884
0.539394
0.496732
0.458132
0.426367
0.404247
0.393338
0.395118
0.431073
0.650277
1.75325
0.351762
0.347785
0.345373
0.344259
0.343904
0.344151
0.345083
0.346246
0.347708
0.349337
0.351137
0.35307
0.355134
0.35732
0.359633
0.362076
0.364663
0.367403
0.370311
0.373399
0.357399
0.365367
0.376223
0.390586
0.409126
0.432479
0.461085
0.495413
0.534434
0.579078
0.631304
0.69497
0.756549
0.806905
0.840996
0.858497
0.859884
0.847523
0.824144
0.791626
0.748286
0.698777
0.649394
0.600056
0.551788
0.506068
0.46492
0.430956
0.406897
0.394352
0.395129
0.430967
0.653364
1.76134
0.357508
0.351534
0.347421
0.345174
0.344175
0.343873
0.344223
0.345158
0.346356
0.347819
0.349458
0.351254
0.353185
0.355238
0.357413
0.359712
0.362142
0.364715
0.367441
0.370333
0.373406
0.365565
0.376613
0.391316
0.410433
0.434741
0.464906
0.501658
0.544419
0.594821
0.655141
0.733702
0.817025
0.892024
0.943431
0.967992
0.969931
0.953197
0.922943
0.883603
0.837736
0.783312
0.725351
0.669787
0.61571
0.563715
0.51502
0.47142
0.435353
0.40945
0.39535
0.395164
0.430958
0.656044
1.76814
0.365764
0.357172
0.350934
0.347042
0.344996
0.3441
0.343851
0.344301
0.345239
0.346471
0.347935
0.349582
0.351375
0.353299
0.35534
0.357503
0.359788
0.362206
0.364765
0.367477
0.370355
0.373414
0.376966
0.39198
0.411633
0.436835
0.468476
0.507562
0.55404
0.610212
0.67923
0.775816
0.886668
0.995104
1.07863
1.12053
1.12425
1.101
1.05873
1.0053
0.946505
0.885154
0.81845
0.751516
0.689614
0.630806
0.575154
0.523578
0.477626
0.439555
0.411902
0.396334
0.395231
0.430971
0.658232
1.77548
0.377309
0.36529
0.356239
0.350313
0.346696
0.344832
0.344034
0.343838
0.344384
0.345328
0.34659
0.348056
0.349709
0.351495
0.35341
0.35544
0.35759
0.359863
0.362268
0.364814
0.367512
0.370377
0.373421
0.392585
0.412731
0.438769
0.471803
0.513124
0.563247
0.625158
0.703723
0.821485
0.964702
1.11305
1.23888
1.31755
1.33594
1.3068
1.24915
1.17468
1.09349
1.01222
0.933536
0.853522
0.777178
0.708823
0.645318
0.586092
0.531735
0.483535
0.44356
0.41425
0.397297
0.395315
0.430999
0.660675
1.78348
0.393155
0.376663
0.363891
0.355276
0.349735
0.346373
0.34468
0.343979
0.343836
0.344472
0.345424
0.346713
0.348182
0.349835
0.351612
0.353518
0.355537
0.357675
0.359936
0.362329
0.364861
0.367547
0.370397
0.373425
0.413738
0.44055
0.474894
0.518344
0.572012
0.639639
0.728718
0.870178
1.04871
1.24063
1.41479
1.54197
1.60013
1.58167
1.50937
1.40995
1.29823
1.18585
1.07986
0.982451
0.888332
0.802248
0.727373
0.659229
0.596525
0.539491
0.489147
0.447368
0.416492
0.398111
0.395396
0.431064
0.663292
1.79215
0.414665
0.392302
0.374616
0.362455
0.354374
0.349185
0.346068
0.34454
0.343933
0.343846
0.344561
0.345529
0.346838
0.348309
0.349958
0.351727
0.353623
0.355631
0.357758
0.360007
0.362387
0.364907
0.36758
0.370408
0.373425
0.442195
0.477759
0.523228
0.580325
0.653661
0.754167
0.920854
1.1357
1.37224
1.59745
1.77961
1.89159
1.915
1.84843
1.72492
1.57848
1.42618
1.28053
1.14845
1.03142
0.922677
0.826645
0.745237
0.672528
0.606452
0.546851
0.494468
0.45098
0.418346
0.398814
0.395503
0.431155
0.666237
1.80165
0.44368
0.413561
0.389361
0.372531
0.361105
0.353511
0.348658
0.345784
0.344411
0.343898
0.343873
0.344651
0.345643
0.346962
0.348435
0.350078
0.351839
0.353725
0.355723
0.357839
0.360076
0.362444
0.364952
0.367597
0.370408
0.373425
0.480421
0.527786
0.588188
0.667236
0.779887
0.972326
1.22299
1.50333
1.77981
2.01991
2.19347
2.27556
2.25186
2.12788
1.94713
1.75023
1.55559
1.37574
1.21701
1.07997
0.956358
0.850298
0.762391
0.685213
0.61588
0.553822
0.499501
0.45395
0.419926
0.399599
0.395636
0.431312
0.669381
1.81194
0.482783
0.442269
0.409389
0.38639
0.370564
0.359806
0.352678
0.348151
0.34552
0.344293
0.343869
0.343926
0.344742
0.345761
0.347083
0.348558
0.350194
0.351949
0.353825
0.355812
0.357917
0.360143
0.3625
0.364974
0.367597
0.370408
0.373425
0.532051
0.595622
0.68037
0.80562
1.02351
1.30855
1.63078
1.95705
2.25527
2.49422
2.64462
2.68376
2.60218
2.41318
2.17086
1.92154
1.68398
1.46992
1.28464
1.12765
0.989193
0.873142
0.778818
0.697287
0.624818
0.560413
0.50363
0.456473
0.421665
0.400476
0.39581
0.431499
0.672932
1.82324
0.53579
0.481009
0.436399
0.405212
0.383581
0.368666
0.358549
0.351874
0.347663
0.345274
0.344185
0.343831
0.343998
0.344832
0.345881
0.347202
0.348679
0.350308
0.352056
0.353921
0.355899
0.357993
0.360208
0.362527
0.364974
0.367597
0.370408
0.373425
0.60267
0.693078
0.831104
1.07355
1.39102
1.75266
2.12619
2.48074
2.78554
3.00938
3.12346
3.10779
2.95895
2.69888
2.39211
2.08961
1.80943
1.56184
1.35064
1.1741
1.02102
0.895122
0.794512
0.708756
0.633278
0.565816
0.507129
0.459236
0.423581
0.40146
0.396022
0.431778
0.67673
1.83546
0.60884
0.533559
0.472769
0.43058
0.401255
0.380864
0.366824
0.357331
0.3511
0.3472
0.345044
0.34409
0.343797
0.344081
0.344921
0.345999
0.347319
0.348797
0.350419
0.352159
0.354016
0.355983
0.358067
0.36024
0.362527
0.364974
0.367597
0.370408
0.373425
0.705376
0.856125
1.1218
1.46954
1.86787
2.28559
2.69335
3.06186
3.36011
3.5561
3.62155
3.54032
3.31629
2.98067
2.60787
2.25237
1.93056
1.65058
1.41442
1.21899
1.05171
0.916199
0.80947
0.719632
0.640218
0.570396
0.510958
0.462267
0.425694
0.402564
0.396295
0.432103
0.681046
1.84889
0.716226
0.606059
0.521897
0.464693
0.425056
0.397419
0.378221
0.365036
0.356155
0.350358
0.346764
0.344836
0.344005
0.343776
0.344169
0.345013
0.346117
0.347434
0.348913
0.350527
0.352261
0.354107
0.356065
0.358103
0.36024
0.362527
0.364974
0.367597
0.370408
0.373421
0.880476
1.16787
1.54361
1.97585
2.43445
2.89153
3.31978
3.68996
3.96974
4.12587
4.13119
3.97482
3.66922
3.25513
2.81596
2.40841
2.04641
1.7355
1.47557
1.26209
1.08115
0.936346
0.823695
0.728571
0.646105
0.575403
0.515148
0.465594
0.428028
0.403807
0.396624
0.43256
0.685672
1.86336
0.712867
0.901926
0.588902
0.510691
0.45701
0.419695
0.393683
0.375652
0.363304
0.355023
0.34965
0.346357
0.344647
0.343935
0.343769
0.344258
0.345106
0.346232
0.347547
0.349026
0.350633
0.352359
0.354197
0.356106
0.358103
0.36024
0.362527
0.364974
0.367597
0.370397
0.373414
1.21146
1.61304
2.07641
2.57248
3.07465
3.55757
3.99466
4.35557
4.60573
4.71055
4.64509
4.4054
4.01358
3.51965
3.01482
2.5568
2.1564
1.81621
1.53383
1.30325
1.10928
0.955545
0.835415
0.736161
0.652547
0.580883
0.519739
0.46925
0.43061
0.405206
0.397042
0.433083
0.690962
1.87928
0.685974
0.899079
1.24903
0.572932
0.500036
0.449544
0.414468
0.390045
0.373158
0.361631
0.353935
0.348978
0.345981
0.344481
0.343882
0.343774
0.344346
0.345202
0.346344
0.347659
0.349135
0.350736
0.352455
0.354241
0.356106
0.358103
0.36024
0.362527
0.364974
0.36758
0.370376
0.373406
1.67773
2.16964
2.6998
3.24269
3.77472
4.2721
4.70792
5.04962
5.25961
5.30222
5.15636
4.82681
4.34595
3.77228
3.20344
2.69702
2.26022
1.89246
1.58903
1.34237
1.13605
0.971384
0.845382
0.744477
0.659601
0.586886
0.524773
0.473271
0.433471
0.406789
0.397539
0.43379
0.696649
1.89635
0.661383
0.855805
1.24706
1.73286
0.557954
0.489667
0.442262
0.409373
0.386511
0.370744
0.36002
0.352897
0.348349
0.345645
0.34434
0.343844
0.343794
0.344432
0.3453
0.346454
0.347769
0.349242
0.350837
0.352502
0.35424
0.356106
0.358103
0.36024
0.362527
0.364952
0.367546
0.370355
0.373398
2.25568
2.81682
3.39614
3.97156
4.52187
5.02408
5.44994
5.7634
5.92308
5.89316
5.65857
5.23449
4.66359
4.01168
3.38124
2.82884
2.35775
1.9642
1.64111
1.3794
1.15809
0.984861
0.856318
0.753596
0.667335
0.593466
0.530297
0.477698
0.436645
0.408577
0.398165
0.434596
0.703198
1.91514
0.638733
0.815185
1.18303
1.73279
2.32862
0.543497
0.479539
0.435164
0.404418
0.383086
0.368416
0.358475
0.351916
0.347776
0.345353
0.34422
0.343817
0.343831
0.344514
0.3454
0.346561
0.347877
0.349347
0.350887
0.352502
0.35424
0.356106
0.358103
0.36024
0.362499
0.364907
0.367511
0.370332
0.37339
2.92394
3.53584
4.14908
4.74481
5.30377
5.80308
6.21174
6.48849
6.58791
6.47588
6.14585
5.62463
4.96452
4.23702
3.54797
2.95222
2.44904
2.03146
1.69008
1.40972
1.17682
0.999654
0.868328
0.763606
0.67582
0.600686
0.536366
0.482577
0.44017
0.410607
0.398906
0.435657
0.710256
1.93511
0.617343
0.777193
1.12021
1.65017
2.33166
3.0141
0.529434
0.469659
0.428263
0.399613
0.379778
0.366179
0.357011
0.351017
0.347263
0.345102
0.344118
0.343791
0.343886
0.344594
0.345501
0.346665
0.347985
0.349398
0.350887
0.352502
0.35424
0.356106
0.358103
0.360208
0.362443
0.36486
0.367476
0.37031
0.373382
3.66256
4.30875
4.94263
5.54849
6.10881
6.59964
6.98499
7.21672
7.24605
7.04329
6.61304
5.99422
5.24739
4.4479
3.70364
3.06733
2.53424
2.09433
1.72993
1.43537
1.19734
1.0159
0.881529
0.774604
0.685139
0.608616
0.543038
0.487962
0.444094
0.412908
0.399834
0.436864
0.718459
1.95712
0.596956
0.741346
1.05884
1.56726
2.23252
3.02071
3.76787
0.515744
0.460052
0.421574
0.394972
0.376598
0.364053
0.355664
0.350209
0.346803
0.344886
0.344033
0.343765
0.343951
0.344672
0.345602
0.34677
0.348038
0.349396
0.350887
0.352502
0.35424
0.356106
0.358066
0.360142
0.362386
0.364812
0.367439
0.370286
0.373374
4.45191
5.11776
5.76104
6.36949
6.92678
7.40557
7.76202
7.94005
7.8895
7.58879
7.05583
6.34112
5.51143
4.64425
3.84848
3.17444
2.61358
2.14524
1.76351
1.46336
1.21981
1.03375
0.896048
0.786698
0.695385
0.617334
0.550383
0.49391
0.448465
0.415533
0.400929
0.438337
0.727307
1.98021
0.57746
0.707556
0.998663
1.48414
2.1321
2.90658
3.77722
4.56852
0.502441
0.450744
0.415116
0.390506
0.373574
0.362095
0.354451
0.349484
0.346396
0.3447
0.343962
0.343747
0.344022
0.344751
0.345707
0.346819
0.348036
0.349396
0.350887
0.352502
0.354241
0.356065
0.357991
0.360074
0.362327
0.364763
0.367402
0.370262
0.373365
5.27231
5.9451
6.58931
7.19647
7.74941
8.21398
8.53553
8.65035
8.51053
8.10657
7.47091
6.66396
5.75641
4.82634
3.98285
3.27386
2.67759
2.18801
1.79998
1.49387
1.24443
1.05337
0.912028
0.800009
0.706659
0.626929
0.558476
0.50049
0.453345
0.418518
0.402292
0.439905
0.737679
2.01008
0.558792
0.675858
0.939902
1.40044
2.03033
2.79071
3.64863
4.57806
5.39435
0.489556
0.441767
0.408907
0.386261
0.370786
0.360328
0.353358
0.348834
0.346037
0.344541
0.343904
0.343738
0.344096
0.344835
0.345758
0.346813
0.348037
0.349396
0.350887
0.352502
0.354196
0.355982
0.357915
0.360005
0.362266
0.364713
0.367363
0.370238
0.373356
6.10391
6.77371
7.41467
8.02069
8.57058
9.01881
9.29816
9.33933
9.10179
8.5918
7.85598
6.9621
5.98254
4.99462
4.10721
3.35386
2.73124
2.23429
1.83956
1.52712
1.27138
1.07494
0.929625
0.814673
0.719077
0.6375
0.567404
0.507776
0.458799
0.421941
0.40389
0.441846
0.750873
2.04564
0.540911
0.646284
0.883018
1.31616
1.92671
2.67277
3.51858
4.43429
5.39968
6.22412
0.477125
0.433151
0.403006
0.382347
0.368268
0.358734
0.352375
0.348254
0.345722
0.344404
0.343858
0.34374
0.344181
0.34487
0.345755
0.346813
0.348037
0.349396
0.350887
0.352454
0.354106
0.355896
0.357836
0.359934
0.362204
0.364662
0.367324
0.370213
0.373347
6.9274
7.58904
8.22738
8.83659
9.38562
9.81437
10.0421
9.99862
9.65675
9.0408
8.20975
7.23566
6.19038
5.14971
4.20695
3.42078
2.78915
2.28434
1.88248
1.56331
1.30087
1.09864
0.94901
0.830837
0.732769
0.64916
0.577262
0.515855
0.464909
0.425845
0.405863
0.444386
0.768181
2.08104
0.523797
0.61881
0.828611
1.23161
1.82096
2.55224
3.38639
4.29032
5.23839
6.21933
7.03764
0.465192
0.424983
0.39757
0.378814
0.365996
0.357297
0.351492
0.347737
0.345446
0.344286
0.343825
0.343765
0.344222
0.344856
0.345757
0.346813
0.348036
0.349398
0.350837
0.352357
0.354013
0.355809
0.357755
0.359861
0.36214
0.364609
0.367283
0.370187
0.373337
7.72634
8.37993
9.02217
9.64044
10.191
10.5947
10.759
10.62
10.1698
9.45117
8.53199
7.48525
6.38073
5.27352
4.29019
3.49285
2.8516
2.3384
1.92896
1.60267
1.33312
1.12468
0.970362
0.848663
0.747877
0.662031
0.588164
0.524825
0.471758
0.430346
0.408614
0.448006
0.787315
2.11582
0.507443
0.593341
0.777326
1.14737
1.71299
2.42853
3.25161
4.14497
5.07944
6.0359
7.01562
7.8162
0.453881
0.417476
0.392666
0.375627
0.363946
0.356003
0.3507
0.347277
0.345202
0.344187
0.343821
0.343766
0.344214
0.344854
0.345757
0.346813
0.348038
0.349346
0.350734
0.352258
0.353918
0.355719
0.357672
0.359786
0.362074
0.364555
0.367241
0.37016
0.373328
8.48758
9.14145
9.79467
10.4293
10.9837
11.3522
11.4398
11.1957
10.6368
9.82198
8.82332
7.71192
6.53166
5.37649
4.3796
3.57039
2.91887
2.39671
1.97922
1.64541
1.36833
1.15325
0.993877
0.868328
0.764556
0.676256
0.600229
0.534799
0.479466
0.436455
0.412538
0.452144
0.808287
2.14971
0.491968
0.569715
0.729769
1.06422
1.60298
2.30121
3.11339
3.99795
4.92095
5.85922
6.8031
7.7675
8.54514
0.443502
0.410723
0.388247
0.372753
0.362097
0.354838
0.349989
0.346865
0.344993
0.344133
0.343807
0.343741
0.344218
0.344854
0.345755
0.346819
0.347984
0.34924
0.35063
0.352156
0.353821
0.355627
0.357587
0.359709
0.362007
0.364499
0.367198
0.370133
0.373318
9.20343
9.8615
10.5336
11.1932
11.757
12.0803
12.0744
11.719
11.0554
10.1536
9.085
7.88997
6.65654
5.48665
4.47547
3.65366
2.99121
2.45952
2.03349
1.69174
1.40671
1.18457
1.01975
0.890015
0.782978
0.691986
0.613605
0.545909
0.48974
0.444542
0.417085
0.457146
0.831446
2.18237
0.477754
0.54791
0.686453
0.983152
1.49126
2.17006
2.97093
3.84825
4.7629
5.6863
6.60405
7.5179
8.45436
9.21909
0.43419
0.404649
0.384266
0.370162
0.360432
0.353791
0.34935
0.346501
0.344853
0.344089
0.343777
0.343741
0.344218
0.344856
0.345758
0.346769
0.347875
0.349132
0.350524
0.352052
0.353721
0.355533
0.3575
0.359631
0.361938
0.364442
0.367154
0.370107
0.373309
9.87039
10.5479
11.2544
11.9386
12.5028
12.7658
12.653
12.185
11.4251
10.4473
9.28803
8.03624
6.78933
5.6042
4.57806
3.74292
3.06885
2.52704
2.09198
1.74184
1.44846
1.21883
1.04818
0.913918
0.803317
0.709397
0.628442
0.560591
0.502907
0.453554
0.422496
0.46295
0.856766
2.21358
0.464976
0.528236
0.647516
0.905389
1.37843
2.03499
2.82353
3.69471
4.60412
5.51733
6.41391
7.29036
8.16013
9.05674
9.82212
0.425848
0.399188
0.380681
0.367829
0.358933
0.352845
0.348781
0.34623
0.344761
0.344048
0.34378
0.343741
0.344214
0.34487
0.345706
0.346663
0.347766
0.349022
0.350415
0.351945
0.353619
0.355437
0.35741
0.35955
0.361867
0.364384
0.367111
0.370081
0.373299
10.4825
11.2001
11.9617
12.6703
13.2172
13.3967
13.1669
12.5912
11.7472
10.6715
9.45324
8.19048
6.93002
5.72929
4.68756
3.83839
3.15202
2.59946
2.15484
1.79589
1.49374
1.25622
1.07937
0.940224
0.825769
0.728652
0.647977
0.579126
0.517221
0.463655
0.428736
0.469955
0.884773
2.24294
0.453519
0.510671
0.61403
0.833146
1.26544
1.8961
2.67057
3.53615
4.44314
5.35094
6.2329
7.07892
7.89722
8.71154
9.56881
10.3448
0.41838
0.394279
0.377457
0.365728
0.357578
0.352
0.348343
0.346061
0.344704
0.344053
0.34378
0.343741
0.344222
0.344835
0.3456
0.346558
0.347656
0.348909
0.350304
0.351836
0.353514
0.355338
0.357318
0.359468
0.361795
0.364327
0.367069
0.370056
0.37329
11.0391
11.8233
12.6578
13.3888
13.8914
13.9599
13.6099
12.9379
11.9878
10.8517
9.62544
8.35225
7.07845
5.86189
4.80406
3.94022
3.24087
2.67695
2.22223
1.85403
1.54269
1.29689
1.11347
0.969122
0.85049
0.753917
0.672431
0.598996
0.532801
0.474888
0.436114
0.478111
0.915374
2.27029
0.443271
0.494896
0.585766
0.769178
1.15448
1.75374
2.51152
3.37136
4.27838
5.18544
6.05928
6.88363
7.65961
8.40657
9.1589
9.98154
10.786
0.411696
0.389869
0.374557
0.363831
0.356366
0.351336
0.34808
0.34598
0.344712
0.344053
0.343777
0.343767
0.344181
0.344749
0.345498
0.34645
0.347543
0.348793
0.35019
0.351724
0.353407
0.355237
0.357224
0.359384
0.361723
0.364271
0.367028
0.370032
0.373282
11.5453
12.4282
13.3473
14.0825
14.5097
14.4427
13.9793
13.1896
12.1777
11.0365
9.80358
8.52088
7.23423
6.00188
4.92758
4.04848
3.33551
2.7596
2.29425
1.91633
1.59542
1.34096
1.15063
1.00074
0.882753
0.785268
0.698372
0.620256
0.5497
0.487459
0.444593
0.487912
0.949285
2.29522
0.434129
0.480695
0.561634
0.714854
1.05011
1.60958
2.34602
3.19907
4.108
5.01884
5.89111
6.7021
7.44704
8.13777
8.80374
9.49135
10.2812
11.1437
0.405714
0.38591
0.371941
0.362132
0.355398
0.350947
0.347973
0.345991
0.344712
0.344048
0.343807
0.343766
0.344095
0.34467
0.345397
0.34634
0.34743
0.348675
0.350074
0.351609
0.353297
0.355133
0.357128
0.359301
0.361653
0.364217
0.366988
0.370008
0.373273
12.0111
13.0294
14.0308
14.7357
15.05
14.837
14.2374
13.3835
12.3683
11.2241
9.98618
8.69536
7.39673
6.14893
5.05798
4.16315
3.43595
2.84744
2.37091
1.98282
1.65195
1.38849
1.19091
1.04168
0.922329
0.81813
0.725744
0.642907
0.56803
0.501396
0.454565
0.499341
0.986348
2.31769
0.425987
0.467922
0.540749
0.669433
0.95563
1.46861
2.17517
3.01804
3.93
4.84882
5.72605
6.53199
7.25608
7.90473
8.4988
9.07704
9.69713
10.4532
11.4164
0.400359
0.382345
0.369601
0.360761
0.354839
0.350807
0.347989
0.345991
0.344704
0.344089
0.343822
0.34374
0.34402
0.344592
0.345296
0.346227
0.347315
0.348554
0.349955
0.351493
0.353184
0.355028
0.357033
0.35922
0.361586
0.364164
0.366949
0.369985
0.373265
12.4544
13.6352
14.7038
15.3419
15.4822
15.0977
14.429