/*--------------------------------*- C++ -*----------------------------------*\
  =========                 |
  \\      /  F ield         | OpenFOAM: The Open Source CFD Toolbox
   \\    /   O peration     | Website:  https://openfoam.org
    \\  /    A nd           | Version:  8
     \\/     M anipulation  |
\*---------------------------------------------------------------------------*/
FoamFile
{
    version     2.0;
    format      ascii;
    class       volScalarField;
    location    "0.14";
    object      p;
}
// * * * * * * * * * * * * * * * * * * * * * * * * * * * * * * * * * * * * * //

dimensions      [0 2 -2 0 0 0 0];

internalField   nonuniform List<scalar> 
15677
(
80.3455
79.989
79.5765
80.0535
79.5647
79.5792
80.0285
79.5919
79.5886
79.4739
80.0032
79.5933
79.5889
79.483
79.3843
79.9814
79.5956
79.5887
79.4822
79.3919
79.2907
79.9579
79.5979
79.5884
79.4833
79.3918
79.2973
79.1797
79.9328
79.6004
79.5875
79.4836
79.3928
79.2973
79.1855
79.0476
79.9066
79.6035
79.5861
79.4837
79.3933
79.2983
79.1856
79.0527
78.8875
79.8793
79.6055
79.5842
79.4835
79.3937
79.2989
79.1866
79.0529
78.8919
78.6922
79.8507
79.6069
79.5815
79.483
79.3941
79.2995
79.1872
79.054
78.8923
78.6958
78.4542
79.8212
79.6085
79.5782
79.4828
79.3945
79.3001
79.1881
79.0548
78.8934
78.6964
78.4571
78.1657
79.7912
79.6095
79.5748
79.4828
79.395
79.3009
79.1891
79.0559
78.8945
78.6977
78.4578
78.1679
77.8189
79.7615
79.6094
79.5712
79.4832
79.3959
79.3021
79.1904
79.0573
78.896
78.6991
78.4594
78.1688
77.8203
77.4058
79.7347
79.6079
79.5675
79.4839
79.3975
79.304
79.1925
79.0594
78.898
78.7011
78.4612
78.1707
77.8213
77.4063
76.9189
79.7116
79.6057
79.5639
79.4851
79.4
79.3069
79.1955
79.0624
78.9009
78.7038
78.4638
78.173
77.8236
77.4076
76.9184
76.3513
79.6915
79.6036
79.5608
79.4869
79.4036
79.3112
79.2001
79.0669
78.9051
78.7078
78.4674
78.1764
77.8265
77.4101
76.9199
76.3497
75.697
79.6738
79.6014
79.5584
79.4892
79.4087
79.3174
79.2068
79.0736
78.9115
78.7136
78.4727
78.1811
77.8308
77.4138
76.9229
76.3515
75.6941
74.9508
79.6585
79.5994
79.5566
79.4919
79.415
79.326
79.2163
79.0832
78.9208
78.7223
78.4806
78.1881
77.8369
77.4192
76.9274
76.3549
75.6962
74.9466
74.1093
79.6452
79.5974
79.5553
79.495
79.4219
79.3364
79.2294
79.0968
78.9342
78.7349
78.4921
78.1983
77.8458
77.4269
76.9341
76.3604
75.7
74.9489
74.1036
73.1704
79.6338
79.5956
79.5546
79.4985
79.4296
79.3478
79.2452
79.1155
78.953
78.753
78.5089
78.2133
77.8589
77.4381
76.9436
76.3684
75.7065
74.9533
74.1062
73.1631
72.1337
79.6247
79.5939
79.5543
79.5024
79.4378
79.3603
79.2625
79.1382
78.9788
78.7785
78.5329
78.2351
77.8782
77.4546
76.9575
76.38
75.716
74.9608
74.1111
73.1659
72.1246
71.0007
79.6178
79.5922
79.5545
79.5067
79.4466
79.3738
79.2814
79.1628
79.0102
78.8133
78.5665
78.2663
77.906
77.4788
76.9779
76.3969
75.7299
74.972
74.1196
73.1712
72.1277
70.9897
69.7753
79.6124
79.5906
79.5551
79.5113
79.4558
79.3881
79.3017
79.1898
79.0444
78.8556
78.6125
78.31
77.9458
77.5138
77.0077
76.4216
75.75
74.9881
74.1324
73.1808
72.1334
70.9931
69.7624
68.4628
79.6081
79.5892
79.5559
79.5159
79.4654
79.4031
79.3231
79.2188
79.0817
78.9018
78.6686
78.3697
78.0014
77.5636
77.0508
76.4577
75.7794
75.0116
74.1509
73.1951
72.1439
70.999
69.7658
68.4478
67.0759
79.6048
79.5881
79.5568
79.5203
79.4749
79.4187
79.3456
79.2496
79.1219
78.9524
78.7298
78.4426
78.0777
77.6334
77.1122
76.5099
75.8224
75.046
74.1779
73.216
72.1597
71.0103
69.7718
68.4512
67.0583
65.6453
79.6021
79.5872
79.5577
79.5243
79.4836
79.434
79.3689
79.2817
79.1646
79.0069
78.7969
78.5222
78.1708
77.7291
77.1982
76.5844
75.8846
75.0963
74.2174
73.2463
72.1826
71.0273
69.7835
68.4567
67.059
65.5914
64.1116
79.5999
79.5865
79.5587
79.528
79.4916
79.448
79.3917
79.315
79.2092
79.0646
78.8692
78.6096
78.2726
77.846
77.3164
76.6888
75.9735
75.1693
74.2752
73.2907
72.216
71.0519
69.8012
68.4684
67.063
65.5938
64.0459
62.4605
79.5981
79.5859
79.5596
79.5313
79.4987
79.4607
79.4126
79.3476
79.2554
79.1251
78.9459
78.7039
78.3846
77.9742
77.4611
76.8324
76.0982
75.2735
74.3592
73.3561
72.2652
71.088
69.8271
68.4861
67.073
65.5938
64.0483
62.4313
60.7641
79.5966
79.5854
79.5604
79.5343
79.505
79.472
79.4315
79.3775
79.3006
79.1878
79.0263
78.804
78.5055
78.1154
77.6199
77.0086
76.2701
75.4201
74.4797
73.4514
72.3378
71.1413
69.8649
68.5122
67.089
65.6007
64.0418
62.4234
60.754
59.0299
79.5954
79.585
79.561
79.537
79.5107
79.4822
79.4485
79.4045
79.3421
79.2492
79.1097
78.9091
78.6341
78.268
77.7952
77.2025
76.4814
75.6228
74.6495
73.5884
72.444
71.2204
69.9214
68.5508
67.1136
65.6138
64.0479
62.4132
60.737
59.0255
57.0823
79.5943
79.5847
79.5616
79.5396
79.5158
79.4913
79.4636
79.4287
79.3796
79.3056
79.1915
79.0182
78.7693
78.4307
77.985
77.4168
76.7146
75.8727
74.885
73.7822
72.5974
71.3368
70.0059
68.6092
67.1511
65.6355
64.0592
62.4206
60.7277
59.0065
57.0812
54.9017
79.5935
79.5844
79.5621
79.5419
79.5203
79.4993
79.4771
79.4503
79.4132
79.3565
79.2667
79.1254
78.9098
78.6019
78.1877
77.6494
76.9728
76.1491
75.1762
74.0516
72.8151
71.5057
70.1312
68.6975
67.2095
65.6705
64.0788
62.4312
60.7353
58.9992
57.0632
54.9024
52.7129
79.5927
79.5842
79.5625
79.5439
79.5242
79.5065
79.489
79.4696
79.4433
79.4023
79.3347
79.224
79.048
78.7801
78.4014
77.8983
77.2539
76.4561
75.4991
74.3861
73.119
71.7466
70.3142
68.8299
67.2997
65.7271
64.1116
62.4502
60.7457
59.0052
57.0561
54.8858
52.7151
50.5517
79.5921
79.584
79.563
79.5458
79.5278
79.5128
79.4996
79.4867
79.47
79.4431
79.3958
79.3132
79.1753
78.9557
78.6242
78.1614
77.5554
76.791
75.8589
74.7583
73.4977
72.0846
70.5769
69.025
67.437
65.8173
64.1665
62.4817
60.7644
59.0153
57.0589
54.8785
52.7002
50.554
48.4357
79.5839
79.5914
79.5634
79.5474
79.5309
79.5184
79.509
79.5018
79.4938
79.4795
79.4504
79.3934
79.2906
79.1177
78.8443
78.4363
77.8748
77.1512
76.2527
75.1743
73.9209
72.5077
70.9473
69.3071
67.6417
65.9574
64.2559
62.5351
60.7945
59.033
57.0677
54.8781
52.6926
50.54
48.4377
46.3755
79.5637
79.5837
79.5905
79.5488
79.5337
79.5234
79.5174
79.5153
79.5149
79.5119
79.499
79.4652
79.3944
79.2647
79.0476
78.7083
78.2095
77.5339
76.6775
75.6311
74.3955
72.9822
71.4135
69.7076
67.9404
66.1691
64.3971
62.6232
60.8457
59.0608
57.0826
54.8843
52.6893
50.5315
48.4245
46.377
44.3813
79.55
79.5644
79.5835
79.5898
79.5361
79.5278
79.5248
79.5272
79.5336
79.5406
79.5423
79.5292
79.4873
79.3971
79.2324
78.9603
78.5416
77.9362
77.1302
76.1256
74.9186
73.5168
71.9388
70.2145
68.3674
66.481
64.6134
62.7641
60.9313
59.1086
57.1064
54.8945
52.6922
50.5249
48.4146
46.3643
44.382
42.4615
79.5383
79.5517
79.5652
79.5834
79.589
79.5317
79.5313
79.5377
79.5502
79.5661
79.5807
79.5862
79.5703
79.5158
79.3992
79.1897
78.8499
78.3365
77.6077
76.6545
75.4871
74.1082
72.5331
70.7885
68.9114
66.9303
64.9349
62.9823
61.07
59.1899
57.1486
54.912
52.6969
50.5233
48.4044
46.3528
44.3696
42.4613
40.622
79.535
79.5412
79.5536
79.566
79.5832
79.5883
79.5371
79.5471
79.5649
79.5887
79.6148
79.6368
79.6442
79.622
79.5489
79.3971
79.1312
78.7092
78.0844
77.2143
76.0974
74.7536
73.1935
71.4408
69.5306
67.5067
65.4018
63.3097
61.287
59.3238
57.2227
54.9456
52.7066
50.5213
48.3976
46.3388
44.3562
42.449
40.6209
38.8668
79.542
79.5396
79.5444
79.5556
79.5668
79.5831
79.5876
79.5554
79.5779
79.6087
79.645
79.6817
79.7099
79.7165
79.6829
79.5836
79.3861
79.0502
78.5297
77.7754
76.746
75.4493
73.9171
72.169
70.2378
68.1665
66.0049
63.7888
61.6158
59.5361
57.3482
55.0085
52.7293
50.5217
48.3879
46.3263
44.3384
42.4336
40.6087
38.8649
37.1983
79.5624
79.5487
79.5443
79.5477
79.5575
79.5676
79.583
79.587
79.5894
79.6265
79.6719
79.7215
79.7682
79.8007
79.8024
79.7507
79.6157
79.3597
78.9382
78.3015
77.3988
76.1919
74.7008
72.9707
71.031
68.9236
66.699
64.4119
62.101
59.8613
57.551
55.1202
52.778
50.5315
48.3777
46.3084
44.3199
42.412
40.5911
38.8527
37.1955
35.6172
79.5991
79.5717
79.5553
79.5492
79.5508
79.5594
79.5684
79.5828
79.5864
79.6422
79.6957
79.7569
79.82
79.8754
79.9088
79.8999
79.8217
79.6392
79.3102
78.7855
78.0132
76.9428
75.5413
73.8431
71.9084
69.7769
67.4995
65.1328
62.7362
60.3458
57.867
55.307
52.8717
50.5633
48.3729
46.2866
44.2933
42.3873
40.5657
38.8329
37.1832
35.6137
34.1232
79.6554
79.612
79.5806
79.562
79.5539
79.554
79.5612
79.5693
79.5827
79.5859
79.7168
79.7883
79.8659
79.9418
80.0035
80.033
80.006
79.8905
79.6467
79.2275
78.5806
77.6525
76.3952
74.7833
72.8681
70.7258
68.4064
65.9686
63.4754
60.9845
58.3429
55.6049
53.0368
50.6356
48.3856
46.266
44.2593
42.3517
40.5349
38.8038
37.1612
35.6012
34.1191
32.715
79.7343
79.6728
79.6236
79.5897
79.5686
79.5585
79.557
79.563
79.5701
79.5826
79.5854
79.8162
79.9069
80.0008
80.0876
80.1515
80.1706
80.1157
79.95
79.6286
79.1004
78.3105
77.2061
75.7438
73.9081
71.7694
69.4205
66.9208
64.3371
61.7323
58.9758
56.0604
53.3087
50.7741
48.4335
46.2579
44.222
42.3052
40.4902
38.7668
37.1286
35.5771
34.1064
32.7103
31.3905
79.8392
79.7576
79.6878
79.6357
79.5986
79.575
79.5629
79.5599
79.5647
79.5708
79.5825
79.585
79.9431
80.0534
80.1624
80.2569
80.3172
80.317
80.2223
79.9909
79.5735
78.9155
77.9612
76.6603
74.9763
72.9065
70.5419
67.9914
65.3245
62.6091
59.7221
56.6728
53.732
51.0129
48.5417
46.2795
44.1922
42.2508
40.431
38.7131
37.0856
35.541
34.0802
32.6974
31.3852
30.147
79.973
79.8698
79.7768
79.7035
79.6474
79.6071
79.5811
79.5672
79.5627
79.5663
79.5716
79.5824
79.5845
80.0999
80.2291
80.3506
80.4478
80.4968
80.4661
80.3168
80.0019
79.4678
78.658
77.5176
76.001
74.0814
71.7711
69.1823
66.4411
63.6198
60.6035
57.4021
54.3092
51.3939
48.741
46.3538
44.1858
42.1986
40.3594
38.6414
37.0231
35.4922
34.0409
32.6693
31.3722
30.1412
28.9815
80.1381
80.0128
79.8941
79.7968
79.7186
79.6585
79.6152
79.5869
79.5712
79.5654
79.5678
79.5724
79.5824
79.5842
80.2881
80.4343
80.5641
80.6569
80.6841
80.6093
80.3883
79.9695
79.2966
78.3121
76.9642
75.2148
73.0491
70.4956
67.6906
64.7697
61.6261
58.2702
55.0041
51.9226
49.0709
46.5087
44.2237
42.1635
40.2847
38.5527
36.939
35.4213
33.9865
32.6269
31.3421
30.128
28.9752
27.8903
80.3364
80.1894
80.0431
79.9196
79.8163
79.733
79.6691
79.6229
79.5925
79.5751
79.5679
79.5693
79.5731
79.5823
79.5839
80.5083
80.668
80.7998
80.8787
80.8713
80.7358
80.4233
79.8784
79.0429
77.8609
76.2857
74.2891
71.8701
69.0775
66.0647
62.7976
59.2853
55.8387
52.5676
49.5396
46.7802
44.3305
42.1632
40.2204
38.4558
36.8337
35.3252
33.9074
32.5672
31.2969
30.0962
28.9618
27.8837
26.8701
80.5687
80.4018
80.2272
80.0754
79.9442
79.8345
79.7465
79.679
79.6302
79.5977
79.5787
79.5702
79.5707
79.5737
79.5822
79.5836
80.7599
80.9275
81.0524
81.1054
81.0477
80.8323
80.4061
79.7111
78.689
77.2873
75.4671
73.2119
70.539
67.5118
64.1264
60.4574
56.8226
53.3495
50.1204
47.1789
44.5378
42.2192
40.1811
38.3623
36.7151
35.2038
33.7999
32.4803
31.2321
30.0483
28.9284
27.8701
26.8632
25.9173
80.8345
80.6514
80.4487
80.2676
80.1064
79.9673
79.8516
79.7591
79.6883
79.6369
79.6025
79.5821
79.5724
79.5719
79.5743
79.5821
79.5834
81.0405
81.2081
81.3148
81.3269
81.2001
80.8832
80.3191
79.4489
78.2162
76.5743
74.494
71.9753
69.0475
65.6225
61.7981
57.9683
54.2793
50.8317
47.6825
44.8581
42.3581
40.1845
38.2837
36.5928
35.0643
33.6631
32.3618
31.138
29.9788
28.878
27.8351
26.8493
25.91
25.0281
81.1317
80.9385
80.7093
80.4991
80.3064
80.1352
79.9887
79.8675
79.7708
79.6968
79.6431
79.6069
79.5851
79.5743
79.5729
79.5748
79.5821
79.5832
81.3455
81.5026
81.577
81.5301
81.3131
80.8702
80.1427
79.072
77.6058
75.7052
73.3557
70.5667
67.223
63.3214
59.2907
55.3713
51.6849
48.3062
45.2734
42.5934
40.2524
38.234
36.4752
34.9138
33.5035
32.2105
31.0091
29.8777
28.804
27.7826
26.813
25.8959
25.0204
24.1987
81.456
81.2613
81.0096
80.7719
80.5472
80.3422
80.1617
80.0083
79.8819
79.7814
79.7046
79.6488
79.6109
79.5878
79.576
79.5739
79.5753
79.5821
79.5831
81.6684
81.8018
81.8263
81.6996
81.3681
80.7735
79.856
78.56
76.8391
74.6668
72.0356
68.8193
64.9675
60.8069
56.6421
52.6943
49.0605
45.7941
42.9109
40.3978
38.2294
36.3725
34.7581
33.3259
32.0317
30.8441
29.7392
28.6966
27.7043
26.7584
25.8583
25.0061
24.1902
23.4286
81.8009
81.6167
81.3486
81.0872
80.8316
80.5915
80.375
80.186
80.0261
79.895
79.7909
79.7115
79.6537
79.6144
79.5901
79.5774
79.5746
79.5757
79.582
79.5829
81.9998
82.093
82.0473
81.8168
81.345
80.5711
79.4374
77.8922
75.8999
73.4387
70.375
66.6251
62.4596
58.109
53.8757
49.9573
46.4282
43.3153
40.6103
38.2815
36.2952
34.6033
33.1332
31.8282
30.6472
29.5614
28.5489
27.591
26.6763
25.8019
24.9673
24.1759
23.416
22.7897
82.1572
81.9989
81.7238
81.4446
81.1608
80.8861
80.6319
80.4047
80.2077
80.0419
79.9065
79.7993
79.7175
79.6579
79.6172
79.592
79.5786
79.5753
79.576
79.582
79.5828
82.3276
82.3611
82.2214
81.8612
81.2208
80.2403
78.8643
77.0502
74.7654
71.8713
68.2518
64.1338
59.7166
55.2446
51.0104
47.1842
43.8107
40.8876
38.3839
36.2525
34.4537
32.9278
31.5999
30.419
29.3474
28.3592
27.4348
26.5574
25.7162
24.9093
24.1362
23.4021
22.7853
22.2525
82.5127
82.3999
82.1302
81.8421
81.5353
81.228
80.9357
80.6682
80.4311
80.2268
80.0557
79.9164
79.8063
79.7224
79.6613
79.6195
79.5936
79.5796
79.5758
79.5763
79.582
79.5827
82.6364
82.5875
82.3278
81.8091
80.972
79.7568
78.116
76.0089
73.2936
69.8226
65.7818
61.3528
56.7545
52.2368
48.0758
44.4033
41.2305
38.5269
36.242
34.3163
32.7072
31.3457
30.1568
29.0958
28.1292
27.234
26.3934
25.5922
24.8203
24.0769
23.3615
22.7758
22.2575
21.6927
82.8518
82.8087
82.5606
82.2759
81.9537
81.6177
81.2886
80.9799
80.7002
80.454
80.2432
80.0673
79.9245
79.8119
79.7262
79.6639
79.6213
79.5949
79.5804
79.5762
79.5765
79.582
79.5826
82.9076
82.7511
82.3425
81.6362
80.5726
79.0982
77.1659
74.6311
71.3181
67.3779
62.9759
58.3101
53.6091
49.1261
45.1087
41.6437
38.7086
36.2471
34.1925
32.4765
31.0563
29.856
28.8016
27.8556
26.9891
26.1823
25.421
24.6917
23.9849
23.3013
22.7349
22.2491
21.6928
21.0883
83.1558
83.2113
83.0052
82.7398
82.4129
82.0549
81.6919
81.3425
81.0186
80.7276
80.4733
80.2566
80.0765
79.9307
79.816
79.729
79.6659
79.6227
79.5958
79.581
79.5766
79.5767
79.582
79.5826
83.12
82.8278
82.2402
81.3151
79.9985
78.2354
75.8777
72.7266
68.9069
64.5699
59.885
55.0579
50.3318
45.9578
42.1452
38.9322
36.2633
34.0591
32.241
30.735
29.5003
28.4563
27.5311
26.6949
25.9234
25.2004
24.5138
23.8521
23.2066
22.6745
22.2091
21.6807
21.0829
20.4281
83.4025
83.5903
83.4511
83.2252
82.908
82.5371
82.1457
81.7576
81.3893
81.0514
80.7504
80.4888
80.2669
80.0832
79.9349
79.8188
79.7309
79.6672
79.6237
79.5966
79.5815
79.5769
79.5769
79.5819
79.5825
83.2486
82.7915
81.9927
80.8202
79.2182
77.0314
74.0432
70.361
66.1252
61.4713
56.5703
51.6506
46.971
42.773
39.2178
36.2921
33.9094
31.9714
30.391
29.092
28.0375
27.1439
26.342
25.61
24.9285
24.2844
23.6679
23.0698
22.5774
22.148
21.6407
21.0676
20.4205
19.7109
83.5661
83.9254
83.8822
83.7206
83.4314
83.0603
82.6484
82.2259
81.8143
81.4287
81.0782
80.7682
80.5002
80.2739
80.0874
79.9375
79.8205
79.7321
79.6681
79.6243
79.5971
79.5818
79.5771
79.577
79.5819
79.5825
83.2664
82.6132
81.5724
80.117
78.0922
75.2669
71.7366
67.6333
63.0573
58.1394
53.0786
48.1316
43.5676
39.6075
36.3541
33.7422
31.6582
29.9893
28.6438
27.5464
26.6653
25.9154
25.2306
24.5972
24.0004
23.4305
22.88
22.4376
22.0491
21.5783
21.0263
20.4043
19.7025
18.9348
83.6181
84.1929
84.2792
84.2114
83.973
83.6182
83.1967
82.7464
82.2948
81.8617
81.4603
81.0987
80.7808
80.5074
80.2778
80.0894
79.9386
79.8211
79.7325
79.6684
79.6247
79.5973
79.582
79.5773
79.5771
79.5819
79.5825
83.1434
82.2636
80.9425
79.0635
76.3986
73.0314
69.085
64.6269
59.7469
54.6065
49.4421
44.5366
40.1578
36.4923
33.577
31.2972
29.5174
28.1157
26.9995
26.0963
25.3805
24.767
24.1931
23.6525
23.1353
22.635
22.2431
21.9067
21.4774
20.9619
20.3618
19.686
18.9257
18.095
83.5262
84.3665
84.6196
84.6803
84.5198
84.2019
83.7855
83.3167
82.8304
82.352
81.8994
81.4841
81.1126
80.7881
80.5107
80.279
80.0896
79.9384
79.8208
79.7324
79.6684
79.6247
79.5974
79.5823
79.5774
79.5771
79.5819
79.5825
82.8475
81.7039
79.9582
77.4414
74.2428
70.4711
66.1616
61.3678
56.2105
50.8923
45.6884
40.8988
36.7741
33.4541
30.9047
28.9676
27.4918
26.3514
25.4563
24.7385
24.1796
23.6951
23.2254
22.772
22.3295
21.9921
21.7084
21.3319
20.8586
20.295
19.6424
18.9088
18.0855
17.1865
83.2536
84.4176
84.8777
85.1062
85.056
84.7999
84.4072
83.9327
83.4195
82.8999
82.3971
81.927
81.4995
81.1198
80.7904
80.5105
80.2777
80.0881
79.937
79.8198
79.7316
79.6679
79.6244
79.5977
79.5826
79.5775
79.5771
79.5819
79.5825
82.3373
80.7854
78.4105
75.3706
71.7819
67.6441
62.9755
57.8594
52.4566
47.0157
41.8462
37.2508
33.4465
30.5149
28.3511
26.7603
25.5834
24.6956
24.0114
23.4696
23.0586
22.6953
22.3235
21.9519
21.6783
21.4524
21.1296
20.7099
20.1892
19.5735
18.8639
18.0681
17.1767
16.2043
82.7534
84.315
85.0246
85.465
85.5624
85.3981
85.0517
84.588
84.0589
83.5044
82.9544
82.4298
81.9443
81.5064
81.1208
80.7884
80.5074
80.2744
80.0851
79.9346
79.818
79.7303
79.667
79.6246
79.5982
79.5827
79.5775
79.577
79.5819
79.5826
81.458
79.3141
76.4298
73.012
69.0582
64.5459
59.5205
54.1008
48.4953
42.9993
37.9467
33.6256
30.2022
27.6929
25.9258
24.679
23.7922
23.1457
22.6615
22.2856
22.0134
21.7638
21.4837
21.2892
21.1316
20.8682
20.5031
20.0368
19.4649
18.7929
18.0219
17.1589
16.1944
15.1434
84.0196
81.8679
85.0273
85.7301
86.0167
85.9791
85.7065
85.274
84.7433
84.1632
83.5709
82.9936
82.4496
81.9511
81.5058
81.1165
80.7827
80.5016
80.2692
80.0809
79.9314
79.8155
79.7285
79.6671
79.6254
79.5985
79.5827
79.5774
79.5769
79.5819
79.5826
80.0339
77.426
74.1752
70.3937
66.0565
61.1634
55.7882
50.0938
44.3418
38.8708
34.0244
30.0554
27.0648
25.0017
23.6348
22.7247
22.116
21.6984
21.4026
21.1822
21.0398
20.8964
20.8052
20.7329
20.5399
20.2359
19.8252
19.3085
18.6814
17.9488
17.1115
16.1762
15.1334
13.9984
84.85
83.3806
80.4246
85.869
86.3941
86.5223
86.356
85.9796
85.4654
84.8719
84.2449
83.6184
83.0168
82.4565
81.9486
81.4986
81.1076
80.7737
80.4936
80.2625
80.0756
79.9271
79.8122
79.7282
79.6682
79.6258
79.5984
79.5825
79.5772
79.5768
79.5819
79.5827
78.2081
75.275
71.6644
67.4927
62.7599
57.4833
51.7732
45.8455
40.0179
34.6638
30.116
26.5707
24.0543
22.4513
21.481
20.8959
20.5516
20.3496
20.2301
20.1549
20.1337
20.1958
20.2356
20.1308
19.8995
19.5517
19.0918
18.5208
17.8342
17.0363
16.1276
15.1147
13.9884
12.7639
85.8483
84.364
82.2654
78.5948
86.6639
87.005
86.9815
86.6911
86.2157
85.6246
84.9731
84.3034
83.6465
83.0242
82.4519
81.9381
81.4858
81.0948
80.7621
80.4837
80.2545
80.0689
79.9219
79.8115
79.7299
79.6688
79.6258
79.5982
79.5822
79.577
79.5766
79.5819
79.5828
76.1287
72.8722
68.8679
64.2899
59.1517
53.4945
47.4747
41.3696
35.5527
30.4167
26.2585
23.1995
21.1868
20.0477
19.4643
19.1898
19.0949
19.0945
19.1394
19.1995
19.4022
19.6079
19.6194
19.4794
19.2067
18.8115
18.2987
17.669
16.9184
16.0503
15.065
13.9691
12.7539
11.4346
86.7966
85.5556
83.4099
80.7834
76.5241
87.3982
87.5622
87.3916
86.9822
86.4131
85.7506
85.0461
84.3382
83.6552
83.0176
82.4375
81.9206
81.4682
81.0786
80.7481
80.4721
80.2448
80.0611
79.9205
79.8138
79.7306
79.6687
79.6254
79.5976
79.5819
79.5768
79.5764
79.5819
79.5829
73.8022
70.1829
65.7661
60.767
55.2173
49.1893
42.897
36.6871
30.9823
26.1713
22.4884
19.9658
18.4739
17.7935
17.5825
17.6021
17.7407
17.9281
18.1257
18.4287
18.7885
18.9718
18.9528
18.7747
18.4572
18.0111
17.4411
16.7484
15.9289
14.9856
13.9185
12.7341
11.4246
10.0054
87.6762
86.7003
84.8362
82.096
79.0494
74.2148
88.071
88.0623
87.7498
87.2271
86.5706
85.8426
85.0903
84.3494
83.6468
82.999
82.4147
81.8974
81.4466
81.0597
80.7322
80.4585
80.2336
80.0588
79.9236
79.8148
79.7306
79.6682
79.6245
79.5973
79.5817
79.5764
79.5762
79.5819
79.5831
71.1879
67.188
62.3408
56.9079
50.9439
44.5629
38.0504
31.827
26.3492
21.9715
18.8396
16.8893
15.9227
15.6886
15.8321
16.1276
16.4835
16.8452
17.3087
17.7825
18.1249
18.284
18.2317
18.0125
17.6469
17.1457
16.5143
15.7539
14.8606
13.8367
12.6824
11.4041
9.9957
8.4714
88.4861
87.7701
86.2206
83.7695
80.536
77.0845
71.6184
88.6782
88.5017
88.0534
87.4243
86.6872
85.8997
85.1059
84.3399
83.6239
82.9703
82.3849
81.8693
81.4216
81.0384
80.7137
80.443
80.2301
80.063
79.9249
79.8148
79.7298
79.6669
79.6243
79.5972
79.5813
79.5761
79.5758
79.5819
79.5832
68.2676
63.8708
58.5759
52.6967
46.3189
39.6135
32.952
26.8266
21.7015
17.8612
15.3419
13.9842
13.5368
13.7305
14.2077
14.7603
15.3178
15.9735
16.6244
17.084
17.4074
17.5402
17.4521
17.1885
16.7709
16.2108
15.5134
14.6804
13.7081
12.5985
11.3517
9.97478
8.46222
6.8257
89.2208
88.7644
87.5235
85.407
82.4592
78.7765
74.8417
68.7156
89.2152
88.8771
88.3004
87.5727
86.7619
85.9221
85.0962
84.3127
83.5887
82.9331
82.3492
81.8371
81.3938
81.0139
80.6929
80.4379
80.2355
80.0647
79.9249
79.8138
79.7281
79.6669
79.6245
79.5969
79.5808
79.5756
79.5755
79.5819
79.5834
65.0265
60.2174
54.4548
48.1155
41.3297
34.3431
27.6268
21.732
17.091
13.882
12.0194
11.26
11.3162
11.9145
12.7032
13.4941
14.3805
15.244
15.8849
16.3293
16.6322
16.7363
16.6096
16.2982
15.8247
15.2012
14.4331
13.5225
12.466
11.2656
9.92152
8.44138
6.81938
4.75763
89.8742
89.6759
88.7468
86.9577
84.3496
80.9741
76.7723
72.3045
65.4918
89.6778
89.1858
88.4893
87.6707
86.7946
85.914
85.0652
84.2707
83.5432
82.8888
82.3088
81.8016
81.3622
80.9866
80.6858
80.4449
80.2377
80.0646
79.9235
79.8114
79.7283
79.6677
79.6245
79.5964
79.5802
79.575
79.5751
79.5819
79.5837
61.4528
56.2125
49.9572
43.1435
35.9624
28.7587
22.1114
16.5983
12.5713
10.0709
8.89065
8.72137
9.25781
10.2344
11.3118
12.4774
13.5971
14.4563
15.0866
15.5144
15.7949
15.868
15.6995
15.3366
14.8032
14.1117
13.2681
12.2749
11.1292
9.83308
8.38721
6.79922
4.7479
2.30977
90.4411
90.4963
89.8835
88.4248
86.1482
83.134
79.2741
74.5023
69.4662
61.9361
90.0626
89.4258
88.6181
87.7182
86.7904
85.8801
85.0163
84.2164
83.4893
82.8388
82.2644
81.7616
81.3272
80.977
80.6947
80.4477
80.2377
80.0629
79.9203
79.8121
79.7301
79.6682
79.6241
79.5956
79.5794
79.5744
79.5746
79.582
79.584
57.5333
51.8362
45.0575
37.7531
30.2022
22.8771
16.4545
11.4876
8.19443
6.4595
5.96812
6.36837
7.35622
8.68329
10.1962
11.6286
12.752
13.6069
14.2257
14.6351
14.8912
14.9307
14.717
14.299
13.7013
12.9373
12.0133
10.9325
9.69277
8.29639
6.74508
4.72369
2.29757
-0.160477
90.9174
91.2171
90.9239
89.8016
87.8586
85.1954
81.7278
77.3354
71.9612
66.3244
58.0359
90.3668
89.5945
88.6863
87.7213
86.7551
85.8246
84.9526
84.1518
83.4286
82.7842
82.2145
81.7173
81.3146
80.9882
80.6982
80.4477
80.2354
80.0586
79.9217
79.8153
79.7314
79.6682
79.6234
79.5946
79.5783
79.5736
79.5741
79.582
79.5843
53.2489
47.0625
39.7194
31.9092
24.0403
16.7298
10.719
6.46644
4.00858
3.07193
3.2575
4.19746
5.60418
7.44195
9.2664
10.7141
11.8418
12.6919
13.2978
13.6871
13.9165
13.9195
13.6574
13.1801
12.5139
11.6726
10.6634
9.49025
8.15202
6.65224
4.66662
2.27147
-0.168819
-2.61256
91.2998
91.8312
91.8574
91.0772
89.4747
87.1614
84.0762
80.102
75.1543
69.1507
62.8786
53.7727
90.5867
89.6909
88.7009
87.6867
86.6937
85.7512
84.8766
84.0792
83.3624
82.723
82.1595
81.7011
81.3286
80.9925
80.6982
80.4448
80.2299
80.0609
79.9269
79.8178
79.7321
79.6678
79.6224
79.5933
79.5771
79.5726
79.5735
79.5821
79.5847
48.5745
41.8543
33.8959
25.5808
17.4841
10.3679
4.98052
1.60267
0.0554856
-0.0760495
0.759266
2.20195
4.20556
6.40931
8.2661
9.7306
10.8627
11.7073
12.2988
12.666
12.8662
12.8299
12.5157
11.975
11.2357
10.3126
9.21363
7.94367
6.50388
4.56922
2.21104
-0.19181
-2.61942
-5.03695
91.5838
92.333
92.6739
92.2401
90.9851
89.025
86.323
82.7555
78.2532
72.7359
66.0786
59.1256
49.1212
90.7205
89.7227
88.6702
87.6207
86.6107
85.6631
84.7909
84
83.2884
82.6556
82.1391
81.7184
81.3338
80.9925
80.6946
80.4377
80.2334
80.0687
79.9312
79.8195
79.7322
79.6669
79.6209
79.5916
79.5757
79.5716
79.5728
79.5821
79.5851
43.4742
36.1562
27.5272
18.7329
10.5535
3.86484
-0.673695
-3.0385
-3.63284
-2.97628
-1.53126
0.613863
3.04522
5.30038
7.19224
8.67455
9.81094
10.6489
11.2244
11.5673
11.7359
11.6569
11.2869
10.6787
9.86195
8.85256
7.6594
6.28968
4.41518
2.10871
-0.250445
-2.64214
-5.04304
-7.42551
91.7659
92.7161
93.3635
93.2787
92.3785
90.7744
88.4601
85.3005
81.2274
76.188
70.0933
62.7555
55.059
44.0502
90.7768
89.7
88.6016
87.5287
86.5101
85.5634
84.6975
83.9117
83.207
82.6303
82.1601
81.7247
81.3338
80.9881
80.6855
80.4428
80.2447
80.0754
79.9344
79.8205
79.7317
79.6654
79.6191
79.5897
79.574
79.5703
79.5721
79.5822
79.5856
37.8881
29.8845
20.5305
11.3271
3.29121
-2.68335
-6.1506
-7.40042
-7.03422
-5.62853
-3.34744
-0.69942
1.80217
4.11268
6.04168
7.54235
8.68259
9.51283
10.0706
10.3869
10.5209
10.3959
9.96629
9.28647
8.38797
7.28804
5.99777
4.19366
1.94813
-0.353064
-2.7001
-5.0661
-7.43075
-9.76478
91.8556
92.9749
93.9136
94.1814
93.6426
92.3978
90.4743
87.7292
84.0829
79.499
73.9225
67.2448
59.1916
50.6731
38.5076
90.7677
89.6318
88.5018
87.4156
86.3956
85.4545
84.5934
83.8146
83.1762
82.6559
82.1678
81.7247
81.3284
80.9767
80.6927
80.4584
80.2544
80.0806
79.9366
79.8207
79.7304
79.6634
79.6167
79.5874
79.572
79.5689
79.5713
79.5823
79.5861
31.7282
22.9312
12.8109
3.34818
-4.22371
-9.16131
-11.3594
-11.4372
-10.1379
-7.72237
-4.84315
-2.10212
0.475036
2.84388
4.81137
6.33065
7.47415
8.29537
8.83345
9.12051
9.21706
9.04269
8.54949
7.79398
6.80963
5.6162
3.89271
1.7186
-0.516354
-2.80321
-5.12374
-7.45368
-9.76913
-12.0411
91.8671
93.1205
94.3109
94.9312
94.7642
93.8819
92.3518
90.0288
86.8136
82.6756
77.5874
71.4789
64.2102
55.3949
45.9513
32.4111
90.7038
89.526
88.3766
87.2858
86.2702
85.3331
84.4787
83.7775
83.2069
82.6649
82.1677
81.7182
81.3142
80.9864
80.7136
80.472
80.2623
80.0847
79.9379
79.8199
79.7284
79.6607
79.6139
79.5847
79.5698
79.5674
79.5705
79.5824
79.5867
24.8791
15.156
4.27797
-5.18208
-11.8663
-15.4397
-16.217
-15.1171
-12.5757
-9.43789
-6.43457
-3.59351
-0.936954
1.49197
3.4988
5.03658
6.18255
6.99323
7.50944
7.76457
7.82051
7.59314
7.03258
6.19748
5.12437
3.49931
1.40825
-0.750401
-2.96847
-5.22782
-7.51037
-9.79166
-12.0445
-14.2416
91.8131
93.1702
94.5638
95.5065
95.7226
95.2143
94.0774
92.1853
89.4085
85.715
81.0951
75.5173
68.8824
61.0093
51.3723
40.8606
25.6505
90.5948
89.3896
88.2313
87.143
86.1301
85.1992
84.4346
83.8141
83.2176
82.6649
82.1599
81.7007
81.327
81.0139
80.7322
80.4835
80.2689
80.0876
79.938
79.8182
79.7256
79.6573
79.6104
79.5816
79.5674
79.5658
79.5697
79.5825
79.5873
17.1609
6.37853
-5.14561
-14.1855
-19.4669
-21.3845
-20.6518
-17.9917
-14.5597
-11.2541
-8.11746
-5.17178
-2.43402
0.055799
2.10217
3.65801
4.80528
5.60359
6.0956
6.31592
6.32795
6.04401
5.41235
4.49486
2.99233
1.00322
-1.06668
-3.20532
-5.39497
-7.61471
-9.84701
-12.0665
-14.2441
-16.3539
91.7048
93.1395
94.6919
95.9109
96.4888
96.3721
95.6359
94.1821
91.8555
88.6096
84.4476
79.3661
73.317
66.1592
57.6633
47.1295
35.3643
18.0543
90.4489
89.2292
88.0704
86.983
85.9752
85.1474
84.4779
83.8266
83.2175
82.6556
82.1386
81.7171
81.3623
81.0384
80.7481
80.4933
80.2739
80.089
79.9368
79.8153
79.7217
79.6531
79.6064
79.5782
79.5648
79.5642
79.5688
79.5826
79.5879
8.29655
-3.63848
-15.4768
-23.5014
-26.8368
-26.8531
-24.0952
-20.311
-16.6459
-13.1607
-9.88576
-6.83418
-4.01496
-1.46456
0.620795
2.1936
3.34056
4.12442
4.58969
4.77215
4.73691
4.39285
3.68733
2.34353
0.481971
-1.47931
-3.52492
-5.63375
-7.78257
-9.95086
-12.1202
-14.2653
-16.3553
-18.3658
91.5523
93.0422
94.7146
96.1628
97.0621
97.3208
97.0007
96.0013
94.1389
91.3506
87.6419
83.035
77.518
71.0171
63.3356
54.1976
42.6662
29.4195
9.3416
90.2741
89.05
87.8895
86.8056
85.915
85.1984
84.4925
83.8265
83.2066
82.6299
82.1593
81.7618
81.3941
81.0597
80.7619
80.5012
80.2771
80.0887
79.9341
79.8111
79.7168
79.6481
79.6018
79.5745
79.5621
79.5624
79.568
79.5827
79.5886
-2.18522
-15.0742
-26.6548
-32.959
-33.7157
-31.0881
-26.8407
-22.7256
-18.8142
-15.1449
-11.7319
-8.57575
-5.67671
-3.06749
-0.944834
0.643076
1.78764
2.55464
2.99037
3.13189
3.04596
2.63904
1.51135
-0.184323
-2.00952
-3.94144
-5.95479
-8.02163
-10.1181
-12.2229
-14.317
-16.3755
-18.3664
-20.2671
91.3648
92.8905
94.6498
96.2808
97.4613
98.0574
98.1302
97.6103
96.2408
93.9253
90.6746
86.5266
81.5064
75.5818
68.6486
60.4404
50.6425
37.9766
22.9754
-0.98137
90.0768
88.8476
87.6882
86.7362
85.9746
85.2152
84.4924
83.8138
83.1757
82.6555
82.2149
81.802
81.4218
81.0785
80.7734
80.5067
80.2782
80.0865
79.9298
79.8055
79.7108
79.6424
79.5969
79.5705
79.5593
79.5607
79.5672
79.5828
79.5894
-14.9487
-28.1456
-38.8346
-42.003
-39.0827
-34.3965
-29.6557
-25.199
-21.0403
-17.1914
-13.6453
-10.3889
-7.41402
-4.74964
-2.59277
-0.992503
0.146975
0.894279
1.29756
1.39495
1.25561
0.431962
-1.03817
-2.68624
-4.47558
-6.372
-8.34165
-10.3556
-12.3883
-14.4178
-16.425
-18.3854
-20.2664
-22.0447
91.1502
92.6957
94.5137
96.2834
97.705
98.6011
99.0198
98.9557
98.1241
96.3182
93.5377
89.8444
85.2914
79.8932
73.5895
66.2439
57.5039
47.0302
33.0532
16.0066
-13.7741
89.8522
88.6212
87.6088
86.8055
85.994
85.2151
84.4776
83.7769
83.2069
82.7235
82.265
81.8375
81.4466
81.0945
80.7821
80.5097
80.2769
80.0822
79.9236
79.7984
79.7037
79.6361
79.5916
79.5664
79.5563
79.5588
79.5663
79.5829
79.5901
-31.6348
-43.0056
-50.7044
-49.1741
-43.2137
-37.696
-32.4749
-27.6893
-23.2978
-19.2813
-15.6116
-12.2631
-9.21932
-6.50576
-4.31936
-2.71053
-1.57956
-0.855155
-0.487472
-0.436697
-0.990248
-2.14404
-3.55238
-5.15613
-6.90545
-8.75606
-10.6719
-12.6223
-14.5802
-16.5231
-18.4322
-20.2831
-22.0438
-23.6925
90.904
92.4667
94.321
96.1892
97.8116
98.9716
99.6927
100.026
99.7238
98.4907
96.2201
92.9868
88.8855
83.9672
78.2272
71.5734
63.835
54.5561
43.4047
27.9065
8.59444
-31.5644
89.5998
88.5313
87.689
86.8277
85.9939
85.1981
84.434
83.8145
83.2891
82.785
82.3094
81.8695
81.468
81.1071
80.7875
80.5097
80.2729
80.0755
79.9154
79.7899
79.6958
79.6292
79.586
79.5621
79.5533
79.5569
79.5655
79.583
79.5909
-52.145
-55.7985
-61.9186
-54.3657
-47.1427
-40.8878
-35.2327
-30.1533
-25.5559
-21.391
-17.6131
-14.185
-11.0827
-8.32843
-6.11902
-4.50671
-3.38841
-2.69058
-2.36109
-2.7251
-3.59792
-4.67248
-6.02611
-7.58372
-9.28416
-11.0798
-12.9323
-14.8089
-16.6811
-18.5269
-20.3275
-22.0603
-23.6918
-25.2028
90.6262
92.1993
94.0835
96.0167
97.7986
99.188
100.172
100.843
101.018
100.368
98.6848
95.9491
92.2942
87.8274
82.5854
76.5401
69.563
61.4526
51.6443
39.8221
22.6327