/*--------------------------------*- C++ -*----------------------------------*\
  =========                 |
  \\      /  F ield         | OpenFOAM: The Open Source CFD Toolbox
   \\    /   O peration     | Website:  https://openfoam.org
    \\  /    A nd           | Version:  8
     \\/     M anipulation  |
\*---------------------------------------------------------------------------*/
FoamFile
{
    version     2.0;
    format      ascii;
    class       surfaceScalarField;
    location    "0.14";
    object      phi;
}
// * * * * * * * * * * * * * * * * * * * * * * * * * * * * * * * * * * * * * //

dimensions      [0 3 -1 0 0 0 0];

internalField   nonuniform List<scalar> 
31053
(
6.40188e-07
1.27398e-05
8.63245e-07
1.51569e-05
3.57478e-07
1.23823e-05
9.48927e-07
1.75543e-05
5.67764e-07
1.49467e-05
2.75391e-07
1.21069e-05
9.73649e-07
2.02153e-05
6.82632e-07
1.74394e-05
4.71432e-07
1.47506e-05
2.16926e-07
1.189e-05
9.6508e-07
2.32486e-05
7.41502e-07
2.01564e-05
5.97581e-07
1.73133e-05
3.97503e-07
1.457e-05
1.72587e-07
1.17174e-05
9.35198e-07
2.66899e-05
7.66723e-07
2.32233e-05
6.72972e-07
2.0081e-05
5.25186e-07
1.71856e-05
3.33596e-07
1.4409e-05
1.38397e-07
1.1579e-05
8.89799e-07
3.06654e-05
7.70085e-07
2.66865e-05
7.15331e-07
2.3181e-05
6.06583e-07
1.99996e-05
4.56221e-07
1.7063e-05
2.79666e-07
1.42678e-05
1.11509e-07
1.14675e-05
8.31958e-07
3.51978e-05
7.58053e-07
3.06774e-05
7.35572e-07
2.66663e-05
6.55236e-07
2.31323e-05
5.37776e-07
1.99181e-05
3.93372e-07
1.69493e-05
2.33036e-07
1.41462e-05
8.92458e-08
1.13783e-05
7.65487e-07
4.03865e-05
7.34826e-07
3.52211e-05
7.40161e-07
3.06728e-05
6.8122e-07
2.66403e-05
5.87354e-07
2.30828e-05
4.71402e-07
1.984e-05
3.35195e-07
1.68471e-05
1.91371e-07
1.40441e-05
6.97965e-08
1.13085e-05
6.93016e-07
4.63525e-05
7.0154e-07
4.04198e-05
7.32997e-07
3.52282e-05
6.90538e-07
3.06635e-05
6.13977e-07
2.66137e-05
5.18663e-07
2.30355e-05
4.06722e-07
1.97685e-05
2.8008e-07
1.67584e-05
1.52898e-07
1.3961e-05
5.20233e-08
1.12565e-05
6.16367e-07
5.32166e-05
6.59694e-07
4.63943e-05
7.1439e-07
4.04384e-05
6.86114e-07
3.52327e-05
6.2357e-07
3.06539e-05
5.42802e-07
2.65895e-05
4.48967e-07
2.29933e-05
3.42656e-07
1.97059e-05
2.26665e-07
1.66847e-05
1.1634e-07
1.38967e-05
3.51517e-08
1.12213e-05
5.3748e-07
6.10589e-05
6.11117e-07
5.32652e-05
6.8474e-07
4.6424e-05
6.70856e-07
4.04536e-05
6.19516e-07
3.52367e-05
5.49594e-07
3.06471e-05
4.68028e-07
2.65705e-05
3.77565e-07
2.29583e-05
2.7811e-07
1.96545e-05
1.73877e-07
1.66271e-05
8.07609e-08
1.38511e-05
1.86705e-08
1.12026e-05
4.5818e-07
7.00613e-05
5.5739e-07
6.11126e-05
6.45163e-07
5.33048e-05
6.45758e-07
4.64491e-05
6.04074e-07
4.04691e-05
5.42513e-07
3.52438e-05
4.69292e-07
3.06459e-05
3.89256e-07
2.65588e-05
3.03443e-07
2.2933e-05
2.12111e-07
1.96163e-05
1.20928e-07
1.65869e-05
4.54764e-08
1.38243e-05
2.39452e-09
1.12002e-05
3.8011e-07
8.04101e-05
4.99932e-07
7.01188e-05
5.96923e-07
6.11609e-05
6.10863e-07
5.33397e-05
5.78376e-07
4.64748e-05
5.23544e-07
4.0488e-05
4.56151e-07
3.52569e-05
3.82543e-07
3.06526e-05
3.05501e-07
2.65567e-05
2.25636e-07
2.29195e-05
1.43993e-07
1.95932e-05
6.72119e-08
1.65652e-05
1.01093e-08
1.38166e-05
-1.38765e-08
1.12141e-05
3.17228e-07
7.62529e-05
4.40061e-07
8.04699e-05
5.41478e-07
7.01742e-05
5.66488e-07
6.12052e-05
5.427e-07
5.33754e-05
4.93694e-07
4.65046e-05
4.30475e-07
4.05137e-05
3.60644e-07
3.52788e-05
2.88403e-07
3.06697e-05
2.15768e-07
2.65666e-05
1.43497e-07
2.292e-05
7.32465e-08
1.95872e-05
1.23892e-08
1.65629e-05
-2.55398e-08
1.38282e-05
-3.03162e-08
1.12444e-05
2.63922e-07
7.62433e-05
3.88775e-07
7.63042e-05
4.805e-07
8.05309e-05
5.13355e-07
7.02273e-05
4.97143e-07
6.12508e-05
4.53321e-07
5.34157e-05
3.93156e-07
4.65419e-05
3.25316e-07
4.0549e-05
2.55103e-07
3.53121e-05
1.85843e-07
3.06996e-05
1.19375e-07
2.65907e-05
5.65314e-08
2.29367e-05
-3.3182e-10
1.95999e-05
-4.36443e-08
1.6581e-05
-6.16049e-08
1.38595e-05
-4.69215e-08
1.12914e-05
2.18945e-07
7.6235e-05
3.42407e-07
7.62897e-05
4.26521e-07
7.63581e-05
4.52668e-07
8.05916e-05
4.42006e-07
7.02825e-05
4.02508e-07
6.13016e-05
3.44501e-07
5.34644e-05
2.77329e-07
4.65899e-05
2.07199e-07
4.05969e-05
1.38468e-07
3.53595e-05
7.41309e-08
3.07449e-05
1.58321e-08
2.66314e-05
-3.53633e-08
2.29717e-05
-7.66779e-08
1.96329e-05
-1.00846e-07
1.66203e-05
-9.79985e-08
1.39106e-05
-6.3525e-08
1.13549e-05
1.81204e-07
7.62297e-05
3.00572e-07
7.62768e-05
3.7643e-07
7.63398e-05
3.97306e-07
7.64135e-05
3.78133e-07
8.06555e-05
3.41398e-07
7.03436e-05
2.84587e-07
6.13615e-05
2.16891e-07
5.35248e-05
1.45312e-07
4.66518e-05
7.50204e-08
4.06604e-05
9.94678e-09
3.54237e-05
-4.72306e-08
3.08079e-05
-9.49165e-08
2.6691e-05
-1.3197e-07
2.3027e-05
-1.55519e-07
1.96876e-05
-1.5891e-07
1.66812e-05
-1.34442e-07
1.39815e-05
-7.99971e-08
1.14349e-05
1.49735e-07
7.62215e-05
2.62889e-07
7.62674e-05
3.30179e-07
7.63231e-05
3.44923e-07
7.63921e-05
3.19211e-07
7.64724e-05
2.70628e-07
8.07262e-05
2.13526e-07
7.04146e-05
1.4404e-07
6.14344e-05
6.952e-08
5.36006e-05
-4.07306e-09
4.67309e-05
-7.20909e-08
4.07424e-05
-1.30969e-07
3.55074e-05
-1.78258e-07
3.08913e-05
-2.12517e-07
2.67715e-05
-2.32778e-07
2.31043e-05
-2.36249e-07
1.97649e-05
-2.17321e-07
1.67641e-05
-1.70577e-07
1.40721e-05
-9.60776e-08
1.1531e-05
1.23722e-07
7.6216e-05
2.29011e-07
7.62553e-05
2.87647e-07
7.631e-05
2.95903e-07
7.63721e-05
2.63111e-07
7.64482e-05
2.05248e-07
7.65378e-05
1.31919e-07
8.08079e-05
5.88974e-08
7.04998e-05
-2.01994e-08
6.15241e-05
-9.88979e-08
5.36955e-05
-1.718e-07
4.68306e-05
-2.34651e-07
4.08461e-05
-2.84257e-07
3.56134e-05
-3.18445e-07
3.09972e-05
-3.36235e-07
2.6875e-05
-3.36875e-07
2.32049e-05
-3.17993e-07
1.98656e-05
-2.75424e-07
1.68689e-05
-2.05923e-07
1.41819e-05
-1.11585e-07
1.16425e-05
1.0229e-07
7.62114e-05
1.98569e-07
7.62465e-05
2.48691e-07
7.62943e-05
2.50413e-07
7.63554e-05
2.1051e-07
7.64247e-05
1.43002e-07
7.65105e-05
5.68768e-08
7.66129e-05
-3.78574e-08
8.09046e-05
-1.23707e-07
7.06033e-05
-2.09558e-07
6.16347e-05
-2.89472e-07
5.38131e-05
-3.58398e-07
4.69544e-05
-4.12599e-07
4.09745e-05
-4.49236e-07
3.57442e-05
-4.66845e-07
3.11278e-05
-4.64851e-07
2.70029e-05
-4.42979e-07
2.33299e-05
-3.9972e-07
1.99899e-05
-3.32426e-07
1.69954e-05
-2.39989e-07
1.43103e-05
-1.26191e-07
1.17687e-05
8.59484e-08
6.95983e-05
1.71289e-07
7.62387e-05
2.13145e-07
7.6282e-05
2.0853e-07
7.63362e-05
1.6179e-07
7.64042e-05
8.48105e-08
7.64829e-05
-1.42809e-08
7.65817e-05
-1.26198e-07
7.67012e-05
-2.40178e-07
8.10211e-05
-3.359e-07
7.07296e-05
-4.25319e-07
6.17706e-05
-5.02753e-07
5.39575e-05
-5.63771e-07
4.71055e-05
-6.05065e-07
4.11303e-05
-6.24746e-07
3.59021e-05
-6.21921e-07
3.12849e-05
-5.96668e-07
2.71566e-05
-5.49638e-07
2.34798e-05
-4.80224e-07
2.01377e-05
-3.8747e-07
1.71429e-05
-2.72162e-07
1.44563e-05
-1.39715e-07
1.19084e-05
7.34396e-08
6.25565e-05
1.4896e-07
6.96207e-05
1.809e-07
7.6271e-05
1.70276e-07
7.63203e-05
1.17177e-07
7.63808e-05
3.12533e-08
7.64577e-05
-8.04303e-08
7.6549e-05
-2.09478e-07
7.66649e-05
-3.45759e-07
7.68068e-05
-4.76905e-07
8.11621e-05
-5.79183e-07
7.08835e-05
-6.68078e-07
6.19359e-05
-7.38628e-07
5.41323e-05
-7.86853e-07
4.72873e-05
-8.10666e-07
4.13162e-05
-8.08909e-07
3.60891e-05
-7.81541e-07
3.14697e-05
-7.29789e-07
2.73368e-05
-6.55156e-07
2.36547e-05
-5.58212e-07
2.03084e-05
-4.39585e-07
1.73103e-05
-3.01962e-07
1.46186e-05
-1.51702e-07
1.20601e-05
6.36951e-08
5.62277e-05
1.30855e-07
6.25746e-05
1.54269e-07
6.96473e-05
1.3567e-07
7.63056e-05
7.68157e-08
7.63606e-05
-1.72914e-08
7.64293e-05
-1.40799e-07
7.65181e-05
-2.86387e-07
7.66259e-05
-4.44707e-07
7.67639e-05
-6.03943e-07
7.69338e-05
-7.49826e-07
8.13327e-05
-8.54227e-07
7.10696e-05
-9.37722e-07
6.2135e-05
-9.95828e-07
5.43413e-05
-1.02603e-06
4.75027e-05
-1.02716e-06
4.15344e-05
-9.99129e-07
3.63067e-05
-9.43338e-07
3.16833e-05
-8.61989e-07
2.75436e-05
-7.57748e-07
2.38543e-05
-6.32268e-07
2.05011e-05
-4.87933e-07
1.74963e-05
-3.28456e-07
1.47953e-05
-1.61395e-07
1.22215e-05
5.59904e-08
5.05397e-05
1.16065e-07
5.62425e-05
1.32545e-07
6.25963e-05
1.07259e-07
6.96757e-05
4.08e-08
7.63416e-05
-6.05725e-08
7.64039e-05
-1.94851e-07
7.64834e-05
-3.55961e-07
7.65877e-05
-5.35517e-07
7.67167e-05
-7.22394e-07
7.68823e-05
-9.02835e-07
7.70868e-05
-1.05973e-06
8.15382e-05
-1.16096e-06
7.12929e-05
-1.23279e-06
6.2372e-05
-1.2725e-06
5.45878e-05
-1.27865e-06
4.77542e-05
-1.25144e-06
4.17868e-05
-1.19254e-06
3.65559e-05
-1.10453e-06
3.19258e-05
-9.90965e-07
2.77768e-05
-8.55485e-07
2.40775e-05
-7.01137e-07
2.07143e-05
-5.31135e-07
1.7699e-05
-3.50999e-07
1.49849e-05
-1.68809e-07
1.23904e-05
4.98176e-08
4.54262e-05
1.03891e-07
5.05519e-05
1.14728e-07
5.62604e-05
8.43035e-08
6.26193e-05
1.17504e-08
6.97048e-05
-9.8419e-08
7.63794e-05
-2.42219e-07
7.64513e-05
-4.17496e-07
7.65449e-05
-6.17022e-07
7.66692e-05
-8.30542e-07
7.68249e-05
-1.04495e-06
7.70244e-05
-1.24338e-06
7.72705e-05
-1.40665e-06
8.17839e-05
-1.49774e-06
7.15578e-05
-1.55119e-06
6.26507e-05
-1.56558e-06
5.48747e-05
-1.54109e-06
4.80438e-05
-1.4801e-06
4.20743e-05
-1.38577e-06
3.68371e-05
-1.26227e-06
3.21971e-05
-1.11421e-06
2.80356e-05
-9.46624e-07
2.4323e-05
-7.62994e-07
2.09462e-05
-5.68424e-07
1.79164e-05
-3.66182e-07
1.51823e-05
-1.35308e-07
1.25257e-05
4.48136e-08
4.0831e-05
9.37922e-08
4.54363e-05
1.00035e-07
5.05666e-05
6.57255e-08
5.62789e-05
-1.12199e-08
6.26423e-05
-1.28141e-07
6.97345e-05
-2.82644e-07
7.64199e-05
-4.70486e-07
7.65043e-05
-6.88327e-07
7.66162e-05
-9.26991e-07
7.67656e-05
-1.1742e-06
7.69541e-05
-1.41351e-06
7.71946e-05
-1.62575e-06
7.74896e-05
-1.78879e-06
8.2075e-05
-1.86226e-06
7.18689e-05
-1.88943e-06
6.29745e-05
-1.87085e-06
5.52045e-05
-1.80936e-06
4.83731e-05
-1.70916e-06
4.23977e-05
-1.57534e-06
3.71502e-05
-1.41339e-06
3.24963e-05
-1.22944e-06
2.83184e-05
-1.02889e-06
2.45889e-05
-8.16651e-07
2.11944e-05
-5.94884e-07
1.81451e-05
-3.58441e-07
1.54054e-05
-8.526e-08
1.26109e-05
4.07116e-08
3.67001e-05
8.53609e-08
4.08394e-05
8.78553e-08
4.54485e-05
5.06624e-08
5.05816e-05
-2.93368e-08
5.6297e-05
-1.50876e-07
6.2665e-05
-3.13352e-07
6.97652e-05
-5.14573e-07
7.64639e-05
-7.48769e-07
7.65647e-05
-1.01063e-06
7.66999e-05
-1.28892e-06
7.68803e-05
-1.56784e-06
7.71085e-05
-1.82843e-06
7.73972e-05
-2.0481e-06
7.77489e-05
-2.20371e-06
8.24164e-05
-2.25065e-06
7.22301e-05
-2.24273e-06
6.33464e-05
-2.18375e-06
5.55789e-05
-2.07875e-06
4.87427e-05
-1.9344e-06
4.27568e-05
-1.75741e-06
3.74942e-05
-1.55505e-06
3.28219e-05
-1.33392e-06
2.86234e-05
-1.10057e-06
2.48728e-05
-8.57349e-07
2.14569e-05
-6.03595e-07
1.83903e-05
-3.31816e-07
1.5652e-05
-6.42413e-08
1.26752e-05
3.73133e-08
3.29894e-05
7.82907e-08
3.67072e-05
7.7712e-08
4.08496e-05
3.84304e-08
4.54607e-05
-4.35912e-08
5.05959e-05
-1.68091e-07
5.63143e-05
-3.3583e-07
6.26875e-05
-5.46846e-07
6.97975e-05
-7.97862e-07
7.6513e-05
-1.0806e-06
7.66347e-05
-1.38777e-06
7.67987e-05
-1.70444e-06
7.70169e-05
-2.01207e-06
7.72921e-05
-2.28788e-06
7.7637e-05
-2.50792e-06
7.80531e-05
-2.64717e-06
8.28129e-05
-2.65747e-06
7.26449e-05
-2.60579e-06
6.37684e-05
-2.4987e-06
5.59988e-05
-2.3443e-06
4.91526e-05
-2.15128e-06
4.31507e-05
-1.92856e-06
3.78677e-05
-1.68407e-06
3.31721e-05
-1.42546e-06
2.89483e-05
-1.15748e-06
2.51729e-05
-8.80432e-07
2.17337e-05
-5.99317e-07
1.86578e-05
-3.07882e-07
1.58956e-05
-5.83118e-08
1.27335e-05
3.44711e-08
2.96508e-05
7.23392e-08
3.29953e-05
6.924e-08
3.67156e-05
2.84715e-08
4.08595e-05
-5.47802e-08
4.54719e-05
-1.80974e-07
5.06088e-05
-3.51881e-07
5.63303e-05
-5.69252e-07
6.27099e-05
-8.32492e-07
6.98321e-05
-1.13628e-06
7.65687e-05
-1.46967e-06
7.67166e-05
-1.82164e-06
7.69159e-05
-2.17439e-06
7.71793e-05
-2.50514e-06
7.75094e-05
-2.78939e-06
7.79185e-05
-3.00078e-06
7.84067e-05
-3.11307e-06
8.32685e-05
-3.07672e-06
7.31158e-05
-2.97223e-06
6.4242e-05
-2.81001e-06
5.64645e-05
-2.60071e-06
4.9602e-05
-2.35578e-06
4.35779e-05
-2.08511e-06
3.82688e-05
-1.79778e-06
3.35444e-05
-1.50037e-06
2.92912e-05
-1.19596e-06
2.54885e-05
-8.91169e-07
2.20256e-05
-5.9134e-07
1.89412e-05
-2.94735e-07
1.6132e-05
-6.23736e-08
1.27958e-05
3.2074e-08
2.66504e-05
6.73107e-08
2.96559e-05
6.21467e-08
3.30024e-05
2.03279e-08
3.67238e-05
-6.35463e-08
4.08683e-05
-1.9048e-07
4.54814e-05
-3.62962e-07
5.06199e-05
-5.8403e-07
5.63451e-05
-8.55169e-07
6.27326e-05
-1.17424e-06
6.98701e-05
-1.53379e-06
7.66328e-05
-1.91812e-06
7.6813e-05
-2.31339e-06
7.70549e-05
-2.69719e-06
7.73713e-05
-3.0447e-06
7.77647e-05
-3.32842e-06
7.82461e-05
-3.52001e-06
7.88136e-05
-3.59479e-06
8.37866e-05
-3.50122e-06
7.36448e-05
-3.33557e-06
6.47675e-05
-3.11157e-06
5.69754e-05
-2.84328e-06
5.00895e-05
-2.54364e-06
4.40364e-05
-2.22393e-06
3.86949e-05
-1.89285e-06
3.39369e-05
-1.55577e-06
2.9651e-05
-1.22059e-06
2.58179e-05
-8.96814e-07
2.2331e-05
-5.85223e-07
1.92317e-05
-2.91002e-07
1.63607e-05
-8.57446e-08
1.28816e-05
3.00377e-08
2.3956e-05
6.30405e-08
2.66547e-05
5.61916e-08
2.96618e-05
1.36357e-08
3.30091e-05
-7.04062e-08
3.67306e-05
-1.97371e-07
4.08752e-05
-3.70237e-07
4.54887e-05
-5.92986e-07
5.06288e-05
-8.6868e-07
5.63586e-05
-1.19768e-06
6.2756e-05
-1.57629e-06
6.99126e-05
-1.99281e-06
7.67075e-05
-2.42743e-06
7.69271e-05
-2.86166e-06
7.72194e-05
-3.27073e-06
7.75973e-05
-3.62619e-06
7.80625e-05
-3.89792e-06
7.8624e-05
-4.05858e-06
7.92774e-05
-4.08435e-06
8.43698e-05
-3.92363e-06
7.42328e-05
-3.68875e-06
6.53447e-05
-3.39786e-06
5.753e-05
-3.06708e-06
5.06129e-05
-2.71125e-06
4.45237e-05
-2.34187e-06
3.91439e-05
-1.96693e-06
3.4348e-05
-1.59521e-06
3.00256e-05
-1.23769e-06
2.61588e-05
-9.00721e-07
2.26465e-05
-5.82215e-07
1.95229e-05
-3.59907e-07
1.66348e-05
-9.42719e-08
1.29759e-05
2.82974e-08
2.15337e-05
5.9394e-08
2.39597e-05
5.1173e-08
2.66597e-05
8.11223e-09
2.96673e-05
-7.57708e-08
3.30145e-05
-2.0225e-07
3.67355e-05
-3.74632e-07
4.08796e-05
-5.97562e-07
4.54932e-05
-8.75273e-07
5.06354e-05
-1.21003e-06
5.6371e-05
-1.60115e-06
6.27808e-05
-2.04129e-06
6.9961e-05
-2.51515e-06
7.67952e-05
-2.99651e-06
7.70619e-05
-3.46463e-06
7.74133e-05
-3.89048e-06
7.78616e-05
-4.24239e-06
7.84069e-05
-4.49055e-06
7.9056e-05
-4.6079e-06
7.9801e-05
-4.5735e-06
8.50196e-05
-4.33582e-06
7.48799e-05
-4.02536e-06
6.59722e-05
-3.66321e-06
5.81261e-05
-3.268e-06
5.11697e-05
-2.85546e-06
4.50373e-05
-2.43687e-06
3.96139e-05
-2.02257e-06
3.47754e-05
-1.62388e-06
3.04118e-05
-1.24999e-06
2.6508e-05
-9.03253e-07
2.29676e-05
-7.16829e-07
1.98798e-05
-3.59591e-07
1.69001e-05
-1.03521e-07
1.30794e-05
2.68021e-08
1.93535e-05
5.62656e-08
2.15369e-05
4.69238e-08
2.39639e-05
3.54e-09
2.66643e-05
-7.9961e-08
2.96715e-05
-2.05591e-07
3.30178e-05
-3.76871e-07
3.67378e-05
-5.98895e-07
4.08809e-05
-8.76735e-07
4.54947e-05
-1.2141e-06
5.06395e-05
-1.6126e-06
5.63824e-05
-2.06844e-06
6.2808e-05
-2.57138e-06
7.00173e-05
-3.10007e-06
7.68988e-05
-3.62395e-06
7.72213e-05
-4.11795e-06
7.76408e-05
-4.54924e-06
7.81685e-05
-4.88577e-06
7.88022e-05
-5.09725e-06
7.95453e-05
-5.15894e-06
8.03864e-05
-5.05299e-06
8.57368e-05
-4.73046e-06
7.5585e-05
-4.33891e-06
6.66479e-05
-3.90289e-06
5.8761e-05
-3.44266e-06
5.17569e-05
-2.97426e-06
4.55747e-05
-2.51057e-06
4.01019e-05
-2.06386e-06
3.52154e-05
-1.64413e-06
3.08059e-05
-1.25767e-06
2.68624e-05
-1.11584e-06
2.33666e-05
-7.08636e-07
2.02289e-05
-3.59634e-07
1.71563e-05
-1.10683e-07
1.31901e-05
1.73973e-05
2.55115e-08
5.35706e-08
1.93562e-05
4.33093e-08
2.15405e-05
-2.53627e-10
2.39677e-05
-8.32277e-08
2.66675e-05
-2.07764e-07
2.96737e-05
-3.77521e-07
3.30185e-05
-5.97871e-07
3.67367e-05
-8.74473e-07
4.08787e-05
-1.21208e-06
4.54927e-05
-1.61407e-06
5.06409e-05
-2.07941e-06
5.63934e-05
-2.60197e-06
6.28386e-05
-3.16613e-06
7.00833e-05
-3.74656e-06
7.70214e-05
-4.30563e-06
7.74089e-05
-4.81456e-06
7.79061e-05
-5.23947e-06
7.85222e-05
-5.54692e-06
7.92518e-05
-5.70834e-06
8.00947e-05
-5.70152e-06
8.1035e-05
-5.51449e-06
8.65208e-05
-5.10008e-06
7.63462e-05
-4.62391e-06
6.73689e-05
-4.11314e-06
5.94315e-05
-3.58887e-06
5.23715e-05
-3.06841e-06
4.61325e-05
-2.56599e-06
4.0604e-05
-2.09273e-06
3.5664e-05
-1.65628e-06
3.12046e-05
-1.55673e-06
2.73033e-05
-1.10298e-06
2.37609e-05
-6.98112e-07
2.05674e-05
-3.57529e-07
1.74031e-05
-1.15374e-07
1.33054e-05
1.73996e-05
5.12375e-08
2.78121e-05
2.34052e-08
4.02217e-08
1.93593e-05
-3.41027e-09
2.15436e-05
-8.57668e-08
2.39703e-05
-2.09059e-07
2.66688e-05
-3.7702e-07
2.96732e-05
-5.9518e-07
3.30158e-05
-8.69579e-07
3.67318e-05
-1.20572e-06
4.08723e-05
-1.60828e-06
4.54869e-05
-2.07836e-06
5.06399e-05
-2.61311e-06
5.64045e-05
-3.20162e-06
6.28741e-05
-3.82498e-06
7.01617e-05
-4.45092e-06
7.71667e-05
-5.0348e-06
7.76292e-05
-5.54707e-06
7.82137e-05
-5.95152e-06
7.89268e-05
-6.21571e-06
7.97592e-05
-6.31289e-06
8.07061e-05
-6.22645e-06
8.17469e-05
-5.94941e-06
8.73702e-05
-5.43827e-06
7.71605e-05
-4.87599e-06
6.81318e-05
-4.29131e-06
6.01339e-05
-3.70657e-06
5.30097e-05
-3.13999e-06
4.67065e-05
-2.60469e-06
4.1116e-05
-2.10965e-06
3.61173e-05
-2.05147e-06
3.16993e-05
-1.54009e-06
2.77404e-05
-1.08343e-06
2.41462e-05
-6.83803e-07
2.08936e-05
-3.52544e-07
1.76403e-05
-1.17612e-07
1.34231e-05
1.74023e-05
3.75748e-08
2.78159e-05
4.74565e-08
2.8552e-05
2.13951e-08
-6.04533e-09
1.93619e-05
-8.77323e-08
2.15456e-05
-2.09697e-07
2.39709e-05
-3.75707e-07
2.66675e-05
-5.9135e-07
2.96694e-05
-8.62898e-07
3.30091e-05
-1.19636e-06
3.67225e-05
-1.59736e-06
4.08614e-05
-2.06862e-06
4.54771e-05
-2.60982e-06
5.06366e-05
-3.21389e-06
5.64168e-05
-3.86724e-06
6.29163e-05
-4.54465e-06
7.02555e-05
-5.20677e-06
7.73387e-05
-5.80437e-06
7.78865e-05
-6.30581e-06
7.8568e-05
-6.675e-06
7.93861e-05
-6.88056e-06
8.03269e-05
-6.9009e-06
8.13806e-05
-6.7241e-06
8.25216e-05
-6.35029e-06
8.82822e-05
-5.73988e-06
7.80244e-05
-5.09187e-06
6.89323e-05
-4.43657e-06
6.08639e-05
-3.79699e-06
5.36667e-05
-3.19016e-06
4.7292e-05
-2.62721e-06
4.16335e-05
-2.61373e-06
3.66796e-05
-2.03011e-06
3.21893e-05
-1.51217e-06
2.81692e-05
-1.05712e-06
2.45196e-05
-6.65373e-07
2.12065e-05
-3.44654e-07
1.78673e-05
-1.17738e-07
1.35408e-05
1.74045e-05
-8.2549e-09
2.78196e-05
3.38286e-08
2.85556e-05
4.38177e-08
2.93119e-05
1.94848e-08
-8.92458e-08
1.93634e-05
-2.09854e-07
2.15458e-05
-3.73841e-07
2.3969e-05
-5.86783e-07
2.66629e-05
-8.55073e-07
2.96616e-05
-1.18504e-06
3.29978e-05
-1.58296e-06
3.67081e-05
-2.05277e-06
4.08455e-05
-2.5961e-06
4.54634e-05
-3.20889e-06
5.06316e-05
-3.88196e-06
5.64315e-05
-4.59599e-06
6.29677e-05
-5.31923e-06
7.03679e-05
-6.0075e-06
7.75418e-05
-6.60482e-06
7.81855e-05
-7.08027e-06
7.89733e-05
-7.39788e-06
7.99034e-05
-7.53081e-06
8.09568e-05
-7.46178e-06
8.21182e-05
-7.18602e-06
8.33573e-05
-6.71094e-06
8.92532e-05
-6.00076e-06
7.89333e-05
-5.26989e-06
6.97656e-05
-4.54935e-06
6.16163e-05
-3.86088e-06
5.43374e-05
-3.21956e-06
4.78844e-05
-3.25588e-06
4.22757e-05
-2.58672e-06
3.72362e-05
-1.99288e-06
3.267e-05
-1.47397e-06
2.8586e-05
-1.02455e-06
2.48787e-05
-6.43173e-07
2.1505e-05
-3.34219e-07
1.80838e-05
-1.16137e-07
1.36569e-05
1.74056e-05
-9.04036e-08
2.78217e-05
-1.03697e-08
2.85592e-05
3.03051e-08
2.93154e-05
4.03263e-08
3.00898e-05
1.76749e-08
-2.09661e-07
1.93632e-05
-3.71617e-07
2.15435e-05
-5.81783e-07
2.3964e-05
-8.46589e-07
2.66545e-05
-1.17254e-06
2.96491e-05
-1.56636e-06
3.29812e-05
-2.03284e-06
3.66882e-05
-2.57509e-06
4.08245e-05
-3.19141e-06
4.54459e-05
-3.87613e-06
5.06258e-05
-4.61491e-06
5.64504e-05
-5.38248e-06
6.30309e-05
-6.14265e-06
7.05031e-05
-6.84391e-06
7.77809e-05
-7.42574e-06
7.8531e-05
-7.85814e-06
7.94335e-05
-8.10896e-06
8.04815e-05
-8.15503e-06
8.165e-05
-7.98609e-06
8.29183e-05
-7.60495e-06
8.42513e-05
-7.02614e-06
9.02786e-05
-6.21834e-06
7.98818e-05
-5.40973e-06
7.0626e-05
-4.63002e-06
6.23854e-05
-3.89895e-06
5.50168e-05
-3.99155e-06
4.862e-05
-3.22273e-06
4.29117e-05
-2.53888e-06
3.77822e-05
-1.94172e-06
3.31378e-05
-1.42685e-06
2.89883e-05
-9.86762e-07
2.52223e-05
-6.17874e-07
2.17886e-05
-3.21736e-07
1.82894e-05
-1.13199e-07
1.37701e-05
1.74052e-05
-2.09222e-07
2.78206e-05
-8.92352e-08
2.8561e-05
-1.22079e-08
2.93187e-05
2.70027e-08
3.00932e-05
3.69836e-08
3.08897e-05
1.59656e-08
-3.69183e-07
1.93608e-05
-5.76576e-07
2.15383e-05
-8.37806e-07
2.39553e-05
-1.15946e-06
2.66414e-05
-1.54852e-06
2.96312e-05
-2.01038e-06
3.29587e-05
-2.54923e-06
3.66623e-05
-3.16521e-06
4.07983e-05
-3.85541e-06
4.54252e-05
-4.60954e-06
5.06204e-05
-5.40785e-06
5.64758e-05
-6.22117e-06
6.31095e-05
-7.00619e-06
7.06654e-05
-7.70589e-06
7.8061e-05
-8.25476e-06
7.89276e-05
-8.62792e-06
7.99525e-05
-8.79609e-06
8.11226e-05
-8.74282e-06
8.24068e-05
-8.46555e-06
8.37789e-05
-7.97465e-06
8.51998e-05
-7.29229e-06
9.13526e-05
-6.39154e-06
8.08636e-05
-5.51132e-06
7.15073e-05
-4.67926e-06
6.31657e-05
-4.83649e-06
5.58617e-05
-3.95213e-06
4.93494e-05
-3.16316e-06
4.3536e-05
-2.47311e-06
3.83136e-05
-1.87876e-06
3.35897e-05
-1.37258e-06
2.93741e-05
-9.44941e-07
2.55494e-05
-5.90256e-07
2.20572e-05
-3.0773e-07
1.84839e-05
-1.09267e-07
1.38794e-05
1.74027e-05
-3.6665e-07
2.78146e-05
-2.03193e-07
2.85595e-05
-8.76839e-08
2.93203e-05
-1.37559e-08
3.00962e-05
2.39265e-08
3.08929e-05
3.37944e-08
3.17096e-05
1.43556e-08
-5.71328e-07
1.93556e-05
-8.28989e-07
2.15295e-05
-1.14622e-06
2.3942e-05
-1.53015e-06
2.6623e-05
-1.98655e-06
2.96074e-05
-2.5204e-06
3.29299e-05
-3.13321e-06
3.66303e-05
-3.82424e-06
4.07671e-05
-4.58646e-06
4.54021e-05
-5.4047e-06
5.06173e-05
-6.25582e-06
5.65104e-05
-7.1039e-06
6.32072e-05
-7.90017e-06
7.08597e-05
-8.58124e-06
7.83875e-05
-9.08022e-06
7.93799e-05
-9.37685e-06
8.05332e-05
-9.44806e-06
8.18279e-05
-9.28498e-06
8.32262e-05
-8.89288e-06
8.46971e-05
-8.29051e-06
8.61981e-05
-7.50742e-06
9.24685e-05
-6.51973e-06
8.1872e-05
-5.57523e-06
7.24033e-05
-5.80874e-06
6.4138e-05
-4.79116e-06
5.67007e-05
-3.87993e-06
5.00662e-05
-3.0811e-06
4.4144e-05
-2.39239e-06
3.88272e-05
-1.8065e-06
3.40236e-05
-1.31297e-06
2.97422e-05
-9.00293e-07
2.58594e-05
-5.61074e-07
2.23105e-05
-2.92696e-07
1.86674e-05
-1.04643e-07
1.3984e-05
1.73975e-05
-5.66157e-07
2.7802e-05
-3.5407e-07
2.85529e-05
-1.9667e-07
2.93183e-05
-8.5763e-08
3.00975e-05
-1.50132e-08
3.08957e-05
2.10752e-08
3.17126e-05
3.07624e-08
3.25535e-05
1.28467e-08
-8.2033e-07
1.93469e-05
-1.13314e-06
2.15164e-05
-1.51177e-06
2.39236e-05
-1.96222e-06
2.65987e-05
-2.49002e-06
2.9577e-05
-3.09767e-06
3.28944e-05
-3.78611e-06
3.65922e-05
-4.5509e-06
4.07316e-05
-5.38062e-06
4.5378e-05
-6.2572e-06
5.06186e-05
-7.15122e-06
5.65577e-05
-8.02153e-06
6.33285e-05
-8.81273e-06
7.10911e-05
-9.45836e-06
7.87656e-05
-9.88899e-06
7.9892e-05
-1.00931e-05
8.11782e-05
-1.00548e-05
8.25976e-05
-9.77315e-06
8.41065e-05
-9.26249e-06
8.56691e-05
-8.54979e-06
8.72404e-05
-7.6703e-06
9.3619e-05
-6.60328e-06
8.29001e-05
-6.92771e-06
7.35223e-05
-5.75852e-06
6.51053e-05
-4.70566e-06
5.75265e-05
-3.77993e-06
5.0765e-05
-2.98048e-06
4.4732e-05
-2.29999e-06
3.93207e-05
-1.72739e-06
3.4438e-05
-1.24975e-06
3.00916e-05
-8.539e-07
2.61523e-05
-5.31025e-07
2.25488e-05
-2.77088e-07
1.88398e-05
-9.95633e-08
1.40836e-05
1.73891e-05
-8.1196e-07
2.77809e-05
-5.45093e-07
2.85397e-05
-3.4081e-07
2.93113e-05
-1.89602e-07
3.00952e-05
-8.34429e-08
3.08967e-05
-1.59805e-08
3.17153e-05
1.84492e-08
3.25564e-05
2.78848e-08
3.34194e-05
1.14354e-08
-1.12045e-06
1.93342e-05
-1.49376e-06
2.14984e-05
-1.93803e-06
2.38994e-05
-2.45912e-06
2.65678e-05
-3.06028e-06
2.95396e-05
-3.7437e-06
3.28519e-05
-4.50696e-06
3.65482e-05
-5.34166e-06
4.06926e-05
-6.23397e-06
4.53548e-05
-7.16003e-06
5.06274e-05
-8.0855e-06
5.66217e-05
-8.96265e-06
6.34784e-05
-9.73253e-06
7.13653e-05
-1.0324e-05
7.92006e-05
-1.06687e-05
8.04676e-05
-1.07656e-05
8.18891e-05
-1.06068e-05
8.34313e-05
-1.02007e-05
8.50447e-05
-9.57074e-06
8.66901e-05
-8.7506e-06
8.83207e-05
-7.78092e-06
9.47967e-05
-8.21571e-06
8.41881e-05
-6.87463e-06
7.46384e-05
-5.65943e-06
6.60591e-05
-4.58612e-06
5.83326e-05
-3.65711e-06
5.14417e-05
-2.86541e-06
4.52975e-05
-2.19904e-06
3.97924e-05
-1.64372e-06
3.4832e-05
-1.18442e-06
3.04221e-05
-8.06732e-07
2.6428e-05
-5.00733e-07
2.27725e-05
-2.61245e-07
1.90015e-05
-9.42335e-08
1.41778e-05
1.7377e-05
-1.10829e-06
2.77491e-05
-7.80144e-07
2.85178e-05
-5.23184e-07
2.92974e-05
-3.2691e-07
3.00876e-05
-1.82067e-07
3.0894e-05
-8.07458e-08
3.17159e-05
-1.66558e-08
3.25588e-05
1.60481e-08
3.34221e-05
2.51665e-08
3.43053e-05
1.01205e-08
-1.47639e-06
1.93168e-05
-1.91443e-06
2.14748e-05
-2.42849e-06
2.38688e-05
-3.02233e-06
2.65298e-05
-3.69904e-06
2.9495e-05
-4.4578e-06
3.28028e-05
-5.2926e-06
3.64992e-05
-6.19308e-06
4.06517e-05
-7.14008e-06
4.53349e-05
-8.10523e-06
5.06472e-05
-9.04781e-06
5.67069e-05
-9.91634e-06
6.36623e-05
-1.06463e-05
7.16877e-05
-1.11653e-05
7.96973e-05
-1.14077e-05
8.11097e-05
-1.13842e-05
8.26665e-05
-1.10965e-05
8.43271e-05
-1.05631e-05
8.6037e-05
-9.81492e-06
8.77544e-05
-8.8924e-06
8.94322e-05
-9.69798e-06
9.62789e-05
-8.16384e-06
8.54773e-05
-6.7625e-06
7.57414e-05
-5.51888e-06
6.69919e-05
-4.43865e-06
5.91142e-05
-3.51655e-06
5.20928e-05
-2.7398e-06
4.58382e-05
-2.09244e-06
4.02411e-05
-1.55747e-06
3.5205e-05
-1.1183e-06
3.07337e-05
-7.59639e-07
2.66869e-05
-4.70643e-07
2.29819e-05
-2.4548e-07
1.91527e-05
-8.88077e-08
1.42666e-05
1.73604e-05
-1.45982e-06
2.77042e-05
-1.0634e-06
2.84849e-05
-7.47277e-07
2.92746e-05
-5.0038e-07
3.0073e-05
-3.12321e-07
3.0886e-05
-1.74019e-07
3.17129e-05
-7.76665e-08
3.25592e-05
-1.7046e-08
3.34243e-05
1.38671e-08
3.43079e-05
2.26056e-08
3.52192e-05
8.90083e-09
-1.89174e-06
1.92941e-05
-2.39867e-06
2.1445e-05
-2.98472e-06
2.38312e-05
-3.65366e-06
2.64844e-05
-4.40583e-06
2.9443e-05
-5.23716e-06
3.27473e-05
-6.14004e-06
3.64462e-05
-7.09927e-06
4.06109e-05
-8.09158e-06
4.53212e-05
-9.08255e-06
5.06819e-05
-1.00277e-05
5.68183e-05
-1.08696e-05
6.38855e-05
-1.15414e-05
7.20638e-05
-1.19703e-05
8.02599e-05
-1.20948e-05
8.18203e-05
-1.194e-05
8.351e-05
-1.15183e-05
8.52823e-05
-1.08566e-05
8.70787e-05
-9.99387e-06
8.88559e-05
-1.11049e-05
9.08391e-05
-9.65503e-06
9.77701e-05
-8.04106e-06
8.67558e-05
-6.60012e-06
7.68227e-05
-5.34429e-06
6.78975e-05
-4.26948e-06
5.98671e-05
-3.36305e-06
5.27161e-05
-2.60724e-06
4.6353e-05
-1.98267e-06
4.06663e-05
-1.47033e-06
3.55571e-05
-1.05252e-06
3.10266e-05
-7.13209e-07
2.69294e-05
-4.41175e-07
2.31776e-05
-2.30022e-07
1.92939e-05
-8.3397e-08
1.435e-05
1.73388e-05
-1.87015e-06
2.76433e-05
-1.39895e-06
2.84387e-05
-1.01722e-06
2.92407e-05
-7.13407e-07
3.00494e-05
-4.76752e-07
3.08708e-05
-2.97109e-07
3.17043e-05
-1.65493e-07
3.25557e-05
-7.42202e-08
3.34244e-05
-1.71524e-08
3.43098e-05
1.19026e-08
3.52216e-05
2.0199e-08
3.61551e-05
7.77324e-09
-2.37003e-06
1.92655e-05
-2.94812e-06
2.14084e-05
-3.60866e-06
2.37862e-05
-4.35288e-06
2.64315e-05
-5.17816e-06
2.9384e-05
-6.07916e-06
3.26865e-05
-7.0439e-06
3.63908e-05
-8.05344e-06
4.05728e-05
-9.07884e-06
4.53175e-05
-1.00821e-05
5.07363e-05
-1.10126e-05
5.69613e-05
-1.18098e-05
6.41539e-05
-1.24052e-05
7.24986e-05
-1.2727e-05
8.08922e-05
-1.27203e-05
8.26006e-05
-1.24267e-05
8.44184e-05
-1.18677e-05
8.62934e-05
-1.10794e-05
8.81642e-05
-1.25083e-05
9.02593e-05
-1.1079e-05
9.22631e-05
-9.52696e-06
9.9256e-05
-7.85766e-06
8.80134e-05
-6.39641e-06
7.78748e-05
-5.14318e-06
6.87712e-05
-4.08438e-06
6.05884e-05
-3.20096e-06
5.33098e-05
-2.47077e-06
4.68411e-05
-1.87185e-06
4.10678e-05
-1.38376e-06
3.58883e-05
-9.87849e-07
3.13012e-05
-6.67993e-07
2.71562e-05
-4.12628e-07
2.33602e-05
-2.15025e-07
1.94256e-05
-7.80899e-08
1.44281e-05
1.73116e-05
-2.34283e-06
2.75634e-05
-1.79024e-06
2.83762e-05
-1.33638e-06
2.9193e-05
-9.69532e-07
3.00144e-05
-6.78369e-07
3.08463e-05
-4.52294e-07
3.16885e-05
-2.813e-07
3.25467e-05
-1.56502e-07
3.34206e-05
-7.04136e-08
3.43097e-05
-1.69803e-08
3.52234e-05
1.01463e-08
3.61574e-05
1.79433e-08
3.6589e-05
6.74901e-09
-2.913e-06
1.92304e-05
-3.56484e-06
2.13646e-05
-4.30025e-06
2.37336e-05
-5.11776e-06
2.63711e-05
-6.01376e-06
2.93186e-05
-6.97891e-06
3.26215e-05
-7.99791e-06
3.63353e-05
-9.04654e-06
4.05405e-05
-1.00925e-05
4.53279e-05
-1.10917e-05
5.08154e-05
-1.199e-05
5.71415e-05
-1.27243e-05
6.4473e-05
-1.32254e-05
7.2997e-05
-1.34251e-05
8.15969e-05
-1.32769e-05
8.34508e-05
-1.28385e-05
8.53892e-05
-1.21418e-05
8.73557e-05
-1.39022e-05
8.95581e-05
-1.25096e-05
9.16899e-05
-1.09543e-05
9.36904e-05
-9.32555e-06
0.000100724
-7.62395e-06
8.92409e-05
-6.16033e-06
7.8892e-05
-4.92251e-06
6.96094e-05
-3.88868e-06
6.12762e-05
-3.03402e-06
5.3873e-05
-2.333e-06
4.73023e-05
-1.76181e-06
4.14459e-05
-1.29873e-06
3.61992e-05
-9.25007e-07
3.15582e-05
-6.2438e-07
2.7368e-05
-3.85183e-07
2.35303e-05
-2.00611e-07
1.95481e-05
-7.29538e-08
1.45011e-05
1.72783e-05
-2.87964e-06
2.74612e-05
-2.24059e-06
2.82946e-05
-1.70864e-06
2.91289e-05
-1.27232e-06
2.99655e-05
-9.20649e-07
3.08104e-05
-6.42428e-07
3.16633e-05
-4.27065e-07
3.25303e-05
-2.64874e-07
3.34112e-05
-1.47067e-07
3.43055e-05
-6.62635e-08
3.52229e-05
-1.65328e-08
3.61589e-05
8.58877e-09
3.65911e-05
1.58596e-08
3.55529e-05
5.85515e-09
-3.52275e-06
1.91883e-05
-4.24892e-06
2.13133e-05
-5.05753e-06
2.36734e-05
-5.94636e-06
2.63037e-05
-6.90816e-06
2.92478e-05
-7.93065e-06
3.25542e-05
-8.99362e-06
3.62823e-05
-1.00698e-05
4.05178e-05
-1.11211e-05
4.53573e-05
-1.20994e-05
5.09248e-05
-1.29475e-05
5.73647e-05
-1.36006e-05
6.48481e-05
-1.39911e-05
7.3563e-05
-1.40559e-05
8.2376e-05
-1.37577e-05
8.437e-05
-1.31718e-05
8.64192e-05
-1.52789e-05
8.87324e-05
-1.39426e-05
9.09912e-05
-1.23982e-05
9.31338e-05
-1.07436e-05
9.51085e-05
-9.06268e-06
0.000102163
-7.3504e-06
9.0431e-05
-5.9002e-06
7.98696e-05
-4.68871e-06
7.04094e-05
-3.68692e-06
6.19291e-05
-2.86542e-06
5.44055e-05
-2.1962e-06
4.77366e-05
-1.65377e-06
4.18009e-05
-1.21618e-06
3.64904e-05
-8.64498e-07
3.17984e-05
-5.82594e-07
2.75654e-05
-3.58991e-07
2.36887e-05
-1.86874e-07
1.9662e-05
-6.80313e-08
1.45691e-05
1.72383e-05
-3.48276e-06
2.73339e-05
-2.75236e-06
2.81904e-05
-2.13647e-06
2.90452e-05
-1.62493e-06
2.98999e-05
-1.20673e-06
3.07602e-05
-8.70526e-07
3.16264e-05
-6.0552e-07
3.25044e-05
-4.01176e-07
3.33942e-05
-2.47948e-07
3.42957e-05
-1.37238e-07
3.52185e-05
-6.17922e-08
3.61582e-05
-1.58088e-08
3.65925e-05
7.23858e-09
3.55547e-05
1.40055e-08
3.45448e-05
5.07345e-09
-4.19956e-06
1.91389e-05
-4.99862e-06
2.12543e-05
-5.87881e-06
2.36058e-05