# Residuals   
# Time        	p             	Ux            	Uy            	k             	epsilon       
0             	N/A	N/A	N/A	N/A
0.000119048   	1.000000e+00	0.000000e+00	1.000000e+00	1.000000e+00	4.608131e-02
0.000260204   	2.643236e-02	2.025113e-01	8.261981e-01	3.871896e-02	1.731055e-02
0.000428132   	3.200627e-01	2.785092e-02	1.491523e-02	1.392138e-02	9.095214e-03
0.000627546   	1.756009e-01	1.904453e-02	1.115039e-02	1.040529e-02	7.549377e-03
0.000861857   	1.243521e-01	1.592351e-02	1.009794e-02	8.492892e-03	6.654702e-03
0.00113877    	1.079298e-01	1.429170e-02	9.407932e-03	7.305783e-03	6.047643e-03
0.00145524    	1.034596e-01	1.289872e-02	8.626857e-03	6.426569e-03	5.535433e-03
0.00181127    	1.022425e-01	1.172629e-02	7.900174e-03	5.749486e-03	5.151869e-03
0.00220121    	9.953049e-02	1.063707e-02	7.188668e-03	5.192570e-03	4.769365e-03
0.00263448    	9.947955e-02	9.768066e-03	6.653870e-03	4.740402e-03	4.442593e-03
0.00309482    	9.559653e-02	8.920997e-03	6.095178e-03	4.285932e-03	4.047892e-03
0.00358805    	9.299238e-02	8.245140e-03	5.670592e-03	3.919215e-03	3.732678e-03
0.00408128    	8.641491e-02	7.544972e-03	5.180095e-03	3.550687e-03	3.356723e-03
0.00457451    	8.090117e-02	6.982139e-03	4.795761e-03	3.262910e-03	3.065860e-03
0.00506773    	7.603028e-02	6.530615e-03	4.486212e-03	3.035802e-03	2.832396e-03
0.00556096    	7.208375e-02	6.170615e-03	4.230013e-03	2.860220e-03	2.627070e-03
0.00605419    	6.877330e-02	5.864200e-03	4.013585e-03	2.719948e-03	2.455265e-03
0.00654741    	6.588334e-02	5.598350e-03	3.826978e-03	2.606998e-03	2.298503e-03
0.00704064    	6.335176e-02	5.369203e-03	3.662809e-03	2.510296e-03	2.163283e-03
0.00753387    	6.127456e-02	5.162280e-03	3.517546e-03	2.430025e-03	2.039446e-03
0.00802709    	5.956326e-02	4.976316e-03	3.386445e-03	2.358084e-03	1.936464e-03
0.00852032    	5.805312e-02	4.807123e-03	3.270311e-03	2.295470e-03	1.849526e-03
0.00901355    	5.655661e-02	4.650400e-03	3.164850e-03	2.236301e-03	1.766425e-03
0.00950677    	5.512829e-02	4.502737e-03	3.068692e-03	2.180412e-03	1.688425e-03
0.01          	5.388032e-02	4.364876e-03	2.979544e-03	2.128031e-03	1.615264e-03
0.0105        	5.333887e-02	4.252475e-03	2.914392e-03	2.088506e-03	1.556750e-03
0.011         	5.218033e-02	4.125490e-03	2.836143e-03	2.040664e-03	1.496733e-03
0.0115        	5.116311e-02	4.007568e-03	2.764094e-03	1.995660e-03	1.439335e-03
0.012         	5.018372e-02	3.897761e-03	2.696845e-03	1.954296e-03	1.386498e-03
0.0125        	4.940584e-02	3.792116e-03	2.634410e-03	1.915509e-03	1.340043e-03
0.013         	4.868669e-02	3.688412e-03	2.575216e-03	1.878952e-03	1.295842e-03
0.0135        	4.785562e-02	3.588773e-03	2.520324e-03	1.844155e-03	1.253514e-03
0.014         	4.721288e-02	3.498646e-03	2.469249e-03	1.810963e-03	1.213181e-03
0.0145        	4.651520e-02	3.409707e-03	2.420702e-03	1.780321e-03	1.179762e-03
0.015         	4.601641e-02	3.321425e-03	2.375086e-03	1.750092e-03	1.141637e-03
0.0155        	4.531668e-02	3.239989e-03	2.331714e-03	1.721809e-03	1.111835e-03
0.016         	4.490542e-02	3.162025e-03	2.290366e-03	1.694389e-03	1.080249e-03
0.0165        	4.443411e-02	3.083560e-03	2.251292e-03	1.669131e-03	1.053882e-03
0.017         	4.392871e-02	3.010239e-03	2.213876e-03	1.644698e-03	1.023388e-03
0.0175        	4.350940e-02	2.941765e-03	2.178003e-03	1.623057e-03	1.000264e-03
0.018         	4.307215e-02	2.870331e-03	2.143547e-03	1.601167e-03	9.766439e-04
0.0185        	4.266634e-02	2.805980e-03	2.110610e-03	1.581180e-03	9.528437e-04
0.019         	4.233016e-02	2.744014e-03	2.078874e-03	1.562183e-03	9.374917e-04
0.0195        	4.195109e-02	2.680063e-03	2.047597e-03	1.544778e-03	9.179374e-04
0.02          	4.160948e-02	2.624177e-03	2.018224e-03	1.528375e-03	9.021519e-04
0.0205        	4.124990e-02	2.564263e-03	1.989015e-03	1.513839e-03	8.905776e-04
0.021         	4.084593e-02	2.511114e-03	1.961019e-03	1.499692e-03	8.763506e-04
0.0215        	4.049153e-02	2.457731e-03	1.933628e-03	1.486306e-03	8.628307e-04
0.022         	4.012166e-02	2.405551e-03	1.907069e-03	1.474347e-03	8.515000e-04
0.0225        	3.979816e-02	2.356402e-03	1.881096e-03	1.462183e-03	8.410059e-04
0.023         	3.938530e-02	2.307251e-03	1.855809e-03	1.451000e-03	8.337365e-04
0.0235        	3.910038e-02	2.260320e-03	1.831070e-03	1.440497e-03	8.241029e-04
0.024         	3.868592e-02	2.213669e-03	1.806604e-03	1.430429e-03	8.130055e-04
0.0245        	3.834435e-02	2.170860e-03	1.783077e-03	1.420622e-03	8.057806e-04
0.025         	3.794911e-02	2.125218e-03	1.759553e-03	1.410988e-03	7.975474e-04
0.0255        	3.760831e-02	2.085455e-03	1.736450e-03	1.401824e-03	7.910885e-04
0.026         	3.713510e-02	2.041796e-03	1.713602e-03	1.392251e-03	7.844693e-04
0.0265        	3.677429e-02	2.003363e-03	1.691215e-03	1.383002e-03	7.778212e-04
0.027         	3.637663e-02	1.962145e-03	1.668599e-03	1.372845e-03	7.694755e-04
0.0275        	3.589830e-02	1.924226e-03	1.646624e-03	1.363384e-03	7.603150e-04
0.028         	3.560528e-02	1.884987e-03	1.624740e-03	1.353443e-03	7.527103e-04
0.0285        	3.511517e-02	1.847219e-03	1.602388e-03	1.341908e-03	7.461203e-04
0.029         	3.464954e-02	1.808749e-03	1.580256e-03	1.329956e-03	7.361338e-04
0.0295        	3.417524e-02	1.770545e-03	1.557698e-03	1.316866e-03	7.284882e-04
0.03          	3.369250e-02	1.731340e-03	1.534894e-03	1.302714e-03	7.167275e-04
0.0305        	3.323619e-02	1.691847e-03	1.511931e-03	1.287850e-03	7.074908e-04
0.031         	3.268936e-02	1.652276e-03	1.488488e-03	1.271603e-03	6.992394e-04
0.0315        	3.214346e-02	1.610598e-03	1.464684e-03	1.253601e-03	6.869701e-04
0.032         	3.155493e-02	1.570775e-03	1.440246e-03	1.234127e-03	6.790373e-04
0.0325        	3.098340e-02	1.528686e-03	1.415420e-03	1.214003e-03	6.661982e-04
0.033         	3.031380e-02	1.487275e-03	1.390007e-03	1.191986e-03	6.571768e-04
0.0335        	2.965701e-02	1.445363e-03	1.363803e-03	1.168660e-03	6.453922e-04
0.034         	2.901834e-02	1.402906e-03	1.337456e-03	1.144380e-03	6.369276e-04
0.0345        	2.826914e-02	1.361210e-03	1.310332e-03	1.117991e-03	6.228797e-04
0.035         	2.751759e-02	1.319636e-03	1.282693e-03	1.090445e-03	6.132320e-04
0.0355        	2.679040e-02	1.278810e-03	1.254597e-03	1.061788e-03	6.005743e-04
0.036         	2.601175e-02	1.239089e-03	1.226342e-03	1.033045e-03	5.884858e-04
0.0365        	2.531987e-02	1.200044e-03	1.197577e-03	1.003587e-03	5.751055e-04
0.037         	2.456971e-02	1.162966e-03	1.168794e-03	9.736272e-04	5.615152e-04
0.0375        	2.386340e-02	1.126624e-03	1.139929e-03	9.437879e-04	5.508231e-04
0.038         	2.331776e-02	1.093252e-03	1.111035e-03	9.145034e-04	5.413256e-04
0.0385        	2.260312e-02	1.060208e-03	1.081967e-03	8.850956e-04	5.281515e-04
0.039         	2.180071e-02	1.029894e-03	1.053187e-03	8.563395e-04	5.170606e-04
0.0395        	2.130334e-02	1.001387e-03	1.024910e-03	8.289439e-04	5.086233e-04
0.04          	2.090842e-02	9.748358e-04	9.967240e-04	8.028069e-04	4.975276e-04
0.0405        	2.002908e-02	9.500077e-04	9.688987e-04	7.772203e-04	4.861981e-04
0.041         	1.964926e-02	9.282725e-04	9.416354e-04	7.540789e-04	4.784186e-04
0.0415        	1.921472e-02	9.074428e-04	9.145003e-04	7.319855e-04	4.683973e-04
0.042         	1.858550e-02	8.898694e-04	8.880948e-04	7.116902e-04	4.583770e-04
0.0425        	1.815666e-02	8.724336e-04	8.621331e-04	6.929278e-04	4.510772e-04
0.043         	1.787287e-02	8.575493e-04	8.370197e-04	6.749052e-04	4.448436e-04
0.0435        	1.756490e-02	8.438500e-04	8.121254e-04	6.576246e-04	4.381041e-04
0.044         	1.711805e-02	8.309009e-04	7.880342e-04	6.422965e-04	4.314889e-04
0.0445        	1.693472e-02	8.207393e-04	7.646655e-04	6.274914e-04	4.246895e-04
0.045         	1.670945e-02	8.112989e-04	7.416387e-04	6.136156e-04	4.161903e-04
0.0455        	1.633711e-02	8.049998e-04	7.194228e-04	6.000335e-04	4.094251e-04
0.046         	1.608527e-02	7.975507e-04	6.977555e-04	5.868028e-04	4.013190e-04
0.0465        	1.591007e-02	7.923887e-04	6.768219e-04	5.743396e-04	3.963348e-04
0.047         	1.576758e-02	7.859869e-04	6.566980e-04	5.620763e-04	3.898619e-04
0.0475        	1.556275e-02	7.806487e-04	6.369104e-04	5.499249e-04	3.823606e-04
0.048         	1.519429e-02	7.736667e-04	6.179558e-04	5.383175e-04	3.767540e-04
0.0485        	1.507629e-02	7.670263e-04	5.996860e-04	5.268946e-04	3.719605e-04
0.049         	1.471196e-02	7.593265e-04	5.821021e-04	5.158875e-04	3.658215e-04
0.0495        	1.459201e-02	7.513342e-04	5.652679e-04	5.047376e-04	3.570379e-04
0.05          	1.425241e-02	7.429047e-04	5.489473e-04	4.941660e-04	3.520939e-04
0.0505        	1.394143e-02	7.328687e-04	5.333403e-04	4.835813e-04	3.453560e-04
0.051         	1.364087e-02	7.233038e-04	5.183084e-04	4.733517e-04	3.394708e-04
0.0515        	1.336471e-02	7.120498e-04	5.040343e-04	4.633958e-04	3.322123e-04
0.052         	1.306636e-02	7.009608e-04	4.902973e-04	4.535096e-04	3.283946e-04
0.0525        	1.279119e-02	6.886010e-04	4.772373e-04	4.439125e-04	3.209833e-04
0.053         	1.246739e-02	6.764486e-04	4.647916e-04	4.347302e-04	3.155644e-04
0.0535        	1.215528e-02	6.633070e-04	4.529094e-04	4.257078e-04	3.100516e-04
0.054         	1.188660e-02	6.501639e-04	4.416256e-04	4.168267e-04	3.046083e-04
0.0545        	1.192316e-02	6.383678e-04	4.312411e-04	4.084639e-04	3.022689e-04
0.055         	1.156939e-02	6.243280e-04	4.208448e-04	4.001220e-04	2.965606e-04
0.0555        	1.153206e-02	6.125979e-04	4.111747e-04	3.922317e-04	2.920339e-04
0.056         	1.118852e-02	5.994432e-04	4.016782e-04	3.845152e-04	2.867720e-04
0.0565        	1.088295e-02	5.883512e-04	3.929255e-04	3.771575e-04	2.826314e-04
0.057         	1.070392e-02	5.782481e-04	3.845698e-04	3.699794e-04	2.776848e-04
0.0575        	1.044557e-02	5.668717e-04	3.764839e-04	3.628288e-04	2.724327e-04
0.058         	1.036945e-02	5.584491e-04	3.689083e-04	3.561366e-04	2.696267e-04
0.0585        	1.010245e-02	5.497543e-04	3.613683e-04	3.497693e-04	2.647434e-04
0.059         	9.997695e-03	5.415574e-04	3.543272e-04	3.435714e-04	2.619019e-04
0.0595        	9.891900e-03	5.344935e-04	3.474233e-04	3.373483e-04	2.564750e-04
0.06          	9.725631e-03	5.287610e-04	3.406790e-04	3.313597e-04	2.537376e-04
0.0605        	9.486711e-03	5.237992e-04	3.339888e-04	3.256448e-04	2.493941e-04
0.061         	9.721326e-03	5.196842e-04	3.278319e-04	3.199095e-04	2.448143e-04
0.0615        	9.603995e-03	5.171508e-04	3.215280e-04	3.146174e-04	2.419633e-04
0.062         	9.307212e-03	5.144637e-04	3.150770e-04	3.092116e-04	2.394755e-04
0.0625        	9.339023e-03	5.112378e-04	3.089425e-04	3.038340e-04	2.341748e-04
0.063         	9.253380e-03	5.077777e-04	3.027103e-04	2.985266e-04	2.309053e-04
0.0635        	9.122408e-03	5.030598e-04	2.962704e-04	2.933602e-04	2.266048e-04
0.064         	8.932532e-03	4.971518e-04	2.898807e-04	2.882454e-04	2.239487e-04
0.0645        	8.915938e-03	4.922453e-04	2.833963e-04	2.829420e-04	2.208654e-04
0.065         	8.643075e-03	4.852857e-04	2.768509e-04	2.775426e-04	2.163114e-04
0.0655        	8.620617e-03	4.788620e-04	2.702181e-04	2.723555e-04	2.130333e-04
0.066         	8.328268e-03	4.715277e-04	2.634451e-04	2.668381e-04	2.091628e-04
0.0665        	8.154901e-03	4.653070e-04	2.566347e-04	2.617215e-04	2.058298e-04
0.067         	7.844220e-03	4.581380e-04	2.496032e-04	2.562154e-04	2.019549e-04
0.0675        	7.695002e-03	4.504235e-04	2.424135e-04	2.509172e-04	1.974661e-04
0.068         	7.753838e-03	4.439899e-04	2.353137e-04	2.449970e-04	1.930551e-04
0.0685        	7.488902e-03	4.385818e-04	2.279189e-04	2.393289e-04	1.886784e-04
0.069         	7.330631e-03	4.319983e-04	2.206496e-04	2.335106e-04	1.846684e-04
0.0695        	7.192891e-03	4.268349e-04	2.133087e-04	2.271364e-04	1.798262e-04
0.07          	7.140764e-03	4.238064e-04	2.059649e-04	2.213684e-04	1.744957e-04
0.0705        	7.317218e-03	4.215739e-04	1.990992e-04	2.153523e-04	1.698029e-04
0.071         	7.283286e-03	4.191602e-04	1.917537e-04	2.090008e-04	1.651869e-04
0.0715        	7.305634e-03	4.181713e-04	1.845645e-04	2.030355e-04	1.621885e-04
0.072         	6.963458e-03	4.157662e-04	1.774317e-04	1.964088e-04	1.581162e-04
0.0725        	7.012639e-03	4.132356e-04	1.705164e-04	1.902498e-04	1.527809e-04
0.073         	6.887593e-03	4.087308e-04	1.635330e-04	1.837094e-04	1.477685e-04
0.0735        	6.789718e-03	4.042352e-04	1.570717e-04	1.770072e-04	1.429952e-04
0.074         	6.527408e-03	3.977705e-04	1.504852e-04	1.704977e-04	1.379151e-04
0.0745        	6.313072e-03	3.902038e-04	1.440625e-04	1.635137e-04	1.337518e-04
0.075         	6.181106e-03	3.829256e-04	1.381825e-04	1.571580e-04	1.282493e-04
0.0755        	5.907231e-03	3.739997e-04	1.323778e-04	1.508386e-04	1.246311e-04
0.076         	5.891408e-03	3.642724e-04	1.270092e-04	1.445279e-04	1.205879e-04
0.0765        	5.804946e-03	3.536891e-04	1.219098e-04	1.382563e-04	1.140653e-04
0.077         	5.459835e-03	3.423153e-04	1.169185e-04	1.321342e-04	1.101940e-04
0.0775        	5.201090e-03	3.301708e-04	1.121671e-04	1.262562e-04	1.071523e-04
0.078         	5.060863e-03	3.182825e-04	1.080276e-04	1.205621e-04	1.028146e-04
0.0785        	4.775490e-03	3.053189e-04	1.041025e-04	1.149243e-04	9.962017e-05
0.079         	4.588856e-03	2.925170e-04	1.008003e-04	1.095092e-04	9.617792e-05
0.0795        	4.609373e-03	2.797428e-04	9.781350e-05	1.046582e-04	9.128838e-05
0.08          	4.502202e-03	2.663636e-04	9.483688e-05	9.950968e-05	8.875557e-05
0.0805        	4.085355e-03	2.528464e-04	9.200690e-05	9.487399e-05	8.511338e-05
0.081         	3.885774e-03	2.406648e-04	8.958366e-05	9.084737e-05	8.322160e-05
0.0815        	3.537124e-03	2.279393e-04	8.742340e-05	8.672451e-05	8.077227e-05
0.082         	3.482412e-03	2.160398e-04	8.559306e-05	8.272293e-05	7.648203e-05
0.0825        	3.330150e-03	2.041909e-04	8.376375e-05	7.911960e-05	7.464815e-05
0.083         	3.232918e-03	1.934633e-04	8.212869e-05	7.598373e-05	7.317797e-05
0.0835        	3.220340e-03	1.838181e-04	8.075219e-05	7.295074e-05	6.910987e-05
0.084         	3.041417e-03	1.735633e-04	7.901185e-05	7.027043e-05	6.849657e-05
0.0845        	2.840057e-03	1.638052e-04	7.730726e-05	6.772999e-05	6.710934e-05
0.085         	2.827253e-03	1.560886e-04	7.586028e-05	6.577777e-05	6.640383e-05
0.0855        	2.623065e-03	1.478993e-04	7.413817e-05	6.360018e-05	6.553006e-05
0.086         	2.321581e-03	1.404062e-04	7.226486e-05	6.209877e-05	6.520792e-05
0.0865        	2.365270e-03	1.339900e-04	7.053826e-05	6.071839e-05	6.407047e-05
0.087         	2.304367e-03	1.282389e-04	6.861865e-05	5.968732e-05	6.342073e-05
0.0875        	2.262868e-03	1.233440e-04	6.688825e-05	5.839115e-05	6.157436e-05
0.088         	2.193563e-03	1.184968e-04	6.503930e-05	5.744276e-05	6.172225e-05
0.0885        	2.099892e-03	1.149912e-04	6.313103e-05	5.673453e-05	6.055268e-05
0.089         	2.247037e-03	1.112350e-04	6.109685e-05	5.601133e-05	5.924745e-05
0.0895        	2.091667e-03	1.088067e-04	5.931036e-05	5.534291e-05	5.852848e-05
0.09          	1.941759e-03	1.058655e-04	5.713254e-05	5.455642e-05	5.809882e-05
0.0905        	2.145030e-03	1.045133e-04	5.520873e-05	5.374209e-05	5.638380e-05
0.091         	2.291836e-03	1.031958e-04	5.328952e-05	5.277740e-05	5.394528e-05
0.0915        	2.099712e-03	1.013394e-04	5.123544e-05	5.176576e-05	5.247980e-05
0.092         	1.865614e-03	1.001024e-04	4.924796e-05	5.083922e-05	5.197591e-05
0.0925        	1.949374e-03	9.900356e-05	4.747972e-05	4.973573e-05	5.104667e-05
0.093         	2.112926e-03	9.719109e-05	4.578202e-05	4.865291e-05	4.920319e-05
0.0935        	2.018141e-03	9.563210e-05	4.407794e-05	4.751714e-05	4.881841e-05
0.094         	2.026454e-03	9.275767e-05	4.217719e-05	4.626746e-05	4.658827e-05
0.0945        	1.832920e-03	9.042513e-05	4.053796e-05	4.496659e-05	4.581276e-05
0.095         	1.855270e-03	8.843153e-05	3.902591e-05	4.354544e-05	4.386567e-05
0.0955        	1.611376e-03	8.574355e-05	3.743347e-05	4.246240e-05	4.340251e-05
0.096         	1.630089e-03	8.248254e-05	3.589612e-05	4.116040e-05	4.249133e-05
0.0965        	1.436250e-03	7.933053e-05	3.441939e-05	3.984475e-05	4.149396e-05
0.097         	1.731052e-03	7.769515e-05	3.347494e-05	3.863083e-05	3.907312e-05
0.0975        	1.425447e-03	7.452869e-05	3.226907e-05	3.749514e-05	4.028165e-05
0.098         	1.442789e-03	7.173157e-05	3.115120e-05	3.622788e-05	3.762244e-05
0.0985        	1.594960e-03	6.984943e-05	3.028614e-05	3.509996e-05	3.603300e-05
0.099         	1.302849e-03	6.649263e-05	2.904584e-05	3.389690e-05	3.620760e-05
0.0995        	1.599560e-03	6.425937e-05	2.840862e-05	3.271747e-05	3.457584e-05
0.1           	1.500337e-03	6.143047e-05	2.747348e-05	3.160413e-05	3.305157e-05
0.1005        	1.319643e-03	5.853252e-05	2.670358e-05	3.046586e-05	3.244050e-05
0.101         	1.276816e-03	5.727500e-05	2.632556e-05	2.959771e-05	3.144146e-05
0.1015        	1.141910e-03	5.508417e-05	2.570333e-05	2.874815e-05	3.204926e-05
0.102         	1.229812e-03	5.331585e-05	2.530422e-05	2.781310e-05	3.182248e-05
0.1025        	1.074382e-03	5.130257e-05	2.477043e-05	2.711051e-05	3.222716e-05
0.103         	1.113605e-03	4.964761e-05	2.425038e-05	2.627292e-05	3.026484e-05
0.1035        	1.285600e-03	4.832556e-05	2.397757e-05	2.557387e-05	2.991165e-05
0.104         	1.055625e-03	4.663832e-05	2.355618e-05	2.490486e-05	2.996961e-05
0.1045        	9.546714e-04	4.474749e-05	2.306031e-05	2.424487e-05	2.981010e-05
0.105         	1.154044e-03	4.419434e-05	2.284084e-05	2.355175e-05	2.980323e-05
0.1055        	1.164894e-03	4.207570e-05	2.224723e-05	2.307392e-05	2.912866e-05
0.106         	1.105622e-03	4.099835e-05	2.194697e-05	2.250756e-05	2.811035e-05
0.1065        	1.119658e-03	4.101997e-05	2.204950e-05	2.215884e-05	2.878447e-05
0.107         	1.178620e-03	3.995014e-05	2.156471e-05	2.163340e-05	2.627204e-05
0.1075        	1.045285e-03	3.867995e-05	2.109324e-05	2.115914e-05	2.721014e-05
0.108         	1.149257e-03	3.884022e-05	2.096530e-05	2.066992e-05	2.621016e-05
0.1085        	1.186669e-03	3.780958e-05	2.051525e-05	2.042948e-05	2.586388e-05
0.109         	9.838165e-04	3.705187e-05	2.005071e-05	2.000865e-05	2.509680e-05
0.1095        	1.222863e-03	3.696736e-05	1.994393e-05	1.974216e-05	2.483106e-05
0.11          	1.075739e-03	3.622011e-05	1.935533e-05	1.935141e-05	2.444933e-05
0.1105        	1.173357e-03	3.650997e-05	1.932587e-05	1.928775e-05	2.503332e-05
0.111         	1.037016e-03	3.630537e-05	1.883213e-05	1.889372e-05	2.567523e-05
0.1115        	1.096720e-03	3.627208e-05	1.847965e-05	1.877058e-05	2.503801e-05
0.112         	1.056975e-03	3.714316e-05	1.835922e-05	1.869061e-05	2.497846e-05
0.1125        	1.142512e-03	3.749084e-05	1.805757e-05	1.848942e-05	2.437554e-05
0.113         	1.137838e-03	3.842776e-05	1.774791e-05	1.835862e-05	2.405570e-05
0.1135        	1.131998e-03	3.817963e-05	1.744317e-05	1.829089e-05	2.371311e-05
0.114         	1.082026e-03	3.872028e-05	1.713795e-05	1.823675e-05	2.329409e-05
0.1145        	1.094916e-03	3.870054e-05	1.672391e-05	1.804594e-05	2.283197e-05
0.115         	1.167825e-03	3.960352e-05	1.651243e-05	1.796054e-05	2.259958e-05
0.1155        	1.200862e-03	3.955764e-05	1.620472e-05	1.802480e-05	2.401170e-05
0.116         	1.039139e-03	4.003944e-05	1.596525e-05	1.815318e-05	2.489435e-05
0.1165        	9.476111e-04	4.029122e-05	1.559656e-05	1.818240e-05	2.549609e-05
0.117         	1.086547e-03	4.150813e-05	1.548135e-05	1.813478e-05	2.530849e-05
0.1175        	1.207867e-03	4.215102e-05	1.528502e-05	1.813889e-05	2.447477e-05
0.118         	1.188988e-03	4.305021e-05	1.505058e-05	1.810387e-05	2.384342e-05
0.1185        	1.193356e-03	4.254034e-05	1.464119e-05	1.801714e-05	2.248028e-05
0.119         	1.246813e-03	4.357589e-05	1.445593e-05	1.794684e-05	2.286698e-05
0.1195        	1.075459e-03	4.350437e-05	1.401601e-05	1.794982e-05	2.391423e-05
0.12          	1.390003e-03	4.424307e-05	1.399778e-05	1.779229e-05	2.242594e-05
0.1205        	1.087134e-03	4.448425e-05	1.370080e-05	1.792135e-05	2.317635e-05
0.121         	1.421737e-03	4.497706e-05	1.348902e-05	1.771831e-05	2.188076e-05
0.1215        	1.139613e-03	4.584709e-05	1.337653e-05	1.773809e-05	2.191985e-05
0.122         	1.259907e-03	4.522390e-05	1.310118e-05	1.760066e-05	2.268916e-05
0.1225        	1.087140e-03	4.555024e-05	1.295143e-05	1.784586e-05	2.337124e-05
0.123         	1.083137e-03	4.587545e-05	1.283136e-05	1.775485e-05	2.352732e-05
0.1235        	1.035661e-03	4.633681e-05	1.271550e-05	1.772902e-05	2.361096e-05
0.124         	1.008369e-03	4.676154e-05	1.261975e-05	1.780384e-05	2.409245e-05
0.1245        	9.763452e-04	4.736533e-05	1.258002e-05	1.785644e-05	2.328541e-05
0.125         	9.847398e-04	4.796713e-05	1.253923e-05	1.793513e-05	2.329769e-05
0.1255        	9.917776e-04	4.865745e-05	1.251321e-05	1.791192e-05	2.330360e-05
0.126         	1.016524e-03	4.929269e-05	1.246880e-05	1.793693e-05	2.366491e-05
0.1265        	1.148540e-03	5.001304e-05	1.246320e-05	1.792737e-05	2.358586e-05
0.127         	1.259708e-03	5.063387e-05	1.242863e-05	1.793705e-05	2.332565e-05
0.1275        	1.285619e-03	5.220154e-05	1.270126e-05	1.781949e-05	2.380902e-05
0.128         	1.163069e-03	5.279785e-05	1.266068e-05	1.787469e-05	2.414157e-05
0.1285        	1.254311e-03	5.329383e-05	1.262556e-05	1.795337e-05	2.466123e-05
0.129         	1.403758e-03	5.380784e-05	1.270360e-05	1.785676e-05	2.432627e-05
0.1295        	1.215175e-03	5.431377e-05	1.268447e-05	1.787738e-05	2.421179e-05
0.13          	1.264591e-03	5.487356e-05	1.268783e-05	1.790795e-05	2.381156e-05
0.1305        	1.537147e-03	5.681547e-05	1.298636e-05	1.787072e-05	2.581161e-05
0.131         	1.310327e-03	5.747167e-05	1.291354e-05	1.801255e-05	2.688058e-05
0.1315        	1.237186e-03	5.786266e-05	1.284631e-05	1.802289e-05	2.787167e-05
0.132         	1.468632e-03	5.839383e-05	1.293485e-05	1.795440e-05	2.749537e-05
0.1325        	1.328420e-03	5.901920e-05	1.295493e-05	1.793776e-05	2.653109e-05
0.133         	1.516406e-03	6.103784e-05	1.329640e-05	1.792602e-05	2.599930e-05
0.1335        	1.468611e-03	6.156573e-05	1.321697e-05	1.810853e-05	2.826758e-05
0.134         	1.336961e-03	6.198980e-05	1.312206e-05	1.822534e-05	2.926042e-05
0.1345        	1.540045e-03	6.326646e-05	1.337441e-05	1.811980e-05	2.778179e-05
0.135         	1.400718e-03	6.402908e-05	1.337653e-05	1.827458e-05	2.737722e-05
0.1355        	1.734989e-03	6.641715e-05	1.385100e-05	1.830303e-05	2.724097e-05
0.136         	1.481281e-03	6.683906e-05	1.372550e-05	1.849120e-05	2.944627e-05
0.1365        	1.397569e-03	6.744209e-05	1.372388e-05	1.861758e-05	3.018423e-05
0.137         	1.665217e-03	6.789933e-05	1.376342e-05	1.853452e-05	2.796610e-05
0.1375        	1.503466e-03	6.819399e-05	1.380158e-05	1.856498e-05	2.782949e-05
0.138         	2.043708e-03	6.975123e-05	1.429167e-05	1.855857e-05	2.700243e-05
0.1385        	1.597620e-03	7.026511e-05	1.420591e-05	1.869857e-05	2.868299e-05
0.139         	1.667450e-03	7.011341e-05	1.414355e-05	1.860040e-05	2.731163e-05
0.1395        	1.594500e-03	7.027927e-05	1.416811e-05	1.856327e-05	2.670793e-05
0.14          	1.703598e-03	7.181588e-05	1.452034e-05	1.847389e-05	2.676271e-05
0.1405        	1.584353e-03	7.197835e-05	1.448988e-05	1.866536e-05	2.759205e-05
0.141         	1.743338e-03	7.236147e-05	1.469485e-05	1.845993e-05	2.742344e-05
0.1415        	1.575008e-03	7.237778e-05	1.464556e-05	1.854682e-05	2.801745e-05
0.142         	1.512433e-03	7.264945e-05	1.469092e-05	1.851629e-05	2.905541e-05
0.1425        	1.953066e-03	7.397198e-05	1.496722e-05	1.820766e-05	2.620846e-05
0.143         	1.698516e-03	7.423413e-05	1.496642e-05	1.826041e-05	2.671725e-05
0.1435        	1.559618e-03	7.455918e-05	1.493664e-05	1.830325e-05	2.774763e-05
0.144         	1.677183e-03	7.529925e-05	1.499896e-05	1.852026e-05	2.910915e-05
0.1445        	1.696454e-03	7.610719e-05	1.502373e-05	1.864704e-05	2.916759e-05
0.145         	1.798890e-03	7.816148e-05	1.540477e-05	1.847728e-05	2.822364e-05
0.1455        	1.705638e-03	7.918107e-05	1.544145e-05	1.873632e-05	2.942696e-05
0.146         	1.689077e-03	7.988526e-05	1.546179e-05	1.891771e-05	3.020880e-05
0.1465        	1.880769e-03	8.093804e-05	1.564968e-05	1.888092e-05	2.864563e-05
0.147         	1.712962e-03	8.164142e-05	1.564118e-05	1.903828e-05	2.844457e-05
0.1475        	1.692329e-03	8.249318e-05	1.570665e-05	1.911693e-05	2.828176e-05
0.148         	1.976509e-03	8.445890e-05	1.610341e-05	1.927092e-05	2.988630e-05
0.1485        	2.038240e-03	8.584875e-05	1.650698e-05	1.925059e-05	2.930288e-05
0.149         	1.859172e-03	8.663172e-05	1.665089e-05	1.952979e-05	3.112968e-05
0.1495        	1.806457e-03	8.728075e-05	1.678594e-05	1.973968e-05	3.244465e-05
0.15          	2.222055e-03	8.925034e-05	1.719163e-05	1.967031e-05	2.973349e-05
0.1505        	2.041967e-03	8.959919e-05	1.726179e-05	1.981319e-05	2.866382e-05
0.151         	2.028197e-03	9.044171e-05	1.738237e-05	1.981192e-05	2.913289e-05
0.1515        	1.984943e-03	9.089866e-05	1.742029e-05	2.001047e-05	3.031996e-05
0.152         	1.945552e-03	9.135243e-05	1.752926e-05	2.022184e-05	3.110800e-05
0.1525        	2.098196e-03	9.220542e-05	1.786673e-05	1.992739e-05	3.003944e-05
0.153         	2.004723e-03	9.265499e-05	1.794526e-05	1.997456e-05	2.986995e-05
0.1535        	2.115631e-03	9.394559e-05	1.825596e-05	2.002036e-05	3.004100e-05
0.154         	2.139168e-03	9.470389e-05	1.848351e-05	1.992871e-05	2.988796e-05
0.1545        	1.974897e-03	9.500533e-05	1.853092e-05	2.018179e-05	3.102874e-05
0.155         	2.199375e-03	9.636609e-05	1.870172e-05	2.007748e-05	3.055873e-05
0.1555        	2.202105e-03	9.697927e-05	1.875624e-05	1.995058e-05	2.964370e-05
0.156         	2.018322e-03	9.726168e-05	1.870004e-05	2.009955e-05	3.099919e-05
0.1565        	2.054282e-03	9.766509e-05	1.868931e-05	2.021143e-05	3.113987e-05
0.157         	2.432350e-03	9.961302e-05	1.911350e-05	1.986627e-05	2.966409e-05
0.1575        	2.148056e-03	9.987959e-05	1.910414e-05	2.001524e-05	2.935209e-05
0.158         	2.065294e-03	1.002866e-04	1.914398e-05	2.026925e-05	3.176998e-05
0.1585        	2.027871e-03	1.009152e-04	1.920566e-05	2.012597e-05	3.145759e-05
0.159         	2.520150e-03	1.037172e-04	1.976732e-05	2.006568e-05	2.878202e-05
0.1595        	2.260866e-03	1.045411e-04	1.976867e-05	2.015197e-05	2.981985e-05
0.16          	2.153274e-03	1.055441e-04	1.993644e-05	2.046955e-05	3.179572e-05
0.1605        	2.538020e-03	1.078355e-04	2.035992e-05	2.047714e-05	3.034251e-05
0.161         	2.301252e-03	1.088691e-04	2.065509e-05	2.067246e-05	2.997177e-05
0.1615        	2.401814e-03	1.102504e-04	2.080640e-05	2.072516e-05	2.996621e-05
0.162         	2.467760e-03	1.113751e-04	2.114388e-05	2.090769e-05	3.000617e-05
0.1625        	2.320762e-03	1.120749e-04	2.129293e-05	2.119524e-05	3.096726e-05
0.163         	2.454009e-03	1.136127e-04	2.164259e-05	2.129775e-05	3.056589e-05
0.1635        	2.297056e-03	1.143987e-04	2.179349e-05	2.153074e-05	3.212738e-05
0.164         	2.727827e-03	1.164004e-04	2.240693e-05	2.146209e-05	3.054379e-05
0.1645        	2.474724e-03	1.165750e-04	2.248876e-05	2.152214e-05	3.026859e-05
0.165         	2.746087e-03	1.177161e-04	2.271697e-05	2.157654e-05	3.027180e-05
0.1655        	2.540401e-03	1.186698e-04	2.275350e-05	2.160114e-05	3.046393e-05
0.166         	2.750323e-03	1.200040e-04	2.307178e-05	2.155776e-05	2.995347e-05
0.1665        	2.732112e-03	1.205660e-04	2.305365e-05	2.164711e-05	2.964580e-05
0.167         	2.597861e-03	1.215806e-04	2.326382e-05	2.162170e-05	3.054376e-05
0.1675        	2.438668e-03	1.225367e-04	2.335667e-05	2.176627e-05	3.141632e-05
0.168         	2.716140e-03	1.239557e-04	2.355800e-05	2.181276e-05	3.218504e-05
0.1685        	2.907480e-03	1.257941e-04	2.377133e-05	2.181695e-05	2.987369e-05
0.169         	2.763574e-03	1.266738e-04	2.392664e-05	2.215124e-05	3.250287e-05
0.1695        	2.840834e-03	1.282365e-04	2.408236e-05	2.217323e-05	3.047709e-05
0.17          	3.033525e-03	1.294606e-04	2.420595e-05	2.236111e-05	3.192723e-05
0.1705        	2.826844e-03	1.313730e-04	2.451121e-05	2.253670e-05	3.095066e-05
0.171         	2.981277e-03	1.334980e-04	2.479093e-05	2.279980e-05	3.206907e-05
0.1715        	2.918772e-03	1.352536e-04	2.504343e-05	2.292788e-05	3.124140e-05
0.172         	3.027870e-03	1.374748e-04	2.549249e-05	2.330983e-05	3.249139e-05
0.1725        	3.087228e-03	1.392016e-04	2.578491e-05	2.356317e-05	3.192708e-05
0.173         	2.973607e-03	1.418391e-04	2.630052e-05	2.405128e-05	3.358260e-05
0.1735        	3.160800e-03	1.432128e-04	2.661862e-05	2.427128e-05	3.330657e-05
0.174         	3.109001e-03	1.449820e-04	2.702667e-05	2.451000e-05	3.333576e-05
0.1745        	3.191716e-03	1.461007e-04	2.732340e-05	2.483210e-05	3.374765e-05
0.175         	3.044861e-03	1.473854e-04	2.771981e-05	2.500354e-05	3.519580e-05
0.1755        	3.016198e-03	1.489558e-04	2.812194e-05	2.546471e-05	3.591325e-05
0.176         	3.344850e-03	1.504828e-04	2.849346e-05	2.565006e-05	3.447971e-05
0.1765        	3.212568e-03	1.515674e-04	2.892920e-05	2.603247e-05	3.608030e-05
0.177         	3.281731e-03	1.530358e-04	2.916080e-05	2.612673e-05	3.595542e-05
0.1775        	3.359994e-03	1.540384e-04	2.941707e-05	2.639165e-05	3.598812e-05
0.178         	3.363081e-03	1.556016e-04	2.962696e-05	2.651653e-05	3.625132e-05
0.1785        	3.381345e-03	1.568704e-04	2.986530e-05	2.667452e-05	3.659566e-05
0.179         	3.371750e-03	1.585026e-04	3.000545e-05	2.682518e-05	3.629594e-05
0.1795        	3.537705e-03	1.597726e-04	3.017342e-05	2.715776e-05	3.771012e-05
0.18          	3.287515e-03	1.611083e-04	3.034807e-05	2.726180e-05	3.787771e-05
0.1805        	3.522580e-03	1.633938e-04	3.067515e-05	2.741868e-05	3.761410e-05
0.181         	3.543244e-03	1.648146e-04	3.074138e-05	2.770574e-05	3.726635e-05
0.1815        	3.546980e-03	1.670126e-04	3.116481e-05	2.796666e-05	3.804199e-05
0.182         	3.487960e-03	1.687965e-04	3.139595e-05	2.842403e-05	4.066220e-05
0.1825        	3.531791e-03	1.719974e-04	3.183055e-05	2.864028e-05	4.006043e-05
0.183         	3.382221e-03	1.742966e-04	3.211583e-05	2.910814e-05	4.152748e-05
0.1835        	3.602568e-03	1.764047e-04	3.261340e-05	2.959440e-05	4.194322e-05
0.184         	3.565205e-03	1.786578e-04	3.302078e-05	2.997100e-05	4.304815e-05