/*--------------------------------*- C++ -*----------------------------------*\
  =========                 |
  \\      /  F ield         | OpenFOAM: The Open Source CFD Toolbox
   \\    /   O peration     | Website:  https://openfoam.org
    \\  /    A nd           | Version:  8
     \\/     M anipulation  |
\*---------------------------------------------------------------------------*/
FoamFile
{
    version     2.0;
    format      ascii;
    class       volScalarField;
    location    "0.05";
    object      alphat;
}
// * * * * * * * * * * * * * * * * * * * * * * * * * * * * * * * * * * * * * //

dimensions      [1 -1 -1 0 0 0 0];

internalField   nonuniform List<scalar> 
15677
(
0.00161016
0.00629369
0.0167572
0.027637
0.038174
0.0481195
0.0572266
0.0652337
0.072048
0.0780777
0.0839472
0.0887848
0.095293
0.101444
0.106136
0.110229
0.113744
0.115736
0.115013
0.116616
0.121583
0.12688
0.131853
0.136092
0.139299
0.141782
0.143569
0.144766
0.145541
0.146033
0.146343
0.146589
0.146799
0.147016
0.147253
0.0015355
0.0130498
0.0315668
0.0489898
0.0628724
0.0729628
0.0799783
0.0831979
0.0838972
0.0817233
0.0825031
0.0881604
0.0973184
0.103431
0.106844
0.10943
0.11167
0.113726
0.115106
0.116171
0.117117
0.117648
0.118154
0.11861
0.119018
0.11939
0.119728
0.12003
0.120302
0.120544
0.12076
0.120946
0.121104
0.121232
0.121339
0.00214128
0.0213689
0.0454951
0.067438
0.0861168
0.100866
0.110981
0.115624
0.114426
0.108544
0.102926
0.103296
0.109352
0.11795
0.126971
0.139551
0.152164
0.163355
0.171992
0.178567
0.183074
0.185924
0.187255
0.187912
0.188483
0.189252
0.190178
0.191144
0.192075
0.19293
0.193693
0.194364
0.194947
0.195447
0.195873
0.00143752
0.00993966
0.0217397
0.0328438
0.042649
0.0508437
0.0573094
0.0624439
0.0672455
0.0724747
0.0800663
0.0901431
0.0989117
0.101197
0.096671
0.0924423
0.0969488
0.108024
0.121535
0.134882
0.146704
0.155157
0.160147
0.162471
0.1627
0.161542
0.160442
0.159879
0.159784
0.159988
0.160343
0.160746
0.161137
0.161475
0.161748
0.00104592
0.00877148
0.0175431
0.0258574
0.0338303
0.0416235
0.0494441
0.0575786
0.0663876
0.0761093
0.0864638
0.0961348
0.101034
0.098244
0.0895496
0.0832054
0.0853252
0.101316
0.123907
0.142248
0.154633
0.16331
0.168615
0.172593
0.175725
0.178058
0.179802
0.180931
0.181744
0.182372
0.18285
0.183195
0.183445
0.183627
0.183746
0.000728549
0.00494829
0.0105124
0.0159831
0.0214174
0.0268952
0.0325056
0.0383031
0.044279
0.0502794
0.0559099
0.0601717
0.0611048
0.0613828
0.0604953
0.0596441
0.0599962
0.0641524
0.0747166
0.0922684
0.110133
0.125429
0.136164
0.142825
0.146946
0.149418
0.150889
0.151779
0.152338
0.152712
0.152979
0.153186
0.153353
0.153491
0.153613
0.000621658
0.00563961
0.0116607
0.0174268
0.0230197
0.0285358
0.0339984
0.0393651
0.0444451
0.0488318
0.0520225
0.053189
0.0523783
0.0486985
0.044553
0.0460703
0.0562194
0.0730622
0.0932528
0.112048
0.12646
0.135766
0.141406
0.144981
0.147351
0.14901
0.150214
0.151078
0.151702
0.152152
0.152478
0.15272
0.152902
0.153044
0.153145
0.000376048
0.00219634
0.0047755
0.00746773
0.0101442
0.0128416
0.0155279
0.018142
0.0205967
0.0227763
0.0238734
0.0249406
0.0255984
0.0255683
0.0255402
0.0295036
0.0374929
0.0518321
0.0685585
0.0850233
0.100514
0.112865
0.121409
0.126943
0.130452
0.132692
0.134127
0.13506
0.135676
0.136093
0.136383
0.136589
0.136739
0.136849
0.136932
0.000289712
0.00196504
0.00375273
0.0054382
0.00714753
0.00898199
0.0110347
0.0133568
0.0160172
0.0191167
0.022618
0.0266229
0.0312036
0.0369929
0.044595
0.0540338
0.0650545
0.0770447
0.0893084
0.100983
0.11095
0.118344
0.123425
0.126883
0.129268
0.130934
0.132099
0.132927
0.133526
0.133969
0.134304
0.134561
0.134759
0.134911
0.135023
0.000248104
0.00158003
0.00372543
0.00607621
0.00859532
0.0113579
0.0145284
0.0183591
0.0230332
0.0285888
0.0349062
0.0418377
0.0492463
0.0573651
0.0657851
0.0740815
0.0823182
0.0902613
0.0977079
0.104431
0.110243
0.11486
0.118279
0.12078
0.122615
0.123977
0.125004
0.125791
0.126403
0.126886
0.127271
0.12758
0.127829
0.128028
0.128191
0.000344141
0.00288372
0.00670215
0.0108025
0.0150453
0.0194505
0.0240734
0.0289869
0.0343354
0.0402294
0.0466973
0.0536344
0.0609764
0.0687488
0.0762491
0.0831063
0.0895207
0.0954557
0.100858
0.10568
0.109904
0.113381
0.116097
0.118212
0.119869
0.121175
0.122217
0.123059
0.123747
0.124314
0.124786
0.125179
0.125508
0.125783
0.12601
0.000316062
0.0026746
0.0062639
0.0101781
0.0143501
0.0188604
0.0237988
0.0292396
0.0352239
0.0417383
0.0487064
0.0559685
0.0633604
0.0708631
0.0776692
0.0835469
0.0888023
0.0935222
0.0977637
0.101564
0.104955
0.107834
0.110163
0.112046
0.113582
0.114843
0.115888
0.116759
0.117491
0.118109
0.118632
0.119077
0.119455
0.119777
0.120052
0.000238707
0.00214356
0.00519016
0.00872404
0.0126528
0.0169807
0.0217486
0.0270264
0.0328673
0.0392837
0.0462218
0.0535445
0.0610524
0.0685369
0.0751372
0.0806716
0.0854929
0.0897481
0.093545
0.0969592
0.100041
0.102703
0.104897
0.106704
0.108202
0.109454
0.110509
0.111401
0.112161
0.11281
0.113368
0.113846
0.114258
0.114614
0.114918
0.000242097
0.00224699
0.00550934
0.00929118
0.0134382
0.0179226
0.0227451
0.0279257
0.0334871
0.0394326
0.0457224
0.0522181
0.0587959
0.0653722
0.071165
0.076036
0.0803005
0.0840879
0.087494
0.0905859
0.0934086
0.095879
0.0979438
0.0996677
0.101115
0.102338
0.103375
0.104259
0.105016
0.105666
0.106226
0.106711
0.107132
0.107498
0.107817
0.000188327
0.00193549
0.00463194
0.00780499
0.0113931
0.0153876
0.0198063
0.0246617
0.0299526
0.0356488
0.041673
0.047916
0.0542388
0.0604964
0.0659971
0.0706042
0.0746231
0.0781844
0.0813861
0.084297
0.086963
0.0893068
0.0912747
0.0929244
0.094316
0.0954963
0.0965023
0.0973634
0.0981034
0.0987417
0.0992941
0.0997739
0.100192
0.100558
0.100878
0.000182483
0.00180185
0.0044658
0.00763182
0.0111871
0.0150959
0.0193406
0.0239067
0.028775
0.0339139
0.0392597
0.044767
0.0503419
0.0558786
0.0607893
0.0649446
0.0686055
0.0718776
0.0748406
0.0775511
0.0800474
0.0822528
0.0841129
0.0856787
0.0870033
0.088129
0.0890896
0.0899127
0.090621
0.091233
0.091764
0.0922267
0.0926317
0.0929875
0.0933018
0.000149614
0.00169901
0.0040771
0.00685646
0.00998211
0.013446
0.0172451
0.021371
0.0258042
0.0305103
0.0354376
0.0405182
0.0456677
0.0507954
0.0553562
0.0592231
0.0626362
0.0656923
0.0684645
0.0710055
0.0733499
0.0754252
0.0771789
0.078656
0.0799066
0.0809704
0.0818793
0.0826591
0.083331
0.0839124
0.0844177
0.0848589
0.0852461
0.0855876
0.0858902
0.000150488
0.00155816
0.00383849
0.00652947
0.00952648
0.0127913
0.0163043
0.0200513
0.0240169
0.0281754
0.0325065
0.0369713
0.041509
0.046058
0.0501437
0.0536416
0.0567567
0.0595671
0.0621321
0.0644939
0.0666801
0.0686193
0.0702598
0.0716433
0.0728156
0.0738129
0.0746649
0.0753959
0.0760257
0.076571
0.0770455
0.0774605
0.0778254
0.0781482
0.0784358
0.000127964
0.00139298
0.00336679
0.00568949
0.00829919
0.0111752
0.0143029
0.017666
0.0212439
0.0250099
0.0289347
0.0329787
0.0370935
0.041228
0.044956
0.0481608
0.0510269
0.0536227
0.0559999
0.0581943
0.0602293
0.0620358
0.0635645
0.0648541
0.0659465
0.0668757
0.0676693
0.0683501
0.0689368
0.069445
0.0698874
0.0702748
0.0706161
0.0709187
0.0711889
0.000123521
0.00125685
0.0030806
0.00522351
0.00760245
0.010188
0.0129653
0.0159242
0.0190547
0.0223392
0.0257688
0.029316
0.0329446
0.0366173
0.0399593
0.0428564
0.0454678
0.0478484
0.0500392
0.0520684
0.0539539
0.0556294
0.0570477
0.0582437
0.0592564
0.0601173
0.0608519
0.0614816
0.0620239
0.0624934
0.0629022
0.0632604
0.0635764
0.0638573
0.0641088
0.000107876
0.00109828
0.00265778
0.00448363
0.00651675
0.00873774
0.0111364
0.0137054
0.0164367
0.0193188
0.0223431
0.0254871
0.0287238
0.0320227
0.0350472
0.0376863
0.0400778
0.042267
0.0442879
0.0461631
0.0479071
0.0494577
0.0507695
0.0518747
0.0528093
0.0536025
0.0542783
0.0548569
0.0553546
0.0557853
0.0561602
0.0564889
0.0567791
0.0570373
0.0572691
9.77209e-05
0.000946928
0.00231133
0.00389216
0.00563005
0.00751068
0.00953126
0.0116934
0.0139988
0.0164492
0.0190479
0.021782
0.0246325
0.0275731
0.0302987
0.0326964
0.0348827
0.0368931
0.0387542
0.0404841
0.0420938
0.0435242
0.0447327
0.045749
0.0466066
0.047333
0.0479507
0.0484784
0.0489315
0.049323
0.0496636
0.0499621
0.0502258
0.0504609
0.0506723
8.51448e-05
0.00074193
0.00184641
0.00314126
0.00455418
0.00607044
0.00769778
0.00945257
0.011352
0.0134112
0.0156376
0.0180268
0.0205607
0.0232105
0.0256912
0.0278862
0.029895
0.0317465
0.0334621
0.0350566
0.0365389
0.0378539
0.0389623
0.0398921
0.0406745
0.0413351
0.0418953
0.0423724
0.0427812
0.0431337
0.0434399
0.043708
0.0439449
0.0441562
0.0443467
0.000310527
0.000817171
0.0015709
0.00246703
0.00346912
0.00457343
0.00579343
0.00715018
0.00866705
0.0103654
0.012259
0.0143469
0.0166099
0.0190133
0.0212843
0.0233019
0.0251513
0.0268561
0.0284348
0.0299002
0.0312599
0.0324626
0.0334732
0.034318
0.0350263
0.035622
0.0361252
0.0365523
0.0369169
0.0372303
0.0375019
0.0377394
0.0379491
0.0381364
0.0383053
0.000167285
0.000537738
0.00102761
0.00159768
0.00224464
0.00298083
0.00382571
0.00481129
0.00597254
0.00734264
0.00894358
0.0107766
0.0128174
0.0150201
0.0171164
0.0189801
0.0206849
0.0222522
0.0236997
0.0250398
0.0262795
0.0273721
0.0282865
0.0290475
0.0296824
0.0302139
0.0306606
0.031038
0.0313586
0.0316332
0.0318703
0.0320772
0.0322597
0.0324226
0.0325699
7.78909e-05
0.000321568
0.000610189
0.000943249
0.00132763
0.00177252
0.00229573
0.00293095
0.00372481
0.00473226
0.00600069
0.00754837
0.00935197
0.0113526
0.0132788
0.0149923
0.016554
0.0179831
0.0192978
0.0205107
0.0216289
0.0226104
0.0234279
0.0241047
0.0246664
0.0251339
0.0255245
0.0258526
0.02613
0.0263662
0.0265694
0.0267461
0.0269017
0.0270406
0.0271663
4.40709e-05
0.000226603
0.000411135
0.000616438
0.000848169
0.00111739
0.00142989
0.00181093
0.00229677
0.00294219
0.00381441
0.004974
0.0064403
0.00816852
0.0098884
0.0114321
0.0128366
0.0141158
0.0152872
0.0163641
0.0173538
0.0182193
0.0189369
0.0195277
0.0200153
0.0204187
0.0207538
0.0210336
0.0212688
0.0214682
0.0216389
0.0217869
0.0219169
0.022033
0.0221382
3.20402e-05
0.000195135
0.000344668
0.00050148
0.000669172
0.000856017
0.00106815
0.00131985
0.00163273
0.00204063
0.00259415
0.00335944
0.00439865
0.00573001
0.00714631
0.00845831
0.00966383
0.0107616
0.0117648
0.0126858
0.0135317
0.0142704
0.014881
0.0153818
0.015793
0.0161316
0.0164117
0.0166447
0.01684
0.0170052
0.0171466
0.0172692
0.0173771
0.0174735
0.0175612
2.79484e-05
0.000187979
0.000334081
0.000484477
0.000638001
0.000798615
0.000975339
0.00117494
0.00141305
0.00170855
0.0020902
0.00260041
0.00329445
0.00422187
0.00526972
0.00628278
0.00723178
0.00810006
0.00889421
0.00962557
0.0103008
0.0108935
0.0113849
0.0117882
0.0121192
0.0123917
0.0126174
0.0128059
0.012965
0.0131008
0.0132184
0.0133217
0.0134137
0.013497
0.0135733
2.6274e-05
0.000188263
0.00034289
0.00050508
0.00066858
0.000833592
0.00100626
0.00119432
0.00140816
0.00166124
0.00197093
0.00236203
0.00286895
0.00353192
0.00428485
0.0050231
0.00571487
0.00633922
0.00690114
0.00741517
0.00789264
0.00831775
0.00867569
0.00897337
0.00922065
0.00942684
0.00960028
0.00974808
0.00987601
0.0099886
0.0100893
0.0101808
0.0102651
0.0103435
0.0104171
0.147427
0.147583
0.147754
0.147903
0.148018
0.14809
0.148109
0.14807
0.147976
0.147837
0.147664
0.147474
0.147301
0.147182
0.14714
0.147189
0.14733
0.147559
0.147864
0.148233
0.148655
0.149092
0.121423
0.121351
0.121192
0.120977
0.120706
0.120382
0.120016
0.119636
0.119313
0.119133
0.119183
0.119642
0.120649
0.12178
0.122844
0.123748
0.124446
0.124962
0.125343
0.125576
0.125623
0.125548
0.19623
0.196564
0.196885
0.197188
0.197485
0.197751
0.19789
0.1978
0.19739
0.196654
0.195617
0.194329
0.19283
0.191366
0.18998
0.188644
0.187325
0.186009
0.184688
0.183508
0.18261
0.181869
0.162128
0.162368
0.16239
0.162192
0.161761
0.161159
0.16046
0.159646
0.158751
0.157814
0.15688
0.155956
0.155043
0.154257
0.153561
0.152915
0.152358
0.151905
0.151571
0.151271
0.150945
0.150724
0.183895
0.184091
0.184215
0.184275
0.184273
0.184207
0.183978
0.183626
0.183164
0.18262
0.18199
0.181378
0.180756
0.180161
0.179595
0.179057
0.178551
0.178081
0.177651
0.177262
0.176907
0.176572
0.153927
0.154424
0.154912
0.155394
0.155865
0.156318
0.15673
0.15707
0.157343
0.157558
0.157723
0.157852
0.157952
0.158042
0.158134
0.158238
0.158357
0.158493
0.158644
0.15881
0.158992
0.159194
0.153387
0.153797
0.154191
0.154566
0.154924
0.155264
0.155588
0.155895
0.156183
0.156454
0.156713
0.156966
0.15721
0.157437
0.157652
0.157863
0.158073
0.158285
0.158503
0.158725
0.158951
0.159174
0.13716
0.137525
0.137882
0.138236
0.138588
0.138939
0.139288
0.139633
0.139972
0.140307
0.140637
0.140962
0.141273
0.141571
0.141862
0.142148
0.142435
0.142723
0.143016
0.143315
0.143622
0.143942
0.135221
0.135513
0.135789
0.13605
0.136297
0.136533
0.136759
0.136978
0.13719
0.137395
0.137596
0.137794
0.137988
0.138178
0.138367
0.138557
0.13875
0.138949
0.139153
0.139364
0.139583
0.139807
0.128471
0.128846
0.129198
0.12953
0.129845
0.130142
0.130424
0.130691
0.130944
0.131185
0.131413
0.131628
0.131826
0.132008
0.132177
0.132338
0.132495
0.132649
0.132803
0.132959
0.133119
0.133286
0.126372
0.12687
0.127343
0.127788
0.128206
0.128599
0.128966
0.129309
0.129629
0.129926
0.130201
0.130455
0.130683
0.130886
0.131066
0.131228
0.131374
0.131509
0.131634
0.131752
0.131864
0.131971
0.120549
0.121258
0.121944
0.122606
0.123245
0.123859
0.124446
0.125007
0.12554
0.126045
0.126523
0.126969
0.127372
0.127731
0.12805
0.128334
0.128586
0.128812
0.129014
0.129195
0.129357
0.129504
0.115497
0.116363
0.117213
0.118047
0.118862
0.119657
0.12043
0.121179
0.121903
0.1226
0.12327
0.123906
0.124494
0.125025
0.125504
0.125937
0.126327
0.126678
0.126993
0.127276
0.12753
0.127756
0.108484
0.109507
0.110523
0.111531
0.112529
0.113513
0.114483
0.115435
0.116368
0.117279
0.118166
0.119021
0.119821
0.120554
0.121225
0.121839
0.1224
0.122913
0.123381
0.123808
0.124196
0.124549
0.101589
0.102715
0.103842
0.10497
0.106094
0.107214
0.108326
0.109429
0.11052
0.111596
0.112656
0.113689
0.114666
0.115572
0.116411
0.117188
0.117906
0.11857
0.119183
0.119749
0.120269
0.120748
0.0940566
0.0952722
0.0964969
0.0977287
0.0989649
0.100203
0.101442
0.102678
0.103909
0.105133
0.106347
0.107539
0.108676
0.109739
0.110731
0.111657
0.112522
0.113328
0.114079
0.114778
0.115429
0.116034
0.0866655
0.0879401
0.0892293
0.0905315
0.0918449
0.0931674
0.094497
0.0958312
0.0971678
0.0985041
0.0998375
0.101156
0.102422
0.103612
0.104732
0.105784
0.106772
0.1077
0.108571
0.109388
0.110154
0.110871
0.079229
0.0805542
0.0818986
0.0832611
0.0846399
0.0860333
0.0874394
0.0888559
0.0902807
0.0917113
0.0931452
0.0945694
0.0959433
0.0972419
0.0984687
0.0996275
0.100722
0.101754
0.102729
0.103649
0.104516
0.105333
0.0719902
0.0733518
0.074737
0.0761444
0.0775728
0.0790207
0.0804865
0.081968
0.0834632
0.0849698
0.0864851
0.0879954
0.089458
0.0908456
0.0921618
0.0934101
0.0945936
0.0957155
0.0967788
0.0977863
0.0987408
0.0996448
0.0649162
0.0663088
0.0677284
0.0691739
0.0706444
0.0721384
0.0736543
0.0751903
0.0767446
0.0783151
0.0798995
0.0814836
0.0830224
0.0844869
0.0858804
0.087206
0.088467
0.0896663
0.0908067
0.0918911
0.0929219
0.0939018
0.0580776
0.0594934
0.0609395
0.0624152
0.0639193
0.0654506
0.0670078
0.0685894
0.0701936
0.0718184
0.0734618
0.0751092
0.0767139
0.0782452
0.079706
0.0810994
0.0824284
0.0836956
0.084904
0.086056
0.0871543
0.0882013
0.0514791
0.0529122
0.0543788
0.0558781
0.0574094
0.0589715
0.0605634
0.0621836
0.0638307
0.0655027
0.0671976
0.0689007
0.0705636
0.0721541
0.0736749
0.0751289
0.0765186
0.0778468
0.0791161
0.080329
0.081488
0.0825953
0.0451475
0.046591
0.048071
0.0495872
0.0511388
0.0527249
0.0543447
0.0559968
0.0576799
0.0593922
0.0611318
0.0628837
0.0645981
0.0662414
0.0678161
0.0693245
0.0707692
0.0721527
0.0734774
0.0747456
0.0759597
0.077122
0.0390965
0.0405427
0.0420289
0.0435548
0.0451197
0.0467231
0.048364
0.0500414
0.051754
0.0535002
0.0552781
0.0570726
0.0588325
0.060523
0.062146
0.0637037
0.0651984
0.0666323
0.0680076
0.0693266
0.0705915
0.0718044
0.0333462
0.0347856
0.036269
0.037796
0.0393662
0.040979
0.0426336
0.0443292
0.0460644
0.0478378
0.0496476
0.0514785
0.053278
0.0550101
0.0566764
0.0582786
0.0598187
0.0612986
0.0627204
0.0640861
0.0653978
0.0666575
0.0279213
0.0293411
0.0308097
0.0323269
0.0338922
0.0355049
0.0371645
0.0388699
0.0406201
0.0424135
0.0442483
0.0461091
0.0479423
0.0497106
0.0514151
0.0530571
0.0546382
0.05616
0.0576243
0.059033
0.0603879
0.0616909
0.0228617
0.0242425
0.0256791
0.0271709
0.0287172
0.0303173
0.0319703
0.0336752
0.0354308
0.0372355
0.0390874
0.0409708
0.0428312
0.04463
0.0463675
0.0480447
0.0496625
0.0512222
0.0527252
0.0541732
0.0555678
0.0569107
0.0182373
0.0195476
0.0209244
0.0223665
0.0238726
0.0254413
0.0270713
0.0287612
0.0305094
0.0323141
0.0341731
0.0360702
0.0379501
0.0397727
0.0415377
0.043245
0.044895
0.0464886
0.0480267
0.0495104
0.0509413
0.0523208
0.0141755
0.0153607
0.0166305
0.017982
0.0194126
0.0209198
0.0225011
0.0241541
0.0258762
0.0276648
0.029517
0.031416
0.0333054
0.0351437
0.0369292
0.0386608
0.0403381
0.0419613
0.0435307
0.045047
0.046511
0.0479238
0.0109007
0.0118689
0.0129497
0.0141395
0.015434
0.0168284
0.0183182
0.0198985
0.0215649
0.0233128
0.0251379
0.027022
0.0289073
0.0307502
0.0325471
0.0342955
0.035994
0.0376416
0.0392381
0.0407835
0.0422781
0.0437223
0.14972
0.150372
0.150768
0.150874
0.150653
0.150064
0.125516
0.125519
0.125511
0.125499
0.125488
0.125484
0.181226
0.180842
0.180688
0.180768
0.181079
0.181604
0.150579
0.150486
0.150479
0.150553
0.150703
0.150909
0.176271
0.176085
0.176012
0.176054
0.176203
0.176451
0.159311
0.159308
0.159298
0.159284
0.159266
0.159245
0.15925
0.159189
0.159152
0.159136
0.15914
0.159168
0.144087
0.144048
0.144025
0.14402
0.144034
0.144065
0.139909
0.139889
0.139885
0.139895
0.139918
0.139956
0.133367
0.133361
0.133367
0.133383
0.13341
0.133448
0.132032
0.132047
0.132064
0.132083
0.132104
0.132127
0.129588
0.129609
0.129627
0.129641
0.129652
0.129659
0.127883
0.127912
0.12793
0.127938
0.127935
0.127921
0.124737
0.124766
0.124781
0.124782
0.124769
0.124742
0.121002
0.121035
0.121049
0.121046
0.121024
0.120984
0.116351
0.116385
0.116399
0.116393
0.116367
0.116321
0.111246
0.111282
0.111297
0.11129
0.111262
0.111212
0.105759
0.105797
0.105812
0.105806
0.105777
0.105727
0.100115
0.100154
0.100171
0.100166
0.100138
0.100088
0.09441
0.0944504
0.0944685
0.0944643
0.0944379
0.0943892
0.0887431
0.088784
0.088803
0.0888001
0.0887752
0.0887285
0.0831669
0.0832076
0.0832271
0.0832253
0.0832021
0.0831577
0.0777205
0.0777606
0.0777802
0.0777793
0.0777578
0.0777158
0.0724271
0.0724662
0.0724857
0.0724855
0.0724656
0.072426
0.0673024
0.0673401
0.0673592
0.0673594
0.067341
0.0673038
0.0623561
0.0623921
0.0624105
0.0624111
0.062394
0.0623592
0.0575943
0.0576285
0.057646
0.0576468
0.0576309
0.0575983
0.0530211
0.0530532
0.0530696
0.0530705
0.0530558
0.0530254
0.0486389
0.0486686
0.0486839
0.0486848
0.0486712
0.048643
0.0444496
0.0444763
0.04449
0.0444907
0.0444785
0.0444531
0.149363
0.148731
0.148002
0.147209
0.146364
0.145493
0.144625
0.143793
0.143025
0.142347
0.141771
0.141307
0.140962
0.140731
0.140595
0.140539
0.140546
0.1406
0.14069
0.140804
0.140936
0.141104
0.125544
0.125675
0.125709
0.125583
0.125359
0.125012
0.124473
0.123681
0.122608
0.121282
0.119755
0.118276
0.117382
0.116981
0.116891
0.117017
0.117247
0.117502
0.117753
0.117985
0.118187
0.118326
0.182343
0.183157
0.184071
0.185182
0.186264
0.187227
0.18806
0.188811
0.189513
0.190217
0.190978
0.191823
0.192587
0.193155
0.193527
0.193756
0.19391
0.194036
0.194139
0.194212
0.194234
0.194221
0.151124
0.151368
0.151678
0.151919
0.152189
0.152529
0.152923
0.153356
0.153856
0.154463
0.155155
0.155948
0.156819
0.157733
0.158659
0.159606
0.160457
0.161184
0.161793
0.16222
0.162461
0.162504
0.17679
0.177137
0.177495
0.177866
0.178256
0.178667
0.179099
0.179553
0.180034
0.180549
0.18109
0.181697
0.182289
0.182845
0.183318
0.18362
0.183818
0.183971
0.184093
0.184155
0.18414
0.18405
0.159111
0.158889
0.15869
0.15851
0.158348
0.158204
0.158077
0.157965
0.15786
0.157749
0.157619
0.157451
0.157229
0.156951
0.156614
0.156222
0.155779
0.155286
0.154754
0.154225
0.153703
0.153182
0.159066
0.158819
0.158573
0.158335
0.158105
0.157882
0.157663
0.157444
0.157218
0.156979
0.156729
0.156464
0.156183
0.155883
0.15556
0.155213
0.154846
0.154464
0.154068
0.153661
0.153243
0.152819
0.143918
0.143593
0.143282
0.142981
0.14269
0.142405
0.142125
0.141845
0.141561
0.141267
0.140956
0.140624
0.140272
0.13991
0.139536
0.139154
0.138764
0.138368
0.137967
0.137564
0.137156
0.136737
0.139873
0.139667
0.139467
0.139276
0.139094
0.13892
0.13875
0.138583
0.138413
0.138236
0.138046
0.13784
0.137622
0.137393
0.137152
0.136899
0.136632
0.136352
0.136056
0.135744
0.135414
0.135066
0.133394
0.133252
0.133115
0.132983
0.132852
0.132718
0.13258
0.132433
0.132274
0.132097
0.131897
0.131671
0.131419
0.131147
0.130854
0.130542
0.130209
0.129855
0.129482
0.129088
0.128673
0.128234
0.132099
0.132019
0.131932
0.131837
0.131731
0.131612
0.131475
0.131318
0.131135
0.130924
0.130679
0.130396
0.130081
0.129737
0.129367
0.128971
0.128549
0.128102
0.12763
0.127133
0.126611
0.126068
0.129598
0.129465
0.129315
0.129143
0.128946
0.12872
0.128463
0.128169
0.127835
0.127455
0.127025
0.126544
0.12602
0.125466
0.124884
0.124275
0.123642
0.122985
0.122306
0.121607
0.12089
0.120156
0.127804
0.12758
0.127326
0.127039
0.126716
0.126354
0.12595
0.1255
0.124999
0.124445
0.123833
0.123162
0.122449
0.12171
0.120946
0.120161
0.119356
0.118534
0.117696
0.116845
0.115982
0.11511
0.12455
0.124188
0.123788
0.123348
0.122864
0.122334
0.121753
0.121119
0.120428
0.119676
0.118858
0.117976
0.117052
0.116107
0.115145
0.114166
0.113176
0.112175
0.111167
0.110154
0.109137
0.10812
0.120719
0.120224
0.119685
0.119102
0.11847
0.117788
0.117051
0.116257
0.115402
0.114483
0.113496
0.112444
0.111354
0.110252
0.10914
0.108021
0.106897
0.105772
0.104646
0.103524
0.102407
0.101296
0.115988
0.115363
0.114692
0.113973
0.113203
0.11238
0.1115
0.11056
0.109557
0.108489
0.10735
0.106145
0.104908
0.103664
0.102419
0.101173
0.0999304
0.0986923
0.0974616
0.0962405
0.0950309
0.0938346
0.110819
0.110081
0.109296
0.10846
0.107573
0.10663
0.10563
0.10457
0.103446
0.102255
0.100995
0.0996708
0.0983186
0.0969683
0.0956227
0.0942841
0.0929549
0.0916373
0.0903333
0.0890446
0.0877728
0.0865198
0.105284
0.104447
0.103561
0.102625
0.101636
0.100591
0.0994892
0.0983264
0.0970999
0.095807
0.0944444
0.0930192
0.0915696
0.090128
0.0886968
0.0872782
0.0858744
0.0844875
0.0831192
0.0817711
0.0804448
0.0791413
0.0996023
0.0986794
0.0977081
0.0966861
0.0956111
0.0944808
0.0932927
0.0920441
0.0907322
0.0893543
0.0879072
0.0863988
0.0848694
0.0833531
0.0818524
0.0803696
0.0789066
0.0774654
0.0760474
0.074654
0.0732864
0.0719456
0.0938673
0.09287
0.091824
0.0907271
0.0895772
0.088372
0.087109
0.0857856
0.0843992
0.0829471
0.0814264
0.0798455
0.0782473
0.0766671
0.0751071
0.0735692
0.0720553
0.070567
0.0691058
0.0676728
0.0662691
0.0648954
0.0881748
0.0871116
0.0859996
0.0848366
0.0836205
0.082349
0.0810198
0.0796305
0.0781784
0.0766611
0.075076
0.0734321
0.0717742
0.0701387
0.0685277
0.0669431
0.0653865
0.0638592
0.0623625
0.0608975
0.0594651
0.0580661
0.0825758
0.0814532
0.0802815
0.0790588
0.0777829
0.0764516
0.0750626
0.0736138
0.0721027
0.0705269
0.0688841
0.067184
0.0654731
0.0637889
0.0621334
0.0605083
0.058915
0.0573549
0.0558289
0.054338
0.0528829
0.051464
0.0771083
0.0759313
0.074705
0.0734275
0.0720969
0.0707109
0.0692675
0.0677646
0.0661999
0.0645714
0.0628769
0.061127
0.0593696
0.0576432
0.0559496
0.0542906
0.0526673
0.051081
0.0495325
0.0480225
0.0465515
0.04512
0.0717949
0.0705676
0.0692908
0.0679628
0.0665816
0.0651453
0.063652
0.0620997
0.0604865
0.0588105
0.0570699
0.055276
0.0534782
0.0517158
0.0499907
0.0483042
0.0466577
0.045052
0.0434879
0.041966
0.0404866
0.0390501
0.0666511
0.0653768
0.0640531
0.0626783
0.0612505
0.059768
0.058229
0.0566318
0.0549748
0.0532564
0.0514753
0.0496434
0.0478116
0.0460199
0.04427
0.0425634
0.0409011
0.039284
0.0377127
0.0361876
0.0347091
0.0332775
0.0616863
0.0603684
0.0590012
0.057583
0.0561123
0.0545874
0.0530069
0.0513692
0.0496732
0.0479178
0.0461019
0.0442384
0.0423795
0.0405659
0.0387991
0.0370808
0.0354117
0.0337929
0.0322248
0.030708
0.0292426
0.0278289
0.056907
0.0555486
0.0541412
0.0526832
0.0511731
0.0496097
0.0479918
0.0463182
0.0445882
0.0428013
0.0409571
0.0390693
0.0371914
0.0353647
0.0335909
0.0318715
0.0302076
0.0286001
0.0270497
0.025557
0.0241225
0.0227466
0.0523171
0.0509215
0.0494771
0.0479826
0.0464369
0.0448388
0.0431878
0.0414833
0.039725
0.0379131
0.0360483
0.0341452
0.0322586
0.0304305
0.0286628
0.0269573
0.0253154
0.0237385
0.0222278
0.0207842
0.0194089
0.0181032
0.0479195
0.0464899
0.0450116
0.0434838
0.0419059
0.0402775
0.0385984
0.0368687
0.035089
0.0332605
0.0313848
0.0294784
0.0275974
0.0257844
0.0240421
0.0223732
0.0207799
0.0192647
0.0178298
0.0164775
0.0152104
0.0140308
0.0437169
0.042255
0.0407453
0.0391877
0.0375819
0.0359283
0.0342274
0.03248
0.030688
0.0288539
0.0269812
0.0250886
0.023234
0.0214615
0.0197752
0.0181797
0.0166795
0.015279
0.0139828
0.0127955
0.011721
0.0107625
0.141208
0.141212
0.141277
0.14139
0.141524
0.141629
0.141626
0.141378
0.140801
0.13974
0.13807
0.135629
0.132345
0.128124
0.123037
0.117992
0.116038
0.112295
0.107731
0.103075
0.0986743
0.0944793
0.0892179
0.0825106
0.0772493
0.0715445
0.0657734
0.0597202
0.0527215
0.0445926
0.0355315
0.0257982
0.0156603
0.00583551
0.00157607
0.118312
0.118257
0.118186
0.118098
0.117994
0.117869
0.117718
0.117534
0.117317
0.117066
0.116778
0.116453
0.116084
0.115643
0.115115
0.114046
0.11253
0.110922
0.108856
0.106339
0.103843
0.101313
0.0967053
0.0890762
0.0815292
0.0793105
0.0806578
0.0815735
0.0790054
0.0727461
0.0628243
0.0492259
0.0318285
0.0131579
0.00153456
0.194116
0.193875
0.193568
0.193193
0.192736
0.192191
0.191563
0.190865
0.19012
0.189382
0.188743
0.188259
0.187699
0.186429
0.1835
0.17876
0.172389
0.16411
0.153687
0.142563
0.131199
0.122803
0.115496
0.10218
0.0950356
0.0957857
0.100317
0.102466
0.0997751
0.0918981
0.0794272
0.063009
0.0431937
0.0207639
0.00209369
0.162335
0.162215
0.162026
0.161774
0.161494
0.161236
0.161089
0.161193
0.161723
0.162781
0.16404
0.163952
0.161773
0.156871
0.148457
0.136808
0.123481
0.109458
0.0975532
0.0924096
0.0966988
0.101264
0.0987965
0.0890974
0.0764632
0.0661017
0.0591434
0.0538857
0.0490006
0.0435142
0.0366778
0.0284514
0.0190056
0.00877529
0.00135058
0.183997
0.183966
0.183878
0.183727
0.18349
0.183168
0.182722
0.182084
0.181207
0.179696
0.177654
0.174745
0.170843
0.165521
0.156845
0.143905
0.124872
0.102068
0.0862753
0.0840905
0.090224
0.0975075
0.0997119
0.0927442
0.0811626
0.0692814
0.0589101
0.0499953
0.0421928
0.035068
0.02829
0.0215981
0.0147772
0.00758072
0.000878868
0.152849
0.152716
0.152567
0.152392
0.152177
0.151894
0.151506
0.150931
0.150034
0.148592
0.146193
0.142209
0.135785
0.125676
0.111114
0.0942565
0.0773186
0.0649832
0.0587844
0.0564546
0.055929
0.0570805
0.0568634
0.0560243
0.0513692
0.0456085
0.0396796
0.0339576
0.0285504
0.0234527
0.0186014
0.013868
0.00916745
0.00435895
0.000627436
0.152561
0.152446
0.152288
0.152093
0.151841
0.151509
0.151062
0.150439
0.149561
0.148319
0.146578
0.14412
0.140488
0.134928
0.125979
0.112146
0.0945666
0.0755502
0.0587825
0.047211
0.0431246
0.0452594
0.0478857
0.0483593
0.0471157
0.0440152
0.0399035
0.0353133
0.0305284
0.0256653
0.0207452
0.0157137
0.0105282
0.00512424
0.00052122
0.136458
0.136325
0.136159
0.135945
0.135666
0.135296
0.13479
0.134083
0.133063
0.131555
0.129284
0.125809
0.120469
0.112284
0.100478
0.0856728
0.0700393
0.0546721
0.0396531
0.0307247
0.0258588
0.0243336
0.0233023
0.0220206
0.0211065
0.0194728
0.0173782
0.0151977
0.0129491
0.0107028
0.00850129
0.00635995
0.00416236
0.00195238
0.00031294
0.134818
0.134658
0.134451
0.134192
0.133864
0.133445
0.132907
0.1322
0.131248
0.12994
0.128106
0.125534
0.121894
0.11669
0.10929
0.0995479
0.0881889
0.0763575
0.0647889
0.0543691
0.0456128
0.0386701
0.0335133
0.0295189
0.0259878
0.0226816
0.0195843
0.0167257
0.0140965
0.0116373
0.00925472
0.00684858
0.00438384
0.00191868
0.000272246
0.127902
0.127696
0.127446
0.12714
0.126765
0.126305
0.125737
0.125029
0.124135
0.122992
0.121506
0.119543
0.116919
0.113387
0.108684
0.102835
0.0961312
0.0887666
0.0810041
0.0731438
0.0654501
0.0578902
0.050849
0.0445619
0.0386859
0.0330933
0.0278006
0.0228293
0.0182092
0.0139702
0.010178
0.00689792
0.00415681
0.00191052
0.000257143
0.125674
0.125419
0.125113
0.124748
0.124315
0.123798
0.123181
0.122439
0.121536
0.120426
0.119047
0.117311
0.115105
0.11229
0.108718
0.104426
0.0995671
0.0941753
0.0883192
0.0820807
0.0755153
0.0684228
0.0611169
0.054233
0.0476555
0.0414434
0.0356562
0.0302726
0.0252363
0.0204754
0.0159097
0.0114734
0.00713469
0.00303127
0.000362312
0.119641
0.119349
0.119009
0.11861
0.118144
0.117597
0.116953
0.116192
0.115289
0.11421
0.112911
0.111336
0.109412
0.107043
0.104129
0.100714
0.0969072
0.0926852
0.0880206
0.0828672
0.0771441
0.0705481
0.06331
0.0561856
0.0491307
0.0423196
0.0358975
0.0299472
0.0244944
0.0195017
0.0148954
0.0105756
0.00648544
0.00274517
0.000324589
0.114526
0.114212
0.113847
0.113427
0.112939
0.112374
0.111715
0.110947
0.110046
0.108984
0.107724
0.10622
0.104408
0.102206
0.099537
0.0964482
0.0930303
0.0892363
0.0849952
0.0802048
0.0747233
0.068209
0.0608566
0.0535155
0.0463743
0.0396063
0.033317
0.0275332
0.0222385
0.0173945
0.012951
0.00889078
0.00524422
0.00213777
0.000237607
0.107456
0.107132
0.106762
0.106337
0.105849
0.105285
0.104633
0.103875
0.102991
0.101955
0.100736
0.0992937
0.0975771
0.0955221
0.0930645
0.0902563
0.0871802
0.0837912
0.0800227
0.0757803
0.0709376
0.0651866
0.0586766
0.0522158
0.0458349
0.0396722
0.0338353
0.0283363
0.0231569
0.0182795
0.0137008
0.00943837
0.00555185
0.00223094
0.000240178
0.100593
0.100271
0.0999041
0.0994855
0.0990058
0.0984544
0.0978184
0.0970823
0.0962269
0.0952292
0.09406
0.092682
0.0910473
0.0890974
0.0867745
0.0841287
0.0812341
0.078043
0.0744847
0.070461
0.0658436
0.0603329
0.0540781
0.0477802
0.0415812
0.0356147
0.02998