/*--------------------------------*- C++ -*----------------------------------*\
  =========                 |
  \\      /  F ield         | OpenFOAM: The Open Source CFD Toolbox
   \\    /   O peration     | Website:  https://openfoam.org
    \\  /    A nd           | Version:  8
     \\/     M anipulation  |
\*---------------------------------------------------------------------------*/
FoamFile
{
    version     2.0;
    format      ascii;
    class       volScalarField;
    location    "0.05";
    object      epsilon;
}
// * * * * * * * * * * * * * * * * * * * * * * * * * * * * * * * * * * * * * //

dimensions      [0 2 -3 0 0 0 0];

internalField   nonuniform List<scalar> 
15677
(
3.86991e+06
943687
623833
518097
463870
430051
405722
384944
362306
330791
290113
246768
208377
173690
146439
125922
110056
97642.1
86777.8
77783.3
69453.4
63560.6
60057.6
58261.2
57508.6
57320.1
57395.6
57539.7
57629.2
57623.7
57540.7
57406.7
57269
57159.1
57091.9
1.05461e+07
3.05996e+06
1.85925e+06
1.48985e+06
1.34967e+06
1.30352e+06
1.29915e+06
1.30789e+06
1.24154e+06
929168
578685
370014
268357
211451
168434
141874
124673
111536
100505
91959.3
85086.9
79825.7
75917.9
72904.3
70491.6
68522.7
66904.2
65574.5
64487.8
63607.3
62901
62339.9
61896.6
61543.5
61255.2
1.26537e+07
5.6409e+06
4.69179e+06
4.51842e+06
4.59565e+06
4.73697e+06
4.77055e+06
4.47616e+06
3.67582e+06
2.49905e+06
1.36036e+06
709538
396328
253770
186815
150377
130517
119980
114856
112432
111223
110013
108024
105016
101069
97026.1
93445.3
90562.1
88374.7
86790
85692.7
84973.3
84538.8
84314.1
84237.3
6.68668e+06
3.3607e+06
2.73186e+06
2.52318e+06
2.42121e+06
2.32707e+06
2.18518e+06
1.97151e+06
1.68008e+06
1.35267e+06
1.04677e+06
826814
733966
647849
446873
272515
177180
135002
119115
115862
121286
134050
149323
160776
163513
155868
144053
133625
125377
119022
114138
110366
107433
105140
103331
1.82942e+06
1.02097e+06
893536
854062
835324
819226
799029
773895
747028
726708
729568
759271
756806
644697
443012
286320
178120
114946
83295.8
69696.7
66580.4
69295.4
74308.2
79199.8
83153.6
86006.5
87732.3
88352.7
88112.4
87371.9
86404.8
85278.9
84103.3
82919.2
81740.7
736548
388627
339950
331919
333688
337487
340552
342216
342828
342618
341092
339064
311839
248183
191681
146521
109277
79874
58900.5
47051.7
42888.6
43523.4
46110.7
48844.5
50769.3
51777.4
52178.7
52300.3
52324.9
52321.1
52292.2
52234.4
52147.4
52036.7
51910.5
407140
209348
179817
173788
175042
179699
186723
195871
206394
213068
212762
201329
170623
123185
79626.5
53020.4
40297.9
34277
30552
28352
27675.6
28296.9
29654.4
31234.9
32660.3
33870.4
34852.1
35566.6
36065.1
36408.1
36642.9
36801.1
36902.2
36956.6
36973
96874
63405.2
61359.6
63429
67051
70890.5
74559.4
77719.2
79808.8
79600
77395.2
71503.8
63079.8
52573.6
42335.6
34507.6
30289.9
28484.5
25597.9
22194.6
20076.6
19458.9
19659.3
20178.9
20750
21263.4
21703.4
22081.9
22411.3
22698.5
22946.7
23158.1
23336.4
23486.2
23611.6
41402.7
20778.8
16945.7
15340.2
15080.3
15405.7
15882.5
15903.4
15260.3
14245.7
13742.9
13684.7
13909.8
13931.9
13390.2
12858.9
12578.6
12459.1
12338.8
12336.9
12548.4
12856.4
13216.2
13638.9
14097.5
14532.6
14902.2
15210.1
15471.3
15696.4
15891.7
16060.6
16204.3
16324.7
16424.6
27172
12403.2
9419.9
8291.38
7690.95
7295.62
6985.42
6727.85
6517.69
6399.89
6427.64
6541.65
6705.75
6890.11
7070.41
7251.52
7444.65
7645.22
7879.88
8169.91
8528.78
8927.82
9315.87
9670.62
9991.34
10278.7
10532.9
10755.3
10948.6
11116
11260.4
11384.9
11492.2
11584.7
11664.3
69732.7
24568.9
16306.8
12785.8
10664.5
9131.52
7909.6
6886.35
6038.09
5365.28
4925.83
4689.49
4598.05
4614.52
4720.66
4882.7
5089.39
5334.45
5617.41
5936.54
6285.38
6638.8
6967.22
7261.09
7517.77
7737.18
7925.34
8087.59
8227.66
8348.75
8453.25
8543.07
8619.92
8685.27
8740.51
55520.9
20048.2
13595.1
10757
8903.8
7501.9
6384.73
5492.05
4788.63
4247.8
3858.46
3607.4
3480.22
3459.14
3536.28
3675.18
3860.8
4081.51
4329.02
4596.01
4875.22
5148.27
5395.66
5613.87
5804.33
5969.41
6112.01
6235
6341.06
6432.55
6511.48
6579.58
6638.36
6689.1
6732.95
23407.7
9254.48
6476.09
5353.23
4721.38
4278.2
3908.37
3581.92
3292.41
3044.77
2848.38
2712.4
2644.35
2650.05
2727.88
2852.09
3012.61
3200.41
3408.17
3629.56
3858.29
4077.99
4273.06
4441.77
4586.97
4712.36
4820.91
4914.94
4996.47
5067.13
5128.28
5180.96
5226.26
5265.12
5298.33
24791.9
8766.27
5764.28
4548.89
3867.81
3408.84
3060.25
2773.95
2530.97
2333.71
2187.13
2095.01
2058.52
2078.72
2153.03
2260.76
2394.38
2546.81
2712.43
2886.39
3064.18
3234.05
3385.11
3516.85
3631.09
3729.91
3815.35
3889.23
3953.15
4008.48
4056.43
4098.04
4134.18
4165.62
4193.01
11536
4815.18
3341.21
2693.39
2320.01
2076.47
1905.45
1780.75
1688.84
1622.46
1578.46
1559.43
1568.9
1612.11
1687.32
1782.46
1894.72
2019.87
2154.13
2293.96
2435.95
2570.81
2689.99
2793.38
2882.84
2960.35
3027.6
3085.94
3136.56
3180.5
3218.65
3251.77
3280.53
3305.49
3327.14
10569.2
3886.37
2584.93
2050.79
1755.36
1566.8
1436.8
1343.85
1277.46
1232.61
1207.77
1202.32
1218.45
1259.84
1324.11
1402.41
1493.09
1593.1
1699.73
1810.36
1922.54
2029.13
2123.62
2206.02
2277.51
2339.4
2392.96
2439.3
2479.43
2514.26
2544.54
2570.94
2594.03
2614.27
2632.07
5794.61
2384
1665.91
1360.81
1189.83
1081.16
1007.98
958.103
925.469
907.137
902.016
910.421
933.958
975.305
1031.98
1097.53
1171.5
1252.01
1337.15
1425.18
1514.3
1598.91
1674.02
1739.22
1795.69
1844.64
1887.08
1923.91
1955.89
1983.71
2007.94
2029.1
2047.61
2063.85
2078.13
5913.46
2152.62
1417.34
1118.76
957.915
859.336
795.106
752.594
725.468
710.627
706.459
712.916
731.21
763.377
807.608
859.028
917.266
980.772
1048.11
1117.81
1188.32
1255.3
1314.7
1366.42
1411.31
1450.21
1483.91
1513.13
1538.48
1560.53
1579.76
1596.58
1611.34
1624.36
1635.89
3628.14
1476.6
1015.31
820.114
711.556
643.47
598.553
568.874
550.393
541.052
539.938
547.14
563.54
590.727
627.065
668.636
715.279
765.878
819.358
874.585
930.458
983.364
1030.25
1071.14
1106.63
1137.38
1164.04
1187.18
1207.3
1224.83
1240.13
1253.55
1265.35
1275.76
1284.99
3266.32
1215.44
809.09
644.258
555.593
501.433
466.344
443.28
428.679
420.88
419.323
424.292
436.63
457.644
486.132
518.814
555.603
595.591
637.914
681.636
725.773
767.542
804.563
836.869
864.941
889.286
910.391
928.7
944.609
958.465
970.568
981.182
990.541
998.835
1006.22
2173.98
850.922
581.51
469.949
408.962
371.26
346.678
330.586
320.686
315.896
315.792
320.645
331.17
348.484
371.652
398.104
427.69
459.691
493.404
528.056
562.953
595.981
625.235
650.747
672.9
692.091
708.711
723.126
735.655
746.575
756.125
764.513
771.914
778.479
784.332
1616.32
603.095
409.429
333.234
292.994
268.636
252.968
242.881
236.886
234.314
234.979
239.262
247.871
261.821
280.43
301.652
325.353
350.898
377.713
405.218
432.867
458.979
482.049
502.125
519.527
534.583
547.607
558.886
568.672
577.192
584.643
591.191
596.976
602.118
606.716
1069.42
399.843
269.092
219.081
194.489
180.961
173.148
168.696
166.554
166.354
168.184
172.478
179.949
191.518
206.683
223.849
242.919
263.396
284.792
306.637
328.505
349.085
367.2
382.908
396.478
408.183
418.277
426.999
434.554
441.125
446.866
451.909
456.364
460.324
463.868
218.856
162.388
135.03
121.978
115.673
112.785
111.694
111.614
112.247
113.634
116.079
120.11
126.43
135.869
148.068
161.804
177.019
193.31
210.275
227.527
244.716
260.801
274.89
287.041
297.487
306.455
314.155
320.781
326.5
331.458
335.779
339.568
342.912
345.886
348.552
117.83
81.0849
69.952
66.3539
65.8107
66.5918
67.9983
69.619
71.3566
73.3412
75.8977
79.5071
84.7604
92.3318
101.965
112.756
124.694
137.469
150.756
164.23
177.593
190.018
200.822
210.07
217.96
224.682
230.414
235.314
239.519
243.145
246.292
249.042
251.467
253.622
255.558
54.8294
43.0196
37.7028
36.2148
36.6292
37.9295
39.6393
41.4157
43.1601
44.9686
47.1099
49.9681
53.9917
59.6915
66.909
75.0224
84.0551
93.7785
103.926
114.22
124.396
133.794
141.894
148.756
154.545
159.424
163.539
167.022
169.983
172.515
174.697
176.595
178.264
179.749
181.085
31.012
27.0259
22.951
21.4853
21.4441
22.132
23.2921
24.5595
25.7987
27.0326
28.4111
30.2238
32.826
36.6029
41.5092
47.1555
53.5753
60.6038
68.0248
75.5971
83.0824
89.9559
95.8189
100.722
104.796
108.176
110.981
113.317
115.274
116.925
118.333
119.549
120.613
121.56
122.416
22.5456
18.8594
15.3235
13.9189
13.6108
13.8909
14.5414
15.3461
16.1577
16.9197
17.6769
18.5835
19.8679
21.8407
24.6177
28.0298
32.1096
36.7461
41.7721
46.9848
52.1733
56.9269
60.941
64.2453
66.9375
69.1199
70.8876
72.3231
73.4962
74.4643
75.2745
75.9653
76.5671
77.1045
77.5959
19.6663
15.1938
11.6601
10.1775
9.66559
9.67774
9.97831
10.4547
10.9671
11.4394
11.8441
12.2162
12.6641
13.3857
14.5683
16.2237
18.3975
21.0364
24.0335
27.2415
30.4925
33.4851
35.9928
38.0209
39.631
40.8938
41.8774
42.6423
43.2395
43.7112
44.0914
44.4086
44.6839
44.9336
45.1698
18.4882
13.2505
9.72031
8.19475
7.56737
7.40486
7.50336
7.75002
8.05266
8.33436
8.5454
8.66954
8.73759
8.84317
9.14828
9.73503
10.6524
11.8877
13.3882
15.068
16.8183
18.4475
19.805
20.8801
21.7038
22.3176
22.764
23.0817
23.3038
23.4576
23.5657
23.6463
23.7138
23.7796
23.8519
56992
56862.8
56756.3
56654.9
56533.5
56352.6
56055
55574.7
54882.8
53955.7
52776.6
51348.3
49734.8
48027.6
46283.6
44548.8
42860
41246.8
39731.5
38330.5
37056.4
35911.7
60876.1
60404.3
59953.8
59547.6
59197.6
58902.2
58651.6
58436.8
58257.8
58151.3
58203.8
58597.7
59656.2
61760.5
65017.6
69290.2
74098.5
79071.3
83869.9
88161.4
91624.6
94031.9
84162.3
84305.2
84824.6
85801.8
87223.2
88801.8
89930.9
90120.5
89128.4
87160.2
84703.4
82324
80494
79402.8
79047.7
79313.5
80037.8
81060.6
82252.6
83452.5
84505.4
85354.2
101401
98642.7
95370.3
91698
87758
84419.9
81600.7
79271.9
77402.4
75938.8
74838.6
74095.1
73737.8
73679.1
73866.5
74240
74737.5
75300.8
75876.2
76472.5
77117.2
77759.5
80442.9
78881.8
77219.5
75611.5
74122.7
72821.3
71780.8
70871.5
70140.9
69626.5
69369.4
69360.4
69579.6
69944.2
70380.4
70838.5
71290.1
71720.4
72120.5
72481.8
72793.9
73058.5
52008.4
52287.8
52509.1
52685.6
52836.3
52983.3
53151.3
53363.4
53632.3
53972.8
54399.6
54918.5
55511.2
56148.1
56808
57472
58126.2
58759
59362.2
59931.1
60465.5
60965.6
37179.6
37579.4
37956.4
38322.9
38684.7
39051.7
39434.6
39844.3
40291.7
40786.9
41339.1
41951.8
42598.4
43244.6
43882.4
44507.8
45116.4
45703.2
46263.7
46793.8
47290.6
47756.1
23948.6
24503.7
25054.9
25602.1
26145.8
26687.7
27230.2
27776.4
28329.7
28894.3
29474.3
30069.7
30665.8
31250.5
31823.6
32384.2
32931.5
33464.5
33982.4
34484.5
34970.5
35440.1
16670.8
17077.8
17492
17913.3
18341.7
18777.2
19220.3
19672.4
20134.4
20608
21095.4
21595.5
22097.4
22590.4
23074.2
23548
24010.9
24461.8
24899.6
25324.2
25735.1
26132.9
11856
12170.9
12492.9
12822
13158.2
13501.8
13853
14212.2
14579.8
14956.4
15342.6
15736.5
16128
16510.3
16884.3
17250.4
17609.2
17960.7
18305.2
18642.7
18973.3
19297.3
8876.69
9103.8
9338.25
9580.2
9829.78
10087.1
10352.5
10625.9
10907.8
11198.4
11498.4
11806.1
12113.5
12414.5
12709.2
12998
13280.9
13558.3
13830.1
14096.6
14357.9
14614.3
6841.48
7021.84
7207.43
7398.44
7595.08
7797.55
8006.07
8220.87
8442.19
8670.3
8905.5
9146.39
9386.67
9621.75
9852.01
10077.7
10299.2
10516.7
10730.3
10940.4
11147.1
11350.5
5384.44
5529.73
5679.88
5834.96
5995.08
6160.34
6330.85
6506.71
6688.05
6875.12
7068.19
7266.18
7463.84
7657.24
7846.52
8031.88
8213.5
8391.55
8566.2
8737.63
8905.98
9071.46
4266.18
4390
4517.88
4649.84
4785.96
4926.33
5071.09
5220.33
5374.2
5532.85
5696.47
5864.07
6031.2
6194.57
6354.34
6510.7
6663.85
6813.93
6961.1
7105.51
7247.29
7386.54
3388.64
3494.42
3604.05
3717.57
3835.03
3956.44
4081.92
4211.57
4345.48
4483.79
4626.67
4773.19
4919.42
5062.37
5202.16
5338.87
5472.63
5603.56
5731.79
5857.44
5980.63
6101.47
2684.93
2776.56
2871.76
2970.56
3072.96
3179.05
3288.92
3402.69
3520.49
3642.43
3768.64
3898.3
4027.91
4154.79
4279
4400.57
4519.57
4636.07
4750.15
4861.89
4971.38
5078.69
2122.89
2201.53
2283.55
2369.01
2458.01
2550.64
2646.98
2747.12
2851.18
2959.26
3071.51
3187.22
3303.27
3417.2
3528.95
3638.52
3745.9
3851.13
3954.21
4055.21
4154.14
4251.07
1673.92
1741.35
1811.9
1885.69
1962.81
2043.4
2127.54
2215.37
2306.99
2402.53
2502.13
2605.19
2708.9
2811.02
2911.47
3010.19
3107.15
3202.35
3295.78
3387.46
3477.38
3565.57
1317.06
1374.56
1434.98
1498.43
1565.03
1634.92
1708.22
1785.05
1865.53
1949.77
2037.88
2129.33
2221.66
2312.88
2402.9
2491.66
2579.1
2665.17
2749.84
2833.1
2914.93
2995.32
1033.29
1082.31
1133.98
1188.43
1245.8
1306.22
1369.8
1436.68
1506.99
1580.88
1658.48
1739.35
1821.3
1902.54
1982.98
2062.54
2141.15
2218.75
2295.3
2370.75
2445.07
2518.23
807.141
848.919
893.12
939.856
989.245
1041.42
1096.51
1154.67
1216.03
1280.74
1348.96
1420.31
1492.88
1565.06
1636.78
1707.92
1778.43
1848.23
1917.26
1985.47
2052.82
2119.27
625.961
661.612
699.437
739.556
782.094
827.181
874.952
925.547
979.112
1035.79
1095.75
1158.68
1222.9
1287
1350.87
1414.42
1477.59
1540.28
1602.44
1664.02
1724.96
1785.22
480.079
510.509
542.908
577.389
614.074
653.089
694.567
738.644
785.464
835.175
887.931
943.49
1000.37
1057.32
1114.23
1171.03
1227.62
1283.93
1339.91
1395.48
1450.6
1505.22
362.169
388.106
415.836
445.466
477.113
510.897
546.947
585.396
626.382
670.051
716.552
765.688
816.157
866.838
917.634
968.458
1019.23
1069.87
1120.33
1170.53
1220.43
1269.97
266.907
288.888
312.517
337.897
365.137
394.354
425.67
459.212
495.114
533.516
574.563
618.092
662.957
708.152
753.582
799.159
844.803
890.442
936.009
981.443
1026.69
1071.7
190.413
208.82
228.758
250.324
273.624
298.769
325.877
355.069
386.475
420.228
456.467
495.061
534.996
575.366
616.075
657.035
698.163
739.386
780.635
821.851
862.978
903.963
129.898
144.986
161.509
179.561
199.246
220.671
243.949
269.199
296.546
326.117
358.049
392.234
427.777
463.86
500.381
537.249
574.377
611.69
649.117
686.596
724.069
761.483
83.3602
95.2897
108.57
123.298
139.575
157.509
177.21
198.795
222.387
248.111
276.099
306.267
337.828
370.039
402.793
435.991
469.544
503.367
537.387
571.535
605.753
639.986
49.3209
58.1982
68.3409
79.853
92.8405
107.414
123.686
141.775
161.804
183.897
208.184
234.608
262.479
291.123
320.426
350.28
380.587
411.259
442.212
473.372
504.67
536.044
26.5133
32.4804
39.5886
47.9629
57.7265
69.0027
81.9154
96.5898
113.153
131.734
152.464
175.312
199.682
224.966
251.038
277.781
305.089
332.865
361.019
389.469
418.138
446.947
34805.1
33762.5
32875.9
32153.4
31600.3
31234.3
95971.9
97594.6
98420.3
98373.2
97458
95756.3
86007.6
86417
86574.9
86524.3
86249.3
85770.6
78348.8
78785.2
79032.5
79123.8
79060.9
78811
73194.8
73234.7
73299.9
73385.7
73481.9
73597
61269.6
61364.1
61405.8
61405.3
61363.5
61273.6
47972.6
47946.9
47913.9
47871.2
47819.7
47764.1
35674
35668.2
35646.3
35610.9
35563.7
35505.9
26322.4
26304.7
26281.2
26251.9
26217.7
26180
19453.6
19443.2
19428.3
19409.3
19386.4
19360.1
14739.1
14732.6
14723.7
14712.4
14698.8
14683.2
11451.2
11449.4
11445.5
11439.8
11432.2
11422.9
9154.59
9155.22
9154.35
9151.94
9148
9142.62
7457.14
7459.1
7459.72
7459.05
7457.13
7453.94
6163.15
6165.67
6167.03
6167.21
6166.23
6164.1
5133.61
5136.28
5137.87
5138.4
5137.9
5136.34
4300.86
4303.59
4305.28
4305.96
4305.63
4304.26
3610.96
3613.58
3615.23
3615.92
3615.66
3614.43
3036.78
3039.25
3040.81
3041.46
3041.21
3040.04
2555.97
2558.2
2559.61
2560.19
2559.94
2558.86
2153.57
2155.58
2156.83
2157.32
2157.06
2156.04
1816.31
1818.08
1819.17
1819.59
1819.33
1818.38
1533.38
1534.93
1535.87
1536.22
1535.96
1535.1
1295.48
1296.82
1297.63
1297.91
1297.67
1296.89
1094.85
1096
1096.69
1096.92
1096.69
1096.01
925.011
925.985
926.567
926.757
926.554
925.958
780.661
781.481
781.969
782.124
781.948
781.438
657.495
658.176
658.581
658.709
658.56
658.133
552.05
552.607
552.937
553.043
552.922
552.575
461.572
462
462.256
462.342
462.26
462.003
31186.5
31346.2
31661.3
32137
32774
33570
34518.6
35608.7
36823.8
38142.1
39535.9
40963
42353.6
43662
44883.1
46020.6
47082.3
48075.3
49006.8
49882.9
50706.6
51476.5
93750.2
91288.4
87739.4
83317.6
78345.7
73192.7
68218.3
63723.6
59928.2
56963.2
54925.3
53996.2
53776.4
53915.1
54254.8
54688.3
55173.2
55696.1
56252.8
56840.3
57452
58076.3
85110
84311.2
83377
82371.5
81453.5
80730.6
80294.2
80229.6
80612.7
81450.5
82626.3
83848.8
84797.3
85233.7
85079.1
84438
83572.3
82794
82294.4
82122.5
82220.6
82533
78384.9
77892.2
77442.8
77073.3
76733.5
76423.9
76181.6
76045.6
76057.8
76255.9
76720.5
77502.4
78620.6
80100.3
82006
84418.8
87447.6
91103.8
95383.1
99355.1
102863
105797
73592.3
73444
73249.1
73006.6
72726
72416.9
72091
71769.3
71488.6
71306.6
71300.5
71541.1
72089.6
72916.8
73985.8
75239.1
76559.5
78078.8
79761.1
81513.7
83212.9
84724.2
60968.6
60457.5
59910.8
59332.4
58728
58107.9
57486.2
56879.8
56306.3
55784.9
55334.6
54973
54710.3
54533
54415.1
54329.5
54253.2
54171.5
54065.8
53910.9
53687.7
53385.4
47472.3
46938.7
46380.9
45799.3
45199
44586.1
43967
43347.8
42734.1
42129.2
41555.5
41029.4
40564.7
40158.6
39793.1
39449.7
39118
38788.7
38453.4
38104.8
37738.3
37348.5
35216.6
34697.9
34165.5
33622.3
33070.8
32513.1
31951.4
31388
30824.5
30262.1
29700.5
29141.6
28595.8
28067.9
27551.8
27042.6
26536.3
26030
25521.7
25010.1
24494.4
23974.6
25940.5
25500.7
25051.9
24595.3
24132.5
23664.9
23193.6
22719.3
22242.2
21762.2
21279.1
20796.2
20325.5
19873.6
19437.2
19013.5
18600.3
18195.9
17799.3
17410
17028.2
16653.7
19169.6
18817.8
18462.6
18104.6
17744
17381.4
17016.9
16650.8
16283
15913.3
15540.9
15167.3
14799.7
14443.9
14098.8
13763
13435.6
13115.9
12803.5
12497.8
12198.6
11905.8
14537.8
14265.1
13990.1
13712.9
13433.3
13151.9
12868.6
12583.4
12296.2
12006.6
11714.3
11420.1
11131.4
10852.7
10583.7
10323.5
10071.6
9827.67
9591.31
9362.33
9140.57
8925.95
11311.5
11100
10887.1
10672.9
10457.3
10240.3
10021.5
9800.6
9577.31
9351.21
9121.75
8889.97
8661.53
8440.46
8226.26
8018.55
7816.99
7621.29
7431.16
7246.47
7067.11
6892.99
9054.71
8885.54
8714.8
8542.31
8367.92
8191.46
8012.72
7831.45
7647.38
7460.21
7269.62
7076.85
6886.73
6702.73
6524.42
6351.77
6184.55
6022.59
5865.73
5713.87
5566.9
5424.76
7381.72
7241.08
7098.74
6954.57
6808.44
6660.17
6509.59
6356.48
6200.64
6041.83
5879.77
5715.38
5552.94
5395.56
5242.99
5095.06
4951.63
4812.58
4677.8
4547.25
4420.87
4298.65
6102.18
5980.89
5857.79
5732.77
5605.67
5476.37
5344.71
5210.53
5073.68
4933.99
4791.32
4646.58
4503.73
4365.49
4231.7
4102.23
3976.95
3855.82
3738.85
3626.02
3517.25
3412.48
5081.82
4974.46
4865.3
4754.24
4641.19
4526.05
4408.72
4289.11
4167.12
4042.68
3915.72
3787.12
3660.39
3538.03
3419.92
3305.94
3195.97
3089.88
2987.67
2889.28
2794.66
2703.76
4255.1
4158.25
4059.66
3959.29
3857.07
3752.95
3646.89
3538.85
3428.81
3316.76
3202.73
3087.62
2974.6
2865.91
2761.39
2660.93
2564.41
2471.74
2382.83
2297.59
2215.93
2137.8
3569.72
3481.61
3391.97
3300.78
3208.03
3113.69
3017.76
2920.24
2821.13
2720.49
2618.4
2515.67
2415.21
2318.98
2226.83
2138.62
2054.23
1973.54
1896.44
1822.82
1752.54
1685.51
2999.19
2918.83
2837.19
2754.28
2670.12
2584.7
2498.07
2410.24
2321.27
2231.24
2140.2
2048.92
1959.93
1874.98
1793.93
1716.68
1643.11
1573.08
1506.48
1443.15
1382.96
1325.79
2521.63
2448.41
2374.18
2298.95
2222.76
2145.64
2067.64
1988.8
1909.2
1828.91
1748.01
1667.2
1588.74
1514.17
1443.32
1376.05
1312.2
1251.65
1194.27
1139.91
1088.42
1039.67
2122.14
2055.57
1988.22
1920.12
1851.33
1781.88
1711.83
1641.24
1570.2
1498.78
1427.07
1355.71
1286.7
1221.35
1159.5
1100.98
1045.65
993.353
943.937
897.265
853.21
811.648
1787.58
1727.15
1666.13
1604.59
1542.57
1480.12
1417.3
1354.19
1290.86
1227.4
1163.89
1100.91
1040.23
982.963
928.951
878.031
830.045
784.841
742.272
702.199
664.486
629.002
1507.13
1452.29
1397.05
1341.45
1285.55
1229.41
1173.08
1116.65
1060.17
1003.75
947.474
891.843
838.421
788.181
740.955
696.583
654.908
615.78
579.058
544.602
512.284
481.982
1271.5
1221.71
1171.66
1121.39
1070.96
1020.44
969.868
919.331
868.902
818.664
768.706
719.483
672.375
628.226
586.871
548.153
511.919
478.026
446.335
416.714
389.041
363.199
1072.92
1027.65
982.22
936.694
891.12
845.558
800.071
754.727
709.605
664.784
620.354
576.727
535.128
496.289
460.051
426.261
394.775
365.452
338.163
312.78
289.188
267.277
904.93
863.673
822.355
781.029
739.749
698.573
657.566
616.798
576.346
536.293
496.728
458.029
421.286
387.135
355.424
326.006
298.741
273.497
250.147
228.572
208.658
190.302
762.246
724.558
686.888
649.288
611.813
574.525
537.49
500.779
464.474
428.66
393.431
359.135
326.746
296.813
269.192
243.738
220.319
198.805
179.075
161.013
144.51
129.463
640.584
606.081
571.664
537.387
503.309
469.493
436.011
402.942
370.369
338.386
307.09
276.808
248.406
222.36
198.524
176.761
156.939
138.933
122.622
107.891
94.6338
82.7463
536.509
504.87
473.374
442.083
411.064
380.387
350.133
320.385
291.234
262.781
235.132
208.595
183.939
161.563
141.326
123.09
106.725
92.1021
79.1005
67.6026
57.4956
48.6699
447.305
418.238
389.375
360.793
332.568
304.779
277.51
250.854
224.91
199.787
175.601
152.644
131.593
112.774
96.0437
81.2617
68.2909
56.997
47.2475
38.9114
31.8583
25.9568
52050.3
52486.4
52987.5
53543.8
54125.4
54685.4
55168
55537.2
55818.2
56116
56627.9
57613.8
59297.2
61771.8
65578.6
71640.9
77636.7
85378.7
96325.9
110831
129838
155471
187730
223686
264688
305369
339144
362120
379704
399662
428619
477060
573873
868200
3.65872e+06
58571.4
58944
59381.1
59907
60548.2
61333.9
62296.4
63471.8
64895.3
66610.6
68674.7
71164.9
74191.8
77933
82631.5
88272.8
95417.3
106821
120752
135957
161989
211436
279288
363465
537367
860605
1.25693e+06
1.46664e+06
1.43539e+06
1.39972e+06
1.41806e+06
1.53256e+06
1.8848e+06
3.07663e+06
1.04966e+07
82860.3
83078.8
83415.3
83930.3
84699
85813.6
87381.8
89520.7
92338.3
95867.1
99923.6
103993
107323
109542
110960
112429
115372
121324
132068
150421
181444
234646
348602
563762
1.03231e+06
1.93522e+06
3.16482e+06
4.20652e+06
4.7504e+06
4.84332e+06
4.7293e+06
4.61935e+06
4.71658e+06
5.50607e+06
1.18504e+07
107499
109002
110953
113517
116906
121406
127396
135335
145620
157850
167058
165595
154502
138819
125292
119321
122135
137907
178954
270594
437972
637193
740262
784013
937290
1.18457e+06
1.47106e+06
1.74612e+06
1.96595e+06
2.11212e+06
2.20353e+06
2.28774e+06
2.44437e+06
2.93088e+06
5.54329e+06
85961.9
87089.6
88193
89257.8
90247.9
91235.6
92159.8
92718.6
92400.9
90843.1
87795.6
83458.2
77992.3
72345.5
69335.6
72776.5
87202
119574
183260
291226
446098
638012
723605
689267
633789
613951
614046
618072
620168
619406
616097
613304
619538
669406
1.0792e+06
53269.8
53392.9
53490.2
53549.5
53560.4
53517.6
53424.1
53282.9
53070.5
52653.8
51783.4
50093.7
47532.5
44819.7
43725.8
46717.7
55986.7
72081.3
95023.6
126157
166926
217890
267549
283486
274485
265131
255189
245039
234910
225354
216812
211008
211819
239470
470969
37157.3
37157.8
37123.4
37045.2
36916.3
36723.8
36444.4
36036.1
35430.8
34542.4
33371.4
31951.5
30287
28765.6
27885.1
28222.1
29826.7
32568.8
36692.4
45000.5
62566.5
92667.3
126873
148774
155084
151372
142135
132593
124715
118430
113763
111448
113602
129479
238678
23665.1
23560
23432.6
23277.8
23090.4
22865
22596.9
22284.1
21923.8
21509
21029.7
20491.3
19961
19695.2
20189.6
22165.1
25443.4
27652
28216.7
29907.2
34226.8
39930.1
45648.3
49680.6
51662
52218.9
51256.4
49013.8
46237.2
43227.6
40230.9
37499
35883.6
36588.5
56031.9
16432.4
16350.5
16250.4
16129.6
15985.6
15815.8
15618.8
15388.9
15115.7
14781.7
14361
13887.1
13418.3
13018.3
12701.1
12523.9
12527.6
12645
12716
12813.3
13084.2
13313.6
12979.9
12192.1
11434.5
10789.7
10198.5
9637.66
9115.82
8673.15
8389.69
8420.14
9159.83
12363.4
34277.2
11729.9
11661
11579.9
11484.7
11372.8
11241.5
11087.5
10906.9
10695.7
10449.7
10165.5
9843.18
9484.67
9091.79
8678.26
8291.98
7967.32
7691.94
7436.66
7184.6
6943.38
6709.37
6499.51
6332.53
6201.7
6092.6
6004.74
5980.33
6129.04
6567.25
7497.35
9225.05
12304.1
18016.3
30344.4
8799.18
8750.69
8692.51
8623.19
8541.13
8444.49
8331.64
8200.19
8046.77
7867.38
7656.41
7405.9
7111.38
6774.76
6405.58
6037.2
5695.93
5388.3
5120.43
4897.47
4730.97
4639.96
4670.22
4835.43
5154.66
5647.76
6319.56
7159.55
8190.37
9457.49
11079.2
13380.8
17322.7
26663.4
81368
6788.76
6747.66
6700.04
6644.8
6580.59
6505.84
6418.71
6316.99
6198.13
6059.34
5897.1
5707.96
5488.88
5238.13
4958.34
4670.68
4394.87
4138.22
3909.53
3718.95
3579.12
3506.76
3538.33
3683.11
3957.97
4371.3
4940.79
5681.26
6621.63
7791.34
9243.26
11138.6
14167.8
21239.4
60269.1
5340.78
5308.9
5271.69
5228.38
5178.04
5119.42
5051.31
4972.32
4880.82
4774.67
4651.51
4508.09
4339.92
4143.27
3919.79
3685.8
3458.91
3246.25
3055.01
2893.5
2771.56
2699.24
2700.8
2774.34
2910.04
3095.92
3318.9
3566.62
3835.7
4141.16
4522.64
5110.95
6218.2
9006.7
23094.5
4226.52
4199.63
4168.76
4133.3
4092.48
4045.42
3991.05
3928.13
3855.19
3770.53
3672.28
3558.21
3426.04
3273.86
3102.2
2922.24
2746.15
2578.64
2424.96
2291.27
2185.25
2115.08
2102.21
2147.14
2248.51
2401.3
2597.58
2826.9
3086.46
3397.34
3809.1
4436.25
5587.78
8504.16
24250.1
3351.62
3330.18
3305.6
3277.23
3244.5
3206.76
3163.23
3113.02
3055.13
2988.37
2911.36
2822.21
2718.53
2598.89
2463.58
2320.97
2180.46
2045.66
1920.32
1808.32
1714.01
1640.39
1599.16
1591.02
1610.55
1653.64
1717.58
1804.56
1923.29
2088.01
2325.78
2693.4
3338.85
4844.76
12005.9
2651.33
2633.57
2613.38
2590.37
2564.07
2533.9
2499.19
2459.16
2412.89
2359.35
2297.38
2225.65
2142.9
2047.82
1940.58
1827.81
1716.72
1609.85
1509.94
1419.8
1342.57
1279.97
1240.56
1226.25
1233.13
1259.09
1304.74
1371.58
1464.81
1595.25
1785.26
2085.34
2634.12
3989.51
11063.7
2093.33
2079.05
2062.81
2044.29
2023.12
1998.87
1971.02
1939
1902.11
1859.59
1810.52
1753.85
1688.12
1612.53
1527.43
1437.89
1349.55
1264.3
1184
1110.36
1045.3
989.226
948.472
925.278
917.14
922.443
940.894
973.63
1023.68
1097.34
1207.16
1380.89
1692.94
2433.61
5978.9
1647.7
1636.13
1623.07
1608.26
1591.38
1572.09
1549.95
1524.49
1495.14
1461.26
1422.13
1376.96
1324.89
1265.04
1197.66
1126.68
1056.66
989.178
925.766
867.834
816.915
773.32
741.791
724.064
718.083
722.554
737.54
764.711
807.235
871.581
970.663
1133.06
1436.15
2187.26
6053.27
1293.91
1284.65
1274.2
1262.36
1248.89
1233.51
1215.9
1195.68
1172.41
1145.6
1114.67
1078.95
1037.77
990.515
937.154
880.91
825.412
771.8
721.232
674.757
633.495
597.615
570.939
554.945
548.097
549.485
559.041
577.688
607.5
652.523
720.654
829.06
1023.4
1480.35
3594.38
1012.75
1005.33
996.997
987.598
976.933
964.764
950.827
934.814
916.377
895.116
870.582
842.285
809.717
772.394
730.295
685.824
641.877
599.436
559.493
522.928
490.697
462.801
442.472
430.803
426.43
428.41
436.338
450.981
474.091
509.267
563.601
652.662
818.544
1228.56
3304.92
788.951
783.064
776.46
769.011
760.567
750.947
739.945
727.317
712.782
696.017
676.642
654.279
628.529
599.014
565.72
530.578
495.752
461.972
429.996
400.611
374.505
351.824
335.109
325.196
320.926
321.552
326.805
337.128
353.626
378.632
416.802
478.325
590.562
860.643
2181.26
609.835
605.194
600.004
594.163
587.551
580.025
571.415
561.518
550.111
536.936
521.704
504.102
483.806
460.503
434.167
406.313
378.671
351.833
326.386
302.936
282.09
264.002
250.699
242.764
239.154
239.14
242.308
248.877
259.474
275.578
300.311
341.169
418.517
615.067
1643.26
465.824
462.229
458.211
453.69
448.572
442.746
436.076
428.405
419.551
409.301
397.42
383.654
367.736
349.404
328.622
306.586
284.661
263.291
242.954
224.145
207.354
192.691
181.724
174.88
171.216
170.009
170.805
173.523
178.53
186.889
200.963
226.075
276.495
408.104
1071.36
349.614
346.892
343.853
340.436
336.564
332.148
327.082
321.24
314.474
306.614
297.469
286.828
274.473
260.184
243.919
226.611
209.328
192.438
176.33
161.406
148.057
136.341
127.446
121.664
118.166
116.239
115.334
115.125
115.558
116.928
120.012
126.395
139.269
165.876
220.743
255.945
253.949
251.724
249.222
246.384
243.137
239.398
235.065
230.02
224.126
217.227
209.149
199.707
188.718
176.14
162.696
149.237
136.072
123.522
111.904
101.503
92.3115
85.1762
80.3098
77.0559
74.8321
73.1468
71.6514
70.1947
68.8654
68.0822
68.5481
71.9878
82.6987
117.946
180.982
179.584
178.03
176.283
174.296
172.013
169.367
166.279
162.653
158.381
153.332
147.363
140.321
132.058
122.537
112.321
102.089
92.1111
82.6577
73.9739
66.2518
59.4306
54.0549
50.2551
47.5612
45.56
43.877
42.2299
40.5051
38.7974
37.4593
36.9996
38.5138
43.6665
53.638
121.985
121.07
120.056
118.917
117.616
116.112
114.352
112.275
109.804
106.852
103.316
99.0798
94.0202
88.0225
81.0653
73.585
66.1216
58.9139
52.1893
46.1346
40.8693
36.312
32.7656
30.2615
28.4713
27.1021
25.8881
24.6752
23.4257
22.2674
21.579
21.6377
23.1491
27.1892
30.1455
76.9891
76.4445
75.8472
75.1776
74.4106
73.5146
72.4504
71.1704
69.6172
67.7222
65.4058
62.5791
59.1508
55.0417
50.251
45.1159
40.0546
35.2719
30.9501
27.2225
24.1541
21.664
19.8421
18.5776
17.6263
16.8196
16.0306
15.2171
14.4208
13.7811
13.5098
13.8345
15.2658
18.8085
22.2013
44.5344
44.2544
43.9555
43.625
43.2461
42.7966
42.2477
41.5652
40.7074
39.6246
38.2601
36.5526
34.4427
31.8869
28.9055
25.7477
22.7125
19.9535
17.5939
15.7092
14.3152
13.3284
12.6849
12.2174
11.7861
11.3252
10.8203
10.2995
9.82852
9.53683
9.53402
10.0577
11.563
15.1358
19.6508
23.3219
23.2187
23.1182
23.0118
22.8878
22.7312
22.5234
22.2424
21.8611
21.3485
20.6695
19.7879
18.672
17.3053
15.7165
14.0668
12.5375
11.2217
10.1855
9.46059
9.03619
8.84052
8.7644
8.66769
8.49569
8.2428
7.93737
7.62846
7.38649
7.29565
7.46735
8.1076
9.66235
13.2589
18.6405
18.0373
12.3901
8.73739
7.11017
6.3647
6.05835
5.99438
6.06368
6.19191
6.3163
6.38812
6.37977
6.2875
6.14923
6.07309
6.13367
6.36232
6.76218
7.30929
7.96228
8.6654
9.32536
9.8665
10.2778
10.5711
10.7653
10.8809
10.9357
10.9473
10.9262
10.8817
10.8217
10.7522
10.6785
10.6073
17.8129
11.8682
8.15597
6.46635
5.64176
5.23744
5.05885
5.00383
5.00631
5.01587
4.99351
4.91345
4.76716
4.57204
4.39582
4.29001
4.26934
4.33592
4.47771
4.67387
4.89746
5.10918
5.27775
5.39708
5.47086
5.50575
5.51142
5.49343
5.4573
5.40708
5.34577
5.27568
5.19875
5.11678
5.03417
17.7281
11.6444
7.85288
6.10065
5.21357
4.74055
4.4861
4.35043
4.27275
4.21016
4.13111
4.01536
3.85606
3.66311
3.48342
3.35037
3.26927
3.24094
3.25795
3.30884
3.37969
3.45275
3.51332
3.5571
3.58444
3.59683
3.59786
3.58905
3.57215
3.54859
3.51956
3.48613
3.44933
3.41027
3.37114
17.6637
11.4693
7.63796
5.84856
4.92136
4.40374
4.10046
3.91366
3.78611
3.67985