/*--------------------------------*- C++ -*----------------------------------*\
  =========                 |
  \\      /  F ield         | OpenFOAM: The Open Source CFD Toolbox
   \\    /   O peration     | Website:  https://openfoam.org
    \\  /    A nd           | Version:  8
     \\/     M anipulation  |
\*---------------------------------------------------------------------------*/
FoamFile
{
    version     2.0;
    format      ascii;
    class       surfaceScalarField;
    location    "0.05";
    object      phi;
}
// * * * * * * * * * * * * * * * * * * * * * * * * * * * * * * * * * * * * * //

dimensions      [1 0 -1 0 0 0 0];

internalField   nonuniform List<scalar> 
31053
(
-4.93411e-06
3.33481e-06
-2.19414e-06
-2.71307e-06
5.36048e-06
-5.61887e-06
1.70953e-05
-8.29626e-06
3.28654e-05
-1.14481e-05
5.35328e-05
-1.59594e-05
8.11867e-05
-2.29965e-05
0.000120555
-3.51557e-05
0.000180453
-5.64098e-05
0.000267043
-8.39848e-05
0.000373273
-0.000104617
0.00047849
-0.000104192
0.000560093
-8.17664e-05
0.000602269
-4.3869e-05
0.00060967
-8.05297e-06
0.000599831
9.66521e-06
0.000580789
1.91694e-05
0.000557576
2.40447e-05
0.000532692
2.53012e-05
0.000510881
2.14162e-05
0.000494432
1.69201e-05
0.000481686
1.5431e-05
0.000471581
1.51122e-05
0.000463707
1.49863e-05
0.000457779
1.49186e-05
0.000453556
1.48751e-05
0.000450833
1.47995e-05
0.000449482
1.46006e-05
0.000449441
1.41935e-05
0.000450713
1.35117e-05
0.000453335
1.2525e-05
0.000457345
1.12463e-05
0.000462732
9.74763e-06
0.000469392
8.14966e-06
7.24142e-06
0.000475775
-0.000119265
0.000122506
-0.000258232
0.000136142
-0.000408348
0.000144345
-0.000564087
0.000147258
-0.000718705
0.000142926
-0.000863038
0.000128075
-0.000984441
9.80313e-05
-0.00106649
4.64163e-05
-0.00109267
-3.08165e-05
-0.00105467
-0.000122733
-0.000953303
-0.000206916
-0.000802325
-0.000256255
-0.000623913
-0.000260919
-0.000437972
-0.000230296
-0.000283368
-0.000162929
-0.000141026
-0.000132904
-6.86947e-06
-0.000115265
0.000116131
-9.93882e-05
0.000223322
-8.2185e-05
0.000310915
-6.58074e-05
0.000378647
-5.08799e-05
0.000429232
-3.54016e-05
0.000469831
-2.57423e-05
0.000504983
-2.03784e-05
0.000536102
-1.63566e-05
0.000564375
-1.35218e-05
0.000590165
-1.10886e-05
0.000613274
-8.5858e-06
0.000633406
-6.00321e-06
0.00065038
-3.51836e-06
0.000664183
-1.32762e-06
0.000674958
4.30183e-07
0.00068297
1.69893e-06
0.000688591
2.4974e-06
2.37833e-06
0.000693424
-1.36306e-06
0.000123842
5.82326e-06
0.000128924
1.63019e-05
0.000133825
2.53028e-05
0.000138208
2.85549e-05
0.0001396
2.11919e-05
0.000135335
-3.79075e-06
0.000122857
-5.76914e-05
0.000100069
-0.000153801
6.49392e-05
-0.000310411
3.34097e-05
-0.000529303
1.13326e-05
-0.00077574
-1.04254e-05
-0.000993458
-4.35462e-05
-0.00111296
-0.000110143
-0.00110901
-0.00016731
-0.00103192
-0.000210561
-0.000920413
-0.000227382
-0.000795143
-0.000225267
-0.000665303
-0.000212593
-0.000537906
-0.000193732
-0.000419224
-0.000170063
-0.000322386
-0.000132674
-0.000248167
-0.00010034
-0.000193855
-7.50279e-05
-0.00015736
-5.31367e-05
-0.000135164
-3.59588e-05
-0.000122197
-2.42619e-05
-0.000113948
-1.70151e-05
-0.000107696
-1.24125e-05
-0.000101897
-9.45563e-06
-9.5809e-05
-7.53892e-06
-8.92063e-05
-6.28248e-06
-8.21418e-05
-5.46455e-06
-7.47842e-05
-4.94986e-06
-4.15724e-06
-6.833e-05
6.76621e-05
5.61792e-05
0.000129785
6.67996e-05
0.000188401
7.52108e-05
0.000244033
8.25804e-05
0.000294488
8.91574e-05
0.000334479
9.5364e-05
0.000354928
0.000102437
0.000341464
0.000113585
0.000274364
0.000132131
0.000150636
0.000157255
-1.49528e-05
0.000177102
-0.00018878
0.000163646
-0.000318615
8.6475e-05
-0.000362956
-6.66405e-05
-0.000321916
-0.000208187
-0.000240467
-0.000291768
-0.000146641
-0.000320934
-5.61265e-05
-0.00031548
2.75575e-05
-0.00029596
0.000104749
-0.000270574
0.00017407
-0.000239001
0.000224376
-0.000182613
0.000253799
-0.000129432
0.00026406
-8.49922e-05
0.000259938
-4.8776e-05
0.000244029
-1.98545e-05
0.000217688
2.24423e-06
0.00018386
1.69743e-05
0.000144472
2.7124e-05
0.000101967
3.31831e-05
5.83539e-05
3.61929e-05
1.51618e-05
3.70147e-05
-2.65551e-05
3.63461e-05
-6.61497e-05
3.47287e-05
3.22743e-05
-0.000102503
8.06383e-06
4.80125e-05
1.98215e-05
5.49345e-05
3.45763e-05
6.03449e-05
5.07696e-05
6.62693e-05
6.71797e-05
7.26241e-05
8.29668e-05
7.945e-05
9.83814e-05
8.68939e-05
0.000116415
9.54201e-05
0.000142976
0.00010543
0.000185115
0.00011496
0.000244323
0.000117745
0.000305603
0.00010223
0.000343355
4.85611e-05
0.000312675
-3.62964e-05
0.00019093
-8.66684e-05
2.49283e-05
-0.000126003
-0.000146739
-0.000149497
-0.000300951
-0.000161485
-0.000429881
-0.000167246
-0.000534788
-0.000165896
-0.00061822
-0.000155811
-0.000673893
-0.000127168
-0.000706188
-9.73472e-05
-0.000720086
-7.12877e-05
-0.000719316
-4.97219e-05
-0.000707019
-3.23153e-05
-0.000686024
-1.88991e-05
-0.00066175
-7.43815e-06
-0.000635626
8.67103e-07
-0.000608766
6.19778e-06
-0.000582171
9.48542e-06
-0.000556729
1.14696e-05
-0.000532478
1.20029e-05
-0.000509593
1.17585e-05
1.13708e-05
-0.000488766
2.02455e-05
2.78166e-05
3.93342e-05
3.58991e-05
5.77643e-05
4.19731e-05
7.65211e-05
4.75799e-05
9.63595e-05
5.28616e-05
0.00011822
5.76781e-05
0.000143482
6.17308e-05
0.000174613
6.43982e-05
0.000215659
6.45019e-05
0.000270673
6.00747e-05
0.000339348
4.92126e-05
0.000409641
3.20668e-05
0.000446571
1.15566e-05
0.000432627
-2.20658e-05
0.000405052
-5.8931e-05
0.000367296
-8.80912e-05
0.00032515
-0.000107183
0.00028295
-0.000119117
0.000241578
-0.000125711
0.000201313
-0.000125472
0.000162863
-0.000117206
0.000128673
-9.28389e-05
9.83994e-05
-6.69554e-05
7.08771e-05
-4.3666e-05
4.52514e-05
-2.40121e-05
2.06145e-05
-7.60256e-06
-1.28087e-06
3.05647e-06
-1.79957e-05
9.32339e-06
-3.0889e-05
1.38075e-05
-4.12832e-05
1.66389e-05
-4.99015e-05
1.81463e-05
-5.70678e-05
1.86777e-05
-6.35554e-05
1.85298e-05
-6.96838e-05
1.79225e-05
1.68279e-05
-7.51091e-05
4.34131e-06
2.34121e-05
9.51866e-06
3.06565e-05
1.61243e-05
3.52998e-05
2.38588e-05
3.9773e-05
3.24606e-05
4.41824e-05
4.17691e-05
4.82861e-05
5.17754e-05
5.16354e-05
6.25276e-05
5.35499e-05
7.39286e-05
5.29958e-05
8.54551e-05
4.84355e-05
9.63088e-05
3.82399e-05
0.00010803
2.02415e-05
0.000121794
-2.09997e-06
0.000122732
-2.31253e-05
9.83392e-05
-3.46418e-05
5.26988e-05
-4.25247e-05
-6.58264e-06
-4.79659e-05
-7.09801e-05
-5.47854e-05
-0.000134362
-6.23985e-05
-0.000193242
-6.66686e-05
-0.000244924
-6.56092e-05
-0.000283113
-5.47381e-05
-0.000307964
-4.21916e-05
-0.000321142
-3.05692e-05
-0.00032451
-2.07197e-05
-0.000319293
-1.28977e-05
-0.000309293
-7.00951e-06
-0.000298188
-1.83676e-06
-0.000286232
1.80117e-06
-0.000273833
4.19506e-06
-0.0002617
5.97125e-06
-0.000249788
6.72613e-06
-0.000238222
6.9271e-06
-0.000227136
6.80263e-06
6.64229e-06
-0.000216983
2.60128e-05
-2.55344e-06
5.39672e-05
2.75127e-06
8.38477e-05
5.47121e-06
0.000116013
7.66524e-06
0.000151109
9.14919e-06
0.000189851
9.61533e-06
0.000232841
8.72358e-06
0.000280147
6.33076e-06
0.000330516
2.72268e-06
0.000381535
-2.47675e-06
0.000426561
-6.66927e-06
0.000453154
-6.2108e-06
0.000450363
8.62846e-07
0.000416999
1.04361e-05
0.000368229
1.43339e-05
0.000312299
1.36354e-05
0.000257671
6.89817e-06
0.000209636
-6.53973e-06
0.000170963
-2.3528e-05
0.000138188
-3.37101e-05
0.000109301
-3.65577e-05
8.48638e-05
-3.01721e-05
6.40939e-05
-2.13166e-05
4.6064e-05
-1.24484e-05
2.97015e-05
-4.28251e-06
1.58225e-05
1.04516e-06
4.08372e-06
4.78383e-06
-4.86541e-06
7.15838e-06
-1.19248e-05
8.90174e-06
-1.77157e-05
1.0022e-05
-2.23323e-05
1.06214e-05
-2.63863e-05
1.08107e-05
-3.01191e-05
1.06873e-05
-3.36287e-05
1.03364e-05
9.71824e-06
-3.66832e-05
-1.57231e-06
-9.80581e-07
-6.85804e-08
1.24952e-06
1.53556e-06
3.87084e-06
3.0032e-06
6.20301e-06
3.99117e-06
8.16805e-06
4.12071e-06
9.49279e-06
3.15025e-06
9.70154e-06
1.33261e-06
8.15444e-06
-3.29015e-07
4.39139e-06
-3.63723e-06
8.39506e-07
-7.96793e-06
-2.32685e-06
-9.32481e-06
-4.8393e-06
-2.92806e-06
-5.51747e-06
1.10267e-05
-3.48839e-06
2.70283e-05
-1.6483e-06
4.32254e-05
-2.54629e-06
5.52239e-05
-5.10349e-06
5.60795e-05
-7.41571e-06
4.10599e-05
-8.55441e-06
1.6028e-05
-8.73288e-06
-1.26783e-05
-7.90694e-06
-3.77418e-05
-5.15741e-06
-5.68501e-05
-2.25627e-06
-6.97094e-05
3.64882e-07
-7.66419e-05
2.61077e-06
-8.02447e-05
4.61425e-06
-8.19917e-05
6.50051e-06
-8.2399e-05
7.53755e-06
-8.15441e-05
8.02084e-06
-7.96718e-05
8.1264e-06
-7.70466e-05
7.97501e-06
-7.39069e-05
7.65213e-06
-7.04579e-05
7.22026e-06
-6.68597e-05
6.72126e-06
6.27441e-06
-6.34319e-05
7.26484e-06
-8.20499e-06
1.61634e-05
-7.60507e-06
2.70654e-05
-6.98216e-06
3.93766e-05
-6.05222e-06
5.22467e-05
-4.63913e-06
6.4314e-05
-2.50264e-06
7.42246e-05
-1.27768e-07
8.01788e-05
2.28996e-06
8.03381e-05
4.33291e-06
7.51392e-05
6.14801e-06
6.56778e-05
7.25841e-06
5.32981e-05
7.67922e-06
4.03986e-05
7.55692e-06
3.00549e-05
7.25315e-06
2.4108e-05
4.47909e-06
1.96224e-05
2.09491e-06
1.46986e-05
-3.08163e-08
9.34898e-06
-1.91788e-06
4.21511e-06
-3.27287e-06
-1.16229e-06
-3.21567e-06
-7.23455e-06
-1.7029e-06
-1.31272e-05
8.47903e-07
-1.86827e-05
3.3964e-06
-2.33587e-05
5.12363e-06
-2.71438e-05
6.46765e-06
-2.9987e-05
7.51824e-06
-3.1701e-05
8.26849e-06
-3.28651e-05
8.74915e-06
-3.3792e-05
8.98945e-06
-3.46552e-05
9.02649e-06
-3.55391e-05
8.89156e-06
-3.64734e-05
8.61556e-06
-3.74608e-05
8.23333e-06
-3.84879e-05
7.77129e-06
7.19036e-06
-3.93839e-05
-7.8611e-06
-3.48493e-07
-1.50113e-05
-4.59007e-07
-2.14247e-05
-5.72017e-07
-2.68203e-05
-6.59555e-07
-3.07499e-05
-7.12242e-07
-3.25389e-05
-7.16024e-07
-3.20456e-05
-6.24628e-07
-2.94582e-05
-3.01303e-07
-2.53335e-05
2.0119e-07
-1.99179e-05
7.24279e-07
-1.38344e-05
1.16311e-06
-7.77833e-06
1.60713e-06
-2.22536e-06
1.96572e-06
2.77959e-06
1.99944e-06
5.85447e-06
1.3601e-06
6.92442e-06
1.00093e-06
5.91531e-06
9.56139e-07
2.7244e-06
1.25155e-06
-2.4768e-06
1.90498e-06
-8.79525e-06
3.07788e-06
-1.55307e-05
5.01069e-06
-2.17273e-05
7.02632e-06
-2.67602e-05
8.4137e-06
-3.10027e-05
9.35385e-06
-3.44146e-05
9.86937e-06
-3.69057e-05
1.00012e-05
-3.84872e-05
9.84326e-06
-3.92322e-05
9.48804e-06
-3.92533e-05
9.00525e-06
-3.868e-05
8.4487e-06
-3.76389e-05
7.84645e-06
-3.62554e-05
7.22865e-06
-3.46487e-05
6.62333e-06
-3.29283e-05
6.04786e-06
5.55736e-06
-3.12983e-05
-4.1001e-06
3.76958e-06
-7.88499e-06
3.34551e-06
-1.14437e-05
3.00868e-06
-1.47563e-05
2.67777e-06
-1.77674e-05
2.32714e-06
-2.04302e-05
1.9792e-06
-2.26871e-05
1.66985e-06
-2.43682e-05
1.42326e-06
-2.52998e-05
1.18284e-06
-2.55935e-05
1.07565e-06
-2.5441e-05
1.07754e-06
-2.4925e-05
1.16879e-06
-2.41743e-05
1.3036e-06
-2.36212e-05
1.54278e-06
-2.38891e-05
1.72366e-06
-2.49432e-05
2.14999e-06
-2.6695e-05
2.80325e-06
-2.89084e-05
3.57266e-06
-3.1314e-05
4.40128e-06
-3.36493e-05
5.49996e-06
-3.54312e-05
6.87553e-06
-3.60965e-05
7.76559e-06
-3.60198e-05
8.40175e-06
-3.54833e-05
8.87388e-06
-3.47148e-05
9.15041e-06
-3.38976e-05
9.22768e-06
-3.31559e-05
9.13994e-06
-3.25774e-05
8.9433e-06
-3.22031e-05
8.66099e-06
-3.20202e-05
8.29258e-06
-3.19994e-05
7.84952e-06
-3.21118e-05
7.36241e-06
-3.23282e-05
6.85867e-06
-3.26193e-05
6.35585e-06
5.83157e-06
-3.28787e-05
1.3591e-06
2.41058e-06
2.56995e-06
2.13522e-06
3.64868e-06
1.93096e-06
4.55415e-06
1.77373e-06
5.24534e-06
1.63765e-06
5.70565e-06
1.52087e-06
5.94563e-06
1.43193e-06
5.98686e-06
1.38438e-06
5.73261e-06
1.44008e-06
5.2174e-06
1.59423e-06
4.45111e-06
1.84756e-06
3.41031e-06
2.21358e-06
1.92216e-06
2.79449e-06
-2.21513e-07
3.68956e-06
-2.53798e-06
4.04294e-06
-5.08615e-06
4.70108e-06
-7.80383e-06
5.52295e-06
-1.07422e-05
6.49995e-06
-1.39484e-05
7.61152e-06
-1.73402e-05
8.89816e-06
-2.08577e-05
1.04009e-05
-2.39954e-05
1.09116e-05
-2.65683e-05
1.09831e-05
-2.85197e-05
1.08336e-05
-2.98614e-05
1.04999e-05
-3.06529e-05
1.00264e-05
-3.09665e-05
9.46006e-06
-3.08708e-05
8.85359e-06
-3.04355e-05
8.23108e-06
-2.97389e-05
7.60101e-06
-2.88635e-05
6.97862e-06
-2.78771e-05
6.38016e-06
-2.68332e-05
5.81853e-06
-2.57754e-05
5.3012e-06
4.85013e-06
-2.47913e-05
-1.94203e-06
4.36581e-06
-4.27067e-06
4.47813e-06
-6.8698e-06
4.54581e-06
-9.65127e-06
4.57272e-06
-1.25242e-05
4.53038e-06
-1.53947e-05
4.414e-06
-1.81737e-05
4.23694e-06
-2.07863e-05
4.02711e-06
-2.3132e-05
3.81995e-06
-2.51541e-05
3.65549e-06
-2.6842e-05
3.5801e-06
-2.8221e-05
3.64313e-06
-2.92969e-05
3.92922e-06
-3.0114e-05
4.57353e-06
-3.07223e-05
4.71357e-06
-3.12121e-05
5.25191e-06
-3.15632e-05
5.93346e-06
-3.17445e-05
6.73859e-06
-3.17251e-05
7.64788e-06
-3.1454e-05
8.68095e-06
-3.08738e-05
9.87267e-06
-3.01089e-05
1.01928e-05
-2.92757e-05
1.01903e-05
-2.84419e-05
1.00354e-05
-2.7655e-05
9.74424e-06
-2.69537e-05
9.35264e-06
-2.63673e-05
8.89815e-06
-2.58944e-05
8.4024e-06
-2.55264e-05
7.88251e-06
-2.5261e-05
7.35288e-06
-2.50909e-05
6.82387e-06
-2.50004e-05
6.30354e-06
-2.49705e-05
5.80093e-06
-2.49834e-05
5.32501e-06
4.86295e-06
-2.49866e-05
9.3084e-07
3.43602e-06
1.91602e-06
3.4947e-06
2.91414e-06
3.55004e-06
3.86252e-06
3.62732e-06
4.67817e-06
3.71836e-06
5.27244e-06
3.82409e-06
5.55615e-06
3.95835e-06
5.44694e-06
4.14228e-06
4.88297e-06
4.39085e-06
3.83686e-06
4.70961e-06
2.31996e-06
5.10632e-06
3.65275e-07
5.6087e-06
-2.00422e-06
6.31159e-06
-4.761e-06
7.3458e-06
-7.28393e-06
7.25211e-06
-9.70863e-06
7.69314e-06
-1.20202e-05
8.26247e-06
-1.42034e-05
8.94011e-06
-1.62693e-05
9.73289e-06
-1.82261e-05
1.06574e-05
-2.0026e-05
1.16923e-05
-2.143e-05
1.16151e-05
-2.24501e-05
1.12269e-05
-2.31075e-05
1.07074e-05
-2.34377e-05
1.00875e-05
-2.34993e-05
9.42602e-06
-2.33443e-05
8.75357e-06
-2.30181e-05
8.08536e-06
-2.25616e-05
7.43412e-06
-2.2011e-05
6.80961e-06
-2.13993e-05
6.2185e-06
-2.07548e-05
5.66482e-06
-2.00995e-05
5.15062e-06
-1.94462e-05
4.67613e-06
4.25688e-06
-1.88361e-05
1.83235e-08
3.42595e-06
-4.78673e-07
4.00093e-06
-1.36629e-06
4.4481e-06
-2.59069e-06
4.86357e-06
-4.1089e-06
5.2501e-06
-5.87399e-06
5.60466e-06
-7.82482e-06
5.92693e-06
-9.8832e-06
6.22107e-06
-1.19606e-05
6.49166e-06
-1.39707e-05
6.74644e-06
-1.58457e-05
7.01188e-06
-1.75459e-05
7.3436e-06
-1.90267e-05
7.83177e-06
-2.02444e-05
8.60774e-06
-2.11044e-05
8.15298e-06
-2.17248e-05
8.35323e-06
-2.21331e-05
8.70928e-06
-2.23394e-05
9.18357e-06
-2.23495e-05
9.77898e-06
-2.21671e-05
1.05097e-05
-2.17874e-05
1.13462e-05
-2.13229e-05
1.11803e-05
-2.08071e-05
1.07372e-05
-2.0259e-05
1.01822e-05
-1.97263e-05
9.57491e-06
-1.92393e-05
8.95681e-06
-1.88107e-05
8.3407e-06
-1.84466e-05
7.73521e-06
-1.81471e-05
7.14693e-06
-1.79074e-05
6.58089e-06
-1.772e-05
6.04088e-06
-1.75761e-05
5.52959e-06
-1.74665e-05
5.04866e-06
-1.73825e-05
4.599e-06
4.1758e-06
-1.72952e-05
4.12909e-07
3.01537e-06
9.07489e-07
3.50933e-06
1.41366e-06
3.94556e-06
1.87776e-06
4.40384e-06
2.24007e-06
4.89297e-06
2.44017e-06
5.41064e-06
2.42008e-06
5.95412e-06
2.1285e-06
6.52091e-06
1.52628e-06
7.1035e-06
5.84491e-07
7.69945e-06
-7.13715e-07
8.32323e-06
-2.36333e-06
9.0086e-06
-4.33074e-06
9.81728e-06
-6.54235e-06
1.08407e-05
-8.45136e-06
1.00828e-05
-1.01579e-05
1.00809e-05
-1.16579e-05
1.02307e-05
-1.29562e-05
1.05034e-05
-1.4077e-05
1.09213e-05
-1.50465e-05
1.15007e-05
-1.58806e-05
1.22016e-05
-1.64505e-05
1.17694e-05
-1.67399e-05
1.10435e-05
-1.68251e-05
1.02825e-05
-1.67676e-05
9.53075e-06
-1.65979e-05
8.79889e-06
-1.63412e-05
8.09442e-06
-1.60195e-05
7.4227e-06
-1.56523e-05
6.78784e-06
-1.52567e-05
6.19255e-06
-1.48476e-05
5.63818e-06
-1.44372e-05
5.12491e-06
-1.40355e-05
4.65203e-06
-1.365e-05
4.21811e-06
3.82575e-06
-1.3296e-05
-6.88892e-07
3.70966e-06
-1.41086e-06
4.2374e-06
-2.18693e-06
4.7286e-06
-3.01897e-06
5.24385e-06
-3.90076e-06
5.78387e-06
-4.825e-06
6.34537e-06
-5.78206e-06
6.92321e-06
-6.75766e-06
7.51035e-06
-7.73868e-06
8.10039e-06
-8.7167e-06
8.69566e-06
-9.68493e-06
9.31223e-06
-1.06345e-05
9.98187e-06
-1.1551e-05
1.07606e-05
-1.2423e-05
1.1743e-05
-1.31387e-05
1.08266e-05
-1.37371e-05
1.07068e-05
-1.42129e-05
1.07332e-05
-1.45705e-05
1.08871e-05
-1.48054e-05
1.11816e-05
-1.49078e-05
1.16278e-05
-1.48515e-05
1.21695e-05
-1.46453e-05
1.15846e-05
-1.43575e-05
1.07745e-05
-1.40436e-05
9.9852e-06
-1.37266e-05
9.22839e-06
-1.34202e-05
8.50549e-06
-1.31331e-05
7.81875e-06
-1.28703e-05
7.17012e-06
-1.26342e-05
6.56083e-06
-1.24248e-05
5.99124e-06
-1.22405e-05
5.46104e-06
-1.20785e-05
4.96936e-06
-1.19356e-05
4.51482e-06
-1.18082e-05
4.09588e-06
3.70815e-06
-1.16861e-05
2.02755e-07
3.50969e-06
3.35569e-07
4.10794e-06
4.31382e-07
4.63675e-06
4.75714e-07
5.20418e-06
4.43622e-07
5.82141e-06
3.08623e-07
6.48672e-06
4.52094e-08
7.19402e-06
-3.70003e-07
7.93417e-06
-9.57267e-07
8.69766e-06
-1.72944e-06
9.47943e-06
-2.68612e-06
1.02824e-05
-3.81445e-06
1.1126e-05
-5.08578e-06
1.20503e-05
-6.44726e-06
1.3126e-05
-7.58822e-06
1.19881e-05
-8.59138e-06
1.17305e-05
-9.46255e-06
1.16249e-05
-1.02192e-05
1.16642e-05
-1.08789e-05
1.18616e-05
-1.14038e-05
1.21727e-05
-1.17329e-05
1.25182e-05
-1.18764e-05
1.17458e-05
-1.19096e-05
1.08234e-05
-1.186e-05
9.94945e-06
-1.17429e-05
9.12362e-06
-1.15727e-05
8.34627e-06
-1.13632e-05
7.619e-06
-1.11264e-05
6.94194e-06
-1.08722e-05
6.31438e-06
-1.06092e-05
5.73511e-06
-1.03445e-05
5.20237e-06
-1.00836e-05
4.71395e-06
-9.83134e-06
4.2674e-06
-9.59132e-06
3.86019e-06
3.49132e-06
-9.37063e-06
-3.69474e-07
3.88292e-06
-8.10593e-07
4.55337e-06
-1.31353e-06
5.14463e-06
-1.86276e-06
5.75911e-06
-2.44235e-06
6.40755e-06
-3.03904e-06
7.09098e-06
-3.64189e-06
7.80559e-06
-4.24446e-06
8.54682e-06
-4.84559e-06
9.31044e-06
-5.44746e-06
1.00947e-05
-6.0531e-06
1.09035e-05
-6.66402e-06
1.17546e-05
-7.27846e-06
1.2685e-05
-7.88959e-06
1.37603e-05
-8.408e-06
1.25281e-05
-8.88177e-06
1.22256e-05
-9.31803e-06
1.20823e-05
-9.69982e-06
1.20668e-05
-9.99037e-06
1.21726e-05
-1.01493e-05
1.23518e-05
-1.01797e-05
1.25685e-05
-1.01238e-05
1.17079e-05
-1.00125e-05
1.0728e-05
-9.86384e-06
9.81494e-06
-9.69253e-06
8.96488e-06
-9.51081e-06
8.17576e-06
-9.32732e-06
7.44551e-06
-9.14788e-06
6.77145e-06
-8.97635e-06
6.15083e-06
-8.81476e-06
5.58066e-06
-8.66372e-06
5.05771e-06
-8.52303e-06
4.57898e-06
-8.39231e-06
4.14178e-06
-8.27089e-06
3.74335e-06
3.37989e-06
-8.15537e-06
1.28768e-08
3.87267e-06
-9.21423e-09
4.57858e-06
-6.54408e-08
5.2045e-06
-1.61679e-07
5.8596e-06
-3.09047e-07
6.55987e-06
-5.18549e-07
7.30624e-06
-8.00403e-07
8.09416e-06
-1.1621e-06
8.91634e-06
-1.60781e-06
9.76528e-06
-2.13751e-06
1.06351e-05
-2.75007e-06
1.15285e-05
-3.44165e-06
1.24607e-05
-4.20439e-06
1.34647e-05
-5.02385e-06
1.45993e-05
-5.72991e-06
1.32529e-05
-6.37205e-06
1.28865e-05
-6.94854e-06
1.26775e-05
-7.44096e-06
1.25779e-05
-7.82461e-06
1.25748e-05
-8.10163e-06
1.26473e-05
-8.28984e-06
1.27751e-05
-8.38032e-06
1.18151e-05
-8.39324e-06
1.07558e-05
-8.34929e-06
9.78435e-06
-8.26423e-06
8.89177e-06
-8.14893e-06
8.07118e-06
-8.01174e-06
7.31793e-06
-7.85986e-06
6.62819e-06
-7.69924e-06
5.99793e-06
-7.53463e-06
5.42298e-06
-7.37014e-06
4.89942e-06
-7.20923e-06
4.42364e-06
-7.05461e-06
3.99214e-06
-6.90813e-06
3.60136e-06
3.24842e-06
-6.77266e-06
-1.32835e-07
4.00827e-06
-3.27726e-07
4.77668e-06
-5.60859e-07
5.44136e-06
-8.24864e-07
6.12794e-06
-1.11637e-06
6.85639e-06
-1.43115e-06
7.62689e-06
-1.76608e-06
8.4359e-06
-2.1193e-06
9.2775e-06
-2.49045e-06
1.01457e-05
-2.88152e-06
1.10369e-05
-3.29614e-06
1.19556e-05
-3.73899e-06
1.2918e-05
-4.21578e-06
1.39582e-05
-4.73274e-06
1.51356e-05
-5.19763e-06
1.37361e-05
-5.62476e-06
1.33319e-05
-6.00764e-06
1.30787e-05
-6.35307e-06
1.29416e-05
-6.64986e-06
1.28899e-05
-6.87556e-06
1.28912e-05
-7.01668e-06
1.29344e-05
-7.07273e-06
1.18877e-05
-7.06826e-06
1.07663e-05
-7.02115e-06
9.75068e-06
-6.94513e-06
8.82786e-06
-6.85082e-06
7.98775e-06
-6.74591e-06
7.22281e-06
-6.63585e-06
6.52693e-06
-6.52424e-06
5.89425e-06
-6.41371e-06
5.31958e-06
-6.30635e-06
4.79846e-06
-6.20365e-06
4.32669e-06
-6.10645e-06
3.9001e-06
-6.01511e-06
3.51467e-06
3.16626e-06
-5.92879e-06
1.23085e-07
3.88756e-06
2.09087e-07
4.69343e-06
2.37717e-07
5.41592e-06
2.1169e-07
6.15769e-06
1.34055e-07
6.93837e-06
5.97315e-09
7.76004e-06
-1.72624e-07
8.62042e-06
-4.0258e-07
9.51441e-06
-6.85595e-07
1.04368e-05
-1.02424e-06
1.13852e-05
-1.42217e-06
1.23648e-05
-1.8838e-06
1.33928e-05
-2.41243e-06
1.45022e-05
-3.00708e-06
1.57481e-05
-3.54386e-06
1.42899e-05
-4.04074e-06
1.3846e-05
-4.49511e-06
1.35503e-05
-4.90352e-06
1.33674e-05
-5.25353e-06
1.32574e-05
-5.53821e-06
1.31935e-05
-5.75083e-06
1.31648e-05
-5.87626e-06
1.20295e-05
-5.9348e-06
1.08395e-05
-5.94465e-06
9.77387e-06
-5.91906e-06
8.81431e-06
-5.86795e-06
7.94752e-06
-5.79816e-06
7.16285e-06
-5.71568e-06
6.45333e-06
-5.62593e-06
5.8125e-06
-5.53324e-06
5.23411e-06
-5.44081e-06
4.71251e-06
-5.35071e-06
4.24243e-06
-5.26427e-06
3.8189e-06
-5.18221e-06
3.43735e-06
3.09377e-06
-5.10547e-06
2.50997e-07
3.63901e-06
4.10586e-07
4.53663e-06
4.96419e-07
5.3333e-06
5.22425e-07
6.1354e-06
4.90588e-07
6.97451e-06
4.04256e-07
7.85139e-06
2.67352e-07
8.76318e-06
8.30885e-08
9.70553e-06
-1.46943e-07
1.06749e-05
-4.24395e-07
1.1672e-05
-7.5446e-07
1.27059e-05
-1.14445e-06
1.37956e-05
-1.60164e-06
1.49742e-05
-2.13049e-06
1.62941e-05
-2.62345e-06
1.47994e-05
-3.09354e-06
1.43327e-05
-3.5259e-06
1.39994e-05
-3.90667e-06
1.37651e-05
-4.23176e-06
1.35996e-05
-4.50322e-06
1.34823e-05
-4.72218e-06
1.34013e-05
-4.87183e-06
1.21953e-05
-4.96174e-06
1.09442e-05
-5.0065e-06
9.832e-06
-5.01629e-06
8.83624e-06
-4.99991e-06
7.94214e-06
-4.96573e-06
7.13862e-06
-4.91993e-06
6.41653e-06
-4.8673e-06
5.768e-06
-4.81156e-06
5.1857e-06
-4.75509e-06
4.66264e-06
-4.69913e-06
4.19244e-06
-4.64441e-06
3.76955e-06
-4.5913e-06
3.38911e-06
3.04672e-06
-4.53989e-06
4.94771e-07
3.147e-06
8.42518e-07
4.19188e-06
1.10442e-06
5.07474e-06
1.29829e-06
5.94528e-06
1.43495e-06
6.84215e-06
1.50502e-06
7.78628e-06
1.49853e-06
8.77545e-06
1.41518e-06
9.79563e-06
1.25247e-06
1.08455e-05
1.00727e-06
1.19263e-05
6.76991e-07
1.30467e-05
2.56877e-07
1.42279e-05
-2.54157e-07
1.54993e-05
-8.51299e-07
1.69076e-05
-1.40494e-06
1.53687e-05
-1.92916e-06
1.48728e-05
-2.41011e-06
1.44965e-05
-2.83928e-06
1.42106e-05
-3.21456e-06
1.39915e-05
-3.5369e-06
1.38216e-05
-3.80713e-06
1.36888e-05
-4.00629e-06
1.24105e-05
-4.14416e-06
1.10967e-05
-4.23399e-06
9.93516e-06
-4.2857e-06
8.90009e-06
-4.30789e-06
7.97534e-06
-4.30858e-06
7.14931e-06
-4.29382e-06
6.41083e-06
-4.26784e-06
5.75022e-06
-4.23404e-06
5.15932e-06
-4.1953e-06
4.63059e-06
-4.15382e-06
4.15701e-06
-4.11122e-06
3.7324e-06
-4.06861e-06
3.35144e-06
3.00953e-06
-4.02698e-06
4.84e-07
2.66598e-06
8.8943e-07
3.78981e-06
1.23693e-06
4.73104e-06
1.51845e-06
5.668e-06
1.73753e-06
6.62784e-06
1.89982e-06
7.62933e-06
2.00103e-06
8.68029e-06
2.0258e-06
9.77766e-06
1.96041e-06
1.09186e-05
1.79076e-06
1.21048e-05
1.50631e-06
1.33413e-05
1.11036e-06
1.46355e-05
6.12159e-07
1.60109e-05
1.96226e-08
1.75157e-05
-5.34965e-07
1.59382e-05
-1.06424e-06
1.54173e-05
-1.55639e-06
1.50042e-05
-2.00476e-06
1.46748e-05
-2.40646e-06
1.44094e-05
-2.76056e-06
1.41923e-05
-3.06622e-06
1.40114e-05
-3.30145e-06
1.26616e-05
-3.47477e-06
1.12845e-05
-3.59767e-06
1.00713e-05
-3.68132e-06
8.99583e-06
-3.73515e-06
8.04015e-06
-3.76608e-06
7.19022e-06
-3.77962e-06
6.43343e-06
-3.78007e-06
5.75887e-06
-3.77061e-06
5.15729e-06
-3.75376e-06
4.62045e-06
-3.73164e-06
4.14097e-06
-3.70632e-06
3.71256e-06
-3.67942e-06
3.3295e-06
2.98652e-06
-3.65194e-06
3.24677e-07
2.3437e-06
6.68585e-07
3.44873e-06
1.02341e-06
4.37951e-06
1.36483e-06
5.33036e-06
1.66929e-06
6.32774e-06
1.93517e-06
7.36841e-06
2.16168e-06
8.45942e-06
2.32758e-06
9.61816e-06
2.40652e-06
1.0847e-05
2.36792e-06
1.21517e-05
2.18861e-06
1.353e-05
1.86696e-06
1.4968e-05
1.40659e-06
1.64839e-05
8.23321e-07
1.81136e-05
2.63112e-07
1.65126e-05
-2.80191e-07
1.59751e-05
-7.93284e-07
1.55322e-05
-1.26887e-06
1.51657e-05
-1.70307e-06
1.48594e-05
-2.09371e-06
1.45991e-05
-2.43893e-06
1.43732e-05
-2.71249e-06
1.29507e-05
-2.922e-06
1.15083e-05
-3.07921e-06
1.02416e-05
-3.19503e-06
9.12357e-06
-3.27834e-06
8.13433e-06
-3.33594e-06
7.25772e-06
-3.3734e-06
6.47987e-06
-3.39523e-06
5.78886e-06
-3.405e-06
5.17443e-06
-3.40548e-06
4.62762e-06
-3.39913e-06
4.14068e-06
-3.38775e-06
3.70665e-06
-3.37269e-06
3.3194e-06
2.97357e-06
-3.35529e-06
1.38132e-07
2.20769e-06
3.34925e-07
3.25442e-06
5.86291e-07
4.13104e-06
8.78656e-07
5.04136e-06
1.1898e-06
6.02048e-06
1.49204e-06
7.07064e-06
1.7659e-06
8.19068e-06
1.9979e-06
9.39202e-06
2.16516e-06
1.06864e-05
2.24194e-06
1.20826e-05
2.20579e-06
1.3575e-05
2.02935e-06
1.51546e-05
1.69577e-06
1.68294e-05
1.21695e-06
1.86063e-05
7.22267e-07
1.70208e-05
2.2011e-07
1.64911e-05
-2.71747e-07
1.60383e-05
-7.42116e-07
1.56508e-05
-1.18374e-06
1.53162e-05
-1.59142e-06
1.50224e-05
-1.96105e-06
1.4759e-05
-2.26206e-06
1.32668e-05
-2.50016e-06
1.17603e-05
-2.6862e-06
1.04404e-05
-2.82995e-06
9.27902e-06
-2.9395e-06
8.25456e-06
-3.02146e-06
7.3494e-06
-3.08139e-06
6.54862e-06
-3.12393e-06
5.83942e-06
-3.15291e-06
5.21068e-06
-3.17073e-06
4.65202e-06
-3.17985e-06
4.15576e-06
-3.18258e-06
3.71476e-06
-3.1803e-06
3.322e-06
2.97207e-06
-3.1744e-06
5.17815e-08
2.15788e-06
1.46932e-07
3.16155e-06
2.94737e-07
3.98588e-06
4.93075e-07
4.84608e-06
7.32104e-07
5.78498e-06
9.92162e-07
6.81465e-06
1.2504e-06
7.93713e-06
1.4901e-06
9.15772e-06
1.6946e-06
1.04881e-05
1.84372e-06
1.19406e-05
1.9078e-06
1.35192e-05
1.85402e-06
1.5218e-05
1.66256e-06
1.7032e-05
1.32244e-06
1.89595e-05
9.27717e-07
1.74283e-05
4.9618e-07
1.69359e-05
4.98953e-08
1.64983e-05
-3.95579e-07
1.61104e-05
-8.29036e-07
1.57642e-05
-1.24182e-06
1.54503e-05
-1.62704e-06
1.51598e-05
-1.94962e-06
1.3604e-05
-2.21222e-06
1.20364e-05
-2.42382e-06
1.06644e-05
-2.59272e-06
9.4593e-06
-2.72619e-06
8.39842e-06
-2.83042e-06
7.46311e-06
-2.91075e-06
6.63756e-06
-2.97164e-06
5.90814e-06
-3.01692e-06
5.26304e-06
-3.04962e-06
4.69116e-06
-3.07207e-06
4.18403e-06
-3.08664e-06
3.7346e-06
-3.09539e-06
3.33553e-06
2.9809e-06
-3.09993e-06
1.1343e-08
2.1484e-06
4.5594e-08
3.12944e-06
1.14696e-07
3.91925e-06
2.23511e-07
4.74011e-06
3.71357e-07
5.64042e-06
5.49638e-07
6.64014e-06
7.43207e-07
7.74792e-06
9.3654e-07
8.9694e-06
1.11604e-06
1.03144e-05
1.26726e-06
1.17961e-05
1.36902e-06
1.34252e-05
1.3947e-06
1.52013e-05
1.31782e-06
1.71194e-05
1.11352e-06
1.91763e-05
8.34086e-07
1.772e-05
4.96454e-07
1.72861e-05
1.21682e-07
1.68861e-05
-2.73599e-07
1.65192e-05
-6.76091e-07
1.61807e-05
-1.07476e-06
1.58634e-05
-1.46019e-06
1.55602e-05
-1.79347e-06
1.39514e-05
-2.07286e-06
1.23289e-05
-2.30439e-06
1.09079e-05
-2.49433e-06
9.66023e-06
-2.64864e-06
8.56277e-06
-2.77275e-06
7.59638e-06
-2.87149e-06
6.74463e-06
-2.94908e-06
5.9933e-06
-3.00915e-06
5.32999e-06
-3.05553e-06
4.74376e-06
-3.09094e-06
4.22509e-06
-3.1172e-06
3.76597e-06
-3.13617e-06
3.35912e-06
-3.14941e-06
2.99832e-06
0.000471401
2.03471e-05
0.000463844
2.24128e-05
0.000454845
2.35922e-05
0.000444333
2.48038e-05
0.000432243
2.60333e-05
0.000418533
2.72581e-05
0.000403179
2.84509e-05
0.00038615
2.96146e-05
0.000367366
3.07928e-05
0.000346656
3.20764e-05
0.00032382
3.35298e-05
0.000299644
3.43808e-05
0.000276473
3.32788e-05
0.000254333
3.22971e-05
0.000233078
3.14811e-05
0.000212631
3.07643e-05
0.000192997
3.00576e-05
0.000174257
2.92869e-05
0.000156522
2.84146e-05
0.000139937
2.7405e-05
0.000124693
2.62067e-05
2.5406e-05
0.000109783
0.000712138
1.58475e-06
0.000733594
9.03469e-07
0.00075502
2.10579e-06
0.000775193
4.56229e-06
0.000792776
8.37434e-06
0.000806477
1.34747e-05
0.000814728
2.01106e-05
0.0008152
2.90495e-05
0.000807868
3.80273e-05
0.000792729
4.71134e-05
0.000769849
5.6304e-05
0.000739226
6.48946e-05
0.000701496
7.09024e-05
0.00065784
7.58491e-05
0.000609532
7.96896e-05
0.00055766
8.2539e-05
0.000503139
8.44834e-05
0.000446741
8.5593e-05
0.000389108
8.59583e-05
0.000330769
8.56576e-05
0.000272144
8.47486e-05
8.26829e-05
0.000214788
-6.37569e-05
-3.11723e-06
-6.23237e-05
-6.59875e-07
-6.20628e-05
1.71049e-06
-6.23924e-05
4.75266e-06
-6.26403e-05
8.47693e-06
-6.22451e-05
1.29311e-05
-6.05853e-05
1.83008e-05
-5.63212e-05
2.46347e-05
-5.02714e-05
3.18247e-05
-4.32221e-05
3.99072e-05
-3.7937e-05
5.08619e-05
-3.42399e-05
6.10445e-05
-3.10268e-05
6.75457e-05
-2.81125e-05
7.28009e-05
-2.54847e-05
7.69367e-05
-2.30759e-05
8.00137e-05
-2.08082e-05
8.21066e-05
-1.86047e-05
8.32872e-05
-1.63735e-05
8.36306e-05
-1.40218e-05
8.32154e-05
-1.14823e-05
8.21226e-05
8.10753e-05
-9.96195e-06
-0.000149848
4.43561e-05
-0.000196103
4.5719e-05
-0.000241282
4.70074e-05
-0.00028405
4.7638e-05
-0.000322983
4.7526e-05
-0.000356627
4.66876e-05
-0.000383538
4.53197e-05
-0.000402509
4.37095e-05
-0.000412878
4.22934e-05
-0.000414194
4.13231e-05
-0.000404427
4.11923e-05
-0.000385374
4.2084e-05
-0.000360973
4.32312e-05
-0.000333404
4.53087e-05
-0.000304229
4.78332e-05
-0.000274653
5.0503e-05
-0.000245569
5.30839e-05
-0.000217627
5.5403e-05
-0.000191281
5.73382e-05
-0.000166823
5.8808e-05
-0.000144423
5.97702e-05
5.98082e-05
-0.000123111
-0.000460375
1.5846e-05
-0.000433297
1.85242e-05
-0.000406916
2.05078e-05
-0.000381666
2.22632e-05
-0.000358083
2.38118e-05
-0.000336652
2.51141e-05
-0.000317496
2.60119e-05
-0.000300574
2.66315e-05
-0.000285789
2.73493e-05
-0.000273015
2.83864e-05
-0.000261978
2.99872e-05
-0.000251739
3.16726e-05
-0.000240934
3.22577e-05
-0.000228958
3.31663e-05
-0.000215581
3.42941e-05
-0.00020075
3.55127e-05
-0.000184517
3.66946e-05
-0.00016699
3.77247e-05
-0.000148325
3.85248e-05
-0.000128707
3.90465e-05
-0.000108337
3.92609e-05
3.94531e-05
-8.81166e-05
-8.06666e-05
2.14535e-05
-8.47429e-05
2.26537e-05
-8.82656e-05
2.40866e-05
-9.13396e-05
2.53961e-05
-9.40532e-05
2.65864e-05
-9.6554e-05
2.76784e-05
-9.91567e-05
2.86804e-05
-0.000102048
2.95912e-05
-0.000105069
3.04417e-05
-0.000107892
3.12836e-05
-0.000110034
3.22077e-05
-0.000111106
3.28259e-05
-0.000111098
3.23295e-05
-0.000109707
3.18524e-05
-0.000106779
3.14404e-05
-0.000102329
3.11327e-05
-9.64819e-05
3.0916e-05
-8.94419e-05
3.07491e-05
-8.14494e-05
3.05937e-05
-7.27607e-05
3.04158e-05
-6.36346e-05
3.01899e-05
2.96926e-05
-5.38224e-05
-0.00020456
8.97845e-06
-0.000192874
1.09107e-05
-0.000181422
1.25742e-05
-0.00017029
1.41994e-05
-0.00015955
1.57772e-05
-0.000149266
1.73202e-05
-0.00013948
1.88171e-05
-0.000130234
2.02622e-05
-0.000121572
2.16927e-05
-0.000113538
2.31573e-05