/*--------------------------------*- C++ -*----------------------------------*\
  =========                 |
  \\      /  F ield         | OpenFOAM: The Open Source CFD Toolbox
   \\    /   O peration     | Website:  https://openfoam.org
    \\  /    A nd           | Version:  8
     \\/     M anipulation  |
\*---------------------------------------------------------------------------*/
FoamFile
{
    version     2.0;
    format      ascii;
    class       volScalarField;
    location    "0.05";
    object      rho;
}
// * * * * * * * * * * * * * * * * * * * * * * * * * * * * * * * * * * * * * //

dimensions      [1 -3 0 0 0 0 0];

internalField   nonuniform List<scalar> 
15677
(
1.44902
1.4491
1.4491
1.44898
1.44872
1.44833
1.44778
1.447
1.44587
1.4442
1.44198
1.43949
1.43726
1.43577
1.43522
1.43487
1.43486
1.4353
1.43618
1.43696
1.43744
1.43749
1.43749
1.43742
1.43736
1.43728
1.43721
1.43717
1.43715
1.43715
1.43717
1.43722
1.43727
1.43735
1.43747
0.989227
0.98969
0.988756
0.987399
0.986061
0.98472
0.983216
0.981527
0.980135
0.97949
0.980335
0.982459
0.984288
0.985474
0.985942
0.985925
0.98565
0.985038
0.984113
0.983155
0.982227
0.981386
0.980622
0.979918
0.979235
0.978589
0.977965
0.977362
0.976784
0.976238
0.975727
0.97525
0.974799
0.974358
0.973974
1.29831
1.30022
1.30134
1.30177
1.3015
1.30064
1.29941
1.29816
1.29746
1.29765
1.2992
1.30152
1.30214
1.30251
1.30346
1.30486
1.30693
1.30936
1.3118
1.31412
1.31623
1.31794
1.31916
1.32007
1.32067
1.32102
1.32123
1.32138
1.32151
1.32164
1.32177
1.3219
1.32202
1.32214
1.32225
1.07825
1.0797
1.08076
1.08161
1.08225
1.08264
1.08287
1.08296
1.08279
1.08251
1.08184
1.08068
1.07968
1.0795
1.08017
1.08113
1.08168
1.08126
1.0801
1.07826
1.0758
1.07309
1.07068
1.06869
1.06719
1.06619
1.06554
1.06502
1.06447
1.06394
1.06347
1.06308
1.06275
1.06242
1.06209
1.20879
1.20972
1.21058
1.21145
1.21236
1.21329
1.21418
1.21502
1.21593
1.21708
1.21836
1.21885
1.2188
1.21866
1.21899
1.22046
1.22189
1.2229
1.22404
1.22563
1.22752
1.22955
1.23143
1.23311
1.23456
1.23584
1.23702
1.238
1.23888
1.23969
1.24041
1.24098
1.24147
1.24192
1.24224
1.14025
1.14084
1.14128
1.14166
1.14202
1.14235
1.14266
1.14293
1.14313
1.14324
1.14327
1.14311
1.1427
1.14219
1.14179
1.14113
1.1406
1.14014
1.13949
1.1385
1.13712
1.13552
1.13405
1.13282
1.13181
1.13097
1.13032
1.12987
1.12945
1.12903
1.12864
1.12828
1.12795
1.12762
1.12734
1.18539
1.18572
1.18604
1.18637
1.18674
1.18716
1.18762
1.18814
1.1887
1.18927
1.18985
1.19043
1.19097
1.19135
1.19179
1.1925
1.19322
1.19381
1.19428
1.19483
1.19558
1.19647
1.19738
1.19823
1.19898
1.19965
1.20018
1.20056
1.2009
1.20119
1.20143
1.20164
1.20184
1.20203
1.20216
1.15686
1.15699
1.15713
1.15725
1.15735
1.1574
1.1574
1.15734
1.15721
1.15701
1.15669
1.15637
1.15622
1.15633
1.15665
1.15712
1.15757
1.1578
1.15782
1.15767
1.15735
1.15679
1.15613
1.15551
1.15495
1.15452
1.15415
1.15387
1.15361
1.15337
1.15317
1.15297
1.15279
1.15262
1.15248
1.18325
1.18272
1.18245
1.1823
1.18228
1.1824
1.18264
1.18296
1.18333
1.18366
1.18393
1.18419
1.18446
1.18477
1.18513
1.18546
1.18573
1.18584
1.18577
1.18567
1.18558
1.18559
1.18568
1.18583
1.186
1.1861
1.18615
1.18618
1.18622
1.18626
1.18631
1.18635
1.18639
1.18643
1.18643
1.16616
1.1661
1.16604
1.166
1.16596
1.16592
1.16588
1.16584
1.16579
1.16573
1.16563
1.16552
1.16541
1.16532
1.16526
1.16521
1.16515
1.16512
1.16511
1.16507
1.16499
1.16485
1.16468
1.16454
1.16439
1.16426
1.16414
1.16402
1.1639
1.1638
1.1637
1.16362
1.16355
1.16348
1.16344
1.18104
1.181
1.18097
1.18095
1.18094
1.18094
1.18096
1.18098
1.18102
1.18105
1.18107
1.18109
1.18109
1.18107
1.18099
1.1809
1.1808
1.18068
1.18053
1.18038
1.18022
1.18008
1.17997
1.17988
1.1798
1.17974
1.1797
1.17966
1.17964
1.17962
1.17961
1.1796
1.17959
1.17959
1.17956
1.17039
1.17033
1.17028
1.17022
1.17017
1.17012
1.17008
1.17004
1.17
1.16997
1.16995
1.16993
1.16993
1.16994
1.16995
1.16996
1.16997
1.16999
1.16999
1.16998
1.16997
1.16995
1.16992
1.16987
1.16982
1.16976
1.1697
1.16963
1.16958
1.16953
1.16948
1.16944
1.16941
1.16937
1.16936
1.17888
1.17889
1.17889
1.1789
1.1789
1.17889
1.17887
1.17885
1.17881
1.17876
1.17869
1.1786
1.17849
1.17835
1.1782
1.17804
1.17787
1.17771
1.17753
1.17737
1.17721
1.17707
1.17695
1.17687
1.1768
1.17674
1.17671
1.17668
1.17666
1.17664
1.17663
1.17661
1.1766
1.17659
1.17657
1.17295
1.17292
1.1729
1.17287
1.17283
1.1728
1.17277
1.17275
1.17273
1.17272
1.17272
1.17274
1.17276
1.1728
1.17285
1.17289
1.17293
1.17296
1.17297
1.17298
1.17297
1.17295
1.17291
1.17287
1.17283
1.17279
1.17274
1.1727
1.17267
1.17263
1.17261
1.17258
1.17256
1.17254
1.17253
1.17738
1.1774
1.1774
1.17741
1.17741
1.1774
1.1774
1.17738
1.17735
1.17731
1.17725
1.17717
1.17706
1.17693
1.17679
1.17665
1.17651
1.17637
1.17624
1.17611
1.176
1.1759
1.17583
1.17577
1.17572
1.17568
1.17566
1.17563
1.17562
1.1756
1.17559
1.17558
1.17557
1.17556
1.17554
1.17461
1.17461
1.1746
1.1746
1.17459
1.17458
1.17457
1.17456
1.17456
1.17456
1.17456
1.17457
1.17459
1.17461
1.17463
1.17465
1.17466
1.17465
1.17464
1.17462
1.17459
1.17455
1.17451
1.17448
1.17444
1.1744
1.17437
1.17434
1.17431
1.17429
1.17427
1.17425
1.17423
1.17422
1.17421
1.17666
1.17667
1.17668
1.17669
1.17669
1.17669
1.17669
1.17668
1.17666
1.17663
1.17659
1.17653
1.17647
1.17638
1.17629
1.1762
1.17612
1.17603
1.17594
1.17586
1.17579
1.17572
1.17567
1.17563
1.1756
1.17557
1.17555
1.17553
1.17551
1.1755
1.17548
1.17547
1.17546
1.17545
1.17545
1.17557
1.17556
1.17556
1.17556
1.17556
1.17556
1.17556
1.17556
1.17556
1.17557
1.17558
1.17559
1.1756
1.17561
1.17561
1.17561
1.17559
1.17558
1.17555
1.17551
1.17548
1.17544
1.1754
1.17537
1.17534
1.17531
1.17528
1.17526
1.17524
1.17522
1.1752
1.17519
1.17518
1.17517
1.17516
1.17641
1.17643
1.17643
1.17644
1.17645
1.17645
1.17645
1.17645
1.17644
1.17643
1.17642
1.17639
1.17636
1.17632
1.17628
1.17623
1.17618
1.17613
1.17608
1.17603
1.17598
1.17594
1.1759
1.17587
1.17584
1.17582
1.1758
1.17578
1.17576
1.17575
1.17574
1.17573
1.17572
1.17571
1.1757
1.17601
1.17602
1.17603
1.17604
1.17604
1.17605
1.17606
1.17607
1.17608
1.1761
1.17611
1.17613
1.17614
1.17615
1.17614
1.17614
1.17612
1.1761
1.17608
1.17605
1.17601
1.17598
1.17595
1.17592
1.1759
1.17587
1.17585
1.17584
1.17582
1.17581
1.1758
1.17579
1.17578
1.17577
1.17577
1.17632
1.17634
1.17636
1.17637
1.17638
1.1764
1.17641
1.17642
1.17643
1.17645
1.17645
1.17646
1.17646
1.17645
1.17644
1.17641
1.17639
1.17636
1.17633
1.1763
1.17626
1.17623
1.1762
1.17618
1.17616
1.17614
1.17612
1.17611
1.1761
1.17609
1.17608
1.17607
1.17606
1.17605
1.17605
1.17616
1.17619
1.17621
1.17623
1.17625
1.17627
1.17629
1.17632
1.17635
1.17637
1.1764
1.17643
1.17645
1.17646
1.17647
1.17646
1.17645
1.17644
1.17642
1.17639
1.17637
1.17634
1.17632
1.1763
1.17628
1.17626
1.17625
1.17624
1.17623
1.17622
1.17621
1.1762
1.17619
1.17619
1.17618
1.17626
1.17629
1.17632
1.17634
1.17637
1.1764
1.17643
1.17646
1.17649
1.17653
1.17656
1.17659
1.17661
1.17662
1.17662
1.17661
1.1766
1.17658
1.17656
1.17654
1.17652
1.1765
1.17647
1.17646
1.17644
1.17643
1.17642
1.17641
1.1764
1.17639
1.17638
1.17638
1.17637
1.17637
1.17636
1.17622
1.17625
1.17627
1.1763
1.17634
1.17637
1.17641
1.17646
1.1765
1.17655
1.17659
1.17663
1.17666
1.17668
1.17669
1.17669
1.17668
1.17667
1.17665
1.17663
1.17662
1.1766
1.17658
1.17657
1.17655
1.17654
1.17653
1.17652
1.17651
1.17651
1.1765
1.1765
1.17649
1.17649
1.17649
1.17636
1.17636
1.17637
1.1764
1.17643
1.17646
1.17651
1.17656
1.17661
1.17666
1.1767
1.17673
1.17676
1.17677
1.17678
1.17678
1.17677
1.17676
1.17674
1.17673
1.17671
1.1767
1.17668
1.17667
1.17666
1.17665
1.17664
1.17663
1.17663
1.17662
1.17662
1.17661
1.17661
1.17661
1.17661
1.17664
1.17659
1.17657
1.17656
1.17657
1.17659
1.17662
1.17666
1.1767
1.17674
1.17677
1.1768
1.17682
1.17683
1.17684
1.17683
1.17683
1.17682
1.17681
1.1768
1.17678
1.17677
1.17676
1.17675
1.17674
1.17673
1.17673
1.17672
1.17672
1.17671
1.17671
1.17671
1.1767
1.1767
1.1767
1.17684
1.17681
1.17678
1.17676
1.17675
1.17676
1.17677
1.17679
1.17681
1.17683
1.17685
1.17687
1.17688
1.17689
1.17689
1.17689
1.17688
1.17687
1.17686
1.17685
1.17684
1.17683
1.17682
1.17682
1.17681
1.1768
1.1768
1.17679
1.17679
1.17679
1.17678
1.17678
1.17678
1.17678
1.17678
1.17691
1.17689
1.17688
1.17687
1.17686
1.17686
1.17686
1.17686
1.17688
1.17689
1.1769
1.17691
1.17692
1.17692
1.17692
1.17692
1.17691
1.17691
1.1769
1.17689
1.17689
1.17688
1.17687
1.17687
1.17686
1.17686
1.17685
1.17685
1.17685
1.17685
1.17684
1.17684
1.17684
1.17684
1.17684
1.17694
1.17693
1.17693
1.17692
1.17692
1.17691
1.17691
1.17692
1.17692
1.17692
1.17693
1.17694
1.17694
1.17694
1.17694
1.17694
1.17694
1.17693
1.17693
1.17692
1.17692
1.17691
1.17691
1.1769
1.1769
1.1769
1.17689
1.17689
1.17689
1.17689
1.17689
1.17689
1.17689
1.17688
1.17688
1.17695
1.17695
1.17694
1.17694
1.17694
1.17694
1.17694
1.17694
1.17694
1.17694
1.17695
1.17695
1.17695
1.17695
1.17695
1.17695
1.17695
1.17695
1.17694
1.17694
1.17694
1.17693
1.17693
1.17693
1.17693
1.17692
1.17692
1.17692
1.17692
1.17692
1.17692
1.17692
1.17692
1.17692
1.17692
1.43761
1.43837
1.43943
1.44054
1.44169
1.44289
1.44416
1.4455
1.44689
1.44833
1.44981
1.45133
1.4529
1.45444
1.45594
1.4574
1.45882
1.46021
1.46156
1.4629
1.46423
1.46529
0.973825
0.972982
0.971833
0.97067
0.969513
0.96835
0.967169
0.965947
0.964754
0.96358
0.96241
0.961231
0.960041
0.958901
0.957821
0.956814
0.955887
0.955018
0.954188
0.953376
0.952587
0.952074
1.3221
1.32207
1.32224
1.32245
1.32269
1.32299
1.32334
1.3238
1.32428
1.32478
1.32523
1.32577
1.32643
1.32712
1.32784
1.32857
1.32928
1.32997
1.33062
1.33122
1.33178
1.33208
1.06219
1.06217
1.06221
1.06236
1.06262
1.06285
1.06308
1.06341
1.06381
1.06429
1.06495
1.06569
1.06642
1.06711
1.06777
1.06841
1.06902
1.0696
1.07014
1.07063
1.07112
1.07176
1.24207
1.24187
1.24164
1.24134
1.241
1.24067
1.24032
1.23984
1.23927
1.23868
1.23807
1.23748
1.23694
1.23644
1.23594
1.23546
1.23499
1.23454
1.23412
1.23371
1.2333
1.23277
1.12732
1.12736
1.12733
1.12731
1.12731
1.12732
1.12736
1.12742
1.12752
1.12767
1.12787
1.12811
1.12837
1.12864
1.12893
1.12922
1.12952
1.12982
1.13012
1.1304
1.1307
1.13107
1.20196
1.20178
1.20163
1.20145
1.20123
1.201
1.20073
1.20045
1.20014
1.19981
1.19947
1.19915
1.19886
1.19855
1.19825
1.19795
1.19765
1.19737
1.19709
1.19683
1.19654
1.1962
1.15246
1.15253
1.15257
1.15261
1.15267
1.15274
1.15284
1.15295
1.15307
1.1532
1.15334
1.15348
1.15361
1.15373
1.15386
1.15398
1.15412
1.15425
1.15439
1.15453
1.15468
1.15488
1.18623
1.186
1.1858
1.18558
1.18535
1.18511
1.18486
1.18459
1.18432
1.18405
1.18376
1.18348
1.18323
1.183
1.18279
1.18258
1.18238
1.18219
1.18201
1.18183
1.18165
1.18146
1.16353
1.16363
1.1637
1.16377
1.16385
1.16394
1.16402
1.16411
1.16421
1.1643
1.16439
1.16448
1.16456
1.16463
1.16469
1.16476
1.16482
1.16488
1.16495
1.16501
1.16508
1.16517
1.17939
1.17919
1.17901
1.17881
1.17861
1.17841
1.17821
1.178
1.17779
1.17758
1.17737
1.17716
1.17698
1.17681
1.17665
1.1765
1.17635
1.17622
1.17609
1.17596
1.17584
1.17571
1.16943
1.1695
1.16955
1.1696
1.16966
1.16971
1.16976
1.16981
1.16986
1.1699
1.16994
1.16997
1.16999
1.17001
1.17002
1.17003
1.17004
1.17005
1.17006
1.17007
1.17009
1.17011
1.17645
1.17631
1.17618
1.17604
1.1759
1.17577
1.17563
1.17549
1.17535
1.17521
1.17507
1.17494
1.17482
1.17471
1.1746
1.17451
1.17441
1.17432
1.17424
1.17416
1.17407
1.17399
1.17256
1.17259
1.17261
1.17262
1.17264
1.17265
1.17266
1.17266
1.17267
1.17267
1.17266
1.17265
1.17264
1.17262
1.1726
1.17258
1.17255
1.17253
1.17251
1.17249
1.17248
1.17246
1.17546
1.17537
1.17528
1.17519
1.1751
1.17501
1.17492
1.17482
1.17473
1.17464
1.17455
1.17446
1.17438
1.17431
1.17423
1.17417
1.17411
1.17405
1.17399
1.17393
1.17388
1.17382
1.17421
1.17421
1.1742
1.17419
1.17417
1.17415
1.17413
1.1741
1.17408
1.17405
1.17401
1.17398
1.17394
1.1739
1.17386
1.17382
1.17378
1.17375
1.17371
1.17368
1.17364
1.17361
1.17539
1.17533
1.17526
1.1752
1.17513
1.17506
1.175
1.17493
1.17486
1.17479
1.17473
1.17466
1.1746
1.17455
1.17449
1.17444
1.17439
1.17434
1.17429
1.17425
1.1742
1.17416
1.17515
1.17513
1.1751
1.17506
1.17503
1.17499
1.17495
1.17491
1.17487
1.17482
1.17478
1.17473
1.17468
1.17464
1.17459
1.17455
1.1745
1.17446
1.17442
1.17438
1.17434
1.17431
1.17567
1.17562
1.17557
1.17551
1.17546
1.17541
1.17535
1.1753
1.17524
1.17519
1.17513
1.17508
1.17502
1.17497
1.17492
1.17487
1.17482
1.17477
1.17473
1.17469
1.17465
1.17461
1.17575
1.17571
1.17567
1.17564
1.1756
1.17555
1.17551
1.17546
1.17542
1.17537
1.17532
1.17526
1.17521
1.17516
1.17511
1.17507
1.17502
1.17498
1.17493
1.17489
1.17485
1.17481
1.17602
1.17598
1.17594
1.1759
1.17585
1.1758
1.17575
1.17571
1.17565
1.1756
1.17555
1.1755
1.17544
1.17539
1.17534
1.17529
1.17525
1.1752
1.17516
1.17512
1.17508
1.17504
1.17617
1.17613
1.17609
1.17606
1.17602
1.17597
1.17593
1.17589
1.17584
1.17579
1.17574
1.17569
1.17564
1.17559
1.17554
1.17549
1.17544
1.1754
1.17536
1.17531
1.17527
1.17523
1.17634
1.17631
1.17627
1.17623
1.17619
1.17615
1.17611
1.17606
1.17602
1.17597
1.17592
1.17587
1.17582
1.17577
1.17572
1.17568
1.17563
1.17559
1.17554
1.1755
1.17546
1.17542
1.17647
1.17644
1.17641
1.17637
1.17634
1.1763
1.17626
1.17622
1.17617
1.17613
1.17608
1.17603
1.17598
1.17594
1.17589
1.17584
1.1758
1.17576
1.17571
1.17567
1.17563
1.17559
1.17659
1.17656
1.17653
1.1765
1.17647
1.17643
1.1764
1.17636
1.17632
1.17627
1.17623
1.17618
1.17614
1.17609
1.17604
1.176
1.17596
1.17591
1.17587
1.17583
1.17579
1.17575
1.17669
1.17666
1.17664
1.17661
1.17658
1.17655
1.17651
1.17648
1.17644
1.1764
1.17636
1.17631
1.17627
1.17623
1.17618
1.17614
1.1761
1.17606
1.17602
1.17598
1.17594
1.1759
1.17677
1.17675
1.17672
1.1767
1.17667
1.17664
1.17661
1.17658
1.17655
1.17651
1.17647
1.17643
1.17639
1.17635
1.17631
1.17627
1.17623
1.17619
1.17615
1.17611
1.17607
1.17603
1.17683
1.17681
1.17679
1.17677
1.17675
1.17673
1.1767
1.17667
1.17664
1.17661
1.17657
1.17653
1.17649
1.17646
1.17642
1.17638
1.17634
1.1763
1.17626
1.17623
1.17619
1.17616
1.17688
1.17686
1.17685
1.17683
1.17681
1.17679
1.17677
1.17675
1.17672
1.17669
1.17666
1.17662
1.17659
1.17655
1.17651
1.17648
1.17644
1.17641
1.17637
1.17633
1.1763
1.17627
1.17691
1.1769
1.17689
1.17688
1.17686
1.17685
1.17683
1.17681
1.17678
1.17676
1.17673
1.1767
1.17667
1.17663
1.1766
1.17657
1.17653
1.1765
1.17646
1.17643
1.1764
1.17636
1.46568
1.46576
1.46573
1.46573
1.46578
1.46575
0.951977
0.951866
0.95183
0.951808
0.951796
0.951863
1.33201
1.33228
1.33244
1.33248
1.33244
1.33231
1.07233
1.07245
1.07249
1.0725
1.07246
1.07235
1.23235
1.23225
1.23222
1.23223
1.23228
1.23236
1.13138
1.13139
1.13138
1.13137
1.13136
1.13132
1.19601
1.196
1.19602
1.19603
1.19603
1.19606
1.15501
1.15499
1.15495
1.15494
1.15494
1.15494
1.18136
1.18136
1.18137
1.18137
1.18137
1.18138
1.16521
1.16519
1.16517
1.16517
1.16517
1.16518
1.17565
1.17566
1.17567
1.17567
1.17567
1.17567
1.17011
1.17009
1.17009
1.17008
1.17009
1.1701
1.17395
1.17396
1.17396
1.17396
1.17396
1.17395
1.17245
1.17243
1.17243
1.17242
1.17243
1.17243
1.1738
1.1738
1.1738
1.1738
1.17379
1.17379
1.17359
1.17359
1.17358
1.17358
1.17358
1.17358
1.17414
1.17413
1.17413
1.17413
1.17413
1.17413
1.17429
1.17428
1.17428
1.17428
1.17428
1.17428
1.17459
1.17458
1.17458
1.17458
1.17458
1.17458
1.17479
1.17479
1.17479
1.17479
1.17479
1.17479
1.17502
1.17502
1.17501
1.17501
1.17501
1.17501
1.17521
1.17521
1.17521
1.17521
1.17521
1.17521
1.1754
1.1754
1.1754
1.1754
1.1754
1.1754
1.17557
1.17557
1.17557
1.17557
1.17557
1.17557
1.17573
1.17573
1.17573
1.17573
1.17573
1.17573
1.17588
1.17588
1.17588
1.17588
1.17588
1.17588
1.17601
1.17601
1.17601
1.17601
1.17601
1.17601
1.17614
1.17614
1.17614
1.17613
1.17613
1.17613
1.17625
1.17625
1.17625
1.17625
1.17625
1.17625
1.17635
1.17635
1.17635
1.17635
1.17635
1.17635
1.46534
1.46421
1.46288
1.46157
1.46024
1.45888
1.45749
1.45606
1.4546
1.45311
1.45159
1.45008
1.44864
1.44725
1.4459
1.4446
1.44336
1.44217
1.44103
1.43992
1.43885
1.43807
0.95192
0.952404
0.953158
0.953933
0.954727
0.955559
0.956437
0.957365
0.95835
0.959407
0.960562
0.961759
0.962915
0.964078
0.965268
0.966485
0.967718
0.968898
0.970062
0.971229
0.972385
0.973254
1.33245
1.3323
1.33187
1.33136
1.33081
1.33021
1.32958
1.32892
1.32825
1.32759
1.32696
1.32639
1.32591
1.32542
1.32494
1.32448
1.32406
1.32376
1.32351
1.32332
1.32314
1.32314
1.07179
1.07112
1.07062
1.0701
1.06953
1.06893
1.06828
1.06761
1.0669
1.06616
1.0654
1.06464
1.06392
1.06334
1.06287
1.06248
1.06219
1.06189
1.06156
1.06135
1.06126
1.06121
1.23278
1.23331
1.23373
1.23414
1.23458
1.23503
1.23549
1.23597
1.23645
1.23695
1.23746
1.23801
1.23862
1.23925
1.23985
1.24033
1.24067
1.241
1.24137
1.24171
1.24195
1.24218
1.13102
1.13063
1.13031
1.13
1.12968
1.12936
1.12904
1.12873
1.12843
1.12815
1.12789
1.12767
1.12747
1.12732
1.12721
1.12714
1.1271
1.12708
1.12708
1.12712
1.12715
1.12712
1.19627
1.19662
1.19691
1.19719
1.19748
1.19778
1.19808
1.19839
1.19869
1.19899
1.19928
1.19961
1.19997
1.2003
1.20062
1.2009
1.20115
1.20139
1.2016
1.20178
1.20194
1.20212
1.15481
1.1546
1.15442
1.15425
1.15408
1.15392
1.15377
1.15362
1.15348
1.15334
1.1532
1.15306
1.15291
1.15277
1.15265
1.15254
1.15244
1.15234
1.15225
1.1522
1.15215
1.15207
1.18149
1.18171
1.1819
1.18208
1.18228
1.18248
1.18269
1.18292
1.18315
1.1834
1.18365
1.18392
1.18421
1.1845
1.18478
1.18505
1.18531
1.18556
1.18579
1.18601
1.18622
1.18644
1.16513
1.16502
1.16494
1.16486
1.16478
1.1647
1.16462
1.16454
1.16447
1.16439
1.16431
1.16422
1.16412
1.16401
1.16391
1.16381
1.16371
1.16362
1.16353
1.16344
1.16336
1.16325
1.17573
1.17587
1.176
1.17613
1.17626
1.1764
1.17654
1.1767
1.17686
1.17703
1.17722
1.17743
1.17764
1.17785
1.17806
1.17827
1.17848
1.17869
1.17889
1.17908
1.17927
1.17947
1.17008
1.17006
1.17004
1.17002
1.17
1.16998
1.16997
1.16995
1.16992
1.1699
1.16987
1.16983
1.16979
1.16973
1.16967
1.16962
1.16956
1.16949
1.16943
1.16937
1.1693
1.16922
1.17399
1.17407
1.17415
1.17423
1.17432
1.17441
1.1745
1.1746
1.17471
1.17482
1.17494
1.17507
1.17521
1.17535
1.17549
1.17563
1.17577
1.17591
1.17605
1.17619
1.17632
1.17646
1.17245
1.17246
1.17247
1.17248
1.1725
1.17252
1.17253
1.17255
1.17256
1.17258
1.17259
1.17259
1.17259
1.17259
1.17257
1.17256
1.17254
1.17252
1.1725
1.17248
1.17246
1.17242
1.17381
1.17387
1.17392
1.17397
1.17403
1.17409
1.17415
1.17421
1.17428
1.17436
1.17443
1.17452
1.17461
1.1747
1.1748
1.17489
1.17498
1.17507
1.17517
1.17526
1.17535
1.17544
1.1736
1.17363
1.17366
1.17369
1.17372
1.17376
1.17379
1.17383
1.17386
1.1739
1.17393
1.17397
1.174
1.17402
1.17405
1.17407
1.17409
1.1741
1.17411
1.17412
1.17412
1.17412
1.17415
1.17419
1.17423
1.17428
1.17432
1.17437
1.17442
1.17447
1.17452
1.17458
1.17463
1.1747
1.17476
1.17483
1.1749
1.17496
1.17503
1.1751
1.17517
1.17523
1.1753
1.17536
1.1743
1.17433
1.17437
1.17441
1.17444
1.17449
1.17453
1.17457
1.17461
1.17466
1.1747
1.17474
1.17479
1.17483
1.17487
1.17491
1.17495
1.17498
1.17502
1.17505
1.17507
1.1751
1.1746
1.17464
1.17468
1.17472
1.17476
1.1748
1.17485
1.1749
1.17495
1.175
1.17505
1.17511
1.17516
1.17522
1.17527
1.17533
1.17538
1.17543
1.17549
1.17554
1.17559
1.17564
1.17481
1.17484
1.17488
1.17492
1.17496
1.17501
1.17505
1.1751
1.17514
1.17519
1.17524
1.17529
1.17534
1.17539
1.17544
1.17548
1.17553
1.17557
1.17561
1.17564
1.17568
1.17571
1.17503
1.17507
1.17511
1.17515
1.17519
1.17524
1.17528
1.17533
1.17538
1.17543
1.17548
1.17553
1.17558
1.17563
1.17568
1.17573
1.17578
1.17583
1.17587
1.17592
1.17596
1.176
1.17523
1.17527
1.17531
1.17535
1.17539
1.17543
1.17548
1.17552
1.17557
1.17562
1.17567
1.17572
1.17577
1.17582
1.17587
1.17591
1.17595
1.176
1.17604
1.17607
1.17611
1.17614
1.17542
1.17546
1.17549
1.17554
1.17558
1.17562
1.17567
1.17571
1.17576
1.17581
1.17586
1.17591
1.17595
1.176
1.17605
1.17609
1.17614
1.17618
1.17622
1.17625
1.17629
1.17632
1.17559
1.17563
1.17567
1.17571
1.17575
1.17579
1.17584
1.17588
1.17593
1.17597
1.17602
1.17607
1.17612
1.17616
1.1762
1.17625
1.17629
1.17632
1.17636
1.17639
1.17642
1.17645
1.17575
1.17579
1.17583
1.17587
1.17591
1.17595
1.17599
1.17604
1.17608
1.17612
1.17617
1.17622
1.17626
1.1763
1.17634
1.17638
1.17642
1.17645
1.17649
1.17652
1.17655
1.17658
1.1759
1.17593
1.17597
1.17601
1.17605
1.17609
1.17613
1.17617
1.17622
1.17626
1.1763
1.17635
1.17639
1.17643
1.17647
1.1765
1.17654
1.17657
1.1766
1.17662
1.17665
1.17667
1.17603
1.17607
1.1761
1.17614
1.17618
1.17622
1.17626
1.1763
1.17634
1.17638
1.17642
1.17646
1.1765
1.17654
1.17657
1.1766
1.17663
1.17666
1.17669
1.17671
1.17673
1.17675
1.17615
1.17619
1.17622
1.17626
1.1763
1.17634
1.17637
1.17641
1.17645
1.17649
1.17653
1.17656
1.1766
1.17663
1.17666
1.17669
1.17672
1.17674
1.17676
1.17678
1.1768
1.17682
1.17626
1.1763
1.17633
1.17637
1.1764
1.17644
1.17647
1.17651
1.17654
1.17658
1.17661
1.17665
1.17668
1.17671
1.17674
1.17676
1.17678
1.1768
1.17682
1.17684
1.17685
1.17687
1.17636
1.17639
1.17643
1.17646
1.17649
1.17653
1.17656
1.1766
1.17663
1.17666
1.17669
1.17672
1.17675
1.17678
1.1768
1.17682
1.17684
1.17685
1.17687
1.17688
1.17689
1.1769
1.43789
1.43773
1.43761
1.4375
1.43738
1.43728
1.43718
1.43711
1.43705
1.43702
1.43698
1.43698
1.43695
1.4369
1.43662
1.43572
1.43442
1.43374
1.43376
1.43419
1.43482
1.43541
1.43626
1.43793
1.43984
1.44172
1.44327
1.44423
1.4449
1.44533
1.44562
1.44579
1.44584
1.44576
1.44555
0.97346
0.97387
0.974332
0.974828
0.975365
0.975937
0.976533
0.977154
0.977802
0.978471
0.979157
0.979879
0.980656
0.98148
0.982437
0.983584
0.984715
0.985718
0.986451
0.986793
0.986928
0.98688
0.986205
0.985106
0.98362
0.982611
0.982993
0.984138
0.98544
0.986683
0.987764
0.988862
0.990014
0.990808
0.990259
1.32333
1.32325
1.32314
1.32304
1.32294
1.32282
1.32273
1.32265
1.32255
1.32238
1.32206
1.32149
1.32057
1.31935
1.31765
1.3156
1.31343
1.31118
1.30887
1.30672
1.30534
1.3043
1.30374
1.30411
1.30267
1.30046
1.29965
1.29961
1.30025
1.30105
1.30161
1.30168
1.30113
1.29994
1.29795
1.0611
1.06147
1.06181
1.06212
1.06249
1.06294
1.06347
1.06404
1.06462
1.06526
1.06622
1.06767
1.06967
1.07208
1.07484
1.07735
1.07922
1.08038
1.08071
1.08004
1.07899
1.07822
1.07861
1.07976
1.08117
1.0821
1.08255
1.0829
1.08296
1.08288
1.08258
1.08202
1.08123
1.0802
1.07878
1.24238
1.24209
1.24166
1.24117
1.24057
1.23989
1.23911
1.23824
1.23728
1.23618
1.23495
1.23357
1.23194
1.2301
1.22816
1.22637
1.22489
1.22387
1.22291
1.22142
1.21996
1.21972
1.2197
1.21963
1.21909
1.2181
1.21713
1.21637
1.21566
1.21493
1.21421
1.21349
1.21277
1.21205
1.21128
1.12713
1.1274
1.12774
1.1281
1.12847
1.12886
1.12931
1.12977
1.13023
1.13081
1.13159
1.13257
1.13376
1.13518
1.13673
1.13807
1.13905
1.13973
1.14026
1.14083
1.14153
1.142
1.1425
1.14283
1.14292
1.14281
1.14259
1.14228
1.14195
1.14164
1.14135
1.14105
1.14076
1.14045
1.14006
1.20232
1.2022
1.20201
1.20182
1.20161
1.20138
1.20112
1.20081
1.20046
1.20003
1.19941
1.19869
1.19789
1.19703
1.1962
1.19551
1.19502
1.19458
1.19406
1.19343
1.19282
1.1924
1.19212
1.19176
1.19132
1.1909
1.19046
1.19005
1.18968
1.18936
1.18907
1.18881
1.18858
1.18835
1.18808
1.15208
1.15221
1.15237
1.15255
1.15274
1.15295
1.15316
1.1534
1.15367
1.15394
1.15433
1.15478
1.15536
1.15595
1.15643
1.15666
1.15671
1.15664
1.15641
1.156
1.15559
1.15527
1.1551
1.15512
1.15534
1.15561
1.15585
1.15603
1.15614
1.15619
1.1562
1.15618
1.15615
1.15613
1.15614
1.18665
1.18665
1.18661
1.18658
1.18655
1.18651
1.18647
1.18644
1.18642
1.1864
1.18634
1.18625
1.18609
1.18599
1.18597
1.18606
1.18615
1.18618
1.18603
1.18575
1.18541
1.18504
1.18474
1.18453
1.18438
1.18426
1.18415
1.18408
1.18403
1.18403
1.18406
1.18412
1.18421
1.18433
1.18453
1.16315
1.16318
1.16325
1.16332
1.16339
1.16347
1.16356
1.16366
1.16377
1.16387
1.16397
1.16408
1.16419
1.16429
1.1644
1.16445
1.16444
1.16441
1.16442
1.16445
1.16447
1.16449
1.16453
1.16461
1.16469
1.16477
1.16485
1.16493
1.16498
1.16503
1.16506
1.16507
1.16507
1.16503
1.16497
1.17965
1.17968
1.17969
1.1797
1.17971
1.17972
1.17973
1.17976
1.1798
1.17985
1.17992
1.18001
1.18012
1.18025
1.1804
1.18058
1.18074
1.18089
1.18102
1.18113
1.18123
1.18132
1.18138
1.18142
1.18143
1.18143
1.18141
1.1814
1.18138
1.18136
1.18135
1.18135
1.18137
1.18142
1.18147
1.16915
1.16917
1.1692
1.16923
1.16926
1.16931
1.16935
1.1694
1.16945
1.1695
1.16954
1.16958
1.1696
1.16961
1.16959
1.16957
1.16955
1.16952
1.16949
1.16946
1.16943
1.16941
1.16939
1.16939
1.16941
1.16944
1.16949
1.16954
1.16959
1.16964
1.1697
1.16976
1.16981
1.16987
1.16993
1.17659
1.17661
1.17662
1.17663
1.17665
1.17666
1.17668
1.1767
1.17674
1.17678
1.17684
1.17691
1.17701
1.17714
1.1773
1.17748
1.17767
1.17786
1.17804
1.17822
1.17838
1.17855
1.17869
1.17881
1.1789
1.17897
1.17902
1.17906
1.17909
1.17911
1.17912
1.17912
1.17911
1.17911
1.1791
1.17239
1.1724
1.17241
1.17243
1.17245
1.17248
1.17251
1.17254
1.17257
1.17261
1.17264
1.17267
1.1727
1.17272
1.17272
1.1727
1.17268
1.17264
1.17259
1.17253
1.17248
1.17243
1.17239
1.17236
1.17235
1.17235
1.17237
1.17239
1.17242
1.17246
1.17249
1.17253
1.17256
1.1726
1.17262
1.17553
1.17554
1.17555
1.17556
1.17558
1.17559
1.1756
1.17562
1.17564
1.17567
1.17572
1.17577
1.17584
1.17592
1.17603
1.17616
1.1763
1.17645
1.17661
1.17677
1.17692
1.17708
1.17722
1.17734
1.17742
1.17749
1.17753
1.17756
1.17757
1.17758
1.17758
1.17758
1.17758
1.17757
1.17756
1.17412
1.17413
1.17414
1.17415
1.17417
1.17419
1.17421
1.17423
1.17426
1.17429
1.17432
1.17435
1.17438
1.17441
1.17444
1.17446
1.17447
1.17447
1.17445
1.17443
1.17441
1.17438
1.17435
1.17433
1.17432
1.17432
1.17432
1.17433
1.17434
1.17435
1.17436
1.17437
1.17439
1.1744
1.1744
1.17542
1.17542
1.17543
1.17544
1.17545
1.17547
1.17548
1.1755
1.17552
1.17554
1.17557
1.17561
1.17565
1.1757
1.17577
1.17586
1.17594
1.17604
1.17614
1.17624
1.17634
1.17644
1.17653
1.17661
1.17667
1.17671
1.17675
1.17677
1.17678
1.17679
1.17679
1.17679
1.17678
1.17677
1.17676
1.17511
1.17511
1.17512
1.17513
1.17514
1.17516
1.17517
1.17519
1.17521
1.17524
1.17527
1.17529
1.17533
1.17536
1.17539
1.17542
1.17545
1.17548
1.17549
1.1755
1.1755
1.17549
1.17548
1.17547
1.17546
1.17545
1.17545
1.17545
1.17544
1.17545
1.17545
1.17545
1.17546
1.17546
1.17547
1.17568
1.17568
1.17569
1.1757
1.17571
1.17572
1.17573
1.17575
1.17576
1.17578
1.17581
1.17583
1.17586
1.1759
1.17595
1.176
1.17605
1.17611
1.17617
1.17622
1.17628
1.17633
1.17638
1.17642
1.17645
1.17647
1.17648
1.17649
1.1765
1.1765
1.1765
1.1765
1.17649
1.17649
1.17648
1.17573
1.17573
1.17574
1.17575
1.17576
1.17577
1.17578
1.1758
1.17581
1.17583
1.17585
1.17588
1.1759
1.17593
1.17596
1.17599
1.17602
1.17605
1.17607
1.17608
1.17609
1.17609
1.17609
1.17608
1.17607
1.17605
1.17604
1.17603
1.17603
1.17602
1.17602
1.17601
1.17601
1.17601
1.176
1.17603
1.17603
1.17604
1.17604
1.17605
1.17606
1.17607
1.17608
1.1761
1.17611
1.17613
1.17615
1.17617
1.1762
1.17623
1.17627
1.1763
1.17633
1.17637
1.17639
1.17642
1.17644
1.17646
1.17646
1.17647
1.17646
1.17646
1.17645
1.17645
1.17644
1.17643
1.17642
1.17641
1.1764
1.17638
1.17616
1.17616
1.17617
1.17618
1.17618
1.17619
1.1762
1.17621
1.17622
1.17624
1.17625
1.17627
1.17629
1.17631
1.17634
1.17636
1.17638
1.1764
1.17642
1.17643
1.17644
1.17644
1.17643
1.17641
1.17639
1.17637
1.17634
1.17632
1.1763
1.17629
1.17627
1.17626
1.17624
1.17623
1.17621
1.17634
1.17635
1.17635
1.17636
1.17636
1.17637
1.17638
1.17638
1.17639
1.17641
1.17642
1.17643
1.17645
1.17647
1.17649
1.17652
1.17654
1.17656
1.17658
1.17659
1.1766
1.1766
1.1766
1.17658
1.17656
1.17654
1.17651
1.17649
1.17646
1.17644
1.17642
1.1764
1.17638
1.17636
1.17633
1.17647
1.17647
1.17648
1.17648
1.17648
1.17649
1.1765
1.1765
1.17651
1.17652
1.17653
1.17654
1.17656
1.17657
1.17659
1.17661
1.17663
1.17664
1.17665
1.17666
1.17666
1.17666
1.17664
1.17662
1.17659
1.17655
1.17651
1.17647
1.17644
1.1764
1.17637
1.17635
1.17633
1.1763
1.17628
1.17659
1.17659
1.1766
1.1766
1.1766
1.17661
1.17661
1.17662
1.17662
1.17663
1.17664
1.17665
1.17666
1.17668
1.17669
1.17671
1.17672
1.17673
1.17675
1.17675
1.17676
1.17676
1.17674
1.17672
1.17669
1.17666
1.17661
1.17657
1.17653
1.1765
1.17647
1.17644
1.17642
1.17641
1.17641
1.17668
1.17669
1.17669
1.17669
1.17669
1.1767
1.1767
1.17671
1.17671
1.17672
1.17672
1.17673
1.17674
1.17675
1.17676
1.17678
1.17679
1.1768
1.17681
1.17681
1.17681
1.17681
1.1768
1.17678
1.17676
1.17672
1.17669
1.17666
1.17662
1.1766
1.17658
1.17657
1.17658
1.17661
1.17665
1.17676
1.17677
1.17677
1.17677
1.17677
1.17677
1.17678
1.17678
1.17678
1.17679
1.17679
1.1768
1.17681
1.17681
1.17682
1.17683
1.17684
1.17685
1.17686
1.17686
1.17687
1.17686
1.17686
1.17685
1.17683
1.17681
1.17679
1.17677
1.17676
1.17675
1.17675
1.17675
1.17677
1.17679
1.17683
1.17683
1.17683
1.17683
1.17683
1.17683
1.17683
1.17683
1.17684
1.17684
1.17684
1.17685
1.17685
1.17686
1.17686
1.17687
1.17687
1.17688
1.17689
1.17689
1.17689
1.1769
1.17689
1.17689
1.17688
1.17687
1.17686
1.17685
1.17684
1.17684
1.17684
1.17684
1.17684
1.17685
1.17687
1.17689
1.17687
1.17687
1.17687
1.17687
1.17687
1.17688
1.17688
1.17688
1.17688
1.17688
1.17688
1.17689
1.17689
1.17689
1.1769
1.1769
1.17691
1.17691
1.17691
1.17692
1.17692
1.17692
1.17691
1.17691
1.17691
1.1769
1.1769
1.17689
1.17689
1.17689
1.17689
1.17689
1.1769
1.17691
1.17691
1.1769
1.1769
1.1769
1.1769
1.1769
1.1769
1.17691
1.17691
1.17691
1.17691
1.17691
1.17691
1.17691
1.17692
1.17692
1.17692
1.17692
1.17693
1.17693
1.17693
1.17693
1.17693
1.17693
1.17692
1.17692
1.17692
1.17692
1.17691
1.17691
1.17691
1.17691
1.17692
1.17692
1.17692
1.17692
1.17696
1.17696
1.17696
1.17695
1.17695
1.17695
1.17695
1.17695
1.17695
1.17696
1.17696
1.17696
1.17696
1.17696
1.17696
1.17696
1.17696
1.17696
1.17696
1.17695
1.17695
1.17695
1.17695
1.17695
1.17694
1.17694
1.17694
1.17694
1.17694
1.17694
1.17694
1.17694
1.17694
1.17694
1.17694
1.17696
1.17696
1.17696
1.17696
1.17696
1.17696
1.17696
1.17696
1.17696
1.17696
1.17696
1.17696
1.17696
1.17696
1.17696
1.17696
1.17696
1.17696
1.17696
1.17696
1.17696
1.17696
1.17696
1.17695
1.17695
1.17695
1.17695
1.17695
1.17695
1.17695
1.17695
1.17695
1.17695
1.17695
1.17695
1.17697
1.17697
1.17697
1.17697
1.17697
1.17697
1.17697
1.17697
1.17697
1.17697
1.17697
1.17697
1.17697
1.17697
1.17697
1.17697
1.17697
1.17697
1.17697
1.17696
1.17696
1.17696
1.17696
1.17696
1.17696
1.17696
1.17696
1.17696