/*--------------------------------*- C++ -*----------------------------------*\
  =========                 |
  \\      /  F ield         | OpenFOAM: The Open Source CFD Toolbox
   \\    /   O peration     | Website:  https://openfoam.org
    \\  /    A nd           | Version:  8
     \\/     M anipulation  |
\*---------------------------------------------------------------------------*/
FoamFile
{
    version     2.0;
    format      ascii;
    class       volVectorField;
    location    "0.05";
    object      U;
}
// * * * * * * * * * * * * * * * * * * * * * * * * * * * * * * * * * * * * * //

dimensions      [0 1 -1 0 0 0 0];

internalField   nonuniform List<vector> 
15677
(
(-0.12126 -152.119 0)
(-0.0686535 -149.629 0)
(0.0214599 -142.253 0)
(0.193807 -135.303 0)
(0.453611 -128.53 0)
(0.789549 -121.737 0)
(1.23304 -114.81 0)
(1.82951 -107.708 0)
(2.69422 -100.528 0)
(4.06464 -93.7147 0)
(5.95435 -88.018 0)
(8.04334 -83.2467 0)
(9.88267 -80.3314 0)
(11.1134 -80.315 0)
(11.448 -81.7943 0)
(11.3506 -82.9797 0)
(11.0692 -83.9661 0)
(10.6464 -85.7045 0)
(10.1875 -88.6329 0)
(9.7173 -92.691 0)
(9.34521 -96.5643 0)
(9.09719 -98.3031 0)
(8.88972 -98.6188 0)
(8.72295 -98.0989 0)
(8.59204 -97.0584 0)
(8.49767 -95.6567 0)
(8.43317 -94.0535 0)
(8.39496 -92.3943 0)
(8.38146 -90.7834 0)
(8.3921 -89.2921 0)
(8.42746 -87.9649 0)
(8.48834 -86.825 0)
(8.57407 -85.8797 0)
(8.68403 -85.1248 0)
(8.82973 -84.548 0)
(-2.10709 127.51 0)
(-5.62132 121.386 0)
(-9.71223 114.262 0)
(-14.0754 107.175 0)
(-18.608 99.5591 0)
(-23.0157 91.0876 0)
(-26.9929 81.4463 0)
(-30.1028 69.9099 0)
(-31.6078 55.846 0)
(-31.5037 41.9158 0)
(-29.1875 33.3786 0)
(-25.4461 32.5776 0)
(-20.5835 38.061 0)
(-15.0886 47.6494 0)
(-10.3015 56.2453 0)
(-6.02974 61.085 0)
(-2.05458 63.9442 0)
(1.65971 66.5621 0)
(4.98288 69.573 0)
(7.85813 72.5243 0)
(10.0745 75.2856 0)
(11.7285 77.3935 0)
(13.0188 78.7012 0)
(14.1081 79.4192 0)
(15.0707 79.8069 0)
(15.9376 80.0062 0)
(16.7321 80.1393 0)
(17.4553 80.2866 0)
(18.0973 80.4722 0)
(18.6499 80.674 0)
(19.1096 80.8424 0)
(19.4774 80.917 0)
(19.7596 80.8582 0)
(19.9604 80.6662 0)
(20.0858 80.3414 0)
(-0.0756866 58.6118 0)
(0.0585322 50.1525 0)
(0.260446 41.3768 0)
(0.485366 31.3382 0)
(0.647578 19.3578 0)
(0.621159 4.87312 0)
(0.282119 -12.5195 0)
(-0.560223 -32.6863 0)
(-2.19787 -53.75 0)
(-5.05293 -72.0319 0)
(-9.44348 -84.2777 0)
(-15.2808 -88.0181 0)
(-21.0557 -84.3845 0)
(-24.9771 -78.4697 0)
(-26.1012 -75.1051 0)
(-24.8557 -73.2004 0)
(-22.4642 -71.9116 0)
(-19.6643 -70.7714 0)
(-16.6833 -69.6844 0)
(-13.6779 -68.5623 0)
(-10.8208 -67.4874 0)
(-8.36063 -66.6648 0)
(-6.4055 -66.2859 0)
(-4.93976 -66.3167 0)
(-3.91491 -66.7322 0)
(-3.26672 -67.384 0)
(-2.89133 -68.0544 0)
(-2.66625 -68.5998 0)
(-2.51179 -68.9681 0)
(-2.38042 -69.1625 0)
(-2.24714 -69.2094 0)
(-2.10405 -69.1414 0)
(-1.94993 -68.9998 0)
(-1.78075 -68.8381 0)
(-1.60206 -68.6427 0)
(1.24726 73.0992 0)
(3.01995 73.4614 0)
(4.74609 71.7202 0)
(6.4119 69.6028 0)
(7.97996 67.294 0)
(9.3159 64.9949 0)
(10.313 63.3501 0)
(10.4878 63.493 0)
(9.35676 65.9673 0)
(6.58365 70.0173 0)
(2.02006 72.7617 0)
(-3.42975 69.6832 0)
(-8.16703 58.6643 0)
(-10.6646 40.0078 0)
(-10.3697 19.5738 0)
(-8.32596 6.67902 0)
(-5.72207 1.31757 0)
(-2.94161 0.745495 0)
(-0.380379 2.79287 0)
(1.98076 6.37916 0)
(4.14229 11.3743 0)
(5.97185 17.3924 0)
(7.19802 23.6974 0)
(7.77308 29.9505 0)
(7.86697 35.9409 0)
(7.5927 41.4005 0)
(6.96859 45.9355 0)
(6.04823 49.3189 0)
(4.94711 51.8543 0)
(3.71742 53.7421 0)
(2.4241 55.1283 0)
(1.12311 56.1234 0)
(-0.146795 56.8088 0)
(-1.36942 57.2506 0)
(-2.5507 57.5081 0)
(0.159161 16.2278 0)
(0.370716 14.9671 0)
(0.760139 13.2621 0)
(1.18882 11.4166 0)
(1.64854 9.42339 0)
(2.09973 7.44467 0)
(2.50284 5.57866 0)
(2.92967 4.06367 0)
(3.52328 3.04216 0)
(4.48097 1.7903 0)
(5.91699 -1.45512 0)
(7.55186 -9.36912 0)
(9.16482 -24.0193 0)
(9.6604 -41.612 0)
(7.48147 -52.683 0)
(3.20126 -58.1128 0)
(-1.77012 -59.067 0)
(-6.35015 -57.3714 0)
(-10.1663 -55.2449 0)
(-13.317 -53.3148 0)
(-15.878 -51.3972 0)
(-17.7234 -49.233 0)
(-18.8842 -46.7918 0)
(-19.4584 -44.281 0)
(-19.6192 -41.7049 0)
(-19.3998 -38.9277 0)
(-18.9072 -35.9281 0)
(-18.2603 -32.822 0)
(-17.5614 -29.9573 0)
(-16.8227 -27.4555 0)
(-16.0866 -25.3891 0)
(-15.3783 -23.7585 0)
(-14.6988 -22.5184 0)
(-14.0482 -21.5986 0)
(-13.4302 -20.9339 0)
(0.396183 33.1417 0)
(0.948967 35.9098 0)
(1.52251 36.1077 0)
(2.09645 35.8124 0)
(2.68775 35.2758 0)
(3.32698 34.5635 0)
(4.04781 33.7568 0)
(4.90471 32.8755 0)
(5.98892 31.8684 0)
(7.46471 30.6205 0)
(9.43657 29.1256 0)
(11.7215 27.9738 0)
(13.7483 27.7639 0)
(13.9157 26.8216 0)
(13.0593 23.185 0)
(12.0082 18.4517 0)
(10.7771 13.6396 0)
(9.43815 9.29847 0)
(8.14587 6.07501 0)
(6.87541 4.63613 0)
(5.63632 5.17997 0)
(4.52719 7.20909 0)
(3.53607 10.0764 0)
(2.65194 13.289 0)
(1.82722 16.4714 0)
(1.03643 19.3778 0)
(0.290555 21.7992 0)
(-0.321343 23.6865 0)
(-0.77774 25.0994 0)
(-1.14084 26.1023 0)
(-1.43555 26.8318 0)
(-1.67913 27.3666 0)
(-1.88995 27.7635 0)
(-2.09302 28.0537 0)
(-2.29251 28.2581 0)
(0.0954992 10.0412 0)
(0.209362 10.8113 0)
(0.402731 10.6781 0)
(0.630838 10.1826 0)
(0.891107 9.3727 0)
(1.17374 8.22384 0)
(1.47845 6.65476 0)
(1.81074 4.54357 0)
(2.15804 1.70567 0)
(2.51897 -2.10716 0)
(2.87472 -7.01199 0)
(3.21078 -13.0485 0)
(3.63139 -19.8669 0)
(4.00916 -25.7962 0)
(3.68803 -29.5108 0)
(2.51476 -30.8713 0)
(0.789951 -30.1611 0)
(-1.21744 -28.4897 0)
(-3.25392 -26.8215 0)
(-5.17548 -25.4109 0)
(-6.9176 -24.1803 0)
(-8.3323 -22.9809 0)
(-9.30793 -21.7205 0)
(-9.89386 -20.3785 0)
(-10.1441 -18.9926 0)
(-10.0952 -17.5814 0)
(-9.82572 -16.1605 0)
(-9.48517 -14.7831 0)
(-9.11811 -13.52 0)
(-8.73316 -12.4137 0)
(-8.34772 -11.4775 0)
(-7.97118 -10.7003 0)
(-7.60333 -10.0624 0)
(-7.24235 -9.54204 0)
(-6.89321 -9.11859 0)
(0.505003 14.3912 0)
(1.37965 18.239 0)
(2.37384 18.9052 0)
(3.42905 18.9529 0)
(4.57633 18.7061 0)
(5.8371 18.2381 0)
(7.23274 17.5831 0)
(8.78286 16.7814 0)
(10.4745 15.9042 0)
(12.2442 15.0757 0)
(13.9237 14.5122 0)
(15.3121 14.6154 0)
(15.7372 15.7528 0)
(15.0475 16.4923 0)
(13.5619 16.5734 0)
(11.6385 15.8125 0)
(9.69928 13.7694 0)
(7.88734 10.5437 0)
(6.43081 7.19686 0)
(5.25815 4.90256 0)
(4.20855 4.01393 0)
(3.29507 4.30201 0)
(2.53663 5.25395 0)
(1.88046 6.51184 0)
(1.29416 7.83906 0)
(0.77393 9.07654 0)
(0.330089 10.1508 0)
(-0.0233138 11.0418 0)
(-0.295157 11.7501 0)
(-0.513534 12.3023 0)
(-0.689469 12.7334 0)
(-0.835561 13.0728 0)
(-0.967289 13.338 0)
(-1.09471 13.5403 0)
(-1.21835 13.6897 0)
(-0.0867764 -14.4303 0)
(-0.0237214 -12.0432 0)
(0.0262214 -10.1993 0)
(0.0822383 -9.02174 0)
(0.129797 -8.51968 0)
(0.156653 -8.6682 0)
(0.138824 -9.42651 0)
(0.0749193 -10.6748 0)
(0.0258216 -12.1152 0)
(-0.0631414 -13.2952 0)
(-0.212984 -13.7363 0)
(-0.355847 -13.5353 0)
(-0.290557 -12.6611 0)
(0.120484 -11.2113 0)
(0.655039 -10.0464 0)
(1.25445 -9.52751 0)
(1.80122 -9.4452 0)
(2.09726 -9.32897 0)
(1.83237 -9.07275 0)
(1.05896 -8.84146 0)
(0.0606507 -8.57424 0)
(-0.913108 -8.22094 0)
(-1.703 -7.83485 0)
(-2.27221 -7.40955 0)
(-2.61052 -6.92766 0)
(-2.78386 -6.3898 0)
(-2.87216 -5.82349 0)
(-2.9089 -5.27858 0)
(-2.90013 -4.77637 0)
(-2.85044 -4.32103 0)
(-2.76896 -3.91444 0)
(-2.6663 -3.55772 0)
(-2.54926 -3.25014 0)
(-2.41972 -2.98786 0)
(-2.28642 -2.76408 0)
(0.144841 10.8506 0)
(0.434064 11.2056 0)
(0.819942 11.2277 0)
(1.26532 11.3361 0)
(1.75412 11.5178 0)
(2.23541 11.7143 0)
(2.66697 11.8532 0)
(2.98226 11.8428 0)
(3.10143 11.6922 0)
(2.98473 11.3228 0)
(2.68919 10.6843 0)
(2.25886 9.87006 0)
(1.74731 9.01671 0)
(1.28747 8.20423 0)
(1.00378 7.4692 0)
(0.827325 6.79158 0)
(0.656777 6.16725 0)
(0.457362 5.57017 0)
(0.258708 5.05669 0)
(0.0662874 4.79628 0)
(-0.153686 4.79679 0)
(-0.386163 4.99513 0)
(-0.604114 5.29878 0)
(-0.800555 5.64817 0)
(-0.96339 5.9963 0)
(-1.09239 6.31795 0)
(-1.1769 6.6076 0)
(-1.22827 6.87111 0)
(-1.26591 7.10759 0)
(-1.29897 7.31433 0)
(-1.33171 7.49073 0)
(-1.36549 7.6368 0)
(-1.40214 7.75324 0)
(-1.44516 7.83621 0)
(-1.48667 7.88132 0)
(-0.201761 -17.8731 0)
(-0.467494 -16.5333 0)
(-0.73868 -15.1456 0)
(-0.971993 -13.8281 0)
(-1.1611 -12.5482 0)
(-1.2755 -11.3051 0)
(-1.29918 -10.0993 0)
(-1.22816 -8.91546 0)
(-1.09135 -7.84562 0)
(-0.899254 -6.95736 0)
(-0.660849 -6.25601 0)
(-0.414896 -5.68402 0)
(-0.185466 -5.23557 0)
(0.0249706 -4.93689 0)
(0.188118 -4.77813 0)
(0.273599 -4.66835 0)
(0.275059 -4.55283 0)
(0.19295 -4.41521 0)
(0.0210359 -4.24511 0)
(-0.218055 -4.0051 0)
(-0.47994 -3.69366 0)
(-0.740346 -3.34053 0)
(-0.964116 -2.96688 0)
(-1.14682 -2.59124 0)
(-1.30024 -2.23098 0)
(-1.41904 -1.89854 0)
(-1.4996 -1.59698 0)
(-1.54595 -1.32754 0)
(-1.56075 -1.08834 0)
(-1.54875 -0.872253 0)
(-1.51624 -0.677395 0)
(-1.46769 -0.503682 0)
(-1.40748 -0.348456 0)
(-1.33785 -0.209216 0)
(-1.26466 -0.0828022 0)
(-0.109097 15.4174 0)
(-0.261887 14.1434 0)
(-0.416998 12.8375 0)
(-0.559793 11.6152 0)
(-0.693509 10.4443 0)
(-0.813601 9.32763 0)
(-0.918093 8.28297 0)
(-1.00192 7.34451 0)
(-1.05782 6.54088 0)
(-1.07964 5.86069 0)
(-1.08063 5.28488 0)
(-1.06589 4.80333 0)
(-1.03577 4.39671 0)
(-1.001 4.05745 0)
(-0.99363 3.8125 0)
(-1.0225 3.64929 0)
(-1.08318 3.5477 0)
(-1.16895 3.49995 0)
(-1.27 3.49988 0)
(-1.37503 3.54508 0)
(-1.46585 3.63128 0)
(-1.51879 3.74762 0)
(-1.52842 3.88551 0)
(-1.51279 4.04058 0)
(-1.48423 4.19818 0)
(-1.44883 4.34437 0)
(-1.41517 4.47593 0)
(-1.38667 4.59541 0)
(-1.36583 4.70311 0)
(-1.35407 4.79483 0)
(-1.35014 4.86449 0)
(-1.35226 4.91419 0)
(-1.35906 4.94914 0)
(-1.37239 4.97411 0)
(-1.38957 4.99085 0)
(0.0334043 -8.38216 0)
(0.091208 -8.42015 0)
(0.141893 -8.1151 0)
(0.185433 -7.70501 0)
(0.220883 -7.22274 0)
(0.245456 -6.68352 0)
(0.260261 -6.10518 0)
(0.266696 -5.51104 0)
(0.262039 -4.92886 0)
(0.244391 -4.37955 0)
(0.215511 -3.87838 0)
(0.176142 -3.43798 0)
(0.122158 -3.06237 0)
(0.0414613 -2.73898 0)
(-0.0585276 -2.47488 0)
(-0.166984 -2.24955 0)
(-0.283654 -2.03186 0)
(-0.40828 -1.81032 0)
(-0.544873 -1.5808 0)
(-0.692006 -1.33784 0)
(-0.846993 -1.07555 0)
(-0.996627 -0.806017 0)
(-1.12481 -0.554014 0)
(-1.22652 -0.323162 0)
(-1.29982 -0.116335 0)
(-1.34693 0.0669456 0)
(-1.37109 0.229168 0)
(-1.37586 0.379537 0)
(-1.36386 0.519507 0)
(-1.33776 0.643785 0)
(-1.30241 0.752774 0)
(-1.26093 0.850963 0)
(-1.21515 0.942188 0)
(-1.16659 1.02781 0)
(-1.1167 1.11 0)
(-0.0492399 9.75096 0)
(-0.146601 9.25039 0)
(-0.265071 8.5905 0)
(-0.391141 7.92561 0)
(-0.525916 7.25146 0)
(-0.662311 6.5732 0)
(-0.795939 5.90258 0)
(-0.92324 5.25586 0)
(-1.04004 4.65218 0)
(-1.14281 4.10936 0)
(-1.22977 3.64068 0)
(-1.30083 3.25207 0)
(-1.35792 2.94287 0)
(-1.40025 2.71045 0)
(-1.43177 2.56225 0)
(-1.45826 2.47477 0)
(-1.47775 2.42901 0)
(-1.49089 2.41494 0)
(-1.49595 2.42538 0)
(-1.48926 2.4625 0)
(-1.46909 2.53181 0)
(-1.43667 2.62275 0)
(-1.39835 2.71846 0)
(-1.35855 2.8149 0)
(-1.31988 2.90797 0)
(-1.2844 2.99427 0)
(-1.25382 3.07228 0)
(-1.22893 3.14114 0)
(-1.20911 3.20031 0)
(-1.19411 3.25001 0)
(-1.18387 3.28999 0)
(-1.17783 3.32003 0)
(-1.17501 3.34232 0)
(-1.17619 3.3614 0)
(-1.17979 3.37589 0)
(0.0266359 -2.73887 0)
(0.0711296 -2.93666 0)
(0.121824 -2.95661 0)
(0.170544 -2.91341 0)
(0.215112 -2.8265 0)
(0.250735 -2.70275 0)
(0.273202 -2.54445 0)
(0.277992 -2.3553 0)
(0.261006 -2.14485 0)
(0.21982 -1.92486 0)
(0.15488 -1.70489 0)
(0.0682673 -1.491 0)
(-0.0398888 -1.27741 0)
(-0.168626 -1.05458 0)
(-0.300003 -0.840974 0)
(-0.42263 -0.644949 0)
(-0.540261 -0.455839 0)
(-0.651781 -0.270114 0)
(-0.757041 -0.0853688 0)
(-0.857005 0.101135 0)
(-0.951552 0.290579 0)
(-1.03114 0.470187 0)
(-1.09131 0.630983 0)
(-1.13367 0.772637 0)
(-1.15796 0.892902 0)
(-1.16708 0.995613 0)
(-1.16452 1.08634 0)
(-1.15234 1.16687 0)
(-1.13264 1.23895 0)
(-1.10737 1.3042 0)
(-1.07827 1.36405 0)
(-1.04695 1.41968 0)
(-1.01437 1.47212 0)
(-0.980915 1.52212 0)
(-0.946382 1.57364 0)
(0.0102036 6.01505 0)
(-0.00899059 5.78908 0)
(-0.0458153 5.43846 0)
(-0.102048 5.07448 0)
(-0.175171 4.70268 0)
(-0.262388 4.32857 0)
(-0.361112 3.95898 0)
(-0.467581 3.60119 0)
(-0.577288 3.26161 0)
(-0.685739 2.9444 0)
(-0.787781 2.65342 0)
(-0.88169 2.39465 0)
(-0.965678 2.17555 0)
(-1.03544 2.00052 0)
(-1.088 1.88411 0)
(-1.12695 1.81442 0)
(-1.15315 1.7773 0)
(-1.16968 1.7657 0)
(-1.17577 1.77812 0)
(-1.17079 1.81553 0)
(-1.15575 1.87366 0)
(-1.13304 1.94524 0)
(-1.10701 2.02238 0)
(-1.07883 2.09188 0)
(-1.05004 2.1529 0)
(-1.02285 2.21053 0)
(-0.998668 2.26357 0)
(-0.977756 2.31105 0)
(-0.960295 2.35238 0)
(-0.946157 2.38731 0)
(-0.934983 2.41581 0)
(-0.926262 2.43807 0)
(-0.919671 2.4544 0)
(-0.915504 2.46521 0)
(-0.912279 2.47304 0)
(0.0129973 -0.842366 0)
(0.0367192 -0.592892 0)
(0.0657 -0.436995 0)
(0.0930464 -0.317145 0)
(0.116558 -0.217334 0)
(0.13255 -0.13341 0)
(0.138022 -0.0626316 0)
(0.129432 -0.00275606 0)
(0.104332 0.0464172 0)
(0.061341 0.0861223 0)
(-0.00123893 0.121611 0)
(-0.0838641 0.159869 0)
(-0.185188 0.208002 0)
(-0.303425 0.273481 0)
(-0.418448 0.353392 0)
(-0.518425 0.439492 0)
(-0.607383 0.531352 0)
(-0.684686 0.627003 0)
(-0.751466 0.729069 0)
(-0.809026 0.839508 0)
(-0.859443 0.954552 0)
(-0.899329 1.06713 0)
(-0.922817 1.16143 0)
(-0.932526 1.23729 0)
(-0.933062 1.30312 0)
(-0.926476 1.36104 0)
(-0.914496 1.41258 0)
(-0.898296 1.4588 0)
(-0.879026 1.50061 0)
(-0.85771 1.53882 0)
(-0.835246 1.57415 0)
(-0.812443 1.60721 0)
(-0.789866 1.63853 0)
(-0.767476 1.66854 0)
(-0.744375 1.6976 0)
(-0.021679 4.07674 0)
(-0.0631531 3.92115 0)
(-0.10627 3.72499 0)
(-0.153411 3.52784 0)
(-0.203884 3.32812 0)
(-0.256959 3.12613 0)
(-0.312302 2.92315 0)
(-0.369152 2.72093 0)
(-0.426664 2.52099 0)
(-0.484143 2.32633 0)
(-0.541213 2.14078 0)
(-0.597433 1.96841 0)
(-0.652496 1.81437 0)
(-0.704398 1.68419 0)
(-0.750434 1.59172 0)
(-0.789323 1.53238 0)
(-0.820425 1.49787 0)
(-0.845014 1.48396 0)
(-0.863081 1.49238 0)
(-0.872899 1.52521 0)
(-0.874285 1.57874 0)
(-0.866573 1.63243 0)
(-0.851255 1.67656 0)
(-0.832986 1.71938 0)
(-0.814318 1.7612 0)
(-0.79593 1.80077 0)
(-0.778416 1.83723 0)
(-0.762216 1.87011 0)
(-0.747547 1.89919 0)
(-0.734472 1.9244 0)
(-0.72292 1.94579 0)
(-0.712731 1.96345 0)
(-0.703893 1.97754 0)
(-0.696548 1.98823 0)
(-0.688955 1.99575 0)
(0.00954561 1.0523 0)
(0.0170465 1.15515 0)
(0.0246067 1.19273 0)
(0.0292086 1.21568 0)
(0.0297026 1.23003 0)
(0.0247564 1.23548 0)
(0.0125848 1.23099 0)
(-0.00846994 1.21515 0)
(-0.0396146 1.18808 0)
(-0.08205 1.15218 0)
(-0.136065 1.11205 0)
(-0.201141 1.07312 0)
(-0.276421 1.04111 0)
(-0.359413 1.02239 0)
(-0.436697 1.02159 0)
(-0.50289 1.03411 0)
(-0.560943 1.05708 0)
(-0.610857 1.09047 0)
(-0.654803 1.13599 0)
(-0.692662 1.1938 0)
(-0.719572 1.25409 0)
(-0.732846 1.30807 0)
(-0.737965 1.35577 0)
(-0.737205 1.39816 0)
(-0.732057 1.43604 0)
(-0.723052 1.46973 0)
(-0.711126 1.49983 0)
(-0.697197 1.52689 0)
(-0.681891 1.5514 0)
(-0.665769 1.57384 0)
(-0.649329 1.5946 0)
(-0.633021 1.61401 0)
(-0.617139 1.63228 0)
(-0.601642 1.64962 0)
(-0.585555 1.66628 0)
(-0.0108723 3.11915 0)
(-0.0393213 3.12192 0)
(-0.069903 3.02692 0)
(-0.104533 2.91781 0)
(-0.14184 2.80098 0)
(-0.180532 2.67744 0)
(-0.219959 2.54744 0)
(-0.259537 2.41198 0)
(-0.298744 2.27241 0)
(-0.337992 2.13073 0)
(-0.377592 1.98893 0)
(-0.417417 1.85092 0)
(-0.457422 1.72179 0)
(-0.4981 1.60751 0)
(-0.533958 1.52359 0)
(-0.566487 1.46898 0)
(-0.596023 1.43578 0)
(-0.623623 1.42244 0)
(-0.646347 1.4298 0)
(-0.661645 1.44834 0)
(-0.667164 1.47073 0)
(-0.665611 1.49861 0)
(-0.660065 1.52765 0)
(-0.651374 1.55581 0)
(-0.640729 1.58221 0)
(-0.628996 1.60658 0)
(-0.616963 1.6289 0)
(-0.605006 1.64905 0)
(-0.59345 1.66696 0)
(-0.582484 1.68265 0)
(-0.572272 1.69612 0)
(-0.562718 1.70741 0)
(-0.553881 1.71671 0)
(-0.545858 1.72417 0)
(-0.537476 1.72994 0)
(0.00173743 1.99526 0)
(0.000212438 2.08738 0)
(-0.00186356 2.09175 0)
(-0.00730361 2.07016 0)
(-0.0157316 2.03317 0)
(-0.0279924 1.98469 0)
(-0.0450052 1.9261 0)
(-0.0673538 1.8585 0)
(-0.0953865 1.78324 0)
(-0.129413 1.70212 0)
(-0.169092 1.61835 0)
(-0.214534 1.53598 0)
(-0.265087 1.45936 0)
(-0.320487 1.39333 0)
(-0.373049 1.34871 0)
(-0.41956 1.32579 0)
(-0.461936 1.3184 0)
(-0.499503 1.32111 0)
(-0.529963 1.33224 0)
(-0.552422 1.3502 0)
(-0.568653 1.37351 0)
(-0.577961 1.39924 0)
(-0.581369 1.42375 0)
(-0.580059 1.44614 0)
(-0.575437 1.46642 0)
(-0.568467 1.48463 0)
(-0.559654 1.50094 0)
(-0.549535 1.51562 0)
(-0.53866 1.52892 0)
(-0.527369 1.54099 0)
(-0.515925 1.55194 0)
(-0.504595 1.56194 0)
(-0.493692 1.57121 0)
(-0.483218 1.57996 0)
(-0.472207 1.58834 0)
(-0.00516129 2.80274 0)
(-0.0157062 2.86467 0)
(-0.0330459 2.81821 0)
(-0.0506573 2.7487 0)
(-0.071319 2.66768 0)
(-0.0934898 2.57648 0)
(-0.117354 2.47538 0)
(-0.142592 2.36469 0)
(-0.169095 2.24564 0)
(-0.196945 2.12039 0)
(-0.226386 1.99234 0)
(-0.257714 1.86586 0)
(-0.291286 1.74622 0)
(-0.327658 1.63924 0)
(-0.363466 1.55954 0)
(-0.396618 1.50742 0)
(-0.426044 1.47394 0)
(-0.452321 1.45414 0)
(-0.476569 1.44633 0)
(-0.496029 1.44721 0)
(-0.509628 1.45456 0)
(-0.516268 1.46694 0)
(-0.51795 1.48092 0)
(-0.515897 1.49493 0)
(-0.511252 1.50833 0)
(-0.504887 1.52067 0)
(-0.497498 1.53185 0)
(-0.489557 1.54183 0)
(-0.481441 1.55056 0)
(-0.473284 1.55805 0)
(-0.465255 1.5644 0)
(-0.457541 1.5698 0)
(-0.4503 1.57439 0)
(-0.443488 1.57829 0)
(-0.436259 1.58155 0)
(0.00674633 2.361 0)
(0.0135726 2.48902 0)
(0.018608 2.49122 0)
(0.0181831 2.45892 0)
(0.0141381 2.40815 0)
(0.00603353 2.34289 0)
(-0.00594483 2.26562 0)
(-0.021841 2.17834 0)
(-0.0417661 2.08299 0)
(-0.0658765 1.9819 0)
(-0.0944057 1.87835 0)
(-0.12771 1.77631 0)
(-0.166103 1.68015 0)
(-0.209783 1.5946 0)
(-0.253818 1.5311 0)
(-0.293954 1.4891 0)
(-0.330529 1.46291 0)
(-0.364198 1.44925 0)
(-0.393738 1.44331 0)
(-0.41826 1.4415 0)
(-0.43781 1.44304 0)
(-0.450613 1.44839 0)
(-0.457323 1.45601 0)
(-0.459887 1.46397 0)
(-0.459075 1.47175 0)
(-0.456035 1.47897 0)
(-0.451313 1.48535 0)
(-0.445333 1.49099 0)
(-0.438618 1.49594 0)
(-0.431496 1.50027 0)
(-0.424263 1.50418 0)
(-0.417179 1.50787 0)
(-0.410391 1.51145 0)
(-0.403862 1.51496 0)
(-0.396825 1.51841 0)
(0.0154451 2.53405 0)
(0.0276345 2.66348 0)
(0.039284 2.68978 0)
(0.0425283 2.6734 0)
(0.0425674 2.62994 0)
(0.037332 2.56581 0)
(0.0280721 2.48469 0)
(0.0147453 2.38912 0)
(-0.00230302 2.28201 0)
(-0.0230907 2.16677 0)
(-0.0479183 2.04771 0)
(-0.0773385 1.92966 0)
(-0.111995 1.81762 0)
(-0.152441 1.71664 0)
(-0.194525 1.63923 0)
(-0.234059 1.58488 0)
(-0.271335 1.54725 0)
(-0.304722 1.52198 0)
(-0.333526 1.505 0)
(-0.357863 1.49375 0)
(-0.377859 1.48675 0)
(-0.393 1.48383 0)
(-0.402494 1.48409 0)
(-0.407847 1.48584 0)
(-0.410043 1.48817 0)
(-0.409634 1.49054 0)
(-0.407407 1.49258 0)
(-0.404121 1.49433 0)
(-0.400026 1.49598 0)
(-0.395512 1.49758 0)
(-0.390885 1.49911 0)
(-0.386288 1.50052 0)
(-0.381796 1.50175 0)
(-0.377443 1.50276 0)
(-0.372584 1.50351 0)
(0.0294365 2.12112 0)
(0.0594118 2.38526 0)
(0.0871363 2.47813 0)
(0.105117 2.50444 0)
(0.119975 2.49696 0)
(0.128603 2.4617 0)
(0.131387 2.40348 0)
(0.127185 2.32704 0)
(0.116468 2.23667 0)
(0.0986217 2.13708 0)
(0.0736223 2.03318 0)
(0.0410277 1.92955 0)
(0.000536157 1.83054 0)
(-0.0477777 1.74038 0)
(-0.0979014 1.66974 0)
(-0.144727 1.61844 0)
(-0.188404 1.58062 0)
(-0.22779 1.55282 0)
(-0.262514 1.53229 0)
(-0.292608 1.51699 0)
(-0.318181 1.50564 0)
(-0.338392 1.49776 0)
(-0.352714 1.49274 0)
(-0.362393 1.4895 0)
(-0.368485 1.48684 0)
(-0.371537 1.48442 0)
(-0.372368 1.48234 0)
(-0.371724 1.48055 0)
(-0.369945 1.47908 0)
(-0.367299 1.478 0)
(-0.364097 1.47727 0)
(-0.360603 1.47676 0)
(-0.35698 1.47634 0)
(-0.353314 1.47596 0)
(-0.34903 1.4756 0)
(0.0261203 1.86843 0)
(0.0652226 2.24296 0)
(0.0995165 2.40246 0)
(0.12808 2.47624 0)
(0.150615 2.49643 0)
(0.167834 2.48835 0)
(0.179884 2.45642 0)
(0.185749 2.39876 0)
(0.183945 2.32152 0)
(0.173184 2.22976 0)
(0.152219 2.12875 0)
(0.120557 2.02508 0)
(0.0792974 1.92336 0)
(0.028938 1.82812 0)
(-0.0239622 1.75118 0)
(-0.0737148 1.69295 0)
(-0.120551 1.64777 0)
(-0.163557 1.61258 0)
(-0.202385 1.58491 0)
(-0.236888 1.56286 0)
(-0.26702 1.54505 0)
(-0.291579 1.53109 0)
(-0.310081 1.5205 0)
(-0.323482 1.51211 0)
(-0.332767 1.50482 0)
(-0.338911 1.49827 0)
(-0.342706 1.49248 0)
(-0.344657 1.48733 0)
(-0.345261 1.48274 0)
(-0.344805 1.47871 0)
(-0.343566 1.47525 0)
(-0.341751 1.47224 0)
(-0.339578 1.46955 0)
(-0.337202 1.46707 0)
(-0.334232 1.46469 0)
(0.0165444 1.5329 0)
(0.0485431 1.9641 0)
(0.082743 2.17057 0)
(0.117084 2.29509 0)
(0.148416 2.36292 0)
(0.175513 2.38403 0)
(0.199507 2.37256 0)
(0.218914 2.33948 0)
(0.230943 2.28742 0)
(0.233573 2.2211 0)
(0.222618 2.14429 0)
(0.197863 2.05803 0)
(0.159661 1.96745 0)
(0.108152 1.87951 0)
(0.0521583 1.80525 0)
(-0.0014326 1.74676 0)
(-0.0526424 1.69942 0)
(-0.100437 1.66091 0)
(-0.144394 1.62926 0)
(-0.184218 1.60281 0)
(-0.219761 1.58028 0)
(-0.249483 1.56142 0)
(-0.272654 1.54593 0)
(-0.290205 1.53275 0)
(-0.303236 1.52107 0)
(-0.312739 1.5106 0)
(-0.319457 1.5012 0)
(-0.323973 1.49275 0)
(-0.326777 1.48512 0)
(-0.328258 1.47825 0)
(-0.32871 1.47208 0)
(-0.328393 1.46651 0)
(-0.32754 1.46167 0)
(-0.326246 1.45754 0)
(-0.324291 1.45389 0)
(0.00597479 1.43982 0)
(0.0234344 1.84838 0)
(0.046516 2.04803 0)
(0.0750013 2.17837 0)
(0.106401 2.2635 0)
(0.138402 2.30909 0)
(0.167918 2.32121 0)
(0.194013 2.30962 0)
(0.214899 2.28008 0)
(0.227533 2.23639 0)
(0.229705 2.1791 0)
(0.219464 2.10875 0)
(0.192597 2.03049 0)
(0.150249 1.94815 0)
(0.099281 1.87406 0)
(0.0479665 1.81309 0)
(-0.00309947 1.76203 0)
(-0.0523552 1.71916 0)
(-0.099018 1.68281 0)
(-0.142425 1.65148 0)
(-0.18216 1.62389 0)
(-0.216265 1.60001 0)
(-0.243636 1.5797 0)
(-0.265137 1.56202 0)
(-0.281837 1.54624 0)
(-0.29466 1.53199 0)
(-0.304345 1.5191 0)
(-0.31151 1.50741 0)
(-0.316672 1.49682 0)
(-0.32028 1.48723 0)
(-0.322636 1.47857 0)
(-0.323961 1.47085 0)
(-0.324556 1.4638 0)
(-0.324557 1.4572 0)
(-0.323971 1.4511 0)
(0.00192164 1.36711 0)
(0.00977576 1.75583 0)
(0.0228451 1.93789 0)
(0.0419888 2.05946 0)
(0.0659873 2.14549 0)
(0.093723 2.20182 0)
(0.122121 2.23089 0)
(0.149279 2.23747 0)
(0.173603 2.2269 0)
(0.192999 2.20275 0)
(0.205337 2.1657 0)
(0.205932 2.11637 0)
(0.192783 2.05658 0)
(0.163586 1.98803 0)
(0.122558 1.92194 0)
(0.0773876 1.86446 0)
(0.0295477 1.81433 0)
(-0.0188293 1.77067 0)
(-0.0664763 1.73235 0)
(-0.112275 1.69817 0)
(-0.15546 1.66706 0)
(-0.193591 1.63924 0)
(-0.225054 1.61493 0)
(-0.250521 1.59331 0)
(-0.270937 1.57377 0)
(-0.287155 1.55598 0)
(-0.299896 1.53974 0)
(-0.309776 1.52494 0)
(-0.317343 1.51149 0)
(-0.322993 1.49931 0)
(-0.327177 1.48789 0)
(-0.330127 1.47742 0)
(-0.332077 1.46822 0)
(-0.333195 1.45992 0)
(-0.334206 1.45245 0)
(0.000167901 1.36981 0)
(0.0025536 1.73891 0)
(0.00825937 1.9015 0)
(0.0185732 2.008 0)
(0.0334013 2.08517 0)
(0.0525262 2.14027 0)
(0.0742167 2.17516 0)
(0.0966673 2.19141 0)
(0.118218 2.19209 0)
(0.137391 2.18023 0)
(0.152393 2.15739 0)
(0.160064 2.1231 0)
(0.157566 2.07714 0)
(0.141578 2.02085 0)
(0.112899 1.96337 0)
(0.0771211 1.91101 0)
(0.0359734 1.86356 0)
(-0.00828696 1.82078 0)
(-0.0540934 1.78198 0)
(-0.100007 1.74623 0)
(-0.144936 1.71266 0)
(-0.185976 1.68177 0)
(-0.220882 1.65415 0)
(-0.249953 1.62916 0)
(-0.273913 1.60629 0)
(-0.293468 1.58524 0)
(-0.309275 1.56586 0)
(-0.321917 1.54804 0)
(-0.331918 1.53168 0)
(-0.33971 1.51672 0)
(-0.345705 1.50301 0)
(-0.35035 1.49042 0)
(-0.353856 1.479 0)
(-0.356153 1.46865 0)
(-0.358882 1.45933 0)
(9.07838 -83.9641 0)
(9.02434 -83.3719 0)
(8.88948 -82.8798 0)
(8.74378 -82.4968 -3.04191e-17)
(8.57427 -82.2298 0)
(8.373 -82.085 0)
(8.14078 -82.0608 0)
(7.87598 -82.1297 0)
(7.57633 -82.2615 3.07487e-17)
(7.24052 -82.4358 0)
(6.86036 -82.6235 0)
(6.43336 -82.7864 -3.08343e-17)
(5.98903 -82.8928 0)
(5.55807 -82.9499 -3.17678e-17)
(5.14258 -82.9776 0)
(4.73949 -82.9981 0)
(4.34816 -83.0332 0)
(3.96956 -83.0977 3.30277e-17)
(3.60491 -83.203 0)
(3.26175 -83.3599 1.67183e-17)
(2.96575 -83.5804 0)
(2.67718 -83.8701 0)
(20.2622 79.7621 0)
(20.9372 79.1215 0)
(21.7143 78.5609 0)
(22.4591 78.0864 4.14894e-17)
(23.1502 77.6985 0)
(23.7571 77.3921 0)
(24.2349 77.154 -8.10487e-17)
(24.5174 76.9645 0)
(24.5591 76.8216 -1.24185e-16)
(24.3597 76.7503 8.20734e-17)
(23.9236 76.7721 8.22314e-17)
(23.2545 76.8959 4.27934e-17)
(22.3479 77.1254 0)
(21.2171 77.4333 4.37337e-17)
(19.8938 77.8013 0)
(18.4235 78.2196 0)
(16.8277 78.6651 0)
(15.1348 79.1109 -1.31901e-16)
(13.3704 79.5426 0)
(11.547 79.942 -2.28961e-17)
(9.6608 80.281 0)
(7.79901 80.5159 -4.60565e-17)
(-1.39245 -68.2624 0)
(-1.30381 -67.3525 0)
(-1.29934 -65.8914 0)
(-1.30822 -63.8291 0)
(-1.3169 -61.1615 0)
(-1.32002 -57.9685 6.3065e-17)
(-1.30189 -54.3759 6.12173e-17)
(-1.23279 -50.474 0)
(-1.10702 -46.4063 6.19424e-17)
(-0.943586 -42.2946 -6.23361e-17)
(-0.790738 -38.2404 -6.26264e-17)
(-0.689029 -34.3562 0)
(-0.618043 -30.8067 0)
(-0.554325 -27.6931 0)
(-0.495472 -25.0157 6.78043e-17)
(-0.442558 -22.758 0)
(-0.39318 -20.8946 0)
(-0.346229 -19.4002 6.64851e-17)
(-0.29991 -18.2478 0)
(-0.249051 -17.4082 0)
(-0.183565 -16.8512 0)
(-0.140469 -16.5428 3.49328e-17)
(-3.89954 57.7429 0)
(-5.30197 57.951 0)
(-6.71894 57.9008 0)
(-8.08328 57.5672 -7.69472e-17)
(-9.37407 56.9199 0)
(-10.5567 56.0241 7.56021e-17)
(-11.5385 55.0488 0)
(-12.3104 54.0659 0)
(-12.8356 53.1209 0)
(-13.0942 52.2461 0)
(-13.0299 51.4978 -1.60296e-16)
(-12.6212 51.0199 0)
(-11.9749 50.8576 0)
(-11.1917 50.9311 0)
(-10.3228 51.1669 8.06483e-17)
(-9.41623 51.5112 1.68418e-16)
(-8.50397 51.9175 0)
(-7.61003 52.3469 0)
(-6.7534 52.7671 0)
(-5.95159 53.1511 0)
(-5.21227 53.4758 8.66024e-17)
(-4.47159 53.7179 0)
(-12.7567 -20.2929 -1.31389e-16)
(-12.052 -19.6851 0)
(-11.3818 -19.2159 -1.42529e-16)
(-10.723 -18.8567 7.01257e-17)
(-10.0976 -18.5903 0)
(-9.51182 -18.4409 -1.42812e-16)
(-8.99862 -18.4663 -1.47755e-16)
(-8.55176 -18.5787 -1.48971e-16)
(-8.14652 -18.6097 0)
(-7.80204 -18.4798 0)
(-7.51369 -18.1096 1.48249e-16)
(-7.26522 -17.441 0)
(-7.01782 -16.4876 0)
(-6.73761 -15.3344 0)
(-6.41261 -14.0627 -3.111e-16)
(-6.03966 -12.7474 -1.54778e-16)
(-5.61874 -11.4532 0)
(-5.15199 -10.2331 -1.60457e-16)
(-4.64234 -9.12862 0)
(-4.09176 -8.17065 1.61826e-16)
(-3.5086 -7.38061 -7.92472e-17)
(-2.94374 -6.77175 0)
(-2.489 28.4423 1.65118e-16)
(-2.66923 28.565 -1.74005e-16)
(-2.79786 28.6168 3.52322e-16)
(-2.91433 28.6145 1.75756e-16)
(-3.02137 28.567 0)
(-3.1194 28.4869 0)
(-3.21652 28.3785 1.80439e-16)
(-3.32374 28.2374 1.8105e-16)
(-3.44113 28.0713 0)
(-3.56058 27.8937 0)
(-3.66526 27.7218 0)
(-3.7408 27.5373 0)
(-3.77866 27.3306 0)
(-3.77379 27.1258 1.83251e-16)
(-3.71915 26.9409 1.86786e-16)
(-3.60995 26.796 -1.85207e-16)
(-3.44836 26.6945 0)
(-3.24015 26.6267 1.89045e-16)
(-2.99263 26.5834 0)
(-2.71604 26.5568 -2.49101e-18)
(-2.41759 26.5408 1.87347e-16)
(-2.07768 26.5312 -1.93639e-16)
(-6.53896 -8.63753 -1.67711e-16)
(-6.18805 -8.09241 1.77311e-16)
(-5.8551 -7.59765 -1.78406e-16)
(-5.52371 -7.15547 1.75642e-18)
(-5.20121 -6.76348 1.82159e-16)
(-4.88977 -6.41541 0)
(-4.59141 -6.10371 0)
(-4.30729 -5.81872 0)
(-4.03915 -5.54833 0)
(-3.78988 -5.27887 3.7166e-16)
(-3.55817 -4.99685 0)
(-3.34322 -4.71958 0)
(-3.14383 -4.48338 0)
(-2.94511 -4.27787 -1.88387e-16)
(-2.74209 -4.07477 0)
(-2.53505 -3.87047 3.83632e-16)
(-2.32017 -3.67124 0)
(-2.09447 -3.48504 0)
(-1.85601 -3.32053 0)
(-1.60288 -3.18645 -1.93738e-16)
(-1.33851 -3.09118 -1.93999e-16)
(-1.09354 -3.04304 2.00561e-16)
(-1.34277 13.8297 1.95338e-16)
(-1.47046 13.9631 0)
(-1.55229 14.074 0)
(-1.60946 14.1675 -4.17591e-16)
(-1.64507 14.2427 -1.22152e-18)
(-1.65583 14.3022 -2.09402e-16)
(-1.64379 14.3371 -4.19772e-16)
(-1.61001 14.3392 0)
(-1.5516 14.3168 -4.21229e-16)
(-1.46756 14.2816 -2.44968e-18)
(-1.35415 14.2466 -4.21431e-16)
(-1.21474 14.2141 4.21509e-16)
(-1.06822 14.179 0)
(-0.930454 14.1406 0)
(-0.802919 14.0997 0)
(-0.683715 14.0585 2.1713e-16)
(-0.571501 14.0192 0)
(-0.465514 13.9844 0)
(-0.365699 13.9565 0)
(-0.272753 13.9385 0)
(-0.187307 13.931 0)
(-0.0896462 13.9366 0)
(-2.16089 -2.49106 0)
(-2.04806 -2.18058 0)
(-1.94685 -1.89953 2.18438e-16)
(-1.84355 -1.64779 -8.67444e-19)
(-1.74163 -1.42221 2.20949e-16)
(-1.64302 -1.21968 6.61354e-16)
(-1.54742 -1.0366 4.40858e-16)
(-1.4571 -0.871328 0)
(-1.37406 -0.72199 4.42495e-16)
(-1.29855 -0.584066 -4.42999e-16)
(-1.23268 -0.451421 4.42651e-16)
(-1.17031 -0.311605 1.78067e-18)
(-1.10429 -0.169603 0)
(-1.03076 -0.0400357 0)
(-0.947402 0.0754513 0)
(-0.855718 0.176328 1.83887e-18)
(-0.756234 0.261909 0)
(-0.649549 0.331525 0)
(-0.535194 0.385062 0)
(-0.412862 0.420739 0)
(-0.283939 0.43443 0)
(-0.165809 0.424176 0)
(-1.50739 7.90532 0)
(-1.50312 7.93573 2.37708e-16)
(-1.47193 7.97029 -4.77627e-16)
(-1.42981 8.00566 2.39833e-16)
(-1.37635 8.03913 -4.80868e-16)
(-1.31107 8.06865 -1.3136e-18)
(-1.23421 8.09283 -4.81396e-16)
(-1.14634 8.11116 0)
(-1.04777 8.12314 0)
(-0.93887 8.12897 0)
(-0.819627 8.12914 0)
(-0.692075 8.12502 -4.83448e-16)
(-0.566266 8.11968 0)
(-0.450163 8.11348 0)
(-0.344005 8.10626 0)
(-0.247271 8.09825 -5.03755e-16)
(-0.159727 8.0901 0)
(-0.080912 8.08288 -5.08992e-16)
(-0.0109541 8.0785 -5.11468e-16)
(0.0489539 8.07944 2.56675e-16)
(0.100783 8.08851 0)
(0.156784 8.10899 2.65796e-16)
(-1.20805 0.0838655 0)
(-1.16799 0.280803 -5.03784e-16)
(-1.13461 0.465352 2.52289e-16)
(-1.09906 0.637454 0)
(-1.06317 0.799064 0)
(-1.0275 0.951489 -5.07317e-16)
(-0.992031 1.0956 5.07859e-16)
(-0.956918 1.23201 -5.09148e-16)
(-0.922273 1.36156 5.093e-16)
(-0.888239 1.48533 0)
(-0.855248 1.60403 0)
(-0.822019 1.71731 0)
(-0.783711 1.82226 0)
(-0.737019 1.917 0)
(-0.682346 2.00186 -5.25544e-16)
(-0.620657 2.07702 0)
(-0.552645 2.14234 0)
(-0.478902 2.19726 5.3617e-16)
(-0.399857 2.24076 5.39098e-16)
(-0.31588 2.27125 -2.70773e-16)
(-0.228038 2.28653 -2.72199e-16)
(-0.144271 2.28518 -2.80877e-16)
(-1.3812 4.99876 0)
(-1.34875 5.0099 2.73283e-16)
(-1.30566 5.02307 0)
(-1.256 5.03949 5.46771e-16)
(-1.20095 5.05741 0)
(-1.13984 5.0755 0)
(-1.07259 5.0928 0)
(-0.999222 5.10869 5.47352e-16)
(-0.919803 5.12282 -5.46902e-16)
(-0.834265 5.13495 5.45636e-16)
(-0.74254 5.14505 0)
(-0.646545 5.1533 5.43638e-16)
(-0.553155 5.15978 0)
(-0.467184 5.16445 -5.56933e-16)
(-0.388234 5.16749 5.62478e-16)