/*--------------------------------*- C++ -*----------------------------------*\
  =========                 |
  \\      /  F ield         | OpenFOAM: The Open Source CFD Toolbox
   \\    /   O peration     | Website:  https://openfoam.org
    \\  /    A nd           | Version:  8
     \\/     M anipulation  |
\*---------------------------------------------------------------------------*/
FoamFile
{
    version     2.0;
    format      ascii;
    class       volScalarField;
    location    "0.2";
    object      alphat;
}
// * * * * * * * * * * * * * * * * * * * * * * * * * * * * * * * * * * * * * //

dimensions      [1 -1 -1 0 0 0 0];

internalField   nonuniform List<scalar> 
15677
(
0.00115049
0.00412218
0.0120231
0.0208153
0.0292053
0.0369134
0.0437922
0.0496995
0.0545823
0.0588152
0.063292
0.0683196
0.0738224
0.0764375
0.0768545
0.0768337
0.0768487
0.0770788
0.077449
0.0777892
0.0779446
0.0778606
0.077673
0.0774766
0.0772373
0.0769045
0.0764676
0.0759874
0.075517
0.0751001
0.0747687
0.0745413
0.0744219
0.0744035
0.074474
0.00133551
0.0116314
0.0290099
0.0462608
0.0603103
0.0707656
0.0781267
0.0823376
0.083803
0.0825051
0.0820007
0.0845883
0.0902219
0.0944743
0.0954682
0.0958227
0.0969507
0.0983136
0.0988335
0.0987835
0.098285
0.0976387
0.0970252
0.0964921
0.0960862
0.0958306
0.0957307
0.0957772
0.0959584
0.0962565
0.096649
0.0971068
0.0975805
0.0980665
0.0985695
0.00169458
0.0171675
0.0371358
0.0556916
0.0717885
0.0848796
0.094404
0.0996516
0.100144
0.0965854
0.0923292
0.0929033
0.0994859
0.108554
0.11328
0.118587
0.126091
0.133733
0.140759
0.145958
0.149802
0.152354
0.153818
0.154445
0.154575
0.15449
0.1544
0.154429
0.154603
0.154901
0.15529
0.155738
0.156225
0.156738
0.157254
0.00119812
0.00829601
0.0184238
0.028123
0.0368283
0.0442513
0.050218
0.054802
0.0591148
0.0630985
0.0683671
0.0759843
0.0844034
0.0899648
0.0886433
0.0841665
0.0806578
0.0830556
0.0904395
0.100934
0.111545
0.120706
0.128522
0.133586
0.1367
0.13837
0.139011
0.138916
0.138551
0.138344
0.138347
0.138507
0.138762
0.139055
0.13936
0.000818569
0.0070432
0.0140835
0.0207735
0.0271908
0.0334298
0.0396147
0.0459245
0.0526091
0.0598848
0.0678557
0.076176
0.0836329
0.0846303
0.0806563
0.0739221
0.0702112
0.0735434
0.0865048
0.104478
0.121342
0.131863
0.137964
0.14135
0.143603
0.145253
0.146457
0.14732
0.147912
0.148268
0.14846
0.148551
0.148576
0.148567
0.14854
0.000578474
0.00392473
0.0083341
0.0126573
0.0169346
0.0212408
0.0256341
0.0301639
0.0348406
0.0396009
0.0442843
0.048554
0.0497215
0.0501408
0.0485701
0.0473595
0.048282
0.0533562
0.0637997
0.077496
0.0918747
0.10446
0.11423
0.120825
0.12538
0.128443
0.130459
0.131742
0.132516
0.132951
0.133167
0.133242
0.133226
0.133151
0.133045
0.000445129
0.00405041
0.00832644
0.012454
0.0165356
0.0205913
0.0246468
0.0286279
0.0323366
0.0353563
0.0371425
0.0372799
0.0357765
0.0339482
0.0379983
0.0483044
0.0615
0.0756822
0.0895801
0.102501
0.113003
0.1202
0.125003
0.128451
0.131067
0.133064
0.134537
0.135512
0.136042
0.13635
0.136505
0.13657
0.136579
0.136552
0.136492
0.000242661
0.00129226
0.00288202
0.00452223
0.00616612
0.0078239
0.00949492
0.0111516
0.0127301
0.0141977
0.0149
0.0154818
0.0165631
0.0206159
0.0286848
0.0431202
0.0588464
0.0730554
0.0861972
0.0974569
0.106503
0.112909
0.117139
0.119968
0.121881
0.12319
0.124101
0.124748
0.125214
0.125553
0.125801
0.125983
0.126115
0.126206
0.126273
0.000327963
0.00269117
0.00647287
0.0104402
0.0142871
0.0179735
0.0214781
0.0248235
0.0281001
0.031398
0.0347879
0.0384673
0.0433601
0.0505637
0.0597571
0.0696466
0.0796012
0.0889729
0.0973598
0.104321
0.109818
0.113846
0.116702
0.118785
0.120332
0.121485
0.122338
0.12296
0.123407
0.123739
0.123991
0.124186
0.124338
0.124456
0.124549
0.000284128
0.00234114
0.00568508
0.00948252
0.0136251
0.0181245
0.0230154
0.028336
0.0341245
0.0403564
0.0469373
0.0537823
0.0609405
0.0685575
0.0759954
0.0828031
0.0890927
0.0947424
0.0996715
0.103849
0.107308
0.109995
0.111984
0.113466
0.114593
0.11546
0.116135
0.116666
0.117086
0.117421
0.117691
0.11791
0.118088
0.118235
0.118357
0.000316204
0.00268792
0.00649056
0.0108066
0.0155239
0.020675
0.0263117
0.0324732
0.0391632
0.0463279
0.0538375
0.0614896
0.0691368
0.0766268
0.0831934
0.0887004
0.0934837
0.097646
0.101254
0.104358
0.107012
0.109162
0.11082
0.112095
0.113079
0.113842
0.114436
0.114907
0.115286
0.115593
0.115846
0.116055
0.11623
0.116378
0.116501
0.00029323
0.00274895
0.00651012
0.0108233
0.0156326
0.0209834
0.0269216
0.0334555
0.0405337
0.0480339
0.0557529
0.0634505
0.0710079
0.0781779
0.0842234
0.0891077
0.0932149
0.0967064
0.0996975
0.102272
0.104492
0.106315
0.107748
0.108874
0.109768
0.110481
0.111056
0.111522
0.111902
0.112216
0.112475
0.112692
0.112874
0.113027
0.113157
0.000274567
0.00254362
0.0061173
0.0102673
0.0149355
0.0201599
0.0259865
0.032438
0.0394853
0.0470241
0.0548646
0.0627486
0.0704385
0.0776913
0.0837311
0.0885378
0.0925169
0.0958541
0.0986854
0.101109
0.103195
0.104916
0.106277
0.107357
0.10822
0.108915
0.109476
0.109936
0.110315
0.110631
0.110896
0.111118
0.111306
0.111466
0.111601
0.000264046
0.00264358
0.00632821
0.0106334
0.015488
0.0209062
0.0268944
0.0334261
0.0404274
0.0477722
0.0552584
0.0627026
0.0699515
0.0767771
0.082469
0.0870071
0.0907722
0.0939385
0.0966342
0.0989512
0.100955
0.102617
0.103941
0.105002
0.10586
0.10656
0.107136
0.107613
0.10801
0.108343
0.108624
0.108862
0.109064
0.109236
0.109385
0.000236892
0.00237977
0.00575407
0.00974112
0.0142922
0.0194293
0.0251714
0.0315081
0.0383808
0.0456693
0.0531936
0.0607363
0.068076
0.0750046
0.0807777
0.0853621
0.0891421
0.0922977
0.0949648
0.0972445
0.0992111
0.100845
0.102153
0.103207
0.104067
0.104774
0.105359
0.105847
0.106256
0.106602
0.106896
0.107147
0.107362
0.107547
0.107706
0.000234471
0.00248129
0.0060502
0.0103056
0.0151233
0.0204592
0.0262807
0.0325426
0.039176
0.0460752
0.0530954
0.0601393
0.0670253
0.073586
0.0791217
0.0835687
0.0872693
0.0903777
0.0930132
0.0952694
0.0972188
0.0988415
0.100145
0.101198
0.10206
0.102771
0.103365
0.103862
0.104283
0.10464
0.104944
0.105206
0.105431
0.105625
0.105793
0.000206433
0.00227659
0.00554304
0.00944459
0.0139214
0.0189691
0.024572
0.0306896
0.0372467
0.0441298
0.0511903
0.0582702
0.0651929
0.0717924
0.0773614
0.0818321
0.0855478
0.0886644
0.0913036
0.0935598
0.0955055
0.0971247
0.0984246
0.0994768
0.10034
0.101055
0.101652
0.102155
0.102581
0.102943
0.103252
0.103519
0.103749
0.103948
0.104121
0.000206014
0.00230514
0.00566894
0.00969719
0.0142677
0.019334
0.0248592
0.0307991
0.0370937
0.0436535
0.0503684
0.0571427
0.0638116
0.0702291
0.0757002
0.0801294
0.0838324
0.0869508
0.0895973
0.0918615
0.0938156
0.0954401
0.0967434
0.0977977
0.0986621
0.0993786
0.0999779
0.100483
0.100912
0.101277
0.101591
0.101861
0.102093
0.102295
0.102472
0.000187964
0.00223227
0.00541002
0.00919978
0.0135323
0.0183861
0.0237357
0.029538
0.035727
0.0422105
0.0488722
0.0555937
0.0622252
0.0686227
0.0740927
0.0785318
0.0822521
0.0853901
0.0880551
0.0903351
0.0923005
0.0939328
0.0952415
0.0962996
0.0971671
0.0978863
0.0984881
0.0989956
0.0994263
0.0997937
0.100108
0.100379
0.100614
0.100817
0.100995
0.000188974
0.00217247
0.00533165
0.00911588
0.01342
0.018205
0.0234395
0.0290843
0.0350855
0.0413652
0.0478255
0.0543744
0.0608693
0.0671749
0.0726017
0.0770302
0.080758
0.0839119
0.0865959
0.0888944
0.0908756
0.09252
0.093837
0.0949006
0.0957717
0.0964933
0.0970968
0.0976056
0.0980374
0.0984059
0.0987219
0.0989941
0.0992295
0.0994334
0.0996107
0.000178684
0.00212278
0.00515748
0.00878273
0.0129232
0.0175535
0.0226482
0.0281691
0.03406
0.0402435
0.0466202
0.0530925
0.059528
0.0657944
0.0712065
0.0756374
0.0793774
0.0825485
0.085251
0.0875669
0.0895636
0.09122
0.0925455
0.0936152
0.0944905
0.0952152
0.0958209
0.0963313
0.0967644
0.0971339
0.0974507
0.0977235
0.0979591
0.0981632
0.0983404
0.000178106
0.00205578
0.0050367
0.00860863
0.0126803
0.0172204
0.0222032
0.0275948
0.0333466
0.0393899
0.045634
0.0519907
0.0583361
0.064541
0.0699235
0.0743468
0.078092
0.081275
0.083992
0.0863224
0.0883319
0.0899984
0.0913307
0.0924048
0.0932827
0.0940088
0.0946151
0.0951257
0.0955585
0.0959277
0.0962441
0.0965164
0.0967516
0.0969553
0.0971323
0.000172575
0.00200943
0.00490218
0.00836713
0.0123259
0.016753
0.0216253
0.0269102
0.0325598
0.0385078
0.044666
0.0509432
0.0572245
0.0633829
0.0687405
0.0731549
0.0769006
0.0800897
0.082815
0.085154
0.0871708
0.0888422
0.0901772
0.0912521
0.0921296
0.0928544
0.093459
0.0939676
0.0943984
0.0947655
0.0950799
0.0953503
0.0955837
0.0957858
0.0959612
0.000170901
0.00196088
0.0048031
0.00821091
0.0121001
0.0164436
0.0212194
0.0263981
0.0319367
0.0377755
0.0438321
0.050018
0.0562265
0.0623306
0.0676556
0.0720532
0.0757917
0.0789788
0.0817046
0.0840442
0.0860604
0.0877295
0.0890604
0.09013
0.0910015
0.0917199
0.092318
0.0928202
0.093245
0.0936064
0.0939155
0.0941811
0.0944101
0.0946082
0.0947799
0.000167446
0.00192162
0.00469958
0.00803204
0.0118407
0.0161008
0.0207915
0.0258838
0.0313357
0.0370898
0.0430661
0.0491758
0.0553193
0.0613706
0.0666591
0.0710336
0.0747568
0.0779329
0.0806496
0.0829801
0.0849858
0.0866426
0.0879602
0.089016
0.0898734
0.090578
0.0911628
0.0916524
0.0920651
0.0924154
0.0927143
0.0929704
0.0931908
0.0933811
0.0935458
0.000165665
0.00188491
0.00461857
0.00789889
0.011646
0.0158356
0.0204485
0.0254584
0.0308258
0.0364959
0.042392
0.0484253
0.054502
0.0604964
0.0657422
0.0700859
0.0737848
0.0769403
0.0796374
0.0819477
0.083931
0.0855635
0.0868562
0.087887
0.0887199
0.0894007
0.0899626
0.0904306
0.0908231
0.0911546
0.091436
0.0916761
0.0918819
0.0920588
0.0922114
0.000163404
0.00185296
0.00453986
0.00776686
0.0114558
0.0155828
0.0201292
0.0250691
0.0303643
0.0359613
0.0417857
0.0477483
0.0537603
0.0596959
0.0648939
0.0691994
0.0728654
0.0759902
0.0786566
0.0809343
0.082882
0.0844763
0.0857303
0.0867228
0.0875181
0.0881626
0.0886899
0.0891249
0.0894865
0.0897891
0.0900437
0.0902591
0.0904422
0.0905983
0.0907319
0.000161814
0.00182386
0.0044733
0.00765719
0.0112971
0.0153693
0.0198557
0.0247313
0.0299593
0.0354873
0.0412434
0.0471373
0.0530843
0.0589585
0.0641033
0.0683637
0.071988
0.0750719
0.0776962
0.0799287
0.0818263
0.083367
0.0845669
0.0855056
0.0862484
0.0868419
0.0873203
0.0877089
0.0880267
0.0882882
0.0885045
0.0886844
0.0888346
0.0889606
0.0890665
0.000160181
0.00179771
0.00441169
0.00755528
0.0111506
0.0151739
0.0196073
0.0244261
0.0295938
0.0350592
0.0407515
0.0465806
0.0524627
0.0582733
0.0633602
0.0675688
0.0711431
0.0741763
0.076747
0.078921
0.0807537
0.0822245
0.0833536
0.084222
0.0848956
0.0854219
0.0858355
0.0861623
0.0864215
0.0866278
0.0867925
0.0869244
0.0870301
0.087115
0.0871831
0.000158854
0.00177393
0.00435703
0.00746545
0.0110212
0.0150006
0.0193857
0.0241522
0.0292642
0.0346708
0.0403023
0.0460689
0.0518857
0.0576308
0.0626554
0.066806
0.0703224
0.0732954
0.0758014
0.077904
0.0796567
0.0810411
0.0820822
0.0828628
0.0834498
0.0838916
0.0842235
0.084472
0.0846567
0.0847927
0.0848913
0.0849614
0.0850098
0.0850415
0.0850606
0.0745532
0.0747103
0.0749593
0.075254
0.075545
0.0757919
0.0759621
0.075997
0.0758471
0.0754441
0.0747462
0.073713
0.0723486
0.0707192
0.0688825
0.0669001
0.0648241
0.0626905
0.0605067
0.0582373
0.055793
0.0530322
0.0991398
0.0998015
0.100528
0.10131
0.102086
0.102818
0.103465
0.104014
0.104448
0.104649
0.104572
0.104197
0.103502
0.102705
0.101488
0.100323
0.0992764
0.0985569
0.0984747
0.0990835
0.100512
0.10231
0.157786
0.158427
0.1591
0.159853
0.160603
0.16131
0.161948
0.162466
0.162821
0.163039
0.163074
0.162915
0.162757
0.162825
0.163239
0.163906
0.164515
0.164694
0.16419
0.162949
0.160837
0.158335
0.139835
0.140373
0.14092
0.141367
0.14165
0.141709
0.141492
0.140935
0.14
0.13862
0.136877
0.134727
0.132209
0.129701
0.127332
0.125094
0.12316
0.121588
0.120354
0.119362
0.118624
0.11791
0.148526
0.148526
0.148471
0.148347
0.14818
0.147937
0.14762
0.147213
0.146687
0.145991
0.145057
0.143898
0.142518
0.140929
0.139231
0.137551
0.135919
0.134356
0.132911
0.131596
0.130402
0.129297
0.132933
0.132744
0.13249
0.132187
0.131845
0.13147
0.131061
0.130606
0.130099
0.12952
0.128851
0.128066
0.127186
0.12622
0.125181
0.124099
0.123001
0.121896
0.120813
0.119771
0.118785
0.117866
0.136439
0.13637
0.136244
0.136057
0.135817
0.135529
0.135185
0.134783
0.134318
0.133786
0.133187
0.132521
0.131803
0.131049
0.130265
0.12946
0.128643
0.127822
0.127006
0.126203
0.125415
0.124648
0.12644
0.126672
0.126855
0.126995
0.127089
0.127136
0.127133
0.127077
0.126968
0.126804
0.126584
0.126309
0.125987
0.125631
0.12525
0.12485
0.124437
0.124019
0.123602
0.12319
0.122789
0.122405
0.124732
0.125013
0.125274
0.12551
0.125721
0.125903
0.126054
0.126171
0.126252
0.126294
0.126296
0.126256
0.126176
0.126064
0.125923
0.12576
0.12558
0.125387
0.125186
0.124979
0.124772
0.124566
0.118601
0.118953
0.119294
0.119623
0.11994
0.120243
0.12053
0.120801
0.121053
0.121285
0.121494
0.121678
0.121831
0.121956
0.122053
0.122127
0.122181
0.122218
0.122243
0.122258
0.122267
0.122273
0.116714
0.117028
0.117336
0.117636
0.117929
0.118213
0.11849
0.118757
0.119015
0.119263
0.1195
0.119725
0.119932
0.120117
0.120282
0.120429
0.12056
0.120678
0.120784
0.12088
0.120966
0.121045
0.11339
0.113721
0.114047
0.114369
0.114686
0.114997
0.115302
0.115601
0.115893
0.116178
0.116456
0.116722
0.116971
0.117199
0.117409
0.117603
0.117782
0.117948
0.118104
0.118251
0.118389
0.118521
0.111825
0.112145
0.112458
0.112765
0.113064
0.113358
0.113646
0.113928
0.114205
0.114476
0.114741
0.114996
0.115237
0.11546
0.115667
0.115859
0.116038
0.116206
0.116363
0.11651
0.116649
0.116781
0.10964
0.109999
0.110351
0.110696
0.111034
0.111365
0.111689
0.112005
0.112312
0.112612
0.112903
0.113183
0.113446
0.113688
0.113911
0.114118
0.114309
0.114487
0.114651
0.114805
0.114947
0.11508
0.107974
0.108357
0.108734
0.109104
0.109467
0.109823
0.110172
0.110512
0.110844
0.111169
0.111485
0.11179
0.112078
0.112344
0.112589
0.112815
0.113024
0.113217
0.113395
0.113559
0.11371
0.113849
0.106083
0.106499
0.10691
0.107317
0.107719
0.108114
0.108502
0.108883
0.109256
0.109621
0.109978
0.110323
0.110648
0.110948
0.111225
0.11148
0.111715
0.111931
0.112131
0.112314
0.112483
0.112638
0.104418
0.104847
0.105273
0.105697
0.106117
0.106534
0.106948
0.107357
0.10776
0.108157
0.108546
0.108925
0.109281
0.109612
0.109918
0.110201
0.110463
0.110705
0.110929
0.111135
0.111325
0.111501
0.102776
0.103216
0.103654
0.104092
0.104528
0.104962
0.105393
0.105822
0.106247
0.106667
0.107083
0.107489
0.107875
0.108233
0.108567
0.108878
0.109166
0.109434
0.109683
0.109914
0.110128
0.110325
0.1013
0.101742
0.102184
0.102625
0.103066
0.103507
0.103946
0.104384
0.10482
0.105253
0.105683
0.106106
0.10651
0.106889
0.107242
0.107573
0.107882
0.108171
0.10844
0.108691
0.108925
0.109142
0.0999175
0.100362
0.100806
0.101251
0.101695
0.10214
0.102584
0.103027
0.103469
0.10391
0.104349
0.104782
0.105197
0.105587
0.105954
0.106298
0.106621
0.106924
0.107208
0.107475
0.107724
0.107957
0.0986485
0.0990954
0.0995421
0.0999888
0.100435
0.100882
0.101328
0.101774
0.102219
0.102662
0.103105
0.103543
0.103963
0.104359
0.104732
0.105084
0.105415
0.105727
0.10602
0.106296
0.106555
0.106799
0.0974442
0.0978982
0.0983515
0.0988042
0.0992561
0.0997072
0.100157
0.100607
0.101055
0.101502
0.101947
0.102388
0.102811
0.10321
0.103586
0.103941
0.104276
0.104592
0.104891
0.105172
0.105437
0.105687
0.0962783
0.0967441
0.0972087
0.097672
0.0981337
0.0985938
0.0990521
0.0995086
0.0999631
0.100415
0.100865
0.10131
0.101736
0.102138
0.102516
0.102873
0.103211
0.103529
0.103829
0.104113
0.104381
0.104633
0.0951045
0.0955889
0.0960716
0.0965524
0.0970308
0.0975066
0.0979796
0.0984496
0.0989162
0.0993793
0.0998388
0.100291
0.100724
0.10113
0.101513
0.101873
0.102213
0.102533
0.102835
0.10312
0.103389
0.103643
0.0938793
0.0943895
0.0948979
0.0954041
0.0959074
0.0964073
0.0969034
0.0973952
0.0978822
0.098364
0.0988403
0.0993074
0.0997527
0.10017
0.10056
0.100927
0.101271
0.101595
0.1019
0.102188
0.102459
0.102714
0.0925547
0.0930981
0.0936406
0.094181
0.0947186
0.0952525
0.0957818
0.0963057
0.0968234
0.0973342
0.0978375
0.098329
0.0987955
0.0992302
0.0996357
0.100015
0.100369
0.100701
0.101012
0.101304
0.101579
0.101838
0.0910845
0.0916682
0.0922525
0.0928361
0.0934178
0.0939962
0.09457
0.0951379
0.0956986
0.0962508
0.0967934
0.0973215
0.0978206
0.0982835
0.0987132
0.0991124
0.0994839
0.09983
0.100153
0.100455
0.100737
0.101002
0.0894263
0.0900559
0.0906889
0.0913237
0.0919587
0.0925921
0.093222
0.0938465
0.0944636
0.0950714
0.0956679
0.0962471
0.0967929
0.0972969
0.0977624
0.0981928
0.0985909
0.0989597
0.0993018
0.0996196
0.0999152
0.100191
0.0875457
0.0882242
0.0889105
0.0896026
0.0902986
0.0909963
0.0916932
0.0923868
0.0930742
0.0937525
0.0944188
0.0950657
0.0956743
0.0962347
0.0967505
0.0972251
0.0976619
0.0980643
0.0984353
0.0987777
0.0990941
0.099387
0.0854197
0.0861469
0.0868877
0.08764
0.0884018
0.0891706
0.0899435
0.0907171
0.0914878
0.0922515
0.0930041
0.0937362
0.0944255
0.0950598
0.0956423
0.0961767
0.0966665
0.0971156
0.0975274
0.0979053
0.0982523
0.0985715
0.0494571
0.0448773
0.0403917
0.0364758
0.0333721
0.0313321
0.103649
0.104047
0.10344
0.102293
0.100933
0.0992826
0.155533
0.152347
0.14869
0.144423
0.139441
0.134288
0.11701
0.115831
0.114483
0.11295
0.111297
0.109248
0.128108
0.126772
0.125311
0.123714
0.121992
0.120152
0.116902
0.115922
0.11503
0.114221
0.113503
0.112829
0.123869
0.123111
0.122407
0.121758
0.121165
0.120637
0.122003
0.121614
0.121276
0.120995
0.120771
0.120601
0.124342
0.124122
0.123936
0.123785
0.123671
0.123596
0.122225
0.122138
0.12207
0.122024
0.122003
0.122008
0.121058
0.121011
0.120974
0.120948
0.120934
0.120933
0.118575
0.118555
0.118538
0.118526
0.118518
0.118514
0.116843
0.116834
0.116824
0.116812
0.1168
0.116786
0.115148
0.115151
0.11515
0.115145
0.115136
0.115124
0.113928
0.113945
0.113955
0.113959
0.113956
0.113947
0.11273
0.112755
0.112774
0.112785
0.112789
0.112786
0.111606
0.11164
0.111665
0.111682
0.111691
0.111691
0.110444
0.110483
0.110513
0.110534
0.110546
0.110549
0.109273
0.109315
0.109348
0.109371
0.109384
0.109387
0.108097
0.10814
0.108173
0.108196
0.108209
0.108212
0.106944
0.106987
0.10702
0.107042
0.107054
0.107055
0.105835
0.105877
0.105908
0.105928
0.105937
0.105936
0.104783
0.104822
0.104851
0.104869
0.104875
0.10487
0.103792
0.10383
0.103856
0.10387
0.103874
0.103865
0.102862
0.102897
0.10292
0.102932
0.102932
0.10292
0.101986
0.102018
0.102038
0.102047
0.102043
0.102028
0.101151
0.101181
0.101198
0.101204
0.101197
0.101178
0.100344
0.100371
0.100386
0.100389
0.100379
0.100357
0.0995468
0.0995716
0.0995841
0.0995843
0.0995723
0.0995479
0.0987416
0.0987639
0.0987741
0.0987721
0.0987581
0.0987319
0.0304876
0.0306575
0.0318316
0.034179
0.0376295
0.0421093
0.0473273
0.0521521
0.0561557
0.0601624
0.0644724
0.0691015
0.0738713
0.0785998
0.0831898
0.0875501
0.0915914
0.095248
0.0984908
0.101323
0.103777
0.10592
0.0975372
0.0958511
0.0938614
0.0917723
0.0896678
0.0875084
0.0851896
0.0830223
0.0818046
0.0813186
0.081796
0.083043
0.0848105
0.0868626
0.0890425
0.0912558
0.093451
0.0956033
0.0977025
0.0997477
0.101739
0.103657
0.130141
0.126585
0.123216
0.120098
0.117422
0.115445
0.114226
0.113278
0.112441
0.111543
0.110568
0.109855
0.109694
0.109879
0.110327
0.111074
0.112146
0.113563
0.115329
0.117427
0.119815
0.122432
0.106746
0.10463
0.102866
0.101486
0.100312
0.0991012
0.0978788
0.0969455
0.0962699
0.0959011
0.0958736
0.0959273
0.0959533
0.0962321
0.0968595
0.0977818
0.0990366
0.100474
0.102077
0.103796
0.105585
0.107397
0.118411
0.116879
0.11541
0.114044
0.112812
0.111751
0.110912
0.110347
0.11008
0.110114
0.110432
0.110997
0.111762
0.112656
0.11367
0.114813
0.115996
0.117224
0.118482
0.119749
0.121015
0.122282
0.112263
0.111828
0.111452
0.111144
0.110914
0.110772
0.110728
0.110791
0.110965
0.111255
0.111665
0.112206
0.112873
0.113631
0.114466
0.11536
0.116281
0.117213
0.118144
0.119065
0.119968
0.120839
0.120279
0.120088
0.119956
0.119891
0.119899
0.119986
0.120154
0.120406
0.120745
0.121173
0.121685
0.122276
0.122927
0.123631
0.124391
0.125193
0.126024
0.126871
0.127721
0.128562
0.129383
0.130181
0.120526
0.12054
0.120599
0.120702
0.12085
0.121044
0.121288
0.12158
0.121932
0.122352
0.122847
0.123418
0.124031
0.124647
0.125244
0.125804
0.126315
0.126761
0.127139
0.127453
0.12771
0.127909
0.123582
0.123617
0.123683
0.123783
0.123921
0.124098
0.124316
0.124577
0.124865
0.125168
0.12547
0.125757
0.126005
0.126201
0.126344
0.126439
0.126493
0.126517
0.126521
0.126504
0.126463
0.126401
0.122
0.121969
0.121953
0.121951
0.121959
0.121977
0.122001
0.122026
0.122048
0.12206
0.122057
0.122032
0.121982
0.121908
0.121813
0.1217
0.121569
0.121424
0.121265
0.121093
0.12091
0.120716
0.120886
0.120786
0.120689
0.120592
0.120496
0.120397
0.120296
0.120189
0.120076
0.119953
0.11982
0.119674
0.119518
0.119356
0.119187
0.119011
0.11883
0.118643
0.118452
0.118256
0.118056
0.117853
0.118443
0.118301
0.118158
0.118014
0.117866
0.117715
0.117559
0.117398
0.11723
0.117054
0.116869
0.116674
0.116472
0.116269
0.116064
0.115857
0.115648
0.115437
0.115222
0.115005
0.114786
0.114563
0.116707
0.116563
0.116417
0.116268
0.116115
0.115958
0.115796
0.115629
0.115455
0.115274
0.115084
0.114886
0.114683
0.11448
0.114274
0.114066
0.113856
0.113641
0.113423
0.1132
0.112971
0.112737
0.115051
0.114919
0.114783
0.114642
0.114495
0.114342
0.114181
0.114012
0.113834
0.113644
0.113442
0.113227
0.113004
0.112775
0.112542
0.112304
0.112059
0.111807
0.111547
0.111279
0.111003
0.110718
0.113879
0.113754
0.113623
0.113484
0.113336
0.113178
0.113009
0.112828
0.112633
0.112423
0.112196
0.111951
0.111695
0.111431
0.11116
0.110881
0.110593
0.110296
0.109991
0.109676
0.109352
0.109018
0.112718
0.112589
0.112451
0.112302
0.112142
0.111969
0.111782
0.111579
0.111359
0.111119
0.110858
0.110573
0.110272
0.10996
0.109638
0.109307
0.108967
0.108617
0.108257
0.107888
0.107512
0.107127
0.111619
0.111477
0.111324
0.111157
0.110977
0.110781
0.110568
0.110337
0.110084
0.10981
0.10951
0.109184
0.108841
0.108486
0.10812
0.107745
0.107359
0.106966
0.106565
0.106158
0.105744
0.105325
0.110469
0.110309
0.110135
0.109946
0.109741
0.109518
0.109277
0.109014
0.108729
0.108418
0.108081
0.107716
0.107333
0.106939
0.106537
0.106125
0.105706
0.105281
0.104849
0.104413
0.103972
0.103527
0.109298
0.109119
0.108924
0.108713
0.108484
0.108237
0.107969
0.107679
0.107366
0.107026
0.106659
0.106264
0.105851
0.10543
0.105001
0.104565
0.104123
0.103676
0.103225
0.10277
0.102313
0.101852
0.108114
0.107916
0.107703
0.107473
0.107224
0.106956
0.106667
0.106355
0.106019
0.105657
0.105267
0.104849
0.104414
0.103972
0.103523
0.103069
0.10261
0.102147
0.101681
0.101212
0.100742
0.100271
0.106948
0.106736
0.106508
0.106262
0.105997
0.105713
0.105408
0.10508
0.104727
0.104348
0.103941
0.103506
0.103055
0.102597
0.102135
0.101667
0.101196
0.100722
0.100245
0.0997673
0.0992882
0.0988087
0.105822
0.105598
0.105358
0.1051
0.104824
0.104528
0.10421
0.103869
0.103503
0.103111
0.10269
0.102242
0.101777
0.101307
0.100832
0.100353
0.0998707
0.0993858
0.0988991
0.0984113
0.0979229
0.0974345
0.10475
0.104518
0.104269
0.104002
0.103716
0.103409
0.103081
0.102729
0.102352
0.101948
0.101515
0.101054
0.100577
0.100094
0.0996061
0.0991144
0.0986196
0.0981226
0.097624
0.0971246
0.096625
0.0961257
0.10374
0.1035
0.103243
0.102968
0.102673
0.102357
0.102018
0.101656
0.101267
0.100851
0.100404
0.0999281
0.0994352
0.0989364
0.0984326
0.0979247
0.0974137
0.0969004
0.0963857
0.0958704
0.0953552
0.0948407
0.102789
0.102542
0.102277
0.101993
0.101689
0.101362
0.101012
0.100636
0.100233
0.0998004
0.0993358
0.0988406
0.098327
0.0978067
0.097281
0.0967508
0.0962173
0.0956816
0.0951447
0.0946075
0.0940709
0.0935357
0.101891
0.101635
0.101361
0.101066
0.10075
0.10041
0.100044
0.0996508
0.099228
0.0987732
0.098284
0.0977616
0.0972191
0.0966691
0.096113
0.0955521
0.0949879
0.0944217
0.0938547
0.0932881
0.0927231
0.0921606
0.101035
0.100768
0.100481
0.100171
0.0998382
0.0994791
0.0990919
0.0986744
0.0982241
0.0977386
0.0972152
0.0966553
0.0960732
0.0954826
0.0948854
0.0942835
0.0936785
0.0930723
0.0924665
0.0918625
0.0912617
0.0906654
0.100205
0.0999226
0.0996177
0.0992881
0.0989317
0.0985461
0.098129
0.0976777
0.0971895
0.0966619
0.0960919
0.0954815
0.0948465
0.0942025
0.0935518
0.092897
0.0922405
0.0915845
0.090931
0.0902818
0.0896385
0.0890025
0.0993844
0.0990807
0.0987511
0.0983933
0.0980047
0.0975828
0.0971248
0.0966277
0.0960886
0.0955048
0.0948735
0.0941971
0.0934942
0.0927824
0.092065
0.0913455
0.0906269
0.0899119
0.089203
0.0885024
0.0878117
0.0871326
0.098554
0.0982207
0.0978573
0.0974612
0.0970293
0.0965588
0.0960464
0.095489
0.0948836
0.0942273
0.0935177
0.0927585
0.0919716
0.0911776
0.0903809
0.0895858
0.0887961
0.0880152
0.0872458
0.0864902
0.0857502
0.0850273
0.107441
0.108579
0.109817
0.111093
0.112331
0.11345
0.114382
0.1151
0.115639
0.11609
0.11657
0.117144
0.117701
0.117918
0.117461
0.116202
0.114254
0.11139
0.107869
0.104584
0.0992391
0.0938652
0.0891542
0.0844351
0.0803064
0.0754353
0.0692134
0.0613617
0.052516
0.0428196
0.032847
0.0229189
0.0132105
0.00448789
0.0010455
0.105137
0.106356
0.107707
0.109187
0.110797
0.112519
0.114219
0.115794
0.116767
0.117431
0.117462
0.116699
0.115073
0.112001
0.10835
0.103917
0.0973998
0.0896714
0.0822011
0.0747242
0.0704328
0.0744757
0.0814225
0.0868652
0.0883682
0.0900555
0.0915938
0.090591
0.0859175
0.0762002
0.0623101
0.0456707
0.0279483
0.0113508
0.00135732
0.124737
0.126765
0.12913
0.131771
0.134514
0.137021
0.13885
0.139861
0.139979
0.139584
0.138442
0.136385
0.132699
0.126127
0.115449
0.100291
0.0831645
0.0664741
0.0554379
0.0595521
0.0707771
0.0822961
0.0943752
0.103263
0.10672
0.104496
0.0984862
0.0898896
0.0791855
0.0671595
0.0538774
0.0392586
0.0242075
0.0102992
0.00131303
0.108874
0.110156
0.111648
0.113355
0.115253
0.117287
0.119342
0.121234
0.122658
0.123285
0.122695
0.120287
0.115502
0.107436
0.0925326
0.0724783
0.0590559
0.0470777
0.0390915
0.0367251
0.038339
0.0419016
0.0458571
0.0487758
0.0496246
0.049503
0.0467185
0.0412567
0.0343938
0.0266604
0.0192926
0.0129791
0.00777063
0.00345696
0.000677099
0.12329
0.124068
0.124968
0.126027
0.127287
0.128796
0.1306
0.13271
0.135039
0.137242
0.138549
0.138569
0.136975
0.134029
0.130162
0.126071
0.121466
0.11401
0.103335
0.0910502
0.077801
0.0639261
0.051571
0.0426136
0.0365213
0.0325041
0.0294086
0.0265392
0.0236161
0.0206035
0.0173636
0.0135928
0.0090506
0.00396542
0.000587637
0.121484
0.121968
0.122493
0.123057
0.123664
0.124311
0.124994
0.125703
0.126441
0.127234
0.128152
0.128949
0.129471
0.129624
0.129001
0.127062
0.123767
0.11936
0.113839
0.10657
0.0969314
0.0843789
0.0698666
0.0561156
0.0438893
0.0358636
0.0332934
0.0325822
0.0313052
0.028964
0.0250116
0.0196449
0.0131153
0.00580906
0.000698264
0.130791
0.131237
0.131717
0.132241
0.13281
0.133423
0.134079
0.13477
0.135467
0.136107
0.136591
0.136732
0.13636
0.135231
0.133212
0.130392
0.127018
0.122974
0.117966
0.111455
0.10258
0.0897351
0.0721684
0.0524504
0.0331046
0.0195661
0.0139513
0.0144918
0.015592
0.0158201
0.0145348
0.0118439
0.00812388
0.00384067
0.000503922
0.128052
0.128188
0.128326
0.128459
0.128589
0.128717
0.128835
0.12893
0.128983
0.128971
0.128834
0.128482
0.12783
0.126798
0.125232
0.122903
0.119766
0.115817
0.111011
0.105153
0.0977924
0.088214
0.0765715
0.0641612
0.0513336
0.0384357
0.0264861
0.0168926
0.0104057
0.00651708
0.00417384
0.00277875
0.00186916
0.000904179
0.000221969
0.126392
0.126443
0.126491
0.126536
0.126576
0.126608
0.126625
0.126616
0.12656
0.126415
0.126112
0.125558
0.124658
0.123298
0.12136
0.118848
0.115881
0.112423
0.108374
0.103595
0.0978841
0.0907834
0.082307
0.0733423
0.0643584
0.0556022
0.0471689
0.0391958
0.0317292
0.0247843
0.0183658
0.0124838
0.00719088
0.00276978
0.000316221
0.120611
0.120614
0.120615
0.120608
0.120587
0.120546
0.120474
0.120354
0.120166
0.119876
0.119445
0.118823
0.117948
0.11675
0.11513
0.113026
0.110433
0.107322
0.103658
0.099371
0.0943067
0.0880549
0.080609
0.072687
0.0644342
0.0560379
0.0477194
0.0396799
0.0320609
0.0249571
0.018427
0.0125283
0.00732799
0.00298266
0.000267887
0.117738
0.11771
0.117675
0.117632
0.117576
0.117503
0.117404
0.117266
0.117069
0.116779
0.116351
0.115739
0.114883
0.113701
0.112095
0.110043
0.107606
0.104741
0.101367
0.0973452
0.0924791
0.0863363
0.0789085
0.0709618
0.062708
0.0544188
0.0462898
0.0384594
0.0310722
0.0241904
0.0178648
0.0121362
0.00706089
0.00282401
0.000293931
0.11442
0.114365
0.114302
0.114225
0.114129
0.114007
0.11385
0.113645
0.113375
0.113016
0.11254
0.111906
0.111062
0.109936
0.108438
0.106534
0.104239
0.101479
0.0981515
0.0941462
0.0893003
0.0832221
0.0759474
0.0682418
0.0602924
0.0523157
0.044488
0.0369454
0.0298393
0.0232509
0.0172175
0.0117649
0.00693123
0.00284828
0.000253538
0.112577
0.112494
0.112397
0.112283
0.112147
0.111984
0.111783
0.111533
0.111216
0.110804
0.110271
0.109578
0.108675
0.10749
0.105932
0.103972
0.101638
0.098851
0.0955166
0.0914929
0.086594
0.0804164
0.0730178
0.0652147
0.0572308
0.049323
0.0416349
0.034347
0.0275744
0.0213754
0.0157691
0.0107527
0.00632966
0.00259822
0.000256088
0.110517
0.110407
0.11028
0.110131
0.109954
0.109742
0.109486
0.109175
0.108791
0.108314
0.107716
0.106961
0.105999
0.10476
0.103159
0.101176
0.0988245
0.0960321
0.0926843
0.088642
0.0837424
0.0776322
0.0704225
0.0629181
0.0553105
0.0478198
0.0405415
0.033608
0.0271149
0.0211147
0.015638
0.0107035
0.00633499
0.00263199
0.000234755
0.108785
0.108652
0.108498
0.10832
0.108111
0.107865
0.107571
0.107217
0.106786
0.106259
0.105608
0.104798
0.10378
0.102487
0.100832
0.0987951
0.0963916
0.093541
0.0901364
0.0860522
0.081136
0.0750392
0.0678802
0.060457
0.0529629
0.0455909
0.0384697
0.0317376
0.0254847
0.0197604
0.0145844
0.00995741
0.00588254
0.00243558
0.000225493
0.106858
0.106708
0.106534
0.106333
0.106099
0.105823
0.105497
0.105108
0.104642
0.104077
0.103388
0.102539
0.101481
0.100147
0.098453
0.0963836
0.093956
0.091095
0.0877065
0.0836705
0.0788457
0.0729095
0.0659923
0.0588646
0.0516914
0.0446522
0.037829
0.0313375
0.0252597
0.0196466
0.01453
0.00993061
0.0058718
0.00244048
0.000216559
0.105035
0.104872
0.104686