/*--------------------------------*- C++ -*----------------------------------*\
  =========                 |
  \\      /  F ield         | OpenFOAM: The Open Source CFD Toolbox
   \\    /   O peration     | Website:  https://openfoam.org
    \\  /    A nd           | Version:  8
     \\/     M anipulation  |
\*---------------------------------------------------------------------------*/
FoamFile
{
    version     2.0;
    format      ascii;
    class       volScalarField;
    location    "0.2";
    object      k;
}
// * * * * * * * * * * * * * * * * * * * * * * * * * * * * * * * * * * * * * //

dimensions      [0 2 -2 0 0 0 0];

internalField   nonuniform List<scalar> 
15677
(
123.577
109.394
145.787
176.783
203.305
226.277
245.733
261.07
271.188
274.611
271.466
263.979
255.122
240.278
218.071
198.277
181.475
167.611
156.105
146.281
137.569
130.011
123.891
119.268
115.793
113.052
110.623
108.428
106.437
104.64
103.055
101.712
100.634
99.8223
99.2547
292.693
466.307
568.309
637.363
692.369
740.458
784.994
821.697
833.948
757.199
628.374
520.963
459.499
416.685
360.433
312.866
284.284
268.436
255.895
243.697
231.174
220.108
211.33
204.258
198.545
193.982
190.422
187.703
185.713
184.374
183.63
183.408
183.599
184.121
184.897
316.264
662.79
881.596
1062.71
1222.5
1359.31
1454.39
1471.31
1366.42
1137.52
848.356
621.643
479.961
402.124
355.363
332.891
322.224
316.964
314.203
311.873
309.293
306.412
303.309
299.799
295.674
291.141
286.579
282.414
278.892
276.09
273.979
272.465
271.541
271.114
271.076
210.114
388.735
519.812
616.762
692.516
748.05
778.996
781.669
760.288
716.285
664.067
615.038
588.334
584.417
520.137
419.386
334.096
286.699
268.332
266.157
271.45
282.797
298.295
314.192
327.86
337.269
341.017
338.859
332.248
325.429
319.981
316.023
313.35
311.716
310.896
82.0323
183.007
243.251
289.444
328.03
360.838
388.745
412.787
434.575
456.059
480.34
514.677
546.449
535.221
464.401
375.52
305.4
258.998
238.441
227.715
222.058
221.44
224.789
229.906
235.369
240.397
244.62
247.955
250.472
252.252
253.366
253.955
254.223
254.325
254.355
45.1653
85.1902
115.953
141.066
163.432
183.901
202.875
220.68
237.669
253.832
268.81
280.865
280.106
258.617
224.842
192.674
167.803
153.791
149.769
151.591
157.501
167.239
177.75
187.304
194.744
199.808
202.898
204.619
205.497
205.871
205.943
205.844
205.658
205.425
205.168
24.9861
56.8076
77.1662
94.0236
109.735
125.169
140.876
157.245
173.775
186.143
189.919
179.837
151.822
117.903
102.701
102.305
107.244
113.707
121.091
129.628
138.871
147.949
156.366
164.035
170.699
175.976
179.529
181.229
181.673
181.578
181.313
181.039
180.795
180.557
180.305
7.77817
15.5082
23.3546
30.1801
36.6229
42.7943
48.7323
54.3446
59.345
62.6941
63.576
62.8528
60.0972
60.7241
67.518
82.729
96.3287
104.534
109.785
115.05
121.283
127.857
133.655
138.324
141.921
144.672
146.798
148.46
149.771
150.816
151.66
152.351
152.911
153.356
153.695
13.6668
22.1069
27.4674
31.3089
34.4016
37.171
39.7866
42.3551
44.9722
47.817
50.988
54.5726
58.5221
63.2683
69.0778
75.6336
82.0935
88.0559
93.9006
99.784
105.498
110.728
115.462
119.625
123.097
125.852
127.94
129.46
130.546
131.394
132.094
132.674
133.158
133.555
133.893
10.5571
19.019
24.9389
29.381
33.0427
36.1711
38.8873
41.2747
43.5343
45.8984
48.5412
51.6036
55.2214
59.5494
64.3005
69.0977
73.9815
78.8743
83.7615
88.5802
93.2431
97.4831
101.108
104.154
106.709
108.821
110.555
111.978
113.151
114.127
114.947
115.64
116.23
116.735
117.171
12.784
22.1153
28.0824
32.2442
35.4789
38.1206
40.3513
42.3297
44.2026
46.1238
48.2322
50.6572
53.5152
56.9087
60.5838
64.288
68.1127
72.0468
76.0583
80.0779
84.0449
87.6899
90.7919
93.3615
95.4602
97.1518
98.5146
99.6433
100.592
101.4
102.094
102.694
103.213
103.664
104.055
11.1739
21.1093
26.7128
30.4778
33.2837
35.5091
37.3957
39.1305
40.8671
42.728
44.8093
47.1902
49.9443
53.1565
56.5453
59.8773
63.2316
66.5871
69.9189
73.1949
76.3707
79.2576
81.7149
83.7767
85.4988
86.935
88.1391
89.1554
90.0196
90.7597
91.3967
91.9479
92.4273
92.8454
93.2108
9.68124
18.1212
23.1738
26.7366
29.5579
31.9227
33.9912
35.8855
37.7155
39.5855
41.5931
43.8325
46.3898
49.3412
52.4445
55.4836
58.5241
61.5413
64.5047
67.3812
70.1363
72.6223
74.7271
76.4837
77.943
79.1573
80.1589
81.0041
81.7253
82.3445
82.8779
83.338
83.7373
84.0849
84.3874
9.03164
17.5662
22.1202
25.191
27.5498
29.5153
31.2702
32.9451
34.6437
36.4468
38.4149
40.5992
43.0536
45.8358
48.6962
51.4488
54.1648
56.8356
59.4427
61.9573
64.3481
66.4965
68.3189
69.8483
71.1303
72.2071
73.1138
73.881
74.5334
75.091
75.5698
75.9827
76.3398
76.6497
76.9194
7.22456
14.3581
18.4234
21.3343
23.712
25.7903
27.6943
29.5125
31.3233
33.1956
35.1889
37.3569
39.749
42.4098
45.0993
47.6494
50.1321
52.5425
54.8715
57.1054
59.227
61.1352
62.7544
64.1218
65.2714
66.2391
67.0535
67.7386
68.3209
68.8202
69.2504
69.6224
69.9446
70.2239
70.466
7.11069
14.0621
17.6654
20.1705
22.2082
24.0063
25.6854
27.3252
28.9876
30.725
32.5837
34.6046
36.8258
39.283
41.7521
44.0843
46.3455
48.528
50.62
52.6196
54.5221
56.24
57.7062
58.9444
59.9903
60.875
61.625
62.2627
62.8073
63.2741
63.6758
64.0228
64.3234
64.5844
64.8117
5.4944
11.5733
14.8903
17.3098
19.3508
21.2025
22.9585
24.6792
26.4112
28.1935
30.0586
32.0405
34.1725
36.4869
38.779
40.9217
42.9831
44.9646
46.8638
48.677
50.3983
51.9557
53.2854
54.4123
55.3684
56.181
56.8726
57.4621
57.9652
58.3958
58.7671
59.089
59.369
59.6131
59.8261
5.48465
11.2031
14.2038
16.3638
18.1818
19.8384
21.4233
22.9915
24.583
26.2305
27.9637
29.8111
31.8008
33.9573
36.085
38.0645
39.9548
41.7642
43.4946
45.1452
46.7177
48.1391
49.3555
50.389
51.2683
52.0179
52.6584
53.2069
53.678
54.084
54.4349
54.7391
55.0036
55.2345
55.4372
4.55933
9.97123
12.7931
14.8592
16.6195
18.2343
19.7832
21.3151
22.8644
24.4589
26.1237
27.8825
29.7582
31.7732
33.745
35.5691
37.3085
38.9697
40.5556
42.0667
43.5026
44.8023
45.9175
46.8681
47.6797
48.3742
48.9698
49.4817
49.9226
50.3032
50.6323
50.9186
51.1688
51.3882
51.5805
4.61307
9.62217
12.2429
14.1491
15.7686
17.2553
18.6848
20.1026
21.541
23.026
24.5808
26.2262
27.9816
29.8643
31.6978
33.3859
34.9908
36.5202
37.9783
39.3668
40.6859
41.8812
42.9086
43.7863
44.5376
45.1822
45.7366
46.2145
46.6275
46.9854
47.2963
47.567
47.8037
48.0108
48.1923
4.12225
8.93659
11.4358
13.2648
14.8237
16.2558
17.6312
18.9921
20.3683
21.7835
23.2582
24.8111
26.4593
28.218
29.9249
31.4928
32.9796
34.3934
35.7389
37.0191
38.2354
39.3384
40.288
41.1009
41.7984
42.3984
42.9159
43.3633
43.7509
44.0876
44.3808
44.6365
44.8601
45.0558
45.2276
4.09727
8.60959
10.9752
12.7013
14.1701
15.5191
16.8152
18.0986
19.3975
20.7337
22.1264
23.5919
25.144
26.7944
28.3899
29.8514
31.2339
32.546
33.7929
34.9783
36.1044
37.1261
38.0068
38.7618
39.4109
39.9704
40.4538
40.8726
41.2361
41.5524
41.8283
42.0694
42.2805
42.4658
42.6285
3.84616
8.18788
10.4599
12.1219
13.5371
14.8357
16.0814
17.312
18.5542
19.8287
21.1532
22.543
24.0088
25.5624
27.0602
28.4285
29.7198
30.9427
32.1031
33.2051
34.2515
35.2012
36.0206
36.7239
37.3295
37.8523
38.3049
38.6977
39.0393
39.337
39.5971
39.8247
40.0243
40.1997
40.354
3.77254
7.91249
10.0926
11.6852
13.0402
14.2836
15.4764
16.6546
17.8426
19.0586
20.319
21.6377
23.0261
24.4944
25.9062
27.1928
28.4041
29.5488
30.6332
31.6618
32.6378
33.5236
34.2881
34.945
35.5113
36.001
36.4255
36.7943
37.1157
37.3962
37.6416
37.8566
38.0455
38.2117
38.3581
3.62142
7.62324
9.73081
11.2718
12.5824
13.7842
14.9358
16.0712
17.2135
18.3806
19.5874
20.8467
22.1692
23.5639
24.901
26.1162
27.2575
28.3337
29.3513
30.3151
31.2287
32.0576
32.773
33.3881
33.9189
34.3783
34.7772
35.1242
35.427
35.6916
35.9235
36.1269
36.3058
36.4633
36.6023
3.5451
7.40369
9.44518
10.9368
12.2044
13.3652
14.476
15.5699
16.6695
17.7916
18.9501
20.1566
21.421
22.7511
24.0227
25.1753
26.2552
27.2712
28.2298
29.1361
29.9943
30.7721
31.4434
32.0207
32.5191
32.951
33.3262
33.6531
33.9386
34.1885
34.4077
34.6002
34.7697
34.9192
35.0512
3.44903
7.196
9.17969
10.6295
11.8612
12.9883
14.0656
15.1253
16.1889
17.2727
18.3895
19.5504
20.7641
22.0376
23.2518
24.3496
25.3754
26.3382
27.2447
28.1001
28.9086
29.6406
30.272
30.8148
31.2835
31.6899
32.0432
32.3513
32.6206
32.8566
33.0638
33.2461
33.4066
33.5483
33.6736
3.38241
7.02235
8.9542
10.3656
11.5641
12.66
13.7066
14.7351
15.7664
16.8158
17.8956
19.0159
20.1849
21.4086
22.5722
23.6216
24.5997
25.5155
26.3757
27.1857
27.9497
28.6403
29.2352
29.7463
30.1876
30.5701
30.9028
31.1931
31.447
31.6697
31.8653
32.0375
32.1894
32.3235
32.4422
3.31457
6.86273
8.74951
10.1279
11.2977
12.3667
13.3867
14.3881
15.391
16.4101
17.4573
18.5418
19.6713
20.851
21.9699
22.9765
23.9125
24.7867
25.6056
26.3749
27.0988
27.7516
28.3131
28.7948
29.2103
29.5703
29.8833
30.1565
30.3954
30.605
30.7892
30.9514
31.0946
31.221
31.333
3.25995
6.72379
8.5697
9.91799
11.0617
12.1061
13.102
14.0789
15.0563
16.0484
17.0663
18.119
19.2133
20.354
21.4333
22.402
23.3006
24.1376
24.9198
25.6524
26.34
26.9584
27.4888
27.943
28.3341
28.6724
28.9663
29.2225
29.4465
29.643
29.8156
29.9676
30.1017
30.2202
30.3252
98.5864
97.9895
97.6827
97.5992
97.6528
97.7968
97.9641
98.0632
97.9757
97.5517
96.6307
95.0632
92.8006
89.922
86.5358
82.7789
78.791
74.7139
70.6825
66.8101
63.1758
59.8033
185.893
187.767
190.47
193.944
197.653
201.328
204.693
207.691
210.34
212.616
214.446
215.645
215.92
214.993
212.775
209.787
206.736
204.131
202.845
203.67
207.239
214.102
270.93
270.945
271.451
272.508
274.144
276.371
279.197
282.654
286.836
291.919
297.927
305.472
316.76
332.484
351.524
370.975
387.482
398.597
403.086
400.792
391.967
379.295
310.694
311.846
314.281
317.382
319.755
320.811
320.145
317.35
312.107
304.291
297.057
291.541
287.515
284.812
283.54
283.432
284.226
285.428
286.469
286.897
286.619
285.646
254.865
255.816
256.51
256.96
257.126
256.934
256.283
255.089
253.281
250.756
247.505
243.859
240.384
237.683
235.75
234.554
234.049
234.15
234.789
235.852
237.186
238.61
205.274
205.734
206.125
206.448
206.689
206.829
206.83
206.629
206.241
205.681
204.974
204.193
203.428
202.768
202.261
201.93
201.77
201.751
201.87
202.116
202.475
202.936
180.351
180.691
180.995
181.266
181.535
181.82
182.058
182.249
182.395
182.515
182.653
182.833
183.059
183.329
183.646
184.013
184.431
184.895
185.401
185.941
186.508
187.095
154.473
155.674
156.803
157.87
158.884
159.854
160.788
161.691
162.571
163.448
164.341
165.259
166.189
167.117
168.045
168.975
169.906
170.838
171.769
172.695
173.613
174.519
134.692
135.987
137.285
138.587
139.891
141.199
142.515
143.841
145.183
146.546
147.938
149.355
150.765
152.14
153.485
154.799
156.085
157.344
158.577
159.785
160.97
162.135
118.067
119.458
120.858
122.269
123.694
125.133
126.591
128.071
129.576
131.112
132.683
134.283
135.875
137.428
138.943
140.422
141.868
143.283
144.671
146.034
147.372
148.681
104.871
106.159
107.471
108.807
110.168
111.557
112.977
114.429
115.917
117.445
119.017
120.625
122.226
123.789
125.314
126.802
128.257
129.682
131.079
132.448
133.791
135.107
93.9716
95.1712
96.3973
97.65
98.9288
100.232
101.562
102.92
104.31
105.733
107.191
108.676
110.148
111.582
112.981
114.348
115.686
117
118.293
119.565
120.819
122.054
85.05
86.1152
87.2062
88.3239
89.4694
90.6436
91.8472
93.0813
94.3475
95.6462
96.9771
98.3309
99.6739
100.981
102.256
103.502
104.72
105.914
107.087
108.239
109.374
110.492
77.5276
78.5096
79.5145
80.5423
81.5934
82.6683
83.7672
84.8899
86.0372
87.2093
88.4065
89.6216
90.8255
91.9968
93.1385
94.2528
95.3419
96.4076
97.4518
98.4765
99.4831
100.474
71.0312
71.9512
72.8898
73.8473
74.8243
75.8212
76.8381
77.8751
78.9335
80.0145
81.1194
82.242
83.3536
84.4344
85.4859
86.5094
87.5066
88.4791
89.4286
90.3568
91.265
92.1554
65.3503
66.2282
67.1237
68.0359
68.9639
69.9077
70.8673
71.8429
72.8358
73.8475
74.8796
75.9271
76.9636
77.9681
78.9415
79.8848
80.8001
81.6898
82.5557
83.3997
84.2235
85.0287
60.3405
61.1822
62.0398
62.9133
63.803
64.7093
65.6329
66.5736
67.5302
68.501
69.4862
70.4806
71.4588
72.4033
73.3162
74.1993
75.0542
75.8828
76.6869
77.4681
78.2282
78.9688
55.9295
56.7359
57.5589
58.3981
59.2532
60.1243
61.0113
61.9142
62.8328
63.7667
64.7153
65.6718
66.6106
67.5143
68.3852
69.2253
70.0365
70.8206
71.5794
72.3143
73.027
73.719
52.0506
52.8227
53.6116
54.4171
55.239
56.0771
56.9313
57.8014
58.6871
59.5882
60.5043
61.4284
62.3354
63.2077
64.0472
64.8557
65.6349
66.3864
67.1119
67.8129
68.4909
69.1473
48.6389
49.3746
50.1284
50.8998
51.6886
52.4945
53.3172
54.1563
55.0117
55.8828
56.7693
57.6643
58.5432
59.3888
60.2023
60.9853
61.7392
62.4654
63.1655
63.8407
64.4925
65.1221
45.6516
46.3515
47.07
47.8067
48.5617
49.3346
50.1252
50.9331
51.7579
52.5993
53.4568
54.3237
55.1759
55.9964
56.7863
57.5466
58.2787
58.9837
59.6628
60.3172
60.9481
61.5568
43.0314
43.6971
44.3816
45.0847
45.8064
46.5467
47.3053
48.0819
48.8762
49.6879
50.5164
51.3554
52.1812
52.9772
53.7443
54.4832
55.195
55.8805
56.541
57.1772
57.7904
58.3815
40.7361
41.3686
42.02
42.6903
43.3796
44.0878
44.8148
45.5604
46.3244
47.1063
47.9059
48.7168
49.5162
50.2878
51.0322
51.75
52.442
53.109
53.7518
54.3713
54.9682
55.5437
38.7209
39.3222
39.9423
40.5814
41.2396
41.917
42.6134
43.3288
44.063
44.8157
45.5866
46.3696
47.1427
47.8899
48.6117
49.3085
49.981
50.6296
51.2552
51.8584
52.44
53.0007
36.9471
37.5194
38.1104
38.7202
39.3492
39.9974
40.6647
41.3512
42.0568
42.7811
43.524
44.2797
45.0269
45.7501
46.4494
47.1254
47.7783
48.4088
49.0173
49.6045
50.171
50.7174
35.3795
35.9253
36.4895
37.0725
37.6744
38.2955
38.9357
39.595
40.2735
40.9709
41.6871
42.4165
43.1385
43.8382
44.5156
45.171
45.8047
46.4171
47.0088
47.5801
48.1317
48.664
33.9868
34.5087
35.0488
35.6074
36.1849
36.7812
37.3965
38.0309
38.6843
39.3565
40.0476
40.7521
41.4503
42.1274
42.7836
43.4191
44.0341
44.6289
45.2039
45.7596
46.2964
46.8149
32.7416
33.2422
33.7608
34.2978
34.8533
35.4275
36.0205
36.6323
37.263
37.9123
38.5803
39.2617
39.9375
40.5935
41.2296
41.8461
42.4431
43.0209
43.5799
44.1204
44.6427
45.1475
31.6198
32.1016
32.6013
33.1192
33.6555
34.2103
34.7837
35.3757
35.9861
36.6151
37.2623
37.9229
38.5782
39.2146
39.8321
40.4308
41.0109
41.5727
42.1164
42.6423
43.1508
43.6423
30.6002
31.0654
31.5486
32.05
32.5697
33.1079
33.6645
34.2395
34.8327
35.444
36.0731
36.7153
37.3524
37.9712
38.5716
39.154
39.7184
40.2652
40.7947
41.3072
41.8029
42.282
56.4744
53.0214
49.9142
47.3076
45.3123
44.0774
226.085
245.783
268.031
290.005
308.273
319.525
365.568
351.483
337.926
325.845
315.525
307.02
283.387
279.863
275.75
270.88
265.005
257.917
239.532
239.408
238.319
236.252
233.304
229.589
203.106
202.946
202.78
202.556
202.213
201.625
187.466
187.618
187.765
187.887
187.971
188.012
175.215
175.745
176.321
176.938
177.581
178.219
163.04
163.708
164.4
165.114
165.844
166.591
149.664
150.333
151.008
151.689
152.38
153.076
136.036
136.575
137.116
137.665
138.219
138.78
122.877
123.285
123.689
124.092
124.49
124.883
111.195
111.473
111.743
112.007
112.263
112.512
101.059
101.235
101.402
101.56
101.709
101.849
92.6601
92.7722
92.8722
92.9602
93.036
93.0992
85.4652
85.528
85.578
85.6154
85.6402
85.6518
79.3575
79.3899
79.4083
79.4128
79.4035
79.3802
74.0727
74.0858
74.0849
74.0701
74.0415
73.999
69.478
69.4817
69.4711
69.4463
69.4075
69.3545
65.4369
65.4367
65.4224
65.394
65.3516
65.2952
61.8608
61.8608
61.8466
61.8185
61.7765
61.7206
58.6776
58.6797
58.6679
58.6424
58.6031
58.5501
55.8334
55.8387
55.8303
55.8084
55.7731
55.7242
53.2848
53.2935
53.2889
53.271
53.2399
53.1956
50.9961
51.0082
51.0072
50.9933
50.9663
50.9264
48.9374
48.9524
48.9548
48.9444
48.9213
48.8856
47.0827
47.1003
47.1056
47.0983
47.0786
47.0465
45.4097
45.4295
45.4371
45.4325
45.4157
45.3868
43.8987
43.9202
43.9297
43.9273
43.913
43.8866
42.5325
42.555
42.5659
42.5652
42.553
42.5291
43.107
42.8114
43.5534
45.6981
49.4702
55.1129
62.6614
71.6867
82.1476
94.0747
107.438
122.109
137.588
153.242
168.65
183.375
196.906
208.892
219.199
227.908
235.256
241.605
322.939
319.738
308.334
292.456
274.317
256.355
240.867
230.519
226.295
226.997
232.611
241.635
252.565
264.274
276.243
288.206
300.032
311.671
323.122
334.403
345.536
356.531
299.76
292.481
284.209
274.944
265.139
255.69
247.755
241.806
237.971
236.019
235.499
236.016
237.345
239.171
241.614
244.873
249.107
254.457
261.065
269.071
278.569
289.564
250.977
245.02
239.94
235.726
232.188
228.844
225.252
221.426
217.321
213.258
209.464
206.04
203.469
202.251
202.411
203.88
206.748
210.971
216.553
223.478
231.702
241.1
225.342
221.02
216.725
212.519
208.465
204.605
201.013
197.804
195.042
192.782
191.076
190.006
189.659
189.962
190.898
192.46
194.6
197.27
200.473
204.099
208.08
212.325
200.593
199.264
197.919
196.581
195.26
193.975
192.753
191.618
190.592
189.699
188.963
188.48
188.357
188.61
189.22
190.145
191.335
192.744
194.329
196.045
197.85
199.711
187.791
187.357
186.934
186.533
186.171
185.859
185.604
185.4
185.267
185.228
185.307
185.53
185.908
186.431
187.083
187.844
188.686
189.586
190.519
191.466
192.414
193.346
178.561
178.627
178.691
178.759
178.832
178.909
178.989
179.074
179.168
179.272
179.387
179.509
179.62
179.7
179.735
179.714
179.619
179.439
179.17
178.816
178.38
177.867
166.96
166.942
166.91
166.861
166.797
166.715
166.611
166.477
166.293
166.034
165.682
165.227
164.673
164.027
163.293
162.477
161.586
160.633
159.629
158.574
157.476
156.336
153.313
153.073
152.801
152.493
152.142
151.739
151.275
150.738
150.115
149.392
148.558
147.605
146.554
145.433
144.253
143.023
141.751
140.44
139.092
137.713
136.313
134.9
138.822
138.328
137.787
137.193
136.54
135.821
135.03
134.16
133.202
132.15
130.997
129.744
128.424
127.07
125.687
124.282
122.859
121.424
119.982
118.539
117.1
115.672
124.75
124.071
123.345
122.571
121.744
120.858
119.91
118.892
117.801
116.63
115.374
114.037
112.654
111.258
109.856
108.451
107.048
105.647
104.251
102.865
101.496
100.148
112.253
111.471
110.647
109.78
108.866
107.901
106.881
105.802
104.662
103.455
102.178
100.836
99.4687
98.1046
96.748
95.4019
94.0695
92.7537
91.457
90.1819
88.9305
87.7053
101.52
100.709
99.8621
98.9763
98.0495
97.079
96.0621
94.9959
93.8777
92.7049
91.4748
90.1942
88.8982
87.6162
86.3515
85.1064
83.8824
82.6802
81.4996
80.3422
79.21
78.1059
92.7286
91.9176
91.0728
90.1922
89.2737
88.3152
87.3146
86.2698
85.1789
84.0405
82.8532
81.6257
80.393
79.1837
77.9989
76.8392
75.7049
74.5961
73.5133
72.4565
71.4259
70.422
85.2628
84.4682
83.6436
82.7876
81.8987
80.9754
80.0161
79.0193
77.9838
76.9084
75.7917
74.641
73.488
72.3584
71.2558
70.1812
69.1337
68.1124
67.1168
66.1462
65.2012
64.2825
78.984
78.2135
77.4162
76.5908
75.7363
74.8515
73.9351
72.9861
72.0035
70.9863
69.9338
68.853
67.774
66.7198
65.6905
64.6853
63.7039
62.7481
61.8194
60.917
60.0397
59.1871
73.6066
72.8643
72.0975
71.3052
70.4864
69.6404
68.7662
67.8629
66.9297
65.966
64.9709
63.9513
62.9353
61.9442
60.9779
60.0365
59.1204
58.2297
57.3641
56.5232
55.7066
54.9142
68.9702
68.2562
67.5196
66.7596
65.9753
65.1662
64.3314
63.4702
62.5821
61.6663
60.7224
59.7569
58.7964
57.8609
56.9503
56.0645
55.2035
54.3669
53.5542
52.7651
51.9991
51.2556
64.9225
64.2363
63.5289
62.7997
62.0482
61.2736
60.4753
59.6529
58.8058
57.9334
57.0353
56.1178
55.2062
54.3193
53.4568
52.6186
51.8043
51.0135
50.2457
49.5004
48.7772
48.0757
61.3609
60.701
60.0214
59.3213
58.6003
57.8579
57.0935
56.3067
55.497
54.6639
53.8072
52.9327
52.0647
51.2209
50.401
49.6047
48.8315
48.081
47.3529
46.6466
45.9617
45.2978
58.2042
57.5693
56.9158
56.2431
55.5508
54.8383
54.1053
53.3513
52.5759
51.7787
50.9595
50.1239
49.295
48.4897
47.7077
46.9486
46.212
45.4975
44.8046
44.1329
43.4819
42.8512
55.392
54.7808
54.1519
53.5049
52.8394
52.1548
51.4509
50.7272
49.9834
49.2191
48.434
47.6337
46.8403
46.0699
45.3221
44.5967
43.8931
43.211
42.55
41.9096
41.2893
40.6889
52.8767
52.2878
51.6822
51.0593
50.4188
49.7603
49.0834
48.3878
47.673
46.9389
46.1852
45.4171
44.656
43.9173
43.2006
42.5057
41.832
41.1794
40.5472
39.9352
39.3428
38.7697
50.6203
50.0525
49.4687
48.8684
48.2513
47.617
46.9652
46.2956
45.6077
44.9013
44.1763
43.4377
42.7061
41.9962
41.3079
40.6407
39.9943
39.3683
38.7624
38.1761
37.6091
37.0609
48.5914
48.0434
47.4801
46.9009
46.3057
45.694
45.0654
44.4197
43.7566
43.0757
42.3769
41.6653
40.9604
40.2768
39.6142
38.9721
38.3503
37.7486
37.1664
36.6035
36.0595
35.534
46.7636
46.2342
45.69
45.1306
44.5557
43.9649
43.3577
42.734
42.0935
41.4359
40.761
40.0738
39.3933
38.7334
38.0938
37.4744
36.8748
36.2948
35.734
35.1922
34.6689
34.1638
45.1142
44.6022
44.0759
43.5348
42.9786
42.4069
41.8194
41.2158
40.5958
39.9593
39.306
38.6407
37.9819
37.3431
36.7242
36.1248
35.5449
34.9843
34.4425
33.9195
33.4149
32.9282
43.6236
43.1279
42.6181
42.0937
41.5545
41.0001
40.4304
39.8449
39.2434
38.6257
37.9916
37.3457
36.7061
36.0858
35.4848
34.9031
34.3404
33.7967
33.2717
32.7653
32.2773
31.8071
42.2751
41.7939
41.2987
40.7893
40.2654
39.7267
39.1728
38.6035
38.0184
37.4173
36.7999
36.1708
35.5475
34.943
34.3574
33.7906
33.2426
32.7135
32.2031
31.7113
31.2379
30.7825
246.09
249.428
252.888
256.209
259.111
261.474
263.351
265.041
267.055
269.943
274.128
279.781
286.366
293.159
299.966
306.852
313.932
317.856
319.619
318.912
316.185
313.208
303.275
282.289
257.477
235.867
219.657
206.738
195.723
184.87
172.311
156.048
133.365
98.9766
101.602
365.461
372.681
380.687
389.555
399.327
409.68
418.746
425.324
428.199
427.749
422.638
412.074
397.294
382.708
373.212
366.061
358.375
354.538
361.512
378.759
424.029
515.21
660.172
766.77
765.707
739.982
725.574
724.044
722.065
712.002
688.224
646.803
583.102
480.125
303.267
300.567
311.38
325.216
342.202
361.378
379.393
390.397
393.215
389.413
380.28
367.316
351.487
332.578
308.291
278.768
249.758
228.498
223.15
255.801
336.882
465.873
620.483
823.769
1005.84
1076.1
1040.35
948.824
843.403
745.586
670.74
607.625
544.601
471.003
367.759
199.85
249.893
258.022
267.729
278.966
291.226
304.047
316.653
328.021
336.709
340.913
340.037
331.975
314.329
284.013
243.666
208.42
191.986
187.88
194.861
219.897
263.335
322.164
388.268
447.184
487.571
501.245
488.764
452.719
405.423
351.556
296.559
242.644
188.623
130.739
63.1923
216.153
219.708
223.975
229.141
235.446
243.219
252.915
265.107
280.169
296.685
308.079
310.205
301.651
282.699
258.591
233.688
210.715
190.062
171.733
157.212
146.044
137.46
132.14
130.059
129.686
129.401
127.476
122.926
115.9
107.662
99.3062
89.3374
77.2705
60.8408
41.9426
201.37
202.888
204.636
206.646
208.938
211.509
214.315
217.276
220.265
223.069
225.364
226.636
226.547
224.7
219.574
209.657
195.527
179.467
163.591
148.905
135.691
123.991
115.809
113.649
119.292
136.773
167.491
196.449
207.908
201.272
182.055
161.144
138.798
110.158
65.6799
194.209
195.049
195.952
196.951
198.086
199.408
200.98
202.866
205.097
207.587
209.941
210.888
209.671
205.381
197.442
186.685
174.94
162.883
150.91
139.345
128.259
116.937
104.883
91.9254
78.287
70.7853
78.9156
105.091
128.89
138.255
132.503
113.448
92.1635
66.9947
32.0339
177.63
177.697
177.741
177.755
177.729
177.646
177.474
177.161
176.627
175.738
174.367
172.35
169.555
165.855
160.915
154.083
145.287
134.972
123.765
112.255
100.939
90.0161
80.001
70.8725
61.8236
52.4454
43.4077
35.2916
28.6443
23.7616
20.6304
18.6495
15.8414
11.3979
6.47388
155.676
155.494
155.256
154.954
154.585
154.145
153.629
153.027
152.306
151.383
150.042
147.962
144.921
140.655
134.902
127.931
120.308
112.239
103.851
95.2721
86.5984
77.6719
69.2102
62.0889
56.1524
51.1193
46.79
43.0038
39.6171
36.4818
33.4365
30.2415
26.4009
21.0729
12.7537
134.066
133.788
133.463
133.08
132.617
132.056
131.368
130.515
129.448
128.091
126.338
124.065
121.124
117.438
112.946
107.758
101.917
95.5089
88.724
81.8325
75.0183
68.2331
62.001
56.7968
52.3444
48.4256
44.8734
41.5629
38.3935
35.262
32.0518
28.6026
24.6052
19.2237
9.34285
114.828
114.534
114.196
113.806
113.355
112.829
112.214
111.489
110.612
109.509
108.042
106.123
103.656
100.524
96.6282
92.1148
87.2644
82.2128
77.0746
71.9123
66.7935
61.6414
56.8299
52.7378
49.2128
46.111
43.3011
40.661
38.0766
35.4342
32.6128
29.4425
25.6
20.2385
11.093
99.3465
99.0532
98.7218
98.3426
97.9027
97.3861
96.772
96.0345
95.1401
94.0456
92.6974
91.0337
88.9848
86.4749
83.4446
79.9984
76.2853
72.3599
68.2184
63.9381
59.6372
55.2651
51.1138
47.5087
44.3298
41.4462
38.756
36.1758
33.635
31.0653
28.3772
25.436
21.9732
17.2365
8.33106
86.9727
86.6943
86.3801
86.0238
85.6169
85.1488
84.6052
83.9658
83.1988
82.2481
81.0762
79.6382
77.88
75.7379
73.1597
70.2186
67.1053
63.8425
60.4899
57.0823
53.6598
50.1237
46.688
43.6368
40.8915
38.3776
36.0254
33.7679
31.5373
29.2593
26.8413
24.1455
20.9088
16.4312
8.44684
77.4397
77.1741
76.8742
76.533
76.1415
75.6887
75.1604
74.5392
73.8027
72.9233
71.8685
70.6003
69.0751
67.2442
65.0721
62.6416
60.0683
57.4094
54.6566
51.7936
48.8232
45.6796
42.5717
39.7818
37.254
34.9238
32.7288
30.6145
28.5288
26.4146
24.1975
21.7601
18.8674
14.8601
7.12956
69.8125
69.5624
69.2805
68.9614
68.5981
68.1817
67.6999
67.1342
66.4622
65.6636
64.7144
63.5856
62.2428
60.6463
58.7664
56.6707
54.4641
52.1624
49.7545
47.2464
44.6478
41.8921
39.145
36.6448
34.3416
32.1894
30.1462
28.1704
26.2173
24.2344
22.1514
19.8588
17.142
13.4181
6.55838
63.7208
63.4826
63.2145
62.9096
62.5612
62.1608
61.6984
61.1614
60.5346
59.7999
58.9359
57.9177
56.716
55.2974
53.6374
51.8006
49.8655
47.8423
45.735
43.5273
41.2113
38.7316
36.2268
33.9245
31.795
29.8079
27.9256
26.1102
24.3229
22.5184
20.6338
18.5671
16.1133
12.6988
6.06275
58.6651
58.442
58.19
57.9046
57.5794
57.2064
56.7743
56.273
55.6901
55.0109
54.2179
53.29
52.2025
50.9261
49.4388
47.7966
46.0678
44.2569
42.3581
40.3678
38.2805
36.0264
33.7264
31.5908
29.5954
27.7128
25.9144
24.1703
22.4472
20.7042
18.8845
16.8968
14.5586
11.3679
5.35983
54.4277
54.2171
53.9792
53.7086
53.3996
53.0458
52.6391
52.1703
51.6281
50.9994
50.2684
49.4166
48.4218
47.258
45.9054
44.4146
42.8473
41.2023
39.4761
37.6636
35.7556
33.6799
31.551
29.5711
27.722
25.9813
24.325
22.725
21.1505
19.5637
17.9116
16.1067
13.9714
11.0118
5.25503
50.7994
50.6023
50.3783
50.1238
49.8335
49.501
49.1194
48.6805
48.1745
47.5898
46.9124
46.1257
45.21
44.1414
42.9017
41.5364
40.1008
38.5924
37.0074
35.3398
33.5805
31.6639
29.6886
27.8378
26.0943
24.4381
22.8474
21.2984
19.7646
18.2128
16.5961
14.8366
12.7759
9.9671
4.55514
47.6464
47.4625
47.2533
47.0149
46.7428
46.4317
46.0751
45.6656
45.1941
44.6502
44.0211
43.2918
42.4442
41.4564
40.3116
39.0512
37.7256
36.3318
34.8654
33.3198
31.6851
29.8985
28.0462
26.3058
24.6661
23.1105
21.6202
20.1742
18.7471
17.3076
15.8105
14.1806
12.2638
9.62969
4.54758
44.8926
44.7205
44.5245
44.3011
44.0462
43.7547
43.421
43.038
42.5976
42.0903
41.5043
40.8258
40.0383
39.1214
38.0595
36.8903
35.66
34.3651
33.0008
31.5601
30.033
28.3602
26.6233
24.983
23.4311
21.9533
20.5323
19.1485
17.7786
16.3931
14.9497
13.3787
11.5363
9.01797
4.13996
42.4673
42.3058
42.122
41.9126
41.6737
41.4007
41.0883
40.73
40.3183
39.8443
39.2973
38.6644
37.9303
37.076
36.0867
34.9972
33.8498
32.6409
31.3652
30.0159
28.5829
27.0104
25.3754
23.8302
22.364
20.9632
19.614
18.3
17.0009
15.6895
14.3254
12.8407
11.0962
8.70336
4.10339
40.3244
40.1725
39.9997
39.8029
39.5784
39.3221
39.0288
38.6928
38.307
37.8631
37.3511
36.7593
36.073
35.2746
34.3499
33.3311
32.257
31.1238
29.9261
28.6568
27.3062
25.8209
24.2729
22.8066
21.412
20.0769
18.7876
17.5279
16.2801
15.0184
13.7043
12.2733
10.5927
8.29258
3.87164
38.4228
38.2795
38.1166
37.9312
37.7199
37.4787
37.203
36.8873
36.525
36.1084
35.6282
35.0734
34.4303
33.6821
32.8153
31.8594
30.8505
29.7844
28.6557
27.4572
26.1792
24.7711
23.3005
21.905
20.576
19.3027
18.0724
16.8701
15.6773
14.469
13.2093
11.8367
10.2242
8.01544
3.79406
36.7301
36.5946
36.4407
36.2657
36.0663
35.8389
35.5792
35.2819
34.941
34.5494
34.0982
33.577
32.9729
32.27
31.4552
30.5557
29.605
28.5988
27.5313
26.3955
25.1819
23.8418
22.4389
21.1049
19.832
18.6104
17.4281
16.271
15.1212
13.9551
12.7379
11.4104
9.85132
7.71753
3.64401
35.2177
35.0894
34.9438
34.7783
34.59
34.3753
34.1303
33.85
33.5289
33.1601
32.7355
32.245
31.6765
31.0148
30.2469
29.3982
28.4997
27.5469
26.534
25.4541
24.2976
23.0177
21.6749
20.3957
19.1732
17.9986
16.8606
15.7459
14.6376
13.5132
12.339
11.0578
9.55103
7.48768
3.56293
33.8609
33.7395
33.6017
33.4451
33.2671
33.0644
32.8331
32.5687
32.266
31.9185
31.5184
31.0562
30.5204
29.8961
29.171
28.3681
27.5165
26.6115
25.6474
24.6171
23.5114
22.2851
20.9957
19.765
18.5868
17.4532
16.3535
15.2751
14.2017
13.1117
11.9725
10.7287
9.26553
7.26277
3.46095
32.6377
32.5227
32.3925
32.2446
32.0765
31.8852
31.6671
31.4179
31.1326
30.8051
30.4279
29.9922
29.4865
28.8967
28.2105
27.4492
26.6398
25.7777
24.8572
23.8713
22.8109
21.6323
20.3904
19.203
18.0647
16.9679
15.9028
14.8574
13.8161
12.758
11.6516
10.4431
9.02088
7.07379
3.38788
31.528
31.4197
31.297
31.1578
30.9996
30.8195
30.6143
30.3798
30.1113
29.803
29.4477
29.0367
28.5592
28.0013
27.3508
26.6272
25.856
25.0325
24.151
23.2047
22.1847
21.0487
19.8494
18.7006
17.5977
16.5338
15.4995
14.4833
13.4703
12.4401
11.3623
10.1843
8.79761
6.89933
3.31384
30.5143
30.4129
30.298
30.1677
30.0196
29.851
29.6587
29.4389
29.187
28.8973
28.5631
28.1758
27.7248
27.1966
26.5788
25.8897
25.153
24.3642
23.5177
22.6069
21.623
20.5252
19.3639
18.2499
17.1789
16.1446
15.1381
14.1483
13.161
12.1563
11.1045
9.95464
8.60052
6.7467
3.25342
3.2032
6.58333
8.38891
9.70753
10.8255
11.8457
12.8177
13.7703
14.7223
15.6875
16.6764
17.6974
18.7569
19.8589
20.899
21.8303
22.6918
23.4921
24.2377
24.9337
25.5845
26.1676
26.6659
27.0911
27.4561
27.771
28.0439
28.2813
28.4884
28.6698
28.829
28.969
29.0924
29.2014
29.2979
3.1494
6.44664
8.21235
9.50166
10.5941
11.5904
12.5389
13.4675
14.3946
15.3334
16.294
17.2841
18.3097
19.3742
20.3765
21.2715
22.0973
22.8621
23.572
24.2321
24.8464
25.3939
25.8591
26.2539
26.5909
26.8801
27.1294
27.3453
27.5328
27.6963
27.8393
27.9647
28.0749
28.1719
28.2576
3.10187
6.32514
8.05531
9.31852
10.3884
11.3634
12.291
13.1983
14.1034
15.0188
15.9543
16.9172
17.913
18.9448
19.914
20.7776
21.5723
22.3061
22.9848
23.6132
24.195
24.71
25.1445
25.5104
25.8201
26.0836
26.3089
26.5023
26.669
26.8132
26.9384
27.0473
27.1425
27.2258
27.2989
3.05987
6.2161
7.91431
9.15405
10.2035
11.1595
12.0683
12.9566
13.8418
14.7364
15.6495
16.5883