/*--------------------------------*- C++ -*----------------------------------*\
  =========                 |
  \\      /  F ield         | OpenFOAM: The Open Source CFD Toolbox
   \\    /   O peration     | Website:  https://openfoam.org
    \\  /    A nd           | Version:  8
     \\/     M anipulation  |
\*---------------------------------------------------------------------------*/
FoamFile
{
    version     2.0;
    format      ascii;
    class       volScalarField;
    location    "0.2";
    object      nut;
}
// * * * * * * * * * * * * * * * * * * * * * * * * * * * * * * * * * * * * * //

dimensions      [0 2 -1 0 0 0 0];

internalField   nonuniform List<scalar> 
15677
(
0.000835557
0.00299458
0.00873655
0.0151291
0.0212333
0.0268465
0.0318621
0.0361781
0.0397585
0.0428765
0.0461856
0.0498992
0.0539488
0.0558625
0.0561578
0.0561363
0.0561476
0.0563199
0.0565974
0.0568548
0.05698
0.056932
0.0568078
0.0566767
0.0565129
0.0562793
0.0559676
0.0556225
0.0552828
0.0549806
0.0547398
0.0545738
0.0544861
0.0544718
0.0545203
0.00128596
0.0112064
0.0279788
0.0446715
0.0583044
0.0684847
0.0756894
0.0798541
0.0813442
0.0801242
0.0796196
0.0820484
0.0874511
0.09155
0.0925102
0.0928489
0.0939339
0.0952501
0.0957655
0.095742
0.0952938
0.0947078
0.0941563
0.0936801
0.0933188
0.0930961
0.0930199
0.0930834
0.0932767
0.0935833
0.093981
0.0944413
0.0949164
0.0954043
0.0959085
0.00133665
0.0135311
0.029256
0.0438661
0.0565519
0.0668923
0.0744447
0.0786363
0.079058
0.0762482
0.072847
0.0732062
0.0783521
0.085489
0.0891237
0.0931997
0.0989644
0.104792
0.11013
0.114051
0.116935
0.118839
0.119921
0.120371
0.120451
0.120372
0.120299
0.120317
0.12045
0.12068
0.120983
0.121334
0.121717
0.122114
0.12251
0.00108938
0.00753749
0.0167305
0.0255273
0.0334185
0.0401466
0.0455591
0.0497222
0.0536439
0.0572748
0.0620794
0.0690393
0.0767529
0.081856
0.0806417
0.0765273
0.0732888
0.0754411
0.0821653
0.0917558
0.101509
0.109999
0.117282
0.12205
0.125026
0.126669
0.127347
0.127333
0.127049
0.126898
0.126936
0.127118
0.127385
0.12769
0.128002
0.000680509
0.00585274
0.0116982
0.0172474
0.0225649
0.0277291
0.0328435
0.0380577
0.0435778
0.0495782
0.0561367
0.0629823
0.0691384
0.0699597
0.0666921
0.0610979
0.0579739
0.0606691
0.0713101
0.0860567
0.0998451
0.108375
0.113261
0.115923
0.117664
0.118922
0.119829
0.120466
0.120888
0.121122
0.121229
0.121259
0.12124
0.121195
0.121138
0.000504996
0.00342528
0.00727202
0.0110423
0.0147714
0.0185244
0.0223521
0.0262976
0.0303699
0.0345149
0.038595
0.0423197
0.04335
0.0437473
0.0423998
0.041367
0.042193
0.0466454
0.055799
0.0678139
0.0804468
0.0915369
0.100176
0.106033
0.110093
0.112836
0.114643
0.115799
0.116507
0.116916
0.117127
0.117211
0.117213
0.117164
0.117084
0.000375599
0.00341722
0.00702382
0.0105042
0.0139445
0.0173616
0.0207768
0.0241272
0.0272459
0.0297827
0.0312793
0.0313874
0.0301172
0.0285687
0.031964
0.0406159
0.0516892
0.0635833
0.0752318
0.0860531
0.0948332
0.100825
0.1048
0.107634
0.109769
0.111387
0.112579
0.113364
0.11378
0.114012
0.114119
0.114152
0.114141
0.114101
0.114041
0.000209599
0.00111619
0.00248933
0.00390602
0.00532598
0.00675815
0.00820216
0.00963438
0.0109997
0.0122699
0.0128788
0.0133824
0.0143158
0.0178164
0.0247856
0.0372564
0.0508441
0.0631213
0.074475
0.0842048
0.0920309
0.0975861
0.101261
0.103723
0.10539
0.106533
0.107331
0.107899
0.108309
0.108609
0.10883
0.108994
0.109114
0.1092
0.10926
0.000277873
0.00228023
0.00548461
0.00884641
0.0121062
0.0152297
0.0181989
0.0210328
0.0238078
0.0265996
0.0294675
0.0325781
0.0367118
0.0427979
0.0505666
0.0589243
0.0673385
0.0752634
0.0823592
0.0882488
0.0928944
0.0962897
0.0986942
0.100445
0.101745
0.102712
0.103424
0.103942
0.104315
0.104591
0.104801
0.104962
0.105088
0.105186
0.105265
0.000244199
0.00201212
0.00488607
0.00814979
0.0117102
0.0155774
0.0197811
0.0243544
0.0293298
0.0346867
0.0403434
0.0462271
0.0523796
0.0589241
0.0653148
0.0711632
0.0765639
0.0814113
0.0856384
0.08922
0.0921846
0.0944853
0.0961865
0.0974545
0.0984186
0.0991621
0.0997417
0.100198
0.10056
0.100849
0.101081
0.101269
0.101423
0.101548
0.101653
0.000268769
0.0022847
0.00551688
0.00918537
0.0131949
0.0175731
0.0223638
0.0276003
0.0332857
0.0393742
0.0457552
0.0522562
0.0587521
0.0651149
0.0706941
0.0753742
0.0794416
0.0829821
0.086053
0.0886954
0.090956
0.0927868
0.0941977
0.0952816
0.096118
0.0967653
0.0972695
0.0976688
0.0979892
0.0982496
0.0984636
0.0986411
0.0987894
0.0989141
0.0990195
0.000251262
0.00235555
0.00557854
0.00927468
0.013396
0.0179815
0.0230703
0.0286696
0.034735
0.0411617
0.047775
0.0543693
0.060842
0.066981
0.072154
0.07633
0.0798383
0.0828179
0.0853685
0.0875626
0.0894533
0.0910061
0.0922262
0.0931866
0.0939487
0.0945577
0.0950483
0.0954466
0.0957722
0.0960402
0.0962622
0.0964472
0.0966022
0.0967327
0.096843
0.000233884
0.0021667
0.00521076
0.0087457
0.0127219
0.0171718
0.0221347
0.0276299
0.0336326
0.0400542
0.0467329
0.0534488
0.0600006
0.0661812
0.0713309
0.0754313
0.078827
0.081676
0.0840939
0.086164
0.087946
0.0894147
0.0905757
0.0914956
0.0922301
0.0928213
0.0932986
0.093689
0.0940113
0.0942794
0.0945039
0.0946928
0.0948526
0.0949884
0.0951042
0.000225902
0.00226172
0.00541418
0.00909767
0.0132513
0.0178871
0.0230106
0.0285989
0.0345885
0.0408715
0.0472744
0.0536397
0.0598358
0.0656678
0.0705272
0.0743993
0.0776097
0.0803081
0.0826046
0.0845778
0.0862837
0.0876986
0.0888273
0.0897316
0.0904634
0.0910608
0.0915522
0.0919592
0.0922983
0.0925827
0.0928224
0.0930254
0.093198
0.0933451
0.093471
0.00020204
0.00202962
0.00490737
0.00830763
0.0121889
0.0165698
0.0214667
0.0268709
0.0327323
0.0389489
0.0453674
0.0518025
0.0580659
0.06398
0.068909
0.0728242
0.0760529
0.0787485
0.0810268
0.0829741
0.0846536
0.086048
0.0871634
0.0880624
0.0887947
0.0893965
0.0898948
0.0903095
0.0906576
0.0909519
0.0912021
0.0914159
0.0915992
0.0917568
0.0918925
0.000200443
0.0021212
0.00517222
0.00881017
0.0129288
0.0174904
0.0224671
0.0278199
0.0334898
0.039386
0.0453844
0.0514016
0.0572823
0.0628834
0.0676079
0.0714018
0.0745579
0.0772081
0.0794544
0.0813771
0.0830383
0.0844214
0.0855321
0.0864303
0.0871652
0.0877726
0.0882787
0.0887035
0.0890622
0.0893668
0.0896268
0.0898496
0.0900414
0.0902068
0.09035
0.000176192
0.00194307
0.00473092
0.00806079
0.0118816
0.0161896
0.0209716
0.026193
0.0317897
0.0376652
0.0436927
0.0497373
0.0556485
0.0612843
0.0660404
0.0698586
0.0730319
0.0756935
0.0779471
0.0798733
0.0815341
0.0829155
0.0840241
0.0849212
0.0856566
0.0862658
0.0867748
0.0872031
0.0875655
0.0878739
0.0881378
0.0883648
0.0885608
0.0887306
0.088878
0.000176036
0.0019697
0.00484402
0.00828609
0.0121915
0.0165204
0.0212415
0.0263166
0.0316943
0.0372981
0.0430336
0.0488191
0.0545138
0.0599928
0.0646631
0.0684431
0.0716027
0.0742631
0.0765205
0.0784516
0.0801181
0.0815035
0.082615
0.0835143
0.0842515
0.0848627
0.085374
0.0858049
0.0861705
0.0864824
0.0867497
0.0869798
0.0871784
0.0873506
0.0875003
0.0001605
0.00190609
0.00461947
0.00785541
0.0115548
0.0156992
0.020267
0.0252216
0.0305064
0.0360428
0.0417317
0.0474719
0.0531354
0.0585991
0.0632704
0.0670613
0.0702381
0.0729173
0.0751924
0.0771384
0.0788155
0.0802082
0.0813245
0.0822269
0.0829666
0.0835797
0.0840928
0.0845253
0.0848924
0.0852055
0.0854739
0.085705
0.0859049
0.0860782
0.0862289
0.000161443
0.00185596
0.00455488
0.00778775
0.0114647
0.0155525
0.0200242
0.0248461
0.0299724
0.0353362
0.040854
0.046447
0.0519935
0.0573778
0.0620112
0.0657918
0.0689737
0.0716656
0.0739561
0.0759173
0.0776078
0.0790107
0.0801341
0.0810415
0.0817846
0.0824001
0.0829149
0.0833489
0.0837172
0.0840315
0.084301
0.0845331
0.0847337
0.0849074
0.0850583
0.000152612
0.00181303
0.00440489
0.0075011
0.0110373
0.0149919
0.0193432
0.0240583
0.0290897
0.0343709
0.0398171
0.045345
0.0508414
0.0561933
0.0608152
0.0645989
0.0677923
0.0704997
0.0728067
0.0747835
0.0764875
0.0779009
0.0790318
0.0799443
0.0806909
0.0813089
0.0818255
0.0822608
0.08263
0.0829451
0.0832152
0.0834478
0.0836487
0.0838226
0.0839737
0.000152149
0.00175617
0.00430264
0.00735396
0.0108321
0.0147104
0.0189669
0.0235724
0.0284855
0.0336474
0.0389807
0.04441
0.0498292
0.0551282
0.0597244
0.0635013
0.0666989
0.0694162
0.0717354
0.0737246
0.0754395
0.0768616
0.0779984
0.0789148
0.0796638
0.0802832
0.0808005
0.081236
0.0816052
0.0819201
0.0821899
0.0824222
0.0826227
0.0827964
0.0829472
0.000147413
0.00171643
0.00418737
0.00714705
0.0105285
0.01431
0.0184718
0.0229859
0.0278116
0.0328922
0.0381522
0.0435138
0.0488787
0.0541385
0.0587141
0.0624838
0.0656823
0.0684052
0.0707319
0.0727285
0.0744498
0.0758763
0.0770155
0.0779327
0.0786813
0.0792997
0.0798154
0.0802492
0.0806167
0.0809298
0.0811979
0.0814285
0.0816276
0.0817999
0.0819495
0.000145995
0.0016751
0.0041031
0.00701423
0.0103366
0.014047
0.0181267
0.0225504
0.0272815
0.0322689
0.0374423
0.0427259
0.0480287
0.0532421
0.0577897
0.0615452
0.0647375
0.0674587
0.0697858
0.0717831
0.073504
0.0749286
0.0760644
0.0769771
0.0777207
0.0783336
0.0788439
0.0792724
0.0796347
0.079943
0.0802067
0.0804332
0.0806285
0.0807974
0.0809439
0.000143041
0.00164155
0.0040146
0.00686132
0.0101148
0.0137539
0.0177609
0.0221108
0.0267679
0.0316831
0.0367881
0.0420068
0.0472543
0.0524229
0.0569397
0.0606756
0.063855
0.066567
0.0688866
0.0708761
0.0725882
0.0740024
0.075127
0.0760279
0.0767596
0.0773608
0.0778597
0.0782773
0.0786295
0.0789283
0.0791832
0.0794017
0.0795897
0.079752
0.0798925
0.000141526
0.00161025
0.00394556
0.00674786
0.0099489
0.0135279
0.0174686
0.0217482
0.0263333
0.0311769
0.0362135
0.041367
0.0465576
0.0516775
0.056158
0.0598676
0.0630264
0.065721
0.0680239
0.0699962
0.0716893
0.0730828
0.0741862
0.0750659
0.0757766
0.0763575
0.076837
0.0772362
0.0775711
0.0778538
0.0780939
0.0782987
0.0784742
0.0786251
0.0787553
0.000139595
0.00158296
0.00387834
0.00663511
0.0097865
0.0133121
0.0171959
0.0214159
0.0259394
0.0307206
0.0356961
0.0407894
0.0459248
0.0509948
0.0554345
0.0591117
0.0622425
0.0649109
0.0671877
0.0691325
0.0707952
0.0721561
0.0732265
0.0740734
0.0747522
0.0753021
0.075752
0.0761231
0.0764316
0.0766897
0.0769069
0.0770906
0.0772467
0.0773798
0.0774938
0.00013824
0.00155814
0.00382157
0.00654157
0.00965114
0.01313
0.0169627
0.0211279
0.0255939
0.0303164
0.0352335
0.0402683
0.0453483
0.0503659
0.0547603
0.0583991
0.0614944
0.0641281
0.066369
0.0682751
0.0698951
0.0712103
0.0722345
0.0730357
0.0736695
0.074176
0.0745841
0.0749156
0.0751867
0.0754097
0.0755941
0.0757475
0.0758756
0.075983
0.0760734
0.000136847
0.00153582
0.00376899
0.0064546
0.00952608
0.0129633
0.0167507
0.0208674
0.0252821
0.0299511
0.0348139
0.0397934
0.0448181
0.0497816
0.0541266
0.0577213
0.060774
0.0633644
0.0655596
0.0674159
0.0689805
0.0702361
0.0711998
0.0719409
0.0725157
0.0729647
0.0733176
0.0735963
0.0738173
0.0739932
0.0741336
0.074246
0.074336
0.0744084
0.0744665
0.000135715
0.00151553
0.00372235
0.00637796
0.00941571
0.0128154
0.0165617
0.0206338
0.025001
0.0296198
0.0344307
0.039357
0.044326
0.0492336
0.0535255
0.0570708
0.0600741
0.0626132
0.0647532
0.0665486
0.068045
0.0692268
0.0701154
0.0707816
0.0712824
0.0716592
0.0719423
0.0721541
0.0723115
0.0724273
0.0725113
0.0725709
0.0726119
0.0726389
0.0726552
0.0545711
0.0546612
0.0548113
0.0549933
0.0551711
0.0553144
0.0553993
0.0553832
0.0552299
0.0548902
0.0543337
0.0535319
0.0524891
0.051256
0.0498756
0.0483929
0.0468462
0.045262
0.0436458
0.0419724
0.0401776
0.0381574
0.0964677
0.0971505
0.0979178
0.0987428
0.0995665
0.100353
0.101067
0.101692
0.102211
0.102509
0.102541
0.102289
0.101722
0.101047
0.0999569
0.0989108
0.0979646
0.0973281
0.0973113
0.0979698
0.0994358
0.101254
0.122944
0.123454
0.123978
0.124567
0.125158
0.125718
0.126224
0.12664
0.126932
0.127118
0.127157
0.127039
0.126919
0.126973
0.127287
0.127782
0.128225
0.128331
0.127898
0.126882
0.125189
0.123203
0.128423
0.128955
0.129507
0.129959
0.130246
0.130318
0.130129
0.129628
0.128758
0.127461
0.125831
0.123837
0.121508
0.119182
0.116976
0.114884
0.113065
0.111564
0.110365
0.109385
0.108631
0.107879
0.121106
0.121094
0.121037
0.120927
0.120787
0.12059
0.120338
0.120019
0.119609
0.119071
0.11835
0.117458
0.116394
0.115166
0.113851
0.112549
0.111285
0.110076
0.108961
0.107951
0.10704
0.106208
0.11698
0.1168
0.116566
0.116288
0.115975
0.11563
0.115252
0.114834
0.114368
0.113838
0.113228
0.112514
0.111716
0.110843
0.109906
0.10893
0.107938
0.106939
0.105956
0.105008
0.104107
0.10326
0.114009
0.113965
0.113873
0.113733
0.113551
0.11333
0.113065
0.112755
0.112396
0.111984
0.111519
0.110997
0.110431
0.109835
0.109215
0.108576
0.107928
0.107277
0.106629
0.105992
0.10537
0.104767
0.109391
0.109571
0.109715
0.109819
0.109883
0.109905
0.109882
0.109815
0.1097
0.109537
0.109326
0.109065
0.108765
0.108437
0.108087
0.107721
0.107345
0.106965
0.106585
0.106211
0.105845
0.105493
0.105436
0.105688
0.105922
0.106138
0.106332
0.106504
0.10665
0.106769
0.106859
0.106916
0.106939
0.106927
0.106881
0.106807
0.106708
0.106591
0.106458
0.106314
0.106164
0.106009
0.105853
0.105699
0.10185
0.102137
0.102415
0.102682
0.102938
0.103182
0.103412
0.103628
0.103827
0.104009
0.104171
0.104313
0.104429
0.104521
0.104591
0.104643
0.104677
0.104699
0.10471
0.104714
0.104712
0.104707
0.0992116
0.0994888
0.0997601
0.100025
0.100284
0.100537
0.100783
0.101021
0.101252
0.101474
0.101686
0.101888
0.102073
0.10224
0.102389
0.102523
0.102643
0.102752
0.10285
0.10294
0.103022
0.103099
0.0970348
0.0973081
0.0975776
0.0978431
0.0981043
0.0983604
0.0986114
0.0988568
0.0990966
0.0993304
0.0995578
0.0997767
0.0999813
0.100169
0.100342
0.100501
0.100649
0.100786
0.100915
0.101035
0.101149
0.101258
0.0953012
0.0955788
0.0958505
0.0961166
0.0963774
0.0966331
0.0968837
0.0971293
0.0973699
0.0976054
0.0978355
0.098058
0.0982673
0.0984608
0.0986403
0.0988072
0.0989628
0.0991082
0.0992445
0.0993728
0.099494
0.0996091
0.0936843
0.0939852
0.0942806
0.09457
0.0948534
0.0951306
0.0954014
0.0956658
0.0959236
0.0961746
0.0964187
0.0966541
0.0968748
0.0970783
0.0972663
0.0974402
0.0976013
0.0977506
0.0978894
0.0980183
0.0981384
0.0982504
0.092124
0.0924525
0.0927757
0.0930932
0.0934048
0.0937103
0.0940092
0.0943013
0.0945864
0.0948645
0.0951356
0.0953976
0.0956438
0.0958709
0.0960805
0.0962739
0.0964523
0.0966169
0.0967689
0.0969091
0.0970385
0.097158
0.0905957
0.0909472
0.0912954
0.0916397
0.0919796
0.0923143
0.0926433
0.0929661
0.0932823
0.0935914
0.0938935
0.094186
0.0944616
0.094716
0.0949507
0.0951669
0.0953662
0.0955497
0.0957187
0.0958743
0.0960175
0.096149
0.0891325
0.0894985
0.0898627
0.0902244
0.0905835
0.0909396
0.0912923
0.0916411
0.0919852
0.0923235
0.0926553
0.0929776
0.0932818
0.0935633
0.0938238
0.0940649
0.094288
0.0944942
0.0946847
0.0948605
0.0950226
0.095172
0.0877591
0.0881325
0.0885053
0.0888771
0.0892476
0.0896164
0.0899831
0.0903473
0.0907085
0.091066
0.0914192
0.0917647
0.0920927
0.092398
0.0926819
0.092946
0.0931914
0.0934193
0.0936308
0.0938269
0.0940086
0.0941766
0.0864895
0.0868662
0.0872429
0.0876193
0.0879953
0.0883706
0.0887449
0.0891179
0.0894892
0.0898582
0.0902245
0.0905847
0.0909288
0.0912507
0.0915519
0.0918334
0.0920964
0.092342
0.0925711
0.0927847
0.0929836
0.0931687
0.0853196
0.0856976
0.0860758
0.0864541
0.0868325
0.0872107
0.0875887
0.087966
0.0883424
0.0887175
0.089091
0.0894596
0.0898129
0.0901449
0.0904569
0.0907498
0.0910247
0.0912827
0.0915244
0.0917509
0.0919629
0.0921612
0.0842365
0.0846172
0.0849978
0.0853783
0.0857587
0.0861389
0.0865188
0.0868983
0.0872772
0.0876552
0.088032
0.0884045
0.0887624
0.0890996
0.0894172
0.0897165
0.0899983
0.0902636
0.0905132
0.090748
0.0909687
0.0911759
0.0832129
0.0835996
0.0839856
0.0843711
0.0847559
0.08514
0.0855233
0.0859059
0.0862874
0.0866679
0.0870471
0.0874219
0.0877822
0.0881218
0.0884422
0.0887445
0.0890296
0.0892986
0.0895524
0.0897917
0.0900173
0.0902298
0.0822197
0.0826166
0.0830125
0.0834071
0.0838004
0.0841923
0.0845826
0.0849713
0.0853583
0.0857434
0.0861266
0.0865047
0.0868677
0.0872096
0.0875319
0.0878359
0.0881228
0.0883936
0.0886493
0.0888907
0.0891186
0.0893338
0.0812204
0.0816333
0.0820446
0.0824541
0.0828617
0.083267
0.0836699
0.0840701
0.0844675
0.0848618
0.085253
0.085638
0.0860065
0.0863527
0.0866784
0.086985
0.0872739
0.0875463
0.0878034
0.088046
0.0882751
0.0884915
0.0801766
0.0806115
0.0810448
0.0814761
0.081905
0.0823309
0.0827536
0.0831725
0.0835873
0.0839976
0.0844033
0.084801
0.0851801
0.085535
0.0858676
0.0861797
0.0864729
0.0867487
0.0870083
0.0872528
0.0874834
0.0877009
0.0790477
0.0795111
0.0799734
0.0804341
0.0808922
0.0813472
0.0817982
0.0822446
0.0826857
0.0831209
0.0835495
0.0839681
0.0843654
0.0847356
0.0850809
0.0854034
0.0857051
0.0859876
0.0862526
0.0865013
0.0867352
0.0869552
0.0777941
0.078292
0.0787902
0.0792877
0.0797836
0.0802766
0.0807656
0.0812496
0.0817274
0.082198
0.0826603
0.0831102
0.0835354
0.0839296
0.0842955
0.0846355
0.0849518
0.0852465
0.0855214
0.0857783
0.0860186
0.0862438
0.0763797
0.0769169
0.0774567
0.077998
0.0785394
0.0790795
0.0796165
0.0801489
0.0806749
0.0811929
0.0817013
0.0821949
0.0826599
0.0830893
0.0834859
0.0838525
0.0841916
0.0845057
0.084797
0.0850675
0.0853191
0.0855536
0.0747752
0.0753543
0.0759396
0.0765298
0.0771234
0.0777184
0.0783127
0.0789041
0.0794902
0.0800685
0.0806366
0.081188
0.0817067
0.0821843
0.0826238
0.0830282
0.0834004
0.0837431
0.0840591
0.0843507
0.0846202
0.0848695
0.0729609
0.0735816
0.0742135
0.0748552
0.075505
0.0761608
0.07682
0.0774798
0.078137
0.0787883
0.0794301
0.0800544
0.0806421
0.0811828
0.0816794
0.0821348
0.0825523
0.0829349
0.0832858
0.0836077
0.0839033
0.0841751
0.0355686
0.0322726
0.0290446
0.0262269
0.0239935
0.0225244
0.102595
0.103001
0.102394
0.101251
0.0998928
0.0982379
0.121015
0.118483
0.115601
0.112272
0.108416
0.10445
0.106942
0.105745
0.104388
0.102858
0.101211
0.0992123
0.105298
0.104259
0.10312
0.101868
0.100511
0.0990549
0.102376
0.101491
0.10068
0.0999398
0.0992767
0.0986482
0.104143
0.103531
0.102964
0.102445
0.101974
0.101557
0.105127
0.104784
0.104485
0.104233
0.104029
0.103873
0.10552
0.105344
0.105195
0.105077
0.104992
0.10494
0.104656
0.104579
0.104519
0.104477
0.104457
0.104459
0.103114
0.103079
0.10305
0.103032
0.103024
0.103027
0.101301
0.101284
0.10127
0.101259
0.101251
0.101248
0.0996624
0.0996558
0.0996476
0.0996385
0.0996287
0.0996184
0.0983075
0.0983102
0.0983091
0.0983047
0.098297
0.098286
0.0972252
0.0972393
0.0972479
0.0972511
0.097249
0.0972415
0.0962263
0.0962483
0.096264
0.0962734
0.0962766
0.0962734
0.0952617
0.0952902
0.0953116
0.095326
0.0953333
0.0953335
0.094278
0.0943109
0.0943361
0.094354
0.0943641
0.0943666
0.0932802
0.0933158
0.0933434
0.0933629
0.0933742
0.0933773
0.0922801
0.0923169
0.0923452
0.0923649
0.0923761
0.0923785
0.0912997
0.0913363
0.0913642
0.0913831
0.0913929
0.0913937
0.090356
0.0903916
0.0904181
0.0904353
0.0904432
0.0904417
0.0894606
0.0894946
0.0895191
0.0895342
0.0895395
0.0895353
0.0886181
0.0886501
0.0886723
0.0886848
0.0886874
0.0886802
0.087827
0.0878568
0.0878765
0.0878864
0.0878862
0.0878758
0.0870813
0.0871087
0.087126
0.0871332
0.0871302
0.0871168
0.0863711
0.0863963
0.0864112
0.0864158
0.0864101
0.086394
0.085684
0.0857071
0.0857198
0.0857221
0.0857139
0.0856953
0.0850057
0.0850267
0.0850373
0.0850375
0.0850272
0.0850064
0.0843201
0.084339
0.0843476
0.084346
0.084334
0.0843116
0.021922
0.0220566
0.0229146
0.0246201
0.0271243
0.0303757
0.0341664
0.0376808
0.0406091
0.043547
0.0467125
0.0501175
0.0536312
0.0571204
0.0605133
0.0637427
0.0667425
0.069464
0.0718842
0.0740051
0.0758487
0.0774535
0.0964839
0.0947652
0.092731
0.0906051
0.0884719
0.0862925
0.0839645
0.0817933
0.0805628
0.0800537
0.08049
0.0816783
0.0833723
0.0853387
0.0874235
0.0895346
0.0916222
0.0936621
0.0956452
0.0975697
0.0994368
0.101249
0.101267
0.0985453
0.0959858
0.0936262
0.0916132
0.0901515
0.0892861
0.0886366
0.0880775
0.0874711
0.0868045
0.0863389
0.086301
0.0865314
0.0869641
0.0876279
0.0885449
0.0897302
0.0911871
0.0929034
0.0948462
0.0969613
0.0968631
0.0948878
0.0932289
0.0919218
0.0908128
0.0896812
0.0885496
0.0876848
0.0870629
0.0867241
0.0866994
0.0867542
0.0867881
0.08705
0.087626
0.088467
0.0896059
0.0909059
0.0923525
0.0938993
0.0955062
0.0971396
0.0976548
0.096414
0.0952276
0.0941233
0.0931258
0.0922641
0.0915799
0.0911161
0.0908943
0.0909176
0.0911718
0.0916258
0.0922388
0.0929573
0.0937744
0.0946988
0.0956566
0.0966519
0.0976726
0.0987031
0.0997357
0.100768
0.0981323
0.0977428
0.0974025
0.0971223
0.0969114
0.0967797
0.0967361
0.0967878
0.0969402
0.0971976
0.0975651
0.0980514
0.0986507
0.0993317
0.10008
0.100881
0.101705
0.102536
0.103367
0.104189
0.104993
0.105775
0.101267
0.101111
0.101006
0.100958
0.100971
0.101048
0.101192
0.101405
0.101689
0.102045
0.10247
0.102957
0.103492
0.104071
0.104696
0.105355
0.10604
0.106738
0.107438
0.108131
0.108808
0.109464
0.103805
0.103822
0.103876
0.103966
0.104097
0.104267
0.10448
0.104735
0.105043
0.10541
0.105844
0.106344
0.106885
0.107428
0.107955
0.108451
0.108905
0.109303
0.109641
0.109925
0.110158
0.110346
0.10493
0.104958
0.105013
0.105098
0.105214
0.105362
0.105545
0.105762
0.106003
0.106255
0.106506
0.106741
0.106941
0.107097
0.107208
0.107277
0.107311
0.107321
0.107313
0.107287
0.107243
0.107179
0.104452
0.104432
0.104422
0.104424
0.104435
0.104454
0.104478
0.104504
0.104527
0.104542
0.104544
0.104529
0.104494
0.104439
0.104366
0.104277
0.104174
0.104058
0.10393
0.103791
0.103643
0.103486
0.102986
0.102899
0.102814
0.10273
0.102645
0.102558
0.102469
0.102375
0.102275
0.102167
0.102048
0.101919
0.10178
0.101636
0.101486
0.10133
0.101169
0.101003
0.100834
0.100661
0.100486
0.100308
0.101187
0.101068
0.100949
0.100827
0.100703
0.100576
0.100445
0.10031
0.100169
0.100022
0.0998667
0.0997036
0.0995361
0.0993674
0.0991975
0.0990261
0.0988529
0.0986775
0.0984997
0.0983197
0.0981378
0.0979541
0.0995503
0.0994264
0.0993007
0.0991723
0.0990407
0.0989055
0.0987661
0.098622
0.0984723
0.0983162
0.0981525
0.0979812
0.0978059
0.0976296
0.0974517
0.0972716
0.0970891
0.0969035
0.0967146
0.0965217
0.0963244
0.0961225
0.0982235
0.0981122
0.0979972
0.0978778
0.0977534
0.0976235
0.0974874
0.0973443
0.0971933
0.0970333
0.0968628
0.0966816
0.0964933
0.0963013
0.0961053
0.0959046
0.0956987
0.0954868
0.0952683
0.0950429
0.0948108
0.0945718
0.0971827
0.0970761
0.0969638
0.0968448
0.0967182
0.0965833
0.0964391
0.0962844
0.0961182
0.095939
0.0957453
0.0955367
0.0953176
0.0950922
0.0948602
0.0946212
0.0943749
0.094121
0.0938593
0.0935898
0.0933127
0.0930281
0.0962158
0.0961065
0.0959893
0.0958631
0.0957271
0.0955803
0.0954215
0.0952494
0.0950625
0.0948591
0.0946371
0.094396
0.0941407
0.0938765
0.0936041
0.0933235
0.0930347
0.0927377
0.0924327
0.0921202
0.0918007
0.0914748
0.0952719
0.0951512
0.0950206
0.094879
0.0947254
0.0945586
0.0943774
0.0941803
0.0939656
0.0937316
0.0934762
0.0931991
0.0929063
0.0926041
0.0922927
0.0919725
0.0916442
0.0913088
0.0909672
0.0906197
0.0902669
0.0899095
0.0942988
0.0941627
0.0940148
0.0938542
0.0936799
0.0934906
0.0932851
0.0930617
0.0928191
0.0925553
0.0922683
0.0919583
0.0916323
0.0912977
0.0909551
0.0906054
0.0902493
0.0898874
0.0895206
0.0891493
0.0887742
0.088396
0.0933016
0.0931486
0.0929828
0.0928033
0.0926089
0.0923984
0.0921706
0.0919241
0.0916572
0.0913683
0.0910557
0.0907196
0.0903681
0.0900093
0.0896439
0.0892727
0.0888964
0.0885157
0.0881312
0.0877436
0.0873534
0.0869612
0.092295
0.0921269
0.0919453
0.0917494
0.0915379
0.0913098
0.0910639
0.0907987
0.0905128
0.0902046
0.0898724
0.0895168
0.0891466
0.0887701
0.0883882
0.0880015
0.0876109
0.0872168
0.0868201
0.0864212
0.0860207
0.0856193
0.0913032
0.0911225
0.0909281
0.090719
0.0904941
0.0902523
0.0899924
0.089713
0.0894128
0.0890902
0.0887435
0.0883735
0.0879894
0.0875999
0.0872058
0.0868077
0.0864064
0.0860024
0.0855965
0.0851892
0.084781
0.0843723
0.0903451
0.0901547
0.0899504
0.0897312
0.089496
0.0892437
0.088973
0.0886828
0.0883715
0.0880376
0.0876794
0.0872979
0.0869025
0.0865022
0.0860976
0.0856896
0.0852787
0.0848657
0.0844511
0.0840355
0.0836194
0.0832033
0.0894335
0.0892356
0.0890235
0.0887963
0.0885528
0.088292
0.0880125
0.087713
0.0873921
0.0870482
0.0866795
0.0862871
0.0858806
0.0854692
0.0850538
0.0846349
0.0842134
0.08379
0.0833651
0.0829396
0.0825138
0.0820883
0.0885737
0.0883694
0.0881507
0.0879164
0.0876655
0.0873966
0.0871086
0.0867999
0.0864689
0.0861142
0.0857337
0.0853286
0.0849089
0.084484
0.0840548
0.0836221
0.0831867
0.0827493
0.0823107
0.0818716
0.0814324
0.080994
0.0877648
0.0875543
0.0873288
0.0870871
0.086828
0.0865501
0.0862521
0.0859322
0.0855889
0.0852204
0.0848247
0.0844028
0.0839653
0.0835221
0.0830741
0.0826223
0.0821677
0.0817112
0.0812536
0.0807957
0.0803383
0.079882
0.0870008
0.0867831
0.0865495
0.0862986
0.0860291
0.0857395
0.0854282
0.0850934
0.0847332
0.0843458
0.0839291
0.083484
0.0830218
0.0825532
0.0820792
0.0816012
0.0811203
0.0806377
0.0801544
0.0796714
0.0791897
0.07871
0.086272
0.0860448
0.0858002
0.0855369
0.0852532
0.0849474
0.0846177
0.084262
0.0838785
0.0834648
0.0830188
0.0825417
0.0820456
0.0815423
0.0810332
0.0805201
0.0800044
0.0794876
0.0789711
0.0784561
0.0779437
0.0774351
0.0855657
0.0853253
0.0850657
0.084785
0.0844814
0.084153
0.0837976
0.0834131
0.0829972
0.0825475
0.0820618
0.0815414
0.0810002
0.0804511
0.0798964
0.0793381
0.0787783
0.0782189
0.0776616
0.077108
0.0765594
0.0760168
0.0848672
0.0846085
0.0843278
0.084023
0.083692
0.0833325
0.0829422
0.0825185
0.0820591
0.0815614
0.0810232
0.0804466
0.0798472
0.0792402
0.0786285
0.0780149
0.0774021
0.0767923
0.0761877
0.07559
0.0750009
0.0744214
0.0841601
0.0838762
0.0835666
0.083229
0.082861
0.0824599
0.0820232
0.081548
0.0810318
0.0804722
0.0798672
0.0792198
0.0785487
0.0778714
0.0771919
0.0765137
0.0758401
0.075174
0.0745176
0.073873
0.0732417
0.0726247
0.078575
0.0794134
0.0803217
0.0812581
0.0821655
0.0829849
0.0836667
0.0841901
0.0845791
0.0849019
0.0852416
0.0856481
0.0860415
0.0861844
0.0858355
0.084899
0.0834505
0.0813201
0.0787151
0.0762674
0.0723004
0.0682902
0.0647775
0.0613008
0.0582659
0.0547019
0.050169
0.0444632
0.0380437
0.0310132
0.023787
0.016596
0.00956582
0.00325003
0.00075735
0.102689
0.103848
0.105131
0.106536
0.108061
0.109685
0.111276
0.112741
0.113605
0.114145
0.114047
0.113152
0.111398
0.108238
0.104528
0.100117
0.0937919
0.0864057
0.0793103
0.0722506
0.0683179
0.0725213
0.0794685
0.0847968
0.0862133
0.0877826
0.0891693
0.0880742
0.0834247
0.0738945
0.0603421
0.0441654
0.0269894
0.0109491
0.00130854
0.0988229
0.100463
0.102366
0.104484
0.106683
0.108693
0.11016
0.110973
0.111091
0.110823
0.109987
0.108443
0.105621
0.100521
0.0921575
0.0801895
0.0666049
0.0533168
0.044557
0.0480021
0.0572467
0.0668207
0.0768492
0.0841977
0.087044
0.0851474
0.0801065
0.0729825
0.0641935
0.054379
0.0435877
0.0317456
0.019572
0.00832823
0.00106227
0.0984756
0.0996177
0.100947
0.102468
0.104153
0.105956
0.107776
0.109446
0.110692
0.111215
0.11064
0.10844
0.104071
0.0967046
0.0831649
0.0650281
0.0528932
0.0420961
0.0349053
0.0327504
0.0341547
0.0372906
0.0407576
0.0432934
0.0439788
0.0437983
0.0412755
0.0364114
0.0303303
0.0234979
0.0170001
0.0114362
0.00684775
0.00304775
0.000597377
0.101588
0.102241
0.103001
0.103893
0.104954
0.106225
0.107745
0.109526
0.111498
0.113376
0.114525
0.1146
0.113362
0.111003
0.107867
0.104517
0.100722
0.0945472
0.085696
0.0755069
0.0645099
0.0529925
0.042739
0.0353102
0.0302601
0.0269304
0.0243641
0.0219859
0.0195634
0.0170671
0.0143826
0.0112587
0.0074961
0.00328418
0.000486642
0.106359
0.106777
0.107228
0.107712
0.108233
0.108788
0.109372
0.109979
0.11061
0.111288
0.112079
0.11277
0.113213
0.113331
0.112753
0.111016
0.108095
0.10421
0.0993636
0.0929988
0.0845751
0.0736194
0.0609663
0.048978
0.0383144
0.0313134
0.0290723
0.028451
0.0273341
0.0252858
0.0218316
0.017144
0.0114433
0.00506739
0.000608985
0.109962
0.110341
0.110752
0.1112
0.111687
0.112211
0.112773
0.113364
0.11396
0.114506
0.11492
0.115045
0.114742
0.113807
0.112145
0.109814
0.107003
0.103618
0.0994162
0.0939443
0.0864731
0.07565
0.0608388
0.0442129
0.0279031
0.0164907
0.0117588
0.0122161
0.0131457
0.0133406
0.0122585
0.00999073
0.00685407
0.003241
0.000425331
0.110484
0.110601
0.110716
0.110827
0.110935
0.111041
0.111137
0.111213
0.111253
0.111237
0.111111
0.110802
0.110237
0.109345
0.107984
0.105956
0.10323
0.0998088
0.0956518
0.0905903
0.0842399
0.075985
0.0659575
0.0552677
0.0442177
0.0331067
0.0228128
0.0145493
0.00896211
0.00561304
0.00359495
0.00239341
0.00161002
0.000778864
0.000191215
0.10716
0.107205
0.107249
0.10729
0.107328
0.107358
0.107377
0.107373
0.107329
0.10721
0.106956
0.10649
0.105731
0.10458
0.102938
0.100822
0.0983236
0.0954025
0.0919774
0.0879289
0.0830854
0.0770588
0.06986
0.0622467
0.0546189
0.0471864
0.0400293
0.0332632
0.0269272
0.0210338
0.0155869
0.010595
0.00610289
0.00235068
0.000268368
0.103404
0.103407
0.103407
0.103399
0.10338
0.103343
0.103279
0.103175
0.103011
0.102761
0.102391
0.101857
0.101108
0.100083
0.0987002
0.0968984
0.0946728
0.0920009
0.0888566
0.08518
0.0808386
0.0754802
0.0691
0.0623121
0.0552397
0.0480431
0.0409126
0.0340205
0.0274887
0.0213982
0.0157995
0.010742
0.00628322
0.00255746
0.000229704
0.100203
0.10018
0.100152
0.100116
0.100071
0.100011
0.099929
0.0998141
0.0996484
0.0994044
0.0990426
0.0985242
0.0977978
0.0967933
0.0954269
0.093681
0.0916073
0.0891759
0.08631
0.0828907
0.0787505
0.0735216
0.0671962
0.0604282
0.0533988
0.0463395
0.039417
0.0327489
0.0264584
0.0205984
0.015212
0.010334
0.00601235
0.00240463
0.000250279
0.0978362
0.0977905
0.0977359
0.0976695
0.097587
0.0974825
0.0973479
0.0971721
0.0969405
0.0966334
0.0962257
0.0956842
0.0949641
0.0940041
0.0927275
0.0911052
0.0891483
0.0867914
0.0839474
0.0805219
0.0763785
0.0711814
0.0649611
0.0583718
0.051574
0.044752
0.0380569
0.031605
0.0255263
0.0198903
0.014729
0.0100645
0.00592948
0.00243665
0.0002169
0.095983
0.0959129
0.0958311
0.0957348
0.0956202
0.0954819
0.0953124
0.0951009
0.0948319
0.0944832
0.0940308
0.0934426
0.0926747
0.0916653
0.0903376
0.0886663
0.0866754
0.0842987
0.081455
0.0780259
0.0738503
0.0685828
0.0622731
0.0556179
0.0488084
0.042064
0.0355071
0.0292916
0.0235157
0.0182292
0.013448
0.00917
0.005398
0.00221579
0.000218395
0.0944027
0.0943097
0.0942011
0.0940735
0.0939224