/*--------------------------------*- C++ -*----------------------------------*\
  =========                 |
  \\      /  F ield         | OpenFOAM: The Open Source CFD Toolbox
   \\    /   O peration     | Website:  https://openfoam.org
    \\  /    A nd           | Version:  8
     \\/     M anipulation  |
\*---------------------------------------------------------------------------*/
FoamFile
{
    version     2.0;
    format      ascii;
    class       volScalarField;
    location    "0.2";
    object      T;
}
// * * * * * * * * * * * * * * * * * * * * * * * * * * * * * * * * * * * * * //

dimensions      [0 0 0 1 0 0 0];

internalField   nonuniform List<scalar> 
15677
(
297.111
297.195
297.281
297.366
297.458
297.56
297.671
297.788
297.904
298.008
298.113
298.162
298.133
297.992
297.857
297.773
297.728
297.714
297.723
297.754
297.815
297.902
297.991
298.073
298.145
298.207
298.259
298.303
298.337
298.362
298.379
298.39
298.396
298.398
298.399
298.213
298.169
298.118
298.096
298.103
298.157
298.277
298.491
298.846
299.338
299.813
300.02
299.964
299.682
299.329
299.031
298.81
298.66
298.566
298.514
298.499
298.51
298.534
298.564
298.59
298.613
298.634
298.652
298.67
298.688
298.706
298.725
298.744
298.763
298.781
301.13
300.903
300.748
300.61
300.473
300.335
300.199
300.073
299.954
299.822
299.612
299.213
298.89
298.746
298.739
298.824
298.921
299.008
299.078
299.137
299.189
299.236
299.279
299.314
299.341
299.36
299.374
299.383
299.391
299.396
299.399
299.4
299.402
299.403
299.405
299.993
299.816
299.707
299.618
299.542
299.48
299.435
299.414
299.408
299.453
299.567
299.653
299.675
299.712
299.942
300.272
300.503
300.588
300.576
300.512
300.423
300.32
300.216
300.116
300.024
299.946
299.883
299.837
299.808
299.793
299.788
299.79
299.797
299.806
299.817
301.569
301.459
301.361
301.265
301.168
301.075
300.989
300.917
300.863
300.82
300.75
300.654
300.459
300.206
300.06
300.007
300.009
300.021
300.021
300.011
299.998
299.986
299.98
299.979
299.986
299.998
300.013
300.031
300.051
300.073
300.096
300.121
300.144
300.167
300.188
301.162
301.088
301.03
300.979
300.928
300.878
300.829
300.783
300.74
300.701
300.664
300.633
300.619
300.631
300.689
300.734
300.75
300.743
300.717
300.675
300.629
300.584
300.543
300.507
300.479
300.457
300.442
300.433
300.428
300.426
300.426
300.428
300.429
300.431
300.432
301.58
301.542
301.505
301.466
301.424
301.378
301.328
301.275
301.218
301.158
301.098
301.045
300.999
300.954
300.901
300.848
300.8
300.764
300.737
300.716
300.697
300.68
300.664
300.651
300.64
300.632
300.628
300.627
300.628
300.63
300.634
300.639
300.643
300.648
300.652
301.351
301.353
301.348
301.337
301.321
301.301
301.276
301.247
301.215
301.181
301.147
301.117
301.086
301.065
301.021
300.964
300.916
300.88
300.851
300.827
300.806
300.787
300.771
300.759
300.749
300.741
300.735
300.73
300.725
300.722
300.719
300.717
300.715
300.713
300.712
300.96
300.963
300.967
300.97
300.973
300.975
300.978
300.979
300.981
300.982
300.985
300.988
300.989
300.983
300.968
300.95
300.933
300.917
300.901
300.885
300.871
300.857
300.846
300.837
300.83
300.824
300.82
300.817
300.815
300.814
300.812
300.811
300.81
300.809
300.808
300.961
300.958
300.957
300.956
300.956
300.955
300.955
300.954
300.954
300.953
300.951
300.949
300.945
300.94
300.933
300.925
300.916
300.908
300.9
300.891
300.883
300.875
300.867
300.861
300.855
300.851
300.847
300.843
300.84
300.838
300.835
300.834
300.832
300.83
300.829
300.987
300.986
300.986
300.986
300.985
300.985
300.984
300.983
300.982
300.981
300.978
300.975
300.971
300.966
300.959
300.952
300.945
300.937
300.929
300.922
300.914
300.908
300.902
300.898
300.894
300.89
300.887
300.885
300.883
300.881
300.879
300.878
300.876
300.875
300.874
300.988
300.991
300.993
300.994
300.995
300.995
300.995
300.995
300.994
300.992
300.989
300.985
300.981
300.975
300.968
300.962
300.955
300.948
300.941
300.934
300.927
300.921
300.916
300.912
300.908
300.905
300.902
300.899
300.897
300.895
300.894
300.892
300.891
300.89
300.889
301.048
301.044
301.042
301.039
301.037
301.034
301.031
301.028
301.024
301.02
301.016
301.011
301.005
300.998
300.991
300.984
300.976
300.969
300.962
300.956
300.949
300.943
300.939
300.934
300.931
300.928
300.925
300.923
300.921
300.919
300.918
300.917
300.915
300.914
300.913
301.035
301.036
301.037
301.038
301.038
301.038
301.037
301.036
301.034
301.031
301.028
301.023
301.018
301.011
301.004
300.997
300.99
300.983
300.976
300.97
300.964
300.958
300.953
300.949
300.945
300.942
300.94
300.937
300.936
300.934
300.933
300.931
300.93
300.929
300.928
301.085
301.081
301.078
301.075
301.072
301.069
301.066
301.062
301.058
301.054
301.049
301.044
301.038
301.031
301.023
301.016
301.009
301.002
300.995
300.988
300.982
300.976
300.971
300.967
300.964
300.961
300.958
300.956
300.954
300.953
300.951
300.95
300.949
300.948
300.947
301.078
301.078
301.077
301.076
301.075
301.074
301.072
301.07
301.067
301.064
301.06
301.056
301.05
301.044
301.037
301.03
301.023
301.017
301.01
301.004
300.997
300.992
300.987
300.983
300.98
300.977
300.974
300.972
300.97
300.969
300.967
300.966
300.965
300.964
300.963
301.106
301.103
301.101
301.099
301.096
301.094
301.091
301.088
301.085
301.081
301.077
301.072
301.066
301.059
301.053
301.046
301.039
301.033
301.026
301.02
301.014
301.009
301.004
301
300.997
300.994
300.991
300.989
300.987
300.986
300.985
300.983
300.982
300.981
300.98
301.109
301.107
301.106
301.105
301.103
301.102
301.1
301.097
301.095
301.091
301.088
301.083
301.078
301.072
301.066
301.059
301.053
301.047
301.041
301.035
301.029
301.024
301.019
301.016
301.012
301.01
301.007
301.005
301.004
301.002
301.001
301
300.998
300.998
300.997
301.127
301.124
301.122
301.12
301.118
301.116
301.113
301.111
301.108
301.104
301.1
301.096
301.091
301.085
301.079
301.073
301.067
301.061
301.055
301.049
301.044
301.039
301.035
301.031
301.028
301.025
301.023
301.021
301.019
301.018
301.017
301.016
301.015
301.014
301.013
301.131
301.13
301.128
301.127
301.125
301.124
301.122
301.119
301.117
301.114
301.11
301.106
301.101
301.096
301.09
301.085
301.079
301.073
301.068
301.063
301.057
301.053
301.049
301.045
301.042
301.04
301.038
301.036
301.034
301.033
301.032
301.031
301.03
301.029
301.028
301.144
301.142
301.14
301.138
301.136
301.134
301.132
301.13
301.127
301.124
301.121
301.117
301.112
301.107
301.101
301.096
301.091
301.085
301.08
301.075
301.07
301.066
301.062
301.059
301.056
301.054
301.052
301.05
301.048
301.047
301.046
301.045
301.044
301.043
301.042
301.149
301.148
301.146
301.145
301.143
301.142
301.14
301.138
301.135
301.133
301.129
301.126
301.121
301.116
301.111
301.106
301.101
301.096
301.091
301.087
301.082
301.078
301.074
301.071
301.069
301.066
301.065
301.063
301.062
301.06
301.059
301.058
301.057
301.057
301.056
301.159
301.156
301.155
301.153
301.152
301.15
301.148
301.146
301.144
301.141
301.138
301.134
301.13
301.125
301.12
301.116
301.111
301.106
301.102
301.097
301.093
301.089
301.086
301.083
301.08
301.078
301.077
301.075
301.074
301.073
301.072
301.071
301.07
301.069
301.068
301.164
301.162
301.161
301.16
301.158
301.157
301.155
301.153
301.151
301.148
301.145
301.142
301.138
301.134
301.129
301.125
301.12
301.116
301.111
301.107
301.103
301.099
301.096
301.094
301.091
301.089
301.088
301.086
301.085
301.084
301.083
301.082
301.081
301.081
301.08
301.171
301.169
301.168
301.166
301.165
301.163
301.162
301.16
301.158
301.155
301.152
301.149
301.146
301.141
301.137
301.133
301.128
301.124
301.12
301.116
301.112
301.109
301.106
301.103
301.101
301.099
301.098
301.097
301.095
301.094
301.093
301.093
301.092
301.091
301.091
301.176
301.175
301.173
301.172
301.171
301.169
301.168
301.166
301.164
301.162
301.159
301.156
301.152
301.148
301.144
301.14
301.136
301.132
301.128
301.125
301.121
301.118
301.115
301.113
301.11
301.109
301.107
301.106
301.105
301.104
301.103
301.102
301.102
301.101
301.1
301.182
301.18
301.179
301.178
301.176
301.175
301.173
301.172
301.17
301.167
301.165
301.162
301.159
301.155
301.151
301.147
301.143
301.14
301.136
301.132
301.129
301.126
301.123
301.121
301.119
301.117
301.116
301.115
301.114
301.113
301.112
301.111
301.111
301.11
301.109
301.187
301.185
301.184
301.183
301.181
301.18
301.179
301.177
301.175
301.173
301.171
301.168
301.165
301.161
301.157
301.154
301.15
301.147
301.143
301.14
301.136
301.133
301.131
301.129
301.127
301.125
301.124
301.123
301.122
301.121
301.12
301.119
301.119
301.118
301.118
301.191
301.19
301.188
301.187
301.186
301.185
301.183
301.182
301.18
301.178
301.176
301.173
301.17
301.167
301.163
301.16
301.156
301.153
301.15
301.146
301.143
301.14
301.138
301.136
301.134
301.133
301.131
301.13
301.129
301.128
301.128
301.127
301.126
301.126
301.125
301.195
301.194
301.193
301.192
301.19
301.189
301.188
301.186
301.185
301.183
301.181
301.178
301.175
301.172
301.169
301.165
301.162
301.159
301.156
301.153
301.15
301.147
301.145
301.143
301.141
301.139
301.138
301.137
301.136
301.135
301.134
301.134
301.133
301.133
301.132
298.399
298.399
298.395
298.388
298.378
298.366
298.351
298.332
298.309
298.282
298.251
298.214
298.172
298.127
298.08
298.033
297.987
297.943
297.905
297.873
297.848
297.83
298.801
298.824
298.847
298.869
298.888
298.902
298.91
298.908
298.896
298.87
298.825
298.766
298.697
298.625
298.558
298.497
298.441
298.391
298.346
298.307
298.274
298.246
299.406
299.408
299.415
299.428
299.447
299.473
299.506
299.545
299.591
299.644
299.705
299.773
299.845
299.92
299.997
300.073
300.148
300.22
300.288
300.351
300.408
300.458
299.829
299.845
299.864
299.886
299.909
299.934
299.958
299.979
299.995
300.005
300.007
300.002
299.991
299.976
299.958
299.942
299.93
299.92
299.913
299.908
299.904
299.901
300.212
300.24
300.27
300.302
300.334
300.366
300.396
300.425
300.452
300.476
300.498
300.516
300.532
300.545
300.557
300.569
300.578
300.587
300.598
300.611
300.625
300.641
300.431
300.429
300.428
300.429
300.432
300.436
300.442
300.448
300.456
300.465
300.474
300.483
300.492
300.5
300.508
300.515
300.521
300.526
300.531
300.535
300.54
300.544
300.655
300.656
300.658
300.66
300.661
300.662
300.664
300.666
300.668
300.672
300.677
300.682
300.688
300.694
300.7
300.707
300.713
300.719
300.726
300.732
300.739
300.745
300.709
300.705
300.701
300.698
300.695
300.692
300.69
300.689
300.688
300.687
300.687
300.688
300.69
300.692
300.694
300.696
300.699
300.702
300.705
300.708
300.712
300.715
300.805
300.8
300.796
300.792
300.787
300.783
300.78
300.776
300.773
300.77
300.768
300.766
300.765
300.765
300.765
300.766
300.767
300.768
300.77
300.772
300.774
300.776
300.826
300.822
300.818
300.814
300.81
300.806
300.802
300.798
300.794
300.791
300.787
300.784
300.782
300.78
300.779
300.778
300.777
300.777
300.777
300.777
300.777
300.778
300.871
300.867
300.864
300.86
300.856
300.852
300.848
300.844
300.84
300.836
300.832
300.828
300.825
300.822
300.819
300.816
300.814
300.812
300.81
300.809
300.808
300.807
300.887
300.884
300.88
300.877
300.874
300.87
300.867
300.863
300.859
300.856
300.852
300.848
300.845
300.842
300.839
300.836
300.833
300.831
300.828
300.826
300.824
300.822
300.911
300.908
300.905
300.902
300.899
300.895
300.892
300.888
300.885
300.881
300.878
300.874
300.871
300.868
300.864
300.861
300.858
300.856
300.853
300.851
300.848
300.846
300.926
300.923
300.921
300.918
300.915
300.911
300.908
300.905
300.902
300.898
300.895
300.892
300.888
300.885
300.882
300.879
300.877
300.874
300.871
300.869
300.866
300.864
300.945
300.942
300.939
300.936
300.933
300.929
300.926
300.923
300.92
300.916
300.913
300.91
300.906
300.903
300.9
300.897
300.895
300.892
300.889
300.887
300.884
300.882
300.961
300.958
300.955
300.952
300.949
300.945
300.942
300.939
300.935
300.932
300.929
300.925
300.922
300.919
300.916
300.913
300.91
300.908
300.905
300.903
300.9
300.898
300.978
300.975
300.972
300.968
300.965
300.962
300.958
300.955
300.951
300.948
300.944
300.941
300.938
300.934
300.931
300.928
300.926
300.923
300.92
300.918
300.915
300.913
300.995
300.991
300.988
300.984
300.981
300.978
300.974
300.97
300.967
300.963
300.96
300.956
300.953
300.949
300.946
300.943
300.94
300.938
300.935
300.932
300.93
300.928
301.011
301.007
301.004
301
300.997
300.993
300.989
300.986
300.982
300.978
300.975
300.971
300.967
300.964
300.961
300.958
300.955
300.952
300.949
300.947
300.944
300.942
301.026
301.023
301.019
301.015
301.012
301.008
301.004
301.001
300.997
300.993
300.989
300.985
300.982
300.978
300.975
300.972
300.969
300.966
300.963
300.96
300.958
300.955
301.04
301.037
301.033
301.03
301.026
301.022
301.019
301.015
301.011
301.007
301.003
300.999
300.995
300.992
300.988
300.985
300.982
300.979
300.976
300.973
300.971
300.968
301.054
301.05
301.047
301.043
301.04
301.036
301.032
301.028
301.024
301.021
301.017
301.013
301.009
301.005
301.001
300.998
300.995
300.992
300.989
300.986
300.984
300.981
301.066
301.063
301.06
301.056
301.052
301.049
301.045
301.041
301.037
301.033
301.029
301.025
301.021
301.018
301.014
301.011
301.007
301.004
301.001
300.998
300.996
300.993
301.078
301.075
301.071
301.068
301.064
301.061
301.057
301.053
301.049
301.045
301.041
301.037
301.033
301.029
301.026
301.022
301.019
301.016
301.013
301.01
301.007
301.004
301.089
301.086
301.082
301.079
301.075
301.072
301.068
301.064
301.06
301.056
301.052
301.048
301.044
301.041
301.037
301.034
301.03
301.027
301.024
301.021
301.018
301.015
301.099
301.095
301.092
301.089
301.085
301.082
301.078
301.074
301.071
301.067
301.063
301.059
301.055
301.051
301.047
301.044
301.041
301.037
301.034
301.031
301.028
301.026
301.108
301.105
301.101
301.098
301.095
301.091
301.088
301.084
301.08
301.076
301.072
301.069
301.065
301.061
301.057
301.054
301.05
301.047
301.044
301.041
301.038
301.035
301.116
301.113
301.11
301.107
301.103
301.1
301.096
301.093
301.089
301.085
301.081
301.077
301.074
301.07
301.066
301.063
301.06
301.056
301.053
301.05
301.047
301.044
301.123
301.121
301.117
301.114
301.111
301.108
301.104
301.101
301.097
301.093
301.09
301.086
301.082
301.078
301.075
301.071
301.068
301.065
301.062
301.059
301.056
301.053
301.13
301.127
301.124
301.121
301.118
301.115
301.112
301.108
301.105
301.101
301.097
301.093
301.09
301.086
301.083
301.079
301.076
301.073
301.07
301.067
301.064
301.061
297.815
297.804
297.797
297.79
297.778
297.751
298.23
298.228
298.235
298.246
298.255
298.253
300.512
300.572
300.626
300.678
300.726
300.772
299.9
299.9
299.901
299.903
299.907
299.913
300.665
300.696
300.727
300.756
300.783
300.806
300.55
300.56
300.57
300.58
300.592
300.603
300.754
300.766
300.777
300.787
300.797
300.806
300.719
300.725
300.731
300.737
300.744
300.75
300.78
300.785
300.789
300.793
300.797
300.801
300.779
300.781
300.784
300.786
300.788
300.791
300.807
300.808
300.809
300.81
300.811
300.811
300.821
300.821
300.821
300.821
300.821
300.821
300.845
300.844
300.844
300.843
300.842
300.842
300.862
300.861
300.861
300.86
300.859
300.859
300.88
300.88
300.879
300.878
300.878
300.877
300.896
300.896
300.895
300.895
300.894
300.894
300.912
300.911
300.911
300.91
300.91
300.91
300.926
300.926
300.926
300.925
300.925
300.925
300.94
300.94
300.94
300.94
300.939
300.939
300.954
300.954
300.953
300.953
300.953
300.953
300.967
300.967
300.967
300.967
300.967
300.967
300.98
300.979
300.979
300.979
300.979
300.979
300.992
300.991
300.991
300.991
300.991
300.992
301.003
301.003
301.003
301.003
301.003
301.003
301.014
301.014
301.014
301.014
301.014
301.014
301.024
301.024
301.024
301.024
301.024
301.024
301.034
301.034
301.034
301.034
301.034
301.034
301.043
301.043
301.043
301.043
301.043
301.043
301.051
301.051
301.051
301.051
301.051
301.051
301.059
301.059
301.059
301.059
301.059
301.059
297.723
297.696
297.675
297.663
297.661
297.671
297.691
297.721
297.762
297.814
297.877
297.95
298.027
298.106
298.183
298.257
298.327
298.393
298.454
298.508
298.557
298.6
298.241
298.223
298.195
298.161
298.129
298.11
298.11
298.129
298.165
298.211
298.265
298.321
298.367
298.402
298.427
298.442
298.45
298.451
298.445
298.432
298.417
298.4
300.812
300.847
300.874
300.893
300.902
300.903
300.895
300.88
300.861
300.837
300.807
300.769
300.724
300.674
300.618
300.555
300.486
300.409
300.326
300.236
300.14
300.038
299.921
299.93
299.941
299.954
299.969
299.985
300.004
300.023
300.043
300.064
300.085
300.104
300.121
300.134
300.143
300.149
300.149
300.145
300.135
300.122
300.105
300.085
300.827
300.846
300.862
300.874
300.882
300.887
300.888
300.888
300.885
300.881
300.875
300.868
300.861
300.853
300.844
300.834
300.823
300.812
300.8
300.787
300.776
300.765
300.613
300.622
300.63
300.637
300.644
300.649
300.653
300.656
300.658
300.66
300.661
300.661
300.661
300.66
300.658
300.656
300.654
300.651
300.648
300.645
300.641
300.637
300.814
300.822
300.83
300.836
300.841
300.845
300.848
300.851
300.852
300.852
300.851
300.85
300.848
300.846
300.842
300.839
300.835
300.83
300.825
300.82
300.815
300.809
300.756
300.761
300.765
300.77
300.773
300.777
300.779
300.782
300.783
300.784
300.785
300.785
300.784
300.783
300.782
300.781
300.779
300.777
300.775
300.772
300.77
300.768
300.804
300.808
300.811
300.814
300.816
300.818
300.82
300.821
300.822
300.822
300.822
300.822
300.821
300.82
300.819
300.817
300.816
300.814
300.812
300.81
300.809
300.807
300.793
300.795
300.797
300.799
300.801
300.802
300.804
300.805
300.805
300.806
300.806
300.807
300.807
300.807
300.806
300.806
300.806
300.806
300.806
300.806
300.806
300.807
300.812
300.814
300.815
300.816
300.818
300.819
300.82
300.821
300.821
300.822
300.823
300.823
300.824
300.825
300.825
300.826
300.827
300.828
300.83
300.831
300.833
300.834
300.822
300.823
300.824
300.825
300.827
300.828
300.829
300.83
300.831
300.832
300.834
300.835
300.837
300.839
300.841
300.843
300.845
300.847
300.849
300.852
300.854
300.857
300.842
300.843
300.844
300.846
300.847
300.848
300.849
300.851
300.853
300.854
300.856
300.859
300.861
300.863
300.866
300.869
300.872
300.874
300.877
300.88
300.883
300.887
300.859
300.86
300.862
300.863
300.865
300.866
300.868
300.87
300.872
300.874
300.877
300.879
300.882
300.885
300.888
300.891
300.895
300.898
300.901
300.905
300.908
300.911
300.878
300.879
300.881
300.882
300.884
300.886
300.888
300.89
300.893
300.895
300.898
300.901
300.904
300.908
300.911
300.915
300.918
300.922
300.925
300.928
300.932
300.935
300.894
300.896
300.898
300.9
300.902
300.904
300.906
300.909
300.911
300.914
300.918
300.921
300.924
300.928
300.932
300.935
300.939
300.942
300.946
300.95
300.953
300.957
300.91
300.912
300.914
300.916
300.919
300.921
300.924
300.926
300.929
300.933
300.936
300.94
300.943
300.947
300.951
300.955
300.958
300.962
300.966
300.969
300.973
300.976
300.926
300.928
300.93
300.932
300.935
300.937
300.94
300.943
300.946
300.95
300.953
300.957
300.961
300.965
300.969
300.972
300.976
300.98
300.983
300.987
300.991
300.994
300.941
300.943
300.945
300.948
300.95
300.953
300.956
300.959
300.962
300.966
300.97
300.973
300.977
300.981
300.985
300.989
300.993
300.996
301
301.004
301.007
301.01
300.955
300.957
300.959
300.962
300.965
300.968
300.971
300.974
300.977
300.981
300.985
300.989
300.993
300.997
301
301.004
301.008
301.012
301.015
301.019
301.022
301.026
300.968
300.97
300.973
300.976
300.979
300.982
300.985
300.988
300.992
300.995
300.999
301.003
301.007
301.011
301.015
301.019
301.022
301.026
301.03
301.033
301.037
301.04
300.981
300.983
300.986
300.989
300.992
300.995
300.998
301.001
301.005
301.009
301.013
301.016
301.02
301.024
301.028
301.032
301.036
301.039
301.043
301.046
301.05
301.053
300.993
300.996
300.998
301.001
301.004
301.007
301.011
301.014
301.018
301.021
301.025
301.029
301.033
301.037
301.041
301.045
301.048
301.052
301.055
301.059
301.062
301.065
301.004
301.007
301.01
301.013
301.016
301.019
301.022
301.026
301.029
301.033
301.037
301.041
301.045
301.049
301.053
301.056
301.06
301.063
301.067
301.07
301.073
301.076
301.015
301.018
301.021
301.024
301.027
301.03
301.033
301.037
301.04
301.044
301.048
301.052
301.056
301.06
301.063
301.067
301.071
301.074
301.077
301.081
301.084
301.087
301.026
301.028
301.031
301.034
301.037
301.041
301.044
301.047
301.051
301.054
301.058
301.062
301.066
301.07
301.073
301.077
301.081
301.084
301.087
301.09
301.094
301.097
301.035
301.038
301.041
301.044
301.047
301.05
301.054
301.057
301.06
301.064
301.068
301.072
301.075
301.079
301.083
301.086
301.09
301.093
301.096
301.099
301.102
301.105
301.044
301.047
301.05
301.053
301.056
301.059
301.063
301.066
301.069
301.073
301.077
301.08
301.084
301.088
301.091
301.095
301.098
301.101
301.105
301.108
301.111
301.114
301.053
301.056
301.058
301.061
301.064
301.068
301.071
301.074
301.078
301.081
301.085
301.088
301.092
301.096
301.099
301.103
301.106
301.109
301.112
301.115
301.118
301.121
301.061
301.063
301.066
301.069
301.072
301.075
301.079
301.082
301.085
301.089
301.092
301.096
301.1
301.103
301.107
301.11
301.113
301.116
301.119
301.122
301.125
301.128
298.633
298.659
298.686
298.71
298.731
298.747
298.755
298.754
298.742
298.72
298.687
298.664
298.656
298.661
298.685
298.722
298.762
298.791
298.797
298.767
298.685
298.517
298.278
298.077
297.914
297.78
297.67
297.584
297.518
297.47
297.438
297.423
297.427
297.463
297.558
298.383
298.368
298.356
298.352
298.359
298.385
298.437
298.524
298.652
298.821
299.027
299.262
299.515
299.767
300.002
300.2
300.358
300.477
300.545
300.504
300.341
299.902
299.022
298.155
297.547
297.171
296.932
296.76
296.632
296.536
296.465
296.417
296.391
296.393
296.426
299.947
299.865
299.77
299.663
299.547
299.428
299.313
299.21
299.12
299.043
298.975
298.914
298.862
298.816
298.777
298.723
298.64
298.521
298.392
298.311
298.316
298.415
298.641
298.981
299.434
299.883
300.172
300.357
300.477
300.562
300.634
300.706
300.788
300.878
300.99
300.066
300.047
300.025
300.002
299.981
299.962
299.941
299.917
299.893
299.878
299.881
299.916
299.99
300.098
300.23
300.346
300.42
300.449
300.451
300.409
300.341
300.262
300.179
300.087
300.05
300.091
300.173
300.272
300.367
300.446
300.532
300.618
300.714
300.864
301.053
300.754
300.743
300.728
300.707
300.679
300.64
300.592
300.539
300.48
300.417
300.356
300.304
300.269
300.253
300.253
300.264
300.283
300.302
300.32
300.332
300.34
300.345
300.352
300.363
300.375
300.381
300.38
300.372
300.359
300.341
300.32
300.297
300.278
300.264
300.253
300.634
300.63
300.626
300.62
300.614
300.606
300.598
300.589
300.58
300.573
300.568
300.567
300.567
300.57
300.579
300.594
300.614
300.639
300.67
300.705
300.743
300.784
300.824
300.854
300.866
300.845
300.782
300.69
300.603
300.537
300.489
300.453
300.426
300.403
300.377
300.805
300.799
300.793
300.786
300.778
300.769
300.759
300.748
300.735
300.721
300.704
300.687
300.67
300.657
300.649
300.647
300.649
300.655
300.664
300.675
300.687
300.7
300.71
300.715
300.714
300.706
300.713
300.754
300.815
300.887
300.962
301.032
301.096
301.153
301.205
300.766
300.764
300.763
300.761
300.758
300.756
300.753
300.75
300.748
300.745
300.742
300.741
300.74
300.741
300.745
300.751
300.762
300.775
300.792
300.812
300.834
300.859
300.886
300.913
300.939
300.964
300.988
301.008
301.023
301.038
301.053
301.07
301.089
301.109
301.124
300.806
300.805
300.803
300.801
300.799
300.797
300.795
300.792
300.79
300.788
300.786
300.784
300.783
300.784
300.787
300.794
300.805
300.817
300.832
300.848
300.866
300.884
300.9
300.914
300.925
300.933
300.938
300.941
300.942
300.942
300.941
300.939
300.937
300.935
300.932
300.807
300.807
300.807
300.807
300.807
300.807
300.807
300.807
300.808
300.81
300.812
300.815
300.819
300.824
300.832
300.842
300.854
300.867
300.881
300.895
300.911
300.926
300.941
300.954
300.965
300.975
300.984
300.992
301
301.007
301.013
301.02
301.027
301.034
301.044
300.835
300.836
300.836
300.837
300.837
300.838
300.839
300.84
300.842
300.844
300.846
300.85
300.854
300.86
300.867
300.877
300.887
300.898
300.91
300.923
300.935
300.948
300.959
300.969
300.976
300.982
300.986
300.99
300.993
300.994
300.996
300.996
300.997
300.997
300.996
300.859
300.859
300.86
300.861
300.862
300.864
300.865
300.867
300.869
300.872
300.876
300.88
300.885
300.892
300.9
300.909
300.919
300.93
300.94
300.951
300.962
300.974
300.984
300.993
301.001
301.007
301.013
301.019
301.024
301.028
301.033
301.037
301.042
301.047
301.054
300.889
300.889
300.89
300.891
300.892
300.894
300.895
300.897
300.9
300.903
300.906
300.91
300.915
300.921
300.929
300.937
300.946
300.955
300.964
300.974
300.984
300.993
301.002
301.009
301.015
301.021
301.025
301.028
301.031
301.033
301.035
301.037
301.038
301.04
301.041
300.913
300.914
300.915
300.916
300.918
300.919
300.921
300.923
300.925
300.928
300.932
300.936
300.941
300.947
300.954
300.961
300.97
300.978
300.987
300.995
301.004
301.012
301.021
301.028
301.034
301.04
301.044
301.049
301.053
301.057
301.06
301.064
301.067
301.072
301.077
300.938
300.938
300.939
300.941
300.942
300.943
300.945
300.947
300.949
300.952
300.955
300.959
300.964
300.969
300.976
300.983
300.99
300.998
301.006
301.013
301.021
301.029
301.036
301.042
301.048
301.052
301.056
301.059
301.062
301.064
301.066
301.067
301.069
301.07
301.071
300.959
300.96
300.961
300.962
300.963
300.965
300.966
300.968
300.97
300.973
300.976
300.98
300.984
300.989
300.995
301.002
301.009
301.016
301.023
301.03
301.037
301.044
301.051
301.057
301.063
301.067
301.071
301.075
301.078
301.082
301.085
301.088
301.091
301.094
301.098
300.978
300.979
300.98
300.981
300.983
300.984
300.986
300.988
300.99
300.992
300.995
300.999
301.003
301.007
301.013
301.019
301.025
301.032
301.038
301.045
301.051
301.058
301.064
301.07
301.074
301.078
301.082
301.084
301.087
301.089
301.091
301.092
301.093
301.094
301.096
300.996
300.997
300.998
300.999
301
301.002
301.003
301.005
301.007
301.009
301.012
301.015
301.019
301.024
301.029
301.034
301.04
301.046
301.052
301.058
301.065
301.071
301.077
301.082
301.086
301.09
301.094
301.097
301.1
301.102
301.104
301.107
301.109
301.111
301.115
301.013
301.013
301.014
301.015
301.016
301.018
301.019
301.021
301.023
301.025
301.028
301.031
301.034
301.038
301.043
301.049
301.054
301.06
301.065
301.071
301.077
301.082
301.088
301.093
301.097
301.1
301.103
301.106
301.108
301.11
301.112
301.113
301.115
301.116
301.118
301.028
301.028
301.029
301.03
301.031
301.033
301.034
301.036
301.037
301.039
301.042
301.045
301.048
301.052
301.057
301.061
301.067
301.072
301.077
301.082
301.088
301.093
301.099
301.103
301.107
301.11
301.113
301.116
301.118
301.12
301.122
301.124
301.126
301.127
301.13
301.042
301.043
301.043
301.044
301.045
301.046
301.048
301.049
301.051
301.053
301.055
301.058
301.061
301.064
301.069
301.073
301.078
301.083
301.088
301.093
301.098
301.103
301.108
301.112
301.116
301.119
301.122
301.125
301.127
301.128
301.13
301.132
301.133
301.135
301.136
301.055
301.056
301.056
301.057
301.058
301.059
301.06
301.062
301.063
301.065
301.067
301.07
301.073
301.076
301.08
301.084
301.089
301.093
301.098
301.103
301.108
301.113
301.117
301.121
301.125
301.128
301.131
301.133
301.135
301.137
301.138
301.14
301.141
301.143
301.145
301.067
301.068
301.068
301.069
301.07
301.071
301.072
301.073
301.075
301.076
301.078
301.081
301.084
301.087
301.09
301.095
301.099
301.103
301.107
301.112
301.116
301.121
301.126
301.129
301.133
301.136
301.138
301.14
301.142
301.144
301.146
301.147
301.148
301.15
301.152
301.078
301.079
301.079
301.08
301.081
301.082
301.083
301.084
301.085
301.087
301.089
301.091
301.094
301.097
301.1
301.104
301.108
301.112
301.116
301.12
301.125
301.129
301.133
301.137
301.14
301.143
301.145
301.147
301.149
301.151
301.153
301.154
301.155
301.157
301.159
301.089
301.089
301.09
301.09
301.091
301.092
301.093
301.094
301.095
301.097
301.099
301.101
301.103
301.106
301.109
301.113
301.116
301.12
301.124
301.128
301.132
301.136
301.14
301.144
301.147
301.15
301.152
301.154
301.156
301.157
301.159
301.16
301.162
301.163
301.165
301.098
301.099
301.099
301.1
301.101
301.101
301.102
301.103
301.105
301.106
301.108
301.109
301.112
301.114
301.117
301.121
301.124
301.128
301.132
301.136
301.139
301.143
301.147
301.15
301.153
301.156
301.158
301.16
301.162
301.163
301.165
301.166
301.167
301.169
301.17
301.107
301.108
301.108
301.109
301.109
301.11
301.111
301.112
301.113
301.114
301.116
301.118
301.12
301.122
301.125
301.128
301.132
301.135
301.139
301.142
301.146
301.15
301.153
301.157
301.159
301.162
301.164
301.166
301.167
301.169
301.17
301.171
301.173
301.174
301.176
301.115
301.116
301.116
301.117
301.117
301.118
301.119
301.12
301.121
301.122
301.124
301.125
301.127
301.13
301.133
301.136
301.139
301.142
301.145
301.149
301.152
301.156
301.159
301.162
301.165
301.167
301.169
301.171
301.173
301.174
301.175
301.176
301.178
301.179
301.18
301.123
301.123
301.124
301.124
301.125
301.126
301.126
301.127
301.128
301.129
301.131
301.132
301.134
301.137
301.139
301.142
301.145
301.148
301.152
301.155
301.158
301.161
301.165
301.167
301.17
301.172
301.174
301.176
301.177
301.179
301.18
301.181
301.182
301.183
301.185
301.13
301.13
301.131
301.131
301.132
301.132
301.133
301.134
301.135
301.136
301.138
301.139
301.141
301.143
301.146
301.149
301.151
301.154
301.157
301.16
301.163
301.167
301.17
301.172
301.175
301.177
301.179
301.18
301.182
301.183
301.184
301.185
301.186
301.188
301.189
301.2
301.198
301.197
301.196
301.195
301.194
301.193
301.191
301.19
301.188
301.186
301.183
301.181
301.178
301.175
301.171
301.168
301.165
301.162
301.159
301.157
301.154
301.152
301.15
301.148
301.146
301.145
301.144
301.143
301.142
301.142
301.141
301.14
301.14
301.139
301.204
301.203
301.202
301.201
301.2
301.198
301.197
301.196
301.195
301.193
301.191
301.189
301.186
301.184
301.181
301.178
301.175
301.172
301.169
301.167
301.164
301.161
301.159
301.157
301.155
301.154
301.152
301.151
301.15
301.149
301.149
301.148
301.147
301.147
301.146
301.208
301.207
301.206
301.205
301.204
301.203
301.202
301.2
301.199
301.198
301.196
301.194
301.192
301.189
301.186
301.184
301.181
301.179
301.176
301.173
301.171
301.168
301.166
301.164
301.162
301.161
301.159
301.158
301.157
301.156
301.155
301.155
301.154
301.153
301.153
301.212
301.21
301.209
301.209
301.208
301.207
301.206
301.205
301.203
301.202
301.2
301.199