/*--------------------------------*- C++ -*----------------------------------*\
  =========                 |
  \\      /  F ield         | OpenFOAM: The Open Source CFD Toolbox
   \\    /   O peration     | Website:  https://openfoam.org
    \\  /    A nd           | Version:  8
     \\/     M anipulation  |
\*---------------------------------------------------------------------------*/
FoamFile
{
    version     2.0;
    format      ascii;
    class       volVectorField;
    location    "0.24";
    object      U;
}
// * * * * * * * * * * * * * * * * * * * * * * * * * * * * * * * * * * * * * //

dimensions      [0 1 -1 0 0 0 0];

internalField   nonuniform List<vector> 
15677
(
(-0.0199308 9.66507 0)
(0.0435721 9.92085 0)
(0.0023802 9.37809 0)
(0.0147351 9.97647 0)
(0.0186074 9.78782 0)
(0.00701625 9.14251 0)
(0.0279589 9.99434 0)
(0.0170989 9.92485 0)
(0.0107264 9.65512 0)
(0.00607928 8.96034 0)
(0.026104 10.0015 0)
(0.0214915 9.9786 0)
(0.0163816 9.85356 0)
(0.00901193 9.53059 0)
(0.00490434 8.81716 0)
(0.0249489 10.0047 0)
(0.0223598 10.0027 0)
(0.0191632 9.94305 0)
(0.0153563 9.77955 0)
(0.007875 9.41985 0)
(0.00403399 8.70275 0)
(0.0239693 10.0062 0)
(0.0225323 10.0143 0)
(0.0207674 9.98624 0)
(0.0182588 9.90263 0)
(0.0138825 9.70828 0)
(0.00680149 9.32191 0)
(0.0033652 8.61057 0)
(0.0226279 10.0067 0)
(0.0223624 10.02 0)
(0.0215871 10.0082 0)
(0.0201498 9.96522 0)
(0.017021 9.86225 0)
(0.0124498 9.64128 0)
(0.00585217 9.23682 0)
(0.0028048 8.53663 0)
(0.020941 10.0067 0)
(0.0218159 10.0224 0)
(0.0219034 10.0197 0)
(0.021232 9.99836 0)
(0.0190513 9.94411 0)
(0.0156312 9.82287 0)
(0.0110837 9.58017 0)
(0.00497412 9.16463 0)
(0.00228859 8.47821 0)
(0.0190216 10.0063 0)
(0.020973 10.0226 0)
(0.0217865 10.0256 0)
(0.0217211 10.0165 0)
(0.020214 9.98859 0)
(0.0176827 9.92342 0)
(0.0141577 9.786 0)
(0.00969115 9.52633 0)
(0.00410975 9.10513 0)
(0.00177829 8.43379 0)
(0.0169454 10.0057 0)
(0.0199029 10.0218 0)
(0.0213235 10.0286 0)
(0.0217377 10.0265 0)
(0.020749 10.0135 0)
(0.0188213 9.97926 0)
(0.0161325 9.90431 0)
(0.0125321 9.75311 0)
(0.00820871 9.48078 0)
(0.00321373 9.0581 0)
(0.00124495 8.40241 0)
(0.0147424 10.0051 0)
(0.0185981 10.0203 0)
(0.0205506 10.0293 0)
(0.0214042 10.0319 0)
(0.0207859 10.0278 0)
(0.0192719 10.0111 0)
(0.0171474 9.97135 0)
(0.0143175 9.88799 0)
(0.0106897 9.72538 0)
(0.00658712 9.44427 0)
(0.00224544 9.02349 0)
(0.000666334 8.38378 0)
(0.0124215 10.0044 0)
(0.0171505 10.0184 0)
(0.0194796 10.0286 0)
(0.0207241 10.0344 0)
(0.0203839 10.0358 0)
(0.0191856 10.0296 0)
(0.0174142 10.0099 0)
(0.015096 9.96588 0)
(0.0121567 9.87548 0)
(0.00857054 9.70386 0)
(0.00477572 9.41755 0)
(0.00117114 9.00134 0)
(-6.03021e-06 8.37769 0)
(0.0101414 10.0036 0)
(0.0156419 10.0161 0)
(0.0181516 10.027 0)
(0.0197206 10.0348 0)
(0.0196502 10.04 0)
(0.0186458 10.0403 0)
(0.0170922 10.0326 0)
(0.0150612 10.0112 0)
(0.0125705 9.96377 0)
(0.00957337 9.86776 0)
(0.00611017 9.6896 0)
(0.00272764 9.40128 0)
(-1.23243e-05 8.99184 0)
(-0.000647971 8.38411 0)
(0.0081852 10.0029 0)
(0.0140201 10.0137 0)
(0.0166199 10.0246 0)
(0.0184062 10.0338 0)
(0.01857 10.0415 0)
(0.0177116 10.0462 0)
(0.0162729 10.046 0)
(0.0143733 10.0379 0)
(0.0120972 10.0155 0)
(0.00947373 9.96588 0)
(0.00648475 9.86581 0)
(0.00324598 9.68358 0)
(0.000393158 9.39609 0)
(-0.00137928 8.99529 0)
(-0.00141981 8.40318 0)
(0.00662416 10.0023 0)
(0.0124505 10.0114 0)
(0.0149118 10.0218 0)
(0.0167937 10.0317 0)
(0.0171505 10.0412 0)
(0.0163942 10.0489 0)
(0.0150014 10.0537 0)
(0.0131247 10.0539 0)
(0.0108925 10.0463 0)
(0.00840344 10.0238 0)
(0.0056992 9.9731 0)
(0.00280827 9.87064 0)
(-0.00011276 9.68677 0)
(-0.00226166 9.40262 0)
(-0.00292918 9.01186 0)
(-0.00229683 8.43517 0)
(0.00545756 10.0018 0)
(0.0110327 10.0094 0)
(0.0132336 10.019 0)
(0.0149104 10.0288 0)
(0.0153962 10.0394 0)
(0.0146994 10.0493 0)
(0.0132944 10.0575 0)
(0.0113577 10.0632 0)
(0.00904625 10.0647 0)
(0.00650736 10.0584 0)
(0.00384864 10.0369 0)
(0.00114763 9.98637 0)
(-0.00151918 9.88325 0)
(-0.00391327 9.70001 0)
(-0.00525332 9.42142 0)
(-0.00466224 9.0418 0)
(-0.0032723 8.48015 0)
(0.00448579 10.0014 0)
(0.00964075 10.0077 0)
(0.0117099 10.0166 0)
(0.0130035 10.0259 0)
(0.0133208 10.0366 0)
(0.0126294 10.048 0)
(0.0111547 10.0587 0)
(0.00908601 10.0681 0)
(0.00659667 10.0756 0)
(0.00386908 10.0792 0)
(0.00106065 10.0751 0)
(-0.00169697 10.0557 0)
(-0.00429833 10.0066 0)
(-0.00660043 9.90454 0)
(-0.00828713 9.7241 0)
(-0.00862417 9.45289 0)
(-0.00658848 9.0852 0)
(-0.00434234 8.53816 0)
(0.00369429 10.0011 0)
(0.00838743 10.0064 0)
(0.010265 10.0144 0)
(0.011241 10.0231 0)
(0.0111828 10.0334 0)
(0.0101938 10.0453 0)
(0.00858222 10.0577 0)
(0.0063093 10.0699 0)
(0.00355195 10.0814 0)
(0.000519257 10.0914 0)
(-0.00259607 10.098 0)
(-0.00561839 10.0972 0)
(-0.00837638 10.081 0)
(-0.0107266 10.0347 0)
(-0.0124771 9.93538 0)
(-0.0132613 9.75967 0)
(-0.0123895 9.49734 0)
(-0.00871486 9.14215 0)
(-0.00550505 8.60907 0)
(0.00304933 10.0009 0)
(0.00725698 10.0054 0)
(0.00893827 10.0126 0)
(0.00958205 10.0206 0)
(0.00917872 10.0303 0)
(0.00768539 10.0418 0)
(0.00558496 10.055 0)
(0.00302471 10.0691 0)
(-9.25481e-05 10.0836 0)
(-0.00354172 10.0981 0)
(-0.0071005 10.1115 0)
(-0.0105518 10.1221 0)
(-0.0136823 10.1256 0)
(-0.0162951 10.1137 0)
(-0.0182046 10.0714 0)
(-0.0191841 9.97649 0)
(-0.0188409 9.80722 0)
(-0.0165464 9.55492 0)
(-0.0110296 9.21245 0)
(-0.00674943 8.69254 0)
(0.00251915 10.0008 0)
(0.00623458 10.0045 0)
(0.00771678 10.011 0)
(0.00804204 10.0184 0)
(0.00728253 10.0274 0)
(0.00533617 10.0383 0)
(0.00251765 10.0513 0)
(-0.000756937 10.0664 0)
(-0.00433908 10.083 0)
(-0.0083238 10.1007 0)
(-0.01246 10.1188 0)
(-0.0164967 10.1367 0)
(-0.0201823 10.1522 0)
(-0.0232753 10.161 0)
(-0.0255475 10.1545 0)
(-0.0267868 10.1176 0)
(-0.0267402 10.0285 0)
(-0.0250197 9.86702 0)
(-0.0210809 9.62558 0)
(-0.0135251 9.29589 0)
(-0.00806799 8.78814 0)
(0.00209774 10.0006 0)
(0.00531392 10.0038 0)
(0.00659492 10.0096 0)
(0.00662363 10.0164 0)
(0.00551403 10.0246 0)
(0.00312017 10.0349 0)
(-0.000339011 10.0473 0)
(-0.00459246 10.0623 0)
(-0.00917444 10.0801 0)
(-0.0138315 10.1 0)
(-0.0186947 10.1216 0)
(-0.0234788 10.1445 0)
(-0.0278954 10.1677 0)
(-0.0316643 10.1892 0)
(-0.0345158 10.2042 0)
(-0.0362039 10.2041 0)
(-0.0364981 10.1737 0)
(-0.0351397 10.0917 0)
(-0.0317751 9.9392 0)
(-0.025964 9.70913 0)
(-0.0161707 9.39184 0)
(-0.00943913 8.89505 0)
(0.00177406 10.0005 0)
(0.00452674 10.0033 0)
(0.00557083 10.0084 0)
(0.00532889 10.0146 0)
(0.00388637 10.0221 0)
(0.00106297 10.0316 0)
(-0.00301643 10.0433 0)
(-0.00814421 10.0577 0)
(-0.0140403 10.0754 0)
(-0.0200478 10.0966 0)
(-0.025813 10.1208 0)
(-0.0315292 10.1473 0)
(-0.0368674 10.1758 0)
(-0.0415068 10.2054 0)
(-0.0451417 10.2336 0)
(-0.0474898 10.2559 0)
(-0.0482962 10.2632 0)
(-0.0473308 10.2402 0)
(-0.0443519 10.1663 0)
(-0.0390623 10.0236 0)
(-0.0311527 9.80509 0)
(-0.0189459 9.49975 0)
(-0.0108451 9.01254 0)
(0.00152237 10.0005 0)
(0.0038879 10.0028 0)
(0.00468061 10.0074 0)
(0.00415776 10.013 0)
(0.00240771 10.0198 0)
(-0.000813758 10.0284 0)
(-0.00548091 10.0393 0)
(-0.0114545 10.0529 0)
(-0.0185193 10.0701 0)
(-0.0262597 10.0912 0)
(-0.0337923 10.1167 0)
(-0.0406609 10.146 0)
(-0.0471442 10.1784 0)
(-0.0528741 10.2135 0)
(-0.0575043 10.2503 0)
(-0.0607208 10.2863 0)
(-0.0622399 10.3166 0)
(-0.0618177 10.332 0)
(-0.0592432 10.3174 0)
(-0.0543133 10.2524 0)
(-0.0468168 10.1199 0)
(-0.0365931 9.91285 0)
(-0.0217927 9.61856 0)
(-0.0122466 9.139 0)
(0.00132314 10.0004 0)
(0.00337109 10.0025 0)
(0.00394367 10.0066 0)
(0.0031528 10.0115 0)
(0.00108209 10.0176 0)
(-0.00249743 10.0254 0)
(-0.00770634 10.0354 0)
(-0.0144778 10.048 0)
(-0.0226693 10.0643 0)
(-0.031947 10.0848 0)
(-0.041722 10.1102 0)
(-0.0508451 10.141 0)
(-0.0587463 10.1765 0)
(-0.0658329 10.2157 0)
(-0.0717083 10.2584 0)
(-0.0760193 10.3032 0)
(-0.0784577 10.3477 0)
(-0.078761 10.3867 0)
(-0.0767159 10.411 0)
(-0.0721552 10.4053 0)
(-0.0649379 10.3497 0)
(-0.0549521 10.2276 0)
(-0.0421734 10.0315 0)
(-0.024601 9.74699 0)
(-0.013204 9.27271 0)
(0.00116309 10.0004 0)
(0.00295009 10.0022 0)
(0.00333623 10.0059 0)
(0.00233511 10.0103 0)
(-3.77467e-05 10.0157 0)
(-0.00398328 10.0226 0)
(-0.00967465 10.0316 0)
(-0.0171798 10.0432 0)
(-0.0264331 10.0583 0)
(-0.0371899 10.0778 0)
(-0.0489523 10.1025 0)
(-0.0609252 10.1331 0)
(-0.0716392 10.1702 0)
(-0.0804156 10.2128 0)
(-0.0878472 10.2599 0)
(-0.0935301 10.3109 0)
(-0.0971231 10.3646 0)
(-0.0983498 10.4182 0)
(-0.0969936 10.4665 0)
(-0.0928982 10.5 0)
(-0.0859544 10.5036 0)
(-0.0761024 10.4577 0)
(-0.0633265 10.3458 0)
(-0.0478432 10.1599 0)
(-0.0273849 9.88476 0)
(-0.0142756 9.41368 0)
(0.00103281 10.0003 0)
(0.00260497 10.002 0)
(0.00283787 10.0054 0)
(0.00167325 10.0093 0)
(-0.000928526 10.014 0)
(-0.00521065 10.02 0)
(-0.011375 10.0279 0)
(-0.0195357 10.0383 0)
(-0.0297663 10.0521 0)
(-0.0419179 10.0703 0)
(-0.0555922 10.0939 0)
(-0.0700901 10.1237 0)
(-0.0843668 10.1605 0)
(-0.0965836 10.205 0)
(-0.105969 10.2557 0)
(-0.11338 10.3116 0)
(-0.118431 10.3718 0)
(-0.120823 10.435 0)
(-0.120338 10.4982 0)
(-0.116831 10.556 0)
(-0.110221 10.5991 0)
(-0.100484 10.6121 0)
(-0.087632 10.5757 0)
(-0.0717874 10.4736 0)
(-0.052712 10.2972 0)
(-0.0237714 10.0253 0)
(-0.00929773 9.49925 0)
(0.000925467 10.0003 0)
(0.0023204 10.0018 0)
(0.00242013 10.0049 0)
(0.00113555 10.0085 0)
(-0.00162964 10.0126 0)
(-0.00615939 10.0178 0)
(-0.0127391 10.0245 0)
(-0.0215284 10.0336 0)
(-0.0326351 10.046 0)
(-0.0460737 10.0626 0)
(-0.0615547 10.0846 0)
(-0.0784853 10.1131 0)
(-0.095919 10.1491 0)
(-0.112518 10.1932 0)
(-0.126032 10.246 0)
(-0.135642 10.306 0)
(-0.142556 10.3714 0)
(-0.146436 10.4415 0)
(-0.147055 10.5146 0)
(-0.14429 10.5877 0)
(-0.138097 10.6553 0)
(-0.128495 10.7078 0)
(-0.115525 10.7301 0)
(-0.099313 10.7029 0)
(-0.0797529 10.6099 0)
(-0.0574059 10.4404 0)
(-0.0194314 10.1967 0)
(-0.00147641 9.56507 0)
(0.000836037 10.0003 0)
(0.0020847 10.0017 0)
(0.00207049 10.0045 0)
(0.000703547 10.0078 0)
(-0.00218068 10.0114 0)
(-0.00687927 10.0159 0)
(-0.0137537 10.0215 0)
(-0.0230781 10.0292 0)
(-0.0350156 10.0399 0)
(-0.0496128 10.0548 0)
(-0.066767 10.075 0)
(-0.0860035 10.1017 0)
(-0.106486 10.1361 0)
(-0.12697 10.1792 0)
(-0.145797 10.2317 0)
(-0.160282 10.294 0)
(-0.1696 10.364 0)
(-0.175406 10.4397 0)
(-0.177463 10.5202 0)
(-0.175663 10.6035 0)
(-0.170005 10.6866 0)
(-0.160568 10.7639 0)
(-0.14746 10.8256 0)
(-0.130818 10.8568 0)
(-0.110611 10.8383 0)
(-0.0867461 10.7536 0)
(-0.0611732 10.5974 0)
(-0.0213747 10.3699 0)
(0.00257119 9.62244 0)
(0.000760856 10.0002 0)
(0.00188843 10.0016 0)
(0.0017784 10.0042 0)
(0.000352275 10.0072 0)
(-0.00261158 10.0104 0)
(-0.00741936 10.0142 0)
(-0.014485 10.0189 0)
(-0.0241802 10.0252 0)
(-0.036812 10.0341 0)
(-0.0525019 10.047 0)
(-0.0711704 10.0651 0)
(-0.0925525 10.0896 0)
(-0.115937 10.122 0)
(-0.140187 10.1634 0)
(-0.163729 10.2148 0)
(-0.184562 10.2767 0)
(-0.19953 10.3494 0)
(-0.20788 10.4303 0)
(-0.211853 10.517 0)
(-0.211355 10.6081 0)
(-0.20643 10.7018 0)
(-0.197229 10.7948 0)
(-0.183953 10.8814 0)
(-0.166814 10.9519 0)
(-0.145864 10.9915 0)
(-0.120985 10.9812 0)
(-0.0923133 10.9053 0)
(-0.0626049 10.7671 0)
(-0.0247176 10.54 0)
(0.00349302 9.67943 0)
(0.000697202 10.0002 0)
(0.00172405 10.0015 0)
(0.00153938 10.0039 0)
(6.4073e-05 10.0066 0)
(-0.00294839 10.0095 0)
(-0.00781907 10.0128 0)
(-0.0149963 10.0167 0)
(-0.0249237 10.0217 0)
(-0.0380312 10.0289 0)
(-0.0546247 10.0394 0)
(-0.0747202 10.055 0)
(-0.098056 10.0771 0)
(-0.124154 10.107 0)
(-0.152007 10.146 0)
(-0.180138 10.1956 0)
(-0.206609 10.2564 0)
(-0.229052 10.3288 0)
(-0.243855 10.4128 0)
(-0.25043 10.5054 0)
(-0.251738 10.6033 0)
(-0.247874 10.7052 0)
(-0.239071 10.8092 0)
(-0.225636 10.9118 0)
(-0.207907 11.0072 0)
(-0.186097 11.086 0)
(-0.160232 11.1335 0)
(-0.130627 11.1313 0)
(-0.0974827 11.0653 0)
(-0.0643967 10.9443 0)
(-0.0274639 10.7057 0)
(0.00311739 9.75324 0)
(0.000642972 10.0002 0)
(0.00158554 10.0014 0)
(0.00133877 10.0037 0)
(-0.000176114 10.0062 0)
(-0.00321138 10.0087 0)
(-0.00810997 10.0115 0)
(-0.0153387 10.0147 0)
(-0.0253922 10.0187 0)
(-0.0387925 10.0243 0)
(-0.0560023 10.0327 0)
(-0.0772725 10.0454 0)
(-0.102454 10.0644 0)
(-0.131041 10.0914 0)
(-0.162282 10.1276 0)
(-0.194826 10.1745 0)
(-0.226813 10.2333 0)
(-0.255905 10.3046 0)
(-0.279396 10.3884 0)
(-0.293224 10.4847 0)
(-0.297088 10.5893 0)
(-0.294799 10.6987 0)
(-0.286693 10.8115 0)
(-0.273214 10.9254 0)
(-0.254841 11.037 0)
(-0.231993 11.1407 0)
(-0.204929 11.2271 0)
(-0.174079 11.2822 0)
(-0.140221 11.2877 0)
(-0.103473 11.2325 0)
(-0.0670276 11.1237 0)
(-0.030311 10.8861 0)
(0.00203452 9.83798 0)
(0.000596501 10.0002 0)
(0.00146816 10.0013 0)
(0.00116916 10.0035 0)
(-0.000372429 10.0058 0)
(-0.00341682 10.0081 0)
(-0.00831709 10.0104 0)
(-0.0155526 10.0129 0)
(-0.0256527 10.016 0)
(-0.0392057 10.0203 0)
(-0.0567928 10.0267 0)
(-0.0788652 10.0366 0)
(-0.105567 10.0521 0)
(-0.136517 10.0754 0)
(-0.170889 10.1082 0)
(-0.207612 10.1519 0)
(-0.244934 10.2078 0)
(-0.280571 10.277 0)
(-0.311799 10.36 0)
(-0.335598 10.4562 0)
(-0.347482 10.5652 0)
(-0.347568 10.6823 0)
(-0.340671 10.8032 0)
(-0.327403 10.9264 0)
(-0.30844 11.0498 0)
(-0.284409 11.1698 0)
(-0.255842 11.2812 0)
(-0.223333 11.3748 0)
(-0.187763 11.4368 0)
(-0.150124 11.4494 0)
(-0.110241 11.4038 0)
(-0.0709149 11.3239 0)
(-0.0333123 11.0812 0)
(0.000337934 9.93178 0)
(0.000556494 10.0002 0)
(0.00136806 10.0013 0)
(0.00102562 10.0033 0)
(-0.000534001 10.0054 0)
(-0.00357652 10.0075 0)
(-0.00846008 10.0094 0)
(-0.01567 10.0114 0)
(-0.0257581 10.0137 0)
(-0.0393591 10.0167 0)
(-0.0571402 10.0213 0)
(-0.0797054 10.0288 0)
(-0.107451 10.0408 0)
(-0.140355 10.0598 0)
(-0.177722 10.0882 0)
(-0.218337 10.1281 0)
(-0.260749 10.1804 0)
(-0.302758 10.2466 0)
(-0.341652 10.3275 0)
(-0.374337 10.423 0)
(-0.397513 10.5324 0)
(-0.406331 10.6546 0)
(-0.401476 10.7843 0)
(-0.388907 10.9165 0)
(-0.369545 11.0497 0)
(-0.344296 11.1819 0)
(-0.313963 11.3097 0)
(-0.279375 11.428 0)
(-0.241519 11.5281 0)
(-0.201532 11.5961 0)
(-0.160246 11.6143 0)
(-0.118034 11.5977 0)
(-0.0757113 11.5433 0)
(-0.0364742 11.2716 0)
(-0.00155778 10.0327 0)
(0.000522217 10.0002 0)
(0.00128201 10.0012 0)
(0.000903491 10.0031 0)
(-0.000667309 10.0051 0)
(-0.00370031 10.0069 0)
(-0.00855436 10.0086 0)
(-0.0157159 10.0101 0)
(-0.0257499 10.0116 0)
(-0.0393218 10.0135 0)
(-0.0571597 10.0166 0)
(-0.0799803 10.0218 0)
(-0.108374 10.0308 0)
(-0.142632 10.0455 0)
(-0.182494 10.0687 0)
(-0.226865 10.1034 0)
(-0.274057 10.1515 0)
(-0.322193 10.2138 0)
(-0.368606 10.2915 0)
(-0.410156 10.3851 0)
(-0.443407 10.4942 0)
(-0.464852 10.6172 0)
(-0.469354 10.753 0)
(-0.458326 10.8951 0)
(-0.439003 11.0382 0)
(-0.412633 11.1808 0)
(-0.380377 11.3211 0)
(-0.343329 11.4559 0)
(-0.302674 11.5803 0)
(-0.259659 11.6858 0)
(-0.215351 11.758 0)
(-0.171377 11.8011 0)
(-0.126525 11.8126 0)
(-0.0808299 11.7585 0)
(-0.0395522 11.4569 0)
(-0.00338255 10.1383 0)
(0.00120757 10.0012 0)
(0.00048166 10.0002 0)
(0.000798275 10.003 0)
(-0.000777753 10.0048 0)
(-0.00379567 10.0065 0)
(-0.00861176 10.0079 0)
(-0.0157096 10.0089 0)
(-0.0256604 10.0098 0)
(-0.0391483 10.0107 0)
(-0.0569422 10.0124 0)
(-0.0798396 10.0156 0)
(-0.108577 10.0218 0)
(-0.143689 10.0327 0)
(-0.185298 10.0508 0)
(-0.232828 10.0793 0)
(-0.284682 10.1214 0)
(-0.338624 10.179 0)
(-0.392326 10.2526 0)
(-0.442638 10.343 0)
(-0.486012 10.4504 0)
(-0.518733 10.5737 0)
(-0.537185 10.7109 0)
(-0.536028 10.8602 0)
(-0.517562 11.0144 0)
(-0.490424 11.1678 0)
(-0.456213 11.3191 0)
(-0.41641 11.4666 0)
(-0.37246 11.6075 0)
(-0.325794 11.737 0)
(-0.27768 11.8461 0)
(-0.230542 11.9409 0)
(-0.183285 12.0085 0)
(-0.134742 12.025 0)
(-0.0859279 11.9679 0)
(-0.0424124 11.6364 0)
(-0.00513051 10.2467 0)
(0.000706276 10.0029 0)
(0.00112259 10.0011 0)
(0.000433474 10.0002 0)
(-0.000870623 10.0046 0)
(-0.00386879 10.0061 0)
(-0.00864125 10.0072 0)
(-0.015666 10.0079 0)
(-0.0255147 10.0082 0)
(-0.0388806 10.0083 0)
(-0.0565584 10.0087 0)
(-0.0794013 10.0102 0)
(-0.108252 10.0138 0)
(-0.143831 10.0212 0)
(-0.186563 10.0347 0)
(-0.236336 10.057 0)
(-0.292156 10.0918 0)
(-0.351825 10.1426 0)
(-0.412501 10.2111 0)
(-0.47138 10.2973 0)
(-0.524841 10.4017 0)
(-0.568981 10.5238 0)
(-0.599894 10.6619 0)
(-0.613962 10.8134 0)
(-0.605743 10.976 0)
(-0.578587 11.1418 0)
(-0.542646 11.3047 0)
(-0.499909 11.4638 0)
(-0.452217 11.6175 0)
(-0.401281 11.7634 0)
(-0.348593 11.8963 0)
(-0.297387 12.027 0)
(-0.246679 12.1438 0)
(-0.194625 12.2142 0)
(-0.142502 12.2329 0)
(-0.0907688 12.1704 0)
(-0.0449861 11.8096 0)
(-0.00675866 10.3559 0)
(-0.000952372 10.0044 0)
(0.0006116 10.0027 0)
(0.00101841 10.001 0)
(0.000387502 10.0001 4.23107e-20)
(-0.00392566 10.0057 0)
(-0.00865 10.0066 0)
(-0.0155963 10.007 0)
(-0.0253316 10.0067 0)
(-0.0385509 10.0061 0)
(-0.0560629 10.0054 0)
(-0.0787573 10.0053 0)
(-0.107552 10.0067 0)
(-0.143305 10.011 0)
(-0.186674 10.0202 0)
(-0.237917 10.0369 0)
(-0.296595 10.0644 0)
(-0.3612 10.1067 0)
(-0.428843 10.1677 0)
(-0.496001 10.2485 0)
(-0.559414 10.3486 0)
(-0.615027 10.468 0)
(-0.658659 10.6055 0)
(-0.686323 10.7588 0)
(-0.694526 10.9246 0)
(-0.677831 11.1001 0)
(-0.640796 11.2767 0)
(-0.595193 11.4482 0)
(-0.543415 11.614 0)
(-0.4876 11.7729 0)
(-0.429585 11.9221 0)
(-0.373406 12.0761 0)
(-0.31823 12.2276 0)
(-0.261869 12.3449 0)
(-0.205242 12.4163 0)
(-0.149651 12.4346 0)
(-0.0952323 12.365 0)
(-0.0472451 11.9762 0)
(-0.00823459 10.4643 0)
(-0.00397665 10.0054 0)
(-0.00101896 10.0041 0)
(0.000505044 10.0026 1.92548e-19)
(0.000917487 10.001 -1.34144e-19)
(0.000343745 10.0001 -8.3047e-20)
(-0.00864514 10.0061 0)
(-0.0155088 10.0062 0)
(-0.025125 10.0055 0)
(-0.0381837 10.0042 0)
(-0.0554976 10.0025 0)
(-0.0779785 10.001 0)
(-0.106595 10.0004 0)
(-0.142304 10.0019 0)
(-0.185941 10.0073 0)
(-0.238051 10.0188 0)
(-0.298643 10.0396 0)
(-0.366861 10.0735 0)
(-0.440596 10.1246 0)
(-0.516139 10.1971 0)
(-0.589268 10.2918 0)
(-0.656304 10.407 0)
(-0.712827 10.5424 0)
(-0.754482 10.6959 0)
(-0.777331 10.8645 0)
(-0.778142 11.0442 0)
(-0.751592 11.2319 0)
(-0.703599 11.4184 0)
(-0.647628 11.5974 0)
(-0.586416 11.7688 0)
(-0.522283 11.9311 0)
(-0.460299 12.1014 0)
(-0.399604 12.2757 0)
(-0.337741 12.4265 0)
(-0.275965 12.5426 0)
(-0.214988 12.6129 0)
(-0.156115 12.6289 0)
(-0.0992599 12.5514 0)
(-0.0491942 12.1356 0)
(-0.00954696 10.5707 0)
(-0.0086423 10.0057 0)
(-0.00398051 10.0051 -4.34972e-19)
(-0.00107541 10.0038 -2.0347e-19)
(0.000404459 10.0024 9.44992e-20)
(0.000820567 10.0009 -8.77476e-20)
(0.000302275 10.0001 0)
(-0.0154115 10.0055 0)
(-0.0249046 10.0044 0)
(-0.0377962 10.0025 0)
(-0.0548941 10 0)
(-0.077119 9.99721 0)
(-0.105472 9.99481 0)
(-0.140981 9.99381 0)
(-0.184608 9.99572 0)
(-0.237123 10.0026 0)
(-0.298889 10.0173 0)
(-0.369582 10.0432 0)
(-0.447847 10.0846 0)
(-0.530837 10.1459 0)
(-0.613951 10.2316 0)
(-0.69226 10.3414 0)
(-0.761741 10.473 0)
(-0.817703 10.6251 0)
(-0.855746 10.7949 0)
(-0.872125 10.9787 0)
(-0.864014 11.1718 0)
(-0.826314 11.3709 0)
(-0.766426 11.5662 0)
(-0.699518 11.7515 0)
(-0.628561 11.9267 0)
(-0.559864 12.1102 0)
(-0.492704 12.3005 0)
(-0.424093 12.4736 0)
(-0.355775 12.622 0)
(-0.288825 12.7352 0)
(-0.223784 12.8029 0)
(-0.161868 12.8153 0)
(-0.10283 12.7292 0)
(-0.0508562 12.2876 0)
(-0.0106966 10.6741 0)
(-0.015328 10.0048 0)
(-0.00854451 10.0052 9.19225e-19)
(-0.00392823 10.0046 0)
(-0.00112663 10.0035 1.9965e-19)
(0.000310459 10.0022 3.47553e-23)
(0.000727596 10.0008 0)
(0.000263118 10.0001 0)
(-0.0246794 10.0034 0)
(-0.0374001 10.001 0)
(-0.0542743 9.99774 0)
(-0.0762194 9.99385 0)
(-0.104253 9.98987 0)
(-0.139451 9.98664 0)
(-0.182867 9.98547 0)
(-0.235439 9.98818 0)
(-0.297806 9.99725 0)
(-0.370073 10.0159 0)
(-0.451512 10.048 0)
(-0.540133 10.0983 0)
(-0.632265 10.1715 0)
(-0.722339 10.2718 0)
(-0.804746 10.3982 0)
(-0.875232 10.5471 0)
(-0.928959 10.7164 0)
(-0.961631 10.9026 0)
(-0.969846 11.1012 0)
(-0.951322 11.307 0)
(-0.901286 11.5163 0)
(-0.828717 11.719 0)
(-0.750411 11.9089 0)
(-0.674217 12.1056 0)
(-0.599528 12.3094 0)
(-0.522981 12.4984 0)
(-0.446699 12.6684 0)
(-0.372203 12.8126 0)
(-0.30039 12.9215 0)
(-0.231602 12.9854 0)
(-0.166921 12.9933 0)
(-0.105949 12.8981 0)
(-0.0522592 12.432 0)
(-0.0116906 10.7737 0)
(-0.0244847 10.0026 0)
(-0.0150814 10.0041 1.09763e-22)
(-0.00831528 10.0045 0)
(-0.00387185 10.0042 -2.10958e-19)
(-0.00116845 10.0033 2.17325e-23)
(0.000222736 10.0021 0)
(0.000638641 10.0008 0)
(0.000226277 10.0001 0)
(-0.0370055 9.9997 0)
(-0.0536521 9.99575 0)
(-0.0753079 9.99088 0)
(-0.102991 9.98549 0)
(-0.137804 9.98029 0)
(-0.180867 9.97637 0)
(-0.233241 9.97531 0)
(-0.295774 9.97933 0)
(-0.368913 9.99133 0)
(-0.452441 10.015 0)
(-0.545093 10.0547 0)
(-0.644158 10.1153 0)
(-0.745045 10.2018 0)
(-0.841167 10.3183 0)
(-0.926299 10.4625 0)
(-0.996106 10.6296 0)
(-1.04576 10.8165 0)
(-1.07122 11.0189 0)
(-1.06959 11.2316 0)
(-1.03924 11.449 0)
(-0.975819 11.6672 0)
(-0.889899 11.8757 0)
(-0.805576 12.0877 0)
(-0.722436 12.3051 0)
(-0.636608 12.5076 0)
(-0.550925 12.6933 0)
(-0.467301 12.8584 0)
(-0.386972 12.9971 0)
(-0.310658 13.1008 0)
(-0.238469 13.16 0)
(-0.171304 13.1625 0)
(-0.108641 13.058 0)
(-0.0534307 12.5686 0)
(-0.0125397 10.869 0)
(-0.0366639 9.99853 0)
(-0.0240314 10.0016 -5.13185e-19)
(-0.0145875 10.0033 0)
(-0.00808436 10.0039 0)
(-0.00380233 10.0037 6.21101e-19)
(-0.00120049 10.003 0)
(0.000141548 10.0019 0)
(0.00055384 10.0007 1.65895e-19)
(0.000191777 10.0001 0)
(-0.0530388 9.99398 0)
(-0.0744012 9.98825 0)
(-0.101721 9.98162 0)
(-0.136107 9.97466 0)
(-0.178721 9.96829 0)
(-0.230712 9.96387 0)
(-0.293091 9.96335 0)
(-0.366565 9.96934 0)
(-0.45133 9.98519 0)
(-0.546724 10.015 0)
(-0.650858 10.0637 0)
(-0.760198 10.1362 0)
(-0.869156 10.2378 0)
(-0.9701 10.3719 0)
(-1.0563 10.535 0)
(-1.12354 10.7208 0)
(-1.16715 10.9253 0)
(-1.18354 11.1435 0)
(-1.17043 11.3694 0)
(-1.12697 11.5971 0)
(-1.04923 11.8224 0)
(-0.956314 12.0541 0)
(-0.863894 12.2875 0)
(-0.767547 12.504 0)
(-0.670847 12.7031 0)
(-0.576401 12.8836 0)
(-0.485841 13.0426 0)
(-0.400098 13.1748 0)
(-0.319673 13.2725 0)
(-0.244436 13.3263 0)
(-0.175063 13.3228 0)
(-0.110939 13.209 0)
(-0.0543987 12.6976 0)
(-0.0132571 10.9597 0)
(-0.0525086 9.99242 0)
(-0.0359327 9.99723 0)
(-0.0231627 10.0005 -5.07441e-19)
(-0.0140975 10.0024 -4.71186e-19)
(-0.00783613 10.0033 -8.75082e-19)
(-0.00371776 10.0033 0)
(-0.0012229 10.0027 -3.77431e-19)
(6.71375e-05 10.0017 -3.50576e-19)
(0.000473245 10.0006 1.62812e-19)
(0.000159579 10.0001 0)
(-0.0735122 9.98592 0)
(-0.100464 9.97819 0)
(-0.134405 9.96968 0)
(-0.176513 9.96112 0)
(-0.227998 9.95371 0)
(-0.289988 9.94912 0)
(-0.363396 9.94969 0)
(-0.448741 9.95846 0)
(-0.545852 9.97926 0)
(-0.653538 10.0166 0)
(-0.769185 10.0758 0)
(-0.888345 10.1619 0)
(-1.00437 10.2801 0)
(-1.10861 10.4331 0)
(-1.19397 10.616 0)
(-1.25657 10.8208 0)
(-1.29209 11.0427 0)
(-1.29755 11.2759 0)
(-1.27143 11.5139 0)
(-1.2137 11.7502 0)
(-1.12918 11.9999 0)
(-1.0267 12.2541 0)
(-0.918524 12.4872 0)
(-0.809232 12.7005 0)
(-0.702088 12.8943 0)
(-0.599356 13.0683 0)
(-0.50234 13.2201 0)
(-0.411645 13.3452 0)
(-0.327507 13.4362 0)
(-0.249564 13.484 0)
(-0.178249 13.4742 0)
(-0.112879 13.3511 0)
(-0.0551899 12.8189 0)
(-0.0138554 11.0456 0)
(-0.0727455 9.98386 0)
(-0.0514125 9.99072 -5.73994e-19)
(-0.0345497 9.9958 5.36117e-19)
(-0.0223083 9.9994 -2.59026e-22)
(-0.013584 10.0017 4.62307e-19)
(-0.00756615 10.0027 4.29427e-19)
(-0.0036193 10.0029 7.97615e-19)
(-0.00123557 10.0025 5.55608e-19)
(-6.7694e-07 10.0016 -1.72038e-19)
(0.000396919 10.0006 0)
(0.000129657 10.0001 0)
(-0.0992347 9.97515 0)
(-0.132724 9.96525 0)
(-0.174303 9.95477 0)
(-0.225205 9.94468 0)
(-0.286645 9.93647 0)
(-0.359691 9.93217 0)
(-0.445118 9.93453 0)
(-0.54315 9.94708 0)
(-0.65317 9.97408 0)
(-0.773358 10.0205 0)
(-0.90028 10.0918 0)
(-1.02849 10.1932 0)
(-1.15026 10.3295 0)
(-1.25596 10.5026 0)
(-1.33837 10.7058 0)
(-1.39414 10.9298 0)
(-1.4195 11.1685 0)
(-1.41223 11.4156 0)
(-1.37166 11.6641 0)
(-1.30851 11.9262 0)
(-1.21422 12.1999 0)
(-1.09284 12.4547 0)
(-0.969107 12.685 0)
(-0.847298 12.893 0)
(-0.730265 13.0801 0)
(-0.619815 13.2464 0)
(-0.516875 13.3904 0)
(-0.421702 13.5077 0)
(-0.334248 13.5916 0)
(-0.253928 13.6331 0)
(-0.180917 13.6169 0)
(-0.1145 13.4847 0)
(-0.0558281 12.9329 0)
(-0.0143479 11.1267 0)
(-0.0981779 9.97246 0)
(-0.0711796 9.98165 -8.34504e-22)
(-0.0493423 9.98888 0)
(-0.0331987 9.99442 -4.21651e-22)
(-0.0214229 9.99836 0)
(-0.0130413 10.0009 -4.53719e-19)
(-0.007275 10.0022 -8.42852e-19)
(-0.00350607 10.0026 1.59317e-23)
(-0.00123864 10.0022 3.63509e-19)
(-6.19187e-05 10.0015 -1.68835e-19)
(0.000324928 10.0005 1.5683e-19)
(0.000101966 10.0001 0)
(-0.131083 9.96133 0)
(-0.17212 9.94913 0)
(-0.222406 9.93667 0)
(-0.283196 9.92522 0)
(-0.355673 9.91657 0)
(-0.440812 9.91317 0)
(-0.539153 9.91822 0)
(-0.650549 9.93571 0)
(-0.773848 9.97034 0)
(-0.906501 10.0274 0)
(-1.04415 10.1126 0)
(-1.18032 10.2309 0)
(-1.3062 10.3867 0)
(-1.41129 10.5808 0)
(-1.48843 10.8048 0)
(-1.53511 11.0475 0)
(-1.54828 11.3023 0)
(-1.52654 11.5618 0)
(-1.4817 11.8376 0)
(-1.40976 12.1255 0)
(-1.29443 12.4015 0)
(-1.15428 12.6541 0)
(-1.01543 12.8792 0)
(-0.881686 13.0803 0)
(-0.755412 13.2595 0)
(-0.637872 13.4175 0)
(-0.529559 13.553 0)
(-0.430381 13.6622 0)
(-0.339995 13.7388 0)
(-0.257604 13.7737 0)
(-0.183125 13.751 0)
(-0.115839 13.61 0)
(-0.0563343 13.0396 0)
(-0.0147485 11.203 0)
(-0.129678 9.95786 0)
(-0.0960165 9.96962 6.41266e-19)
(-0.0682092 9.9793 -6.00186e-19)
(-0.0473311 9.98711 5.56265e-19)
(-0.0318085 9.99309 0)
(-0.0204963 9.99737 0)
(-0.0124682 10.0002 4.45287e-19)
(-0.00696425 10.0017 -4.13537e-19)
(-0.00337868 10.0022 2.21958e-23)
(-0.00123198 10.002 1.78408e-19)
(-0.000116713 10.0013 -1.65722e-19)
(0.000257327 10.0005 -1.53915e-19)
(7.6599e-05 10.0001 0)
(-0.169989 9.94413 0)
(-0.21964 9.92956 0)
(-0.279732 9.91522 0)
(-0.351509 9.90268 0)
(-0.436095 9.89412 0)
(-0.534285 9.89241 0)
(-0.646315 9.90122 0)
(-0.771586 9.92499 0)
(-0.908305 9.96884 0)
(-1.05309 10.0383 0)
(-1.20062 10.1391 0)
(-1.34333 10.2759 0)
(-1.47139 10.4524 0)
(-1.57355 10.6683 0)
(-1.64301 10.913 0)
(-1.67831 11.1739 0)
(-1.67727 11.4433 0)
(-1.65267 11.7319 0)
(-1.59979 12.0355 0)
(-1.50568 12.3276 0)
(-1.36919 12.6027 0)
(-1.21072 12.8505 0)
(-1.05741 13.0686 0)
(-0.912454 13.2615 0)
(-0.777637 13.4319 0)
(-0.65366 13.5809 0)
(-0.540529 13.7076 0)
(-0.437804 13.8086 0)
(-0.344848 13.8777 0)
(-0.260668 13.906 0)
(-0.184928 13.8767 0)
(-0.116933 13.7273 0)
(-0.0567293 13.1395 0)
(-0.015071 11.2746 0)
(-0.168174 9.93969 0)
(-0.126773 9.95424 0)
(-0.0918873 9.96667 6.33906e-19)
(-0.0653367 9.97706 -1.17836e-18)
(-0.0452705 9.98542 1.09334e-18)
(-0.030362 9.99182 -1.01466e-18)
(-0.0195285 9.99643 0)
(-0.0118669 9.99946 4.37176e-19)
(-0.00663287 10.0012 -4.05854e-19)
(-0.00323817 10.0018 -3.77031e-19)
(-0.00121491 10.0018 0)
(-0.000165035 10.0012 1.62647e-19)
(0.000194009 10.0004 0)
(5.39941e-05 10 0)
(-0.21694 9.92325 0)
(-0.276302 9.90635 0)
(-0.347311 9.89034 0)
(-0.431174 9.87714 0)
(-0.528879 9.86936 0)
(-0.640977 9.87032 0)
(-0.767325 9.88415 0)
(-0.90677 9.91573 0)
(-1.05678 9.97051 0)
(-1.21307 10.0542 0)
(-1.36927 10.1722 0)
(-1.5168 10.329 0)
(-1.64487 10.5272 0)
(-1.74161 10.7652 0)
(-1.80089 11.0304 0)
(-1.82254 11.3084 0)
(-1.82038 11.6088 0)
(-1.78879 11.9274 0)
(-1.71228 12.2375 0)
(-1.59552 12.5304 0)
(-1.43811 12.8017 0)
(-1.26201 13.0427 0)
(-1.09508 13.2523 0)
(-0.939735 13.4359 0)
(-0.797103 13.5969 0)
(-0.667339 13.7365 0)
(-0.549932 13.8542 0)
(-0.444093 13.9468 0)
(-0.348907 14.0085 0)
(-0.263195 14.0301 0)
(-0.18638 13.9945 0)
(-0.117813 13.8369 0)
(-0.0570313 13.2328 0)
(-0.0153265 11.3416 0)
(-0.214652 9.91765 0)
(-0.164357 9.93513 0)
(-0.121178 9.95055 0)
(-0.0879138 9.96385 1.2445e-18)
(-0.0624047 9.97493 -1.15489e-18)
(-0.0431358 9.98381 1.07184e-18)
(-0.0288604 9.99061 0)
(-0.0185219 9.99553 -4.61866e-19)
(-0.0112377 9.9988 0)
(-0.00628231 10.0007 3.98351e-19)
(-0.00308414 10.0015 0)
(-0.00118835 10.0016 0)
(-0.000206643 10.0011 0)
(0.000136476 10.0004 1.58112e-19)
(3.42011e-05 10 7.72218e-20)
(-0.272952 9.89846 0)
(-0.343141 9.87936 0)
(-0.426188 9.86203 0)
(-0.523188 9.84879 0)
(-0.634935 9.84267 0)
(-0.76167 9.84747 0)
(-0.902776 9.86777 0)
(-1.05644 9.90884 0)
(-1.21932 9.97635 0)
(-1.38615 10.076 0)
(-1.54954 10.213 0)
(-1.69989 10.391 0)
(-1.82555 10.6116 0)
(-1.91429 10.8719 0)
(-1.96084 11.1567 0)
(-1.98353 11.4676 0)
(-1.97581 11.8006 0)
(-1.91927 12.1286 0)
(-1.81827 12.4417 0)
(-1.67879 12.7323 0)
(-1.50098 12.9973 0)
(-1.30816 13.2296 0)
(-1.12858 13.4295 0)
(-0.963717 13.603 0)
(-0.814017 13.754 0)
(-0.679089 13.8841 0)
(-0.557923 13.9928 0)
(-0.449373 14.0771 0)
(-0.352269 14.1313 0)
(-0.265255 14.1465 0)
(-0.187531 14.1046 0)
(-0.118508 13.9393 0)
(-0.0572564 13.3199 0)
(-0.0155247 11.4043 0)
(-0.270132 9.89145 0)
(-0.209732 9.91194 0)
(-0.15694 9.93053 1.4238e-18)
(-0.11582 9.94704 1.32015e-18)
(-0.0838686 9.96119 1.22426e-18)
(-0.0593775 9.97292 -1.13543e-18)
(-0.0409288 9.9823 0)
(-0.0273069 9.98948 0)
(-0.0174781 9.99469 0)
(-0.0105821 9.99819 8.42308e-19)
(-0.00591445 10.0003 3.9106e-19)
(-0.00291556 10.0012 3.63174e-19)
(-0.00115326 10.0014 0)
(-0.000240224 10.001 -1.67067e-19)
(8.53654e-05 10.0003 -8.16211e-20)
(1.68313e-05 10 0)
(-0.339066 9.86959 0)
(-0.421213 9.84858 0)
(-0.517381 9.83045 0)
(-0.628497 9.81796 0)
(-0.755102 9.81459 0)
(-0.897036 9.8246 0)
(-1.05311 9.853 0)
(-1.22078 9.90535 0)
(-1.39578 9.98746 0)
(-1.57189 10.1049 0)
(-1.74066 10.2623 0)
(-1.89157 10.4626 0)
(-2.0123 10.7061 0)
(-2.09034 10.9881 0)
(-2.14059 11.3079 0)
(-2.15966 11.6542 0)
(-2.12593 11.9998 0)
(-2.0431 12.3335 0)
(-1.91715 12.6462 0)
(-1.75523 12.9317 0)
(-1.55782 13.1882 0)
(-1.34931 13.4103 0)
(-1.1581 13.5995 0)
(-0.984625 13.7624 0)
(-0.828602 13.9032 0)
(-0.689101 14.0237 0)
(-0.564655 14.1234 0)
(-0.453763 14.1996 0)
(-0.355022 14.2466 0)
(-0.266912 14.2554 0)
(-0.188425 14.2075 0)
(-0.119046 14.0348 0)
(-0.0574159 13.401 0)
(-0.0156763 11.4627 0)
(-0.335662 9.86093 0)
(-0.263889 9.88436 0)
(-0.200079 9.90626 -3.01209e-18)