/*--------------------------------*- C++ -*----------------------------------*\
  =========                 |
  \\      /  F ield         | OpenFOAM: The Open Source CFD Toolbox
   \\    /   O peration     | Website:  https://openfoam.org
    \\  /    A nd           | Version:  8
     \\/     M anipulation  |
\*---------------------------------------------------------------------------*/
FoamFile
{
    version     2.0;
    format      ascii;
    class       volScalarField;
    location    "0.19";
    object      epsilon;
}
// * * * * * * * * * * * * * * * * * * * * * * * * * * * * * * * * * * * * * //

dimensions      [0 2 -3 0 0 0 0];

internalField   nonuniform List<scalar> 
15677
(
59.7003
18.3535
52.6126
8.08756
25.8896
50.1627
4.62717
13.2623
31.5754
50.4826
3.17781
7.72287
17.0794
37.2644
51.5983
2.48947
5.04252
10.0238
20.8074
42.6366
53.6553
2.1457
3.62253
6.46067
12.1586
24.5354
47.65
55.7182
1.97985
2.82081
4.52374
7.72182
14.2708
28.2455
52.0084
57.6555
1.91169
2.35295
3.40106
5.3085
8.91263
16.4184
31.7461
55.6905
59.3531
1.88417
2.08027
2.72286
3.90799
6.01957
10.1021
18.5289
34.9448
58.7084
60.8551
1.87055
1.9394
2.30691
3.05471
4.35645
6.70469
11.2693
20.5613
37.7648
61.184
62.1208
1.86765
1.87831
2.05638
2.52062
3.34704
4.7746
7.36075
12.4133
22.4528
40.228
63.1761
63.2345
1.86863
1.84884
1.91654
2.18581
2.71189
3.614
5.16389
7.9983
13.5012
24.1977
42.3244
64.8016
64.1622
1.86954
1.83869
1.85192
1.98253
2.30653
2.88562
3.85723
5.53423
8.60292
14.5327
25.7615
44.1149
66.1057
64.994
1.86978
1.83697
1.82112
1.86771
2.05122
2.41768
3.04227
4.08359
5.88038
9.17821
15.4834
27.1618
45.6104
67.1648
65.7192
1.86978
1.83723
1.81049
1.81332
1.89812
2.11723
2.51829
3.18576
4.2917
6.20627
9.71147
16.3594
28.3834
46.867
68.0284
66.3609
1.86974
1.8375
1.80819
1.78976
1.81538
1.9302
2.1785
2.60996
3.31602
4.4845
6.50632
10.2063
17.144
29.4472
47.9121
68.7306
66.9489
1.86972
1.8376
1.8079
1.78273
1.77569
1.82144
1.96223
2.23491
2.69272
3.43491
4.66011
6.78272
10.6533
17.8453
30.354
48.7677
69.333
67.4489
1.86971
1.83761
1.80792
1.78101
1.76144
1.7661
1.83168
1.99295
2.28609
2.76752
3.54207
4.81982
7.03153
11.0564
18.4549
31.1178
49.4763
69.8096
67.956
1.8697
1.83761
1.80794
1.78068
1.75696
1.74389
1.76035
1.84305
2.02146
2.33231
2.83449
3.63831
4.96234
7.25446
11.4094
18.9802
31.7513
50.0304
70.2593
68.35
1.8697
1.83759
1.80794
1.78064
1.7557
1.73586
1.72948
1.75735
1.85444
2.04758
2.37366
2.89408
3.72347
5.08846
7.44919
11.7153
19.4194
32.2599
50.4934
70.5931
68.8207
1.8697
1.83758
1.80793
1.78062
1.75539
1.73314
1.71726
1.71796
1.7558
1.86557
2.07119
2.41034
2.94652
3.79797
5.19785
7.61664
11.9718
19.7792
32.666
50.829
70.9652
69.1333
1.8697
1.83758
1.80792
1.7806
1.75531
1.7323
1.71265
1.70125
1.7084
1.75569
1.87602
2.09228
2.44261
2.9921
3.86218
5.29076
7.7569
12.182
20.0633
32.9688
51.1161
71.214
69.5996
1.86971
1.83757
1.80791
1.78057
1.75528
1.73204
1.71104
1.69442
1.68718
1.70078
1.756
1.88562
2.11099
2.47072
3.03136
3.9164
5.36828
7.87022
12.3472
20.2774
33.1937
51.3052
71.5649
69.8527
1.86971
1.83756
1.8079
1.78055
1.75525
1.73194
1.7105
1.6918
1.67796
1.67522
1.69445
1.75675
1.89448
2.12755
2.49513
3.06466
3.96158
5.43023
7.95958
12.4703
20.4315
33.3419
51.4664
71.7681
70.3193
1.86971
1.83756
1.80789
1.78053
1.75522
1.73188
1.71031
1.69083
1.67417
1.66356
1.66472
1.68942
1.75812
1.9027
2.14227
2.51625
3.09281
3.99826
5.47949
8.02469
12.5569
20.5254
33.43
51.5802
72.1611
70.5632
1.86971
1.83756
1.80789
1.78052
1.7552
1.73183
1.71022
1.69045
1.67269
1.65849
1.65061
1.65612
1.68556
1.75993
1.91052
2.15566
2.53485
3.11664
4.02796
5.51545
8.07092
12.6075
20.5819
33.4731
51.6522
72.4557
429.228
1.86971
1.83756
1.80789
1.7805
1.75518
1.73179
1.71015
1.69026
1.67211
1.65635
1.64425
1.63979
1.6487
1.68292
1.76258
1.91848
2.16828
2.55158
3.13692
4.05131
5.54214
8.09738
12.6335
20.5821
33.467
51.7724
88.7911
717.184
1.86971
1.83755
1.80788
1.78049
1.75516
1.73175
1.7101
1.69015
1.67184
1.65544
1.64149
1.63207
1.63021
1.64361
1.68221
1.76643
1.92696
2.18084
2.56736
3.1551
4.07063
5.55999
8.11292
12.6299
20.5683
33.4688
52.6914
122.124
997.833
1.86971
1.83755
1.80788
1.78049
1.75515
1.73173
1.71005
1.69007
1.67169
1.65501
1.64029
1.62853
1.62134
1.62331
1.63952
1.68325
1.77184
1.93678
2.19422
2.58345
3.17236
4.08711
5.57259
8.11256
12.6173
20.5374
33.4924
55.2428
157.683
1246.07
1.86971
1.83755
1.80788
1.78048
1.75514
1.7317
1.71001
1.69001
1.67158
1.65478
1.63973
1.6269
1.61722
1.61315
1.61763
1.63957
1.68626
1.77955
1.94864
2.20947
2.60067
3.19
4.1022
5.58068
8.10919
12.592
20.4981
33.5896
59.8071
190.29
1474.82
1.86971
1.83755
1.80788
1.78047
1.75513
1.73169
1.70998
1.68995
1.67149
1.65462
1.63942
1.62612
1.6153
1.60821
1.60675
1.61601
1.64138
1.69236
1.79033
1.96357
2.22738
2.62036
3.20909
4.11784
5.58753
8.10189
12.5624
20.4531
33.8398
64.5234
221.224
1668.92
1.86971
1.83755
1.80788
1.78047
1.75512
1.73167
1.70996
1.68991
1.67141
1.65451
1.63921
1.62569
1.61435
1.60583
1.60145
1.60386
1.6174
1.64616
1.70247
1.80517
1.98241
2.24929
2.64348
3.2314
4.13535
5.5956
8.09398
12.5306
20.403
34.3047
69.3187
248.439
1816.52
1.86971
1.83755
1.80788
1.78046
1.75512
1.73165
1.70993
1.68987
1.67135
1.65441
1.63905
1.62542
1.61382
1.60463
1.59886
1.5978
1.60502
1.62174
1.65559
1.71744
1.82497
2.00644
2.27608
2.67157
3.25777
4.1568
5.60681
8.08789
12.4974
20.3572
34.8601
73.67
269.591
1931.16
1.86971
1.83755
1.80788
1.78046
1.75511
1.73164
1.70992
1.68983
1.67129
1.65433
1.63891
1.62522
1.61347
1.60398
1.59753
1.59481
1.59885
1.60916
1.63065
1.67079
1.73819
1.851
2.03654
2.30916
2.70529
3.28994
4.18326
5.6228
8.08507
12.4629
20.3199
35.3969
77.0402
286.322
2023.3
1.83755
1.86975
1.80788
1.78046
1.75511
1.73163
1.7099
1.6898
1.67125
1.65426
1.6388
1.62506
1.61321
1.60357
1.59678
1.59329
1.59582
1.60293
1.61789
1.64614
1.69244
1.76604
1.88417
2.07408
2.3492
2.74625
3.32855
4.21612
5.64392
8.08609
12.4256
20.2782
35.8035
79.6252
299.899
2100.24
1.80788
1.83765
1.86982
1.78046
1.75511
1.73162
1.70989
1.68978
1.67121
1.65419
1.6387
1.62492
1.61299
1.60327
1.59629
1.59248
1.5943
1.59994
1.6117
1.63382
1.66867
1.72183
1.80196
1.92595
2.11984
2.39771
2.7948
3.37486
4.25549
5.67085
8.09054
12.3859
20.2281
36.0847
81.6023
311.36
2166.94
1.78045
1.80804
1.83785
1.86989
1.7551
1.73161
1.70988
1.68975
1.67118
1.65414
1.63862
1.62481
1.61281
1.60303
1.59593
1.59198
1.59352
1.59852
1.6089
1.62814
1.65727
1.69967
1.76021
1.84737
1.977
2.17503
2.4549
2.85232
3.42883
4.30185
5.70734
8.10094
12.3501
20.1662
36.2561
83.1562
321.315
2226.42
1.7551
1.78066
1.80835
1.83805
1.86997
1.73161
1.70987
1.68973
1.67116
1.65409
1.63856
1.62471
1.61266
1.60284
1.59563
1.59163
1.59306
1.59786
1.60775
1.62587
1.65255
1.68989
1.74051
1.80923
1.90339
2.03893
2.24011
2.52233
2.91845
3.49089
4.36118
5.75617
8.11928
12.3177
20.0951
36.3514
84.4007
330.274
2280.83
1.7316
1.75535
1.78108
1.80868
1.83826
1.87004
1.70987
1.68971
1.67114
1.65404
1.6385
1.62461
1.61252
1.60267
1.59539
1.59136
1.59275
1.59752
1.60737
1.6253
1.65134
1.68696
1.73335
1.79319
1.87017
1.97183
2.11237
2.31634
2.59908
2.99392
3.56883
4.43682
5.81353
8.14403
12.2899
20.0174
36.3828
85.4396
338.455
2331.18
1.70986
1.73189
1.75587
1.78151
1.80902
1.83848
1.87012
1.6897
1.67112
1.65401
1.63845
1.62453
1.61241
1.60253
1.59518
1.59114
1.59251
1.59733
1.60731
1.62549
1.65173
1.68724
1.73263
1.78957
1.85936
1.94539
2.0537
2.19898
2.40382
2.68645
3.08773
3.66634
4.5221
5.8787
8.17477
12.2662
19.9377
36.375
86.33
346.112
2378.52
1.68969
1.71019
1.73249
1.7564
1.78196
1.80936
1.8387
1.8702
1.6711
1.65397
1.63841
1.62446
1.61232
1.6024
1.595
1.59095
1.59233
1.59721
1.60738
1.62598
1.65292
1.68935
1.73537
1.7922
1.85991
1.94061
2.03584
2.15124
2.2991
2.50406
2.79424
3.20401
3.77465
4.6156
5.95011
8.21073
12.2479
19.8581
36.3532
87.1227
353.282
2422.97
1.67109
1.69004
1.71086
1.7331
1.75695
1.78242
1.80972
1.83893
1.87029
1.65394
1.63838
1.62439
1.61225
1.60229
1.59484
1.5908
1.59218
1.59713
1.6075
1.62656
1.65435
1.69225
1.74003
1.79865
1.86752
1.94747
2.03823
2.14296
2.26476
2.41457
2.62886
2.92966
3.3319
3.89119
4.71594
6.02667
8.25149
12.234
19.7829
36.3122
87.8375
360.116
2465.23
1.65391
1.67147
1.69077
1.71156
1.73373
1.75751
1.78289
1.81008
1.83917
1.87037
1.63835
1.62433
1.61219
1.60218
1.59471
1.59067
1.59205
1.59707
1.60764
1.62715
1.65581
1.69529
1.74548
1.80723
1.87922
1.96201
2.05376
2.15552
2.26719
2.3949
2.56038
2.78743
3.08023
3.47059
4.01493
4.8216
6.10733
8.29593
12.2254
19.7122
36.2654
88.5044
366.573
2505.02
1.63833
1.6543
1.67226
1.69153
1.71227
1.73439
1.75809
1.78337
1.81045
1.83941
1.87046
1.62428
1.61213
1.60208
1.5946
1.59056
1.59195
1.59704
1.60779
1.62772
1.65723
1.69825
1.75095
1.81668
1.89337
1.9812
2.07763
2.18256
2.29318
2.41192
2.5576
2.74339
2.96519
3.24479
3.61917
4.14529
4.93123
6.19099
8.34354
12.2201
19.6477
36.2179
89.1263
372.77
2543
1.62423
1.63873
1.65512
1.67308
1.6923
1.713
1.73505
1.75868
1.78387
1.81083
1.83966
1.87055
1.61209
1.60199
1.59451
1.59046
1.59186
1.59702
1.60794
1.62826
1.65857
1.70105
1.7562
1.82603
1.90855
2.00354
2.10709
2.21921
2.33504
2.455
2.59545
2.7654
2.94707
3.16011
3.42281
3.77616
4.28038
5.0437
6.27657
8.39322
12.2205
19.5898
36.1733
89.7217
378.629
2578.66
1.61206
1.62461
1.63959
1.65596
1.67392
1.6931
1.71376
1.73574
1.75928
1.78438
1.81123
1.83991
1.87064
1.6019
1.59445
1.59037
1.59179
1.597
1.60809
1.62876
1.65983
1.70366
1.76118
1.83498
1.92347
2.02734
2.14079
2.26303
2.38846
2.51638
2.66215
2.83259
3.0009
3.17055
3.36769
3.61151
3.93973
4.41935
5.15779
6.36317
8.44456
12.2229
19.5381
36.1339
90.2861
384.266
2612.74
1.60183
1.61244
1.62543
1.64046
1.65684
1.67478
1.69393
1.71453
1.73645
1.75991
1.7849
1.81163
1.84017
1.87073
1.59439
1.59028
1.59172
1.59699
1.60823
1.62923
1.661
1.70607
1.76585
1.84343
1.93779
2.05089
2.17668
2.31297
2.45148
2.59247
2.75105
2.93352
3.10468
3.26337
3.41341
3.58671
3.80911
4.10939
4.56083
5.27263
6.44992
8.49675
12.2281
19.4927
36.1006
90.8329
389.575
2644.55
1.59436
1.60212
1.61325
1.62628
1.64137
1.65774
1.67567
1.69478
1.71532
1.73718
1.76055
1.78544
1.81204
1.84043
1.87082
1.59019
1.59165
1.59698
1.60836
1.62966
1.66208
1.70829
1.7702
1.85132
1.95141
2.07368
2.21232
2.36661
2.52363
2.68217
2.85976
3.06345
3.24969
3.41228
3.55197
3.67386
3.81534
4.0105
4.28269
4.70352
5.38701
6.53606
8.54917
12.2366
19.453
36.0739
91.3544
394.69
2675
1.59012
1.59464
1.60276
1.61408
1.62716
1.6423
1.65867
1.67658
1.69566
1.71614
1.73793
1.76121
1.78599
1.81245
1.84068
1.8709
1.59158
1.59696
1.60847
1.63005
1.66307
1.71033
1.77423
1.85866
1.96428
2.09547
2.247
2.42067
2.60201
2.78589
2.98862
3.22242
3.4343
3.61346
3.75589
3.86567
3.94985
4.05265
4.21441
4.45732
4.84575
5.50026
6.62097
8.60142
12.2472
19.4187
36.0534
91.8614
399.479
2703.23
1.59155
1.59012
1.59522
1.60342
1.61495
1.62808
1.64327
1.65964
1.67752
1.69656
1.71698
1.7387
1.76188
1.78654
1.81285
1.84093
1.87098
1.59694
1.60858
1.63041
1.66397
1.7122
1.77794
1.86544
1.97638
2.1161
2.28047
2.47414
2.68185
2.90021
3.13994
3.41401
3.66292
3.87066
4.02841
4.13633
4.20334
4.23934
4.29639
4.41947
4.63224
4.9873
5.61178
6.70415
8.65308
12.2595
19.3893
36.0389
92.3449
404.103
2730.29
1.59697
1.59143
1.59014
1.5958
1.60413
1.61586
1.62905
1.64426
1.66064
1.67848
1.69749
1.71785
1.73949
1.76254
1.78707
1.81323
1.84117
1.87106
1.60866
1.63074
1.66478
1.7139
1.78135
1.8717
1.98769
2.13549
2.31257
2.52645
2.76137
3.01877
3.31066
3.64511
3.94559
4.19668
4.38291
4.49997
4.55498
4.564
4.5404
4.54454
4.62414
4.80441
5.12713
5.72095
6.78519
8.70379
12.2731
19.3643
36.0299
92.8144
408.399
2755.23
1.60882
1.59662
1.59112
1.59012
1.59644
1.6049
1.61679
1.63005
1.64528
1.66167
1.67947
1.69845
1.71873
1.74027
1.76319
1.78759
1.81361
1.8414
1.87114
1.63101
1.66551
1.71546
1.78446
1.87745
1.99819
2.15361
2.3432
2.57704
2.83969
3.13978
3.4926
3.91424
4.29886
4.61554
4.849
4.98734
5.03605
5.01408
4.94696
4.85129
4.79526
4.82771
4.97248
5.26404
5.82719
6.86375
8.75328
12.2877
19.3432
36.0256
93.2612
412.563
2779.17
1.63135
1.60813
1.59569
1.59075
1.59023
1.59711
1.60575
1.61775
1.6311
1.64633
1.66273
1.68049
1.69942
1.7196
1.74103
1.76382
1.78809
1.81397
1.84162
1.87122
1.66614
1.71685
1.7873
1.88273
2.00791
2.17048
2.37227
2.62545
2.91635
3.26245
3.68242
4.20963
4.72911
5.16748
5.48013
5.65884
5.70583
5.64633
5.51631
5.35166
5.17038
5.04696
5.02909
5.13599
5.39718
5.93004
6.93957
8.80132
12.303
19.3257
36.0265
93.6938
416.401
2798.4
1.66685
1.63007
1.60618
1.59465
1.59048
1.5905
1.59777
1.60666
1.61873
1.6322
1.64741
1.66383
1.68154
1.7004
1.72046
1.74177
1.76444
1.78858
1.81433
1.84184
1.87129
1.71809
1.78986
1.88757
2.01687
2.18615
2.39971
2.67142
2.99113
3.38564
3.87714
4.52747
5.22826
5.88474
6.36375
6.61812
6.67238
6.56118
6.33973
6.06367
5.77728
5.49613
5.29827
5.22717
5.29448
5.52596
6.02914
7.01246
8.84775
12.3188
19.3111
36.0294
94.1042
419.639
2814.62
1.71939
1.6649
1.62643
1.6041
1.59375
1.59022
1.59096
1.59844
1.60764
1.61975
1.63333
1.64852
1.66495
1.68258
1.70134
1.72129
1.74248
1.76503
1.78905
1.81467
1.84205
1.87136
1.79217
1.89198
2.02512
2.2007
2.42548
2.71488
3.06385
3.50779
4.07411
4.86778
5.80104
6.7697
7.57347
8.02056
8.10701
7.92868
7.5699
7.12132
6.6563
6.22238
5.82694
5.54793
5.42104
5.4476
5.64995
6.12427
7.08226
8.89243
12.3347
19.2994
36.0353
94.4475
422.32
2832.14
1.79446
1.71658
1.65906
1.62258
1.60224
1.59295
1.58991
1.59155
1.59912
1.60867
1.6208
1.6345
1.64967
1.66607
1.68359
1.70226
1.7221
1.74318
1.76562
1.78951
1.81501
1.84225
1.87143
1.89601
2.03266
2.21419
2.44959
2.75587
3.13427
3.6274
4.27205
5.2321
6.4526
7.82875
9.10763
9.98241
10.2453
9.9989
9.44826
8.7372
7.99034
7.29185
6.68466
6.16108
5.79484
5.60996
5.59505
5.76886
6.21519
7.14891
8.93527
12.3507
19.2896
36.043
94.7368
425.249
2851.28
1.89987
1.79058
1.70756
1.65294
1.61909
1.60054
1.59222
1.58964
1.59224
1.59985
1.60976
1.6219
1.63571
1.65082
1.66715
1.68458
1.70315
1.72288
1.74386
1.76618
1.78996
1.81533
1.84245
1.87147
2.03961
2.22666
2.47207
2.7945
3.20212
3.74332
4.47109
5.62152
7.18172
9.05716
10.9571
12.48
13.25
13.1021
12.3138
11.2308
10.0565
8.94012
7.96539
7.161
6.49674
6.03793
5.79336
5.73665
5.88262
6.30201
7.21241
8.97622
12.3666
19.2831
36.0504
95.0577
428.427
2872.09
2.04606
1.89464
1.77709
1.69823
1.64732
1.61583
1.59897
1.59155
1.58945
1.59301
1.60064
1.61089
1.62305
1.6369
1.65194
1.66821
1.68555
1.70402
1.72365
1.74452
1.76673
1.79039
1.81565
1.84255
1.87147
2.23826
2.49299
2.83087
3.26709
3.85498
4.67217
6.03532
7.98084
10.4372
13.0976
15.485
17.0743
17.4691
16.6182
15.0456
13.2594
11.5118
9.95936
8.67009
7.64759
6.83198
6.27628
5.97078
5.87223
5.9908
6.38488
7.2728
9.01525
12.3802
19.278
36.06
95.4089
431.924
2894.93
2.24877
2.03925
1.87476
1.76327
1.68961
1.64199
1.61276
1.5975
1.59097
1.58936
1.59382
1.6015
1.61205
1.62421
1.63806
1.65304
1.66924
1.68649
1.70487
1.7244
1.74516
1.76726
1.79081
1.8158
1.84255
1.87147
2.51257
2.86511
3.32897
3.96234
4.87637
6.4708
8.83841
11.9442
15.4902
18.9532
21.6763
23.0413
22.6975
20.7926
18.1693
15.5066
13.0816
11.034
9.39788
8.14026
7.16486
6.50905
6.14188
6.00186
6.09312
6.4637
7.3301
9.04748
12.3921
19.2735
36.072
95.8027
435.716
2919.76
2.52989
2.23986
2.01031
1.85467
1.75046
1.68139
1.63691
1.60986
1.59614
1.59049
1.58937
1.59466
1.60244
1.61319
1.62537
1.63919
1.65412
1.67024
1.68741
1.70569
1.72512
1.74578
1.76778
1.79102
1.8158
1.84255
1.87147
2.89749
3.38771
4.06582
5.08435
6.92358
9.74115
13.551
18.0889
22.819
26.9883
29.7671
30.4954
28.9585
25.6008
21.647
17.9385
14.7416
12.149
10.1403
8.63475
7.49351
6.73547
6.30638
6.12561
6.18982
6.53844
7.3772
9.07493
12.4054
19.269
36.088
96.2347
439.903
2947.08
2.92574
2.51856
2.19785
1.98143
1.83598
1.73818
1.67347
1.63204
1.60714
1.59491
1.59011
1.58951
1.5955
1.60345
1.6143
1.62651
1.64029
1.65518
1.67121
1.6883
1.70649
1.72583
1.74639
1.76804
1.79102
1.8158
1.84255
1.87147
3.44364
4.16627
5.29625
7.3881
10.6752
15.2305
20.8452
27.0046
32.9046
37.5462
39.9535
39.5058
36.2397
30.9968
25.4314
20.5185
16.4674
13.2894
10.8892
9.12702
7.8162
6.95488
6.46413
6.24347
6.2811
6.59982
7.4172
9.10509
12.4203
19.266
36.1078
96.7218
444.452
2976.74
3.49188
2.9111
2.4575
2.15655
1.95453
1.81804
1.72631
1.66584
1.62739
1.6046
1.59379
1.58984
1.58984
1.59632
1.60449
1.61539
1.62764
1.64137
1.65621
1.67216
1.68917
1.70726
1.72651
1.74669
1.76804
1.79102
1.8158
1.84255
1.87147
4.26451
5.51028
7.85842
11.627
16.956
23.7111
31.4268
39.2951
46.2095
50.9238
52.3715
50.0866
44.4907
36.916
29.4689
23.2095
18.2355
14.4415
11.6372
9.61337
8.13132
7.16676
6.61503
6.35547
6.35586
6.6519
7.46103
9.13828
12.4373
19.2631
36.1338
97.2577
449.505
3009.43
4.35057
3.47344
2.82109
2.39846
2.11804
1.92864
1.80065
1.71483
1.65851
1.62294
1.6023
1.59279
1.58959
1.59041
1.5971
1.60555
1.61645
1.62874
1.64241
1.65721
1.67308
1.69001
1.70802
1.72685
1.74669
1.76804
1.79102
1.8158
1.84255
1.87143
5.72346
8.33021
12.584
18.7024
26.64
36.0032
46.02
55.5444
63.1435
67.3448
67.0817
62.192
53.6256
43.279
33.7027
25.9751
20.0241
15.593
12.3775
10.0905
8.43759
7.3707
6.75904
6.44771
6.41918
6.7089
7.50908
9.17483
12.4565
19.263
36.1655
97.8666
455.006
3044.81
4.32682
5.91128
3.33657
2.73602
2.34335
2.08095
1.90354
1.78381
1.70376
1.65147
1.61868
1.60017
1.5919
1.58929
1.59111
1.59787
1.60661
1.61749
1.62983
1.64344
1.65819
1.67398
1.69084
1.70839
1.72685
1.74669
1.76804
1.79102
1.8158
1.84245
1.87136
8.79943
13.5354
20.4471
29.5887
40.6553
52.9414
65.3213
76.275
84.0309
86.9372
84.0582
75.7153
63.5275
49.9962
38.0751
28.7814
21.8144
16.7335
13.1046
10.5558
8.73393
7.56638
6.87812
6.52613
6.4884
6.77132
7.5618
9.21513
12.4783
19.2641
36.2064
98.5382
461.154
3083.88
4.103
5.89282
9.21611
3.21163
2.65663
2.29025
2.04496
1.8792
1.76752
1.6931
1.64473
1.61467
1.59825
1.59114
1.58908
1.59186
1.59865
1.60766
1.61852
1.63088
1.64444
1.65914
1.67485
1.69124
1.70839
1.72685
1.74669
1.76804
1.79102
1.81565
1.84225
1.87129
14.4706
22.1711
32.519
45.312
59.9323
75.3183
89.9544
101.914
109.086
109.718
103.184
90.4948
74.0561
56.9726
42.5302
31.5977
23.5897
17.8539
13.814
11.007
9.01947
7.72893
6.97963
6.61216
6.56411
6.83972
7.6197
9.25964
12.5032
19.2671
36.2557
99.307
467.859
3125.95
3.9065
5.49683
9.22733
15.3034
3.09592
2.58016
2.23878
2.01006
1.85564
1.75182
1.68287
1.63832
1.61097
1.59657
1.59052
1.58898
1.59264
1.59945
1.60868
1.61954
1.63191
1.64542
1.66007
1.67528
1.69124
1.70839
1.72685
1.74669
1.76804
1.79081
1.81533
1.84204
1.87122
23.8559
35.3999
49.9133
66.8822
85.3379
103.836
120.437
132.771
138.394
135.582
124.255
106.323
85.0558
64.1133
47.0162
34.3968
25.3358
18.9474
14.5022
11.4425
9.25749
7.86792
7.09132
6.70663
6.647
6.9147
7.68332
9.30885
12.5316
19.2735
36.3192
100.158
475.41
3172.48
3.72818
5.15205
8.5028
15.3889
25.3652
2.98492
2.50613
2.1889
1.97629
1.83291
1.73673
1.6731
1.63232
1.60768
1.59514
1.59003
1.58899
1.59341
1.60028
1.60968
1.62054
1.63292
1.64638
1.66053
1.67528
1.69124
1.70839
1.72685
1.74669
1.76778
1.79038
1.815
1.84183
1.87114
38.2025
54.4125
73.7022
95.2156
117.622
139.077
157.168
169.023
171.899
164.304
146.989
122.96
96.3662
71.328
51.4864
37.155
27.0416
20.0083
15.1664
11.8059
9.46139
8.02128
7.21432
6.81047
6.73785
6.99696
7.7533
9.36332
12.5639
19.2845
36.3948
101.14
483.648
3222.18
3.56012
4.84045
7.85805
14.1418
25.634
40.7192
2.87778
2.43451
2.14069
1.94371
1.81106
1.72228
1.66389
1.62687
1.6048
1.59392
1.58969
1.58912
1.59416
1.60114
1.61066
1.62153
1.63391
1.64685
1.66052
1.67528
1.69124
1.70839
1.72685
1.74638
1.76725
1.78994
1.81466
1.84161
1.87106
58.7674
80.3282
104.828
131.078
157.397
181.506
200.424
210.701
209.395
195.54
171.043
140.147
107.831
78.5334
55.8993
39.8533
28.6979
21.0323
15.7205
12.1174
9.68681
8.1907
7.34997
6.92472
6.83751
7.08726
7.83031
9.4237
12.6012
19.2998
36.4918
102.231
493.023
3277.27
3.40041
4.54963
7.26739
12.9938
23.6951
41.3234
62.6755
2.77443
2.36544
2.09423
1.9124
1.79013
1.70863
1.65548
1.62204
1.60229
1.59289
1.58946
1.58939
1.59488
1.60201
1.61161
1.62253
1.63439
1.64684
1.66052
1.67528
1.69124
1.70839
1.72651
1.74577
1.76671
1.78949
1.81431
1.84139
1.87098
86.7029
114.093
144.04
175.069
205.152
231.485
250.357
257.681
250.52
228.843
196.031
157.627
119.302
85.6555
60.221
42.4761
30.2977
21.8867
16.1954
12.4619
9.93631
8.3781
7.49973
7.05058
6.94695
7.18647
7.91513
9.49071
12.6438
19.3223
36.6066
103.474
503.22
3335.39
3.2486
4.27653
6.71308
11.9171
21.8736
38.4988
63.8046
92.4013
2.67496
2.29906
2.04964
1.88244
1.77033
1.69611
1.64795
1.61773
1.60012
1.59203
1.58929
1.58984
1.59557
1.6029
1.61258
1.62301
1.63437
1.64684
1.66052
1.67528
1.69124
1.70801
1.72581
1.74514
1.76616
1.78903
1.81396
1.84116
1.8709
122.941
156.414
191.884
227.653
261.3
289.298
306.99
309.666
294.765
263.687
221.555
175.153
130.649
92.633
64.4239
45.0109
31.6331
22.619
16.7206
12.8433
10.2127
8.58561
7.66528
7.18936
7.06727
7.29551
8.00858
9.56517
12.6932
19.3515
36.7532
104.819
514.977
3411.07
3.1045
4.02094
6.19079
10.8911
20.1263
35.8176
59.8925
94.2545
130.791
2.57951
2.23555
2.00704
1.85411
1.75216
1.68488
1.64121
1.61389
1.59829
1.5913
1.58907
1.59039
1.59626
1.60384
1.61303
1.62299
1.63437
1.64684
1.66052
1.67529
1.69083
1.70725
1.7251
1.7445
1.76559
1.78856
1.81359
1.84092
1.87081
168.123
207.747
248.749
289.237
326.232
355.165
370.202
366.179
341.486
299.498
247.22
192.499
141.761
99.4156
68.4857
47.1275
32.778
23.4289
17.3018
13.2659
10.5193
8.81562
7.84847
7.34255
7.19968
7.41548
8.1117
9.648
12.7497
19.392
36.9238
106.373
529.92
3501.94
2.96779
3.78331
5.70124
9.9112
18.4263
33.208
56.1737
89.036
133.534
178.387
2.48838
2.17507
1.9668
1.82813
1.73583
1.6748
1.63518
1.61047
1.59671
1.59071
1.58891
1.591
1.59702
1.6043
1.61296
1.623
1.63437
1.64684
1.66053
1.67485
1.69
1.70647
1.72437
1.74384
1.76501
1.78807
1.81322
1.84068
1.87073
222.589
268.361
314.971
360.264
400.368
429.239
439.696
426.554
389.938
335.688
272.661
209.476
152.548
105.963
71.8757
48.9422
34.0446
24.3254
17.9458
13.7346
10.8595
9.07085
8.05141
7.51184
7.34554
7.54746
8.22531
9.74018
12.8154
19.4423
37.1398
108.394
549.409
3593.17
2.83792
3.56479
5.24591
8.98334
16.7636
30.6333
52.5259
84.1108
126.747
182.095
235.365
2.40188
2.11814
1.92996
1.8048
1.72116
1.66575
1.62978
1.60746
1.59538
1.59021
1.58885
1.59175
1.59732
1.60425
1.61296
1.623
1.63437
1.64685
1.66006
1.67396
1.68915
1.70566
1.72362
1.74316
1.76442
1.78757
1.81284
1.84043
1.87064
286.449
338.461
390.965
441.306
484.204
511.598
514.985
489.956
439.31
371.69
297.564
225.93
162.94
111.419
74.7807
50.9497
35.4468
25.3187
18.6598
14.2547
11.2373
9.35427
8.27644
7.69908
7.50642
7.69309
8.35124
9.84324
12.8908
19.5102
37.4349
111.081
570.643
3683.62
2.71466
3.36687
4.82608
8.11124
15.1396
28.0764
48.8975
79.2742
120.442
173.388
239.964
301.609
2.32085
2.06618
1.89694
1.78385
1.70798
1.65763
1.62498
1.60484
1.59423
1.58984
1.58906
1.59209
1.59717
1.60427
1.61296
1.62299
1.63439
1.64637
1.65912
1.67305
1.68827
1.70484
1.72286
1.74246
1.7638
1.78706
1.81244
1.84017
1.87055
359.729
418.358
477.377
533.194
578.358
602.226
595.359
555.392
488.775
407.002
321.669
241.738
171.574
116.088
77.9917
53.1717
37.0004
26.4198
19.4517
14.8322
11.6572
9.66918
8.52615
7.90634
7.68392
7.85281
8.49099
9.95833
12.9794
19.6074
37.8725
114.05
593.707
3772.47
2.59911
3.18552
4.44217
7.29684
13.567
25.5359
45.2565
74.4541
114.288
165.493
228.834
306.812
376.873
2.24732
2.01971
1.86736
1.76504
1.69615
1.65037
1.62071
1.60253
1.59326
1.5898
1.58904
1.59198
1.59716
1.60427
1.61297
1.62302
1.6339
1.6454
1.65816
1.67213
1.68737
1.70399
1.72207
1.74174
1.76318
1.78653
1.81204
1.83991
1.87046
442.582
508.713
575.349
637.207
683.642
700.948
679.847
621.768
537.564
441.201
344.776
254.829
178.947
121.239
81.5418
55.6324
38.7227
27.6412
20.3308
15.4735
12.1239
10.0192
8.80338
8.1359
7.8803
8.02774
8.64583
10.0876
13.0997
19.7609
38.3734
117.442
618.673
3858.86
2.4942
3.01942
4.09574
6.545
12.0632
23.0231
41.5914
69.5953
108.188
157.892
219.054
292.53
382.115
461.009
2.18197
1.97818
1.84085
1.74816
1.68555
1.64388
1.61691
1.60054
1.59279
1.58963
1.58875
1.59202
1.59716
1.60425
1.61303
1.62253
1.6329
1.64441
1.65718
1.67117
1.68645
1.70312
1.72126
1.74101
1.76253
1.78599
1.81163
1.83965
1.87037
535.568
610.792
686.735
755.304
801.031
807.304
767.238
687.988
585.003
473.955
363.85
265.978
187.059
126.921
85.4673
58.3581
40.6326
28.9967
21.3066
16.1859
12.6426
10.4083
9.11121
8.39027
8.09765
8.21981
8.81733
10.2588
13.2639
19.9433
38.9927
121.21
645.684
3942.05
2.40111
2.87049
3.78825
5.86205
10.6452
20.5565
37.9057
64.6658
102.052
150.46
209.838
280.429
363.614
465.42
554.29
2.12388
1.94106
1.81711
1.73303
1.67606
1.63806
1.61358
1.59928
1.59235
1.58929
1.58877
1.59202
1.59717
1.6043
1.61258
1.62152
1.63189
1.64341
1.65617
1.6702
1.68551
1.70223
1.72044
1.74026
1.76187
1.78544
1.81122
1.8394
1.87028
639.866
726.704
814.662
890.252
931.429
920.457
856.182
753.026
630.543
500.938
380.05
278.203
195.977
133.186
89.8068
61.3773
42.7511
30.5012
22.3902
16.9772
13.219
10.8406
9.45294
8.67206
8.33826
8.43097
9.04201
10.4774
13.4479
20.175
39.6902
125.574
674.913
4021
2.31878
2.73811
3.52544
5.25566
9.33412
18.1586
34.2136
59.6508
95.8183
143.061
201.027
269.343
348.566
441.128
556.702
657.89
2.07221
1.9079
1.79585
1.71948
1.66751
1.63291
1.61125
1.59836
1.59187
1.58933
1.58877
1.59198
1.59733
1.60384
1.6116
1.62052
1.63085
1.64238
1.65514
1.6692
1.68455
1.70132
1.71959
1.73948
1.7612
1.78489
1.81082
1.83916
1.8702
757.576
860.732
964.229
1045.38
1075.43
1039.29
945.305
815.973
668.085
523.809
397.754
291.587
205.769
140.087
94.6012
64.7209
45.1005
32.1708
23.593
17.8557
13.859
11.3207
9.832
8.98425
8.60414
8.70638
9.32207
10.7126
13.6594
20.4422
40.5529
130.44
706.456
4095.11
2.2461
2.6198
3.30865
4.73844
8.15083
15.8543
30.5382
54.5474
89.4396
135.593
192.428
259.073
335.227
422.266
524.228
656.91
774.462
2.02622
1.8783
1.77683
1.70728
1.65993
1.62916
1.60969
1.59769
1.59194
1.58933
1.58875
1.5921
1.59703
1.60289
1.61064
1.61951
1.62979
1.64133
1.65409
1.66818
1.68357
1.70038
1.71872
1.7387
1.76054
1.78437
1.81044
1.83892
1.87012
893.878
1020.75
1142.4
1224.54
1233.6
1162.7
1033.2
868.157
699.893
548.734
417.053
306.207
216.499
147.678
99.893
68.4209
47.7048
34.023
24.9275
18.8302
14.5689
11.853
10.2521
9.32936
8.95244
9.04734
9.6175
10.9668
13.8948
20.7751
41.5214
136.124
740.664
4163.26
2.18196
2.51436
3.12508
4.3079
7.12446
13.6923
26.9117
49.3646
82.8794
127.964
183.887
249.344
323.343
406.123
500.429
612.492
768.687
908.974
1.98529
1.85189
1.75974
1.69645
1.65422
1.62676
1.60878
1.5978
1.59195
1.58929
1.58905
1.59176
1.59626
1.60199
1.60966
1.61849
1.62871
1.64026
1.65301
1.66713
1.68256
1.69942
1.71784
1.73792
1.75989
1.78385
1.81007
1.83869
1.87004
1057.8
1218.1
1358.88
1433.18
1407.81
1289.14
1107.05
912.477
734.516
575.804
438.024
322.134
228.23
156.012
105.725
72.5108
50.589
36.0762
26.4069
19.9101
15.3552
12.4423
10.7162
9.78155
9.38372
9.4051
9.92894
11.2394
14.1647
21.1554
42.717
142.488
777.514
4225.31
2.12533
2.42084
2.9666
3.95247
6.26202
11.7585
23.4018
44.1262
76.1118
120.085
175.258
239.945
312.521
392.372
480.745
582.385
706.387
896.463
1072.02
1.94887
1.82823
1.74455
1.68814
1.65068
1.62558
1.60893
1.5978
1.59188
1.58965
1.58908
1.591
1.59557
1.60112
1.60865
1.61746
1.6276
1.63916
1.65192
1.66605
1.68153
1.69844
1.71697
1.73716
1.75927
1.78335
1.8097
1.83847
1.86996
1264.65
1471.22
1630.44
1684.71
1600.12
1397.84
1170.12
960.759
772.027
605.08
460.724
339.42
241.016
165.138
112.14
77.0241
53.7788
38.3493
28.0449
21.105
16.2244
13.0927
11.3239
10.3404
9.83501
9.77932
10.2556
11.5337
14.4651
21.623
44.0635
149.983
817.516
4280.05
2.07526
2.33837
2.82743
3.65987
5.54694
10.0938
20.1465
38.9098
69.1265
111.874
166.389
230.665
302.483
380.424
464.77
558.23
668.371
808.021
1048.95
1279.38
1.91634
1.80725
1.73269
1.6831
1.64913
1.62579
1.60893
1.5977
1.59236
1.58982
1.58887
1.59038
1.59487
1.60026
1.60763
1.61642
1.62648
1.63804
1.6508
1.66495
1.68049
1.69748
1.71612
1.73643
1.75866
1.78287
1.80935
1.83825
1.86989
1547.6
1822.85
2002.24
2003.1
1769.74
1491.18
1238.95
1013
812.437
636.576
485.175
358.102
254.898
175.1
119.175
81.9934
57.2998
40.8613
29.855
22.4244
17.1825
13.9429
12.0728
10.9233
10.3043
10.1689
10.5984
11.8497
14.8095
22.1575
45.722
158.416
860.607
4328.25
2.03079
2.26595
2.70377
3.42199
4.95947
8.68936
17.2316
33.9122
61.9848
103.255
157.119
221.283
292.94
369.926
451.579
539.597
638.62
760.277
923.386
1249.66
1574.73
1.88755
1.7907
1.72558
1.68113
1.64942
1.6258
1.60879
1.59837
1.59282
1.58986
1.58893
1.58983
1.59415
1.59943
1.60658
1.61536
1.62535
1.63689
1.64967
1.66383
1.67946
1.69654
1.7153
1.73572
1.75807
1.7824
1.80901
1.83805
1.86982
2006.98
2392.38
2585.52
2285.19
1914.49
1592.61
1313.18
1069.06
855.663
670.249
511.364
378.187
269.9
185.929
126.865
87.4483
61.1761
43.6308
31.8509
23.8772
18.433
14.9878
12.8513
11.5269
10.7892
10.5725
10.9553
12.1914
15.194
22.8073
47.6051
168.442
907.064
4368.16
1.99156
2.20228
2.59361
3.22549
4.47925
7.51496
14.6618
29.2838
54.926
94.2324
147.282
211.554
283.605
360.488
440.729
524.96
616.844
723.614
863.261
1065.67
1552.21
2120.47
1.86456
1.78096
1.72304
1.68153
1.64942
1.62559
1.60972
1.59933
1.59331
1.59025
1.58911
1.5894
1.5934
1.59864
1.60553
1.61429
1.6242
1.63571
1.64852
1.66272
1.67846
1.69563
1.7145
1.73503
1.75749
1.78194
1.80867
1.83784
1.86975
2856.81
3539.84
3061.37
2515.42
2067.73
1700.42
1392.11
1128.59
901.519
705.988
539.225
399.646
286.022
197.643
135.234
93.4139
65.4293
46.6749
34.0445
25.7709
19.9666
16.0715
13.6548
12.1474
11.287
10.9892
11.3265
12.5579
15.6332
23.5543
49.9181
179.784
957.669
4400.51
1.96
2.14675
2.49561
3.05898
4.08961
6.54447
12.4435
25.0646
48.1637
85.0429
136.779
201.206
274.154
351.76
431.699
513.78
600.496
698.153
818.236
989.605
1268.62
2153.54
3301.57
1.85111
1.77779
1.72358
1.68153
1.64914
1.62679
1.61131
1.60061
1.59429
1.59076
1.58933
1.58914
1.59263
1.59786
1.60448
1.61318
1.62305
1.6345
1.64739
1.66164
1.67749
1.69475
1.71373
1.73436
1.75693
1.7815
1.80835
1.83764
1.86971
4975.17
4257.03
3397.97
2740.32
2224.34
1812.68
1474.8
1191.11
949.722
743.606
568.641
422.412