/*--------------------------------*- C++ -*----------------------------------*\
  =========                 |
  \\      /  F ield         | OpenFOAM: The Open Source CFD Toolbox
   \\    /   O peration     | Website:  https://openfoam.org
    \\  /    A nd           | Version:  8
     \\/     M anipulation  |
\*---------------------------------------------------------------------------*/
FoamFile
{
    version     2.0;
    format      ascii;
    class       volScalarField;
    location    "0.3";
    object      nut;
}
// * * * * * * * * * * * * * * * * * * * * * * * * * * * * * * * * * * * * * //

dimensions      [0 2 -1 0 0 0 0];

internalField   nonuniform List<scalar> 
15677
(
0.000168252
0.000653023
0.000148413
0.00151374
0.000442457
0.000141505
0.0026755
0.000875813
0.00038115
0.000142373
0.00392129
0.00151891
0.00068664
0.000354252
0.000145456
0.00502429
0.00235609
0.00114638
0.00058564
0.000340267
0.000151205
0.00584081
0.00331729
0.00178071
0.000947756
0.000529314
0.000332029
0.000157005
0.00633514
0.00429856
0.00256754
0.00146326
0.000820925
0.000492515
0.000327016
0.000162446
0.00656291
0.0051876
0.00345279
0.00213148
0.00125718
0.000737281
0.000467502
0.000324139
0.000167231
0.00665848
0.00589343
0.00435527
0.00292197
0.00184146
0.00111233
0.000677451
0.000450494
0.000322587
0.000171451
0.0067055
0.00633832
0.00518085
0.0037788
0.00255686
0.00163176
0.00100468
0.000634186
0.000438776
0.00032202
0.00017502
0.00671438
0.00655354
0.00584537
0.00462514
0.00336267
0.00228642
0.00147274
0.000924336
0.000602308
0.000430832
0.000321983
0.00017815
0.00670991
0.00666157
0.00629569
0.00537705
0.00419693
0.00304518
0.00207787
0.00134918
0.000862407
0.00057869
0.000425405
0.000322456
0.000180762
0.00670629
0.00669878
0.0065296
0.00596446
0.00498425
0.00385722
0.00279582
0.00191189
0.00125146
0.000814301
0.000561007
0.000421909
0.000323104
0.000183111
0.00670543
0.00670439
0.0066468
0.00635699
0.00565019
0.00465584
0.00358347
0.00259373
0.00177811
0.0011733
0.000776604
0.000547825
0.000419607
0.000324008
0.000185156
0.0067055
0.00670285
0.00668789
0.00656301
0.00614219
0.00536853
0.00438151
0.00335715
0.00242826
0.00166847
0.00111002
0.000746845
0.000537818
0.000418357
0.00032486
0.000186968
0.00670569
0.00670158
0.00669642
0.0066566
0.00644686
0.00593378
0.00512129
0.00414889
0.0031689
0.00229039
0.00157836
0.00105838
0.000723297
0.000530543
0.000417497
0.000325908
0.000188623
0.00670581
0.00670107
0.00669719
0.00668491
0.00660493
0.00632192
0.00573778
0.00490422
0.00395147
0.00300988
0.00217551
0.00150337
0.00101665
0.000704839
0.000524907
0.000417368
0.000326843
0.000190037
0.00670587
0.00670092
0.00669684
0.0066916
0.00666379
0.00654137
0.00618855
0.00555735
0.00471499
0.00378209
0.0028757
0.00207877
0.00144147
0.000982678
0.000690156
0.000521037
0.00041732
0.000327932
0.000191465
0.00670589
0.00670088
0.0066966
0.0066926
0.00668241
0.00663462
0.00646802
0.00605838
0.00539437
0.00454937
0.00363722
0.00276157
0.00199786
0.00139016
0.000955162
0.000678821
0.000518027
0.000417855
0.000328906
0.000192582
0.00670591
0.00670086
0.00669651
0.00669248
0.00668745
0.00666912
0.00659819
0.00638982
0.00593543
0.00524784
0.00440531
0.00351274
0.00266508
0.00193012
0.00134808
0.000933023
0.000669955
0.000516309
0.000418277
0.000329993
0.000193911
0.00670591
0.00670084
0.00669649
0.00669229
0.00668844
0.0066807
0.00665159
0.00655644
0.00631139
0.00582068
0.00511755
0.00427995
0.00340648
0.00258376
0.00187405
0.00131371
0.000915561
0.000663405
0.000514973
0.000419233
0.000331023
0.000194801
0.00670591
0.00670083
0.00669649
0.00669218
0.00668849
0.00668401
0.00667194
0.00663052
0.00651158
0.00623392
0.00571569
0.00500226
0.00417187
0.00331644
0.00251593
0.00182808
0.0012863
0.000901902
0.000658592
0.000514736
0.000419954
0.000332075
0.00019612
0.00670591
0.00670082
0.00669648
0.00669212
0.0066884
0.00668471
0.00667887
0.0066614
0.00660637
0.00646585
0.00616097
0.00562091
0.00490177
0.00407961
0.00324075
0.00246026
0.00179123
0.00126485
0.000891989
0.000655474
0.000514506
0.000421207
0.00033324
0.000196852
0.00670591
0.00670082
0.00669648
0.00669208
0.00668833
0.00668474
0.0066809
0.0066731
0.00664884
0.00658119
0.00641985
0.00609383
0.00553701
0.00481485
0.00400153
0.00317887
0.00241572
0.00176285
0.00124901
0.000884668
0.000653613
0.000515412
0.000422138
0.000334162
0.000198171
0.0067059
0.00670082
0.00669647
0.00669206
0.00668829
0.00668465
0.00668136
0.00667706
0.00666634
0.00663564
0.00655445
0.00637763
0.00603211
0.00546308
0.00474151
0.0039384
0.00312937
0.00238138
0.00174145
0.0012377
0.000880716
0.000653123
0.000515903
0.000423657
0.000335656
0.000198877
0.00670589
0.00670083
0.00669646
0.00669204
0.00668827
0.00668456
0.00668138
0.00667818
0.00667291
0.00665944
0.00662117
0.00652998
0.00633631
0.00597796
0.00540205
0.00468195
0.00388655
0.00309089
0.00235621
0.00172832
0.00123213
0.000878667
0.000653644
0.000517875
0.00042469
0.00033644
5.3405e-05
0.00670589
0.00670084
0.00669645
0.00669203
0.00668825
0.00668449
0.00668133
0.00667837
0.00667511
0.00666902
0.00665192
0.00660809
0.00650501
0.00630337
0.00593301
0.0053493
0.00463262
0.00385007
0.00306706
0.002343
0.001722
0.00122951
0.000879548
0.000655478
0.000519041
0.00042713
0.000284107
6.34933e-05
0.00670588
0.00670085
0.00669644
0.00669203
0.00668823
0.00668444
0.00668127
0.0066783
0.00667571
0.0066725
0.00666506
0.00664549
0.00659473
0.00648659
0.00626991
0.00589305
0.00531346
0.00460461
0.00382815
0.00305259
0.00233579
0.0017204
0.00123119
0.000882085
0.000657538
0.000521569
0.000420905
0.000220053
7.10189e-05
0.00670587
0.00670085
0.00669643
0.00669203
0.00668821
0.00668441
0.00668123
0.00667819
0.0066758
0.00667354
0.00667024
0.00666217
0.00663933
0.00658582
0.00646703
0.00624922
0.00587394
0.00529024
0.00458342
0.00381387
0.00304621
0.00233547
0.00172457
0.00123672
0.000886263
0.000660743
0.000522883
0.00040146
0.000178346
7.6604e-05
0.00670586
0.00670086
0.00669642
0.00669204
0.00668819
0.00668439
0.00668119
0.00667809
0.00667575
0.0066737
0.00667206
0.00666903
0.00666007
0.00663637
0.00657721
0.00645878
0.00624137
0.00585822
0.00527462
0.00457216
0.00381068
0.00305038
0.00234432
0.00173512
0.00124543
0.00089257
0.000664818
0.0005212
0.000368887
0.000152678
8.11744e-05
0.00670585
0.00670087
0.00669641
0.00669204
0.00668817
0.00668438
0.00668115
0.00667801
0.00667569
0.0066736
0.00667256
0.00667151
0.00666908
0.00666052
0.006635
0.00657822
0.00645803
0.00623589
0.00585077
0.00527133
0.00457672
0.0038222
0.00306608
0.00236144
0.00175065
0.0012579
0.000900564
0.000668709
0.000515785
0.000337779
0.000134194
8.47417e-05
0.00670585
0.00670088
0.0066964
0.00669205
0.00668815
0.00668437
0.00668111
0.00667795
0.00667562
0.00667345
0.00667262
0.00667215
0.00667268
0.00667128
0.00666347
0.0066423
0.00658255
0.00646267
0.00623861
0.00585913
0.00528543
0.00459619
0.00384604
0.00309181
0.00238598
0.00177141
0.00127333
0.000910039
0.000672579
0.0005052
0.000307727
0.000121079
8.73112e-05
0.00670584
0.00670089
0.00669639
0.00669206
0.00668813
0.00668437
0.00668108
0.00667792
0.00667555
0.00667332
0.00667255
0.00667217
0.00667387
0.00667561
0.00667669
0.0066748
0.00665026
0.00659359
0.00647509
0.00625774
0.00588338
0.00531422
0.00462977
0.00388214
0.00312744
0.00241789
0.00179672
0.00129205
0.000920823
0.000675177
0.000490659
0.000281657
0.00011247
8.9245e-05
0.00670584
0.0067009
0.00669638
0.00669207
0.00668812
0.00668438
0.00668104
0.00667789
0.00667548
0.00667321
0.00667246
0.00667201
0.00667416
0.00667701
0.00668245
0.00669029
0.00668503
0.00666574
0.00661526
0.00650258
0.00629147
0.00592281
0.00535874
0.00467762
0.00393051
0.0031728
0.00245685
0.0018268
0.00131325
0.000932765
0.00067668
0.000474537
0.00026197
0.0001066
9.07711e-05
0.0067009
0.00670583
0.00669637
0.00669208
0.0066881
0.00668438
0.006681
0.00667788
0.00667541
0.00667313
0.00667235
0.00667181
0.00667415
0.00667727
0.00668459
0.00669723
0.00670193
0.00670344
0.00669402
0.00664932
0.00654451
0.00634062
0.00597904
0.00541913
0.00473998
0.00399119
0.00322783
0.00250278
0.00186107
0.00133754
0.000947398
0.000677618
0.000460518
0.00024682
0.00010246
9.20313e-05
0.00669636
0.00670093
0.00670584
0.00669208
0.00668808
0.00668439
0.00668097
0.00667788
0.00667534
0.00667308
0.00667224
0.00667163
0.00667405
0.00667716
0.00668527
0.00669992
0.0067097
0.00672222
0.00673621
0.00673292
0.00669779
0.00660229
0.00640782
0.00605274
0.00549656
0.00481733
0.0040641
0.00329226
0.00255537
0.0018997
0.0013669
0.000964919
0.000678529
0.000448515
0.000235174
9.94951e-05
9.3115e-05
0.00669209
0.00669638
0.00670097
0.00670584
0.00668807
0.0066844
0.00668094
0.00667788
0.00667527
0.00667304
0.00667213
0.00667148
0.00667392
0.00667693
0.00668541
0.00670082
0.00671292
0.0067312
0.00675799
0.0067787
0.00678656
0.00676237
0.00667866
0.00649388
0.00614567
0.0055916
0.00490933
0.00414917
0.00336598
0.00261442
0.00194743
0.00140226
0.000983936
0.000679791
0.000438829
0.00022593
9.72999e-05
9.40743e-05
0.00668806
0.00669213
0.00669642
0.00670101
0.00670584
0.0066844
0.00668091
0.00667788
0.00667521
0.00667303
0.00667201
0.00667138
0.00667378
0.00667669
0.00668536
0.00670104
0.00671413
0.00673517
0.00676896
0.00680307
0.0068364
0.00685662
0.00684608
0.00677424
0.00660074
0.00625794
0.00570489
0.00501709
0.00424624
0.00344847
0.00268698
0.0020065
0.0014402
0.00100387
0.000682618
0.00043088
0.00021864
9.56874e-05
9.49462e-05
0.00668441
0.00668809
0.00669221
0.00669646
0.00670105
0.00670585
0.00668089
0.00667789
0.00667515
0.00667303
0.0066719
0.00667131
0.00667364
0.00667645
0.00668526
0.006701
0.00671457
0.00673691
0.00677424
0.00681591
0.00686387
0.00691038
0.0069456
0.00694905
0.0068915
0.00672791
0.00639046
0.00583655
0.0051398
0.00435487
0.00354994
0.00277621
0.00207065
0.00148075
0.00102569
0.000686353
0.000424755
0.00021265
9.44439e-05
9.57468e-05
0.00668086
0.00668446
0.00668815
0.00669228
0.0066965
0.00670109
0.00670585
0.0066779
0.00667509
0.00667303
0.00667178
0.00667128
0.00667349
0.00667626
0.00668515
0.00670088
0.00671469
0.00673773
0.00677691
0.00682281
0.00687982
0.00694244
0.00700632
0.00705656
0.00707473
0.00702888
0.00687639
0.00654262
0.00598496
0.00527865
0.00448877
0.00367408
0.0028734
0.00213966
0.00152316
0.00104789
0.000691321
0.000419924
0.000207707
9.35167e-05
9.64946e-05
0.0066779
0.00668089
0.00668457
0.00668822
0.00669236
0.00669655
0.00670113
0.00670586
0.00667504
0.00667304
0.00667166
0.00667127
0.00667332
0.00667612
0.00668504
0.00670073
0.0067147
0.00673816
0.00677846
0.00682672
0.00688918
0.00696193
0.00704382
0.00712494
0.00719394
0.00722629
0.00719116
0.00704391
0.00671276
0.00615029
0.00544757
0.00465449
0.00381056
0.00297763
0.00221278
0.00156812
0.00107018
0.000697629
0.000416361
0.000203562
9.27766e-05
9.71909e-05
0.006675
0.00667797
0.00668097
0.00668467
0.00668829
0.00669244
0.00669659
0.00670117
0.00670586
0.00667305
0.00667155
0.00667129
0.00667313
0.00667603
0.00668494
0.00670058
0.00671466
0.00673843
0.00677947
0.00682933
0.00689521
0.00697443
0.00706856
0.00716929
0.00727155
0.00735752
0.00740617
0.0073806
0.00723493
0.00689965
0.00634936
0.00565281
0.00483399
0.00395671
0.00308815
0.00228948
0.001615
0.0010933
0.000704819
0.00041385
0.00020007
9.22228e-05
9.78489e-05
0.00667307
0.00667501
0.00667809
0.00668105
0.00668478
0.00668837
0.00669252
0.00669665
0.0067012
0.00670587
0.00667146
0.00667133
0.00667294
0.00667601
0.00668483
0.00670044
0.00671462
0.00673863
0.00678021
0.00683132
0.00689964
0.00698326
0.00708612
0.00720077
0.00732527
0.00744671
0.00755203
0.00761362
0.00759708
0.00745183
0.00712746
0.00658808
0.00587183
0.00502343
0.00411062
0.00320382
0.00236918
0.0016634
0.00111704
0.000712746
0.000412298
0.000197114
9.17678e-05
9.84631e-05
0.00667137
0.00667313
0.00667505
0.00667821
0.00668114
0.00668489
0.00668845
0.0066926
0.0066967
0.00670124
0.00670588
0.00667137
0.00667274
0.00667605
0.0066847
0.0067003
0.00671457
0.00673878
0.00678082
0.00683299
0.00690321
0.00699029
0.00709968
0.00722482
0.00736649
0.00751239
0.00765638
0.00777725
0.00785125
0.00784001
0.0077202
0.00741154
0.0068415
0.00609975
0.00522058
0.00427005
0.00332336
0.00245112
0.001713
0.00114104
0.000720829
0.000411458
0.000194583
9.14306e-05
9.90463e-05
0.00667141
0.00667129
0.00667325
0.00667511
0.00667834
0.00668123
0.006685
0.00668854
0.00669267
0.00669676
0.00670128
0.00670589
0.00667254
0.00667614
0.00668452
0.00670019
0.00671453
0.00673892
0.00678135
0.00683445
0.00690626
0.00699633
0.00711104
0.00724442
0.00740051
0.00756625
0.00773817
0.00790032
0.00803709
0.0081195
0.00814016
0.00804996
0.00772383
0.00711664
0.00633393
0.00542131
0.00443259
0.00344543
0.00253467
0.00176334
0.00116561
0.000729043
0.000411166
0.000192422
9.11465e-05
9.95892e-05
0.00667235
0.00667145
0.00667121
0.00667337
0.00667518
0.00667847
0.00668134
0.0066851
0.00668864
0.00669275
0.00669682
0.00670132
0.0067059
0.00667627
0.00668428
0.00670009
0.0067145
0.00673906
0.00678183
0.00683577
0.00690893
0.00700172
0.00712097
0.00726148
0.0074299
0.00761309
0.00780944
0.00800248
0.00818434
0.00833232
0.00845311
0.00851203
0.0084098
0.00805655
0.00740963
0.00657769
0.00562371
0.00459675
0.00356896
0.00261909
0.00181413
0.00119051
0.000737402
0.000411307
0.000190541
9.09407e-05
0.000100106
0.00667643
0.00667203
0.00667151
0.00667114
0.00667349
0.00667526
0.00667859
0.00668145
0.00668521
0.00668874
0.00669283
0.00669688
0.00670135
0.00670592
0.00668398
0.00670005
0.00671451
0.00673921
0.00678229
0.00683697
0.00691133
0.00700662
0.00712985
0.00727693
0.00745635
0.00765472
0.00787467
0.00809647
0.00831347
0.0085094
0.0087026
0.00887031
0.00892115
0.00879667
0.00840685
0.00771451
0.00683127
0.005827
0.00476075
0.00369242
0.00270371
0.00186502
0.00121554
0.000745817
0.000411842
0.000188931
9.07641e-05
0.000100585
0.00668362
0.00667646
0.00667154
0.00667157
0.00667109
0.0066736
0.00667536
0.00667871
0.00668158
0.00668532
0.00668884
0.00669291
0.00669695
0.00670139
0.00670593
0.00670007
0.00671455
0.00673938
0.00678271
0.00683805
0.0069135
0.00701109
0.00713788
0.00729116
0.00748056
0.0076928
0.00793504
0.00818615
0.00843761
0.00867223
0.00892159
0.00917135
0.00933447
0.00936538
0.0092077
0.00877196
0.00802711
0.0070913
0.00603094
0.0049224
0.00381482
0.00278785
0.00191569
0.00124053
0.000754296
0.000412477
0.000187519
9.06421e-05
0.000101041
0.00670019
0.00668253
0.00667641
0.00667105
0.00667163
0.00667107
0.00667371
0.00667547
0.00667882
0.00668171
0.00668542
0.00668895
0.00669299
0.00669701
0.00670142
0.00670594
0.00671462
0.00673955
0.0067831
0.00683904
0.00691547
0.00701517
0.00714517
0.00730434
0.0075028
0.00772829
0.00799201
0.00827079
0.00855944
0.00883556
0.00913411
0.0094513
0.00970035
0.00984573
0.00984382
0.00964121
0.0091496
0.00834537
0.00735459
0.00623776
0.00508159
0.00393537
0.00287104
0.00196586
0.00126535
0.000762728
0.000413261
0.000186329
9.05358e-05
0.000101461
0.0067147
0.00669981
0.00668051
0.0066764
0.0066706
0.00667167
0.00667109
0.0066738
0.00667561
0.00667893
0.00668186
0.00668552
0.00668907
0.00669306
0.00669708
0.00670146
0.00670595
0.00673972
0.00678344
0.00683992
0.00691726
0.00701889
0.00715182
0.00731654
0.00752325
0.00776165
0.00804598
0.00835087
0.00867705
0.00900295
0.00935731
0.00973684
0.0100598
0.0102958
0.010409
0.0103589
0.0100973
0.00953837
0.00866765
0.00761762
0.00644514
0.00523816
0.00405367
0.00295277
0.00201527
0.00128983
0.000771187
0.000414158
0.000185262
9.04684e-05
0.000101863
0.0067399
0.00671371
0.006699
0.00667848
0.00667635
0.00667024
0.00667166
0.00667115
0.00667387
0.00667577
0.00667904
0.00668201
0.00668563
0.00668918
0.00669314
0.00669714
0.00670149
0.00670596
0.00678372
0.00684071
0.0069189
0.00702227
0.0071579
0.00732778
0.00754206
0.00779306
0.00809679
0.00842685
0.00879193
0.00917099
0.00959157
0.0100474
0.010448
0.0107701
0.010977
0.0110364
0.0109162
0.0105773
0.00993759
0.00899259
0.00787935
0.00665128
0.0053912
0.00416878
0.00303257
0.00206368
0.00131389
0.000779539
0.000415098
0.000184364
9.0409e-05
0.000102231
0.00678396
0.00673817
0.00671152
0.00669819
0.00667677
0.00667615
0.00667
0.0066716
0.00667127
0.00667393
0.00667595
0.00667915
0.00668217
0.00668574
0.00668929
0.00669321
0.0066972
0.00670152
0.00670598
0.00684142
0.00692038
0.00702535
0.00716347
0.00733811
0.00755936
0.00782255
0.00814427
0.0084993
0.00890494
0.00933794
0.00982517
0.010386
0.010904
0.0113298
0.0116294
0.0117723
0.0117417
0.011521
0.0110824
0.0103467
0.00931913
0.00813885
0.00685506
0.00554152
0.00428007
0.00311009
0.0021109
0.00133741
0.000787827
0.000416099
0.000183563
9.03778e-05
0.000102584
0.00684208
0.00678096
0.00673435
0.00670926
0.00669702
0.0066756
0.00667575
0.00666991
0.00667149
0.00667143
0.00667398
0.00667614
0.00667926
0.00668233
0.00668584
0.0066894
0.00669328
0.00669726
0.00670155
0.00670599
0.00692173
0.00702814
0.00716855
0.00734757
0.00757528
0.00785007
0.00818845
0.00856868
0.00901536
0.00950074
0.0100561
0.0107533
0.0114607
0.0120523
0.0124595
0.0126754
0.0126963
0.012529
0.0121737
0.0116118
0.0107647
0.00964621
0.00839534
0.0070549
0.00568955
0.00438763
0.00318512
0.00215677
0.00136034
0.000795885
0.000417105
0.000182842
9.03495e-05
0.000102866
0.00692301
0.00683813
0.00677448
0.00673053
0.006707
0.00669529
0.00667494
0.00667513
0.00666995
0.00667132
0.00667163
0.00667403
0.00667634
0.00667937
0.00668248
0.00668595
0.0066895
0.00669336
0.00669731
0.00670159
0.006706
0.00703067
0.00717318
0.0073562
0.00758992
0.00787561
0.00822949
0.00863505
0.00912153
0.00965727
0.0102904
0.0111673
0.0121272
0.0129773
0.0135519
0.0138396
0.0138905
0.0137305
0.0133851
0.0128662
0.0121612
0.0111892
0.00997257
0.00864802
0.00724973
0.00583437
0.00449142
0.00325751
0.00220116
0.00138258
0.000803785
0.000418133
0.000182215
9.03402e-05
0.000103103
0.007033
0.00691752
0.00682917
0.00676788
0.00672687
0.00670475
0.00669316
0.00667472
0.00667433
0.00667011
0.00667113
0.00667185
0.00667408
0.00667653
0.00667949
0.00668262
0.00668605
0.00668959
0.00669343
0.00669736
0.00670162
0.00670601
0.0071774
0.00736405
0.00760333
0.00789918
0.00826758
0.00869816
0.009222
0.00980798
0.0105368
0.0116383
0.0128912
0.0140352
0.0148644
0.0152864
0.0153664
0.0151995
0.0148262
0.0142814
0.0135831
0.0127229
0.0116171
0.0102967
0.00889605
0.00743919
0.00597533
0.00459141
0.00332717
0.00224397
0.0014041
0.000811489
0.000419185
0.000181722
9.0336e-05
0.000103358
0.00718127
0.00702558
0.00690456
0.00682031
0.00676146
0.00672346
0.00670255
0.00669049
0.00667484
0.00667341
0.00667034
0.00667095
0.00667207
0.00667416
0.00667671
0.00667962
0.00668275
0.00668616
0.00668969
0.0066935
0.00669742
0.00670165
0.00670602
0.00737117
0.00761559
0.00792082
0.00830287
0.0087576
0.00931612
0.00995513
0.0108008
0.0121564
0.0137041
0.0151201
0.0161966
0.0168452
0.0170457
0.0168954
0.0165071
0.0159237
0.0151826
0.0143052
0.0132872
0.012044
0.0106168
0.00913859
0.00762296
0.00611197
0.00468755
0.00339401
0.00228515
0.00142485
0.000818925
0.000420079
0.000181336
9.0335e-05
0.000103636
0.00737762
0.00717125
0.00700716
0.00689163
0.00681174
0.00675535
0.00672025
0.00670093
0.00668745
0.00667517
0.00667247
0.00667058
0.0066708
0.00667227
0.00667425
0.00667687
0.00667975
0.00668288
0.00668627
0.00668977
0.00669357
0.00669746
0.00670168
0.00670602
0.00762678
0.0079406
0.00833548
0.00881302
0.00940408
0.010101
0.0110808
0.0126963
0.0145035
0.0161309
0.0173943
0.0182438
0.0186666
0.0186594
0.0183116
0.0177357
0.0169717
0.0160562
0.0150134
0.0138442
0.0124654
0.010931
0.00937483
0.00780074
0.00624394
0.00477978
0.00345802
0.00232465
0.0014448
0.000825154
0.000420867
0.000180918
9.03406e-05
0.000103937
0.00763689
0.00736462
0.00714534
0.00698873
0.00687902
0.00680343
0.00674956
0.00671718
0.00669975
0.00668431
0.00667555
0.00667161
0.00667077
0.00667072
0.00667244
0.00667437
0.00667702
0.00667988
0.006683
0.00668637
0.00668986
0.00669364
0.00669751
0.00670169
0.00670602
0.00795865
0.00836548
0.00886428
0.00948655
0.0102467
0.0113695
0.0132292
0.0152391
0.0170033
0.0183784
0.0193607
0.0199698
0.0202027
0.0200424
0.0195527
0.0188388
0.0179356
0.0168778
0.0156919
0.0143846
0.0128767
0.0112372
0.00960399
0.00797224
0.00637097
0.00486811
0.0035192
0.00236245
0.00146141
0.000830512
0.000421755
0.000180509
9.03517e-05
0.000104267
0.00797482
0.00762003
0.00732882
0.0071194
0.00697069
0.00686677
0.00679534
0.00674394
0.0067143
0.00669872
0.00668128
0.00667582
0.00667091
0.00667089
0.00667071
0.00667257
0.0066745
0.00667715
0.00668002
0.00668311
0.00668648
0.00668994
0.0066937
0.00669754
0.00670169
0.00670602
0.00839302
0.00891146
0.00956432
0.0103917
0.0116571
0.0137316
0.0158827
0.0177142
0.0191317
0.020177
0.0209021
0.0213258
0.0214293
0.0211753
0.0205998
0.0197975
0.0187978
0.0176325
0.0163294
0.0149011
0.0132742
0.0115338
0.00982535
0.00813721
0.00649292
0.0049525
0.00357752
0.00239376
0.00147564
0.000836467
0.000422774
0.000180059
9.03702e-05
0.000104624
0.00841766
0.00795355
0.00757093
0.00729293
0.007094
0.00695311
0.00685484
0.00678737
0.00673859
0.00671158
0.00669772
0.00667863
0.00667582
0.00667045
0.00667091
0.00667077
0.00667268
0.00667465
0.00667727
0.00668016
0.00668321
0.00668658
0.00669001
0.00669374
0.00669753
0.00670169
0.00670602
0.00895481
0.00963801
0.0105343
0.0119342
0.0141888
0.0164251
0.0182687
0.0196748
0.020725
0.0214998
0.0220398
0.0223431
0.0223727
0.0220747
0.0214598
0.0206116
0.0195534
0.0183133
0.0169191
0.0153885
0.0136546
0.0118192
0.0100383
0.00829545
0.0066097
0.00503312
0.00362557
0.0024205
0.00149139
0.000843095
0.000423921
0.000179628
9.03968e-05
0.000105016
0.00899344
0.00839062
0.00788715
0.00752173
0.00725773
0.00706922
0.00693598
0.00684317
0.00677948
0.00673364
0.00670892
0.00669662
0.00667677
0.00667548
0.00667022
0.00667085
0.00667088
0.00667276
0.00667481
0.00667739
0.00668029
0.00668331
0.00668669
0.00669005
0.00669374
0.00669753
0.00670169
0.00670602
0.00970801
0.0106726
0.0121936
0.0145945
0.0168704
0.0186865
0.0200437
0.0210562
0.0218278
0.0224181
0.0228425
0.0230788
0.0230767
0.0227713
0.022152
0.0212913
0.0202061
0.0189194
0.0174581
0.0158436
0.0140156
0.0120923
0.0102423
0.00844684
0.00672115
0.00510015
0.00366646
0.00244997
0.00150883
0.000850491
0.000425251
0.000179146
9.04324e-05
0.000105439
0.00977194
0.00895971
0.00830082
0.00782051
0.00747344
0.00722335
0.00704506
0.00691927
0.00683175
0.00677163
0.00672898
0.00670621
0.00669483
0.00667578
0.00667486
0.00667018
0.00667073
0.00667103
0.00667283
0.00667498
0.0066775
0.00668043
0.00668341
0.00668674
0.00669005
0.00669374
0.00669753
0.00670169
0.00670602
0.0108045
0.0124347
0.0149485
0.0172291
0.0189917
0.0202762
0.0212228
0.0219529
0.0225422
0.0230212
0.0233827
0.0235902
0.023586
0.0232987
0.0227002
0.0218518
0.0207638
0.0194537
0.0179462
0.016265
0.0143558
0.0123521
0.0104369
0.00859125
0.00681317
0.0051575
0.0037114
0.00248249
0.0015282
0.000858761
0.000426743
0.000178703
9.04822e-05
0.000105905
0.0109232
0.00972935
0.00883728
0.00821097
0.007755
0.00742626
0.00718978
0.00702149
0.00690297
0.00682061
0.00676391
0.0067245
0.00670351
0.0066924
0.00667545
0.00667407
0.00667026
0.0066706
0.00667119
0.00667289
0.00667514
0.0066776
0.00668057
0.00668346
0.00668674
0.00669005
0.00669374
0.00669753
0.00670169
0.00670602
0.0126576
0.0152517
0.0175143
0.0192079
0.0204064
0.0212698
0.021933
0.0224838
0.0229663
0.0233868
0.0237219
0.0239267
0.0239404
0.0236883
0.0231276
0.0223092
0.0212367
0.0199216
0.0183852
0.0166526
0.0146745
0.0125981
0.0106221
0.00871052
0.00689155
0.00522082
0.00376088
0.00251844
0.00154974
0.000868026
0.000428493
0.000178179
9.05424e-05
0.000106406
0.0108755
0.0128532
0.0095494
0.00871693
0.0081225
0.00769093
0.00738014
0.00715702
0.00699853
0.00688712
0.00680983
0.00675634
0.00672035
0.006701
0.00668934
0.0066755
0.00667322
0.0066704
0.00667047
0.00667137
0.00667296
0.00667531
0.0066777
0.00668064
0.00668345
0.00668674
0.00669005
0.00669374
0.00669754
0.00670168
0.00670601
0.0155076
0.0177387
0.0193557
0.0204621
0.0212333
0.0218136
0.0223003
0.0227485
0.0231773
0.0235753
0.0239085
0.0241281
0.024173
0.0239672
0.0234557
0.0226795
0.0216355
0.0203293
0.0187782
0.0170073
0.0149715
0.01283
0.0107744
0.00881211
0.00697775
0.00529084
0.00381545
0.00255824
0.00157375
0.000878443
0.000430449
0.000177714
9.0626e-05
0.000106957
0.0106021
0.012801
0.0157187
0.00937696
0.00859929
0.00803574
0.00762829
0.00733511
0.0071251
0.00697622
0.00687178
0.00679958
0.0067491
0.00671669
0.00669949
0.00668617
0.00667571
0.00667241
0.00667054
0.00667035
0.00667154
0.00667302
0.00667547
0.00667774
0.00668065
0.00668344
0.00668674
0.00669005
0.00669374
0.00669751
0.00670165
0.006706
0.0179141
0.0194521
0.0204649
0.0211405
0.0216293
0.0220353
0.0224225
0.0228213
0.0232322
0.0236315
0.0239791
0.0242253
0.0243105
0.0241583
0.0237031
0.0229769
0.0219705
0.0206833
0.0191287
0.0173306
0.0152472
0.0130191
0.0109038
0.0089238
0.00707268
0.00536837
0.00387576
0.0026024
0.00160058
0.000890165
0.000432775
0.000177147
9.0721e-05
0.000107547
0.0103308
0.0124247
0.0156408
0.0180487
0.00921388
0.00848379
0.00795082
0.00756707
0.00729119
0.00709407
0.0069546
0.00685703
0.00678994
0.00674252
0.00671341
0.00669832
0.00668319
0.0066759
0.00667171
0.00667067
0.00667027
0.0066717
0.0066731
0.00667556
0.00667772
0.00668065
0.00668344
0.00668674
0.00669005
0.0066937
0.00669746
0.00670162
0.00670599
0.01951
0.0204315
0.0210115
0.0214053
0.0217209
0.0220287
0.0223692
0.0227546
0.0231716
0.023588
0.0239611
0.0242423
0.0243742
0.0242801
0.0238854
0.0232139
0.0222509
0.0209902
0.0194406
0.0176245
0.0154684
0.0131788
0.0110455
0.00904665
0.00717735
0.00545432
0.00394256
0.00265149
0.00163061
0.000903433
0.000435373
0.000176675
9.08547e-05
0.000108197
0.0100759
0.0120105
0.0152903
0.0179349
0.0195336
0.00905773
0.00837021
0.00786783
0.00750731
0.00724846
0.00706398
0.00693374
0.006843
0.00678097
0.00673647
0.00671054
0.00669727
0.00668058
0.00667597
0.00667115
0.00667076
0.00667022
0.00667186
0.00667311
0.00667558
0.00667771
0.00668065
0.00668345
0.00668674
0.00669001
0.00669364
0.00669741
0.00670158
0.00670597
0.0203737
0.0208612
0.0211598
0.0213802
0.021597
0.0218589
0.022189
0.0225852
0.0230241
0.0234683
0.0238749
0.0241976
0.024381
0.0243479
0.0240157
0.0234012
0.0224851
0.0212558
0.0197178
0.0178555
0.0156534
0.0133524
0.0112008
0.0091819
0.0072929
0.00554975
0.00401672
0.00270619
0.00166435
0.000918436
0.000438506
0.000176076
9.10012e-05
0.000108887
0.00983828
0.0115966
0.0148499
0.0176939
0.0193675
0.0202913
0.0089063
0.00825868
0.00778688
0.00744913
0.00720703
0.00703491
0.00691383
0.00682997
0.00677265
0.00673109
0.00670794
0.00669625
0.00667851
0.00667586
0.00667074
0.00667082
0.0066702
0.00667196
0.00667308
0.00667559
0.00667771
0.00668065
0.00668346
0.00668668
0.00668993
0.00669357
0.00669736
0.00670155
0.00670596
0.0206996
0.0209056
0.0210296
0.021149
0.0213185
0.0215706
0.0219151
0.0223387
0.02281
0.0232895
0.023736
0.0241057
0.0243443
0.0243739
0.0241047
0.0235479
0.0226803
0.0214857
0.0199308
0.0180464
0.0158523
0.013541
0.0113708
0.00933085
0.00742065
0.00565586
0.00409925
0.0027673
0.00170232
0.000935553
0.000442011
0.000175622
9.12103e-05
0.000109648
0.00961532
0.0111996
0.014353
0.0173749
0.0192019
0.020072
0.0205222
0.00875857
0.00814951
0.00770813
0.00739266
0.007167
0.00700713
0.00689535
0.00681804
0.00676496
0.00672639
0.0067055
0.00669506
0.0066772
0.00667555
0.00667046
0.00667087
0.00667017
0.00667198
0.00667306
0.00667559
0.00667772
0.00668064
0.00668341
0.00668658
0.00668985
0.0066935
0.00669731
0.00670152
0.00670595
0.0206514
0.0206809
0.0207002
0.0207688
0.0209267
0.0211946
0.0215709
0.0220326
0.0225436
0.0230644
0.0235565
0.0239781
0.0242748
0.0243677
0.024161
0.0236615
0.0228429
0.0216574
0.0201047
0.0182486
0.0160655
0.0137455
0.0115569
0.00949494
0.00756202
0.00577401
0.00419132
0.00283574
0.00174524
0.00095502
0.00044629
0.00017502
9.14357e-05
0.000110446
0.00940429
0.0108259
0.0138246
0.0170008
0.0189711
0.0199408
0.0202505
0.0203872
0.00861434
0.00804302
0.00763177
0.00733804
0.00712872
0.00698134
0.0068785
0.00680711
0.00675782
0.00672226
0.00670316
0.00669321
0.00667644
0.00667512
0.0066703
0.00667088
0.00667013
0.00667199
0.00667306
0.00667558
0.00667774
0.00668056
0.00668331
0.00668648
0.00668977
0.00669342
0.00669725
0.00670149
0.00670594
0.0203417
0.0202615
0.0202251
0.0202778
0.0204502
0.0207525
0.0211721
0.0216791
0.022235
0.0228025
0.0233459
0.0238239
0.0241811
0.0243373
0.0241918
0.0237482
0.0229587
0.0217956
0.020286
0.018462
0.0162936
0.0139669
0.0117603
0.00967571
0.00771863
0.00590575
0.0042943
0.00291267
0.00179381
0.000977438
0.00045111
0.000174627
9.17588e-05
0.000111478
0.00920328
0.010478
0.0132771
0.0165798
0.0187002
0.0197573
0.020125
0.0200633
0.0199975
0.0084738
0.00793959
0.00755801
0.0072858
0.00709321
0.00695786
0.00686313
0.00679711
0.00675115
0.00671858
0.00670107
0.00669092
0.00667605
0.00667466
0.00667024
0.00667085
0.00667012
0.00667199
0.00667308
0.00667556
0.0066777
0.00668043
0.00668321
0.00668637
0.00668968
0.00669335
0.0066972
0.00670146
0.00670593
0.0198399
0.0196983
0.0196396
0.019703
0.0199099
0.0202587
0.0207293
0.0212863
0.0218916
0.0225115
0.0231121
0.0236507
0.02407
0.0242888
0.0242028
0.0238027
0.0230501
0.0219369
0.0204742
0.0186864
0.0165366
0.014206
0.0119824
0.00987477
0.00789223
0.00605282
0.00440972
0.00299929
0.00184916
0.00100312
0.000457056
0.000174081
9.2181e-05
0.000112712
0.00901097
0.0101569
0.0127183
0.0161133
0.0184004
0.0195481
0.0199557
0.0199258
0.019622
0.0194255
0.00833712
0.00783964
0.00748752
0.00723735
0.00706093
0.0069365
0.00684912
0.00678804
0.00674496
0.00671542
0.00669953
0.00668852
0.00667587
0.00667428
0.00667028
0.00667084
0.00667011
0.00667198
0.00667311
0.00667546
0.0066776
0.00668029
0.0066831
0.00668626
0.00668959
0.00669328
0.00669714
0.00670142
0.00670591
0.0191954
0.0190237
0.0189695
0.0190653
0.0193187
0.0197229
0.0202494
0.0208597
0.0215189
0.0221978
0.0228616
0.0234644
0.0239469
0.0242271
0.0241967
0.0238436
0.0231404
0.0220802
0.0206681
0.018921
0.0167946
0.0144635
0.0122244
0.0100937
0.0080847
0.00621716
0.00453957
0.00309742
0.00191224
0.00103301
0.000463849
0.000173803
9.28198e-05
0.00011394
0.00882764