/*--------------------------------*- C++ -*----------------------------------*\
  =========                 |
  \\      /  F ield         | OpenFOAM: The Open Source CFD Toolbox
   \\    /   O peration     | Website:  https://openfoam.org
    \\  /    A nd           | Version:  8
     \\/     M anipulation  |
\*---------------------------------------------------------------------------*/
FoamFile
{
    version     2.0;
    format      ascii;
    class       volScalarField;
    location    "0.08";
    object      alphat;
}
// * * * * * * * * * * * * * * * * * * * * * * * * * * * * * * * * * * * * * //

dimensions      [1 -1 -1 0 0 0 0];

internalField   nonuniform List<scalar> 
15677
(
0.00160896
0.00750718
0.0204254
0.0346173
0.0486015
0.0618927
0.074127
0.0849532
0.0940229
0.101125
0.106741
0.111241
0.115275
0.121213
0.126181
0.129628
0.132339
0.134465
0.136072
0.137237
0.13807
0.138625
0.139053
0.139453
0.139832
0.140131
0.140287
0.140272
0.140108
0.139845
0.139537
0.139232
0.138967
0.138761
0.138624
0.00168259
0.0147145
0.0361842
0.0585157
0.077475
0.0908298
0.0987765
0.102614
0.103885
0.102265
0.0970191
0.0940726
0.096082
0.10137
0.102921
0.105432
0.108506
0.111383
0.113567
0.114991
0.115714
0.11585
0.115395
0.114813
0.114266
0.113801
0.113427
0.113148
0.112962
0.112864
0.112844
0.112887
0.112974
0.113084
0.113199
0.00211764
0.0208089
0.0466479
0.0717656
0.0945536
0.114362
0.130154
0.140855
0.145212
0.142388
0.133132
0.121059
0.111496
0.105061
0.106969
0.114812
0.12674
0.139808
0.151577
0.160818
0.167259
0.170645
0.172266
0.172275
0.171493
0.170516
0.169668
0.169041
0.168642
0.168453
0.16843
0.168529
0.168719
0.168981
0.169297
0.00148707
0.0109891
0.0248864
0.0386375
0.0513238
0.062374
0.0712312
0.0775627
0.082079
0.0845724
0.0864156
0.088961
0.0924962
0.0949233
0.0916745
0.0856489
0.082729
0.0866243
0.0965115
0.110428
0.123269
0.136335
0.144385
0.148497
0.150226
0.150055
0.148477
0.146293
0.144461
0.143142
0.142317
0.141897
0.141775
0.141851
0.142053
0.00122009
0.0103622
0.0217752
0.0329261
0.0436604
0.0539358
0.0636855
0.0727618
0.0808568
0.0876527
0.0926364
0.096211
0.0960899
0.090211
0.0800316
0.0719939
0.0745439
0.0923324
0.115923
0.134835
0.145831
0.152048
0.155173
0.157781
0.159819
0.161236
0.162125
0.162532
0.162586
0.162437
0.162248
0.162096
0.162005
0.161979
0.162
0.000814722
0.00545547
0.011798
0.0180605
0.0241514
0.0300365
0.0356432
0.0408309
0.0454853
0.0494817
0.0530839
0.0546679
0.0537916
0.0506093
0.0475212
0.0466086
0.049762
0.0595145
0.0745795
0.0920277
0.10858
0.121932
0.131118
0.137069
0.140808
0.143022
0.144243
0.144872
0.145146
0.145233
0.14523
0.145189
0.145139
0.145086
0.145042
0.000583959
0.00461121
0.0095969
0.0144833
0.0193552
0.0241115
0.0286514
0.0326412
0.0356642
0.0368893
0.0367519
0.0345532
0.034146
0.0418644
0.0549658
0.0691375
0.0839411
0.0987981
0.113069
0.125269
0.134095
0.139566
0.143073
0.145543
0.147429
0.148882
0.149956
0.150596
0.15101
0.151272
0.151452
0.151586
0.151693
0.15178
0.151845
0.000294243
0.0014079
0.00297493
0.00463942
0.00630647
0.00796905
0.00954928
0.0110526
0.0118909
0.0123562
0.0129292
0.0159159
0.0233281
0.040217
0.0600098
0.0752963
0.088833
0.101099
0.111702
0.120132
0.126556
0.130793
0.133568
0.135391
0.136599
0.137414
0.137983
0.1384
0.138724
0.138987
0.139207
0.139397
0.139563
0.13971
0.139844
0.000385597
0.00338558
0.00810461
0.0130821
0.0179386
0.0225536
0.0268983
0.031011
0.034964
0.0388958
0.0432663
0.0492923
0.0578765
0.0688958
0.0804145
0.0910934
0.101049
0.109755
0.116735
0.122125
0.126204
0.12913
0.131231
0.132833
0.134093
0.135083
0.135849
0.136425
0.136874
0.137238
0.137543
0.137805
0.138032
0.138234
0.138412
0.000320249
0.00271923
0.00668533
0.0112536
0.0162768
0.0217424
0.0276561
0.0340148
0.0407996
0.0479777
0.0555032
0.063397
0.0717377
0.0805507
0.0888253
0.0960078
0.102306
0.107709
0.112259
0.116059
0.119213
0.121696
0.123561
0.124984
0.126094
0.126979
0.127698
0.128291
0.128785
0.129201
0.129554
0.129855
0.130115
0.13034
0.13054
0.000347788
0.00299659
0.00711729
0.0117479
0.0167934
0.0223016
0.0283424
0.0349733
0.0422096
0.0499997
0.0582168
0.0666615
0.0751324
0.0834529
0.090696
0.096675
0.101764
0.106112
0.109848
0.113078
0.115887
0.118225
0.120087
0.121566
0.122745
0.123689
0.124453
0.125084
0.125612
0.12606
0.126442
0.126771
0.127054
0.1273
0.127511
0.000322656
0.00287633
0.00676033
0.0111468
0.015986
0.0213411
0.0272888
0.0338859
0.0411339
0.0489513
0.0571627
0.0654626
0.0736161
0.0814286
0.0880148
0.0933412
0.097837
0.10169
0.105034
0.107964
0.110544
0.112723
0.114485
0.115916
0.117087
0.118053
0.118856
0.119528
0.120096
0.120577
0.120989
0.121344
0.12165
0.121915
0.122147
0.000275954
0.002489
0.00593962
0.00989683
0.0143204
0.0192694
0.024822
0.0310425
0.0379543
0.0455063
0.053545
0.061815
0.0700099
0.0778408
0.0844293
0.0897263
0.0941741
0.097977
0.10128
0.104184
0.106754
0.108937
0.110711
0.112159
0.113346
0.114331
0.115157
0.115856
0.116451
0.11696
0.117398
0.117776
0.118104
0.118389
0.118636
0.000273205
0.00259691
0.00623442
0.0104038
0.0149975
0.0200404
0.0255824
0.0316548
0.0382439
0.0452807
0.0526144
0.0600211
0.0674078
0.0745224
0.0805915
0.085545
0.0897591
0.0933998
0.0965891
0.0994146
0.101937
0.104099
0.105876
0.10734
0.108557
0.109575
0.110433
0.111159
0.111779
0.112309
0.112767
0.113162
0.113506
0.113806
0.11407
0.000211829
0.00213298
0.00522005
0.00889517
0.0130717
0.0177385
0.0229147
0.0286216
0.0348621
0.0415824
0.0486699
0.0559564
0.0632449
0.070324
0.0764067
0.0813812
0.0856096
0.0892532
0.0924357
0.0952483
0.0977569
0.0999114
0.10169
0.103157
0.104378
0.105404
0.106273
0.107014
0.107649
0.108196
0.108669
0.10908
0.109439
0.109753
0.110028
0.00020993
0.00214783
0.00527401
0.00899195
0.0131901
0.0178334
0.0229084
0.0284
0.0342817
0.0405017
0.0469685
0.0536123
0.0602896
0.0668537
0.0725879
0.0773478
0.0814419
0.0850007
0.0881274
0.0909002
0.0933786
0.0955117
0.0972738
0.0987337
0.0999542
0.100982
0.101855
0.102599
0.103238
0.103789
0.104266
0.104681
0.105044
0.105362
0.105643
0.000178437
0.00197575
0.00479459
0.00813267
0.0119328
0.0161965
0.0209218
0.0260977
0.0316962
0.0376664
0.0439278
0.0503743
0.0568748
0.0632921
0.0689211
0.0736062
0.077642
0.0811513
0.0842326
0.0869639
0.0894061
0.0915078
0.0932443
0.0946842
0.0958888
0.0969047
0.0977678
0.098506
0.0991407
0.0996891
0.100165
0.10058
0.100943
0.101262
0.101543
0.000178314
0.00192822
0.00473402
0.00807456
0.0118503
0.01603
0.0205958
0.0255293
0.0308053
0.0363795
0.0422019
0.0482065
0.0542911
0.0603479
0.065715
0.070222
0.0741321
0.0775485
0.0805563
0.0832268
0.0856154
0.0876709
0.08937
0.0907795
0.0919601
0.0929568
0.0938041
0.0945286
0.0951514
0.0956895
0.0961566
0.0965641
0.096921
0.0972349
0.0975124
0.000157412
0.00185016
0.00445952
0.0075471
0.0110567
0.014977
0.0192997
0.0240084
0.0290735
0.0344492
0.0400737
0.04587
0.0517465
0.0576021
0.0628009
0.0671756
0.0709782
0.0743051
0.0772372
0.0798409
0.0821688
0.0841714
0.0858264
0.0871994
0.0883492
0.0893197
0.0901448
0.0908506
0.0914578
0.0919828
0.0924389
0.0928368
0.0931853
0.0934918
0.0937622
0.000158435
0.00177031
0.00433476
0.00738739
0.0108402
0.0146647
0.0188433
0.0233574
0.0281819
0.0332787
0.0386032
0.0440969
0.0496791
0.0552625
0.0602427
0.0644514
0.068123
0.071344
0.0741884
0.0767161
0.0789767
0.0809215
0.0825281
0.0838603
0.0849758
0.0859175
0.086718
0.0874023
0.0879908
0.0884993
0.0889409
0.089326
0.0896631
0.0899595
0.090221
0.000146756
0.00170486
0.00413582
0.00702129
0.0102999
0.013954
0.017969
0.022324
0.0269885
0.0319206
0.0370678
0.042369
0.0477496
0.0531286
0.0579286
0.0619895
0.065537
0.0686536
0.0714081
0.0738577
0.0760489
0.0779336
0.07949
0.0807802
0.0818601
0.0827714
0.0835459
0.0842081
0.0847772
0.0852686
0.085695
0.0860664
0.0863912
0.0866766
0.0869282
0.000145305
0.00163876
0.00400783
0.00683044
0.0100297
0.0135806
0.0174656
0.0216646
0.0261504
0.0308842
0.0358197
0.0409033
0.0460641
0.0512276
0.0558415
0.0597512
0.0631718
0.0661813
0.0688443
0.0712141
0.0733343
0.0751577
0.0766629
0.0779098
0.078953
0.0798328
0.0805801
0.0812185
0.0817669
0.0822402
0.0826507
0.0830081
0.0833207
0.0835952
0.0838373
0.000138355
0.00158464
0.00385637
0.00656233
0.00963854
0.0130642
0.0168222
0.0208905
0.0252385
0.0298253
0.0346016
0.0395135
0.0444934
0.0494715
0.0539185
0.057688
0.0609884
0.0638943
0.0664672
0.0687578
0.0708074
0.0725696
0.0740237
0.0752276
0.0762341
0.0770824
0.0778024
0.0784172
0.078945
0.0794004
0.079795
0.0801385
0.0804388
0.0807024
0.0809347
0.000135612
0.00152531
0.00373285
0.00636795
0.00936049
0.012687
0.01633
0.0202678
0.0244717
0.0289019
0.033511
0.0382488
0.0430498
0.0478476
0.0521339
0.0557688
0.058953
0.0617582
0.0642431
0.0664558
0.0684356
0.0701372
0.0715403
0.0727012
0.0736709
0.0744875
0.07518
0.0757709
0.0762777
0.0767146
0.0770931
0.0774223
0.0777099
0.0779623
0.0781847
0.000130679
0.00147683
0.00360733
0.00615226
0.00904724
0.0122702
0.0158033
0.0196238
0.0237017
0.0279968
0.0324606
0.0370445
0.0416849
0.0463189
0.0504568
0.0539657
0.0570399
0.0597487
0.0621486
0.0642855
0.0661968
0.0678385
0.069191
0.0703088
0.0712415
0.0720259
0.0726904
0.0732566
0.0737418
0.0741596
0.074521
0.0748352
0.0751094
0.0753499
0.0755616
0.000127654
0.00142593
0.0034954
0.00597057
0.00878464
0.0119146
0.0153423
0.019046
0.0229964
0.0271549
0.0314742
0.0359082
0.0403948
0.0448732
0.0488708
0.0522603
0.0552299
0.0578465
0.0601644
0.0622275
0.0640718
0.0656542
0.0669561
0.0680303
0.068925
0.0696762
0.0703112
0.0708512
0.0713131
0.0717101
0.072053
0.0723505
0.0726098
0.0728369
0.0730365
0.000123793
0.00137958
0.00338178
0.00577947
0.00850856
0.0115463
0.0148743
0.01847
0.0223041
0.0263379
0.0305247
0.0348201
0.0391633
0.043496
0.0473618
0.0506386
0.0535089
0.0560375
0.0582766
0.0602683
0.0620468
0.0635702
0.064821
0.0658505
0.0667057
0.0674215
0.0680247
0.0685362
0.0689722
0.0693457
0.0696674
0.0699456
0.0701875
0.0703988
0.0705841
0.000120712
0.00133423
0.00327762
0.00560695
0.00825795
0.0112079
0.0144386
0.0179282
0.021648
0.02556
0.0296184
0.0337802
0.0379864
0.0421805
0.0459212
0.0490911
0.0518671
0.0543117
0.056475
0.0583974
0.0601111
0.0615756
0.0627742
0.0637571
0.0645701
0.0652476
0.0658157
0.0662949
0.0667012
0.0670474
0.067344
0.0675992
0.06782
0.068012
0.0681797
0.000117418
0.00129132
0.00317505
0.00543578
0.00801034
0.0108759
0.0140143
0.0174034
0.0210147
0.0248111
0.0287474
0.0327821
0.036858
0.0409205
0.0445424
0.047611
0.0502972
0.0526617
0.0547522
0.0566072
0.0582569
0.0596619
0.0608066
0.0617403
0.0625078
0.0631428
0.0636712
0.0641133
0.0644849
0.0647988
0.0650651
0.0652923
0.0654872
0.0656551
0.0658007
0.000114479
0.00125011
0.00307875
0.00527556
0.00777771
0.0105623
0.0136113
0.0169028
0.020409
0.0240933
0.0279117
0.0318243
0.0357753
0.0397121
0.0432211
0.0461933
0.0487943
0.0510821
0.0531026
0.0548918
0.0564782
0.0578227
0.0589113
0.0597924
0.06051
0.0610975
0.0615807
0.0619796
0.0623103
0.0625854
0.0628153
0.0630083
0.063171
0.0633092
0.0634271
0.138341
0.137915
0.137452
0.13689
0.136193
0.135323
0.134241
0.132924
0.131368
0.129581
0.127577
0.125401
0.123178
0.12105
0.119111
0.11745
0.116134
0.115202
0.114654
0.114444
0.114478
0.114602
0.113328
0.113247
0.112973
0.11253
0.111965
0.111295
0.110542
0.109715
0.108815
0.107872
0.106969
0.106299
0.106125
0.106347
0.107048
0.108019
0.10893
0.109792
0.110534
0.111049
0.111266
0.111224
0.169699
0.170258
0.170898
0.171565
0.172197
0.172764
0.173289
0.173861
0.174584
0.175334
0.175731
0.175347
0.173933
0.171625
0.168967
0.166303
0.163766
0.161379
0.15917
0.157138
0.155431
0.153946
0.142492
0.143029
0.143464
0.143615
0.143441
0.142923
0.142091
0.140992
0.139555
0.137797
0.135793
0.133705
0.131742
0.130029
0.128545
0.127219
0.126033
0.124999
0.124104
0.123234
0.122312
0.121372
0.162044
0.162149
0.16223
0.162257
0.162217
0.162088
0.161859
0.161536
0.160994
0.160161
0.159069
0.157816
0.156515
0.155231
0.153982
0.152816
0.151722
0.150686
0.149703
0.148764
0.147859
0.146983
0.145032
0.145039
0.145051
0.145082
0.14513
0.145186
0.145236
0.14526
0.145237
0.145143
0.144958
0.144669
0.144286
0.143843
0.143361
0.142854
0.142358
0.14188
0.141425
0.140997
0.140592
0.140218
0.151943
0.152105
0.152264
0.152412
0.152548
0.152669
0.152771
0.152851
0.152901
0.152915
0.152888
0.152815
0.152693
0.152543
0.152359
0.152153
0.151932
0.1517
0.15146
0.151216
0.150967
0.150711
0.14013
0.140556
0.140976
0.14139
0.1418
0.142203
0.142597
0.142979
0.143345
0.143693
0.144021
0.144323
0.144589
0.144818
0.145019
0.145195
0.145353
0.145495
0.145623
0.14574
0.145849
0.145955
0.138721
0.139192
0.139665
0.140136
0.140604
0.14107
0.141534
0.141995
0.142451
0.142902
0.143344
0.143775
0.144181
0.144555
0.144899
0.145216
0.145508
0.145776
0.146023
0.146249
0.146457
0.146648
0.130919
0.131474
0.132028
0.132585
0.133145
0.133707
0.134273
0.134842
0.135414
0.135987
0.136558
0.13712
0.137657
0.138161
0.138636
0.139085
0.13951
0.139914
0.140299
0.140666
0.141017
0.141353
0.127877
0.128422
0.128969
0.129516
0.130063
0.130612
0.131163
0.131716
0.132269
0.132823
0.133375
0.133922
0.13445
0.134949
0.135423
0.135873
0.136302
0.136711
0.137102
0.137477
0.137836
0.138178
0.122566
0.123176
0.123784
0.124392
0.124999
0.125606
0.126211
0.126814
0.127412
0.128007
0.128596
0.129175
0.129728
0.130247
0.130737
0.131202
0.131643
0.132063
0.132464
0.132849
0.133219
0.133575
0.119072
0.119715
0.120355
0.120991
0.121622
0.122249
0.122871
0.123487
0.124096
0.1247
0.125296
0.125881
0.126439
0.126962
0.127452
0.127913
0.128347
0.128757
0.129145
0.129513
0.129864
0.130197
0.114558
0.11528
0.115998
0.116712
0.117423
0.118128
0.118826
0.119517
0.1202
0.120875
0.12154
0.12219
0.122807
0.12338
0.123915
0.124414
0.124879
0.125314
0.125721
0.126103
0.126461
0.126798
0.110544
0.111318
0.112091
0.112863
0.113632
0.114397
0.115158
0.115914
0.116663
0.117404
0.118135
0.118852
0.119533
0.120169
0.12076
0.121311
0.121824
0.122302
0.122747
0.123162
0.123549
0.123909
0.106191
0.107021
0.107853
0.108687
0.109522
0.110357
0.11119
0.11202
0.112845
0.113664
0.114475
0.115272
0.11603
0.116738
0.117398
0.118013
0.118586
0.119119
0.119616
0.12008
0.120511
0.120913
0.102103
0.102962
0.103827
0.104698
0.105573
0.106453
0.107334
0.108217
0.109099
0.109977
0.110851
0.111712
0.112535
0.113305
0.114027
0.114702
0.115333
0.115924
0.116476
0.116992
0.117474
0.117924
0.0980806
0.0989591
0.099847
0.100744
0.101649
0.102561
0.103478
0.104399
0.105323
0.106247
0.107171
0.108085
0.108963
0.109789
0.110566
0.111297
0.111983
0.112627
0.113232
0.1138
0.114332
0.114831
0.0943277
0.0952105
0.0961053
0.0970114
0.0979277
0.0988537
0.0997884
0.100731
0.101679
0.102632
0.103589
0.104539
0.105456
0.106324
0.107143
0.107917
0.108648
0.109337
0.109986
0.110598
0.111175
0.111717
0.0907817
0.0916634
0.0925584
0.0934665
0.0943871
0.0953197
0.0962633
0.0972172
0.0981802
0.0991511
0.100128
0.101103
0.102048
0.102944
0.103795
0.104601
0.105365
0.106089
0.106774
0.107422
0.108034
0.108614
0.0874811
0.0883574
0.0892482
0.0901531
0.0910718
0.0920041
0.0929492
0.0939065
0.0948752
0.0958542
0.0968424
0.097831
0.0987919
0.0997069
0.100578
0.101406
0.102194
0.102942
0.103653
0.104328
0.104969
0.105577
0.0843836
0.0852558
0.0861429
0.0870447
0.087961
0.0888915
0.0898359
0.0907937
0.0917642
0.0927466
0.0937401
0.094736
0.0957063
0.0966324
0.097516
0.0983587
0.0991621
0.0999279
0.100657
0.101352
0.102013
0.102643
0.0814746
0.0823438
0.0832281
0.0841275
0.0850418
0.0859709
0.0869143
0.0878718
0.0888428
0.0898267
0.0908228
0.0918228
0.0927984
0.0937312
0.0946227
0.0954747
0.0962886
0.0970659
0.0978081
0.0985166
0.0991926
0.0998377
0.0787198
0.0795889
0.0804734
0.0813731
0.0822879
0.0832176
0.084162
0.0851207
0.0860934
0.0870794
0.0880782
0.0890816
0.0900614
0.0909991
0.0918964
0.0927549
0.0935762
0.0943617
0.0951129
0.0958311
0.0965178
0.0971742
0.0760927
0.0769646
0.0778522
0.0787553
0.0796736
0.0806071
0.0815554
0.0825182
0.083495
0.0844855
0.0854888
0.0864971
0.087482
0.088425
0.0893278
0.0901921
0.0910196
0.0918117
0.09257
0.0932959
0.0939907
0.0946558
0.0735645
0.0744422
0.0753362
0.0762461
0.0771716
0.0781125
0.0790685
0.0800391
0.0810239
0.0820222
0.0830336
0.0840497
0.0850422
0.0859925
0.0869023
0.0877735
0.0886077
0.0894065
0.0901716
0.0909043
0.0916062
0.0922786
0.0711088
0.071995
0.0728982
0.0738182
0.0747546
0.075707
0.0766748
0.0776577
0.0786548
0.0796656
0.0806894
0.0817176
0.0827217
0.0836827
0.0846024
0.0854828
0.0863257
0.0871327
0.0879055
0.0886457
0.0893549
0.0900344
0.0687
0.0695966
0.0705116
0.0714446
0.0723953
0.073363
0.0743472
0.075347
0.0763617
0.0773903
0.0784318
0.0794776
0.0804984
0.0814747
0.0824085
0.0833019
0.0841566
0.0849746
0.0857574
0.0865069
0.0872246
0.0879122
0.0663145
0.0672222
0.0681505
0.0690987
0.0700666
0.0710532
0.072058
0.0730797
0.0741174
0.0751697
0.0762353
0.0773051
0.0783488
0.0793463
0.0802996
0.0812109
0.0820819
0.0829147
0.0837111
0.0844729
0.0852017
0.0858992
0.0639311
0.0648494
0.0657909
0.0667554
0.0677422
0.0687505
0.0697795
0.0708277
0.0718939
0.0729762
0.074073
0.0751742
0.0762481
0.077274
0.0782535
0.0791887
0.0800817
0.0809344
0.0817489
0.0825272
0.0832711
0.0839822
0.114694
0.114023
0.112738
0.111049
0.10904
0.106864
0.111104
0.110836
0.11024
0.109236
0.107828
0.105961
0.15239
0.150666
0.148854
0.146966
0.145057
0.143151
0.120322
0.119314
0.118403
0.117569
0.116801
0.11609
0.146127
0.145336
0.144573
0.143839
0.143137
0.14247
0.13989
0.139601
0.139338
0.139098
0.138875
0.138664
0.150481
0.150297
0.150131
0.149981
0.149848
0.149731
0.146031
0.146087
0.146159
0.14625
0.146357
0.146476
0.146784
0.146866
0.146956
0.14705
0.14715
0.147254
0.141575
0.141684
0.141792
0.141902
0.142012
0.142121
0.138398
0.138487
0.138569
0.138643
0.138711
0.138774
0.133792
0.133863
0.133926
0.133982
0.13403
0.134069
0.130398
0.130455
0.130501
0.130535
0.130559
0.130571
0.126998
0.127053
0.127094
0.127123
0.127139
0.127142
0.124125
0.124187
0.124233
0.124264
0.124279
0.124278
0.121152
0.12122
0.121272
0.121307
0.121325
0.121328
0.11819
0.118265
0.118322
0.118362
0.118384
0.11839
0.115123
0.115202
0.115264
0.115308
0.115334
0.115343
0.112033
0.112116
0.11218
0.112227
0.112256
0.112267
0.108948
0.109032
0.109099
0.109147
0.109177
0.10919
0.105926
0.106011
0.106077
0.106126
0.106157
0.106171
0.103002
0.103086
0.103153
0.103201
0.103232
0.103246
0.100204
0.100287
0.100352
0.1004
0.100431
0.100444
0.0975452
0.0976262
0.09769
0.0977366
0.0977662
0.0977788
0.0950299
0.0951086
0.0951704
0.0952153
0.0952435
0.0952551
0.0926549
0.0927311
0.0927906
0.0928335
0.09286
0.0928702
0.0904127
0.0904861
0.090543
0.0905838
0.0906083
0.0906168
0.0882927
0.0883631
0.0884174
0.0884557
0.0884781
0.0884846
0.0862826
0.0863498
0.0864012
0.086437
0.0864571
0.0864616
0.0843693
0.0844329
0.0844811
0.0845141
0.084532
0.0845348
0.104572
0.102447
0.100224
0.0980424
0.0963039
0.0952732
0.095078
0.0957322
0.0971871
0.0993681
0.102196
0.105572
0.109321
0.113288
0.117389
0.121543
0.125672
0.129705
0.133573
0.137216
0.140585
0.143676
0.104
0.102105
0.0999703
0.0976046
0.0950226
0.0928819
0.090802
0.0893982
0.0888982
0.089358
0.0906767
0.0926605
0.0950475
0.0976155
0.100249
0.10288
0.105465
0.10798
0.110408
0.112744
0.114983
0.117092
0.141397
0.139764
0.138091
0.136394
0.134669
0.132944
0.131238
0.129729
0.128215
0.127038
0.126195
0.125725
0.12566
0.125982
0.126661
0.127663
0.128959
0.130524
0.13234
0.134395
0.13668
0.139198
0.115483
0.115016
0.114596
0.114203
0.113816
0.113422
0.113029
0.112609
0.112182
0.111782
0.111436
0.111187
0.111079
0.111146
0.111409
0.111882
0.112568
0.113462
0.114562
0.11583
0.117254
0.118792
0.142022
0.141773
0.141526
0.141294
0.141083
0.14089
0.140705
0.140527
0.14034
0.140159
0.139988
0.139846
0.139751
0.139709
0.13973
0.139828
0.140009
0.140283
0.140661
0.141147
0.141745
0.142463
0.138518
0.138455
0.138395
0.138324
0.138242
0.13815
0.138058
0.137989
0.137953
0.137956
0.138005
0.138062
0.138121
0.138189
0.138273
0.13838
0.138517
0.13869
0.138898
0.139145
0.139425
0.139726
0.149707
0.149766
0.149838
0.149924
0.150036
0.150177
0.150341
0.150512
0.150675
0.150825
0.150957
0.151083
0.151218
0.151356
0.151497
0.15164
0.151785
0.151932
0.15208
0.152229
0.152378
0.152537
0.146571
0.146642
0.146722
0.146805
0.146887
0.146961
0.147016
0.147044
0.147038
0.146995
0.14692
0.14682
0.146697
0.146559
0.146409
0.146249
0.146079
0.145901
0.145715
0.145522
0.145321
0.145105
0.147295
0.147258
0.14721
0.147152
0.147082
0.146996
0.146893
0.146768
0.146621
0.14645
0.146254
0.146034
0.145796
0.145544
0.145279
0.145004
0.144717
0.144422
0.144118
0.143808
0.143492
0.143174
0.1421
0.14194
0.141768
0.141582
0.141379
0.141158
0.140915
0.140649
0.140358
0.140039
0.139689
0.139309
0.138908
0.138497
0.138079
0.137654
0.137225
0.136793
0.136362
0.135933
0.135507
0.135083
0.138693
0.13846
0.138213
0.137949
0.137668
0.137368
0.137048
0.136709
0.136348
0.135965
0.135559
0.135131
0.134695
0.134259
0.133823
0.133389
0.132958
0.132529
0.132104
0.131683
0.131267
0.130856
0.133951
0.133671
0.133378
0.133071
0.132748
0.132409
0.132053
0.13168
0.131287
0.130874
0.130441
0.129987
0.129526
0.129068
0.128614
0.128164
0.127718
0.127276
0.126838
0.126405
0.125977
0.125553
0.130434
0.130148
0.129849
0.129536
0.129207
0.128863
0.128502
0.128124
0.127727
0.12731
0.126873
0.126416
0.125951
0.125489
0.125027
0.124568
0.124109
0.123651
0.123194
0.122737
0.122278
0.121819
0.126998
0.126709
0.126404
0.126082
0.125742
0.125382
0.125003
0.124601
0.124176
0.123725
0.123248
0.122744
0.122227
0.121707
0.121185
0.120661
0.120134
0.119605
0.119072
0.118536
0.117996
0.117453
0.124123
0.123817
0.123491
0.123144
0.122775
0.122383
0.121964
0.121519
0.121045
0.12054
0.120002
0.119433
0.118847
0.118256
0.117661
0.117062
0.116458
0.115852
0.115241
0.114628
0.114012
0.113394
0.121158
0.12082
0.120458
0.120073
0.119661
0.119222
0.118753
0.118252
0.117717
0.117145
0.116534
0.115885
0.115216
0.114541
0.113863
0.113181
0.112496
0.111809
0.11112
0.11043
0.10974
0.10905
0.118201
0.117821
0.117416
0.116983
0.116522
0.116029
0.115504
0.114944
0.114347
0.11371
0.113031
0.112312
0.111572
0.110827
0.11008
0.109331
0.108583
0.107835
0.107089
0.106345
0.105605
0.104868
0.115134
0.11471
0.114259
0.113778
0.113265
0.11272
0.112141
0.111525
0.11087
0.110174
0.109435
0.108656
0.107857
0.107056
0.106255
0.105456
0.104659
0.103865
0.103076
0.102292
0.101515
0.100745
0.112038
0.111573
0.111078
0.110553
0.109996
0.109406
0.10878
0.108118
0.107416
0.106673
0.105888
0.105063
0.10422
0.103379
0.102541
0.101707
0.100878
0.100055
0.0992399
0.0984329
0.0976347
0.0968457
0.108944
0.108442
0.107911
0.107349
0.106755
0.106128
0.105465
0.104766
0.104028
0.103249
0.102428
0.101569
0.100694
0.099824
0.0989589
0.0981006
0.0972501
0.0964083
0.095576
0.0947539
0.0939425
0.0931421
0.10591
0.105379
0.104818
0.104227
0.103604
0.102948
0.102257
0.10153
0.100765
0.0999601
0.099114
0.0982307
0.097334
0.0964436
0.0955608
0.0946866
0.0938221
0.0929678
0.0921244
0.0912925
0.0904724
0.0896642
0.102974
0.102419
0.101835
0.101221
0.100576
0.0998976
0.0991854
0.0984375
0.0976522
0.0968281
0.0959631
0.0950619
0.0941485
0.093243
0.0923464
0.0914597
0.0905836
0.0897188
0.0888656
0.0880247
0.0871962
0.0863804
0.100162
0.0995888
0.0989867
0.098355
0.0976922
0.0969972
0.0962683
0.0955041
0.094703
0.0938633
0.0929831
0.0920671
0.0911396
0.090221
0.0893122
0.0884139
0.0875268
0.0866516
0.0857887
0.0849385
0.0841013
0.0832774
0.0974892
0.0969008
0.096284
0.0956377
0.0949607
0.0942514
0.0935085
0.0927303
0.0919151
0.0910613
0.0901669
0.0892366
0.088295
0.0873628
0.0864408
0.0855297
0.0846302
0.083743
0.0828685
0.0820071
0.0811592
0.0803251
0.0949586
0.0943574
0.0937279
0.0930688
0.0923788
0.0916565
0.0909003
0.0901084
0.0892791
0.0884107
0.0875011
0.086555
0.0855975
0.0846496
0.0837121
0.0827858
0.0818715
0.0809698
0.0800813
0.0792065
0.0783458
0.0774995
0.0925672
0.0919542
0.0913125
0.090641
0.0899381
0.0892023
0.0884319
0.0876251
0.08678
0.0858948
0.0849675
0.0840027
0.0830261
0.0820591
0.0811028
0.0801579
0.0792255
0.0783063
0.0774011
0.0765103
0.0756345
0.0747741
0.0903071
0.0896821
0.0890278
0.0883429
0.0876258
0.0868748
0.086088
0.0852637
0.0843998
0.0834944
0.0825454
0.0815577
0.0805577
0.0795675
0.0785881
0.0776209
0.0766668
0.0757269
0.074802
0.0738928
0.073
0.0721241
0.0881677
0.0875295
0.086861
0.0861607
0.0854268
0.0846576
0.0838511
0.0830054
0.0821184
0.0811881
0.0802124
0.0791965
0.0781678
0.0771492
0.0761422
0.0751483
0.0741688
0.073205
0.072258
0.0713285
0.0704173
0.069525
0.0861366
0.085483
0.0847975
0.0840785
0.0833241
0.0825325
0.0817017
0.0808295
0.0799139
0.0789528
0.0779442
0.0768938
0.0758302
0.0747776
0.0737379
0.0727131
0.0717047
0.0707144
0.0697433
0.0687924
0.0678626
0.0669544
0.0842006
0.0835278
0.0828211
0.0820789
0.0812992
0.0804799
0.0796189
0.0787139
0.0777629
0.0767639
0.0757151
0.0746228
0.0735176
0.0724251
0.0713478
0.0702882
0.0692482
0.0682296
0.0672339
0.0662619
0.0653146
0.0643924
0.145956
0.147702
0.149627
0.151662
0.153716
0.155672
0.157382
0.158691
0.15951
0.159847
0.159823
0.159631
0.159379
0.158914
0.157739
0.155519
0.152417
0.148374
0.143278
0.137661
0.131723
0.125139
0.120043
0.115779
0.111657
0.106745
0.0994398
0.0898837
0.0784396
0.0656057
0.0517851
0.037277
0.0224285
0.00844713
0.00156614
0.118675
0.119984
0.121402
0.122924
0.12455
0.126285
0.128134
0.130074
0.131994
0.13333
0.134022
0.134076
0.133073
0.130815
0.127224
0.123036
0.118307
0.11141
0.101818
0.0918118
0.0807656
0.0731817
0.0755907
0.0831442
0.0904088
0.0960679
0.0990232
0.100389
0.0985059
0.0898555
0.0752924
0.0564372
0.0352528
0.0147219
0.00170938
0.141463
0.143452
0.145809
0.148553
0.151657
0.154998
0.158293
0.161088
0.163096
0.164304
0.164566
0.164067
0.162097
0.158045
0.150414
0.136784
0.116574
0.0909251
0.0679912
0.0547538
0.0581645
0.0761095
0.0934259
0.108346
0.11822
0.121675
0.118536
0.110827
0.0997401
0.0856112
0.0695134
0.0517823
0.0327462
0.0142262
0.0017799
0.120111
0.121291
0.122706
0.12438
0.126333
0.128572
0.131067
0.133762
0.136525
0.139083
0.140923
0.14143
0.139545
0.133718
0.122408
0.0981168
0.07171
0.050234
0.0349729
0.0323459
0.0350348
0.0397039
0.0459175
0.0509878
0.0544635
0.0552915
0.0547987
0.0513641
0.0449483
0.0369262
0.0277456
0.0189093
0.0113485
0.00501982
0.000927254
0.143075
0.143515
0.144075
0.144802
0.14574
0.146941
0.148458
0.150308
0.152412
0.154457
0.155756
0.155738
0.154471
0.152255
0.149523
0.146585
0.14235
0.13382
0.11943
0.100512
0.0807506
0.0614091
0.045523
0.0349769
0.0282503
0.0237663
0.0207525
0.0183315
0.0159695
0.0139026
0.0119993
0.00999459
0.00734716
0.00353988
0.000629192
0.139924
0.140041
0.140182
0.140351
0.140565
0.140838
0.141186
0.141625
0.142169
0.142832
0.143602
0.144359
0.144841
0.144747
0.143275
0.140106
0.135658
0.130239
0.123644
0.115808
0.106632
0.0951203
0.0813854
0.0669889
0.0527926
0.0400138
0.0293757
0.0228502
0.0200262
0.018677
0.0170479
0.0145773
0.0104987
0.00511028
0.000704507
0.152654
0.152705
0.15275
0.152803
0.152871
0.152959
0.153072
0.153206
0.15334
0.153419
0.153326
0.15287
0.1517
0.149825
0.147199
0.144
0.140368
0.136212
0.131439
0.125888
0.1192
0.110435
0.0989221
0.0853243
0.0699102
0.0532133
0.0370489
0.0228519
0.0130893
0.00821449
0.00735506
0.00708551
0.0058051
0.00325651
0.000480381
0.144959
0.144915
0.144864
0.144799
0.144715
0.14461
0.144476
0.144305
0.144086
0.143799
0.143417
0.142888
0.142114
0.140926
0.139078
0.136404
0.133026
0.129075
0.124593
0.119493
0.113523
0.106058
0.096876
0.0867436
0.075885
0.0645877
0.0532301
0.0422334
0.0320227
0.0230554
0.015531
0.00958639
0.00499925
0.00180145
0.000272102
0.14299
0.142926
0.142849
0.14276
0.142656
0.142533
0.142384
0.142198
0.141953
0.141611
0.14111
0.140348
0.139221
0.137631
0.13551
0.132909
0.129912
0.126477
0.122522
0.117896
0.112354
0.105343
0.0967414
0.0873422
0.0773598
0.0671044
0.0569172
0.0470599
0.0377481
0.0291078
0.0212115
0.0141543
0.00803458
0.00310507
0.000359333
0.134826
0.134745
0.134657
0.134555
0.134436
0.134291
0.134112
0.133887
0.133597
0.133217
0.13272
0.132064
0.131188
0.129989
0.128323
0.126103
0.123394
0.1202
0.116471
0.112091
0.10684
0.100208
0.0920797
0.0832137
0.0738126
0.0641576
0.0545889
0.045261
0.0363912
0.0281581
0.0206669
0.013978
0.00814548
0.0033093
0.00029434
0.130608
0.130511
0.130402
0.13028
0.13014
0.129976
0.129782
0.129545
0.129248
0.128864
0.128346
0.127644
0.1267
0.125435
0.123755
0.121651
0.119148
0.11619
0.112685
0.108476
0.10332
0.0966886
0.0884744
0.0794951
0.0700163
0.0604016
0.0509448
0.0418944
0.0334712
0.0257788
0.0188528
0.0126994
0.00733661
0.00291787
0.000307686
0.125289
0.125188
0.125076
0.124945
0.12479
0.124606
0.124384
0.124112
0.123772
0.123343
0.122794
0.122082
0.121149
0.119912
0.118271
0.116204
0.113735
0.110806
0.107345
0.10321
0.0981912
0.0918188
0.0840473
0.0756674
0.0669014
0.0580383
0.0493103
0.0408733
0.0329095
0.0255288
0.0188038
0.0127759
0.0074867
0.00306623
0.000264786
0.121529
0.121402
0.121257
0.121091
0.120898
0.120671
0.120402
0.120076
0.119677
0.119175
0.118536
0.117724
0.116684
0.115349
0.113641
0.111558
0.109137
0.106278
0.10288
0.0987968
0.0938127
0.0874664
0.0797315
0.0714168
0.0627638
0.054078
0.0455779
0.0374713
0.0299299
0.0230445
0.0168546
0.0113693
0.00659942
0.00265647
0.000260242
0.117105
0.116952
0.116779
0.116579
0.116348
0.116076
0.115754
0.11537
0.114907
0.114342
0.113649
0.112792
0.111722
0.110376
0.108673
0.106595
0.104159
0.101292
0.0979022
0.0938653
0.0889923
0.0828633
0.0754893
0.0676423
0.0595283
0.0514175
0.0434726
0.0358688
0.0287635
0.0222436
0.0163554
0.0111175
0.00654316
0.0027125
0.000234803
0.113
0.112823
0.112622
0.112392
0.112127
0.111819
0.111459
0.111033
0.110523
0.109907
0.109161
0.10825
0.107128
0.105729
0.10398
0.101875
0.0994456
0.0966186
0.0932933
0.0893328
0.0845543
0.078558
0.0713774
0.0637804
0.0559724
0.0481995
0.0406264
0.0334224
0.0267205
0.0205956
0.0150839
0.0101966
0.00594491
0.00241638
0.000222737
0.108613
0.108421
0.108203
0.107955
0.107668
0.107336
0.106948
0.106492
0.105953
0.105311
0.104539
0.103605
0.102464
0.101056
0.0993077
0.0972191
0.0948151
0.0920227
0.0887487
0.0848724
0.0802361
0.0744775
0.0676555
0.0604939
0.0531648
0.0458835
0.0387736
0.0319813
0.025633
0.0198051
0.0145432
0.00986926