/*--------------------------------*- C++ -*----------------------------------*\
  =========                 |
  \\      /  F ield         | OpenFOAM: The Open Source CFD Toolbox
   \\    /   O peration     | Website:  https://openfoam.org
    \\  /    A nd           | Version:  8
     \\/     M anipulation  |
\*---------------------------------------------------------------------------*/
FoamFile
{
    version     2.0;
    format      ascii;
    class       volScalarField;
    location    "0.08";
    object      k;
}
// * * * * * * * * * * * * * * * * * * * * * * * * * * * * * * * * * * * * * //

dimensions      [0 2 -2 0 0 0 0];

internalField   nonuniform List<scalar> 
15677
(
216.839
235.584
310.167
368.203
416.127
456.634
489.721
514.54
529.443
532.353
521.86
498.102
465.633
435.274
407.967
383.964
362.131
341.923
323.279
305.856
289.717
275.659
264.31
255.622
249.421
245.438
243.205
242.062
241.482
241.112
240.761
240.402
240.115
239.939
239.883
511.55
827.619
992.859
1087.85
1145.86
1179.54
1198.15
1208.15
1211.08
1170.08
1002.6
801.219
649.832
553.796
487.043
443.993
411.538
388.283
370.721
356.459
343.739
332.258
321.046
310.988
302.707
296.014
290.549
286.109
282.574
279.864
277.916
276.669
276.07
276.069
276.536
477.905
955.987
1260.13
1517.47
1747.94
1958.93
2138.93
2255.57
2250.2
2053.92
1668.61
1207.21
835.99
587.288
462.433
404.578
379.238
372.076
374.229
379.825
385.284
388.025
388.214
384.813
378.542
370.112
360.386
350.456
341.177
333.133
326.389
320.834
316.321
312.704
309.853
334.622
627.096
835.869
993.964
1123.42
1226.14
1289.59
1304.64
1270.54
1182.85
1062.48
940.303
843.6
796.525
703.313
559.832
440.761
368.568
338.75
339.523
357.068
386.955
421.691
454.558
479.538
489.843
481.742
463.67
443.881
426.081
411.065
398.747
388.814
380.928
374.772
182.293
374.841
494.028
586.463
665.952
736.482
798.732
851.195
889.035
906.653
901.135
875.381
812.206
684.911
526.2
394.113
311.23
281.806
276.653
276.323
278.148
284.214
293.192
303.306
312.311
318.155
321.086
321.939
321.18
318.911
315.742
312.374
309.214
306.4
303.931
90.6238
171.648
233.738
282.799
324.946
361.759
393.189
418.203
435.112
442.421
440.771
423.866
377.855
316.895
258.14
214.429
189.186
181.54
184.011
191.758
204.055
219.613
235.03
247.473
255.499
259.299
260.063
259.117
257.372
255.378
253.403
251.544
249.828
248.251
246.804
43.0734
91.9283
126.353
155.329
182.7
210.052
238.076
262.104
276.848
275.08
250.153
198.427
149.949
132.51
132.462
136.385
141.605
148.446
157.561
168.241
178.893
188.276
196.485
203.88
210.208
214.926
217.566
218.507
218.469
217.987
217.407
216.852
216.337
215.828
215.309
11.4693
23.5897
34.3888
43.7486
52.4099
60.4476
67.6401
73.0846
74.9774
73.8687
69.4679
67.979
74.4872
96.6946
119.516
131.344
135.291
137.113
140.188
145.339
152.377
159.538
165.562
170.092
173.319
175.58
177.209
178.439
179.395
180.149
180.751
181.235
181.626
181.942
182.198
18.8442
31.9191
39.5878
44.8911
49.1172
52.8079
56.2295
59.5226
62.7162
65.7312
68.8467
72.7767
78.4045
85.9198
93.5226
100.139
106.176
112.118
118.162
124.107
129.82
134.991
139.607
143.752
147.25
149.992
152.007
153.385
154.421
155.267
155.985
156.606
157.147
157.617
158.023
13.4065
24.2164
31.6703
37.253
41.8674
45.837
49.3255
52.4617
55.3777
58.3291
61.531
65.1759
69.4299
74.3836
79.5189
84.4812
89.5219
94.6809
99.9545
105.25
110.4
114.994
118.801
121.976
124.615
126.799
128.603
130.097
131.344
132.394
133.283
134.041
134.692
135.255
135.743
15.4323
27.203
34.3504
39.1791
42.7939
45.611
47.8826
49.8293
51.6468
53.505
55.5732
58.0106
60.9663
64.6329
68.7172
72.8846
77.2063
81.6461
86.1589
90.6694
95.1004
99.164
102.612
105.459
107.771
109.62
111.124
112.381
113.448
114.361
115.144
115.818
116.397
116.894
117.317
13.515
24.771
31.2874
35.5972
38.7316
41.0992
42.9547
44.5085
45.9495
47.4452
49.1372
51.2103
53.7983
57.0058
60.5603
64.1679
67.8748
71.6263
75.3688
79.0456
82.6027
85.8406
88.594
90.9107
92.8438
94.4567
95.8073
96.9446
97.9085
98.7308
99.4371
100.047
100.578
101.042
101.449
9.7552
18.2679
23.5304
27.2682
30.2197
32.6641
34.7599
36.6285
38.3847
40.1469
42.0367
44.1772
46.6889
49.6785
52.9094
56.141
59.4297
62.7384
66.0214
69.2254
72.2978
75.063
77.3937
79.3432
80.9438
82.2857
83.4223
84.3913
85.2214
85.935
86.5499
87.0811
87.5407
87.9389
88.2838
9.65258
17.8892
22.4925
25.6061
27.9729
29.8276
31.3485
32.7028
34.0274
35.4366
37.0207
38.8834
41.1059
43.7482
46.5774
49.3784
52.1992
55.0119
57.7871
60.4921
63.0914
65.4423
67.445
69.137
70.561
71.7622
72.777
73.6367
74.3685
74.9944
75.5324
75.9974
76.4014
76.7545
77.0647
5.76121
11.6576
15.1127
17.7071
19.9465
22.005
23.95
25.8034
27.6235
29.4636
31.383
33.4468
35.7206
38.2629
40.8728
43.3935
45.8922
48.3551
50.767
53.1065
55.3513
57.3875
59.1311
60.5934
61.8201
62.8593
63.7447
64.5024
65.153
65.7137
66.1983
66.6185
66.9837
67.3022
67.5803
5.68428
11.0712
14.1133
16.3083
18.1362
19.771
21.3052
22.8003
24.3078
25.8763
27.5528
29.3823
31.4081
33.6744
35.9901
38.2149
40.4092
42.567
44.6759
46.7162
48.6705
50.4485
51.9696
53.2594
54.3539
55.2849
56.0792
56.7589
57.3424
57.8451
58.2797
58.6568
58.9855
59.2739
59.5285
4.0925
8.69863
11.2465
13.1536
14.8084
16.35
17.8432
19.3278
20.8301
22.3841
24.0232
25.7804
27.6878
29.7801
31.8797
33.8696
35.8123
37.7097
39.557
41.344
43.0617
44.624
45.9632
47.1025
48.0713
48.8972
49.6052
50.2145
50.7408
51.1967
51.593
51.9387
52.2411
52.5066
52.7403
4.09446
8.23578
10.4965
12.152
13.5655
14.8703
16.1336
17.3982
18.6962
20.0546
21.4987
23.0535
24.7455
26.6031
28.4661
30.2293
31.9475
33.6211
35.2448
36.8156
38.3255
39.701
40.8868
41.9007
42.7682
43.512
44.1512
44.7021
45.1781
45.5906
45.9499
46.2645
46.541
46.7849
47.0008
3.18575
7.0238
9.06126
10.5806
11.8963
13.1207
14.3092
15.4965
16.7101
17.9736
19.3085
20.7359
22.2782
23.9587
25.631
27.204
28.7298
30.2106
31.6459
33.0339
34.3673
35.5851
36.6386
37.5425
38.3184
38.985
39.5598
40.0575
40.4898
40.8667
41.1963
41.4856
41.7402
41.9649
42.1635
3.22936
6.65079
8.49028
9.84689
11.0132
12.0961
13.1487
14.2041
15.2864
16.4157
17.6106
18.8893
20.2709
21.7756
23.2709
24.6749
26.0336
27.3488
28.6231
29.8533
31.0364
32.1202
33.0602
33.8693
34.5664
35.1678
35.6879
36.1388
36.5312
36.874
37.1745
37.4384
37.6709
37.8761
38.0578
2.76867
5.97851
7.68719
8.95187
10.041
11.0513
12.0311
13.0101
14.0104
15.05
16.1456
17.3135
18.5701
19.9325
21.2804
22.5412
23.7581
24.9346
26.0718
27.1701
28.2269
29.1964
30.0391
30.7663
31.3945
31.9381
32.4099
32.8202
33.1778
33.4902
33.7637
34.0039
34.2153
34.4018
34.5669
2.71457
5.64635
7.21567
8.37258
9.366
10.2864
11.1788
12.0707
12.9818
13.9288
14.9263
15.9888
17.1305
18.3664
19.5864
20.725
21.8211
22.8791
23.9008
24.8866
25.8357
26.7073
27.4659
28.1216
28.6892
29.1814
29.6089
29.9812
30.3059
30.5899
30.8387
31.0573
31.2498
31.4197
31.5702
2.46011
5.21543
6.68236
7.76539
8.69524
9.55547
10.3875
11.2169
12.062
12.9377
13.8577
14.8347
15.8817
17.0113
18.1229
19.1576
20.1519
21.11
22.034
22.9248
23.7823
24.5699
25.2561
25.8497
26.3641
26.8107
27.199
27.5374
27.8328
28.0913
28.3179
28.517
28.6924
28.8473
28.9844
2.3634
4.91349
6.28048
7.28704
8.14958
8.94667
9.71713
10.4846
11.2661
12.0753
12.9246
13.8255
14.7891
15.8267
16.8451
17.7911
18.6984
19.5712
20.4119
21.2216
22.0005
22.7159
23.3391
23.8786
24.3463
24.7525
25.106
25.4141
25.6833
25.9189
26.1255
26.3071
26.4672
26.6086
26.7339
2.19404
4.59413
5.87756
6.82309
7.63284
8.38017
9.10129
9.81841
10.5473
11.3007
12.0901
12.9259
13.818
14.7765
15.7152
16.5855
17.4185
18.2186
18.988
19.7281
20.4394
21.0922
21.6609
22.1531
22.5798
22.9506
23.2733
23.5547
23.8005
24.0158
24.2047
24.3707
24.5172
24.6466
24.7612
2.09342
4.33264
5.53671
6.42254
7.18037
7.87937
8.5536
9.22371
9.9043
10.607
11.3423
12.1198
12.9488
13.8383
14.7078
15.5125
16.2815
17.0188
17.7267
18.4067
19.0594
19.658
20.179
20.6298
21.0205
21.36
21.6555
21.9132
22.1384
22.3357
22.5088
22.661
22.7953
22.9141
23.0193
1.96837
4.07466
5.20823
6.04249
6.75587
7.41345
8.04724
8.6765
9.31489
9.97343
10.6618
11.3888
12.1629
12.9923
13.8018
14.5496
15.2631
15.946
16.6006
17.2285
17.8303
18.3815
18.8608
19.2753
19.6344
19.9463
20.2177
20.4545
20.6614
20.8426
21.0017
21.1417
21.2653
21.3745
21.4715
1.87138
3.84579
4.91361
5.69918
6.37062
6.9892
7.5851
8.17655
8.77643
9.39498
10.0412
10.7232
11.4488
12.2252
12.9819
13.6801
14.3451
14.9806
15.5888
16.1712
16.7285
17.2383
17.681
18.0635
18.3946
18.6821
18.9323
19.1504
19.341
19.508
19.6547
19.7838
19.8977
19.9985
20.088
1.77041
3.62803
4.63531
5.37681
6.0106
6.59437
7.15656
7.71438
8.27994
8.86287
9.47154
10.1136
10.7961
11.5258
12.2361
12.8905
13.5131
14.1071
14.6747
15.2173
15.7358
16.2092
16.6197
16.9739
17.2804
17.5462
17.7773
17.9788
18.1549
18.3092
18.4446
18.5638
18.6691
18.7623
18.8451
1.68272
3.42896
4.37977
5.07997
5.67851
6.22987
6.76089
7.2878
7.82201
8.37258
8.94735
9.55344
10.1974
10.8855
11.5547
12.1706
12.7558
13.3134
13.8455
14.3533
14.8376
15.279
15.6611
15.9904
16.2748
16.5213
16.7354
16.922
17.0849
17.2276
17.3529
17.4632
17.5605
17.6468
17.7234
239.663
239.264
238.813
238.184
237.185
235.568
233.031
229.37
224.529
218.482
211.237
202.894
193.829
184.488
175.122
165.954
157.175
148.944
141.382
134.569
128.548
123.32
277.328
277.504
276.743
274.948
272.37
269.283
265.946
262.53
259.007
255.481
252.12
249.268
247.66
248.176
251.416
257.652
266.143
276.31
287.322
298.153
307.75
315.249
306.557
303.343
301.17
299.949
299.377
299.592
301.448
306.295
314.995
325.139
332.856
335.354
331.422
321.723
310.402
301.154
295.091
291.997
291.157
291.795
293.071
294.245
368.358
362.517
357.627
350.416
340.674
328.497
314.732
302.125
290.748
280.817
272.772
266.657
262.121
258.669
255.933
253.809
252.194
250.948
249.9
248.87
247.893
247.045
301.591
299.015
295.719
291.73
287.028
281.681
275.876
270.225
264.406
258.786
253.465
248.991
245.631
243.315
241.8
240.85
240.245
239.806
239.422
239.037
238.629
238.219
245.559
244.387
243.099
241.688
240.147
238.484
236.721
234.902
233.074
231.289
229.573
227.926
226.433
225.223
224.283
223.584
223.09
222.763
222.569
222.48
222.471
222.533
215.107
215.152
215.108
214.987
214.794
214.543
214.248
213.927
213.601
213.291
213.018
212.803
212.653
212.587
212.608
212.718
212.903
213.149
213.44
213.765
214.114
214.486
183.011
184.352
185.619
186.806
187.921
188.974
189.975
190.933
191.858
192.763
193.657
194.544
195.412
196.254
197.086
197.918
198.752
199.587
200.422
201.255
202.085
202.911
159.008
160.596
162.175
163.743
165.298
166.845
168.393
169.948
171.517
173.101
174.706
176.321
177.902
179.418
180.874
182.273
183.612
184.892
186.107
187.263
188.372
189.446
136.841
138.594
140.358
142.134
143.921
145.723
147.544
149.387
151.255
153.15
155.068
156.99
158.865
160.665
162.395
164.063
165.672
167.225
168.723
170.167
171.559
172.898
118.322
119.969
121.653
123.373
125.132
126.929
128.766
130.642
132.557
134.511
136.5
138.51
140.488
142.399
144.245
146.031
147.759
149.432
151.051
152.619
154.135
155.606
102.416
103.994
105.608
107.256
108.939
110.658
112.414
114.208
116.036
117.897
119.793
121.71
123.597
125.423
127.195
128.917
130.593
132.225
133.815
135.365
136.877
138.351
89.1476
90.5812
92.0517
93.5591
95.1034
96.6844
98.3014
99.9553
101.647
103.378
105.149
106.949
108.73
110.458
112.136
113.768
115.356
116.904
118.414
119.889
121.33
122.74
77.8647
79.1957
80.5595
81.9553
83.3831
84.8428
86.335
87.8617
89.4249
91.026
92.6661
94.3343
95.986
97.5893
99.1468
100.661
102.135
103.572
104.972
106.34
107.677
108.986
68.3148
69.5434
70.8033
72.0948
73.4185
74.7749
76.1645
77.5882
79.0471
80.5429
82.0773
83.6415
85.1945
86.7048
88.173
89.6006
90.9893
92.3411
93.6578
94.9412
96.1932
97.4165
60.2103
61.3533
62.5267
63.7309
64.9663
66.2335
67.5333
68.8662
70.2332
71.6356
73.0753
74.5439
76.0011
77.4175
78.7937
80.1304
81.4294
82.6929
83.9231
85.1217
86.2908
87.4321
53.3702
54.4293
55.5195
56.6412
57.7952
58.9822
60.2026
61.4566
62.7443
64.0662
65.4225
66.8036
68.172
69.5014
70.7932
72.0491
73.2702
74.4581
75.6144
76.7408
77.8388
78.9101
47.5839
48.5654
49.5775
50.621
51.6968
52.805
53.9455
55.1182
56.3238
57.5629
58.8362
60.1346
61.4228
62.6749
63.8922
65.0759
66.2272
67.3475
68.438
69.5
70.5347
71.5437
42.701
43.6081
44.5457
45.5138
46.5127
47.5431
48.6057
49.7009
50.829
51.9906
53.1861
54.4072
55.6204
56.8012
57.9502
59.0683
60.1564
61.2156
62.2468
63.2512
64.2298
65.1836
38.5526
39.3898
40.2563
41.1528
42.0799
43.0382
44.0283
45.0506
46.1058
47.1944
48.3168
49.4652
50.6081
51.7219
52.8071
53.8642
54.8939
55.8967
56.8736
57.8253
58.7527
59.6565
35.0218
35.7946
36.5959
37.4265
38.2871
39.1782
40.1006
41.0548
42.0415
43.0614
44.1148
45.1946
46.2711
47.3218
48.3469
49.3467
50.3216
51.2719
52.1982
53.1012
53.9814
54.8396
31.9906
32.7071
33.4508
34.2225
35.0231
35.8534
36.714
37.6058
38.5294
39.4855
40.4748
41.4906
42.5049
43.4964
44.4651
45.4111
46.3345
47.2355
48.1146
48.9721
49.8086
50.6243
29.3738
30.0402
30.7326
31.452
32.1991
32.9748
33.7798
34.615
35.4812
36.3791
37.3095
38.2662
39.2229
40.1593
41.0755
41.9712
42.8465
43.7015
44.5364
45.3515
46.1471
46.9235
27.0963
27.719
28.3666
29.0399
29.7397
30.4669
31.2223
32.0069
32.8215
33.6668
34.5438
35.4466
36.3504
37.2363
38.1039
38.9531
39.7838
40.596
41.3898
42.1654
42.923
43.6628
25.0999
25.6846
26.2929
26.9258
27.584
28.2684
28.98
29.7196
30.4881
31.2863
32.1152
32.9693
33.8253
34.665
35.4883
36.2947
37.0844
37.8571
38.6129
39.3519
40.0743
40.7801
23.3373
23.889
24.4631
25.0607
25.6824
26.3293
27.0023
27.7021
28.4297
29.1859
29.9717
30.7821
31.595
32.393
33.176
33.9436
34.6957
35.4322
36.1531
36.8584
37.5483
38.2228
21.7714
22.2942
22.8385
23.4052
23.995
24.609
25.2479
25.9126
26.6041
27.3231
28.0706
28.8419
29.6161
30.3766
31.1232
31.8556
32.5736
33.2772
33.9661
34.6406
35.3006
35.9462
20.372
20.8695
21.3877
21.9274
22.4893
23.0744
23.6834
24.3173
24.9768
25.6628
26.3763
27.1128
27.8524
28.5793
29.2932
29.9939
30.6811
31.3548
32.0148
32.6612
33.2939
33.9129
19.115
19.5903
20.0855
20.6014
21.1388
21.6985
22.2813
22.888
23.5193
24.1763
24.8596
25.5652
26.2738
26.9706
27.6552
28.3274
28.9869
29.6337
30.2677
30.8886
31.4965
32.0913
17.9807
18.4361
18.9108
19.4058
19.9216
20.4591
21.0188
21.6016
22.2082
22.8395
23.4962
24.1743
24.8554
25.5252
26.1835
26.83
27.4646
28.0872
28.6977
29.296
29.8819
30.4552
118.586
114.575
111.509
109.414
107.95
107.281
322.228
328.842
333.037
334.028
331.463
325.207
294.823
294.247
292.746
290.643
287.874
284.429
245.971
244.604
242.995
241.17
239.176
237.019
237.512
236.327
235.014
233.615
232.191
230.817
222.485
222.327
222.203
222.111
222.039
221.959
214.712
214.827
214.998
215.225
215.509
215.86
203.526
203.983
204.491
205.053
205.656
206.279
190.186
190.628
191.104
191.607
192.135
192.688
173.772
174.209
174.656
175.12
175.596
176.075
156.534
156.927
157.307
157.672
158.033
158.407
139.242
139.557
139.86
140.156
140.444
140.723
123.56
123.793
124.016
124.229
124.433
124.628
109.719
109.889
110.049
110.199
110.341
110.473
98.0912
98.2265
98.349
98.4593
98.5569
98.6416
88.0505
88.1571
88.2507
88.3318
88.4001
88.4555
79.4856
79.5755
79.6513
79.7133
79.7616
79.7957
72.0814
72.1593
72.2234
72.2738
72.3107
72.3337
65.6908
65.7622
65.8195
65.8628
65.8923
65.9076
60.1365
60.2031
60.2559
60.2949
60.3203
60.3318
55.2953
55.3585
55.4083
55.4445
55.4672
55.4763
51.0577
51.118
51.1651
51.1992
51.2201
51.2279
47.3361
47.3935
47.4383
47.4704
47.4898
47.4964
44.056
44.1105
44.1528
44.1829
44.2009
44.2065
41.1552
41.2066
41.2463
41.2744
41.2908
41.2953
38.5809
38.6292
38.6663
38.6921
38.7068
38.7102
36.2887
36.3337
36.3681
36.3918
36.4047
36.4067
34.2408
34.2828
34.3145
34.3359
34.3469
34.3476
32.4057
32.4446
32.4737
32.4928
32.5021
32.5013
30.7568
30.7925
30.8188
30.8357
30.8434
30.8416
107.599
109.397
112.719
117.391
123.183
130.081
138.077
147.229
157.695
169.709
183.528
199.272
216.59
234.972
254.13
273.721
293.361
312.642
331.147
348.474
364.271
378.349
317.313
309.523
300.627
292.141
285.648
282.49
282.851
287.561
296.517
309.217
324.969
342.965
362.089
381.437
400.701
419.696
438.301
456.435
474.044
491.095
507.579
523.488
280.51
276.378
272.109
268.012
264.446
261.771
260.287
260.215
261.532
264.375
268.577
274.087
280.855
288.743
297.668
307.503
318.108
329.356
341.148
353.427
366.187
379.47
234.714
232.53
230.595
228.99
227.782
227.063
226.932
227.476
228.801
231.027
234.264
238.595
243.961
250.199
257.212
264.889
273.114
281.777
290.804
300.12
309.681
319.427
229.506
228.235
227.008
225.898
225.048
224.541
224.434
224.766
225.595
226.957
228.887
231.395
234.385
237.667
241.163
244.793
248.485
252.227
256.027
259.862
263.709
267.533
221.812
221.644
221.569
221.6
221.74
221.996
222.387
222.941
223.672
224.591
225.684
226.891
228.144
229.403
230.652
231.881
233.102
234.313
235.505
236.663
237.77
238.812
216.073
216.151
216.265
216.423
216.636
216.912
217.246
217.616
218.006
218.409
218.823
219.249
219.679
220.088
220.458
220.777
221.039
221.24
221.377
221.453
221.474
221.44
206.62
206.673
206.723
206.77
206.809
206.826
206.806
206.731
206.586
206.352
206.014
205.562
204.997
204.337
203.591
202.767
201.871
200.91
199.887
198.809
197.676
196.498
192.817
192.5
192.149
191.757
191.32
190.827
190.268
189.632
188.907
188.082
187.144
186.089
184.935
183.712
182.425
181.082
179.689
178.252
176.778
175.275
173.752
172.213
176.016
175.402
174.738
174.019
173.239
172.386
171.452
170.426
169.298
168.055
166.686
165.188
163.597
161.954
160.269
158.547
156.79
155.009
153.215
151.416
149.619
147.835
158.156
157.271
156.33
155.323
154.244
153.088
151.848
150.517
149.09
147.56
145.921
144.181
142.387
140.579
138.764
136.946
135.13
133.323
131.527
129.748
127.987
126.248
140.34
139.287
138.182
137.021
135.801
134.517
133.164
131.738
130.233
128.645
126.97
125.216
123.429
121.652
119.891
118.148
116.428
114.729
113.054
111.409
109.798
108.224
124.165
123.042
121.873
120.658
119.393
118.073
116.697
115.261
113.761
112.195
110.559
108.864
107.157
105.475
103.821
102.196
100.602
99.0412
97.5143
96.0223
94.5659
93.1462
109.982
108.867
107.714
106.52
105.284
104.004
102.676
101.298
99.867
98.3818
96.8399
95.2509
93.6586
92.0978
90.5704
89.0777
87.6201
86.1974
84.8083
83.451
82.1269
80.8382
98.1389
97.0523
95.9299
94.7703
93.5718
92.3323
91.05
89.7233
88.3508
86.9312
85.4639
83.9595
82.4618
81.0014
79.5777
78.1904
76.8387
75.5221
74.2396
72.9907
71.7747
70.5914
87.9595
86.9166
85.8422
84.7357
83.5956
82.4202
81.2079
79.9573
78.6666
77.3339
75.9571
74.5468
73.1436
71.7797
70.4544
69.1665
67.915
66.6988
65.5166
64.3669
63.2482
62.1613
79.3113
78.3154
77.2914
76.2388
75.1561
74.0421
72.8955
71.7148
70.4988
69.2463
67.9564
66.6376
65.326
64.0497
62.8095
61.6056
60.4383
59.3059
58.2068
57.1396
56.1032
55.0972
71.8683
70.9217
69.9494
68.9509
67.9252
66.8712
65.788
64.6744
63.5297
62.3529
61.1435
59.9097
58.6858
57.4971
56.3435
55.2242
54.1385
53.0851
52.0634
51.0725
50.112
49.1815
65.4618
64.5627
63.6401
62.6934
61.722
60.7248
59.7012
58.6504
57.5717
56.4646
55.3285
54.1715
53.0254
51.9134
50.835
49.7893
48.7755
47.7927
46.8402
45.9177
45.0241
44.159
59.9068
59.0533
58.1779
57.2804
56.36
55.4161
54.4481
53.4554
52.4374
51.3938
50.3241
49.2358
48.1588
47.115
46.1035
45.1237
44.1749
43.2564
42.3677
41.5081
40.6771
39.8742
55.0714
54.2605
53.4292
52.5774
51.7044
50.8097
49.8929
48.9534
47.9909
47.0049
45.9953
44.969
43.9545
42.9722
42.0214
41.1014
40.2117
39.3515
38.5202
37.7171
36.9416
36.1931
50.8421
50.0708
49.2803
48.4707
47.6413
46.7919
45.9219
45.031
44.1189
43.1853
42.23
41.2599
40.3017
39.3749
38.4788
37.6126
36.7758
35.9676
35.1874
34.4344
33.708
33.0074
47.1285
46.3935
45.6405
44.8695
44.0801
43.2719
42.4446
41.5979
40.7315
39.8453
38.9392
38.0198
37.1125
36.2357
35.3888
34.5709
33.7815
33.0198
32.2852
31.577
30.8944
30.2369
43.8548
43.153
42.4343
41.6986
40.9455
40.1749
39.3863
38.5796
37.7546
36.9113
36.0495
35.1758
34.3143
33.4824
32.6795
31.9049
31.1578
30.4377
29.7438
29.0755
28.4319
27.8124
40.9584
40.2869
39.5993
38.8956
38.1755
37.4389
36.6854
35.9149
35.1273
34.3225
33.5007
32.6681
31.8477
31.056
30.2926
29.5566
28.8475
28.1645
27.507
26.8742
26.2654
25.6799
38.3866
37.7426
37.0832
36.4085
35.7184
35.0124
34.2905
33.5527
32.7987
32.0287
31.2428
30.447
29.6635
28.9079
28.1799
27.4785
26.8033
26.1535
25.5284
24.9273
24.3496
23.7944
36.0952
35.476
34.8423
34.1939
33.5306
32.8524
32.159
31.4505
30.7268
29.988
29.2344
28.4716
27.7211
26.998
26.3015
25.6312
24.9863
24.3662
23.7702
23.1975
22.6476
22.1196
34.0469
33.4503
32.8397
32.215
31.576
30.9227
30.2549
29.5727
28.8762
28.1654
27.4407
26.7077
25.9869
25.2927
24.6247
23.9821
23.3644
22.7709
22.2009
21.6537
21.1287
20.6252
32.2105
31.6344
31.0446
30.441
29.8237
29.1927
28.5478
27.8893
27.2172
26.5317
25.833
25.1267
24.4324
23.7642
23.1216
22.5039
21.9106
21.3409
20.7943
20.2701
19.7675
19.286
30.5599
30.0018
29.4302
28.8454
28.2475
27.6364
27.0122
26.375
25.7249
25.0621
24.3868
23.7043
23.0339
22.3889
21.769
21.1736
20.602
20.0537
19.5282
19.0247
18.5426
18.0812
388.47
396.162
404.249
412.454
420.411
427.658
433.627
437.991
441.124
443.894
447.416
452.563
459.54
466.972
473.33
478.607
483.717
489.615
492.231
495.662
500.021
510.677
532.903
549.63
550.6
540.767
526.619
508.931
485.555
456.778
421.718
378.527
323.288
246.151
207.037
536.132
546.213
557.141
569.057
582.123
596.51
612.319
628.827
641.376
647.758
648.529
641.418
623.829
596.899
569.044
549.79
528.716
507.151
490.047
492.636
516.527
591.167
738.651
962.586
1158.02
1202.22
1197.1
1203.21
1214.75
1214.14
1191.1
1132.74
1028.21
849.011
518.805
391.383
402.29
415.443
431.493
451.119
474.494
499.796
521.318
534.157
538.68
536.522
527.888
510.265
482.31
440.856
387.97
335.075
291.558
272
308.622
433.779
692.067
1019.16
1385.44
1699.21
1822.07
1773.46
1632.64
1460.03
1279.66
1129.89
997.343
857.931
667.475
360.327
327.865
335.404
344.07
353.992
365.236
377.705
390.949
404.591
418.05
430.359
439.083
441.106
428.194
389.075
330.61
273.506
231.366
214.261
214.194
251.783
319.195
412.437
530.733
646.451
748.104
817.774
837.545
815.004
754.127
672.221
576.238
474.184
369.414
254.116
120.988
270.96
274.24
278.064
282.574
287.96
294.483
302.486
312.358
324.258
337.02
345.407
343.812
332.809
313.428
290.066
265.694
241.066
216.439
192.029
169.777
152.018
138.465
129.643
125.122
123.26
122.007
120.533
119.385
118.419
114.326
108.245
100.349
85.8489
64.8107
47.4817
239.808
240.873
242.053
243.359
244.8
246.376
248.073
249.863
251.684
253.446
255.007
256.192
256.312
253.424
244.749
228.977
208.868
187.808
168.038
150.633
135.806
122.642
111.993
104.811
101.621
103.477
111.873
130.711
159.679
184.843
187.915
169.77
141.465
109.029
67.5095
221.587
221.95
222.308
222.675
223.078
223.551
224.136
224.868
225.747
226.678
227.259
226.534
223.149
216.364
206.274
194.155
181.376
168.239
155.037
142.082
129.709
117.747
106.839
97.4027
88.7468
80.4243
72.3501
65.0489
61.9169
67.5405
91.1193
103.669
94.3041
67.1724
28.9707
195.794
195.573
195.289
194.921
194.445
193.834
193.062
192.097
190.907
189.448
187.661
185.47
182.679
178.81
173.122
165.075
155.019
143.858
132.366
121.09
110.373
100.174
91.395
84.2726
78.0997
72.2891
66.4313
60.3184
53.9486
47.4852
40.9209
34.1357
27.1658
19.1071
9.76114
171.287
170.937
170.515
170.013
169.425
168.745
167.965
167.072
166.038
164.793
163.181
160.841
157.403
152.629
146.443
139.189
131.359
123.161
114.788
106.393
98.0837
89.685
81.7649
74.986
69.1622
64.0905
59.5483
55.3598
51.4052
47.5371
43.5643
39.2573
34.1689
27.2128
16.4189
146.753
146.326
145.838
145.277
144.625
143.862
142.96
141.886
140.593
139.019
137.106
134.793
132.008
128.583
124.214
118.782
112.557
105.828
98.8261
91.7831
84.8389
77.9084
71.5069
66.1113
61.4345
57.2526
53.3922
49.7162
46.1097
42.4689
38.6778
34.5616
29.768
23.2841
11.2775
125.199
124.785
124.315
123.781
123.173
122.479
121.683
120.767
119.698
118.424
116.834
114.808
112.26
109.071
105.174
100.729
95.8996
90.7814
85.4725
80.0688
74.6464
69.1036
63.8179
59.2234
55.1845
51.573
48.269
45.1577
42.1277
39.0641
35.8324
32.2408
27.9338
22.0016
12.1337
107.303
106.975
106.6
106.169
105.67
105.087
104.404
103.599
102.645
101.505
100.132
98.4647
96.4273
93.9078
90.7792
87.1234
83.1042
78.7558
74.2219
69.5921
64.9376
60.1805
55.6482
51.72
48.2553
45.1235
42.2181
39.4479
36.7302
33.9824
31.1057
27.9502
24.2165
19.0585
9.07318
92.3239
92.0468
91.7301
91.3673
90.9501
90.4681
89.9074
89.2505
88.4689
87.5128
86.3208
84.8447
83.0205
80.7699
78.0245
74.9197
71.6639
68.201
64.5781
60.8442
57.0422
53.0929
49.2525
45.8448
42.7848
39.9924
37.3944
34.9207
32.5017
30.0614
27.5052
24.6912
21.349
16.7643
8.706
80.0949
79.8505
79.5722
79.253
78.8835
78.4523
77.9451
77.3436
76.6252
75.7615
74.7177
73.4534
71.9226
70.0732
67.8631
65.347
62.6032
59.647
56.5064
53.2568
49.9472
46.5115
43.1745
40.226
37.5926
35.1928
32.9582
30.8269
28.74
26.634
24.4291
22.0029
19.1141
15.0867
7.11539
69.9083
69.6842
69.4292
69.138
68.8034
68.4167
67.9661
67.4348
66.797
66.0269
65.0982
63.9788
62.6294
61.0027
59.0566
56.858
54.5148
52.0471
49.4609
46.7746
44.0095
41.0968
38.214
35.6217
33.2696
31.1014
29.0614
27.1054
25.188
23.2574
21.2451
19.0448
16.4482
12.8932
6.38296
61.5328
61.3245
61.0885
60.8182
60.5066
60.1451
59.7232
59.2276
58.642
57.9467
57.118
56.1282
54.9449
53.5304
51.8553
49.9813
47.9872
45.8702
43.6304
41.2862
38.8668
36.318
33.8001
31.5398
29.4946
27.6143
25.8545
24.1733
22.529
20.8746
19.1485
17.2537
14.9977
11.8429
5.58383
54.5154
54.3221
54.1028
53.853
53.5666
53.2362
52.8512
52.3982
51.8641
51.2332
50.4865
49.6013
48.55
47.3004
45.8265
44.1809
42.4342
40.5929
38.6646
36.6558
34.5671
32.3424
30.1245
28.1123
26.2695
24.5602
22.9496
21.4031
19.8826
18.3492
16.7523
15.0097
12.9577
10.1471
4.84536
48.6432
48.4629
48.2586
48.0254
47.7578
47.4493
47.0917
46.6755
46.1889
45.6179
44.946
44.1533
43.2166
42.1084
40.8074
39.3614
37.8328
36.2243
34.5352
32.7645
30.9229
28.9618
27.0008
25.2149
23.5801
22.0665
20.6447
19.2854
17.9575
16.6247
15.2389
13.7227
11.9221
9.40742
4.45108
43.6593
43.4931
43.3047
43.0902
42.8442
42.5602
42.2315
41.8499
41.4055
40.8865
40.2787
39.5654
38.7264
37.738
36.5819
35.3006
33.9487
32.5278
31.0378
29.4757
27.8471
26.1055
24.3476
22.7346
21.2444
19.8518
18.5326
17.2626
16.0159
14.7623
13.4589
12.0418
10.3805
8.11185
3.75946
39.4113
39.258
39.084
38.8855
38.6583
38.3971
38.0959
37.7474
37.3427
36.8716
36.3216
35.6781
34.9235
34.0373
33.0036
31.8608
30.6576
29.3947
28.0721
26.6883
25.2406
23.6833
22.1044
20.6488
19.2996
18.0401
16.8514
15.7117
14.5977
13.4819
12.3263
11.0699
9.58964
7.5449
3.56962
35.7625
35.6213
35.461
35.2783
35.0692
34.8292
34.5528
34.2338
33.8644
33.4355
32.9362
32.3536
31.6723
30.874
29.9449
28.9196
27.8411
26.71
25.5259
24.2871
22.9903
21.5915
20.1661
18.8422
17.6067
16.4458
15.3446
14.2838
13.243
12.1979
11.1155
9.94188
8.56851
6.69243
3.04392
32.6056
32.4756
32.3281
32.1601
31.9681
31.7481
31.4951
31.2035
30.8663
30.4754
30.0212
29.4922
28.8748
28.1526
27.3133
26.3882
25.4159
24.3966
23.3295
22.2127
21.0424
19.778
18.4871
17.287
16.1642
15.1062
14.1006
13.133
12.1866
11.239
10.2593
9.19716
7.95124
6.2406
2.9478
29.8609
29.741
29.605
29.4503
29.2737
29.0716
28.8394
28.5721
28.2636
27.9065
27.4922
27.0104
26.4489
25.7929
25.0314
24.1926
23.3113
22.3873
21.4195
20.4058
19.3421
18.191
17.013
15.9154
14.8869
13.9154
12.9879
12.0916
11.2119
10.3293
9.41558
8.42542
7.26698
5.68404
2.63972
27.4593
27.3486
27.2231
27.0805
26.9179
26.7319
26.5186
26.2733
25.9905
25.6636
25.2847
24.8447
24.3322
23.7342
23.0403
22.2762
21.4733
20.6313
19.7488
18.8236
17.8517
16.7985
15.7193
14.713
13.7694
12.8779
12.027
11.2039
10.3948
9.58248
8.74183
7.83109
6.7643
5.30385
2.51591
25.3474
25.2448
25.1288
24.997
24.8469
24.6755
24.4791
24.2534
23.9936
23.6935
23.3462
22.943
22.4739
21.9266
21.2919
20.5928
19.8579
19.0867
18.2778
17.4288
16.5359
15.5671
14.5729
13.6445
12.7727
11.948
11.1598
10.3966
9.64534
8.88933
8.10565
7.25594
6.2612
4.90221
2.31175
23.4803
23.3852
23.2776
23.1556
23.0169
22.8586
22.6774
22.4694
22.2302
21.9541
21.6348
21.2644
20.8336
20.3312
19.7482
19.1059
18.4303
17.7206
16.9755
16.1927
15.3685
14.4732
13.5535
12.6938
11.8861
11.1217
10.391
9.68353
8.98716
8.28654
7.55988
6.77095
5.84641
4.58238
2.18986
21.822
21.7336
21.6337
21.5207
21.3922
21.2457
21.0782
20.8862
20.6655
20.411
20.1167
19.7755
19.3787
18.9157
18.3784
17.7858
17.1619
16.5059
15.8163
15.0911
14.3267
13.4956
12.6407
11.841
11.089
10.3767
9.69518
9.03474
8.38404
7.7288
7.04872
6.31023
5.44492
4.26403
2.03771
20.3425
20.2602
20.1675
20.0625
19.9434
19.8077
19.6527
19.4751
19.2711
19.036
18.7643
18.4491
18.0825
17.6545
17.1573
16.6084
16.0298
15.4207
14.7796
14.1047
13.3927
12.6178
11.8202
11.0735
10.371
9.70534
9.06832
8.45089
7.84253
7.22998
6.59432
5.90417
5.09561
3.99226
1.92376
19.0169
18.9404
18.8542
18.7568
18.6463
18.5205
18.377
18.2126
18.0238
17.8063
17.5547
17.2629
16.9232
16.5263
16.0645
15.554
15.0151
14.4469
13.8484
13.2175
12.5514
11.8259
11.0787
10.3789
9.72026
9.09589
8.49823
7.91879
7.34773
6.77262
6.17575
5.52776
4.76892
3.7348
1.80532
17.8245
17.7534
17.6734
17.583
17.4806
17.3641
17.2312
17.079
16.9041
16.7025
16.4693
16.1985
15.8828
15.5134
15.0829
14.6061
14.102
13.5698
13.0084
12.4163
11.7905
11.1087
10.4062
9.74811
9.12869
8.54152
7.97948
7.43465
6.89779
6.35726
5.79646
5.18787
4.4755
3.50555
1.70529
1.58795
3.22067
4.11378
4.77197
5.33474
5.85323
6.35268
6.84832
7.35088
7.86886
8.40959
8.97971
9.58534
10.2321
10.8607
11.4388
11.9874
12.5095
13.0069
13.4807
13.9317
14.3418
14.6962
15.0008
15.2634
15.4906
15.6877
15.8592
16.0088
16.1396
16.2544
16.3555
16.4446
16.5236
16.5938
1.49333
3.01008
3.84438
4.45975
4.98614
5.47132
5.93888
6.40309
6.87398
7.35951
7.86656
8.40131
8.96945
9.57618
10.1656
10.7074
11.2212
11.7096
12.1742
12.6159
13.0355
13.416
13.7437
14.0247
14.2662
14.4745
14.6546
14.8109
14.9469
15.0657
15.1696
15.2609
15.3414
15.4126
15.4758
1.4057
2.81712
3.59778
4.17419
4.66756
5.12256
5.56131
5.9972
6.43967
6.89621
7.3733
7.87677
8.41195
8.98371
9.53928
10.0498
10.5338
10.9935
11.4303
11.845
12.238
12.5933
12.8984
13.1589
13.3819
13.5734
13.7383
13.8808
14.0041
14.1114
14.2049
14.2867
14.3585
14.4219
14.4781
1.32574
2.64054
3.37214
3.91291